/*--------------------------------*- C++ -*----------------------------------*\
| =========                 |                                                 |
| \\      /  F ield         | OpenFOAM: The Open Source CFD Toolbox           |
|  \\    /   O peration     | Version:  2306                                  |
|   \\  /    A nd           | Website:  www.openfoam.com                      |
|    \\/     M anipulation  |                                                 |
\*---------------------------------------------------------------------------*/
FoamFile
{
    version     2.0;
    format      ascii;
    arch        "LSB;label=32;scalar=64";
    class       volVectorField;
    location    "625";
    object      momentError;
}
// * * * * * * * * * * * * * * * * * * * * * * * * * * * * * * * * * * * * * //

dimensions      [0 1 -2 0 0 0 0];

internalField   nonuniform List<vector> 
1340
(
(1.68788e-07 -5.50364e-07 6.04177e-16)
(1.4707e-07 -7.47314e-07 -1.95205e-15)
(1.98478e-07 -6.21665e-07 5.9428e-15)
(1.97774e-07 -6.22097e-07 7.89902e-16)
(1.617e-07 -5.36795e-07 1.19894e-15)
(2.35572e-07 -7.16886e-07 2.7942e-15)
(2.12904e-07 -7.19956e-07 9.75797e-17)
(2.10289e-07 -6.43381e-07 6.32711e-16)
(2.07812e-07 -6.05041e-07 7.02407e-16)
(2.12789e-07 -6.10047e-07 -3.9252e-16)
(1.51626e-07 -6.32546e-07 -5.39262e-16)
(2.44172e-07 -7.12103e-07 3.05654e-15)
(3.36751e-07 -1.11298e-06 -1.32701e-15)
(2.8807e-07 -9.64096e-07 2.76907e-15)
(2.33161e-07 -8.49749e-07 8.46653e-18)
(2.04081e-07 -7.00008e-07 1.68361e-18)
(2.39548e-07 -6.41419e-07 1.20545e-15)
(2.26434e-07 -6.65363e-07 -4.17098e-15)
(2.18281e-07 -6.42337e-07 -2.20927e-15)
(1.73744e-07 -5.87579e-07 1.56423e-17)
(1.84408e-07 -6.99913e-07 -5.43762e-15)
(6.9043e-07 -1.71649e-06 2.16818e-16)
(6.12035e-07 -1.53508e-06 -2.65772e-16)
(5.43347e-07 -1.43257e-06 1.83281e-16)
(4.7792e-07 -1.34792e-06 1.12156e-15)
(4.03348e-07 -1.22934e-06 -4.1213e-16)
(3.36628e-07 -1.0566e-06 2.70046e-15)
(2.89022e-07 -9.19572e-07 -8.21308e-16)
(2.52401e-07 -8.26088e-07 -1.39445e-15)
(2.23686e-07 -7.75541e-07 -1.75778e-17)
(2.56537e-07 -6.82195e-07 -1.83122e-16)
(2.20412e-07 -6.12856e-07 2.71574e-15)
(2.0475e-07 -6.13647e-07 1.51725e-15)
(1.68164e-07 -5.9325e-07 3.03891e-18)
(1.63269e-07 -6.80916e-07 4.39401e-16)
(1.78437e-06 -1.80324e-06 -9.60058e-16)
(1.53793e-06 -1.84695e-06 2.21602e-16)
(1.27943e-06 -1.84096e-06 3.47353e-16)
(1.09185e-06 -1.83565e-06 1.11301e-15)
(9.04227e-07 -1.75893e-06 1.02628e-15)
(7.55386e-07 -1.59065e-06 -3.98597e-16)
(6.48522e-07 -1.44214e-06 -6.26357e-16)
(5.67129e-07 -1.34318e-06 -5.6674e-16)
(4.90253e-07 -1.24814e-06 1.68754e-15)
(4.29076e-07 -1.1809e-06 -1.11343e-16)
(3.94383e-07 -1.13247e-06 -6.81549e-16)
(3.40897e-07 -9.80313e-07 8.58159e-16)
(2.91288e-07 -8.43662e-07 -6.31143e-16)
(2.5227e-07 -7.16325e-07 1.51701e-17)
(2.40808e-07 -6.50512e-07 -1.63044e-16)
(2.24277e-07 -6.10533e-07 6.20619e-16)
(1.99263e-07 -6.10343e-07 7.2112e-16)
(1.63512e-07 -5.83163e-07 2.62398e-17)
(1.39962e-07 -6.5906e-07 -2.31074e-16)
(4.00305e-06 -1.39853e-06 4.63403e-16)
(3.66841e-06 -1.4579e-06 8.07159e-16)
(3.35948e-06 -1.44333e-06 9.94069e-16)
(3.07103e-06 -1.40027e-06 -2.56757e-16)
(2.78692e-06 -1.32749e-06 7.71618e-16)
(2.54235e-06 -1.34024e-06 -7.49313e-16)
(2.24735e-06 -1.39472e-06 -2.28971e-15)
(1.95392e-06 -1.39458e-06 -1.15913e-15)
(1.65687e-06 -1.53615e-06 6.27323e-16)
(1.4185e-06 -1.56865e-06 1.01966e-16)
(1.19353e-06 -1.57392e-06 1.45314e-15)
(1.02927e-06 -1.60045e-06 -2.24408e-16)
(9.15491e-07 -1.63727e-06 -5.2147e-17)
(7.84944e-07 -1.52494e-06 8.04801e-17)
(6.86714e-07 -1.43174e-06 -5.61819e-17)
(5.89645e-07 -1.34103e-06 -5.3995e-16)
(5.07536e-07 -1.19694e-06 1.07562e-15)
(4.22948e-07 -1.01161e-06 -9.69777e-16)
(3.62161e-07 -8.8484e-07 1.2337e-16)
(3.11438e-07 -7.80561e-07 1.72683e-15)
(2.73457e-07 -7.02262e-07 -3.73563e-17)
(2.50916e-07 -6.39084e-07 1.70588e-16)
(2.25796e-07 -5.9512e-07 -1.40742e-15)
(1.95217e-07 -6.00169e-07 -1.67633e-15)
(1.56099e-07 -5.739e-07 -2.11107e-17)
(1.24133e-07 -6.34503e-07 6.30173e-16)
(7.4969e-06 1.24224e-06 -2.3941e-16)
(7.24163e-06 9.90241e-07 2.68111e-16)
(6.99907e-06 8.13711e-07 -1.10561e-16)
(6.72718e-06 6.37988e-07 -2.15841e-16)
(6.45542e-06 4.66394e-07 7.03259e-16)
(6.15785e-06 2.88053e-07 -5.63918e-16)
(5.86012e-06 1.08045e-07 9.91816e-17)
(5.54202e-06 -7.71456e-08 6.16018e-16)
(5.22454e-06 -2.5461e-07 -6.14679e-16)
(4.88295e-06 -4.30814e-07 -1.85811e-15)
(4.61281e-06 -6.16187e-07 3.37767e-17)
(4.35656e-06 -8.49776e-07 -3.54425e-16)
(3.82249e-06 -8.76312e-07 3.28142e-16)
(3.50456e-06 -9.66547e-07 3.45001e-16)
(3.18585e-06 -1.02622e-06 -1.00427e-16)
(2.93697e-06 -9.92682e-07 -2.23431e-16)
(2.67151e-06 -1.00252e-06 7.12579e-16)
(2.46261e-06 -9.6999e-07 -2.74344e-16)
(2.29142e-06 -1.09039e-06 -4.00471e-16)
(2.23561e-06 -1.4263e-06 3.30263e-16)
(1.94686e-06 -1.48355e-06 -1.00442e-15)
(1.6824e-06 -1.56047e-06 6.39794e-16)
(1.43759e-06 -1.59686e-06 -3.79384e-16)
(1.20888e-06 -1.52704e-06 -5.21307e-16)
(9.75834e-07 -1.35106e-06 2.87799e-16)
(8.47157e-07 -1.26951e-06 2.0157e-16)
(7.36057e-07 -1.21294e-06 4.2073e-16)
(6.41943e-07 -1.1454e-06 -4.56518e-16)
(5.49172e-07 -1.06102e-06 -7.8118e-16)
(4.70327e-07 -9.55007e-07 2.68938e-16)
(3.98841e-07 -8.39893e-07 4.30352e-17)
(3.39767e-07 -7.44498e-07 -1.72225e-16)
(2.94195e-07 -6.68921e-07 1.24171e-17)
(2.59702e-07 -6.19446e-07 -1.38834e-16)
(2.27773e-07 -5.83452e-07 2.83384e-15)
(1.91389e-07 -5.86849e-07 -1.33358e-16)
(1.49457e-07 -5.57667e-07 2.68173e-16)
(1.10746e-07 -6.09167e-07 -9.54525e-17)
(-6.60927e-06 1.76334e-05 -7.58893e-17)
(-3.17581e-06 1.99327e-05 -2.39068e-17)
(-5.3869e-09 1.8995e-05 -2.76964e-18)
(2.89155e-06 1.8121e-05 -2.61455e-17)
(5.62874e-06 1.72328e-05 -1.17638e-17)
(8.15856e-06 1.63739e-05 -8.89277e-18)
(1.04433e-05 1.55165e-05 2.48382e-17)
(1.24298e-05 1.46393e-05 6.72001e-17)
(1.41481e-05 1.37757e-05 -2.89406e-17)
(1.55599e-05 1.29428e-05 -5.41057e-17)
(1.67088e-05 1.21623e-05 2.53284e-17)
(1.75689e-05 1.14178e-05 -5.02817e-17)
(1.82001e-05 1.07162e-05 -6.09804e-17)
(1.85826e-05 1.00492e-05 -5.36782e-17)
(1.8785e-05 9.42759e-06 -1.081e-16)
(1.87866e-05 8.8565e-06 -1.02428e-17)
(1.86605e-05 8.32848e-06 -8.98227e-17)
(1.8382e-05 7.84627e-06 -5.33862e-17)
(1.80268e-05 7.39832e-06 -1.20516e-16)
(1.75618e-05 6.99937e-06 -1.00084e-17)
(1.70642e-05 6.63742e-06 1.40505e-16)
(1.6491e-05 6.3051e-06 1.41573e-16)
(1.59179e-05 5.98536e-06 -8.45729e-17)
(1.52951e-05 5.70134e-06 5.85497e-17)
(1.46986e-05 5.44333e-06 1.26186e-16)
(1.40685e-05 5.19862e-06 1.14902e-17)
(1.34802e-05 4.95203e-06 -1.07145e-16)
(1.28713e-05 4.7247e-06 -7.39745e-18)
(1.23159e-05 4.52384e-06 2.56448e-17)
(1.17498e-05 4.33742e-06 -1.19007e-17)
(1.12418e-05 4.1459e-06 -9.52145e-17)
(1.07344e-05 3.97352e-06 8.12987e-17)
(1.02886e-05 3.8213e-06 -2.40957e-16)
(9.84392e-06 3.64209e-06 -9.3384e-17)
(9.46213e-06 3.48926e-06 1.70035e-16)
(9.08991e-06 3.3286e-06 3.12994e-17)
(8.76921e-06 3.17582e-06 2.10377e-17)
(8.45958e-06 3.00998e-06 -3.25513e-17)
(8.18045e-06 2.85851e-06 4.52524e-17)
(7.92236e-06 2.72649e-06 2.55538e-16)
(7.61995e-06 2.55301e-06 -9.47034e-17)
(7.56222e-06 2.53182e-06 2.14517e-18)
(7.83757e-06 2.23273e-06 1.81471e-17)
(7.05659e-06 1.69108e-06 -1.50997e-16)
(6.67045e-06 1.44627e-06 7.08089e-16)
(6.37667e-06 1.28695e-06 1.44934e-17)
(6.07447e-06 1.1249e-06 -6.57196e-16)
(5.79735e-06 9.5594e-07 5.98736e-16)
(5.50518e-06 7.81718e-07 3.82694e-16)
(5.24e-06 6.07888e-07 -7.98501e-17)
(4.95238e-06 4.27107e-07 9.91126e-18)
(4.6915e-06 2.48961e-07 -6.37459e-16)
(4.40865e-06 7.69362e-08 -1.0041e-15)
(4.10726e-06 -8.29257e-08 -6.10042e-17)
(4.00735e-06 -2.67711e-07 -2.14373e-16)
(4.17223e-06 -6.74489e-07 3.17205e-16)
(3.85374e-06 -7.9359e-07 -7.38465e-17)
(3.54356e-06 -8.81786e-07 -1.43817e-15)
(3.2387e-06 -9.43609e-07 -4.97839e-17)
(2.99628e-06 -9.49017e-07 4.51483e-16)
(2.72092e-06 -9.90798e-07 2.13327e-16)
(2.49753e-06 -9.75728e-07 5.01243e-16)
(2.19372e-06 -9.41998e-07 4.15957e-16)
(1.98e-06 -1.03553e-06 6.61478e-16)
(1.74511e-06 -1.12947e-06 1.12117e-15)
(1.50613e-06 -1.19799e-06 2.59625e-17)
(1.27639e-06 -1.20414e-06 1.34367e-16)
(1.07293e-06 -1.17894e-06 -1.80603e-16)
(9.31173e-07 -1.12085e-06 -1.64914e-16)
(8.20622e-07 -1.08628e-06 8.42911e-16)
(7.16955e-07 -1.04869e-06 -6.83904e-16)
(6.11803e-07 -9.69255e-07 -4.3027e-17)
(5.14467e-07 -8.70512e-07 -5.80651e-16)
(4.319e-07 -7.74519e-07 7.62727e-16)
(3.65866e-07 -6.96859e-07 -3.1806e-16)
(3.1289e-07 -6.389e-07 4.23993e-17)
(2.67621e-07 -5.95327e-07 8.82584e-17)
(2.28163e-07 -5.6289e-07 -1.91254e-15)
(1.86636e-07 -5.70689e-07 7.61452e-16)
(1.42527e-07 -5.41153e-07 1.7998e-16)
(1.009e-07 -5.82628e-07 6.72516e-18)
(-1.73266e-05 2.06813e-05 -1.36773e-17)
(-1.70497e-05 2.18425e-05 -9.71953e-18)
(-1.56065e-05 2.10534e-05 8.6146e-18)
(-1.38393e-05 2.02521e-05 -1.06454e-18)
(-1.18397e-05 1.9448e-05 -1.19098e-17)
(-9.72601e-06 1.8693e-05 3.78997e-17)
(-7.56278e-06 1.79348e-05 1.29753e-17)
(-5.42665e-06 1.71712e-05 -1.01015e-17)
(-3.3485e-06 1.64046e-05 3.17881e-17)
(-1.38673e-06 1.56605e-05 -4.03382e-18)
(4.44982e-07 1.49309e-05 3.44896e-17)
(2.10886e-06 1.42229e-05 5.5203e-17)
(3.60828e-06 1.35191e-05 -3.68516e-17)
(4.91969e-06 1.28435e-05 4.63711e-17)
(6.06091e-06 1.21761e-05 -2.80629e-17)
(7.01794e-06 1.15459e-05 -9.07738e-17)
(7.81818e-06 1.0927e-05 -6.6038e-18)
(8.45278e-06 1.03476e-05 2.18897e-17)
(8.956e-06 9.77611e-06 1.85419e-17)
(9.31951e-06 9.24705e-06 -2.34397e-17)
(9.58198e-06 8.73563e-06 -1.04072e-17)
(9.73379e-06 8.27167e-06 -3.38865e-18)
(9.81339e-06 7.81131e-06 -2.5493e-17)
(9.80675e-06 7.39289e-06 -4.1742e-17)
(9.75456e-06 6.99085e-06 1.26981e-17)
(9.63881e-06 6.63249e-06 5.61216e-17)
(9.49697e-06 6.2642e-06 -4.9065e-17)
(9.30535e-06 5.92825e-06 4.72292e-17)
(9.10399e-06 5.59938e-06 -2.22808e-17)
(8.86755e-06 5.30922e-06 4.61953e-17)
(8.63303e-06 4.9957e-06 -1.09869e-16)
(8.36857e-06 4.71653e-06 -1.16781e-16)
(8.11684e-06 4.44557e-06 -8.71482e-18)
(7.84497e-06 4.19994e-06 -1.98043e-16)
(7.58463e-06 3.91502e-06 -2.3722e-17)
(7.31636e-06 3.67452e-06 8.08302e-17)
(7.06281e-06 3.42096e-06 3.98053e-17)
(6.80598e-06 3.21017e-06 3.12096e-17)
(6.56554e-06 2.99034e-06 6.15686e-17)
(6.32866e-06 2.80521e-06 1.89224e-16)
(6.11198e-06 2.62287e-06 -1.58071e-17)
(5.77729e-06 2.42427e-06 -1.31151e-16)
(5.7934e-06 2.50007e-06 1.17847e-16)
(6.62766e-06 2.5034e-06 -2.65772e-16)
(6.44365e-06 2.24613e-06 -4.51899e-16)
(6.21367e-06 1.98174e-06 2.55262e-17)
(5.98686e-06 1.71577e-06 1.98754e-16)
(5.75942e-06 1.46358e-06 -2.89518e-16)
(5.53005e-06 1.21053e-06 2.64896e-16)
(5.30177e-06 9.69167e-07 1.16688e-16)
(5.06658e-06 7.34109e-07 2.15969e-16)
(4.83393e-06 5.11408e-07 4.97921e-16)
(4.5902e-06 3.02278e-07 5.40855e-16)
(4.33843e-06 1.19269e-07 -2.29365e-17)
(3.99773e-06 1.24891e-09 -4.91988e-17)
(3.59248e-06 -2.78549e-08 1.66451e-16)
(3.36327e-06 -1.73741e-07 1.84739e-16)
(3.16282e-06 -2.94796e-07 1.12638e-15)
(2.94344e-06 -3.86567e-07 1.56581e-17)
(2.75853e-06 -4.62587e-07 -1.05767e-15)
(2.57261e-06 -5.15526e-07 1.09739e-16)
(2.39455e-06 -5.97346e-07 -5.13536e-16)
(2.22636e-06 -6.93431e-07 -2.63678e-16)
(2.02123e-06 -7.79664e-07 9.39346e-19)
(1.80695e-06 -8.6666e-07 -9.20629e-16)
(1.5884e-06 -9.49914e-07 1.0394e-16)
(1.35724e-06 -9.83079e-07 5.71388e-17)
(1.16155e-06 -9.55346e-07 -1.02324e-17)
(1.0118e-06 -9.51074e-07 1.32812e-16)
(9.06255e-07 -9.43008e-07 -4.40646e-16)
(7.83706e-07 -9.08468e-07 2.13086e-16)
(6.68984e-07 -8.51486e-07 1.085e-16)
(5.57536e-07 -7.77838e-07 4.22952e-17)
(4.62131e-07 -7.04744e-07 -1.82659e-15)
(3.88913e-07 -6.44599e-07 -5.39293e-16)
(3.26807e-07 -5.95599e-07 -1.50449e-17)
(2.72773e-07 -5.6654e-07 3.64595e-17)
(2.26258e-07 -5.43756e-07 -1.43926e-15)
(1.82098e-07 -5.50021e-07 4.97133e-16)
(1.35709e-07 -5.19802e-07 -4.05482e-16)
(9.29005e-08 -5.56586e-07 1.07391e-17)
(-1.31478e-05 1.94239e-05 -1.24918e-17)
(-1.49723e-05 1.95633e-05 -5.10686e-18)
(-1.56027e-05 1.8348e-05 1.23589e-17)
(-1.57114e-05 1.73213e-05 8.18476e-18)
(-1.53955e-05 1.63946e-05 -3.7943e-18)
(-1.47254e-05 1.55359e-05 -3.65688e-18)
(-1.37832e-05 1.47261e-05 1.3925e-17)
(-1.26262e-05 1.39783e-05 -1.00189e-17)
(-1.13278e-05 1.32898e-05 -3.13362e-18)
(-9.93443e-06 1.26456e-05 1.54859e-17)
(-8.50691e-06 1.20348e-05 -1.89751e-18)
(-7.07207e-06 1.14661e-05 2.28283e-17)
(-5.67936e-06 1.0931e-05 2.06496e-17)
(-4.33963e-06 1.04248e-05 -1.27979e-17)
(-3.08856e-06 9.93951e-06 3.66104e-17)
(-1.92291e-06 9.48435e-06 -1.04073e-17)
(-8.68523e-07 9.05077e-06 -2.52494e-17)
(8.86676e-08 8.64268e-06 3.1204e-17)
(9.30326e-07 8.25117e-06 1.58712e-17)
(1.67843e-06 7.88526e-06 2.3496e-18)
(2.31883e-06 7.53513e-06 -9.73896e-18)
(2.87886e-06 7.21348e-06 -6.92466e-17)
(3.34624e-06 6.91036e-06 3.68128e-18)
(3.74969e-06 6.63365e-06 -3.64918e-17)
(4.07749e-06 6.36711e-06 -1.08958e-17)
(4.35962e-06 6.13167e-06 1.85239e-17)
(4.58315e-06 5.91386e-06 3.52093e-17)
(4.77445e-06 5.71664e-06 3.40934e-18)
(4.9205e-06 5.51516e-06 8.41979e-18)
(5.04681e-06 5.33744e-06 -1.09539e-17)
(5.13919e-06 5.17041e-06 2.80933e-17)
(5.21616e-06 5.00925e-06 -5.9051e-17)
(5.26569e-06 4.82531e-06 -1.40993e-17)
(5.30658e-06 4.67027e-06 3.87772e-17)
(5.32487e-06 4.48411e-06 -1.15763e-16)
(5.32586e-06 4.29625e-06 -6.01313e-17)
(5.31077e-06 4.08973e-06 2.07933e-17)
(5.27963e-06 3.88573e-06 -1.70292e-17)
(5.24064e-06 3.64923e-06 -3.33271e-17)
(5.18989e-06 3.42579e-06 -5.14318e-17)
(5.13398e-06 3.18865e-06 3.91576e-17)
(5.02318e-06 2.94718e-06 -4.01232e-17)
(4.7708e-06 2.72581e-06 -1.14841e-16)
(4.27554e-06 2.51492e-06 4.64847e-17)
(4.20675e-06 2.29797e-06 -2.38342e-16)
(4.14285e-06 2.08815e-06 3.17629e-19)
(4.0843e-06 1.87453e-06 1.47438e-17)
(4.01436e-06 1.6721e-06 1.70964e-16)
(3.94901e-06 1.47051e-06 -3.33611e-16)
(3.86696e-06 1.2772e-06 1.43882e-19)
(3.78751e-06 1.08658e-06 3.58326e-16)
(3.68848e-06 8.99842e-07 -1.18637e-16)
(3.59349e-06 7.19943e-07 4.96314e-16)
(3.46219e-06 5.47652e-07 2.98447e-17)
(3.35159e-06 3.88465e-07 -6.52453e-17)
(3.24251e-06 2.11875e-07 -6.43331e-17)
(3.09996e-06 7.83309e-08 -4.20674e-18)
(2.93847e-06 -4.69598e-08 -6.34336e-16)
(2.78668e-06 -1.51803e-07 2.19446e-16)
(2.62684e-06 -2.42288e-07 6.07057e-16)
(2.47508e-06 -3.165e-07 -1.34387e-16)
(2.31757e-06 -3.84541e-07 1.0079e-15)
(2.15564e-06 -4.5537e-07 1.48844e-17)
(1.98891e-06 -5.25351e-07 -1.84765e-16)
(1.81255e-06 -6.21428e-07 -2.21795e-16)
(1.61669e-06 -6.94102e-07 -2.70729e-16)
(1.41427e-06 -7.37244e-07 5.21065e-16)
(1.21888e-06 -7.66674e-07 1.23186e-16)
(1.08875e-06 -7.69918e-07 2.62856e-16)
(9.57268e-07 -7.80683e-07 -4.81885e-16)
(8.37188e-07 -7.63315e-07 1.51513e-16)
(7.05498e-07 -7.25023e-07 -1.12311e-16)
(5.85124e-07 -6.68603e-07 -1.171e-15)
(4.88052e-07 -6.22225e-07 -3.83444e-16)
(4.06174e-07 -5.85112e-07 1.39203e-16)
(3.3649e-07 -5.53362e-07 9.83188e-18)
(2.73141e-07 -5.31885e-07 1.81975e-16)
(2.22113e-07 -5.15298e-07 2.68096e-16)
(1.77989e-07 -5.27305e-07 -8.99735e-16)
(1.29945e-07 -4.99265e-07 -2.02938e-16)
(8.65725e-08 -5.30289e-07 -5.13723e-16)
(-2.12064e-06 1.31646e-05 6.81342e-18)
(-5.08357e-06 1.40112e-05 -2.02386e-18)
(-7.39163e-06 1.3461e-05 -9.00854e-18)
(-9.15442e-06 1.2878e-05 -2.63982e-18)
(-1.04488e-05 1.2317e-05 5.94452e-18)
(-1.12996e-05 1.17523e-05 -2.58431e-19)
(-1.17516e-05 1.11904e-05 -4.50325e-18)
(-1.18556e-05 1.06575e-05 1.85888e-18)
(-1.16631e-05 1.01639e-05 -2.0158e-17)
(-1.12282e-05 9.69349e-06 -1.31692e-17)
(-1.0603e-05 9.24031e-06 -1.0165e-17)
(-9.83359e-06 8.80639e-06 -1.96625e-18)
(-8.96492e-06 8.39988e-06 2.68124e-17)
(-8.03434e-06 8.00797e-06 -7.72909e-18)
(-7.07677e-06 7.62918e-06 -3.10193e-17)
(-6.1184e-06 7.26533e-06 1.478e-17)
(-5.1831e-06 6.92061e-06 -1.00221e-17)
(-4.28643e-06 6.58923e-06 -4.74048e-17)
(-3.44391e-06 6.26923e-06 -6.82354e-18)
(-2.66133e-06 5.96667e-06 -5.62885e-19)
(-1.94703e-06 5.6799e-06 4.05251e-17)
(-1.2998e-06 5.41022e-06 5.26123e-17)
(-7.22755e-07 5.1518e-06 5.02296e-18)
(-2.09706e-07 4.9152e-06 1.90138e-17)
(2.39125e-07 4.69088e-06 -3.24927e-19)
(6.32521e-07 4.48664e-06 3.36087e-17)
(9.72171e-07 4.29367e-06 -1.4956e-17)
(1.26858e-06 4.12491e-06 -3.48629e-18)
(1.52223e-06 3.96116e-06 -2.17749e-18)
(1.74283e-06 3.81746e-06 7.36819e-18)
(1.93166e-06 3.67888e-06 -2.85182e-18)
(2.09897e-06 3.56891e-06 2.88837e-17)
(2.24198e-06 3.45078e-06 -3.8865e-19)
(2.36795e-06 3.34324e-06 8.23059e-19)
(2.47922e-06 3.25807e-06 2.12033e-17)
(2.57808e-06 3.18366e-06 7.08657e-17)
(2.6653e-06 3.08294e-06 -4.42136e-17)
(2.74368e-06 2.98747e-06 -2.93842e-18)
(2.81687e-06 2.87691e-06 4.89767e-17)
(2.88461e-06 2.76117e-06 4.60833e-18)
(2.95224e-06 2.62014e-06 -8.50584e-17)
(2.98355e-06 2.46523e-06 3.69077e-17)
(3.03216e-06 2.31502e-06 7.7729e-17)
(3.14717e-06 2.16805e-06 2.01302e-16)
(3.18006e-06 1.99979e-06 2.11841e-16)
(3.20221e-06 1.83424e-06 4.92789e-17)
(3.21869e-06 1.66262e-06 -7.55832e-18)
(3.22534e-06 1.50318e-06 -1.04034e-16)
(3.22539e-06 1.34291e-06 1.19912e-16)
(3.21405e-06 1.19198e-06 -5.447e-17)
(3.19394e-06 1.04196e-06 -2.77361e-16)
(3.16166e-06 8.98343e-07 -1.76935e-16)
(3.11877e-06 7.57191e-07 -7.99192e-17)
(3.05013e-06 6.22431e-07 -4.79423e-17)
(2.96404e-06 4.97767e-07 4.23706e-17)
(2.87298e-06 3.76791e-07 -4.06184e-16)
(2.77798e-06 2.58455e-07 -1.92448e-16)
(2.6745e-06 1.475e-07 -2.25972e-16)
(2.55977e-06 4.85123e-08 -5.52792e-16)
(2.44141e-06 -4.2958e-08 1.25389e-16)
(2.31481e-06 -1.21192e-07 -1.40617e-16)
(2.18516e-06 -1.94096e-07 -5.43824e-16)
(2.05448e-06 -2.60346e-07 5.71103e-16)
(1.91431e-06 -3.36493e-07 7.14526e-16)
(1.76815e-06 -4.01436e-07 -1.12853e-16)
(1.59129e-06 -4.76973e-07 -3.32984e-16)
(1.41981e-06 -5.27012e-07 -7.9774e-18)
(1.23754e-06 -5.64765e-07 -6.46353e-17)
(1.1008e-06 -5.97917e-07 1.59066e-16)
(9.80755e-07 -6.13287e-07 1.27655e-16)
(8.48903e-07 -6.10082e-07 1.04693e-16)
(7.21157e-07 -5.80396e-07 3.01819e-16)
(6.07913e-07 -5.60451e-07 5.75301e-16)
(5.11442e-07 -5.38038e-07 2.44253e-16)
(4.22326e-07 -5.1592e-07 5.51216e-17)
(3.42027e-07 -4.94984e-07 -1.39369e-16)
(2.75575e-07 -4.90426e-07 -9.72112e-16)
(2.20262e-07 -4.88967e-07 4.26281e-16)
(1.74454e-07 -5.00459e-07 4.60118e-16)
(1.24677e-07 -4.73377e-07 6.12582e-16)
(8.01098e-08 -5.04171e-07 1.88946e-15)
(1.04805e-05 5.06768e-06 4.9237e-19)
(7.69153e-06 5.60139e-06 1.82257e-18)
(4.64055e-06 5.25444e-06 6.03163e-18)
(1.92324e-06 4.93776e-06 1.81878e-18)
(-4.71852e-07 4.71414e-06 -3.24239e-18)
(-2.50905e-06 4.52955e-06 -1.44194e-18)
(-4.18335e-06 4.37834e-06 -2.4625e-19)
(-5.50251e-06 4.2542e-06 -6.65871e-20)
(-6.48562e-06 4.14641e-06 3.03972e-20)
(-7.15867e-06 4.05792e-06 -8.03745e-18)
(-7.55604e-06 3.97835e-06 9.6842e-18)
(-7.71168e-06 3.8997e-06 -7.0769e-18)
(-7.66401e-06 3.81706e-06 -1.72595e-17)
(-7.44786e-06 3.73949e-06 -1.03235e-17)
(-7.09977e-06 3.6625e-06 -3.77211e-18)
(-6.65063e-06 3.58091e-06 3.27422e-18)
(-6.13109e-06 3.49259e-06 1.4137e-18)
(-5.56442e-06 3.40339e-06 -1.21919e-17)
(-4.97517e-06 3.31091e-06 -1.80754e-17)
(-4.37857e-06 3.2141e-06 -4.89521e-18)
(-3.7923e-06 3.11377e-06 3.11624e-18)
(-3.22391e-06 3.01271e-06 1.95867e-17)
(-2.68545e-06 2.909e-06 -2.73347e-17)
(-2.17843e-06 2.80579e-06 6.02817e-18)
(-1.71013e-06 2.70523e-06 -2.2357e-17)
(-1.27727e-06 2.61171e-06 1.23661e-17)
(-8.84683e-07 2.5213e-06 3.37535e-17)
(-5.25708e-07 2.44004e-06 -2.59936e-17)
(-2.03408e-07 2.36773e-06 -4.72188e-17)
(9.00067e-08 2.30826e-06 -1.33378e-17)
(3.52127e-07 2.25478e-06 9.92067e-17)
(5.9127e-07 2.21215e-06 6.59203e-17)
(8.06235e-07 2.1786e-06 5.49407e-17)
(1.00251e-06 2.15651e-06 -4.93267e-19)
(1.17927e-06 2.11678e-06 -5.80116e-17)
(1.34596e-06 2.08712e-06 -6.42554e-17)
(1.49769e-06 2.04377e-06 4.87759e-17)
(1.63819e-06 1.99598e-06 -2.02058e-17)
(1.76819e-06 1.93275e-06 -6.40211e-17)
(1.89492e-06 1.87934e-06 4.9786e-17)
(2.01305e-06 1.80397e-06 -1.32365e-17)
(2.10259e-06 1.71514e-06 2.98581e-19)
(2.17375e-06 1.63525e-06 -3.83452e-17)
(2.24234e-06 1.55597e-06 3.23615e-18)
(2.32126e-06 1.45627e-06 -1.72667e-16)
(2.39066e-06 1.3607e-06 -1.14767e-16)
(2.45143e-06 1.25804e-06 -2.42464e-17)
(2.50018e-06 1.16401e-06 -2.30157e-16)
(2.53886e-06 1.06496e-06 -1.81432e-16)
(2.56394e-06 9.73661e-07 -5.9415e-17)
(2.57767e-06 8.78737e-07 -1.63984e-16)
(2.57681e-06 7.8835e-07 1.18346e-16)
(2.56469e-06 6.95397e-07 -3.20084e-16)
(2.52906e-06 6.04406e-07 -4.5249e-17)
(2.48192e-06 5.14183e-07 2.1404e-16)
(2.43068e-06 4.22308e-07 4.19959e-17)
(2.36707e-06 3.33093e-07 -1.03336e-16)
(2.29184e-06 2.44411e-07 9.20897e-16)
(2.20721e-06 1.61552e-07 5.36294e-17)
(2.11586e-06 8.10702e-08 -7.88565e-16)
(2.01545e-06 8.19196e-09 1.93107e-16)
(1.91062e-06 -5.91524e-08 -6.62628e-16)
(1.80301e-06 -1.22208e-07 -3.64858e-17)
(1.69306e-06 -1.78978e-07 8.00444e-17)
(1.56566e-06 -2.42781e-07 -1.72251e-15)
(1.43714e-06 -2.94461e-07 4.28747e-17)
(1.28018e-06 -3.44638e-07 7.87271e-17)
(1.14057e-06 -3.90677e-07 -2.46902e-16)
(1.0197e-06 -4.33718e-07 3.22968e-16)
(9.06915e-07 -4.53595e-07 -2.2835e-17)
(7.95239e-07 -4.54002e-07 1.06675e-16)
(6.86311e-07 -4.58522e-07 -7.12148e-16)
(5.92088e-07 -4.48715e-07 -6.83218e-16)
(4.95524e-07 -4.42256e-07 6.13202e-17)
(4.13497e-07 -4.33856e-07 -5.03105e-17)
(3.35202e-07 -4.33296e-07 1.24006e-16)
(2.73596e-07 -4.39168e-07 -6.68405e-16)
(2.14625e-07 -4.44643e-07 8.53179e-17)
(1.65473e-07 -4.65945e-07 -6.87665e-16)
(1.14138e-07 -4.42653e-07 -8.15958e-17)
(7.08903e-08 -4.71982e-07 1.4542e-15)
(1.91716e-05 -3.04725e-06 2.71323e-18)
(1.80991e-05 -2.73777e-06 4.04509e-18)
(1.58569e-05 -2.66717e-06 -1.0134e-18)
(1.35342e-05 -2.5884e-06 1.98564e-18)
(1.1199e-05 -2.41838e-06 1.75266e-18)
(8.93682e-06 -2.22431e-06 -1.57959e-17)
(6.81327e-06 -1.99839e-06 -9.37347e-18)
(4.87453e-06 -1.76271e-06 -3.43139e-18)
(3.15164e-06 -1.52096e-06 -1.05412e-18)
(1.66011e-06 -1.28206e-06 4.02974e-18)
(4.07761e-07 -1.04288e-06 -9.10994e-18)
(-6.13055e-07 -8.1751e-07 1.24144e-17)
(-1.41224e-06 -6.04981e-07 2.13749e-18)
(-2.00854e-06 -4.13245e-07 7.63861e-18)
(-2.4211e-06 -2.34881e-07 1.90276e-17)
(-2.6757e-06 -7.81666e-08 1.71568e-17)
(-2.79347e-06 6.04244e-08 1.49338e-17)
(-2.79896e-06 1.77887e-07 5.83704e-18)
(-2.71479e-06 2.811e-07 2.60891e-17)
(-2.56088e-06 3.66824e-07 -1.29569e-17)
(-2.35622e-06 4.38057e-07 -3.83754e-17)
(-2.11662e-06 4.95401e-07 -8.38638e-18)
(-1.85579e-06 5.41859e-07 -2.42054e-18)
(-1.58552e-06 5.79311e-07 -1.11156e-17)
(-1.31467e-06 6.07175e-07 -8.53566e-18)
(-1.04941e-06 6.29968e-07 -2.84739e-17)
(-7.95784e-07 6.47446e-07 -5.44058e-18)
(-5.55918e-07 6.64845e-07 -1.47117e-18)
(-3.33279e-07 6.80012e-07 3.04876e-17)
(-1.26383e-07 6.98156e-07 -9.33999e-18)
(6.2696e-08 7.16369e-07 1.04557e-17)
(2.37267e-07 7.41929e-07 3.1829e-17)
(3.95562e-07 7.68741e-07 2.61892e-17)
(5.4306e-07 8.01956e-07 6.96782e-17)
(6.77729e-07 8.38884e-07 5.22293e-18)
(8.03426e-07 8.81204e-07 -4.58968e-17)
(9.18613e-07 9.23918e-07 -6.54523e-17)
(1.02504e-06 9.63349e-07 2.13e-17)
(1.12185e-06 9.82895e-07 5.94646e-17)
(1.21437e-06 9.99868e-07 -3.5748e-17)
(1.30111e-06 1.00721e-06 6.22368e-17)
(1.37289e-06 1.00317e-06 -1.07358e-17)
(1.4357e-06 9.82695e-07 2.29812e-17)
(1.50118e-06 9.63546e-07 -1.29021e-16)
(1.55694e-06 9.29866e-07 -3.72189e-17)
(1.60395e-06 8.9992e-07 3.37694e-17)
(1.64346e-06 8.64199e-07 -4.3702e-17)
(1.67454e-06 8.3326e-07 -4.89912e-17)
(1.69891e-06 7.96116e-07 7.65291e-17)
(1.71461e-06 7.60405e-07 3.90735e-18)
(1.72486e-06 7.20583e-07 1.43048e-16)
(1.7265e-06 6.76619e-07 2.39303e-16)
(1.72325e-06 6.25732e-07 2.83632e-17)
(1.70727e-06 5.70271e-07 7.12401e-17)
(1.6864e-06 5.08892e-07 1.27021e-17)
(1.66273e-06 4.4234e-07 1.92177e-16)
(1.63273e-06 3.72744e-07 4.3355e-17)
(1.59525e-06 3.01698e-07 -3.20726e-16)
(1.55037e-06 2.30509e-07 3.08778e-16)
(1.49956e-06 1.60933e-07 8.12511e-17)
(1.43974e-06 9.49459e-08 -5.9611e-17)
(1.37681e-06 3.35861e-08 4.76696e-16)
(1.30787e-06 -2.29775e-08 -1.44164e-16)
(1.23644e-06 -7.63926e-08 -1.21551e-16)
(1.15737e-06 -1.22061e-07 8.46013e-16)
(1.06794e-06 -1.65838e-07 -6.35407e-17)
(9.75314e-07 -2.07275e-07 -3.78665e-16)
(8.72839e-07 -2.55864e-07 -3.62419e-18)
(7.97933e-07 -2.92951e-07 -1.35285e-16)
(7.20338e-07 -3.20239e-07 -3.55639e-17)
(6.45178e-07 -3.39916e-07 -8.6412e-17)
(5.70325e-07 -3.47024e-07 4.53649e-16)
(4.95932e-07 -3.56371e-07 4.74124e-16)
(4.28239e-07 -3.60577e-07 2.05257e-16)
(3.61411e-07 -3.66299e-07 1.70744e-16)
(3.02615e-07 -3.7253e-07 -1.19521e-16)
(2.48283e-07 -3.92085e-07 7.25559e-16)
(1.97216e-07 -4.05593e-07 1.00231e-17)
(1.50125e-07 -4.31593e-07 8.06743e-16)
(9.91006e-08 -4.08743e-07 -4.10169e-16)
(6.11818e-08 -4.41353e-07 -2.34434e-15)
(1.65839e-05 -7.62971e-06 9.35514e-18)
(1.83529e-05 -7.57973e-06 -3.35633e-18)
(1.86665e-05 -7.51739e-06 -4.58597e-18)
(1.84378e-05 -7.39705e-06 7.12256e-19)
(1.77793e-05 -7.17186e-06 5.52537e-18)
(1.67851e-05 -6.90729e-06 7.54804e-18)
(1.55498e-05 -6.6008e-06 -4.12605e-18)
(1.41575e-05 -6.26734e-06 4.11808e-19)
(1.26814e-05 -5.91158e-06 9.21813e-18)
(1.1187e-05 -5.54815e-06 5.18915e-18)
(9.72386e-06 -5.17741e-06 -4.46883e-18)
(8.33142e-06 -4.8066e-06 -9.47273e-18)
(7.04079e-06 -4.43995e-06 5.92746e-19)
(5.87018e-06 -4.07908e-06 5.0987e-20)
(4.83067e-06 -3.7269e-06 -8.32084e-19)
(3.92739e-06 -3.38639e-06 1.6912e-18)
(3.15875e-06 -3.06293e-06 1.15566e-17)
(2.51816e-06 -2.75235e-06 5.93167e-18)
(1.99698e-06 -2.46046e-06 -1.27159e-17)
(1.58445e-06 -2.18452e-06 2.07713e-17)
(1.26721e-06 -1.93035e-06 1.41289e-17)
(1.03332e-06 -1.69333e-06 -5.88088e-18)
(8.68658e-07 -1.47554e-06 1.40577e-18)
(7.62413e-07 -1.27403e-06 1.58441e-17)
(7.01713e-07 -1.09368e-06 1.45155e-17)
(6.78122e-07 -9.27873e-07 1.71254e-17)
(6.80319e-07 -7.79291e-07 -1.37104e-17)
(7.03153e-07 -6.43923e-07 -3.20862e-19)
(7.37662e-07 -5.22651e-07 1.86099e-17)
(7.81674e-07 -4.1227e-07 4.01043e-18)
(8.28297e-07 -3.14462e-07 -2.61519e-17)
(8.77698e-07 -2.22932e-07 -1.37062e-17)
(9.24716e-07 -1.38354e-07 -6.89179e-18)
(9.71394e-07 -5.75628e-08 2.14534e-17)
(1.01378e-06 1.68096e-08 4.21318e-17)
(1.05535e-06 9.16714e-08 4.28885e-17)
(1.09118e-06 1.62563e-07 3.06004e-17)
(1.1254e-06 2.34149e-07 -2.08062e-17)
(1.15559e-06 2.99582e-07 -6.53465e-17)
(1.18942e-06 3.65668e-07 2.8786e-17)
(1.22392e-06 4.26262e-07 7.80788e-18)
(1.25451e-06 4.83975e-07 2.60392e-17)
(1.28509e-06 5.3675e-07 -5.20095e-17)
(1.31464e-06 5.85443e-07 9.48852e-17)
(1.3404e-06 6.2478e-07 -3.50677e-17)
(1.36212e-06 6.57907e-07 1.09239e-16)
(1.38171e-06 6.75369e-07 3.5658e-17)
(1.39724e-06 6.87537e-07 -7.13711e-17)
(1.41187e-06 6.88123e-07 5.11602e-17)
(1.42207e-06 6.81639e-07 1.23665e-16)
(1.43185e-06 6.63835e-07 3.39017e-17)
(1.43769e-06 6.40935e-07 -4.31893e-17)
(1.44279e-06 6.05329e-07 2.29649e-16)
(1.43975e-06 5.67833e-07 4.77538e-17)
(1.43769e-06 5.20631e-07 -1.14432e-16)
(1.43162e-06 4.7083e-07 -2.93825e-16)
(1.42016e-06 4.13926e-07 -2.58169e-17)
(1.40138e-06 3.56936e-07 -1.99263e-17)
(1.37643e-06 2.9498e-07 -2.52883e-16)
(1.34466e-06 2.33909e-07 1.96141e-16)
(1.30421e-06 1.72224e-07 1.18707e-16)
(1.25958e-06 1.12451e-07 2.0846e-16)
(1.20789e-06 5.52416e-08 1.96499e-16)
(1.15226e-06 1.15556e-09 -4.3618e-16)
(1.08753e-06 -4.67262e-08 5.38539e-16)
(1.02001e-06 -8.93733e-08 3.46216e-16)
(9.44181e-07 -1.35611e-07 2.22446e-17)
(8.6529e-07 -1.83124e-07 1.15354e-16)
(7.87047e-07 -2.2991e-07 -2.7698e-16)
(7.26552e-07 -2.68809e-07 -5.95467e-17)
(6.59227e-07 -2.91582e-07 -1.9748e-17)
(5.93569e-07 -3.14363e-07 4.83136e-16)
(5.27706e-07 -3.28138e-07 5.50308e-16)
(4.62949e-07 -3.42509e-07 4.84933e-16)
(3.99717e-07 -3.53507e-07 2.12761e-16)
(3.41092e-07 -3.74263e-07 1.05039e-16)
(2.85074e-07 -3.9861e-07 -7.47748e-16)
(2.27164e-07 -4.18154e-07 1.65537e-16)
(1.71953e-07 -4.46233e-07 7.20185e-16)
(1.16947e-07 -4.31444e-07 -1.44847e-16)
(7.09172e-08 -4.56111e-07 -5.445e-16)
(1.761e-06 -5.40352e-06 -2.26203e-18)
(5.14975e-06 -5.34528e-06 3.94658e-18)
(7.8807e-06 -5.39572e-06 1.72952e-18)
(9.98919e-06 -5.35984e-06 4.83009e-19)
(1.15647e-05 -5.27678e-06 5.45047e-19)
(1.26317e-05 -5.16069e-06 1.37325e-18)
(1.32444e-05 -5.01955e-06 5.04115e-18)
(1.34667e-05 -4.85899e-06 -2.62814e-20)
(1.33597e-05 -4.68345e-06 -7.03592e-18)
(1.29849e-05 -4.4905e-06 -2.25882e-18)
(1.24097e-05 -4.28603e-06 2.44806e-18)
(1.16857e-05 -4.06872e-06 -3.44037e-18)
(1.08656e-05 -3.8445e-06 -9.51575e-19)
(9.99178e-06 -3.61304e-06 -7.06164e-18)
(9.10217e-06 -3.37782e-06 2.71532e-18)
(8.22588e-06 -3.1412e-06 -1.72917e-18)
(7.38371e-06 -2.90502e-06 -4.2422e-18)
(6.59469e-06 -2.6719e-06 1.75858e-18)
(5.868e-06 -2.44502e-06 3.98917e-18)
(5.21038e-06 -2.22269e-06 -1.17702e-17)
(4.62454e-06 -2.0071e-06 -9.83189e-18)
(4.11017e-06 -1.80223e-06 -2.55379e-18)
(3.66317e-06 -1.60821e-06 -1.63217e-18)
(3.28039e-06 -1.42314e-06 -1.16401e-17)
(2.95531e-06 -1.25009e-06 -1.07096e-17)
(2.68183e-06 -1.08869e-06 -9.58637e-18)
(2.4532e-06 -9.39893e-07 3.01326e-17)
(2.26333e-06 -8.03503e-07 -5.75227e-19)
(2.10554e-06 -6.78834e-07 -2.83138e-17)
(1.9749e-06 -5.65654e-07 3.98369e-18)
(1.8656e-06 -4.65074e-07 1.08294e-17)
(1.77402e-06 -3.73986e-07 2.50449e-18)
(1.69533e-06 -2.92224e-07 -7.97736e-18)
(1.62752e-06 -2.17707e-07 -3.74506e-17)
(1.5668e-06 -1.49348e-07 -7.49451e-18)
(1.5114e-06 -8.57055e-08 1.94051e-17)
(1.45827e-06 -2.85068e-08 2.01458e-17)
(1.40718e-06 2.52562e-08 5.49641e-18)
(1.35883e-06 7.46155e-08 -1.71866e-17)
(1.31801e-06 1.20751e-07 -4.9383e-17)
(1.28287e-06 1.61319e-07 5.45579e-18)
(1.25008e-06 1.99972e-07 -3.66596e-17)
(1.21842e-06 2.40758e-07 2.83333e-17)
(1.19126e-06 2.80343e-07 -2.08904e-17)
(1.16589e-06 3.14428e-07 6.71942e-17)
(1.14507e-06 3.48467e-07 -9.3438e-17)
(1.1259e-06 3.75499e-07 3.5335e-17)
(1.10997e-06 3.99558e-07 4.73165e-17)
(1.09543e-06 4.16808e-07 -9.7363e-17)
(1.08368e-06 4.31927e-07 -8.85114e-17)
(1.07229e-06 4.35629e-07 -5.54349e-17)
(1.06239e-06 4.37514e-07 -6.3114e-17)
(1.05286e-06 4.29888e-07 -2.77508e-18)
(1.04194e-06 4.19895e-07 -1.44489e-16)
(1.03219e-06 4.02729e-07 8.82565e-17)
(1.02268e-06 3.81876e-07 1.53867e-16)
(1.01214e-06 3.54604e-07 -1.39045e-16)
(9.98169e-07 3.24779e-07 9.87645e-17)
(9.8296e-07 2.905e-07 2.69873e-16)
(9.62962e-07 2.54286e-07 4.7493e-17)
(9.40765e-07 2.1622e-07 1.05055e-16)
(9.13411e-07 1.77835e-07 -1.83189e-16)
(8.85616e-07 1.39945e-07 -1.65729e-16)
(8.52787e-07 1.01931e-07 3.55163e-17)
(8.18884e-07 6.86267e-08 -5.61003e-16)