/*--------------------------------*- C++ -*----------------------------------*\
| =========                 |                                                 |
| \\      /  F ield         | OpenFOAM: The Open Source CFD Toolbox           |
|  \\    /   O peration     | Version:  2306                                  |
|   \\  /    A nd           | Website:  www.openfoam.com                      |
|    \\/     M anipulation  |                                                 |
\*---------------------------------------------------------------------------*/
FoamFile
{
    version     2.0;
    format      ascii;
    arch        "LSB;label=32;scalar=64";
    class       volScalarField;
    location    "625";
    object      turbulenceProperties:I;
}
// * * * * * * * * * * * * * * * * * * * * * * * * * * * * * * * * * * * * * //

dimensions      [0 0 0 0 0 0 0];

internalField   nonuniform List<scalar> 
1340
(
2.6594e-05
3.72821e-05
1.25945e-05
2.55141e-05
2.65513e-05
3.729e-05
1.32107e-05
1.67605e-05
1.24668e-05
2.55547e-05
2.65532e-05
3.72793e-05
1.79629e-05
1.68513e-05
1.63215e-05
1.35267e-05
1.695e-05
1.23899e-05
2.55986e-05
2.65858e-05
3.72589e-05
2.14905e-05
2.06842e-05
2.00014e-05
1.93444e-05
1.86357e-05
1.79429e-05
1.68874e-05
1.64113e-05
1.38573e-05
1.71299e-05
1.23577e-05
2.56439e-05
2.66383e-05
3.72341e-05
2.54824e-05
2.46652e-05
2.38228e-05
2.29735e-05
2.21104e-05
2.12679e-05
2.05103e-05
1.98706e-05
1.9252e-05
1.85826e-05
1.79269e-05
1.69327e-05
1.65115e-05
1.41966e-05
1.72963e-05
1.23664e-05
2.56859e-05
2.6702e-05
3.72063e-05
2.97546e-05
2.91041e-05
2.84416e-05
2.77708e-05
2.70928e-05
2.64047e-05
2.56987e-05
2.49673e-05
2.42079e-05
2.34247e-05
2.2635e-05
2.18294e-05
2.10412e-05
2.03345e-05
1.97389e-05
1.91594e-05
1.8531e-05
1.79133e-05
1.69858e-05
1.66201e-05
1.45406e-05
1.74466e-05
1.24124e-05
2.57236e-05
2.67701e-05
3.71717e-05
3.45197e-05
3.41239e-05
3.37119e-05
3.32842e-05
3.28419e-05
3.23854e-05
3.19153e-05
3.1432e-05
3.09355e-05
3.04239e-05
2.98959e-05
2.93496e-05
2.87851e-05
2.82035e-05
2.76082e-05
2.70025e-05
2.6387e-05
2.57591e-05
2.51119e-05
2.44395e-05
2.37399e-05
2.3018e-05
2.22897e-05
2.15432e-05
2.08116e-05
2.01575e-05
1.96064e-05
1.90667e-05
1.84807e-05
1.79019e-05
1.70462e-05
1.67359e-05
1.48861e-05
1.75783e-05
1.24926e-05
2.57553e-05
2.68326e-05
3.7135e-05
3.40411e-05
3.47108e-05
3.26313e-05
3.30423e-05
3.30626e-05
3.38056e-05
3.41966e-05
3.45781e-05
3.49078e-05
3.52168e-05
3.54987e-05
3.57529e-05
3.59735e-05
3.61623e-05
3.63264e-05
3.64571e-05
3.65593e-05
3.66341e-05
3.66828e-05
3.67073e-05
3.67079e-05
3.66864e-05
3.66455e-05
3.65862e-05
3.65098e-05
3.64174e-05
3.63109e-05
3.61917e-05
3.60591e-05
3.59157e-05
3.57606e-05
3.55947e-05
3.54184e-05
3.52313e-05
3.50339e-05
3.48258e-05
3.46061e-05
3.43757e-05
3.41325e-05
3.38765e-05
3.36081e-05
3.33252e-05
3.30279e-05
3.2715e-05
3.23873e-05
3.20437e-05
3.16847e-05
3.13113e-05
3.09234e-05
3.05219e-05
3.01077e-05
2.96799e-05
2.92372e-05
2.87783e-05
2.83011e-05
2.78053e-05
2.72917e-05
2.6763e-05
2.62218e-05
2.56688e-05
2.51015e-05
2.45142e-05
2.3902e-05
2.32639e-05
2.26047e-05
2.19392e-05
2.12532e-05
2.05801e-05
1.99798e-05
1.94732e-05
1.89738e-05
1.84311e-05
1.78923e-05
1.71133e-05
1.68581e-05
1.52308e-05
1.76901e-05
1.26029e-05
2.57764e-05
2.68857e-05
3.70986e-05
3.44356e-05
3.07735e-05
2.94493e-05
3.07625e-05
3.1049e-05
3.1548e-05
3.18474e-05
3.21748e-05
3.24648e-05
3.27376e-05
3.29847e-05
3.32056e-05
3.33998e-05
3.35677e-05
3.37124e-05
3.38289e-05
3.39215e-05
3.39924e-05
3.40401e-05
3.4067e-05
3.40749e-05
3.40644e-05
3.40373e-05
3.39955e-05
3.39393e-05
3.38703e-05
3.37906e-05
3.36994e-05
3.35984e-05
3.34884e-05
3.33691e-05
3.32416e-05
3.31052e-05
3.29608e-05
3.28079e-05
3.26457e-05
3.24748e-05
3.22942e-05
3.21031e-05
3.1901e-05
3.16872e-05
3.14612e-05
3.12214e-05
3.09675e-05
3.06998e-05
3.04167e-05
3.01194e-05
2.9808e-05
2.94829e-05
2.91453e-05
2.87954e-05
2.84326e-05
2.80557e-05
2.76632e-05
2.72526e-05
2.68236e-05
2.63761e-05
2.59124e-05
2.54346e-05
2.49433e-05
2.44366e-05
2.39095e-05
2.33584e-05
2.27828e-05
2.21875e-05
2.15856e-05
2.09608e-05
2.03476e-05
1.98018e-05
1.93392e-05
1.88804e-05
1.83819e-05
1.78843e-05
1.71866e-05
1.6986e-05
1.55718e-05
1.77813e-05
1.27347e-05
2.57926e-05
2.69222e-05
3.70688e-05
3.00836e-05
2.82462e-05
2.77208e-05
2.89761e-05
2.91176e-05
2.94875e-05
2.97482e-05
3.00251e-05
3.02746e-05
3.05061e-05
3.07123e-05
3.09012e-05
3.1066e-05
3.12088e-05
3.13308e-05
3.14314e-05
3.15112e-05
3.1574e-05
3.16174e-05
3.16423e-05
3.16531e-05
3.16492e-05
3.16318e-05
3.16008e-05
3.15602e-05
3.15096e-05
3.14492e-05
3.13805e-05
3.13044e-05
3.1221e-05
3.11308e-05
3.10344e-05
3.0931e-05
3.08215e-05
3.07056e-05
3.05826e-05
3.04524e-05
3.03143e-05
3.01677e-05
3.00115e-05
2.98453e-05
2.96684e-05
2.94787e-05
2.9277e-05
2.90619e-05
2.88326e-05
2.85907e-05
2.83355e-05
2.80681e-05
2.77894e-05
2.74995e-05
2.71979e-05
2.68836e-05
2.65545e-05
2.62078e-05
2.5843e-05
2.54595e-05
2.50587e-05
2.46428e-05
2.42123e-05
2.37657e-05
2.32991e-05
2.28094e-05
2.22973e-05
2.17666e-05
2.12285e-05
2.06658e-05
2.0114e-05
1.96227e-05
1.92033e-05
1.87856e-05
1.8332e-05
1.78774e-05
1.72657e-05
1.71194e-05
1.59068e-05
1.78529e-05
1.28866e-05
2.57864e-05
2.69532e-05
3.70513e-05
2.77523e-05
2.66896e-05
2.62731e-05
2.72396e-05
2.73175e-05
2.76272e-05
2.78471e-05
2.80761e-05
2.8281e-05
2.84713e-05
2.86416e-05
2.87966e-05
2.89326e-05
2.90505e-05
2.91515e-05
2.92361e-05
2.93029e-05
2.93563e-05
2.93942e-05
2.94175e-05
2.94296e-05
2.943e-05
2.9419e-05
2.93982e-05
2.93708e-05
2.93336e-05
2.92899e-05
2.92407e-05
2.91848e-05
2.9124e-05
2.90578e-05
2.89877e-05
2.89118e-05
2.88319e-05
2.87471e-05
2.86567e-05
2.85609e-05
2.84588e-05
2.83494e-05
2.82325e-05
2.81068e-05
2.79714e-05
2.78254e-05
2.76682e-05
2.74986e-05
2.73171e-05
2.71239e-05
2.69188e-05
2.67035e-05
2.64783e-05
2.62436e-05
2.59988e-05
2.5743e-05
2.54728e-05
2.51864e-05
2.48824e-05
2.45587e-05
2.4218e-05
2.38615e-05
2.34893e-05
2.31015e-05
2.26946e-05
2.22658e-05
2.18166e-05
2.13499e-05
2.08747e-05
2.03738e-05
1.98832e-05
1.94455e-05
1.90682e-05
1.86914e-05
1.82826e-05
1.78728e-05
1.73506e-05
1.72579e-05
1.62286e-05
1.79075e-05
1.30271e-05
2.57665e-05
2.69579e-05
3.70723e-05
2.60955e-05
2.51077e-05
2.4681e-05
2.54703e-05
2.55303e-05
2.57868e-05
2.59647e-05
2.615e-05
2.63125e-05
2.64676e-05
2.66056e-05
2.673e-05
2.68416e-05
2.69365e-05
2.70196e-05
2.70907e-05
2.71467e-05
2.71911e-05
2.72253e-05
2.7248e-05
2.72618e-05
2.72662e-05
2.72622e-05
2.7252e-05
2.72349e-05
2.72113e-05
2.71848e-05
2.71528e-05
2.71154e-05
2.70746e-05
2.70329e-05
2.69861e-05
2.6937e-05
2.68829e-05
2.68264e-05
2.67693e-05
2.67032e-05
2.66339e-05
2.65598e-05
2.64796e-05
2.63903e-05
2.62943e-05
2.61885e-05
2.60715e-05
2.5946e-05
2.58081e-05
2.56605e-05
2.55038e-05
2.5337e-05
2.51636e-05
2.49819e-05
2.47915e-05
2.45928e-05
2.438e-05
2.41516e-05
2.39071e-05
2.36423e-05
2.33596e-05
2.30624e-05
2.27482e-05
2.24191e-05
2.20735e-05
2.17068e-05
2.13218e-05
2.09206e-05
2.05101e-05
2.00724e-05
1.96448e-05
1.92617e-05
1.89271e-05
1.85922e-05
1.82302e-05
1.78699e-05
1.74422e-05
1.74059e-05
1.65476e-05
1.79445e-05
1.32912e-05
2.56713e-05
2.70146e-05
3.70954e-05
2.4118e-05
2.32048e-05
2.27916e-05
2.34487e-05
2.34743e-05
2.36789e-05
2.38072e-05
2.39351e-05
2.40696e-05
2.41768e-05
2.42778e-05
2.43804e-05
2.44603e-05
2.4529e-05
2.45983e-05
2.46578e-05
2.46948e-05
2.47377e-05
2.47678e-05
2.47901e-05
2.48092e-05
2.48152e-05
2.48234e-05
2.48266e-05
2.48204e-05
2.48148e-05
2.48069e-05
2.47952e-05
2.47816e-05
2.47625e-05
2.47486e-05
2.47315e-05
2.47104e-05
2.46845e-05
2.4665e-05
2.46413e-05
2.46097e-05
2.45766e-05
2.45418e-05
2.45016e-05
2.4452e-05
2.44008e-05
2.43353e-05
2.42642e-05
2.41873e-05
2.4095e-05
2.39987e-05
2.38958e-05
2.37817e-05
2.36668e-05
2.35444e-05
2.34141e-05
2.32804e-05
2.31316e-05
2.29674e-05
2.2789e-05
2.25912e-05
2.23732e-05
2.21426e-05
2.1896e-05
2.16351e-05
2.13603e-05
2.10662e-05
2.07564e-05
2.04311e-05
2.00945e-05
1.97298e-05
1.93753e-05
1.90531e-05
1.87659e-05
1.84793e-05
1.8172e-05
1.78707e-05
1.75562e-05
1.75705e-05
1.69143e-05
1.78998e-05
1.37947e-05
2.54104e-05
2.68747e-05
3.64434e-05
2.18311e-05
2.1125e-05
2.07902e-05
2.12785e-05
2.12807e-05
2.1428e-05
2.15013e-05
2.15872e-05
2.16816e-05
2.17455e-05
2.18172e-05
2.18903e-05
2.19403e-05
2.1987e-05
2.20438e-05
2.20859e-05
2.21109e-05
2.21524e-05
2.21735e-05
2.22003e-05
2.22245e-05
2.22305e-05
2.2251e-05
2.22693e-05
2.22732e-05
2.22857e-05
2.22933e-05
2.2302e-05
2.23135e-05
2.23182e-05
2.23267e-05
2.2339e-05
2.23441e-05
2.2349e-05
2.23635e-05
2.2368e-05
2.23718e-05
2.23749e-05
2.23766e-05
2.23722e-05
2.23641e-05
2.23508e-05
2.23271e-05
2.23036e-05
2.22682e-05
2.22255e-05
2.21817e-05
2.21315e-05
2.20754e-05
2.20202e-05
2.1962e-05
2.18969e-05
2.18301e-05
2.175e-05
2.16557e-05
2.15467e-05
2.14194e-05
2.12735e-05
2.11159e-05
2.09447e-05
2.07615e-05
2.0566e-05
2.03547e-05
2.01293e-05
1.98878e-05
1.96334e-05
1.93511e-05
1.90769e-05
1.88205e-05
1.85856e-05
1.83533e-05
1.81091e-05
1.78807e-05
1.76933e-05
1.77621e-05
1.72954e-05
1.78265e-05
1.43231e-05
2.53811e-05
2.67449e-05
3.64004e-05
1.97108e-05
1.91369e-05
1.88369e-05
1.92179e-05
1.92099e-05
1.92961e-05
1.93471e-05
1.94178e-05
1.94538e-05
1.95077e-05
1.95645e-05
1.96024e-05
1.96381e-05
1.96767e-05
1.9721e-05
1.97436e-05
1.97763e-05
1.98079e-05
1.98245e-05
1.9858e-05
1.98849e-05
1.98969e-05
1.99251e-05
1.99506e-05
1.99649e-05
1.99961e-05
2.00158e-05
2.00381e-05
2.00688e-05
2.0094e-05
2.01192e-05
2.01542e-05
2.01806e-05
2.02104e-05
2.02481e-05
2.02766e-05
2.03073e-05
2.03393e-05
2.03679e-05
2.03916e-05
2.04159e-05
2.04319e-05
2.04456e-05
2.04572e-05
2.04574e-05
2.04589e-05
2.04592e-05
2.04554e-05
2.04519e-05
2.04492e-05
2.04487e-05
2.04432e-05
2.04341e-05
2.04173e-05
2.03848e-05
2.03387e-05
2.02766e-05
2.01977e-05
2.01102e-05
2.00113e-05
1.99028e-05
1.97854e-05
1.96546e-05
1.95099e-05
1.93505e-05
1.91762e-05
1.89749e-05
1.87791e-05
1.85866e-05
1.84042e-05
1.82289e-05
1.80512e-05
1.7905e-05
1.78443e-05
1.79728e-05
1.76491e-05
1.779e-05
1.48293e-05
2.5479e-05
2.63753e-05
3.6377e-05
1.77833e-05
1.68184e-05
1.72545e-05
1.69333e-05
1.72997e-05
1.7255e-05
1.73131e-05
1.73614e-05
1.74058e-05
1.74278e-05
1.74674e-05
1.75112e-05
1.75415e-05
1.75666e-05
1.76033e-05
1.76417e-05
1.76577e-05
1.76963e-05
1.77256e-05
1.77493e-05
1.77874e-05
1.78132e-05
1.78443e-05
1.78762e-05
1.79098e-05
1.79428e-05
1.79827e-05
1.80193e-05
1.80554e-05
1.81029e-05
1.81459e-05
1.81876e-05
1.82426e-05
1.82872e-05
1.83386e-05
1.83965e-05
1.84441e-05
1.84986e-05
1.85534e-05
1.86029e-05
1.86529e-05
1.87007e-05
1.87443e-05
1.87875e-05
1.88255e-05
1.8862e-05
1.88987e-05
1.8936e-05
1.89746e-05
1.90156e-05
1.90585e-05
1.91057e-05
1.91497e-05
1.91891e-05
1.92235e-05
1.92416e-05
1.92482e-05
1.92416e-05
1.92203e-05
1.91937e-05
1.91594e-05
1.91173e-05
1.90694e-05
1.90099e-05
1.89373e-05
1.88512e-05
1.87493e-05
1.8622e-05
1.84972e-05
1.83629e-05
1.82308e-05
1.81125e-05
1.8003e-05
1.79447e-05
1.80053e-05
1.81901e-05
1.79628e-05
1.77823e-05
1.54262e-05
2.56393e-05
2.58996e-05
3.63456e-05
1.5986e-05
1.50951e-05
1.54665e-05
1.51521e-05
1.55012e-05
1.54436e-05
1.55014e-05
1.55229e-05
1.55623e-05
1.55913e-05
1.56103e-05
1.56491e-05
1.56778e-05
1.57098e-05
1.57405e-05
1.57718e-05
1.57985e-05
1.58385e-05
1.58742e-05
1.59046e-05
1.59424e-05
1.59775e-05
1.60265e-05
1.60621e-05
1.61082e-05
1.61544e-05
1.62021e-05
1.62592e-05
1.63073e-05
1.63683e-05
1.64261e-05
1.64883e-05
1.65566e-05
1.6619e-05
1.66892e-05
1.67633e-05
1.68322e-05
1.6903e-05
1.69787e-05
1.70492e-05
1.71207e-05
1.71921e-05
1.7259e-05
1.73285e-05
1.73955e-05
1.74641e-05
1.75336e-05
1.76052e-05
1.76829e-05
1.77639e-05
1.78461e-05
1.79337e-05
1.80194e-05
1.8099e-05
1.81755e-05
1.82365e-05
1.82872e-05
1.83284e-05
1.83584e-05
1.83854e-05
1.84076e-05
1.84246e-05
1.84369e-05
1.84402e-05
1.8431e-05
1.84091e-05
1.83719e-05
1.83112e-05
1.82496e-05
1.81684e-05
1.80846e-05
1.80221e-05
1.79808e-05
1.80128e-05
1.81853e-05
1.84159e-05
1.82471e-05
1.78254e-05
1.61959e-05
2.58621e-05
2.53361e-05
3.63249e-05
1.42749e-05
1.3472e-05
1.37728e-05
1.34816e-05
1.38038e-05
1.37591e-05
1.38083e-05
1.38317e-05
1.38763e-05
1.38908e-05
1.39219e-05
1.39662e-05
1.39916e-05
1.40312e-05
1.40682e-05
1.40987e-05
1.4143e-05
1.41859e-05
1.4231e-05
1.4268e-05
1.4317e-05
1.43706e-05
1.44192e-05
1.44723e-05
1.45332e-05
1.4585e-05
1.4652e-05
1.47216e-05
1.47801e-05
1.48561e-05
1.49269e-05
1.50055e-05
1.50856e-05
1.51605e-05
1.52465e-05
1.53362e-05
1.54162e-05
1.55037e-05
1.55955e-05
1.56811e-05
1.57691e-05
1.58619e-05
1.59472e-05
1.60374e-05
1.61324e-05
1.62247e-05
1.63236e-05
1.64246e-05
1.65336e-05
1.66455e-05
1.67589e-05
1.68791e-05
1.69953e-05
1.71069e-05
1.72166e-05
1.73127e-05
1.74008e-05
1.74836e-05
1.7559e-05
1.76334e-05
1.77045e-05
1.77735e-05
1.78392e-05
1.78962e-05
1.7943e-05
1.79777e-05
1.79976e-05
1.7996e-05
1.79892e-05
1.79555e-05
1.79195e-05
1.79138e-05
1.7943e-05
1.80672e-05
1.8338e-05
1.85924e-05
1.84384e-05
1.78603e-05
1.70401e-05
2.61385e-05
2.4631e-05
3.63499e-05
1.30637e-05
1.23681e-05
1.26428e-05
1.23672e-05
1.26683e-05
1.2624e-05
1.26506e-05
1.26898e-05
1.27192e-05
1.27297e-05
1.27653e-05
1.28021e-05
1.28271e-05
1.28574e-05
1.28985e-05
1.29278e-05
1.29741e-05
1.30168e-05
1.3053e-05
1.30961e-05
1.31502e-05
1.32046e-05
1.32481e-05
1.33028e-05
1.33742e-05
1.34245e-05
1.34926e-05
1.35652e-05
1.36309e-05
1.3707e-05
1.37853e-05
1.38672e-05
1.39523e-05
1.40356e-05
1.41293e-05
1.42246e-05
1.43142e-05
1.44151e-05
1.45163e-05
1.46182e-05
1.47189e-05
1.48304e-05
1.49363e-05
1.5048e-05
1.51665e-05
1.52808e-05
1.54075e-05
1.55328e-05
1.56652e-05
1.58011e-05
1.59387e-05
1.60807e-05
1.62188e-05
1.63567e-05
1.64905e-05
1.6616e-05
1.67371e-05
1.68547e-05
1.69683e-05
1.70823e-05
1.71935e-05
1.73044e-05
1.74129e-05
1.75129e-05
1.76065e-05
1.76886e-05
1.77566e-05
1.78065e-05
1.7849e-05
1.78607e-05
1.78678e-05
1.79094e-05
1.79967e-05
1.81971e-05
1.85383e-05
1.87973e-05
1.86593e-05
1.80964e-05
1.82164e-05
2.65703e-05
2.39547e-05
3.65625e-05
1.17842e-05
1.11295e-05
1.13764e-05
1.11056e-05
1.14495e-05
1.14008e-05
1.14517e-05
1.14956e-05
1.15107e-05
1.15363e-05
1.15909e-05
1.1634e-05
1.16697e-05
1.1702e-05
1.17503e-05
1.18018e-05
1.18534e-05
1.1898e-05
1.19395e-05
1.201e-05
1.20643e-05
1.21229e-05
1.21808e-05
1.22396e-05
1.23212e-05
1.23826e-05
1.24529e-05
1.25281e-05
1.26066e-05
1.26866e-05
1.27649e-05
1.28563e-05
1.29394e-05
1.30296e-05
1.31273e-05
1.32211e-05
1.33179e-05
1.34171e-05
1.35265e-05
1.36325e-05
1.3737e-05
1.38555e-05
1.39706e-05
1.40901e-05
1.42142e-05
1.43418e-05
1.44744e-05
1.46081e-05
1.4747e-05
1.48882e-05
1.5034e-05
1.51799e-05
1.53278e-05
1.54766e-05
1.56224e-05
1.57659e-05
1.59093e-05
1.60516e-05
1.61923e-05
1.6336e-05
1.64781e-05
1.66219e-05
1.67641e-05
1.68999e-05
1.70314e-05
1.71515e-05
1.72583e-05
1.73476e-05
1.74199e-05
1.74599e-05
1.75115e-05
1.76125e-05
1.77786e-05
1.80764e-05
1.84792e-05
1.86861e-05
1.84636e-05
1.7936e-05
1.89326e-05
2.6815e-05
2.27795e-05
3.69374e-05
1.20909e-05
1.16553e-05
1.18221e-05
1.16341e-05
1.17977e-05
1.17627e-05
1.18019e-05
1.18225e-05
1.18168e-05
1.1833e-05
1.18675e-05
1.18957e-05
1.19135e-05
1.19253e-05
1.19569e-05
1.19902e-05
1.20184e-05
1.20455e-05
1.20692e-05
1.212e-05
1.21554e-05
1.21881e-05
1.22305e-05
1.22746e-05
1.233e-05
1.23781e-05
1.24337e-05
1.24897e-05
1.25553e-05
1.26233e-05
1.26898e-05
1.27722e-05
1.28477e-05
1.29365e-05
1.30295e-05
1.31257e-05
1.32272e-05
1.33328e-05
1.34523e-05
1.35667e-05
1.36902e-05
1.38196e-05
1.39487e-05
1.4081e-05
1.42163e-05
1.43533e-05
1.44865e-05
1.46242e-05
1.47606e-05
1.48986e-05
1.50427e-05
1.51879e-05
1.53405e-05
1.54952e-05
1.56533e-05
1.5812e-05
1.59706e-05
1.6128e-05
1.62805e-05
1.64333e-05
1.65829e-05
1.67338e-05
1.68843e-05
1.7032e-05
1.71777e-05
1.73148e-05
1.74437e-05
1.75622e-05
1.76766e-05
1.77612e-05
1.78308e-05
1.79309e-05
1.80838e-05
1.83558e-05
1.87176e-05
1.88884e-05
1.87905e-05
1.87787e-05
2.08348e-05
2.75329e-05
2.31251e-05
3.86646e-05
1.05274e-05
1.05894e-05
1.05278e-05
1.06478e-05
1.07029e-05
1.07217e-05
1.07528e-05
1.07753e-05
1.08098e-05
1.08463e-05
1.08687e-05
1.09042e-05
1.09399e-05
1.09771e-05
1.10134e-05
1.10483e-05
1.10911e-05
1.11314e-05
1.11726e-05
1.12189e-05
1.12608e-05
1.13098e-05
1.13556e-05
1.14047e-05
1.14578e-05
1.15122e-05
1.15671e-05
1.16223e-05
1.16845e-05
1.17445e-05
1.1809e-05
1.18765e-05
1.19432e-05
1.20174e-05
1.20904e-05
1.21693e-05
1.22493e-05
1.23323e-05
1.24192e-05
1.25044e-05
1.25949e-05
1.26843e-05
1.27732e-05
1.28616e-05
1.29514e-05
1.30382e-05
1.31248e-05
1.32151e-05
1.33065e-05
1.34052e-05
1.35097e-05
1.36223e-05
1.3744e-05
1.38702e-05
1.40038e-05
1.41401e-05
1.42813e-05
1.4425e-05
1.45707e-05
1.47244e-05
1.48816e-05
1.50455e-05
1.52125e-05
1.538e-05
1.55463e-05
1.5703e-05
1.58499e-05
1.59803e-05
1.60554e-05
1.60878e-05
1.61953e-05
1.6414e-05
1.67493e-05
1.72468e-05
1.77039e-05
1.76627e-05
1.71546e-05
1.73361e-05
2.05747e-05
2.53731e-05
2.19777e-05
3.86571e-05
)
;

boundaryField
{
    inlet
    {
        type            calculated;
        value           nonuniform List<scalar> 
23
(
7.59913e-05
7.5784e-05
7.55823e-05
7.53855e-05
7.51897e-05
7.49906e-05
7.4783e-05
7.45626e-05
7.43239e-05
7.4062e-05
7.37698e-05
7.34487e-05
7.30803e-05
7.25162e-05
7.20434e-05
7.14664e-05
7.0744e-05
6.98565e-05
6.87762e-05
6.74868e-05
6.59152e-05
6.46669e-05
6.22236e-05
)
;
    }
    outlet
    {
        type            calculated;
        value           nonuniform List<scalar> 
82
(
9.39914e-06
9.39076e-06
9.49342e-06
9.54799e-06
9.61544e-06
9.63224e-06
9.66534e-06
9.68687e-06
9.72411e-06
9.76368e-06
9.78425e-06
9.82182e-06
9.85967e-06
9.89893e-06
9.9369e-06
9.97277e-06
1.00187e-05
1.00611e-05
1.01041e-05
1.01539e-05
1.01974e-05
1.02496e-05
1.02976e-05
1.03493e-05
1.04059e-05
1.04633e-05
1.05211e-05
1.05783e-05
1.06442e-05
1.07061e-05
1.07727e-05
1.08425e-05
1.09099e-05
1.09858e-05
1.10587e-05
1.11378e-05
1.12169e-05
1.12983e-05
1.13835e-05
1.14649e-05
1.15524e-05
1.16376e-05
1.17216e-05
1.18048e-05
1.189e-05
1.1972e-05
1.20542e-05
1.2142e-05
1.22315e-05
1.23302e-05
1.24355e-05
1.25491e-05
1.26718e-05
1.27975e-05
1.293e-05
1.30647e-05
1.32056e-05
1.33516e-05
1.35034e-05
1.36688e-05
1.38419e-05
1.40248e-05
1.42117e-05
1.43983e-05
1.45825e-05
1.47537e-05
1.49097e-05
1.50386e-05
1.50916e-05
1.51006e-05
1.52193e-05
1.54878e-05
1.59161e-05
1.65411e-05
1.70919e-05
1.70052e-05
1.62124e-05
1.60559e-05
1.94873e-05
2.48919e-05
1.98202e-05
3.68147e-05
)
;
    }
    walls
    {
        type            calculated;
        value           nonuniform List<scalar> 0();
    }
    frontAndBack
    {
        type            empty;
    }
    procBoundary3to2
    {
        type            processor;
        value           nonuniform List<scalar> 
88
(
2.6691e-05
3.72661e-05
1.27713e-05
2.54674e-05
2.54674e-05
1.2914e-05
1.65638e-05
1.65638e-05
1.79893e-05
1.68267e-05
1.62449e-05
1.62449e-05
2.17093e-05
2.08569e-05
2.0132e-05
1.94377e-05
1.86917e-05
1.86917e-05
2.59818e-05
2.51091e-05
2.42101e-05
2.33033e-05
2.23848e-05
2.23848e-05
3.07061e-05
2.9987e-05
2.92573e-05
2.85218e-05
2.77819e-05
2.70345e-05
2.62709e-05
2.62709e-05
3.63696e-05
3.58965e-05
3.54077e-05
3.49042e-05
3.43863e-05
3.38553e-05
3.33118e-05
3.27558e-05
3.21874e-05
3.16044e-05
3.10056e-05
3.0389e-05
3.0389e-05
2.99663e-05
3.65149e-05
3.74551e-05
3.5715e-05
3.62712e-05
3.68303e-05
3.72937e-05
3.76801e-05
3.80212e-05
3.83241e-05
3.86051e-05
3.88476e-05
3.90533e-05
3.92279e-05
3.93657e-05
3.94729e-05
3.95467e-05
3.95888e-05
3.96035e-05
3.95904e-05
3.95519e-05
3.949e-05
3.94051e-05
3.93006e-05
3.91785e-05
3.90375e-05
3.88809e-05
3.87098e-05
3.85244e-05
3.83253e-05
3.81124e-05
3.78879e-05
3.76497e-05
3.73984e-05
3.71355e-05
3.68582e-05
3.65681e-05
3.62642e-05
3.59452e-05
3.56123e-05
3.5264e-05
3.48998e-05
3.48998e-05
)
;
    }
    procBoundary3to6
    {
        type            processor;
        value           uniform 2.61619e-07;
    }
    procBoundary3to7
    {
        type            processor;
        value           nonuniform List<scalar> 
16
(
4.62221e-06
2.84579e-05
2.8799e-05
2.53444e-05
2.3705e-05
2.22359e-05
2.04337e-05
1.86092e-05
1.86092e-05
1.67344e-05
1.50367e-05
1.34125e-05
1.23057e-05
1.11148e-05
1.15441e-05
1.06714e-05
)
;
    }
}


// ************************************************************************* //
