/*--------------------------------*- C++ -*----------------------------------*\
| =========                 |                                                 |
| \\      /  F ield         | OpenFOAM: The Open Source CFD Toolbox           |
|  \\    /   O peration     | Version:  2306                                  |
|   \\  /    A nd           | Website:  www.openfoam.com                      |
|    \\/     M anipulation  |                                                 |
\*---------------------------------------------------------------------------*/
FoamFile
{
    version     2.0;
    format      ascii;
    arch        "LSB;label=32;scalar=64";
    class       volSymmTensorField;
    location    "625";
    object      turbulenceProperties:devReff;
}
// * * * * * * * * * * * * * * * * * * * * * * * * * * * * * * * * * * * * * //

dimensions      [0 2 -2 0 0 0 0];

internalField   nonuniform List<symmTensor> 
1340
(
(5.37937e-08 7.83548e-08 -1.08995e-19 -1.24337e-07 -1.41107e-20 7.05434e-08)
(-2.12354e-07 9.58358e-08 5.5125e-20 3.08588e-07 6.39378e-21 -9.62347e-08)
(-2.87997e-09 -4.73484e-09 -2.14058e-19 -1.98821e-08 -2.67798e-20 2.2762e-08)
(-1.05849e-07 2.60438e-08 -3.34988e-20 1.49203e-07 -3.78754e-21 -4.33538e-08)
(4.76665e-08 8.19755e-08 1.61181e-20 -1.18998e-07 1.74041e-21 7.13317e-08)
(-2.10974e-07 9.49118e-08 -2.21446e-19 3.08908e-07 -2.50566e-20 -9.79341e-08)
(-4.07101e-08 -3.78707e-09 -0 3.57387e-08 -1.31777e-22 4.97135e-09)
(-5.34763e-08 -1.42763e-08 -7.23723e-20 6.4518e-08 -8.54497e-21 -1.10416e-08)
(-6.37931e-09 -3.73548e-09 2.03428e-19 -1.64374e-08 2.55177e-20 2.28167e-08)
(-1.06187e-07 2.46412e-08 1.02477e-19 1.49982e-07 1.21099e-20 -4.37957e-08)
(4.13803e-08 8.51141e-08 3.44226e-23 -1.1396e-07 2.0267e-22 7.25802e-08)
(-2.08347e-07 9.34515e-08 1.8243e-19 3.08737e-07 2.04866e-20 -1.00391e-07)
(-6.98699e-08 1.85039e-08 -9.23559e-20 7.01167e-08 -1.10934e-20 -2.46756e-10)
(-6.26269e-08 1.35765e-08 1.90982e-21 6.18839e-08 4.69758e-22 7.43059e-10)
(-5.85372e-08 4.27678e-09 1.26071e-20 6.05592e-08 1.50354e-21 -2.02206e-09)
(-4.22643e-08 -6.70951e-09 -0 3.73652e-08 -2.65047e-23 4.89911e-09)
(-5.42717e-08 -1.7431e-08 -3.30459e-22 6.52289e-08 -5.7875e-23 -1.09572e-08)
(-9.89476e-09 -2.85388e-09 1.45744e-21 -1.29206e-08 2.50722e-22 2.28153e-08)
(-1.06485e-07 2.37291e-08 8.56847e-22 1.50706e-07 1.58426e-22 -4.42211e-08)
(3.5618e-08 8.79116e-08 7.54791e-24 -1.09481e-07 6.55835e-24 7.38629e-08)
(-2.05847e-07 9.09634e-08 9.84678e-22 3.08673e-07 1.81241e-22 -1.02826e-07)
(-1.00521e-07 2.47362e-08 6.55341e-21 1.00551e-07 1.03041e-21 -3.03803e-11)
(-9.33474e-08 2.21181e-08 2.78108e-20 9.33802e-08 3.36688e-21 -3.28294e-11)
(-8.74706e-08 2.01591e-08 2.82607e-20 8.74301e-08 2.85833e-21 4.04748e-11)
(-8.18297e-08 1.87681e-08 -9.8339e-20 8.18641e-08 -1.17814e-20 -3.43109e-11)
(-7.60823e-08 1.71264e-08 2.56715e-20 7.60192e-08 3.32418e-21 6.31303e-11)
(-7.06975e-08 1.45073e-08 -3.91729e-20 7.09317e-08 -4.82829e-21 -2.3415e-10)
(-6.36349e-08 9.80085e-09 2.53566e-22 6.29178e-08 3.61288e-22 7.1709e-10)
(-5.94168e-08 4.17538e-10 9.31706e-20 6.13772e-08 1.13277e-20 -1.96038e-09)
(-4.37458e-08 -9.75482e-09 -0 3.89545e-08 -1.89274e-22 4.79125e-09)
(-5.49878e-08 -2.04211e-08 5.3934e-21 6.57904e-08 3.70867e-22 -1.08025e-08)
(-1.33404e-08 -2.04556e-09 -1.85954e-19 -9.38552e-09 -2.3263e-20 2.27259e-08)
(-1.06878e-07 2.31771e-08 -9.35473e-20 1.51413e-07 -1.10696e-20 -4.45345e-08)
(3.05728e-08 9.04956e-08 -6.09911e-21 -1.05588e-07 -6.02339e-22 7.5015e-08)
(-2.03859e-07 8.73934e-08 2.40771e-20 3.08903e-07 2.73424e-21 -1.05044e-07)
(-1.43534e-07 2.30264e-08 5.43496e-20 1.43529e-07 5.65773e-21 5.71149e-12)
(-1.34269e-07 2.3287e-08 -5.01976e-20 1.34265e-07 -6.12775e-21 4.23052e-12)
(-1.25153e-07 2.27081e-08 -1.30757e-20 1.25142e-07 -1.63245e-21 1.09562e-11)
(-1.16344e-07 2.15944e-08 -8.11943e-20 1.16364e-07 -9.45931e-21 -1.98693e-11)
(-1.07805e-07 2.02354e-08 -1.8781e-20 1.07756e-07 -1.81908e-21 4.88844e-11)
(-9.97594e-08 1.86844e-08 1.31665e-20 9.97839e-08 1.64181e-21 -2.45515e-11)
(-9.29567e-08 1.65549e-08 6.71977e-21 9.29816e-08 7.39944e-22 -2.48646e-11)
(-8.73876e-08 1.50641e-08 1.38207e-22 8.73423e-08 6.77882e-23 4.52939e-11)
(-8.20241e-08 1.40979e-08 1.64511e-20 8.20527e-08 1.786e-21 -2.85678e-11)
(-7.65343e-08 1.2831e-08 -4.50506e-20 7.64723e-08 -5.18293e-21 6.19786e-11)
(-7.13349e-08 1.04824e-08 8.55612e-20 7.15505e-08 1.02943e-20 -2.1565e-10)
(-6.44829e-08 5.94741e-09 -5.55051e-20 6.38009e-08 -7.18575e-21 6.82036e-10)
(-6.01427e-08 -3.48608e-09 -8.79579e-20 6.20192e-08 -1.05065e-20 -1.87651e-09)
(-4.5125e-08 -1.29063e-08 -0 4.04819e-08 1.92735e-22 4.64302e-09)
(-5.56135e-08 -2.3237e-08 -5.1327e-21 6.6193e-08 -3.35829e-22 -1.05796e-08)
(-1.66929e-08 -1.2787e-09 1.7651e-19 -5.84857e-09 2.20202e-20 2.25415e-08)
(-1.07323e-07 2.29256e-08 8.83913e-20 1.52058e-07 1.04046e-20 -4.47355e-08)
(2.60955e-08 9.28604e-08 5.80308e-21 -1.02159e-07 5.75351e-22 7.60635e-08)
(-2.02192e-07 8.28354e-08 -2.2655e-20 3.09347e-07 -2.55381e-21 -1.07156e-07)
(-1.97484e-07 -1.17622e-08 -5.87743e-21 1.97468e-07 -9.88496e-22 1.66211e-11)
(-1.89251e-07 -6.61367e-09 -3.17898e-20 1.89235e-07 -3.85975e-21 1.5719e-11)
(-1.80921e-07 -1.84637e-09 -5.67372e-20 1.80907e-07 -5.88758e-21 1.38371e-11)
(-1.72563e-07 2.61811e-09 2.00724e-20 1.72551e-07 2.58911e-21 1.13622e-11)
(-1.64204e-07 6.72353e-09 -5.17877e-21 1.64193e-07 -5.54497e-22 1.08846e-11)
(-1.55841e-07 1.0259e-08 2.59262e-20 1.55831e-07 3.36848e-21 9.41631e-12)
(-1.47443e-07 1.29701e-08 6.69692e-20 1.47434e-07 7.44957e-21 8.4534e-12)
(-1.39003e-07 1.46728e-08 3.69732e-22 1.38996e-07 -1.10704e-22 6.71272e-12)
(-1.3056e-07 1.53796e-08 3.956e-20 1.30554e-07 4.51275e-21 6.19377e-12)
(-1.22197e-07 1.52884e-08 -3.62579e-21 1.22185e-07 -5.81162e-22 1.18276e-11)
(-1.14073e-07 1.46974e-08 3.47333e-21 1.14092e-07 5.52962e-22 -1.86377e-11)
(-1.06143e-07 1.38603e-08 3.5718e-20 1.06092e-07 4.09046e-21 5.0987e-11)
(-9.86244e-08 1.27786e-08 -1.23872e-20 9.86488e-08 -1.61429e-21 -2.43404e-11)
(-9.22359e-08 1.11069e-08 -6.22964e-21 9.22576e-08 -6.80441e-22 -2.17412e-11)
(-8.70084e-08 1.00585e-08 2.06695e-22 8.69629e-08 7.07645e-23 4.55038e-11)
(-8.19552e-08 9.48846e-09 -1.23353e-22 8.19815e-08 -1.00261e-23 -2.62889e-11)
(-7.67572e-08 8.56544e-09 -3.61221e-22 7.67012e-08 -2.12684e-22 5.6073e-11)
(-7.17657e-08 6.45603e-09 -4.66522e-20 7.19622e-08 -5.44008e-21 -1.96515e-10)
(-6.51533e-08 2.03746e-09 5.27883e-20 6.45176e-08 6.50101e-21 6.35678e-10)
(-6.07013e-08 -7.41778e-09 -3.51966e-22 6.24759e-08 -2.00815e-22 -1.77463e-09)
(-4.63855e-08 -1.61445e-08 -0 4.19312e-08 1.18696e-23 4.45431e-09)
(-5.61465e-08 -2.58641e-08 4.87305e-21 6.64383e-08 2.98013e-22 -1.02919e-08)
(-1.99575e-08 -5.36398e-10 -1.79913e-19 -2.30003e-09 -2.22419e-20 2.22575e-08)
(-1.078e-07 2.29477e-08 2.96235e-22 1.52635e-07 3.10479e-22 -4.48349e-08)
(2.20808e-08 9.49808e-08 -1.65046e-20 -9.91105e-08 -2.13023e-21 7.70297e-08)
(-2.00707e-07 7.7323e-08 -1.23906e-22 3.09875e-07 -9.04607e-24 -1.09168e-07)
(-2.38472e-07 -1.19129e-07 5.6407e-21 2.38455e-07 5.44347e-23 1.63088e-11)
(-2.36183e-07 -1.09821e-07 -3.55216e-20 2.36167e-07 -3.72102e-21 1.575e-11)
(-2.33482e-07 -1.0051e-07 -7.10756e-22 2.33462e-07 7.93615e-22 2.019e-11)
(-2.3038e-07 -9.12089e-08 3.22539e-20 2.30357e-07 2.91547e-21 2.25331e-11)
(-2.26879e-07 -8.19735e-08 -3.44358e-20 2.26858e-07 -3.90455e-21 2.05684e-11)
(-2.22974e-07 -7.28705e-08 6.28457e-21 2.22953e-07 1.10237e-21 2.09931e-11)
(-2.18666e-07 -6.39778e-08 2.43392e-21 2.18646e-07 1.22159e-22 2.07684e-11)
(-2.1395e-07 -5.54175e-08 -5.83991e-21 2.1393e-07 -2.27083e-22 2.08851e-11)
(-2.08824e-07 -4.73121e-08 4.08002e-20 2.08805e-07 4.96948e-21 1.85521e-11)
(-2.03282e-07 -3.97763e-08 5.7358e-20 2.03264e-07 5.78547e-21 1.77612e-11)
(-1.97338e-07 -3.28924e-08 4.2668e-21 1.97322e-07 6.21588e-23 1.63223e-11)
(-1.91023e-07 -2.66613e-08 1.508e-20 1.91007e-07 1.45821e-21 1.58141e-11)
(-1.84395e-07 -2.10059e-08 -1.6261e-20 1.84382e-07 -1.8975e-21 1.33431e-11)
(-1.77528e-07 -1.57882e-08 -1.8041e-22 1.77515e-07 7.56228e-22 1.26323e-11)
(-1.70503e-07 -1.0864e-08 8.55393e-20 1.70492e-07 9.41642e-21 1.15467e-11)
(-1.63382e-07 -6.18186e-09 1.17318e-22 1.63372e-07 -9.29217e-22 9.52388e-12)
(-1.56182e-07 -1.83309e-09 -4.86891e-20 1.56173e-07 -5.51506e-21 9.10458e-12)
(-1.48894e-07 1.9579e-09 -9.94762e-21 1.48886e-07 -1.07801e-21 7.89723e-12)
(-1.41488e-07 4.93293e-09 -4.57594e-20 1.41481e-07 -5.17026e-21 7.05462e-12)
(-1.33966e-07 6.93191e-09 -1.07599e-20 1.3396e-07 -9.66844e-22 5.39253e-12)
(-1.26369e-07 7.97882e-09 3.6689e-22 1.26364e-07 -1.38434e-22 5.19379e-12)
(-1.18789e-07 8.28571e-09 -5.6412e-20 1.18778e-07 -6.49706e-21 1.04759e-11)
(-1.11382e-07 8.13723e-09 -3.71466e-21 1.11402e-07 -2.30799e-22 -1.9519e-11)
(-1.04096e-07 7.74782e-09 -1.37225e-20 1.04045e-07 -1.58707e-21 5.05816e-11)
(-9.71412e-08 7.07514e-09 -1.0284e-22 9.71673e-08 6.17216e-23 -2.61483e-11)
(-9.12026e-08 5.82496e-09 5.93137e-21 9.12225e-08 4.77491e-22 -1.99809e-11)
(-8.63458e-08 5.18815e-09 -4.81111e-20 8.63018e-08 -5.53997e-21 4.40384e-11)
(-8.16315e-08 4.9794e-09 4.37368e-20 8.16566e-08 5.53719e-21 -2.51023e-11)
(-7.67544e-08 4.36351e-09 4.02292e-20 7.67061e-08 4.88405e-21 4.82623e-11)
(-7.19907e-08 2.45288e-09 7.31885e-20 7.21665e-08 8.40871e-21 -1.75718e-10)
(-6.56414e-08 -1.90926e-09 -8.51284e-20 6.50603e-08 -1.04683e-20 5.81123e-10)
(-6.10892e-08 -1.13624e-08 -1.45521e-22 6.27448e-08 1.9089e-22 -1.65554e-09)
(-4.75192e-08 -1.94492e-08 -0 4.32912e-08 -7.14063e-24 4.22803e-09)
(-5.65874e-08 -2.82862e-08 -4.59676e-21 6.6525e-08 -4.70005e-22 -9.93764e-09)
(-2.31307e-08 2.03442e-10 4.59484e-20 1.25767e-09 5.66601e-21 2.1873e-08)
(-1.08316e-07 2.3207e-08 1.97308e-20 1.5313e-07 2.31441e-21 -4.48141e-08)
(1.84888e-08 9.68619e-08 -1.93441e-20 -9.63503e-08 -2.52921e-21 7.78615e-08)
(-1.9952e-07 7.08363e-08 4.97996e-24 3.10552e-07 1.71593e-23 -1.11032e-07)
(-1.97303e-07 -1.43736e-07 3.86769e-21 2.32835e-07 5.11946e-22 -3.55321e-08)
(-1.7908e-07 -1.95832e-07 4.20431e-21 1.77138e-07 2.65665e-22 1.94184e-09)
(-1.57748e-07 -1.81223e-07 -2.22025e-22 1.43391e-07 -1.03935e-22 1.43578e-08)
(-1.6573e-07 -1.8159e-07 8.89782e-22 1.69109e-07 1.21874e-22 -3.3792e-09)
(-1.59995e-07 -1.8954e-07 1.12535e-21 1.58707e-07 9.73912e-23 1.28786e-09)
(-1.6272e-07 -2.00069e-07 5.02618e-22 1.63221e-07 1.98004e-23 -5.00157e-10)
(-1.62083e-07 -2.08294e-07 2.64413e-22 1.61958e-07 -8.87522e-23 1.24133e-10)
(-1.62201e-07 -2.15571e-07 -3.95741e-21 1.62339e-07 -4.17808e-22 -1.37587e-10)
(-1.62056e-07 -2.22193e-07 -1.55855e-21 1.62053e-07 4.2145e-23 3.63252e-12)
(-1.62285e-07 -2.28062e-07 3.52437e-21 1.62348e-07 3.74003e-22 -6.32315e-11)
(-1.62623e-07 -2.33339e-07 -0 1.62661e-07 -9.93769e-23 -3.82147e-11)
(-1.63205e-07 -2.37886e-07 -1.8728e-22 1.63285e-07 1.63682e-22 -8.01697e-11)
(-1.63884e-07 -2.41747e-07 7.12563e-21 1.63932e-07 6.97758e-22 -4.72285e-11)
(-1.64739e-07 -2.44874e-07 2.1389e-22 1.64754e-07 3.10795e-23 -1.55747e-11)
(-1.65862e-07 -2.47308e-07 7.31177e-21 1.65943e-07 7.10826e-22 -8.10317e-11)
(-1.67053e-07 -2.49075e-07 4.43982e-22 1.67104e-07 -8.94562e-23 -5.12158e-11)
(-1.68434e-07 -2.50139e-07 1.4306e-21 1.68486e-07 2.39659e-22 -5.24183e-11)
(-1.69955e-07 -2.50562e-07 5.2714e-21 1.69999e-07 5.24648e-22 -4.40662e-11)
(-1.7163e-07 -2.50343e-07 2.54793e-21 1.7168e-07 2.8352e-22 -4.98633e-11)
(-1.73432e-07 -2.49536e-07 6.83568e-21 1.73485e-07 4.64741e-22 -5.31648e-11)
(-1.7535e-07 -2.48144e-07 -6.05075e-21 1.75406e-07 -9.18781e-22 -5.57975e-11)
(-1.7735e-07 -2.46221e-07 -8.69765e-21 1.77389e-07 -6.41485e-22 -3.83326e-11)
(-1.79465e-07 -2.43768e-07 2.90943e-21 1.79513e-07 4.18006e-22 -4.77592e-11)
(-1.81643e-07 -2.40849e-07 -2.08094e-21 1.81691e-07 -3.8875e-22 -4.84446e-11)
(-1.83873e-07 -2.37481e-07 -5.93561e-21 1.83921e-07 -6.48074e-22 -4.77068e-11)
(-1.86133e-07 -2.33695e-07 -5.06328e-21 1.86172e-07 -1.70604e-22 -3.92287e-11)
(-1.88423e-07 -2.29509e-07 1.00812e-20 1.88468e-07 1.01407e-21 -4.45102e-11)
(-1.90706e-07 -2.24979e-07 -3.40478e-21 1.90751e-07 -4.98139e-22 -4.52037e-11)
(-1.92961e-07 -2.20097e-07 1.2735e-21 1.93002e-07 1.03892e-22 -4.05901e-11)
(-1.95182e-07 -2.14902e-07 -4.41369e-21 1.95227e-07 -3.23378e-22 -4.47251e-11)
(-1.97335e-07 -2.09404e-07 6.97942e-21 1.9738e-07 8.40976e-22 -4.47474e-11)
(-1.99402e-07 -2.03626e-07 4.26577e-21 1.99447e-07 3.80578e-22 -4.52735e-11)
(-2.01358e-07 -1.97594e-07 5.0106e-21 2.01403e-07 6.34881e-22 -4.52737e-11)
(-2.03183e-07 -1.91304e-07 1.23053e-20 2.03229e-07 9.7803e-22 -4.60428e-11)
(-2.0485e-07 -1.84795e-07 -9.38785e-21 2.04894e-07 -1.22746e-21 -4.42855e-11)
(-2.06341e-07 -1.78063e-07 -5.1927e-21 2.06388e-07 -3.65822e-22 -4.64912e-11)
(-2.07621e-07 -1.71133e-07 4.39471e-22 2.07661e-07 3.45487e-23 -3.97187e-11)
(-2.08687e-07 -1.64016e-07 -6.02471e-21 2.0873e-07 -6.44664e-22 -4.35482e-11)
(-2.09491e-07 -1.56727e-07 -2.39746e-21 2.09525e-07 -3.04177e-22 -3.39959e-11)
(-2.10029e-07 -1.49267e-07 -9.55328e-21 2.10056e-07 -8.75472e-22 -2.7336e-11)
(-2.10284e-07 -1.41663e-07 3.3086e-21 2.1031e-07 5.43269e-22 -2.61767e-11)
(-2.10229e-07 -1.3391e-07 4.21081e-21 2.1025e-07 2.35531e-22 -2.07803e-11)
(-2.09851e-07 -1.26032e-07 -1.07207e-20 2.09864e-07 -1.04343e-21 -1.36055e-11)
(-2.09137e-07 -1.18019e-07 8.48941e-21 2.09143e-07 1.03307e-21 -5.59325e-12)
(-2.08084e-07 -1.09896e-07 -2.81375e-22 2.08089e-07 -1.71682e-22 -4.40306e-12)
(-2.06673e-07 -1.01678e-07 -8.09327e-27 2.06673e-07 -4.27463e-23 6.07382e-13)
(-2.049e-07 -9.33934e-08 1.72805e-22 2.04894e-07 1.53747e-22 5.64401e-12)
(-2.02761e-07 -8.50893e-08 8.56535e-21 2.02756e-07 5.64599e-22 5.514e-12)
(-2.00239e-07 -7.68298e-08 -2.96117e-20 2.0023e-07 -3.21458e-21 8.66675e-12)
(-1.97324e-07 -6.87077e-08 1.22169e-23 1.97312e-07 3.05701e-22 1.16339e-11)
(-1.94006e-07 -6.08366e-08 7.23288e-23 1.93995e-07 -1.09771e-22 1.0499e-11)
(-1.90266e-07 -5.33474e-08 -1.13228e-20 1.90255e-07 -1.19988e-21 1.09195e-11)
(-1.86097e-07 -4.63385e-08 4.26386e-22 1.86086e-07 1.85399e-22 1.18794e-11)
(-1.81509e-07 -3.98865e-08 -1.33334e-21 1.81499e-07 -1.24791e-22 1.0449e-11)
(-1.76526e-07 -3.39812e-08 4.37931e-23 1.76515e-07 -2.48161e-23 1.11547e-11)
(-1.71205e-07 -2.85364e-08 -6.31253e-21 1.71196e-07 -6.87357e-22 9.70101e-12)
(-1.65614e-07 -2.34149e-08 5.33977e-23 1.65604e-07 -2.29454e-22 9.35972e-12)
(-1.59823e-07 -1.84956e-08 -3.65293e-20 1.59814e-07 -4.00557e-21 8.81415e-12)
(-1.53881e-07 -1.37558e-08 9.17677e-24 1.53873e-07 5.44804e-22 7.53887e-12)
(-1.47798e-07 -9.31623e-09 4.09531e-20 1.47791e-07 4.55731e-21 7.27754e-12)
(-1.41558e-07 -5.41505e-09 -4.70061e-23 1.41552e-07 -1.63802e-23 6.21947e-12)
(-1.3513e-07 -2.30683e-09 4.37269e-20 1.35124e-07 4.91643e-21 5.75737e-12)
(-1.28519e-07 -1.32312e-10 -2.66436e-21 1.28515e-07 -7.38707e-22 4.43717e-12)
(-1.21775e-07 1.15204e-09 -3.63442e-20 1.21771e-07 -4.12777e-21 4.46855e-12)
(-1.14992e-07 1.76442e-09 -5.21045e-22 1.14983e-07 1.02753e-22 9.17347e-12)
(-1.08322e-07 1.97465e-09 -4.23634e-23 1.08342e-07 3.73553e-23 -1.94881e-11)
(-1.01702e-07 1.95321e-09 1.32717e-20 1.01651e-07 1.57917e-21 5.03657e-11)
(-9.53399e-08 1.62769e-09 1.1361e-20 9.53671e-08 1.2706e-21 -2.72472e-11)
(-8.98804e-08 7.57142e-10 1.10194e-22 8.98981e-08 -2.36078e-23 -1.77331e-11)
(-8.54176e-08 4.97537e-10 -3.34152e-22 8.53745e-08 -5.14172e-23 4.31371e-11)
(-8.1066e-08 6.10305e-10 2.18215e-22 8.10893e-08 -1.06882e-22 -2.32802e-11)
(-7.6533e-08 2.5705e-10 -3.81608e-20 7.64925e-08 -4.73367e-21 4.05176e-11)
(-7.20131e-08 -1.50357e-09 -5.90188e-20 7.21654e-08 -6.69532e-21 -1.52301e-10)
(-6.59457e-08 -5.87382e-09 8.40402e-20 6.54248e-08 1.03463e-20 5.20871e-10)
(-6.13071e-08 -1.53058e-08 4.04705e-20 6.28279e-08 4.66124e-21 -1.5208e-09)
(-4.85258e-08 -2.27963e-08 -0 4.45572e-08 -1.16429e-22 3.96852e-09)
(-5.69446e-08 -3.04895e-08 -1.33599e-20 6.64615e-08 -1.42199e-21 -9.51698e-09)
(-2.621e-08 9.80368e-10 1.19113e-19 4.82875e-09 1.45693e-20 2.13813e-08)
(-1.08884e-07 2.36449e-08 -9.16345e-20 1.53508e-07 -1.1272e-20 -4.46242e-08)
(1.53364e-08 9.85726e-08 4.82951e-21 -9.38466e-08 7.73503e-22 7.85102e-08)
(-1.98727e-07 6.3379e-08 4.87899e-24 3.11402e-07 -4.33905e-24 -1.12675e-07)
(-1.82874e-07 -1.60025e-07 -3.00599e-22 2.16312e-07 -1.98441e-23 -3.34383e-08)
(-1.35808e-07 -1.6416e-07 4.86537e-22 1.3393e-07 4.49182e-23 1.87809e-09)
(-1.22375e-07 -1.57091e-07 -5.60606e-22 1.1142e-07 -6.86784e-23 1.09543e-08)
(-1.3484e-07 -1.66078e-07 -2.04857e-22 1.37452e-07 -7.41062e-24 -2.61138e-09)
(-1.31812e-07 -1.74217e-07 1.55188e-24 1.30803e-07 6.41617e-24 1.00951e-09)
(-1.33158e-07 -1.81326e-07 4.45465e-25 1.33538e-07 -9.36132e-23 -3.80063e-10)
(-1.3242e-07 -1.8739e-07 -4.00074e-21 1.32301e-07 -3.45213e-22 1.19671e-10)
(-1.32546e-07 -1.93042e-07 1.61517e-21 1.32625e-07 2.49846e-22 -7.82712e-11)
(-1.32554e-07 -1.98205e-07 1.55446e-22 1.32562e-07 -8.52819e-23 -7.57094e-12)
(-1.32813e-07 -2.02858e-07 -2.56008e-21 1.32845e-07 -2.51762e-22 -3.26165e-11)
(-1.3319e-07 -2.06993e-07 -0 1.33214e-07 -5.42995e-23 -2.36877e-11)
(-1.3373e-07 -2.10567e-07 -4.87592e-21 1.33762e-07 -5.23616e-22 -3.19127e-11)
(-1.34404e-07 -2.13597e-07 -1.98366e-21 1.3443e-07 -8.12748e-23 -2.61703e-11)
(-1.3522e-07 -2.16078e-07 4.11663e-25 1.35235e-07 -6.27606e-23 -1.48817e-11)
(-1.3623e-07 -2.18013e-07 -4.99203e-21 1.36282e-07 -3.83681e-22 -5.21355e-11)
(-1.37318e-07 -2.19417e-07 4.54675e-21 1.37342e-07 6.51641e-22 -2.4301e-11)
(-1.38567e-07 -2.20282e-07 4.90062e-21 1.38586e-07 3.04027e-22 -1.9599e-11)
(-1.39975e-07 -2.20641e-07 -3.72684e-21 1.40016e-07 -5.21292e-22 -4.11213e-11)
(-1.41475e-07 -2.20522e-07 -3.02871e-21 1.41505e-07 -2.55849e-22 -2.93574e-11)
(-1.43108e-07 -2.19918e-07 -1.52509e-21 1.43139e-07 -9.4366e-23 -3.08482e-11)
(-1.44851e-07 -2.18873e-07 -8.50378e-22 1.44886e-07 9.88298e-23 -3.44445e-11)
(-1.46691e-07 -2.17399e-07 7.56533e-21 1.46726e-07 7.48252e-22 -3.40637e-11)
(-1.48611e-07 -2.15534e-07 5.21702e-24 1.48637e-07 -7.90612e-23 -2.5318e-11)
(-1.50629e-07 -2.13283e-07 3.28241e-21 1.50664e-07 3.96377e-22 -3.58054e-11)
(-1.52691e-07 -2.10688e-07 3.80973e-21 1.52719e-07 3.1512e-22 -2.73093e-11)
(-1.54815e-07 -2.07754e-07 4.84538e-22 1.54842e-07 -9.09285e-23 -2.70946e-11)
(-1.56979e-07 -2.04523e-07 -3.05522e-21 1.5701e-07 -3.27396e-22 -3.06235e-11)
(-1.59159e-07 -2.00995e-07 -1.63051e-21 1.59184e-07 -1.05506e-22 -2.53268e-11)
(-1.61348e-07 -1.97194e-07 4.12896e-24 1.6137e-07 4.37287e-23 -2.17025e-11)
(-1.63535e-07 -1.93133e-07 8.90266e-22 1.63558e-07 8.00988e-23 -2.2747e-11)
(-1.65694e-07 -1.88822e-07 2.33511e-23 1.65714e-07 8.36267e-23 -1.95301e-11)
(-1.67815e-07 -1.8428e-07 6.11177e-21 1.67835e-07 6.15183e-22 -1.99584e-11)
(-1.69868e-07 -1.79517e-07 1.02639e-23 1.69881e-07 -9.42924e-23 -1.2742e-11)
(-1.71853e-07 -1.74531e-07 4.48365e-23 1.71868e-07 1.92686e-22 -1.50922e-11)
(-1.73736e-07 -1.69346e-07 1.05317e-20 1.73749e-07 1.10594e-21 -1.30539e-11)
(-1.755e-07 -1.63956e-07 3.20566e-21 1.7551e-07 6.98097e-23 -9.9947e-12)
(-1.77126e-07 -1.5838e-07 -5.85589e-21 1.77135e-07 -5.79986e-22 -8.42292e-12)
(-1.78598e-07 -1.52615e-07 3.79152e-21 1.78608e-07 4.61404e-22 -9.79444e-12)
(-1.79889e-07 -1.46666e-07 -1.12504e-23 1.79897e-07 -1.21429e-22 -8.58383e-12)
(-1.80978e-07 -1.40545e-07 -4.51027e-21 1.80982e-07 -5.199e-22 -3.88967e-12)
(-1.81855e-07 -1.34243e-07 -3.99675e-21 1.81858e-07 -3.02963e-22 -3.46232e-12)
(-1.82499e-07 -1.2777e-07 3.60399e-21 1.82505e-07 5.04626e-22 -6.00087e-12)
(-1.82884e-07 -1.21129e-07 5.78833e-21 1.82884e-07 5.71082e-22 -5.61312e-13)
(-1.83005e-07 -1.14308e-07 3.08215e-21 1.83003e-07 5.57791e-22 2.70017e-12)
(-1.82849e-07 -1.07336e-07 2.46056e-20 1.82847e-07 2.50693e-21 1.78561e-12)
(-1.82393e-07 -1.00204e-07 2.8157e-24 1.82387e-07 -3.09401e-22 6.16366e-12)
(-1.81631e-07 -9.29541e-08 1.7572e-23 1.81623e-07 -7.03896e-23 7.58384e-12)
(-1.80546e-07 -8.56248e-08 -8.47459e-21 1.80537e-07 -6.6745e-22 8.82956e-12)
(-1.79117e-07 -7.82803e-08 1.85611e-20 1.79105e-07 2.01962e-21 1.13139e-11)
(-1.77326e-07 -7.10194e-08 3.14215e-22 1.77312e-07 -3.8373e-22 1.3276e-11)
(-1.75153e-07 -6.39494e-08 -2.25363e-20 1.7514e-07 -2.40033e-21 1.26966e-11)
(-1.72572e-07 -5.71911e-08 8.33303e-23 1.72558e-07 -3.41892e-23 1.38213e-11)
(-1.69571e-07 -5.08414e-08 -2.61147e-20 1.69556e-07 -2.78304e-21 1.54017e-11)
(-1.66157e-07 -4.49558e-08 1.2834e-21 1.66143e-07 4.39523e-22 1.36546e-11)
(-1.62347e-07 -3.951e-08 8.529e-21 1.62333e-07 8.88445e-22 1.42722e-11)
(-1.58196e-07 -3.44088e-08 -5.01585e-21 1.58183e-07 -7.18135e-22 1.31097e-11)
(-1.53761e-07 -2.95213e-08 -1.44636e-20 1.53748e-07 -1.56098e-21 1.3526e-11)
(-1.49105e-07 -2.47439e-08 -3.20103e-22 1.49093e-07 3.4584e-23 1.23585e-11)
(-1.44262e-07 -2.00863e-08 8.57776e-24 1.44252e-07 -5.97684e-24 1.06579e-11)
(-1.3923e-07 -1.56946e-08 3.32706e-22 1.39219e-07 6.14835e-23 1.08445e-11)
(-1.33985e-07 -1.18168e-08 -3.16848e-23 1.33975e-07 -2.44486e-22 9.64652e-12)
(-1.28497e-07 -8.69969e-09 -4.15147e-20 1.28488e-07 -4.59939e-21 8.78297e-12)
(-1.22775e-07 -6.46313e-09 1.47773e-20 1.22768e-07 2.08945e-21 7.06902e-12)
(-1.16871e-07 -5.04088e-09 3.45143e-20 1.16864e-07 4.12871e-21 7.38109e-12)
(-1.10883e-07 -4.21551e-09 5.13542e-20 1.10872e-07 5.75095e-21 1.10713e-11)
(-1.04955e-07 -3.73132e-09 -1.16989e-22 1.04972e-07 -3.86216e-22 -1.71512e-11)
(-9.90096e-08 -3.46577e-09 -3.08736e-20 9.89575e-08 -3.63416e-21 5.21712e-11)
(-9.32588e-08 -3.50917e-09 -1.07676e-20 9.32855e-08 -1.20988e-21 -2.66646e-11)
(-8.8299e-08 -4.0453e-09 -1.99263e-20 8.83131e-08 -2.13606e-21 -1.40317e-11)
(-8.42467e-08 -3.9658e-09 3.10894e-20 8.42029e-08 3.72402e-21 4.37966e-11)
(-8.02762e-08 -3.5762e-09 -9.68158e-21 8.02967e-08 -1.14483e-21 -2.04588e-11)
(-7.61042e-08 -3.72033e-09 3.72501e-20 7.60711e-08 4.79474e-21 3.31191e-11)
(-7.18405e-08 -5.38609e-09 1.01951e-19 7.19679e-08 1.21855e-20 -1.27412e-10)
(-6.60667e-08 -9.83516e-09 4.64687e-20 6.56098e-08 5.28965e-21 4.56884e-10)
(-6.13583e-08 -1.92293e-08 1.64643e-22 6.27317e-08 -9.17418e-23 -1.37341e-09)
(-4.94056e-08 -2.61524e-08 -0 4.57312e-08 3.3139e-23 3.67442e-09)
(-5.72327e-08 -3.24649e-08 1.26428e-20 6.62561e-08 1.53445e-21 -9.02337e-09)
(-2.91966e-08 1.85134e-09 4.08872e-22 8.45279e-09 1.92853e-22 2.07438e-08)
(-1.09624e-07 2.41697e-08 8.69499e-20 1.53861e-07 1.05605e-20 -4.42371e-08)
(1.27268e-08 1.00211e-07 4.94238e-20 -9.15777e-08 6.25438e-21 7.88509e-08)
(-1.98633e-07 5.49239e-08 4.85305e-24 3.12571e-07 -4.41469e-23 -1.13939e-07)
(-1.37361e-07 -1.33214e-07 1.24324e-21 1.62946e-07 1.45448e-22 -2.55851e-08)
(-1.07898e-07 -1.46266e-07 1.32276e-21 1.06098e-07 1.08623e-22 1.7999e-09)
(-1.00429e-07 -1.45148e-07 -6.86675e-23 9.15936e-08 -5.31448e-23 8.83504e-09)
(-1.11524e-07 -1.53488e-07 -1.02996e-21 1.13651e-07 -9.94146e-23 -2.12697e-09)
(-1.08556e-07 -1.58773e-07 1.22153e-22 1.07783e-07 4.18891e-23 7.72921e-10)
(-1.09427e-07 -1.63808e-07 4.12242e-22 1.09759e-07 4.43532e-23 -3.3206e-10)
(-1.08978e-07 -1.68444e-07 -5.32228e-24 1.08953e-07 -1.1082e-23 2.44308e-11)
(-1.09122e-07 -1.72785e-07 1.51141e-24 1.092e-07 -2.94679e-24 -7.80199e-11)
(-1.09283e-07 -1.76712e-07 -5.42617e-25 1.09362e-07 7.34166e-25 -7.81464e-11)
(-1.09561e-07 -1.80285e-07 -5.26194e-24 1.09634e-07 -3.36491e-24 -7.28302e-11)
(-1.09928e-07 -1.83414e-07 -0 1.09965e-07 2.55684e-24 -3.67891e-11)
(-1.10498e-07 -1.86128e-07 -8.38612e-24 1.10581e-07 -8.27118e-24 -8.23986e-11)
(-1.11136e-07 -1.88437e-07 5.30688e-25 1.11208e-07 -1.69819e-24 -7.191e-11)
(-1.11907e-07 -1.90311e-07 1.42275e-24 1.11977e-07 2.91587e-23 -7.04251e-11)
(-1.128e-07 -1.91777e-07 1.16075e-21 1.1287e-07 8.95557e-23 -6.97576e-11)
(-1.13823e-07 -1.92816e-07 -9.67008e-22 1.139e-07 -1.22098e-22 -7.74613e-11)
(-1.14925e-07 -1.93472e-07 9.49524e-24 1.14974e-07 2.99689e-23 -4.84643e-11)
(-1.16217e-07 -1.93709e-07 -1.02569e-23 1.1631e-07 5.88723e-24 -9.32578e-11)
(-1.17552e-07 -1.93607e-07 -9.26619e-24 1.17624e-07 1.64852e-23 -7.24721e-11)
(-1.19003e-07 -1.93109e-07 1.46757e-21 1.19067e-07 1.65874e-22 -6.31986e-11)
(-1.20566e-07 -1.92286e-07 7.92077e-22 1.20634e-07 4.61599e-23 -6.73297e-11)
(-1.22229e-07 -1.91124e-07 2.49764e-23 1.22309e-07 -9.1467e-24 -7.99308e-11)
(-1.2396e-07 -1.89669e-07 -8.35884e-25 1.24036e-07 3.44868e-24 -7.64945e-11)
(-1.25753e-07 -1.87914e-07 9.3852e-24 1.25813e-07 2.28296e-24 -5.97551e-11)
(-1.27643e-07 -1.85881e-07 6.89523e-24 1.27716e-07 -7.50955e-23 -7.30288e-11)
(-1.29576e-07 -1.83608e-07 -4.66975e-21 1.29648e-07 -4.62198e-22 -7.18438e-11)
(-1.31555e-07 -1.81083e-07 5.89228e-22 1.31624e-07 1.38466e-22 -6.90173e-11)
(-1.33571e-07 -1.78334e-07 -6.41112e-24 1.33636e-07 -1.29466e-23 -6.50638e-11)
(-1.35617e-07 -1.75366e-07 -6.22091e-23 1.35682e-07 -2.18844e-23 -6.515e-11)
(-1.37677e-07 -1.72191e-07 -8.61096e-22 1.37741e-07 -9.14067e-23 -6.41992e-11)
(-1.39738e-07 -1.68818e-07 3.00096e-24 1.398e-07 1.86265e-24 -6.19499e-11)
(-1.41791e-07 -1.65257e-07 2.30725e-23 1.41854e-07 6.25174e-23 -6.28466e-11)
(-1.4381e-07 -1.61514e-07 3.39425e-21 1.43865e-07 3.49647e-22 -5.46868e-11)
(-1.45798e-07 -1.57585e-07 5.51986e-24 1.45851e-07 -3.74266e-23 -5.34796e-11)
(-1.47732e-07 -1.53484e-07 3.06457e-23 1.47786e-07 -2.81477e-23 -5.42149e-11)
(-1.49589e-07 -1.49213e-07 -3.05904e-21 1.49638e-07 -2.26951e-22 -4.90343e-11)
(-1.51361e-07 -1.44768e-07 5.56005e-21 1.51406e-07 5.55842e-22 -4.53138e-11)
(-1.5303e-07 -1.40152e-07 -3.62846e-21 1.53072e-07 -4.46046e-22 -4.27744e-11)
(-1.54579e-07 -1.3536e-07 -2.23644e-24 1.54621e-07 9.93275e-23 -4.21976e-11)
(-1.55984e-07 -1.30395e-07 4.25914e-21 1.56019e-07 4.81148e-22 -3.56107e-11)
(-1.57238e-07 -1.25247e-07 3.78791e-21 1.57273e-07 3.28598e-22 -3.43579e-11)
(-1.58321e-07 -1.1992e-07 2.33534e-23 1.58355e-07 -3.69689e-23 -3.37097e-11)
(-1.5921e-07 -1.14395e-07 1.71799e-23 1.59237e-07 -3.75199e-23 -2.70748e-11)
(-1.59903e-07 -1.08678e-07 -2.82934e-21 1.59932e-07 -4.27288e-22 -2.83842e-11)
(-1.60373e-07 -1.02776e-07 -1.24999e-20 1.60399e-07 -1.25925e-21 -2.57239e-11)
(-1.60606e-07 -9.66815e-08 2.4764e-24 1.60626e-07 1.19278e-22 -2.01548e-11)
(-1.6059e-07 -9.04376e-08 1.55142e-23 1.6061e-07 2.62161e-23 -2.02974e-11)
(-1.603e-07 -8.40746e-08 -7.29459e-23 1.60318e-07 -5.25364e-23 -1.79161e-11)
(-1.59713e-07 -7.76663e-08 -4.70226e-21 1.59728e-07 -5.10748e-22 -1.52528e-11)
(-1.58804e-07 -7.12997e-08 -2.95489e-22 1.58818e-07 2.40178e-23 -1.37841e-11)
(-1.57545e-07 -6.50852e-08 -1.73596e-22 1.57556e-07 5.2381e-23 -1.12108e-11)
(-1.55908e-07 -5.91268e-08 1.03513e-20 1.55918e-07 1.07041e-21 -9.2839e-12)
(-1.53879e-07 -5.35162e-08 -3.95605e-21 1.53887e-07 -5.16762e-22 -7.90802e-12)
(-1.51456e-07 -4.82862e-08 -1.46955e-23 1.51463e-07 -4.13198e-23 -7.2558e-12)
(-1.48657e-07 -4.33892e-08 -8.06262e-21 1.48662e-07 -7.85066e-22 -4.45184e-12)
(-1.45531e-07 -3.87318e-08 1.0295e-20 1.45535e-07 1.29098e-21 -4.42648e-12)
(-1.42128e-07 -3.41833e-08 1.36235e-20 1.42131e-07 1.65485e-21 -3.1662e-12)
(-1.38495e-07 -2.96598e-08 3.70728e-20 1.38497e-07 3.99719e-21 -2.02864e-12)
(-1.34654e-07 -2.52029e-08 -1.02795e-22 1.34656e-07 -4.59457e-22 -1.96584e-12)
(-1.30592e-07 -2.09808e-08 -3.30692e-20 1.30593e-07 -3.6485e-21 -6.96366e-13)
(-1.26277e-07 -1.72448e-08 8.77631e-21 1.26278e-07 1.18539e-21 -7.13737e-13)
(-1.21679e-07 -1.4232e-08 -3.46245e-22 1.2168e-07 -2.13471e-22 -4.80036e-13)
(-1.16808e-07 -1.20387e-08 -1.85526e-20 1.16807e-07 -2.33794e-21 4.96233e-13)
(-1.11723e-07 -1.05684e-08 -4.77608e-20 1.11723e-07 -5.53186e-21 6.52551e-13)
(-1.06516e-07 -9.62326e-09 -4.39647e-20 1.06512e-07 -4.71644e-21 4.69126e-12)
(-1.01323e-07 -8.94326e-09 2.42346e-20 1.01343e-07 2.97965e-21 -1.96168e-11)
(-9.60552e-08 -8.47499e-09 -1.9705e-21 9.60067e-08 -3.02285e-22 4.84807e-11)
(-9.09279e-08 -8.29939e-09 1.02393e-20 9.09586e-08 1.17953e-21 -3.06517e-11)
(-8.64817e-08 -8.54463e-09 -2.87235e-21 8.64948e-08 -3.75833e-22 -1.31669e-11)
(-8.28507e-08 -8.16951e-09 1.15364e-22 8.28076e-08 3.34162e-23 4.31129e-11)
(-7.92781e-08 -7.55334e-09 2.39423e-23 7.92985e-08 -1.48389e-22 -2.038e-11)
(-7.54793e-08 -7.54533e-09 -4.23621e-20 7.54542e-08 -5.17096e-21 2.50899e-11)
(-7.14802e-08 -9.17868e-09 -4.01514e-20 7.1583e-08 -4.65325e-21 -1.02775e-10)
(-6.60107e-08 -1.37781e-08 2.19781e-22 6.56208e-08 1.46897e-22 3.89948e-10)
(-6.12512e-08 -2.31242e-08 1.86436e-23 6.24655e-08 5.98202e-24 -1.21433e-09)
(-5.01693e-08 -2.94821e-08 -0 4.68195e-08 -1.75032e-23 3.34981e-09)
(-5.74746e-08 -3.42286e-08 -1.24317e-20 6.59151e-08 -1.53532e-21 -8.4405e-09)
(-3.20934e-08 2.93449e-09 1.56035e-22 1.21598e-08 -5.78171e-23 1.99336e-08)
(-1.10478e-07 2.46257e-08 -5.22388e-20 1.54014e-07 -6.35395e-21 -4.3536e-08)
(1.08411e-08 1.01994e-07 -4.69111e-20 -8.96955e-08 -5.95585e-21 7.88544e-08)
(-1.99116e-07 4.56751e-08 6.36899e-22 3.14017e-07 1.61125e-22 -1.14901e-07)
(-1.11785e-07 -1.21755e-07 -1.15988e-21 1.3282e-07 -1.17792e-22 -2.10347e-08)
(-8.91594e-08 -1.35719e-07 2.5324e-24 8.72355e-08 3.07881e-23 1.92397e-09)
(-8.35936e-08 -1.34413e-07 -3.00019e-25 7.62503e-08 2.41209e-23 7.34329e-09)
(-9.24272e-08 -1.4029e-07 9.81676e-22 9.40274e-08 9.33103e-23 -1.6002e-09)
(-8.99123e-08 -1.43868e-07 -1.15426e-22 8.91685e-08 -3.80491e-23 7.43857e-10)
(-9.0729e-08 -1.47665e-07 -3.91707e-22 9.08745e-08 -3.14478e-23 -1.45499e-10)
(-9.04884e-08 -1.51143e-07 -1.25984e-24 9.03537e-08 5.51163e-24 1.34764e-10)
(-9.07043e-08 -1.54375e-07 -8.58127e-26 9.06542e-08 4.42127e-24 5.01289e-11)
(-9.09036e-08 -1.57301e-07 3.9467e-22 9.08269e-08 8.30441e-23 7.67066e-11)
(-9.12409e-08 -1.59931e-07 2.38463e-21 9.11786e-08 2.30549e-22 6.23373e-11)
(-9.1636e-08 -1.62252e-07 -0 9.15483e-08 -1.57433e-23 8.76592e-11)
(-9.21801e-08 -1.64255e-07 1.28533e-21 9.21151e-08 9.09525e-23 6.50013e-11)
(-9.27999e-08 -1.65945e-07 -1.85518e-21 9.27314e-08 -2.35063e-22 6.8471e-11)
(-9.35174e-08 -1.67316e-07 -1.49034e-21 9.34418e-08 -7.60762e-23 7.55777e-11)
(-9.43487e-08 -1.68367e-07 2.31495e-21 9.42776e-08 2.70329e-22 7.10454e-11)
(-9.52849e-08 -1.6911e-07 9.29024e-22 9.5223e-08 5.21006e-23 6.1887e-11)
(-9.62876e-08 -1.69555e-07 1.97304e-24 9.62024e-08 4.95313e-23 8.517e-11)
(-9.74355e-08 -1.69692e-07 3.39519e-21 9.73761e-08 3.93345e-22 5.94488e-11)
(-9.86468e-08 -1.69556e-07 2.74183e-21 9.85821e-08 1.91402e-22 6.47278e-11)