/*--------------------------------*- C++ -*----------------------------------*\
| =========                 |                                                 |
| \\      /  F ield         | OpenFOAM: The Open Source CFD Toolbox           |
|  \\    /   O peration     | Version:  2306                                  |
|   \\  /    A nd           | Website:  www.openfoam.com                      |
|    \\/     M anipulation  |                                                 |
\*---------------------------------------------------------------------------*/
FoamFile
{
    version     2.0;
    format      ascii;
    arch        "LSB;label=32;scalar=64";
    class       volScalarField;
    location    "125";
    object      div(phi);
}
// * * * * * * * * * * * * * * * * * * * * * * * * * * * * * * * * * * * * * //

dimensions      [0 0 -1 0 0 0 0];

internalField   nonuniform List<scalar> 
1340
(
-0.000567395
-0.000106635
5.2944e-05
5.00508e-05
0.00012744
8.451e-05
0.000133893
8.57522e-05
0.000119286
5.66812e-05
8.11047e-05
-2.3226e-05
-1.16854e-06
-0.000113511
-9.7089e-05
-0.000119692
-0.00011551
-9.47918e-05
-8.24273e-05
-4.24111e-05
-1.37344e-05
-0.000126756
-1.80481e-05
-1.99531e-05
-7.26257e-05
-0.000157635
-0.000277345
-0.000626578
0.000207672
-0.000128192
4.76746e-05
4.80678e-05
9.21081e-05
0.000109937
0.000117683
0.000147972
0.000117279
0.000134644
7.94578e-05
7.8872e-05
-7.2778e-06
-1.51424e-05
-9.2241e-05
-6.89723e-05
-4.07693e-05
-3.11899e-06
-1.74168e-05
-9.50606e-05
-0.00016213
-0.000231258
-0.000378284
-0.000130515
-0.000229149
-0.000281101
-0.00034943
-0.000378947
-0.000606285
-0.000312472
0.000230652
0.000157686
0.000114026
0.000118214
8.74933e-05
0.000128991
9.26834e-05
0.000120512
7.24705e-05
7.36558e-05
2.81512e-05
-6.42326e-06
-3.82534e-05
-9.60682e-05
-0.000104961
-0.000143148
-0.000140276
-0.000135459
-9.33165e-05
-1.36602e-05
1.63992e-05
-5.95294e-06
-6.61847e-06
1.45059e-05
2.83789e-05
-9.19639e-05
-0.000223909
-0.000580629
-0.00036918
0.000417457
0.000215097
0.000153667
0.000142769
0.000100901
0.000111519
0.000123377
0.000119857
0.000129813
9.12165e-05
7.8499e-05
1.43793e-05
-1.42479e-05
-7.8854e-05
-0.000103566
-0.000113961
-7.96141e-05
-4.37105e-05
-2.998e-05
-7.00187e-05
-0.00011707
-0.000192567
-0.000294746
-0.000180484
-0.000268274
-0.000295515
-0.000385103
-0.000413784
-0.000663746
0.00023913
0.000142324
0.000235954
0.000191989
0.000123874
9.49085e-05
0.000107901
9.41378e-05
0.000133162
9.45106e-05
0.000109181
5.17546e-05
4.6521e-05
-4.92007e-06
-2.21782e-05
-6.96696e-05
-8.21214e-05
-0.000117297
-0.000124206
-0.000128956
-9.13171e-05
-2.32253e-05
3.85989e-05
2.6419e-05
-4.58657e-06
5.74899e-05
8.8468e-05
-2.78313e-05
-0.000167382
-0.000526694
0.000165834
0.000119051
0.000264164
0.000193626
0.000173745
0.000118502
0.000101961
9.02724e-05
0.000110476
0.000116851
0.000118301
9.64954e-05
5.06036e-05
2.00205e-05
-3.52341e-05
-7.49725e-05
-0.000109735
-0.000117714
-9.54959e-05
-6.26674e-05
-3.30155e-05
-3.7909e-05
-5.9419e-05
-0.000109915
-0.000180682
-0.000159201
-0.000229446
-0.00027353
-0.000348991
-0.00039647
-0.000614479
0.00025732
0.000164849
0.000159762
0.000216389
0.000141298
0.000105429
7.60234e-05
7.26308e-05
0.000103785
0.000102562
0.000122871
7.93621e-05
7.31832e-05
3.00337e-05
2.74152e-05
-2.19527e-05
-2.48925e-05
-6.74044e-05
-7.0156e-05
-0.000101698
-9.69632e-05
-8.60993e-05
-2.92362e-05
2.76248e-05
2.44233e-05
1.35154e-05
5.82424e-05
0.000128768
1.33624e-05
-0.000117007
-0.000418841
0.000201702
0.000216802
0.00017309
0.000177803
0.000133083
9.96359e-05
6.82579e-05
7.64604e-05
8.41212e-05
0.000116549
0.000105254
8.58601e-05
4.98195e-05
2.27111e-05
-2.12166e-05
-5.44456e-05
-9.20727e-05
-0.000100021
-9.29475e-05
-6.66425e-05
-3.62298e-05
-2.07549e-05
-1.83017e-05
-4.05226e-05
-8.28371e-05
-0.000100096
-0.000160417
-0.000217925
-0.000301822
-0.000364423
-0.000547506
6.72232e-05
0.000408855
0.000170856
0.000142824
0.000106717
0.000126906
7.14193e-05
5.38028e-05
6.00499e-05
8.10389e-05
0.000105257
9.33849e-05
8.08451e-05
5.1014e-05
5.1214e-05
1.92264e-05
1.44404e-05
-2.11279e-05
-2.59128e-05
-5.22706e-05
-6.10601e-05
-7.55519e-05
-6.74003e-05
-3.79217e-05
8.43088e-06
4.45028e-06
2.50382e-06
6.33601e-05
0.000117616
4.68548e-05
-8.58478e-05
-0.00032679
0.000247278
9.64315e-05
0.000103077
0.000277333
5.42474e-05
5.57062e-05
5.08449e-05
5.03387e-05
8.46535e-05
9.15099e-05
9.50755e-05
6.55804e-05
5.9349e-05
2.77485e-05
1.48688e-05
-3.28065e-05
-5.19272e-05
-7.92145e-05
-7.25097e-05
-6.53872e-05
-3.85958e-05
-1.93304e-05
-5.16151e-06
-2.92741e-06
-2.37015e-05
-3.93793e-05
-8.39617e-05
-0.00014877
-0.000234421
-0.00032942
-0.000485968
0.000274415
0.000218802
0.000117824
5.55375e-05
1.17315e-05
2.42625e-05
4.89706e-05
6.9051e-05
8.53747e-05
7.36951e-05
6.17421e-05
5.39647e-05
4.75326e-05
3.95314e-05
1.74875e-05
3.19287e-06
-1.60449e-05
-2.37978e-05
-4.31924e-05
-4.91581e-05
-5.60957e-05
-3.86479e-05
-1.05543e-05
-1.79659e-05
-1.17987e-06
3.8249e-05
0.000112086
3.59529e-05
-5.63078e-05
-0.000253084
0.000271803
0.000151331
1.47478e-06
-2.00968e-05
1.08761e-05
4.24126e-05
6.30771e-05
7.79224e-05
6.43144e-05
6.56072e-05
5.01523e-05
5.96455e-05
2.58977e-05
9.89211e-06
-3.08347e-05
-4.22151e-05
-5.91651e-05
-5.33779e-05
-4.39873e-05
-2.67873e-05
-1.04249e-05
6.86564e-07
4.8745e-07
-3.1546e-06
-2.55515e-05
-7.72372e-05
-0.000163632
-0.000272467
-0.000425268
0.000190843
-3.74488e-05
-1.3204e-05
1.79147e-05
3.63753e-05
6.19284e-05
5.77916e-05
6.0716e-05
4.80493e-05
5.97099e-05
5.22481e-05
4.79728e-05
2.35048e-05
1.12051e-05
-4.69701e-06
-1.34784e-05
-2.70662e-05
-3.64227e-05
-4.40336e-05
-3.75638e-05
-2.22207e-05
-2.82931e-05
-1.15448e-05
2.43641e-05
7.43574e-05
2.6862e-05
-6.02885e-05
-0.000184885
6.39224e-05
-1.42122e-05
1.57382e-05
3.58785e-05
5.40719e-05
5.41202e-05
5.50417e-05
4.99717e-05
6.74102e-05
5.67251e-05
5.08323e-05
1.70222e-05
1.19812e-06
-2.77878e-05
-3.65038e-05
-4.86115e-05
-4.31348e-05
-3.78226e-05
-2.44356e-05
-1.20601e-05
-3.93539e-06
6.70019e-06
1.91168e-06
-2.42326e-05
-9.57739e-05
-0.000206355
-0.000358784
1.86536e-05
1.52879e-05
4.08203e-05
4.12205e-05
5.21868e-05
4.00659e-05
5.81693e-05
5.27939e-05
6.34698e-05
3.82849e-05
3.07549e-05
8.60258e-06
2.12981e-06
-1.08218e-05
-1.8803e-05
-2.87163e-05
-3.58796e-05
-3.29993e-05
-2.73319e-05
-2.87146e-05
-1.64528e-05
9.64066e-06
4.36679e-05
8.36174e-06
-7.79287e-05
-0.000147273
2.74479e-05
2.63214e-05
2.84899e-05
3.89366e-05
4.23823e-05
4.22146e-05
5.47733e-05
5.82103e-05
5.97794e-05
4.05194e-05
2.99302e-05
3.77431e-06
-8.08443e-06
-2.97228e-05
-3.62537e-05
-4.50325e-05
-4.30121e-05
-3.82986e-05
-2.93716e-05
-1.82028e-05
-3.79675e-06
4.94481e-06
2.09488e-06
-4.65417e-05
-0.000140362
-0.000286224
2.20537e-05
2.13818e-05
3.83431e-05
3.05061e-05
4.81391e-05
4.3301e-05
6.11349e-05
4.20461e-05
4.12247e-05
1.80226e-05
1.2518e-05
-2.73572e-06
-7.2006e-06
-1.73623e-05
-2.24928e-05
-2.91655e-05
-2.83129e-05
-2.40409e-05
-2.58534e-05
-1.46916e-05
-2.3092e-07
2.07065e-05
-7.61987e-06
-9.13098e-05
-0.000122822
3.16146e-05
3.9184e-05
7.94091e-06
2.7706e-05
3.81397e-05
4.60435e-05
4.84109e-05
4.05894e-05
3.53572e-05
1.87139e-05
1.08755e-05
-7.90151e-06
-1.72818e-05
-3.24184e-05
-4.07268e-05
-4.59465e-05
-4.58315e-05
-4.15307e-05
-3.31535e-05
-1.92389e-05
-5.37227e-06
4.61983e-06
-2.03778e-05
-8.7767e-05
-0.000218419
5.77587e-06
2.06229e-05
2.05483e-05
2.56026e-05
4.57694e-05
3.28925e-05
3.94951e-05
2.02081e-05
1.89815e-05
2.41943e-06
-4.76399e-07
-1.08774e-05
-1.33824e-05
-2.2206e-05
-2.28774e-05
-2.32991e-05
-1.97075e-05
-1.87232e-05
-1.2638e-05
-2.54277e-06
7.031e-06
-1.94276e-05
-8.5141e-05
-0.000129658
5.32909e-05
-1.17906e-05
1.09655e-05
2.6436e-05
3.02922e-05
3.01343e-05
2.66814e-05
1.90601e-05
1.47704e-05
3.55961e-06
-2.66141e-06
-1.51446e-05
-2.82264e-05
-3.83973e-05
-4.46318e-05
-4.75129e-05
-4.6144e-05
-4.15626e-05
-3.10438e-05
-1.82539e-05
-3.95084e-06
-1.50912e-05
-5.84218e-05
-0.000164232
-5.59796e-06
1.85e-05
6.21873e-06
2.73223e-05
1.7782e-05
2.83887e-05
1.4248e-05
1.84628e-05
4.1591e-06
3.48145e-06
-7.01141e-06
-1.00244e-05
-1.90857e-05
-1.99969e-05
-2.11881e-05
-1.88188e-05
-1.47808e-05
-1.34839e-05
-7.67487e-06
-3.55398e-06
1.07895e-06
-2.12696e-05
-7.76303e-05
-0.000129279
-3.94596e-07
1.81903e-05
1.33799e-05
2.01619e-05
1.5723e-05
1.37792e-05
9.43144e-06
4.93253e-06
1.83856e-06
-4.91347e-06
-1.68837e-05
-2.7431e-05
-3.68024e-05
-4.07668e-05
-4.34318e-05
-4.39651e-05
-4.20476e-05
-3.60739e-05
-2.67777e-05
-1.49638e-05
-2.01387e-05
-4.88846e-05
-0.000121085
1.54313e-05
9.74088e-06
1.01697e-05
1.77818e-05
5.98354e-06
1.38186e-05
3.03606e-06
5.17194e-06
-3.70644e-06
-8.87535e-06
-1.83174e-05
-2.17394e-05
-2.2345e-05
-1.93171e-05
-1.54461e-05
-1.12356e-05
-8.88633e-06
-4.8889e-06
-3.60157e-06
-3.3999e-07
-2.41219e-05
-5.93538e-05
-0.000115013
1.53386e-05
8.88227e-06
2.74347e-06
2.27149e-05
6.49316e-07
5.07402e-06
1.61988e-06
-1.69571e-06
-1.07933e-05
-1.90025e-05
-2.9842e-05
-3.27226e-05
-3.46856e-05
-3.56538e-05
-3.68527e-05
-3.69923e-05
-3.47981e-05
-2.95641e-05
-2.31847e-05
-2.71166e-05
-4.80354e-05
-9.50354e-05
1.30074e-06
6.11939e-06
3.3285e-05
7.78647e-06
6.9733e-06
-1.58546e-06
-4.05824e-07
-6.07657e-06
-1.53856e-05
-2.39253e-05
-2.54827e-05
-2.2805e-05
-1.70223e-05
-1.25729e-05
-8.73704e-06
-6.54739e-06
-3.84337e-06
-3.80789e-06
-3.19718e-06
-2.26435e-05
-4.775e-05
-9.88918e-05
2.03677e-05
3.31266e-05
2.25729e-05
2.46392e-05
-6.90638e-06
3.14519e-06
-8.39164e-06
-1.03779e-05
-1.50381e-05
-2.37722e-05
-2.6586e-05
-2.73566e-05
-2.57322e-05
-2.62344e-05
-2.78496e-05
-2.92282e-05
-2.97087e-05
-2.81207e-05
-2.66949e-05
-3.09717e-05
-5.16216e-05
-7.2876e-05
1.68109e-05
6.33314e-05
-6.18359e-06
2.74602e-05
-2.71435e-05
-1.23017e-05
-1.96893e-05
-2.49898e-05
-2.58367e-05
-2.55709e-05
-1.88058e-05
-1.37195e-05
-9.8591e-06
-7.26194e-06
-5.58427e-06
-4.2766e-06
-4.96376e-06
-6.06752e-06
-2.09105e-05
-4.17918e-05
-7.30619e-05
0.000120326
-2.65559e-06
6.49407e-05
-3.86281e-05
-1.37174e-05
-3.15881e-05
-3.18298e-05
-2.58669e-05
-2.22073e-05
-2.10078e-05
-1.74378e-05
-1.65627e-05
-1.69919e-05
-1.90799e-05
-2.12028e-05
-2.33651e-05
-2.4248e-05
-2.58181e-05
-3.19561e-05
-4.90176e-05
-5.78964e-05
-1.02897e-05
7.37399e-05
-1.09168e-06
-1.38038e-05
-2.42716e-05
-5.02153e-05
-3.25757e-05
-2.31054e-05
-2.3136e-05
-1.69161e-05
-1.27074e-05
-9.02745e-06
-7.24381e-06
-6.00015e-06
-5.48232e-06
-5.07776e-06
-6.31063e-06
-7.90741e-06
-1.93348e-05
-3.51116e-05
-5.36801e-05
6.61297e-05
-1.71037e-05
8.26843e-06
-5.9288e-05
-3.31841e-05
-2.16608e-05
-1.97515e-05
-1.53293e-05
-9.99251e-06
-8.47416e-06
-8.086e-06
-9.25669e-06
-1.21277e-05
-1.41e-05
-1.77702e-05
-1.87662e-05
-2.3318e-05
-2.78563e-05
-4.52682e-05
-4.41635e-05
-2.68456e-05
3.56311e-05
-3.32533e-05
-2.44384e-05
-1.64622e-05
-1.80476e-05
-1.82128e-05
-1.21928e-05
-9.31063e-06
-5.29365e-06
-4.5418e-06
-4.44361e-06
-4.92503e-06
-4.89965e-06
-5.92919e-06
-6.05231e-06
-9.33949e-06
-1.51119e-05
-3.04498e-05
-3.60823e-05
-1.12749e-05
-7.40627e-06
-1.49538e-05
-9.19539e-06
-2.26662e-05
-6.08736e-06
-1.34624e-05
-5.85394e-06
-2.47854e-06
-1.87835e-06
-4.79042e-06
-5.96937e-06
-1.00213e-05
-1.12881e-05
-1.52489e-05
-1.70879e-05
-2.47479e-05
-3.59344e-05
-3.49283e-05
1.98003e-05
-1.94222e-05
1.24162e-05
-2.52492e-05
6.41984e-06
-1.95e-05
-1.25204e-05
-5.4065e-06
-1.98748e-06
-1.89446e-06
-2.04486e-06
-3.78046e-06
-4.01117e-06
-5.44552e-06
-5.51158e-06
-7.9759e-06
-1.17121e-05
-2.24544e-05
-2.46259e-05
-3.73238e-05
2.76767e-05
-1.44085e-05
1.10282e-05
-1.48502e-05
-1.35666e-05
-6.32134e-06
-7.62804e-06
-1.34058e-06
-4.39794e-07
-9.45634e-07
-3.54181e-06
-5.30295e-06
-7.97e-06
-9.78425e-06
-1.29048e-05
-1.819e-05
-3.05117e-05
-2.37528e-05
-1.8797e-05
7.60039e-06
-5.4571e-06
-3.30562e-06
-7.98637e-06
-1.69708e-05
-7.97601e-06
-2.9205e-06
-1.0672e-07
-1.70072e-06
-1.72262e-06
-3.71175e-06
-3.50513e-06
-5.09246e-06
-5.07416e-06
-1.02518e-05
-1.55041e-05
-1.3514e-05
1.94698e-05
-7.56304e-06
1.27687e-05
-1.07521e-05
-1.83327e-05
-1.27264e-05
-8.96846e-06
-1.98234e-06
1.99806e-07
2.12768e-07
-1.37959e-06
-2.95185e-06
-4.65391e-06
-6.18297e-06
-8.33641e-06
-1.53699e-05
-1.98903e-05
-1.90704e-05
-2.99483e-05
2.46387e-05
-4.40612e-06
-9.04123e-06
-9.75135e-06
-1.71232e-05
-5.62934e-06
1.05494e-07
2.23768e-07
2.1133e-07
-1.48346e-06
-2.14033e-06
-3.40175e-06
-3.21517e-06
-5.56241e-06
-7.38458e-06
-1.29218e-05
-1.50712e-06
-8.10728e-06
2.75619e-06
-3.3713e-06
-1.8607e-05
-6.31118e-06
2.50475e-06
1.44477e-06
1.76807e-06
8.45361e-07
-6.11806e-07
-2.03432e-06
-2.9494e-06
-4.13225e-06
-6.35532e-06
-1.13604e-05
-1.24458e-05
-2.312e-05
1.633e-05
-1.4472e-06
-9.70114e-06
-5.77457e-06
6.3206e-06
2.10946e-06
1.88203e-06
8.99611e-07
-7.66836e-07
-1.86094e-06
-2.97127e-06
-3.10649e-06
-3.94041e-06
-4.93463e-06
-7.77977e-06
-1.0262e-05
-1.66321e-05
4.34041e-06
-3.90128e-06
8.87753e-06
1.53831e-06
3.1667e-06
8.83276e-07
-2.89355e-06
-2.55028e-06
-2.46594e-06
-2.87099e-06
-3.16644e-06
-3.36339e-06
-5.53158e-06
-8.45479e-06
-1.20168e-05
-7.83474e-06
1.11917e-05
-5.86016e-07
4.81072e-06
9.81095e-07
-8.95294e-06
-4.50415e-06
-2.96763e-06
-4.17852e-06
-3.8702e-06
-3.75102e-06
-3.91145e-06
-5.70937e-06
-6.92998e-06
-6.86349e-06
2.24861e-05
-2.86244e-06
4.14953e-06
-2.08922e-07
-1.47917e-05
-4.43236e-06
-9.99292e-07
-4.4486e-06
-3.57006e-06
-3.81028e-06
-2.97769e-06
-3.12062e-06
-4.96182e-06
-6.50696e-06
-7.70648e-06
-1.66762e-05
7.40856e-06
8.71708e-07
-1.56351e-05
-2.33855e-06
4.21687e-06
-3.37591e-06
-1.61457e-06
-4.93327e-06
-3.39884e-06
-2.89292e-06
-3.51028e-06
-4.64604e-06
-6.49952e-06
-4.3906e-06
-6.03588e-06
-1.27552e-05
-2.07928e-06
8.1157e-06
-1.57356e-06
2.80091e-06
-5.53343e-06
-1.71757e-06
-3.37103e-06
-2.07791e-06
-2.0591e-06
-3.70863e-06
-5.1398e-06
-4.34877e-06
-5.77763e-07
-2.98649e-06
8.35521e-06
-3.97196e-07
6.91358e-06
-4.60112e-06
2.4473e-06
-4.3439e-06
-1.9002e-06
-2.05184e-06
-2.17345e-06
-4.27039e-06
-4.33382e-06
-3.58604e-06
-1.39827e-05
8.94203e-06
-7.14015e-10
7.54722e-06
-3.35397e-06
5.81579e-06
-4.47082e-06
-6.12303e-07
-2.84915e-06
-3.31499e-06
-2.60289e-06
-3.29098e-06
-3.54862e-06
-3.21806e-06
-9.32341e-06
4.74847e-06
-3.44581e-06
5.71477e-06
-3.6416e-06
1.87905e-06
-2.60686e-06
-7.66949e-06
-2.68084e-06
-2.33699e-06
-2.86236e-06
-4.08878e-06
-1.84302e-06
8.8967e-06
-2.85117e-06
2.27467e-06
-2.8699e-06
2.78515e-06
-1.87652e-06
-1.18821e-05
-2.76697e-06
1.53008e-07
-1.46933e-06
-2.34798e-06
-2.81814e-06
-1.45081e-06
3.865e-06
-1.72136e-06
-8.73195e-07
1.55503e-06
-9.55854e-07
-1.3204e-05
-1.57596e-06
4.08079e-06
4.81763e-07
7.30419e-07
-2.97857e-06
-1.2495e-06
-1.39478e-06
-6.4634e-06
4.6392e-06
1.16858e-06
-1.05121e-07
-1.19177e-05
-1.71567e-06
6.07867e-06
2.1134e-06
3.47458e-06
-1.7896e-06
-3.40516e-07
-1.65567e-06
3.8708e-07
-8.78451e-07
7.44113e-07
-7.74929e-06
-3.14851e-06
4.77773e-06
2.3557e-06
4.88597e-06
3.43169e-07
2.17818e-06
-9.8787e-07
-5.36042e-08
4.30558e-07
-2.33265e-06
-1.94146e-06
-3.58514e-06
3.4314e-06
2.28711e-08
3.51064e-06
1.15351e-06
3.74315e-06
-3.95167e-07
3.68914e-07
-1.54005e-06
5.02241e-07
7.13036e-06
-3.651e-06
5.21511e-06
-3.22504e-06
-1.65769e-08
1.22315e-07
2.59219e-06
3.928e-07
7.50013e-07
-2.05065e-06
-1.25499e-06
-1.32571e-05
9.07646e-06
-1.69597e-06
-2.20291e-06
-6.2681e-07
3.7626e-07
7.35818e-07
-4.2815e-07
-1.38245e-06
-7.84413e-06
1.20463e-06
-3.08871e-06
-9.51414e-07
3.25854e-07
1.07669e-07
3.33365e-07
-1.94548e-06
-8.73976e-07
-1.49213e-05
1.07643e-06
-3.21177e-06
4.33871e-06
1.34465e-06
1.12573e-06
-9.75705e-08
-2.73387e-06
-8.13152e-07
-1.74608e-05
-8.37925e-07
-5.43285e-06
7.28481e-06
-1.15856e-06
9.30282e-07
3.52777e-08
-2.00531e-06
-7.26992e-07
-1.4671e-05
-1.64704e-06
-1.14337e-05
4.2759e-06
-2.72024e-06
4.64014e-06
-8.64893e-07
1.26667e-06
-1.88013e-06
-9.48889e-06
-2.15953e-06
-1.48942e-05
1.57857e-06
-2.87576e-06
6.49434e-06
-8.37075e-06
5.06933e-06
-1.79537e-06
-4.51881e-06
-2.23297e-06
-1.44332e-05
6.17171e-08
-7.92135e-06
4.02056e-06
6.98481e-07
-2.90703e-06
-1.13161e-06
1.14827e-07
-1.13216e-05
5.80914e-07
-1.19714e-05
2.53953e-06
1.37686e-06
4.74928e-06
2.83717e-06
1.91589e-06
-5.95683e-06
1.57529e-06
-1.24003e-05
1.57892e-06
-1.26335e-06
2.98855e-06
6.98582e-06
5.34202e-07
-1.15843e-06
2.26461e-06
-1.03833e-05
2.50397e-06
-8.48008e-06
4.27101e-06
-1.47201e-08
3.4372e-06
2.60652e-06
-5.78405e-06
3.19452e-06
-1.24278e-05
3.9092e-06
-4.38364e-06
9.03986e-06
2.26382e-06
-1.8152e-06
3.56431e-06
-9.52482e-06
4.4135e-06
-7.70829e-06
4.57292e-06
-1.95543e-06
1.13458e-06
4.34919e-06
-3.69627e-06
5.42359e-06
-1.01048e-05
5.25574e-06
-4.56412e-06
8.66464e-06
1.2395e-06
3.42007e-06
-6.36354e-06
5.09734e-06
-6.53453e-06
5.0062e-06
-1.83567e-06
-2.5441e-06
-2.92631e-06
3.26277e-06
-1.02295e-05
6.38567e-06
-4.89476e-06
9.34807e-06
7.86349e-07
1.43068e-06
-7.17562e-06
5.48181e-06
-9.84965e-06
5.69551e-06
-3.41643e-06
-2.76256e-06
-3.05258e-06
2.63319e-06
-1.06882e-05
4.97062e-06
-2.93112e-06
6.90791e-06
1.77197e-08
1.29007e-06
-7.17813e-06
4.41683e-06
-5.09273e-06
4.7847e-06
-1.72143e-06
-2.87636e-06
-3.30245e-06
3.40166e-06
-7.27055e-06
4.50441e-06
-4.85054e-06
8.80784e-06
-2.19261e-07
1.48298e-06
-5.60638e-06
3.48956e-06
-6.25101e-06
6.7921e-06
-3.11637e-06
-2.28717e-06
2.82286e-06
-3.32823e-06
2.27315e-06
-4.12884e-06
1.36623e-06
9.67415e-07
-1.34733e-06
3.45862e-06
-2.0493e-06
2.93371e-06
1.03175e-06
2.63541e-06
7.22217e-08
2.14412e-06
-9.54792e-07
5.03534e-07
-8.06555e-07
1.91164e-06
-1.18908e-06
2.33251e-06
4.49801e-07
1.3843e-06
4.71854e-07
1.82563e-06
7.5607e-07
1.56158e-08
-3.30017e-06
-2.39874e-06
-2.67592e-06
-9.38704e-07
-1.42031e-05
-1.00598e-05
-9.24544e-06
-8.34561e-06
-7.86415e-06
-2.53782e-05
-1.17891e-05
-1.19644e-05
-9.20615e-06
-1.11958e-05
)
;

boundaryField
{
    inlet
    {
        type            extrapolatedCalculated;
        value           nonuniform List<scalar> 5(-2.53782e-05 -1.17891e-05 -1.19644e-05 -9.20615e-06 -1.11958e-05);
    }
    outlet
    {
        type            extrapolatedCalculated;
        value           nonuniform List<scalar> 0();
    }
    walls
    {
        type            extrapolatedCalculated;
        value           nonuniform List<scalar> 
28
(
-0.000567395
-0.000106635
5.2944e-05
5.00508e-05
0.00012744
8.451e-05
0.000133893
8.57522e-05
0.000119286
5.66812e-05
8.11047e-05
-2.3226e-05
-1.16854e-06
-0.000113511
-9.7089e-05
-0.000119692
-0.00011551
-9.47918e-05
-8.24273e-05
-4.24111e-05
-1.37344e-05
-0.000126756
-1.80481e-05
-1.99531e-05
-7.26257e-05
-0.000157635
-0.000277345
-0.000626578
)
;
    }
    frontAndBack
    {
        type            empty;
    }
    procBoundary1to0
    {
        type            processor;
        value           nonuniform List<scalar> 
94
(
0.000589717
0.000589717
0.000330248
0.000330248
0.000146868
0.000146868
0.000219828
0.000219828
0.000120828
0.000120828
-2.11995e-05
-2.11995e-05
3.68235e-05
3.06794e-05
3.06794e-05
1.69792e-05
4.25391e-05
4.25391e-05
1.69193e-05
2.92664e-05
3.99653e-05
3.99653e-05
7.82687e-06
1.02488e-05
1.02488e-05
1.45143e-05
1.54015e-06
3.37033e-05
3.37033e-05
-1.25354e-05
6.62449e-05
7.60805e-05
7.60805e-05
7.08924e-05
6.33826e-05
6.33826e-05
-9.89674e-07
2.92302e-05
3.31807e-05
3.31807e-05
-1.00599e-05
2.46562e-05
3.04104e-05
3.04104e-05
-9.08054e-07
1.99848e-05
2.03608e-05
2.03608e-05
-5.92367e-06
2.61591e-05
2.2701e-05
2.2701e-05
-4.92495e-06
7.12316e-06
1.44366e-05
1.44366e-05
-6.34895e-06
2.93337e-06
1.45743e-05
1.07503e-05
1.07503e-05
4.53403e-06
-4.09973e-06
1.37884e-05
1.39359e-05
1.39359e-05
5.95403e-07
6.6422e-06
-2.82121e-06
7.8099e-06
7.92329e-06
7.92329e-06
-1.30487e-07
4.85e-06
1.35364e-07
4.27567e-06
3.49889e-06
2.57998e-06
2.57998e-06
2.70689e-06
-3.30075e-06
1.72347e-06
-3.42564e-06
1.6603e-06
-3.31496e-06
1.68347e-06
-2.49791e-06
-1.87135e-06
-1.87135e-06
1.48169e-07
8.31817e-07
-4.81926e-06
-5.82231e-06
-1.61059e-05
)
;
    }
    procBoundary1to2
    {
        type            processor;
        value           nonuniform List<scalar> 
84
(
-9.96099e-06
-0.000470429
0.000210556
-0.000495911
0.00035787
-0.000452801
0.000464056
-0.000377267
0.000507811
-0.000310323
0.000502898
-0.000243848
0.000485251
-0.000188089
0.000426807
-0.000132785
0.00038058
-8.2345e-05
0.000303439
-4.21524e-05
0.000266289
-1.49827e-05
0.000201767
-7.55777e-06
0.000149892
-1.10806e-05
9.81867e-05
-1.73345e-05
5.09897e-05
-2.243e-05
2.0615e-05
-2.0036e-05
3.61118e-06
-1.65463e-05
2.27746e-06
-8.53252e-06
-1.48587e-06
-8.77776e-06
-1.66548e-05
-1.66548e-05
-8.90121e-06
-8.23991e-06
-3.63196e-06
-6.13213e-06
-2.19995e-06
-3.45509e-06
-9.91872e-07
-3.18256e-06
-5.69452e-07
6.80836e-07
9.85307e-07
6.78144e-07
7.49824e-07
-9.12103e-07
-9.12103e-07
-3.41505e-06
5.93671e-06
-3.86486e-06
5.975e-06
1.65491e-06
6.26049e-06
7.47417e-06
2.99574e-06
9.16485e-06
9.16485e-06
1.22611e-07
6.93359e-06
-1.21934e-06
6.71744e-06
-2.20107e-06
7.57542e-06
-7.1494e-08
7.59932e-06
-3.11016e-06
-7.15318e-06
-7.15318e-06
-1.57862e-07
-3.56175e-06
1.16178e-06
-1.613e-06
2.74676e-06
-2.99454e-06
-1.58365e-05
-2.29682e-05
)
;
    }
    procBoundary1to5
    {
        type            processor;
        value           nonuniform List<scalar> 
13
(
-0.00197423
-0.00197423
-0.000803514
0.000296914
0.000296914
9.90811e-05
-0.000483492
-0.000483492
-0.000463519
7.88888e-05
0.000580752
0.000580752
0.000460109
)
;
    }
}


// ************************************************************************* //
