/*--------------------------------*- C++ -*----------------------------------*\
| =========                 |                                                 |
| \\      /  F ield         | OpenFOAM: The Open Source CFD Toolbox           |
|  \\    /   O peration     | Version:  2306                                  |
|   \\  /    A nd           | Website:  www.openfoam.com                      |
|    \\/     M anipulation  |                                                 |
\*---------------------------------------------------------------------------*/
FoamFile
{
    version     2.0;
    format      ascii;
    arch        "LSB;label=32;scalar=64";
    class       volScalarField;
    location    "125";
    object      nut;
}
// * * * * * * * * * * * * * * * * * * * * * * * * * * * * * * * * * * * * * //

dimensions      [0 2 -1 0 0 0 0];

internalField   nonuniform List<scalar> 
1340
(
7.92095e-06
1.00883e-05
1.39065e-05
2.0142e-05
3.01003e-05
4.5409e-05
6.78022e-05
9.85406e-05
0.000139587
0.000195344
0.000275026
0.000396114
0.00058834
0.000914379
0.00147386
0.0025472
0.00452246
0.00897776
0.0177965
0.0400532
0.0753309
0.0996761
0.109094
0.111722
0.112419
0.112358
0.111706
0.110553
5.98783e-06
5.96209e-06
5.84197e-06
5.66835e-06
5.45877e-06
5.22087e-06
4.95918e-06
4.67404e-06
4.35217e-06
3.99166e-06
3.56486e-06
3.06895e-06
2.47093e-06
1.7814e-06
1.02828e-06
3.91617e-07
5.93483e-08
2.53681e-09
1.29538e-06
0.000150593
0.000922947
0.00581503
0.0171691
0.0325521
0.0476164
0.0586057
0.0650178
0.068528
0.0707086
6.13322e-06
6.13826e-06
6.15157e-06
6.17079e-06
6.19291e-06
6.21647e-06
6.24358e-06
6.27332e-06
6.3068e-06
6.3438e-06
6.38595e-06
6.43442e-06
6.49273e-06
6.56407e-06
6.65554e-06
6.7753e-06
6.93664e-06
7.12443e-06
7.28481e-06
6.99517e-06
6.62733e-06
2.4887e-06
0.000169406
0.00108622
0.00379376
0.00894507
0.0162864
0.0249819
0.034011
6.10202e-06
6.10427e-06
6.10384e-06
6.10202e-06
6.09975e-06
6.09698e-06
6.09401e-06
6.09072e-06
6.08768e-06
6.08475e-06
6.08204e-06
6.07955e-06
6.07731e-06
6.07522e-06
6.07328e-06
6.07122e-06
6.06897e-06
6.06609e-06
6.06431e-06
6.06162e-06
6.07731e-06
6.04244e-06
6.27456e-06
5.45708e-06
8.8403e-06
7.28647e-07
1.26024e-06
0.000306509
0.0013458
0.00373576
6.10758e-06
6.10783e-06
6.1087e-06
6.11005e-06
6.11147e-06
6.11287e-06
6.11425e-06
6.11564e-06
6.11689e-06
6.11829e-06
6.11979e-06
6.12147e-06
6.12334e-06
6.12543e-06
6.12772e-06
6.13023e-06
6.13296e-06
6.13607e-06
6.1396e-06
6.14444e-06
6.14876e-06
6.16327e-06
6.14247e-06
6.30428e-06
5.53e-06
9.9785e-06
1.85354e-10
4.7061e-05
0.000321939
0.000268471
6.1076e-06
6.10655e-06
6.10731e-06
6.1088e-06
6.11026e-06
6.11139e-06
6.11228e-06
6.11302e-06
6.11366e-06
6.11409e-06
6.1145e-06
6.11484e-06
6.11516e-06
6.11544e-06
6.11569e-06
6.11587e-06
6.11595e-06
6.11587e-06
6.11567e-06
6.11496e-06
6.11443e-06
6.11439e-06
6.11475e-06
6.11592e-06
6.11783e-06
6.11954e-06
6.1461e-06
6.05147e-06
5.46521e-06
1.80087e-06
9.49729e-09
6.1081e-06
6.10727e-06
6.10798e-06
6.1093e-06
6.11071e-06
6.11188e-06
6.11291e-06
6.11379e-06
6.11455e-06
6.11512e-06
6.11569e-06
6.11621e-06
6.11678e-06
6.1174e-06
6.11811e-06
6.1189e-06
6.11978e-06
6.12076e-06
6.12188e-06
6.12319e-06
6.12475e-06
6.12672e-06
6.12915e-06
6.13229e-06
6.13568e-06
6.14152e-06
6.13695e-06
6.20463e-06
6.19845e-06
5.11144e-06
2.75502e-06
6.10784e-06
6.10702e-06
6.1078e-06
6.10912e-06
6.11051e-06
6.11166e-06
6.11269e-06
6.11358e-06
6.11435e-06
6.11492e-06
6.11546e-06
6.11594e-06
6.11642e-06
6.1169e-06
6.11742e-06
6.11796e-06
6.11854e-06
6.11912e-06
6.11974e-06
6.12036e-06
6.12098e-06
6.12165e-06
6.12238e-06
6.12313e-06
6.12385e-06
6.12433e-06
6.12521e-06
6.12703e-06
6.1196e-06
6.10985e-06
6.44122e-06
6.10984e-06
6.10736e-06
6.10661e-06
6.10738e-06
6.10868e-06
6.11001e-06
6.11113e-06
6.11217e-06
6.11307e-06
6.11387e-06
6.11451e-06
6.1151e-06
6.11563e-06
6.11615e-06
6.11666e-06
6.11722e-06
6.11781e-06
6.11846e-06
6.11916e-06
6.11997e-06
6.12088e-06
6.12192e-06
6.12317e-06
6.12469e-06
6.12649e-06
6.12861e-06
6.1311e-06
6.13405e-06
6.13755e-06
6.14116e-06
6.13486e-06
6.18642e-06
6.1067e-06
6.10602e-06
6.10675e-06
6.10799e-06
6.1093e-06
6.11039e-06
6.11143e-06
6.11235e-06
6.11317e-06
6.11385e-06
6.11451e-06
6.11507e-06
6.11561e-06
6.11614e-06
6.11668e-06
6.11723e-06
6.11784e-06
6.11848e-06
6.11921e-06
6.12003e-06
6.12093e-06
6.12197e-06
6.12318e-06
6.12457e-06
6.12613e-06
6.12788e-06
6.12972e-06
6.13205e-06
6.13411e-06
6.13784e-06
6.12072e-06
6.10528e-06
6.10597e-06
6.10715e-06
6.10841e-06
6.1095e-06
6.11054e-06
6.11147e-06
6.11234e-06
6.11308e-06
6.11377e-06
6.11437e-06
6.11494e-06
6.11548e-06
6.11602e-06
6.11658e-06
6.11718e-06
6.11781e-06
6.11853e-06
6.11935e-06
6.12028e-06
6.12138e-06
6.12269e-06
6.12422e-06
6.12598e-06
6.12803e-06
6.13032e-06
6.13318e-06
6.13545e-06
6.14186e-06
6.12677e-06
6.10507e-06
6.10622e-06
6.1074e-06
6.1085e-06
6.10956e-06
6.11053e-06
6.11141e-06
6.11217e-06
6.1129e-06
6.11353e-06
6.11412e-06
6.11467e-06
6.11521e-06
6.11575e-06
6.11632e-06
6.11691e-06
6.11759e-06
6.11838e-06
6.11927e-06
6.12033e-06
6.12157e-06
6.12301e-06
6.12467e-06
6.12657e-06
6.12869e-06
6.13114e-06
6.13363e-06
6.13778e-06
6.13576e-06
6.10518e-06
6.10633e-06
6.10743e-06
6.1085e-06
6.10947e-06
6.11037e-06
6.11117e-06
6.1119e-06
6.11255e-06
6.11316e-06
6.11372e-06
6.11426e-06
6.11479e-06
6.11534e-06
6.11593e-06
6.11661e-06
6.1174e-06
6.1183e-06
6.11937e-06
6.12062e-06
6.12207e-06
6.12374e-06
6.12566e-06
6.12784e-06
6.13031e-06
6.13309e-06
6.13609e-06
6.13964e-06
6.10519e-06
6.1063e-06
6.10737e-06
6.10837e-06
6.10927e-06
6.11008e-06
6.11082e-06
6.11148e-06
6.11209e-06
6.11266e-06
6.11322e-06
6.11377e-06
6.11435e-06
6.11496e-06
6.11565e-06
6.11645e-06
6.11736e-06
6.11842e-06
6.11965e-06
6.12107e-06
6.12271e-06
6.12457e-06
6.1267e-06
6.12909e-06
6.13182e-06
6.13468e-06
6.13863e-06
6.1051e-06
6.10619e-06
6.10719e-06
6.1081e-06
6.10891e-06
6.10967e-06
6.11035e-06
6.111e-06
6.1116e-06
6.1122e-06
6.11278e-06
6.11338e-06
6.11401e-06
6.1147e-06
6.11549e-06
6.11639e-06
6.11742e-06
6.11861e-06
6.11999e-06
6.12157e-06
6.12338e-06
6.12545e-06
6.1278e-06
6.13047e-06
6.13339e-06
6.13688e-06
6.10389e-06
6.10499e-06
6.10599e-06
6.1069e-06
6.10773e-06
6.1085e-06
6.10921e-06
6.10989e-06
6.11053e-06
6.11115e-06
6.11176e-06
6.11237e-06
6.11299e-06
6.11367e-06
6.11442e-06
6.11528e-06
6.11626e-06
6.11739e-06
6.11869e-06
6.1202e-06
6.12192e-06
6.1239e-06
6.12616e-06
6.12872e-06
6.1316e-06
6.13485e-06
6.10375e-06
6.10476e-06
6.10568e-06
6.10652e-06
6.10732e-06
6.10806e-06
6.10877e-06
6.10943e-06
6.11006e-06
6.11067e-06
6.11127e-06
6.11187e-06
6.11251e-06
6.11322e-06
6.11404e-06
6.11497e-06
6.11605e-06
6.11729e-06
6.11873e-06
6.12037e-06
6.12226e-06
6.12442e-06
6.12688e-06
6.12965e-06
6.13278e-06
6.10251e-06
6.10353e-06
6.10446e-06
6.10532e-06
6.10614e-06
6.10689e-06
6.10761e-06
6.10827e-06
6.1089e-06
6.1095e-06
6.11008e-06
6.11066e-06
6.11128e-06
6.11197e-06
6.11276e-06
6.11367e-06
6.11471e-06
6.11591e-06
6.11728e-06
6.11886e-06
6.12067e-06
6.12273e-06
6.12509e-06
6.12776e-06
6.13078e-06
6.10229e-06
6.10323e-06
6.1041e-06
6.10492e-06
6.10568e-06
6.10639e-06
6.10705e-06
6.10767e-06
6.10827e-06
6.10885e-06
6.10943e-06
6.11005e-06
6.11074e-06
6.11152e-06
6.11242e-06
6.11344e-06
6.1146e-06
6.11593e-06
6.11745e-06
6.11919e-06
6.12117e-06
6.12344e-06
6.12601e-06
6.12892e-06
6.10107e-06
6.102e-06
6.10287e-06
6.10369e-06
6.10444e-06
6.10514e-06
6.1058e-06
6.10644e-06
6.10704e-06
6.10764e-06
6.10823e-06
6.10886e-06
6.10955e-06
6.11033e-06
6.11121e-06
6.11221e-06
6.11334e-06
6.11463e-06
6.11609e-06
6.11776e-06
6.11966e-06
6.12185e-06
6.12432e-06
6.12713e-06
6.09987e-06
6.10078e-06
6.10164e-06
6.10244e-06
6.10318e-06
6.10389e-06
6.10456e-06
6.10521e-06
6.10583e-06
6.10645e-06
6.10705e-06
6.10769e-06
6.10838e-06
6.10915e-06
6.11001e-06
6.11098e-06
6.11206e-06
6.11329e-06
6.11469e-06
6.11629e-06
6.1181e-06
6.12019e-06
6.12257e-06
6.12529e-06
6.09956e-06
6.10041e-06
6.10121e-06
6.10195e-06
6.10267e-06
6.10335e-06
6.10401e-06
6.10464e-06
6.10526e-06
6.10587e-06
6.1065e-06
6.10717e-06
6.10792e-06
6.10875e-06
6.10968e-06
6.11072e-06
6.11189e-06
6.11322e-06
6.11474e-06
6.11647e-06
6.11846e-06
6.12073e-06
6.12333e-06
6.09836e-06
6.0992e-06
6.1e-06
6.10074e-06
6.10146e-06
6.10214e-06
6.1028e-06
6.10343e-06
6.10405e-06
6.10465e-06
6.10527e-06
6.10592e-06
6.10665e-06
6.10746e-06
6.10836e-06
6.10936e-06
6.11049e-06
6.11177e-06
6.11322e-06
6.11487e-06
6.11677e-06
6.11892e-06
6.12139e-06
6.09801e-06
6.0988e-06
6.09954e-06
6.10025e-06
6.10093e-06
6.10158e-06
6.10221e-06
6.10282e-06
6.10342e-06
6.10402e-06
6.10467e-06
6.10539e-06
6.10619e-06
6.10707e-06
6.10805e-06
6.10914e-06
6.11037e-06
6.11176e-06
6.11334e-06
6.11514e-06
6.1172e-06
6.11956e-06
6.09685e-06
6.09762e-06
6.09835e-06
6.09905e-06
6.09971e-06
6.10036e-06
6.10098e-06
6.10159e-06
6.10218e-06
6.1028e-06
6.10345e-06
6.10416e-06
6.10495e-06
6.1058e-06
6.10675e-06
6.10779e-06
6.10896e-06
6.11029e-06
6.11179e-06
6.1135e-06
6.11546e-06
6.11772e-06
6.09572e-06
6.09647e-06
6.09717e-06
6.09785e-06
6.09851e-06
6.09914e-06
6.09976e-06
6.10037e-06
6.10097e-06
6.10158e-06
6.10222e-06
6.10291e-06
6.10367e-06
6.10449e-06
6.10539e-06
6.10639e-06
6.1075e-06
6.10875e-06
6.11017e-06
6.1118e-06
6.11365e-06
6.1158e-06
6.09532e-06
6.09602e-06
6.09669e-06
6.09733e-06
6.09796e-06
6.09857e-06
6.09918e-06
6.09976e-06
6.10035e-06
6.10097e-06
6.10164e-06
6.10236e-06
6.10315e-06
6.10402e-06
6.10497e-06
6.10603e-06
6.10722e-06
6.10856e-06
6.1101e-06
6.11185e-06
6.11388e-06
6.09422e-06
6.09489e-06
6.09554e-06
6.09617e-06
6.09679e-06
6.09738e-06
6.09796e-06
6.09853e-06
6.0991e-06
6.0997e-06
6.10035e-06
6.10106e-06
6.10183e-06
6.10266e-06
6.10358e-06
6.1046e-06
6.10573e-06
6.10702e-06
6.10847e-06
6.11014e-06
6.11206e-06
6.09314e-06
6.09379e-06
6.09442e-06
6.09502e-06
6.09561e-06
6.09618e-06
6.09675e-06
6.09731e-06
6.09787e-06
6.09846e-06
6.09909e-06
6.09979e-06
6.10054e-06
6.10135e-06
6.10224e-06
6.10321e-06
6.1043e-06
6.10553e-06
6.10691e-06
6.1085e-06
6.11033e-06
6.0927e-06
6.09331e-06
6.09389e-06
6.09446e-06
6.09502e-06
6.09557e-06
6.09611e-06
6.09666e-06
6.09724e-06
6.09786e-06
6.09854e-06
6.09927e-06
6.10005e-06
6.1009e-06
6.10184e-06
6.10288e-06
6.10405e-06
6.10536e-06
6.10687e-06
6.1086e-06
6.09165e-06
6.09223e-06
6.09279e-06
6.09334e-06
6.09388e-06
6.09441e-06
6.09494e-06
6.09548e-06
6.09604e-06
6.09664e-06
6.0973e-06
6.09799e-06
6.09875e-06
6.09956e-06
6.10046e-06
6.10145e-06
6.10255e-06
6.1038e-06
6.10523e-06
6.10687e-06
6.09118e-06
6.09172e-06
6.09225e-06
6.09277e-06
6.09328e-06
6.09379e-06
6.0943e-06
6.09484e-06
6.09542e-06
6.09605e-06
6.09672e-06
6.09744e-06
6.09822e-06
6.09908e-06
6.10002e-06
6.10107e-06
6.10225e-06
6.1036e-06
6.10515e-06
6.09016e-06
6.09067e-06
6.09118e-06
6.09168e-06
6.09217e-06
6.09265e-06
6.09314e-06
6.09366e-06
6.09421e-06
6.09482e-06
6.09546e-06
6.09615e-06
6.0969e-06
6.09771e-06
6.09861e-06
6.09961e-06
6.10073e-06
6.10201e-06
6.10347e-06
6.08917e-06
6.08966e-06
6.09014e-06
6.0906e-06
6.09107e-06
6.09153e-06
6.092e-06
6.09249e-06
6.09302e-06
6.0936e-06
6.09421e-06
6.09487e-06
6.09559e-06
6.09637e-06
6.09722e-06
6.09817e-06
6.09923e-06
6.10044e-06
6.10182e-06
6.08866e-06
6.08911e-06
6.08955e-06
6.08999e-06
6.09043e-06
6.09088e-06
6.09135e-06
6.09185e-06
6.0924e-06
6.09299e-06
6.09361e-06
6.09429e-06
6.09503e-06
6.09584e-06
6.09674e-06
6.09774e-06
6.09888e-06
6.10018e-06
6.08769e-06
6.08811e-06
6.08853e-06
6.08895e-06
6.08936e-06
6.08978e-06
6.09022e-06
6.09069e-06
6.09121e-06
6.09176e-06
6.09236e-06
6.093e-06
6.0937e-06
6.09447e-06
6.09532e-06
6.09627e-06
6.09734e-06
6.09856e-06
6.08675e-06
6.08714e-06
6.08753e-06
6.08792e-06
6.0883e-06
6.08869e-06
6.0891e-06
6.08955e-06
6.09004e-06
6.09056e-06
6.09112e-06
6.09173e-06
6.0924e-06
6.09312e-06
6.09393e-06
6.09482e-06
6.09583e-06
6.09698e-06
6.08619e-06
6.08655e-06
6.0869e-06
6.08726e-06
6.08762e-06
6.08801e-06
6.08843e-06
6.08889e-06
6.08938e-06
6.08991e-06
6.09048e-06
6.09111e-06
6.0918e-06
6.09256e-06
6.0934e-06
6.09435e-06
6.09543e-06
6.08526e-06
6.08559e-06
6.08592e-06
6.08625e-06
6.08658e-06
6.08694e-06
6.08733e-06
6.08776e-06
6.08821e-06
6.08871e-06
6.08925e-06
6.08984e-06
6.09048e-06
6.0912e-06
6.09199e-06
6.09288e-06
6.08435e-06
6.08465e-06
6.08495e-06
6.08525e-06
6.08556e-06
6.08588e-06
6.08624e-06
6.08664e-06
6.08706e-06
6.08753e-06
6.08803e-06
6.08858e-06
6.08919e-06
6.08986e-06
6.09061e-06
6.09145e-06
6.08373e-06
6.084e-06
6.08427e-06
6.08455e-06
6.08484e-06
6.08518e-06
6.08554e-06
6.08594e-06
6.08637e-06
6.08684e-06
6.08735e-06
6.08792e-06
6.08855e-06
6.08925e-06
6.09004e-06
6.08283e-06
6.08306e-06
6.08331e-06
6.08356e-06
6.08383e-06
6.08413e-06
6.08446e-06
6.08483e-06
6.08522e-06
6.08566e-06
6.08614e-06
6.08667e-06
6.08726e-06
6.08792e-06
6.08865e-06
6.08194e-06
6.08215e-06
6.08236e-06
6.08259e-06
6.08283e-06
6.0831e-06
6.0834e-06
6.08373e-06
6.0841e-06
6.0845e-06
6.08495e-06
6.08544e-06
6.08599e-06
6.08661e-06
6.08729e-06
6.08124e-06
6.08143e-06
6.08162e-06
6.08184e-06
6.08208e-06
6.08235e-06
6.08266e-06
6.08299e-06
6.08337e-06
6.08378e-06
6.08424e-06
6.08475e-06
6.08532e-06
6.08596e-06
6.08035e-06
6.08051e-06
6.08068e-06
6.08087e-06
6.08108e-06
6.08133e-06
6.0816e-06
6.08191e-06
6.08225e-06
6.08263e-06
6.08305e-06
6.08352e-06
6.08406e-06
6.08465e-06
6.07948e-06
6.07961e-06
6.07975e-06
6.07991e-06
6.0801e-06
6.08031e-06
6.08056e-06
6.08083e-06
6.08114e-06
6.08149e-06
6.08188e-06
6.08232e-06
6.08281e-06
6.08336e-06
6.07871e-06
6.07883e-06
6.07896e-06
6.07912e-06
6.07931e-06
6.07952e-06
6.07977e-06
6.08005e-06
6.08037e-06
6.08073e-06
6.08113e-06
6.08159e-06
6.0821e-06
6.07782e-06
6.07791e-06
6.07802e-06
6.07816e-06
6.07832e-06
6.07851e-06
6.07873e-06
6.07898e-06
6.07927e-06
6.07959e-06
6.07996e-06
6.08038e-06
6.08086e-06
6.07694e-06
6.07701e-06
6.07709e-06
6.0772e-06
6.07733e-06
6.0775e-06
6.07769e-06
6.07791e-06
6.07817e-06
6.07846e-06
6.0788e-06
6.07918e-06
6.07961e-06
6.07606e-06
6.07611e-06
6.07616e-06
6.07625e-06
6.07635e-06
6.07649e-06
6.07665e-06
6.07685e-06
6.07708e-06
6.07734e-06
6.07765e-06
6.078e-06
6.0784e-06
6.07521e-06
6.07524e-06
6.0753e-06
6.07539e-06
6.0755e-06
6.07564e-06
6.07582e-06
6.07602e-06
6.07626e-06
6.07654e-06
6.07686e-06
6.07723e-06
6.07433e-06
6.07434e-06
6.07439e-06
6.07446e-06
6.07456e-06
6.07469e-06
6.07484e-06
6.07503e-06
6.07525e-06
6.07551e-06
6.0758e-06
6.07614e-06
6.07349e-06
6.0735e-06
6.07354e-06
6.07361e-06
6.07371e-06
6.07383e-06
6.07398e-06
6.07416e-06
6.07437e-06
6.07461e-06
6.07488e-06
6.07276e-06
6.07278e-06
6.07283e-06
6.07291e-06
6.07302e-06
6.07315e-06
6.07331e-06
6.07349e-06
6.0737e-06
6.07393e-06
6.07419e-06
6.07225e-06
6.07233e-06
6.07245e-06
6.07258e-06
6.07274e-06
6.07291e-06
6.07311e-06
6.07333e-06
6.07357e-06
6.07383e-06
6.07198e-06
6.07212e-06
6.07228e-06
6.07245e-06
6.07265e-06
6.07286e-06
6.07308e-06
6.07332e-06
6.07357e-06
6.07384e-06
6.07202e-06
6.07221e-06
6.07242e-06
6.07264e-06
6.07287e-06
6.07311e-06
6.07336e-06
6.07362e-06
6.07388e-06
6.07416e-06
6.07234e-06
6.07258e-06
6.07283e-06
6.07308e-06
6.07334e-06
6.0736e-06
6.07386e-06
6.07413e-06
6.0744e-06
6.07468e-06
6.07285e-06
6.07312e-06
6.07339e-06
6.07366e-06
6.07393e-06
6.07419e-06
6.07446e-06
6.07473e-06
6.07501e-06
6.07529e-06
6.07375e-06
6.07403e-06
6.07431e-06
6.07458e-06
6.07486e-06
6.07513e-06
6.0754e-06
6.07567e-06
6.07595e-06
6.07448e-06
6.07478e-06
6.07507e-06
6.07536e-06
6.07565e-06
6.07593e-06
6.07622e-06
6.0765e-06
6.07678e-06
6.07542e-06
6.07576e-06
6.0761e-06
6.07642e-06
6.07675e-06
6.07706e-06
6.07736e-06
6.07766e-06
6.07674e-06
6.07715e-06
6.07755e-06
6.07794e-06
6.07831e-06
6.07867e-06
6.07901e-06
6.07934e-06
6.07855e-06
6.07905e-06
6.07953e-06
6.07998e-06
6.08041e-06
6.08082e-06
6.08121e-06
6.08158e-06
6.08085e-06
6.08142e-06
6.08197e-06
6.08248e-06
6.08296e-06
6.08342e-06
6.08384e-06
6.08425e-06
6.08412e-06
6.08471e-06
6.08526e-06
6.08579e-06
6.08627e-06
6.08673e-06
6.08716e-06
6.08696e-06
6.08758e-06
6.08816e-06
6.08871e-06
6.08922e-06
6.0897e-06
6.09015e-06
6.08932e-06
6.08996e-06
6.09056e-06
6.09112e-06
6.09166e-06
6.09217e-06
6.09266e-06
6.09093e-06
6.09154e-06
6.09211e-06
6.09266e-06
6.09318e-06
6.09368e-06
6.09417e-06
6.09217e-06
6.09272e-06
6.09323e-06
6.09373e-06
6.0942e-06
6.09467e-06
6.09512e-06
6.09312e-06
6.09361e-06
6.09407e-06
6.09453e-06
6.09497e-06
6.0954e-06
6.09582e-06
6.09378e-06
6.09425e-06
6.09472e-06
6.09517e-06
6.09561e-06
6.09605e-06
6.09465e-06
6.0952e-06
6.09575e-06
6.09629e-06
6.09682e-06
6.09735e-06
6.09651e-06
6.09727e-06
6.09803e-06
6.09877e-06
6.09951e-06
6.10023e-06
6.10095e-06
6.10194e-06
6.10292e-06
6.10387e-06
6.1048e-06
6.10473e-06
6.10571e-06
6.10666e-06
6.10757e-06
6.10844e-06
6.10437e-06
6.10492e-06
6.10542e-06
6.10589e-06
6.10632e-06
6.09763e-06
6.09806e-06
6.09853e-06
6.09903e-06
6.09956e-06
6.09531e-06
6.09733e-06
6.09943e-06
6.10158e-06
6.10377e-06
6.09624e-06
6.0975e-06
6.09866e-06
6.09971e-06
6.10064e-06
)
;

boundaryField
{
    inlet
    {
        type            freestream;
        freestreamValue uniform 1e-05;
        value           uniform 1e-05;
    }
    outlet
    {
        type            freestream;
        freestreamValue nonuniform List<scalar> 0();
        value           nonuniform List<scalar> 0();
    }
    walls
    {
        type            nutUSpaldingWallFunction;
        value           nonuniform List<scalar> 
28
(
0.000537852
0.000864293
0.00120249
0.00148603
0.00171465
0.00189951
0.00205004
0.00217399
0.0022783
0.00236838
0.00244811
0.00252086
0.00258871
0.00265355
0.00271583
0.00277539
0.00282866
0.00286897
0.002896
0.00291338
0.00292437
0.00293025
0.00293129
0.00292528
0.00291142
0.00288951
0.00285992
0.00282202
)
;
    }
    frontAndBack
    {
        type            empty;
    }
    procBoundary1to0
    {
        type            processor;
        value           nonuniform List<scalar> 
94
(
6.1088e-06
6.1088e-06
6.10585e-06
6.10585e-06
6.10445e-06
6.10445e-06
6.10413e-06
6.10413e-06
6.10413e-06
6.10413e-06
6.10406e-06
6.10406e-06
6.10296e-06
6.10273e-06
6.10273e-06
6.10159e-06
6.10132e-06
6.10132e-06
6.10017e-06
6.09903e-06
6.0987e-06
6.0987e-06
6.09759e-06
6.09721e-06
6.09721e-06
6.09611e-06
6.09503e-06
6.09462e-06
6.09462e-06
6.09357e-06
6.09254e-06
6.0921e-06
6.0921e-06
6.09111e-06
6.09063e-06
6.09063e-06
6.08966e-06
6.08871e-06
6.08821e-06
6.08821e-06
6.08729e-06
6.08639e-06
6.08584e-06
6.08584e-06
6.08495e-06
6.08408e-06
6.08347e-06
6.08347e-06
6.0826e-06
6.08175e-06
6.08107e-06
6.08107e-06
6.08021e-06
6.07936e-06
6.07861e-06
6.07861e-06
6.07775e-06
6.07689e-06
6.07603e-06
6.07519e-06
6.07519e-06
6.07433e-06
6.0735e-06
6.07276e-06
6.07219e-06
6.07219e-06
6.07188e-06
6.07186e-06
6.07213e-06
6.0726e-06
6.07347e-06
6.07347e-06
6.07418e-06
6.07507e-06
6.07632e-06
6.07805e-06
6.08026e-06
6.08348e-06
6.08348e-06
6.08629e-06
6.08865e-06
6.09029e-06
6.0916e-06
6.0926e-06
6.09329e-06
6.09409e-06
6.09574e-06
6.09993e-06
6.09993e-06
6.10369e-06
6.10377e-06
6.09724e-06
6.0934e-06
6.09486e-06
)
;
    }
    procBoundary1to2
    {
        type            processor;
        value           nonuniform List<scalar> 
84
(
0.10902
0.072528
0.0425412
0.0081819
0.000215215
2.00286e-05
7.54967e-07
6.37291e-06
6.33097e-06
6.24868e-06
6.21309e-06
6.16062e-06
6.1413e-06
6.13956e-06
6.13985e-06
6.1385e-06
6.13637e-06
6.1342e-06
6.13221e-06
6.13032e-06
6.12838e-06
6.1263e-06
6.12423e-06
6.12227e-06
6.12032e-06
6.11828e-06
6.11624e-06
6.11429e-06
6.11244e-06
6.11062e-06
6.10878e-06
6.10696e-06
6.10518e-06
6.10343e-06
6.1017e-06
6.09998e-06
6.09832e-06
6.09668e-06
6.0939e-06
6.0939e-06
6.0924e-06
6.09093e-06
6.08949e-06
6.08807e-06
6.08669e-06
6.08533e-06
6.08399e-06
6.08269e-06
6.0814e-06
6.08011e-06
6.07885e-06
6.07765e-06
6.07653e-06
6.0752e-06
6.0752e-06
6.07449e-06
6.07412e-06
6.07413e-06
6.07445e-06
6.07498e-06
6.07558e-06
6.07624e-06
6.07706e-06
6.07796e-06
6.07796e-06
6.07966e-06
6.08193e-06
6.08463e-06
6.08756e-06
6.09057e-06
6.09312e-06
6.09465e-06
6.09556e-06
6.09624e-06
6.09647e-06
6.09647e-06
6.09786e-06
6.10094e-06
6.1057e-06
6.10928e-06
6.10672e-06
6.10012e-06
6.10598e-06
6.10147e-06
)
;
    }
    procBoundary1to5
    {
        type            processor;
        value           nonuniform List<scalar> 
13
(
7.29893e-06
7.29893e-06
5.90542e-06
6.14116e-06
6.14116e-06
6.09844e-06
6.10828e-06
6.10828e-06
6.11087e-06
6.11117e-06
6.11064e-06
6.11064e-06
6.1092e-06
)
;
    }
}


// ************************************************************************* //
