/*--------------------------------*- C++ -*----------------------------------*\
| =========                 |                                                 |
| \\      /  F ield         | OpenFOAM: The Open Source CFD Toolbox           |
|  \\    /   O peration     | Version:  2306                                  |
|   \\  /    A nd           | Website:  www.openfoam.com                      |
|    \\/     M anipulation  |                                                 |
\*---------------------------------------------------------------------------*/
FoamFile
{
    version     2.0;
    format      ascii;
    arch        "LSB;label=32;scalar=64";
    class       volScalarField;
    location    "125";
    object      turbulenceProperties:I;
}
// * * * * * * * * * * * * * * * * * * * * * * * * * * * * * * * * * * * * * //

dimensions      [0 0 0 0 0 0 0];

internalField   nonuniform List<scalar> 
1340
(
0.014271
0.00903877
0.00722066
0.00675527
0.00686253
0.00729102
0.00795769
0.00882964
0.00992557
0.0113049
0.0130741
0.0153966
0.0184788
0.0227232
0.0284842
0.037002
0.0487999
0.068288
0.0957917
0.143446
0.196506
0.225895
0.236305
0.239461
0.240963
0.242113
0.243075
0.243974
0.00672705
0.0063734
0.00466782
0.00331293
0.00247363
0.00193854
0.00157149
0.00130354
0.00109911
0.000938151
0.000806738
0.000696861
0.00059996
0.000509126
0.000414135
0.000307778
0.000184069
8.14298e-05
0.000384464
0.0015678
0.00385929
0.00977687
0.0165676
0.0223614
0.026979
0.0305309
0.0333221
0.035718
0.0379847
0.00423789
0.00413559
0.00351974
0.0027948
0.00219698
0.00174854
0.00141359
0.00115855
0.000963578
0.000813182
0.00069779
0.000609838
0.000544298
0.000495701
0.000460306
0.000435489
0.000419431
0.000409738
0.000404569
0.000399234
0.000398923
0.000308272
0.00105377
0.00232128
0.00370954
0.00536687
0.00810013
0.011616
0.0153504
0.0028414
0.00301458
0.00297391
0.00269363
0.0023014
0.00192351
0.00160947
0.00136019
0.00116377
0.00100909
0.000885937
0.000787298
0.000707561
0.000642947
0.0005895
0.000544934
0.000506713
0.000472502
0.000438654
0.00040574
0.000378782
0.000357616
0.000344388
0.000314836
0.000330246
0.00015308
0.000144418
0.000603087
0.000761492
0.0018676
0.00222373
0.0023138
0.00229507
0.00215047
0.00192517
0.00167856
0.00144843
0.00124777
0.00107731
0.000934281
0.000814649
0.000714801
0.000631731
0.000563118
0.000506533
0.000460099
0.000421749
0.000389391
0.000359597
0.000330466
0.000303816
0.000282853
0.000268729
0.000263127
0.000250821
0.000287313
1.77978e-05
0.000406312
0.000832577
0.000703667
0.00171818
0.00180718
0.00186054
0.00185084
0.00176767
0.00162972
0.0014663
0.00130195
0.00114981
0.00101478
0.000897863
0.000798073
0.000713594
0.000642452
0.000582763
0.000532574
0.000490078
0.000453358
0.000420453
0.000388748
0.000356977
0.000326915
0.000300285
0.000277434
0.000257842
0.000241169
0.000226384
0.000209694
0.000187144
0.000126921
3.03946e-05
0.00145226
0.00151048
0.00154479
0.00153919
0.00148782
0.00139916
0.00128815
0.00116963
0.00105344
0.000944889
0.000846496
0.000758965
0.000681979
0.000614865
0.000556779
0.000506645
0.000463376
0.000425697
0.000392115
0.000360562
0.000329678
0.000300396
0.000274197
0.000251665
0.000232567
0.000216936
0.000205465
0.000198508
0.00019331
0.000180001
0.000150676
0.00124861
0.00128888
0.0013123
0.0013088
0.00127529
0.00121587
0.00113847
0.00105222
0.000963964
0.000878181
0.000797674
0.000723937
0.000657482
0.00059841
0.000546435
0.000500937
0.000461085
0.000425848
0.000393959
0.000363807
0.000334363
0.000306307
0.000280712
0.000257875
0.00023735
0.000218769
0.000202067
0.000186876
0.000172914
0.000160573
0.000152329
0.001053
0.00108847
0.00111746
0.00113413
0.00113191
0.00110909
0.00106786
0.00101267
0.000949134
0.000881838
0.000814126
0.000748423
0.000686289
0.000628639
0.000575937
0.000528314
0.000485602
0.000447388
0.000413005
0.000381543
0.000351856
0.000323165
0.000295846
0.000270802
0.000248429
0.000228494
0.000210751
0.000195285
0.000182452
0.000172347
0.0001651
0.000161149
0.000959552
0.000980988
0.000993269
0.000991882
0.000975871
0.000946402
0.000906192
0.000858807
0.000807238
0.000753845
0.000700584
0.00064885
0.0005996
0.000553535
0.000510998
0.000472103
0.000436709
0.000404399
0.000374524
0.000346281
0.000319072
0.000293159
0.000269245
0.000247647
0.000228148
0.00021045
0.000194481
0.000180216
0.000167641
0.000157272
0.000149396
0.00086991
0.000879174
0.000878337
0.000866801
0.000845304
0.000815431
0.000779613
0.000739839
0.000697714
0.000654651
0.000611778
0.000569951
0.000529862
0.000492002
0.000456625
0.000423766
0.000393248
0.000364672
0.00033751
0.00031138
0.000286486
0.000263369
0.000242351
0.000223328
0.000206107
0.000190684
0.000177229
0.000165884
0.000157097
0.000150917
0.00078492
0.000784451
0.00077598
0.000759946
0.000737407
0.00071002
0.000679125
0.000645774
0.000611009
0.000575652
0.000540375
0.000505815
0.000472446
0.000440633
0.000410553
0.000382176
0.000355266
0.000329509
0.000304735
0.000281101
0.000259036
0.000238827
0.000220421
0.000203658
0.000188507
0.000175033
0.000163309
0.000153787
0.000146753
0.00070552
0.00069921
0.000687079
0.000669836
0.000648636
0.000624448
0.000597978
0.000569886
0.000540777
0.000511159
0.000481545
0.000452357
0.000423955
0.000396585
0.000370318
0.000345072
0.000320719
0.00029722
0.000274747
0.000253638
0.000234162
0.000216326
0.000200028
0.000185267
0.000172147
0.000160824
0.000151696
0.000145029
0.000633484
0.000624214
0.000610844
0.000594284
0.000575213
0.00055409
0.000531376
0.00050745
0.000482659
0.000457408
0.000432046
0.000406888
0.000382182
0.000358077
0.000334598
0.00031176
0.000289626
0.000268374
0.000248299
0.000229644
0.000212451
0.000196663
0.000182288
0.000169418
0.000158176
0.000148931
0.000141976
0.000569402
0.00055906
0.000545955
0.000530788
0.000513857
0.000495436
0.000475775
0.000455084
0.000433634
0.000411697
0.000389537
0.000367399
0.000345453
0.000323776
0.000302451
0.000281654
0.000261605
0.000242552
0.000224711
0.000208159
0.000192881
0.000178904
0.000166335
0.000155313
0.000146182
0.000139211
0.00052135
0.000513166
0.000502796
0.000490648
0.000476991
0.00046201
0.000445816
0.000428554
0.000410387
0.000391504
0.000372105
0.000352392
0.000332535
0.000312643
0.000292872
0.000273447
0.000254612
0.000236592
0.000219592
0.000203709
0.000188963
0.000175397
0.000163124
0.00015227
0.000143149
0.000136031
0.000472313
0.000464106
0.000454253
0.000443178
0.000430941
0.000417597
0.000403199
0.000387853
0.000371659
0.00035476
0.000337309
0.000319446
0.000301298
0.000283057
0.000264993
0.000247353
0.000230363
0.00021421
0.000199008
0.000184805
0.000171658
0.000159689
0.000149023
0.000139949
0.000132726
0.000435794
0.000429176
0.000421215
0.000412159
0.000402119
0.000391093
0.000379083
0.000366133
0.000352283
0.000337613
0.000322235
0.000306268
0.00028982
0.000273074
0.000256328
0.000239874
0.000223915
0.000208623
0.000194118
0.000180474
0.000167758
0.000156099
0.000145616
0.000136569
0.000129211
0.000397562
0.000391144
0.000383667
0.000375402
0.000366272
0.000356242
0.000345311
0.000333483
0.000320793
0.000307294
0.00029307
0.000278218
0.00026293
0.000247502
0.000232216
0.000217274
0.00020284
0.000189039
0.00017596
0.000163684
0.00015234
0.000142045
0.00013303
0.000125536
0.000368879
0.000363631
0.000357505
0.000350664
0.000343064
0.000334667
0.000325435
0.000315335
0.000304368
0.000292561
0.000279952
0.000266607
0.00025271
0.000238551
0.000224399
0.000210454
0.000196873
0.000183781
0.000171275
0.000159445
0.000148418
0.000138309
0.000129323
0.000121683
0.00034278
0.000338471
0.000333426
0.00032772
0.00032137
0.000314319
0.00030651
0.000297888
0.000288426
0.000278114
0.000266974
0.000255042
0.000242464
0.000229508
0.000216449
0.000203481
0.000190741
0.000178354
0.000166421
0.000155037
0.000144326
0.000134401
0.000125442
0.000117648
0.00031537
0.000311257
0.000306429
0.000301098
0.000295161
0.000288538
0.00028117
0.000273013
0.000264034
0.000254215
0.000243571
0.000232223
0.000220421
0.000208416
0.000196387
0.000184469
0.000172774
0.000161409
0.000150469
0.000140073
0.000130323
0.000121386
0.000113427
0.000294154
0.000290712
0.000286696
0.000282181
0.00027715
0.000271522
0.000265217
0.000258183
0.00025037
0.000241735
0.000232265
0.000222061
0.000211337
0.000200332
0.000189201
0.000178078
0.000167065
0.000156264
0.000145767
0.000135684
0.000126103
0.000117179
0.000109047
0.000271716
0.000268391
0.000264507
0.00026024
0.000255446
0.000250045
0.000243975
0.000237177
0.000229589
0.000221179
0.000212019
0.000202297
0.000192226
0.00018196
0.000171605
0.000161257
0.000151011
0.000140952
0.000131178
0.00012177
0.000112858
0.000104539
0.000254131
0.000251318
0.000248035
0.000244394
0.000240289
0.000235646
0.000230393
0.000224469
0.0002178
0.000210341
0.000202135
0.000193346
0.000184152
0.000174701
0.000165079
0.000155373
0.000145666
0.000136037
0.000126565
0.000117331
0.000108424
9.99116e-05
0.000237838
0.000235464
0.00023268
0.000229537
0.000226
0.000221994
0.00021744
0.00021227
0.000206408
0.000199791
0.000192447
0.00018451
0.000176137
0.000167448
0.000158524
0.000149434
0.000140249
0.000131039
0.000121867
0.000112798
0.000103889
9.51725e-05
0.000220692
0.000218364
0.000215597
0.000212546
0.000209076
0.000205115
0.000200601
0.000195448
0.000189581
0.000183015
0.000175852
0.000168232
0.000160254
0.000151985
0.00014348
0.0001348
0.000125997
0.000117118
0.00010821
9.92954e-05
9.03641e-05
0.000206948
0.000204927
0.00020255
0.000199901
0.000196881
0.000193431
0.000189477
0.000184938
0.00017973
0.000173853
0.000167392
0.000160458
0.000153139
0.000145486
0.00013754
0.000129346
0.000120941
0.000112355
0.00010361
9.46905e-05
8.55362e-05
0.000194141
0.000192398
0.000190352
0.000188025
0.000185386
0.000182368
0.000178897
0.000174885
0.00017025
0.000164986
0.000159153
0.000152851
0.00014614
0.000139065
0.000131649
0.000123922
0.000115907
0.00010761
9.90321e-05
9.01132e-05
8.07357e-05
0.000180682
0.000178959
0.00017687
0.000174551
0.0001719
0.000168841
0.000165284
0.000161153
0.000156434
0.000151172
0.00014544
0.000139292
0.000132753
0.000125837
0.000118558
0.000110921
0.000102914
9.45088e-05
8.56062e-05
7.60119e-05
0.000169748
0.000168224
0.000166418
0.000164362
0.000162018
0.000159308
0.000156146
0.000152457
0.000148218
0.000143467
0.000138253
0.000132621
0.000126581
0.000120136
0.000113284
0.000106017
9.83047e-05
9.00845e-05
8.12203e-05
7.14321e-05
0.000158185
0.000156645
0.000154774
0.000152695
0.000150289
0.000147471
0.000144169
0.000140357
0.00013606
0.000131317
0.000126155
0.000120578
0.000114576
0.000108137
0.000101236
9.38234e-05
8.58117e-05
7.70242e-05
6.70943e-05
0.000148797
0.00014742
0.000145772
0.000143923
0.000141775
0.000139256
0.000136292
0.000132858
0.000128968
0.000124647
0.000119915
0.000114769
0.000109188
0.000103148
9.66104e-05
8.95117e-05
8.17406e-05
7.30888e-05
6.31095e-05
0.000140011
0.000138795
0.000137343
0.000135675
0.000133751
0.000131492
0.000128823
0.00012572
0.000122193
0.000118257
0.000113922
0.000109177
0.000103996
9.83416e-05
9.21706e-05
8.54049e-05
7.79151e-05
6.9475e-05
5.95866e-05
0.00013071
0.000129459
0.00012792
0.000126193
0.000124163
0.000121755
0.000118948
0.000115748
0.000112161
0.000108192
0.000103822
9.90212e-05
9.37476e-05
8.79465e-05
8.15366e-05
7.43788e-05
6.62413e-05
5.663e-05
0.00012315
0.000122014
0.000120645
0.000119093
0.000117258
0.000115082
0.000112543
0.000109638
0.00010637
0.000102737
9.87205e-05
9.42845e-05
8.93831e-05
8.3959e-05
7.79305e-05
7.11601e-05
6.34324e-05
5.43114e-05
0.000116068
0.000115055
0.000113838
0.000112424
0.000110766
0.000108801
0.000106498
0.00010386
0.000100883
9.75626e-05
9.38792e-05
8.97945e-05
8.52607e-05
8.02233e-05
7.46023e-05
6.82747e-05
6.10647e-05
5.26399e-05
0.000108533
0.000107477
0.000106166
0.000104669
0.00010289
0.000100802
9.84062e-05
9.56983e-05
9.26721e-05
8.93055e-05
8.556e-05
8.13913e-05
7.67464e-05
7.15562e-05
6.572e-05
5.91139e-05
5.1546e-05
0.000102439
0.000101475
0.000100302
9.89513e-05
9.73399e-05
9.5448e-05
9.32757e-05
9.08178e-05
8.80665e-05
8.50003e-05
8.15829e-05
7.77738e-05
7.35254e-05
6.87826e-05
6.34726e-05
5.75255e-05
9.6731e-05
9.5865e-05
9.48259e-05
9.35976e-05
9.21357e-05
9.04235e-05
8.84585e-05
8.62325e-05
8.37393e-05
8.09589e-05
7.78581e-05
7.44012e-05
7.05495e-05
6.6262e-05
6.14938e-05
5.62267e-05
9.06173e-05
8.97158e-05
8.85776e-05
8.72562e-05
8.57107e-05
8.39366e-05
8.19289e-05
7.96794e-05
7.71707e-05
7.43745e-05
7.12611e-05
6.78e-05
6.39655e-05
5.97372e-05
5.51366e-05
8.57174e-05
8.48927e-05
8.38763e-05
8.26869e-05
8.12921e-05
7.96986e-05
7.78964e-05
7.58752e-05
7.36244e-05
7.11199e-05
6.83374e-05
6.52553e-05
6.18604e-05
5.81527e-05
5.41788e-05
8.11215e-05
8.03849e-05
7.94861e-05
7.84068e-05
7.71556e-05
7.57322e-05
7.41185e-05
7.23114e-05
7.0304e-05
6.80763e-05
6.56086e-05
6.28877e-05
5.99101e-05
5.66905e-05
5.32876e-05
7.61643e-05
7.53817e-05
7.43989e-05
7.32841e-05
7.20125e-05
7.05735e-05
6.89678e-05
6.71898e-05
6.52223e-05
6.3051e-05
6.06689e-05
5.80799e-05
5.53066e-05
5.24108e-05
7.22182e-05
7.1515e-05
7.06484e-05
6.96541e-05
6.85219e-05
6.72481e-05
6.58314e-05
6.42664e-05
6.25404e-05
6.0644e-05
5.85742e-05
5.63398e-05
5.39666e-05
5.15133e-05
6.85216e-05
6.7899e-05
6.71378e-05
6.62493e-05
6.52484e-05
6.41284e-05
6.28845e-05
6.15142e-05
6.001e-05
5.83648e-05
5.6579e-05
5.46629e-05
5.26431e-05
5.057e-05
6.45057e-05
6.38505e-05
6.30528e-05
6.21743e-05
6.1193e-05
6.01056e-05
5.89131e-05
5.76102e-05
5.61933e-05
5.46627e-05
5.30284e-05
5.13166e-05
4.95682e-05
6.13258e-05
6.07414e-05
6.00466e-05
5.92814e-05
5.84259e-05
5.748e-05
5.64478e-05
5.53293e-05
5.41175e-05
5.28115e-05
5.14237e-05
4.99776e-05
4.8505e-05
5.83325e-05
5.7822e-05
5.72193e-05
5.65548e-05
5.58115e-05
5.49936e-05
5.41111e-05
5.31572e-05
5.21229e-05
5.10124e-05
4.98389e-05
4.8621e-05
4.73813e-05
5.55136e-05
5.50697e-05
5.45576e-05
5.39788e-05
5.33363e-05
5.26395e-05
5.18887e-05
5.10734e-05
5.01926e-05
4.92533e-05
4.82647e-05
4.72414e-05
4.61985e-05
5.24755e-05
5.2044e-05
5.15372e-05
5.09906e-05
5.03989e-05
4.97564e-05
4.90617e-05
4.83169e-05
4.75262e-05
4.66956e-05
4.5837e-05
4.49605e-05
5.00237e-05
4.96471e-05
4.92204e-05
4.87585e-05
4.82515e-05
4.77038e-05
4.71169e-05
4.64904e-05
4.58262e-05
4.51291e-05
4.44103e-05
4.3674e-05
4.76933e-05
4.73731e-05
4.70125e-05
4.66167e-05
4.61846e-05
4.57231e-05
4.52301e-05
4.47038e-05
4.41462e-05
4.35628e-05
4.29612e-05
4.54703e-05
4.51971e-05
4.48944e-05
4.45543e-05
4.41895e-05
4.38024e-05
4.33881e-05
4.29463e-05
4.24783e-05
4.19906e-05
4.14896e-05
4.3106e-05
4.2853e-05
4.25607e-05
4.22532e-05
4.19265e-05
4.15786e-05
4.12067e-05
4.08146e-05
4.04114e-05
3.99972e-05
4.10896e-05
4.08699e-05
4.06243e-05
4.03643e-05
4.00892e-05
3.97958e-05
3.94842e-05
3.91626e-05
3.88327e-05
3.84899e-05
3.91384e-05
3.89517e-05
3.8744e-05
3.85259e-05
3.82941e-05
3.80489e-05
3.77945e-05
3.75321e-05
3.72608e-05
3.69775e-05
3.72583e-05
3.71012e-05
3.69285e-05
3.67455e-05
3.65532e-05
3.63534e-05
3.61459e-05
3.59322e-05
3.57113e-05
3.54807e-05
3.54584e-05
3.53288e-05
3.51891e-05
3.50365e-05
3.48796e-05
3.47172e-05
3.45501e-05
3.43771e-05
3.41981e-05
3.40111e-05
3.36417e-05
3.35303e-05
3.34039e-05
3.3276e-05
3.31459e-05
3.30096e-05
3.28696e-05
3.27252e-05
3.25745e-05
3.20372e-05
3.19422e-05
3.18391e-05
3.17354e-05
3.16276e-05
3.15168e-05
3.14034e-05
3.12862e-05
3.11629e-05
3.04932e-05
3.04108e-05
3.03231e-05
3.02352e-05
3.01452e-05
3.00532e-05
2.99581e-05
2.98622e-05
2.89846e-05
2.89083e-05
2.88288e-05
2.87515e-05
2.86738e-05
2.85959e-05
2.85182e-05
2.84396e-05
2.74914e-05
2.74155e-05
2.73408e-05
2.727e-05
2.72021e-05
2.7136e-05
2.7071e-05
2.70072e-05
2.60114e-05
2.59353e-05
2.58675e-05
2.58015e-05
2.57408e-05
2.56845e-05
2.56325e-05
2.55841e-05
2.44818e-05
2.44149e-05
2.43522e-05
2.42979e-05
2.42502e-05
2.42088e-05
2.41727e-05
2.30916e-05
2.3023e-05
2.29643e-05
2.29144e-05
2.28719e-05
2.28371e-05
2.28106e-05
2.18031e-05
2.17301e-05
2.16701e-05
2.16194e-05
2.1577e-05
2.15445e-05
2.15227e-05
2.07556e-05
2.06799e-05
2.06191e-05
2.05669e-05
2.05252e-05
2.04945e-05
2.04743e-05
1.98596e-05
1.97876e-05
1.97288e-05
1.96815e-05
1.96429e-05
1.96117e-05
1.95907e-05
1.89301e-05
1.88561e-05
1.87967e-05
1.87469e-05
1.87044e-05
1.86747e-05
1.86542e-05
1.8018e-05
1.79363e-05
1.78634e-05
1.78e-05
1.77468e-05
1.77056e-05
1.70655e-05
1.69656e-05
1.6874e-05
1.67901e-05
1.67168e-05
1.66539e-05
1.59023e-05
1.57406e-05
1.55851e-05
1.54394e-05
1.53116e-05
1.5209e-05
1.42503e-05
1.39935e-05
1.37352e-05
1.34831e-05
1.3251e-05
1.22394e-05
1.19553e-05
1.17337e-05
1.15943e-05
1.15556e-05
1.12628e-05
1.09163e-05
1.06384e-05
1.0437e-05
1.03149e-05
1.76769e-05
1.83318e-05
1.89447e-05
1.95043e-05
2.00068e-05
2.64477e-05
2.66153e-05
2.67363e-05
2.68098e-05
2.68418e-05
3.7721e-05
3.78958e-05
3.80042e-05
3.80523e-05
3.80518e-05
)
;

boundaryField
{
    inlet
    {
        type            calculated;
        value           nonuniform List<scalar> 5(6.62935e-05 6.7091e-05 6.77837e-05 6.83774e-05 6.88772e-05);
    }
    outlet
    {
        type            calculated;
        value           nonuniform List<scalar> 0();
    }
    walls
    {
        type            calculated;
        value           uniform 0;
    }
    frontAndBack
    {
        type            empty;
    }
    procBoundary1to0
    {
        type            processor;
        value           nonuniform List<scalar> 
94
(
0.000933217
0.000933217
0.000853685
0.000853685
0.000777806
0.000777806
0.000705789
0.000705789
0.000638285
0.000638285
0.000576629
0.000576629
0.000526996
0.000478816
0.000478816
0.00044099
0.000402926
0.000402926
0.000373271
0.000346401
0.000318933
0.000318933
0.000297122
0.000274588
0.000274588
0.000256567
0.000239921
0.000222709
0.000222709
0.000208696
0.000195669
0.000182188
0.000182188
0.000171079
0.000159506
0.000159506
0.000149977
0.00014107
0.000131779
0.000131779
0.000124114
0.000116941
0.000109432
0.000109432
0.000103253
9.74691e-05
9.13827e-05
9.13827e-05
8.64056e-05
8.17434e-05
7.68164e-05
7.68164e-05
7.28008e-05
6.90352e-05
6.50512e-05
6.50512e-05
6.18036e-05
5.87497e-05
5.58769e-05
5.28526e-05
5.28526e-05
5.03463e-05
4.79681e-05
4.57044e-05
4.33369e-05
4.33369e-05
4.12865e-05
3.93061e-05
3.73985e-05
3.55709e-05
3.37455e-05
3.37455e-05
3.21204e-05
3.05645e-05
2.90506e-05
2.75574e-05
2.6079e-05
2.45576e-05
2.45576e-05
2.3168e-05
2.18841e-05
2.0838e-05
1.99368e-05
1.90078e-05
1.81005e-05
1.71619e-05
1.60565e-05
1.44977e-05
1.44977e-05
1.25612e-05
1.16592e-05
1.69755e-05
2.62409e-05
3.74724e-05
)
;
    }
    procBoundary1to2
    {
        type            processor;
        value           nonuniform List<scalar> 
84
(
0.245012
0.0403719
0.0189672
0.00397029
0.00058672
0.000199734
0.000108207
0.000147498
0.000162994
0.000148456
0.000150731
0.000145194
0.000143214
0.000139597
0.000136473
0.000132836
0.000129103
0.000125135
0.00012101
0.000116704
0.000112219
0.000107546
0.00010271
9.77366e-05
9.26327e-05
8.74007e-05
8.2075e-05
7.6692e-05
7.12981e-05
6.59375e-05
6.06892e-05
5.56871e-05
5.11377e-05
4.73062e-05
4.44985e-05
4.29178e-05
4.25038e-05
4.29133e-05
5.08898e-05
5.08898e-05
5.05096e-05
5.0278e-05
5.00848e-05
4.9852e-05
4.95317e-05
4.90994e-05
4.85439e-05
4.78642e-05
4.70689e-05
4.61692e-05
4.51746e-05
4.40951e-05
4.29442e-05
4.2348e-05
4.2348e-05
4.09776e-05
3.9571e-05
3.81344e-05
3.66844e-05
3.52422e-05
3.38167e-05
3.24185e-05
3.10377e-05
2.97638e-05
2.97638e-05
2.83595e-05
2.6945e-05
2.55381e-05
2.41417e-05
2.27913e-05
2.15112e-05
2.04649e-05
1.95797e-05
1.86454e-05
1.76689e-05
1.76689e-05
1.66014e-05
1.51345e-05
1.30484e-05
1.16197e-05
1.02572e-05
2.04417e-05
2.68408e-05
3.80139e-05
)
;
    }
    procBoundary1to5
    {
        type            processor;
        value           nonuniform List<scalar> 
13
(
0.0155658
0.0155658
0.0054836
0.00384271
0.00384271
0.00257395
0.00207651
0.00207651
0.0016127
0.00138162
0.00119944
0.00119944
0.00101297
)
;
    }
}


// ************************************************************************* //
