/*--------------------------------*- C++ -*----------------------------------*\
| =========                 |                                                 |
| \\      /  F ield         | OpenFOAM: The Open Source CFD Toolbox           |
|  \\    /   O peration     | Version:  2306                                  |
|   \\  /    A nd           | Website:  www.openfoam.com                      |
|    \\/     M anipulation  |                                                 |
\*---------------------------------------------------------------------------*/
FoamFile
{
    version     2.0;
    format      ascii;
    arch        "LSB;label=32;scalar=64";
    class       volScalarField;
    location    "125";
    object      turbulenceProperties:k;
}
// * * * * * * * * * * * * * * * * * * * * * * * * * * * * * * * * * * * * * //

dimensions      [0 2 -2 0 0 0 0];

internalField   nonuniform List<scalar> 
1340
(
0.00318619
0.00405784
0.00577117
0.00844319
0.0123305
0.0178443
0.0255693
0.036287
0.0513586
0.0731579
0.105969
0.157687
0.242093
0.388353
0.644968
1.14615
2.08609
4.22613
8.50481
19.3477
36.6406
48.6607
53.3017
54.4731
54.5446
54.091
53.2041
51.9232
0.00201019
0.00179419
0.00156818
0.00134402
0.00114069
0.000962756
0.0008078
0.000673039
0.000557555
0.000460409
0.000378192
0.000308913
0.000248058
0.000192087
0.000135923
7.99508e-05
3.0337e-05
6.26384e-06
0.000146015
0.00251462
0.0156482
0.102243
0.296188
0.539552
0.780347
0.98785
1.15796
1.30341
1.43648
0.00161799
0.00147187
0.00131807
0.00114593
0.000968357
0.000801246
0.00065264
0.000524946
0.000421067
0.000339216
0.000277267
0.000231786
0.000200001
0.000178322
0.000164365
0.000156556
0.000153894
0.000154777
0.000157729
0.000159112
0.000163324
9.96448e-05
0.00118279
0.00579837
0.0148816
0.0311441
0.0705568
0.143506
0.246219
0.00136671
0.001275
0.00117461
0.00106173
0.00094099
0.000822078
0.000712703
0.000615526
0.000530866
0.000459097
0.000398921
0.000349408
0.000309011
0.00027663
0.000250244
0.000228777
0.00021063
0.000194158
0.000176438
0.000157958
0.000142826
0.000131098
0.000124419
0.000105811
0.00011784
2.54992e-05
2.27485e-05
0.000395815
0.000626691
0.00372275
0.00108723
0.00102404
0.000953838
0.000874593
0.000789394
0.000702205
0.000617052
0.000536496
0.000461983
0.000395007
0.000336303
0.000286125
0.000244241
0.000210192
0.000182895
0.000161355
0.000144278
0.00013029
0.000117089
0.000103465
9.07622e-05
8.10502e-05
7.49002e-05
7.30979e-05
6.72403e-05
8.88562e-05
3.41763e-07
0.000177733
0.000741426
0.00052358
0.000919302
0.000878061
0.000833298
0.000782891
0.000725657
0.000663992
0.000600248
0.000537131
0.00047675
0.000420392
0.000369168
0.000323848
0.000284649
0.000251391
0.000223654
0.000200677
0.000181594
0.0001653
0.000150562
0.000135609
0.000119682
0.000104259
9.07176e-05
7.93614e-05
6.985e-05
6.19285e-05
5.50159e-05
4.73605e-05
3.76725e-05
1.72255e-05
9.76923e-07
0.000749763
0.000719745
0.000686897
0.000649693
0.000607794
0.00056269
0.000515617
0.000468085
0.000421413
0.000376516
0.000334296
0.000295525
0.000260643
0.000229877
0.000203254
0.000180484
0.000161129
0.000144509
0.000129734
0.000115508
0.000101059
8.71822e-05
7.49544e-05
6.47522e-05
5.63826e-05
4.97466e-05
4.50157e-05
4.21809e-05
3.99675e-05
3.44658e-05
2.38949e-05
0.000619219
0.000596895
0.000572206
0.000544143
0.000512984
0.000479514
0.000444321
0.000408399
0.000372598
0.000337558
0.000303984
0.000272596
0.00024384
0.000218057
0.000195377
0.000175661
0.000158564
0.000143546
0.00012987
0.000116547
0.00010301
8.98545e-05
7.79192e-05
6.74817e-05
5.83333e-05
5.02931e-05
4.33171e-05
3.72201e-05
3.18614e-05
2.73432e-05
2.4359e-05
0.000532192
0.00051693
0.000499932
0.000480983
0.000459526
0.000435995
0.00041083
0.000384305
0.000356988
0.000329401
0.000301938
0.000275073
0.000249339
0.000225167
0.00020288
0.000182689
0.000164628
0.000148557
0.000134141
0.000120872
0.000108083
9.53656e-05
8.3081e-05
7.19026e-05
6.21334e-05
5.36672e-05
4.6364e-05
4.02158e-05
3.52883e-05
3.15019e-05
2.87844e-05
2.71604e-05
0.000435425
0.000422165
0.000407392
0.000390806
0.000372845
0.000353675
0.000333473
0.000312585
0.000291276
0.000269758
0.000248378
0.000227526
0.000207536
0.000188739
0.000171345
0.000155464
0.000141058
0.000127911
0.000115664
0.000103859
9.21819e-05
8.08873e-05
7.04957e-05
6.12665e-05
5.31228e-05
4.59317e-05
3.96537e-05
3.42519e-05
2.9671e-05
2.60176e-05
2.32645e-05
0.000359025
0.000347347
0.000334394
0.000320517
0.000305814
0.000290276
0.000274177
0.000257659
0.000240807
0.000223809
0.000206941
0.000190448
0.000174587
0.000159584
0.000145564
0.000132546
0.000120431
0.000108997
9.79485e-05
8.70913e-05
7.66123e-05
6.69071e-05
5.82203e-05
5.05327e-05
4.37614e-05
3.78901e-05
3.29464e-05
2.89128e-05
2.58502e-05
2.36536e-05
0.000297846
0.000287638
0.000276823
0.000265407
0.000253375
0.0002409
0.000228046
0.000214812
0.00020132
0.000187731
0.000174203
0.000160941
0.000148121
0.000135895
0.000124329
0.000113384
0.000102918
9.27515e-05
8.27951e-05
7.31813e-05
6.42151e-05
5.61085e-05
4.88709e-05
4.24419e-05
3.68042e-05
3.19592e-05
2.78861e-05
2.46666e-05
2.2284e-05
0.00024853
0.000240041
0.000231125
0.000221743
0.000212001
0.00020195
0.000191557
0.000180837
0.000169899
0.000158839
0.000147801
0.00013692
0.000126325
0.000116099
0.000106244
9.66946e-05
8.73645e-05
7.82248e-05
6.9392e-05
6.10987e-05
5.35343e-05
4.67343e-05
4.06672e-05
3.53303e-05
3.07412e-05
2.69093e-05
2.38951e-05
2.16809e-05
0.000208858
0.000201867
0.000194495
0.000186858
0.000178971
0.000170775
0.000162264
0.000153474
0.000144453
0.000135302
0.000126122
0.000117012
0.000108044
9.92548e-05
9.0627e-05
8.21447e-05
7.38192e-05
6.57502e-05
5.81273e-05
5.11122e-05
4.47553e-05
3.90467e-05
3.39907e-05
2.96058e-05
2.58984e-05
2.29288e-05
2.06977e-05
0.000176725
0.000170986
0.000164938
0.000158709
0.00015223
0.000145458
0.0001384
0.000131063
0.000123501
0.000115783
0.000107986
0.000100181
9.24088e-05
8.46766e-05
7.69963e-05
6.94274e-05
6.20733e-05
5.50828e-05
4.85932e-05
4.26653e-05
3.73083e-05
3.25357e-05
2.83749e-05
2.48409e-05
2.19895e-05
1.98209e-05
0.000155106
0.000150545
0.000145785
0.000140846
0.000135699
0.0001303
0.000124617
0.00011865
0.000112417
0.00010596
9.93287e-05
9.25772e-05
8.57477e-05
7.88618e-05
7.19633e-05
6.51265e-05
5.84537e-05
5.20673e-05
4.60882e-05
4.0582e-05
3.55715e-05
3.10775e-05
2.71326e-05
2.37524e-05
2.09891e-05
1.88504e-05
0.00013275
0.000129024
0.000125058
0.000120954
0.000116635
0.000112063
0.000107211
0.000102089
9.67055e-05
9.10942e-05
8.52891e-05
7.9323e-05
7.32273e-05
6.70614e-05
6.09137e-05
5.48765e-05
4.90615e-05
4.35721e-05
3.84744e-05
3.3802e-05
2.95823e-05
2.58522e-05
2.2631e-05
1.99674e-05
1.78734e-05
0.000117241
0.000114267
0.000111115
0.000107816
0.000104348
0.000100661
9.67193e-05
9.25134e-05
8.80383e-05
8.33039e-05
7.8336e-05
7.31608e-05
6.78036e-05
6.232e-05
5.68064e-05
5.13676e-05
4.60945e-05
4.10749e-05
3.63737e-05
3.20315e-05
2.80805e-05
2.45608e-05
2.14942e-05
1.89254e-05
1.68709e-05
0.000101273
9.87857e-05
9.61085e-05
9.33183e-05
9.03412e-05
8.71362e-05
8.3682e-05
7.99663e-05
7.59877e-05
7.17519e-05
6.72756e-05
6.25837e-05
5.77365e-05
5.28262e-05
4.79467e-05
4.31807e-05
3.8606e-05
3.42848e-05
3.02616e-05
2.65722e-05
2.32588e-05
2.03452e-05
1.78726e-05
1.58604e-05
8.98294e-05
8.78359e-05
8.56946e-05
8.34383e-05
8.10212e-05
7.84089e-05
7.55712e-05
7.2485e-05
6.91433e-05
6.55455e-05
6.1695e-05
5.76074e-05
5.33413e-05
4.89846e-05
4.46216e-05
4.0329e-05
3.61748e-05
3.22169e-05
2.85011e-05
2.50653e-05
2.19524e-05
1.91884e-05
1.6811e-05
1.48416e-05
7.97406e-05
7.81385e-05
7.64189e-05
7.45804e-05
7.26114e-05
7.0476e-05
6.81406e-05
6.55794e-05
6.27777e-05
5.97253e-05
5.64246e-05
5.28829e-05
4.91457e-05
4.52908e-05
4.14029e-05
3.75506e-05
3.37911e-05
3.01773e-05
2.67549e-05
2.35629e-05
2.06437e-05
1.80254e-05
1.57432e-05
1.3818e-05
6.9524e-05
6.81665e-05
6.66419e-05
6.50314e-05
6.32816e-05
6.13546e-05
5.92264e-05
5.68796e-05
5.42998e-05
5.14772e-05
4.84151e-05
4.51515e-05
4.17574e-05
3.83064e-05
3.48589e-05
3.14663e-05
2.81757e-05
2.50315e-05
2.20726e-05
1.934e-05
1.68621e-05
1.46734e-05
1.27932e-05
6.18853e-05
6.07772e-05
5.95466e-05
5.82151e-05
5.67712e-05
5.51784e-05
5.34081e-05
5.14418e-05
4.92629e-05
4.68555e-05
4.42161e-05
4.13759e-05
3.83953e-05
3.53409e-05
3.22628e-05
2.92097e-05
2.62221e-05
2.33415e-05
2.06054e-05
1.80522e-05
1.57091e-05
1.36121e-05
1.1778e-05
5.41894e-05
5.32055e-05
5.20838e-05
5.08923e-05
4.95738e-05
4.80998e-05
4.64523e-05
4.46122e-05
4.25607e-05
4.02893e-05
3.78219e-05
3.52099e-05
3.25109e-05
2.97727e-05
2.70326e-05
2.43275e-05
2.16951e-05
1.91701e-05
1.67882e-05
1.45775e-05
1.25706e-05
1.0783e-05
4.83181e-05
4.75081e-05
4.65882e-05
4.55993e-05
4.45011e-05
4.327e-05
4.18847e-05
4.03278e-05
3.85792e-05
3.66278e-05
3.44893e-05
3.22076e-05
2.98288e-05
2.73975e-05
2.49435e-05
2.24995e-05
2.00982e-05
1.77721e-05
1.55533e-05
1.3471e-05
1.15525e-05
9.813e-06
4.30857e-05
4.2423e-05
4.16669e-05
4.08345e-05
3.99136e-05
3.88813e-05
3.77146e-05
3.63963e-05
3.49056e-05
3.32291e-05
3.13776e-05
2.93866e-05
2.72959e-05
2.51404e-05
2.29474e-05
2.07435e-05
1.8557e-05
1.6418e-05
1.43545e-05
1.23947e-05
1.05624e-05
8.87221e-06
3.78707e-05
3.72621e-05
3.65445e-05
3.57727e-05
3.49037e-05
3.39186e-05
3.28019e-05
3.15323e-05
3.00928e-05
2.84919e-05
2.67562e-05
2.49196e-05
2.30113e-05
2.10538e-05
1.90691e-05
1.70818e-05
1.51175e-05
1.32012e-05
1.13588e-05
9.61074e-06
7.97085e-06
3.38076e-05
3.32934e-05
3.26962e-05
3.2045e-05
3.13102e-05
3.04773e-05
2.95289e-05
2.84452e-05
2.72082e-05
2.58227e-05
2.43101e-05
2.26977e-05
2.10098e-05
1.92652e-05
1.7481e-05
1.56781e-05
1.38776e-05
1.21014e-05
1.03723e-05
8.70723e-06
7.11852e-06
3.01778e-05
2.9748e-05
2.92506e-05
2.86936e-05
2.80702e-05
2.73636e-05
2.65564e-05
2.56282e-05
2.45627e-05
2.33627e-05
2.2044e-05
2.06302e-05
1.9139e-05
1.75864e-05
1.59851e-05
1.43518e-05
1.27045e-05
1.10609e-05
9.441e-06
7.858e-06
6.32236e-06
2.6573e-05
2.61709e-05
2.56826e-05
2.51507e-05
2.45489e-05
2.38595e-05
2.30625e-05
2.21436e-05
2.11042e-05
1.99559e-05
1.87158e-05
1.73998e-05
1.60189e-05
1.45835e-05
1.31061e-05
1.16013e-05
1.00836e-05
8.56912e-06
7.06844e-06
5.58802e-06
2.37388e-05
2.33932e-05
2.29856e-05
2.25279e-05
2.20118e-05
2.14201e-05
2.07345e-05
1.99408e-05
1.90389e-05
1.80386e-05
1.69515e-05
1.57905e-05
1.45637e-05
1.32782e-05
1.19439e-05
1.05719e-05
9.1739e-06
7.76171e-06
6.34364e-06
4.92179e-06
2.09105e-05
2.05769e-05
2.01708e-05
1.97276e-05
1.92193e-05
1.86283e-05
1.79418e-05
1.71588e-05
1.62863e-05
1.53333e-05
1.43092e-05
1.32199e-05
1.20704e-05
1.08677e-05
9.61989e-06
8.33553e-06
7.02363e-06
5.68966e-06
4.33165e-06
1.86937e-05
1.84045e-05
1.80591e-05
1.76776e-05
1.72384e-05
1.67278e-05
1.61329e-05
1.54524e-05
1.46908e-05
1.38549e-05
1.29517e-05
1.19858e-05
1.09597e-05
9.87791e-06
8.74623e-06
7.57081e-06
6.3578e-06
5.11077e-06
3.82408e-06
1.6713e-05
1.64664e-05
1.61729e-05
1.58397e-05
1.54596e-05
1.50173e-05
1.45002e-05
1.39071e-05
1.3242e-05
1.25091e-05
1.17136e-05
1.08581e-05
9.94386e-06
8.9733e-06
7.95069e-06
6.87997e-06
5.76488e-06
4.60819e-06
3.40252e-06
1.4733e-05
1.44906e-05
1.41922e-05
1.38629e-05
1.34794e-05
1.30296e-05
1.25126e-05
1.19317e-05
1.12893e-05
1.05892e-05
9.83269e-06
9.02012e-06
8.15258e-06
7.23226e-06
6.26225e-06
5.24464e-06
4.18176e-06
3.06818e-06
1.31879e-05
1.29751e-05
1.27196e-05
1.2434e-05
1.20999e-05
1.17083e-05
1.12581e-05
1.07507e-05
1.01879e-05
9.57241e-06
8.90487e-06
8.1848e-06
7.41205e-06
6.58797e-06
5.71487e-06
4.7942e-06
3.82905e-06
2.81821e-06
1.18079e-05
1.1625e-05
1.14067e-05
1.11558e-05
1.08651e-05
1.05246e-05
1.01318e-05
9.68871e-06
9.19593e-06
8.65571e-06
8.0683e-06
7.43241e-06
6.74722e-06
6.01386e-06
5.23383e-06
4.409e-06
3.54453e-06
2.64451e-06
1.04195e-05
1.02378e-05
1.00134e-05
9.76063e-06
9.46433e-06
9.1219e-06
8.73507e-06
8.30468e-06
7.83198e-06
7.31684e-06
6.75757e-06
6.15344e-06
5.50492e-06
4.81376e-06
4.08265e-06
3.31897e-06
2.53367e-06
9.34635e-06
9.18657e-06
8.99368e-06
8.77456e-06
8.51653e-06
8.21831e-06
7.88148e-06
7.5064e-06
7.09394e-06
6.64375e-06
6.1542e-06
5.62454e-06
5.05509e-06
4.44801e-06
3.80705e-06
3.14141e-06
8.38839e-06
8.25062e-06
8.08668e-06
7.89513e-06
7.67021e-06
7.41101e-06
7.11848e-06
6.79239e-06
6.4337e-06
6.04195e-06
5.61563e-06
5.15408e-06
4.65788e-06
4.12945e-06
3.5734e-06
3.00053e-06
7.41636e-06
7.28027e-06
7.10949e-06
6.9143e-06
6.68972e-06
6.4362e-06
6.15396e-06
5.84337e-06
5.50412e-06
5.13498e-06
4.73553e-06
4.30648e-06
3.85065e-06
3.3732e-06
2.88553e-06
6.67413e-06
6.55449e-06
6.40829e-06
6.23972e-06
6.0452e-06
5.82671e-06
5.58363e-06
5.31577e-06
5.02353e-06
4.7059e-06
4.36258e-06
3.99449e-06
3.60464e-06
3.19848e-06
2.78711e-06
6.01043e-06
5.90796e-06
5.78408e-06
5.63726e-06
5.46986e-06
5.28266e-06
5.07376e-06
4.84386e-06
4.59354e-06
4.32197e-06
4.02892e-06
3.71555e-06
3.38482e-06
3.04219e-06
2.69777e-06
5.3307e-06
5.22748e-06
5.09913e-06
4.9561e-06
4.79563e-06
4.61684e-06
4.42073e-06
4.20772e-06
3.97707e-06
3.72872e-06
3.46391e-06
3.18551e-06
2.89856e-06
2.61189e-06
4.81592e-06
4.72697e-06
4.61854e-06
4.49616e-06
4.35907e-06
4.20719e-06
4.04104e-06
3.86086e-06
3.66617e-06
3.45713e-06
3.23493e-06
3.00216e-06
2.76331e-06
2.52581e-06
4.35571e-06
4.28022e-06
4.18896e-06
4.08403e-06
3.96774e-06
3.83958e-06
3.69946e-06
3.54779e-06
3.38448e-06
3.20964e-06
3.0244e-06
2.83099e-06
2.63327e-06
2.43715e-06
3.87984e-06
3.80463e-06
3.71419e-06
3.61625e-06
3.50845e-06
3.39077e-06
3.26385e-06
3.12766e-06
2.98248e-06
2.82905e-06
2.6692e-06
2.50628e-06
2.34481e-06
3.52138e-06
3.45702e-06
3.3815e-06
3.29965e-06
3.20942e-06
3.11105e-06
3.0054e-06
2.89284e-06
2.77311e-06
2.64659e-06
2.5151e-06
2.38138e-06
2.24877e-06
3.1988e-06
3.14492e-06
3.08209e-06
3.01388e-06
2.9386e-06
2.85686e-06
2.77e-06
2.67758e-06
2.57901e-06
2.47508e-06
2.36741e-06
2.25808e-06
2.14939e-06
2.90832e-06
2.86339e-06
2.81222e-06
2.75519e-06
2.69269e-06
2.6258e-06
2.55474e-06
2.47867e-06
2.39772e-06
2.31282e-06
2.22505e-06
2.13598e-06
2.04707e-06
2.60942e-06
2.56811e-06
2.52014e-06
2.4691e-06
2.41454e-06
2.35604e-06
2.29363e-06
2.22766e-06
2.15869e-06
2.0874e-06
2.015e-06
1.94247e-06
2.37962e-06
2.34501e-06
2.30628e-06
2.26489e-06
2.21995e-06
2.172e-06
2.12127e-06
2.06782e-06
2.01194e-06
1.95415e-06
1.89553e-06
1.83648e-06
2.17041e-06
2.1422e-06
2.1108e-06
2.07674e-06
2.03996e-06
2.00114e-06
1.96016e-06
1.91694e-06
1.87173e-06
1.82508e-06
1.77768e-06
1.97927e-06
1.95618e-06
1.93091e-06
1.90281e-06
1.87301e-06
1.84175e-06
1.80865e-06
1.77377e-06
1.73724e-06
1.69967e-06
1.66161e-06
1.78487e-06
1.76463e-06
1.74146e-06
1.71737e-06
1.69205e-06
1.66537e-06
1.63716e-06
1.60774e-06
1.57787e-06
1.5476e-06
1.62663e-06
1.60979e-06
1.59114e-06
1.57161e-06
1.55117e-06
1.52959e-06
1.50692e-06
1.48378e-06
1.46034e-06
1.43628e-06
1.48004e-06
1.46633e-06
1.45124e-06
1.43555e-06
1.41906e-06
1.40179e-06
1.38407e-06
1.36601e-06
1.34754e-06
1.32847e-06
1.34494e-06
1.3339e-06
1.32189e-06
1.30931e-06
1.29622e-06
1.28277e-06
1.26896e-06
1.25489e-06
1.24052e-06
1.22567e-06
1.22131e-06
1.21261e-06
1.20333e-06
1.1933e-06
1.1831e-06
1.17267e-06
1.16205e-06
1.15118e-06
1.14005e-06
1.12856e-06
1.10226e-06
1.09521e-06
1.08727e-06
1.07933e-06
1.07135e-06
1.06309e-06
1.0547e-06
1.04614e-06
1.03731e-06
1.00199e-06
9.96229e-07
9.90042e-07
9.83908e-07
9.77598e-07
9.71188e-07
9.64716e-07
9.58099e-07
9.51216e-07
9.09779e-07
9.05004e-07
8.99979e-07
8.95004e-07
8.89978e-07
8.84905e-07
8.79726e-07
8.74579e-07
8.23751e-07
8.19521e-07
8.15164e-07
8.10988e-07
8.06848e-07
8.02752e-07
7.98731e-07
7.94722e-07
7.42571e-07
7.38544e-07
7.34638e-07
7.30983e-07
7.27536e-07
7.24233e-07
7.21042e-07
7.17963e-07
6.66036e-07
6.62191e-07
6.58814e-07
6.55568e-07
6.52635e-07
6.49967e-07
6.47555e-07
6.45365e-07
5.91077e-07
5.87908e-07
5.84975e-07
5.82483e-07
5.80342e-07
5.78535e-07
5.77019e-07
5.26696e-07
5.23608e-07
5.21006e-07
5.1883e-07
5.17019e-07
5.15587e-07
5.14554e-07
4.70138e-07
4.6702e-07
4.64488e-07
4.62388e-07
4.60665e-07
4.59391e-07
4.58596e-07
4.26439e-07
4.23348e-07
4.20899e-07
4.18825e-07
4.17199e-07
4.16046e-07
4.15339e-07
3.90779e-07
3.87956e-07
3.85679e-07
3.83874e-07
3.82431e-07
3.81294e-07
3.80572e-07
3.55375e-07
3.52603e-07
3.504e-07
3.48578e-07
3.47049e-07
3.4601e-07
3.45334e-07
3.2224e-07
3.19319e-07
3.16739e-07
3.14521e-07
3.12679e-07
3.11283e-07
2.89324e-07
2.85934e-07
2.82858e-07
2.80069e-07
2.77656e-07
2.75611e-07
2.51429e-07
2.4633e-07
2.41485e-07
2.36997e-07
2.33108e-07
2.30024e-07
2.02019e-07
1.94795e-07
1.87669e-07
1.8085e-07
1.74693e-07
1.49084e-07
1.42227e-07
1.36995e-07
1.33755e-07
1.32866e-07
1.26229e-07
1.18565e-07
1.12595e-07
1.08369e-07
1.05849e-07
3.10728e-07
3.34103e-07
3.56754e-07
3.78091e-07
3.97797e-07
6.97285e-07
7.06197e-07
7.12694e-07
7.16709e-07
7.1852e-07
1.41856e-06
1.43173e-06
1.44004e-06
1.44389e-06
1.44416e-06
)
;

boundaryField
{
    inlet
    {
        type            calculated;
        value           nonuniform List<scalar> 5(4.42399e-06 4.53103e-06 4.6252e-06 4.70683e-06 4.7763e-06);
    }
    outlet
    {
        type            calculated;
        value           nonuniform List<scalar> 0();
    }
    walls
    {
        type            calculated;
        value           uniform 0;
    }
    frontAndBack
    {
        type            empty;
    }
    procBoundary1to0
    {
        type            processor;
        value           nonuniform List<scalar> 
94
(
0.000447562
0.000447562
0.00036955
0.00036955
0.000307193
0.000307193
0.000256673
0.000256673
0.000215601
0.000215601
0.000182285
0.000182285
0.000159523
0.00013638
0.00013638
0.000120136
0.000103656
0.000103656
9.17542e-05
8.13027e-05
7.0821e-05
7.0821e-05
6.29414e-05
5.50898e-05
5.50898e-05
4.90625e-05
4.37062e-05
3.84174e-05
3.84174e-05
3.42689e-05
3.05703e-05
2.69332e-05
2.69332e-05
2.40483e-05
2.12004e-05
2.12004e-05
1.89448e-05
1.69315e-05
1.49422e-05
1.49422e-05
1.33702e-05
1.19674e-05
1.05755e-05
1.05755e-05
9.48226e-06
8.50705e-06
7.53317e-06
7.53317e-06
6.77496e-06
6.09787e-06
5.41765e-06
5.41765e-06
4.89041e-06
4.41864e-06
3.94322e-06
3.94322e-06
3.57459e-06
3.24335e-06
2.9455e-06
2.64602e-06
2.64602e-06
2.40963e-06
2.19493e-06
1.99928e-06
1.80357e-06
1.80357e-06
1.64192e-06
1.4925e-06
1.35491e-06
1.22896e-06
1.10893e-06
1.10893e-06
1.00709e-06
9.13962e-07
8.27455e-07
7.46107e-07
6.69485e-07
5.94712e-07
5.94712e-07
5.30173e-07
4.73633e-07
4.29837e-07
3.93833e-07
3.58315e-07
3.25221e-07
2.92625e-07
2.56356e-07
2.09115e-07
2.09115e-07
1.57051e-07
1.35296e-07
2.8664e-07
6.86405e-07
1.40009e-06
)
;
    }
    procBoundary1to2
    {
        type            processor;
        value           nonuniform List<scalar> 
84
(
50.3189
1.57301
0.36682
0.0165161
0.000358103
4.14961e-05
1.21272e-05
2.24827e-05
2.73661e-05
2.2636e-05
2.32617e-05
2.15165e-05
2.08665e-05
1.97619e-05
1.88256e-05
1.77769e-05
1.67366e-05
1.56722e-05
1.46081e-05
1.35431e-05
1.24822e-05
1.14285e-05
1.03918e-05
9.38173e-06
8.40315e-06
7.45994e-06
6.56104e-06
5.7142e-06
4.92695e-06
4.20457e-06
3.55458e-06
2.98719e-06
2.5148e-06
2.14889e-06
1.89894e-06
1.76454e-06
1.7292e-06
1.76155e-06
2.4682e-06
2.4682e-06
2.43077e-06
2.40846e-06
2.39049e-06
2.36939e-06
2.34059e-06
2.3019e-06
2.25248e-06
2.19251e-06
2.12315e-06
2.04582e-06
1.96179e-06
1.87235e-06
1.77907e-06
1.73013e-06
1.73013e-06
1.62327e-06
1.51686e-06
1.41162e-06
1.30898e-06
1.2105e-06
1.11675e-06
1.02828e-06
9.44322e-07
8.69363e-07
8.69363e-07
7.90695e-07
7.15022e-07
6.43345e-07
5.75779e-07
5.13881e-07
4.58266e-07
4.15092e-07
3.8026e-07
3.45103e-07
3.10059e-07
3.10059e-07
2.73929e-07
2.27812e-07
1.69412e-07
1.34351e-07
1.04673e-07
4.15278e-07
7.18577e-07
1.4417e-06
)
;
    }
    procBoundary1to5
    {
        type            processor;
        value           nonuniform List<scalar> 
13
(
0.00322218
0.00322218
0.00223888
0.00176708
0.00176708
0.00144987
0.00114466
0.00114466
0.000952634
0.000774855
0.000638679
0.000638679
0.000544939
)
;
    }
}


// ************************************************************************* //
