/*--------------------------------*- C++ -*----------------------------------*\
| =========                 |                                                 |
| \\      /  F ield         | OpenFOAM: The Open Source CFD Toolbox           |
|  \\    /   O peration     | Version:  2306                                  |
|   \\  /    A nd           | Website:  www.openfoam.com                      |
|    \\/     M anipulation  |                                                 |
\*---------------------------------------------------------------------------*/
FoamFile
{
    version     2.0;
    format      ascii;
    arch        "LSB;label=32;scalar=64";
    class       volScalarField;
    location    "125";
    object      turbulenceProperties:nuEff;
}
// * * * * * * * * * * * * * * * * * * * * * * * * * * * * * * * * * * * * * //

dimensions      [0 2 -1 0 0 0 0];

internalField   nonuniform List<scalar> 
1340
(
1.7921e-05
2.00883e-05
2.39065e-05
3.0142e-05
4.01003e-05
5.5409e-05
7.78022e-05
0.000108541
0.000149587
0.000205344
0.000285026
0.000406114
0.00059834
0.000924379
0.00148386
0.0025572
0.00453246
0.00898776
0.0178065
0.0400632
0.0753409
0.0996861
0.109104
0.111732
0.112429
0.112368
0.111716
0.110563
1.59878e-05
1.59621e-05
1.5842e-05
1.56684e-05
1.54588e-05
1.52209e-05
1.49592e-05
1.4674e-05
1.43522e-05
1.39917e-05
1.35649e-05
1.3069e-05
1.24709e-05
1.17814e-05
1.10283e-05
1.03916e-05
1.00593e-05
1.00025e-05
1.12954e-05
0.000160593
0.000932947
0.00582503
0.0171791
0.0325621
0.0476264
0.0586157
0.0650278
0.068538
0.0707186
1.61332e-05
1.61383e-05
1.61516e-05
1.61708e-05
1.61929e-05
1.62165e-05
1.62436e-05
1.62733e-05
1.63068e-05
1.63438e-05
1.6386e-05
1.64344e-05
1.64927e-05
1.65641e-05
1.66555e-05
1.67753e-05
1.69366e-05
1.71244e-05
1.72848e-05
1.69952e-05
1.66273e-05
1.24887e-05
0.000179406
0.00109622
0.00380376
0.00895507
0.0162964
0.0249919
0.034021
1.6102e-05
1.61043e-05
1.61038e-05
1.6102e-05
1.60998e-05
1.6097e-05
1.6094e-05
1.60907e-05
1.60877e-05
1.60848e-05
1.6082e-05
1.60796e-05
1.60773e-05
1.60752e-05
1.60733e-05
1.60712e-05
1.6069e-05
1.60661e-05
1.60643e-05
1.60616e-05
1.60773e-05
1.60424e-05
1.62746e-05
1.54571e-05
1.88403e-05
1.07286e-05
1.12602e-05
0.000316509
0.0013558
0.00374576
1.61076e-05
1.61078e-05
1.61087e-05
1.611e-05
1.61115e-05
1.61129e-05
1.61142e-05
1.61156e-05
1.61169e-05
1.61183e-05
1.61198e-05
1.61215e-05
1.61233e-05
1.61254e-05
1.61277e-05
1.61302e-05
1.6133e-05
1.61361e-05
1.61396e-05
1.61444e-05
1.61488e-05
1.61633e-05
1.61425e-05
1.63043e-05
1.553e-05
1.99785e-05
1.00002e-05
5.7061e-05
0.000331939
0.000278471
1.61076e-05
1.61066e-05
1.61073e-05
1.61088e-05
1.61103e-05
1.61114e-05
1.61123e-05
1.6113e-05
1.61137e-05
1.61141e-05
1.61145e-05
1.61148e-05
1.61152e-05
1.61154e-05
1.61157e-05
1.61159e-05
1.61159e-05
1.61159e-05
1.61157e-05
1.6115e-05
1.61144e-05
1.61144e-05
1.61148e-05
1.61159e-05
1.61178e-05
1.61195e-05
1.61461e-05
1.60515e-05
1.54652e-05
1.18009e-05
1.00095e-05
1.61081e-05
1.61073e-05
1.6108e-05
1.61093e-05
1.61107e-05
1.61119e-05
1.61129e-05
1.61138e-05
1.61146e-05
1.61151e-05
1.61157e-05
1.61162e-05
1.61168e-05
1.61174e-05
1.61181e-05
1.61189e-05
1.61198e-05
1.61208e-05
1.61219e-05
1.61232e-05
1.61248e-05
1.61267e-05
1.61291e-05
1.61323e-05
1.61357e-05
1.61415e-05
1.6137e-05
1.62046e-05
1.61985e-05
1.51114e-05
1.2755e-05
1.61078e-05
1.6107e-05
1.61078e-05
1.61091e-05
1.61105e-05
1.61117e-05
1.61127e-05
1.61136e-05
1.61143e-05
1.61149e-05
1.61155e-05
1.61159e-05
1.61164e-05
1.61169e-05
1.61174e-05
1.6118e-05
1.61185e-05
1.61191e-05
1.61197e-05
1.61204e-05
1.6121e-05
1.61216e-05
1.61224e-05
1.61231e-05
1.61239e-05
1.61243e-05
1.61252e-05
1.6127e-05
1.61196e-05
1.61099e-05
1.64412e-05
1.61098e-05
1.61074e-05
1.61066e-05
1.61074e-05
1.61087e-05
1.611e-05
1.61111e-05
1.61122e-05
1.61131e-05
1.61139e-05
1.61145e-05
1.61151e-05
1.61156e-05
1.61161e-05
1.61167e-05
1.61172e-05
1.61178e-05
1.61185e-05
1.61192e-05
1.612e-05
1.61209e-05
1.61219e-05
1.61232e-05
1.61247e-05
1.61265e-05
1.61286e-05
1.61311e-05
1.6134e-05
1.61375e-05
1.61412e-05
1.61349e-05
1.61864e-05
1.61067e-05
1.6106e-05
1.61067e-05
1.6108e-05
1.61093e-05
1.61104e-05
1.61114e-05
1.61123e-05
1.61132e-05
1.61139e-05
1.61145e-05
1.61151e-05
1.61156e-05
1.61161e-05
1.61167e-05
1.61172e-05
1.61178e-05
1.61185e-05
1.61192e-05
1.612e-05
1.61209e-05
1.6122e-05
1.61232e-05
1.61246e-05
1.61261e-05
1.61279e-05
1.61297e-05
1.61321e-05
1.61341e-05
1.61378e-05
1.61207e-05
1.61053e-05
1.6106e-05
1.61072e-05
1.61084e-05
1.61095e-05
1.61105e-05
1.61115e-05
1.61123e-05
1.61131e-05
1.61138e-05
1.61144e-05
1.61149e-05
1.61155e-05
1.6116e-05
1.61166e-05
1.61172e-05
1.61178e-05
1.61185e-05
1.61193e-05
1.61203e-05
1.61214e-05
1.61227e-05
1.61242e-05
1.6126e-05
1.6128e-05
1.61303e-05
1.61332e-05
1.61354e-05
1.61419e-05
1.61268e-05
1.61051e-05
1.61062e-05
1.61074e-05
1.61085e-05
1.61096e-05
1.61105e-05
1.61114e-05
1.61122e-05
1.61129e-05
1.61135e-05
1.61141e-05
1.61147e-05
1.61152e-05
1.61158e-05
1.61163e-05
1.61169e-05
1.61176e-05
1.61184e-05
1.61193e-05
1.61203e-05
1.61216e-05
1.6123e-05
1.61247e-05
1.61266e-05
1.61287e-05
1.61311e-05
1.61336e-05
1.61378e-05
1.61358e-05
1.61052e-05
1.61063e-05
1.61074e-05
1.61085e-05
1.61095e-05
1.61104e-05
1.61112e-05
1.61119e-05
1.61126e-05
1.61132e-05
1.61137e-05
1.61143e-05
1.61148e-05
1.61153e-05
1.61159e-05
1.61166e-05
1.61174e-05
1.61183e-05
1.61194e-05
1.61206e-05
1.61221e-05
1.61237e-05
1.61257e-05
1.61278e-05
1.61303e-05
1.61331e-05
1.61361e-05
1.61396e-05
1.61052e-05
1.61063e-05
1.61074e-05
1.61084e-05
1.61093e-05
1.61101e-05
1.61108e-05
1.61115e-05
1.61121e-05
1.61127e-05
1.61132e-05
1.61138e-05
1.61143e-05
1.6115e-05
1.61157e-05
1.61164e-05
1.61174e-05
1.61184e-05
1.61197e-05
1.61211e-05
1.61227e-05
1.61246e-05
1.61267e-05
1.61291e-05
1.61318e-05
1.61347e-05
1.61386e-05
1.61051e-05
1.61062e-05
1.61072e-05
1.61081e-05
1.61089e-05
1.61097e-05
1.61104e-05
1.6111e-05
1.61116e-05
1.61122e-05
1.61128e-05
1.61134e-05
1.6114e-05
1.61147e-05
1.61155e-05
1.61164e-05
1.61174e-05
1.61186e-05
1.612e-05
1.61216e-05
1.61234e-05
1.61255e-05
1.61278e-05
1.61305e-05
1.61334e-05
1.61369e-05
1.61039e-05
1.6105e-05
1.6106e-05
1.61069e-05
1.61077e-05
1.61085e-05
1.61092e-05
1.61099e-05
1.61105e-05
1.61112e-05
1.61118e-05
1.61124e-05
1.6113e-05
1.61137e-05
1.61144e-05
1.61153e-05
1.61163e-05
1.61174e-05
1.61187e-05
1.61202e-05
1.61219e-05
1.61239e-05
1.61262e-05
1.61287e-05
1.61316e-05
1.61349e-05
1.61037e-05
1.61048e-05
1.61057e-05
1.61065e-05
1.61073e-05
1.61081e-05
1.61088e-05
1.61094e-05
1.61101e-05
1.61107e-05
1.61113e-05
1.61119e-05
1.61125e-05
1.61132e-05
1.6114e-05
1.6115e-05
1.6116e-05
1.61173e-05
1.61187e-05
1.61204e-05
1.61223e-05
1.61244e-05
1.61269e-05
1.61297e-05
1.61328e-05
1.61025e-05
1.61035e-05
1.61045e-05
1.61053e-05
1.61061e-05
1.61069e-05
1.61076e-05
1.61083e-05
1.61089e-05
1.61095e-05
1.61101e-05
1.61107e-05
1.61113e-05
1.6112e-05
1.61128e-05
1.61137e-05
1.61147e-05
1.61159e-05
1.61173e-05
1.61189e-05
1.61207e-05
1.61227e-05
1.61251e-05
1.61278e-05
1.61308e-05
1.61023e-05
1.61032e-05
1.61041e-05
1.61049e-05
1.61057e-05
1.61064e-05
1.6107e-05
1.61077e-05
1.61083e-05
1.61089e-05
1.61094e-05
1.61101e-05
1.61107e-05
1.61115e-05
1.61124e-05
1.61134e-05
1.61146e-05
1.61159e-05
1.61175e-05
1.61192e-05
1.61212e-05
1.61234e-05
1.6126e-05
1.61289e-05
1.61011e-05
1.6102e-05
1.61029e-05
1.61037e-05
1.61044e-05
1.61051e-05
1.61058e-05
1.61064e-05
1.6107e-05
1.61076e-05
1.61082e-05
1.61089e-05
1.61095e-05
1.61103e-05
1.61112e-05
1.61122e-05
1.61133e-05
1.61146e-05
1.61161e-05
1.61178e-05
1.61197e-05
1.61218e-05
1.61243e-05
1.61271e-05
1.60999e-05
1.61008e-05
1.61016e-05
1.61024e-05
1.61032e-05
1.61039e-05
1.61046e-05
1.61052e-05
1.61058e-05
1.61064e-05
1.61071e-05
1.61077e-05
1.61084e-05
1.61091e-05
1.611e-05
1.6111e-05
1.61121e-05
1.61133e-05
1.61147e-05
1.61163e-05
1.61181e-05
1.61202e-05
1.61226e-05
1.61253e-05
1.60996e-05
1.61004e-05
1.61012e-05
1.6102e-05
1.61027e-05
1.61033e-05
1.6104e-05
1.61046e-05
1.61053e-05
1.61059e-05
1.61065e-05
1.61072e-05
1.61079e-05
1.61087e-05
1.61097e-05
1.61107e-05
1.61119e-05
1.61132e-05
1.61147e-05
1.61165e-05
1.61185e-05
1.61207e-05
1.61233e-05
1.60984e-05
1.60992e-05
1.61e-05
1.61007e-05
1.61015e-05
1.61021e-05
1.61028e-05
1.61034e-05
1.61041e-05
1.61047e-05
1.61053e-05
1.61059e-05
1.61066e-05
1.61075e-05
1.61084e-05
1.61094e-05
1.61105e-05
1.61118e-05
1.61132e-05
1.61149e-05
1.61168e-05
1.61189e-05
1.61214e-05
1.6098e-05
1.60988e-05
1.60995e-05
1.61002e-05
1.61009e-05
1.61016e-05
1.61022e-05
1.61028e-05
1.61034e-05
1.6104e-05
1.61047e-05
1.61054e-05
1.61062e-05
1.61071e-05
1.61081e-05
1.61091e-05
1.61104e-05
1.61118e-05
1.61133e-05
1.61151e-05
1.61172e-05
1.61196e-05
1.60969e-05
1.60976e-05
1.60983e-05
1.6099e-05
1.60997e-05
1.61004e-05
1.6101e-05
1.61016e-05
1.61022e-05
1.61028e-05
1.61034e-05
1.61042e-05
1.61049e-05
1.61058e-05
1.61067e-05
1.61078e-05
1.6109e-05
1.61103e-05
1.61118e-05
1.61135e-05
1.61155e-05
1.61177e-05
1.60957e-05
1.60965e-05
1.60972e-05
1.60979e-05
1.60985e-05
1.60991e-05
1.60998e-05
1.61004e-05
1.6101e-05
1.61016e-05
1.61022e-05
1.61029e-05
1.61037e-05
1.61045e-05
1.61054e-05
1.61064e-05
1.61075e-05
1.61088e-05
1.61102e-05
1.61118e-05
1.61137e-05
1.61158e-05
1.60953e-05
1.6096e-05
1.60967e-05
1.60973e-05
1.6098e-05
1.60986e-05
1.60992e-05
1.60998e-05
1.61004e-05
1.6101e-05
1.61016e-05
1.61024e-05
1.61032e-05
1.6104e-05
1.6105e-05
1.6106e-05
1.61072e-05
1.61086e-05
1.61101e-05
1.61119e-05
1.61139e-05
1.60942e-05
1.60949e-05
1.60955e-05
1.60962e-05
1.60968e-05
1.60974e-05
1.6098e-05
1.60985e-05
1.60991e-05
1.60997e-05
1.61004e-05
1.61011e-05
1.61018e-05
1.61027e-05
1.61036e-05
1.61046e-05
1.61057e-05
1.6107e-05
1.61085e-05
1.61101e-05
1.61121e-05
1.60931e-05
1.60938e-05
1.60944e-05
1.6095e-05
1.60956e-05
1.60962e-05
1.60967e-05
1.60973e-05
1.60979e-05
1.60985e-05
1.60991e-05
1.60998e-05
1.61005e-05
1.61013e-05
1.61022e-05
1.61032e-05
1.61043e-05
1.61055e-05
1.61069e-05
1.61085e-05
1.61103e-05
1.60927e-05
1.60933e-05
1.60939e-05
1.60945e-05
1.6095e-05
1.60956e-05
1.60961e-05
1.60967e-05
1.60972e-05
1.60979e-05
1.60985e-05
1.60993e-05
1.61001e-05
1.61009e-05
1.61018e-05
1.61029e-05
1.6104e-05
1.61054e-05
1.61069e-05
1.61086e-05
1.60916e-05
1.60922e-05
1.60928e-05
1.60933e-05
1.60939e-05
1.60944e-05
1.60949e-05
1.60955e-05
1.6096e-05
1.60966e-05
1.60973e-05
1.6098e-05
1.60987e-05
1.60996e-05
1.61005e-05
1.61014e-05
1.61026e-05
1.61038e-05
1.61052e-05
1.61069e-05
1.60912e-05
1.60917e-05
1.60922e-05
1.60928e-05
1.60933e-05
1.60938e-05
1.60943e-05
1.60948e-05
1.60954e-05
1.60961e-05
1.60967e-05
1.60974e-05
1.60982e-05
1.60991e-05
1.61e-05
1.61011e-05
1.61023e-05
1.61036e-05
1.61052e-05
1.60902e-05
1.60907e-05
1.60912e-05
1.60917e-05
1.60922e-05
1.60927e-05
1.60931e-05
1.60937e-05
1.60942e-05
1.60948e-05
1.60955e-05
1.60961e-05
1.60969e-05
1.60977e-05
1.60986e-05
1.60996e-05
1.61007e-05
1.6102e-05
1.61035e-05
1.60892e-05
1.60897e-05
1.60901e-05
1.60906e-05
1.60911e-05
1.60915e-05
1.6092e-05
1.60925e-05
1.6093e-05
1.60936e-05
1.60942e-05
1.60949e-05
1.60956e-05
1.60964e-05
1.60972e-05
1.60982e-05
1.60992e-05
1.61004e-05
1.61018e-05
1.60887e-05
1.60891e-05
1.60896e-05
1.609e-05
1.60904e-05
1.60909e-05
1.60913e-05
1.60919e-05
1.60924e-05
1.6093e-05
1.60936e-05
1.60943e-05
1.6095e-05
1.60958e-05
1.60967e-05
1.60977e-05
1.60989e-05
1.61002e-05
1.60877e-05
1.60881e-05
1.60885e-05
1.60889e-05
1.60894e-05
1.60898e-05
1.60902e-05
1.60907e-05
1.60912e-05
1.60918e-05
1.60924e-05
1.6093e-05
1.60937e-05
1.60945e-05
1.60953e-05
1.60963e-05
1.60973e-05
1.60986e-05
1.60868e-05
1.60871e-05
1.60875e-05
1.60879e-05
1.60883e-05
1.60887e-05
1.60891e-05
1.60896e-05
1.609e-05
1.60906e-05
1.60911e-05
1.60917e-05
1.60924e-05
1.60931e-05
1.60939e-05
1.60948e-05
1.60958e-05
1.6097e-05
1.60862e-05
1.60865e-05
1.60869e-05
1.60873e-05
1.60876e-05
1.6088e-05
1.60884e-05
1.60889e-05
1.60894e-05
1.60899e-05
1.60905e-05
1.60911e-05
1.60918e-05
1.60926e-05
1.60934e-05
1.60943e-05
1.60954e-05
1.60853e-05
1.60856e-05
1.60859e-05
1.60862e-05
1.60866e-05
1.60869e-05
1.60873e-05
1.60878e-05
1.60882e-05
1.60887e-05
1.60892e-05
1.60898e-05
1.60905e-05
1.60912e-05
1.6092e-05
1.60929e-05
1.60844e-05
1.60847e-05
1.6085e-05
1.60853e-05
1.60856e-05
1.60859e-05
1.60862e-05
1.60866e-05
1.60871e-05
1.60875e-05
1.6088e-05
1.60886e-05
1.60892e-05
1.60899e-05
1.60906e-05
1.60914e-05
1.60837e-05
1.6084e-05
1.60843e-05
1.60845e-05
1.60848e-05
1.60852e-05
1.60855e-05
1.60859e-05
1.60864e-05
1.60868e-05
1.60874e-05
1.60879e-05
1.60886e-05
1.60893e-05
1.609e-05
1.60828e-05
1.60831e-05
1.60833e-05
1.60836e-05
1.60838e-05
1.60841e-05
1.60845e-05
1.60848e-05
1.60852e-05
1.60857e-05
1.60861e-05
1.60867e-05
1.60873e-05
1.60879e-05
1.60887e-05
1.60819e-05
1.60822e-05
1.60824e-05
1.60826e-05
1.60828e-05
1.60831e-05
1.60834e-05
1.60837e-05
1.60841e-05
1.60845e-05
1.60849e-05
1.60854e-05
1.6086e-05
1.60866e-05
1.60873e-05
1.60812e-05
1.60814e-05
1.60816e-05
1.60818e-05
1.60821e-05
1.60824e-05
1.60827e-05
1.6083e-05
1.60834e-05
1.60838e-05
1.60842e-05
1.60848e-05
1.60853e-05
1.6086e-05
1.60804e-05
1.60805e-05
1.60807e-05
1.60809e-05
1.60811e-05
1.60813e-05
1.60816e-05
1.60819e-05
1.60822e-05
1.60826e-05
1.60831e-05
1.60835e-05
1.60841e-05
1.60847e-05
1.60795e-05
1.60796e-05
1.60798e-05
1.60799e-05
1.60801e-05
1.60803e-05
1.60806e-05
1.60808e-05
1.60811e-05
1.60815e-05
1.60819e-05
1.60823e-05
1.60828e-05
1.60834e-05
1.60787e-05
1.60788e-05
1.6079e-05
1.60791e-05
1.60793e-05
1.60795e-05
1.60798e-05
1.60801e-05
1.60804e-05
1.60807e-05
1.60811e-05
1.60816e-05
1.60821e-05
1.60778e-05
1.60779e-05
1.6078e-05
1.60782e-05
1.60783e-05
1.60785e-05
1.60787e-05
1.6079e-05
1.60793e-05
1.60796e-05
1.608e-05
1.60804e-05
1.60809e-05
1.60769e-05
1.6077e-05
1.60771e-05
1.60772e-05
1.60773e-05
1.60775e-05
1.60777e-05
1.60779e-05
1.60782e-05
1.60785e-05
1.60788e-05
1.60792e-05
1.60796e-05
1.60761e-05
1.60761e-05
1.60762e-05
1.60762e-05
1.60764e-05
1.60765e-05
1.60767e-05
1.60768e-05
1.60771e-05
1.60773e-05
1.60776e-05
1.6078e-05
1.60784e-05
1.60752e-05
1.60752e-05
1.60753e-05
1.60754e-05
1.60755e-05
1.60756e-05
1.60758e-05
1.6076e-05
1.60763e-05
1.60765e-05
1.60769e-05
1.60772e-05
1.60743e-05
1.60743e-05
1.60744e-05
1.60745e-05
1.60746e-05
1.60747e-05
1.60748e-05
1.6075e-05
1.60752e-05
1.60755e-05
1.60758e-05
1.60761e-05
1.60735e-05
1.60735e-05
1.60735e-05
1.60736e-05
1.60737e-05
1.60738e-05
1.6074e-05
1.60742e-05
1.60744e-05
1.60746e-05
1.60749e-05
1.60728e-05
1.60728e-05
1.60728e-05
1.60729e-05
1.6073e-05
1.60732e-05
1.60733e-05
1.60735e-05
1.60737e-05
1.60739e-05
1.60742e-05
1.60722e-05
1.60723e-05
1.60724e-05
1.60726e-05
1.60727e-05
1.60729e-05
1.60731e-05
1.60733e-05
1.60736e-05
1.60738e-05
1.6072e-05
1.60721e-05
1.60723e-05
1.60725e-05
1.60726e-05
1.60729e-05
1.60731e-05
1.60733e-05
1.60736e-05
1.60738e-05
1.6072e-05
1.60722e-05
1.60724e-05
1.60726e-05
1.60729e-05
1.60731e-05
1.60734e-05
1.60736e-05
1.60739e-05
1.60742e-05
1.60723e-05
1.60726e-05
1.60728e-05
1.60731e-05
1.60733e-05
1.60736e-05
1.60739e-05
1.60741e-05
1.60744e-05
1.60747e-05
1.60729e-05
1.60731e-05
1.60734e-05
1.60737e-05
1.60739e-05
1.60742e-05
1.60745e-05
1.60747e-05
1.6075e-05
1.60753e-05
1.60737e-05
1.6074e-05
1.60743e-05
1.60746e-05
1.60749e-05
1.60751e-05
1.60754e-05
1.60757e-05
1.6076e-05
1.60745e-05
1.60748e-05
1.60751e-05
1.60754e-05
1.60757e-05
1.60759e-05
1.60762e-05
1.60765e-05
1.60768e-05
1.60754e-05
1.60758e-05
1.60761e-05
1.60764e-05
1.60767e-05
1.60771e-05
1.60774e-05
1.60777e-05
1.60767e-05
1.60771e-05
1.60776e-05
1.60779e-05
1.60783e-05
1.60787e-05
1.6079e-05
1.60793e-05
1.60786e-05
1.60791e-05
1.60795e-05
1.608e-05
1.60804e-05
1.60808e-05
1.60812e-05
1.60816e-05
1.60808e-05
1.60814e-05
1.6082e-05
1.60825e-05
1.6083e-05
1.60834e-05
1.60838e-05
1.60842e-05
1.60841e-05
1.60847e-05
1.60853e-05
1.60858e-05
1.60863e-05
1.60867e-05
1.60872e-05
1.6087e-05
1.60876e-05
1.60882e-05
1.60887e-05
1.60892e-05
1.60897e-05
1.60901e-05
1.60893e-05
1.609e-05
1.60906e-05
1.60911e-05
1.60917e-05
1.60922e-05
1.60927e-05
1.60909e-05
1.60915e-05
1.60921e-05
1.60927e-05
1.60932e-05
1.60937e-05
1.60942e-05
1.60922e-05
1.60927e-05
1.60932e-05
1.60937e-05
1.60942e-05
1.60947e-05
1.60951e-05
1.60931e-05
1.60936e-05
1.60941e-05
1.60945e-05
1.6095e-05
1.60954e-05
1.60958e-05
1.60938e-05
1.60943e-05
1.60947e-05
1.60952e-05
1.60956e-05
1.6096e-05
1.60946e-05
1.60952e-05
1.60957e-05
1.60963e-05
1.60968e-05
1.60973e-05
1.60965e-05
1.60973e-05
1.6098e-05
1.60988e-05
1.60995e-05
1.61002e-05
1.61009e-05
1.61019e-05
1.61029e-05
1.61039e-05
1.61048e-05
1.61047e-05
1.61057e-05
1.61067e-05
1.61076e-05
1.61084e-05
1.61044e-05
1.61049e-05
1.61054e-05
1.61059e-05
1.61063e-05
1.60976e-05
1.60981e-05
1.60985e-05
1.6099e-05
1.60996e-05
1.60953e-05
1.60973e-05
1.60994e-05
1.61016e-05
1.61038e-05
1.60962e-05
1.60975e-05
1.60987e-05
1.60997e-05
1.61006e-05
)
;

boundaryField
{
    inlet
    {
        type            calculated;
        value           uniform 2e-05;
    }
    outlet
    {
        type            calculated;
        value           nonuniform List<scalar> 0();
    }
    walls
    {
        type            calculated;
        value           nonuniform List<scalar> 
28
(
0.000547852
0.000874293
0.00121249
0.00149603
0.00172465
0.00190951
0.00206004
0.00218399
0.0022883
0.00237838
0.00245811
0.00253086
0.00259871
0.00266355
0.00272583
0.00278539
0.00283866
0.00287897
0.002906
0.00292338
0.00293437
0.00294025
0.00294129
0.00293528
0.00292142
0.00289951
0.00286992
0.00283202
)
;
    }
    frontAndBack
    {
        type            empty;
    }
    procBoundary1to0
    {
        type            processor;
        value           nonuniform List<scalar> 
94
(
1.61088e-05
1.61088e-05
1.61058e-05
1.61058e-05
1.61044e-05
1.61044e-05
1.61041e-05
1.61041e-05
1.61041e-05
1.61041e-05
1.61041e-05
1.61041e-05
1.6103e-05
1.61027e-05
1.61027e-05
1.61016e-05
1.61013e-05
1.61013e-05
1.61002e-05
1.6099e-05
1.60987e-05
1.60987e-05
1.60976e-05
1.60972e-05
1.60972e-05
1.60961e-05
1.6095e-05
1.60946e-05
1.60946e-05
1.60936e-05
1.60925e-05
1.60921e-05
1.60921e-05
1.60911e-05
1.60906e-05
1.60906e-05
1.60897e-05
1.60887e-05
1.60882e-05
1.60882e-05
1.60873e-05
1.60864e-05
1.60858e-05
1.60858e-05
1.60849e-05
1.60841e-05
1.60835e-05
1.60835e-05
1.60826e-05
1.60817e-05
1.60811e-05
1.60811e-05
1.60802e-05
1.60794e-05
1.60786e-05
1.60786e-05
1.60777e-05
1.60769e-05
1.6076e-05
1.60752e-05
1.60752e-05
1.60743e-05
1.60735e-05
1.60728e-05
1.60722e-05
1.60722e-05
1.60719e-05
1.60719e-05
1.60721e-05
1.60726e-05
1.60735e-05
1.60735e-05
1.60742e-05
1.60751e-05
1.60763e-05
1.6078e-05
1.60803e-05
1.60835e-05
1.60835e-05
1.60863e-05
1.60886e-05
1.60903e-05
1.60916e-05
1.60926e-05
1.60933e-05
1.60941e-05
1.60957e-05
1.60999e-05
1.60999e-05
1.61037e-05
1.61038e-05
1.60972e-05
1.60934e-05
1.60949e-05
)
;
    }
    procBoundary1to2
    {
        type            processor;
        value           nonuniform List<scalar> 
84
(
0.10903
0.072538
0.0425512
0.0081919
0.000225215
3.00286e-05
1.0755e-05
1.63729e-05
1.6331e-05
1.62487e-05
1.62131e-05
1.61606e-05
1.61413e-05
1.61396e-05
1.61399e-05
1.61385e-05
1.61364e-05
1.61342e-05
1.61322e-05
1.61303e-05
1.61284e-05
1.61263e-05
1.61242e-05
1.61223e-05
1.61203e-05
1.61183e-05
1.61162e-05
1.61143e-05
1.61124e-05
1.61106e-05
1.61088e-05
1.6107e-05
1.61052e-05
1.61034e-05
1.61017e-05
1.61e-05
1.60983e-05
1.60967e-05
1.60939e-05
1.60939e-05
1.60924e-05
1.60909e-05
1.60895e-05
1.60881e-05
1.60867e-05
1.60853e-05
1.6084e-05
1.60827e-05
1.60814e-05
1.60801e-05
1.60789e-05
1.60776e-05
1.60765e-05
1.60752e-05
1.60752e-05
1.60745e-05
1.60741e-05
1.60741e-05
1.60745e-05
1.6075e-05
1.60756e-05
1.60762e-05
1.60771e-05
1.6078e-05
1.6078e-05
1.60797e-05
1.60819e-05
1.60846e-05
1.60876e-05
1.60906e-05
1.60931e-05
1.60946e-05
1.60956e-05
1.60962e-05
1.60965e-05
1.60965e-05
1.60979e-05
1.61009e-05
1.61057e-05
1.61093e-05
1.61067e-05
1.61001e-05
1.6106e-05
1.61015e-05
)
;
    }
    procBoundary1to5
    {
        type            processor;
        value           nonuniform List<scalar> 
13
(
1.72989e-05
1.72989e-05
1.59054e-05
1.61412e-05
1.61412e-05
1.60984e-05
1.61083e-05
1.61083e-05
1.61109e-05
1.61112e-05
1.61106e-05
1.61106e-05
1.61092e-05
)
;
    }
}


// ************************************************************************* //
