/*--------------------------------*- C++ -*----------------------------------*\
| =========                 |                                                 |
| \\      /  F ield         | OpenFOAM: The Open Source CFD Toolbox           |
|  \\    /   O peration     | Version:  2306                                  |
|   \\  /    A nd           | Website:  www.openfoam.com                      |
|    \\/     M anipulation  |                                                 |
\*---------------------------------------------------------------------------*/
FoamFile
{
    version     2.0;
    format      ascii;
    arch        "LSB;label=32;scalar=64";
    class       volScalarField;
    location    "125";
    object      turbulenceProperties:epsilon;
}
// * * * * * * * * * * * * * * * * * * * * * * * * * * * * * * * * * * * * * //

dimensions      [0 2 -3 0 0 0 0];

internalField   nonuniform List<scalar> 
1340
(
0.00766097
0.0122502
0.0240348
0.0487082
0.0951514
0.17534
0.303302
0.494381
0.772803
1.18252
1.80768
2.80885
4.47498
7.41886
12.6994
23.2073
43.3013
89.522
182.897
420.567
801.983
1069
1171.91
1195.19
1190.9
1171.81
1140.31
1097.39
0.00307538
0.00245015
0.00187231
0.00137583
0.000991403
0.000706421
0.000497372
0.00034521
0.000236773
0.000161256
0.000108543
7.20908e-05
4.60686e-05
2.71236e-05
1.30385e-05
4.1149e-06
4.77824e-07
1.38203e-08
1.53268e-05
0.00174399
0.0119334
0.0808968
0.229932
0.402439
0.575481
0.749298
0.928039
1.1156
1.31322
0.00199156
0.00164806
0.00132159
0.000998857
0.000713233
0.00048827
0.00032392
0.000209545
0.000134803
8.74774e-05
5.84352e-05
4.083e-05
3.0393e-05
2.41548e-05
2.05142e-05
1.86021e-05
1.79624e-05
1.81534e-05
1.8838e-05
1.9196e-05
2.02574e-05
7.43625e-06
0.000349919
0.00139247
0.00262688
0.00487956
0.0137552
0.0370962
0.0802117
0.00142113
0.00123679
0.00104971
0.000857652
0.000673682
0.00051418
0.000386464
0.000288263
0.000214423
0.000160366
0.000121082
9.28918e-05
7.26545e-05
5.82259e-05
4.76482e-05
3.98242e-05
3.3757e-05
2.8684e-05
2.36872e-05
1.89853e-05
1.55212e-05
1.30783e-05
1.17712e-05
8.53062e-06
1.04204e-05
4.45122e-07
3.71234e-07
2.27284e-05
1.31303e-05
0.000166939
0.000899326
0.000797826
0.000692185
0.000581947
0.000474086
0.000375142
0.000289674
0.000218976
0.000162374
0.000118706
8.6044e-05
6.22828e-05
4.53826e-05
3.36113e-05
2.54479e-05
1.98065e-05
1.58358e-05
1.2914e-05
1.04295e-05
8.14355e-06
6.26658e-06
4.997e-06
4.26771e-06
4.06267e-06
3.44449e-06
5.87863e-06
2.96817e-11
1.71659e-05
7.6046e-05
4.51551e-05
0.000642971
0.000586577
0.000528294
0.000466311
0.000400621
0.000335425
0.000274113
0.000219497
0.000172921
0.000134455
0.000103685
7.97898e-05
6.16432e-05
4.80801e-05
3.80555e-05
3.0638e-05
2.50881e-05
2.07879e-05
1.72463e-05
1.39909e-05
1.08974e-05
8.26974e-06
6.26108e-06
4.79162e-06
3.71189e-06
2.9177e-06
2.3025e-06
1.70679e-06
1.08133e-06
2.18268e-07
3.96055e-10
0.000427683
0.000394124
0.000358969
0.000321136
0.00028105
0.000240884
0.000202265
0.000166693
0.000135108
0.000107853
8.50209e-05
6.64434e-05
5.16838e-05
4.02024e-05
3.14295e-05
2.47821e-05
1.97518e-05
1.58872e-05
1.28046e-05
1.01502e-05
7.76967e-06
5.78237e-06
4.27406e-06
3.18971e-06
2.4184e-06
1.88259e-06
1.54158e-06
1.35324e-06
1.21498e-06
9.05393e-07
4.29556e-07
0.000291718
0.000271064
0.000249103
0.000225268
0.000200207
0.000174933
0.000150197
0.000126893
0.00010562
8.66884e-05
7.0302e-05
5.65329e-05
4.52348e-05
3.61746e-05
2.90408e-05
2.34753e-05
1.91279e-05
1.56762e-05
1.28314e-05
1.03339e-05
8.0726e-06
6.14237e-06
4.61897e-06
3.46438e-06
2.58873e-06
1.92428e-06
1.42748e-06
1.05391e-06
7.72304e-07
5.68813e-07
4.50932e-07
0.000215481
0.000203301
0.000190151
0.000176009
0.000160655
0.000144622
0.000128409
0.000112362
9.6956e-05
8.25501e-05
6.93589e-05
5.75655e-05
4.72983e-05
3.85722e-05
3.13141e-05
2.53913e-05
2.06192e-05
1.67899e-05
1.36894e-05
1.11151e-05
8.88741e-06
6.91894e-06
5.25119e-06
3.93316e-06
2.93698e-06
2.19112e-06
1.63533e-06
1.23037e-06
9.4732e-07
7.54924e-07
6.30307e-07
5.61102e-07
0.000144246
0.000135594
0.00012627
0.000116198
0.000105762
9.51655e-05
8.4604e-05
7.43368e-05
6.45471e-05
5.53626e-05
4.69344e-05
3.93845e-05
3.27681e-05
2.7101e-05
2.2336e-05
1.83876e-05
1.51375e-05
1.24474e-05
1.01778e-05
8.20626e-06
6.4647e-06
4.97756e-06
3.78077e-06
2.85561e-06
2.1469e-06
1.60499e-06
1.19622e-06
8.9251e-07
6.69737e-07
5.14954e-07
4.11759e-07
9.8068e-05
9.1792e-05
8.50729e-05
7.81586e-05
7.1152e-05
6.41051e-05
5.71917e-05
5.05077e-05
4.41169e-05
3.81086e-05
3.25805e-05
2.75943e-05
2.31895e-05
1.93751e-05
1.61203e-05
1.33658e-05
1.10341e-05
9.03838e-06
7.29886e-06
5.77043e-06
4.46533e-06
3.40564e-06
2.57871e-06
1.94266e-06
1.4569e-06
1.09218e-06
8.25764e-07
6.35945e-07
5.08342e-07
4.25642e-07
6.74934e-05
6.2946e-05
5.83014e-05
5.3592e-05
4.88428e-05
4.41514e-05
3.95655e-05
3.51062e-05
3.08347e-05
2.68127e-05
2.30875e-05
1.97059e-05
1.66915e-05
1.40498e-05
1.176e-05
9.78056e-06
8.05837e-06
6.5449e-06
5.21517e-06
4.07435e-06
3.13711e-06
2.39503e-06
1.81699e-06
1.37038e-06
1.03049e-06
7.77025e-07
5.91585e-07
4.62864e-07
3.77769e-07
4.69934e-05
4.38378e-05
4.06414e-05
3.74087e-05
3.41938e-05
3.10285e-05
2.79168e-05
2.48797e-05
2.19609e-05
1.91947e-05
1.66196e-05
1.42626e-05
1.21407e-05
1.02547e-05
8.58765e-06
7.11324e-06
5.80673e-06
4.65533e-06
3.66334e-06
2.84003e-06
2.18032e-06
1.66159e-06
1.25817e-06
9.49605e-07
7.18932e-07
5.50867e-07
4.34365e-07
3.57591e-07
3.31879e-05
3.10034e-05
2.87801e-05
2.65641e-05
2.43691e-05
2.2188e-05
2.00316e-05
1.79202e-05
1.58753e-05
1.39277e-05
1.21018e-05
1.04166e-05
8.88113e-06
7.49494e-06
6.24855e-06
5.1336e-06
4.14573e-06
3.28894e-06
2.57051e-06
1.9875e-06
1.52386e-06
1.1599e-06
8.78963e-07
6.66806e-07
5.10255e-07
3.99946e-07
3.25895e-07
2.37615e-05
2.22433e-05
2.06974e-05
1.91637e-05
1.76309e-05
1.60971e-05
1.45727e-05
1.30687e-05
1.1604e-05
1.0199e-05
8.87162e-06
7.63551e-06
6.4967e-06
5.45497e-06
4.51028e-06
3.66712e-06
2.93138e-06
2.3083e-06
1.79643e-06
1.38486e-06
1.05893e-06
8.05328e-07
6.12514e-07
4.6944e-07
3.67849e-07
2.9887e-07
1.83036e-05
1.72429e-05
1.61698e-05
1.50926e-05
1.40096e-05
1.29171e-05
1.18148e-05
1.07104e-05
9.61464e-06
8.54182e-06
7.50619e-06
6.52043e-06
5.59387e-06
4.73151e-06
3.93992e-06
3.22686e-06
2.59948e-06
2.06249e-06
1.61599e-06
1.25293e-06
9.62632e-07
7.34761e-07
5.60059e-07
4.29201e-07
3.35142e-07
2.70322e-07
1.34075e-05
1.26655e-05
1.18988e-05
1.11306e-05
1.03498e-05
9.55421e-06
8.74491e-06
7.92923e-06
7.11499e-06
6.31323e-06
5.53423e-06
4.78705e-06
4.07957e-06
3.42148e-06
2.8229e-06
2.29106e-06
1.83124e-06
1.44437e-06
1.12617e-06
8.69248e-07
6.65762e-07
5.08449e-07
3.89634e-07
3.03311e-07
2.43029e-07
1.04578e-05
9.93394e-06
9.39351e-06
8.84399e-06
8.28416e-06
7.709e-06
7.11707e-06
6.51154e-06
5.89679e-06
5.27962e-06
4.66869e-06
4.07218e-06
3.49764e-06
2.95477e-06
2.45506e-06
2.00746e-06
1.61646e-06
1.28356e-06
1.00655e-06
7.80573e-07
5.99884e-07
4.58925e-07
3.51476e-07
2.72483e-07
2.16531e-07
7.80307e-06
7.42453e-06
7.02753e-06
6.62539e-06
6.20939e-06
5.77661e-06
5.3277e-06
4.86507e-06
4.393e-06
3.91688e-06
3.4434e-06
2.97984e-06
2.53613e-06
2.12309e-06
1.74898e-06
1.41856e-06
1.1339e-06
8.94267e-07
6.96702e-07
5.37175e-07
4.11558e-07
3.14905e-07
2.43011e-07
1.91371e-07
6.13933e-06
5.86984e-06
5.58711e-06
5.29677e-06
4.99432e-06
4.67745e-06
4.345e-06
3.99736e-06
3.63727e-06
3.26859e-06
2.89584e-06
2.52482e-06
2.16471e-06
1.82553e-06
1.51482e-06
1.23738e-06
9.95587e-07
7.89646e-07
6.17996e-07
4.77976e-07
3.66625e-07
2.80112e-07
2.15002e-07
1.67576e-07
4.83775e-06
4.6453e-06
4.44308e-06
4.23185e-06
4.01135e-06
3.77888e-06
3.53257e-06
3.27199e-06
2.99838e-06
2.7139e-06
2.42221e-06
2.12767e-06
1.83757e-06
1.5606e-06
1.30417e-06
1.07276e-06
8.68708e-07
6.92834e-07
5.44594e-07
4.22397e-07
3.24216e-07
2.4719e-07
1.88555e-07
1.45258e-07
3.67752e-06
3.5353e-06
3.37892e-06
3.21757e-06
3.04674e-06
2.86401e-06
2.66877e-06
2.46145e-06
2.24323e-06
2.01607e-06
1.78335e-06
1.55103e-06
1.32661e-06
1.11639e-06
9.24482e-07
7.53289e-07
6.03975e-07
4.76694e-07
3.70658e-07
2.84563e-07
2.16313e-07
1.63803e-07
1.24512e-07
2.91382e-06
2.8104e-06
2.69773e-06
2.57843e-06
2.4521e-06
2.31643e-06
2.17018e-06
2.01332e-06
1.84637e-06
1.67032e-06
1.48744e-06
1.30248e-06
1.12159e-06
9.50234e-07
7.91912e-07
6.49123e-07
5.23127e-07
4.14502e-07
3.23019e-07
2.47928e-07
1.87745e-07
1.40965e-07
1.05536e-07
2.23417e-06
2.15377e-06
2.06391e-06
1.97055e-06
1.86977e-06
1.76023e-06
1.64171e-06
1.51422e-06
1.37815e-06
1.23498e-06
1.08834e-06
9.43208e-07
8.04147e-07
6.7439e-07
5.55968e-07
4.50265e-07
3.58091e-07
2.79586e-07
2.14426e-07
1.61671e-07
1.2022e-07
8.84587e-08
1.77627e-06
1.71721e-06
1.65135e-06
1.58199e-06
1.5067e-06
1.42449e-06
1.33473e-06
1.23735e-06
1.13237e-06
1.02071e-06
9.05001e-07
7.89217e-07
6.76937e-07
5.71085e-07
4.73358e-07
3.85142e-07
3.07318e-07
2.40297e-07
1.84042e-07
1.3806e-07
1.01536e-07
7.32597e-08
1.4124e-06
1.36928e-06
1.3209e-06
1.26865e-06
1.21207e-06
1.15018e-06
1.08219e-06
1.00786e-06
9.26988e-07
8.40076e-07
7.4907e-07
6.5702e-07
5.66859e-07
4.80865e-07
4.00632e-07
3.27372e-07
2.61994e-07
2.05075e-07
1.56764e-07
1.1688e-07
8.48779e-08
5.98864e-08
1.09118e-06
1.05639e-06
1.01609e-06
9.73627e-07
9.26894e-07
8.7531e-07
8.18624e-07
7.56476e-07
6.88985e-07
6.17628e-07
5.44667e-07
4.72459e-07
4.02867e-07
3.37242e-07
2.76654e-07
2.21995e-07
1.73874e-07
1.32587e-07
9.81607e-08
7.02721e-08
4.83365e-08
8.69601e-07
8.43347e-07
8.13364e-07
7.81287e-07
7.45864e-07
7.06712e-07
6.63411e-07
6.15609e-07
5.63228e-07
5.07326e-07
4.49632e-07
3.91965e-07
3.35836e-07
2.82377e-07
2.32495e-07
1.87009e-07
1.46523e-07
1.11415e-07
8.18507e-08
5.76808e-08
3.85522e-08
6.92897e-07
6.73298e-07
6.50973e-07
6.26414e-07
5.9949e-07
5.69687e-07
5.36571e-07
4.99719e-07
4.5903e-07
4.15272e-07
3.69716e-07
3.23811e-07
2.78692e-07
2.35307e-07
1.94406e-07
1.56708e-07
1.22798e-07
9.30804e-08
6.78128e-08
4.69784e-08
3.04109e-08
5.3725e-07
5.21112e-07
5.01847e-07
4.81275e-07
4.58518e-07
4.33124e-07
4.04672e-07
3.73068e-07
3.38864e-07
3.02991e-07
2.66505e-07
2.30342e-07
1.95232e-07
1.6181e-07
1.30685e-07
1.02399e-07
7.73592e-08
5.58664e-08
3.80122e-08
2.37569e-08
4.2876e-07
4.16364e-07
4.01982e-07
3.86132e-07
3.6864e-07
3.49089e-07
3.27099e-07
3.02536e-07
2.75788e-07
2.47567e-07
2.18626e-07
1.89706e-07
1.61372e-07
1.34143e-07
1.08537e-07
8.50339e-08
6.40309e-08
4.58347e-08
3.06165e-08
1.84299e-08
3.3268e-07
3.22149e-07
3.09558e-07
2.96104e-07
2.8104e-07
2.64021e-07
2.44919e-07
2.2401e-07
2.01806e-07
1.78881e-07
1.55782e-07
1.32968e-07
1.10848e-07
8.98591e-08
7.04085e-08
5.28628e-08
3.75323e-08
2.46293e-08
1.42753e-08
2.65881e-07
2.57717e-07
2.48136e-07
2.37762e-07
2.26094e-07
2.12899e-07
1.98025e-07
1.8167e-07
1.64205e-07
1.46048e-07
1.27627e-07
1.093e-07
9.13877e-08
7.42366e-08
5.82007e-08
4.36084e-08
3.07537e-08
1.98726e-08
1.11259e-08
2.12524e-07
2.06298e-07
1.9901e-07
1.90894e-07
1.81841e-07
1.71585e-07
1.59972e-07
1.47152e-07
1.33413e-07
1.19054e-07
1.04393e-07
8.97008e-08
7.52316e-08
6.12624e-08
4.80948e-08
3.6013e-08
2.52852e-08
1.61564e-08
8.80815e-09
1.65152e-07
1.59761e-07
1.5325e-07
1.4622e-07
1.38242e-07
1.29169e-07
1.19122e-07
1.08318e-07
9.69674e-08
8.53133e-08
7.35594e-08
6.19037e-08
5.05687e-08
3.97959e-08
2.98367e-08
2.09276e-08
1.33047e-08
7.16221e-09
1.32329e-07
1.28092e-07
1.23096e-07
1.17631e-07
1.11393e-07
1.04301e-07
9.6434e-08
8.79369e-08
7.89713e-08
6.97169e-08
6.03323e-08
5.09695e-08
4.17993e-08
3.30214e-08
2.48487e-08
1.74873e-08
1.1155e-08
6.04275e-09
1.06083e-07
1.02823e-07
9.8997e-08
9.46892e-08
8.98181e-08
8.42765e-08
7.81041e-08
7.14216e-08
6.43412e-08
5.70036e-08
4.95291e-08
4.20295e-08
3.46373e-08
2.7517e-08
2.08416e-08
1.47901e-08
9.55889e-09
5.32084e-09
8.26038e-08
7.97479e-08
7.62887e-08
7.24865e-08
6.81523e-08
6.33098e-08
5.80541e-08
5.2474e-08
4.66704e-08
4.07328e-08
3.47439e-08
2.88092e-08
2.30567e-08
1.76305e-08
1.26817e-08
8.38105e-09
4.88415e-09
6.64642e-08
6.42111e-08
6.15429e-08
5.85806e-08
5.51857e-08
5.13886e-08
4.72624e-08
4.2871e-08
3.82891e-08
3.35835e-08
2.88165e-08
2.40698e-08
1.94426e-08
1.50532e-08
1.10274e-08
7.50833e-09
5.35379e-08
5.17938e-08
4.97559e-08
4.74267e-08
4.47629e-08
4.17886e-08
3.85547e-08
3.51033e-08
3.14936e-08
2.7775e-08
2.39937e-08
2.02116e-08
1.65073e-08
1.29743e-08
9.71541e-09
6.85e-09
4.18492e-08
4.03274e-08
3.84575e-08
3.63748e-08
3.40502e-08
3.15183e-08
2.88146e-08
2.59795e-08
2.30504e-08
2.00623e-08
1.70623e-08
1.41106e-08
1.12815e-08
8.6573e-09
6.33501e-09
3.3892e-08
3.26877e-08
3.12458e-08
2.96235e-08
2.78052e-08
2.58317e-08
2.37213e-08
2.14999e-08
1.92009e-08
1.68495e-08
1.44807e-08
1.21402e-08
9.88608e-09
7.78374e-09
5.91028e-09
2.74864e-08
2.65572e-08
2.54552e-08
2.41792e-08
2.27645e-08
2.1233e-08
1.95869e-08
1.78521e-08
1.60546e-08
1.42124e-08
1.23504e-08
1.05039e-08
8.71714e-09
7.04168e-09
5.53748e-09
2.16211e-08
2.07919e-08
1.97834e-08
1.86891e-08
1.74984e-08
1.6218e-08
1.48695e-08
1.3471e-08
1.20346e-08
1.05785e-08
9.12932e-09
7.72081e-09
6.39247e-09
5.19052e-09
1.76469e-08
1.7001e-08
1.623e-08
1.53813e-08
1.44576e-08
1.34677e-08
1.24249e-08
1.13417e-08
1.02266e-08
9.09366e-09
7.96224e-09
6.85764e-09
5.80986e-09
4.85408e-09
1.44354e-08
1.39394e-08
1.33513e-08
1.26908e-08
1.19784e-08
1.1217e-08
1.04132e-08
9.57689e-09
8.71549e-09
7.83829e-09
6.95962e-09
6.09794e-09
5.27591e-09
4.51929e-09
1.14535e-08
1.10138e-08
1.04964e-08
9.9501e-09
9.36575e-09
8.74797e-09
8.10535e-09
7.44304e-09
6.76805e-09
6.08961e-09
5.42089e-09
4.77935e-09
4.18335e-09
9.43492e-09
9.09321e-09
8.70026e-09
8.28418e-09
7.8373e-09
7.36423e-09
6.87253e-09
6.36736e-09
5.85119e-09
5.32948e-09
4.81305e-09
4.31485e-09
3.84769e-09
7.78556e-09
7.52546e-09
7.22779e-09
6.91141e-09
6.57044e-09
6.21002e-09
5.83812e-09
5.45504e-09
5.0608e-09
4.66112e-09
4.26439e-09
3.87962e-09
3.51513e-09
6.43577e-09
6.23844e-09
6.01749e-09
5.77589e-09
5.5168e-09
5.24613e-09
4.96603e-09
4.67468e-09
4.37434e-09
4.07003e-09
3.76699e-09
3.47141e-09
3.18844e-09
5.18089e-09
5.01816e-09
4.83245e-09
4.63868e-09
4.43592e-09
4.22359e-09
4.0028e-09
3.77585e-09
3.54564e-09
3.31533e-09
3.08934e-09
2.87094e-09
4.30858e-09
4.18416e-09
4.04709e-09
3.90311e-09
3.74977e-09
3.58952e-09
3.42381e-09
3.25344e-09
3.07998e-09
2.90558e-09
2.73386e-09
2.56619e-09
3.5843e-09
3.49172e-09
3.39011e-09
3.28158e-09
3.16636e-09
3.047e-09
2.92349e-09
2.79599e-09
2.66567e-09
2.53443e-09
2.40448e-09
2.98078e-09
2.91164e-09
2.8369e-09
2.75493e-09
2.66932e-09
2.58095e-09
2.48903e-09
2.39393e-09
2.29635e-09
2.19809e-09
2.10075e-09
2.424e-09
2.36934e-09
2.30753e-09
2.24412e-09
2.17844e-09
2.11029e-09
2.03939e-09
1.96674e-09
1.89436e-09
1.82237e-09
2.01325e-09
1.97177e-09
1.92635e-09
1.87935e-09
1.83079e-09
1.7802e-09
1.72782e-09
1.67517e-09
1.62267e-09
1.56962e-09
1.66674e-09
1.63601e-09
1.60249e-09
1.56804e-09
1.53222e-09
1.49515e-09
1.45758e-09
1.41979e-09
1.38166e-09
1.34283e-09
1.37633e-09
1.35384e-09
1.32957e-09
1.30438e-09
1.27843e-09
1.25204e-09
1.22522e-09
1.19821e-09
1.17091e-09
1.14305e-09
1.13494e-09
1.11882e-09
1.10177e-09
1.08347e-09
1.06503e-09
1.04633e-09
1.02747e-09
1.00832e-09
9.88932e-10
9.69095e-10
9.24463e-10
9.12671e-10
8.9948e-10
8.86396e-10
8.73341e-10
8.59918e-10
8.4639e-10
8.3272e-10
8.18718e-10
7.63906e-10
7.55154e-10
7.45803e-10
7.36588e-10
7.27171e-10
7.17666e-10
7.08132e-10
6.9845e-10
6.88451e-10
6.29779e-10
6.23184e-10
6.16283e-10
6.09488e-10
6.02661e-10
5.9581e-10
5.88855e-10
5.81984e-10
5.16305e-10
5.11015e-10
5.05596e-10
5.00429e-10
4.95331e-10
4.90315e-10
4.85415e-10
4.80554e-10
4.19554e-10
4.15015e-10
4.10637e-10
4.06561e-10
4.02735e-10
3.99086e-10
3.95576e-10
3.92204e-10
3.37524e-10
3.33638e-10
3.30243e-10
3.26997e-10
3.24076e-10
3.21432e-10
3.1905e-10
3.16895e-10
2.65823e-10
2.62981e-10
2.60363e-10
2.58148e-10
2.56254e-10
2.54661e-10
2.53327e-10
2.11068e-10
2.086e-10
2.06531e-10
2.04809e-10
2.03381e-10
2.02257e-10
2.01447e-10
1.6817e-10
1.65946e-10
1.64152e-10
1.62671e-10
1.6146e-10
1.60569e-10
1.60013e-10
1.3836e-10
1.36361e-10
1.34788e-10
1.33463e-10
1.32428e-10
1.31697e-10
1.3125e-10
1.16187e-10
1.14514e-10
1.13174e-10
1.12117e-10
1.11275e-10
1.10614e-10
1.10195e-10
9.60878e-11
9.45941e-11
9.34156e-11
9.24469e-11
9.16376e-11
9.10897e-11
9.07336e-11
7.90043e-11
7.75785e-11
7.63298e-11
7.52643e-11
7.43855e-11
7.37227e-11
6.36883e-11
6.22045e-11
6.08733e-11
5.96786e-11
5.86549e-11
5.77939e-11
4.80972e-11
4.61661e-11
4.43677e-11
4.2734e-11
4.13429e-11
4.02559e-11
3.10505e-11
2.88694e-11
2.67957e-11
2.48838e-11
2.32183e-11
1.69098e-11
1.53901e-11
1.42787e-11
1.36111e-11
1.34307e-11
1.21227e-11
1.06952e-11
9.64539e-12
8.9349e-12
8.52409e-12
7.34597e-11
8.49276e-11
9.6833e-11
1.08762e-10
1.20395e-10
3.69923e-10
3.79437e-10
3.86449e-10
3.90812e-10
3.92788e-10
1.53103e-09
1.55958e-09
1.57773e-09
1.58617e-09
1.58678e-09
)
;

boundaryField
{
    inlet
    {
        type            calculated;
        value           nonuniform List<scalar> 5(1.37208e-08 1.43928e-08 1.49973e-08 1.55313e-08 1.59932e-08);
    }
    outlet
    {
        type            calculated;
        value           nonuniform List<scalar> 0();
    }
    walls
    {
        type            calculated;
        value           uniform 0;
    }
    frontAndBack
    {
        type            empty;
    }
    procBoundary1to0
    {
        type            processor;
        value           nonuniform List<scalar> 
94
(
0.000152398
0.000152398
0.000103902
0.000103902
7.17963e-05
7.17963e-05
5.01234e-05
5.01234e-05
3.53656e-05
3.53656e-05
2.52803e-05
2.52803e-05
1.93611e-05
1.41509e-05
1.41509e-05
1.09807e-05
8.17465e-06
8.17465e-06
6.40526e-06
5.02916e-06
3.81601e-06
3.81601e-06
3.01412e-06
2.30904e-06
2.30904e-06
1.83142e-06
1.45337e-06
1.12292e-06
1.12292e-06
8.935e-07
7.11038e-07
5.51913e-07
5.51913e-07
4.40012e-07
3.41968e-07
3.41968e-07
2.73072e-07
2.18117e-07
1.69876e-07
1.69876e-07
1.36012e-07
1.08969e-07
8.50946e-08
8.50946e-08
6.84113e-08
5.50635e-08
4.3178e-08
4.3178e-08
3.49237e-08
2.82921e-08
2.23322e-08
2.23322e-08
1.8197e-08
1.48556e-08
1.18308e-08
1.18308e-08
9.72222e-09
8.00389e-09
6.60137e-09
5.32723e-09
5.32723e-09
4.41792e-09
3.66572e-09
3.04136e-09
2.47507e-09
2.47507e-09
2.05127e-09
1.69492e-09
1.39682e-09
1.1492e-09
9.35681e-10
9.35681e-10
7.7171e-10
6.35585e-10
5.2096e-10
4.2356e-10
3.4103e-10
2.69103e-10
2.69103e-10
2.13864e-10
1.7068e-10
1.40574e-10
1.18011e-10
9.76844e-11
8.0473e-11
6.51503e-11
5.0001e-11
3.32703e-11
3.32703e-11
1.87655e-11
1.39268e-11
6.25117e-11
3.58471e-10
1.49142e-09
)
;
    }
    procBoundary1to2
    {
        type            processor;
        value           nonuniform List<scalar> 
84
(
1045.13
1.53522
0.142334
0.00150029
2.59635e-05
1.17772e-06
1.01012e-07
3.84234e-07
5.69361e-07
3.89657e-07
4.11543e-07
3.52167e-07
3.3123e-07
2.97092e-07
2.69607e-07
2.40405e-07
2.13094e-07
1.86853e-07
1.62341e-07
1.39535e-07
1.1853e-07
9.93635e-08
8.21557e-08
6.6961e-08
5.37208e-08
4.23381e-08
3.27499e-08
2.48414e-08
1.84682e-08
1.34498e-08
9.61282e-09
6.78891e-09
4.81155e-09
3.51324e-09
2.74351e-09
2.36892e-09
2.27497e-09
2.36092e-09
4.63503e-09
4.63503e-09
4.49554e-09
4.41342e-09
4.34784e-09
4.27142e-09
4.16823e-09
4.0316e-09
3.86035e-09
3.65754e-09
3.4298e-09
3.18452e-09
2.9283e-09
2.6674e-09
2.40824e-09
2.27757e-09
2.27757e-09
2.00493e-09
1.7507e-09
1.51619e-09
1.30371e-09
1.11492e-09
9.48911e-10
8.04519e-10
6.78507e-10
5.75063e-10
5.75063e-10
4.75695e-10
3.88998e-10
3.14915e-10
2.52239e-10
2.00919e-10
1.59782e-10
1.31093e-10
1.10015e-10
9.0612e-11
7.31438e-11
7.31438e-11
5.70905e-11
3.94854e-11
2.18356e-11
1.37326e-11
8.33577e-12
1.31209e-10
3.92848e-10
1.58137e-09
)
;
    }
    procBoundary1to5
    {
        type            processor;
        value           nonuniform List<scalar> 
13
(
0.00786101
0.00786101
0.00381576
0.00237544
0.00237544
0.00159935
0.000996843
0.000996843
0.000690434
0.000456784
0.000310339
0.000310339
0.000225927
)
;
    }
}


// ************************************************************************* //
