/*--------------------------------*- C++ -*----------------------------------*\
| =========                 |                                                 |
| \\      /  F ield         | OpenFOAM: The Open Source CFD Toolbox           |
|  \\    /   O peration     | Version:  2306                                  |
|   \\  /    A nd           | Website:  www.openfoam.com                      |
|    \\/     M anipulation  |                                                 |
\*---------------------------------------------------------------------------*/
FoamFile
{
    version     2.0;
    format      ascii;
    arch        "LSB;label=32;scalar=64";
    class       volScalarField;
    location    "1000";
    object      p;
}
// * * * * * * * * * * * * * * * * * * * * * * * * * * * * * * * * * * * * * //

dimensions      [0 2 -2 0 0 0 0];

internalField   nonuniform List<scalar> 
1340
(
59.0957
33.2985
4.80069
56.8084
32.9127
6.55039
-20.8104
-50.3306
54.1362
31.9115
7.42756
-17.8964
-45.2149
-73.7453
-102.821
51.2419
30.4981
7.6779
-15.8446
-41.2079
-67.6686
-94.6025
-122.081
48.2428
28.8227
7.48906
-14.4266
-38.0425
-62.6496
-87.656
-113.167
-138.804
45.2193
26.9903
6.99452
-13.4803
-35.5268
-58.4629
-81.7322
-105.457
-129.29
42.2274
25.0771
6.2931
-12.8821
-33.5086
-54.9326
-76.6285
-98.7284
-120.913
-143.017
39.3039
23.1362
5.45718
-12.5391
-31.8746
-51.9264
-72.1905
-92.809
-113.487
-134.082
-154.58
36.4746
21.2099
4.53965
-12.3785
-30.5382
-49.336
-68.295
-87.5592
-106.856
-126.059
-145.177
33.7575
19.323
3.58291
-12.349
-29.429
-47.079
-64.8414
-82.866
-100.894
-118.816
-136.654
-154.275
31.1633
17.4965
2.61491
-12.4079
-28.4953
-45.0885
-61.7532
-78.6381
-95.499
-112.238
-128.89
-145.339
28.6979
15.7444
1.65897
-12.5242
-27.6942
-43.3133
-58.9662
-74.8006
-90.5852
-106.234
-121.787
-137.146
-152.262
26.3644
14.0749
0.730826
-12.6732
-26.9933
-41.7104
-56.4286
-71.291
-86.0818
-100.722
-115.258
-129.603
-143.721
24.1628
12.4945
-0.157367
-12.838
-26.3667
-40.247
-54.0983
-68.062
-81.9314
-95.6371
-109.229
-122.63
-135.816
-148.741
22.0922
11.0061
-0.997701
-13.003
-25.7945
-38.8957
-51.9419
-65.0705
-78.0869
-90.926
-103.641
-116.163
-128.478
-140.551
20.1503
9.61107
-1.78477
-13.1576
-25.2605
-37.6343
-49.9304
-62.2829
-74.5061
-86.5401
-98.4401
-110.145
-121.647
-132.92
18.3335
8.30914
-2.51517
-13.295
-24.7527
-36.4463
-48.0424
-59.6713
-71.1557
-82.4413
-93.5824
-104.525
-115.269
-125.793
-136.038
16.6372
7.09936
-3.18669
-13.409
-24.2611
-35.3175
-46.2588
-57.2119
-68.0069
-78.5953
-89.0301
-99.2639
-109.298
-119.122
-128.682
15.0578
5.97895
-3.79821
-13.4962
-23.7785
-34.2364
-44.5651
-54.8856
-65.0372
-74.9749
-84.7517
-94.3233
-103.697
-112.864
-121.781
13.5897
4.94571
-4.35028
-13.5539
-23.2998
-33.1946
-42.9481
-52.6762
-62.2262
-71.5553
-80.7178
-89.6725
-98.4284
-106.982
-115.297
-123.321
12.228
3.99658
-4.84404
-13.5805
-22.82
-32.1848
-41.3974
-50.5696
-59.5557
-68.3165
-76.9046
-85.283
-93.4623
-101.443
-109.192
-116.668
10.968
3.1279
-5.28076
-13.5755
-22.3367
-31.2016
-39.9053
-48.5553
-57.0129
-65.2413
-73.2922
-81.1321
-88.7725
-96.2165
-103.437
-110.397
16.2959
9.80428
2.33622
-5.66255
-13.5392
-21.848
-30.2409
-38.4655
-46.6244
-54.5856
-62.3152
-69.8632
-77.1994
-84.3358
-91.2785
-98.0039
-104.48
-110.656
14.9204
8.73187
1.61778
-5.9916
-13.4719
-21.3523
-29.2991
-37.0714
-44.768
-52.2627
-59.5247
-66.6019
-73.4668
-80.1326
-86.6062
-92.8681
-98.8909
-104.63
13.6456
7.74582
0.968739
-6.27038
-13.3745
-20.8492
-28.3737
-35.7193
-42.9798
-50.036
-56.8588
-63.4946
-69.9182
-76.1438
-82.1793
-88.0079
-93.6061
-98.9348
12.466
6.84122
0.385279
-6.50155
-13.2486
-20.3384
-27.4634
-34.4056
-41.2553
-47.8984
-54.3086
-60.5306
-66.5412
-72.3547
-77.9802
-83.4036
-88.6044
-93.5482
-98.1822
11.3757
6.01338
-0.136466
-6.68783
-13.0956
-19.82
-26.5664
-33.1273
-39.5894
-45.8433
-51.8658
-57.6994
-63.3228
-68.751
-73.9934
-79.0379
-83.867
-88.4504
-92.7409
10.3695
5.25769
-0.60025
-6.83209
-12.9171
-19.2948
-25.6823
-31.8826
-37.9783
-43.8658
-49.5232
-54.9923
-60.2528
-65.3202
-70.2043
-74.895
-79.3768
-83.6232
-87.5919
9.44229
4.56973
-1.00972
-6.93691
-12.7151
-18.7633
-24.8105
-30.6694
-36.4188
-41.9609
-47.2752
-52.4018
-57.3222
-62.0518
-66.601
-70.9608
-75.1185
-79.05
-82.7179
8.58923
3.945
-1.36843
-7.00516
-12.4916
-18.2263
-23.9507
-29.4863
-34.9087
-40.1249
-45.1163
-49.9211
-54.5226
-58.9363
-63.1722
-67.2231
-71.078
-74.7158
-78.1026
7.80556
3.37956
-1.67995
-7.03962
-12.2481
-17.6851
-23.1029
-28.3323
-33.4456
-38.3544
-43.0414
-47.544
-51.8466
-55.9644
-59.9076
-63.6701
-67.2428
-70.6066
-73.7313
-76.5797
7.0868
2.86936
-1.94756
-7.04295
-11.9869
-17.1406
-22.2674
-27.2069
-32.0276
-36.6463
-41.0471
-45.2658
-49.2878
-53.1286
-56.7982
-60.2915
-63.601
-66.7096
-69.5904
-72.2097
6.42863
2.41065
-2.17453
-7.01776
-11.7097
-16.5941
-21.4445
-26.1092
-30.6535
-34.9983
-39.1295
-43.0812
-46.8403
-50.4216
-53.8357
-57.078
-60.1421
-63.0132
-65.6673
-68.0736
5.82709
1.99971
-2.36388
-6.96659
-11.4184
-16.0467
-20.6348
-25.039
-29.3216
-33.408
-37.2852
-40.986
-44.4985
-47.8372
-51.0124
-54.0207
-56.8566
-59.507
-61.9501
-64.159
5.27824
1.6332
-2.5187
-6.89178
-11.1149
-15.4994
-19.8383
-23.9957
-28.0309
-31.8734
-35.5114
-38.9764
-42.2578
-45.3693
-48.3215
-51.1116
-53.7351
-56.1804
-58.4282
-60.4539
4.77843
1.3078
-2.6418
-6.79568
-10.8011
-14.9535
-19.0558
-22.9792
-26.7803
-30.3926
-33.8054
-37.0488
-40.1134
-43.0126
-45.7568
-48.3435
-50.7696
-53.0245
-55.0911
-56.9474
-58.5659
4.32417
1.02039
-2.7358
-6.68048
-10.4783
-14.41
-18.2875
-21.9892
-25.569
-28.9639
-32.1646
-35.2
-38.0613
-40.7618
-43.3118
-45.7094
-47.9521
-50.0305
-51.9294
-53.6293
-55.1055
3.91217
0.768012
-2.80335
-6.54832
-10.1484
-13.8701
-17.5342
-21.0258
-24.3961
-27.5859
-30.5869
-33.4267
-36.0976
-38.6125
-40.9813
-43.2027
-45.275
-47.19
-48.934
-50.4898
-51.8352
3.53935
0.547878
-2.84678
-6.40116
-9.8128
-13.3348
-16.7962
-20.0886
-23.2608
-26.257
-29.0701
-31.7262
-34.2187
-36.5601
-38.7599
-40.8177
-42.7318
-44.4955
-46.0965
-47.5195
-48.7446
3.20275
0.357339
-2.8684
-6.24084
-9.47297
-12.8049
-16.0739
-19.1776
-22.1624
-24.976
-27.6121
-30.0958
-32.4211
-34.6003
-36.6427
-38.5482
-40.3158
-41.9396
-43.4086
-44.7094
-45.8246
2.89957
0.193929
-2.87035
-6.06919
-9.13028
-12.2814
-15.3676
-18.2924
-21.1002
-23.7416
-26.211
-28.5328
-30.7015
-32.7292
-34.625
-36.3889
-38.0208
-39.5152
-40.8627
-42.0513
-43.0657
-43.89
2.62723
0.0552772
-2.85463
-5.88779
-8.78595
-11.765
-14.6776
-17.4331
-20.0734
-22.5522
-24.8649
-27.0347
-29.0569
-30.943
-32.7021
-34.3347
-35.8407
-37.2157
-38.4514
-39.5371
-40.4594
-41.2046
2.38325
-0.0607673
-2.8232
-5.69822
-8.44113
-11.2566
-14.0044
-16.5994
-19.0812
-21.4067
-23.572
-25.599
-27.484
-29.2381
-30.87
-32.3805
-33.7701
-35.0349
-36.1677
-37.1591
-37.9973
-38.6706
2.16531
-0.156309
-2.77775
-5.50187
-8.09693
-10.7567
-13.3482
-15.791
-18.1231
-20.304
-22.3304
-24.2235
-25.9801
-27.6108
-29.1243
-30.5216
-31.8033
-32.9665
-34.0048
-34.9098
-35.6715
-36.2797
1.97126
-0.233271
-2.71997
-5.30012
-7.7543
-10.266
-12.709
-15.0077
-17.1983
-19.2427
-21.1385
-22.9059
-24.5422
-26.0578
-27.4611
-28.7532
-29.9354
-31.0049
-31.9562
-32.7823
-33.4743
-34.0235
1.79905
-0.293454
-2.65139
-5.09418
-7.41417
-9.78506
-12.087
-14.2491
-16.3059
-18.2216
-19.9945
-21.6439
-23.1677
-24.5758
-25.8764
-27.0711
-28.1611
-29.1442
-30.0158
-30.7698
-31.3983
-31.8942
1.64679
-0.338553
-2.57346
-4.88515
-7.0773
-9.31427
-11.4823
-13.515
-15.4452
-17.2395
-18.8967
-20.4354
-21.8537
-23.1616
-24.3667
-25.471
-26.4756
-27.3792
-28.1776
-28.8656
-29.4366
-29.8843
1.5127
-0.37016
-2.48752
-4.67413
-6.74452
-8.85405
-10.895
-12.805
-14.6154
-16.2951
-17.8435
-19.2781
-20.5977
-21.8119
-22.9282
-23.9485
-24.8744
-25.7046
-26.4359
-27.0637
-27.5823
-27.9865
-28.2755
1.39511
-0.389734
-2.39479
-4.4621
-6.41648
-8.40481
-10.3249
-12.1188
-13.8158
-15.3873
-16.8331
-18.17
-19.3972
-20.5239
-21.5574
-22.4997
-23.3527
-24.1154
-24.7851
-25.3579
-25.829
-26.1941
-26.4529
1.29246
-0.398671
-2.29643
-4.24995
-6.09383
-7.96681
-9.77221
-11.4558
-13.0455
-14.5148
-15.8639
-17.109
-18.2495
-19.2945
-20.2508
-21.1208
-21.9063
-22.6067
-23.2199
-23.7425
-24.1705
-24.5003
-24.7323
1.2033
-0.398273
-2.19356
-4.03856
-5.77714
-7.54036
-9.23671
-10.8157
-12.3038
-13.6764
-14.9344
-16.0929
-17.1522
-18.1207
-19.0052
-19.8079
-20.5308
-21.1739
-21.7352
-22.2119
-22.6008
-22.8989
-23.1069
1.12631
-0.389694
-2.08715
-3.82864
-5.46694
-7.12573
-8.7184
-10.1981
-11.5898
-12.871
-14.0428
-15.1198
-16.1028
-16.9998
-17.8172
-18.5572
-19.2223
-19.8124
-20.326
-20.7608
-21.1141
-21.3836
-21.5705
1.06027
-0.373954
-1.97807
-3.6208
-5.16354
-6.72292
-8.21696
-9.60241
-10.9026
-12.0973
-13.1876
-14.1878
-15.099
-15.9291
-16.6836
-17.3653
-17.9765
-18.5177
-18.9874
-19.384
-19.705
-19.9488
-20.1167
1.00391
-0.352187
-1.86728
-3.41582
-4.86754
-6.33211
-7.73225
-9.02814
-10.2412
-11.354
-12.3671
-13.2946
-14.1388
-14.9061
-15.6018
-16.2287
-16.7899
-17.2857
-17.715
-18.0764
-18.3682
-18.5889
-18.74
0.955974
-0.325857
-1.75621
-3.21513
-4.58
-5.9544
-7.26491
-8.47534
-9.605
-10.6405
-11.5791
-12.4376
-13.2193
-13.9281
-14.5682
-15.1439
-15.6585
-16.1122
-16.5043
-16.8335
-17.0986
-17.2983
-17.4346
0.915546
-0.295674
-1.64549
-3.01925
-4.30161
-5.59039
-6.81543
-7.94453
-8.99447
-9.95704
-10.8225
-11.6141
-12.3375
-12.9915
-13.5792
-14.1066
-14.5778
-14.9928
-15.3504
-15.6502
-15.891
-16.0722
-16.1953
-16.2658
0.882742
-0.260813
-1.53347
-2.82599
-4.02981
-5.2371
-6.38132
-7.43358
-8.4082
-9.30119
-10.0965
-10.8264
-11.496
-12.0971
-12.6338
-13.1153
-13.5456
-13.9239
-14.2493
-14.5218
-14.7404
-14.9048
-15.0165
-15.0803
0.857139
-0.221469
-1.41956
-2.63413
-3.76233
-4.8912
-5.95774
-6.93732
-7.84056
-8.66688
-9.39443
-10.0753
-10.6989
-11.2465
-11.7316
-12.169
-12.5609
-12.9044
-13.1991
-13.4458
-13.6438
-13.7928
-13.894
-13.9523
0.838175
-0.189608
-1.32987
-2.47857
-3.53935
-4.5927
-5.57429
-6.46609
-7.26982
-8.00633
-8.60855
-9.27591
-9.90682
-10.4332
-10.8944
-11.3173
-11.6983
-12.0309
-12.3157
-12.5544
-12.7465
-12.8913
-12.9901
-13.0474
0.823776
-0.162166
-1.25314
-2.34421
-3.3422
-4.32031
-5.21358
-6.00715
-6.69367
-7.32104
-7.75835
-8.44645
-9.12056
-9.6479
-10.1042
-10.5315
-10.9198
-11.2579
-11.5469
-11.7895
-11.9854
-12.1338
-12.2361
-12.2966
0.811088
-0.132602
-1.17382
-2.20687
-3.14221
-4.04539
-4.85248
-5.55028
-6.12641
-6.64772
-6.9317
-7.6273
-8.33541
-8.86134
-9.30888
-9.73623
-10.1287
-10.4703
-10.7621
-11.0076
-11.2069
-11.3585
-11.4643
-11.528
0.799885
-0.101546
-1.0929
-2.06824
-2.94151
-3.77064
-4.49427
-5.09865
-5.57191
-5.98609
-6.13421
-6.82211
-7.55069
-8.07366
-8.51055
-8.93352
-9.32686
-9.66996
-9.96292
-10.2102
-10.412
-10.5668
-10.6759
-10.7428
0.790255
-0.0693157
-1.01116
-1.92962
-2.74198
-3.4986
-4.14189
-4.65538
-5.03327
-5.33788
-5.36923
-6.03455
-6.76775
-7.28444
-7.70924
-8.12408
-8.51455
-8.85698
-9.14982
-9.39783
-9.60143
-9.75905
-9.8715
-9.94268
0.782122
-0.0365128
-0.929959
-1.79288
-2.54617
-3.23243
-3.79903
-4.22468
-4.51433
-4.70605
-4.63867
-5.26693
-5.98777
-6.49338
-6.9047
-7.30815
-7.69204
-8.03141
-8.32285
-8.57083
-8.77581
-8.93583
-9.05089
-9.12451
0.775358
-0.00445675
-0.851729
-1.66146
-2.35773
-2.97617
-3.4694
-3.8101
-4.01735
-4.09264
-3.94346
-4.52061
-5.21221
-5.70062
-6.09627
-6.48513
-6.85886
-7.19239
-7.48068
-7.72778
-7.93454
-8.09909
-8.22174
-8.30606
0.769588
0.0251895
-0.779631
-1.53972
-2.18168
-2.73494
-3.15654
-3.41321
-3.54192
-3.49861
-3.28289
-3.79595
-4.4423
-4.90607
-5.28249
-5.65339
-6.01367
-6.339
-6.62232
-6.86599
-7.06985
-7.23081
-7.3475
-7.42189
-7.46358
0.764488
0.052445
-0.713775
-1.42893
-2.02098
-2.51393
-2.86645
-3.04129
-3.09575
-2.93165
-2.65652
-3.09229
-3.67927
-4.10989
-4.46198
-4.80984
-5.15162
-5.46648
-5.74805
-5.99799
-6.21609
-6.4005
-6.5515
-6.67143
-6.76167
0.760462
0.0785257
-0.652263
-1.32723
-1.87577
-2.31759
-2.60966
-2.71533
-2.70443
-2.40866
-2.06503
-2.41191
-2.92496
-3.31144
-3.63508
-3.95659
-4.27034
-4.55669
-4.80959
-5.02951
-5.21388
-5.35577
-5.44878
-5.49305
-5.5085
0.758078
0.0963172
-0.608495
-1.2506
-1.76153
-2.15732
-2.39216
-2.43852
-2.35784
-1.90947
-1.49856
-1.76316
-2.18612
-2.50673
-2.79137
-3.09422
-3.40876
-3.71667
-4.01098
-4.29166
-4.55963
-4.81699
-5.06451
-5.29522
-5.48173
0.754955
0.084855
-0.620912
-1.24795
-1.72586
-2.0636
-2.2122
-2.15958
-1.94139
-1.32319
-0.914307
-1.13954
-1.48474
-1.72086
-1.90563
-2.08551
-2.26303
-2.43021
-2.58196
-2.71308
-2.81152
-2.85798
-2.83849
-2.76163
-2.69046
0.746322
0.0447909
-0.686156
-1.31873
-1.77362
-2.04872
-2.09078
-1.89576
-1.46829
-0.685412
-0.291233
-0.470997
-0.78728
-1.08494
-1.38563
-1.70003
-2.03091
-2.37987
-2.75174
-3.15538
-3.60298
-4.10079
-4.62566
-5.11825
-5.47291
)
;

boundaryField
{
    inlet
    {
        type            freestreamPressure;
        freestreamValue uniform 0;
        value           nonuniform List<scalar> 
25
(
0.742688
0.0445729
-0.682815
-1.31231
-1.76498
-2.03874
-2.0806
-1.88653
-1.46114
-0.682075
-0.125424
-0.202953
-0.33951
-0.468312
-0.598717
-0.735381
-0.879538
-1.03193
-1.1947
-1.37173
-1.56836
-1.78733
-2.01849
-2.2358
-2.39288
)
;
    }
    outlet
    {
        type            freestreamPressure;
        freestreamValue nonuniform List<scalar> 0();
        value           nonuniform List<scalar> 0();
    }
    walls
    {
        type            zeroGradient;
    }
    frontAndBack
    {
        type            empty;
    }
    procBoundary4to0
    {
        type            processor;
        value           nonuniform List<scalar> 
72
(
81.3073
77.3742
73.2593
69.0921
64.9588
60.9152
56.9983
53.2332
49.6336
46.2067
42.9561
39.881
36.9794
34.2474
31.6798
29.2701
27.0126
24.901
22.9284
21.088
19.3734
17.7782
17.7782
22.3416
20.6899
19.1519
17.7209
16.3907
15.1555
14.0093
12.9468
11.9628
11.0524
10.2109
9.43383
8.71694
8.05625
7.44791
6.88839
6.37426
5.90227
5.46943
5.07291
4.70996
4.3781
4.07494
3.79824
3.54592
3.31601
3.10669
2.91623
2.74303
2.58564
2.4427
2.31284
2.19478
2.08748
1.99047
1.9032
1.83652
1.78255
1.72966
1.67802
1.62814
1.58063
1.53662
1.49687
1.46042
1.42715
1.40586
1.41155
1.43228
)
;
    }
    procBoundary4to5
    {
        type            processor;
        value           nonuniform List<scalar> 
95
(
60.7369
32.7452
1.78485
-24.8804
-24.8804
-56.8924
-81.1836
-81.1836
-112.646
-132.472
-132.472
-149.687
-149.687
-164.328
-153.034
-153.034
-165.007
-165.007
-174.803
-164.053
-164.053
-171.595
-161.522
-161.522
-167.059
-157.554
-157.554
-161.306
-152.297
-143.893
-143.893
-145.922
-137.91
-130.39
-130.39
-130.981
-123.804
-117.039
-117.039
-116.459
-110.02
-103.935
-103.935
-102.443
-96.6811
-91.2317
-86.0756
-81.1969
-81.1969
-79.1037
-74.5246
-70.194
-66.0987
-62.2265
-62.2265
-59.916
-56.3312
-52.9466
-49.7515
-46.7359
-46.7359
-44.5143
-41.7645
-39.1725
-36.7292
-34.426
-32.2546
-30.207
-30.207
-28.4553
-26.6118
-24.8729
-23.2314
-21.6809
-20.215
-18.8276
-17.513
-17.513
-16.2924
-15.1044
-13.9747
-13.0706
-12.3232
-11.5582
-10.7766
-9.98144
-9.1652
-8.35965
-8.35965
-7.48423
-6.82624
-5.51588
-5.61531
-2.65832
-5.68936
)
;
    }
}


// ************************************************************************* //
