/*--------------------------------*- C++ -*----------------------------------*\
| =========                 |                                                 |
| \\      /  F ield         | OpenFOAM: The Open Source CFD Toolbox           |
|  \\    /   O peration     | Version:  2306                                  |
|   \\  /    A nd           | Website:  www.openfoam.com                      |
|    \\/     M anipulation  |                                                 |
\*---------------------------------------------------------------------------*/
FoamFile
{
    version     2.0;
    format      ascii;
    arch        "LSB;label=32;scalar=64";
    class       volScalarField;
    location    "850";
    object      div(phi);
}
// * * * * * * * * * * * * * * * * * * * * * * * * * * * * * * * * * * * * * //

dimensions      [0 0 -1 0 0 0 0];

internalField   nonuniform List<scalar> 
10720
(
7.45452e-06
-5.59513e-06
4.07644e-06
-3.26844e-06
2.58341e-06
7.92635e-07
3.53399e-06
2.11943e-06
9.86199e-07
-6.27842e-07
-8.69668e-07
-1.15428e-06
-6.7605e-07
-6.27518e-07
-2.69406e-07
-3.37175e-07
-5.41573e-08
-2.23812e-07
2.42702e-07
-1.08349e-08
9.92568e-07
1.14454e-06
4.20101e-06
5.89958e-06
7.82094e-06
5.02221e-06
1.6711e-06
4.50575e-06
4.392e-06
2.59815e-06
-1.08073e-05
2.34261e-05
4.49764e-06
1.21797e-06
-6.72981e-06
3.00126e-05
7.79306e-05
-2.20559e-05
6.03178e-05
-5.65801e-06
6.15588e-06
-1.35873e-08
1.28058e-06
9.35083e-07
-4.52887e-06
-2.14279e-06
-7.1275e-06
-1.41967e-06
-1.37297e-07
-6.39579e-08
4.72126e-07
3.11902e-07
6.25367e-07
3.53504e-07
5.33892e-07
2.85123e-07
5.73479e-07
2.31881e-07
6.51513e-07
3.19411e-08
3.60489e-07
-1.04135e-06
-1.63928e-06
-1.81079e-06
-1.76436e-06
-1.24197e-06
-1.17805e-06
1.61209e-06
-2.82504e-06
-1.08187e-06
-1.47058e-06
-1.53132e-06
-2.53186e-06
-2.539e-06
-4.63391e-07
-1.40217e-05
-9.89117e-06
-1.09591e-05
3.52737e-06
-1.54317e-06
2.55951e-06
-2.41803e-06
2.76111e-06
1.44173e-06
2.85809e-06
1.93526e-06
2.79224e-07
-7.42224e-07
-9.48104e-07
-1.04757e-06
-6.2728e-07
-6.0316e-07
-2.37853e-07
-2.99303e-07
2.33291e-08
-4.01982e-08
3.58207e-07
2.5661e-07
7.75227e-07
6.62816e-07
1.5913e-06
1.80383e-06
2.54504e-06
2.53921e-06
1.71291e-06
1.31501e-06
1.82275e-06
2.0665e-06
-4.39694e-06
1.51105e-05
5.69394e-06
6.1151e-06
2.78265e-06
1.2835e-05
7.01937e-05
5.19505e-05
8.1984e-05
-7.04591e-08
2.88167e-06
-1.10777e-06
6.23877e-07
-2.47256e-06
-8.06166e-07
-5.32653e-06
-1.26471e-06
-4.02966e-07
-1.88658e-07
1.0632e-07
2.70267e-07
4.30125e-07
6.44882e-07
5.51016e-07
6.55073e-07
4.6275e-07
6.06754e-07
3.83986e-07
5.64206e-07
1.76181e-07
2.55582e-07
-7.08885e-07
-1.10302e-06
-1.54195e-06
-1.48417e-06
-1.46243e-06
-1.069e-06
1.13139e-06
-2.17391e-06
-8.90803e-07
-1.3953e-06
-1.38669e-06
-2.69572e-06
-2.73573e-06
-4.50193e-08
-1.38874e-05
-1.18897e-05
-1.86717e-05
-6.55387e-06
4.28108e-06
-4.25417e-06
3.15907e-06
-3.91615e-07
2.96273e-06
2.18242e-06
9.75952e-07
-2.35551e-07
-6.63193e-07
-1.22217e-06
-8.68379e-07
-8.99425e-07
-5.26956e-07
-5.24467e-07
-3.26024e-07
-3.15432e-07
-2.43283e-07
-1.24372e-07
-1.30474e-07
2.26981e-07
3.69538e-07
1.38139e-06
1.95947e-06
3.20364e-06
1.95133e-06
1.6132e-06
2.5818e-06
2.90259e-06
1.2221e-06
-5.00845e-06
1.1221e-05
1.4596e-06
-1.78578e-06
-6.78e-06
1.93486e-05
2.66969e-05
-4.1038e-05
1.39187e-05
4.56607e-06
-3.02904e-06
4.63175e-07
-2.61026e-06
-9.88386e-07
-1.72832e-06
-1.32221e-06
-9.27675e-08
3.94988e-08
-4.44316e-08
1.10887e-07
1.10689e-07
4.71799e-07
4.13725e-07
5.79127e-07
3.9363e-07
4.62249e-07
3.8607e-07
3.88337e-07
4.14558e-07
2.32273e-07
1.70549e-07
-6.382e-07
-1.19948e-06
-1.59448e-06
-1.46603e-06
-1.47383e-06
-9.82761e-07
1.08546e-06
-2.30393e-06
-9.72801e-07
-1.45697e-06
-1.33112e-06
-2.17859e-06
-2.01758e-06
-9.99466e-07
-1.06874e-05
-6.73749e-06
-5.70138e-06
3.1251e-06
-2.74032e-06
1.33257e-06
-7.41808e-07
2.3135e-06
1.94249e-06
1.38225e-06
4.41798e-07
-3.34356e-07
-9.0756e-07
-1.05483e-06
-8.50435e-07
-8.17315e-07
-4.71523e-07
-5.36723e-07
-1.93843e-07
-2.69758e-07
8.12518e-08
7.06136e-08
4.01596e-07
4.24353e-07
7.42734e-07
9.64467e-07
1.49811e-06
1.80917e-06
2.47814e-06
2.05569e-06
1.70594e-06
2.0008e-06
2.08827e-06
-1.32409e-06
1.01132e-05
5.08038e-06
5.17956e-06
3.0877e-06
8.6532e-06
4.66276e-05
3.32887e-05
6.25458e-05
-2.17244e-06
-6.12763e-07
-2.32956e-06
-2.02235e-06
-1.29696e-06
-1.68242e-06
1.75636e-07
2.85608e-07
8.53174e-08
9.06851e-08
-3.3885e-08
1.66504e-07
4.09162e-07
5.50258e-07
6.88996e-07
5.63194e-07
5.99015e-07
4.50042e-07
5.33019e-07
3.64319e-07
3.52549e-07
8.83994e-08
-2.89397e-07
-8.20261e-07
-1.09412e-06
-1.39956e-06
-1.4263e-06
-1.1907e-06
6.22381e-07
-1.73229e-06
-9.44385e-07
-1.39291e-06
-1.42203e-06
-2.65453e-06
-2.59259e-06
-6.06026e-07
-1.3741e-05
-1.25159e-05
-1.99174e-05
1.29296e-06
-1.94277e-07
-1.62807e-07
1.36345e-06
1.36413e-06
1.70186e-06
8.59502e-07
6.15124e-08
-3.81148e-07
-9.96375e-07
-8.2535e-07
-9.8985e-07
-6.50151e-07
-7.45823e-07
-4.7686e-07
-5.27632e-07
-3.40034e-07
-3.63008e-07
-2.33362e-07
-2.22669e-07
-4.71418e-08
1.91238e-07
6.98564e-07
1.46535e-06
2.43436e-06
2.37315e-06
1.59517e-06
3.86505e-06
2.65991e-06
1.38384e-06
-2.89789e-06
7.44318e-06
1.41144e-06
-3.69167e-06
-7.55574e-06
1.97316e-05
1.84277e-05
-4.49932e-05
3.86972e-06
-1.75735e-06
-1.46249e-06
-2.79541e-06
-1.02231e-06
-1.1358e-06
-3.59863e-07
2.45316e-07
4.3507e-07
3.14813e-07
2.43136e-08
-4.74326e-08
1.75644e-07
3.16348e-07
6.45068e-07
5.37743e-07
6.41654e-07
4.11436e-07
5.08756e-07
3.52913e-07
4.44942e-07
2.34357e-07
2.25402e-07
-3.68817e-07
-6.85829e-07
-1.28928e-06
-1.32604e-06
-1.55267e-06
-1.01852e-06
3.77868e-07
-1.43793e-06
-9.72138e-07
-1.19197e-06
-1.24882e-06
-1.70741e-06
-1.63645e-06
-1.69133e-06
-8.75026e-06
-4.28679e-06
-3.02532e-06
-8.96853e-07
9.61086e-08
1.29966e-06
3.66727e-07
1.66532e-06
9.29275e-07
4.44456e-07
1.09181e-08
-6.08443e-07
-7.5924e-07
-8.15071e-07
-7.60126e-07
-6.03456e-07
-6.61973e-07
-4.01956e-07
-4.54271e-07
-1.29394e-07
-1.69021e-07
1.87414e-07
1.44813e-07
4.83023e-07
3.99933e-07
8.27098e-07
8.90379e-07
1.62516e-06
2.11856e-06
2.70782e-06
2.37944e-06
2.95816e-06
2.56993e-06
4.35817e-07
8.36681e-06
5.41175e-06
5.13364e-06
3.05128e-06
9.7402e-06
3.93241e-05
2.24327e-05
4.91349e-05
-9.61802e-07
-2.28342e-06
-2.11496e-06
-1.07033e-06
-1.76608e-06
-1.18663e-07
5.09e-07
4.25342e-07
2.45117e-07
-4.42285e-08
-5.71477e-08
7.2718e-08
3.95621e-07
5.98658e-07
7.02546e-07
6.4063e-07
5.26365e-07
5.33766e-07
4.45939e-07
4.20131e-07
2.97293e-07
1.55561e-07
-1.03722e-07
-4.81871e-07
-7.60336e-07
-1.20598e-06
-1.30675e-06
-1.33034e-06
2.40078e-07
-1.41555e-06
-1.05947e-06
-1.31702e-06
-1.34919e-06
-2.33015e-06
-2.2169e-06
-1.34597e-06
-1.18472e-05
-1.1982e-05
-1.87237e-05
-2.05003e-06
1.54887e-06
1.16924e-07
1.28694e-06
7.92543e-07
6.02232e-07
2.50101e-07
-8.55071e-08
-5.3562e-07
-5.75508e-07
-7.32848e-07
-5.4862e-07
-7.30455e-07
-5.52347e-07
-6.68449e-07
-4.49542e-07
-4.80367e-07
-3.2247e-07
-3.35285e-07
-2.58878e-07
-2.14011e-07
-6.76645e-08
1.72092e-07
6.62109e-07
1.50372e-06
1.65286e-06
1.95245e-06
3.42626e-06
3.44831e-06
9.442e-07
-1.64004e-06
5.0368e-06
3.56508e-07
-4.59239e-06
-8.91422e-06
2.20271e-05
1.71813e-05
-4.87994e-05
2.16788e-06
-7.38612e-07
-2.75423e-06
-6.2517e-07
-1.59116e-06
3.0371e-07
-1.63271e-07
1.57562e-07
4.58465e-07
1.48476e-07
-4.41082e-08
-1.18656e-07
5.13163e-08
4.07373e-07
5.70223e-07
7.35417e-07
5.60128e-07
5.73461e-07
4.20122e-07
5.07013e-07
3.12409e-07
4.09938e-07
9.20518e-08
7.63205e-08
-5.64586e-07
-6.11046e-07
-1.37725e-06
-1.16155e-06
-1.42527e-06
3.83951e-07
-1.28549e-06
-7.37877e-07
-1.11731e-06
-9.31384e-07
-1.3996e-06
-1.08907e-06
-1.79291e-06
-5.30982e-06
-2.26208e-06
1.1939e-07
1.30612e-06
7.76852e-07
8.94449e-07
7.87615e-07
4.96484e-07
3.80886e-07
2.32295e-07
-2.35851e-07
-3.4207e-07
-5.87621e-07
-4.40553e-07
-4.47394e-07
-5.58763e-07
-4.93848e-07
-5.71274e-07
-3.17526e-07
-3.45928e-07
-2.28697e-08
-6.46919e-08
2.50908e-07
1.6268e-07
4.26749e-07
3.24164e-07
7.16565e-07
9.13904e-07
1.844e-06
2.35563e-06
2.89821e-06
3.25118e-06
3.20585e-06
1.46189e-06
6.72595e-06
5.35978e-06
4.73635e-06
2.86993e-06
1.13857e-05
3.62129e-05
1.53446e-05
3.83675e-05
-1.80176e-06
-4.76865e-07
-1.83846e-06
2.02768e-06
-1.19517e-06
-9.78258e-08
2.1073e-07
3.16224e-07
6.12197e-08
-1.40852e-07
-1.77152e-07
6.97322e-08
3.36551e-07
6.54925e-07
6.59289e-07
6.18914e-07
5.12991e-07
5.2092e-07
4.42979e-07
4.19818e-07
2.73868e-07
2.15064e-07
1.41375e-09
-2.12714e-07
-4.9687e-07
-8.89334e-07
-1.12403e-06
-1.22137e-06
-5.21306e-08
-1.23373e-06
-1.2969e-06
-1.3749e-06
-1.34405e-06
-2.04802e-06
-1.94445e-06
-1.96306e-06
-9.83155e-06
-1.08429e-05
-1.55956e-05
2.22836e-07
5.44158e-07
1.07296e-06
5.50374e-07
4.98724e-07
2.6011e-07
6.44959e-08
-2.80064e-09
-3.53663e-07
-2.46511e-07
-3.1087e-07
-4.43203e-07
-4.06181e-07
-6.58778e-07
-5.08575e-07
-5.94084e-07
-3.67983e-07
-4.3189e-07
-2.66402e-07
-3.79405e-07
-2.32541e-07
-3.48103e-07
-1.04489e-07
-5.93554e-08
7.88109e-07
7.10613e-07
1.62331e-06
2.89362e-06
3.33158e-06
9.0284e-07
-6.7217e-07
2.3319e-06
6.5899e-08
-5.7361e-06
-8.71628e-06
2.11224e-05
1.45521e-05
-5.16763e-05
1.24988e-06
1.82298e-07
-1.76147e-06
1.43021e-06
-2.77767e-06
9.97641e-07
-1.16135e-07
5.58834e-09
2.88996e-08
5.32242e-08
-1.9354e-07
-1.8333e-07
3.50953e-08
3.55424e-07
6.10708e-07
6.33072e-07
5.95631e-07
4.83745e-07
5.31255e-07
4.08433e-07
4.56913e-07
2.622e-07
3.12956e-07
1.79405e-08
-6.20457e-08
-5.17739e-07
-7.19281e-07
-1.17176e-06
-1.00534e-06
8.55527e-09
-7.92877e-07
-1.03419e-06
-8.22103e-07
-8.76006e-07
-9.41519e-07
-8.38376e-07
-1.90304e-06
-3.15676e-06
-2.95735e-07
2.21422e-06
9.88361e-07
1.70438e-06
1.02882e-06
9.01753e-07
3.88876e-07
2.38118e-07
1.33168e-07
-1.21972e-07
4.21627e-09
-8.00869e-07
7.62401e-08
-2.13973e-07
-3.63665e-07
-5.12764e-07
-4.40893e-07
-4.60397e-07
-2.47518e-07
-2.02324e-07
5.359e-09
4.18711e-08
1.70482e-07
1.74284e-07
2.16282e-07
3.52446e-07
5.78079e-07
1.25566e-06
1.84718e-06
2.80269e-06
3.14618e-06
3.72348e-06
1.8011e-06
5.82457e-06
5.33884e-06
4.29171e-06
2.61322e-06
1.11737e-05
2.90747e-05
1.04465e-05
2.98044e-05
-1.14149e-06
-2.89518e-08
-1.94027e-06
1.9577e-06
-1.16995e-06
7.95865e-08
-1.02479e-07
6.53264e-07
-2.07256e-07
-2.59553e-07
-1.94205e-07
1.31199e-08
3.86288e-07
5.41108e-07
6.16395e-07
4.91731e-07
5.29298e-07
4.4925e-07
5.05237e-07
3.37284e-07
3.4501e-07
1.68111e-07
1.55091e-07
-1.09782e-07
-1.96031e-07
-6.38429e-07
-7.42385e-07
-1.01496e-06
-1.44995e-07
-1.1673e-06
-1.43233e-06
-1.56366e-06
-1.44875e-06
-1.85493e-06
-1.81113e-06
-2.51879e-06
-8.24072e-06
-9.63932e-06
-1.24555e-05
1.12405e-06
5.90408e-07
4.67389e-07
1.46336e-07
4.42289e-07
1.80358e-07
2.48834e-07
3.3755e-07
-1.09939e-06
3.4733e-07
-1.74204e-07
9.34629e-08
-3.36937e-07
-3.91453e-07
-5.99491e-07
-4.40722e-07
-5.30577e-07
-2.86338e-07
-4.39788e-07
-2.18941e-07
-4.76459e-07
-2.03026e-07
-5.86355e-07
-3.15649e-08
-2.50628e-07
6.23797e-07
3.0124e-07
2.69028e-06
1.96601e-06
1.86987e-06
-1.80398e-06
1.23725e-06
-1.06496e-06
-5.72286e-06
-8.06065e-06
1.77348e-05
1.25807e-05
-5.03105e-05
2.33094e-06
-1.67092e-07
-6.60765e-07
-1.23426e-07
-3.2635e-07
9.61347e-07
-6.10112e-07
7.17475e-07
-2.80426e-08
-1.80368e-07
-3.50007e-07
-2.41897e-07
4.77965e-08
3.18017e-07
5.27858e-07
5.1297e-07
4.93267e-07
4.74465e-07
4.80586e-07
4.73233e-07
3.847e-07
3.50913e-07
2.4306e-07
2.24477e-07
-9.66703e-09
-7.84117e-08
-5.22955e-07
-5.53506e-07
-8.48674e-07
1.27244e-07
-7.406e-07
-8.53923e-07
-1.04672e-06
-6.136e-07
-7.89961e-07
-5.19703e-07
-1.65366e-06
-1.19653e-06
8.73059e-07
2.89307e-06
3.14006e-07
9.66679e-07
2.87159e-07
1.01557e-07
2.42825e-08
2.6734e-07
4.14924e-07
-5.63838e-07
6.82189e-07
-9.44595e-07
3.39529e-07
1.73232e-07
-1.55514e-07
-3.14692e-07
-4.2543e-07
-4.46229e-07
-3.19198e-07
-2.45451e-07
-5.41117e-08
-3.64106e-08
1.21683e-07
5.19552e-08
1.6373e-07
1.3506e-07
3.86911e-07
7.29436e-07
1.32073e-06
2.21164e-06
2.80607e-06
3.53067e-06
1.97154e-06
5.14868e-06
5.5863e-06
4.05765e-06
2.45342e-06
1.0286e-05
2.17577e-05
6.47284e-06
2.2441e-05
-2.49349e-07
-2.19849e-07
-1.93338e-07
1.32093e-07
-2.15356e-07
3.758e-07
-2.47963e-07
4.61527e-07
-3.62975e-07
-4.71973e-07
-2.54822e-07
5.3121e-08
2.98132e-07
4.61343e-07
4.26002e-07
4.5898e-07
4.13269e-07
5.22664e-07
3.98666e-07
4.19391e-07
2.48527e-07
2.83291e-07
1.16587e-07
1.01285e-07
-1.09399e-07
-2.65807e-07
-4.94022e-07
-5.86102e-07
-2.63554e-07
-9.47159e-07
-1.50077e-06
-1.65521e-06
-1.67021e-06
-1.80188e-06
-1.73891e-06
-2.8221e-06
-6.89717e-06
-8.28388e-06
-9.74218e-06
4.88988e-07
3.68442e-07
1.24301e-07
6.98168e-08
1.6091e-07
1.52071e-07
7.57959e-08
4.23905e-07
-1.45365e-06
7.25723e-07
1.74085e-07
8.27382e-08
-6.07585e-08
-3.39604e-07
-4.06439e-07
-5.69114e-07
-4.24886e-07
-4.80578e-07
-2.69185e-07
-4.18423e-07
-2.22758e-07
-4.85385e-07
-2.74734e-07
-5.42424e-07
-7.65238e-08
-3.41508e-07
3.02943e-07
9.05801e-07
1.75245e-06
7.03301e-07
-1.6474e-06
-3.30342e-07
-1.59838e-06
-6.14745e-06
-7.28654e-06
1.4274e-05
1.05526e-05
-4.5593e-05
2.29075e-06
-7.68587e-09
-1.33922e-07
4.48072e-08
-6.84624e-08
1.39523e-07
-9.93793e-08
7.50253e-07
-2.27547e-07
-3.11071e-07
-3.68607e-07
-1.77419e-07
3.611e-08
3.0055e-07
3.47409e-07
4.11443e-07
3.66091e-07
4.62083e-07
4.47002e-07
4.67915e-07
3.65618e-07
3.4342e-07
2.79395e-07
2.52071e-07
1.57194e-07
7.0278e-08
-1.41013e-07
-2.28748e-07
-3.6689e-07
1.11917e-07
-4.51714e-07
-8.74945e-07
-8.45016e-07
-8.12659e-07
-4.57963e-07
-4.26855e-07
-1.38994e-06
-5.7365e-08
1.7115e-06
3.2724e-06
3.26478e-07
3.17098e-07
1.49353e-07
1.63345e-08
5.73024e-08
2.73582e-07
3.02523e-07
-2.59244e-07
2.23862e-07
-6.80012e-07
1.5229e-07
9.20372e-08
2.55135e-08
-2.06504e-07
-4.23196e-07
-4.18249e-07
-4.65757e-07
-1.96203e-07
-2.24014e-07
5.1126e-08
-4.5719e-08
1.69018e-07
-9.53389e-09
2.32145e-07
9.20423e-08
5.6415e-07
6.60654e-07
1.71893e-06
1.96129e-06
3.07021e-06
1.76236e-06
4.76988e-06
5.38722e-06
4.18975e-06
2.05138e-06
9.20152e-06
1.53368e-05
3.43442e-06
1.6433e-05
5.91264e-08
1.91696e-08
-2.62046e-08
1.42371e-07
-5.74716e-08
1.4074e-07
2.85796e-08
3.76369e-07
-3.91129e-07
-2.71102e-07
-1.55768e-07
7.59227e-08
2.41339e-07
2.97242e-07
3.34471e-07
3.34424e-07
4.54992e-07
4.22524e-07
4.49306e-07
3.1613e-07
3.30563e-07
2.1155e-07
2.33458e-07
1.00632e-07
8.79645e-08
-1.23063e-07
-1.61284e-07
-3.39916e-07
-1.70149e-07
-8.2216e-07
-1.2623e-06
-1.71704e-06
-1.74341e-06
-1.93488e-06
-1.73266e-06
-3.02997e-06
-5.71183e-06
-6.94497e-06
-7.44687e-06
2.83471e-07
2.86749e-07
3.43795e-09
7.53497e-08
1.64944e-07
1.58698e-07
1.21214e-07
2.14155e-07
-1.80893e-07
-8.94452e-08
3.66748e-07
7.55894e-08
9.91707e-09
-1.89291e-07
-4.28578e-07
-5.39695e-07
-5.24517e-07
-4.22597e-07
-3.67011e-07
-2.6741e-07
-3.09914e-07
-2.48469e-07
-4.03579e-07
-2.89537e-07
-4.46575e-07
-2.53152e-07
-4.93733e-07
4.31298e-07
2.45101e-07
3.75959e-07
-2.20208e-06
-1.2175e-06
-2.02178e-06
-6.97391e-06
-6.56303e-06
1.10848e-05
1.05041e-05
-4.09658e-05
2.99047e-06
1.24465e-07
5.52798e-08
8.20278e-08
-4.1733e-08
1.06937e-07
-1.88769e-08
1.13984e-07
-9.31884e-08
-2.94692e-07
-3.09724e-07
-1.04913e-07
8.89006e-08
1.7272e-07
2.79904e-07
2.47152e-07
3.77335e-07
3.72946e-07
4.73119e-07
3.66092e-07
3.84268e-07
2.87391e-07
3.14965e-07
2.48332e-07
2.54409e-07
1.68611e-07
1.07575e-07
9.90211e-09
6.42901e-09
1.18719e-07
-2.10409e-07
-6.13265e-07
-7.9388e-07
-6.84297e-07
-4.72985e-07
-2.25087e-07
-1.03995e-06
8.41288e-07
2.24075e-06
2.81974e-06
2.79228e-07
1.73326e-07
1.20471e-07
5.16723e-09
6.2144e-08
2.84661e-07
2.78995e-07
-1.62877e-07
7.65636e-08
1.05119e-07
-1.81227e-07
4.24767e-07
-8.2233e-08
-1.29593e-07
-3.91048e-07
-5.33805e-07
-3.68618e-07
-3.56749e-07
-7.79653e-08
-1.30426e-07
1.32584e-07
-1.0308e-08
2.03163e-07
1.10027e-08
2.40489e-07
1.37744e-07
5.30409e-07
9.11717e-07
1.46951e-06
2.06275e-06
1.73758e-06
3.99479e-06
5.10166e-06
3.98853e-06
1.7557e-06
7.75262e-06
1.0706e-05
1.32537e-06
1.24175e-05
1.29377e-07
8.38495e-08
2.46888e-08
1.11801e-07
-5.5016e-08
8.30487e-08
2.1469e-09
-3.37221e-09
-8.8713e-08
-1.71076e-07
-3.37904e-08
6.7276e-08
1.3638e-07
1.96908e-07
2.38148e-07
3.44425e-07
3.85236e-07
4.229e-07
3.45603e-07
3.4579e-07
2.49902e-07
2.75594e-07
1.7729e-07
2.09276e-07
7.70448e-08
7.76621e-08
-7.64902e-08
-6.82035e-08
-2.0541e-07
-5.33529e-07
-1.07231e-06
-1.47886e-06
-1.79524e-06
-1.96348e-06
-1.81702e-06
-2.98572e-06
-4.67375e-06
-5.57244e-06
-5.68932e-06
2.2042e-07
2.25117e-07
-2.3852e-08
7.45022e-08
1.77462e-07
1.48021e-07
1.12536e-07
2.576e-07
-1.8508e-07
-1.26065e-07
3.0593e-07
-2.07846e-08
2.903e-07
-1.41374e-07
-4.35957e-07
-4.88739e-07
-5.18691e-07
-3.45044e-07
-3.3465e-07
-1.95517e-07
-2.3215e-07
-1.66041e-07
-2.85246e-07
-2.50917e-07
-4.04359e-07
-3.88717e-07
-6.59087e-07
-2.03054e-07
-5.01205e-07
-3.02012e-07
-2.40688e-06
-1.35593e-06
-2.77006e-06
-6.39262e-06
-6.93427e-06
8.38955e-06
9.82745e-06
-3.54876e-05
3.09754e-06
1.40908e-07
9.39287e-08
8.17926e-08
-3.36876e-08
7.16291e-08
-4.3098e-08
5.16601e-08
3.02965e-09
-5.39708e-08
-1.43075e-07
-8.29823e-08
-2.45718e-08
1.37405e-07
1.27559e-07
2.69821e-07
2.78925e-07
4.12997e-07
3.28923e-07
3.73422e-07
2.69814e-07
3.06967e-07
2.40716e-07
2.80954e-07
2.33329e-07
2.55348e-07
1.6407e-07
1.98607e-07
1.10009e-07
2.24138e-07
-1.06483e-07
-2.48895e-07
-6.42171e-07
-5.0145e-07
-4.47902e-07
2.45731e-08
-6.10959e-07
1.3674e-06
2.2523e-06
2.55339e-06
2.29629e-07
1.23675e-07
1.06692e-07
-8.07387e-10
8.07509e-08
2.70144e-07
2.68821e-07
-1.41195e-07
7.00763e-08
6.62283e-08
-1.26319e-07
1.35498e-07
5.61358e-08
-2.53265e-07
-3.36515e-07
-4.16867e-07
-3.73437e-07
-1.8302e-07
-1.69457e-07
1.86832e-08
1.29327e-08
1.47916e-07
8.24151e-08
1.49361e-07
7.90455e-08
1.31259e-07
2.36882e-07
5.37166e-07
9.24096e-07
1.31636e-06
1.58664e-06
3.27085e-06
4.41928e-06
3.68111e-06
1.41719e-06
6.0203e-06
6.65041e-06
3.56633e-08
9.32317e-06
1.28483e-07
9.23902e-08
3.53791e-08
8.70238e-08
-5.52461e-08
4.28341e-08
-2.39776e-08
4.36941e-08
9.53926e-09
-5.14452e-08
-1.04051e-07
2.28793e-07
-4.41207e-08
1.01137e-07
2.21381e-07
3.03807e-07
3.46486e-07
3.1957e-07
3.16823e-07
2.49637e-07
2.6513e-07
1.9352e-07
2.24469e-07
1.3946e-07
1.34152e-07
6.60808e-08
2.65504e-08
-3.16703e-08
-1.40455e-07
-3.91973e-07
-8.07588e-07
-1.20721e-06
-1.66579e-06
-1.87354e-06
-1.9412e-06
-2.78592e-06
-3.71783e-06
-4.38375e-06
-4.20237e-06
1.80898e-07
1.84866e-07
-3.88215e-08
8.90696e-08
1.68096e-07
1.33405e-07
9.57139e-08
2.54628e-07
-1.48786e-07
-9.51628e-08
1.19578e-07
5.81531e-08
-1.46882e-08
-4.94861e-08
-2.73239e-07
-3.97122e-07
-2.80006e-07
-3.09812e-07
-1.49737e-07
-2.25926e-07
-5.07792e-08
-1.90475e-07
-7.04826e-08
-2.97894e-07
-1.96182e-07
-5.56018e-07
-4.65051e-07
-7.5485e-07
-5.05002e-07
-1.14441e-06
-1.5938e-06
-1.82161e-06
-2.32424e-06
-6.11205e-06
-6.64373e-06
6.18545e-06
9.57403e-06
-3.08198e-05
3.24756e-06
1.27453e-07
9.21919e-08
6.9823e-08
-3.18282e-08
5.33425e-08
-6.29258e-08
5.10768e-08
-1.01556e-10
3.78827e-08
-6.94672e-08
2.15531e-07
-2.64981e-07
-1.01619e-08
5.52396e-08
1.47371e-07
3.12167e-07
2.53446e-07
3.19976e-07
2.21129e-07
2.68222e-07
1.91316e-07
2.41341e-07
1.91791e-07
2.39891e-07
1.64995e-07
2.31657e-07
1.34719e-07
2.37232e-07
1.05255e-07
1.32064e-07
-2.06059e-07
-2.07301e-07
-5.04609e-07
-1.4633e-07
-3.60243e-09
-3.33745e-07
1.55391e-06
2.24814e-06
1.90964e-06
1.87285e-07
9.11517e-08
1.04793e-07
2.46221e-09
6.83195e-08
2.57536e-07
2.40381e-07
-1.23819e-07
1.09056e-07
3.07526e-08
-1.46939e-07
-4.35677e-08
-7.27951e-08
-1.56073e-07
-3.08223e-07
-2.62579e-07
-1.32618e-07
-1.09821e-07
-6.86056e-08
-1.09717e-08
6.96357e-08
1.25137e-07
1.37679e-07
1.30845e-07
9.62807e-08
7.65226e-08
1.64411e-07
2.93282e-07
6.42271e-07
8.41696e-07
1.50727e-06
2.53813e-06
3.67448e-06
3.08571e-06
1.07501e-06
4.30657e-06
3.61625e-06
-9.50874e-07
7.18522e-06
1.11459e-07
7.58292e-08
3.15288e-08
6.70185e-08
-6.19301e-08
2.76001e-08
-5.15111e-08
7.33383e-08
-2.66497e-09
8.45371e-08
-1.42954e-07
2.77093e-07
-1.97653e-07
-2.51618e-08
1.51681e-07
2.22218e-07
2.48373e-07
2.41026e-07
2.12505e-07
2.14693e-07
1.7212e-07
1.91664e-07
1.39579e-07
1.00567e-07
7.05222e-08
4.59711e-08
4.77639e-09
-2.87891e-08
-1.49366e-07
-2.86317e-07
-6.51625e-07
-9.17161e-07
-1.47452e-06
-1.65016e-06
-1.9859e-06
-2.36395e-06
-2.90476e-06
-3.18686e-06
-3.02493e-06
1.45312e-07
1.58243e-07
-3.78763e-08
8.05523e-08
1.58927e-07
1.17051e-07
9.05002e-08
2.60187e-07
-1.18521e-07
-1.38643e-07
9.80033e-08
-1.53445e-07
-6.75903e-08
-2.58955e-07
-1.63621e-07
-1.96891e-08
-1.57682e-07
-8.08038e-08
-1.68576e-07
-5.59477e-08
-1.09989e-07
7.38652e-09
-1.14526e-07
-5.69617e-08
-2.51992e-07
-2.79213e-07
-5.39594e-07
-5.42699e-07
-7.45891e-07
-9.04137e-07
-1.34173e-06
-1.37619e-06
-2.18571e-06
-4.88193e-06
-6.30871e-06
4.60264e-06
9.19133e-06
-2.53316e-05
3.15148e-06
1.04113e-07
7.74469e-08
5.36697e-08
-3.58243e-08
3.27593e-08
-7.66187e-08
3.63742e-08
-1.72426e-08
3.39092e-08
-1.82061e-08
2.1237e-07
-3.47213e-07
-1.81301e-08
-2.21401e-08
1.64953e-07
1.48744e-07
2.29806e-07
1.50519e-07
2.04803e-07
1.25637e-07
1.76849e-07
1.21075e-07
1.49785e-07
8.48402e-08
1.36987e-07
9.84885e-08
1.46469e-07
1.12515e-07
1.39895e-07
6.06487e-08
-2.16177e-08
-1.33646e-07
-2.25042e-07
-8.3111e-08
1.41953e-07
1.99904e-07
1.92822e-06
1.8932e-06
1.68619e-06
1.51724e-07
7.55757e-08
9.5609e-08
-6.43776e-09
7.06628e-08
2.33195e-07
2.31226e-07
-1.06746e-07
9.19264e-08
3.6645e-08
-2.39888e-07
-7.27841e-08
-1.71026e-07
-7.88184e-08
2.0568e-08
-5.26029e-07
6.50747e-08
2.15924e-09
-3.26054e-08
-1.40481e-08
9.32414e-08
1.27625e-07
1.76446e-07
1.48843e-07
1.29054e-07
1.09196e-07
1.59398e-07
2.48691e-07
5.03196e-07
6.9267e-07
1.34981e-06
1.99759e-06
2.93969e-06
2.45052e-06
8.25757e-07
3.02706e-06
1.54666e-06
-1.60416e-06
5.44522e-06
9.27001e-08
6.40869e-08
2.31462e-08
4.94547e-08
-6.64908e-08
1.58809e-08
-7.10832e-08
5.25486e-08
7.02352e-09
5.8474e-08
-1.26817e-07
1.40203e-07
-1.8829e-07
4.48028e-08
8.83117e-08
1.54282e-07
1.48187e-07
1.47338e-07
1.3052e-07
1.18901e-07
1.26597e-07
1.01313e-07
4.58197e-08
7.76696e-09
-1.34089e-08
-1.37784e-08
-4.23416e-08
-7.46432e-08
-1.70012e-07
-2.66883e-07
-5.44864e-07
-7.27884e-07
-1.24111e-06
-1.38545e-06
-1.8148e-06
-1.89554e-06
-2.12664e-06
-2.19656e-06
-2.05601e-06
1.2759e-07
1.3407e-07
-3.91127e-08
8.48207e-08
1.39106e-07
9.95629e-08
8.18782e-08
2.40623e-07
-1.10724e-07
-1.37625e-07
3.66043e-08
-1.51547e-07
-1.03564e-07
9.20054e-08
-6.68998e-07
4.28546e-07
2.865e-07
9.01597e-08
-2.28841e-08
-7.46618e-08
3.18365e-09
4.43631e-09
4.71662e-08
-2.63766e-08
-4.23391e-08
-1.9963e-07
-2.629e-07
-4.6441e-07
-4.58564e-07
-7.74818e-07
-7.79194e-07
-1.14109e-06
-1.66576e-06
-3.63308e-06
-5.46138e-06
3.70188e-06
7.3642e-06
-2.10307e-05
3.23426e-06
8.73967e-08
6.29018e-08
4.06304e-08
-3.78116e-08
2.44992e-08
-8.58942e-08
2.43404e-08
-4.01457e-08
4.05122e-08
5.7938e-09
2.92643e-08
-3.25753e-08
-9.60164e-08
7.30532e-08
7.04536e-08
1.51051e-07
7.60817e-08
1.34869e-07
6.05071e-08
1.08142e-07
5.44009e-08
5.50541e-08
-1.37452e-08
-4.27763e-09
-4.57227e-09
3.69429e-08
3.60709e-08
6.63349e-08
3.09139e-08
5.79978e-08
-5.99189e-08
-6.05596e-10
-1.69983e-07
9.9167e-08
2.44787e-07
2.93707e-07
1.76342e-06
1.90999e-06
1.24234e-06
1.34009e-07
6.43129e-08
9.92314e-08
-2.38463e-09
5.46143e-08
2.14731e-07
2.00541e-07
-9.98384e-08
9.21193e-08
2.02235e-08
-2.35337e-07
-9.23515e-08
1.02728e-08
-2.40821e-07
4.39108e-07
-3.32894e-07
4.24668e-07
3.42516e-07
6.2849e-08
3.79115e-08
7.81297e-08
1.79966e-07
1.81288e-07
2.17443e-07
1.48288e-07
2.01315e-07
1.65971e-07
3.21578e-07
4.2448e-07
6.92133e-07
1.15121e-06
1.61379e-06
2.34534e-06
1.85155e-06
9.21363e-07
2.08158e-06
3.59386e-07
-1.9685e-06
4.21515e-06
7.40173e-08
4.79143e-08
1.66248e-08
3.73373e-08
-6.79258e-08
5.04842e-09
-8.67906e-08
4.14301e-08
9.69437e-09
3.56034e-08
-3.75437e-08
-5.13171e-08
1.99527e-08
-4.40439e-08
7.75991e-08
3.84285e-08
1.72667e-07
3.93029e-08
6.80295e-08
5.3203e-08
4.21099e-08
-1.10347e-08
-5.79254e-08
-1.03241e-07
-8.01058e-08
-7.89993e-08
-8.22962e-08
-1.3047e-07
-1.91403e-07
-2.83573e-07
-4.72277e-07
-6.13199e-07
-1.02379e-06
-1.12152e-06
-1.59033e-06
-1.46019e-06
-1.54163e-06
-1.43575e-06
-1.42695e-06
1.03901e-07
1.32709e-07
-2.8593e-08
7.78141e-08
1.25525e-07
8.3857e-08
7.29616e-08
2.25136e-07
-1.02295e-07
-1.46313e-07
4.13002e-08
-9.64837e-08
-2.39483e-08
2.83931e-07
-2.62975e-07
1.0074e-06
4.33396e-07
2.47395e-07
2.3984e-08
-9.98041e-09
2.63639e-08
8.68972e-08
9.68342e-08
9.85477e-08
4.91598e-08
-1.26005e-09
-1.19452e-07
-1.87407e-07
-2.94608e-07
-4.17708e-07
-4.80713e-07
-7.66118e-07
-1.14853e-06
-2.67244e-06
-3.93323e-06
2.5413e-06
4.89246e-06
-1.57167e-05
3.06041e-06
7.47296e-08
4.87168e-08
2.93721e-08
-3.79229e-08
1.29749e-08
-8.88311e-08
9.44464e-09
-5.09296e-08
3.66317e-08
1.18057e-08
3.30512e-08
-1.13854e-08
-2.71842e-08
2.16996e-08
2.65603e-08
2.30741e-07
7.93848e-08
5.01746e-08
1.61224e-08
2.37022e-09
-1.05159e-08
-8.20637e-08
-1.2163e-07
-1.24918e-07
-8.30269e-08
-4.14849e-08
-2.32676e-08
-1.89746e-08
-2.65135e-08
-1.55451e-08
-6.42471e-08
-5.90478e-09
-1.05608e-07
1.56289e-07
2.16804e-07
4.17351e-07
1.66911e-06
1.54696e-06
1.01538e-06
1.27072e-07
6.7874e-08
9.4689e-08
-5.45679e-09
5.62999e-08
1.88375e-07
1.84982e-07
-9.71372e-08
7.60183e-08
2.69538e-08
-2.06459e-07
1.2087e-10
1.27252e-07
2.10198e-08
7.21902e-07
1.32367e-07
8.80974e-07
1.71903e-07
7.02287e-08
2.13011e-08
1.3179e-07
1.56568e-07
2.50136e-07
1.97484e-07
2.39629e-07
1.90529e-07
2.60256e-07
3.02317e-07
4.37914e-07
6.38912e-07
9.68447e-07
1.34598e-06
1.81608e-06
1.43489e-06
1.5452e-06
1.61519e-06
2.5675e-08
-1.68111e-06
3.26478e-06
5.13815e-08
4.10004e-08
1.19224e-08
2.8316e-08
-6.56067e-08
1.74767e-10
-9.3643e-08
3.5008e-08
1.21894e-08
2.70236e-08
-4.76174e-08
-1.42087e-08
3.10064e-08
-2.38653e-08
2.72002e-07
1.48233e-07
1.53855e-07
-1.94263e-08
1.70328e-08
-5.30474e-08
-7.54196e-08
-1.10372e-07
-1.66985e-07
-1.58123e-07
-1.28451e-07
-1.04316e-07
-1.13136e-07
-1.58132e-07
-2.04016e-07
-2.89875e-07
-4.09451e-07
-5.39885e-07
-8.15657e-07
-9.40754e-07
-1.25491e-06
-1.09987e-06
-1.09812e-06
-9.91151e-07
-1.04756e-06
8.17566e-08
1.24244e-07
-1.95682e-08
8.33076e-08
1.10105e-07
6.96937e-08
6.0558e-08
1.97109e-07
-9.38308e-08
-1.2423e-07
7.78286e-08
-2.54146e-09
1.11458e-07
3.95924e-07
1.47845e-07
6.93287e-07
2.18738e-07
1.6215e-07
-4.29618e-09
2.08527e-08
4.64706e-08
1.31918e-07
1.319e-07
1.66489e-07
1.27848e-07
1.1436e-07
2.57455e-08
-1.29131e-08
-1.11636e-07
-1.5966e-07
-2.4615e-07
-4.20997e-07
-7.68513e-07
-1.73116e-06
-2.65662e-06
1.78302e-06
2.64477e-06
-1.16665e-05
2.94071e-06
7.28101e-08
2.92884e-08
2.24192e-08
-3.47696e-08
1.10716e-08
-8.7968e-08
6.88094e-09
-5.83441e-08
2.88572e-08
1.66541e-10
3.5634e-08
1.09355e-08
-7.71138e-08
2.9485e-07
-1.80961e-08
3.75882e-07
-2.99627e-08
1.67539e-07
-1.81827e-07
-8.2688e-08
-1.56029e-07
-1.90505e-07
-1.99083e-07
-1.78248e-07
-1.15405e-07
-7.87816e-08
-6.4827e-08
-6.98696e-08
-6.80626e-08
-6.79653e-08
-7.51715e-08
-3.74315e-08
-6.41367e-08
1.22057e-07
2.62441e-07
3.30464e-07
1.23787e-06
1.29125e-06
7.17225e-07
2.03936e-07
3.58984e-08
9.00898e-08
3.11676e-09
4.61313e-08
1.70859e-07
1.55347e-07
-8.8805e-08
7.16355e-08
3.83157e-08
-1.308e-07
7.45687e-08
2.06262e-07
1.43989e-07
6.52198e-07
7.00217e-08
7.17841e-07
-3.39111e-07
1.99049e-09
4.34642e-08
9.33642e-08
1.92984e-07
2.11099e-07
2.38766e-07
2.13213e-07
2.30331e-07
2.41863e-07
3.06176e-07
3.87829e-07
5.69998e-07
7.86648e-07
1.09616e-06
1.43481e-06
9.583e-07
2.22651e-06
1.24626e-06
1.58241e-07
-1.15917e-06
2.55659e-06
-3.06285e-08
9.8317e-09
2.69237e-09
2.19931e-08
-6.13578e-08
-3.40836e-09
-9.48322e-08
2.46801e-08
-1.76247e-09
1.8788e-08
-4.99288e-08
-6.34257e-08
2.03485e-07
-1.63321e-07
7.64874e-07
-2.98676e-08
3.59334e-07
-2.49838e-07
-9.07281e-08
-2.40381e-07
-2.40141e-07
-2.2858e-07
-2.07979e-07
-1.73445e-07
-1.22402e-07
-1.04896e-07
-1.17563e-07
-1.55953e-07
-1.95363e-07
-2.68566e-07
-3.46128e-07
-4.62597e-07
-6.4395e-07
-7.50481e-07
-9.83811e-07
-8.40675e-07
-8.54892e-07
-7.78217e-07
-8.8437e-07
-5.10316e-08
2.4063e-07
-5.01263e-10
7.74242e-08
1.02058e-07
5.9673e-08
5.37332e-08
1.79906e-07
-8.12326e-08
-9.02305e-08
1.06825e-07
6.09994e-08
1.61105e-07
4.27961e-07
8.41174e-08
6.39227e-07
-3.09067e-07
4.85151e-07
1.75008e-07
7.47124e-08
1.27072e-07
1.20045e-07
1.86902e-07
1.57049e-07
1.98788e-07
1.41529e-07
1.3683e-07
6.37869e-08
4.38263e-08
-1.6858e-08
-5.87484e-08
-1.66689e-07
-5.26123e-07
-9.26144e-07
-2.27412e-07
1.22848e-06
7.51741e-07
-7.8804e-06
2.64169e-06
3.47027e-08
-2.88616e-08
3.00347e-09
-3.39457e-08
5.99964e-09
-8.32084e-08
7.53812e-10
-6.54682e-08
1.61592e-08
-1.50014e-08
2.43229e-08
3.68478e-08
-1.35701e-07
4.5294e-07
-1.30697e-07
4.03002e-07
-1.3119e-08
-1.23448e-07
-2.03871e-07
-3.67572e-07
-2.86197e-07
-2.3322e-07
-2.20617e-07
-1.60691e-07
-1.11456e-07
-8.22106e-08
-8.15469e-08
-8.77063e-08
-9.13851e-08
-8.963e-08
-8.4739e-08
-5.77237e-08
-5.10514e-08
9.01817e-08
2.14749e-07
1.68867e-07
8.21983e-07
8.98334e-07
4.62251e-07
2.25925e-07
2.06289e-08
9.3291e-08
5.11815e-09
4.94128e-08
1.49986e-07
1.42355e-07
-8.20322e-08
7.00781e-08
4.56435e-08
-8.24621e-08
1.08148e-07
2.22086e-07
1.52852e-07
6.0751e-07
-1.11767e-07
4.36032e-07
-2.44983e-07
1.69613e-07
2.95259e-07
1.82298e-07
2.10049e-07
2.12957e-07
2.22934e-07
2.02335e-07
2.05871e-07
2.19965e-07
2.58691e-07
3.30498e-07
4.56763e-07
6.19526e-07
8.40781e-07
1.09235e-06
1.26669e-06
1.82777e-09
1.594e-06
3.17644e-07
-3.97055e-07
1.9115e-06
-8.60664e-08
-4.20871e-08
-1.20654e-08
1.54781e-08
-5.6363e-08
-2.70284e-09
-9.22887e-08
2.00819e-08
-1.48105e-08
1.62537e-08
-5.99575e-08
-7.22685e-08
9.93387e-08
7.17362e-08
4.82588e-07
3.87696e-07
-1.66722e-07
7.55977e-09
-4.42021e-07
-3.11272e-07
-2.3015e-07
-2.45395e-07
-2.02714e-07
-1.33969e-07
-9.71617e-08
-8.40999e-08
-9.90793e-08
-1.34929e-07
-1.64423e-07
-2.26507e-07
-2.73551e-07
-3.79877e-07
-4.82456e-07
-6.04906e-07
-7.42976e-07
-6.58916e-07
-6.90367e-07
-7.06309e-07
-7.88111e-07
-6.34964e-08
1.34028e-07
-1.10896e-08
7.68608e-08
8.9861e-08
4.9965e-08
4.56769e-08
1.58652e-07
-6.96864e-08
-6.6501e-08
1.17831e-07
7.89402e-08
1.65317e-07
3.98233e-07
1.54588e-08
5.42224e-07
-2.52231e-07
6.40303e-07
2.33099e-07