/*--------------------------------*- C++ -*----------------------------------*\
| =========                 |                                                 |
| \\      /  F ield         | OpenFOAM: The Open Source CFD Toolbox           |
|  \\    /   O peration     | Version:  2306                                  |
|   \\  /    A nd           | Website:  www.openfoam.com                      |
|    \\/     M anipulation  |                                                 |
\*---------------------------------------------------------------------------*/
FoamFile
{
    version     2.0;
    format      ascii;
    arch        "LSB;label=32;scalar=64";
    class       volVectorField;
    location    "850";
    object      momentError;
}
// * * * * * * * * * * * * * * * * * * * * * * * * * * * * * * * * * * * * * //

dimensions      [0 1 -2 0 0 0 0];

internalField   nonuniform List<vector> 
10720
(
(6.98703e-05 -0.000198035 -6.95743e-15)
(6.05856e-05 -0.000233441 2.41135e-14)
(4.70164e-05 -0.000271443 -4.72326e-14)
(6.52871e-06 -0.000251372 1.778e-14)
(-1.52096e-05 -0.000257329 1.10239e-13)
(-3.32774e-05 -0.000254261 -1.75099e-13)
(-5.69066e-05 -0.00028037 8.99985e-14)
(-8.63479e-05 -0.000293435 -1.11069e-13)
(-0.000119579 -0.000296445 -2.5463e-13)
(-0.000144016 -0.000269101 3.44118e-13)
(-0.000153308 -0.000227838 1.24149e-13)
(-0.000155194 -0.000190261 -2.28811e-13)
(-0.000150689 -0.000160176 -3.34526e-13)
(-0.000146567 -0.000135962 -5.72036e-14)
(-0.00014546 -0.000118016 -1.39768e-13)
(-0.000157365 -0.000109782 -3.10395e-13)
(-0.000150049 -9.15692e-05 -1.46757e-13)
(-0.000133277 -5.45179e-05 8.32708e-13)
(4.40288e-06 1.42202e-05 4.23308e-13)
(7.73909e-06 -0.000130925 -5.95091e-13)
(0.000912465 0.000251806 1.05315e-13)
(0.000185599 0.000651474 1.53275e-13)
(0.00145072 0.00050946 -6.74747e-14)
(0.0221702 0.00384391 -1.51581e-13)
(0.0228621 0.00590844 3.5713e-14)
(-0.00291367 0.00209309 -2.34824e-15)
(-0.010645 -0.00156013 4.15485e-14)
(-0.00835252 -0.00317524 -1.64635e-14)
(-0.0030673 -0.0023225 4.39581e-14)
(0.00224107 -0.000822457 1.54492e-13)
(0.00307095 -8.9474e-05 3.03062e-14)
(0.00140628 6.64562e-05 -1.28626e-13)
(-0.000405995 0.000118905 -7.91816e-15)
(-0.00080763 0.000134012 -2.15711e-13)
(-0.000758297 0.000242307 -2.82317e-13)
(-0.000645264 0.00134354 1.15494e-13)
(0.00114901 0.0115151 -1.13955e-14)
(0.0530377 0.0721116 -4.55477e-16)
(1.09113 -0.120127 -6.74697e-14)
(8.19831e-05 -0.000187914 -1.0766e-14)
(8.90075e-05 -0.000131128 2.65582e-14)
(9.56549e-05 -8.84094e-05 1.73222e-15)
(8.17243e-05 -3.84597e-05 3.61656e-14)
(7.89094e-05 -1.61025e-05 -3.28851e-14)
(2.08855e-05 6.09774e-05 -9.40224e-14)
(-1.06024e-06 8.27915e-05 -1.07345e-13)
(-8.5287e-05 0.000148333 2.99402e-14)
(-9.93826e-05 8.58226e-05 -7.52055e-14)
(-5.66487e-05 2.50655e-05 9.5795e-14)
(-1.66109e-05 -2.38617e-05 -6.00386e-14)
(3.17932e-05 -4.56058e-05 -1.46125e-13)
(4.92097e-05 -4.52256e-05 -1.64675e-13)
(5.75084e-05 -3.97512e-05 1.32091e-14)
(5.74943e-05 -3.21425e-05 1.33035e-13)
(5.3301e-05 -2.46923e-05 3.99406e-14)
(4.72596e-05 -1.85581e-05 -5.0307e-14)
(4.06308e-05 -1.35244e-05 -3.5475e-14)
(3.40193e-05 -1.00788e-05 -2.1818e-14)
(2.79727e-05 -7.12255e-06 3.904e-14)
(2.19155e-05 -5.58059e-06 1.72961e-14)
(1.66224e-05 -4.11462e-06 2.50514e-14)
(1.16132e-05 -4.60919e-06 -3.38378e-14)
(1.09874e-05 -5.60617e-06 -2.46551e-14)
(1.47574e-05 -5.87646e-06 1.81841e-14)
(1.97046e-05 -5.63901e-06 1.24074e-14)
(2.59331e-05 -4.36356e-06 6.93019e-15)
(3.18187e-05 -4.34143e-06 -1.46248e-15)
(3.15601e-05 -1.65448e-06 -2.84511e-16)
(2.25733e-05 -5.64768e-06 2.3061e-16)
(2.3056e-05 -1.88113e-06 -4.51363e-16)
(3.19479e-05 -1.40774e-06 -1.86753e-15)
(3.47028e-05 -5.72518e-07 -1.26035e-15)
(6.22968e-05 2.85777e-06 -3.83957e-15)
(7.1586e-05 4.81936e-06 -2.90601e-15)
(9.89108e-05 4.62962e-06 1.26138e-15)
(5.1257e-05 -2.10662e-05 -2.16473e-15)
(0.000349982 -0.00013068 -1.10575e-14)
(0.0021546 -0.00125352 -2.14939e-14)
(9.48957e-05 -0.000191148 -1.31424e-14)
(8.44719e-05 -0.000217472 5.88449e-15)
(6.77164e-05 -0.000244703 7.81389e-15)
(3.40044e-05 -0.000236047 -3.36621e-14)
(1.6724e-06 -0.000232944 2.10325e-14)
(-8.07314e-06 -0.000245456 8.03964e-14)
(-4.21829e-05 -0.000270072 1.03894e-13)
(-6.79339e-05 -0.000285393 1.00638e-13)
(-0.000100924 -0.000286112 -3.9878e-15)
(-0.000123479 -0.000260092 1.90681e-13)
(-0.000134571 -0.000221982 -2.0886e-13)
(-0.00013416 -0.000181281 -1.19528e-13)
(-0.000131823 -0.00014476 4.48618e-13)
(-0.000123239 -0.000117798 1.28259e-13)
(-0.000122621 -9.32106e-05 -1.19187e-13)
(-0.000136744 -6.77215e-05 -1.78005e-14)
(-8.02437e-05 -7.30784e-05 3.42058e-13)
(9.24599e-05 -0.000140105 -1.53339e-13)
(0.000244501 -0.000229574 -4.91943e-13)
(0.00499715 -0.000872732 1.88439e-13)
(-0.0109301 0.00214055 2.3544e-13)
(0.00392093 -0.00172294 4.67709e-14)
(0.0366298 0.00930191 -1.3086e-13)
(0.00885908 0.0109337 1.92532e-13)
(-0.0784163 -0.00614543 -4.19893e-14)
(-0.0640304 -0.0110657 -7.04627e-14)
(0.00347538 -0.00600297 -3.01912e-14)
(0.00684768 -0.00493926 5.59989e-15)
(-0.00437964 -0.00334281 -1.49987e-14)
(-0.00218442 -0.000816585 -1.58822e-14)
(-0.000138293 0.000531642 -2.03952e-14)
(-0.00012058 0.000560318 3.52778e-14)
(0.000365618 0.000290776 -1.88223e-13)
(-0.000324958 0.00024852 -2.24044e-13)
(-0.000847215 0.000239394 1.62302e-13)
(-0.00107232 0.000442019 -3.94953e-14)
(-0.00103088 0.0021797 3.30541e-14)
(-0.0311756 0.0141068 -1.41211e-14)
(-0.892111 0.108451 -3.85061e-14)
(0.000104688 -0.000165987 -4.63885e-15)
(0.000125738 -0.000127278 1.24099e-13)
(0.000131398 -8.55993e-05 -7.98398e-15)
(0.000130632 -4.39772e-05 -1.29076e-13)
(0.000113083 -3.56798e-06 -2.56851e-14)
(7.81546e-05 3.92808e-05 1.27347e-13)
(4.62819e-05 6.44578e-05 1.11416e-13)
(-7.17548e-06 8.06966e-05 5.95854e-14)
(-3.26641e-05 3.77047e-05 -8.25882e-14)
(-2.27827e-05 -3.77845e-06 -1.06483e-14)
(-7.87012e-07 -3.5367e-05 1.01897e-13)
(2.66066e-05 -4.66514e-05 -5.20992e-15)
(4.23792e-05 -4.63313e-05 1.22903e-14)
(5.07214e-05 -4.08045e-05 -2.47923e-14)
(5.24804e-05 -3.31755e-05 -3.25881e-14)
(4.9883e-05 -2.55358e-05 1.41526e-14)
(4.52302e-05 -1.89041e-05 1.7087e-14)
(3.94263e-05 -1.37846e-05 -5.80437e-14)
(3.35011e-05 -9.95478e-06 2.69297e-14)
(2.76009e-05 -7.32122e-06 1.78451e-14)
(2.20748e-05 -5.20264e-06 1.46789e-14)
(1.68721e-05 -4.04904e-06 3.19093e-14)
(1.28697e-05 -3.33637e-06 4.1782e-14)
(1.23067e-05 -4.79116e-06 1.76494e-14)
(1.57352e-05 -5.08752e-06 -1.51654e-14)
(2.03418e-05 -5.22485e-06 8.1609e-16)
(2.60764e-05 -4.69484e-06 -5.68208e-15)
(3.23966e-05 -3.85584e-06 -2.08585e-15)
(3.16958e-05 -2.12296e-06 3.93336e-16)
(2.65272e-05 7.00529e-07 -3.86159e-17)
(4.05331e-05 -4.09958e-06 2.82899e-16)
(4.64117e-05 -2.57461e-07 6.14061e-16)
(5.28577e-05 -1.54859e-07 1.84952e-15)
(5.3799e-05 3.64142e-06 2.35465e-15)
(8.13639e-05 1.20181e-05 7.65764e-16)
(5.77346e-05 7.61271e-06 -1.55107e-15)
(0.000166507 1.00712e-05 -6.6511e-17)
(0.000320011 7.45676e-06 3.77994e-15)
(0.00158042 0.000220827 9.20409e-15)
(7.39352e-05 -0.000173399 -5.07373e-15)
(6.67537e-05 -0.000187765 -8.20193e-16)
(4.73748e-05 -0.000200999 -5.83695e-15)
(1.48236e-05 -0.000201305 1.55514e-14)
(-5.44366e-06 -0.0002009 3.91319e-15)
(-2.01263e-05 -0.00022144 -3.37372e-14)
(-4.13846e-05 -0.000241214 -1.07609e-13)
(-6.64718e-05 -0.00025798 -9.54175e-14)
(-9.42411e-05 -0.000250688 -1.11322e-13)
(-0.000116063 -0.000227197 1.10097e-14)
(-0.000127494 -0.000193414 2.64052e-13)
(-0.000130598 -0.000160403 7.0621e-14)
(-0.000129533 -0.000131246 -9.9311e-14)
(-0.000128679 -0.000105897 -2.41054e-13)
(-0.000127429 -8.70622e-05 1.10245e-13)
(-0.000112977 -6.67191e-05 1.45922e-13)
(-0.000158592 3.20465e-05 -9.42423e-14)
(-0.000342609 0.000191391 -1.89374e-13)
(-0.000664419 0.00111774 3.17157e-13)
(-0.00400345 0.000717861 -9.48706e-14)
(0.00694792 -0.00988492 -1.19559e-13)
(0.000181111 -0.00234945 1.78543e-13)
(-0.0294594 -0.0138074 7.38944e-14)
(-0.0508375 -0.0108198 -3.36038e-15)
(-0.00433473 0.00206229 -3.30744e-14)
(0.040428 0.00911353 3.54557e-15)
(0.0382714 0.00222755 -3.05915e-14)
(0.0184917 -0.00186705 2.10649e-14)
(0.0370193 -0.000787467 -3.31639e-14)
(0.0166379 0.00172322 -7.21101e-14)
(-0.00351634 0.00181519 6.96095e-14)
(-0.00214989 0.00126218 3.08499e-14)
(-0.000748817 0.000876219 -1.21845e-13)
(-0.00036066 0.000522085 7.82247e-14)
(-0.000358847 0.000227872 1.65116e-14)
(-0.000446694 0.000180334 -3.61651e-14)
(-0.00191859 0.00105078 -9.98075e-14)
(-0.0154132 0.00184948 2.77773e-14)
(-0.112415 0.00977704 9.91239e-15)
(9.68925e-05 -0.000146495 2.9218e-14)
(0.000108603 -0.000119506 -2.76869e-14)
(0.000118032 -8.50247e-05 -9.83432e-14)
(0.000115157 -5.37278e-05 4.48519e-14)
(0.000101858 -1.9577e-05 2.05984e-14)
(8.1804e-05 1.05376e-05 -6.4571e-14)
(5.63855e-05 3.05956e-05 1.35491e-14)
(2.454e-05 3.54678e-05 -1.17648e-13)
(4.94946e-06 9.97484e-06 -7.91933e-14)
(3.77994e-06 -1.4387e-05 -8.81237e-14)
(1.59581e-05 -3.26748e-05 9.75413e-14)
(3.15288e-05 -4.04241e-05 1.4533e-14)
(4.28903e-05 -4.0961e-05 -1.36542e-14)
(4.91387e-05 -3.71394e-05 -8.08998e-14)
(5.04911e-05 -3.12086e-05 -5.80885e-14)
(4.82651e-05 -2.46366e-05 3.78568e-14)
(4.41407e-05 -1.87329e-05 -2.13741e-14)
(3.89167e-05 -1.40011e-05 -4.39724e-14)
(3.33097e-05 -1.05402e-05 -4.00354e-15)
(2.76503e-05 -7.9364e-06 -4.02395e-14)
(2.22005e-05 -6.39105e-06 -4.30004e-14)
(1.70761e-05 -5.68074e-06 -8.43256e-14)
(1.30926e-05 -6.61214e-06 -6.39436e-14)
(1.23829e-05 -8.73281e-06 -1.79987e-14)
(1.5384e-05 -9.30635e-06 3.95039e-15)
(1.97814e-05 -8.68876e-06 -1.1475e-15)
(2.51016e-05 -7.32079e-06 -1.05286e-14)
(3.11834e-05 -5.72648e-06 4.47391e-15)
(3.0824e-05 -2.13966e-06 5.81765e-16)
(2.55087e-05 -5.09604e-06 -1.81331e-16)
(3.14551e-05 -2.535e-06 -9.43696e-18)
(3.8886e-05 -5.6647e-07 -5.3414e-16)
(4.31191e-05 -2.83149e-06 -9.83096e-16)
(5.38297e-05 -7.38687e-06 -1.46472e-15)
(4.1907e-05 9.27223e-07 1.86775e-15)
(-2.17217e-05 6.48294e-05 3.81483e-17)
(9.1824e-05 4.70164e-05 1.4476e-14)
(0.000362704 4.46618e-06 8.74936e-15)
(0.00130504 0.000222369 -1.03383e-13)
(5.69516e-05 -0.000142951 7.92675e-15)
(4.46302e-05 -0.000169099 -2.34387e-15)
(3.09237e-05 -0.000175464 6.66036e-17)
(2.43746e-06 -0.000179577 -7.13005e-15)
(-9.98537e-06 -0.000185482 1.9958e-15)
(-2.70168e-05 -0.00020557 3.58143e-14)
(-4.56942e-05 -0.000228118 5.84657e-14)
(-6.93672e-05 -0.000233972 5.46315e-14)
(-9.33621e-05 -0.000225852 -1.33388e-13)
(-0.000111927 -0.000204738 -1.11642e-13)
(-0.000121361 -0.000174871 1.41518e-13)
(-0.000125419 -0.000145936 2.56582e-13)
(-0.000124886 -0.000119946 1.35702e-13)
(-0.000123644 -9.72095e-05 -4.72148e-13)
(-0.000118853 -8.03905e-05 -1.62162e-13)
(-0.000124858 -5.51981e-05 3.85911e-13)
(-0.000125316 -4.96664e-05 8.3927e-14)
(-9.38247e-05 -0.000107709 -1.2427e-13)
(-0.00016459 -0.000165179 -2.28419e-13)
(-0.000351483 -0.00169308 1.97905e-13)
(0.00242321 0.0044618 4.35909e-14)
(0.000386117 0.000117871 -2.22435e-13)
(0.00999968 0.00725624 1.6557e-13)
(0.0127328 0.00762502 -1.14159e-13)
(0.00386278 0.00367984 -3.71873e-14)
(-0.00366803 -0.00561003 3.56367e-14)
(-0.00381469 -0.00190921 -4.55804e-14)
(0.128215 -0.0123102 1.00782e-14)
(0.00583927 -0.0011078 1.36505e-14)
(-0.0601275 0.00893952 2.11183e-14)
(-0.0174234 -0.000651049 -9.04126e-15)
(-0.0234001 0.00189352 2.55558e-14)
(-0.0114805 0.000605211 2.07248e-13)
(-0.00290339 0.000429805 5.34678e-14)
(0.000315192 8.03713e-06 -7.58544e-14)
(0.000561457 -0.000114087 -1.16598e-13)
(-0.000115499 0.000281519 1.66346e-14)
(-0.00566815 -0.000393098 -2.82993e-14)
(-0.0330281 0.00919502 4.56567e-14)
(7.71866e-05 -0.000128033 1.88165e-14)
(8.98253e-05 -0.000111545 -3.68744e-14)
(9.95839e-05 -8.69493e-05 -4.04089e-15)
(9.71e-05 -6.14341e-05 -3.37243e-14)
(9.04257e-05 -3.2788e-05 -2.08222e-14)
(7.64048e-05 -8.6899e-06 7.34768e-14)
(5.83857e-05 1.04156e-05 -1.8417e-13)
(3.53574e-05 1.28099e-05 1.69127e-13)
(2.41725e-05 -3.56315e-06 2.01465e-15)
(2.1344e-05 -1.82649e-05 -1.20416e-13)
(2.77587e-05 -3.04852e-05 -7.02475e-14)
(3.63723e-05 -3.66081e-05 -1.98383e-14)
(4.38087e-05 -3.78157e-05 5.95862e-14)
(4.79128e-05 -3.52899e-05 1.29282e-13)
(4.85504e-05 -3.04269e-05 2.11142e-14)
(4.63985e-05 -2.47186e-05 -4.73379e-14)
(4.27069e-05 -1.92936e-05 2.21984e-14)
(3.80339e-05 -1.47146e-05 5.00097e-14)
(3.28368e-05 -1.13377e-05 -3.67786e-15)
(2.74983e-05 -8.64444e-06 -7.78289e-15)
(2.22854e-05 -7.04553e-06 -2.14375e-14)
(1.74488e-05 -6.18748e-06 5.28071e-14)
(1.37481e-05 -6.91418e-06 3.09355e-14)
(1.30243e-05 -8.75178e-06 -1.07667e-14)
(1.55917e-05 -9.41937e-06 -1.69122e-14)
(1.97274e-05 -8.89963e-06 -6.96416e-15)
(2.49204e-05 -7.65488e-06 1.26256e-14)
(3.07627e-05 -6.23398e-06 -8.91386e-16)
(3.04916e-05 -2.76325e-06 -5.13497e-16)
(2.59737e-05 -3.14058e-06 2.01665e-16)
(3.0695e-05 -7.7192e-06 -3.97986e-17)
(3.90362e-05 -4.48895e-06 -3.66982e-17)
(5.31691e-05 2.68491e-05 2.74259e-16)
(0.000159211 0.00035122 5.11864e-16)
(0.000691904 0.00200847 -3.2328e-15)
(0.000942803 0.00290735 7.58395e-15)
(-0.000248147 -0.00164975 -1.28923e-14)
(0.00019893 -0.000277823 -2.99113e-14)
(0.0011747 0.000262954 -1.08681e-16)
(4.70959e-05 -0.000124763 -4.04107e-15)
(3.20791e-05 -0.000142823 4.77981e-15)
(1.58186e-05 -0.000155552 5.64944e-17)
(-4.13629e-06 -0.000162051 -4.1763e-15)
(-1.64536e-05 -0.000172434 -2.88316e-14)
(-3.00987e-05 -0.000192321 3.46357e-14)
(-5.02028e-05 -0.000207464 1.2634e-14)
(-7.20965e-05 -0.000208656 -7.01524e-14)
(-9.28061e-05 -0.000199072 -5.8231e-14)
(-0.000109151 -0.000179295 -1.21381e-13)
(-0.000117884 -0.000153126 1.74614e-14)
(-0.000121758 -0.000128333 -1.32355e-13)
(-0.000121585 -0.00010599 8.04609e-15)
(-0.000119487 -8.70107e-05 3.54352e-13)
(-0.00011779 -6.96549e-05 -2.34207e-13)
(-0.000116384 -5.22099e-05 -1.67665e-13)
(-0.000117534 -3.2791e-05 1.0158e-13)
(-0.000118212 -1.82443e-05 -1.31966e-13)
(-0.000166451 -3.92873e-05 8.4892e-14)
(-0.000176381 1.26556e-05 -1.4397e-13)
(-0.000253196 3.90911e-05 -1.61816e-13)
(-0.000646168 0.000160691 1.83267e-13)
(0.00272546 0.000936123 -4.05343e-14)
(0.00409559 0.0016877 8.96881e-14)
(0.00186926 0.000450291 5.67696e-14)
(-0.00709983 -0.00159344 6.31022e-15)
(0.00298398 -0.0060377 1.08822e-13)
(-0.0796446 0.00777246 -2.11386e-14)
(-0.00311853 -0.00264432 2.24999e-14)
(0.0124666 0.00144041 -5.58075e-14)
(0.0137309 0.0044396 -1.55454e-13)
(-0.0112442 -0.00178735 1.29788e-15)
(-0.0078945 6.54638e-05 1.40179e-13)
(-0.0052585 -2.74507e-05 -3.31496e-14)
(0.00079309 -0.00029861 -1.04849e-13)
(0.00184546 -0.000445155 1.18029e-13)
(0.00112997 -9.99405e-05 -3.96442e-14)
(-0.00296626 -0.000814759 -1.66218e-14)
(-0.019944 0.00960542 -5.30715e-16)
(5.62241e-05 -0.000113777 2.02826e-14)
(7.04764e-05 -0.000103696 1.43635e-14)
(7.68319e-05 -8.67141e-05 -3.19923e-14)
(7.98902e-05 -6.43192e-05 7.88749e-14)
(7.63501e-05 -4.10077e-05 1.86885e-13)
(6.92635e-05 -2.05934e-05 -6.87533e-14)
(5.75108e-05 -4.46088e-06 -7.24484e-14)
(4.22256e-05 -2.80616e-06 1.5044e-13)
(3.45117e-05 -1.20056e-05 1.26936e-13)
(3.23882e-05 -2.06158e-05 3.56481e-14)
(3.59331e-05 -2.83131e-05 -5.19379e-14)
(4.10939e-05 -3.27439e-05 5.9181e-14)
(4.55827e-05 -3.39434e-05 4.5428e-14)
(4.78954e-05 -3.21414e-05 -3.9819e-15)
(4.7556e-05 -2.82815e-05 -9.37211e-14)
(4.516e-05 -2.33962e-05 3.96395e-15)
(4.16428e-05 -1.87191e-05 3.73007e-15)
(3.72775e-05 -1.46088e-05 2.0686e-16)
(3.24303e-05 -1.14173e-05 1.51383e-14)
(2.734e-05 -8.85623e-06 -5.43059e-15)
(2.23556e-05 -7.45164e-06 1.23011e-14)
(1.77355e-05 -6.85168e-06 -2.67244e-14)
(1.41866e-05 -8.0744e-06 -1.53651e-14)
(1.3304e-05 -1.00965e-05 1.55018e-14)
(1.54482e-05 -1.1194e-05 2.09532e-14)
(1.93207e-05 -1.0641e-05 1.25528e-15)
(2.44521e-05 -9.15809e-06 -1.23697e-15)
(3.01753e-05 -6.93493e-06 -3.26002e-15)
(3.02106e-05 -2.90042e-06 6.54298e-16)
(2.60713e-05 -4.37539e-06 -1.04595e-16)
(3.07705e-05 -4.24373e-06 -5.30621e-16)
(3.95319e-05 1.06342e-06 -2.81108e-17)
(4.56922e-05 -4.91134e-05 7.8122e-17)
(4.81939e-05 -0.000544963 -6.93154e-17)
(-9.19164e-05 -0.00293479 -9.31036e-16)
(-0.000225034 -0.00387243 -6.95934e-16)
(1.64422e-05 0.00228303 1.03215e-14)
(0.00025013 0.000260082 -1.08856e-14)
(0.000973681 8.3316e-05 5.49108e-15)
(3.19988e-05 -0.00011138 1.93828e-15)
(2.15786e-05 -0.000122666 5.06791e-16)
(7.83832e-06 -0.000137249 3.1625e-15)
(-8.26466e-06 -0.000151546 -2.45879e-15)
(-1.93968e-05 -0.000162123 -1.08436e-15)
(-3.36226e-05 -0.000178552 1.63381e-14)
(-5.35274e-05 -0.000189111 7.60515e-15)
(-7.37823e-05 -0.000186497 4.04773e-14)
(-9.25491e-05 -0.000176831 6.79654e-14)
(-0.000106727 -0.00015825 -3.20433e-14)
(-0.000114605 -0.000135679 -7.79475e-15)
(-0.000118139 -0.000114575 7.50088e-14)
(-0.000118373 -9.54706e-05 -1.45507e-13)
(-0.000116038 -7.86407e-05 -2.89385e-13)
(-0.000113591 -6.29045e-05 1.75229e-13)
(-0.000109541 -4.89251e-05 2.68355e-13)
(-0.000108062 -3.60389e-05 -3.55849e-13)
(-0.000110774 -3.01044e-05 6.0668e-14)
(-0.000133316 -4.48806e-05 1.11899e-13)
(-0.000179336 -8.38536e-06 -1.12965e-13)
(-0.000215275 9.39964e-05 8.56212e-14)
(-0.000419394 6.10505e-05 -8.73354e-14)
(-0.000713066 0.000698992 -1.69253e-13)
(6.61607e-05 0.00219927 -5.03175e-14)
(0.00120325 0.00190658 -1.16204e-13)
(0.000448644 -0.00104978 5.63253e-14)
(-0.0117654 -0.00212116 -1.62121e-14)
(-0.011827 -0.000825796 -1.09036e-14)
(0.00377266 0.00124861 2.13875e-14)
(0.0371034 -0.00169746 4.25758e-14)
(-0.00887779 0.00319948 3.28554e-14)
(0.0104608 -0.000920525 -4.52716e-14)
(-0.000558412 -0.000539603 -1.16434e-13)
(-0.00201187 -0.000535953 -1.48664e-13)
(0.000254497 -0.00053191 3.37791e-14)
(0.0036388 -0.0010999 7.32756e-14)
(0.00277988 -0.000121499 8.46303e-14)
(-0.00222888 -0.000718553 3.84889e-14)
(-0.0170812 0.0102218 2.85613e-14)
(4.16139e-05 -0.000103436 8.59492e-15)
(5.14931e-05 -9.77882e-05 -2.0693e-14)
(5.87002e-05 -8.39506e-05 1.04909e-14)
(6.25116e-05 -6.49196e-05 -5.83379e-15)
(6.38367e-05 -4.57418e-05 4.6817e-15)
(6.25947e-05 -2.64377e-05 -7.8182e-14)
(5.55954e-05 -1.42982e-05 -2.9426e-14)
(4.59152e-05 -1.26233e-05 -3.50567e-14)
(4.08443e-05 -1.69243e-05 2.74177e-14)
(3.94154e-05 -2.18406e-05 1.35735e-13)
(4.16294e-05 -2.65154e-05 -3.0359e-14)
(4.49326e-05 -2.96196e-05 -5.88494e-14)
(4.74779e-05 -3.05225e-05 2.50168e-15)
(4.83186e-05 -2.90716e-05 -5.12986e-14)
(4.70586e-05 -2.5889e-05 1.70031e-14)
(4.42871e-05 -2.1705e-05 2.54112e-14)
(4.07843e-05 -1.76409e-05 3.93183e-14)
(3.66521e-05 -1.40091e-05 1.50491e-14)
(3.20597e-05 -1.1029e-05 -1.77031e-14)
(2.72078e-05 -8.6811e-06 2.27257e-14)
(2.24986e-05 -7.29583e-06 2.51828e-14)
(1.81279e-05 -6.9233e-06 1.82594e-14)
(1.48378e-05 -8.10511e-06 3.81567e-15)
(1.38157e-05 -1.00997e-05 -1.44099e-14)
(1.55776e-05 -1.12641e-05 1.18018e-14)
(1.90816e-05 -1.10343e-05 3.28036e-15)
(2.40674e-05 -9.55278e-06 -1.13711e-14)
(2.96014e-05 -7.39895e-06 1.22344e-15)
(2.99575e-05 -3.26311e-06 -1.18457e-16)
(2.63137e-05 -4.28738e-06 2.0561e-16)
(3.04959e-05 -5.87522e-06 6.67333e-16)
(3.78659e-05 -2.60432e-06 -1.60573e-16)
(3.73764e-05 1.2688e-05 -2.51369e-16)
(-1.33272e-06 0.000150123 5.63743e-16)
(-0.000239458 0.000918775 1.39658e-15)
(-0.000396526 0.000971739 -1.19015e-14)
(0.000469661 -0.000821445 3.46553e-15)
(0.000366443 -2.39132e-05 4.42003e-14)
(0.00126132 -0.000303315 3.10481e-14)
(1.69074e-05 -9.84759e-05 3.09102e-15)
(1.07548e-05 -0.000111384 5.82455e-16)
(2.11097e-06 -0.000125628 -1.12641e-15)
(-1.17358e-05 -0.000141638 4.16962e-15)
(-2.26458e-05 -0.000152703 -8.69018e-15)
(-3.68935e-05 -0.000164624 -1.09432e-15)
(-5.66821e-05 -0.000169159 2.35996e-14)
(-7.51256e-05 -0.000165252 -1.11468e-14)
(-9.22709e-05 -0.000155012 -3.96142e-14)
(-0.000105303 -0.000138305 2.65385e-14)
(-0.000112487 -0.000118583 -6.07786e-14)
(-0.00011638 -0.000100337 -1.50861e-13)
(-0.000116584 -8.40063e-05 1.06604e-13)
(-0.000114045 -6.89393e-05 3.77167e-13)
(-0.000110699 -5.49842e-05 -1.38922e-14)
(-0.00010745 -4.09599e-05 -4.01369e-13)
(-0.000105962 -2.82821e-05 3.32534e-13)
(-0.000110124 -1.8341e-05 2.3337e-13)
(-0.000126908 -1.17096e-05 1.24569e-13)
(-0.000156047 2.18328e-05 5.87364e-14)
(-0.00017831 6.42877e-05 -2.8842e-14)
(-0.000325549 7.49369e-05 1.61936e-13)
(-0.000433893 0.000529134 1.11968e-13)
(0.000539424 0.00152005 -1.01881e-14)
(0.00227513 0.00125042 2.14257e-13)
(0.0028345 -0.000869017 -6.5705e-14)
(0.00158734 -0.00294918 -7.65299e-15)
(-0.00214967 -0.00223021 5.6775e-15)
(-0.00291516 0.000303994 -2.01427e-14)
(-0.00189572 0.00201407 -2.08175e-14)
(0.00197282 0.00150574 -1.5256e-14)
(0.00365457 0.000102699 4.77744e-14)
(0.00155874 -0.000344152 -2.2775e-14)
(-0.000906632 -0.000449505 -1.27983e-13)
(-0.000264709 -0.000627817 -2.07552e-14)
(0.0233431 -0.00768979 -1.01836e-13)
(-0.00467249 0.0026732 -5.77994e-14)
(-0.00177857 -0.00111287 6.50734e-15)
(-0.0139722 0.00936318 -2.58421e-14)
(2.77703e-05 -9.43419e-05 -9.66505e-15)
(3.64381e-05 -9.08377e-05 1.21941e-14)
(4.51637e-05 -7.97908e-05 -2.61343e-14)
(5.12361e-05 -6.19133e-05 -3.94504e-15)
(5.4933e-05 -4.29521e-05 7.38143e-15)
(5.57733e-05 -2.8975e-05 1.10946e-14)
(5.18457e-05 -1.9382e-05 8.0639e-14)
(4.71223e-05 -1.82096e-05 -1.01462e-13)
(4.41554e-05 -1.99359e-05 -3.28009e-14)
(4.37935e-05 -2.24026e-05 -3.11479e-14)
(4.55495e-05 -2.50725e-05 1.17307e-13)
(4.78413e-05 -2.70723e-05 -4.64459e-14)
(4.92497e-05 -2.74529e-05 -4.56716e-15)
(4.8943e-05 -2.60846e-05 1.85391e-14)
(4.69353e-05 -2.31979e-05 1.77852e-14)
(4.37665e-05 -1.96499e-05 1.20879e-14)
(4.01967e-05 -1.62149e-05 -7.68257e-14)
(3.61522e-05 -1.31579e-05 -2.81418e-14)
(3.17371e-05 -1.05068e-05 3.58171e-14)
(2.70908e-05 -8.48586e-06 1.42873e-15)
(2.26299e-05 -7.20351e-06 3.63862e-14)
(1.85264e-05 -7.09672e-06 -1.03903e-14)
(1.54117e-05 -8.2866e-06 1.50663e-15)
(1.42915e-05 -1.03562e-05 2.42355e-14)
(1.5634e-05 -1.17374e-05 -2.03631e-14)
(1.88367e-05 -1.1882e-05 -6.9899e-15)
(2.35613e-05 -1.06704e-05 6.58227e-15)
(2.8972e-05 -8.27322e-06 2.19799e-15)
(2.9572e-05 -4.05733e-06 -1.1579e-18)
(2.64106e-05 -4.64093e-06 -2.57145e-16)
(3.0175e-05 -5.4183e-06 6.37744e-16)
(3.77927e-05 -1.54105e-06 7.498e-17)
(4.38694e-05 -2.38428e-06 -1.08084e-15)
(5.54942e-05 -8.40163e-06 5.42562e-17)
(7.86361e-05 -3.57376e-05 -3.16331e-15)
(0.000137721 9.43813e-05 7.24364e-15)
(0.000159292 0.000139295 -1.54395e-15)
(0.000222301 -2.04246e-06 -2.47775e-15)
(0.000704723 0.000384207 -4.22941e-14)
(1.12065e-05 -8.97904e-05 1.40114e-15)
(6.78732e-06 -0.000104776 1.51055e-15)
(-1.32711e-06 -0.000119481 -9.49552e-16)
(-1.45892e-05 -0.000133366 -1.91883e-15)
(-2.49691e-05 -0.000142672 -3.80278e-15)
(-4.01354e-05 -0.00015263 1.65054e-14)
(-5.82273e-05 -0.000154019 1.38751e-14)
(-7.5482e-05 -0.000147602 -5.19115e-14)
(-9.07647e-05 -0.00013695 2.17311e-14)
(-0.000102395 -0.00012191 1.11285e-13)
(-0.000109626 -0.000104338 4.63177e-14)
(-0.000113608 -8.91198e-05 2.13134e-14)
(-0.000114191 -7.49423e-05 -1.87882e-13)
(-0.000111648 -6.14598e-05 -4.29856e-13)
(-0.00010769 -4.85762e-05 -3.04037e-13)
(-0.000103652 -3.59937e-05 1.20067e-13)
(-9.9928e-05 -2.59536e-05 -7.38523e-14)
(-0.000102227 -1.56826e-05 -3.77116e-13)
(-0.000115266 -2.23544e-06 -1.94585e-13)
(-0.000134752 3.3087e-05 1.60889e-13)
(-0.000148122 6.92702e-05 1.6097e-13)
(-0.000237481 8.91757e-05 -9.33454e-14)
(-0.000267396 0.00042705 -3.83134e-14)
(0.000383632 0.00108055 2.39809e-15)
(0.00155858 0.000817405 -6.0965e-14)
(0.00178946 -0.000851294 6.32919e-14)
(0.000287798 -0.00237046 7.2196e-15)
(-0.00212408 -0.00196329 4.3206e-15)
(-0.00291867 1.09756e-05 -4.41477e-15)
(-0.00129933 0.00116363 5.21823e-14)
(-0.000140101 0.000954819 3.49636e-14)
(0.00111141 0.000265136 -3.44379e-15)
(0.00100737 -0.000183238 1.13108e-13)
(-0.000181233 -0.000157513 7.80678e-14)
(-0.00199508 0.00191834 -4.04551e-14)
(-0.0162096 0.00223922 6.94177e-14)
(-0.00361556 -0.00125666 5.85392e-14)
(-0.00132915 -0.00150655 -3.50436e-14)
(-0.00921798 0.00752562 -2.77286e-14)
(1.96144e-05 -8.47874e-05 7.39129e-15)
(2.92904e-05 -8.31385e-05 -1.20441e-14)
(3.87808e-05 -7.09562e-05 3.26935e-15)
(4.66981e-05 -5.52505e-05 6.10929e-14)
(4.94232e-05 -4.32007e-05 3.14461e-15)
(5.00855e-05 -2.97505e-05 1.01651e-13)
(4.80131e-05 -2.24555e-05 1.36656e-13)
(4.6194e-05 -2.18069e-05 -5.29997e-14)
(4.55644e-05 -2.15384e-05 -7.253e-14)
(4.61619e-05 -2.24739e-05 -5.54113e-14)
(4.80673e-05 -2.39253e-05 -1.02164e-13)
(4.99597e-05 -2.49545e-05 -5.52873e-15)
(5.06548e-05 -2.47905e-05 -4.30501e-14)
(4.96314e-05 -2.32158e-05 5.78123e-14)
(4.70142e-05 -2.05408e-05 1.93966e-14)
(4.35294e-05 -1.74641e-05 -3.07512e-14)
(3.98613e-05 -1.46461e-05 -3.26307e-15)
(3.58366e-05 -1.20778e-05 -2.54406e-14)
(3.15081e-05 -9.80862e-06 2.79092e-15)
(2.70383e-05 -8.01047e-06 -1.77681e-14)
(2.27844e-05 -6.95863e-06 -3.338e-14)
(1.89749e-05 -6.94513e-06 1.47958e-14)
(1.60291e-05 -8.16442e-06 -2.76257e-14)
(1.48534e-05 -1.01361e-05 -1.00665e-14)
(1.58158e-05 -1.17266e-05 6.28577e-15)
(1.86852e-05 -1.21481e-05 3.97123e-15)
(2.30815e-05 -1.13426e-05 1.56324e-15)
(2.82917e-05 -8.92171e-06 -1.03509e-15)
(2.91331e-05 -4.85951e-06 -4.35145e-16)
(2.64873e-05 -4.7558e-06 -7.72645e-17)
(2.99544e-05 -5.5787e-06 -1.03053e-15)
(3.74768e-05 -2.34842e-06 5.53564e-16)
(4.4339e-05 -2.33408e-06 3.06439e-15)
(5.58388e-05 -2.71925e-06 5.12502e-17)
(7.15061e-05 1.26906e-05 2.49812e-15)
(7.65973e-05 4.70035e-05 -3.42307e-15)
(0.000110307 2.64961e-05 -6.4676e-15)
(0.000223625 5.51637e-05 3.78709e-15)
(0.00030841 0.000601205 -2.25905e-14)
(1.1217e-05 -8.15366e-05 2.41732e-15)
(5.42352e-06 -9.43903e-05 4.02436e-15)
(-1.30959e-06 -0.000114026 -1.76074e-16)
(-1.48089e-05 -0.000124333 2.08084e-19)
(-2.67302e-05 -0.000126858 -2.54027e-15)
(-4.11962e-05 -0.000138665 -6.73417e-15)
(-5.836e-05 -0.000138172 -4.93855e-15)
(-7.44919e-05 -0.000133391 -5.23681e-14)
(-8.83342e-05 -0.000123579 -1.00714e-15)
(-9.8692e-05 -0.000108624 1.92803e-14)
(-0.000105588 -9.25978e-05 -2.32914e-14)
(-0.000111042 -7.87836e-05 1.41246e-13)
(-0.000111782 -6.65107e-05 1.49071e-13)
(-0.00010944 -5.42279e-05 2.6949e-14)
(-0.000105111 -4.21229e-05 2.76872e-13)
(-0.000100388 -3.04559e-05 -5.76107e-14)
(-9.6621e-05 -1.96365e-05 -7.29821e-16)
(-9.63894e-05 -8.73877e-06 2.14469e-13)
(-0.000104742 6.14159e-06 9.99262e-14)
(-0.000115809 3.65804e-05 -2.94234e-14)
(-0.000124085 7.42778e-05 -1.21911e-13)
(-0.000165477 0.00011319 -1.15865e-14)
(-0.000149605 0.000348408 -9.366e-14)
(0.000326721 0.000766133 -8.1038e-14)
(0.0011579 0.000513126 4.88754e-14)
(0.00129046 -0.000773524 -3.10923e-14)
(5.30391e-05 -0.00194709 -5.64889e-14)
(-0.00157435 -0.00163158 6.45118e-15)
(-0.00198628 -8.18733e-05 -3.11529e-15)
(-0.00109878 0.000922279 -3.83366e-15)
(-6.54491e-05 0.000735357 8.20605e-14)
(0.000548251 0.000190472 -2.93324e-14)
(0.000713569 -0.000185715 -3.90336e-14)
(0.000353976 -0.00028711 2.27056e-13)
(-0.00130384 9.4748e-05 3.7075e-14)
(-0.010477 0.00533156 -8.23529e-14)
(0.00613384 -0.003131 -1.57869e-14)
(0.013962 -0.0132899 2.60747e-14)
(-0.0003825 0.00897041 -4.96666e-15)
(1.88168e-05 -7.71522e-05 -1.31444e-14)
(2.69822e-05 -7.34524e-05 -3.10177e-14)
(3.67784e-05 -6.40147e-05 5.0689e-14)
(3.9147e-05 -5.31278e-05 9.71645e-14)
(4.43577e-05 -4.00595e-05 6.4319e-14)
(4.59604e-05 -3.04138e-05 -1.65789e-13)
(4.54821e-05 -2.60788e-05 -1.14058e-13)
(4.45028e-05 -2.36686e-05 -3.87775e-14)
(4.53422e-05 -2.19714e-05 7.08573e-14)
(4.7302e-05 -2.20919e-05 7.3203e-14)
(4.9454e-05 -2.28126e-05 2.72944e-14)
(5.13151e-05 -2.3174e-05 2.50398e-14)
(5.16279e-05 -2.24486e-05 -2.67405e-14)
(5.01861e-05 -2.05259e-05 -8.73374e-14)
(4.71983e-05 -1.79187e-05 1.34148e-14)
(4.35348e-05 -1.5253e-05 2.70941e-14)
(3.97493e-05 -1.29376e-05 1.84378e-14)
(3.57022e-05 -1.07978e-05 5.1086e-14)
(3.14061e-05 -8.91745e-06 -2.84807e-14)
(2.70728e-05 -7.32896e-06 -2.12613e-14)
(2.30253e-05 -6.52054e-06 -1.53181e-14)
(1.94481e-05 -6.61051e-06 -3.15588e-15)
(1.66804e-05 -7.82833e-06 2.46383e-14)
(1.54124e-05 -9.72946e-06 1.6455e-14)
(1.60914e-05 -1.14639e-05 1.90876e-14)
(1.85775e-05 -1.22561e-05 6.47008e-15)
(2.2678e-05 -1.18249e-05 2.82508e-17)
(2.7565e-05 -9.69372e-06 2.21315e-15)
(2.86596e-05 -5.5266e-06 -3.08462e-16)
(2.64643e-05 -5.04312e-06 3.02125e-16)
(2.97318e-05 -5.49638e-06 -3.79827e-16)
(3.70809e-05 -2.29836e-06 3.18565e-17)
(4.44792e-05 -1.59519e-06 -1.76009e-15)
(5.64324e-05 -2.83281e-06 4.24009e-16)
(7.4113e-05 1.55737e-07 4.63062e-15)
(8.20417e-05 2.0201e-05 -1.09985e-15)
(0.000118618 1.78813e-05 8.89058e-16)
(0.000246834 3.48573e-05 -8.1433e-15)
(0.000657819 0.000195509 7.93273e-15)
(1.25638e-05 -7.51772e-05 -2.94634e-15)
(7.29136e-06 -8.70866e-05 1.78892e-16)
(8.83386e-07 -0.00010437 -1.65407e-15)
(-1.1224e-05 -0.000118046 -1.5231e-15)
(-2.57501e-05 -0.000118344 9.00194e-15)
(-4.03735e-05 -0.000116353 -2.93908e-15)
(-5.59845e-05 -0.000121641 2.92743e-14)
(-7.18312e-05 -0.000119456 2.04787e-14)
(-8.3818e-05 -0.000111324 5.1601e-15)
(-9.43918e-05 -9.91032e-05 -1.70687e-15)
(-0.00010132 -8.29124e-05 7.12004e-15)
(-0.000106635 -7.06155e-05 -3.14154e-14)
(-0.000109157 -5.97884e-05 -1.37085e-13)
(-0.000106603 -4.81788e-05 3.64127e-14)
(-0.00010235 -3.66302e-05 1.8814e-14)
(-9.68946e-05 -2.54474e-05 5.2527e-14)
(-9.21739e-05 -1.50891e-05 -4.53482e-16)
(-8.92214e-05 -4.94967e-06 -9.40643e-14)
(-9.41611e-05 1.13051e-05 -1.38998e-13)
(-9.96179e-05 3.96642e-05 -1.19687e-13)
(-0.000101889 7.52501e-05 -6.96971e-14)
(-0.000114768 0.000121412 -5.64247e-14)
(-6.85641e-05 0.000297149 1.91329e-14)
(0.000297242 0.000560088 6.72242e-14)
(0.00089683 0.00031801 -3.61852e-14)
(0.000961618 -0.000689253 -1.37662e-14)
(-1.0521e-05 -0.00160999 4.44586e-14)
(-0.00126436 -0.00134941 2.10505e-15)
(-0.00152648 -9.51343e-05 2.45309e-14)
(-0.00073024 0.000740678 -3.05758e-14)
(8.85155e-05 0.000612473 -1.01145e-13)
(0.000423148 0.000156088 -5.51586e-14)
(0.000433137 -0.000170711 3.49539e-14)
(0.000318338 -0.000285521 -1.50171e-14)
(2.35248e-05 -0.000236859 2.03703e-14)
(0.000487055 -0.000813839 3.04299e-14)
(1.69179e-05 0.00104531 5.38123e-15)
(-0.0102883 0.00512124 -1.68158e-14)
(-0.00336492 0.00638818 4.26025e-14)
(1.8127e-05 -6.97701e-05 -2.40515e-14)
(2.57152e-05 -6.66558e-05 1.5062e-14)
(3.23075e-05 -6.02477e-05 4.42747e-14)
(3.65889e-05 -4.91461e-05 1.4497e-14)
(3.90493e-05 -3.75353e-05 1.02134e-13)
(4.23042e-05 -3.04034e-05 1.87092e-14)