/*--------------------------------*- C++ -*----------------------------------*\
| =========                 |                                                 |
| \\      /  F ield         | OpenFOAM: The Open Source CFD Toolbox           |
|  \\    /   O peration     | Version:  2306                                  |
|   \\  /    A nd           | Website:  www.openfoam.com                      |
|    \\/     M anipulation  |                                                 |
\*---------------------------------------------------------------------------*/
FoamFile
{
    version     2.0;
    format      ascii;
    arch        "LSB;label=32;scalar=64";
    class       volScalarField;
    location    "525";
    object      turbulenceProperties:L;
}
// * * * * * * * * * * * * * * * * * * * * * * * * * * * * * * * * * * * * * //

dimensions      [0 1 0 0 0 0 0];

internalField   nonuniform List<scalar> 
1340
(
0.257288
0.183446
0.54451
0.268982
0.257683
0.18331
0.518642
0.409007
0.550026
0.268477
0.257635
0.183265
0.381364
0.406462
0.419645
0.506421
0.404355
0.553361
0.267936
0.257279
0.183268
0.318936
0.331294
0.342548
0.354121
0.367526
0.381658
0.405468
0.417234
0.494228
0.400023
0.554712
0.267378
0.256721
0.183292
0.269214
0.278043
0.287787
0.298341
0.309905
0.322105
0.333941
0.344644
0.355669
0.368432
0.381861
0.40425
0.41458
0.482297
0.396084
0.554219
0.266851
0.256048
0.18333
0.230771
0.235879
0.24132
0.247091
0.253212
0.259743
0.266807
0.274548
0.283085
0.292475
0.302607
0.313709
0.325397
0.336657
0.346778
0.357227
0.369302
0.382002
0.402843
0.411741
0.470764
0.392575
0.552045
0.266364
0.255325
0.1834
0.198771
0.201089
0.203556
0.206179
0.208958
0.211903
0.215019
0.218316
0.221805
0.225515
0.229473
0.233714
0.238263
0.243138
0.248338
0.253862
0.259733
0.266008
0.272804
0.280248
0.288444
0.297431
0.307091
0.31768
0.328799
0.339432
0.348946
0.358793
0.370143
0.382086
0.401264
0.408754
0.459705
0.38953
0.548364
0.265936
0.254648
0.183479
0.20023
0.198241
0.210185
0.206481
0.206384
0.201969
0.19968
0.197475
0.195612
0.1939
0.192368
0.191008
0.189845
0.188863
0.18802
0.187357
0.186846
0.186478
0.186245
0.186137
0.18615
0.186277
0.186504
0.186825
0.187236
0.187733
0.188305
0.188948
0.189666
0.190447
0.191297
0.192213
0.193195
0.194246
0.195365
0.196557
0.19783
0.199179
0.200623
0.202161
0.203798
0.205549
0.207419
0.209421
0.211556
0.213838
0.216273
0.21886
0.221611
0.224527
0.227612
0.230885
0.234369
0.238089
0.242083
0.246375
0.250983
0.255909
0.261155
0.266741
0.272725
0.279212
0.286314
0.294118
0.302647
0.311785
0.32181
0.332301
0.342261
0.351147
0.360371
0.370964
0.382124
0.399528
0.405644
0.449161
0.386956
0.543415
0.265611
0.254052
0.183555
0.199154
0.221968
0.231662
0.221562
0.219605
0.216178
0.214144
0.211965
0.210076
0.208332
0.20678
0.205413
0.204228
0.203216
0.202355
0.201671
0.201133
0.200727
0.20046
0.200318
0.200288
0.200367
0.200544
0.20081
0.201162
0.201592
0.202089
0.202657
0.203289
0.20398
0.204732
0.205542
0.206413
0.207342
0.208333
0.209392
0.210519
0.211721
0.213006
0.214379
0.215849
0.217422
0.219114
0.220931
0.222876
0.224968
0.227204
0.229589
0.23213
0.234825
0.23768
0.240711
0.243939
0.247391
0.251104
0.255104
0.259413
0.264032
0.268965
0.274234
0.279887
0.286021
0.292732
0.300092
0.30811
0.316671
0.326085
0.335891
0.345138
0.353385
0.361966
0.371775
0.382118
0.397657
0.402436
0.439178
0.384851
0.537627
0.265331
0.253604
0.183594
0.226485
0.241285
0.245728
0.235087
0.233975
0.231041
0.229015
0.226903
0.225038
0.223338
0.221846
0.220499
0.219338
0.218345
0.217507
0.216822
0.216287
0.21587
0.215588
0.215434
0.215376
0.21542
0.215556
0.215785
0.216082
0.216448
0.216884
0.21738
0.21793
0.218534
0.21919
0.219894
0.220652
0.22146
0.22232
0.223238
0.224218
0.225263
0.226382
0.227585
0.228876
0.230264
0.231769
0.233388
0.235136
0.237025
0.239048
0.241216
0.243526
0.245979
0.248578
0.251337
0.254275
0.257423
0.260822
0.264494
0.268466
0.272746
0.277332
0.282243
0.287524
0.293257
0.299526
0.306381
0.31383
0.321768
0.330517
0.339577
0.348079
0.355682
0.363593
0.372594
0.382081
0.395657
0.399141
0.429776
0.383179
0.53111
0.265272
0.253201
0.183569
0.245227
0.255158
0.259124
0.249907
0.249191
0.246393
0.244442
0.242447
0.240692
0.239087
0.237671
0.236399
0.235296
0.23435
0.233549
0.232885
0.232366
0.231957
0.231672
0.231504
0.231424
0.231437
0.231539
0.231721
0.231955
0.232268
0.232634
0.233045
0.233512
0.23402
0.234574
0.235164
0.235804
0.236479
0.237201
0.237972
0.238794
0.239674
0.240623
0.241644
0.242748
0.243947
0.24525
0.246665
0.248208
0.249878
0.251678
0.253612
0.255671
0.257859
0.260174
0.26263
0.265243
0.268058
0.271104
0.274413
0.278025
0.28193
0.286133
0.290655
0.295521
0.300803
0.306582
0.312881
0.319712
0.326985
0.335024
0.343297
0.351033
0.357991
0.365219
0.373399
0.381984
0.393536
0.395769
0.421093
0.381873
0.525188
0.265345
0.253036
0.183347
0.260753
0.271047
0.275678
0.267101
0.266464
0.263803
0.261986
0.260123
0.258513
0.256997
0.255666
0.25448
0.253427
0.25254
0.251772
0.251121
0.250614
0.250216
0.249915
0.249721
0.249608
0.249583
0.249635
0.249745
0.249919
0.250153
0.250415
0.250729
0.251093
0.251492
0.2519
0.252357
0.252838
0.253369
0.253924
0.254488
0.25514
0.255827
0.256564
0.257365
0.258258
0.259224
0.260295
0.261485
0.262771
0.264196
0.265736
0.267387
0.269163
0.271032
0.273015
0.27512
0.27735
0.279776
0.282426
0.285315
0.288513
0.292003
0.295763
0.299845
0.30424
0.308997
0.314212
0.319884
0.326021
0.332553
0.339817
0.347232
0.354159
0.360438
0.366952
0.374262
0.381844
0.391276
0.392227
0.41281
0.380938
0.514545
0.26618
0.252382
0.1831
0.281914
0.293028
0.29832
0.289934
0.289607
0.287089
0.285528
0.28399
0.282394
0.281134
0.27996
0.278778
0.277868
0.277091
0.276314
0.275653
0.275247
0.274778
0.274453
0.274217
0.274018
0.273964
0.273888
0.273867
0.273949
0.274027
0.27413
0.274276
0.274444
0.274674
0.274845
0.275054
0.275308
0.275616
0.275855
0.27614
0.276515
0.276909
0.277323
0.277799
0.278385
0.278992
0.279765
0.280606
0.281519
0.282619
0.283773
0.285014
0.286398
0.287804
0.289313
0.290934
0.292616
0.294508
0.296621
0.298951
0.301577
0.304523
0.307699
0.31117
0.314926
0.318981
0.323441
0.32828
0.333523
0.33913
0.345426
0.351779
0.357761
0.363265
0.368931
0.375206
0.381581
0.388503
0.388344
0.403666
0.381711
0.495525
0.268742
0.253545
0.186245
0.311085
0.321525
0.32672
0.31922
0.319188
0.316988
0.315901
0.314635
0.313255
0.312326
0.31129
0.310244
0.30953
0.308869
0.308071
0.307482
0.307136
0.306562
0.306274
0.305911
0.305585
0.30551
0.305238
0.304996
0.304955
0.304795
0.304705
0.304598
0.304455
0.304406
0.304305
0.304152
0.3041
0.304049
0.303869
0.303825
0.303791
0.303768
0.303763
0.303843
0.303973
0.304173
0.304517
0.304857
0.305362
0.305968
0.306592
0.307304
0.308102
0.308892
0.309724
0.310659
0.311622
0.312783
0.314158
0.315762
0.317652
0.319845
0.322246
0.324894
0.327776
0.330908
0.334363
0.338133
0.342269
0.34674
0.351842
0.356948
0.361858
0.366473
0.371153
0.376208
0.381081
0.385227
0.383914
0.394547
0.38307
0.476954
0.268865
0.254572
0.186363
0.344129
0.354487
0.360178
0.353068
0.353243
0.351684
0.350769
0.349499
0.348855
0.347891
0.346879
0.346203
0.34557
0.344886
0.344106
0.343708
0.343138
0.342586
0.3423
0.341721
0.34126
0.341058
0.340579
0.340149
0.339911
0.339388
0.339062
0.338694
0.338185
0.337771
0.337359
0.336786
0.336357
0.335874
0.335261
0.334805
0.334313
0.333801
0.333349
0.332977
0.332597
0.332354
0.332148
0.331977
0.331992
0.331985
0.331996
0.332074
0.332145
0.332204
0.332225
0.33233
0.332492
0.33278
0.333327
0.3341
0.335141
0.33647
0.337954
0.339645
0.34152
0.343572
0.345889
0.348491
0.351406
0.35465
0.358469
0.362268
0.36608
0.369758
0.373367
0.377104
0.380268
0.381691
0.379163
0.386404
0.383628
0.460366
0.267634
0.25791
0.186389
0.380976
0.402805
0.392668
0.400164
0.39175
0.392813
0.391538
0.390484
0.389518
0.389051
0.388188
0.387229
0.38657
0.386023
0.385221
0.384383
0.384034
0.383193
0.382558
0.382044
0.381222
0.380668
0.380005
0.379327
0.378616
0.37792
0.377083
0.376321
0.375574
0.374593
0.373712
0.37286
0.371744
0.370845
0.369815
0.368659
0.367718
0.366645
0.365574
0.364613
0.363646
0.36273
0.361899
0.361081
0.360365
0.359682
0.358998
0.358304
0.357587
0.356829
0.356037
0.355171
0.354367
0.353653
0.353036
0.35272
0.352619
0.35276
0.353173
0.353687
0.354347
0.355155
0.356081
0.357236
0.358651
0.360342
0.362361
0.364907
0.367443
0.370197
0.372938
0.375435
0.377794
0.37912
0.377992
0.374375
0.37941
0.383544
0.442227
0.265742
0.262396
0.186442
0.423475
0.448492
0.437657
0.446756
0.436759
0.438428
0.436844
0.436283
0.435221
0.43445
0.433955
0.432908
0.432139
0.431279
0.430455
0.429611
0.428892
0.427814
0.426855
0.42604
0.425031
0.424097
0.422797
0.42186
0.420651
0.419446
0.418212
0.416742
0.415511
0.413965
0.412509
0.410956
0.409264
0.407731
0.406019
0.40423
0.402581
0.4009
0.39912
0.397476
0.395825
0.394189
0.392669
0.391105
0.389606
0.388086
0.386556
0.384993
0.38331
0.381571
0.379821
0.377977
0.37619
0.374547
0.372984
0.371754
0.370743
0.369931
0.369349
0.368833
0.368419
0.368111
0.367905
0.367886
0.368123
0.368622
0.369437
0.370739
0.372072
0.373811
0.375606
0.37698
0.377929
0.377371
0.373959
0.369516
0.373239
0.382344
0.420865
0.26321
0.267954
0.186428
0.474013
0.502317
0.491216
0.501807
0.490129
0.491736
0.49001
0.489212
0.487673
0.487199
0.486145
0.484636
0.483786
0.482448
0.481204
0.480184
0.478697
0.47726
0.475759
0.474531
0.472912
0.471152
0.469566
0.467843
0.465882
0.464226
0.462103
0.459916
0.458095
0.455747
0.453586
0.451209
0.448812
0.446594
0.444076
0.441479
0.43919
0.436713
0.434146
0.431779
0.429374
0.426865
0.424585
0.422202
0.419718
0.417335
0.414812
0.412265
0.409551
0.406802
0.404052
0.401182
0.398447
0.395857
0.393347
0.391178
0.389216
0.387395
0.385754
0.384154
0.382643
0.381193
0.379834
0.378675
0.377746
0.377084
0.376743
0.376859
0.377091
0.377879
0.378706
0.378904
0.37838
0.375906
0.370538
0.365723
0.369085
0.38129
0.399647
0.260154
0.275306
0.186159
0.517815
0.546969
0.534998
0.546889
0.533895
0.535755
0.534629
0.532982
0.531759
0.531333
0.529865
0.528361
0.52735
0.526123
0.524464
0.523291
0.521441
0.519743
0.518309
0.516615
0.514494
0.51238
0.510701
0.508603
0.505887
0.503993
0.501445
0.498761
0.496354
0.493594
0.490789
0.487888
0.484909
0.482028
0.478829
0.475618
0.472636
0.469327
0.466052
0.462803
0.459635
0.456176
0.452942
0.449578
0.446064
0.442724
0.439083
0.435538
0.431855
0.428141
0.424444
0.420699
0.417119
0.41361
0.410264
0.407178
0.404246
0.401445
0.39878
0.396145
0.393615
0.391129
0.388738
0.386572
0.384579
0.382864
0.381478
0.380496
0.379683
0.379516
0.379436
0.378636
0.376901
0.372888
0.366222
0.361442
0.364421
0.375986
0.37346
0.255629
0.28272
0.184916
0.573659
0.607413
0.594204
0.608679
0.590406
0.592919
0.590282
0.588024
0.587247
0.585948
0.583189
0.581032
0.579262
0.577667
0.5753
0.572801
0.570311
0.568182
0.566211
0.562892
0.560362
0.557658
0.555009
0.552342
0.548686
0.545961
0.542876
0.539613
0.53625
0.532863
0.529591
0.525821
0.522439
0.518816
0.514949
0.51129
0.507565
0.503807
0.499728
0.495835
0.492054
0.48784
0.483813
0.479703
0.475509
0.471271
0.466944
0.462663
0.4583
0.453946
0.44954
0.445216
0.440921
0.436683
0.432615
0.428684
0.424835
0.421084
0.417445
0.413798
0.410263
0.406751
0.403349
0.400164
0.397137
0.394432
0.392074
0.390145
0.38862
0.387814
0.386746
0.384617
0.381133
0.375007
0.367047
0.36326
0.367934
0.378948
0.358885
0.252937
0.296846
0.1828
0.558976
0.579892
0.571671
0.580901
0.572843
0.574539
0.572626
0.571621
0.571888
0.571102
0.569435
0.568076
0.567224
0.566653
0.565148
0.563573
0.562245
0.560975
0.559864
0.557515
0.555883
0.554387
0.55246
0.550471
0.547989
0.545853
0.543407
0.540963
0.538129
0.535224
0.532412
0.52897
0.525851
0.522236
0.518497
0.514689
0.510729
0.506675
0.502161
0.497915
0.493416
0.488783
0.484245
0.479686
0.475107
0.470556
0.466218
0.461814
0.457533
0.453283
0.44893
0.444631
0.440203
0.435808
0.431405
0.427081
0.422848
0.418732
0.414827
0.410991
0.407312
0.403675
0.400123
0.396706
0.393406
0.390363
0.387558
0.385033
0.382633
0.380891
0.379479
0.377447
0.374369
0.368981
0.362071
0.359077
0.361232
0.361607
0.325764
0.24603
0.292028
0.174395
0.641497
0.637736
0.64149
0.634256
0.630989
0.629876
0.628044
0.626723
0.624707
0.622593
0.621298
0.619257
0.617221
0.615111
0.613069
0.611109
0.608733
0.606513
0.60426
0.601748
0.599493
0.596878
0.594457
0.591882
0.58912
0.586326
0.583529
0.580743
0.577634
0.57467
0.571519
0.568258
0.565068
0.561566
0.558158
0.554523
0.550887
0.547164
0.543317
0.539599
0.5357
0.531906
0.528183
0.524533
0.520874
0.517385
0.513948
0.510416
0.50689
0.50314
0.499229
0.495089
0.490694
0.486223
0.481581
0.476938
0.472228
0.467533
0.462871
0.458062
0.453254
0.448356
0.443486
0.438715
0.434092
0.429839
0.425944
0.422562
0.420685
0.419925
0.417223
0.411769
0.403667
0.392214
0.38234
0.383528
0.395152
0.391088
0.329228
0.266349
0.306663
0.17375
)
;

boundaryField
{
    inlet
    {
        type            calculated;
        value           nonuniform List<scalar> 
23
(
0.0972131
0.0974566
0.0976941
0.0979263
0.0981584
0.0983959
0.0986456
0.0989133
0.0992063
0.0995319
0.0998996
0.100308
0.100782
0.101535
0.102178
0.10298
0.104005
0.105297
0.106916
0.108918
0.111451
0.113535
0.117791
)
;
    }
    outlet
    {
        type            calculated;
        value           nonuniform List<scalar> 
82
(
0.718558
0.719225
0.711407
0.707381
0.702411
0.701177
0.698765
0.697197
0.69451
0.691678
0.690203
0.687542
0.684879
0.682139
0.679508
0.677039
0.673913
0.671049
0.66817
0.664864
0.66201
0.658617
0.655527
0.652235
0.648668
0.645094
0.641534
0.638047
0.634087
0.6304
0.626487
0.622441
0.618583
0.614292
0.610224
0.605876
0.601587
0.597237
0.592748
0.58852
0.584039
0.579745
0.575567
0.57149
0.56737
0.563463
0.559594
0.555525
0.551438
0.547004
0.542357
0.537431
0.532215
0.526982
0.521575
0.516199
0.510699
0.505125
0.499463
0.493441
0.487306
0.480993
0.474721
0.468632
0.462787
0.4575
0.452809
0.449027
0.447554
0.447381
0.443981
0.436396
0.424802
0.408952
0.396035
0.398359
0.418117
0.422269
0.347601
0.271502
0.340054
0.182451
)
;
    }
    walls
    {
        type            calculated;
        value           nonuniform List<scalar> 0();
    }
    frontAndBack
    {
        type            empty;
    }
    procBoundary3to2
    {
        type            processor;
        value           nonuniform List<scalar> 
88
(
0.256365
0.183619
0.537022
0.269548
0.269548
0.530656
0.413941
0.413941
0.380927
0.407175
0.421729
0.421729
0.315879
0.328703
0.340471
0.352562
0.366562
0.366562
0.264245
0.273326
0.283373
0.2943
0.306281
0.306281
0.223886
0.229194
0.234845
0.240831
0.247169
0.253923
0.261218
0.261218
0.188967
0.191465
0.194112
0.196912
0.199875
0.203002
0.206302
0.209786
0.213468
0.217377
0.221541
0.225997
0.225997
0.229054
0.188933
0.183238
0.191376
0.188445
0.185643
0.183345
0.181471
0.179847
0.17843
0.177137
0.176039
0.17512
0.17435
0.173751
0.173291
0.172981
0.172812
0.172764
0.172838
0.173024
0.173315
0.173708
0.174191
0.174755
0.175409
0.176139
0.176941
0.177817
0.178765
0.179788
0.180878
0.182047
0.183295
0.184617
0.186029
0.187528
0.189121
0.190821
0.192624
0.194545
0.196592
0.196592
)
;
    }
    procBoundary3to6
    {
        type            processor;
        value           uniform 1.47985;
    }
    procBoundary3to7
    {
        type            processor;
        value           nonuniform List<scalar> 
16
(
4.97997
0.239623
0.238473
0.268394
0.286829
0.30575
0.332346
0.364438
0.364438
0.404846
0.450299
0.504604
0.54977
0.608218
0.585473
0.632807
)
;
    }
}


// ************************************************************************* //
