/*--------------------------------*- C++ -*----------------------------------*\
| =========                 |                                                 |
| \\      /  F ield         | OpenFOAM: The Open Source CFD Toolbox           |
|  \\    /   O peration     | Version:  2306                                  |
|   \\  /    A nd           | Website:  www.openfoam.com                      |
|    \\/     M anipulation  |                                                 |
\*---------------------------------------------------------------------------*/
FoamFile
{
    version     2.0;
    format      ascii;
    arch        "LSB;label=32;scalar=64";
    class       volScalarField;
    location    "525";
    object      turbulenceProperties:I;
}
// * * * * * * * * * * * * * * * * * * * * * * * * * * * * * * * * * * * * * //

dimensions      [0 0 0 0 0 0 0];

internalField   nonuniform List<scalar> 
1340
(
2.6594e-05
3.72821e-05
1.25945e-05
2.55141e-05
2.65513e-05
3.729e-05
1.32107e-05
1.67605e-05
1.24668e-05
2.55547e-05
2.65532e-05
3.72793e-05
1.79629e-05
1.68513e-05
1.63215e-05
1.35267e-05
1.695e-05
1.23899e-05
2.55986e-05
2.65858e-05
3.72589e-05
2.14905e-05
2.06843e-05
2.00014e-05
1.93444e-05
1.86357e-05
1.7943e-05
1.68874e-05
1.64113e-05
1.38573e-05
1.71299e-05
1.23577e-05
2.56439e-05
2.66383e-05
3.72341e-05
2.54824e-05
2.46652e-05
2.38229e-05
2.29735e-05
2.21104e-05
2.1268e-05
2.05103e-05
1.98707e-05
1.9252e-05
1.85826e-05
1.79269e-05
1.69327e-05
1.65115e-05
1.41966e-05
1.72963e-05
1.23664e-05
2.56859e-05
2.6702e-05
3.72063e-05
2.97546e-05
2.91042e-05
2.84416e-05
2.77709e-05
2.70929e-05
2.64047e-05
2.56987e-05
2.49673e-05
2.42079e-05
2.34248e-05
2.26351e-05
2.18294e-05
2.10412e-05
2.03345e-05
1.97389e-05
1.91595e-05
1.8531e-05
1.79133e-05
1.69858e-05
1.66201e-05
1.45406e-05
1.74466e-05
1.24124e-05
2.57236e-05
2.67701e-05
3.71717e-05
3.45197e-05
3.41239e-05
3.37119e-05
3.32842e-05
3.2842e-05
3.23854e-05
3.19153e-05
3.14321e-05
3.09355e-05
3.0424e-05
2.9896e-05
2.93497e-05
2.87852e-05
2.82036e-05
2.76083e-05
2.70025e-05
2.6387e-05
2.57591e-05
2.5112e-05
2.44395e-05
2.374e-05
2.3018e-05
2.22898e-05
2.15432e-05
2.08116e-05
2.01575e-05
1.96064e-05
1.90668e-05
1.84807e-05
1.79019e-05
1.70462e-05
1.67359e-05
1.48861e-05
1.75783e-05
1.24926e-05
2.57553e-05
2.68326e-05
3.7135e-05
3.40674e-05
3.4685e-05
3.25794e-05
3.30595e-05
3.307e-05
3.38061e-05
3.41968e-05
3.4579e-05
3.49086e-05
3.5217e-05
3.54984e-05
3.57524e-05
3.59728e-05
3.61615e-05
3.63254e-05
3.64561e-05
3.65583e-05
3.66331e-05
3.66818e-05
3.67062e-05
3.6707e-05
3.66855e-05
3.66446e-05
3.65854e-05
3.65091e-05
3.64167e-05
3.63103e-05
3.61911e-05
3.60587e-05
3.59152e-05
3.57602e-05
3.55944e-05
3.54182e-05
3.52311e-05
3.50337e-05
3.48256e-05
3.4606e-05
3.43756e-05
3.41324e-05
3.38765e-05
3.36081e-05
3.33252e-05
3.30279e-05
3.2715e-05
3.23874e-05
3.20438e-05
3.16847e-05
3.13113e-05
3.09234e-05
3.0522e-05
3.01078e-05
2.968e-05
2.92373e-05
2.87784e-05
2.83011e-05
2.78053e-05
2.72917e-05
2.6763e-05
2.62218e-05
2.56688e-05
2.51016e-05
2.45142e-05
2.3902e-05
2.32639e-05
2.26047e-05
2.19392e-05
2.12532e-05
2.05801e-05
1.99798e-05
1.94732e-05
1.89738e-05
1.84311e-05
1.78923e-05
1.71134e-05
1.68581e-05
1.52308e-05
1.76901e-05
1.26029e-05
2.57764e-05
2.68857e-05
3.70985e-05
3.45388e-05
3.07666e-05
2.94332e-05
3.07702e-05
3.10558e-05
3.15511e-05
3.185e-05
3.21775e-05
3.24672e-05
3.27395e-05
3.29861e-05
3.32066e-05
3.34005e-05
3.35682e-05
3.37126e-05
3.38289e-05
3.39213e-05
3.39921e-05
3.40397e-05
3.40666e-05
3.40744e-05
3.40639e-05
3.40368e-05
3.3995e-05
3.39388e-05
3.38699e-05
3.37902e-05
3.3699e-05
3.35981e-05
3.34881e-05
3.33688e-05
3.32413e-05
3.3105e-05
3.29606e-05
3.28077e-05
3.26456e-05
3.24747e-05
3.22942e-05
3.21031e-05
3.1901e-05
3.16872e-05
3.14613e-05
3.12215e-05
3.09675e-05
3.06999e-05
3.04167e-05
3.01194e-05
2.98081e-05
2.9483e-05
2.91453e-05
2.87955e-05
2.84327e-05
2.80558e-05
2.76633e-05
2.72527e-05
2.68236e-05
2.63761e-05
2.59124e-05
2.54347e-05
2.49433e-05
2.44366e-05
2.39095e-05
2.33584e-05
2.27828e-05
2.21875e-05
2.15856e-05
2.09608e-05
2.03476e-05
1.98018e-05
1.93392e-05
1.88804e-05
1.83819e-05
1.78843e-05
1.71866e-05
1.6986e-05
1.55718e-05
1.77813e-05
1.27347e-05
2.57926e-05
2.69222e-05
3.70688e-05
3.01014e-05
2.82287e-05
2.772e-05
2.89814e-05
2.91217e-05
2.94906e-05
2.97513e-05
3.00284e-05
3.02778e-05
3.05089e-05
3.07148e-05
3.09034e-05
3.10679e-05
3.12104e-05
3.13321e-05
3.14325e-05
3.1512e-05
3.15746e-05
3.16178e-05
3.16426e-05
3.16534e-05
3.16493e-05
3.16318e-05
3.16008e-05
3.15601e-05
3.15095e-05
3.14491e-05
3.13805e-05
3.13043e-05
3.1221e-05
3.11307e-05
3.10343e-05
3.0931e-05
3.08215e-05
3.07056e-05
3.05827e-05
3.04524e-05
3.03143e-05
3.01678e-05
3.00115e-05
2.98454e-05
2.96685e-05
2.94787e-05
2.92771e-05
2.9062e-05
2.88327e-05
2.85908e-05
2.83356e-05
2.80682e-05
2.77895e-05
2.74995e-05
2.7198e-05
2.68837e-05
2.65545e-05
2.62078e-05
2.5843e-05
2.54595e-05
2.50587e-05
2.46428e-05
2.42123e-05
2.37657e-05
2.32991e-05
2.28095e-05
2.22973e-05
2.17666e-05
2.12285e-05
2.06658e-05
2.01141e-05
1.96227e-05
1.92033e-05
1.87856e-05
1.8332e-05
1.78774e-05
1.72657e-05
1.71194e-05
1.59068e-05
1.78529e-05
1.28866e-05
2.57864e-05
2.69532e-05
3.70513e-05
2.77484e-05
2.66753e-05
2.62701e-05
2.72405e-05
2.73181e-05
2.76281e-05
2.78488e-05
2.80783e-05
2.82834e-05
2.84739e-05
2.86442e-05
2.87991e-05
2.8935e-05
2.90527e-05
2.91535e-05
2.92379e-05
2.93045e-05
2.93577e-05
2.93954e-05
2.94185e-05
2.94305e-05
2.94307e-05
2.94197e-05
2.93987e-05
2.93713e-05
2.9334e-05
2.92902e-05
2.9241e-05
2.9185e-05
2.91242e-05
2.9058e-05
2.89879e-05
2.89119e-05
2.88321e-05
2.87473e-05
2.86568e-05
2.8561e-05
2.8459e-05
2.83496e-05
2.82326e-05
2.8107e-05
2.79715e-05
2.78255e-05
2.76684e-05
2.74987e-05
2.73172e-05
2.71239e-05
2.69189e-05
2.67036e-05
2.64784e-05
2.62437e-05
2.59989e-05
2.57431e-05
2.54729e-05
2.51865e-05
2.48825e-05
2.45588e-05
2.4218e-05
2.38615e-05
2.34893e-05
2.31015e-05
2.26946e-05
2.22658e-05
2.18166e-05
2.13499e-05
2.08747e-05
2.03738e-05
1.98832e-05
1.94455e-05
1.90682e-05
1.86914e-05
1.82826e-05
1.78728e-05
1.73506e-05
1.72579e-05
1.62286e-05
1.79075e-05
1.30271e-05
2.57665e-05
2.69579e-05
3.70723e-05
2.60841e-05
2.50951e-05
2.46737e-05
2.54657e-05
2.55265e-05
2.57841e-05
2.59633e-05
2.61495e-05
2.63128e-05
2.64685e-05
2.66069e-05
2.67315e-05
2.68433e-05
2.69384e-05
2.70215e-05
2.70926e-05
2.71485e-05
2.71928e-05
2.72269e-05
2.72494e-05
2.72631e-05
2.72673e-05
2.72633e-05
2.7253e-05
2.72358e-05
2.7212e-05
2.71855e-05
2.71534e-05
2.7116e-05
2.70751e-05
2.70333e-05
2.69865e-05
2.69374e-05
2.68832e-05
2.68267e-05
2.67695e-05
2.67035e-05
2.66342e-05
2.656e-05
2.64798e-05
2.63905e-05
2.62945e-05
2.61886e-05
2.60716e-05
2.59462e-05
2.58082e-05
2.56606e-05
2.55039e-05
2.53371e-05
2.51637e-05
2.49819e-05
2.47916e-05
2.45928e-05
2.43801e-05
2.41516e-05
2.39072e-05
2.36423e-05
2.33596e-05
2.30624e-05
2.27482e-05
2.24191e-05
2.20735e-05
2.17068e-05
2.13218e-05
2.09206e-05
2.05101e-05
2.00724e-05
1.96448e-05
1.92617e-05
1.89271e-05
1.85922e-05
1.82302e-05
1.78699e-05
1.74422e-05
1.74059e-05
1.65476e-05
1.79445e-05
1.32912e-05
2.56713e-05
2.70146e-05
3.70954e-05
2.41059e-05
2.31913e-05
2.27799e-05
2.34389e-05
2.34655e-05
2.36715e-05
2.38011e-05
2.39303e-05
2.40659e-05
2.41742e-05
2.4276e-05
2.43794e-05
2.44599e-05
2.45291e-05
2.45988e-05
2.46585e-05
2.46957e-05
2.47388e-05
2.4769e-05
2.47912e-05
2.48103e-05
2.48163e-05
2.48244e-05
2.48276e-05
2.48214e-05
2.48157e-05
2.48077e-05
2.4796e-05
2.47822e-05
2.47631e-05
2.47492e-05
2.4732e-05
2.47109e-05
2.46849e-05
2.46654e-05
2.46417e-05
2.461e-05
2.45769e-05
2.45421e-05
2.45019e-05
2.44522e-05
2.44009e-05
2.43354e-05
2.42643e-05
2.41874e-05
2.40951e-05
2.39987e-05
2.38959e-05
2.37818e-05
2.36668e-05
2.35444e-05
2.34142e-05
2.32805e-05
2.31316e-05
2.29674e-05
2.2789e-05
2.25912e-05
2.23732e-05
2.21426e-05
2.1896e-05
2.16351e-05
2.13603e-05
2.10662e-05
2.07564e-05
2.04311e-05
2.00945e-05
1.97298e-05
1.93753e-05
1.90531e-05
1.87659e-05
1.84793e-05
1.8172e-05
1.78707e-05
1.75562e-05
1.75705e-05
1.69143e-05
1.78998e-05
1.37947e-05
2.54104e-05
2.68747e-05
3.64434e-05
2.18243e-05
2.11157e-05
2.07801e-05
2.12684e-05
2.12707e-05
2.14185e-05
2.14924e-05
2.15791e-05
2.16744e-05
2.17392e-05
2.18119e-05
2.18858e-05
2.19367e-05
2.19841e-05
2.20415e-05
2.20842e-05
2.21096e-05
2.21516e-05
2.21731e-05
2.22e-05
2.22245e-05
2.22307e-05
2.22512e-05
2.22697e-05
2.22736e-05
2.22862e-05
2.22937e-05
2.23024e-05
2.23139e-05
2.23186e-05
2.2327e-05
2.23394e-05
2.23444e-05
2.23493e-05
2.23637e-05
2.23683e-05
2.23721e-05
2.23751e-05
2.23768e-05
2.23723e-05
2.23642e-05
2.23509e-05
2.23272e-05
2.23037e-05
2.22683e-05
2.22256e-05
2.21817e-05
2.21316e-05
2.20755e-05
2.20202e-05
2.1962e-05
2.18969e-05
2.18301e-05
2.175e-05
2.16557e-05
2.15467e-05
2.14194e-05
2.12735e-05
2.11159e-05
2.09447e-05
2.07615e-05
2.0566e-05
2.03547e-05
2.01293e-05
1.98878e-05
1.96334e-05
1.93511e-05
1.90769e-05
1.88205e-05
1.85856e-05
1.83533e-05
1.81091e-05
1.78807e-05
1.76933e-05
1.77621e-05
1.72954e-05
1.78265e-05
1.43231e-05
2.53811e-05
2.67449e-05
3.64004e-05
1.97127e-05
1.91368e-05
1.88345e-05
1.92138e-05
1.92045e-05
1.92898e-05
1.93402e-05
1.94106e-05
1.94466e-05
1.95008e-05
1.95579e-05
1.95963e-05
1.96324e-05
1.96717e-05
1.97166e-05
1.97397e-05
1.97729e-05
1.98051e-05
1.98221e-05
1.98561e-05
1.98833e-05
1.98956e-05
1.99241e-05
1.99498e-05
1.99643e-05
1.99956e-05
2.00154e-05
2.00378e-05
2.00686e-05
2.00938e-05
2.01191e-05
2.01541e-05
2.01805e-05
2.02103e-05
2.02481e-05
2.02765e-05
2.03072e-05
2.03393e-05
2.03678e-05
2.03916e-05
2.04159e-05
2.04319e-05
2.04456e-05
2.04572e-05
2.04573e-05
2.04588e-05
2.04592e-05
2.04553e-05
2.04519e-05
2.04492e-05
2.04487e-05
2.04431e-05
2.04341e-05
2.04173e-05
2.03848e-05
2.03387e-05
2.02766e-05
2.01977e-05
2.01101e-05
2.00113e-05
1.99027e-05
1.97854e-05
1.96546e-05
1.95099e-05
1.93504e-05
1.91761e-05
1.89748e-05
1.87791e-05
1.85865e-05
1.84042e-05
1.82289e-05
1.80512e-05
1.7905e-05
1.78443e-05
1.79728e-05
1.76491e-05
1.779e-05
1.48293e-05
2.5479e-05
2.63753e-05
3.6377e-05
1.77932e-05
1.68287e-05
1.72634e-05
1.69401e-05
1.7304e-05
1.72572e-05
1.73135e-05
1.73604e-05
1.74035e-05
1.74245e-05
1.74634e-05
1.75068e-05
1.75368e-05
1.75618e-05
1.75985e-05
1.76371e-05
1.76533e-05
1.76923e-05
1.77218e-05
1.77459e-05
1.77844e-05
1.78105e-05
1.78419e-05
1.78741e-05
1.79079e-05
1.79412e-05
1.79814e-05
1.80181e-05
1.80543e-05
1.8102e-05
1.81451e-05
1.8187e-05
1.8242e-05
1.82867e-05
1.83381e-05
1.83961e-05
1.84437e-05
1.84983e-05
1.85531e-05
1.86026e-05
1.86527e-05
1.87005e-05
1.87441e-05
1.87873e-05
1.88254e-05
1.88619e-05
1.88985e-05
1.89358e-05
1.89745e-05
1.90155e-05
1.90584e-05
1.91056e-05
1.91496e-05
1.9189e-05
1.92234e-05
1.92415e-05
1.92481e-05
1.92415e-05
1.92203e-05
1.91937e-05
1.91593e-05
1.91173e-05
1.90694e-05
1.90098e-05
1.89373e-05
1.88512e-05
1.87493e-05
1.86219e-05
1.84972e-05
1.83629e-05
1.82308e-05
1.81125e-05
1.8003e-05
1.79447e-05
1.80053e-05
1.81901e-05
1.79628e-05
1.77823e-05
1.54262e-05
2.56393e-05
2.58996e-05
3.63456e-05
1.59969e-05
1.51045e-05
1.54785e-05
1.51633e-05
1.55104e-05
1.54514e-05
1.55075e-05
1.55275e-05
1.55654e-05
1.55931e-05
1.56109e-05
1.56487e-05
1.56767e-05
1.5708e-05
1.57382e-05
1.57692e-05
1.57957e-05
1.58356e-05
1.58713e-05
1.59017e-05
1.59396e-05
1.59748e-05
1.60241e-05
1.60598e-05
1.61061e-05
1.61525e-05
1.62004e-05
1.62577e-05
1.6306e-05
1.63671e-05
1.6425e-05
1.64873e-05
1.65557e-05
1.66182e-05
1.66885e-05
1.67626e-05
1.68316e-05
1.69025e-05
1.69782e-05
1.70488e-05
1.71203e-05
1.71918e-05
1.72587e-05
1.73282e-05
1.73953e-05
1.74639e-05
1.75334e-05
1.7605e-05
1.76827e-05
1.77637e-05
1.7846e-05
1.79335e-05
1.80192e-05
1.80989e-05
1.81754e-05
1.82364e-05
1.82871e-05
1.83283e-05
1.83584e-05
1.83854e-05
1.84075e-05
1.84246e-05
1.84369e-05
1.84401e-05
1.8431e-05
1.84091e-05
1.83719e-05
1.83111e-05
1.82496e-05
1.81683e-05
1.80846e-05
1.8022e-05
1.79808e-05
1.80128e-05
1.81852e-05
1.84159e-05
1.82471e-05
1.78254e-05
1.61959e-05
2.58621e-05
2.53361e-05
3.63249e-05
1.42821e-05
1.34772e-05
1.37819e-05
1.3491e-05
1.38124e-05
1.37673e-05
1.38158e-05
1.38383e-05
1.3882e-05
1.38955e-05
1.39257e-05
1.3969e-05
1.39936e-05
1.40324e-05
1.40687e-05
1.40986e-05
1.41424e-05
1.4185e-05
1.42298e-05
1.42667e-05
1.43155e-05
1.4369e-05
1.44176e-05
1.44707e-05
1.45317e-05
1.45835e-05
1.46505e-05
1.47203e-05
1.47788e-05
1.4855e-05
1.49259e-05
1.50045e-05
1.50847e-05
1.51598e-05
1.52458e-05
1.53356e-05
1.54156e-05
1.55032e-05
1.5595e-05
1.56806e-05
1.57687e-05
1.58615e-05
1.59468e-05
1.60371e-05
1.61321e-05
1.62245e-05
1.63233e-05
1.64243e-05
1.65334e-05
1.66453e-05
1.67588e-05
1.68789e-05
1.69951e-05
1.71067e-05
1.72165e-05
1.73126e-05
1.74007e-05
1.74835e-05
1.7559e-05
1.76334e-05
1.77045e-05
1.77735e-05
1.78391e-05
1.78961e-05
1.7943e-05
1.79777e-05
1.79975e-05
1.7996e-05
1.79891e-05
1.79554e-05
1.79195e-05
1.79138e-05
1.7943e-05
1.80672e-05
1.8338e-05
1.85924e-05
1.84384e-05
1.78603e-05
1.70401e-05
2.61385e-05
2.4631e-05
3.63499e-05
1.30664e-05
1.23698e-05
1.26466e-05
1.23716e-05
1.26727e-05
1.26287e-05
1.26553e-05
1.26943e-05
1.27235e-05
1.27337e-05
1.27689e-05
1.28052e-05
1.28298e-05
1.28597e-05
1.29003e-05
1.29292e-05
1.2975e-05
1.30174e-05
1.30533e-05
1.30961e-05
1.315e-05
1.32042e-05
1.32476e-05
1.33022e-05
1.33735e-05
1.34237e-05
1.34919e-05
1.35644e-05
1.36302e-05
1.37063e-05
1.37846e-05
1.38665e-05
1.39516e-05
1.4035e-05
1.41287e-05
1.4224e-05
1.43137e-05
1.44146e-05
1.45159e-05
1.46178e-05
1.47185e-05
1.48301e-05
1.4936e-05
1.50477e-05
1.51662e-05
1.52806e-05
1.54073e-05
1.55326e-05
1.5665e-05
1.58009e-05
1.59386e-05
1.60805e-05
1.62187e-05
1.63565e-05
1.64904e-05
1.66158e-05
1.6737e-05
1.68546e-05
1.69682e-05
1.70822e-05
1.71934e-05
1.73043e-05
1.74128e-05
1.75128e-05
1.76064e-05
1.76886e-05
1.77565e-05
1.78064e-05
1.78489e-05
1.78606e-05
1.78678e-05
1.79094e-05
1.79966e-05
1.81971e-05
1.85383e-05
1.87973e-05
1.86593e-05
1.80964e-05
1.82164e-05
2.65703e-05
2.39547e-05
3.65625e-05
1.17861e-05
1.1131e-05
1.13785e-05
1.11078e-05
1.14516e-05
1.1403e-05
1.14539e-05
1.14979e-05
1.1513e-05
1.15385e-05
1.1593e-05
1.1636e-05
1.16715e-05
1.17037e-05
1.17518e-05
1.1803e-05
1.18545e-05
1.18988e-05
1.19401e-05
1.20105e-05
1.20646e-05
1.2123e-05
1.21808e-05
1.22395e-05
1.2321e-05
1.23823e-05
1.24526e-05
1.25278e-05
1.26062e-05
1.26862e-05
1.27645e-05
1.28559e-05
1.2939e-05
1.30292e-05
1.31269e-05
1.32207e-05
1.33176e-05
1.34167e-05
1.35261e-05
1.36322e-05
1.37368e-05
1.38553e-05
1.39704e-05
1.40899e-05
1.4214e-05
1.43416e-05
1.44743e-05
1.4608e-05
1.47468e-05
1.48881e-05
1.50338e-05
1.51798e-05
1.53277e-05
1.54765e-05
1.56223e-05
1.57658e-05
1.59092e-05
1.60515e-05
1.61923e-05
1.6336e-05
1.6478e-05
1.66219e-05
1.6764e-05
1.68998e-05
1.70314e-05
1.71514e-05
1.72582e-05
1.73476e-05
1.74199e-05
1.74599e-05
1.75115e-05
1.76125e-05
1.77786e-05
1.80764e-05
1.84792e-05
1.86861e-05
1.84636e-05
1.7936e-05
1.89326e-05
2.6815e-05
2.27795e-05
3.69374e-05
1.20906e-05
1.16545e-05
1.1822e-05
1.16341e-05
1.17977e-05
1.17628e-05
1.1802e-05
1.18227e-05
1.18171e-05
1.18332e-05
1.18678e-05
1.18961e-05
1.19139e-05
1.19258e-05
1.19574e-05
1.19907e-05
1.20189e-05
1.2046e-05
1.20698e-05
1.21205e-05
1.21559e-05
1.21886e-05
1.22309e-05
1.22749e-05
1.23304e-05
1.23784e-05
1.24339e-05
1.24899e-05
1.25555e-05
1.26234e-05
1.26899e-05
1.27722e-05
1.28478e-05
1.29364e-05
1.30295e-05
1.31256e-05
1.32271e-05
1.33327e-05
1.34522e-05
1.35667e-05
1.36901e-05
1.38195e-05
1.39486e-05
1.40808e-05
1.42162e-05
1.43532e-05
1.44864e-05
1.46241e-05
1.47605e-05
1.48985e-05
1.50426e-05
1.51878e-05
1.53404e-05
1.54951e-05
1.56533e-05
1.58119e-05
1.59705e-05
1.6128e-05
1.62804e-05
1.64333e-05
1.65828e-05
1.67338e-05
1.68842e-05
1.7032e-05
1.71776e-05
1.73148e-05
1.74437e-05
1.75621e-05
1.76765e-05
1.77612e-05
1.78307e-05
1.79308e-05
1.80838e-05
1.83558e-05
1.87176e-05
1.88884e-05
1.87905e-05
1.87787e-05
2.08348e-05
2.75328e-05
2.31251e-05
3.86646e-05
1.05255e-05
1.05877e-05
1.05256e-05
1.06456e-05
1.07006e-05
1.07194e-05
1.07506e-05
1.07732e-05
1.08078e-05
1.08444e-05
1.08669e-05
1.09026e-05
1.09385e-05
1.09759e-05
1.10123e-05
1.10475e-05
1.10904e-05
1.11309e-05
1.11722e-05
1.12187e-05
1.12607e-05
1.13098e-05
1.13557e-05
1.14048e-05
1.14581e-05
1.15124e-05
1.15674e-05
1.16226e-05
1.16849e-05
1.17449e-05
1.18093e-05
1.18768e-05
1.19435e-05
1.20177e-05
1.20907e-05
1.21696e-05
1.22495e-05
1.23325e-05
1.24194e-05
1.25045e-05
1.25951e-05
1.26844e-05
1.27733e-05
1.28617e-05
1.29515e-05
1.30382e-05
1.31248e-05
1.32151e-05
1.33065e-05
1.34052e-05
1.35097e-05
1.36223e-05
1.3744e-05
1.38702e-05
1.40038e-05
1.41401e-05
1.42813e-05
1.4425e-05
1.45707e-05
1.47244e-05
1.48816e-05
1.50455e-05
1.52124e-05
1.538e-05
1.55463e-05
1.5703e-05
1.58499e-05
1.59803e-05
1.60554e-05
1.60878e-05
1.61952e-05
1.64139e-05
1.67493e-05
1.72468e-05
1.77039e-05
1.76627e-05
1.71546e-05
1.73361e-05
2.05747e-05
2.53731e-05
2.19777e-05
3.86571e-05
)
;

boundaryField
{
    inlet
    {
        type            calculated;
        value           nonuniform List<scalar> 
23
(
7.59913e-05
7.5784e-05
7.55823e-05
7.53855e-05
7.51897e-05
7.49906e-05
7.4783e-05
7.45626e-05
7.43239e-05
7.4062e-05
7.37698e-05
7.34487e-05
7.30803e-05
7.25162e-05
7.20434e-05
7.14664e-05
7.0744e-05
6.98565e-05
6.87762e-05
6.74868e-05
6.59152e-05
6.46669e-05
6.22236e-05
)
;
    }
    outlet
    {
        type            calculated;
        value           nonuniform List<scalar> 
82
(
9.3963e-06
9.38751e-06
9.49088e-06
9.54471e-06
9.61221e-06
9.62906e-06
9.66222e-06
9.68387e-06
9.72125e-06
9.76098e-06
9.78174e-06
9.8195e-06
9.85758e-06
9.89707e-06
9.93527e-06
9.97138e-06
1.00175e-05
1.00601e-05
1.01033e-05
1.01534e-05
1.0197e-05
1.02494e-05
1.02975e-05
1.03493e-05
1.0406e-05
1.04635e-05
1.05213e-05
1.05786e-05
1.06444e-05
1.07064e-05
1.0773e-05
1.08428e-05
1.09101e-05
1.09861e-05
1.1059e-05
1.1138e-05
1.12171e-05
1.12984e-05
1.13836e-05
1.1465e-05
1.15525e-05
1.16377e-05
1.17217e-05
1.18048e-05
1.18901e-05
1.1972e-05
1.20543e-05
1.2142e-05
1.22315e-05
1.23302e-05
1.24355e-05
1.25491e-05
1.26718e-05
1.27975e-05
1.293e-05
1.30647e-05
1.32056e-05
1.33516e-05
1.35033e-05
1.36688e-05
1.38418e-05
1.40248e-05
1.42116e-05
1.43983e-05
1.45825e-05
1.47537e-05
1.49097e-05
1.50386e-05
1.50916e-05
1.51006e-05
1.52193e-05
1.54878e-05
1.59161e-05
1.6541e-05
1.70918e-05
1.70052e-05
1.62124e-05
1.60559e-05
1.94873e-05
2.48919e-05
1.98202e-05
3.68147e-05
)
;
    }
    walls
    {
        type            calculated;
        value           nonuniform List<scalar> 0();
    }
    frontAndBack
    {
        type            empty;
    }
    procBoundary3to2
    {
        type            processor;
        value           nonuniform List<scalar> 
88
(
2.6691e-05
3.72661e-05
1.27713e-05
2.54674e-05
2.54674e-05
1.2914e-05
1.65638e-05
1.65638e-05
1.79893e-05
1.68267e-05
1.62449e-05
1.62449e-05
2.17094e-05
2.08569e-05
2.0132e-05
1.94377e-05
1.86917e-05
1.86917e-05
2.59818e-05
2.51092e-05
2.42102e-05
2.33034e-05
2.23848e-05
2.23848e-05
3.07062e-05
2.9987e-05
2.92574e-05
2.85219e-05
2.7782e-05
2.70345e-05
2.6271e-05
2.6271e-05
3.63697e-05
3.58965e-05
3.54077e-05
3.49043e-05
3.43863e-05
3.38554e-05
3.33119e-05
3.27559e-05
3.21875e-05
3.16044e-05
3.10056e-05
3.03891e-05
3.03891e-05
2.99518e-05
3.64877e-05
3.74749e-05
3.57165e-05
3.62682e-05
3.68275e-05
3.72926e-05
3.76793e-05
3.80198e-05
3.83224e-05
3.86034e-05
3.88459e-05
3.90516e-05
3.92262e-05
3.93642e-05
3.94714e-05
3.95454e-05
3.95875e-05
3.96023e-05
3.95893e-05
3.9551e-05
3.94891e-05
3.94043e-05
3.92999e-05
3.91779e-05
3.90369e-05
3.88804e-05
3.87094e-05
3.8524e-05
3.8325e-05
3.81121e-05
3.78876e-05
3.76495e-05
3.73982e-05
3.71353e-05
3.68581e-05
3.6568e-05
3.62641e-05
3.59451e-05
3.56122e-05
3.52639e-05
3.48998e-05
3.48998e-05
)
;
    }
    procBoundary3to6
    {
        type            processor;
        value           uniform 8.00814e-06;
    }
    procBoundary3to7
    {
        type            processor;
        value           nonuniform List<scalar> 
16
(
3.20151e-06
2.84743e-05
2.88214e-05
2.53719e-05
2.37054e-05
2.22257e-05
2.04284e-05
1.8614e-05
1.8614e-05
1.67438e-05
1.50438e-05
1.34161e-05
1.23068e-05
1.11163e-05
1.15434e-05
1.06703e-05
)
;
    }
}


// ************************************************************************* //
