# p  FACE_DATA 150
# x y z  p
0.29576437 -0.05 0.059999702 12248.979
0.28738431 -0.05 0.059968924 12281.424
0.27918472 -0.05 0.059906283 12320.465
0.27116186 -0.05 0.05981265 12360.478
0.26331203 -0.05 0.059689027 12402.511
0.25563166 -0.05 0.059536266 12446.447
0.24811723 -0.05 0.059355154 12491.984
0.24076528 -0.05 0.059146558 12538.523
0.23357246 -0.05 0.058911358 12586.192
0.22653546 -0.05 0.058650342 12635.136
0.21965107 -0.05 0.058364202 12685.498
0.21291613 -0.05 0.058053757 12737.054
0.20632755 -0.05 0.057719714 12790.614
0.19988233 -0.05 0.057362758 12845.015
0.19357748 -0.05 0.056983702 12900.904
0.18741014 -0.05 0.056583118 12957.57
0.18137746 -0.05 0.056161624 13014.075
0.17547671 -0.05 0.055719844 13071.207
0.16970518 -0.05 0.055258363 13129.282
0.1640602 -0.05 0.05477783 13188.689
0.15853921 -0.05 0.054278745 13250.614
0.15313967 -0.05 0.053761636 13314.907
0.14785914 -0.05 0.053226963 13381.192
0.14269518 -0.05 0.052675259 13449.261
0.13764543 -0.05 0.052106992 13520.036
0.13270762 -0.05 0.051522466 13592.688
0.12787949 -0.05 0.050922169 13667.111
0.12315884 -0.05 0.050306449 13744.112
0.11854353 -0.05 0.049675628 13822.116
0.11403148 -0.05 0.04903008 13899.572
0.10962066 -0.05 0.04837006 13974.825
0.10530908 -0.05 0.047695796 14050.725
0.10109483 -0.05 0.047007509 14131.292
0.096976017 -0.05 0.046305459 14216.397
0.092950808 -0.05 0.04558984 14304.242
0.08901745 -0.05 0.044860715 14393.494
0.085174232 -0.05 0.044118143 14483.897
0.081419479 -0.05 0.043362242 14575.957
0.077751578 -0.05 0.042593081 14671.734
0.074168981 -0.05 0.041810614 14772.587
0.070670198 -0.05 0.041014781 14877.699
0.06725379 -0.05 0.040205492 14989.189
0.06391837 -0.05 0.039382651 15111.848
0.060662655 -0.05 0.038545988 15248.445
0.057485397 -0.05 0.037695273 15393.156
0.054385413 -0.05 0.036830261 15545.79
0.051361621 -0.05 0.035950545 15710.417
0.048412992 -0.05 0.035055749 15886.785
0.045538629 -0.05 0.034145316 16071.331
0.042737712 -0.05 0.03321865 16259.572
0.040009498 -0.05 0.032275148 16456.095
0.037353406 -0.05 0.031314032 16664.123
0.034768993 -0.05 0.030334375 16885.864
0.032255944 -0.05 0.02933521 17120.147
0.029814132 -0.05 0.028315426 17368.189
0.027443661 -0.05 0.027273729 17634.964
0.025144824 -0.05 0.026208776 17923.018
0.022918276 -0.05 0.02511886 18239.905
0.020764984 -0.05 0.02400217 18593.195
0.018686283 -0.05 0.022856725 18995.885
0.016684024 -0.05 0.021680228 19449.265
0.01476059 -0.05 0.020470219 19957.387
0.012919252 -0.05 0.019223865 20531.093
0.011164249 -0.05 0.017938283 21174.727
0.0095007128 -0.05 0.016610449 21902.28
0.0079348886 -0.05 0.015236971 22738.797
0.006474941 -0.05 0.013814774 23699.846
0.0051312596 -0.05 0.012341958 24785.349
0.0039150106 -0.05 0.010816511 25992.672
0.0028396284 -0.05 0.009238845 27313.511
0.0019206554 -0.05 0.007613688 28720.065
0.0011720639 -0.05 0.0059475212 30190.173
0.0006061561 -0.05 0.004252283 31637.835
0.00023063831 -0.05 0.0025452878 32917.105
4.5460517e-05 -0.05 0.0008455405 33957.342
0.99536103 -0.05 0.00067021835 26684.48
0.98608198 -0.05 0.0020028877 26568.238
0.97680071 -0.05 0.0033200849 26427.451
0.96751731 -0.05 0.0046220425 26294.625
0.95823181 -0.05 0.0059090613 26160.808
0.94894428 -0.05 0.0071813587 26029.381
0.93965479 -0.05 0.0084391859 25899.503
0.93036339 -0.05 0.0096828487 25771.688
0.92107012 -0.05 0.010912491 25645.998
0.91177504 -0.05 0.012128333 25522.427
0.90247819 -0.05 0.013330648 25401.041
0.89317963 -0.05 0.014519511 25281.985
0.88387936 -0.05 0.015695054 25165.287
0.87457746 -0.05 0.016857552 25050.95
0.86527395 -0.05 0.01800713 24939.056
0.85596885 -0.05 0.019143875 24829.412
0.84666223 -0.05 0.020267984 24721.976
0.8373541 -0.05 0.021379502 24616.772
0.82804448 -0.05 0.022478516 24513.512
0.8187334 -0.05 0.023565119 24412.043
0.8094209 -0.05 0.024639397 24312.087
0.80010698 -0.05 0.025701394 24213.689
0.79079168 -0.05 0.026751168 24116.59
0.78147501 -0.05 0.027788748 24020.927
0.77215699 -0.05 0.028814138 23926.552
0.76283764 -0.05 0.029827333 23833.604
0.75351698 -0.05 0.030828337 23741.81
0.74419501 -0.05 0.03181713 23651.317
0.73487174 -0.05 0.032793639 23561.948
0.72554719 -0.05 0.033757832 23473.781
0.71622136 -0.05 0.034709535 23386.343
0.70689427 -0.05 0.03564879 23299.149
0.69756592 -0.05 0.036575541 23212.751
0.68823633 -0.05 0.037489546 23127.31
0.67890547 -0.05 0.03839067 23042.7
0.66957337 -0.05 0.039278803 22958.423
0.66024004 -0.05 0.040153805 22874.246
0.65090546 -0.05 0.04101549 22790.064
0.64156964 -0.05 0.041863622 22705.797
0.63223258 -0.05 0.042697993 22620.849
0.62289428 -0.05 0.043518409 22534.879
0.61355475 -0.05 0.04432459 22447.789
0.60421397 -0.05 0.045116235 22359.592
0.59487195 -0.05 0.045893096 22269.823
0.58552869 -0.05 0.046654869 22177.545
0.57618419 -0.05 0.047401205 22079.772
0.56683843 -0.05 0.048131797 21971.886
0.55749143 -0.05 0.04884624 21849.709
0.54814318 -0.05 0.049544113 21712.312
0.53879368 -0.05 0.050225066 21562.825
0.52944294 -0.05 0.050888717 21405.669
0.52009095 -0.05 0.051534504 21240.591
0.51073771 -0.05 0.052161963 21060.324
0.50138323 -0.05 0.052770675 20854.029
0.49202751 -0.05 0.05336005 20611.495
0.48267056 -0.05 0.053929509 20326.344
0.47331239 -0.05 0.054478508 19989.691
0.46395301 -0.05 0.055006444 19610.386
0.45459243 -0.05 0.05551264 19222.174
0.44523065 -0.05 0.055996468 18750.885
0.43586773 -0.05 0.056457197 17620.317
0.42650365 -0.05 0.05689408 15728.786
0.41713847 -0.05 0.057306403 13969.357
0.4077722 -0.05 0.057693321 12926.302
0.39840488 -0.05 0.058053993 12447.9
0.38903656 -0.05 0.058387504 12229.695
0.37966728 -0.05 0.058692934 12135.599
0.3702971 -0.05 0.058969274 12100.384
0.36092607 -0.05 0.059215505 12088.781
0.35155429 -0.05 0.059430617 12087.342
0.34218182 -0.05 0.059613395 12100.023
0.33280875 -0.05 0.059762648 12120.277
0.3234352 -0.05 0.059877122 12146.705
0.31406128 -0.05 0.059955444 12176.546
0.30468712 -0.05 0.059996221 12210.737
