/*--------------------------------*- C++ -*----------------------------------*\
| =========                 |                                                 |
| \\      /  F ield         | OpenFOAM: The Open Source CFD Toolbox           |
|  \\    /   O peration     | Version:  2306                                  |
|   \\  /    A nd           | Website:  www.openfoam.com                      |
|    \\/     M anipulation  |                                                 |
\*---------------------------------------------------------------------------*/
FoamFile
{
    version     2.0;
    format      ascii;
    arch        "LSB;label=32;scalar=64";
    class       volScalarField;
    location    "75";
    object      magR;
}
// * * * * * * * * * * * * * * * * * * * * * * * * * * * * * * * * * * * * * //

dimensions      [0 2 -2 0 0 0 0];

internalField   nonuniform List<scalar> 
1340
(
66.6076
64.4779
62.501
57.2946
1.96399
2.07365
2.23833
2.5944
0.513814
0.691679
0.765075
1.37491
0.021559
0.0617437
0.113391
0.397003
0.000512682
0.0012731
0.00188134
0.0273698
6.74384e-05
0.000243463
0.000532496
0.000745889
2.17886e-05
1.96988e-06
5.54294e-07
0.000221504
2.59465e-05
2.04079e-05
7.23107e-06
9.30683e-07
3.15328e-05
3.04321e-05
3.45171e-05
1.81758e-05
2.635e-05
2.44693e-05
2.76794e-05
2.92197e-05
2.72545e-05
2.61148e-05
2.76061e-05
3.11842e-05
2.56754e-05
2.43649e-05
2.55441e-05
2.82494e-05
2.53529e-05
2.41358e-05
2.50477e-05
2.69773e-05
2.44574e-05
2.31772e-05
2.38284e-05
2.53624e-05
2.37724e-05
2.25111e-05
2.29004e-05
2.40319e-05
2.29441e-05
2.1673e-05
2.18424e-05
2.26639e-05
2.2113e-05
2.08477e-05
2.08243e-05
2.13587e-05
2.1237e-05
1.99721e-05
1.97813e-05
2.00712e-05
2.03497e-05
1.90898e-05
1.87528e-05
1.88157e-05
1.94451e-05
1.81937e-05
1.77369e-05
1.76105e-05
1.85195e-05
1.72815e-05
1.67266e-05
1.64421e-05
1.75698e-05
1.63508e-05
1.57194e-05
1.53093e-05
1.66057e-05
1.54088e-05
1.4719e-05
1.42116e-05
1.56396e-05
1.44684e-05
1.3735e-05
1.31489e-05
1.46728e-05
1.3531e-05
1.27687e-05
1.21287e-05
1.37028e-05
1.25949e-05
1.18172e-05
1.11418e-05
1.27374e-05
1.16663e-05
1.0884e-05
1.01913e-05
1.17875e-05
1.07558e-05
9.97784e-06
9.2796e-06
1.08593e-05
9.86951e-06
9.10352e-06
8.41038e-06
9.95503e-06
9.00975e-06
8.26238e-06
7.58352e-06
9.07693e-06
8.17729e-06
7.45445e-06
6.79809e-06
8.2296e-06
7.37588e-06
6.68113e-06
6.05324e-06
7.41967e-06
6.61168e-06
5.94721e-06
5.35126e-06
6.65114e-06
5.88808e-06
5.25513e-06
4.69284e-06
5.92549e-06
5.20619e-06
4.60495e-06
4.07712e-06
5.24662e-06
4.5688e-06
3.99828e-06
3.50412e-06
4.61837e-06
3.97991e-06
3.43811e-06
2.97507e-06
4.0417e-06
3.44034e-06
2.92447e-06
2.48926e-06
4.09705e-06
3.51782e-06
2.95049e-06
2.45687e-06
2.04535e-06
3.59058e-06
3.04883e-06
2.51199e-06
2.03724e-06
1.64338e-06
3.14033e-06
2.6334e-06
2.1257e-06
1.66626e-06
1.28329e-06
2.74598e-06
2.27258e-06
1.7922e-06
1.34393e-06
9.62557e-07
2.40609e-06
1.96582e-06
1.51256e-06
1.0734e-06
6.82798e-07
2.11912e-06
1.71278e-06
1.28879e-06
8.60497e-07
4.49418e-07
1.88143e-06
1.51031e-06
1.11924e-06
7.09509e-07
2.80556e-07
1.68886e-06
1.35465e-06
1.00145e-06
6.24418e-07
2.29911e-07
1.53629e-06
1.24039e-06
9.29441e-07
5.99761e-07
3.00913e-07
1.41747e-06
1.16011e-06
8.93262e-07
6.17588e-07
4.06796e-07
1.32558e-06
1.10564e-06
8.81556e-07
6.56985e-07
5.08293e-07
1.25426e-06
1.06914e-06
8.83754e-07
7.02576e-07
5.96393e-07
1.19753e-06
1.0436e-06
8.91604e-07
7.45348e-07
6.68508e-07
1.15008e-06
1.02341e-06
8.99201e-07
7.80429e-07
7.24718e-07
1.21146e-06
1.10781e-06
1.00383e-06
9.02767e-07
8.06009e-07
7.66124e-07
1.15232e-06
1.06761e-06
9.82616e-07
9.00116e-07
8.20953e-07
7.93793e-07
1.09595e-06
1.02685e-06
9.57935e-07
8.90883e-07
8.26261e-07
8.09152e-07
1.04091e-06
9.85417e-07
9.29974e-07
8.75574e-07
8.22738e-07
8.13565e-07
9.8723e-07
9.42911e-07
8.98802e-07
8.55075e-07
8.12182e-07
8.09324e-07
9.34304e-07
8.9982e-07
8.65341e-07
8.30578e-07
7.96137e-07
7.98479e-07
8.8273e-07
8.56219e-07
8.29756e-07
8.02722e-07
7.75647e-07
7.82479e-07
8.31712e-07
8.12163e-07
7.92703e-07
7.72171e-07
7.51326e-07
7.61739e-07
7.81157e-07
7.67273e-07
7.53687e-07
7.38698e-07
7.23348e-07
7.3679e-07
7.38392e-07
7.29421e-07
7.19831e-07
7.11474e-07
7.01589e-07
6.91168e-07
7.07472e-07
6.82444e-07
6.76602e-07
6.70633e-07
6.66135e-07
6.6054e-07
6.54968e-07
6.73671e-07
6.2738e-07
6.2347e-07
6.19914e-07
6.18422e-07
6.16394e-07
6.14885e-07
6.35479e-07
5.75052e-07
5.72404e-07
5.70455e-07
5.70912e-07
5.71269e-07
5.72778e-07
5.94652e-07
5.26575e-07
5.24972e-07
5.24085e-07
5.25677e-07
5.27412e-07
5.30967e-07
5.5315e-07
4.80537e-07
4.80209e-07
4.80304e-07
4.82816e-07
4.85729e-07
4.90887e-07
5.1359e-07
4.34321e-07
4.35122e-07
4.36078e-07
4.39165e-07
4.42877e-07
4.4936e-07
4.72473e-07
3.98593e-07
4.00479e-07
4.02326e-07
4.05626e-07
4.08896e-07
4.15472e-07
4.36505e-07
3.71871e-07
3.74914e-07
3.7771e-07
3.8144e-07
3.84347e-07
3.90067e-07
4.08941e-07
3.42927e-07
3.4683e-07
3.50696e-07
3.55298e-07
3.58811e-07
3.6406e-07
3.8068e-07
3.07615e-07
3.12291e-07
3.16829e-07
3.21964e-07
3.27602e-07
3.32296e-07
3.37821e-07
3.52473e-07
2.73725e-07
2.78562e-07
2.83844e-07
2.89677e-07
2.96241e-07
3.02325e-07
3.08488e-07
3.20641e-07
2.27392e-07
2.3254e-07
2.38912e-07
2.46525e-07
2.55496e-07
2.64818e-07
2.74677e-07
2.90528e-07
1.71144e-07
1.74139e-07
1.78896e-07
1.85501e-07
1.94299e-07
2.04409e-07
2.14641e-07
2.26862e-07
1.36362e-07
1.46763e-07
1.58983e-07
1.72637e-07
1.87815e-07
2.0324e-07
2.19687e-07
2.45362e-07
8.64864e-08
8.95817e-08
9.26978e-08
9.68177e-08
1.04523e-07
1.20675e-07
1.49213e-07
1.82762e-07
4.45349e-07
4.61862e-07
4.76407e-07
4.89287e-07
5.02138e-07
5.16891e-07
5.51437e-07
5.83379e-07
7.08626e-07
7.04415e-07
6.99616e-07
6.95054e-07
6.91764e-07
6.93863e-07
7.10768e-07
6.80418e-07
1.47898e-06
1.47228e-06
1.46456e-06
1.45599e-06
1.44556e-06
1.43523e-06
1.41868e-06
1.31158e-06
5.72109
0.734266
0.29699
0.0579564
0.00393832
8.18823e-05
8.11183e-06
5.65705e-06
2.40521e-05
2.56426e-05
2.5148e-05
2.35193e-05
2.26454e-05
2.15989e-05
2.0644e-05
1.96409e-05
1.86453e-05
1.76379e-05
1.66299e-05
1.56333e-05
1.4643e-05
1.36689e-05
1.27106e-05
1.17752e-05
1.08661e-05
9.98126e-06
9.12844e-06
8.30933e-06
7.52529e-06
6.77776e-06
6.06801e-06
5.3968e-06
4.765e-06
4.17246e-06
3.619e-06
3.10442e-06
2.6287e-06
2.19099e-06
1.79059e-06
1.42681e-06
1.0985e-06
8.03472e-07
5.42902e-07
3.19879e-07
1.6024e-07
1.71426e-07
2.9137e-07
4.12863e-07
5.20295e-07
6.11566e-07
6.85701e-07
7.43673e-07
7.86894e-07
8.16727e-07
8.34076e-07
8.4031e-07
8.37597e-07
8.28124e-07
8.13205e-07
7.9347e-07
7.69079e-07
7.3988e-07
7.0583e-07
6.66906e-07
6.2498e-07
5.8186e-07
5.40356e-07
4.98452e-07
4.61024e-07
4.30804e-07
3.99863e-07
3.69976e-07
3.35748e-07
3.06865e-07
2.39288e-07
2.70156e-07
1.75302e-07
5.89006e-07
5.74379e-07
1.19161e-06
0.296514
0.0937131
0.0215816
0.00247871
0.000540153
1.54494e-06
2.10989e-06
2.23059e-05
2.58162e-05
2.38295e-05
2.26369e-05
2.14216e-05
2.04453e-05
1.94129e-05
1.84261e-05
1.74365e-05
1.64695e-05
1.55128e-05
1.45751e-05
1.36583e-05
1.27634e-05
1.18952e-05
1.105e-05
1.02332e-05
9.4445e-06
8.68447e-06
7.95597e-06
7.25769e-06
6.58895e-06
5.9519e-06
5.3477e-06
4.77686e-06
4.23862e-06
3.73293e-06
3.26074e-06
2.82132e-06
2.41433e-06
2.04006e-06
1.6986e-06
1.38987e-06
1.11433e-06
8.74132e-07
6.7442e-07
5.24418e-07
4.39195e-07
4.24415e-07
4.61452e-07
5.23665e-07
5.9317e-07
6.59567e-07
7.16927e-07
7.63379e-07
7.99005e-07
8.23954e-07
8.38159e-07
8.42515e-07
8.38768e-07
8.28849e-07
8.13956e-07
7.94589e-07
7.70815e-07
7.42334e-07
7.08893e-07
6.70472e-07
6.29006e-07
5.86002e-07
5.43957e-07
5.01581e-07
4.64014e-07
4.3329e-07
4.01637e-07
3.71525e-07
3.3666e-07
3.08678e-07
2.38522e-07
2.81694e-07
1.44093e-07
6.01817e-07
5.36099e-07
1.2335e-06
0.0010959
0.00590221
0.000823248
7.96488e-06
0
7.97852e-07
1.25224e-05
2.6124e-05
2.15049e-05
2.01079e-05
1.90849e-05
1.81177e-05
1.7181e-05
1.62688e-05
1.5386e-05
1.45292e-05
1.36976e-05
1.28876e-05
1.21002e-05
1.13381e-05
1.06025e-05
9.89262e-06
9.2053e-06
8.54334e-06
7.9076e-06
7.29825e-06
6.71361e-06
6.15158e-06
5.61255e-06
5.09918e-06
4.61239e-06
4.15149e-06
3.71554e-06
3.30545e-06
2.922e-06
2.56432e-06
2.23266e-06
1.92816e-06
1.65125e-06
1.40215e-06
1.18283e-06
9.96141e-07
8.44891e-07
7.32935e-07
6.63497e-07
6.33026e-07
6.32714e-07
6.53612e-07
6.87196e-07
7.24855e-07
7.60127e-07
7.9019e-07
8.14069e-07
8.30835e-07
8.39486e-07
8.40268e-07
8.34522e-07
8.23581e-07
8.08449e-07
7.89463e-07
7.6625e-07
7.38471e-07
7.0595e-07
6.68497e-07
6.28121e-07
5.8614e-07
5.44672e-07
5.03606e-07
4.67829e-07
4.37863e-07
4.06898e-07
3.77704e-07
3.43593e-07
3.16993e-07
2.50282e-07
2.96302e-07
1.45033e-07
6.02268e-07
5.17469e-07
1.23314e-06
0.000546351
1.42917e-05
0
0
3.3021e-07
5.67345e-06
1.99973e-05
1.81671e-05
1.54487e-05
1.49753e-05
1.43026e-05
1.36376e-05
1.29958e-05
1.23773e-05
1.17756e-05
1.11901e-05
1.06143e-05
1.00489e-05
9.4961e-06
8.95787e-06
8.43449e-06
7.92357e-06
7.4257e-06
6.9428e-06
6.47688e-06
6.0263e-06
5.58873e-06
5.16349e-06
4.75303e-06
4.3602e-06
3.98545e-06
3.62788e-06
3.28724e-06
2.9654e-06
2.66274e-06
2.37889e-06
2.1146e-06
1.87163e-06
1.64994e-06
1.45023e-06
1.27473e-06
1.1251e-06
1.00178e-06
9.06528e-07
8.39673e-07
7.97306e-07
7.75003e-07
7.69803e-07
7.77412e-07
7.91509e-07
8.06858e-07
8.21053e-07
8.32909e-07
8.40714e-07
8.42856e-07
8.39141e-07
8.30416e-07
8.17749e-07
8.01752e-07
7.82422e-07
7.59302e-07
7.31966e-07
7.00161e-07
6.63824e-07
6.24886e-07
5.84376e-07
5.44416e-07
5.05556e-07
4.72121e-07
4.4355e-07
4.13903e-07
3.85777e-07
3.52694e-07
3.2792e-07
2.66627e-07
3.1206e-07
1.61778e-07
5.98158e-07
5.02545e-07
1.21472e-06
0
0
0
7.4091e-08
1.31404e-06
1.43642e-05
1.48407e-05
1.18638e-05
1.11913e-05
1.08906e-05
1.03823e-05
9.91447e-06
9.47678e-06
9.05839e-06
8.65779e-06
8.27045e-06
7.89373e-06
7.5284e-06
7.17441e-06
6.83072e-06
6.49497e-06
6.16519e-06
5.84176e-06
5.52566e-06
5.21652e-06
4.91155e-06
4.60903e-06
4.31014e-06
4.01793e-06
3.73479e-06
3.46055e-06
3.19479e-06
2.93831e-06
2.69334e-06
2.46015e-06
2.23904e-06
2.0314e-06
1.8389e-06
1.66128e-06
1.4998e-06
1.35647e-06
1.23178e-06
1.12574e-06
1.03985e-06
9.73588e-07
9.23716e-07
8.88397e-07
8.67234e-07
8.57613e-07
8.54656e-07
8.5457e-07
8.55797e-07
8.57165e-07
8.56576e-07
8.52118e-07
8.4346e-07
8.31229e-07
8.1603e-07
7.98392e-07
7.78004e-07
7.54135e-07
7.26544e-07
6.95094e-07
6.59594e-07
6.21952e-07
5.82923e-07
5.44396e-07
5.07605e-07
4.76158e-07
4.4856e-07
4.19548e-07
3.91652e-07
3.58824e-07
3.35864e-07
2.79164e-07
3.24795e-07
1.74407e-07
5.95979e-07
4.93678e-07
1.20445e-06
0
0
2.43399e-09
3.79044e-08
8.76897e-06
1.2005e-05
9.45615e-06
8.51117e-06
8.48755e-06
8.2443e-06
7.92177e-06
7.62899e-06
7.33603e-06
7.0427e-06
6.75386e-06
6.46935e-06
6.1921e-06
5.92427e-06
5.66683e-06
5.41772e-06
5.17603e-06
4.9409e-06
4.71329e-06
4.4927e-06
4.27654e-06
4.0621e-06
3.84828e-06
3.63679e-06
3.42952e-06
3.22729e-06
3.02914e-06
2.83463e-06
2.64485e-06
2.46127e-06
2.28414e-06
2.11408e-06
1.95284e-06
1.80129e-06
1.65942e-06
1.52874e-06
1.4108e-06
1.30546e-06
1.2132e-06
1.13548e-06
1.0713e-06
1.01831e-06
9.76429e-07
9.46319e-07
9.25905e-07
9.11392e-07
9.00338e-07
8.9195e-07
8.85069e-07
8.77376e-07
8.67039e-07
8.53756e-07
8.37984e-07
8.20245e-07
8.00647e-07
7.78553e-07
7.5356e-07
7.25254e-07
6.93631e-07
6.58638e-07
6.22106e-07
5.8407e-07
5.46596e-07
5.1143e-07
4.81427e-07
4.54383e-07
4.254e-07
3.96761e-07
3.63363e-07
3.41632e-07
2.88466e-07
3.34345e-07
1.81338e-07
5.94384e-07
0
5.0145e-09
8.26173e-08
5.10327e-06
8.39016e-06
7.04536e-06
6.03883e-06
6.0968e-06
6.13981e-06
6.00808e-06
5.88358e-06
5.76557e-06
5.62979e-06
5.48122e-06
5.32267e-06
5.15735e-06
4.98744e-06
4.81458e-06
4.64095e-06
4.46644e-06
4.29262e-06
4.12062e-06
3.9522e-06
3.78784e-06
3.62528e-06
3.46296e-06
3.30168e-06
3.14334e-06
2.98873e-06
2.83771e-06
2.68924e-06
2.54303e-06
2.3998e-06
2.26013e-06
2.12425e-06
1.9929e-06
1.8674e-06
1.74799e-06
1.63487e-06
1.52949e-06
1.43275e-06
1.34437e-06
1.26529e-06
1.19656e-06
1.13687e-06
1.08483e-06
1.0414e-06
1.00746e-06
9.81068e-07
9.5935e-07
9.41093e-07
9.26142e-07
9.13246e-07
9.00042e-07
8.84946e-07
8.67887e-07
8.49247e-07
8.2926e-07
8.07778e-07
7.84215e-07
7.57827e-07
7.28653e-07
6.96705e-07
6.61996e-07
6.26227e-07
5.88896e-07
5.52017e-07
5.18277e-07
4.89589e-07
4.62712e-07
4.33283e-07
4.03697e-07
3.69545e-07
3.4842e-07
2.97787e-07
3.42477e-07
2.73554e-08
3.33597e-07
4.25483e-06
6.7801e-06
6.02324e-06
4.81836e-06
4.6655e-06
4.76095e-06
4.70297e-06
4.59255e-06
4.50561e-06
4.42159e-06
4.33455e-06
4.24832e-06
4.16173e-06
4.07505e-06
3.98641e-06
3.89372e-06
3.79614e-06
3.69285e-06
3.58464e-06
3.4725e-06
3.35691e-06
3.2387e-06
3.11801e-06
2.99509e-06
2.8721e-06
2.75101e-06
2.63245e-06
2.51634e-06
2.40214e-06
2.2897e-06
2.17957e-06
2.07191e-06
1.96682e-06
1.86501e-06
1.76711e-06
1.67309e-06
1.58341e-06
1.49938e-06
1.42126e-06
1.34891e-06
1.28336e-06
1.2251e-06
1.1726e-06
1.12532e-06
1.08464e-06
1.05112e-06
1.02276e-06
9.97651e-07
9.75571e-07
9.56737e-07
9.39841e-07
9.22714e-07
9.04197e-07
8.84333e-07
8.63503e-07
8.41818e-07
8.18839e-07
7.93733e-07
7.66175e-07
7.36011e-07
7.03558e-07
6.69051e-07
6.33774e-07
5.96769e-07
5.60433e-07
5.28019e-07
5.00268e-07
4.73393e-07
4.4357e-07
4.13176e-07
3.78341e-07
3.57473e-07
8.82844e-07
6.00361e-06
7.6857e-06
6.36419e-06
5.28374e-06
4.71644e-06
4.61062e-06
4.46606e-06
4.28084e-06
4.12232e-06
3.98212e-06
3.84556e-06
3.71825e-06
3.60369e-06
3.5006e-06
3.40699e-06
3.32154e-06
3.24237e-06
3.16671e-06
3.09257e-06
3.01836e-06
2.94267e-06
2.86373e-06
2.77963e-06
2.69154e-06
2.60016e-06
2.50666e-06
2.41291e-06
2.32006e-06
2.22846e-06
2.13832e-06
2.0501e-06
1.96419e-06
1.88047e-06
1.79946e-06
1.72133e-06
1.64608e-06
1.57358e-06
1.50453e-06
1.43966e-06
1.37898e-06
1.32261e-06
1.27139e-06
1.22511e-06
1.18232e-06
1.14307e-06
1.10866e-06
1.07907e-06
1.05233e-06
1.02733e-06
1.00453e-06
9.84283e-07
9.65303e-07
9.45798e-07
9.25e-07
9.03268e-07
8.80961e-07
8.57845e-07
8.33477e-07
8.06999e-07
7.78067e-07
7.46929e-07
7.13909e-07
6.79037e-07
6.43962e-07
6.07107e-07
5.7081e-07
5.39363e-07
5.12612e-07
4.85418e-07
4.55132e-07
9.58306e-06
1.40537e-05
9.01587e-06
5.92002e-06
5.56754e-06
5.66957e-06
5.39352e-06
4.94362e-06
4.57421e-06
4.30578e-06
4.07497e-06
3.85757e-06
3.65761e-06
3.47753e-06
3.31439e-06
3.16604e-06
3.03136e-06
2.91054e-06
2.80207e-06
2.70418e-06
2.61515e-06
2.53303e-06
2.45554e-06
2.37987e-06
2.30527e-06
2.23121e-06
2.15737e-06
2.08454e-06
2.01258e-06
1.94162e-06
1.87204e-06
1.80447e-06
1.73954e-06
1.6771e-06
1.61759e-06
1.56063e-06
1.50606e-06
1.45364e-06
1.40414e-06
1.35783e-06
1.31467e-06
1.27464e-06
1.23818e-06
1.20487e-06
1.17351e-06
1.14441e-06
1.11857e-06
1.09537e-06
1.07291e-06
1.05082e-06
1.02984e-06
1.01028e-06
9.90785e-07
9.70202e-07
9.48422e-07
9.25719e-07
9.02259e-07
8.78045e-07
8.52299e-07
8.24459e-07
7.94225e-07
7.61617e-07
7.27308e-07
6.91936e-07
6.56463e-07
6.19231e-07
2.21932e-06
1.12713e-05
9.88243e-06
5.72149e-06
5.15222e-06
5.54338e-06
5.58601e-06
5.24332e-06
4.8284e-06
4.49083e-06
4.21687e-06
3.97008e-06
3.73474e-06
3.51374e-06
3.30702e-06
3.113e-06
2.93157e-06
2.76379e-06
2.61001e-06
2.46971e-06
2.34313e-06
2.22903e-06
2.12623e-06
2.03307e-06
1.94866e-06
1.87136e-06
1.80098e-06
1.73722e-06
1.67864e-06
1.62435e-06
1.57468e-06
1.52947e-06
1.48807e-06
1.44967e-06
1.41453e-06
1.38143e-06
1.34998e-06
1.31982e-06
1.29167e-06
1.26525e-06
1.24023e-06
1.21687e-06
1.19632e-06
1.17671e-06
1.15741e-06
1.1393e-06
1.12284e-06
1.10693e-06
1.09012e-06
1.07244e-06
1.05477e-06
1.03697e-06
1.01819e-06
9.97605e-07
9.74914e-07
9.51494e-07
9.27379e-07
9.0207e-07
8.75263e-07
8.45893e-07
8.14049e-07
4.29644e-10
2.88996e-09
8.47549e-06
5.45444e-06
3.79608e-06
3.50885e-06
3.79772e-06
4.01041e-06
3.93489e-06
3.73398e-06
3.55182e-06
3.39861e-06
3.242e-06
3.07751e-06
2.91252e-06
2.74876e-06
2.58748e-06
2.43016e-06
2.2797e-06
2.13758e-06
2.00504e-06
1.88225e-06
1.76993e-06
1.66847e-06
1.57763e-06
1.49688e-06
1.42634e-06
1.36617e-06
1.31594e-06
1.27555e-06
1.24444e-06
1.2215e-06
1.20589e-06
1.19633e-06
1.19103e-06
1.18764e-06
1.18513e-06
1.18281e-06
1.18041e-06
1.17699e-06
1.17352e-06
1.1696e-06
1.1629e-06
1.156e-06
1.14858e-06
1.14065e-06
1.13267e-06
1.12341e-06
1.11179e-06
1.09824e-06
1.08362e-06
1.068e-06
1.04941e-06
1.02827e-06
2.90313e-05
2.82013e-07
3.95414e-06
6.07751e-06
3.88385e-06
2.09015e-06
1.66039e-06
1.9105e-06
2.20192e-06
2.28137e-06
2.26081e-06
2.2444e-06
2.21997e-06
2.16923e-06
2.09503e-06
2.0057e-06
1.90483e-06
1.79628e-06
1.68471e-06
1.57352e-06
1.4652e-06
1.36208e-06
1.26612e-06
1.17928e-06
1.10286e-06
1.03771e-06
9.84276e-07
9.43556e-07
9.16721e-07
9.0423e-07
9.03893e-07
9.14548e-07
9.33899e-07
9.59883e-07
9.89229e-07
1.01958e-06
1.04886e-06
1.07574e-06
1.10036e-06
1.12311e-06
1.13708e-06
1.14964e-06
)
;

boundaryField
{
    inlet
    {
        type            calculated;
        value           nonuniform List<scalar> 
13
(
4.98215e-06
5.01557e-06
5.0405e-06
5.05881e-06
5.07432e-06
5.0886e-06
5.11692e-06
5.1004e-06
5.00949e-06
4.9557e-06
4.88615e-06
4.81782e-06
4.75617e-06
)
;
    }
    outlet
    {
        type            calculated;
        value           nonuniform List<scalar> 0();
    }
    walls
    {
        type            calculated;
        value           nonuniform List<scalar> 4(1.131 1.09247 1.05114 0.947896);
    }
    frontAndBack
    {
        type            empty;
    }
    procBoundary2to1
    {
        type            processor;
        value           nonuniform List<scalar> 
84
(
68.2667
1.83665
0.350872
0.00550847
0.000504023
6.66141e-08
3.10538e-05
3.05595e-05
3.27953e-05
2.85367e-05
2.90357e-05
2.76858e-05
2.72064e-05
2.63417e-05
2.55973e-05
2.47457e-05
2.38704e-05
2.29565e-05
2.20248e-05
2.10737e-05
2.00974e-05
1.90947e-05
1.80756e-05
1.70529e-05
1.60266e-05
1.49962e-05
1.39694e-05
1.29579e-05
1.19667e-05
1.10002e-05
1.00608e-05
9.15422e-06
8.28658e-06
7.46284e-06
6.6848e-06
5.95678e-06
5.28234e-06
4.66213e-06
4.66213e-06
4.67036e-06
4.12053e-06
3.63075e-06
3.19909e-06
2.82319e-06
2.50068e-06
2.2277e-06
2.00011e-06
1.81252e-06
1.65917e-06
1.53416e-06
1.43192e-06
1.34702e-06
1.2751e-06
1.2751e-06
1.31058e-06
1.23421e-06
1.16288e-06
1.0947e-06
1.02976e-06
9.67223e-07
9.07492e-07
8.4995e-07
7.93984e-07
7.93984e-07
7.47184e-07
6.88896e-07
6.32293e-07
5.78872e-07
5.29113e-07
4.81432e-07
4.33737e-07
3.96781e-07
3.68812e-07
3.38615e-07
3.38615e-07
3.03116e-07
2.69332e-07
2.23518e-07
1.69801e-07
1.28106e-07
8.35343e-08
4.26584e-07
7.11676e-07
1.48406e-06
)
;
    }
    procBoundary2to3
    {
        type            processor;
        value           nonuniform List<scalar> 
88
(
4.86724e-07
1.19849e-06
1.8697e-07
4.86724e-07
5.92405e-07
3.08591e-07
1.8697e-07
3.50548e-07
4.24171e-07
3.8921e-07
3.08591e-07
3.68383e-07
5.82853e-07
5.52248e-07
5.25874e-07
4.98321e-07
4.24171e-07
4.67696e-07
7.80278e-07
7.44476e-07
7.07719e-07
6.71814e-07
5.82853e-07
6.33995e-07
1.00661e-06
9.82398e-07
9.57162e-07
9.30504e-07
9.02231e-07
8.71838e-07
7.80278e-07
8.38472e-07
1.16308e-06
1.16733e-06
1.16927e-06
1.16932e-06
1.16684e-06
1.16141e-06
1.1522e-06
1.14046e-06
1.12617e-06
1.1103e-06
1.09173e-06
1.00661e-06
1.06867e-06
0.00050644
8.66393e-05
5.13696e-07
4.52183e-06
6.22115e-06
4.69076e-06
2.86436e-06
2.11632e-06
1.9485e-06
1.86063e-06
1.69308e-06
1.5181e-06
1.39176e-06
1.28566e-06
1.18489e-06
1.08796e-06
9.94154e-07
9.04046e-07
8.17912e-07
7.36877e-07
6.62123e-07
5.96168e-07
5.41922e-07
5.02591e-07
4.81194e-07
4.79004e-07
4.94692e-07
5.25554e-07
5.6833e-07
6.19943e-07
6.77095e-07
7.37774e-07
7.99506e-07
8.60771e-07
9.18997e-07
9.73283e-07
1.02347e-06
1.07022e-06
1.10969e-06
1.14481e-06
1.17449e-06
1.16308e-06
1.19231e-06
)
;
    }
    procBoundary2to6
    {
        type            processor;
        value           nonuniform List<scalar> 
13
(
28.2249
4.46057
0.212074
0.00584227
0.00695892
0.000514972
0
0
5.85158e-08
5.03622e-07
1.13101e-07
2.60366e-06
0.000217237
)
;
    }
}


// ************************************************************************* //
