/*--------------------------------*- C++ -*----------------------------------*\
| =========                 |                                                 |
| \\      /  F ield         | OpenFOAM: The Open Source CFD Toolbox           |
|  \\    /   O peration     | Version:  2306                                  |
|   \\  /    A nd           | Website:  www.openfoam.com                      |
|    \\/     M anipulation  |                                                 |
\*---------------------------------------------------------------------------*/
FoamFile
{
    version     2.0;
    format      ascii;
    arch        "LSB;label=32;scalar=64";
    class       volScalarField;
    location    "75";
    object      nut;
}
// * * * * * * * * * * * * * * * * * * * * * * * * * * * * * * * * * * * * * //

dimensions      [0 2 -1 0 0 0 0];

internalField   nonuniform List<scalar> 
1340
(
0.113003
0.111336
0.109778
0.10638
0.0739548
0.0750562
0.0765254
0.0808629
0.0437944
0.0509938
0.0555397
0.0686387
0.00829037
0.0148812
0.0217664
0.0400983
0.000259625
0.000943736
0.00158273
0.0099761
3.26968e-05
0.000216883
0.000383128
0.000460996
1.81226e-06
1.71156e-08
1.31405e-09
8.76686e-05
5.80302e-06
4.50882e-06
4.95e-07
6.89652e-09
6.28162e-06
6.21785e-06
7.06558e-06
1.60626e-06
6.18478e-06
6.08729e-06
6.66237e-06
5.96229e-06
6.14543e-06
6.14069e-06
6.11835e-06
6.41044e-06
6.13651e-06
6.14988e-06
6.11052e-06
6.19845e-06
6.13665e-06
6.1417e-06
6.13824e-06
6.1428e-06
6.13551e-06
6.13802e-06
6.14083e-06
6.14202e-06
6.13424e-06
6.13687e-06
6.13875e-06
6.14348e-06
6.13236e-06
6.13515e-06
6.13669e-06
6.14239e-06
6.13013e-06
6.13279e-06
6.13427e-06
6.14006e-06
6.1279e-06
6.13034e-06
6.13167e-06
6.13717e-06
6.12607e-06
6.12829e-06
6.12946e-06
6.13444e-06
6.12458e-06
6.12667e-06
6.12777e-06
6.13226e-06
6.12307e-06
6.12508e-06
6.12619e-06
6.13042e-06
6.12127e-06
6.1232e-06
6.12431e-06
6.12843e-06
6.11935e-06
6.12118e-06
6.12223e-06
6.12613e-06
6.11757e-06
6.11933e-06
6.12034e-06
6.12391e-06
6.11583e-06
6.11755e-06
6.11859e-06
6.12195e-06
6.11389e-06
6.11552e-06
6.11658e-06
6.11987e-06
6.11187e-06
6.11334e-06
6.1143e-06
6.11744e-06
6.11006e-06
6.11134e-06
6.11215e-06
6.11497e-06
6.10857e-06
6.10964e-06
6.11032e-06
6.11278e-06
6.10731e-06
6.10818e-06
6.10873e-06
6.11088e-06
6.10617e-06
6.10686e-06
6.10724e-06
6.10913e-06
6.10507e-06
6.1056e-06
6.10582e-06
6.10741e-06
6.10401e-06
6.10443e-06
6.10455e-06
6.10583e-06
6.10291e-06
6.10331e-06
6.1034e-06
6.10445e-06
6.1016e-06
6.10203e-06
6.10215e-06
6.1031e-06
6.10006e-06
6.10055e-06
6.10075e-06
6.10163e-06
6.09838e-06
6.09894e-06
6.09925e-06
6.10012e-06
6.09657e-06
6.09719e-06
6.09759e-06
6.09852e-06
6.09417e-06
6.09471e-06
6.09533e-06
6.09578e-06
6.09673e-06
6.09243e-06
6.0929e-06
6.09348e-06
6.09394e-06
6.09487e-06
6.09089e-06
6.09127e-06
6.09176e-06
6.09218e-06
6.09306e-06
6.08957e-06
6.08983e-06
6.09019e-06
6.09052e-06
6.09129e-06
6.08842e-06
6.08858e-06
6.08882e-06
6.08903e-06
6.08965e-06
6.08738e-06
6.08749e-06
6.08765e-06
6.08778e-06
6.08825e-06
6.08633e-06
6.08645e-06
6.08658e-06
6.08665e-06
6.087e-06
6.08518e-06
6.08535e-06
6.08549e-06
6.08555e-06
6.08583e-06
6.08388e-06
6.08413e-06
6.08434e-06
6.08446e-06
6.08474e-06
6.08241e-06
6.08276e-06
6.08307e-06
6.0833e-06
6.08365e-06
6.08085e-06
6.08127e-06
6.08166e-06
6.08198e-06
6.08244e-06
6.07935e-06
6.07979e-06
6.08021e-06
6.08059e-06
6.08111e-06
6.07806e-06
6.07846e-06
6.07886e-06
6.07925e-06
6.0798e-06
6.07712e-06
6.07745e-06
6.07779e-06
6.07814e-06
6.07866e-06
6.07642e-06
6.07663e-06
6.07688e-06
6.07713e-06
6.0774e-06
6.07783e-06
6.07651e-06
6.07667e-06
6.07684e-06
6.07701e-06
6.07718e-06
6.07748e-06
6.07706e-06
6.0772e-06
6.07733e-06
6.07744e-06
6.07753e-06
6.07771e-06
6.07797e-06
6.07811e-06
6.07824e-06
6.07833e-06
6.0784e-06
6.0785e-06
6.07906e-06
6.07924e-06
6.07939e-06
6.0795e-06
6.07958e-06
6.07967e-06
6.08017e-06
6.08038e-06
6.08057e-06
6.08072e-06
6.08084e-06
6.08097e-06
6.08117e-06
6.0814e-06
6.08162e-06
6.08181e-06
6.08198e-06
6.08217e-06
6.08202e-06
6.08227e-06
6.08251e-06
6.08273e-06
6.08295e-06
6.08319e-06
6.08286e-06
6.08312e-06
6.08338e-06
6.08361e-06
6.08386e-06
6.08413e-06
6.08357e-06
6.08387e-06
6.08414e-06
6.08441e-06
6.08465e-06
6.08492e-06
6.08518e-06
6.08487e-06
6.08521e-06
6.08551e-06
6.0858e-06
6.08606e-06
6.08634e-06
6.0866e-06
6.08654e-06
6.08691e-06
6.08725e-06
6.08758e-06
6.08787e-06
6.08817e-06
6.08843e-06
6.08848e-06
6.08888e-06
6.08925e-06
6.08961e-06
6.08994e-06
6.09029e-06
6.09058e-06
6.09061e-06
6.091e-06
6.09138e-06
6.09176e-06
6.09212e-06
6.0925e-06
6.09283e-06
6.09292e-06
6.09331e-06
6.09369e-06
6.09406e-06
6.09442e-06
6.09482e-06
6.09515e-06
6.095e-06
6.09543e-06
6.09586e-06
6.09632e-06
6.09676e-06
6.09727e-06
6.09771e-06
6.09608e-06
6.09652e-06
6.09698e-06
6.09748e-06
6.09799e-06
6.0986e-06
6.09924e-06
6.0965e-06
6.09688e-06
6.09728e-06
6.09772e-06
6.09819e-06
6.09875e-06
6.0994e-06
6.09678e-06
6.09712e-06
6.09749e-06
6.0979e-06
6.09833e-06
6.09885e-06
6.09946e-06
6.09669e-06
6.09703e-06
6.09739e-06
6.09775e-06
6.09814e-06
6.09855e-06
6.09906e-06
6.09963e-06
6.0977e-06
6.09813e-06
6.09856e-06
6.09898e-06
6.09943e-06
6.09989e-06
6.10047e-06
6.10103e-06
6.10031e-06
6.10091e-06
6.10151e-06
6.10209e-06
6.1027e-06
6.10331e-06
6.10408e-06
6.10474e-06
6.10444e-06
6.1052e-06
6.10594e-06
6.10668e-06
6.10744e-06
6.10822e-06
6.10916e-06
6.11001e-06
6.10725e-06
6.1079e-06
6.10854e-06
6.10915e-06
6.10978e-06
6.11043e-06
6.11122e-06
6.112e-06
6.10401e-06
6.10421e-06
6.10439e-06
6.10454e-06
6.10469e-06
6.10484e-06
6.10502e-06
6.1053e-06
6.09669e-06
6.09696e-06
6.09726e-06
6.09758e-06
6.09793e-06
6.09831e-06
6.0988e-06
6.09936e-06
6.10054e-06
6.10208e-06
6.10365e-06
6.10524e-06
6.10686e-06
6.10853e-06
6.11038e-06
6.11205e-06
6.09504e-06
6.0953e-06
6.09546e-06
6.09553e-06
6.09549e-06
6.09531e-06
6.09503e-06
6.09486e-06
0.0814937
0.0485218
0.0319444
0.0136692
0.00216736
3.71773e-05
5.48719e-07
2.98043e-07
4.88261e-06
6.41595e-06
6.2925e-06
6.1514e-06
6.13676e-06
6.13982e-06
6.14016e-06
6.13864e-06
6.13649e-06
6.13422e-06
6.1322e-06
6.13054e-06
6.12893e-06
6.12706e-06
6.12503e-06
6.12312e-06
6.12131e-06
6.11926e-06
6.1169e-06
6.11457e-06
6.11252e-06
6.11068e-06
6.1089e-06
6.10714e-06
6.10555e-06
6.10417e-06
6.10281e-06
6.1014e-06
6.1e-06
6.0985e-06
6.09683e-06
6.0951e-06
6.09338e-06
6.09164e-06
6.09002e-06
6.08859e-06
6.08731e-06
6.08611e-06
6.08505e-06
6.08403e-06
6.0829e-06
6.08165e-06
6.08042e-06
6.07933e-06
6.07852e-06
6.07813e-06
6.0783e-06
6.07904e-06
6.08018e-06
6.08146e-06
6.08265e-06
6.08367e-06
6.08463e-06
6.0857e-06
6.08713e-06
6.08897e-06
6.09113e-06
6.0934e-06
6.09574e-06
6.09835e-06
6.09985e-06
6.09993e-06
6.09992e-06
6.10004e-06
6.10147e-06
6.10528e-06
6.11059e-06
6.11223e-06
6.10516e-06
6.09994e-06
6.11286e-06
6.09482e-06
0.0337917
0.0165991
0.00741147
0.00147473
0.000390302
2.06447e-08
4.1737e-08
4.59892e-06
6.68819e-06
6.26216e-06
6.16684e-06
6.1276e-06
6.13438e-06
6.13638e-06
6.13566e-06
6.13424e-06
6.13261e-06
6.13111e-06
6.12983e-06
6.12862e-06
6.12721e-06
6.12555e-06
6.12385e-06
6.12223e-06
6.1205e-06
6.11846e-06
6.11624e-06
6.11413e-06
6.11225e-06
6.11047e-06
6.10868e-06
6.10692e-06
6.10536e-06
6.10397e-06
6.10261e-06
6.10125e-06
6.09994e-06
6.09851e-06
6.09693e-06
6.09532e-06
6.09367e-06
6.09198e-06
6.09039e-06
6.08897e-06
6.08765e-06
6.08644e-06
6.08541e-06
6.08443e-06
6.08335e-06
6.08216e-06
6.08099e-06
6.07997e-06
6.07918e-06
6.07878e-06
6.07891e-06
6.07961e-06
6.08071e-06
6.08196e-06
6.08313e-06
6.08414e-06
6.0851e-06
6.0862e-06
6.08765e-06
6.08951e-06
6.09167e-06
6.09392e-06
6.09629e-06
6.09891e-06
6.10032e-06
6.10031e-06
6.10021e-06
6.10029e-06
6.10177e-06
6.10568e-06
6.11097e-06
6.11224e-06
6.10494e-06
6.10051e-06
6.11325e-06
6.09479e-06
0.00353543
0.00273343
0.000770848
7.78233e-07
0
6.99736e-09
1.82194e-06
8.27321e-06
6.34096e-06
6.11236e-06
6.12525e-06
6.12389e-06
6.13084e-06
6.13128e-06
6.13058e-06
6.1298e-06
6.1289e-06
6.12815e-06
6.12746e-06
6.12659e-06
6.12543e-06
6.12407e-06
6.1227e-06
6.12127e-06
6.11959e-06
6.11763e-06
6.11562e-06
6.11376e-06
6.11204e-06
6.11031e-06
6.10851e-06
6.10679e-06
6.10525e-06
6.10385e-06
6.10248e-06
6.10118e-06
6.09992e-06
6.09855e-06
6.09706e-06
6.09556e-06
6.09398e-06
6.09234e-06
6.0908e-06
6.08938e-06
6.08802e-06
6.08681e-06
6.0858e-06
6.08485e-06
6.08378e-06
6.08264e-06
6.08155e-06
6.08059e-06
6.07983e-06
6.07941e-06
6.07952e-06
6.08019e-06
6.08125e-06
6.08246e-06
6.0836e-06
6.0846e-06
6.08557e-06
6.0867e-06
6.08818e-06
6.09006e-06
6.09221e-06
6.09443e-06
6.09681e-06
6.09944e-06
6.10074e-06
6.10062e-06
6.10044e-06
6.1005e-06
6.10205e-06
6.10609e-06
6.11135e-06
6.11218e-06
6.10469e-06
6.10116e-06
6.11363e-06
6.09474e-06
0.00134559
4.61853e-06
0
0
2.0453e-09
6.34128e-07
8.09419e-06
7.41521e-06
5.92957e-06
6.10924e-06
6.12261e-06
6.12429e-06
6.1267e-06
6.12628e-06
6.12564e-06
6.12542e-06
6.12531e-06
6.12521e-06
6.12496e-06
6.12441e-06
6.12356e-06
6.12255e-06
6.12145e-06
6.12016e-06
6.11856e-06
6.11677e-06
6.11503e-06
6.11341e-06
6.11183e-06
6.11013e-06
6.10837e-06
6.10669e-06
6.10518e-06
6.10377e-06
6.10241e-06
6.10115e-06
6.09992e-06
6.0986e-06
6.09721e-06
6.09579e-06
6.09428e-06
6.09271e-06
6.09121e-06
6.08978e-06
6.0884e-06
6.08719e-06
6.0862e-06
6.08525e-06
6.08419e-06
6.08309e-06
6.08208e-06
6.08118e-06
6.08044e-06
6.08002e-06
6.08012e-06
6.08075e-06
6.08177e-06
6.08293e-06
6.08403e-06
6.08501e-06
6.086e-06
6.08716e-06
6.08867e-06
6.09057e-06
6.09271e-06
6.0949e-06
6.09729e-06
6.0999e-06
6.10109e-06
6.10087e-06
6.10061e-06
6.10066e-06
6.10233e-06
6.10652e-06
6.11173e-06
6.1121e-06
6.10444e-06
6.10188e-06
6.11406e-06
6.09468e-06
0
0
0
1.75707e-10
5.9937e-08
7.34298e-06
8.5577e-06
6.09206e-06
5.92631e-06
6.14531e-06
6.12204e-06
6.12349e-06
6.12298e-06
6.12233e-06
6.12185e-06
6.12191e-06
6.12209e-06
6.12248e-06
6.12257e-06
6.12233e-06
6.12181e-06
6.12111e-06
6.12021e-06
6.11902e-06
6.11756e-06
6.11601e-06
6.11454e-06
6.11314e-06
6.11165e-06
6.10999e-06
6.10829e-06
6.10667e-06
6.10518e-06
6.10375e-06
6.1024e-06
6.10117e-06
6.09996e-06
6.09869e-06
6.09738e-06
6.09604e-06
6.09459e-06
6.09309e-06
6.09164e-06
6.0902e-06
6.0888e-06
6.08762e-06
6.08664e-06
6.08566e-06
6.08459e-06
6.08354e-06
6.08261e-06
6.08176e-06
6.08104e-06
6.08062e-06
6.0807e-06
6.08131e-06
6.08228e-06
6.08337e-06
6.08442e-06
6.08539e-06
6.08639e-06
6.08759e-06
6.08913e-06
6.09103e-06
6.09315e-06
6.09531e-06
6.09772e-06
6.10031e-06
6.10139e-06
6.10106e-06
6.10074e-06
6.10083e-06
6.10263e-06
6.10699e-06
6.11212e-06
6.11201e-06
6.10422e-06
6.10269e-06
6.11459e-06
6.09459e-06
0
0
3.83683e-13
9.35323e-11
5.07457e-06
9.79065e-06
6.60819e-06
5.73516e-06
6.0823e-06
6.15265e-06
6.11593e-06
6.12096e-06
6.11964e-06
6.11886e-06
6.1187e-06
6.11906e-06
6.11956e-06
6.12024e-06
6.12059e-06
6.12063e-06
6.12039e-06
6.11991e-06
6.11913e-06
6.11804e-06
6.11676e-06
6.11547e-06
6.11424e-06
6.11299e-06
6.11157e-06
6.10997e-06
6.10833e-06
6.10676e-06
6.10527e-06
6.10384e-06
6.10251e-06
6.10129e-06
6.10009e-06
6.09886e-06
6.09762e-06
6.09634e-06
6.09495e-06
6.09352e-06
6.0921e-06
6.09066e-06
6.08927e-06
6.08811e-06
6.08712e-06
6.08611e-06
6.08503e-06
6.08403e-06
6.08316e-06
6.08235e-06
6.08164e-06
6.08122e-06
6.0813e-06
6.08188e-06
6.08278e-06
6.08381e-06
6.08479e-06
6.08574e-06
6.08675e-06
6.08798e-06
6.08955e-06
6.09146e-06
6.09354e-06
6.09568e-06
6.09811e-06
6.10068e-06
6.10165e-06
6.10123e-06
6.10087e-06
6.101e-06
6.10298e-06
6.10751e-06
6.11252e-06
6.11192e-06
6.10403e-06
6.10359e-06
0
4.18627e-12
9.50497e-10
3.85027e-06
1.00385e-05
7.38935e-06
5.61627e-06
5.90771e-06
6.18586e-06
6.13726e-06
6.10937e-06
6.11614e-06
6.11601e-06
6.11577e-06
6.11607e-06
6.11689e-06
6.11784e-06
6.11871e-06
6.11925e-06
6.11948e-06
6.11943e-06
6.11906e-06
6.11835e-06
6.11737e-06
6.11629e-06
6.11524e-06
6.1142e-06
6.11303e-06
6.11165e-06
6.1101e-06
6.10853e-06
6.10701e-06
6.10552e-06
6.10409e-06
6.10277e-06
6.10154e-06
6.10033e-06
6.09913e-06
6.09795e-06
6.09672e-06
6.09539e-06
6.09402e-06
6.09263e-06
6.09119e-06
6.08984e-06
6.08871e-06
6.08769e-06
6.08662e-06
6.08554e-06
6.08459e-06
6.08376e-06
6.08297e-06
6.08226e-06
6.08186e-06
6.08193e-06
6.08247e-06
6.08331e-06
6.08425e-06
6.08516e-06
6.08608e-06
6.08709e-06
6.08834e-06
6.08994e-06
6.09185e-06
6.09391e-06
6.09603e-06
6.09848e-06
6.10102e-06
6.10188e-06
6.10138e-06
6.10099e-06
6.10121e-06
6.10338e-06
6.10809e-06
6.11296e-06
6.11181e-06
9.34062e-11
2.51416e-08
3.55721e-06
1.0381e-05
8.54594e-06
5.80089e-06
5.61504e-06
6.08712e-06
6.17566e-06
6.12319e-06
6.11216e-06
6.11301e-06
6.11294e-06
6.1146e-06
6.1154e-06
6.11642e-06
6.11745e-06
6.1183e-06
6.11886e-06
6.11914e-06
6.11911e-06
6.11873e-06
6.11805e-06
6.11717e-06
6.11627e-06
6.11539e-06
6.11445e-06
6.11331e-06
6.11196e-06
6.11046e-06
6.10894e-06
6.10744e-06
6.10595e-06
6.10452e-06
6.10318e-06
6.10193e-06
6.10071e-06
6.09954e-06
6.0984e-06
6.09719e-06
6.09592e-06
6.09461e-06
6.09324e-06
6.09182e-06
6.09051e-06
6.0894e-06
6.08834e-06
6.08721e-06
6.08613e-06
6.08522e-06
6.08443e-06
6.08363e-06
6.08292e-06
6.08253e-06
6.08261e-06
6.08311e-06
6.08386e-06
6.0847e-06
6.08554e-06
6.08642e-06
6.08743e-06
6.0887e-06
6.09033e-06
6.09224e-06
6.09427e-06
6.09638e-06
6.09885e-06
6.10136e-06
6.10212e-06
6.10153e-06
6.10114e-06
6.10147e-06
6.10386e-06
6.1087e-06
7.90425e-08
4.9596e-06
8.19033e-06
7.94003e-06
6.40986e-06
5.81875e-06
6.06005e-06
6.16676e-06
6.11135e-06
6.10589e-06
6.12229e-06
6.12002e-06
6.11614e-06
6.11688e-06
6.11834e-06
6.11874e-06
6.11927e-06
6.11974e-06
6.12002e-06
6.12008e-06
6.11985e-06
6.11932e-06
6.11856e-06
6.11772e-06
6.11689e-06
6.11606e-06
6.11511e-06
6.11394e-06
6.11258e-06
6.1111e-06
6.10961e-06
6.1081e-06
6.10659e-06
6.10514e-06
6.10377e-06
6.10247e-06
6.10124e-06
6.10009e-06
6.09896e-06
6.09778e-06
6.09655e-06
6.09528e-06
6.09393e-06
6.09254e-06
6.09129e-06
6.09018e-06
6.08907e-06
6.08789e-06
6.08682e-06
6.08594e-06
6.08514e-06
6.08434e-06
6.08363e-06
6.08326e-06
6.08333e-06
6.08378e-06
6.08445e-06
6.08518e-06
6.08594e-06
6.08677e-06
6.08778e-06
6.08907e-06
6.09072e-06
6.09264e-06
6.09465e-06
6.09676e-06
6.09927e-06
6.10175e-06
6.10239e-06
6.10173e-06
6.10132e-06
8.05925e-06
1.82369e-05
8.13216e-06
4.62343e-06
4.89626e-06
6.12215e-06
6.48171e-06
6.26977e-06
6.09812e-06
6.0937e-06
6.1257e-06
6.13138e-06
6.12611e-06
6.1242e-06
6.12434e-06
6.12429e-06
6.12386e-06
6.12354e-06
6.12317e-06
6.12269e-06
6.12203e-06
6.12118e-06
6.12023e-06
6.11928e-06
6.11836e-06
6.11742e-06
6.11634e-06
6.11506e-06
6.11363e-06
6.11213e-06
6.11061e-06
6.10906e-06
6.1075e-06
6.10599e-06
6.10455e-06
6.10321e-06
6.10196e-06
6.10081e-06
6.09968e-06
6.0985e-06
6.09729e-06
6.09604e-06
6.09471e-06
6.09337e-06
6.09216e-06
6.09105e-06
6.08986e-06
6.08865e-06
6.08758e-06
6.08672e-06
6.08591e-06
6.08508e-06
6.08439e-06
6.08404e-06
6.08411e-06
6.0845e-06
6.08506e-06
6.08568e-06
6.08636e-06
6.08715e-06
6.08817e-06
6.08951e-06
6.09118e-06
6.0931e-06
6.0951e-06
6.09717e-06
4.23918e-07
1.44903e-05
1.34941e-05
5.14948e-06
4.35142e-06
5.54032e-06
6.32257e-06
6.37568e-06
6.20218e-06
6.11631e-06
6.11551e-06
6.13433e-06
6.13713e-06
6.13333e-06
6.1313e-06
6.131e-06
6.12994e-06
6.12879e-06
6.1277e-06
6.12657e-06
6.12538e-06
6.12415e-06
6.12293e-06
6.12177e-06
6.12064e-06
6.11947e-06
6.11816e-06
6.11671e-06
6.11517e-06
6.11358e-06
6.11198e-06
6.11034e-06
6.10868e-06
6.10707e-06
6.10555e-06
6.10415e-06
6.10288e-06
6.10171e-06
6.10054e-06
6.09935e-06
6.09816e-06
6.09693e-06
6.09563e-06
6.09434e-06
6.09317e-06
6.09202e-06
6.09077e-06
6.08952e-06
6.08847e-06
6.08759e-06
6.08674e-06
6.08589e-06
6.08521e-06
6.08487e-06
6.08491e-06
6.08525e-06
6.08571e-06
6.08624e-06
6.08685e-06
6.08761e-06
6.08859e-06
5.50031e-14
1.42777e-12
1.5316e-05
1.05854e-05
6.05109e-06
4.97489e-06
5.53041e-06
6.19657e-06
6.32458e-06
6.18881e-06
6.11269e-06
6.12465e-06
6.13932e-06
6.13757e-06
6.13546e-06
6.13482e-06
6.13423e-06
6.13294e-06
6.1316e-06
6.13014e-06
6.12867e-06
6.12722e-06
6.12585e-06
6.12455e-06
6.12324e-06
6.12186e-06
6.12036e-06
6.11876e-06
6.1171e-06
6.11542e-06
6.11371e-06
6.11195e-06
6.11018e-06
6.10846e-06
6.10685e-06
6.1054e-06
6.10409e-06
6.10286e-06
6.10164e-06
6.10043e-06
6.0992e-06
6.09788e-06
6.09652e-06
6.0953e-06
6.09414e-06
6.09294e-06
6.09164e-06
6.09038e-06
6.08933e-06
6.08844e-06
6.08755e-06
6.08669e-06
6.08605e-06
6.0858e-06
3.59554e-05
1.99432e-08
5.6105e-06
1.50156e-05
1.12991e-05
6.1476e-06
4.8792e-06
5.55037e-06
6.23884e-06
6.29286e-06
6.14444e-06
6.10889e-06
6.12554e-06
6.13485e-06
6.13271e-06
6.133e-06
6.13399e-06
6.13389e-06
6.13319e-06
6.13209e-06
6.13078e-06
6.12943e-06
6.12812e-06
6.12683e-06
6.12549e-06
6.12402e-06
6.12243e-06
6.12074e-06
6.11902e-06
6.11726e-06
6.11544e-06
6.11356e-06
6.11167e-06
6.10985e-06
6.10817e-06
6.10669e-06
6.10534e-06
6.10404e-06
6.10276e-06
6.10149e-06
6.10025e-06
6.09922e-06
)
;

boundaryField
{
    inlet
    {
        type            freestream;
        freestreamValue uniform 1e-05;
        value           uniform 1e-05;
    }
    outlet
    {
        type            freestream;
        freestreamValue nonuniform List<scalar> 0();
        value           nonuniform List<scalar> 0();
    }
    walls
    {
        type            nutUSpaldingWallFunction;
        value           nonuniform List<scalar> 4(0.00287017 0.00282499 0.00277588 0.00264762);
    }
    frontAndBack
    {
        type            empty;
    }
    procBoundary2to1
    {
        type            processor;
        value           nonuniform List<scalar> 
84
(
0.114259
0.0725374
0.0354616
0.00403373
0.000203378
2.74751e-11
3.1817e-06
6.40337e-06
6.1723e-06
6.13153e-06
6.13899e-06
6.13667e-06
6.13515e-06
6.13324e-06
6.13199e-06
6.13021e-06
6.12813e-06
6.1261e-06
6.12442e-06
6.12302e-06
6.12155e-06
6.1198e-06
6.11794e-06
6.11621e-06
6.1145e-06
6.11265e-06
6.1108e-06
6.10919e-06
6.10787e-06
6.10677e-06
6.10578e-06
6.10478e-06
6.10374e-06
6.1026e-06
6.10122e-06
6.0996e-06
6.09784e-06
6.096e-06
6.096e-06
6.09363e-06
6.09199e-06
6.09057e-06
6.08935e-06
6.08827e-06
6.08724e-06
6.08615e-06
6.08492e-06
6.08352e-06
6.08197e-06
6.08037e-06
6.0789e-06
6.07767e-06
6.07682e-06
6.07682e-06
6.07621e-06
6.07635e-06
6.07691e-06
6.07779e-06
6.07886e-06
6.07994e-06
6.08092e-06
6.08177e-06
6.08259e-06
6.08259e-06
6.08325e-06
6.08451e-06
6.08614e-06
6.08808e-06
6.09022e-06
6.09255e-06
6.0946e-06
6.09569e-06
6.09616e-06
6.09646e-06
6.09646e-06
6.09637e-06
6.09729e-06
6.09973e-06
6.1037e-06
6.10663e-06
6.10386e-06
6.09652e-06
6.09906e-06
6.09472e-06
)
;
    }
    procBoundary2to3
    {
        type            processor;
        value           nonuniform List<scalar> 
88
(
6.11514e-06
6.09444e-06
6.10384e-06
6.11514e-06
6.10456e-06
6.11332e-06
6.10384e-06
6.11167e-06
6.10171e-06
6.10432e-06
6.11332e-06
6.10933e-06
6.09961e-06
6.10203e-06
6.10258e-06
6.10186e-06
6.10171e-06
6.10149e-06
6.08985e-06
6.09156e-06
6.09349e-06
6.09548e-06
6.09961e-06
6.09757e-06
6.08587e-06
6.08606e-06
6.08637e-06
6.08676e-06
6.08727e-06
6.08799e-06
6.08985e-06
6.08899e-06
6.09828e-06
6.09703e-06
6.09584e-06
6.09454e-06
6.09314e-06
6.09182e-06
6.09072e-06
6.08973e-06
6.08876e-06
6.08787e-06
6.08723e-06
6.08587e-06
6.0869e-06
0.000482394
9.95272e-05
2.48909e-08
6.0198e-06
1.70768e-05
1.24272e-05
6.28851e-06
4.88827e-06
5.61706e-06
6.27556e-06
6.26153e-06
6.10294e-06
6.10488e-06
6.12185e-06
6.12246e-06
6.12206e-06
6.12528e-06
6.12804e-06
6.12983e-06
6.13072e-06
6.13074e-06
6.13029e-06
6.12958e-06
6.1287e-06
6.12766e-06
6.12642e-06
6.12501e-06
6.12347e-06
6.12183e-06
6.1201e-06
6.11826e-06
6.1163e-06
6.11431e-06
6.1124e-06
6.11067e-06
6.10913e-06
6.1077e-06
6.10629e-06
6.10487e-06
6.10355e-06
6.10235e-06
6.09828e-06
6.10112e-06
)
;
    }
    procBoundary2to6
    {
        type            processor;
        value           nonuniform List<scalar> 
13
(
0.204662
0.127701
0.0453623
0.00545219
0.00664523
0.00114676
0
0
2.59301e-10
3.24176e-08
1.43319e-09
5.74441e-06
0.00027328
)
;
    }
}


// ************************************************************************* //
