/*--------------------------------*- C++ -*----------------------------------*\
| =========                 |                                                 |
| \\      /  F ield         | OpenFOAM: The Open Source CFD Toolbox           |
|  \\    /   O peration     | Version:  2306                                  |
|   \\  /    A nd           | Website:  www.openfoam.com                      |
|    \\/     M anipulation  |                                                 |
\*---------------------------------------------------------------------------*/
FoamFile
{
    version     2.0;
    format      ascii;
    arch        "LSB;label=32;scalar=64";
    class       volScalarField;
    location    "75";
    object      turbulenceProperties:epsilon;
}
// * * * * * * * * * * * * * * * * * * * * * * * * * * * * * * * * * * * * * //

dimensions      [0 2 -3 0 0 0 0];

internalField   nonuniform List<scalar> 
1340
(
1167.45
1110.36
1058.12
917.584
1.55182
1.70434
1.94787
2.47525
0.179256
0.278979
0.313389
0.818947
0.00166803
0.00762268
0.0175697
0.116905
2.96762e-05
5.10659e-05
6.65931e-05
0.00223295
2.00609e-06
8.02093e-06
2.20294e-05
3.57775e-05
2.61208e-07
1.29874e-09
7.47784e-11
1.35531e-05
3.80814e-07
2.36204e-07
2.58372e-08
2.59108e-10
5.60836e-07
5.22532e-07
6.68915e-07
1.80369e-07
3.9177e-07
3.37991e-07
4.31213e-07
4.82203e-07
4.19174e-07
3.84862e-07
4.30107e-07
5.48056e-07
3.72021e-07
3.34991e-07
3.68272e-07
4.50222e-07
3.62731e-07
3.28733e-07
3.54047e-07
4.107e-07
3.37561e-07
3.03144e-07
3.20416e-07
3.63e-07
3.18918e-07
2.85972e-07
2.95944e-07
3.2591e-07
2.97085e-07
2.65076e-07
2.69233e-07
2.89863e-07
2.75954e-07
2.45274e-07
2.44724e-07
2.57441e-07
2.54527e-07
2.25107e-07
2.20826e-07
2.27341e-07
2.33704e-07
2.0566e-07
1.98461e-07
1.99792e-07
2.1339e-07
1.86807e-07
1.77543e-07
1.75018e-07
1.93561e-07
1.68545e-07
1.57894e-07
1.52566e-07
1.74218e-07
1.50882e-07
1.39454e-07
1.3227e-07
1.55625e-07
1.33999e-07
1.22268e-07
1.13983e-07
1.38046e-07
1.18143e-07
1.06468e-07
9.75746e-08
1.21507e-07
1.03331e-07
9.20155e-08
8.30212e-08
1.05973e-07
8.95291e-08
7.88129e-08
7.00614e-08
9.15682e-08
7.68143e-08
6.68573e-08
5.86173e-08
7.84204e-08
6.52927e-08
5.61892e-08
4.85997e-08
6.65571e-08
5.49764e-08
4.67737e-08
3.99218e-08
5.59338e-08
4.58156e-08
3.85298e-08
3.24582e-08
4.65018e-08
3.77406e-08
3.13633e-08
2.60831e-08
3.82253e-08
3.07058e-08
2.51938e-08
2.06807e-08
3.10717e-08
2.46729e-08
1.99628e-08
1.61624e-08
2.49684e-08
1.95679e-08
1.55871e-08
1.24299e-08
1.98175e-08
1.52982e-08
1.19688e-08
9.38223e-09
1.55369e-08
1.17817e-08
9.02295e-09
6.93041e-09
1.20389e-08
8.94031e-09
6.67185e-09
4.99573e-09
9.2202e-09
6.68058e-09
4.82729e-09
3.49743e-09
9.47455e-09
6.98496e-09
4.91363e-09
3.40704e-09
2.36127e-09
7.27694e-09
5.24671e-09
3.56167e-09
2.34262e-09
1.52438e-09
5.56638e-09
3.91432e-09
2.5505e-09
1.56712e-09
9.29548e-10
4.25619e-09
2.91516e-09
1.813e-09
1.01948e-09
5.22968e-10
3.26778e-09
2.18129e-09
1.29138e-09
6.50351e-10
2.63154e-10
2.53478e-09
1.6559e-09
9.37551e-10
4.17954e-10
1.14007e-10
1.99806e-09
1.28755e-09
7.07102e-10
2.8415e-10
4.44299e-11
1.60998e-09
1.03583e-09
5.66095e-10
2.20082e-10
2.98376e-11
1.33225e-09
8.68474e-10
4.87619e-10
2.03045e-10
5.11123e-11
1.13415e-09
7.59698e-10
4.50398e-10
2.15296e-10
9.34106e-11
9.91867e-10
6.90028e-10
4.38674e-10
2.43642e-10
1.45838e-10
8.88019e-10
6.45232e-10
4.40867e-10
2.78632e-10
2.00775e-10
8.09507e-10
6.14775e-10
4.48737e-10
3.13592e-10
2.52267e-10
7.46631e-10
5.91222e-10
4.56418e-10
3.43808e-10
2.96474e-10
8.28461e-10
6.92763e-10
5.68812e-10
4.60047e-10
3.66717e-10
3.31321e-10
7.4954e-10
6.43396e-10
5.45029e-10
4.5735e-10
3.80441e-10
3.55685e-10
6.78004e-10
5.95207e-10
5.17992e-10
4.48014e-10
3.85376e-10
3.69582e-10
6.11608e-10
5.48137e-10
4.88191e-10
4.32748e-10
3.82095e-10
3.73623e-10
5.50153e-10
5.01867e-10
4.56011e-10
4.12719e-10
3.72352e-10
3.69736e-10
4.92744e-10
4.57041e-10
4.22686e-10
3.89408e-10
3.57783e-10
3.59891e-10
4.39843e-10
4.13821e-10
3.88636e-10
3.63724e-10
3.39602e-10
3.4561e-10
3.90469e-10
3.72329e-10
3.547e-10
3.36563e-10
3.18638e-10
3.2753e-10
3.44442e-10
3.32307e-10
3.20642e-10
3.08015e-10
2.95347e-10
3.06425e-10
3.0776e-10
3.00327e-10
2.92481e-10
2.85729e-10
2.77845e-10
2.69651e-10
2.82523e-10
2.62888e-10
2.58406e-10
2.53866e-10
2.50472e-10
2.46281e-10
2.42144e-10
2.56169e-10
2.22174e-10
2.19413e-10
2.16917e-10
2.15874e-10
2.1446e-10
2.13411e-10
2.27946e-10
1.86656e-10
1.84941e-10
1.83684e-10
1.83978e-10
1.84208e-10
1.85182e-10
1.99595e-10
1.56511e-10
1.55559e-10
1.55034e-10
1.55977e-10
1.57008e-10
1.59131e-10
1.72706e-10
1.30339e-10
1.3016e-10
1.30212e-10
1.31578e-10
1.3317e-10
1.36013e-10
1.48885e-10
1.06473e-10
1.06865e-10
1.07335e-10
1.0886e-10
1.10708e-10
1.13972e-10
1.25999e-10
8.96755e-11
9.05257e-11
9.13622e-11
9.28669e-11
9.43704e-11
9.74299e-11
1.07545e-10
7.80547e-11
7.93371e-11
8.05245e-11
8.21226e-11
8.33788e-11
8.58788e-11
9.43912e-11
6.63769e-11
6.78961e-11
6.94179e-11
7.12517e-11
7.26675e-11
7.4809e-11
8.17956e-11
5.34107e-11
5.50469e-11
5.66584e-11
5.85095e-11
6.05762e-11
6.23242e-11
6.44139e-11
7.01229e-11
4.22904e-11
4.37982e-11
4.54749e-11
4.73628e-11
4.95335e-11
5.15886e-11
5.37133e-11
5.80286e-11
2.91846e-11
3.05209e-11
3.22167e-11
3.43025e-11
3.68442e-11
3.95818e-11
4.25839e-11
4.76401e-11
1.65318e-11
1.71153e-11
1.80632e-11
1.94216e-11
2.13076e-11
2.35826e-11
2.60025e-11
2.90487e-11
1.04957e-11
1.21583e-11
1.42676e-11
1.68236e-11
1.99121e-11
2.33176e-11
2.72475e-11
3.39883e-11
4.25077e-12
4.5612e-12
4.88383e-12
5.32634e-12
6.20506e-12
8.26586e-12
1.26292e-11
1.89374e-11
1.12194e-10
1.20653e-10
1.28358e-10
1.35384e-10
1.42591e-10
1.5113e-10
1.72087e-10
1.92569e-10
2.8456e-10
2.81184e-10
2.77366e-10
2.73784e-10
2.71271e-10
2.7311e-10
2.86871e-10
2.6299e-10
1.23776e-09
1.22653e-09
1.21368e-09
1.19958e-09
1.18267e-09
1.16638e-09
1.14046e-09
9.7475e-10
11.9457
0.330475
0.0821144
0.00730732
0.000213047
2.80779e-06
3.28452e-08
1.49999e-08
3.278e-07
3.70578e-07
3.56626e-07
3.12148e-07
2.89399e-07
2.63266e-07
2.405e-07
2.17697e-07
1.96187e-07
1.75562e-07
1.5607e-07
1.37926e-07
1.21006e-07
1.05443e-07
9.11763e-08
7.82514e-08
6.6636e-08
5.62258e-08
4.70288e-08
3.89679e-08
3.19613e-08
2.59272e-08
2.07816e-08
1.64385e-08
1.2815e-08
9.82611e-09
7.39223e-09
5.43955e-09
3.9002e-09
2.7095e-09
1.80969e-09
1.14908e-09
6.81111e-10
3.64387e-10
1.66368e-10
5.77567e-11
1.44937e-11
1.65879e-11
4.79211e-11
9.62167e-11
1.52806e-10
2.1112e-10
2.65408e-10
3.12184e-10
3.49527e-10
3.76533e-10
3.92699e-10
3.9859e-10
3.96018e-10
3.87109e-10
3.73285e-10
3.55385e-10
3.33871e-10
3.08999e-10
2.81211e-10
2.51048e-10
2.20473e-10
1.91098e-10
1.64806e-10
1.40235e-10
1.19965e-10
1.04753e-10
9.02466e-11
7.72599e-11
6.36254e-11
5.31483e-11
3.23185e-11
4.11985e-11
1.74119e-11
1.96122e-10
1.87167e-10
8.03283e-10
0.0773741
0.0157343
0.00186878
0.000123933
2.21242e-05
8.17465e-10
1.66127e-09
2.82003e-07
3.75025e-07
3.20256e-07
2.89138e-07
2.58972e-07
2.35898e-07
2.12672e-07
1.91601e-07
1.71574e-07
1.53074e-07
1.35807e-07
1.19886e-07
1.05279e-07
9.19351e-08
7.98543e-08
6.89102e-08
5.90998e-08
5.03409e-08
4.25651e-08
3.57239e-08
2.97285e-08
2.45026e-08
1.99938e-08
1.61407e-08
1.28788e-08
1.01401e-08
7.86496e-09
6.00111e-09
4.49271e-09
3.29002e-09
2.34905e-09
1.62853e-09
1.09035e-09
7.00884e-10
4.31297e-10
2.56736e-10
1.55233e-10
1.0888e-10
1.01675e-10
1.20196e-10
1.5479e-10
1.98608e-10
2.45561e-10
2.90131e-10
3.28947e-10
3.60368e-10
3.83225e-10
3.96553e-10
4.00684e-10
3.97125e-10
3.87786e-10
3.73974e-10
3.56387e-10
3.35379e-10
3.11051e-10
2.83656e-10
2.53739e-10
2.23322e-10
1.93828e-10
1.6701e-10
1.42001e-10
1.21525e-10
1.05965e-10
9.10489e-11
7.79084e-11
6.39717e-11
5.37781e-11
3.21109e-11
4.47922e-11
1.17583e-11
2.04622e-10
1.62724e-10
8.59774e-10
1.01109e-05
0.000379093
2.61288e-05
3.2722e-08
0
1.90767e-10
8.62851e-08
3.79895e-07
2.60716e-07
2.282e-07
2.05558e-07
1.85251e-07
1.66586e-07
1.49367e-07
1.33597e-07
1.19131e-07
1.05886e-07
9.37324e-08
8.26294e-08
7.25489e-08
6.3441e-08
5.52304e-08
4.78228e-08
4.11923e-08
3.52902e-08
3.00612e-08
2.54382e-08
2.13575e-08
1.77787e-08
1.46752e-08
1.20072e-08
9.72746e-09
7.79179e-09
6.16677e-09
4.81903e-09
3.71147e-09
2.81352e-09
2.09842e-09
1.539e-09
1.10969e-09
7.89696e-10
5.60095e-10
4.02926e-10
3.03219e-10
2.48489e-10
2.2619e-10
2.25969e-10
2.41143e-10
2.66562e-10
2.9658e-10
3.26148e-10
3.52458e-10
3.74083e-10
3.89652e-10
3.97809e-10
3.98549e-10
3.93115e-10
3.82872e-10
3.6893e-10
3.51804e-10
3.31417e-10
3.07821e-10
2.81304e-10
2.52246e-10
2.22693e-10
1.93918e-10
1.67448e-10
1.43149e-10
1.23531e-10
1.08214e-10
9.34498e-11
8.05215e-11
6.66336e-11
5.67143e-11
3.53555e-11
4.95569e-11
1.19101e-11
2.04909e-10
1.51601e-10
8.59275e-10
6.59589e-06
1.15764e-07
0
0
2.80431e-11
1.62919e-08
2.22904e-07
1.84865e-07
1.3481e-07
1.26572e-07
1.15449e-07
1.04961e-07
9.5314e-08
8.64573e-08
7.82555e-08
7.06672e-08
6.35827e-08
5.69894e-08
5.08913e-08
4.52861e-08
4.0149e-08
3.54324e-08
3.11197e-08
2.7204e-08
2.36754e-08
2.04961e-08
1.76279e-08
1.50475e-08
1.27503e-08
1.07299e-08
8.96484e-09
7.42841e-09
6.09897e-09
4.96323e-09
4.00182e-09
3.19412e-09
2.52383e-09
1.97718e-09
1.53655e-09
1.1871e-09
9.17176e-10
7.14499e-10
5.66459e-10
4.63861e-10
3.97968e-10
3.58823e-10
3.39031e-10
3.34498e-10
3.41145e-10
3.53631e-10
3.67481e-10
3.80527e-10
3.91597e-10
3.98972e-10
4.01007e-10
3.97479e-10
3.89254e-10
3.77467e-10
3.62842e-10
3.45555e-10
3.25433e-10
3.02421e-10
2.76709e-10
2.48731e-10
2.20405e-10
1.92752e-10
1.67291e-10
1.44259e-10
1.25808e-10
1.11042e-10
9.66946e-11
8.40002e-11
7.02105e-11
6.06916e-11
4.01249e-11
5.4966e-11
1.48168e-11
2.02128e-10
1.43086e-10
8.34017e-10
0
0
0
1.03927e-12
6.7308e-10
1.15625e-07
1.2233e-07
7.94454e-08
7.0747e-08
6.69293e-08
6.0834e-08
5.5475e-08
5.06852e-08
4.63088e-08
4.23035e-08
3.86029e-08
3.51663e-08
3.19864e-08
2.90491e-08
2.63325e-08
2.38076e-08
2.14514e-08
1.92598e-08
1.72319e-08
1.53579e-08
1.36147e-08
1.19893e-08
1.04848e-08
9.11141e-09
7.87256e-09
6.75894e-09
5.76069e-09
4.87291e-09
4.09428e-09
3.41605e-09
2.8296e-09
2.32913e-09
1.90865e-09
1.55774e-09
1.26964e-09
1.03857e-09
8.56423e-10
7.15316e-10
6.10337e-10
5.3503e-10
4.81623e-10
4.45499e-10
4.24528e-10
4.15163e-10
4.12307e-10
4.12226e-10
4.13412e-10
4.14736e-10
4.14168e-10
4.09867e-10
4.0158e-10
3.90015e-10
3.75881e-10
3.59807e-10
3.41663e-10
3.21019e-10
2.97957e-10
2.72718e-10
2.4557e-10
2.1834e-10
1.91795e-10
1.67278e-10
1.45431e-10
1.27969e-10
1.13565e-10
9.93497e-11
8.65773e-11
7.26718e-11
6.36673e-11
4.39868e-11
5.95432e-11
1.72166e-11
2.00661e-10
1.38151e-10
8.20102e-10
0
0
5.2152e-16
2.51399e-13
4.35561e-08
7.92268e-08
5.03376e-08
4.0951e-08
4.06636e-08
3.83534e-08
3.54174e-08
3.28471e-08
3.03729e-08
2.79927e-08
2.57436e-08
2.36204e-08
2.16391e-08
1.98077e-08
1.81236e-08
1.65652e-08
1.51202e-08
1.37777e-08
1.25376e-08
1.13916e-08
1.03218e-08
9.31269e-09
8.35813e-09
7.46472e-09
6.63816e-09
5.87843e-09
5.17877e-09
4.53506e-09
3.94816e-09
3.41913e-09
2.94472e-09
2.52258e-09
2.15247e-09
1.83136e-09
1.55425e-09
1.31911e-09
1.12343e-09
9.61936e-10
8.30784e-10
7.27755e-10
6.47817e-10
5.85315e-10
5.38161e-10
5.05484e-10
4.83914e-10
4.68865e-10
4.57562e-10
4.49078e-10
4.42177e-10
4.34524e-10
4.24346e-10
4.11443e-10
3.9638e-10
3.79774e-10
3.61841e-10
3.42145e-10
3.20529e-10
2.969e-10
2.71571e-10
2.44859e-10
2.18448e-10
1.9255e-10
1.68633e-10
1.47631e-10
1.30817e-10
1.16533e-10
1.02141e-10
8.88505e-11
7.45213e-11
6.58728e-11
4.69661e-11
6.30967e-11
1.86076e-11
1.9959e-10
0
2.98414e-15
1.59548e-12
1.47477e-08
3.86215e-08
2.78107e-08
2.06256e-08
2.0999e-08
2.1269e-08
2.03706e-08
1.95376e-08
1.8761e-08
1.78878e-08
1.69561e-08
1.59893e-08
1.50115e-08
1.40386e-08
1.30823e-08
1.21557e-08
1.12587e-08
1.03995e-08
9.58279e-09
8.81544e-09
8.09752e-09
7.41745e-09
6.76811e-09
6.1524e-09
5.57647e-09
5.04143e-09
4.54486e-09
4.08174e-09
3.65001e-09
3.25045e-09
2.88313e-09
2.54688e-09
2.24168e-09
1.96825e-09
1.72459e-09
1.50861e-09
1.3204e-09
1.15865e-09
1.02013e-09
9.03647e-10
8.08153e-10
7.29542e-10
6.64283e-10
6.12163e-10
5.72916e-10
5.43291e-10
5.19506e-10
4.99922e-10
4.84166e-10
4.70778e-10
4.57264e-10
4.42053e-10
4.25174e-10
4.07105e-10
3.88167e-10
3.68315e-10
3.47139e-10
3.24169e-10
2.99688e-10
2.73983e-10
2.47362e-10
2.21351e-10
1.95745e-10
1.71994e-10
1.5161e-10
1.3529e-10
1.20844e-10
1.05962e-10
9.19845e-11
7.70784e-11
6.85168e-11
5.00497e-11
6.62034e-11
1.30918e-13
3.90457e-11
1.0237e-08
2.51486e-08
2.01575e-08
1.31233e-08
1.23122e-08
1.2796e-08
1.24807e-08
1.19043e-08
1.14582e-08
1.10347e-08
1.06044e-08
1.01865e-08
9.77532e-09
9.37222e-09
8.96885e-09
8.55656e-09
8.13302e-09
7.69642e-09
7.25199e-09
6.80537e-09
6.35984e-09
5.91987e-09
5.4869e-09
5.06283e-09
4.65557e-09
4.27131e-09
3.91113e-09
3.57374e-09
3.25674e-09
2.959e-09
2.68123e-09
2.42291e-09
2.18336e-09
1.96319e-09
1.7625e-09
1.57995e-09
1.41512e-09
1.26892e-09
1.14014e-09
1.02703e-09
9.29644e-10
8.47156e-10
7.76116e-10
7.14789e-10
6.64045e-10
6.23645e-10
5.90445e-10
5.61813e-10
5.37222e-10
5.16681e-10
4.98596e-10
4.8059e-10
4.61494e-10
4.41439e-10
4.20886e-10
4.00011e-10
3.7847e-10
3.55616e-10
3.31349e-10
3.05771e-10
2.79399e-10
2.52661e-10
2.26717e-10
2.01013e-10
1.77278e-10
1.57363e-10
1.41256e-10
1.26488e-10
1.11053e-10
9.63548e-11
8.0791e-11
7.21233e-11
3.14013e-10
2.04234e-08
3.29104e-08
2.2603e-08
1.57332e-08
1.2571e-08
1.20007e-08
1.12544e-08
1.0343e-08
9.59154e-09
8.94958e-09
8.34644e-09
7.80314e-09
7.32973e-09
6.9163e-09
6.55131e-09
6.22677e-09
5.9334e-09
5.65967e-09
5.39774e-09
5.14175e-09
4.88711e-09
4.62841e-09
4.36057e-09
4.08857e-09
3.81568e-09
3.54623e-09
3.28592e-09
3.03793e-09
2.80279e-09
2.58065e-09
2.37213e-09
2.1775e-09
1.99584e-09
1.8276e-09
1.67236e-09
1.52934e-09
1.3976e-09
1.27764e-09
1.16985e-09
1.07332e-09
9.87365e-10
9.12378e-10
8.47173e-10
7.89028e-10
7.37512e-10
6.93785e-10
6.57253e-10
6.25077e-10
5.9573e-10
5.69582e-10
5.46861e-10
5.25975e-10
5.04935e-10
4.82972e-10
4.60544e-10
4.38076e-10
4.15387e-10
3.92121e-10
3.67602e-10
3.41715e-10
3.14909e-10
2.8768e-10
2.60259e-10
2.34065e-10
2.08038e-10
1.83903e-10
1.64196e-10
1.48313e-10
1.32995e-10
1.16917e-10
5.12179e-08
1.00019e-07
4.53306e-08
1.9869e-08
1.75676e-08
1.81442e-08
1.63895e-08
1.3784e-08
1.18104e-08
1.0465e-08
9.37153e-09
8.39791e-09
7.55002e-09
6.8249e-09
6.19959e-09
5.65705e-09
5.18601e-09
4.7809e-09
4.4312e-09
4.12702e-09
3.85974e-09
3.62116e-09
3.403e-09
3.19651e-09
2.99924e-09
2.80963e-09
2.62678e-09
2.45243e-09
2.28604e-09
2.1277e-09
1.97795e-09
1.83775e-09
1.70789e-09
1.58748e-09
1.47683e-09
1.37467e-09
1.28022e-09
1.19266e-09
1.11282e-09
1.04064e-09
9.75538e-10
9.17042e-10
8.65334e-10
8.19412e-10
7.7731e-10
7.39244e-10
7.06242e-10
6.77246e-10
6.49763e-10
6.23282e-10
5.9865e-10
5.76124e-10
5.54109e-10
5.31326e-10
5.07739e-10
4.83721e-10
4.59513e-10
4.35178e-10
4.1003e-10
3.8368e-10
3.56054e-10
3.27416e-10
2.98579e-10
2.7024e-10
2.4324e-10
2.16429e-10
2.39578e-09
6.67674e-08
5.18618e-08
1.85451e-08
1.5049e-08
1.73897e-08
1.75986e-08
1.55006e-08
1.31555e-08
1.13846e-08
1.00377e-08
8.89618e-09
7.8724e-09
6.96825e-09
6.17235e-09
5.46924e-09
4.85023e-09
4.3109e-09
3.84448e-09
3.44228e-09
3.09847e-09
2.80406e-09
2.55139e-09
2.33273e-09
2.14306e-09
1.97642e-09
1.83057e-09
1.70326e-09
1.59033e-09
1.48915e-09
1.39948e-09
1.32029e-09
1.24978e-09
1.18612e-09
1.12932e-09
1.07709e-09
1.02862e-09
9.83169e-10
9.41695e-10
9.03557e-10
8.68193e-10
8.35793e-10
8.07802e-10
7.81547e-10
7.56128e-10
7.32648e-10
7.11635e-10
6.91621e-10
6.70772e-10
6.49202e-10
6.27983e-10
6.06968e-10
5.85181e-10
5.61763e-10
5.36498e-10
5.11031e-10
4.85455e-10
4.59317e-10
4.32423e-10
4.03888e-10
3.74049e-10
1.27469e-17
8.66471e-16
3.74757e-08
1.62411e-08
8.13553e-09
6.97613e-09
8.16083e-09
9.07549e-09
8.73135e-09
7.86782e-09
7.1215e-09
6.52002e-09
5.93253e-09
5.34583e-09
4.78801e-09
4.26468e-09
3.77882e-09
3.33325e-09
2.93321e-09
2.57884e-09
2.26893e-09
1.99952e-09
1.76798e-09
1.57108e-09
1.40467e-09
1.26455e-09
1.14818e-09
1.05336e-09
9.77337e-10
9.18269e-10
8.7403e-10
8.42101e-10
8.2073e-10
8.07774e-10
8.00644e-10
7.96093e-10
7.92738e-10
7.89645e-10
7.8644e-10
7.81902e-10
7.77292e-10
7.72116e-10
7.63299e-10
7.54278e-10
7.44632e-10
7.34387e-10
7.24146e-10
7.12362e-10
6.97701e-10
6.80803e-10
6.62796e-10
6.43831e-10
6.21614e-10
5.96829e-10
3.57313e-07
2.71233e-11
8.85959e-09
1.93838e-08
8.19879e-09
2.4672e-09
1.56241e-09
2.06483e-09
2.73474e-09
2.93491e-09
2.88444e-09
2.84333e-09
2.78165e-09
2.65593e-09
2.47744e-09
2.27072e-09
2.04809e-09
1.82132e-09
1.60209e-09
1.39758e-09
1.21177e-09
1.04717e-09
9.04804e-10
7.84923e-10
6.8648e-10
6.07756e-10
5.46773e-10
5.02465e-10
4.7429e-10
4.61455e-10
4.61114e-10
4.72053e-10
4.92245e-10
5.20023e-10
5.52309e-10
5.86727e-10
6.20911e-10
6.53147e-10
6.83391e-10
7.11953e-10
7.29776e-10
7.45983e-10
)
;

boundaryField
{
    inlet
    {
        type            calculated;
        value           nonuniform List<scalar> 
13
(
1.27885e-08
1.29604e-08
1.30896e-08
1.31857e-08
1.32687e-08
1.33486e-08
1.35047e-08
1.34155e-08
1.29268e-08
1.26395e-08
1.22871e-08
1.19486e-08
1.16462e-08
)
;
    }
    outlet
    {
        type            calculated;
        value           nonuniform List<scalar> 0();
    }
    walls
    {
        type            calculated;
        value           uniform 0;
    }
    frontAndBack
    {
        type            empty;
    }
    procBoundary2to1
    {
        type            processor;
        value           nonuniform List<scalar> 
84
(
1212.85
1.38395
0.103234
0.000223701
3.6177e-05
6.66237e-13
5.44153e-07
5.26769e-07
6.06977e-07
4.59601e-07
4.7577e-07
4.32559e-07
4.1771e-07
3.91584e-07
3.69765e-07
3.45575e-07
3.21564e-07
2.97415e-07
2.73765e-07
2.50633e-07
2.27951e-07
2.05775e-07
1.84398e-07
1.64122e-07
1.44963e-07
1.26923e-07
1.10138e-07
9.47659e-08
8.08241e-08
6.82954e-08
5.71291e-08
4.72974e-08
3.87568e-08
3.14346e-08
2.5222e-08
2.00276e-08
1.57493e-08
1.22682e-08
1.22682e-08
1.23117e-08
9.58357e-09
7.44074e-09
5.77669e-09
4.49894e-09
3.52977e-09
2.80122e-09
2.25809e-09
1.85439e-09
1.5539e-09
1.32857e-09
1.1574e-09
1.02424e-09
9.1778e-10
9.1778e-10
9.69566e-10
8.5986e-10
7.63342e-10
6.76454e-10
5.98576e-10
5.28079e-10
4.64867e-10
4.07782e-10
3.55847e-10
3.55847e-10
3.15134e-10
2.67882e-10
2.25668e-10
1.89145e-10
1.58023e-10
1.30825e-10
1.06187e-10
8.88625e-11
7.67759e-11
6.47182e-11
6.47182e-11
5.18598e-11
4.09438e-11
2.81989e-11
1.62734e-11
9.26296e-12
3.96378e-12
1.02952e-10
2.87015e-10
1.24632e-09
)
;
    }
    procBoundary2to3
    {
        type            processor;
        value           nonuniform List<scalar> 
88
(
1.34318e-10
8.12076e-10
1.97763e-11
1.34318e-10
1.98266e-10
5.37467e-11
1.97763e-11
6.93608e-11
1.01551e-10
8.54997e-11
5.37467e-11
7.65928e-11
1.91745e-10
1.72135e-10
1.56086e-10
1.40159e-10
1.01551e-10
1.23461e-10
3.43656e-10
3.12841e-10
2.82709e-10
2.54749e-10
1.91745e-10
2.26872e-10
5.71952e-10
5.44763e-10
5.17134e-10
4.88729e-10
4.59479e-10
4.29043e-10
3.43656e-10
3.9683e-10
7.6353e-10
7.69128e-10
7.71688e-10
7.71767e-10
7.68502e-10
7.61362e-10
7.49342e-10
7.3415e-10
7.15873e-10
6.95846e-10
6.72762e-10
5.71952e-10
6.44638e-10
1.57693e-05
1.90064e-06
9.24714e-11
1.15505e-08
1.98569e-08
1.18253e-08
4.63101e-09
2.53962e-09
2.14898e-09
1.95399e-09
1.61785e-09
1.30148e-09
1.09366e-09
9.33067e-10
7.92441e-10
6.68039e-10
5.57779e-10
4.61243e-10
3.77546e-10
3.06453e-10
2.47443e-10
2.00612e-10
1.65771e-10
1.42583e-10
1.30698e-10
1.29505e-10
1.3812e-10
1.55887e-10
1.82292e-10
2.16905e-10
2.58742e-10
3.07198e-10
3.6076e-10
4.18171e-10
4.76663e-10
5.34643e-10
5.91207e-10
6.4645e-10
6.95021e-10
7.39719e-10
7.78568e-10
7.6353e-10
8.02377e-10
)
;
    }
    procBoundary2to6
    {
        type            processor;
        value           nonuniform List<scalar> 
13
(
115.749
4.63313
0.0294832
0.000186176
0.000216699
6.88227e-06
0
0
6.8055e-13
9.17923e-11
3.14721e-12
3.84121e-09
5.06373e-06
)
;
    }
}


// ************************************************************************* //
