/*--------------------------------*- C++ -*----------------------------------*\
| =========                 |                                                 |
| \\      /  F ield         | OpenFOAM: The Open Source CFD Toolbox           |
|  \\    /   O peration     | Version:  2306                                  |
|   \\  /    A nd           | Website:  www.openfoam.com                      |
|    \\/     M anipulation  |                                                 |
\*---------------------------------------------------------------------------*/
FoamFile
{
    version     2.0;
    format      ascii;
    arch        "LSB;label=32;scalar=64";
    class       volSymmTensorField;
    location    "75";
    object      turbulenceProperties:R;
}
// * * * * * * * * * * * * * * * * * * * * * * * * * * * * * * * * * * * * * //

dimensions      [0 2 -2 0 0 0 0];

internalField   nonuniform List<symmTensor> 
1340
(
(32.1042 15.7501 1.23547e-15 40.0494 -3.81339e-17 36.1361)
(30.6178 15.1229 1.73166e-15 39.2294 1.02311e-16 34.9799)
(29.2377 14.5267 -3.18806e-16 38.4656 -8.54183e-17 33.9098)
(26.1944 13.1065 -6.01614e-15 35.8782 -1.10418e-15 31.0761)
(0.941193 0.457226 -5.88943e-16 1.2154 7.98275e-17 1.03735)
(0.979263 0.479174 -1.55005e-15 1.29414 3.88212e-16 1.09866)
(1.05609 0.516102 -2.67135e-15 1.40081 -6.45244e-16 1.18314)
(1.19541 0.594741 -1.77472e-15 1.62617 -6.42363e-16 1.39644)
(0.256831 0.123381 2.29405e-16 0.300529 1.70802e-16 0.277992)
(0.339517 0.164846 -1.15343e-15 0.410983 -7.91537e-16 0.374024)
(0.380171 0.183314 3.44924e-15 0.449639 4.70976e-16 0.414038)
(0.649549 0.321345 5.5391e-15 0.840967 9.65029e-16 0.744786)
(0.0121379 0.00520624 -2.18808e-16 0.0109415 -1.06846e-17 0.0119807)
(0.0333017 0.0149975 9.0367e-16 0.032731 1.12138e-16 0.034382)
(0.0618383 0.0275953 -5.83027e-16 0.0600173 -1.82757e-17 0.0625183)
(0.201235 0.0959152 -6.66968e-16 0.22572 1.34922e-16 0.218555)
(0.000352376 -9.22454e-05 -1.25927e-18 0.000191906 -2.36588e-18 0.000291253)
(0.000921999 -0.000197905 -2.02726e-17 0.000445215 1.29747e-17 0.00070296)
(0.00147312 -0.000142918 5.32907e-17 0.000609734 9.84096e-18 0.000978133)
(0.016832 0.00634923 -2.25075e-16 0.0127265 -5.20669e-17 0.0149399)
(4.12439e-05 -8.75711e-06 8.32521e-19 3.88314e-05 1.6827e-19 3.4433e-05)
(0.000167884 -4.61964e-05 -1.11171e-17 0.000114853 -3.20051e-18 0.000116748)
(0.000395642 -8.18779e-05 -1.47615e-17 0.000207946 -8.34896e-19 0.000265273)
(0.000579551 4.78936e-05 3.86591e-18 0.000229391 -6.70633e-19 0.000404057)
(1.31443e-05 -4.93869e-07 -3.81851e-20 1.17784e-05 -2.66958e-21 1.27574e-05)
(1.14305e-06 -3.82556e-09 6.59754e-22 1.12995e-06 -9.96022e-24 1.13887e-06)
(3.20535e-07 -2.66965e-10 3.73653e-24 3.19437e-07 -5.19266e-24 3.20092e-07)
(0.000164568 1.77363e-07 3.63055e-18 7.28266e-05 6.59773e-19 0.000129141)
(1.56554e-05 -1.66319e-06 1.35234e-19 1.46098e-05 -6.27154e-22 1.4462e-05)
(1.25083e-05 -1.05374e-06 -5.74943e-20 1.12669e-05 1.08263e-20 1.14395e-05)
(4.30027e-06 -9.84535e-08 1.62187e-21 4.07833e-06 2.20339e-22 4.14052e-06)
(5.39781e-07 2.25411e-11 -1.62853e-23 5.35044e-07 9.96594e-24 5.37155e-07)
(1.96197e-05 -1.64086e-06 -7.12177e-21 1.63301e-05 1.26621e-20 1.83666e-05)
(1.91686e-05 -1.28963e-06 4.49033e-20 1.55276e-05 -2.59961e-20 1.7727e-05)
(2.21611e-05 -1.20291e-06 2.35092e-20 1.72914e-05 2.0163e-20 1.99607e-05)
(1.11342e-05 3.97902e-08 -4.77596e-21 9.74925e-06 -1.587e-21 1.05517e-05)
(1.61869e-05 -1.6744e-06 4.57978e-20 1.42197e-05 4.68381e-21 1.49834e-05)
(1.53208e-05 -1.32217e-06 2.28128e-19 1.29006e-05 5.84968e-20 1.39319e-05)
(1.77332e-05 -1.16243e-06 -1.96442e-19 1.42076e-05 -4.69975e-20 1.57202e-05)
(1.88926e-05 6.10137e-08 9.90243e-20 1.46359e-05 1.34267e-20 1.6812e-05)
(1.6861e-05 -1.58607e-06 -1.11839e-21 1.43804e-05 1.3283e-20 1.57063e-05)
(1.64263e-05 -1.2531e-06 -2.725e-19 1.34967e-05 -2.71149e-20 1.50619e-05)
(1.76382e-05 -9.70773e-07 2.98943e-19 1.40567e-05 4.01884e-20 1.58592e-05)
(2.01761e-05 8.37741e-08 1.15377e-19 1.54921e-05 2.3655e-20 1.80377e-05)
(1.58201e-05 -1.57333e-06 -9.55394e-20 1.37029e-05 -2.03134e-20 1.47048e-05)
(1.53031e-05 -1.24442e-06 1.73042e-19 1.26966e-05 1.61619e-20 1.39701e-05)
(1.63267e-05 -9.35936e-07 -1.70696e-19 1.30612e-05 -5.53739e-21 1.46147e-05)
(1.82747e-05 5.28425e-08 -2.09474e-19 1.40878e-05 -2.85388e-20 1.6297e-05)
(1.56391e-05 -1.52627e-06 1.10914e-19 1.34668e-05 1.05002e-20 1.45662e-05)
(1.51706e-05 -1.19731e-06 -2.43837e-19 1.2526e-05 -2.87122e-20 1.38788e-05)
(1.60173e-05 -8.82562e-07 -1.16755e-20 1.27635e-05 -1.21829e-20 1.43655e-05)
(1.74404e-05 4.15346e-08 -2.94425e-19 1.34598e-05 -5.0992e-20 1.55704e-05)
(1.50627e-05 -1.49556e-06 -8.51914e-20 1.30346e-05 -2.19522e-21 1.40322e-05)
(1.45602e-05 -1.168e-06 1.66434e-19 1.20548e-05 7.79038e-22 1.33093e-05)
(1.52417e-05 -8.41294e-07 2.9322e-20 1.2148e-05 -1.11776e-21 1.36564e-05)
(1.64049e-05 2.45401e-08 1.88989e-19 1.266e-05 2.64317e-20 1.46237e-05)
(1.4634e-05 -1.45514e-06 2.09582e-20 1.26674e-05 -4.33119e-21 1.36482e-05)
(1.41412e-05 -1.131e-06 6.48393e-20 1.17019e-05 2.3902e-20 1.29339e-05)
(1.465e-05 -7.96712e-07 1.21917e-19 1.16641e-05 2.41038e-20 1.31334e-05)
(1.55467e-05 1.12994e-08 -9.98031e-20 1.19971e-05 -1.32184e-20 1.38528e-05)
(1.41091e-05 -1.41522e-06 9.58432e-21 1.22442e-05 2.53963e-21 1.31696e-05)
(1.36102e-05 -1.09532e-06 -1.03609e-19 1.12742e-05 -1.19344e-20 1.24489e-05)
(1.39748e-05 -7.55641e-07 -1.75284e-19 1.11228e-05 -1.82619e-20 1.25274e-05)
(1.4665e-05 -8.09931e-10 -8.89853e-20 1.13169e-05 -1.3726e-20 1.30584e-05)
(1.3586e-05 -1.37084e-06 -2.59103e-21 1.18107e-05 -1.54875e-21 1.26946e-05)
(1.30883e-05 -1.0564e-06 5.17822e-20 1.08473e-05 7.37892e-21 1.1976e-05)
(1.33244e-05 -7.14723e-07 -6.02856e-20 1.05999e-05 -1.64809e-20 1.19471e-05)
(1.38222e-05 -1.07046e-08 2.41627e-19 1.06671e-05 3.56083e-20 1.23026e-05)
(1.30337e-05 -1.3253e-06 4.10825e-20 1.13572e-05 9.26079e-21 1.21916e-05)
(1.25337e-05 -1.01719e-06 -1.55638e-19 1.03974e-05 -1.89077e-20 1.14724e-05)
(1.26575e-05 -6.75825e-07 1.06562e-19 1.00668e-05 1.15885e-20 1.13505e-05)
(1.29907e-05 -1.89468e-08 -1.86615e-19 1.00262e-05 -2.58171e-20 1.15572e-05)
(1.24747e-05 -1.27853e-06 -1.21316e-19 1.08966e-05 -1.42187e-20 1.16828e-05)
(1.19743e-05 -9.77915e-07 4.56512e-20 9.9438e-06 -3.49446e-21 1.09656e-05)
(1.19988e-05 -6.39596e-07 7.80443e-20 9.54217e-06 1.44202e-20 1.07622e-05)
(1.21796e-05 -2.70129e-08 2.98836e-19 9.40117e-06 4.24671e-20 1.08307e-05)
(1.19047e-05 -1.23088e-06 6.352e-20 1.04275e-05 2.98306e-21 1.11637e-05)
(1.14055e-05 -9.38917e-07 1.16947e-19 9.4841e-06 1.84167e-20 1.04507e-05)
(1.13473e-05 -6.06008e-07 -8.21636e-20 9.02525e-06 -9.06304e-21 1.01807e-05)
(1.14005e-05 -3.47358e-08 -1.83644e-19 8.80068e-06 -2.67236e-20 1.01342e-05)
(1.1322e-05 -1.18156e-06 -1.76316e-20 9.94707e-06 7.62404e-23 1.06325e-05)
(1.0826e-05 -8.99398e-07 -9.44161e-20 9.01632e-06 -8.60702e-21 9.92649e-06)
(1.06988e-05 -5.74087e-07 -3.95923e-20 8.51205e-06 -7.08709e-21 9.60201e-06)
(1.06449e-05 -4.23296e-08 3.81218e-20 8.21837e-06 6.01062e-21 9.45949e-06)
(1.07248e-05 -1.1302e-06 5.31744e-21 9.4534e-06 -5.46009e-22 1.00874e-05)
(1.02349e-05 -8.58938e-07 1.63486e-20 8.53913e-06 -3.28174e-22 9.39178e-06)
(1.0052e-05 -5.43386e-07 5.34415e-20 8.00134e-06 6.15795e-21 9.02478e-06)
(9.91207e-06 -4.89911e-08 -2.98979e-22 7.65365e-06 -7.27285e-22 8.80589e-06)
(1.01191e-05 -1.07744e-06 3.47845e-20 8.9518e-06 4.53798e-21 9.53394e-06)
(9.63636e-06 -8.17967e-07 3.39922e-21 8.05628e-06 1.10219e-21 8.85049e-06)
(9.40912e-06 -5.1358e-07 6.68331e-20 7.49447e-06 9.77079e-21 8.45111e-06)
(9.20157e-06 -5.45294e-08 -5.06885e-20 7.10623e-06 -6.66221e-21 8.17296e-06)
(9.51256e-06 -1.02406e-06 -2.82849e-20 8.44891e-06 -2.71901e-21 8.97932e-06)
(9.03854e-06 -7.77244e-07 -2.60876e-20 7.57462e-06 -3.54765e-21 8.31004e-06)
(8.77631e-06 -4.85602e-07 -1.3748e-19 6.99687e-06 -1.73622e-20 7.88656e-06)
(8.51356e-06 -5.98778e-08 3.1299e-20 6.57624e-06 4.90421e-21 7.56039e-06)
(8.90614e-06 -9.69935e-07 2.07842e-20 7.94507e-06 2.27844e-21 8.4242e-06)
(8.44248e-06 -7.36557e-07 5.59535e-20 7.09464e-06 6.44111e-21 7.77134e-06)
(8.15451e-06 -4.58869e-07 5.40179e-20 6.50875e-06 6.38165e-21 7.33205e-06)
(7.85276e-06 -6.48631e-08 2.86936e-20 6.06728e-06 4.07048e-21 6.97275e-06)
(8.29864e-06 -9.14684e-07 -5.13926e-20 7.43856e-06 -5.71495e-21 7.86727e-06)
(7.84751e-06 -6.95373e-07 -5.52031e-22 6.61505e-06 4.0326e-22 7.23344e-06)
(7.54207e-06 -4.32738e-07 9.16113e-20 6.02837e-06 1.15852e-20 6.78577e-06)
(7.21345e-06 -6.92049e-08 4.4364e-20 5.57498e-06 4.26598e-21 6.40444e-06)
(7.69497e-06 -8.58778e-07 4.54919e-20 6.93356e-06 4.55581e-21 7.31303e-06)
(7.25751e-06 -6.53937e-07 3.3515e-20 6.13896e-06 3.95497e-21 6.69988e-06)
(6.9414e-06 -4.07018e-07 -7.23385e-20 5.55737e-06 -8.83962e-21 6.24994e-06)
(6.59748e-06 -7.24813e-08 -1.10422e-19 5.10072e-06 -1.39949e-20 5.85726e-06)
(7.10172e-06 -8.02906e-07 9.61217e-22 6.43582e-06 4.26378e-22 6.76773e-06)
(6.67914e-06 -6.12846e-07 -1.12949e-20 5.672e-06 -1.27689e-21 6.17681e-06)
(6.35799e-06 -3.82146e-07 5.23279e-20 5.10025e-06 6.09425e-21 5.72963e-06)
(6.00656e-06 -7.50446e-08 7.24592e-20 4.64581e-06 9.34207e-21 5.33268e-06)
(6.52286e-06 -7.47417e-07 -2.87784e-21 5.94863e-06 -3.59347e-22 6.23492e-06)
(6.1163e-06 -5.72312e-07 -3.48888e-20 5.21725e-06 -4.2387e-21 5.66774e-06)
(5.79485e-06 -3.58205e-07 -7.59908e-20 4.65936e-06 -9.24729e-21 5.22756e-06)
(5.44299e-06 -7.72121e-08 -8.95613e-20 4.21207e-06 -1.22439e-20 4.83269e-06)
(5.95986e-06 -6.9236e-07 -1.10737e-20 5.47294e-06 -1.3045e-21 5.71584e-06)
(5.5706e-06 -5.3225e-07 -2.2635e-20 4.77569e-06 -2.69353e-21 5.174e-06)
(5.25301e-06 -3.34926e-07 3.74099e-20 4.23527e-06 4.926e-21 4.74457e-06)
(4.90674e-06 -7.88908e-08 -7.32004e-21 3.79948e-06 1.30881e-21 4.35721e-06)
(5.41427e-06 -6.37854e-07 -9.8149e-21 5.00995e-06 -1.16237e-21 5.21181e-06)
(5.04263e-06 -4.92624e-07 -5.53453e-21 4.3477e-06 -3.55222e-22 4.69596e-06)
(4.73264e-06 -3.12005e-07 4.12204e-21 3.82782e-06 3.82379e-22 4.28066e-06)
(4.39726e-06 -7.98352e-08 8.70845e-20 3.40758e-06 1.20975e-20 3.90561e-06)
(4.8889e-06 -5.84184e-07 -1.23692e-20 4.56207e-06 -1.37613e-21 4.72545e-06)
(4.5349e-06 -4.53511e-07 3.21938e-20 3.9351e-06 3.67707e-21 4.23579e-06)
(4.23472e-06 -2.89376e-07 1.29694e-20 3.43768e-06 1.13932e-21 3.8366e-06)
(3.91404e-06 -7.98189e-08 8.48527e-20 3.03591e-06 8.32516e-21 3.47744e-06)
(4.38777e-06 -5.31811e-07 -3.82378e-21 4.13292e-06 -1.84016e-22 4.26055e-06)
(4.05114e-06 -4.1532e-07 -1.07424e-20 3.54125e-06 -1.26118e-21 3.79699e-06)
(3.76224e-06 -2.67306e-07 -3.12186e-20 3.0674e-06 -3.83233e-21 3.41512e-06)
(3.45857e-06 -7.90045e-08 -7.57609e-20 2.68562e-06 -1.1079e-20 3.07396e-06)
(3.91333e-06 -4.81016e-07 2.39679e-20 3.72466e-06 2.61379e-21 3.81939e-06)
(3.59357e-06 -3.78158e-07 1.37048e-20 3.16784e-06 1.15375e-21 3.38149e-06)
(3.31682e-06 -2.4573e-07 -6.75468e-23 2.71807e-06 7.3367e-22 3.01768e-06)
(3.03128e-06 -7.7505e-08 -5.34254e-20 2.35709e-06 -5.16353e-21 2.69559e-06)
(3.46654e-06 -4.31897e-07 -5.28889e-21 3.33798e-06 -6.68496e-22 3.40284e-06)
(3.16296e-06 -3.42035e-07 -4.78522e-20 2.81535e-06 -5.25632e-21 2.98998e-06)
(2.89858e-06 -2.24545e-07 3.75036e-20 2.38969e-06 3.80997e-21 2.6443e-06)
(2.63171e-06 -7.51841e-08 2.55539e-20 2.04987e-06 3.09587e-21 2.34175e-06)
(3.04967e-06 -3.84783e-07 8.34291e-21 2.97517e-06 8.67653e-22 3.01311e-06)
(2.76102e-06 -3.07127e-07 3.04403e-20 2.48529e-06 3.72388e-21 2.62399e-06)
(2.50855e-06 -2.03803e-07 -4.62882e-20 2.08305e-06 -5.49883e-21 2.29591e-06)
(2.25985e-06 -7.19839e-08 -4.80332e-20 1.76388e-06 -5.82564e-21 2.01253e-06)
(2.66501e-06 -3.39983e-07 -8.0383e-21 2.63825e-06 -8.10149e-22 2.65246e-06)
(2.3902e-06 -2.737e-07 -1.44436e-20 2.1798e-06 -1.8953e-21 2.28588e-06)
(2.14859e-06 -1.83695e-07 2.31037e-20 1.79975e-06 2.83255e-21 1.97423e-06)
(1.91652e-06 -6.81317e-08 1.48654e-20 1.49982e-06 3.35555e-21 1.70858e-06)
(2.31309e-06 -2.97628e-07 1.35754e-20 2.32778e-06 1.62527e-21 2.32147e-06)
(2.05101e-06 -2.41816e-07 3.23037e-21 1.89931e-06 3.1195e-22 1.9761e-06)
(1.81873e-06 -1.6417e-07 -2.81601e-20 1.53972e-06 -2.8797e-21 1.67931e-06)
(1.60126e-06 -6.36065e-08 6.70939e-20 1.25725e-06 7.57173e-21 1.42955e-06)
(2.24208e-06 -2.80937e-07 -8.82799e-21 2.46226e-06 -6.51089e-22 2.35336e-06)
(1.99439e-06 -2.5786e-07 3.75117e-21 2.04483e-06 -2.06068e-22 2.02068e-06)
(1.74358e-06 -2.11552e-07 -1.63803e-20 1.64414e-06 -1.11849e-21 1.69487e-06)
(1.51867e-06 -1.45241e-07 4.92859e-20 1.30276e-06 6.02882e-21 1.41084e-06)
(1.31327e-06 -5.83854e-08 -1.02102e-20 1.03548e-06 -2.01145e-21 1.17463e-06)
(1.94609e-06 -2.37931e-07 2.42051e-20 2.17671e-06 2.65473e-21 2.06245e-06)
(1.71003e-06 -2.20869e-07 -3.96919e-20 1.79065e-06 -4.37823e-21 1.75134e-06)
(1.46881e-06 -1.83045e-07 6.16128e-20 1.4153e-06 6.71983e-21 1.44312e-06)
(1.24948e-06 -1.27089e-07 2.98634e-21 1.08999e-06 -9.97811e-22 1.16995e-06)
(1.05252e-06 -5.26706e-08 3.07697e-21 8.34563e-07 4.55729e-22 9.43859e-07)
(1.68446e-06 -1.98575e-07 -6.93796e-21 1.92136e-06 -1.14849e-21 1.80382e-06)
(1.45916e-06 -1.86618e-07 7.75536e-21 1.56443e-06 1.60538e-21 1.5128e-06)
(1.22714e-06 -1.56368e-07 -3.47932e-20 1.2133e-06 -4.7186e-21 1.22136e-06)
(1.01149e-06 -1.09772e-07 -5.57072e-20 9.01854e-07 -6.17043e-21 9.57007e-07)
(8.18957e-07 -4.65933e-08 -1.51583e-21 6.54519e-07 -7.16992e-22 7.37169e-07)
(1.45676e-06 -1.62872e-07 -9.55363e-21 1.69628e-06 -7.8612e-22 1.57729e-06)
(1.24212e-06 -1.55195e-07 2.36959e-20 1.36715e-06 2.81717e-21 1.30555e-06)
(1.01867e-06 -1.31563e-07 -6.44766e-21 1.03879e-06 -9.19735e-23 1.02985e-06)
(8.04514e-07 -9.33055e-08 2.06389e-20 7.38631e-07 3.14395e-21 7.71965e-07)
(6.10908e-07 -4.01901e-08 -3.54526e-20 4.94156e-07 -3.6281e-21 5.5307e-07)
(1.26191e-06 -1.30754e-07 1.59165e-20 1.50087e-06 1.90668e-21 1.38205e-06)
(1.0584e-06 -1.26591e-07 1.93839e-20 1.19864e-06 1.84663e-21 1.12936e-06)
(8.43869e-07 -1.08663e-07 1.8508e-20 8.92463e-07 1.91489e-21 8.69269e-07)
(6.30241e-07 -7.77662e-08 5.92594e-21 6.02186e-07 7.59245e-22 6.16648e-07)
(4.29257e-07 -3.35853e-08 3.44575e-20 3.5446e-07 4.63909e-21 3.92496e-07)
(1.09879e-06 -1.02183e-07 2.33462e-21 1.3345e-06 5.7667e-23 1.21719e-06)
(9.07606e-07 -1.00856e-07 -5.74965e-21 1.05891e-06 -1.14201e-21 9.83989e-07)
(7.03735e-07 -8.77828e-08 -2.15094e-20 7.7566e-07 -2.47949e-21 7.40729e-07)
(4.91874e-07 -6.33068e-08 2.53582e-20 4.96058e-07 2.58232e-21 4.94395e-07)
(2.76962e-07 -2.69765e-08 1.68382e-20 2.38684e-07 1.45736e-21 2.5854e-07)
(9.65077e-07 -7.69585e-08 -1.44747e-21 1.19533e-06 -1.26004e-22 1.08063e-06)
(7.87666e-07 -7.78345e-08 -2.35935e-20 9.46399e-07 -2.56032e-21 8.67657e-07)
(5.97074e-07 -6.8808e-08 1.51704e-20 6.87657e-07 1.87381e-21 6.43328e-07)
(3.91674e-07 -4.98399e-08 -1.86494e-20 4.22858e-07 -2.71032e-21 4.07698e-07)
(1.64307e-07 -2.03388e-08 -6.48923e-21 1.57344e-07 -1.40869e-21 1.6165e-07)
(8.58141e-07 -5.48795e-08 5.1616e-21 1.08119e-06 5.55861e-22 9.69974e-07)
(6.96191e-07 -5.74248e-08 4.77016e-21 8.5919e-07 1.06893e-21 7.78202e-07)
(5.22238e-07 -5.17115e-08 -9.26319e-21 6.27264e-07 -1.25011e-21 5.75632e-07)
(3.31708e-07 -3.74049e-08 -2.06807e-20 3.85101e-07 -1.85693e-21 3.5884e-07)
(1.21898e-07 -1.37618e-08 -3.76497e-20 1.41496e-07 -3.99486e-21 1.32666e-07)
(7.7484e-07 -3.57564e-08 -4.60083e-21 9.89342e-07 -5.12282e-22 8.82304e-07)
(6.2983e-07 -3.95177e-08 2.28339e-20 7.94396e-07 2.36519e-21 7.12534e-07)
(4.75563e-07 -3.64681e-08 -1.47518e-21 5.91286e-07 -8.9617e-23 5.34249e-07)
(3.08623e-07 -2.60638e-08 2.35164e-20 3.79859e-07 3.04e-21 3.44694e-07)
(1.51578e-07 -7.40968e-09 2.36471e-20 1.93256e-07 2.73897e-21 1.73537e-07)
(7.11405e-07 -1.936e-08 7.39635e-21 9.16378e-07 1.04792e-21 8.1402e-07)
(5.84114e-07 -2.39576e-08 -1.7964e-20 7.4798e-07 -2.56474e-21 6.66374e-07)
(4.51113e-07 -2.30171e-08 -2.53266e-21 5.74242e-07 -1.96714e-22 5.13419e-07)
(3.11892e-07 -1.58345e-08 8.44591e-21 3.97084e-07 1.00006e-21 3.5491e-07)
(2.03305e-07 -1.39908e-09 -3.68121e-20 2.63061e-07 -4.45953e-21 2.34404e-07)
(6.63769e-07 -5.45466e-09 1.42414e-20 8.58515e-07 1.49741e-21 7.61221e-07)
(5.54132e-07 -1.05662e-08 -2.33502e-20 7.15446e-07 -2.50304e-21 6.35045e-07)
(4.42106e-07 -1.12399e-08 6.73858e-21 5.69861e-07 6.47958e-22 5.06644e-07)
(3.29254e-07 -6.65289e-09 2.46649e-20 4.25012e-07 2.86335e-21 3.77489e-07)
(2.54321e-07 4.27871e-09 3.88993e-21 3.2859e-07 7.51602e-22 2.92702e-07)
(6.28139e-07 6.17488e-09 -8.16568e-21 8.12261e-07 -1.01116e-21 7.20256e-07)
(5.35206e-07 7.83937e-10 1.067e-21 6.92503e-07 4.81948e-22 6.14049e-07)
(4.42274e-07 -1.10116e-09 -1.36661e-20 5.72283e-07 -1.67609e-21 5.07844e-07)
(3.51679e-07 1.4326e-09 8.9801e-21 4.55016e-07 4.84133e-22 4.036e-07)
(2.99235e-07 9.51757e-09 -9.22986e-21 3.84868e-07 -1.24983e-21 3.43275e-07)
(6.00955e-07 1.56821e-08 8.3738e-21 7.74312e-07 1.0269e-21 6.8766e-07)
(5.2313e-07 1.02106e-08 1.24369e-20 6.75297e-07 1.23383e-21 5.99334e-07)
(4.46662e-07 7.467e-09 -1.00925e-21 5.7698e-07 3.24919e-22 5.12283e-07)
(3.73763e-07 8.40444e-09 -2.69338e-20 4.82127e-07 -3.46351e-21 4.28086e-07)
(3.36409e-07 1.4208e-08 -1.45305e-20 4.30544e-07 -1.54856e-21 3.84656e-07)
(5.79077e-07 2.32943e-08 -3.383e-21 7.41714e-07 -5.16507e-22 6.60398e-07)
(5.1453e-07 1.78771e-08 -2.22126e-20 6.60772e-07 -2.76752e-21 5.87683e-07)
(4.51709e-07 1.45547e-08 3.02224e-20 5.80745e-07 3.67719e-21 5.16558e-07)
(3.92538e-07 1.42891e-08 -2.2634e-20 5.03736e-07 -2.07139e-21 4.48135e-07)
(3.65715e-07 1.82905e-08 5.75761e-21 4.65839e-07 7.54309e-22 4.16886e-07)
(6.14231e-07 3.61003e-08 1.83692e-21 7.77147e-07 1.18464e-22 6.95554e-07)
(5.60083e-07 2.91951e-08 -4.58322e-21 7.12217e-07 -7.17132e-22 6.36081e-07)
(5.06592e-07 2.39341e-08 -4.60889e-21 6.46279e-07 -3.60882e-23 5.76376e-07)
(4.5509e-07 2.02925e-08 1.3046e-20 5.81535e-07 1.08665e-21 5.18531e-07)
(4.0677e-07 1.9173e-08 2.99052e-20 5.18966e-07 3.94633e-21 4.6274e-07)
(3.87617e-07 2.17784e-08 -4.31763e-21 4.91545e-07 -6.31338e-22 4.40607e-07)
(5.86944e-07 3.98601e-08 -5.09269e-21 7.36525e-07 -5.25391e-22 6.61574e-07)
(5.42103e-07 3.35749e-08 -2.45556e-20 6.84064e-07 -2.84045e-21 6.12961e-07)
(4.97892e-07 2.85884e-08 3.51715e-20 6.30643e-07 4.06702e-21 5.64175e-07)
(4.55419e-07 2.47783e-08 -1.76766e-20 5.78203e-07 -2.10444e-21 5.16968e-07)
(4.15679e-07 2.30749e-08 2.29427e-20 5.27277e-07 2.38985e-21 4.71264e-07)
(4.0257e-07 2.46482e-08 -8.86126e-21 5.08409e-07 -9.38341e-22 4.56454e-07)
(5.60765e-07 4.22993e-08 1.33025e-20 6.97999e-07 1.66577e-21 6.29179e-07)
(5.23652e-07 3.66357e-08 5.76702e-21 6.55743e-07 8.46242e-22 5.89521e-07)
(4.87314e-07 3.19498e-08 -1.77029e-20 6.12909e-07 -2.36191e-21 5.4997e-07)
(4.52336e-07 2.81104e-08 1.17535e-20 5.70718e-07 1.45946e-21 5.1163e-07)
(4.19629e-07 2.60386e-08 -2.79264e-21 5.29454e-07 -5.96117e-22 4.7428e-07)
(4.11216e-07 2.685e-08 6.76006e-21 5.17431e-07 8.67801e-22 4.65244e-07)
(5.34881e-07 4.36352e-08 3.78174e-21 6.60707e-07 2.64572e-22 5.97535e-07)
(5.04546e-07 3.85667e-08 -4.06224e-21 6.27289e-07 -4.1369e-22 5.65698e-07)
(4.74838e-07 3.42239e-08 4.3652e-21 5.93296e-07 7.12533e-22 5.33889e-07)
(4.45999e-07 3.04526e-08 -1.07685e-20 5.59501e-07 -1.24562e-21 5.02811e-07)
(4.1897e-07 2.8161e-08 -7.30184e-21 5.26104e-07 -8.74486e-22 4.72219e-07)
(4.14207e-07 2.83953e-08 -4.3583e-22 5.19552e-07 -3.89603e-23 4.67733e-07)
(5.09288e-07 4.41092e-08 -1.44285e-20 6.24672e-07 -1.73003e-21 5.66694e-07)
(4.84577e-07 3.95972e-08 1.65709e-20 5.98476e-07 2.15577e-21 5.41255e-07)
(4.60476e-07 3.56118e-08 7.03855e-21 5.71895e-07 7.03047e-22 5.15953e-07)
(4.36832e-07 3.19761e-08 1.67453e-20 5.45171e-07 1.98866e-21 4.90994e-07)
(4.14589e-07 2.95811e-08 -4.13833e-21 5.18409e-07 -3.80955e-22 4.66109e-07)
(4.12706e-07 2.93967e-08 9.13307e-21 5.16245e-07 9.47372e-22 4.65234e-07)
(4.83696e-07 4.38981e-08 6.8454e-21 5.89477e-07 9.10999e-22 5.36306e-07)
(4.63973e-07 3.99162e-08 1.80426e-20 5.69594e-07 2.02704e-21 5.16507e-07)
(4.44673e-07 3.62935e-08 -1.56296e-20 5.49282e-07 -1.82064e-21 4.96725e-07)
(4.25424e-07 3.28472e-08 -1.38059e-20 5.2848e-07 -1.94721e-21 4.76892e-07)
(4.07287e-07 3.04586e-08 5.8476e-21 5.07345e-07 7.01295e-22 4.56835e-07)
(4.07762e-07 2.99615e-08 -1.91354e-20 5.08817e-07 -2.17636e-21 4.58922e-07)
(4.58432e-07 4.31838e-08 -2.68541e-21 5.5545e-07 -5.26308e-22 5.06752e-07)
(4.42805e-07 3.96794e-08 -8.06734e-21 5.40663e-07 -9.49046e-22 4.91497e-07)
(4.27536e-07 3.6409e-08 1.71069e-20 5.25546e-07 2.14837e-21 4.76296e-07)
(4.12109e-07 3.31858e-08 -2.46468e-20 5.09824e-07 -2.84224e-21 4.60875e-07)
(3.97572e-07 3.08631e-08 -5.27499e-21 4.93577e-07 -6.82598e-22 4.45019e-07)
(4.00106e-07 3.01548e-08 2.50465e-20 4.98193e-07 2.98816e-21 4.49638e-07)
(4.33113e-07 4.20161e-08 -2.76118e-20 5.221e-07 -3.32438e-21 4.77534e-07)
(4.21092e-07 3.89545e-08 2.29984e-20 5.11727e-07 2.72791e-21 4.6625e-07)
(4.0938e-07 3.60324e-08 -4.67029e-21 5.01115e-07 -5.89885e-22 4.55053e-07)
(3.97208e-07 3.30502e-08 4.93993e-21 4.89642e-07 7.82189e-22 4.43329e-07)
(3.8575e-07 3.08379e-08 2.17355e-21 4.77514e-07 1.06516e-22 4.31007e-07)
(3.89917e-07 2.99698e-08 -1.89939e-20 4.84651e-07 -2.35338e-21 4.37639e-07)
(4.07695e-07 4.04665e-08 8.61673e-21 4.89339e-07 1.17133e-21 4.48624e-07)
(3.98632e-07 3.77785e-08 -2.41033e-20 4.82549e-07 -3.06295e-21 4.40559e-07)
(3.89949e-07 3.51845e-08 1.56903e-20 4.75693e-07 1.97138e-21 4.32695e-07)
(3.8059e-07 3.24462e-08 5.6138e-21 4.67818e-07 5.87735e-22 4.24107e-07)
(3.71879e-07 3.03772e-08 -2.78978e-20 4.59292e-07 -3.41763e-21 4.14902e-07)
(3.77447e-07 2.94102e-08 1.27395e-20 4.68549e-07 1.67967e-21 4.23232e-07)
(3.87958e-07 4.07916e-08 2.72536e-22 4.59745e-07 -9.72814e-23 4.24286e-07)
(3.81328e-07 3.84841e-08 -5.69317e-21 4.56166e-07 -6.9247e-22 4.19039e-07)
(3.7453e-07 3.6102e-08 4.25841e-21 4.52061e-07 6.96139e-22 4.13422e-07)
(3.6856e-07 3.38155e-08 5.01444e-21 4.4851e-07 5.16405e-22 4.08547e-07)
(3.61849e-07 3.13475e-08 -1.20185e-20 4.43904e-07 -1.39946e-21 4.02837e-07)
(3.55642e-07 2.94592e-08 -5.48486e-21 4.38567e-07 -6.01139e-22 3.96427e-07)
(3.62584e-07 2.84664e-08 6.94521e-21 4.49778e-07 7.21931e-22 4.0636e-07)
(3.59092e-07 3.82065e-08 -2.69585e-20 4.24283e-07 -3.35677e-21 3.92234e-07)
(3.54094e-07 3.613e-08 9.93397e-21 4.22622e-07 1.35702e-21 3.88829e-07)
(3.49212e-07 3.40197e-08 8.46001e-21 4.2073e-07 9.52786e-22 3.8532e-07)
(3.45271e-07 3.1981e-08 -2.86568e-21 4.19592e-07 -4.55592e-22 3.82651e-07)
(3.40814e-07 2.97678e-08 1.69387e-20 4.1769e-07 2.21543e-21 3.7937e-07)
(3.37099e-07 2.80863e-08 -1.74772e-20 4.15454e-07 -1.89332e-21 3.75724e-07)
(3.45234e-07 2.71067e-08 -9.0576e-21 4.28274e-07 -1.19921e-21 3.86985e-07)
(3.305e-07 3.54734e-08 -6.85634e-22 3.89617e-07 6.36961e-23 3.60634e-07)
(3.26507e-07 3.35611e-08 1.89468e-20 3.89096e-07 2.30594e-21 3.58413e-07)
(3.22882e-07 3.16234e-08 -1.4935e-20 3.88665e-07 -1.90278e-21 3.56343e-07)
(3.20511e-07 2.97738e-08 -1.71511e-20 3.89375e-07 -2.10443e-21 3.55433e-07)
(3.1794e-07 2.77815e-08 1.39654e-20 3.89685e-07 1.73863e-21 3.542e-07)
(3.16323e-07 2.62843e-08 3.63089e-20 3.90023e-07 4.51203e-21 3.5288e-07)
(3.25444e-07 2.53368e-08 -1.26199e-20 4.04092e-07 -1.64041e-21 3.65166e-07)
(3.03249e-07 3.27556e-08 6.69205e-21 3.56877e-07 7.9281e-22 3.30482e-07)
(2.99892e-07 3.09516e-08 -8.6943e-22 3.57071e-07 -1.23796e-22 3.29083e-07)
(2.97087e-07 2.91286e-08 -1.56358e-21 3.57579e-07 -1.11104e-22 3.28022e-07)
(2.95719e-07 2.73988e-08 -8.11831e-22 3.59452e-07 -5.71724e-23 3.28304e-07)
(2.94404e-07 2.55471e-08 2.426e-20 3.61214e-07 2.86748e-21 3.28472e-07)
(2.94335e-07 2.4175e-08 -4.08707e-21 3.63444e-07 -6.67014e-22 3.28911e-07)
(3.04163e-07 2.32671e-08 -3.37774e-20 3.78331e-07 -4.05417e-21 3.41876e-07)
(2.77966e-07 3.01536e-08 -1.37414e-20 3.26707e-07 -1.72436e-21 3.02423e-07)
(2.75159e-07 2.84572e-08 1.66273e-20 3.27472e-07 2.05069e-21 3.01706e-07)
(2.72885e-07 2.67118e-08 4.18681e-21 3.28572e-07 6.1319e-22 3.01351e-07)
(2.7208e-07 2.50404e-08 -9.08007e-21 3.31094e-07 -1.20706e-21 3.02376e-07)
(2.71474e-07 2.32557e-08 -1.18787e-20 3.3366e-07 -1.4655e-21 3.03405e-07)
(2.72426e-07 2.19459e-08 4.3228e-21 3.37143e-07 4.8694e-22 3.05092e-07)
(2.82457e-07 2.10358e-08 3.30002e-21 3.52199e-07 6.67605e-22 3.1822e-07)
(2.53851e-07 2.75827e-08 5.98117e-21 2.98185e-07 7.31293e-22 2.75753e-07)
(2.51771e-07 2.6031e-08 -9.54982e-21 2.99646e-07 -1.25505e-21 2.75807e-07)
(2.5003e-07 2.43819e-08 2.46333e-20 3.01276e-07 2.99822e-21 2.76081e-07)
(2.49694e-07 2.27675e-08 -1.96426e-20 3.04303e-07 -2.40341e-21 2.77718e-07)
(2.4969e-07 2.10325e-08 2.75523e-20 3.07539e-07 3.42483e-21 2.79503e-07)
(2.51442e-07 1.97767e-08 -1.50254e-20 3.11967e-07 -1.90555e-21 2.82209e-07)
(2.61785e-07 1.88949e-08 3.05858e-20 3.27289e-07 3.77412e-21 2.95654e-07)
(2.29137e-07 2.45911e-08 -1.56298e-20 2.70038e-07 -2.08177e-21 2.49e-07)
(2.27768e-07 2.31496e-08 -3.85863e-22 2.72093e-07 -1.86889e-23 2.49693e-07)
(2.26555e-07 2.15676e-08 -1.08903e-20 2.74159e-07 -1.39818e-21 2.50486e-07)
(2.26556e-07 1.99687e-08 -6.27224e-22 2.77447e-07 1.31689e-23 2.52515e-07)
(2.26987e-07 1.82117e-08 -4.77529e-21 2.81099e-07 -7.72682e-22 2.54828e-07)
(2.29377e-07 1.68962e-08 -7.8315e-21 2.86297e-07 -8.83142e-22 2.58405e-07)
(2.40001e-07 1.59813e-08 1.09328e-20 3.01796e-07 1.12692e-21 2.72101e-07)
(2.10164e-07 2.23863e-08 -2.26675e-20 2.48124e-07 -2.78775e-21 2.28341e-07)
(2.09481e-07 2.10642e-08 -3.42673e-21 2.50775e-07 -3.78931e-22 2.2962e-07)
(2.08813e-07 1.95717e-08 1.31494e-20 2.53323e-07 1.67486e-21 2.30921e-07)
(2.08971e-07 1.79964e-08 -2.03713e-23 2.56676e-07 -4.40432e-23 2.33094e-07)
(2.09202e-07 1.62044e-08 -1.14096e-20 2.59975e-07 -1.48992e-21 2.35199e-07)
(2.116e-07 1.47933e-08 1.13096e-21 2.65184e-07 4.13624e-22 2.38919e-07)
(2.21164e-07 1.36734e-08 -1.71514e-20 2.79334e-07 -2.2955e-21 2.51439e-07)
(1.96238e-07 2.10059e-08 3.27603e-21 2.31365e-07 5.39432e-22 2.12994e-07)
(1.9628e-07 1.98469e-08 9.91271e-21 2.34672e-07 1.24904e-21 2.14886e-07)
(1.96188e-07 1.84907e-08 -7.75495e-21 2.37768e-07 -1.02622e-21 2.16698e-07)
(1.96616e-07 1.70017e-08 -1.09147e-20 2.41362e-07 -1.43487e-21 2.19101e-07)
(1.96685e-07 1.52512e-08 -2.06425e-20 2.4439e-07 -2.42718e-21 2.21011e-07)
(1.9864e-07 1.38321e-08 4.39543e-20 2.49012e-07 5.37054e-21 2.24287e-07)
(2.07063e-07 1.25573e-08 -2.94088e-20 2.6179e-07 -3.43888e-21 2.35602e-07)
(1.80938e-07 1.93335e-08 9.2792e-21 2.13417e-07 1.18388e-21 1.96382e-07)
(1.81578e-07 1.83144e-08 -3.24178e-21 2.17181e-07 -4.67293e-22 1.987e-07)
(1.82183e-07 1.71172e-08 2.9533e-21 2.20872e-07 3.84821e-22 2.01063e-07)
(1.83155e-07 1.57555e-08 -1.70387e-20 2.24957e-07 -2.14175e-21 2.03934e-07)
(1.83597e-07 1.40981e-08 2.58557e-20 2.28317e-07 3.2929e-21 2.06183e-07)
(1.85349e-07 1.27317e-08 -2.52707e-20 2.32562e-07 -3.24843e-21 2.09228e-07)
(1.9262e-07 1.13653e-08 3.48175e-20 2.43861e-07 4.40006e-21 2.1929e-07)
(1.63324e-07 1.81771e-08 1.25826e-20 1.90356e-07 1.6129e-21 1.76227e-07)
(1.64618e-07 1.74767e-08 6.44067e-21 1.94503e-07 8.15561e-22 1.78842e-07)
(1.65773e-07 1.66003e-08 -5.57489e-21 1.98555e-07 -7.34393e-22 1.81452e-07)
(1.67178e-07 1.55664e-08 -5.02162e-21 2.02952e-07 -6.76439e-22 1.84495e-07)
(1.68821e-07 1.43592e-08 -1.11124e-20 2.07613e-07 -1.31559e-21 1.87901e-07)
(1.69985e-07 1.28568e-08 -1.10002e-20 2.11652e-07 -1.41966e-21 1.90783e-07)
(1.71975e-07 1.16143e-08 2.85809e-20 2.16002e-07 3.68062e-21 1.93962e-07)
(1.78264e-07 1.0175e-08 -1.60954e-20 2.26029e-07 -2.10086e-21 2.02887e-07)
(1.44959e-07 1.59029e-08 -6.32496e-21 1.69735e-07 -7.89751e-22 1.56834e-07)
(1.46463e-07 1.52498e-08 1.06752e-20 1.73896e-07 1.28187e-21 1.59501e-07)
(1.48158e-07 1.44736e-08 -1.11051e-20 1.78309e-07 -1.32682e-21 1.62491e-07)
(1.50089e-07 1.35472e-08 -9.79629e-21 1.83043e-07 -1.27949e-21 1.65875e-07)
(1.52365e-07 1.24596e-08 9.15252e-21 1.88192e-07 1.12829e-21 1.69755e-07)
(1.54399e-07 1.11153e-08 1.82022e-20 1.93003e-07 2.4437e-21 1.73391e-07)
(1.5682e-07 9.96877e-09 -3.33327e-21 1.97671e-07 -5.9879e-22 1.76918e-07)
(1.6187e-07 8.36327e-09 8.39763e-21 2.06055e-07 1.14974e-21 1.84419e-07)
(1.19846e-07 1.28619e-08 2.04455e-20 1.41321e-07 2.63359e-21 1.30543e-07)
(1.21633e-07 1.2242e-08 -2.40611e-20 1.45605e-07 -3.15056e-21 1.33339e-07)
(1.24052e-07 1.15413e-08 2.79192e-20 1.50626e-07 3.61912e-21 1.36878e-07)
(1.27084e-07 1.072e-08 -2.20879e-20 1.56398e-07 -2.79741e-21 1.41188e-07)
(1.30799e-07 9.7595e-09 -2.52289e-20 1.62985e-07 -3.25907e-21 1.46339e-07)
(1.34734e-07 8.6017e-09 3.63658e-20 1.69756e-07 4.6579e-21 1.51692e-07)
(1.39283e-07 7.67821e-09 -2.26136e-20 1.76712e-07 -2.90615e-21 1.5717e-07)
(1.46428e-07 6.06351e-09 1.78105e-20 1.87495e-07 2.23021e-21 1.66546e-07)
(8.91343e-08 8.77876e-09 3.04367e-21 1.07245e-07 3.16635e-22 9.8436e-08)
(8.98901e-08 8.00737e-09 -2.13801e-20 1.0995e-07 -2.70101e-21 1.00134e-07)
(9.16229e-08 7.22276e-09 1.39519e-20 1.13686e-07 1.68665e-21 1.0286e-07)
(9.43397e-08 6.37853e-09 -3.78391e-21 1.18528e-07 -3.67509e-22 1.0668e-07)
(9.8197e-08 5.43229e-09 -1.54397e-20 1.24696e-07 -1.88922e-21 1.1181e-07)
(1.02773e-07 4.31655e-09 4.09967e-20 1.31634e-07 5.08598e-21 1.17712e-07)
(1.07542e-07 3.08514e-09 -2.13406e-20 1.38566e-07 -2.57171e-21 1.23637e-07)
(1.13182e-07 1.02403e-09 4.32651e-21 1.46472e-07 4.16113e-22 1.31149e-07)
(7.04715e-08 5.75576e-09 -1.06999e-20 8.68258e-08 -1.35725e-21 7.7611e-08)
(7.52611e-08 5.06927e-09 -1.08519e-20 9.41906e-08 -1.33744e-21 8.33786e-08)
(8.10705e-08 4.33634e-09 -1.75058e-20 1.02607e-07 -2.29627e-21 9.02073e-08)
(8.76644e-08 3.50755e-09 3.02067e-20 1.11853e-07 3.84347e-21 9.78913e-08)
(9.50975e-08 2.61182e-09 5.01713e-21 1.21985e-07 6.80879e-22 1.06475e-07)
(1.02839e-07 1.7121e-09 -9.7729e-21 1.32215e-07 -1.3259e-21 1.15081e-07)
(1.11522e-07 1.53769e-09 2.5434e-20 1.43064e-07 3.25109e-21 1.23907e-07)
(1.24465e-07 3.98773e-10 -3.83985e-20 1.59862e-07 -4.86523e-21 1.384e-07)
(4.78176e-08 1.53054e-09 1.41347e-20 4.77049e-08 1.80738e-21 5.39715e-08)
(4.89511e-08 1.14234e-09 4.73695e-21 4.99483e-08 6.44578e-22 5.59573e-08)
(5.00705e-08 8.58053e-10 -2.09425e-20 5.22814e-08 -2.63692e-21 5.78879e-08)
(5.16375e-08 6.10366e-10 -1.43169e-20 5.53298e-08 -1.90319e-21 6.03748e-08)
(5.49836e-08 2.21312e-10 5.52082e-21 6.0636e-08 7.6844e-22 6.49996e-08)