/*--------------------------------*- C++ -*----------------------------------*\
| =========                 |                                                 |
| \\      /  F ield         | OpenFOAM: The Open Source CFD Toolbox           |
|  \\    /   O peration     | Version:  2306                                  |
|   \\  /    A nd           | Website:  www.openfoam.com                      |
|    \\/     M anipulation  |                                                 |
\*---------------------------------------------------------------------------*/
FoamFile
{
    version     2.0;
    format      ascii;
    arch        "LSB;label=32;scalar=64";
    class       volScalarField;
    location    "75";
    object      turbulenceProperties:k;
}
// * * * * * * * * * * * * * * * * * * * * * * * * * * * * * * * * * * * * * //

dimensions      [0 2 -2 0 0 0 0];

internalField   nonuniform List<scalar> 
1340
(
54.1448
52.4136
50.8066
46.5744
1.59697
1.68603
1.82002
2.10901
0.417676
0.562262
0.621924
1.11765
0.0175301
0.0502073
0.092187
0.322755
0.000417767
0.00103509
0.00153049
0.0222492
5.72541e-05
0.000199742
0.000434431
0.0006065
1.88401e-05
1.70594e-06
4.80032e-07
0.000183268
2.23636e-05
1.76073e-05
6.25956e-06
8.0599e-07
2.71582e-05
2.62116e-05
2.97066e-05
1.57175e-05
2.2695e-05
2.10767e-05
2.38305e-05
2.51703e-05
2.34739e-05
2.24924e-05
2.3777e-05
2.68529e-05
2.21139e-05
2.09849e-05
2.20013e-05
2.43297e-05
2.18361e-05
2.07877e-05
2.15731e-05
2.32353e-05
2.10648e-05
1.99621e-05
2.0523e-05
2.18443e-05
2.04748e-05
1.93885e-05
1.97237e-05
2.06983e-05
1.97615e-05
1.86666e-05
1.88125e-05
1.95201e-05
1.90456e-05
1.79558e-05
1.79357e-05
1.8396e-05
1.82912e-05
1.72017e-05
1.70374e-05
1.7287e-05
1.7527e-05
1.64419e-05
1.61516e-05
1.62057e-05
1.67479e-05
1.56701e-05
1.52766e-05
1.51677e-05
1.59508e-05
1.48844e-05
1.44064e-05
1.41614e-05
1.51328e-05
1.40829e-05
1.35391e-05
1.31858e-05
1.43024e-05
1.32716e-05
1.26774e-05
1.22404e-05
1.34704e-05
1.24616e-05
1.18299e-05
1.13251e-05
1.26377e-05
1.16542e-05
1.09977e-05
1.04464e-05
1.18022e-05
1.0848e-05
1.01781e-05
9.59644e-06
1.09708e-05
1.00482e-05
9.37435e-06
8.77773e-06
1.01526e-05
9.26398e-06
8.59393e-06
7.99252e-06
9.35321e-06
8.50065e-06
7.84089e-06
7.24388e-06
8.57432e-06
7.76014e-06
7.11642e-06
6.53171e-06
7.81802e-06
7.04315e-06
6.42056e-06
5.85522e-06
7.08821e-06
6.35289e-06
5.7545e-06
5.21369e-06
6.39062e-06
5.69469e-06
5.12238e-06
4.60908e-06
5.72869e-06
5.07145e-06
4.52628e-06
4.04198e-06
5.10368e-06
4.48414e-06
3.96628e-06
3.51166e-06
4.51897e-06
3.93515e-06
3.44376e-06
3.01813e-06
3.97786e-06
3.42794e-06
2.96129e-06
2.56246e-06
3.48117e-06
2.96321e-06
2.51888e-06
2.14403e-06
3.52885e-06
3.02995e-06
2.5413e-06
2.11614e-06
1.76169e-06
3.09262e-06
2.62601e-06
2.16362e-06
1.75471e-06
1.41547e-06
2.70482e-06
2.26819e-06
1.8309e-06
1.43517e-06
1.10532e-06
2.36517e-06
1.95741e-06
1.54365e-06
1.15755e-06
8.29067e-07
2.07241e-06
1.6932e-06
1.3028e-06
9.24538e-07
5.88107e-07
1.82524e-06
1.47525e-06
1.11006e-06
7.41163e-07
3.87093e-07
1.62052e-06
1.30086e-06
9.64029e-07
6.11115e-07
2.4165e-07
1.45465e-06
1.16679e-06
8.62567e-07
5.37825e-07
1.9803e-07
1.32324e-06
1.06838e-06
8.00549e-07
5.16588e-07
2.59185e-07
1.2209e-06
9.99234e-07
7.69387e-07
5.31943e-07
3.50385e-07
1.14175e-06
9.52311e-07
7.59306e-07
5.65878e-07
4.37806e-07
1.08033e-06
9.20879e-07
7.612e-07
6.05147e-07
5.13689e-07
1.03146e-06
8.9888e-07
7.67962e-07
6.41988e-07
5.75805e-07
9.90594e-07
8.81492e-07
7.74506e-07
6.72204e-07
6.2422e-07
1.04347e-06
9.54191e-07
8.64623e-07
7.77578e-07
6.94238e-07
6.59884e-07
9.92522e-07
9.19564e-07
8.46355e-07
7.75295e-07
7.0711e-07
6.83716e-07
9.43972e-07
8.84458e-07
8.25096e-07
7.67342e-07
7.11681e-07
6.96945e-07
8.96561e-07
8.48766e-07
8.01011e-07
7.54156e-07
7.08646e-07
7.00746e-07
8.50327e-07
8.12154e-07
7.74162e-07
7.36498e-07
6.99554e-07
6.97092e-07
8.0474e-07
7.75038e-07
7.4534e-07
7.15398e-07
6.85733e-07
6.8775e-07
7.60317e-07
7.37482e-07
7.1469e-07
6.91404e-07
6.68084e-07
6.73968e-07
7.16374e-07
6.99535e-07
6.82774e-07
6.65089e-07
6.47135e-07
6.56103e-07
6.72829e-07
6.6087e-07
6.49168e-07
6.36258e-07
6.23036e-07
6.34614e-07
6.35995e-07
6.28267e-07
6.20007e-07
6.12809e-07
6.04295e-07
5.95318e-07
6.09361e-07
5.87804e-07
5.82773e-07
5.77631e-07
5.73757e-07
5.68937e-07
5.64138e-07
5.80247e-07
5.40375e-07
5.37008e-07
5.33945e-07
5.32659e-07
5.30912e-07
5.29613e-07
5.47351e-07
4.95304e-07
4.93023e-07
4.91344e-07
4.91738e-07
4.92045e-07
4.93344e-07
5.12185e-07
4.53548e-07
4.52168e-07
4.51404e-07
4.52775e-07
4.5427e-07
4.57331e-07
4.76438e-07
4.13895e-07
4.13612e-07
4.13694e-07
4.15858e-07
4.18366e-07
4.22809e-07
4.42364e-07
3.74087e-07
3.74777e-07
3.756e-07
3.78259e-07
3.81457e-07
3.8704e-07
4.06949e-07
3.43314e-07
3.44938e-07
3.46529e-07
3.49371e-07
3.52188e-07
3.57852e-07
3.75968e-07
3.20299e-07
3.22919e-07
3.25327e-07
3.28539e-07
3.31043e-07
3.35969e-07
3.52227e-07
2.95368e-07
2.9873e-07
3.02059e-07
3.06023e-07
3.09048e-07
3.13569e-07
3.27885e-07
2.64953e-07
2.68981e-07
2.7289e-07
2.77312e-07
2.82168e-07
2.8621e-07
2.90969e-07
3.0359e-07
2.35764e-07
2.3993e-07
2.44479e-07
2.49503e-07
2.55157e-07
2.60396e-07
2.65705e-07
2.76172e-07
1.95855e-07
2.00289e-07
2.05778e-07
2.12335e-07
2.20061e-07
2.28091e-07
2.36583e-07
2.50234e-07
1.47408e-07
1.49987e-07
1.54085e-07
1.59773e-07
1.67352e-07
1.76059e-07
1.84872e-07
1.95401e-07
1.17454e-07
1.26415e-07
1.36943e-07
1.48704e-07
1.61779e-07
1.75068e-07
1.89247e-07
2.11364e-07
7.4747e-08
7.74284e-08
8.01199e-08
8.3671e-08
9.03096e-08
1.04233e-07
1.28839e-07
1.57769e-07
3.84008e-07
3.98222e-07
4.10741e-07
4.21832e-07
4.32915e-07
4.45689e-07
4.75588e-07
5.03095e-07
6.11568e-07
6.07931e-07
6.03792e-07
5.99881e-07
5.97123e-07
5.99145e-07
6.14055e-07
5.87942e-07
1.27548e-06
1.26968e-06
1.26301e-06
1.25565e-06
1.24677e-06
1.23816e-06
1.22432e-06
1.13188e-06
4.65117
0.596942
0.241435
0.0471134
0.00320336
6.90333e-05
7.02144e-06
4.89779e-06
2.07382e-05
2.20812e-05
2.16569e-05
2.02568e-05
1.95043e-05
1.86029e-05
1.77804e-05
1.69165e-05
1.60589e-05
1.51913e-05
1.43232e-05
1.34648e-05
1.26119e-05
1.17729e-05
1.09475e-05
1.01419e-05
9.35892e-06
8.59682e-06
7.86232e-06
7.15683e-06
6.48154e-06
5.83771e-06
5.2264e-06
4.6483e-06
4.10413e-06
3.59378e-06
3.11707e-06
2.67387e-06
2.26413e-06
1.88713e-06
1.54226e-06
1.22894e-06
9.46155e-07
6.92044e-07
4.67612e-07
2.75519e-07
1.38019e-07
1.47654e-07
2.50964e-07
3.55609e-07
4.48143e-07
5.26757e-07
5.90612e-07
6.40545e-07
6.77773e-07
7.03469e-07
7.18412e-07
7.23782e-07
7.21444e-07
7.13283e-07
7.00433e-07
6.83434e-07
6.62425e-07
6.37275e-07
6.07946e-07
5.7442e-07
5.38307e-07
5.01165e-07
4.65416e-07
4.29323e-07
3.97085e-07
3.71057e-07
3.44408e-07
3.18665e-07
2.89184e-07
2.64305e-07
2.06106e-07
2.32705e-07
1.51281e-07
5.07716e-07
4.95999e-07
1.02752e-06
0.241044
0.0761833
0.0175438
0.00201543
0.000439349
1.33793e-06
1.82715e-06
1.92373e-05
2.22249e-05
2.05219e-05
1.94964e-05
1.84502e-05
1.76093e-05
1.672e-05
1.58701e-05
1.50178e-05
1.4185e-05
1.3361e-05
1.25534e-05
1.17638e-05
1.0993e-05
1.02453e-05
9.51733e-06
8.81384e-06
8.13451e-06
7.47991e-06
6.85248e-06
6.25106e-06
5.67507e-06
5.1264e-06
4.606e-06
4.11434e-06
3.65076e-06
3.2152e-06
2.80851e-06
2.43003e-06
2.07949e-06
1.75713e-06
1.46303e-06
1.19712e-06
9.59791e-07
7.52906e-07
5.80892e-07
4.51693e-07
3.78288e-07
3.65558e-07
3.97459e-07
4.51044e-07
5.10911e-07
5.68101e-07
6.17508e-07
6.57518e-07
6.88204e-07
7.09694e-07
7.21929e-07
7.2568e-07
7.22452e-07
7.13908e-07
7.0108e-07
6.84397e-07
6.6392e-07
6.39388e-07
6.10584e-07
5.7749e-07
5.41774e-07
5.04733e-07
4.68518e-07
4.32018e-07
3.9966e-07
3.73198e-07
3.45935e-07
3.2e-07
2.8997e-07
2.65867e-07
2.05443e-07
2.42642e-07
1.24318e-07
5.18602e-07
4.62479e-07
1.06303e-06
0.000891275
0.00479871
0.000669279
6.89276e-06
0
6.90956e-07
1.08264e-05
2.24599e-05
1.85187e-05
1.7319e-05
1.64377e-05
1.56046e-05
1.47978e-05
1.40122e-05
1.32518e-05
1.25138e-05
1.17976e-05
1.10999e-05
1.04218e-05
9.76541e-06
9.13186e-06
8.52045e-06
7.92848e-06
7.35834e-06
6.81079e-06
6.28597e-06
5.78243e-06
5.29836e-06
4.8341e-06
4.39194e-06
3.97268e-06
3.5757e-06
3.20022e-06
2.84701e-06
2.51674e-06
2.20867e-06
1.92302e-06
1.66074e-06
1.42225e-06
1.20769e-06
1.01879e-06
8.57993e-07
7.2772e-07
6.31291e-07
5.71483e-07
5.45238e-07
5.4497e-07
5.6297e-07
5.91897e-07
6.24335e-07
6.54716e-07
6.80611e-07
7.01179e-07
7.1562e-07
7.23072e-07
7.23745e-07
7.18795e-07
7.09371e-07
6.96337e-07
6.79983e-07
6.59988e-07
6.36061e-07
6.08049e-07
5.75788e-07
5.41011e-07
5.04851e-07
4.69133e-07
4.33762e-07
4.02946e-07
3.77137e-07
3.50467e-07
3.25322e-07
2.95941e-07
2.73028e-07
2.15573e-07
2.55222e-07
1.25118e-07
5.18966e-07
4.46394e-07
1.06272e-06
0.000444139
1.23253e-05
0
0
2.85969e-07
4.91042e-06
1.71951e-05
1.56302e-05
1.33081e-05
1.28983e-05
1.23188e-05
1.17459e-05
1.11932e-05
1.06605e-05
1.01422e-05
9.63792e-06
9.14205e-06
8.65508e-06
8.17892e-06
7.71535e-06
7.26457e-06
6.82453e-06
6.39572e-06
5.97981e-06
5.57852e-06
5.19044e-06
4.81358e-06
4.44732e-06
4.09379e-06
3.75545e-06
3.43269e-06
3.12471e-06
2.83132e-06
2.55413e-06
2.29344e-06
2.04896e-06
1.82133e-06
1.61205e-06
1.42111e-06
1.2491e-06
1.09794e-06
9.69067e-07
8.62852e-07
7.80809e-07
7.23227e-07
6.86736e-07
6.67526e-07
6.63048e-07
6.69603e-07
6.81745e-07
6.94966e-07
7.07193e-07
7.17406e-07
7.24129e-07
7.25974e-07
7.22774e-07
7.15258e-07
7.04346e-07
6.90567e-07
6.73918e-07
6.54003e-07
6.30457e-07
6.03062e-07
5.71763e-07
5.38225e-07
5.03331e-07
4.68912e-07
4.35441e-07
4.06643e-07
3.82034e-07
3.565e-07
3.32275e-07
3.03781e-07
2.8244e-07
2.29653e-07
2.6879e-07
1.39553e-07
5.15433e-07
4.33676e-07
1.04699e-06
0
0
0
6.41647e-08
1.13793e-06
1.2359e-05
1.27562e-05
1.02185e-05
9.64064e-06
9.37984e-06
8.94222e-06
8.53929e-06
8.16232e-06
7.80196e-06
7.45693e-06
7.12331e-06
6.79885e-06
6.48418e-06
6.17929e-06
5.88327e-06
5.59409e-06
5.31005e-06
5.03149e-06
4.75923e-06
4.49298e-06
4.23031e-06
3.96976e-06
3.71233e-06
3.46065e-06
3.21679e-06
2.98059e-06
2.75169e-06
2.53078e-06
2.31979e-06
2.11895e-06
1.9285e-06
1.74966e-06
1.58387e-06
1.43088e-06
1.2918e-06
1.16834e-06
1.06096e-06
9.69619e-07
8.95646e-07
8.3857e-07
7.95615e-07
7.65195e-07
7.46968e-07
7.38681e-07
7.36135e-07
7.36062e-07
7.37119e-07
7.38297e-07
7.37791e-07
7.33951e-07
7.26493e-07
7.15957e-07
7.02866e-07
6.87673e-07
6.70111e-07
6.49552e-07
6.25787e-07
5.98698e-07
5.6812e-07
5.35698e-07
5.02081e-07
4.68895e-07
4.37206e-07
4.10119e-07
3.86349e-07
3.61361e-07
3.37334e-07
3.0906e-07
2.89281e-07
2.40451e-07
2.79757e-07
1.5043e-07
5.1356e-07
4.26132e-07
1.03822e-06
0
0
2.10789e-09
3.28261e-08
7.55946e-06
1.03084e-05
8.14118e-06
7.33305e-06
7.31054e-06
7.10059e-06
6.82302e-06
6.57082e-06
6.3185e-06
6.06586e-06
5.81708e-06
5.57203e-06
5.33323e-06
5.10255e-06
4.88082e-06
4.66626e-06
4.4581e-06
4.25558e-06
4.05954e-06
3.86955e-06
3.68338e-06
3.49869e-06
3.31453e-06
3.13237e-06
2.95385e-06
2.77968e-06
2.60901e-06
2.44148e-06
2.27803e-06
2.11991e-06
1.96735e-06
1.82088e-06
1.682e-06
1.55147e-06
1.42928e-06
1.31673e-06
1.21514e-06
1.12441e-06
1.04495e-06
9.78012e-07
9.22734e-07
8.77091e-07
8.41018e-07
8.15084e-07
7.97503e-07
7.85003e-07
7.75482e-07
7.68258e-07
7.62332e-07
7.55706e-07
7.46802e-07
7.35361e-07
7.21776e-07
7.06496e-07
6.89615e-07
6.70585e-07
6.49057e-07
6.24676e-07
5.97437e-07
5.67296e-07
5.3583e-07
5.03068e-07
4.70791e-07
4.40501e-07
4.14659e-07
3.91365e-07
3.66402e-07
3.41734e-07
3.12968e-07
2.94249e-07
2.48461e-07
2.87984e-07
1.56389e-07
5.12188e-07
0
4.34268e-09
7.15486e-08
4.40447e-06
7.20376e-06
6.06198e-06
5.20359e-06
5.2522e-06
5.28796e-06
5.17469e-06
5.06757e-06
4.96588e-06
4.84894e-06
4.72097e-06
4.58441e-06
4.44202e-06
4.29567e-06
4.14678e-06
3.99724e-06
3.84693e-06
3.69722e-06
3.54908e-06
3.40402e-06
3.26246e-06
3.12245e-06
2.98264e-06
2.84374e-06
2.70736e-06
2.5742e-06
2.44413e-06
2.31625e-06
2.19033e-06
2.06697e-06
1.94667e-06
1.82963e-06
1.71651e-06
1.60842e-06
1.50557e-06
1.40814e-06
1.31737e-06
1.23405e-06
1.15793e-06
1.08981e-06
1.03062e-06
9.79211e-07
9.34387e-07
8.96981e-07
8.6775e-07
8.45015e-07
8.2631e-07
8.10585e-07
7.97708e-07
7.86601e-07
7.75228e-07
7.62225e-07
7.47532e-07
7.31476e-07
7.14261e-07
6.95757e-07
6.75461e-07
6.52732e-07
6.27603e-07
6.00085e-07
5.70189e-07
5.39379e-07
5.07225e-07
4.7546e-07
4.46398e-07
4.21688e-07
3.98539e-07
3.73192e-07
3.47709e-07
3.18292e-07
3.00097e-07
2.56488e-07
2.94989e-07
2.36905e-08
2.88897e-07
3.67291e-06
5.82033e-06
5.17796e-06
4.15151e-06
4.02038e-06
4.10097e-06
4.05068e-06
3.95571e-06
3.88083e-06
3.80843e-06
3.73343e-06
3.65914e-06
3.58454e-06
3.50986e-06
3.4335e-06
3.35366e-06
3.26961e-06
3.18064e-06
3.08744e-06
2.99086e-06
2.8913e-06
2.78949e-06
2.68554e-06
2.57967e-06
2.47374e-06
2.36945e-06
2.26734e-06
2.16733e-06
2.06897e-06
1.97213e-06
1.87728e-06
1.78455e-06
1.69404e-06
1.60635e-06
1.52203e-06
1.44105e-06
1.36381e-06
1.29143e-06
1.22415e-06
1.16184e-06
1.10538e-06
1.0552e-06
1.00998e-06
9.69259e-07
9.34219e-07
9.05353e-07
8.80924e-07
8.59298e-07
8.40281e-07
8.24059e-07
8.09507e-07
7.94756e-07
7.78806e-07
7.61697e-07
7.43755e-07
7.25077e-07
7.05284e-07
6.83659e-07
6.59922e-07
6.3394e-07
6.05988e-07
5.76264e-07
5.45879e-07
5.14005e-07
4.82708e-07
4.54788e-07
4.30887e-07
4.07739e-07
3.82052e-07
3.55873e-07
3.25868e-07
3.07894e-07
7.6451e-07
5.17639e-06
6.60901e-06
5.47314e-06
4.54974e-06
4.0633e-06
3.97133e-06
3.84647e-06
3.68713e-06
3.55063e-06
3.42984e-06
3.31224e-06
3.2026e-06
3.10393e-06
3.01513e-06
2.9345e-06
2.86089e-06
2.79269e-06
2.72751e-06
2.66365e-06
2.59972e-06
2.53452e-06
2.46653e-06
2.39409e-06
2.31822e-06
2.23951e-06
2.15899e-06
2.07824e-06
1.99827e-06
1.91938e-06
1.84174e-06
1.76576e-06
1.69177e-06
1.61966e-06
1.54989e-06
1.4826e-06
1.41779e-06
1.35534e-06
1.29587e-06
1.24e-06
1.18773e-06
1.13918e-06
1.09507e-06
1.05521e-06
1.01835e-06
9.84546e-07
9.54912e-07
9.29429e-07
9.06391e-07
8.84858e-07
8.6522e-07
8.47785e-07
8.31437e-07
8.14638e-07
7.96724e-07
7.78005e-07
7.58792e-07
7.38881e-07
7.17891e-07
6.95085e-07
6.70165e-07
6.43344e-07
6.14903e-07
5.84866e-07
5.54654e-07
5.22909e-07
4.91645e-07
4.64559e-07
4.41518e-07
4.18097e-07
3.9201e-07
8.24163e-06
1.1997e-05
7.75515e-06
5.10622e-06
4.80089e-06
4.88361e-06
4.64429e-06
4.25756e-06
3.93994e-06
3.70871e-06
3.50978e-06
3.32249e-06
3.15028e-06
2.99517e-06
2.85466e-06
2.7269e-06
2.6109e-06
2.50685e-06
2.41342e-06
2.32911e-06
2.25243e-06
2.1817e-06
2.11496e-06
2.04978e-06
1.98553e-06
1.92174e-06
1.85815e-06
1.79542e-06
1.73344e-06
1.67232e-06
1.6124e-06
1.5542e-06
1.49828e-06
1.4445e-06
1.39324e-06
1.34418e-06
1.29718e-06
1.25204e-06
1.2094e-06
1.16952e-06
1.13234e-06
1.09787e-06
1.06646e-06
1.03778e-06
1.01076e-06
9.85702e-07
9.63447e-07
9.4346e-07
9.24117e-07
9.05089e-07
8.87023e-07
8.70174e-07
8.53386e-07
8.35657e-07
8.16898e-07
7.97343e-07
7.77136e-07
7.56279e-07
7.34103e-07
7.10124e-07
6.84082e-07
6.55995e-07
6.26443e-07
5.95975e-07
5.65421e-07
5.33352e-07
1.92123e-06
9.64284e-06
8.46277e-06
4.93274e-06
4.44505e-06
4.77767e-06
4.81118e-06
4.51572e-06
4.15891e-06
3.86836e-06
3.63233e-06
3.41965e-06
3.21689e-06
3.02651e-06
2.84842e-06
2.68127e-06
2.52498e-06
2.38046e-06
2.24799e-06
2.12715e-06
2.01812e-06
1.91985e-06
1.83131e-06
1.75107e-06
1.67837e-06
1.61179e-06
1.55118e-06
1.49627e-06
1.44581e-06
1.39906e-06
1.35628e-06
1.31734e-06
1.28168e-06
1.24861e-06
1.21834e-06
1.18983e-06
1.16275e-06
1.13677e-06
1.11253e-06
1.08977e-06
1.06823e-06
1.04811e-06
1.0304e-06
1.01352e-06
9.96898e-07
9.81296e-07
9.6712e-07
9.53422e-07
9.38939e-07
9.23718e-07
9.08496e-07
8.93164e-07
8.76987e-07
8.59259e-07
8.39715e-07
8.19543e-07
7.98772e-07
7.76972e-07
7.53882e-07
7.28585e-07
7.01156e-07
3.72083e-10
2.50278e-09
7.25006e-06
4.68091e-06
3.26979e-06
3.02531e-06
3.27291e-06
3.45428e-06
3.38887e-06
3.21621e-06
3.05951e-06
2.92751e-06
2.79257e-06
2.65088e-06
2.50876e-06
2.36768e-06
2.22873e-06
2.09321e-06
1.96358e-06
1.84115e-06
1.72698e-06
1.62121e-06
1.52445e-06
1.43705e-06
1.35881e-06
1.28926e-06
1.2285e-06
1.17668e-06
1.13342e-06
1.09863e-06
1.07184e-06
1.05208e-06
1.03864e-06
1.03041e-06
1.02584e-06
1.02292e-06
1.02076e-06
1.01877e-06
1.0167e-06
1.01376e-06
1.01076e-06
1.00739e-06
1.00162e-06
9.95681e-07
9.89293e-07
9.82462e-07
9.75585e-07
9.67613e-07
9.57603e-07
9.45934e-07
9.3334e-07
9.19888e-07
9.03876e-07
8.85673e-07
2.45002e-05
2.44227e-07
3.4104e-06
5.20741e-06
3.33493e-06
1.80091e-06
1.43174e-06
1.64633e-06
1.89631e-06
1.96466e-06
1.94723e-06
1.9332e-06
1.91217e-06
1.86848e-06
1.8046e-06
1.72767e-06
1.6408e-06
1.54729e-06
1.45118e-06
1.3554e-06
1.26208e-06
1.17324e-06
1.09057e-06
1.01575e-06
9.49922e-07
8.93795e-07
8.47766e-07
8.12688e-07
7.89572e-07
7.78814e-07
7.78523e-07
7.87701e-07
8.0437e-07
8.26752e-07
8.52029e-07
8.78173e-07
9.03391e-07
9.26543e-07
9.4775e-07
9.67351e-07
9.79383e-07
9.90197e-07
)
;

boundaryField
{
    inlet
    {
        type            calculated;
        value           nonuniform List<scalar> 
13
(
4.27104e-06
4.29965e-06
4.32103e-06
4.33686e-06
4.35049e-06
4.36357e-06
4.389e-06
4.37448e-06
4.29408e-06
4.24609e-06
4.18648e-06
4.1284e-06
4.07583e-06
)
;
    }
    outlet
    {
        type            calculated;
        value           nonuniform List<scalar> 0();
    }
    walls
    {
        type            calculated;
        value           uniform 0;
    }
    frontAndBack
    {
        type            empty;
    }
    procBoundary2to1
    {
        type            processor;
        value           nonuniform List<scalar> 
84
(
55.4935
1.4936
0.285222
0.00447798
0.000412009
5.76895e-08
2.6822e-05
2.6326e-05
2.82483e-05
2.45793e-05
2.50082e-05
2.38454e-05
2.34325e-05
2.26878e-05
2.20466e-05
2.13132e-05
2.05594e-05
1.97722e-05
1.89698e-05
1.81506e-05
1.73098e-05
1.64462e-05
1.55685e-05
1.46876e-05
1.38037e-05
1.29162e-05
1.20319e-05
1.11607e-05
1.0307e-05
9.47454e-06
8.66543e-06
7.8846e-06
7.1373e-06
6.42781e-06
5.75769e-06
5.13064e-06
4.54975e-06
4.01556e-06
4.01556e-06
4.02266e-06
3.54908e-06
3.12723e-06
2.75544e-06
2.43167e-06
2.15388e-06
1.91877e-06
1.72274e-06
1.56116e-06
1.42908e-06
1.32141e-06
1.23335e-06
1.16023e-06
1.09828e-06
1.09828e-06
1.12884e-06
1.06306e-06
1.00162e-06
9.42893e-07
8.86959e-07
8.33094e-07
7.81645e-07
7.32083e-07
6.83877e-07
6.83877e-07
6.43568e-07
5.93362e-07
5.44607e-07
4.98594e-07
4.55734e-07
4.14665e-07
3.73585e-07
3.41754e-07
3.17664e-07
2.91654e-07
2.91654e-07
2.61078e-07
2.3198e-07
1.92519e-07
1.46251e-07
1.10341e-07
7.21797e-08
3.67851e-07
6.14199e-07
1.27988e-06
)
;
    }
    procBoundary2to3
    {
        type            processor;
        value           nonuniform List<scalar> 
88
(
4.2018e-07
1.03312e-06
1.61225e-07
4.2018e-07
5.10487e-07
2.65792e-07
1.61225e-07
3.01941e-07
3.65344e-07
3.3523e-07
2.65792e-07
3.17291e-07
5.02018e-07
4.75657e-07
4.5294e-07
4.2921e-07
3.65344e-07
4.02832e-07
6.72068e-07
6.4123e-07
6.09569e-07
5.78643e-07
5.02018e-07
5.46068e-07
8.67018e-07
8.4616e-07
8.24424e-07
8.01462e-07
7.77109e-07
7.50931e-07
6.72068e-07
7.22192e-07
1.00177e-06
1.00544e-06
1.00711e-06
1.00716e-06
1.00502e-06
1.00034e-06
9.92411e-07
9.82298e-07
9.69993e-07
9.56327e-07
9.40329e-07
8.67018e-07
9.20465e-07
0.0004118
7.13772e-05
4.44863e-07
3.8959e-06
5.31818e-06
4.02323e-06
2.46789e-06
1.82537e-06
1.67964e-06
1.60302e-06
1.4586e-06
1.30791e-06
1.19895e-06
1.10746e-06
1.0206e-06
9.37072e-07
8.56259e-07
7.78648e-07
7.04469e-07
6.34687e-07
5.70316e-07
5.13518e-07
4.668e-07
4.32922e-07
4.14486e-07
4.12589e-07
4.26092e-07
4.52666e-07
4.89504e-07
5.33956e-07
5.8318e-07
6.35444e-07
6.88615e-07
7.41383e-07
7.91535e-07
8.38293e-07
8.81521e-07
9.21784e-07
9.55784e-07
9.86037e-07
1.0116e-06
1.00177e-06
1.02695e-06
)
;
    }
    procBoundary2to6
    {
        type            processor;
        value           nonuniform List<scalar> 
13
(
22.9441
3.626
0.172396
0.00474942
0.00565688
0.00041884
0
0
5.06762e-08
4.36136e-07
9.79479e-08
2.2459e-06
0.000176821
)
;
    }
}


// ************************************************************************* //
