/*--------------------------------*- C++ -*----------------------------------*\
| =========                 |                                                 |
| \\      /  F ield         | OpenFOAM: The Open Source CFD Toolbox           |
|  \\    /   O peration     | Version:  2306                                  |
|   \\  /    A nd           | Website:  www.openfoam.com                      |
|    \\/     M anipulation  |                                                 |
\*---------------------------------------------------------------------------*/
FoamFile
{
    version     2.0;
    format      ascii;
    arch        "LSB;label=32;scalar=64";
    class       volScalarField;
    location    "75";
    object      turbulenceProperties:L;
}
// * * * * * * * * * * * * * * * * * * * * * * * * * * * * * * * * * * * * * //

dimensions      [0 1 0 0 0 0 0];

internalField   nonuniform List<scalar> 
1340
(
0.0560763
0.0561544
0.0562376
0.0569189
0.213691
0.211069
0.207127
0.20332
0.247439
0.248323
0.257161
0.237075
0.22864
0.242507
0.261771
0.257726
0.0472798
0.107156
0.147741
0.244216
0.0354848
0.0578312
0.0675397
0.0685991
0.0514421
0.281905
0.730812
0.0300796
0.0456334
0.0513966
0.0995985
0.458874
0.0414664
0.0421997
0.0397731
0.0567671
0.0453467
0.0470413
0.0443293
0.0430312
0.0445825
0.0455441
0.0442937
0.04172
0.0459317
0.047153
0.0460454
0.0437986
0.046223
0.047375
0.046504
0.0448105
0.0470615
0.0483441
0.0476793
0.046215
0.0477345
0.0490539
0.0486356
0.0474774
0.0485881
0.0499931
0.0497992
0.0488891
0.0494924
0.0509727
0.0510015
0.0503603
0.0505024
0.0520776
0.0523283
0.05195
0.0515914
0.053267
0.0537438
0.0536547
0.0527775
0.0545627
0.0552611
0.0554599
0.05408
0.055984
0.0569053
0.0573963
0.0555221
0.0575548
0.0586995
0.0594814
0.0571107
0.0592876
0.0606613
0.0617353
0.0588478
0.0611837
0.0627962
0.0641812
0.0607552
0.0632672
0.0651285
0.0668255
0.0628685
0.0655756
0.0676995
0.0697217
0.0652069
0.0681351
0.0705416
0.0729002
0.067783
0.0709599
0.0736745
0.0763967
0.07062
0.0740771
0.0771308
0.0802469
0.0737576
0.0775306
0.0809613
0.084508
0.0772426
0.0813809
0.0852354
0.089256
0.0811214
0.0856877
0.0900328
0.0945876
0.085434
0.090504
0.0954261
0.1006
0.0902346
0.0959037
0.101515
0.107425
0.0955999
0.101991
0.108445
0.115251
0.101596
0.108872
0.116381
0.124317
0.108285
0.116649
0.125504
0.134918
0.115752
0.125462
0.136079
0.147496
0.114967
0.124072
0.135476
0.148464
0.162715
0.122807
0.133272
0.146825
0.163037
0.181526
0.131316
0.143399
0.159608
0.180275
0.20542
0.140428
0.154363
0.173824
0.200731
0.237187
0.150018
0.16597
0.18921
0.224605
0.281614
0.159853
0.177806
0.204978
0.250855
0.347113
0.16965
0.189349
0.219955
0.276259
0.439316
0.17906
0.199932
0.232531
0.29448
0.485288
0.18774
0.208936
0.241369
0.300471
0.424193
0.195449
0.216043
0.246208
0.296102
0.364837
0.202109
0.221301
0.247836
0.287085
0.326385
0.207775
0.225045
0.247526
0.277613
0.301315
0.212638
0.227781
0.246433
0.269529
0.284598
0.21698
0.230016
0.245389
0.263401
0.273338
0.211411
0.22108
0.232249
0.244903
0.259187
0.265848
0.216769
0.225204
0.234742
0.245264
0.256817
0.261173
0.222273
0.22963
0.237747
0.246532
0.255991
0.258683
0.228075
0.234409
0.241295
0.248678
0.256539
0.257981
0.234194
0.239635
0.245445
0.251642
0.258202
0.258657
0.240737
0.245307
0.250146
0.255327
0.260792
0.260409
0.247671
0.251476
0.255455
0.259721
0.264215
0.263059
0.255154
0.258207
0.261358
0.26481
0.268458
0.266617
0.263282
0.265654
0.268038
0.270744
0.273601
0.271094
0.2708
0.27246
0.274269
0.275875
0.277812
0.279899
0.276655
0.281682
0.282896
0.284153
0.285111
0.286316
0.287531
0.283512
0.293785
0.294705
0.29555
0.295906
0.296393
0.296757
0.291909
0.306863
0.307572
0.308097
0.307974
0.307879
0.307473
0.301765
0.320679
0.321168
0.32144
0.320954
0.320426
0.319352
0.312883
0.335691
0.335806
0.335773
0.334899
0.333894
0.332135
0.324712
0.353102
0.352777
0.352391
0.351151
0.349676
0.347146
0.338548
0.368588
0.36772
0.366876
0.365381
0.363917
0.361027
0.352222
0.381601
0.38005
0.378642
0.376786
0.37536
0.372598
0.363898
0.397379
0.395137
0.392954
0.390401
0.388486
0.385676
0.377164
0.419566
0.416413
0.413421
0.410112
0.406569
0.403688
0.400374
0.391965
0.44478
0.440903
0.436782
0.432363
0.427547
0.423225
0.418977
0.410962
0.487995
0.482565
0.476087
0.46868
0.46038
0.452206
0.444018
0.431738
0.562492
0.557637
0.550176
0.540295
0.527924
0.514707
0.502293
0.488575
0.630131
0.607396
0.583591
0.560043
0.536942
0.516165
0.496457
0.46977
0.789775
0.775992
0.762858
0.746507
0.718565
0.66888
0.601652
0.543714
0.348513
0.342237
0.336982
0.332522
0.328239
0.323502
0.313168
0.304487
0.276168
0.276994
0.277944
0.27885
0.279494
0.279023
0.275617
0.281672
0.191229
0.191665
0.192171
0.192733
0.193418
0.19409
0.195183
0.202997
0.137979
0.229319
0.237391
0.229953
0.139834
0.0335664
0.0930784
0.118739
0.0473401
0.0460085
0.046437
0.0479931
0.0489081
0.0500794
0.0512247
0.0525162
0.0538997
0.0554172
0.0570716
0.0588623
0.0608198
0.0629493
0.0652788
0.0678216
0.0706012
0.0736637
0.0770272
0.0807339
0.0848348
0.0893902
0.0944729
0.100175
0.106609
0.113927
0.122328
0.132078
0.143531
0.157215
0.173906
0.194816
0.222028
0.259608
0.315819
0.411433
0.581275
0.561993
0.431085
0.362148
0.3226
0.297554
0.281008
0.269832
0.262317
0.257481
0.254789
0.253843
0.254255
0.255706
0.258042
0.261232
0.265343
0.270529
0.276979
0.284949
0.294353
0.305067
0.316569
0.32961
0.342729
0.354546
0.368007
0.382582
0.401611
0.420091
0.475721
0.447713
0.555248
0.303099
0.30667
0.213057
0.251322
0.219596
0.20432
0.119963
0.0683956
0.311074
0.244288
0.0491639
0.0459073
0.0476991
0.0489225
0.0502843
0.051472
0.0528234
0.0542193
0.0557364
0.0573489
0.0590906
0.0609615
0.062974
0.065144
0.067479
0.0700117
0.0727518
0.0757283
0.078972
0.0825077
0.0863851
0.0906624
0.0953904
0.100634
0.106477
0.113035
0.120448
0.128873
0.138546
0.149768
0.162927
0.178553
0.197388
0.220445
0.248895
0.283358
0.321335
0.351128
0.357188
0.342554
0.321562
0.302135
0.286523
0.274821
0.266328
0.260322
0.25635
0.254168
0.253511
0.254078
0.255595
0.257923
0.261049
0.265044
0.270082
0.27638
0.284191
0.29341
0.303988
0.31552
0.32858
0.341624
0.353528
0.367194
0.381783
0.401066
0.418856
0.476488
0.43845
0.612491
0.299902
0.317589
0.209468
0.432423
0.144086
0.108886
0.0908722
0
0.494711
0.067838
0.0460396
0.0502261
0.0518981
0.0532733
0.0546766
0.0561486
0.0577013
0.0593334
0.0610578
0.0628836
0.0648296
0.0669055
0.0691173
0.0714744
0.0739942
0.0767064
0.0796224
0.0827607
0.0861458
0.0898178
0.0938305
0.0982324
0.103058
0.108359
0.114216
0.12073
0.127999
0.136138
0.145322
0.155742
0.167588
0.181095
0.196523
0.213967
0.233155
0.253164
0.271811
0.285679
0.292473
0.292544
0.287828
0.280706
0.273316
0.266898
0.261771
0.257903
0.255287
0.253968
0.25385
0.254724
0.256411
0.258801
0.261895
0.265833
0.270788
0.276956
0.284611
0.293618
0.303953
0.315313
0.32792
0.340229
0.351677
0.364812
0.378648
0.397
0.413327
0.465161
0.427509
0.610531
0.299797
0.323261
0.209498
0.233177
0.0614198
0
0
0.896025
0.109746
0.052562
0.0549255
0.0591742
0.0601371
0.0615379
0.063021
0.0645588
0.0661521
0.0678211
0.0695727
0.0714346
0.0734166
0.0755234
0.0777591
0.0801351
0.082678
0.0854044
0.0883242
0.0914454
0.0948018
0.0984425
0.102415
0.106745
0.11145
0.116571
0.12218
0.128354
0.135139
0.142612
0.15088
0.160031
0.1701
0.181167
0.193238
0.20611
0.219387
0.232497
0.244405
0.253947
0.260606
0.264328
0.265219
0.263917
0.261555
0.259054
0.256805
0.25497
0.253783
0.25346
0.254021
0.255353
0.257324
0.25988
0.263071
0.267047
0.271989
0.278099
0.285611
0.294377
0.304412
0.315388
0.327287
0.338679
0.349416
0.361713
0.374665
0.391845
0.406383
0.450677
0.41658
0.578102
0.300823
0.327967
0.211066
0
0
0
2.56731
0.296337
0.0617455
0.0611976
0.0675606
0.0695237
0.0705276
0.0722276
0.0739124
0.0755998
0.0773258
0.0790944
0.0809254
0.082834
0.0848201
0.0868875
0.0890465
0.0913189
0.0937293
0.0962887
0.0990042
0.101895
0.10501
0.108401
0.112096
0.1161
0.12042
0.1251
0.130199
0.135761
0.1418
0.148368
0.155521
0.163275
0.171607
0.180548
0.190018
0.199804
0.209671
0.219323
0.2282
0.235837
0.242119
0.246884
0.249877
0.251274
0.251708
0.251719
0.251538
0.251337
0.251423
0.25208
0.253371
0.255229
0.257596
0.260426
0.263817
0.267961
0.273002
0.279112
0.286526
0.295071
0.304791
0.315394
0.326627
0.337241
0.34746
0.359272
0.371846
0.388484
0.40155
0.440443
0.408333
0.556814
0.301372
0.330858
0.211956
0
0
10.4515
3.8719
0.0784097
0.0686435
0.0758263
0.0796792
0.0798729
0.0810624
0.0826855
0.0842587
0.0859243
0.0876951
0.0895507
0.0914988
0.0935249
0.0956158
0.0977637
0.0999861
0.102294
0.104699
0.107197
0.109797
0.112537
0.115469
0.118633
0.122033
0.125666
0.129543
0.133712
0.138223
0.143095
0.148335
0.153978
0.160051
0.166527
0.17339
0.180649
0.188211
0.195919
0.203669
0.21127
0.21838
0.224825
0.2306
0.235492
0.239209
0.24183
0.243747
0.245239
0.246388
0.247344
0.248425
0.249902
0.251839
0.254198
0.256933
0.26006
0.263725
0.268063
0.273245
0.279406
0.286734
0.295035
0.304492
0.314759
0.325403
0.33539
0.345226
0.356792
0.369445
0.386052
0.398146
0.433286
0.402459
0.546105
0.301776
0
11.8028
1.96979
0.102991
0.0822604
0.0881844
0.0945651
0.0941878
0.0939437
0.0949519
0.0959422
0.0969214
0.0980832
0.0994036
0.100873
0.102478
0.104209
0.106063
0.108029
0.11012
0.112327
0.114647
0.117065
0.119577
0.122228
0.125059
0.128077
0.131263
0.134614
0.138149
0.141911
0.145932
0.150223
0.154795
0.159668
0.164845
0.170294
0.176013
0.182
0.188165
0.194413
0.2007
0.206876
0.212734
0.218246
0.223418
0.228028
0.231837
0.234934
0.237577
0.23987
0.241798
0.243498
0.245278
0.247361
0.249781
0.252508
0.255533
0.25891
0.262771
0.267308
0.272608
0.278789
0.286006
0.294063
0.303242
0.31321
0.323247
0.332583
0.342105
0.353532
0.366257
0.38281
0.394249
0.426454
0.397652
4.54192
0.653451
0.112986
0.0917465
0.096047
0.105913
0.107584
0.106644
0.107333
0.108596
0.109635
0.110673
0.111779
0.112908
0.114078
0.115285
0.11656
0.11794
0.119447
0.121106
0.12292
0.124889
0.127021
0.129317
0.131796
0.134473
0.137322
0.140311
0.143435
0.146706
0.150152
0.153794
0.157631
0.161673
0.165936
0.170404
0.17506
0.179911
0.184935
0.190045
0.195197
0.200363
0.205415
0.210242
0.214895
0.219363
0.223438
0.226971
0.230096
0.232973
0.235594
0.237901
0.240029
0.242246
0.244714
0.247448
0.250415
0.253621
0.257155
0.261191
0.265848
0.271242
0.277429
0.284495
0.292307
0.301236
0.31085
0.320252
0.329015
0.338224
0.349408
0.362032
0.378335
0.389226
0.349791
0.0947533
0.0848306
0.0930828
0.101355
0.107061
0.108362
0.110142
0.112478
0.114618
0.116624
0.118676
0.120689
0.122592
0.124385
0.126082
0.127694
0.129244
0.13078
0.132338
0.133955
0.135667
0.137524
0.139589
0.141854
0.144325
0.146991
0.149819
0.152787
0.155895
0.159146
0.162533
0.166049
0.169704
0.173481
0.177373
0.181382
0.185512
0.189721
0.193947
0.198168
0.202346
0.20638
0.210241
0.214011
0.217654
0.221004
0.224013
0.226841
0.229584
0.232174
0.234549
0.236843
0.239272
0.241947
0.244841
0.247922
0.251241
0.254888
0.259036
0.263809
0.269253
0.27541
0.282396
0.289986
0.29866
0.308012
0.316867
0.32503
0.334009
0.344942
0.0759066
0.0682669
0.0782845
0.0954234
0.0983901
0.0977363
0.100345
0.104725
0.108805
0.112144
0.11529
0.118497
0.121691
0.124801
0.127835
0.130796
0.13367
0.136416
0.139031
0.141524
0.143913
0.146227
0.148516
0.150858
0.153279
0.155802
0.158445
0.161188
0.164044
0.167014
0.170088
0.173243
0.176445
0.179699
0.182974
0.186282
0.189626
0.193014
0.196386
0.199706
0.202957
0.206118
0.20913
0.212
0.214814
0.217526
0.220024
0.222341
0.224655
0.227004
0.229304
0.231512
0.233778
0.236245
0.238942
0.241854
0.244979
0.248334
0.252058
0.256279
0.261112
0.266644
0.272862
0.279752
0.287212
0.295723
0.182643
0.0736928
0.0780015
0.0970701
0.102327
0.0986769
0.0985329
0.101724
0.105936
0.109813
0.113325
0.116802
0.120428
0.124157
0.127978
0.131907
0.135927
0.139992
0.144058
0.148092
0.152039
0.155882
0.159605
0.16322
0.166717
0.170125
0.173416
0.176569
0.179623
0.182598
0.185455
0.188175
0.190774
0.193283
0.195668
0.197997
0.200289
0.202564
0.204758
0.206885
0.208959
0.210955
0.212759
0.214523
0.216303
0.218015
0.219606
0.221177
0.222876
0.224704
0.226578
0.228514
0.230611
0.232978
0.235674
0.238557
0.241639
0.245006
0.24873
0.253011
0.257913
1.1645
11.0229
0.0855942
0.102462
0.119419
0.123943
0.11922
0.116238
0.117404
0.12046
0.123477
0.126235
0.129255
0.132663
0.136369
0.140372
0.144681
0.149291
0.154139
0.159181
0.164358
0.169634
0.174934
0.180174
0.185288
0.19022
0.194866
0.199109
0.202873
0.206058
0.208617
0.210566
0.211923
0.212767
0.213238
0.213541
0.213766
0.213975
0.214192
0.214501
0.214818
0.215177
0.215795
0.216436
0.217133
0.217886
0.218652
0.21955
0.220694
0.22205
0.223543
0.225171
0.227156
0.229478
0.0557684
0.73116
0.116809
0.100734
0.122057
0.160959
0.18017
0.168102
0.156903
0.154177
0.154791
0.155335
0.156195
0.158015
0.160786
0.164327
0.168622
0.173642
0.1793
0.185526
0.192262
0.199408
0.206827
0.214307
0.221608
0.228459
0.234578
0.239586
0.243066
0.244738
0.244783
0.243351
0.240815
0.237532
0.233981
0.23047
0.22723
0.224372
0.221847
0.219587
0.218233
0.217037
)
;

boundaryField
{
    inlet
    {
        type            calculated;
        value           nonuniform List<scalar> 
13
(
0.113413
0.113035
0.112755
0.112549
0.112373
0.112204
0.111879
0.112064
0.113108
0.113746
0.114553
0.115356
0.116097
)
;
    }
    outlet
    {
        type            calculated;
        value           nonuniform List<scalar> 0();
    }
    walls
    {
        type            calculated;
        value           uniform 0;
    }
    frontAndBack
    {
        type            empty;
    }
    procBoundary2to1
    {
        type            processor;
        value           nonuniform List<scalar> 
84
(
0.0560064
0.216728
0.242458
0.220109
0.0379847
3.4123
0.0419466
0.0421345
0.0406441
0.0435666
0.0431924
0.0442327
0.0446205
0.0453466
0.0460011
0.0467856
0.0476353
0.0485739
0.0495904
0.0506969
0.0519134
0.0532586
0.054739
0.0563563
0.0581324
0.060096
0.0622651
0.0646494
0.067273
0.070166
0.0733685
0.0769155
0.0808416
0.0851861
0.0900067
0.0953478
0.101251
0.107775
0.107775
0.107679
0.114638
0.122125
0.130103
0.138494
0.147153
0.155908
0.164539
0.172843
0.180653
0.187868
0.194459
0.200492
0.206068
0.206068
0.203259
0.209454
0.215782
0.222401
0.229307
0.236605
0.244268
0.252402
0.261147
0.261147
0.269201
0.28036
0.292641
0.305848
0.319909
0.335379
0.353339
0.369428
0.38318
0.3999
0.3999
0.422667
0.448392
0.492204
0.56471
0.650115
0.803683
0.356084
0.275575
0.1909
)
;
    }
    procBoundary2to3
    {
        type            processor;
        value           nonuniform List<scalar> 
88
(
0.333193
0.212478
0.537853
0.333193
0.302279
0.418924
0.537853
0.393047
0.357309
0.373015
0.418924
0.38342
0.304814
0.313149
0.320906
0.329657
0.357309
0.340278
0.263437
0.269698
0.276615
0.283912
0.304814
0.29226
0.231934
0.234775
0.23785
0.241233
0.244985
0.249219
0.263437
0.25413
0.215779
0.215385
0.215205
0.215199
0.215427
0.21593
0.21679
0.217902
0.219279
0.22084
0.22271
0.231934
0.2251
0.087076
0.0521341
0.527242
0.109394
0.101488
0.112133
0.137561
0.159565
0.166446
0.170674
0.178916
0.188848
0.197243
0.20524
0.213795
0.22312
0.233414
0.244772
0.257338
0.271117
0.286008
0.301409
0.316132
0.328267
0.335487
0.336255
0.330884
0.321023
0.308706
0.295576
0.282825
0.270943
0.260271
0.250837
0.242759
0.23589
0.230033
0.224952
0.220914
0.217498
0.214732
0.215779
0.21312
)
;
    }
    procBoundary2to6
    {
        type            processor;
        value           nonuniform List<scalar> 
13
(
0.156017
0.244878
0.398933
0.288882
0.32262
0.204655
0
0
2.75036
0.51559
1.59997
0.143979
0.0762978
)
;
    }
}


// ************************************************************************* //
