/*--------------------------------*- C++ -*----------------------------------*\
| =========                 |                                                 |
| \\      /  F ield         | OpenFOAM: The Open Source CFD Toolbox           |
|  \\    /   O peration     | Version:  2306                                  |
|   \\  /    A nd           | Website:  www.openfoam.com                      |
|    \\/     M anipulation  |                                                 |
\*---------------------------------------------------------------------------*/
FoamFile
{
    version     2.0;
    format      ascii;
    arch        "LSB;label=32;scalar=64";
    class       volSymmTensorField;
    location    "75";
    object      turbulenceProperties:devReff;
}
// * * * * * * * * * * * * * * * * * * * * * * * * * * * * * * * * * * * * * //

dimensions      [0 2 -2 0 0 0 0];

internalField   nonuniform List<symmTensor> 
1340
(
(-3.9927 15.7515 1.23558e-15 3.95318 -3.81372e-17 0.0395139)
(-4.32498 15.1243 1.73182e-15 4.28746 1.02321e-16 0.0375187)
(-4.63372 14.5281 -3.18835e-16 4.59501 -8.54261e-17 0.0387183)
(-4.85563 13.1077 -6.0167e-15 4.82905 -1.10429e-15 0.0265742)
(-0.123473 0.457288 -5.89022e-16 0.150773 7.98383e-17 -0.0272997)
(-0.144775 0.479238 -1.55026e-15 0.170142 3.88264e-16 -0.0253667)
(-0.157279 0.516169 -2.6717e-15 0.187489 -6.45328e-16 -0.0302105)
(-0.210624 0.594814 -1.77494e-15 0.220195 -6.42443e-16 -0.00957031)
(-0.0216244 0.123409 2.29458e-16 0.0220831 1.70841e-16 -0.000458653)
(-0.0353309 0.164878 -1.15365e-15 0.0361486 -7.91693e-16 -0.000817676)
(-0.0344508 0.183347 3.44986e-15 0.0350293 4.71061e-16 -0.000578455)
(-0.0955655 0.321392 5.53991e-15 0.0958802 9.65169e-16 -0.000314721)
(0.00045176 0.00521252 -2.19072e-16 -0.000746064 -1.06975e-17 0.000294304)
(-0.000169985 0.0150075 9.04277e-16 -0.000741035 1.12213e-16 0.00091102)
(0.000380498 0.027608 -5.83295e-16 -0.00144131 -1.8284e-17 0.00106081)
(-0.0139385 0.0959391 -6.67134e-16 0.0105524 1.34956e-16 0.00338609)
(7.6709e-05 -9.57984e-05 -1.30777e-18 -8.99415e-05 -2.457e-18 1.32325e-05)
(0.000234399 -0.000200002 -2.04874e-17 -0.000247437 1.31122e-17 1.30386e-05)
(0.000455653 -0.000143821 5.36274e-17 -0.00041319 9.90313e-18 -4.24634e-05)
(0.0020012 0.00635559 -2.25301e-16 -0.00210841 -5.21191e-17 0.000107213)
(4.0148e-06 -1.14354e-05 1.08714e-18 8.6442e-07 2.19734e-19 -4.87922e-06)
(3.63235e-05 -4.83264e-05 -1.16297e-17 -1.91527e-05 -3.34808e-18 -1.71708e-05)
(0.000108789 -8.4015e-05 -1.51468e-17 -8.3806e-05 -8.56688e-19 -2.4983e-05)
(0.000179019 4.89325e-05 3.94977e-18 -0.000178737 -6.85181e-19 -2.82098e-07)
(3.80791e-06 -3.21903e-06 -2.48889e-19 -5.09452e-06 -1.74002e-20 1.28662e-06)
(3.36973e-06 -2.23895e-06 3.86129e-19 -4.29339e-06 -5.82933e-21 9.23659e-07)
(3.90861e-06 -2.03188e-06 2.84389e-20 -4.44664e-06 -3.95216e-20 5.3802e-07)
(4.72249e-05 1.97594e-07 4.04467e-18 -5.49814e-05 7.35031e-19 7.75653e-06)
(2.03241e-06 -4.52926e-06 3.68274e-19 -8.15019e-07 -1.70789e-21 -1.21739e-06)
(2.47788e-06 -3.39079e-06 -1.85009e-19 -1.51656e-06 3.48377e-20 -9.61322e-07)
(2.69756e-06 -2.08741e-06 3.4387e-20 -2.00801e-06 4.67162e-21 -6.89544e-07)
(3.56142e-06 3.27073e-08 -2.36301e-20 -3.31235e-06 1.44606e-20 -2.4907e-07)
(3.92484e-06 -4.25302e-06 -1.84592e-20 -4.60165e-06 3.28195e-20 6.76816e-07)
(4.41881e-06 -3.3637e-06 1.1712e-19 -5.0777e-06 -6.78049e-20 6.58886e-07)
(5.69209e-06 -2.90541e-06 5.6782e-20 -6.06964e-06 4.86999e-20 3.77544e-07)
(4.73855e-06 2.87509e-07 -3.45093e-20 -5.26832e-06 -1.14671e-20 5.29771e-07)
(2.76571e-06 -4.3817e-06 1.19847e-19 -2.38199e-06 1.22569e-20 -3.83721e-07)
(3.35551e-06 -3.49418e-06 6.02889e-19 -3.04045e-06 1.54594e-19 -3.15058e-07)
(4.61721e-06 -2.90721e-06 -4.91296e-19 -4.20015e-06 -1.17539e-19 -4.17059e-07)
(5.65555e-06 1.63347e-07 2.65109e-19 -5.74077e-06 3.59461e-20 8.52198e-08)
(3.18348e-06 -4.16695e-06 -2.93826e-21 -3.33341e-06 3.48974e-20 1.49926e-07)
(3.76225e-06 -3.29374e-06 -7.16262e-19 -3.93811e-06 -7.1271e-20 1.75855e-07)
(4.70722e-06 -2.55743e-06 7.87544e-19 -4.72779e-06 1.05873e-19 2.05641e-08)
(5.82177e-06 2.14458e-07 2.9536e-19 -6.16912e-06 6.05556e-20 3.47351e-07)
(2.83334e-06 -4.13722e-06 -2.5123e-19 -2.73407e-06 -5.34158e-20 -9.92727e-08)
(3.44834e-06 -3.2679e-06 4.54416e-19 -3.39634e-06 4.24418e-20 -5.20029e-08)
(4.37452e-06 -2.46762e-06 -4.50045e-19 -4.23522e-06 -1.45995e-20 -1.393e-07)
(5.36998e-06 1.38094e-07 -5.47421e-19 -5.57167e-06 -7.45805e-20 2.01685e-07)
(2.84454e-06 -4.0134e-06 2.91653e-19 -2.86777e-06 2.76109e-20 2.32304e-08)
(3.44866e-06 -3.14678e-06 -6.40856e-19 -3.50211e-06 -7.54618e-20 5.34503e-08)
(4.29915e-06 -2.32037e-06 -3.06965e-20 -4.25543e-06 -3.20305e-20 -4.37143e-08)
(5.12489e-06 1.0915e-07 -7.73726e-19 -5.33571e-06 -1.34003e-19 2.10818e-07)
(2.68128e-06 -3.9331e-06 -2.24041e-19 -2.65248e-06 -5.77312e-21 -2.88057e-08)
(3.29211e-06 -3.0709e-06 4.37586e-19 -3.29523e-06 2.04824e-21 3.11739e-09)
(4.09958e-06 -2.2113e-06 7.70711e-20 -4.0322e-06 -2.93796e-21 -6.73781e-08)
(4.84117e-06 6.44946e-08 4.96687e-19 -5.00098e-06 6.9466e-20 1.59805e-07)
(2.58849e-06 -3.82729e-06 5.5124e-20 -2.58421e-06 -1.13919e-20 -4.27785e-09)
(3.19626e-06 -2.97397e-06 1.70495e-19 -3.21789e-06 6.28503e-20 2.16249e-08)
(3.9457e-06 -2.09455e-06 3.20519e-19 -3.90425e-06 6.33686e-20 -4.14554e-08)
(4.59293e-06 2.96919e-08 -2.62257e-19 -4.73455e-06 -3.47346e-20 1.41618e-07)
(2.45915e-06 -3.72302e-06 2.52134e-20 -2.44675e-06 6.68099e-21 -1.23954e-08)
(3.06586e-06 -2.88063e-06 -2.72486e-19 -3.07775e-06 -3.1387e-20 1.18967e-08)
(3.76843e-06 -1.98699e-06 -4.60918e-19 -3.7309e-06 -4.80204e-20 -3.75303e-08)
(4.34035e-06 -2.12852e-09 -2.33856e-19 -4.45855e-06 -3.60722e-20 1.182e-07)
(2.33895e-06 -3.60706e-06 -6.81773e-21 -2.33228e-06 -4.0752e-21 -6.66376e-09)
(2.94041e-06 -2.77894e-06 1.36217e-19 -2.95476e-06 1.94108e-20 1.43512e-08)
(3.59621e-06 -1.87985e-06 -1.58562e-19 -3.5698e-06 -4.33478e-20 -2.64134e-08)
(4.09603e-06 -2.81387e-08 6.35151e-19 -4.19756e-06 9.36017e-20 1.01532e-07)
(2.20961e-06 -3.48803e-06 1.08124e-19 -2.20285e-06 2.43733e-20 -6.75199e-09)
(2.80465e-06 -2.67647e-06 -4.0952e-19 -2.81661e-06 -4.97505e-20 1.19573e-08)
(3.41807e-06 -1.77801e-06 2.80351e-19 -3.39775e-06 3.0488e-20 -2.03228e-08)
(3.85464e-06 -4.98189e-08 -4.90689e-19 -3.9401e-06 -6.78838e-20 8.54608e-08)
(2.07964e-06 -3.36557e-06 -3.19348e-19 -2.07465e-06 -3.74289e-20 -4.99084e-09)
(2.66623e-06 -2.57365e-06 1.20144e-19 -2.67767e-06 -9.19663e-21 1.14415e-08)
(3.23959e-06 -1.68307e-06 2.05371e-19 -3.22497e-06 3.79462e-20 -1.46233e-08)
(3.61857e-06 -7.10477e-08 7.85981e-19 -3.68917e-06 1.11695e-19 7.05975e-08)
(1.94666e-06 -3.24062e-06 1.67233e-19 -1.94242e-06 7.85368e-21 -4.24111e-09)
(2.52354e-06 -2.47143e-06 3.07829e-19 -2.53386e-06 4.84766e-20 1.03188e-08)
(3.06071e-06 -1.59496e-06 -2.16248e-19 -3.05084e-06 -2.38532e-20 -9.86999e-09)
(3.39021e-06 -9.13802e-08 -4.83117e-19 -3.44923e-06 -7.03024e-20 5.90185e-08)
(1.81194e-06 -3.11123e-06 -4.6427e-20 -1.8084e-06 2.00754e-22 -3.54038e-09)
(2.37742e-06 -2.36778e-06 -2.48563e-19 -2.38679e-06 -2.26591e-20 9.36706e-09)
(2.88117e-06 -1.51119e-06 -1.0422e-19 -2.87516e-06 -1.86556e-20 -6.01446e-09)
(3.16797e-06 -1.11378e-07 1.00306e-19 -3.21682e-06 1.58152e-20 4.88456e-08)
(1.67564e-06 -2.97655e-06 1.40043e-20 -1.67268e-06 -1.438e-21 -2.95984e-09)
(2.22833e-06 -2.2617e-06 4.30481e-20 -2.23674e-06 -8.64125e-22 8.41118e-09)
(2.70118e-06 -1.43065e-06 1.40703e-19 -2.69786e-06 1.62129e-20 -3.31844e-09)
(2.95158e-06 -1.28932e-07 -7.86836e-22 -2.99198e-06 -1.91403e-21 4.03963e-08)
(1.53875e-06 -2.83816e-06 9.16279e-20 -1.53609e-06 1.19538e-20 -2.65913e-09)
(2.07705e-06 -2.15426e-06 8.95243e-21 -2.08437e-06 2.9028e-21 7.3179e-09)
(2.52161e-06 -1.35246e-06 1.75998e-19 -2.52041e-06 2.57303e-20 -1.20406e-09)
(2.74111e-06 -1.43541e-07 -1.3343e-19 -2.77455e-06 -1.75373e-20 3.34442e-08)
(1.40242e-06 -2.69803e-06 -7.45205e-20 -1.39993e-06 -7.16361e-21 -2.49135e-09)
(1.92506e-06 -2.04739e-06 -6.87191e-20 -1.93115e-06 -9.3451e-21 6.09016e-09)
(2.34345e-06 -1.27903e-06 -3.62107e-19 -2.3434e-06 -4.57303e-20 -4.22906e-11)
(2.53683e-06 -1.57655e-07 8.24085e-20 -2.56402e-06 1.29125e-20 2.71941e-08)
(1.2675e-06 -2.55588e-06 5.47684e-20 -1.26503e-06 6.0039e-21 -2.46849e-09)
(1.77309e-06 -1.94056e-06 1.47417e-19 -1.77798e-06 1.697e-20 4.88355e-09)
(2.1674e-06 -1.20883e-06 1.42303e-19 -2.16814e-06 1.68116e-20 7.44111e-10)
(2.33983e-06 -1.70815e-07 7.55635e-20 -2.36218e-06 1.07195e-20 2.23527e-08)
(1.13459e-06 -2.41076e-06 -1.35451e-19 -1.13224e-06 -1.50624e-20 -2.34949e-09)
(1.62198e-06 -1.83244e-06 -1.4547e-21 -1.62577e-06 1.06266e-21 3.79198e-09)
(1.99374e-06 -1.14022e-06 2.41387e-19 -1.99471e-06 3.05258e-20 9.72327e-10)
(2.1489e-06 -1.82287e-07 1.16856e-19 -2.16686e-06 1.12367e-20 1.79546e-08)
(1.00467e-06 -2.26388e-06 1.19924e-19 -1.00251e-06 1.20099e-20 -2.16481e-09)
(1.47268e-06 -1.72362e-06 8.83377e-20 -1.47557e-06 1.04244e-20 2.8897e-09)
(1.82332e-06 -1.0727e-06 -1.90649e-19 -1.8243e-06 -2.32969e-20 9.77951e-10)
(1.96457e-06 -1.90964e-07 -2.90927e-19 -1.9789e-06 -3.6872e-20 1.43377e-08)
(8.78781e-07 -2.11698e-06 2.53439e-21 -8.76952e-07 1.12421e-21 -1.82918e-09)
(1.32648e-06 -1.61565e-06 -2.97769e-20 -1.32866e-06 -3.36626e-21 2.17509e-09)
(1.65732e-06 -1.00737e-06 1.37941e-19 -1.6582e-06 1.6065e-20 8.8832e-10)
(1.7873e-06 -1.97767e-07 1.90954e-19 -1.79872e-06 2.46194e-20 1.14169e-08)
(7.57868e-07 -1.97097e-06 -7.589e-21 -7.56406e-07 -9.47614e-22 -1.4626e-09)
(1.18444e-06 -1.50905e-06 -9.19932e-20 -1.18613e-06 -1.11764e-20 1.6874e-09)
(1.4965e-06 -9.44434e-07 -2.00356e-19 -1.4973e-06 -2.43812e-20 8.04267e-10)
(1.61777e-06 -2.03525e-07 -2.36076e-19 -1.62683e-06 -3.2274e-20 9.05768e-09)
(6.42602e-07 -1.82602e-06 -2.92056e-20 -6.41607e-07 -3.44047e-21 -9.95784e-10)
(1.04739e-06 -1.40362e-06 -5.96918e-20 -1.04891e-06 -7.10325e-21 1.51553e-09)
(1.34151e-06 -8.83202e-07 9.86501e-20 -1.34226e-06 1.29899e-20 7.56198e-10)
(1.45601e-06 -2.0799e-07 -1.92987e-20 -1.46321e-06 3.45059e-21 7.19939e-09)
(5.33503e-07 -1.68246e-06 -2.58886e-20 -5.32973e-07 -3.06598e-21 -5.30041e-10)
(9.1575e-07 -1.2993e-06 -1.45974e-20 -9.17141e-07 -9.36898e-22 1.39098e-09)
(1.19281e-06 -8.22881e-07 1.08715e-20 -1.19356e-06 1.00849e-21 7.56303e-10)
(1.30204e-06 -2.10517e-07 2.29633e-19 -1.30765e-06 3.18999e-20 5.61036e-09)
(4.31111e-07 -1.54107e-06 -3.26296e-20 -4.3105e-07 -3.63021e-21 -6.06122e-11)
(7.90395e-07 -1.19629e-06 8.49221e-20 -7.91785e-07 9.69953e-21 1.38964e-09)
(1.05086e-06 -7.63311e-07 3.42103e-20 -1.05156e-06 3.00528e-21 6.99487e-10)
(1.15581e-06 -2.10511e-07 2.23787e-19 -1.16014e-06 2.19564e-20 4.33183e-09)
(3.35998e-07 -1.40306e-06 -1.00882e-20 -3.3637e-07 -4.85482e-22 3.71918e-10)
(6.7189e-07 -1.09568e-06 -2.83402e-20 -6.73278e-07 -3.32719e-21 1.38739e-09)
(9.1628e-07 -7.05186e-07 -8.23586e-20 -9.16811e-07 -1.01102e-20 5.30925e-10)
(1.01778e-06 -2.08396e-07 -1.99841e-19 -1.02107e-06 -2.92239e-20 3.2868e-09)
(2.48551e-07 -1.26919e-06 6.32408e-20 -2.49255e-07 6.89664e-21 7.03804e-10)
(5.60949e-07 -9.97754e-07 3.61594e-20 -5.62336e-07 3.04412e-21 1.38782e-09)
(7.89668e-07 -6.48341e-07 -1.78218e-22 -7.9009e-07 1.93574e-21 4.21647e-10)
(8.88083e-07 -2.0447e-07 -1.40944e-19 -8.90546e-07 -1.36222e-20 2.46295e-09)
(1.69116e-07 -1.13974e-06 -1.39569e-20 -1.7013e-07 -1.7641e-21 1.01366e-09)
(4.5791e-07 -9.0256e-07 -1.26272e-19 -4.5936e-07 -1.38704e-20 1.45012e-09)
(6.71276e-07 -5.92522e-07 9.89632e-20 -6.71569e-07 1.00536e-20 2.93677e-10)
(7.66756e-07 -1.98374e-07 6.74244e-20 -7.68448e-07 8.1685e-21 1.69187e-09)
(9.77017e-08 -1.01557e-06 2.20197e-20 -9.89271e-08 2.29002e-21 1.22539e-09)
(3.63123e-07 -8.10567e-07 8.0338e-20 -3.64579e-07 9.82805e-21 1.45676e-09)
(5.61386e-07 -5.37865e-07 -1.22161e-19 -5.61581e-07 -1.45122e-20 1.94467e-10)
(6.53827e-07 -1.89959e-07 -1.26755e-19 -6.54992e-07 -1.53733e-20 1.16538e-09)
(3.45883e-08 -8.97479e-07 -2.12193e-20 -3.60606e-08 -2.13861e-21 1.47225e-09)
(2.76916e-07 -7.22467e-07 -3.81256e-20 -2.78456e-07 -5.00288e-21 1.53966e-09)
(4.60341e-07 -4.84872e-07 6.09834e-20 -4.60444e-07 7.47664e-21 1.03433e-10)
(5.49544e-07 -1.79821e-07 3.92344e-20 -5.50275e-07 8.85634e-21 7.31094e-10)
(-2.02985e-08 -7.85817e-07 3.58426e-20 1.84836e-08 4.29114e-21 1.81489e-09)
(1.99427e-07 -6.38418e-07 8.52849e-21 -2.01088e-07 8.2358e-22 1.66078e-09)
(3.68225e-07 -4.33409e-07 -7.43425e-20 -3.68371e-07 -7.6024e-21 1.46148e-10)
(4.53795e-07 -1.67905e-07 1.77111e-19 -4.54319e-07 1.99874e-20 5.23875e-10)
(-2.91797e-07 -7.41931e-07 -2.33139e-20 2.89694e-07 -1.71947e-21 2.1029e-09)
(-6.75428e-08 -6.80949e-07 9.90596e-21 6.56577e-08 -5.44177e-22 1.88503e-09)
(1.304e-07 -5.58624e-07 -4.32539e-20 -1.32182e-07 -2.95349e-21 1.78209e-09)
(2.84937e-07 -3.83507e-07 1.30139e-19 -2.85162e-07 1.5919e-20 2.25097e-10)
(3.66487e-07 -1.5415e-07 -2.69571e-20 -3.66934e-07 -5.31067e-21 4.47653e-10)
(-3.05513e-07 -6.28467e-07 6.39349e-20 3.03666e-07 7.01215e-21 1.84691e-09)
(-1.07348e-07 -5.83371e-07 -1.04836e-19 1.05599e-07 -1.1564e-20 1.74927e-09)
(6.9737e-08 -4.83441e-07 1.62726e-19 -7.1603e-08 1.77477e-20 1.86598e-09)
(2.10414e-07 -3.3564e-07 7.88686e-21 -2.10796e-07 -2.63519e-21 3.82262e-10)
(2.875e-07 -1.39088e-07 8.12542e-21 -2.88061e-07 1.20345e-21 5.60403e-10)
(-3.1373e-07 -5.24594e-07 -1.83287e-20 3.12111e-07 -3.03409e-21 1.6185e-09)
(-1.39934e-07 -4.92988e-07 2.04873e-20 1.3817e-07 4.24091e-21 1.76383e-09)
(1.72642e-08 -4.13056e-07 -9.19083e-20 -1.92714e-08 -1.24645e-20 2.00716e-09)
(1.44496e-07 -2.89957e-07 -1.47148e-19 -1.4509e-07 -1.62989e-20 5.94288e-10)
(2.16779e-07 -1.23063e-07 -4.00362e-21 -2.17537e-07 -1.89373e-21 7.58522e-10)
(-3.17109e-07 -4.30332e-07 -2.52422e-20 3.15747e-07 -2.07705e-21 1.3624e-09)
(-1.65977e-07 -4.10037e-07 6.26065e-20 1.64365e-07 7.4432e-21 1.61189e-09)
(-2.75656e-08 -3.47588e-07 -1.70346e-20 2.55861e-08 -2.42993e-22 1.97949e-09)
(8.66822e-08 -2.46503e-07 5.45259e-20 -8.73735e-08 8.306e-21 6.91358e-10)
(1.53736e-07 -1.0617e-07 -9.36548e-20 -1.54684e-07 -9.5843e-21 9.48118e-10)
(-3.16314e-07 -3.45513e-07 4.20588e-20 3.15149e-07 5.03832e-21 1.16563e-09)
(-1.86029e-07 -3.34506e-07 5.12203e-20 1.84545e-07 4.87956e-21 1.48404e-09)
(-6.51732e-08 -2.87126e-07 4.89046e-20 6.323e-08 5.05981e-21 1.9432e-09)
(3.66825e-08 -2.05481e-07 1.56581e-20 -3.74472e-08 2.00615e-21 7.64722e-10)
(9.82501e-08 -8.87366e-08 9.10413e-20 -9.93719e-08 1.22571e-20 1.1218e-09)
(-3.11944e-07 -2.70043e-07 6.16979e-21 3.1099e-07 1.52399e-22 9.53245e-10)
(-2.0057e-07 -2.66533e-07 -1.51947e-20 1.99283e-07 -3.01801e-21 1.28725e-09)
(-9.59458e-08 -2.31981e-07 -5.68423e-20 9.41281e-08 -6.55248e-21 1.81771e-09)
(-5.90516e-09 -1.67297e-07 6.70125e-20 5.14946e-09 6.82414e-21 7.55697e-10)
(4.99422e-08 -7.12856e-08 4.4495e-20 -5.12058e-08 3.8511e-21 1.26356e-09)
(-3.04653e-07 -2.03403e-07 -3.8257e-21 3.03907e-07 -3.33031e-22 7.45433e-10)
(-2.10316e-07 -2.05716e-07 -6.23575e-20 2.09216e-07 -6.7669e-21 1.10002e-09)
(-1.20551e-07 -1.81857e-07 4.00947e-20 1.18856e-07 4.9524e-21 1.69539e-09)
(-4.15892e-08 -1.31724e-07 -4.92894e-20 4.08281e-08 -7.16323e-21 7.61066e-10)
(8.47476e-09 -5.37524e-08 -1.715e-20 -9.92734e-09 -3.72295e-21 1.45259e-09)
(-2.95065e-07 -1.45065e-07 1.36438e-20 2.9452e-07 1.46933e-21 5.45622e-10)
(-2.15877e-07 -1.51791e-07 1.26089e-20 2.14976e-07 2.8255e-21 9.0128e-10)
(-1.39581e-07 -1.36687e-07 -2.4485e-20 1.38029e-07 -3.30437e-21 1.55198e-09)
(-7.09479e-08 -9.887e-08 -5.46641e-20 7.01812e-08 -4.90829e-21 7.66683e-10)
(-2.67541e-08 -3.63746e-08 -9.95142e-20 2.5047e-08 -1.0559e-20 1.70713e-09)
(-2.83726e-07 -9.45288e-08 -1.21632e-20 2.83352e-07 -1.35431e-21 3.74303e-10)
(-2.17896e-07 -1.0447e-07 6.03642e-20 2.17155e-07 6.25268e-21 7.40877e-10)
(-1.53686e-07 -9.64057e-08 -3.89973e-21 1.52233e-07 -2.36908e-22 1.4532e-09)
(-9.45569e-08 -6.89005e-08 6.21663e-20 9.37581e-08 8.03634e-21 7.98782e-10)
(-5.60746e-08 -1.95872e-08 6.25101e-20 5.41007e-08 7.24036e-21 1.97391e-09)
(-2.71097e-07 -5.11896e-08 1.95566e-20 2.70869e-07 2.77078e-21 2.27965e-10)
(-2.16919e-07 -6.33438e-08 -4.74968e-20 2.16343e-07 -6.78114e-21 5.75343e-10)
(-1.63424e-07 -6.08551e-08 -6.69611e-21 1.62117e-07 -5.20094e-22 1.30722e-09)
(-1.1299e-07 -4.1864e-08 2.23297e-20 1.12245e-07 2.644e-21 7.44774e-10)
(-8.00654e-08 -3.69881e-09 -9.73219e-20 7.7914e-08 -1.17899e-20 2.15147e-09)
(-2.57572e-07 -1.44249e-08 3.76614e-20 2.57434e-07 3.95992e-21 1.38475e-10)
(-2.13514e-07 -2.79411e-08 -6.1747e-20 2.13064e-07 -6.61903e-21 4.50311e-10)
(-1.69492e-07 -2.97216e-08 1.78187e-20 1.68328e-07 1.71339e-21 1.16427e-09)
(-1.26915e-07 -1.75916e-08 6.5219e-20 1.26287e-07 7.57127e-21 6.2784e-10)
(-9.92851e-08 1.13132e-08 1.02853e-20 9.70879e-08 1.9873e-21 2.19714e-09)
(-2.43543e-07 1.6332e-08 -2.15975e-20 2.43444e-07 -2.67444e-21 9.97225e-11)
(-2.0818e-07 2.07335e-09 2.82199e-21 2.07837e-07 1.27465e-21 3.42935e-10)
(-1.72415e-07 -2.91221e-09 -3.61424e-20 1.71418e-07 -4.43271e-21 9.96806e-10)
(-1.36864e-07 3.78861e-09 2.37486e-20 1.36419e-07 1.28033e-21 4.45147e-10)
(-1.14305e-07 2.51686e-08 -2.44078e-20 1.12148e-07 -3.30509e-21 2.15736e-09)
(-2.29311e-07 4.14832e-08 2.21509e-20 2.29263e-07 2.71642e-21 4.80338e-11)
(-2.01358e-07 2.70087e-08 3.28974e-20 2.01146e-07 3.26368e-21 2.11664e-10)
(-1.72756e-07 1.97505e-08 -2.66951e-21 1.71941e-07 8.59424e-22 8.15086e-10)
(-1.43433e-07 2.22292e-08 -7.12384e-20 1.43183e-07 -9.16077e-21 2.4997e-10)
(-1.25525e-07 3.75771e-08 -3.84302e-20 1.23445e-07 -4.09561e-21 2.07988e-09)
(-2.15132e-07 6.16255e-08 -8.94978e-21 2.15126e-07 -1.36643e-21 5.95175e-12)
(-1.93465e-07 4.72927e-08 -5.87618e-20 1.93408e-07 -7.32128e-21 5.73654e-11)
(-1.70964e-07 3.85019e-08 7.99483e-20 1.7038e-07 9.7274e-21 5.84435e-10)
(-1.4707e-07 3.77982e-08 -5.98724e-20 1.47074e-07 -5.47933e-21 -3.9985e-12)
(-1.33397e-07 4.83803e-08 1.52295e-20 1.31441e-07 1.99522e-21 1.95596e-09)
(-2.15395e-07 9.55107e-08 4.85996e-21 2.15633e-07 3.1342e-22 -2.37982e-10)
(-2.01186e-07 7.72399e-08 -1.21256e-20 2.01308e-07 -1.89728e-21 -1.22556e-10)
(-1.84725e-07 6.33195e-08 -1.21932e-20 1.8483e-07 -9.54743e-23 -1.05082e-10)
(-1.67448e-07 5.36842e-08 3.45135e-20 1.67062e-07 2.87476e-21 3.86001e-10)
(-1.48291e-07 5.07211e-08 7.91125e-20 1.48516e-07 1.04398e-20 -2.25261e-10)
(-1.38366e-07 5.76108e-08 -1.14215e-20 1.36556e-07 -1.67009e-21 1.80968e-09)
(-1.9773e-07 1.05457e-07 -1.34736e-20 1.98014e-07 -1.39002e-21 -2.84313e-10)
(-1.87681e-07 8.88271e-08 -6.49653e-20 1.87897e-07 -7.5148e-21 -2.15199e-10)
(-1.75522e-07 7.56332e-08 9.30494e-20 1.75684e-07 1.07597e-20 -1.62147e-10)
(-1.62553e-07 6.55522e-08 -4.67643e-20 1.62276e-07 -5.5674e-21 2.77913e-10)
(-1.47426e-07 6.10448e-08 6.06949e-20 1.47804e-07 6.32236e-21 -3.78007e-10)
(-1.40844e-07 6.52048e-08 -2.34417e-20 1.39143e-07 -2.4823e-21 1.7008e-09)
(-1.8135e-07 1.11904e-07 3.51923e-20 1.81707e-07 4.40685e-21 -3.57493e-10)
(-1.74568e-07 9.69196e-08 1.52566e-20 1.74879e-07 2.23873e-21 -3.11085e-10)
(-1.66004e-07 8.45218e-08 -4.68324e-20 1.66253e-07 -6.24834e-21 -2.48873e-10)
(-1.56676e-07 7.43642e-08 3.10931e-20 1.56494e-07 3.86089e-21 1.81341e-10)
(-1.45036e-07 6.88826e-08 -7.38767e-21 1.45497e-07 -1.57697e-21 -4.61222e-10)
(-1.41301e-07 7.10278e-08 1.78828e-20 1.39678e-07 2.29564e-21 1.62269e-09)
(-1.66194e-07 1.15428e-07 1.00038e-20 1.66651e-07 6.99868e-22 -4.56634e-10)
(-1.62149e-07 1.02018e-07 -1.07456e-20 1.62536e-07 -1.09431e-21 -3.86749e-10)
(-1.56517e-07 9.05295e-08 1.15469e-20 1.56831e-07 1.8848e-21 -3.14668e-10)
(-1.50171e-07 8.05528e-08 -2.84848e-20 1.50063e-07 -3.29489e-21 1.07531e-10)
(-1.41413e-07 7.44905e-08 -1.93146e-20 1.41974e-07 -2.31317e-21 -5.60279e-10)
(-1.40079e-07 7.51095e-08 -1.15283e-21 1.38573e-07 -1.03056e-22 1.50588e-09)
(-1.52342e-07 1.16668e-07 -3.81632e-20 1.52846e-07 -4.57591e-21 -5.03856e-10)
(-1.50389e-07 1.04732e-07 4.3829e-20 1.50868e-07 5.7019e-21 -4.79616e-10)
(-1.4714e-07 9.41897e-08 1.86163e-20 1.47551e-07 1.85949e-21 -4.10834e-10)
(-1.43265e-07 8.45726e-08 4.42891e-20 1.43277e-07 5.25976e-21 -1.17212e-11)
(-1.3695e-07 7.82375e-08 -1.09453e-20 1.37638e-07 -1.00757e-21 -6.87686e-10)
(-1.37589e-07 7.77491e-08 2.41554e-20 1.36253e-07 2.50564e-21 1.3367e-09)
(-1.39631e-07 1.16097e-07 1.8104e-20 1.40126e-07 2.40931e-21 -4.95319e-10)
(-1.39421e-07 1.05564e-07 4.7716e-20 1.39909e-07 5.36077e-21 -4.87745e-10)
(-1.38102e-07 9.59811e-08 -4.13339e-20 1.38546e-07 -4.81484e-21 -4.44231e-10)
(-1.36214e-07 8.68658e-08 -3.65102e-20 1.3632e-07 -5.14947e-21 -1.05926e-10)
(-1.31878e-07 8.05482e-08 1.5464e-20 1.32726e-07 1.85458e-21 -8.47125e-10)
(-1.34177e-07 7.92325e-08 -5.06031e-20 1.33062e-07 -5.75533e-21 1.11497e-09)
(-1.2811e-07 1.14196e-07 -7.10134e-21 1.28444e-07 -1.39178e-21 -3.34053e-10)
(-1.29177e-07 1.04927e-07 -2.1333e-20 1.29595e-07 -2.50962e-21 -4.17147e-10)
(-1.29368e-07 9.62763e-08 4.52359e-20 1.298e-07 5.68094e-21 -4.31836e-10)
(-1.29111e-07 8.77514e-08 -6.51724e-20 1.29272e-07 -7.5156e-21 -1.61251e-10)
(-1.26439e-07 8.16081e-08 -1.39481e-20 1.27419e-07 -1.80492e-21 -9.79898e-10)
(-1.3011e-07 7.97337e-08 6.62267e-20 1.29248e-07 7.90113e-21 8.6136e-10)
(-1.17585e-07 1.11098e-07 -7.30109e-20 1.17712e-07 -8.79028e-21 -1.26852e-10)
(-1.19685e-07 1.03001e-07 6.08107e-20 1.19966e-07 7.21293e-21 -2.81089e-10)
(-1.21105e-07 9.52717e-08 -1.23485e-20 1.21448e-07 -1.55969e-21 -3.43486e-10)
(-1.22114e-07 8.73847e-08 1.30612e-20 1.22282e-07 2.06811e-21 -1.68167e-10)
(-1.20758e-07 8.15336e-08 5.74673e-21 1.2186e-07 2.81622e-22 -1.1016e-09)
(-1.25545e-07 7.92363e-08 -5.02174e-20 1.24919e-07 -6.22205e-21 6.26536e-10)
(-1.08027e-07 1.06992e-07 2.27823e-20 1.07838e-07 3.09696e-21 1.89308e-10)
(-1.10906e-07 9.98823e-08 -6.37267e-20 1.10961e-07 -8.0981e-21 -5.51648e-11)
(-1.13234e-07 9.30215e-08 4.14824e-20 1.13457e-07 5.21197e-21 -2.23114e-10)
(-1.15219e-07 8.578e-08 1.48415e-20 1.1539e-07 1.55383e-21 -1.71136e-10)
(-1.14944e-07 8.03081e-08 -7.37532e-20 1.1615e-07 -9.03515e-21 -1.20531e-09)
(-1.20626e-07 7.77494e-08 3.36784e-20 1.20214e-07 4.4404e-21 4.1173e-10)
(-9.52765e-08 1.07844e-07 7.20524e-22 9.45107e-08 -2.5719e-22 7.65875e-10)
(-9.91817e-08 1.0174e-07 -1.5051e-20 9.86668e-08 -1.83068e-21 5.1482e-10)
(-1.02593e-07 9.54398e-08 1.12576e-20 1.0237e-07 1.84032e-21 2.22958e-10)
(-1.05686e-07 8.93928e-08 1.32559e-20 1.05665e-07 1.36514e-21 2.04002e-11)
(-1.08421e-07 8.28666e-08 -3.17707e-20 1.08491e-07 -3.69943e-21 -7.00103e-11)
(-1.09005e-07 7.78727e-08 -1.44987e-20 1.10199e-07 -1.58905e-21 -1.19356e-09)
(-1.15399e-07 7.52461e-08 1.83585e-20 1.15083e-07 1.90831e-21 3.15858e-10)
(-8.66459e-08 1.00996e-07 -7.12626e-20 8.56819e-08 -8.87336e-21 9.6394e-10)
(-9.0987e-08 9.55035e-08 2.62588e-20 9.01566e-08 3.58705e-21 8.3037e-10)
(-9.4828e-08 8.99224e-08 2.23619e-20 9.42138e-08 2.51845e-21 6.14198e-10)
(-9.8415e-08 8.45313e-08 -7.57447e-21 9.80278e-08 -1.20421e-21 3.87215e-10)
(-1.01699e-07 7.86791e-08 4.47707e-20 1.01492e-07 5.85559e-21 2.06904e-10)
(-1.0306e-07 7.42327e-08 -4.61927e-20 1.04034e-07 -5.00409e-21 -9.7361e-10)
(-1.09939e-07 7.16416e-08 -2.39388e-20 1.09532e-07 -3.16946e-21 4.07195e-10)
(-7.86301e-08 9.37552e-08 -1.81211e-21 7.76161e-08 1.68347e-22 1.01396e-09)
(-8.32448e-08 8.86976e-08 5.0074e-20 8.21682e-08 6.09431e-21 1.07654e-09)
(-8.74265e-08 8.35735e-08 -3.94699e-20 8.64225e-08 -5.02862e-21 1.00408e-09)
(-9.14253e-08 7.86829e-08 -4.53249e-20 9.05616e-08 -5.56136e-21 8.63728e-10)
(-9.5139e-08 7.34156e-08 3.69051e-20 9.44566e-08 4.59452e-21 6.82396e-10)
(-9.71182e-08 6.94571e-08 9.59472e-20 9.76344e-08 1.19232e-20 -5.16116e-10)
(-1.04262e-07 6.69515e-08 -3.33475e-20 1.03561e-07 -4.33473e-21 7.01644e-10)
(-7.12224e-08 8.6555e-08 1.76834e-20 7.04849e-08 2.09496e-21 7.37453e-10)
(-7.60729e-08 8.17846e-08 -2.29733e-21 7.50132e-08 -3.27111e-22 1.05966e-09)
(-8.05237e-08 7.69647e-08 -4.13135e-21 7.93092e-08 -2.93563e-22 1.21452e-09)
(-8.48287e-08 7.23915e-08 -2.14497e-21 8.35626e-08 -1.51058e-22 1.26611e-09)
(-8.88419e-08 6.74968e-08 6.40963e-20 8.7673e-08 7.57602e-21 1.16886e-09)
(-9.131e-08 6.38693e-08 -1.07979e-20 9.12724e-08 -1.76222e-21 3.76522e-11)
(-9.85242e-08 6.14688e-08 -8.9236e-20 9.7417e-08 -1.07106e-20 1.1072e-09)
(-6.44592e-08 7.96619e-08 -3.6303e-20 6.43079e-08 -4.55554e-21 1.51356e-10)
(-6.9443e-08 7.51773e-08 4.39255e-20 6.87549e-08 5.41746e-21 6.88078e-10)
(-7.41016e-08 7.05635e-08 1.10602e-20 7.30043e-08 1.61984e-21 1.09734e-09)
(-7.86398e-08 6.61457e-08 -2.39856e-20 7.72501e-08 -3.18852e-21 1.38965e-09)
(-8.28688e-08 6.14293e-08 -3.13772e-20 8.13934e-08 -3.87106e-21 1.47539e-09)
(-8.57412e-08 5.79672e-08 1.14181e-20 8.52e-08 1.28618e-21 5.41189e-10)
(-9.28891e-08 5.55612e-08 8.71624e-21 9.13193e-08 1.76333e-21 1.56981e-09)
(-5.83158e-08 7.28528e-08 1.57977e-20 5.87828e-08 1.93153e-21 -4.66983e-10)
(-6.33098e-08 6.87516e-08 -2.52225e-20 6.31356e-08 -3.31476e-21 1.74189e-10)
(-6.80479e-08 6.43936e-08 6.50575e-20 6.72953e-08 7.91843e-21 7.52604e-10)
(-7.27426e-08 6.01277e-08 -5.1875e-20 7.14751e-08 -6.34725e-21 1.26752e-09)
(-7.71668e-08 5.55435e-08 7.27613e-20 7.56026e-08 9.04446e-21 1.56418e-09)
(-8.03587e-08 5.22249e-08 -3.96782e-20 7.9471e-08 -5.03205e-21 8.87721e-10)
(-8.747e-08 4.98947e-08 8.07663e-20 8.55035e-08 9.96613e-21 1.96653e-09)
(-5.34875e-08 6.49374e-08 -4.12734e-20 5.45214e-08 -5.49732e-21 -1.03385e-09)
(-5.83139e-08 6.11282e-08 -1.0189e-21 5.87313e-08 -4.93493e-23 -4.17332e-10)
(-6.29631e-08 5.69484e-08 -2.87554e-20 6.27357e-08 -3.69184e-21 2.27378e-10)
(-6.76363e-08 5.27239e-08 -1.65608e-21 6.67316e-08 3.47704e-23 9.04728e-10)
(-7.21253e-08 4.80828e-08 -1.26078e-20 7.07425e-08 -2.04005e-21 1.38283e-09)
(-7.56369e-08 4.46073e-08 -2.06758e-20 7.46371e-08 -2.33157e-21 9.99771e-10)
(-8.26266e-08 4.21899e-08 2.88621e-20 8.05094e-08 2.97502e-21 2.11721e-09)
(-4.94068e-08 5.91088e-08 -5.98512e-20 5.08207e-08 -7.36078e-21 -1.41392e-09)
(-5.40663e-08 5.56154e-08 -9.04752e-21 5.49607e-08 -1.00049e-21 -8.94325e-10)
(-5.86275e-08 5.16724e-08 3.47163e-20 5.88858e-08 4.42189e-21 -2.58279e-10)
(-6.321e-08 4.75109e-08 -5.37806e-23 6.27334e-08 -1.16275e-22 4.76622e-10)
(-6.75546e-08 4.27778e-08 -3.01201e-20 6.64799e-08 -3.93322e-21 1.07466e-09)
(-7.11872e-08 3.90501e-08 2.98541e-21 7.02602e-08 1.09185e-21 9.26907e-10)
(-7.78181e-08 3.60916e-08 -4.5272e-20 7.57239e-08 -6.05907e-21 2.09413e-09)
(-4.56608e-08 5.54616e-08 8.64965e-21 4.70823e-08 1.42425e-21 -1.4215e-09)
(-5.01615e-08 5.23994e-08 2.61714e-20 5.12008e-08 3.29769e-21 -1.03928e-09)
(-5.46408e-08 4.88169e-08 -2.04736e-20 5.51328e-08 -2.70929e-21 -4.91966e-10)
(-5.91628e-08 4.48839e-08 -2.88143e-20 5.89646e-08 -3.788e-21 1.98265e-10)
(-6.3383e-08 4.02607e-08 -5.44926e-20 6.25496e-08 -6.40735e-21 8.3333e-10)
(-6.68885e-08 3.65122e-08 1.16025e-19 6.60777e-08 1.41765e-20 8.10779e-10)
(-7.32605e-08 3.3145e-08 -7.76248e-20 7.11921e-08 -9.07694e-21 2.06841e-09)
(-4.21747e-08 5.10447e-08 2.4499e-20 4.35748e-08 3.12568e-21 -1.40009e-09)
(-4.63993e-08 4.83521e-08 -8.55869e-21 4.75966e-08 -1.23371e-21 -1.19728e-09)
(-5.06623e-08 4.51896e-08 7.79676e-21 5.14798e-08 1.01593e-21 -8.17533e-10)
(-5.50705e-08 4.15931e-08 -4.49807e-20 5.52848e-08 -5.65402e-21 -2.14322e-10)
(-5.9225e-08 3.72162e-08 6.82536e-20 5.88264e-08 8.69258e-21 3.98568e-10)
(-6.25526e-08 3.36072e-08 -6.67058e-20 6.20727e-08 -8.57472e-21 4.79908e-10)
(-6.85495e-08 2.99987e-08 9.19003e-20 6.67019e-08 1.16139e-20 1.84758e-09)
(-3.51458e-08 4.79919e-08 3.32209e-20 3.62253e-08 4.25843e-21 -1.07952e-09)
(-3.88176e-08 4.6141e-08 1.70043e-20 4.00825e-08 2.1532e-21 -1.26498e-09)
(-4.26475e-08 4.38255e-08 -1.4718e-20 4.39e-08 -1.93883e-21 -1.25249e-09)
(-4.67195e-08 4.10945e-08 -1.32568e-20 4.7722e-08 -1.78577e-21 -1.00253e-09)
(-5.09241e-08 3.79062e-08 -2.9335e-20 5.14803e-08 -3.47294e-21 -5.56149e-10)
(-5.49643e-08 3.39385e-08 -2.90375e-20 5.50261e-08 -3.74753e-21 -6.18277e-11)
(-5.80832e-08 3.0657e-08 7.5442e-20 5.81299e-08 9.71536e-21 -4.67876e-11)
(-6.36881e-08 2.68563e-08 -4.24829e-20 6.23845e-08 -5.54511e-21 1.30361e-09)
(-3.22527e-08 4.19831e-08 -1.66977e-20 3.31549e-08 -2.08491e-21 -9.02158e-10)
(-3.56115e-08 4.02572e-08 2.81809e-20 3.68062e-08 3.38395e-21 -1.19469e-09)
(-3.91418e-08 3.82065e-08 -2.93145e-20 4.04485e-08 -3.50244e-21 -1.30673e-09)
(-4.2885e-08 3.57593e-08 -2.58585e-20 4.41008e-08 -3.37736e-21 -1.21583e-09)
(-4.68218e-08 3.2887e-08 2.4158e-20 4.77427e-08 2.97812e-21 -9.20891e-10)
(-5.06722e-08 2.93374e-08 4.80424e-20 5.12172e-08 6.44984e-21 -5.45062e-10)
(-5.36196e-08 2.63097e-08 -8.79722e-21 5.41957e-08 -1.58034e-21 -5.76133e-10)
(-5.87059e-08 2.20712e-08 2.21619e-20 5.79035e-08 3.03425e-21 8.02347e-10)
(-2.83037e-08 3.3946e-08 5.3961e-20 2.83759e-08 6.95073e-21 -7.2248e-11)
(-3.13862e-08 3.23079e-08 -6.34996e-20 3.1879e-08 -8.31465e-21 -4.92715e-10)
(-3.4658e-08 3.04568e-08 7.36771e-20 3.54687e-08 9.55063e-21 -8.10689e-10)
(-3.81904e-08 2.82878e-08 -5.82851e-20 3.91633e-08 -7.38176e-21 -9.72881e-10)
(-4.19772e-08 2.57516e-08 -6.65695e-20 4.29504e-08 -8.59946e-21 -9.73231e-10)
(-4.57153e-08 2.26952e-08 9.59496e-20 4.6688e-08 1.22897e-20 -9.72735e-10)
(-4.86457e-08 2.0257e-08 -5.96603e-20 5.01007e-08 -7.66714e-21 -1.45501e-09)
(-5.38045e-08 1.5996e-08 4.69852e-20 5.45355e-08 5.88345e-21 -7.30936e-10)
(-2.4106e-08 2.31597e-08 8.02967e-21 2.36727e-08 8.35332e-22 4.33261e-10)
(-2.66465e-08 2.1123e-08 -5.63995e-20 2.62704e-08 -7.12514e-21 3.76147e-10)
(-2.92794e-08 1.90518e-08 3.68017e-20 2.89184e-08 4.44897e-21 3.61008e-10)
(-3.21146e-08 1.68237e-08 -9.98024e-21 3.16822e-08 -9.69323e-22 4.32317e-10)
(-3.52632e-08 1.43268e-08 -4.07199e-20 3.46247e-08 -4.98254e-21 6.38505e-10)
(-3.85021e-08 1.13833e-08 1.08114e-19 3.76086e-08 1.34124e-20 8.93552e-10)
(-4.14155e-08 8.13517e-09 -5.62727e-20 4.03905e-08 -6.78131e-21 1.02498e-09)
(-4.50492e-08 2.70003e-09 1.14075e-20 4.27261e-08 1.09715e-21 2.32304e-09)
(-2.06543e-08 1.51802e-08 -2.82198e-20 2.24787e-08 -3.57961e-21 -1.82437e-09)
(-2.37763e-08 1.33688e-08 -2.86189e-20 2.61451e-08 -3.52712e-21 -2.36881e-09)
(-2.69625e-08 1.14352e-08 -4.61638e-20 2.98308e-08 -6.05538e-21 -2.86823e-09)
(-3.02496e-08 9.24901e-09 7.96518e-20 3.35321e-08 1.01348e-20 -3.28253e-09)
(-3.36319e-08 6.88663e-09 1.32288e-20 3.72635e-08 1.79529e-21 -3.63157e-09)