/*--------------------------------*- C++ -*----------------------------------*\
| =========                 |                                                 |
| \\      /  F ield         | OpenFOAM: The Open Source CFD Toolbox           |
|  \\    /   O peration     | Version:  2306                                  |
|   \\  /    A nd           | Website:  www.openfoam.com                      |
|    \\/     M anipulation  |                                                 |
\*---------------------------------------------------------------------------*/
FoamFile
{
    version     2.0;
    format      ascii;
    arch        "LSB;label=32;scalar=64";
    class       volVectorField;
    location    "75";
    object      U;
}
// * * * * * * * * * * * * * * * * * * * * * * * * * * * * * * * * * * * * * //

dimensions      [0 1 -1 0 0 0 0];

internalField   nonuniform List<vector> 
1340
(
(24.4473 2.79996 -1.04307e-15)
(23.9403 3.15086 -1.47556e-15)
(23.3929 3.45631 -1.5198e-15)
(22.0168 3.86033 -4.62443e-16)
(26.0429 3.38624 4.96217e-16)
(25.5614 3.67674 1.11473e-15)
(25.18 3.98455 1.48265e-15)
(23.7321 4.25472 3.62076e-16)
(26.84 3.23789 -3.4863e-16)
(26.4243 3.63135 1.42733e-15)
(26.0145 3.98426 -2.81318e-15)
(24.8865 4.3931 -2.01686e-15)
(27.2176 3.50714 1.84502e-15)
(26.9001 3.8346 -3.84619e-15)
(26.5392 4.12353 1.25672e-15)
(25.6444 4.53696 3.77065e-16)
(27.1358 3.2034 3.62747e-16)
(26.8692 3.60317 1.33414e-15)
(26.5642 3.95975 -1.65132e-15)
(25.8768 4.42463 4.88515e-16)
(27.1172 3.44595 -1.88126e-15)
(26.8534 3.79383 3.31357e-15)
(26.5379 4.08905 1.91112e-15)
(25.9119 4.49476 -2.2662e-16)
(27.0743 3.23073 1.44313e-15)
(26.8165 3.59851 -2.38674e-15)
(26.5007 3.92549 -1.34573e-16)
(25.8966 4.33011 -8.43066e-16)
(27.0331 3.33066 -1.52723e-15)
(26.7799 3.68172 7.04524e-16)
(26.4656 3.98123 -1.48205e-16)
(25.8816 4.34272 7.28662e-17)
(26.9942 3.24145 6.95487e-17)
(26.7475 3.59252 -3.9557e-16)
(26.4364 3.89797 -1.56376e-16)
(25.876 4.24863 8.00271e-17)
(26.95 3.25438 -4.2064e-16)
(26.7095 3.59638 -2.0854e-15)
(26.4021 3.88874 1.15176e-15)
(25.8656 4.20848 -1.78249e-16)
(26.9069 3.21434 1.5799e-17)
(26.6732 3.5515 2.36802e-15)
(26.3704 3.84028 -1.8156e-15)
(25.8568 4.14364 -1.39251e-16)
(26.8609 3.1997 9.09263e-16)
(26.6344 3.52887 -1.40304e-15)
(26.3372 3.80844 9.701e-16)
(25.8467 4.08895 3.65334e-16)
(26.8145 3.17221 -9.81286e-16)
(26.5954 3.49441 1.86587e-15)
(26.3046 3.76732 6.66679e-17)
(25.8365 4.03022 3.50207e-16)
(26.7663 3.15015 7.24141e-16)
(26.5551 3.46436 -1.21606e-15)
(26.2716 3.72907 -1.57462e-16)
(25.8257 3.97385 -2.13154e-16)
(26.717 3.12533 -1.5273e-16)
(26.5141 3.43153 -4.35115e-16)
(26.2386 3.68845 -5.43583e-16)
(25.8145 3.91729 4.08739e-17)
(26.6664 3.1015 -7.19935e-17)
(26.4721 3.39917 6.69511e-16)
(26.2054 3.64783 7.35294e-16)
(25.8028 3.86141 -8.21661e-18)
(26.6148 3.07721 3.39977e-17)
(26.4294 3.36605 -3.08307e-16)
(26.1723 3.60641 1.91147e-16)
(25.7908 3.80604 -5.56557e-17)
(26.5623 3.0532 -2.51512e-16)
(26.3861 3.33285 8.30911e-16)
(26.1392 3.56469 -3.81302e-16)
(25.7785 3.75127 -3.60339e-17)
(26.5089 3.02937 7.17891e-16)
(26.3423 3.29952 -2.68386e-16)
(26.1062 3.52275 -2.23571e-16)
(25.7661 3.69733 1.2446e-16)
(26.4549 3.00593 -3.58741e-16)
(26.2981 3.26625 -5.43649e-16)
(26.0733 3.48077 2.13103e-16)
(25.7533 3.64426 -1.05196e-16)
(26.4002 2.983 8.16401e-17)
(26.2534 3.2332 3.79028e-16)
(26.0405 3.43888 6.73909e-17)
(25.7403 3.5921 3.88863e-17)
(26.3451 2.96075 -2.84591e-17)
(26.2085 3.20054 -7.63368e-17)
(26.0077 3.39732 -1.09846e-16)
(25.7271 3.54107 2.60137e-18)
(26.2898 2.93933 -1.25556e-16)
(26.1635 3.16846 -2.41207e-17)
(25.9753 3.35625 -8.0054e-17)
(25.7137 3.49114 -7.80121e-17)
(26.2345 2.91892 9.94104e-17)
(26.1186 3.13715 4.91766e-17)
(25.943 3.31592 1.11764e-16)
(25.7002 3.44259 4.57327e-17)
(26.1793 2.89964 -5.14285e-17)
(26.0737 3.10681 -1.17928e-16)
(25.9111 3.27649 -5.01811e-17)
(25.6865 3.39542 5.08741e-17)
(26.1245 2.88167 1.04144e-16)
(26.0292 3.07761 8.29772e-18)
(25.8794 3.2382 1.1737e-17)
(25.6728 3.34983 1.10233e-16)
(26.0704 2.86512 -7.21362e-17)
(25.9852 3.04974 -1.88009e-17)
(25.8483 3.20123 -2.1229e-17)
(25.6589 3.30594 -2.78193e-16)
(26.0171 2.85015 8.34221e-18)
(25.9418 3.02337 2.18565e-17)
(25.8176 3.16579 5.32654e-17)
(25.6451 3.2639 1.93706e-16)
(25.9649 2.83683 9.83523e-18)
(25.8993 2.99866 -6.00989e-19)
(25.7876 3.13204 -9.63261e-17)
(25.6314 3.22381 -2.77727e-16)
(25.914 2.82529 7.33236e-19)
(25.8577 2.97574 -2.73006e-17)
(25.7582 3.10016 5.92497e-17)
(25.6177 3.18581 -4.21472e-17)
(25.8646 2.81557 -1.08637e-17)
(25.8173 2.95473 -2.29935e-17)
(25.7296 3.07027 1.34424e-17)
(25.6042 3.14999 3.03303e-16)
(25.817 2.80777 -2.68019e-17)
(25.7781 2.93577 4.71536e-17)
(25.7018 3.04253 4.07765e-17)
(25.5907 3.11649 3.36937e-16)
(25.7715 2.8019 -2.20847e-17)
(25.7405 2.91892 -2.33859e-17)
(25.675 3.01706 -9.25907e-17)
(25.5776 3.08538 -3.03233e-16)
(25.7281 2.79801 5.16332e-17)
(25.7046 2.9043 4.12858e-17)
(25.6493 2.99398 -2.70509e-18)
(25.5647 3.05678 -2.42149e-16)
(25.6871 2.79607 -1.9252e-17)
(25.6704 2.89193 -1.62199e-16)
(25.6247 2.97335 1.52118e-16)
(25.5522 3.03072 1.16556e-16)
(25.6487 2.79609 2.58112e-17)
(25.6382 2.88185 1.04955e-16)
(25.6014 2.95523 -1.99296e-16)
(25.5401 3.0073 -2.48242e-16)
(25.613 2.79799 -3.65129e-17)
(25.6082 2.87405 -6.4855e-17)
(25.5795 2.93965 1.10316e-16)
(25.5286 2.98651 6.44162e-17)
(25.5802 2.80169 6.10194e-17)
(25.5802 2.8685 5.96255e-18)
(25.5591 2.92661 -1.42076e-16)
(25.5177 2.96839 3.74784e-16)
(25.5276 2.74837 -4.42866e-17)
(25.5502 2.80707 2.08336e-17)
(25.5546 2.86512 -9.25253e-17)
(25.5402 2.91606 2.73898e-16)
(25.5075 2.95288 -5.55864e-17)
(25.4992 2.76427 1.32045e-16)
(25.5233 2.81411 -2.18299e-16)
(25.5314 2.86389 3.43799e-16)
(25.523 2.90797 2.04466e-17)
(25.4981 2.93999 2.33016e-17)
(25.4743 2.78101 -4.06821e-17)
(25.4993 2.82261 3.81966e-17)
(25.5106 2.86463 -2.02949e-16)
(25.5074 2.90222 -3.50376e-16)
(25.4896 2.9296 -6.25683e-18)
(25.4528 2.79844 -5.87485e-17)
(25.4784 2.83247 1.46129e-16)
(25.4923 2.86728 -4.11568e-17)
(25.4937 2.89876 1.32361e-16)
(25.482 2.92167 -2.39124e-16)
(25.4347 2.81641 1.04501e-16)
(25.4605 2.84353 1.29384e-16)
(25.4764 2.87169 1.23824e-16)
(25.4817 2.89744 4.18266e-17)
(25.4755 2.91609 2.3623e-16)
(25.4198 2.83478 1.51584e-17)
(25.4456 2.85565 -3.70343e-17)
(25.463 2.87773 -1.47587e-16)
(25.4716 2.89816 1.87908e-16)
(25.47 2.91278 1.20732e-16)
(25.408 2.8534 -1.10681e-17)
(25.4334 2.86867 -1.65797e-16)
(25.452 2.88523 1.11721e-16)
(25.4633 2.90076 -1.41387e-16)
(25.4657 2.91159 -4.35243e-17)
(25.3992 2.87215 4.02336e-17)
(25.4241 2.88245 3.50853e-17)
(25.4434 2.89404 -6.72883e-17)
(25.4568 2.90509 -1.63695e-16)
(25.4626 2.91237 -2.82486e-16)
(25.3933 2.89092 -3.20912e-17)
(25.4174 2.89683 1.73464e-16)
(25.4372 2.904 -1.27519e-17)
(25.4523 2.91098 1.88708e-16)
(25.4608 2.91497 1.80941e-16)
(25.39 2.90961 5.42147e-17)
(25.4133 2.91169 -1.40491e-16)
(25.4332 2.91493 -1.6384e-17)
(25.4495 2.91825 6.81804e-17)
(25.4602 2.91922 -2.92497e-16)
(25.3891 2.92812 1.11043e-16)
(25.4115 2.92689 -1.84808e-16)
(25.4313 2.9267 5.84288e-17)
(25.4485 2.92676 2.09634e-16)
(25.4609 2.92498 3.06726e-17)
(25.3906 2.94636 -6.384e-17)
(25.412 2.9423 8.91e-18)
(25.4315 2.93915 -1.12239e-16)
(25.4492 2.93635 7.92449e-17)
(25.4629 2.93211 -7.66844e-17)
(25.3942 2.96428 6.65636e-17)
(25.4146 2.95784 1.01518e-16)
(25.4336 2.95217 -8.82249e-18)
(25.4516 2.94687 -2.39172e-16)
(25.4661 2.94046 -1.17919e-16)
(25.3997 2.98182 -2.8844e-17)
(25.419 2.97341 -1.82574e-16)
(25.4375 2.96562 2.58139e-16)
(25.4554 2.95819 -2.05175e-16)
(25.4706 2.94988 4.87834e-17)
(25.3884 3.00988 1.20034e-17)
(25.4069 2.99895 -3.84284e-17)
(25.4251 2.98896 -3.55436e-17)
(25.443 2.97941 1.1467e-16)
(25.4608 2.97018 2.71252e-16)
(25.4762 2.96023 -3.81312e-17)
(25.3983 3.02769 -4.04574e-17)
(25.4155 3.01566 -1.94321e-16)
(25.4327 3.00439 2.94765e-16)
(25.4499 2.99341 -1.56211e-16)
(25.4673 2.98269 2.10468e-16)
(25.4829 2.97136 -7.81757e-17)
(25.4093 3.04477 1.02706e-16)
(25.4253 3.03191 4.51126e-17)
(25.4415 3.01965 -1.48876e-16)
(25.4579 3.00753 1.03168e-16)
(25.475 2.99558 -2.77999e-17)
(25.4906 2.98311 5.84682e-17)
(25.4211 3.06116 2.89987e-17)
(25.436 3.04771 -3.33364e-17)
(25.4513 3.03468 3.57625e-17)
(25.467 3.02169 -9.58348e-17)
(25.4836 3.00877 -6.86647e-17)
(25.499 2.99538 -3.7966e-18)
(25.4336 3.07689 -1.09305e-16)
(25.4474 3.06303 1.34679e-16)
(25.4618 3.04947 5.82226e-17)
(25.4768 3.03583 1.45178e-16)
(25.4929 3.02217 -3.93625e-17)
(25.508 3.00805 7.85136e-17)
(25.4466 3.09198 5.26004e-17)
(25.4595 3.0779 1.40491e-16)
(25.473 3.06401 -1.34339e-16)
(25.4873 3.04992 -1.20948e-16)
(25.5028 3.03572 5.50222e-17)
(25.5176 3.02107 -1.62636e-16)
(25.4599 3.10645 -2.24543e-17)
(25.4719 3.09232 -6.44611e-17)
(25.4847 3.07826 1.41059e-16)
(25.4983 3.06392 -2.18096e-16)
(25.5133 3.04937 -4.54342e-17)
(25.5276 3.03437 2.11618e-16)
(25.4734 3.12032 -2.06288e-16)
(25.4847 3.10628 1.80621e-16)
(25.4968 3.09222 -4.15083e-17)
(25.5098 3.07781 4.18922e-17)
(25.5241 3.06309 1.88966e-17)
(25.538 3.04793 -1.61215e-16)
(25.4872 3.13361 6.33476e-17)
(25.4978 3.11979 -1.87831e-16)
(25.5092 3.10589 1.3048e-16)
(25.5215 3.09155 4.44503e-17)
(25.5354 3.07684 -2.56103e-16)
(25.5487 3.06168 1.0972e-16)
(25.4916 3.15978 2.12055e-18)
(25.5009 3.14632 -4.16143e-17)
(25.5109 3.13285 3.57793e-17)
(25.5217 3.11925 3.97605e-17)
(25.5335 3.10515 -1.03407e-16)
(25.5468 3.0906 -4.71316e-17)
(25.5597 3.0756 5.72749e-17)
(25.5057 3.17147 -1.90502e-16)
(25.5145 3.15846 7.5551e-17)
(25.5239 3.14543 6.43982e-17)
(25.5341 3.13222 -2.30247e-17)
(25.5454 3.11851 1.44866e-16)
(25.5582 3.10426 -1.58959e-16)
(25.5706 3.08957 -7.32657e-17)
(25.5193 3.18257 -2.92702e-18)
(25.5275 3.17004 1.37644e-16)
(25.5364 3.1575 -1.15122e-16)
(25.5462 3.14479 -1.36073e-16)
(25.557 3.13156 1.19939e-16)
(25.5693 3.11776 3.27682e-16)
(25.5814 3.10352 -1.03324e-16)
(25.5323 3.1931 4.83388e-17)
(25.5399 3.18106 -6.116e-18)
(25.5483 3.16903 -1.01254e-17)
(25.5576 3.15686 -5.18709e-18)
(25.568 3.14418 1.99455e-16)
(25.5799 3.13094 -4.41779e-17)
(25.5916 3.11728 -2.67443e-16)
(25.5445 3.20326 -9.38499e-17)
(25.5516 3.19169 1.18932e-16)
(25.5595 3.18017 2.95648e-17)
(25.5683 3.16853 -7.3169e-17)
(25.5783 3.15645 -9.56674e-17)
(25.5898 3.14385 3.84865e-17)
(25.6012 3.13086 2.59355e-17)
(25.5561 3.21312 3.98298e-17)
(25.5626 3.20202 -6.75905e-17)
(25.57 3.19099 1.78695e-16)
(25.5783 3.17989 -1.5204e-16)
(25.5878 3.1684 2.21167e-16)
(25.5989 3.15644 -1.34076e-16)
(25.61 3.14415 2.33132e-16)
(25.565 3.2212 -1.04565e-16)
(25.5712 3.21052 -3.54446e-18)
(25.5781 3.19992 -7.73969e-17)
(25.5861 3.18929 -4.77741e-18)
(25.5952 3.17835 -4.06623e-17)
(25.606 3.167 -6.83883e-17)
(25.617 3.15539 7.85879e-17)
(25.5709 3.22802 -1.4929e-16)
(25.5768 3.21772 -2.19949e-17)
(25.5834 3.2075 9.35448e-17)
(25.591 3.19726 -1.18588e-18)
(25.5998 3.18677 -9.01348e-17)
(25.6102 3.17596 1.06421e-17)
(25.6209 3.16496 -1.27272e-16)
(25.5773 3.23497 2.35695e-17)
(25.5828 3.22512 6.60136e-17)
(25.589 3.21534 -5.55722e-17)
(25.5962 3.20554 -8.07072e-17)
(25.6047 3.19552 -1.58142e-16)
(25.6146 3.18527 3.8142e-16)
(25.6249 3.17489 -2.19379e-16)
(25.5836 3.24207 6.00066e-17)
(25.5888 3.23273 -2.25615e-17)
(25.5947 3.22345 1.90848e-17)
(25.6015 3.21413 -1.20962e-16)
(25.6095 3.20461 1.98699e-16)
(25.619 3.1949 -2.17566e-16)
(25.6289 3.18512 2.54354e-16)
(25.5853 3.25813 7.91258e-17)
(25.5898 3.2493 3.96485e-17)
(25.5947 3.24055 -3.68588e-17)
(25.6003 3.23184 -3.47326e-17)
(25.6068 3.22309 -7.74478e-17)
(25.6143 3.21414 -8.29016e-17)
(25.6233 3.20496 2.42506e-16)
(25.6326 3.19576 -1.18931e-16)
(25.5914 3.26476 -3.88976e-17)
(25.5957 3.25656 6.65203e-17)
(25.6004 3.24845 -7.06339e-17)
(25.6057 3.24038 -6.41292e-17)
(25.6117 3.23227 6.45369e-17)
(25.6188 3.22396 1.32368e-16)
(25.6274 3.21541 -2.84625e-17)
(25.6361 3.20685 5.71687e-17)
(25.5966 3.27146 1.24846e-16)
(25.6006 3.26399 -1.48142e-16)
(25.6049 3.25659 1.74336e-16)
(25.6099 3.24924 -1.43048e-16)
(25.6155 3.24183 -1.68314e-16)
(25.6221 3.23423 2.59575e-16)
(25.6301 3.2263 -1.83353e-16)
(25.6382 3.21828 1.21177e-16)
(25.5991 3.27686 1.79662e-17)
(25.6028 3.27019 -1.29374e-16)
(25.6068 3.26367 8.55784e-17)
(25.6114 3.25726 -2.40215e-17)
(25.6165 3.25085 -9.90845e-17)
(25.6227 3.24434 2.85503e-16)
(25.6301 3.23757 -1.70521e-16)
(25.6379 3.23117 2.91267e-17)
(25.5969 3.28227 -6.4118e-17)
(25.5999 3.27585 -6.50045e-17)
(25.6034 3.26958 -1.04385e-16)
(25.6073 3.26343 1.86065e-16)
(25.6119 3.25732 3.20022e-17)
(25.6173 3.25111 -6.65082e-17)
(25.6235 3.24453 1.94692e-16)
(25.6296 3.23738 -2.50082e-16)
(25.5919 3.28955 8.23583e-17)
(25.5946 3.28506 2.68146e-17)
(25.5977 3.2808 -1.22486e-16)
(25.6012 3.2767 -8.43692e-17)
(25.6052 3.27266 3.55262e-17)
(25.6102 3.26871 4.36422e-17)
(25.617 3.26493 -1.10311e-16)
(25.6251 3.2629 8.03371e-18)
(25.583 3.26945 -1.07254e-16)
(25.5861 3.26302 8.48039e-17)
(25.5898 3.25703 7.51416e-17)
(25.5941 3.25147 -5.80274e-17)
(25.5989 3.24623 2.46524e-16)
(25.604 3.24093 -3.43011e-16)
(25.608 3.23476 1.36074e-16)
(25.609 3.22581 -2.07087e-16)
(25.6095 3.37201 1.27167e-16)
(25.6128 3.37126 -9.9494e-17)
(25.6162 3.3705 8.63284e-18)
(25.6199 3.36977 5.35237e-17)
(25.6244 3.36918 -7.11191e-17)
(25.631 3.3692 -1.25843e-16)
(25.6435 3.37081 1.43069e-16)
(25.6608 3.37719 -3.50182e-17)
(25.647 3.11331 9.20431e-17)
(25.6534 3.10751 1.11252e-16)
(25.6603 3.10226 -8.87549e-17)
(25.6675 3.0974 -2.34621e-16)
(25.6738 3.09253 3.13738e-16)
(25.6781 3.08755 -2.63599e-16)
(25.6743 3.08126 6.35221e-16)
(25.6634 3.07806 -3.98151e-16)
(23.5484 4.25058 1.37091e-18)
(24.3231 4.19947 -4.2265e-20)
(24.8877 4.23227 -1.76934e-18)
(25.1653 4.21976 8.95333e-19)
(25.2449 4.18025 -3.9902e-18)
(25.2627 4.16568 -3.24517e-18)
(25.2724 4.11125 8.61773e-20)
(25.2864 4.09597 -9.68641e-19)
(25.302 4.04772 -1.52826e-18)
(25.3158 4.01757 0)
(25.3301 3.9754 -4.43243e-18)
(25.3435 3.93714 -5.1894e-18)
(25.3565 3.8957 2.62755e-18)
(25.3689 3.85428 4.39181e-18)
(25.3807 3.8116 -5.06457e-18)
(25.3918 3.76826 5.84304e-18)
(25.4024 3.72434 7.97673e-18)
(25.4125 3.67997 -2.70362e-18)
(25.4219 3.63547 2.14792e-18)
(25.4306 3.5909 -4.31901e-18)
(25.4387 3.54649 4.63712e-18)
(25.446 3.5024 -4.4569e-19)
(25.4526 3.45881 -2.92693e-18)
(25.4585 3.41596 -1.06398e-18)
(25.4636 3.37393 -4.2502e-18)
(25.468 3.33298 4.43904e-19)
(25.4717 3.29324 -4.50516e-18)
(25.4747 3.2549 -2.55223e-18)
(25.477 3.21808 -2.14985e-19)
(25.4787 3.18293 -1.22414e-18)
(25.4797 3.14956 2.59885e-18)
(25.4801 3.11812 -2.80402e-17)
(25.48 3.08869 -1.4394e-17)
(25.4793 3.06139 -4.63232e-18)
(25.4783 3.03627 3.84154e-18)
(25.4769 3.01342 2.43514e-18)
(25.4752 2.99287 -3.84639e-18)
(25.4734 2.97467 -6.45608e-19)
(25.4715 2.95879 -4.468e-19)
(25.4697 2.94526 1.53909e-18)
(25.468 2.934 -4.98957e-17)
(25.4665 2.92502 -1.05314e-18)
(25.4654 2.91825 -1.49999e-17)
(25.4647 2.91363 -4.62248e-17)
(25.4644 2.91103 -2.92861e-19)
(25.4649 2.91038 -3.80308e-17)
(25.466 2.91152 3.42784e-20)
(25.4678 2.91435 1.15336e-19)
(25.4705 2.91873 7.64161e-17)
(25.4741 2.92457 5.37672e-20)
(25.4785 2.93174 4.00741e-19)
(25.4839 2.9401 -1.32755e-16)
(25.4901 2.94951 -2.1805e-18)
(25.4971 2.95984 9.03818e-18)
(25.5049 2.97095 -2.43846e-20)
(25.5133 2.98273 -1.11598e-19)
(25.5222 2.99506 -4.94986e-19)
(25.5315 3.00789 3.83276e-17)
(25.5412 3.02115 9.52323e-18)
(25.5512 3.03481 9.19834e-17)
(25.5615 3.04881 1.71447e-16)
(25.572 3.06309 1.09534e-16)
(25.5826 3.07752 4.12979e-17)
(25.5929 3.09203 6.21834e-20)
(25.6027 3.10641 7.30267e-19)
(25.6119 3.12068 4.64159e-17)
(25.6203 3.13468 -3.81394e-17)
(25.6269 3.14655 -4.08496e-19)
(25.6305 3.1567 8.60996e-19)
(25.6342 3.16726 -1.12095e-16)
(25.6376 3.17814 -1.13641e-16)
(25.6409 3.18945 3.80465e-19)
(25.6438 3.20139 8.18035e-17)
(25.6453 3.21358 -1.03208e-16)
(25.6444 3.22775 0)
(25.635 3.2339 -1.65866e-17)
(25.6311 3.26248 -1.17036e-17)
(25.6128 3.22309 1.95081e-16)
(25.6702 3.38163 -5.47582e-18)
(25.6643 3.08263 -2.0993e-16)
(24.3085 4.02043 7.4519e-19)
(24.6082 4.00971 -3.46107e-18)
(24.7679 4.00678 -5.6223e-19)
(24.8235 3.97355 4.87037e-19)
(24.8474 3.94492 1.98521e-18)
(24.868 3.91001 -1.80804e-18)
(24.8918 3.8773 4.89193e-20)
(24.9171 3.84465 -5.60943e-19)
(24.942 3.80905 -8.52338e-19)
(24.967 3.77664 0)
(24.9919 3.74154 3.41987e-18)
(25.0168 3.70828 -3.24033e-18)
(25.0414 3.67403 1.66904e-18)
(25.0658 3.6402 2.83605e-18)
(25.0898 3.60614 6.8295e-18)
(25.1136 3.57217 -9.22896e-18)
(25.1369 3.53828 -1.27529e-17)
(25.1598 3.5045 -1.85571e-18)
(25.1822 3.47091 1.52291e-17)
(25.2039 3.4375 -3.04918e-18)
(25.2248 3.40436 3.57989e-18)
(25.245 3.37151 6.99328e-18)
(25.2643 3.33903 -7.35972e-18)
(25.2828 3.30702 -7.92467e-19)
(25.3002 3.27549 -3.20701e-18)
(25.3167 3.24459 -4.31566e-18)
(25.3322 3.2144 -3.48824e-18)
(25.3467 3.18502 -2.00184e-18)
(25.3601 3.15655 -1.70826e-19)
(25.3725 3.12911 -9.85572e-19)
(25.3837 3.1028 2.12042e-18)
(25.394 3.07777 2.84312e-17)
(25.4032 3.05409 3.63877e-17)
(25.4115 3.0319 -3.94146e-18)
(25.4189 3.01126 -1.69441e-17)
(25.4254 2.99229 -8.97084e-18)
(25.4313 2.97503 8.8104e-18)
(25.4364 2.95958 -5.85648e-19)
(25.441 2.94594 3.8534e-18)
(25.4451 2.9342 -2.24601e-17)
(25.4488 2.92431 1.54797e-17)
(25.4523 2.91634 5.00412e-17)
(25.4556 2.91025 1.49777e-17)
(25.4589 2.90602 4.48844e-17)
(25.4622 2.90359 6.67583e-17)
(25.4657 2.9029 3.82661e-17)
(25.4695 2.90385 4.14151e-17)
(25.4737 2.90638 -5.3764e-17)
(25.4782 2.9104 -7.55009e-17)
(25.4833 2.91583 -5.38803e-17)
(25.489 2.92259 3.72861e-19)
(25.4953 2.93054 9.39192e-17)
(25.5022 2.93959 5.01974e-18)
(25.5097 2.9496 -1.86887e-17)
(25.5177 2.96046 -2.56094e-20)
(25.5262 2.97207 -6.7483e-17)
(25.535 2.98433 6.03962e-18)
(25.5441 2.99716 -7.57996e-17)
(25.5534 3.01052 -1.74195e-16)
(25.5631 3.02436 -1.91772e-17)
(25.573 3.03862 -1.69808e-16)
(25.583 3.05323 9.56591e-18)
(25.593 3.06806 -2.29447e-19)
(25.6028 3.08302 2.36002e-16)
(25.6121 3.09794 2.7386e-17)
(25.6208 3.11282 -4.78342e-17)
(25.6287 3.12748 3.748e-17)
(25.635 3.13995 -4.60743e-17)
(25.6383 3.15069 5.11516e-17)
(25.6415 3.16188 1.11611e-16)
(25.6446 3.17342 1.12245e-16)
(25.6474 3.1854 3.74089e-19)
(25.6498 3.19806 -8.22993e-17)
(25.6506 3.21085 1.02077e-16)
(25.6489 3.22579 0)
(25.6391 3.23219 1.66866e-17)
(25.6339 3.26242 -1.29385e-19)
(25.6183 3.22301 -2.66712e-16)
(25.6706 3.38296 4.93911e-18)
(25.6749 3.08951 2.08792e-16)
(24.4268 3.46416 5.92057e-18)
(24.5423 3.47359 5.17095e-18)
(24.56 3.46547 -9.89326e-19)
(24.5799 3.45491 2.71426e-19)
(24.6079 3.44591 -5.63954e-18)
(24.6403 3.43358 -9.41309e-19)
(24.674 3.42383 2.47035e-20)
(24.7071 3.41075 8.47567e-19)
(24.7397 3.39904 9.8772e-18)
(24.7721 3.38607 0)
(24.8042 3.37275 -6.59841e-18)
(24.836 3.35908 -1.50429e-18)
(24.8673 3.3446 7.71242e-19)
(24.8983 3.32972 -4.31273e-18)
(24.9287 3.31425 -1.19483e-17)
(24.9588 3.29835 3.00282e-18)
(24.9883 3.28201 1.68615e-17)
(25.0172 3.26522 1.17091e-17)
(25.0455 3.24805 -1.31931e-17)
(25.0731 3.23049 -1.50491e-18)
(25.1 3.21263 -3.04065e-17)
(25.1261 3.19449 -1.27564e-17)
(25.1513 3.17616 -1.80929e-18)
(25.1757 3.15767 -9.81933e-18)
(25.1991 3.13909 -1.76163e-18)
(25.2215 3.1205 7.37401e-18)
(25.243 3.10199 2.14589e-17)
(25.2635 3.08364 -1.17748e-18)
(25.2829 3.06552 -1.02724e-19)
(25.3012 3.04776 -5.44359e-18)
(25.3183 3.03044 -1.61981e-17)
(25.3344 3.01369 7.54292e-18)
(25.3494 2.99761 8.74327e-19)
(25.3633 2.98231 2.39981e-17)
(25.3762 2.96788 2.23604e-17)
(25.3881 2.95445 -2.2437e-17)
(25.3991 2.94208 -1.45296e-17)
(25.4092 2.9309 -4.11311e-19)
(25.4185 2.92096 -3.9154e-17)
(25.427 2.91236 2.16126e-18)
(25.4349 2.90512 -2.49197e-17)
(25.4423 2.89934 -5.14792e-17)
(25.4492 2.89502 -1.72352e-17)
(25.4557 2.89219 -3.33126e-17)
(25.462 2.89082 2.23894e-19)
(25.4682 2.89092 1.70232e-19)
(25.4743 2.89243 -4.7373e-17)
(25.4804 2.89533 2.96108e-19)
(25.4867 2.89956 2.08663e-19)
(25.4933 2.90511 9.53981e-17)
(25.5002 2.91188 -2.17804e-17)
(25.5074 2.91981 -7.2979e-17)
(25.515 2.92879 1.09847e-16)
(25.523 2.93874 1.77898e-17)
(25.5313 2.94957 5.18887e-17)
(25.5399 2.96119 1.16304e-16)
(25.5487 2.97351 -6.44502e-19)
(25.5576 2.98646 7.44886e-17)
(25.5667 2.99998 1.45345e-18)
(25.576 3.01405 -1.4418e-19)
(25.5855 3.0286 6.01019e-19)
(25.595 3.04354 -2.50463e-19)
(25.6045 3.05876 -2.62789e-19)
(25.6137 3.0742 -2.22666e-16)
(25.6224 3.08966 -2.55148e-17)
(25.6305 3.10518 -9.14105e-19)
(25.6379 3.12054 -3.75994e-17)
(25.6438 3.13364 -1.40963e-19)
(25.6466 3.145 -4.92726e-17)
(25.6494 3.15688 -1.39254e-16)
(25.652 3.16913 -1.11586e-16)
(25.6544 3.18184 -6.75972e-17)
(25.6562 3.19521 -5.07243e-17)
(25.6564 3.20855 -6.48729e-19)
(25.6536 3.22416 0)
(25.6435 3.23098 -4.37786e-17)
(25.6366 3.26239 3.58842e-16)
(25.625 3.22378 2.65426e-16)
(25.6698 3.38334 -4.91364e-18)
(25.6879 3.09667 -6.54554e-19)
(24.5587 3.03751 -6.96653e-19)
(24.5942 3.03754 -5.66436e-18)
(24.5914 3.03831 1.1709e-18)
(24.6122 3.0404 -2.09693e-19)
(24.6384 3.04201 5.77667e-18)
(24.6662 3.04319 6.48209e-19)
(24.6937 3.04471 -1.58913e-20)
(24.7208 3.04508 8.3771e-20)
(24.7479 3.04603 -3.76646e-19)
(24.775 3.04594 0)
(24.802 3.04583 4.10301e-19)
(24.8289 3.04507 5.69748e-19)
(24.8557 3.04394 -2.48129e-19)
(24.8824 3.04242 -1.73184e-19)
(24.909 3.0405 1.42381e-17)
(24.9355 3.03819 6.47856e-18)
(24.9618 3.03545 -1.17215e-18)
(24.9879 3.03225 -2.49278e-20)
(25.0137 3.02856 1.59827e-17)
(25.0392 3.02436 -8.66841e-20)
(25.0644 3.01965 9.23785e-20)
(25.0892 3.01442 1.37625e-17)
(25.1135 3.00868 2.89543e-17)
(25.1373 3.00243 -1.01112e-17)
(25.1606 2.9957 -4.67041e-19)
(25.1833 2.98853 1.40079e-19)
(25.2054 2.98096 -2.41059e-17)
(25.2268 2.97305 -4.24546e-19)
(25.2474 2.96485 -3.98636e-20)
(25.2673 2.95647 -4.41526e-19)
(25.2862 2.94797 -1.13429e-19)
(25.3043 2.93948 3.66554e-19)
(25.3216 2.93107 -1.2e-17)
(25.3379 2.92285 -1.03259e-17)
(25.3534 2.91493 -3.6702e-17)
(25.368 2.90742 -3.37549e-19)
(25.3817 2.90041 6.64718e-17)
(25.3945 2.89403 -2.24544e-19)
(25.4066 2.88835 3.42114e-17)
(25.4178 2.8835 -9.85495e-18)
(25.4284 2.87953 3.80999e-17)
(25.4383 2.87656 5.16785e-17)
(25.4477 2.87461 -1.5579e-17)
(25.4565 2.87376 -3.45988e-19)
(25.4649 2.87402 -2.27187e-17)
(25.4731 2.87545 -2.79558e-20)
(25.481 2.87801 8.91141e-20)
(25.4888 2.88174 3.89231e-19)
(25.4965 2.88662 2.24294e-19)
(25.5043 2.89265 -3.16957e-19)
(25.5122 2.89979 5.6485e-19)
(25.5202 2.90798 6.08602e-19)
(25.5285 2.91716 -3.30745e-20)
(25.5369 2.92728 -3.69239e-19)
(25.5455 2.93827 -7.62793e-17)
(25.5543 2.95006 -1.14129e-16)
(25.5631 2.96256 -5.76489e-17)
(25.5719 2.97573 -4.81445e-19)
(25.5808 2.98952 1.59286e-16)
(25.5897 3.00389 -1.43709e-19)
(25.5988 3.01876 1.63965e-16)
(25.6078 3.03407 -2.58645e-19)
(25.6168 3.04972 -2.75338e-19)
(25.6254 3.06565 -2.49706e-20)
(25.6335 3.08168 1.01555e-18)
(25.6409 3.09785 -9.68413e-19)
(25.6478 3.11392 -6.12098e-20)
(25.6532 3.12769 -1.44749e-19)
(25.6555 3.13968 8.95166e-19)
(25.6579 3.15225 8.60083e-19)
(25.6602 3.16525 1.7754e-19)
(25.662 3.17871 9.9866e-19)
(25.6633 3.19276 -1.39285e-19)
(25.6628 3.20665 -8.58328e-19)
(25.659 3.22287 0)
(25.6485 3.23021 5.64613e-19)
(25.6401 3.26248 -1.31522e-17)
(25.6319 3.22498 -7.10219e-17)
(25.6707 3.38355 -5.83533e-19)
(25.6996 3.10321 -5.10508e-19)
(24.7275 2.77042 -6.80929e-18)
(24.7383 2.76843 8.33127e-19)
(24.7442 2.77733 9.46213e-19)
(24.7639 2.78428 -2.10997e-19)
(24.7834 2.79162 5.59339e-18)
(24.8029 2.7987 1.29225e-17)
(24.8219 2.8055 -7.34864e-18)
(24.841 2.81201 6.51596e-19)
(24.8602 2.81833 -8.30006e-19)
(24.8793 2.82413 0)
(24.8985 2.82968 1.16728e-17)
(24.9177 2.83472 1.61433e-17)
(24.937 2.8395 -6.25768e-18)
(24.9562 2.84395 -6.77681e-18)
(24.9756 2.84811 2.63849e-19)
(24.995 2.85196 -4.96543e-19)
(25.0145 2.85551 2.4807e-19)
(25.034 2.85874 -3.72187e-19)
(25.0536 2.86165 -2.35099e-17)
(25.0732 2.86422 1.59235e-18)
(25.0928 2.86646 8.9617e-19)
(25.1124 2.86833 -8.47544e-18)
(25.132 2.86983 -5.06399e-19)
(25.1515 2.87095 7.57162e-19)
(25.1709 2.87165 1.7362e-17)
(25.1903 2.87195 5.1813e-18)
(25.2094 2.87184 2.412e-17)
(25.2283 2.87133 1.41861e-17)
(25.2469 2.87043 1.89346e-17)
(25.2651 2.86918 9.97667e-18)
(25.2828 2.86763 3.60598e-17)
(25.3002 2.86582 -1.51632e-17)
(25.317 2.86381 -1.75369e-17)
(25.3332 2.86167 1.98644e-17)
(25.3489 2.85947 -6.49775e-18)
(25.364 2.85731 1.16614e-17)
(25.3784 2.85526 1.52738e-19)
(25.3922 2.85343 -2.61136e-17)
(25.4053 2.85191 8.89774e-18)
(25.4178 2.85081 8.00483e-18)
(25.4296 2.85019 -2.18646e-17)
(25.4409 2.85017 -5.39138e-17)
(25.4516 2.85081 3.24977e-17)
(25.4619 2.85219 8.55791e-20)
(25.4717 2.85437 -4.35951e-17)
(25.4811 2.85741 -2.67678e-19)
(25.4902 2.86133 -2.06249e-19)
(25.4991 2.86618 2.84022e-17)
(25.5078 2.87198 3.57297e-17)
(25.5165 2.87876 3.36441e-17)
(25.5252 2.88649 -1.55039e-18)
(25.5339 2.89516 1.59215e-16)
(25.5427 2.90474 -3.2157e-20)
(25.5515 2.91521 -1.76535e-17)
(25.5604 2.92653 7.44887e-17)
(25.5693 2.93863 2.98386e-17)
(25.5781 2.95146 -8.54566e-17)
(25.5868 2.96497 -4.63279e-19)
(25.5955 2.97911 8.76486e-18)
(25.6041 2.99385 1.77586e-17)
(25.6128 3.00911 -1.35491e-18)
(25.6214 3.02484 -9.53083e-18)
(25.6297 3.04096 -1.6774e-16)
(25.6377 3.05741 2.14938e-16)
(25.6452 3.07404 1.14105e-16)
(25.652 3.09088 -9.97248e-19)
(25.6582 3.10765 -6.2289e-20)
(25.6631 3.12208 -8.2513e-17)
(25.665 3.13467 8.71456e-19)
(25.667 3.14794 2.94889e-17)
(25.6688 3.16169 1.68811e-19)
(25.6702 3.17589 1.84965e-16)
(25.671 3.19064 -1.42498e-19)
(25.6697 3.20508 -1.00155e-16)
(25.665 3.2219 0)
(25.6541 3.2298 -1.54499e-17)
(25.6444 3.26273 1.13626e-17)
(25.639 3.22651 6.95698e-17)
(25.6733 3.38385 -2.22157e-19)
(25.7103 3.1094 -4.78706e-19)
(24.8879 2.62006 -4.10394e-19)
(24.8957 2.61688 7.01856e-19)
(24.9063 2.62451 -8.58806e-19)
(24.9206 2.63018 -4.48874e-19)
(24.9334 2.63762 -2.10553e-19)
(24.9461 2.64498 -1.1328e-17)
(24.9589 2.65261 1.43555e-17)
(24.9718 2.66035 -1.21644e-18)
(24.9848 2.6681 -8.70666e-18)
(24.998 2.67586 0)
(25.0112 2.68362 -4.92472e-18)
(25.0246 2.6913 -3.75514e-19)
(25.038 2.69892 -4.18618e-20)
(25.0516 2.70639 -1.95003e-18)
(25.0653 2.71369 -9.98005e-20)
(25.0791 2.72078 -6.09179e-18)
(25.093 2.72764 -9.10741e-19)
(25.1071 2.73426 -1.12284e-17)
(25.1213 2.74066 9.4466e-20)
(25.1356 2.74682 -6.22913e-19)
(25.15 2.75273 2.94614e-17)
(25.1646 2.75839 9.71278e-20)
(25.1794 2.76379 -1.61831e-17)
(25.1943 2.76893 1.89248e-17)
(25.2093 2.77379 -1.00242e-18)
(25.2245 2.77836 -1.28527e-17)
(25.2397 2.78264 -2.13236e-19)
(25.255 2.78662 -9.86841e-20)
(25.2703 2.79029 -1.15428e-17)
(25.2856 2.79367 -9.5099e-18)
(25.3007 2.79676 -3.57214e-17)
(25.3158 2.79959 1.48466e-17)
(25.3307 2.80217 3.6896e-19)
(25.3453 2.80454 -3.64575e-17)
(25.3597 2.80673 6.47504e-18)
(25.3738 2.80879 -1.15104e-17)
(25.3876 2.81076 -2.34462e-19)
(25.4009 2.81275 2.59312e-17)
(25.4139 2.8148 -8.80793e-18)
(25.4264 2.81701 -7.93644e-18)
(25.4385 2.81943 -7.3874e-18)
(25.4501 2.82217 5.34032e-17)
(25.4613 2.82528 -1.437e-20)
(25.4721 2.82887 1.95143e-17)
(25.4825 2.83299 2.85058e-19)
(25.4926 2.83772 -5.30577e-19)
(25.5024 2.84311 -3.25101e-17)
(25.512 2.84921 -2.69143e-17)
(25.5213 2.85608 -3.48931e-17)
(25.5306 2.86375 -1.24533e-16)
(25.5398 2.87224 4.48306e-17)
(25.549 2.88155 -5.37467e-17)
(25.5581 2.89168 -1.02758e-16)
(25.5672 2.90264 -1.37839e-19)
(25.5763 2.91442 -4.97808e-17)
(25.5852 2.92696 -2.81933e-17)
(25.594 2.94022 8.53473e-17)
(25.6026 2.95417 -4.6643e-19)
(25.611 2.96877 -1.00364e-17)
(25.6194 2.98396 -1.79618e-17)
(25.6276 2.99968 -1.40301e-18)
(25.6357 3.0159 -1.61547e-19)
(25.6435 3.03253 1.66468e-16)
(25.6508 3.04955 -2.26006e-16)
(25.6576 3.06679 -1.11494e-16)
(25.6637 3.0843 -1.08413e-18)
(25.6692 3.10176 3.60577e-17)
(25.6736 3.11683 1.25591e-16)
(25.675 3.13001 8.99653e-19)
(25.6765 3.14394 6.29897e-19)
(25.6778 3.1584 1.41905e-18)
(25.6788 3.17334 -1.16543e-16)
(25.6789 3.18876 4.85495e-17)
(25.677 3.20377 9.79958e-17)
(25.6713 3.22116 0)
(25.66 3.22971 4.35927e-17)
(25.6492 3.26308 -3.39375e-16)
(25.6464 3.22837 -8.45728e-19)
(25.0445 2.5448 -3.46588e-19)
(25.0511 2.5416 6.04118e-19)
(25.0596 2.54608 5.36561e-19)
(25.068 2.54904 -2.24402e-19)
(25.0756 2.55378 -1.91083e-19)
(25.0833 2.55869 8.87358e-19)
(25.0913 2.56425 -1.06048e-18)
(25.0994 2.57011 2.48381e-19)
(25.1076 2.57632 3.89388e-19)
(25.116 2.58289 0)
(25.1244 2.58981 1.66551e-19)
(25.1331 2.59708 -3.6829e-19)
(25.1419 2.60461 -4.13739e-20)
(25.1508 2.61233 3.62805e-19)
(25.1599 2.62019 -1.00187e-19)
(25.1692 2.62813 6.59567e-20)
(25.1787 2.63613 -9.31512e-19)
(25.1883 2.64412 6.54644e-19)
(25.1982 2.6521 9.91005e-20)
(25.2082 2.66002 2.49602e-18)
(25.2185 2.66785 -6.38093e-19)
(25.2289 2.67557 1.38493e-17)
(25.2396 2.68315 -9.64563e-18)
(25.2506 2.69058 2.58618e-19)
(25.2617 2.69785 -1.06799e-20)
(25.2731 2.70494 2.17982e-19)
(25.2847 2.71183 -2.78198e-19)
(25.2965 2.71853 -1.34459e-19)
(25.3085 2.72502 -3.26193e-19)
(25.3206 2.73131 5.32979e-19)
(25.3328 2.73738 1.25732e-19)
(25.3451 2.74324 -3.76782e-19)
(25.3575 2.7489 6.60591e-19)
(25.3699 2.75435 3.85672e-17)
(25.3823 2.75961 1.01269e-19)
(25.3946 2.76471 2.86649e-19)
(25.4069 2.76967 -5.27996e-19)
(25.419 2.77454 1.90999e-19)
(25.4309 2.77937 1.43141e-19)
(25.4426 2.78422 3.02316e-20)
(25.4541 2.78913 1.95804e-19)
(25.4654 2.79419 -2.59385e-19)
(25.4763 2.79944 -2.73453e-20)
(25.4871 2.80498 6.26807e-19)
(25.4976 2.81087 4.50825e-19)
(25.5078 2.8172 -7.70362e-19)
(25.5178 2.82401 8.14844e-19)
(25.5276 2.83138 9.50025e-19)
(25.5373 2.83935 3.99807e-19)
(25.5469 2.84798 7.3923e-19)
(25.5564 2.85729 1.50761e-19)
(25.5658 2.86733 -7.05296e-19)
(25.5751 2.87812 1.38012e-18)
(25.5844 2.88968 -1.44195e-19)
(25.5936 2.90203 -2.88876e-17)
(25.6025 2.91511 2.8758e-17)
(25.6111 2.92892 1.71667e-19)
(25.6195 2.94342 -4.82531e-19)
(25.6277 2.95856 -6.91625e-19)
(25.6358 2.97429 1.70983e-17)
(25.6436 2.99056 -1.45466e-16)
(25.6511 3.00732 8.77955e-18)
(25.6583 3.02452 -3.29381e-19)
(25.6649 3.04213 1.10622e-19)
(25.6709 3.06 1.29887e-18)
(25.6762 3.07818 -1.26121e-18)
(25.681 3.09632 -4.10887e-19)
(25.6848 3.11201 -5.49065e-19)
(25.6856 3.12574 1.05e-18)
(25.6865 3.14029 -2.7334e-17)
(25.6873 3.15541 -1.0744e-18)
(25.6877 3.17102 -1.7962e-16)