/*--------------------------------*- C++ -*----------------------------------*\
| =========                 |                                                 |
| \\      /  F ield         | OpenFOAM: The Open Source CFD Toolbox           |
|  \\    /   O peration     | Version:  2306                                  |
|   \\  /    A nd           | Website:  www.openfoam.com                      |
|    \\/     M anipulation  |                                                 |
\*---------------------------------------------------------------------------*/
FoamFile
{
    version     2.0;
    format      ascii;
    arch        "LSB;label=32;scalar=64";
    class       volScalarField;
    location    "625";
    object      div(phi);
}
// * * * * * * * * * * * * * * * * * * * * * * * * * * * * * * * * * * * * * //

dimensions      [0 0 -1 0 0 0 0];

internalField   nonuniform List<scalar> 
1340
(
-2.8777e-08
1.41556e-05
9.78322e-06
1.06228e-05
-9.31593e-07
1.36042e-05
1.19965e-05
1.92671e-05
5.99216e-07
1.0964e-05
6.59208e-06
5.1306e-06
-2.76977e-08
1.36758e-05
1.27099e-05
2.06587e-05
1.36427e-06
9.09072e-06
4.07672e-06
2.3328e-06
9.44647e-07
1.18401e-05
1.21895e-05
1.95453e-05
1.50311e-06
5.61584e-06
2.04833e-06
-8.75929e-07
1.65419e-06
9.81753e-06
1.1042e-05
1.63709e-05
1.64376e-06
3.43004e-06
6.36404e-08
-2.95394e-06
2.26934e-06
8.23153e-06
9.83982e-06
1.31516e-05
1.42041e-06
1.39861e-06
-1.0865e-06
-3.56653e-06
2.62936e-06
6.91243e-06
8.4926e-06
1.03443e-05
1.19004e-06
2.20059e-07
-1.93302e-06
-3.87728e-06
2.8907e-06
5.75671e-06
7.15782e-06
7.94784e-06
8.79336e-07
-7.50638e-07
-2.45091e-06
-3.32026e-06
2.8851e-06
4.7419e-06
5.77842e-06
6.09517e-06
4.75319e-07
-1.31492e-06
-2.45968e-06
-2.97677e-06
2.72072e-06
3.80244e-06
4.57558e-06
4.518e-06
2.41238e-07
-1.55405e-06
-2.44134e-06
-2.23255e-06
2.3224e-06
3.00165e-06
3.35875e-06
3.26414e-06
-2.96477e-07
-1.94234e-06
-2.06868e-06
-1.96933e-06
1.87387e-06
2.2205e-06
2.3485e-06
2.2252e-06
-3.76754e-07
-1.79206e-06
-2.08294e-06
-1.47484e-06
1.45099e-06
1.6221e-06
1.56443e-06
1.54934e-06
-4.90942e-07
-1.72821e-06
-1.68585e-06
-1.21507e-06
1.0976e-06
1.15339e-06
1.09849e-06
1.13508e-06
-3.9915e-07
-1.30148e-06
-1.41447e-06
-8.76942e-07
8.40673e-07
8.88094e-07
8.60266e-07
9.51691e-07
-2.15075e-07
-8.95947e-07
-9.92616e-07
-5.79203e-07
6.60133e-07
7.04784e-07
7.66741e-07
8.41489e-07
-1.09712e-07
-5.49526e-07
-6.20828e-07
-3.72772e-07
4.79956e-07
6.02097e-07
6.83232e-07
7.25919e-07
1.12344e-08
-2.98846e-07
-3.67132e-07
-2.45972e-07
3.65639e-07
4.78783e-07
5.77509e-07
5.91863e-07
3.97938e-08
-1.62864e-07
-2.14078e-07
-1.83308e-07
2.12352e-07
3.66635e-07
4.50386e-07
4.67688e-07
7.77242e-08
-9.86608e-08
-1.34825e-07
-1.38197e-07
2.3465e-07
2.62035e-07
3.35525e-07
3.52355e-07
1.49487e-07
8.60656e-09
-5.4134e-08
-8.98422e-08
-9.87709e-08
1.33233e-07
1.37974e-07
1.72801e-07
2.38031e-07
2.62101e-07
1.2474e-07
8.02951e-09
-2.48632e-08
-5.07249e-08
-7.23415e-08
4.93045e-08
8.18635e-08
1.11839e-07
1.63407e-07
1.91031e-07
1.08302e-07
2.10654e-08
3.3723e-09
-2.43391e-08
-4.81311e-08
3.20534e-08
4.2243e-08
6.6494e-08
1.05933e-07
1.32954e-07
6.52334e-08
2.98684e-08
1.8018e-08
-8.01731e-09
-3.55645e-08
2.25869e-08
2.68849e-08
3.47804e-08
6.12262e-08
8.70307e-08
6.04776e-08
2.7763e-08
2.07836e-08
-1.75261e-09
-3.08517e-08
1.26112e-08
5.22468e-09
8.63753e-09
2.65646e-08
5.2427e-08
1.09185e-08
1.23761e-08
1.46707e-08
-7.30001e-10
-2.85172e-08
-3.87951e-09
-5.06063e-09
-8.16943e-09
4.93396e-09
3.02683e-08
-4.46649e-09
3.35603e-09
1.14834e-08
1.52324e-09
-2.59428e-08
-1.61277e-08
-1.61104e-09
-9.71457e-09
-5.82118e-09
2.2679e-08
-8.44511e-08
-1.21748e-08
-1.40083e-08
4.8808e-09
1.02388e-08
-3.23323e-08
7.30608e-08
-2.85377e-08
-1.35048e-09
-1.09262e-08
-2.25549e-08
7.74031e-09
-8.65157e-08
-2.24618e-09
-1.78061e-08
-4.7939e-09
1.63366e-08
-2.12296e-08
7.03725e-08
-1.57155e-08
-6.56931e-09
-1.78688e-08
-2.1181e-08
1.75079e-08
-6.61652e-08
-1.90959e-08
-4.10849e-08
-1.34891e-08
8.95577e-09
-9.64336e-09
2.87105e-08
-2.91524e-08
-9.53081e-09
-2.9856e-08
-1.18298e-08
1.87838e-08
-4.46051e-08
-7.60855e-09
-3.89963e-08
1.24789e-08
2.00326e-09
-5.74043e-09
9.82214e-09
-2.07028e-08
3.56223e-08
-1.7109e-08
3.86651e-09
4.26381e-09
-2.83372e-08
3.61309e-08
-2.08203e-08
2.50547e-08
-1.45534e-08
-3.1532e-09
-6.1722e-08
1.15178e-08
-1.81795e-08
1.94352e-08
-2.30403e-08
-5.2572e-09
-1.74746e-08
1.03261e-08
-1.09631e-08
2.68158e-09
-1.69705e-08
-8.34794e-09
-1.22169e-08
2.89663e-09
-3.16381e-08
-4.38631e-09
-6.66581e-09
-5.3358e-09
-5.03676e-09
-8.83579e-10
-5.66466e-10
5.53367e-09
-3.83514e-09
-3.00224e-09
-2.10039e-09
-6.82486e-10
2.9573e-09
3.03057e-09
-3.28701e-08
-5.9038e-09
-4.27752e-09
2.41022e-09
4.59644e-09
9.33442e-09
4.04191e-09
-5.4739e-10
-6.33313e-09
5.81052e-09
5.49304e-09
1.082e-08
7.43389e-09
8.35941e-09
-3.18055e-08
6.79039e-10
-3.57091e-09
4.50457e-09
6.87569e-10
7.36956e-09
-5.56421e-10
-2.53497e-09
-6.30121e-09
-1.89405e-09
-4.68964e-09
-3.8102e-09
-8.37057e-09
9.07094e-10
-1.8786e-08
-1.85995e-09
-3.6834e-09
-3.67676e-09
-4.17069e-09
-2.05486e-09
-1.63337e-09
-2.1735e-09
-7.48189e-10
1.89909e-09
1.26423e-09
6.27338e-10
3.06586e-09
-8.30336e-10
1.39353e-08
1.93349e-09
4.02584e-09
3.97004e-09
4.19257e-09
4.12883e-09
3.86329e-09
5.49438e-09
-3.67152e-09
3.79738e-09
3.68334e-09
4.46865e-09
3.90046e-09
4.68846e-09
4.07943e-09
5.43638e-09
6.43183e-09
6.09374e-10
1.74929e-09
1.76682e-09
2.33592e-09
2.61878e-09
1.7178e-09
3.28241e-09
-1.14049e-08
-1.84653e-09
-1.43883e-09
-2.52398e-10
-6.35188e-10
1.34081e-10
-2.74843e-10
9.0509e-10
-6.92531e-10
-4.68804e-09
-3.19585e-09
-3.40415e-09
-2.35505e-09
-1.82465e-09
-2.08877e-09
-2.85688e-10
-1.7513e-08
-5.96829e-09
-5.83413e-09
-4.10447e-09
-4.68333e-09
-3.19733e-09
-3.45169e-09
-1.33395e-09
-3.83582e-09
-7.15038e-09
-6.16845e-09
-6.51226e-09
-6.19749e-09
-5.59546e-09
-5.73674e-09
-4.23921e-09
-2.31312e-08
-9.20231e-09
-8.54326e-09
-7.94871e-09
-7.90697e-09
-6.25406e-09
-6.6852e-09
-3.40017e-09
-1.35892e-08
-6.56334e-09
-6.38635e-09
-5.83529e-09
-4.99849e-09
-4.64382e-09
-3.36412e-09
-5.33773e-09
0.000137389
-4.0983e-05
1.27984e-05
-1.20472e-05
1.30835e-05
7.42628e-07
9.17808e-06
5.12901e-06
5.80153e-06
6.0134e-06
3.13273e-06
5.48362e-06
1.33182e-06
4.7256e-06
3.0541e-07
3.90637e-06
-4.5183e-07
3.11254e-06
-6.37222e-07
2.23688e-06
-9.88711e-07
1.43622e-06
-1.03421e-06
8.68138e-07
-9.89791e-07
5.6251e-07
-8.07873e-07
4.81175e-07
-5.40292e-07
4.73383e-07
-3.19166e-07
4.43742e-07
-1.79238e-07
3.82931e-07
-8.59813e-08
2.92847e-07
-3.43765e-08
2.17749e-07
-3.56306e-09
1.52842e-07
2.34148e-08
1.00696e-07
2.98331e-08
6.21191e-08
2.64523e-08
3.23827e-08
1.60997e-08
1.29194e-08
4.59338e-09
2.95523e-09
-3.24451e-09
-3.2283e-09
-3.40951e-08
-8.30653e-09
-3.0913e-08
-9.7462e-10
2.13586e-10
1.0245e-08
1.72017e-08
-8.20478e-09
-2.28019e-09
9.29178e-09
-1.17589e-08
5.74638e-09
6.78459e-09
6.71578e-09
1.1083e-08
6.2673e-09
-4.37307e-09
6.79501e-10
6.4101e-09
3.84258e-09
6.12589e-09
3.00925e-09
-1.2094e-09
-9.18769e-10
-2.84899e-09
-9.06805e-09
-1.42925e-08
-7.23457e-09
9.17167e-05
-1.47456e-05
1.25198e-05
-3.31561e-06
1.02324e-05
1.78343e-06
6.42126e-06
3.95237e-06
3.87049e-06
4.59685e-06
1.99283e-06
4.34012e-06
8.00253e-07
3.82239e-06
2.31997e-07
3.20559e-06
-1.31984e-07
2.61273e-06
-1.87558e-07
2.01752e-06
-3.51272e-07
1.48917e-06
-3.28531e-07
1.09147e-06
-3.57404e-07
8.31369e-07
-2.79941e-07
6.93093e-07
-1.91849e-07
5.9317e-07
-1.29663e-07
4.95689e-07
-8.26145e-08
3.90423e-07
-6.07951e-08
3.098e-07
-2.72602e-08
2.30929e-07
1.01572e-08
1.68335e-07
2.69393e-08
1.14434e-07
3.70418e-08
6.6851e-08
3.25171e-08
3.1664e-08
2.17386e-08
8.85367e-09
1.18154e-08
-1.07323e-09
8.06339e-10
-1.61822e-08
-1.08927e-08
-3.67448e-08
-1.23529e-08
-3.05719e-08
1.09597e-09
-1.59887e-09
-1.26429e-09
1.89288e-08
3.6947e-09
-1.48024e-08
1.33624e-08
1.57171e-09
3.87299e-09
2.73127e-09
-1.34462e-09
3.67663e-09
6.83863e-09
4.0424e-10
-1.96289e-09
8.34114e-09
8.49196e-09
5.11663e-09
4.75506e-09
1.93275e-10
5.44174e-10
-4.87504e-09
6.31017e-09
-2.21015e-08
5.1585e-05
-3.3834e-06
8.90571e-06
-1.69832e-06
6.92843e-06
-6.48205e-07
4.79274e-06
4.93917e-07
3.80357e-06
1.51275e-06
2.53752e-06
2.15519e-06
1.71386e-06
2.50676e-06
9.42963e-07
2.56099e-06
3.44216e-07
2.33582e-06
5.07719e-08
1.86089e-06
-3.29067e-07
1.27493e-06
-4.78469e-07
7.95221e-07
-5.75752e-07
5.06017e-07
-5.07134e-07
4.01343e-07
-3.843e-07
3.88847e-07
-2.46591e-07
3.85159e-07
-1.56198e-07
3.64934e-07
-7.48698e-08
3.05898e-07
-2.49049e-08
2.49469e-07
4.12801e-09
1.87141e-07
3.18157e-08
1.27988e-07
3.58015e-08
7.86766e-08
3.14943e-08
3.88421e-08
2.1564e-08
1.34528e-08
1.14921e-08
-1.49077e-09
5.70602e-09
-6.57992e-09
-1.8942e-08
-1.02398e-08
-4.02981e-08
-1.02217e-08
-2.97167e-08
-8.03864e-10
9.10491e-09
-6.78179e-09
7.64986e-10
1.90692e-08
-9.49759e-09
8.4964e-09
6.51805e-09
4.55778e-09
1.01794e-08
4.72689e-09
-2.83884e-09
2.90079e-09
8.49626e-09
4.10157e-09
4.42873e-09
2.02964e-09
-2.16111e-09
5.66379e-10
-1.8271e-09
-4.23739e-09
-2.90447e-09
-1.2225e-08
8.18672e-05
9.31325e-06
2.40883e-05
1.18507e-05
1.82407e-05
9.513e-06
1.26274e-05
7.45852e-06
7.87898e-06
5.86947e-06
4.8885e-06
4.70786e-06
2.63795e-06
3.78013e-06
1.25012e-06
3.0399e-06
3.52369e-07
2.41618e-06
-1.65304e-07
1.84462e-06
-4.23161e-07
1.361e-06
-6.21066e-07
9.83654e-07
-5.76093e-07
7.40975e-07
-5.43958e-07
5.97628e-07
-3.98219e-07
5.1944e-07
-2.73231e-07
4.48153e-07
-1.68297e-07
3.70336e-07
-1.12239e-07
3.17945e-07
-5.39617e-08
2.58168e-07
2.00566e-10
2.03547e-07
2.11025e-08
1.48008e-07
3.38517e-08
9.21737e-08
2.95814e-08
4.69288e-08
2.04453e-08
1.53166e-08
1.29617e-08
2.53341e-09
4.26666e-09
-3.85724e-09
-1.67733e-09
-1.86151e-08
-1.11556e-08
-3.21077e-08
-8.03209e-09
-1.96001e-08
-1.4938e-08
1.54366e-08
1.06847e-08
-1.3769e-08
1.83687e-08
3.1985e-09
4.51112e-09
3.25816e-09
-3.81664e-09
2.47724e-09
8.09524e-09
2.67719e-09
-1.02732e-09
8.28047e-09
6.66239e-09
3.19379e-09
1.09396e-08
-1.0019e-08
1.5979e-09
-1.39521e-09
1.08219e-08
-2.37269e-08
8.78161e-06
-1.57237e-05
-5.08453e-06
-1.04078e-05
-1.24819e-06
-6.48869e-06
8.60376e-07
-3.85014e-06
1.53146e-06
-2.04444e-06
1.91493e-06
-7.25768e-07
1.64162e-06
1.64657e-07
1.41141e-06
7.77304e-07
9.81344e-07
1.11003e-06
6.02268e-07
1.20536e-06
3.0807e-07
1.04728e-06
-6.09322e-08
7.44329e-07
-3.39847e-07
4.71315e-07
-5.01298e-07
3.1069e-07
-5.04091e-07
2.68832e-07
-4.03677e-07
2.98901e-07
-2.7251e-07
3.39336e-07
-1.30912e-07
3.24017e-07
-4.2832e-08
2.88051e-07
-5.6246e-10
2.2816e-07
3.13507e-08
1.62076e-07
3.19131e-08
1.03277e-07
2.61085e-08
5.53526e-08
1.74767e-08
2.4466e-08
9.99815e-09
3.66945e-09
8.47612e-09
-2.28472e-09
2.44974e-09
-2.46501e-09
-1.34945e-08
-4.53622e-09
-2.8136e-08
-1.50615e-08
2.04637e-09
-6.48243e-09
-2.42965e-09
2.34787e-08
-7.91898e-09
8.85524e-09
3.22714e-09
3.82739e-09
1.15112e-08
4.77088e-09
-1.2009e-09
3.11841e-09
1.06498e-08
3.75499e-09
2.66371e-09
3.50491e-09
1.98822e-09
-6.74287e-10
-3.89085e-09
-3.0012e-09
-2.33901e-09
-4.57497e-09
2.30196e-05
-6.6033e-06
5.50916e-06
-3.84184e-06
5.62994e-06
-2.26102e-06
5.10351e-06
-1.12087e-06
4.69142e-06
-2.7243e-07
3.88149e-06
2.76724e-07
3.27212e-06
6.46902e-07
2.45397e-06
8.47981e-07
1.88019e-06
9.59928e-07
1.2615e-06
9.75374e-07
8.68675e-07
9.18715e-07
4.72106e-07
8.30672e-07
1.90024e-07
7.4806e-07
7.13771e-08
6.7989e-07
-2.68028e-08
6.23318e-07
-8.01572e-09
5.5867e-07
2.14141e-08
4.57894e-07
1.99188e-09
3.8055e-07
5.61516e-09
3.03054e-07
2.69148e-08
2.37226e-07
2.58286e-08
1.74976e-07
2.98225e-08
1.14188e-07
2.31232e-08
6.38389e-08
1.54783e-08
2.59802e-08
1.03423e-08
9.36914e-09
5.39796e-09
2.07907e-09
7.37611e-09
4.69894e-10
4.09013e-09
-9.71389e-09
-7.54681e-09
-2.24858e-08
-1.72695e-08
1.45663e-09
9.81972e-09
-1.44997e-08
1.89235e-08
5.49425e-10
6.69616e-09
1.20484e-08
-1.51213e-09
5.73839e-09
2.70785e-09
3.53956e-09
-8.51834e-10
8.14798e-09
6.24667e-09
6.20899e-09
8.80049e-09
-1.31729e-08
4.94788e-09
2.62211e-09
1.48333e-05
-5.74063e-06
2.51341e-06
-4.51169e-06
2.2341e-06
-3.79114e-06
1.89935e-06
-3.0941e-06
1.81152e-06
-2.40215e-06
1.579e-06
-1.7738e-06
1.51616e-06
-1.181e-06
1.28589e-06
-6.74178e-07
1.17326e-06
-2.32979e-07
9.50442e-07
9.73857e-08
7.69473e-07
3.14444e-07
5.73332e-07
3.70999e-07
3.20202e-07
3.16083e-07
4.60257e-08
2.45236e-07
-1.18428e-07
2.10269e-07
-1.84402e-07
2.25304e-07
-1.81577e-07
2.84737e-07
-8.16322e-08
3.02097e-07
-1.04892e-08
2.86824e-07
1.45994e-08
2.35895e-07
3.49327e-08
1.71809e-07
2.58451e-08
1.12874e-07
1.69844e-08
6.52817e-08
9.72556e-09
3.52095e-08
6.33842e-09
1.2303e-08
8.52578e-09
4.0954e-09
7.98959e-09
5.51874e-09
5.61337e-09
3.2869e-09
-2.59339e-08
-1.34106e-08
-1.42484e-08
-1.56224e-08
-1.53755e-08
1.1013e-08
-1.22052e-08
1.00918e-08
2.17693e-09
-4.55557e-09
1.71479e-08
2.09334e-09
3.55479e-10
-7.78826e-10
1.07314e-08
1.55921e-09
1.14822e-09
1.09676e-10
2.3463e-09
5.65834e-09
1.26862e-05
-5.96745e-06
1.88282e-06
-3.40541e-06
2.67311e-06
-2.28839e-06
2.76529e-06
-1.59267e-06
2.56862e-06
-1.10106e-06
2.377e-06
-7.15134e-07
2.05085e-06
-4.33146e-07
1.81277e-06
-2.04487e-07
1.45596e-06
-3.57908e-08
1.22493e-06
1.16356e-07
9.19626e-07
2.29264e-07
7.49793e-07
3.18869e-07
5.06778e-07
3.85603e-07
3.43613e-07
4.42154e-07
2.48466e-07
4.7611e-07
1.54703e-07
4.73833e-07
1.56583e-07
4.12486e-07
9.21542e-08
3.4145e-07
4.55807e-08
2.65477e-07
3.28301e-08
2.05612e-07
1.18571e-08
1.55404e-07
1.19351e-08
1.08598e-07
8.6187e-09
6.82778e-08
6.78411e-09
3.39279e-08
5.62113e-09
1.74052e-08
4.45149e-09
7.92239e-09
9.81701e-09
4.14161e-09
9.65588e-09
-7.2589e-09
-3.23944e-09
-2.22126e-08
-2.5241e-08
-8.65514e-09
-2.04175e-08
-1.98681e-08
8.32222e-10
-8.07231e-09
-5.39601e-09
1.33603e-08
-4.23856e-09
5.93229e-09
1.70467e-09
5.52717e-09
-3.48056e-09
1.32498e-08
7.56572e-09
1.09467e-08
3.5913e-06
-6.31969e-06
-1.66067e-06
-4.18025e-06
-6.12797e-07
-3.10232e-06
-1.58662e-07
-2.4291e-06
5.54697e-08
-1.94274e-06
2.06207e-07
-1.55242e-06
2.67936e-07
-1.2197e-06
3.5409e-07
-9.17128e-07
3.65895e-07
-6.44049e-07
4.08554e-07
-3.9192e-07
4.00983e-07
-1.80033e-07
3.87129e-07
-1.6514e-08
3.4534e-07
6.63062e-08
2.38823e-07
8.27661e-08
7.24505e-08
7.44973e-08
-3.0754e-08
8.02798e-08
-1.25175e-07
1.24424e-07
-9.73404e-08
1.61782e-07
-4.49408e-08
1.81176e-07
-2.10372e-08
1.65109e-07
6.1984e-09
1.29369e-07
2.92575e-09
9.05671e-08
-4.01573e-10
5.75227e-08
-2.77602e-09
3.71711e-08
-6.43452e-10
1.78995e-08
4.09182e-09
8.50608e-09
5.63291e-09
4.9359e-09
8.2193e-09
2.56584e-09
-9.78251e-09
-7.55386e-09
5.65214e-09
-3.83784e-08
-7.8353e-09
-2.97521e-08
-1.02393e-08
-4.8633e-09
2.1385e-09
-1.52999e-08
2.44224e-08
6.70416e-09
8.65849e-10
-9.26853e-10
1.87708e-08
6.52621e-06
-2.29093e-06
1.45472e-06
-1.56378e-06
1.44339e-06
-1.18872e-06
1.37386e-06
-9.04624e-07
1.3011e-06
-6.85478e-07
1.17131e-06
-5.23076e-07
1.05671e-06
-3.89588e-07
9.12911e-07
-2.87484e-07
8.07059e-07
-2.00294e-07
6.56949e-07
-1.31938e-07
5.64874e-07
-6.25593e-08
4.28774e-07
-1.99049e-09
3.67408e-07
6.18224e-08
2.5124e-07
1.24168e-07
1.83849e-07
1.88498e-07
1.36822e-07
2.25415e-07
1.12575e-07
2.09169e-07
6.2488e-08
1.77904e-07
1.19318e-08
1.33184e-07
-7.95795e-09
1.03386e-07
-3.07178e-08
8.38475e-08
-2.42181e-08
6.73032e-08
-1.74782e-08
4.94222e-08
-9.92468e-09
2.79777e-08
-7.55872e-09
1.46943e-08
-6.65086e-09
4.18247e-09
1.36621e-10
1.48144e-09
3.81719e-09
-2.27228e-09
1.02692e-08
1.53176e-08
-2.15898e-08
1.46851e-08
-4.92988e-08
1.68333e-08
-1.35136e-08
-3.8297e-09
-1.94894e-08
2.20629e-08
2.6199e-06
-2.81869e-06
-2.23243e-07
-2.23477e-06
-1.95713e-07
-1.90876e-06
-2.0083e-07
-1.64183e-06
-1.75013e-07
-1.41056e-06
-1.66538e-07
-1.20325e-06
-1.28211e-07
-1.00593e-06
-8.47062e-08
-8.23309e-07
-2.57625e-08
-6.56716e-07
9.82203e-09
-5.09435e-07
4.99907e-08
-3.78329e-07
6.82707e-08
-2.67223e-07
7.50361e-08
-1.76448e-07
7.71645e-08
-1.24654e-07
3.74863e-08
-1.16557e-07
-5.62914e-08
-1.13866e-07
-1.44673e-07
-7.45522e-08
-1.51237e-07
-2.78978e-08
-1.18363e-07
2.25289e-08
-8.5187e-08
4.57448e-08
-4.41851e-08
4.64433e-08
-3.61765e-08
3.32887e-08
-3.24785e-08
1.96286e-08
-3.0649e-08
1.10676e-08
-2.50208e-08
1.84312e-11
-1.81406e-08
-2.3608e-09
-1.19636e-08
-4.67952e-09
-4.52615e-09
6.71773e-09
5.1605e-09
4.8031e-09
2.22865e-08
-3.37955e-08
2.96767e-08
6.08218e-06
-1.40128e-06
1.4636e-06
-7.29452e-07
1.50235e-06
-4.71961e-07
1.38422e-06
-3.10615e-07
1.25324e-06
-2.02651e-07
1.11041e-06
-1.40228e-07
9.50513e-07
-1.18545e-07
7.91346e-07
-1.22527e-07
6.18097e-07
-1.44781e-07
4.74537e-07
-1.68886e-07
3.19645e-07
-1.92068e-07
2.2055e-07
-1.98958e-07
1.04049e-07
-1.91844e-07
6.00872e-08
-1.57475e-07
-7.16609e-09
-9.76881e-08
-1.98385e-08
-3.04329e-08
1.73827e-08
-2.17199e-09
-1.64219e-08
-1.7248e-09
-4.1652e-08
-1.98826e-08
-6.58385e-08
-2.53216e-08
-9.33676e-08
-3.03766e-08
-8.73435e-08
-2.42972e-08
-7.01679e-08
-1.09531e-08
-4.82185e-08
-8.52685e-09
-3.60318e-08
-7.17736e-09
-2.35911e-08
-9.72195e-09
-1.37696e-08
-6.51031e-09
1.02811e-06
-2.21709e-06
-9.17739e-07
-1.43376e-06
-5.79431e-07
-1.10177e-06
-4.66075e-07
-9.32086e-07
-3.96555e-07
-8.29724e-07
-3.60511e-07
-7.65003e-07
-3.20512e-07
-7.11883e-07
-2.8825e-07
-6.6375e-07
-2.41489e-07
-6.12609e-07
-1.97823e-07
-5.62423e-07
-1.63852e-07
-5.07855e-07
-1.27112e-07
-4.50735e-07
-1.02111e-07
-3.88872e-07
-8.15234e-08
-3.23926e-07
-5.41042e-08
-2.73386e-07
-5.23278e-08
-2.37955e-07
-1.07502e-07
-2.01027e-07
-1.11929e-07
-1.51845e-07
-1.17582e-07
-9.92023e-08
-8.26603e-08
-7.49278e-08
-6.60308e-08
-5.12625e-08
)
;

boundaryField
{
    inlet
    {
        type            extrapolatedCalculated;
        value           nonuniform List<scalar> 
13
(
-1.35892e-08
-6.56334e-09
-6.38635e-09
-5.83529e-09
-4.99849e-09
-4.64382e-09
-3.36412e-09
-5.33773e-09
-7.23457e-09
-2.21015e-08
-1.2225e-08
-2.37269e-08
-4.57497e-09
)
;
    }
    outlet
    {
        type            extrapolatedCalculated;
        value           nonuniform List<scalar> 0();
    }
    walls
    {
        type            extrapolatedCalculated;
        value           nonuniform List<scalar> 4(-2.8777e-08 1.41556e-05 9.78322e-06 1.06228e-05);
    }
    frontAndBack
    {
        type            empty;
    }
    procBoundary2to1
    {
        type            processor;
        value           nonuniform List<scalar> 
84
(
2.61302e-06
2.26092e-06
2.16309e-06
2.31101e-06
1.84312e-06
2.08079e-06
1.29111e-06
1.86592e-06
1.02338e-06
1.76566e-06
6.65127e-07
1.72075e-06
5.49312e-07
1.74386e-06
3.177e-07
1.85355e-06
7.56219e-08
1.99654e-06
1.22044e-07
2.05568e-06
-1.22317e-08
1.87989e-06
-1.27867e-07
1.64773e-06
-1.24385e-07
1.29664e-06
-2.00827e-07
1.01293e-06
-1.77711e-07
7.61456e-07
-1.36867e-07
5.86202e-07
-6.94789e-08
4.03984e-07
-4.45949e-08
3.41163e-07
-1.19407e-07
4.99871e-07
4.99871e-07
1.25403e-07
1.65821e-07
7.39228e-08
9.59172e-08
4.17208e-08
5.36746e-08
4.14321e-08
3.69454e-08
1.92154e-08
2.01261e-08
8.3473e-09
-5.45892e-09
-2.50255e-08
3.51413e-08
3.51413e-08
6.99566e-08
-6.1157e-08
7.11688e-08
-7.43471e-08
6.49331e-08
-6.14445e-08
3.68079e-08
-4.48323e-08
1.72284e-08
1.72284e-08
3.39722e-08
-4.50695e-08
2.13074e-08
-3.7506e-08
1.19025e-08
-3.5963e-08
1.12086e-08
-2.45978e-08
4.17716e-10
-1.84378e-08
-1.84378e-08
-1.89679e-08
1.37669e-08
-1.23777e-08
2.42701e-09
-1.04745e-08
-2.30931e-09
-1.09744e-08
-7.81961e-09
-8.3742e-09
)
;
    }
    procBoundary2to3
    {
        type            processor;
        value           nonuniform List<scalar> 
88
(
9.54718e-09
-3.2396e-08
-5.08714e-09
9.54718e-09
-6.84834e-09
9.91484e-09
-5.08714e-09
-1.5682e-08
6.54133e-09
6.01712e-09
9.91484e-09
-1.49442e-09
-3.7526e-09
7.17286e-09
4.67979e-09
1.0122e-08
6.54133e-09
-8.82349e-10
-6.67108e-08
-8.3917e-09
-2.27818e-08
3.20135e-09
-3.7526e-09
-2.20595e-08
-6.7299e-09
-1.96274e-08
2.0196e-08
8.65192e-09
2.11365e-10
1.32865e-08
-6.67108e-08
-3.12076e-08
-1.41876e-07
-3.28014e-08
-4.41887e-08
-9.11979e-09
-3.26514e-08
3.78305e-09
-2.5505e-08
6.89476e-09
-2.24919e-08
1.0619e-08
-2.48922e-08
-6.7299e-09
1.65285e-08
-4.46841e-07
2.27624e-06
-3.62874e-07
2.16502e-06
-3.58499e-07
2.03264e-06
-3.22204e-07
1.88254e-06
-2.70386e-07
1.7325e-06
-2.12013e-07
1.57544e-06
-1.60424e-07
1.40818e-06
-1.19e-07
1.24398e-06
-9.21947e-08
1.06555e-06
-7.89651e-08
9.06326e-07
-7.66544e-08
7.30031e-07
-8.14081e-08
5.95715e-07
-8.62519e-08
4.41484e-07
-8.67492e-08
3.49142e-07
-7.35506e-08
2.3687e-07
-3.95671e-08
1.91034e-07
5.08621e-09
1.68789e-07
3.10796e-08
1.23672e-07
5.04896e-08
9.7845e-08
5.75895e-08
8.19715e-08
5.59086e-08
-1.41876e-07
4.88967e-08
)
;
    }
    procBoundary2to6
    {
        type            processor;
        value           nonuniform List<scalar> 
13
(
-0.000155377
-6.8341e-05
-1.85638e-05
1.4934e-05
-2.50538e-05
-2.08621e-05
-1.51031e-05
-1.13412e-05
-1.2979e-05
-7.30805e-06
-7.56784e-06
-2.31239e-06
-5.43772e-06
)
;
    }
}


// ************************************************************************* //
