/*--------------------------------*- C++ -*----------------------------------*\
| =========                 |                                                 |
| \\      /  F ield         | OpenFOAM: The Open Source CFD Toolbox           |
|  \\    /   O peration     | Version:  2306                                  |
|   \\  /    A nd           | Website:  www.openfoam.com                      |
|    \\/     M anipulation  |                                                 |
\*---------------------------------------------------------------------------*/
FoamFile
{
    version     2.0;
    format      ascii;
    arch        "LSB;label=32;scalar=64";
    class       volScalarField;
    location    "550";
    object      div(phi);
}
// * * * * * * * * * * * * * * * * * * * * * * * * * * * * * * * * * * * * * //

dimensions      [0 0 -1 0 0 0 0];

internalField   nonuniform List<scalar> 
1340
(
3.00125e-05
7.79314e-05
-2.20556e-05
6.03188e-05
1.28347e-05
7.01942e-05
5.19512e-05
8.19859e-05
1.93486e-05
2.66972e-05
-4.10382e-05
1.39187e-05
8.65296e-06
4.66279e-05
3.32891e-05
6.25471e-05
1.97316e-05
1.8428e-05
-4.49934e-05
3.86951e-06
9.73999e-06
3.93244e-05
2.24329e-05
4.91358e-05
2.20272e-05
1.71815e-05
-4.87996e-05
2.16767e-06
1.13856e-05
3.62131e-05
1.53448e-05
3.83681e-05
2.11226e-05
1.45522e-05
-5.16766e-05
1.24966e-06
1.11736e-05
2.90749e-05
1.04467e-05
2.98049e-05
1.77349e-05
1.25808e-05
-5.03108e-05
2.33077e-06
1.02859e-05
2.17578e-05
6.47295e-06
2.24413e-05
1.42741e-05
1.05527e-05
-4.55932e-05
2.29062e-06
9.2015e-06
1.53369e-05
3.43449e-06
1.64332e-05
1.10849e-05
1.05042e-05
-4.0966e-05
2.99039e-06
7.75263e-06
1.0706e-05
1.32541e-06
1.24176e-05
8.38963e-06
9.82749e-06
-3.54878e-05
3.0975e-06
6.02032e-06
6.65045e-06
3.56845e-08
9.32323e-06
6.1855e-06
9.57406e-06
-3.082e-05
3.24755e-06
4.30659e-06
3.61627e-06
-9.50865e-07
7.18526e-06
4.60267e-06
9.19136e-06
-2.53318e-05
3.15149e-06
3.02708e-06
1.54666e-06
-1.60416e-06
5.44526e-06
3.7019e-06
7.36422e-06
-2.10308e-05
3.23428e-06
2.0816e-06
3.5938e-07
-1.96851e-06
4.21517e-06
2.54131e-06
4.89248e-06
-1.57168e-05
3.06043e-06
1.6152e-06
2.56684e-08
-1.68111e-06
3.2648e-06
1.78303e-06
2.64477e-06
-1.16665e-05
2.94072e-06
1.24626e-06
1.58236e-07
-1.15918e-06
2.5566e-06
1.22848e-06
7.51741e-07
-7.88046e-06
2.64171e-06
1.594e-06
3.17642e-07
-3.97058e-07
1.91151e-06
5.47795e-08
-1.80387e-07
-4.78629e-06
1.9199e-06
1.43083e-06
4.77796e-07
1.37368e-07
1.40116e-06
-1.77006e-07
-4.40647e-07
-2.6846e-06
1.19731e-06
-2.7477e-06
9.58949e-07
4.66734e-07
4.28605e-07
9.72479e-07
1.66837e-06
-7.90568e-08
-3.87871e-07
-1.42404e-06
6.65068e-07
-1.01497e-06
6.41592e-07
4.17111e-07
4.91004e-07
6.66918e-07
1.32517e-06
-5.69958e-08
-2.94181e-07
-6.47808e-07
2.47115e-07
-9.08086e-07
4.00336e-07
3.36638e-07
4.23295e-07
4.5273e-07
1.12407e-06
-5.74542e-08
-1.56373e-07
-3.18245e-07
7.18785e-08
-8.12701e-07
2.4121e-07
2.41555e-07
3.11679e-07
3.08292e-07
9.40187e-07
-3.95449e-08
-7.90978e-08
-1.67041e-07
6.11767e-09
-4.15367e-07
1.62659e-07
1.57078e-07
2.11181e-07
2.09763e-07
3.71126e-07
-6.61936e-08
-3.42093e-08
-9.14184e-08
-7.63352e-09
-3.04859e-07
9.07635e-08
8.93492e-08
1.44789e-07
1.37467e-07
2.09572e-07
-2.50935e-08
4.62033e-09
-3.80052e-08
-5.63551e-09
-2.75356e-07
-2.28388e-07
7.44119e-08
6.52814e-08
9.51678e-08
1.02005e-07
6.31421e-08
2.34257e-07
1.67039e-08
3.32915e-08
1.89049e-09
-2.79632e-09
-2.78824e-08
-1.34914e-07
7.28548e-08
5.22274e-08
6.84608e-08
7.41266e-08
6.67212e-08
1.91682e-07
3.59472e-08
5.05086e-08
1.65908e-08
9.1517e-09
2.7176e-08
-7.68978e-08
6.54885e-08
3.69967e-08
5.15232e-08
5.35645e-08
-4.3696e-09
1.31664e-07
2.91474e-08
5.1096e-08
2.92467e-08
1.09411e-08
1.8787e-10
-5.19225e-08
4.91487e-08
3.13579e-08
3.81719e-08
4.55343e-08
-9.88237e-09
7.06325e-08
2.12293e-08
4.35865e-08
3.90019e-08
1.30317e-08
2.94732e-08
-3.4486e-08
-4.02817e-09
1.57199e-08
2.21926e-08
4.34674e-08
-2.72654e-08
-5.97888e-08
-4.51245e-08
-2.64193e-10
9.72442e-09
4.77443e-08
2.4263e-08
-2.71435e-08
-4.59338e-08
-1.04182e-08
-3.12593e-08
1.15902e-08
1.4977e-08
5.50251e-08
4.32165e-08
2.94316e-09
-3.99333e-08
6.22179e-09
2.82538e-09
4.10121e-08
2.59806e-08
-4.48011e-09
-1.28541e-08
1.94517e-08
-1.39358e-08
3.52493e-09
-9.43388e-09
4.02467e-08
4.12246e-08
2.12258e-08
-1.62216e-08
-3.90825e-09
-3.09052e-08
1.6575e-08
-5.20157e-09
3.73972e-09
-1.34734e-10
1.16028e-08
-2.71851e-08
1.08876e-08
-2.59183e-08
2.82996e-08
2.06373e-08
2.17121e-08
-1.64863e-09
2.39756e-08
-1.40807e-08
2.56531e-08
9.24541e-09
2.48745e-08
1.73596e-08
1.54132e-08
2.82102e-08
-1.92228e-09
2.80264e-08
7.80838e-09
2.01855e-08
2.43847e-08
1.55288e-08
1.8395e-08
7.77509e-09
2.18219e-08
1.93248e-09
1.94653e-08
2.8176e-09
1.1749e-08
1.1163e-08
1.22029e-08
1.38224e-08
9.61382e-09
1.23155e-08
1.0569e-08
1.71977e-08
2.44466e-08
5.96237e-09
9.03235e-09
1.08603e-08
9.72132e-09
1.07659e-08
1.14219e-08
1.48706e-08
-1.57063e-08
2.04121e-09
3.5616e-09
6.60586e-09
5.37006e-09
1.76395e-08
8.48567e-09
1.19529e-08
6.55755e-09
-1.39076e-09
4.34483e-09
1.91846e-09
2.57464e-08
6.91135e-09
1.63554e-08
1.32813e-08
-1.1397e-08
4.08743e-09
7.00977e-10
2.79032e-08
-8.37863e-10
2.96006e-08
4.46972e-09
8.6627e-09
-5.98559e-09
3.44025e-09
1.55141e-09
1.39876e-08
-1.98498e-09
1.95897e-08
-2.54307e-09
8.35474e-09
-1.46559e-09
1.79314e-09
2.03455e-09
6.10195e-09
1.30501e-09
8.89431e-09
-1.42841e-09
5.61536e-09
1.52608e-09
1.06725e-08
5.08967e-09
4.67884e-09
4.29928e-09
5.7072e-09
4.72135e-09
5.70077e-09
5.22828e-09
7.89827e-09
7.05606e-09
1.59825e-09
1.8946e-09
4.61715e-09
5.84137e-09
5.81672e-09
6.82786e-09
6.97777e-09
7.37667e-09
6.02586e-09
9.82137e-10
1.82327e-09
1.55895e-09
3.35059e-09
4.92532e-09
5.0543e-09
4.41889e-09
5.25046e-09
3.74328e-09
-3.81787e-09
-1.49882e-09
-2.52071e-10
1.07549e-09
6.74613e-10
1.83397e-09
1.86994e-09
1.568e-09
5.54292e-10
-4.70203e-10
-4.72494e-09
-3.74227e-09
-2.73571e-09
-1.75028e-09
-1.50973e-09
-2.33779e-09
-6.89951e-10
-1.82188e-09
-2.28419e-08
-7.33148e-09
-6.06183e-09
-4.99306e-09
-5.34485e-09
-4.64526e-09
-4.15974e-09
-3.48385e-09
-4.17884e-09
-1.25741e-08
-7.1748e-09
-6.16777e-09
-6.41722e-09
-6.0763e-09
-5.44216e-09
-6.01438e-09
-3.82042e-09
-4.03118e-09
-1.1397e-08
-5.94202e-09
-5.66799e-09
-5.95964e-09
-5.92499e-09
-6.69472e-09
-6.8546e-09
-6.19267e-09
-5.39222e-09
-5.91385e-09
-8.40751e-09
-5.77079e-09
-4.97391e-09
-5.97609e-09
-6.08386e-09
-6.25379e-09
-5.95362e-09
-5.08632e-09
-4.06638e-09
-4.61897e-09
-8.33758e-09
-4.07504e-09
-3.9815e-09
-3.77314e-09
-3.6708e-09
-3.28829e-09
-2.98736e-09
-2.29127e-09
-2.24809e-09
-1.75696e-09
0.000144399
-7.57274e-05
3.43321e-05
-4.33792e-05
3.26392e-05
-1.79465e-05
2.41613e-05
-1.73499e-06
1.99436e-05
8.69407e-06
1.45721e-05
1.21076e-05
8.70877e-06
1.12948e-05
4.7926e-06
9.36575e-06
2.26973e-06
7.33366e-06
1.60134e-06
5.14988e-06
9.32805e-07
3.18573e-06
8.86091e-07
1.71708e-06
1.15151e-06
8.38647e-07
1.32946e-06
5.24683e-07
1.39416e-06
5.74193e-07
1.3779e-06
5.93311e-07
1.0945e-06
5.96036e-07
6.89187e-07
5.15769e-07
4.28551e-07
4.04127e-07
2.32751e-07
2.96147e-07
1.31784e-07
2.01248e-07
8.24921e-08
1.36655e-07
5.91611e-08
7.95191e-08
5.33709e-08
5.10811e-08
3.4183e-08
3.86303e-08
2.1658e-08
3.10757e-08
-1.36676e-08
2.93284e-08
8.91092e-10
4.42993e-08
3.8119e-08
4.04517e-08
4.38273e-08
-9.9262e-09
2.93965e-08
1.74835e-08
3.77723e-08
1.64582e-08
1.65297e-08
1.03925e-08
-4.40797e-10
6.97539e-09
1.58096e-08
2.58734e-09
1.47611e-08
1.23341e-08
1.05327e-08
1.89113e-09
1.8859e-09
-4.25738e-09
-7.30341e-09
-1.0811e-08
-8.43125e-09
-6.05346e-09
6.3138e-05
-4.65357e-05
1.75152e-05
-3.56573e-05
1.98821e-05
-2.44362e-05
1.655e-05
-1.45325e-05
1.53284e-05
-7.13372e-06
1.22483e-05
-2.53119e-06
8.99081e-06
-7.51341e-08
5.07864e-06
8.40005e-07
2.69053e-06
1.02753e-06
9.83954e-07
9.66313e-07
2.49891e-07
8.05514e-07
1.17009e-07
5.91096e-07
4.42064e-08
3.91073e-07
2.36524e-07
2.25381e-07
3.89835e-07
7.89676e-08
3.39175e-07
1.07912e-07
2.89474e-07
1.66501e-07
2.69274e-07
2.35826e-07
1.94272e-07
2.61163e-07
1.59064e-07
2.32267e-07
1.20391e-07
1.77422e-07
9.11016e-08
1.13213e-07
7.12884e-08
7.80208e-08
4.9354e-08
4.6875e-08
4.2592e-08
2.51101e-08
2.84026e-08
2.72559e-09
1.5928e-08
-2.11375e-08
1.8554e-08
-7.15404e-09
2.81425e-08
1.72451e-08
3.76188e-09
4.79841e-08
1.2603e-08
2.57322e-08
1.80747e-09
2.65076e-08
1.99409e-08
1.41323e-08
1.67931e-08
6.1068e-09
-3.17456e-09
1.9814e-08
8.19572e-09
7.09719e-09
3.3986e-10
1.15141e-09
-1.65848e-09
-8.1225e-09
-3.90967e-09
-1.14017e-08
-7.06026e-09
1.38214e-05
-3.02331e-05
1.4671e-06
-2.90564e-05
3.54702e-06
-2.57288e-05
3.99074e-06
-2.09713e-05
4.97447e-06
-1.71345e-05
4.93014e-06
-1.37928e-05
5.73752e-06
-9.23711e-06
5.01493e-06
-5.3106e-06
4.22265e-06
-2.56536e-06
3.11234e-06
-1.16502e-06
2.22014e-06
-6.95304e-07
1.20778e-06
-6.76419e-07
7.5443e-07
-7.26229e-07
4.06911e-07
-6.436e-07
2.22416e-07
-3.53029e-07
2.66559e-07
-1.09746e-07
2.58234e-07
7.76119e-08
1.84788e-07
1.66817e-07
1.6529e-07
1.88302e-07
1.19486e-07
1.74952e-07
9.19818e-08
1.41879e-07
7.06857e-08
1.12593e-07
5.69972e-08
6.97301e-08
5.23838e-08
4.34713e-08
3.66104e-08
2.73159e-08
2.99644e-08
1.79856e-08
-1.62721e-09
1.17954e-08
-2.49715e-08
8.27708e-09
-1.83952e-08
1.28916e-08
2.86339e-08
-7.16832e-09
2.74548e-08
1.33657e-08
3.65931e-08
1.33752e-08
1.35291e-08
7.4603e-09
-6.03429e-09
3.76132e-09
1.69524e-08
6.00647e-09
1.33051e-08
7.43391e-09
1.49821e-08
-1.27502e-08
1.80847e-09
-2.69258e-09
-8.49385e-09
-4.89985e-09
-1.55697e-05
-3.84128e-05
-5.87648e-06
-2.72218e-05
1.26695e-06
-2.06166e-05
4.57917e-06
-1.53948e-05
5.3467e-06
-1.18425e-05
6.1441e-06
-9.60594e-06
6.0418e-06
-7.51764e-06
5.90883e-06
-5.23881e-06
4.69464e-06
-3.47323e-06
3.92248e-06
-2.11963e-06
2.73896e-06
-1.14066e-06
2.13398e-06
-4.38554e-07
1.59075e-06
-3.30377e-08
1.1583e-06
1.70723e-07
9.50849e-07
1.54807e-07
5.93907e-07
1.25366e-07
3.3457e-07
1.09005e-07
2.13541e-07
1.30957e-07
1.13515e-07
1.54826e-07
8.91547e-08
1.54003e-07
7.15766e-08
1.32748e-07
6.17024e-08
9.13937e-08
5.09663e-08
6.88763e-08
3.6773e-08
4.38645e-08
3.57317e-08
2.77318e-08
2.79754e-08
1.87309e-08
2.22481e-08
-1.39015e-09
5.60398e-09
-2.21081e-08
5.01175e-09
-1.52777e-08
-1.31132e-08
3.72512e-08
1.30471e-08
2.46949e-08
-1.96014e-09
2.13892e-08
1.10694e-08
1.05783e-08
1.70429e-08
4.22591e-09
1.60804e-09
1.15549e-08
6.1378e-09
7.45825e-09
2.08753e-09
-1.68862e-10
-6.29693e-09
-9.56987e-09
2.0722e-09
2.23895e-05
-1.28093e-05
4.3257e-06
-1.18749e-05
4.31154e-06
-1.13248e-05
4.24098e-06
-1.01492e-05
3.84e-06
-8.66883e-06
3.81911e-06
-7.65446e-06
3.7377e-06
-6.69279e-06
3.94168e-06
-5.1714e-06
3.5289e-06
-3.67363e-06
3.17379e-06
-2.3952e-06
2.55591e-06
-1.51498e-06
2.15612e-06
-9.89954e-07
1.47091e-06
-7.31632e-07
1.10481e-06
-5.46605e-07
6.34636e-07
-3.17424e-07
4.47403e-07
-1.01948e-07
3.52879e-07
6.8175e-08
2.43722e-07
1.43596e-07
1.95164e-07
1.51977e-07
1.22065e-07
1.32108e-07
7.66184e-08
1.04804e-07
4.7552e-08
9.03541e-08
3.6752e-08
6.07264e-08
3.62485e-08
4.16451e-08
2.71248e-08
2.69518e-08
2.78725e-08
2.16321e-08
2.10003e-08
1.58718e-08
1.72825e-09
7.20303e-09
-2.67326e-08
-2.20105e-09
1.95793e-08
-8.08862e-09
1.74248e-08
6.86163e-10
3.22509e-08
4.79941e-09
1.30727e-08
1.91953e-08
-4.23926e-09
9.03391e-09
-1.96496e-09
6.49674e-09
8.16967e-09
1.06612e-08
9.80725e-09
-1.84009e-08
6.37121e-09
3.37488e-09
1.95695e-05
-9.18476e-06
4.97745e-06
-6.94789e-06
4.84865e-06
-6.0455e-06
4.54153e-06
-5.34524e-06
4.14526e-06
-4.56888e-06
3.6144e-06
-4.00972e-06
3.46527e-06
-3.65337e-06
3.17829e-06
-3.25038e-06
2.97221e-06
-2.62183e-06
2.45852e-06
-2.00986e-06
2.22698e-06
-1.38565e-06
1.75959e-06
-7.98286e-07
1.61134e-06
-2.54446e-07
1.382e-06
9.31919e-08
1.20924e-06
2.11454e-07
9.11159e-07
2.0495e-07
5.85046e-07
1.36163e-07
3.60463e-07
9.9918e-08
1.78399e-07
9.62742e-08
1.04473e-07
9.9773e-08
6.47156e-08
9.61089e-08
4.89263e-08
7.04766e-08
3.58215e-08
5.77833e-08
2.36484e-08
3.97928e-08
2.48445e-08
2.80727e-08
2.13544e-08
1.93626e-08
2.56966e-08
1.78537e-08
1.883e-08
-1.74476e-09
1.12692e-08
-1.12515e-08
-2.16809e-08
1.13003e-08
-4.53632e-09
2.04959e-08
-1.04392e-08
1.63795e-08
6.97037e-09
-5.29919e-09
2.41315e-08
-3.49922e-09
9.26748e-09
-2.75408e-09
2.38366e-09
-6.40183e-11
3.16805e-09
9.78696e-09
1.44631e-05
-6.39541e-06
3.55313e-06
-5.11769e-06
3.20633e-06
-4.67186e-06
2.95301e-06
-4.36725e-06
2.71888e-06
-3.96965e-06
2.4162e-06
-3.49333e-06
2.27989e-06
-3.18066e-06
2.19575e-06
-2.88722e-06
2.19704e-06
-2.37396e-06
1.98689e-06
-1.80285e-06
1.8176e-06
-1.25489e-06
1.54843e-06
-8.25757e-07
1.41279e-06
-5.56002e-07
1.07755e-06
-3.97971e-07
8.05138e-07
-2.34209e-07
5.9371e-07
-1.17567e-07
4.36726e-07
-7.17305e-09
2.94798e-07
5.36206e-08
2.2391e-07
7.09137e-08
1.37326e-07
6.67015e-08
8.01028e-08
5.66989e-08
4.03551e-08
6.02198e-08
2.59915e-08
4.72488e-08
2.48347e-08
3.73583e-08
1.81243e-08
2.53045e-08
2.10138e-08
2.21435e-08
2.09297e-08
2.21909e-08
1.70568e-08
1.89628e-08
-1.74966e-08
-1.45442e-08
-8.65716e-09
-2.9606e-08
-6.84232e-09
-2.71375e-08
1.87155e-08
-2.74575e-09
-3.92581e-09
2.21148e-08
-8.40134e-09
1.42068e-08
-1.01296e-08
1.14338e-08
7.80177e-09
1.82758e-08
1.09567e-05
-6.90713e-06
2.1582e-06
-4.34267e-06
2.79466e-06
-3.36157e-06
2.85244e-06
-2.87759e-06
2.74455e-06
-2.52839e-06
2.53502e-06
-2.15366e-06
2.2792e-06
-1.85879e-06
2.18593e-06
-1.67063e-06
2.03264e-06
-1.51009e-06
1.87843e-06
-1.2689e-06
1.55736e-06
-1.02748e-06
1.39271e-06
-7.48863e-07
1.10509e-06
-4.33224e-07
1.02558e-06
-1.39909e-07
9.68674e-07
-1.36908e-08
7.70045e-07
2.16939e-08
5.56679e-07
-1.61432e-08
3.59953e-07
-4.5723e-08
1.74832e-07
-3.59779e-08
9.24737e-08
-2.23556e-09
5.19494e-08
3.0642e-08
4.0655e-08
3.54036e-08
2.90157e-08
4.00575e-08
1.74428e-08
3.3304e-08
1.78878e-08
2.8588e-08
1.66647e-08
2.15584e-08
2.3668e-08
1.51671e-08
2.23649e-08
1.24106e-09
-2.04868e-09
-1.68672e-08
-4.33368e-08
-1.87477e-08
-4.38736e-08
1.14655e-08
-1.5851e-08
6.03136e-09
9.65318e-09
-2.11961e-08
3.73178e-08
-1.82665e-09
1.69026e-08
1.22248e-05
-4.76979e-06
2.75259e-06
-3.52371e-06
2.65385e-06
-2.92523e-06
2.3963e-06
-2.59797e-06
2.14683e-06
-2.36944e-06
1.92275e-06
-2.11348e-06
1.69159e-06
-1.82711e-06
1.54008e-06
-1.63233e-06
1.44537e-06
-1.48717e-06
1.36801e-06
-1.28253e-06
1.20112e-06
-1.05095e-06
1.05995e-06
-8.13503e-07
8.92376e-07
-6.3356e-07
8.40174e-07
-5.04546e-07
5.80348e-07
-3.74819e-07
5.15162e-07
-2.63739e-07
3.9511e-07
-1.72141e-07
2.67224e-07
-9.91897e-08
2.06823e-07
-5.11962e-08
1.34161e-07
-2.29127e-08
8.40313e-08
-5.19201e-09
4.32391e-08
2.01861e-08
2.58584e-08
2.72757e-08
2.19412e-08
3.02763e-08
1.50447e-08
2.527e-08
1.68976e-08
2.42194e-08
1.45627e-08
2.27521e-08
1.98443e-08
1.84309e-09
6.23785e-09
-3.35471e-08
-3.47849e-09
-4.83423e-08
1.57306e-08
-3.09575e-08
3.69723e-08
-3.27644e-09
-1.45422e-08
3.64857e-08
7.3918e-06
-3.20832e-06
2.23207e-06
-2.54657e-06
2.05871e-06
-2.11597e-06
1.89585e-06
-1.78823e-06
1.76581e-06
-1.58943e-06
1.63485e-06
-1.45767e-06
1.45664e-06
-1.32815e-06
1.26056e-06
-1.23255e-06
1.14121e-06
-1.18772e-06
1.01673e-06
-1.13923e-06
9.30066e-07
-1.02275e-06
7.64308e-07
-8.8683e-07
6.87997e-07
-6.88112e-07
5.46254e-07
-4.67651e-07
6.08364e-07
-3.05751e-07
5.22754e-07
-2.27074e-07
4.03565e-07
-1.99313e-07
2.97289e-07
-1.86126e-07
1.56862e-07
-1.53596e-07
8.59148e-08
-9.49701e-08
5.13772e-08
-3.24626e-08
4.47996e-08
-8.57206e-10
3.39393e-08
1.93864e-08
1.97086e-08
2.24108e-08
1.79249e-08
2.48724e-08
1.69798e-08
2.02266e-08
2.37088e-08
2.57782e-08
5.33045e-09
3.09225e-08
-2.14728e-08
3.32741e-08
-3.29019e-08
4.24662e-08
-4.55804e-08
4.90677e-08
7.49237e-06
-1.84679e-06
2.41594e-06
-1.7169e-06
2.08321e-06
-1.59963e-06
1.79942e-06
-1.41379e-06
1.56653e-06
-1.30466e-06
1.38511e-06
-1.2432e-06
1.20762e-06
-1.18459e-06
1.03498e-06
-1.10281e-06
8.93685e-07
-1.05555e-06
7.91827e-07
-1.02045e-06
7.14197e-07
-9.35004e-07
6.14518e-07
-8.13116e-07
5.39368e-07
-6.84991e-07
4.65063e-07
-5.69222e-07
4.23062e-07
-4.4288e-07
3.51308e-07
-3.35045e-07
3.4198e-07
-2.41438e-07
2.58383e-07
-1.72042e-07
2.05194e-07
-1.11529e-07
1.51559e-07
-6.32939e-08
1.12876e-07
-3.44558e-08
6.89373e-08
-5.37421e-09
4.02796e-08
6.60374e-09
2.59297e-08
1.98672e-08
1.72893e-08
2.53112e-08
1.27156e-08
2.33345e-08
2.04286e-08
1.49289e-08
3.29218e-08
-1.05765e-08
5.18475e-08
2.561e-06
-3.43082e-06
6.61639e-08
-2.37951e-06
7.89933e-07
-1.81948e-06
9.88028e-07
-1.43063e-06
1.00293e-06
-1.1725e-06
9.61696e-07
-1.01562e-06
9.03148e-07
-9.04874e-07
8.20745e-07
-8.00061e-07
7.22996e-07
-7.17053e-07
6.54732e-07
-6.65631e-07
5.92005e-07
-6.20921e-07
5.35733e-07
-5.49719e-07
4.61992e-07
-4.75645e-07
4.03147e-07
-3.94425e-07
3.43434e-07
-3.33704e-07
3.3019e-07
-2.92543e-07
2.49833e-07
-2.67688e-07
1.99581e-07
-2.31284e-07
1.3983e-07
-1.67344e-07
9.39186e-08
-1.19575e-07
7.36757e-08
-5.38732e-08
6.11532e-08
-2.04675e-08
4.02143e-08
-2.27006e-10
2.40653e-08
1.18918e-08
2.0863e-08
3.07705e-09
4.94383e-06
-2.00134e-06
1.55035e-06
-1.4818e-06
1.80163e-06
-1.27391e-06
1.73576e-06
-1.09403e-06
1.54811e-06
-9.07296e-07
1.36325e-06
-7.7783e-07
1.21511e-06
-6.8677e-07
1.09521e-06
-6.16105e-07
9.62235e-07
-5.43618e-07
8.54432e-07
-4.89795e-07
7.60231e-07
-4.53119e-07
6.82971e-07
-4.186e-07
5.75761e-07
-3.76647e-07
4.92406e-07
-3.36642e-07
4.08323e-07
-2.94637e-07
3.51785e-07
-2.55372e-07
2.81219e-07
-1.9987e-07
2.35437e-07
-1.58608e-07
2.80117e-07
-3.36996e-07
)
;

boundaryField
{
    inlet
    {
        type            extrapolatedCalculated;
        value           nonuniform List<scalar> 
11
(
-8.33758e-09
-4.07504e-09
-3.9815e-09
-3.77314e-09
-3.6708e-09
-3.28829e-09
-2.98736e-09
-2.29127e-09
-2.24809e-09
-1.75696e-09
-6.05346e-09
)
;
    }
    outlet
    {
        type            extrapolatedCalculated;
        value           nonuniform List<scalar> 0();
    }
    walls
    {
        type            extrapolatedCalculated;
        value           nonuniform List<scalar> 4(3.00125e-05 7.79314e-05 -2.20556e-05 6.03188e-05);
    }
    frontAndBack
    {
        type            empty;
    }
    procBoundary6to2
    {
        type            processor;
        value           nonuniform List<scalar> 
13
(
-0.000128356
-8.41088e-05
-4.7434e-05
-7.8028e-05
-8.05701e-06
-2.28897e-05
-1.46111e-05
-1.26148e-05
-4.47248e-06
-7.13531e-06
-3.52739e-06
-6.61734e-06
-2.15293e-06
)
;
    }
    procBoundary6to3
    {
        type            processor;
        value           uniform -5.79316e-06;
    }
    procBoundary6to5
    {
        type            processor;
        value           nonuniform List<scalar> 
86
(
-6.72988e-06
2.78239e-06
-6.77998e-06
3.0875e-06
-7.55568e-06
3.05109e-06
-8.91414e-06
2.86978e-06
-8.71619e-06
2.61312e-06
-8.06057e-06
2.45336e-06
-7.28647e-06
2.05134e-06
-6.56297e-06
1.75569e-06
-6.93424e-06
1.41719e-06
-6.64372e-06
1.07502e-06
-6.30872e-06
8.25764e-07
-5.4614e-06
9.2137e-07
-3.93325e-06
1.54521e-06
-2.65663e-06
2.22652e-06
-2.27414e-07
1.82518e-09
1.12367e-06
-2.10342e-06
2.62531e-06
2.62531e-06
1.36559e-06
-9.38882e-07
1.06292e-06
-7.8986e-07
9.06922e-07
-6.95663e-07
8.47643e-07
-3.48873e-07
4.3271e-07
-1.06888e-07
-1.11277e-07
1.10834e-07
1.10834e-07
2.55565e-07
-1.90233e-07
1.74519e-07
-1.15382e-07
1.18424e-07
-8.3052e-08
2.69148e-08
-4.3404e-08
9.52382e-08
9.52382e-08
1.08513e-07
2.5609e-08
-3.07644e-08
5.9617e-08
-1.81343e-08
2.26746e-08
8.86444e-09
8.86444e-09
1.43887e-08
6.41848e-09
2.40432e-08
-1.36415e-08
1.62386e-08
-1.48442e-08
-2.68431e-09
-2.68431e-09
-2.50965e-09
4.68322e-09
-4.08733e-10
2.76222e-09
-2.96806e-09
3.77984e-09
-1.23681e-08
-5.83545e-09
-1.07803e-08
-1.07803e-08
-7.24043e-09
-5.64594e-09
-4.97088e-09
)
;
    }
    procBoundary6to7
    {
        type            processor;
        value           nonuniform List<scalar> 
91
(
-1.0823e-08
-1.0823e-08
-1.72897e-08
-1.72897e-08
-1.96273e-08
-1.96273e-08
-1.32663e-08
-9.72387e-09
-1.32663e-08
-1.47179e-08
1.15892e-08
-9.72387e-09
-2.17359e-08
-2.1712e-09
9.13856e-09
1.15892e-08
-2.52536e-09
-7.99028e-09
2.16701e-08
-2.1712e-09
-8.4567e-09
-3.59643e-08
1.23637e-08
1.44874e-08
-7.99028e-09
-1.98834e-08
-2.44642e-08
5.37453e-08
-5.53707e-08
4.51605e-08
-3.59643e-08
-3.29322e-08
2.56097e-08
1.98159e-08
2.54281e-08
3.41863e-08
1.54093e-08
3.49355e-08
-2.44642e-08
1.33852e-08
2.93391e-07
-9.22841e-08
1.21573e-07
-5.00264e-08
9.32643e-08
-3.2094e-08
5.47533e-08
-1.79291e-08
4.66619e-08
1.10574e-09
3.98904e-08
2.56097e-08
9.64567e-09
8.99379e-07
-1.71096e-06
-3.38497e-07
-1.15977e-06
-6.36012e-08
-9.20108e-07
7.34548e-08
-7.29814e-07
1.69931e-07
-5.78729e-07
1.90895e-07
-4.94536e-07
2.07909e-07
-4.48753e-07
2.0071e-07
-4.23151e-07
2.05322e-07
-3.93706e-07
1.93917e-07
-3.78181e-07
1.98042e-07
-3.71832e-07
2.02596e-07
-3.58524e-07
1.99444e-07
-3.29826e-07
2.06782e-07
-2.88976e-07
1.90269e-07
-2.24574e-07
2.10633e-07
-1.55401e-07
2.21798e-07
-1.09906e-07
2.04335e-07
-7.14711e-08
2.93391e-07
1.62137e-07
)
;
    }
}


// ************************************************************************* //
