/*--------------------------------*- C++ -*----------------------------------*\
| =========                 |                                                 |
| \\      /  F ield         | OpenFOAM: The Open Source CFD Toolbox           |
|  \\    /   O peration     | Version:  2306                                  |
|   \\  /    A nd           | Website:  www.openfoam.com                      |
|    \\/     M anipulation  |                                                 |
\*---------------------------------------------------------------------------*/
FoamFile
{
    version     2.0;
    format      ascii;
    arch        "LSB;label=32;scalar=64";
    class       volScalarField;
    location    "775";
    object      div(phi);
}
// * * * * * * * * * * * * * * * * * * * * * * * * * * * * * * * * * * * * * //

dimensions      [0 0 -1 0 0 0 0];

internalField   nonuniform List<scalar> 
1340
(
-8.2434e-07
1.07683e-06
-2.32496e-08
1.82311e-06
-1.93147e-06
-9.6712e-07
1.69219e-07
6.30694e-07
1.03814e-07
3.15712e-07
-9.44891e-07
-2.33627e-07
2.64162e-07
2.12194e-07
1.87395e-07
-1.36453e-07
2.05501e-07
-3.79232e-07
-4.30269e-07
1.41567e-08
1.37738e-07
-4.64336e-08
6.92733e-08
-1.40169e-07
8.40546e-08
-7.47926e-07
-2.88734e-07
-4.08253e-08
-1.70777e-08
2.95925e-08
-1.41851e-07
5.24927e-08
-1.40811e-07
-5.36827e-08
-3.80673e-07
-2.6075e-07
-1.20894e-07
-4.83706e-08
-8.14341e-08
4.21855e-08
-1.05268e-07
5.96151e-09
-1.1371e-07
6.24226e-08
2.73511e-07
-2.69322e-07
-1.20429e-07
-8.44443e-08
-2.27374e-08
-1.10882e-07
4.90754e-08
-8.09968e-08
-2.252e-08
2.17969e-09
7.50963e-08
-2.18553e-07
-1.43918e-07
-9.16918e-08
-8.34526e-08
3.15514e-08
-6.98505e-08
3.15562e-08
-4.73065e-08
-2.23006e-08
4.38116e-08
1.34841e-07
-2.30251e-07
-1.26753e-07
-9.62788e-08
-3.59338e-08
-8.62306e-08
4.86457e-08
-3.86531e-08
7.53798e-09
-3.98067e-08
-1.80013e-08
3.87422e-08
-1.83935e-07
-1.32753e-07
-9.30901e-08
-7.29371e-08
2.74699e-08
-5.01387e-08
5.23884e-08
-4.42352e-08
-1.68134e-08
-4.49379e-08
6.31633e-08
-2.22055e-07
-1.94403e-07
-1.14274e-07
-8.17507e-08
-3.3866e-08
-6.60761e-08
5.45337e-08
-2.29468e-08
3.6836e-08
-7.04305e-08
-7.85334e-09
-9.34964e-08
1.234e-07
-1.52723e-07
-1.10276e-07
-8.05951e-08
-5.7723e-08
2.96302e-08
-2.97802e-08
6.69025e-08
-3.07636e-08
8.7461e-10
-4.15617e-08
4.33971e-09
-2.14418e-07
-1.59758e-07
-9.79948e-08
-7.0132e-08
-2.64158e-08
-4.79958e-08
5.8709e-08
-1.07577e-08
5.78051e-08
-4.99197e-08
-1.883e-08
-6.6959e-08
1.03486e-07
-1.58468e-07
-1.35116e-07
-9.26304e-08
-6.60099e-08
-4.4479e-08
3.07477e-08
-2.04577e-08
7.66781e-08
-1.80988e-08
2.52304e-08
-4.72232e-08
-1.95347e-08
-3.21874e-08
2.7616e-08
-1.42227e-07
-7.84351e-08
-5.32999e-08
-1.98332e-08
-3.53396e-08
6.00208e-08
1.34874e-10
7.50826e-08
-3.91265e-08
-2.02504e-08
-4.16094e-08
2.02957e-08
3.47304e-08
-1.42002e-08
-1.08442e-07
-7.82744e-08
-5.11023e-08
-3.25405e-08
3.04607e-08
-9.13835e-09
8.05584e-08
-3.7946e-09
3.8073e-08
-4.21705e-08
-2.30599e-08
-3.2412e-08
8.22204e-09
1.00722e-08
-1.33542e-07
-5.497e-08
-4.51225e-08
-1.49666e-08
-2.57952e-08
5.80519e-08
5.46282e-09
8.36523e-08
-3.20024e-08
-2.08174e-08
-3.09708e-08
3.3055e-08
3.47439e-09
-2.68644e-08
-8.2786e-08
-7.50084e-08
-3.14564e-08
-2.56038e-08
2.73556e-08
-6.57194e-09
8.05539e-08
-5.88158e-10
4.74804e-08
-3.28749e-08
-9.6281e-09
-3.47355e-08
-1.38776e-08
6.08199e-08
-2.90599e-07
-2.06108e-07
2.65145e-08
-1.44043e-08
-5.98304e-09
-1.95898e-08
5.42247e-08
8.85946e-09
8.6374e-08
-2.16711e-08
-5.66543e-09
-2.24677e-08
3.64058e-08
5.24057e-08
-2.01006e-07
1.48694e-07
4.77614e-08
-3.66824e-08
2.49641e-08
-6.63229e-09
2.64926e-08
-2.01574e-09
7.68379e-08
4.97069e-09
5.62473e-08
-1.97929e-08
6.57275e-09
-2.48239e-08
-3.96967e-08
1.16389e-07
-4.46458e-07
-2.245e-07
8.16116e-08
3.70259e-08
8.53986e-09
-1.30869e-08
4.98981e-08
8.25482e-09
8.52373e-08
-1.67222e-08
8.47989e-09
-1.97716e-08
4.80419e-08
6.01308e-08
-9.71263e-08
-8.37981e-08
-4.74969e-07
6.01213e-08
3.90797e-09
1.43474e-08
-4.11296e-09
2.4302e-08
-2.54023e-09
7.20103e-08
3.29762e-09
6.06608e-08
-1.25813e-08
1.45685e-08
-1.54786e-08
1.34728e-08
-5.18786e-08
-5.68483e-08
-4.56638e-07
4.06604e-08
9.53208e-09
3.8658e-09
-1.10193e-08
4.52877e-08
8.05722e-09
8.11915e-08
-9.78973e-09
1.37453e-08
-9.69323e-09
5.45304e-08
5.91145e-08
-9.86987e-08
-1.52638e-07
-1.01097e-08
-3.9345e-07
1.61857e-08
-1.76655e-10
-8.21882e-09
2.04839e-08
-1.15028e-09
6.58298e-08
5.15703e-09
5.9629e-08
-5.03942e-09
1.74079e-08
-9.01187e-09
1.71247e-09
-3.58782e-09
-1.55204e-07
-7.9312e-08
8.49698e-08
-2.14842e-09
-2.29484e-09
-7.48968e-10
-1.06451e-08
4.06124e-08
5.62001e-09
7.5512e-08
-9.85254e-09
1.45816e-08
-1.06794e-08
6.33387e-08
4.03802e-08
-7.85705e-08
-1.7947e-07
1.26072e-07
-2.53768e-07
1.53587e-08
-5.37312e-09
-1.00769e-08
1.74616e-08
-2.97148e-09
5.9827e-08
1.51963e-09
5.6609e-08
-6.9345e-09
2.09831e-08
-1.00251e-08
1.25872e-08
-1.321e-07
8.61674e-10
-1.53232e-07
2.14406e-07
-2.89716e-07
-6.24374e-09
-6.71096e-09
-2.7947e-09
-1.01338e-08
3.61867e-08
4.41988e-09
6.90465e-08
-8.97624e-09
1.44127e-08
-6.05013e-09
6.89169e-08
-3.19754e-08
-6.29875e-08
-1.92154e-07
4.37742e-08
-3.20347e-08
1.43182e-07
1.03233e-08
-8.88475e-09
-1.05227e-08
1.5014e-08
-2.55719e-09
5.34021e-08
1.34153e-09
5.21319e-08
-4.89806e-09
2.33424e-08
-1.04904e-08
-2.54727e-08
-1.03819e-07
-6.6301e-08
-4.03592e-08
1.77477e-07
-2.41004e-07
-1.25348e-08
-8.64142e-09
-3.62204e-09
-9.83721e-09
3.20111e-08
1.71585e-09
6.2294e-08
-1.11457e-08
1.37016e-08
-2.85838e-09
5.80431e-08
-9.86569e-09
-1.11256e-07
-6.39058e-08
4.00474e-08
-2.53003e-09
2.1517e-07
-2.94277e-07
6.67287e-09
-8.89686e-09
-9.93056e-09
1.31512e-08
-4.33929e-09
4.74597e-08
-2.30997e-09
4.74958e-08
-5.58033e-09
2.45799e-08
-7.46933e-09
-2.56817e-08
-6.21574e-08
-5.81327e-08
1.32389e-08
1.06645e-07
-4.1453e-09
7.68244e-08
-1.1307e-08
-8.41855e-09
-3.5455e-09
-9.20547e-09
2.81085e-08
4.47792e-10
5.5423e-08
-1.01805e-08
1.32944e-08
1.17146e-10
5.569e-08
-4.57615e-11
-8.13731e-08
-4.25058e-08
6.85719e-08
9.92208e-09
2.44612e-07
-2.24869e-07
4.43236e-09
-8.85121e-09
-8.99918e-09
1.15458e-08
-4.13434e-09
4.14897e-08
-2.58465e-09
4.27225e-08
-3.77649e-09
2.33738e-08
-3.4745e-09
-1.25229e-08
-3.64934e-08
-2.94397e-08
2.70297e-08
1.86865e-07
6.17723e-09
1.88512e-07
-2.20832e-07
-1.223e-08
-7.74543e-09
-3.19076e-09
-8.79674e-09
2.45267e-08
-1.83001e-09
4.88893e-08
-1.15186e-08
1.2111e-08
-3.63118e-11
5.35361e-08
8.20277e-09
-5.56564e-08
-1.98473e-08
6.96036e-08
6.04109e-08
1.78756e-07
-3.12497e-08
1.07459e-07
3.63476e-09
-7.40218e-09
-7.86949e-09
1.01696e-08
-5.50035e-09
3.62154e-08
-5.36803e-09
3.8052e-08
-4.54083e-09
2.12941e-08
-2.40725e-09
-6.28311e-09
-2.66026e-08
-2.52107e-08
1.55429e-08
1.77107e-07
-1.07444e-08
2.38751e-07
-2.72592e-07
-9.39838e-09
-6.48075e-09
-2.67217e-09
-8.10319e-09
2.12437e-08
-2.68635e-09
4.26927e-08
-1.05143e-08
1.10024e-08
5.64344e-10
4.83242e-08
7.12401e-09
-5.36311e-08
-2.63349e-08
4.39356e-08
2.6887e-08
2.27964e-07
-5.20024e-08
1.67273e-07
-2.12964e-07
3.35032e-09
-6.53701e-09
-6.81041e-09
8.91043e-09
-5.19444e-09
3.12017e-08
-5.31451e-09
3.3502e-08
-3.57201e-09
1.87476e-08
-3.61529e-09
-8.61115e-09
-2.95231e-08
-3.46222e-08
-3.54709e-09
1.34144e-07
6.05158e-09
1.43493e-07
-4.58559e-08
7.0537e-08
-8.84769e-09
-5.44996e-09
-2.17575e-09
-7.65321e-09
1.83258e-08
-4.22742e-09
3.71076e-08
-1.14699e-08
9.34436e-09
-9.03309e-10
4.10728e-08
3.42677e-09
-5.41764e-08
-3.25915e-08
2.56896e-08
-1.90295e-09
2.04289e-07
-5.21128e-08
1.71068e-07
-3.19879e-08
3.33522e-09
-5.12147e-09
-5.81201e-09
7.79804e-09
-6.05134e-09
2.69257e-08
-7.19868e-09
2.92175e-08
-4.72831e-09
1.55827e-08
-5.86208e-09
-1.15329e-08
-3.04696e-08
-3.69929e-08
-1.54748e-08
1.05996e-07
-1.70882e-08
1.78736e-07
1.69877e-08
1.13167e-07
-6.62873e-08
-6.37033e-09
-4.30094e-09
-1.71736e-09
-6.96784e-09
1.57327e-08
-4.54287e-09
3.19868e-08
-1.06043e-08
7.71927e-09
-1.67646e-09
3.42218e-08
4.12939e-10
-5.12993e-08
-3.31605e-08
1.76914e-08
-1.2778e-08
1.68027e-07
-2.42821e-08
1.1851e-07
-5.50113e-08
6.49226e-08
3.31665e-09
-4.34462e-09
-4.93153e-09
6.82368e-09
-5.49975e-09
2.2967e-08
-6.75779e-09
2.51628e-08
-4.4724e-09
1.25481e-08
-8.06182e-09
-1.30182e-08
-2.83414e-08
-3.43137e-08
-2.05186e-08
8.88973e-08
-1.90369e-08
1.55818e-07
-3.68671e-08
1.84673e-08
-1.76192e-08
-5.76873e-09
-3.46935e-09
-1.29661e-09
-6.40812e-09
1.34635e-08
-5.29166e-09
2.74432e-08
-1.12158e-08
5.87278e-09
-3.68224e-09
2.78303e-08
-1.27466e-09
-4.63974e-08
-3.13844e-08
1.46815e-08
-1.3217e-08
1.30611e-07
-2.69747e-08
-3.43092e-08
-4.76722e-09
-1.0955e-07
3.30205e-09
-3.26095e-09
-4.11656e-09
5.93513e-09
-5.81777e-09
1.95952e-08
-7.84345e-09
2.14553e-08
-5.61609e-09
9.64566e-09
-9.74416e-09
-1.4089e-08
-2.54405e-08
-2.8109e-08
-2.04534e-08
7.18026e-08
-1.55603e-08
-1.76943e-08
-3.35614e-08
-6.39426e-08
2.63453e-08
-6.207e-08
-3.93375e-09
-2.58594e-09
-9.56509e-10
-5.68309e-09
1.1425e-08
-5.15503e-09
2.32945e-08
-1.03199e-08
4.43485e-09
-4.33921e-09
2.20975e-08
-1.8841e-09
-3.84607e-08
-2.64101e-08
1.63314e-08
-4.49752e-09
-3.07173e-09
-2.81785e-08
2.20747e-08
-2.44658e-08
8.39615e-08
-3.99169e-08
3.27009e-09
-2.68134e-09
-3.42299e-09
5.11196e-09
-5.07277e-09
1.64545e-08
-7.10327e-09
1.81055e-08
-5.24228e-09
7.21056e-09
-1.05527e-08
-1.24692e-08
-1.86824e-08
-2.06027e-08
-7.93249e-09
-1.40048e-08
-1.73766e-10
3.83914e-08
-7.04951e-09
1.17929e-07
-1.81811e-08
7.37786e-08
-3.45458e-09
-1.99705e-09
-6.43293e-10
-5.04252e-09
9.58676e-09
-5.33844e-09
1.96219e-08
-1.0381e-08
3.09841e-09
-5.47616e-09
1.78722e-08
-6.36943e-10
-3.02561e-08
-1.30662e-08
-1.06203e-08
4.51657e-09
3.76873e-08
-6.79504e-09
1.5861e-07
-2.22922e-08
1.32271e-07
-1.12402e-07
3.17117e-09
-1.87558e-09
-2.80117e-09
4.31506e-09
-5.061e-09
1.37323e-08
-7.58022e-09
1.51426e-08
-5.75705e-09
5.29048e-09
-1.08135e-08
-9.47849e-09
-1.12734e-08
-1.06314e-08
-6.96396e-09
1.32001e-08
-4.54608e-11
9.71943e-08
-1.51271e-08
1.44515e-07
-3.55926e-08
9.06515e-08
-1.15179e-07
-2.11931e-09
-1.38061e-09
-4.4509e-10
-4.39349e-09
7.89704e-09
-5.01723e-09
1.62893e-08
-9.32098e-09
2.23726e-09
-5.34112e-09
1.49291e-08
3.71176e-10
-2.17139e-08
-5.90389e-09
-4.70251e-09
1.13274e-08
4.59473e-08
1.93836e-11
1.34522e-07
-2.65171e-08
6.74173e-08
-2.86873e-08
1.36846e-08
3.08169e-09
-1.5e-09
-2.32085e-09
3.54591e-09
-4.35428e-09
1.1199e-08
-6.7089e-09
1.25595e-08
-5.00124e-09
4.12616e-09
-1.00682e-08
-7.63717e-09
-7.71266e-09
-8.46005e-09
-7.02816e-09
8.84902e-09
-3.74744e-09
7.94792e-08
-2.66619e-08
1.17255e-07
-3.82356e-08
3.73091e-08
-6.57988e-08
-1.8084e-09
-1.02205e-09
-2.93313e-10
-3.81885e-09
6.36486e-09
-4.90159e-09
1.33749e-08
-8.95532e-09
1.60094e-09
-5.26985e-09
1.25519e-08
3.08192e-10
-1.86296e-08
-6.22681e-09
-7.68383e-09
4.19816e-09
3.53106e-08
-9.55198e-09
1.09825e-07
-3.51502e-08
5.58741e-08
-3.63989e-08
3.52917e-08
2.90974e-09
-9.65509e-10
-1.90192e-09
2.81623e-09
-4.17049e-09
9.01133e-09
-6.78002e-09
1.03424e-08
-4.92666e-09
3.37156e-09
-9.139e-09
-6.01974e-09
-5.6641e-09
-5.72561e-09
-4.81247e-09
9.69362e-09
-3.12809e-09
6.83176e-08
-2.71982e-08
9.96482e-08
-4.09137e-08
7.07056e-08
-7.93638e-08
-8.67036e-10
-6.36779e-10
-1.98243e-10
-3.24377e-09
4.97619e-09
-4.47687e-09
1.0744e-08
-7.85345e-09
1.31059e-09
-4.41762e-09
1.11728e-08
1.32599e-09
-1.31738e-08
-1.89565e-09
-1.80794e-09
9.06698e-09
3.42797e-08
-3.33697e-09
9.23553e-08
-3.40303e-08
7.99005e-08
-3.65751e-08
5.07733e-08
-8.18873e-08
2.7419e-09
-7.25688e-10
-1.55639e-09
2.14144e-09
-3.49688e-09
6.99099e-09
-5.84342e-09
8.40161e-09
-3.95017e-09
3.0656e-09
-7.45021e-09
-4.14416e-09
-2.99516e-09
-3.64267e-09
-3.39221e-09
7.922e-09
-3.63668e-09
5.49042e-08
-2.36893e-08
8.37934e-08
-3.57686e-08
3.37617e-08
-2.78478e-08
4.74808e-09
-6.27136e-10
-3.89519e-10
-9.42446e-11
-2.65029e-09
3.73294e-09
-4.07429e-09
8.40615e-09
-7.24096e-09
1.07095e-09
-3.38498e-09
9.93062e-09
1.50952e-09
-1.13318e-08
-2.57398e-09
-4.23638e-09
3.6283e-09
2.54378e-08
-8.53972e-09
7.58856e-08
-3.39766e-08
6.64182e-08
-3.64787e-08
1.42613e-08
-5.10598e-08
2.56047e-09
-3.25597e-10
-1.19071e-09
1.5199e-09
-3.0338e-09
5.25913e-09
-5.61948e-09
6.70436e-09
-3.50138e-09
2.98781e-09
-6.25447e-09
-3.42604e-09
-2.36494e-09
-3.06866e-09
-3.07408e-09
6.95228e-09
-4.20942e-09
4.69927e-08
-2.22389e-08
7.0642e-08
-3.46437e-08
2.30866e-08
-3.29758e-08
-2.22632e-10
1.059e-10
-8.03861e-11
2.66954e-11
-1.98605e-09
2.63178e-09
-3.49894e-09
6.32726e-09
-6.30959e-09
1.46688e-09
-2.42224e-09
8.58964e-09
1.9348e-09
-8.66647e-09
-8.98899e-10
-1.43926e-09
5.89019e-09
2.3744e-08
-4.65525e-09
6.47407e-08
-2.87893e-08
4.96422e-08
-3.52025e-08
1.18732e-10
-4.24443e-08
2.42998e-09
-1.02172e-10
-7.43243e-10
1.17409e-09
-2.31481e-09
4.01463e-09
-4.5565e-09
5.64024e-09
-2.13225e-09
3.10581e-09
-4.99031e-09
-3.05916e-09
-2.24148e-09
-7.32511e-10
-3.32519e-09
5.46123e-09
-5.40013e-09
3.74802e-08
-2.04387e-08
5.1001e-08
-3.28557e-08
-1.02818e-08
-2.82625e-08
-2.55585e-08
5.34841e-10
3.34508e-10
2.43567e-10
-1.39139e-09
2.39997e-09
-2.85431e-09
5.43909e-09
-5.10231e-09
9.62433e-10
-2.44508e-09
6.41227e-09
-7.76254e-10
-2.46087e-09
-6.3266e-09
3.57943e-10
-2.04626e-09
1.90432e-08
-1.05179e-08
4.41145e-08
-2.82985e-08
-7.31586e-09
-3.37417e-08
-1.92336e-08
-1.50769e-08
-1.52273e-08
2.14338e-09
1.42657e-10
-1.45846e-10
1.45044e-09
-1.82727e-09
4.01108e-09
-4.22947e-09
4.18278e-09
-1.67127e-09
2.13151e-09
-6.01105e-09
1.36271e-09
-7.87145e-09
5.57667e-09
-1.17222e-08
9.96653e-09
-1.41935e-08
2.08903e-08
-2.63643e-08
-8.34596e-09
-3.31004e-08
1.74808e-10
-2.17605e-08
1.95977e-08
-2.06434e-08
1.20133e-09
8.68343e-10
5.49169e-10
-1.07339e-09
3.09195e-09
-2.57568e-09
4.64023e-09
-3.58942e-09
2.7821e-10
-2.90268e-09
5.39433e-09
-2.1991e-09
4.2958e-10
-7.46929e-09
-1.63129e-09
-3.89492e-09
2.78542e-09
-8.41021e-09
-6.73762e-09
-1.88008e-08
5.89857e-09
-1.90958e-08
3.62655e-08
-1.31921e-08
1.53776e-08
2.39637e-09
5.54001e-10
2.44251e-10
1.98811e-09
-1.54405e-09
3.72428e-09
-3.5223e-09
2.31999e-09
-1.83266e-09
1.22316e-09
-5.52265e-09
1.06669e-09
-3.70489e-09
-4.30411e-09
-2.61846e-09
-2.92438e-09
1.87803e-09
-7.4945e-10
-1.91348e-09
7.73309e-09
-1.12901e-08
3.93562e-08
-1.15304e-08
1.79931e-08
-1.75013e-08
1.14962e-09
9.71946e-10
8.00009e-10
-7.96676e-10
2.57744e-09
-2.19202e-09
3.14908e-09
-3.00994e-09
-1.00088e-11
-3.0861e-09
3.77908e-09
-1.21961e-09
-5.57282e-09
-3.90613e-09
-6.2982e-09
-3.24816e-11
-1.33592e-09
1.04902e-09
1.26728e-09
-4.02649e-09
2.92143e-08
-9.3991e-09
3.03619e-08
-9.66604e-09
1.25205e-08
2.66048e-09
8.66105e-10
2.83743e-10
1.5858e-09
-1.36023e-09
2.48051e-09
-3.09057e-09
1.41562e-09
-2.30887e-09
7.34178e-10
-3.9633e-09
-3.29672e-09
-1.35013e-09
-1.01651e-08
1.75323e-09
-9.1172e-09
6.05884e-09
-7.45697e-09
5.68771e-09
1.92871e-08
-3.79175e-09
4.01941e-08
-9.0155e-09
1.36619e-08
-1.67112e-08
1.47184e-09
1.11436e-09
8.39459e-10
-7.63071e-10
1.61655e-09
-2.10876e-09
1.91852e-09
-2.80946e-09
-1.84392e-10
-2.59522e-09
1.98049e-09
-1.154e-09
-6.39442e-09
-3.4817e-09
-4.26977e-09
-8.63614e-10
-3.73587e-09
-3.53382e-10
9.16953e-09
-5.3201e-09
3.38995e-08
-1.07972e-08
1.97134e-08
-9.35324e-09
7.83944e-09
2.65279e-09
1.07389e-09
7.93473e-11
1.00656e-09
-1.48697e-09
1.30222e-09
-2.76075e-09
8.90375e-10
-2.30692e-09
5.796e-10
-3.16389e-09
-2.56609e-09
-3.57062e-09
-3.01012e-09
-3.75159e-09
-1.17556e-09
-4.30518e-09
5.24037e-11
-7.8058e-09
1.79783e-08
-1.26149e-08
2.60427e-08
-1.02986e-08
5.45184e-09
-1.37845e-08
1.6838e-09
9.65607e-10
6.82616e-10
-1.02333e-09
7.36781e-10
-2.09616e-09
1.02383e-09
-2.41826e-09
-1.18637e-10
-1.89839e-09
1.91568e-09
-3.63852e-09
-3.35068e-09
-4.23608e-09
-2.45599e-09
-2.31673e-09
-2.92584e-09
-2.11676e-09
9.22972e-09
-8.07738e-09
2.29335e-08
-1.2477e-08
6.21287e-10
-8.82989e-09
-6.20631e-09
2.724e-09
1.16498e-09
-4.43606e-10
6.62755e-10
-1.54875e-09
4.35068e-10
-2.31019e-09
5.8269e-10
-1.87328e-09
9.03382e-10
-4.36646e-09
-1.03117e-09
-6.03344e-09
1.47688e-11
-6.15002e-09
2.4731e-09
-6.90055e-09
4.59657e-09
-1.01701e-08
1.12851e-08
-1.45312e-08
-1.43527e-09
-1.23549e-08
-4.93388e-09
-3.99954e-09
-3.6972e-09
1.7655e-09
3.72027e-10
6.44723e-10
-1.1338e-09
1.5456e-10
-1.56337e-09
2.88695e-10
-1.69252e-09
1.02769e-10
-1.77004e-09
1.45631e-09
-4.01173e-09
-2.47357e-09
-2.9655e-09
-6.19746e-10
-2.68894e-09
1.11741e-09
-4.61425e-09
2.39528e-09
-1.00107e-08
-4.56758e-09
-1.21524e-08
2.91586e-09
-6.79476e-09
8.62117e-09
-8.83524e-09
5.57792e-10
1.98472e-09
-1.91431e-09
1.40778e-09
-7.97162e-10
-3.91067e-10
-1.3711e-09
8.91939e-11
-1.44721e-09
6.49167e-10
-3.54938e-09
-2.17022e-09
-2.38318e-09
-2.48365e-09
-7.91335e-10
-2.85545e-09
2.21419e-10
-3.88602e-09
-3.84791e-10
-3.63613e-09
-3.66702e-09
4.81175e-09
-8.23801e-09
7.12089e-09
-8.15025e-09
3.43888e-09
4.04153e-09
-1.68468e-09
1.57142e-09
-2.23317e-10
3.23192e-10
-8.75906e-10
-7.43943e-10
-1.40015e-09
-1.34155e-09
-2.49949e-09
-1.38756e-09
-3.23419e-09
-2.94738e-09
-2.49815e-09
-1.7455e-09
-2.77821e-09
-1.19393e-09
-4.25484e-09
-1.6024e-09
-5.66678e-09
-2.17966e-09
-1.04195e-08
6.94761e-09
-9.41137e-09
3.63055e-09
-1.36449e-08
-1.16022e-09
8.28773e-10
2.70292e-10
6.27277e-10
-5.46054e-11
-7.99171e-10
-1.3179e-09
-1.05649e-09
-1.29847e-09
-1.1277e-09
-2.3821e-09
-3.38766e-09
-1.59773e-09
-3.66967e-09
-6.16629e-10
-4.80314e-09
-1.04439e-09
-6.56956e-09
-3.23911e-09
-6.81548e-09
-5.31947e-09
5.17873e-09
-8.57137e-09
-8.70346e-10
-1.16421e-08
-5.16818e-09
9.80839e-10
1.57057e-10
1.74776e-10
6.16324e-11
-2.00021e-10
-3.23852e-10
-2.64379e-10
-2.41213e-10
-2.13728e-10
-5.51462e-10
-9.39575e-10
-7.794e-10
-1.34932e-09
-6.06278e-10
-2.20911e-09
-9.8064e-10
-3.73985e-09
-1.87477e-09
-5.51792e-09
-4.70485e-09
-2.18421e-09
-7.76125e-09
-4.6242e-09
-9.50853e-09
-7.93483e-09
-1.16586e-08
)
;

boundaryField
{
    inlet
    {
        type            extrapolatedCalculated;
        value           nonuniform List<scalar> 
26
(
9.80839e-10
1.57057e-10
1.74776e-10
6.16324e-11
-2.00021e-10
-3.23852e-10
-2.64379e-10
-2.41213e-10
-2.13728e-10
-5.51462e-10
-9.39575e-10
-7.794e-10
-1.34932e-09
-6.06278e-10
-2.20911e-09
-9.8064e-10
-3.73985e-09
-1.87477e-09
-5.51792e-09
-4.70485e-09
-2.18421e-09
-7.76125e-09
-4.6242e-09
-9.50853e-09
-7.93483e-09
-1.16586e-08
)
;
    }
    outlet
    {
        type            extrapolatedCalculated;
        value           nonuniform List<scalar> 0();
    }
    walls
    {
        type            extrapolatedCalculated;
        value           nonuniform List<scalar> 0();
    }
    frontAndBack
    {
        type            empty;
    }
    procBoundary0to1
    {
        type            processor;
        value           nonuniform List<scalar> 
94
(
2.62179e-06
1.12245e-06
1.12245e-06
5.82383e-07
5.82383e-07
2.16599e-07
2.16599e-07
1.8268e-07
1.8268e-07
3.47243e-07
3.47243e-07
2.8462e-07
1.48911e-07
1.48911e-07
6.40373e-08
9.45805e-08
9.45805e-08
2.53863e-07
-2.85331e-07
3.27137e-07
3.27137e-07
1.79943e-07
6.6935e-08
6.6935e-08
2.04178e-08
-2.25327e-08
5.13976e-09
5.13976e-09
5.19552e-09
-7.57266e-07
1.12762e-07
1.12762e-07
-3.96399e-07
1.86213e-07
1.86213e-07
1.37205e-07
-1.74252e-07
4.09787e-07
4.09787e-07
2.5034e-07
-1.74969e-07
3.79581e-07
3.79581e-07
1.5792e-07
-1.57083e-07
2.95461e-07
2.95461e-07
1.63124e-07
-2.03041e-07
2.5674e-07
2.5674e-07
1.08245e-07
8.32506e-08
1.61854e-07
1.61854e-07
8.6312e-08
-1.02426e-08
-2.02745e-08
4.61975e-08
4.61975e-08
5.15588e-09
5.73958e-08
-4.64114e-08
1.37516e-07
1.37516e-07
5.12498e-08
-3.8031e-08
1.78473e-08
-5.00477e-08
7.12213e-08
7.12213e-08
2.61875e-08
-3.91818e-08
-8.16037e-09
-4.18126e-08
-2.09446e-08
-2.45718e-08
-2.45718e-08
-1.90143e-08
1.06954e-08
-1.65879e-08
8.56238e-09
-1.2543e-08
5.63854e-09
-1.0137e-08
-1.12817e-09
-5.27948e-09
-5.27948e-09
-4.91663e-09
4.73832e-09
-8.63866e-09
-2.69063e-09
-1.6152e-08
-1.69761e-08
)
;
    }
    procBoundary0to4
    {
        type            processor;
        value           nonuniform List<scalar> 
72
(
-1.55756e-06
-4.31116e-07
-8.85116e-07
-2.71872e-07
-3.13002e-07
-2.46648e-07
-1.84513e-07
-2.05109e-07
-1.38682e-07
-1.79729e-07
-1.05059e-07
-1.59726e-07
-8.73102e-08
-1.38868e-07
-7.22394e-08
-1.3882e-07
-7.02767e-08
-1.2938e-07
-3.57588e-08
-2.40349e-07
-2.22995e-08
-1.35132e-07
-1.30505e-07
-1.30505e-07
-8.90757e-09
1.06449e-08
-9.70142e-09
1.23494e-08
-1.18109e-08
1.22665e-08
-1.20841e-08
8.05951e-09
-1.23014e-08
7.99619e-09
-1.04151e-08
6.15323e-09
-9.3435e-09
6.7093e-09
-7.25167e-09
5.64446e-09
-6.22003e-09
6.02309e-09
-4.56981e-09
5.18632e-09
-3.77481e-09
5.3516e-09
-2.53815e-09
4.62708e-09
-1.95315e-09
4.64714e-09
-1.07707e-09
3.98622e-09
-6.12759e-10
3.91156e-09
1.13192e-10
3.4739e-09
4.15245e-10
3.64896e-09
5.44806e-10
4.29985e-09
4.80791e-10
3.87907e-09
8.95555e-10
3.3498e-09
1.46249e-09
3.22453e-09
1.68046e-09
2.70619e-09
2.23881e-09
-1.45168e-10
3.16881e-09
4.26758e-10
)
;
    }
    procBoundary0to5
    {
        type            processor;
        value           nonuniform List<scalar> 4(-1.79631e-07 -2.00276e-07 1.64552e-06 -1.42079e-06);
    }
}


// ************************************************************************* //
