/*--------------------------------*- C++ -*----------------------------------*\
| =========                 |                                                 |
| \\      /  F ield         | OpenFOAM: The Open Source CFD Toolbox           |
|  \\    /   O peration     | Version:  2306                                  |
|   \\  /    A nd           | Website:  www.openfoam.com                      |
|    \\/     M anipulation  |                                                 |
\*---------------------------------------------------------------------------*/
FoamFile
{
    version     2.0;
    format      ascii;
    arch        "LSB;label=32;scalar=64";
    class       volVectorField;
    location    "750";
    object      momentError;
}
// * * * * * * * * * * * * * * * * * * * * * * * * * * * * * * * * * * * * * //

dimensions      [0 1 -2 0 0 0 0];

internalField   nonuniform List<vector> 
1340
(
(-0.00062158 0.00131951 1.15494e-13)
(0.000761703 0.0115814 -1.13954e-14)
(0.052441 0.0722284 -4.53999e-16)
(1.09065 -0.120057 -6.74683e-14)
(-0.000904015 0.000446489 -3.94941e-14)
(-0.00166 0.00232315 3.30534e-14)
(-0.0321342 0.0143184 -1.41197e-14)
(-0.892591 0.108502 -3.85081e-14)
(-0.00132914 0.000341668 -3.61652e-14)
(-0.00303995 0.00131005 -9.98043e-14)
(-0.0163926 0.00204568 2.77746e-14)
(-0.112718 0.00973135 9.91175e-15)
(-0.00167564 0.000273864 -1.16595e-13)
(-0.00197991 0.000650705 1.66337e-14)
(-0.00660461 -0.00024977 -2.82966e-14)
(-0.0330367 0.00904813 4.56587e-14)
(-0.0024967 0.000220882 1.18028e-13)
(-0.00153791 0.000322117 -3.96436e-14)
(-0.00366145 -0.00075088 -1.662e-14)
(-0.0196109 0.00936504 -5.31817e-16)
(-0.000978333 -0.000458693 7.32787e-14)
(-0.00112837 0.000250645 8.46272e-14)
(-0.00325021 -0.000739429 3.84848e-14)
(-0.0164374 0.00992003 2.85625e-14)
(0.0237042 -0.00766112 -1.01837e-13)
(-0.00733787 0.00262787 -5.77943e-14)
(-0.00300753 -0.00128093 6.50702e-15)
(-0.0126316 0.00919199 -2.58425e-14)
(-0.0132168 0.0020463 6.94173e-14)
(-0.00335777 -0.0017222 5.85341e-14)
(-0.00186142 4.04611e-05 -3.50454e-14)
(-0.00729092 0.00821381 -2.77325e-14)
(-0.00861468 0.00538356 -8.2352e-14)
(0.00617936 -0.00278663 -1.57879e-14)
(-0.013979 0.00946739 2.61612e-14)
(-0.00349943 0.00683936 -4.96357e-15)
(0.000955028 -0.000589916 3.04295e-14)
(-0.00125828 -0.000782101 5.40655e-15)
(-0.00279901 0.00062337 -1.68841e-14)
(0.000676553 0.00368042 4.25687e-14)
(-0.000449943 0.000278419 -2.02335e-14)
(-0.000234838 -0.000198118 2.06736e-14)
(0.00625482 -0.00778222 1.50911e-14)
(0.00239303 0.00245912 7.6027e-15)
(-0.000171176 -4.68849e-06 5.97704e-14)
(-0.000189474 -0.000290209 3.4706e-14)
(-0.00176925 -0.000770921 1.5039e-14)
(0.000827092 0.00410368 -3.5586e-14)
(-0.00022379 -1.71155e-06 -5.60543e-14)
(-0.000551037 -5.98348e-05 -4.43367e-14)
(-0.00167677 0.000383852 3.17837e-15)
(0.000757643 0.00314447 1.54584e-15)
(-0.000211656 -1.65188e-05 4.06994e-14)
(-0.00055023 -5.70789e-05 5.33803e-14)
(-0.00109411 0.000118179 -3.67086e-14)
(0.000735889 0.00260781 1.99759e-15)
(-0.000205679 -9.47791e-06 3.92951e-15)
(-0.000552685 -6.02848e-06 -6.59995e-14)
(-0.00101484 0.000379077 2.42854e-14)
(0.000683691 0.00234435 1.06458e-15)
(-0.000205608 3.8748e-06 -6.65102e-14)
(-0.000525563 3.52366e-05 2.33759e-14)
(-0.000823098 0.000439408 -1.72113e-15)
(0.000664028 0.00202984 9.70018e-15)
(-0.000205446 1.70135e-05 1.19832e-14)
(-0.000490435 7.16455e-05 6.26857e-15)
(-0.000665895 0.000494394 -1.69638e-14)
(0.000622951 0.0017569 -6.5747e-15)
(-0.000205725 2.89765e-05 1.63918e-14)
(-0.000452398 0.000103072 -5.47978e-15)
(-0.000529202 0.000521331 4.63674e-15)
(0.000572513 0.00150909 7.86104e-15)
(-0.000201923 4.06666e-05 9.1205e-15)
(-0.000412472 0.000128316 -2.65002e-14)
(-0.000413773 0.000526963 2.60767e-14)
(0.000520105 0.00128619 -6.30421e-15)
(-0.000197059 5.24905e-05 -7.04782e-15)
(-0.000371108 0.000148479 7.41982e-15)
(-0.000314251 0.000518271 2.22065e-15)
(0.000468021 0.00108834 -4.58364e-15)
(-0.000187902 6.49192e-05 -1.26023e-14)
(-0.000329705 0.000164673 -4.9342e-15)
(-0.000233462 0.000498148 -1.86645e-14)
(0.000419277 0.000914644 -2.96302e-15)
(-0.000178523 7.70599e-05 -1.59414e-14)
(-0.000289521 0.00017649 -1.05187e-14)
(-0.000165143 0.000471562 4.47033e-15)
(0.000374242 0.000765773 3.0825e-15)
(-0.000165826 8.81963e-05 3.96839e-14)
(-0.000250702 0.000185117 2.06253e-14)
(-0.000111699 0.000441967 -1.04227e-14)
(0.000333069 0.000639188 -6.60997e-16)
(-0.000153846 9.81288e-05 -9.38216e-15)
(-0.000214536 0.00018985 -2.36001e-15)
(-6.71344e-05 0.000410679 6.01608e-15)
(0.000295535 0.000534215 2.02942e-15)
(-0.000139549 0.000106116 -1.58346e-14)
(-0.000180346 0.000192391 -6.53379e-15)
(-3.40261e-05 0.00037895 -1.41014e-14)
(0.000261453 0.000446182 -2.5405e-15)
(-0.000126497 0.00011252 1.0934e-14)
(-0.000149828 0.000191268 -1.87187e-14)
(-7.2972e-06 0.000346061 9.63734e-15)
(0.000231397 0.000375656 8.39689e-15)
(-0.000112073 0.000116582 -8.5677e-15)
(-0.000121839 0.000188137 2.79151e-14)
(1.13806e-05 0.000315229 2.3524e-14)
(0.000204798 0.000317336 -1.29424e-15)
(-9.92815e-05 0.000118619 -3.35905e-15)
(-9.76264e-05 0.000182316 1.2138e-14)
(2.60724e-05 0.000284705 -6.794e-15)
(0.000180976 0.000270935 1.43692e-15)
(-8.60925e-05 0.000117114 8.39482e-15)
(-7.57607e-05 0.000175884 -2.55934e-14)
(3.52268e-05 0.000256812 -1.03704e-14)
(0.000159761 0.000231517 -4.82194e-15)
(-7.33083e-05 0.000116307 1.56398e-15)
(-5.71378e-05 0.000166393 1.49039e-14)
(4.17381e-05 0.000230103 5.03127e-15)
(0.000140626 0.000199849 -2.62772e-15)
(-6.15398e-05 0.000112387 -1.22344e-14)
(-4.11436e-05 0.000157663 -1.42127e-14)
(4.47802e-05 0.000205486 -1.53639e-14)
(0.000123679 0.000172557 -2.148e-15)
(-4.97152e-05 0.000110576 2.87532e-15)
(-2.7587e-05 0.000146625 3.185e-15)
(4.59e-05 0.000182482 3.17361e-15)
(0.000108474 0.000150588 9.70909e-15)
(-4.0538e-05 0.000104917 2.95557e-15)
(-1.75156e-05 0.000136171 1.41166e-15)
(4.53988e-05 0.000161586 -4.31663e-16)
(9.50961e-05 0.000131238 1.29274e-15)
(-4.28992e-05 8.16239e-05 -1.97103e-14)
(-3.11426e-05 0.000100349 -1.93896e-14)
(-8.12698e-06 0.000125196 -6.15371e-15)
(4.35554e-05 0.00014257 -4.9281e-15)
(8.32174e-05 0.000115548 -9.69923e-15)
(-3.45926e-05 7.98633e-05 5.06115e-16)
(-2.38704e-05 9.59896e-05 7.17222e-15)
(-2.7491e-06 0.000113887 3.05123e-15)
(4.12046e-05 0.000125631 9.99527e-15)
(7.28413e-05 0.000101498 8.02812e-15)
(-2.94034e-05 7.62696e-05 1.21921e-14)
(-1.79949e-05 8.88546e-05 -1.76859e-15)
(2.53945e-06 0.000103482 1.26576e-14)
(3.82714e-05 0.000110487 3.10562e-15)
(6.36895e-05 8.98934e-05 4.04367e-15)
(-2.33932e-05 7.13079e-05 -2.57708e-15)
(-1.31023e-05 8.23907e-05 8.36209e-15)
(5.21756e-06 9.34247e-05 -1.09722e-14)
(3.52219e-05 9.70901e-05 -9.65506e-15)
(5.57661e-05 7.94188e-05 -1.0254e-14)
(-1.96556e-05 6.68231e-05 -6.76971e-15)
(-8.93857e-06 7.56297e-05 -9.61805e-15)
(8.01737e-06 8.40191e-05 6.82864e-15)
(3.19904e-05 8.53689e-05 3.87746e-16)
(4.88785e-05 7.07226e-05 -8.13547e-15)
(-1.50309e-05 6.20173e-05 5.88254e-15)
(-5.78982e-06 6.92136e-05 1.06237e-14)
(8.75949e-06 7.52353e-05 -5.77731e-15)
(2.90038e-05 7.50484e-05 -1.18705e-14)
(4.29114e-05 6.28299e-05 1.84192e-15)
(-1.26312e-05 5.72964e-05 4.73077e-15)
(-3.25649e-06 6.28268e-05 8.08504e-15)
(1.00214e-05 6.71577e-05 2.49883e-15)
(2.60277e-05 6.61503e-05 1.35837e-14)
(3.77453e-05 5.61129e-05 1.1274e-14)
(-9.37535e-06 5.20769e-05 -2.57358e-15)
(-1.38282e-06 5.70482e-05 3.51221e-16)
(9.65104e-06 5.97712e-05 3.7444e-15)
(2.34504e-05 5.83039e-05 2.6112e-16)
(3.32218e-05 4.99881e-05 -9.84171e-17)
(-7.65604e-06 4.73184e-05 -2.10059e-15)
(9.00646e-08 5.07666e-05 -1.30006e-14)
(1.00614e-05 5.32932e-05 -1.04391e-14)
(2.09453e-05 5.15539e-05 -6.33844e-15)
(2.92985e-05 4.47028e-05 -1.92e-15)
(-5.29172e-06 4.25027e-05 -5.32633e-15)
(1.36796e-06 4.6097e-05 -6.09503e-16)
(9.50947e-06 4.73764e-05 7.86425e-15)
(1.87736e-05 4.56358e-05 2.50865e-15)
(2.58187e-05 3.98961e-05 -6.70935e-15)
(-3.76895e-06 3.92009e-05 1.45765e-14)
(2.45882e-06 4.12521e-05 8.57736e-15)
(9.30992e-06 4.22743e-05 -5.60721e-15)
(1.67109e-05 4.05051e-05 -9.32789e-16)
(2.27659e-05 3.5708e-05 5.34818e-15)
(-2.11594e-06 3.54071e-05 3.09157e-15)
(2.79095e-06 3.73445e-05 -5.72133e-15)
(8.5944e-06 3.76259e-05 -6.92772e-15)
(1.48578e-05 3.59437e-05 -7.29542e-16)
(2.00221e-05 3.18998e-05 1.54369e-15)
(-5.5837e-06 3.06775e-05 -3.78293e-15)
(-1.31561e-06 3.23886e-05 2.57783e-16)
(3.41937e-06 3.34974e-05 1.66663e-15)
(8.0365e-06 3.353e-05 -3.90779e-15)
(1.31278e-05 3.19563e-05 -2.75812e-15)
(1.76041e-05 2.85518e-05 -1.06555e-15)
(-4.01704e-06 2.81156e-05 -5.4941e-15)
(-2.84625e-07 2.95326e-05 -4.78827e-16)
(3.08107e-06 3.00186e-05 -2.67702e-15)
(7.18003e-06 2.98278e-05 1.37367e-15)
(1.15696e-05 2.83753e-05 7.65639e-15)
(1.54051e-05 2.54933e-05 -1.86013e-16)
(-3.20319e-06 2.55313e-05 -4.31248e-15)
(-2.66637e-07 2.63874e-05 -8.37702e-16)
(3.17129e-06 2.67367e-05 -4.39821e-15)
(6.55733e-06 2.65087e-05 6.74972e-15)
(1.01231e-05 2.52094e-05 -9.32125e-16)
(1.34856e-05 2.27953e-05 -2.95272e-15)
(-2.37955e-06 2.2786e-05 3.83207e-15)
(3.17378e-07 2.35737e-05 3.20934e-15)
(2.76421e-06 2.38293e-05 5.00278e-15)
(5.7246e-06 2.34922e-05 -3.17269e-16)
(8.84696e-06 2.23655e-05 -2.12917e-15)
(1.17292e-05 2.03411e-05 6.37827e-15)
(-1.95616e-06 2.03419e-05 -3.49101e-15)
(2.03169e-07 2.08258e-05 -2.69835e-15)
(2.68824e-06 2.10475e-05 -2.41893e-15)
(5.14872e-06 2.07841e-05 -2.5737e-15)
(7.68967e-06 1.98455e-05 7.96873e-15)
(1.02132e-05 1.81552e-05 -1.1881e-16)
(-1.4783e-06 1.80515e-05 -1.36026e-15)
(6.08965e-07 1.84947e-05 6.04794e-16)
(2.36271e-06 1.86436e-05 -3.90067e-15)
(4.46874e-06 1.83504e-05 1.55228e-15)
(6.68588e-06 1.75663e-05 -1.03101e-15)
(8.81286e-06 1.61777e-05 -5.31542e-15)
(-1.1855e-06 1.62486e-05 2.53369e-15)
(4.3339e-07 1.63814e-05 -1.21748e-15)
(2.20737e-06 1.63741e-05 1.44273e-15)
(3.98955e-06 1.61555e-05 4.04515e-16)
(5.78528e-06 1.55245e-05 -7.24592e-16)
(7.63522e-06 1.44141e-05 2.24735e-15)
(-1.1318e-06 1.4509e-05 5.40615e-15)
(4.82619e-07 1.44777e-05 7.24418e-15)
(1.86831e-06 1.43971e-05 1.71375e-16)
(3.46352e-06 1.41536e-05 -1.12137e-15)
(5.03782e-06 1.3687e-05 -3.9414e-15)
(6.53958e-06 1.28257e-05 -1.80422e-15)
(-1.18248e-06 1.27113e-05 -1.00206e-15)
(9.38201e-08 1.26618e-05 -1.0394e-15)
(1.66404e-06 1.26113e-05 -2.22141e-16)
(3.13022e-06 1.24617e-05 5.71442e-16)
(4.41401e-06 1.20681e-05 3.77162e-15)
(5.70568e-06 1.14313e-05 3.55409e-15)
(-2.34037e-06 1.10989e-05 5.26507e-16)
(-1.26711e-06 1.11257e-05 2.38452e-15)
(1.55016e-07 1.13509e-05 2.19318e-15)
(1.6053e-06 1.12408e-05 -1.9519e-15)
(2.78328e-06 1.10088e-05 -1.5207e-15)
(3.88701e-06 1.06747e-05 -6.27467e-16)
(4.91381e-06 1.01559e-05 -2.49757e-15)
(-2.042e-06 9.78884e-06 -1.97567e-15)
(-9.93515e-07 1.02122e-05 -7.87514e-17)
(1.57593e-07 1.02222e-05 5.91043e-16)
(1.34996e-06 1.0014e-05 -3.25811e-15)
(2.42822e-06 9.77774e-06 -7.85783e-16)
(3.39483e-06 9.40627e-06 1.43118e-15)
(4.29424e-06 8.9808e-06 -6.14606e-16)
(-1.5916e-06 8.80911e-06 5.98291e-17)
(-8.39764e-07 9.03589e-06 1.782e-16)
(-2.37199e-08 9.14021e-06 -4.70594e-15)
(1.13985e-06 8.92203e-06 3.58627e-15)
(2.06608e-06 8.64273e-06 1.30017e-15)
(2.90672e-06 8.27765e-06 -2.44771e-15)
(3.70087e-06 7.90984e-06 3.88545e-15)
(-1.35464e-06 7.71271e-06 3.17928e-15)
(-7.43069e-07 7.94102e-06 1.56857e-15)
(1.08054e-09 8.07489e-06 6.76202e-16)
(8.37129e-07 7.87996e-06 -1.42894e-15)
(1.65384e-06 7.61995e-06 -5.36099e-15)
(2.48087e-06 7.30707e-06 3.45823e-15)
(3.23671e-06 6.98854e-06 -5.07547e-16)
(-1.0302e-06 6.71416e-06 1.04153e-15)
(-5.74327e-07 6.9727e-06 2.15003e-16)
(-1.51194e-07 7.10264e-06 -1.23471e-15)
(6.32658e-07 6.95328e-06 -4.72933e-16)
(1.38832e-06 6.80295e-06 -2.6662e-16)
(2.13433e-06 6.54681e-06 2.48604e-16)
(2.79535e-06 6.25993e-06 1.27748e-16)
(-8.24133e-07 5.92262e-06 -1.36053e-16)
(-4.75148e-07 6.08183e-06 1.1142e-15)
(-8.05392e-08 6.26338e-06 1.0616e-15)
(5.26726e-07 6.21119e-06 7.57898e-16)
(1.17348e-06 6.10849e-06 -1.23198e-16)
(1.80345e-06 5.89068e-06 1.49559e-15)
(2.39955e-06 5.67155e-06 6.59424e-16)
(-6.17446e-07 5.16503e-06 -2.19076e-15)
(-3.38674e-07 5.35073e-06 -2.93147e-16)
(-5.25059e-08 5.50211e-06 1.8639e-15)
(4.64773e-07 5.46634e-06 -9.87128e-16)
(9.64248e-07 5.40458e-06 -4.85203e-15)
(1.52665e-06 5.25818e-06 -5.82486e-17)
(2.03458e-06 5.06924e-06 7.55425e-16)
(-6.72039e-07 4.31878e-06 -9.42019e-16)
(-4.45737e-07 4.4542e-06 -8.33242e-16)
(-3.59179e-07 4.69284e-06 -3.75403e-16)
(2.96374e-08 4.68853e-06 4.39306e-16)
(3.70653e-07 4.72021e-06 -1.89487e-15)
(8.19174e-07 4.68223e-06 -6.34756e-16)
(1.25433e-06 4.58607e-06 2.87665e-16)
(1.68466e-06 4.43516e-06 -1.68531e-16)
(-5.22195e-07 3.69505e-06 5.58476e-16)
(-3.72814e-07 3.81537e-06 1.88142e-15)
(-2.725e-07 3.99652e-06 1.1529e-15)
(4.11569e-08 3.98542e-06 -2.97251e-15)
(3.36541e-07 4.02758e-06 -1.58564e-15)
(6.68691e-07 4.01873e-06 1.09782e-15)
(1.03605e-06 3.94836e-06 4.98006e-16)
(1.4389e-06 3.87347e-06 -2.80238e-16)
(-4.27578e-07 3.13479e-06 1.2232e-15)
(-2.8445e-07 3.24726e-06 3.12104e-16)
(-1.84032e-07 3.40119e-06 -1.59625e-15)
(7.35852e-08 3.39602e-06 1.13548e-15)
(2.97271e-07 3.43641e-06 1.23028e-15)
(5.73697e-07 3.43629e-06 -1.01586e-15)
(8.8477e-07 3.4123e-06 -1.08834e-15)
(1.20607e-06 3.34804e-06 -1.43832e-16)
(-3.03162e-07 2.66291e-06 -2.14931e-16)
(-1.69634e-07 2.74049e-06 6.00605e-16)
(-1.36092e-07 2.94274e-06 -7.16241e-16)
(1.09668e-07 2.89801e-06 2.276e-15)
(2.82914e-07 2.93824e-06 -1.97666e-15)
(5.03068e-07 2.95635e-06 -2.48292e-15)
(7.43176e-07 2.92858e-06 3.28713e-15)
(9.94795e-07 2.87338e-06 3.49245e-16)
(-2.43753e-07 2.31478e-06 -9.87349e-16)
(-8.80738e-08 2.3799e-06 -9.28725e-16)
(-2.71788e-08 2.56253e-06 -1.95347e-16)
(1.39113e-07 2.50087e-06 2.23536e-16)
(2.87143e-07 2.53981e-06 8.72015e-16)
(4.40486e-07 2.54039e-06 7.91887e-16)
(6.01434e-07 2.50812e-06 -3.2511e-16)
(7.97086e-07 2.46789e-06 -7.14592e-16)
(-1.39773e-07 2.06312e-06 1.04477e-15)
(-4.46673e-09 2.13779e-06 -1.16523e-15)
(2.70903e-09 2.27909e-06 1.08291e-15)
(1.84275e-07 2.20767e-06 1.7215e-15)
(2.70535e-07 2.21005e-06 -1.06537e-15)
(3.40404e-07 2.18845e-06 1.44383e-16)
(4.80917e-07 2.16898e-06 1.42403e-15)
(6.34957e-07 2.11578e-06 -1.72767e-16)
(-6.54347e-08 1.90978e-06 -1.03061e-15)
(2.72439e-08 1.97302e-06 1.05954e-16)
(6.33189e-08 2.07152e-06 3.59371e-16)
(1.6343e-07 1.97789e-06 -1.86535e-15)
(1.95805e-07 1.94833e-06 7.7484e-16)
(2.82832e-07 1.93018e-06 1.69239e-15)
(3.82202e-07 1.89337e-06 -1.04774e-15)
(4.95487e-07 1.82477e-06 -5.94044e-16)
(-1.31939e-07 1.71449e-06 5.5652e-16)
(1.00599e-08 1.70945e-06 3.61931e-16)
(-6.357e-08 1.93272e-06 6.44841e-16)
(5.80395e-08 1.77785e-06 -1.10245e-15)
(9.11778e-08 1.7384e-06 5.20709e-16)
(1.53078e-07 1.7018e-06 1.1002e-15)
(2.07448e-07 1.68043e-06 -2.15654e-15)
(3.01467e-07 1.65482e-06 -3.79947e-16)
(4.28896e-07 1.64975e-06 1.79402e-15)
(-9.0611e-08 1.51209e-06 1.33327e-16)
(-1.93785e-08 1.54989e-06 -1.08538e-16)
(-6.80065e-08 1.67308e-06 6.60706e-16)
(1.8725e-08 1.54933e-06 8.97303e-16)
(5.52226e-08 1.52854e-06 -9.21411e-16)
(1.01024e-07 1.50181e-06 -8.5622e-16)
(1.69546e-07 1.48142e-06 4.83292e-16)
(2.65648e-07 1.47707e-06 1.54897e-15)
(3.49962e-07 1.45651e-06 -2.14005e-15)
(-5.92318e-08 1.29195e-06 -2.57375e-16)
(6.64421e-11 1.30583e-06 -4.27565e-16)
(-7.39619e-08 1.44368e-06 -1.51641e-15)
(4.78253e-09 1.33352e-06 -5.20008e-16)
(2.67326e-08 1.3255e-06 1.58963e-16)
(7.27053e-08 1.30201e-06 2.31971e-16)
(1.3094e-07 1.29545e-06 -2.94379e-16)
(1.9857e-07 1.26951e-06 9.66338e-16)
(2.71045e-07 1.24489e-06 2.32825e-15)
(-4.50724e-08 1.08838e-06 8.98996e-16)
(6.94278e-09 1.09245e-06 -1.228e-15)
(-5.96467e-08 1.22594e-06 9.97349e-17)
(-1.79543e-09 1.12249e-06 2.44981e-15)
(8.17692e-09 1.11981e-06 -1.2335e-15)
(4.00013e-08 1.10456e-06 3.07783e-16)
(7.68945e-08 1.09129e-06 -6.31059e-16)
(1.27089e-07 1.07153e-06 1.52895e-16)
(1.81456e-07 1.03965e-06 7.00608e-16)
(-3.55932e-08 9.1444e-07 -4.9029e-17)
(1.42529e-08 9.0525e-07 7.01137e-16)
(-5.981e-08 1.03483e-06 4.34094e-16)
(-8.93271e-09 9.31869e-07 -1.78028e-15)
(-6.79621e-09 9.30609e-07 1.29109e-15)
(6.14682e-09 9.16497e-07 1.91716e-15)
(2.83106e-08 9.10447e-07 -3.08795e-15)
(6.5545e-08 8.96145e-07 -4.89166e-16)
(9.83937e-08 8.68754e-07 1.14767e-15)
(-4.51443e-08 7.66117e-07 2.36386e-16)
(7.71679e-09 7.58282e-07 3.93652e-16)
(-4.94527e-08 8.80429e-07 -2.84328e-16)
(-1.66631e-08 7.86382e-07 -7.3079e-16)
(-2.34803e-08 7.86361e-07 6.82148e-16)
(-1.59238e-08 7.75385e-07 1.19007e-15)
(-4.08383e-09 7.74551e-07 -1.70864e-16)
(1.59442e-08 7.71036e-07 -1.14178e-15)
(1.76962e-08 7.55352e-07 4.61154e-16)
(-2.75767e-08 6.61845e-07 -5.18652e-16)
(3.23533e-08 6.56473e-07 -1.91219e-16)
(-5.60425e-08 8.13022e-07 6.00467e-16)
(-1.29933e-08 7.0523e-07 8.63566e-16)
(-2.74465e-08 7.10778e-07 -6.36447e-18)
(-2.85331e-08 7.02084e-07 -3.38265e-17)
(-2.37448e-08 7.04668e-07 -3.78385e-16)
(-1.04638e-08 7.08563e-07 7.09021e-17)
(-2.12437e-08 7.05937e-07 -1.08981e-16)
(-3.18621e-08 6.56009e-07 2.78213e-16)
(6.78567e-08 6.40666e-07 2.64151e-16)
(-1.09893e-08 7.87292e-07 6.16538e-16)
(-8.03369e-09 6.79983e-07 -1.08046e-16)
(-2.76567e-08 6.86498e-07 -5.41491e-16)
(-3.23142e-08 6.80392e-07 1.17602e-16)
(-3.17365e-08 6.8754e-07 -3.56963e-16)
(-3.25567e-08 7.01424e-07 -5.41394e-16)
(-6.77382e-08 7.20628e-07 8.30237e-16)
(-2.63648e-08 6.86582e-07 -1.21447e-15)
(6.46086e-08 6.83104e-07 -6.19574e-16)
(-2.04661e-08 7.90134e-07 2.60058e-16)
(-3.84614e-09 6.82668e-07 4.19368e-16)
(-2.42182e-08 6.8855e-07 1.67542e-15)
(-3.14425e-08 6.85432e-07 -4.30973e-16)
(-3.63643e-08 6.96853e-07 -1.90535e-15)
(-4.37491e-08 7.25004e-07 4.09589e-17)
(-9.87117e-08 7.74636e-07 1.22756e-15)
(-1.71367e-08 6.70889e-07 -1.6843e-16)
(-9.27812e-09 6.95803e-07 -3.89375e-16)
(-2.26323e-09 8.49313e-07 1.08123e-16)
(5.26415e-10 7.00929e-07 -6.00878e-16)
(-6.80286e-09 7.02663e-07 8.88664e-17)
(-1.49242e-08 6.97073e-07 3.67238e-16)
(-2.11477e-08 7.0413e-07 -1.35317e-15)
(-2.63462e-08 7.2388e-07 6.93582e-16)
(-4.99729e-08 7.73767e-07 1.16813e-15)
(-1.23029e-07 8.45976e-07 1.09955e-16)
(-2.68546e-08 7.15386e-07 2.82653e-16)
(-3.38665e-08 7.46958e-07 -1.23913e-16)
(1.91159e-08 8.68212e-07 -6.96388e-17)
(5.50303e-09 7.37774e-07 1.5406e-16)
(4.80264e-09 7.42744e-07 4.99819e-16)
(4.72389e-09 7.3582e-07 9.74524e-18)
(2.04108e-09 7.39993e-07 -7.42976e-17)
(-5.26246e-09 7.56108e-07 3.37758e-16)
(-3.50539e-08 8.12755e-07 6.09362e-17)
(-1.00745e-07 9.19072e-07 -5.4559e-16)
(-3.21195e-08 8.43993e-07 1.4332e-17)
(-4.24286e-08 8.60462e-07 3.06157e-16)
(4.40408e-08 1.01189e-06 5.72173e-16)
(1.53524e-08 8.59337e-07 -1.43785e-15)
(1.50823e-08 8.65969e-07 2.64091e-16)
(1.24085e-08 8.50652e-07 2.48938e-15)
(9.94565e-09 8.45129e-07 -2.66416e-15)
(2.21228e-09 8.5093e-07 -7.81144e-16)
(-2.11698e-08 9.01321e-07 1.89202e-15)
(-5.24319e-08 1.0482e-06 -7.50624e-16)
(-0.0322922 -0.0247779 -5.98674e-14)
(0.0298228 -0.0329745 -1.63585e-14)
(0.0468132 -0.0188513 2.72081e-14)
(0.0335192 -0.0123274 -1.54361e-14)
(0.0256102 -0.00899979 2.45633e-14)
(0.0220488 -0.00681892 -7.79216e-15)
(0.0186847 -0.00504336 -5.75052e-15)
(0.014184 -0.00360653 -1.74072e-14)
(0.00835377 -0.00266933 1.24253e-14)
(0.00697519 -0.00118681 1.77066e-14)
(0.00401013 -0.000177761 -7.49635e-15)
(0.00250855 -0.000204245 -1.68082e-14)
(0.0021687 -9.07782e-05 1.74993e-14)
(0.00188057 2.71745e-05 -1.7166e-14)
(0.00159703 0.000101936 1.55476e-14)
(0.00133047 0.000156913 -3.35747e-15)
(0.00111052 0.00019415 1.46512e-15)
(0.000924544 0.000217424 -5.20728e-15)
(0.000768482 0.000226508 -6.52724e-15)
(0.000635986 0.000226977 1.51619e-15)
(0.000526456 0.000219785 3.74365e-15)
(0.000434396 0.000208825 -3.62533e-16)
(0.000359556 0.000194568 1.15425e-15)
(0.000296887 0.00017989 -1.2674e-15)
(0.000246997 0.000165647 3.45612e-15)
(0.000205997 0.0001539 -3.87003e-15)
(0.000173878 0.000143812 1.64563e-15)
(0.000146549 0.000134184 -3.60103e-15)
(0.00012487 0.000124666 4.44555e-15)
(0.000106248 0.000115255 -7.2375e-15)
(9.1567e-05 0.00010642 1.39576e-14)
(7.87028e-05 9.76691e-05 -6.13972e-15)
(6.85726e-05 8.9786e-05 1.98205e-15)
(5.94993e-05 8.20262e-05 6.70156e-16)
(5.2298e-05 7.5143e-05 4.12647e-15)
(4.57167e-05 6.84618e-05 -2.09363e-15)
(4.0454e-05 6.25474e-05 -6.2159e-15)
(3.55558e-05 5.69128e-05 3.91945e-15)
(3.15535e-05 5.17941e-05 -2.62754e-16)
(2.77816e-05 4.70263e-05 7.41961e-16)
(2.46448e-05 4.26123e-05 3.82647e-15)
(2.16728e-05 3.85832e-05 3.04648e-15)
(1.91745e-05 3.48299e-05 -6.0741e-15)
(1.68022e-05 3.14623e-05 5.36772e-15)
(1.47997e-05 2.83329e-05 4.82788e-16)
(1.2886e-05 2.55415e-05 -7.41925e-15)
(1.1276e-05 2.29509e-05 4.18187e-15)
(9.73815e-06 2.06385e-05 -1.28079e-15)
(8.44915e-06 1.84955e-05 9.43562e-16)
(7.22039e-06 1.65803e-05 -1.81596e-15)
(6.18835e-06 1.48252e-05 -3.48366e-15)
(5.20237e-06 1.32445e-05 2.41659e-15)
(4.38131e-06 1.18713e-05 4.72563e-17)
(3.64417e-06 1.06493e-05 2.57524e-15)
(3.0372e-06 9.52543e-06 -3.94596e-15)
(2.53052e-06 8.47784e-06 -2.18954e-15)
(2.13964e-06 7.46515e-06 1.60618e-15)
(1.82342e-06 6.5872e-06 -5.17203e-15)
(1.55262e-06 5.84611e-06 -1.25226e-15)
(1.2995e-06 5.26637e-06 -3.37042e-15)
(1.02718e-06 4.69853e-06 1.70978e-15)
(8.358e-07 4.13181e-06 -1.62623e-15)
(6.70565e-07 3.58952e-06 3.26227e-15)
(5.31421e-07 3.09303e-06 5.53054e-16)
(3.97999e-07 2.63295e-06 1.46337e-15)
(2.7899e-07 2.2414e-06 -1.41036e-15)
(1.72088e-07 1.93053e-06 1.71674e-15)
(1.15606e-07 1.67757e-06 1.4192e-15)
(8.46066e-08 1.52686e-06 -2.03758e-15)
(7.22689e-08 1.325e-06 1.60392e-15)
(3.992e-08 1.10175e-06 -2.49077e-15)
(-2.13798e-09 8.94043e-07 -4.35045e-15)
(-5.52671e-08 7.19565e-07 1.72318e-16)
(-1.26155e-07 6.14642e-07 -6.58519e-16)
(-1.45859e-07 5.69777e-07 -9.67793e-16)
(-1.98178e-07 5.68613e-07 8.71798e-16)
(-2.26846e-07 5.98231e-07 -1.1572e-15)
(-2.46665e-07 6.19755e-07 -3.8274e-16)
(-1.93822e-07 6.78224e-07 -2.52915e-16)
(-1.26157e-07 8.54849e-07 4.6862e-16)
(0.0806103 -0.0085675 1.85695e-14)
(-0.0392993 0.00460953 4.29929e-15)
(-0.00554066 -0.00103459 -5.81915e-15)
(-0.00314499 -0.00239674 2.64652e-15)
(-0.000890684 -0.0029711 -4.28783e-15)
(0.00028837 -0.00315553 1.0708e-15)
(0.0010724 -0.00318275 6.67201e-16)
(0.00185289 -0.00310338 3.01921e-15)
(0.00271412 -0.00278627 -1.79356e-15)
(0.000913598 -0.00258694 -2.38726e-15)
(0.00107577 -0.00251235 1.42387e-15)
(0.00115907 -0.00210995 2.92354e-15)
(0.0011142 -0.00176909 -2.81058e-15)
(0.00113281 -0.00146791 3.1357e-15)
(0.00103996 -0.00119462 -3.00073e-15)
(0.000923855 -0.000966048 8.08237e-16)
(0.000845267 -0.000766225 -3.12449e-16)
(0.000759087 -0.000591367 7.06995e-16)
(0.000680115 -0.000443665 1.09041e-15)
(0.000605879 -0.000320475 -1.60458e-16)
(0.000536642 -0.000219519 -1.63564e-16)
(0.000472807 -0.000137859 -2.63917e-16)
(0.000414479 -7.29989e-05 1.53551e-16)
(0.000362164 -2.18322e-05 -1.58871e-16)
(0.000314075 1.73723e-05 -7.62366e-17)
(0.000269278 4.64733e-05 1.90938e-16)
(0.000228675 6.635e-05 -1.72545e-16)
(0.000194491 7.92877e-05 6.52171e-16)
(0.000165023 8.63266e-05 -3.2501e-16)
(0.000140481 8.91122e-05 1.44918e-15)
(0.000119342 8.87079e-05 -1.87726e-15)
(0.00010188 8.61039e-05 7.71559e-16)
(8.68383e-05 8.21431e-05 -3.52684e-16)
(7.44047e-05 7.71581e-05 3.26097e-16)
(6.37033e-05 7.18974e-05 -1.40602e-15)
(5.47751e-05 6.63418e-05 1.57095e-16)
(4.70814e-05 6.09256e-05 1.34698e-15)
(4.05373e-05 5.56266e-05 -4.78536e-17)
(3.49046e-05 5.06503e-05 1.88524e-16)
(3.0018e-05 4.59568e-05 -1.1753e-15)
(2.5816e-05 4.16025e-05 -1.72212e-16)
(2.21228e-05 3.76028e-05 7.30206e-16)
(1.89534e-05 3.39045e-05 6.85822e-16)
(1.61465e-05 3.0549e-05 -1.53318e-15)
(1.37458e-05 2.74594e-05 2.46042e-16)
(1.16109e-05 2.46838e-05 1.61504e-15)
(9.79452e-06 2.21305e-05 -1.32353e-15)
(8.17988e-06 1.98371e-05 9.19104e-16)
(6.82436e-06 1.77453e-05 -7.35854e-16)
(5.60643e-06 1.58476e-05 -1.78356e-16)
(4.59928e-06 1.41144e-05 1.20734e-15)
(3.66588e-06 1.25619e-05 -2.58734e-15)
(2.9262e-06 1.12072e-05 -2.34135e-16)
(2.17934e-06 1.00487e-05 -5.2514e-16)
(1.62624e-06 8.98098e-06 2.11038e-15)
(1.0893e-06 8.02327e-06 7.36531e-16)
(7.61284e-07 7.08841e-06 -1.5883e-16)
(4.99008e-07 6.23982e-06 1.24679e-15)
(3.49812e-07 5.49534e-06 1.28939e-16)
(2.13297e-07 4.86505e-06 3.66482e-16)
(4.90784e-08 4.30783e-06 1.84649e-15)
(-6.78556e-08 3.766e-06 2.8062e-16)
(-1.51781e-07 3.26712e-06 -2.69329e-15)
(-1.95685e-07 2.78933e-06 -5.02219e-16)
(-2.36374e-07 2.36205e-06 2.91818e-15)
(-2.609e-07 1.99696e-06 -8.10175e-16)
(-2.75242e-07 1.70233e-06 -2.49366e-16)
(-2.61184e-07 1.56235e-06 -2.46509e-16)
(-2.38151e-07 1.37561e-06 2.3123e-16)
(-1.99878e-07 1.16198e-06 2.39668e-15)
(-1.91533e-07 9.43714e-07 1.01818e-15)
(-1.75279e-07 7.4062e-07 3.80046e-16)
(-1.60991e-07 5.69939e-07 -6.66454e-16)
(-1.97643e-07 4.77822e-07 8.45606e-16)
(-1.70563e-07 4.20761e-07 6.25751e-16)
(-1.74936e-07 3.76654e-07 -3.2558e-17)
(-1.74747e-07 3.45081e-07 -1.99362e-16)
(-1.69905e-07 3.10911e-07 -3.09696e-16)
(-1.4777e-07 3.24298e-07 4.28201e-16)
(-0.00178579 -0.00033287 2.67419e-16)
(-0.00469457 -0.000523795 4.79779e-17)
(-0.000865271 -0.000730647 -2.31196e-16)
(-0.000402619 -0.000599617 9.1406e-17)
(-0.000104772 -0.000504858 2.52576e-16)
(1.88869e-05 -0.000441269 7.81102e-18)
(3.96204e-05 -0.000401742 1.78176e-17)
(-2.70439e-05 -0.000363638 7.5738e-17)
(-0.000258254 -0.000350931 3.72774e-16)
(-0.000151668 -0.00042354 3.44218e-16)
(-0.000117663 -0.000382946 -2.29345e-16)
(-0.000230226 -0.000393902 3.95258e-16)
(-0.000276831 -0.00042196 4.35815e-17)
(-0.000114843 -0.000444569 -2.66826e-18)
(-5.88258e-05 -0.000420807 -3.06269e-16)
(-3.61235e-05 -0.000400579 2.45178e-16)
(7.56981e-05 -0.000390705 3.26765e-16)
(0.000115995 -0.000363719 -1.40847e-16)
(0.000151192 -0.000333372 -4.84452e-16)
(0.000174609 -0.00030077 3.2045e-17)
(0.000189619 -0.000266623 -8.82071e-18)
(0.000196822 -0.000232202 1.69169e-17)
(0.000198336 -0.00019756 -1.44324e-16)
(0.000194935 -0.000163959 3.12977e-16)
(0.000188879 -0.000131773 -1.67375e-16)
(0.000181265 -0.000101685 -8.38863e-17)
(0.00017204 -7.4653e-05 -1.8895e-16)
(0.000160637 -5.12371e-05 4.96076e-17)
(0.00014815 -3.13866e-05 -6.69459e-18)
(0.000135098 -1.49591e-05 -4.74094e-17)
(0.000122127 -1.74396e-06 2.86936e-17)
(0.000109564 8.53872e-06 -9.27345e-17)
(9.76745e-05 1.63011e-05 2.64643e-16)
(8.66547e-05 2.18574e-05 -2.35244e-18)
(7.6536e-05 2.56293e-05 -1.8275e-16)
(6.73929e-05 2.79033e-05 -1.17689e-16)
(5.91593e-05 2.90973e-05 7.08648e-17)
(5.18295e-05 2.93647e-05 1.59873e-16)
(4.53017e-05 2.90001e-05 -2.91956e-17)
(3.95319e-05 2.81573e-05 -3.12301e-16)
(3.44243e-05 2.70015e-05 2.87507e-16)
(2.99258e-05 2.56436e-05 -1.43797e-15)
(2.59538e-05 2.41537e-05 5.86303e-17)
(2.24711e-05 2.26284e-05 -5.82167e-16)
(1.93971e-05 2.10741e-05 -1.9371e-17)
(1.67134e-05 1.95517e-05 9.48448e-16)
(1.43457e-05 1.8065e-05 1.00413e-15)
(1.22914e-05 1.66474e-05 1.86099e-16)
(1.04837e-05 1.52737e-05 -2.23615e-16)
(8.91925e-06 1.39749e-05 -8.72683e-17)
(7.55116e-06 1.27263e-05 -4.91661e-16)
(6.36376e-06 1.15631e-05 -2.50406e-17)
(5.31426e-06 1.05051e-05 -5.10697e-16)
(4.37601e-06 9.56292e-06 9.64028e-16)
(3.50522e-06 8.74105e-06 4.6789e-16)
(2.7764e-06 7.97018e-06 1.00892e-15)
(2.14348e-06 7.27202e-06 -2.40978e-16)
(1.694e-06 6.5859e-06 3.02526e-16)
(1.35346e-06 5.95838e-06 1.00363e-16)
(1.08095e-06 5.35774e-06 1.61418e-16)
(8.31892e-07 4.79519e-06 -2.57146e-15)
(6.09823e-07 4.28248e-06 1.16241e-15)
(4.36403e-07 3.78977e-06 5.65199e-16)
(2.91147e-07 3.3158e-06 1.09683e-15)
(1.86703e-07 2.86542e-06 -1.54283e-15)
(1.23675e-07 2.47524e-06 -2.74727e-17)
(6.32178e-08 2.16122e-06 -2.07296e-16)
(3.08073e-08 1.94255e-06 -9.75089e-17)
(1.99422e-08 1.7661e-06 8.46588e-19)
(-7.93426e-09 1.55164e-06 -3.06953e-15)
(-1.62081e-08 1.31331e-06 -2.58206e-15)
(-2.02192e-08 1.09909e-06 2.5979e-16)
(-2.14263e-08 8.93224e-07 1.52522e-15)
(-8.09836e-08 7.94789e-07 -1.81492e-16)
(-6.47448e-08 7.51178e-07 7.56045e-16)
(-5.89821e-08 7.1033e-07 -1.61783e-15)
(-6.31898e-08 7.13245e-07 5.7219e-16)
(-7.22306e-08 7.42555e-07 6.99688e-17)
(0.00212082 -0.000526785 -4.87523e-17)
(-0.0010903 -0.0001896 -4.75475e-18)
(-0.000323515 -0.000312757 1.55656e-16)
(-0.000319863 -0.000298497 1.17033e-16)
(-0.000261733 -0.000295532 -6.21095e-18)
(-0.000252993 -0.000289149 -1.97911e-17)
(-0.000243205 -0.000284464 7.60852e-18)
(-0.000230086 -0.000277388 -1.0644e-17)
(-0.000194673 -0.000257868 -8.3153e-17)
(-0.000167147 -0.0002307 -1.79703e-16)
(-0.000113491 -0.000235968 1.86229e-16)
(1.98928e-05 -0.000212772 -4.40842e-17)
(2.07076e-05 -0.000212267 -2.84232e-16)
(-1.50337e-05 -0.000227318 5.19777e-17)
(-2.97052e-06 -0.000151477 -2.056e-17)
(-2.37039e-05 -0.000191967 3.56626e-16)
(2.51858e-05 -0.000201589 1.20076e-16)
(3.99669e-05 -0.000196194 -1.57339e-16)
(6.10852e-05 -0.000190906 -1.78576e-16)
(7.71981e-05 -0.000183444 -3.55885e-18)
(9.11214e-05 -0.000174061 -1.53104e-16)
(0.000102359 -0.000163078 2.30579e-16)
(0.000111166 -0.000149797 -1.11884e-17)
(0.000117228 -0.000135249 3.22171e-16)
(0.000120831 -0.000119726 -3.28726e-16)
(0.000121863 -0.00010409 -3.71691e-17)
(0.000120946 -8.84529e-05 7.96217e-17)
(0.000118229 -7.33988e-05 -1.22477e-16)
(0.000114105 -5.91167e-05 4.78989e-17)
(0.000108705 -4.61065e-05 -5.60484e-19)
(0.000102439 -3.42831e-05 4.06974e-17)
(9.54998e-05 -2.38994e-05 -2.36148e-18)
(8.82232e-05 -1.48268e-05 -6.52398e-17)
(8.0778e-05 -7.22174e-06 6.18104e-19)
(7.3407e-05 -8.45529e-07 -8.15725e-17)
(6.62309e-05 4.22256e-06 2.90756e-16)
(5.93917e-05 8.21669e-06 -2.50996e-16)
(5.29495e-05 1.11897e-05 -3.96331e-18)
(4.69743e-05 1.33446e-05 2.02289e-16)
(4.14761e-05 1.47705e-05 7.64939e-16)
(3.64733e-05 1.56273e-05 2.64398e-16)
(3.1949e-05 1.60216e-05 1.63827e-15)
(2.78876e-05 1.60469e-05 -1.05084e-16)
(2.42616e-05 1.5809e-05 -2.21265e-16)
(2.10348e-05 1.53557e-05 -1.33119e-16)
(1.81835e-05 1.47767e-05 -1.75664e-16)
(1.56617e-05 1.40741e-05 -1.31419e-15)
(1.34544e-05 1.33191e-05 2.86947e-16)
(1.15109e-05 1.25108e-05 -2.61563e-16)
(9.8241e-06 1.16764e-05 -6.54256e-17)
(8.34269e-06 1.08208e-05 2.77083e-16)
(7.07047e-06 9.95724e-06 2.82145e-16)
(5.94303e-06 9.15113e-06 3.23186e-16)
(4.94546e-06 8.38336e-06 6.33922e-16)
(4.04313e-06 7.71726e-06 1.71189e-16)
(3.23234e-06 7.1352e-06 -9.73668e-16)