/*--------------------------------*- C++ -*----------------------------------*\
| =========                 |                                                 |
| \\      /  F ield         | OpenFOAM: The Open Source CFD Toolbox           |
|  \\    /   O peration     | Version:  2306                                  |
|   \\  /    A nd           | Website:  www.openfoam.com                      |
|    \\/     M anipulation  |                                                 |
\*---------------------------------------------------------------------------*/
FoamFile
{
    version     2.0;
    format      ascii;
    arch        "LSB;label=32;scalar=64";
    class       volScalarField;
    location    "750";
    object      turbulenceProperties:I;
}
// * * * * * * * * * * * * * * * * * * * * * * * * * * * * * * * * * * * * * //

dimensions      [0 0 0 0 0 0 0];

internalField   nonuniform List<scalar> 
1340
(
0.299225
0.307508
0.3181
0.401419
0.145245
0.154559
0.167087
0.320386
0.137358
0.144901
0.152881
0.257516
0.118666
0.130887
0.142672
0.216756
0.0834051
0.105609
0.125444
0.183961
0.036684
0.067858
0.0992729
0.152772
0.00955898
0.0260579
0.064617
0.1193
0.00640543
0.0089335
0.0293916
0.0831469
0
0.00513415
0.010817
0.0491385
0
6.26781e-05
0.00149621
0.0243947
0
0
0.00165552
0.0123152
4.53914e-05
0
0.000876579
0.00724818
0.000177677
7.31719e-06
0.000497906
0.00416888
0.000251271
9.76995e-06
0.000162225
0.00209063
0.0002436
0.000180743
1.98522e-05
0.000567723
0.000218315
0.000247003
1.15834e-05
0.000153533
0.000204457
0.00026
1.80199e-05
5.80341e-07
0.000201897
0.00023956
0.000153353
2.30923e-05
0.00020283
0.000216749
0.00021809
7.98293e-05
0.000202401
0.00020369
0.000225834
0.000161595
0.000199814
0.00019828
0.000214003
0.00020037
0.00019598
0.000195408
0.000201431
0.000207552
0.00019175
0.000192257
0.000192708
0.0002016
0.00018748
0.000188229
0.000186667
0.000192701
0.000183214
0.000183614
0.000181555
0.000184294
0.00017888
0.000178741
0.00017649
0.000176823
0.000174441
0.000173787
0.000171278
0.000169974
0.00016989
0.000168793
0.000165972
0.0001635
0.000165229
0.000163755
0.000160631
0.000157281
0.000160482
0.000158688
0.000155308
0.000151293
0.000155668
0.0001536
0.00015001
0.00014552
0.000150794
0.00014851
0.000144767
0.000139947
0.000145882
0.00014342
0.000139579
0.00013457
0.000142999
0.000140947
0.000138357
0.000134455
0.000129369
0.000138098
0.000136003
0.000133333
0.000129417
0.000124334
0.00013318
0.000131072
0.000128356
0.000124469
0.000119461
0.000128266
0.000126165
0.00012344
0.000119619
0.000114738
0.000123374
0.0001213
0.000118598
0.000114874
0.000110161
0.00011852
0.000116492
0.000113841
0.000110242
0.000105725
0.000113721
0.000111754
0.000109176
0.000105726
0.000101426
0.000108993
0.000107099
0.000104613
0.000101329
9.72592e-05
0.00010435
0.000102539
0.00010016
9.70548e-05
9.32213e-05
9.98054e-05
9.80837e-05
9.58231e-05
9.29041e-05
8.93105e-05
9.53702e-05
9.37435e-05
9.16074e-05
8.88801e-05
8.55223e-05
9.10538e-05
8.95254e-05
8.75185e-05
8.49827e-05
8.18566e-05
8.7966e-05
8.68654e-05
8.54349e-05
8.35592e-05
8.1212e-05
7.83111e-05
8.38382e-05
8.28116e-05
8.14789e-05
7.9733e-05
7.7569e-05
7.4884e-05
7.98521e-05
7.88968e-05
7.766e-05
7.60415e-05
7.40539e-05
7.15743e-05
7.6012e-05
7.51258e-05
7.39813e-05
7.24857e-05
7.06655e-05
6.83805e-05
7.2321e-05
7.15002e-05
7.04442e-05
6.90665e-05
6.74035e-05
6.53021e-05
6.87808e-05
6.80222e-05
6.70495e-05
6.5783e-05
6.42669e-05
6.23376e-05
6.53911e-05
6.4691e-05
6.3797e-05
6.26352e-05
6.12548e-05
5.94857e-05
6.21517e-05
6.15061e-05
6.06852e-05
5.96208e-05
5.83656e-05
5.67456e-05
5.90607e-05
5.84655e-05
5.77126e-05
5.67385e-05
5.55974e-05
5.41155e-05
5.6542e-05
5.61153e-05
5.55669e-05
5.48763e-05
5.39854e-05
5.29482e-05
5.15941e-05
5.37084e-05
5.33122e-05
5.28066e-05
5.21733e-05
5.13588e-05
5.04157e-05
4.91793e-05
5.10161e-05
5.06481e-05
5.01815e-05
4.96004e-05
4.88554e-05
4.79972e-05
4.68689e-05
4.84616e-05
4.8119e-05
4.7688e-05
4.71541e-05
4.6472e-05
4.56901e-05
4.46611e-05
4.60403e-05
4.57208e-05
4.53218e-05
4.48306e-05
4.42056e-05
4.34918e-05
4.25534e-05
4.37454e-05
4.34474e-05
4.30777e-05
4.26252e-05
4.20517e-05
4.13989e-05
4.05434e-05
4.15665e-05
4.1289e-05
4.0947e-05
4.05305e-05
4.00045e-05
3.9407e-05
3.86278e-05
3.96987e-05
3.94898e-05
3.92327e-05
3.89175e-05
3.85355e-05
3.80543e-05
3.75079e-05
3.68004e-05
3.77021e-05
3.7507e-05
3.72688e-05
3.69789e-05
3.66292e-05
3.61902e-05
3.56919e-05
3.50525e-05
3.58008e-05
3.56167e-05
3.53946e-05
3.51266e-05
3.48055e-05
3.44048e-05
3.39502e-05
3.33738e-05
3.40029e-05
3.38263e-05
3.36161e-05
3.33655e-05
3.30682e-05
3.27002e-05
3.22839e-05
3.17648e-05
3.23014e-05
3.21286e-05
3.19257e-05
3.16873e-05
3.14075e-05
3.10644e-05
3.06781e-05
3.02054e-05
3.07608e-05
3.0594e-05
3.03993e-05
3.01724e-05
2.99078e-05
2.95838e-05
2.92203e-05
2.87806e-05
2.94676e-05
2.93065e-05
2.91205e-05
2.89053e-05
2.86548e-05
2.8347e-05
2.80022e-05
2.761e-05
2.84362e-05
2.83e-05
2.81312e-05
2.79417e-05
2.77289e-05
2.74844e-05
2.71882e-05
2.68517e-05
2.64865e-05
2.73616e-05
2.7221e-05
2.70466e-05
2.68515e-05
2.66347e-05
2.63883e-05
2.60955e-05
2.57715e-05
2.54542e-05
2.61817e-05
2.60291e-05
2.58453e-05
2.56419e-05
2.54186e-05
2.51671e-05
2.48682e-05
2.45207e-05
2.41498e-05
2.51906e-05
2.50458e-05
2.48687e-05
2.4669e-05
2.44467e-05
2.41978e-05
2.39127e-05
2.36176e-05
2.33904e-05
2.37133e-05
2.35397e-05
2.33417e-05
2.31277e-05
2.28969e-05
2.26374e-05
2.23206e-05
2.19158e-05
2.14511e-05
2.32359e-05
2.30889e-05
2.29096e-05
2.27047e-05
2.24789e-05
2.22376e-05
2.19938e-05
2.1812e-05
2.18056e-05
2.09229e-05
2.0733e-05
2.05236e-05
2.02958e-05
2.00449e-05
1.97472e-05
1.93402e-05
1.87691e-05
1.80543e-05
2.24327e-05
2.23259e-05
2.21871e-05
2.20153e-05
2.18286e-05
2.16546e-05
2.15767e-05
2.1727e-05
2.20971e-05
1.98242e-05
1.98098e-05
1.97394e-05
1.96118e-05
1.94333e-05
1.9188e-05
1.88475e-05
1.86524e-05
1.82866e-05
2.60573e-05
2.57584e-05
2.57668e-05
2.5772e-05
2.57601e-05
2.57452e-05
2.57689e-05
2.60153e-05
2.65982e-05
2.68873e-05
2.70547e-05
2.69734e-05
2.70526e-05
2.71495e-05
2.72316e-05
2.73053e-05
2.74105e-05
2.77588e-05
2.83421e-05
2.83272e-05
3.50896e-05
3.22555e-05
3.24855e-05
3.26778e-05
3.27908e-05
3.29221e-05
3.30968e-05
3.34362e-05
3.37179e-05
3.11565e-05
0.249467
0.222938
0.152656
0.227007
0.219446
0.18933
0.153468
0.114821
0.0749301
0.0390572
0.0157143
0.00703717
0.00404999
0.00203004
0.000441897
0.000105556
0
9.62284e-06
4.35467e-05
0.00013886
0.000185715
0.000196356
0.0001913
0.000182395
0.000173882
0.000166457
0.000159768
0.000153519
0.000147557
0.000141853
0.000136395
0.00013117
0.00012617
0.00012137
0.000116753
0.00011231
0.000108022
0.000103879
9.98725e-05
9.59928e-05
9.22312e-05
8.85822e-05
8.50448e-05
8.16088e-05
7.82757e-05
7.5043e-05
7.19076e-05
6.88692e-05
6.59267e-05
6.308e-05
6.03288e-05
5.76718e-05
5.51097e-05
5.26416e-05
5.02669e-05
4.79849e-05
4.57944e-05
4.36945e-05
4.16836e-05
3.97602e-05
3.79226e-05
3.61659e-05
3.44833e-05
3.28642e-05
3.13105e-05
2.97976e-05
2.84035e-05
2.72776e-05
2.61504e-05
2.52083e-05
2.37833e-05
2.32915e-05
2.09043e-05
2.20241e-05
1.70171e-05
2.26473e-05
1.73006e-05
2.68726e-05
2.73113e-05
3.01653e-05
0.146346
0.166191
0.127208
0.0957488
0.141732
0.14912
0.13572
0.111552
0.0807849
0.0471316
0.0185179
0.00498454
0.00249799
0.0014963
0.000381081
0.000101819
0
5.07143e-06
2.32664e-05
0.000100762
0.000145425
0.000158639
0.000157405
0.000152036
0.000146537
0.00014169
0.00013727
0.000133043
0.00012891
0.000124864
0.000120915
0.000117067
0.000113326
0.000109678
0.000106118
0.000102645
9.92479e-05
9.59253e-05
9.26725e-05
8.94858e-05
8.63611e-05
8.32965e-05
8.02946e-05
7.7348e-05
7.44612e-05
7.16351e-05
6.88684e-05
6.61633e-05
6.35216e-05
6.09449e-05
5.84358e-05
5.5995e-05
5.3625e-05
5.13273e-05
4.9103e-05
4.69535e-05
4.48794e-05
4.28812e-05
4.09588e-05
3.91124e-05
3.73414e-05
3.56423e-05
3.40105e-05
3.24359e-05
3.09217e-05
2.9445e-05
2.80734e-05
2.6961e-05
2.58278e-05
2.49269e-05
2.34751e-05
2.30579e-05
2.05871e-05
2.18396e-05
1.66621e-05
2.24406e-05
1.69931e-05
2.65421e-05
2.69084e-05
0.10304
0.123804
0.120785
0.0844032
0.0734316
0.110793
0.119588
0.110626
0.0904771
0.0629894
0.0329157
0.00983702
0.00203674
0.00077917
1.67478e-05
3.76037e-06
0
1.1539e-06
5.25816e-06
6.48014e-05
0.000107561
0.000123235
0.000124883
0.000122249
0.000119275
0.000116772
0.00011457
0.000112438
0.000110255
0.000107999
0.000105672
0.000103288
0.00010086
9.83889e-05
9.58817e-05
9.33485e-05
9.0792e-05
8.82234e-05
8.56459e-05
8.30667e-05
8.049e-05
7.79224e-05
7.53712e-05
7.28353e-05
7.03242e-05
6.78422e-05
6.53913e-05
6.2977e-05
6.06031e-05
5.82733e-05
5.59919e-05
5.37611e-05
5.15851e-05
4.94659e-05
4.74062e-05
4.54082e-05
4.34734e-05
4.16032e-05
3.97982e-05
3.80592e-05
3.63863e-05
3.47771e-05
3.3228e-05
3.17296e-05
3.02846e-05
2.88729e-05
2.75518e-05
2.64829e-05
2.53688e-05
2.45304e-05
2.30818e-05
2.27362e-05
2.02563e-05
2.1567e-05
1.64657e-05
2.2166e-05
1.69458e-05
2.62655e-05
0.0780053
0.0966462
0.10475
0.0955526
0.0619191
0.0618596
0.0934722
0.102295
0.0957656
0.078369
0.0534782
0.026618
0.00730849
0.000593814
0.000381022
0
0
0
1.0457e-05
4.70672e-05
9.01145e-05
0.000109508
0.000112979
0.000110635
0.000107454
0.000104863
0.000102782
0.000100912
9.90899e-05
9.72664e-05
9.54223e-05
9.35506e-05
9.16495e-05
8.97092e-05
8.77261e-05
8.5701e-05
8.36348e-05
8.15339e-05
7.94004e-05
7.72409e-05
7.50604e-05
7.28664e-05
7.06653e-05
6.84598e-05
6.62596e-05
6.40692e-05
6.18927e-05
5.97371e-05
5.76058e-05
5.55042e-05
5.34372e-05
5.14073e-05
4.94198e-05
4.74769e-05
4.55818e-05
4.37375e-05
4.19457e-05
4.02085e-05
3.85269e-05
3.69018e-05
3.53344e-05
3.38225e-05
3.2364e-05
3.09496e-05
2.95813e-05
2.82419e-05
2.69787e-05
2.59672e-05
2.48843e-05
2.41132e-05
2.26738e-05
2.24004e-05
1.99231e-05
2.12907e-05
1.62868e-05
2.19126e-05
1.6875e-05
0.0579413
0.0753802
0.0871709
0.0899443
0.0794612
0.0498972
0.0526555
0.0800888
0.0889618
0.0844305
0.069565
0.0473937
0.0235285
0.00630098
0.000756542
0.000461044
0
0
0
1.53577e-05
6.47283e-05
9.66277e-05
0.00010304
0.00010157
9.88235e-05
9.63339e-05
9.43138e-05
9.25566e-05
9.08655e-05
8.91764e-05
8.74834e-05
8.57896e-05
8.4094e-05
8.239e-05
8.06709e-05
7.89318e-05
7.71702e-05
7.53863e-05
7.35777e-05
7.17459e-05
6.98929e-05
6.80217e-05
6.61356e-05
6.42368e-05
6.23319e-05
6.04237e-05
5.85167e-05
5.66171e-05
5.47276e-05
5.28536e-05
5.10005e-05
4.9171e-05
4.73703e-05
4.56012e-05
4.38679e-05
4.21734e-05
4.05201e-05
3.89106e-05
3.73467e-05
3.58298e-05
3.43614e-05
3.29405e-05
3.15658e-05
3.02295e-05
2.89319e-05
2.76596e-05
2.64489e-05
2.54893e-05
2.44341e-05
2.37227e-05
2.22894e-05
2.20832e-05
1.96006e-05
2.1037e-05
1.60884e-05
2.17074e-05
0.0395083
0.0565447
0.0700141
0.0782449
0.0789167
0.0689672
0.0434807
0.0443758
0.0694845
0.0786365
0.0758119
0.0632413
0.0436927
0.0222344
0.00661299
0.000909362
0.000454216
0
0
0
1.55136e-05
6.36149e-05
8.87306e-05
8.94233e-05
8.64504e-05
8.45035e-05
8.3132e-05
8.19456e-05
8.08344e-05
7.97083e-05
7.85317e-05
7.73116e-05
7.60573e-05
7.47703e-05
7.34477e-05
7.20882e-05
7.0694e-05
6.92668e-05
6.78059e-05
6.63132e-05
6.47914e-05
6.32414e-05
6.16667e-05
6.00693e-05
5.84537e-05
5.68226e-05
5.51803e-05
5.35321e-05
5.18805e-05
5.02308e-05
4.85884e-05
4.69566e-05
4.53402e-05
4.37428e-05
4.21692e-05
4.06224e-05
3.91058e-05
3.76223e-05
3.61744e-05
3.4764e-05
3.33931e-05
3.20617e-05
3.07695e-05
2.95099e-05
2.82821e-05
2.70764e-05
2.59172e-05
2.50067e-05
2.39774e-05
2.33236e-05
2.18971e-05
2.17587e-05
1.92684e-05
2.07818e-05
0.0222188
0.0384849
0.0530186
0.0641904
0.0707064
0.070807
0.0621169
0.0405322
0.0364346
0.0606568
0.070336
0.0690718
0.0586378
0.041461
0.0220705
0.00744193
0.000512922
0.000223753
0
0
0
1.50087e-05
6.06077e-05
8.07369e-05
7.88218e-05
7.48752e-05
7.33024e-05
7.24757e-05
7.16383e-05
7.08131e-05
7.00034e-05
6.91691e-05
6.83006e-05
6.73997e-05
6.64598e-05
6.54744e-05
6.44422e-05
6.33641e-05
6.22395e-05
6.10706e-05
5.98597e-05
5.86084e-05
5.73208e-05
5.59994e-05
5.46478e-05
5.32701e-05
5.18702e-05
5.04529e-05
4.90214e-05
4.75807e-05
4.61361e-05
4.46912e-05
4.3251e-05
4.18192e-05
4.04008e-05
3.89992e-05
3.76181e-05
3.62608e-05
3.49301e-05
3.36282e-05
3.23576e-05
3.1119e-05
2.99127e-05
2.87336e-05
2.75797e-05
2.64447e-05
2.53408e-05
2.44832e-05
2.34827e-05
2.28905e-05
2.14745e-05
2.14092e-05
0.00799842
0.0210385
0.0356336
0.0486075
0.0585418
0.0643599
0.0646578
0.057515
0.0396587
0.02837
0.052824
0.0632453
0.0634876
0.0550636
0.0400524
0.0225183
0.00818304
0.000729774
0.000261886
0
0
0
1.30242e-05
5.14257e-05
7.34527e-05
7.14864e-05
6.68618e-05
6.53607e-05
6.48613e-05
6.41773e-05
6.34108e-05
6.2688e-05
6.19813e-05
6.1261e-05
6.0518e-05
5.97457e-05
5.89379e-05
5.8092e-05
5.72042e-05
5.62736e-05
5.53002e-05
5.42841e-05
5.32281e-05
5.21337e-05
5.10036e-05
4.98416e-05
4.86507e-05
4.74355e-05
4.61989e-05
4.49457e-05
4.36808e-05
4.24076e-05
4.11314e-05
3.98554e-05
3.85846e-05
3.73226e-05
3.60732e-05
3.48398e-05
3.36253e-05
3.24322e-05
3.1263e-05
3.0119e-05
2.9001e-05
2.79055e-05
2.68284e-05
2.57679e-05
2.47232e-05
2.39227e-05
2.29542e-05
0.000738534
0.00682038
0.0184662
0.0317855
0.0438159
0.0531578
0.0588497
0.0597235
0.0542028
0.0397243
0.0200192
0.0455662
0.0569274
0.0586536
0.0521172
0.0391332
0.0231468
0.009159
0.00132218
0.000353721
0
0
0
9.66157e-06
3.71403e-05
6.49839e-05
6.52794e-05
6.01882e-05
5.84378e-05
5.82541e-05
5.78615e-05
5.72305e-05
5.66013e-05
5.6002e-05
5.53955e-05
5.47651e-05
5.4106e-05
5.34167e-05
5.26927e-05
5.1932e-05
5.11332e-05
5.02956e-05
4.942e-05
4.85071e-05
4.75586e-05
4.65766e-05
4.55634e-05
4.45232e-05
4.34576e-05
4.23712e-05
4.12681e-05
4.01512e-05
3.90258e-05
3.78944e-05
3.6762e-05
3.56323e-05
3.45086e-05
3.33946e-05
3.22931e-05
3.12064e-05
3.01373e-05
2.90873e-05
2.80575e-05
2.70462e-05
2.60471e-05
2.50629e-05
0.00036602
0.000456487
0.00504749
0.0151368
0.0273791
0.0388395
0.0479831
0.0538767
0.055518
0.0515859
0.040062
0.0154767
0.0386253
0.0511323
0.0543196
0.0495703
0.0384448
0.023834
0.010245
0.00202466
0.000426228
0
0
0
5.37412e-06
1.93336e-05
5.53362e-05
6.03876e-05
5.53286e-05
5.26821e-05
5.23243e-05
5.21246e-05
5.16622e-05
5.11491e-05
5.066e-05
5.01664e-05
4.96475e-05
4.90998e-05
4.85204e-05
4.79069e-05
4.72575e-05
4.65713e-05
4.58485e-05
4.50899e-05
4.4296e-05
4.34686e-05
4.26095e-05
4.1722e-05
4.08074e-05
3.98692e-05
3.89114e-05
3.79363e-05
3.69485e-05
3.59508e-05
3.49472e-05
3.39415e-05
3.29368e-05
3.19367e-05
3.09438e-05
2.99603e-05
2.89891e-05
2.80315e-05
0
0.000155206
0.000267488
0.0032512
0.0115733
0.022707
0.0337612
0.042934
0.0492244
0.0517252
0.0493086
0.0403527
0.0203906
0.0317626
0.0456818
0.0503123
0.0472557
0.0378388
0.0245229
0.0113779
0.0028104
0.000507607
2.01969e-05
0
0
6.01746e-07
3.77799e-08
4.14436e-05
5.3634e-05
5.08691e-05
4.79827e-05
4.7322e-05
4.71541e-05
4.68006e-05
4.63742e-05
4.59633e-05
4.55508e-05
4.51169e-05
4.4656e-05
4.41656e-05
4.36428e-05
4.30855e-05
4.24934e-05
4.18668e-05
4.12058e-05
4.05117e-05
3.9786e-05
3.90315e-05
3.82491e-05
3.74419e-05
3.66133e-05
3.57654e-05
3.49024e-05
3.40265e-05
3.31417e-05
3.22513e-05
3.13583e-05
0
0
6.15324e-06
0.000808679
0.00161643
0.00814131
0.0180105
0.0286378
0.0379396
0.0447328
0.0481342
0.0471475
0.0404356
0.0250701
0.0246488
0.0404221
0.0464984
0.0450485
0.037233
0.0251577
0.012506
0.00366828
0.000265789
0.000100415
0
0
1.18035e-09
8.8888e-06
3.40535e-05
4.75216e-05
4.65692e-05
4.38549e-05
4.30196e-05
4.28613e-05
4.25848e-05
4.2222e-05
4.18668e-05
4.15123e-05
4.11382e-05
4.0739e-05
4.03122e-05
3.98557e-05
3.93678e-05
3.88482e-05
3.82967e-05
3.77137e-05
3.71003e-05
3.64588e-05
3.57901e-05
3.50964e-05
8.17244e-06
2.3656e-08
0
0
0.000577978
0.000545721
0.00511552
0.0135166
0.0235558
0.0329668
0.0403002
0.0446038
0.0449588
0.0402207
0.0283512
0.0167417
0.0352286
0.0427812
0.0428698
0.0365729
0.0256991
0.0136201
0.00457224
0.000117661
5.82482e-05
0
0
0
7.06506e-06
2.66495e-05
4.2087e-05
4.27298e-05
4.01763e-05
3.92063e-05
3.90716e-05
3.88656e-05
3.85492e-05
3.82332e-05
)
;

boundaryField
{
    inlet
    {
        type            calculated;
        value           nonuniform List<scalar> 
11
(
7.40325e-05
7.20688e-05
7.29304e-05
7.37177e-05
7.44093e-05
7.50201e-05
7.55874e-05
7.615e-05
7.67963e-05
7.52472e-05
7.72313e-05
)
;
    }
    outlet
    {
        type            calculated;
        value           nonuniform List<scalar> 0();
    }
    walls
    {
        type            calculated;
        value           uniform 0;
    }
    frontAndBack
    {
        type            empty;
    }
    procBoundary6to2
    {
        type            processor;
        value           nonuniform List<scalar> 
13
(
0.141641
0.0971462
0.0714685
0.0531314
0.0362012
0.0205355
0.00769919
0.000779944
0.000516779
0
0
7.44959e-06
3.05959e-05
)
;
    }
    procBoundary6to3
    {
        type            processor;
        value           uniform 3.29401e-05;
    }
    procBoundary6to5
    {
        type            processor;
        value           nonuniform List<scalar> 
86
(
0.296935
0.14481
0.135524
0.107723
0.0593182
0.0112928
0.00383998
0.00150182
0
0
4.88013e-05
0.000197135
0.000239335
0.00022224
0.000210415
0.00020971
0.000210581
0.000208931
0.000205482
0.000201667
0.000198061
0.000194616
0.000191131
0.000187479
0.000183634
0.000179611
0.000175428
0.000171107
0.000166661
0.000162098
0.000157434
0.000152685
0.000147867
0.000147867
0.000144743
0.000139832
0.000134895
0.000129949
0.000125014
0.000120109
0.000115252
0.00011046
0.000105748
0.000101131
9.66207e-05
9.22293e-05
9.22293e-05
8.87974e-05
8.46135e-05
8.05739e-05
7.66831e-05
7.29442e-05
6.93586e-05
6.5927e-05
6.26485e-05
5.9521e-05
5.9521e-05
5.68689e-05
5.40141e-05
5.13026e-05
4.87307e-05
4.62937e-05
4.39839e-05
4.17901e-05
4.17901e-05
3.98652e-05
3.78593e-05
3.59512e-05
3.41492e-05
3.24463e-05
3.08985e-05
2.95967e-05
2.95967e-05
2.85545e-05
2.74855e-05
2.63206e-05
2.53267e-05
2.38765e-05
2.33985e-05
2.10713e-05
2.26501e-05
1.96695e-05
1.96695e-05
2.50411e-05
2.69934e-05
3.05919e-05
)
;
    }
    procBoundary6to7
    {
        type            processor;
        value           nonuniform List<scalar> 
91
(
3.02095e-05
3.02095e-05
2.6468e-05
2.6468e-05
2.60157e-05
2.60157e-05
1.6809e-05
1.58701e-05
1.6809e-05
2.15151e-05
1.89125e-05
1.58701e-05
2.05118e-05
2.24272e-05
2.10249e-05
1.89125e-05
2.10376e-05
2.40793e-05
2.33383e-05
2.24272e-05
2.24036e-05
2.7089e-05
2.61617e-05
2.52408e-05
2.40793e-05
2.43342e-05
3.0466e-05
2.95769e-05
2.86931e-05
2.78169e-05
2.7089e-05
2.69501e-05
3.43809e-05
3.36456e-05
3.28938e-05
3.21278e-05
3.13512e-05
3.05668e-05
3.0466e-05
2.97777e-05
3.79233e-05
3.75968e-05
3.72461e-05
3.68692e-05
3.64643e-05
3.60306e-05
3.55676e-05
3.50757e-05
3.45555e-05
3.40086e-05
3.34361e-05
3.43809e-05
3.28397e-05
2.66072e-06
6.7656e-07
0
0
0.000196995
0.00028289
0.00262949
0.00938135
0.0185807
0.0279851
0.0358397
0.0410287
0.0426424
0.0396661
0.0305649
0.0100171
0.0299883
0.0390901
0.040663
0.0358171
0.0261284
0.0146469
0.00534517
0.000488757
0.000168536
0
0
0
5.16769e-06
1.90069e-05
3.72057e-05
3.93852e-05
3.6868e-05
3.56912e-05
3.55941e-05
3.54971e-05
3.79233e-05
3.5244e-05
)
;
    }
}


// ************************************************************************* //
