/*--------------------------------*- C++ -*----------------------------------*\
| =========                 |                                                 |
| \\      /  F ield         | OpenFOAM: The Open Source CFD Toolbox           |
|  \\    /   O peration     | Version:  2306                                  |
|   \\  /    A nd           | Website:  www.openfoam.com                      |
|    \\/     M anipulation  |                                                 |
\*---------------------------------------------------------------------------*/
FoamFile
{
    version     2.0;
    format      ascii;
    arch        "LSB;label=32;scalar=64";
    class       volSymmTensorField;
    location    "750";
    object      turbulenceProperties:R;
}
// * * * * * * * * * * * * * * * * * * * * * * * * * * * * * * * * * * * * * //

dimensions      [0 2 -2 0 0 0 0];

internalField   nonuniform List<symmTensor> 
1340
(
(14.5076 -7.22676 1.21991e-15 19.3671 1.14382e-15 16.9539)
(11.344 -5.67315 -1.22395e-16 15.4785 -5.25036e-16 13.4314)
(8.33024 -4.17132 -1.51847e-15 11.5015 -2.44186e-17 9.91842)
(1.8392 -0.926562 -1.88559e-16 2.78501 -1.90274e-15 2.31092)
(5.56396 -2.74333 3.4225e-15 7.14751 -4.99291e-15 6.325)
(4.9171 -2.43212 -1.50351e-15 6.39212 1.52293e-15 5.63455)
(4.36044 -2.13694 3.24906e-15 5.51642 4.02376e-16 4.8855)
(4.49718 -2.25507 5.36251e-15 5.98271 7.29068e-15 5.37337)
(7.19235 -3.52365 -1.43655e-14 8.9523 5.20321e-16 8.06786)
(6.21475 -3.05341 4.95809e-15 7.811 -1.62558e-15 7.01426)
(5.27479 -2.5564 5.13603e-15 6.35386 -1.52189e-15 5.7902)
(5.68036 -2.81458 -1.00216e-14 7.35021 2.90304e-15 6.54229)
(7.50727 -3.65019 4.79324e-15 9.09033 4.89459e-15 8.3026)
(7.00448 -3.42051 -1.01672e-14 8.60223 -1.30313e-16 7.81038)
(6.25811 -3.01934 -1.3026e-14 7.41624 1.88151e-15 6.82166)
(6.54299 -3.21244 9.21198e-15 8.144 -3.43363e-15 7.386)
(5.00425 -2.39892 -9.95963e-16 5.80629 4.27456e-16 5.4042)
(6.12663 -2.96367 -1.75002e-15 7.29455 3.98534e-15 6.71654)
(6.43237 -3.08567 6.73219e-16 7.49393 2.44284e-16 6.94721)
(6.9715 -3.40203 -1.72596e-14 8.48058 4.31251e-15 7.78228)
(1.21902 -0.556042 2.8085e-15 1.25523 -1.65236e-15 1.2347)
(3.24789 -1.53961 1.02197e-14 3.65297 -1.62746e-15 3.45162)
(5.23061 -2.48029 5.21569e-16 5.90479 -9.15598e-17 5.55221)
(6.71548 -3.25962 3.62078e-15 8.02814 -3.41157e-15 7.42627)
(0.114456 0.024606 -1.26768e-15 0.0557748 3.22952e-16 0.0850538)
(0.598766 -0.253016 -1.31429e-15 0.53416 -8.03877e-16 0.567556)
(2.76631 -1.27429 1.17119e-15 2.91467 -2.67163e-16 2.82901)
(5.45423 -2.62773 3.10442e-15 6.37295 -8.99933e-16 5.95928)
(0.0443844 0.0138259 3.32436e-16 0.0275586 8.22137e-18 0.0359529)
(0.0878686 0.0200307 -3.9225e-16 0.0439518 1.32787e-16 0.0663483)
(0.707108 -0.28384 -1.87183e-15 0.586075 3.44366e-16 0.641872)
(3.33527 -1.58483 9.83759e-15 3.74553 -5.71868e-16 3.57545)
(0 0 -0 0 -0 0)
(0.0264574 0.00735557 8.66026e-17 0.0149601 -7.4035e-18 0.0208239)
(0.128092 0.00325205 1.88938e-15 0.0491002 -2.29295e-16 0.0871751)
(1.38457 -0.63511 -4.5757e-15 1.42565 1.49203e-15 1.42907)
(0 -0 0 0 0 0)
(3.0391e-06 8.2401e-09 -4.81624e-22 2.9886e-06 7.10992e-23 3.01452e-06)
(0.00223591 0.000431357 -9.2279e-18 0.00104959 3.97733e-19 0.00161866)
(0.400775 -0.161268 -3.49637e-15 0.327658 1.5003e-16 0.377541)
(0 -0 0 0 -0 0)
(0 -0 0 0 0 0)
(0.00278918 0.000299253 -5.73029e-18 0.00114073 1.13035e-18 0.00192475)
(0.120502 -0.0325202 5.75779e-16 0.0659832 -2.58649e-16 0.0989957)
(1.76479e-06 -1.5952e-09 8.65799e-23 1.74586e-06 -8.85942e-23 1.75526e-06)
(0 -0 0 0 -0 0)
(0.000778444 -7.27161e-05 1.27959e-18 0.000317004 -2.25833e-19 0.000535543)
(0.0434916 -0.00949249 6.10662e-16 0.0210677 -1.80138e-17 0.034301)
(2.90669e-05 -1.00932e-07 -8.61487e-20 2.46e-05 2.39783e-20 2.68197e-05)
(4.17366e-08 -2.30649e-12 -6.32987e-27 4.17264e-08 -2.77447e-26 4.17316e-08)
(0.000230829 -3.54993e-05 -1.42367e-18 0.000123218 1.10615e-19 0.000174299)
(0.0140783 -0.00355964 -2.21441e-16 0.00739135 2.184e-17 0.0113243)
(6.21555e-05 -3.27596e-07 4.71553e-19 4.4849e-05 -3.85881e-20 5.3452e-05)
(7.4431e-08 -5.32395e-12 -5.51266e-25 7.43953e-08 8.75202e-26 7.44135e-08)
(1.97861e-05 -6.22271e-07 -1.05592e-20 1.78273e-05 3.00427e-21 1.87628e-05)
(0.00348203 -0.000984347 6.40612e-17 0.00197381 -6.0443e-18 0.00285695)
(5.79926e-05 -4.52816e-07 -3.44463e-19 4.23043e-05 -3.58256e-20 5.01053e-05)
(2.75446e-05 -5.73369e-07 3.403e-20 2.33126e-05 3.23037e-21 2.54665e-05)
(2.82547e-07 -1.33881e-10 1.1859e-23 2.82051e-07 -1.36989e-24 2.82289e-07)
(0.000247665 -6.04022e-05 -4.45619e-18 0.000160514 4.94317e-19 0.000211001)
(4.54565e-05 -3.48353e-07 2.79666e-20 3.49071e-05 3.8355e-20 4.01555e-05)
(5.4647e-05 -2.08041e-06 -1.44194e-20 4.02385e-05 -1.29049e-20 4.75606e-05)
(9.6302e-08 -1.53691e-11 -1.57597e-24 9.62403e-08 8.79713e-26 9.62701e-08)
(1.56227e-05 -5.40922e-07 1.17715e-20 1.48233e-05 -2.40768e-21 1.528e-05)
(3.93561e-05 -2.64336e-07 3.78848e-20 3.09667e-05 -2.89415e-21 3.51425e-05)
(6.14808e-05 -2.69692e-06 -5.31509e-20 4.36389e-05 1.80245e-21 5.26923e-05)
(2.3353e-07 -9.51652e-11 5.87345e-25 2.33153e-07 4.61814e-25 2.33336e-07)
(2.19693e-10 -1.22313e-16 -2.12993e-30 2.19693e-10 1.60556e-31 2.19693e-10)
(3.83035e-05 -2.31859e-07 1.2253e-20 3.01067e-05 -1.74438e-20 3.41888e-05)
(5.1387e-05 -2.04307e-06 -3.54162e-20 3.78807e-05 1.39071e-20 4.4724e-05)
(1.79417e-05 -5.27477e-07 4.32423e-20 1.59384e-05 -2.20685e-21 1.69144e-05)
(3.5093e-07 -3.3455e-10 8.29194e-24 3.504e-07 -9.76875e-25 3.50694e-07)
(3.87251e-05 -2.14778e-07 -1.05678e-19 3.01515e-05 6.37939e-21 3.44234e-05)
(4.133e-05 -1.41289e-06 6.64406e-20 3.17704e-05 -3.62139e-21 3.66071e-05)
(3.84379e-05 -2.21573e-06 1.13821e-19 3.02672e-05 -1.30719e-20 3.42628e-05)
(4.26391e-06 -5.19043e-08 3.60584e-21 4.18044e-06 -1.59622e-22 4.22628e-06)
(3.85846e-05 -1.90955e-07 1.16512e-20 2.98315e-05 1.15707e-20 3.4195e-05)
(3.6198e-05 -1.12246e-06 -1.36843e-20 2.83735e-05 -6.88729e-21 3.23272e-05)
(4.17828e-05 -2.66654e-06 -4.41907e-20 3.20716e-05 -8.54281e-21 3.68381e-05)
(1.81747e-05 -9.30141e-07 -5.29709e-21 1.66598e-05 1.70733e-21 1.74822e-05)
(3.75507e-05 -1.5637e-07 -3.71337e-21 2.89597e-05 -7.31233e-21 3.32444e-05)
(3.42711e-05 -1.02088e-06 -4.85592e-20 2.69254e-05 7.52911e-21 3.06324e-05)
(3.73852e-05 -2.27587e-06 -1.9714e-19 2.91008e-05 1.38022e-20 3.31802e-05)
(2.88932e-05 -2.32937e-06 -8.17389e-20 2.50362e-05 3.61387e-21 2.71079e-05)
(3.60289e-05 -1.15837e-07 -5.67918e-20 2.77891e-05 1.37398e-20 3.19004e-05)
(3.3346e-05 -9.72676e-07 5.18432e-20 2.60985e-05 -2.77769e-21 2.97514e-05)
(3.29843e-05 -1.88598e-06 4.64649e-20 2.60728e-05 1.61827e-21 2.9486e-05)
(3.15701e-05 -2.86996e-06 -5.90603e-20 2.67157e-05 1.61957e-21 2.92968e-05)
(3.43886e-05 -7.33671e-08 1.12201e-19 2.65436e-05 -7.98326e-22 3.04595e-05)
(3.23349e-05 -9.17894e-07 -5.34631e-20 2.52137e-05 1.09183e-21 2.8799e-05)
(3.01757e-05 -1.65806e-06 -3.68533e-20 2.40218e-05 1.69348e-21 2.70689e-05)
(3.00845e-05 -2.75104e-06 1.32946e-19 2.53043e-05 -4.80954e-21 2.78228e-05)
(3.27784e-05 -3.0475e-08 -1.59765e-20 2.53134e-05 -1.1327e-20 2.90409e-05)
(3.1024e-05 -8.46443e-07 2.83869e-20 2.41411e-05 -2.49578e-21 2.76029e-05)
(2.83773e-05 -1.52505e-06 5.03815e-20 2.26131e-05 -3.74571e-21 2.54738e-05)
(2.76957e-05 -2.47217e-06 -8.46547e-20 2.32646e-05 3.53523e-21 2.55801e-05)
(3.1214e-05 1.23773e-08 -1.78065e-20 2.41099e-05 -6.21056e-22 2.76585e-05)
(2.95339e-05 -7.6513e-07 -7.31021e-20 2.29582e-05 3.06623e-21 2.62624e-05)
(2.69339e-05 -1.42052e-06 -8.37915e-20 2.14319e-05 5.25601e-21 2.41679e-05)
(2.55216e-05 -2.21887e-06 9.41844e-20 2.14003e-05 -2.52774e-21 2.3538e-05)
(2.96689e-05 5.48644e-08 -3.38994e-20 2.29178e-05 4.84964e-21 2.6291e-05)
(2.79925e-05 -6.8152e-07 3.81833e-20 2.17454e-05 8.84209e-21 2.48816e-05)
(2.55414e-05 -1.31623e-06 1.27228e-19 2.02841e-05 -5.46888e-23 2.29026e-05)
(2.36764e-05 -2.00981e-06 -9.15882e-20 1.97925e-05 2.02602e-21 2.17935e-05)
(2.81305e-05 9.693e-08 3.55443e-20 2.17308e-05 3.48147e-21 2.49291e-05)
(2.64647e-05 -5.98654e-07 1.07613e-19 2.05444e-05 -7.5198e-21 2.35144e-05)
(2.41376e-05 -1.2067e-06 7.88401e-21 1.91316e-05 -3.11755e-21 2.16283e-05)
(2.20492e-05 -1.82692e-06 4.94007e-20 1.83596e-05 -1.14546e-21 2.02493e-05)
(2.65988e-05 1.37364e-07 2.92732e-20 2.05503e-05 -6.04033e-21 2.3574e-05)
(2.49652e-05 -5.18189e-07 -6.22905e-20 1.93658e-05 -6.57201e-21 2.21731e-05)
(2.274e-05 -1.09513e-06 1.52116e-20 1.79883e-05 -2.93551e-21 2.0361e-05)
(2.05584e-05 -1.65806e-06 -9.35721e-20 1.70429e-05 1.08414e-21 1.88346e-05)
(2.50771e-05 1.76289e-07 -5.22915e-20 1.93791e-05 2.37699e-21 2.2228e-05)
(2.34944e-05 -4.3973e-07 -4.18018e-20 1.82104e-05 5.79638e-21 2.0858e-05)
(2.1368e-05 -9.84037e-07 -8.12826e-20 1.68679e-05 1.65851e-21 1.91168e-05)
(1.91658e-05 -1.49876e-06 6.05863e-20 1.58144e-05 -1.50244e-21 1.75154e-05)
(2.35759e-05 2.12964e-07 5.83764e-20 1.82249e-05 -1.0344e-21 2.09007e-05)
(2.20564e-05 -3.64493e-07 4.63285e-20 1.70826e-05 -1.43596e-21 1.95735e-05)
(2.00364e-05 -8.75631e-07 3.94771e-20 1.5782e-05 -7.38439e-22 1.79096e-05)
(1.78616e-05 -1.34817e-06 -1.35495e-19 1.46664e-05 2.2547e-21 1.6283e-05)
(2.2103e-05 2.46794e-07 -6.93811e-20 1.70938e-05 -1.7752e-21 1.95991e-05)
(2.0655e-05 -2.92355e-07 -6.98903e-20 1.59855e-05 -2.70132e-22 1.83231e-05)
(1.87466e-05 -7.70703e-07 -1.02324e-19 1.47324e-05 1.29687e-22 1.67407e-05)
(1.6638e-05 -1.20647e-06 2.15723e-19 1.3593e-05 1.88067e-21 1.51295e-05)
(2.06621e-05 2.77526e-07 3.44109e-20 1.59885e-05 5.10233e-21 1.83261e-05)
(1.92952e-05 -2.2432e-07 4.73929e-20 1.49234e-05 5.7855e-22 1.71114e-05)
(1.75056e-05 -6.70124e-07 5.99031e-20 1.37249e-05 4.50429e-21 1.56172e-05)
(1.54889e-05 -1.0732e-06 -8.65366e-20 1.25888e-05 -3.34323e-21 1.4049e-05)
(1.92612e-05 3.04891e-07 1.80913e-20 1.49151e-05 -2.79882e-21 1.7089e-05)
(1.79786e-05 -1.60541e-07 -6.42839e-20 1.38974e-05 -2.06389e-21 1.59393e-05)
(1.63123e-05 -5.74747e-07 2.36755e-20 1.27597e-05 -4.65945e-21 1.45383e-05)
(1.44103e-05 -9.48501e-07 3.62342e-20 1.16509e-05 1.61884e-21 1.30378e-05)
(1.88867e-05 7.52883e-07 -7.04575e-20 1.48279e-05 3.5551e-21 1.68581e-05)
(1.79051e-05 3.28513e-07 -2.87621e-20 1.38771e-05 -3.28495e-21 1.58921e-05)
(1.67119e-05 -1.01381e-07 2.06228e-20 1.29127e-05 5.96323e-21 1.48131e-05)
(1.51684e-05 -4.84854e-07 -9.79892e-20 1.18381e-05 -4.60667e-22 1.35056e-05)
(1.33948e-05 -8.32099e-07 -2.48735e-20 1.07734e-05 1.85911e-22 1.20891e-05)
(1.74922e-05 7.38155e-07 7.89719e-20 1.37606e-05 5.29009e-21 1.56272e-05)
(1.65983e-05 3.48308e-07 -3.1802e-20 1.28778e-05 1.96758e-21 1.4739e-05)
(1.54975e-05 -4.73082e-08 8.2694e-20 1.19711e-05 2.37265e-22 1.37348e-05)
(1.40777e-05 -4.01054e-07 6.56607e-20 1.09631e-05 4.38471e-21 1.25228e-05)
(1.24389e-05 -7.23784e-07 7.50452e-20 9.95298e-06 2.234e-21 1.11992e-05)
(1.61537e-05 7.20353e-07 -1.96689e-20 1.27354e-05 -4.0465e-21 1.44453e-05)
(1.53458e-05 3.64098e-07 3.70347e-20 1.1921e-05 2.3022e-21 1.36344e-05)
(1.43371e-05 1.58402e-09 -2.23124e-20 1.10738e-05 -5.19534e-21 1.27057e-05)
(1.304e-05 -3.23683e-07 -1.82872e-21 1.01348e-05 -2.83926e-21 1.15897e-05)
(1.15391e-05 -6.23532e-07 -3.01657e-20 9.18672e-06 -3.7129e-21 1.03648e-05)
(1.4876e-05 6.99727e-07 1.14655e-20 1.17557e-05 -1.63878e-22 1.33165e-05)
(1.41503e-05 3.75911e-07 -5.15085e-21 1.10083e-05 -1.21317e-21 1.25802e-05)
(1.32329e-05 4.51564e-08 -5.48755e-20 1.02221e-05 7.30856e-22 1.17276e-05)
(1.20557e-05 -2.52899e-07 -3.49906e-20 9.35296e-06 -2.44492e-21 1.07065e-05)
(1.06917e-05 -5.31221e-07 -7.97492e-20 8.47116e-06 -1.81743e-21 9.58224e-06)
(1.36626e-05 6.76608e-07 -3.67159e-20 1.08243e-05 -2.93696e-22 1.22441e-05)
(1.30147e-05 3.83897e-07 7.46571e-21 1.01419e-05 -3.1267e-22 1.15792e-05)
(1.21864e-05 8.3392e-08 5.44955e-20 9.41706e-06 2.38809e-21 1.08017e-05)
(1.11247e-05 -1.88786e-07 -4.58011e-20 8.61742e-06 -1.22068e-21 9.87309e-06)
(9.894e-06 -4.4667e-07 2.7953e-20 7.80361e-06 2.24334e-21 8.84878e-06)
(1.25156e-05 6.51343e-07 5.45308e-20 9.94267e-06 5.22123e-21 1.12297e-05)
(1.19409e-05 3.88099e-07 -1.3732e-20 9.32293e-06 6.33181e-22 1.06328e-05)
(1.11985e-05 1.16303e-07 -5.36395e-20 8.65897e-06 -2.93411e-21 9.92863e-06)
(1.02474e-05 -1.31327e-07 -1.07014e-20 7.92786e-06 2.74998e-21 9.0895e-06)
(9.14373e-06 -3.69773e-07 -7.126e-21 7.18155e-06 -3.14395e-22 8.16191e-06)
(1.14366e-05 6.24335e-07 2.69696e-20 9.11203e-06 -1.21957e-21 1.02748e-05)
(1.093e-05 3.88807e-07 3.69622e-20 8.55203e-06 2.49113e-21 9.74178e-06)
(1.02687e-05 1.44035e-07 4.27975e-20 7.94718e-06 2.98578e-21 9.10781e-06)
(9.42243e-06 -8.04358e-08 1.0055e-19 7.28289e-06 4.05891e-21 8.35441e-06)
(8.43874e-06 -3.00251e-07 3.42472e-20 6.60251e-06 2.43622e-21 7.51935e-06)
(1.04264e-05 5.95933e-07 -2.17535e-20 8.33295e-06 -2.97221e-21 9.38013e-06)
(9.98235e-06 3.86272e-07 2.12368e-21 7.82936e-06 -2.38965e-21 8.90659e-06)
(9.39733e-06 1.66838e-07 -2.17573e-20 7.28149e-06 -2.3473e-21 8.33921e-06)
(8.64877e-06 -3.59015e-08 -4.09826e-20 6.68114e-06 -5.25858e-21 7.66657e-06)
(7.7769e-06 -2.37979e-07 2.38922e-20 6.06409e-06 6.14088e-22 6.91876e-06)
(9.48478e-06 5.66532e-07 -2.91847e-20 7.60525e-06 -8.85661e-22 8.54542e-06)
(9.09766e-06 3.80802e-07 -5.4553e-20 7.15444e-06 -2.77678e-21 8.12672e-06)
(8.58334e-06 1.84917e-07 -8.14954e-21 6.66083e-06 8.07299e-22 7.62189e-06)
(7.92533e-06 2.54371e-09 -3.3572e-20 6.12121e-06 -1.09997e-21 7.02479e-06)
(7.15648e-06 -1.82491e-07 -1.01449e-21 5.56401e-06 -1.57253e-21 6.35816e-06)
(8.61067e-06 5.36512e-07 3.36467e-21 6.92824e-06 2.15403e-21 7.76982e-06)
(8.27496e-06 3.7273e-07 2.691e-20 6.52638e-06 2.66294e-21 7.40128e-06)
(7.82546e-06 1.98665e-07 3.48369e-20 6.08386e-06 1.82259e-21 6.95445e-06)
(7.25036e-06 3.5226e-08 -4.22454e-21 5.6012e-06 1.20259e-21 6.42719e-06)
(6.57584e-06 -1.33641e-07 -5.84951e-20 5.10027e-06 -2.5353e-21 5.8357e-06)
(7.80257e-06 5.06221e-07 4.74467e-20 6.30081e-06 3.60771e-21 7.05201e-06)
(7.51296e-06 3.62447e-07 -2.03531e-20 5.94409e-06 -2.63401e-21 6.72908e-06)
(7.12211e-06 2.08401e-07 -2.83733e-20 5.54904e-06 -2.94701e-21 6.33536e-06)
(6.62248e-06 6.25091e-08 2.83578e-20 5.11949e-06 1.16199e-21 5.87232e-06)
(6.03309e-06 -9.0939e-08 5.89834e-20 4.67052e-06 4.74073e-21 5.34923e-06)
(7.05818e-06 4.75962e-07 -8.86536e-22 5.7213e-06 -1.00714e-21 6.39002e-06)
(6.80959e-06 3.50277e-07 -3.432e-20 5.40588e-06 -1.86653e-21 6.10826e-06)
(6.47157e-06 2.14535e-07 -7.84212e-21 5.05477e-06 -7.64709e-22 5.76295e-06)
(6.03967e-06 8.48285e-08 -2.48837e-20 4.67404e-06 -1.71435e-21 5.35813e-06)
(5.52695e-06 -5.40452e-08 -2.72463e-21 4.27303e-06 -2.08003e-21 4.89726e-06)
(6.52246e-06 5.44504e-07 -2.15342e-22 5.43911e-06 -2.33763e-22 5.98109e-06)
(6.37504e-06 4.46053e-07 7.00819e-21 5.18793e-06 4.07357e-22 5.78172e-06)
(6.16242e-06 3.36622e-07 1.02581e-20 4.90987e-06 1.45323e-21 5.53661e-06)
(5.87152e-06 2.17468e-07 -3.97623e-20 4.59904e-06 -1.93126e-21 5.23506e-06)
(5.49999e-06 1.02611e-07 3.43008e-20 4.26288e-06 2.80577e-21 4.88263e-06)
(5.05581e-06 -2.25438e-08 -5.73523e-20 3.90581e-06 -3.21527e-21 4.47798e-06)
(5.87478e-06 5.01698e-07 -6.78529e-21 4.91854e-06 -5.53506e-22 5.39692e-06)
(5.75015e-06 4.16736e-07 -9.71653e-21 4.69852e-06 -1.27852e-21 5.22454e-06)
(5.56905e-06 3.21818e-07 -1.07833e-20 4.4542e-06 -1.31353e-21 5.01204e-06)
(5.31972e-06 2.17634e-07 5.13637e-20 4.17993e-06 5.04337e-21 4.7496e-06)
(5.00156e-06 1.16307e-07 -3.91196e-21 3.88415e-06 -1.46337e-21 4.44398e-06)
(4.61812e-06 3.9949e-09 4.94402e-20 3.567e-06 4.23017e-21 4.08968e-06)
(5.28535e-06 4.61317e-07 6.77333e-21 4.443e-06 1.20059e-21 4.8644e-06)
(5.18018e-06 3.88219e-07 -1.75335e-20 4.25064e-06 -1.16099e-21 4.71558e-06)
(5.02648e-06 3.06171e-07 5.17465e-22 4.03657e-06 5.46602e-22 4.53191e-06)
(4.81364e-06 2.15413e-07 2.26735e-20 3.79534e-06 5.38737e-22 4.30427e-06)
(4.54235e-06 1.26372e-07 -3.59718e-20 3.53593e-06 -1.91261e-21 4.04021e-06)
(4.21239e-06 2.60232e-08 -2.12351e-20 3.25487e-06 -2.09618e-21 3.73073e-06)
(4.75038e-06 4.23398e-07 2.40446e-20 4.00976e-06 1.62407e-21 4.38026e-06)
(4.66186e-06 3.60697e-07 1.24899e-20 3.84193e-06 1.31248e-21 4.25203e-06)
(4.53176e-06 2.90019e-07 2.73437e-20 3.6548e-06 2.00264e-21 4.09362e-06)
(4.35067e-06 2.11211e-07 -3.02252e-20 3.44317e-06 -2.33532e-21 3.89669e-06)
(4.12015e-06 1.33251e-07 5.19745e-20 3.21624e-06 4.60975e-21 3.66921e-06)
(3.83711e-06 4.3969e-08 2.3023e-20 2.9677e-06 2.09192e-21 3.39952e-06)
(4.26607e-06 3.87948e-07 -2.7922e-20 3.61601e-06 -2.87892e-21 3.94121e-06)
(4.19162e-06 3.34301e-07 -4.68341e-21 3.46977e-06 -7.9698e-22 3.83081e-06)
(4.08178e-06 2.73586e-07 -3.22575e-20 3.30652e-06 -3.50043e-21 3.69446e-06)
(3.9282e-06 2.05396e-07 3.69955e-20 3.12135e-06 3.54527e-21 3.52456e-06)
(3.7329e-06 1.37386e-07 3.42547e-21 2.92325e-06 -5.12905e-22 3.32903e-06)
(3.49083e-06 5.82698e-08 -1.29471e-20 2.70393e-06 -1.82128e-21 3.09454e-06)
(3.82862e-06 3.54938e-07 1.1257e-20 3.25896e-06 1.51511e-21 3.54393e-06)
(3.76608e-06 3.09154e-07 -1.16631e-20 3.13171e-06 -9.14207e-22 3.44899e-06)
(3.67347e-06 2.57144e-07 -6.00437e-21 2.98951e-06 9.24348e-23 3.33177e-06)
(3.54349e-06 1.98305e-07 -3.97943e-21 2.82775e-06 -8.77532e-22 3.1854e-06)
(3.3785e-06 1.39164e-07 -1.37713e-20 2.65515e-06 -1.02398e-21 3.01772e-06)
(3.17198e-06 6.93453e-08 -4.09313e-20 2.46195e-06 -3.03309e-21 2.81419e-06)
(3.43422e-06 3.24303e-07 -2.63044e-21 2.93575e-06 3.24397e-22 3.1851e-06)
(3.38171e-06 2.85307e-07 3.12596e-21 2.82514e-06 4.4433e-22 3.1035e-06)
(3.30377e-06 2.40867e-07 1.09256e-20 2.70146e-06 1.11071e-21 3.00287e-06)
(3.19399e-06 1.90242e-07 -3.06626e-21 2.5604e-06 -4.47822e-22 2.87698e-06)
(3.05485e-06 1.38987e-07 9.14661e-21 2.41021e-06 4.97635e-22 2.73338e-06)
(2.87903e-06 7.76104e-08 3.30242e-20 2.24027e-06 3.36628e-21 2.55696e-06)
(3.07931e-06 2.95979e-07 5.34582e-20 2.64376e-06 5.25822e-21 2.86164e-06)
(3.0352e-06 2.6283e-07 3.12528e-21 2.54765e-06 4.76631e-22 2.79148e-06)
(2.96962e-06 2.24935e-07 2.09777e-21 2.44016e-06 4.79871e-24 2.70511e-06)
(2.87701e-06 1.81484e-07 -1.95646e-20 2.31729e-06 -1.28832e-21 2.59694e-06)
(2.75987e-06 1.37195e-07 -3.30705e-20 2.18676e-06 -2.93907e-21 2.47411e-06)
(2.61049e-06 8.34421e-08 -5.84889e-21 2.03749e-06 -7.12645e-22 2.3214e-06)
(2.76042e-06 2.6986e-07 -1.68303e-20 2.38032e-06 -2.21098e-21 2.57045e-06)
(2.72332e-06 2.4172e-07 7.18122e-21 2.29683e-06 5.92305e-22 2.51012e-06)
(2.66815e-06 2.09472e-07 -8.05762e-21 2.20348e-06 -1.06745e-21 2.43602e-06)
(2.5901e-06 1.72271e-07 3.85653e-20 2.09657e-06 3.61599e-21 2.34312e-06)
(2.49154e-06 1.34107e-07 2.71265e-20 1.98317e-06 2.88494e-21 2.2381e-06)
(2.36484e-06 8.71906e-08 2.90203e-20 1.85223e-06 2.37845e-21 2.10606e-06)
(2.4926e-06 2.65915e-07 1.32906e-20 2.20738e-06 1.2621e-21 2.35004e-06)
(2.47424e-06 2.45838e-07 2.0613e-20 2.14294e-06 2.52827e-21 2.30866e-06)
(2.443e-06 2.21987e-07 -6.51754e-21 2.07044e-06 -8.33608e-22 2.25675e-06)
(2.39655e-06 1.94594e-07 -1.49732e-20 1.98938e-06 -1.38294e-21 2.19314e-06)
(2.33078e-06 1.62803e-07 -2.56259e-20 1.8964e-06 -2.81717e-21 2.11338e-06)
(2.24788e-06 1.30002e-07 -8.02108e-21 1.79792e-06 -8.50659e-22 2.0236e-06)
(2.14057e-06 8.91937e-08 -4.94536e-20 1.6832e-06 -5.0889e-21 1.90953e-06)
(2.2333e-06 2.40789e-07 -1.9731e-20 1.98537e-06 -2.1828e-21 2.10937e-06)
(2.21771e-06 2.23801e-07 1.48596e-20 1.92929e-06 1.10834e-21 2.07356e-06)
(2.19133e-06 2.03603e-07 -1.765e-20 1.86628e-06 -1.77297e-21 2.02883e-06)
(2.15219e-06 1.80366e-07 -3.98678e-21 1.79592e-06 -7.82435e-24 1.97422e-06)
(2.09676e-06 1.53252e-07 8.61194e-21 1.71508e-06 7.35078e-22 1.90572e-06)
(2.02699e-06 1.25124e-07 1.78821e-20 1.62955e-06 2.00558e-21 1.82892e-06)
(1.93621e-06 8.97414e-08 -6.78928e-21 1.52914e-06 1.97066e-23 1.73045e-06)
(2.00132e-06 2.17997e-07 1.45732e-20 1.78603e-06 2.02914e-21 1.89371e-06)
(1.98802e-06 2.03628e-07 -2.80446e-20 1.7372e-06 -3.10152e-21 1.86266e-06)
(1.96565e-06 1.86544e-07 -2.40721e-21 1.68242e-06 -2.12326e-22 1.82405e-06)
(1.9326e-06 1.66851e-07 3.69509e-20 1.6213e-06 3.63139e-21 1.77709e-06)
(1.88582e-06 1.43765e-07 -3.66882e-20 1.55101e-06 -3.75038e-21 1.71822e-06)
(1.82705e-06 1.19695e-07 1.74936e-20 1.47669e-06 1.7365e-21 1.65248e-06)
(1.75033e-06 8.91033e-08 2.17112e-20 1.38888e-06 1.81298e-21 1.5675e-06)
(1.79397e-06 1.97354e-07 2.36423e-20 1.60725e-06 2.57177e-21 1.70063e-06)
(1.78252e-06 1.85206e-07 2.17149e-22 1.56466e-06 2.621e-22 1.67363e-06)
(1.76348e-06 1.70761e-07 2.83575e-21 1.51698e-06 4.02165e-22 1.64024e-06)
(1.73548e-06 1.54089e-07 -4.34335e-20 1.46384e-06 -4.76099e-21 1.59978e-06)
(1.69592e-06 1.34455e-07 -1.30024e-21 1.40268e-06 -1.46287e-22 1.54912e-06)
(1.64633e-06 1.13891e-07 3.05676e-20 1.33806e-06 3.2843e-21 1.49277e-06)
(1.58153e-06 8.7513e-08 -6.05103e-20 1.26132e-06 -6.33251e-21 1.41946e-06)
(1.60874e-06 1.78683e-07 5.89091e-21 1.44699e-06 5.2228e-22 1.52789e-06)
(1.59881e-06 1.68414e-07 -7.97452e-21 1.4098e-06 -7.4104e-22 1.50434e-06)
(1.58252e-06 1.56203e-07 -4.47145e-21 1.36824e-06 -5.7222e-22 1.47538e-06)
(1.5587e-06 1.42099e-07 1.20495e-20 1.32199e-06 1.72723e-21 1.44045e-06)
(1.52519e-06 1.25419e-07 -2.16464e-20 1.26874e-06 -2.31662e-21 1.39678e-06)
(1.48322e-06 1.0788e-07 2.38667e-20 1.21248e-06 2.39114e-21 1.34838e-06)
(1.42849e-06 8.51879e-08 -1.05524e-20 1.14544e-06 -7.83244e-22 1.28513e-06)
(1.44323e-06 1.61794e-07 3.21218e-21 1.30331e-06 1.94778e-22 1.37328e-06)
(1.43457e-06 1.5312e-07 1.72232e-20 1.2708e-06 1.98512e-21 1.35272e-06)
(1.42057e-06 1.42804e-07 -1.56671e-21 1.23455e-06 -9.68153e-23 1.32756e-06)
(1.40024e-06 1.30883e-07 1.0178e-20 1.19425e-06 7.28706e-22 1.29735e-06)
(1.37176e-06 1.16725e-07 -2.93472e-21 1.14784e-06 -3.7741e-22 1.25963e-06)
(1.33615e-06 1.01785e-07 2.37896e-20 1.0988e-06 2.49852e-21 1.21797e-06)
(1.28994e-06 8.2308e-08 -2.59338e-20 1.04026e-06 -2.60679e-21 1.16339e-06)
(1.29506e-06 1.4648e-07 -1.12579e-20 1.17418e-06 -1.42504e-21 1.23463e-06)
(1.28752e-06 1.3916e-07 6.4045e-21 1.1458e-06 6.17506e-22 1.21668e-06)
(1.27548e-06 1.30458e-07 8.17589e-21 1.11419e-06 9.11387e-22 1.19483e-06)
(1.25812e-06 1.20393e-07 -4.07731e-20 1.07911e-06 -4.43574e-21 1.1687e-06)
(1.2339e-06 1.08398e-07 -2.86389e-20 1.03868e-06 -3.19796e-21 1.13613e-06)
(1.20362e-06 9.56948e-08 1.92552e-20 9.95917e-07 1.86686e-21 1.10022e-06)
(1.16463e-06 7.90203e-08 -2.43607e-21 9.44848e-07 -2.10486e-22 1.05315e-06)
(1.16521e-06 1.37624e-07 1.19893e-21 1.08007e-06 2.48051e-22 1.12265e-06)
(1.16196e-06 1.32532e-07 -1.35458e-20 1.05767e-06 -1.37884e-21 1.10982e-06)
(1.15543e-06 1.26366e-07 9.38894e-21 1.03295e-06 9.07287e-22 1.09421e-06)
(1.14513e-06 1.19039e-07 -1.44592e-20 1.00547e-06 -1.76383e-21 1.07529e-06)
(1.13034e-06 1.1056e-07 1.01379e-21 9.74992e-07 2.89643e-22 1.05274e-06)
(1.10979e-06 1.00418e-07 -5.56622e-21 9.39845e-07 -3.20248e-22 1.02466e-06)
(1.08403e-06 8.96421e-08 3.65131e-21 9.02598e-07 2.04525e-22 9.93729e-07)
(1.05125e-06 7.54131e-08 -1.22339e-20 8.58176e-07 -1.12341e-21 9.53244e-07)
(1.04512e-06 1.24101e-07 8.25806e-21 9.71894e-07 9.64213e-22 1.00852e-06)
(1.04221e-06 1.19802e-07 2.22622e-20 9.52321e-07 2.63692e-21 9.97276e-07)
(1.03656e-06 1.14607e-07 -1.91723e-20 9.30789e-07 -2.16718e-21 9.83695e-07)
(1.02775e-06 1.08441e-07 -2.0673e-20 9.06926e-07 -2.13134e-21 9.67333e-07)
(1.01517e-06 1.01305e-07 -7.31578e-21 8.805e-07 -9.62243e-22 9.47909e-07)
(9.97774e-07 9.27461e-08 2.17993e-20 8.50024e-07 2.45218e-21 9.23759e-07)
(9.75903e-07 8.36288e-08 -1.66267e-20 8.17664e-07 -1.90388e-21 8.97168e-07)
(9.48494e-07 7.15338e-08 2.95892e-20 7.79195e-07 3.24994e-21 8.62492e-07)
(9.37313e-07 1.11872e-07 7.33404e-21 8.74471e-07 9.04068e-22 9.05896e-07)
(9.34616e-07 1.08228e-07 -1.02164e-20 8.57263e-07 -1.31485e-21 8.95941e-07)
(9.29635e-07 1.03839e-07 -1.21662e-21 8.38427e-07 -9.33468e-23 8.84042e-07)
(9.22024e-07 9.86383e-08 2.52758e-20 8.17632e-07 3.06376e-21 8.69817e-07)
(9.1128e-07 9.26255e-08 -1.49821e-20 7.94674e-07 -1.85522e-21 8.53036e-07)
(8.96527e-07 8.54008e-08 -5.14221e-21 7.6824e-07 -4.87109e-22 8.3225e-07)
(8.77948e-07 7.76865e-08 -1.5897e-20 7.40138e-07 -1.58864e-21 8.09389e-07)
(8.55095e-07 6.74295e-08 3.29035e-21 7.06915e-07 2.15178e-22 7.79764e-07)
(8.41119e-07 1.00895e-07 1.37614e-20 7.87315e-07 1.50549e-21 8.14233e-07)
(8.38482e-07 9.77886e-08 -6.97036e-21 7.72037e-07 -7.4589e-22 8.05272e-07)
(8.33943e-07 9.40586e-08 3.75135e-21 7.55404e-07 3.67079e-22 7.94692e-07)
(8.2723e-07 8.96523e-08 1.79647e-20 7.37142e-07 2.08899e-21 7.82185e-07)
(8.17922e-07 8.45666e-08 -5.795e-20 7.17074e-07 -6.47919e-21 7.6756e-07)
(8.05301e-07 7.84509e-08 4.12078e-20 6.94041e-07 4.4773e-21 7.49555e-07)
(7.8944e-07 7.19109e-08 1.65103e-20 6.6957e-07 1.91462e-21 7.29828e-07)
(7.7041e-07 6.32215e-08 3.81872e-21 6.40908e-07 3.29462e-22 7.04542e-07)
(7.55121e-07 9.10528e-08 -1.55156e-20 7.09345e-07 -1.92917e-21 7.32221e-07)
(7.52395e-07 8.83881e-08 1.23448e-21 6.95613e-07 1.71716e-22 7.23997e-07)
(7.48078e-07 8.5199e-08 -6.80764e-21 6.80735e-07 -7.35937e-22 7.14406e-07)
(7.41975e-07 8.14426e-08 1.57083e-20 6.64505e-07 1.70023e-21 7.0322e-07)
(7.33703e-07 7.71172e-08 1.05146e-20 6.46761e-07 1.41354e-21 6.90273e-07)
(7.22685e-07 7.19111e-08 -6.86735e-21 6.26472e-07 -7.68786e-22 6.74456e-07)
(7.08929e-07 6.63337e-08 -7.56781e-21 6.04947e-07 -9.43777e-22 6.57211e-07)
(6.92879e-07 5.89438e-08 -1.23787e-20 5.8002e-07 -1.31623e-21 6.35419e-07)
(6.81281e-07 8.25898e-08 -9.70282e-21 6.42421e-07 -1.1094e-21 6.61861e-07)
(6.78594e-07 8.03151e-08 1.11828e-21 6.30139e-07 1.73613e-22 6.54376e-07)
(6.74529e-07 7.75952e-08 2.36046e-20 6.16844e-07 2.63659e-21 6.45699e-07)
(6.68949e-07 7.43923e-08 -1.2627e-22 6.0237e-07 1.20037e-23 6.35646e-07)
(6.61524e-07 7.07056e-08 -1.80724e-20 5.86583e-07 -2.11807e-21 6.24089e-07)
(6.51686e-07 6.62575e-08 3.70553e-20 5.685e-07 4.22408e-21 6.09982e-07)
(6.39513e-07 6.14736e-08 -7.03552e-21 5.49319e-07 -8.57675e-22 5.94647e-07)
(6.25559e-07 5.51413e-08 2.31954e-20 5.27213e-07 2.6728e-21 5.75452e-07)
(6.22699e-07 7.57552e-08 -1.87176e-20 5.88736e-07 -2.14346e-21 6.0577e-07)
(6.20065e-07 7.37639e-08 2.01419e-20 5.77605e-07 2.34899e-21 5.98903e-07)
(6.16263e-07 7.13933e-08 -3.31617e-20 5.65615e-07 -3.9658e-21 5.9102e-07)
(6.11154e-07 6.86132e-08 8.53638e-21 5.52615e-07 9.96248e-22 5.81956e-07)
(6.04408e-07 6.5413e-08 1.07688e-20 5.38427e-07 1.26594e-21 5.71545e-07)
(5.95469e-07 6.15377e-08 9.48367e-21 5.221e-07 8.25659e-22 5.58793e-07)
(5.84455e-07 5.73668e-08 -2.9873e-20 5.04769e-07 -3.16597e-21 5.44966e-07)
(5.72912e-07 5.19283e-08 1.56761e-20 4.85611e-07 1.53177e-21 5.2858e-07)
(5.7403e-07 7.13103e-08 3.82617e-21 5.52148e-07 4.73033e-22 5.62944e-07)
(5.72315e-07 6.98761e-08 1.05768e-20 5.42649e-07 1.33405e-21 5.57406e-07)
(5.69244e-07 6.80537e-08 -4.17973e-21 5.31985e-07 -4.76041e-22 5.50545e-07)
(5.6525e-07 6.59122e-08 -6.52767e-21 5.20665e-07 -6.97453e-22 5.42874e-07)
(5.60244e-07 6.34358e-08 1.75089e-20 5.08603e-07 1.97513e-21 5.34306e-07)
(5.53825e-07 6.06064e-08 -1.06873e-20 4.95546e-07 -1.22915e-21 5.24598e-07)
(5.45535e-07 5.71971e-08 -3.53739e-20 4.80638e-07 -4.04566e-21 5.12866e-07)
(5.35177e-07 5.35094e-08 4.11091e-20 4.64632e-07 4.76624e-21 4.99965e-07)
(5.25022e-07 4.87799e-08 -2.25393e-20 4.47524e-07 -2.6349e-21 4.85323e-07)
(5.29693e-07 6.59407e-08 1.07537e-21 5.10558e-07 1.12921e-22 5.20112e-07)
(5.27642e-07 6.46196e-08 -3.2023e-21 5.01495e-07 -5.21023e-22 5.14705e-07)
(5.24284e-07 6.29332e-08 2.33204e-20 4.91256e-07 2.72225e-21 5.07973e-07)
(5.20102e-07 6.09478e-08 -1.28707e-20 4.80375e-07 -1.43198e-21 5.0045e-07)
(5.15021e-07 5.86633e-08 -9.05042e-21 4.68849e-07 -1.14551e-21 4.92134e-07)
(5.08663e-07 5.60674e-08 -4.22479e-21 4.56452e-07 -4.47492e-22 4.82807e-07)
(5.007e-07 5.2979e-08 3.00342e-20 4.42501e-07 3.52141e-21 4.71769e-07)
(4.91096e-07 4.96831e-08 -1.03036e-20 4.27806e-07 -1.01799e-21 4.59947e-07)
(4.82897e-07 4.56561e-08 -2.01036e-20 4.1325e-07 -2.43772e-21 4.47779e-07)
(4.82993e-07 6.03676e-08 -2.86483e-22 4.67632e-07 -2.96977e-23 4.74806e-07)
(4.80268e-07 5.91778e-08 -2.12127e-20 4.58936e-07 -2.56391e-21 4.69216e-07)
(4.76438e-07 5.76794e-08 -1.82082e-20 4.49194e-07 -2.13707e-21 4.62459e-07)
(4.71924e-07 5.59208e-08 6.46874e-21 4.38848e-07 8.07032e-22 4.54982e-07)
(4.66653e-07 5.39074e-08 -4.96508e-21 4.27933e-07 -6.26844e-22 4.46831e-07)
(4.60261e-07 5.16214e-08 1.21883e-20 4.16216e-07 1.54063e-21 4.37789e-07)
(4.52361e-07 4.88755e-08 -2.43804e-20 4.02952e-07 -3.16418e-21 4.27081e-07)
(4.42436e-07 4.58315e-08 7.58253e-20 3.88381e-07 8.9257e-21 4.14992e-07)
(4.32799e-07 4.20131e-08 -3.77803e-20 3.7303e-07 -4.35531e-21 4.01591e-07)
(4.45967e-07 5.57235e-08 -4.28878e-22 4.31442e-07 -9.75004e-24 4.39161e-07)
(4.43483e-07 5.46208e-08 -1.97518e-20 4.23432e-07 -2.29725e-21 4.34178e-07)
(4.39927e-07 5.32221e-08 4.16312e-20 4.14389e-07 4.92274e-21 4.28017e-07)
(4.3563e-07 5.15635e-08 2.53659e-21 4.04666e-07 3.07659e-22 4.21032e-07)
(4.30498e-07 4.96612e-08 -2.38763e-20 3.94338e-07 -2.66598e-21 4.13303e-07)
(4.24319e-07 4.75232e-08 2.78173e-20 3.83331e-07 3.14141e-21 4.0478e-07)
(4.16964e-07 4.50489e-08 -5.31798e-20 3.71262e-07 -6.19871e-21 3.9509e-07)
(4.08882e-07 4.24909e-08 4.88443e-20 3.59153e-07 5.43624e-21 3.85418e-07)
(4.03988e-07 3.96823e-08 -5.76261e-20 3.49034e-07 -6.41363e-21 3.77524e-07)
(3.92435e-07 4.94942e-08 5.01736e-21 3.84684e-07 6.02826e-22 3.86868e-07)
(3.88734e-07 4.85464e-08 1.39956e-20 3.76794e-07 1.7659e-21 3.81177e-07)
(3.8435e-07 4.73908e-08 -1.99681e-20 3.68145e-07 -2.49402e-21 3.74663e-07)
(3.79574e-07 4.6048e-08 -1.21367e-20 3.59015e-07 -1.51675e-21 3.67612e-07)
(3.74274e-07 4.45249e-08 5.92948e-20 3.4945e-07 7.10945e-21 3.60079e-07)
(3.6802e-07 4.27845e-08 -3.90635e-20 3.39124e-07 -4.50932e-21 3.51743e-07)
(3.60253e-07 4.06085e-08 -3.36153e-20 3.27064e-07 -3.90265e-21 3.41583e-07)
(3.4972e-07 3.79641e-08 1.25074e-20 3.12634e-07 1.27154e-21 3.28892e-07)
(3.38262e-07 3.45882e-08 2.04859e-20 2.96602e-07 2.53716e-21 3.14126e-07)
(3.77668e-07 4.70385e-08 2.78347e-21 3.64102e-07 3.11634e-22 3.7344e-07)
(3.75052e-07 4.60017e-08 4.68383e-21 3.56898e-07 5.47374e-22 3.68928e-07)
(3.71471e-07 4.47125e-08 -1.29555e-20 3.48765e-07 -1.45045e-21 3.63308e-07)
(3.67162e-07 4.31903e-08 9.03354e-22 3.3993e-07 1.17848e-22 3.56805e-07)