# p  FACE_DATA 300
# x y z  p
0.29787915 -0.05 0.060005454 11689.462
0.29366024 -0.05 0.059998184 11706.889
0.28948669 -0.05 0.059982824 11726.353
0.28535801 -0.05 0.05995956 11745.686
0.28127374 -0.05 0.05992843 11766.173
0.27723342 -0.05 0.059889544 11786.512
0.27323659 -0.05 0.059843055 11807.416
0.2692828 -0.05 0.059789027 11828.656
0.26537161 -0.05 0.059727601 11849.865
0.26150257 -0.05 0.05965892 11871.54
0.25767524 -0.05 0.059583046 11893.792
0.2538892 -0.05 0.059500074 11916.41
0.25014401 -0.05 0.059410118 11939.399
0.24643926 -0.05 0.059313284 11962.808
0.24277452 -0.05 0.059209674 11986.581
0.23914938 -0.05 0.059099387 12010.664
0.23556344 -0.05 0.058982537 12034.826
0.23201627 -0.05 0.058859254 12059.273
0.2285075 -0.05 0.058729541 12084.708
0.22503671 -0.05 0.058593532 12109.573
0.22160352 -0.05 0.058451379 12135.247
0.21820754 -0.05 0.058303115 12161.107
0.21484838 -0.05 0.058148846 12187.357
0.21152567 -0.05 0.05798866 12213.925
0.20823903 -0.05 0.057822651 12240.933
0.20498809 -0.05 0.057650874 12268.414
0.20177248 -0.05 0.057473468 12295.601
0.19859184 -0.05 0.057290478 12323.901
0.1954458 -0.05 0.057101994 12351.46
0.19233402 -0.05 0.056908168 12379.702
0.18925614 -0.05 0.056708999 12408.459
0.18621181 -0.05 0.056504563 12437.585
0.1832007 -0.05 0.056294919 12467.134
0.18022246 -0.05 0.05608023 12496.14
0.17727675 -0.05 0.055860526 12526.556
0.17436324 -0.05 0.055635849 12556.19
0.1714816 -0.05 0.055406376 12586.278
0.16863151 -0.05 0.055172052 12617.585
0.16581265 -0.05 0.054932944 12648.601
0.16302469 -0.05 0.054689208 12680.137
0.16026733 -0.05 0.054440898 12712.177
0.15754024 -0.05 0.054188056 12744.789
0.15484313 -0.05 0.053930725 12777.558
0.15217569 -0.05 0.053668978 12810.461
0.14953762 -0.05 0.053402889 12843.724
0.14692863 -0.05 0.053132457 12877.708
0.14434842 -0.05 0.052857799 12910.786
0.14179669 -0.05 0.052579044 12944.76
0.13927317 -0.05 0.05229612 12980.204
0.13677757 -0.05 0.052009061 13015.74
0.13430961 -0.05 0.051717985 13051.358
0.13186901 -0.05 0.051422994 13086.902
0.1294555 -0.05 0.05112408 13123.862
0.12706881 -0.05 0.050821224 13161.155
0.12470868 -0.05 0.050514504 13198.573
0.12237483 -0.05 0.05020403 13235.643
0.12006701 -0.05 0.049889836 13273.952
0.11778495 -0.05 0.049571874 13312.931
0.11552842 -0.05 0.049250263 13351.525
0.11329715 -0.05 0.048924992 13391.354
0.1110909 -0.05 0.048596121 13430.659
0.10890943 -0.05 0.048263656 13472.479
0.10675251 -0.05 0.047927554 13513.769
0.10461987 -0.05 0.047587958 13555.148
0.1025113 -0.05 0.047244937 13596.694
0.10042655 -0.05 0.046898432 13640.367
0.098365405 -0.05 0.046548446 13684.141
0.096327639 -0.05 0.046195043 13728.749
0.094313028 -0.05 0.045838237 13773.393
0.092321357 -0.05 0.045478019 13819.427
0.090352417 -0.05 0.04511438 13865.241
0.088405979 -0.05 0.044747421 13911.439
0.086481845 -0.05 0.044377096 13959.172
0.084579815 -0.05 0.044003384 14006.957
0.082699669 -0.05 0.043626385 14055.417
0.080841229 -0.05 0.043246005 14105.749
0.0790043 -0.05 0.042862236 14155.393
0.077188666 -0.05 0.0424752 14205.616
0.07539416 -0.05 0.04208479 14257.648
0.073620599 -0.05 0.041690997 14309.732
0.071867788 -0.05 0.041293877 14363.554
0.070135557 -0.05 0.040893384 14418.751
0.068423743 -0.05 0.040489458 14475.18
0.066732169 -0.05 0.040082112 14530.954
0.065060663 -0.05 0.039671361 14588.084
0.063409062 -0.05 0.039257174 14646.098
0.061777219 -0.05 0.038839488 14706.377
0.060164984 -0.05 0.038418265 14766.956
0.058572196 -0.05 0.037993513 14829.153
0.056998721 -0.05 0.037565159 14892.48
0.055444419 -0.05 0.03713316 14956.678
0.053909142 -0.05 0.036697516 15021.549
0.052392764 -0.05 0.03625817 15089.401
0.050895177 -0.05 0.035815009 15159.441
0.049416244 -0.05 0.035368033 15230.253
0.047955856 -0.05 0.034917167 15301.891
0.046513915 -0.05 0.034462309 15373.601
0.045090302 -0.05 0.034003445 15448.127
0.043684931 -0.05 0.033540468 15527.575
0.042297731 -0.05 0.03307324 15610.023
0.040928604 -0.05 0.032601734 15694.297
0.039577476 -0.05 0.032125845 15782.204
0.038244291 -0.05 0.03164545 15872.257
0.036928981 -0.05 0.031160474 15965.339
0.0356315 -0.05 0.030670795 16061.855
0.03435181 -0.05 0.030176299 16164.52
0.033089918 -0.05 0.029676761 16277.712
0.031845783 -0.05 0.029172106 16400.323
0.030619394 -0.05 0.02866221 16532.715
0.029410776 -0.05 0.028146878 16670.623
0.028219949 -0.05 0.027625962 16819.064
0.027046957 -0.05 0.027099267 16975.509
0.025891857 -0.05 0.026566614 17136.315
0.02475474 -0.05 0.026027768 17300.189
0.023635681 -0.05 0.025482558 17469.282
0.022534817 -0.05 0.024930717 17644.683
0.021452274 -0.05 0.024372036 17824.457
0.020388213 -0.05 0.023806274 18010.486
0.019342865 -0.05 0.023233111 18202.369
0.018316468 -0.05 0.022652259 18404.19
0.017309264 -0.05 0.02206346 18620.125
0.016321577 -0.05 0.021466368 18852.322
0.015353757 -0.05 0.020860645 19094.285
0.014406156 -0.05 0.020245997 19347.987
0.013479274 -0.05 0.019622013 19615.183
0.012573638 -0.05 0.018988323 19899.841
0.0116898 -0.05 0.018344552 20209.095
0.010828378 -0.05 0.017690314 20546.718
0.0099901249 -0.05 0.017025149 20910.381
0.0091759198 -0.05 0.016348644 21295.397
0.008386597 -0.05 0.0156605 21705.05
0.0076231725 -0.05 0.014960218 22141.722
0.0068867853 -0.05 0.014247452 22603.029
0.0061787359 -0.05 0.013521944 23096.366
0.0055003792 -0.05 0.012783302 23620.358
0.0048530826 -0.05 0.012031363 24176.95
0.0042385571 -0.05 0.011266143 24774.684
0.0036585397 -0.05 0.010487553 25416.123
0.0031148319 -0.05 0.0096957287 26091.987
0.0026094399 -0.05 0.0088912322 26795.364
0.0021442246 -0.05 0.0080745628 27522.258
0.0017210465 -0.05 0.0072465895 28268.118
0.0013418093 -0.05 0.0064087151 29031.466
0.0010080919 -0.05 0.0055623679 29798.326
0.00072127228 -0.05 0.0047092571 30556.706
0.00048251081 -0.05 0.0038515496 31299.314
0.00029236329 -0.05 0.0029916287 32009.248
0.0001508317 -0.05 0.0021320102 32670.677
5.7495879e-05 -0.05 0.0012752716 33274.902
1.1394864e-05 -0.05 0.00042397109 33816.522
0.99768066 -0.05 0.00033611804 26524.323
0.99304169 -0.05 0.0010063364 26492.129
0.98840215 -0.05 0.0016726212 26431.016
0.98376207 -0.05 0.0023350721 26377.198
0.97912143 -0.05 0.0029936636 26320.863
0.97448026 -0.05 0.00364841 26265.526
0.96983855 -0.05 0.0042993733 26209.977
0.96519632 -0.05 0.0049465845 26154.627
0.96055356 -0.05 0.0055900577 26099.326
0.95591031 -0.05 0.0062298653 26044.088
0.95126654 -0.05 0.0068660327 25988.968
0.94662227 -0.05 0.0074985225 25933.982
0.94197753 -0.05 0.0081274235 25879.104
0.9373323 -0.05 0.008752761 25824.427
0.93268659 -0.05 0.0093745713 25769.881
0.92804042 -0.05 0.0099928964 25715.568
0.92339378 -0.05 0.010607714 25661.489
0.91874669 -0.05 0.011219031 25607.678
0.91409914 -0.05 0.011826962 25554.031
0.90945116 -0.05 0.012431486 25500.769
0.90480273 -0.05 0.013032571 25447.722
0.90015387 -0.05 0.013630361 25394.966
0.89550457 -0.05 0.014224739 25342.646
0.89085486 -0.05 0.014815813 25290.479
0.88620473 -0.05 0.01540363 25238.794
0.88155418 -0.05 0.0159881 25187.404
0.87690323 -0.05 0.016569356 25136.324
0.87225187 -0.05 0.017147383 25085.611
0.86760011 -0.05 0.017722168 25035.241
0.86294796 -0.05 0.018293719 24985.238
0.85829541 -0.05 0.018862095 24935.521
0.85364248 -0.05 0.019427289 24886.218
0.84898916 -0.05 0.01998931 24837.177
0.84433547 -0.05 0.020548224 24788.508
0.83968139 -0.05 0.021103928 24740.292
0.83502695 -0.05 0.021656533 24692.242
0.83037214 -0.05 0.022206072 24644.635
0.82571697 -0.05 0.022752481 24597.295
0.82106143 -0.05 0.023295768 24550.375
0.81640552 -0.05 0.023835961 24503.656
0.81174928 -0.05 0.024373126 24457.242
0.80709266 -0.05 0.024907211 24411.095
0.80243571 -0.05 0.025438235 24365.218
0.7977784 -0.05 0.025966147 24319.719
0.79312074 -0.05 0.026490982 24274.378
0.78846275 -0.05 0.027012845 24229.234
0.78380442 -0.05 0.027531686 24184.371
0.77914574 -0.05 0.028047403 24139.828
0.77448674 -0.05 0.028560079 24095.351
0.7698274 -0.05 0.029069753 24051.139
0.76516772 -0.05 0.02957633 24007.121
0.7605077 -0.05 0.030079852 23963.216
0.75584737 -0.05 0.030580367 23919.374
0.75118671 -0.05 0.03107785 23875.651
0.74652573 -0.05 0.031572241 23832.033
0.74186441 -0.05 0.032063551 23788.459
0.73720278 -0.05 0.032551782 23744.927
0.73254082 -0.05 0.03303698 23701.323
0.72787854 -0.05 0.033519069 23657.82
0.72321595 -0.05 0.033998064 23614.096
0.71855304 -0.05 0.034473962 23570.43
0.71388981 -0.05 0.03494667 23526.58
0.70922626 -0.05 0.035416302 23482.466
0.7045624 -0.05 0.035882849 23438.091
0.69989823 -0.05 0.036346252 23393.399
0.69523375 -0.05 0.036806454 23348.398
0.69056894 -0.05 0.037263403 23302.982
0.68590382 -0.05 0.037717206 23256.953
0.68123839 -0.05 0.038167801 23210.509
0.67657265 -0.05 0.038615123 23163.327
0.67190661 -0.05 0.039059237 23115.421
0.66724025 -0.05 0.039500049 23066.729
0.66257357 -0.05 0.039937521 23017.097
0.6579066 -0.05 0.040371712 22966.354
0.65323931 -0.05 0.040802591 22914.466
0.64857171 -0.05 0.041230085 22861.268
0.6439038 -0.05 0.041654149 22806.669
0.63923558 -0.05 0.042074786 22750.457
0.63456705 -0.05 0.042492 22692.559
0.62989822 -0.05 0.042905734 22632.803
0.62522907 -0.05 0.043315943 22571.046
0.6205596 -0.05 0.043722625 22507.076
0.61588983 -0.05 0.044125719 22440.778
0.61121975 -0.05 0.044525219 22371.876
0.60654937 -0.05 0.044921074 22300.33
0.60187867 -0.05 0.045313219 22225.84
0.59720766 -0.05 0.045701683 22148.284
0.59253634 -0.05 0.046086399 22067.493
0.58786471 -0.05 0.046467288 21983.281
0.58319277 -0.05 0.046844345 21895.423
0.57852051 -0.05 0.047217535 21803.929
0.57384795 -0.05 0.047586814 21708.71
0.56917507 -0.05 0.047952124 21609.661
0.56450189 -0.05 0.048313436 21506.543
0.55982839 -0.05 0.048670677 21399.331
0.55515457 -0.05 0.04902381 21288.025
0.55048045 -0.05 0.04937281 21172.799
0.54580601 -0.05 0.04971755 21053.397
0.54113126 -0.05 0.050058049 20929.831
0.5364562 -0.05 0.050394263 20802.187
0.53178083 -0.05 0.050726133 20670.57
0.52710515 -0.05 0.051053569 20535.244
0.52242915 -0.05 0.051376464 20396.139
0.51775284 -0.05 0.051694815 20253.588
0.51307623 -0.05 0.052008601 20108.221
0.5083993 -0.05 0.052317708 19960.1
0.50372205 -0.05 0.052622097 19809.011
0.4990445 -0.05 0.052921701 19654.8
0.49436664 -0.05 0.053216429 19497.462
0.48968848 -0.05 0.053506199 19337.583
0.48501001 -0.05 0.053790938 19176.134
0.48033122 -0.05 0.054070626 19014.389
0.47565213 -0.05 0.05434516 18853.599
0.47097274 -0.05 0.054614471 18694.843
0.46629305 -0.05 0.054878504 18538.445
0.46161306 -0.05 0.055137129 18382.95
0.45693276 -0.05 0.055390258 18225.462
0.45225217 -0.05 0.05563783 18056.265
0.44757129 -0.05 0.055879797 17853.051
0.44289011 -0.05 0.056116052 17595.721
0.43820865 -0.05 0.05634646 17278.527
0.43352689 -0.05 0.056570934 16740.511
0.42884485 -0.05 0.056789428 15671.862
0.42416254 -0.05 0.057001839 14251.752
0.41947995 -0.05 0.057208045 13012.102
0.41479707 -0.05 0.057407955 12202.685
0.41011393 -0.05 0.057601449 11793.199
0.40543053 -0.05 0.057788457 11581.519
0.40074687 -0.05 0.057968848 11491.769
0.39606296 -0.05 0.058142512 11450.127
0.3913788 -0.05 0.05830933 11434.433
0.38669439 -0.05 0.058469176 11429.724
0.38200975 -0.05 0.058621944 11429.323
0.37732488 -0.05 0.058767528 11434.596
0.37263978 -0.05 0.058905769 11443.139
0.36795448 -0.05 0.059036526 11453.244
0.36326896 -0.05 0.059159727 11464.351
0.35858325 -0.05 0.059275201 11476.434
0.35389736 -0.05 0.059382803 11489
0.34921128 -0.05 0.05948244 11502.115
0.34452504 -0.05 0.059573923 11516.2
0.33983865 -0.05 0.059657062 11530.783
0.33515211 -0.05 0.059731741 11545.81
0.33046544 -0.05 0.059797856 11561.191
0.32577866 -0.05 0.059855197 11577.66
0.32109177 -0.05 0.059903555 11594.492
0.31640481 -0.05 0.059942821 11611.83
0.31171778 -0.05 0.059972784 11629.483
0.30703069 -0.05 0.059993273 11647.767
0.30234357 -0.05 0.060004087 11668.437
