/*--------------------------------*- C++ -*----------------------------------*\
| =========                 |                                                 |
| \\      /  F ield         | OpenFOAM: The Open Source CFD Toolbox           |
|  \\    /   O peration     | Version:  2306                                  |
|   \\  /    A nd           | Website:  www.openfoam.com                      |
|    \\/     M anipulation  |                                                 |
\*---------------------------------------------------------------------------*/
FoamFile
{
    version     2.0;
    format      ascii;
    arch        "LSB;label=32;scalar=64";
    class       volSymmTensorField;
    location    "800";
    object      turbulenceProperties:R;
}
// * * * * * * * * * * * * * * * * * * * * * * * * * * * * * * * * * * * * * //

dimensions      [0 2 -2 0 0 0 0];

internalField   nonuniform List<symmTensor> 
10720
(
(0.0144987 0.00306874 -6.84735e-22 0.0120404 -1.6136e-20 0.0134172)
(0.0172866 0.00364567 -9.29626e-23 0.0136447 1.04863e-19 0.0155754)
(0.0210786 0.00423414 -2.14381e-20 0.0153257 -3.37288e-19 0.0184316)
(0.0262504 0.00499593 9.57184e-20 0.0176186 7.06455e-19 0.0222311)
(0.0326216 0.00571449 -1.87824e-19 0.0200522 -6.93568e-19 0.0266719)
(0.0409538 0.00622485 -1.47709e-19 0.0227818 -3.86291e-19 0.0323711)
(0.051733 0.00649515 2.87122e-19 0.0261171 1.10314e-18 0.0395674)
(0.0651914 0.00618101 -7.49143e-19 0.0300846 -2.03779e-18 0.0484255)
(0.0821902 0.0049164 -1.89717e-19 0.035131 5.55269e-19 0.0596894)
(0.10357 0.00243289 5.72954e-19 0.0419321 1.17571e-18 0.0740118)
(0.130614 -0.00179553 1.4945e-18 0.0513613 5.46519e-19 0.0925367)
(0.165468 -0.00835549 -3.39844e-18 0.0647917 -3.1563e-18 0.117021)
(0.211089 -0.0181758 6.49696e-19 0.0840949 8.38587e-19 0.1499)
(0.272353 -0.032849 2.6147e-18 0.112291 1.23916e-18 0.195176)
(0.357552 -0.0550344 -3.9951e-18 0.154536 -6.2408e-18 0.259668)
(0.479504 -0.0890629 -4.30058e-18 0.21919 -2.54665e-18 0.354038)
(0.663284 -0.143543 1.90117e-17 0.322813 1.76039e-17 0.499441)
(0.940196 -0.230775 1.7732e-17 0.488982 3.35506e-17 0.723347)
(1.41739 -0.38714 -3.52288e-17 0.789748 -5.46082e-17 1.11644)
(2.14075 -0.639966 -1.37397e-18 1.27809 1.45134e-17 1.72763)
(3.75086 -1.21246 -2.71841e-17 2.39979 5.19724e-17 3.10437)
(6.10107 -2.11296 -1.24325e-17 4.18523 4.18538e-17 5.18229)
(13.8364 -5.12759 -1.43109e-16 10.2538 -6.41753e-16 12.1233)
(25.9897 -10.3102 3.31401e-16 21.0498 5.5887e-16 23.6447)
(27.6372 -11.6464 4.23695e-17 24.5398 -7.12282e-16 26.1501)
(25.5067 -11.2291 3.65786e-16 24.4655 5.81056e-16 24.969)
(24.4041 -11.0462 -8.18272e-17 24.7255 -7.842e-17 24.5202)
(24.3358 -11.2298 2.745e-16 25.6902 2.30521e-16 24.976)
(24.4207 -11.4435 7.29097e-16 26.7093 1.20847e-15 25.5405)
(24.1242 -11.4552 4.00559e-16 27.2756 1.99767e-15 25.6875)
(23.3959 -11.24 -1.41144e-15 27.3094 -1.9315e-15 25.3553)
(22.3226 -10.8333 -4.7485e-16 26.8588 -7.2614e-16 24.6065)
(20.8797 -10.2199 -3.23527e-17 25.8516 -4.36802e-15 23.3881)
(19.0953 -9.41337 -2.58301e-15 24.29 -7.29942e-15 21.7157)
(16.9509 -8.40535 1.00626e-15 22.1151 9.23159e-16 19.5543)
(14.5077 -7.22679 1.21992e-15 19.3672 1.14384e-15 16.954)
(11.3442 -5.67322 -1.22393e-16 15.4787 -5.25044e-16 13.4316)
(8.33038 -4.17139 -1.51849e-15 11.5017 -2.43755e-17 9.91859)
(1.83923 -0.92658 -1.88569e-16 2.78507 -1.9028e-15 2.31096)
(0.0120301 0.00257345 1.65925e-21 0.0106522 3.85337e-20 0.0113951)
(0.0101308 0.00212441 -2.3732e-21 0.00934047 1.70677e-23 0.00982536)
(0.00808313 0.00164666 -1.23391e-20 0.00782729 -8.64904e-20 0.00799973)
(0.00638588 0.00123967 2.95488e-21 0.00644522 5.55273e-20 0.00644592)
(0.0048637 0.000879183 2.15763e-21 0.00505102 -1.00496e-20 0.00497246)
(0.00355262 0.00058671 -1.7019e-20 0.00372635 5.57118e-20 0.00363918)
(0.00253013 0.000377466 -9.14019e-20 0.00261695 7.35651e-20 0.0025572)
(0.00194574 0.000261405 5.73459e-20 0.00191625 -2.26473e-20 0.00190778)
(0.00211346 0.000277939 1.01429e-19 0.00191824 -5.13045e-20 0.00199813)
(0.00295784 0.000385224 -8.01635e-20 0.0024703 2.02626e-20 0.00271151)
(0.00451443 0.000623822 -2.35967e-20 0.00352083 1.11287e-19 0.00402733)
(0.0069353 0.00109498 1.74296e-19 0.00509623 7.25001e-20 0.00603462)
(0.010512 0.00197148 3.5865e-19 0.0073282 -5.58414e-20 0.00895543)
(0.0156729 0.00349525 -6.87696e-21 0.0104664 -2.18647e-19 0.0131347)
(0.0229295 0.00591752 -7.1646e-20 0.0148956 -1.54513e-19 0.0190127)
(0.0330184 0.00952974 2.48019e-20 0.0213044 -5.36569e-20 0.0273117)
(0.0472599 0.0147525 -1.86026e-19 0.0308193 6.32301e-19 0.0392459)
(0.0681598 0.0224734 7.12236e-19 0.0454428 2.64746e-19 0.0570865)
(0.100399 0.0344354 3.18637e-19 0.0687664 -1.18362e-18 0.0849737)
(0.152284 0.0539241 -1.29505e-18 0.107411 -3.39672e-19 0.130422)
(0.240272 0.0874854 -4.38415e-18 0.174648 -2.00334e-18 0.208335)
(0.393913 0.147341 -3.32819e-18 0.29558 -8.90075e-19 0.346204)
(0.682853 0.262513 6.19829e-18 0.530388 -5.76126e-19 0.609275)
(1.22834 0.486478 -7.4472e-18 0.992769 1.2049e-18 1.116)
(2.39607 0.978114 4.06399e-18 2.02224 -7.21415e-18 2.22091)
(4.80349 2.01626 -1.26329e-16 4.23162 2.61477e-18 4.5421)
(10.5254 4.53133 -7.83001e-17 9.6671 1.22951e-17 10.1539)
(21.265 9.36762 6.59154e-17 20.3425 8.24693e-19 20.9242)
(29.545 13.2906 8.69751e-18 29.4246 -1.2564e-19 29.641)
(32.6387 14.9584 6.2853e-17 33.7977 4.36117e-19 33.3657)
(33.0578 15.3972 -4.37144e-16 35.511 -4.8946e-18 34.4078)
(32.6456 15.4171 1.57295e-16 36.2844 2.09269e-17 34.566)
(31.9228 15.2549 -1.88886e-15 36.6213 -1.53183e-16 34.3557)
(30.9818 14.9549 -3.45824e-15 36.6007 -2.36976e-16 33.8616)
(29.8496 14.5327 1.05836e-15 36.2458 1.08371e-16 33.1081)
(28.5629 14.0096 1.0245e-15 35.6023 1.64274e-16 32.1355)
(26.9098 13.2866 1.45041e-15 34.4276 2.66657e-16 30.7168)
(25.1172 12.4694 -2.90366e-16 32.9255 -3.67408e-17 29.0663)
(20.143 10.0655 -4.55423e-15 27.4161 -7.84125e-16 23.7894)
(0.00226707 -0.000155249 4.14165e-23 0.00189643 1.34947e-21 0.00205172)
(0.00222406 -0.000181973 9.65227e-21 0.00191883 2.33896e-20 0.00203798)
(0.00215863 -0.000204454 -8.83522e-21 0.0019412 -1.55767e-20 0.00201037)
(0.00205931 -0.00021172 -5.88762e-21 0.0019265 -1.67695e-20 0.00194814)
(0.00192972 -0.000206755 3.91872e-20 0.00187662 7.60562e-20 0.00185481)
(0.00178982 -0.00019331 1.50776e-20 0.00180978 2.33914e-20 0.00174787)
(0.00164015 -0.000173016 7.08532e-20 0.00171467 6.50922e-20 0.00162238)
(0.00148395 -0.000149084 -3.63229e-20 0.00159447 -6.98999e-21 0.00148233)
(0.00133653 -0.000125537 5.11405e-20 0.001468 3.54371e-20 0.00134398)
(0.00119891 -0.000104531 -1.82199e-21 0.00133681 7.77954e-23 0.00120848)
(0.00107268 -8.69447e-05 -6.96685e-20 0.00120611 -5.95212e-20 0.00107993)
(0.000987018 -7.80233e-05 9.33782e-20 0.00111434 1.16246e-19 0.000989111)
(0.000976209 -8.3716e-05 6.53834e-20 0.0011064 3.28555e-20 0.000969183)
(0.00107581 -0.000114016 -1.70902e-20 0.00122303 9.26944e-21 0.00104862)
(0.00141247 -0.000214139 -1.40973e-19 0.00159268 2.32059e-20 0.00132275)
(0.00229544 -0.000517912 3.75391e-19 0.00244941 4.29574e-19 0.00199404)
(0.00462255 -0.00138355 7.64234e-19 0.00434272 -8.35685e-19 0.00368193)
(0.0101292 -0.00334422 -4.16373e-18 0.00824331 -5.39677e-18 0.00776869)
(0.0249763 -0.00840505 4.9018e-19 0.0184444 7.23175e-18 0.0192867)
(0.0614192 -0.0207822 7.24227e-18 0.0433584 -2.03392e-18 0.0485813)
(0.180764 -0.0621702 1.53974e-17 0.126523 6.10186e-18 0.147067)
(0.491891 -0.174087 -2.34841e-17 0.350455 -2.24884e-17 0.411879)
(1.47992 -0.545439 7.42444e-17 1.09734 1.87398e-16 1.27694)
(4.61923 -1.78229 1.58214e-19 3.61387 -1.54567e-16 4.11244)
(8.79407 -3.54021 -2.72809e-16 7.2752 1.69359e-16 8.07024)
(12.8965 -5.38644 -9.70654e-17 11.2647 -6.5908e-16 12.1621)
(16.5415 -7.14284 1.1774e-18 15.2632 7.56274e-17 16.0099)
(18.8592 -8.39037 -2.94456e-16 18.3749 -4.44658e-16 18.7301)
(18.9017 -8.63417 -4.93668e-16 19.4268 -2.83265e-15 19.263)
(16.9076 -7.8966 -1.67041e-16 18.2808 -3.54693e-15 17.6558)
(14.081 -6.69159 5.22974e-16 15.9353 4.89701e-15 15.0206)
(11.3791 -5.47791 -9.55241e-16 13.394 -3.7573e-17 12.3592)
(9.25573 -4.49819 -7.18894e-15 11.2545 1.34203e-15 10.2104)
(7.67124 -3.75339 8.77191e-15 9.5626 1.59514e-14 8.57245)
(6.47987 -3.18629 -1.48861e-15 8.23153 -8.63718e-16 7.31968)
(5.56401 -2.74336 3.42251e-15 7.14761 -4.99302e-15 6.32508)
(4.9171 -2.43213 -1.50351e-15 6.39215 1.52294e-15 5.63457)
(4.36043 -2.13693 3.24903e-15 5.5164 4.02242e-16 4.88548)
(4.49708 -2.25502 5.36251e-15 5.98255 7.29083e-15 5.37324)
(0.00227291 -0.000117567 3.19295e-21 0.00184999 7.89803e-21 0.00203578)
(0.00226157 -7.76372e-05 -4.39124e-21 0.00180466 -3.31924e-20 0.00200878)
(0.00221 -2.67194e-05 -6.52089e-21 0.0017391 -3.88994e-20 0.00195513)
(0.00211612 3.07932e-05 -2.5306e-21 0.00166073 5.87262e-20 0.00187426)
(0.00197222 8.48925e-05 6.95055e-22 0.00156958 1.5678e-20 0.00176326)
(0.00177352 0.0001278 1.38547e-20 0.00146038 -5.32127e-20 0.00161494)
(0.00153865 0.000150826 2.61012e-20 0.00133586 -8.34672e-20 0.00143915)
(0.00131418 0.000152955 -1.19466e-19 0.0012122 3.15463e-21 0.0012683)
(0.00111353 0.000139696 1.82433e-20 0.00109252 8.08317e-20 0.00110891)
(0.000921924 0.000116357 4.57786e-22 0.000968416 -4.75427e-20 0.000948604)
(0.000751498 8.77025e-05 -2.9975e-20 0.000839678 -2.84207e-20 0.000794821)
(0.000614981 6.18778e-05 -2.10391e-20 0.000717194 -2.97617e-20 0.000661715)
(0.000506782 4.21461e-05 -3.79577e-21 0.000605966 6.32184e-21 0.000549866)
(0.000418993 2.82119e-05 1.2222e-20 0.000507055 3.28891e-20 0.000455565)
(0.000346715 1.88844e-05 2.00767e-20 0.000420698 7.75652e-21 0.00037605)
(0.000286783 1.28387e-05 -2.68799e-20 0.000346638 -1.37109e-21 0.000309375)
(0.000236368 8.97551e-06 2.22335e-20 0.000283086 2.29652e-21 0.000253106)
(0.000193789 6.45644e-06 -2.36636e-21 0.000228972 -6.93829e-21 0.000205738)
(0.000156382 4.6166e-06 -6.86641e-21 0.000181427 1.09234e-20 0.000164439)
(0.000121922 3.10752e-06 -4.01242e-21 0.000138142 4.36762e-21 0.000126849)
(8.72589e-05 1.73924e-06 -6.01328e-21 9.58644e-05 6.76494e-21 8.97092e-05)
(5.2449e-05 6.64627e-07 -3.52391e-21 5.55803e-05 1.82815e-21 5.32733e-05)
(1.84808e-05 8.35043e-08 -6.7691e-22 1.88622e-05 5.83193e-23 1.85706e-05)
(3.03589e-06 2.27618e-09 8.24157e-24 3.04578e-06 7.82698e-25 3.03783e-06)
(7.72723e-06 1.6052e-08 -3.71436e-24 7.78701e-06 5.09327e-24 7.73608e-06)
(0.000851212 0.000192921 4.75926e-19 0.00142944 1.24497e-19 0.000910855)
(0.00451846 0.00133222 2.64766e-18 0.00782256 -1.89065e-19 0.00474153)
(0.0372391 0.0119653 1.08094e-18 0.062099 -4.50427e-19 0.0383237)
(0.128092 0.0458989 -7.53606e-19 0.204224 1.03146e-19 0.130584)
(0.256255 0.102681 4.9628e-17 0.386153 2.01533e-18 0.261143)
(0.390996 0.170639 4.02562e-16 0.554229 9.71987e-18 0.401641)
(0.512551 0.2352 2.39491e-16 0.689727 1.31149e-17 0.533271)
(0.614425 0.289336 1.76218e-15 0.799432 1.20924e-16 0.648434)
(0.701294 0.334889 2.54436e-15 0.897991 1.69262e-16 0.750521)
(0.778819 0.375321 -5.70497e-16 0.995063 -9.71615e-17 0.844991)
(0.856921 0.415506 -4.90903e-16 1.09894 -8.61426e-17 0.940203)
(0.934338 0.456126 -1.22502e-15 1.21466 -5.15043e-16 1.04032)
(1.13397 0.55225 -2.52489e-15 1.45542 -3.45191e-18 1.25442)
(1.5742 0.775673 -2.03891e-15 1.97926 1.35835e-15 1.79203)
(0.00151784 -0.000120502 6.64821e-22 0.00125059 9.19758e-22 0.00139946)
(0.00147803 -0.000143657 -1.0533e-20 0.00126633 -2.55916e-20 0.00139063)
(0.00140943 -0.000159865 -2.32742e-21 0.00127072 -1.17245e-21 0.0013616)
(0.0013199 -0.000165123 8.82558e-21 0.00126219 1.90636e-20 0.00131711)
(0.00122892 -0.000160346 -2.79862e-20 0.00125142 -5.69224e-20 0.00126979)
(0.0011352 -0.000144947 -3.19398e-20 0.00123354 -5.23477e-20 0.00121757)
(0.00104698 -0.000120401 -6.4951e-20 0.00120871 -9.60033e-20 0.00116503)
(0.000973122 -9.03613e-05 -5.24979e-21 0.00118112 -7.80402e-22 0.00111757)
(0.000915121 -5.71727e-05 -2.87274e-20 0.00115183 -6.8414e-20 0.0010768)
(0.000875398 -2.4135e-05 1.20772e-19 0.00112359 1.37431e-19 0.00104541)
(0.000850745 6.58749e-06 -1.98841e-20 0.00109582 2.70453e-20 0.001021)
(0.000842039 3.35385e-05 1.36418e-20 0.00107454 8.39403e-21 0.00100687)
(0.000846791 5.60633e-05 -9.39943e-20 0.00106206 -1.19631e-19 0.00100261)
(0.000864148 7.53486e-05 6.12926e-20 0.00106204 -5.69014e-21 0.00101031)
(0.000878241 8.92816e-05 1.78116e-20 0.00105603 5.52735e-20 0.0010115)
(0.000863903 9.31605e-05 2.09385e-20 0.00101396 1.00492e-20 0.00097711)
(0.000751111 7.33397e-05 -7.77289e-20 0.000850254 -4.52711e-20 0.000825755)
(0.000646666 5.63371e-05 5.25434e-20 0.000712869 3.91675e-20 0.000695812)
(1.24572e-05 2.06076e-08 6.18344e-24 1.24789e-05 8.08014e-26 1.24729e-05)
(0.000897693 0.000127283 -1.63299e-19 0.00102293 -2.45685e-20 0.000984302)
(0.000214267 8.30083e-06 1.25954e-20 0.000222127 -4.94664e-21 0.000219404)
(0.000749589 0.000164218 9.14515e-21 0.000904921 1.56795e-19 0.000843523)
(2.88514e-05 1.33968e-06 5.19517e-21 3.12753e-05 -7.67309e-21 2.99445e-05)
(0.0125421 -0.00488986 -2.38383e-18 0.0101702 -2.54724e-18 0.0109743)
(0.134914 -0.0539785 4.46882e-18 0.112325 1.57766e-17 0.120871)
(0.466987 -0.193233 -2.85503e-17 0.406793 7.81241e-18 0.430638)
(1.15737 -0.494049 1.48391e-17 1.0563 1.15301e-18 1.09773)
(2.54144 -1.11324 -1.42952e-17 2.421 7.63287e-17 2.47036)
(4.91728 -2.20127 -4.40587e-16 4.87356 2.46344e-16 4.8852)
(7.95872 -3.63343 2.1709e-16 8.20211 3.53389e-16 8.07561)
(10.5694 -4.91555 1.56402e-15 11.3392 -5.86906e-16 10.9621)
(11.6793 -5.52478 -2.765e-15 13.0489 2.16252e-15 12.3857)
(11.1882 -5.36761 5.13783e-16 12.9838 9.32757e-15 12.1096)
(9.87558 -4.78735 -4.86474e-17 11.8335 -6.3675e-15 10.8672)
(8.45599 -4.12831 3.05748e-15 10.3843 -2.30076e-15 9.42237)
(7.19247 -3.52372 -1.43656e-14 8.95249 5.20334e-16 8.06801)
(6.21471 -3.0534 4.95806e-15 7.81097 -1.62559e-15 7.01422)
(5.27467 -2.55634 5.13598e-15 6.3537 -1.52179e-15 5.79006)
(5.68021 -2.8145 -1.00215e-14 7.34997 2.90305e-15 6.54209)
(0.0015522 -9.11044e-05 -1.3629e-21 0.00123878 -2.59439e-21 0.00140939)
(0.00156568 -5.92718e-05 -5.15643e-21 0.0012237 -7.29603e-21 0.00140584)
(0.0015711 -2.04301e-05 2.13536e-20 0.00121257 4.60391e-20 0.00140042)
(0.00154388 2.08073e-05 4.37932e-21 0.00119225 -5.18725e-21 0.00137349)
(0.00148458 6.12863e-05 3.01557e-21 0.00116497 -3.39741e-20 0.00132791)
(0.00138226 9.45468e-05 -9.39708e-21 0.0011207 2.42904e-20 0.00125262)
(0.0012428 0.000115289 9.03947e-21 0.00105709 5.48267e-20 0.00114977)
(0.00108704 0.000121546 5.94068e-20 0.000979563 6.37737e-20 0.00103372)
(0.000943522 0.000117563 2.02112e-20 0.00090637 -5.07552e-20 0.000925779)
(0.000803107 0.000104287 4.50908e-20 0.000824285 2.67233e-20 0.000814299)
(0.000664137 8.4454e-05 -3.18647e-20 0.000723572 8.18943e-21 0.000694615)
(0.00053886 6.38434e-05 -4.60992e-21 0.00061641 2.70063e-20 0.000579072)
(0.000432621 4.57751e-05 2.01702e-21 0.000514431 -2.4334e-20 0.000475864)
(0.000344876 3.11657e-05 4.36091e-20 0.000422742 -3.07e-20 0.000387132)
(0.000274804 2.00997e-05 3.30651e-21 0.000344661 -4.84102e-21 0.000313888)
(0.000219731 1.20344e-05 -4.90924e-21 0.000280097 2.02968e-20 0.000254777)
(0.000177755 6.39073e-06 3.15943e-20 0.000228859 -3.73209e-20 0.000208692)
(0.000146505 2.47152e-06 5.1639e-21 0.000189416 4.53525e-21 0.000173738)
(0.000124168 -3.00162e-07 3.68392e-20 0.000160366 -2.57637e-21 0.000148286)
(0.000108451 -2.4142e-06 3.96673e-20 0.000139158 8.8875e-21 0.000130017)
(9.79625e-05 -4.16495e-06 1.02386e-19 0.000124202 -1.35247e-20 0.000117436)
(9.16474e-05 -5.84954e-06 1.33983e-19 0.000113942 -2.02683e-20 0.000109335)
(8.90451e-05 -7.67574e-06 8.09271e-20 0.000107317 7.01065e-21 0.000105007)
(8.91713e-05 -9.44682e-06 1.89348e-20 0.000101838 -3.8724e-21 0.000102932)
(9.23409e-05 -1.05781e-05 -2.07361e-20 9.77672e-05 1.00153e-20 0.000103493)
(9.52338e-05 -1.00466e-05 7.57194e-20 9.33031e-05 -1.23043e-20 0.000103183)
(0.000104346 -9.47634e-06 -2.05287e-20 9.5862e-05 -1.99765e-21 0.000110096)
(6.26067e-05 -2.75253e-06 -6.24721e-21 5.80043e-05 1.28793e-22 6.39406e-05)
(0.000474076 -6.5547e-05 2.46681e-20 0.000295503 -7.75883e-22 0.000501947)
(0.00325925 -0.000272184 -1.42217e-18 0.0016856 -5.38192e-20 0.00340789)
(0.00933505 0.000424193 -8.62163e-18 0.00467943 -7.86187e-20 0.00965406)
(0.0187835 0.00468283 -5.47629e-17 0.011265 -3.17626e-18 0.0193705)
(0.0386039 0.0154365 -1.34236e-16 0.0316806 -4.43177e-18 0.0399562)
(0.0759817 0.0342755 -3.33925e-16 0.0747631 -2.28643e-17 0.0792583)
(0.130181 0.0608382 -8.54766e-16 0.139685 -7.65153e-17 0.13725)
(0.196699 0.0929485 2.15541e-16 0.218829 -1.73713e-17 0.208525)
(0.267591 0.127584 -1.17276e-15 0.305694 2.11004e-16 0.286707)
(0.333487 0.154075 2.94681e-15 0.353602 5.32822e-16 0.342296)
(0.548253 0.261162 4.63646e-15 0.615191 9.50553e-16 0.593692)
(0.00128851 -9.76977e-05 3.60022e-21 0.00106031 6.15888e-21 0.00116908)
(0.00127314 -0.000115777 -5.01347e-21 0.00108091 -9.03767e-21 0.00117113)
(0.00124326 -0.000131401 -2.27991e-21 0.00110008 -1.25637e-21 0.00116414)
(0.00120671 -0.000141544 2.70848e-20 0.00111814 3.96382e-20 0.00115342)
(0.00115892 -0.000144743 1.72144e-20 0.00112689 3.12031e-20 0.0011322)
(0.00110138 -0.000141116 2.18408e-20 0.00112596 4.19419e-20 0.00110097)
(0.00103936 -0.000131397 3.33735e-20 0.00111479 3.86112e-20 0.00106236)
(0.000972773 -0.000116712 -1.9162e-20 0.00108966 -2.97579e-20 0.00101448)
(0.000904794 -9.88105e-05 -6.8608e-20 0.00105273 -6.79745e-20 0.000959838)
(0.000836921 -7.97129e-05 8.92102e-20 0.00100427 5.02401e-20 0.000899698)
(0.000769938 -6.08835e-05 7.51611e-20 0.000946101 6.36552e-20 0.000835245)
(0.000703905 -4.35107e-05 9.75094e-20 0.000879743 4.67116e-20 0.000767498)
(0.000638511 -2.83862e-05 -1.60976e-19 0.000806696 -5.15539e-20 0.000697218)
(0.000573922 -1.58323e-05 -1.37495e-19 0.000729263 -9.23627e-20 0.000625778)
(0.000509985 -5.80893e-06 1.82868e-19 0.000648908 5.75179e-20 0.0005537)
(0.000443453 2.8985e-06 3.71423e-20 0.000563065 2.28727e-20 0.000478727)
(0.000377729 1.02103e-05 -2.72205e-20 0.000474876 2.8095e-21 0.000404363)
(0.000322605 1.59278e-05 -8.52007e-20 0.000397613 -5.58201e-20 0.000341755)
(0.000253289 1.57601e-05 1.49333e-20 0.000296247 -5.72962e-21 0.000263946)
(0.00018751 1.05601e-05 3.60985e-20 0.000205903 1.11371e-20 0.000192381)
(4.54359e-05 5.8764e-07 -2.22783e-21 4.61582e-05 -6.40801e-22 4.56606e-05)
(8.27566e-05 1.71287e-06 2.62588e-21 8.43793e-05 3.75079e-22 8.33433e-05)
(1.0616e-05 2.52135e-08 -9.84224e-24 1.06342e-05 -2.13409e-24 1.06231e-05)
(0.00261801 0.00108217 -8.40191e-19 0.00313956 4.12074e-19 0.00280986)
(0.01392 0.00647291 3.59377e-18 0.0153961 -1.14705e-18 0.0142457)
(0.00020695 1.46286e-05 -8.50232e-21 0.000206462 1.12821e-20 0.000205698)
(0.00287287 0.00114977 9.85881e-21 0.00249214 -2.27157e-20 0.00258845)
(0.00489165 0.00142457 1.91931e-18 0.00298343 -6.81457e-19 0.00368411)
(0.0323141 -0.0115411 7.05295e-18 0.0233797 1.78468e-17 0.0270018)
(0.255442 -0.109976 2.721e-17 0.236481 -1.23213e-16 0.244075)
(1.06388 -0.478894 -6.65524e-17 1.06679 -3.96754e-16 1.06204)
(2.8152 -1.29906 2.07714e-15 2.97159 5.51591e-16 2.88934)
(5.15433 -2.42371 2.97007e-15 5.68226 6.72479e-16 5.417)
(7.00315 -3.34372 -1.64313e-15 8.02791 -2.23402e-15 7.52066)
(7.70643 -3.72226 -7.33242e-15 9.13135 1.42192e-15 8.42783)
(7.50736 -3.65024 4.79322e-15 9.09044 4.89462e-15 8.3027)
(7.00442 -3.42048 -1.01671e-14 8.60216 -1.30319e-16 7.81031)
(6.25795 -3.01925 -1.30258e-14 7.41602 1.8815e-15 6.82146)
(6.54283 -3.21236 9.21183e-15 8.14373 -3.43365e-15 7.38579)
(0.00128954 -7.51058e-05 -5.52712e-21 0.00103296 -1.12538e-20 0.00115766)
(0.00127903 -5.12169e-05 -1.90128e-21 0.00100504 7.68435e-21 0.00113892)
(0.00125241 -2.16722e-05 1.83045e-20 0.000970773 3.49006e-20 0.00111007)
(0.00121286 9.52561e-06 -7.83638e-21 0.000937747 -4.40091e-22 0.00107456)
(0.00115581 3.9981e-05 6.82799e-21 0.000903922 4.32683e-20 0.00102992)
(0.00107627 6.6081e-05 2.09412e-20 0.000865085 -5.98761e-21 0.000970837)
(0.000980822 8.44565e-05 2.26461e-20 0.000822616 -5.87495e-22 0.000901573)
(0.000879003 9.33552e-05 -5.5895e-20 0.000777356 -3.37802e-20 0.000828196)
(0.000775194 9.35049e-05 -3.05326e-20 0.000727843 2.63968e-21 0.000751976)
(0.000668447 8.578e-05 5.06152e-20 0.000668379 2.28418e-20 0.000669062)
(0.000565378 7.27342e-05 2.36166e-20 0.000599849 -1.93792e-21 0.000583177)
(0.00047446 5.81124e-05 2.79519e-20 0.000530018 -1.72579e-20 0.000502531)
(0.000398355 4.43962e-05 -4.31502e-20 0.000464231 -2.82826e-20 0.00043115)
(0.00033584 3.26781e-05 -5.34778e-20 0.000404538 1.0095e-20 0.000369554)
(0.000285193 2.33522e-05 4.87957e-21 0.000351991 1.41313e-20 0.000317447)
(0.000244166 1.62558e-05 1.65266e-20 0.000306526 -4.91834e-21 0.000273745)
(0.000211305 1.1071e-05 -4.05724e-20 0.000268254 -3.21225e-21 0.000237765)
(0.00018506 7.3481e-06 -1.55774e-21 0.000236568 -6.45833e-21 0.000208459)
(0.000164284 4.64475e-06 -1.55664e-20 0.000210852 -3.04698e-21 0.000184936)
(0.000147525 2.56367e-06 3.26928e-20 0.000189739 -1.8834e-20 0.00016581)
(0.000134023 8.48414e-07 -3.559e-20 0.000172462 -1.23658e-20 0.000150274)
(0.000122794 -7.19e-07 -7.39669e-20 0.000157828 -8.7315e-21 0.000137235)
(0.00011289 -2.26746e-06 3.34749e-21 0.000144555 -1.12038e-20 0.000125549)
(0.00010263 -3.70514e-06 1.89358e-20 0.000130415 -1.07745e-20 0.000113287)
(9.22026e-05 -4.60639e-06 5.73465e-20 0.000115835 -4.00104e-21 0.000100628)
(8.3629e-05 -4.88956e-06 -5.37416e-20 0.000103765 -3.11261e-21 8.99641e-05)
(7.72221e-05 -4.83539e-06 -9.23839e-21 9.46597e-05 2.87348e-21 8.18249e-05)
(7.26563e-05 -4.67174e-06 5.59227e-21 8.8158e-05 4.89187e-22 7.5898e-05)
(6.69046e-05 -4.28747e-06 -2.56155e-21 8.02395e-05 -1.02993e-22 6.89624e-05)
(5.91264e-05 -3.80668e-06 -3.71158e-21 7.01648e-05 1.80443e-22 6.02565e-05)
(4.48992e-05 -2.80318e-06 -5.48307e-21 5.21915e-05 -2.89591e-22 4.5274e-05)
(2.86641e-05 -1.69143e-06 1.35456e-20 3.24328e-05 3.90838e-22 2.86066e-05)
(0.000200089 -5.49095e-05 1.92703e-18 0.00030325 1.2537e-19 0.000184086)
(0.000394882 -4.54818e-05 1.86269e-17 0.000504779 1.73244e-18 0.000286819)
(0.00166585 0.000598089 7.82596e-17 0.00129663 1.03095e-17 0.0013302)
(0.00854079 0.00332563 -1.73291e-16 0.00672756 -2.64487e-17 0.00771849)
(0.0268939 0.0112254 7.4324e-16 0.0232657 1.09911e-16 0.0257986)
(0.0706671 0.0279108 -4.86188e-16 0.0567368 -1.68268e-16 0.0644372)
(0.229909 0.104485 -3.29597e-16 0.230785 -1.41012e-15 0.237515)
(0.000964184 -7.43941e-05 -5.1339e-21 0.000794144 -7.64719e-21 0.00088088)
(0.000948036 -8.78633e-05 1.00848e-21 0.000806675 1.60685e-21 0.000879836)
(0.000922323 -9.91032e-05 6.11157e-21 0.000818488 6.63757e-21 0.000873156)
(0.000888686 -0.000105918 -3.75458e-20 0.000827165 -5.33656e-20 0.000861434)
(0.000847358 -0.000107502 -2.74899e-20 0.000830127 -3.2151e-20 0.000843039)
(0.000799173 -0.000103634 6.42542e-20 0.000826518 7.69153e-20 0.000817872)
(0.000747514 -9.45867e-05 -6.82382e-20 0.000815505 -8.4734e-20 0.000787526)
(0.00069433 -8.11871e-05 -3.08597e-20 0.000796209 -2.05295e-20 0.000752344)
(0.000641643 -6.4565e-05 -7.33983e-20 0.000769004 -5.49259e-20 0.000713452)
(0.000592379 -4.63118e-05 -1.36858e-20 0.000735704 -2.49033e-20 0.000673371)
(0.000547813 -2.77255e-05 9.19856e-21 0.000697763 -3.31923e-21 0.000633321)
(0.000509147 -1.00034e-05 -5.03838e-20 0.000657262 -6.68227e-20 0.000594941)
(0.00047737 5.89106e-06 1.64257e-19 0.000616749 1.12498e-19 0.000559947)
(0.000452671 1.93869e-05 -5.41623e-20 0.00057828 -9.47197e-21 0.000529344)
(0.000434926 3.04255e-05 -1.33061e-19 0.000543492 -5.8186e-20 0.0005039)
(0.000422117 3.85833e-05 8.8471e-20 0.000512419 1.77046e-21 0.000482212)
(0.000408322 4.36353e-05 -6.45486e-20 0.000480618 -3.72302e-20 0.000458826)
(0.000388509 4.56087e-05 8.83194e-22 0.000442938 4.72222e-20 0.000428866)
(0.000364099 4.54675e-05 -1.5519e-20 0.000402315 -1.21922e-20 0.000394804)
(0.000323957 4.03973e-05 -1.03806e-19 0.000346504 -7.17213e-20 0.000344284)
(0.000275287 3.19874e-05 6.69363e-20 0.000286265 6.49819e-20 0.00028678)
(0.000129275 7.29215e-06 3.81467e-22 0.000130821 -1.17606e-20 0.000131088)
(1.59017e-05 1.02028e-07 5.61038e-23 1.59147e-05 1.71668e-23 1.59183e-05)
(3.20075e-06 3.6416e-09 5.09197e-24 3.20081e-06 -2.28126e-25 3.20104e-06)
(0 0 0 0 0 0)
(1.03792e-05 3.39003e-08 4.81672e-23 1.03712e-05 7.69242e-24 1.03764e-05)
(0.000621214 0.000104799 -8.14118e-21 0.000589761 1.85948e-22 0.000607641)
(0.0038288 0.00152959 -2.43251e-19 0.00331838 -1.50551e-19 0.00358864)
(0.0193954 0.00792107 2.58324e-20 0.0164217 2.04389e-18 0.0179282)
(0.0102125 0.00406943 -1.18598e-17 0.00836774 9.79203e-19 0.00927758)
(0.0229881 0.00868366 -1.10076e-17 0.0175219 1.84071e-18 0.0201856)
(0.0461759 0.0120742 2.78196e-17 0.0251796 -1.62378e-16 0.0353352)
(0.241157 -0.0983863 5.75901e-16 0.204501 -7.06683e-16 0.221585)
(1.2734 -0.583938 -2.98177e-15 1.3266 1.58924e-16 1.29701)
(3.15288 -1.48954 4.83372e-15 3.51892 1.81614e-15 3.33318)
(5.00398 -2.39879 -9.95921e-16 5.80594 4.27463e-16 5.40389)
(6.12644 -2.96358 -1.74995e-15 7.29432 3.9853e-15 6.71633)
(6.43219 -3.08557 6.73196e-16 7.49368 2.44221e-16 6.94699)
(6.97138 -3.40196 -1.72593e-14 8.48035 4.31246e-15 7.7821)
(0.000973466 -5.79984e-05 3.27632e-21 0.000780253 1.33925e-21 0.000878656)
(0.000975238 -4.04187e-05 -1.18514e-20 0.00076659 -1.70412e-20 0.000871922)
(0.000967264 -1.88376e-05 1.5134e-21 0.000749905 7.7116e-21 0.000859506)
(0.000946607 4.46413e-06 6.463e-21 0.000731287 -2.15633e-20 0.000839416)
(0.000911514 2.7723e-05 -5.25595e-20 0.000710673 -7.55782e-20 0.000811421)
(0.000858161 4.83613e-05 -5.38319e-20 0.000685183 2.76304e-20 0.000771677)
(0.000791989 6.39221e-05 7.53602e-20 0.000656883 3.91252e-20 0.000724251)
(0.000720102 7.2908e-05 -2.43792e-20 0.000627121 -7.08135e-20 0.000673544)
(0.00064475 7.53646e-05 -3.32864e-20 0.000594064 9.44899e-21 0.000619509)
(0.000566066 7.16191e-05 -2.2698e-20 0.000553813 -3.94161e-20 0.000560133)
(0.000489212 6.33212e-05 7.94993e-21 0.000507017 1.20024e-20 0.000498287)
(0.000418537 5.28387e-05 -1.48982e-20 0.000456694 -1.94838e-20 0.000437774)
(0.000355885 4.20687e-05 -3.07706e-20 0.000405684 4.1395e-20 0.000380972)
(0.000301273 3.21409e-05 3.26394e-20 0.000355941 1.91487e-20 0.000328872)
(0.000254411 2.36691e-05 2.77382e-20 0.000309161 -1.27569e-20 0.000282169)
(0.000214677 1.68086e-05 -5.70001e-21 0.00026656 -1.14175e-20 0.000241161)
(0.00018147 1.14775e-05 1.65647e-20 0.000228954 3.68949e-21 0.000205931)
(0.000154125 7.42266e-06 -2.45443e-20 0.000196707 6.27137e-21 0.000176316)
(0.000131986 4.34742e-06 1.73811e-20 0.000169794 -4.57137e-22 0.000151958)
(0.000114178 1.94892e-06 -2.28838e-20 0.000147598 -1.06867e-20 0.000132113)
(0.0001 -8.71527e-09 2.20833e-20 0.000129479 1.84575e-21 0.000116094)
(8.86494e-05 -1.71742e-06 2.96115e-20 0.000114493 6.47751e-21 0.000103034)
(7.93352e-05 -3.28686e-06 -2.06734e-21 0.000101567 2.71819e-21 9.20009e-05)
(7.07568e-05 -4.65785e-06 -5.55255e-20 8.89128e-05 2.653e-23 8.14992e-05)
(6.22256e-05 -5.5308e-06 -2.06713e-20 7.58557e-05 -8.82706e-21 7.08384e-05)
(5.44202e-05 -5.80777e-06 -6.09319e-21 6.37347e-05 9.39001e-21 6.09833e-05)
(4.83914e-05 -5.71929e-06 2.25746e-20 5.38814e-05 2.80326e-22 5.32193e-05)
(4.4556e-05 -5.39401e-06 8.12313e-22 4.66695e-05 -1.85043e-22 4.79331e-05)
(4.35217e-05 -5.06205e-06 -1.29351e-21 4.27175e-05 1.10499e-22 4.57563e-05)
(4.12519e-05 -4.09788e-06 1.36266e-20 3.83528e-05 6.31178e-23 4.23698e-05)
(5.17175e-05 -5.49408e-06 1.5485e-20 4.50167e-05 5.00637e-22 5.23167e-05)
(1.19114e-05 -3.20786e-07 -4.94317e-21 1.1397e-05 -2.73555e-22 1.18933e-05)
(8.48791e-05 -1.23813e-05 -5.4851e-19 6.2085e-05 -4.2544e-20 8.20868e-05)
(0.000439222 -0.000103807 -1.01584e-18 0.000233646 -1.24063e-19 0.000396817)
(0.00112977 -0.00026187 2.02733e-18 0.000571639 2.17964e-20 0.000967298)
(0.000995674 -0.000199791 -3.9207e-18 0.000465111 1.55638e-18 0.00078968)
(0.00149374 -0.00015453 -2.11254e-17 0.000595454 -1.7589e-17 0.00109688)
(0.00285318 0.000198847 5.23987e-17 0.0011204 3.74162e-18 0.00195632)
(0.0490223 0.0197154 -2.90643e-16 0.0399718 5.22901e-17 0.0465573)
(0.000790889 -6.10369e-05 4.49952e-21 0.000651711 5.22684e-21 0.000720668)
(0.000783252 -7.19175e-05 -1.13148e-20 0.000665456 -1.36e-20 0.000723782)
(0.000768841 -8.14804e-05 -9.13694e-22 0.000679511 -1.89064e-21 0.000723263)
(0.000750132 -8.80968e-05 -4.71601e-21 0.00069316 -2.45938e-21 0.00072057)
(0.000725967 -9.09726e-05 3.73925e-20 0.000703296 4.30341e-20 0.000713342)
(0.000696862 -8.99693e-05 2.86742e-20 0.000709706 2.36586e-20 0.000701591)
(0.000664843 -8.51191e-05 3.64638e-22 0.00071121 1.1563e-20 0.000685969)
(0.000630415 -7.68323e-05 7.11428e-20 0.000706162 6.89332e-20 0.000665792)
(0.000594642 -6.58153e-05 -8.88552e-21 0.000694361 -1.18647e-21 0.000641438)
(0.000558768 -5.31294e-05 -2.4573e-20 0.000675782 -1.15384e-20 0.000613621)
(0.000523167 -3.97212e-05 4.82709e-20 0.000650568 1.80139e-20 0.000582542)
(0.000488366 -2.64975e-05 -6.49867e-20 0.000619627 -2.51869e-20 0.00054893)
(0.000454737 -1.42771e-05 -1.1472e-19 0.000584127 -8.96763e-20 0.000513598)
(0.000422333 -3.55648e-06 -4.79316e-20 0.000545256 1.23546e-20 0.000477153)
(0.00039116 5.3686e-06 2.06902e-19 0.00050425 9.34428e-20 0.00044027)
(0.000359898 1.22824e-05 -1.49586e-19 0.000460629 -6.81805e-20 0.000402106)
(0.000326208 1.7612e-05 -3.598e-20 0.000412301 3.12018e-20 0.000360944)
(0.000291862 2.13308e-05 6.73162e-20 0.000362132 4.38777e-20 0.000319043)
(0.000259705 2.36415e-05 -4.25137e-20 0.000314304 -3.45006e-22 0.000279821)
(0.000232067 2.48766e-05 -1.40288e-20 0.000272389 3.51234e-20 0.000246059)
(0.000214775 2.65688e-05 2.08083e-20 0.000243707 -1.33675e-20 0.000224001)
(0.000187074 2.34548e-05 -1.3932e-19 0.000202206 1.34866e-20 0.000191155)
(0.000155982 1.73806e-05 1.00579e-21 0.000160129 -1.6877e-20 0.000156322)
(4.12902e-05 1.23073e-06 -4.92571e-21 4.11238e-05 4.95506e-22 4.11363e-05)
(7.23164e-06 3.63471e-08 3.93377e-23 7.21535e-06 1.1524e-23 7.22225e-06)
(3.33238e-06 7.51481e-09 -2.62104e-24 3.32737e-06 -1.10475e-23 3.32965e-06)
(6.97265e-07 3.25061e-10 -2.41545e-26 6.97019e-07 -2.2615e-27 6.97133e-07)
(0 0 0 0 0 0)
(0 0 0 0 0 0)
(0.00148455 0.000501669 5.39838e-19 0.00116114 8.69833e-19 0.00131836)