/*--------------------------------*- C++ -*----------------------------------*\
| =========                 |                                                 |
| \\      /  F ield         | OpenFOAM: The Open Source CFD Toolbox           |
|  \\    /   O peration     | Version:  2306                                  |
|   \\  /    A nd           | Website:  www.openfoam.com                      |
|    \\/     M anipulation  |                                                 |
\*---------------------------------------------------------------------------*/
FoamFile
{
    version     2.0;
    format      ascii;
    arch        "LSB;label=32;scalar=64";
    class       volVectorField;
    location    "225";
    object      momentError;
}
// * * * * * * * * * * * * * * * * * * * * * * * * * * * * * * * * * * * * * //

dimensions      [0 1 -2 0 0 0 0];

internalField   nonuniform List<vector> 
1340
(
(0.0262442 -0.00492404 1.16138e-13)
(0.0242364 -0.015945 -1.1401e-14)
(-0.0397473 -0.0800366 4.89176e-16)
(-1.21376 0.13054 -5.76825e-14)
(0.0477503 -0.00733285 -3.9427e-14)
(0.0462359 -0.00973259 3.34629e-14)
(0.0688664 -0.0210561 -1.41678e-14)
(1.05435 -0.128126 -4.50726e-14)
(0.0514191 -0.0086 -3.65593e-14)
(0.0537253 -0.00970115 -1.01132e-13)
(0.0594555 -0.0102784 2.82355e-14)
(0.156694 -0.0173882 6.64067e-15)
(0.0545511 -0.00911285 -1.16916e-13)
(0.0526682 -0.0098243 1.71063e-14)
(0.0541022 -0.00906762 -2.89307e-14)
(0.0875854 -0.0187689 4.7572e-14)
(0.0543519 -0.00803114 1.18946e-13)
(0.0500135 -0.00947177 -4.03304e-14)
(0.0536468 -0.00963922 -1.70829e-14)
(0.0778739 -0.0198999 -9.01062e-16)
(0.0115757 -0.00187443 7.41813e-14)
(0.0367554 -0.00687808 8.5807e-14)
(0.0530589 -0.00978737 3.95027e-14)
(0.0770963 -0.0212331 2.92281e-14)
(-0.0565471 0.00980538 -1.03359e-13)
(-0.00153931 -0.00334466 -5.87171e-14)
(0.0335516 -0.0066527 6.55668e-15)
(0.0711684 -0.0203466 -2.62421e-14)
(-0.0134632 -0.000459559 7.12374e-14)
(-0.0329402 0.00344316 5.88042e-14)
(-0.00689772 -0.00193681 -3.55592e-14)
(0.0487576 -0.0163575 -2.83099e-14)
(-0.0011532 -0.00531968 -8.33409e-14)
(-0.0305035 0.00330181 -1.59348e-14)
(-0.0427079 0.00746197 2.6449e-14)
(0.0114451 -0.0115857 -4.89724e-15)
(-0.00641462 1.12884e-05 3.06876e-14)
(-0.00738788 -0.00188099 5.44879e-15)
(-0.0252042 -0.00428944 -1.69127e-14)
(-0.0140263 -0.00360954 4.31126e-14)
(-0.00869955 -0.000502391 -2.03597e-14)
(-0.00196031 -0.00168555 2.07884e-14)
(-0.012367 -0.00921208 1.51379e-14)
(-0.0256409 0.00087685 7.72799e-15)
(-0.0108049 -0.000310238 5.98756e-14)
(-0.00547894 -0.000855677 3.47714e-14)
(-0.00962008 -0.00241564 1.514e-14)
(-0.0219355 -0.000133017 -3.59939e-14)
(-0.0102733 -0.000466009 -5.61535e-14)
(-0.0084937 -0.000484664 -4.45386e-14)
(-0.00690245 -0.00379377 3.14578e-15)
(-0.0163724 -0.00110843 1.52888e-15)
(-0.0091854 -0.000554944 4.08252e-14)
(-0.00916987 -0.000434633 5.35825e-14)
(-0.00850829 -0.00301381 -3.68528e-14)
(-0.013442 -0.00160757 2.03573e-15)
(-0.00847318 -0.000593881 3.85239e-15)
(-0.00850665 -0.000567722 -6.61783e-14)
(-0.00953564 -0.00270025 2.4377e-14)
(-0.0126549 -0.00173922 1.06284e-15)
(-0.00810685 -0.000612554 -6.65605e-14)
(-0.00777255 -0.000668754 2.34172e-14)
(-0.00953882 -0.00246721 -1.72941e-15)
(-0.012498 -0.00161503 9.7914e-15)
(-0.00782279 -0.000631675 1.19899e-14)
(-0.00733704 -0.000711696 6.28701e-15)
(-0.0090072 -0.00230998 -1.70226e-14)
(-0.0121558 -0.00145025 -6.62964e-15)
(-0.00750078 -0.000645367 1.64047e-14)
(-0.00708831 -0.000720737 -5.48964e-15)
(-0.00843934 -0.00214042 4.67076e-15)
(-0.0115363 -0.00130887 7.9062e-15)
(-0.00715005 -0.000648937 9.13676e-15)
(-0.00687096 -0.000720169 -2.65613e-14)
(-0.00797587 -0.00194852 2.61526e-14)
(-0.0108042 -0.00118665 -6.36737e-15)
(-0.00679913 -0.000642554 -7.03565e-15)
(-0.00662933 -0.000715751 7.42582e-15)
(-0.00758786 -0.00175113 2.21296e-15)
(-0.0100797 -0.00106906 -4.62405e-15)
(-0.00646346 -0.000630267 -1.26259e-14)
(-0.00636585 -0.000708222 -4.93398e-15)
(-0.00722021 -0.00156169 -1.87139e-14)
(-0.00940108 -0.000952709 -2.95754e-15)
(-0.00614095 -0.000613735 -1.59552e-14)
(-0.00609494 -0.000695006 -1.05362e-14)
(-0.00685412 -0.00138802 4.4818e-15)
(-0.00876375 -0.00084582 3.1075e-15)
(-0.00583158 -0.000593479 3.97366e-14)
(-0.00582405 -0.000675446 2.06588e-14)
(-0.00648594 -0.00123014 -1.04407e-14)
(-0.00815978 -0.000750652 -6.69379e-16)
(-0.0055323 -0.000569903 -9.40725e-15)
(-0.00555502 -0.00064938 -2.36291e-15)
(-0.00612397 -0.00108708 6.02596e-15)
(-0.00758417 -0.000668583 2.03268e-15)
(-0.00524515 -0.000542693 -1.58473e-14)
(-0.00528941 -0.000618572 -6.54178e-15)
(-0.00576995 -0.000956401 -1.4123e-14)
(-0.0070383 -0.000595219 -2.5446e-15)
(-0.00496657 -0.000513039 1.09485e-14)
(-0.0050264 -0.000582975 -1.87358e-14)
(-0.00542868 -0.000837045 9.65339e-15)
(-0.00652419 -0.000531449 8.4125e-15)
(-0.0046969 -0.000480774 -8.57529e-15)
(-0.00476527 -0.00054381 2.79411e-14)
(-0.00509848 -0.000730251 2.35527e-14)
(-0.00604222 -0.000473169 -1.29397e-15)
(-0.00443373 -0.000446388 -3.36544e-15)
(-0.00450566 -0.000502118 1.21447e-14)
(-0.00477976 -0.000634219 -6.80483e-15)
(-0.00559106 -0.000421296 1.43791e-15)
(-0.00418073 -0.000408691 8.40276e-15)
(-0.00425102 -0.00045979 -2.56139e-14)
(-0.00447089 -0.000549191 -1.03837e-14)
(-0.00516927 -0.000373264 -4.8293e-15)
(-0.00393746 -0.000374009 1.56591e-15)
(-0.00400204 -0.0004151 1.49182e-14)
(-0.00417491 -0.000473534 5.03922e-15)
(-0.00477534 -0.000330563 -2.63245e-15)
(-0.0037021 -0.000337139 -1.22447e-14)
(-0.00375969 -0.000372797 -1.42259e-14)
(-0.00389157 -0.000406244 -1.53829e-14)
(-0.00440803 -0.000291008 -2.1496e-15)
(-0.00347686 -0.000305444 2.87986e-15)
(-0.00352511 -0.000329775 3.18932e-15)
(-0.00362148 -0.000346382 3.17995e-15)
(-0.00406685 -0.000255174 9.72168e-15)
(-0.00325696 -0.000270634 2.95664e-15)
(-0.00329652 -0.000289313 1.41169e-15)
(-0.00336521 -0.00029316 -4.34261e-16)
(-0.0037496 -0.000221396 1.29326e-15)
(-0.00308627 -0.000225281 -1.97187e-14)
(-0.00304918 -0.000239007 -1.94033e-14)
(-0.00307714 -0.000250304 -6.1562e-15)
(-0.00312119 -0.000245752 -4.93253e-15)
(-0.00345499 -0.000190379 -9.71083e-15)
(-0.00288571 -0.000202537 5.08323e-16)
(-0.00284626 -0.000209781 7.17722e-15)
(-0.00286457 -0.000212687 3.05261e-15)
(-0.00289085 -0.000203625 1.00049e-14)
(-0.00318117 -0.000161052 8.03899e-15)
(-0.00268898 -0.000178035 1.21962e-14)
(-0.00265191 -0.000178351 -1.76883e-15)
(-0.00266345 -0.000178385 1.26657e-14)
(-0.00267329 -0.000166095 3.1079e-15)
(-0.00292702 -0.000134015 4.0481e-15)
(-0.00250325 -0.000152482 -2.57819e-15)
(-0.00246611 -0.000149775 8.36706e-15)
(-0.00247002 -0.000146482 -1.09796e-14)
(-0.0024685 -0.00013286 -9.66329e-15)
(-0.00269115 -0.000108761 -1.0268e-14)
(-0.00232548 -0.000128952 -6.77309e-15)
(-0.00229009 -0.000122845 -9.62449e-15)
(-0.00228836 -0.000117444 6.83434e-15)
(-0.00227615 -0.000103578 3.87707e-16)
(-0.0024725 -8.57977e-05 -8.14442e-15)
(-0.00215927 -0.000106441 5.88629e-15)
(-0.002124 -9.82716e-05 1.0631e-14)
(-0.00211605 -9.11069e-05 -5.78162e-15)
(-0.00209674 -7.7734e-05 -1.1881e-14)
(-0.00227008 -6.46179e-05 1.84349e-15)
(-0.00199878 -8.52571e-05 4.73224e-15)
(-0.00196672 -7.54844e-05 8.09014e-15)
(-0.00195564 -6.74535e-05 2.50081e-15)
(-0.00192987 -5.51494e-05 1.35962e-14)
(-0.00208369 -4.54957e-05 1.1287e-14)
(-0.00184754 -6.42771e-05 -2.57509e-15)
(-0.00181699 -5.47348e-05 3.51377e-16)
(-0.00180252 -4.60208e-05 3.747e-15)
(-0.00177435 -3.50964e-05 2.60815e-16)
(-0.0019118 -2.79378e-05 -9.78348e-17)
(-0.00170348 -4.48986e-05 -2.10118e-15)
(-0.00167501 -3.43971e-05 -1.30089e-14)
(-0.00165903 -2.66568e-05 -1.04466e-14)
(-0.00162822 -1.72482e-05 -6.34479e-15)
(-0.00175259 -1.19647e-05 -1.92278e-15)
(-0.00157015 -2.64147e-05 -5.32931e-15)
(-0.00154245 -1.71324e-05 -6.09873e-16)
(-0.00152383 -8.97074e-06 7.8704e-15)
(-0.00149172 -1.0673e-06 2.51142e-15)
(-0.00160449 2.90932e-06 -6.71755e-15)
(-0.00144491 -1.09168e-05 1.45851e-14)
(-0.00141908 -8.30531e-07 8.58313e-15)
(-0.00139899 6.70768e-06 -5.61166e-15)
(-0.00136524 1.3385e-05 -9.34175e-16)
(-0.00146748 1.65195e-05 5.35409e-15)
(-0.00132747 4.43654e-06 3.09353e-15)
(-0.00130321 1.34394e-05 -5.72486e-15)
(-0.00128247 2.07929e-05 -6.93294e-15)
(-0.00124871 2.62502e-05 -7.30695e-16)
(-0.00134154 2.90043e-05 1.54592e-15)
(-0.00123428 6.89477e-06 -3.78501e-15)
(-0.00122302 1.80704e-05 2.5797e-16)
(-0.00119162 2.69473e-05 1.66814e-15)
(-0.00117371 3.33806e-05 -3.91146e-15)
(-0.00114065 3.75804e-05 -2.7599e-15)
(-0.00122581 4.02337e-05 -1.06771e-15)
(-0.00113129 2.08332e-05 -5.49725e-15)
(-0.00111774 3.09622e-05 -4.79111e-16)
(-0.00108901 3.91738e-05 -2.67945e-15)
(-0.00107168 4.47387e-05 1.37498e-15)
(-0.00104001 4.77616e-05 7.66312e-15)
(-0.00111873 5.0485e-05 -1.85357e-16)
(-0.0010332 3.39363e-05 -4.31485e-15)
(-0.00102086 4.32983e-05 -8.38288e-16)
(-0.000994527 5.03783e-05 -4.4014e-15)
(-0.000977456 5.49645e-05 6.75566e-15)
(-0.000946573 5.68808e-05 -9.33239e-16)
(-0.00101952 5.97756e-05 -2.9561e-15)
(-0.000942633 4.6351e-05 3.83443e-15)
(-0.000932162 5.43958e-05 3.21165e-15)
(-0.000906988 6.0337e-05 5.00686e-15)
(-0.00089042 6.41553e-05 -3.18012e-16)
(-0.000860653 6.50885e-05 -2.13093e-15)
(-0.000927986 6.82984e-05 6.38534e-15)
(-0.000857902 5.76407e-05 -3.49326e-15)
(-0.000849874 6.47106e-05 -2.70011e-15)
(-0.000826213 6.96037e-05 -2.42119e-15)
(-0.000810407 7.24454e-05 -2.57575e-15)
(-0.000781874 7.24383e-05 7.97672e-15)
(-0.000844132 7.60485e-05 -1.18356e-16)
(-0.000779352 6.81254e-05 -1.36098e-15)
(-0.000773598 7.40775e-05 6.05137e-16)
(-0.000750626 7.80304e-05 -3.9039e-15)
(-0.00073587 8.00612e-05 1.55354e-15)
(-0.000709109 7.91598e-05 -1.03183e-15)
(-0.00076702 8.31658e-05 -5.32187e-15)
(-0.000706846 7.73022e-05 2.53537e-15)
(-0.000701787 8.2709e-05 -1.21848e-15)
(-0.000680613 8.5896e-05 1.44398e-15)
(-0.000666844 8.71084e-05 4.04866e-16)
(-0.000641594 8.53324e-05 -7.25535e-16)
(-0.000695852 8.97313e-05 2.24996e-15)
(-0.000639812 8.56618e-05 5.41017e-15)
(-0.000635981 9.03492e-05 7.24974e-15)
(-0.000616178 9.28846e-05 1.71877e-16)
(-0.000603177 9.34411e-05 -1.12219e-15)
(-0.000579398 9.09052e-05 -3.94546e-15)
(-0.000629993 9.57302e-05 -1.80623e-15)
(-0.000578221 9.31316e-05 -1.00294e-15)
(-0.000574905 9.72421e-05 -1.04012e-15)
(-0.000557144 9.90306e-05 -2.22426e-16)
(-0.00054513 9.88848e-05 5.72171e-16)
(-0.000522569 9.57087e-05 3.77553e-15)
(-0.000569764 0.000101034 3.55856e-15)
(-0.000523574 9.47158e-05 5.26872e-16)
(-0.000531763 9.97174e-05 2.38649e-15)
(-0.000513855 0.000102976 2.19512e-15)
(-0.000503211 0.000104064 -1.95356e-15)
(-0.000491904 0.000103526 -1.52241e-15)
(-0.000470762 9.97775e-05 -6.28058e-16)
(-0.000514618 0.000105761 -2.50098e-15)
(-0.000473009 0.000100873 -1.97721e-15)
(-0.00047676 0.000104921 -7.8634e-17)
(-0.000463127 0.000107671 5.91603e-16)
(-0.000453422 0.000108442 -3.26097e-15)
(-0.000443048 0.000107466 -7.86549e-16)
(-0.000423323 0.00010332 1.43286e-15)
(-0.000464349 0.000109995 -6.15455e-16)
(-0.000424295 0.000105779 6.00143e-17)
(-0.000430526 0.000109504 1.78293e-16)
(-0.000416074 0.000111836 -4.71004e-15)
(-0.000407626 0.000112169 3.58975e-15)
(-0.00039808 0.000110935 1.30125e-15)
(-0.000379825 0.000106335 -2.45043e-15)
(-0.000418253 0.000113729 3.8901e-15)
(-0.000379865 0.000110165 3.18182e-15)
(-0.000386857 0.000113569 1.5698e-15)
(-0.000372879 0.000115489 6.76912e-16)
(-0.000365153 0.000115487 -1.43048e-15)
(-0.000356525 0.000113883 -5.36673e-15)
(-0.000339857 0.000108789 3.46225e-15)
(-0.000376005 0.000116904 -5.08483e-16)
(-0.000339412 0.00011381 1.04239e-15)
(-0.000346164 0.000116922 2.15135e-16)
(-0.000332974 0.000118548 -1.23589e-15)
(-0.000326211 0.000118209 -4.73309e-16)
(-0.000318526 0.000116149 -2.67119e-16)
(-0.000303225 0.000110635 2.49009e-16)
(-0.000337053 0.000119455 1.2768e-16)
(-0.000302335 0.00011661 -1.36159e-16)
(-0.000308788 0.00011955 1.11532e-15)
(-0.000297022 0.000120949 1.06267e-15)
(-0.000290964 0.000120143 7.5886e-16)
(-0.000283941 0.000117837 -1.23328e-16)
(-0.000269812 0.000111963 1.49752e-15)
(-0.000301364 0.00012152 6.60172e-16)
(-0.000268693 0.000118638 -2.1926e-15)
(-0.000274719 0.000121511 -2.93372e-16)
(-0.000264223 0.000122768 1.86584e-15)
(-0.000258977 0.000121724 -9.88037e-16)
(-0.000252481 0.000119142 -4.85742e-15)
(-0.000239567 0.00011293 -5.8319e-17)
(-0.000268774 0.000123292 7.56192e-16)
(-0.000235087 0.000116359 -9.42761e-16)
(-0.000250768 0.00012024 -8.33939e-16)
(-0.000236493 0.000123077 -3.75627e-16)
(-0.000234545 0.000124146 4.39739e-16)
(-0.000229931 0.000123001 -1.89675e-15)
(-0.000224054 0.000120179 -6.355e-16)
(-0.000212097 0.00011371 2.88088e-16)
(-0.000239129 0.000124829 -1.6883e-16)
(-0.000209123 0.000117454 5.58905e-16)
(-0.000219092 0.000121463 1.88312e-15)
(-0.000209051 0.00012403 1.15399e-15)
(-0.000207583 0.000125041 -2.97543e-15)
(-0.000203588 0.000123787 -1.58746e-15)
(-0.000198172 0.00012086 1.09895e-15)
(-0.000187281 0.000114114 4.98326e-16)
(-0.000212294 0.000125946 -2.80507e-16)
(-0.000183478 0.000118033 1.22425e-15)
(-0.00019281 0.000121952 3.12384e-16)
(-0.000184121 0.000124561 -1.59779e-15)
(-0.000183027 0.000125586 1.13666e-15)
(-0.000179521 0.000124315 1.23154e-15)
(-0.000174676 0.000121271 -1.01702e-15)
(-0.000164815 0.00011423 -1.0899e-15)
(-0.000187805 0.000126826 -1.4413e-16)
(-0.000160561 0.000117909 -2.15051e-16)
(-0.000171646 0.000121913 6.01134e-16)
(-0.000161623 0.000124482 -7.16936e-16)
(-0.000160806 0.000125584 2.27842e-15)
(-0.000157802 0.000124316 -1.97891e-15)
(-0.000153477 0.000121182 -2.48562e-15)
(-0.000144485 0.000113973 3.2911e-15)
(-0.000165489 0.000127301 3.49682e-16)
(-0.000140279 0.000117533 -9.88224e-16)
(-0.000151087 0.000121556 -9.29551e-16)
(-0.000141386 0.000124229 -1.95605e-16)
(-0.000140791 0.000125387 2.23761e-16)
(-0.000138272 0.000124128 8.72924e-16)
(-0.000134379 0.000121027 7.92782e-16)
(-0.000126174 0.000113689 -3.25461e-16)
(-0.000145356 0.00012772 -7.15474e-16)
(-0.000122004 0.000116233 1.04564e-15)
(-0.00013176 0.000120258 -1.16638e-15)
(-0.000122988 0.000123041 1.08392e-15)
(-0.000122649 0.000124212 1.72328e-15)
(-0.000120427 0.00012306 -1.06657e-15)
(-0.000116846 0.000120024 1.44648e-16)
(-0.000109553 0.000112568 1.42572e-15)
(-0.000126993 0.000127267 -1.72871e-16)
(-0.000114274 0.000120842 -1.03159e-15)
(-0.000121951 0.000125672 1.06113e-16)
(-0.000115279 0.000129126 3.59672e-16)
(-0.000115112 0.00013081 -1.86722e-15)
(-0.000113025 0.000130081 7.75637e-16)
(-0.00010986 0.000127324 1.69445e-15)
(-0.000103124 0.000119925 -1.04908e-15)
(-0.000119357 0.000135572 -5.94676e-16)
(-9.89249e-05 0.000112701 5.56973e-16)
(-0.000114627 0.000117822 3.62267e-16)
(-0.000103092 0.000122281 6.45462e-16)
(-0.000103844 0.000125594 -1.10354e-15)
(-0.000103747 0.000127164 5.21261e-16)
(-0.000101768 0.000126201 1.10143e-15)
(-9.86344e-05 0.000123205 -2.1591e-15)
(-9.22613e-05 0.000115475 -3.80344e-16)
(-0.000107167 0.000131527 1.79629e-15)
(-8.89834e-05 0.000110893 1.3343e-16)
(-9.91144e-05 0.000115954 -1.08662e-16)
(-9.08049e-05 0.000120178 6.61354e-16)
(-9.15568e-05 0.000123286 8.9818e-16)
(-9.14848e-05 0.000124723 -9.22327e-16)
(-8.96049e-05 0.000123566 -8.57238e-16)
(-8.67094e-05 0.0001203 4.83824e-16)
(-8.08583e-05 0.000112162 1.55088e-15)
(-9.46063e-05 0.000128819 -2.14287e-15)
(-7.7734e-05 0.000108192 -2.57559e-16)
(-8.70225e-05 0.000112981 -4.27927e-16)
(-7.91804e-05 0.000116944 -1.51783e-15)
(-7.97138e-05 0.000119849 -5.20548e-16)
(-7.95214e-05 0.000121115 1.59062e-16)
(-7.77538e-05 0.000119772 2.32256e-16)
(-7.50908e-05 0.00011626 -2.94838e-16)
(-6.96837e-05 0.000107914 9.67681e-16)
(-8.20125e-05 0.000124801 2.33115e-15)
(-6.86927e-05 0.000106881 8.99744e-16)
(-7.709e-05 0.000111712 -1.2291e-15)
(-6.9741e-05 0.000115774 9.98547e-17)
(-6.99881e-05 0.000118774 2.45219e-15)
(-6.95634e-05 0.000120086 -1.23474e-15)
(-6.76791e-05 0.000118684 3.08212e-16)
(-6.48954e-05 0.000115031 -6.31929e-16)
(-5.97869e-05 0.000106439 1.53243e-16)
(-7.11722e-05 0.000124291 7.01356e-16)
(-5.96769e-05 0.000102038 -4.90672e-17)
(-6.72776e-05 0.00010636 7.01757e-16)
(-6.05302e-05 0.000109997 4.34492e-16)
(-6.07188e-05 0.000112659 -1.78204e-15)
(-6.03269e-05 0.000113725 1.29245e-15)
(-5.85709e-05 0.000112178 1.91922e-15)
(-5.59484e-05 0.000108463 -3.09136e-15)
(-5.10523e-05 9.97664e-05 -4.89799e-16)
(-6.00087e-05 0.000117041 1.14904e-15)
(-5.45042e-05 0.000104135 2.3657e-16)
(-6.13766e-05 0.000108901 3.93991e-16)
(-5.51781e-05 0.000113015 -2.8459e-16)
(-5.51822e-05 0.000116076 -7.31478e-16)
(-5.45999e-05 0.000117399 6.82802e-16)
(-5.27384e-05 0.000115887 1.19133e-15)
(-4.99906e-05 0.000111969 -1.71028e-16)
(-4.55752e-05 0.000102882 -1.14302e-15)
(-5.54888e-05 0.000122584 4.61659e-16)
(-4.55222e-05 9.25673e-05 -5.19069e-16)
(-5.37765e-05 9.65068e-05 -1.91405e-16)
(-4.63903e-05 9.93134e-05 6.01008e-16)
(-4.65661e-05 0.000101594 8.6441e-16)
(-4.63732e-05 0.000102408 -6.32918e-18)
(-4.49998e-05 0.000100722 -3.38248e-17)
(-4.27638e-05 9.69203e-05 -3.78789e-16)
(-3.83255e-05 8.80435e-05 7.1011e-17)
(-4.3773e-05 0.000104331 -1.09089e-16)
(-4.74576e-05 0.000106477 2.784e-16)
(-5.58649e-05 0.000111671 2.64341e-16)
(-4.79669e-05 0.000116002 6.17042e-16)
(-4.78562e-05 0.000119314 -1.08098e-16)
(-4.73007e-05 0.000120749 -5.41944e-16)
(-4.56013e-05 0.00011912 1.17699e-16)
(-4.3027e-05 0.000114769 -3.57312e-16)
(-3.95488e-05 0.000104966 -5.41903e-16)
(-5.12524e-05 0.000128064 8.31038e-16)
(-3.29143e-05 7.48835e-05 -1.21548e-15)
(-4.05369e-05 7.77358e-05 -6.20108e-16)
(-3.44557e-05 8.01575e-05 2.60222e-16)
(-3.49236e-05 8.17437e-05 4.19793e-16)
(-3.52062e-05 8.20971e-05 1.67714e-15)
(-3.44314e-05 8.03479e-05 -4.31351e-16)
(-3.28288e-05 7.67866e-05 -1.90745e-15)
(-2.84756e-05 6.83032e-05 4.09828e-17)
(-2.94579e-05 8.08422e-05 1.22901e-15)
(-4.4697e-05 0.000111345 -1.68518e-16)
(-6.04626e-05 0.000121688 -3.89578e-16)
(-4.86283e-05 0.0001277 1.08182e-16)
(-4.89638e-05 0.000133159 -6.01209e-16)
(-4.96035e-05 0.000137259 8.8948e-17)
(-4.91851e-05 0.000139063 3.67433e-16)
(-4.75761e-05 0.000137185 -1.35396e-15)
(-4.51589e-05 0.000131882 6.9392e-16)
(-4.27794e-05 0.000120424 1.16884e-15)
(-6.11952e-05 0.000150472 1.09971e-16)
(-1.73677e-05 4.12939e-05 2.82901e-16)
(-2.31928e-05 4.03257e-05 -1.24032e-16)
(-1.86201e-05 4.30209e-05 -6.97469e-17)
(-1.94616e-05 4.44302e-05 1.54233e-16)
(-2.0452e-05 4.48123e-05 5.00446e-16)
(-2.10755e-05 4.45862e-05 9.80634e-18)
(-2.08788e-05 4.31263e-05 -7.44344e-17)
(-2.00603e-05 4.07152e-05 3.38302e-16)
(-1.5928e-05 3.42076e-05 6.12556e-17)
(-1.01039e-05 3.87723e-05 -5.4695e-16)
(-6.6564e-05 0.000146585 1.43273e-17)
(-8.36845e-05 0.000160632 3.06209e-16)
(-6.95615e-05 0.000169376 5.72262e-16)
(-7.51958e-05 0.00017681 -1.43805e-15)
(-7.90719e-05 0.000182637 2.64127e-16)
(-7.96658e-05 0.000185345 2.48972e-15)
(-7.8509e-05 0.000183077 -2.66447e-15)
(-7.66042e-05 0.000176418 -7.81226e-16)
(-7.38633e-05 0.000160499 1.89223e-15)
(-0.000109683 0.000203853 -7.50756e-16)
(0.026444 0.0223178 -6.60765e-14)
(-0.0267829 0.0332501 -1.78015e-14)
(-0.0211334 0.0207574 2.85291e-14)
(0.00753338 0.0150489 -1.60416e-14)
(0.0233926 0.0124983 2.54076e-14)
(0.0291638 0.0106319 -8.07101e-15)
(0.0308238 0.0080528 -5.94353e-15)
(0.029065 0.00484247 -1.78714e-14)
(0.0193381 0.00270282 1.27322e-14)
(-0.00123927 0.00201267 1.80837e-14)
(-0.0123719 0.00211485 -7.62853e-15)
(-0.0133084 0.0020513 -1.70258e-14)
(-0.0114114 0.00157697 1.77006e-14)
(-0.00962969 0.00117942 -1.73508e-14)
(-0.00865747 0.000998964 1.57041e-14)
(-0.00821209 0.000900937 -3.3936e-15)
(-0.00786388 0.000814563 1.48016e-15)
(-0.00745051 0.00071996 -5.25033e-15)
(-0.00698597 0.000626637 -6.584e-15)
(-0.00651543 0.000537989 1.52897e-15)
(-0.00606983 0.000455371 3.76777e-15)
(-0.00565353 0.000377069 -3.58842e-16)
(-0.00526576 0.000303259 1.14965e-15)
(-0.0049007 0.000234538 -1.26567e-15)
(-0.00457427 0.000171283 3.46077e-15)
(-0.00431387 0.000113341 -3.87518e-15)
(-0.00409132 6.27492e-05 1.64819e-15)
(-0.00387555 2.15634e-05 -3.60722e-15)
(-0.00366775 -1.07569e-05 4.45228e-15)
(-0.00346616 -3.54139e-05 -7.2519e-15)
(-0.00327208 -5.27462e-05 1.39821e-14)
(-0.00308464 -6.39831e-05 -6.15005e-15)
(-0.00290502 -6.95987e-05 1.98519e-15)
(-0.00273236 -7.08022e-05 6.69765e-16)
(-0.00256725 -6.80786e-05 4.13458e-15)
(-0.00240903 -6.25895e-05 -2.09708e-15)
(-0.00225824 -5.47629e-05 -6.2261e-15)
(-0.00211417 -4.56076e-05 3.92444e-15)
(-0.00197731 -3.53118e-05 -2.63494e-16)
(-0.00184756 -2.46128e-05 7.44502e-16)
(-0.00172536 -1.34069e-05 3.83132e-15)
(-0.00160948 -2.15588e-06 3.05081e-15)
(-0.00149946 9.34127e-06 -6.08239e-15)
(-0.00139494 2.06556e-05 5.37566e-15)
(-0.00129675 3.18596e-05 4.83169e-16)
(-0.0012045 4.25943e-05 -7.429e-15)
(-0.00111776 5.30259e-05 4.18712e-15)
(-0.00103557 6.29924e-05 -1.28314e-15)
(-0.000958198 7.26446e-05 9.45458e-16)
(-0.000885639 8.18623e-05 -1.81784e-15)
(-0.000817915 9.07305e-05 -3.48834e-15)
(-0.000754154 9.92083e-05 2.41966e-15)
(-0.000694175 0.0001072 4.73146e-17)
(-0.000637961 0.000114758 2.57867e-15)
(-0.000585612 0.000121957 -3.95125e-15)
(-0.000536964 0.000128797 -2.19275e-15)
(-0.00049173 0.000135321 1.6084e-15)
(-0.000449495 0.000141347 -5.1788e-15)
(-0.000409863 0.000146926 -1.25391e-15)
(-0.000372727 0.000152046 -3.37501e-15)
(-0.000338079 0.000156936 1.71245e-15)
(-0.000306023 0.000161624 -1.62864e-15)
(-0.000276344 0.00016597 3.26688e-15)
(-0.000248795 0.000170115 5.53814e-16)
(-0.000223169 0.00017378 1.46537e-15)
(-0.000199655 0.000177533 -1.41226e-15)
(-0.000177738 0.000180254 1.71909e-15)
(-0.000163644 0.000186353 1.42129e-15)
(-0.000149901 0.000187115 -2.04027e-15)
(-0.000136837 0.00018996 1.60627e-15)
(-0.000122169 0.000189696 -2.49391e-15)
(-0.000110822 0.000196401 -4.35608e-15)
(-9.44133e-05 0.00018943 1.72424e-16)
(-9.35748e-05 0.000208204 -6.59355e-16)
(-7.08196e-05 0.000179438 -9.6902e-16)
(-9.48531e-05 0.000234353 8.72668e-16)
(-4.7004e-05 0.000148105 -1.15894e-15)
(-0.000122944 0.000294476 -3.8303e-16)
(-1.20098e-05 7.70919e-05 -2.53952e-16)
(-0.000231496 0.000409784 4.68677e-16)
(-0.0795994 0.0053375 2.0457e-14)
(0.0370829 -0.00723462 4.63007e-15)
(0.0102554 -0.000414693 -6.0592e-15)
(0.0239131 0.00277568 2.75946e-15)
(0.0340636 0.00569341 -4.43978e-15)
(0.0383241 0.00810089 1.12202e-15)
(0.0371549 0.0100991 7.02359e-16)
(0.0321137 0.0108835 3.11237e-15)
(0.0224297 0.00913881 -1.87577e-15)
(0.00738395 0.00512886 -2.46342e-15)
(-0.00857413 0.0016597 1.4456e-15)
(-0.0125019 0.000138296 2.96389e-15)
(-0.00956911 0.00017256 -2.84493e-15)
(-0.00774218 0.000402585 3.169e-15)
(-0.00702316 0.000482942 -3.03195e-15)
(-0.00679047 0.000439434 8.1816e-16)
(-0.00653468 0.000355636 -3.13925e-16)
(-0.00623018 0.000291255 7.12225e-16)
(-0.00589042 0.000251024 1.09786e-15)
(-0.00555489 0.000222605 -1.62316e-16)
(-0.00524524 0.000195555 -1.66987e-16)
(-0.00496175 0.000165526 -2.64622e-16)
(-0.00469952 0.000133951 1.53998e-16)
(-0.00445341 0.000101638 -1.58231e-16)
(-0.00422184 7.07922e-05 -7.76232e-17)
(-0.00400456 4.22791e-05 1.911e-16)
(-0.00379774 1.70772e-05 -1.73123e-16)
(-0.0035993 -5.5725e-06 6.52343e-16)
(-0.00340888 -2.44695e-05 -3.24933e-16)
(-0.00322485 -3.97571e-05 1.45172e-15)
(-0.00304761 -5.09518e-05 -1.88109e-15)
(-0.00287655 -5.86728e-05 7.7327e-16)
(-0.00271219 -6.25833e-05 -3.53418e-16)
(-0.00255399 -6.3377e-05 3.26698e-16)
(-0.00240224 -6.10666e-05 -1.40769e-15)
(-0.0022565 -5.64636e-05 1.57023e-16)
(-0.00211721 -4.97172e-05 1.3495e-15)
(-0.00198396 -4.16976e-05 -4.8124e-17)
(-0.00185704 -3.25712e-05 1.88707e-16)
(-0.00173652 -2.30138e-05 -1.17771e-15)
(-0.00162262 -1.29516e-05 -1.72737e-16)
(-0.00151455 -2.69229e-06 7.31038e-16)
(-0.00141177 7.95471e-06 6.87044e-16)
(-0.00131409 1.86045e-05 -1.5347e-15)
(-0.00122211 2.92234e-05 2.46144e-16)
(-0.00113563 3.95131e-05 1.61724e-15)
(-0.00105418 4.95913e-05 -1.32514e-15)
(-0.000977036 5.93592e-05 9.19723e-16)
(-0.000904365 6.88431e-05 -7.36347e-16)
(-0.000836189 7.79486e-05 -1.78216e-16)
(-0.000772474 8.66772e-05 1.20866e-15)
(-0.000712481 9.50044e-05 -2.5912e-15)
(-0.000656064 0.000102899 -2.34337e-16)
(-0.000602973 0.000110325 -5.26151e-16)
(-0.00055359 0.000117385 2.11312e-15)
(-0.000507534 0.00012402 7.37649e-16)
(-0.000464802 0.000130347 -1.59007e-16)
(-0.000424831 0.000136272 1.24802e-15)
(-0.000387396 0.000141792 1.28975e-16)
(-0.000352267 0.000146952 3.6694e-16)
(-0.000319485 0.000151817 1.84923e-15)
(-0.000289132 0.000156473 2.81086e-16)
(-0.000261062 0.000160777 -2.69766e-15)
(-0.000235016 0.000164914 -5.02888e-16)
(-0.000210808 0.00016855 2.92261e-15)
(-0.000188563 0.000172227 -8.11272e-16)
(-0.000167851 0.000174961 -2.49701e-16)
(-0.000154414 0.000180928 -2.46653e-16)
(-0.000141479 0.000181532 2.31579e-16)
(-0.000129142 0.000184378 2.40009e-15)
(-0.000115335 0.000183924 1.01966e-15)
(-0.000104524 0.000190643 3.80514e-16)
(-8.9846e-05 0.000183797 -6.67427e-16)
(-8.74079e-05 0.000201596 8.46731e-16)
(-6.9621e-05 0.000175131 6.26633e-16)
(-8.51545e-05 0.000224993 -3.25102e-17)
(-5.23019e-05 0.000148158 -1.99689e-16)
(-0.000102966 0.000278078 -3.09818e-16)
(-2.83147e-05 8.51035e-05 4.2979e-16)
(0.0153932 -0.00230367 2.72295e-16)
(0.00997892 -0.00278598 4.67777e-17)
(0.000681598 -0.00269628 -2.3466e-16)
(0.00639225 -0.00246481 8.88007e-17)
(0.0187794 -0.00165033 2.53089e-16)
(0.0298837 -0.00064778 2.00692e-18)
(0.0355587 0.000263916 1.56706e-17)
(0.0356033 0.00123493 7.67045e-17)
(0.0309047 0.0022183 3.83874e-16)
(0.0203964 0.00261217 3.55575e-16)
(0.00319555 0.00205723 -2.3135e-16)
(-0.0107994 0.00138653 3.98618e-16)
(-0.0109296 0.00141467 4.35134e-17)
(-0.00712517 0.00144553 -2.57505e-18)
(-0.0056321 0.00116614 -3.06379e-16)
(-0.00590425 0.000956869 2.45068e-16)
(-0.00583529 0.000738087 3.27155e-16)
(-0.00564955 0.00058077 -1.40653e-16)
(-0.00539768 0.000453908 -4.83714e-16)
(-0.00513291 0.000348559 3.26515e-17)
(-0.0048781 0.000257774 -8.39895e-18)
(-0.00463852 0.000179144 1.76945e-17)
(-0.00441234 0.000113422 -1.44938e-16)
(-0.004195 6.0164e-05 3.11733e-16)
(-0.00398677 1.89599e-05 -1.67302e-16)
(-0.00378849 -1.31727e-05 -8.26813e-17)
(-0.0035992 -3.70761e-05 -1.88116e-16)
(-0.00341599 -5.45741e-05 4.92826e-17)
(-0.00323906 -6.68535e-05 -6.80738e-18)
(-0.00306745 -7.48618e-05 -4.54946e-17)
(-0.00290182 -7.9408e-05 2.85674e-17)
(-0.00274166 -8.07472e-05 -9.29944e-17)
(-0.00258734 -7.95299e-05 2.66427e-16)
(-0.00243855 -7.59539e-05 -2.3609e-18)
(-0.00229545 -7.05424e-05 -1.82493e-16)
(-0.00215775 -6.35539e-05 -1.18319e-16)
(-0.00202571 -5.54393e-05 7.11897e-17)
(-0.0018991 -4.64788e-05 1.59695e-16)
(-0.00177821 -3.69563e-05 -2.95391e-17)
(-0.00166327 -2.71966e-05 -3.13189e-16)
(-0.00155439 -1.72226e-05 2.88203e-16)
(-0.001451 -7.18902e-06 -1.4403e-15)
(-0.00135249 3.05383e-06 5.9088e-17)
(-0.00125889 1.33026e-05 -5.82787e-16)
(-0.00117053 2.3565e-05 -1.98153e-17)
(-0.00108748 3.35972e-05 9.50396e-16)
(-0.00100917 4.34522e-05 1.0057e-15)
(-0.000935141 5.30734e-05 1.85743e-16)
(-0.000865296 6.2485e-05 -2.23461e-16)
(-0.000799875 7.15753e-05 -8.67794e-17)
(-0.0007387 8.03104e-05 -4.92801e-16)
(-0.000681213 8.86607e-05 -2.55082e-17)
(-0.000627031 9.66114e-05 -5.11462e-16)
(-0.000576137 0.000104143 9.65656e-16)
(-0.000528615 0.000111221 4.68768e-16)
(-0.000484458 0.000117898 1.0101e-15)
(-0.000443345 0.000124154 -2.41346e-16)
(-0.000405051 0.000130072 3.03173e-16)
(-0.00036914 0.000135651 1.00373e-16)
(-0.000335503 0.00014097 1.6151e-16)
(-0.000304104 0.000146008 -2.57548e-15)
(-0.000275009 0.000150787 1.16425e-15)
(-0.000248111 0.000155235 5.66355e-16)
(-0.000223186 0.000159535 1.09882e-15)
(-0.000200055 0.000163298 -1.54539e-15)
(-0.000178759 0.000167079 -2.74563e-17)
(-0.000158978 0.000169876 -2.07657e-16)
(-0.000146301 0.000176006 -9.7443e-17)
(-0.000133861 0.000176541 8.84769e-19)
(-0.000121904 0.000179533 -3.07417e-15)
(-0.000108759 0.000178799 -2.58612e-15)
(-9.78794e-05 0.000185835 2.60133e-16)
(-8.48051e-05 0.00017874 1.52743e-15)
(-8.03732e-05 0.000196838 -1.81786e-16)
(-6.72853e-05 0.000170445 7.57229e-16)
(-7.57531e-05 0.000219543 -1.61954e-15)
(-5.49269e-05 0.000144635 5.73122e-16)
(-8.76112e-05 0.000270011 7.00409e-17)
(0.0147856 -0.000868549 -4.92247e-17)
(0.0127683 -0.00151978 -5.07577e-18)
(0.00280349 -0.00175342 1.56664e-16)
(-0.000556524 -0.00192569 1.16652e-16)
(0.00340426 -0.00164766 -4.22099e-18)
(0.0129145 -0.000901127 -1.84263e-17)
(0.022586 -3.52942e-06 8.38347e-18)
(0.0287106 0.000708482 -9.26795e-18)
(0.0302693 0.00111378 -8.90518e-17)
(0.0270518 0.00108884 -1.83767e-16)
(0.0168727 0.000408057 1.86067e-16)
(-0.000651228 -0.00096359 -4.0624e-17)
(-0.0124936 -0.00227982 -2.85091e-16)
(-0.0106187 -0.00143148 5.25331e-17)
(-0.00769518 -0.000864667 -2.12543e-17)
(-0.00558341 -0.000995276 3.55434e-16)
(-0.00605536 -0.000703963 1.20213e-16)
(-0.00596035 -0.000601154 -1.56828e-16)
(-0.00568475 -0.000476332 -1.78531e-16)
(-0.0053689 -0.000378982 -4.09608e-18)
(-0.00508091 -0.00031017 -1.52713e-16)
(-0.00481637 -0.000263696 2.29324e-16)
(-0.00456785 -0.000232891 -1.1281e-17)
(-0.00433062 -0.000210895 3.20765e-16)
(-0.00410286 -0.000194074 -3.27046e-16)
(-0.00388441 -0.000179834 -3.67814e-17)
(-0.00367565 -0.000168055 7.89098e-17)
(-0.00347565 -0.000157916 -1.21583e-16)
(-0.00328357 -0.000148867 4.72732e-17)
(-0.00309882 -0.0001398 -8.34574e-19)
(-0.00292142 -0.00013057 4.0442e-17)
(-0.00275141 -0.000120699 -2.35873e-18)
(-0.00258849 -0.000110344 -6.65034e-17)
(-0.00243276 -9.94051e-05 4.08423e-19)
(-0.00228384 -8.81678e-05 -8.12062e-17)
(-0.00214156 -7.6636e-05 2.92776e-16)
(-0.00200587 -6.50449e-05 -2.51936e-16)
(-0.00187659 -5.35461e-05 -4.38115e-18)
(-0.00175374 -4.22479e-05 2.03347e-16)
(-0.00163745 -3.12617e-05 7.67263e-16)
(-0.00152779 -2.05351e-05 2.65156e-16)
(-0.00142417 -1.00847e-05 1.64307e-15)
(-0.00132587 2.91939e-07 -1.04937e-16)
(-0.00123265 1.05134e-05 -2.21341e-16)
(-0.0011448 2.06387e-05 -1.33933e-16)
(-0.00106243 3.04835e-05 -1.75793e-16)
(-0.000985022 4.01532e-05 -1.31704e-15)
(-0.000912002 4.95843e-05 2.86892e-16)
(-0.000843215 5.88244e-05 -2.61605e-16)
(-0.000778855 6.77741e-05 -6.50856e-17)
(-0.000718793 7.63947e-05 2.77248e-16)
(-0.000662506 8.46919e-05 2.82309e-16)
(-0.000609482 9.26011e-05 3.23922e-16)