/*--------------------------------*- C++ -*----------------------------------*\
| =========                 |                                                 |
| \\      /  F ield         | OpenFOAM: The Open Source CFD Toolbox           |
|  \\    /   O peration     | Version:  2306                                  |
|   \\  /    A nd           | Website:  www.openfoam.com                      |
|    \\/     M anipulation  |                                                 |
\*---------------------------------------------------------------------------*/
FoamFile
{
    version     2.0;
    format      ascii;
    arch        "LSB;label=32;scalar=64";
    class       volScalarField;
    location    "225";
    object      nuTilda;
}
// * * * * * * * * * * * * * * * * * * * * * * * * * * * * * * * * * * * * * //

dimensions      [0 2 -1 0 0 0 0];

internalField   nonuniform List<scalar> 
1340
(
0.0872709
0.078897
0.06948
0.0547637
0.152656
0.147417
0.138997
0.145877
0.203547
0.204827
0.199148
0.209203
0.211026
0.227662
0.235209
0.251356
0.168999
0.211293
0.242539
0.272669
0.0874076
0.153224
0.216861
0.271251
0.0191572
0.0722637
0.158092
0.243869
0.000567307
0.0143994
0.0833192
0.190892
0.000131781
0.00390994
0.0259617
0.124329
0
3.4078e-05
0.00157381
0.066973
0
0
0.00100028
0.0302538
7.98713e-06
0
0.000255938
0.0116866
3.2179e-05
1.57325e-06
8.71788e-05
0.0037969
4.69086e-05
3.1726e-06
2.23792e-05
0.000926442
4.48948e-05
3.31592e-05
2.26514e-06
5.3542e-05
4.03687e-05
4.62666e-05
3.26331e-06
1.23325e-05
3.84503e-05
4.82235e-05
8.89342e-06
2.48225e-07
3.87054e-05
4.45247e-05
3.11603e-05
4.41713e-06
3.95314e-05
4.10192e-05
4.21306e-05
1.62293e-05
4.00667e-05
3.95318e-05
4.3753e-05
3.01773e-05
4.02222e-05
3.94219e-05
4.22186e-05
3.77196e-05
4.0188e-05
3.97313e-05
4.07803e-05
4.02443e-05
4.01213e-05
3.99793e-05
4.01274e-05
4.05574e-05
4.00811e-05
4.00813e-05
3.9983e-05
4.03274e-05
4.00678e-05
4.0097e-05
4.00131e-05
4.01424e-05
4.00672e-05
4.00867e-05
4.00559e-05
4.00754e-05
4.00692e-05
4.00771e-05
4.00748e-05
4.00685e-05
4.00705e-05
4.00732e-05
4.00776e-05
4.00751e-05
4.00709e-05
4.00725e-05
4.00756e-05
4.00792e-05
4.0071e-05
4.00728e-05
4.0074e-05
4.00797e-05
4.0071e-05
4.00731e-05
4.00734e-05
4.00791e-05
4.00712e-05
4.00733e-05
4.00734e-05
4.00785e-05
4.00715e-05
4.00735e-05
4.00736e-05
4.00782e-05
4.0071e-05
4.00718e-05
4.00737e-05
4.00738e-05
4.00782e-05
4.00714e-05
4.00722e-05
4.00739e-05
4.0074e-05
4.00782e-05
4.00719e-05
4.00726e-05
4.00743e-05
4.00743e-05
4.00783e-05
4.00724e-05
4.00731e-05
4.00746e-05
4.00747e-05
4.00784e-05
4.0073e-05
4.00736e-05
4.00751e-05
4.00751e-05
4.00786e-05
4.00735e-05
4.00741e-05
4.00755e-05
4.00756e-05
4.00788e-05
4.0074e-05
4.00747e-05
4.0076e-05
4.00761e-05
4.00792e-05
4.00746e-05
4.00752e-05
4.00765e-05
4.00766e-05
4.00795e-05
4.00752e-05
4.00758e-05
4.0077e-05
4.00771e-05
4.00799e-05
4.00757e-05
4.00763e-05
4.00776e-05
4.00777e-05
4.00803e-05
4.00762e-05
4.00769e-05
4.00781e-05
4.00783e-05
4.00808e-05
4.00767e-05
4.00774e-05
4.00786e-05
4.00788e-05
4.00813e-05
4.00764e-05
4.00772e-05
4.00779e-05
4.0079e-05
4.00794e-05
4.00817e-05
4.00768e-05
4.00775e-05
4.00783e-05
4.00794e-05
4.00798e-05
4.00821e-05
4.0077e-05
4.00778e-05
4.00786e-05
4.00798e-05
4.00803e-05
4.00825e-05
4.00772e-05
4.00781e-05
4.00789e-05
4.00801e-05
4.00806e-05
4.00829e-05
4.00773e-05
4.00782e-05
4.0079e-05
4.00803e-05
4.00809e-05
4.00831e-05
4.00772e-05
4.00781e-05
4.00791e-05
4.00803e-05
4.00811e-05
4.00833e-05
4.0077e-05
4.0078e-05
4.0079e-05
4.00803e-05
4.00811e-05
4.00833e-05
4.00766e-05
4.00777e-05
4.00787e-05
4.00801e-05
4.0081e-05
4.00832e-05
4.00761e-05
4.00772e-05
4.00783e-05
4.00797e-05
4.00807e-05
4.00829e-05
4.00743e-05
4.00753e-05
4.00765e-05
4.00777e-05
4.00791e-05
4.00803e-05
4.00824e-05
4.00732e-05
4.00744e-05
4.00756e-05
4.00768e-05
4.00783e-05
4.00796e-05
4.00817e-05
4.0072e-05
4.00732e-05
4.00744e-05
4.00757e-05
4.00773e-05
4.00787e-05
4.00808e-05
4.00706e-05
4.00718e-05
4.00731e-05
4.00744e-05
4.0076e-05
4.00775e-05
4.00797e-05
4.00689e-05
4.00702e-05
4.00715e-05
4.00729e-05
4.00745e-05
4.00761e-05
4.00783e-05
4.0067e-05
4.00683e-05
4.00696e-05
4.00711e-05
4.00728e-05
4.00744e-05
4.00766e-05
4.00645e-05
4.00659e-05
4.00674e-05
4.00689e-05
4.00707e-05
4.00725e-05
4.00747e-05
4.00599e-05
4.00614e-05
4.00629e-05
4.00645e-05
4.00661e-05
4.0068e-05
4.007e-05
4.00724e-05
4.00559e-05
4.00574e-05
4.0059e-05
4.00607e-05
4.00625e-05
4.00645e-05
4.00667e-05
4.00693e-05
4.00512e-05
4.00527e-05
4.00543e-05
4.00561e-05
4.0058e-05
4.00601e-05
4.00624e-05
4.00652e-05
4.00464e-05
4.00478e-05
4.00494e-05
4.0051e-05
4.00529e-05
4.0055e-05
4.00574e-05
4.00602e-05
4.00414e-05
4.00428e-05
4.00443e-05
4.00459e-05
4.00476e-05
4.00496e-05
4.00519e-05
4.00546e-05
4.00366e-05
4.00379e-05
4.00394e-05
4.00409e-05
4.00426e-05
4.00445e-05
4.00466e-05
4.00491e-05
4.0032e-05
4.00334e-05
4.00348e-05
4.00364e-05
4.00381e-05
4.004e-05
4.00421e-05
4.00445e-05
4.0026e-05
4.00272e-05
4.00286e-05
4.00301e-05
4.00317e-05
4.00334e-05
4.00353e-05
4.00375e-05
4.00399e-05
4.0021e-05
4.00221e-05
4.00234e-05
4.00247e-05
4.00262e-05
4.00278e-05
4.00297e-05
4.00318e-05
4.00343e-05
4.0016e-05
4.00169e-05
4.0018e-05
4.00192e-05
4.00204e-05
4.00219e-05
4.00235e-05
4.00254e-05
4.00277e-05
4.0011e-05
4.00118e-05
4.00126e-05
4.00136e-05
4.00147e-05
4.0016e-05
4.00174e-05
4.0019e-05
4.00211e-05
4.00066e-05
4.0007e-05
4.00075e-05
4.00081e-05
4.00088e-05
4.00097e-05
4.00108e-05
4.0012e-05
4.00136e-05
4.0007e-05
4.00068e-05
4.00066e-05
4.00064e-05
4.00064e-05
4.00065e-05
4.00068e-05
4.00072e-05
4.0008e-05
4.00122e-05
4.00119e-05
4.00116e-05
4.00112e-05
4.00108e-05
4.00104e-05
4.001e-05
4.00097e-05
4.00094e-05
4.00184e-05
4.00181e-05
4.00177e-05
4.00172e-05
4.00167e-05
4.0016e-05
4.00153e-05
4.00145e-05
4.00136e-05
4.0026e-05
4.00262e-05
4.00264e-05
4.00265e-05
4.00266e-05
4.00267e-05
4.00266e-05
4.00266e-05
4.00264e-05
4.0032e-05
4.00321e-05
4.0032e-05
4.00317e-05
4.00314e-05
4.00309e-05
4.00305e-05
4.003e-05
4.00298e-05
4.00296e-05
4.00424e-05
4.00441e-05
4.00459e-05
4.00479e-05
4.00499e-05
4.00519e-05
4.0054e-05
4.00561e-05
4.00588e-05
4.00613e-05
4.00601e-05
4.00605e-05
4.00607e-05
4.00607e-05
4.00607e-05
4.00606e-05
4.00608e-05
4.00613e-05
4.00622e-05
4.00629e-05
0.170263
0.211229
0.250855
0.294111
0.319016
0.32062
0.297253
0.24767
0.175122
0.0958686
0.039032
0.0136641
0.00414729
0.000926077
2.93349e-05
6.62281e-06
0
2.35608e-06
1.11598e-05
2.78543e-05
3.69804e-05
4.02029e-05
4.06753e-05
4.04151e-05
4.01805e-05
4.0088e-05
4.00738e-05
4.00805e-05
4.00855e-05
4.00862e-05
4.00851e-05
4.0084e-05
4.00832e-05
4.00827e-05
4.00824e-05
4.00821e-05
4.0082e-05
4.00818e-05
4.00818e-05
4.00818e-05
4.00819e-05
4.0082e-05
4.00822e-05
4.00824e-05
4.00826e-05
4.00829e-05
4.00831e-05
4.00833e-05
4.00835e-05
4.00836e-05
4.00837e-05
4.00838e-05
4.00838e-05
4.00836e-05
4.00832e-05
4.00826e-05
4.00818e-05
4.00807e-05
4.00793e-05
4.00778e-05
4.00759e-05
4.00736e-05
4.00706e-05
4.00666e-05
4.00616e-05
4.0056e-05
4.00504e-05
4.00457e-05
4.00412e-05
4.00355e-05
4.00289e-05
4.0022e-05
4.00145e-05
4.00084e-05
4.00092e-05
4.00132e-05
4.00262e-05
4.00294e-05
4.00629e-05
4.00632e-05
0.210297
0.25339
0.282172
0.310103
0.337737
0.348275
0.334472
0.293713
0.226491
0.140606
0.0607024
0.0179543
0.00486798
0.00116337
2.4734e-05
5.6163e-06
0
1.87173e-06
8.80981e-06
2.62448e-05
3.64722e-05
4.01251e-05
4.07232e-05
4.04668e-05
4.02061e-05
4.00962e-05
4.00763e-05
4.00825e-05
4.00879e-05
4.00887e-05
4.00873e-05
4.00858e-05
4.00847e-05
4.0084e-05
4.00834e-05
4.0083e-05
4.00826e-05
4.00824e-05
4.00823e-05
4.00823e-05
4.00824e-05
4.00825e-05
4.00827e-05
4.00829e-05
4.00831e-05
4.00834e-05
4.00836e-05
4.00839e-05
4.00841e-05
4.00842e-05
4.00843e-05
4.00844e-05
4.00844e-05
4.00843e-05
4.0084e-05
4.00834e-05
4.00826e-05
4.00815e-05
4.00802e-05
4.00787e-05
4.00768e-05
4.00745e-05
4.00716e-05
4.00676e-05
4.00626e-05
4.0057e-05
4.00513e-05
4.00466e-05
4.0042e-05
4.00363e-05
4.00296e-05
4.00226e-05
4.0015e-05
4.00086e-05
4.00091e-05
4.00131e-05
4.0026e-05
4.00293e-05
4.00639e-05
0.213624
0.263404
0.296659
0.318679
0.339381
0.356835
0.357584
0.333846
0.28243
0.204741
0.112152
0.0369141
0.00570243
0.00140269
6.67373e-07
0
0
1.24259e-06
5.81321e-06
2.29611e-05
3.51333e-05
3.99511e-05
4.08112e-05
4.05395e-05
4.02404e-05
4.01074e-05
4.0078e-05
4.00824e-05
4.00885e-05
4.00896e-05
4.00881e-05
4.00863e-05
4.00851e-05
4.00844e-05
4.00838e-05
4.00834e-05
4.00831e-05
4.00828e-05
4.00828e-05
4.00828e-05
4.00829e-05
4.00831e-05
4.00833e-05
4.00835e-05
4.00838e-05
4.00841e-05
4.00843e-05
4.00846e-05
4.00848e-05
4.0085e-05
4.0085e-05
4.00852e-05
4.00853e-05
4.00852e-05
4.00848e-05
4.00843e-05
4.00836e-05
4.00825e-05
4.00812e-05
4.00796e-05
4.00778e-05
4.00756e-05
4.00726e-05
4.00686e-05
4.00637e-05
4.00579e-05
4.00522e-05
4.00474e-05
4.00428e-05
4.00371e-05
4.00303e-05
4.00232e-05
4.00156e-05
4.00088e-05
4.0009e-05
4.00131e-05
4.00258e-05
4.00292e-05
0.198143
0.252575
0.2931
0.319715
0.337144
0.352907
0.364075
0.35929
0.330711
0.274536
0.192103
0.0976822
0.0256019
0.00228661
0.000527771
0
0
5.63004e-08
2.61871e-07
1.96665e-05
3.28971e-05
3.91092e-05
4.08179e-05
4.07124e-05
4.03203e-05
4.01222e-05
4.00772e-05
4.0081e-05
4.0088e-05
4.00899e-05
4.00886e-05
4.00867e-05
4.00855e-05
4.00848e-05
4.00843e-05
4.00839e-05
4.00836e-05
4.00834e-05
4.00834e-05
4.00835e-05
4.00836e-05
4.00838e-05
4.0084e-05
4.00843e-05
4.00845e-05
4.00849e-05
4.00852e-05
4.00854e-05
4.00857e-05
4.00859e-05
4.0086e-05
4.00861e-05
4.00862e-05
4.00861e-05
4.00858e-05
4.00853e-05
4.00846e-05
4.00836e-05
4.00823e-05
4.00807e-05
4.00789e-05
4.00766e-05
4.00737e-05
4.00698e-05
4.00648e-05
4.0059e-05
4.00532e-05
4.00483e-05
4.00437e-05
4.00379e-05
4.00311e-05
4.00239e-05
4.00162e-05
4.00091e-05
4.00089e-05
4.0013e-05
4.00256e-05
0.168022
0.226673
0.274366
0.309199
0.331901
0.346497
0.359021
0.366599
0.359141
0.328771
0.271045
0.187169
0.0925254
0.0235594
0.00601513
0
0
0
7.62169e-07
3.51056e-06
2.84424e-05
3.90815e-05
4.08417e-05
4.07408e-05
4.04312e-05
4.01827e-05
4.00821e-05
4.00751e-05
4.00862e-05
4.00901e-05
4.0089e-05
4.00872e-05
4.00859e-05
4.00852e-05
4.00848e-05
4.00845e-05
4.00842e-05
4.0084e-05
4.0084e-05
4.00841e-05
4.00843e-05
4.00845e-05
4.00848e-05
4.0085e-05
4.00854e-05
4.00857e-05
4.0086e-05
4.00863e-05
4.00866e-05
4.00868e-05
4.00869e-05
4.00871e-05
4.00872e-05
4.00871e-05
4.00869e-05
4.00864e-05
4.00857e-05
4.00847e-05
4.00834e-05
4.00818e-05
4.008e-05
4.00778e-05
4.00749e-05
4.00709e-05
4.0066e-05
4.00601e-05
4.00542e-05
4.00493e-05
4.00446e-05
4.00388e-05
4.00319e-05
4.00246e-05
4.00168e-05
4.00094e-05
4.00088e-05
4.00129e-05
0.125524
0.187643
0.2421
0.285792
0.317576
0.338263
0.351277
0.361658
0.367253
0.358791
0.328296
0.270753
0.187043
0.0926155
0.0234177
0.0060575
4.52771e-05
0
0
4.56379e-07
1.63383e-06
3.17955e-05
4.19382e-05
4.1644e-05
4.05273e-05
4.02002e-05
4.0111e-05
4.00775e-05
4.00803e-05
4.00888e-05
4.00896e-05
4.00876e-05
4.00862e-05
4.00856e-05
4.00852e-05
4.0085e-05
4.00848e-05
4.00847e-05
4.00847e-05
4.00848e-05
4.0085e-05
4.00853e-05
4.00856e-05
4.00859e-05
4.00862e-05
4.00866e-05
4.00869e-05
4.00873e-05
4.00876e-05
4.00878e-05
4.00879e-05
4.00881e-05
4.00882e-05
4.00882e-05
4.0088e-05
4.00875e-05
4.00868e-05
4.00858e-05
4.00845e-05
4.0083e-05
4.00812e-05
4.0079e-05
4.00761e-05
4.00722e-05
4.00672e-05
4.00613e-05
4.00553e-05
4.00503e-05
4.00456e-05
4.00397e-05
4.00328e-05
4.00253e-05
4.00174e-05
4.00097e-05
0.0746079
0.136645
0.196749
0.24889
0.290702
0.321258
0.341237
0.353532
0.362451
0.367024
0.358589
0.32902
0.272816
0.190397
0.0970894
0.026609
0.0018251
0.00044463
0
0
4.93094e-08
7.85876e-06
3.2135e-05
4.31201e-05
4.18958e-05
4.02894e-05
4.00302e-05
4.00845e-05
4.00881e-05
4.00846e-05
4.00882e-05
4.00887e-05
4.00869e-05
4.00858e-05
4.00856e-05
4.00855e-05
4.00854e-05
4.00853e-05
4.00853e-05
4.00855e-05
4.00857e-05
4.0086e-05
4.00864e-05
4.00867e-05
4.00871e-05
4.00875e-05
4.00879e-05
4.00882e-05
4.00885e-05
4.00888e-05
4.0089e-05
4.00892e-05
4.00893e-05
4.00893e-05
4.00891e-05
4.00887e-05
4.0088e-05
4.00871e-05
4.00858e-05
4.00842e-05
4.00824e-05
4.00802e-05
4.00774e-05
4.00735e-05
4.00685e-05
4.00625e-05
4.00564e-05
4.00513e-05
4.00466e-05
4.00407e-05
4.00337e-05
4.00261e-05
0.0271178
0.0775044
0.138818
0.197982
0.249454
0.290991
0.321657
0.341914
0.354145
0.362085
0.366254
0.35853
0.330634
0.276573
0.19627
0.104199
0.0338137
0.00096324
0.000269356
0
0
0
7.83994e-06
3.19952e-05
4.35355e-05
4.22053e-05
4.01397e-05
3.98892e-05
4.00756e-05
4.01108e-05
4.00894e-05
4.00849e-05
4.0087e-05
4.00868e-05
4.0086e-05
4.00858e-05
4.00859e-05
4.00859e-05
4.0086e-05
4.00862e-05
4.00865e-05
4.00868e-05
4.00872e-05
4.00875e-05
4.0088e-05
4.00884e-05
4.00888e-05
4.00892e-05
4.00896e-05
4.00899e-05
4.00901e-05
4.00903e-05
4.00905e-05
4.00905e-05
4.00903e-05
4.009e-05
4.00893e-05
4.00883e-05
4.00871e-05
4.00855e-05
4.00837e-05
4.00815e-05
4.00787e-05
4.00749e-05
4.00699e-05
4.00638e-05
4.00576e-05
4.00525e-05
4.00477e-05
0.00233585
0.0249517
0.0733238
0.133699
0.192977
0.245103
0.28761
0.319435
0.340764
0.353481
0.360821
0.364999
0.358463
0.332778
0.281486
0.203846
0.113682
0.0388475
0.00189701
0.000550958
0
0
0
7.00248e-06
2.80836e-05
4.32232e-05
4.27599e-05
4.01439e-05
3.97166e-05
4.00287e-05
4.0133e-05
4.01019e-05
4.00836e-05
4.00848e-05
4.00867e-05
4.00865e-05
4.00864e-05
4.00865e-05
4.00866e-05
4.00868e-05
4.00872e-05
4.00876e-05
4.0088e-05
4.00884e-05
4.00888e-05
4.00893e-05
4.00898e-05
4.00902e-05
4.00906e-05
4.0091e-05
4.00912e-05
4.00915e-05
4.00916e-05
4.00917e-05
4.00916e-05
4.00912e-05
4.00906e-05
4.00897e-05
4.00884e-05
4.00869e-05
4.00851e-05
4.00829e-05
4.00801e-05
4.00763e-05
4.00713e-05
4.00652e-05
0.000212851
0.000812172
0.0194013
0.0634887
0.12247
0.182563
0.236411
0.280939
0.314822
0.337937
0.351686
0.358946
0.363283
0.358175
0.335066
0.287009
0.212868
0.124062
0.0458988
0.00454399
0.00125803
0
0
0
5.30852e-06
2.07112e-05
4.17843e-05
4.37627e-05
4.06147e-05
3.96128e-05
3.99147e-05
4.01202e-05
4.01136e-05
4.00862e-05
4.00836e-05
4.00865e-05
4.00871e-05
4.00871e-05
4.00872e-05
4.00875e-05
4.00879e-05
4.00883e-05
4.00888e-05
4.00892e-05
4.00897e-05
4.00903e-05
4.00908e-05
4.00913e-05
4.00917e-05
4.00921e-05
4.00924e-05
4.00927e-05
4.00929e-05
4.0093e-05
4.00929e-05
4.00926e-05
4.0092e-05
4.00911e-05
4.00899e-05
4.00883e-05
4.00865e-05
4.00844e-05
0
7.94895e-06
0.00331981
0.0133603
0.0507091
0.106605
0.167384
0.223614
0.271028
0.307796
0.333446
0.348991
0.357336
0.361709
0.357895
0.337439
0.292937
0.222408
0.134825
0.0542187
0.00841251
0.00227264
0
0
0
2.74718e-06
9.78144e-06
3.7234e-05
4.42776e-05
4.14986e-05
3.97974e-05
3.98393e-05
4.00848e-05
4.01171e-05
4.00904e-05
4.00836e-05
4.00863e-05
4.00877e-05
4.00879e-05
4.00881e-05
4.00885e-05
4.0089e-05
4.00896e-05
4.00901e-05
4.00907e-05
4.00912e-05
4.00918e-05
4.00923e-05
4.00928e-05
4.00933e-05
4.00936e-05
4.00939e-05
4.00942e-05
4.00943e-05
4.00943e-05
4.0094e-05
4.00934e-05
1.80787e-08
0
0
0.00203637
0.0081297
0.037107
0.0879352
0.148363
0.207055
0.257944
0.298338
0.327318
0.345531
0.355442
0.360006
0.357493
0.339747
0.298971
0.231989
0.145969
0.0635043
0.0133214
0.003559
0
0
0
6.49203e-07
1.56742e-06
3.24105e-05
4.31949e-05
4.20553e-05
4.00481e-05
3.98205e-05
4.00534e-05
4.01175e-05
4.00956e-05
4.00853e-05
4.00871e-05
4.00887e-05
4.0089e-05
4.00893e-05
4.00898e-05
4.00903e-05
4.00909e-05
4.00916e-05
4.00922e-05
4.00928e-05
4.00934e-05
4.0094e-05
4.00945e-05
2.14042e-06
6.06648e-07
0
0
0.000838838
0.00323139
0.0239191
0.0676492
0.126126
0.186887
0.24164
0.286346
0.319403
0.340964
0.352934
0.357955
0.356809
0.34184
0.304818
0.241476
0.157384
0.0735729
0.0195017
0.00513422
8.35648e-06
0
0
5.08407e-08
7.16367e-06
2.87298e-05
4.2245e-05
4.2347e-05
4.02358e-05
3.97895e-05
4.00136e-05
4.01116e-05
4.00977e-05
4.00857e-05
)
;

boundaryField
{
    inlet
    {
        type            freestream;
        freestreamValue uniform 4e-05;
        value           nonuniform List<scalar> 
11
(
4.00601e-05
4.00605e-05
4.00607e-05
4.00607e-05
4.00607e-05
4.00606e-05
4.00608e-05
4.00613e-05
4.00622e-05
4.00629e-05
4.00632e-05
)
;
    }
    outlet
    {
        type            freestream;
        freestreamValue nonuniform List<scalar> 0();
        value           nonuniform List<scalar> 0();
    }
    walls
    {
        type            fixedValue;
        value           uniform 0;
    }
    frontAndBack
    {
        type            empty;
    }
    procBoundary6to2
    {
        type            processor;
        value           nonuniform List<scalar> 
13
(
0.125731
0.148087
0.148807
0.132305
0.101373
0.0620185
0.0238533
0.0023631
0.000587319
0
0
8.30668e-06
3.69094e-05
)
;
    }
    procBoundary6to3
    {
        type            processor;
        value           uniform 3.97422e-05;
    }
    procBoundary6to5
    {
        type            processor;
        value           nonuniform List<scalar> 
86
(
0.0931331
0.158108
0.200665
0.188823
0.118168
0.0349077
0.00149764
0.000359743
0
0
8.64632e-06
3.53109e-05
4.40593e-05
4.08648e-05
3.91322e-05
3.95683e-05
4.02335e-05
4.04027e-05
4.02717e-05
4.01214e-05
4.00514e-05
4.00427e-05
4.00549e-05
4.00658e-05
4.00704e-05
4.00709e-05
4.00702e-05
4.00697e-05
4.00696e-05
4.00697e-05
4.007e-05
4.00703e-05
4.00706e-05
4.00706e-05
4.00702e-05
4.00707e-05
4.00712e-05
4.00717e-05
4.00723e-05
4.00728e-05
4.00734e-05
4.00739e-05
4.00745e-05
4.00751e-05
4.00756e-05
4.0076e-05
4.0076e-05
4.00758e-05
4.00761e-05
4.00763e-05
4.00764e-05
4.00764e-05
4.00763e-05
4.00761e-05
4.00757e-05
4.00751e-05
4.00751e-05
4.00732e-05
4.00722e-05
4.00709e-05
4.00694e-05
4.00677e-05
4.00657e-05
4.00632e-05
4.00632e-05
4.00586e-05
4.00545e-05
4.00498e-05
4.0045e-05
4.00402e-05
4.00353e-05
4.00307e-05
4.00307e-05
4.00248e-05
4.002e-05
4.00151e-05
4.00103e-05
4.00062e-05
4.00072e-05
4.00125e-05
4.00186e-05
4.00259e-05
4.00259e-05
4.00315e-05
4.00411e-05
4.00595e-05
)
;
    }
    procBoundary6to7
    {
        type            processor;
        value           nonuniform List<scalar> 
91
(
4.00636e-05
4.00636e-05
4.0065e-05
4.0065e-05
4.00291e-05
4.00291e-05
4.00253e-05
4.00087e-05
4.00253e-05
4.00128e-05
4.00181e-05
4.00087e-05
4.00101e-05
4.00417e-05
4.00347e-05
4.00181e-05
4.00269e-05
4.00589e-05
4.00537e-05
4.00417e-05
4.00488e-05
4.00816e-05
4.00778e-05
4.00728e-05
4.00589e-05
4.00667e-05
4.00926e-05
4.00914e-05
4.00899e-05
4.0088e-05
4.00816e-05
4.00859e-05
4.00949e-05
4.00952e-05
4.00955e-05
4.00957e-05
4.00957e-05
4.00955e-05
4.00926e-05
4.00949e-05
4.00868e-05
4.00887e-05
4.00896e-05
4.00905e-05
4.00912e-05
4.00918e-05
4.00925e-05
4.00931e-05
4.00939e-05
4.00945e-05
4.00952e-05
4.00949e-05
4.00957e-05
8.99583e-06
2.3304e-06
0
0
4.18927e-05
3.48503e-05
0.0133574
0.0480217
0.101874
0.163374
0.22187
0.271354
0.30914
0.334693
0.349252
0.355165
0.355368
0.34315
0.309931
0.25043
0.168658
0.0842904
0.0255439
0.000311682
0.00010849
0
0
0
6.24262e-06
2.4952e-05
4.14389e-05
4.28331e-05
4.04975e-05
3.97743e-05
3.99808e-05
4.01141e-05
4.00868e-05
4.01062e-05
)
;
    }
}


// ************************************************************************* //
