/*--------------------------------*- C++ -*----------------------------------*\
| =========                 |                                                 |
| \\      /  F ield         | OpenFOAM: The Open Source CFD Toolbox           |
|  \\    /   O peration     | Version:  2306                                  |
|   \\  /    A nd           | Website:  www.openfoam.com                      |
|    \\/     M anipulation  |                                                 |
\*---------------------------------------------------------------------------*/
FoamFile
{
    version     2.0;
    format      ascii;
    arch        "LSB;label=32;scalar=64";
    class       volScalarField;
    location    "225";
    object      turbulenceProperties:nuEff;
}
// * * * * * * * * * * * * * * * * * * * * * * * * * * * * * * * * * * * * * //

dimensions      [0 2 -1 0 0 0 0];

internalField   nonuniform List<scalar> 
1340
(
0.0872809
0.078907
0.06949
0.0547737
0.152666
0.147427
0.139007
0.145887
0.203557
0.204837
0.199158
0.209213
0.211036
0.227672
0.235219
0.251366
0.169009
0.211303
0.242549
0.272679
0.0874176
0.153234
0.216871
0.271261
0.0191672
0.0722737
0.158102
0.243879
0.000576197
0.0144094
0.0833292
0.190902
0.000123958
0.00391991
0.0259717
0.124339
1e-05
1.33929e-05
0.00158367
0.066983
1e-05
1e-05
0.00100992
0.0302638
1.00114e-05
1e-05
0.000260588
0.0116966
1.27407e-05
1e-05
6.66029e-05
0.00380687
2.04999e-05
1.00003e-05
1.06795e-05
0.000936025
1.90598e-05
1.30656e-05
1.00001e-05
2.607e-05
1.62679e-05
2.00277e-05
1.00003e-05
1.00643e-05
1.52699e-05
2.1505e-05
1.00174e-05
1e-05
1.53963e-05
1.88084e-05
1.24288e-05
1.00011e-05
1.58189e-05
1.66312e-05
1.72813e-05
1.01915e-05
1.61035e-05
1.58191e-05
1.82973e-05
1.21519e-05
1.61879e-05
1.57617e-05
1.73344e-05
1.49183e-05
1.61693e-05
1.59242e-05
1.64963e-05
1.61999e-05
1.61331e-05
1.60565e-05
1.61364e-05
1.6372e-05
1.61113e-05
1.61115e-05
1.60585e-05
1.62453e-05
1.61042e-05
1.612e-05
1.60747e-05
1.61445e-05
1.61038e-05
1.61144e-05
1.60978e-05
1.61083e-05
1.61049e-05
1.61092e-05
1.61079e-05
1.61045e-05
1.61056e-05
1.61071e-05
1.61094e-05
1.61081e-05
1.61058e-05
1.61067e-05
1.61084e-05
1.61103e-05
1.61059e-05
1.61069e-05
1.61075e-05
1.61106e-05
1.61059e-05
1.6107e-05
1.61072e-05
1.61103e-05
1.6106e-05
1.61071e-05
1.61072e-05
1.61099e-05
1.61062e-05
1.61072e-05
1.61073e-05
1.61098e-05
1.61059e-05
1.61063e-05
1.61073e-05
1.61074e-05
1.61097e-05
1.61061e-05
1.61065e-05
1.61075e-05
1.61075e-05
1.61098e-05
1.61064e-05
1.61068e-05
1.61077e-05
1.61077e-05
1.61098e-05
1.61067e-05
1.6107e-05
1.61079e-05
1.61079e-05
1.61099e-05
1.61069e-05
1.61073e-05
1.61081e-05
1.61081e-05
1.611e-05
1.61072e-05
1.61076e-05
1.61083e-05
1.61084e-05
1.61101e-05
1.61075e-05
1.61079e-05
1.61086e-05
1.61086e-05
1.61103e-05
1.61078e-05
1.61082e-05
1.61089e-05
1.61089e-05
1.61105e-05
1.61081e-05
1.61085e-05
1.61091e-05
1.61092e-05
1.61107e-05
1.61084e-05
1.61088e-05
1.61094e-05
1.61095e-05
1.61109e-05
1.61087e-05
1.61091e-05
1.61097e-05
1.61098e-05
1.61112e-05
1.6109e-05
1.61093e-05
1.611e-05
1.61101e-05
1.61114e-05
1.61088e-05
1.61092e-05
1.61096e-05
1.61102e-05
1.61104e-05
1.61117e-05
1.6109e-05
1.61094e-05
1.61098e-05
1.61104e-05
1.61107e-05
1.61119e-05
1.61091e-05
1.61096e-05
1.611e-05
1.61106e-05
1.61109e-05
1.61121e-05
1.61092e-05
1.61097e-05
1.61101e-05
1.61108e-05
1.61111e-05
1.61123e-05
1.61093e-05
1.61097e-05
1.61102e-05
1.61109e-05
1.61112e-05
1.61124e-05
1.61092e-05
1.61097e-05
1.61102e-05
1.61109e-05
1.61113e-05
1.61125e-05
1.61091e-05
1.61097e-05
1.61102e-05
1.61109e-05
1.61113e-05
1.61125e-05
1.61089e-05
1.61095e-05
1.61101e-05
1.61108e-05
1.61113e-05
1.61125e-05
1.61086e-05
1.61092e-05
1.61098e-05
1.61106e-05
1.61111e-05
1.61123e-05
1.61076e-05
1.61082e-05
1.61088e-05
1.61095e-05
1.61103e-05
1.61109e-05
1.61121e-05
1.61071e-05
1.61077e-05
1.61083e-05
1.6109e-05
1.61098e-05
1.61105e-05
1.61117e-05
1.61064e-05
1.61071e-05
1.61077e-05
1.61084e-05
1.61093e-05
1.611e-05
1.61112e-05
1.61057e-05
1.61063e-05
1.6107e-05
1.61077e-05
1.61086e-05
1.61094e-05
1.61106e-05
1.61048e-05
1.61054e-05
1.61061e-05
1.61069e-05
1.61078e-05
1.61086e-05
1.61098e-05
1.61037e-05
1.61044e-05
1.61052e-05
1.61059e-05
1.61068e-05
1.61077e-05
1.61089e-05
1.61024e-05
1.61031e-05
1.61039e-05
1.61048e-05
1.61057e-05
1.61067e-05
1.61079e-05
1.60999e-05
1.61007e-05
1.61015e-05
1.61024e-05
1.61033e-05
1.61043e-05
1.61053e-05
1.61066e-05
1.60977e-05
1.60985e-05
1.60994e-05
1.61003e-05
1.61013e-05
1.61024e-05
1.61035e-05
1.61049e-05
1.60952e-05
1.6096e-05
1.60969e-05
1.60978e-05
1.60988e-05
1.61e-05
1.61012e-05
1.61027e-05
1.60926e-05
1.60934e-05
1.60942e-05
1.60951e-05
1.60961e-05
1.60973e-05
1.60985e-05
1.61001e-05
1.60899e-05
1.60907e-05
1.60915e-05
1.60923e-05
1.60933e-05
1.60944e-05
1.60956e-05
1.6097e-05
1.60873e-05
1.6088e-05
1.60888e-05
1.60896e-05
1.60905e-05
1.60916e-05
1.60927e-05
1.60941e-05
1.60848e-05
1.60856e-05
1.60864e-05
1.60872e-05
1.60881e-05
1.60892e-05
1.60903e-05
1.60916e-05
1.60816e-05
1.60823e-05
1.6083e-05
1.60838e-05
1.60847e-05
1.60856e-05
1.60866e-05
1.60878e-05
1.60891e-05
1.60789e-05
1.60795e-05
1.60802e-05
1.60809e-05
1.60817e-05
1.60826e-05
1.60836e-05
1.60847e-05
1.60861e-05
1.60762e-05
1.60767e-05
1.60773e-05
1.60779e-05
1.60786e-05
1.60794e-05
1.60803e-05
1.60813e-05
1.60825e-05
1.60735e-05
1.6074e-05
1.60744e-05
1.6075e-05
1.60756e-05
1.60762e-05
1.6077e-05
1.60779e-05
1.6079e-05
1.60712e-05
1.60714e-05
1.60716e-05
1.6072e-05
1.60724e-05
1.60728e-05
1.60734e-05
1.60741e-05
1.6075e-05
1.60714e-05
1.60713e-05
1.60712e-05
1.60711e-05
1.60711e-05
1.60711e-05
1.60713e-05
1.60715e-05
1.60719e-05
1.60742e-05
1.6074e-05
1.60739e-05
1.60737e-05
1.60734e-05
1.60732e-05
1.6073e-05
1.60728e-05
1.60727e-05
1.60775e-05
1.60774e-05
1.60771e-05
1.60769e-05
1.60766e-05
1.60763e-05
1.60759e-05
1.60755e-05
1.60749e-05
1.60816e-05
1.60817e-05
1.60818e-05
1.60819e-05
1.60819e-05
1.6082e-05
1.6082e-05
1.6082e-05
1.60818e-05
1.60849e-05
1.60849e-05
1.60848e-05
1.60847e-05
1.60845e-05
1.60843e-05
1.60841e-05
1.60838e-05
1.60837e-05
1.60836e-05
1.60905e-05
1.60914e-05
1.60924e-05
1.60934e-05
1.60945e-05
1.60956e-05
1.60967e-05
1.60979e-05
1.60993e-05
1.61006e-05
1.61e-05
1.61002e-05
1.61003e-05
1.61003e-05
1.61003e-05
1.61003e-05
1.61004e-05
1.61006e-05
1.61011e-05
1.61015e-05
0.170273
0.211239
0.250865
0.294121
0.319026
0.32063
0.297263
0.24768
0.175132
0.0958786
0.039042
0.0136741
0.00415727
0.00093566
1.19327e-05
1.00054e-05
1e-05
1.00001e-05
1.00432e-05
1.15861e-05
1.45784e-05
1.61774e-05
1.64376e-05
1.62934e-05
1.61652e-05
1.6115e-05
1.61074e-05
1.6111e-05
1.61137e-05
1.61141e-05
1.61135e-05
1.61129e-05
1.61125e-05
1.61122e-05
1.6112e-05
1.61119e-05
1.61118e-05
1.61117e-05
1.61117e-05
1.61117e-05
1.61118e-05
1.61118e-05
1.61119e-05
1.6112e-05
1.61122e-05
1.61123e-05
1.61124e-05
1.61125e-05
1.61126e-05
1.61127e-05
1.61127e-05
1.61128e-05
1.61128e-05
1.61127e-05
1.61125e-05
1.61122e-05
1.61117e-05
1.61111e-05
1.61104e-05
1.61095e-05
1.61085e-05
1.61073e-05
1.61057e-05
1.61035e-05
1.61008e-05
1.60978e-05
1.60948e-05
1.60923e-05
1.60898e-05
1.60867e-05
1.60832e-05
1.60795e-05
1.60754e-05
1.60721e-05
1.60726e-05
1.60747e-05
1.60817e-05
1.60834e-05
1.61015e-05
1.61017e-05
0.210307
0.2534
0.282182
0.310113
0.337747
0.348285
0.334482
0.293723
0.226501
0.140616
0.0607124
0.0179643
0.00487796
0.0011731
1.10033e-05
1.00028e-05
1e-05
1e-05
1.00168e-05
1.12618e-05
1.43538e-05
1.61351e-05
1.64643e-05
1.63219e-05
1.61791e-05
1.61195e-05
1.61088e-05
1.61121e-05
1.6115e-05
1.61154e-05
1.61147e-05
1.61139e-05
1.61133e-05
1.61129e-05
1.61126e-05
1.61123e-05
1.61121e-05
1.6112e-05
1.6112e-05
1.6112e-05
1.6112e-05
1.61121e-05
1.61122e-05
1.61123e-05
1.61124e-05
1.61126e-05
1.61127e-05
1.61128e-05
1.61129e-05
1.6113e-05
1.6113e-05
1.61131e-05
1.61131e-05
1.61131e-05
1.61129e-05
1.61126e-05
1.61122e-05
1.61116e-05
1.61109e-05
1.611e-05
1.6109e-05
1.61078e-05
1.61062e-05
1.6104e-05
1.61014e-05
1.60983e-05
1.60953e-05
1.60927e-05
1.60902e-05
1.60872e-05
1.60835e-05
1.60798e-05
1.60757e-05
1.60722e-05
1.60725e-05
1.60747e-05
1.60816e-05
1.60834e-05
1.61021e-05
0.213634
0.263414
0.296669
0.318689
0.339391
0.356845
0.357594
0.333856
0.28244
0.204751
0.112162
0.0369241
0.00571242
0.00141251
1e-05
1e-05
1e-05
1e-05
1.00032e-05
1.07512e-05
1.37969e-05
1.60414e-05
1.65136e-05
1.63621e-05
1.61978e-05
1.61256e-05
1.61096e-05
1.6112e-05
1.61153e-05
1.6116e-05
1.61151e-05
1.61141e-05
1.61135e-05
1.61131e-05
1.61128e-05
1.61126e-05
1.61124e-05
1.61123e-05
1.61122e-05
1.61123e-05
1.61123e-05
1.61124e-05
1.61125e-05
1.61126e-05
1.61128e-05
1.61129e-05
1.61131e-05
1.61132e-05
1.61133e-05
1.61134e-05
1.61135e-05
1.61136e-05
1.61136e-05
1.61135e-05
1.61134e-05
1.61131e-05
1.61127e-05
1.61121e-05
1.61114e-05
1.61106e-05
1.61096e-05
1.61083e-05
1.61068e-05
1.61046e-05
1.61019e-05
1.60988e-05
1.60957e-05
1.60932e-05
1.60907e-05
1.60876e-05
1.60839e-05
1.60801e-05
1.6076e-05
1.60724e-05
1.60725e-05
1.60747e-05
1.60815e-05
1.60833e-05
0.198153
0.252585
0.29311
0.319725
0.337154
0.352917
0.364085
0.3593
0.330721
0.274546
0.192113
0.0976922
0.0256119
0.00229654
0.000536489
1e-05
1e-05
1e-05
1e-05
1.04093e-05
1.29763e-05
1.56004e-05
1.65175e-05
1.64583e-05
1.62414e-05
1.61335e-05
1.61092e-05
1.61113e-05
1.61151e-05
1.61161e-05
1.61154e-05
1.61144e-05
1.61137e-05
1.61133e-05
1.61131e-05
1.61129e-05
1.61127e-05
1.61126e-05
1.61126e-05
1.61126e-05
1.61127e-05
1.61128e-05
1.61129e-05
1.6113e-05
1.61132e-05
1.61134e-05
1.61135e-05
1.61137e-05
1.61138e-05
1.61139e-05
1.6114e-05
1.6114e-05
1.61141e-05
1.6114e-05
1.61139e-05
1.61136e-05
1.61132e-05
1.61127e-05
1.6112e-05
1.61111e-05
1.61101e-05
1.61089e-05
1.61073e-05
1.61052e-05
1.61025e-05
1.60994e-05
1.60963e-05
1.60936e-05
1.60911e-05
1.6088e-05
1.60844e-05
1.60805e-05
1.60763e-05
1.60725e-05
1.60724e-05
1.60746e-05
1.60814e-05
0.168032
0.226683
0.274376
0.309209
0.331911
0.346507
0.359031
0.366609
0.359151
0.328781
0.271055
0.187179
0.0925354
0.0235694
0.00602512
1e-05
1e-05
1e-05
1e-05
1.00004e-05
1.1718e-05
1.55863e-05
1.65308e-05
1.64742e-05
1.63023e-05
1.61664e-05
1.61119e-05
1.61081e-05
1.61141e-05
1.61162e-05
1.61156e-05
1.61146e-05
1.61139e-05
1.61135e-05
1.61133e-05
1.61132e-05
1.6113e-05
1.61129e-05
1.61129e-05
1.6113e-05
1.61131e-05
1.61132e-05
1.61133e-05
1.61135e-05
1.61136e-05
1.61138e-05
1.6114e-05
1.61142e-05
1.61143e-05
1.61144e-05
1.61145e-05
1.61146e-05
1.61146e-05
1.61146e-05
1.61145e-05
1.61142e-05
1.61138e-05
1.61133e-05
1.61126e-05
1.61117e-05
1.61107e-05
1.61095e-05
1.6108e-05
1.61059e-05
1.61032e-05
1.61e-05
1.60968e-05
1.60942e-05
1.60916e-05
1.60885e-05
1.60848e-05
1.60809e-05
1.60767e-05
1.60727e-05
1.60723e-05
1.60746e-05
0.125534
0.187653
0.24211
0.285802
0.317586
0.338273
0.351287
0.361668
0.367263
0.358801
0.328306
0.270763
0.187053
0.0926255
0.0234277
0.00606749
1.93239e-05
1e-05
1e-05
1e-05
1e-05
1.26202e-05
1.71661e-05
1.69921e-05
1.63554e-05
1.61759e-05
1.61275e-05
1.61094e-05
1.61109e-05
1.61155e-05
1.61159e-05
1.61149e-05
1.61141e-05
1.61138e-05
1.61136e-05
1.61134e-05
1.61134e-05
1.61133e-05
1.61133e-05
1.61133e-05
1.61135e-05
1.61136e-05
1.61137e-05
1.61139e-05
1.61141e-05
1.61143e-05
1.61145e-05
1.61147e-05
1.61148e-05
1.6115e-05
1.6115e-05
1.61151e-05
1.61152e-05
1.61152e-05
1.61151e-05
1.61148e-05
1.61144e-05
1.61139e-05
1.61132e-05
1.61124e-05
1.61114e-05
1.61102e-05
1.61086e-05
1.61065e-05
1.61038e-05
1.61006e-05
1.60974e-05
1.60947e-05
1.60922e-05
1.6089e-05
1.60853e-05
1.60812e-05
1.6077e-05
1.60729e-05
0.0746179
0.136655
0.196759
0.2489
0.290712
0.321268
0.341247
0.353542
0.362461
0.367034
0.358599
0.32903
0.272826
0.190407
0.0970994
0.026619
0.001835
0.000452827
1e-05
1e-05
1e-05
1.00106e-05
1.27267e-05
1.78915e-05
1.71409e-05
1.62245e-05
1.60839e-05
1.61132e-05
1.61151e-05
1.61132e-05
1.61152e-05
1.61155e-05
1.61145e-05
1.61139e-05
1.61138e-05
1.61137e-05
1.61137e-05
1.61136e-05
1.61136e-05
1.61137e-05
1.61138e-05
1.6114e-05
1.61142e-05
1.61144e-05
1.61146e-05
1.61148e-05
1.6115e-05
1.61152e-05
1.61154e-05
1.61155e-05
1.61156e-05
1.61157e-05
1.61158e-05
1.61158e-05
1.61157e-05
1.61155e-05
1.61151e-05
1.61146e-05
1.61139e-05
1.6113e-05
1.6112e-05
1.61109e-05
1.61093e-05
1.61072e-05
1.61045e-05
1.61013e-05
1.6098e-05
1.60953e-05
1.60927e-05
1.60895e-05
1.60858e-05
1.60817e-05
0.0271278
0.0775144
0.138828
0.197992
0.249464
0.291001
0.321667
0.341924
0.354155
0.362095
0.366264
0.35854
0.330644
0.276583
0.19628
0.104209
0.0338237
0.000972854
0.000274512
1e-05
1e-05
1e-05
1.00105e-05
1.26825e-05
1.81564e-05
1.73264e-05
1.6143e-05
1.60082e-05
1.61084e-05
1.61274e-05
1.61158e-05
1.61134e-05
1.61145e-05
1.61144e-05
1.6114e-05
1.61139e-05
1.61139e-05
1.6114e-05
1.6114e-05
1.61141e-05
1.61142e-05
1.61144e-05
1.61146e-05
1.61148e-05
1.6115e-05
1.61153e-05
1.61155e-05
1.61157e-05
1.61159e-05
1.61161e-05
1.61162e-05
1.61163e-05
1.61164e-05
1.61164e-05
1.61163e-05
1.61161e-05
1.61158e-05
1.61152e-05
1.61146e-05
1.61137e-05
1.61128e-05
1.61116e-05
1.611e-05
1.6108e-05
1.61053e-05
1.6102e-05
1.60987e-05
1.60959e-05
1.60933e-05
0.00234579
0.0249617
0.0733338
0.133709
0.192987
0.245113
0.28762
0.319445
0.340774
0.353491
0.360831
0.365009
0.358473
0.332788
0.281496
0.203856
0.113692
0.0388575
0.00190691
0.000559782
1e-05
1e-05
1e-05
1.00067e-05
1.16367e-05
1.79568e-05
1.7666e-05
1.61453e-05
1.59164e-05
1.60831e-05
1.61394e-05
1.61226e-05
1.61127e-05
1.61133e-05
1.61143e-05
1.61143e-05
1.61142e-05
1.61143e-05
1.61143e-05
1.61144e-05
1.61146e-05
1.61148e-05
1.6115e-05
1.61153e-05
1.61155e-05
1.61158e-05
1.6116e-05
1.61163e-05
1.61165e-05
1.61167e-05
1.61168e-05
1.61169e-05
1.6117e-05
1.61171e-05
1.6117e-05
1.61168e-05
1.61165e-05
1.6116e-05
1.61153e-05
1.61145e-05
1.61135e-05
1.61123e-05
1.61108e-05
1.61087e-05
1.61061e-05
1.61028e-05
0.000215234
0.00082163
0.0194113
0.0634987
0.12248
0.182573
0.236421
0.280949
0.314832
0.337947
0.351696
0.358956
0.363293
0.358185
0.335076
0.287019
0.212878
0.124072
0.0459088
0.00455397
0.0012678
1e-05
1e-05
1e-05
1.00022e-05
1.05016e-05
1.70748e-05
1.83036e-05
1.64038e-05
1.58617e-05
1.60219e-05
1.61325e-05
1.61289e-05
1.61141e-05
1.61127e-05
1.61142e-05
1.61146e-05
1.61146e-05
1.61147e-05
1.61148e-05
1.6115e-05
1.61152e-05
1.61155e-05
1.61157e-05
1.6116e-05
1.61163e-05
1.61166e-05
1.61168e-05
1.61171e-05
1.61173e-05
1.61175e-05
1.61176e-05
1.61177e-05
1.61178e-05
1.61177e-05
1.61175e-05
1.61172e-05
1.61167e-05
1.61161e-05
1.61153e-05
1.61143e-05
1.61131e-05
1e-05
1.00111e-05
0.00332978
0.0133703
0.0507191
0.106615
0.167394
0.223624
0.271038
0.307806
0.333456
0.349001
0.357346
0.361719
0.357905
0.337449
0.292947
0.222418
0.134835
0.0542287
0.0084225
0.00228257
1e-05
1e-05
1e-05
1.00002e-05
1.00255e-05
1.46932e-05
1.86427e-05
1.69071e-05
1.59593e-05
1.59816e-05
1.61133e-05
1.61308e-05
1.61164e-05
1.61127e-05
1.61142e-05
1.61149e-05
1.6115e-05
1.61151e-05
1.61153e-05
1.61156e-05
1.61159e-05
1.61162e-05
1.61165e-05
1.61168e-05
1.61171e-05
1.61174e-05
1.61177e-05
1.61179e-05
1.61181e-05
1.61183e-05
1.61184e-05
1.61185e-05
1.61185e-05
1.61183e-05
1.6118e-05
1e-05
1e-05
1e-05
0.00204628
0.00813969
0.037117
0.0879452
0.148373
0.207065
0.257954
0.298348
0.327328
0.345541
0.355452
0.360016
0.357503
0.339757
0.298981
0.231999
0.145979
0.0635143
0.0133314
0.00356897
1e-05
1e-05
1e-05
1e-05
1e-05
1.28152e-05
1.79388e-05
1.72361e-05
1.60935e-05
1.59716e-05
1.60964e-05
1.6131e-05
1.61192e-05
1.61136e-05
1.61146e-05
1.61154e-05
1.61156e-05
1.61158e-05
1.6116e-05
1.61163e-05
1.61167e-05
1.6117e-05
1.61173e-05
1.61177e-05
1.6118e-05
1.61183e-05
1.61186e-05
1.00001e-05
1e-05
1e-05
1e-05
0.000848329
0.00324135
0.0239291
0.0676592
0.126136
0.186897
0.24165
0.286356
0.319413
0.340974
0.352944
0.357965
0.356819
0.34185
0.304828
0.241486
0.157394
0.0735829
0.0195117
0.00514421
1.00136e-05
1e-05
1e-05
1e-05
1.00074e-05
1.17852e-05
1.73504e-05
1.74123e-05
1.61953e-05
1.59551e-05
1.6075e-05
1.61278e-05
1.61203e-05
1.61138e-05
)
;

boundaryField
{
    inlet
    {
        type            calculated;
        value           nonuniform List<scalar> 
11
(
1.61e-05
1.61002e-05
1.61003e-05
1.61003e-05
1.61003e-05
1.61003e-05
1.61004e-05
1.61006e-05
1.61011e-05
1.61015e-05
1.61017e-05
)
;
    }
    outlet
    {
        type            calculated;
        value           nonuniform List<scalar> 0();
    }
    walls
    {
        type            calculated;
        value           nonuniform List<scalar> 4(0.00178945 0.00159137 0.00136683 0.000621129);
    }
    frontAndBack
    {
        type            empty;
    }
    procBoundary6to2
    {
        type            processor;
        value           nonuniform List<scalar> 
13
(
0.125741
0.148097
0.148817
0.132315
0.101383
0.0620285
0.0238633
0.00237304
0.000596283
1e-05
1e-05
1.00133e-05
1.45466e-05
)
;
    }
    procBoundary6to3
    {
        type            processor;
        value           uniform 1.593e-05;
    }
    procBoundary6to5
    {
        type            processor;
        value           nonuniform List<scalar> 
86
(
0.0931431
0.158118
0.200675
0.188833
0.118178
0.0349177
0.00150748
0.000366998
1e-05
1e-05
1.00156e-05
1.38679e-05
1.8498e-05
1.65438e-05
1.56122e-05
1.58383e-05
1.6194e-05
1.62866e-05
1.62148e-05
1.61332e-05
1.60953e-05
1.60906e-05
1.60972e-05
1.61031e-05
1.61055e-05
1.61058e-05
1.61054e-05
1.61052e-05
1.61051e-05
1.61052e-05
1.61053e-05
1.61055e-05
1.61057e-05
1.61057e-05
1.61054e-05
1.61057e-05
1.6106e-05
1.61063e-05
1.61066e-05
1.61069e-05
1.61072e-05
1.61075e-05
1.61078e-05
1.61081e-05
1.61083e-05
1.61086e-05
1.61086e-05
1.61085e-05
1.61086e-05
1.61088e-05
1.61088e-05
1.61088e-05
1.61088e-05
1.61086e-05
1.61084e-05
1.61081e-05
1.61081e-05
1.61071e-05
1.61065e-05
1.61058e-05
1.6105e-05
1.61041e-05
1.6103e-05
1.61017e-05
1.61017e-05
1.60992e-05
1.6097e-05
1.60945e-05
1.60919e-05
1.60893e-05
1.60866e-05
1.60841e-05
1.60841e-05
1.6081e-05
1.60784e-05
1.60758e-05
1.60731e-05
1.6071e-05
1.60715e-05
1.60743e-05
1.60776e-05
1.60815e-05
1.60815e-05
1.60846e-05
1.60898e-05
1.60997e-05
)
;
    }
    procBoundary6to7
    {
        type            processor;
        value           nonuniform List<scalar> 
91
(
1.61019e-05
1.61019e-05
1.61027e-05
1.61027e-05
1.60833e-05
1.60833e-05
1.60813e-05
1.60723e-05
1.60813e-05
1.60745e-05
1.60774e-05
1.60723e-05
1.60731e-05
1.60901e-05
1.60863e-05
1.60774e-05
1.60821e-05
1.60994e-05
1.60965e-05
1.60901e-05
1.60939e-05
1.61116e-05
1.61096e-05
1.61069e-05
1.60994e-05
1.61036e-05
1.61175e-05
1.61169e-05
1.61161e-05
1.61151e-05
1.61116e-05
1.61139e-05
1.61188e-05
1.6119e-05
1.61191e-05
1.61192e-05
1.61192e-05
1.61191e-05
1.61175e-05
1.61188e-05
1.61144e-05
1.61154e-05
1.61159e-05
1.61164e-05
1.61168e-05
1.61171e-05
1.61175e-05
1.61178e-05
1.61182e-05
1.61186e-05
1.61189e-05
1.61188e-05
1.61192e-05
1.00183e-05
1.00001e-05
1e-05
1e-05
1.7139e-05
1.36856e-05
0.0133674
0.0480317
0.101884
0.163384
0.22188
0.271364
0.30915
0.334703
0.349262
0.355175
0.355378
0.34316
0.309941
0.25044
0.168668
0.0843004
0.0255539
0.000318041
9.47383e-05
1e-05
1e-05
1e-05
1.00042e-05
1.1038e-05
1.68723e-05
1.77115e-05
1.63388e-05
1.5947e-05
1.60573e-05
1.61292e-05
1.61144e-05
1.61249e-05
)
;
    }
}


// ************************************************************************* //
