/*--------------------------------*- C++ -*----------------------------------*\
| =========                 |                                                 |
| \\      /  F ield         | OpenFOAM: The Open Source CFD Toolbox           |
|  \\    /   O peration     | Version:  2306                                  |
|   \\  /    A nd           | Website:  www.openfoam.com                      |
|    \\/     M anipulation  |                                                 |
\*---------------------------------------------------------------------------*/
FoamFile
{
    version     2.0;
    format      ascii;
    arch        "LSB;label=32;scalar=64";
    class       volScalarField;
    location    "225";
    object      turbulenceProperties:L;
}
// * * * * * * * * * * * * * * * * * * * * * * * * * * * * * * * * * * * * * //

dimensions      [0 1 0 0 0 0 0];

internalField   nonuniform List<scalar> 
1340
(
0.0627907
0.0636724
0.0648156
0.0827227
0.1813
0.185518
0.186713
0.182688
0.214992
0.232058
0.247659
0.245305
0.220877
0.245286
0.270405
0.278542
0.222735
0.247586
0.277545
0.295167
0.251483
0.25602
0.280479
0.301876
0.198783
0.315566
0.292716
0.305695
0.0278979
0.171515
0.338065
0.313879
0.0204458
0.0874458
0.277588
0.331356
0
0.0308799
0.0628901
0.35397
0
0
0.061498
0.31032
0.233985
0
0.0345099
0.202809
0.0336396
2.70951
0.0217494
0.11517
0.0243816
0.96843
0.0540716
0.0572297
0.0254446
0.0339736
1.64291
0.020577
0.0280015
0.0257091
0.973681
0.118936
0.0296615
0.0254331
0.221582
14.3738
0.0299568
0.0272124
0.0390641
0.598569
0.0299035
0.0295013
0.029649
0.0899351
0.0300955
0.0310362
0.0294268
0.0405937
0.0305759
0.031758
0.0309278
0.0332114
0.0312247
0.0322352
0.0325758
0.0325045
0.0319479
0.0328062
0.0338547
0.0334948
0.032711
0.0335366
0.034852
0.0349049
0.0335149
0.0343906
0.0357846
0.0363403
0.0343751
0.0353317
0.036775
0.0377404
0.0353026
0.0363427
0.037855
0.0391442
0.0363043
0.0374251
0.0390231
0.0405861
0.0373883
0.038587
0.0402781
0.0420863
0.038558
0.0398337
0.0416181
0.04365
0.0398187
0.0411714
0.0430508
0.0452833
0.0411792
0.0426054
0.0445768
0.046993
0.0426447
0.0441452
0.0462053
0.0487825
0.0429452
0.0442224
0.0457939
0.047943
0.0506621
0.0446048
0.0459207
0.047559
0.0497925
0.0526384
0.0463942
0.0477459
0.0494491
0.0517615
0.0547184
0.0483209
0.0497071
0.0514716
0.0538575
0.0569113
0.0503931
0.0518124
0.0536339
0.0560877
0.0592255
0.0526205
0.0540703
0.0559441
0.0584585
0.0616697
0.0550119
0.0564901
0.0584124
0.0609793
0.0642532
0.0575763
0.0590806
0.0610467
0.063659
0.0669862
0.0603234
0.0618516
0.0638565
0.0665063
0.069879
0.0632631
0.0648131
0.0668524
0.0695324
0.0729421
0.0664055
0.0679745
0.0700443
0.0727463
0.0761887
0.0697612
0.0713466
0.0734423
0.07616
0.0796288
0.0721119
0.0733399
0.0749406
0.077058
0.0797852
0.083275
0.0759146
0.0771522
0.0787658
0.0809019
0.0836331
0.0871403
0.0799621
0.0812095
0.0828343
0.0849855
0.0877156
0.0912376
0.0842657
0.0855223
0.087157
0.0893211
0.0920464
0.0955804
0.0888358
0.0901022
0.0917458
0.0939197
0.0966378
0.100181
0.0936831
0.0949594
0.0966116
0.0987947
0.101503
0.105054
0.0988194
0.100106
0.101766
0.103957
0.106655
0.110212
0.104255
0.105553
0.107222
0.10942
0.112107
0.11567
0.110002
0.111312
0.112989
0.115195
0.117872
0.121441
0.115047
0.116071
0.117394
0.119082
0.121295
0.123965
0.127538
0.121432
0.122474
0.123813
0.125512
0.127734
0.130398
0.133976
0.128161
0.129222
0.130578
0.132291
0.134524
0.137186
0.140768
0.13524
0.136324
0.137701
0.13943
0.141677
0.144341
0.147928
0.142679
0.14379
0.14519
0.146939
0.149204
0.151876
0.155468
0.150495
0.151634
0.15306
0.154832
0.157117
0.159802
0.1634
0.158719
0.159885
0.161336
0.16313
0.165436
0.168137
0.171739
0.166447
0.167405
0.168594
0.170067
0.171879
0.174201
0.176918
0.180515
0.175611
0.176597
0.177811
0.179305
0.181134
0.183468
0.186196
0.189774
0.185289
0.186314
0.187563
0.189087
0.19094
0.19329
0.196033
0.199587
0.195438
0.196521
0.197825
0.199396
0.201289
0.203673
0.206442
0.209972
0.206087
0.207254
0.20864
0.210289
0.212256
0.214709
0.217545
0.221096
0.21676
0.217996
0.219455
0.221179
0.223221
0.225765
0.228696
0.232327
0.226572
0.227869
0.229384
0.23116
0.233261
0.235887
0.238905
0.24243
0.235006
0.236178
0.237646
0.239315
0.241218
0.24344
0.246182
0.249377
0.252942
0.244507
0.245812
0.247447
0.2493
0.251394
0.253817
0.256749
0.260084
0.26345
0.255808
0.257349
0.259227
0.261339
0.263698
0.266405
0.269689
0.273614
0.277939
0.266167
0.267746
0.269698
0.271934
0.274468
0.27736
0.280747
0.284353
0.287238
0.283057
0.285182
0.287644
0.290355
0.293338
0.296765
0.301051
0.306706
0.313477
0.289186
0.291061
0.29338
0.296075
0.299103
0.30241
0.305831
0.308464
0.308669
0.321507
0.324482
0.327826
0.331545
0.335739
0.34085
0.34808
0.358755
0.373104
0.300148
0.301613
0.303535
0.305944
0.308609
0.311141
0.31232
0.310214
0.305088
0.340116
0.340384
0.341614
0.343857
0.347041
0.351511
0.357914
0.361782
0.369194
0.25879
0.261805
0.261745
0.26172
0.261874
0.262063
0.26186
0.259411
0.253718
0.250966
0.249868
0.250616
0.249878
0.248982
0.248227
0.247555
0.246614
0.243548
0.238635
0.238901
0.192054
0.208946
0.207475
0.206244
0.205528
0.20471
0.203628
0.201543
0.19977
0.216032
0.161422
0.299867
0.509981
0.357995
0.338466
0.333705
0.329878
0.327395
0.330139
0.340321
0.343721
0.258236
0.135166
0.0612384
0.0362218
0.318106
0
1.65141
0.167699
0.0481803
0.036484
0.0350932
0.0360739
0.0376488
0.0392694
0.0408251
0.0423645
0.0439325
0.0455564
0.047241
0.0489889
0.0508031
0.0526854
0.0546448
0.0566888
0.0588226
0.0610572
0.063401
0.0658633
0.0684546
0.0711865
0.0740703
0.0771148
0.080338
0.0837487
0.0873596
0.0911856
0.0952399
0.0995365
0.104089
0.108911
0.114019
0.119424
0.125143
0.131189
0.137577
0.14432
0.151433
0.158929
0.166821
0.175121
0.183857
0.193069
0.202834
0.21316
0.224255
0.235536
0.245503
0.256308
0.266132
0.282332
0.288569
0.321791
0.305709
0.395979
0.297744
0.390359
0.251111
0.247848
0.223045
0.233838
0.291457
0.476097
0.67017
0.468489
0.419378
0.400091
0.389877
0.3881
0.403488
0.458556
0.487838
0.248845
0.101275
0.062143
0.552112
0
3.07671
0.309126
0.0661195
0.046322
0.0434025
0.0439275
0.045313
0.046785
0.0481843
0.0495633
0.0509793
0.0524588
0.0540045
0.0556165
0.0572962
0.0590443
0.0608697
0.0627795
0.0647779
0.0668768
0.0690829
0.0714061
0.073857
0.0764472
0.0791881
0.0820883
0.0851675
0.088434
0.0919006
0.0955838
0.099497
0.103655
0.108071
0.112761
0.117741
0.123024
0.128626
0.134563
0.140848
0.147498
0.154526
0.161948
0.169778
0.178028
0.186726
0.195911
0.205658
0.215976
0.227066
0.238422
0.248496
0.259613
0.269234
0.286132
0.291578
0.326836
0.308365
0.404503
0.300547
0.397456
0.254297
0.251518
0.294281
0.331161
0.419236
0.693766
0.79862
0.543766
0.474809
0.44578
0.431983
0.43226
0.456891
0.544365
0.374639
0.155865
13.8526
0
0
7.2808
0.751191
0.10216
0.0617546
0.0553362
0.0550648
0.0561555
0.0573352
0.0583755
0.0593488
0.0603427
0.0614079
0.0625586
0.0638012
0.0651396
0.0665741
0.0681143
0.0697665
0.0715346
0.0734283
0.0754509
0.0776128
0.0799212
0.0823862
0.0850158
0.0878178
0.0908107
0.0940002
0.0973981
0.10102
0.104877
0.108984
0.113354
0.118
0.122939
0.128183
0.133748
0.139648
0.145897
0.152511
0.159503
0.166888
0.174681
0.182893
0.191553
0.200692
0.210394
0.220667
0.231702
0.243063
0.253101
0.264422
0.27369
0.291104
0.295792
0.332259
0.312338
0.409398
0.304337
0.398583
0.257047
0.337415
0.368394
0.422161
0.538735
0.932976
0.904897
0.611552
0.526691
0.489546
0.472619
0.473031
0.49423
0.519473
0.24962
0.0954832
0
0
0.0300192
2.57962
0.136924
0.0721469
0.061776
0.0606456
0.0619116
0.0635475
0.0649316
0.0661049
0.0672165
0.0683447
0.0695151
0.0707435
0.0720413
0.0734168
0.0748856
0.0764597
0.0781489
0.079964
0.0819117
0.084004
0.0862489
0.0886563
0.0912338
0.0939907
0.096943
0.100097
0.103464
0.107058
0.110889
0.114973
0.119321
0.123946
0.128864
0.134085
0.139627
0.145502
0.151724
0.158307
0.165265
0.172613
0.180365
0.188532
0.197141
0.206221
0.215855
0.226062
0.237017
0.248355
0.258248
0.269683
0.27853
0.296441
0.300317
0.337899
0.316465
0.413963
0.30792
0.40028
0.36825
0.397117
0.436527
0.502836
0.64265
1.13056
1.02227
0.684551
0.582898
0.537754
0.517867
0.517119
0.530325
0.528448
0.460354
0
0
0
13.5411
1.95604
0.0944937
0.0678364
0.066215
0.0674365
0.0690242
0.070582
0.071962
0.0732345
0.0745104
0.0758305
0.0772012
0.0786246
0.0801062
0.0816574
0.083291
0.0850191
0.086853
0.0888024
0.0908815
0.0931012
0.0954723
0.0980054
0.100712
0.103608
0.106702
0.110008
0.113538
0.117303
0.121321
0.125603
0.130162
0.135012
0.140167
0.145642
0.15145
0.157604
0.164119
0.171009
0.178288
0.18597
0.194068
0.202606
0.21161
0.221162
0.231289
0.24215
0.253462
0.263213
0.274769
0.283224
0.301655
0.304723
0.343546
0.320358
0.419139
0.310896
0.392022
0.418846
0.451363
0.496761
0.571826
0.726863
1.26054
1.17088
0.762945
0.641131
0.587067
0.562912
0.557626
0.557732
0.51815
0.502356
0.068601
0
0
5.54294
7.07726
0.0973757
0.0747938
0.0760254
0.0787201
0.0802536
0.0814093
0.0825101
0.0835952
0.0847223
0.0859255
0.0872063
0.0885648
0.0900062
0.0915405
0.0931775
0.0949241
0.0967877
0.0987809
0.100913
0.103194
0.105635
0.108247
0.111045
0.114041
0.117247
0.120678
0.124342
0.12826
0.132443
0.136903
0.141656
0.146715
0.152096
0.157811
0.163874
0.170299
0.1771
0.18429
0.191886
0.199898
0.208351
0.217268
0.226725
0.236763
0.247515
0.258801
0.268424
0.280126
0.288184
0.307166
0.309366
0.349562
0.324375
0.411479
0.436731
0.464793
0.499722
0.548798
0.628784
0.789641
1.3118
1.38065
0.85125
0.702878
0.637761
0.607362
0.595039
0.583259
0.525375
0.276792
0.147761
0
0
0.0055837
0.778946
0.109017
0.0831832
0.0861817
0.0902587
0.091936
0.0929363
0.09401
0.0950934
0.0961776
0.0973074
0.0985013
0.0997671
0.101122
0.102582
0.10416
0.105862
0.107703
0.109691
0.111836
0.114148
0.116637
0.119315
0.122197
0.125294
0.128617
0.132178
0.135994
0.140077
0.14444
0.149097
0.154061
0.159349
0.16497
0.170941
0.177274
0.183982
0.19108
0.198582
0.206502
0.214859
0.223678
0.233026
0.242959
0.253583
0.264833
0.2743
0.286155
0.293758
0.313325
0.31452
0.42786
0.452752
0.477647
0.506149
0.542337
0.593152
0.674521
0.832734
1.29969
1.71515
0.956304
0.770732
0.691193
0.652476
0.632107
0.610715
0.564263
0.194035
0.138545
0
0
0
0.858983
0.121061
0.091495
0.0950413
0.100559
0.102524
0.103425
0.104598
0.105866
0.10709
0.108316
0.109584
0.110912
0.11232
0.113827
0.115446
0.117193
0.119083
0.121128
0.12334
0.125728
0.128307
0.131093
0.134094
0.137325
0.140795
0.144521
0.148517
0.152793
0.157364
0.162241
0.167441
0.172976
0.178858
0.1851
0.191714
0.198716
0.20612
0.213938
0.222191
0.230898
0.240121
0.249931
0.260403
0.271599
0.280868
0.292878
0.441097
0.470754
0.490364
0.514668
0.543311
0.579913
0.630966
0.711115
0.86094
1.25869
2.349
1.08667
0.846706
0.748034
0.698818
0.669949
0.642574
0.579894
0.256243
0.239133
0
0
0
1.1142
0.1558
0.101825
0.104141
0.111268
0.113857
0.114499
0.115571
0.116941
0.118277
0.119583
0.120927
0.122341
0.123841
0.125439
0.127154
0.129002
0.130997
0.133151
0.135475
0.137985
0.140698
0.143625
0.14678
0.150172
0.153819
0.157735
0.161929
0.16642
0.171212
0.176327
0.181775
0.187566
0.193715
0.200231
0.207129
0.214426
0.222133
0.230269
0.238852
0.247931
0.257601
0.267891
0.0939684
0.2552
0.510162
0.523085
0.547621
0.5765
0.613103
0.663486
0.740718
0.879247
1.21193
3.32311
1.25735
0.933426
0.808958
0.746854
0.70966
0.675685
0.607806
0.367464
0.424403
0
0
0
1.83336
0.255466
0.115463
0.113149
0.121808
0.126176
0.126884
0.127729
0.129092
0.130498
0.131849
0.13323
0.134692
0.136248
0.137915
0.139711
0.141652
0.143749
0.146014
0.14846
0.151106
0.153966
0.157052
0.160372
0.163946
0.167786
0.171904
0.176316
0.181027
0.186057
0.191416
0.197116
0.203167
0.20958
0.216368
0.223548
0.231131
0.239136
0
0.771974
0.422086
0.574718
0.554773
0.577137
0.606033
0.642422
0.691615
0.765074
0.891489
1.16946
2.51094
1.50053
1.03578
0.875652
0.797611
0.750985
0.709755
0.640787
0.462109
0.630369
0
0
0
5.21618
0.826366
0.140119
0.123261
0.131513
0.138173
0.139793
0.140613
0.141976
0.143479
0.144924
0.146381
0.147915
0.149547
0.151298
0.153187
0.15523
0.157437
0.159823
0.162407
0.165205
0.168229
0.171486
0.174994
0.178768
0.182818
0.187158
0.191794
0.196745
0.20202
0.207629
0.213583
3.5565e-05
0
0
0.303068
0.758001
0.589594
0.604811
0.632814
0.66861
0.716303
0.785679
0.90053
1.13466
1.94762
1.89314
1.16081
0.950228
0.852015
0.79415
0.745698
0.676784
0.54032
0.789532
0
0
0
3.16911
10.3573
0.176355
0.13724
0.142287
0.150316
0.153036
0.154018
0.155417
0.157043
0.15863
0.160214
0.161869
0.163626
0.165509
0.167535
0.169719
0.172073
0.174619
0.177377
0.18036
0.183574
0.187035
0.19076
9.1257
0.574708
0
0
0.193516
0.660585
0.631117
0.629994
0.6567
0.691975
0.738208
0.803732
0.908162
1.10753
1.66727
2.70464
1.32007
1.03531
0.910971
0.839843
0.783902
0.715038
0.612368
0.855654
1.89944
0
0
0.00133186
1.52711
0.220427
0.152286
0.154377
0.163303
0.16709
0.168241
0.169668
0.171423
0.173166
)
;

boundaryField
{
    inlet
    {
        type            calculated;
        value           nonuniform List<scalar> 
11
(
0.0913105
0.0937881
0.0926833
0.0916925
0.0908404
0.0901028
0.0894275
0.0887634
0.0879957
0.089758
0.087449
)
;
    }
    outlet
    {
        type            calculated;
        value           nonuniform List<scalar> 0();
    }
    walls
    {
        type            calculated;
        value           uniform 0;
    }
    frontAndBack
    {
        type            empty;
    }
    procBoundary6to2
    {
        type            processor;
        value           nonuniform List<scalar> 
13
(
0.142599
0.216814
0.274853
0.315775
0.345922
0.369642
0.385877
0.426966
0.151757
0
0
1.48813
0.197178
)
;
    }
    procBoundary6to3
    {
        type            processor;
        value           uniform 0.186161;
    }
    procBoundary6to5
    {
        type            processor;
        value           nonuniform List<scalar> 
86
(
0.062435
0.174578
0.196217
0.196909
0.201355
0.326858
0.0392995
0.0249846
0
0
0.206164
0.029823
0.0246968
0.0264856
0.0278461
0.0279442
0.0279333
0.0282522
0.0287848
0.0293718
0.0299556
0.0305481
0.0311774
0.0318629
0.0326118
0.0334276
0.0343141
0.0352749
0.0363153
0.0374425
0.0386623
0.0399812
0.0414065
0.0414065
0.0418761
0.0435207
0.0452944
0.0472058
0.0492635
0.0514766
0.0538541
0.0564052
0.0591397
0.0620676
0.0651988
0.0685436
0.0685436
0.0711787
0.0749754
0.0790162
0.083312
0.0878734
0.0927114
0.0978364
0.10326
0.108993
0.108993
0.114263
0.12063
0.127337
0.134392
0.141804
0.149591
0.157787
0.157787
0.165687
0.174821
0.184457
0.194548
0.205117
0.215748
0.225542
0.225542
0.233996
0.243369
0.254423
0.264702
0.281089
0.287146
0.319214
0.297245
0.342773
0.342773
0.269298
0.250429
0.220346
)
;
    }
    procBoundary6to7
    {
        type            processor;
        value           nonuniform List<scalar> 
91
(
0.222766
0.222766
0.255651
0.255651
0.259582
0.259582
0.40189
0.424983
0.40189
0.313741
0.35624
0.424983
0.32873
0.299952
0.320143
0.35624
0.320183
0.279015
0.288047
0.299952
0.300214
0.24758
0.256494
0.266003
0.279015
0.27608
0.219889
0.22656
0.233614
0.241062
0.24758
0.24892
0.194758
0.199042
0.203617
0.2085
0.213698
0.219224
0.219889
0.225083
0.1749
0.176705
0.178621
0.180671
0.182869
0.18523
0.187774
0.190524
0.193496
0.196697
0.200139
0.194758
0.203839
1.61419
8.71237
0
0
0.0870508
0.113787
0.723397
0.656509
0.677987
0.712496
0.757452
0.819514
0.914876
1.08659
1.50262
4.81247
1.53428
1.13379
0.975047
0.888102
0.823912
0.75536
0.6624
0.182705
0.191443
0
0
0
2.00477
0.28483
0.168345
0.166696
0.176877
0.182057
0.183422
0.184874
0.1749
0.186793
)
;
    }
}


// ************************************************************************* //
