/*--------------------------------*- C++ -*----------------------------------*\
| =========                 |                                                 |
| \\      /  F ield         | OpenFOAM: The Open Source CFD Toolbox           |
|  \\    /   O peration     | Version:  2306                                  |
|   \\  /    A nd           | Website:  www.openfoam.com                      |
|    \\/     M anipulation  |                                                 |
\*---------------------------------------------------------------------------*/
FoamFile
{
    version     2.0;
    format      ascii;
    arch        "LSB;label=32;scalar=64";
    class       volVectorField;
    location    "225";
    object      U;
}
// * * * * * * * * * * * * * * * * * * * * * * * * * * * * * * * * * * * * * //

dimensions      [0 1 -1 0 0 0 0];

internalField   nonuniform List<vector> 
1340
(
(13.7184 -2.23185 -5.01575e-16)
(11.8808 -2.09389 8.63545e-16)
(9.86436 -1.84958 2.19639e-15)
(3.66035 -1.11125 1.7153e-14)
(17.263 -2.80497 -5.01414e-15)
(15.3045 -2.66277 1.58892e-15)
(13.2207 -2.39849 -6.78321e-16)
(7.24599 -1.51231 4.57595e-15)
(20.5781 -3.23987 1.07617e-14)
(18.1821 -3.05287 -2.41328e-15)
(15.6976 -2.68651 -3.84735e-16)
(9.94457 -1.92068 -6.38952e-15)
(24.1542 -3.65737 -2.52836e-15)
(21.234 -3.42391 3.35795e-15)
(18.2527 -2.94473 6.79568e-16)
(12.519 -2.23751 3.11603e-15)
(27.7186 -4.00035 3.61387e-16)
(24.4015 -3.7625 4.81597e-16)
(20.9544 -3.19834 -4.65054e-17)
(15.1235 -2.50527 -3.82614e-15)
(30.0584 -4.14411 -3.458e-15)
(27.1927 -3.99503 -4.31189e-15)
(23.6681 -3.41753 -3.75718e-17)
(17.7804 -2.75076 1.0472e-15)
(30.1784 -4.02277 6.99939e-15)
(28.6144 -4.02271 1.12115e-15)
(25.9242 -3.53991 -6.83995e-17)
(20.3748 -2.95953 6.72517e-16)
(29.2892 -3.80153 -7.56143e-15)
(28.4345 -3.85625 1.78389e-15)
(27.1066 -3.50768 2.39864e-16)
(22.5841 -3.09027 1.88472e-15)
(28.8256 -3.62844 2.77625e-15)
(27.7467 -3.64783 -1.50631e-15)
(27.1735 -3.34405 -7.73978e-16)
(24.0431 -3.10248 -1.4188e-15)
(28.8423 -3.49718 -1.29373e-15)
(27.4438 -3.4917 1.42434e-15)
(26.7596 -3.14483 2.48468e-16)
(24.6907 -2.99904 -1.7135e-15)
(28.9502 -3.36882 -7.63207e-16)
(27.509 -3.37005 -1.87611e-15)
(26.4596 -2.97517 1.04546e-16)
(24.8379 -2.82336 7.64699e-16)
(28.9845 -3.22962 -1.18802e-15)
(27.6478 -3.24528 -1.22829e-15)
(26.4096 -2.83858 -8.85545e-17)
(24.8521 -2.62603 1.62744e-15)
(28.9645 -3.08268 4.24659e-15)
(27.7216 -3.10481 6.46423e-17)
(26.485 -2.7133 3.68862e-16)
(24.9136 -2.43575 -1.64603e-15)
(28.9353 -2.93145 -5.55849e-15)
(27.7393 -2.95372 1.87615e-15)
(26.5674 -2.58386 1.83449e-16)
(25.0369 -2.25949 1.72027e-15)
(28.9129 -2.77658 4.15117e-15)
(27.7419 -2.79808 -8.94701e-16)
(26.6215 -2.44695 -7.56428e-16)
(25.1817 -2.09314 -1.66538e-15)
(28.895 -2.61762 -3.1563e-16)
(27.7499 -2.63993 8.08356e-17)
(26.6577 -2.30522 8.44393e-16)
(25.3197 -1.9321 4.96162e-16)
(28.8771 -2.45459 -8.10023e-16)
(27.7645 -2.47898 3.39898e-16)
(26.6918 -2.16083 1.30328e-17)
(25.4447 -1.77459 -1.49607e-16)
(28.8576 -2.28777 -3.24049e-16)
(27.7816 -2.31483 3.17194e-16)
(26.7307 -2.01463 -7.40033e-16)
(25.5606 -1.62053 3.43565e-16)
(28.8365 -2.11753 2.0235e-15)
(27.7982 -2.14763 -7.0873e-16)
(26.7741 -1.86674 -5.50853e-16)
(25.6718 -1.4701 5.12354e-16)
(28.814 -1.94416 -1.99775e-16)
(27.8135 -1.9777 1.4318e-16)
(26.82 -1.71691 1.00334e-16)
(25.7801 -1.32314 -1.28415e-16)
(28.79 -1.76803 6.20976e-17)
(27.8276 -1.80549 6.45258e-16)
(26.8668 -1.56529 8.90959e-16)
(25.8855 -1.17952 -1.64733e-16)
(28.7643 -1.58951 1.02442e-15)
(27.8404 -1.63143 -6.70874e-16)
(26.9137 -1.41207 -2.64833e-16)
(25.9875 -1.03862 -3.81872e-17)
(28.7368 -1.40902 -1.99858e-15)
(27.8518 -1.45593 6.49198e-16)
(26.9603 -1.25756 2.46487e-16)
(26.0855 -0.900255 -3.12501e-17)
(28.7072 -1.22706 2.98202e-16)
(27.8614 -1.27933 -3.32793e-16)
(27.006 -1.10192 -3.32253e-16)
(26.1795 -0.763844 3.76595e-17)
(28.6754 -1.04413 3.06655e-16)
(27.869 -1.10214 9.32537e-16)
(27.0505 -0.945542 6.27196e-16)
(26.2691 -0.629209 -1.73237e-16)
(28.6412 -0.860721 5.69359e-16)
(27.8743 -0.92473 -4.55395e-16)
(27.0932 -0.788615 -9.70937e-16)
(26.3543 -0.496016 1.39916e-16)
(28.6045 -0.677494 -5.66316e-16)
(27.8769 -0.747677 -1.42083e-15)
(27.1336 -0.631637 -1.06985e-16)
(26.4348 -0.364183 -1.62156e-16)
(28.5652 -0.494943 -5.03398e-16)
(27.8768 -0.571276 7.80081e-16)
(27.1713 -0.474739 -1.5898e-16)
(26.5107 -0.233409 2.93475e-16)
(28.5232 -0.313677 8.5384e-16)
(27.8736 -0.396155 5.58926e-16)
(27.2058 -0.318429 6.75831e-16)
(26.5816 -0.103573 -2.47497e-16)
(28.4784 -0.134345 -9.65556e-16)
(27.8672 -0.222677 -6.2747e-16)
(27.2367 -0.162945 -3.76307e-16)
(26.6475 0.025449 5.96649e-16)
(28.4307 0.0425296 1.16425e-15)
(27.8573 -0.0514017 9.50738e-16)
(27.2638 -0.00875133 9.80861e-16)
(26.7081 0.153729 -1.05574e-15)
(28.3803 0.216349 -5.54023e-16)
(27.8439 0.117303 -6.30077e-16)
(27.2866 0.143818 -5.95145e-16)
(26.7634 0.281156 4.33652e-16)
(28.327 0.386527 -3.05106e-16)
(27.8269 0.28292 8.69055e-16)
(27.3051 0.294425 -2.48258e-16)
(26.8132 0.407713 -2.41676e-16)
(28.6966 0.739607 1.28039e-15)
(28.2711 0.55259 4.86761e-16)
(27.8062 0.445006 -2.74395e-16)
(27.3189 0.442627 1.01388e-15)
(26.8573 0.533237 1.56663e-16)
(28.6054 0.897264 -1.41785e-15)
(28.2125 0.713999 5.05423e-16)
(27.7817 0.603178 -1.1201e-15)
(27.328 0.588102 -7.02038e-16)
(26.8958 0.657531 -5.39407e-16)
(28.513 1.04927 3.45913e-16)
(28.1515 0.870334 -5.88008e-16)
(27.7536 0.757022 2.77273e-16)
(27.3323 0.730495 -1.00315e-17)
(26.9285 0.780386 1.89797e-16)
(28.4197 1.19525 -2.03956e-16)
(28.0882 1.02121 5.6288e-17)
(27.7219 0.906179 7.51749e-16)
(27.3318 0.869475 3.91366e-16)
(26.9555 0.901552 6.45301e-16)
(28.3258 1.33493 6.25152e-16)
(28.0229 1.16627 -9.81307e-17)
(27.6867 1.05031 -7.64534e-16)
(27.3265 1.00471 5.05219e-16)
(26.9767 1.02074 -2.41737e-16)
(28.2316 1.4681 -9.00339e-16)
(27.9558 1.30526 2.12639e-16)
(27.6482 1.18914 7.50769e-16)
(27.3167 1.1359 1.26661e-16)
(26.9923 1.13767 5.46136e-17)
(28.1375 1.59459 -4.14466e-16)
(27.8871 1.43794 -5.3663e-16)
(27.6066 1.32243 -5.62161e-16)
(27.3023 1.2628 -1.17479e-15)
(27.0025 1.25204 -3.08397e-16)
(28.0437 1.71432 3.65495e-16)
(27.8171 1.56416 -3.36085e-17)
(27.5621 1.44995 2.87112e-16)
(27.2836 1.38515 4.85047e-16)
(27.0072 1.36357 -2.30724e-16)
(27.9505 1.82727 4.47941e-16)
(27.7462 1.68383 8.1923e-16)
(27.5151 1.57158 1.08588e-16)
(27.2609 1.50275 3.85476e-16)
(27.0069 1.47198 -1.2988e-17)
(27.8583 1.93348 -4.92406e-17)
(27.6745 1.79691 -3.83795e-16)
(27.4657 1.68721 -4.72477e-16)
(27.2344 1.61542 4.5822e-17)
(27.0017 1.57701 5.84178e-16)
(27.7673 2.03302 -7.29216e-16)
(27.6025 1.90341 2.8349e-16)
(27.4143 1.79677 3.80268e-16)
(27.2045 1.72302 -3.59724e-16)
(26.9919 1.67842 -5.85765e-16)
(27.6777 2.12604 2.61154e-17)
(27.5303 2.00342 4.9057e-16)
(27.3613 1.90027 1.0085e-16)
(27.1714 1.82547 3.02119e-16)
(26.9777 1.776 2.50799e-17)
(27.7007 2.34063 4.4439e-18)
(27.5898 2.21272 -9.88169e-17)
(27.4582 2.09704 -1.56915e-16)
(27.3068 1.99773 5.15887e-16)
(27.1354 1.9227 -4.14512e-16)
(26.9596 1.86958 5.89986e-16)
(27.6021 2.41225 1.14567e-16)
(27.5037 2.29327 1.33979e-16)
(27.3866 2.18443 1.49387e-16)
(27.2512 2.08924 -6.73252e-16)
(27.097 2.01468 4.26531e-17)
(26.9379 1.959 -5.04942e-16)
(27.5067 2.47842 -8.72847e-17)
(27.4196 2.36792 2.41184e-16)
(27.3156 2.26578 3.42287e-18)
(27.1949 2.17493 -2.87093e-16)
(27.0564 2.10144 4.12285e-16)
(26.9128 2.04416 2.0481e-16)
(27.4146 2.5394 -3.13391e-16)
(27.3375 2.43695 -1.6648e-16)
(27.2454 2.34132 -3.68269e-16)
(27.138 2.25492 3.93614e-16)
(27.0141 2.18304 -6.14024e-16)
(26.8848 2.125 -2.25178e-16)
(27.3257 2.59549 3.70341e-16)
(27.2577 2.50063 6.24254e-17)
(27.1763 2.41129 4.21725e-16)
(27.081 2.3294 -4.5342e-16)
(26.9702 2.25954 -3.04768e-17)
(26.8543 2.20147 1.5215e-16)
(27.2401 2.64697 -1.49046e-16)
(27.1802 2.55925 1.37478e-16)
(27.1083 2.47593 6.54556e-17)
(27.0239 2.39858 4.69762e-17)
(26.9252 2.33108 1.59312e-16)
(26.8215 2.27358 4.19273e-16)
(27.1578 2.69412 2.49144e-17)
(27.1051 2.61309 -3.44018e-17)
(27.0417 2.53554 -1.33021e-16)
(26.9671 2.46267 3.98636e-17)
(26.8793 2.39779 -1.17747e-16)
(26.7868 2.34136 -3.46693e-16)
(27.0786 2.73725 -6.48488e-16)
(27.0323 2.66245 -3.66643e-17)
(26.9766 2.59036 -2.15826e-17)
(26.9108 2.5219 2.41095e-16)
(26.8328 2.45982 3.87197e-16)
(26.7505 2.40488 6.23876e-17)
(27.0025 2.77661 1.98634e-16)
(26.9619 2.70761 -7.77732e-17)
(26.9129 2.6407 1.00391e-16)
(26.855 2.57652 -4.35661e-16)
(26.786 2.51737 -3.12734e-16)
(26.7129 2.46423 -2.96836e-16)
(26.9583 2.87711 -1.45069e-16)
(26.9294 2.81248 -2.29471e-16)
(26.8939 2.74886 7.3237e-17)
(26.851 2.68682 1.62494e-16)
(26.8 2.62678 2.86158e-16)
(26.739 2.57061 8.15329e-17)
(26.6743 2.51951 4.91492e-16)
(26.8845 2.9045 2.20819e-16)
(26.8593 2.8451 -1.53434e-16)
(26.8282 2.78647 1.98361e-16)
(26.7906 2.72899 5.33904e-17)
(26.746 2.67293 -8.50434e-17)
(26.6922 2.61976 -2.00874e-16)
(26.635 2.57087 6.27979e-17)
(26.814 2.92932 -1.60937e-16)
(26.792 2.87472 3.01015e-16)
(26.7649 2.8207 2.58758e-17)
(26.732 2.76748 -3.94112e-16)
(26.6929 2.71521 3.8713e-16)
(26.6455 2.66501 -1.93291e-16)
(26.5952 2.61845 -2.1003e-16)
(26.7467 2.95178 -2.47338e-16)
(26.7275 2.90157 -5.77689e-18)
(26.7038 2.85179 -3.48579e-17)
(26.6752 2.80255 4.50089e-16)
(26.641 2.75386 9.76208e-18)
(26.5993 2.70659 -3.23112e-16)
(26.5551 2.6624 5.67425e-16)
(26.6822 2.97205 -5.55525e-17)
(26.6655 2.92586 7.51288e-17)
(26.645 2.87997 4.59001e-17)
(26.62 2.83443 -1.22954e-16)
(26.5902 2.78913 2.13512e-16)
(26.5537 2.7447 -2.48131e-16)
(26.5149 2.70291 9.38859e-17)
(26.6206 2.9903 -2.45537e-17)
(26.6062 2.94778 -1.63404e-16)
(26.5883 2.90547 1.95071e-17)
(26.5666 2.86335 -9.25984e-17)
(26.5406 2.82123 3.51737e-17)
(26.5087 2.77955 -2.38541e-16)
(26.4748 2.74013 2.29522e-16)
(26.5617 3.00668 1.0872e-16)
(26.5492 2.9675 -5.73321e-17)
(26.5337 2.92848 -7.49944e-17)
(26.5149 2.88952 3.82775e-16)
(26.4923 2.85039 2.74966e-16)
(26.4644 2.81134 -1.8648e-16)
(26.4349 2.77425 2.01833e-17)
(26.5139 3.05767 -1.38118e-17)
(26.5054 3.02135 1.27298e-16)
(26.4946 2.98522 -8.57621e-17)
(26.4812 2.94921 1.32745e-16)
(26.4649 2.91316 -1.32322e-17)
(26.4454 2.87682 5.07605e-17)
(26.421 2.84026 -3.27847e-17)
(26.3954 2.80543 9.8864e-17)
(26.459 3.06799 -7.38163e-17)
(26.4517 3.03444 -1.9354e-16)
(26.4423 3.00109 1.6086e-16)
(26.4308 2.96782 1.75741e-16)
(26.4167 2.93446 5.54319e-17)
(26.3998 2.90069 -2.05591e-16)
(26.3786 2.8665 1.5163e-16)
(26.3563 2.83385 -2.44866e-16)
(26.4068 3.07714 -5.97206e-17)
(26.4005 3.04611 8.64272e-17)
(26.3925 3.01527 9.32256e-18)
(26.3826 2.98451 -2.1575e-16)
(26.3704 2.95361 1.27758e-16)
(26.3557 2.92224 3.96604e-17)
(26.3373 2.89027 1.29018e-16)
(26.318 2.8597 -3.12767e-17)
(26.3573 3.08516 -1.08154e-16)
(26.3519 3.05642 5.74592e-17)
(26.345 3.02788 -3.18671e-17)
(26.3365 2.9994 -1.49048e-16)
(26.326 2.97075 4.76297e-16)
(26.3133 2.9416 -3.37186e-16)
(26.2973 2.91172 -1.44532e-16)
(26.2806 2.88312 -3.67265e-17)
(26.3101 3.09222 1.25386e-16)
(26.3056 3.06555 -8.18148e-18)
(26.2997 3.03909 5.15943e-17)
(26.2924 3.01268 -1.24571e-16)
(26.2834 2.98611 -8.88358e-17)
(26.2725 2.95899 5.55477e-17)
(26.2587 2.93106 6.97603e-17)
(26.2442 2.90432 9.33554e-17)
(26.2654 3.09819 7.25983e-17)
(26.2616 3.0734 -9.46083e-18)
(26.2567 3.04883 -1.74648e-16)
(26.2505 3.02434 -2.43596e-18)
(26.2429 2.99966 1.3985e-16)
(26.2335 2.97443 -2.85575e-16)
(26.2216 2.94832 6.19741e-17)
(26.2092 2.92333 -1.69492e-16)
(26.2289 3.10259 1.31109e-16)
(26.2256 3.07925 -1.4069e-16)
(26.2212 3.05616 2.27268e-16)
(26.2158 3.03317 -5.97441e-17)
(26.209 3.01001 -7.31323e-17)
(26.2007 2.98632 -6.33535e-17)
(26.1902 2.96173 2.27082e-16)
(26.1792 2.93825 -9.76246e-17)
(26.2015 3.1285 -2.72942e-17)
(26.1993 3.10599 -7.36791e-17)
(26.1962 3.08382 2.62497e-17)
(26.1922 3.06192 4.24541e-17)
(26.1871 3.04015 -1.18457e-16)
(26.1809 3.01823 7.30742e-17)
(26.1733 2.99581 2.48041e-16)
(26.1635 2.97251 -3.02245e-16)
(26.1534 2.95034 1.39474e-16)
(26.1714 3.13026 -7.3091e-18)
(26.1694 3.10883 2.22386e-17)
(26.1666 3.08776 -1.55342e-16)
(26.163 3.06699 8.47159e-17)
(26.1583 3.04637 5.7316e-17)
(26.1526 3.02563 2.78719e-17)
(26.1456 3.00443 -2.09911e-16)
(26.1366 2.98236 7.91355e-17)
(26.1274 2.9614 1.24048e-16)
(26.1409 3.13219 1.75379e-18)
(26.1391 3.11195 1.38143e-16)
(26.1366 3.09208 1.15889e-16)
(26.1333 3.07254 -4.29394e-17)
(26.1292 3.05315 3.01155e-17)
(26.124 3.03367 -7.97282e-17)
(26.1176 3.01374 1.64518e-16)
(26.1094 2.99298 -5.41281e-16)
(26.1009 2.97338 2.37406e-16)
(26.1108 3.13235 1.40156e-19)
(26.1093 3.11294 1.24746e-16)
(26.1071 3.09394 -2.60602e-16)
(26.1042 3.07529 -1.64156e-17)
(26.1004 3.05685 1.48351e-16)
(26.0956 3.03838 -1.78382e-16)
(26.0899 3.01952 3.49595e-16)
(26.0826 2.9998 -3.43825e-16)
(26.0751 2.98114 3.49321e-16)
(26.0799 3.13562 -3.31622e-17)
(26.0785 3.11763 -8.73178e-17)
(26.0767 3.10005 1.19761e-16)
(26.0741 3.0828 7.41768e-17)
(26.0709 3.06573 -3.54909e-16)
(26.0668 3.0486 2.37621e-16)
(26.0617 3.0311 2.13174e-16)
(26.0549 3.01288 -9.01978e-17)
(26.0476 2.99596 -1.20108e-16)
(26.0524 3.12972 -1.72143e-17)
(26.0513 3.11181 -2.95966e-17)
(26.0497 3.0944 7.37762e-17)
(26.0474 3.07743 -5.53468e-18)
(26.0444 3.06077 -9.94726e-17)
(26.0406 3.04418 -1.40823e-16)
(26.0359 3.0273 2.12668e-16)
(26.0304 3.00948 -2.66601e-17)
(26.0252 2.99257 4.1869e-17)
(26.0191 3.1432 3.11327e-17)
(26.0184 3.12777 -2.61041e-17)
(26.0173 3.11269 -1.13462e-16)
(26.0157 3.09791 -2.4412e-17)
(26.0135 3.08327 1.76741e-17)
(26.0106 3.06857 2.08399e-17)
(26.0068 3.05356 3.38623e-17)
(26.001 3.03821 -4.4622e-17)
(25.9939 3.02442 7.94309e-17)
(26.0015 3.11157 -1.84361e-17)
(26.001 3.09406 -5.82572e-17)
(25.9999 3.07725 -2.76985e-17)
(25.9982 3.06109 6.14611e-17)
(25.9957 3.04544 2.02008e-17)
(25.9927 3.03001 -9.55943e-18)
(25.9893 3.0144 1.23071e-16)
(25.9864 2.99741 -6.09957e-17)
(25.985 2.98119 -9.31164e-17)
(25.9556 3.17311 1.58708e-16)
(25.9558 3.16125 -5.82661e-17)
(25.956 3.14949 1.80016e-17)
(25.9559 3.1378 -1.97455e-16)
(25.9554 3.12613 -5.48587e-17)
(25.9541 3.11435 2.08219e-16)
(25.9517 3.10239 1.44805e-16)
(25.9456 3.09109 -1.77927e-16)
(25.9364 3.08151 2.37536e-17)
(25.9683 3.06229 4.8696e-17)
(25.9693 3.0418 1.29172e-17)
(25.969 3.02269 7.52665e-18)
(25.9682 3.00471 1.12505e-16)
(25.9668 2.9877 -1.34794e-16)
(25.9648 2.97153 1.68748e-16)
(25.9628 2.95577 -1.82916e-17)
(25.9612 2.93994 -1.87779e-16)
(25.964 2.92157 -7.58614e-17)
(25.9701 2.90475 1.79461e-17)
(25.8756 3.29017 7.5295e-18)
(25.8766 3.28467 4.93586e-18)
(25.8781 3.27751 -6.22805e-18)
(25.88 3.27022 -5.65681e-17)
(25.8818 3.263 -4.25571e-17)
(25.8834 3.25564 2.34414e-17)
(25.884 3.24823 -2.69049e-17)
(25.8827 3.24077 -2.64318e-17)
(25.8735 3.23618 4.37076e-17)
(25.8589 3.23104 6.33774e-17)
(26.0055 2.85584 -3.70258e-18)
(26.0053 2.83148 -8.30395e-17)
(26.0069 2.8084 3.7569e-17)
(26.0105 2.78641 2.16354e-16)
(26.0133 2.76553 -3.95278e-16)
(26.015 2.74562 1.15785e-16)
(26.0171 2.72607 4.10154e-16)
(26.0217 2.70626 -3.92834e-16)
(26.0356 2.68449 6.58628e-17)
(26.0578 2.66609 -1.17029e-17)
(12.6966 0.735382 2.58069e-17)
(9.71279 0.4285 -1.09866e-18)
(9.51975 0.189482 -4.19618e-17)
(10.9463 0.0253571 -1.6801e-18)
(13.0817 -0.0671109 6.25584e-18)
(15.5149 -0.114464 -9.25309e-18)
(18.0391 -0.132369 -9.00636e-19)
(20.431 -0.139097 1.29039e-18)
(22.3543 -0.151123 2.55616e-18)
(23.4861 -0.178487 8.87197e-18)
(23.8537 -0.218056 -2.92698e-18)
(23.9123 -0.264676 1.08396e-17)
(23.9994 -0.309453 -2.17651e-18)
(24.1595 -0.34395 2.43672e-18)
(24.3481 -0.364468 -1.04726e-17)
(24.5298 -0.371343 9.02297e-18)
(24.6952 -0.36633 1.34942e-17)
(24.8485 -0.350617 -5.45644e-18)
(24.9946 -0.325127 -1.44202e-17)
(25.1359 -0.290753 4.55236e-18)
(25.2724 -0.248497 1.1493e-18)
(25.4036 -0.198704 2.34294e-17)
(25.5292 -0.142757 -3.09747e-17)
(25.6489 -0.0807104 1.24495e-17)
(25.7626 -0.0136838 -1.70649e-17)
(25.8706 0.058225 1.04367e-17)
(25.9726 0.13432 -1.69091e-17)
(26.0688 0.214308 1.31506e-19)
(26.1591 0.297673 -1.97376e-17)
(26.2436 0.383922 -2.63468e-17)
(26.3223 0.47274 -9.46268e-18)
(26.3951 0.563672 1.37239e-19)
(26.4621 0.656433 3.92675e-18)
(26.5232 0.750714 6.80114e-19)
(26.5784 0.846143 2.54479e-17)
(26.6277 0.942407 8.15876e-19)
(26.671 1.03918 1.72838e-18)
(26.7086 1.13606 -1.92041e-17)
(26.7403 1.23274 -2.63251e-18)
(26.7663 1.3288 2.45649e-18)
(26.7867 1.42393 -3.1695e-17)
(26.8017 1.51772 -2.07545e-16)
(26.8113 1.60986 1.24956e-17)
(26.816 1.70001 2.46796e-17)
(26.8157 1.78783 -1.48996e-17)
(26.811 1.87308 -4.60898e-18)
(26.802 1.95547 1.43139e-16)
(26.789 2.03481 -2.67319e-17)
(26.7724 2.1109 2.43281e-17)
(26.7526 2.1836 1.87702e-17)
(26.7297 2.25279 -6.95576e-17)
(26.7043 2.31842 1.56972e-16)
(26.6766 2.38043 7.78839e-18)
(26.6469 2.43883 -2.28874e-17)
(26.6155 2.49365 -1.33169e-16)
(26.5828 2.54492 1.01493e-16)
(26.5489 2.59273 7.79936e-19)
(26.5142 2.63718 -1.5162e-16)
(26.4789 2.67838 -1.40182e-17)
(26.4431 2.71644 4.55832e-17)
(26.4071 2.75151 -2.70445e-16)
(26.3711 2.78371 6.66563e-17)
(26.3351 2.81319 -2.06359e-19)
(26.2996 2.84012 3.61527e-18)
(26.2646 2.86461 -2.06545e-16)
(26.2303 2.88688 1.04718e-16)
(26.1972 2.90693 -4.27529e-20)
(26.1686 2.92271 6.0625e-18)
(26.1438 2.9356 6.42301e-19)
(26.1188 2.94733 -3.04989e-16)
(26.0931 2.96039 -7.59364e-17)
(26.0685 2.96836 3.05025e-17)
(26.0412 2.98507 8.1203e-17)
(26.0208 2.98048 -2.41727e-19)
(25.9881 3.01644 -1.16038e-19)
(25.9835 2.96864 5.80925e-19)
(25.9303 3.07778 6.06579e-17)
(25.9725 2.89062 5.04303e-18)
(25.8524 3.23176 -3.2024e-17)
(26.0677 2.65483 1.83096e-19)
(18.4283 1.07263 -2.6043e-17)
(15.8133 0.833579 4.58952e-18)
(14.3493 0.5947 2.22545e-17)
(14.2765 0.40577 8.16616e-18)
(15.2687 0.29039 -5.27675e-18)
(16.8876 0.237224 2.44812e-17)
(18.8173 0.23394 6.85267e-18)
(20.8191 0.270537 -1.96632e-18)
(22.6265 0.330654 -4.93715e-17)
(23.9119 0.388936 -6.18928e-17)
(24.4554 0.423162 2.01478e-17)
(24.4918 0.432072 -2.65661e-17)
(24.4739 0.431582 -1.03036e-17)
(24.5424 0.431511 -4.6132e-18)
(24.654 0.431102 1.71513e-17)
(24.7675 0.429476 -1.26553e-17)
(24.8709 0.427357 -1.59983e-17)
(24.9674 0.425947 5.3773e-18)
(25.0624 0.42645 1.15571e-17)
(25.1582 0.429922 -1.88124e-17)
(25.2549 0.436913 -1.44872e-17)
(25.3516 0.448389 -5.68285e-18)
(25.4475 0.464359 1.61167e-17)
(25.5421 0.485664 -4.96845e-19)
(25.6348 0.512051 -3.40816e-20)
(25.7253 0.543905 -2.82648e-18)
(25.8133 0.580876 8.87746e-18)
(25.8983 0.623012 -1.26982e-17)
(25.9801 0.670144 7.45132e-18)
(26.0583 0.721997 -5.41298e-18)
(26.1328 0.778364 -4.2436e-18)
(26.2031 0.838836 8.56505e-18)
(26.2692 0.90308 -2.52611e-17)
(26.3309 0.970742 4.03854e-19)
(26.388 1.04138 1.89971e-17)
(26.4403 1.1146 2.01344e-17)
(26.4878 1.19002 -1.79639e-17)
(26.5303 1.26717 -2.71589e-17)
(26.5678 1.34568 -2.01198e-18)
(26.6003 1.42509 6.67235e-17)
(26.6278 1.50503 -6.05631e-18)
(26.6502 1.58504 1.86285e-16)
(26.6678 1.66476 1.07842e-17)
(26.6805 1.74378 4.10961e-17)
(26.6885 1.82174 -1.34823e-17)
(26.6921 1.89828 -7.78257e-17)
(26.6913 1.9731 -1.29739e-16)
(26.6865 2.0459 -2.5691e-17)
(26.6779 2.11641 1.96674e-17)
(26.6657 2.18441 3.04671e-17)
(26.6503 2.24972 3.79224e-17)
(26.6319 2.31218 4.01698e-17)
(26.6108 2.37167 3.79992e-17)
(26.5874 2.42812 -8.74029e-18)
(26.5619 2.48147 -2.694e-18)
(26.5345 2.53172 -2.10968e-16)
(26.5057 2.57886 8.566e-19)
(26.4756 2.62294 1.25033e-16)
(26.4445 2.66402 5.58815e-18)
(26.4126 2.70217 -4.85865e-17)
(26.3801 2.73749 1.65595e-16)
(26.3472 2.77006 -1.28371e-16)
(26.314 2.80001 2.54248e-16)
(26.281 2.82747 4.29331e-18)
(26.2483 2.85254 -5.77856e-17)
(26.2161 2.87542 2.64569e-18)
(26.1847 2.89609 -5.24083e-20)
(26.1575 2.91239 7.48553e-18)
(26.1338 2.9258 7.91952e-19)
(26.11 2.9379 1.85427e-16)
(26.0853 2.95174 7.40713e-17)
(26.0618 2.95975 -3.08603e-17)
(26.0353 2.97786 -8.24867e-17)
(26.0158 2.97235 -8.04596e-17)
(25.9841 3.01117 -6.13836e-17)
(25.9795 2.96047 5.2945e-17)
(25.929 3.07495 -6.19004e-17)
(25.9676 2.88258 -3.45613e-18)
(25.8567 3.23059 8.07543e-19)
(21.1486 1.26184 -5.02056e-18)
(19.3357 1.12318 9.42653e-19)
(17.7651 0.953994 -9.26903e-19)
(16.8971 0.789975 -1.59492e-18)
(16.9184 0.665604 -1.58157e-17)
(17.7251 0.593931 4.74432e-19)
(19.0688 0.571165 -4.68293e-18)
(20.6983 0.588464 -4.42178e-18)
(22.3721 0.634709 6.65777e-18)
(23.8142 0.691631 2.02921e-17)
(24.7221 0.733818 -7.50699e-18)
(24.9927 0.744747 -9.71606e-18)
(24.9576 0.736617 1.53949e-17)
(24.958 0.731934 -2.18013e-18)
(25.0292 0.733959 1.62223e-17)
(25.1109 0.73877 -2.67872e-17)
(25.1796 0.744934 -1.02093e-17)
(25.2388 0.75237 1.55668e-17)
(25.2956 0.761263 3.99511e-17)
(25.3533 0.771877 1.21183e-17)
(25.4129 0.784069 2.09527e-17)
(25.474 0.798107 4.81299e-19)
(25.5361 0.81394 -6.97956e-18)
(25.5987 0.832031 -4.09844e-17)
(25.6619 0.852374 3.27525e-17)
(25.7252 0.875426 7.9933e-18)
(25.7885 0.90123 5.33131e-18)
(25.8515 0.930111 1.2173e-17)
(25.914 0.962255 -1.47948e-17)
(25.9754 0.997767 6.10641e-18)
(26.0356 1.0368 -1.92121e-18)
(26.0941 1.07933 1.5501e-18)
(26.1507 1.12532 5.015e-19)
(26.2049 1.17471 2.5337e-19)
(26.2565 1.22729 7.93032e-18)
(26.305 1.28288 -1.89095e-17)
(26.3504 1.34121 2.40491e-17)
(26.3923 1.40198 2.26243e-18)
(26.4304 1.4649 -1.55908e-18)
(26.4647 1.52958 -6.24132e-17)
(26.4949 1.59571 -3.60926e-17)
(26.521 1.66285 -1.41286e-16)
(26.543 1.73069 9.09136e-18)
(26.5607 1.79881 2.92598e-17)
(26.5743 1.86686 1.03714e-17)
(26.5837 1.93446 -1.13443e-17)
(26.5891 2.00128 1.06096e-16)
(26.5905 2.06699 -2.31785e-17)
(26.5883 2.13129 2.58287e-17)
(26.5824 2.19391 -2.11844e-17)
(26.5733 2.2546 -1.47429e-17)
(26.561 2.31316 -1.20508e-17)
(26.5458 2.3694 4.77595e-18)
(26.528 2.42319 -1.23015e-16)
(26.5079 2.47442 -7.19335e-17)
(26.4856 2.523 1.83143e-16)
(26.4615 2.56889 8.31719e-19)
(26.4358 2.61208 -2.46976e-16)
(26.4088 2.65256 -1.31442e-17)
(26.3807 2.69036 5.1082e-17)
(26.3516 2.72554 4.46242e-19)
(26.3219 2.75816 6.05553e-17)
(26.2916 2.78828 -4.26758e-16)
(26.2612 2.81602 -8.72208e-17)
(26.2308 2.84145 2.39147e-16)
(26.2006 2.86475 3.97374e-17)
(26.1712 2.88589 1.51306e-17)
(26.1455 2.90259 7.52955e-18)
(26.123 2.91644 7.98417e-19)
(26.1003 2.92884 1.02864e-16)
(26.0767 2.94336 2.13665e-16)
(26.0543 2.95135 -2.40201e-19)
(26.029 2.97075 -8.13571e-17)
(26.01 2.96441 1.40404e-16)
(25.9801 3.00577 6.1058e-17)
(25.9744 2.95268 1.95216e-16)
(25.9287 3.0716 1.80563e-17)
(25.9607 2.87534 -1.60758e-16)
(22.6266 1.41786 2.65088e-18)
(21.3174 1.33808 2.40938e-19)
(19.9683 1.2321 -9.51974e-18)
(18.8665 1.11446 3.31555e-18)
(18.2762 1.00867 3.47668e-18)
(18.3387 0.935284 1.07074e-19)
(19.0202 0.904638 3.39496e-18)
(20.1632 0.915905 -2.5267e-19)
(21.5667 0.961496 1.09178e-18)
(23.0058 1.02821 -1.6659e-17)
(24.2138 1.09484 5.71396e-18)
(24.9262 1.13523 -1.06555e-18)
(25.1207 1.13752 1.29077e-17)
(25.1024 1.12022 -1.48072e-17)
(25.122 1.10512 -5.48882e-18)
(25.1921 1.09589 -1.38117e-17)
(25.2617 1.08946 -1.18246e-18)
(25.3168 1.08446 -2.30677e-18)
(25.3649 1.08137 -2.72141e-17)
(25.4127 1.08087 -1.16656e-17)
(25.4618 1.08304 -9.09264e-18)
(25.5118 1.08797 -2.41908e-17)
(25.5621 1.09551 2.39147e-17)
(25.6127 1.10577 1.0339e-18)
(25.6633 1.11861 -9.0006e-20)
(25.714 1.13416 -8.41724e-18)
(25.7647 1.15231 -1.55846e-17)
(25.8154 1.17314 2.21225e-18)
(25.866 1.19669 1.78532e-17)
(25.9163 1.22294 -1.75433e-17)
(25.9661 1.25199 2.97946e-18)
(26.0152 1.28382 1.00966e-19)
(26.0634 1.31846 9.04527e-19)
(26.1105 1.35592 -2.33812e-20)
(26.1561 1.39614 8.21238e-18)
(26.1999 1.43908 -1.11868e-17)
(26.2417 1.48463 -6.72692e-19)
(26.2812 1.53264 -1.50038e-17)
(26.3181 1.58295 -2.04511e-17)
(26.3521 1.63532 1.17717e-18)
(26.3831 1.68953 1.14722e-17)
(26.4109 1.74528 2.34804e-17)
(26.4352 1.80231 7.66369e-18)
(26.456 1.86026 1.06566e-17)
(26.4732 1.91884 -1.38003e-17)
(26.4868 1.97772 2.74605e-17)
(26.4967 2.03656 -9.69321e-18)
(26.503 2.09504 -2.06587e-17)
(26.5058 2.15287 1.9531e-17)
(26.5051 2.20974 5.12524e-17)
(26.5012 2.26539 -3.32227e-17)
(26.4941 2.31958 -1.11264e-17)
(26.484 2.37208 -4.39115e-17)
(26.4712 2.42272 1.06597e-16)
(26.4559 2.47132 6.6738e-17)
(26.4382 2.51777 -1.78338e-16)
(26.4185 2.56196 7.93725e-19)
(26.397 2.60382 2.19919e-16)
(26.3738 2.64332 -5.72512e-17)
(26.3492 2.68043 -5.41563e-17)
(26.3235 2.71516 -1.37394e-16)
(26.2968 2.74754 5.6064e-17)
(26.2693 2.77759 4.00107e-16)
(26.2414 2.8054 1.48928e-16)
(26.2133 2.83101 -1.81638e-16)
(26.1852 2.85457 8.80882e-17)
(26.1576 2.87606 -6.56869e-17)
(26.1334 2.89307 7.4241e-18)
(26.1121 2.90729 7.89431e-19)
(26.0906 2.91992 -5.60309e-18)
(26.0681 2.93507 -2.15044e-16)
(26.0467 2.94303 -2.39951e-19)
(26.0225 2.96363 2.03494e-17)
(26.0042 2.95653 -1.3678e-16)
(25.9759 3.00025 2.68759e-16)
(25.9693 2.94499 -4.25873e-18)
(25.9278 3.06807 -8.08193e-19)
(23.735 1.57596 -1.23467e-18)
(22.768 1.5224 3.99866e-19)
(21.6721 1.44902 1.49977e-19)
(20.6034 1.35977 6.41647e-19)
(19.7522 1.26761 -3.94882e-18)
(19.3013 1.18842 4.62542e-18)
(19.3644 1.13733 -1.85251e-18)
(19.9376 1.12336 -4.72612e-19)
(20.9145 1.1471 3.93307e-18)
(22.1322 1.20231 -9.85441e-18)
(23.3874 1.27622 -1.6379e-18)
(24.4317 1.34772 -1.70184e-17)
(25.045 1.39252 -1.05692e-17)
(25.2289 1.40206 -2.39354e-18)
(25.2294 1.39294 1.97996e-18)
(25.2477 1.384 1.28802e-17)
(25.3027 1.37899 2.19176e-18)
(25.3572 1.37512 -6.65077e-18)
(25.4 1.3711 1.60941e-18)
(25.4384 1.36757 3.18293e-19)
(25.4779 1.3652 7.54552e-18)
(25.5193 1.36438 3.34038e-17)
(25.5617 1.36517 -8.1964e-18)
(25.6044 1.36781 3.65194e-19)
(25.6475 1.37241 -8.26305e-18)
(25.6908 1.37921 1.15636e-19)
(25.7343 1.38829 -6.0629e-19)
(25.7779 1.39981 1.8342e-19)
(25.8215 1.41386 7.58776e-18)
(25.865 1.43048 -2.69772e-18)
(25.9083 1.44975 4.86442e-18)
(25.9513 1.47167 4.14288e-18)
(25.9937 1.49626 -3.60794e-18)
(26.0354 1.52352 3.86767e-19)
(26.0763 1.5534 6.14603e-18)
(26.116 1.58587 6.62131e-18)
(26.1543 1.62087 1.08891e-18)
(26.191 1.65829 -4.39967e-18)
(26.2259 1.69805 2.51016e-17)
(26.2587 1.73997 -3.85634e-18)
(26.2892 1.78391 -6.26491e-18)
(26.3172 1.82966 1.02562e-17)
(26.3424 1.87701 1.85722e-17)
(26.3648 1.92571 2.99797e-17)
(26.3842 1.97551 -4.1907e-17)
(26.4005 2.02612 5.23443e-18)
(26.4135 2.07726 -8.56647e-18)
(26.4234 2.12865 -1.84856e-17)
(26.43 2.17999 1.7685e-17)
(26.4334 2.23098 -2.65314e-18)
(26.4336 2.28138 -4.17069e-17)
(26.4308 2.33091 -1.04048e-17)
(26.4251 2.37934 9.28374e-18)
(26.4166 2.42645 -7.43162e-18)
(26.4055 2.47205 -2.34206e-18)
(26.392 2.51597 1.52739e-16)
(26.3763 2.55807 7.75065e-19)
(26.3585 2.59825 -1.1524e-16)
(26.339 2.63641 2.70625e-19)
(26.3178 2.6725 -1.56964e-18)
(26.2952 2.70649 9.12266e-18)
(26.2715 2.73835 -3.73119e-18)
(26.2467 2.76809 -2.27819e-16)
(26.2213 2.79575 -8.06507e-17)
(26.1954 2.82136 1.64224e-16)
(26.1694 2.84502 -8.57589e-17)
(26.1437 2.86672 5.0314e-17)
(26.121 2.88393 1.12308e-16)
(26.1009 2.89846 -1.44798e-16)
(26.0806 2.91124 -2.65421e-16)
(26.0592 2.92696 -9.82453e-19)
(26.0388 2.93485 -2.5042e-19)
(26.0157 2.95656 -7.46094e-17)
(25.998 2.94874 7.52452e-17)
(25.9714 2.99469 -7.18381e-18)
(25.9642 2.93741 -4.36372e-18)
(24.5798 1.72092 -6.71982e-20)
(23.897 1.68387 3.03924e-19)
(23.0395 1.63087 1.52226e-18)
(22.1017 1.56209 5.35236e-19)
(21.2052 1.48439 3.302e-18)
(20.4933 1.40724 -3.01938e-18)
(20.1081 1.34268 6.99036e-19)
(20.1477 1.30304 -3.99343e-19)
(20.625 1.29629 1.10368e-17)
(21.4658 1.32361 1.75735e-17)
(22.5354 1.37979 -1.50891e-18)
(23.6504 1.45272 1.02465e-18)
(24.5865 1.52273 4.4878e-18)
(25.1564 1.56848 1.22187e-17)
(25.355 1.58273 2.30045e-18)
(25.3733 1.57889 -2.13761e-18)
(25.3854 1.57355 -1.95283e-18)
(25.4249 1.57143 1.10518e-18)
(25.4667 1.57057 2.74675e-18)
(25.5001 1.56971 8.43108e-18)
(25.53 1.56904 2.03241e-18)
(25.5612 1.56912 -2.42764e-18)
(25.594 1.57013 -1.06067e-17)
(25.6276 1.57213 2.8269e-17)
(25.6616 1.57519 -1.5599e-17)
(25.696 1.57948 -5.02516e-19)
(25.7308 1.58516 8.62374e-19)
(25.7661 1.59238 -9.49923e-20)
(25.8017 1.60131 -6.36425e-18)
(25.8377 1.61209 -4.73661e-19)
(25.8738 1.62487 -1.06135e-17)
(25.9101 1.63975 8.89199e-19)
(25.9463 1.65684 4.02474e-18)
(25.9823 1.6762 2.29611e-19)
(26.0179 1.69789 3.93116e-18)
(26.0529 1.72193 2.60048e-18)
(26.0871 1.74832 -7.74098e-18)
(26.1203 1.77701 -1.05061e-17)
(26.1523 1.80798 -1.4978e-17)
(26.1829 1.84111 8.67312e-18)
(26.2118 1.87631 6.7095e-18)
(26.2387 1.91344 1.52506e-17)
(26.2637 1.95235 -6.79148e-18)
(26.2863 1.99284 -2.05373e-17)
(26.3065 2.03472 -4.70104e-18)
(26.3241 2.07777 1.53032e-17)
(26.3391 2.12175 -7.49341e-18)
(26.3512 2.1664 -1.63946e-17)
(26.3604 2.21147 1.58911e-17)
(26.3668 2.2567 2.77019e-17)
(26.3703 2.30183 3.71491e-17)
(26.371 2.3466 -9.687e-18)
(26.3688 2.39078 4.69058e-17)
(26.364 2.43414 -7.06398e-18)
(26.3566 2.47646 -2.24767e-18)
(26.3467 2.51756 -1.48218e-16)
(26.3345 2.55726 7.57112e-19)
(26.3202 2.59544 8.96237e-17)
(26.304 2.63196 5.28937e-17)
(26.286 2.66674 -1.56912e-18)
(26.2665 2.69969 2.01595e-16)
(26.2456 2.73078 -3.77969e-18)
(26.2235 2.75997 -2.4386e-19)
(26.2005 2.78727 -4.14032e-17)
(26.1769 2.81268 -8.85062e-18)
(26.1529 2.83627 -3.08751e-17)
(26.1291 2.85803 -5.56541e-20)
(26.1079 2.87533 -9.62996e-17)
(26.0891 2.89007 1.46029e-16)
(26.0699 2.90293 4.14582e-18)
(26.0497 2.91912 -1.41368e-16)
(26.0304 2.92691 4.84655e-17)
(26.0085 2.94964 1.31744e-16)
(25.9915 2.94113 -3.9067e-19)
(25.1401 1.84827 -4.96559e-19)
(24.723 1.82539 2.4227e-19)
(24.1034 1.78892 3.35031e-19)
(23.3411 1.73755 3.57546e-19)
(22.5161 1.675 1.5834e-19)
(21.7283 1.60637 -4.69582e-20)
(21.0945 1.53931 4.41152e-19)
(20.7337 1.48409 -2.51861e-19)
(20.7357 1.45127 -4.22457e-19)
(21.1251 1.44823 -1.223e-18)
(21.8502 1.47659 3.52767e-19)
(22.7981 1.53186 -9.00499e-19)
(23.8042 1.60279 1.69981e-18)
(24.6687 1.67131 -2.97135e-19)
(25.2243 1.71838 1.37196e-18)
(25.4485 1.73643 4.38659e-19)
(25.4855 1.7356 -2.5477e-18)
(25.4925 1.73099 7.53204e-19)
(25.5192 1.72872 1.93794e-18)
(25.5524 1.72814 -5.90079e-19)
(25.5809 1.72792 -1.25702e-18)
(25.6064 1.72797 -1.95064e-18)
(25.6324 1.72867 1.61153e-18)
(25.6595 1.73024 -1.24464e-18)
(25.6871 1.73269 1.53198e-18)
(25.7149 1.73605 -5.5903e-19)
(25.7428 1.74044 4.89764e-18)
(25.7711 1.74596 -3.92773e-18)
(25.7997 1.7527 -5.18858e-19)