/*--------------------------------*- C++ -*----------------------------------*\
| =========                 |                                                 |
| \\      /  F ield         | OpenFOAM: The Open Source CFD Toolbox           |
|  \\    /   O peration     | Version:  2306                                  |
|   \\  /    A nd           | Website:  www.openfoam.com                      |
|    \\/     M anipulation  |                                                 |
\*---------------------------------------------------------------------------*/
FoamFile
{
    version     2.0;
    format      ascii;
    arch        "LSB;label=32;scalar=64";
    class       volScalarField;
    location    "650";
    object      div(phi);
}
// * * * * * * * * * * * * * * * * * * * * * * * * * * * * * * * * * * * * * //

dimensions      [0 0 -1 0 0 0 0];

internalField   nonuniform List<scalar> 
1340
(
8.3885e-07
-1.08941e-06
2.32052e-08
-1.8427e-06
1.959e-06
9.60562e-07
-1.75855e-07
-6.43438e-07
-1.05002e-07
-3.28025e-07
9.69875e-07
2.29134e-07
-2.76497e-07
-2.18585e-07
-1.94023e-07
1.44375e-07
-2.13628e-07
4.01735e-07
4.21532e-07
-1.67162e-08
-1.42729e-07
4.827e-08
-7.46765e-08
1.49503e-07
-8.56582e-08
7.74143e-07
2.8664e-07
3.44316e-08
1.6364e-08
-3.13236e-08
1.49994e-07
-5.39667e-08
1.49375e-07
5.65858e-08
3.97758e-07
2.53248e-07
1.22942e-07
4.84113e-08
8.48073e-08
-4.4057e-08
1.13425e-07
-3.86614e-09
1.21197e-07
-5.93962e-08
-2.68197e-07
2.70755e-07
1.18853e-07
8.67443e-08
2.43067e-08
1.18511e-07
-4.81335e-08
8.79228e-08
2.67247e-08
3.42246e-09
-7.0628e-08
2.18186e-07
1.48686e-07
9.45739e-08
8.79889e-08
-3.06771e-08
7.66335e-08
-2.83092e-08
5.31279e-08
2.80993e-08
-3.9022e-08
-1.28219e-07
2.3375e-07
1.27432e-07
1.00481e-07
3.93816e-08
9.2872e-08
-4.58268e-08
4.38703e-08
-2.4955e-09
4.53692e-08
2.42921e-08
-3.42334e-08
1.85017e-07
1.38524e-07
9.7406e-08
7.76927e-08
-2.46191e-08
5.55959e-08
-4.81896e-08
4.90502e-08
2.32888e-08
5.10519e-08
-5.87071e-08
2.31673e-07
1.99919e-07
1.17281e-07
8.68553e-08
3.8471e-08
7.17304e-08
-5.05401e-08
2.71518e-08
-3.14027e-08
7.59808e-08
1.38763e-08
9.9966e-08
-1.19216e-07
1.57631e-07
1.16623e-07
8.59366e-08
6.27149e-08
-2.54964e-08
3.40902e-08
-6.22122e-08
3.46374e-08
5.57131e-09
4.72688e-08
1.0174e-09
2.2108e-07
1.65763e-07
1.02374e-07
7.58342e-08
3.15288e-08
5.24917e-08
-5.40568e-08
1.37571e-08
-5.23595e-08
5.41541e-08
2.46109e-08
7.23867e-08
-9.90452e-08
1.67578e-07
1.41089e-07
9.89124e-08
7.17514e-08
4.93934e-08
-2.58511e-08
2.35878e-08
-7.18154e-08
2.07216e-08
-1.92886e-08
5.2275e-08
2.456e-08
3.57099e-08
-2.44613e-08
1.49187e-07
8.40037e-08
5.91375e-08
2.50837e-08
3.8921e-08
-5.50634e-08
2.01133e-09
-6.99055e-08
4.24839e-08
2.54832e-08
4.59178e-08
-1.54337e-08
-3.05071e-08
1.77045e-08
1.15953e-07
8.4149e-08
5.71277e-08
3.73061e-08
-2.51116e-08
1.14241e-08
-7.57813e-08
5.56417e-09
-3.26447e-08
4.64565e-08
2.75408e-08
3.51028e-08
-5.13119e-09
-4.7831e-09
1.40037e-07
6.11823e-08
5.08698e-08
2.01118e-08
2.83854e-08
-5.30337e-08
-4.26159e-09
-7.88379e-08
3.43244e-08
2.5449e-08
3.44146e-08
-2.86964e-08
9.76396e-10
2.88407e-08
9.07667e-08
8.05579e-08
3.69629e-08
3.00506e-08
-2.19271e-08
7.93287e-09
-7.59604e-08
1.4578e-09
-4.26269e-08
3.6285e-08
1.34826e-08
3.72562e-08
1.69523e-08
-5.57876e-08
2.97466e-07
2.14003e-07
-2.23899e-08
1.91974e-08
1.05618e-08
2.14349e-08
-4.9341e-08
-8.18903e-09
-8.19541e-08
2.33271e-08
9.63608e-09
2.54653e-08
-3.22479e-08
-4.87392e-08
2.06061e-07
-1.45649e-07
-4.23962e-08
4.14076e-08
-2.10756e-08
1.01917e-08
-2.12364e-08
2.84419e-09
-7.25367e-08
-4.57223e-09
-5.19731e-08
2.26e-08
-3.23058e-09
2.70591e-08
4.29211e-08
-1.12231e-07
4.55889e-07
2.32487e-07
-7.92251e-08
-3.36643e-08
-4.70333e-09
1.41177e-08
-4.52534e-08
-8.21922e-09
-8.12214e-08
1.76749e-08
-5.15582e-09
2.24149e-08
-4.4444e-08
-5.66297e-08
9.99691e-08
9.02125e-08
4.85804e-07
-5.46167e-08
-1.66458e-10
-1.09404e-08
7.22423e-09
-1.93887e-08
2.72038e-09
-6.79996e-08
-3.4622e-09
-5.69026e-08
1.47966e-08
-1.17703e-08
1.72578e-08
-1.17871e-08
5.76353e-08
5.94275e-08
4.67823e-07
-3.57317e-08
-5.76963e-09
-3.8892e-10
1.1617e-08
-4.09275e-08
-8.27851e-09
-7.7539e-08
1.03791e-08
-1.08965e-08
1.18526e-08
-5.16006e-08
-5.65741e-08
1.01123e-07
1.58056e-07
1.20103e-08
4.03413e-07
-1.21841e-08
3.96406e-09
1.11733e-08
-1.57442e-08
1.07004e-09
-6.21384e-08
-5.52082e-09
-5.62815e-08
6.81725e-09
-1.51018e-08
1.00993e-08
-3.67399e-10
7.29499e-09
1.59617e-07
8.20197e-08
-8.37258e-08
8.0615e-09
5.88295e-09
3.95148e-09
1.07801e-08
-3.65413e-08
-6.23861e-09
-7.21905e-08
1.0006e-08
-1.21707e-08
1.23535e-08
-6.11118e-08
-3.82557e-08
8.04919e-08
1.84449e-07
-1.25858e-07
2.58778e-07
-1.18618e-08
8.4953e-09
1.27325e-08
-1.31004e-08
2.46951e-09
-5.64258e-08
-2.21535e-09
-5.36229e-08
8.29696e-09
-1.91339e-08
1.06854e-08
-1.17364e-08
1.3686e-07
4.22252e-10
1.56369e-07
-2.16074e-07
2.949e-07
1.08808e-08
1.00818e-08
5.57015e-09
1.00165e-08
-3.24382e-08
-5.12225e-09
-6.60267e-08
8.98408e-09
-1.23328e-08
7.37618e-09
-6.71458e-08
3.44622e-08
6.44686e-08
1.96237e-07
-4.36234e-08
3.25526e-08
-1.43519e-07
-7.39745e-09
1.20988e-08
1.29307e-08
-1.09074e-08
1.94769e-09
-5.03095e-08
-2.06837e-09
-4.9461e-08
6.03335e-09
-2.18225e-08
1.08351e-08
2.70635e-08
1.0745e-07
6.84949e-08
4.14754e-08
-1.78444e-07
2.44981e-07
1.78512e-08
1.16135e-08
6.07725e-09
9.39852e-09
-2.85815e-08
-2.65294e-09
-5.95631e-08
1.09209e-08
-1.19231e-08
3.8308e-09
-5.63515e-08
1.17547e-08
1.14083e-07
6.61338e-08
-3.9014e-08
2.90925e-09
-2.15821e-07
2.98973e-07
-4.05692e-09
1.13585e-08
1.20078e-08
-9.48138e-09
3.45855e-09
-4.46494e-08
1.40934e-09
-4.51139e-08
6.42829e-09
-2.33638e-08
7.6329e-09
2.72722e-08
6.51207e-08
6.05171e-08
-1.27829e-08
-1.05997e-07
4.32044e-09
-7.47053e-08
1.52751e-08
1.10797e-08
5.56736e-09
8.62463e-09
-2.50158e-08
-1.36085e-09
-5.29613e-08
9.92554e-09
-1.17591e-08
6.605e-10
-5.42957e-08
1.56513e-09
8.37308e-08
4.44742e-08
-6.7784e-08
-9.8383e-09
-2.44739e-07
2.279e-07
-2.36284e-09
1.13281e-08
1.08058e-08
-8.17422e-09
3.25028e-09
-3.89699e-08
1.74697e-09
-4.06046e-08
4.49352e-09
-2.23899e-08
3.45209e-09
1.37699e-08
3.88512e-08
3.12661e-08
-2.68267e-08
-1.86973e-07
-6.26528e-09
-1.87576e-07
2.23977e-07
1.66437e-08
9.97496e-09
4.923e-09
8.0205e-09
-2.17518e-08
7.96195e-10
-4.66834e-08
1.11354e-08
-1.08044e-08
6.24818e-10
-5.24077e-08
-7.06721e-09
5.74357e-08
2.1236e-08
-6.91098e-08
-6.14658e-08
-1.78508e-07
3.16219e-08
-1.05915e-07
-1.88195e-09
9.16749e-09
9.37021e-09
-7.23259e-09
4.46258e-09
-3.3958e-08
4.44835e-09
-3.61728e-08
5.06572e-09
-2.04952e-08
2.29132e-09
7.23635e-09
2.84174e-08
2.65631e-08
-1.55857e-08
-1.77587e-07
1.0182e-08
-2.38801e-07
2.75819e-07
1.2492e-08
8.40029e-09
4.02851e-09
7.2779e-09
-1.87882e-08
1.73223e-09
-4.07217e-08
1.01533e-08
-9.87132e-09
-5.08967e-11
-4.73533e-08
-6.22387e-09
5.5045e-08
2.74034e-08
-4.35415e-08
-2.79944e-08
-2.28437e-07
5.23033e-08
-1.66687e-07
2.15901e-07
-2.07319e-09
8.29307e-09
8.06584e-09
-6.26741e-09
4.21963e-09
-2.92034e-08
4.49334e-09
-3.18353e-08
4.0287e-09
-1.80683e-08
3.48399e-09
9.40202e-09
3.1051e-08
3.57982e-08
3.53909e-09
-1.34417e-07
-7.34717e-09
-1.43116e-07
4.64056e-08
-6.92426e-08
1.22259e-08
6.98634e-09
3.3076e-09
6.7358e-09
-1.61592e-08
3.22595e-09
-3.53541e-08
1.10393e-08
-8.37512e-09
1.31131e-09
-4.01991e-08
-2.64988e-09
5.53982e-08
3.35477e-08
-2.52214e-08
1.1258e-09
-2.0494e-07
5.20898e-08
-1.709e-07
3.32636e-08
-2.31283e-09
6.27936e-09
6.81605e-09
-5.54361e-09
5.00911e-09
-2.51569e-08
6.34767e-09
-2.77415e-08
5.05535e-09
-1.49964e-08
5.72821e-09
1.22222e-08
3.18106e-08
3.80416e-08
1.55836e-08
-1.06212e-07
1.61699e-08
-1.78829e-07
-1.671e-08
-1.13013e-07
6.83995e-08
8.60052e-09
5.57804e-09
2.55599e-09
6.06991e-09
-1.38448e-08
3.6489e-09
-3.0431e-08
1.02198e-08
-6.87415e-09
2.03997e-09
-3.34084e-08
2.73829e-10
5.23347e-08
3.4005e-08
-1.72543e-08
1.22931e-08
-1.68391e-07
2.39148e-08
-1.18276e-07
5.62551e-08
-6.48159e-08
-2.64803e-09
5.49353e-09
5.73695e-09
-4.83044e-09
4.56462e-09
-2.14177e-08
6.02095e-09
-2.38581e-08
4.76423e-09
-1.20271e-08
7.93214e-09
1.35997e-08
2.94864e-08
3.51755e-08
2.06709e-08
-8.89366e-08
1.83184e-08
-1.55654e-07
3.74491e-08
-1.75771e-08
1.83597e-08
8.18776e-09
4.4419e-09
1.98084e-09
5.50011e-09
-1.18215e-08
4.40644e-09
-2.60706e-08
1.08027e-08
-5.14837e-09
3.96172e-09
-2.70962e-08
1.86254e-09
4.72144e-08
3.20759e-08
-1.43025e-08
1.27797e-08
-1.30359e-07
2.67569e-08
3.59747e-08
4.79747e-09
1.11547e-07
-2.81098e-09
3.95018e-09
4.73634e-09
-4.26563e-09
4.88127e-09
-1.82399e-08
7.11278e-09
-2.03098e-08
5.81474e-09
-9.19348e-09
9.60332e-09
1.45425e-08
2.63853e-08
2.87473e-08
2.05453e-08
-7.14924e-08
1.48808e-08
1.91736e-08
3.34614e-08
6.56521e-08
-2.66847e-08
6.38955e-08
5.4319e-09
3.36776e-09
1.43246e-09
4.84294e-09
-1.00146e-08
4.38889e-09
-2.20911e-08
9.96052e-09
-3.80979e-09
4.57626e-09
-2.14498e-08
2.36481e-09
3.90523e-08
2.6963e-08
-1.59696e-08
3.92754e-09
4.01914e-09
2.74766e-08
-2.07614e-08
2.46006e-08
-8.32449e-08
4.00528e-08
-3.01633e-09
3.3732e-09
3.90138e-09
-3.66098e-09
4.26554e-09
-1.52829e-08
6.48754e-09
-1.71064e-08
5.41896e-09
-6.82104e-09
1.03959e-08
1.27904e-08
1.94285e-08
2.11014e-08
7.86911e-09
1.4543e-08
-6.87408e-10
-3.7508e-08
6.44827e-09
-1.17255e-07
1.81547e-08
-7.28902e-08
5.08052e-09
2.56102e-09
1.02614e-09
4.24584e-09
-8.37924e-09
4.61497e-09
-1.85762e-08
1.00193e-08
-2.57213e-09
5.6419e-09
-1.73324e-08
9.98901e-10
3.06881e-08
1.34865e-08
1.10406e-08
-4.62493e-09
-3.73705e-08
6.20302e-09
-1.58479e-07
2.20137e-08
-1.31992e-07
1.13022e-07
-3.03064e-09
2.24115e-09
3.15318e-09
-3.1223e-09
4.28982e-09
-1.27242e-08
6.99148e-09
-1.42803e-08
5.86701e-09
-4.96951e-09
1.06376e-08
9.69262e-09
1.18614e-08
1.09892e-08
7.257e-09
-1.30566e-08
-2.90181e-10
-9.71956e-08
1.42487e-08
-1.44362e-07
3.56096e-08
-9.02876e-08
1.15785e-07
3.0518e-09
1.81457e-09
6.87124e-10
3.68291e-09
-6.87827e-09
4.4054e-09
-1.53895e-08
9.01321e-09
-1.79194e-09
5.47616e-09
-1.44718e-08
-1.0381e-10
2.20249e-08
6.19369e-09
5.03349e-09
-1.13908e-08
-4.58369e-08
-6.61521e-10
-1.34479e-07
2.59252e-08
-6.70353e-08
2.87439e-08
-1.30603e-08
-3.08276e-09
1.87038e-09
2.57487e-09
-2.53258e-09
3.7083e-09
-1.0344e-08
6.22327e-09
-1.18214e-08
5.10155e-09
-3.85655e-09
9.89862e-09
7.78685e-09
8.16201e-09
8.68951e-09
7.19734e-09
-8.81255e-09
3.37468e-09
-7.95117e-08
2.589e-08
-1.1709e-07
3.81618e-08
-3.69561e-08
6.59734e-08
2.81992e-09
1.30687e-09
4.80487e-10
3.17282e-09
-5.51217e-09
4.34268e-09
-1.26094e-08
8.66013e-09
-1.23165e-09
5.36162e-09
-1.217e-08
-1.05189e-10
1.88447e-08
6.41342e-09
7.89894e-09
-4.33003e-09
-3.52422e-08
8.94077e-09
-1.09726e-07
3.45954e-08
-5.55539e-08
3.63171e-08
-3.48171e-08
-2.98233e-09
1.11355e-09
2.06778e-09
-2.0063e-09
3.5705e-09
-8.29331e-09
6.32581e-09
-9.71918e-09
4.98285e-09
-3.15202e-09
8.9793e-09
6.12911e-09
6.01051e-09
5.89228e-09
4.92725e-09
-9.67889e-09
2.79538e-09
-6.83172e-08
2.65258e-08
-9.95532e-08
4.07585e-08
-7.06505e-08
7.97195e-08
1.38097e-09
8.28443e-10
2.87616e-10
2.6743e-09
-4.27766e-09
4.00527e-09
-1.01023e-08
7.60544e-09
-1.00445e-09
4.49255e-09
-1.08516e-08
-1.16628e-09
1.33387e-08
2.04254e-09
1.98598e-09
-9.16205e-09
-3.42035e-08
2.85405e-09
-9.22696e-08
3.35405e-08
-7.98156e-08
3.65507e-08
-5.07069e-08
8.22341e-08
-2.90207e-09
8.64861e-10
1.64453e-09
-1.47985e-09
2.99494e-09
-6.39943e-09
5.47118e-09
-7.88321e-09
4.00153e-09
-2.88499e-09
7.31126e-09
4.22574e-09
3.26845e-09
3.76247e-09
3.46918e-09
-7.92414e-09
3.35129e-09
-5.4882e-08
2.31502e-08
-8.36552e-08
3.54582e-08
-3.35827e-08
2.7814e-08
-4.5065e-09
1.16452e-09
4.70537e-10
1.41173e-10
2.14021e-09
-3.17027e-09
3.64864e-09
-7.87646e-09
7.00605e-09
-8.25139e-10
3.43282e-09
-9.66783e-09
-1.38628e-09
1.14457e-08
2.66848e-09
4.35347e-09
-3.74219e-09
-2.53757e-08
8.12407e-09
-7.57547e-08
3.35955e-08
-6.6275e-08
3.64347e-08
-1.41427e-08
5.11727e-08
-2.77138e-09
3.0445e-10
1.21019e-09
-1.01982e-09
2.57275e-09
-4.77934e-09
5.26605e-09
-6.28213e-09
3.51549e-09
-2.84642e-09
6.13579e-09
3.49041e-09
2.56963e-09
3.15641e-09
3.12416e-09
-6.95481e-09
3.97469e-09
-4.69371e-08
2.17984e-08
-7.045e-08
3.438e-08
-2.28754e-08
3.29467e-08
4.3712e-10
7.31132e-11
8.65193e-11
-4.79616e-11
1.53628e-09
-2.19889e-09
3.13015e-09
-5.89639e-09
6.1023e-09
-1.26426e-09
2.46135e-09
-8.36813e-09
-1.83971e-09
8.76319e-09
9.71554e-10
1.54594e-09
-5.95844e-09
-2.36617e-08
4.35835e-09
-6.45768e-08
2.84611e-08
-4.94229e-08
3.51721e-08
2.58796e-11
4.24721e-08
-2.65072e-09
1.11153e-10
7.37212e-10
-7.80317e-10
1.91972e-09
-3.64288e-09
4.26515e-09
-5.29583e-09
2.1569e-09
-2.98391e-09
4.89417e-09
3.12407e-09
2.39595e-09
8.09223e-10
3.37556e-09
-5.45913e-09
5.23628e-09
-3.74281e-08
2.00812e-08
-5.07209e-08
3.26239e-08
1.05661e-08
2.80692e-08
2.5868e-08
-4.11491e-10
-4.61276e-10
-3.50473e-10
9.69211e-10
-2.08333e-09
2.52307e-09
-5.10244e-09
4.92776e-09
-8.03084e-10
2.47101e-09
-6.22304e-09
8.36136e-10
2.52531e-09
6.41263e-09
-3.08696e-10
2.0237e-09
-1.90168e-08
1.02768e-08
-4.39039e-08
2.79606e-08
7.59929e-09
3.34813e-08
1.94081e-08
1.48576e-08
1.55077e-08
-2.3276e-09
-1.55044e-10
1.5743e-10
-1.18241e-09
1.45878e-09
-3.73263e-09
3.95342e-09
-3.9259e-09
1.68978e-09
-2.02849e-09
5.92047e-09
-1.31728e-09
7.98491e-09
-5.55022e-09
1.18462e-08
-1.00453e-08
1.41213e-08
-2.08944e-08
2.59389e-08
8.50447e-09
3.26715e-08
2.61632e-11
2.15581e-08
-1.94799e-08
2.05687e-08
-1.23036e-09
-1.012e-09
-7.26706e-10
6.70221e-10
-2.84053e-09
2.27122e-09
-4.39644e-09
3.47019e-09
-1.7392e-10
2.918e-09
-5.2288e-09
2.19479e-09
-3.65589e-10
7.52337e-09
1.67839e-09
3.88997e-09
-2.80866e-09
8.15682e-09
6.75313e-09
1.83633e-08
-5.75258e-09
1.8736e-08
-3.61254e-08
1.29962e-08
-1.52727e-08
-2.58345e-09
-5.81838e-10
-2.66107e-10
-1.77939e-09
1.2285e-09
-3.52946e-09
3.31139e-09
-2.16098e-09
1.8324e-09
-1.14621e-09
5.42397e-09
-1.03088e-09
3.72879e-09
4.39065e-09
2.62871e-09
2.95006e-09
-1.91924e-09
7.53405e-10
1.74941e-09
-7.69787e-09
1.1e-08
-3.92948e-08
1.12573e-08
-1.80039e-08
1.73529e-08
-1.12616e-09
-1.09373e-09
-9.1337e-10
4.91343e-10
-2.4228e-09
1.95228e-09
-2.99023e-09
2.90507e-09
8.80066e-11
3.07766e-09
-3.65649e-09
1.2028e-09
5.59913e-09
3.88241e-09
6.34515e-09
-1.47136e-11
1.35386e-09
-1.12723e-09
-1.25747e-09
3.80061e-09
-2.91989e-08
9.08059e-09
-3.04058e-08
9.49986e-09
-1.25301e-08
-2.86234e-09
-9.6434e-10
-3.64266e-10
-1.47123e-09
1.10574e-09
-2.36089e-09
2.90759e-09
-1.30624e-09
2.27052e-09
-6.81424e-10
3.86998e-09
3.30704e-09
1.33841e-09
1.02323e-08
-1.87094e-09
9.23574e-09
-6.23461e-09
7.60069e-09
-5.86691e-09
-1.92317e-08
3.55673e-09
-4.02533e-08
8.8162e-09
-1.37404e-08
1.66086e-08
-1.52254e-09
-1.22115e-09
-9.35411e-10
5.23258e-10
-1.52946e-09
1.91521e-09
-1.81284e-09
2.70027e-09
2.42258e-10
2.57293e-09
-1.88451e-09
1.15702e-09
6.37279e-09
3.46283e-09
4.27682e-09
7.98732e-10
3.77204e-09
2.52505e-10
-9.16086e-09
5.16067e-09
-3.39739e-08
1.05854e-08
-1.98196e-08
9.24206e-09
-7.89176e-09
-2.86003e-09
-1.18767e-09
-1.9121e-10
-9.55357e-10
1.29938e-09
-1.23287e-09
2.61164e-09
-8.07961e-10
2.25369e-09
-5.40471e-10
3.07921e-09
2.56167e-09
3.59193e-09
2.98262e-09
3.74641e-09
1.1374e-09
4.28693e-09
-8.98628e-11
7.70708e-09
-1.80494e-08
1.24519e-08
-2.61392e-08
1.01978e-08
-5.51078e-09
1.37476e-08
-1.73841e-09
-1.07869e-09
-7.62105e-10
8.46255e-10
-7.01401e-10
1.95058e-09
-9.55455e-10
2.31966e-09
1.74061e-10
1.87327e-09
-1.8216e-09
3.6112e-09
3.31493e-09
4.20736e-09
2.44758e-09
2.26711e-09
2.94993e-09
2.05197e-09
-9.24014e-09
7.98832e-09
-2.29646e-08
1.23865e-08
-6.24872e-10
8.75807e-09
6.2267e-09
-2.93561e-09
-1.29165e-09
3.30546e-10
-6.6878e-10
1.40393e-09
-4.11319e-10
2.18494e-09
-5.14643e-10
1.81745e-09
-8.62518e-10
4.26308e-09
1.0271e-09
6.00985e-09
-7.81623e-11
6.13785e-09
-2.53123e-09
6.8888e-09
-4.63428e-09
1.01366e-08
-1.12881e-08
1.44672e-08
1.45925e-09
1.22877e-08
4.93085e-09
3.93205e-09
3.7167e-09
-1.86763e-09
-4.85946e-10
-7.29725e-10
9.97827e-10
-1.75934e-10
1.45242e-09
-2.61452e-10
1.61236e-09
-4.00212e-11
1.74359e-09
-1.36369e-09
3.94787e-09
2.431e-09
2.92079e-09
5.69901e-10
2.65379e-09
-1.15678e-09
4.5904e-09
-2.41838e-09
9.94752e-09
4.57232e-09
1.20703e-08
-2.91408e-09
6.75681e-09
-8.64331e-09
8.81984e-09
-7.20711e-10
-2.11012e-09
1.8269e-09
-1.48102e-09
6.9367e-10
3.52459e-10
1.28722e-09
-5.16618e-11
1.39039e-09
-6.13597e-10
3.44503e-09
2.15657e-09
2.32317e-09
2.43458e-09
7.35595e-10
2.81589e-09
-2.68643e-10
3.87812e-09
3.46587e-10
3.65122e-09
3.61949e-09
-4.7989e-09
8.1917e-09
-7.12454e-09
8.12536e-09
-3.4459e-09
-4.2e-09
1.59362e-09
-1.67918e-09
1.1357e-10
-4.16134e-10
7.85172e-10
6.96563e-10
1.31574e-09
1.27988e-09
2.40274e-09
1.36783e-09
3.1405e-09
2.86924e-09
2.43103e-09
1.6753e-09
2.72539e-09
1.14078e-09
4.20956e-09
1.56546e-09
5.61238e-09
2.14789e-09
1.03511e-08
-6.92577e-09
9.38079e-09
-3.62868e-09
1.36135e-08
1.01861e-09
-9.51051e-10
-3.80844e-10
-7.37935e-10
-4.75209e-11
7.09576e-10
1.22045e-09
9.97596e-10
1.23579e-09
1.08826e-09
2.29153e-09
3.30332e-09
1.52354e-09
3.58449e-09
5.64039e-10
4.71734e-09
9.97849e-10
6.49824e-09
3.1881e-09
6.74899e-09
5.24333e-09
-5.15101e-09
8.50927e-09
8.65393e-10
1.15787e-08
5.12327e-09
-1.07531e-09
-1.99961e-10
-2.06387e-10
-9.22554e-11
1.73472e-10
2.98678e-10
2.48108e-10
2.28895e-10
2.04419e-10
5.2972e-10
9.1272e-10
7.48687e-10
1.31342e-09
5.76955e-10
2.15981e-09
9.50794e-10
3.67823e-09
1.84427e-09
5.43864e-09
4.63155e-09
2.13948e-09
7.64712e-09
4.57395e-09
9.41969e-09
7.85665e-09
1.15645e-08
)
;

boundaryField
{
    inlet
    {
        type            extrapolatedCalculated;
        value           nonuniform List<scalar> 
26
(
-1.07531e-09
-1.99961e-10
-2.06387e-10
-9.22554e-11
1.73472e-10
2.98678e-10
2.48108e-10
2.28895e-10
2.04419e-10
5.2972e-10
9.1272e-10
7.48687e-10
1.31342e-09
5.76955e-10
2.15981e-09
9.50794e-10
3.67823e-09
1.84427e-09
5.43864e-09
4.63155e-09
2.13948e-09
7.64712e-09
4.57395e-09
9.41969e-09
7.85665e-09
1.15645e-08
)
;
    }
    outlet
    {
        type            extrapolatedCalculated;
        value           nonuniform List<scalar> 0();
    }
    walls
    {
        type            extrapolatedCalculated;
        value           nonuniform List<scalar> 0();
    }
    frontAndBack
    {
        type            empty;
    }
    procBoundary0to1
    {
        type            processor;
        value           nonuniform List<scalar> 
94
(
-2.64076e-06
-1.14221e-06
-1.14221e-06
-5.97279e-07
-5.97279e-07
-2.21502e-07
-2.21502e-07
-1.8345e-07
-1.8345e-07
-3.47661e-07
-3.47661e-07
-2.82161e-07
-1.4433e-07
-1.4433e-07
-5.87323e-08
-8.87167e-08
-8.87167e-08
-2.50986e-07
2.95428e-07
-3.24909e-07
-3.24909e-07
-1.77351e-07
-6.05491e-08
-6.05491e-08
-1.38425e-08
2.61216e-08
2.45919e-09
2.45919e-09
1.7016e-09
7.73686e-07
-1.07802e-07
-1.07802e-07
4.0911e-07
-1.86721e-07
-1.86721e-07
-1.36786e-07
1.78919e-07
-4.12721e-07
-4.12721e-07
-2.51223e-07
1.78331e-07
-3.8216e-07
-3.8216e-07
-1.56905e-07
1.60059e-07
-2.9471e-07
-2.9471e-07
-1.61659e-07
2.06659e-07
-2.56304e-07
-2.56304e-07
-1.06943e-07
-8.20393e-08
-1.61456e-07
-1.61456e-07
-8.61207e-08
1.22133e-08
2.13868e-08
-4.63025e-08
-4.63025e-08
-5.15115e-09
-5.6495e-08
4.69807e-08
-1.37139e-07
-1.37139e-07
-5.06649e-08
3.83424e-08
-1.73392e-08
5.03186e-08
-7.12323e-08
-7.12323e-08
-2.60798e-08
3.92889e-08
8.26354e-09
4.18853e-08
2.10875e-08
2.43201e-08
2.43201e-08
1.88252e-08
-1.06461e-08
1.6465e-08
-8.61251e-09
1.24125e-08
-5.76222e-09
1.00305e-08
1.03435e-09
5.15801e-09
5.15801e-09
4.82581e-09
-4.7766e-09
8.60535e-09
2.66478e-09
1.60487e-08
1.68055e-08
)
;
    }
    procBoundary0to4
    {
        type            processor;
        value           nonuniform List<scalar> 
72
(
1.55738e-06
4.32557e-07
8.81074e-07
2.617e-07
3.10429e-07
2.40561e-07
1.85679e-07
1.99487e-07
1.43494e-07
1.78819e-07
1.1142e-07
1.60177e-07
9.50333e-08
1.41965e-07
8.01207e-08
1.43261e-07
7.85346e-08
1.34509e-07
4.304e-08
2.48098e-07
2.91556e-08
1.41616e-07
1.38555e-07
1.38555e-07
1.50248e-08
-8.13205e-09
1.51578e-08
-9.61922e-09
1.72284e-08
-1.07516e-08
1.69691e-08
-6.15199e-09
1.70094e-08
-7.18081e-09
1.44801e-08
-5.00078e-09
1.31031e-08
-6.46167e-09
1.03813e-08
-5.08668e-09
9.0199e-09
-6.14767e-09
6.82694e-09
-5.03354e-09
5.72922e-09
-5.67952e-09
4.06444e-09
-4.71898e-09
3.2224e-09
-5.05238e-09
2.02871e-09
-4.2094e-09
1.3514e-09
-4.32888e-09
3.82906e-10
-3.75999e-09
-8.98649e-11
-4.05997e-09
-3.37765e-10
-4.68828e-09
-2.76281e-10
-4.20945e-09
-8.05151e-10
-3.58492e-09
-1.45932e-09
-3.44697e-09
-1.7311e-09
-2.87451e-09
-2.35321e-09
1.42316e-11
-3.33219e-09
-5.0725e-10
)
;
    }
    procBoundary0to5
    {
        type            processor;
        value           nonuniform List<scalar> 4(1.80589e-07 2.02098e-07 -1.65919e-06 1.43684e-06);
    }
}


// ************************************************************************* //
