/*--------------------------------*- C++ -*----------------------------------*\
| =========                 |                                                 |
| \\      /  F ield         | OpenFOAM: The Open Source CFD Toolbox           |
|  \\    /   O peration     | Version:  2306                                  |
|   \\  /    A nd           | Website:  www.openfoam.com                      |
|    \\/     M anipulation  |                                                 |
\*---------------------------------------------------------------------------*/
FoamFile
{
    version     2.0;
    format      ascii;
    arch        "LSB;label=32;scalar=64";
    class       volScalarField;
    location    "625";
    object      div(phi);
}
// * * * * * * * * * * * * * * * * * * * * * * * * * * * * * * * * * * * * * //

dimensions      [0 0 -1 0 0 0 0];

internalField   nonuniform List<scalar> 
10720
(
-6.56587e-06
4.90614e-06
-3.57393e-06
2.93318e-06
-2.23705e-06
-5.15051e-07
-3.12816e-06
-1.68404e-06
-7.38841e-07
7.13946e-07
9.0389e-07
1.14085e-06
6.96745e-07
6.72434e-07
3.72339e-07
4.97185e-07
2.96826e-07
5.76654e-07
1.86009e-07
5.98316e-07
-7.2261e-07
-4.9321e-07
-4.80285e-06
-6.23716e-06
-7.42963e-06
-5.69692e-06
-3.41014e-06
-2.11179e-06
-3.17173e-06
-3.43308e-06
6.20115e-06
-1.88316e-05
-2.23498e-06
3.57085e-07
9.09121e-06
-2.77338e-05
-7.69247e-05
2.18811e-05
-5.55488e-05
5.13971e-06
-5.63068e-06
-1.31022e-07
-1.20145e-06
-1.04832e-06
4.23206e-06
1.74217e-06
6.49187e-06
1.20839e-06
3.31332e-08
-5.31588e-10
-5.18406e-07
-3.50997e-07
-6.60693e-07
-3.86323e-07
-5.66771e-07
-3.21042e-07
-6.16066e-07
-2.78755e-07
-7.09932e-07
-8.49962e-08
-4.22699e-07
1.02301e-06
1.64169e-06
1.81608e-06
1.76283e-06
1.22902e-06
1.16614e-06
-1.68294e-06
2.8308e-06
1.0357e-06
1.43643e-06
1.45363e-06
2.52692e-06
2.61302e-06
-2.8777e-08
1.41556e-05
9.78322e-06
1.06228e-05
-3.23957e-06
1.35891e-06
-2.29517e-06
2.19575e-06
-2.38975e-06
-1.18158e-06
-2.36326e-06
-1.67334e-06
-9.34439e-08
8.00879e-07
9.60898e-07
1.04044e-06
6.65893e-07
6.85312e-07
4.00723e-07
5.5207e-07
3.34515e-07
5.25845e-07
1.99195e-07
3.50013e-07
-4.32665e-07
-6.54805e-07
-2.61284e-06
-3.14804e-06
-3.855e-06
-3.44149e-06
-3.05956e-06
-2.44564e-06
-2.57783e-06
-2.39791e-06
2.5007e-06
-1.013e-05
-2.81695e-06
-2.66611e-06
1.24566e-06
-1.024e-05
-7.21394e-05
-5.46214e-05
-8.64514e-05
9.70069e-08
-2.71493e-06
9.94941e-07
-6.75019e-07
2.27991e-06
5.99424e-07
4.91181e-06
1.10517e-06
2.99888e-07
1.22044e-07
-1.53535e-07
-3.06216e-07
-4.64827e-07
-6.78897e-07
-5.88642e-07
-6.96974e-07
-5.1213e-07
-6.66333e-07
-4.5446e-07
-6.46254e-07
-2.62189e-07
-3.45044e-07
6.47811e-07
1.05988e-06
1.51346e-06
1.45351e-06
1.44217e-06
1.05125e-06
-1.1897e-06
2.16672e-06
8.74097e-07
1.3782e-06
1.32077e-06
2.53035e-06
2.26092e-06
-9.31593e-07
1.36042e-05
1.19965e-05
1.92671e-05
5.8185e-06
-3.80373e-06
3.74867e-06
-2.77908e-06
5.03106e-07
-2.54938e-06
-1.89365e-06
-6.79834e-07
3.15026e-07
6.95203e-07
1.18952e-06
8.64306e-07
9.08399e-07
5.85523e-07
6.26031e-07
4.81248e-07
5.41154e-07
5.35603e-07
4.92862e-07
4.7947e-07
6.35804e-08
-1.51016e-07
-1.43012e-06
-2.17797e-06
-2.76052e-06
-2.37637e-06
-2.31645e-06
-6.80568e-07
-1.41315e-06
-1.60569e-06
2.89756e-06
-1.01982e-05
-5.6073e-07
1.45181e-06
7.28139e-06
-1.83681e-05
-2.49719e-05
4.2009e-05
-8.08842e-06
-4.21451e-06
2.74366e-06
-4.65133e-07
2.3847e-06
8.54562e-07
1.6041e-06
1.14178e-06
2.94783e-08
-8.81953e-08
2.84813e-09
-1.46853e-07
-1.45766e-07
-5.04344e-07
-4.44977e-07
-6.07069e-07
-4.20566e-07
-4.89934e-07
-4.16388e-07
-4.22542e-07
-4.52939e-07
-2.6979e-07
-2.0556e-07
6.30022e-07
1.2124e-06
1.62014e-06
1.48154e-06
1.49049e-06
9.76165e-07
-1.14761e-06
2.30894e-06
9.25269e-07
1.41276e-06
1.27482e-06
2.28512e-06
2.16309e-06
5.99216e-07
1.0964e-05
6.59208e-06
5.1306e-06
-2.83859e-06
2.39374e-06
-1.16935e-06
7.75323e-07
-2.07824e-06
-1.58097e-06
-1.0839e-06
-3.82988e-07
3.99123e-07
9.00389e-07
1.02821e-06
8.56393e-07
8.55793e-07
5.86312e-07
7.26245e-07
4.87153e-07
6.92616e-07
4.56733e-07
5.9793e-07
2.74342e-07
1.47203e-07
-5.58847e-07
-1.41844e-06
-2.4169e-06
-2.72804e-06
-3.04429e-06
-2.55735e-06
-2.32986e-06
-2.19752e-06
-1.89814e-06
6.91226e-07
-6.89248e-06
-2.83984e-06
-2.76591e-06
1.4693e-09
-6.626e-06
-4.78535e-05
-3.60677e-05
-6.4341e-05
1.92813e-06
5.34073e-07
2.11018e-06
1.83853e-06
1.18785e-06
1.47162e-06
-2.00409e-07
-3.13964e-07
-1.13153e-07
-1.18939e-07
6.14018e-09
-1.96695e-07
-4.3918e-07
-5.82913e-07
-7.22495e-07
-5.99842e-07
-6.41577e-07
-5.01336e-07
-5.95468e-07
-4.34337e-07
-4.30245e-07
-1.63584e-07
2.26005e-07
7.75054e-07
1.05889e-06
1.37098e-06
1.40555e-06
1.17259e-06
-6.74264e-07
1.72019e-06
9.27813e-07
1.37102e-06
1.36134e-06
2.57068e-06
2.31101e-06
-2.76977e-08
1.36758e-05
1.27099e-05
2.06587e-05
-1.17976e-06
1.74723e-07
1.95883e-07
-1.25223e-06
-1.00472e-06
-1.50221e-06
-7.62634e-07
7.94419e-08
3.88512e-07
9.537e-07
8.10452e-07
9.83671e-07
6.95728e-07
8.25515e-07
6.04641e-07
7.12748e-07
5.77625e-07
6.78736e-07
5.67313e-07
5.56466e-07
2.64932e-07
-3.17829e-08
-8.38001e-07
-1.70254e-06
-2.26852e-06
-2.86354e-06
-2.34066e-06
-1.75494e-06
-1.08681e-06
-1.6688e-06
1.45723e-06
-7.60573e-06
-7.95261e-07
2.90788e-06
7.63971e-06
-1.91416e-05
-1.66283e-05
4.53544e-05
8.17893e-07
1.56631e-06
1.31602e-06
2.55021e-06
9.08296e-07
1.02282e-06
2.93822e-07
-2.62392e-07
-4.45669e-07
-3.3048e-07
-4.52585e-08
2.07924e-08
-2.04182e-07
-3.47922e-07
-6.75443e-07
-5.66501e-07
-6.68581e-07
-4.36899e-07
-5.37083e-07
-3.81544e-07
-4.77013e-07
-2.62915e-07
-2.51745e-07
3.63398e-07
6.94788e-07
1.3196e-06
1.35653e-06
1.58791e-06
1.02826e-06
-4.18689e-07
1.44105e-06
9.23494e-07
1.14939e-06
1.20471e-06
1.87816e-06
1.84312e-06
1.36427e-06
9.09072e-06
4.07672e-06
2.3328e-06
7.87523e-07
-5.80243e-08
-1.13191e-06
-1.40075e-07
-1.51722e-06
-6.97817e-07
-2.94498e-07
-4.25028e-08
6.04886e-07
7.44252e-07
8.12471e-07
7.81563e-07
6.85701e-07
7.91507e-07
6.15606e-07
7.64942e-07
5.54297e-07
7.2656e-07
4.43199e-07
5.38176e-07
7.4733e-08
-9.76343e-08
-9.87473e-07
-1.42433e-06
-2.22267e-06
-2.3871e-06
-2.61746e-06
-2.48966e-06
-2.72707e-06
-2.14142e-06
-4.27736e-07
-6.04574e-06
-3.50563e-06
-3.13606e-06
-2.69562e-07
-7.9061e-06
-4.00812e-05
-2.47487e-05
-5.01648e-05
8.73997e-07
2.0632e-06
1.92604e-06
9.46556e-07
1.60635e-06
9.23259e-08
-5.15573e-07
-4.34146e-07
-2.58502e-07
2.67912e-08
3.30294e-08
-9.94296e-08
-4.26951e-07
-6.2981e-07
-7.34494e-07
-6.72424e-07
-5.63653e-07
-5.78155e-07
-4.98469e-07
-4.8047e-07
-3.62286e-07
-2.21242e-07
4.42234e-08
4.33694e-07
7.20434e-07
1.17642e-06
1.28201e-06
1.31216e-06
-2.87916e-07
1.39694e-06
1.03738e-06
1.28968e-06
1.29217e-06
2.28603e-06
2.08079e-06
9.44647e-07
1.18401e-05
1.21895e-05
1.95453e-05
1.85979e-06
-1.31685e-06
-1.54382e-08
-1.09662e-06
-5.12095e-07
-5.31644e-07
-2.42594e-07
1.8019e-07
5.19218e-07
5.75458e-07
7.4019e-07
6.01566e-07
8.07878e-07
6.716e-07
8.25039e-07
6.46895e-07
7.3839e-07
6.10798e-07
6.4732e-07
4.98771e-07
3.86721e-07
1.09105e-07
-3.44009e-07
-9.65381e-07
-1.5768e-06
-2.15285e-06
-2.59678e-06
-1.69376e-06
-1.79299e-06
-1.27904e-06
5.66412e-07
-5.9023e-06
-8.36453e-08
3.56499e-06
8.8362e-06
-2.16288e-05
-1.50585e-05
4.87566e-05
1.34464e-06
6.39144e-07
2.52263e-06
5.11029e-07
1.49879e-06
-3.53283e-07
1.39746e-07
-1.69273e-07
-4.66467e-07
-1.62155e-07
2.43392e-08
9.60828e-08
-7.98895e-08
-4.36751e-07
-6.00764e-07
-7.63654e-07
-5.86413e-07
-6.00016e-07
-4.46242e-07
-5.34688e-07
-3.37706e-07
-4.35951e-07
-1.08427e-07
-8.72849e-08
5.76816e-07
6.29464e-07
1.42066e-06
1.20059e-06
1.46232e-06
-4.11389e-07
1.30373e-06
6.99891e-07
1.07418e-06
9.0926e-07
1.5883e-06
1.29111e-06
1.50311e-06
5.61584e-06
2.04833e-06
-8.75929e-07
-1.15119e-06
-6.83579e-07
-6.6987e-07
-6.19373e-07
-4.3804e-07
-2.64781e-07
-1.35051e-07
1.84992e-07
3.60528e-07
6.10057e-07
4.82522e-07
5.29785e-07
6.61719e-07
6.55826e-07
7.85522e-07
6.14884e-07
7.47595e-07
5.1268e-07
6.34804e-07
3.08439e-07
3.35081e-07
-1.59023e-07
-3.52383e-07
-1.03192e-06
-1.29754e-06
-1.92788e-06
-2.07633e-06
-2.61298e-06
-2.8178e-06
-2.5744e-06
-1.04954e-06
-5.11963e-06
-3.88206e-06
-3.18839e-06
-5.05722e-07
-9.77467e-06
-3.64617e-05
-1.6249e-05
-3.84298e-05
1.65185e-06
3.74891e-07
1.72332e-06
-1.98969e-06
1.12539e-06
8.59132e-08
-2.22345e-07
-3.31155e-07
-7.73629e-08
1.20544e-07
1.54319e-07
-9.78977e-08
-3.65582e-07
-6.85137e-07
-6.86476e-07
-6.48173e-07
-5.44082e-07
-5.5826e-07
-4.84923e-07
-4.68135e-07
-3.2523e-07
-2.69598e-07
-5.27247e-08
1.65897e-07
4.5675e-07
8.57262e-07
1.09763e-06
1.1994e-06
7.57182e-09
1.20752e-06
1.26743e-06
1.34013e-06
1.28845e-06
2.01973e-06
1.86592e-06
1.65419e-06
9.81753e-06
1.1042e-05
1.63709e-05
-1.79667e-07
-3.53913e-07
-1.02117e-06
-3.69013e-07
-4.34822e-07
-2.78313e-07
-6.79876e-08
9.48552e-08
3.78789e-07
2.84169e-07
3.81185e-07
5.23208e-07
5.26244e-07
7.9951e-07
6.80626e-07
8.0473e-07
6.06065e-07
7.07323e-07
5.05459e-07
5.77255e-07
3.19951e-07
3.50901e-07
-1.22839e-07
-2.61672e-07
-9.70235e-07
-1.18333e-06
-2.17378e-06
-1.57152e-06
-1.98591e-06
-1.21674e-06
-1.9668e-07
-3.54571e-06
-6.9142e-08
4.7575e-06
8.38287e-06
-2.11523e-05
-1.2214e-05
5.09328e-05
1.58927e-06
-2.00303e-07
1.64559e-06
-1.42087e-06
2.6219e-06
-9.75099e-07
1.02265e-07
-2.61142e-08
-4.47942e-08
-7.0869e-08
1.74235e-07
1.58972e-07
-5.98401e-08
-3.83375e-07
-6.3689e-07
-6.59175e-07
-6.20697e-07
-5.08749e-07
-5.56253e-07
-4.31624e-07
-4.79961e-07
-2.80036e-07
-3.29387e-07
-2.27542e-08
6.43455e-08
5.37869e-07
7.49816e-07
1.22012e-06
1.04675e-06
-1.01259e-08
8.15304e-07
1.02697e-06
7.90411e-07
8.67575e-07
1.12619e-06
1.02338e-06
1.64376e-06
3.43004e-06
6.36404e-08
-2.95394e-06
-8.24424e-07
-1.55768e-06
-7.05608e-07
-8.72124e-07
-2.8985e-07
-9.72469e-08
-1.04043e-07
8.5174e-08
6.41631e-08
7.90223e-07
-1.02365e-08
3.08038e-07
4.94759e-07
6.65288e-07
6.51569e-07
7.27384e-07
5.8295e-07
6.14115e-07
4.3908e-07
4.01622e-07
1.97185e-07
3.21653e-08
-2.36401e-07
-5.71645e-07
-8.53306e-07
-1.34475e-06
-1.62017e-06
-2.40086e-06
-2.66442e-06
-2.98151e-06
-1.26343e-06
-4.65316e-06
-4.21403e-06
-3.14519e-06
-8.33729e-07
-1.00686e-05
-2.90602e-05
-1.01176e-05
-2.90404e-05
1.07685e-06
-2.3275e-08
1.82316e-06
-1.93157e-06
1.12242e-06
-8.95369e-08
8.52776e-08
-6.5751e-07
1.84559e-07
2.37791e-07
1.70011e-07
-3.79226e-08
-4.12802e-07
-5.65169e-07
-6.41312e-07
-5.15246e-07
-5.56088e-07
-4.77026e-07
-5.37485e-07
-3.71386e-07
-3.84679e-07
-2.08538e-07
-1.98609e-07
7.04006e-08
1.56667e-07
6.07871e-07
7.12673e-07
9.91231e-07
1.01691e-07
1.13622e-06
1.39592e-06
1.52341e-06
1.39837e-06
1.83809e-06
1.76566e-06
2.26934e-06
8.23153e-06
9.83982e-06
1.31516e-05
-9.67247e-07
-4.31186e-07
-4.70207e-07
-6.43958e-08
-3.35495e-07
-2.52768e-07
-1.38036e-07
-1.48445e-07
9.73396e-07
-2.63119e-07
2.73592e-07
1.70369e-08
4.48743e-07
5.36583e-07
7.71493e-07
6.35721e-07
7.55199e-07
5.03719e-07
6.47558e-07
3.40161e-07
5.52056e-07
1.45694e-07
3.89865e-07
-2.74199e-07
5.08836e-08
-9.99014e-07
-7.39646e-07
-1.83513e-06
-1.09661e-06
-1.95133e-06
7.23254e-07
-2.67161e-06
8.42437e-07
4.81247e-06
7.78733e-06
-1.79361e-05
-1.02719e-05
4.91046e-05
-3.23987e-07
1.6919e-07
6.30678e-07
1.03797e-07
3.15665e-07
-9.44918e-07
5.82333e-07
-7.15128e-07
4.28995e-09
1.59275e-07
3.26184e-07
2.21476e-07
-7.05376e-08
-3.38861e-07
-5.50484e-07
-5.34126e-07
-5.15663e-07
-4.95542e-07
-5.01372e-07
-4.92372e-07
-4.01646e-07
-3.66281e-07
-2.54041e-07
-2.31951e-07
1.26123e-08
8.72259e-08
5.50301e-07
5.87309e-07
8.94817e-07
-1.17888e-07
7.79187e-07
8.64489e-07
1.05194e-06
6.22045e-07
9.64694e-07
6.65127e-07
1.42041e-06
1.39861e-06
-1.0865e-06
-3.56653e-06
-2.33683e-07
-8.85196e-07
-1.75331e-07
-9.88744e-08
-3.57505e-08
-1.66268e-07
-2.98213e-07
4.46451e-07
-3.8059e-07
9.09902e-07
-2.91826e-07
-4.43175e-08
2.68059e-07
4.6162e-07
6.00125e-07
6.70183e-07
5.79823e-07
5.50933e-07
3.79576e-07
3.54461e-07
1.28579e-07
7.72169e-08
-2.03297e-07
-3.14864e-07
-6.14036e-07
-8.8311e-07
-1.23924e-06
-1.92588e-06
-2.39162e-06
-2.86009e-06
-1.47597e-06
-4.27895e-06
-4.68738e-06
-3.2774e-06
-1.17841e-06
-9.62959e-06
-2.17364e-05
-5.72476e-06
-2.13991e-05
2.64124e-07
2.12171e-07
1.87367e-07
-1.36459e-07
2.0546e-07
-3.79215e-07
2.16558e-07
-4.63575e-07
3.34167e-07
4.43082e-07
2.32708e-07
-7.45405e-08
-3.17604e-07
-4.81716e-07
-4.44768e-07
-4.78939e-07
-4.32151e-07
-5.431e-07
-4.18783e-07
-4.43915e-07
-2.74467e-07
-3.14965e-07
-1.48257e-07
-1.364e-07
7.71697e-08
2.34238e-07
4.66337e-07
5.5792e-07
2.25691e-07
9.11851e-07
1.46178e-06
1.61247e-06
1.62894e-06
1.79722e-06
1.72075e-06
2.62936e-06
6.91243e-06
8.4926e-06
1.03443e-05
-4.30338e-07
-2.71933e-07
-1.51521e-07
-3.10827e-08
-1.01327e-07
-1.48497e-07
-5.78007e-08
-2.22528e-07
1.30616e-06
-5.1238e-07
-3.04204e-08
-1.16011e-08
1.56305e-07
4.51476e-07
5.52255e-07
7.35641e-07
5.97749e-07
6.61151e-07
4.07483e-07
5.23248e-07
2.48197e-07
4.45682e-07
9.39889e-08
3.08177e-07
-8.41453e-08
4.43653e-08
-6.14257e-07
-5.49862e-07
-1.18035e-06
-9.00586e-07
5.96974e-07
-1.0346e-06
1.07369e-06
5.44964e-06
7.0224e-06
-1.45944e-05
-8.45957e-06
4.40311e-05
-1.01234e-06
1.41372e-08
1.37717e-07
-4.64474e-08
6.92405e-08
-1.4017e-07
8.40283e-08
-7.47927e-07
1.82651e-07
2.91419e-07
3.49112e-07
1.59114e-07
-5.06042e-08
-3.17732e-07
-3.63285e-07
-4.29548e-07
-3.82197e-07
-4.78683e-07
-4.61245e-07
-4.82033e-07
-3.78235e-07
-3.55725e-07
-2.89394e-07
-2.59414e-07
-1.59186e-07
-6.64693e-08
1.55863e-07
2.52613e-07
4.00467e-07
-9.42109e-08
4.88052e-07
9.11876e-07
8.67729e-07
8.68151e-07
6.15777e-07
5.49312e-07
1.19004e-06
2.20059e-07
-1.93302e-06
-3.87728e-06
-2.88769e-07
-3.13031e-07
-8.94333e-08
-2.56612e-08
-6.93151e-08
-2.11619e-07
-2.14681e-07
2.2511e-07
-7.71971e-08
7.23737e-07
-1.06157e-07
-1.97429e-08
6.37349e-08
3.03668e-07
5.56047e-07
5.72349e-07
6.52619e-07
3.92024e-07
4.46197e-07
1.48758e-07
2.07399e-07
-1.09916e-07
-4.82951e-08
-3.82363e-07
-3.04057e-07
-7.54906e-07
-7.5476e-07
-1.58412e-06
-1.75475e-06
-2.58267e-06
-1.41616e-06
-4.08678e-06
-4.71468e-06
-3.67571e-06
-1.2674e-06
-8.93364e-06
-1.53961e-05
-2.80913e-06
-1.54976e-05
-4.0858e-08
-1.70944e-08
2.95739e-08
-1.41852e-07
5.24709e-08
-1.40812e-07
-5.37071e-08
-3.80674e-07
3.47235e-07
2.55378e-07
1.3946e-07
-9.13449e-08
-2.56482e-07
-3.11774e-07
-3.49468e-07
-3.48021e-07
-4.68003e-07
-4.33918e-07
-4.62693e-07
-3.30661e-07
-3.49873e-07
-2.3283e-07
-2.59695e-07
-1.27172e-07
-1.17453e-07
9.62474e-08
1.32739e-07
3.12778e-07
1.3396e-07
7.88679e-07
1.22169e-06
1.67641e-06
1.7113e-06
1.94249e-06
1.74386e-06
2.8907e-06
5.75671e-06
7.15782e-06
7.94784e-06
-2.60795e-07
-2.46682e-07
-3.82341e-08
-4.9954e-08
-1.27983e-07
-1.6063e-07
-1.24104e-07
-9.34483e-08
1.78104e-07
8.49324e-08
-1.68052e-07
-8.84706e-08
3.56604e-08
2.65907e-07
5.20346e-07
6.52422e-07
6.4461e-07
5.38974e-07
4.67157e-07
3.2721e-07
3.31762e-07
2.00989e-07
2.74134e-07
1.20595e-07
3.16364e-07
5.11691e-08
2.13012e-07
-3.18519e-07
-6.25315e-08
-5.44773e-07
1.22631e-06
-4.18262e-08
1.4656e-06
6.28165e-06
6.47144e-06
-1.13464e-05
-8.71364e-06
3.92483e-05
-2.27726e-06
-1.20906e-07
-4.83866e-08
-8.14425e-08
4.21663e-08
-1.05265e-07
5.94597e-09
-1.1371e-07
6.24095e-08
2.73525e-07
2.84627e-07
9.34611e-08
-1.0059e-07
-1.83819e-07
-2.93367e-07
-2.58728e-07
-3.89406e-07
-3.82305e-07
-4.83111e-07
-3.75157e-07
-3.9524e-07
-2.97363e-07
-3.25824e-07
-2.56516e-07
-2.60945e-07
-1.70439e-07
-1.03203e-07
2.59197e-09
1.27675e-08
-1.03634e-07
2.42377e-07
6.49552e-07
8.46161e-07
7.48163e-07
6.63577e-07
3.177e-07
8.79336e-07
-7.50638e-07
-2.45091e-06
-3.32026e-06
-2.69343e-07
-1.84527e-07
-8.40318e-08
-1.7405e-08
-7.61166e-08
-2.44915e-07
-2.24206e-07
1.10693e-07
-1.25698e-08
-1.27464e-08
9.52638e-08
-2.65568e-07
7.47618e-08
1.82332e-07
4.57175e-07
6.25372e-07
4.70782e-07
4.77479e-07
1.98204e-07
2.55809e-07
-5.05753e-08
2.82411e-08
-2.70267e-07
-1.47639e-07
-4.19999e-07
-3.69793e-07
-7.01997e-07
-9.6692e-07
-1.42644e-06
-1.83814e-06
-1.53828e-06
-3.51431e-06
-4.60177e-06
-3.69799e-06
-1.35868e-06
-7.76725e-06
-1.08007e-05
-9.21246e-07
-1.17167e-05
-1.20452e-07
-8.44563e-08
-2.27485e-08
-1.1088e-07
4.90635e-08
-8.09934e-08
-2.25338e-08
2.18427e-09
7.50978e-08
1.48913e-07
2.81774e-08
-7.99896e-08
-1.47178e-07
-2.08068e-07
-2.48301e-07
-3.53248e-07
-3.92228e-07
-4.30139e-07
-3.53485e-07
-3.56685e-07
-2.62754e-07
-2.93066e-07
-1.96229e-07
-2.32692e-07
-9.99543e-08
-1.0371e-07
5.21458e-08
3.95453e-08
1.75429e-07
4.98912e-07
1.0366e-06
1.43854e-06
1.77266e-06
1.97795e-06
1.85355e-06
2.8851e-06
4.7419e-06
5.77842e-06
6.09517e-06
-2.18578e-07
-2.05139e-07
-3.65075e-09
-6.11226e-08
-1.53232e-07
-1.57749e-07
-1.27867e-07
-1.78648e-07
1.56669e-07
9.89513e-08
-2.11032e-07
-4.03622e-08
-2.2133e-07
1.67975e-07
4.80507e-07
5.40462e-07
5.86508e-07
4.10971e-07
3.96306e-07
2.31007e-07
2.4117e-07
1.2632e-07
1.91895e-07
1.3097e-07
3.0284e-07
2.3582e-07
4.31583e-07
1.52033e-07
4.94697e-07
1.35404e-07
1.61243e-06
4.48685e-07
2.20219e-06
5.8707e-06
6.94142e-06
-8.58801e-06
-8.33905e-06
3.38279e-05
-2.71861e-06
-1.43926e-07
-9.17033e-08
-8.34575e-08
3.15398e-08
-6.98459e-08
3.1548e-08
-4.73014e-08
-2.23089e-08
4.38128e-08
1.34852e-07
6.40389e-08
1.8367e-08
-1.47733e-07
-1.35707e-07
-2.78587e-07
-2.85036e-07
-4.19517e-07
-3.34729e-07
-3.81779e-07
-2.7827e-07
-3.1793e-07
-2.50894e-07
-2.91872e-07
-2.42318e-07
-2.62742e-07
-1.65903e-07
-1.97015e-07
-1.01296e-07
-2.16903e-07
1.28465e-07
2.77007e-07
6.95141e-07
5.80847e-07
6.29652e-07
7.56219e-08
4.75319e-07
-1.31492e-06
-2.45968e-06
-2.97677e-06
-2.30267e-07
-1.38689e-07
-8.64202e-08
-1.16417e-08
-9.33869e-08
-2.4749e-07
-2.3576e-07
8.85942e-08
-3.85501e-08
-3.09231e-08
7.36989e-08
-1.28167e-07
-4.86914e-08
2.46598e-07
3.57214e-07
4.53063e-07
4.22233e-07
2.40512e-07
2.35344e-07
4.26267e-08
2.54384e-08
-1.5958e-07
-1.52389e-07
-2.63901e-07
-2.42143e-07
-3.49891e-07
-4.54945e-07
-6.92944e-07
-1.00386e-06
-1.29432e-06
-1.49143e-06
-2.95697e-06
-4.07664e-06
-3.53577e-06
-1.3031e-06
-6.22805e-06
-6.77289e-06
1.97561e-07
-8.85985e-06
-1.26772e-07
-9.62873e-08
-3.59409e-08
-8.6227e-08
4.86395e-08
-3.86476e-08
7.53033e-09
-3.9802e-08
-1.80016e-08
3.87429e-08
9.45847e-08
-2.34277e-07
4.15853e-08
-1.08467e-07
-2.28071e-07
-3.09055e-07
-3.51299e-07
-3.24772e-07
-3.23591e-07
-2.57838e-07
-2.76544e-07
-2.06389e-07
-2.41542e-07
-1.57112e-07
-1.55324e-07
-8.76718e-08
-5.00628e-08
6.5854e-09
1.12629e-07
3.6101e-07
7.74421e-07
1.17071e-06
1.64915e-06
1.88605e-06
1.99654e-06
2.72072e-06
3.80244e-06
4.57558e-06
4.518e-06
-1.83959e-07
-1.79749e-07
1.58912e-08
-8.17419e-08
-1.55554e-07
-1.45306e-07
-1.15565e-07
-2.06823e-07
1.19036e-07
5.94687e-08
-9.53942e-08
-7.02379e-08
-5.54666e-09
5.41119e-08
2.8203e-07
4.14667e-07
3.07742e-07
3.47845e-07
1.79895e-07
2.4954e-07
4.69654e-08
1.60112e-07
-2.73574e-10
2.10371e-07
1.15039e-07
4.27657e-07
2.98008e-07
6.21023e-07
4.61365e-07
9.54494e-07
1.12329e-06
1.24348e-06
1.90576e-06
5.74388e-06
6.75402e-06
-6.27576e-06
-8.44698e-06
2.92973e-05
-3.06286e-06
-1.32759e-07
-9.30988e-08
-7.29408e-08
2.74629e-08
-5.01332e-08
5.23851e-08
-4.42293e-08
-1.68192e-08
-4.49382e-08
6.31656e-08
-2.22054e-07
2.5387e-07
-1.16911e-09
-6.08433e-08
-1.52229e-07
-3.17319e-07
-2.57741e-07
-3.26336e-07
-2.27814e-07
-2.77814e-07
-2.00949e-07
-2.53201e-07
-2.02868e-07
-2.5166e-07
-1.73888e-07
-2.40184e-07
-1.36843e-07
-2.39602e-07
-1.01169e-07
-1.25749e-07
2.28956e-07
2.41597e-07
5.84468e-07
3.01992e-07
1.22044e-07
2.41238e-07
-1.55405e-06
-2.44134e-06
-2.23255e-06
-1.94415e-07
-1.05064e-07
-9.43112e-08
-1.35645e-08
-8.11762e-08
-2.45887e-07
-2.25202e-07
7.90556e-08
-9.42091e-08
-2.01477e-08
9.96638e-08
1.85853e-08
5.03333e-08
1.40708e-07
2.85947e-07
2.7179e-07
1.48176e-07
1.34225e-07
9.88316e-08
3.78311e-08
-6.04177e-08
-1.49966e-07
-2.02035e-07
-2.25384e-07
-2.31545e-07
-2.62962e-07
-3.73083e-07
-4.76942e-07
-7.72682e-07
-9.15397e-07
-1.4643e-06
-2.35296e-06
-3.4612e-06
-3.0216e-06
-1.13667e-06
-4.59464e-06
-3.76685e-06
1.05671e-06
-6.88093e-06
-1.14288e-07
-8.17572e-08
-3.38706e-08
-6.60723e-08
5.45311e-08
-2.29408e-08
3.68326e-08
-7.04278e-08
-7.85486e-09
-9.34977e-08
1.234e-07
-2.85335e-07
1.96876e-07
1.59013e-08
-1.58095e-07
-2.27098e-07
-2.53498e-07
-2.46684e-07
-2.19219e-07
-2.23118e-07
-1.81651e-07
-2.04201e-07
-1.52817e-07
-1.16847e-07
-8.85301e-08
-6.5861e-08
-2.54949e-08
6.04017e-09
1.25518e-07
2.58232e-07
6.23981e-07
8.83207e-07
1.46362e-06
1.65649e-06
2.05568e-06
2.3224e-06
3.00165e-06
3.35875e-06
3.26414e-06
-1.52738e-07
-1.59745e-07
2.18048e-08
-7.92497e-08
-1.52751e-07
-1.30542e-07
-1.08978e-07
-2.33308e-07
9.07727e-08
1.06242e-07
-9.52979e-08
1.18776e-07
4.78348e-08
2.14124e-07
1.62959e-07
1.4317e-08
1.67841e-07
9.41675e-08
1.86066e-07
6.32428e-08
1.05642e-07
-3.61285e-08
6.28217e-08
-6.0597e-09
1.79746e-07
1.8905e-07
4.03433e-07
4.34556e-07
6.70495e-07
8.03395e-07
1.09224e-06
1.07518e-06
1.94106e-06
4.67553e-06
6.52322e-06
-4.63324e-06
-8.28737e-06
2.40716e-05
-3.06335e-06
-1.1028e-07
-8.06017e-08
-5.77254e-08
2.96258e-08
-2.9775e-08
6.69023e-08
-3.07584e-08
8.70828e-10
-4.15627e-08
4.33717e-09
-2.1442e-07
3.27143e-07
1.63468e-09
1.70252e-08
-1.7011e-07
-1.53487e-07
-2.35687e-07
-1.56608e-07
-2.13139e-07
-1.34037e-07
-1.87962e-07
-1.31856e-07
-1.62334e-07
-9.63142e-08
-1.49227e-07
-1.0747e-07
-1.54207e-07
-1.1671e-07
-1.42996e-07
-5.84766e-08
3.16324e-08
1.57667e-07
2.83296e-07
2.03798e-07
-1.22317e-08
-2.96477e-07
-1.94234e-06
-2.06868e-06
-1.96933e-06
-1.59768e-07
-8.73131e-08
-9.2192e-08
-2.40769e-09
-8.19459e-08
-2.2921e-07
-2.25243e-07
7.19984e-08
-8.84725e-08
-3.92908e-08
1.97939e-07
4.88623e-08
1.32935e-07
6.42648e-08
-5.88039e-08
5.21674e-07
-7.57206e-08
5.59156e-09
4.42688e-08
2.31293e-08
-9.79094e-08
-1.54736e-07
-2.27232e-07
-2.2107e-07
-2.27358e-07
-2.48728e-07
-3.22497e-07
-4.0537e-07
-6.23875e-07
-7.74087e-07
-1.33281e-06
-1.89984e-06
-2.81131e-06
-2.42185e-06
-9.5181e-07
-3.30137e-06
-1.70241e-06
1.62253e-06
-5.24226e-06
-9.80068e-08
-7.01369e-08
-2.6419e-08
-4.79922e-08
5.87085e-08
-1.0752e-08
5.78047e-08
-4.99177e-08
-1.88328e-08
-6.6961e-08
1.03484e-07
-1.58473e-07
1.79949e-07
-5.36497e-08
-9.53964e-08
-1.60428e-07
-1.5425e-07
-1.53971e-07
-1.37837e-07
-1.27218e-07
-1.36569e-07
-1.11967e-07
-5.87202e-08
-2.20629e-08
-3.48783e-09
-3.9684e-09
2.39788e-08
5.53985e-08
1.49712e-07
2.43839e-07
5.22066e-07
7.00003e-07
1.23258e-06
1.38908e-06
1.87989e-06
1.87387e-06
2.2205e-06
2.3485e-06
2.2252e-06
-1.3513e-07
-1.38881e-07
2.80743e-08
-8.65292e-08
-1.37921e-07
-1.11046e-07
-9.74814e-08
-2.2902e-07
8.70175e-08
1.12152e-07
-4.60519e-08
1.18829e-07
7.94769e-08
-1.22673e-07
6.5243e-07
-4.59138e-07
-2.84015e-07
-9.00781e-08
2.85707e-08
7.7967e-08
-1.05379e-08
-2.60556e-08
-8.25896e-08
-1.915e-08
-7.35419e-09
1.32875e-07
1.78515e-07
3.82787e-07
4.16065e-07
7.31172e-07
6.83191e-07
1.00962e-06
1.53902e-06
3.56612e-06
5.72296e-06
-3.68601e-06
-6.73175e-06
2.00098e-05
-3.16988e-06
-9.26342e-08
-6.60149e-08
-4.44809e-08
3.07449e-08
-2.04528e-08
7.66798e-08
-1.80941e-08
2.52285e-08
-4.72251e-08
-1.95386e-08
-3.21879e-08
2.76187e-08
6.69291e-08
-7.19272e-08
-7.41595e-08
-1.57113e-07
-8.20092e-08
-1.4233e-07
-6.78505e-08
-1.17958e-07
-6.41014e-08
-6.71089e-08
2.04571e-09
-8.67966e-09
-7.28104e-09
-4.78625e-08
-4.3909e-08
-7.29535e-08
-3.41425e-08
-6.05242e-08
6.73077e-08
1.04815e-08
2.16072e-07
-2.59426e-08
-1.27867e-07
-3.76754e-07
-1.79206e-06
-2.08294e-06
-1.47484e-06
-1.42236e-07
-7.22414e-08
-9.93801e-08
-3.97486e-09
-6.39472e-08
-2.15339e-07
-2.01767e-07
7.55138e-08
-9.50881e-08
-2.97085e-08
2.05553e-07
7.02792e-08
-3.79852e-08
2.23225e-07
-4.58573e-07
3.26243e-07
-4.40687e-07
-3.3742e-07
-5.82187e-08
-3.64066e-08
-8.61262e-08
-2.00693e-07
-2.16546e-07
-2.62303e-07
-2.1105e-07
-2.87102e-07
-2.74322e-07
-4.23354e-07
-5.08306e-07
-7.43787e-07
-1.14359e-06
-1.56202e-06
-2.27095e-06
-1.82117e-06
-1.02661e-06
-2.28857e-06
-5.04176e-07
1.93059e-06
-4.06434e-06
-7.84434e-08
-5.33036e-08
-1.98354e-08
-3.53364e-08
6.00214e-08
1.40172e-10
7.50841e-08
-3.91252e-08
-2.02533e-08
-4.16111e-08
2.0293e-08
3.47266e-08
-1.41937e-08
2.04131e-08
-8.60531e-08
-4.53469e-08
-1.78784e-07
-4.46264e-08
-7.56013e-08
-6.16777e-08
-5.16568e-08
-6.36481e-12
4.64577e-08
8.93943e-08
6.48745e-08
6.34038e-08
6.66553e-08
1.15244e-07
1.7508e-07
2.66569e-07
4.54606e-07
5.93045e-07
1.01754e-06
1.12279e-06
1.64773e-06
1.45099e-06
1.6221e-06
1.56443e-06
1.54934e-06
-1.0845e-07
-1.38834e-07
2.2532e-08
-8.09634e-08
-1.26533e-07
-9.35557e-08
-8.46284e-08
-2.23645e-07
8.5277e-08
1.28695e-07
-5.41259e-08
7.40395e-08
7.90805e-09
-3.0123e-07
2.58709e-07
-1.03283e-06
-4.26804e-07
-2.48754e-07
-2.13068e-08
1.00989e-08
-3.19209e-08
-1.00759e-07
-1.17974e-07
-1.24763e-07
-7.98572e-08
-3.68233e-08
7.16265e-08
1.45642e-07
2.767e-07
4.16676e-07
4.5895e-07
7.20362e-07
1.08504e-06
2.6823e-06
4.19308e-06
-2.50897e-06
-4.50145e-06
1.4994e-05
-3.00761e-06
-7.8277e-08
-5.11059e-08
-3.25417e-08
3.04588e-08
-9.13392e-09
8.05611e-08
-3.79042e-09
3.80723e-08
-4.21725e-08
-2.30639e-08
-3.24126e-08
8.22354e-09
1.00687e-08
-2.25298e-08
-3.22837e-08
-2.34781e-07
-8.2476e-08
-5.55435e-08
-2.28611e-08
-1.03682e-08
-3.69755e-10
7.13537e-08
1.09126e-07
1.12729e-07
7.08025e-08
3.11254e-08
1.53466e-08
1.33378e-08
2.32045e-08
1.40438e-08
6.88983e-08
1.20362e-08
1.3657e-07
-1.12766e-07
-1.24385e-07
-4.90942e-07
-1.72821e-06
-1.68585e-06
-1.21507e-06
-1.3355e-07
-7.02774e-08
-9.56259e-08
2.02549e-09
-6.32529e-08
-1.91433e-07
-1.89255e-07
8.24662e-08
-8.19962e-08
-3.719e-08
1.89852e-07
-1.35522e-08
-1.42638e-07
-2.94117e-08
-7.33672e-07
-1.3669e-07
-8.94962e-07
-1.70909e-07
-6.96896e-08
-2.27425e-08
-1.3721e-07
-1.69691e-07
-2.68203e-07
-2.21349e-07
-2.69444e-07
-2.35821e-07
-3.1582e-07
-3.57376e-07
-4.79176e-07
-6.60917e-07
-9.58821e-07
-1.31666e-06
-1.76471e-06
-1.38788e-06
-1.51862e-06
-1.72688e-06
-1.26712e-07
1.63714e-06
-3.14237e-06
-5.49761e-08
-4.51251e-08
-1.49683e-08
-2.57924e-08
5.8053e-08
5.4677e-09
8.36548e-08
-3.20015e-08
-2.08201e-08
-3.09724e-08
3.3053e-08
3.47188e-09
-2.68617e-08
5.13621e-09
-2.71336e-07
-1.49114e-07
-1.56262e-07
1.61961e-08
-2.33272e-08
4.55881e-08
6.54837e-08
1.0012e-07
1.55784e-07
1.46071e-07
1.14968e-07
9.13492e-08
1.00849e-07
1.46833e-07
1.92277e-07
2.78724e-07
3.97049e-07
5.27737e-07
8.10613e-07
9.46601e-07
1.29664e-06
1.0976e-06
1.15339e-06
1.09849e-06
1.13508e-06
-8.27923e-08
-1.2939e-07
1.7461e-08
-8.62116e-08
-1.12129e-07
-7.6107e-08
-6.82322e-08
-2.01135e-07
8.32615e-08
1.14755e-07
-8.79168e-08
-8.77081e-09
-1.19421e-07
-4.05225e-07
-1.55497e-07
-7.06134e-07
-2.25263e-07
-1.67392e-07
3.97912e-09
-2.11096e-08
-4.99048e-08
-1.37969e-07
-1.41651e-07
-1.77475e-07
-1.42325e-07
-1.31278e-07
-4.6657e-08
-2.28107e-09
1.1159e-07
1.76053e-07
2.53963e-07
4.0922e-07
7.36635e-07
1.79022e-06
2.876e-06
-1.75471e-06
-2.44262e-06
1.11549e-05
-2.8772e-06
-7.50109e-08
-3.14589e-08
-2.56051e-08
2.7354e-08
-6.56795e-09
8.05569e-08
-5.8442e-10
4.74806e-08
-3.28768e-08
-9.63132e-09
-3.47367e-08
-1.38771e-08
6.08177e-08
-2.90599e-07
5.19335e-09
-3.74612e-07
2.9151e-08
-1.71158e-07
1.77937e-07
7.15319e-08
1.46912e-07
1.78879e-07
1.88068e-07
1.66515e-07
1.04439e-07
6.94423e-08
5.79577e-08
6.55785e-08
6.59166e-08
6.82806e-08
7.89899e-08
4.31924e-08
8.41152e-08
-9.34232e-08
-2.00827e-07
-3.9915e-07
-1.30148e-06
-1.41447e-06
-8.76942e-07
-2.06116e-07
-3.57581e-08
-9.15249e-08
-4.73994e-09
-5.0393e-08
-1.74752e-07
-1.60521e-07
8.16982e-08
-7.77413e-08
-4.62685e-08
1.25019e-07
-8.08354e-08
-2.14822e-07
-1.49561e-07
-6.66615e-07
-7.45408e-08
-7.38373e-07
3.43625e-07
2.27436e-09
-4.28763e-08
-9.51891e-08
-1.97827e-07
-2.17975e-07
-2.46523e-07
-2.23497e-07
-2.46817e-07
-2.64544e-07
-3.27064e-07
-4.01191e-07
-5.7028e-07
-7.74975e-07
-1.07422e-06
-1.3824e-06
-9.00366e-07
-2.08555e-06
-1.28351e-06
-2.04296e-07
1.13467e-06
-2.45365e-06
2.65133e-08
-1.44057e-08
-5.98428e-09
-1.95874e-08
5.42258e-08
8.86384e-09
8.63769e-08
-2.16704e-08
-5.66749e-09
-2.24693e-08
3.64044e-08
5.24043e-08
-2.01008e-07
1.48695e-07
-7.57275e-07
2.77528e-08
-3.60316e-07
2.4604e-07
7.82135e-08
2.32982e-07
2.27598e-07
2.1812e-07
1.98841e-07
1.6318e-07
1.1197e-07
9.47541e-08
1.08752e-07
1.48307e-07
1.88141e-07
2.62252e-07
3.38807e-07
4.56562e-07
6.41502e-07
7.59087e-07
1.01293e-06
8.40673e-07
8.88094e-07
8.60266e-07
9.51691e-07
4.77616e-08
-2.4036e-07
2.01816e-10
-8.00548e-08
-1.0429e-07
-6.35009e-08
-5.79177e-08
-1.85974e-07
7.62385e-08
8.68546e-08
-1.13289e-07
-6.57064e-08
-1.64172e-07
-4.38505e-07
-8.57546e-08
-6.58438e-07
3.09823e-07
-4.98052e-07
-1.81566e-07
-7.41314e-08
-1.26904e-07
-1.21251e-07
-1.88029e-07
-1.59561e-07
-2.01635e-07
-1.46753e-07
-1.413e-07
-6.57473e-08
-3.42503e-08
3.54392e-08
7.5241e-08
1.68841e-07
5.13668e-07
1.01162e-06
2.90732e-07
-1.19725e-06
-7.10191e-07
7.54832e-06
-2.57502e-06
-3.66833e-08
2.4964e-08
-6.63278e-09
2.64912e-08
-2.01228e-09
7.68409e-08
4.97402e-09
5.6248e-08
-1.97945e-08
6.57049e-09
-2.48254e-08
-3.96973e-08
1.16388e-07
-4.46463e-07
1.12761e-07
-3.99863e-07
1.00801e-08
1.12699e-07
1.99066e-07
3.53626e-07
2.76101e-07
2.24662e-07
2.11183e-07
1.51658e-07
1.02296e-07
7.45319e-08
7.60815e-08
8.47165e-08
9.06084e-08
9.11417e-08
8.8613e-08
6.32862e-08
6.45111e-08
-6.97565e-08
-1.77711e-07
-2.15075e-07
-8.95947e-07
-9.92616e-07
-5.79203e-07
-2.24507e-07
-2.22995e-08
-9.52858e-08
-5.48468e-09
-5.2031e-08
-1.53631e-07
-1.46967e-07
8.05342e-08
-7.50005e-08
-5.07324e-08
8.25821e-08
-1.10286e-07
-2.27656e-07
-1.53415e-07
-6.24585e-07
1.1561e-07
-4.5156e-07
2.4401e-07
-1.70268e-07
-2.98307e-07
-1.82467e-07
-2.0981e-07
-2.13122e-07
-2.22293e-07
-2.02198e-07
-2.07861e-07
-2.24583e-07
-2.61677e-07
-3.28239e-07
-4.47189e-07
-6.05826e-07
-8.22399e-07
-1.03386e-06
-1.24115e-06
9.99e-08
-1.61022e-06
-3.2761e-07
4.09491e-07
-1.83035e-06
8.16136e-08
3.70264e-08
8.53925e-09
-1.30847e-08
4.98992e-08
8.25878e-09
8.52402e-08
-1.67215e-08
8.47845e-09
-1.97733e-08
4.8041e-08
6.01295e-08
-9.71278e-08
-8.38005e-08
-4.74974e-07
-3.96405e-07
1.5988e-07
-1.0162e-08
4.29854e-07
3.04715e-07
2.23013e-07
2.4024e-07
1.96678e-07
1.27078e-07
8.93524e-08
7.6902e-08
9.31548e-08
1.30506e-07
1.60648e-07
2.24091e-07
2.69778e-07
3.78575e-07
4.81194e-07
6.1739e-07
7.61456e-07
6.60133e-07
7.04784e-07
7.66741e-07
8.41489e-07