/*--------------------------------*- C++ -*----------------------------------*\
| =========                 |                                                 |
| \\      /  F ield         | OpenFOAM: The Open Source CFD Toolbox           |
|  \\    /   O peration     | Version:  2306                                  |
|   \\  /    A nd           | Website:  www.openfoam.com                      |
|    \\/     M anipulation  |                                                 |
\*---------------------------------------------------------------------------*/
FoamFile
{
    version     2.0;
    format      ascii;
    arch        "LSB;label=32;scalar=64";
    class       volScalarField;
    location    "800";
    object      div(phi);
}
// * * * * * * * * * * * * * * * * * * * * * * * * * * * * * * * * * * * * * //

dimensions      [0 0 -1 0 0 0 0];

internalField   nonuniform List<scalar> 
1340
(
6.6699e-06
-4.95219e-06
3.60666e-06
-2.9396e-06
2.25654e-06
5.43725e-07
3.12662e-06
1.70681e-06
7.4658e-07
-6.94018e-07
-8.91259e-07
-1.12663e-06
-7.012e-07
-6.86392e-07
-4.14734e-07
-5.65673e-07
-4.13349e-07
-7.33713e-07
-4.04628e-07
-9.2677e-07
3.76095e-07
5.85843e-08
5.30883e-06
7.03812e-06
8.00254e-06
6.96375e-06
3.53074e-06
2.29156e-06
3.91898e-06
4.00726e-06
-6.25935e-06
2.08973e-05
3.20449e-06
2.48994e-07
-8.89019e-06
-5.17914e-06
5.71353e-06
1.36314e-07
1.23059e-06
1.0615e-06
-4.24792e-06
-1.75647e-06
3.27512e-06
-1.36459e-06
2.3147e-06
-2.19482e-06
2.41383e-06
1.19663e-06
2.38878e-06
1.67281e-06
1.08372e-07
-7.82492e-07
-9.45461e-07
-1.02619e-06
-6.66938e-07
-6.96789e-07
-4.40057e-07
-6.20258e-07
-4.49505e-07
-6.97705e-07
-4.30037e-07
-6.41272e-07
1.67167e-07
3.73556e-07
2.65182e-06
3.4088e-06
4.26956e-06
3.53393e-06
3.00258e-06
2.61667e-06
3.4273e-06
3.48942e-06
-1.71756e-06
1.28505e-05
4.84443e-06
4.15964e-06
-5.31693e-08
-7.81817e-08
2.74609e-06
-9.90109e-07
6.85047e-07
-2.28761e-06
-6.08201e-07
-5.86535e-06
3.84204e-06
-3.77314e-06
2.80631e-06
-4.80301e-07
2.56826e-06
1.90081e-06
6.98114e-07
-3.02204e-07
-6.84046e-07
-1.17092e-06
-8.57503e-07
-9.02831e-07
-5.99341e-07
-6.54643e-07
-5.43354e-07
-6.36988e-07
-6.74888e-07
-6.81366e-07
-7.37306e-07
-3.69918e-07
-1.12695e-07
1.48611e-06
2.43214e-06
2.86084e-06
2.95678e-06
2.48089e-06
7.38675e-07
1.63969e-06
1.57784e-06
-3.25682e-06
1.05145e-05
5.51052e-07
-1.71654e-06
-7.60229e-06
4.26042e-06
-2.76011e-06
4.70375e-07
-2.39775e-06
-8.61286e-07
-1.59879e-06
2.87529e-06
-2.41339e-06
1.18657e-06
-7.59204e-07
2.08586e-06
1.60671e-06
1.0989e-06
3.82717e-07
-3.89288e-07
-8.86209e-07
-1.01353e-06
-8.46579e-07
-8.50672e-07
-5.99547e-07
-7.58929e-07
-5.57216e-07
-8.12115e-07
-6.39173e-07
-8.69549e-07
-6.08398e-07
-5.33736e-07
2.50987e-07
1.34843e-06
2.72267e-06
3.23651e-06
3.5163e-06
3.01406e-06
2.88027e-06
2.88375e-06
2.82834e-06
1.88045e-07
8.91212e-06
4.5703e-06
3.94013e-06
1.01249e-06
-1.94265e-06
-5.39667e-07
-2.12293e-06
-1.85667e-06
-1.18697e-06
1.20002e-06
-1.7058e-07
-1.84404e-07
1.25559e-06
1.03576e-06
1.50492e-06
7.62481e-07
-6.82513e-08
-3.84468e-07
-9.40562e-07
-8.02436e-07
-9.72776e-07
-6.98336e-07
-8.35447e-07
-6.4048e-07
-7.77102e-07
-6.8258e-07
-8.28968e-07
-7.64328e-07
-8.28486e-07
-5.79513e-07
-2.6192e-07
7.95449e-07
1.79563e-06
2.32199e-06
3.42191e-06
2.45071e-06
1.72161e-06
1.19839e-06
1.51559e-06
-1.91525e-06
7.43851e-06
4.76801e-07
-3.47696e-06
-8.166e-06
-1.58077e-06
-1.3237e-06
-2.57773e-06
-9.07923e-07
-1.03622e-06
-7.93914e-07
7.02917e-08
1.14386e-06
1.62251e-07
1.51654e-06
7.1123e-07
2.9975e-07
3.79586e-08
-5.98101e-07
-7.37424e-07
-8.04415e-07
-7.75791e-07
-6.89118e-07
-8.05836e-07
-6.56277e-07
-8.39899e-07
-6.79544e-07
-9.21093e-07
-7.09078e-07
-8.96164e-07
-4.59258e-07
-2.62212e-07
8.67322e-07
1.60375e-06
2.72437e-06
2.98133e-06
3.33376e-06
3.18216e-06
3.44937e-06
3.0191e-06
1.42655e-06
7.7997e-06
5.14129e-06
4.28852e-06
1.25618e-06
-8.80038e-07
-2.08474e-06
-1.93491e-06
-9.60774e-07
-1.86896e-06
1.33548e-06
2.77358e-08
1.10526e-06
5.30402e-07
5.29301e-07
2.3893e-07
-1.78843e-07
-5.17122e-07
-5.73336e-07
-7.3486e-07
-6.03933e-07
-8.12997e-07
-6.93896e-07
-8.65641e-07
-7.19762e-07
-8.49797e-07
-7.60019e-07
-8.46195e-07
-7.45799e-07
-6.88433e-07
-3.62865e-07
2.14693e-07
9.50851e-07
1.54994e-06
2.52391e-06
2.60677e-06
1.55169e-06
1.78488e-06
1.05025e-06
-1.16251e-06
5.37983e-06
-4.8145e-07
-4.33764e-06
-9.54488e-06
-6.44585e-07
-2.53878e-06
-5.14531e-07
-1.50068e-06
1.16779e-06
6.91042e-07
6.84085e-07
6.28087e-07
4.37444e-07
2.65057e-07
1.30202e-07
-1.89302e-07
-3.6398e-07
-6.10876e-07
-4.8492e-07
-5.36583e-07
-6.73187e-07
-6.83248e-07
-8.32966e-07
-6.96719e-07
-8.76553e-07
-6.97019e-07
-8.94039e-07
-6.25018e-07
-7.07217e-07
-1.62811e-07
1.571e-07
1.10756e-06
1.60439e-06
2.44896e-06
2.71663e-06
3.29662e-06
3.45833e-06
3.30865e-06
1.9239e-06
6.4403e-06
5.23264e-06
4.20577e-06
1.39247e-06
-1.66173e-06
-3.74966e-07
-1.73171e-06
2.01262e-06
1.80614e-07
3.66949e-07
1.02033e-06
3.76087e-07
4.29658e-07
2.69501e-07
6.12586e-08
-1.04107e-07
-3.85112e-07
-2.89696e-07
-3.90271e-07
-5.32183e-07
-5.46266e-07
-8.29058e-07
-7.31601e-07
-8.81698e-07
-7.13488e-07
-8.53389e-07
-6.79767e-07
-8.03836e-07
-5.59164e-07
-5.84698e-07
4.68396e-09
1.4692e-07
9.20677e-07
1.30823e-06
2.14626e-06
1.3276e-06
1.91907e-06
8.84964e-07
-4.01218e-07
2.92529e-06
-6.64944e-07
-5.575e-06
-9.21491e-06
2.02056e-07
-1.65908e-06
1.4367e-06
2.89262e-07
9.14187e-08
9.30953e-08
-9.1067e-08
-7.63947e-08
-7.95005e-07
-2.22125e-09
-3.23666e-07
-5.19617e-07
-7.00046e-07
-7.08867e-07
-8.10914e-07
-7.0291e-07
-7.84773e-07
-6.59889e-07
-6.78291e-07
-4.99142e-07
-3.17045e-07
4.6831e-08
5.43225e-07
1.00868e-06
1.69318e-06
2.10195e-06
2.95923e-06
3.18572e-06
3.52715e-06
1.87782e-06
5.52852e-06
5.1699e-06
3.94745e-06
1.51232e-06
1.30837e-07
1.29007e-07
-9.69417e-07
2.46175e-07
-2.90171e-07
-3.93045e-08
-4.73567e-07
-5.76233e-07
-8.26755e-07
-7.11498e-07
-8.56462e-07
-6.26371e-07
-8.05197e-07
-5.11717e-07
-7.56645e-07
-2.97435e-07
-5.30391e-07
1.84428e-07
-1.75715e-07
1.06244e-06
6.02042e-07
1.642e-06
9.10934e-07
1.66736e-06
-1.40158e-06
1.95018e-06
-1.56851e-06
-5.64402e-06
-8.57297e-06
3.4522e-07
-9.13959e-07
2.77312e-07
1.87224e-08
-2.9703e-07
-5.04915e-07
-6.57291e-07
-7.49735e-07
-6.83419e-07
-6.91269e-07
-5.58999e-07
-5.73063e-07
-3.57856e-07
-2.99275e-07
4.1571e-08
2.4167e-07
6.70613e-07
1.08405e-06
1.55337e-06
2.3255e-06
2.77359e-06
3.22419e-06
1.82305e-06
4.76964e-06
5.29039e-06
3.81756e-06
1.64633e-06
4.79966e-07
4.55992e-09
-8.0706e-09
-1.86701e-07
-4.90283e-07
-6.06505e-07
-8.03732e-07
-6.79985e-07
-7.64532e-07
-5.24137e-07
-6.64758e-07
-3.76581e-07
-5.72553e-07
-1.73674e-07
-4.20709e-07
1.28861e-08
-7.7039e-08
5.1331e-07
3.44483e-07
1.00971e-06
5.85798e-07
-1.20641e-06
3.8283e-07
-1.84091e-06
-6.18592e-06
-7.77143e-06
9.09317e-08
-3.75425e-09
-9.56808e-08
-3.42171e-07
-6.08268e-07
-6.35382e-07
-7.35725e-07
-4.93655e-07
-5.84561e-07
-3.00919e-07
-3.77159e-07
-3.83108e-08
-8.48435e-08
3.15047e-07
3.01036e-07
8.64695e-07
9.29186e-07
1.84692e-06
1.99961e-06
2.81023e-06
1.57486e-06
4.32021e-06
5.02835e-06
3.97957e-06
1.51817e-06
1.26002e-07
7.76693e-08
-5.96568e-08
-3.01136e-07
-5.61529e-07
-7.04596e-07
-7.05481e-07
-6.12379e-07
-5.54695e-07
-4.19367e-07
-4.24093e-07
-2.71322e-07
-3.41328e-07
-1.86706e-07
-3.82851e-07
-7.47981e-08
-3.13799e-07
1.6979e-07
-1.12129e-07
2.87874e-07
-1.74309e-06
-5.55526e-07
-2.11135e-06
-7.02055e-06
-7.08978e-06
2.22891e-07
-8.92368e-08
-2.11387e-07
-4.92391e-07
-6.69864e-07
-5.25987e-07
-5.5154e-07
-2.86446e-07
-3.67254e-07
-5.33893e-08
-1.36038e-07
1.86703e-07
8.04879e-08
4.09885e-07
4.0975e-07
7.97584e-07
1.11378e-06
1.57989e-06
1.97217e-06
1.59851e-06
3.60676e-06
4.73611e-06
3.81174e-06
1.43056e-06
1.89715e-07
-1.89557e-07
-5.07745e-07
-5.72419e-07
-6.2892e-07
-4.60084e-07
-4.57954e-07
-2.92283e-07
-2.99743e-07
-1.69224e-07
-2.35401e-07
-1.73289e-07
-3.44834e-07
-2.56196e-07
-5.0593e-07
-2.57643e-07
-6.33942e-07
-3.28872e-07
-2.00245e-06
-8.9811e-07
-2.75903e-06
-6.48616e-06
-7.49319e-06
3.07088e-08
-2.58035e-07
-3.77343e-07
-4.80461e-07
-4.59318e-07
-2.8927e-07
-2.9787e-07
-1.12332e-07
-9.80059e-08
9.49556e-08
9.09183e-08
2.19394e-07
2.22713e-07
3.6251e-07
4.97851e-07
7.71059e-07
1.09783e-06
1.37522e-06
1.528e-06
3.001e-06
4.1189e-06
3.54083e-06
1.2417e-06
-7.09153e-08
-2.96847e-07
-4.36122e-07
-3.35648e-07
-3.86365e-07
-2.20806e-07
-2.96211e-07
-8.04585e-08
-1.93387e-07
-2.14627e-08
-2.42973e-07
-1.31943e-07
-4.50947e-07
-3.36083e-07
-6.9848e-07
-5.47003e-07
-1.09421e-06
-1.36724e-06
-1.5521e-06
-2.31605e-06
-6.24412e-06
-7.21301e-06
-1.50991e-07
-2.92907e-07
-2.8805e-07
-1.74283e-07
-1.67943e-07
-1.41944e-07
-8.45364e-08
1.34089e-08
1.07723e-07
1.62801e-07
1.94991e-07
2.15461e-07
2.62872e-07
3.92105e-07
5.17137e-07
8.32938e-07
9.71772e-07
1.50493e-06
2.39028e-06
3.47276e-06
2.98075e-06
1.00274e-06
-1.72899e-07
-2.86739e-08
-1.88554e-07
-1.20214e-07
-2.18367e-07
-9.23059e-08
-1.33212e-07
1.9146e-08
-8.20152e-08
-7.05556e-09
-1.9391e-07
-1.96711e-07
-4.28636e-07
-4.74461e-07
-7.25213e-07
-8.84341e-07
-1.23331e-06
-1.26425e-06
-2.21457e-06
-5.03757e-06
-6.89319e-06
4.82279e-08
-5.24583e-07
7.42673e-08
-2.72149e-08
-7.15035e-08
-5.40704e-08
6.92071e-08
1.28161e-07
2.04959e-07
2.02993e-07
2.17857e-07
2.47432e-07
3.32035e-07
4.28756e-07
6.64436e-07
8.18608e-07
1.37646e-06
1.93845e-06
2.82003e-06
2.37699e-06
8.07004e-07
4.55874e-07
2.61482e-07
7.78857e-08
-4.76782e-08
-9.84711e-08
-4.59485e-09
1.38814e-08
7.47489e-08
1.12229e-08
4.20545e-09
-1.36741e-07
-1.87286e-07
-4.03778e-07
-4.43591e-07
-7.75728e-07
-7.59305e-07
-1.11528e-06
-1.7145e-06
-3.79249e-06
-5.99958e-06
-3.34836e-07
4.4249e-07
3.19991e-07
4.08175e-08
2.02251e-08
6.99657e-08
1.88335e-07
2.05639e-07
2.55789e-07
2.07527e-07
2.89294e-07
2.80906e-07
4.39774e-07
5.36498e-07
7.78352e-07
1.1842e-06
1.59693e-06
2.28643e-06
1.78781e-06
9.13066e-07
1.02279e-06
4.1319e-07
2.39845e-07
1.15218e-08
-1.98485e-08
2.4606e-08
9.66915e-08
1.15632e-07
1.24145e-07
8.08647e-08
3.8781e-08
-7.34486e-08
-1.53176e-07
-2.89641e-07
-4.39858e-07
-4.97628e-07
-7.80438e-07
-1.18556e-06
-2.82247e-06
-4.37447e-06
8.82087e-07
1.68014e-07
6.57719e-08
1.70533e-08
1.32834e-07
1.65777e-07
2.66992e-07
2.20878e-07
2.71909e-07
2.396e-07
3.22661e-07
3.69386e-07
4.98488e-07
6.86927e-07
9.90517e-07
1.34718e-06
1.78393e-06
1.36629e-06
1.47143e-06
2.43599e-07
1.71367e-07
-4.65309e-09
2.00424e-08
4.91666e-08
1.39292e-07
1.43381e-07
1.80603e-07
1.46051e-07
1.35654e-07
4.86944e-08
1.27868e-09
-1.16758e-07
-1.87128e-07
-2.73409e-07
-4.41813e-07
-7.92332e-07
-1.87462e-06
-2.98202e-06
7.4175e-07
-3.3595e-07
5.2979e-09
4.54815e-08
9.66591e-08
2.00247e-07
2.20691e-07
2.50327e-07
2.27689e-07
2.51874e-07
2.70501e-07
3.35896e-07
4.14174e-07
5.88346e-07
7.98362e-07
1.0984e-06
1.40251e-06
8.85124e-07
2.09587e-06
5.09817e-07
1.86055e-07
7.96182e-08
1.31285e-07
1.24839e-07
1.92509e-07
1.63523e-07
2.06759e-07
1.51264e-07
1.45054e-07
6.72868e-08
3.32429e-08
-3.98126e-08
-8.46637e-08
-1.84615e-07
-5.47189e-07
-1.05961e-06
-3.3818e-07
-2.3466e-07
1.80917e-07
3.04821e-07
1.87835e-07
2.1506e-07
2.18013e-07
2.27222e-07
2.06828e-07
2.12401e-07
2.29383e-07
2.67712e-07
3.36538e-07
4.59109e-07
6.21764e-07
8.39867e-07
1.0501e-06
1.2348e-06
-1.09546e-07
6.74769e-07
2.41292e-07
2.20119e-07
1.79286e-07
1.95326e-07
1.74682e-07
1.96566e-07
1.80095e-07
1.87676e-07
1.46807e-07
1.31669e-07
8.50116e-08
6.55739e-08
1.9378e-08
-3.1717e-08
-2.40745e-07
-1.39322e-06
1.12382e-06
5.84585e-07
2.03479e-07
2.10984e-07
2.13587e-07
2.21558e-07
1.972e-07
1.86299e-07
1.67208e-07
1.85115e-07
1.99781e-07
2.54401e-07
3.30726e-07
4.5105e-07
5.97438e-07
5.71266e-07
1.34091e-06
-2.22941e-06
-7.83448e-08
1.7e-07
2.09605e-07
2.07801e-07
1.90527e-07
1.73466e-07
1.74259e-07
1.65576e-07
1.53693e-07
1.37149e-07
1.19096e-07
9.95994e-08
7.16603e-08
1.79741e-08
-8.06878e-08
-1.59152e-06
2.67611e-06
4.7567e-07
4.88922e-08
1.87586e-07
2.23417e-07
1.92265e-07
1.81406e-07
1.42031e-07
1.3926e-07
1.4336e-07
1.52938e-07
1.79777e-07
2.20126e-07
2.9673e-07
3.7013e-07
2.46123e-07
1.33996e-06
3.66297e-07
2.09856e-07
1.89672e-07
1.63587e-07
1.35883e-07
1.44201e-07
1.49719e-07
1.5471e-07
1.44923e-07
1.30039e-07
1.09745e-07
8.39467e-08
2.63906e-08
8.23617e-09
-1.04206e-06
-1.87829e-08
1.39209e-07
1.56914e-07
1.52086e-07
1.22982e-07
1.21129e-07
1.35119e-07
1.34274e-07
1.38404e-07
1.29847e-07
1.41091e-07
1.73624e-07
2.02543e-07
5.76414e-08
1.0242e-06
4.1345e-07
2.34408e-07
1.76098e-07
1.09406e-07
1.12045e-07
1.36029e-07
1.6604e-07
1.77217e-07
1.58166e-07
1.34299e-07
1.06318e-07
7.74204e-08
2.36817e-08
8.22479e-08
-8.62757e-07
-6.70333e-08
1.23459e-07
2.41694e-07
1.51883e-07
1.33066e-07
1.57289e-07
1.67411e-07
1.68163e-07
1.35366e-07
1.02383e-07
8.66828e-08
9.42599e-08
9.23281e-08
-8.29865e-08
8.70612e-07
3.92273e-07
3.79309e-07
1.51414e-07
1.35051e-07
1.39301e-07
1.74455e-07
2.09372e-07
1.85639e-07
1.53464e-07
1.10018e-07
8.70025e-08
5.75695e-08
5.67452e-09
1.54176e-07
-7.40062e-07
2.38918e-07
2.19151e-07
1.61392e-07
1.80243e-07
1.9601e-07
1.96827e-07
1.63116e-07
1.07294e-07
6.40289e-08
4.1796e-08
3.65712e-08
4.25205e-08
-2.01985e-07
8.12396e-07
3.28703e-07
1.45116e-07
1.41289e-07
1.4693e-07
2.00552e-07
1.76382e-07
1.41459e-07
9.11506e-08
5.92523e-08
4.96777e-08
4.21508e-08
-4.54313e-08
2.69371e-07
-3.71118e-07
3.08223e-07
1.01734e-07
1.16543e-07
1.87662e-07
1.14087e-07
1.13689e-07
9.0469e-08
4.27282e-08
1.81906e-08
1.3926e-08
-1.59372e-08
6.11943e-08
1.00567e-07
4.05771e-07
-1.50295e-07
3.96343e-08
1.25638e-07
-1.6478e-08
2.98992e-08
7.91172e-08
3.70691e-08
2.47812e-08
1.87062e-08
1.18556e-08
3.69631e-08
1.36697e-07
-1.05343e-07
-1.13497e-07
1.73868e-07
-2.61348e-08
-5.53401e-08
-6.09767e-08
3.097e-08
-3.3737e-08
3.83343e-08
1.75188e-08
-2.41766e-09
4.00991e-09
2.60959e-08
-1.68966e-07
1.86641e-07
-1.27692e-07
8.84256e-08
-1.33426e-07
-4.18153e-08
-1.59065e-07
3.30812e-08
3.3208e-08
-2.30276e-09
3.82031e-09
-1.48538e-10
-3.34589e-08
1.68183e-07
-3.76151e-07
1.12402e-07
-2.33772e-07
-7.70708e-08
-2.11105e-07
-2.02841e-08
4.18332e-08
-3.5855e-10
1.3296e-08
-2.18457e-08
-1.61643e-09
3.24678e-08
-2.33667e-07
2.51562e-07
7.17029e-08
-1.67592e-07
-9.35274e-08
-8.90165e-09
-1.98534e-08
1.30481e-09
-5.48982e-08
-2.00779e-08
-3.60891e-08
-5.0846e-08
1.47895e-07
-1.99688e-07
-2.92234e-07
-1.02759e-07
-4.66901e-08
-3.34639e-08
-8.97096e-09
-5.33125e-08
-1.86028e-08
-7.47724e-08
-1.42021e-08
1.33152e-08
-1.68451e-07
1.68006e-07
1.16915e-07
-8.15336e-08
-6.58438e-08
-3.80794e-08
-2.94297e-08
-2.62334e-08
-6.9758e-08
-2.80461e-08
-7.25884e-08
-3.77403e-08
1.25842e-07
-1.22555e-07
4.80344e-08
-8.92251e-08
-8.06483e-10
-5.12651e-08
-5.71013e-10
-1.86375e-08
-3.74728e-08
7.08954e-08
2.00604e-08
-9.02042e-08
1.11698e-07
-2.13533e-07
-2.3017e-08
-6.17093e-08
3.1652e-08
4.95405e-09
2.12643e-08
1.15075e-07
-2.24797e-08
2.20814e-08
6.4785e-08
-8.89942e-08
1.82051e-08
-2.57461e-08
1.05009e-08
2.18583e-08
3.17987e-08
9.08025e-08
5.48749e-09
7.89508e-08
-4.62403e-09
-1.26429e-07
2.2464e-08
-1.26665e-07
-1.4334e-08
8.42766e-09
1.9931e-08
4.48863e-08
3.02884e-08
6.06728e-08
3.58042e-10
-6.33003e-08
7.2434e-08
-5.20565e-08
5.30339e-08
-1.64952e-09
1.798e-08
2.02055e-08
3.24133e-08
3.63793e-08
3.75907e-08
8.66329e-09
8.9338e-08
-5.47745e-08
9.54407e-08
-1.16618e-07
2.75733e-08
-2.26573e-09
3.45697e-08
1.12283e-08
4.07256e-08
1.97441e-08
5.58798e-08
-1.26656e-10
1.08902e-07
1.55244e-07
-5.75421e-08
2.03808e-08
-1.06637e-08
2.67513e-08
9.76194e-09
1.98379e-08
5.65525e-08
1.42547e-08
2.19311e-08
9.58668e-08
-2.7728e-09
1.03893e-08
8.71577e-09
9.36302e-09
4.73944e-08
-9.25718e-09
6.54867e-08
-3.02221e-08
-4.43585e-08
-2.51563e-09
4.26134e-09
1.01505e-08
2.12396e-08
-3.9831e-09
6.46049e-08
-1.73682e-08
5.79963e-08
3.72807e-08
3.03464e-09
1.30852e-08
1.67765e-08
1.20558e-08
4.08309e-08
-1.12168e-08
3.73678e-08
-1.71633e-08
-4.36077e-08
3.86932e-09
7.44779e-09
1.27078e-08
1.83186e-08
-3.37539e-09
1.69916e-08
-9.53098e-09
1.81493e-08
2.76033e-08
1.17891e-09
1.21921e-08
1.12918e-08
9.28546e-09
8.85313e-09
7.04438e-09
6.85182e-09
1.22955e-08
-3.67141e-08
2.60787e-09
6.55565e-09
7.53439e-09
1.17142e-08
1.26289e-08
7.84756e-09
1.57271e-08
1.11625e-09
-5.30688e-10
1.20076e-09
9.53136e-09
5.62278e-09
4.84416e-09
1.75389e-08
6.2159e-09
-2.86223e-08
-3.56997e-09
6.62585e-09
2.97273e-10
2.06221e-09
2.25298e-08
1.9931e-10
2.41378e-08
-1.58747e-08
1.89956e-09
-9.6392e-10
1.82597e-08
-9.79678e-09
2.29308e-08
-1.30914e-08
2.73893e-08
1.58604e-09
5.9329e-09
-1.16182e-08
1.59554e-08
-1.6398e-08
1.62963e-08
-1.2759e-08
7.4266e-10
-1.1599e-09
1.30681e-08
-6.51242e-09
1.08757e-08
-1.46075e-08
1.58034e-08
-1.32861e-10
4.53714e-09
-7.42094e-10
1.37012e-09
-8.45531e-09
-4.96739e-11
-2.17892e-08
-2.62295e-09
-1.66066e-09
7.79017e-10
5.61132e-10
-1.66565e-09
8.51151e-09
-2.15541e-09
1.86897e-09
2.34594e-09
-9.37443e-10
4.55944e-09
-2.04755e-08
-2.60309e-09
-2.62646e-09
-6.98859e-11
2.73472e-09
-2.81621e-10
5.9838e-09
-3.57689e-09
-4.34923e-10
-5.13429e-11
-1.33819e-09
2.83589e-09
-2.35463e-08
-1.57031e-10
-2.67356e-09
-2.16839e-09
1.51358e-09
-2.54556e-09
1.9207e-08
-1.01006e-08
-5.01106e-09
2.17482e-09
-4.1307e-09
4.13591e-09
7.11322e-09
-1.50818e-11
-9.38619e-09
2.29202e-09
-1.14008e-08
-1.84439e-08
-1.34088e-08
-7.77345e-09
-1.53696e-08
-5.37871e-09
-3.44084e-09
-8.85624e-09
-9.77422e-09
-6.13304e-09
-9.26672e-09
-2.06118e-08
-6.73868e-09
-5.60368e-09
-6.76004e-09
-1.10322e-08
-8.16787e-09
-5.31332e-09
-6.17533e-09
-2.28116e-08
-6.6205e-09
-5.00204e-09
-5.61418e-09
)
;

boundaryField
{
    inlet
    {
        type            extrapolatedCalculated;
        value           nonuniform List<scalar> 4(-2.28116e-08 -6.6205e-09 -5.00204e-09 -5.61418e-09);
    }
    outlet
    {
        type            extrapolatedCalculated;
        value           nonuniform List<scalar> 0();
    }
    walls
    {
        type            extrapolatedCalculated;
        value           nonuniform List<scalar> 
42
(
6.6699e-06
-4.95219e-06
3.60666e-06
-2.9396e-06
2.25654e-06
5.43725e-07
3.12662e-06
1.70681e-06
7.4658e-07
-6.94018e-07
-8.91259e-07
-1.12663e-06
-7.012e-07
-6.86392e-07
-4.14734e-07
-5.65673e-07
-4.13349e-07
-7.33713e-07
-4.04628e-07
-9.2677e-07
3.76095e-07
5.85843e-08
5.30883e-06
7.03812e-06
8.00254e-06
6.96375e-06
3.53074e-06
2.29156e-06
3.91898e-06
4.00726e-06
-6.25935e-06
2.08973e-05
3.20449e-06
2.48994e-07
-8.89019e-06
-5.17914e-06
5.71353e-06
1.36314e-07
1.23059e-06
1.0615e-06
-4.24792e-06
-1.75647e-06
)
;
    }
    frontAndBack
    {
        type            empty;
    }
    procBoundary5to0
    {
        type            processor;
        value           nonuniform List<scalar> 4(8.38844e-07 -1.08933e-06 2.31624e-08 -1.84256e-06);
    }
    procBoundary5to1
    {
        type            processor;
        value           nonuniform List<scalar> 
13
(
-6.49858e-06
-4.9115e-06
-4.9115e-06
-1.14206e-06
-1.47924e-06
-1.47924e-06
-2.83783e-07
-1.60409e-06
-1.60409e-06
3.61735e-07
-1.127e-06
-2.64055e-06
-2.64055e-06
)
;
    }
    procBoundary5to4
    {
        type            processor;
        value           nonuniform List<scalar> 
95
(
1.55735e-06
7.16228e-07
8.66544e-07
8.66544e-07
3.24979e-07
2.42877e-07
2.42877e-07
2.79478e-07
-4.46294e-07
-4.46294e-07
-1.30063e-06
-1.30063e-06
-7.41123e-07
-7.41123e-07
-9.23559e-08
-9.21569e-08
-9.21569e-08
3.38172e-08
3.38172e-08
1.15039e-07
-7.03163e-09
-7.03163e-09
-5.46769e-08
-2.19022e-07
-2.19022e-07
-6.48925e-08
-6.48937e-07
-6.48937e-07
4.50717e-07
-2.54276e-07
1.38483e-07
1.38483e-07
6.99657e-07
9.56652e-08
-2.8757e-07
-2.8757e-07
4.60987e-07
-2.50149e-07
-1.66539e-07
-1.66539e-07
4.63226e-07
-1.90688e-07
-6.98686e-08
-6.98686e-08
2.6069e-07
-2.03495e-07
3.99493e-07
-1.34419e-07
2.68711e-07
2.68711e-07
1.73852e-07
5.82794e-09
2.51494e-07
-2.28493e-07
-2.02383e-07
-2.02383e-07
7.97117e-08
-2.28805e-07
1.56361e-07
-1.85645e-07
-2.22523e-07
-2.22523e-07
4.7967e-08
-1.64125e-07
5.10327e-08
-1.19783e-07
1.10147e-07
-1.18609e-07
-1.39201e-07
-1.39201e-07
5.02382e-08
-6.72762e-08
4.19998e-08
-5.48862e-08
2.74292e-08
-4.4987e-08
-4.36301e-09
1.34099e-08
1.34099e-08
-1.77214e-08
2.27005e-08
-2.65859e-08
1.65488e-08
-2.40855e-08
1.27084e-08
-2.41143e-08
1.78287e-08
-2.33612e-08
-2.79749e-08
-2.79749e-08
5.35115e-09
-2.15788e-08
1.84249e-09
-1.75003e-08
-9.63153e-09
)
;
    }
    procBoundary5to6
    {
        type            processor;
        value           nonuniform List<scalar> 
86
(
3.00762e-05
1.21349e-05
1.94068e-05
7.99472e-06
1.99324e-05
9.17706e-06
2.24065e-05
1.09341e-05
2.16789e-05
1.08917e-05
1.83089e-05
1.01845e-05
1.48623e-05
9.27385e-06
1.15746e-05
7.95545e-06
8.79287e-06
6.30604e-06
6.44675e-06
4.61151e-06
4.80004e-06
3.29455e-06
3.83338e-06
2.28001e-06
2.62657e-06
1.73191e-06
1.85059e-06
1.29977e-06
1.26415e-06
1.63928e-06
8.69193e-08
1.46399e-06
-1.48632e-07
-2.94458e-06
-2.94458e-06
1.63041e-06
-1.08019e-06
1.2876e-06
-9.44119e-07
1.08812e-06
-8.31224e-07
9.05818e-07
-4.20946e-07
3.4825e-07
-3.04765e-07
1.95605e-07
-3.00289e-07
-3.00289e-07
5.81047e-08
-4.12361e-08
6.04741e-08
1.63299e-08
-9.65983e-09
-1.18258e-08
-1.2906e-08
1.89415e-08
-3.80232e-08
-3.80232e-08
-2.47613e-08
4.12342e-08
-4.67736e-09
3.80083e-08
5.65911e-09
1.57605e-08
2.15507e-08
2.15507e-08
2.34346e-08
1.01786e-08
2.32245e-08
-1.56013e-08
7.39768e-09
-1.24828e-08
-6.63758e-09
-6.63758e-09
1.58465e-09
4.61021e-09
1.18193e-09
6.28046e-10
-4.05678e-09
-7.71291e-10
-2.19706e-08
-1.31499e-08
-1.18598e-08
-1.18598e-08
-9.87268e-09
-1.10518e-08
)
;
    }
}


// ************************************************************************* //
