/*--------------------------------*- C++ -*----------------------------------*\
| =========                 |                                                 |
| \\      /  F ield         | OpenFOAM: The Open Source CFD Toolbox           |
|  \\    /   O peration     | Version:  2306                                  |
|   \\  /    A nd           | Website:  www.openfoam.com                      |
|    \\/     M anipulation  |                                                 |
\*---------------------------------------------------------------------------*/
FoamFile
{
    version     2.0;
    format      ascii;
    arch        "LSB;label=32;scalar=64";
    class       volVectorField;
    location    "925";
    object      momentError;
}
// * * * * * * * * * * * * * * * * * * * * * * * * * * * * * * * * * * * * * //

dimensions      [0 1 -2 0 0 0 0];

internalField   nonuniform List<vector> 
1340
(
(-7.58276e-06 0.000102649 1.78891e-16)
(-3.68485e-07 0.000111395 -1.65408e-15)
(1.06854e-05 0.00011741 -1.52309e-15)
(-6.27289e-06 9.6062e-05 -2.48141e-15)
(1.41665e-06 0.00010305 6.67458e-16)
(1.17497e-05 0.000108201 -1.48834e-15)
(2.28392e-05 0.00010667 5.51846e-15)
(3.47475e-05 0.000106659 6.91975e-15)
(-3.89806e-06 8.87541e-05 9.99654e-16)
(3.96167e-06 9.50693e-05 4.23557e-15)
(1.40802e-05 9.95235e-05 2.89056e-15)
(2.42773e-05 9.79958e-05 9.59237e-17)
(3.48238e-05 9.87156e-05 -1.09802e-15)
(4.59833e-05 9.84494e-05 -5.33421e-16)
(5.50249e-05 9.40966e-05 4.56359e-14)
(-1.24086e-06 8.282e-05 -1.44124e-15)
(6.1181e-06 8.73594e-05 3.39095e-15)
(1.6001e-05 9.09998e-05 5.96703e-16)
(2.5572e-05 8.97608e-05 -4.24932e-15)
(3.54906e-05 9.03309e-05 1.43369e-14)
(4.57733e-05 9.02282e-05 -1.98941e-14)
(5.50317e-05 8.73739e-05 2.04626e-15)
(6.16748e-05 8.10873e-05 -6.63958e-15)
(1.13828e-06 7.66916e-05 -3.25436e-15)
(8.19338e-06 8.04583e-05 -1.74033e-15)
(1.72889e-05 8.33332e-05 -3.88647e-16)
(2.62931e-05 8.22023e-05 -3.99184e-15)
(3.55477e-05 8.26219e-05 -8.10476e-16)
(4.53633e-05 8.26247e-05 1.51751e-14)
(5.37707e-05 7.96574e-05 -5.00752e-14)
(6.12107e-05 7.38007e-05 2.10024e-14)
(6.39159e-05 6.65686e-05 8.43932e-14)
(2.70959e-06 7.09995e-05 3.46391e-15)
(9.56708e-06 7.40084e-05 -3.22909e-15)
(1.81496e-05 7.63722e-05 1.3477e-15)
(2.64199e-05 7.53512e-05 2.11866e-15)
(3.51459e-05 7.57274e-05 -1.9178e-14)
(4.43968e-05 7.56936e-05 1.62749e-14)
(5.2348e-05 7.28731e-05 4.08655e-14)
(5.87348e-05 6.82621e-05 -2.99582e-14)
(6.33159e-05 6.17669e-05 -4.44595e-15)
(3.87808e-06 6.55747e-05 2.1654e-15)
(1.04676e-05 6.80768e-05 -1.18257e-15)
(1.84962e-05 7.0015e-05 -3.29422e-15)
(2.6265e-05 6.91493e-05 9.0145e-17)
(3.43681e-05 6.94072e-05 -1.73325e-15)
(4.30545e-05 6.94967e-05 -4.02439e-14)
(5.06485e-05 6.71545e-05 2.88281e-14)
(5.65909e-05 6.29908e-05 9.22014e-15)
(6.09236e-05 5.79223e-05 -7.90314e-14)
(6.42168e-05 5.271e-05 -7.44452e-15)
(4.65432e-06 6.04665e-05 -1.74295e-16)
(1.10026e-05 6.2623e-05 7.63614e-16)
(1.85533e-05 6.42162e-05 1.44558e-16)
(2.57222e-05 6.34527e-05 -2.91563e-15)
(3.34005e-05 6.37913e-05 1.82169e-14)
(4.16056e-05 6.3881e-05 1.92678e-14)
(4.86908e-05 6.1799e-05 -4.41289e-14)
(5.4585e-05 5.84332e-05 1.99905e-14)
(5.89013e-05 5.38428e-05 4.86782e-14)
(6.22019e-05 4.92726e-05 -4.44748e-15)
(6.54495e-05 4.53489e-05 -3.35545e-14)
(5.17267e-06 5.57502e-05 -5.40123e-16)
(1.123e-05 5.75797e-05 -1.97423e-15)
(1.83178e-05 5.89455e-05 4.58329e-17)
(2.50354e-05 5.83505e-05 -5.94978e-16)
(3.22246e-05 5.85426e-05 -1.24406e-14)
(3.99766e-05 5.87796e-05 3.305e-14)
(4.6864e-05 5.70941e-05 3.43228e-14)
(5.24956e-05 5.38378e-05 6.43835e-15)
(5.68841e-05 4.99463e-05 9.94058e-15)
(6.04356e-05 4.59856e-05 -1.46257e-14)
(6.41267e-05 4.22086e-05 -1.34927e-14)
(5.47853e-06 5.13633e-05 -5.33263e-16)
(1.12707e-05 5.2984e-05 -6.71733e-16)
(1.79156e-05 5.41464e-05 -1.8973e-15)
(2.41549e-05 5.35804e-05 -8.62412e-16)
(3.10095e-05 5.38836e-05 -3.00108e-15)
(3.83881e-05 5.40697e-05 -1.89161e-14)
(4.48352e-05 5.24676e-05 -2.82776e-15)
(5.05389e-05 4.98324e-05 -3.4952e-14)
(5.496e-05 4.62278e-05 7.17321e-15)
(5.84632e-05 4.22554e-05 1.19148e-14)
(6.23038e-05 3.89018e-05 1.52633e-14)
(6.54223e-05 3.43827e-05 -1.17275e-14)
(5.6675e-06 4.73639e-05 2.34066e-15)
(1.11527e-05 4.87346e-05 1.21246e-15)
(1.73702e-05 4.97591e-05 1.85999e-15)
(2.32739e-05 4.93119e-05 -1.34079e-15)
(2.9682e-05 4.94443e-05 -6.77804e-17)
(3.67062e-05 4.97263e-05 -7.68535e-15)
(4.30152e-05 4.84372e-05 2.15499e-14)
(4.84335e-05 4.58126e-05 8.58332e-15)
(5.2908e-05 4.25419e-05 -2.86662e-14)
(5.67187e-05 3.88807e-05 1.26948e-14)
(6.04006e-05 3.50837e-05 -2.54092e-14)
(6.37928e-05 3.06253e-05 3.94095e-14)
(5.75596e-06 4.35792e-05 2.32469e-15)
(1.09504e-05 4.48659e-05 -5.73307e-17)
(1.67832e-05 4.57161e-05 -5.58626e-16)
(2.22514e-05 4.52749e-05 2.12338e-15)
(2.83758e-05 4.55353e-05 -1.62619e-15)
(3.50507e-05 4.57346e-05 -3.5096e-15)
(4.09815e-05 4.44318e-05 1.22894e-14)
(4.64345e-05 4.2272e-05 2.4221e-14)
(5.09882e-05 3.89984e-05 -2.28309e-14)
(5.45521e-05 3.5087e-05 3.38063e-14)
(5.84592e-05 3.12433e-05 -2.07098e-14)
(6.18461e-05 2.65658e-05 -1.10902e-14)
(6.41106e-05 2.07855e-05 6.06879e-14)
(5.79849e-06 4.01126e-05 -5.69128e-16)
(1.0684e-05 4.12032e-05 2.77146e-15)
(1.61429e-05 4.19964e-05 -1.39262e-16)
(2.12701e-05 4.16805e-05 -8.43508e-16)
(2.69836e-05 4.17511e-05 -1.01424e-15)
(3.33107e-05 4.20249e-05 9.09459e-15)
(3.91292e-05 4.09715e-05 5.98026e-15)
(4.42706e-05 3.85938e-05 1.66351e-14)
(4.87829e-05 3.54712e-05 2.1489e-14)
(5.25952e-05 3.16889e-05 -2.66441e-14)
(5.61602e-05 2.72741e-05 4.39627e-14)
(5.94627e-05 2.23912e-05 -4.22423e-14)
(6.22913e-05 1.70178e-05 2.25212e-14)
(5.8121e-06 3.67876e-05 -2.12928e-15)
(1.03913e-05 3.78471e-05 2.37565e-15)
(1.54703e-05 3.85435e-05 1.11257e-15)
(2.0227e-05 3.82062e-05 -2.18345e-15)
(2.56596e-05 3.83942e-05 -1.12735e-14)
(3.16351e-05 3.85685e-05 1.21e-14)
(3.70466e-05 3.73943e-05 -2.27654e-14)
(4.22046e-05 3.53485e-05 -3.11702e-14)
(4.66101e-05 3.21737e-05 5.01677e-15)
(5.00954e-05 2.79831e-05 4.93851e-15)
(5.36863e-05 2.36596e-05 -1.01361e-17)
(5.69489e-05 1.86458e-05 3.80841e-14)
(5.98045e-05 1.38168e-05 -8.79078e-14)
(6.15552e-05 8.38307e-06 6.75324e-16)
(5.72259e-06 3.36822e-05 1.99339e-16)
(1.00205e-05 3.46605e-05 -1.12806e-15)
(1.47483e-05 3.53263e-05 9.39945e-16)
(1.9239e-05 3.50741e-05 -5.00315e-15)
(2.42583e-05 3.50764e-05 1.16265e-15)
(2.9904e-05 3.52857e-05 -9.50194e-15)
(3.5151e-05 3.43166e-05 9.69277e-15)
(3.99e-05 3.2027e-05 -1.62519e-14)
(4.41416e-05 2.88864e-05 -1.75314e-14)
(4.77316e-05 2.49092e-05 -3.26526e-14)
(5.09013e-05 2.01654e-05 -6.83998e-14)
(5.39963e-05 1.54092e-05 -3.47145e-15)
(5.69182e-05 1.06064e-05 -1.16523e-14)
(5.86659e-05 5.35425e-06 -5.71259e-14)
(5.60741e-06 3.07217e-05 1.99542e-16)
(9.59958e-06 3.1691e-05 -7.06181e-17)
(1.40098e-05 3.22728e-05 9.64859e-16)
(1.81579e-05 3.19954e-05 -2.95351e-15)
(2.292e-05 3.21248e-05 3.05175e-15)
(2.82003e-05 3.22291e-05 -1.87939e-14)
(3.30244e-05 3.11229e-05 -3.9074e-15)
(3.76862e-05 2.91321e-05 6.24145e-15)
(4.17292e-05 2.59407e-05 1.74959e-14)
(4.48136e-05 2.16747e-05 1.23219e-14)
(4.80096e-05 1.73126e-05 -1.7937e-14)
(5.08439e-05 1.2721e-05 5.54745e-16)
(5.36915e-05 8.30855e-06 7.62268e-14)
(5.61051e-05 3.92733e-06 1.02876e-13)
(5.42047e-06 2.80184e-05 -2.1719e-15)
(9.14823e-06 2.88741e-05 -1.08881e-15)
(1.32672e-05 2.94221e-05 -6.36592e-16)
(1.71356e-05 2.92473e-05 6.07371e-15)
(2.15317e-05 2.91992e-05 -1.55376e-15)
(2.64689e-05 2.93444e-05 5.56969e-15)
(3.11073e-05 2.84241e-05 -1.85498e-16)
(3.52971e-05 2.61813e-05 1.4533e-15)
(3.90645e-05 2.30748e-05 1.49726e-14)
(4.2189e-05 1.92105e-05 -8.34341e-15)
(4.48497e-05 1.48151e-05 2.1353e-14)
(4.75458e-05 1.07051e-05 2.96626e-14)
(5.0246e-05 7.01606e-06 -1.39419e-15)
(5.29112e-05 3.50059e-06 -1.05726e-14)
(5.49721e-05 1.42778e-06 -4.60958e-14)
(5.38834e-06 2.55944e-05 1.62627e-15)
(8.71189e-06 2.62957e-05 -7.13098e-16)
(1.25133e-05 2.68002e-05 2.41202e-16)
(1.60992e-05 2.65817e-05 2.71536e-15)
(2.02477e-05 2.66537e-05 -1.57424e-15)
(2.48323e-05 2.66943e-05 9.22845e-15)
(2.90215e-05 2.56229e-05 4.80243e-15)
(3.30815e-05 2.36963e-05 1.4989e-14)
(3.65301e-05 2.06635e-05 9.03617e-15)
(3.91334e-05 1.67323e-05 2.0417e-14)
(4.18354e-05 1.29877e-05 -2.97446e-14)
(4.43206e-05 9.41563e-06 -3.75939e-14)
(4.69707e-05 6.32642e-06 -1.30036e-14)
(5.00104e-05 4.09899e-06 2.45143e-14)
(5.22451e-05 2.10331e-06 3.7628e-14)
(5.10706e-06 2.32316e-05 1.01612e-15)
(8.29281e-06 2.41225e-05 1.22345e-15)
(1.17657e-05 2.44314e-05 -1.69803e-16)
(1.51445e-05 2.42668e-05 -5.31562e-16)
(1.89383e-05 2.41728e-05 3.2757e-15)
(2.32119e-05 2.42276e-05 -1.02034e-14)
(2.71872e-05 2.33447e-05 -1.83026e-14)
(3.07427e-05 2.12354e-05 1.46746e-14)
(3.38933e-05 1.83812e-05 -4.01061e-15)
(3.64833e-05 1.50341e-05 -2.80359e-14)
(3.87559e-05 1.14722e-05 5.77792e-15)
(4.11994e-05 8.45984e-06 -1.21573e-15)
(4.39807e-05 6.08455e-06 -3.60147e-14)
(4.70466e-05 4.24694e-06 -4.75597e-14)
(5.01302e-05 2.67005e-06 -1.08495e-14)
(4.5496e-06 2.0982e-05 -8.9443e-16)
(7.68452e-06 2.19583e-05 2.28935e-16)
(1.10139e-05 2.23293e-05 -1.5112e-15)
(1.41444e-05 2.20509e-05 -2.04117e-15)
(1.7725e-05 2.20629e-05 1.70684e-15)
(2.1658e-05 2.2019e-05 7.54867e-15)
(2.52165e-05 2.10142e-05 3.37422e-15)
(2.86276e-05 1.92366e-05 -1.15315e-14)
(3.14746e-05 1.65553e-05 3.91993e-14)
(3.35942e-05 1.32613e-05 -5.41852e-15)
(3.59503e-05 1.03709e-05 -5.14889e-16)
(3.83052e-05 7.81479e-06 4.00606e-14)
(4.1079e-05 5.81876e-06 -8.27324e-16)
(4.45503e-05 4.35479e-06 -3.05222e-15)
(4.76126e-05 2.69688e-06 3.09186e-15)
(4.95961e-05 1.15067e-07 -6.82009e-15)
(4.31076e-06 1.89079e-05 -3.08402e-16)
(7.08732e-06 1.98654e-05 -8.20024e-16)
(1.02512e-05 2.02683e-05 -2.43744e-16)
(1.31921e-05 2.0129e-05 2.50447e-15)
(1.64801e-05 1.99954e-05 -2.04506e-15)
(2.01245e-05 1.99812e-05 1.80343e-15)
(2.34968e-05 1.91578e-05 9.2059e-15)
(2.64513e-05 1.72593e-05 -2.74556e-14)
(2.90531e-05 1.4794e-05 -1.82155e-14)
(3.11962e-05 1.20867e-05 2.23174e-15)
(3.31976e-05 9.35908e-06 6.96146e-15)
(3.55541e-05 7.1994e-06 4.72722e-15)
(3.83894e-05 5.55601e-06 5.38689e-14)
(4.17062e-05 4.09346e-06 4.28064e-14)
(4.51414e-05 2.37155e-06 -3.90281e-14)
(4.67099e-05 -9.6108e-07 7.62364e-15)
(4.00886e-06 1.73695e-05 -7.69231e-16)
(6.67839e-06 1.79208e-05 -1.91034e-16)
(9.51331e-06 1.84462e-05 -1.25392e-15)
(1.22502e-05 1.82506e-05 5.10688e-15)
(1.53486e-05 1.82389e-05 -3.39581e-15)
(1.87012e-05 1.81521e-05 -3.5065e-15)
(2.17035e-05 1.72252e-05 -1.93291e-14)
(2.45484e-05 1.56624e-05 3.50821e-16)
(2.68934e-05 1.34017e-05 2.01287e-14)
(2.86589e-05 1.07471e-05 1.52515e-14)
(3.07594e-05 8.55389e-06 -1.58964e-14)
(3.30083e-05 6.67579e-06 -5.42748e-14)
(3.57723e-05 5.18114e-06 -3.39492e-14)
(3.91734e-05 3.81809e-06 4.13643e-14)
(4.21121e-05 1.67429e-06 2.02649e-14)
(4.40704e-05 -1.53095e-06 -1.04199e-14)
(1.96607e-06 1.51684e-05 -4.54478e-17)
(3.81191e-06 1.60233e-05 5.68982e-16)
(6.21105e-06 1.62838e-05 2.70332e-16)
(8.86104e-06 1.67221e-05 -2.04683e-16)
(1.14047e-05 1.66379e-05 7.55503e-16)
(1.42253e-05 1.65145e-05 8.48437e-18)
(1.73412e-05 1.64577e-05 9.92407e-17)
(2.01749e-05 1.57244e-05 9.89866e-15)
(2.26294e-05 1.40783e-05 -5.21973e-15)
(2.47768e-05 1.20251e-05 9.37976e-15)
(2.65899e-05 9.86744e-06 2.16608e-14)
(2.83834e-05 7.74917e-06 -2.1991e-15)
(3.06025e-05 6.11605e-06 6.55856e-15)
(3.32834e-05 4.78861e-06 2.69652e-15)
(3.63428e-05 3.29103e-06 -2.33384e-14)
(3.94187e-05 1.34254e-06 -3.57397e-14)
(4.12349e-05 -1.69715e-06 1.7832e-14)
(4.15725e-05 -4.88281e-06 3.35283e-14)
(1.91621e-06 1.39995e-05 8.91133e-17)
(3.6861e-06 1.45289e-05 5.22665e-16)
(5.87294e-06 1.48167e-05 -2.38406e-16)
(8.26096e-06 1.51651e-05 2.36683e-15)
(1.0579e-05 1.5076e-05 -5.36321e-16)
(1.32199e-05 1.50653e-05 6.3018e-15)
(1.60711e-05 1.49638e-05 2.6761e-15)
(1.8589e-05 1.41594e-05 1.22597e-14)
(2.0963e-05 1.28263e-05 -8.15541e-16)
(2.29141e-05 1.0948e-05 -1.70264e-14)
(2.44084e-05 8.79825e-06 -2.62443e-16)
(2.62804e-05 7.09427e-06 -3.29462e-16)
(2.83622e-05 5.61489e-06 -1.88141e-14)
(3.08877e-05 4.33754e-06 9.16096e-15)
(3.39141e-05 2.99194e-06 6.62891e-15)
(3.64232e-05 9.3428e-07 2.99417e-14)
(3.85556e-05 -1.54332e-06 5.82962e-16)
(3.90906e-05 -4.53418e-06 -4.10312e-14)
(2.06899e-06 1.28469e-05 6.26262e-16)
(3.62453e-06 1.32764e-05 -7.95706e-16)
(5.5552e-06 1.34303e-05 -9.44079e-17)
(7.72338e-06 1.37765e-05 2.79296e-16)
(9.83651e-06 1.37487e-05 -8.19004e-16)
(1.22308e-05 1.36408e-05 -6.16487e-15)
(1.48589e-05 1.3585e-05 -3.89157e-15)
(1.72508e-05 1.29549e-05 2.01688e-14)
(1.92938e-05 1.15531e-05 1.03476e-14)
(2.10959e-05 9.84175e-06 -2.52385e-15)
(2.26476e-05 8.10925e-06 -2.30845e-14)
(2.42301e-05 6.41462e-06 9.20403e-15)
(2.62417e-05 5.09315e-06 1.95856e-14)
(2.86274e-05 3.93604e-06 -1.57175e-15)
(3.12936e-05 2.52911e-06 8.9352e-15)
(3.40258e-05 8.08218e-07 -5.54875e-14)
(3.5821e-05 -1.55671e-06 -3.19203e-14)
(3.6791e-05 -4.34006e-06 3.98076e-14)
(2.09711e-06 1.17732e-05 8.97516e-17)
(3.51886e-06 1.20863e-05 8.10282e-18)
(5.2674e-06 1.22407e-05 3.51037e-16)
(7.20774e-06 1.25173e-05 2.85945e-16)
(9.12542e-06 1.24592e-05 1.52517e-15)
(1.13573e-05 1.24493e-05 -1.4167e-16)
(1.37575e-05 1.23567e-05 -3.4987e-15)
(1.58772e-05 1.16604e-05 1.08101e-14)
(1.78711e-05 1.05384e-05 1.16344e-14)
(1.95084e-05 8.98254e-06 -1.09137e-14)
(2.07822e-05 7.22881e-06 -1.30404e-15)
(2.24261e-05 5.85742e-06 -9.60269e-15)
(2.42699e-05 4.63971e-06 1.98283e-14)
(2.64787e-05 3.51609e-06 -1.71389e-14)
(2.90692e-05 2.31491e-06 -9.77258e-15)
(3.13024e-05 5.29997e-07 1.32635e-15)
(3.33819e-05 -1.57047e-06 -1.54976e-14)
(3.44664e-05 -4.29453e-06 -1.41373e-14)
(3.44876e-05 -7.0102e-06 -1.92687e-14)
(2.08083e-06 1.07752e-05 -2.68785e-17)
(3.3909e-06 1.10539e-05 7.68352e-18)
(4.96208e-06 1.11186e-05 5.06326e-17)
(6.72891e-06 1.13873e-05 1.76057e-15)
(8.49449e-06 1.13583e-05 -2.26584e-15)
(1.04986e-05 1.12656e-05 1.12695e-14)
(1.27227e-05 1.12052e-05 -1.20798e-14)
(1.47279e-05 1.06782e-05 -7.33205e-15)
(1.64429e-05 9.49802e-06 -1.60258e-14)
(1.7957e-05 8.08451e-06 7.5786e-15)
(1.92856e-05 6.674e-06 2.75482e-15)
(2.06614e-05 5.28242e-06 -8.68716e-15)
(2.24172e-05 4.18542e-06 -1.82412e-14)
(2.44803e-05 3.1826e-06 -1.17141e-15)
(2.67332e-05 1.94653e-06 -2.61034e-14)
(2.91035e-05 4.59752e-07 -1.07231e-14)
(3.07273e-05 -1.70653e-06 2.19655e-14)
(3.20531e-05 -4.04572e-06 6.97469e-14)
(3.23527e-05 -6.58604e-06 3.00625e-14)
(2.0324e-06 9.87406e-06 2.8545e-16)
(3.2369e-06 1.0075e-05 1.31594e-16)
(4.67527e-06 1.01599e-05 -2.06654e-16)
(6.27715e-06 1.03513e-05 -4.17698e-16)
(7.87278e-06 1.02919e-05 1.5999e-15)
(9.7405e-06 1.0283e-05 2.6337e-15)
(1.17679e-05 1.01943e-05 -1.22223e-14)
(1.35451e-05 9.61403e-06 -1.06743e-14)
(1.52241e-05 8.68037e-06 -3.34734e-15)
(1.66093e-05 7.38989e-06 4.84554e-15)
(1.76924e-05 5.93783e-06 1.28391e-14)
(1.91148e-05 4.81655e-06 -7.3108e-15)
(2.07081e-05 3.79418e-06 4.86201e-15)
(2.25942e-05 2.82863e-06 1.88427e-14)
(2.47808e-05 1.75895e-06 -5.98856e-15)
(2.66463e-05 1.75978e-07 -3.32031e-14)
(2.85594e-05 -1.65596e-06 4.78611e-15)
(2.96836e-05 -3.74985e-06 -6.95121e-15)
(2.99775e-05 -6.51138e-06 -3.19503e-15)
(1.96357e-06 9.05106e-06 -4.59438e-17)
(3.07722e-06 9.23868e-06 7.05361e-17)
(4.38339e-06 9.24766e-06 1.05087e-16)
(5.85802e-06 9.43196e-06 -1.59414e-15)
(7.3119e-06 9.40301e-06 2.2688e-15)
(8.99665e-06 9.30856e-06 -1.53328e-15)
(1.0863e-05 9.25564e-06 4.82855e-15)
(1.25612e-05 8.81527e-06 1.1233e-14)
(1.40019e-05 7.82192e-06 -5.66803e-15)
(1.52919e-05 6.63953e-06 -1.41352e-15)
(1.64311e-05 5.48051e-06 -2.01307e-14)
(1.76062e-05 4.32205e-06 8.20076e-15)
(1.91167e-05 3.39487e-06 1.0572e-14)
(2.08588e-05 2.52643e-06 3.48141e-14)
(2.27302e-05 1.41791e-06 4.50036e-15)
(2.47027e-05 1.39935e-07 5.76836e-15)
(2.61896e-05 -1.60862e-06 1.64408e-14)
(2.74058e-05 -3.74962e-06 -2.14844e-15)
(2.76496e-05 -6.33192e-06 -3.4138e-14)
(1.87118e-06 8.31535e-06 -8.23064e-17)
(2.90139e-06 8.4464e-06 -1.09e-16)
(4.11395e-06 8.47512e-06 -1.24386e-16)
(5.44925e-06 8.60228e-06 1.7105e-15)
(6.7756e-06 8.53442e-06 -6.78708e-16)
(8.34676e-06 8.50866e-06 -4.6995e-15)
(1.00488e-05 8.42551e-06 -3.75474e-15)
(1.15507e-05 7.92575e-06 1.34376e-15)
(1.29749e-05 7.14316e-06 9.59591e-15)
(1.41529e-05 6.06501e-06 9.11516e-15)
(1.5079e-05 4.8543e-06 1.28251e-14)
(1.6298e-05 3.91813e-06 -1.7957e-14)
(1.76501e-05 3.05131e-06 3.81157e-15)
(1.92347e-05 2.20382e-06 1.18129e-14)
(2.10502e-05 1.2938e-06 5.90809e-15)
(2.25941e-05 -1.53126e-08 -4.51103e-15)
(2.41527e-05 -1.54241e-06 2.35935e-14)
(2.5102e-05 -3.53322e-06 -6.90573e-15)
(2.54912e-05 -5.85623e-06 -1.85735e-15)
(1.76528e-06 7.64791e-06 9.40447e-17)
(2.72521e-06 7.77144e-06 -4.03839e-16)
(3.83621e-06 7.74162e-06 -2.35734e-16)
(5.07032e-06 7.86336e-06 2.14326e-16)
(6.30069e-06 7.80928e-06 -2.25404e-15)
(7.70993e-06 7.71047e-06 5.70294e-15)
(9.29099e-06 7.64534e-06 -2.2494e-15)
(1.07199e-05 7.27227e-06 -2.24599e-14)
(1.19405e-05 6.43128e-06 1.0773e-14)
(1.3037e-05 5.44112e-06 5.07735e-15)
(1.4015e-05 4.47482e-06 -8.72137e-15)
(1.50175e-05 3.49292e-06 -1.85858e-15)
(1.6295e-05 2.70196e-06 -2.49084e-14)
(1.77624e-05 1.96033e-06 -2.11776e-14)
(1.93112e-05 1.03343e-06 -3.03922e-14)
(2.09362e-05 -1.4276e-08 -2.11663e-14)
(2.21217e-05 -1.49135e-06 -6.42487e-15)
(2.30726e-05 -3.20531e-06 3.3125e-15)
(2.33873e-05 -5.40479e-06 -1.96693e-15)
(2.34599e-05 -7.32023e-06 1.40835e-14)
(1.65476e-06 7.04383e-06 3.8973e-16)
(2.54566e-06 7.12198e-06 -2.51361e-16)
(3.57901e-06 7.11741e-06 7.81832e-16)
(4.71109e-06 7.18377e-06 -8.62398e-16)
(5.83163e-06 7.09969e-06 -2.28484e-15)
(7.15036e-06 7.06099e-06 -1.39029e-15)
(8.59215e-06 6.96974e-06 3.94063e-15)
(9.85824e-06 6.54324e-06 -4.73362e-15)
(1.10674e-05 5.88158e-06 -1.37204e-14)
(1.20754e-05 4.97077e-06 2.11138e-14)
(1.28662e-05 3.94236e-06 -3.59106e-15)
(1.39097e-05 3.15265e-06 -1.18974e-14)
(1.50563e-05 2.40628e-06 1.06449e-14)
(1.63873e-05 1.68478e-06 1.90477e-14)
(1.79226e-05 9.10795e-07 9.77043e-15)
(1.91933e-05 -1.80204e-07 3.01797e-15)
(2.04897e-05 -1.39273e-06 3.7838e-14)
(2.11015e-05 -2.99509e-06 1.33654e-14)
(2.16131e-05 -4.65997e-06 -1.53879e-14)
(2.18576e-05 -6.08118e-06 1.08722e-14)
(1.54934e-06 6.47619e-06 5.57317e-16)
(2.37617e-06 6.55893e-06 -3.09417e-17)
(3.32491e-06 6.50632e-06 1.4446e-16)
(4.37973e-06 6.57515e-06 -1.19956e-15)
(5.40667e-06 6.51481e-06 5.16093e-15)
(6.59967e-06 6.40594e-06 -5.31321e-15)
(7.92999e-06 6.33777e-06 -2.98721e-15)
(9.14885e-06 6.01382e-06 1.58754e-14)
(1.0184e-05 5.2919e-06 -1.22088e-14)
(1.11275e-05 4.44666e-06 -4.06953e-15)
(1.19711e-05 3.6314e-06 1.29794e-14)
(1.28218e-05 2.78834e-06 4.36445e-15)
(1.39095e-05 2.10008e-06 -1.37028e-15)
(1.51462e-05 1.45108e-06 3.26908e-15)
(1.64553e-05 6.42593e-07 6.44093e-15)
(1.78556e-05 -2.22284e-07 1.24909e-14)
(1.88479e-05 -1.40849e-06 -7.52835e-15)
(1.96968e-05 -2.75624e-06 1.84304e-15)
(2.00494e-05 -3.99673e-06 2.04664e-14)
(2.02504e-05 -5.40805e-06 -3.71889e-15)
(1.44654e-06 5.94506e-06 -3.52573e-16)
(2.20873e-06 5.9999e-06 1.44066e-16)
(3.09499e-06 5.97569e-06 2.61646e-16)
(4.05609e-06 6.01219e-06 -1.6101e-16)
(4.9987e-06 5.92433e-06 -8.3328e-16)
(6.11785e-06 5.87021e-06 2.94479e-18)
(7.33356e-06 5.77732e-06 -4.14457e-15)
(8.41037e-06 5.39875e-06 6.57357e-15)
(9.44452e-06 4.83372e-06 1.13379e-14)
(1.03087e-05 4.05749e-06 -4.10369e-15)
(1.09893e-05 3.17996e-06 -6.81979e-15)
(1.18841e-05 2.49499e-06 -8.31643e-15)
(1.28528e-05 1.83579e-06 1.08669e-14)
(1.39783e-05 1.18478e-06 -5.67256e-15)
(1.52881e-05 5.17129e-07 -1.06306e-14)
(1.63927e-05 -4.07682e-07 2.03191e-15)
(1.75432e-05 -1.41378e-06 8.39927e-15)
(1.82575e-05 -2.59701e-06 -2.69687e-14)
(1.88564e-05 -3.81534e-06 -2.03452e-14)
(1.90439e-05 -4.98992e-06 1.88874e-15)
(1.35067e-06 5.43775e-06 -6.89617e-17)
(2.05399e-06 5.50367e-06 1.03307e-16)
(2.86497e-06 5.44847e-06 -2.31791e-16)
(3.75755e-06 5.49426e-06 1.0616e-15)
(4.63624e-06 5.42361e-06 -1.68237e-15)
(5.64032e-06 5.31584e-06 -3.7419e-15)
(6.77404e-06 5.23738e-06 7.94053e-15)
(7.80436e-06 4.95548e-06 -5.26923e-15)
(8.68712e-06 4.33671e-06 4.30737e-15)
(9.49628e-06 3.61779e-06 6.58207e-15)
(1.02246e-05 2.91937e-06 8.73143e-15)
(1.09507e-05 2.17869e-06 -7.97021e-15)
(1.18708e-05 1.55979e-06 -6.38288e-15)
(1.29182e-05 9.69797e-07 4.20541e-15)
(1.40325e-05 2.53708e-07 1.73393e-14)
(1.5259e-05 -5.0712e-07 4.64036e-15)
(1.62043e-05 -1.52836e-06 -1.93167e-14)
(1.70756e-05 -2.63804e-06 -6.00401e-16)
(1.76197e-05 -3.81863e-06 1.34982e-14)
(1.79356e-05 -5.07213e-06 1.19316e-14)
(1.26301e-06 4.96212e-06 3.97604e-17)
(1.90736e-06 5.00672e-06 -2.36934e-17)
(2.65754e-06 4.98424e-06 -3.11879e-16)
(3.47491e-06 5.0005e-06 -3.3519e-16)
(4.27674e-06 4.91397e-06 1.59153e-15)
(5.21909e-06 4.85775e-06 -4.38896e-16)
(6.25339e-06 4.76214e-06 3.47395e-15)
(7.16474e-06 4.43645e-06 6.66119e-15)
(8.0481e-06 3.95384e-06 -4.72913e-15)
(8.79161e-06 3.28923e-06 -9.44161e-15)
(9.37588e-06 2.52665e-06 -9.15154e-15)
(1.01405e-05 1.92247e-06 6.63306e-16)
(1.09592e-05 1.31748e-06 1.19617e-14)
(1.19067e-05 7.17977e-07 9.45289e-15)
(1.3029e-05 8.97515e-08 -1.68017e-14)
(1.39841e-05 -7.62401e-07 -1.23444e-14)
(1.50391e-05 -1.67631e-06 -6.15154e-15)
(1.5791e-05 -2.78255e-06 1.88118e-14)
(1.64747e-05 -3.96603e-06 1.55433e-14)
(1.68402e-05 -5.35177e-06 -1.09713e-14)
(1.67965e-05 -6.75408e-06 4.51693e-15)
(1.18622e-06 4.51052e-06 -2.61224e-17)
(1.7755e-06 4.56734e-06 -1.69581e-17)
(2.45758e-06 4.51866e-06 1.36819e-16)
(3.21735e-06 4.5469e-06 -9.32192e-17)
(3.95074e-06 4.48557e-06 2.61261e-15)
(4.80179e-06 4.38051e-06 -2.78321e-15)
(5.7569e-06 4.30571e-06 1.45102e-15)
(6.6376e-06 4.05933e-06 -3.86296e-15)
(7.38911e-06 3.52536e-06 4.6411e-17)
(8.08813e-06 2.903e-06 -1.27543e-15)
(8.71669e-06 2.29722e-06 -3.87917e-15)
(9.32857e-06 1.63392e-06 5.88839e-17)
(1.01042e-05 1.05835e-06 5.11233e-15)
(1.09765e-05 4.93229e-07 4.88139e-15)
(1.19132e-05 -1.96887e-07 9.14059e-15)
(1.29721e-05 -9.15661e-07 -8.63874e-15)
(1.38094e-05 -1.86962e-06 -8.7416e-15)
(1.46453e-05 -2.92642e-06 -1.02724e-14)
(1.51299e-05 -4.16087e-06 -7.8685e-15)
(1.55743e-05 -5.48431e-06 1.65322e-15)
(1.57904e-05 -6.78477e-06 -3.56274e-15)
(1.11288e-06 4.09583e-06 1.50607e-16)
(1.64945e-06 4.13373e-06 6.62446e-17)
(2.28086e-06 4.11246e-06 -4.19577e-16)
(2.96774e-06 4.12282e-06 -1.81453e-15)
(3.63967e-06 4.04509e-06 1.97743e-15)
(4.43744e-06 3.98594e-06 -1.12917e-15)
(5.30737e-06 3.89457e-06 -8.37628e-15)
(6.08315e-06 3.60396e-06 4.9244e-15)
(6.83873e-06 3.18775e-06 -2.17032e-15)
(7.4765e-06 2.61185e-06 -7.44892e-15)
(7.97662e-06 1.94361e-06 9.46027e-15)
(8.62394e-06 1.39302e-06 -2.53103e-14)
(9.29926e-06 8.2425e-07 -4.7997e-16)
(1.00813e-05 2.41205e-07 1.5138e-15)
(1.10109e-05 -3.56473e-07 4.17929e-15)
(1.18089e-05 -1.15853e-06 2.13883e-14)
(1.27171e-05 -2.01781e-06 -3.00037e-15)
(1.33774e-05 -3.08569e-06 8.50568e-15)
(1.40194e-05 -4.28886e-06 6.86467e-15)
(1.43681e-05 -5.52289e-06 -6.02185e-15)
(1.44504e-05 -6.98321e-06 1.13514e-14)
(1.04228e-06 3.71422e-06 1.2576e-17)
(1.53398e-06 3.75819e-06 -1.60903e-17)
(2.1065e-06 3.71447e-06 2.72569e-16)
(2.7408e-06 3.73416e-06 -1.17756e-15)
(3.36402e-06 3.67218e-06 -1.23876e-16)
(4.07637e-06 3.57438e-06 5.79478e-15)
(4.8871e-06 3.49407e-06 -1.04746e-15)
(5.62923e-06 3.2761e-06 -2.28658e-15)
(6.26819e-06 2.81233e-06 1.12335e-14)
(6.86369e-06 2.27166e-06 -1.02769e-14)
(7.3999e-06 1.73379e-06 1.69857e-14)
(7.90873e-06 1.1269e-06 5.46182e-15)
(8.54353e-06 5.81963e-07 -2.93268e-14)
(9.25229e-06 3.92464e-08 5.21663e-15)
(1.00101e-05 -6.11495e-07 1.27361e-14)
(1.08845e-05 -1.29049e-06 7.0157e-15)
(1.15685e-05 -2.19342e-06 -6.02671e-15)
(1.22538e-05 -3.21374e-06 4.13441e-15)
(1.27103e-05 -4.38458e-06 -2.40284e-15)
(1.31039e-05 -5.73015e-06 -1.03496e-14)
(1.32393e-05 -7.12693e-06 9.07942e-15)
(9.72421e-07 3.37241e-06 5.0586e-17)
(1.42336e-06 3.39438e-06 -4.79685e-17)
(1.95052e-06 3.37256e-06 2.74499e-16)
(2.52751e-06 3.36941e-06 1.20053e-15)
(3.09335e-06 3.29504e-06 1.92431e-15)
(3.75974e-06 3.23681e-06 -1.06514e-15)
(4.49538e-06 3.14291e-06 5.71112e-15)
(5.14753e-06 2.88739e-06 -5.59131e-17)
(5.7886e-06 2.52252e-06 3.94719e-15)
(6.3303e-06 2.01553e-06 1.19311e-14)
(6.74921e-06 1.41677e-06 -2.77185e-15)
(7.28571e-06 9.09881e-07 1.6977e-14)
(7.8301e-06 3.70634e-07 -4.00647e-17)
(8.45389e-06 -1.81256e-07 -1.98492e-14)
(9.20299e-06 -7.55975e-07 -5.46181e-16)
(9.82888e-06 -1.51107e-06 -8.86018e-15)
(1.05554e-05 -2.32616e-06 -1.78081e-14)
(1.10723e-05 -3.32546e-06 -8.87752e-15)
(1.1545e-05 -4.46947e-06 -4.84081e-15)
(1.18015e-05 -5.73125e-06 6.79214e-15)
(1.19454e-05 -7.05803e-06 5.10548e-15)
(9.0625e-07 3.05949e-06 6.22461e-17)
(1.32121e-06 3.084e-06 -2.78506e-17)
(1.79946e-06 3.03749e-06 -4.01819e-16)
(2.33446e-06 3.04007e-06 -3.99637e-17)
(2.84869e-06 2.98289e-06 -2.16625e-15)
(3.44645e-06 2.8866e-06 -7.29884e-16)
(4.12291e-06 2.80656e-06 8.00832e-16)
(4.75179e-06 2.60797e-06 -2.67732e-15)
(5.28946e-06 2.19741e-06 -5.17432e-15)
(5.79565e-06 1.71475e-06 5.077e-15)
(6.24419e-06 1.23123e-06 -7.54299e-15)
(6.65318e-06 6.73495e-07 -2.03394e-14)
(7.16045e-06 1.58866e-07 1.51996e-14)
(7.7137e-06 -3.5918e-07 1.21882e-14)
(8.30287e-06 -9.78438e-07 6.70008e-15)
(8.99252e-06 -1.6146e-06 -1.42789e-15)
(9.50649e-06 -2.44538e-06 2.64285e-15)
(1.00127e-05 -3.377e-06 3.52208e-15)
(1.03174e-05 -4.43743e-06 -6.69494e-15)
(1.06226e-05 -5.59397e-06 -2.83242e-15)
(1.08184e-05 -6.80751e-06 -3.30412e-15)
(1.06826e-05 -8.10994e-06 -6.95446e-15)
(8.39372e-07 2.77781e-06 5.81878e-17)
(1.22048e-06 2.78236e-06 3.73131e-17)
(1.66422e-06 2.75065e-06 1.99143e-16)
(2.14591e-06 2.73608e-06 -3.89236e-16)
(2.6152e-06 2.66361e-06 -2.03755e-15)
(3.17314e-06 2.59976e-06 -3.07583e-15)
(3.78449e-06 2.50499e-06 2.19926e-15)
(4.33328e-06 2.26876e-06 -1.15926e-15)
(4.87354e-06 1.94322e-06 4.9771e-16)
(5.32712e-06 1.49137e-06 -5.64064e-15)
(5.67181e-06 9.54518e-07 -6.49697e-15)
(6.10524e-06 4.84618e-07 -1.40658e-14)
(6.52608e-06 -1.89863e-08 -8.58714e-15)
(7.00448e-06 -5.41502e-07 1.08702e-14)
(7.57739e-06 -1.0718e-06 -1.98959e-15)
(8.04152e-06 -1.75895e-06 9.25971e-15)
(8.59392e-06 -2.48821e-06 4.35001e-15)
(8.96288e-06 -3.36494e-06 -1.32251e-14)
(9.29926e-06 -4.34122e-06 -1.35465e-14)
(9.44413e-06 -5.36861e-06 2.3906e-14)
(9.62165e-06 -6.46934e-06 -2.85513e-17)
(9.59314e-06 -7.70954e-06 -6.67306e-15)
(7.73515e-07 2.51675e-06 3.72358e-18)
(1.12531e-06 2.52336e-06 2.58404e-17)
(1.52838e-06 2.47043e-06 -4.65256e-17)
(1.97302e-06 2.45864e-06 7.99415e-16)
(2.40623e-06 2.39459e-06 -2.77568e-16)
(2.90048e-06 2.29913e-06 2.68359e-15)
(3.46742e-06 2.20991e-06 -3.68178e-15)
(3.98891e-06 2.02564e-06 3.80847e-15)
(4.43714e-06 1.66062e-06 -1.49665e-15)
(4.85664e-06 1.23242e-06 1.10685e-14)
(5.22401e-06 7.96499e-07 6.09852e-15)
(5.54493e-06 2.877e-07 5.85792e-15)
(5.93462e-06 -1.87794e-07 -4.00936e-15)
(6.34987e-06 -6.62992e-07 -4.39622e-15)
(6.78357e-06 -1.22012e-06 2.47156e-15)
(7.29908e-06 -1.78593e-06 -7.53528e-15)
(7.66525e-06 -2.51348e-06 6.27796e-16)
(8.02861e-06 -3.31855e-06 1.09176e-14)
(8.2541e-06 -4.21041e-06 -4.89668e-16)
(8.4977e-06 -5.16208e-06 -2.00708e-14)
(8.5412e-06 -6.17925e-06 2.90811e-15)
(8.34391e-06 -7.38772e-06 -8.84046e-16)
(7.09409e-07 2.27792e-06 -7.49872e-17)
(1.03269e-06 2.26854e-06 9.37869e-17)
(1.40439e-06 2.22947e-06 -2.37475e-16)
(1.80771e-06 2.19798e-06 1.0591e-15)
(2.19962e-06 2.12151e-06 -3.26731e-16)
(2.65957e-06 2.05206e-06 2.27289e-15)
(3.1686e-06 1.94994e-06 3.92993e-15)
(3.62111e-06 1.73488e-06 -1.56847e-15)
(4.06897e-06 1.4428e-06 -5.11627e-15)
(4.44175e-06 1.04075e-06 -3.92247e-15)
(4.71692e-06 5.61111e-07 1.33391e-14)
(5.05831e-06 1.37505e-07 -4.41303e-15)
(5.37588e-06 -3.18594e-07 4.04174e-15)
(5.72792e-06 -7.84973e-07 -1.12344e-17)
(6.15203e-06 -1.25945e-06 8.6535e-15)
(6.47179e-06 -1.85991e-06 7.76006e-15)
(6.87039e-06 -2.4926e-06 -3.8314e-15)
(7.12007e-06 -3.2374e-06 -1.56868e-15)
(7.36018e-06 -4.05407e-06 6.89169e-16)
(7.45092e-06 -4.93181e-06 7.5983e-15)
(7.51564e-06 -5.91929e-06 -3.42757e-16)
(7.32858e-06 -6.9772e-06 -3.93551e-15)
(6.51063e-07 2.05286e-06 3.18831e-17)
(9.46573e-07 2.04869e-06 1.07279e-16)
(1.28274e-06 1.99193e-06 -6.8058e-16)
(1.6563e-06 1.96306e-06 -1.21142e-15)
(2.01007e-06 1.89651e-06 2.96713e-16)
(2.41917e-06 1.79627e-06 1.30538e-15)
(2.88357e-06 1.70143e-06 -2.56419e-15)
(3.31566e-06 1.52643e-06 7.17803e-16)
(3.68182e-06 1.19921e-06 9.2635e-16)
(4.0258e-06 8.16943e-07 -2.95269e-15)
(4.31987e-06 4.31205e-07 -4.91299e-15)
(4.56317e-06 -1.94854e-08 1.29645e-15)
(4.85703e-06 -4.41105e-07 -2.59144e-15)
(5.1573e-06 -8.59427e-07 -4.92264e-15)
(5.46292e-06 -1.34729e-06 -1.32353e-14)
(5.83113e-06 -1.83337e-06 -7.23715e-15)
(6.06832e-06 -2.4474e-06 -2.16326e-15)
(6.31597e-06 -3.11942e-06 4.18601e-15)
(6.45367e-06 -3.85227e-06 3.42257e-15)
(6.60443e-06 -4.66341e-06 -6.03909e-15)
(6.54914e-06 -5.54656e-06 1.34979e-15)
(6.30254e-06 -6.57498e-06 4.20754e-15)
(5.96341e-07 1.84602e-06 3.28078e-17)
(8.64213e-07 1.83295e-06 -5.35708e-17)
(1.17431e-06 1.78983e-06 4.22942e-16)
(1.50835e-06 1.7491e-06 -8.03668e-16)
(1.82977e-06 1.67e-06 2.38576e-16)
(2.20871e-06 1.59108e-06 -2.90015e-15)
(2.62267e-06 1.48255e-06 -4.6483e-15)
(2.99331e-06 1.27741e-06 2.6706e-15)
(3.35873e-06 1.0127e-06 8.59626e-15)
(3.65794e-06 6.56183e-07 2.93912e-16)
(3.8727e-06 2.36963e-07 2.99589e-15)
(4.13672e-06 -1.35123e-07 -9.51108e-15)
(4.3682e-06 -5.29954e-07 -4.49412e-15)
(4.62069e-06 -9.32959e-07 -1.83773e-16)
(4.91843e-06 -1.33013e-06 1.22157e-14)
(5.12298e-06 -1.83031e-06 2.58171e-15)
(5.38959e-06 -2.34604e-06 -1.55551e-15)
(5.53891e-06 -2.94794e-06 1.07011e-14)
(5.68083e-06 -3.6162e-06 -1.88995e-15)
(5.68923e-06 -4.3444e-06 6.85037e-15)
(5.65826e-06 -5.201e-06 -5.39126e-15)
(5.48108e-06 -5.98974e-06 -7.67216e-15)
(5.46739e-07 1.65748e-06 4.80797e-17)
(7.88673e-07 1.65136e-06 5.07866e-18)
(1.06753e-06 1.59746e-06 2.27991e-16)
(1.37457e-06 1.56065e-06 1.56337e-15)
(1.66911e-06 1.48727e-06 8.67699e-16)
(2.00129e-06 1.38407e-06 -3.25494e-15)
(2.38156e-06 1.2772e-06 4.95496e-15)
(2.7287e-06 1.10784e-06 -4.81653e-15)
(3.02197e-06 8.1341e-07 4.80467e-15)
(3.29423e-06 4.76329e-07 -2.34261e-15)
(3.52329e-06 1.39208e-07 1.10898e-15)
(3.70479e-06 -2.49874e-07 6.5753e-15)
(3.9207e-06 -6.0878e-07 -1.16073e-14)