/*--------------------------------*- C++ -*----------------------------------*\
| =========                 |                                                 |
| \\      /  F ield         | OpenFOAM: The Open Source CFD Toolbox           |
|  \\    /   O peration     | Version:  2306                                  |
|   \\  /    A nd           | Website:  www.openfoam.com                      |
|    \\/     M anipulation  |                                                 |
\*---------------------------------------------------------------------------*/
FoamFile
{
    version     2.0;
    format      ascii;
    arch        "LSB;label=32;scalar=64";
    class       surfaceScalarField;
    location    "0.01";
    object      phi;
}
// * * * * * * * * * * * * * * * * * * * * * * * * * * * * * * * * * * * * * //

dimensions      [1 0 -1 0 0 0 0];

oriented        oriented;

internalField   nonuniform List<scalar> 
39600
(
-1.7093112e-05
-0.0031978968
0.0032149155
-3.8305208e-05
-0.0045677865
0.0045889261
-6.3470768e-05
-0.006040442
0.0060655136
-9.3474067e-05
-0.007814054
0.0078439697
-0.00013182181
-0.0099803354
0.010018575
-0.00019638091
-0.012574549
0.012638993
-0.00031785785
-0.015304138
0.015425495
-0.00046969831
-0.018330282
0.018481985
-0.00065135631
-0.021924941
0.022106436
-0.00086884158
-0.026242282
0.026459577
-0.0011294244
-0.031388204
0.031648563
-0.0014422676
-0.037550603
0.037863183
-0.0018179421
-0.044902459
0.045277825
-0.0022698325
-0.053689828
0.054141357
-0.0028135863
-0.064172247
0.064715575
-0.0034690358
-0.076682772
0.077337726
-0.0042594594
-0.091596555
0.092386404
-0.0052137985
-0.1093725
0.11032615
-0.0063665469
-0.13054441
0.13169636
-0.0077607628
-0.15575261
0.1571459
-0.0094466974
-0.18575722
0.18744207
-0.011484906
-0.22147039
0.22350734
-0.013945996
-0.2639932
0.26645285
-0.0169107
-0.31466469
0.31762776
-0.020470306
-0.37512706
0.37868484
-0.024724599
-0.44739968
0.45165202
-0.029785486
-0.53396267
0.53902148
-0.035778613
-0.63783628
0.64382743
-0.042838251
-0.76269777
0.76975546
-0.051136129
-0.91294936
0.92124552
-0.060877511
-1.0938313
1.1035707
-0.072303267
-1.3115959
1.3230181
-0.085698457
-1.5736922
1.5870815
-0.10138749
-1.8889642
1.9046461
-0.11973452
-2.2679257
2.2862617
-0.14113728
-2.7230688
2.7444514
-0.16598491
-3.2693684
3.294189
-0.19464355
-3.9248077
3.9534397
-0.22739576
-4.7107657
4.7434853
-0.26439004
-5.6531822
5.6901239
-0.30545
-6.7825438
6.8235928
-0.35003624
-8.1359722
8.1805037
-0.39651247
-9.7601694
9.8064243
-0.44315441
-11.707556
11.754035
-0.48475602
-14.038223
14.080125
-0.51417514
-16.837709
16.867634
-0.52268281
-20.209142
20.217464
-0.49263029
-24.257321
24.226508
-0.39807618
-29.121128
29.025854
-34.969079
34.771276
-1.5885972e-05
-0.0031819851
-3.6469242e-05
-0.0045472198
-6.1463866e-05
-0.0060154696
-9.1813806e-05
-0.0077837747
-0.0001307295
-0.0099414923
-0.00019785282
-0.012507535
-0.00031710089
-0.015184995
-0.00046364726
-0.018183867
-0.00063981932
-0.021748924
-0.00085140434
-0.026030886
-0.0011056498
-0.031134179
-0.0014114363
-0.037245078
-0.0017790752
-0.044535127
-0.0022218208
-0.053247444
-0.0027549376
-0.063639555
-0.0033980586
-0.076040152
-0.004174038
-0.090821163
-0.0051119296
-0.10843529
-0.0062460208
-0.12941113
-0.0076185409
-0.15438103
-0.0092797639
-0.18409709
-0.011290048
-0.21946137
-0.013719087
-0.26156562
-0.016647122
-0.3117383
-0.020163455
-0.37161257
-0.024366175
-0.44319895
-0.029364765
-0.52896616
-0.035279792
-0.63192329
-0.042240735
-0.75573871
-0.050420915
-0.90477091
-0.06001606
-1.0842381
-0.071264108
-1.3003513
-0.084445885
-1.560516
-0.099879803
-1.8735369
-0.11792668
-2.2498885
-0.13898292
-2.7020311
-0.16343682
-3.2449405
-0.19165501
-3.8966161
-0.22392904
-4.678524
-0.26042353
-5.6167386
-0.30098214
-6.7419961
-0.34512373
-8.0918898
-0.39135571
-9.7141553
-0.43790771
-11.661159
-0.47983158
-13.996
-0.51040063
-16.80666
-0.52111609
-20.198616
-0.49504496
-24.284149
-0.40716394
-29.209714
-35.156199
-1.5457756e-05
-0.003166594
-3.5006648e-05
-0.0045277465
-5.8674761e-05
-0.0059918872
-8.7327258e-05
-0.0077552204
-0.00012389514
-0.0099050283
-0.00019121317
-0.012440335
-0.00031091373
-0.01506541
-0.00045484993
-0.01804007
-0.00062766734
-0.021576269
-0.00083514332
-0.025823603
-0.0010842886
-0.03088526
-0.0013839802
-0.036945653
-0.0017443485
-0.044175071
-0.0021786103
-0.05281355
-0.0027018354
-0.063116764
-0.0033334683
-0.075409029
-0.0040963019
-0.090058932
-0.0050190131
-0.10751329
-0.0061358045
-0.12829516
-0.0074888593
-0.15302894
-0.0091282646
-0.18245881
-0.011113524
-0.21747742
-0.013514679
-0.25916597
-0.016410268
-0.30884441
-0.019888311
-0.36813643
-0.024044788
-0.43904452
-0.028986951
-0.52402614
-0.034828976
-0.62608338
-0.041699642
-0.74887
-0.04976891
-0.89670344
-0.059226425
-1.0747827
-0.070307283
-1.289274
-0.083288264
-1.5475407
-0.098483839
-1.8583473
-0.11625077
-2.23213
-0.13698111
-2.6813177
-0.16106807
-3.2208787
-0.18887921
-3.8688313
-0.22071445
-4.646721
-0.25675287
-5.5807494
-0.29686641
-6.701893
-0.34060897
-8.0482135
-0.38667303
-9.6682974
-0.43321759
-11.614776
-0.47555441
-13.953369
-0.5073652
-16.774396
-0.5203645
-20.185801
-0.49841094
-24.306854
-0.41729492
-29.291513
-35.332537
-1.4806921e-05
-0.0031518395
-3.350881e-05
-0.004509115
-5.6129325e-05
-0.0059693479
-8.3576806e-05
-0.0077278682
-0.00011843407
-0.0098702816
-0.00018646287
-0.012372424
-0.00030545369
-0.014946547
-0.00044618241
-0.017899482
-0.00061521924
-0.021407402
-0.00081832524
-0.025620692
-0.0010623485
-0.030641467
-0.0013561249
-0.036652148
-0.0017095844
-0.043821929
-0.0021358107
-0.052387701
-0.0026497142
-0.062603304
-0.0032706058
-0.074788664
-0.0040211031
-0.089309052
-0.0049295658
-0.10660555
-0.006030508
-0.12719507
-0.0073653826
-0.15169506
-0.0089845885
-0.18084077
-0.0109476
-0.21551576
-0.013323168
-0.25679194
-0.016189697
-0.30597964
-0.019633235
-0.36469484
-0.023747611
-0.43493226
-0.028637928
-0.51913804
-0.034411064
-0.6203124
-0.04119991
-0.74208318
-0.049163979
-0.88874123
-0.058492708
-1.0654561
-0.069416952
-1.2783535
-0.082210155
-1.5347531
-0.097182369
-1.8433806
-0.11468913
-2.2146305
-0.13511848
-2.6609038
-0.15886736
-3.1971543
-0.18630342
-3.8414214
-0.21773822
-4.6153182
-0.25336635
-5.5451689
-0.29308661
-6.662183
-0.3364874
-8.0048858
-0.38244299
-9.622534
-0.42907213
-11.568302
-0.47192897
-13.910217
-0.50507718
-16.740827
-0.52049182
-20.17057
-0.50273806
-24.325354
-0.42847482
-29.366448
-35.498015
-1.4192658e-05
-0.0031377555
-3.2014615e-05
-0.0044913899
-5.3478114e-05
-0.0059480005
-7.9578386e-05
-0.0077018698
-0.00011273374
-0.0098372504
-0.00018147688
-0.012303797
-0.00029711288
-0.014831037
-0.00043512666
-0.017761608
-0.00060092307
-0.021241777
-0.00080021786
-0.025421595
-0.0010396882
-0.030402232
-0.0013281221
-0.03636399
-0.0016752292
-0.043475149
-0.0020940619
-0.051969254
-0.0025992978
-0.062098527
-0.0032101823
-0.074178318
-0.0039491726
-0.088570697
-0.0048447833
-0.10571068
-0.0059308823
-0.12610985
-0.0072496418
-0.15037733
-0.0088508598
-0.17924075
-0.01079387
-0.21357414
-0.013147186
-0.25444023
-0.015988047
-0.30314059
-0.019401194
-0.36128372
-0.023478712
-0.43085693
-0.028321369
-0.51429768
-0.03403184
-0.61460416
-0.040744353
-0.73537276
-0.048611019
-0.88087647
-0.057819532
-1.0562499
-0.068598277
-1.2675786
-0.081216986
-1.5221403
-0.095983292
-1.8286196
-0.11324731
-2.1973726
-0.1333995
-2.6407657
-0.1568369
-3.1737405
-0.18393314
-3.8143511
-0.21500697
-4.5842762
-0.25027303
-5.5099487
-0.28965664
-6.6228097
-0.33278548
-7.9618343
-0.37869109
-9.5768062
-0.42548477
-11.521652
-0.46896913
-13.866443
-0.50355417
-16.705845
-0.52147842
-20.152826
-0.50803062
-24.339542
-0.44076372
-29.434379
-35.652504
-1.3640673e-05
-0.0031241151
-3.0689498e-05
-0.0044743758
-5.1112877e-05
-0.0059276203
-7.6129326e-05
-0.007676934
-0.00010806554
-0.009805405
-0.00017799707
-0.012233979
-0.0002906071
-0.014718544
-0.00042619329
-0.017626167
-0.00058898586
-0.021079154
-0.00078472054
-0.025226065
-0.0010199151
-0.030167276
-0.0013032854
-0.036080905
-0.001644437
-0.043134332
-0.0020563043
-0.051557784
-0.002553461
-0.06160184
-0.003155067
-0.073577268
-0.0038834592
-0.087842957
-0.00476723
-0.10482768
-0.0058401826
-0.12503779
-0.0071444151
-0.14907416
-0.0087296157
-0.17765679
-0.010655341
-0.21164985
-0.012989488
-0.25210773
-0.015808621
-0.30032332
-0.019195312
-0.35789911
-0.023240824
-0.42681367
-0.028040581
-0.50950027
-0.03369379
-0.60895324
-0.04033632
-0.72873238
-0.048112971
-0.87310179
-0.057210416
-1.0471548
-0.067854319
-1.2569388
-0.080311944
-1.5096887
-0.094887978
-1.8140487
-0.11193007
-2.1803357
-0.13183111
-2.6208779
-0.15498702
-3.1506079
-0.18177648
-3.7875873
-0.21252985
-4.5535543
-0.24747849
-5.4750443
-0.28658423
-6.5837142
-0.32951411
-7.9189842
-0.37542709
-9.5310583
-0.42247365
-11.474736
-0.46668996
-13.821943
-0.50281983
-16.669332
-0.52339298
-20.132427
-0.51438199
-24.349287
-0.45420866
-29.495207
-35.795922
-1.3169431e-05
-0.0031110184
-2.9465559e-05
-0.0044581517
-4.8819716e-05
-0.005908356
-7.2663341e-05
-0.007653185
-0.00010361268
-0.0097745629
-0.00017459527
-0.012163107
-0.00028556744
-0.014607686
-0.00041862054
-0.017493258
-0.0005784088
-0.020919536
-0.0007706663
-0.025034015
-0.0010017095
-0.029936478
-0.0012802923
-0.035802614
-0.0016157907
-0.042799179
-0.0020211276
-0.051152855
-0.0025107728
-0.06111268
-0.0031038078
-0.072984802
-0.0038225106
-0.087124927
-0.0046954812
-0.1039555
-0.0057568035
-0.1239774
-0.0070482689
-0.14778378
-0.008620086
-0.17608624
-0.010531092
-0.20974033
-0.012849352
-0.24979117
-0.015650179
-0.29752443
-0.019014986
-0.35453647
-0.023032889
-0.4227981
-0.027793363
-0.50474222
-0.033397758
-0.60335121
-0.039975331
-0.72215699
-0.047669869
-0.86540925
-0.056665158
-1.0381619
-0.067185271
-1.2464231
-0.079495777
-1.4973845
-0.093898744
-1.7996505
-0.11074074
-2.1634978
-0.13041202
-2.601219
-0.15331413
-3.1277292
-0.17983418
-3.7610937
-0.21030874
-4.5231116
-0.24499159
-5.440404
-0.28387454
-6.5448416
-0.32667605
-7.8762637
-0.372663
-9.4852247
-0.42005017
-11.427472
-0.46510654
-13.776613
-0.50289202
-16.631174
-0.52624585
-20.109246
-0.5217794
-24.354474
-0.4688435
-29.548788
-35.928119
-1.2705872e-05
-0.0030983441
-2.8232526e-05
-0.0044426818
-4.6454012e-05
-0.0058901945
-6.9056161e-05
-0.0076306689
-9.9434182e-05
-0.0097442815
-0.00017183235
-0.012090823
-0.00028077169
-0.014498868
-0.00041147383
-0.017362708
-0.00056838659
-0.0207628
-0.00075731969
-0.024845297
-0.00098441717
-0.029709632
-0.0012584327
-0.0355289
-0.0015886226
-0.042469343
-0.0019878949
-0.050754003
-0.0024706118
-0.06063046
-0.0030558442
-0.072400158
-0.0037660578
-0.086415403
-0.0046294139
-0.10309296
-0.0056804115
-0.12292736
-0.006961047
-0.14650427
-0.0085214675
-0.17452714
-0.010420977
-0.20784234
-0.012726816
-0.24748708
-0.015513169
-0.29474006
-0.018860306
-0.35119155
-0.022855105
-0.41880571
-0.027581354
-0.50001844
-0.033143291
-0.5977917
-0.039662256
-0.71564027
-0.047281897
-0.85779165
-0.056184577
-1.0292617
-0.066592512
-1.2360197
-0.078769494
-1.4852141
-0.093015358
-1.7854092
-0.10967675
-2.1468395
-0.12914528
-2.5817619
-0.15182698
-3.1050711
-0.17811052
-3.7348374
-0.20834785
-4.4929071
-0.24281524
-5.4059787
-0.28153504
-6.5061323
-0.32428184
-7.8335987
-0.37041264
-9.4392365
-0.41823474
-11.379767
-0.46423967
-13.730348
-0.50379607
-16.591256
-0.53004799
-20.083168
-0.5302948
-24.354935
-0.48472704
-29.59499
-36.048975
-1.2150998e-05
-0.0030862512
-2.6825928e-05
-0.004428076
-4.3819631e-05
-0.0058732904
-6.4954757e-05
-0.0076096352
-9.4988977e-05
-0.0097143636
-0.000169222
-0.012016706
-0.00027612681
-0.014392091
-0.00040445109
-0.017234537
-0.0005586037
-0.020608832
-0.00074436612
-0.024659755
-0.00096775424
-0.029486503
-0.0012375308
-0.035259432
-0.0015628278
-0.042144412
-0.0019565524
-0.05036071
-0.0024329672
-0.060154558
-0.0030112128
-0.071822516
-0.0037135779
-0.085713751
-0.0045689031
-0.10223847
-0.0056111705
-0.12188608
-0.0068830814
-0.14523351
-0.0084347499
-0.17297683
-0.010325467
-0.2059532
-0.01262217
-0.2451922
-0.015398319
-0.29196597
-0.018732684
-0.34785948
-0.022708484
-0.41483238
-0.027406089
-0.49532338
-0.032930855
-0.59226943
-0.039397809
-0.70917558
-0.04695061
-0.8502409
-0.055769842
-1.0204451
-0.066077161
-1.2257172
-0.078135038
-1.473163
-0.092243116
-1.7713054
-0.10874478
-2.1303397
-0.12803637
-2.5624808
-0.15052519
-3.0826061
-0.17660953
-3.7087811
-0.20665576
-4.4628948
-0.24095573
-5.3717204
-0.279575
-6.467524
-0.32233685
-7.7909215
-0.36869256
-9.3930142
-0.41703749
-11.331535
-0.46410371
-13.683037
-0.50555254
-16.549462
-0.53484453
-20.054054
-0.53994026
-24.350534
-0.50190558
-29.633647
-36.158338
-1.1605702e-05
-0.003074675
-2.5499164e-05
-0.0044142429
-4.1295424e-05
-0.0058575571
-6.095509e-05
-0.0075900664
-9.124163e-05
-0.009684182
-0.00016759506
-0.011940472
-0.00027269878
-0.01428712
-0.00039898611
-0.017108412
-0.00055065193
-0.020457357
-0.00073357482
-0.02447706
-0.00095359438
-0.029266753
-0.0012195191
-0.034993826
-0.0015403507
-0.041823956
-0.0019290149
-0.049972491
-0.0023998106
-0.059684289
-0.0029718489
-0.071251102
-0.0036676715
-0.08501866
-0.0045159532
-0.10139105
-0.0055513553
-0.12085169
-0.006816461
-0.1439696
-0.0083619642
-0.17143272
-0.010247005
-0.20406979
-0.012538245
-0.24290282
-0.015308034
-0.28919829
-0.018634523
-0.34453536
-0.022595959
-0.41087348
-0.027269947
-0.49065201
-0.032763338
-0.58677859
-0.039184973
-0.70275625
-0.0466788
-0.84274915
-0.055424384
-1.0117022
-0.065642854
-1.2155038
-0.077596224
-1.4612168
-0.091582757
-1.7573229
-0.1079479
-2.1139754
-0.12708601
-2.5433522
-0.1494152
-3.0603009
-0.17533879
-3.6828865
-0.20523643
-4.4330322
-0.23942478
-5.3375733
-0.27800098
-6.4289591
-0.32085089
-7.7481604
-0.36750508
-9.3464874
-0.41648213
-11.282661
-0.46472274
-13.634564
-0.50818437
-16.505672
-0.54067958
-20.021741
-0.55077053
-24.341125
-0.52041386
-29.664622
-36.256021
-1.134541e-05
-0.0030633915
-2.4691955e-05
-0.004400975
-3.9538942e-05
-0.0058428096
-5.7850708e-05
-0.0075718676
-8.9197298e-05
-0.0096529635
-0.00016763874
-0.011862156
-0.000271084
-0.014183817
-0.00039547251
-0.01698419
-0.00054482485
-0.020308206
-0.00072508044
-0.02429704
-0.00094196698
-0.029050144
-0.0012043346
-0.034731785
-0.0015211301
-0.041507548
-0.0019052999
-0.049588779
-0.0023711422
-0.05921899
-0.0029378743
-0.070685009
-0.0036281404
-0.084329151
-0.0044708875
-0.10054919
-0.0055011144
-0.11982251
-0.0067616445
-0.14271031
-0.0083035205
-0.16989229
-0.010186069
-0.20218892
-0.012475571
-0.24061525
-0.015243454
-0.2864326
-0.018566055
-0.3412152
-0.022516405
-0.40692573
-0.027175442
-0.48599566
-0.03264161
-0.58131501
-0.039024869
-0.69637531
-0.046467659
-0.83530843
-0.055149497
-1.0030231
-0.065291174
-1.2053674
-0.077155006
-1.4493604
-0.091038902
-1.7434427
-0.10728922
-2.0977246
-0.12630306
-2.524347
-0.14850352
-3.0381248
-0.17430472
-3.6571151
-0.20409737
-4.4032756
-0.23822767
-5.3034836
-0.27682771
-6.3903704
-0.31983696
-7.7052431
-0.36687602
-9.2995706
-0.41658447
-11.233042
-0.46611822
-13.584805
-0.51172217
-16.459746
-0.54756276
-19.98609
-0.56281816
-24.326541
-0.54034598
-29.687708
-36.341877
-1.0631094e-05
-0.0030528342
-2.3053195e-05
-0.0043886434
-3.665209e-05
-0.0058293089
-5.3161875e-05
-0.0075554645
-8.5731239e-05
-0.0096205231
-0.00016603347
-0.011781981
-0.0002677525
-0.014082249
-0.00039023556
-0.01686188
-0.00053738918
-0.02016126
-0.00071518713
-0.024119482
-0.00092921835
-0.028836399
-0.0011884142
-0.034472926
-0.0015016197
-0.04119474
-0.0018818799
-0.049208991
-0.0023435358
-0.058757892
-0.0029058928
-0.070123313
-0.0035918543
-0.083643965
-0.0044305234
-0.099711435
-0.0054574559
-0.11879666
-0.006715713
-0.14145332
-0.0082569558
-0.16835253
-0.010140281
-0.20030732
-0.01243186
-0.23832565
-0.015201823
-0.28366488
-0.018525397
-0.33789414
-0.022469799
-0.40298399
-0.027118803
-0.4813494
-0.032563715
-0.57587274
-0.038915521
-0.69002584
-0.046315625
-0.82791041
-0.054943524
-0.99439798
-0.065021079
-1.1952955
-0.076810557
-1.4375788
-0.090610442
-1.7296463
-0.10676727
-2.0815661
-0.12568484
-2.5054371
-0.14778973
-3.0160446
-0.17350565
-3.6314299
-0.20324388
-4.3735744
-0.23736955
-5.2693977
-0.27605799
-6.3516932
-0.31930582
-7.6620907
-0.36681642
-9.252178
-0.41736224
-11.182579
-0.46831195
-13.533637
-0.51618947
-16.411547
-0.55555065
-19.946934
-0.57612938
-24.306642
-0.56171163
-29.702736
-36.415686
-1.035105e-05
-0.0030425841
-2.2283793e-05
-0.004376811
-3.5103446e-05
-0.0058166142
-5.0114452e-05
-0.0075405757
-8.4666299e-05
-0.0095861138
-0.00016714672
-0.011699629
-0.00026747525
-0.013982077
-0.00038841376
-0.016741115
-0.00053364977
-0.020016238
-0.00070930936
-0.023944069
-0.00092084857
-0.028625154
-0.0011772852
-0.034216835
-0.0014874668
-0.040884969
-0.0018644727
-0.04883247
-0.002322737
-0.058300204
-0.0028817403
-0.069564988
-0.0035645996
-0.082961906
-0.0044008618
-0.098876114
-0.0054261816
-0.11777245
-0.0066846358
-0.14019618
-0.008227923
-0.16681078
-0.010115681
-0.19842135
-0.012413102
-0.23603028
-0.015190569
-0.28088974
-0.018518787
-0.33456849
-0.022462336
-0.39904316
-0.027106191
-0.47670835
-0.032535961
-0.57044564
-0.038863003
-0.68370112
-0.046228831
-0.82054663
-0.054813429
-0.98581625
-0.064839476
-1.1852753
-0.076570393
-1.4258561
-0.090305599
-1.7159142
-0.10639314
-2.0654756
-0.12524128
-2.4865958
-0.14728487
-2.994026
-0.17295845
-3.605788
-0.20268689
-4.3438841
-0.23686712
-5.2352565
-0.27570952
-6.3128618
-0.3192747
-7.6186235
-0.36734729
-9.2042188
-0.41883815
-11.131161
-0.47132811
-13.480932
-0.5216203
-16.360934
-0.56464888
-19.904131
-0.59075916
-24.281227
-0.58458843
-29.709539
-36.477253
-9.9217682e-06
-0.0030327182
-2.1296736e-05
-0.0043655169
-3.333774e-05
-0.0058046599
-4.6733326e-05
-0.0075272861
-8.3181531e-05
-0.0095497893
-0.00016590398
-0.011617036
-0.00026486613
-0.013883272
-0.00038427472
-0.016621889
-0.00052781347
-0.019872919
-0.00070160424
-0.023770532
-0.00091106582
-0.028415996
-0.0011652669
-0.033962991
-0.0014730235
-0.040577635
-0.0018474868
-0.048458509
-0.0023032579
-0.057845024
-0.0028599443
-0.069009
-0.003541019
-0.082281652
-0.0043764216
-0.098041682
-0.0054024753
-0.11674755
-0.0066634605
-0.13893654
-0.0082119225
-0.1652639
-0.010107511
-0.19652759
-0.012415305
-0.23372458
-0.015204263
-0.27810317
-0.018541203
-0.33123419
-0.022490041
-0.39509712
-0.02713341
-0.47206784
-0.032554294
-0.56502746
-0.038863644
-0.6773941
-0.046203649
-0.81320866
-0.054755527
-0.97726732
-0.064743358
-1.1752937
-0.076431808
-1.4141762
-0.090121753
-1.7022272
-0.10616407
-2.0494292
-0.12497185
-2.4677941
-0.14698952
-2.9720337
-0.17265891
-3.5801511
-0.20243019
-4.3141519
-0.23672071
-5.2010041
-0.27578838
-6.2738045
-0.31975057
-7.5747603
-0.36848162
-9.1555964
-0.42102744
-11.07868
-0.47518946
-13.426563
-0.52804145
-16.307761
-0.57492605
-19.857483
-0.60673748
-24.25013
-0.60904
-29.707889
-36.52638
-9.4340543e-06
-0.0030233648
-2.0256759e-05
-0.0043547889
-3.1663657e-05
-0.0057933709
-4.3666865e-05
-0.0075154075
-8.2345768e-05
-0.009511252
-0.00016316673
-0.011536351
-0.00026117157
-0.013785431
-0.00037963085
-0.016503615
-0.00052190536
-0.019730874
-0.00069438472
-0.023598315
-0.00090226614
-0.028208429
-0.0011547497
-0.033710873
-0.0014606876
-0.040272136
-0.001833342
-0.048086368
-0.0022874614
-0.057391513
-0.0028429086
-0.068454265
-0.003523567
-0.081601839
-0.0043597289
-0.097206522
-0.005388445
-0.11572002
-0.0066549449
-0.13767144
-0.0082117729
-0.16370871
-0.010118867
-0.1946224
-0.012440901
-0.23140472
-0.015246006
-0.27530053
-0.018595524
-0.32788736
-0.022556295
-0.39113921
-0.0272037
-0.46742333
-0.03262138
-0.55961248
-0.038920477
-0.67109728
-0.04624352
-0.80588759
-0.05477359
-0.96874024
-0.064736507
-1.1653374
-0.076399167
-1.4025226
-0.090064197
-1.6885648
-0.10608533
-2.0334027
-0.12488415
-2.4490005
-0.14690891
-2.9500348
-0.17261917
-3.5544742
-0.20248117
-4.2843299
-0.2369446
-5.166578
-0.2763076
-6.2344511
-0.32075187
-7.5304147
-0.37023782
-9.1062143
-0.42395317
-11.025022
-0.47992132
-13.370392
-0.5354888
-16.25187
-0.58639218
-19.806838
-0.62412049
-24.213138
-0.63509994
-29.697583
-36.562805
-9.276128e-06
-0.0030141777
-1.9877716e-05
-0.0043442901
-3.1036374e-05
-0.0057823263
-4.2165453e-05
-0.0075043961
-8.3685165e-05
-0.0094698727
-0.00016362855
-0.011456543
-0.00026093159
-0.013688301
-0.00037857287
-0.016386167
-0.0005198256
-0.019589856
-0.00069117809
-0.02342723
-0.00089779465
-0.028002135
-0.0011489924
-0.033460053
-0.0014536406
-0.039967934
-0.0018251712
-0.047715368
-0.0022785366
-0.056938769
-0.0028338853
-0.067899653
-0.0035155121
-0.080921085
-0.0043543131
-0.096368755
-0.0053880254
-0.11468752
-0.0066623715
-0.13639853
-0.008230832
-0.16214193
-0.010153394
-0.19270178
-0.012493946
-0.22906639
-0.015319338
-0.27247766
-0.018686506
-0.32452293
-0.022663974
-0.38716466
-0.02732047
-0.46276977
-0.032741494
-0.55419418
-0.039037231
-0.66480379
-0.046352597
-0.79857416
-0.054871887
-0.96022402
-0.064823889
-1.1553923
-0.076477918
-1.3908781
-0.090139082
-1.674906
-0.10616562
-2.0173696
-0.12498219
-2.4301886
-0.14705283
-2.9279905
-0.17284765
-3.5287135
-0.202853
-4.2543654
-0.23755066
-5.1319167
-0.27728255
-6.1947279
-0.32229135
-7.4855031
-0.37263586
-9.0559683
-0.42764104
-10.970068
-0.48555551
-13.312278
-0.54399283
-16.193105
-0.59909975
-19.752012
-0.64295193
-24.170042
-0.66287149
-29.678358
-36.586279
-8.7165625e-06
-0.0030055732
-1.869977e-05
-0.0043344165
-2.9371956e-05
-0.0057717897
-3.9464225e-05
-0.0074944342
-8.3528461e-05
-0.0094259592
-0.00016335168
-0.011376857
-0.0002598157
-0.013592013
-0.0003766405
-0.016269535
-0.00051699242
-0.019449746
-0.0006874794
-0.023257017
-0.00089320333
-0.027796742
-0.0011435537
-0.033210089
-0.0014475353
-0.039664414
-0.0018186445
-0.047344801
-0.0022721735
-0.056485883
-0.0028285371
-0.067344046
-0.0035126134
-0.080237908
-0.0043558475
-0.095526586
-0.0053969544
-0.11364768
-0.0066820715
-0.13511489
-0.0082656308
-0.16056011
-0.010207538
-0.19076188
-0.012571796
-0.22670444
-0.015421637
-0.26963042
-0.01881092
-0.32113645
-0.022809399
-0.38316915
-0.027481009
-0.45810112
-0.032911078
-0.54876679
-0.039211311
-0.65850573
-0.046527888
-0.79125944
-0.055048316
-0.95170672
-0.065003746
-1.1454442
-0.076666643
-1.3792252
-0.090345203
-1.6612296
-0.10640209
-2.0013049
-0.12527013
-2.4113246
-0.14742407
-2.9058634
-0.17334583
-3.5028265
-0.20354982
-4.2242029
-0.23854472
-5.0969574
-0.27872056
-6.1545614
-0.32438528
-7.439934
-0.37569139
-9.0047541
-0.43210965
-10.913692
-0.49211481
-13.252072
-0.55359047
-16.131295
-0.6131077
-19.692802
-0.66328687
-24.120642
-0.69236306
-29.649998
-36.5965
-8.5017974e-06
-0.0029971418
-1.8149701e-05
-0.0043248596
-2.861888e-05
-0.0057614209
-3.8396764e-05
-0.0074847728
-8.5385173e-05
-0.0093791056
-0.00016513291
-0.011297251
-0.00026115554
-0.013496168
-0.00037760157
-0.016153291
-0.00051742958
-0.019310165
-0.00068741348
-0.023087315
-0.00089262414
-0.027591872
-0.0011426007
-0.03296051
-0.00144644
-0.039361046
-0.0018178777
-0.046973924
-0.0022724574
-0.056031961
-0.0028310392
-0.066786247
-0.0035190834
-0.079550791
-0.004368781
-0.094677986
-0.0054194347
-0.11259832
-0.0067186296
-0.13381722
-0.0083208132
-0.1589597
-0.010286197
-0.18879855
-0.012678223
-0.22431477
-0.015556009
-0.26675527
-0.018974274
-0.31772104
-0.022997758
-0.37914868
-0.027689422
-0.45341245
-0.033134941
-0.54332396
-0.039447088
-0.65219571
-0.04677467
-0.78393365
-0.055308062
-0.94317652
-0.065281752
-1.1354782
-0.076971624
-1.3675458
-0.09068988
-1.6475133
-0.1068034
-1.9851826
-0.12575653
-2.3923752
-0.14802982
-2.8836175
-0.17412854
-3.476763
-0.204583
-4.1937908
-0.23994109
-5.0616343
-0.2806402
-6.1138726
-0.32705214
-7.3936162
-0.37942725
-8.9524632
-0.43738605
-10.855764
-0.49963076
-13.189623
-0.56431701
-16.066265
-0.62843924
-19.629016
-0.68519303
-24.06469
-0.72371207
-29.612217
-36.593198
-8.3125483e-06
-0.0029889185
-1.7597987e-05
-0.0043156761
-2.7668855e-05
-0.0057514774
-3.7432105e-05
-0.0074751416
-8.7324204e-05
-0.0093293632
-0.00016693825
-0.011217783
-0.00026254849
-0.013400743
-0.00037867163
-0.016037374
-0.00051807599
-0.019171017
-0.00068776225
-0.02291792
-0.00089276948
-0.027387215
-0.0011427881
-0.0327109
-0.0014470552
-0.039057266
-0.0018194956
-0.046602056
-0.0022761229
-0.055576015
-0.0028381789
-0.066224993
-0.0035318021
-0.078858122
-0.0043899851
-0.093820934
-0.0054529992
-0.11153664
-0.0067691365
-0.13250266
-0.0083937941
-0.15733688
-0.010386729
-0.18680774
-0.01281116
-0.22189276
-0.015721121
-0.26384802
-0.019173561
-0.31427152
-0.023226434
-0.37509886
-0.027943646
-0.44869821
-0.033410769
-0.53785945
-0.039742751
-0.64586572
-0.047091208
-0.77658687
-0.055649849
-0.93462115
-0.065657103
-1.125479
-0.077392728
-1.3558213
-0.091173344
-1.6337345
-0.10737245
-1.9689738
-0.12644169
-2.3733093
-0.14887787
-2.8612089
-0.17519593
-3.4504807
-0.20596098
-4.1630687
-0.24175053
-5.0258799
-0.28305286
-6.0725816
-0.33030343
-7.3464583
-0.38386199
-8.8989799
-0.44349334
-10.796152
-0.5081331
-13.124774
-0.57620825
-15.997836
-0.64514827
-19.560445
-0.70870218
-24.001958
-0.75693698
-29.564742
-36.576065
-8.0678208e-06
-0.0029809478
-1.6884034e-05
-0.0043069688
-2.6252791e-05
-0.0057422327
-3.6431253e-05
-0.0074650893
-9.0323685e-05
-0.0092756205
-0.00016979217
-0.011138465
-0.00026504513
-0.013305682
-0.00038096269
-0.015921669
-0.00052014542
-0.019032096
-0.00068978124
-0.022748582
-0.00089492539
-0.027182429
-0.001145378
-0.032460868
-0.0014506602
-0.038752482
-0.0018249344
-0.046228377
-0.0022846445
-0.055117002
-0.0028515114
-0.065658955
-0.0035524729
-0.078158144
-0.0044213112
-0.09295326
-0.0054994792
-0.11045985
-0.0068360733
-0.13116768
-0.0084867955
-0.15568804
-0.010511888
-0.18478482
-0.012972846
-0.21943428
-0.01591965
-0.26090396
-0.019410508
-0.31078364
-0.023497609
-0.37101484
-0.028245636
-0.44395317
-0.033740976
-0.53236668
-0.04010088
-0.63950772
-0.047480426
-0.76920892
-0.056077084
-0.92602783
-0.066133698
-1.1154309
-0.077934324
-1.3440323
-0.091800881
-1.6198697
-0.10811313
-1.9526511
-0.12733308
-2.3540926
-0.14997099
-2.8385991
-0.1765619
-3.4239259
-0.20769338
-4.1319809
-0.24398318
-4.9896253
-0.28597242
-6.0306061
-0.33415978
-7.298362
-0.38901588
-8.8441891
-0.45045948
-10.734715
-0.51765284
-13.057364
-0.58930418
-15.925819
-0.66328111
-19.486876
-0.73389223
-23.932187
-0.79212708
-29.507288
-36.54476
-8.1479106e-06
-0.002972916
-1.6675041e-05
-0.0042985558
-2.5296803e-05
-0.0057337521
-3.6729146e-05
-0.0074537945
-9.5512283e-05
-0.0092169952
-0.00017491145
-0.011059217
-0.00026998244
-0.013210807
-0.00038585877
-0.015806007
-0.00052502458
-0.0188932
-0.00069489154
-0.02257902
-0.00090051443
-0.026977174
-0.0011519651
-0.032209849
-0.0014589503
-0.038446013
-0.0018359418
-0.045851994
-0.0022998409
-0.054653825
-0.0028730112
-0.065086635
-0.0035831328
-0.077449033
-0.004464947
-0.092072644
-0.005561034
-0.10936518
-0.0069213497
-0.12980903
-0.0086024075
-0.15400892
-0.010664454
-0.18272501
-0.013166114
-0.21693516
-0.016154199
-0.25791868
-0.019687839
-0.30725301
-0.023813769
-0.36689201
-0.028598039
-0.43917185
-0.034127998
-0.52683919
-0.040523997
-0.63311346
-0.047945197
-0.76178918
-0.05659325
-0.91738319
-0.066715382
-1.1053177
-0.078601125
-1.3321587
-0.092577908
-1.6058948
-0.10903366
-1.9361842
-0.12843853
-2.3346908
-0.15132067
-2.8157454
-0.17823376
-3.3970492
-0.20979298
-4.1004662
-0.24665524
-4.952799
-0.28941483
-5.9878645
-0.33864176
-7.2492237
-0.39491436
-8.7879708
-0.4583079
-10.671315
-0.52822523
-12.987224
-0.6036461
-15.85002
-0.68288629
-19.408089
-0.76081749
-23.855114
-0.82934747
-29.439559
-36.498941
-7.9217655e-06
-0.0029650782
-1.5952973e-05
-0.0042906263
-2.3319244e-05
-0.0057264999
-3.6408765e-05
-0.0074408319
-9.9312253e-05
-0.0091542396
-0.00017872818
-0.010979959
-0.00027372834
-0.013116007
-0.00038976617
-0.015690194
-0.00052922324
-0.018754019
-0.00069968595
-0.022408872
-0.00090634113
-0.026770899
-0.0011594043
-0.031957233
-0.0014689078
-0.038137038
-0.001849612
-0.045471918
-0.0023190404
-0.054185134
-0.0029000443
-0.064506507
-0.0036213203
-0.076728799
-0.004518645
-0.091176552
-0.0056356917
-0.10824959
-0.0070234265
-0.128423
-0.0087388412
-0.1522955
-0.010842254
-0.18062388
-0.013387575
-0.21439243
-0.016424099
-0.25488501
-0.020003356
-0.3036768
-0.024173231
-0.36272525
-0.028998687
-0.43434932
-0.034570004
-0.52127027
-0.041011013
-0.62667406
-0.048484557
-0.75431699
-0.05719752
-0.90867373
-0.067402134
-1.0951225
-0.079393677
-1.3201801
-0.093505683
-1.5917846
-0.11013263
-1.9195457
-0.12976265
-2.3150641
-0.15293193
-2.7926047
-0.1802164
-3.3698013
-0.21226563
-4.0684623
-0.24977458
-4.9153277
-0.29339542
-5.944269
-0.34376366
-7.1989402
-0.40157746
-8.7301995
-0.46706883
-10.605803
-0.53988093
-12.914185
-0.619273
-15.770237
-0.70401351
-19.323853
-0.78953171
-23.770469
-0.86868708
-29.361225
-36.43823
-8.4817205e-06
-0.002956696
-1.6701637e-05
-0.0042825185
-2.3274245e-05
-0.0057200657
-3.8807128e-05
-0.007425442
-0.00010470245
-0.009088506
-0.00018441262
-0.010900413
-0.00027963923
-0.013020989
-0.00039622443
-0.015573841
-0.00053639382
-0.018614137
-0.00070803513
-0.022237557
-0.00091637514
-0.026562951
-0.0011718167
-0.031702249
-0.0014847654
-0.037824635
-0.0018702736
-0.045087053
-0.0023464744
-0.053709696
-0.0029369873
-0.063916894
-0.0036714618
-0.075995395
-0.004586844
-0.090262439
-0.0057279217
-0.10711001
-0.007146954
-0.12700572
-0.0089010931
-0.1505434
-0.011050013
-0.17847731
-0.013643595
-0.21180149
-0.016732714
-0.25179878
-0.020361922
-0.30005067
-0.024579917
-0.35851035
-0.029452361
-0.42947973
-0.035071942
-0.51565292
-0.041566446
-0.62018096
-0.049103972
-0.74678067
-0.057896197
-0.8998851
-0.068200818
-1.0848278
-0.080319373
-1.3080751
-0.094591828
-1.5775142
-0.11142433
-1.9027017
-0.13131367
-2.2951782
-0.15481427
-2.7691328
-0.1825261
-3.3421262
-0.21512864
-4.035906
-0.25335824
-4.8771385
-0.29792746
-5.8997368
-0.3495464
-7.1473998
-0.40903042
-8.6707448
-0.4767697