/*--------------------------------*- C++ -*----------------------------------*\
| =========                 |                                                 |
| \\      /  F ield         | OpenFOAM: The Open Source CFD Toolbox           |
|  \\    /   O peration     | Version:  2306                                  |
|   \\  /    A nd           | Website:  www.openfoam.com                      |
|    \\/     M anipulation  |                                                 |
\*---------------------------------------------------------------------------*/
FoamFile
{
    version     2.0;
    format      ascii;
    arch        "LSB;label=32;scalar=64";
    class       volScalarField;
    location    "0.01";
    object      T;
}
// * * * * * * * * * * * * * * * * * * * * * * * * * * * * * * * * * * * * * //

dimensions      [0 0 0 1 0 0 0];

internalField   nonuniform List<scalar> 
20000
(
298.4875
298.57826
298.59464
298.53215
298.32721
297.82281
297.4503
297.44304
297.48239
297.5051
297.54188
297.57128
297.60838
297.64373
297.68411
297.72528
297.7705
297.81783
297.86877
297.9222
297.97837
298.0362
298.0947
298.15204
298.20604
298.25405
298.29363
298.32292
298.34095
298.34747
298.34394
298.3319
298.31325
298.29028
298.26507
298.23811
298.21099
298.18558
298.16321
298.1418
298.12143
298.1075
298.08575
298.0651
298.06035
298.07249
298.07166
298.04692
298.02356
298.00953
298.48795
298.57899
298.59351
298.52654
298.31234
297.78275
297.45388
297.45427
297.49364
297.51624
297.5533
297.58291
297.62044
297.65625
297.69723
297.73911
297.78514
297.83338
297.88531
297.9398
297.99703
298.05584
298.11514
298.17299
298.22704
298.27456
298.31305
298.34079
298.35666
298.36094
298.35518
298.34103
298.32055
298.29614
298.2699
298.24222
298.21435
298.18826
298.16534
298.14344
298.12315
298.1087
298.08578
298.0674
298.06296
298.07258
298.07168
298.0471
298.02391
298.00968
298.48966
298.57938
298.59135
298.51806
298.29226
297.73924
297.45885
297.46618
297.50602
297.52884
297.56636
297.59638
297.6344
297.67077
297.71238
297.755
297.80185
297.85102
297.90392
297.95943
298.01763
298.07729
298.13722
298.1953
298.24907
298.29568
298.3327
298.35842
298.37175
298.37356
298.36534
298.34898
298.32659
298.30067
298.27337
298.24496
298.21651
298.18991
298.16661
298.1444
298.12406
298.1093
298.08573
298.06823
298.06381
298.07278
298.07153
298.04698
298.02391
298.00971
298.49002
298.57968
298.58985
298.51051
298.27197
297.7017
297.46801
297.4795
297.51966
297.54257
297.58047
297.61085
297.64936
297.6863
297.72857
297.77197
297.81967
297.8698
297.92371
297.98027
298.03948
298.10003
298.16058
298.21889
298.27234
298.31798
298.35345
298.37701
298.38772
298.38695
298.3762
298.35755
298.33319
298.30573
298.27733
298.24817
298.21906
298.19188
298.16815
298.14558
298.12524
298.10998
298.08584
298.06948
298.06538
298.07298
298.07148
298.04695
298.02402
298.00976
298.49113
298.58052
298.58887
298.50263
298.24863
297.66838
297.4795
297.49383
297.53442
297.55756
297.5959
297.62671
297.66575
297.7033
297.74624
297.79045
297.83903
297.89016
297.94509
298.00273
298.06294
298.12435
298.18546
298.2439
298.29687
298.34133
298.37503
298.39612
298.40407
298.4005
298.38706
298.36603
298.33964
298.31059
298.28106
298.25115
298.2214
298.19368
298.16952
298.14662
298.12628
298.11049
298.08598
298.07042
298.0666
298.07321
298.0714
298.04687
298.02407
298.00979
298.49063
298.58125
298.58808
298.49531
298.22277
297.64111
297.49461
297.50969
297.55065
297.57397
297.61271
297.64394
297.6835
297.72166
297.7653
297.81033
297.85982
297.91198
297.96797
298.0267
298.08792
298.15017
298.2118
298.27026
298.3226
298.36575
298.39747
298.41583
298.42089
298.41435
298.39812
298.3746
298.34612
298.31545
298.2848
298.25414
298.22374
298.19547
298.1709
298.14766
298.12733
298.11095
298.08624
298.07145
298.06784
298.07351
298.07134
298.04677
298.02413
298.00984
298.49419
298.58466
298.58976
298.48927
298.19464
297.61863
297.51334
297.52691
297.56827
297.59175
297.63091
297.66257
297.70265
297.74145
297.7858
297.83169
297.88213
297.93534
297.99243
298.05227
298.11451
298.17757
298.23964
298.29802
298.34956
298.3912
298.42068
298.43607
298.43809
298.42839
298.40925
298.38317
298.35254
298.32021
298.28841
298.257
298.22597
298.19718
298.1722
298.14865
298.12833
298.11136
298.08652
298.07237
298.06901
298.07388
298.0713
298.04667
298.02416
298.00989
298.49602
298.58764
298.59152
298.48376
298.16343
297.60155
297.53323
297.54546
297.58722
297.61087
297.65047
297.68257
297.7232
297.76268
297.80776
297.85455
297.90596
297.96027
298.01847
298.07944
298.14269
298.20654
298.26899
298.32714
298.37771
298.41766
298.44459
298.45684
298.4556
298.4426
298.42043
298.39172
298.3589
298.32487
298.29193
298.25975
298.22811
298.19879
298.17342
298.1496
298.1293
298.11172
298.08683
298.07323
298.0701
298.07431
298.07129
298.04659
298.02419
298.00994
298.49969
298.59181
298.59456
298.47937
298.12968
297.59024
297.55282
297.56528
297.60748
297.63132
297.67138
297.70396
297.74517
297.78535
297.83121
297.87894
297.93136
297.9868
298.04616
298.10827
298.17253
298.23712
298.29986
298.35764
298.40704
298.44507
298.46914
298.47808
298.47335
298.45692
298.43162
298.40021
298.36515
298.32941
298.29532
298.26238
298.23012
298.2003
298.17455
298.15047
298.13021
298.11205
298.08714
298.07395
298.07109
298.07478
298.0713
298.04649
298.02423
298.00998
298.50275
298.59585
298.59746
298.47543
298.09332
297.58476
297.57435
297.58641
297.62904
297.65313
297.69367
297.72677
297.76858
297.80951
297.85617
297.90488
297.95835
298.01497
298.0755
298.13878
298.20403
298.26932
298.33224
298.38949
298.43754
298.47338
298.49426
298.49974
298.4913
298.47128
298.44277
298.4086
298.37128
298.33382
298.29857
298.26488
298.23201
298.20169
298.17557
298.15127
298.13105
298.1123
298.08745
298.07458
298.07201
298.07528
298.07133
298.04637
298.02428
298.01002
298.50745
298.60076
298.60119
298.47255
298.05608
297.58526
297.59705
297.60889
297.65198
297.67633
297.71735
297.75101
297.79344
297.83515
297.88267
297.9324
297.98698
298.0448
298.10655
298.171
298.23724
298.30316
298.36615
298.42269
298.46917
298.5025
298.51992
298.52172
298.50937
298.48564
298.45383
298.41686
298.37725
298.33807
298.30167
298.26724
298.23376
298.20296
298.17648
298.15199
298.13181
298.11242
298.08774
298.0752
298.07292
298.0758
298.0714
298.04626
298.02428
298.01006
298.51192
298.60556
298.60443
298.46963
298.0186
297.59202
297.62103
297.6327
297.67622
297.70089
297.74242
297.77668
297.81978
297.86233
297.91074
297.96154
298.01727
298.07635
298.13934
298.20498
298.27217
298.33865
298.40156
298.45719
298.50188
298.53233
298.5461
298.54394
298.52749
298.49993
298.46475
298.42496
298.38305
298.34214
298.30461
298.26945
298.23537
298.20411
298.17728
298.15263
298.13251
298.11245
298.088
298.07584
298.07375
298.07632
298.07148
298.04615
298.02426
298.01011
298.51645
298.61024
298.6074
298.46635
297.98231
297.60444
297.64616
297.6578
297.70181
297.72685
297.76891
297.80383
297.84763
297.89107
297.94043
297.99235
298.04928
298.10965
298.17392
298.24074
298.30886
298.37581
298.43849
298.49299
298.53562
298.56281
298.57272
298.56631
298.5456
298.5141
298.4755
298.43285
298.38865
298.34602
298.30738
298.27149
298.23684
298.20513
298.17797
298.15319
298.13313
298.11241
298.08824
298.07645
298.07452
298.07684
298.07154
298.04601
298.02422
298.01014
298.52098
298.61542
298.60992
298.46185
297.94854
297.62216
297.67266
297.68432
297.7288
297.75426
297.79689
297.83251
297.87705
297.92143
297.97177
298.02487
298.08304
298.14475
298.21031
298.27831
298.34731
298.41464
298.47691
298.53006
298.5703
298.59385
298.59968
298.58875
298.56362
298.52808
298.48601
298.4405
298.39402
298.3497
298.30996
298.27337
298.23815
298.20601
298.17853
298.15366
298.13368
298.11229
298.08844
298.07702
298.07528
298.07738
298.07159
298.04582
298.02416
298.01015
298.52766
298.62193
298.61307
298.45556
297.91925
297.64305
297.70058
297.71229
297.75731
297.78322
297.82643
297.8628
297.9081
297.95346
298.00484
298.05916
298.11862
298.1817
298.24857
298.31774
298.38757
298.45514
298.5168
298.56836
298.60581
298.62543
298.62686
298.61118
298.58146
298.5418
298.49624
298.44789
298.39914
298.35315
298.31234
298.27507
298.2393
298.20675
298.17899
298.15405
298.13416
298.11209
298.08862
298.07759
298.07599
298.07794
298.07162
298.0456
298.02407
298.01014
298.53458
298.62917
298.61611
298.44636
297.89552
297.67048
297.73013
297.74192
297.78743
297.81381
297.8576
297.89475
297.94083
297.98722
298.03968
298.09527
298.15605
298.22053
298.28873
298.35906
298.42964
298.4973
298.55813
298.60783
298.64204
298.65747
298.65416
298.63351
298.59906
298.55522
298.50616
298.45496
298.40398
298.35637
298.31452
298.27658
298.24027
298.20736
298.17934
298.15437
298.13458
298.11182
298.08875
298.07812
298.07667
298.07851
298.07163
298.04533
298.02395
298.01011
298.54245
298.63774
298.62018
298.43425
297.87881
297.70192
297.76122
297.77312
297.81913
297.84603
297.89042
297.92838
297.97529
298.02273
298.07633
298.13323
298.19537
298.26129
298.33083
298.40229
298.47354
298.54112
298.60088
298.64839
298.67891
298.68987
298.68147
298.65563
298.61634
298.56827
298.5157
298.4617
298.40853
298.35933
298.31649
298.27789
298.24108
298.20784
298.17957
298.15462
298.13494
298.11149
298.08886
298.07862
298.07733
298.0791
298.07161
298.045
298.02379
298.01007
298.54991
298.64739
298.62493
298.41801
297.8686
297.7327
297.79388
297.80596
297.85247
297.87993
297.92494
297.96375
298.01151
298.06007
298.11483
298.17309
298.23665
298.30402
298.37492
298.44746
298.51926
298.58658
298.64502
298.68991
298.71632
298.7225
298.7087
298.67747
298.63322
298.58089
298.52484
298.46807
298.41277
298.36204
298.31822
298.27899
298.24172
298.20818
298.17963
298.15479
298.13519
298.11108
298.08894
298.07911
298.07799
298.07972
298.07157
298.04463
298.0236
298.01003
298.55964
298.65919
298.63233
298.39841
297.86575
297.76577
297.82827
297.84047
297.8875
297.91554
297.96116
298.00085
298.04951
298.09922
298.15522
298.21489
298.27991
298.34878
298.42103
298.49461
298.56683
298.63365
298.69048
298.73229
298.75423
298.75522
298.73571
298.6989
298.64961
298.59302
298.53352
298.47405
298.41667
298.36447
298.31971
298.27989
298.24221
298.20832
298.17959
298.15483
298.13533
298.11061
298.08899
298.07959
298.07865
298.08036
298.07148
298.04419
298.02337
298.00997
298.56954
298.67189
298.64117
298.37459
297.86999
297.80073
297.86418
297.87657
297.92411
297.95278
297.99906
298.03971
298.0893
298.14024
298.19753
298.25869
298.32522
298.39561
298.46921
298.54375
298.61623
298.68231
298.73719
298.77538
298.79253
298.7879
298.7624
298.71985
298.66547
298.60461
298.54172
298.47961
298.42023
298.36661
298.32095
298.2806
298.24246
298.20833
298.17943
298.15479
298.1354
298.11006
298.08902
298.08006
298.07932
298.08104
298.07134
298.0437
298.02311
298.00989
298.57982
298.68543
298.65204
298.34783
297.88227
297.83733
297.90158
297.91422
297.9623
297.99167
298.03866
298.08032
298.13093
298.18316
298.24183
298.30453
298.37262
298.44457
298.51949
298.5949
298.66745
298.73251
298.78506
298.81907
298.83107
298.82038
298.78863
298.7402
298.68069
298.61561
298.54939
298.48473
298.42344
298.36845
298.32198
298.28108
298.2425
298.2082
298.17915
298.15467
298.13538
298.10945
298.08904
298.08053
298.08
298.08175
298.07114
298.04316
298.02282
298.0098
298.59003
298.69959
298.66426
298.31909
297.90092
297.87546
297.94046
297.95344
298.00209
298.03224
298.08
298.12277
298.17446
298.22807
298.28818
298.3525
298.4222
298.4957
298.57191
298.64807
298.72048
298.78423
298.83393
298.86326
298.86969
298.85255
298.81431
298.75988
298.69522
298.62597
298.55651
298.48938
298.42626
298.37
298.32277
298.28126
298.2424
298.20791
298.17874
298.15445
298.13524
298.10877
298.08905
298.081
298.08069
298.0825
298.07085
298.04256
298.02249
298.0097
298.60179
298.71465
298.67794
298.29004
297.92804
297.91509
297.98093
297.99429
298.04359
298.07461
298.1232
298.16714
298.21999
298.27505
298.33668
298.40265
298.474
298.54907
298.6265
298.70327
298.77528
298.83737
298.88364
298.90788
298.90819
298.88425
298.83929
298.77878
298.70898
298.63565
298.56304
298.49356
298.4287
298.37129
298.32325
298.28124
298.2421
298.20748
298.1782
298.15412
298.13495
298.10804
298.08906
298.08146
298.08139
298.08328
298.07048
298.04191
298.02213
298.00959
298.61466
298.73053
298.69208
298.26237
297.96164
297.95649
298.02319
298.03703
298.08698
298.11893
298.16839
298.21356
298.26761
298.32418
298.38738
298.45507
298.52809
298.60471
298.6833
298.76049
298.83182
298.89185
298.93404
298.95276
298.94643
298.91533
298.86346
298.79681
298.72194
298.6446
298.56896
298.49723
298.43076
298.37228
298.32339
298.281
298.24162
298.20689
298.17754
298.15368
298.13446
298.10728
298.08907
298.08193
298.08209
298.08409
298.06998
298.04121
298.02174
298.00946
298.62858
298.74739
298.70607
298.23818
297.99967
297.99995
298.06747
298.08183
298.13242
298.16533
298.21566
298.26211
298.31741
298.37553
298.44037
298.50981
298.58454
298.66269
298.74233
298.81972
298.89005
298.94754
298.98498
298.99772
298.98422
298.94564
298.88669
298.81389
298.73401
298.6528
298.57425
298.5004
298.43247
298.37289
298.32333
298.28051
298.24095
298.20616
298.17674
298.15311
298.13374
298.10653
298.08909
298.0824
298.08278
298.08493
298.06934
298.04045
298.02131
298.00931
298.64389
298.766
298.71923
298.21961
298.04859
298.04547
298.11376
298.12869
298.17989
298.21381
298.26504
298.31282
298.36943
298.42917
298.49569
298.56696
298.6434
298.72303
298.80359
298.88094
298.94992
299.00423
299.03634
299.04256
299.02139
298.97502
298.90889
298.82996
298.74516
298.6602
298.57889
298.50306
298.4338
298.37314
298.32298
298.27979
298.2401
298.20528
298.17583
298.15241
298.13277
298.10577
298.08913
298.08289
298.08346
298.0858
298.06856
298.03964
298.02084
298.00916
298.66144
298.78638
298.73048
298.2081
298.0918
298.09285
298.16193
298.17751
298.22938
298.26438
298.31657
298.36574
298.42373
298.48516
298.55345
298.62656
298.70473
298.7858
298.8671
298.94413
299.01133
299.06174
299.08801
299.08701
299.05773
299.00333
298.92992
298.84491
298.75534
298.66679
298.58286
298.50524
298.43469
298.37314
298.32236
298.27883
298.23907
298.20425
298.1748
298.15157
298.13156
298.10499
298.08919
298.08341
298.08414
298.0867
298.06761
298.03877
298.02035
298.00899
298.6788
298.80733
298.73792
298.2036
298.14103
298.1422
298.21208
298.22842
298.28095
298.3171
298.3703
298.42095
298.48039
298.54359
298.6137
298.68871
298.7686
298.85101
298.93284
299.00921
299.07414
299.11989
299.13976
299.1309
299.09308
299.03042
298.9497
298.85871
298.76452
298.67255
298.58617
298.50693
298.43511
298.3728
298.32146
298.27764
298.23787
298.20308
298.17366
298.15059
298.1301
298.10421
298.08929
298.08398
298.08481
298.08761
298.0665
298.03783
298.01982
298.00881
298.69895
298.83134
298.74245
298.20687
298.19185
298.19354
298.26425
298.28139
298.33464
298.37202
298.42629
298.4785
298.53948
298.60452
298.67653
298.75348
298.83507
298.91869
299.00082
299.07615
299.13819
299.17849
299.19134
299.17397
299.12723
299.05613
298.96813
298.87128
298.77266
298.67744
298.58885
298.50805
298.43519
298.37216
298.32027
298.27622
298.2365
298.20178
298.17241
298.14948
298.12839
298.10341
298.08946
298.08462
298.08548
298.08849
298.06523
298.03682
298.01927
298.00862
298.71885
298.85687
298.74248
298.21946
298.24501
298.24686
298.31843
298.3365
298.3905
298.4292
298.48462
298.53848
298.6011
298.66807
298.74204
298.82095
298.9042
298.98887
299.071
299.14484
299.20322
299.23739
299.24249
299.21602
299.16001
299.08035
298.98513
298.8826
298.77973
298.6815
298.5909
298.50855
298.43488
298.3712
298.31881
298.27457
298.23496
298.20035
298.17106
298.14824
298.12645
298.1026
298.0897
298.08537
298.0862
298.0892
298.0638
298.03575
298.0187
298.00841
298.73958
298.88588
298.74007
298.24285
298.30021
298.30231
298.37475
298.39384
298.44863
298.48875
298.5454
298.601
298.66537
298.73434
298.81034
298.89121
298.97603
299.06155
299.14333
299.21516
299.26901
299.29638
299.29291
299.2568
299.1912
299.10294
299.00061
298.89261
298.78572
298.68475
298.59219
298.5086
298.43419
298.36993
298.31708
298.27272
298.23327
298.19879
298.16962
298.14688
298.12427
298.10178
298.09003
298.08623
298.08703
298.08975
298.06222
298.03462
298.0181
298.0082
298.75894
298.91766
298.73637
298.27619
298.35744
298.35996
298.43327
298.45352
298.50913
298.55078
298.60874
298.66622
298.73241
298.80349
298.88152
298.96432
299.0506
299.13672
299.21775
299.28694
299.3353
299.35519
299.34234
299.29608
299.22067
299.1238
299.01454
298.90128
298.79065
298.68718
298.5927
298.50816
298.43311
298.36834
298.31509
298.27065
298.23142
298.1971
298.16811
298.14539
298.12186
298.10094
298.09045
298.08717
298.08805
298.09012
298.06049
298.03345
298.01749
298.00798
298.77934
298.95287
298.73348
298.31953
298.41694
298.41987
298.49415
298.51567
298.5722
298.61548
298.67485
298.73427
298.80238
298.87559
298.95568
299.04036
299.12795
299.21437
299.29417
299.35992
299.40188
299.41347
299.39048
299.3336
299.24821
299.14282
299.02682
298.90859
298.79456
298.68863
298.59266
298.50722
298.43166
298.36645
298.31284
298.2684
298.22942
298.1953
298.16651
298.14374
298.11928
298.10005
298.09094
298.08815
298.08926
298.09042
298.05864
298.03225
298.01686
298.00775
298.79832
298.98962
298.73213
298.37057
298.47878
298.48239
298.55766
298.58056
298.63804
298.68304
298.74386
298.8053
298.87539
298.95077
299.03292
299.1194
299.20808
299.29443
299.37245
299.43379
299.46857
299.47088
299.43705
299.36916
299.2737
299.15993
299.03745
298.91458
298.79743
298.68915
298.59195
298.50578
298.42983
298.36425
298.31034
298.26595
298.22728
298.19339
298.16485
298.1419
298.11666
298.09909
298.09148
298.08922
298.09059
298.09032
298.05671
298.03104
298.01622
298.00751
298.81699
299.02804
298.73495
298.42803
298.54352
298.54787
298.62404
298.64838
298.7068
298.75355
298.81591
298.87941
298.95155
299.02913
299.11332
299.20148
299.291
299.37686
299.45242
299.50825
299.53501
299.52705
299.48174
299.40251
299.29698
299.17501
299.04639
298.91927
298.79906
298.68896
298.59062
298.50387
298.42763
298.36175
298.3076
298.26334
298.22499
298.19137
298.16309
298.13978
298.11418
298.09809
298.09196
298.09044
298.09199
298.0897
298.05474
298.02981
298.01557
298.00727
298.83466
299.06649
298.74413
298.48753
298.61085
298.61614
298.69322
298.71913
298.77852
298.82713
298.89108
298.95673
299.03097
299.11078
299.19696
299.28665
299.37669
299.46153
299.5338
299.58301
299.60084
299.58164
299.52427
299.43348
299.31795
299.18806
299.05367
298.92265
298.79959
298.68794
298.58866
298.50148
298.42507
298.35896
298.30464
298.26056
298.22257
298.18925
298.16125
298.1374
298.11191
298.09717
298.09225
298.09184
298.09343
298.08848
298.05277
298.02856
298.01491
298.00702
298.85384
299.10425
298.76123
298.55313
298.68099
298.68729
298.7653
298.79289
298.85331
298.90388
298.9695
299.03736
299.11378
299.19582
299.28392
299.37492
299.4651
299.54831
299.61624
299.65779
299.66562
299.63428
299.56432
299.46184
299.33647
299.19901
299.05933
298.92451
298.79921
298.68613
298.58609
298.49863
298.42215
298.3559
298.30147
298.25762
298.22001
298.18703
298.15932
298.13477
298.10987
298.09649
298.09242
298.09336
298.09493
298.08663
298.05079
298.02729
298.01425
298.00677
298.87353
299.13954
298.78743
298.62279
298.75387
298.76141
298.84038
298.86981
298.93131
298.98393
299.05131
299.12146
299.20008
299.28436
299.37427
299.4663
299.55614
299.63699
299.69935
299.73227
299.72887
299.6846
299.60166
299.48746
299.3525
299.20792
299.06336
298.92503
298.79779
298.68354
298.58294
298.49533
298.41888
298.35256
298.29811
298.25453
298.21732
298.18473
298.15729
298.13189
298.10799
298.09607
298.09279
298.09489
298.09649
298.08435
298.04872
298.02599
298.01359
298.00652
298.89543
299.1726
298.82325
298.69643
298.82974
298.83868
298.91863
298.95005
299.01268
299.06743
299.13664
299.20914
299.29003
299.37649
299.46804
299.56077
299.64972
299.7273
299.78273
299.80598
299.79017
299.73222
299.63598
299.51014
299.36596
299.21481
299.06548
298.9244
298.79541
298.6802
298.57921
298.49159
298.41527
298.34896
298.29457
298.25131
298.2145
298.18236
298.15513
298.12875
298.10619
298.09582
298.09338
298.09639
298.09821
298.08174
298.04656
298.0247
298.01294
298.00628
298.91961
299.20425
298.86648
298.77383
298.90882
298.91935
299.00021
299.03373
299.0975
299.15449
299.22562
299.30056
299.38374
299.47233
299.5653
299.65829
299.74564
299.81882
299.86602
299.87841
299.84905
299.7768
299.66708
299.52982
299.37692
299.21963
299.066
298.9225
298.79207
298.67613
298.57492
298.48742
298.41131
298.34512
298.29087
298.24795
298.21156
298.17992
298.15281
298.1254
298.10446
298.09567
298.09414
298.09785
298.10002
298.07881
298.04433
298.02341
298.01231
298.00603
298.94824
299.23574
298.92132
298.85463
298.99112
299.00325
299.08507
299.12085
299.1859
299.24527
299.31846
299.39591
299.48139
299.57195
299.66603
299.75875
299.84367
299.91102
299.94888
299.94892
299.90504
299.81796
299.69472
299.54638
299.38536
299.22211
299.06505
298.91942
298.78782
298.67136
298.5701
298.48283
298.40703
298.34105
298.28701
298.24445
298.2085
298.1774
298.15021
298.12198
298.10276
298.09547
298.0949
298.09908
298.10163
298.07561
298.04208
298.02216
298.01169
298.0058
298.97948
299.26656
298.98897
298.93838
299.07632
299.09044
299.17334
299.21168
299.27818
299.34008
299.41542
299.4954
299.5831
299.67544
299.77021
299.862
299.94348
300.00344
300.03071
300.017
299.9577
299.8554
299.71876
299.55986
299.39122
299.22266
299.06256
298.91518
298.7827
298.66592
298.56476
298.47783
298.40243
298.33676
298.28301
298.24083
298.20533
298.17479
298.14721
298.11868
298.10116
298.09505
298.09563
298.10007
298.10286
298.07225
298.03987
298.02095
298.0111
298.00557
299.01347
299.29933
299.07208
299.02556
299.165
299.18157
299.26568
299.30677
299.37479
299.43925
299.51675
299.59919
299.68899
299.7828
299.87776
299.96782
300.04457
300.09557
300.11087
300.08204
300.00652
299.88879
299.73906
299.57025
299.39419
299.22134
299.05862
298.90984
298.77673
298.65984
298.55892
298.47243
298.39751
298.33227
298.27888
298.23706
298.20205
298.17209
298.14383
298.11557
298.09969
298.09456
298.09631
298.10075
298.10364
298.06883
298.03772
298.01978
298.01052
298.00535
299.05023
299.33522
299.1478
299.11773
299.25834
299.27749
299.3626
299.40648
299.47595
299.54297
299.62258
299.70741
299.7991
299.89401
299.98855
300.0759
300.14629
300.18701
300.18861
300.14348
300.05111
299.91794
299.75562
299.57743
299.39481
299.21813
299.05327
298.90345
298.76996
298.65313
298.5526
298.46664
298.39229
298.3276
298.27462
298.23317
298.19867
298.16925
298.14011
298.11269
298.09842
298.09425
298.0971
298.10109
298.10444
298.06547
298.03567
298.01865
298.00997
298.00513
299.09269
299.3779
299.23642
299.21456
299.35615
299.37798
299.46405
299.5108
299.58176
299.65133
299.73307
299.82016
299.91351
300.00901
300.10234
300.18579
300.24802
300.27698
300.26321
300.20069
300.09103
299.94263
299.76838
299.58109
299.39308
299.21313
299.04659
298.89607
298.76243
298.64584
298.5458
298.46047
298.38678
298.32275
298.27022
298.22913
298.19518
298.16624
298.13607
298.11009
298.09759
298.09406
298.09824
298.10148
298.10357
298.06227
298.03367
298.01756
298.00944
298.00493
299.1391
299.42596
299.33383
299.3157
299.45814
299.48307
299.57008
299.61986
299.69236
299.76454
299.84834
299.93757
300.03217
300.12765
300.21884
300.2969
300.34913
300.3647
300.33395
300.25311
300.12597
299.96279
299.7772
299.58184
299.38902
299.20641
299.03865
298.88774
298.75417
298.63797
298.53856
298.45393
298.38099
298.31774
298.2657
298.22496
298.19159
298.16294
298.13173
298.10771
298.09719
298.09452
298.09974
298.10242
298.10087
298.05911
298.03169
298.01651
298.00894
298.00474
299.19152
299.4825
299.43676
299.42168
299.56464
299.59295
299.68095
299.73388
299.80798
299.88276
299.96858
300.05962
300.15502
300.24973
300.33759
300.40835
300.44903
300.44918
300.40005
300.30019
300.15563
299.97834
299.78172
299.57965
299.38273
299.19807
299.02953
298.87851
298.74522
298.62957
298.53088
298.44702
298.37493
298.31257
298.26104
298.22065
298.18787
298.15918
298.12723
298.10553
298.09703
298.09557
298.10155
298.10404
298.09689
298.05584
298.02975
298.01551
298.00848
298.00456
299.24884
299.55034
299.54495
299.53217
299.67551
299.70788
299.79695
299.85322
299.92888
300.0062
300.09385
300.18635
300.28193
300.37492
300.45802
300.51941
300.54676
300.52955
300.4608
300.34148
300.17986
299.98906
299.78264
299.57458
299.37433
299.1882
299.01928
298.86845
298.73562
298.62065
298.52278
298.43978
298.36861
298.30724
298.25623
298.21621
298.184
298.15472
298.12289
298.10364
298.0969
298.09722
298.10356
298.10607
298.09239
298.05256
298.02789
298.01457
298.00804
298.00439
299.31119
299.62355
299.65852
299.64819
299.79137
299.82855
299.91842
299.97816
300.0553
300.13494
300.22421
300.31767
300.4127
300.50277
300.57928
300.62921
300.64124
300.60481
300.51544
300.37656
300.19848
299.99455
299.77991
299.56674
299.36394
299.1769
299.008
298.85759
298.72539
298.61123
298.51428
298.43219
298.36206
298.30176
298.25128
298.21164
298.17995
298.14958
298.11876
298.10203
298.09672
298.09952
298.10585
298.1081
298.08776
298.04934
298.02613
298.01369
298.00762
298.00423
299.38019
299.70859
299.77754
299.77078
299.91265
299.95481
300.0457
300.1086
300.18735
300.26909
300.35964
300.45347
300.54697
300.63264
300.7003
300.73691
300.73126
300.67408
300.56338
300.40514
300.21124
299.99561
299.77361
299.55631
299.35169
299.16427
298.99573
298.84598
298.71458
298.60135
298.5054
298.4243
298.35527
298.29612
298.24617
298.20695
298.17569
298.1439
298.11487
298.10064
298.09655
298.10189
298.10731
298.10943
298.08304
298.04627
298.02448
298.01286
298.00724
298.00409
299.45709
299.80551
299.90255
299.89953
300.03951
300.08688
300.17844
300.24467
300.32516
300.40881
300.50015
300.59352
300.68422
300.76367
300.82005
300.84118
300.81565
300.73636
300.60402
300.42695
300.21768
299.99215
299.76389
299.54341
299.33769
299.1504
298.98256
298.83368
298.70321
298.59102
298.49615
298.4161
298.34827
298.29029
298.24089
298.20213
298.17111
298.13786
298.11124
298.09948
298.09642
298.10344
298.10826
298.11064
298.0784
298.0434
298.02294
298.01208
298.00688
298.00396
299.54121
299.91534
300.03272
300.03476
300.17216
300.22477
300.31703
300.38706
300.46902
300.55413
300.64559
300.73739
300.82372
300.89459
300.93745
300.94059
300.89322
300.79086
300.63692
300.4416
300.21869
299.98426
299.75094
299.52822
299.32209
299.13539
298.96854
298.82072
298.69132
298.58026
298.48655
298.40764
298.34106
298.28425
298.23543
298.19717
298.16605
298.13178
298.10787
298.09842
298.09637
298.10417
298.10862
298.11154
298.07395
298.04073
298.02148
298.01135
298.00654
298.00383
299.63217
300.03957
300.1684
300.17621
300.31041
300.36809
300.46232
300.53591
300.61903
300.70495
300.79557
300.88446
300.96445
301.02405
301.05105
301.0336
300.96275
300.83676
300.66165
300.44872
300.21408
299.97215
299.73496
299.51091
299.30501
299.11932
298.95373
298.80714
298.67892
298.56909
298.47663
298.39894
298.33365
298.27797
298.22978
298.19207
298.16031
298.12602
298.10475
298.09715
298.09642
298.1044
298.108
298.11199
298.06977
298.03821
298.0201
298.01067
298.00623
298.00372
299.72823
300.17762
300.30949
300.32384
300.45483
300.51838
300.61456
300.69106
300.7751
300.86096
300.94957
301.03376
301.10498
301.15062
301.15913
301.11876
301.02318
300.87342
300.67765
300.44915
300.204
299.95605
299.71616
299.49163
299.28656
299.10228
298.93819
298.79298
298.66605
298.55753
298.46642
298.39003
298.32604
298.27143
298.22393
298.18684
298.15401
298.12059
298.10178
298.09558
298.09645
298.10429
298.10713
298.10944
298.06579
298.03576
298.01879
298.01004
298.00594
298.00362
299.83287
300.32803
300.45737
300.47807
300.60548
300.67633
300.77308
300.85253
300.93692
301.02167
301.10668
301.18405
301.24353
301.27266
301.25969
301.19449
301.07341
300.90024
300.68471
300.44263
300.18872
299.9362
299.69475
299.47057
299.26687
299.08435
298.92197
298.77827
298.65272
298.5456
298.45592
298.38094
298.31822
298.26458
298.21785
298.18144
298.14727
298.11545
298.09893
298.09372
298.09656
298.10398
298.10624
298.10495
298.06174
298.0334
298.01757
298.00946
298.00567
298.00353
299.94747
300.49176
300.61078
300.63961
300.76757
300.84107
300.93859
301.02015
301.10395
301.18618
301.26567
301.33355
301.37825
301.38801
301.35094
301.25943
301.11255
300.91638
300.68353
300.4294
300.16852
299.91288
299.67094
299.44786
299.24604
299.06558
298.90511
298.76304
298.63897
298.53333
298.44518
298.3717
298.31019
298.25738
298.21151
298.1758
298.14019
298.11061
298.09625
298.09176
298.09687
298.10418
298.10631
298.09945
298.05774
298.03118
298.01645
298.00892
298.00542
298.00345
300.07524
300.66212
300.77559
300.8118
300.93412
301.01141
301.1096
301.19292
301.27523
301.3533
301.42484
301.48004
301.5071
301.49419
301.43086
301.31207
301.13966
300.92195
300.67379
300.40977
300.14372
299.88637
299.64496
299.42368
299.22418
299.04606
298.88765
298.74732
298.6248
298.52072
298.43421
298.36235
298.30193
298.24981
298.20488
298.16968
298.1329
298.10608
298.09404
298.09046
298.09806
298.10531
298.10747
298.09383
298.05396
298.02913
298.01541
298.00841
298.00519
298.00337
300.21825
300.84358
300.94515
300.99023
301.10828
301.1883
301.28595
301.36995
301.44948
301.52124
301.58192
301.62108
301.62731
301.58889
301.49766
301.3512
301.15383
300.91733
300.65584
300.38408
300.11464
299.85692
299.61698
299.39813
299.20135
299.02584
298.86963
298.73113
298.61024
298.5078
298.42305
298.35293
298.29342
298.24182
298.19791
298.16268
298.12577
298.10192
298.09228
298.08976
298.09937
298.1063
298.10825
298.08851
298.05046
298.02724
298.01444
298.00795
298.00498
298.0033
300.37727
301.03293
301.12307
301.17673
301.28793
301.36983
301.46597
301.54941
301.62462
301.68756
301.73403
301.75394
301.73587
301.66957
301.54936
301.37546
301.15549
300.90223
300.63004
300.35275
300.08165
299.82482
299.58724
299.37136
299.17767
299.00495
298.85108
298.71449
298.59531
298.4946
298.41172
298.34345
298.28467
298.23339
298.19055
298.15473
298.11891
298.09821
298.0908
298.08928
298.10068
298.10722
298.10896