/*--------------------------------*- C++ -*----------------------------------*\
| =========                 |                                                 |
| \\      /  F ield         | OpenFOAM: The Open Source CFD Toolbox           |
|  \\    /   O peration     | Version:  2306                                  |
|   \\  /    A nd           | Website:  www.openfoam.com                      |
|    \\/     M anipulation  |                                                 |
\*---------------------------------------------------------------------------*/
FoamFile
{
    version     2.0;
    format      ascii;
    arch        "LSB;label=32;scalar=64";
    class       volVectorField;
    location    "0.01";
    object      U;
}
// * * * * * * * * * * * * * * * * * * * * * * * * * * * * * * * * * * * * * //

dimensions      [0 1 -1 0 0 0 0];

internalField   nonuniform List<vector> 
20000
(
(65.460467 1.6708684e-17 -0.19842061)
(78.044855 -7.4487901e-18 -0.12039374)
(86.131696 2.7413911e-17 -0.19347399)
(92.968175 -1.6862263e-17 -0.23071951)
(99.041991 -1.5654149e-17 -0.28347139)
(104.04326 2.1597789e-17 -0.35006932)
(105.68328 -1.7443311e-17 -0.36501361)
(105.65802 -2.2773925e-17 -0.31465275)
(105.49157 1.3066915e-17 -0.33328571)
(105.38923 3.6831503e-17 -0.25711789)
(105.21784 -4.8329594e-17 -0.27289898)
(105.06318 -1.3815746e-17 -0.18560216)
(104.8611 6.6398301e-17 -0.17638012)
(104.64869 -7.6096746e-17 -0.080810373)
(104.39497 4.2789236e-17 -0.031004397)
(104.11359 -2.6654309e-17 0.084430646)
(103.78988 3.8703229e-17 0.18885703)
(103.42721 -4.4822166e-17 0.34783701)
(103.02016 8.7677756e-17 0.52714763)
(102.57038 1.4334727e-17 0.76360745)
(102.08019 -6.3598763e-17 1.048616)
(101.55662 -6.1138891e-18 1.4037279)
(101.0122 -4.3958737e-17 1.830805)
(100.46473 4.0710507e-17 2.3396332)
(99.938216 3.2821266e-18 2.9274292)
(99.459304 2.8382594e-17 3.5866139)
(99.054727 -2.7335977e-17 4.2970188)
(98.743868 9.8980861e-17 5.0315723)
(98.540688 1.4713762e-16 5.7599382)
(98.446589 -5.1020167e-17 6.4508687)
(98.451056 2.4672718e-17 7.0798252)
(98.538607 -8.5064537e-17 7.6351412)
(98.691018 1.9350855e-16 8.1133554)
(98.886929 4.1346814e-17 8.5175496)
(99.105735 -1.3917059e-16 8.8578185)
(99.32905 1.6392985e-16 9.1493298)
(99.543624 -1.0716498e-17 9.4022854)
(99.741394 -6.9026032e-17 9.623396)
(99.912793 2.3077927e-16 9.8187033)
(100.06128 9.4880598e-17 9.9979998)
(100.17577 -1.6050713e-16 10.151637)
(100.25836 -1.2498263e-16 10.29252)
(100.34348 -2.8354515e-16 10.444824)
(100.4071 -1.6531277e-16 10.560082)
(100.395 4.4622003e-17 10.604423)
(100.38364 2.6848335e-17 10.621729)
(100.43197 -7.2833901e-17 10.694791)
(100.47595 2.8346795e-17 10.812071)
(100.50092 -1.06511e-16 10.900281)
(100.50398 4.3769709e-18 10.941539)
(65.560174 4.5973328e-17 -0.47129816)
(78.206517 -8.7616993e-18 -0.4221073)
(86.341248 1.7072449e-17 -0.53373155)
(93.217432 -4.0560002e-17 -0.59644175)
(99.301457 2.347768e-17 -0.67280842)
(104.17304 -2.6802415e-17 -0.75254225)
(105.57778 7.9317845e-17 -0.76968362)
(105.52949 -3.5569384e-17 -0.71504951)
(105.35966 1.4560701e-17 -0.73887264)
(105.25654 -2.8624245e-17 -0.65688663)
(105.08139 -3.5358454e-17 -0.67552485)
(104.92393 8.92567e-17 -0.58184562)
(104.71719 -6.6364254e-17 -0.57194122)
(104.50006 9.9356252e-18 -0.46968978)
(104.24038 -2.8803827e-17 -0.41536929)
(103.95225 8.4341448e-17 -0.291865)
(103.6209 -2.644652e-17 -0.17887945)
(103.24973 5.7733057e-18 -0.0086683721)
(102.83358 -5.8108977e-17 0.18411948)
(102.37435 3.0939181e-17 0.43706956)
(101.87495 -4.700362e-17 0.74203012)
(101.34325 -2.1205229e-17 1.1208264)
(100.79284 6.4955837e-17 1.5755986)
(100.24288 -1.3135488e-16 2.1157767)
(99.718565 -4.8132374e-17 2.7378973)
(99.247644 -8.9127432e-17 3.432909)
(98.856523 7.3313613e-17 4.178603)
(98.56395 -6.1067624e-17 4.9461886)
(98.383818 -3.0431189e-16 5.7038742)
(98.312636 -5.2642869e-18 6.4189746)
(98.339425 -2.2785531e-17 7.0667201)
(98.447136 1.9316039e-17 7.6359114)
(98.616689 7.3346706e-17 8.1236241)
(98.826562 -1.7337688e-16 8.5334734)
(99.056316 -1.6587066e-16 8.8760736)
(99.288028 -2.2820307e-16 9.1676061)
(99.509501 -4.1071905e-16 9.4195273)
(99.712786 1.7351463e-16 9.6387424)
(99.889044 -7.1758087e-16 9.8315841)
(100.04174 1.1595288e-16 10.008323)
(100.15877 -2.9230111e-16 10.158837)
(100.24474 6.2601908e-16 10.296988)
(100.33677 -2.2356682e-16 10.448153)
(100.39293 3.9574012e-16 10.564264)
(100.386 1.061725e-16 10.608689)
(100.37927 -2.5467882e-16 10.624417)
(100.42609 6.0601884e-16 10.694087)
(100.47256 -4.27692e-16 10.810149)
(100.49879 -9.3187892e-17 10.898977)
(100.50346 -1.9157022e-17 10.940899)
(65.675593 -1.7567825e-16 -0.72951383)
(78.388583 -1.0093223e-16 -0.74134782)
(86.572403 6.7345276e-17 -0.8815012)
(93.489003 9.3024307e-17 -0.97349252)
(99.584829 -1.2256457e-16 -1.0779665)
(104.29464 -6.9281792e-18 -1.1712425)
(105.45048 6.6755186e-17 -1.1895432)
(105.39043 8.6898697e-17 -1.1276655)
(105.21626 -6.3205298e-17 -1.1538825)
(105.11147 -6.5781397e-17 -1.0643348)
(104.93204 5.614146e-17 -1.0841872)
(104.7711 1.7569171e-17 -0.98354655)
(104.55936 -6.8489406e-17 -0.97176755)
(104.33696 3.9793507e-17 -0.86274786)
(104.07095 -8.517469e-17 -0.80300307)
(103.77566 -5.7832934e-17 -0.67116707)
(103.43628 1.0798173e-16 -0.54870854)
(103.05621 -2.1745688e-17 -0.36657046)
(102.63057 -3.3955653e-17 -0.15912677)
(102.16156 -4.852583e-17 0.11155133)
(101.65274 -2.8658472e-17 0.43808123)
(101.11285 4.5903851e-17 0.84238555)
(100.55667 1.4840185e-16 1.3269321)
(100.00478 -6.2115569e-17 1.9006214)
(99.48373 -8.7911619e-17 2.5591404)
(99.022268 8.8325968e-17 3.2916165)
(98.646209 -7.5158695e-17 4.0736264)
(98.374373 -2.2312698e-17 4.8747334)
(98.219478 4.1943117e-16 5.6612347)
(98.173163 -1.4250005e-16 6.399256)
(98.224211 2.750068e-16 7.0643899)
(98.353628 6.3430313e-17 7.6458826)
(98.541627 -4.5438555e-16 8.1415798)
(98.766504 -3.1805086e-16 8.5557649)
(99.007968 4.3077645e-16 8.8996841)
(99.248529 -3.9209126e-16 9.1904296)
(99.476905 1.4375503e-16 9.4406203)
(99.685562 -5.0710348e-16 9.6574639)
(99.866379 2.0832031e-16 9.8475249)
(100.02286 -8.8869901e-16 10.02126)
(100.14255 2.5427583e-16 10.16845)
(100.23163 5.7662342e-16 10.304144)
(100.32977 5.2691652e-16 10.453343)
(100.38438 -7.2541811e-16 10.568895)
(100.3779 1.0494738e-15 10.613495)
(100.37542 6.477204e-18 10.628186)
(100.42066 -1.7604354e-15 10.69521)
(100.46923 1.1036271e-16 10.809511)
(100.49701 3.2280699e-17 10.898204)
(100.50301 3.9163661e-16 10.94041)
(65.782588 1.3592837e-16 -0.99342214)
(78.559906 -1.4818605e-16 -1.0646397)
(86.791265 7.1594731e-17 -1.2352242)
(93.745909 -7.3231432e-17 -1.3562247)
(99.854452 7.3963039e-17 -1.4891534)
(104.37924 1.0564284e-16 -1.5922509)
(105.28792 -4.858831e-17 -1.6119545)
(105.23728 -1.3405837e-16 -1.5435713)
(105.05888 1.070179e-16 -1.5731672)
(104.95255 -7.9876295e-17 -1.4758838)
(104.76876 2.543993e-17 -1.4974716)
(104.60426 -3.5911865e-17 -1.3897258)
(104.3873 1.3294504e-17 -1.3760367)
(104.15939 2.844779e-17 -1.2599264)
(103.88676 7.6528197e-17 -1.1944305)
(103.58405 -4.5139885e-17 -1.053849)
(103.23635 3.5607274e-17 -0.92141031)
(102.84711 -2.5572418e-17 -0.72676999)
(102.41177 1.1302153e-17 -0.50396777)
(101.93282 3.2005827e-17 -0.21472002)
(101.41457 1.0216782e-16 0.13438255)
(100.86669 8.9468741e-18 0.5653429)
(100.30528 5.4576494e-17 1.0809097)
(99.752368 2.8236657e-16 1.6893735)
(99.235966 4.8852412e-17 2.3854277)
(98.78567 -1.5238267e-16 3.1561102)
(98.426499 -1.6826398e-16 3.9748402)
(98.177944 1.3763933e-16 4.8095248)
(98.049609 -7.9185315e-17 5.6242959)
(98.029854 1.9261688e-16 6.3843787)
(98.106508 2.4795921e-16 7.0659984)
(98.25871 9.9388099e-17 7.6588727)
(98.46576 -3.0622194e-16 8.1618001)
(98.706017 2.1987848e-16 8.5797049)
(98.95945 3.7474306e-16 8.9245088)
(99.209006 2.2494485e-16 9.2141725)
(99.444398 -4.850706e-16 9.4623687)
(99.658522 1.2853382e-16 9.6766742)
(99.843963 -4.5804181e-16 9.8638789)
(100.00423 -6.5694699e-17 10.03449)
(100.12658 5.9809113e-16 10.17837)
(100.21918 -6.3893935e-16 10.311811)
(100.3219 2.5131032e-15 10.458796)
(100.37447 -1.8334057e-16 10.57312)
(100.37019 -1.0910743e-15 10.618225)
(100.37154 -1.77784e-16 10.632419)
(100.4153 2.3205048e-15 10.696905)
(100.46584 3.6644175e-16 10.809194)
(100.49508 5.7361663e-16 10.897544)
(100.50244 -4.4917897e-16 10.939969)
(65.886893 9.5322101e-17 -1.2636898)
(78.728822 1.5467888e-16 -1.3922749)
(87.007219 -9.9992127e-17 -1.5951911)
(93.997386 6.3128714e-17 -1.7457532)
(100.11804 -1.7077657e-19 -1.9082615)
(104.43266 -1.3983946e-16 -2.0183143)
(105.10454 -1.2030304e-17 -2.04041)
(105.06995 1.1808012e-16 -1.9656882)
(104.88711 -7.3045416e-17 -1.9989677)
(104.77905 2.1209483e-17 -1.8930933)
(104.59069 -3.868016e-17 -1.9160234)
(104.42245 1.3105595e-16 -1.8006802)
(104.20009 -1.462907e-16 -1.7845877)
(103.96646 -2.0619965e-17 -1.6610204)
(103.687 6.9928248e-17 -1.5892294)
(103.37657 -2.5125828e-17 -1.4394769)
(103.02026 3.9796529e-17 -1.2964144)
(102.62153 1.2027854e-16 -1.0886113)
(102.17619 -8.5987058e-17 -0.84955418)
(101.6871 -1.0103509e-16 -0.54071559)
(101.15936 -1.6515599e-17 -0.16779465)
(100.6037 -2.924938e-16 0.29123446)
(100.03759 -8.2641514e-17 0.83936426)
(99.484655 -2.3316187e-16 1.484161)
(98.97439 -2.1187286e-16 2.2191338)
(98.537004 2.631915e-16 3.0289304)
(98.19691 3.5065575e-16 3.8849263)
(97.974382 1.5452206e-16 4.7531376)
(97.874015 6.7870584e-17 5.5954618)
(97.882854 -5.171614e-16 6.3765679)
(97.986453 -8.5218159e-16 7.0735295)
(98.162428 3.515065e-16 7.6766478)
(98.389422 1.4303782e-15 8.1857487)
(98.645737 1.119869e-16 8.6064925)
(98.911416 -1.5419969e-15 8.9515514)
(99.170106 5.9811623e-16 9.2397005)
(99.412539 -3.6975618e-16 9.4855448)
(99.632099 9.1858176e-16 9.6970437)
(99.822111 4.8480613e-16 9.8812463)
(99.986044 -4.8577471e-16 10.048559)
(100.11107 -2.508094e-15 10.1891)
(100.20744 5.979962e-16 10.320437)
(100.31355 -3.6492046e-15 10.464884)
(100.36535 -3.1767853e-16 10.577012)
(100.36293 1.9990124e-16 10.622745)
(100.36764 3.7687829e-16 10.637141)
(100.41014 -1.3599933e-15 10.699442)
(100.46247 4.0986214e-16 10.809461)
(100.49319 -1.0981699e-16 10.897123)
(100.50181 8.6635677e-17 10.939605)
(65.984584 -4.4692069e-17 -1.5403074)
(78.890549 1.1039474e-16 -1.7269808)
(87.215991 -5.3472669e-17 -1.9635392)
(94.239605 1.0466932e-16 -2.1439311)
(100.37002 -1.6366825e-17 -2.3370335)
(104.45126 1.0086349e-16 -2.4505536)
(104.92801 -4.3716673e-17 -2.4744601)
(104.88687 -3.7579099e-17 -2.391903)
(104.69971 3.3072814e-18 -2.4293938)
(104.59005 -5.2304936e-17 -2.3145046)
(104.39715 -7.7490207e-17 -2.3387186)
(104.22516 5.842508e-18 -2.2155539)
(103.99733 6.5344032e-17 -2.1968009)
(103.75781 1.0169114e-16 -2.0655576)
(103.47131 -3.0964196e-17 -1.9870356)
(103.15288 -3.5838566e-17 -1.827726)
(102.78766 -9.2058829e-18 -1.673406)
(102.37914 -1.1075992e-18 -1.4517585)
(101.92353 -3.7152626e-17 -1.1955424)
(101.4241 1.4828201e-17 -0.86604071)
(100.88688 -4.2476307e-17 -0.46800717)
(100.3237 1.8039591e-16 0.020554669)
(99.753555 2.5835093e-16 0.60282579)
(99.201744 3.8634517e-16 1.2855248)
(98.699276 5.2370645e-16 2.0607273)
(98.276612 -7.5462737e-17 2.9104908)
(97.958135 6.8045894e-17 3.8042456)
(97.764211 5.070656e-16 4.7057095)
(97.693364 -9.7974644e-17 5.5747112)
(97.73266 -1.7295403e-16 6.3757731)
(97.864516 4.1760637e-17 7.0868319)
(98.065233 -1.0753617e-15 7.6989997)
(98.312772 -1.801876e-15 8.2132446)
(98.585512 -1.1339521e-15 8.6360001)
(98.863809 1.6858697e-15 8.980622)
(99.131865 1.1098862e-15 9.2667927)
(99.381335 4.924559e-16 9.5099638)
(99.606275 -1.9804043e-16 9.718402)
(99.80079 -8.294748e-16 9.8994579)
(99.968263 1.5869982e-15 10.063332)
(100.09596 2.5667916e-15 10.200517)
(100.19627 -6.0493153e-16 10.329837)
(100.30482 1.7568593e-15 10.471482)
(100.35627 -1.6259671e-16 10.580721)
(100.35596 -2.5668154e-16 10.62699)
(100.36365 -1.1294397e-15 10.642236)
(100.40513 -8.7955337e-16 10.702692)
(100.45907 -5.8626182e-16 10.810298)
(100.49133 -1.7553443e-16 10.896958)
(100.50109 1.5511623e-16 10.939328)
(66.076267 -3.074335e-16 -1.8221369)
(79.046477 -7.0947209e-17 -2.067286)
(87.419195 9.1422106e-17 -2.3393087)
(94.472699 -5.8694347e-17 -2.5496545)
(100.60763 3.5515807e-17 -2.7745676)
(104.43328 3.8797876e-17 -2.8875606)
(104.72887 -1.2160165e-16 -2.9130137)
(104.68872 4.9085031e-17 -2.8212411)
(104.49709 -6.0232494e-18 -2.8634774)
(104.38576 1.4355996e-16 -2.7393941)
(104.18819 -5.3022934e-17 -2.7649928)
(104.01227 -3.425123e-17 -2.6339003)
(103.77878 6.1676526e-18 -2.6122752)
(103.53312 2.7567912e-17 -2.473187)
(103.2393 -5.7919854e-17 -2.3875034)
(102.91256 7.3859828e-17 -2.2182484)
(102.53809 -2.1962789e-17 -2.0520154)
(102.11944 1.3780741e-16 -1.8157947)
(101.65326 -6.50807e-17 -1.5414287)
(101.14333 -1.7598398e-17 -1.1901065)
(100.59664 2.3193011e-17 -0.76556583)
(100.02628 -2.540404e-16 -0.24590078)
(99.452863 -2.3079026e-16 0.3721934)
(98.903492 -3.9270415e-17 1.094437)
(98.410643 -8.0867966e-17 1.9111589)
(98.00467 -1.3490102e-16 2.8017465)
(97.710728 -4.0825523e-16 3.7336795)
(97.547526 -1.516611e-16 4.6679518)
(97.508231 -1.1454637e-16 5.5625799)
(97.579712 1.3852848e-15 6.3824366)
(97.741082 -2.1353923e-16 7.1062268)
(97.967423 -5.4984295e-17 7.7261653)
(98.236124 1.3733223e-15 8.2444463)
(98.525686 1.0810116e-15 8.6683152)
(98.816763 8.9774978e-17 9.0118169)
(99.094267 -1.4670457e-15 9.2955067)
(99.350892 -6.9329277e-16 9.5356405)
(99.581244 5.2475266e-16 9.74076)
(99.780146 -3.8451163e-16 9.9185109)
(99.95098 1.8727633e-15 10.07882)
(100.08128 -4.0135932e-16 10.212638)
(100.18556 -5.7919846e-16 10.339991)
(100.29593 -2.0222048e-15 10.478606)
(100.34747 1.9890381e-17 10.584487)
(100.34923 2.9045858e-16 10.630973)
(100.35955 -1.2711274e-15 10.647635)
(100.40028 2.9426484e-15 10.70661)
(100.45563 8.6086294e-16 10.811748)
(100.48936 5.5069001e-16 10.897091)
(100.50031 5.0292075e-17 10.939157)
(66.161647 2.1958606e-16 -2.1095702)
(79.197231 -2.514136e-16 -2.4119954)
(87.618064 4.1574019e-17 -2.7223816)
(94.698533 -3.4848804e-17 -2.9625563)
(100.82836 1.2150618e-16 -3.2199454)
(104.38035 -5.9984483e-17 -3.327811)
(104.51542 7.2257732e-17 -3.3555723)
(104.47577 -1.0389373e-16 -3.2539679)
(104.27943 -9.3724819e-17 -3.3012887)
(104.16626 1.3372623e-16 -3.1676796)
(103.96376 -6.1440359e-17 -3.1946665)
(103.78365 1.9036623e-17 -3.0555244)
(103.54422 -5.7038626e-17 -3.0307785)
(103.29208 -3.2398396e-17 -2.8836688)
(102.99062 -9.5621305e-17 -2.7903527)
(102.65519 7.3383297e-17 -2.610733)
(102.2711 -8.1105098e-17 -2.4318736)
(101.84196 8.2323597e-19 -2.1802916)
(101.36493 -1.9111895e-17 -1.8867282)
(100.84433 -4.8613905e-17 -1.5123325)
(100.28824 1.6067988e-16 -1.0597896)
(99.711122 1.5375788e-17 -0.50734753)
(99.135324 -2.0163356e-16 0.14834646)
(98.589879 -4.9499333e-16 0.91182898)
(98.108598 -1.0054249e-16 1.7713156)
(97.721549 -2.8968596e-16 2.7035886)
(97.455361 -5.5565841e-17 3.6739284)
(97.324624 -7.5286149e-16 4.6404037)
(97.319264 -5.430306e-16 5.5594905)
(97.424514 -1.0134933e-15 6.3968287)
(97.616583 1.655389e-15 7.1318876)
(97.869345 5.0689945e-16 7.7582454)
(98.159722 1.9232652e-16 8.2794095)
(98.46641 -6.1644143e-16 8.703465)
(98.770442 -8.4684085e-16 9.0451312)
(99.057473 -5.5463726e-16 9.3258237)
(99.321209 2.6541631e-15 9.5625463)
(99.556916 -3.7316239e-15 9.7640877)
(99.760216 4.4824684e-15 9.9383534)
(99.934313 -4.3780739e-15 10.094976)
(100.06711 -1.2852632e-16 10.22542)
(100.17522 1.8503276e-16 10.350836)
(100.28696 -1.5607847e-15 10.486258)
(100.33886 8.8807433e-16 10.588459)
(100.34271 -1.8399144e-15 10.634806)
(100.35531 1.8917982e-15 10.653231)
(100.39558 -1.6290942e-15 10.711118)
(100.45222 -6.1865815e-16 10.813817)
(100.48713 -2.2241036e-15 10.897556)
(100.49948 -1.4578299e-16 10.939121)
(66.241533 -4.0548777e-17 -2.4049299)
(79.34377 -5.1213814e-17 -2.760448)
(87.814092 -7.4516377e-17 -3.1127877)
(94.919062 3.2352386e-17 -3.383114)
(101.0285 -3.3418434e-18 -3.6732581)
(104.28811 -9.7048203e-17 -3.7713445)
(104.28644 8.5639795e-17 -3.8021383)
(104.2479 1.3629613e-16 -3.6899414)
(104.04655 -3.19131e-16 -3.7428082)
(103.93129 2.6782371e-16 -3.5994299)
(103.72359 6.983291e-17 -3.6277642)
(103.53897 -9.407008e-20 -3.4803968)
(103.29329 2.6681008e-17 -3.4521841)
(103.03432 -4.3893318e-17 -3.296815)
(102.72485 7.0666712e-17 -3.1953272)
(102.38034 -1.9771102e-16 -3.004869)
(101.98624 1.0115342e-16 -2.8126186)
(101.54623 4.6103817e-17 -2.544812)
(101.05803 -2.7468275e-19 -2.2309013)
(100.52663 5.0670354e-17 -1.8320793)
(99.961266 -2.7457069e-16 -1.3499316)
(99.377888 4.3157406e-16 -0.76292821)
(98.800755 3.3719203e-16 -0.067761361)
(98.260898 2.1680238e-16 0.73868467)
(97.793196 1.3356142e-16 1.6421606)
(97.427742 4.1329572e-16 2.6169645)
(97.192586 7.2957962e-16 3.625713)
(97.09608 -1.623752e-16 4.6235872)
(97.127044 1.3813103e-16 5.5658777)
(97.267598 -1.96145e-16 6.4192121)
(97.491464 -1.2258873e-15 7.1639841)
(97.771354 -1.0022927e-16 7.7953399)
(98.083838 -3.4923849e-16 8.3181866)
(98.407888 -6.8016362e-17 8.7414705)
(98.724976 -1.2830857e-15 9.0805698)
(99.021571 6.7019889e-16 9.3577376)
(99.292411 1.1554175e-15 9.5906664)
(99.533406 6.6948859e-16 9.7883603)
(99.740962 -1.2760933e-15 9.9589538)
(99.918178 2.80048e-15 10.111743)
(100.05346 1.3166591e-15 10.238796)
(100.16536 1.1299646e-15 10.362273)
(100.2781 5.1079247e-15 10.494407)
(100.33047 5.6354884e-16 10.592687)
(100.33652 3.7435386e-15 10.638568)
(100.351 3.3889662e-16 10.658802)
(100.391 -9.5812192e-16 10.716128)
(100.44892 1.5461712e-15 10.816491)
(100.48487 1.5597963e-15 10.898371)
(100.49864 -2.4440474e-16 10.939255)
(66.315482 8.051471e-17 -2.7060548)
(79.485172 4.4529865e-17 -3.1162244)
(88.006785 1.2184781e-16 -3.5117125)
(95.135291 -1.0599323e-16 -3.8128955)
(101.20393 -2.9081125e-16 -4.1352921)
(104.15025 1.1508474e-16 -4.2188136)
(104.0421 1.9089907e-17 -4.2536167)
(104.00455 1.0855378e-16 -4.129885)
(103.79794 -1.187245e-16 -4.1883802)
(103.68043 4.4487388e-18 -4.0347614)
(103.46727 1.4640231e-16 -4.0642319)
(103.27787 -1.5431548e-16 -3.9083984)
(103.02565 1.7188296e-16 -3.8763021)
(102.75947 -1.2346132e-16 -3.7124184)
(102.44159 9.2337679e-17 -3.6021705)
(102.08755 8.9371749e-17 -3.4003531)
(101.683 -2.3613103e-16 -3.1938699)
(101.23172 2.7866357e-16 -2.908891)
(100.73206 -1.4923152e-16 -2.5733994)
(100.18975 -8.3116282e-17 -2.1486796)
(99.615286 4.4740409e-16 -1.6352039)
(99.026275 5.2583722e-17 -1.011734)
(98.44903 -6.1283647e-16 -0.275128)
(97.916612 2.7753044e-16 0.57599653)
(97.46462 -4.2081051e-16 1.5247004)
(97.123928 1.5163725e-16 2.5428293)
(96.922807 9.6871496e-17 3.5897494)
(96.862631 3.8378826e-16 4.6179754)
(96.932178 6.5959328e-16 5.582129)
(97.109525 3.702968e-16 6.449807)
(97.366187 -5.5388776e-16 7.2026423)
(97.67381 8.7280663e-16 7.837513)
(98.008743 -1.759485e-16 8.3608041)
(98.350313 2.3072837e-16 8.7823355)
(98.680503 4.0638499e-16 9.1181221)
(98.986658 -1.9546446e-15 9.391229)
(99.264556 -4.7158592e-15 9.6199778)
(99.510756 3.5541135e-15 9.8135536)
(99.72247 -1.3347461e-15 9.9802821)
(99.902633 -1.7801163e-15 10.129094)
(100.04028 -3.7273749e-15 10.252712)
(100.15606 -1.7795765e-15 10.374095)
(100.2695 -3.4316406e-15 10.502903)
(100.32242 8.4069631e-16 10.597179)
(100.33059 -8.5898476e-16 10.64232)
(100.34662 -2.8217546e-15 10.664101)
(100.38652 -7.3237437e-16 10.721542)
(100.44567 -3.3512816e-15 10.819753)
(100.48286 2.380634e-15 10.899547)
(100.49769 7.4368218e-18 10.939587)
(66.382407 4.7202116e-16 -3.0126355)
(79.62038 1.6096022e-16 -3.4786012)
(88.195822 -1.0466447e-16 -3.9186376)
(95.347538 2.2128847e-16 -4.2512476)
(101.34835 -1.94032e-16 -4.6044565)
(103.96979 1.9741655e-16 -4.6689247)
(103.78214 -2.0978289e-16 -4.7091063)
(103.74545 2.0091206e-17 -4.5731112)
(103.53338 2.2891825e-18 -4.6374793)
(103.41345 1.8745016e-17 -4.4733038)
(103.19458 -3.6496396e-17 -4.5038064)
(103.00006 6.6936483e-17 -4.3393494)
(102.74095 -1.8492388e-17 -4.3029612)
(102.46711 3.9517617e-17 -4.1303011)
(102.14038 -1.404957e-16 -4.0106552)
(101.77633 -1.4558508e-17 -3.7968879)
(101.36086 9.8513121e-17 -3.5752551)
(100.8979 -1.7748394e-16 -3.272052)
(100.38649 3.059663e-16 -2.9136192)
(99.833179 2.0843949e-16 -2.4614094)
(99.249883 4.573268e-17 -1.9147574)
(98.655998 -1.2574021e-16 -1.2527895)
(98.080064 3.4972747e-17 -0.47269296)
(97.557134 -4.7899614e-16 0.42479831)
(97.123223 4.6053906e-16 1.4199876)
(96.810931 -1.1080739e-16 2.4820751)
(96.646267 -8.9183005e-16 3.5667508)
(96.625145 -4.5158335e-16 4.6240325)
(96.735321 7.9896853e-17 5.6085712)
(96.950876 -6.6055481e-16 6.4887939)
(97.241225 9.0161844e-16 7.2479532)
(97.577085 1.6966411e-15 7.8847997)
(97.934713 -8.9168534e-16 8.4072642)
(98.293882 -4.1432127e-16 8.8260453)
(98.63716 2.1873694e-15 9.1577669)
(98.952832 9.6332384e-16 9.4262725)
(99.237715 -1.0828255e-16 9.6504527)
(99.489014 -1.8139712e-15 9.8396383)
(99.704763 -1.907596e-15 10.002306)
(99.887701 5.7645011e-16 10.147005)
(100.02767 5.3940739e-15 10.26717)
(100.14742 2.1117205e-15 10.386265)
(100.2611 4.0755708e-15 10.511547)
(100.31465 3.3111975e-16 10.601911)
(100.32467 -1.6640801e-15 10.646171)
(100.34217 6.9193121e-16 10.669306)
(100.38217 5.9456829e-16 10.727255)
(100.44248 3.8117486e-15 10.823573)
(100.48107 -3.1657694e-15 10.901103)
(100.49655 -4.5280958e-16 10.94013)
(66.444694 8.1159979e-16 -3.3235017)
(79.750971 -6.6605669e-16 -3.8459118)
(88.381643 9.1623243e-17 -4.3320691)
(95.558002 1.3403229e-16 -4.697391)
(101.45664 -1.0934655e-16 -5.0792517)
(103.74777 4.0424505e-16 -5.1211183)
(103.50699 -2.2237404e-16 -5.1681892)
(103.47076 2.5622956e-17 -5.0194736)
(103.25285 -1.0926939e-16 -5.0901341)
(103.13018 6.047582e-17 -4.9151392)
(102.90522 -1.4773796e-16 -4.9465409)
(102.70516 5.4395282e-17 -4.773282)
(102.43871 2.7121079e-17 -4.7321073)
(102.15671 8.0796439e-17 -4.550347)
(101.82065 -1.623657e-16 -4.4205676)
(101.44608 5.1812268e-17 -4.194166)
(101.01922 2.1075122e-16 -3.9563575)
(100.54418 -2.7613173e-16 -3.6337674)
(100.02074 -2.0942566e-16 -3.250927)
(99.456416 -1.7632855e-16 -2.7694964)
(98.864644 -4.4285625e-18 -2.1876818)
(98.266799 -6.9362169e-17 -1.4850486)
(97.693812 3.2127061e-16 -0.65933449)
(97.182582 4.0853956e-16 0.2861835)
(96.769486 2.0594936e-16 1.3291396)
(96.489531 -9.9617881e-16 2.435547)
(96.363506 -1.038546e-16 3.557359)
(96.384452 -9.8016672e-16 4.6422512)
(96.53717 -5.991338e-16 5.6454647)
(96.792251 1.6446519e-15 6.5363097)
(97.117064 -5.5150931e-16 7.299968)
(97.48155 -3.8968638e-15 7.937204)
(97.862023 -1.9553951e-16 8.4575471)
(98.238787 6.616362e-16 8.8725699)
(98.595081 -3.3643374e-16 9.1994716)
(98.920188 1.5356015e-15 9.462834)
(99.211951 9.393251e-16 9.6820573)
(99.468236 1.6143654e-15 9.8665813)
(99.687901 5.2722351e-16 10.024987)
(99.873409 2.1773024e-15 10.165447)
(100.0156 -3.9962371e-15 10.282148)
(100.13922 -1.2196116e-15 10.398796)
(100.25298 -9.9366886e-16 10.520414)
(100.30694 -2.7508587e-16 10.606862)
(100.31893 1.9437777e-15 10.650317)
(100.33764 9.6507772e-16 10.674608)
(100.378 1.8546764e-15 10.733154)
(100.43948 -2.4196754e-15 10.827857)
(100.47937 5.3574663e-16 10.903043)
(100.49544 1.3221591e-15 10.940882)
(66.502503 -3.1111447e-16 -3.6415245)
(79.876939 2.254634e-16 -4.2220274)
(88.562869 1.0372482e-16 -4.7556236)
(95.768111 -7.0898134e-17 -5.1547543)
(101.5239 -2.719175e-16 -5.5610858)
(103.4822 4.2772666e-16 -5.5775851)
(103.21593 -3.0827125e-16 -5.6324827)
(103.17984 3.2860396e-16 -5.4699968)
(102.95572 -1.2213352e-16 -5.5469398)
(102.82998 -1.537682e-16 -5.3606543)
(102.59855 9.7418596e-17 -5.3926282)
(102.39248 -6.0588547e-17 -5.2102863)
(102.11826 1.4388895e-16 -5.1636835)
(101.82763 -8.7810457e-17 -4.9724009)
(101.48175 6.7778279e-17 -4.8316429)
(101.09616 -1.4590988e-17 -4.5918215)
(100.65745 -1.338729e-16 -4.3367196)
(100.16992 1.9416254e-16 -3.9934592)
(99.634235 6.7910599e-17 -3.5846035)
(99.058944 -1.7658208e-16 -3.0720894)
(98.459163 -1.7224949e-16 -2.4529848)
(97.858464 -5.1167146e-16 -1.7073894)
(97.290265 4.5954178e-16 -0.83388239)
(96.793076 6.9904851e-16 0.16132336)
(96.404102 -1.8356484e-16 1.2532869)
(96.160378 1.102473e-15 2.4041119)
(96.075415 1.4304613e-15 3.5621384)
(96.141329 1.928079e-15 4.6730784)
(96.338463 -6.1180669e-16 5.6930251)
(96.634267 -2.1062217e-15 6.5924452)
(96.994191 1.3254935e-15 7.3587017)
(97.387579 1.2736831e-15 7.9947006)
(97.790945 -6.2080905e-17 8.5116089)
(98.185223 -1.5943258e-15 8.9218611)
(98.554404 -1.3205151e-16 9.2431919)
(98.888816 2.1454992e-15 9.5008733)
(99.187326 -7.4309457e-16 9.7147538)
(99.448485 -3.0475427e-15 9.8943458)
(99.671918 -2.9457177e-16 10.048287)
(99.859785 3.797749e-16 10.184388)
(100.00411 1.5078301e-15 10.297623)
(100.13149 2.618142e-15 10.41166)
(100.24519 -1.3025097e-15 10.529488)
(100.29938 7.4320043e-16 10.612043)
(100.31336 4.1618714e-16 10.654651)
(100.33305 -3.725285e-15 10.680017)
(100.37389 -1.3083545e-15 10.739064)
(100.43666 -4.6869829e-16 10.832279)
(100.47773 4.0894884e-15 10.905303)
(100.4946 -8.9312779e-17 10.941822)
(66.551883 -1.2307173e-15 -3.9634272)
(79.994183 9.1305977e-16 -4.6020529)
(88.736442 -4.2041213e-16 -5.1848107)
(95.977261 -2.3544977e-16 -5.6188774)
(101.54752 4.0836387e-16 -6.0448794)
(103.17409 -7.7511782e-17 -6.0362579)
(102.90794 -1.5235784e-16 -6.1011408)
(102.87178 6.5620471e-17 -5.9243465)
(102.64104 -1.7728862e-16 -6.0078164)
(102.5119 4.3471315e-17 -5.8098193)
(102.27365 1.3855459e-16 -5.8420076)
(102.06117 4.5926029e-17 -5.6502649)
(101.77883 -2.0726217e-16 -5.5974892)
(101.47909 -1.4939783e-18 -5.3961903)
(101.12296 1.9020483e-16 -5.2435337)
(100.72587 -1.836822e-17 -4.9894312)
(100.27485 1.9953324e-16 -4.7158188)
(99.774497 -1.5342891e-16 -4.3504881)
(99.22637 2.729803e-16 -3.9138967)
(98.640238 6.2656906e-16 -3.3682887)
(98.033058 -4.8462983e-16 -2.709613)
(97.430826 5.5291766e-16 -1.9186343)
(96.86949 -4.3703087e-16 -0.99515648)
(96.388886 -6.3371402e-16 0.051449591)
(96.027987 -6.4238429e-16 1.19354)
(95.823969 -5.4915246e-17 2.3886323)
(95.783004 -7.85824e-16 3.5816052)
(95.896618 -1.0264755e-15 4.7168905)
(96.139959 1.4013387e-15 5.7514101)
(96.47755 1.649569e-15 6.6572369)
(96.873098 -1.2167482e-15 7.4241232)
(97.29554 -1.024088e-16 8.0572299)
(97.721745 7.1751937e-16 8.5693825)
(98.133378 2.5101742e-15 8.9738549)
(98.515255 -1.164726e-15 9.2888723)
(98.858798 -1.6251876e-15 9.540342)
(99.163919 2.7510367e-15 9.7484967)
(99.429807 4.6171792e-15 9.9228923)
(99.65678 -3.0462237e-16 10.072177)
(99.846847 -2.795495e-15 10.203798)
(99.993201 -3.0292749e-17 10.313577)
(100.12427 -2.6897285e-15 10.424827)
(100.23775 -8.3898893e-16 10.538752)
(100.2921 -4.8391614e-15 10.617465)
(100.30785 9.8721594e-17 10.659176)
(100.32842 1.0053376e-14 10.685535)
(100.36992 1.7655681e-16 10.745071)
(100.43403 7.8740859e-16 10.836755)
(100.47613 -6.3670363e-15 10.907536)
(100.49395 -1.3356758e-15 10.942825)
(66.595551 4.1376582e-16 -4.2910315)
(80.103927 4.3013695e-17 -4.9885222)
(88.900982 -4.1053558e-16 -5.6217165)
(96.183612 2.5700421e-16 -6.0917205)
(101.52759 2.2916173e-16 -6.5329907)
(102.85051 -4.9838327e-16 -6.4992128)
(102.58144 2.610133e-16 -6.575228)
(102.54517 -1.1411194e-16 -6.3831917)
(102.30758 1.6909001e-16 -6.473007)
(102.17487 -7.7268248e-19 -6.2626002)
(101.9296 -4.6432258e-17 -6.2943935)
(101.71042 1.1781055e-16 -6.0928806)
(101.41963 -6.3149432e-17 -6.0331203)
(101.11039 2.1985617e-17 -5.8213012)
(100.74355 -7.7646501e-17 -5.6557933)
(100.33451 1.5834579e-16 -5.3864761)
(99.870771 -2.528824e-16 -5.0930513)
(99.357236 -1.2621117e-16 -4.7041419)
(98.796535 -5.0008105e-18 -4.2379558)
(98.199777 -5.0681913e-17 -3.6570904)
(97.585973 4.7741685e-16 -2.9564035)
(96.983768 -2.682838e-16 -2.1175059)
(96.431623 -1.4593563e-16 -1.141892)
(95.970483 -5.3194486e-16 -0.042121848)
(95.642134 9.0942202e-17 1.1509554)
(95.480806 1.6628679e-16 2.389953)
(95.487385 1.3546606e-16 3.6162845)
(95.651211 1.5268838e-15 4.7739841)
(95.942439 -2.323771e-17 5.8207259)
(96.32273 4.4404084e-16 6.730676)
(96.754271 -1.2910612e-15 7.4961671)
(97.205795 -1.5224655e-15 8.1247049)
(97.654687 -1.5105887e-15 8.6307789)
(98.083435 -2.8393856e-15 9.0284711)
(98.47775 -3.7036622e-15 9.3364485)
(98.830232 3.9369049e-16 9.5811852)
(99.141818 1.2801354e-15 9.7832331)
(99.412189 -1.2938084e-15 9.9521822)
(99.642422 1.2516711e-15 10.096634)
(99.83457 3.3722368e-15 10.223658)
(99.98284 -2.9231073e-16 10.329998)
(100.11756 -9.11777e-16 10.438275)
(100.23064 5.446067e-16 10.548186)
(100.28495 2.4253001e-15 10.623119)
(100.30247 -3.6292247e-15 10.66388)
(100.32374 -3.6492172e-15 10.691165)
(100.36607 -2.5558906e-15 10.751165)
(100.43162 -5.9845781e-15 10.841309)
(100.47468 2.9787567e-16 10.909838)
(100.49336 -2.5067004e-15 10.943845)
(66.631513 7.1817514e-16 -4.6257658)
(80.203564 -5.8139909e-16 -5.3835709)
(89.052906 2.2543346e-16 -6.0686221)
(96.383326 1.6310692e-16 -6.575547)
(101.45847 -1.7588114e-16 -7.0274334)
(102.52778 3.7444088e-17 -6.9663594)
(102.23552 -1.9328299e-16 -7.052959)
(102.19925 1.1210927e-16 -6.844805)
(101.9547 -1.6231376e-16 -6.9411764)
(101.81828 -1.1990998e-16 -6.7180201)
(101.56578 -3.9062529e-17 -6.7490237)
(101.33956 1.0829524e-17 -6.5375825)
(101.04 4.692645e-17 -6.4700892)
(100.72083 4.5216531e-17 -6.24727)
(100.34287 1.0429551e-16 -6.0679206)
(99.921411 -9.6969845e-17 -5.7823955)
(99.444504 1.9560848e-16 -5.4677879)
(98.917477 -1.4375842e-17 -5.0536662)
(98.344117 -1.3353732e-17 -4.5558868)
(97.737055 -5.4156073e-16 -3.9374326)
(97.117587 -4.7510724e-16 -3.1921207)
(96.517225 3.6346952e-16 -2.3026674)
(95.976817 -6.8866936e-17 -1.2727574)
(95.5385 1.1654001e-15 -0.11803147)
(95.247487 1.0374472e-16 1.1265562)
(95.131766 -1.0787352e-15 2.4088019)
(95.189619 -5.378969e-16 3.6666948)
(95.406045 -6.600343e-16 4.8445683)
(95.746695 2.403996e-16 5.9010127)
(96.170439 -4.5386098e-16 6.8126972)
(96.638189 -6.2057933e-17 7.5747228)
(97.118697 4.1640783e-16 8.1970063)
(97.590023 -1.693662e-16 8.695687)
(98.035559 2.4857017e-15 9.0856158)
(98.442006 7.6051197e-15 9.3858456)
(98.803234 -3.7301727e-15 9.6233374)
(99.121052 -1.4320402e-15 9.8189117)
(99.395572 -2.392894e-15 9.982178)
(99.628924 1.4673948e-15 10.121605)
(99.822892 -7.3892975e-16 10.243957)
(99.973033 -1.3794179e-15 10.34687)
(100.11135 3.1019255e-15 10.451983)