/*--------------------------------*- C++ -*----------------------------------*\
| =========                 |                                                 |
| \\      /  F ield         | OpenFOAM: The Open Source CFD Toolbox           |
|  \\    /   O peration     | Version:  2306                                  |
|   \\  /    A nd           | Website:  www.openfoam.com                      |
|    \\/     M anipulation  |                                                 |
\*---------------------------------------------------------------------------*/
FoamFile
{
    version     2.0;
    format      ascii;
    arch        "LSB;label=32;scalar=64";
    class       volScalarField;
    location    "0.01";
    object      yPlus;
}
// * * * * * * * * * * * * * * * * * * * * * * * * * * * * * * * * * * * * * //

dimensions      [0 0 0 0 0 0 0];

internalField   uniform 0;

boundaryField
{
    upper
    {
        type            calculated;
        value           nonuniform List<scalar> 
150
(
52.628262
52.593017
52.587683
52.583476
52.590906
52.607881
52.633901
52.668103
52.710817
52.76247
52.822604
52.892021
52.971371
53.058011
53.155268
53.262242
53.376955
53.501505
53.635883
53.781813
53.936665
54.098929
54.269706
54.444553
54.624593
54.804423
54.986359
55.171243
55.357479
55.549565
55.74853
55.955183
56.168745
56.390719
56.622309
56.861788
57.109496
57.37002
57.643828
57.928961
58.224869
58.534821
58.861301
59.213042
59.581095
59.972982
60.379256
60.800886
61.225713
61.644278
62.04702
62.42994
62.793882
63.153448
63.529914
63.916703
64.29995
64.720866
65.187696
65.794845
66.598512
67.699232
69.346792
71.584073
74.151778
76.850195
79.524613
81.941345
83.952361
85.354231
85.910223
85.333448
83.330825
79.4106
73.649622
16.46236
21.556194
22.965012
24.663801
25.995802
27.204421
28.266342
29.225239
30.0913
30.880169
31.603527
32.270781
32.887062
33.459608
33.993447
34.494204
34.965084
35.409824
35.831809
36.235582
36.621096
36.990327
37.344398
37.687048
38.016837
38.335938
38.644222
38.944458
39.235356
39.519572
39.797739
40.075181
40.356152
40.638225
40.93028
41.246305
41.593023
41.849699
42.105869
42.360633
42.614105
42.866579
43.11779
43.369747
43.623377
43.878276
44.134569
44.391848
44.649754
44.909762
45.172347
45.43596
45.699938
45.966832
46.237302
46.511824
46.789855
47.069245
47.349047
47.631265
47.917219
48.20637
48.499946
48.796915
49.098972
49.408493
49.725436
50.047952
50.375298
50.708256
51.042962
51.377482
51.717374
52.072017
52.442321
)
;
    }
    lower
    {
        type            calculated;
        value           nonuniform List<scalar> 
150
(
58.409384
58.146449
57.908424
57.676735
57.455457
57.241872
57.036299
56.838189
56.647749
56.464885
56.288701
56.120069
55.959815
55.804185
55.655124
55.511701
55.373513
55.241366
55.112186
54.985989
54.862014
54.738299
54.612386
54.478941
54.339102
54.190641
54.038311
53.885474
53.732341
53.581811
53.435567
53.296232
53.156365
53.011936
52.857334
52.686567
52.490271
52.271103
52.026838
51.762164
51.484354
51.212207
50.953308
50.68209
50.382554
50.058043
49.694691
49.289586
48.843155
48.340545
47.772741
47.15029
46.506971
45.884578
45.244456
44.539126
43.706757
42.710555
41.507883
40.070829
38.347429
36.285787
33.796357
30.60642
26.470682
20.738626
14.122962
5.9356029
11.346063
21.710204
32.508152
44.681856
56.432202
67.590791
77.092
38.635095
41.934066
42.993705
44.102229
44.910802
45.607762
46.194387
46.706589
47.157743
47.560298
47.92458
48.256527
48.560122
48.841341
49.103634
49.349106
49.580791
49.800169
50.007841
50.206218
50.395852
50.578676
50.754625
50.925841
51.091118
51.25251
51.409677
51.565067
51.717584
51.868909
52.016636
52.162343
52.30628
52.446594
52.583266
52.718984
52.853866
52.988349
53.122413
53.2561
53.39016
53.524518
53.659503
53.796054
53.934309
54.073434
54.2146
54.355562
54.496705
54.638626
54.781517
54.922304
55.059157
55.193276
55.328382
55.468617
55.614634
55.763645
55.914596
56.067319
56.222353
56.378326
56.536519
56.695002
56.853653
57.011853
57.169801
57.327364
57.484749
57.644368
57.806039
57.966991
58.127195
58.288883
58.453016
)
;
    }
    inlet
    {
        type            calculated;
        value           uniform 0;
    }
    outlet
    {
        type            calculated;
        value           uniform 0;
    }
    back
    {
        type            empty;
    }
    front
    {
        type            empty;
    }
}


// ************************************************************************* //
