# p  FACE_DATA 600
# x y z  p
0.29893883 -0.05 0.060006728 19081.544
0.29682219 -0.05 0.060005155 19070.915
0.29471691 -0.05 0.060001576 19061.389
0.29262294 -0.05 0.05999591 19051.814
0.29054021 -0.05 0.059988277 19041.598
0.28846868 -0.05 0.059978645 19032.368
0.28640827 -0.05 0.059967018 19022.214
0.28435895 -0.05 0.059953476 19012.539
0.28232063 -0.05 0.05993795 19003.026
0.28029328 -0.05 0.059920485 18993.326
0.27827682 -0.05 0.059901123 18983.605
0.27627121 -0.05 0.059879855 18974.127
0.27427639 -0.05 0.05985667 18964.814
0.2722923 -0.05 0.059831621 18955.304
0.27031889 -0.05 0.059804697 18946.344
0.26835611 -0.05 0.05977592 18936.886
0.26640388 -0.05 0.059745343 18927.635
0.26446217 -0.05 0.059712935 18918.545
0.26253092 -0.05 0.059678711 18909.548
0.26061007 -0.05 0.059642689 18900.756
0.25869957 -0.05 0.059604861 18892.193
0.25679937 -0.05 0.059565286 18883.325
0.25490941 -0.05 0.05952394 18875.306
0.25302965 -0.05 0.059480841 18866.682
0.25116001 -0.05 0.059436049 18858.464
0.24930047 -0.05 0.059389522 18850.511
0.24745095 -0.05 0.059341283 18842.813
0.24561142 -0.05 0.059291325 18835.737
0.24378182 -0.05 0.05923967 18828.642
0.24196209 -0.05 0.059186367 18821.754
0.24015219 -0.05 0.059131421 18815.132
0.23835206 -0.05 0.059074821 18808.949
0.23656166 -0.05 0.059016618 18802.699
0.23478094 -0.05 0.058956769 18797.964
0.23300984 -0.05 0.05889526 18792.87
0.23124831 -0.05 0.05883224 18787.663
0.22949632 -0.05 0.058767617 18784.246
0.22775381 -0.05 0.058701363 18780.682
0.22602071 -0.05 0.058633589 18777.409
0.22429701 -0.05 0.058564274 18774.628
0.22258262 -0.05 0.058493448 18772.305
0.22087753 -0.05 0.058421069 18771.437
0.21918166 -0.05 0.058347132 18770.538
0.21749499 -0.05 0.058271731 18770.1
0.21581745 -0.05 0.058194856 18770.007
0.21414901 -0.05 0.058116493 18770.634
0.21248962 -0.05 0.05803665 18771.81
0.21083923 -0.05 0.057955337 18773.652
0.20919779 -0.05 0.057872577 18775.809
0.20756526 -0.05 0.057788393 18778.621
0.20594158 -0.05 0.057702763 18782.248
0.20432673 -0.05 0.057615706 18786.066
0.20272065 -0.05 0.057527277 18790.079
0.20112329 -0.05 0.057437457 18794.939
0.19953461 -0.05 0.05734625 18800.236
0.19795458 -0.05 0.057253621 18806.695
0.19638314 -0.05 0.057159665 18812.03
0.19482023 -0.05 0.05706438 18819.184
0.19326584 -0.05 0.056967732 18825.8
0.19171991 -0.05 0.056869749 18833.58
0.19018239 -0.05 0.056770463 18840.67
0.18865324 -0.05 0.056669846 18849.645
0.18713243 -0.05 0.056567899 18857.778
0.18561991 -0.05 0.056464666 18867.328
0.18411563 -0.05 0.056360132 18876.499
0.18261956 -0.05 0.056254318 18886.646
0.18113166 -0.05 0.056147258 18895.789
0.17965186 -0.05 0.056038987 18906.063
0.17818015 -0.05 0.05592942 18916.994
0.17671648 -0.05 0.055818588 18927.962
0.1752608 -0.05 0.05570656 18938.697
0.17381309 -0.05 0.055593325 18950.218
0.17237329 -0.05 0.055478844 18961.922
0.17094135 -0.05 0.055363199 18973.249
0.16951726 -0.05 0.055246341 18986.112
0.16810097 -0.05 0.055128259 18998.241
0.16669242 -0.05 0.05500905 19010.52
0.16529159 -0.05 0.054888659 19023.665
0.16389844 -0.05 0.054767078 19036.686
0.16251292 -0.05 0.054644372 19049.505
0.161135 -0.05 0.054520532 19062.732
0.15976465 -0.05 0.054395554 19075.912
0.15840181 -0.05 0.054269449 19089.733
0.15704647 -0.05 0.054142171 19104.098
0.15569857 -0.05 0.05401378 19117.631
0.15435807 -0.05 0.053884336 19131.275
0.15302494 -0.05 0.053753791 19145.314
0.15169915 -0.05 0.053622161 19159.432
0.15038066 -0.05 0.053489407 19174.745
0.14906942 -0.05 0.053355551 19189.187
0.1477654 -0.05 0.053220679 19203.857
0.14646858 -0.05 0.053084715 19219.439
0.1451789 -0.05 0.052947683 19234.129
0.14389634 -0.05 0.052809659 19248.845
0.14262085 -0.05 0.05267058 19264.489
0.14135242 -0.05 0.052530426 19280.29
0.14009099 -0.05 0.052389231 19296.146
0.13883652 -0.05 0.052247036 19311.566
0.137589 -0.05 0.052103837 19327.456
0.13634838 -0.05 0.051959625 19342.741
0.13511461 -0.05 0.051814476 19358.213
0.1338877 -0.05 0.051668228 19376.224
0.13266759 -0.05 0.051520967 19390.883
0.13145422 -0.05 0.051372868 19406.419
0.13024759 -0.05 0.051223701 19424.055
0.12904768 -0.05 0.051073499 19440.404
0.12785442 -0.05 0.050922382 19456.872
0.12666779 -0.05 0.050770303 19473.854
0.12548777 -0.05 0.050617245 19491.222
0.12431431 -0.05 0.050463216 19508.075
0.12314738 -0.05 0.050308326 19523.705
0.12198694 -0.05 0.050152493 19541.806
0.12083299 -0.05 0.049995623 19559.665
0.11968547 -0.05 0.049837846 19576.799
0.11854435 -0.05 0.049679176 19594.278
0.11740961 -0.05 0.049519574 19612.089
0.11628122 -0.05 0.049359037 19630.094
0.11515913 -0.05 0.049197589 19647.919
0.11404333 -0.05 0.049035234 19665.885
0.11293377 -0.05 0.048871989 19683.519
0.11183042 -0.05 0.048707847 19701.544
0.11073327 -0.05 0.048542821 19719.406
0.10964229 -0.05 0.048376866 19738.786
0.10855744 -0.05 0.048209982 19757.43
0.10747868 -0.05 0.048042235 19776.446
0.106406 -0.05 0.04787359 19795.867
0.10533935 -0.05 0.047704062 19815.244
0.10427873 -0.05 0.047533647 19834.734
0.10322407 -0.05 0.047362394 19852.799
0.10217537 -0.05 0.04719032 19871.636
0.10113259 -0.05 0.047017348 19891.452
0.10009572 -0.05 0.046843455 19911.931
0.099064719 -0.05 0.046668685 19931.48
0.098039551 -0.05 0.046493118 19950.114
0.097020189 -0.05 0.046316733 19969.54
0.096006622 -0.05 0.046139442 19990.284
0.094998822 -0.05 0.045961241 20010.917
0.09399675 -0.05 0.045782217 20030.779
0.093000378 -0.05 0.045602371 20051.248
0.092009685 -0.05 0.045421665 20071.838
0.091024643 -0.05 0.045240119 20092.658
0.090045231 -0.05 0.045057701 20114.417
0.089071419 -0.05 0.044874428 20135.312
0.088103174 -0.05 0.044690349 20156.223
0.087140475 -0.05 0.044505439 20177.551
0.086183303 -0.05 0.044319663 20199.643
0.08523163 -0.05 0.044133032 20221.403
0.084285425 -0.05 0.043945577 20243.077
0.083344663 -0.05 0.043757308 20264.702
0.082409326 -0.05 0.043568191 20287.476
0.081479394 -0.05 0.04337819 20310.282
0.080554831 -0.05 0.043187382 20331.926
0.079635605 -0.05 0.042995792 20354.382
0.078721718 -0.05 0.042803304 20378.431
0.077813136 -0.05 0.042609969 20401.093
0.076909826 -0.05 0.042415818 20425.109
0.07601178 -0.05 0.042220793 20448.977
0.075118966 -0.05 0.042024933 20472.792
0.074231361 -0.05 0.041828237 20496.393
0.073348934 -0.05 0.04163074 20519.744
0.072471679 -0.05 0.041432371 20544.815
0.071599572 -0.05 0.041233139 20568.778
0.070732583 -0.05 0.041033074 20593.904
0.069870697 -0.05 0.040832148 20618.401
0.069013884 -0.05 0.040630397 20643.318
0.068162134 -0.05 0.040427777 20668.786
0.067315419 -0.05 0.040224307 20694.081
0.06647372 -0.05 0.040019973 20720.629
0.065637027 -0.05 0.039814748 20747.111
0.06480531 -0.05 0.039608654 20773.509
0.063978543 -0.05 0.039401719 20799.064
0.063156705 -0.05 0.039193946 20825.303
0.062339788 -0.05 0.038985286 20852.311
0.061527775 -0.05 0.038775725 20880.131
0.060720649 -0.05 0.038565255 20908.484
0.059918385 -0.05 0.038353894 20936.788
0.059120963 -0.05 0.03814165 20965.268
0.058328367 -0.05 0.037928504 20993.626
0.057540575 -0.05 0.037714473 21021.248
0.056757564 -0.05 0.037499567 21049.224
0.055979327 -0.05 0.037283751 21078.494
0.055205861 -0.05 0.03706696 21109.34
0.054437144 -0.05 0.036849222 21139.482
0.053673142 -0.05 0.036630582 21169.723
0.052913841 -0.05 0.036411033 21199.773
0.052159229 -0.05 0.036190552 21230.879
0.051409301 -0.05 0.035969101 21262.755
0.050664044 -0.05 0.035746666 21295.044
0.049923426 -0.05 0.035523297 21326.804
0.049187444 -0.05 0.035298949 21360.643
0.048456093 -0.05 0.035073588 21393.88
0.047729344 -0.05 0.034847258 21427.592
0.047007184 -0.05 0.034619944 21461.629
0.046289611 -0.05 0.034391604 21496.657
0.045576607 -0.05 0.034162252 21530.985
0.044868158 -0.05 0.033931882 21566.627
0.044164259 -0.05 0.033700465 21602.167
0.043464894 -0.05 0.033468005 21638.445
0.042770054 -0.05 0.033234487 21675.142
0.042079734 -0.05 0.032999885 21713.513
0.041393929 -0.05 0.032764174 21752.823
0.040712625 -0.05 0.032527361 21793.083
0.040035798 -0.05 0.032289471 21833.372
0.039363443 -0.05 0.032050489 21875.182
0.038695563 -0.05 0.031810365 21917.991
0.038032168 -0.05 0.031569045 21962.049
0.037373226 -0.05 0.031326581 22004.655
0.036718733 -0.05 0.03108296 22048.749
0.036068678 -0.05 0.030838173 22091.605
0.035423063 -0.05 0.030592193 22137.942
0.034781926 -0.05 0.030344893 22184.623
0.034145213 -0.05 0.030096392 22229.637
0.033512917 -0.05 0.029846677 22276.893
0.032885063 -0.05 0.029595666 22325.221
0.032261651 -0.05 0.029343341 22375.396
0.031642677 -0.05 0.029089693 22425.245
0.031028119 -0.05 0.028834753 22475.235
0.030417982 -0.05 0.028578493 22526.989
0.029812303 -0.05 0.028320809 22581.468
0.029211079 -0.05 0.0280617 22635.599
0.028614285 -0.05 0.027801211 22690.408
0.028021925 -0.05 0.027539318 22746.324
0.027434034 -0.05 0.027275938 22805.069
0.026850619 -0.05 0.027011044 22863.712
0.026271654 -0.05 0.026744689 22923.528
0.025697179 -0.05 0.02647678 22986.136
0.025127212 -0.05 0.026207275 23048.893
0.024561729 -0.05 0.025936225 23112.276
0.024000753 -0.05 0.025663583 23178.527
0.023444336 -0.05 0.025389243 23247.157
0.022892447 -0.05 0.025113275 23315.634
0.022345135 -0.05 0.024835581 23388.532
0.02180243 -0.05 0.024556113 23458.854
0.021264293 -0.05 0.024274957 23531.678
0.0207308 -0.05 0.023991978 23607.951
0.020201992 -0.05 0.023707108 23685.495
0.019677842 -0.05 0.023420417 23762.813
0.019158403 -0.05 0.023131824 23844.384
0.018643727 -0.05 0.022841258 23926.562
0.018133826 -0.05 0.022548716 24011.498
0.017628739 -0.05 0.022254151 24097.06
0.017128471 -0.05 0.021957583 24185.446
0.016633127 -0.05 0.021658866 24279.266
0.016142724 -0.05 0.021358 24373.936
0.015657283 -0.05 0.021054987 24474.63
0.015176888 -0.05 0.020749728 24579.011
0.014701579 -0.05 0.020442196 24688.007
0.014231398 -0.05 0.020132367 24800.202
0.013766434 -0.05 0.019820157 24917.859
0.013306742 -0.05 0.019505528 25036.741
0.012852374 -0.05 0.019188457 25160.495
0.012403439 -0.05 0.018868841 25287.296
0.01195997 -0.05 0.018546687 25417.072
0.011522076 -0.05 0.018221915 25551.63
0.011089809 -0.05 0.017894514 25688.743
0.0106633 -0.05 0.017564386 25833.422
0.010242659 -0.05 0.01723145 25979.107
0.009827894 -0.05 0.016895788 26129.157
0.0094192167 -0.05 0.016557218 26287.306
0.0090167438 -0.05 0.016215673 26447.802
0.0086204858 -0.05 0.015871238 26613.36
0.0082306648 -0.05 0.015523765 26787.866
0.0078474301 -0.05 0.015173187 26965.617
0.00747084 -0.05 0.014819531 27147.896
0.0071010571 -0.05 0.014462741 27335.412
0.0067383047 -0.05 0.014102727 27529.981
0.0063827544 -0.05 0.013739427 27728.441
0.0060345067 -0.05 0.013372862 27930.644
0.0056937565 -0.05 0.013003011 28139.107
0.0053606882 -0.05 0.012629837 28354.772
0.0050354824 -0.05 0.012253323 28578.672
0.0047183926 -0.05 0.01187344 28810.427
0.0044096379 -0.05 0.011490161 29048.334
0.0041094132 -0.05 0.011103483 29291.851
0.0038179536 -0.05 0.010713443 29540.792
0.0035354728 -0.05 0.01032007 29794.721
0.0032621919 -0.05 0.0099233916 30053.964
0.0029983702 -0.05 0.0095234712 30318.146
0.0027442429 -0.05 0.0091203468 30586.602
0.0025000604 -0.05 0.0087141009 30858.346
0.0022660754 -0.05 0.0083048554 31132.771
0.0020425146 -0.05 0.0078926699 31410.453
0.0018296563 -0.05 0.0074776735 31691.255
0.0016277487 -0.05 0.0070600557 31972.555
0.0014369745 -0.05 0.006639968 32253.097
0.0012575291 -0.05 0.0062175973 32531.651
0.0010896146 -0.05 0.0057931737 32807.159
0.00093341056 -0.05 0.0053669215 33078.068
0.00078906403 -0.05 0.0049390744 33342.959
0.00065670868 -0.05 0.0045099018 33600.774
0.00053653171 -0.05 0.0040796665 33850.851
0.00042862038 -0.05 0.003648665 34090.477
0.00033294635 -0.05 0.003217232 34318.622
0.00024951873 -0.05 0.002785685 34534.762
0.00017832254 -0.05 0.0023543467 34737.771
0.00011930806 -0.05 0.0019235435 34926.259
7.2389968e-05 -0.05 0.0014936046 35099.307
3.7448892e-05 -0.05 0.0010648563 35256.171
1.4332163e-05 -0.05 0.0006376208 35396.506
2.8544133e-06 -0.05 0.00021221054 35520.273
0.99884037 -0.05 0.00016828408 27126.727
0.99652103 -0.05 0.00050440213 27065.98
0.99420154 -0.05 0.0008395204 26987.604
0.99188191 -0.05 0.0011736208 26919.063
0.98956214 -0.05 0.0015067636 26849.802
0.98724223 -0.05 0.001838948 26783.469
0.9849222 -0.05 0.0021701636 26718.491
0.98260202 -0.05 0.0025004302 26654.895
0.98028169 -0.05 0.0028297328 26592.614
0.97796124 -0.05 0.0031580577 26531.376
0.97564065 -0.05 0.0034854377 26471.266
0.97331994 -0.05 0.0038118591 26412.204
0.97099908 -0.05 0.0041373159 26354.217
0.96867809 -0.05 0.0044618578 26297.057
0.96635696 -0.05 0.0047854478 26241.006
0.96403572 -0.05 0.0051081172 26185.574
0.96171435 -0.05 0.0054299032 26131.218
0.95939284 -0.05 0.0057507069 26077.771
0.95707121 -0.05 0.0060705875 26025.029
0.95474946 -0.05 0.0063895914 25973.091
0.95242757 -0.05 0.0067076389 25922.087
0.95010556 -0.05 0.0070248024 25871.502
0.94778344 -0.05 0.0073411105 25821.871
0.94546118 -0.05 0.0076564368 25773.085
0.94313881 -0.05 0.007970866 25724.759
0.94081631 -0.05 0.0082844406 25677.138
0.93849369 -0.05 0.0085971026 25630.176
0.93617096 -0.05 0.0089088655 25583.787
0.9338481 -0.05 0.0092197817 25537.874
0.93152513 -0.05 0.0095298292 25492.66
0.92920205 -0.05 0.00983897 25447.953
0.92687884 -0.05 0.010147248 25403.705
0.92455553 -0.05 0.01045465 25359.991
0.92223209 -0.05 0.010761189 25316.612
0.91990855 -0.05 0.011066875 25273.806
0.91758488 -0.05 0.011371653 25231.566
0.91526111 -0.05 0.011675608 25189.423
0.91293723 -0.05 0.011978761 25147.825
0.91061324 -0.05 0.012281 25106.765
0.90828913 -0.05 0.012582372 25065.854
0.90596492 -0.05 0.012882964 25025.161
0.90364059 -0.05 0.013182677 24985.185
0.90131615 -0.05 0.013481494 24945.283
0.89899162 -0.05 0.013779572 24905.347
0.89666698 -0.05 0.014076842 24866.088
0.89434222 -0.05 0.014373142 24827.315
0.89201737 -0.05 0.014668681 24788.006
0.88969241 -0.05 0.014963453 24749.497
0.88736734 -0.05 0.0152573 24711.139
0.88504217 -0.05 0.015550344 24672.736
0.8827169 -0.05 0.015842646 24634.336
0.88039152 -0.05 0.016134071 24596.607
0.87806604 -0.05 0.016424635 24558.598
0.87574046 -0.05 0.016714466 24520.709
0.87341478 -0.05 0.017003468 24483.097
0.871089 -0.05 0.017291665 24445.366
0.86876312 -0.05 0.017579058 24407.891
0.86643714 -0.05 0.017865646 24370.21
0.86411107 -0.05 0.018151445 24332.734
0.86178489 -0.05 0.018436407 24295.2
0.85945862 -0.05 0.018720606 24257.391
0.85713225 -0.05 0.019004019 24219.766
0.85480578 -0.05 0.019286574 24182.152
0.85247921 -0.05 0.019568355 24144.073
0.85015256 -0.05 0.019849418 24105.841
0.84782581 -0.05 0.020129657 24067.725
0.84549896 -0.05 0.020409081 24029.184
0.84317202 -0.05 0.020687756 23990.341
0.84084499 -0.05 0.020965643 23951.392
0.83851786 -0.05 0.021242672 23912.378
0.83619063 -0.05 0.021518954 23872.424
0.83386332 -0.05 0.021794529 23832.299
0.83153592 -0.05 0.022069294 23791.817
0.82920841 -0.05 0.022343258 23750.85
0.82688083 -0.05 0.02261648 23709.074
0.82455316 -0.05 0.022888925 23667.066
0.82222538 -0.05 0.023160547 23624.497
0.81989751 -0.05 0.023431389 23581.346
0.81756956 -0.05 0.023701494 23537.333
0.81524153 -0.05 0.023970846 23492.789
0.8129134 -0.05 0.024239417 23447.406
0.81058518 -0.05 0.02450723 23401.225
0.80825687 -0.05 0.024774258 23354.239
0.80592849 -0.05 0.02504053 23306.169
0.8036 -0.05 0.025306023 23257.32
0.80127144 -0.05 0.025570774 23207
0.79894279 -0.05 0.025834763 23156.135
0.79661404 -0.05 0.026097924 23103.996
0.79428522 -0.05 0.026360374 23050.45
0.79195631 -0.05 0.026622048 22996.081
0.78962731 -0.05 0.026882938 22940.024
0.78729823 -0.05 0.027143126 22882.557
0.78496906 -0.05 0.027402517 22823.819
0.78263981 -0.05 0.02766117 22762.656
0.78031048 -0.05 0.027919081 22699.84
0.77798106 -0.05 0.028176144 22634.103
0.77565155 -0.05 0.028432494 22564.551
0.77332196 -0.05 0.028688107 22490.85
0.77099228 -0.05 0.028942908 22412.116
0.76866253 -0.05 0.029196968 22327.116
0.7663327 -0.05 0.029450285 22235.954
0.76400278 -0.05 0.029702803 22137.357
0.76167277 -0.05 0.029954568 22031.407
0.75934268 -0.05 0.030205573 21918.45
0.75701251 -0.05 0.030455803 21799.208
0.75468227 -0.05 0.030705313 21674.39
0.75235193 -0.05 0.030954045 21545.909
0.75002152 -0.05 0.031202018 21415.202
0.74769103 -0.05 0.031449207 21284.903
0.74536045 -0.05 0.031695625 21156.498
0.7430298 -0.05 0.031941289 21031.825
0.74069906 -0.05 0.032186181 20912.76
0.73836824 -0.05 0.032430305 20800.437
0.73603734 -0.05 0.032673645 20696.671
0.73370637 -0.05 0.032916233 20600.651
0.73137531 -0.05 0.033158092 20514.046
0.72904417 -0.05 0.033399148 20436.403
0.72671295 -0.05 0.033639377 20367.932
0.72438166 -0.05 0.03387888 20306.82
0.72205028 -0.05 0.034117645 20254.267
0.71971882 -0.05 0.034355552 20208.825
0.71738729 -0.05 0.034592685 20169.328
0.71505567 -0.05 0.034829099 20135.639
0.71272397 -0.05 0.035064674 20107.48
0.71039219 -0.05 0.035299486 20082.79
0.70806035 -0.05 0.035533544 20062.632
0.70572841 -0.05 0.035766778 20045.427
0.70339641 -0.05 0.035999269 20030.705
0.70106433 -0.05 0.03623098 20018.558
0.69873216 -0.05 0.036461892 20008.239
0.69639992 -0.05 0.036691978 20000.054
0.69406759 -0.05 0.036921269 19992.776
0.69173519 -0.05 0.03714974 19987.482
0.68940271 -0.05 0.037377398 19982.229
0.68707015 -0.05 0.037604327 19977.794
0.68473752 -0.05 0.03783047 19973.941
0.68240481 -0.05 0.038055756 19971.279
0.68007201 -0.05 0.038280206 19968.528
0.67773914 -0.05 0.038503859 19966.41
0.67540619 -0.05 0.03872673 19963.936
0.67307317 -0.05 0.038948784 19962.302
0.67074007 -0.05 0.039170028 19960.051
0.66840689 -0.05 0.039390456 19958.711
0.66607364 -0.05 0.039610024 19957.016
0.6637403 -0.05 0.039828774 19955.714
0.66140688 -0.05 0.040046679 19954.19
0.6590734 -0.05 0.040263799 19952.349
0.65673983 -0.05 0.040480084 19951.035
0.65440618 -0.05 0.040695489 19949.589
0.65207246 -0.05 0.040910082 19947.825
0.64973866 -0.05 0.041123838 19946.294
0.64740478 -0.05 0.04133674 19944.518
0.64507083 -0.05 0.041548788 19943.02
0.6427368 -0.05 0.04175995 19941.465
0.64040268 -0.05 0.041970278 19939.524
0.6380685 -0.05 0.042179753 19937.837
0.63573424 -0.05 0.042388355 19935.88
0.63339989 -0.05 0.042596094 19934.059
0.63106547 -0.05 0.042802945 19932.103
0.62873097 -0.05 0.04300894 19929.902
0.6263964 -0.05 0.043214055 19927.946
0.62406174 -0.05 0.043418269 19925.822
0.62172702 -0.05 0.043621601 19923.581
0.61939221 -0.05 0.043824069 19921.012
0.61705733 -0.05 0.044025645 19918.795
0.61472237 -0.05 0.044226271 19916.654
0.61238733 -0.05 0.044426006 19913.928
0.61005222 -0.05 0.04462488 19911.151
0.60771702 -0.05 0.044822825 19908.641
0.60538174 -0.05 0.045019806 19906.252
0.6030464 -0.05 0.045215861 19903.545
0.60071097 -0.05 0.045411024 19900.695
0.59837546 -0.05 0.045605254 19897.966
0.59603988 -0.05 0.045798556 19894.833
0.59370423 -0.05 0.045990938 19891.786
0.59136849 -0.05 0.046182352 19888.852
0.58903267 -0.05 0.046372791 19885.941
0.58669678 -0.05 0.046562266 19882.839
0.5843608 -0.05 0.046750814 19879.395
0.58202475 -0.05 0.046938396 19876.359
0.57968862 -0.05 0.047124972 19873.206
0.57735242 -0.05 0.047310579 19869.78
0.57501614 -0.05 0.047495251 19865.98
0.57267978 -0.05 0.047678924 19862.787
0.57034334 -0.05 0.04786155 19859.448
0.56800683 -0.05 0.048043188 19855.802
0.56567024 -0.05 0.048223861 19851.834
0.56333356 -0.05 0.048403536 19848.127
0.56099681 -0.05 0.048582153 19844.629
0.55865998 -0.05 0.04875972 19840.9
0.55632308 -0.05 0.048936314 19836.565
0.55398609 -0.05 0.049111879 19832.834
0.55164903 -0.05 0.049286359 19828.823
0.54931189 -0.05 0.049459794 19824.871
0.54697467 -0.05 0.049632163 19820.923
0.54463737 -0.05 0.049803468 19816.893
0.5423 -0.05 0.049973719 19812.656
0.53996254 -0.05 0.050142913 19808.32
0.53762502 -0.05 0.050311035 19803.98
0.53528742 -0.05 0.050478054 19799.778
0.53294973 -0.05 0.050643972 19795.279
0.53061196 -0.05 0.050808824 19790.539
0.52827412 -0.05 0.050972558 19786.128
0.5259362 -0.05 0.051135143 19781.562
0.5235982 -0.05 0.051296612 19776.937
0.52126012 -0.05 0.051456922 19772.504
0.51892198 -0.05 0.051616121 19767.41
0.51658374 -0.05 0.051774162 19763.091
0.51424543 -0.05 0.051931036 19757.888
0.51190704 -0.05 0.05208678 19753.173
0.50956857 -0.05 0.052241321 19748.34
0.50723003 -0.05 0.052394685 19743.394
0.50489141 -0.05 0.052546885 19738.17
0.50255271 -0.05 0.05269791 19733.028
0.50021394 -0.05 0.052847701 19728.117
0.49787509 -0.05 0.052996281 19722.783
0.49553616 -0.05 0.053143654 19717.576
0.49319715 -0.05 0.053289801 19712.112
0.49085807 -0.05 0.053434697 19707.016
0.48851891 -0.05 0.05357832 19701.779
0.48617967 -0.05 0.053720679 19696.589
0.48384036 -0.05 0.053861795 19690.902
0.48150096 -0.05 0.054001669 19685.317
0.4791615 -0.05 0.054140241 19679.829
0.47682195 -0.05 0.054277501 19674.35
0.47448234 -0.05 0.054413462 19668.745
0.47214264 -0.05 0.054548109 19663.17
0.46980287 -0.05 0.054681459 19657.124
0.46746302 -0.05 0.054813494 19651.304
0.4651231 -0.05 0.054944177 19645.313
0.4627831 -0.05 0.055073496 19639.552
0.46044304 -0.05 0.055201437 19633.613
0.45810288 -0.05 0.055328007 19627.715
0.45576266 -0.05 0.055453195 19621.674
0.45342237 -0.05 0.055576996 19615.673
0.451082 -0.05 0.05569938 19609.679
0.44874156 -0.05 0.055820362 19603.339
0.44640104 -0.05 0.055939944 19597.108
0.44406046 -0.05 0.056058044 19591.215
0.4417198 -0.05 0.056174717 19584.446
0.43937906 -0.05 0.05628996 19578.216
0.43703826 -0.05 0.056403696 19571.777
0.43469738 -0.05 0.056515954 19565.4
0.43235643 -0.05 0.056626691 19559.171
0.43001541 -0.05 0.056735938 19552.365
0.42767432 -0.05 0.056843696 19545.716
0.42533317 -0.05 0.056949929 19538.891
0.42299193 -0.05 0.057054582 19532.631
0.42065064 -0.05 0.05715767 19525.666
0.41830927 -0.05 0.057259222 19518.908
0.41596783 -0.05 0.057359191 19511.976
0.41362633 -0.05 0.057457551 19505.363
0.41128476 -0.05 0.057554292 19498.428
0.40894313 -0.05 0.057649427 19491.445
0.40660142 -0.05 0.057742965 19484.052
0.40425966 -0.05 0.057834838 19477.321
0.40191783 -0.05 0.057925023 19470.077
0.39957593 -0.05 0.058013541 19463.079
0.39723398 -0.05 0.058100378 19455.557
0.39489196 -0.05 0.058185525 19448.365
0.39254988 -0.05 0.058268918 19441.139
0.39020774 -0.05 0.058350591 19433.594
0.38786553 -0.05 0.058430541 19426.06
0.38552326 -0.05 0.058508715 19418.706
0.38318094 -0.05 0.058585094 19411.265
0.38083857 -0.05 0.058659688 19403.673
0.37849613 -0.05 0.058732482 19395.941
0.37615364 -0.05 0.058803471 19387.975
0.37381109 -0.05 0.058872605 19380.32
0.37146848 -0.05 0.058939856 19372.397
0.36912583 -0.05 0.059005237 19364.404
0.36678312 -0.05 0.059068742 19356.077
0.36444037 -0.05 0.059130353 19347.739
0.36209757 -0.05 0.059190049 19339.086
0.35975471 -0.05 0.059247824 19330.403
0.35741181 -0.05 0.059303603 19321.797
0.35506885 -0.05 0.059357402 19312.183
0.35272586 -0.05 0.059409225 19302.151
0.35038283 -0.05 0.059459045 19291.397
0.34803975 -0.05 0.059506859 19281.27
0.34569662 -0.05 0.059552581 19272.494
0.34335347 -0.05 0.059596249 19263.538
0.34101027 -0.05 0.059637862 19254.861
0.33866703 -0.05 0.059677333 19246.147
0.33632377 -0.05 0.059714702 19237.1
0.33398046 -0.05 0.059749909 19228.519
0.33163713 -0.05 0.059782951 19219.149
0.32929376 -0.05 0.059813858 19209.869
0.32695037 -0.05 0.059842535 19200.759
0.32460696 -0.05 0.059868968 19191.489
0.32226351 -0.05 0.059893141 19182.26
0.31992004 -0.05 0.059915067 19172.411
0.31757656 -0.05 0.059934727 19162.743
0.31523306 -0.05 0.059952066 19152.921
0.31288954 -0.05 0.059967055 19143.37
0.31054601 -0.05 0.059979678 19133.456
0.30820247 -0.05 0.059989926 19123.335
0.30585891 -0.05 0.059997793 19112.271
0.30351535 -0.05 0.060003209 19101.456
0.30117178 -0.05 0.060006157 19090.723
