/*--------------------------------*- C++ -*----------------------------------*\
| =========                 |                                                 |
| \\      /  F ield         | OpenFOAM: The Open Source CFD Toolbox           |
|  \\    /   O peration     | Version:  2306                                  |
|   \\  /    A nd           | Website:  www.openfoam.com                      |
|    \\/     M anipulation  |                                                 |
\*---------------------------------------------------------------------------*/
FoamFile
{
    version     2.0;
    format      ascii;
    arch        "LSB;label=32;scalar=64";
    class       volScalarField;
    location    "475";
    object      turbulenceProperties:L;
}
// * * * * * * * * * * * * * * * * * * * * * * * * * * * * * * * * * * * * * //

dimensions      [0 1 0 0 0 0 0];

internalField   nonuniform List<scalar> 
1340
(
0.0629534
0.0638648
0.0650201
0.0833541
0.182078
0.186343
0.187665
0.183758
0.21653
0.233688
0.24939
0.247293
0.222862
0.247515
0.272822
0.281178
0.224491
0.249912
0.280368
0.298318
0.250163
0.257438
0.283142
0.305313
0.221021
0.309958
0.294198
0.308985
0.0339708
0.192895
0.335659
0.316549
0.0240802
0.0938224
0.309514
0.333436
0
0
0.147477
0.353908
0
0
0.0499356
0.318765
0.248511
0
0.0364499
0.213738
0.0354625
4.23581
0.0225663
0.122946
0.0245266
3.00153
0.0441902
0.0621737
0.0253691
0.0355169
1.01442
0.0200605
0.0278293
0.0259059
1.93455
0.0570922
0.0296857
0.0252469
0.923136
1.22701
0.0301008
0.0268511
0.0445751
0.797491
0.0300211
0.0292439
0.0301676
0.122821
0.0301489
0.0310057
0.0293661
0.0439985
0.030589
0.0318411
0.0307854
0.0338969
0.0312266
0.0323207
0.032517
0.0326502
0.0319534
0.0328634
0.0338883
0.0335206
0.0327224
0.0335735
0.0349248
0.0349331
0.0335297
0.0344198
0.0358599
0.0363943
0.034391
0.03536
0.0368422
0.0378099
0.0353183
0.0363717
0.0379153
0.0392177
0.0363198
0.0374544
0.0390795
0.0406586
0.0374036
0.038616
0.0403323
0.0421572
0.0385732
0.0398621
0.0416704
0.0437194
0.0398337
0.0411992
0.0431012
0.0453516
0.041194
0.0426325
0.0446254
0.04706
0.0426592
0.0441715
0.0462521
0.0488481
0.0429502
0.0442366
0.0458195
0.0479881
0.0507261
0.0446097
0.0459344
0.0475838
0.0498359
0.0527008
0.0463988
0.0477591
0.049473
0.0518033
0.054779
0.0483253
0.0497199
0.0514946
0.0538978
0.0569701
0.0503973
0.0518246
0.053656
0.0561265
0.0592824
0.0526244
0.0540819
0.0559653
0.0584958
0.0617247
0.0550153
0.056501
0.0584327
0.0610152
0.0643063
0.0575793
0.0590909
0.061066
0.0636936
0.0670375
0.0603259
0.0618613
0.0638749
0.0665396
0.0699286
0.0632653
0.0648221
0.0668698
0.0695644
0.07299
0.0664071
0.0679828
0.0700608
0.072777
0.0762348
0.0697621
0.0713541
0.0734578
0.0761893
0.079673
0.0721077
0.0733402
0.0749472
0.0770725
0.0798133
0.0833175
0.0759099
0.0771519
0.0787717
0.0809154
0.0836599
0.0871811
0.079957
0.0812087
0.0828395
0.0849981
0.0877412
0.0912766
0.0842599
0.0855208
0.0871614
0.0893327
0.0920706
0.0956175
0.0888292
0.0900999
0.0917492
0.0939303
0.0966607
0.100216
0.0936758
0.0949561
0.0966141
0.0988041
0.101524
0.105087
0.0988115
0.100102
0.101768
0.103965
0.106675
0.110244
0.104247
0.105548
0.107222
0.109427
0.112125
0.1157
0.109993
0.111306
0.112989
0.115201
0.11789
0.121468
0.115034
0.116061
0.117388
0.119081
0.1213
0.123981
0.127563
0.121419
0.122464
0.123806
0.12551
0.127738
0.130413
0.133999
0.128146
0.129211
0.13057
0.132288
0.134527
0.137199
0.140789
0.135225
0.136312
0.137692
0.139426
0.141678
0.144352
0.147946
0.142664
0.143777
0.14518
0.146934
0.149203
0.151885
0.155484
0.15048
0.15162
0.153049
0.154826
0.157115
0.159809
0.163413
0.158704
0.159871
0.161325
0.163124
0.165434
0.168144
0.171751
0.166429
0.167389
0.16858
0.170055
0.171872
0.174199
0.176923
0.180524
0.175593
0.176581
0.177797
0.179293
0.181126
0.183465
0.186201
0.189781
0.185271
0.186297
0.187548
0.189074
0.190931
0.193286
0.196036
0.199592
0.195421
0.196505
0.19781
0.199384
0.201281
0.203668
0.206444
0.209975
0.20607
0.207238
0.208626
0.210277
0.212247
0.214704
0.217547
0.221097
0.216747
0.217984
0.219444
0.22117
0.223215
0.225764
0.228701
0.232329
0.226564
0.227861
0.229378
0.231157
0.233261
0.235892
0.238917
0.242436
0.234994
0.236169
0.237637
0.239309
0.241215
0.243442
0.24619
0.249392
0.252952
0.244496
0.245801
0.247436
0.249291
0.251388
0.253814
0.256754
0.260096
0.263454
0.255804
0.257345
0.259223
0.261334
0.263695
0.266405
0.269696
0.273628
0.277945
0.266168
0.267746
0.269698
0.271935
0.27447
0.277365
0.280757
0.284369
0.287236
0.283074
0.285199
0.287661
0.290374
0.293359
0.296791
0.301085
0.306751
0.313507
0.289198
0.291074
0.293393
0.29609
0.299121
0.302433
0.305861
0.308499
0.308674
0.321555
0.324533
0.327879
0.331601
0.335802
0.340923
0.348171
0.358868
0.373199
0.30016
0.301625
0.303548
0.305959
0.308626
0.311162
0.312347
0.310243
0.305084
0.340155
0.340419
0.341649
0.343892
0.347076
0.351547
0.35795
0.361799
0.36918
0.258797
0.261814
0.261754
0.261729
0.261883
0.262073
0.26187
0.259422
0.25373
0.250962
0.249875
0.250626
0.249886
0.248987
0.248228
0.247553
0.246607
0.243534
0.238612
0.238877
0.192089
0.20899
0.207517
0.206286
0.205571
0.204754
0.203672
0.201586
0.199813
0.216073
0.162178
0.298133
0.530126
0.36531
0.343867
0.338611
0.334532
0.331614
0.333723
0.343841
0.347516
0.273338
0.147114
0.0674525
0.0206515
0.0930023
0
3.01355
0.304979
0.0540805
0.0375227
0.0353202
0.0361217
0.0376908
0.0393439
0.0409213
0.0424672
0.0440346
0.0456567
0.0473399
0.0490866
0.0508995
0.0527802
0.054738
0.0567801
0.0589118
0.0611442
0.0634858
0.0659455
0.068534
0.0712634
0.0741449
0.0771871
0.0804078
0.0838158
0.0874242
0.0912479
0.0952997
0.0995937
0.104144
0.108963
0.114068
0.119471
0.125187
0.13123
0.137614
0.144355
0.151464
0.158957
0.166845
0.175142
0.183874
0.193083
0.202844
0.213167
0.224257
0.235536
0.245505
0.256312
0.266127
0.282328
0.288544
0.321801
0.305678
0.396045
0.297706
0.390316
0.251091
0.247823
0.223099
0.235876
0.293207
0.472209
0.695261
0.480295
0.427434
0.406784
0.395673
0.392661
0.405679
0.452989
0.507501
0.274701
0.113218
0.0313499
0.0640301
0
6.69146
0.67789
0.0763499
0.0479952
0.0437902
0.0440373
0.0454025
0.0469108
0.048335
0.0497198
0.0511323
0.0526067
0.054148
0.0557562
0.0574322
0.0591764
0.0609978
0.0629036
0.064898
0.0669928
0.0691949
0.071514
0.0739607
0.0765469
0.0792843
0.0821811
0.0852567
0.0885196
0.0919827
0.0956626
0.0995726
0.103727
0.10814
0.112827
0.117803
0.123083
0.128682
0.134615
0.140897
0.147543
0.154568
0.161987
0.169812
0.178059
0.186753
0.195934
0.205677
0.215991
0.227076
0.23843
0.248503
0.259622
0.269232
0.28613
0.291554
0.326842
0.30833
0.404555
0.300504
0.397403
0.254274
0.251495
0.297567
0.334731
0.421715
0.683729
0.837953
0.559456
0.485154
0.453987
0.438726
0.436991
0.457555
0.53116
0.42168
0.123016
0.0498662
0
0
6.20823
5.4586
0.126086
0.0647412
0.0560604
0.0553029
0.0563303
0.0575558
0.0586294
0.0596062
0.0605896
0.0616417
0.0627808
0.0640135
0.0653426
0.0667686
0.0683007
0.0699452
0.0717058
0.0735923
0.075608
0.0777632
0.0800649
0.0825237
0.0851478
0.0879446
0.0909323
0.0941164
0.0975092
0.101126
0.104979
0.109081
0.113446
0.118088
0.123022
0.128262
0.133822
0.139718
0.145963
0.152572
0.159559
0.16694
0.174728
0.182936
0.19159
0.200726
0.210422
0.220691
0.23172
0.243078
0.253116
0.264438
0.273694
0.291109
0.295772
0.33227
0.312307
0.40945
0.304297
0.398523
0.257027
0.341888
0.373536
0.427441
0.542102
0.912859
0.955162
0.630934
0.539431
0.499473
0.480522
0.47853
0.496507
0.528072
0.141118
0.0565192
0
0
0
1.88891
0.197975
0.0782098
0.06293
0.0610404
0.0622055
0.0638679
0.0652916
0.0664766
0.0675771
0.0686869
0.0698395
0.0710521
0.0723355
0.0736973
0.075153
0.0767146
0.0783918
0.0801955
0.0821323
0.084214
0.0864486
0.0888464
0.0914152
0.0941644
0.0971089
0.100254
0.103614
0.107201
0.111026
0.115103
0.119445
0.124063
0.128975
0.13419
0.139725
0.145595
0.15181
0.158388
0.16534
0.172682
0.180428
0.188589
0.197192
0.206267
0.215895
0.226096
0.237045
0.248379
0.258271
0.269708
0.278543
0.296456
0.300304
0.33792
0.316441
0.414023
0.307884
0.400213
0.373945
0.403639
0.443676
0.510095
0.647567
1.10395
1.08231
0.70796
0.598265
0.549551
0.527073
0.523809
0.536242
0.523139
0.507794
0
0
0
1.31326
10.5966
0.114447
0.071348
0.0669015
0.0677647
0.0694723
0.0711085
0.0724968
0.0737495
0.0749987
0.0762927
0.0776397
0.0790414
0.0805024
0.0820339
0.0836485
0.0853585
0.087175
0.0891076
0.0911706
0.0933746
0.0957309
0.0982508
0.100946
0.10383
0.106912
0.110207
0.113727
0.117483
0.121491
0.125764
0.130313
0.135155
0.140302
0.145769
0.151568
0.157715
0.164223
0.171105
0.178376
0.186052
0.194142
0.202672
0.21167
0.221215
0.231336
0.24219
0.253498
0.263247
0.274805
0.283246
0.301681
0.30472
0.343578
0.320342
0.419209
0.310866
0.3991
0.42672
0.460014
0.50608
0.58137
0.734164
1.23458
1.24488
0.790991
0.659389
0.600901
0.573769
0.566513
0.566111
0.534171
0.56038
0.464031
0
0
3.08285
7.55179
0.108737
0.0777216
0.0769712
0.0793643
0.0810164
0.082225
0.0832985
0.0843309
0.0854075
0.0865682
0.0878121
0.0891357
0.0905439
0.092047
0.0936547
0.0953736
0.097211
0.0991793
0.101288
0.103546
0.105967
0.108561
0.111341
0.114319
0.11751
0.120925
0.124576
0.128481
0.132651
0.137098
0.14184
0.146888
0.152258
0.157962
0.164015
0.17043
0.177221
0.184403
0.191989
0.199993
0.208437
0.217346
0.226795
0.236825
0.24757
0.258851
0.26847
0.280175
0.288219
0.307206
0.309374
0.349608
0.324368
0.42027
0.446129
0.474907
0.510611
0.560456
0.640897
0.800103
1.29437
1.47812
0.884942
0.724422
0.65398
0.620328
0.606064
0.594322
0.55587
0.128081
0.087527
0
0
0.00475654
0.83847
0.114957
0.0853729
0.087221
0.0913528
0.0931577
0.0941258
0.095125
0.0961289
0.0971345
0.0981958
0.0993306
0.100542
0.101846
0.103258
0.104791
0.106452
0.108254
0.110206
0.112316
0.114597
0.117058
0.119711
0.122569
0.125641
0.128943
0.132484
0.136282
0.140347
0.144692
0.149334
0.154283
0.159556
0.165163
0.171121
0.177441
0.184137
0.191223
0.198714
0.206622
0.214969
0.223778
0.233116
0.24304
0.253655
0.2649
0.274361
0.286221
0.293808
0.313382
0.314541
0.438567
0.464101
0.489441
0.518588
0.55558
0.607289
0.689407
0.846866
1.29522
1.85726
0.997187
0.796132
0.710187
0.667809
0.645407
0.626891
0.573441
0.215369
0.181112
0
0
0
0.98963
0.137049
0.0938676
0.0961456
0.102092
0.104278
0.105022
0.106055
0.107235
0.10837
0.109502
0.110684
0.111933
0.113269
0.114708
0.116264
0.117953
0.119788
0.121782
0.123947
0.126295
0.128837
0.131587
0.134555
0.137755
0.141197
0.144898
0.148868
0.15312
0.157669
0.162525
0.167707
0.173222
0.179086
0.185311
0.19191
0.198897
0.206286
0.214091
0.222329
0.231025
0.240236
0.250036
0.260497
0.271686
0.280948
0.292962
0.507554
0.483789
0.50427
0.528886
0.55814
0.595586
0.647663
0.728867
0.878893
1.26648
2.57919
1.13708
0.876612
0.770128
0.716754
0.686437
0.660031
0.599476
0.338483
0.355153
0
0
0
1.47156
0.202482
0.10567
0.105402
0.113259
0.116438
0.116782
0.11752
0.11872
0.11994
0.121126
0.122352
0.123657
0.125058
0.126565
0.128195
0.129963
0.131884
0.13397
0.136235
0.138692
0.141354
0.144234
0.147345
0.150698
0.154309
0.15819
0.162352
0.166812
0.171578
0.176667
0.182089
0.187857
0.193983
0.200479
0.207358
0.214637
0.222326
0.230444
0.239012
0.248075
0.257733
0.26801
0.135139
0.42861
0.526345
0.540054
0.564533
0.593883
0.631305
0.682797
0.761345
0.900922
1.22953
3.27524
1.32158
0.968843
0.834694
0.767899
0.728848
0.694722
0.631774
0.44315
0.572377
0
0
0
3.37013
0.492212
0.122894
0.114415
0.123301
0.129045
0.129876
0.130342
0.131426
0.132648
0.133835
0.135057
0.136372
0.137793
0.139337
0.141018
0.142852
0.144852
0.147031
0.149402
0.151977
0.154771
0.157795
0.161061
0.164585
0.168378
0.172452
0.176822
0.181496
0.186492
0.191818
0.197485
0.203507
0.209893
0.216656
0.223813
0.231373
0.239356
0
0.266382
0.505353
0.578175
0.573777
0.596803
0.626114
0.663292
0.713632
0.788613
0.916782
1.19463
2.44543
1.58625
1.07797
0.905646
0.822067
0.772798
0.73132
0.667947
0.528355
0.78344
0
0
0
4.58154
10.6661
0.164621
0.128135
0.13424
0.14161
0.143491
0.143977
0.144994
0.146236
0.147453
0.148699
0.150037
0.151491
0.153077
0.154813
0.156717
0.158801
0.161079
0.163564
0.16627
0.169208
0.172389
0.175828
0.179538
0.183527
0.187811
0.192397
0.197302
0.202533
0.2081
0.214014
7.39698e-08
0
0
0.355694
0.710151
0.607993
0.626598
0.655378
0.69206
0.740989
0.812083
0.929221
1.16554
1.95693
2.01862
1.21146
0.985131
0.880096
0.81895
0.770123
0.706628
0.605212
0.906073
0
0
0
0.000953312
1.38707
0.199752
0.143525
0.14656
0.154841
0.157719
0.158294
0.159268
0.160551
0.161828
0.163126
0.164523
0.166046
0.167713
0.169541
0.171549
0.17375
0.176158
0.178788
0.181653
0.18476
0.188127
0.191764
0.0930005
0.00424708
0
0
0.239169
0.990892
0.650123
0.655117
0.682412
0.718357
0.765733
0.833012
0.940007
1.14282
1.70069
2.93336
1.38158
1.07574
0.942976
0.867855
0.811144
0.748164
0.657677
0.904173
0.259429
0
0
0
1.86666
0.265195
0.161057
0.159778
0.168954
0.172943
0.173554
0.174441
0.175793
0.177163
)
;

boundaryField
{
    inlet
    {
        type            calculated;
        value           nonuniform List<scalar> 
11
(
0.091316
0.0937933
0.0926878
0.0916962
0.0908435
0.0901053
0.0894296
0.088765
0.087997
0.0897589
0.0874484
)
;
    }
    outlet
    {
        type            calculated;
        value           nonuniform List<scalar> 0();
    }
    walls
    {
        type            calculated;
        value           uniform 0;
    }
    frontAndBack
    {
        type            empty;
    }
    procBoundary6to2
    {
        type            processor;
        value           nonuniform List<scalar> 
13
(
0.142994
0.21826
0.277288
0.319294
0.350658
0.375891
0.393516
0.443902
0.181814
0
0
1.66397
0.228928
)
;
    }
    procBoundary6to3
    {
        type            processor;
        value           uniform 0.200376;
    }
    procBoundary6to5
    {
        type            processor;
        value           nonuniform List<scalar> 
86
(
0.0625868
0.175307
0.197624
0.198511
0.20263
0.312495
0.0414872
0.0259046
0
0
0.207957
0.0298388
0.0247235
0.0263606
0.0278216
0.0279718
0.0279403
0.0282306
0.0287583
0.0293568
0.0299529
0.0305516
0.0311822
0.0318671
0.0326155
0.0334313
0.0343181
0.0352793
0.03632
0.0374474
0.0386673
0.0399863
0.0414115
0.0414115
0.0418746
0.0435192
0.045293
0.0472044
0.0492621
0.0514749
0.0538521
0.056403
0.0591373
0.0620649
0.0651956
0.0685398
0.0685398
0.0711708
0.0749672
0.0790076
0.0833028
0.0878635
0.0927008
0.0978254
0.103248
0.108981
0.108981
0.114248
0.120614
0.12732
0.134375
0.141786
0.149573
0.15777
0.15777
0.165668
0.174802
0.184438
0.194529
0.2051
0.215735
0.225531
0.225531
0.233984
0.243358
0.25442
0.264704
0.281106
0.287159
0.319262
0.297256
0.342814
0.342814
0.269308
0.250444
0.220388
)
;
    }
    procBoundary6to7
    {
        type            processor;
        value           nonuniform List<scalar> 
91
(
0.222829
0.222829
0.255623
0.255623
0.259563
0.259563
0.401816
0.425065
0.401816
0.313719
0.356302
0.425065
0.328734
0.300019
0.320219
0.356302
0.32022
0.279127
0.288149
0.300019
0.300322
0.24778
0.256676
0.266169
0.279127
0.27623
0.220285
0.226924
0.233947
0.241366
0.24778
0.249195
0.19568
0.199887
0.204395
0.209215
0.214355
0.219825
0.220285
0.225631
0.178531
0.18
0.181611
0.183381
0.18533
0.187473
0.189824
0.192398
0.195207
0.19826
0.201572
0.19568
0.205153
2.9418
5.80679
0
0
0.0910166
0.185591
0.70634
0.68012
0.706029
0.741825
0.788066
0.851953
0.950061
1.12594
1.54696
4.83414
1.61121
1.18103
1.01174
0.919878
0.854837
0.791578
0.698426
0.316353
0.276931
0
0
0
2.91822
0.416209
0.182328
0.173727
0.184167
0.189881
0.190412
0.19093
0.178531
0.192233
)
;
    }
}


// ************************************************************************* //
