/*--------------------------------*- C++ -*----------------------------------*\
| =========                 |                                                 |
| \\      /  F ield         | OpenFOAM: The Open Source CFD Toolbox           |
|  \\    /   O peration     | Version:  2306                                  |
|   \\  /    A nd           | Website:  www.openfoam.com                      |
|    \\/     M anipulation  |                                                 |
\*---------------------------------------------------------------------------*/
FoamFile
{
    version     2.0;
    format      ascii;
    arch        "LSB;label=32;scalar=64";
    class       volScalarField;
    location    "475";
    object      turbulenceProperties:epsilon;
}
// * * * * * * * * * * * * * * * * * * * * * * * * * * * * * * * * * * * * * //

dimensions      [0 2 -3 0 0 0 0];

internalField   nonuniform List<scalar> 
1340
(
334.406
232.448
147.194
25.8525
26.5017
21.7496
17.6581
22.3833
31.967
23.9947
16.952
20.42
32.3919
26.5979
19.7612
21.4014
16.8984
21.0068
19.7602
21.7927
1.65734
7.51528
13.9851
19.8543
0.0333324
0.415803
4.89993
14.1002
0.00381996
0.0288757
0.464993
6.38533
0.000189785
0.0103594
0.0260785
1.52219
0
0
0.0112425
0.187958
0
0
0.00040794
0.0269718
2.65721e-09
0
0.000102507
0.00825342
1.10993e-06
5.23425e-13
3.04472e-05
0.00274793
4.90434e-06
1.44232e-12
5.194e-07
0.00068365
4.19668e-06
1.0812e-06
3.6519e-11
3.73489e-05
2.76943e-06
3.90017e-06
5.13428e-12
2.40501e-07
2.12078e-06
4.56696e-06
4.63263e-11
6.86135e-18
2.00645e-06
3.36175e-06
4.74215e-07
7.58618e-11
2.03218e-06
2.28446e-06
2.01495e-06
2.03547e-08
2.00308e-06
1.78775e-06
2.30435e-06
4.95352e-07
1.89232e-06
1.60577e-06
1.87787e-06
1.24799e-06
1.74228e-06
1.51426e-06
1.48859e-06
1.45719e-06
1.5885e-06
1.41845e-06
1.25591e-06
1.31516e-06
1.44401e-06
1.30299e-06
1.11223e-06
1.11349e-06
1.30976e-06
1.17963e-06
1.00078e-06
9.44058e-07
1.18339e-06
1.05903e-06
8.98453e-07
8.10064e-07
1.06392e-06
9.45971e-07
8.01061e-07
6.99821e-07
9.51345e-07
8.41219e-07
7.09803e-07
6.05786e-07
8.45784e-07
7.44468e-07
6.2563e-07
5.24146e-07
7.47774e-07
6.55654e-07
5.49051e-07
4.53149e-07
6.57518e-07
5.74596e-07
4.7969e-07
3.91348e-07
5.74873e-07
5.01133e-07
4.17435e-07
3.37539e-07
4.99873e-07
4.34855e-07
3.61734e-07
2.90764e-07
4.8646e-07
4.32298e-07
3.7559e-07
3.12163e-07
2.50035e-07
4.18012e-07
3.7184e-07
3.22908e-07
2.68377e-07
2.14614e-07
3.57172e-07
3.18189e-07
2.76338e-07
2.29871e-07
1.83853e-07
3.03534e-07
2.70888e-07
2.35433e-07
1.96169e-07
1.57158e-07
2.56612e-07
2.29491e-07
1.99729e-07
1.66818e-07
1.34036e-07
2.15854e-07
1.9351e-07
1.68748e-07
1.41389e-07
1.14048e-07
1.80707e-07
1.62437e-07
1.42001e-07
1.19444e-07
9.68078e-08
1.50607e-07
1.35778e-07
1.19047e-07
1.00585e-07
8.19695e-08
1.24995e-07
1.13041e-07
9.94475e-08
8.44491e-08
6.92315e-08
1.03336e-07
9.37605e-08
8.27935e-08
7.06918e-08
5.83271e-08
8.51244e-08
7.75028e-08
6.87094e-08
5.9012e-08
4.90131e-08
6.98929e-08
6.38615e-08
5.68545e-08
4.91294e-08
4.10846e-08
6.1233e-08
5.72196e-08
5.24677e-08
4.69159e-08
4.07961e-08
3.43543e-08
4.98561e-08
4.67226e-08
4.29966e-08
3.86184e-08
3.37948e-08
2.86574e-08
4.05029e-08
3.80631e-08
3.51533e-08
3.17162e-08
2.79323e-08
2.385e-08
3.2842e-08
3.09477e-08
2.86827e-08
2.59943e-08
2.30375e-08
1.98051e-08
2.65882e-08
2.51199e-08
2.33618e-08
2.12666e-08
1.89636e-08
1.64125e-08
2.14982e-08
2.0362e-08
1.9e-08
1.73708e-08
1.55825e-08
1.35747e-08
1.73652e-08
1.64871e-08
1.5434e-08
1.417e-08
1.27841e-08
1.12075e-08
1.40173e-08
1.33387e-08
1.25249e-08
1.15458e-08
1.04738e-08
9.23841e-09
1.13098e-08
1.07853e-08
1.0157e-08
9.39928e-09
8.57073e-09
7.60454e-09
9.45354e-09
9.12344e-09
8.71793e-09
8.23269e-09
7.64656e-09
7.00649e-09
6.25199e-09
7.61647e-09
7.35993e-09
7.04596e-09
6.6711e-09
6.21774e-09
5.72319e-09
5.1347e-09
6.1387e-09
5.93893e-09
5.69544e-09
5.40541e-09
5.0545e-09
4.67212e-09
4.21352e-09
4.95076e-09
4.79473e-09
4.60543e-09
4.38061e-09
4.10859e-09
3.81257e-09
3.45544e-09
3.99608e-09
3.87381e-09
3.7262e-09
3.5515e-09
3.34032e-09
3.11066e-09
2.83253e-09
3.22832e-09
3.13229e-09
3.01694e-09
2.88089e-09
2.7166e-09
2.53802e-09
2.32144e-09
2.60936e-09
2.53399e-09
2.44387e-09
2.33789e-09
2.21004e-09
2.07099e-09
1.90245e-09
2.15751e-09
2.10848e-09
2.04954e-09
1.97934e-09
1.89699e-09
1.79767e-09
1.68948e-09
1.55869e-09
1.74113e-09
1.70252e-09
1.65644e-09
1.60185e-09
1.53799e-09
1.46106e-09
1.37709e-09
1.27608e-09
1.40484e-09
1.37414e-09
1.33786e-09
1.29519e-09
1.24556e-09
1.18595e-09
1.12081e-09
1.04307e-09
1.13491e-09
1.11007e-09
1.08108e-09
1.04735e-09
1.00844e-09
9.61983e-10
9.11285e-10
8.51528e-10
9.17854e-10
8.97342e-10
8.73713e-10
8.46595e-10
8.15611e-10
7.78909e-10
7.38996e-10
6.92677e-10
7.49908e-10
7.33041e-10
7.13725e-10
6.91709e-10
6.66713e-10
6.37114e-10
6.05021e-10
5.68111e-10
6.28133e-10
6.1395e-10
5.97874e-10
5.79685e-10
5.59054e-10
5.34533e-10
5.07976e-10
4.79122e-10
5.42713e-10
5.32001e-10
5.18976e-10
5.04632e-10
4.8887e-10
4.71232e-10
4.50547e-10
4.2785e-10
4.04274e-10
4.63129e-10
4.53374e-10
4.41512e-10
4.28517e-10
4.14403e-10
3.98783e-10
3.80837e-10
3.6164e-10
3.43553e-10
3.86498e-10
3.77328e-10
3.66513e-10
3.54811e-10
3.42278e-10
3.28562e-10
3.12819e-10
2.95224e-10
2.77309e-10
3.2972e-10
3.22014e-10
3.12795e-10
3.0263e-10
2.91605e-10
2.7962e-10
2.66351e-10
2.53077e-10
2.43124e-10
2.57725e-10
2.5013e-10
2.41674e-10
2.32771e-10
2.2344e-10
2.13284e-10
2.01375e-10
1.86905e-10
1.71309e-10
2.36577e-10
2.30537e-10
2.23334e-10
2.15308e-10
2.06713e-10
1.97806e-10
1.89084e-10
1.82699e-10
1.82287e-10
1.54789e-10
1.49186e-10
1.43187e-10
1.36866e-10
1.30145e-10
1.22498e-10
1.12612e-10
9.97734e-11
8.53077e-11
2.03877e-10
1.99943e-10
1.94926e-10
1.88853e-10
1.82409e-10
1.76534e-10
1.73869e-10
1.78632e-10
1.91025e-10
1.23618e-10
1.23235e-10
1.2147e-10
1.18332e-10
1.14048e-10
1.08356e-10
1.00809e-10
9.65868e-11
8.90905e-11
3.68953e-10
3.5224e-10
3.52564e-10
3.52698e-10
3.51866e-10
3.50849e-10
3.51934e-10
3.65408e-10
3.99316e-10
4.17231e-10
4.24561e-10
4.19501e-10
4.24491e-10
4.30661e-10
4.35955e-10
4.40735e-10
4.47541e-10
4.70569e-10
5.1062e-10
5.08364e-10
1.2158e-09
8.67703e-10
8.92596e-10
9.14094e-10
9.26891e-10
9.4177e-10
9.61934e-10
1.00237e-09
1.03843e-09
7.59402e-10
59.8347
10.1202
1.69108
12.138
19.8987
21.7484
18.5398
11.4707
4.19281
0.67651
0.04564
0.00525396
0.00187633
0.000521138
1.67441e-05
5.04286e-08
0
1.30314e-12
1.21512e-09
2.37045e-07
8.33592e-07
1.06356e-06
9.76085e-07
8.22156e-07
6.91399e-07
5.90443e-07
5.08995e-07
4.40316e-07
3.81009e-07
3.29644e-07
2.85167e-07
2.46655e-07
2.13333e-07
1.8441e-07
1.59277e-07
1.37444e-07
1.18444e-07
1.01912e-07
8.75367e-08
7.50421e-08
6.41894e-08
5.47776e-08
4.6639e-08
3.96036e-08
3.35447e-08
2.834e-08
2.38801e-08
2.00707e-08
1.68267e-08
1.40733e-08
1.17439e-08
9.7785e-09
8.12607e-09
6.74052e-09
5.58205e-09
4.61601e-09
3.81239e-09
3.14543e-09
2.59298e-09
2.13629e-09
1.75932e-09
1.44816e-09
1.19101e-09
9.7777e-10
8.01663e-10
6.54454e-10
5.37798e-10
4.55613e-10
3.83488e-10
3.29963e-10
2.60489e-10
2.38746e-10
1.54319e-10
1.8954e-10
6.72613e-11
2.10678e-10
7.1304e-11
4.16371e-10
4.38842e-10
6.6817e-10
25.3269
18.7484
3.86899
1.09079
6.21423
10.9723
12.0371
9.34236
4.62195
1.0593
0.0619835
0.00108686
0.000251621
0.000131769
1.09897e-05
1.23989e-07
0
8.71241e-14
8.49334e-11
6.44127e-08
3.12503e-07
4.49865e-07
4.41983e-07
3.90591e-07
3.42146e-07
3.03353e-07
2.70902e-07
2.42193e-07
2.16168e-07
1.92588e-07
1.7131e-07
1.52169e-07
1.35005e-07
1.19587e-07
1.05739e-07
9.3328e-08
8.21907e-08
7.22168e-08
6.32949e-08
5.53258e-08
4.82191e-08
4.18968e-08
3.62946e-08
3.13339e-08
2.69633e-08
2.31262e-08
1.97679e-08
1.68411e-08
1.4301e-08
1.21054e-08
1.0216e-08
8.59612e-09
7.21331e-09
6.0375e-09
5.04141e-09
4.20063e-09
3.49337e-09
2.90029e-09
2.40437e-09
1.99086e-09
1.64686e-09
1.36092e-09
1.12321e-09
9.25012e-10
7.60555e-10
6.22556e-10
5.12167e-10
4.34022e-10
3.64307e-10
3.15001e-10
2.46917e-10
2.29041e-10
1.45017e-10
1.83103e-10
6.17776e-11
2.0294e-10
6.6352e-11
3.9591e-10
4.13772e-10
10.5451
12.4275
7.09219
1.27731
0.683254
4.0161
7.22764
7.82009
5.6085
2.30635
0.354778
0.00849218
9.45861e-05
1.82251e-05
8.58005e-06
0
0
1.28924e-16
1.21291e-13
1.05799e-08
9.5591e-08
1.67278e-07
1.77788e-07
1.64931e-07
1.51025e-07
1.40139e-07
1.31149e-07
1.22842e-07
1.14672e-07
1.06574e-07
9.85984e-08
9.08163e-08
8.33021e-08
7.60751e-08
6.91688e-08
6.26214e-08
5.64428e-08
5.06599e-08
4.5273e-08
4.02869e-08
3.56959e-08
3.14948e-08
2.76754e-08
2.42136e-08
2.10994e-08
1.83126e-08
1.58299e-08
1.36309e-08
1.16933e-08
9.9947e-09
8.51353e-09
7.22757e-09
6.11701e-09
5.16195e-09
4.34428e-09
3.64716e-09
3.05508e-09
2.55407e-09
2.13144e-09
1.7761e-09
1.47815e-09
1.2286e-09
1.01973e-09
8.44353e-10
6.97818e-10
5.7413e-10
4.74098e-10
4.03243e-10
3.38482e-10
2.94957e-10
2.30451e-10
2.16251e-10
1.35769e-10
1.73953e-10
5.88755e-11
1.93009e-10
6.56089e-11
3.79221e-10
4.87433
7.10074
6.49725
3.2758
0.479356
0.4586
2.65798
4.83854
5.24457
3.63637
1.36109
0.17796
0.00356788
7.5613e-06
3.62089e-06
0
0
0
2.78653e-12
2.43909e-09
4.68159e-08
1.05048e-07
1.19768e-07
1.11018e-07
9.96518e-08
9.11258e-08
8.47731e-08
7.93845e-08
7.43802e-08
6.95915e-08
6.49607e-08
6.04712e-08
5.61231e-08
5.18992e-08
4.78003e-08
4.38388e-08
4.00258e-08
3.63816e-08
3.29154e-08
2.96417e-08
2.65691e-08
2.37061e-08
2.10565e-08
1.86165e-08
1.63877e-08
1.43634e-08
1.25352e-08
1.08952e-08
9.43158e-09
8.13326e-09
6.98825e-09
5.98297e-09
5.1057e-09
4.3434e-09
3.68425e-09
3.11692e-09
2.63051e-09
2.2152e-09
1.8618e-09
1.56209e-09
1.30873e-09
1.09484e-09
9.14502e-10
7.61943e-10
6.33441e-10
5.24258e-10
4.34904e-10
3.72001e-10
3.12794e-10
2.74951e-10
2.14273e-10
2.0349e-10
1.26916e-10
1.65039e-10
5.6317e-11
1.84169e-10
6.45077e-11
2.10802
3.79816
4.61321
3.78967
1.81222
0.244916
0.294998
1.72405
3.21736
3.54554
2.44542
0.892128
0.115773
0.00238413
4.54874e-05
0
0
0
1.17619e-17
1.05251e-14
1.21915e-08
6.35422e-08
8.2978e-08
7.89e-08
7.12393e-08
6.4792e-08
5.99328e-08
5.59608e-08
5.2328e-08
4.88685e-08
4.55643e-08
4.24169e-08
3.94199e-08
3.65573e-08
3.38153e-08
3.11859e-08
2.86666e-08
2.62592e-08
2.39619e-08
2.17782e-08
1.97119e-08
1.77661e-08
1.59436e-08
1.42445e-08
1.26716e-08
1.12229e-08
9.89652e-09
8.69039e-09
7.59898e-09
6.6177e-09
5.74095e-09
4.9614e-09
4.27252e-09
3.66672e-09
3.13689e-09
2.67573e-09
2.27613e-09
1.93141e-09
1.63521e-09
1.38162e-09
1.1653e-09
9.81141e-10
8.24638e-10
6.91255e-10
5.77974e-10
4.81115e-10
4.00832e-10
3.44664e-10
2.90227e-10
2.57139e-10
1.99808e-10
1.9195e-10
1.18759e-10
1.57146e-10
5.35812e-11
1.77204e-10
0.696265
1.7532
2.76865
3.1041
2.45023
1.16851
0.16415
0.173409
1.11945
2.18758
2.4863
1.75042
0.660143
0.0938198
0.00259334
3.74206e-05
1.37727e-10
0
0
4.86345e-17
2.91267e-14
1.29385e-08
4.55237e-08
4.76473e-08
4.18706e-08
3.84641e-08
3.62244e-08
3.43851e-08
3.2733e-08
3.11155e-08
2.94803e-08
2.78448e-08
2.6227e-08
2.46329e-08
2.30628e-08
2.15194e-08
2.00093e-08
1.85388e-08
1.71104e-08
1.57294e-08
1.44016e-08
1.31299e-08
1.19193e-08
1.07724e-08
9.69299e-09
8.68241e-09
7.74232e-09
6.87384e-09
6.07556e-09
5.34683e-09
4.6861e-09
4.09021e-09
3.55629e-09
3.08046e-09
2.65905e-09
2.28773e-09
1.96223e-09
1.67829e-09
1.43172e-09
1.21848e-09
1.03481e-09
8.77033e-10
7.41824e-10
6.25697e-10
5.26228e-10
4.4064e-10
3.68689e-10
3.18615e-10
2.68607e-10
2.39845e-10
1.85818e-10
1.80658e-10
1.10776e-10
1.49488e-10
0.125912
0.585468
1.33287
1.99955
2.18805
1.72842
0.855304
0.139269
0.0883499
0.717409
1.50749
1.79406
1.31913
0.533553
0.0883312
0.00355765
2.25351e-06
3.09865e-07
0
0
2.91439e-21
2.08731e-11
9.96604e-09
3.17591e-08
2.90048e-08
2.38118e-08
2.19782e-08
2.1091e-08
2.0219e-08
1.93877e-08
1.8598e-08
1.78072e-08
1.7007e-08
1.62018e-08
1.53881e-08
1.45629e-08
1.37293e-08
1.28921e-08
1.20549e-08
1.12236e-08
1.04036e-08
9.59953e-09
8.81737e-09
8.06122e-09
7.33542e-09
6.64368e-09
5.98895e-09
5.37385e-09
4.79947e-09
4.26704e-09
3.77712e-09
3.32897e-09
2.92194e-09
2.5544e-09
2.22476e-09
1.93075e-09
1.67002e-09
1.44003e-09
1.23814e-09
1.06173e-09
9.0827e-10
7.75197e-10
6.60148e-10
5.60544e-10
4.74432e-10
3.99851e-10
3.36152e-10
2.92118e-10
2.46622e-10
2.22112e-10
1.71599e-10
1.69076e-10
0.00583852
0.0981109
0.432008
0.9676
1.45006
1.60389
1.30375
0.689223
0.140351
0.0355358
0.444596
1.03819
1.31522
1.02733
0.453931
0.0893428
0.00482746
9.11445e-06
5.01871e-07
0
0
0
1.15036e-11
5.12414e-09
2.18792e-08
1.97426e-08
1.52537e-08
1.39872e-08
1.36084e-08
1.30888e-08
1.25206e-08
1.20039e-08
1.15151e-08
1.10313e-08
1.05468e-08
1.0058e-08
9.56254e-09
9.06082e-09
8.5528e-09
8.04064e-09
7.52693e-09
7.01449e-09
6.50738e-09
6.0087e-09
5.52195e-09
5.05064e-09
4.59747e-09
4.16528e-09
3.75577e-09
3.37084e-09
3.01175e-09
2.6789e-09
2.37278e-09
2.09285e-09
1.83876e-09
1.6095e-09
1.40387e-09
1.22051e-09
1.05784e-09
9.14207e-10
7.88012e-10
6.77532e-10
5.81133e-10
4.96995e-10
4.23524e-10
3.59474e-10
3.03803e-10
2.65672e-10
2.24695e-10
4.04265e-06
0.00331396
0.0619467
0.289717
0.677935
1.05249
1.20646
1.02828
0.591151
0.153398
0.0095037
0.261557
0.708964
0.973242
0.817507
0.398721
0.0921696
0.00652729
3.50325e-05
6.39843e-07
0
0
0
3.17365e-12
1.3134e-09
1.35265e-08
1.37827e-08
1.00734e-08
8.98761e-09
8.89578e-09
8.68201e-09
8.33538e-09
8.00036e-09
7.69158e-09
7.38793e-09
7.08082e-09
6.76877e-09
6.45213e-09
6.1301e-09
5.80322e-09
5.47251e-09
5.13942e-09
4.80608e-09
4.47445e-09
4.14679e-09
3.8254e-09
3.51239e-09
3.21011e-09
2.91996e-09
2.64378e-09
2.38293e-09
2.13813e-09
1.9103e-09
1.6995e-09
1.50593e-09
1.32934e-09
1.16919e-09
1.02486e-09
8.95467e-10
7.80037e-10
6.77592e-10
5.87031e-10
5.07269e-10
4.3709e-10
3.75155e-10
3.20828e-10
1.86639e-06
1.14374e-06
0.00125349
0.0323296
0.177073
0.456561
0.757592
0.91815
0.832092
0.524868
0.170928
0.00362279
0.142188
0.476326
0.72245
0.659227
0.356004
0.0956445
0.00870163
9.70115e-05
7.01303e-07
0
0
0
2.38758e-13
7.658e-11
7.26353e-09
1.01034e-08
7.21577e-09
5.95899e-09
5.81234e-09
5.73655e-09
5.55021e-09
5.34771e-09
5.16033e-09
4.97607e-09
4.787e-09
4.59246e-09
4.39225e-09
4.1865e-09
3.97564e-09
3.76054e-09
3.54252e-09
3.32299e-09
3.10339e-09
2.88532e-09
2.67037e-09
2.46031e-09
2.25626e-09
2.0597e-09
1.87189e-09
1.69358e-09
1.52574e-09
1.36871e-09
1.2229e-09
1.08844e-09
9.65218e-10
8.53002e-10
7.51367e-10
6.59772e-10
5.77668e-10
5.04368e-10
0
6.68722e-10
7.66516e-06
0.000292265
0.0137482
0.0973781
0.292099
0.534571
0.698168
0.680527
0.472969
0.188474
0.0115638
0.0679896
0.311545
0.534269
0.534476
0.319506
0.0988194
0.0112946
0.00021886
8.73466e-07
0
0
0
1.26898e-16
1.92644e-15
2.30746e-09
6.35259e-09
5.16657e-09
4.11435e-09
3.90039e-09
3.85262e-09
3.74664e-09
3.62054e-09
3.50225e-09
3.38637e-09
3.26715e-09
3.14349e-09
3.01523e-09
2.88221e-09
2.74469e-09
2.6034e-09
2.45923e-09
2.31313e-09
2.16619e-09
2.0196e-09
1.87463e-09
1.73219e-09
1.5934e-09
1.45932e-09
1.33065e-09
1.20824e-09
1.09251e-09
9.83944e-10
8.82802e-10
7.89185e-10
2.52149e-28
0
0
7.98259e-06
3.21959e-05
0.00454864
0.0470655
0.174505
0.364897
0.524148
0.555732
0.42652
0.202904
0.0278817
0.0256863
0.195509
0.390785
0.432711
0.286346
0.101039
0.0141877
0.00043489
1.58915e-06
0
0
0
3.30534e-22
2.83377e-12
1.11464e-09
3.98805e-09
3.64905e-09
2.88168e-09
2.67217e-09
2.63639e-09
2.5735e-09
2.4919e-09
2.41404e-09
2.33813e-09
2.25975e-09
2.17796e-09
2.09265e-09
2.00381e-09
1.91163e-09
1.81661e-09
1.71928e-09
1.62031e-09
1.5205e-09
1.42076e-09
1.32175e-09
1.22429e-09
3.72489e-19
4.03919e-21
0
0
4.22265e-06
8.56561e-07
0.00106792
0.0192994
0.0952956
0.237351
0.384046
0.448376
0.380973
0.211927
0.0480388
0.00568595
0.115352
0.280644
0.34796
0.255105
0.101879
0.0172753
0.000736394
3.69468e-06
3.91155e-10
0
0
0
1.07237e-12
4.05615e-10
2.48812e-09
2.59303e-09
2.03555e-09
1.84827e-09
1.82427e-09
1.78843e-09
1.73383e-09
1.68063e-09
)
;

boundaryField
{
    inlet
    {
        type            calculated;
        value           nonuniform List<scalar> 
11
(
2.38059e-08
2.13888e-08
2.24277e-08
2.34136e-08
2.43052e-08
2.51115e-08
2.58791e-08
2.6663e-08
2.76062e-08
2.55017e-08
2.83056e-08
)
;
    }
    outlet
    {
        type            calculated;
        value           nonuniform List<scalar> 0();
    }
    walls
    {
        type            calculated;
        value           uniform 0;
    }
    frontAndBack
    {
        type            empty;
    }
    procBoundary6to2
    {
        type            processor;
        value           nonuniform List<scalar> 
13
(
38.8428
11.8715
4.68125
1.90052
0.601765
0.109229
0.00570878
5.29577e-06
3.85701e-06
0
0
1.24408e-12
6.08968e-10
)
;
    }
    procBoundary6to3
    {
        type            processor;
        value           uniform 1.02402e-09;
    }
    procBoundary6to5
    {
        type            processor;
        value           nonuniform List<scalar> 
86
(
416.599
34.2678
44.1672
37.1686
9.07868
0.0463764
0.0124767
0.001184
0
0
4.57734e-09
2.09259e-06
4.58383e-06
3.44919e-06
2.75323e-06
2.69777e-06
2.71844e-06
2.61141e-06
2.42333e-06
2.2297e-06
2.05652e-06
1.89983e-06
1.75083e-06
1.6052e-06
1.4629e-06
1.32525e-06
1.19349e-06
1.06863e-06
9.51308e-07
8.41821e-07
7.40507e-07
6.47534e-07
5.62887e-07
5.62887e-07
5.38393e-07
4.61507e-07
3.93351e-07
3.33407e-07
2.81096e-07
2.35788e-07
1.96832e-07
1.63568e-07
1.35352e-07
1.11565e-07
9.16297e-08
7.50135e-08
7.50135e-08
6.4521e-08
5.24113e-08
4.24849e-08
3.43773e-08
2.77765e-08
2.24169e-08
1.8076e-08
1.45672e-08
1.17356e-08
1.17356e-08
9.71648e-09
7.82175e-09
6.2995e-09
5.07722e-09
4.09593e-09
3.30727e-09
2.67168e-09
2.67168e-09
2.19741e-09
1.77285e-09
1.43038e-09
1.15585e-09
9.35343e-10
7.64084e-10
6.39711e-10
6.39711e-10
5.52143e-10
4.7185e-10
3.94978e-10
3.37075e-10
2.65017e-10
2.4337e-10
1.59285e-10
2.11961e-10
1.19827e-10
1.19827e-10
3.14638e-10
4.20715e-10
7.01643e-10
)
;
    }
    procBoundary6to7
    {
        type            processor;
        value           nonuniform List<scalar> 
91
(
6.7141e-10
6.7141e-10
3.87685e-10
3.87685e-10
3.64614e-10
3.64614e-10
6.34844e-11
5.06888e-11
6.34844e-11
1.70845e-10
1.02682e-10
5.06888e-11
1.41702e-10
2.04284e-10
1.57406e-10
1.02682e-10
1.57398e-10
2.72685e-10
2.40096e-10
2.04284e-10
2.03468e-10
4.39191e-10
3.81389e-10
3.29811e-10
2.72685e-10
2.84316e-10
7.03082e-10
6.24339e-10
5.52669e-10
4.87787e-10
4.39191e-10
4.29306e-10
1.1292e-09
1.03708e-09
9.48587e-10
8.64132e-10
7.84178e-10
7.08996e-10
7.03082e-10
6.38781e-10
1.62969e-09
1.57716e-09
1.52194e-09
1.464e-09
1.40339e-09
1.34032e-09
1.27512e-09
1.20825e-09
1.14019e-09
1.07155e-09
1.00285e-09
1.1292e-09
9.34646e-10
1.73627e-13
3.28456e-16
0
0
4.35185e-07
6.30991e-07
0.000134312
0.00628625
0.0460424
0.144237
0.270944
0.353829
0.334216
0.214186
0.0683843
0.00075789
0.0619756
0.196279
0.276619
0.225112
0.101196
0.0203737
0.00112669
1.14724e-06
5.98995e-08
0
0
0
2.58324e-13
8.98125e-11
1.49911e-09
1.86555e-09
1.44403e-09
1.27129e-09
1.25847e-09
1.24605e-09
1.62969e-09
1.21262e-09
)
;
    }
}


// ************************************************************************* //
