/*--------------------------------*- C++ -*----------------------------------*\
| =========                 |                                                 |
| \\      /  F ield         | OpenFOAM: The Open Source CFD Toolbox           |
|  \\    /   O peration     | Version:  2306                                  |
|   \\  /    A nd           | Website:  www.openfoam.com                      |
|    \\/     M anipulation  |                                                 |
\*---------------------------------------------------------------------------*/
FoamFile
{
    version     2.0;
    format      ascii;
    arch        "LSB;label=32;scalar=64";
    class       volScalarField;
    location    "650";
    object      magR;
}
// * * * * * * * * * * * * * * * * * * * * * * * * * * * * * * * * * * * * * //

dimensions      [0 2 -2 0 0 0 0];

internalField   nonuniform List<scalar> 
1340
(
0.023538
0.0274623
0.0324771
0.0392891
0.0473599
0.0576334
0.0707697
0.0870427
0.107706
0.134069
0.16813
0.213099
0.273425
0.356423
0.474563
0.647437
0.913676
1.32394
2.04423
3.16547
5.69255
9.51444
22.2743
43.4767
48.178
46.0954
45.3011
46.1328
47.1591
47.4155
46.7839
45.386
43.1296
40.0429
36.0566
0.0200321
0.0171884
0.0140008
0.0112669
0.00868561
0.00635916
0.00448042
0.00360469
0.0035844
0.00354304
0.00344051
0.00328197
0.00309976
0.00288482
0.00264314
0.00240399
0.0021695
0.00194594
0.00179066
0.0017693
0.00194391
0.0025245
0.00397257
0.00759027
0.0159145
0.0384354
0.0942136
0.279361
0.771383
2.37063
7.59359
14.8479
22.3418
29.4099
34.4227
35.4236
32.5038
27.7016
22.8396
18.8958
15.8731
13.551
0.0035722
0.00352403
0.00342528
0.00327883
0.00307843
0.00281404
0.00241978
0.00240068
0.00234655
0.00226375
0.00217717
0.00208202
0.00198581
0.00189929
0.00182488
0.00176716
0.00172253
0.00169697
0.00169013
0.00170492
0.00171043
0.00165727
0.00140703
0.00119032
2.15982e-05
0.00168923
0.000378849
0.001465
5.20655e-05
0.0207122
0.226397
0.802299
2.03678
4.57181
9.02705
14.9075
20.2184
22.8283
22.3163
20.0373
17.384
0.00243863
0.00243561
0.00242913
0.00238587
0.00230911
0.00218026
0.00204215
0.00204636
0.00203608
0.00201912
0.00198413
0.00193205
0.00186712
0.00178607
0.00169343
0.00159096
0.00148086
0.00136465
0.00124345
0.00111951
0.00099389
0.00086191
0.000729318
0.000616014
0.000471255
0.000338806
7.92502e-05
0.000144639
1.84021e-05
0.00519117
0.026787
0.000358044
0.00487937
0.00710356
0.0508557
0.452698
1.9638
5.33658
9.99739
13.8713
15.5406
0.00202024
0.00198706
0.00193497
0.00187224
0.00179357
0.0015321
0.00152939
0.00151745
0.00149615
0.0014632
0.00141852
0.00136452
0.00130202
0.00123305
0.00116185
0.00109069
0.00102244
0.000960141
0.00090569
0.000860413
0.000822352
0.000782336
0.000731587
0.000674115
0.000588904
0.000491955
0.000226089
2.756e-05
5.54406e-06
0
1.79712e-05
0.00106062
0.00657487
0.0330569
0.0171321
0.0373328
0.065623
0.410411
2.397
6.15394
0.00152813
0.00151732
0.0014958
0.00146134
0.00141275
0.0012558
0.00126116
0.00126065
0.00125615
0.00124381
0.00122381
0.00119703
0.0011624
0.00112064
0.00107288
0.00101954
0.000961856
0.00090121
0.000838671
0.000775351
0.000709716
0.000638204
0.00056482
0.000495633
0.000435699
0.00039637
0.000336934
0.000273884
7.13531e-05
1.25109e-05
5.7674e-06
1.20748e-06
0
0
0.00240698
0.00891019
0.0456364
0.00860649
0.111251
0.243328
0.00124442
0.0012287
0.00120582
0.00117563
0.00101587
0.00102033
0.00102104
0.00101846
0.00101034
0.000996297
0.000976651
0.000950828
0.000919056
0.000882212
0.000840925
0.000796229
0.000749502
0.000702073
0.00065505
0.000610003
0.000569162
0.00053113
0.000492268
0.000451249
0.000412728
0.000381283
0.000358416
0.00029788
0.00019721
0.00010213
1.81641e-05
6.27475e-06
3.57892e-06
3.20895e-07
0
0
0.00110408
0.0351043
0.0265373
0.00100752
0.000996227
0.000979796
0.000957167
0.000841977
0.000847724
0.000851138
0.000852513
0.000850179
0.000843802
0.000833638
0.000818938
0.0007997
0.000776334
0.000748805
0.000717648
0.000683475
0.000646845
0.000608412
0.00056896
0.000527994
0.000484456
0.000440385
0.000398572
0.000361403
0.000332344
0.000312218
0.000298238
0.000269767
0.000224378
0.000167384
0.000110532
6.53998e-05
5.06281e-06
3.55009e-06
1.50674e-07
0
0
0.00382992
0.00083334
0.000822932
0.000808981
0.000790465
0.000702354
0.000707889
0.000711922
0.00071444
0.000714349
0.000711283
0.000705316
0.000695788
0.000682615
0.000665919
0.000645646
0.000622083
0.000595645
0.000566758
0.00053605
0.000504012
0.000471377
0.000439413
0.000408234
0.000377814
0.000348592
0.000321881
0.000298817
0.000279184
0.000258315
0.000232427
0.000204199
0.00017382
0.000147316
0.000107085
7.05973e-05
3.02711e-06
1.905e-06
0
0
0.000694768
0.000685985
0.000674636
0.000607185
0.000606764
0.000604233
0.000599033
0.000591079
0.000580364
0.000566713
0.00055026
0.000531199
0.000509743
0.000486232
0.000461004
0.000434584
0.000406926
0.000378221
0.000349708
0.000322875
0.000298811
0.000277761
0.000258117
0.000237092
0.000213089
0.00018832
0.000166517
0.000149734
0.000136152
0.0001231
8.96729e-05
3.80004e-05
3.32717e-06
0
0.00051907
0.000516459
0.000511668
0.000504668
0.000495243
0.000483427
0.000469289
0.000452921
0.000434563
0.000414489
0.000393001
0.000370586
0.000347752
0.000324952
0.000302918
0.00028222
0.000263081
0.000244516
0.000224459
0.000201793
0.000178032
0.000156494
0.000139232
0.000126797
0.000117737
0.000112477
9.87029e-05
5.74388e-05
3.79701e-06
0.000445229
0.000441028
0.000434876
0.000426753
0.000416651
0.000404594
0.000390696
0.00037512
0.0003581
0.000339985
0.000320904
0.000301279
0.000281977
0.000263654
0.000246463
0.000229656
0.000211659
0.000191516
0.000170216
0.000150218
0.000133293
0.00011972
0.000108724
0.000101667
9.83775e-05
9.48519e-05
6.20032e-05
0.000386121
0.000382244
0.000376747
0.000369577
0.000360693
0.000350163
0.000338081
0.000324584
0.00030997
0.000294465
0.000278362
0.000262191
0.000246435
0.0002312
0.000216004
0.00019978
0.000181832
0.000162885
0.000144832
0.000129159
0.000116001
0.000104768
9.54453e-05
8.89934e-05
8.65711e-05
9.12277e-05
0.000336765
0.00033322
0.000328294
0.000321925
0.000314118
0.000304911
0.000294379
0.000282752
0.000270179
0.000256832
0.000243107
0.000229488
0.000216071
0.000202517
0.000188059
0.000172169
0.000155379
0.000139182
0.000124873
0.000112654
0.000102096
9.2882e-05
8.51675e-05
7.94729e-05
7.83298e-05
0.000297185
0.000295075
0.000291816
0.00028734
0.000281615
0.00027466
0.000266518
0.000257313
0.000247213
0.000236331
0.000224877
0.000213271
0.000201596
0.000189616
0.00017681
0.000162788
0.000147933
0.000133415
0.000120352
0.000109044
9.9212e-05
9.06561e-05
8.31582e-05
7.75563e-05
6.98311e-05
0.00026165
0.00025963
0.000256592
0.000252512
0.000247361
0.000241156
0.000233956
0.000225921
0.00021709
0.000207578
0.00019773
0.000187642
0.000177159
0.000165904
0.000153597
0.000140519
0.000127573
0.000115701
0.000105257
9.60863e-05
8.81047e-05
8.10725e-05
7.58837e-05
6.90812e-05
0.000231176
0.000229237
0.000226415
0.000222676
0.000218013
0.000212449
0.000206108
0.000199012
0.000191205
0.000182931
0.000174299
0.000165212
0.000155399
0.000144654
0.00013319
0.000121703
0.000110972
0.00010137
9.28443e-05
8.53517e-05
7.88031e-05
7.35134e-05
6.94124e-05
0.00020602
0.000204895
0.000203034
0.000200396
0.000196965
0.000192731
0.000187783
0.000182134
0.000175789
0.00016889
0.000161569
0.000153767
0.000145279
0.000135956
0.000125956
0.000115817
0.000106179
9.74046e-05
8.95227e-05
8.25044e-05
7.64064e-05
7.10758e-05
6.80528e-05
0.000183208
0.000182081
0.000180299
0.000177838
0.000174682
0.00017087
0.000166423
0.000161318
0.00015562
0.000149471
0.000142836
0.000135555
0.000127514
0.000118836
0.000109934
0.000101331
9.33644e-05
8.61191e-05
7.95906e-05
7.38839e-05
6.87999e-05
6.55454e-05
0.000163906
0.000163327
0.000162204
0.000160503
0.000158203
0.000155306
0.000151849
0.000147791
0.000143139
0.000138021
0.000132428
0.000126233
0.000119345
0.000111857
0.000104086
9.64519e-05
8.92643e-05
8.26395e-05
7.66085e-05
7.12568e-05
6.6554e-05
6.28587e-05
0.000146522
0.000145899
0.000144787
0.000143163
0.000141013
0.000138376
0.000135193
0.000131438
0.000127222
0.000122553
0.000117327
0.000111467
0.000105042
9.82963e-05
9.15652e-05
8.51221e-05
7.9099e-05
7.35591e-05
6.85571e-05
6.42103e-05
6.03618e-05
0.000131471
0.000131221
0.000130565
0.000129477
0.000127929
0.000125951
0.000123487
0.000120498
0.000117065
0.000113203
0.000108835
0.000103888
9.84116e-05
9.25912e-05
8.66939e-05
8.09549e-05
7.55124e-05
7.04486e-05
6.5807e-05
6.1753e-05
5.80157e-05
0.000118018
0.000117707
0.000117032
0.000115962
0.000114513
0.000112643
0.000110302
0.000107539
0.00010438
0.000100763
9.66205e-05
9.19825e-05
8.69925e-05
8.18593e-05
7.6782e-05
7.18943e-05
6.72878e-05
6.30092e-05
5.92115e-05
5.56954e-05
0.000106136
0.000106086
0.000105728
0.000105036
0.000104014
0.000102627
0.00010083
9.8636e-05
9.60814e-05
9.31144e-05
8.96725e-05
8.57728e-05
8.15232e-05
7.70838e-05
7.26222e-05
6.82606e-05
6.40935e-05
6.01707e-05
5.66198e-05
5.33297e-05
9.54489e-05
9.55901e-05
9.54746e-05
9.50781e-05
9.4392e-05
9.33985e-05
9.20458e-05
9.03292e-05
8.8288e-05
8.58828e-05
8.30509e-05
7.97978e-05
7.62035e-05
7.23908e-05
6.84949e-05
6.46278e-05
6.08789e-05
5.73003e-05
5.39979e-05
5.09114e-05
8.61142e-05
8.618e-05
8.60098e-05
8.55888e-05
8.49088e-05
8.39225e-05
8.26052e-05
8.09998e-05
7.90716e-05
7.67622e-05
7.40686e-05
7.10495e-05
6.77981e-05
6.442e-05
6.10124e-05
5.76585e-05
5.44111e-05
5.13525e-05
4.84571e-05
7.75627e-05
7.7761e-05
7.77616e-05
7.75484e-05
7.71165e-05
7.64241e-05
7.54394e-05
7.4197e-05
7.26713e-05
7.08076e-05
6.85968e-05
6.60797e-05
6.33254e-05
6.04163e-05
5.74327e-05
5.44483e-05
5.15152e-05
4.86998e-05
4.5985e-05
6.98471e-05
7.0138e-05
7.02663e-05
7.02132e-05
6.99767e-05
6.95177e-05
6.88047e-05
6.78617e-05
6.66724e-05
6.5187e-05
6.33889e-05
6.1307e-05
5.89902e-05
5.65008e-05
5.39053e-05
5.12659e-05
4.86264e-05
4.60488e-05
4.35132e-05
6.3243e-05
6.34629e-05
6.35302e-05
6.3443e-05
6.31684e-05
6.26739e-05
6.19789e-05
6.10676e-05
5.98967e-05
5.84486e-05
5.67407e-05
5.48064e-05
5.26907e-05
5.04459e-05
4.81244e-05
4.57633e-05
4.34099e-05
4.10551e-05
5.70081e-05
5.72917e-05
5.7447e-05
5.74727e-05
5.73412e-05
5.70215e-05
5.65262e-05
5.58431e-05
5.49343e-05
5.37807e-05
5.23908e-05
5.0787e-05
4.90009e-05
4.70712e-05
4.50392e-05
4.29367e-05
4.08e-05
3.86204e-05
5.13724e-05
5.16964e-05
5.19146e-05
5.20239e-05
5.20016e-05
5.182e-05
5.14846e-05
5.09859e-05
5.02921e-05
4.93842e-05
4.8263e-05
4.69428e-05
4.54443e-05
4.37949e-05
4.20263e-05
4.01618e-05
3.82301e-05
3.62219e-05
4.66277e-05
4.68888e-05
4.70578e-05
4.71171e-05
4.70411e-05
4.68316e-05
4.64807e-05
4.5962e-05
4.52562e-05
4.43608e-05
4.3282e-05
4.20324e-05
4.06301e-05
3.90976e-05
3.74525e-05
3.57131e-05
3.38717e-05
4.20401e-05
4.23269e-05
4.25359e-05
4.26543e-05
4.26587e-05
4.25464e-05
4.23123e-05
4.19337e-05
4.13933e-05
4.06851e-05
3.981e-05
3.87742e-05
3.75882e-05
3.62665e-05
3.48203e-05
3.32614e-05
3.15803e-05
3.78876e-05
3.81876e-05
3.84223e-05
3.85819e-05
3.86453e-05
3.86067e-05
3.84638e-05
3.81975e-05
3.77906e-05
3.72358e-05
3.6531e-05
3.56772e-05
3.46785e-05
3.35433e-05
3.22771e-05
3.08856e-05
3.44364e-05
3.46847e-05
3.48709e-05
3.49759e-05
3.49924e-05
3.49192e-05
3.47401e-05
3.44398e-05
3.40101e-05
3.34464e-05
3.27461e-05
3.19087e-05
3.09371e-05
2.98326e-05
2.85953e-05
3.1038e-05
3.12914e-05
3.14928e-05
3.1626e-05
3.16821e-05
3.16607e-05
3.15488e-05
3.13328e-05
3.10041e-05
3.05563e-05
2.99843e-05
2.92845e-05
2.84556e-05
2.74952e-05
2.63995e-05
2.79618e-05
2.82134e-05
2.84215e-05
2.85715e-05
2.86551e-05
2.86718e-05
2.86106e-05
2.846e-05
2.82117e-05
2.78582e-05
2.73926e-05
2.68095e-05
2.61043e-05
2.52717e-05
2.43049e-05
2.51792e-05
2.54246e-05
2.56324e-05
2.57906e-05
2.58918e-05
2.59347e-05
2.59112e-05
2.58109e-05
2.56259e-05
2.53483e-05
2.49707e-05
2.44858e-05
2.3887e-05
2.3167e-05
2.23169e-05
2.26637e-05
2.28987e-05
2.31014e-05
2.32618e-05
2.3373e-05
2.34336e-05
2.3437e-05
2.33746e-05
2.32388e-05
2.3022e-05
2.27162e-05
2.23135e-05
2.18058e-05
2.11844e-05
2.04394e-05
2.06132e-05
2.08078e-05
2.09658e-05
2.10811e-05
2.11522e-05
2.1174e-05
2.11393e-05
2.10415e-05
2.08728e-05
2.06254e-05
2.0291e-05
1.98609e-05
1.93258e-05
1.86747e-05
1.85473e-05
1.8731e-05
1.88831e-05
1.89979e-05
1.90743e-05
1.91083e-05
1.90938e-05
1.90246e-05
1.88937e-05
1.86934e-05
1.84156e-05
1.80513e-05
1.75911e-05
1.70238e-05
1.66807e-05
1.68523e-05
1.69964e-05
1.71077e-05
1.71856e-05
1.72268e-05
1.7226e-05
1.7178e-05
1.70766e-05
1.69142e-05
1.6683e-05
1.63744e-05
1.5979e-05
1.5486e-05
1.49961e-05
1.51548e-05
1.52892e-05
1.53949e-05
1.54712e-05
1.55157e-05
1.55242e-05
1.54918e-05
1.5413e-05
1.5281e-05
1.50882e-05
1.48266e-05
1.44871e-05
1.40595e-05
1.34765e-05
1.3622e-05
1.3746e-05
1.38448e-05
1.39176e-05
1.39629e-05
1.39771e-05
1.39558e-05
1.38943e-05
1.37864e-05
1.36251e-05
1.34031e-05
1.31118e-05
1.27416e-05
1.22394e-05
1.23527e-05
1.24438e-05
1.25119e-05
1.25559e-05
1.2573e-05
1.25596e-05
1.25112e-05
1.24225e-05
1.22871e-05
1.20984e-05
1.18485e-05
1.15286e-05
1.09934e-05
1.10961e-05
1.1179e-05
1.12416e-05
1.12832e-05
1.13014e-05
1.12933e-05
1.12549e-05
1.11813e-05
1.10671e-05
1.09064e-05
1.0692e-05
9.87154e-06
9.9639e-06
1.00386e-05
1.00954e-05
1.01337e-05
1.01518e-05
1.01471e-05
1.0116e-05
1.00545e-05
9.95785e-06
9.82058e-06
9.63651e-06
8.86211e-06
8.94469e-06
9.01144e-06
9.0623e-06
9.09702e-06
9.11414e-06
9.11143e-06
9.08591e-06
9.03403e-06
8.95172e-06
8.83422e-06
8.6761e-06
7.95464e-06
8.0281e-06
8.08733e-06
8.13239e-06
8.1633e-06
8.17887e-06
8.17723e-06
8.15586e-06
8.11168e-06
8.04123e-06
7.9404e-06
7.80447e-06
7.20444e-06
7.25666e-06
7.29627e-06
7.32338e-06
7.33711e-06
7.3359e-06
7.31763e-06
7.27966e-06
7.21901e-06
7.13223e-06
7.01529e-06
6.46489e-06
6.51066e-06
6.54517e-06
6.56866e-06
6.58049e-06
6.57932e-06
6.56336e-06
6.53041e-06
6.47793e-06
6.403e-06
6.30224e-06
5.80136e-06
5.84126e-06
5.87111e-06
5.89123e-06
5.90116e-06
5.89977e-06
5.88555e-06
5.8567e-06
5.81107e-06
5.74621e-06
5.65924e-06
5.20645e-06
5.24105e-06
5.26667e-06
5.2837e-06
5.29181e-06
5.29005e-06
5.27719e-06
5.25172e-06
5.21185e-06
5.15554e-06
5.08036e-06
4.67332e-06
4.70316e-06
4.72502e-06
4.73929e-06
4.74571e-06
4.74356e-06
4.73178e-06
4.70911e-06
4.67411e-06
4.62505e-06
4.55993e-06
4.19582e-06
4.22148e-06
4.24002e-06
4.25181e-06
4.2567e-06
4.25413e-06
4.24321e-06
4.22291e-06
4.19203e-06
4.14916e-06
3.76838e-06
3.79037e-06
3.80595e-06
3.81559e-06
3.81914e-06
3.81616e-06
3.80595e-06
3.78765e-06
3.76027e-06
3.72269e-06
3.40476e-06
3.41777e-06
3.42551e-06
3.42791e-06
3.42455e-06
3.41492e-06
3.39831e-06
3.37393e-06
3.34085e-06
3.06005e-06
3.07084e-06
3.07691e-06
3.07829e-06
3.07463e-06
3.0655e-06
3.05034e-06
3.02852e-06
2.99927e-06
2.75178e-06
2.76065e-06
2.76534e-06
2.76587e-06
2.76199e-06
2.75332e-06
2.73944e-06
2.71983e-06
2.69388e-06
2.47556e-06
2.48283e-06
2.48636e-06
2.48621e-06
2.4822e-06
2.47402e-06
2.46133e-06
2.44371e-06
2.42067e-06
2.22715e-06
2.23304e-06
2.23564e-06
2.23501e-06
2.231e-06
2.22337e-06
2.21183e-06
2.19606e-06
2.17566e-06
2.00312e-06
2.00783e-06
2.00965e-06
2.00865e-06
2.0047e-06
1.99762e-06
1.98718e-06
1.97312e-06
1.80156e-06
1.80525e-06
1.80636e-06
1.80499e-06
1.80105e-06
1.7944e-06
1.78487e-06
1.77228e-06
1.62126e-06
1.62401e-06
1.62446e-06
1.62268e-06
1.61865e-06
1.61225e-06
1.60338e-06
1.59191e-06
1.46299e-06
1.4628e-06
1.46061e-06
1.45641e-06
1.45012e-06
1.44167e-06
1.431e-06
1.31967e-06
1.31889e-06
1.31628e-06
1.31188e-06
1.30559e-06
1.29738e-06
1.28728e-06
1.19349e-06
1.19259e-06
1.19004e-06
1.18605e-06
1.18018e-06
1.17248e-06
1.16347e-06
1.0939e-06
1.09272e-06
1.08991e-06
1.08615e-06
1.08036e-06
1.07268e-06
1.06457e-06
1.01324e-06
1.01159e-06
1.00816e-06
1.0039e-06
9.97514e-07
9.89019e-07
9.37151e-07
9.35797e-07
9.32643e-07
9.28618e-07
9.22563e-07
9.14278e-07
8.62427e-07
8.60466e-07
8.56641e-07
8.51916e-07
8.45473e-07
8.36489e-07
7.93097e-07
7.92059e-07
7.89262e-07
7.85369e-07
7.80046e-07
7.7274e-07
7.18065e-07
7.14481e-07
7.09092e-07
7.02993e-07
6.95939e-07
6.85181e-07
6.69848e-07
6.70128e-07
6.68621e-07
6.64903e-07
6.60581e-07
6.56593e-07
5.6924e-07
5.61596e-07
5.55217e-07
5.47631e-07
5.31174e-07
6.02866e-07
6.06187e-07
6.02573e-07
6.01516e-07
6.12665e-07
4.74222e-07
4.75185e-07
4.82263e-07
4.79283e-07
4.60341e-07
7.19251e-07
7.39299e-07
7.3737e-07
7.45987e-07
7.84612e-07
8.04583e-07
8.28228e-07
8.61946e-07
1.14904e-06
1.2161e-06
1.17247e-06
1.113e-06
)
;

boundaryField
{
    inlet
    {
        type            calculated;
        value           nonuniform List<scalar> 4(5.07409e-06 5.39921e-06 5.46838e-06 5.53222e-06);
    }
    outlet
    {
        type            calculated;
        value           nonuniform List<scalar> 0();
    }
    walls
    {
        type            calculated;
        value           nonuniform List<scalar> 
42
(
1.33437
1.54944
1.79052
2.0177
2.23552
2.44246
2.61893
2.76266
2.87478
2.95048
2.99498
3.00654
2.97847
2.91164
2.80296
2.65287
2.4567
2.21319
1.91707
1.57125
1.18498
0.79429
0.465048
0.278396
0.217326
0.244819
0.308837
0.38311
0.449754
0.496946
0.523377
0.533036
0.52275
0.494745
0.449234
1.1282
0.922569
0.715088
0.505364
0.32107
0.171864
0.0724895
)
;
    }
    frontAndBack
    {
        type            empty;
    }
    procBoundary5to0
    {
        type            processor;
        value           nonuniform List<scalar> 4(0.000592105 0.000585158 0.000577506 0.000567969);
    }
    procBoundary5to1
    {
        type            processor;
        value           nonuniform List<scalar> 
13
(
0.00335175
0.00250372
0.00250372
0.00200263
0.00169056
0.00169056
0.0013439
0.00113689
0.00113689
0.000927814
0.000767263
0.000659565
0.000659565
)
;
    }
    procBoundary5to4
    {
        type            processor;
        value           nonuniform List<scalar> 
95
(
0.00059753
0.000602055
0.000605557
0.000605557
0.000518656
0.000519673
0.000519673
0.000448488
0.000447694
0.000447694
0.000388422
0.000388422
0.000338979
0.000338979
0.000298223
0.00026273
0.00026273
0.000232274
0.000232274
0.000206453
0.000183732
0.000183732
0.000163981
0.000146694
0.000146694
0.000131343
0.000117989
0.000117989
0.000105906
9.50753e-05
8.58355e-05
8.58355e-05
7.71895e-05
6.94104e-05
6.28889e-05
6.28889e-05
5.66136e-05
5.09568e-05
4.62793e-05
4.62793e-05
4.16805e-05
3.75277e-05
3.41324e-05
3.41324e-05
3.07377e-05
2.76705e-05
2.49007e-05
2.24005e-05
2.03911e-05
2.03911e-05
1.83394e-05
1.64881e-05
1.48189e-05
1.33147e-05
1.21071e-05
1.21071e-05
1.08737e-05
9.76399e-06
8.76592e-06
7.86897e-06
7.13951e-06
7.13951e-06
6.40775e-06
5.75125e-06
5.16262e-06
4.63513e-06
4.16263e-06
3.73959e-06
3.38599e-06
3.38599e-06
3.04408e-06
2.73827e-06
2.46416e-06
2.21755e-06
1.99513e-06
1.79494e-06
1.61586e-06
1.4611e-06
1.4611e-06
1.31853e-06
1.19264e-06
1.09333e-06
1.01301e-06
9.36686e-07
8.62498e-07
7.92407e-07
7.20054e-07
6.67482e-07
5.75404e-07
5.75404e-07
5.98027e-07
4.71276e-07
7.01481e-07
7.5484e-07
1.14672e-06
)
;
    }
    procBoundary5to6
    {
        type            processor;
        value           nonuniform List<scalar> 
86
(
31.2643
11.7092
14.8931
15.316
9.97292
2.28068
0.156997
0.0663317
0
0
0
3.05333e-06
4.67845e-05
9.58186e-05
8.75386e-05
7.00242e-05
6.12105e-05
5.95238e-05
5.99542e-05
5.95678e-05
5.7914e-05
5.55696e-05
5.30558e-05
5.05822e-05
4.81725e-05
4.57896e-05
4.3417e-05
4.10559e-05
3.87112e-05
3.63992e-05
3.41319e-05
3.19148e-05
2.97602e-05
2.93582e-05
2.93582e-05
2.72145e-05
2.51562e-05
2.31905e-05
2.13228e-05
1.95563e-05
1.78934e-05
1.63354e-05
1.48818e-05
1.35311e-05
1.2281e-05
1.11282e-05
1.0416e-05
1.0416e-05
9.39868e-06
8.47131e-06
7.62821e-06
6.8636e-06
6.17175e-06
5.54687e-06
4.98355e-06
4.47646e-06
4.09264e-06
4.09264e-06
3.67352e-06
3.29794e-06
2.96169e-06
2.66085e-06
2.39161e-06
2.15014e-06
1.95513e-06
1.95513e-06
1.75635e-06
1.57764e-06
1.41799e-06
1.27519e-06
1.15263e-06
1.05489e-06
9.80538e-07
9.80538e-07
9.05791e-07
8.27462e-07
7.64265e-07
6.75687e-07
6.47368e-07
5.2361e-07
6.0088e-07
4.67542e-07
8.07738e-07
8.07738e-07
8.65738e-07
1.4653e-06
)
;
    }
}


// ************************************************************************* //
