/*--------------------------------*- C++ -*----------------------------------*\
| =========                 |                                                 |
| \\      /  F ield         | OpenFOAM: The Open Source CFD Toolbox           |
|  \\    /   O peration     | Version:  2306                                  |
|   \\  /    A nd           | Website:  www.openfoam.com                      |
|    \\/     M anipulation  |                                                 |
\*---------------------------------------------------------------------------*/
FoamFile
{
    version     2.0;
    format      ascii;
    arch        "LSB;label=32;scalar=64";
    class       volScalarField;
    location    "600";
    object      div(phi);
}
// * * * * * * * * * * * * * * * * * * * * * * * * * * * * * * * * * * * * * //

dimensions      [0 0 -1 0 0 0 0];

internalField   nonuniform List<scalar> 
1340
(
-9.96883e-09
3.30336e-08
5.16475e-09
6.81593e-09
-3.89308e-10
4.81315e-09
-1.03424e-08
1.60155e-08
-1.50304e-09
-1.5242e-09
1.59963e-09
6.7849e-09
-6.76539e-09
-6.24483e-09
1.49605e-09
-2.96923e-09
-2.82641e-09
2.1587e-09
3.01858e-09
-3.77635e-10
2.08942e-09
3.99253e-09
-7.16779e-09
-5.05866e-09
-1.06779e-08
8.54885e-10
-8.14664e-09
-4.24827e-09
-7.56199e-09
4.98972e-11
4.57376e-09
-8.90814e-10
-2.07542e-09
1.87883e-09
3.8932e-09
6.57688e-08
8.41826e-09
2.28457e-08
-3.55095e-09
2.23301e-08
-9.83321e-09
-6.01422e-09
1.96314e-09
2.70206e-09
-1.03688e-08
-3.86452e-09
-4.88137e-09
2.08232e-09
-1.75429e-09
-3.11808e-09
2.04396e-09
2.92137e-09
-5.9227e-10
6.54953e-10
5.96532e-09
1.86691e-08
-2.01529e-08
-8.7423e-09
-4.19635e-10
-1.30972e-08
3.07963e-08
9.17463e-09
2.08567e-08
9.81021e-09
2.80443e-08
-8.96355e-09
-3.15827e-10
2.29209e-09
2.16665e-09
-4.56489e-09
2.0963e-09
-5.77404e-09
-2.10471e-09
-6.63138e-09
2.43821e-10
4.27133e-09
-8.48996e-10
-2.27285e-09
1.70861e-09
2.25602e-09
1.31603e-07
3.26393e-08
4.1046e-08
8.94138e-09
3.01881e-08
-3.89503e-09
2.36394e-08
-6.98936e-09
2.08966e-08
-1.06681e-08
2.34603e-08
-1.63738e-08
1.98803e-08
-1.86492e-08
1.45324e-08
-1.98806e-08
1.18401e-08
-1.26341e-09
1.37379e-08
1.76732e-08
1.43871e-08
2.72929e-08
-6.47639e-10
1.51572e-08
-7.09123e-09
1.92935e-10
2.13521e-09
9.41228e-09
-7.37919e-09
-2.3582e-09
-4.92908e-09
2.61627e-09
-1.0225e-09
-3.48464e-09
1.46703e-09
2.36762e-09
-8.33252e-10
-1.76923e-10
-4.8426e-06
6.67302e-07
-2.21701e-06
4.98575e-07
-2.14858e-06
4.45827e-07
-2.03195e-06
3.79396e-07
-1.88909e-06
3.07623e-07
-1.73719e-06
2.36291e-07
-1.57834e-06
1.75647e-07
-1.40539e-06
1.28503e-07
-1.23768e-06
9.77149e-08
-1.05466e-06
8.23564e-08
-8.92867e-07
7.89181e-08
-7.14949e-07
8.35919e-08
-5.80142e-07
8.89035e-08
-4.27273e-07
9.02104e-08
-3.36361e-07
7.77913e-08
-2.27002e-07
4.41199e-08
-1.83298e-07
-3.67964e-10
-1.62831e-07
-2.65245e-08
-1.19805e-07
-4.62553e-08
-9.54497e-08
-5.37807e-08
-8.03871e-08
-5.27775e-08
-4.83049e-08
-5.89439e-08
-4.48936e-08
-5.80545e-08
-3.34199e-08
-5.05958e-08
-2.1298e-08
-4.03308e-08
-1.1485e-08
-2.97875e-08
-4.26713e-09
-1.99146e-08
-1.36973e-09
-1.33878e-08
4.92359e-10
-8.57962e-09
-9.28238e-10
-3.35577e-09
4.74313e-09
9.60987e-09
1.04552e-08
1.52715e-08
4.77971e-09
2.60279e-08
-8.24429e-09
8.35443e-09
2.61881e-10
1.52543e-08
-6.46966e-09
5.43673e-09
-3.99877e-09
4.17981e-11
-5.6221e-09
-3.02814e-10
3.40435e-09
-9.67937e-10
-2.53164e-09
1.18724e-09
1.4015e-09
-2.19545e-06
1.05528e-06
-7.64783e-07
8.2986e-07
-8.49744e-07
7.61469e-07
-8.55178e-07
7.10917e-07
-7.98669e-07
6.6505e-07
-7.37836e-07
6.14776e-07
-6.62848e-07
5.64223e-07
-5.901e-07
5.10501e-07
-5.24042e-07
4.55211e-07
-4.59816e-07
3.96838e-07
-4.09627e-07
3.36458e-07
-3.63358e-07
2.77191e-07
-3.26083e-07
2.22302e-07
-2.8637e-07
1.75026e-07
-2.48545e-07
1.3491e-07
-2.06634e-07
1.12982e-07
-1.70173e-07
1.00417e-07
-7.48503e-08
7.29563e-08
-5.84924e-08
3.28445e-08
-5.00955e-08
-9.32545e-09
-5.1221e-08
-4.20409e-08
-6.79095e-08
-5.49223e-08
-5.98954e-08
-5.289e-08
-4.46606e-08
-4.45372e-08
-2.9847e-08
-3.56381e-08
-1.84581e-08
-2.61002e-08
-1.0501e-08
-1.82805e-08
-5.63337e-09
-1.1175e-08
-3.26094e-09
-6.18442e-09
-1.89543e-09
-2.07494e-09
1.29194e-09
4.71225e-09
5.73853e-09
4.26843e-09
2.1148e-08
-2.50377e-09
1.69271e-08
-5.64092e-09
1.82311e-08
-5.8677e-09
1.44193e-08
-7.82932e-09
-9.47813e-10
-4.67465e-09
2.89508e-09
-7.53215e-10
-3.12366e-09
5.79409e-10
2.2538e-09
-9.86424e-10
-4.34145e-10
-1.77087e-06
1.16053e-06
-1.79506e-07
8.219e-07
-3.44762e-07
6.43553e-07
-4.26782e-07
5.13756e-07
-5.1617e-07
4.10421e-07
-5.51219e-07
3.34347e-07
-5.81277e-07
2.74939e-07
-5.75298e-07
2.29736e-07
-5.62094e-07
1.92643e-07
-5.32374e-07
1.60719e-07
-4.95986e-07
1.33324e-07
-4.57178e-07
1.0753e-07
-4.08148e-07
8.60344e-08
-3.69511e-07
6.50224e-08
-3.122e-07
4.73259e-08
-2.75672e-07
2.05258e-08
-2.16415e-07
-9.03114e-09
-2.17561e-07
-2.41427e-08
-1.74311e-07
-2.22444e-08
-1.21809e-07
-1.17605e-08
-8.65039e-08
-2.88145e-09
-4.00871e-08
-1.21516e-09
-1.91406e-08
-7.6904e-09
-1.18472e-08
-1.40735e-08
-8.81356e-09
-1.6732e-08
-6.3846e-09
-1.53873e-08
-3.67559e-09
-1.14095e-08
-1.4673e-09
-7.00482e-09
-3.41621e-10
-3.37108e-09
-8.00717e-11
-6.60725e-10
3.5427e-10
2.52682e-09
1.16881e-09
7.99975e-09
7.9431e-10
1.32396e-08
-3.70527e-09
9.20869e-09
-6.74168e-09
1.69398e-08
-1.21147e-08
3.44207e-09
-3.93515e-09
4.67043e-09
-4.3836e-09
-5.15476e-10
2.48367e-09
-1.65343e-10
-2.23645e-09
9.60328e-10
8.34084e-10
-1.93199e-06
8.31221e-07
-3.36615e-07
6.92463e-07
-2.80909e-07
5.88514e-07
-2.67224e-07
4.84132e-07
-3.06842e-07
3.95018e-07
-3.19312e-07
3.34098e-07
-3.30477e-07
2.90593e-07
-3.17339e-07
2.60924e-07
-3.03126e-07
2.3475e-07
-2.80932e-07
2.10384e-07
-2.65325e-07
1.84083e-07
-2.47166e-07
1.58089e-07
-2.35211e-07
1.31947e-07
-2.19269e-07
1.0843e-07
-2.0404e-07
8.75698e-08
-1.83991e-07
7.15358e-08
-1.63556e-07
6.2481e-08
-1.2463e-07
4.92954e-08
-8.79614e-08
3.54354e-08
-7.57997e-08
1.97643e-08
-4.83831e-08
8.84798e-09
-4.00971e-08
1.33109e-09
-2.76696e-08
-6.21046e-10
-1.47477e-08
-1.36278e-09
-5.245e-09
-1.85242e-09
3.47244e-10
-2.39851e-09
2.92587e-09
-2.79134e-09
3.18888e-09
-2.68897e-09
2.09783e-09
-2.23288e-09
6.9868e-10
-1.58708e-09
-4.11215e-10
-6.76018e-10
-8.17117e-10
-3.03734e-10
2.85106e-09
-1.45519e-09
1.33943e-09
-3.82547e-09
1.27738e-08
-1.26969e-08
9.25236e-09
-7.24316e-09
6.11145e-09
-5.48494e-09
4.46171e-09
6.01772e-11
9.68642e-10
1.204e-09
2.14125e-09
-9.46784e-10
-5.93056e-10
-1.85531e-06
8.74736e-07
-1.67873e-07
5.83322e-07
-2.10951e-07
4.38746e-07
-2.46764e-07
3.34214e-07
-2.6594e-07
2.59888e-07
-2.90797e-07
2.05201e-07
-2.944e-07
1.6638e-07
-3.09051e-07
1.37562e-07
-3.02503e-07
1.19261e-07
-2.97455e-07
1.07325e-07
-2.78606e-07
1.00102e-07
-2.56106e-07
9.43825e-08
-2.30695e-07
8.71039e-08
-2.06338e-07
7.95686e-08
-1.83266e-07
7.05552e-08
-1.60005e-07
6.27301e-08
-1.3707e-07
5.41376e-08
-1.15127e-07
5.27592e-08
-9.11726e-08
5.54252e-08
-4.84241e-08
6.01062e-08
-2.13333e-08
5.87538e-08
4.0756e-09
5.2791e-08
1.72305e-08
3.9241e-08
1.75619e-08
2.38097e-08
1.31621e-08
1.00722e-08
8.04865e-09
1.06715e-10
3.61001e-09
-4.85339e-09
1.22299e-09
-5.98616e-09
-1.36355e-10
-5.00592e-09
-1.12231e-09
-3.20122e-09
-2.20188e-09
-1.53274e-09
-3.39872e-09
-1.19554e-09
-3.92761e-09
-1.25419e-09
-3.56118e-09
3.74958e-09
-1.15853e-08
1.0825e-08
-1.09169e-08
7.86248e-09
-6.28992e-09
8.02322e-09
-3.45161e-09
4.07449e-09
3.17755e-09
3.09208e-09
-1.10633e-09
6.86098e-10
5.29387e-10
-1.45391e-06
6.25228e-07
-3.01344e-07
4.46596e-07
-3.39635e-07
3.68905e-07
-3.4311e-07
3.13181e-07
-3.26897e-07
2.70716e-07
-3.11513e-07
2.37553e-07
-2.85381e-07
2.14216e-07
-2.57364e-07
1.96049e-07
-2.26855e-07
1.81731e-07
-1.99971e-07
1.68034e-07
-1.75262e-07
1.55424e-07
-1.55601e-07
1.41761e-07
-1.39313e-07
1.28471e-07
-1.26657e-07
1.13636e-07
-1.16996e-07
9.91882e-08
-1.0955e-07
8.40902e-08
-1.03588e-07
7.056e-08
-9.43049e-08
5.73665e-08
-8.83329e-08
4.66402e-08
-7.31388e-08
3.77007e-08
-6.36239e-08
2.90911e-08
-4.38332e-08
1.82702e-08
-3.71686e-08
5.34342e-09
-3.26295e-08
-5.2241e-09
-2.76167e-08
-1.17872e-08
-2.34919e-08
-1.33782e-08
-1.54951e-08
-1.16837e-08
-7.7366e-09
-9.39056e-09
-2.35121e-09
-7.52956e-09
3.13156e-10
-6.30145e-09
7.97755e-10
-5.52875e-09
-6.70949e-10
-5.20144e-09
-2.82208e-09
-5.54529e-09
-1.16778e-09
-7.64541e-09
1.01872e-08
-1.13146e-08
1.08885e-08
-8.08096e-09
9.56964e-09
-6.17293e-09
6.42594e-09
1.16616e-09
4.2676e-09
1.09612e-09
2.3545e-09
-4.14048e-10
-4.01434e-10
-1.60336e-06
7.2205e-07
-1.69878e-07
5.17661e-07
-1.75775e-07
4.16377e-07
-1.6847e-07
3.42163e-07
-1.61437e-07
2.86374e-07
-1.50533e-07
2.42652e-07
-1.39691e-07
2.06161e-07
-1.36994e-07
1.74788e-07
-1.31022e-07
1.49551e-07
-1.30851e-07
1.28683e-07
-1.2418e-07
1.13084e-07
-1.21185e-07
1.00724e-07
-1.119e-07
9.20914e-08
-1.04337e-07
8.53325e-08
-9.36304e-08
8.03137e-08
-8.17956e-08
7.50658e-08
-7.14139e-08
6.87324e-08
-6.13616e-08
6.09569e-08
-5.42808e-08
5.21303e-08
-4.7561e-08
4.29712e-08
-4.16611e-08
3.39871e-08
-3.57894e-08
2.73853e-08
-3.02919e-08
2.37072e-08
-1.61875e-08
2.13741e-08
-7.65918e-09
1.80666e-08
1.79868e-09
1.36033e-08
6.19927e-09
7.43476e-09
6.24879e-09
1.59539e-09
4.69624e-09
-2.65871e-09
2.73665e-09
-5.00915e-09
1.1294e-09
-5.80615e-09
-7.4633e-10
-5.80318e-09
-2.96146e-09
-4.59447e-09
-2.52343e-09
4.61804e-09
-4.77431e-09
1.18086e-08
-9.21106e-09
9.51898e-09
-7.89931e-09
8.45937e-09
-2.66633e-09
6.02987e-09
2.06944e-09
4.40174e-09
-5.59243e-10
9.07532e-10
5.00831e-10
-1.22694e-06
6.32455e-07
-9.4472e-08
4.04298e-07
-1.37941e-07
3.13355e-07
-1.38637e-07
2.58684e-07
-1.28999e-07
2.19111e-07
-1.18862e-07
1.87083e-07
-1.14762e-07
1.6018e-07
-1.09361e-07
1.38263e-07
-1.06608e-07
1.19604e-07
-1.01458e-07
1.0381e-07
-9.94527e-08
8.99511e-08
-9.44842e-08
7.83385e-08
-9.20638e-08
6.86154e-08
-8.66175e-08
6.09747e-08
-8.06822e-08
5.47257e-08
-7.36167e-08
4.91646e-08
-6.6331e-08
4.42563e-08
-5.98155e-08
3.93018e-08
-5.16449e-08
3.46703e-08
-4.63995e-08
2.92253e-08
-3.82425e-08
2.38233e-08
-3.50372e-08
1.69641e-08
-2.73582e-08
9.32049e-09
-2.61819e-08
1.25141e-09
-2.40005e-08
-4.4497e-09
-2.04555e-08
-7.72806e-09
-1.71509e-08
-8.40797e-09
-1.1892e-08
-7.57519e-09
-7.09377e-09
-6.60633e-09
-3.62137e-09
-5.89519e-09
-1.57487e-09
-5.54405e-09
-1.26276e-09
-5.04015e-09
-2.25527e-09
-4.71783e-09
-1.45528e-09
-4.26948e-09
2.00474e-09
-6.73662e-09
8.16293e-09
-5.94608e-09
9.7839e-09
-4.90882e-09
7.41959e-09
1.51276e-11
6.22886e-09
1.10056e-10
3.74761e-09
2.24992e-10
-1.43515e-10
4.5191e-07
-3.78987e-07
3.77032e-07
-1.14432e-07
3.17071e-07
-1.32642e-07
2.71902e-07
-1.34701e-07
2.37498e-07
-1.3314e-07
2.09005e-07
-1.26396e-07
1.8493e-07
-1.19388e-07
1.63436e-07
-1.10632e-07
1.44258e-07
-1.03637e-07
1.26676e-07
-9.51469e-08
1.11129e-07
-8.97342e-08
9.7621e-08
-8.19332e-08
8.69379e-08
-7.42735e-08
7.81759e-08
-6.53819e-08
7.10064e-08
-5.73108e-08
6.47658e-08
-4.95822e-08
5.92725e-08
-4.16411e-08
5.38361e-08
-3.55445e-08
4.81086e-08
-2.97673e-08
4.20019e-08
-2.60355e-08
3.56792e-08
-2.26531e-08
2.94406e-08
-1.99771e-08
2.34596e-08
-1.74829e-08
1.88427e-08
-1.54232e-08
1.59979e-08
-8.03558e-09
1.38565e-08
-3.96458e-09
1.10135e-08
5.53657e-10
7.42593e-09
2.16435e-09
2.92911e-09
1.35648e-09
-9.9307e-10
2.69829e-10
-3.43149e-09
-5.18122e-10
-4.29662e-09
-6.33947e-10
-4.31602e-09
-1.2562e-09
-4.16417e-09
-1.11851e-09
-2.95533e-09
-1.98928e-09
5.71372e-09
-1.86971e-09
9.40866e-09
-4.04026e-09
8.05552e-09
-2.54773e-09
7.63565e-09
-9.09786e-11
6.33162e-09
-5.28817e-10
1.11789e-09
6.36711e-10
3.82419e-07
-3.92051e-07
2.93475e-07
-8.53227e-08
2.52392e-07
-9.44269e-08
2.13872e-07
-1.00216e-07
1.82611e-07
-9.98738e-08
1.57869e-07
-9.55579e-08
1.3691e-07
-8.98735e-08
1.18086e-07
-8.86607e-08
1.01399e-07
-8.51816e-08
8.78351e-08
-8.20352e-08
7.65216e-08
-7.68082e-08
6.708e-08
-7.23245e-08
5.89593e-08
-6.65224e-08
5.20661e-08
-6.13939e-08
4.63088e-08
-5.55821e-08
4.15238e-08
-4.89124e-08
3.74983e-08
-4.2896e-08
3.35458e-08
-3.68903e-08
2.99982e-08
-3.22623e-08
2.63805e-08
-2.68069e-08
2.30856e-08
-2.3605e-08
1.93369e-08
-1.8862e-08
1.57262e-08
-1.74191e-08
1.12802e-08
-1.32885e-08
6.31942e-09
-1.32379e-08
9.23792e-10
-1.30412e-08
-3.1919e-09
-1.20388e-08
-5.80809e-09
-1.12962e-08
-6.61121e-09
-8.81812e-09
-6.00845e-09
-5.87372e-09
-4.97348e-09
-3.10394e-09
-4.0182e-09
-1.18768e-09
-3.02905e-09
-5.76278e-10
-2.34239e-09
3.45456e-10
-1.87381e-09
6.54021e-10
-1.19425e-09
3.76755e-09
-1.68214e-09
7.53315e-09
-2.17142e-09
8.27814e-09
-1.25352e-09
7.40242e-09
-1.68703e-09
3.17741e-09
5.80996e-10
1.99022e-10
2.79858e-07
-2.564e-07
2.64921e-07
-8.02173e-08
2.21449e-07
-9.55257e-08
1.85572e-07
-9.83424e-08
1.58014e-07
-9.46522e-08
1.36192e-07
-8.76621e-08
1.18368e-07
-8.00674e-08
1.03404e-07
-7.111e-08
9.04717e-08
-6.33062e-08
7.88938e-08
-5.67321e-08
6.85418e-08
-5.05903e-08
5.95802e-08
-4.6331e-08
5.21157e-08
-4.1289e-08
4.65172e-08
-3.61717e-08
4.21907e-08
-3.07351e-08
3.88173e-08
-2.57391e-08
3.59493e-08
-2.13003e-08
3.34231e-08
-1.67016e-08
3.08063e-08
-1.35032e-08
2.78655e-08
-1.05772e-08
2.45301e-08
-9.03003e-09
2.09452e-08
-7.89368e-09
1.73112e-08
-7.12475e-09
1.38431e-08
-6.59869e-09
1.1193e-08
-5.95407e-09
9.53309e-09
-2.31507e-09
8.06063e-09
-7.73089e-10
6.06582e-09
8.26157e-10
3.79973e-09
1.23952e-09
1.34406e-09
7.5727e-10
-3.90829e-10
5.7295e-10
-9.911e-10
9.16962e-10
-8.86327e-10
1.26959e-09
-7.65031e-10
1.74063e-09
-6.65631e-10
1.82009e-09
7.34792e-11
9.57179e-10
5.23673e-09
8.62764e-11
6.90814e-09
-1.58169e-09
7.0302e-09
-2.77606e-09
5.04531e-09
-4.16078e-10
1.26276e-09
6.3912e-10
-3.91585e-08
-3.28907e-07
1.25202e-07
-1.15021e-07
1.21531e-07
-9.41838e-08
1.13659e-07
-8.08363e-08
1.03417e-07
-6.92217e-08
9.2454e-08
-6.14177e-08
8.10884e-08
-5.45221e-08
6.99629e-08
-4.97878e-08
5.92098e-08
-4.76557e-08
4.95765e-08
-4.53149e-08
4.16399e-08
-4.29753e-08
3.52731e-08
-3.99366e-08
3.02008e-08
-3.67767e-08
2.61312e-08
-3.32884e-08
2.2775e-08
-3.00158e-08
2.01381e-08
-2.67264e-08
1.80322e-08
-2.27772e-08
1.63253e-08
-1.94959e-08
1.45504e-08
-1.64009e-08
1.29752e-08
-1.418e-08
1.13535e-08
-1.1496e-08
9.89851e-09
-1.00782e-08
8.11099e-09
-8.05872e-09
6.36312e-09
-7.80359e-09
4.186e-09
-5.9706e-09
1.65989e-09
-6.41003e-09
-1.05062e-09
-6.87824e-09
-2.86939e-09
-6.3636e-09
-3.56135e-09
-5.75246e-09
-3.01305e-09
-3.64959e-09
-1.68726e-09
-1.06799e-09
-5.76842e-10
8.65042e-10
2.50781e-10
1.81419e-09
7.16947e-10
2.43308e-09
6.17937e-10
3.03688e-09
2.50053e-10
1.63183e-09
4.82633e-10
3.03837e-09
-2.04697e-10
5.83493e-09
-3.11426e-09
6.06891e-09
-1.41618e-09
2.97223e-09
9.85365e-10
7.89665e-10
8.93678e-08
-2.08134e-07
1.26175e-07
-6.94499e-08
1.14409e-07
-6.40366e-08
1.02193e-07
-5.84426e-08
9.06451e-08
-5.22729e-08
7.98145e-08
-4.69467e-08
6.96683e-08
-4.23417e-08
6.09491e-08
-3.81299e-08
5.38882e-08
-3.09702e-08
4.78932e-08
-2.56095e-08
4.19152e-08
-2.10475e-08
3.62963e-08
-1.77796e-08
3.12519e-08
-1.49216e-08
2.70828e-08
-1.25011e-08
2.38165e-08
-9.66756e-09
2.12291e-08
-7.34118e-09
1.90564e-08
-5.33675e-09
1.72198e-08
-3.83326e-09
1.57073e-08
-2.1033e-09
1.43187e-08
-1.10208e-09
1.29071e-08
-1.277e-10
1.13446e-08
2.40779e-10
9.68113e-09
-6.11619e-11
8.0457e-09
-1.32703e-11
6.69675e-09
-4.69257e-10
6.03689e-09
-2.3909e-10
6.25145e-09
2.03056e-09
6.5691e-09
3.27707e-09
6.42452e-09
4.59199e-09
5.76442e-09
5.12306e-09
4.5818e-09
4.64935e-09
3.58312e-09
4.24791e-09
2.86156e-09
3.93294e-09
2.04315e-09
3.55714e-09
1.21885e-09
3.69574e-09
5.77699e-10
1.68508e-09
7.11136e-10
9.02812e-10
3.96796e-09
-2.7077e-09
5.5978e-09
-1.32353e-09
4.41793e-09
1.49812e-09
2.04303e-09
8.39195e-10
-5.98931e-09
-1.5245e-07
5.26486e-08
-4.11616e-08
5.51792e-08
-3.39226e-08
5.12294e-08
-3.08103e-08
4.5391e-08
-2.90972e-08
3.9422e-08
-2.60407e-08
3.38404e-08
-2.40401e-08
2.83276e-08
-2.16844e-08
2.31583e-08
-2.02322e-08
1.82753e-08
-1.93508e-08
1.41089e-08
-1.83801e-08
1.08378e-08
-1.69978e-08
8.54568e-09
-1.52523e-08
7.05956e-09
-1.28789e-08
6.29592e-09
-1.04832e-08
5.96314e-09
-7.70403e-09
6.00007e-09
-5.22144e-09
6.15437e-09
-2.81433e-09
6.46638e-09
-7.4538e-10
6.77947e-09
9.3822e-10
7.18657e-09
2.30836e-09
7.54098e-09
3.57199e-09
7.84337e-09
4.19655e-09
7.8167e-09
4.979e-09
7.59315e-09
4.60678e-09
6.90726e-09
5.28383e-09
5.65504e-09
4.27292e-09
4.05034e-09
2.9411e-09
2.78955e-09
2.40322e-09
2.19895e-09
1.80384e-09
2.20857e-09
2.39147e-09
2.36735e-09
2.92756e-09
2.27249e-09
2.91431e-09
2.02777e-09
2.64981e-09
1.62861e-09
3.32449e-09
1.44058e-09
2.32858e-09
5.32185e-10
1.84129e-09
-1.66737e-09
3.57016e-09
5.25914e-12
4.30641e-09
1.98995e-09
2.32758e-09
1.26484e-09
2.96857e-10
-2.31182e-08
-4.85854e-08
-8.33225e-09
-2.52361e-08
3.51253e-09
-1.1824e-08
9.4208e-09
-3.88001e-09
1.20798e-08
3.82428e-10
1.28505e-08
3.13893e-09
1.28234e-08
4.79619e-09
1.2482e-08
6.161e-09
1.21014e-08
7.48708e-09
1.18417e-08
8.35175e-09
1.19424e-08
9.99854e-09
1.26895e-08
1.20781e-08
1.40779e-08
1.47078e-08
1.60029e-08
1.82921e-08
1.81226e-08
2.11953e-08
1.99681e-08
2.41696e-08
2.13505e-08
2.56314e-08
2.19752e-08
2.65538e-08
2.18533e-08
2.59607e-08
2.0937e-08
2.45063e-08
1.93833e-08
2.22588e-08
1.74053e-08
1.92862e-08
1.51776e-08
1.65558e-08
1.30373e-08
1.32882e-08
1.10965e-08
1.12417e-08
9.66085e-09
8.7901e-09
9.01162e-09
7.94966e-09
9.04129e-09
8.47336e-09
9.10043e-09
8.46386e-09
8.51713e-09
8.32451e-09
7.27021e-09
7.05997e-09
5.61582e-09
5.35914e-09
4.05262e-09
3.94895e-09
2.6654e-09
2.85502e-09
1.95088e-09
3.2772e-09
1.59754e-09
1.50487e-09
9.72936e-10
4.68109e-10
1.40173e-09
9.51013e-10
2.18971e-09
1.33888e-09
1.19663e-09
6.54964e-10
2.40119e-10
0
)
;

boundaryField
{
    inlet
    {
        type            extrapolatedCalculated;
        value           nonuniform List<scalar> 
23
(
3.30336e-08
4.81315e-09
6.7849e-09
2.08942e-09
3.8932e-09
6.54953e-10
2.25602e-09
-1.76923e-10
1.4015e-09
-4.34145e-10
8.34084e-10
-5.93056e-10
5.29387e-10
-4.01434e-10
5.00831e-10
-1.43515e-10
6.36711e-10
1.99022e-10
6.3912e-10
7.89665e-10
8.39195e-10
2.96857e-10
0
)
;
    }
    outlet
    {
        type            extrapolatedCalculated;
        value           nonuniform List<scalar> 
82
(
-2.31182e-08
-8.33225e-09
-4.85854e-08
-2.52361e-08
3.51253e-09
-1.1824e-08
9.4208e-09
-3.88001e-09
1.20798e-08
3.82428e-10
1.28505e-08
3.13893e-09
1.28234e-08
4.79619e-09
1.2482e-08
6.161e-09
1.21014e-08
7.48708e-09
1.18417e-08
8.35175e-09
1.19424e-08
9.99854e-09
1.26895e-08
1.20781e-08
1.40779e-08
1.47078e-08
1.60029e-08
1.82921e-08
1.81226e-08
2.11953e-08
1.99681e-08
2.41696e-08
2.13505e-08
2.56314e-08
2.19752e-08
2.65538e-08
2.18533e-08
2.59607e-08
2.0937e-08
2.45063e-08
1.93833e-08
2.22588e-08
1.74053e-08
1.92862e-08
1.51776e-08
1.65558e-08
1.30373e-08
1.32882e-08
1.10965e-08
1.12417e-08
9.66085e-09
8.7901e-09
9.01162e-09
7.94966e-09
9.04129e-09
8.47336e-09
9.10043e-09
8.46386e-09
8.51713e-09
8.32451e-09
7.27021e-09
7.05997e-09
5.61582e-09
5.35914e-09
4.05262e-09
3.94895e-09
2.6654e-09
2.85502e-09
1.95088e-09
3.2772e-09
1.59754e-09
1.50487e-09
9.72936e-10
4.68109e-10
1.40173e-09
9.51013e-10
2.18971e-09
1.33888e-09
1.19663e-09
6.54964e-10
2.40119e-10
0
)
;
    }
    walls
    {
        type            extrapolatedCalculated;
        value           nonuniform List<scalar> 0();
    }
    frontAndBack
    {
        type            empty;
    }
    procBoundary3to2
    {
        type            processor;
        value           nonuniform List<scalar> 
88
(
2.42116e-09
4.97583e-09
-5.13829e-09
-2.55856e-09
-2.55856e-09
-2.62991e-09
-5.87925e-09
-5.87925e-09
-1.37092e-08
-7.85811e-09
-1.14776e-08
-1.14776e-08
-2.47675e-08
-6.94422e-09
-9.39234e-10
8.08094e-10
-1.94443e-08
-1.94443e-08
-1.61025e-08
1.34295e-08
3.70953e-09
1.97729e-08
-2.25249e-08
-2.25249e-08
4.09142e-09
-6.85572e-09
-5.26236e-09
-4.86014e-09
-2.17645e-08
3.31259e-08
-2.89134e-08
-2.89134e-08
8.29493e-08
2.39948e-08
6.64552e-08
1.04949e-08
4.5518e-08
7.93866e-09
3.4055e-08
6.47008e-09
2.23096e-08
8.92403e-09
1.29703e-08
5.99998e-09
5.99998e-09
-1.51349e-06
2.14071e-06
7.84118e-07
1.35517e-06
4.73418e-07
1.03389e-06
3.83279e-07
8.75205e-07
3.30542e-07
7.82717e-07
3.06949e-07
7.26779e-07
2.74732e-07
6.81171e-07
2.48954e-07
6.39586e-07
2.06143e-07
5.93634e-07
1.66236e-07
5.47644e-07
1.34695e-07
4.96067e-07
1.00366e-07
4.41232e-07
7.79205e-08
3.80871e-07
5.95736e-08
3.16915e-07
3.54868e-08
2.66911e-07
3.46295e-08
2.31757e-07
9.01463e-08
1.95642e-07
9.66696e-08
1.47824e-07
1.04945e-07
9.66952e-08
7.41478e-08
7.38045e-08
5.86529e-08
5.46285e-08
5.46285e-08
)
;
    }
    procBoundary3to6
    {
        type            processor;
        value           uniform 5.25775e-06;
    }
    procBoundary3to7
    {
        type            processor;
        value           nonuniform List<scalar> 
16
(
7.54571e-07
1.97004e-06
2.07945e-06
1.71543e-06
1.28286e-06
1.0728e-06
9.96898e-07
1.25126e-06
1.25126e-06
5.77237e-07
4.68885e-07
3.27088e-07
7.6777e-08
1.24321e-07
2.64509e-08
1.79632e-08
)
;
    }
}


// ************************************************************************* //
