/*--------------------------------*- C++ -*----------------------------------*\
| =========                 |                                                 |
| \\      /  F ield         | OpenFOAM: The Open Source CFD Toolbox           |
|  \\    /   O peration     | Version:  2306                                  |
|   \\  /    A nd           | Website:  www.openfoam.com                      |
|    \\/     M anipulation  |                                                 |
\*---------------------------------------------------------------------------*/
FoamFile
{
    version     2.0;
    format      ascii;
    arch        "LSB;label=32;scalar=64";
    class       volScalarField;
    location    "600";
    object      p;
}
// * * * * * * * * * * * * * * * * * * * * * * * * * * * * * * * * * * * * * //

dimensions      [0 2 -2 0 0 0 0];

internalField   nonuniform List<scalar> 
1340
(
5.06223
12.9758
7.62098
8.947
5.04586
12.7211
8.49266
8.40894
7.51098
8.77576
5.01629
12.4633
9.2982
8.98649
8.69998
8.32253
8.24044
7.38878
8.5918
4.97104
12.2045
10.3931
10.1134
9.86645
9.60727
9.33589
9.05617
8.76358
8.49319
8.13803
8.05706
7.25354
8.39401
4.91219
11.9395
11.408
11.1536
10.887
10.61
10.3238
10.032
9.77585
9.54867
9.30932
9.05772
8.79738
8.5244
8.2704
7.93836
7.85818
7.10454
8.18151
4.84094
11.6652
11.9813
11.8741
11.7496
11.6077
11.4486
11.273
11.0812
10.8742
10.653
10.4187
10.1729
9.91661
9.65352
9.42081
9.21342
8.99397
8.76233
8.52156
8.26851
8.03113
7.72285
7.64334
6.94106
7.95395
4.75731
11.3804
10.9894
11.0707
11.1435
11.2068
11.2598
11.3016
11.3312
11.3478
11.3506
11.3389
11.3119
11.2692
11.2101
11.1345
11.0419
10.9324
10.806
10.663
10.5037
10.3289
10.1393
9.93602
9.72036
9.49335
9.25837
9.0488
8.86101
8.66137
8.44966
8.22852
7.99553
7.77495
7.49083
7.41206
6.76232
7.71092
4.66134
11.0833
6.38741
6.42784
6.4663
6.50717
6.54976
6.59448
6.64131
6.69036
6.7417
6.79541
6.85157
6.91026
6.97154
7.03549
7.1022
7.17169
7.24405
7.31931
7.39753
7.47872
7.56292
7.65011
7.74029
7.83344
7.9295
8.0284
8.13005
8.23431
8.34102
8.45001
8.56105
8.67385
8.78812
8.90352
9.01963
9.13602
9.2522
9.36762
9.48169
9.59376
9.70317
9.80915
9.91091
10.0076
10.0985
10.1826
10.2589
10.3267
10.3849
10.4326
10.469
10.4931
10.5041
10.5013
10.4839
10.4514
10.4033
10.339
10.2586
10.1617
10.0485
9.91926
9.77442
9.61462
9.44074
9.25392
9.05508
8.84735
8.66037
8.49181
8.31168
8.11969
7.91808
7.70513
7.50142
7.24164
7.16385
6.56759
7.45163
4.5535
10.7708
5.73731
5.77263
5.80643
5.84232
5.87976
5.91911
5.96035
6.00358
6.04887
6.0963
6.14595
6.19789
6.2522
6.30895
6.36822
6.43006
6.49456
6.56176
6.63173
6.7045
6.78012
6.85862
6.94
7.02429
7.11145
7.20146
7.29427
7.38979
7.48795
7.58861
7.69161
7.79675
7.90381
8.01253
8.12259
8.23364
8.34527
8.45704
8.56844
8.67893
8.7879
8.89472
8.99866
9.09898
9.19491
9.2856
9.37019
9.44779
9.5175
9.57839
9.62955
9.67008
9.69909
9.71576
9.71931
9.70901
9.68427
9.64457
9.58951
9.51885
9.43249
9.33052
9.21321
9.08101
8.93464
8.77503
8.60296
8.42134
8.25615
8.10623
7.94515
7.77249
7.59012
7.39698
7.21016
6.97471
6.89826
6.35636
7.17493
4.43509
10.4376
5.16921
5.2001
5.22979
5.26129
5.2942
5.32881
5.36509
5.40316
5.44307
5.4849
5.52872
5.57461
5.62265
5.67289
5.72541
5.78029
5.8376
5.8974
5.95974
6.02469
6.0923
6.16261
6.23565
6.31144
6.39001
6.47134
6.55541
6.64219
6.73163
6.82364
6.91813
7.01495
7.11394
7.21491
7.31762
7.42179
7.52711
7.63322
7.73971
7.84611
7.95193
8.0566
8.15952
8.26002
8.35739
8.45089
8.53972
8.62305
8.70001
8.76972
8.83128
8.88381
8.9264
8.95819
8.97835
8.98612
8.98078
8.96173
8.92845
8.88056
8.81782
8.74014
8.64763
8.54059
8.41953
8.2852
8.13826
7.98132
7.83688
7.70483
7.56209
7.40816
7.24456
7.07085
6.90081
6.68943
6.61464
6.12835
6.87854
4.30876
10.0774
4.66562
4.69266
4.71877
4.74647
4.77542
4.80586
4.83781
4.87135
4.90652
4.94341
4.98209
5.02261
5.06506
5.1095
5.156
5.20463
5.25546
5.30856
5.36398
5.42179
5.48204
5.54479
5.61008
5.67795
5.74842
5.82151
5.89723
5.97556
6.05649
6.13996
6.22592
6.31427
6.4049
6.49767
6.59241
6.6889
6.78691
6.88614
6.98627
7.08693
7.18769
7.2881
7.38763
7.48572
7.58174
7.67503
7.76489
7.85054
7.9312
8.00604
8.07421
8.13484
8.18707
8.23001
8.26285
8.28477
8.29498
8.29284
8.27773
8.24913
8.20673
8.15029
8.07972
7.9952
7.89707
7.78586
7.66212
7.52816
7.40327
7.28813
7.16284
7.02683
6.88136
6.72649
6.57301
6.38536
6.31197
5.8843
6.55816
4.18163
9.678
4.22515
4.2487
4.27149
4.29565
4.32093
4.34752
4.37543
4.40475
4.43552
4.46781
4.50168
4.53719
4.57442
4.61343
4.65429
4.69705
4.74179
4.78858
4.83747
4.88853
4.94182
4.99739
5.0553
5.11559
5.1783
5.24346
5.31109
5.38119
5.45375
5.52878
5.60627
5.68611
5.76824
5.85255
5.93898
6.02731
6.11734
6.20888
6.30171
6.39548
6.48986
6.58447
6.67885
6.77255
6.86506
6.95575
7.04404
7.12923
7.2106
7.28743
7.3589
7.42422
7.48257
7.53305
7.57486
7.60725
7.62934
7.64045
7.63997
7.62719
7.60179
7.56342
7.51178
7.44692
7.36908
7.2786
7.17588
7.06293
6.95612
6.85675
6.74779
6.62869
6.50051
6.36365
6.22624
6.06208
5.98847
5.62605
6.2075
4.063
9.23039
3.69612
3.71591
3.73512
3.75546
3.77676
3.79919
3.82274
3.84748
3.87348
3.90077
3.92943
3.95951
3.99105
4.02412
4.05882
4.09516
4.13321
4.17306
4.21475
4.25835
4.3039
4.35148
4.40115
4.45296
4.50693
4.56312
4.62157
4.68231
4.74533
4.81066
4.87833
4.94828
5.02046
5.09485
5.17142
5.25
5.33046
5.41269
5.49654
5.58176
5.66809
5.75523
5.84284
5.93059
6.01806
6.10474
6.19016
6.27373
6.35479
6.43277
6.50692
6.57652
6.64086
6.69904
6.75031
6.79396
6.82911
6.85499
6.87097
6.8763
6.87048
6.85306
6.82363
6.78209
6.72842
6.66276
6.58546
6.498
6.41328
6.33332
6.24456
6.14654
6.04001
5.92585
5.80882
5.67564
5.5999
5.32906
5.77786
3.95751
8.68209
3.14939
3.16516
3.18055
3.19684
3.21393
3.23192
3.25082
3.27071
3.29162
3.31359
3.33669
3.36095
3.38642
3.41316
3.44124
3.47068
3.50155
3.53394
3.56786
3.60342
3.64062
3.67954
3.72027
3.76284
3.80726
3.85364
3.902
3.9524
4.00486
4.0594
4.11607
4.17486
4.23575
4.29879
4.36395
4.43113
4.50029
4.57136
4.64425
4.71879
4.79484
4.87219
4.95061
5.02988
5.10962
5.18953
5.26925
5.34827
5.42609
5.50225
5.57614
5.64712
5.71459
5.77778
5.83598
5.88851
5.93457
5.97339
6.00428
6.02649
6.03941
6.04249
6.03527
6.01742
5.98873
5.94916
5.89888
5.83904
5.77854
5.72002
5.65389
5.57964
5.49786
5.40959
5.31793
5.21703
5.1543
4.95343
5.35231
3.70303
8.32926
2.68684
2.69958
2.71206
2.72525
2.73909
2.75367
2.76902
2.78517
2.80213
2.81999
2.83877
2.85848
2.87919
2.90096
2.92383
2.94782
2.97301
2.99944
3.02717
3.05625
3.08672
3.1186
3.152
3.18695
3.2235
3.26171
3.3016
3.34324
3.38667
3.43191
3.479
3.52798
3.57883
3.63162
3.68633
3.74291
3.80137
3.86168
3.92374
3.9875
4.05286
4.11969
4.18784
4.25713
4.32731
4.3982
4.4695
4.54081
4.6118
4.68207
4.75118
4.81856
4.88373
4.9461
5.00501
5.05988
5.11
5.15465
5.19322
5.22495
5.24926
5.26558
5.27336
5.27218
5.26176
5.24188
5.2126
5.17482
5.13416
5.09352
5.0466
4.99288
4.93293
4.86783
4.79975
4.72819
4.68081
4.54233
4.9141
3.40616
7.98323
2.26526
2.25349
2.27554
2.28562
2.2963
2.30749
2.31929
2.33172
2.3448
2.35854
2.37301
2.38823
2.40423
2.42104
2.43873
2.45731
2.47682
2.49733
2.51885
2.54145
2.56516
2.59002
2.61609
2.6434
2.67202
2.70198
2.73334
2.76612
2.80037
2.83615
2.87348
2.9124
2.95296
2.99515
3.03902
3.08459
3.13182
3.18074
3.23134
3.28357
3.33739
3.39276
3.44958
3.50775
3.56715
3.62763
3.68903
3.75114
3.8137
3.87642
3.93901
4.00113
4.06234
4.12226
4.18041
4.23626
4.28931
4.33898
4.38463
4.42574
4.46166
4.49179
4.51564
4.53263
4.54234
4.54447
4.53872
4.52506
4.50416
4.47917
4.45296
4.42184
4.38537
4.34411
4.29912
4.25231
4.20696
4.17501
4.09466
4.44018
3.08482
7.54539
1.8717
1.86243
1.87982
1.8878
1.89627
1.90514
1.9145
1.92435
1.93473
1.94564
1.95711
1.9692
1.98192
1.9953
2.00937
2.02416
2.0397
2.05605
2.07322
2.09124
2.11017
2.13005
2.15092
2.1728
2.19574
2.21978
2.24497
2.27134
2.29891
2.32777
2.35791
2.38941
2.42226
2.4565
2.49219
2.52932
2.56788
2.60792
2.64944
2.69241
2.73682
2.78264
2.8298
2.87828
2.92797
2.97877
3.03056
3.0832
3.13653
3.19032
3.24432
3.2983
3.35195
3.40492
3.4569
3.50741
3.55607
3.60242
3.64593
3.68615
3.72252
3.75455
3.78177
3.80367
3.81986
3.83002
3.83389
3.83138
3.82295
3.80993
3.79502
3.77651
3.75407
3.72831
3.7002
3.67178
3.64864
3.63097
3.60154
3.92035
2.71581
7.02483
1.50999
1.50285
1.51627
1.52243
1.52896
1.5358
1.54302
1.55062
1.55862
1.56703
1.57588
1.58521
1.59502
1.60534
1.61619
1.6276
1.6396
1.65222
1.66547
1.67939
1.69402
1.70938
1.72551
1.74243
1.76017
1.77878
1.79829
1.81873
1.84011
1.8625
1.88593
1.91042
1.93599
1.96268
1.99054
2.01957
2.04976
2.08117
2.11381
2.14766
2.18272
2.21901
2.25644
2.29504
2.33476
2.37549
2.41718
2.45973
2.50304
2.54695
2.59128
2.63588
2.68048
2.72486
2.76877
2.81184
2.85378
2.89425
2.93281
2.96909
3.00265
3.03312
3.06005
3.08305
3.10176
3.11592
3.12526
3.12974
3.12964
3.12508
3.11838
3.10923
3.09743
3.08366
3.06879
3.05518
3.04945
3.04337
3.056
3.34725
2.28106
6.42041
1.13206
1.1268
1.13672
1.1413
1.14615
1.15124
1.15662
1.16229
1.16826
1.17455
1.18117
1.18815
1.19549
1.20322
1.21137
1.21994
1.22897
1.23846
1.24844
1.25894
1.26999
1.2816
1.29379
1.3066
1.32006
1.33417
1.34899
1.36452
1.3808
1.39785
1.41571
1.43439
1.45391
1.47431
1.4956
1.5178
1.54091
1.56498
1.59
1.61596
1.64287
1.67075
1.69954
1.72925
1.75983
1.79124
1.82345
1.85637
1.88995
1.92407
1.95862
1.99347
2.02845
2.06343
2.09819
2.1325
2.16616
2.19889
2.2304
2.26042
2.2886
2.31468
2.33831
2.35916
2.37705
2.39166
2.40282
2.41051
2.41492
2.41545
2.4141
2.41125
2.40683
2.40152
2.39593
2.39268
2.39805
2.39768
2.43988
2.70102
1.74948
5.67246
0.828279
0.824684
0.831414
0.834448
0.837673
0.84105
0.844604
0.848342
0.852267
0.856399
0.860751
0.865322
0.870117
0.875154
0.880455
0.886028
0.891878
0.898012
0.904455
0.911232
0.918338
0.925789
0.933599
0.941797
0.950408
0.959422
0.968864
0.978759
0.989126
0.999976
1.01133
1.02322
1.03565
1.04863
1.06221
1.07637
1.09113
1.10654
1.1226
1.1393
1.15665
1.17469
1.19338
1.21272
1.23271
1.25333
1.27455
1.29634
1.31865
1.34143
1.36461
1.3881
1.4118
1.43562
1.4594
1.48302
1.50634
1.52916
1.55127
1.57252
1.59266
1.61152
1.62886
1.64446
1.6582
1.66985
1.67933
1.68664
1.6919
1.69459
1.69555
1.69554
1.69467
1.69361
1.6928
1.69539
1.70668
1.70725
1.76542
1.99436
1.13369
4.71578
0.341759
0.339378
0.343892
0.346019
0.348286
0.350665
0.353181
0.35583
0.358613
0.36156
0.364676
0.367957
0.371405
0.375037
0.378873
0.382913
0.38716
0.391626
0.396329
0.401287
0.406484
0.411939
0.417677
0.4237
0.430014
0.436625
0.443548
0.450788
0.45836
0.466261
0.474501
0.483096
0.492035
0.501333
0.51098
0.520975
0.531323
0.542024
0.553077
0.564456
0.576175
0.588216
0.600552
0.613176
0.626088
0.639259
0.652656
0.666273
0.68006
0.69399
0.708028
0.722119
0.736232
0.750298
0.764267
0.77807
0.791652
0.804926
0.817808
0.83025
0.842115
0.853308
0.863701
0.873194
0.881721
0.88912
0.895365
0.900478
0.904555
0.906968
0.90878
0.910541
0.91239
0.914522
0.916246
0.919297
0.926404
0.912469
0.950756
1.13792
0.368168
3.23058
0.30296
0.302926
0.302967
0.302933
0.302886
0.302818
0.302735
0.302635
0.302506
0.302354
0.302179
0.301973
0.301733
0.301456
0.301144
0.30079
0.300391
0.299943
0.299444
0.298898
0.298288
0.297619
0.296895
0.296104
0.295246
0.294322
0.293334
0.292277
0.29116
0.289978
0.288736
0.287445
0.286106
0.284729
0.283315
0.281882
0.280442
0.279002
0.277577
0.27618
0.274837
0.273553
0.272335
0.271205
0.270182
0.269269
0.268483
0.267838
0.267334
0.266982
0.266783
0.266748
0.266878
0.267148
0.267548
0.268037
0.268584
0.269134
0.269654
0.270133
0.270515
0.270794
0.270959
0.271019
0.270989
0.270865
0.27075
0.270602
0.27056
0.271891
0.271151
0.269086
0.265955
0.262497
0.259621
0.261184
0.271824
0.275229
0.309422
0.409827
0.00586151
1.35224
)
;

boundaryField
{
    inlet
    {
        type            freestreamPressure;
        freestreamValue uniform 0;
        value           nonuniform List<scalar> 
23
(
7.31515
7.17164
7.0264
6.88057
6.73123
6.57671
6.41626
6.24894
6.0729
5.88531
5.68251
5.4576
5.20555
4.89674
4.69827
4.50376
4.25756
3.96478
3.62471
3.2036
2.66449
1.82619
0.764987
)
;
    }
    outlet
    {
        type            freestreamPressure;
        freestreamValue uniform 0;
        value           nonuniform List<scalar> 
82
(
0.000904691
0.000904781
0.00090452
0.00090475
0.000904691
0.000904573
0.000904417
0.000904217
0.000903936
0.000903595
0.00090319
0.000902704
0.000902124
0.000901442
0.000900667
0.000899777
0.000898765
0.000897619
0.000896335
0.000894921
0.000893334
0.000891587
0.000889694
0.000887619
0.000885362
0.000882931
0.000880329
0.000877547
0.000874609
0.000871504
0.000868248
0.000864878
0.000861398
0.000857837
0.000854204
0.000850555
0.000846927
0.000843347
0.000839862
0.000836514
0.000833386
0.000830499
0.000827882
0.000825601
0.000823725
0.000822275
0.000821299
0.000820862
0.000820967
0.000821662
0.000822965
0.000824918
0.000827543
0.000830783
0.000834618
0.000838946
0.000843682
0.000848687
0.000853861
0.000859202
0.000864548
0.000869893
0.000875228
0.000880595
0.000886068
0.000891658
0.000897714
0.000904155
0.000911469
0.000922784
0.0009265
0.000926405
0.000923327
0.000919837
0.000919193
0.000935238
0.000985568
0.00101323
0.00115609
0.00155899
2.34939e-05
0.00500607
)
;
    }
    walls
    {
        type            zeroGradient;
    }
    frontAndBack
    {
        type            empty;
    }
    procBoundary3to2
    {
        type            processor;
        value           nonuniform List<scalar> 
88
(
5.07635
13.2086
7.72046
9.10422
9.10422
8.64938
8.56323
8.56323
9.52397
9.19371
8.89139
8.89139
10.7361
10.433
10.1665
9.88777
9.59693
9.59693
11.9277
11.639
11.3393
11.0305
10.7138
10.7138
12.7603
12.6179
12.4579
12.2805
12.0861
11.8753
11.649
11.649
12.0471
12.1131
12.1689
12.2134
12.2459
12.2656
12.2715
12.2629
12.2392
12.1997
12.1438
12.0711
12.0711
7.18436
7.2281
7.27463
7.32302
7.37382
7.42695
7.48254
7.54065
7.60137
7.66477
7.73093
7.79991
7.87178
7.94659
8.0244
8.10525
8.18915
8.27614
8.36621
8.45936
8.55554
8.65471
8.75679
8.86169
8.96926
9.07935
9.19176
9.30628
9.42264
9.54054
9.65961
9.77947
9.89969
10.0198
10.1392
10.2573
10.3736
10.4872
10.5975
10.7038
10.8051
10.9006
10.9006
)
;
    }
    procBoundary3to6
    {
        type            processor;
        value           uniform 7.13804;
    }
    procBoundary3to7
    {
        type            processor;
        value           nonuniform List<scalar> 
16
(
6.3386
5.69501
5.13244
4.63361
4.19738
3.67296
3.13109
2.6722
2.6722
2.24086
1.85248
1.49518
1.12114
0.820829
0.336803
0.302917
)
;
    }
}


// ************************************************************************* //
