/*--------------------------------*- C++ -*----------------------------------*\
| =========                 |                                                 |
| \\      /  F ield         | OpenFOAM: The Open Source CFD Toolbox           |
|  \\    /   O peration     | Version:  2306                                  |
|   \\  /    A nd           | Website:  www.openfoam.com                      |
|    \\/     M anipulation  |                                                 |
\*---------------------------------------------------------------------------*/
FoamFile
{
    version     2.0;
    format      ascii;
    arch        "LSB;label=32;scalar=64";
    class       volScalarField;
    location    "600";
    object      turbulenceProperties:L;
}
// * * * * * * * * * * * * * * * * * * * * * * * * * * * * * * * * * * * * * //

dimensions      [0 1 0 0 0 0 0];

internalField   nonuniform List<scalar> 
1340
(
0.257288
0.183446
0.54451
0.268982
0.257683
0.18331
0.518643
0.409008
0.550026
0.268477
0.257635
0.183265
0.381364
0.406462
0.419645
0.506422
0.404355
0.553361
0.267936
0.257279
0.183268
0.318937
0.331295
0.342548
0.354122
0.367527
0.381659
0.405468
0.417234
0.494228
0.400023
0.554713
0.267378
0.256721
0.183292
0.269214
0.278044
0.287787
0.298341
0.309906
0.322105
0.333942
0.344644
0.355669
0.368432
0.381861
0.40425
0.41458
0.482298
0.396084
0.554219
0.266851
0.256048
0.18333
0.230771
0.23588
0.241321
0.247091
0.253212
0.259744
0.266808
0.274549
0.283085
0.292475
0.302608
0.313709
0.325397
0.336657
0.346779
0.357227
0.369302
0.382002
0.402843
0.411741
0.470764
0.392575
0.552045
0.266364
0.255325
0.1834
0.198772
0.20109
0.203557
0.206179
0.208959
0.211904
0.21502
0.218316
0.221806
0.225515
0.229473
0.233715
0.238264
0.243139
0.248339
0.253863
0.259733
0.266009
0.272805
0.280249
0.288445
0.297432
0.307092
0.317681
0.3288
0.339433
0.348946
0.358793
0.370143
0.382087
0.401264
0.408754
0.459705
0.38953
0.548364
0.265936
0.254648
0.183479
0.206888
0.198949
0.209645
0.206441
0.206434
0.201974
0.199675
0.197476
0.195617
0.193906
0.192373
0.191013
0.18985
0.188868
0.188025
0.187362
0.186851
0.186482
0.186249
0.186141
0.186154
0.18628
0.186507
0.186828
0.18724
0.187736
0.188308
0.188951
0.189668
0.19045
0.1913
0.192216
0.193197
0.194247
0.195367
0.196559
0.197831
0.199181
0.200624
0.202162
0.203799
0.20555
0.20742
0.209422
0.211557
0.21384
0.216274
0.218861
0.221612
0.224528
0.227613
0.230886
0.23437
0.23809
0.242084
0.246376
0.250984
0.25591
0.261155
0.266742
0.272725
0.279212
0.286314
0.294118
0.302648
0.311785
0.321811
0.332302
0.342261
0.351147
0.360371
0.370965
0.382124
0.399529
0.405644
0.449162
0.386956
0.543416
0.265611
0.254052
0.183555
0.199299
0.221943
0.231439
0.221544
0.219627
0.216176
0.214139
0.211964
0.210077
0.208335
0.206783
0.205416
0.204232
0.203221
0.20236
0.201675
0.201138
0.200732
0.200465
0.200322
0.200292
0.200371
0.200548
0.200814
0.201166
0.201596
0.202092
0.202661
0.203292
0.203983
0.204735
0.205545
0.206415
0.207344
0.208335
0.209395
0.210522
0.211723
0.213008
0.214381
0.215851
0.217423
0.219115
0.220933
0.222878
0.224969
0.227205
0.229591
0.232131
0.234827
0.237681
0.240712
0.24394
0.247392
0.251105
0.255105
0.259414
0.264033
0.268966
0.274234
0.279888
0.286021
0.292733
0.300092
0.30811
0.316671
0.326086
0.335892
0.345138
0.353385
0.361966
0.371776
0.382119
0.397657
0.402436
0.439179
0.384851
0.537627
0.26533
0.253604
0.183594
0.226937
0.24113
0.245633
0.235077
0.233973
0.231031
0.229005
0.226898
0.225035
0.223336
0.221845
0.220499
0.219339
0.218347
0.217509
0.216825
0.21629
0.215874
0.215592
0.215438
0.21538
0.215424
0.21556
0.215789
0.216086
0.216452
0.216888
0.217383
0.217933
0.218537
0.219193
0.219897
0.220655
0.221463
0.222323
0.223241
0.22422
0.225266
0.226384
0.227587
0.228878
0.230266
0.231771
0.233389
0.235137
0.237026
0.239049
0.241217
0.243528
0.24598
0.24858
0.251338
0.254276
0.257424
0.260822
0.264495
0.268467
0.272747
0.277333
0.282243
0.287524
0.293257
0.299526
0.306381
0.31383
0.321769
0.330517
0.339577
0.34808
0.355683
0.363593
0.372594
0.382082
0.395657
0.399141
0.429776
0.383179
0.53111
0.265272
0.253201
0.183569
0.245316
0.255037
0.259058
0.249894
0.249175
0.246374
0.244427
0.242435
0.240683
0.23908
0.237666
0.236395
0.235294
0.234349
0.233549
0.232886
0.232368
0.231959
0.231675
0.231507
0.231427
0.23144
0.231543
0.231725
0.231959
0.232272
0.232638
0.233049
0.233516
0.234024
0.234578
0.235167
0.235807
0.236483
0.237204
0.237975
0.238797
0.239677
0.240626
0.241646
0.24275
0.243949
0.245252
0.246667
0.24821
0.24988
0.251679
0.253613
0.255673
0.25786
0.260175
0.262631
0.265244
0.268059
0.271105
0.274414
0.278026
0.281931
0.286134
0.290656
0.295521
0.300803
0.306582
0.312882
0.319712
0.326986
0.335024
0.343297
0.351034
0.357992
0.365219
0.373399
0.381985
0.393537
0.39577
0.421094
0.381873
0.525188
0.265344
0.253036
0.183347
0.260726
0.270958
0.275624
0.267073
0.266435
0.263775
0.261962
0.260104
0.258497
0.256984
0.255655
0.254471
0.25342
0.252535
0.251769
0.251119
0.250613
0.250216
0.249916
0.249722
0.24961
0.249586
0.249638
0.249748
0.249922
0.250157
0.250418
0.250733
0.251097
0.251495
0.251904
0.252361
0.252842
0.253372
0.253928
0.254491
0.255143
0.25583
0.256567
0.257367
0.258261
0.259226
0.260297
0.261487
0.262773
0.264198
0.265737
0.267388
0.269165
0.271033
0.273016
0.275121
0.277351
0.279776
0.282426
0.285316
0.288513
0.292004
0.295764
0.299845
0.304241
0.308997
0.314212
0.319885
0.326021
0.332553
0.339817
0.347232
0.354159
0.360438
0.366952
0.374263
0.381844
0.391277
0.392227
0.41281
0.380938
0.514545
0.26618
0.252382
0.1831
0.281853
0.292948
0.298256
0.289884
0.289559
0.287046
0.28549
0.283957
0.282365
0.281109
0.279939
0.27876
0.277852
0.277079
0.276304
0.275645
0.275241
0.274773
0.27445
0.274216
0.274017
0.273964
0.273888
0.273868
0.273951
0.274029
0.274133
0.274279
0.274447
0.274677
0.274849
0.275057
0.275311
0.27562
0.275858
0.276143
0.276518
0.276912
0.277326
0.277802
0.278388
0.278994
0.279767
0.280608
0.281521
0.28262
0.283775
0.285015
0.2864
0.287805
0.289314
0.290935
0.292617
0.294509
0.296622
0.298952
0.301578
0.304523
0.3077
0.31117
0.314926
0.318982
0.323442
0.32828
0.333523
0.33913
0.345426
0.351779
0.357761
0.363265
0.368931
0.375206
0.381581
0.388504
0.388345
0.403666
0.381711
0.495525
0.268742
0.253545
0.186245
0.311017
0.321444
0.326642
0.319151
0.319121
0.316926
0.315844
0.314583
0.313208
0.312284
0.311253
0.310211
0.309501
0.308843
0.308049
0.307463
0.30712
0.306549
0.306263
0.305902
0.305578
0.305504
0.305234
0.304994
0.304953
0.304794
0.304705
0.304599
0.304456
0.304408
0.304307
0.304155
0.304102
0.304052
0.303872
0.303828
0.303794
0.303771
0.303766
0.303846
0.303975
0.304175
0.304519
0.304859
0.305364
0.305969
0.306593
0.307306
0.308103
0.308893
0.309725
0.31066
0.311623
0.312784
0.314159
0.315763
0.317653
0.319846
0.322246
0.324894
0.327777
0.330908
0.334363
0.338133
0.342269
0.346741
0.351843
0.356949
0.361858
0.366473
0.371153
0.376208
0.381081
0.385227
0.383914
0.394547
0.38307
0.476954
0.268865
0.254571
0.186363
0.344075
0.354412
0.360096
0.352991
0.353164
0.351607
0.350695
0.34943
0.348789
0.34783
0.346823
0.346152
0.345523
0.344843
0.344068
0.343674
0.343107
0.34256
0.342276
0.341701
0.341243
0.341044
0.340567
0.340139
0.339903
0.339382
0.339057
0.33869
0.338183
0.33777
0.337358
0.336785
0.336357
0.335875
0.335263
0.334806
0.334315
0.333803
0.333351
0.332978
0.332598
0.332355
0.332149
0.331979
0.331993
0.331986
0.331997
0.332075
0.332146
0.332204
0.332226
0.33233
0.332492
0.33278
0.333327
0.3341
0.335141
0.33647
0.337954
0.339645
0.34152
0.343572
0.345889
0.348491
0.351406
0.35465
0.358469
0.362269
0.36608
0.369758
0.373367
0.377104
0.380268
0.381691
0.379163
0.386404
0.383628
0.460366
0.267634
0.25791
0.186389
0.380961
0.402809
0.392629
0.400106
0.391688
0.392742
0.391462
0.390405
0.389439
0.388972
0.388112
0.387155
0.3865
0.385957
0.385159
0.384325
0.383981
0.383144
0.382514
0.382005
0.381187
0.380637
0.379977
0.379302
0.378595
0.377901
0.377067
0.376308
0.375563
0.374583
0.373704
0.372854
0.371739
0.370841
0.369812
0.368656
0.367716
0.366644
0.365573
0.364612
0.363646
0.36273
0.361899
0.361081
0.360365
0.359681
0.358998
0.358304
0.357587
0.356829
0.356037
0.355171
0.354367
0.353653
0.353036
0.35272
0.352619
0.35276
0.353173
0.353687
0.354347
0.355155
0.356081
0.357236
0.358651
0.360342
0.362361
0.364907
0.367443
0.370197
0.372938
0.375435
0.377794
0.37912
0.377993
0.374375
0.37941
0.383544
0.442227
0.265742
0.262396
0.186442
0.423516
0.448563
0.437684
0.446759
0.436741
0.438393
0.436795
0.436223
0.435153
0.434377
0.433878
0.43283
0.43206
0.431201
0.430379
0.429538
0.428823
0.427749
0.426794
0.425983
0.424979
0.424049
0.422754
0.421821
0.420616
0.419415
0.418184
0.416717
0.41549
0.413946
0.412493
0.410942
0.409251
0.40772
0.40601
0.404223
0.402574
0.400894
0.399115
0.397472
0.395821
0.394186
0.392666
0.391102
0.389604
0.388084
0.386554
0.384992
0.383308
0.38157
0.37982
0.377976
0.376188
0.374546
0.372983
0.371753
0.370742
0.36993
0.369348
0.368833
0.368418
0.368111
0.367904
0.367886
0.368122
0.368621
0.369437
0.370739
0.372072
0.373811
0.375606
0.37698
0.377929
0.377371
0.373959
0.369516
0.373239
0.382344
0.420865
0.26321
0.267954
0.186428
0.474161
0.502499
0.491358
0.501919
0.490199
0.491778
0.490026
0.489206
0.487648
0.487158
0.486092
0.484574
0.483717
0.482375
0.481129
0.480108
0.478621
0.477186
0.475687
0.474462
0.472847
0.471091
0.469509
0.46779
0.465833
0.464181
0.462063
0.459879
0.458061
0.455717
0.453559
0.451185
0.448791
0.446575
0.444059
0.441465
0.439177
0.436701
0.434136
0.43177
0.429366
0.426858
0.424579
0.422196
0.419713
0.41733
0.414808
0.412261
0.409547
0.406799
0.404049
0.40118
0.398445
0.395855
0.393345
0.391177
0.389214
0.387394
0.385753
0.384153
0.382642
0.381192
0.379833
0.378675
0.377746
0.377084
0.376743
0.376858
0.377091
0.377878
0.378705
0.378904
0.37838
0.375906
0.370538
0.365723
0.369085
0.38129
0.399646
0.260154
0.275306
0.186159
0.517995
0.54717
0.535203
0.547081
0.534036
0.535872
0.534718
0.533046
0.531799
0.531354
0.529869
0.52835
0.527326
0.526088
0.524421
0.523242
0.521388
0.519686
0.518251
0.516556
0.514436
0.512323
0.510646
0.50855
0.505836
0.503945
0.5014
0.498719
0.496315
0.493558
0.490756
0.487858
0.484881
0.482003
0.478806
0.475597
0.472618
0.46931
0.466037
0.46279
0.459622
0.456165
0.452932
0.449569
0.446056
0.442717
0.439077
0.435532
0.43185
0.428136
0.424439
0.420695
0.417116
0.413607
0.410261
0.407176
0.404243
0.401443
0.398778
0.396143
0.393614
0.391128
0.388737
0.386571
0.384579
0.382864
0.381478
0.380496
0.379682
0.379515
0.379436
0.378636
0.3769
0.372887
0.366222
0.361442
0.364421
0.375986
0.373459
0.255629
0.28272
0.184916
0.57388
0.607639
0.594452
0.608914
0.590587
0.593081
0.590418
0.588136
0.587338
0.586019
0.583241
0.581067
0.579282
0.577673
0.575295
0.572786
0.570289
0.568153
0.566177
0.562854
0.560322
0.557615
0.554966
0.552297
0.548642
0.545918
0.542834
0.539573
0.536211
0.532826
0.529556
0.525788
0.522409
0.518788
0.514923
0.511266
0.507543
0.503787
0.499709
0.495818
0.492039
0.487827
0.483801
0.479692
0.475499
0.471262
0.466936
0.462656
0.458294
0.45394
0.449535
0.445212
0.440916
0.436679
0.432612
0.428681
0.424832
0.421081
0.417443
0.413796
0.410262
0.406749
0.403348
0.400163
0.397136
0.394431
0.392074
0.390144
0.38862
0.387814
0.386746
0.384616
0.381132
0.375007
0.367047
0.36326
0.367934
0.378948
0.358885
0.252937
0.296846
0.1828
0.558963
0.579854
0.571672
0.580906
0.572854
0.574555
0.572645
0.571644
0.571913
0.571128
0.569462
0.568103
0.567251
0.566679
0.565173
0.563595
0.562265
0.560993
0.559879
0.557527
0.555893
0.554394
0.552464
0.550472
0.547987
0.545849
0.543402
0.540956
0.53812
0.535214
0.532401
0.528958
0.525838
0.522223
0.518485
0.514676
0.510716
0.506663
0.50215
0.497905
0.493405
0.488774
0.484236
0.479677
0.475099
0.470549
0.466211
0.461808
0.457527
0.453278
0.448925
0.444626
0.440199
0.435804
0.431402
0.427078
0.422845
0.418729
0.414825
0.410989
0.407311
0.403673
0.400122
0.396704
0.393404
0.390362
0.387557
0.385032
0.382633
0.380891
0.379478
0.377447
0.374368
0.368981
0.36207
0.359077
0.361232
0.361607
0.325764
0.24603
0.292028
0.174395
0.641245
0.637533
0.64122
0.633999
0.630751
0.629656
0.627842
0.626543
0.624549
0.622457
0.621183
0.619161
0.617145
0.615051
0.613025
0.611079
0.608714
0.606504
0.60426
0.601754
0.599504
0.596893
0.594475
0.591901
0.58914
0.586346
0.583548
0.580761
0.577651
0.574685
0.571533
0.568269
0.565078
0.561574
0.558166
0.554529
0.550892
0.547167
0.543319
0.5396
0.535701
0.531906
0.528182
0.524532
0.520872
0.517383
0.513946
0.510414
0.506888
0.503138
0.499227
0.495086
0.490691
0.486221
0.481579
0.476936
0.472226
0.467531
0.46287
0.45806
0.453252
0.448355
0.443485
0.438714
0.434091
0.429838
0.425943
0.422561
0.420684
0.419925
0.417223
0.411769
0.403666
0.392214
0.38234
0.383528
0.395152
0.391088
0.329228
0.266349
0.306663
0.17375
)
;

boundaryField
{
    inlet
    {
        type            calculated;
        value           nonuniform List<scalar> 
23
(
0.0972131
0.0974566
0.0976941
0.0979263
0.0981584
0.0983959
0.0986456
0.0989133
0.0992063
0.0995319
0.0998996
0.100308
0.100782
0.101535
0.102178
0.10298
0.104005
0.105297
0.106916
0.108918
0.111451
0.113535
0.117791
)
;
    }
    outlet
    {
        type            calculated;
        value           nonuniform List<scalar> 
82
(
0.718106
0.718741
0.711043
0.706931
0.701997
0.70079
0.698411
0.696878
0.694228
0.691432
0.689991
0.687364
0.684733
0.682021
0.679416
0.67697
0.673864
0.671017
0.668152
0.664858
0.662013
0.658626
0.655541
0.652252
0.648688
0.645114
0.641555
0.638067
0.634106
0.630417
0.626503
0.622455
0.618595
0.614302
0.610233
0.605884
0.601593
0.597241
0.592751
0.588522
0.584041
0.579746
0.575568
0.57149
0.567369
0.563462
0.559593
0.555524
0.551436
0.547002
0.542355
0.537429
0.532212
0.52698
0.521573
0.516197
0.510697
0.505123
0.499462
0.49344
0.487305
0.480991
0.47472
0.468631
0.462786
0.457499
0.452808
0.449027
0.447554
0.44738
0.443981
0.436395
0.424801
0.408952
0.396034
0.398359
0.418116
0.422269
0.347601
0.271502
0.340054
0.182451
)
;
    }
    walls
    {
        type            calculated;
        value           nonuniform List<scalar> 0();
    }
    frontAndBack
    {
        type            empty;
    }
    procBoundary3to2
    {
        type            processor;
        value           nonuniform List<scalar> 
88
(
0.256365
0.183619
0.537022
0.269548
0.269548
0.530656
0.413941
0.413941
0.380927
0.407175
0.421729
0.421729
0.315879
0.328704
0.340471
0.352563
0.366563
0.366563
0.264246
0.273326
0.283373
0.294301
0.306281
0.306281
0.223886
0.229195
0.234845
0.240831
0.24717
0.253924
0.261219
0.261219
0.188968
0.191466
0.194113
0.196913
0.199876
0.203003
0.206303
0.209787
0.213469
0.217378
0.221542
0.225997
0.225997
0.223768
0.188261
0.183476
0.191508
0.188462
0.185638
0.183348
0.18148
0.179855
0.178436
0.177143
0.176044
0.175125
0.174355
0.173755
0.173295
0.172985
0.172815
0.172767
0.172841
0.173027
0.173317
0.173711
0.174193
0.174758
0.175411
0.176141
0.176943
0.177818
0.178767
0.17979
0.18088
0.182048
0.183296
0.184618
0.18603
0.187529
0.189122
0.190822
0.192625
0.194546
0.196593
0.196593
)
;
    }
    procBoundary3to6
    {
        type            processor;
        value           uniform 1.43574;
    }
    procBoundary3to7
    {
        type            processor;
        value           nonuniform List<scalar> 
16
(
6.33215
0.239629
0.238995
0.268775
0.286951
0.305725
0.332279
0.364385
0.364385
0.40487
0.450377
0.504777
0.549959
0.608426
0.585453
0.632676
)
;
    }
}


// ************************************************************************* //
