/*--------------------------------*- C++ -*----------------------------------*\
| =========                 |                                                 |
| \\      /  F ield         | OpenFOAM: The Open Source CFD Toolbox           |
|  \\    /   O peration     | Version:  2306                                  |
|   \\  /    A nd           | Website:  www.openfoam.com                      |
|    \\/     M anipulation  |                                                 |
\*---------------------------------------------------------------------------*/
FoamFile
{
    version     2.0;
    format      ascii;
    arch        "LSB;label=32;scalar=64";
    class       volScalarField;
    location    "275";
    object      div(phi);
}
// * * * * * * * * * * * * * * * * * * * * * * * * * * * * * * * * * * * * * //

dimensions      [0 0 -1 0 0 0 0];

internalField   nonuniform List<scalar> 
1340
(
-3.39992e-05
-7.30279e-05
3.08634e-05
-5.62431e-05
-1.59864e-05
-6.50022e-05
-4.2536e-05
-6.29048e-05
-2.14207e-05
-2.59967e-05
4.19644e-05
-1.62554e-05
-1.11535e-05
-4.3253e-05
-2.76154e-05
-4.89312e-05
-2.13066e-05
-1.83281e-05
4.49258e-05
-7.95832e-06
-1.19626e-05
-3.63201e-05
-1.82394e-05
-3.96007e-05
-2.33507e-05
-1.77616e-05
4.83977e-05
-6.11874e-06
-1.30695e-05
-3.33171e-05
-1.18143e-05
-3.17938e-05
-2.20071e-05
-1.56757e-05
5.10304e-05
-5.18253e-06
-1.21565e-05
-2.64988e-05
-7.60292e-06
-2.54798e-05
-1.83866e-05
-1.41506e-05
4.95069e-05
-5.5245e-06
-1.07112e-05
-1.96856e-05
-4.39828e-06
-1.9779e-05
-1.47631e-05
-1.23085e-05
4.48496e-05
-4.84203e-06
-9.23708e-06
-1.37798e-05
-2.02302e-06
-1.4929e-05
-1.15464e-05
-1.21665e-05
4.02075e-05
-4.6931e-06
-7.5667e-06
-9.61163e-06
-4.19826e-07
-1.15702e-05
-8.87508e-06
-1.13315e-05
3.47918e-05
-4.24517e-06
-5.71276e-06
-5.94926e-06
5.31487e-07
-8.85371e-06
-6.63354e-06
-1.07446e-05
3.01606e-05
-3.89818e-06
-3.99851e-06
-3.18114e-06
1.2912e-06
-6.91503e-06
-5.06481e-06
-1.01023e-05
2.4731e-05
-3.52603e-06
-2.78532e-06
-1.30582e-06
1.81109e-06
-5.29795e-06
-4.09174e-06
-7.99901e-06
2.04475e-05
-3.4266e-06
-1.93111e-06
-2.42112e-07
2.09278e-06
-4.12932e-06
-2.85366e-06
-5.36504e-06
1.52244e-05
-3.15731e-06
-1.56137e-06
-2.18661e-10
1.76132e-06
-3.21601e-06
-2.0306e-06
-2.96238e-06
1.1253e-05
-2.98653e-06
-1.2583e-06
-1.89421e-07
1.20112e-06
-2.52653e-06
-1.39366e-06
-9.71917e-07
7.58106e-06
-2.65677e-06
-1.61953e-06
-3.76324e-07
4.08035e-07
-1.89216e-06
-1.72514e-07
4.15267e-08
4.58893e-06
-1.91995e-06
-1.46833e-06
-5.43104e-07
-1.504e-07
-1.39556e-06
1.09798e-07
3.61101e-07
2.56479e-06
-1.19489e-06
2.6732e-06
-1.01207e-06
-5.26194e-07
-4.57625e-07
-9.7933e-07
-1.68609e-06
4.28525e-08
3.43759e-07
1.35797e-06
-6.65773e-07
1.00171e-06
-6.911e-07
-4.68027e-07
-5.2653e-07
-6.82938e-07
-1.3676e-06
3.59043e-08
2.71263e-07
6.13596e-07
-2.49573e-07
9.13499e-07
-4.38431e-07
-3.76928e-07
-4.57453e-07
-4.73476e-07
-1.18362e-06
4.56901e-08
1.44394e-07
3.02087e-07
-7.51323e-08
8.33588e-07
-2.69046e-07
-2.71699e-07
-3.4056e-07
-3.29275e-07
-1.00793e-06
3.21321e-08
7.23624e-08
1.59843e-07
-8.76492e-09
4.25608e-07
-1.83022e-07
-1.78377e-07
-2.33912e-07
-2.2832e-07
-4.027e-07
6.45538e-08
2.96493e-08
8.79371e-08
5.56692e-09
3.17911e-07
-1.0392e-07
-1.04045e-07
-1.62396e-07
-1.52584e-07
-2.32076e-07
2.18326e-08
-1.00648e-08
3.49652e-08
3.78854e-09
2.91235e-07
2.41904e-07
-8.66322e-08
-7.66881e-08
-1.0873e-07
-1.14539e-07
-7.78113e-08
-2.6205e-07
-2.26697e-08
-4.04832e-08
-5.73302e-09
1.33584e-09
2.44098e-08
1.43057e-07
-8.5069e-08
-6.17607e-08
-7.87077e-08
-8.41934e-08
-8.21936e-08
-2.17829e-07
-4.36316e-08
-5.83895e-08
-2.05291e-08
-1.04921e-08
-3.63391e-08
8.20993e-08
-7.65044e-08
-4.36953e-08
-5.92775e-08
-6.14777e-08
-2.03831e-10
-1.52834e-07
-3.52232e-08
-5.91229e-08
-3.37228e-08
-1.20277e-08
-8.05389e-09
5.54874e-08
-5.84004e-08
-3.69214e-08
-4.40831e-08
-5.33579e-08
7.54889e-09
-8.50407e-08
-2.67111e-08
-5.10594e-08
-4.55895e-08
-1.2178e-08
-4.12013e-08
3.75157e-08
1.72042e-09
-1.92261e-08
-2.4676e-08
-4.98271e-08
2.23636e-08
6.89134e-08
4.75212e-08
-2.08647e-09
-1.32861e-08
-5.53551e-08
-2.5333e-08
3.3609e-08
5.01383e-08
9.58573e-09
3.28147e-08
-1.50413e-08
-1.6248e-08
-6.30639e-08
-5.2355e-08
-4.41248e-09
4.37603e-08
-1.00584e-08
-5.42435e-09
-4.77412e-08
-2.74647e-08
4.54643e-09
1.40786e-08
-2.49398e-08
1.26215e-08
-4.3926e-09
1.20077e-08
-4.44711e-08
-5.29155e-08
-2.54111e-08
1.53569e-08
5.43581e-09
3.4207e-08
-1.67143e-08
7.77269e-09
-1.57168e-09
-3.58086e-09
-1.09945e-08
2.85674e-08
-1.13847e-08
3.05746e-08
-2.92271e-08
-3.23098e-08
-2.31412e-08
-6.09859e-11
-2.86093e-08
1.60142e-08
-2.96528e-08
-1.04699e-08
-3.4991e-08
-2.00717e-08
-1.83867e-08
-3.3951e-08
1.60629e-09
-3.34535e-08
-9.22151e-09
-2.2301e-08
-3.13433e-08
-1.88582e-08
-2.20626e-08
-9.70089e-09
-2.58755e-08
-3.07627e-09
-2.10525e-08
-5.06355e-09
-1.65108e-08
-1.35729e-08
-1.4563e-08
-1.67818e-08
-1.19122e-08
-1.42164e-08
-1.26902e-08
-2.08426e-08
-3.30008e-08
-7.25414e-09
-1.08827e-08
-1.33007e-08
-1.15452e-08
-1.2201e-08
-1.46627e-08
-1.81617e-08
1.891e-08
-1.87518e-09
-4.24919e-09
-7.55908e-09
-5.70176e-09
-2.30268e-08
-9.49106e-09
-1.50936e-08
-8.26846e-09
1.37285e-09
-3.88823e-09
-2.64549e-09
-3.48915e-08
-6.96897e-09
-2.17709e-08
-1.38598e-08
1.13301e-08
-2.67996e-09
-2.45712e-09
-3.74784e-08
9.71255e-12
-3.70867e-08
-5.15916e-09
-7.66791e-09
5.38179e-09
-4.29675e-09
-2.24316e-09
-1.90343e-08
1.02068e-09
-2.45729e-08
2.59723e-09
-5.18564e-09
3.98473e-10
-3.3494e-09
-2.99212e-09
-8.16283e-09
-2.63726e-09
-1.11601e-08
1.08345e-09
-3.89108e-09
-2.51041e-09
-1.03526e-08
-8.00999e-09
-6.45155e-09
-5.9095e-09
-7.68296e-09
-6.33338e-09
-6.62442e-09
-6.44347e-09
-9.69765e-09
-9.80832e-09
-3.43756e-09
-2.6743e-09
-6.56058e-09
-7.84477e-09
-7.69653e-09
-8.83665e-09
-9.3914e-09
-9.17371e-09
-8.78557e-09
-2.66414e-09
-2.51323e-09
-2.66508e-09
-4.59966e-09
-6.73967e-09
-6.65402e-09
-6.36507e-09
-6.18929e-09
-5.82191e-09
3.71683e-09
1.89601e-09
-5.20768e-10
-1.56597e-09
-1.27919e-09
-2.50339e-09
-3.07896e-09
-1.3607e-09
-1.60539e-09
-6.28234e-10
6.04605e-09
3.78824e-09
3.52814e-09
1.593e-09
1.99641e-09
2.26804e-09
1.66936e-09
1.25748e-09
2.66536e-08
9.57505e-09
6.98493e-09
6.3946e-09
6.71599e-09
5.61271e-09
5.23653e-09
4.8509e-09
4.20211e-09
1.45935e-08
1.014e-08
6.15059e-09
9.71788e-09
5.35769e-09
8.68221e-09
4.60418e-09
6.36761e-09
5.33802e-09
1.13382e-08
6.01238e-09
4.56255e-09
5.97824e-09
4.32929e-09
6.75093e-09
4.68e-09
5.61111e-09
4.42946e-09
5.54641e-09
2.03685e-09
1.09471e-09
-3.2074e-10
1.51333e-09
4.11369e-10
1.5659e-09
-4.33077e-10
-5.13596e-10
-2.99411e-10
2.13542e-09
-1.6959e-09
-1.61517e-09
-1.80111e-09
-1.50719e-09
-1.81733e-09
-2.92242e-09
-4.32534e-09
-1.9389e-09
-3.3859e-09
2.54007e-09
-0.000130524
8.65692e-05
-3.13952e-05
5.4661e-05
-3.28072e-05
2.72255e-05
-2.56366e-05
8.67512e-06
-2.25143e-05
-3.97931e-06
-1.7466e-05
-9.36255e-06
-1.15593e-05
-9.91691e-06
-7.01409e-06
-8.72561e-06
-3.98787e-06
-7.07668e-06
-2.81968e-06
-5.08293e-06
-1.84568e-06
-3.20219e-06
-1.52819e-06
-1.75223e-06
-1.60862e-06
-8.6505e-07
-1.62095e-06
-5.35837e-07
-1.55812e-06
-5.83717e-07
-1.46233e-06
-6.051e-07
-1.13272e-06
-6.12932e-07
-7.03933e-07
-5.35734e-07
-4.35891e-07
-4.24268e-07
-2.37819e-07
-3.14517e-07
-1.37148e-07
-2.16222e-07
-8.8166e-08
-1.48297e-07
-6.48593e-08
-8.76308e-08
-5.91323e-08
-5.68714e-08
-3.87588e-08
-4.33578e-08
-2.49154e-08
-3.46915e-08
1.59701e-08
-3.29339e-08
-7.38796e-10
-4.94138e-08
-4.27703e-08
-4.53099e-08
-4.67666e-08
1.08681e-08
-3.32104e-08
-2.20109e-08
-4.3141e-08
-2.16814e-08
-2.15832e-08
-1.25665e-08
-1.48194e-09
-7.94303e-09
-1.42822e-08
-6.76852e-09
-1.87412e-08
-1.51281e-08
-1.22092e-08
-4.56086e-11
1.36702e-10
9.87709e-09
7.59976e-09
1.7975e-08
1.18674e-09
-6.6886e-09
-7.85931e-05
4.08916e-05
-2.09683e-05
3.16546e-05
-2.16795e-05
2.18037e-05
-1.75001e-05
1.28396e-05
-1.59035e-05
6.07957e-06
-1.26636e-05
1.92602e-06
-9.26276e-06
-2.08976e-07
-5.29571e-06
-9.50764e-07
-2.88371e-06
-1.05309e-06
-1.12811e-06
-9.59282e-07
-3.38111e-07
-7.89966e-07
-1.29496e-07
-5.75828e-07
-3.41824e-09
-3.77417e-07
-1.58264e-07
-2.12697e-07
-3.08326e-07
-6.65883e-08
-2.67912e-07
-1.03116e-07
-2.3921e-07
-1.70455e-07
-2.41473e-07
-2.48192e-07
-1.81434e-07
-2.78437e-07
-1.56721e-07
-2.49456e-07
-1.22872e-07
-1.91544e-07
-9.58368e-08
-1.23021e-07
-7.7018e-08
-8.50072e-08
-5.47047e-08
-5.15176e-08
-4.78325e-08
-2.81553e-08
-3.2667e-08
-3.52485e-09
-1.83529e-08
2.29309e-08
-2.13636e-08
8.01847e-09
-3.31514e-08
-1.91129e-08
-5.10194e-09
-5.30629e-08
-1.5916e-08
-2.98818e-08
-5.64163e-09
-3.30449e-08
-2.49803e-08
-1.74851e-08
-1.7036e-08
-5.41886e-09
7.03762e-10
-2.11971e-08
-1.25483e-08
-1.16302e-08
-2.13363e-09
-3.61206e-09
-1.0608e-10
6.28928e-09
1.07071e-08
6.88698e-09
1.15404e-08
-2.48898e-05
2.27816e-05
-3.26406e-06
2.32993e-05
-4.23088e-06
2.13322e-05
-4.19768e-06
1.7536e-05
-4.9504e-06
1.42232e-05
-4.80734e-06
1.1282e-05
-5.33973e-06
7.43467e-06
-4.50675e-06
4.17992e-06
-3.65674e-06
1.93564e-06
-2.63117e-06
8.53368e-07
-1.79768e-06
5.71204e-07
-8.77541e-07
6.42071e-07
-4.7967e-07
7.30076e-07
-1.92312e-07
6.53758e-07
-5.6621e-08
3.51945e-07
-1.54809e-07
9.64473e-08
-1.9201e-07
-1.01196e-07
-1.50114e-07
-1.94554e-07
-1.52659e-07
-2.14622e-07
-1.16657e-07
-1.96819e-07
-9.3884e-08
-1.58414e-07
-7.45593e-08
-1.24704e-07
-6.17236e-08
-7.72381e-08
-5.7785e-08
-4.81144e-08
-4.16127e-08
-3.06364e-08
-3.48939e-08
-2.10479e-08
3.88101e-10
-1.49209e-08
2.78753e-08
-1.14333e-08
2.05851e-08
-1.55782e-08
-3.13592e-08
6.39787e-09
-3.16739e-08
-1.77868e-08
-4.29854e-08
-1.84629e-08
-1.81978e-08
-8.8487e-09
5.93614e-09
-4.98893e-09
-1.69878e-08
-9.496e-09
-1.68666e-08
-8.33545e-09
-2.26384e-08
1.65543e-08
5.6607e-12
9.27187e-09
2.54322e-09
1.68807e-08
-5.41929e-06
2.88368e-05
3.76461e-07
2.04147e-05
-4.25074e-06
1.5699e-05
-6.07352e-06
1.18422e-05
-6.03798e-06
9.04942e-06
-6.40459e-06
7.18374e-06
-6.06426e-06
5.56562e-06
-5.65379e-06
3.86651e-06
-4.40672e-06
2.55808e-06
-3.63523e-06
1.55236e-06
-2.5517e-06
8.05607e-07
-2.02315e-06
2.50098e-07
-1.56244e-06
-8.17151e-08
-1.17987e-06
-2.52619e-07
-1.00189e-06
-2.2027e-07
-6.45054e-07
-1.83055e-07
-3.74014e-07
-1.59255e-07
-2.41226e-07
-1.7406e-07
-1.29202e-07
-1.90579e-07
-9.88584e-08
-1.82211e-07
-7.81392e-08
-1.53619e-07
-6.72072e-08
-1.05058e-07
-5.60922e-08
-7.79758e-08
-4.13731e-08
-4.94563e-08
-4.07554e-08
-3.15205e-08
-3.30245e-08
-2.21728e-08
-2.68646e-08
4.07763e-11
-8.11364e-09
2.3876e-08
-6.89526e-09
1.75999e-08
1.46982e-08
-4.13601e-08
-1.65483e-08
-2.90163e-08
-1.42812e-09
-2.75578e-08
-1.45056e-08
-1.28634e-08
-1.79594e-08
-3.30653e-09
-3.34743e-09
-1.38731e-08
-8.59841e-09
-1.3989e-08
-2.84562e-09
2.30995e-09
4.66352e-09
4.39699e-09
9.87974e-09
-8.00456e-06
1.72728e-05
-6.59459e-07
1.45659e-05
-2.4194e-06
1.28704e-05
-3.41096e-06
1.09354e-05
-3.54941e-06
8.92158e-06
-3.82206e-06
7.50838e-06
-3.85945e-06
6.28514e-06
-4.07888e-06
4.66754e-06
-3.61618e-06
3.18876e-06
-3.1959e-06
1.99045e-06
-2.55504e-06
1.21814e-06
-2.13025e-06
8.03055e-07
-1.4555e-06
6.30644e-07
-1.10286e-06
4.96814e-07
-6.47708e-07
2.82323e-07
-4.72243e-07
6.59391e-08
-3.80964e-07
-1.0871e-07
-2.66206e-07
-1.83991e-07
-2.12453e-07
-1.87472e-07
-1.3356e-07
-1.60441e-07
-8.43461e-08
-1.25807e-07
-5.28735e-08
-1.05905e-07
-4.12805e-08
-7.07728e-08
-4.10133e-08
-4.80452e-08
-3.16852e-08
-3.12041e-08
-3.31519e-08
-2.54502e-08
-2.61958e-08
-1.98388e-08
-3.85402e-09
-1.03269e-08
2.97722e-08
4.51783e-09
-1.91959e-08
7.65652e-09
-2.00346e-08
-3.18919e-09
-3.84062e-08
-8.12153e-09
-1.6861e-08
-2.06672e-08
5.01494e-09
-1.26157e-08
2.69135e-09
-8.64816e-09
-1.21914e-08
-1.13214e-08
-1.63034e-08
2.08356e-08
-2.00144e-09
8.39732e-09
-2.0426e-05
9.84376e-06
-5.07056e-06
7.31434e-06
-5.04594e-06
6.25615e-06
-4.75293e-06
5.44874e-06
-4.37737e-06
4.54944e-06
-3.79511e-06
3.86286e-06
-3.61948e-06
3.40605e-06
-3.25963e-06
2.97223e-06
-2.97534e-06
2.36363e-06
-2.40102e-06
1.79744e-06
-2.13612e-06
1.22991e-06
-1.6614e-06
6.90826e-07
-1.50746e-06
1.79545e-07
-1.29438e-06
-1.50741e-07
-1.13933e-06
-2.5659e-07
-8.62768e-07
-2.44821e-07
-5.56709e-07
-1.71883e-07
-3.48668e-07
-1.32897e-07
-1.7525e-07
-1.26605e-07
-1.06258e-07
-1.26178e-07
-6.78003e-08
-1.17634e-07
-5.26952e-08
-8.58835e-08
-3.97601e-08
-6.89517e-08
-2.75004e-08
-4.72258e-08
-2.9397e-08
-3.32044e-08
-2.61934e-08
-2.35769e-08
-3.16763e-08
-2.25348e-08
-2.3895e-08
-2.17891e-10
-1.10249e-08
1.67887e-08
2.33883e-08
-1.04969e-08
4.03635e-09
-2.39641e-08
9.0689e-09
-2.34555e-08
-6.92479e-09
5.68418e-09
-2.8788e-08
4.81038e-09
-1.09952e-08
1.42818e-09
-3.61282e-09
-6.19261e-09
-3.42076e-10
-4.67345e-09
-1.60473e-05
6.51155e-06
-3.678e-06
5.23837e-06
-3.25511e-06
4.81164e-06
-2.96355e-06
4.53098e-06
-2.73526e-06
4.12728e-06
-2.42925e-06
3.60778e-06
-2.31835e-06
3.23133e-06
-2.23891e-06
2.87275e-06
-2.24989e-06
2.30579e-06
-2.02754e-06
1.70166e-06
-1.8436e-06
1.13816e-06
-1.56077e-06
7.18113e-07
-1.40179e-06
4.77034e-07
-1.05249e-06
3.46013e-07
-7.68794e-07
1.95233e-07
-5.63427e-07
8.16408e-08
-4.17287e-07
-3.10674e-08
-2.84505e-07
-9.13888e-08
-2.21035e-07
-1.03854e-07
-1.36682e-07
-9.31535e-08
-8.08484e-08
-7.70017e-08
-4.16327e-08
-7.65844e-08
-2.84358e-08
-5.92504e-08
-2.8646e-08
-4.59525e-08
-2.23339e-08
-3.10873e-08
-2.64259e-08
-2.71325e-08
-2.71734e-08
-2.77846e-08
-2.26123e-08
-2.33399e-08
2.22323e-08
1.48204e-08
1.38652e-08
3.28432e-08
6.71252e-09
2.98515e-08
-2.65658e-08
2.57317e-09
2.33369e-09
-2.39341e-08
8.90779e-09
-1.76568e-08
1.07514e-08
-1.31774e-08
-1.15894e-08
-1.5794e-08
-1.48277e-05
6.96852e-06
-3.15307e-06
4.47285e-06
-3.51908e-06
3.4907e-06
-3.43946e-06
2.98138e-06
-3.20177e-06
2.60976e-06
-2.90533e-06
2.19779e-06
-2.55445e-06
1.85741e-06
-2.41119e-06
1.62532e-06
-2.19429e-06
1.44585e-06
-1.98762e-06
1.20168e-06
-1.61224e-06
9.65102e-07
-1.42005e-06
6.89858e-07
-1.10257e-06
3.6984e-07
-9.9711e-07
7.15714e-08
-9.33209e-07
-5.0678e-08
-7.24013e-07
-7.74031e-08
-5.1626e-07
-2.81436e-08
-3.31026e-07
1.1601e-08
-1.5498e-07
8.09196e-09
-8.18644e-08
-2.18662e-08
-4.70748e-08
-5.1682e-08
-4.00737e-08
-5.20996e-08
-3.08029e-08
-5.3385e-08
-2.0409e-08
-4.31473e-08
-2.21657e-08
-3.62384e-08
-2.18282e-08
-2.75091e-08
-3.12265e-08
-1.97736e-08
-3.07628e-08
-4.39392e-09
1.32222e-09
1.86839e-08
5.02614e-08
1.71795e-08
5.28325e-08
-1.65653e-08
1.74857e-08
-1.11272e-08
-8.77354e-09
2.29138e-08
-4.20456e-08
1.22945e-09
-1.74904e-08
-7.60805e-06
7.58062e-06
-1.53903e-06
5.24464e-06
-2.19973e-06
4.03336e-06
-2.27616e-06
3.37379e-06
-2.16517e-06
2.95336e-06
-2.0222e-06
2.55005e-06
-1.8015e-06
2.13252e-06
-1.6622e-06
1.82978e-06
-1.55294e-06
1.60362e-06
-1.46884e-06
1.33598e-06
-1.27563e-06
1.06306e-06
-1.11723e-06
7.95444e-07
-9.29127e-07
6.03017e-07
-8.51985e-07
4.72696e-07
-5.60811e-07
3.41585e-07
-4.82873e-07
2.30291e-07
-3.62019e-07
1.37989e-07
-2.40029e-07
6.52108e-08
-1.91339e-07
2.00488e-08
-1.25084e-07
-3.40418e-09
-7.94374e-08
-1.62048e-08
-4.13068e-08
-3.84723e-08
-2.65695e-08
-4.19737e-08
-2.48229e-08
-4.19577e-08
-1.90699e-08
-3.37572e-08
-2.22691e-08
-3.21612e-08
-1.95964e-08
-3.19975e-08
-3.3244e-08
6.21292e-10
-1.78333e-08
4.63736e-08
-5.18568e-09
6.30196e-08
-2.06969e-08
3.78404e-08
-4.89975e-08
5.60752e-09
1.40073e-08
-3.88339e-08
-8.04577e-06
3.6974e-06
-2.3829e-06
2.87416e-06
-2.23318e-06
2.32399e-06
-2.06465e-06
1.92089e-06
-1.93025e-06
1.68693e-06
-1.78428e-06
1.53829e-06
-1.59222e-06
1.38743e-06
-1.37315e-06
1.27076e-06
-1.24476e-06
1.20728e-06
-1.10154e-06
1.14709e-06
-1.00342e-06
1.02009e-06
-8.17319e-07
8.73985e-07
-7.32901e-07
6.59186e-07
-5.75873e-07
4.23864e-07
-6.27137e-07
2.57311e-07
-5.26227e-07
1.81953e-07
-3.92358e-07
1.6279e-07
-2.82648e-07
1.57408e-07
-1.40839e-07
1.29466e-07
-7.4052e-08
7.23839e-08
-4.44044e-08
1.05753e-08
-4.27536e-08
-1.85606e-08
-3.4719e-08
-3.57729e-08
-2.20197e-08
-3.48727e-08
-2.15026e-08
-3.46156e-08
-2.25238e-08
-2.56913e-08
-3.48357e-08
-4.34421e-08
-2.51805e-09
-5.4027e-08
4.14528e-08
-6.04298e-08
4.82386e-08
-5.43651e-08
5.98782e-08
-6.27876e-08
-8.5767e-06
1.58106e-06
-2.6872e-06
1.52967e-06
-2.24408e-06
1.47133e-06
-1.89276e-06
1.31582e-06
-1.62258e-06
1.23177e-06
-1.42108e-06
1.19495e-06
-1.22892e-06
1.15866e-06
-1.04803e-06
1.09327e-06
-9.05935e-07
1.05548e-06
-8.01995e-07
1.02229e-06
-7.27657e-07
9.32491e-07
-6.27194e-07
8.03162e-07
-5.5459e-07
6.66597e-07
-4.79481e-07
5.45858e-07
-4.24255e-07
4.15968e-07
-3.42747e-07
3.06679e-07
-3.2642e-07
2.12607e-07
-2.39364e-07
1.43367e-07
-1.90867e-07
8.35437e-08
-1.41563e-07
3.71347e-08
-1.07299e-07
1.10078e-08
-6.64641e-08
-1.49075e-08
-3.99573e-08
-2.32873e-08
-2.66671e-08
-3.34989e-08
-1.95395e-08
-3.46332e-08
-1.65102e-08
-3.77087e-08
-3.21882e-08
-2.0029e-08
-5.52324e-08
2.62886e-08
-8.67837e-08
-2.05297e-06
3.76681e-06
2.59412e-07
2.49979e-06
-6.08333e-07
1.82121e-06
-8.81398e-07
1.38236e-06
-9.39298e-07
1.1092e-06
-9.16111e-07
9.50227e-07
-8.77065e-07
8.48223e-07
-8.10463e-07
7.57684e-07
-7.27238e-07
6.8234e-07
-6.72464e-07
6.27217e-07
-6.16423e-07
5.752e-07
-5.62606e-07
4.98096e-07
-4.85998e-07
4.2229e-07
-4.22692e-07
3.42701e-07
-3.57894e-07
2.89024e-07
-3.30068e-07
2.56157e-07
-2.39172e-07
2.39119e-07
-1.83962e-07
2.07279e-07
-1.22059e-07
1.47041e-07
-8.16638e-08
9.61202e-08
-6.61623e-08
3.19723e-08
-5.80299e-08
6.38991e-10
-4.0255e-08
-1.61053e-08
-2.60577e-08
-2.4595e-08
-1.94213e-08
-1.88347e-08
-6.91491e-06
1.21702e-06
-2.14633e-06
9.03938e-07
-2.14301e-06
8.44678e-07
-1.90689e-06
7.85066e-07
-1.61245e-06
6.74512e-07
-1.37548e-06
5.84858e-07
-1.20348e-06
5.26648e-07
-1.074e-06
4.89997e-07
-9.3695e-07
4.43903e-07
-8.33062e-07
4.01901e-07
-7.41323e-07
3.67335e-07
-6.67072e-07
3.3505e-07
-5.62288e-07
2.97126e-07
-4.83099e-07
2.60917e-07
-4.01566e-07
2.22674e-07
-3.48735e-07
1.88243e-07
-2.79859e-07
1.36936e-07
-2.32639e-07
9.60517e-08
-2.58424e-07
2.43985e-07
)
;

boundaryField
{
    inlet
    {
        type            extrapolatedCalculated;
        value           nonuniform List<scalar> 
11
(
-1.6959e-09
-1.61517e-09
-1.80111e-09
-1.50719e-09
-1.81733e-09
-2.92242e-09
-4.32534e-09
-1.9389e-09
-3.3859e-09
2.54007e-09
-6.6886e-09
)
;
    }
    outlet
    {
        type            extrapolatedCalculated;
        value           nonuniform List<scalar> 0();
    }
    walls
    {
        type            extrapolatedCalculated;
        value           nonuniform List<scalar> 4(-3.39992e-05 -7.30279e-05 3.08634e-05 -5.62431e-05);
    }
    frontAndBack
    {
        type            empty;
    }
    procBoundary6to2
    {
        type            processor;
        value           nonuniform List<scalar> 
13
(
0.000137877
7.05371e-05
3.25833e-05
5.16702e-05
1.99062e-05
2.48248e-05
1.48955e-05
1.09808e-05
1.01001e-05
8.27787e-06
2.92551e-06
7.6404e-06
2.52617e-07
)
;
    }
    procBoundary6to3
    {
        type            processor;
        value           uniform 3.06475e-06;
    }
    procBoundary6to5
    {
        type            processor;
        value           nonuniform List<scalar> 
86
(
7.26837e-06
-4.33633e-06
7.61324e-06
-4.50955e-06
8.62967e-06
-4.33842e-06
1.0132e-05
-3.89779e-06
1.00017e-05
-3.29526e-06
9.13966e-06
-2.86102e-06
8.25519e-06
-2.1685e-06
7.27162e-06
-1.59928e-06
7.50049e-06
-1.03364e-06
7.09166e-06
-5.62237e-07
6.60437e-06
-3.32762e-07
5.62964e-06
-5.44004e-07
3.99956e-06
-1.37589e-06
2.64635e-06
-2.21983e-06
2.72841e-07
-4.67044e-08
-1.03959e-06
2.01613e-06
-2.52969e-06
-2.52969e-06
-1.35378e-06
9.37426e-07
-1.08151e-06
7.93017e-07
-9.42674e-07
7.08956e-07
-9.0178e-07
3.5218e-07
-4.65819e-07
1.0421e-07
1.18029e-07
-1.27184e-07
-1.27184e-07
-2.81966e-07
2.04047e-07
-1.97535e-07
1.23901e-07
-1.36671e-07
8.93583e-08
-3.32816e-08
4.34835e-08
-1.07151e-07
-1.07151e-07
-1.20988e-07
-3.35649e-08
3.58482e-08
-7.14705e-08
2.17469e-08
-3.33737e-08
-5.3136e-09
-5.3136e-09
-1.59159e-08
-7.97255e-09
-3.01267e-08
1.79505e-08
-2.11309e-08
1.89368e-08
7.52515e-09
7.52515e-09
4.12106e-09
-6.63858e-09
4.13669e-10
-3.72353e-09
4.13258e-09
-4.62184e-09
1.5754e-08
8.54422e-09
1.35363e-08
1.35363e-08
7.31082e-09
1.01899e-09
-1.65407e-09
)
;
    }
    procBoundary6to7
    {
        type            processor;
        value           nonuniform List<scalar> 
91
(
3.83641e-09
3.83641e-09
5.20515e-09
5.20515e-09
1.63906e-08
1.63906e-08
7.9258e-09
9.86876e-09
7.9258e-09
1.05398e-08
-1.79892e-08
9.86876e-09
2.42233e-08
4.72246e-10
-1.05436e-08
-1.79892e-08
-3.13845e-09
5.86036e-09
-2.44944e-08
4.72246e-10
8.37975e-09
4.40633e-08
-1.98271e-08
-1.31834e-08
5.86036e-09
2.03333e-08
4.81098e-08
-7.06164e-08
7.46509e-08
-5.54663e-08
4.40633e-08
4.05672e-08
-3.65872e-08
-2.03129e-08
-4.41599e-08
-4.6613e-08
-2.2298e-08
-4.89444e-08
4.81098e-08
-2.10588e-08
-2.88082e-07
4.27243e-08
-1.18226e-07
1.02138e-08
-9.00289e-08
-2.88807e-09
-5.21938e-08
-1.25689e-08
-4.30721e-08
-2.70542e-08
-3.362e-08
-3.65872e-08
-3.55339e-08
-3.48797e-06
4.71164e-07
-4.57379e-07
2.34599e-07
-4.30738e-07
2.40922e-07
-3.55358e-07
2.61384e-07
-3.23202e-07
2.53424e-07
-2.8077e-07
2.49268e-07
-2.82478e-07
2.53107e-07
-2.70866e-07
2.6559e-07
-2.77461e-07
2.65213e-07
-2.70534e-07
2.64515e-07
-2.74584e-07
2.61488e-07
-2.75864e-07
2.50286e-07
-2.58792e-07
2.28138e-07
-2.53917e-07
1.95241e-07
-2.23593e-07
1.40087e-07
-2.28491e-07
7.93035e-08
-2.34703e-07
4.18624e-08
-2.07542e-07
1.16283e-08
-2.88082e-07
-1.67131e-07
)
;
    }
}


// ************************************************************************* //
