/*--------------------------------*- C++ -*----------------------------------*\
| =========                 |                                                 |
| \\      /  F ield         | OpenFOAM: The Open Source CFD Toolbox           |
|  \\    /   O peration     | Version:  2306                                  |
|   \\  /    A nd           | Website:  www.openfoam.com                      |
|    \\/     M anipulation  |                                                 |
\*---------------------------------------------------------------------------*/
FoamFile
{
    version     2.0;
    format      ascii;
    arch        "LSB;label=32;scalar=64";
    class       volScalarField;
    location    "275";
    object      p;
}
// * * * * * * * * * * * * * * * * * * * * * * * * * * * * * * * * * * * * * //

dimensions      [0 2 -2 0 0 0 0];

internalField   nonuniform List<scalar> 
1340
(
-90.1294
-51.6122
-6.95037
26.1139
-89.7611
-51.3234
-6.64921
25.8032
-89.3353
-51.0033
-6.40124
25.9219
-88.8543
-50.704
-6.30231
26.1228
-88.2536
-50.4123
-6.34419
26.1798
-87.6
-50.1496
-6.55711
26.0574
-86.9683
-49.9792
-6.97843
25.7296
-86.3188
-49.8821
-7.59171
25.1452
-85.6352
-49.7963
-8.30229
24.2859
-84.9213
-49.6937
-9.05308
23.2022
-84.1856
-49.5701
-9.85343
21.9599
-83.4365
-49.4442
-10.719
20.5849
-82.6735
-49.3371
-11.6505
19.0827
-81.8934
-49.2558
-12.6451
17.4677
-81.0948
-49.1957
-13.7002
15.7525
-80.2771
-49.1536
-14.8091
13.9432
-79.4403
-49.1273
-15.9636
12.0462
-78.5826
-49.1159
-17.155
10.0727
-77.7031
-49.1176
-18.3742
8.03462
-76.7997
-49.1294
-19.6128
5.94498
-75.8704
-49.1471
-20.8613
3.81809
-74.9131
-49.1662
-22.1094
1.66884
-73.9253
-49.1811
-23.348
-0.488694
-72.9046
-49.1855
-24.5664
-2.639
-71.8477
-49.173
-25.7541
-4.76716
-70.7531
-49.1359
-26.9006
-6.85797
-69.6173
-49.0673
-27.9969
-8.89619
-68.4384
-48.9608
-29.0322
-10.868
-67.2142
-48.8069
-29.9978
-12.7601
-65.9428
-48.6007
-30.8841
-14.56
-64.6232
-48.335
-31.6837
-16.257
-63.2553
-48.0042
-32.3893
-17.8413
-61.8381
-47.6037
-32.9943
-19.3039
-72.7224
-60.3736
-47.129
-33.4933
-20.6382
-70.2718
-58.8628
-46.5786
-33.883
-21.8383
-67.814
-57.3082
-45.9508
-34.1602
-22.9003
-65.3554
-55.7131
-45.245
-34.3237
-23.8218
-62.9029
-54.0817
-44.4629
-34.3731
-24.6016
-60.4632
-52.4181
-43.6066
-34.3099
-25.2404
-58.0429
-50.728
-42.6798
-34.1368
-25.74
-55.6487
-49.0168
-41.6869
-33.8575
-26.1034
-53.2866
-47.2908
-40.6335
-33.4771
-26.3353
-50.9627
-45.5559
-39.5257
-33.0016
-26.4412
-48.6822
-43.8185
-38.3704
-32.4379
-26.4275
-46.4501
-42.085
-37.1747
-31.7935
-26.3016
-47.6593
-44.2708
-40.3614
-35.9457
-31.0765
-26.0715
-45.1703
-42.1479
-38.6535
-34.6912
-30.2953
-25.7458
-42.7765
-40.0847
-36.9668
-33.4183
-29.4583
-25.3332
-40.4778
-38.0837
-35.306
-32.1339
-28.574
-24.8428
-38.2737
-36.1467
-33.6758
-30.8448
-27.6508
-24.2837
-36.1629
-34.2752
-32.0798
-29.5572
-26.6967
-23.6649
-34.144
-32.47
-30.5216
-28.2767
-25.7192
-22.9951
-32.2148
-30.7314
-29.0037
-27.0086
-24.7254
-22.2826
-30.3729
-29.0591
-27.5286
-25.7573
-23.722
-21.5355
-29.6043
-28.6156
-27.4527
-26.0978
-24.5267
-22.7147
-20.761
-27.8162
-26.9402
-25.9113
-24.7125
-23.3202
-21.7089
-19.9661
-26.1196
-25.3436
-24.4334
-23.3734
-22.1406
-20.7092
-19.1569
-24.5097
-23.8224
-23.0177
-22.0808
-20.9899
-19.7198
-18.339
-22.9822
-22.3736
-21.6622
-20.8346
-19.8701
-18.744
-17.5175
-21.5324
-20.9936
-20.3651
-19.6344
-18.7821
-17.7847
-16.6967
-20.156
-19.6793
-19.1242
-18.4794
-17.7268
-16.8443
-15.8803
-19.2088
-18.8488
-18.4272
-17.9373
-17.3687
-16.7047
-15.9246
-15.0716
-17.9254
-17.6065
-17.2341
-16.802
-16.3011
-15.7158
-15.027
-14.2732
-16.7071
-16.4251
-16.0965
-15.7159
-15.2751
-14.7599
-14.1524
-13.4874
-15.5498
-15.3009
-15.0114
-14.6768
-14.2895
-13.8366
-13.3018
-12.7161
-14.4485
-14.2295
-13.9752
-13.6817
-13.3422
-12.945
-12.475
-11.9603
-13.4004
-13.2084
-12.9859
-12.729
-12.4322
-12.0848
-11.673
-11.222
-12.5565
-12.3833
-12.1828
-11.9515
-11.6844
-11.3718
-11.0011
-10.5955
-11.9932
-11.8551
-11.6949
-11.5095
-11.2957
-11.0492
-10.7612
-10.4194
-10.0456
-11.2676
-11.1402
-10.994
-10.8244
-10.6285
-10.4027
-10.1392
-9.82647
-9.48684
-10.5227
-10.4051
-10.2718
-10.1171
-9.93839
-9.73283
-9.49317
-9.20778
-8.89555
-9.78059
-9.67579
-9.55777
-9.41987
-9.25947
-9.07447
-8.85887
-8.60335
-8.33234
-8.98841
-8.89165
-8.78472
-8.66035
-8.51623
-8.35067
-8.15701
-7.92268
-7.65822
-8.28327
-8.20541
-8.11847
-8.01414
-7.89009
-7.74588
-7.57894
-7.38597
-7.20118
-7.34465
-7.26749
-7.18587
-7.09147
-6.98192
-6.85569
-6.70389
-6.5068
-6.25156
-6.89877
-6.85686
-6.80749
-6.74141
-6.65714
-6.55734
-6.44845
-6.3433
-6.3071
-5.38168
-5.32044
-5.26158
-5.19684
-5.12299
-5.03533
-4.91416
-4.71794
-4.37852
-5.99576
-6.02284
-6.0254
-6.02137
-6.00452
-5.97129
-5.92955
-5.90829
-5.9593
-6.21796
-2.51737
-2.44991
-2.39147
-2.34931
-2.31086
-2.26925
-2.21602
-2.10608
-1.85815
-1.29069
-6.77136
-6.65247
-6.67373
-6.7999
-6.89288
-6.93756
-6.98072
-7.09705
-7.39282
-8.07087
106.98
106.247
105.297
104.059
102.324
99.8989
96.5662
92.1468
86.6709
80.4951
74.1387
67.9729
62.114
56.5399
51.2109
46.1113
41.2411
36.6021
32.1923
28.0054
24.0318
20.2625
16.6883
13.3009
10.0927
7.05631
4.18489
1.47166
-1.08788
-3.49727
-5.75839
-7.87179
-9.83799
-11.6563
-13.3258
-14.846
-16.2166
-17.4376
-18.5099
-19.435
-20.2151
-20.8538
-21.3552
-21.7242
-21.967
-22.0904
-22.1017
-22.0087
-21.8197
-21.5435
-21.1888
-20.7643
-20.2786
-19.74
-19.1567
-18.536
-17.8852
-17.2107
-16.5186
-15.8141
-15.1022
-14.3869
-13.6719
-12.9603
-12.255
-11.5577
-10.8719
-10.285
-9.76159
-9.23334
-8.66088
-8.13789
-7.457
-7.0819
-6.04911
-6.30592
-4.11479
-6.40789
-0.929666
-8.54634
47.0104
46.4963
46.0114
45.5634
45.1264
44.7392
44.4295
44.1683
43.86
43.3742
42.6288
41.6192
40.3518
38.8253
37.0576
35.0812
32.9305
30.6376
28.2317
25.7409
23.1913
20.6079
18.013
15.4264
12.8657
10.3465
7.88374
5.49068
3.17898
0.957535
-1.16633
-3.18636
-5.09799
-6.8968
-8.57893
-10.1414
-11.5815
-12.8971
-14.0867
-15.1493
-16.0846
-16.8934
-17.5772
-18.1382
-18.5797
-18.9059
-19.1215
-19.2323
-19.2443
-19.1645
-19
-18.7581
-18.4465
-18.0727
-17.6443
-17.1684
-16.652
-16.1019
-15.524
-14.9242
-14.3077
-13.6791
-13.0428
-12.4022
-11.761
-11.1214
-10.487
-9.94076
-9.45094
-8.95724
-8.41451
-7.9249
-7.26818
-6.92493
-5.91618
-6.18715
-4.05836
-6.27783
-1.02613
29.2504
28.9544
28.6297
28.2959
27.9163
27.4697
26.9531
26.366
25.7099
24.9903
24.2207
23.4333
22.6562
21.8882
21.1138
20.3125
19.4659
18.5602
17.584
16.5296
15.3921
14.1706
12.8672
11.4874
10.0394
8.5333
6.98072
5.39355
3.78511
2.16892
0.558517
-1.0326
-2.59216
-4.10837
-5.5704
-6.96867
-8.29454
-9.54045
-10.6998
-11.7672
-12.7381
-13.6093
-14.3785
-15.0443
-15.6066
-16.0664
-16.4253
-16.6862
-16.8526
-16.9289
-16.9203
-16.8322
-16.6706
-16.4419
-16.1523
-15.8085
-15.4168
-14.9834
-14.5144
-14.0154
-13.4919
-12.9486
-12.3903
-11.8209
-11.2443
-10.6633
-10.0816
-9.57736
-9.12252
-8.66381
-8.15344
-7.6955
-7.07115
-6.7481
-5.78886
-6.0351
-4.03324
-6.08902
27.8446
27.6552
27.4489
27.2341
26.9969
26.7189
26.3821
25.9682
25.4558
24.8245
24.064
23.1894
22.243
21.2594
20.2512
19.2218
18.1739
17.111
16.0355
14.9482
13.8482
12.7337
11.6023
10.4517
9.28002
8.08596
6.86923
5.6303
4.37155
3.09645
1.80995
0.518573
-0.770502
-2.0491
-3.30837
-4.53939
-5.73317
-6.88103
-7.97468
-9.00645
-9.96958
-10.8582
-11.6675
-12.3932
-13.0326
-13.5838
-14.0461
-14.4198
-14.706
-14.9069
-15.0254
-15.0653
-15.031
-14.9271
-14.7589
-14.532
-14.252
-13.9245
-13.555
-13.1492
-12.7122
-12.249
-11.7644
-11.2625
-10.7475
-10.2226
-9.6916
-9.22779
-8.80574
-8.37955
-7.89955
-7.47162
-6.87706
-6.57606
-5.65664
-5.89637
-3.98103
23.6022
23.3965
23.1861
22.9843
22.7836
22.5772
22.357
22.1147
21.8424
21.5285
21.158
20.716
20.1991
19.6174
18.9783
18.2838
17.5348
16.7327
15.8799
14.98
14.0369
13.0547
12.0375
10.9898
9.91556
8.81884
7.70344
6.57279
5.43049
4.27986
3.12428
1.96769
0.814017
-0.332235
-1.46596
-2.58168
-3.67345
-4.735
-5.75979
-6.74135
-7.67337
-8.5499
-9.36538
-10.1148
-10.7941
-11.3998
-11.9295
-12.3815
-12.7551
-13.0507
-13.2693
-13.413
-13.4842
-13.4865
-13.4236
-13.2999
-13.12
-12.8889
-12.6114
-12.2926
-11.9374
-11.5506
-11.1369
-10.7006
-10.2459
-9.7764
-9.29563
-8.87187
-8.48245
-8.08863
-7.63908
-7.24149
-6.67596
-6.39989
-5.51433
-5.76068
18.952
18.7739
18.5883
18.409
18.2287
18.0447
17.8543
17.6515
17.4305
17.1862
16.9124
16.6013
16.2466
15.8493
15.4163
14.9516
14.4559
13.9285
13.3671
12.7692
12.1332
11.4581
10.7434
9.98922
9.19659
8.36719
7.5035
6.60854
5.68603
4.73999
3.77477
2.7952
1.80606
0.812367
-0.180639
-1.16769
-2.14333
-3.10203
-4.03808
-4.94579
-5.81945
-6.65353
-7.44258
-8.18147
-8.86558
-9.49074
-10.0534
-10.5507
-10.9806
-11.3418
-11.6338
-11.857
-12.0125
-12.1021
-12.1282
-12.0939
-12.0027
-11.8585
-11.6653
-11.4276
-11.1498
-10.8362
-10.4914
-10.1193
-9.72429
-9.31003
-8.87991
-8.49677
-8.14091
-7.78047
-7.36278
-6.99656
-6.46173
-6.21135
15.8195
15.6727
15.5169
15.3637
15.2077
15.0477
14.8842
14.7143
14.533
14.335
14.1154
13.8685
13.5874
13.2676
12.9114
12.5255
12.1144
11.6802
11.2246
10.7469
10.2459
9.72052
9.17005
8.59361
7.99042
7.35994
6.70191
6.01646
5.30424
4.56638
3.80462
3.02136
2.21947
1.40243
0.574249
-0.260691
-1.09759
-1.93145
-2.75693
-3.56863
-4.36109
-5.12886
-5.86657
-6.56893
-7.23107
-7.84836
-8.41656
-8.93206
-9.3917
-9.7931
-10.1345
-10.415
-10.6341
-10.7925
-10.8911
-10.9317
-10.9166
-10.8486
-10.7309
-10.5671
-10.3607
-10.1158
-9.83634
-9.52609
-9.18909
-8.82911
-8.44919
-8.10675
-7.78477
-7.45809
-7.07307
-6.73863
13.6161
13.492
13.3585
13.2253
13.0889
12.9486
12.806
12.6609
12.5113
12.3531
12.1823
11.995
11.7859
11.5491
11.2801
10.9793
10.651
10.2987
9.92401
9.52883
9.11314
8.67599
8.21692
7.7359
7.23293
6.70802
6.16127
5.5929
5.00331
4.39301
3.76277
3.11369
2.44711
1.76478
1.06894
0.362196
-0.352338
-1.07116
-1.79031
-2.50549
-3.21219
-3.90567
-4.58107
-5.23343
-5.85798
-6.45004
-7.00516
-7.51925
-7.98863
-8.41013
-8.78113
-9.0996
-9.36419
-9.57414
-9.72942
-9.8306
-9.87885
-9.8759
-9.82394
-9.72559
-9.58384
-9.40189
-9.18317
-8.93114
-8.6494
-8.34168
-8.01059
-7.70809
-7.4196
11.8018
11.6965
11.5828
11.4679
11.3486
11.2247
11.0981
10.9697
10.8392
10.7052
10.5647
10.4145
10.2515
10.0716
9.87006
9.64273
9.38925
9.11252
8.81493
8.498
8.16324
7.81056
7.43876
7.04704
6.63509
6.20276
5.75
5.27686
4.7837
4.27095
3.73932
3.18974
2.62329
2.04132
1.44548
0.837655
0.220031
-0.404861
-1.03417
-1.66471
-2.29303
-2.91538
-3.52779
-4.12606
-4.70596
-5.2632
-5.79354
-6.29293
-6.75749
-7.18374
-7.56856
-7.90922
-8.20366
-8.45022
-8.64794
-8.79641
-8.89581
-8.94687
-8.95086
-8.90951
-8.82499
-8.69978
-8.53669
-8.3387
-8.10891
-7.8509
10.2859
10.1964
10.1002
10.0025
9.89992
9.79145
9.67913
9.5644
9.44771
9.32901
9.20734
9.08049
8.94571
8.80042
8.64139
8.46454
8.26622
8.0457
7.80511
7.54657
7.27157
6.98164
6.67699
6.35651
6.0193
5.66491
5.29304
4.90346
4.49603
4.07077
3.62785
3.16774
2.69102
2.19857
1.69152
1.17125
0.63942
0.0979637
-0.450893
-1.00465
-1.56053
-2.11555
-2.66644
-3.2097
-3.74172
-4.25875
-4.75696
-5.23257
-5.68183
-6.10122
-6.48745
-6.83747
-7.14872
-7.41899
-7.64659
-7.83036
-7.96963
-8.06431
-8.11479
-8.12199
-8.08728
-8.01241
9.04355
8.96713
8.88496
8.8015
8.71412
8.6209
8.52253
8.42052
8.31595
8.20933
8.10084
7.98985
7.87467
7.75303
7.62272
7.48102
7.32437
7.14942
6.95504
6.74273
6.51438
6.27142
6.01539
5.7468
5.46476
5.16842
4.85737
4.53139
4.19031
3.83397
3.46231
3.07546
2.67362
2.25718
1.82677
1.38321
0.92755
0.461101
-0.0145302
-0.49749
-0.985663
-1.47668
-1.96791
-2.45646
-2.93929
-3.41318
-3.87473
-4.32055
-4.74717
-5.15121
-5.5294
-5.87862
-6.19605
-6.47915
-6.72577
-6.93418
-7.10308
8.01201
7.94641
7.87591
7.80405
7.72884
7.64903
7.56457
7.4755
7.38252
7.28676
7.18899
7.08946
6.98783
6.88284
6.77267
6.65538
6.52866
6.38945
6.23463
6.06277
5.87477
5.67228
5.45661
5.22921
4.99079
4.74069
4.47802
4.20235
3.91355
3.61148
3.29601
2.96717
2.625
2.26969
1.90161
1.52123
1.12923
0.726467
0.31403
-0.10677
-0.534401
-0.967091
-1.40281
-1.83927
-2.274
-2.70432
-3.12735
-3.54011
-3.9395
-4.32241
7.1372
7.08067
7.01997
6.958
6.89303
6.82399
6.75124
6.67476
6.59396
6.50905
6.42114
6.33118
6.23955
6.14609
6.04995
5.94961
5.8434
5.72938
5.60491
5.46711
5.31434
5.14703
4.96657
4.77419
4.57124
4.35861
4.13581
3.90197
3.65661
3.39958
3.13077
2.85011
2.55754
2.25311
1.93701
1.60952
1.27107
0.922239
)
;

boundaryField
{
    inlet
    {
        type            freestreamPressure;
        freestreamValue uniform 0;
        value           nonuniform List<scalar> 
11
(
-3.17729
-2.92111
-2.93206
-2.98909
-3.03148
-3.05259
-3.07302
-3.12573
-3.2578
-3.41785
-3.76909
)
;
    }
    outlet
    {
        type            freestreamPressure;
        freestreamValue nonuniform List<scalar> 0();
        value           nonuniform List<scalar> 0();
    }
    walls
    {
        type            zeroGradient;
    }
    frontAndBack
    {
        type            empty;
    }
    procBoundary6to2
    {
        type            processor;
        value           nonuniform List<scalar> 
13
(
106.619
47.3311
29.4062
27.9744
23.7501
19.0748
15.9252
13.7094
11.8826
10.3559
9.10452
8.06519
7.18359
)
;
    }
    procBoundary6to3
    {
        type            processor;
        value           uniform 6.38679;
    }
    procBoundary6to5
    {
        type            processor;
        value           nonuniform List<scalar> 
86
(
-127.745
-127.279
-126.72
-125.967
-124.944
-123.841
-122.722
-121.564
-120.362
-119.104
-117.788
-116.418
-114.995
-113.517
-111.984
-110.394
-108.748
-107.044
-105.283
-103.465
-101.589
-99.6573
-97.6693
-95.6265
-93.5307
-91.3825
-89.1862
-86.9426
-84.656
-82.3301
-79.9687
-77.5767
-75.1595
-75.1595
-83.8624
-80.5251
-77.2194
-73.9551
-70.7409
-67.5853
-64.4958
-61.479
-58.5408
-55.6861
-52.9191
-50.2427
-50.2427
-50.5319
-47.7306
-45.0557
-42.5047
-40.0746
-37.7618
-35.5627
-33.473
-31.4884
-31.4884
-30.4331
-28.5525
-26.7735
-25.0904
-23.4977
-21.99
-20.5621
-20.5621
-19.5116
-18.1945
-16.9457
-15.7609
-14.6347
-13.564
-12.7047
-12.7047
-12.1108
-11.3778
-10.6262
-9.87387
-9.07666
-8.35366
-7.41892
-6.93353
-5.44781
-5.44781
-5.90494
-2.55724
-6.35962
)
;
    }
    procBoundary6to7
    {
        type            processor;
        value           nonuniform List<scalar> 
91
(
-8.35956
-8.35956
-1.17409
-1.17409
-5.94625
-5.94625
-3.90749
-5.36178
-3.90749
-5.61442
-6.23601
-5.36178
-6.01105
-7.12626
-6.77397
-6.23601
-6.47108
-7.56674
-7.30295
-7.12626
-7.04719
-7.89952
-7.75104
-7.56952
-7.56674
-7.35828
-7.23167
-7.31965
-7.36716
-7.37486
-7.89952
-7.34378
-4.68576
-5.0265
-5.34175
-5.62884
-5.88536
-6.1092
-7.23167
-6.29864
0.563787
0.19665
-0.17805
-0.559
-0.944652
-1.33323
-1.72278
-2.11113
-2.49589
-2.87455
-3.24442
-4.68576
-3.60275
6.33794
6.28549
6.23189
6.17572
6.11597
6.05279
5.98649
5.91696
5.84352
5.76595
5.6851
5.60206
5.51736
5.43105
5.34256
5.25068
5.15391
5.05063
4.93861
4.81519
4.67857
4.52876
4.36695
4.19427
4.01202
3.8212
3.62155
3.41221
3.19267
2.96276
2.72244
2.47159
2.21017
1.93822
1.65587
1.36335
0.563787
1.06103
)
;
    }
}


// ************************************************************************* //
