/*--------------------------------*- C++ -*----------------------------------*\
| =========                 |                                                 |
| \\      /  F ield         | OpenFOAM: The Open Source CFD Toolbox           |
|  \\    /   O peration     | Version:  2306                                  |
|   \\  /    A nd           | Website:  www.openfoam.com                      |
|    \\/     M anipulation  |                                                 |
\*---------------------------------------------------------------------------*/
FoamFile
{
    version     2.0;
    format      ascii;
    arch        "LSB;label=32;scalar=64";
    class       volScalarField;
    location    "275";
    object      turbulenceProperties:nut;
}
// * * * * * * * * * * * * * * * * * * * * * * * * * * * * * * * * * * * * * //

dimensions      [0 2 -1 0 0 0 0];

internalField   nonuniform List<scalar> 
1340
(
0.0869624
0.0785403
0.0690927
0.0539699
0.153769
0.148477
0.139842
0.14709
0.206134
0.207378
0.201438
0.211852
0.215025
0.2316
0.238859
0.255293
0.17455
0.216663
0.247556
0.277819
0.0926916
0.159717
0.223295
0.277625
0.021183
0.0776337
0.165332
0.251435
0.000792299
0.0167532
0.089489
0.199079
0.000174197
0.00454109
0.0298196
0.132053
0
2.54175e-05
0.00288936
0.0723121
0
0
0.00136371
0.0329172
9.83638e-09
0
0.000276788
0.012842
2.36767e-06
1.44509e-12
7.06215e-05
0.0042557
1.03928e-05
1.23355e-08
1.20768e-06
0.00107791
9.21434e-06
2.50818e-06
2.64918e-10
5.95115e-05
6.39344e-06
9.7475e-06
7.56672e-11
4.89539e-07
5.26693e-06
1.19938e-05
1.05868e-09
6.42655e-16
5.32523e-06
9.3357e-06
1.74805e-06
6.14029e-10
5.7584e-06
6.87079e-06
6.93268e-06
1.05206e-07
6.08272e-06
5.86565e-06
8.4634e-06
1.77288e-06
6.19443e-06
5.73889e-06
7.5353e-06
4.66346e-06
6.18324e-06
5.89896e-06
6.59637e-06
6.16325e-06
6.14436e-06
6.04766e-06
6.1664e-06
6.40975e-06
6.11856e-06
6.11442e-06
6.06246e-06
6.27925e-06
6.10911e-06
6.12678e-06
6.07531e-06
6.16219e-06
6.10804e-06
6.12095e-06
6.1011e-06
6.117e-06
6.10902e-06
6.1147e-06
6.11323e-06
6.11075e-06
6.10963e-06
6.11179e-06
6.11508e-06
6.11423e-06
6.10964e-06
6.11101e-06
6.11364e-06
6.11649e-06
6.10942e-06
6.11088e-06
6.11225e-06
6.11655e-06
6.10919e-06
6.11079e-06
6.11153e-06
6.11575e-06
6.10905e-06
6.11062e-06
6.1112e-06
6.11498e-06
6.10898e-06
6.11046e-06
6.11099e-06
6.11441e-06
6.10824e-06
6.10897e-06
6.11034e-06
6.11083e-06
6.114e-06
6.10831e-06
6.10899e-06
6.11027e-06
6.11071e-06
6.11368e-06
6.10842e-06
6.10905e-06
6.11025e-06
6.11064e-06
6.11341e-06
6.10855e-06
6.10914e-06
6.11027e-06
6.11061e-06
6.11321e-06
6.1087e-06
6.10926e-06
6.11032e-06
6.11063e-06
6.11305e-06
6.10887e-06
6.1094e-06
6.1104e-06
6.11068e-06
6.11295e-06
6.10906e-06
6.10957e-06
6.11051e-06
6.11078e-06
6.11289e-06
6.10926e-06
6.10975e-06
6.11064e-06
6.1109e-06
6.11288e-06
6.10946e-06
6.10994e-06
6.11079e-06
6.11105e-06
6.11291e-06
6.10967e-06
6.11014e-06
6.11096e-06
6.11121e-06
6.11296e-06
6.10986e-06
6.11033e-06
6.11112e-06
6.11139e-06
6.11305e-06
6.11004e-06
6.11051e-06
6.11128e-06
6.11157e-06
6.11315e-06
6.10972e-06
6.1102e-06
6.11068e-06
6.11144e-06
6.11174e-06
6.11325e-06
6.10984e-06
6.11033e-06
6.11082e-06
6.11157e-06
6.11191e-06
6.11336e-06
6.10992e-06
6.11042e-06
6.11093e-06
6.11168e-06
6.11204e-06
6.11345e-06
6.10995e-06
6.11047e-06
6.111e-06
6.11174e-06
6.11215e-06
6.11352e-06
6.10993e-06
6.11047e-06
6.11102e-06
6.11177e-06
6.11221e-06
6.11356e-06
6.10984e-06
6.1104e-06
6.11097e-06
6.11174e-06
6.11222e-06
6.11354e-06
6.10968e-06
6.11027e-06
6.11086e-06
6.11164e-06
6.11217e-06
6.11346e-06
6.10944e-06
6.11005e-06
6.11067e-06
6.11146e-06
6.11205e-06
6.11331e-06
6.1091e-06
6.10973e-06
6.11038e-06
6.11119e-06
6.11183e-06
6.11308e-06
6.10805e-06
6.10865e-06
6.10931e-06
6.10999e-06
6.11083e-06
6.11152e-06
6.11276e-06
6.10746e-06
6.1081e-06
6.10878e-06
6.10949e-06
6.11034e-06
6.11109e-06
6.11233e-06
6.10677e-06
6.10742e-06
6.10813e-06
6.10886e-06
6.10974e-06
6.11054e-06
6.11178e-06
6.10596e-06
6.10663e-06
6.10735e-06
6.10812e-06
6.10901e-06
6.10986e-06
6.1111e-06
6.10503e-06
6.10572e-06
6.10647e-06
6.10725e-06
6.10817e-06
6.10905e-06
6.11029e-06
6.10394e-06
6.10467e-06
6.10544e-06
6.10625e-06
6.10719e-06
6.10811e-06
6.10936e-06
6.1026e-06
6.10337e-06
6.10419e-06
6.10505e-06
6.10603e-06
6.10701e-06
6.10827e-06
6.10009e-06
6.10087e-06
6.1017e-06
6.10258e-06
6.10351e-06
6.10456e-06
6.10562e-06
6.10695e-06
6.09787e-06
6.09869e-06
6.09956e-06
6.1005e-06
6.1015e-06
6.10263e-06
6.1038e-06
6.10523e-06
6.09534e-06
6.09616e-06
6.09704e-06
6.098e-06
6.09903e-06
6.10021e-06
6.10147e-06
6.10299e-06
6.0927e-06
6.09349e-06
6.09434e-06
6.09526e-06
6.09628e-06
6.09744e-06
6.09872e-06
6.10027e-06
6.09003e-06
6.09077e-06
6.09157e-06
6.09244e-06
6.09339e-06
6.0945e-06
6.09572e-06
6.09723e-06
6.08739e-06
6.08812e-06
6.0889e-06
6.08973e-06
6.09064e-06
6.09168e-06
6.09283e-06
6.09423e-06
6.08489e-06
6.08564e-06
6.08644e-06
6.0873e-06
6.08822e-06
6.08925e-06
6.09038e-06
6.0917e-06
6.08165e-06
6.08234e-06
6.08307e-06
6.08387e-06
6.08472e-06
6.08566e-06
6.08672e-06
6.08787e-06
6.08922e-06
6.07897e-06
6.07958e-06
6.08024e-06
6.08097e-06
6.08177e-06
6.08265e-06
6.08367e-06
6.08481e-06
6.08616e-06
6.07625e-06
6.07677e-06
6.07734e-06
6.07797e-06
6.07866e-06
6.07944e-06
6.08034e-06
6.08136e-06
6.0826e-06
6.07353e-06
6.07396e-06
6.07444e-06
6.07498e-06
6.07557e-06
6.07624e-06
6.07702e-06
6.0779e-06
6.079e-06
6.07117e-06
6.07138e-06
6.07165e-06
6.07198e-06
6.07237e-06
6.07284e-06
6.07342e-06
6.0741e-06
6.07499e-06
6.0714e-06
6.07128e-06
6.07117e-06
6.07111e-06
6.07109e-06
6.07114e-06
6.07129e-06
6.07153e-06
6.07195e-06
6.07423e-06
6.07406e-06
6.07388e-06
6.07369e-06
6.07348e-06
6.07327e-06
6.07304e-06
6.07285e-06
6.07269e-06
6.07756e-06
6.07739e-06
6.07718e-06
6.07693e-06
6.07665e-06
6.07631e-06
6.07592e-06
6.0755e-06
6.07497e-06
6.08169e-06
6.08179e-06
6.08188e-06
6.08195e-06
6.08201e-06
6.08205e-06
6.08202e-06
6.08203e-06
6.0819e-06
6.08492e-06
6.08497e-06
6.0849e-06
6.08477e-06
6.08459e-06
6.08435e-06
6.08412e-06
6.08387e-06
6.08375e-06
6.08363e-06
6.09054e-06
6.09144e-06
6.09244e-06
6.09349e-06
6.09458e-06
6.09567e-06
6.09684e-06
6.09798e-06
6.09942e-06
6.10075e-06
6.10009e-06
6.10028e-06
6.10039e-06
6.10044e-06
6.10043e-06
6.1004e-06
6.1005e-06
6.10075e-06
6.10123e-06
6.10162e-06
0.17268
0.21495
0.255112
0.299458
0.325602
0.328401
0.306155
0.257496
0.185159
0.104137
0.0431409
0.0151515
0.00469363
0.00107563
2.41208e-05
1.02441e-07
0
2.56723e-11
1.29021e-08
1.20571e-06
4.2524e-06
6.1124e-06
6.47761e-06
6.33435e-06
6.18653e-06
6.12457e-06
6.11337e-06
6.11686e-06
6.11986e-06
6.12014e-06
6.11915e-06
6.11807e-06
6.11723e-06
6.11657e-06
6.11602e-06
6.11555e-06
6.11515e-06
6.11482e-06
6.11454e-06
6.11432e-06
6.11416e-06
6.11404e-06
6.11396e-06
6.11391e-06
6.11389e-06
6.11389e-06
6.1139e-06
6.1139e-06
6.11389e-06
6.11385e-06
6.11384e-06
6.11381e-06
6.1137e-06
6.11352e-06
6.11324e-06
6.11284e-06
6.11233e-06
6.11168e-06
6.1109e-06
6.10999e-06
6.10893e-06
6.10765e-06
6.10597e-06
6.10377e-06
6.10107e-06
6.098e-06
6.09494e-06
6.09238e-06
6.08989e-06
6.08683e-06
6.08322e-06
6.07953e-06
6.07544e-06
6.07214e-06
6.0726e-06
6.07479e-06
6.0818e-06
6.08352e-06
6.10162e-06
6.10181e-06
0.213596
0.258109
0.287876
0.316243
0.344843
0.356608
0.34404
0.304361
0.237789
0.151413
0.067765
0.0203608
0.00550998
0.00135074
6.92408e-05
6.30079e-07
0
7.2676e-12
3.56473e-09
9.07077e-07
3.97781e-06
6.04766e-06
6.50394e-06
6.36592e-06
6.20207e-06
6.12917e-06
6.11428e-06
6.11745e-06
6.12078e-06
6.12117e-06
6.12007e-06
6.1188e-06
6.1178e-06
6.11711e-06
6.11655e-06
6.11607e-06
6.11565e-06
6.1153e-06
6.115e-06
6.11477e-06
6.11459e-06
6.11445e-06
6.11436e-06
6.1143e-06
6.11427e-06
6.11426e-06
6.11426e-06
6.11426e-06
6.11425e-06
6.11421e-06
6.11421e-06
6.1142e-06
6.11412e-06
6.11395e-06
6.11369e-06
6.11331e-06
6.11281e-06
6.11218e-06
6.11141e-06
6.1105e-06
6.10945e-06
6.10818e-06
6.10652e-06
6.10433e-06
6.10162e-06
6.09852e-06
6.09543e-06
6.09284e-06
6.09034e-06
6.08725e-06
6.08361e-06
6.07985e-06
6.07573e-06
6.07225e-06
6.07254e-06
6.07474e-06
6.0817e-06
6.08347e-06
6.1022e-06
0.217346
0.268451
0.30288
0.325739
0.346855
0.365192
0.367134
0.344653
0.294306
0.217112
0.123032
0.0428138
0.00693754
0.000781775
0.000172102
0
0
1.84157e-13
8.82106e-11
4.71952e-07
3.38606e-06
5.90658e-06
6.5457e-06
6.41227e-06
6.22476e-06
6.13593e-06
6.11455e-06
6.11661e-06
6.12061e-06
6.12158e-06
6.12064e-06
6.11937e-06
6.11833e-06
6.11762e-06
6.11707e-06
6.11659e-06
6.11618e-06
6.11582e-06
6.11552e-06
6.11528e-06
6.11509e-06
6.11495e-06
6.11485e-06
6.11479e-06
6.11476e-06
6.11475e-06
6.11475e-06
6.11475e-06
6.11474e-06
6.11471e-06
6.11471e-06
6.1147e-06
6.11463e-06
6.11448e-06
6.11422e-06
6.11386e-06
6.11337e-06
6.11274e-06
6.11197e-06
6.11106e-06
6.11001e-06
6.10875e-06
6.1071e-06
6.10492e-06
6.1022e-06
6.09906e-06
6.09593e-06
6.09331e-06
6.09079e-06
6.08768e-06
6.08402e-06
6.08018e-06
6.07603e-06
6.07237e-06
6.07248e-06
6.07471e-06
6.08159e-06
6.08343e-06
0.202136
0.257754
0.299404
0.327042
0.345224
0.361399
0.373374
0.369719
0.342382
0.287287
0.205203
0.108632
0.0315668
0.000543896
0.000106647
0
0
0
4.18294e-10
1.82279e-07
2.44891e-06
5.42838e-06
6.54752e-06
6.50892e-06
6.27348e-06
6.14665e-06
6.114e-06
6.11514e-06
6.1201e-06
6.12192e-06
6.12134e-06
6.12009e-06
6.11899e-06
6.11825e-06
6.1177e-06
6.11722e-06
6.1168e-06
6.11644e-06
6.11613e-06
6.11588e-06
6.11568e-06
6.11553e-06
6.11543e-06
6.11536e-06
6.11533e-06
6.11532e-06
6.11532e-06
6.11532e-06
6.11531e-06
6.11528e-06
6.11527e-06
6.11527e-06
6.11521e-06
6.11506e-06
6.11481e-06
6.11445e-06
6.11397e-06
6.11334e-06
6.11257e-06
6.11167e-06
6.11061e-06
6.10935e-06
6.10771e-06
6.10554e-06
6.10281e-06
6.09964e-06
6.09646e-06
6.0938e-06
6.09126e-06
6.08813e-06
6.08444e-06
6.08053e-06
6.07635e-06
6.07251e-06
6.07242e-06
6.07468e-06
6.08148e-06
0.17215
0.231895
0.280609
0.316446
0.340078
0.35538
0.368319
0.376642
0.370247
0.341096
0.284474
0.200804
0.104069
0.0270741
0.0069513
0
0
0
9.60702e-14
4.50646e-11
1.09811e-06
4.80921e-06
6.46345e-06
6.56476e-06
6.35265e-06
6.18261e-06
6.11687e-06
6.11158e-06
6.11881e-06
6.12215e-06
6.12204e-06
6.12093e-06
6.11981e-06
6.11899e-06
6.11841e-06
6.11793e-06
6.1175e-06
6.11712e-06
6.1168e-06
6.11654e-06
6.11633e-06
6.11617e-06
6.11606e-06
6.11598e-06
6.11594e-06
6.11593e-06
6.11593e-06
6.11593e-06
6.11592e-06
6.11589e-06
6.11588e-06
6.11588e-06
6.11582e-06
6.11568e-06
6.11544e-06
6.11509e-06
6.1146e-06
6.11398e-06
6.11321e-06
6.1123e-06
6.11125e-06
6.10999e-06
6.10836e-06
6.10619e-06
6.10346e-06
6.10024e-06
6.09702e-06
6.09432e-06
6.09176e-06
6.08861e-06
6.08488e-06
6.08091e-06
6.07668e-06
6.07267e-06
6.07237e-06
6.07464e-06
0.129642
0.192856
0.248247
0.292854
0.32556
0.347114
0.36081
0.371616
0.377911
0.370457
0.341166
0.284745
0.201421
0.104133
0.0285601
0.0074122
4.97033e-11
0
0
4.96473e-13
1.58113e-10
2.19489e-06
6.70308e-06
6.9734e-06
6.4094e-06
6.20058e-06
6.13416e-06
6.11203e-06
6.11534e-06
6.12198e-06
6.12324e-06
6.1219e-06
6.12062e-06
6.11979e-06
6.11919e-06
6.11869e-06
6.11825e-06
6.11786e-06
6.11752e-06
6.11724e-06
6.11701e-06
6.11684e-06
6.11672e-06
6.11664e-06
6.11659e-06
6.11657e-06
6.11657e-06
6.11657e-06
6.11656e-06
6.11654e-06
6.11652e-06
6.11652e-06
6.11647e-06
6.11634e-06
6.1161e-06
6.11575e-06
6.11528e-06
6.11465e-06
6.11389e-06
6.11298e-06
6.11192e-06
6.11066e-06
6.10904e-06
6.10688e-06
6.10414e-06
6.10089e-06
6.09762e-06
6.09488e-06
6.0923e-06
6.08911e-06
6.08536e-06
6.08131e-06
6.07704e-06
6.07286e-06
0.0783645
0.141764
0.202809
0.255775
0.298419
0.329832
0.350634
0.363599
0.372965
0.37821
0.370744
0.342374
0.287347
0.205128
0.1088
0.033489
5.07623e-05
6.6827e-06
0
0
7.33684e-14
1.37646e-11
2.62909e-06
7.72895e-06
7.28092e-06
6.27221e-06
6.084e-06
6.11045e-06
6.11671e-06
6.11763e-06
6.12211e-06
6.12338e-06
6.12197e-06
6.12066e-06
6.11997e-06
6.1195e-06
6.11905e-06
6.11863e-06
6.11827e-06
6.11798e-06
6.11773e-06
6.11755e-06
6.11741e-06
6.11732e-06
6.11727e-06
6.11725e-06
6.11724e-06
6.11724e-06
6.11724e-06
6.11721e-06
6.11719e-06
6.11719e-06
6.11715e-06
6.11702e-06
6.1168e-06
6.11646e-06
6.11598e-06
6.11536e-06
6.1146e-06
6.11368e-06
6.11262e-06
6.11137e-06
6.10976e-06
6.10761e-06
6.10486e-06
6.10158e-06
6.09825e-06
6.09546e-06
6.09286e-06
6.08965e-06
6.08586e-06
6.08174e-06
0.0296511
0.0821218
0.144743
0.204752
0.25696
0.299254
0.330717
0.35176
0.364658
0.373077
0.377907
0.371126
0.344414
0.29153
0.21125
0.117251
0.038679
0.000883802
0.000280149
0
0
1.16132e-17
8.59516e-09
2.16072e-06
8.18456e-06
7.6019e-06
6.20719e-06
5.99322e-06
6.10531e-06
6.13612e-06
6.12446e-06
6.12107e-06
6.12235e-06
6.12201e-06
6.12098e-06
6.12032e-06
6.11987e-06
6.11946e-06
6.11908e-06
6.11876e-06
6.1185e-06
6.11829e-06
6.11814e-06
6.11804e-06
6.11798e-06
6.11795e-06
6.11794e-06
6.11795e-06
6.11794e-06
6.11792e-06
6.1179e-06
6.11789e-06
6.11786e-06
6.11774e-06
6.11753e-06
6.11719e-06
6.11673e-06
6.11611e-06
6.11534e-06
6.11443e-06
6.11337e-06
6.11211e-06
6.11051e-06
6.10837e-06
6.10562e-06
6.1023e-06
6.09892e-06
6.09608e-06
6.09346e-06
0.00312668
0.0278522
0.0784904
0.140252
0.200346
0.253138
0.296333
0.328897
0.350978
0.364362
0.372215
0.377048
0.371428
0.346914
0.296754
0.219588
0.126886
0.0453834
0.00322954
0.000919116
0
0
0
4.07749e-09
9.66633e-07
7.74232e-06
8.08128e-06
6.25405e-06
5.871e-06
6.05374e-06
6.14451e-06
6.13514e-06
6.12256e-06
6.12155e-06
6.12201e-06
6.12144e-06
6.12079e-06
6.12033e-06
6.11994e-06
6.11959e-06
6.1193e-06
6.11908e-06
6.11891e-06
6.1188e-06
6.11873e-06
6.11869e-06
6.11868e-06
6.11868e-06
6.11868e-06
6.11866e-06
6.11864e-06
6.11863e-06
6.1186e-06
6.1185e-06
6.11829e-06
6.11796e-06
6.1175e-06
6.1169e-06
6.11613e-06
6.11521e-06
6.11415e-06
6.11289e-06
6.1113e-06
6.10918e-06
6.10643e-06
6.10308e-06
0.000396817
0.00157465
0.0222596
0.0690046
0.129566
0.190496
0.244938
0.29007
0.324625
0.348459
0.362907
0.370846
0.375794
0.371535
0.349555
0.302687
0.228953
0.137507
0.0536699
0.00700195
0.00191342
0
0
0
6.59774e-10
1.30338e-07
6.34872e-06
8.92837e-06
6.74903e-06
5.89994e-06
5.99628e-06
6.12996e-06
6.14002e-06
6.12492e-06
6.12142e-06
6.12204e-06
6.12186e-06
6.1213e-06
6.12085e-06
6.12048e-06
6.12017e-06
6.11992e-06
6.11973e-06
6.11959e-06
6.11951e-06
6.11947e-06
6.11945e-06
6.11945e-06
6.11945e-06
6.11944e-06
6.11942e-06
6.11941e-06
6.11938e-06
6.11929e-06
6.11909e-06
6.11878e-06
6.11832e-06
6.11772e-06
6.11696e-06
6.11604e-06
6.11497e-06
6.11372e-06
0
0.000314142
0.00129134
0.016226
0.0559526
0.114041
0.175836
0.232644
0.280577
0.317942
0.344279
0.360563
0.369613
0.374612
0.371628
0.352268
0.308966
0.238702
0.148919
0.0632448
0.011972
0.00321743
0
0
0
5.10496e-12
3.07059e-10
3.28401e-06
8.44861e-06
7.16116e-06
6.0356e-06
5.97852e-06
6.11344e-06
6.14088e-06
6.12723e-06
6.12206e-06
6.1225e-06
6.12244e-06
6.12184e-06
6.12138e-06
6.12105e-06
6.1208e-06
6.12059e-06
6.12044e-06
6.12034e-06
6.12028e-06
6.12026e-06
6.12026e-06
6.12026e-06
6.12025e-06
6.12023e-06
6.12022e-06
6.1202e-06
6.12012e-06
6.11993e-06
6.11963e-06
6.11918e-06
0
0
5.04868e-06
8.42433e-05
0.00996541
0.0417344
0.0951886
0.157063
0.216459
0.267847
0.308785
0.33842
0.357367
0.368005
0.373239
0.371561
0.354901
0.31525
0.248609
0.160826
0.0737227
0.0182962
0.0048154
1.76997e-05
0
0
3.34259e-16
8.72587e-09
2.10378e-06
7.71159e-06
7.37692e-06
6.15732e-06
5.973e-06
6.09871e-06
6.13988e-06
6.12798e-06
6.12182e-06
6.12271e-06
6.12316e-06
6.12265e-06
6.12212e-06
6.12175e-06
6.12149e-06
6.12132e-06
6.12121e-06
6.12114e-06
6.12111e-06
6.12111e-06
6.12111e-06
6.12111e-06
1.62282e-08
8.21216e-18
0
3.63336e-12
0.00114364
0.00445654
0.0279223
0.0747358
0.13512
0.19676
0.251974
0.297123
0.330746
0.352994
0.365692
0.371431
0.371137
0.357236
0.321322
0.25846
0.17292
0.0850691
0.023929
0.00206953
0.000517125
0
0
0
4.73179e-09
1.14216e-06
7.02357e-06
7.60349e-06
6.28513e-06
5.96873e-06
6.08992e-06
6.1472e-06
6.13362e-06
6.12254e-06
)
;

boundaryField
{
    inlet
    {
        type            freestream;
        freestreamValue uniform 1e-05;
        value           nonuniform List<scalar> 
11
(
6.10009e-06
6.10028e-06
6.10039e-06
6.10044e-06
6.10043e-06
6.1004e-06
6.1005e-06
6.10075e-06
6.10123e-06
6.10162e-06
6.10181e-06
)
;
    }
    outlet
    {
        type            freestream;
        freestreamValue nonuniform List<scalar> 0();
        value           nonuniform List<scalar> 0();
    }
    walls
    {
        type            nutUSpaldingWallFunction;
        value           nonuniform List<scalar> 4(0.00176587 0.00156676 0.00134302 0.000591052);
    }
    frontAndBack
    {
        type            empty;
    }
    procBoundary6to2
    {
        type            processor;
        value           nonuniform List<scalar> 
13
(
0.12655
0.149744
0.151028
0.134897
0.104094
0.0645635
0.0255868
0.00290814
0.000782983
0
0
1.14004e-08
3.74709e-06
)
;
    }
    procBoundary6to3
    {
        type            processor;
        value           uniform 5.22662e-06;
    }
    procBoundary6to5
    {
        type            processor;
        value           nonuniform List<scalar> 
86
(
0.0928365
0.159272
0.203267
0.192902
0.123647
0.037719
0.00156184
0.000377445
0
0
1.47591e-08
3.65723e-06
8.65685e-06
6.68972e-06
5.64125e-06
5.81914e-06
6.19214e-06
6.30766e-06
6.2395e-06
6.14931e-06
6.10297e-06
6.09431e-06
6.10037e-06
6.10682e-06
6.1097e-06
6.11e-06
6.10939e-06
6.10881e-06
6.10846e-06
6.10829e-06
6.10822e-06
6.10819e-06
6.10819e-06
6.10819e-06
6.10754e-06
6.10766e-06
6.10781e-06
6.10797e-06
6.10815e-06
6.10835e-06
6.10856e-06
6.10877e-06
6.10899e-06
6.10919e-06
6.10939e-06
6.10957e-06
6.10957e-06
6.1093e-06
6.1094e-06
6.10947e-06
6.10948e-06
6.10944e-06
6.10933e-06
6.10915e-06
6.10888e-06
6.10851e-06
6.10851e-06
6.10747e-06
6.10686e-06
6.10615e-06
6.10532e-06
6.10437e-06
6.10325e-06
6.10187e-06
6.10187e-06
6.09934e-06
6.0971e-06
6.09458e-06
6.09197e-06
6.08934e-06
6.0867e-06
6.08419e-06
6.08419e-06
6.08103e-06
6.07841e-06
6.07577e-06
6.07315e-06
6.07099e-06
6.07152e-06
6.07436e-06
6.07767e-06
6.08159e-06
6.08159e-06
6.08464e-06
6.08982e-06
6.09975e-06
)
;
    }
    procBoundary6to7
    {
        type            processor;
        value           nonuniform List<scalar> 
91
(
6.10204e-06
6.10204e-06
6.1028e-06
6.1028e-06
6.08337e-06
6.08337e-06
6.08137e-06
6.07232e-06
6.08137e-06
6.07458e-06
6.07742e-06
6.07232e-06
6.07307e-06
6.09023e-06
6.0864e-06
6.07742e-06
6.0822e-06
6.09963e-06
6.09674e-06
6.09023e-06
6.09409e-06
6.11214e-06
6.11003e-06
6.10728e-06
6.09963e-06
6.1039e-06
6.11859e-06
6.11783e-06
6.11691e-06
6.11584e-06
6.11214e-06
6.11458e-06
6.12109e-06
6.12107e-06
6.12105e-06
6.12098e-06
6.12081e-06
6.12052e-06
6.11859e-06
6.12009e-06
6.12222e-06
6.12303e-06
6.12294e-06
6.12274e-06
6.12254e-06
6.1223e-06
6.12212e-06
6.12204e-06
6.12201e-06
6.122e-06
6.122e-06
6.12109e-06
6.122e-06
1.58328e-09
7.23614e-12
0
0
8.62403e-05
0.000265527
0.0154026
0.0537221
0.110529
0.173529
0.232687
0.282587
0.320852
0.347023
0.362302
0.369019
0.370092
0.358927
0.326819
0.26788
0.185082
0.0968929
0.0322526
0.0017007
0.000472792
0
0
0
2.11734e-09
5.0465e-07
6.30672e-06
7.94155e-06
6.43124e-06
5.91746e-06
6.04077e-06
6.14164e-06
6.12222e-06
6.14063e-06
)
;
    }
}


// ************************************************************************* //
