/*--------------------------------*- C++ -*----------------------------------*\
| =========                 |                                                 |
| \\      /  F ield         | OpenFOAM: The Open Source CFD Toolbox           |
|  \\    /   O peration     | Version:  2306                                  |
|   \\  /    A nd           | Website:  www.openfoam.com                      |
|    \\/     M anipulation  |                                                 |
\*---------------------------------------------------------------------------*/
FoamFile
{
    version     2.0;
    format      ascii;
    arch        "LSB;label=32;scalar=64";
    class       volScalarField;
    location    "275";
    object      turbulenceProperties:k;
}
// * * * * * * * * * * * * * * * * * * * * * * * * * * * * * * * * * * * * * //

dimensions      [0 2 -2 0 0 0 0];

internalField   nonuniform List<scalar> 
1340
(
25.4546
20.1772
15.066
5.59963
9.51607
8.47132
7.41058
8.55353
12.0994
10.5136
8.71071
9.80305
12.4319
11.6932
10.238
11.0144
8.07158
10.0383
10.4153
11.5906
1.82881
5.13646
8.30713
11.0513
0.125758
0.833236
4.21413
8.8488
0.00786544
0.103502
0.946262
5.28244
0.000838825
0.0318719
0.129421
2.09207
0
0.00014974
0.0154327
0.547141
0
0
0.00495428
0.140563
2.55002e-06
0
0.0007997
0.0484256
3.91229e-05
2.99559e-08
0.000257975
0.0160935
8.20569e-05
2.64245e-06
2.65418e-05
0.00403893
7.486e-05
3.68975e-05
3.68386e-07
0.000275619
6.01007e-05
7.24248e-05
1.87455e-07
1.91713e-05
5.27634e-05
7.85709e-05
6.72965e-07
6.3331e-10
5.14041e-05
6.65642e-05
2.65913e-05
5.70964e-07
5.17425e-05
5.46617e-05
5.19276e-05
6.94292e-06
5.13499e-05
4.84343e-05
5.52932e-05
2.67481e-05
4.98912e-05
4.59637e-05
4.97252e-05
4.08113e-05
4.78644e-05
4.46452e-05
4.42294e-05
4.38484e-05
4.57025e-05
4.32033e-05
4.06398e-05
4.16005e-05
4.35758e-05
4.14013e-05
3.82552e-05
3.82675e-05
4.1502e-05
3.93896e-05
3.62896e-05
3.5238e-05
3.94496e-05
3.73208e-05
3.43824e-05
3.26443e-05
3.74055e-05
3.52724e-05
3.24635e-05
3.03424e-05
3.53713e-05
3.32622e-05
3.05571e-05
2.82299e-05
3.33512e-05
3.1291e-05
2.86874e-05
2.62582e-05
3.13593e-05
2.93652e-05
2.68738e-05
2.44147e-05
2.94059e-05
2.749e-05
2.51187e-05
2.26884e-05
2.74959e-05
2.56725e-05
2.34318e-05
2.10707e-05
2.56396e-05
2.39146e-05
2.18123e-05
1.9556e-05
2.52929e-05
2.38437e-05
2.22252e-05
2.02625e-05
1.81346e-05
2.34461e-05
2.21136e-05
2.06076e-05
1.87876e-05
1.68009e-05
2.16728e-05
2.04562e-05
1.90637e-05
1.73875e-05
1.55501e-05
1.99794e-05
1.88746e-05
1.75962e-05
1.60623e-05
1.43769e-05
1.83704e-05
1.73726e-05
1.62071e-05
1.48119e-05
1.32771e-05
1.68485e-05
1.59527e-05
1.48972e-05
1.36363e-05
1.22472e-05
1.5416e-05
1.4616e-05
1.36657e-05
1.25335e-05
1.12835e-05
1.40737e-05
1.33629e-05
1.25125e-05
1.15015e-05
1.03828e-05
1.28214e-05
1.21929e-05
1.14363e-05
1.05387e-05
9.54204e-06
1.16577e-05
1.11045e-05
1.04349e-05
9.64214e-06
8.7584e-06
1.05808e-05
1.0096e-05
9.506e-06
8.80968e-06
8.02871e-06
9.5876e-06
9.16457e-06
8.64717e-06
8.03826e-06
7.35073e-06
8.97408e-06
8.67498e-06
8.30694e-06
7.85514e-06
7.3249e-06
6.72175e-06
8.09765e-06
7.83903e-06
7.51994e-06
7.12677e-06
6.66683e-06
6.1392e-06
7.2987e-06
7.07544e-06
6.7996e-06
6.45861e-06
6.06108e-06
5.60067e-06
6.57234e-06
6.37996e-06
6.14204e-06
5.84709e-06
5.50449e-06
5.10372e-06
5.91362e-06
5.74799e-06
5.54318e-06
5.28874e-06
4.99416e-06
4.64609e-06
5.31757e-06
5.17513e-06
4.99903e-06
4.77988e-06
4.52713e-06
4.2254e-06
4.77921e-06
4.65678e-06
4.50558e-06
4.31712e-06
4.10056e-06
3.83937e-06
4.29389e-06
4.18865e-06
4.05885e-06
3.89695e-06
3.71161e-06
3.48585e-06
3.85701e-06
3.76649e-06
3.65513e-06
3.51612e-06
3.35755e-06
3.16264e-06
3.52635e-06
3.46422e-06
3.38635e-06
3.29074e-06
3.17142e-06
3.03576e-06
2.86765e-06
3.16526e-06
3.11148e-06
3.04438e-06
2.96228e-06
2.85983e-06
2.74373e-06
2.59883e-06
2.84167e-06
2.79504e-06
2.73714e-06
2.66652e-06
2.5785e-06
2.47904e-06
2.35423e-06
2.55197e-06
2.51143e-06
2.46134e-06
2.40051e-06
2.32477e-06
2.23944e-06
2.13197e-06
2.29277e-06
2.25742e-06
2.21399e-06
2.16145e-06
2.09619e-06
2.02284e-06
1.93029e-06
2.0608e-06
2.02992e-06
1.99218e-06
1.94674e-06
1.8904e-06
1.8272e-06
1.74751e-06
1.85276e-06
1.8258e-06
1.79304e-06
1.75372e-06
1.70509e-06
1.65057e-06
1.58198e-06
1.68474e-06
1.66549e-06
1.64204e-06
1.61367e-06
1.57974e-06
1.53782e-06
1.49082e-06
1.43196e-06
1.51348e-06
1.49661e-06
1.47621e-06
1.45167e-06
1.42244e-06
1.38641e-06
1.34597e-06
1.29568e-06
1.3595e-06
1.34456e-06
1.32669e-06
1.30536e-06
1.2801e-06
1.24909e-06
1.2143e-06
1.17144e-06
1.22194e-06
1.20849e-06
1.19261e-06
1.17385e-06
1.15184e-06
1.12499e-06
1.09494e-06
1.05844e-06
1.0989e-06
1.08656e-06
1.07215e-06
1.05538e-06
1.03589e-06
1.01231e-06
9.86028e-07
9.5464e-07
9.93297e-07
9.82064e-07
9.69037e-07
9.53973e-07
9.36577e-07
9.15547e-07
8.92188e-07
8.6456e-07
9.09081e-07
8.98761e-07
8.86914e-07
8.73318e-07
8.57635e-07
8.38612e-07
8.17513e-07
7.93971e-07
8.45018e-07
8.36638e-07
8.26333e-07
8.14833e-07
8.02005e-07
7.87403e-07
7.69924e-07
7.5028e-07
7.29331e-07
7.80613e-07
7.72351e-07
7.6218e-07
7.5088e-07
7.38409e-07
7.24358e-07
7.07869e-07
6.89797e-07
6.72343e-07
7.13115e-07
7.04607e-07
6.94436e-07
6.83261e-07
6.71086e-07
6.57502e-07
6.41554e-07
6.23249e-07
6.04058e-07
6.58662e-07
6.50922e-07
6.41536e-07
6.31027e-07
6.19427e-07
6.06564e-07
5.91996e-07
5.77057e-07
5.65617e-07
5.82327e-07
5.73684e-07
5.63904e-07
5.5342e-07
5.42215e-07
5.29749e-07
5.14745e-07
4.95904e-07
4.74777e-07
5.57941e-07
5.50774e-07
5.42101e-07
5.32272e-07
5.21539e-07
5.10179e-07
4.98804e-07
4.90313e-07
4.89786e-07
4.51303e-07
4.43065e-07
4.34066e-07
4.24378e-07
4.13828e-07
4.01487e-07
3.84942e-07
3.6233e-07
3.35046e-07
5.17988e-07
5.12969e-07
5.0649e-07
4.9854e-07
4.89961e-07
4.82008e-07
4.78359e-07
4.84876e-07
5.01444e-07
4.03385e-07
4.02767e-07
3.99875e-07
3.94682e-07
3.87478e-07
3.7769e-07
3.64304e-07
3.56605e-07
3.42502e-07
6.96899e-07
6.80933e-07
6.81246e-07
6.81378e-07
6.80577e-07
6.79596e-07
6.80649e-07
6.93561e-07
7.25036e-07
7.41146e-07
7.47647e-07
7.43177e-07
7.47588e-07
7.53008e-07
7.57628e-07
7.61776e-07
7.67641e-07
7.8715e-07
8.1997e-07
8.18155e-07
1.26509e-06
1.06875e-06
1.08398e-06
1.09695e-06
1.10461e-06
1.11344e-06
1.1253e-06
1.14872e-06
1.16921e-06
9.99879e-07
15.1226
6.90694
3.12612
9.00898
12.0018
12.585
11.2032
8.06207
4.11466
1.22923
0.205358
0.0416056
0.013893
0.00349125
0.000142124
7.77188e-06
0
1.00821e-07
2.08869e-06
1.89031e-05
3.34238e-05
3.74644e-05
3.58365e-05
3.28781e-05
3.0153e-05
2.78683e-05
2.58762e-05
2.40673e-05
2.23875e-05
2.08235e-05
1.93675e-05
1.80121e-05
1.67511e-05
1.55741e-05
1.44738e-05
1.34451e-05
1.24812e-05
1.15774e-05
1.07297e-05
9.93447e-06
9.18803e-06
8.48773e-06
7.83186e-06
7.21702e-06
6.64206e-06
6.10509e-06
5.60417e-06
5.13778e-06
4.70432e-06
4.30227e-06
3.93013e-06
3.58625e-06
3.26925e-06
2.97755e-06
2.70965e-06
2.46407e-06
2.23936e-06
2.03409e-06
1.84686e-06
1.67637e-06
1.52131e-06
1.38026e-06
1.25175e-06
1.13419e-06
1.02699e-06
9.27939e-07
8.41191e-07
7.74262e-07
7.10347e-07
6.58927e-07
5.85466e-07
5.60524e-07
4.50632e-07
4.99463e-07
2.97516e-07
5.26634e-07
3.06434e-07
7.40397e-07
7.60155e-07
9.37894e-07
10.9498
10.3341
4.93069
2.79201
6.92355
9.32824
9.57763
7.91763
4.90276
1.85878
0.29692
0.0216597
0.00552179
0.00196977
0.000141202
1.04704e-05
0
3.06428e-08
6.49817e-07
1.00559e-05
2.05169e-05
2.43761e-05
2.41187e-05
2.26627e-05
2.12117e-05
1.99755e-05
1.8878e-05
1.78499e-05
1.68633e-05
1.59167e-05
1.50114e-05
1.41477e-05
1.33258e-05
1.25416e-05
1.17931e-05
1.10793e-05
1.03971e-05
9.74582e-06
9.12391e-06
8.5302e-06
7.96349e-06
7.42307e-06
6.90897e-06
6.41948e-06
5.95496e-06
5.51501e-06
5.09888e-06
4.70632e-06
4.33691e-06
3.99015e-06
3.66558e-06
3.36245e-06
3.08017e-06
2.81799e-06
2.57508e-06
2.35058e-06
2.14361e-06
1.95321e-06
1.77842e-06
1.6183e-06
1.47188e-06
1.33803e-06
1.21559e-06
1.10316e-06
1.00031e-06
9.05037e-07
8.20897e-07
7.55691e-07
6.92352e-07
6.43814e-07
5.70009e-07
5.49014e-07
4.3684e-07
4.90911e-07
2.85138e-07
5.1687e-07
2.95614e-07
7.21974e-07
7.38127e-07
7.12976
8.59098
6.87517
3.00156
2.324
5.73177
7.68219
7.7219
6.02338
3.29913
0.963448
0.0859746
0.00374512
0.000561441
0.000184167
0
0
2.86672e-09
5.98152e-08
4.28771e-06
1.14154e-05
1.48779e-05
1.53003e-05
1.47266e-05
1.40931e-05
1.35781e-05
1.31363e-05
1.27134e-05
1.2283e-05
1.18411e-05
1.13891e-05
1.09301e-05
1.0468e-05
1.00034e-05
9.53843e-06
9.07565e-06
8.61621e-06
8.16282e-06
7.71656e-06
7.2792e-06
6.85186e-06
6.43601e-06
6.03314e-06
5.64319e-06
5.26781e-06
4.9076e-06
4.56283e-06
4.23408e-06
3.92162e-06
3.62563e-06
3.34623e-06
3.08319e-06
2.83646e-06
2.60565e-06
2.39041e-06
2.19026e-06
2.00462e-06
1.83292e-06
1.67443e-06
1.52852e-06
1.39445e-06
1.27132e-06
1.15824e-06
1.05396e-06
9.58166e-07
8.69125e-07
7.898e-07
7.28405e-07
6.67363e-07
6.22995e-07
5.50676e-07
5.33466e-07
4.22684e-07
4.78488e-07
2.78364e-07
5.04064e-07
2.93957e-07
7.06593e-07
4.67544
6.36787
6.55559
4.84904
1.88362
1.94877
4.71759
6.30842
6.30055
4.78669
2.45823
0.638523
0.0476517
0.000263158
8.59644e-05
0
0
0
1.12551e-07
2.25807e-06
8.12012e-06
1.18269e-05
1.25781e-05
1.20913e-05
1.14501e-05
1.09495e-05
1.0562e-05
1.02212e-05
9.89357e-06
9.56944e-06
9.24526e-06
8.9198e-06
8.59289e-06
8.26299e-06
7.92981e-06
7.59396e-06
7.25606e-06
6.91776e-06
6.57988e-06
6.24402e-06
5.91149e-06
5.58386e-06
5.26254e-06
4.94821e-06
4.64256e-06
4.34637e-06
4.06034e-06
3.78542e-06
3.522e-06
3.27062e-06
3.03169e-06
2.80518e-06
2.59139e-06
2.39014e-06
2.20133e-06
2.02478e-06
1.86011e-06
1.70699e-06
1.56494e-06
1.43347e-06
1.3121e-06
1.20012e-06
1.09685e-06
1.00121e-06
9.129e-07
8.3052e-07
7.5645e-07
6.9962e-07
6.41541e-07
6.01497e-07
5.30995e-07
5.17488e-07
4.08671e-07
4.66067e-07
2.72251e-07
4.92385e-07
2.9148e-07
2.83734
4.41912
5.35371
5.14486
3.67469
1.36158
1.58061
3.8183
5.14886
5.16964
3.90296
1.96566
0.503039
0.0359675
0.00259709
0
0
0
1.38762e-09
2.82989e-08
4.38374e-06
9.17061e-06
1.04203e-05
1.01815e-05
9.68582e-06
9.23766e-06
8.88347e-06
8.58341e-06
8.29974e-06
8.02033e-06
7.74404e-06
7.47143e-06
7.20234e-06
6.93562e-06
6.67021e-06
6.40543e-06
6.14109e-06
5.87743e-06
5.61432e-06
5.3523e-06
5.09197e-06
4.83405e-06
4.57935e-06
4.32843e-06
4.08244e-06
3.84197e-06
3.60779e-06
3.38079e-06
3.16138e-06
2.95021e-06
2.74784e-06
2.55449e-06
2.37053e-06
2.19606e-06
2.03123e-06
1.87601e-06
1.73028e-06
1.5939e-06
1.46661e-06
1.34812e-06
1.23811e-06
1.13609e-06
1.04157e-06
9.53634e-07
8.72014e-07
7.95612e-07
7.26213e-07
6.73423e-07
6.17965e-07
5.81688e-07
5.12758e-07
5.02599e-07
3.95319e-07
4.54785e-07
2.65557e-07
4.82984e-07
1.41423
2.73787
3.9031
4.48572
4.19521
2.98005
1.12177
1.22048
3.08436
4.24823
4.3293
3.30214
1.69228
0.452772
0.0385568
0.00241132
2.07448e-08
0
0
2.23893e-09
3.77945e-08
4.48356e-06
7.91026e-06
7.92297e-06
7.4066e-06
7.11118e-06
6.90787e-06
6.73067e-06
6.56611e-06
6.4011e-06
6.23017e-06
6.05449e-06
5.87559e-06
5.69389e-06
5.50915e-06
5.32137e-06
5.13107e-06
4.93875e-06
4.74451e-06
4.5489e-06
4.35255e-06
4.15586e-06
3.95957e-06
3.7642e-06
3.57059e-06
3.37931e-06
3.1911e-06
3.00678e-06
2.82679e-06
2.65185e-06
2.4826e-06
2.31939e-06
2.16273e-06
2.01286e-06
1.87013e-06
1.73466e-06
1.60654e-06
1.48578e-06
1.37232e-06
1.26602e-06
1.16673e-06
1.07412e-06
9.8788e-07
9.07285e-07
8.32061e-07
7.61409e-07
6.96486e-07
6.47475e-07
5.94501e-07
5.61786e-07
4.9448e-07
4.87591e-07
3.818e-07
4.43565e-07
0.466599
1.35519
2.44747
3.36665
3.80172
3.5467
2.56281
1.03827
0.876854
2.47279
3.52966
3.6846
2.87942
1.53525
0.449327
0.0490398
2.3772e-05
5.49959e-06
0
0
6.77486e-10
8.70739e-09
3.80356e-06
6.55787e-06
6.20898e-06
5.59553e-06
5.37696e-06
5.27105e-06
5.16217e-06
5.05446e-06
4.9497e-06
4.84274e-06
4.73226e-06
4.61852e-06
4.50071e-06
4.37809e-06
4.2507e-06
4.11885e-06
3.98269e-06
3.84275e-06
3.69959e-06
3.55365e-06
3.40571e-06
3.25634e-06
3.10624e-06
2.95611e-06
2.80664e-06
2.65858e-06
2.51247e-06
2.36901e-06
2.22886e-06
2.09246e-06
1.96037e-06
1.83294e-06
1.7106e-06
1.59358e-06
1.48209e-06
1.37627e-06
1.27617e-06
1.18178e-06
1.09306e-06
1.00984e-06
9.31908e-07
8.58747e-07
7.9005e-07
7.25311e-07
6.65043e-07
6.19967e-07
5.69652e-07
5.40619e-07
4.75184e-07
4.71702e-07
0.0614186
0.420849
1.17537
2.09467
2.87351
3.25983
3.08521
2.30551
1.04671
0.560926
1.94879
2.93265
3.16527
2.56002
1.43752
0.469631
0.0615356
0.000333366
4.76827e-05
0
0
7.02949e-12
1.78959e-07
2.79691e-06
5.46661e-06
5.12746e-06
4.48497e-06
4.2924e-06
4.23445e-06
4.15361e-06
4.06256e-06
3.97741e-06
3.895e-06
3.81181e-06
3.72677e-06
3.63905e-06
3.54801e-06
3.45343e-06
3.35501e-06
3.25282e-06
3.14704e-06
3.0379e-06
2.92593e-06
2.8115e-06
2.69515e-06
2.57751e-06
2.45912e-06
2.34065e-06
2.22259e-06
2.1056e-06
1.99028e-06
1.87707e-06
1.76657e-06
1.6591e-06
1.55514e-06
1.45497e-06
1.35887e-06
1.26703e-06
1.17959e-06
1.09661e-06
1.01813e-06
9.44079e-07
8.74358e-07
8.08604e-07
7.46459e-07
6.87716e-07
6.32233e-07
5.91238e-07
5.43738e-07
0.000516787
0.0445998
0.326149
0.946425
1.73359
2.42967
2.81388
2.73347
2.13453
1.09745
0.293119
1.4962
2.42663
2.73415
2.30501
1.37452
0.49682
0.0776403
0.00140395
0.00010643
0
0
0
1.01851e-07
1.51359e-06
4.29546e-06
4.28774e-06
3.6513e-06
3.44753e-06
3.42701e-06
3.38401e-06
3.31535e-06
3.24773e-06
3.18395e-06
3.11998e-06
3.05403e-06
2.98563e-06
2.91467e-06
2.84076e-06
2.76376e-06
2.68368e-06
2.60057e-06
2.5147e-06
2.42629e-06
2.33568e-06
2.24328e-06
2.14949e-06
2.05487e-06
1.95977e-06
1.86477e-06
1.77037e-06
1.67696e-06
1.58509e-06
1.49508e-06
1.40737e-06
1.32228e-06
1.24009e-06
1.16104e-06
1.08529e-06
1.01294e-06
9.441e-07
8.78764e-07
8.16901e-07
7.58305e-07
7.02541e-07
6.49698e-07
0.000125148
0.00020118
0.0242512
0.220156
0.709964
1.38624
2.02733
2.42905
2.44399
2.00592
1.15971
0.167058
1.10462
1.99147
2.36617
2.09178
1.32726
0.527433
0.0977091
0.00356511
0.000164484
0
0
0
3.4337e-08
4.53936e-07
3.14242e-06
3.66421e-06
3.08332e-06
2.80688e-06
2.77231e-06
2.75234e-06
2.70619e-06
2.65586e-06
2.60847e-06
2.56101e-06
2.51148e-06
2.45957e-06
2.40506e-06
2.3478e-06
2.2877e-06
2.22477e-06
2.15917e-06
2.09108e-06
2.02071e-06
1.94834e-06
1.87429e-06
1.79901e-06
1.72275e-06
1.64597e-06
1.56911e-06
1.49249e-06
1.4166e-06
1.34171e-06
1.26824e-06
1.19649e-06
1.12674e-06
1.05923e-06
9.94133e-07
9.31584e-07
8.71709e-07
8.14543e-07
0
8.74935e-05
0.000274896
0.0101265
0.128593
0.492772
1.06407
1.65903
2.08335
2.18828
1.89445
1.21701
0.294674
0.766224
1.61294
2.0444
1.9044
1.28499
0.55866
0.121187
0.0071131
0.000237007
0
0
0
2.57924e-09
1.84034e-08
1.83901e-06
2.91855e-06
2.60942e-06
2.3305e-06
2.27131e-06
2.25653e-06
2.22425e-06
2.18587e-06
2.14939e-06
2.1131e-06
2.07518e-06
2.03518e-06
1.99294e-06
1.94823e-06
1.90097e-06
1.85122e-06
1.79909e-06
1.74471e-06
1.68829e-06
1.63008e-06
1.57042e-06
1.50953e-06
1.44775e-06
1.38547e-06
1.32296e-06
1.26063e-06
1.19873e-06
1.1376e-06
1.07755e-06
1.01882e-06
0
0
4.54226e-06
2.68592e-05
0.00253882
0.0635466
0.31191
0.775934
1.32114
1.76348
1.94945
1.78517
1.25988
0.46508
0.474178
1.27983
1.75677
1.73238
1.24265
0.587884
0.147018
0.0125012
0.000383299
1.87724e-06
0
0
1.79869e-11
8.32274e-08
1.21794e-06
2.30039e-06
2.1939e-06
1.95068e-06
1.88071e-06
1.86762e-06
1.84428e-06
1.81411e-06
1.785e-06
1.75625e-06
1.72617e-06
1.6943e-06
1.6605e-06
1.62461e-06
1.5866e-06
1.54649e-06
1.50435e-06
1.4603e-06
1.41451e-06
1.36724e-06
1.31868e-06
1.26908e-06
6.74721e-08
9.93806e-13
0
2.98252e-09
0.000323504
0.000295745
0.0248957
0.176115
0.530448
1.0146
1.46352
1.71801
1.66918
1.282
0.614259
0.227248
0.98481
1.49545
1.5699
1.19718
0.613006
0.174655
0.0184683
0.000215733
2.84907e-05
0
0
0
5.24595e-08
7.47348e-07
1.81715e-06
1.85147e-06
1.64052e-06
1.56515e-06
1.55435e-06
1.53805e-06
1.51377e-06
1.48985e-06
)
;

boundaryField
{
    inlet
    {
        type            calculated;
        value           nonuniform List<scalar> 
11
(
5.59842e-06
5.30663e-06
5.43399e-06
5.55216e-06
5.6569e-06
5.74998e-06
5.83722e-06
5.92499e-06
6.0289e-06
5.79457e-06
6.10485e-06
)
;
    }
    outlet
    {
        type            calculated;
        value           nonuniform List<scalar> 0();
    }
    walls
    {
        type            calculated;
        value           uniform 0;
    }
    frontAndBack
    {
        type            empty;
    }
    procBoundary6to2
    {
        type            processor;
        value           nonuniform List<scalar> 
13
(
10.4477
6.28468
3.96335
2.38648
1.17926
0.395231
0.0566832
0.000573467
0.0002568
0
0
5.51089e-08
9.53171e-07
)
;
    }
    procBoundary6to3
    {
        type            processor;
        value           uniform 1.12063e-06;
    }
    procBoundary6to5
    {
        type            processor;
        value           nonuniform List<scalar> 
86
(
29.3483
11.0128
14.1235
12.6089
4.9698
0.192699
0.0201778
0.00304691
0
0
3.17412e-06
5.09905e-05
7.90361e-05
6.74715e-05
6.01716e-05
5.95412e-05
5.97953e-05
5.85966e-05
5.64373e-05
5.41371e-05
5.19975e-05
4.9981e-05
4.79825e-05
4.59439e-05
4.38602e-05
4.17458e-05
3.96162e-05
3.7487e-05
3.53694e-05
3.3272e-05
3.12058e-05
2.91812e-05
2.72072e-05
2.72072e-05
2.66084e-05
2.46355e-05
2.27438e-05
2.09393e-05
1.92267e-05
1.76093e-05
1.6089e-05
1.46667e-05
1.33419e-05
1.2113e-05
1.09777e-05
9.93263e-06
9.93263e-06
9.21189e-06
8.30258e-06
7.47517e-06
6.72424e-06
6.04434e-06
5.43002e-06
4.87605e-06
4.37732e-06
3.92895e-06
3.92895e-06
3.57506e-06
3.20763e-06
2.87866e-06
2.58436e-06
2.32124e-06
2.08585e-06
1.87476e-06
1.87476e-06
1.70025e-06
1.5272e-06
1.3718e-06
1.23316e-06
1.10932e-06
1.00264e-06
9.17421e-07
9.17421e-07
8.52325e-07
7.87924e-07
7.20891e-07
6.65963e-07
5.90502e-07
5.6589e-07
4.57803e-07
5.28152e-07
3.97139e-07
3.97139e-07
6.43546e-07
7.44241e-07
9.61046e-07
)
;
    }
    procBoundary6to7
    {
        type            processor;
        value           nonuniform List<scalar> 
91
(
9.40162e-07
9.40162e-07
7.14485e-07
7.14485e-07
6.92851e-07
6.92851e-07
2.8916e-07
2.58291e-07
2.8916e-07
4.74239e-07
3.67588e-07
2.58291e-07
4.31859e-07
5.1847e-07
4.55108e-07
3.67588e-07
4.5512e-07
5.98979e-07
5.6206e-07
5.1847e-07
5.17418e-07
7.60108e-07
7.08341e-07
6.58716e-07
5.98979e-07
6.11612e-07
9.61644e-07
9.06205e-07
8.52619e-07
8.01023e-07
7.60108e-07
7.51488e-07
1.21876e-06
1.16797e-06
1.117e-06
1.0661e-06
1.01558e-06
9.65667e-07
9.61644e-07
9.16606e-07
1.46662e-06
1.44239e-06
1.41657e-06
1.38905e-06
1.35975e-06
1.32864e-06
1.29576e-06
1.26118e-06
1.22503e-06
1.18749e-06
1.14872e-06
1.21876e-06
1.1089e-06
1.27514e-08
7.66022e-10
0
0
2.62495e-05
4.92368e-05
0.00640329
0.0845801
0.332171
0.741246
1.18023
1.48819
1.54063
1.27966
0.733342
0.076634
0.723148
1.25519
1.41302
1.14606
0.6329
0.202704
0.0276125
0.00024213
2.81535e-05
0
0
0
3.03395e-08
4.17262e-07
1.42872e-06
1.57516e-06
1.38365e-06
1.30014e-06
1.29251e-06
1.28466e-06
1.46662e-06
1.26649e-06
)
;
    }
}


// ************************************************************************* //
