/*--------------------------------*- C++ -*----------------------------------*\
| =========                 |                                                 |
| \\      /  F ield         | OpenFOAM: The Open Source CFD Toolbox           |
|  \\    /   O peration     | Version:  2306                                  |
|   \\  /    A nd           | Website:  www.openfoam.com                      |
|    \\/     M anipulation  |                                                 |
\*---------------------------------------------------------------------------*/
FoamFile
{
    version     2.0;
    format      ascii;
    arch        "LSB;label=32;scalar=64";
    class       volScalarField;
    location    "275";
    object      turbulenceProperties:nuEff;
}
// * * * * * * * * * * * * * * * * * * * * * * * * * * * * * * * * * * * * * //

dimensions      [0 2 -1 0 0 0 0];

internalField   nonuniform List<scalar> 
1340
(
0.0869724
0.0785503
0.0691027
0.0539799
0.153779
0.148487
0.139852
0.1471
0.206144
0.207388
0.201448
0.211862
0.215035
0.23161
0.238869
0.255303
0.17456
0.216673
0.247566
0.277829
0.0927016
0.159727
0.223305
0.277635
0.021193
0.0776437
0.165342
0.251445
0.000802299
0.0167632
0.089499
0.199089
0.000184197
0.00455109
0.0298296
0.132063
1e-05
3.54175e-05
0.00289936
0.0723221
1e-05
1e-05
0.00137371
0.0329272
1.00098e-05
1e-05
0.000286788
0.012852
1.23677e-05
1e-05
8.06215e-05
0.0042657
2.03928e-05
1.00123e-05
1.12077e-05
0.00108791
1.92143e-05
1.25082e-05
1.00003e-05
6.95115e-05
1.63934e-05
1.97475e-05
1.00001e-05
1.04895e-05
1.52669e-05
2.19938e-05
1.00011e-05
1e-05
1.53252e-05
1.93357e-05
1.17481e-05
1.00006e-05
1.57584e-05
1.68708e-05
1.69327e-05
1.01052e-05
1.60827e-05
1.58656e-05
1.84634e-05
1.17729e-05
1.61944e-05
1.57389e-05
1.75353e-05
1.46635e-05
1.61832e-05
1.5899e-05
1.65964e-05
1.61632e-05
1.61444e-05
1.60477e-05
1.61664e-05
1.64098e-05
1.61186e-05
1.61144e-05
1.60625e-05
1.62792e-05
1.61091e-05
1.61268e-05
1.60753e-05
1.61622e-05
1.6108e-05
1.61209e-05
1.61011e-05
1.6117e-05
1.6109e-05
1.61147e-05
1.61132e-05
1.61108e-05
1.61096e-05
1.61118e-05
1.61151e-05
1.61142e-05
1.61096e-05
1.6111e-05
1.61136e-05
1.61165e-05
1.61094e-05
1.61109e-05
1.61122e-05
1.61165e-05
1.61092e-05
1.61108e-05
1.61115e-05
1.61158e-05
1.6109e-05
1.61106e-05
1.61112e-05
1.6115e-05
1.6109e-05
1.61105e-05
1.6111e-05
1.61144e-05
1.61082e-05
1.6109e-05
1.61103e-05
1.61108e-05
1.6114e-05
1.61083e-05
1.6109e-05
1.61103e-05
1.61107e-05
1.61137e-05
1.61084e-05
1.61091e-05
1.61103e-05
1.61106e-05
1.61134e-05
1.61085e-05
1.61091e-05
1.61103e-05
1.61106e-05
1.61132e-05
1.61087e-05
1.61093e-05
1.61103e-05
1.61106e-05
1.61131e-05
1.61089e-05
1.61094e-05
1.61104e-05
1.61107e-05
1.61129e-05
1.61091e-05
1.61096e-05
1.61105e-05
1.61108e-05
1.61129e-05
1.61093e-05
1.61097e-05
1.61106e-05
1.61109e-05
1.61129e-05
1.61095e-05
1.61099e-05
1.61108e-05
1.6111e-05
1.61129e-05
1.61097e-05
1.61101e-05
1.6111e-05
1.61112e-05
1.6113e-05
1.61099e-05
1.61103e-05
1.61111e-05
1.61114e-05
1.6113e-05
1.611e-05
1.61105e-05
1.61113e-05
1.61116e-05
1.61131e-05
1.61097e-05
1.61102e-05
1.61107e-05
1.61114e-05
1.61117e-05
1.61133e-05
1.61098e-05
1.61103e-05
1.61108e-05
1.61116e-05
1.61119e-05
1.61134e-05
1.61099e-05
1.61104e-05
1.61109e-05
1.61117e-05
1.6112e-05
1.61134e-05
1.611e-05
1.61105e-05
1.6111e-05
1.61117e-05
1.61121e-05
1.61135e-05
1.61099e-05
1.61105e-05
1.6111e-05
1.61118e-05
1.61122e-05
1.61136e-05
1.61098e-05
1.61104e-05
1.6111e-05
1.61117e-05
1.61122e-05
1.61135e-05
1.61097e-05
1.61103e-05
1.61109e-05
1.61116e-05
1.61122e-05
1.61135e-05
1.61094e-05
1.611e-05
1.61107e-05
1.61115e-05
1.6112e-05
1.61133e-05
1.61091e-05
1.61097e-05
1.61104e-05
1.61112e-05
1.61118e-05
1.61131e-05
1.6108e-05
1.61087e-05
1.61093e-05
1.611e-05
1.61108e-05
1.61115e-05
1.61128e-05
1.61075e-05
1.61081e-05
1.61088e-05
1.61095e-05
1.61103e-05
1.61111e-05
1.61123e-05
1.61068e-05
1.61074e-05
1.61081e-05
1.61089e-05
1.61097e-05
1.61105e-05
1.61118e-05
1.6106e-05
1.61066e-05
1.61074e-05
1.61081e-05
1.6109e-05
1.61099e-05
1.61111e-05
1.6105e-05
1.61057e-05
1.61065e-05
1.61073e-05
1.61082e-05
1.6109e-05
1.61103e-05
1.61039e-05
1.61047e-05
1.61054e-05
1.61063e-05
1.61072e-05
1.61081e-05
1.61094e-05
1.61026e-05
1.61034e-05
1.61042e-05
1.6105e-05
1.6106e-05
1.6107e-05
1.61083e-05
1.61001e-05
1.61009e-05
1.61017e-05
1.61026e-05
1.61035e-05
1.61046e-05
1.61056e-05
1.6107e-05
1.60979e-05
1.60987e-05
1.60996e-05
1.61005e-05
1.61015e-05
1.61026e-05
1.61038e-05
1.61052e-05
1.60953e-05
1.60962e-05
1.6097e-05
1.6098e-05
1.6099e-05
1.61002e-05
1.61015e-05
1.6103e-05
1.60927e-05
1.60935e-05
1.60943e-05
1.60953e-05
1.60963e-05
1.60974e-05
1.60987e-05
1.61003e-05
1.609e-05
1.60908e-05
1.60916e-05
1.60924e-05
1.60934e-05
1.60945e-05
1.60957e-05
1.60972e-05
1.60874e-05
1.60881e-05
1.60889e-05
1.60897e-05
1.60906e-05
1.60917e-05
1.60928e-05
1.60942e-05
1.60849e-05
1.60856e-05
1.60864e-05
1.60873e-05
1.60882e-05
1.60892e-05
1.60904e-05
1.60917e-05
1.60817e-05
1.60823e-05
1.60831e-05
1.60839e-05
1.60847e-05
1.60857e-05
1.60867e-05
1.60879e-05
1.60892e-05
1.6079e-05
1.60796e-05
1.60802e-05
1.6081e-05
1.60818e-05
1.60827e-05
1.60837e-05
1.60848e-05
1.60862e-05
1.60762e-05
1.60768e-05
1.60773e-05
1.6078e-05
1.60787e-05
1.60794e-05
1.60803e-05
1.60814e-05
1.60826e-05
1.60735e-05
1.6074e-05
1.60744e-05
1.6075e-05
1.60756e-05
1.60762e-05
1.6077e-05
1.60779e-05
1.6079e-05
1.60712e-05
1.60714e-05
1.60717e-05
1.6072e-05
1.60724e-05
1.60728e-05
1.60734e-05
1.60741e-05
1.6075e-05
1.60714e-05
1.60713e-05
1.60712e-05
1.60711e-05
1.60711e-05
1.60711e-05
1.60713e-05
1.60715e-05
1.6072e-05
1.60742e-05
1.60741e-05
1.60739e-05
1.60737e-05
1.60735e-05
1.60733e-05
1.6073e-05
1.60729e-05
1.60727e-05
1.60776e-05
1.60774e-05
1.60772e-05
1.60769e-05
1.60766e-05
1.60763e-05
1.60759e-05
1.60755e-05
1.6075e-05
1.60817e-05
1.60818e-05
1.60819e-05
1.6082e-05
1.6082e-05
1.6082e-05
1.6082e-05
1.6082e-05
1.60819e-05
1.60849e-05
1.6085e-05
1.60849e-05
1.60848e-05
1.60846e-05
1.60843e-05
1.60841e-05
1.60839e-05
1.60837e-05
1.60836e-05
1.60905e-05
1.60914e-05
1.60924e-05
1.60935e-05
1.60946e-05
1.60957e-05
1.60968e-05
1.6098e-05
1.60994e-05
1.61007e-05
1.61001e-05
1.61003e-05
1.61004e-05
1.61004e-05
1.61004e-05
1.61004e-05
1.61005e-05
1.61008e-05
1.61012e-05
1.61016e-05
0.17269
0.21496
0.255122
0.299468
0.325612
0.328411
0.306165
0.257506
0.185169
0.104147
0.0431509
0.0151615
0.00470363
0.00108563
3.41208e-05
1.01024e-05
1e-05
1e-05
1.00129e-05
1.12057e-05
1.42524e-05
1.61124e-05
1.64776e-05
1.63344e-05
1.61865e-05
1.61246e-05
1.61134e-05
1.61169e-05
1.61199e-05
1.61201e-05
1.61192e-05
1.61181e-05
1.61172e-05
1.61166e-05
1.6116e-05
1.61156e-05
1.61152e-05
1.61148e-05
1.61145e-05
1.61143e-05
1.61142e-05
1.6114e-05
1.6114e-05
1.61139e-05
1.61139e-05
1.61139e-05
1.61139e-05
1.61139e-05
1.61139e-05
1.61139e-05
1.61138e-05
1.61138e-05
1.61137e-05
1.61135e-05
1.61132e-05
1.61128e-05
1.61123e-05
1.61117e-05
1.61109e-05
1.611e-05
1.61089e-05
1.61076e-05
1.6106e-05
1.61038e-05
1.61011e-05
1.6098e-05
1.60949e-05
1.60924e-05
1.60899e-05
1.60868e-05
1.60832e-05
1.60795e-05
1.60754e-05
1.60721e-05
1.60726e-05
1.60748e-05
1.60818e-05
1.60835e-05
1.61016e-05
1.61018e-05
0.213606
0.258119
0.287886
0.316253
0.344853
0.356618
0.34405
0.304371
0.237799
0.151423
0.067775
0.0203708
0.00551998
0.00136074
7.92408e-05
1.06301e-05
1e-05
1e-05
1.00036e-05
1.09071e-05
1.39778e-05
1.60477e-05
1.65039e-05
1.63659e-05
1.62021e-05
1.61292e-05
1.61143e-05
1.61175e-05
1.61208e-05
1.61212e-05
1.61201e-05
1.61188e-05
1.61178e-05
1.61171e-05
1.61165e-05
1.61161e-05
1.61157e-05
1.61153e-05
1.6115e-05
1.61148e-05
1.61146e-05
1.61145e-05
1.61144e-05
1.61143e-05
1.61143e-05
1.61143e-05
1.61143e-05
1.61143e-05
1.61142e-05
1.61142e-05
1.61142e-05
1.61142e-05
1.61141e-05
1.6114e-05
1.61137e-05
1.61133e-05
1.61128e-05
1.61122e-05
1.61114e-05
1.61105e-05
1.61095e-05
1.61082e-05
1.61065e-05
1.61043e-05
1.61016e-05
1.60985e-05
1.60954e-05
1.60928e-05
1.60903e-05
1.60872e-05
1.60836e-05
1.60799e-05
1.60757e-05
1.60722e-05
1.60725e-05
1.60747e-05
1.60817e-05
1.60835e-05
1.61022e-05
0.217356
0.268461
0.30289
0.325749
0.346865
0.365202
0.367144
0.344663
0.294316
0.217122
0.123042
0.0428238
0.00694754
0.000791775
0.000182102
1e-05
1e-05
1e-05
1.00001e-05
1.0472e-05
1.33861e-05
1.59066e-05
1.65457e-05
1.64123e-05
1.62248e-05
1.61359e-05
1.61145e-05
1.61166e-05
1.61206e-05
1.61216e-05
1.61206e-05
1.61194e-05
1.61183e-05
1.61176e-05
1.61171e-05
1.61166e-05
1.61162e-05
1.61158e-05
1.61155e-05
1.61153e-05
1.61151e-05
1.61149e-05
1.61149e-05
1.61148e-05
1.61148e-05
1.61148e-05
1.61148e-05
1.61148e-05
1.61147e-05
1.61147e-05
1.61147e-05
1.61147e-05
1.61146e-05
1.61145e-05
1.61142e-05
1.61139e-05
1.61134e-05
1.61127e-05
1.6112e-05
1.61111e-05
1.611e-05
1.61087e-05
1.61071e-05
1.61049e-05
1.61022e-05
1.60991e-05
1.60959e-05
1.60933e-05
1.60908e-05
1.60877e-05
1.6084e-05
1.60802e-05
1.6076e-05
1.60724e-05
1.60725e-05
1.60747e-05
1.60816e-05
1.60834e-05
0.202146
0.257764
0.299414
0.327052
0.345234
0.361409
0.373384
0.369729
0.342392
0.287297
0.205213
0.108642
0.0315768
0.000553896
0.000116647
1e-05
1e-05
1e-05
1.00004e-05
1.01823e-05
1.24489e-05
1.54284e-05
1.65475e-05
1.65089e-05
1.62735e-05
1.61466e-05
1.6114e-05
1.61151e-05
1.61201e-05
1.61219e-05
1.61213e-05
1.61201e-05
1.6119e-05
1.61183e-05
1.61177e-05
1.61172e-05
1.61168e-05
1.61164e-05
1.61161e-05
1.61159e-05
1.61157e-05
1.61155e-05
1.61154e-05
1.61154e-05
1.61153e-05
1.61153e-05
1.61153e-05
1.61153e-05
1.61153e-05
1.61153e-05
1.61153e-05
1.61153e-05
1.61152e-05
1.61151e-05
1.61148e-05
1.61145e-05
1.6114e-05
1.61133e-05
1.61126e-05
1.61117e-05
1.61106e-05
1.61093e-05
1.61077e-05
1.61055e-05
1.61028e-05
1.60996e-05
1.60965e-05
1.60938e-05
1.60913e-05
1.60881e-05
1.60844e-05
1.60805e-05
1.60763e-05
1.60725e-05
1.60724e-05
1.60747e-05
1.60815e-05
0.17216
0.231905
0.280619
0.316456
0.340088
0.35539
0.368329
0.376652
0.370257
0.341106
0.284484
0.200814
0.104079
0.0270841
0.0069613
1e-05
1e-05
1e-05
1e-05
1e-05
1.10981e-05
1.48092e-05
1.64634e-05
1.65648e-05
1.63526e-05
1.61826e-05
1.61169e-05
1.61116e-05
1.61188e-05
1.61221e-05
1.6122e-05
1.61209e-05
1.61198e-05
1.6119e-05
1.61184e-05
1.61179e-05
1.61175e-05
1.61171e-05
1.61168e-05
1.61165e-05
1.61163e-05
1.61162e-05
1.61161e-05
1.6116e-05
1.61159e-05
1.61159e-05
1.61159e-05
1.61159e-05
1.61159e-05
1.61159e-05
1.61159e-05
1.61159e-05
1.61158e-05
1.61157e-05
1.61154e-05
1.61151e-05
1.61146e-05
1.6114e-05
1.61132e-05
1.61123e-05
1.61113e-05
1.611e-05
1.61084e-05
1.61062e-05
1.61035e-05
1.61002e-05
1.6097e-05
1.60943e-05
1.60918e-05
1.60886e-05
1.60849e-05
1.60809e-05
1.60767e-05
1.60727e-05
1.60724e-05
1.60746e-05
0.129652
0.192866
0.248257
0.292864
0.32557
0.347124
0.36082
0.371626
0.377921
0.370467
0.341176
0.284755
0.201431
0.104143
0.0285701
0.0074222
1e-05
1e-05
1e-05
1e-05
1.00002e-05
1.21949e-05
1.67031e-05
1.69734e-05
1.64094e-05
1.62006e-05
1.61342e-05
1.6112e-05
1.61153e-05
1.6122e-05
1.61232e-05
1.61219e-05
1.61206e-05
1.61198e-05
1.61192e-05
1.61187e-05
1.61182e-05
1.61179e-05
1.61175e-05
1.61172e-05
1.6117e-05
1.61168e-05
1.61167e-05
1.61166e-05
1.61166e-05
1.61166e-05
1.61166e-05
1.61166e-05
1.61166e-05
1.61165e-05
1.61165e-05
1.61165e-05
1.61165e-05
1.61163e-05
1.61161e-05
1.61158e-05
1.61153e-05
1.61147e-05
1.61139e-05
1.6113e-05
1.61119e-05
1.61107e-05
1.6109e-05
1.61069e-05
1.61041e-05
1.61009e-05
1.60976e-05
1.60949e-05
1.60923e-05
1.60891e-05
1.60854e-05
1.60813e-05
1.6077e-05
1.60729e-05
0.0783745
0.141774
0.202819
0.255785
0.298429
0.329842
0.350644
0.363609
0.372975
0.37822
0.370754
0.342384
0.287357
0.205138
0.10881
0.033499
6.07623e-05
1.66827e-05
1e-05
1e-05
1e-05
1e-05
1.26291e-05
1.77289e-05
1.72809e-05
1.62722e-05
1.6084e-05
1.61105e-05
1.61167e-05
1.61176e-05
1.61221e-05
1.61234e-05
1.6122e-05
1.61207e-05
1.612e-05
1.61195e-05
1.6119e-05
1.61186e-05
1.61183e-05
1.6118e-05
1.61177e-05
1.61175e-05
1.61174e-05
1.61173e-05
1.61173e-05
1.61172e-05
1.61172e-05
1.61172e-05
1.61172e-05
1.61172e-05
1.61172e-05
1.61172e-05
1.61171e-05
1.6117e-05
1.61168e-05
1.61165e-05
1.6116e-05
1.61154e-05
1.61146e-05
1.61137e-05
1.61126e-05
1.61114e-05
1.61098e-05
1.61076e-05
1.61049e-05
1.61016e-05
1.60982e-05
1.60955e-05
1.60929e-05
1.60897e-05
1.60859e-05
1.60817e-05
0.0296611
0.0821318
0.144753
0.204762
0.25697
0.299264
0.330727
0.35177
0.364668
0.373087
0.377917
0.371136
0.344424
0.29154
0.21126
0.117261
0.038689
0.000893802
0.000290149
1e-05
1e-05
1e-05
1.00086e-05
1.21607e-05
1.81846e-05
1.76019e-05
1.62072e-05
1.59932e-05
1.61053e-05
1.61361e-05
1.61245e-05
1.61211e-05
1.61223e-05
1.6122e-05
1.6121e-05
1.61203e-05
1.61199e-05
1.61195e-05
1.61191e-05
1.61188e-05
1.61185e-05
1.61183e-05
1.61181e-05
1.6118e-05
1.6118e-05
1.6118e-05
1.61179e-05
1.61179e-05
1.61179e-05
1.61179e-05
1.61179e-05
1.61179e-05
1.61179e-05
1.61177e-05
1.61175e-05
1.61172e-05
1.61167e-05
1.61161e-05
1.61153e-05
1.61144e-05
1.61134e-05
1.61121e-05
1.61105e-05
1.61084e-05
1.61056e-05
1.61023e-05
1.60989e-05
1.60961e-05
1.60935e-05
0.00313668
0.0278622
0.0785004
0.140262
0.200356
0.253148
0.296343
0.328907
0.350988
0.364372
0.372225
0.377058
0.371438
0.346924
0.296764
0.219598
0.126896
0.0453934
0.00323954
0.000929116
1e-05
1e-05
1e-05
1.00041e-05
1.09666e-05
1.77423e-05
1.80813e-05
1.6254e-05
1.5871e-05
1.60537e-05
1.61445e-05
1.61351e-05
1.61226e-05
1.61216e-05
1.6122e-05
1.61214e-05
1.61208e-05
1.61203e-05
1.61199e-05
1.61196e-05
1.61193e-05
1.61191e-05
1.61189e-05
1.61188e-05
1.61187e-05
1.61187e-05
1.61187e-05
1.61187e-05
1.61187e-05
1.61187e-05
1.61186e-05
1.61186e-05
1.61186e-05
1.61185e-05
1.61183e-05
1.6118e-05
1.61175e-05
1.61169e-05
1.61161e-05
1.61152e-05
1.61141e-05
1.61129e-05
1.61113e-05
1.61092e-05
1.61064e-05
1.61031e-05
0.000406817
0.00158465
0.0222696
0.0690146
0.129576
0.190506
0.244948
0.29008
0.324635
0.348469
0.362917
0.370856
0.375804
0.371545
0.349565
0.302697
0.228963
0.137517
0.0536799
0.00701195
0.00192342
1e-05
1e-05
1e-05
1.00007e-05
1.01303e-05
1.63487e-05
1.89284e-05
1.6749e-05
1.58999e-05
1.59963e-05
1.613e-05
1.614e-05
1.61249e-05
1.61214e-05
1.6122e-05
1.61219e-05
1.61213e-05
1.61208e-05
1.61205e-05
1.61202e-05
1.61199e-05
1.61197e-05
1.61196e-05
1.61195e-05
1.61195e-05
1.61195e-05
1.61195e-05
1.61195e-05
1.61194e-05
1.61194e-05
1.61194e-05
1.61194e-05
1.61193e-05
1.61191e-05
1.61188e-05
1.61183e-05
1.61177e-05
1.6117e-05
1.6116e-05
1.6115e-05
1.61137e-05
1e-05
0.000324142
0.00130134
0.016236
0.0559626
0.114051
0.175846
0.232654
0.280587
0.317952
0.344289
0.360573
0.369623
0.374622
0.371638
0.352278
0.308976
0.238712
0.148929
0.0632548
0.011982
0.00322743
1e-05
1e-05
1e-05
1e-05
1.00003e-05
1.3284e-05
1.84486e-05
1.71612e-05
1.60356e-05
1.59785e-05
1.61134e-05
1.61409e-05
1.61272e-05
1.61221e-05
1.61225e-05
1.61224e-05
1.61218e-05
1.61214e-05
1.61211e-05
1.61208e-05
1.61206e-05
1.61204e-05
1.61203e-05
1.61203e-05
1.61203e-05
1.61203e-05
1.61203e-05
1.61203e-05
1.61202e-05
1.61202e-05
1.61202e-05
1.61201e-05
1.61199e-05
1.61196e-05
1.61192e-05
1e-05
1e-05
1.50487e-05
9.42433e-05
0.00997541
0.0417444
0.0951986
0.157073
0.216469
0.267857
0.308795
0.33843
0.357377
0.368015
0.373249
0.371571
0.354911
0.31526
0.248619
0.160836
0.0737327
0.0183062
0.0048254
2.76997e-05
1e-05
1e-05
1e-05
1.00087e-05
1.21038e-05
1.77116e-05
1.73769e-05
1.61573e-05
1.5973e-05
1.60987e-05
1.61399e-05
1.6128e-05
1.61218e-05
1.61227e-05
1.61232e-05
1.61226e-05
1.61221e-05
1.61217e-05
1.61215e-05
1.61213e-05
1.61212e-05
1.61211e-05
1.61211e-05
1.61211e-05
1.61211e-05
1.61211e-05
1.00162e-05
1e-05
1e-05
1e-05
0.00115364
0.00446654
0.0279323
0.0747458
0.13513
0.19677
0.251984
0.297133
0.330756
0.353004
0.365702
0.371441
0.371147
0.357246
0.321332
0.25847
0.17293
0.0850791
0.023939
0.00207953
0.000527125
1e-05
1e-05
1e-05
1.00047e-05
1.11422e-05
1.70236e-05
1.76035e-05
1.62851e-05
1.59687e-05
1.60899e-05
1.61472e-05
1.61336e-05
1.61225e-05
)
;

boundaryField
{
    inlet
    {
        type            calculated;
        value           nonuniform List<scalar> 
11
(
1.61001e-05
1.61003e-05
1.61004e-05
1.61004e-05
1.61004e-05
1.61004e-05
1.61005e-05
1.61008e-05
1.61012e-05
1.61016e-05
1.61018e-05
)
;
    }
    outlet
    {
        type            calculated;
        value           nonuniform List<scalar> 0();
    }
    walls
    {
        type            calculated;
        value           nonuniform List<scalar> 4(0.00177587 0.00157676 0.00135302 0.000601052);
    }
    frontAndBack
    {
        type            empty;
    }
    procBoundary6to2
    {
        type            processor;
        value           nonuniform List<scalar> 
13
(
0.12656
0.149754
0.151038
0.134907
0.104104
0.0645735
0.0255968
0.00291814
0.000792983
1e-05
1e-05
1.00114e-05
1.37471e-05
)
;
    }
    procBoundary6to3
    {
        type            processor;
        value           uniform 1.52266e-05;
    }
    procBoundary6to5
    {
        type            processor;
        value           nonuniform List<scalar> 
86
(
0.0928465
0.159282
0.203277
0.192912
0.123657
0.037729
0.00157184
0.000387445
1e-05
1e-05
1.00148e-05
1.36572e-05
1.86569e-05
1.66897e-05
1.56413e-05
1.58191e-05
1.61921e-05
1.63077e-05
1.62395e-05
1.61493e-05
1.6103e-05
1.60943e-05
1.61004e-05
1.61068e-05
1.61097e-05
1.611e-05
1.61094e-05
1.61088e-05
1.61085e-05
1.61083e-05
1.61082e-05
1.61082e-05
1.61082e-05
1.61082e-05
1.61075e-05
1.61077e-05
1.61078e-05
1.6108e-05
1.61082e-05
1.61084e-05
1.61086e-05
1.61088e-05
1.6109e-05
1.61092e-05
1.61094e-05
1.61096e-05
1.61096e-05
1.61093e-05
1.61094e-05
1.61095e-05
1.61095e-05
1.61094e-05
1.61093e-05
1.61091e-05
1.61089e-05
1.61085e-05
1.61085e-05
1.61075e-05
1.61069e-05
1.61061e-05
1.61053e-05
1.61044e-05
1.61033e-05
1.61019e-05
1.61019e-05
1.60993e-05
1.60971e-05
1.60946e-05
1.6092e-05
1.60893e-05
1.60867e-05
1.60842e-05
1.60842e-05
1.6081e-05
1.60784e-05
1.60758e-05
1.60732e-05
1.6071e-05
1.60715e-05
1.60744e-05
1.60777e-05
1.60816e-05
1.60816e-05
1.60846e-05
1.60898e-05
1.60998e-05
)
;
    }
    procBoundary6to7
    {
        type            processor;
        value           nonuniform List<scalar> 
91
(
1.6102e-05
1.6102e-05
1.61028e-05
1.61028e-05
1.60834e-05
1.60834e-05
1.60814e-05
1.60723e-05
1.60814e-05
1.60746e-05
1.60774e-05
1.60723e-05
1.60731e-05
1.60902e-05
1.60864e-05
1.60774e-05
1.60822e-05
1.60996e-05
1.60967e-05
1.60902e-05
1.60941e-05
1.61121e-05
1.611e-05
1.61073e-05
1.60996e-05
1.61039e-05
1.61186e-05
1.61178e-05
1.61169e-05
1.61158e-05
1.61121e-05
1.61146e-05
1.61211e-05
1.61211e-05
1.61211e-05
1.6121e-05
1.61208e-05
1.61205e-05
1.61186e-05
1.61201e-05
1.61222e-05
1.6123e-05
1.61229e-05
1.61227e-05
1.61225e-05
1.61223e-05
1.61221e-05
1.6122e-05
1.6122e-05
1.6122e-05
1.6122e-05
1.61211e-05
1.6122e-05
1.00016e-05
1e-05
1e-05
1e-05
9.62403e-05
0.000275527
0.0154126
0.0537321
0.110539
0.173539
0.232697
0.282597
0.320862
0.347033
0.362312
0.369029
0.370102
0.358937
0.326829
0.26789
0.185092
0.0969029
0.0322626
0.0017107
0.000482792
1e-05
1e-05
1e-05
1.00021e-05
1.05046e-05
1.63067e-05
1.79415e-05
1.64312e-05
1.59175e-05
1.60408e-05
1.61416e-05
1.61222e-05
1.61406e-05
)
;
    }
}


// ************************************************************************* //
