# p  FACE_DATA 150
# x y z  p
0.29576437 -0.05 -0.059999701 21654.164
0.28738431 -0.05 -0.059968924 21647.837
0.27918472 -0.05 -0.059906283 21646.064
0.27116186 -0.05 -0.05981265 21646.072
0.26331203 -0.05 -0.059689027 21649.267
0.25563166 -0.05 -0.059536266 21656.382
0.24811723 -0.05 -0.059355154 21667.51
0.24076528 -0.05 -0.059146557 21682.421
0.23357246 -0.05 -0.058911358 21701.119
0.22653546 -0.05 -0.058650342 21724.008
0.21965107 -0.05 -0.058364201 21751.013
0.21291613 -0.05 -0.058053757 21781.528
0.20632755 -0.05 -0.057719714 21815.967
0.19988232 -0.05 -0.057362759 21853.218
0.19357748 -0.05 -0.056983702 21893.932
0.18741014 -0.05 -0.056583118 21938.585
0.18137746 -0.05 -0.056161624 21987.304
0.17547671 -0.05 -0.055719844 22040.559
0.16970518 -0.05 -0.055258362 22097.564
0.16406021 -0.05 -0.05477783 22158.056
0.15853921 -0.05 -0.054278745 22222.425
0.15313968 -0.05 -0.053761636 22290.426
0.14785914 -0.05 -0.053226963 22362.992
0.14269518 -0.05 -0.052675258 22439.368
0.13764543 -0.05 -0.052106992 22519.969
0.13270762 -0.05 -0.051522466 22602.809
0.12787949 -0.05 -0.050922169 22688.44
0.12315883 -0.05 -0.050306449 22779.107
0.11854353 -0.05 -0.049675629 22873.27
0.11403148 -0.05 -0.04903008 22970.674
0.10962066 -0.05 -0.04837006 23072.175
0.10530909 -0.05 -0.047695796 23177.763
0.10109483 -0.05 -0.047007509 23287.163
0.096976017 -0.05 -0.046305459 23400.108
0.092950808 -0.05 -0.04558984 23517.562
0.08901745 -0.05 -0.044860715 23641.567
0.085174232 -0.05 -0.044118143 23772.346
0.081419479 -0.05 -0.043362242 23908.962
0.077751578 -0.05 -0.042593081 24052.11
0.074168981 -0.05 -0.041810614 24202.934
0.070670198 -0.05 -0.041014781 24360.62
0.06725379 -0.05 -0.040205491 24523.477
0.06391837 -0.05 -0.039382651 24691.247
0.060662655 -0.05 -0.038545988 24866.901
0.057485397 -0.05 -0.037695273 25050.245
0.054385414 -0.05 -0.036830261 25241.967
0.051361622 -0.05 -0.035950545 25441.87
0.048412992 -0.05 -0.035055749 25651.474
0.045538629 -0.05 -0.034145316 25872.043
0.042737712 -0.05 -0.03321865 26103.4
0.040009498 -0.05 -0.032275149 26345.397
0.037353406 -0.05 -0.031314032 26598.889
0.034768993 -0.05 -0.030334375 26866.289
0.032255944 -0.05 -0.029335211 27151.746
0.029814132 -0.05 -0.028315426 27457.377
0.027443661 -0.05 -0.027273729 27781.572
0.025144824 -0.05 -0.026208776 28126.418
0.022918276 -0.05 -0.02511886 28496.702
0.020764984 -0.05 -0.02400217 28889.248
0.018686283 -0.05 -0.022856725 29309.332
0.016684024 -0.05 -0.021680228 29757.235
0.01476059 -0.05 -0.020470219 30235.324
0.012919251 -0.05 -0.019223865 30746.34
0.011164249 -0.05 -0.017938283 31290.912
0.0095007128 -0.05 -0.016610449 31871.732
0.0079348886 -0.05 -0.015236971 32497.386
0.006474941 -0.05 -0.013814774 33146.864
0.0051312596 -0.05 -0.012341958 33782.382
0.0039150106 -0.05 -0.010816511 34367.391
0.0028396284 -0.05 -0.009238845 34902.59
0.0019206554 -0.05 -0.007613688 35320.342
0.0011720639 -0.05 -0.0059475212 35537.503
0.0006061561 -0.05 -0.004252283 35529.632
0.00023063831 -0.05 -0.0025452878 35265.088
4.5460517e-05 -0.05 -0.0008455405 34703.811
0.99536103 -0.05 -0.00067021835 26497.124
0.98608197 -0.05 -0.0020028877 26289.803
0.97680071 -0.05 -0.0033200849 26084.884
0.96751731 -0.05 -0.0046220425 25911.32
0.95823181 -0.05 -0.0059090613 25751.124
0.94894428 -0.05 -0.0071813587 25606.047
0.93965479 -0.05 -0.0084391859 25472.109
0.93036339 -0.05 -0.0096828487 25348.014
0.92107013 -0.05 -0.010912491 25232.21
0.91177504 -0.05 -0.012128333 25123.368
0.9024782 -0.05 -0.013330648 25020.892
0.89317963 -0.05 -0.014519511 24924.331
0.88387936 -0.05 -0.015695054 24832.759
0.87457746 -0.05 -0.016857552 24745.315
0.86527394 -0.05 -0.01800713 24661.745
0.85596885 -0.05 -0.019143876 24581.446
0.84666223 -0.05 -0.020267984 24504.085
0.8373541 -0.05 -0.021379502 24429.586
0.82804448 -0.05 -0.022478516 24357.526
0.8187334 -0.05 -0.023565119 24287.826
0.8094209 -0.05 -0.024639397 24220.088
0.80010698 -0.05 -0.025701394 24154.382
0.79079168 -0.05 -0.026751168 24090.207
0.78147501 -0.05 -0.027788748 24027.709
0.77215699 -0.05 -0.028814138 23966.513
0.76283764 -0.05 -0.029827333 23906.827
0.75351698 -0.05 -0.030828337 23848.129
0.744195 -0.05 -0.03181713 23790.579
0.73487174 -0.05 -0.032793639 23733.673
0.72554719 -0.05 -0.033757832 23677.624
0.71622136 -0.05 -0.034709535 23622.413
0.70689427 -0.05 -0.03564879 23567.566
0.69756593 -0.05 -0.03657554 23513.594
0.68823632 -0.05 -0.037489546 23460.444
0.67890547 -0.05 -0.03839067 23407.931
0.66957337 -0.05 -0.039278803 23355.584
0.66024004 -0.05 -0.040153805 23303.379
0.65090546 -0.05 -0.04101549 23251.362
0.64156964 -0.05 -0.041863622 23199.797
0.63223258 -0.05 -0.042697993 23148.527
0.62289428 -0.05 -0.043518409 23097.661
0.61355475 -0.05 -0.044324591 23047.11
0.60421397 -0.05 -0.045116235 22996.86
0.59487195 -0.05 -0.045893096 22946.664
0.58552869 -0.05 -0.046654869 22896.77
0.57618419 -0.05 -0.047401205 22846.974
0.56683843 -0.05 -0.048131797 22797.362
0.55749143 -0.05 -0.04884624 22748.023
0.54814318 -0.05 -0.049544112 22698.916
0.53879368 -0.05 -0.050225066 22649.706
0.52944294 -0.05 -0.050888717 22600.681
0.52009095 -0.05 -0.051534504 22552.197
0.51073771 -0.05 -0.052161963 22503.708
0.50138323 -0.05 -0.052770676 22455.468
0.49202751 -0.05 -0.05336005 22407.981
0.48267056 -0.05 -0.053929509 22360.979
0.47331239 -0.05 -0.054478508 22314.437
0.46395301 -0.05 -0.055006444 22268.327
0.45459243 -0.05 -0.05551264 22222.558
0.44523066 -0.05 -0.055996468 22176.697
0.43586772 -0.05 -0.056457197 22131.549
0.42650365 -0.05 -0.056894081 22087.059
0.41713847 -0.05 -0.057306403 22043.695
0.4077722 -0.05 -0.057693321 22002.025
0.39840488 -0.05 -0.058053993 21960.711
0.38903655 -0.05 -0.058387504 21920.989
0.37966728 -0.05 -0.058692933 21882.687
0.3702971 -0.05 -0.058969274 21846.422
0.36092607 -0.05 -0.059215505 21811.871
0.35155428 -0.05 -0.059430617 21779.172
0.34218182 -0.05 -0.059613395 21748.681
0.33280876 -0.05 -0.059762649 21720.304
0.32343521 -0.05 -0.059877122 21695.38
0.31406128 -0.05 -0.059955444 21674.914
0.30468712 -0.05 -0.059996221 21661.289
