/*--------------------------------*- C++ -*----------------------------------*\
| =========                 |                                                 |
| \\      /  F ield         | OpenFOAM: The Open Source CFD Toolbox           |
|  \\    /   O peration     | Version:  2306                                  |
|   \\  /    A nd           | Website:  www.openfoam.com                      |
|    \\/     M anipulation  |                                                 |
\*---------------------------------------------------------------------------*/
FoamFile
{
    version     2.0;
    format      ascii;
    arch        "LSB;label=32;scalar=64";
    class       volScalarField;
    location    "775";
    object      div(phi);
}
// * * * * * * * * * * * * * * * * * * * * * * * * * * * * * * * * * * * * * //

dimensions      [0 0 -1 0 0 0 0];

internalField   nonuniform List<scalar> 
10720
(
-6.56545e-06
4.90586e-06
-3.5737e-06
2.93302e-06
-2.2369e-06
-5.14996e-07
-3.12797e-06
-1.68389e-06
-7.38763e-07
7.1395e-07
9.03874e-07
1.14083e-06
6.9673e-07
6.72423e-07
3.72338e-07
4.97184e-07
2.96832e-07
5.76657e-07
1.86022e-07
5.98327e-07
-7.22582e-07
-4.93174e-07
-4.80279e-06
-6.23707e-06
-7.42952e-06
-5.69682e-06
-3.41007e-06
-2.11175e-06
-3.17172e-06
-3.4331e-06
6.2012e-06
-1.88314e-05
-2.23509e-06
3.56782e-07
9.09022e-06
-2.77325e-05
-7.69242e-05
2.18811e-05
-5.55479e-05
5.13941e-06
-5.63032e-06
-1.31006e-07
-1.20135e-06
-1.04822e-06
4.23181e-06
1.74217e-06
6.49154e-06
1.20836e-06
3.31376e-08
-5.29918e-10
-5.18389e-07
-3.50988e-07
-6.60678e-07
-3.86321e-07
-5.6677e-07
-3.21051e-07
-6.16072e-07
-2.7877e-07
-7.09943e-07
-8.5011e-08
-4.22711e-07
1.02301e-06
1.6417e-06
1.81608e-06
1.76283e-06
1.229e-06
1.16611e-06
-1.68289e-06
2.8308e-06
1.03572e-06
1.43648e-06
1.45359e-06
2.52666e-06
2.61231e-06
-2.78258e-08
1.41559e-05
9.78286e-06
1.06229e-05
-3.23936e-06
1.35883e-06
-2.29502e-06
2.19563e-06
-2.38959e-06
-1.18148e-06
-2.36308e-06
-1.67323e-06
-9.33986e-08
8.00872e-07
9.60876e-07
1.04042e-06
6.65884e-07
6.85307e-07
4.00731e-07
5.52078e-07
3.34532e-07
5.25861e-07
1.99219e-07
3.50035e-07
-4.32633e-07
-6.54774e-07
-2.61281e-06
-3.148e-06
-3.85495e-06
-3.44144e-06
-3.0595e-06
-2.44558e-06
-2.57777e-06
-2.39786e-06
2.5008e-06
-1.01299e-05
-2.81692e-06
-2.6662e-06
1.24524e-06
-1.02396e-05
-7.21395e-05
-5.46214e-05
-8.64513e-05
9.70141e-08
-2.71474e-06
9.94891e-07
-6.74947e-07
2.27979e-06
5.99442e-07
4.91153e-06
1.10515e-06
2.9989e-07
1.22045e-07
-1.53526e-07
-3.06206e-07
-4.64811e-07
-6.78877e-07
-5.88627e-07
-6.96964e-07
-5.12127e-07
-6.66334e-07
-4.54466e-07
-6.46263e-07
-2.62199e-07
-3.45052e-07
6.47819e-07
1.05989e-06
1.51347e-06
1.45352e-06
1.44217e-06
1.05125e-06
-1.18967e-06
2.16672e-06
8.74125e-07
1.37826e-06
1.32079e-06
2.53018e-06
2.2605e-06
-9.31086e-07
1.36042e-05
1.19962e-05
1.92672e-05
5.81817e-06
-3.80349e-06
3.74846e-06
-2.7789e-06
5.03116e-07
-2.54921e-06
-1.89352e-06
-6.79748e-07
3.15039e-07
6.95191e-07
1.18949e-06
8.64282e-07
9.08376e-07
5.85513e-07
6.26024e-07
4.81245e-07
5.41152e-07
5.35602e-07
4.92864e-07
4.79472e-07
6.35897e-08
-1.51005e-07
-1.43009e-06
-2.17794e-06
-2.76048e-06
-2.37633e-06
-2.31642e-06
-6.80556e-07
-1.41317e-06
-1.60573e-06
2.89756e-06
-1.01981e-05
-5.60832e-07
1.45158e-06
7.28078e-06
-1.83673e-05
-2.49714e-05
4.2009e-05
-8.08805e-06
-4.21423e-06
2.7435e-06
-4.6506e-07
2.38457e-06
8.54551e-07
1.604e-06
1.14179e-06
2.94884e-08
-8.81841e-08
2.85073e-09
-1.46849e-07
-1.45763e-07
-5.04332e-07
-4.4497e-07
-6.07064e-07
-4.2057e-07
-4.89942e-07
-4.164e-07
-4.22556e-07
-4.52953e-07
-2.69806e-07
-2.05573e-07
6.30014e-07
1.21239e-06
1.62014e-06
1.48153e-06
1.49047e-06
9.76131e-07
-1.14756e-06
2.30894e-06
9.25286e-07
1.41281e-06
1.27476e-06
2.28481e-06
2.16231e-06
6.0029e-07
1.09644e-05
6.59174e-06
5.13072e-06
-2.83839e-06
2.39361e-06
-1.16927e-06
7.75303e-07
-2.07812e-06
-1.58084e-06
-1.0838e-06
-3.82958e-07
3.99126e-07
9.00363e-07
1.02817e-06
8.56371e-07
8.55775e-07
5.8631e-07
7.26245e-07
4.87164e-07
6.92627e-07
4.56753e-07
5.97951e-07
2.7437e-07
1.47232e-07
-5.58813e-07
-1.41841e-06
-2.41686e-06
-2.72799e-06
-3.04424e-06
-2.5573e-06
-2.3298e-06
-2.19747e-06
-1.89809e-06
6.913e-07
-6.89239e-06
-2.8398e-06
-2.76597e-06
1.19498e-09
-6.62573e-06
-4.78536e-05
-3.60678e-05
-6.43411e-05
1.92803e-06
5.34083e-07
2.11006e-06
1.83847e-06
1.18778e-06
1.47162e-06
-2.00409e-07
-3.1393e-07
-1.13139e-07
-1.1893e-07
6.13955e-09
-1.96689e-07
-4.39168e-07
-5.82898e-07
-7.22482e-07
-5.99835e-07
-6.41575e-07
-5.01339e-07
-5.95474e-07
-4.34345e-07
-4.30255e-07
-1.6359e-07
2.26009e-07
7.75067e-07
1.0589e-06
1.37099e-06
1.40556e-06
1.17258e-06
-6.74236e-07
1.72019e-06
9.27836e-07
1.37107e-06
1.36137e-06
2.5705e-06
2.31056e-06
-2.71824e-08
1.36758e-05
1.27096e-05
2.06589e-05
-1.17968e-06
1.74738e-07
1.95875e-07
-1.25216e-06
-1.00461e-06
-1.50212e-06
-7.62584e-07
7.94706e-08
3.88502e-07
9.53666e-07
8.10424e-07
9.83642e-07
6.95712e-07
8.255e-07
6.04634e-07
7.12741e-07
5.77622e-07
6.78732e-07
5.67311e-07
5.56465e-07
2.64935e-07
-3.17758e-08
-8.37989e-07
-1.70251e-06
-2.2685e-06
-2.8635e-06
-2.34063e-06
-1.75491e-06
-1.08683e-06
-1.66885e-06
1.45722e-06
-7.60566e-06
-7.95364e-07
2.90761e-06
7.6391e-06
-1.91408e-05
-1.66279e-05
4.53544e-05
8.18174e-07
1.56624e-06
1.31595e-06
2.55011e-06
9.08237e-07
1.02283e-06
2.93816e-07
-2.62333e-07
-4.45644e-07
-3.30462e-07
-4.5257e-08
2.07905e-08
-2.04178e-07
-3.47914e-07
-6.7543e-07
-5.66494e-07
-6.68579e-07
-4.36905e-07
-5.37092e-07
-3.81557e-07
-4.77026e-07
-2.62929e-07
-2.51757e-07
3.63387e-07
6.94777e-07
1.31959e-06
1.35652e-06
1.58789e-06
1.02822e-06
-4.18652e-07
1.44105e-06
9.23509e-07
1.14943e-06
1.20464e-06
1.87779e-06
1.84231e-06
1.3654e-06
9.09115e-06
4.07637e-06
2.33294e-06
7.87508e-07
-5.80258e-08
-1.13182e-06
-1.4002e-07
-1.51714e-06
-6.97737e-07
-2.94456e-07
-4.25058e-08
6.04869e-07
7.44225e-07
8.12446e-07
7.81543e-07
6.85692e-07
7.91499e-07
6.15609e-07
7.64946e-07
5.54312e-07
7.26576e-07
4.43223e-07
5.382e-07
7.47648e-08
-9.76037e-08
-9.87437e-07
-1.42429e-06
-2.22263e-06
-2.38706e-06
-2.61741e-06
-2.48961e-06
-2.72702e-06
-2.14138e-06
-4.27672e-07
-6.04565e-06
-3.50557e-06
-3.13612e-06
-2.69856e-07
-7.90585e-06
-4.00814e-05
-2.47488e-05
-5.0165e-05
8.73967e-07
2.06311e-06
1.92592e-06
9.46558e-07
1.60626e-06
9.23547e-08
-5.15563e-07
-4.34112e-07
-2.58484e-07
2.67925e-08
3.30281e-08
-9.9428e-08
-4.26939e-07
-6.29796e-07
-7.34481e-07
-6.72417e-07
-5.63652e-07
-5.78158e-07
-4.98475e-07
-4.80478e-07
-3.62294e-07
-2.21246e-07
4.42255e-08
4.33704e-07
7.2045e-07
1.17644e-06
1.28202e-06
1.31216e-06
-2.87894e-07
1.39694e-06
1.0374e-06
1.28973e-06
1.2922e-06
2.28587e-06
2.08038e-06
9.45068e-07
1.184e-05
1.21892e-05
1.95455e-05
1.85969e-06
-1.31675e-06
-1.54181e-08
-1.09654e-06
-5.12012e-07
-5.31611e-07
-2.4258e-07
1.80203e-07
5.19198e-07
5.75439e-07
7.40168e-07
6.01553e-07
8.07863e-07
6.71592e-07
8.25029e-07
6.4689e-07
7.38384e-07
6.10794e-07
6.47316e-07
4.98769e-07
3.8672e-07
1.09105e-07
-3.44004e-07
-9.65372e-07
-1.57679e-06
-2.15283e-06
-2.59676e-06
-1.69374e-06
-1.79302e-06
-1.27909e-06
5.66411e-07
-5.90225e-06
-8.3753e-08
3.56468e-06
8.83554e-06
-2.16278e-05
-1.5058e-05
4.87566e-05
1.3449e-06
6.39117e-07
2.52248e-06
5.11013e-07
1.49869e-06
-3.53238e-07
1.39729e-07
-1.69225e-07
-4.66442e-07
-1.62145e-07
2.43394e-08
9.6077e-08
-7.98886e-08
-4.36741e-07
-6.00751e-07
-7.63642e-07
-5.86409e-07
-6.00017e-07
-4.46248e-07
-5.34696e-07
-3.37716e-07
-4.35962e-07
-1.08438e-07
-8.72963e-08
5.76804e-07
6.29449e-07
1.42064e-06
1.20056e-06
1.46227e-06
-4.11359e-07
1.30372e-06
6.99906e-07
1.07422e-06
9.09185e-07
1.58793e-06
1.29034e-06
1.50422e-06
5.6163e-06
2.04801e-06
-8.75779e-07
-1.1511e-06
-6.83534e-07
-6.69792e-07
-6.19315e-07
-4.38009e-07
-2.64745e-07
-1.3503e-07
1.84978e-07
3.60519e-07
6.10039e-07
4.82512e-07
5.2978e-07
6.61712e-07
6.55825e-07
7.8552e-07
6.14892e-07
7.47603e-07
5.12698e-07
6.34822e-07
3.08466e-07
3.35106e-07
-1.58992e-07
-3.52354e-07
-1.03189e-06
-1.29751e-06
-1.92784e-06
-2.07629e-06
-2.61293e-06
-2.81775e-06
-2.57436e-06
-1.04949e-06
-5.11955e-06
-3.882e-06
-3.18845e-06
-5.06024e-07
-9.77444e-06
-3.64619e-05
-1.62492e-05
-3.843e-05
1.65176e-06
3.7487e-07
1.72323e-06
-1.98958e-06
1.12534e-06
8.59382e-08
-2.22338e-07
-3.31123e-07
-7.73517e-08
1.20543e-07
1.54314e-07
-9.78958e-08
-3.65573e-07
-6.85122e-07
-6.86464e-07
-6.48166e-07
-5.4408e-07
-5.58262e-07
-4.84928e-07
-4.6814e-07
-3.25236e-07
-2.69601e-07
-5.27231e-08
1.65906e-07
4.56766e-07
8.57282e-07
1.09765e-06
1.19941e-06
7.59185e-09
1.20752e-06
1.26744e-06
1.34017e-06
1.28848e-06
2.01959e-06
1.86555e-06
1.65453e-06
9.81744e-06
1.10418e-05
1.6371e-05
-1.79631e-07
-3.53857e-07
-1.02113e-06
-3.68949e-07
-4.34797e-07
-2.7831e-07
-6.79822e-08
9.48703e-08
3.78778e-07
2.84166e-07
3.81181e-07
5.23202e-07
5.26242e-07
7.99501e-07
6.80622e-07
8.04723e-07
6.06062e-07
7.07317e-07
5.05456e-07
5.7725e-07
3.19948e-07
3.50896e-07
-1.22841e-07
-2.61674e-07
-9.70232e-07
-1.18333e-06
-2.17377e-06
-1.57152e-06
-1.98594e-06
-1.2168e-06
-1.96672e-07
-3.54569e-06
-6.92382e-08
4.75718e-06
8.38224e-06
-2.11514e-05
-1.22136e-05
5.09328e-05
1.58953e-06
-2.00276e-07
1.64552e-06
-1.42079e-06
2.62179e-06
-9.75051e-07
1.02283e-07
-2.60909e-08
-4.47845e-08
-7.08616e-08
1.74229e-07
1.58966e-07
-5.98409e-08
-3.83366e-07
-6.36876e-07
-6.59163e-07
-6.2069e-07
-5.08748e-07
-5.56255e-07
-4.31629e-07
-4.79968e-07
-2.80045e-07
-3.29395e-07
-2.27645e-08
6.43336e-08
5.37854e-07
7.49796e-07
1.22009e-06
1.04671e-06
-1.01075e-08
8.15298e-07
1.02698e-06
7.90439e-07
8.67506e-07
1.1258e-06
1.02267e-06
1.6448e-06
3.43049e-06
6.33501e-08
-2.9538e-06
-8.2434e-07
-1.55756e-06
-7.05489e-07
-8.72092e-07
-2.89806e-07
-9.72079e-08
-1.04035e-07
8.51641e-08
6.4175e-08
7.90193e-07
-1.02269e-08
3.0804e-07
4.94761e-07
6.65286e-07
6.51572e-07
7.27387e-07
5.82959e-07
6.14126e-07
4.39098e-07
4.01642e-07
1.97209e-07
3.21902e-08
-2.36376e-07
-5.71618e-07
-8.5328e-07
-1.34472e-06
-1.62013e-06
-2.40082e-06
-2.66438e-06
-2.98148e-06
-1.26339e-06
-4.6531e-06
-4.21398e-06
-3.14525e-06
-8.34013e-07
-1.00685e-05
-2.90604e-05
-1.01178e-05
-2.90406e-05
1.07683e-06
-2.32496e-08
1.82311e-06
-1.93147e-06
1.12245e-06
-8.95473e-08
8.52878e-08
-6.57484e-07
1.84558e-07
2.37785e-07
1.70005e-07
-3.79227e-08
-4.12792e-07
-5.65157e-07
-6.413e-07
-5.15239e-07
-5.56085e-07
-4.77027e-07
-5.37487e-07
-3.7139e-07
-3.84682e-07
-2.0854e-07
-1.98607e-07
7.04082e-08
1.56681e-07
6.0789e-07
7.12692e-07
9.91246e-07
1.01711e-07
1.13622e-06
1.39592e-06
1.52344e-06
1.39839e-06
1.83797e-06
1.76533e-06
2.26961e-06
8.23144e-06
9.83959e-06
1.31518e-05
-9.6712e-07
-4.31116e-07
-4.70187e-07
-6.43604e-08
-3.35458e-07
-2.52776e-07
-1.37997e-07
-1.48399e-07
9.73341e-07
-2.63095e-07
2.73597e-07
1.70509e-08
4.48743e-07
5.36584e-07
7.71487e-07
6.35718e-07
7.55192e-07
5.03717e-07
6.47551e-07
3.40158e-07
5.52047e-07
1.4569e-07
3.89855e-07
-2.74203e-07
5.08722e-08
-9.99016e-07
-7.39654e-07
-1.83514e-06
-1.09665e-06
-1.95138e-06
7.23257e-07
-2.67159e-06
8.42348e-07
4.81217e-06
7.7868e-06
-1.79353e-05
-1.02715e-05
4.91046e-05
-3.23727e-07
1.69219e-07
6.30694e-07
1.03814e-07
3.15712e-07
-9.44891e-07
5.82383e-07
-7.15128e-07
4.29938e-09
1.59271e-07
3.26172e-07
2.21467e-07
-7.05383e-08
-3.38855e-07
-5.50472e-07
-5.34115e-07
-5.15655e-07
-4.95539e-07
-5.01371e-07
-4.92374e-07
-4.0165e-07
-3.66286e-07
-2.54047e-07
-2.31958e-07
1.26017e-08
8.72131e-08
5.50282e-07
5.87281e-07
8.94776e-07
-1.1788e-07
7.79179e-07
8.64495e-07
1.05196e-06
6.2197e-07
9.64307e-07
6.64493e-07
1.42137e-06
1.39905e-06
-1.08676e-06
-3.56638e-06
-2.33627e-07
-8.85116e-07
-1.75279e-07
-9.88684e-08
-3.57476e-08
-1.66229e-07
-2.98176e-07
4.46417e-07
-3.80512e-07
9.09862e-07
-2.91811e-07
-4.4298e-08
2.68065e-07
4.61624e-07
6.00127e-07
6.70185e-07
5.79828e-07
5.50941e-07
3.79589e-07
3.54476e-07
1.28599e-07
7.72365e-08
-2.03275e-07
-3.14843e-07
-6.14014e-07
-8.83087e-07
-1.23922e-06
-1.92584e-06
-2.39159e-06
-2.86006e-06
-1.47595e-06
-4.2789e-06
-4.68733e-06
-3.27746e-06
-1.17867e-06
-9.62947e-06
-2.17366e-05
-5.72497e-06
-2.13993e-05
2.64162e-07
2.12194e-07
1.87395e-07
-1.36453e-07
2.05501e-07
-3.79232e-07
2.16599e-07
-4.6357e-07
3.3416e-07
4.4307e-07
2.32699e-07
-7.45402e-08
-3.17597e-07
-4.81705e-07
-4.44759e-07
-4.78931e-07
-4.32147e-07
-5.43098e-07
-4.18783e-07
-4.43916e-07
-2.74469e-07
-3.14965e-07
-1.48255e-07
-1.36393e-07
7.71819e-08
2.34256e-07
4.66355e-07
5.57939e-07
2.25711e-07
9.11859e-07
1.46179e-06
1.6125e-06
1.62896e-06
1.79711e-06
1.72045e-06
2.6296e-06
6.91235e-06
8.49239e-06
1.03444e-05
-4.30269e-07
-2.71872e-07
-1.51521e-07
-3.10603e-08
-1.01304e-07
-1.48491e-07
-5.77885e-08
-2.22473e-07
1.30608e-06
-5.12319e-07
-3.04011e-08
-1.15924e-08
1.56312e-07
4.51475e-07
5.52254e-07
7.35634e-07
5.97744e-07
6.61143e-07
4.07479e-07
5.23239e-07
2.48191e-07
4.45672e-07
9.39821e-08
3.08165e-07
-8.4155e-08
4.43498e-08
-6.14269e-07
-5.4988e-07
-1.18038e-06
-9.00638e-07
5.96973e-07
-1.0346e-06
1.0736e-06
5.44935e-06
7.02193e-06
-1.45936e-05
-8.45919e-06
4.40311e-05
-1.0121e-06
1.41567e-08
1.37738e-07
-4.64336e-08
6.92733e-08
-1.40169e-07
8.40546e-08
-7.47926e-07
1.8268e-07
2.91407e-07
3.49099e-07
1.59106e-07
-5.06066e-08
-3.17726e-07
-3.63277e-07
-4.29539e-07
-3.82191e-07
-4.78679e-07
-4.61243e-07
-4.82032e-07
-3.78236e-07
-3.55728e-07
-2.89397e-07
-2.59419e-07
-1.59193e-07
-6.64792e-08
1.5585e-07
2.52592e-07
4.00437e-07
-9.42115e-08
4.8804e-07
9.11872e-07
8.67732e-07
8.68056e-07
6.15389e-07
5.4875e-07
1.19092e-06
2.20467e-07
-1.93325e-06
-3.87713e-06
-2.88734e-07
-3.13002e-07
-8.93991e-08
-2.56641e-08
-6.93128e-08
-2.11588e-07
-2.1465e-07
2.25094e-07
-7.71618e-08
7.23712e-07
-1.06146e-07
-1.97314e-08
6.37459e-08
3.03672e-07
5.56045e-07
5.72348e-07
6.52616e-07
3.92028e-07
4.46202e-07
1.48771e-07
2.07411e-07
-1.09898e-07
-4.82791e-08
-3.82343e-07
-3.04041e-07
-7.54886e-07
-7.5474e-07
-1.58409e-06
-1.75473e-06
-2.58265e-06
-1.41614e-06
-4.08674e-06
-4.71465e-06
-3.67576e-06
-1.26765e-06
-8.93355e-06
-1.53963e-05
-2.80935e-06
-1.54978e-05
-4.08253e-08
-1.70777e-08
2.95925e-08
-1.41851e-07
5.24927e-08
-1.40811e-07
-5.36827e-08
-3.80673e-07
3.47243e-07
2.55366e-07
1.39453e-07
-9.13447e-08
-2.56477e-07
-3.11766e-07
-3.4946e-07
-3.48015e-07
-4.67998e-07
-4.33916e-07
-4.62691e-07
-3.30661e-07
-3.49872e-07
-2.3283e-07
-2.59692e-07
-1.27167e-07
-1.17442e-07
9.62629e-08
1.32758e-07
3.12798e-07
1.33982e-07
7.88692e-07
1.2217e-06
1.67644e-06
1.71132e-06
1.9424e-06
1.74358e-06
2.8909e-06
5.75664e-06
7.15763e-06
7.94794e-06
-2.6075e-07
-2.46648e-07
-3.82452e-08
-4.99357e-08
-1.27964e-07
-1.60626e-07
-1.24097e-07
-9.34138e-08
1.78092e-07
8.49281e-08
-1.68015e-07
-8.84731e-08
3.56656e-08
2.65908e-07
5.2034e-07
6.52412e-07
6.44599e-07
5.38965e-07
4.67148e-07
3.27203e-07
3.31754e-07
2.00982e-07
2.74124e-07
1.20586e-07
3.1635e-07
5.11552e-08
2.12993e-07
-3.18538e-07
-6.25676e-08
-5.44819e-07
1.2263e-06
-4.18466e-08
1.46552e-06
6.28134e-06
6.47105e-06
-1.13458e-05
-8.7133e-06
3.92483e-05
-2.27705e-06
-1.20894e-07
-4.83706e-08
-8.14341e-08
4.21855e-08
-1.05268e-07
5.96151e-09
-1.1371e-07
6.24226e-08
2.73511e-07
2.8462e-07
9.34551e-08
-1.00591e-07
-1.83816e-07
-2.9336e-07
-2.58722e-07
-3.894e-07
-3.82301e-07
-4.83107e-07
-3.75155e-07
-3.95239e-07
-2.97363e-07
-3.25825e-07
-2.56518e-07
-2.60949e-07
-1.70445e-07
-1.03212e-07
2.57731e-09
1.27474e-08
-1.03641e-07
2.42361e-07
6.49539e-07
8.46135e-07
7.48065e-07
6.63143e-07
3.17215e-07
8.80115e-07
-7.50261e-07
-2.45111e-06
-3.32012e-06
-2.69322e-07
-1.84513e-07
-8.40043e-08
-1.74099e-08
-7.61165e-08
-2.44887e-07
-2.24183e-07
1.10675e-07
-1.2554e-08
-1.27333e-08
9.524e-08
-2.65532e-07
7.4757e-08
1.82334e-07
4.57169e-07
6.25362e-07
4.70777e-07
4.77475e-07
1.98208e-07
2.55815e-07
-5.05625e-08
2.82525e-08
-2.7025e-07
-1.47625e-07
-4.19983e-07
-3.69779e-07
-7.01978e-07
-9.66899e-07
-1.42642e-06
-1.83812e-06
-1.53826e-06
-3.51427e-06
-4.60174e-06
-3.69804e-06
-1.35891e-06
-7.76718e-06
-1.08008e-05
-9.21456e-07
-1.17169e-05
-1.20429e-07
-8.44443e-08
-2.27374e-08
-1.10882e-07
4.90754e-08
-8.09968e-08
-2.252e-08
2.17969e-09
7.50963e-08
1.48911e-07
2.81714e-08
-7.99888e-08
-1.47176e-07
-2.08063e-07
-2.48296e-07
-3.53242e-07
-3.92224e-07
-4.30136e-07
-3.53483e-07
-3.56683e-07
-2.62754e-07
-2.93064e-07
-1.96227e-07
-2.32686e-07
-9.99454e-08
-1.03696e-07
5.21625e-08
3.9566e-08
1.75451e-07
4.98931e-07
1.03661e-06
1.43857e-06
1.77268e-06
1.97788e-06
1.85329e-06
2.88528e-06
4.74184e-06
5.77825e-06
6.09524e-06
-2.18553e-07
-2.05109e-07
-3.66214e-09
-6.11085e-08
-1.53216e-07
-1.57747e-07
-1.27863e-07
-1.78619e-07
1.56652e-07
9.89408e-08
-2.11007e-07
-4.0375e-08
-2.21311e-07
1.67973e-07
4.80497e-07
5.40449e-07
5.86495e-07
4.10963e-07
3.96298e-07
2.31001e-07
2.41164e-07
1.26315e-07
1.91888e-07
1.30962e-07
3.02828e-07
2.35807e-07
4.31565e-07
1.52014e-07
4.94664e-07
1.35365e-07
1.6124e-06
4.48659e-07
2.2021e-06
5.87042e-06
6.94107e-06
-8.58745e-06
-8.33874e-06
3.38279e-05
-2.71842e-06
-1.43918e-07
-9.16918e-08
-8.34526e-08
3.15514e-08
-6.98505e-08
3.15562e-08
-4.73065e-08
-2.23006e-08
4.38116e-08
1.34841e-07
6.40373e-08
1.83634e-08
-1.4773e-07
-1.35704e-07
-2.78582e-07
-2.85032e-07
-4.19511e-07
-3.34726e-07
-3.81776e-07
-2.78269e-07
-3.17928e-07
-2.50893e-07
-2.91871e-07
-2.42318e-07
-2.62744e-07
-1.65907e-07
-1.97023e-07
-1.01309e-07
-2.16912e-07
1.28448e-07
2.76985e-07
6.95103e-07
5.80725e-07
6.29243e-07
7.51645e-08
4.76011e-07
-1.31458e-06
-2.45984e-06
-2.97663e-06
-2.30251e-07
-1.38682e-07
-8.63991e-08
-1.16483e-08
-9.33859e-08
-2.47467e-07
-2.3574e-07
8.85749e-08
-3.85391e-08
-3.09185e-08
7.36829e-08
-1.28161e-07
-4.86884e-08
2.46589e-07
3.57205e-07
4.53053e-07
4.22224e-07
2.40511e-07
2.35345e-07
4.26338e-08
2.54466e-08
-1.59568e-07
-1.52378e-07
-2.63889e-07
-2.42131e-07
-3.49879e-07
-4.54931e-07
-6.92927e-07
-1.00384e-06
-1.2943e-06
-1.49141e-06
-2.95694e-06
-4.07662e-06
-3.53581e-06
-1.30331e-06
-6.22799e-06
-6.77301e-06
1.9736e-07
-8.86001e-06
-1.26753e-07
-9.62788e-08
-3.59338e-08
-8.62306e-08
4.86457e-08
-3.86531e-08
7.53798e-09
-3.98067e-08
-1.80013e-08
3.87422e-08
9.45805e-08
-2.34275e-07
4.15812e-08
-1.08465e-07
-2.28067e-07
-3.0905e-07
-3.51294e-07
-3.24769e-07
-3.23589e-07
-2.57836e-07
-2.76542e-07
-2.06388e-07
-2.41538e-07
-1.57108e-07
-1.55316e-07
-8.76606e-08
-5.00483e-08
6.60321e-09
1.12649e-07
3.6103e-07
7.74442e-07
1.17074e-06
1.64917e-06
1.88599e-06
1.9963e-06
2.72088e-06
3.8024e-06
4.57543e-06
4.51806e-06
-1.83935e-07
-1.79729e-07
1.58787e-08
-8.17288e-08
-1.55541e-07
-1.45305e-07
-1.15564e-07
-2.06799e-07
1.1902e-07
5.94574e-08
-9.53852e-08
-7.02392e-08
-5.55017e-09
5.41104e-08
2.82023e-07
4.14656e-07
3.07736e-07
3.47839e-07
1.79893e-07
2.49535e-07
4.69635e-08
1.60107e-07
-2.76283e-10
2.10364e-07
1.15032e-07
4.27644e-07
2.97996e-07
6.21004e-07
4.6134e-07
9.5446e-07
1.12327e-06
1.24345e-06
1.90569e-06
5.74365e-06
6.7537e-06
-6.27531e-06
-8.4467e-06
2.92973e-05
-3.06269e-06
-1.32753e-07
-9.30901e-08
-7.29371e-08
2.74699e-08
-5.01387e-08
5.23884e-08
-4.42352e-08
-1.68134e-08
-4.49379e-08
6.31633e-08
-2.22055e-07
2.53863e-07
-1.16843e-09
-6.08436e-08
-1.52227e-07
-3.17315e-07
-2.57738e-07
-3.26333e-07
-2.27812e-07
-2.77811e-07
-2.00947e-07
-2.53198e-07
-2.02865e-07
-2.51658e-07
-1.73887e-07
-2.40184e-07
-1.36848e-07
-2.39609e-07
-1.01177e-07
-1.25764e-07
2.2893e-07
2.41555e-07
5.84345e-07
3.0163e-07
1.21601e-07
2.418e-07
-1.55375e-06
-2.44148e-06
-2.23242e-06
-1.94403e-07
-1.05059e-07
-9.42925e-08
-1.35703e-08
-8.11762e-08
-2.45866e-07
-2.25187e-07
7.90377e-08
-9.41994e-08
-2.01465e-08
9.96466e-08
1.85806e-08
5.03274e-08
1.40702e-07
2.85934e-07
2.71783e-07
1.48175e-07
1.34225e-07
9.88348e-08
3.78363e-08
-6.04098e-08
-1.49957e-07
-2.02025e-07
-2.25374e-07
-2.31535e-07
-2.62952e-07
-3.7307e-07
-4.76929e-07
-7.72667e-07
-9.15383e-07
-1.46428e-06
-2.35294e-06
-3.46119e-06
-3.02165e-06
-1.13686e-06
-4.5946e-06
-3.76694e-06
1.05653e-06
-6.88106e-06
-1.14274e-07
-8.17507e-08
-3.3866e-08
-6.60761e-08
5.45337e-08
-2.29468e-08
3.6836e-08
-7.04305e-08
-7.85334e-09
-9.34964e-08
1.234e-07
-2.85331e-07
1.96868e-07
1.59015e-08
-1.58092e-07
-2.27095e-07
-2.53494e-07
-2.46681e-07
-2.19216e-07
-2.23116e-07
-1.81649e-07
-2.04199e-07
-1.52815e-07
-1.16844e-07
-8.85243e-08
-6.5852e-08
-2.54836e-08
6.05458e-09
1.25534e-07
2.58251e-07
6.24001e-07
8.83239e-07
1.46364e-06
1.65645e-06
2.05547e-06
2.32253e-06
3.00162e-06
3.35862e-06
3.26419e-06
-1.52723e-07
-1.59726e-07
2.17944e-08
-7.92389e-08
-1.52739e-07
-1.30542e-07
-1.08977e-07
-2.33286e-07
9.0758e-08
1.06229e-07
-9.52923e-08
1.18764e-07
4.783e-08
2.14108e-07
1.62956e-07
1.43169e-08
1.67838e-07
9.4168e-08
1.86064e-07
6.32429e-08
1.05639e-07
-3.61288e-08
6.2819e-08
-6.06176e-09
1.79741e-07
1.89044e-07
4.03423e-07
4.34543e-07
6.70476e-07
8.0337e-07
1.09222e-06
1.07516e-06
1.941e-06
4.67535e-06
6.52293e-06
-4.63284e-06
-8.28711e-06
2.40716e-05
-3.06317e-06
-1.10276e-07
-8.05951e-08
-5.7723e-08
2.96302e-08
-2.97802e-08
6.69025e-08
-3.07636e-08
8.7461e-10
-4.15617e-08
4.33971e-09
-2.14418e-07
3.27137e-07
1.63813e-09
1.7024e-08
-1.70107e-07
-1.53485e-07
-2.35683e-07
-1.56606e-07
-2.13136e-07
-1.34035e-07
-1.87959e-07
-1.31853e-07
-1.62331e-07
-9.63118e-08
-1.49224e-07
-1.07469e-07
-1.54208e-07
-1.16714e-07
-1.43003e-07
-5.849e-08
3.16088e-08
1.57628e-07
2.83189e-07
2.03507e-07
-1.26512e-08
-2.9598e-07
-1.94209e-06
-2.06878e-06
-1.96919e-06
-1.59758e-07
-8.73102e-08
-9.21769e-08
-2.41393e-09
-8.1945e-08
-2.29192e-07
-2.25229e-07
7.19821e-08
-8.84649e-08
-3.92911e-08
1.97919e-07
4.88559e-08
1.32923e-07
6.42616e-08
-5.8807e-08
5.21657e-07
-7.57227e-08
5.59495e-09
4.4272e-08
2.31332e-08
-9.7903e-08
-1.54728e-07
-2.27223e-07
-2.21062e-07
-2.2735e-07
-2.48719e-07
-3.22487e-07
-4.0536e-07
-6.23863e-07
-7.74076e-07
-1.33279e-06
-1.89982e-06
-2.8113e-06
-2.4219e-06
-9.5197e-07
-3.30134e-06
-1.70247e-06
1.62237e-06
-5.24236e-06
-9.79948e-08
-7.0132e-08
-2.64158e-08
-4.79958e-08
5.8709e-08
-1.07577e-08
5.78051e-08
-4.99197e-08
-1.883e-08
-6.6959e-08
1.03486e-07
-1.58468e-07
1.79943e-07
-5.36481e-08
-9.53944e-08
-1.60425e-07
-1.54247e-07
-1.53969e-07
-1.37834e-07
-1.27216e-07
-1.36567e-07
-1.11965e-07
-5.87183e-08
-2.20609e-08
-3.48341e-09
-3.9618e-09
2.39872e-08
5.54089e-08
1.49724e-07
2.43853e-07
5.22083e-07
7.00029e-07
1.23259e-06
1.38904e-06
1.87973e-06
1.87399e-06
2.22048e-06
2.34838e-06
2.22524e-06
-1.35116e-07
-1.38868e-07
2.80643e-08
-8.65192e-08
-1.37911e-07
-1.11046e-07
-9.74803e-08
-2.29001e-07
8.70034e-08
1.12139e-07
-4.60499e-08
1.18817e-07
7.94696e-08
-1.22674e-07
6.52407e-07
-4.59128e-07
-2.83999e-07
-9.00745e-08
2.85725e-08
7.79665e-08
-1.05379e-08
-2.60561e-08
-8.25895e-08
-1.91513e-08
-7.35593e-09
1.32871e-07
1.78509e-07
3.82777e-07
4.16052e-07
7.31153e-07
6.83176e-07
1.0096e-06
1.53897e-06
3.56601e-06
5.72272e-06
-3.68569e-06
-6.73153e-06
2.00099e-05
-3.1697e-06
-9.26304e-08
-6.60099e-08
-4.4479e-08
3.07477e-08
-2.04577e-08
7.66781e-08
-1.80988e-08
2.52304e-08
-4.72232e-08
-1.95347e-08
-3.21874e-08
2.7616e-08
6.6935e-08
-7.19293e-08
-7.41593e-08
-1.57111e-07
-8.20078e-08
-1.42327e-07
-6.7849e-08
-1.17955e-07
-6.40996e-08
-6.71062e-08
2.04763e-09
-8.67693e-09
-7.27835e-09
-4.786e-08
-4.39085e-08
-7.29554e-08
-3.41482e-08
-6.05347e-08
6.7286e-08
1.04515e-08
2.1598e-07
-2.61498e-08
-1.28225e-07
-3.76361e-07
-1.79187e-06
-2.08302e-06
-1.4747e-06
-1.42227e-07
-7.22394e-08
-9.93664e-08
-3.97995e-09
-6.39471e-08
-2.15323e-07
-2.01755e-07
7.54992e-08
-9.5082e-08
-2.97099e-08
2.05533e-07
7.02721e-08
-3.79895e-08
2.23215e-07
-4.58557e-07
3.26236e-07
-4.40676e-07
-3.37403e-07
-5.8213e-08
-3.64033e-08
-8.61223e-08
-2.00687e-07
-2.16539e-07
-2.62296e-07
-2.11044e-07
-2.87095e-07
-2.74315e-07
-4.23345e-07
-5.08298e-07
-7.43778e-07
-1.14358e-06
-1.56201e-06
-2.27094e-06
-1.82122e-06
-1.02673e-06
-2.28854e-06
-5.04224e-07
1.93047e-06
-4.06443e-06
-7.84351e-08
-5.32999e-08
-1.98332e-08
-3.53396e-08
6.00208e-08
1.34874e-10
7.50826e-08
-3.91265e-08
-2.02504e-08
-4.16094e-08
2.02957e-08
3.47304e-08
-1.42002e-08
2.04178e-08
-8.60513e-08
-4.53458e-08
-1.78781e-07
-4.46253e-08
-7.55994e-08
-6.16756e-08
-5.16548e-08
-4.9766e-12
4.6458e-08
8.93953e-08
6.48775e-08
6.34086e-08
6.6661e-08
1.1525e-07
1.75088e-07
2.66577e-07
4.54618e-07
5.93063e-07
1.01755e-06
1.12275e-06
1.64761e-06
1.45108e-06
1.62209e-06
1.56433e-06
1.54937e-06
-1.08442e-07
-1.3882e-07
2.25239e-08
-8.09551e-08
-1.26524e-07
-9.35561e-08
-8.46273e-08
-2.23628e-07
8.52642e-08
1.28682e-07
-5.41244e-08
7.403e-08
7.90398e-09
-3.0122e-07
2.587e-07
-1.03279e-06
-4.26783e-07
-2.48744e-07
-2.13044e-08
1.00989e-08
-3.19213e-08
-1.00758e-07
-1.17974e-07
-1.24762e-07
-7.98577e-08
-3.68249e-08
7.16228e-08
1.45636e-07
2.76691e-07
4.16664e-07
4.5894e-07
7.2035e-07
1.08502e-06
2.68223e-06
4.1929e-06
-2.50872e-06
-4.50124e-06
1.4994e-05
-3.00743e-06
-7.82744e-08
-5.11023e-08
-3.25405e-08
3.04607e-08
-9.13835e-09
8.05584e-08
-3.7946e-09
3.8073e-08
-4.21705e-08
-2.30599e-08
-3.2412e-08
8.22204e-09
1.00722e-08
-2.25327e-08
-3.22832e-08
-2.34778e-07
-8.24746e-08
-5.55422e-08
-2.28596e-08
-1.03671e-08
-3.68218e-10
7.13538e-08
1.09127e-07
1.12731e-07
7.08052e-08
3.11282e-08
1.53477e-08
1.33364e-08
2.31995e-08
1.4034e-08
6.88797e-08
1.20103e-08
1.36498e-07
-1.12917e-07
-1.24669e-07
-4.90645e-07
-1.72805e-06
-1.68592e-06
-1.21493e-06
-1.33542e-07
-7.02767e-08
-9.56149e-08
2.02045e-09
-6.32521e-08
-1.91419e-07
-1.89244e-07
8.24529e-08
-8.19915e-08
-3.71913e-08
1.89835e-07
-1.35552e-08
-1.42637e-07
-2.94135e-08
-7.33642e-07
-1.36685e-07
-8.94926e-07
-1.70901e-07
-6.96869e-08
-2.27421e-08
-1.37207e-07
-1.69688e-07
-2.68197e-07
-2.21345e-07
-2.69439e-07
-2.35817e-07
-3.15815e-07
-3.57371e-07
-4.7917e-07
-6.60911e-07
-9.58813e-07
-1.31665e-06
-1.76471e-06
-1.38794e-06
-1.51871e-06
-1.72686e-06
-1.26742e-07
1.63705e-06
-3.14244e-06
-5.497e-08
-4.51225e-08
-1.49666e-08
-2.57952e-08
5.80519e-08
5.46282e-09
8.36523e-08
-3.20024e-08
-2.08174e-08
-3.09708e-08
3.3055e-08
3.47439e-09
-2.68644e-08
5.13976e-09
-2.71334e-07
-1.49112e-07
-1.56259e-07
1.61966e-08
-2.33258e-08
4.55892e-08
6.54841e-08
1.00119e-07
1.55783e-07
1.46071e-07
1.14971e-07
9.13526e-08
1.00853e-07
1.46836e-07
1.9228e-07
2.78727e-07
3.97055e-07
5.27747e-07
8.10616e-07
9.46563e-07
1.29656e-06
1.09766e-06
1.1534e-06
1.09841e-06
1.13511e-06
-8.2786e-08
-1.2938e-07
1.74536e-08
-8.62039e-08
-1.12122e-07
-7.61074e-08
-6.82314e-08
-2.01121e-07
8.32499e-08
1.14745e-07
-8.79137e-08
-8.77564e-09
-1.1942e-07
-4.0521e-07
-1.555e-07
-7.06106e-07
-2.25263e-07
-1.67389e-07
3.97836e-09
-2.11106e-08
-4.99059e-08
-1.37969e-07
-1.41651e-07
-1.77474e-07
-1.42324e-07
-1.31278e-07
-4.66588e-08
-2.2839e-09
1.11584e-07
1.76046e-07
2.53957e-07
4.09215e-07
7.36627e-07
1.79017e-06
2.87588e-06
-1.75453e-06
-2.44246e-06
1.1155e-05
-2.87703e-06
-7.50084e-08
-3.14564e-08
-2.56038e-08
2.73556e-08
-6.57194e-09
8.05539e-08
-5.88158e-10
4.74804e-08
-3.28749e-08
-9.6281e-09
-3.47355e-08
-1.38776e-08
6.08199e-08
-2.90599e-07
5.19552e-09
-3.74608e-07
2.91512e-08
-1.71155e-07
1.77936e-07
7.15322e-08
1.4691e-07
1.78877e-07
1.88067e-07
1.66516e-07
1.04441e-07
6.94451e-08
5.79589e-08
6.55769e-08
6.59114e-08
6.82705e-08
7.8973e-08
4.31684e-08
8.40588e-08
-9.35401e-08
-2.01033e-07
-3.98939e-07
-1.30136e-06
-1.41452e-06
-8.76806e-07
-2.06108e-07
-3.57588e-08
-9.15156e-08
-4.74385e-09
-5.03926e-08
-1.7474e-07
-1.60512e-07
8.16865e-08
-7.77373e-08
-4.62691e-08
1.25006e-07
-8.08348e-08
-2.14817e-07
-1.49561e-07
-6.66589e-07
-7.45478e-08
-7.38347e-07
3.4361e-07
2.26935e-09
-4.28775e-08
-9.51887e-08
-1.97824e-07
-2.17971e-07
-2.46519e-07
-2.23494e-07
-2.46814e-07
-2.64541e-07
-3.27061e-07
-4.01188e-07
-5.70276e-07
-7.74969e-07
-1.07421e-06
-1.3824e-06
-9.00421e-07
-2.08562e-06
-1.28349e-06
-2.04318e-07
1.13459e-06
-2.45372e-06
2.65145e-08
-1.44043e-08
-5.98304e-09
-1.95898e-08
5.42247e-08
8.85946e-09
8.6374e-08
-2.16711e-08
-5.66543e-09
-2.24677e-08
3.64058e-08
5.24057e-08
-2.01006e-07
1.48694e-07
-7.57266e-07
2.77533e-08
-3.60311e-07
2.46039e-07
7.82136e-08
2.32981e-07
2.27596e-07
2.18117e-07
1.98839e-07
1.6318e-07
1.11972e-07
9.47566e-08
1.08754e-07
1.48307e-07
1.88141e-07
2.6225e-07
3.38808e-07
4.56564e-07
6.41498e-07
7.59048e-07
1.01288e-06
8.40711e-07
8.88106e-07
8.602e-07
9.51705e-07
4.77614e-08
-2.40349e-07
1.9629e-10
-8.00485e-08
-1.04283e-07
-6.35012e-08
-5.7917e-08
-1.85961e-07
7.62284e-08
8.68457e-08
-1.13285e-07
-6.5708e-08
-1.64169e-07
-4.3849e-07
-8.57608e-08
-6.58415e-07
3.09804e-07
-4.9804e-07
-1.81561e-07
-7.41328e-08
-1.26904e-07
-1.21251e-07
-1.88028e-07
-1.5956e-07
-2.01633e-07
-1.46752e-07
-1.413e-07
-6.5749e-08
-3.42529e-08
3.54353e-08
7.52384e-08
1.68841e-07
5.13661e-07
1.01157e-06
2.90642e-07
-1.19713e-06
-7.10053e-07
7.5484e-06
-2.57488e-06
-3.66824e-08
2.49641e-08
-6.63229e-09
2.64926e-08
-2.01574e-09
7.68379e-08
4.97069e-09
5.62473e-08
-1.97929e-08
6.57275e-09
-2.48239e-08
-3.96967e-08
1.16389e-07
-4.46458e-07
1.12762e-07
-3.99858e-07
1.00809e-08
1.12699e-07
1.99065e-07
3.53622e-07
2.76097e-07
2.24658e-07
2.1118e-07
1.51658e-07
1.02298e-07
7.45345e-08
7.60824e-08
8.47145e-08
9.06028e-08
9.11316e-08
8.85972e-08
6.32642e-08
6.44649e-08
-6.98482e-08
-1.77856e-07
-2.14954e-07
-8.95846e-07
-9.92648e-07
-5.79078e-07
-2.245e-07
-2.22995e-08
-9.52776e-08
-5.48794e-09
-5.203e-08
-1.53621e-07
-1.46959e-07
8.05238e-08
-7.49971e-08
-5.07324e-08
8.25725e-08
-1.10284e-07
-2.27651e-07
-1.53415e-07
-6.24562e-07
1.15599e-07
-4.51546e-07
2.44e-07
-1.70268e-07
-2.98298e-07
-1.82464e-07
-2.09807e-07
-2.13119e-07
-2.2229e-07
-2.02195e-07
-2.07858e-07
-2.24581e-07
-2.61674e-07
-3.28236e-07
-4.47186e-07
-6.05822e-07
-8.22394e-07
-1.03387e-06
-1.2412e-06
9.98708e-08
-1.61021e-06
-3.27623e-07
4.09432e-07
-1.8304e-06
8.16116e-08
3.70259e-08
8.53986e-09
-1.30869e-08
4.98981e-08
8.25482e-09
8.52373e-08
-1.67222e-08
8.47989e-09
-1.97716e-08
4.80419e-08
6.01308e-08
-9.71263e-08
-8.37981e-08
-4.74969e-07
-3.96399e-07
1.59879e-07
-1.01608e-08
4.29849e-07
3.04712e-07
2.23009e-07
2.40236e-07
1.96675e-07
1.27077e-07
8.93542e-08
7.6904e-08
9.31556e-08
1.30504e-07
1.60645e-07
2.24086e-07
2.69775e-07
3.7857e-07
4.81187e-07
6.17347e-07
7.61424e-07
6.60151e-07
7.04801e-07
7.66691e-07
8.41494e-07
6.01213e-08