/*--------------------------------*- C++ -*----------------------------------*\
| =========                 |                                                 |
| \\      /  F ield         | OpenFOAM: The Open Source CFD Toolbox           |
|  \\    /   O peration     | Version:  2306                                  |
|   \\  /    A nd           | Website:  www.openfoam.com                      |
|    \\/     M anipulation  |                                                 |
\*---------------------------------------------------------------------------*/
FoamFile
{
    version     2.0;
    format      ascii;
    arch        "LSB;label=32;scalar=64";
    class       volSymmTensorField;
    location    "775";
    object      turbulenceProperties:devReff;
}
// * * * * * * * * * * * * * * * * * * * * * * * * * * * * * * * * * * * * * //

dimensions      [0 2 -2 0 0 0 0];

internalField   nonuniform List<symmTensor> 
10720
(
(0.00163714 0.0042578 -9.50055e-22 -0.00177373 -2.23883e-20 0.000136594)
(0.00238853 0.00488004 -1.24415e-22 -0.00248647 1.40368e-19 9.79407e-05)
(0.00361106 0.00546063 -2.76481e-20 -0.00380828 -4.34989e-19 0.000197225)
(0.00524593 0.00621489 1.19073e-19 -0.00549191 8.78824e-19 0.00024598)
(0.00742492 0.00687341 -2.25916e-19 -0.00769357 -8.34226e-19 0.000268644)
(0.010404 0.00726188 -1.72317e-19 -0.0107954 -4.50646e-19 0.000391443)
(0.014299 0.0073746 3.25999e-19 -0.0147853 1.25251e-18 0.000486258)
(0.0191877 0.00685906 -8.31324e-19 -0.0197702 -2.26133e-18 0.000582587)
(0.0252391 0.00535157 -2.0651e-19 -0.0259856 6.04418e-19 0.000746566)
(0.0325645 0.00260624 6.13779e-19 -0.033465 1.25948e-18 0.000900457)
(0.0413422 -0.00189799 1.57979e-18 -0.0424337 5.77708e-19 0.00109149)
(0.0519597 -0.008734 -3.5524e-18 -0.0532775 -3.29928e-18 0.00131783)
(0.0649578 -0.0188219 6.72791e-19 -0.0665509 8.68396e-19 0.00159319)
(0.081247 -0.0337493 2.68636e-18 -0.0832018 1.27312e-18 0.00195483)
(0.102368 -0.056169 -4.07746e-18 -0.104834 -6.36945e-18 0.00246626)
(0.13053 -0.0904045 -4.36536e-18 -0.133705 -2.58502e-18 0.00317455)
(0.169882 -0.14506 1.92127e-17 -0.174189 1.779e-17 0.00430665)
(0.224283 -0.232428 1.78591e-17 -0.230164 3.37909e-17 0.00588053)
(0.31093 -0.388885 -3.53876e-17 -0.319546 -5.48543e-17 0.00861513)
(0.426457 -0.641768 -1.37793e-18 -0.438632 1.45544e-17 0.0121751)
(0.666828 -1.21423 -2.72236e-17 -0.686224 5.20471e-17 0.0193962)
(0.945579 -2.11453 -1.24431e-17 -0.971694 4.18858e-17 0.0261155)
(1.76563 -5.12885 -1.43144e-16 -1.81777 -6.41928e-16 0.0521376)
(2.42847 -10.3117 3.3146e-16 -2.51193 5.58904e-16 0.083457)
(1.52859 -11.6488 4.23727e-17 -1.56983 -7.12276e-16 0.0412407)
(0.526834 -11.2309 3.65831e-16 -0.515513 5.81165e-16 -0.0113212)
(-0.145584 -11.0468 -8.18319e-17 0.17536 -7.84417e-17 -0.0297766)
(-0.664897 -11.2291 2.74527e-16 0.689704 2.3057e-16 -0.024807)
(-1.13636 -11.4425 7.29047e-16 1.15283 1.20851e-15 -0.0164689)
(-1.57188 -11.4553 4.00564e-16 1.58025 1.9976e-15 -0.00837051)
(-1.95808 -11.2413 -1.41155e-15 1.95637 -1.93145e-15 0.00170773)
(-2.27381 -10.8351 -4.74946e-16 2.26333 -7.26151e-16 0.0104816)
(-2.49382 -10.2215 -3.22258e-17 2.47888 -4.3682e-15 0.0149458)
(-2.60531 -9.41458 -2.58329e-15 2.58993 -7.29996e-15 0.0153824)
(-2.5894 -8.40616 1.00633e-15 2.57519 9.2324e-16 0.0142105)
(-2.43552 -7.22749 1.22003e-15 2.42452 1.14393e-15 0.0109992)
(-2.07507 -5.67586 -1.22469e-16 2.06185 -5.25305e-16 0.0132166)
(-1.60215 -4.21398 -1.54852e-15 1.60282 -2.10863e-17 -0.000670096)
(-0.759658 -1.48494 -3.64235e-16 0.762588 -3.32898e-15 -0.00292975)
(0.000968053 0.00371303 2.394e-21 -0.00101994 5.55972e-20 5.18856e-05)
(0.000549691 0.00319714 -3.57156e-21 -0.000639717 2.56967e-23 9.00256e-05)
(0.000179308 0.0026111 -1.9566e-20 -0.000226375 -1.37148e-19 4.70668e-05)
(-6.70789e-05 0.00208971 4.98099e-21 3.29507e-05 9.36021e-20 3.41282e-05)
(-0.00017926 0.0015969 3.91902e-21 0.000160972 -1.82537e-20 1.82878e-05)
(-0.000172607 0.0011672 -3.38575e-20 0.000173003 1.10833e-19 -3.95696e-07)
(-8.40105e-05 0.000835305 -2.02266e-19 0.000108118 1.62794e-19 -2.41077e-05)
(5.47819e-05 0.000636924 1.39726e-19 -1.70838e-05 -5.51809e-20 -3.76981e-05)
(0.00023136 0.000621222 2.26703e-19 -0.000204966 -1.14671e-19 -2.63943e-05)
(0.000471316 0.000742214 -1.54452e-19 -0.000468025 3.90403e-20 -3.29071e-06)
(0.000812377 0.00102677 -3.88387e-20 -0.00082302 1.83172e-19 1.06434e-05)
(0.00130644 0.0015664 2.49336e-19 -0.00132442 1.03714e-19 1.79827e-05)
(0.00202428 0.00252564 4.59462e-19 -0.00205445 -7.15378e-20 3.01699e-05)
(0.00305564 0.00413712 -8.14004e-21 -0.00310694 -2.58799e-19 5.13e-05)
(0.00447308 0.0066446 -8.04485e-20 -0.00454802 -1.73497e-19 7.49409e-05)
(0.00629922 0.0103377 2.69053e-20 -0.00640792 -5.82061e-20 0.000108704)
(0.00863912 0.015635 -1.97154e-19 -0.00878487 6.70121e-19 0.000145754)
(0.0117401 0.0234245 7.42379e-19 -0.0119383 2.7595e-19 0.000198174)
(0.0161482 0.03545 3.28025e-19 -0.0164165 -1.21849e-18 0.000268372)
(0.0226884 0.0549987 -1.32086e-18 -0.0230789 -3.46437e-19 0.000390541)
(0.0329407 0.0886167 -4.44084e-18 -0.0335316 -2.02923e-18 0.000590925)
(0.0490727 0.148528 -3.35497e-18 -0.0500521 -8.97231e-19 0.000979404)
(0.075704 0.263752 6.22755e-18 -0.0774818 -5.78853e-19 0.00177781)
(0.116281 0.487768 -7.467e-18 -0.119918 1.2081e-18 0.00363661)
(0.183242 0.979449 4.06952e-18 -0.191089 -7.22382e-18 0.00784625)
(0.277943 2.01763 -1.26414e-16 -0.294318 2.61679e-18 0.016375)
(0.410052 4.53272 -7.8324e-17 -0.448527 1.22984e-17 0.0384749)
(0.421167 9.36903 6.59253e-17 -0.501475 8.24555e-19 0.0803077)
(0.00812307 13.292 8.69845e-18 -0.112266 -1.25606e-19 0.104143)
(-0.628749 14.9598 6.28583e-17 0.530418 4.34849e-19 0.0983313)
(-1.26785 15.3986 -4.37185e-16 1.18561 -4.89407e-18 0.0822436)
(-1.85323 15.4185 1.57308e-16 1.78589 2.093e-17 0.0673379)
(-2.3774 15.2563 -1.88904e-15 2.3216 -1.53205e-16 0.0557946)
(-2.83317 14.9562 -3.45856e-15 2.78626 -2.36953e-16 0.0469016)
(-3.21856 14.534 1.05847e-15 3.17823 1.08393e-16 0.0403266)
(-3.53766 14.0109 1.0246e-15 3.50239 1.64277e-16 0.0352627)
(-3.77532 13.2878 1.45055e-15 3.74324 2.6667e-16 0.0320878)
(-3.91955 12.4706 -2.90393e-16 3.88956 -3.67468e-17 0.0299933)
(-3.64029 10.0667 -4.55479e-15 3.63372 -7.84233e-16 0.00656863)
(0.000579433 -0.000460528 1.22858e-22 -0.00052005 4.00305e-21 -5.93829e-05)
(0.000492605 -0.000547355 2.90331e-20 -0.000425489 7.03537e-20 -6.7116e-05)
(0.000371416 -0.000622949 -2.69199e-20 -0.000291097 -4.74605e-20 -8.03188e-05)
(0.000250519 -0.000652178 -1.81361e-20 -0.00015859 -5.16564e-20 -9.1929e-05)
(0.00013315 -0.00064511 1.2227e-19 -3.25565e-05 2.37308e-19 -0.000100593)
(2.3141e-05 -0.000610486 4.76159e-20 8.61802e-05 7.38713e-20 -0.000109321)
(-6.029e-05 -0.000551403 2.2581e-19 0.000177198 2.0745e-19 -0.000116908)
(-0.000116636 -0.000479008 -1.16705e-19 0.000238471 -2.24589e-20 -0.000121835)
(-0.000149303 -0.000404777 1.64896e-19 0.000274582 1.14263e-19 -0.000125279)
(-0.000158012 -0.000336002 -5.85647e-21 0.000285259 2.50086e-22 -0.000127247)
(-0.000150112 -0.000278307 -2.23006e-19 0.000277009 -1.90525e-19 -0.000126896)
(-0.000132662 -0.00023995 2.87171e-19 0.00025889 3.57498e-19 -0.000126228)
(-0.000110888 -0.00022612 1.76603e-19 0.000240754 8.8744e-20 -0.000129866)
(-8.62532e-05 -0.00024579 -3.68422e-20 0.000231115 1.99826e-20 -0.000144861)
(-4.85447e-05 -0.000344619 -2.26871e-19 0.000241475 3.73457e-20 -0.00019293)
(6.24973e-05 -0.00065862 4.77379e-19 0.000258296 5.46282e-19 -0.000320793)
(0.000455306 -0.00154846 8.55325e-19 0.000142118 -9.3529e-19 -0.000597424)
(0.00150309 -0.00355132 -4.42158e-18 -0.00049954 -5.73098e-18 -0.00100355)
(0.00420696 -0.00867975 5.06207e-19 -0.0025384 7.4681e-18 -0.00166856)
(0.010484 -0.0211542 7.37192e-18 -0.00790022 -2.07044e-18 -0.00258374)
(0.0294398 -0.0624403 1.54644e-17 -0.0250361 6.12772e-18 -0.00440369)
(0.0739708 -0.174458 -2.35341e-17 -0.0677618 -2.25364e-17 -0.00620898)
(0.194571 -0.543753 7.40145e-17 -0.186803 1.86818e-16 -0.00776847)
(0.502921 -1.77822 1.58958e-19 -0.500171 -1.5421e-16 -0.00274929)
(0.747867 -3.54097 -2.72895e-16 -0.771504 1.69377e-16 0.0236371)
(0.789898 -5.39375 -9.72005e-17 -0.844128 -6.60062e-16 0.0542302)
(0.603751 -7.15036 1.17866e-18 -0.675491 7.57125e-17 0.0717401)
(0.204275 -8.39529 -2.94575e-16 -0.279751 -4.44889e-16 0.0754761)
(-0.295797 -8.63679 -4.93625e-16 0.229776 -2.83293e-15 0.0660203)
(-0.707281 -7.89772 -1.66929e-16 0.665993 -3.54643e-15 0.0412875)
(-0.931274 -6.69194 5.2288e-16 0.922816 4.89627e-15 0.00845802)
(-0.998211 -5.4779 -9.55173e-16 1.01633 -3.75619e-17 -0.0181166)
(-0.984335 -4.49823 -7.18953e-15 1.0141 1.34204e-15 -0.0297623)
(-0.930797 -3.75352 8.77248e-15 0.960425 1.59519e-14 -0.029628)
(-0.863831 -3.18648 -1.48871e-15 0.887839 -8.63806e-16 -0.0240079)
(-0.781599 -2.74358 3.42275e-15 0.802062 -4.99324e-15 -0.0204623)
(-0.730818 -2.43281 -1.50383e-15 0.743921 1.52321e-15 -0.0131028)
(-0.562034 -2.14575 3.25267e-15 0.594762 4.03597e-16 -0.0327272)
(-0.850989 -2.43447 5.79895e-15 0.751822 8.24923e-15 0.0991671)
(0.000645655 -0.00034501 9.36998e-21 -0.000595427 2.31774e-20 -5.02283e-05)
(0.000684421 -0.000224612 -1.27043e-20 -0.00063747 -9.60292e-20 -4.69503e-05)
(0.000691694 -7.63945e-05 -1.86441e-20 -0.000654664 -1.11219e-19 -3.70304e-05)
(0.000654249 8.66809e-05 -7.12345e-21 -0.000627665 1.6531e-19 -2.65843e-05)
(0.000565078 0.000235301 1.92652e-21 -0.000550957 4.34556e-20 -1.41215e-05)
(0.000429276 0.000348908 3.78247e-20 -0.000425619 -1.45276e-19 -3.65732e-06)
(0.000271226 0.00040598 7.02572e-20 -0.00027464 -2.2467e-19 3.41367e-06)
(0.000131121 0.000406958 -3.17856e-19 -0.000140194 8.39334e-21 9.07269e-06)
(2.28717e-05 0.000374119 4.88576e-20 -3.33812e-05 2.16475e-19 1.05095e-05)
(-6.63162e-05 0.000316361 1.24469e-21 6.00911e-05 -1.29264e-19 6.22508e-06)
(-0.000121767 0.000243629 -8.32677e-20 0.000123188 -7.89501e-20 -1.42011e-06)
(-0.000141757 0.000176672 -6.00706e-20 0.00015008 -8.49752e-20 -8.32285e-06)
(-0.000139971 0.000124397 -1.12035e-20 0.000152778 1.86594e-20 -1.28068e-05)
(-0.00012757 8.66286e-05 3.75293e-20 0.000142839 1.0099e-19 -1.52691e-05)
(-0.000111044 6.08898e-05 6.4734e-20 0.000127502 2.50096e-20 -1.64583e-05)
(-9.41908e-05 4.40025e-05 -9.21266e-20 0.000110951 -4.69912e-21 -1.67605e-05)
(-7.86826e-05 3.33876e-05 8.27055e-20 9.51006e-05 8.54261e-21 -1.64179e-05)
(-6.53908e-05 2.68724e-05 -9.84913e-21 8.10452e-05 -2.88778e-20 -1.56544e-05)
(-5.43344e-05 2.27331e-05 -3.38117e-20 6.89938e-05 5.37889e-20 -1.46595e-05)
(-4.52858e-05 1.99641e-05 -2.57776e-20 5.8919e-05 2.80594e-20 -1.36333e-05)
(-3.79975e-05 1.79326e-05 -6.20006e-20 5.07309e-05 6.97501e-20 -1.27334e-05)
(-3.26724e-05 1.64692e-05 -8.73211e-20 4.49201e-05 4.53005e-20 -1.22476e-05)
(-2.91895e-05 1.55186e-05 -1.25798e-19 4.16893e-05 1.08382e-20 -1.24997e-05)
(-2.68697e-05 1.54958e-05 5.6107e-20 4.05156e-05 5.32826e-21 -1.36459e-05)
(-2.46032e-05 1.72629e-05 -3.99458e-21 3.96875e-05 5.47735e-21 -1.50843e-05)
(-0.000235312 0.000213506 5.26709e-19 0.000404617 1.37775e-19 -0.000169305)
(-0.0011975 0.00135689 2.6967e-18 0.0021678 -1.92562e-19 -0.000970299)
(-0.00866895 0.0119941 1.08353e-18 0.0162507 -4.51461e-19 -0.00758179)
(-0.0262269 0.0459314 -7.54127e-19 0.0499595 1.03198e-19 -0.0237325)
(-0.0449442 0.102717 4.96454e-17 0.0849991 2.0164e-18 -0.0400548)
(-0.0579722 0.170678 4.02654e-16 0.105298 9.72033e-18 -0.0473253)
(-0.065977 0.235243 2.39536e-16 0.111231 1.31179e-17 -0.0452536)
(-0.0730168 0.289382 1.76247e-15 0.112019 1.2094e-16 -0.0390026)
(-0.0819867 0.334939 2.54475e-15 0.11474 1.69249e-16 -0.0327529)
(-0.0941523 0.375377 -5.70586e-16 0.122123 -9.71569e-17 -0.0279708)
(-0.108449 0.415565 -4.90976e-16 0.133605 -8.61449e-17 -0.0251556)
(-0.128786 0.456189 -1.2252e-15 0.151575 -5.15058e-16 -0.0227893)
(-0.147321 0.552324 -2.52522e-15 0.174168 -3.50861e-18 -0.0268471)
(-0.207632 0.775786 -2.03913e-15 0.197416 1.35832e-15 0.0102163)
(0.000333681 -0.000312808 1.72579e-21 -0.000360069 2.38758e-21 2.63878e-05)
(0.00025836 -0.000372282 -2.7296e-20 -0.000290235 -6.63199e-20 3.1875e-05)
(0.00016085 -0.000413559 -6.02087e-21 -0.000197977 -3.03306e-21 3.71263e-05)
(5.20705e-05 -0.000426362 2.27884e-20 -9.69438e-05 4.92238e-20 4.48733e-05)
(-5.44257e-05 -0.000413077 -7.20971e-20 3.54565e-06 -1.46642e-19 5.088e-05)
(-0.000154783 -0.000372457 -8.20729e-20 9.79079e-05 -1.34513e-19 5.68754e-05)
(-0.000238945 -0.00030849 -1.66416e-19 0.000175434 -2.45978e-19 6.35111e-05)
(-0.0003 -0.000230744 -1.34057e-20 0.000231133 -1.99282e-21 6.88671e-05)
(-0.000337765 -0.000145421 -7.30692e-20 0.000264305 -1.74014e-19 7.34608e-05)
(-0.000352964 -6.11088e-05 3.05788e-19 0.000275454 3.47969e-19 7.75099e-05)
(-0.000348658 1.659e-05 -5.00761e-20 0.000268535 6.81113e-20 8.01225e-05)
(-0.000331379 8.39144e-05 3.41324e-20 0.000250345 2.10022e-20 8.10343e-05)
(-0.000307328 0.000139291 -2.33532e-19 0.000227515 -2.97227e-19 7.9813e-05)
(-0.000281381 0.00018487 1.50383e-19 0.000204153 -1.39608e-20 7.72271e-05)
(-0.000254015 0.000218734 4.36373e-20 0.000181549 1.35416e-19 7.24661e-05)
(-0.000223465 0.000237231 5.33193e-20 0.00015865 2.559e-20 6.48154e-05)
(-0.00018339 0.000232177 -2.46073e-19 0.000130474 -1.43319e-19 5.29155e-05)
(-0.000151775 0.000222382 2.07408e-19 0.000109552 1.54608e-19 4.22233e-05)
(-9.8286e-05 0.000162302 4.86992e-20 7.29455e-05 6.36261e-22 2.53405e-05)
(-0.000953993 0.00171956 -2.20612e-18 0.000737907 -3.3191e-19 0.000216086)
(-0.000303506 0.000581505 8.82371e-19 0.000247143 -3.46514e-19 5.63632e-05)
(-0.000628307 0.00124191 6.91798e-20 0.000546309 1.18577e-18 8.19978e-05)
(-0.000109219 0.000125106 4.84411e-19 0.000116655 -7.15426e-19 -7.43694e-06)
(0.00189362 -0.00704763 -3.43687e-18 -0.00152609 -3.67206e-18 -0.000367526)
(0.0132859 -0.0587435 4.86166e-18 -0.0112918 1.71652e-17 -0.00199409)
(0.032886 -0.197594 -2.91814e-17 -0.028629 7.97472e-18 -0.00425702)
(0.0537755 -0.496462 1.49077e-17 -0.0476876 1.15767e-18 -0.00608782)
(0.0637831 -1.11398 -1.43053e-17 -0.0565666 7.63787e-17 -0.00721644)
(0.025179 -2.19799 -4.3989e-16 -0.0184058 2.45972e-16 -0.00677316)
(-0.11987 -3.62955 2.16855e-16 0.12307 3.53087e-16 -0.00319949)
(-0.387032 -4.91287 1.56334e-15 0.381843 -5.86545e-16 0.00518903)
(-0.691565 -5.52317 -2.76452e-15 0.677159 2.16197e-15 0.0144059)
(-0.905375 -5.36675 5.13891e-16 0.889646 9.32665e-15 0.0157291)
(-0.983044 -4.78711 -4.87158e-17 0.974652 -6.36766e-15 0.00839185)
(-0.964908 -4.12842 3.05773e-15 0.963437 -2.30081e-15 0.00147047)
(-0.878602 -3.52395 -1.43664e-14 0.881573 5.20382e-16 -0.00297067)
(-0.798685 -3.0538 4.95855e-15 0.797664 -1.62562e-15 0.00102129)
(-0.531959 -2.55833 5.1428e-15 0.547066 -1.52339e-15 -0.0151065)
(-0.844164 -2.82232 -1.01095e-14 0.826931 3.05705e-15 0.0172329)
(0.000395295 -0.000236804 -3.54253e-21 -0.000419381 -6.74348e-21 2.40862e-05)
(0.000435596 -0.000154352 -1.34281e-20 -0.000454967 -1.89999e-20 1.93711e-05)
(0.000460048 -5.32795e-05 5.56879e-20 -0.000474973 1.20065e-19 1.49256e-05)
(0.000454763 5.43797e-05 1.14453e-20 -0.000464206 -1.35568e-20 9.44314e-06)
(0.000415687 0.000160468 7.89575e-21 -0.000421152 -8.89555e-20 5.46419e-06)
(0.000342125 0.00024805 -2.46538e-20 -0.000344106 6.37275e-20 1.98095e-06)
(0.000244197 0.00030301 2.3758e-20 -0.000243891 1.44098e-19 -3.06869e-07)
(0.000141061 0.000319908 1.56358e-19 -0.000141807 1.67851e-19 7.46251e-07)
(4.81368e-05 0.000309274 5.31697e-20 -4.95978e-05 -1.33522e-19 1.46091e-06)
(-2.83436e-05 0.000273934 1.18442e-19 2.72881e-05 7.01953e-20 1.05542e-06)
(-7.85704e-05 0.000221402 -8.35355e-20 7.72412e-05 2.14691e-20 1.32922e-06)
(-0.00010266 0.000166969 -1.20562e-20 0.000100154 7.06291e-20 2.5059e-06)
(-0.000108698 0.000119366 5.25981e-21 0.000104634 -6.34548e-20 4.06421e-06)
(-0.000104073 8.10066e-05 1.1335e-19 9.83161e-05 -7.9796e-20 5.75727e-06)
(-9.40452e-05 5.20544e-05 8.56317e-21 8.68706e-05 -1.25373e-20 7.17459e-06)
(-8.20395e-05 3.1043e-05 -1.26635e-20 7.36758e-05 5.23559e-20 8.36376e-06)
(-7.02287e-05 1.64115e-05 8.11348e-20 6.10086e-05 -9.58405e-20 9.22006e-06)
(-5.97404e-05 6.3148e-06 1.31939e-20 4.98982e-05 1.15876e-20 9.84215e-06)
(-5.10627e-05 -7.62338e-07 9.35631e-20 4.08714e-05 -6.54346e-21 1.01912e-05)
(-4.39374e-05 -6.08769e-06 1.00026e-19 3.34928e-05 2.24107e-20 1.04446e-05)
(-3.80777e-05 -1.0408e-05 2.55856e-19 2.74928e-05 -3.37974e-20 1.0585e-05)
(-3.29294e-05 -1.44531e-05 3.31047e-19 2.21557e-05 -5.00794e-20 1.07737e-05)
(-2.77599e-05 -1.86722e-05 1.96865e-19 1.66898e-05 1.70538e-20 1.10701e-05)
(-2.10892e-05 -2.26158e-05 4.53301e-20 9.23591e-06 -9.27049e-21 1.18533e-05)
(-1.29581e-05 -2.48037e-05 -4.86227e-20 -2.34517e-07 2.34839e-20 1.31926e-05)
(-4.80908e-06 -2.40848e-05 1.81522e-19 -9.4375e-06 -2.94965e-20 1.42466e-05)
(2.16948e-06 -2.25522e-05 -4.8855e-20 -1.80223e-05 -4.75374e-21 1.58529e-05)
(5.47536e-06 -1.38325e-05 -3.13946e-20 -1.76537e-05 6.47206e-22 1.21783e-05)
(5.62363e-05 -7.33791e-05 2.76157e-20 -0.000143674 -8.68462e-22 8.74379e-05)
(0.000481014 -0.000275628 -1.44017e-18 -0.00111255 -5.4492e-20 0.000631534)
(0.00145033 0.000425601 -8.65022e-18 -0.00322072 -7.87261e-20 0.00177039)
(0.00231357 0.00468905 -5.48355e-17 -0.00521488 -3.18043e-18 0.00290131)
(0.00185827 0.0154474 -1.34331e-16 -0.00506975 -4.43306e-18 0.00321148)
(-0.000687053 0.0342915 -3.34078e-16 -0.00190404 -2.28713e-17 0.00259109)
(-0.00553309 0.0608629 -8.55083e-16 0.00399388 -7.65473e-17 0.00153921)
(-0.0113403 0.0929831 2.15619e-16 0.0108487 -1.74406e-17 0.000491575)
(-0.0190812 0.127615 -1.17299e-15 0.0190413 2.10903e-16 3.9916e-05)
(-0.00964345 0.154102 2.9473e-15 0.0104764 5.32935e-16 -0.000832914)
(-0.0374618 0.261207 4.63713e-15 0.0294805 9.50692e-16 0.00798128)
(0.00030628 -0.000258223 9.51568e-21 -0.000296876 1.62784e-20 -9.40394e-06)
(0.000259298 -0.000306082 -1.32542e-20 -0.000248912 -2.38931e-20 -1.03863e-05)
(0.000195911 -0.00034741 -6.02783e-21 -0.000182639 -3.32172e-21 -1.32724e-05)
(0.000125024 -0.000374211 7.16065e-20 -0.000109146 1.04795e-19 -1.5878e-05)
(5.17748e-05 -0.000382635 4.5507e-20 -3.28945e-05 8.24868e-20 -1.88803e-05)
(-2.12931e-05 -0.000372943 5.77214e-20 4.3669e-05 1.10845e-19 -2.23759e-05)
(-8.66745e-05 -0.000347085 8.81562e-20 0.000112589 1.01992e-19 -2.59149e-05)
(-0.000139539 -0.000308085 -5.05818e-20 0.000168994 -7.85515e-20 -2.94547e-05)
(-0.000178415 -0.000260562 -1.80919e-19 0.00021168 -1.79248e-19 -3.32644e-05)
(-0.000202004 -0.000209912 2.34922e-19 0.000238693 1.323e-19 -3.66891e-05)
(-0.000211574 -0.000160037 1.97567e-19 0.000251484 1.67323e-19 -3.99103e-05)
(-0.000209291 -0.000114101 2.55705e-19 0.00025182 1.22495e-19 -4.25287e-05)
(-0.000197728 -7.42122e-05 -4.20852e-19 0.000241973 -1.34781e-19 -4.42448e-05)
(-0.000179865 -4.12314e-05 -3.58072e-19 0.000224684 -2.40536e-19 -4.48187e-05)
(-0.000157738 -1.50509e-05 4.73807e-19 0.00020221 1.49028e-19 -4.44717e-05)
(-0.000133096 7.47222e-06 9.57515e-20 0.000175258 5.89651e-20 -4.21614e-05)
(-0.000107748 2.66635e-05 -7.10845e-20 0.000145943 7.3368e-21 -3.81956e-05)
(-8.42536e-05 4.27577e-05 -2.28719e-19 0.000117102 -1.49848e-19 -3.2848e-05)
(-6.0836e-05 5.36471e-05 5.08335e-20 8.53964e-05 -1.95035e-20 -2.45604e-05)
(-4.31028e-05 5.86943e-05 2.00645e-19 5.91299e-05 6.19049e-20 -1.60271e-05)
(-3.80375e-05 7.08196e-05 -2.68483e-19 4.8997e-05 -7.72201e-20 -1.09595e-05)
(-5.2586e-05 0.000122306 1.87495e-19 6.32766e-05 2.6782e-20 -1.06905e-05)
(-4.20045e-05 0.000126102 -4.92268e-20 4.88115e-05 -1.06723e-20 -6.80697e-06)
(-0.000411881 0.00187453 -1.45579e-18 0.000491399 7.13917e-19 -7.95184e-05)
(-0.000659714 0.00711034 3.94895e-18 0.000961365 -1.26039e-18 -0.000301651)
(0.000526971 0.0133164 -7.74039e-18 8.39329e-05 1.02751e-17 -0.000610904)
(0.00344534 0.0178938 1.54539e-19 -0.00247113 -3.53253e-19 -0.00097421)
(0.000467595 0.000645151 8.64146e-19 -0.000391547 -3.0691e-19 -7.60477e-05)
(0.00425993 -0.0102933 6.32192e-18 -0.00375439 1.59946e-17 -0.000505542)
(0.0100461 -0.108884 2.69549e-17 -0.00879331 -1.22374e-16 -0.0012528)
(-0.00028544 -0.477284 -6.63647e-17 0.00249873 -3.95482e-16 -0.00221329)
(-0.0767269 -1.29849 2.07654e-15 0.0794482 5.51381e-16 -0.00272131)
(-0.263494 -2.42377 2.97049e-15 0.264383 6.72374e-16 -0.000889841)
(-0.514172 -3.34411 -1.64342e-15 0.510769 -2.23424e-15 0.00340373)
(-0.71557 -3.72263 -7.33345e-15 0.709619 1.42205e-15 0.00595046)
(-0.792938 -3.65054 4.79356e-15 0.790403 4.89489e-15 0.00253446)
(-0.801303 -3.42072 -1.01677e-14 0.796586 -1.30177e-16 0.0047164)
(-0.574061 -3.01973 -1.303e-14 0.584049 1.88259e-15 -0.00998754)
(-0.812926 -3.21031 9.22621e-15 0.785158 -3.4876e-15 0.0277681)
(0.000342224 -0.000198497 -1.46076e-20 -0.000335899 -2.97426e-20 -6.32502e-06)
(0.000364714 -0.000135329 -5.0237e-21 -0.000359228 2.03041e-20 -5.48569e-06)
(0.000373312 -5.72454e-05 4.83501e-20 -0.000370622 9.21873e-20 -2.69014e-06)
(0.00036393 2.51556e-05 -2.06945e-20 -0.00036261 -1.16223e-21 -1.32004e-06)
(0.000332411 0.000105542 1.80246e-20 -0.000332513 1.1422e-19 1.02043e-07)
(0.00027855 0.000174405 5.52693e-20 -0.00027883 -1.58028e-20 2.79882e-07)
(0.000208874 0.000222873 5.97611e-20 -0.000208618 -1.55033e-21 -2.56151e-07)
(0.000134091 0.000246333 -1.47488e-19 -0.000134121 -8.91344e-20 2.991e-08)
(6.20832e-05 0.000246781 -8.05828e-20 -6.28878e-05 6.96672e-21 8.04672e-07)
(-4.81343e-07 0.000226456 1.33622e-19 -6.61742e-07 6.03013e-20 1.14308e-06)
(-4.60143e-05 0.000192083 6.23689e-20 4.50225e-05 -5.11784e-21 9.91791e-07)
(-7.36465e-05 0.000153527 7.38463e-20 7.31321e-05 -4.55936e-20 5.14415e-07)
(-8.69238e-05 0.000117332 -1.14039e-19 8.71756e-05 -7.47463e-20 -2.5185e-07)
(-9.02497e-05 8.63932e-05 -1.41383e-19 9.13693e-05 2.66889e-20 -1.11959e-06)
(-8.73193e-05 6.17588e-05 1.29048e-20 8.93386e-05 3.73724e-20 -2.01937e-06)
(-8.10776e-05 4.30064e-05 4.37229e-20 8.39014e-05 -1.30119e-20 -2.82386e-06)
(-7.35833e-05 2.93006e-05 -1.07379e-19 7.71376e-05 -8.50146e-21 -3.55421e-06)
(-6.6111e-05 1.94555e-05 -4.12435e-21 7.02675e-05 -1.70996e-20 -4.15644e-06)
(-5.93561e-05 1.23042e-05 -4.12363e-20 6.40056e-05 -8.07157e-21 -4.64947e-06)
(-5.34503e-05 6.79487e-06 8.66503e-20 5.8436e-05 -4.99182e-20 -4.98568e-06)
(-4.83435e-05 2.24992e-06 -9.43813e-20 5.35919e-05 -3.27924e-20 -5.2484e-06)
(-4.37598e-05 -1.90784e-06 -1.96269e-19 4.92024e-05 -2.31683e-20 -5.44262e-06)
(-3.92321e-05 -6.02087e-06 8.88887e-21 4.48497e-05 -2.97496e-20 -5.61759e-06)
(-3.40472e-05 -9.84474e-06 5.03136e-20 3.9779e-05 -2.86279e-20 -5.73183e-06)
(-2.84136e-05 -1.2248e-05 1.52479e-19 3.44235e-05 -1.06384e-20 -6.00995e-06)
(-2.34555e-05 -1.29978e-05 -1.4286e-19 3.00706e-05 -8.27367e-21 -6.61511e-06)
(-1.95444e-05 -1.28635e-05 -2.45766e-20 2.68443e-05 7.64394e-21 -7.29989e-06)
(-1.65195e-05 -1.23523e-05 1.47862e-20 2.44677e-05 1.29329e-21 -7.94824e-06)
(-1.3684e-05 -1.14346e-05 -6.83165e-21 2.18799e-05 -2.7465e-22 -8.19589e-06)
(-1.08693e-05 -1.02008e-05 -9.94593e-21 1.87102e-05 4.83244e-22 -7.84096e-06)
(-7.46291e-06 -8.18554e-06 -1.6011e-20 1.38313e-05 -8.45986e-22 -6.36838e-06)
(-4.21048e-06 -5.75695e-06 4.6104e-20 8.61666e-06 1.33037e-21 -4.40618e-06)
(-3.03627e-05 -5.73872e-05 2.01395e-18 7.74494e-05 1.31045e-19 -4.70867e-05)
(-5.84347e-07 -4.60445e-05 1.88472e-17 0.000110492 1.75283e-18 -0.000109908)
(0.00023772 0.000603009 7.89121e-17 -0.000137079 1.0395e-17 -0.000100641)
(0.000888282 0.00334885 -1.74471e-16 -0.000948543 -2.6636e-17 6.02607e-05)
(0.00157575 0.0112214 7.42937e-16 -0.0020561 1.09883e-16 0.00048035)
(0.00672049 0.0279078 -4.86142e-16 -0.00721133 -1.68273e-16 0.000490837)
(-0.00282583 0.10449 -3.29641e-16 -0.00195356 -1.41002e-15 0.00477939)
(0.000222634 -0.000196128 -1.35347e-20 -0.000225649 -2.01606e-20 3.01561e-06)
(0.000184148 -0.000231624 2.65854e-21 -0.000188508 4.23596e-21 4.35984e-06)
(0.000134444 -0.000261248 1.61108e-20 -0.000139278 1.74974e-20 4.83418e-06)
(7.79987e-05 -0.000279187 -9.89662e-20 -8.41632e-05 -1.40665e-19 6.16454e-06)
(1.8932e-05 -0.000283319 -7.24487e-20 -2.64808e-05 -8.47329e-20 7.54883e-06)
(-4.04422e-05 -0.00027307 1.69306e-19 3.16123e-05 2.02667e-19 8.82991e-06)
(-9.4835e-05 -0.000249163 -1.79755e-19 8.42688e-05 -2.23209e-19 1.05662e-05)
(-0.000140347 -0.000213788 -8.12619e-20 0.000127929 -5.40597e-20 1.24181e-05)
(-0.00017474 -0.000169936 -1.93186e-19 0.000160477 -1.44566e-19 1.42627e-05)
(-0.00019668 -0.000121817 -3.59989e-20 0.000180319 -6.55051e-20 1.63605e-05)
(-0.000206279 -7.2869e-05 2.41759e-20 0.000187824 -8.72366e-21 1.84546e-05)
(-0.000204704 -2.62633e-05 -1.32279e-19 0.000184162 -1.75438e-19 2.05423e-05)
(-0.000193971 1.5445e-05 4.30642e-19 0.000171446 2.94944e-19 2.25255e-05)
(-0.000176465 5.07378e-05 -1.41749e-19 0.000152269 -2.47892e-20 2.41963e-05)
(-0.000154504 7.94331e-05 -3.47388e-19 0.000128934 -1.51909e-19 2.55693e-05)
(-0.000130522 0.000100453 2.30337e-19 0.000104584 4.60966e-21 2.5938e-05)
(-0.000106122 0.000113127 -1.67346e-19 8.13099e-05 -9.65211e-20 2.48125e-05)
(-8.19663e-05 0.000118319 2.29125e-21 5.92363e-05 1.22505e-19 2.27301e-05)
(-5.96024e-05 0.000117958 -4.02616e-20 3.9544e-05 -3.16308e-20 2.00584e-05)
(-3.91178e-05 0.000110575 -2.84137e-19 2.25968e-05 -1.96317e-19 1.6521e-05)
(-2.01758e-05 8.61587e-05 1.80293e-19 9.39593e-06 1.75024e-19 1.07798e-05)
(-1.01253e-05 6.59318e-05 3.44874e-21 3.85516e-06 -1.06331e-19 6.27017e-06)
(-6.7652e-06 6.98242e-05 3.83938e-20 2.13419e-06 1.17472e-20 4.63101e-06)
(-2.52626e-06 7.98464e-05 1.11642e-19 -1.21205e-06 -5.00459e-21 3.73831e-06)
(3.77153e-06 8.70025e-05 -3.76406e-20 -6.74443e-06 -1.19898e-20 2.9729e-06)
(9.47856e-06 8.9221e-05 1.26741e-19 -1.15703e-05 2.0256e-20 2.09174e-06)
(1.27774e-05 8.91691e-05 -6.92903e-21 -1.39997e-05 1.58508e-22 1.22225e-06)
(8.41279e-05 0.000514291 -8.17325e-20 -8.75257e-05 -5.06125e-20 3.39784e-06)
(0.00131267 0.00702713 2.08524e-20 -0.00132481 1.81206e-18 1.21357e-05)
(0.00517241 0.0227268 -6.61741e-17 -0.00512734 5.46347e-18 -4.50724e-05)
(0.0014704 0.00463279 -5.86981e-18 -0.00144582 9.81626e-19 -2.45762e-05)
(0.0106723 0.0121207 2.79782e-17 -0.0104433 -1.63304e-16 -0.000229008)
(0.0187172 -0.098479 5.75701e-16 -0.0178876 -7.06318e-16 -0.000829537)
(-0.0256859 -0.584621 -2.98413e-15 0.0276771 1.5906e-16 -0.00199118)
(-0.182272 -1.49028 4.83547e-15 0.184082 1.81671e-15 -0.00181044)
(-0.400767 -2.39922 -9.96087e-16 0.401467 4.27341e-16 -0.000699266)
(-0.586004 -2.96379 -1.75014e-15 0.582026 3.98523e-15 0.00397757)
(-0.525561 -3.08576 6.73635e-16 0.536048 2.43512e-16 -0.0104862)
(-0.772346 -3.40048 -1.72701e-14 0.73509 4.32355e-15 0.0372565)
(0.000253108 -0.000152903 8.63746e-21 -0.000256266 3.53072e-21 3.15744e-06)
(0.000274184 -0.000106572 -3.12486e-20 -0.000275956 -4.49325e-20 1.77281e-06)
(0.000285724 -4.96654e-05 3.99009e-21 -0.000287343 2.03317e-20 1.61917e-06)
(0.000283464 1.1771e-05 1.70416e-20 -0.000284288 -5.6858e-20 8.2369e-07)
(0.000264476 7.30933e-05 -1.38576e-19 -0.000265053 -1.99266e-19 5.76422e-07)
(0.000228057 0.000127523 -1.41948e-19 -0.000228065 7.2858e-20 8.49108e-09)
(0.00017833 0.000168591 1.98759e-19 -0.000178005 1.03191e-19 -3.25339e-07)
(0.000122699 0.000192328 -6.43112e-20 -0.00012258 -1.86803e-19 -1.19083e-07)
(6.67714e-05 0.00019883 -8.78175e-20 -6.69512e-05 2.49287e-20 1.79772e-07)
(1.59936e-05 0.000188953 -5.98844e-20 -1.63332e-05 -1.03992e-19 3.39577e-07)
(-2.36404e-05 0.000167061 2.09743e-20 2.3337e-05 3.16661e-20 3.03434e-07)
(-5.04748e-05 0.000139406 -3.93064e-20 5.01956e-05 -5.14048e-20 2.79221e-07)
(-6.58568e-05 0.000110987 -8.11802e-20 6.55264e-05 1.0921e-19 3.30483e-07)
(-7.23438e-05 8.47907e-05 8.61059e-20 7.18771e-05 5.05161e-20 4.66757e-07)
(-7.25481e-05 6.24353e-05 7.31688e-20 7.18744e-05 -3.36505e-20 6.73715e-07)
(-6.88982e-05 4.43327e-05 -1.50338e-20 6.79432e-05 -3.01136e-20 9.54968e-07)
(-6.32425e-05 3.02671e-05 4.36825e-20 6.19784e-05 9.72949e-21 1.26411e-06)
(-5.69267e-05 1.95706e-05 -6.47135e-20 5.53454e-05 1.65351e-20 1.58135e-06)
(-5.07691e-05 1.14598e-05 4.58168e-20 4.88922e-05 -1.20504e-21 1.87694e-06)
(-4.5112e-05 5.13608e-06 -6.03068e-20 4.29597e-05 -2.8163e-20 2.15231e-06)
(-4.00221e-05 -2.29563e-08 5.81809e-20 3.7644e-05 4.86275e-21 2.37813e-06)
(-3.53181e-05 -4.52333e-06 7.79908e-20 3.27491e-05 1.70603e-20 2.569e-06)
(-3.06274e-05 -8.65391e-06 -5.44318e-21 2.79075e-05 7.15661e-21 2.71988e-06)
(-2.53523e-05 -1.22589e-05 -1.46136e-19 2.2432e-05 7.00002e-23 2.9203e-06)
(-1.95037e-05 -1.45491e-05 -5.43768e-20 1.63509e-05 -2.32196e-20 3.15275e-06)
(-1.39164e-05 -1.52711e-05 -1.60215e-20 1.05755e-05 2.46896e-20 3.34086e-06)
(-9.03129e-06 -1.50183e-05 5.92788e-20 5.385e-06 7.3602e-22 3.64629e-06)
(-4.81581e-06 -1.41933e-05 2.13741e-21 7.45462e-07 -4.86861e-22 4.07035e-06)
(-1.23694e-06 -1.3132e-05 -3.3556e-21 -3.3232e-06 2.86616e-22 4.56014e-06)
(1.63627e-06 -1.12934e-05 3.75535e-20 -6.35332e-06 1.74079e-22 4.71704e-06)
(4.36907e-06 -1.18021e-05 3.32639e-20 -1.00252e-05 1.07548e-21 5.65613e-06)
(3.23001e-06 -5.8375e-06 -8.99536e-20 -6.13122e-06 -4.97831e-21 2.90121e-06)
(1.18542e-05 -1.72085e-05 -7.62374e-19 -1.98274e-05 -5.91311e-20 7.97314e-06)
(8.6077e-05 -0.000108085 -1.05777e-18 -0.000127997 -1.29131e-19 4.19196e-05)
(0.00023958 -0.000261108 2.02121e-18 -0.000317149 2.17595e-20 7.75696e-05)
(0.000569184 -0.000463124 -9.08092e-18 -0.000661163 3.60926e-18 9.19796e-05)
(0.00026006 -9.31415e-05 -1.27226e-17 -0.000281113 -1.05878e-17 2.10532e-05)
(0.000884026 0.000200489 5.28439e-17 -0.000863563 3.77449e-18 -2.04628e-05)
(0.00383521 0.0196986 -2.90416e-16 -0.00520653 5.22493e-17 0.00137132)
(0.00018413 -0.000161014 1.18696e-20 -0.000183018 1.37883e-20 -1.11164e-06)
(0.000155879 -0.000189721 -2.9849e-20 -0.000154872 -3.58774e-20 -1.00703e-06)
(0.000118628 -0.000214942 -2.41029e-21 -0.000117023 -4.98743e-21 -1.60468e-06)
(7.60892e-05 -0.00023239 -1.24403e-20 -7.41975e-05 -6.4876e-21 -1.89168e-06)
(3.1036e-05 -0.000239974 9.86365e-20 -2.87668e-05 1.13518e-19 -2.26912e-06)
(-1.54507e-05 -0.000237317 7.56357e-20 1.84274e-05 6.24058e-20 -2.97673e-06)
(-5.93402e-05 -0.00022451 9.61799e-22 6.29578e-05 3.04984e-20 -3.61756e-06)
(-9.76928e-05 -0.000202637 1.87631e-19 0.000102082 1.81804e-19 -4.38913e-06)
(-0.00012879 -0.000173559 -2.34317e-20 0.000134176 -3.12877e-21 -5.38569e-06)