/*--------------------------------*- C++ -*----------------------------------*\
| =========                 |                                                 |
| \\      /  F ield         | OpenFOAM: The Open Source CFD Toolbox           |
|  \\    /   O peration     | Version:  2306                                  |
|   \\  /    A nd           | Website:  www.openfoam.com                      |
|    \\/     M anipulation  |                                                 |
\*---------------------------------------------------------------------------*/
FoamFile
{
    version     2.0;
    format      ascii;
    arch        "LSB;label=32;scalar=64";
    class       volScalarField;
    location    "775";
    object      turbulenceProperties:I;
}
// * * * * * * * * * * * * * * * * * * * * * * * * * * * * * * * * * * * * * //

dimensions      [0 0 0 0 0 0 0];

internalField   nonuniform List<scalar> 
10720
(
0.00417416
0.00414921
0.00416936
0.00429778
0.00446111
0.00469043
0.00500339
0.00538905
0.00586656
0.00645473
0.00717316
0.00806412
0.00918813
0.0106284
0.0125285
0.015086
0.0186931
0.0238216
0.0320093
0.0443816
0.0693739
0.111448
0.228024
0.420879
0.507708
0.466886
0.408352
0.366429
0.339394
0.32225
0.311164
0.303445
0.29898
0.296874
0.296937
0.299229
0.307568
0.319848
0.527528
0.00422556
0.0043826
0.0045635
0.00498546
0.00568732
0.00704486
0.0101849
0.0170031
0.013481
0.00874221
0.00732141
0.00706285
0.0073137
0.00787058
0.00865658
0.00966578
0.0109378
0.0125664
0.0146964
0.0175308
0.021403
0.0267187
0.034406
0.0453583
0.0627105
0.0884409
0.130981
0.186828
0.221537
0.234699
0.238639
0.240294
0.241518
0.242567
0.243552
0.244662
0.246102
0.249517
0.255937
0.00181802
0.00166489
0.00152729
0.00139741
0.00127677
0.00116854
0.00106937
0.000977946
0.000896852
0.000824206
0.000759314
0.000711283
0.000692093
0.000711363
0.00079572
0.000979806
0.00132922
0.00190102
0.00294594
0.00464699
0.00815773
0.0141382
0.0264669
0.0520282
0.08052
0.108852
0.136988
0.161327
0.175663
0.177673
0.171223
0.161861
0.15353
0.147633
0.144813
0.145249
0.154572
0.167389
0.330977
0.00198376
0.00219116
0.00247007
0.0028681
0.00346346
0.00439779
0.00583363
0.0071565
0.00638396
0.00446763
0.00313631
0.00234222
0.00183756
0.00148994
0.00123536
0.00104034
0.000884558
0.000756305
0.000645139
0.000542906
0.00043867
0.00032545
0.00018534
7.26347e-05
0.000113086
0.00129856
0.00295739
0.00830061
0.0151197
0.0210815
0.0257812
0.0293932
0.0322556
0.0347429
0.0371134
0.0396027
0.0424672
0.0476505
0.0611859
0.00157882
0.00145486
0.00133338
0.00121912
0.00112084
0.00103368
0.000958231
0.000895783
0.000844885
0.000805012
0.00077413
0.000752505
0.000739219
0.00073413
0.00072985
0.000715251
0.000666954
0.000617065
0.00020744
0.00151437
0.000951833
0.00122343
0.000428402
0.00278716
0.00822696
0.0155428
0.0256118
0.0402884
0.0601894
0.0834018
0.105688
0.122332
0.13113
0.134229
0.135528
0.137362
0.144906
0.152921
0.257384
0.00172245
0.00189317
0.00212897
0.0024435
0.00286721
0.00342281
0.0040558
0.00446455
0.00424683
0.00349845
0.00272198
0.00212257
0.00168591
0.0013638
0.00112245
0.000937901
0.000796153
0.000687096
0.000604311
0.000541307
0.000494058
0.000459234
0.000434768
0.000416872
0.000406312
0.000396893
0.000402786
0.00030669
0.000797246
0.00202966
0.00340327
0.00491186
0.0073479
0.0106612
0.0142964
0.0179031
0.021418
0.0239678
0.0337473
0.00149034
0.0013868
0.00128707
0.00119638
0.00111327
0.00103596
0.000965533
0.000900589
0.00084098
0.000786002
0.000735047
0.000687288
0.000641877
0.000598315
0.000555819
0.000512324
0.000468788
0.00042828
0.000373594
0.000283718
4.38952e-07
0.000433819
0.000366667
0.00150847
0.00291625
0.00404578
0.00481416
0.00100874
0.00391457
0.0126759
0.0276331
0.0484322
0.0716668
0.0923774
0.107729
0.11867
0.130887
0.142673
0.216543
0.00160011
0.00172814
0.00189097
0.00210534
0.00237237
0.00268423
0.00299088
0.00316901
0.00308219
0.00273175
0.00229091
0.00189353
0.00157481
0.00132674
0.00113409
0.000982734
0.00086299
0.00076732
0.00069043
0.000627383
0.000575234
0.000530989
0.000491939
0.000454114
0.000417905
0.000387944
0.000364826
0.00034767
0.000328741
0.000305553
0.000263491
0.000208664
0.000577962
0.000761528
0.00145855
0.00340513
0.00626332
0.0101569
0.0207115
0.00131461
0.0012294
0.00114556
0.00106632
0.000993193
0.000924208
0.000860468
0.000802013
0.000748385
0.000700074
0.000656907
0.000618874
0.000586191
0.000558871
0.000536883
0.000519369
0.000503037
0.000485223
0.000467392
0.000441762
0.000364148
0.000207375
8.47729e-05
3.41316e-05
0
0
0
0.000954151
0.00330153
0.00607505
0.00280559
0.00523168
0.0134802
0.0343057
0.0593269
0.0834081
0.105607
0.125441
0.183868
0.00140572
0.00150916
0.00163746
0.0017953
0.00197622
0.00216722
0.00233681
0.00242972
0.00238877
0.00220553
0.00194531
0.00167728
0.00143624
0.00123099
0.00105995
0.000918155
0.000800785
0.000703743
0.000623712
0.000557501
0.000502694
0.000456838
0.00041754
0.000381148
0.000345827
0.00031354
0.000287147
0.000267936
0.000258181
0.000246278
0.000270895
0.000131299
0.000334935
0.000725862
0.0011424
0.00161747
0.000991184
0.00178547
0.00900465
0.00119682
0.00112923
0.0010615
0.000997579
0.000938218
0.000881796
0.000829332
0.000780561
0.000735071
0.00069283
0.000653433
0.000616638
0.000582301
0.000550185
0.000520098
0.00049099
0.000461052
0.000431006
0.000402703
0.000377754
0.000357632
0.00032741
0.000278475
0.00012411
6.52815e-05
5.07324e-05
3.25343e-05
2.78739e-06
0
0
0.00143046
0.00457594
0.00199588
0.00739815
0.0112978
0.0366736
0.067853
0.0992671
0.152731
0.00126679
0.00134423
0.00143799
0.00155024
0.00167237
0.00179421
0.00189739
0.00195253
0.00193041
0.00182472
0.00166315
0.00148159
0.00130499
0.00114525
0.00100615
0.000887389
0.000787038
0.000702785
0.000632272
0.000573102
0.000523115
0.000480103
0.000441876
0.000405651
0.000370119
0.000337002
0.000307843
0.00028286
0.000261388
0.000243097
0.000227104
0.000212265
0.000188811
0.00015158
3.95024e-06
2.16906e-05
0.000407637
0.000857052
0.00303197
0.00107725
0.00102236
0.000966459
0.000912783
0.000862546
0.000814035
0.000768244
0.000725225
0.000684565
0.000646395
0.000610574
0.000576987
0.000545714
0.000516799
0.000490229
0.000466248
0.000445446
0.000427046
0.00040934
0.000391588
0.000375191
0.000361702
0.000347355
0.000318705
0.000268107
0.000214393
0.000126804
9.88247e-06
4.20581e-05
1.48086e-05
0
0
0.000748354
0.00432696
0.00382687
0.00950538
0.0260621
0.0646066
0.119281
0.00113336
0.00119407
0.00126593
0.00134886
0.0014348
0.00151694
0.00158484
0.00162034
0.00160709
0.00154194
0.00143748
0.00131253
0.00118287
0.00105844
0.000944391
0.000842583
0.000753082
0.000675262
0.000608071
0.000550142
0.000500117
0.000456486
0.000417562
0.000381171
0.000345997
0.000313021
0.000283551
0.000257947
0.000235845
0.000217198
0.000202691
0.000192969
0.000187384
0.000181161
0.000174039
0.000118499
3.73107e-05
0
0.00140438
0.000977361
0.000933364
0.000887888
0.000843818
0.000802387
0.000762034
0.000723782
0.000687674
0.000653352
0.000620946
0.000590243
0.000561129
0.000533581
0.00050751
0.000482849
0.000459603
0.000437254
0.000415009
0.00039332
0.000373148
0.000355567
0.000341695
0.000332017
0.000325716
0.000314913
0.000296132
0.000265739
0.000224099
0.000178057
5.89047e-05
4.17541e-05
8.29732e-06
0
0
0.00153545
0.00254921
0.00918498
0.0293729
0.0831482
0.00102152
0.00106851
0.00112331
0.00118507
0.00124698
0.00130454
0.00135163
0.00137584
0.00136745
0.00132513
0.00125489
0.00116713
0.00107157
0.000975475
0.000883653
0.000798743
0.00072184
0.000653341
0.000593006
0.000540135
0.000493783
0.000452811
0.00041585
0.000381219
0.000347911
0.000316634
0.000288358
0.000263263
0.000240841
0.000220654
0.000202611
0.000186481
0.000172027
0.000159068
0.00014978
0.000141074
0.00012032
4.16629e-05
0
0.00088776
0.000852073
0.000814683
0.000778014
0.000743366
0.000709269
0.000676651
0.000645613
0.000615834
0.00058743
0.000560269
0.000534246
0.000509376
0.000485628
0.000463031
0.000441565
0.00042131
0.000402602
0.000385281
0.000369112
0.000354138
0.000340938
0.00032976
0.000320265
0.000311047
0.000300174
0.000288059
0.000272701
0.00025683
0.00022386
0.000184438
3.71688e-05
3.19218e-05
0
0
0.000850534
0.00526347
0.0108961
0.0491523
0.000923122
0.000960164
0.0010028
0.00104972
0.00109556
0.00113744
0.00117135
0.00118856
0.00118306
0.00115439
0.00110567
0.00104282
0.000971823
0.000897652
0.000824097
0.000753653
0.000687812
0.000627409
0.000572727
0.00052363
0.000479669
0.000440111
0.000403971
0.000370064
0.000337636
0.000307102
0.000279292
0.00025447
0.000232317
0.000212532
0.000195133
0.000180437
0.000168806
0.000160578
0.000156184
0.000157998
0.000165676
0.000175106
3.73616e-05
0.000809574
0.000780602
0.000749894
0.000719509
0.000690657
0.000662071
0.000634566
0.000608265
0.000582904
0.00055859
0.000535196
0.000512632
0.000490906
0.000469983
0.000449863
0.000430545
0.000412093
0.000394282
0.000376984
0.000360575
0.00034563
0.000332687
0.000321864
0.000312129
0.000301888
0.000290195
0.000278012
0.000267176
0.000259181
0.000252996
0.000245758
0.000214646
0.000142806
4.39506e-05
0
0
0
0.00652924
0.0242674
0.000837916
0.000867273
0.000900731
0.000936857
0.000971484
0.00100287
0.00102799
0.00104057
0.00103692
0.00101684
0.000982103
0.000936259
0.000882996
0.000825595
0.000766898
0.000708976
0.00065326
0.000600814
0.000552185
0.000507586
0.000466911
0.000429743
0.000395419
0.000363133
0.000332318
0.000303283
0.000276687
0.00025276
0.000231227
0.000211767
0.000194283
0.000178803
0.000165295
0.000154254
0.000146086
0.000145281
0.000146
0.000192814
0.000137754
0.000740438
0.000716762
0.000691402
0.000666101
0.000641961
0.000617883
0.000594551
0.000572147
0.000550397
0.00052942
0.000509094
0.000489333
0.000470142
0.000451488
0.00043339
0.000415882
0.000398986
0.000382801
0.00036743
0.000352954
0.000339608
0.000327607
0.000317064
0.000307361
0.000297093
0.000285251
0.000272328
0.000260308
0.000250825
0.00024488
0.000241568
0.00024186
0.000232425
0.000182694
4.83899e-05
0
0
0.00152574
0.0121919
0.000763335
0.000786831
0.000813429
0.000841639
0.000868259
0.000892351
0.000911368
0.000920775
0.000918315
0.000903893
0.000878528
0.000844488
0.000804118
0.000759558
0.000712773
0.000665355
0.000618522
0.000573275
0.000530308
0.00049001
0.000452485
0.000417591
0.000384945
0.000354031
0.00032451
0.00029663
0.000270908
0.000247585
0.000226498
0.00020742
0.000190319
0.000175337
0.000162691
0.000152901
0.000146254
0.000146274
0.000147668
0.0001788
0.000207467
0.000679322
0.000659913
0.000638913
0.000617806
0.000597613
0.000577339
0.000557605
0.000538574
0.000520015
0.000502036
0.000484527
0.000467403
0.000450666
0.000434286
0.000418271
0.000402651
0.00038747
0.000372813
0.000358629
0.000345018
0.000332339
0.00032087
0.000310667
0.000301259
0.000291533
0.000280535
0.000268435
0.000256637
0.000246547
0.000238769
0.000232948
0.00023093
0.000233144
0.000235389
0.000195392
4.44743e-05
0
0.000869642
0.00719195
0.000697923
0.000716832
0.000738182
0.000760474
0.000781251
0.000800049
0.000814708
0.000821882
0.000820195
0.00080957
0.000790687
0.000765029
0.000734114
0.000699302
0.000661986
0.000623295
0.000584152
0.000545437
0.000507799
0.00047174
0.000437524
0.000405181
0.000374509
0.000345232
0.00031723
0.000290712
0.000266099
0.000243624
0.000223187
0.000204609
0.000187841
0.00017298
0.000160131
0.000149751
0.000142328
0.00014107
0.000143456
0.000165183
0.000215674
0.000625001
0.000609023
0.000591575
0.00057392
0.000556984
0.000539875
0.000523165
0.000506992
0.000491145
0.000475726
0.000460638
0.000445798
0.000431199
0.000416802
0.00040262
0.000388686
0.000375031
0.000361765
0.000348931
0.00033661
0.00032502
0.000314363
0.000304647
0.000295525
0.000286194
0.000275907
0.000264737
0.000253735
0.000244058
0.00023606
0.00022946
0.000224474
0.000222556
0.000225792
0.000238816
0.000173943
6.96591e-06
0.000493533
0.00413986
0.000640202
0.000655521
0.000672786
0.000690597
0.000707024
0.000721881
0.000733343
0.000738893
0.000737706
0.000729732
0.000715426
0.000695792
0.000671857
0.000644523
0.000614678
0.000583122
0.000550533
0.000517602
0.00048489
0.000452874
0.00042189
0.000392081
0.000363415
0.000335814
0.000309292
0.000284078
0.000260516
0.000238833
0.000218996
0.000200883
0.000184474
0.000169899
0.000157326
0.000147215
0.000140054
0.000138546
0.000141036
0.000158504
0.000205929
0.00057655
0.000563343
0.000548811
0.000534017
0.000519796
0.000505364
0.000491213
0.000477476
0.00046397
0.000450778
0.000437822
0.000425009
0.000412343
0.000399783
0.000387327
0.000375001
0.000362833
0.000350933
0.000339337
0.000328087
0.000317362
0.000307395
0.000298191
0.000289467
0.000280602
0.000271001
0.000260695
0.000250509
0.000241435
0.000233807
0.000227435
0.00022217
0.000218378
0.000217041
0.000222346
0.000252826
8.69893e-06
0.000158541
0.00206621
0.000589008
0.000601496
0.000615539
0.000629898
0.000643034
0.000654884
0.000663923
0.000668295
0.000667427
0.000661325
0.000650303
0.000635093
0.000616387
0.000594759
0.000570831
0.000545101
0.000518026
0.000490133
0.000461873
0.000433658
0.000405811
0.000378556
0.000351972
0.000326135
0.000301168
0.000277306
0.000254862
0.000234052
0.000214889
0.000197301
0.000181285
0.000166969
0.000154495
0.000144294
0.00013686
0.00013482
0.000136813
0.00015254
0.000194802
0.000533143
0.000522188
0.000510063
0.000497635
0.000485681
0.000473504
0.000461513
0.00044985
0.000438349
0.000427079
0.000415973
0.000404948
0.000393988
0.000383057
0.000372141
0.00036127
0.000350473
0.000339826
0.000329408
0.000319254
0.000309458
0.000300247
0.000291622
0.000283357
0.000274983
0.000266032
0.000256504
0.00024705
0.000238518
0.000231272
0.000225207
0.000220291
0.000216431
0.000214939
0.000210392
0.000243075
0.000180217
1.85689e-05
0.000535064
0.000543377
0.000553606
0.000565094
0.000576745
0.000587343
0.000596858
0.000604052
0.00060752
0.000606867
0.000602112
0.000593503
0.000581561
0.000566789
0.000549569
0.000530291
0.000509289
0.000486838
0.000463288
0.000438979
0.000414246
0.000389399
0.000364672
0.000340199
0.000316124
0.000292689
0.000270175
0.000248856
0.000228931
0.000210454
0.000193399
0.000177784
0.000163746
0.000151442
0.000141299
0.000133791
0.000131378
0.000132894
0.000146743
0.000184573
0.000494091
0.000484991
0.000474853
0.000464399
0.000454352
0.000444073
0.000433922
0.000424032
0.000414254
0.000404649
0.000395153
0.000385684
0.000376234
0.000366757
0.00035725
0.000347722
0.000338199
0.000328731
0.000319424
0.000310284
0.000301366
0.000292877
0.000284841
0.000277083
0.000269231
0.000260921
0.000252137
0.000243387
0.000235381
0.000228492
0.000222686
0.000218023
0.000214378
0.000213152
0.00020974
0.000218511
0.000248881
1.19628e-05
0.000140388
0.000502528
0.000510917
0.000520364
0.000529869
0.000538483
0.000546161
0.000551914
0.000554677
0.000554155
0.000550387
0.000543562
0.000534089
0.00052232
0.000508501
0.000492906
0.000475707
0.000457083
0.000437245
0.00041642
0.000394859
0.000372813
0.00035051
0.000328112
0.000305833
0.000283963
0.00026281
0.000242627
0.000223615
0.000205856
0.000189362
0.000174168
0.000160417
0.000148262
0.000138111
0.000130427
0.000127547
0.000128592
0.00014073
0.000174863
0.000458819
0.000451255
0.000442762
0.000433969
0.000425522
0.000416847
0.000408263
0.000399889
0.000391583
0.000383409
0.000375307
0.000367201
0.000359086
0.000350912
0.000342664
0.000334348
0.000325984
0.00031761
0.000309329
0.00030115
0.000293098
0.000285335
0.000277908
0.000270688
0.000263383
0.0002557
0.000247623
0.000239548
0.000232063
0.000225533
0.000219982
0.00021548
0.000212069
0.000210359
0.000210604
0.000204495
0.000260097
1.94434e-05
6.26174e-07
0.000465796
0.000472695
0.000480476
0.000488265
0.000495303
0.000501518
0.000506134
0.000508339
0.000507897
0.000504857
0.000499379
0.000491767
0.000482293
0.00047113
0.000458441
0.000444328
0.00042886
0.000412171
0.00039438
0.000375666
0.000356214
0.00033621
0.000315826
0.000295309
0.000274992
0.000255182
0.000236141
0.000218057
0.000201034
0.000185115
0.000170355
0.000156898
0.000144901
0.000134762
0.000126922
0.000123591
0.000124172
0.000134717
0.000165427
0.000426851
0.000420556
0.000413436
0.000406047
0.000398941
0.000391633
0.00038438
0.000377301
0.000370264
0.000363329
0.00035644
0.00034953
0.000342582
0.000335553
0.000328427
0.000321204
0.000313901
0.000306538
0.000299208
0.000291927
0.000284703
0.000277645
0.00027083
0.000264167
0.000257418
0.000250351
0.000242951
0.000235525
0.000228562
0.000222401
0.000217121
0.000212772
0.000209557
0.000207421
0.000208939
0.00020192
0.000239702
0.000153611
2.28201e-05
0.000432623
0.000438304
0.000444725
0.000451125
0.000456899
0.000461934
0.000465642
0.000467392
0.000466993
0.000464494
0.000460036
0.000453858
0.000446165
0.000437072
0.00042669
0.00041506
0.000402193
0.000388149
0.000372982
0.000356784
0.000339694
0.000321862
0.00030343
0.000284626
0.000265808
0.000247331
0.000229432
0.000212288
0.000196017
0.000180691
0.000166377
0.00015322
0.000141381
0.000131236
0.000123212
0.000119405
0.000119524
0.000128687
0.000156234
0.000397776
0.000392532
0.000386574
0.000380357
0.000374397
0.000368245
0.000362136
0.000356161
0.000350217
0.00034435
0.00033851
0.000332632
0.000326707
0.000320688
0.000314565
0.000308325
0.000301979
0.000295548
0.000289093
0.000282648
0.000276207
0.000269832
0.000263629
0.000257531
0.000251342
0.000244875
0.000238119
0.000231316
0.000224867
0.000219086
0.000214086
0.00020992
0.000206829
0.000204664
0.000205485
0.000202845
0.000216804
0.000218192
7.85876e-05
0.000402548
0.000407226
0.000412528
0.000417801
0.000422537
0.000426621
0.000429594
0.000430974
0.000430588
0.000428501
0.000424825
0.000419751
0.000413445
0.00040598
0.000397431
0.000387806
0.000377076
0.000365247
0.000352326
0.000338352
0.00032339
0.000307544
0.000290934
0.000273793
0.000256468
0.0002393
0.000222526
0.00020632
0.000190809
0.000176084
0.000162224
0.000149371
0.000137691
0.000127535
0.000119316
0.000115028
0.000114684
0.000122638
0.000147287
0.000371245
0.000366881
0.000361899
0.00035668
0.000351687
0.000346525
0.000341386
0.000336364
0.000331358
0.000326411
0.000321479
0.000316506
0.000311479
0.000306357
0.000301119
0.000295757
0.000290274
0.000284686
0.000279027
0.000273354
0.000267652
0.000261941
0.000256333
0.000250794
0.000245159
0.000239275
0.000233134
0.000226927
0.000220983
0.000215585
0.000210868
0.000206908
0.000203896
0.000201899
0.000201667
0.000202407
0.000203711
0.000225848
0.00016113
0.000375185
0.00037903
0.000383412
0.000387763
0.000391632
0.000394943
0.000397322
0.000398387
0.000398
0.000396223
0.000393152
0.00038894
0.000383717
0.000377544
0.000370461
0.000362454
0.000353478
0.000343503
0.000332493
0.000320445
0.000307388
0.000293371
0.000278473
0.000262907
0.000247011
0.000231111
0.000215441
0.000200169
0.000185424
0.000171308
0.000157911
0.000145367
0.000133844
0.000123667
0.000115235
0.00011045
0.000109641
0.000116585
0.000138639
0.000346962
0.000343341
0.00033918
0.000334809
0.000330639
0.000326321
0.000322014
0.000317808
0.000313611
0.000309459
0.000305316
0.000301127
0.000296882
0.000292542
0.000288086
0.000283505
0.000278794
0.000273966
0.000269042
0.000264089
0.000259074
0.000253997
0.000248968
0.000243977
0.000238884
0.000233562
0.000228005
0.000222366
0.000216914
0.000211901
0.000207471
0.000203723
0.000200788
0.000198928
0.000198061
0.000199817
0.000198289
0.000214012
0.000200247
0.000350209
0.000353361
0.000356979
0.000360568
0.00036372
0.00036639
0.000368283
0.000369087
0.000368689
0.000367148
0.000364541
0.000361001
0.000356638
0.000351489
0.000345581
0.000338885
0.000331343
0.000322912
0.00031353
0.000303155
0.000291771
0.000279404
0.000266098
0.000252019
0.000237475
0.000222797
0.000208208
0.00019386
0.00017988
0.000166376
0.000153445
0.00014121
0.000129843
0.000119633
0.00011097
0.000105676
0.0001044
0.000110508
0.000130273
0.000324676
0.000321679
0.00031822
0.000314564
0.000311101
0.000307502
0.000303909
0.000300405
0.000296904
0.000293439
0.000289975
0.000286467
0.000282905
0.000279249
0.000275485
0.000271595
0.000267577
0.000263437
0.000259184
0.000254881
0.000250498
0.000246022
0.000241549
0.000237085
0.00023252
0.00022774
0.000222738
0.00021764
0.000212665
0.000208034
0.000203893
0.000200358
0.000197525
0.00019571
0.000194616
0.000195981
0.000195412
0.000201434
0.000207494
0.000327346
0.000329912
0.000332894
0.000335848
0.000338405
0.000340547
0.000342037
0.00034262
0.000342202
0.000340836
0.000338599
0.000335594
0.000331909
0.000327575
0.000322607
0.000316977
0.000310616
0.000303465
0.000295453
0.000286517
0.000276614
0.000265723
0.000253861
0.000241163
0.000227913
0.000214411
0.000200866
0.000187421
0.000174196
0.000161302
0.000148837
0.000136915
0.000125698
0.000115443
0.000106529
0.000100707
9.89687e-05
0.000104417
0.000122208
0.00030417
0.000301702
0.000298835
0.000295793
0.000292932
0.000289948
0.00028697
0.000284067
0.000281167
0.000278294
0.000275422
0.000272506
0.00026954
0.000266484
0.000263324
0.000260046
0.000256641
0.000253115
0.000249468
0.000245754
0.000241953
0.000238044
0.000234099
0.00023014
0.000226082
0.000221818
0.000217341
0.000212756
0.000208241
0.000203987
0.000200137
0.00019681
0.000194095
0.000192276
0.000191131
0.000191751
0.000192259
0.000192709
0.000201581
0.000306356
0.000308434
0.00031088
0.0003133
0.00031536
0.000317066
0.000318216
0.000318613
0.000318171
0.000316941
0.00031499
0.000312407
0.000309263
0.000305587
0.000301384
0.000296615
0.00029122
0.000285137
0.00027828
0.000270573
0.000261957
0.000252384
0.000241836
0.000230418
0.000218376
0.000205991
0.000193444
0.000180875
0.000168395
0.000156108
0.000144108
0.000132499
0.000121427
0.000111115
0.000101925
9.55492e-05
9.33421e-05
9.831e-05
0.000114462
0.000285259
0.000283238
0.000280873
0.00027836
0.000276008
0.000273554
0.000271103
0.000268719
0.000266333
0.000263974
0.00026161
0.000259208
0.000256756
0.000254225
0.000251597
0.000248858
0.000245999
0.00024302
0.000239921
0.000236742
0.000233473
0.000230094
0.000226644
0.000223165
0.000219584
0.000215807
0.000211826
0.000207725
0.000203649
0.000199766
0.000196205
0.000193087
0.000190495
0.000188663
0.000187479
0.000187481
0.00018823
0.000186667
0.000192694
0.000287032
0.000288707
0.0002907
0.000292673
0.000294317
0.000295655
0.000296523
0.000296757
0.000296288
0.000295162
0.000293441
0.000291197
0.000288491
0.000285339
0.000281748
0.000277684
0.000273086
0.000267888
0.000262004
0.000255351
0.000247854
0.000239444
0.00023008
0.00021983
0.000208909
0.000197566
0.000185979
0.000174257
0.000162503
0.000150816
0.000139279
0.000127981
0.000117052
0.00010667
9.71778e-05
9.02115e-05
8.75269e-05
9.21792e-05
0.000107023
0.00026778
0.000266137
0.0002642
0.000262141
0.000260225
0.000258225
0.000256227
0.000254288
0.000252349
0.000250429
0.000248507
0.00024655
0.000244545
0.000242471
0.000240306
0.000238041
0.000235663
0.000233171
0.000230564
0.000227865
0.000225083
0.000222186
0.000219195
0.000216164
0.000213036
0.00020972
0.000206205
0.00020256
0.000198904
0.000195376
0.0001921
0.000189189
0.000186723
0.000184889
0.000183634
0.000183214
0.000183615
0.000181555
0.000184292
0.000269203
0.000270539
0.000272149
0.000273746
0.000275041
0.000276069
0.000276702
0.0002768
0.000276303
0.000275258
0.000273717
0.000271741
0.000269383
0.000266661
0.000263573
0.000260083
0.000256139
0.000251677
0.000246612
0.000240853
0.00023432
0.000226931
0.000218626
0.000209442
0.00019956
0.000189195
0.000178513
0.000167601
0.000156554
0.000145453
0.000134374
0.000123387
0.000112597
0.000102137
9.23079e-05
8.46991e-05
8.15148e-05
8.6041e-05
9.99148e-05
0.000251588
0.000250269
0.000248699
0.000247025
0.000245484
0.000243872
0.000242264
0.000240707
0.000239153
0.000237614
0.000236073
0.000234499
0.000232885
0.000231205
0.000229445
0.000227595
0.000225641
0.00022358
0.00022141
0.000219143
0.000216798
0.000214346
0.000211781
0.000209169
0.000206462
0.000203573
0.00020049
0.00019727
0.000194012
0.000190828
0.00018783
0.000185122
0.000182782
0.000180951
0.000179611
0.00017888
0.000178742
0.00017649
0.000176822
0.00025272
0.000253768
0.000255052
0.000256333
0.000257336
0.000258103
0.000258539
0.000258518
0.000257995
0.000257012
0.000255617
0.00025386
0.000251785
0.000249408
0.000246729
0.000243714
0.000240311
0.000236458
0.000232079
0.000227084
0.000221383
0.000214885
0.000207515
0.000199289
0.000190356
0.000180907
0.000171073
0.000160936
0.00015057
0.000140043
0.000129418
0.000118742
0.000108088
9.75421e-05
8.73467e-05
7.90243e-05
7.52986e-05
7.98984e-05
9.31368e-05
0.000236562
0.000235519
0.000234263
0.000232918
0.000231699
0.000230421
0.000229145
0.000227919
0.000226694
0.000225485
0.000224272
0.000223029
0.000221752
0.000220416
0.00021901
0.00021752
0.000215937
0.000214256
0.000212473
0.000210595
0.000208643
0.000206589
0.000204419
0.000202192
0.000199872
0.000197379
0.000194697
0.000191874
0.000188987
0.000186132
0.000183402
0.000180893
0.000178677
0.000176863
0.000175428
0.000174441
0.000173788
0.000171278
0.000169974
0.00023745
0.000238256
0.000239264
0.000240276
0.000241033
0.00024158
0.000241848
0.00024173
0.000241184
0.000240248
0.000238969
0.000237389
0.000235547
0.000233454
0.000231108
0.000228481
0.000225525
0.000222186
0.000218382
0.000214032
0.000209046
0.000203328
0.000196787
0.000189425
0.000181357
0.000172749
0.000163711
0.000154306
0.000144592
0.000134624
0.000124445
0.000114081
0.000103568
9.29324e-05
8.23364e-05
7.32027e-05
6.88621e-05
7.37707e-05
8.671e-05
0.000222597
0.000221786
0.000220801
0.000219735
0.000218791
0.0002178
0.00021681
0.000215868
0.000214926
0.000214
0.00021307
0.000212114
0.000211125
0.000210087
0.000208985
0.00020781
0.000206552
0.000205204
0.000203765
0.000202233
0.000200633
0.000198936
0.000197124
0.000195248
0.000193282
0.000191155
0.000188842
0.000186386
0.000183846
0.000181299
0.000178828
0.000176514
0.000174415
0.000172627
0.000171107
0.00016989
0.000168793
0.000165972
0.0001635
0.000223275
0.000223878
0.000224654
0.000225438
0.000225988
0.000226352
0.000226478
0.000226277
0.000225709
0.000224812
0.000223626
0.000222191
0.000220537
0.000218679
0.00021661
0.000214306
0.000211721
0.000208806
0.000205488
0.000201686
0.000197312
0.000192269
0.00018646
0.000179869
0.000172586
0.00016475
0.000156451
0.000147737
0.000138648
0.000129224
0.000119488
0.000109439
9.90776e-05
8.83594e-05
7.73346e-05
6.72592e-05
6.21709e-05
6.76823e-05
8.06507e-05
0.000209594
0.000208982
0.000208225
0.000207401
0.000206691
0.000205945
0.000205201
0.000204502
0.000203803
0.000203119
0.000202432
0.000201722
0.000200984
0.000200203
0.000199366
0.000198465
0.000197489
0.000196433
0.000195294
0.000194069
0.000192779
0.000191402
0.000189912
0.000188356
0.000186712
0.000184913
0.000182939
0.000180819
0.000178601
0.000176344
0.000174117
0.000171991
0.000170012
0.000168247
0.000166661
0.000165229
0.000163756
0.000160631
0.000157281
0.000210093
0.000210528
0.000211109
0.000211696
0.000212074
0.000212286
0.000212293
0.00021202
0.000211434
0.000210569
0.000209463
0.000208146
0.000206649
0.000204982
0.000203143
0.000201106
0.000198832
0.000196272
0.000193363
0.000190027
0.00018618
0.000181723
0.000176556
0.00017065
0.000164072
0.000156944
0.000149332
0.000141268
0.000132777
0.00012388
0.000114583
0.000104858
9.46646e-05
8.38823e-05
7.24166e-05
6.12356e-05
5.51695e-05
6.16872e-05
7.49912e-05
0.000197468
0.000197027
0.000196463
0.000195847
0.000195338
0.000194799
0.000194268
0.000193776
0.000193287
0.00019281
0.000192332
0.000191833
0.000191311
0.00019075
0.000190141
0.000189473
0.000188743
0.000187942
0.000187066
0.00018611
0.000185095
0.000184
0.000182799
0.000181529
0.000180175
0.000178675
0.000177007
0.000175193
0.000173269
0.000171282
0.000169287
0.000167338
0.000165475
0.000163744
0.000162098
0.000160482
0.000158688
0.000155308
0.000151293
0.000197818
0.000198111
0.000198529
0.000198948
0.000199182
0.000199267
0.000199175
0.000198843
0.000198243
0.000197404
0.000196362
0.000195147
0.000193782
0.000192275
0.000190626
0.000188811
0.000186795
0.000184538
0.000181975
0.000179035
0.000175638
0.000171688
0.000167084
0.000161788
0.00015585
0.000149364
0.000142386
0.000134931
0.00012701
0.000118625
0.000109766
0.000100378
9.038e-05
7.95754e-05
6.76889e-05
5.52169e-05
4.77572e-05
5.58778e-05
6.97778e-05
0.000186147
0.00018585
0.000185452
0.000185011
0.000184672
0.000184313
0.000183962
0.000183647
0.000183338
0.000183038
0.000182738
0.00018242
0.000182081
0.000181709
0.000181295
0.000180833
0.000180314
0.000179732
0.000179084
0.000178364
0.000177589
0.000176742
0.000175799
0.000174784
0.000173687
0.000172454
0.000171062
0.000169524
0.000167868
0.00016613
0.000164349
0.000162571
0.000160819
0.000159125
0.000157434
0.000155668
0.000153601
0.00015001
0.00014552
0.00018637
0.000186543
0.000186824
0.000187104
0.000187216
0.000187197
0.000187023
0.000186643
0.000186032
0.000185216
0.000184232
0.000183098
0.000181843
0.000180473
0.000178985
0.000177358
0.00017556
0.000173555
0.000171285
0.000168683
0.000165674
0.000162166
0.000158056
0.000153299
0.000147934
0.000142035
0.000135642
0.000128758
0.000121379
0.000113494
0.000105073
9.60444e-05
8.62823e-05
7.55221e-05
6.32892e-05
4.93744e-05
3.97236e-05
5.0428e-05
6.50663e-05
0.000175562
0.000175387
0.000175129
0.000174838
0.000174645
0.000174438
0.000174239
0.000174076
0.000173919
0.00017377
0.000173622
0.000173458
0.000173277
0.000173067
0.00017282
0.000172532
0.000172194
0.000171801
0.00017135
0.000170837
0.000170271
0.000169641
0.000168922
0.000168132
0.000167262
0.000166266
0.00016512
0.00016383
0.000162417
0.000160905
0.000159323
0.000157703
0.00015606
0.000154407
0.000152685
0.000150794
0.00014851
0.000144767
0.000139947
0.000175679
0.000175753
0.000175919
0.000176081
0.000176093
0.000175987
0.000175747
0.000175329
0.000174711
0.000173917
0.00017298
0.000171921
0.000170759
0.000169503
0.00016815
0.000166682
0.000165071
0.000163281
0.00016126
0.000158949
0.000156276
0.000153149
0.000149473
0.000145196
0.000140344
0.000134979
0.000129125
0.000122775
0.000115914
0.000108519
0.000100544
9.18966e-05
8.24247e-05
7.18065e-05
5.93868e-05
4.407e-05
3.06251e-05
4.56386e-05
6.09274e-05
0.000165655
0.000165582
0.000165442
0.000165279
0.000165208
0.00016513
0.000165063
0.000165028
0.000165
0.00016498
0.000164961
0.000164928