/*--------------------------------*- C++ -*----------------------------------*\
| =========                 |                                                 |
| \\      /  F ield         | OpenFOAM: The Open Source CFD Toolbox           |
|  \\    /   O peration     | Version:  2306                                  |
|   \\  /    A nd           | Website:  www.openfoam.com                      |
|    \\/     M anipulation  |                                                 |
\*---------------------------------------------------------------------------*/
FoamFile
{
    version     2.0;
    format      ascii;
    arch        "LSB;label=32;scalar=64";
    class       volScalarField;
    location    "0.003";
    object      alphat;
}
// * * * * * * * * * * * * * * * * * * * * * * * * * * * * * * * * * * * * * //

dimensions      [1 -1 -1 0 0 0 0];

internalField   nonuniform List<scalar> 
20000
(
0.00046593672
0.001163197
0.0015439403
0.001666283
0.0014662676
0.00080563445
5.5387108e-05
1.7638106e-08
1.1039781e-08
1.0335088e-08
9.9925065e-09
9.5590793e-09
9.1934274e-09
8.877881e-09
8.7674444e-09
8.826535e-09
8.9364264e-09
8.9412456e-09
8.8357833e-09
8.7126719e-09
8.6142772e-09
8.5630785e-09
8.5534159e-09
8.5612242e-09
8.5745189e-09
8.5880146e-09
8.6022082e-09
8.6180212e-09
8.631126e-09
8.6392269e-09
8.6414474e-09
8.6388653e-09
8.6343599e-09
8.6315038e-09
8.6353047e-09
8.6442018e-09
8.657098e-09
8.6795909e-09
8.6935145e-09
8.6941188e-09
8.6522834e-09
8.608896e-09
8.5849121e-09
8.5754222e-09
8.5726651e-09
8.5720617e-09
8.5719608e-09
8.5719488e-09
8.5719479e-09
8.5719478e-09
0.00046290455
0.0011482004
0.0015149624
0.0016222255
0.0014058016
0.00071691643
2.8315052e-05
1.4979485e-08
1.0949302e-08
1.0278081e-08
9.9577623e-09
9.549967e-09
9.2022027e-09
8.8871695e-09
8.766967e-09
8.8033959e-09
8.9267013e-09
8.9432915e-09
8.8500873e-09
8.7324585e-09
8.6329033e-09
8.576188e-09
8.5613846e-09
8.567864e-09
8.5806872e-09
8.592826e-09
8.603956e-09
8.6174867e-09
8.6296917e-09
8.6376892e-09
8.6401774e-09
8.6378052e-09
8.6334416e-09
8.6309529e-09
8.6350436e-09
8.6442193e-09
8.656247e-09
8.6799039e-09
8.6947445e-09
8.6954165e-09
8.6536914e-09
8.6100548e-09
8.5855008e-09
8.5757023e-09
8.572747e-09
8.5720788e-09
8.5719634e-09
8.5719491e-09
8.5719479e-09
8.5719478e-09
0.00046018193
0.001134071
0.001486437
0.0015772619
0.0013436088
0.00062766881
1.2200333e-05
1.3374165e-08
1.0853594e-08
1.0215952e-08
9.9166457e-09
9.5345977e-09
9.2064799e-09
8.8961007e-09
8.7667833e-09
8.7858075e-09
8.9151559e-09
8.9419043e-09
8.8615325e-09
8.750653e-09
8.651441e-09
8.5908788e-09
8.5709952e-09
8.5755457e-09
8.587527e-09
8.5984071e-09
8.6076645e-09
8.6181661e-09
8.6289982e-09
8.6366049e-09
8.6392444e-09
8.6370881e-09
8.6329284e-09
8.6307623e-09
8.6352172e-09
8.6445094e-09
8.655905e-09
8.6804559e-09
8.6962301e-09
8.6970203e-09
8.6546397e-09
8.6109498e-09
8.586088e-09
8.5759602e-09
8.5728275e-09
8.5720948e-09
8.5719657e-09
8.5719493e-09
8.5719479e-09
8.5719478e-09
0.00045747918
0.001120099
0.0014580419
0.0015315543
0.0012809998
0.00054363347
4.8080219e-06
1.240087e-08
1.0765434e-08
1.0155173e-08
9.8754899e-09
9.5175335e-09
9.2096322e-09
8.906017e-09
8.766658e-09
8.7711951e-09
8.9013913e-09
8.9371798e-09
8.8714672e-09
8.7679968e-09
8.670094e-09
8.6065914e-09
8.5822817e-09
8.5841156e-09
8.5949577e-09
8.6048488e-09
8.6124683e-09
8.6199358e-09
8.6288988e-09
8.6357805e-09
8.6384235e-09
8.6364608e-09
8.6325061e-09
8.6307033e-09
8.6354942e-09
8.6446296e-09
8.6559084e-09
8.680907e-09
8.69763e-09
8.6994251e-09
8.6557996e-09
8.6118022e-09
8.5866409e-09
8.5761915e-09
8.5728987e-09
8.5721099e-09
8.5719679e-09
8.5719495e-09
8.5719479e-09
8.5719478e-09
0.00045490261
0.0011066055
0.0014304199
0.0014856066
0.0012170896
0.00046405241
1.8102595e-06
1.1789975e-08
1.0683179e-08
1.0094629e-08
9.8334044e-09
9.4982088e-09
9.2110543e-09
8.9165051e-09
8.7660592e-09
8.7526105e-09
8.8822642e-09
8.9258353e-09
8.8795673e-09
8.7842057e-09
8.6885647e-09
8.6228177e-09
8.5946787e-09
8.5933748e-09
8.6026556e-09
8.6116989e-09
8.6177975e-09
8.6230055e-09
8.6295308e-09
8.6353252e-09
8.6378228e-09
8.6360393e-09
8.6323154e-09
8.6309064e-09
8.6360221e-09
8.644949e-09
8.6561892e-09
8.6815769e-09
8.6989637e-09
8.7017035e-09
8.6569356e-09
8.6125473e-09
8.5871225e-09
8.5763922e-09
8.5729592e-09
8.5721227e-09
8.5719699e-09
8.5719497e-09
8.5719479e-09
8.5719478e-09
0.00045241363
0.0010933587
0.001403601
0.0014426609
0.0011511059
0.00038894079
6.9031069e-07
1.1388341e-08
1.0599897e-08
1.0034989e-08
9.7910962e-09
9.4771969e-09
9.2108626e-09
8.9275842e-09
8.7650237e-09
8.7340262e-09
8.8582763e-09
8.91315e-09
8.8859188e-09
8.7993262e-09
8.7068499e-09
8.6394798e-09
8.6078068e-09
8.6032532e-09
8.6107412e-09
8.6188872e-09
8.6237174e-09
8.6272364e-09
8.6308609e-09
8.6351621e-09
8.637341e-09
8.635722e-09
8.6322633e-09
8.6312992e-09
8.6367411e-09
8.6454876e-09
8.6565704e-09
8.6824737e-09
8.7002111e-09
8.7036482e-09
8.6581941e-09
8.6132378e-09
8.5875425e-09
8.5765669e-09
8.5730117e-09
8.5721338e-09
8.5719716e-09
8.5719499e-09
8.5719479e-09
8.5719478e-09
0.00044996725
0.001080012
0.0013763662
0.0013963579
0.0010818384
0.00031866895
2.8017507e-07
1.1110799e-08
1.0518564e-08
9.976463e-09
9.7488272e-09
9.4547447e-09
9.2088928e-09
8.9383275e-09
8.7650324e-09
8.7203532e-09
8.832059e-09
8.9012461e-09
8.8904776e-09
8.8132684e-09
8.7248305e-09
8.6564857e-09
8.6215332e-09
8.6137294e-09
8.6192028e-09
8.6263252e-09
8.6300887e-09
8.6317615e-09
8.6330784e-09
8.6354044e-09
8.6369686e-09
8.6354699e-09
8.6323095e-09
8.6318532e-09
8.6376666e-09
8.6462653e-09
8.6570512e-09
8.6835875e-09
8.7015091e-09
8.7053675e-09
8.6596206e-09
8.6139027e-09
8.5879022e-09
8.5767136e-09
8.5730562e-09
8.5721433e-09
8.5719728e-09
8.57195e-09
8.5719479e-09
8.5719478e-09
0.00044758607
0.0010665635
0.0013483402
0.0013506697
0.001009668
0.00025396699
1.2628453e-07
1.0907502e-08
1.0439466e-08
9.9194174e-09
9.7068973e-09
9.4311818e-09
9.2050518e-09
8.9480166e-09
8.7675069e-09
8.7121836e-09
8.8087105e-09
8.8891058e-09
8.8940557e-09
8.8259696e-09
8.7424132e-09
8.673792e-09
8.6358736e-09
8.6248267e-09
8.6280656e-09
8.6339919e-09
8.636737e-09
8.6367106e-09
8.636233e-09
8.6361648e-09
8.6367486e-09
8.6352982e-09
8.6324238e-09
8.6324928e-09
8.6387706e-09
8.6473092e-09
8.6578549e-09
8.6849354e-09
8.7029492e-09
8.7068856e-09
8.6608809e-09
8.6145783e-09
8.5882102e-09
8.5768344e-09
8.573091e-09
8.5721493e-09
8.5719735e-09
8.57195e-09
8.5719479e-09
8.5719478e-09
0.00044533618
0.0010533414
0.0013205682
0.0013045855
0.00093411526
0.00019675031
6.4688079e-08
1.0749425e-08
1.0363187e-08
9.8641385e-09
9.6655566e-09
9.4068157e-09
9.1993663e-09
8.9563686e-09
8.7729215e-09
8.708243e-09
8.7884577e-09
8.8771679e-09
8.8973421e-09
8.8373554e-09
8.7595666e-09
8.6914142e-09
8.6508863e-09
8.6366001e-09
8.637377e-09
8.6418825e-09
8.6435865e-09
8.6420543e-09
8.6396339e-09
8.637554e-09
8.6367199e-09
8.6352137e-09
8.6326311e-09
8.6332282e-09
8.6400168e-09
8.6485609e-09
8.6589357e-09
8.6866028e-09
8.7046153e-09
8.7082872e-09
8.6618955e-09
8.6152974e-09
8.5884764e-09
8.5769185e-09
8.5731091e-09
8.5721523e-09
8.5719739e-09
8.5719501e-09
8.5719479e-09
8.5719478e-09
0.00044316364
0.0010401001
0.0012927138
0.0012586214
0.00085567
0.00014040259
3.7434682e-08
1.0620173e-08
1.0290072e-08
9.8109059e-09
9.625023e-09
9.3819622e-09
9.1919988e-09
8.9633565e-09
8.7808028e-09
8.7086345e-09
8.7705719e-09
8.8683602e-09
8.8983996e-09
8.8474054e-09
8.7761119e-09
8.7092015e-09
8.6664959e-09
8.6490349e-09
8.6471586e-09
8.6499952e-09
8.6505819e-09
8.647653e-09
8.6433767e-09
8.6395144e-09
8.6369953e-09
8.635244e-09
8.6329578e-09
8.6340735e-09
8.6413823e-09
8.6499736e-09
8.6602672e-09
8.6884978e-09
8.7065424e-09
8.7096683e-09
8.6626913e-09
8.6158011e-09
8.5886768e-09
8.5769635e-09
8.5731164e-09
8.5721536e-09
8.5719741e-09
8.5719501e-09
8.5719479e-09
8.5719478e-09
0.00044104712
0.0010266325
0.0012643158
0.0012112126
0.0007747842
8.9677371e-05
2.4782266e-08
1.0510082e-08
1.0220304e-08
9.7598703e-09
9.5854729e-09
9.3569149e-09
9.1832291e-09
8.9692449e-09
8.7900406e-09
8.7123294e-09
8.7539697e-09
8.8597495e-09
8.8941596e-09
8.8561327e-09
8.7919334e-09
8.7270486e-09
8.6826434e-09
8.6621216e-09
8.6574327e-09
8.6583432e-09
8.6576724e-09
8.6533978e-09
8.6474412e-09
8.641835e-09
8.6376878e-09
8.6353976e-09
8.6334157e-09
8.635039e-09
8.6428632e-09
8.6515331e-09
8.6618268e-09
8.6905478e-09
8.7087107e-09
8.7111117e-09
8.6632724e-09
8.61601e-09
8.5887786e-09
8.5769946e-09
8.5731195e-09
8.5721537e-09
8.5719741e-09
8.5719501e-09
8.5719479e-09
8.5719478e-09
0.00043893973
0.001012782
0.0012348667
0.0011617578
0.00069258436
4.9055519e-05
1.8490062e-08
1.0413156e-08
1.0153973e-08
9.7111756e-09
9.5470758e-09
9.3319621e-09
9.1733604e-09
8.97427e-09
8.8000149e-09
8.7167132e-09
8.7407923e-09
8.8486399e-09
8.8863358e-09
8.8635352e-09
8.8069147e-09
8.744832e-09
8.6992479e-09
8.6758298e-09
8.6682105e-09
8.666936e-09
8.6648113e-09
8.6592099e-09
8.6516987e-09
8.6444184e-09
8.6388139e-09
8.6356871e-09
8.6340046e-09
8.636138e-09
8.6444538e-09
8.6532137e-09
8.6636078e-09
8.6928092e-09
8.711115e-09
8.7125875e-09
8.6636364e-09
8.6160563e-09
8.5887848e-09
8.5769877e-09
8.5731156e-09
8.5721515e-09
8.5719736e-09
8.57195e-09
8.5719479e-09
8.5719478e-09
0.00043686927
0.00099871753
0.0012042135
0.001112928
0.00061022076
2.2540899e-05
1.5174556e-08
1.0325489e-08
1.0091021e-08
9.664891e-09
9.5099808e-09
9.3073468e-09
9.1626661e-09
8.9785401e-09
8.8105149e-09
8.7214983e-09
8.7317623e-09
8.8349142e-09
8.8788859e-09
8.8695433e-09
8.8209383e-09
8.7624071e-09
8.7162017e-09
8.6901032e-09
8.6794854e-09
8.6757739e-09
8.671945e-09
8.6650142e-09
8.6560219e-09
8.6471784e-09
8.6402404e-09
8.636161e-09
8.6347103e-09
8.6373738e-09
8.6461528e-09
8.655016e-09
8.6656244e-09
8.6953006e-09
8.7137803e-09
8.7140453e-09
8.6637462e-09
8.6159573e-09
8.5886702e-09
8.576932e-09
8.5730968e-09
8.572147e-09
8.5719729e-09
8.57195e-09
8.5719479e-09
8.5719478e-09
0.00043485485
0.00098474016
0.0011737858
0.0010638793
0.00052893128
8.9328777e-06
1.3348777e-08
1.0244853e-08
1.0031416e-08
9.6211127e-09
9.4743859e-09
9.2833135e-09
9.1513968e-09
8.9821042e-09
8.8216282e-09
8.7263615e-09
8.7212976e-09
8.8176996e-09
8.8723033e-09
8.8742303e-09
8.8339116e-09
8.7796367e-09
8.7333918e-09
8.7048727e-09
8.6912412e-09
8.6848642e-09
8.6790557e-09
8.6707313e-09
8.6603157e-09
8.6500197e-09
8.6418784e-09
8.6369065e-09
8.6355164e-09
8.6387434e-09
8.6479562e-09
8.6569482e-09
8.6679074e-09
8.6980411e-09
8.7167015e-09
8.7154586e-09
8.6636751e-09
8.615664e-09
8.588453e-09
8.5768308e-09
8.5730629e-09
8.572139e-09
8.5719716e-09
8.5719498e-09
8.5719479e-09
8.5719478e-09
0.00043285874
0.00097075014
0.0011436584
0.0010135285
0.00045106189
3.2358354e-06
1.2305356e-08
1.017006e-08
9.9749679e-09
9.5798635e-09
9.440443e-09
9.2600338e-09
9.1397378e-09
8.9849231e-09
8.8333339e-09
8.7311844e-09
8.7137249e-09
8.8014829e-09
8.8658523e-09
8.8790781e-09
8.8458057e-09
8.7964508e-09
8.7507623e-09
8.7201167e-09
8.7034886e-09
8.694234e-09
8.6861934e-09
8.6763326e-09
8.6645227e-09
8.6528704e-09
8.6436714e-09
8.6379004e-09
8.6364169e-09
8.6402339e-09
8.6498443e-09
8.6589948e-09
8.6704529e-09
8.7009764e-09
8.7198532e-09
8.7168106e-09
8.6634057e-09
8.6152093e-09
8.5881447e-09
8.5766925e-09
8.573018e-09
8.5721285e-09
8.5719699e-09
8.5719497e-09
8.5719479e-09
8.5719478e-09
0.00043080534
0.00095624046
0.0011123521
0.00096086227
0.00037777132
1.1418834e-06
1.1687217e-08
1.0100557e-08
9.921467e-09
9.5411193e-09
9.4082916e-09
9.2376741e-09
9.127877e-09
8.9869394e-09
8.8449184e-09
8.7371762e-09
8.7110729e-09
8.7880918e-09
8.8593209e-09
8.884123e-09
8.8565593e-09
8.8126567e-09
8.7681158e-09
8.7357002e-09
8.7161533e-09
8.7038706e-09
8.6933811e-09
8.6817934e-09
8.6685824e-09
8.6556573e-09
8.645553e-09
8.6390917e-09
8.6374645e-09
8.6418617e-09
8.6518304e-09
8.6611495e-09
8.6732482e-09
8.7041414e-09
8.7232415e-09
8.7180438e-09
8.662894e-09
8.6145895e-09
8.5877549e-09
8.5765228e-09
8.5729641e-09
8.5721162e-09
8.5719679e-09
8.5719494e-09
8.5719479e-09
8.5719478e-09
0.0004286883
0.00094139797
0.0010801722
0.00090550695
0.00030859945
4.1882622e-07
1.130001e-08
1.0035918e-08
9.8708127e-09
9.5047377e-09
9.3780782e-09
9.2163957e-09
9.1160164e-09
8.9881143e-09
8.8558547e-09
8.7454234e-09
8.7128178e-09
8.7773035e-09
8.8528629e-09
8.8848347e-09
8.8662332e-09
8.8281574e-09
8.7853281e-09
8.7515248e-09
8.7291594e-09
8.7137643e-09
8.7006358e-09
8.6871162e-09
8.6724636e-09
8.6583195e-09
8.6474375e-09
8.6404121e-09
8.6387079e-09
8.6436196e-09
8.6539177e-09
8.6633944e-09
8.6762567e-09
8.7077217e-09
8.7268772e-09
8.7191242e-09
8.6620958e-09
8.6137825e-09
8.5872773e-09
8.576323e-09
8.5729028e-09
8.5721027e-09
8.5719659e-09
8.5719492e-09
8.5719479e-09
8.5719478e-09
0.00042655819
0.00092646076
0.0010472156
0.00084862696
0.00024353645
1.6821912e-07
1.1043626e-08
9.9757955e-09
9.822874e-09
9.47088e-09
9.3498729e-09
9.1963397e-09
9.1043325e-09
8.9884949e-09
8.8659739e-09
8.756173e-09
8.7181038e-09
8.7686927e-09
8.8470198e-09
8.883135e-09
8.874877e-09
8.8428315e-09
8.8022369e-09
8.7674463e-09
8.7423907e-09
8.7238866e-09
8.7079491e-09
8.6923024e-09
8.6761404e-09
8.6608164e-09
8.6492534e-09
8.6418077e-09
8.6401086e-09
8.6454947e-09
8.656106e-09
8.6657171e-09
8.6794437e-09
8.7117394e-09
8.7307783e-09
8.7200325e-09
8.660998e-09
8.6127789e-09
8.5867081e-09
8.5760936e-09
8.5728351e-09
8.5720883e-09
8.5719637e-09
8.571949e-09
8.5719479e-09
8.5719478e-09
0.00042448072
0.0009117665
0.0010137519
0.00078914748
0.00018291648
7.7252066e-08
1.0862105e-08
9.9196954e-09
9.7776116e-09
9.439402e-09
9.3236825e-09
9.177633e-09
9.0930247e-09
8.9882483e-09
8.8754715e-09
8.7686661e-09
8.7272124e-09
8.7620026e-09
8.8409732e-09
8.8812175e-09
8.8824953e-09
8.8566351e-09
8.8187672e-09
8.7833832e-09
8.7557806e-09
8.7342158e-09
8.7153416e-09
8.6973853e-09
8.6796345e-09
8.6631438e-09
8.6509625e-09
8.6432318e-09
8.6416206e-09
8.64747e-09
8.6583937e-09
8.6681186e-09
8.6827987e-09
8.7160997e-09
8.7349019e-09
8.720745e-09
8.6596508e-09
8.6116208e-09
8.586071e-09
8.5758448e-09
8.5727641e-09
8.5720737e-09
8.5719616e-09
8.5719488e-09
8.5719479e-09
8.5719478e-09
0.00042253941
0.0008976474
0.00098143651
0.00072630702
0.00012923781
4.1462404e-08
1.0724287e-08
9.8672824e-09
9.7349036e-09
9.4102632e-09
9.299504e-09
9.1603673e-09
9.0822623e-09
8.9875933e-09
8.8845866e-09
8.7822046e-09
8.7371145e-09
8.7587827e-09
8.8342473e-09
8.8800747e-09
8.8892477e-09
8.8694948e-09
8.8347479e-09
8.7991485e-09
8.7691881e-09
8.7446606e-09
8.7228006e-09
8.7023857e-09
8.682949e-09
8.6653133e-09
8.6525518e-09
8.6446475e-09
8.6432051e-09
8.6495645e-09
8.6607964e-09
8.6706213e-09
8.6863676e-09
8.7206493e-09
8.7391976e-09
8.7212152e-09
8.6580889e-09
8.6103382e-09
8.5853821e-09
8.5755816e-09
8.5726911e-09
8.5720592e-09
8.5719596e-09
8.5719486e-09
8.5719478e-09
8.5719478e-09
0.00042072271
0.00088381505
0.00095193491
0.00066005946
8.0952086e-05
2.57754e-08
1.0612157e-08
9.8182029e-09
9.6946486e-09
9.3833591e-09
9.2772779e-09
9.1446032e-09
9.0722129e-09
8.9867502e-09
8.8934628e-09
8.7964973e-09
8.7475758e-09
8.7573321e-09
8.8290671e-09
8.8794939e-09
8.896621e-09
8.8813811e-09
8.8500382e-09
8.8145472e-09
8.7824852e-09
8.7550925e-09
8.7302704e-09
8.7072931e-09
8.6860738e-09
8.6673125e-09
8.6540103e-09
8.6460283e-09
8.6448255e-09
8.6518071e-09
8.6633936e-09
8.673354e-09
8.6902936e-09
8.7253703e-09
8.7435852e-09
8.7213948e-09
8.6562813e-09
8.6089383e-09
8.5846561e-09
8.5753119e-09
8.5726185e-09
8.5720454e-09
8.5719578e-09
8.5719485e-09
8.5719478e-09
8.5719479e-09
0.00041895012
0.00086953787
0.00091969141
0.00059048379
4.3423997e-05
1.8334054e-08
1.0515432e-08
9.7722233e-09
9.6567657e-09
9.3586056e-09
9.2568705e-09
9.1304284e-09
9.0630352e-09
8.9859104e-09
8.9021291e-09
8.8115435e-09
8.7583023e-09
8.7590178e-09
8.8257585e-09
8.8793424e-09
8.9019401e-09
8.8922874e-09
8.8645171e-09
8.8294228e-09
8.7955174e-09
8.7653727e-09
8.7376682e-09
8.7120778e-09
8.6889789e-09
8.6691264e-09
8.6553424e-09
8.6473798e-09
8.6464845e-09
8.6541392e-09
8.6662299e-09
8.6764742e-09
8.6947145e-09
8.7302234e-09
8.7480475e-09
8.7211578e-09
8.6541578e-09
8.6073872e-09
8.5838838e-09
8.5750347e-09
8.5725464e-09
8.5720321e-09
8.5719562e-09
8.5719483e-09
8.5719478e-09
8.5719479e-09
0.00041738078
0.00085545124
0.00088826118
0.00051910319
1.9565752e-05
1.4542726e-08
1.0427118e-08
9.7290929e-09
9.6211529e-09
9.3358935e-09
9.2384266e-09
9.117935e-09
9.0548721e-09
8.9852346e-09
8.9105483e-09
8.8269438e-09
8.7698925e-09
8.7643311e-09
8.8239921e-09
8.8792827e-09
8.9058431e-09
8.9022206e-09
8.8780609e-09
8.8436295e-09
8.808146e-09
8.775378e-09
8.7449083e-09
8.7167105e-09
8.69165e-09
8.6707503e-09
8.6565657e-09
8.6487287e-09
8.6482461e-09
8.6565264e-09
8.6692549e-09
8.6800248e-09
8.699692e-09
8.7351505e-09
8.7524766e-09
8.7202555e-09
8.6517049e-09
8.6056898e-09
8.5830731e-09
8.5747551e-09
8.5724765e-09
8.5720198e-09
8.5719547e-09
8.5719482e-09
8.5719478e-09
8.5719479e-09
0.00041587502
0.00084115063
0.00085582511
0.00044743725
7.6836619e-06
1.2515155e-08
1.0346228e-08
9.6888515e-09
9.5878557e-09
9.315263e-09
9.2219236e-09
9.1071363e-09
9.0478508e-09
8.9848789e-09
8.9186794e-09
8.8422277e-09
8.7833963e-09
8.7732593e-09
8.8238167e-09
8.8795567e-09
8.9094611e-09
8.9112e-09
8.8905423e-09
8.8570228e-09
8.8201981e-09
8.7849636e-09
8.7518892e-09
8.7211606e-09
8.6940886e-09
8.6721888e-09
8.6576968e-09
8.6500807e-09
8.650171e-09
8.6589953e-09
8.672355e-09
8.6838775e-09
8.7051468e-09
8.7400986e-09
8.7567382e-09
8.7186551e-09
8.6489589e-09
8.6038714e-09
8.5822372e-09
8.5744773e-09
8.5724099e-09
8.5720086e-09
8.5719534e-09
8.5719481e-09
8.5719478e-09
8.5719479e-09
0.0004143004
0.00082527639
0.00082221589
0.00038002912
2.796381e-06
1.1386019e-08
1.0284704e-08
9.6516189e-09
9.5567995e-09
9.2966485e-09
9.2073184e-09
9.0979364e-09
9.042054e-09
8.9849755e-09
8.9265292e-09
8.8572266e-09
8.7992246e-09
8.7856049e-09
8.8256077e-09
8.8806566e-09
8.9132664e-09
8.9192984e-09
8.9018749e-09
8.8694466e-09
8.8314828e-09
8.7939566e-09
8.7584697e-09
8.725368e-09
8.6962879e-09
8.6734371e-09
8.6587396e-09
8.6514184e-09
8.6522833e-09
8.6616172e-09
8.6754786e-09
8.6879328e-09
8.7110096e-09
8.7450637e-09
8.7607471e-09
8.7163732e-09
8.6459674e-09
8.6019601e-09
8.5813903e-09
8.5742056e-09
8.5723473e-09
8.5719986e-09
8.5719523e-09
8.571948e-09
8.5719478e-09
8.5719479e-09
0.00041259732
0.00080796169
0.00078658087
0.00031592215
9.9975273e-07
1.0737801e-08
1.0224004e-08
9.6169443e-09
9.5279254e-09
9.279989e-09
9.1945614e-09
9.090457e-09
9.0375219e-09
8.9856586e-09
8.9342204e-09
8.8721552e-09
8.8167911e-09
8.8009748e-09
8.8296713e-09
8.8828943e-09
8.9173083e-09
8.9266351e-09
8.9120394e-09
8.8807745e-09
8.841853e-09
8.8022048e-09
8.7645056e-09
8.7292534e-09
8.6982413e-09
8.6745059e-09
8.6597054e-09
8.6527406e-09
8.6545796e-09
8.6644745e-09
8.6786663e-09
8.6921699e-09
8.7173531e-09
8.7500164e-09
8.7644683e-09
8.7134144e-09
8.6427564e-09
8.5999893e-09
8.5805501e-09
8.573947e-09
8.5722904e-09
8.5719898e-09
8.5719514e-09
8.571948e-09
8.5719478e-09
8.5719479e-09
0.00041059725
0.0007886649
0.00074748735
0.00025464933
3.7485711e-07
1.0346893e-08
1.0170315e-08
9.5848746e-09
9.5011841e-09
9.2652354e-09
9.1836221e-09
9.0846443e-09
9.0343877e-09
8.9870057e-09
8.9419409e-09
8.8871863e-09
8.8355822e-09
8.8170769e-09
8.8362709e-09
8.8864759e-09
8.9216509e-09
8.9333223e-09
8.9210605e-09
8.8909128e-09
8.8511856e-09
8.8095793e-09
8.7698599e-09
8.7327246e-09
8.6999366e-09
8.6753983e-09
8.6606321e-09
8.6540872e-09
8.6570539e-09
8.6676463e-09
8.6819506e-09
8.696544e-09
8.7242223e-09
8.7549171e-09
8.767706e-09
8.7098052e-09
8.6393295e-09
8.5979876e-09
8.5797304e-09
8.5737052e-09
8.5722395e-09
8.5719824e-09
8.5719506e-09
8.5719479e-09
8.5719478e-09
8.5719479e-09
0.00040823461
0.00076712344
0.00070098965
0.00019644557
1.5504498e-07
1.0102329e-08
1.0127164e-08
9.5553509e-09
9.4765242e-09
9.2523415e-09
9.1744614e-09
9.0805058e-09
9.0326762e-09
8.9892386e-09
8.9498919e-09
8.9023648e-09
8.8553517e-09
8.8337732e-09
8.8456495e-09
8.89159e-09
8.926493e-09
8.9395095e-09
8.9290268e-09
8.8997841e-09
8.8593767e-09
8.8159743e-09
8.7744077e-09
8.7356704e-09
8.7013441e-09
8.6761325e-09
8.661531e-09
8.6555131e-09
8.6596861e-09
8.6712078e-09
8.6853667e-09
8.7010354e-09
8.7316078e-09
8.7598187e-09
8.7702804e-09
8.7055584e-09
8.6357157e-09
8.5959834e-09
8.5789424e-09
8.5734818e-09
8.5721943e-09
8.571976e-09
8.57195e-09
8.5719479e-09
8.5719478e-09
8.5719479e-09
0.00040561643
0.00074425466
0.00064889446
0.00014273327
7.3673595e-08
9.9432769e-09
1.0051303e-08
9.5277481e-09
9.4539395e-09
9.2412871e-09
9.1670737e-09
9.0780374e-09
9.0324551e-09
8.9924767e-09
8.9582164e-09
8.9176435e-09
8.8758283e-09
8.8512939e-09
8.8579808e-09
8.8984052e-09
8.9320678e-09
8.945424e-09
8.9360248e-09
8.9073806e-09
8.8663634e-09
8.8213236e-09
8.7780594e-09
8.7379924e-09
8.7024252e-09
8.6767081e-09
8.6624096e-09
8.6570521e-09
8.6624296e-09
8.675179e-09
8.6889661e-09
8.7057485e-09
8.7394432e-09
8.7649177e-09
8.772004e-09
8.7007125e-09
8.631955e-09
8.5939986e-09
8.5781932e-09
8.5732779e-09
8.5721548e-09
8.5719707e-09
8.5719495e-09
8.5719479e-09
8.5719478e-09
8.5719479e-09
0.00040279675
0.00072052735
0.00059181036
9.5755313e-05
4.0817729e-08
9.8333915e-09
1.000848e-08
9.5030036e-09
9.4334083e-09
9.2320524e-09
9.1614309e-09
9.0772244e-09
9.0337608e-09
8.9968413e-09
8.9670539e-09
8.9329516e-09
8.8965493e-09
8.8707332e-09
8.8735623e-09
8.9070774e-09
8.9385723e-09
8.9512488e-09
8.9421865e-09
8.9137366e-09
8.8721204e-09
8.8256045e-09
8.7807732e-09
8.7396001e-09
8.7031412e-09
8.6771471e-09
8.6632661e-09
8.6586848e-09
8.6652575e-09
8.6793755e-09
8.6927726e-09
8.7109018e-09
8.7475604e-09
8.7704726e-09
8.7726721e-09
8.6953403e-09
8.6280965e-09
8.5920548e-09
8.577489e-09
8.5730937e-09
8.5721206e-09
8.5719663e-09
8.5719491e-09
8.5719478e-09
8.5719478e-09
8.5719479e-09
0.00039969857
0.00069578287
0.00053540655
5.6323248e-05
2.6223648e-08
9.7540553e-09
9.953567e-09
9.4803542e-09
9.4149111e-09
9.2246028e-09
9.1575127e-09
9.0780566e-09
9.0366326e-09
9.0024479e-09
8.9765556e-09
8.9483242e-09
8.917363e-09
8.8924478e-09
8.8928917e-09
8.9177332e-09
8.9461404e-09
8.9572243e-09
8.9476593e-09
8.9189368e-09
8.8766682e-09
8.8288344e-09
8.7825627e-09
8.7404522e-09
8.7034364e-09
8.6774632e-09
8.6641275e-09
8.6604206e-09
8.668172e-09
8.6834633e-09
8.696766e-09
8.7166648e-09
8.7557391e-09
8.776643e-09
8.7725048e-09
8.6895336e-09
8.6241923e-09
8.5901736e-09
8.5768349e-09
8.5729295e-09
8.5720914e-09
8.5719627e-09
8.5719488e-09
8.5719478e-09
8.5719478e-09
8.5719479e-09
0.00039621745
0.00066805711
0.00047795197
2.8270292e-05
1.9036215e-08
9.6939956e-09
9.9105967e-09
9.4601313e-09
9.3984062e-09
9.2189148e-09
9.155304e-09
9.0805372e-09
9.041112e-09
9.0094114e-09
8.9868854e-09
8.963922e-09
8.9384377e-09
8.9158496e-09
8.9135426e-09
8.9304686e-09
8.95489e-09
8.9635497e-09
8.9526236e-09
8.9231095e-09
8.8800732e-09
8.8310726e-09
8.7834887e-09
8.7405362e-09
8.7033087e-09
8.6776687e-09
8.6650542e-09
8.6623716e-09
8.6712084e-09
8.6874209e-09
8.700893e-09
8.722885e-09
8.763766e-09
8.7834771e-09
8.7710332e-09
8.683414e-09
8.6202925e-09
8.5883746e-09
8.5762342e-09
8.5727846e-09
8.5720667e-09
8.5719598e-09
8.5719486e-09
8.5719478e-09
8.5719478e-09
8.5719479e-09
0.00039312999
0.00064305551
0.00041937903
1.2178155e-05
1.5307361e-08
9.646756e-09
9.868174e-09
9.4420815e-09
9.3839092e-09
9.2150046e-09
9.1548347e-09
9.0846852e-09
9.047246e-09
9.0178226e-09
8.9982185e-09
8.9799459e-09
8.9598765e-09
8.9403997e-09
8.9347432e-09
8.9453532e-09
8.9648893e-09
8.9703779e-09
8.9572733e-09
8.9264198e-09
8.8824441e-09
8.8324115e-09
8.783655e-09
8.7399541e-09
8.7027343e-09
8.677766e-09
8.6661141e-09
8.6647648e-09
8.6743914e-09
8.6912611e-09
8.7050884e-09
8.7293749e-09
8.7715525e-09
8.7904611e-09
8.7679405e-09
8.6771233e-09
8.616441e-09
8.5866738e-09
8.5756885e-09
8.5726582e-09
8.5720459e-09
8.5719574e-09
8.5719484e-09
8.5719478e-09
8.5719478e-09
8.5719479e-09
0.00039021195
0.00061791269
0.00036026667
4.6841125e-06
1.3280511e-08
9.6085257e-09
9.8290964e-09
9.4263492e-09
9.3714915e-09
9.2129247e-09
9.1561307e-09
9.0905149e-09
9.0550648e-09
9.0277679e-09
9.0107125e-09
8.9965639e-09
8.9816028e-09
8.9656051e-09
8.9568676e-09
8.9623665e-09
8.9761781e-09
8.9778183e-09
8.9617961e-09
8.9290575e-09
8.8839285e-09
8.8329709e-09
8.7832001e-09
8.7387668e-09
8.7018142e-09
8.6777485e-09
8.6673264e-09
8.6677355e-09
8.6780457e-09
8.6950217e-09
8.7093444e-09
8.7361064e-09
8.7790268e-09
8.797083e-09
8.7632004e-09
8.6707837e-09
8.6126769e-09
8.5850836e-09
8.5751978e-09
8.5725488e-09
8.5720286e-09
8.5719555e-09
8.5719483e-09
8.5719478e-09
8.5719478e-09
8.5719479e-09
0.00038759174
0.0005917888
0.00030135104
1.6987042e-06
1.2141364e-08
9.5771589e-09
9.7927338e-09
9.4129598e-09
9.3611684e-09
9.2126775e-09
9.1591915e-09
9.0980334e-09
9.0645864e-09
9.0393249e-09
9.0245095e-09
9.0139152e-09
9.0035154e-09
8.9909943e-09
8.9807773e-09
8.9819433e-09
8.98877e-09
8.9859146e-09
8.9663526e-09
8.9312226e-09
8.8846982e-09
8.8328861e-09
8.7823337e-09
8.7372142e-09
8.700628e-09
8.6776194e-09
8.6686269e-09
8.6712043e-09
8.6825467e-09
8.6987712e-09
8.7137755e-09
8.7431194e-09
8.7862562e-09
8.8029211e-09
8.7568472e-09
8.6644421e-09
8.609036e-09
8.5836096e-09
8.5747607e-09
8.572455e-09
8.5720144e-09
8.571954e-09
8.5719481e-09
8.5719478e-09
8.5719478e-09
8.5719479e-09
0.00038553915
0.00056465305
0.00024346651
6.1713693e-07
1.1484597e-08
9.5511167e-09
9.7591194e-09
9.4018381e-09
9.3529168e-09
9.2142514e-09
9.164021e-09
9.1072419e-09
9.0758432e-09
9.0525535e-09
9.0397336e-09
9.0321456e-09
9.0256598e-09
9.0164889e-09
9.0062436e-09
9.0029917e-09
9.0025604e-09
8.994681e-09
8.9710663e-09
8.933105e-09
8.8849429e-09
8.8322971e-09
8.7811404e-09
8.735472e-09
8.6993304e-09
8.6774474e-09
8.6699071e-09
8.6748237e-09
8.6871739e-09
8.7025983e-09
8.7186046e-09
8.7505777e-09
8.793131e-09
8.807982e-09
8.749208e-09
8.6580485e-09
8.6055515e-09
8.5822565e-09
8.5743749e-09
8.5723752e-09
8.5720026e-09
8.5719528e-09
8.5719481e-09
8.5719478e-09
8.5719478e-09
8.5719479e-09
0.00038422989
0.00053765539
0.00018802777
2.4198352e-07
1.108496e-08
9.5294099e-09
9.7282002e-09
9.3929637e-09
9.3467526e-09
9.2176609e-09
9.1706372e-09
9.1181645e-09
9.0888537e-09
9.0675171e-09
9.056494e-09
9.0514088e-09
9.0481881e-09
9.0421592e-09
9.0325088e-09
9.024077e-09
9.0174331e-09
9.0040544e-09
8.9760038e-09
8.9348642e-09
8.884845e-09
8.8313763e-09
8.779728e-09
8.7337116e-09
8.6981149e-09
8.6773456e-09
8.6710853e-09
8.6781827e-09
8.6915504e-09
8.70663e-09
8.7240399e-09
8.7587287e-09
8.7994981e-09
8.8120016e-09
8.7405379e-09
8.6516362e-09
8.6022532e-09
8.5810263e-09
8.5740369e-09
8.5723076e-09
8.571993e-09
8.5719518e-09
8.571948e-09
8.5719478e-09
8.5719478e-09
8.5719479e-09
0.00038327991
0.00050684775
0.00013568776
1.0710551e-07
1.0828941e-08
9.5115322e-09
9.6999667e-09
9.3863478e-09
9.3427034e-09
9.2229277e-09
9.1790651e-09
9.1308135e-09
9.103652e-09
9.084257e-09
9.0748806e-09
9.0718502e-09
9.0712479e-09
9.0678803e-09
9.0587938e-09
9.0458834e-09
9.0332111e-09
9.0139103e-09
8.981168e-09
8.9366099e-09
8.8845629e-09
8.8302768e-09
8.7782401e-09
8.732049e-09
8.6971664e-09
8.6775179e-09
8.6721295e-09
8.6809715e-09
8.6955065e-09
8.7107532e-09
8.7300838e-09
8.7678274e-09
8.8052584e-09
8.8147512e-09
8.7310829e-09
8.6453018e-09
8.5991648e-09
8.5799182e-09
8.573743e-09
8.5722507e-09
8.5719851e-09
8.571951e-09
8.5719479e-09
8.5719478e-09
8.5719478e-09
8.5719479e-09
0.00038251518
0.00047142695
8.8739259e-05
5.5079185e-08
1.0654589e-08
9.4971905e-09
9.6743851e-09
9.3820037e-09
9.3407941e-09
9.2300723e-09
9.1893235e-09
9.1452172e-09
9.1202559e-09
9.1028211e-09
9.0949686e-09
9.0935884e-09
9.094936e-09
9.093492e-09
9.0846474e-09
9.0685301e-09
9.0494909e-09
9.0240552e-09
8.9864922e-09
8.9383957e-09
8.8842288e-09
8.8289563e-09
8.7766863e-09
8.7305091e-09
8.6965574e-09
8.6780897e-09
8.6732183e-09
8.6834471e-09
8.6988964e-09
8.7147878e-09
8.7367341e-09
8.7779003e-09
8.8106741e-09
8.8156786e-09
8.7211367e-09
8.6391467e-09
8.596302e-09
8.578928e-09
8.5734888e-09
8.572203e-09
8.5719787e-09
8.5719504e-09
8.5719479e-09
8.5719478e-09
8.5719478e-09
8.5719479e-09
0.00038177177
0.00043192751
5.2086536e-05
3.3147044e-08
1.0528318e-08
9.4862138e-09
9.6514457e-09
9.3799329e-09
9.3410506e-09
9.2391136e-09
9.2014457e-09
9.1614028e-09
9.1387082e-09
9.1232398e-09
9.1168124e-09
9.1167171e-09
9.1193474e-09
9.1189749e-09
9.1098654e-09
9.0910498e-09
9.0655019e-09
9.034248e-09
8.9918397e-09
8.9402012e-09
8.8839431e-09
8.8276065e-09
8.7750467e-09
8.7290468e-09
8.6962407e-09
8.6790022e-09
8.6745714e-09
8.6856537e-09
8.7017226e-09
8.718691e-09
8.7442138e-09
8.7884879e-09
8.8164129e-09
8.8151337e-09
8.7110464e-09
8.6332529e-09
8.5936717e-09
8.5780492e-09
8.5732702e-09
8.5721631e-09
8.5719735e-09
8.5719499e-09
8.5719479e-09
8.5719478e-09
8.5719478e-09
8.5719479e-09
0.00038070801
0.00038779827
2.6994322e-05
2.2886995e-08
1.043133e-08
9.478535e-09
9.6311037e-09
9.3801313e-09
9.3435027e-09
9.2500898e-09
9.21548e-09
9.1794273e-09
9.1590412e-09
9.1455511e-09
9.1404489e-09
9.1412993e-09
9.1445636e-09
9.1443092e-09
9.134284e-09
9.1126711e-09
9.0815738e-09
9.0441758e-09
8.9970196e-09
8.9419397e-09
8.8835595e-09
8.8262211e-09
8.7732896e-09
8.7275362e-09
8.6960381e-09
8.6801156e-09
8.676366e-09
8.6875952e-09
8.7041494e-09
8.7226424e-09
8.7526166e-09
8.798708e-09
8.8229019e-09
8.811481e-09
8.7011737e-09
8.6276701e-09
8.5912737e-09
8.5772739e-09
8.5730829e-09
8.5721299e-09
8.5719692e-09
8.5719495e-09
8.5719479e-09
8.5719478e-09
8.5719478e-09
8.5719479e-09
0.00037883552
0.00033912045
1.2404828e-05
1.7682138e-08
1.0352994e-08
9.4742481e-09
9.6132999e-09
9.3826179e-09
9.3482155e-09
9.2630711e-09
9.2315028e-09
9.1993466e-09
9.1813051e-09
9.1697693e-09
9.1658895e-09
9.167365e-09
9.1706072e-09
9.1694669e-09
9.157781e-09
9.1330765e-09
9.0970328e-09
9.0535202e-09
9.0018013e-09
8.9434938e-09
8.8829953e-09
8.8247093e-09
8.771323e-09
8.725865e-09
8.6957209e-09
8.681074e-09
8.6781865e-09
8.6896855e-09
8.7067422e-09
8.726928e-09
8.761649e-09
8.8082356e-09
8.829626e-09
8.8044745e-09
8.691763e-09
8.6224188e-09
8.589103e-09
8.5765939e-09
8.5729231e-09
8.5721022e-09
8.5719658e-09
8.5719492e-09
8.5719478e-09
8.5719478e-09