/*--------------------------------*- C++ -*----------------------------------*\
| =========                 |                                                 |
| \\      /  F ield         | OpenFOAM: The Open Source CFD Toolbox           |
|  \\    /   O peration     | Version:  2306                                  |
|   \\  /    A nd           | Website:  www.openfoam.com                      |
|    \\/     M anipulation  |                                                 |
\*---------------------------------------------------------------------------*/
FoamFile
{
    version     2.0;
    format      ascii;
    arch        "LSB;label=32;scalar=64";
    class       volScalarField;
    location    "0.003";
    object      nut;
}
// * * * * * * * * * * * * * * * * * * * * * * * * * * * * * * * * * * * * * //

dimensions      [0 2 -1 0 0 0 0];

internalField   nonuniform List<scalar> 
20000
(
0.00040401825
0.0010087346
0.0013386589
0.0014439247
0.0012691445
0.00069574349
4.7745944e-05
1.5201986e-08
9.5162457e-09
8.9084589e-09
8.6134641e-09
8.2394211e-09
7.9239036e-09
7.6511361e-09
7.5550465e-09
7.604645e-09
7.6977553e-09
7.6999385e-09
7.6068712e-09
7.4982571e-09
7.4106636e-09
7.3633991e-09
7.3516772e-09
7.3548615e-09
7.3628084e-09
7.371132e-09
7.3804182e-09
7.3915521e-09
7.4008927e-09
7.4064161e-09
7.4073061e-09
7.4043996e-09
7.4000182e-09
7.3966075e-09
7.3973419e-09
7.4012513e-09
7.4087591e-09
7.4219758e-09
7.4286205e-09
7.4280445e-09
7.4010541e-09
7.3729422e-09
7.3574349e-09
7.351312e-09
7.3495346e-09
7.3491455e-09
7.3490805e-09
7.3490728e-09
7.3490722e-09
7.3490722e-09
0.00040133844
0.00099561735
0.0013133704
0.0014055559
0.0012166026
0.00061896272
2.4406619e-05
1.2909832e-08
9.4377077e-09
8.8587684e-09
8.5829347e-09
8.2309674e-09
7.9308525e-09
7.6585065e-09
7.5539712e-09
7.5839928e-09
7.6886007e-09
7.7008552e-09
7.6182843e-09
7.5143315e-09
7.4256794e-09
7.3736169e-09
7.3574341e-09
7.3594569e-09
7.3670155e-09
7.3742298e-09
7.3809798e-09
7.3902838e-09
7.3989979e-09
7.40458e-09
7.4058223e-09
7.4031882e-09
7.3989671e-09
7.3958644e-09
7.3968391e-09
7.4010734e-09
7.4079004e-09
7.4220245e-09
7.429555e-09
7.4288822e-09
7.4019592e-09
7.373732e-09
7.3578145e-09
7.3514944e-09
7.3495869e-09
7.3491564e-09
7.3490822e-09
7.349073e-09
7.3490722e-09
7.3490722e-09
0.00039895298
0.00098326894
0.0012884845
0.001366386
0.0011625569
0.00054175111
1.0515368e-05
1.1525759e-08
9.3546814e-09
8.804687e-09
8.5469349e-09
8.2171418e-09
7.9339381e-09
7.6655789e-09
7.5531538e-09
7.5681282e-09
7.6778751e-09
7.698814e-09
7.6272306e-09
7.5290264e-09
7.4406087e-09
7.3851823e-09
7.3645879e-09
7.3649331e-09
7.3717815e-09
7.3779684e-09
7.3832044e-09
7.3900407e-09
7.3977266e-09
7.4031256e-09
7.4046243e-09
7.4022631e-09
7.3982485e-09
7.3953878e-09
7.3966493e-09
7.401059e-09
7.4074075e-09
7.4221666e-09
7.4305997e-09
7.4299186e-09
7.4024611e-09
7.3742809e-09
7.3581908e-09
7.3516588e-09
7.3496389e-09
7.3491668e-09
7.3490837e-09
7.3490731e-09
7.3490722e-09
7.3490722e-09
0.00039655675
0.00097100945
0.0012636731
0.0013265563
0.0011081523
0.00046908354
4.1436326e-06
1.0686243e-08
9.2780514e-09
8.7516636e-09
8.5107943e-09
8.2017468e-09
7.9359448e-09
7.6733917e-09
7.5522803e-09
7.5547217e-09
7.6651305e-09
7.6937855e-09
7.6347588e-09
7.5428693e-09
7.4555173e-09
7.3975087e-09
7.3730703e-09
7.3710693e-09
7.3769607e-09
7.3823632e-09
7.3863004e-09
7.3906749e-09
7.3969158e-09
7.4018578e-09
7.4034955e-09
7.4013976e-09
7.3975996e-09
7.3950285e-09
7.3965599e-09
7.400905e-09
7.4072029e-09
7.4222433e-09
7.4315626e-09
7.4316541e-09
7.4031712e-09
7.3748109e-09
7.3585489e-09
7.3518064e-09
7.3496846e-09
7.3491765e-09
7.3490851e-09
7.3490733e-09
7.3490722e-09
7.3490722e-09
0.00039427059
0.00095916501
0.0012395343
0.0012865229
0.0010526245
0.00040030055
1.5599662e-06
1.0159083e-08
9.2064319e-09
8.6987723e-09
8.4737835e-09
8.1843353e-09
7.9363905e-09
7.6816263e-09
7.5509291e-09
7.5378256e-09
7.6476961e-09
7.6829832e-09
7.6406275e-09
7.5556523e-09
7.4701856e-09
7.410195e-09
7.3824288e-09
7.3777245e-09
7.3823057e-09
7.3870559e-09
7.389807e-09
7.3923951e-09
7.396715e-09
7.4008942e-09
7.4025447e-09
7.4006967e-09
7.3971356e-09
7.3948787e-09
7.3966693e-09
7.4009024e-09
7.4072022e-09
7.4224709e-09
7.4324311e-09
7.4332789e-09
7.4038812e-09
7.3752633e-09
7.3588573e-09
7.3519361e-09
7.3497234e-09
7.3491847e-09
7.3490864e-09
7.3490734e-09
7.3490722e-09
7.3490722e-09
0.00039203695
0.00094751306
0.0012160714
0.0012490866
0.00099530476
0.00033541507
5.9480808e-07
9.812168e-09
9.1338435e-09
8.6465795e-09
8.4364976e-09
8.1653856e-09
7.9353582e-09
7.6902826e-09
7.5491157e-09
7.5208465e-09
7.6259912e-09
7.6709362e-09
7.6448944e-09
7.5673989e-09
7.4845935e-09
7.423157e-09
7.3923221e-09
7.3848259e-09
7.3879084e-09
7.3919763e-09
7.3937716e-09
7.3950762e-09
7.3970923e-09
7.400169e-09
7.4016894e-09
7.4000801e-09
7.3967837e-09
7.3948849e-09
7.3969372e-09
7.4010808e-09
7.4072692e-09
7.4228816e-09
7.433199e-09
7.4346174e-09
7.4047152e-09
7.3756874e-09
7.3591245e-09
7.3520481e-09
7.3497572e-09
7.3491919e-09
7.3490874e-09
7.3490735e-09
7.3490723e-09
7.3490722e-09
0.00038986582
0.00093580841
0.0011922834
0.0012087597
0.00093516311
0.00027473938
2.4139e-07
9.5721555e-09
9.0628668e-09
8.5952686e-09
8.3991708e-09
8.1451163e-09
7.9327132e-09
7.698566e-09
7.5481198e-09
7.5080162e-09
7.6022861e-09
7.6594755e-09
7.6475258e-09
7.5780354e-09
7.4986418e-09
7.4363199e-09
7.4026403e-09
7.3923602e-09
7.393765e-09
7.3970557e-09
7.3980827e-09
7.3979816e-09
7.398214e-09
7.3997845e-09
7.4009251e-09
7.3995164e-09
7.3965095e-09
7.3950179e-09
7.3973692e-09
7.4014509e-09
7.4073976e-09
7.4234606e-09
7.4339828e-09
7.4357613e-09
7.4057101e-09
7.3761071e-09
7.3593519e-09
7.3521417e-09
7.3497859e-09
7.349198e-09
7.3490882e-09
7.3490736e-09
7.3490723e-09
7.3490722e-09
0.00038773295
0.00092399103
0.0011677909
0.0011689632
0.00087252222
0.00021889872
1.0879195e-07
9.3960413e-09
8.9937459e-09
8.5451592e-09
8.3620604e-09
8.1238104e-09
7.9283717e-09
7.7058544e-09
7.5491611e-09
7.4998398e-09
7.5809663e-09
7.6477211e-09
7.6492168e-09
7.5875047e-09
7.5122491e-09
7.4496453e-09
7.4133965e-09
7.4003478e-09
7.3998985e-09
7.4022789e-09
7.4025927e-09
7.4012278e-09
7.4001277e-09
7.3998407e-09
7.4002923e-09
7.3990214e-09
7.3962901e-09
7.3952151e-09
7.3979386e-09
7.4020276e-09
7.4077759e-09
7.4242194e-09
7.4348588e-09
7.4367304e-09
7.4065772e-09
7.376551e-09
7.3595461e-09
7.3522182e-09
7.3498081e-09
7.3492018e-09
7.3490887e-09
7.3490736e-09
7.3490723e-09
7.3490722e-09
0.0003857243
0.0009123879
0.001143539
0.0011288396
0.00080698118
0.00016953936
5.572223e-08
9.2588449e-09
8.9269815e-09
8.4964944e-09
8.3253795e-09
8.1017308e-09
7.9223569e-09
7.711903e-09
7.5526464e-09
7.4952169e-09
7.562225e-09
7.6360497e-09
7.6505586e-09
7.5957415e-09
7.525386e-09
7.4631436e-09
7.4246387e-09
7.4088352e-09
7.4063506e-09
7.4076439e-09
7.40724e-09
7.4047918e-09
7.4022442e-09
7.4004343e-09
7.3998247e-09
7.3986002e-09
7.3961441e-09
7.3954817e-09
7.3986114e-09
7.4027596e-09
7.4083613e-09
7.4252127e-09
7.4358913e-09
7.4375956e-09
7.4072479e-09
7.377047e-09
7.3597169e-09
7.3522711e-09
7.3498195e-09
7.3492037e-09
7.3490889e-09
7.3490736e-09
7.3490723e-09
7.3490722e-09
0.00038377168
0.00090075112
0.0011191991
0.0010888175
0.00073896051
0.00012095434
3.2242232e-08
9.1463901e-09
8.8628608e-09
8.4495131e-09
8.2893142e-09
8.0791505e-09
7.914808e-09
7.7166881e-09
7.5581649e-09
7.4942328e-09
7.5454322e-09
7.6269765e-09
7.6498825e-09
7.6027248e-09
7.5378925e-09
7.4766793e-09
7.4362968e-09
7.4178058e-09
7.4131373e-09
7.4131478e-09
7.4119781e-09
7.408556e-09
7.4046466e-09
7.4015157e-09
7.39962e-09
7.3982762e-09
7.396095e-09
7.3958306e-09
7.3993698e-09
7.4036082e-09
7.40913e-09
7.4263619e-09
7.4371048e-09
7.4384348e-09
7.4077505e-09
7.3773816e-09
7.3598523e-09
7.3523e-09
7.349824e-09
7.3492045e-09
7.3490891e-09
7.3490736e-09
7.3490723e-09
7.3490722e-09
0.00038187355
0.00088892417
0.0010943983
0.0010475588
0.00066886607
7.7236928e-05
2.1342059e-08
9.0503834e-09
8.8015511e-09
8.4043499e-09
8.2540196e-09
8.0563232e-09
7.9059669e-09
7.7204364e-09
7.5647586e-09
7.495998e-09
7.5296531e-09
7.6179754e-09
7.6445491e-09
7.6084626e-09
7.5496668e-09
7.4901597e-09
7.448319e-09
7.4272519e-09
7.4202798e-09
7.4188037e-09
7.4167668e-09
7.4124325e-09
7.4073176e-09
7.4029075e-09
7.3997752e-09
7.398056e-09
7.3961513e-09
7.3962693e-09
7.4002101e-09
7.4045612e-09
7.4100633e-09
7.427606e-09
7.4384802e-09
7.4393188e-09
7.4080996e-09
7.3775093e-09
7.3599233e-09
7.3523225e-09
7.3498259e-09
7.3492046e-09
7.349089e-09
7.3490736e-09
7.3490723e-09
7.3490722e-09
0.00037997554
0.00087675144
0.001068674
0.0010045335
0.00059767421
4.22406e-05
1.5921107e-08
8.9656377e-09
8.7431275e-09
8.3611285e-09
8.2196408e-09
8.0334971e-09
7.8960933e-09
7.7233497e-09
7.5718902e-09
7.4982594e-09
7.5167256e-09
7.6067258e-09
7.636031e-09
7.6129508e-09
7.5606062e-09
7.5034762e-09
7.4606345e-09
7.4371474e-09
7.4277897e-09
7.4246236e-09
7.4215717e-09
7.4163563e-09
7.410152e-09
7.4045288e-09
7.4003066e-09
7.3979522e-09
7.396313e-09
7.3968086e-09
7.4011272e-09
7.4055968e-09
7.411154e-09
7.4289909e-09
7.440013e-09
7.4402276e-09
7.4083093e-09
7.3775292e-09
7.3599254e-09
7.3523184e-09
7.3498238e-09
7.3492032e-09
7.3490888e-09
7.3490736e-09
7.3490723e-09
7.3490722e-09
0.00037810457
0.00086438387
0.0010419043
0.00096205916
0.00052638703
1.9405198e-05
1.3064289e-08
8.8887844e-09
8.6875414e-09
8.3199085e-09
8.1863047e-09
8.0108788e-09
7.8854201e-09
7.7255177e-09
7.5793749e-09
7.5007654e-09
7.5072667e-09
7.5931259e-09
7.6277285e-09
7.6161298e-09
7.5706113e-09
7.5165069e-09
7.4731534e-09
7.4474483e-09
7.4356651e-09
7.4306141e-09
7.4263562e-09
7.4202659e-09
7.4130479e-09
7.40631e-09
7.4011009e-09
7.3980062e-09
7.3965662e-09
7.3974489e-09
7.4021176e-09
7.4067133e-09
7.4124102e-09
7.4305293e-09
7.4417168e-09
7.4411226e-09
7.4083572e-09
7.3774565e-09
7.3598475e-09
7.3522818e-09
7.3498117e-09
7.3492003e-09
7.3490883e-09
7.3490736e-09
7.3490723e-09
7.3490722e-09
0.00037627105
0.00085208221
0.0010153211
0.00091940217
0.00045607765
7.6885975e-06
1.1490575e-08
8.8179216e-09
8.6347585e-09
8.2807657e-09
8.1541744e-09
7.9886728e-09
7.8741577e-09
7.7269786e-09
7.5872826e-09
7.5032343e-09
7.4964718e-09
7.5764245e-09
7.6200627e-09
7.6180632e-09
7.5796034e-09
7.5291349e-09
7.4857814e-09
7.4580993e-09
7.4438974e-09
7.4367897e-09
7.431112e-09
7.4241018e-09
7.4159292e-09
7.4081748e-09
7.402086e-09
7.3982953e-09
7.3968978e-09
7.3981869e-09
7.4031768e-09
7.4079158e-09
7.4138555e-09
7.4322324e-09
7.4435879e-09
7.4419858e-09
7.4082878e-09
7.3772577e-09
7.3597043e-09
7.3522156e-09
7.3497897e-09
7.3491952e-09
7.3490875e-09
7.3490735e-09
7.3490723e-09
7.3490722e-09
0.00037445899
0.00083977558
0.00098900645
0.00087563006
0.00038877198
2.7845295e-06
1.0590562e-08
8.7519917e-09
8.5846e-09
8.2437066e-09
8.1233736e-09
7.9670212e-09
7.8624625e-09
7.7276944e-09
7.5955918e-09
7.5055598e-09
7.4880578e-09
7.560474e-09
7.612397e-09
7.6200165e-09
7.5875516e-09
7.541295e-09
7.4984668e-09
7.46908e-09
7.4524951e-09
7.443177e-09
7.43588e-09
7.4278419e-09
7.418748e-09
7.4100608e-09
7.4032113e-09
7.3987974e-09
7.3973008e-09
7.3990119e-09
7.4042907e-09
7.4091933e-09
7.415489e-09
7.4340596e-09
7.4456029e-09
7.442808e-09
7.4080957e-09
7.3769586e-09
7.3595038e-09
7.3521261e-09
7.3497607e-09
7.3491884e-09
7.3490864e-09
7.3490734e-09
7.3490722e-09
7.3490722e-09
0.00037258974
0.00082700734
0.00096166088
0.00082985921
0.00032546549
9.8241182e-07
1.0056692e-08
8.6905288e-09
8.5368886e-09
8.2087145e-09
8.0940223e-09
7.9460666e-09
7.8504931e-09
7.727614e-09
7.6036842e-09
7.5087796e-09
7.4837612e-09
7.5468402e-09
7.6045449e-09
7.6220151e-09
7.5943992e-09
7.5528185e-09
7.5110386e-09
7.4802735e-09
7.4613986e-09
7.4497706e-09
7.4406822e-09
7.4314694e-09
7.4214552e-09
7.4119075e-09
7.4044208e-09
7.3994692e-09
7.3978204e-09
7.3999382e-09
7.4054723e-09
7.4105419e-09
7.4172999e-09
7.4360425e-09
7.4477706e-09
7.4435488e-09
7.4077484e-09
7.3765551e-09
7.3592522e-09
7.3520168e-09
7.349726e-09
7.3491805e-09
7.3490851e-09
7.3490732e-09
7.3490722e-09
7.3490722e-09
0.00037066321
0.00081394997
0.00093356508
0.00078177944
0.00026576115
3.6025944e-07
9.7216001e-09
8.6331697e-09
8.4915385e-09
8.1756632e-09
8.0662438e-09
7.9259437e-09
7.8384215e-09
7.7267004e-09
7.6111045e-09
7.5138208e-09
7.4831252e-09
7.5353267e-09
7.5966356e-09
7.6201724e-09
7.6001992e-09
7.563625e-09
7.5233944e-09
7.4916001e-09
7.47055e-09
7.4565684e-09
7.4455412e-09
7.4349924e-09
7.4240294e-09
7.4136651e-09
7.4056416e-09
7.4002515e-09
7.3984967e-09
7.4009586e-09
7.4067241e-09
7.411945e-09
7.4192513e-09
7.4383371e-09
7.4501002e-09
7.4441906e-09
7.407213e-09
7.376029e-09
7.3589436e-09
7.3518881e-09
7.3496866e-09
7.3491718e-09
7.3490838e-09
7.3490731e-09
7.3490722e-09
7.3490722e-09
0.0003687144
0.00080080132
0.00090479361
0.00073239135
0.00020964398
1.4466523e-07
9.4990378e-09
8.5796041e-09
8.4484295e-09
8.144687e-09
8.0400951e-09
7.9067722e-09
7.8263964e-09
7.7249921e-09
7.6177033e-09
7.5208908e-09
7.4854088e-09
7.5255644e-09
7.5891353e-09
7.6161421e-09
7.6049985e-09
7.5736161e-09
7.5354022e-09
7.5029458e-09
7.4798652e-09
7.4635528e-09
7.4504627e-09
7.4384222e-09
7.4264567e-09
7.4153055e-09
7.4068163e-09
7.4010997e-09
7.3992965e-09
7.4020607e-09
7.4080443e-09
7.413388e-09
7.4213051e-09
7.4409544e-09
7.4526073e-09
7.4447311e-09
7.4064853e-09
7.3753748e-09
7.3585753e-09
7.3517403e-09
7.349643e-09
7.3491625e-09
7.3490824e-09
7.349073e-09
7.3490722e-09
7.3490722e-09
0.00036681344
0.000787868
0.00087559946
0.00068077884
0.00015739872
6.6421215e-08
9.3408349e-09
8.5294103e-09
8.4075317e-09
8.1156614e-09
8.01558e-09
7.8886577e-09
7.814587e-09
7.7226298e-09
7.6236458e-09
7.5293317e-09
7.490846e-09
7.5173272e-09
7.5813362e-09
7.6118014e-09
7.6087982e-09
7.5827533e-09
7.5469982e-09
7.5142434e-09
7.4892917e-09
7.4707093e-09
7.4554679e-09
7.44179e-09
7.4287574e-09
7.4168237e-09
7.4079102e-09
7.4019719e-09
7.4001788e-09
7.4032302e-09
7.4094331e-09
7.4148716e-09
7.4234503e-09
7.4438158e-09
7.4552647e-09
7.4451649e-09
7.4056053e-09
7.3746229e-09
7.3581629e-09
7.3515797e-09
7.3495973e-09
7.3491531e-09
7.3490811e-09
7.3490728e-09
7.3490722e-09
7.3490722e-09
0.00036502549
0.00077542868
0.00084740311
0.0006262876
0.00011116558
3.5641094e-08
9.2201393e-09
8.4822943e-09
8.3687346e-09
8.0885486e-09
7.9926942e-09
7.871678e-09
7.8031368e-09
7.7197995e-09
7.6291336e-09
7.5385383e-09
7.4968294e-09
7.5119359e-09
7.5728203e-09
7.6079908e-09
7.6117271e-09
7.5909678e-09
7.5580299e-09
7.5253358e-09
7.4987089e-09
7.4779621e-09
7.4605477e-09
7.4451146e-09
7.4309345e-09
7.4182299e-09
7.408912e-09
7.4028367e-09
7.401112e-09
7.4044874e-09
7.4109085e-09
7.4164189e-09
7.4257268e-09
7.4467942e-09
7.4580357e-09
7.4454655e-09
7.4046023e-09
7.3737981e-09
7.3577195e-09
7.3514102e-09
7.3495503e-09
7.3491438e-09
7.3490798e-09
7.3490727e-09
7.3490722e-09
7.3490722e-09
0.00036334077
0.0007632344
0.00082164593
0.00056888916
6.9606096e-05
2.2151096e-08
9.1214721e-09
8.437958e-09
8.3319562e-09
8.0632615e-09
7.9713881e-09
7.8558843e-09
7.7921877e-09
7.7166871e-09
7.6342858e-09
7.5482543e-09
7.5031509e-09
7.5079242e-09
7.5654931e-09
7.6045273e-09
7.6150613e-09
7.5982402e-09
7.5683859e-09
7.5360678e-09
7.5080125e-09
7.4852131e-09
7.4656627e-09
7.4483935e-09
7.4329841e-09
7.419515e-09
7.4098122e-09
7.4036703e-09
7.4020629e-09
7.4058555e-09
7.4125383e-09
7.4181378e-09
7.4282489e-09
7.449877e-09
7.4608593e-09
7.4455836e-09
7.4034476e-09
7.3729023e-09
7.3572543e-09
7.3512371e-09
7.3495036e-09
7.3491349e-09
7.3490786e-09
7.3490726e-09
7.3490722e-09
7.3490722e-09
0.0003616885
0.00075065565
0.00079353309
0.00050866272
3.7324428e-05
1.5752075e-08
9.03598e-09
8.3962029e-09
8.2971277e-09
8.0397269e-09
7.9515421e-09
7.8413462e-09
7.7818694e-09
7.7134503e-09
7.6391204e-09
7.5584712e-09
7.5095538e-09
7.5064628e-09
7.5596363e-09
7.6013029e-09
7.6165196e-09
7.6045757e-09
7.5779774e-09
7.5463241e-09
7.5170866e-09
7.4923601e-09
7.4707564e-09
7.451613e-09
7.4348902e-09
7.4206731e-09
7.410618e-09
7.4044778e-09
7.4030318e-09
7.4072814e-09
7.4143573e-09
7.4201545e-09
7.4311207e-09
7.4530352e-09
7.4637205e-09
7.4454235e-09
7.4020835e-09
7.3719066e-09
7.3567588e-09
7.3510591e-09
7.3494573e-09
7.3491264e-09
7.3490775e-09
7.3490725e-09
7.3490722e-09
7.3490722e-09
0.00036020886
0.00073824046
0.00076613512
0.00044693143
1.6811633e-05
1.2491346e-08
8.9576545e-09
8.35681e-09
8.2641558e-09
8.0178411e-09
7.9332701e-09
7.8281326e-09
7.7722955e-09
7.7102196e-09
7.6435984e-09
7.5688413e-09
7.5165491e-09
7.5079675e-09
7.5549641e-09
7.5980283e-09
7.6166522e-09
7.6099856e-09
7.5867098e-09
7.5559898e-09
7.525824e-09
7.499307e-09
7.4757627e-09
7.4547537e-09
7.4366436e-09
7.4216997e-09
7.4113434e-09
7.4052801e-09
7.4040706e-09
7.4087336e-09
7.4163201e-09
7.4224943e-09
7.4343791e-09
7.4562341e-09
7.4665412e-09
7.4448174e-09
7.4004963e-09
7.370812e-09
7.356237e-09
7.3508793e-09
7.3494124e-09
7.3491185e-09
7.3490766e-09
7.3490724e-09
7.3490722e-09
7.3490722e-09
0.00035878258
0.00072564263
0.00073788289
0.00038501379
6.5998895e-06
1.0746779e-08
8.8856198e-09
8.3197896e-09
8.2330568e-09
7.9976213e-09
7.9165398e-09
7.8162453e-09
7.7635678e-09
7.7071221e-09
7.64768e-09
7.5789548e-09
7.5250287e-09
7.512415e-09
7.5515094e-09
7.5949049e-09
7.6164243e-09
7.6144867e-09
7.5944831e-09
7.564944e-09
7.5340854e-09
7.5059362e-09
7.4805995e-09
7.4577916e-09
7.4382462e-09
7.4225996e-09
7.412002e-09
7.4060826e-09
7.4052332e-09
7.4102385e-09
7.4183338e-09
7.4250476e-09
7.4379524e-09
7.459435e-09
7.4692338e-09
7.443748e-09
7.3987131e-09
7.3696365e-09
7.3556979e-09
7.3507003e-09
7.3493695e-09
7.3491113e-09
7.3490758e-09
7.3490724e-09
7.3490722e-09
7.3490722e-09
0.00035728956
0.0007116787
0.00070862171
0.00032681868
2.4011325e-06
9.7742532e-09
8.8300783e-09
8.2852186e-09
8.2037514e-09
7.9790019e-09
7.9013078e-09
7.8055968e-09
7.7557528e-09
7.704268e-09
7.651368e-09
7.5886646e-09
7.5353348e-09
7.5196261e-09
7.5495871e-09
7.5923516e-09
7.6162414e-09
7.6181477e-09
7.6012337e-09
7.5730592e-09
7.5417181e-09
7.512106e-09
7.4851496e-09
7.460677e-09
7.4396912e-09
7.4233654e-09
7.4125962e-09
7.4068682e-09
7.4065394e-09
7.4118584e-09
7.4203559e-09
7.4277265e-09
7.4417705e-09
7.4626296e-09
7.4717379e-09
7.4422416e-09
7.3967733e-09
7.3684022e-09
7.3551522e-09
7.3505253e-09
7.3493292e-09
7.3491048e-09
7.349075e-09
7.3490723e-09
7.3490722e-09
7.3490722e-09
0.00035568024
0.00069646993
0.00067762266
0.00027152599
8.5814669e-07
9.2148818e-09
8.7751363e-09
8.2527281e-09
8.1761982e-09
7.9619329e-09
7.8875285e-09
7.7962858e-09
7.7488791e-09
7.7017668e-09
7.6547602e-09
7.5981449e-09
7.5469573e-09
7.5292571e-09
7.5494563e-09
7.5906361e-09
7.6161492e-09
7.621082e-09
7.6069595e-09
7.5802439e-09
7.5486099e-09
7.5176986e-09
7.4892993e-09
7.4633486e-09
7.440977e-09
7.4240087e-09
7.4131353e-09
7.4076341e-09
7.4079838e-09
7.4136614e-09
7.4224182e-09
7.4305115e-09
7.4458765e-09
7.4657969e-09
7.4740364e-09
7.440306e-09
7.3946953e-09
7.367131e-09
7.3546111e-09
7.3503589e-09
7.3492926e-09
7.3490992e-09
7.3490745e-09
7.3490723e-09
7.3490722e-09
7.3490722e-09
0.00035381178
0.00067955509
0.00064365485
0.00021873289
3.2165522e-07
8.8764639e-09
8.7260979e-09
8.2223506e-09
8.1503473e-09
7.9463652e-09
7.87517e-09
7.7882601e-09
7.7430529e-09
7.6996764e-09
7.6580092e-09
7.6075366e-09
7.5594477e-09
7.5393385e-09
7.551336e-09
7.5899331e-09
7.616205e-09
7.6233987e-09
7.6116917e-09
7.5864308e-09
7.5546663e-09
7.5226111e-09
7.4929354e-09
7.4657302e-09
7.4420926e-09
7.424529e-09
7.4136514e-09
7.4084123e-09
7.4095598e-09
7.4157154e-09
7.4245493e-09
7.4333667e-09
7.4502978e-09
7.4689113e-09
7.4759996e-09
7.4379565e-09
7.3924809e-09
7.3658404e-09
7.3540832e-09
7.3502032e-09
7.3492598e-09
7.3490944e-09
7.349074e-09
7.3490723e-09
7.3490722e-09
7.3490722e-09
0.00035162709
0.00066070807
0.00060332318
0.00016863871
1.3299483e-07
8.6636211e-09
8.6859753e-09
8.1940314e-09
8.126152e-09
7.9322556e-09
7.8641925e-09
7.7815188e-09
7.7382882e-09
7.6981788e-09
7.661281e-09
7.6168703e-09
7.5725871e-09
7.5497467e-09
7.55543e-09
7.5904041e-09
7.6165861e-09
7.6252421e-09
7.6155129e-09
7.5915728e-09
7.5598116e-09
7.5267636e-09
7.4959588e-09
7.4677304e-09
7.443015e-09
7.4249417e-09
7.414155e-09
7.4092487e-09
7.4112505e-09
7.4180862e-09
7.426781e-09
7.4362755e-09
7.4550264e-09
7.4720068e-09
7.4775101e-09
7.4351973e-09
7.3901476e-09
7.364549e-09
7.3535757e-09
7.3500594e-09
7.3492308e-09
7.3490903e-09
7.3490736e-09
7.3490722e-09
7.3490722e-09
7.3490722e-09
0.00034921551
0.00064072148
0.0005581934
0.00012245764
6.3173539e-08
8.5240945e-09
8.617688e-09
8.1672325e-09
8.1036005e-09
7.919578e-09
7.854583e-09
7.7760494e-09
7.7346336e-09
7.697368e-09
7.6646891e-09
7.626098e-09
7.5861353e-09
7.5606729e-09
7.5618815e-09
7.5921939e-09
7.617499e-09
7.6268184e-09
7.618513e-09
7.5956765e-09
7.5640033e-09
7.5301065e-09
7.4982961e-09
7.4692675e-09
7.4437098e-09
7.4252434e-09
7.414652e-09
7.4101687e-09
7.4130154e-09
7.4207922e-09
7.4291566e-09
7.4393095e-09
7.4600215e-09
7.4752165e-09
7.4784538e-09
7.4320535e-09
7.3877205e-09
7.3632705e-09
7.3530932e-09
7.3499282e-09
7.3492053e-09
7.3490869e-09
7.3490733e-09
7.3490722e-09
7.3490722e-09
7.3490722e-09
0.00034662925
0.00062000614
0.00050880139
8.2105527e-05
3.4987004e-08
8.4266457e-09
8.5776009e-09
8.142743e-09
8.0826636e-09
7.9083067e-09
7.8463086e-09
7.7718314e-09
7.7321124e-09
7.6973391e-09
7.6683445e-09
7.6351505e-09
7.5996892e-09
7.5730465e-09
7.5709406e-09
7.5954365e-09
7.619125e-09
7.6282974e-09
7.6208228e-09
7.5987872e-09
7.5672329e-09
7.5326301e-09
7.4999178e-09
7.4702664e-09
7.4441462e-09
7.4254521e-09
7.4151413e-09
7.4111593e-09
7.4148319e-09
7.4236768e-09
7.4316924e-09
7.4426195e-09
7.4651743e-09
7.4787131e-09
7.4787346e-09
7.4285743e-09
7.3852312e-09
7.3620185e-09
7.3526398e-09
7.3498097e-09
7.3491833e-09
7.3490841e-09
7.349073e-09
7.3490722e-09
7.3490722e-09
7.3490722e-09
0.00034379537
0.00059842135
0.00046002817
4.8266782e-05
2.2468779e-08
8.3552746e-09
8.5270185e-09
8.1199044e-09
8.0633199e-09
7.8984066e-09
7.839346e-09
7.7688471e-09
7.7307477e-09
7.6981795e-09
7.6723667e-09
7.6440488e-09
7.6131116e-09
7.587165e-09
7.583027e-09
7.6002428e-09
7.6215944e-09
7.6298933e-09
7.6225864e-09
7.600991e-09
7.569528e-09
7.5343545e-09
7.5008378e-09
7.4706951e-09
7.4442722e-09
7.4255784e-09
7.4156432e-09
7.4122273e-09
7.4167027e-09
7.4264549e-09
7.434362e-09
7.446319e-09
7.4703495e-09
7.482595e-09
7.4785012e-09
7.4248191e-09
7.3827138e-09
7.3608073e-09
7.3522186e-09
7.3497039e-09
7.3491645e-09
7.3490817e-09
7.3490728e-09
7.3490722e-09
7.3490722e-09
7.3490722e-09
0.00034063029
0.0005742878
0.00041039665
2.4212983e-05
1.6303734e-08
8.3003117e-09
8.486541e-09
8.099002e-09
8.0455321e-09
7.8898518e-09
7.8336714e-09
7.7670872e-09
7.7305617e-09
7.6999764e-09
7.6768839e-09
7.6529211e-09
7.6265403e-09
7.6025221e-09
7.5960702e-09
7.6067033e-09
7.6250239e-09
7.6317899e-09
7.6239789e-09
7.6024136e-09
7.5709571e-09
7.5353385e-09
7.5011141e-09
7.4705439e-09
7.444088e-09
7.425633e-09
7.4162074e-09
7.4134706e-09
7.4186594e-09
7.4291077e-09
7.4371073e-09
7.4503044e-09
7.4754124e-09
7.4868933e-09
7.477456e-09
7.4208653e-09
7.3802002e-09
7.3596492e-09
7.3518318e-09
7.3496107e-09
7.3491486e-09
7.3490799e-09
7.3490727e-09
7.3490722e-09
7.3490722e-09
7.3490722e-09
0.00033779253
0.00055250636
0.00035985571
1.042468e-05
1.3104457e-08
8.2562122e-09
8.4464012e-09
8.079809e-09
8.0292981e-09
7.8826386e-09
7.8292939e-09
7.766552e-09
7.7315805e-09
7.7027938e-09
7.6820348e-09
7.6619302e-09
7.6400565e-09
7.6186537e-09
7.609414e-09
7.6148859e-09
7.6294863e-09
7.6341373e-09
7.6251814e-09
7.6032094e-09
7.5716214e-09
7.5356651e-09
7.5008391e-09
7.4699005e-09
7.4435728e-09
7.4256162e-09
7.4168904e-09
7.415078e-09
7.4207252e-09
7.4316455e-09
7.4398611e-09
7.4544444e-09
7.4803079e-09
7.4912752e-09
7.4753999e-09
7.4168034e-09
7.3777184e-09
7.3585545e-09
7.3514804e-09
7.3495293e-09
7.3491353e-09
7.3490783e-09
7.3490725e-09
7.3490722e-09
7.3490722e-09
7.3490722e-09
0.00033509894
0.00053062167
0.0003089146
4.0075486e-06
1.1364167e-08
8.2196827e-09
8.4089647e-09
8.0624174e-09
8.0146526e-09
7.8767897e-09
7.8262173e-09
7.7672372e-09
7.7338163e-09
7.7066913e-09
7.6879421e-09
7.6712108e-09
7.6535905e-09
7.6351387e-09
7.6233813e-09
7.6247914e-09
7.6350299e-09
7.6370513e-09
7.6263737e-09
7.6035553e-09
7.571657e-09
7.535443e-09
7.5001319e-09
7.4688316e-09
7.442803e-09
7.4255223e-09
7.417709e-09
7.4171649e-09
7.4231801e-09
7.4340991e-09
7.4426041e-09
7.4587137e-09
7.4849814e-09
7.4954119e-09
7.4723019e-09
7.4127126e-09
7.3752936e-09
7.3575311e-09
7.3511645e-09
7.3494589e-09
7.3491242e-09
7.3490771e-09
7.3490725e-09
7.3490722e-09
7.3490722e-09
7.3490722e-09
0.00033264953
0.00050790243
0.00025820548
1.4525709e-06
1.0384401e-08
8.1888173e-09
8.3736482e-09
8.0468225e-09
8.0015894e-09
7.872293e-09
7.824428e-09
7.7691373e-09
7.7372696e-09
7.7117237e-09
7.6947164e-09
7.6808735e-09
7.6670519e-09
7.6515757e-09
7.6387145e-09
7.63681e-09
7.6416763e-09
7.6405941e-09
7.6277095e-09
7.6036339e-09
7.5712163e-09
7.5347904e-09
7.4991666e-09
7.4675267e-09
7.4418496e-09
7.4253528e-09
7.4186089e-09
7.419666e-09
7.4263468e-09
7.4365236e-09
7.4454132e-09
7.463133e-09
7.4894917e-09
7.498984e-09
7.4681737e-09
7.4086226e-09
7.3729486e-09
7.3565824e-09
7.3508831e-09
7.3493986e-09
7.349115e-09
7.3490761e-09
7.3490724e-09
7.3490722e-09
7.3490722e-09
7.3490722e-09
0.00033067964
0.00048432563
0.00020844934
5.274218e-07
9.8176992e-09
8.1623173e-09
8.3404935e-09
8.0329636e-09
7.9900877e-09
7.8691319e-09
7.8239195e-09
7.77224e-09
7.741957e-09
7.7179275e-09
7.7024515e-09
7.6910352e-09
7.6804784e-09
7.6679025e-09
7.6552315e-09
7.6500302e-09
7.6493622e-09
7.6448001e-09
7.6293133e-09
7.6036198e-09
7.5704692e-09
7.5338294e-09
7.4980319e-09
7.4661418e-09
7.4408463e-09
7.4251654e-09
7.4194981e-09
7.422287e-09
7.429611e-09
7.4389898e-09
7.4484493e-09
7.467811e-09
7.4937714e-09
7.5020102e-09
7.4632251e-09
7.404501e-09
7.3707048e-09
7.3557112e-09
7.3506346e-09
7.3493472e-09
7.3491074e-09
7.3490753e-09
7.3490723e-09
7.3490722e-09
7.3490722e-09
7.3490722e-09
0.00032933337
0.00046087604
0.00016085906
2.0669632e-07
9.4710229e-09
8.139336e-09
8.309451e-09
8.020816e-09
7.9801494e-09
7.8673056e-09
7.8246925e-09
7.7765523e-09
7.7478773e-09
7.7253442e-09
7.7112294e-09
7.7018195e-09
7.6939978e-09
7.6841848e-09
7.6723066e-09
7.6632534e-09
7.6580152e-09
7.6496376e-09
7.6312586e-09
7.6036591e-09
7.5695752e-09
7.5326994e-09
7.4968185e-09
7.4648223e-09
7.4399564e-09
7.425059e-09
7.4203029e-09
7.4246781e-09
7.4326526e-09
7.4415985e-09
7.4518593e-09
7.4729134e-09
7.4977263e-09
7.5043368e-09
7.4576201e-09
7.4003692e-09
7.3685813e-09
7.354919e-09
7.350417e-09
7.3493037e-09
7.3491012e-09
7.3490747e-09
7.3490723e-09
7.3490722e-09
7.3490722e-09
7.3490722e-09
0.00032828928
0.00043417655
0.00011599124
9.143545e-08
9.2471185e-09
8.1194247e-09
8.2804995e-09
8.0103734e-09
7.9717837e-09
7.8668177e-09
7.826754e-09
7.7820684e-09
7.7550466e-09
7.7339934e-09
7.7211149e-09
7.7133446e-09
7.7077369e-09
7.7003271e-09
7.6893094e-09
7.6770776e-09
7.6675166e-09
7.6550254e-09
7.6335654e-09
7.6038558e-09
7.568673e-09
7.5315376e-09
7.4956365e-09
7.4636663e-09
7.4393377e-09
7.4252045e-09
7.4210062e-09
7.4265767e-09
7.4353285e-09
7.4442456e-09
7.4556378e-09
7.4786114e-09
7.5012897e-09
7.5058698e-09
7.4515164e-09
7.3962889e-09
7.3665931e-09
7.3542053e-09
7.3502278e-09
7.349267e-09
7.3490961e-09
7.3490742e-09
7.3490723e-09
7.3490722e-09
7.3490722e-09
7.3490722e-09
0.00032739212
0.00040354215
7.5798303e-05
4.6992819e-08
9.0928911e-09
8.1023121e-09
8.2535908e-09
8.0016305e-09
7.964995e-09
7.8676703e-09
7.8301036e-09
7.7887976e-09
7.7634622e-09
7.7439026e-09
7.7321613e-09
7.7257063e-09
7.7217816e-09
7.7162121e-09
7.705883e-09
7.6916321e-09
7.6775543e-09
7.6608214e-09
7.6361922e-09
7.6042625e-09
7.5678713e-09
7.5303291e-09
7.4945011e-09
7.462691e-09
7.4390495e-09
7.4257138e-09
7.4217574e-09
7.4282056e-09
7.4375158e-09
7.4467717e-09
7.4597651e-09
7.4849214e-09
7.5046313e-09
7.5062726e-09
7.4451013e-09
7.3923251e-09
7.3647503e-09
7.3535675e-09
7.3500641e-09
7.3492363e-09
7.349092e-09
7.3490738e-09
7.3490722e-09
7.3490722e-09
7.3490722e-09
7.3490722e-09
0.00032650675
0.000369444
4.4455965e-05
2.8263236e-08
8.9795811e-09
8.0878351e-09
8.2287042e-09
7.9945749e-09
7.9597925e-09
7.8698649e-09
7.8347543e-09
7.7967449e-09
7.7731451e-09
7.755081e-09
7.7444046e-09
7.738982e-09
7.7362205e-09
7.7318492e-09
7.7218844e-09
7.7061322e-09
7.6875039e-09
7.6668458e-09
7.6390378e-09
7.604868e-09
7.5672548e-09
7.5292087e-09
7.4933931e-09
7.4618558e-09
7.4390495e-09
7.4265433e-09
7.4227432e-09
7.4296057e-09
7.4392227e-09
7.4491357e-09
7.4643678e-09
7.4915265e-09
7.5081796e-09
7.5057683e-09
7.4385976e-09
7.38853e-09
7.3630573e-09
7.3530014e-09
7.3499233e-09
7.3492107e-09
7.3490887e-09
7.3490735e-09
7.3490722e-09
7.3490722e-09
7.3490722e-09
7.3490722e-09
0.00032533633
0.00033142138
2.3021599e-05
1.9502279e-08
8.8910812e-09
8.0759279e-09
8.2057926e-09
7.9891933e-09
7.956187e-09
7.8734168e-09
7.8407268e-09
7.805939e-09
7.7841018e-09
7.7675472e-09
7.7578673e-09
7.7532237e-09
7.7511339e-09
7.7472579e-09
7.7372013e-09
7.7199654e-09
7.6976768e-09
7.6728543e-09
7.641952e-09
7.6055998e-09
7.5667193e-09
7.5281738e-09
7.4922854e-09
7.4610464e-09
7.4391821e-09
7.4275749e-09
7.4241109e-09
7.4307818e-09
7.440596e-09
7.451474e-09
7.4695234e-09
7.497844e-09
7.5121899e-09
7.5033144e-09
7.4322368e-09
7.3849356e-09
7.3615139e-09
7.352502e-09
7.3498027e-09
7.3491893e-09
7.3490859e-09
7.3490733e-09
7.3490722e-09
7.3490722e-09
7.3490722e-09
7.3490722e-09
0.00032346973
0.00028956355
1.057093e-05
1.505703e-08
8.8183149e-09
8.0666646e-09
8.184797e-09
7.9854846e-09
7.9542116e-09
7.8783605e-09
7.8480616e-09
7.8164036e-09
7.7963572e-09
7.7812977e-09
7.7725526e-09
7.7684611e-09
7.7665634e-09
7.7624536e-09
7.7517638e-09
7.7329063e-09
7.7075329e-09
7.6785987e-09
7.644748e-09
7.6063557e-09
7.5661909e-09
7.5271512e-09
7.4910994e-09
7.4601624e-09
7.4392489e-09
7.4285059e-09
7.4255048e-09
7.4320853e-09
7.4421029e-09
7.4540156e-09
7.4750518e-09
7.5036703e-09
7.5162665e-09
7.4987493e-09
7.426175e-09
7.381555e-09
7.3601169e-09
7.3520639e-09
7.3496999e-09
7.3491715e-09
7.3490837e-09
7.3490731e-09
7.3490722e-09