/*--------------------------------*- C++ -*----------------------------------*\
| =========                 |                                                 |
| \\      /  F ield         | OpenFOAM: The Open Source CFD Toolbox           |
|  \\    /   O peration     | Version:  2306                                  |
|   \\  /    A nd           | Website:  www.openfoam.com                      |
|    \\/     M anipulation  |                                                 |
\*---------------------------------------------------------------------------*/
FoamFile
{
    version     2.0;
    format      ascii;
    arch        "LSB;label=32;scalar=64";
    class       volScalarField;
    location    "0.003";
    object      p;
}
// * * * * * * * * * * * * * * * * * * * * * * * * * * * * * * * * * * * * * //

dimensions      [1 -1 -2 0 0 0 0];

internalField   nonuniform List<scalar> 
20000
(
99043.707
99045.783
99047.961
99051.194
99055.59
99061.482
99068.897
99077.637
99088.078
99100.48
99115.028
99132.434
99152.553
99176.599
99204.203
99236.85
99274.113
99317.374
99366.135
99421.195
99481.705
99547.465
99616.676
99687.548
99757.186
99822.65
99880.968
99930.136
99968.839
99998.023
100019.05
100033.56
100044.74
100063.63
100111.11
100181.82
100248.1
100358.19
100458.08
100485.11
100323.47
100150.95
100053.37
100014.4
100002.97
100000.47
100000.05
100000
100000
100000
99049.189
99051.493
99053.716
99057.052
99061.634
99067.791
99075.563
99084.672
99095.487
99108.304
99123.289
99141.232
99161.912
99186.645
99214.979
99248.504
99286.728
99331.095
99381.048
99437.366
99499.149
99566.016
99636.059
99707.338
99776.726
99841.232
99897.916
99944.823
99980.905
100007.44
100026.24
100039.18
100049.79
100069.2
100117.11
100186.35
100251.39
100363.77
100461.39
100491.04
100329.63
100155.2
100055.99
100015.56
100003.33
100000.55
100000.07
100000.01
100000
100000
99056.24
99058.543
99060.883
99064.342
99069.098
99075.448
99083.435
99092.843
99104.017
99117.25
99132.684
99151.189
99172.469
99197.939
99227.067
99261.525
99300.762
99346.267
99397.431
99455.017
99518.053
99586.016
99656.88
99728.504
99797.588
99861.047
99915.959
99960.413
99993.688
100017.36
100033.77
100045.03
100055.01
100074.94
100123.29
100191.19
100255.21
100369.76
100465.41
100496.97
100335.29
100159.22
100058.39
100016.63
100003.66
100000.61
100000.08
100000.01
100000
100000
99064.573
99066.889
99069.33
99072.9
99077.828
99084.373
99092.609
99102.296
99113.824
99127.496
99143.398
99162.494
99184.401
99210.638
99240.59
99276.015
99316.303
99362.983
99415.397
99474.285
99538.596
99607.659
99679.297
99751.163
99819.837
99882.096
99935.041
99976.885
100007.21
100027.84
100041.71
100051.19
100060.47
100080.85
100129.62
100196.27
100259.45
100376.05
100470.03
100502.92
100340.59
100163.04
100060.61
100017.59
100003.95
100000.68
100000.08
100000.01
100000
100000
99073.91
99076.293
99078.873
99082.612
99087.79
99094.618
99103.181
99113.168
99125.044
99139.15
99155.517
99175.208
99197.748
99224.772
99255.574
99292.002
99333.379
99381.274
99434.975
99495.199
99560.797
99630.948
99703.307
99775.321
99843.421
99904.271
99955.011
99994.04
100021.2
100038.65
100049.92
100057.58
100066.13
100086.91
100136.08
100201.57
100264.1
100382.73
100475.32
100508.9
100345.46
100166.54
100062.61
100018.42
100004.2
100000.73
100000.09
100000.01
100000
100000
99084.988
99087.432
99090.126
99093.989
99099.364
99106.4
99115.214
99125.486
99137.696
99152.232
99169.063
99189.356
99212.542
99240.374
99272.056
99309.52
99352.03
99401.182
99456.211
99517.804
99584.71
99655.933
99728.948
99800.993
99868.342
99927.561
99975.846
100011.82
100035.58
100049.7
100058.28
100064.1
100071.94
100093.13
100142.68
100207.04
100269.11
100389.72
100481.2
100514.97
100349.97
100169.7
100064.38
100019.14
100004.42
100000.77
100000.1
100000.01
100000
100000
99097.17
99099.687
99102.516
99106.543
99112.166
99119.459
99128.56
99139.146
99151.709
99166.696
99184.006
99204.925
99228.783
99257.456
99290.055
99328.601
99372.286
99422.739
99479.14
99542.131
99610.353
99682.618
99756.213
99828.156
99894.557
99951.901
99997.467
100030.14
100050.27
100060.9
100066.71
100070.69
100077.86
100099.53
100149.48
100212.73
100274.47
100396.99
100487.61
100521.13
100354.15
100172.51
100065.92
100019.75
100004.6
100000.81
100000.1
100000.01
100000
100000
99110.799
99113.384
99116.328
99120.502
99126.355
99133.876
99143.238
99154.135
99167.058
99182.522
99200.338
99221.922
99246.49
99276.046
99309.606
99349.276
99394.188
99445.988
99503.801
99568.211
99637.717
99710.981
99785.069
99856.763
99922.001
99977.208
100019.79
100048.89
100065.18
100072.17
100075.15
100077.29
100083.87
100106.14
100156.59
100218.79
100280.29
100404.62
100494.58
100527.4
100358.06
100175.01
100067.23
100020.27
100004.75
100000.84
100000.11
100000.01
100000
100000
99125.381
99128.089
99131.156
99135.516
99141.657
99149.465
99159.157
99170.429
99183.758
99199.744
99218.102
99240.387
99265.697
99296.176
99330.739
99371.584
99417.775
99470.973
99530.241
99596.09
99666.865
99741.083
99815.566
99886.84
99950.676
100003.46
100042.79
100068.04
100080.27
100083.48
100083.56
100083.92
100089.99
100112.98
100164.05
100225.27
100286.65
100412.89
100502.21
100533.83
100361.72
100177.2
100068.3
100020.63
100004.83
100000.85
100000.11
100000.01
100000
100000
99141.496
99144.334
99147.533
99152.077
99158.5
99166.572
99176.567
99188.198
99201.918
99218.428
99237.334
99260.343
99286.426
99317.87
99353.488
99395.561
99443.092
99497.741
99558.515
99625.835
99697.891
99773.012
99847.77
99918.431
99980.6
100030.65
100066.43
100087.53
100095.49
100094.81
100091.95
100090.57
100096.23
100120.06
100171.83
100232.15
100293.59
100421.87
100510.62
100540.45
100365.06
100178.97
100068.98
100020.82
100004.86
100000.86
100000.11
100000.01
100000
100000
99158.972
99161.93
99165.242
99169.964
99176.67
99185.009
99195.309
99207.322
99221.454
99238.522
99258.01
99281.786
99308.689
99341.151
99377.883
99421.249
99470.185
99526.349
99588.685
99657.514
99730.853
99806.811
99881.707
99951.535
100011.74
100058.77
100090.66
100107.28
100110.84
100106.13
100100.29
100097.26
100102.59
100127.4
100179.94
100239.44
100301.1
100431.58
100519.85
100547.23
100367.88
100179.94
100069.26
100020.88
100004.87
100000.86
100000.11
100000.01
100000
100000
99177.426
99180.545
99184.021
99188.979
99196.027
99204.683
99215.331
99227.77
99242.353
99260.023
99280.137
99304.736
99332.515
99366.059
99403.975
99448.7
99499.112
99556.855
99620.815
99691.191
99765.803
99842.519
99917.394
99986.141
100044.07
100087.75
100115.37
100127.24
100126.24
100117.37
100108.55
100103.97
100109.1
100135
100188.38
100247.13
100309.2
100442.02
100529.92
100554.08
100369.86
100180.24
100069.27
100020.83
100004.85
100000.85
100000.11
100000.01
100000
100000
99197.332
99200.593
99204.21
99209.386
99216.747
99225.697
99236.697
99249.587
99264.649
99282.968
99303.759
99329.244
99357.965
99392.658
99431.824
99477.977
99529.934
99589.318
99654.95
99726.885
99802.743
99880.118
99954.79
100022.18
100077.5
100117.46
100140.42
100147.33
100141.56
100128.46
100116.71
100110.67
100115.76
100142.9
100197.19
100255.26
100317.94
100453.27
100540.89
100560.92
100370.8
100179.96
100068.85
100020.6
100004.76
100000.83
100000.1
100000.01
100000
100000
99218.53
99221.949
99225.702
99231.091
99238.745
99247.993
99259.399
99272.814
99288.427
99307.468
99328.992
99355.419
99385.134
99421.031
99461.51
99509.154
99562.722
99623.8
99691.14
99764.604
99841.656
99919.577
99993.838
100059.57
100111.94
100147.78
100165.65
100167.43
100156.71
100139.31
100124.71
100117.36
100122.58
100151.13
100206.39
100263.86
100327.39
100465.38
100552.83
100567.66
100371.01
100178.94
100068.01
100020.2
100004.63
100000.79
100000.1
100000.01
100000
100000
99241.061
99244.676
99248.614
99254.288
99262.311
99271.972
99283.811
99297.763
99313.926
99333.697
99355.963
99383.358
99414.101
99451.252
99493.103
99542.303
99597.545
99660.376
99729.46
99804.452
99882.643
99960.972
100034.58
100098.31
100147.38
100178.61
100191.08
100187.49
100171.65
100149.92
100132.56
100124.04
100129.59
100159.68
100215.95
100272.9
100337.52
100478.29
100565.79
100574.17
100370.35
100177.19
100066.77
100019.64
100004.44
100000.75
100000.09
100000.01
100000
100000
99265.516
99269.313
99273.425
99279.376
99287.762
99297.793
99309.998
99324.452
99341.151
99361.666
99384.7
99413.105
99444.927
99483.384
99526.673
99577.489
99634.475
99699.125
99770.006
99846.54
99925.798
100004.37
100077.04
100138.42
100183.76
100209.86
100216.66
100207.42
100186.32
100160.25
100140.27
100130.73
100136.79
100168.56
100225.84
100282.34
100348.34
100491.98
100579.76
100580.33
100368.69
100174.74
100065.17
100018.94
100004.22
100000.7
100000.08
100000.01
100000
100000
99291.224
99295.245
99299.564
99305.849
99314.651
99325.101
99337.771
99352.809
99370.098
99391.413
99415.257
99444.722
99477.671
99517.492
99562.283
99614.785
99673.587
99740.118
99812.832
99890.895
99971.13
100049.75
100121.17
100179.82
100220.93
100241.4
100242.27
100227.11
100200.65
100170.25
100147.82
100137.43
100144.2
100177.77
100236.05
100292.21
100359.92
100506.49
100594.66
100585.94
100365.97
100171.56
100063.21
100018.11
100003.96
100000.64
100000.08
100000.01
100000
100000
99318.974
99323.206
99327.71
99334.301
99343.478
99354.299
99367.397
99383.006
99400.879
99423.016
99447.695
99478.26
99512.393
99553.636
99599.999
99654.254
99714.944
99783.407
99857.944
99937.501
100018.6
100097.03
100166.85
100222.37
100258.66
100273.11
100267.7
100246.41
100214.49
100179.84
100155.16
100144.12
100151.83
100187.33
100246.61
100302.55
100372.42
100521.96
100610.48
100590.73
100362.05
100167.62
100060.91
100017.17
100003.68
100000.58
100000.07
100000.01
100000
100000
99348.239
99352.704
99357.403
99364.341
99373.939
99385.171
99398.741
99414.974
99433.47
99456.485
99482.047
99513.766
99549.141
99591.873
99639.886
99695.973
99758.629
99829.077
99905.45
99986.457
100068.27
100146.24
100214.08
100266
100296.85
100304.92
100292.86
100265.25
100227.82
100189.02
100162.31
100150.83
100159.7
100197.22
100257.45
100313.34
100385.88
100538.29
100626.97
100594.37
100356.99
100163.04
100058.34
100016.15
100003.39
100000.52
100000.06
100000
100000
100000
99379.138
99383.867
99388.795
99396.13
99406.185
99417.84
99431.896
99448.781
99467.92
99491.856
99518.345
99551.272
99587.956
99632.253
99682.011
99740.023
99804.743
99877.25
99955.493
100037.89
100120.25
100197.44
100262.9
100310.64
100335.43
100336.75
100317.69
100283.59
100240.6
100197.78
100169.29
100157.56
100167.8
100207.42
100268.54
100324.57
100400.39
100555.5
100644.08
100596.6
100350.73
100157.79
100055.51
100015.07
100003.09
100000.46
100000.05
100000
100000
100000
99411.783
99416.771
99421.934
99429.668
99440.147
99452.23
99466.797
99484.384
99504.198
99529.107
99556.576
99590.794
99628.884
99674.847
99726.46
99786.507
99853.395
99928.02
100008.14
100091.83
100174.51
100250.57
100313.19
100356.08
100374.3
100368.42
100342.04
100301.31
100252.74
100206.09
100176.07
100164.31
100176.15
100217.92
100279.87
100336.28
100416.04
100573.5
100661.73
100597.63
100343.33
100151.97
100052.48
100013.94
100002.79
100000.41
100000.04
100000
100000
100000
99445.893
99451.181
99456.622
99464.796
99475.742
99488.303
99503.405
99521.748
99542.284
99568.246
99596.791
99632.408
99672.022
99719.762
99773.347
99835.534
99904.662
99981.414
100063.37
100148.24
100230.97
100305.49
100364.77
100402.06
100413.24
100399.65
100365.69
100318.23
100264.12
100213.86
100182.62
100171.09
100184.77
100228.76
100291.47
100348.62
100433.02
100592.14
100679.89
100597.16
100334.76
100145.56
100049.26
100012.79
100002.49
100000.35
100000.04
100000
100000
100000
99481.762
99487.312
99493.003
99501.557
99512.939
99525.995
99541.673
99560.875
99582.238
99609.382
99639.133
99676.267
99717.519
99767.14
99822.799
99887.205
99958.602
100037.49
100121.23
100207.11
100289.57
100362.13
100417.42
100448.37
100452.03
100430.27
100388.49
100334.25
100274.64
100221.08
100188.94
100177.91
100193.69
100239.95
100303.34
100361.71
100451.57
100611.05
100698.24
100594.49
100325.08
100138.66
100045.92
100011.63
100002.2
100000.3
100000.03
100000
100000
100000
99518.782
99524.684
99530.722
99539.731
99551.701
99565.453
99581.855
99602.072
99624.366
99652.784
99683.812
99722.529
99765.511
99817.103
99874.926
99941.617
100015.33
100096.36
100181.83
100268.51
100350.35
100420.44
100471.01
100494.92
100490.52
100460.14
100410.36
100349.29
100284.3
100227.73
100195.04
100184.78
100202.92
100251.46
100315.43
100375.57
100471.82
100630.25
100716.31
100589.35
100314.38
100131.34
100042.51
100010.49
100001.92
100000.25
100000.02
100000
100000
100000
99558.371
99564.627
99571.05
99580.507
99593.128
99607.558
99624.592
99645.771
99668.947
99698.631
99730.956
99771.299
99816.082
99869.728
99929.79
99998.838
100074.94
100158.14
100245.24
100332.47
100413.27
100480.35
100525.33
100541.62
100528.5
100489.13
100431.17
100363.3
100293.06
100233.83
100200.94
100191.74
100212.46
100263.28
100327.74
100390.28
100494.07
100649.89
100733.99
100581.48
100302.62
100123.61
100039.04
100009.37
100001.66
100000.21
100000.02
100000
100000
100000
99600.355
99606.963
99613.796
99623.731
99636.952
99652.013
99669.656
99691.829
99715.923
99746.928
99780.618
99822.661
99869.324
99925.103
99987.514
100059.01
100137.58
100222.92
100311.51
100398.98
100478.29
100541.7
100580.16
100588.23
100565.75
100517.04
100450.81
100376.19
100300.88
100239.38
100206.64
100198.81
100222.35
100275.42
100340.29
100405.83
100518.64
100669.81
100750.87
100570.79
100289.88
100115.6
100035.59
100008.31
100001.43
100000.18
100000.02
100000
100000
100000
99644.138
99651.161
99658.489
99668.976
99682.831
99698.68
99717.005
99740.265
99765.343
99797.743
99832.879
99876.707
99925.358
99983.371
100048.24
100122.28
100203.34
100290.8
100380.7
100468.06
100545.35
100604.26
100635.33
100634.52
100602.08
100543.73
100469.16
100387.89
100307.74
100244.38
100212.13
100206.01
100232.6
100287.88
100353.06
100422.16
100545.72
100689.91
100766.4
100557.39
100276.19
100107.45
100032.22
100007.31
100001.22
100000.15
100000.01
100000
100000
100000
99690.458
99697.883
99705.731
99716.728
99731.145
99747.786
99766.781
99791.165
99817.276
99851.148
99887.829
99933.548
99984.305
100044.67
100112.11
100188.76
100272.35
100361.85
100452.83
100539.66
100614.34
100667.77
100690.7
100680.2
100637.26
100569.03
100486.12
100398.32
100313.61
100248.84
100217.41
100213.38
100243.22
100300.63
100366.04
100439.32
100575.32
100710.43
100779.94
100541.39
100261.7
100099.26
100028.98
100006.38
100001.03
100000.12
100000.01
100000
100000
100000
99738.819
99746.687
99755.098
99766.64
99781.655
99799.197
99818.938
99844.558
99871.806
99907.257
99945.596
99993.314
100046.3
100109.14
100179.26
100258.61
100344.74
100436.16
100527.93
100613.75
100685.1
100731.99
100746.03
100725
100671.09
100592.79
100501.58
100407.46
100318.47
100252.8
100222.46
100220.91
100254.2
100313.65
100379.23
100457.63
100607.15
100732.11
100790.64
100522.93
100246.59
100091.14
100025.9
100005.54
100000.86
100000.1
100000.01
100000
100000
100000
99789.457
99797.81
99806.832
99818.977
99834.624
99853.166
99873.708
99900.644
99929.103
99966.217
100006.32
100056.14
100111.49
100176.92
100249.84
100331.95
100420.61
100513.81
100606.01
100690.26
100757.42
100796.66
100801.02
100768.67
100703.36
100614.86
100515.47
100415.23
100322.32
100256.29
100227.26
100228.6
100265.53
100326.91
100392.7
100477.76
100640.51
100755.78
100797.01
100502.23
100231.03
100083.17
100023
100004.77
100000.72
100000.08
100000.01
100000
100000
100000
99842.623
99851.504
99861.194
99873.992
99890.248
99909.851
99931.222
99959.529
99989.256
100028.12
100070.09
100122.15
100180.02
100248.18
100324.02
100408.96
100500.1
100594.86
100687.05
100769.1
100831
100861.61
100855.34
100810.95
100733.86
100635.12
100527.71
100421.59
100325.18
100259.29
100231.86
100236.47
100277.2
100340.41
100406.61
100500.13
100674.44
100782.17
100799.77
100479.63
100215.24
100075.45
100020.3
100004.09
100000.6
100000.06
100000
100000
100000
100000
99898.4
99907.825
99918.207
99931.676
99948.508
99969.208
99991.441
100021.2
100052.3
100093.05
100137.07
100191.53
100252.08
100323.12
100401.98
100489.77
100583.31
100679.34
100771.02
100850.11
100905.52
100926.57
100908.64
100851.55
100762.41
100653.45
100538.22
100426.49
100327.05
100261.82
100236.27
100244.54
100289.18
100354.15
100421.17
100524.36
100708.07
100811.42
100796.78
100455.62
100199.42
100068.05
100017.82
100003.49
100000.5
100000.05
100000
100000
100000
100000
99956.581
99966.577
99977.627
99991.794
100009.24
100031.15
100054.37
100085.77
100118.43
100161.25
100207.5
100264.52
100327.92
100401.95
100483.9
100574.55
100670.34
100767.27
100857.87
100933.07
100980.67
100991.2
100960.59
100890.23
100788.83
100669.75
100546.93
100429.91
100327.92
100263.89
100240.5
100252.82
100301.44
100368.15
100436.59
100550.03
100740.97
100841.48
100786.75
100430.77
100183.76
100061.04
100015.56
100002.97
100000.41
100000.04
100000
100000
100000
100000
100017
100027.66
100039.4
100054.43
100072.69
100096.05
100120.46
100153.68
100188.06
100233.08
100281.69
100341.39
100407.74
100484.86
100569.98
100663.45
100761.27
100858.67
100947.49
101017.65
101056.13
101055.11
101010.85
100926.72
100812.95
100683.92
100553.79
100431.66
100327.94
100265.53
100244.56
100261.28
100313.96
100382.45
100453.12
100577.15
100773.02
100870.31
100769.85
100405.56
100168.41
100054.48
100013.53
100002.51
100000.34
100000.03
100000
100000
100000
100000
100080.61
100092.02
100104.53
100120.77
100139.94
100164.79
100190.33
100225.4
100261.53
100308.78
100359.85
100422.32
100491.76
100572.06
100660.38
100756.58
100856.14
100953.49
101039.7
101103.41
101131.69
101117.83
101059.07
100960.76
100834.62
100695.88
100558.88
100431.95
100327.1
100266.75
100248.47
100269.87
100326.69
100397.13
100471.17
100606
100804.16
100897.3
100746.63
100380.18
100153.53
100048.4
100011.72
100002.12
100000.28
100000.03
100000
100000
100000
100000
100148.13
100160.32
100173.71
100191.13
100210.98
100237.34
100264.01
100300.95
100338.89
100388.49
100442.15
100507.52
100580.16
100663.73
100755.27
100854.06
100955
101051.65
101134.25
101189.99
101206.9
101178.92
101104.92
100992.13
100853.71
100705.58
100561.99
100430.7
100325.37
100267.57
100252.22
100278.57
100339.58
100412.26
100491.27
100637.23
100833.89
100922.22
100718.14
100354.46
100139.25
100042.81
100010.12
100001.79
100000.23
100000.02
100000
100000
100000
100000
100219.16
100232.18
100246.4
100265
100285.58
100313.55
100341.46
100380.39
100420.3
100472.37
100528.78
100597.18
100673.17
100760.09
100854.81
100955.99
101057.84
101153.05
101230.79
101276.96
101281.27
101237.97
101148.06
101020.62
100870.11
100713.08
100563.15
100427.91
100322.79
100267.98
100255.8
100287.35
100352.6
100427.97
100513.93
100671.72
100861.53
100943.76
100685.23
100328.56
100125.71
100037.73
100008.72
100001.51
100000.19
100000.02
100000
100000
100000
100000
100293.57
100307.55
100322.6
100342.52
100363.88
100393.61
100422.87
100463.94
100505.97
100560.65
100619.98
100691.55
100771
100861.32
100959.16
101062.44
101164.64
101257.5
101328.78
101364
101354.24
101294.51
101188.17
101046.04
100883.76
100718.36
100562.44
100423.62
100319.37
100268
100259.19
100296.19
100365.7
100444.34
100539.41
100710.35
100886.95
100960.28
100648.84
100302.9
100113
100033.15
100007.5
100001.27
100000.16
100000.01
100000
100000
100000
100000
100371.63
100386.69
100402.6
100423.98
100446.2
100477.79
100508.52
100551.85
100596.14
100653.57
100715.97
100790.85
100873.89
100967.64
101068.47
101173.45
101275.3
101364.68
101427.74
101450.62
101425.22
101348.13
101224.94
101068.22
100894.66
100721.1
100559.81
100417.88
100315.19
100267.59
100262.41
100305.07
100378.86
100461.47
100567.95
100753.23
100911.2
100969.35
100610.13
100277.89
100101.2
100029.06
100006.44
100001.07
100000.13
100000.01
100000
100000
100000
100000
100453.69
100469.96
100486.71
100509.63
100532.77
100566.33
100598.63
100644.33
100691.01
100751.33
100816.99
100895.33
100982.07
101079.25
101182.84
101289.03
101389.68
101474.17
101527.12
101536.2
101493.66
101398.38
101258.11
101087.05
100902.87
100721.64
100555.3
100410.74
100310.31
100266.63
100265.51
100313.95
100391.96
100479.42
100600.52
100798.9
100936.8
100971.94
100570.47
100253.87
100090.34
100025.42
100005.53
100000.9
100000.11
100000.01
100000
100000
100000
100000
100539.88
100557.53
100575.1
100599.64
100623.77
100659.39
100693.31
100741.53
100790.8
100854.19
100923.32
101005.29
101095.82
101196.35
101302.38
101409.13
101507.55
101585.37
101626.45
101620.03
101559
101444.85
101287.42
101102.48
100908.11
100719.92
100548.93
100402.26
100304.79
100265.03
100268.54
100322.82
100405.01
100498.48
100637.33
100844.13
100966.18
100961.42
100531.32
100231.06
100080.42
100022.2
100004.75
100000.76
100000.09
100000.01
100000
100000
100000
100000
100630.21
100649.45
100667.76
100693.97
100719.15
100757.01
100792.75
100843.71
100895.84
100962.53
101035.36
101121.08
101215.41
101319.12
101427.14
101533.66
101628.53
101697.6
101725.16
101701.36
101620.67
101487.16
101312.71
101114.53
100910.39
100715.99
100540.66
100392.55
100298.62
100262.81
100271.53
100331.69
100418.17
100518.9
100677.19
100887.54
100997.98
100936.57
100493.69
100209.55
100071.43
100019.38
100004.08
100000.65
100000.08
100000.01
100000
100000
100000
100000
100724.57
100745.59
100764.62
100792.72
100819.14
100859.6
100897.41
100951.37
101006.63
101076.8
101153.49
101243.03
101341.11
101447.7
101557.09
101662.39
101752.08
101810.18
101822.47
101779.48
101678.13
101524.95
101333.86
101123.13
100910.03
100709.88
100530.46
100381.74
100291.8
100260.02
100274.49
100340.56
100431.54
100540.97
100718.95
100929.21
101029.55
100899.78
100457.43
100189.39
100063.34
100016.92
100003.51
100000.55
100000.06
100000.01
100000
100000
100000
100000
100824.11
100846.83
100866.57
100896.89
100924.67
100967.98
101008.06
101065.16
101123.71
101197.44
101278.07
101371.42
101473.09
101582.16
101692.17
101795.01
101877.45
101922.44
101917.48
101853.66
101730.83
101557.95
101350.81
101127.91
100906.99
100701.61
100518.36
100369.88
100284.32
100256.7
100277.43
100349.48
100445.37
100564.76
100761.94
100968.62
101059.26
100855.29
100421.86
100170.67
100056.09
100014.77
100003.03
100000.47
100000.05
100000
100000
100000
100000
100000
100928.85
100953.58
100974.59
101007.64
101036.67
101082.87
101125.24
101185.5
101247.44
101324.79
101409.41
101506.52
101611.53
101722.52
101832.2
101931.01
102003.76
102033.69
102009.23
101923.19
101778.3
101585.97
101363.56
101129.31
100901.37
100691.23
100504.44
100357.01
100276.2
100252.88
100280.35
100358.57
100459.95
100590.44
100805.94
101004.41
101084.95
100805.59
100387.19
100153.46
100049.65
100012.91
100002.62
100000.4
100000.05
100000
100000
100000
100000
100000
101040.38
101067.36
101089.41
101124.9
101155.18
101204.33
101249.09
101312.57
101378.07
101459.12
101547.8
101648.56
101756.54
101868.72
101976.85
102069.69
102130.13
102142.9
102096.8
101987.36
101820.14
101608.87
101371.73
101127.46
100893.24
100678.8
100488.78
100343.17
100267.46
100248.56
100283.22
100367.98
100475.62
100619.64
100851.23
101035.32
101103.47
100752.84
100353.99
100137.77
100043.95
100011.3
100002.28
100000.35
100000.04
100000
100000
100000
100000
100000
101158.03
101187.44
101210.37
101248.64
101280.19
101332.47
101379.85
101446.68
101515.96
101600.82
101693.55
101797.75
101908.16
102020.61
102125.67
102210.08
102255.7
102248.92
102179.27
102045.52
101856.05
101626.6
101375.41
101122.39
100882.74
100664.37
100471.43
100328.38
100258.11
100243.75
100285.97
100377.88
100493.1
100654.11
100897.32
101061.82
101113.36
100699.24
100322.78
100123.55
100038.92
100009.91
100001.98
100000.3
100000.03
100000
100000
100000
100000
100000
101282.17
101314.08
101337.72
101379.15
101412.09
101467.73
101517.99
101588.29
101661.54
101750.27
101846.96
101954.24
102066.37
102177.88
102277.95
102351.01
102379.49
102350.51
102255.72
102097.1
101885.78
101638.9
101375.08
101114.24
100869.97
100648
100452.47
100312.71
100248.11
100238.41
100288.56
100388.27
100513.25
100694.75
100942.95
101086.11
101113.09
100647.12
100293.81
100110.74
100034.5
100008.72
100001.73
100000.26
100000.03
100000
100000
100000
100000
100000
101412.96
101447.69
101472.15
101517.03
101551.45
101610.68
101664.16
101738
101815.29
101907.83
102008.27
102118.09
102230.99
102340.04
102432.69
102491.36
102500.14
102446.51
102325.28
102141.64
101909.18
101645.47
101370.7
101103.16
100855.07
100629.74
100432
100296.25
100237.39
100232.55
100291.12
100399.23
100536.62
100740.74
100986.99
101112.95
101093.66
100598.58
100267.04
100099.23
100030.62
100007.68
100001.52
100000.23
100000.03
100000
100000
100000
100000
100000
101550.77
101588.73
101613.85
101662.65
101698.67
101761.71
101818.89
101896.38
101977.64
102073.79
102177.61
102289.26
102401.72
102506.37
102588.54
102629.98
102616.13
102535.74
102387.18
102178.8
101926.09
101646.99
101362.44
101089.33
100838.16
100609.64
100410.18
100279.12
100225.66
100226.2
100293.69
100411.14
100563.37
100790.8
101029.99
101142.38
101055.22
100553.72
100242.35
100088.95
100027.23
100006.79
100001.34
100000.2
100000.02
100000
100000
100000
100000
100000
101696.3
101738.03
101763.48
101816.73
101854.54
101921.26
101982.26
102063.59
102148.86
102248.34
102355.05
102467.6
102578.03
102675.8
102744.03
102765.41
102725.93
102617.06
102440.78
102208.3
101936.04
101643.51
101350.49
101072.93
100819.34
100587.66
100387.21
100261.29
100212.77
100219.37
100296.16
100424.23
100593.78
100843.74
101072.16
101172.03
101003.08
100510.93
100219.67
100079.8
100024.26
100006.02
100001.18
100000.18
100000.02
100000
100000
100000
100000
100000
101851.35
101897.38
101922.92
101980.71
102020.37
102090.45
102154.69
102239.58
102329.15
102431.75
102540.61
102652.78
102759.1
102846.85
102897.62
102895.83
102828.02
102689.44
102485.55
102229.96
101939.59
101635.16
101335.06
101054.14
100798.67
100563.75
100363.31
100242.68
100198.71
100211.92
100298.58
100438.61
100628.46
100898.06
101112.11
101199.17
100943.91
100469.73
100199.03
100071.68
100021.67
100005.36
100001.05
100000.16
100000.02
100000
100000
100000
100000
100000
102016.12
102067.07
102092.25
102154.68
102196.2
102269.59
102337.37
102425.45
102519.04
102624.24
102734.14
102844.19
102943.73
103017.6
103047.74
103019.22
102920.95
102751.98
102521.1
102243.23
101937.01
101622.18
101316.4
101033.14
100776.22
100538.04
100338.5
100223.19
100183.43
100203.68
100301.1
100454.74
100667.88
100951.56
101147.32
101221.28
100881.2
100430.72
100180.39
100064.5
100019.41
100004.79
100000.94
100000.14
100000.02
100000
100000
100000
100000
100000
102190.36
102246.43
102271
102338.25
102382.03
102458.57
102530.5
102622.01
102718.98
102825.79
102935.17
103040.78
103130.16
103186.11
103192.13
103133.69
103003.35
102803.99
102547.11
102248.59
101928.4
101604.83
101294.77
101010.1
100752.07
100510.67
100312.81
100202.77
100166.85
100194.52
100303.95
100472.97
100712.52
101001.49
101176.16
101235.05
100817.95
100394.58
100163.65
100058.14
100017.43
100004.29
100000.84
100000.13
100000.01
100000
100000
100000
100000
100000
102376.09
102436.37
102459.64
102531.6
102578.46
102658.53
102734.98
102829.35
102928.92
103035.98
103142.79
103241.01
103316.02
103350.33
103328.31
103237.35
103074.04
102844.85
102562.99
102246.43
101914.06
101583.43
101270.41
100985.19
100726.27
100481.72
100286.22
100181.33
100148.89
100184.54
100307.13
100493.42
100761.63
101047.72
101199.78
101241.37
100757.33
100361.6
100148.62
100052.53
100015.71
100003.86
100000.75
100000.11
100000.01
100000
100000
100000
100000
100000
102572.73
102637.65
102661.24
102736.9
102787.77
102870.81
102951.2
103047.56
103148.47
103253.96
103355.52
103442.65
103498.78
103507.56
103453.82
103328.44
103132.04
102874.04
102569.26
102236.89
101894.33
101558.29
101243.57
100958.55
100698.9
100451.28
100258.7
100158.83
100129.51
100173.87
100310.27
100516.99
100813.17
101091.26
101222.32
101229.42
100701.9
100331.59
100135.14
100047.57
100014.2
100003.48
100000.68
100000.1
100000.01
100000
100000
100000
100000
100000
102781.34
102851.81
102876.63
102954.51
103009.68
103096.01
103179.32
103276.27
103376.69
103478.29
103571.28
103642.74
103675.74
103654.69
103566.25
103405.39
103176.48
102890.98
102566.31
102220.34
101869.6
101529.74
101214.49
100930.31
100669.99
100419.38
100230.22
100135.17
100108.6
100162.41
100313.79
100544.7
100865.69
101131.47
101247.78
101194.33
100652.15
100304.15
100123.09
100043.2
100012.87
100003.15
100000.61
100000.09
100000.01
100000
100000
100000
100000
100000
103003.82
103078.57
103105.14
103187.26
103245.34
103331.78
103417.73
103514.28
103612.17
103706.92
103787.17
103837.99
103843.52
103788.59
103663.38
103466.87
103206.55
102896.36
102554.38
102197.23
101840.29
101498.11
101183.4
100900.61
100639.59
100386.08
100200.7
100110.23
100085.96
100150.26
100318.46
100576.85
100918.57
101170.07
101274.15
101141.17
100606.04
100279.02
100112.34
100039.35
100011.71
100002.87
100000.56
100000.08
100000.01
100000
100000
100000
100000
100000
103239.41
103318.43
103346.89
103430.66
103493.06
103579.68
103666.3
103760.47
103852.93
103936.96
103999.35
104024.86
103998.19
103906.26
103743.2
103511.77
103221.97
102890.46
102533.95
102168.06
101806.81
101463.72
101150.5
100869.53
100607.71
100351.39
100170.05
100083.85
100061.39
100137.93
100324.84
100614.2
100970.57
101207
101299.9
101078.84
100561.94
100256.19
100102.78
100035.94
100010.69
100002.61
100000.51
100000.07
100000.01
100000
100000
100000
100000
100000
103489.19
103571.58
103602.46
103686.92
103752.07
103837.9
103923.31
104012.49
104095.87
104164.35
104203.51
104198.88
104135.85
104004.84
103803.92
103538.96
103223.43
102873.67
102505.59
102133.36
101769.6
101426.88
101115.97
100837.14
100574.38
100315.32
100138.08
100055.89
100035
100125.56
100333.58
100657.68
101018.77
101240.37
101324
101012.61
100520.26
100235.64
100094.27
100032.93
100009.79
100002.39
100000.46
100000.07
100000.01
100000
100000
100000
100000
100000
103753.02
103838.24
103871.58
103955.05