/*--------------------------------*- C++ -*----------------------------------*\
| =========                 |                                                 |
| \\      /  F ield         | OpenFOAM: The Open Source CFD Toolbox           |
|  \\    /   O peration     | Version:  2306                                  |
|   \\  /    A nd           | Website:  www.openfoam.com                      |
|    \\/     M anipulation  |                                                 |
\*---------------------------------------------------------------------------*/
FoamFile
{
    version     2.0;
    format      ascii;
    arch        "LSB;label=32;scalar=64";
    class       volScalarField;
    location    "0.003";
    object      rDeltaT;
}
// * * * * * * * * * * * * * * * * * * * * * * * * * * * * * * * * * * * * * //

dimensions      [0 0 -1 0 0 0 0];

internalField   nonuniform List<scalar> 
20000
(
18898.334
19276.301
18898.334
18527.779
18164.489
17808.323
17459.14
17116.804
16781.18
16488.068
16406.184
16310.563
16190.181
16055.517
15902.664
15732.55
15537.091
15308.102
15035.844
14712.989
14335.433
14054.346
13947.958
13865.835
13782.503
13699.826
13619.528
13543.926
13475.44
13415.134
13363.068
13318.054
13278.07
13239.225
13197.671
13161.215
13139.504
13125.68
13115.221
13136.897
13154.316
13166.519
13169.818
13169.966
13170.91
13173.154
13176.693
13181.519
13187.765
13195.648
19276.301
19661.827
19276.301
18898.334
18527.779
18164.489
17808.323
17459.14
17116.804
16814.759
16727.591
16626.391
16499.43
16356.864
16194.86
16014.68
15808.51
15568.397
15284.328
14948.801
14557.243
14271.806
13991.967
13593.956
13512.258
13431.202
13352.478
13278.359
13211.216
13152.092
13101.047
13056.916
13017.715
12979.633
12938.893
12903.152
12881.867
12868.314
12858.06
12879.311
12896.388
12908.352
12911.586
12911.731
12912.656
12914.857
12918.327
12923.058
12929.182
12936.91
19661.827
20055.064
19661.827
19276.301
18898.334
18527.779
18164.489
17808.323
17459.14
17146.535
17054.634
16948.031
16814.427
16663.624
16492.094
16301.182
16083.667
15831.647
15535.116
15186.187
14780.029
14490.225
14206.103
13927.552
13654.462
13386.728
13090.665
13017.999
12952.172
12894.208
12844.164
12800.898
12762.466
12725.13
12685.189
12650.149
12629.281
12615.994
12605.941
12626.775
12643.518
12655.247
12658.418
12658.56
12659.467
12661.624
12665.026
12669.665
12675.668
12683.245
20055.064
20456.165
20055.064
19661.827
19276.301
18898.334
18527.779
18164.489
17808.323
17482.005
17385.415
17273.311
17133.053
16973.909
16792.613
16590.577
16361.213
16096.626
15786.962
15423.985
15002.638
14708.468
14420.067
14137.321
13860.118
13588.351
13321.913
13060.699
12698.208
12641.381
12592.317
12549.9
12512.222
12475.618
12436.46
12402.107
12381.648
12368.621
12358.766
12379.191
12395.606
12407.105
12410.214
12410.353
12411.242
12413.357
12416.693
12421.24
12427.126
12434.554
20456.165
20865.288
20456.165
20055.064
19661.827
19276.301
18898.334
18527.779
18164.489
17821.212
17720.095
17602.491
17455.541
17287.916
17096.623
16883.011
16641.212
16363.419
16039.936
15662.204
15225.002
14926.473
14633.797
14346.86
14065.549
13789.754
13519.366
13254.281
12994.393
12739.601
12489.805
12303.824
12266.884
12230.998
12192.608
12158.928
12138.871
12126.099
12116.437
12136.462
12152.555
12163.828
12166.876
12167.013
12167.885
12169.958
12173.228
12177.686
12183.457
12190.739
20865.288
21282.594
20865.288
20456.165
20055.064
19661.827
19276.301
18898.334
18527.779
18166.61
18060.463
17936.94
17782.989
17606.457
17404.708
17178.942
16923.991
16632.204
16294.092
15900.825
15447.049
15144.166
14847.221
14556.099
14270.685
13990.868
13716.537
13447.586
13183.908
12925.4
12671.96
12423.491
12179.893
11991.174
11953.537
11920.518
11900.854
11888.333
11878.86
11898.492
11914.269
11925.322
11928.31
11928.444
11929.299
11931.332
11934.537
11938.908
11944.565
11951.705
21282.594
21708.246
21282.594
20865.288
20456.165
20055.064
19661.827
19276.301
18898.334
18517.179
18405.753
18276.005
18114.724
17928.925
17716.335
17477.917
17209.199
16902.617
16549.086
16139.508
15668.422
15361.198
15059.998
14764.704
14475.2
14191.373
13913.11
13640.304
13372.847
13110.635
12853.563
12601.533
12354.444
12112.2
11874.706
11686.782
11667.504
11655.228
11645.941
11665.189
11680.656
11691.492
11694.422
11694.553
11695.391
11697.384
11700.527
11704.812
11710.358
11717.358
21708.246
22142.411
21708.246
21282.594
20865.288
20456.165
20055.064
19661.827
19276.301
18872.549
18755.596
18619.293
18450.455
18255.101
18031.311
17779.685
17496.547
17174.443
16804.658
16377.979
16056.843
15742.002
15433.336
15130.721
14834.041
14543.177
14258.017
13978.448
13704.36
13435.648
13172.203
12913.925
12660.711
12412.462
12169.08
11930.471
11696.54
11426.694
11417.589
11436.459
11451.624
11462.247
11465.119
11465.248
11466.069
11468.023
11471.105
11475.306
11480.743
11487.606
22142.411
22585.259
22142.411
21708.246
21282.594
20865.288
20456.165
20055.064
19661.827
19232.345
19109.709
18966.618
18789.978
18584.748
18349.4
18084.072
17785.828
17447.401
17060.544
16615.933
16290.13
15970.716
15657.565
15350.554
15049.562
14754.473
14465.169
14181.539
13903.469
13630.852
13363.581
13101.55
12844.656
12592.8
12345.883
12103.807
11866.477
11633.801
11405.687
11212.215
11227.082
11237.497
11240.313
11240.439
11241.244
11243.16
11246.181
11250.3
11255.631
11262.359
22585.259
23036.964
22585.259
22142.411
21708.246
21282.594
20865.288
20456.165
20055.064
19597.888
19469.241
19318.878
19134.051
18918.429
18670.994
18391.348
18077.277
17721.655
17316.767
16853.295
16522.838
16198.861
15881.236
15569.839
15264.549
14965.244
14671.808
14384.125
14102.083
13825.572
13554.482
13288.708
13028.145
12772.691
12522.246
12276.712
12035.992
11799.992
11568.62
11341.784
11119.396
11017.154
11019.915
11020.038
11020.828
11022.706
11025.668
11029.706
11034.932
11041.528
23036.964
23497.703
23036.964
22585.259
22142.411
21708.246
21282.594
20865.288
20456.165
19969.398
19834.233
19676.04
19482.517
19256.025
18995.995
18701.359
18370.646
17996.901
17573.022
17089.763
16754.67
16426.147
16104.065
15788.299
15478.725
15175.22
14877.667
14585.948
14299.949
14019.558
13744.665
13475.161
13210.943
12951.905
12697.946
12448.966
12204.869
11965.558
11730.939
11500.921
11275.412
11054.326
10803.838
10803.959
10804.733
10806.575
10809.478
10813.437
10818.561
10825.028
23497.703
23967.657
23497.703
23036.964
22585.259
22142.411
21708.246
21282.594
20865.288
20343.951
20202.308
20036.107
19833.784
19596.114
19323.126
19013.03
18665.086
18272.457
17828.674
17324.689
16984.989
16651.95
16325.441
16005.335
15691.505
15383.828
15082.184
14786.455
14496.525
14212.279
13933.607
13660.399
13392.548
13129.949
12872.499
12620.097
12372.644
12130.043
11892.199
11659.019
11430.411
11206.285
10986.554
10771.131
10592.876
10594.681
10597.528
10601.409
10606.432
10612.772
23967.657
24447.011
23967.657
23497.703
23036.964
22585.259
22142.411
21708.246
21282.594
20725.632
20576.873
20401.867
20190.005
19940.444
19653.827
19327.496
18961.366
18548.802
18084.009
17558.212
17213.933
16876.405
16545.495
16221.074
15903.014
15591.19
15285.48
14985.765
14691.926
14403.849
14121.421
13844.53
13573.069
13306.93
13046.01
12790.206
12539.418
12293.547
12052.497
11816.173
11584.484
11357.337
11134.644
10916.318
10702.272
10492.424
10389.733
10393.538
10398.463
10404.679
24447.011
24935.951
24447.011
23967.657
23497.703
23036.964
22585.259
22142.411
21708.246
21109.642
20953.904
20769.977
20548.478
20286.792
19986.182
19643.14
19258.218
18824.902
18338.123
17978.552
17626.032
17280.423
16941.591
16609.403
16283.729
15964.44
15651.412
15344.521
15043.648
14748.675
14459.485
14175.966
13898.006
13625.496
13358.329
13096.401
12839.609
12587.852
12341.031
12099.05
11861.814
11629.229
11401.205
11177.652
10958.483
10743.61
10532.951
10326.423
10194.572
10200.665
24935.951
25434.67
24935.951
24447.011
23967.657
23497.703
23036.964
22585.259
22142.411
21496.994
21334.504
21141.406
20909.959
20635.698
20320.588
19960.181
19555.654
19100.668
18590.892
18226.364
17868.985
17518.612
17175.11
16838.343
16508.18
16184.49
15867.147
15556.027
15251.006
14951.967
14658.791
14371.364
14089.573
13813.306
13542.457
13276.919
13016.587
12761.36
12511.137
12265.821
12025.314
11789.524
11558.357
11331.722
11109.532
10891.698
10678.135
10468.76
10263.49
10000.652
25434.67
25943.363
25434.67
24935.951
24447.011
23967.657
23497.703
23036.964
22585.259
22142.411
21720.954
21517.799
21275.626
20988
20657.621
20279.05
19853.993
19376.236
18842.3
18472.843
18110.631
17755.52
17407.373
17066.052
16731.423
16403.356
16081.722
15766.394
15457.249
15154.165
14857.025
14565.711
14280.109
14000.106
13725.595
13456.465
13192.613
12933.934
12680.328
12431.694
12187.935
11948.956
11714.663
11484.964
11259.768
11038.988
10822.538
10610.331
10402.285
10198.319
25943.363
26462.23
25943.363
25434.67
24935.951
24447.011
23967.657
23497.703
23036.964
22585.259
22110.007
21896.509
21643.299
21341.843
20995.655
20598.283
20151.93
19650.522
19091.364
18717.024
18350.023
17990.219
17637.47
17291.637
16952.585
16620.181
16294.296
15974.8
15661.568
15354.479
15053.41
14758.246
14468.868
14185.165
13907.024
13634.338
13366.998
13104.9
12847.941
12596.02
12349.04
12106.902
11869.511
11636.776
11408.604
11184.906
10965.594
10750.582
10539.786
10333.124
26462.23
26991.475
26462.23
25943.363
25434.67
24935.951
24447.011
23967.657
23497.703
23036.964
22504.217
22279.534
22014.483
21698.386
21335.534
20918.449
20449.789
19923.582
19532.923
19149.925
18774.436
18406.31
18045.402
17691.571
17344.677
17004.585
16671.162
16344.277
16023.801
15709.608
15401.577
15099.585
14803.515
14513.25
14228.676
13949.683
13676.16
13408
13145.098
12887.351
12634.657
12386.919
12144.038
11905.92
11672.47
11443.598
11219.214
10999.23
10783.558
10572.116
26991.475
27531.305
26991.475
26462.23
25943.363
25434.67
24935.951
24447.011
23967.657
23497.703
22901.11
22664.783
22387.443
22056.044
21675.852
21238.336
20746.484
20194.489
19798.519
19410.313
19029.718
18656.587
18290.771
17932.129
17580.518
17235.802
16897.845
16566.515
16241.681
15923.217
15610.997
15304.899
15004.803
14710.591
14422.148
14139.361
13862.119
13590.312
13323.836
13062.584
12806.455
12555.348
12309.165
12067.808
11831.185
11599.201
11371.765
11148.79
10930.186
10715.869
27531.305
28081.931
27531.305
26991.475
26462.23
25943.363
25434.67
24935.951
24447.011
23967.657
23301.47
23052.794
22762.407
22414.968
22016.63
21557.768
21041.763
20462.936
20061.702
19668.335
19282.681
18904.59
18533.911
18170.501
17814.217
17464.919
17122.469
16786.735
16457.583
16134.885
15818.515
15508.348
15204.263
14906.14
14613.863
14327.316
14046.389
13770.969
13500.95
13236.226
12976.692
12722.247
12472.791
12228.227
11988.457
11753.39
11522.931
11296.991
11075.482
10858.315
28081.931
28643.569
28081.931
27531.305
26991.475
26462.23
25943.363
25434.67
24935.951
24447.011
23967.657
23444.335
23139.987
22775.445
22357.865
21876.585
21335.326
20728.498
20322.057
19923.585
19532.926
19149.928
18774.439
18406.313
18045.405
17691.573
17344.68
17004.588
16671.165
16344.279
16023.803
15709.611
15401.579
15099.587
14803.517
14513.252
14228.678
13949.685
13676.162
13408.002
13145.1
12887.352
12634.659
12386.921
12144.04
11905.922
11672.472
11443.6
11219.216
10999.231
28643.569
29216.441
28643.569
28081.931
27531.305
26991.475
26462.23
25943.363
25434.67
24935.951
24447.011
23837.16
23518.128
23135.718
22698.084
22193.503
21625.926
21201.888
20786.165
20378.593
19979.013
19587.267
19203.203
18826.67
18457.52
18095.607
17740.792
17392.933
17051.895
16717.544
16389.749
16068.382
15753.315
15444.427
15141.595
14844.701
14553.628
14268.263
13988.493
13714.209
13445.303
13181.669
12923.205
12669.809
12421.382
12177.825
11939.044
11704.945
11475.437
11250.428
29216.441
29800.77
29216.441
28643.569
28081.931
27531.305
26991.475
26462.23
25943.363
25434.67
24935.951
24233.043
23898.276
23496.93
23037.975
22508.843
22142.411
21708.246
21282.594
20865.288
20456.165
20055.064
19661.827
19276.301
18898.334
18527.779
18164.489
17808.323
17459.14
17116.804
16781.18
16452.137
16129.546
15813.281
15503.216
15199.232
14901.208
14609.027
14322.576
14041.741
13766.413
13496.483
13231.846
12972.398
12718.037
12468.664
12224.18
11984.491
11749.501
11519.118
29800.77
30396.785
29800.77
29216.441
28643.569
28081.931
27531.305
26991.475
26462.23
25943.363
25434.67
24935.951
24276.68
23855.838
23374.913
22820.418
22585.259
22142.411
21708.246
21282.594
20865.288
20456.165
20055.064
19661.827
19276.301
18898.334
18527.779
18164.489
17808.323
17459.14
17116.804
16781.18
16452.137
16129.546
15813.281
15503.216
15199.232
14901.208
14609.027
14322.576
14041.741
13766.413
13496.483
13231.846
12972.398
12718.037
12468.664
12224.18
11984.491
11749.501
30396.785
31004.721
30396.785
29800.77
29216.441
28643.569
28081.931
27531.305
26991.475
26462.23
25943.363
25434.67
24935.951
24214.895
23967.657
23497.703
23036.964
22585.259
22142.411
21708.246
21282.594
20865.288
20456.165
20055.064
19661.827
19276.301
18898.334
18527.779
18164.489
17808.323
17459.14
17116.804
16781.18
16452.137
16129.546
15813.281
15503.216
15199.232
14901.208
14609.027
14322.576
14041.741
13766.413
13496.483
13231.846
12972.398
12718.037
12468.664
12224.18
11984.491
31004.721
31624.815
31004.721
30396.785
29800.77
29216.441
28643.569
28081.931
27531.305
26991.475
26462.23
25943.363
25434.67
24935.951
24447.011
23967.657
23497.703
23036.964
22585.259
22142.411
21708.246
21282.594
20865.288
20456.165
20055.064
19661.827
19276.301
18898.334
18527.779
18164.489
17808.323
17459.14
17116.804
16781.18
16452.137
16129.546
15813.281
15503.216
15199.232
14901.208
14609.027
14322.576
14041.741
13766.413
13496.483
13231.846
12972.398
12718.037
12468.664
12224.18
31624.815
32257.311
31624.815
31004.721
30396.785
29800.77
29216.441
28643.569
28081.931
27531.305
26991.475
26462.23
25943.363
25434.67
24935.951
24447.011
23967.657
23497.703
23036.964
22585.259
22142.411
21708.246
21282.594
20865.288
20456.165
20055.064
19661.827
19276.301
18898.334
18527.779
18164.489
17808.323
17459.14
17116.804
16781.18
16452.137
16129.546
15813.281
15503.216
15199.232
14901.208
14609.027
14322.576
14041.741
13766.413
13496.483
13231.846
12972.398
12718.037
12468.664
32257.311
32902.458
32257.311
31624.815
31004.721
30396.785
29800.77
29216.441
28643.569
28081.931
27531.305
26991.475
26462.23
25943.363
25434.67
24935.951
24447.011
23967.657
23497.703
23036.964
22585.259
22142.411
21708.246
21282.594
20865.288
20456.165
20055.064
19661.827
19276.301
18898.334
18527.779
18164.489
17808.323
17459.14
17116.804
16781.18
16452.137
16129.546
15813.281
15503.216
15199.232
14901.208
14609.027
14322.576
14041.741
13766.413
13496.483
13231.846
12972.398
12718.037
32902.458
33560.507
32902.458
32257.311
31624.815
31004.721
30396.785
29800.77
29216.441
28643.569
28081.931
27531.305
26991.475
26462.23
25943.363
25434.67
24935.951
24447.011
23967.657
23497.703
23036.964
22585.259
22142.411
21708.246
21282.594
20865.288
20456.165
20055.064
19661.827
19276.301
18898.334
18527.779
18164.489
17808.323
17459.14
17116.804
16781.18
16452.137
16129.546
15813.281
15503.216
15199.232
14901.208
14609.027
14322.576
14041.741
13766.413
13496.483
13231.846
12972.398
33560.507
34231.717
33560.507
32902.458
32257.311
31624.815
31004.721
30396.785
29800.77
29216.441
28643.569
28081.931
27531.305
26991.475
26462.23
25943.363
25434.67
24935.951
24447.011
23967.657
23497.703
23036.964
22585.259
22142.411
21708.246
21282.594
20865.288
20456.165
20055.064
19661.827
19276.301
18898.334
18527.779
18164.489
17808.323
17459.14
17116.804
16781.18
16452.137
16129.546
15813.281
15503.216
15199.232
14901.208
14609.027
14322.576
14041.741
13766.413
13496.483
13231.846
34231.717
34916.351
34231.717
33560.507
32902.458
32257.311
31624.815
31004.721
30396.785
29800.77
29216.441
28643.569
28081.931
27531.305
26991.475
26462.23
25943.363
25434.67
24935.951
24447.011
23967.657
23497.703
23036.964
22585.259
22142.411
21708.246
21282.594
20865.288
20456.165
20055.064
19661.827
19276.301
18898.334
18527.779
18164.489
17808.323
17459.14
17116.804
16781.18
16452.137
16129.546
15813.281
15503.216
15199.232
14901.208
14609.027
14322.576
14041.741
13766.413
13496.483
34916.351
35614.678
34916.351
34231.717
33560.507
32902.458
32257.311
31624.815
31004.721
30396.785
29800.77
29216.441
28643.569
28081.931
27531.305
26991.475
26462.23
25943.363
25434.67
24935.951
24447.011
23967.657
23497.703
23036.964
22585.259
22142.411
21708.246
21282.594
20865.288
20456.165
20055.064
19661.827
19276.301
18898.334
18527.779
18164.489
17808.323
17459.14
17116.804
16781.18
16452.137
16129.546
15813.281
15503.216
15199.232
14901.208
14609.027
14322.576
14041.741
13766.413
35614.678
36326.972
35614.678
34916.351
34231.717
33560.507
32902.458
32257.311
31624.815
31004.721
30396.785
29800.77
29216.441
28643.569
28081.931
27531.305
26991.475
26462.23
25943.363
25434.67
24935.951
24447.011
23967.657
23497.703
23036.964
22585.259
22142.411
21708.246
21282.594
20865.288
20456.165
20055.064
19661.827
19276.301
18898.334
18527.779
18164.489
17808.323
17459.14
17116.804
16781.18
16452.137
16129.546
15813.281
15503.216
15199.232
14901.208
14609.027
14322.576
14041.741
36326.972
37053.511
36326.972
35614.678
34916.351
34231.717
33560.507
32902.458
32257.311
31624.815
31004.721
30396.785
29800.77
29216.441
28643.569
28081.931
27531.305
26991.475
26462.23
25943.363
25434.67
24935.951
24447.011
23967.657
23497.703
23036.964
22585.259
22142.411
21708.246
21282.594
20865.288
20456.165
20055.064
19661.827
19276.301
18898.334
18527.779
18164.489
17808.323
17459.14
17116.804
16781.18
16452.137
16129.546
15813.281
15503.216
15199.232
14901.208
14609.027
14322.576
37053.511
37794.581
37053.511
36326.972
35614.678
34916.351
34231.717
33560.507
32902.458
32257.311
31624.815
31004.721
30396.785
29800.77
29216.441
28643.569
28081.931
27531.305
26991.475
26462.23
25943.363
25434.67
24935.951
24447.011
23967.657
23497.703
23036.964
22585.259
22142.411
21708.246
21282.594
20865.288
20456.165
20055.064
19661.827
19276.301
18898.334
18527.779
18164.489
17808.323
17459.14
17116.804
16781.18
16452.137
16129.546
15813.281
15503.216
15199.232
14901.208
14609.027
37794.581
38550.473
37794.581
37053.511
36326.972
35614.678
34916.351
34231.717
33560.507
32902.458
32257.311
31624.815
31004.721
30396.785
29800.77
29216.441
28643.569
28081.931
27531.305
26991.475
26462.23
25943.363
25434.67
24935.951
24447.011
23967.657
23497.703
23036.964
22585.259
22142.411
21708.246
21282.594
20865.288
20456.165
20055.064
19661.827
19276.301
18898.334
18527.779
18164.489
17808.323
17459.14
17116.804
16781.18
16452.137
16129.546
15813.281
15503.216
15199.232
14901.208
38550.473
39321.482
38550.473
37794.581
37053.511
36326.972
35614.678
34916.351
34231.717
33560.507
32902.458
32257.311
31624.815
31004.721
30396.785
29800.77
29216.441
28643.569
28081.931
27531.305
26991.475
26462.23
25943.363
25434.67
24935.951
24447.011
23967.657
23497.703
23036.964
22585.259
22142.411
21708.246
21282.594
20865.288
20456.165
20055.064
19661.827
19276.301
18898.334
18527.779
18164.489
17808.323
17459.14
17116.804
16781.18
16452.137
16129.546
15813.281
15503.216
15199.232
39321.482
40107.912
39321.482
38550.473
37794.581
37053.511
36326.972
35614.678
34916.351
34231.717
33560.507
32902.458
32257.311
31624.815
31004.721
30396.785
29800.77
29216.441
28643.569
28081.931
27531.305
26991.475
26462.23
25943.363
25434.67
24935.951
24447.011
23967.657
23497.703
23036.964
22585.259
22142.411
21708.246
21282.594
20865.288
20456.165
20055.064
19661.827
19276.301
18898.334
18527.779
18164.489
17808.323
17459.14
17116.804
16781.18
16452.137
16129.546
15813.281
15503.216
40107.912
40910.07
40107.912
39321.482
38550.473
37794.581
37053.511
36326.972
35614.678
34916.351
34231.717
33560.507
32902.458
32257.311
31624.815
31004.721
30396.785
29800.77
29216.441
28643.569
28081.931
27531.305
26991.475
26462.23
25943.363
25434.67
24935.951
24447.011
23967.657
23497.703
23036.964
22585.259
22142.411
21708.246
21282.594
20865.288
20456.165
20055.064
19661.827
19276.301
18898.334
18527.779
18164.489
17808.323
17459.14
17116.804
16781.18
16452.137
16129.546
15813.281
40910.07
41728.272
40910.07
40107.912
39321.482
38550.473
37794.581
37053.511
36326.972
35614.678
34916.351
34231.717
33560.507
32902.458
32257.311
31624.815
31004.721
30396.785
29800.77
29216.441
28643.569
28081.931
27531.305
26991.475
26462.23
25943.363
25434.67
24935.951
24447.011
23967.657
23497.703
23036.964
22585.259
22142.411
21708.246
21282.594
20865.288
20456.165
20055.064
19661.827
19276.301
18898.334
18527.779
18164.489
17808.323
17459.14
17116.804
16781.18
16452.137
16129.546
41728.272
42562.837
41728.272
40910.07
40107.912
39321.482
38550.473
37794.581
37053.511
36326.972
35614.678
34916.351
34231.717
33560.507
32902.458
32257.311
31624.815
31004.721
30396.785
29800.77
29216.441
28643.569
28081.931
27531.305
26991.475
26462.23
25943.363
25434.67
24935.951
24447.011
23967.657
23497.703
23036.964
22585.259
22142.411
21708.246
21282.594
20865.288
20456.165
20055.064
19661.827
19276.301
18898.334
18527.779
18164.489
17808.323
17459.14
17116.804
16781.18
16452.137
42562.837
43414.094
42562.837
41728.272
40910.07
40107.912
39321.482
38550.473
37794.581
37053.511
36326.972
35614.678
34916.351
34231.717
33560.507
32902.458
32257.311
31624.815
31004.721
30396.785
29800.77
29216.441
28643.569
28081.931
27531.305
26991.475
26462.23
25943.363
25434.67
24935.951
24447.011
23967.657
23497.703
23036.964
22585.259
22142.411
21708.246
21282.594
20865.288
20456.165
20055.064
19661.827
19276.301
18898.334
18527.779
18164.489
17808.323
17459.14
17116.804
16781.18
43414.094
44282.376
43414.094
42562.837
41728.272
40910.07
40107.912
39321.482
38550.473
37794.581
37053.511
36326.972
35614.678
34916.351
34231.717
33560.507
32902.458
32257.311
31624.815
31004.721
30396.785
29800.77
29216.441
28643.569
28081.931
27531.305
26991.475
26462.23
25943.363
25434.67
24935.951
24447.011
23967.657
23497.703
23036.964
22585.259
22142.411
21708.246
21282.594
20865.288
20456.165
20055.064
19661.827
19276.301
18898.334
18527.779
18164.489
17808.323
17459.14
17116.804
44282.376
45168.023
44282.376
43414.094
42562.837
41728.272
40910.07
40107.912
39321.482
38550.473
37794.581
37053.511
36326.972
35614.678
34916.351
34231.717
33560.507
32902.458
32257.311
31624.815
31004.721
30396.785
29800.77
29216.441
28643.569
28081.931
27531.305
26991.475
26462.23
25943.363
25434.67
24935.951
24447.011
23967.657
23497.703
23036.964
22585.259
22142.411
21708.246
21282.594
20865.288
20456.165
20055.064
19661.827
19276.301
18898.334
18527.779
18164.489
17808.323
17459.14
45168.023
46071.384
45168.023
44282.376
43414.094
42562.837
41728.272
40910.07
40107.912
39321.482
38550.473
37794.581
37053.511
36326.972
35614.678
34916.351
34231.717
33560.507
32902.458
32257.311
31624.815
31004.721
30396.785
29800.77
29216.441
28643.569
28081.931
27531.305
26991.475
26462.23
25943.363
25434.67
24935.951
24447.011
23967.657
23497.703
23036.964
22585.259
22142.411
21708.246
21282.594
20865.288
20456.165
20055.064
19661.827
19276.301
18898.334
18527.779
18164.489
17808.323
46071.384
46992.812
46071.384
45168.023
44282.376
43414.094
42562.837
41728.272
40910.07
40107.912
39321.482
38550.473
37794.581
37053.511
36326.972
35614.678
34916.351
34231.717
33560.507
32902.458
32257.311
31624.815
31004.721
30396.785
29800.77
29216.441
28643.569
28081.931
27531.305
26991.475
26462.23
25943.363
25434.67
24935.951
24447.011
23967.657
23497.703
23036.964
22585.259
22142.411
21708.246
21282.594
20865.288
20456.165
20055.064
19661.827
19276.301
18898.334
18527.779
18164.489
46992.812
47932.668
46992.812
46071.384
45168.023
44282.376
43414.094
42562.837
41728.272
40910.07
40107.912
39321.482
38550.473
37794.581
37053.511
36326.972
35614.678
34916.351
34231.717
33560.507
32902.458
32257.311
31624.815
31004.721
30396.785
29800.77
29216.441
28643.569
28081.931
27531.305
26991.475
26462.23
25943.363
25434.67
24935.951
24447.011
23967.657
23497.703
23036.964
22585.259
22142.411
21708.246
21282.594
20865.288
20456.165
20055.064
19661.827
19276.301
18898.334
18527.779
47932.668
48891.321
47932.668
46992.812
46071.384
45168.023
44282.376
43414.094
42562.837
41728.272
40910.07
40107.912
39321.482
38550.473
37794.581
37053.511
36326.972
35614.678
34916.351
34231.717
33560.507
32902.458
32257.311
31624.815
31004.721
30396.785
29800.77
29216.441
28643.569
28081.931
27531.305
26991.475
26462.23
25943.363
25434.67
24935.951
24447.011
23967.657
23497.703
23036.964
22585.259
22142.411
21708.246
21282.594
20865.288
20456.165
20055.064
19661.827
19276.301
18898.334
48891.321
49869.148
48891.321
47932.668
46992.812
46071.384
45168.023
44282.376
43414.094
42562.837
41728.272
40910.07
40107.912
39321.482
38550.473
37794.581
37053.511
36326.972
35614.678
34916.351
34231.717
33560.507
32902.458
32257.311
31624.815
31004.721
30396.785
29800.77
29216.441
28643.569
28081.931
27531.305
26991.475
26462.23
25943.363
25434.67
24935.951
24447.011
23967.657
23497.703
23036.964
22585.259
22142.411
21708.246
21282.594
20865.288
20456.165
20055.064
19661.827
19276.301
49869.148
50866.53
49869.148
48891.321
47932.668
46992.812
46071.384
45168.023
44282.376
43414.094
42562.837
41728.272
40910.07
40107.912
39321.482
38550.473
37794.581
37053.511
36326.972
35614.678
34916.351
34231.717
33560.507
32902.458
32257.311
31624.815
31004.721
30396.785
29800.77
29216.441
28643.569
28081.931
27531.305
26991.475
26462.23
25943.363
25434.67
24935.951
24447.011
23967.657
23497.703
23036.964
22585.259
22142.411
21708.246
21282.594
20865.288
20456.165
20055.064
19661.827
50866.53
51883.861
50866.53
49869.148
48891.321
47932.668
46992.812
46071.384
45168.023
44282.376
43414.094
42562.837
41728.272
40910.07
40107.912
39321.482
38550.473
37794.581
37053.511
36326.972
35614.678
34916.351
34231.717
33560.507
32902.458
32257.311
31624.815
31004.721
30396.785
29800.77
29216.441
28643.569
28081.931
27531.305
26991.475
26462.23
25943.363
25434.67
24935.951
24447.011
23967.657
23497.703
23036.964
22585.259
22142.411
21708.246
21282.594
20865.288
20456.165
20055.064
51883.861
52921.538
51883.861
50866.53
49869.148
48891.321
47932.668
46992.812
46071.384
45168.023
44282.376
43414.094
42562.837
41728.272
40910.07
40107.912
39321.482
38550.473
37794.581
37053.511
36326.972
35614.678
34916.351
34231.717
33560.507
32902.458
32257.311
31624.815
31004.721
30396.785
29800.77
29216.441
28643.569
28081.931
27531.305
26991.475
26462.23
25943.363
25434.67
24935.951
24447.011
23967.657
23497.703
23036.964
22585.259
22142.411
21708.246
21282.594
20865.288
20456.165
52921.538
53979.969
52921.538
51883.861
50866.53
49869.148
48891.321
47932.668
46992.812
46071.384
45168.023
44282.376
43414.094
42562.837
41728.272
40910.07
40107.912
39321.482
38550.473
37794.581
37053.511
36326.972
35614.678
34916.351
34231.717
33560.507
32902.458
32257.311
31624.815
31004.721
30396.785
29800.77
29216.441
28643.569
28081.931
27531.305
26991.475
26462.23
25943.363
25434.67
24935.951
24447.011
23967.657
23497.703
23036.964
22585.259
22142.411
21708.246
21282.594
20865.288
53979.969
55059.568
53979.969
52921.538
51883.861
50866.53
49869.148
48891.321
47932.668
46992.812
46071.384
45168.023
44282.376
43414.094
42562.837
41728.272
40910.07
40107.912
39321.482
38550.473
37794.581
37053.511
36326.972
35614.678
34916.351
34231.717
33560.507
32902.458
32257.311
31624.815
31004.721
30396.785
29800.77
29216.441
28643.569
28081.931
27531.305
26991.475
26462.23
25943.363
25434.67
24935.951
24447.011
23967.657
23497.703
23036.964
22585.259
22142.411
21708.246
21282.594
55059.568
56160.76
55059.568
53979.969
52921.538
51883.861
50866.53
49869.148
48891.321
47932.668
46992.812
46071.384
45168.023
44282.376
43414.094
42562.837
41728.272
40910.07
40107.912
39321.482
38550.473
37794.581
37053.511
36326.972
35614.678
34916.351
34231.717
33560.507
32902.458
32257.311
31624.815
31004.721
30396.785
29800.77
29216.441
28643.569
28081.931
27531.305
26991.475
26462.23
25943.363
25434.67
24935.951
24447.011
23967.657
23497.703
23036.964
22585.259
22142.411
21708.246
56160.76
57283.975
56160.76
55059.568
53979.969
52921.538
51883.861
50866.53
49869.148
48891.321
47932.668
46992.812
46071.384
45168.023
44282.376
43414.094
42562.837
41728.272
40910.07
40107.912
39321.482
38550.473
37794.581
37053.511
36326.972
35614.678
34916.351
34231.717
33560.507
32902.458
32257.311
31624.815
31004.721
30396.785
29800.77
29216.441
28643.569
28081.931
27531.305
26991.475
26462.23
25943.363
25434.67
24935.951
24447.011
23967.657
23497.703
23036.964
22585.259
22142.411
57283.975
58429.655
57283.975
56160.76
55059.568
53979.969
52921.538
51883.861
50866.53
49869.148
48891.321
47932.668
46992.812
46071.384
45168.023
44282.376
43414.094
42562.837
41728.272
40910.07
40107.912
39321.482
38550.473
37794.581
37053.511
36326.972
35614.678
34916.351
34231.717
33560.507
32902.458
32257.311
31624.815
31004.721
30396.785
29800.77
29216.441
28643.569
28081.931
27531.305
26991.475
26462.23
25943.363
25434.67
24935.951
24447.011
23967.657
23497.703
23036.964
22585.259
58429.655
59598.248
58429.655
57283.975
56160.76
55059.568
53979.969
52921.538
51883.861
50866.53
49869.148
48891.321
47932.668
46992.812
46071.384
45168.023
44282.376
43414.094
42562.837
41728.272
40910.07
40107.912
39321.482
38550.473
37794.581
37053.511
36326.972
35614.678
34916.351
34231.717
33560.507
32902.458
32257.311
31624.815
31004.721
30396.785
29800.77
29216.441
28643.569
28081.931
27531.305
26991.475
26462.23
25943.363
25434.67
24935.951
24447.011
23967.657
23497.703
23036.964
59598.248
60790.213
59598.248
58429.655
57283.975
56160.76
55059.568
53979.969
52921.538
51883.861
50866.53
49869.148
48891.321
47932.668
46992.812
46071.384
45168.023
44282.376
43414.094
42562.837
41728.272
40910.07
40107.912
39321.482
38550.473
37794.581
37053.511
36326.972
35614.678
34916.351
34231.717
33560.507
32902.458
32257.311
31624.815
31004.721
30396.785
29800.77
29216.441
28643.569
28081.931