/*--------------------------------*- C++ -*----------------------------------*\
| =========                 |                                                 |
| \\      /  F ield         | OpenFOAM: The Open Source CFD Toolbox           |
|  \\    /   O peration     | Version:  2306                                  |
|   \\  /    A nd           | Website:  www.openfoam.com                      |
|    \\/     M anipulation  |                                                 |
\*---------------------------------------------------------------------------*/
FoamFile
{
    version     2.0;
    format      ascii;
    arch        "LSB;label=32;scalar=64";
    class       volVectorField;
    location    "0.003";
    object      U;
}
// * * * * * * * * * * * * * * * * * * * * * * * * * * * * * * * * * * * * * //

dimensions      [0 1 -1 0 0 0 0];

internalField   nonuniform List<vector> 
20000
(
(69.388453 1.7658792e-17 -0.21399841)
(82.559877 -7.7658853e-18 -0.12569727)
(90.997185 2.845705e-17 -0.19731294)
(98.106628 -1.7509276e-17 -0.23505469)
(104.41496 -1.6287721e-17 -0.28473532)
(109.62881 2.2542093e-17 -0.35473793)
(111.38215 -1.826583e-17 -0.36738402)
(111.09286 -2.3902998e-17 -0.31018779)
(110.63962 1.372383e-17 -0.32237772)
(110.3054 3.864249e-17 -0.2377569)
(109.91188 -5.0304426e-17 -0.24926303)
(109.55905 -1.4273302e-17 -0.14927296)
(109.17601 6.8145799e-17 -0.13738536)
(108.8397 -7.7613709e-17 -0.02476262)
(108.53208 4.3390185e-17 0.034275947)
(108.28037 -2.688284e-17 0.17767671)
(108.04799 3.8853121e-17 0.30920387)
(107.80726 -4.4842906e-17 0.51215684)
(107.51303 8.7578128e-17 0.73542087)
(107.13847 1.4331956e-17 1.022263)
(106.67082 -6.3795121e-17 1.3501687)
(106.11843 -6.1369905e-18 1.7434103)
(105.50437 -4.3838282e-17 2.2000188)
(104.86213 4.0303253e-17 2.7352503)
(104.22499 3.220761e-18 3.3485735)
(103.61279 2.7693385e-17 4.0323857)
(103.04072 -2.6480547e-17 4.7608547)
(102.52453 9.5139054e-17 5.5046312)
(102.07885 1.4178734e-16 6.2319811)
(101.70748 -4.9290741e-17 6.9114726)
(101.4046 2.3936862e-17 7.5213998)
(101.15601 -8.2742402e-17 8.0532834)
(100.94365 1.890029e-16 8.5020924)
(100.73605 4.054608e-17 8.8444524)
(100.50081 -1.3720072e-16 9.0373345)
(100.28974 1.6235013e-16 9.0981718)
(100.17613 -1.0674452e-17 9.1004968)
(100.10046 -6.8863463e-17 8.9755317)
(100.04083 2.3067096e-16 8.9146935)
(100.20703 9.4852797e-17 9.2787706)
(100.35597 -1.6028774e-16 9.9626877)
(100.46688 -1.2475071e-16 10.542264)
(100.50197 -2.8305238e-16 10.83086)
(100.50319 -1.6511342e-16 10.934678)
(100.50123 4.4568276e-17 10.963027)
(100.50021 2.6810767e-17 10.968946)
(100.50003 -7.2766219e-17 10.969877)
(100.5 2.8334097e-17 10.96999)
(100.5 -1.0650687e-16 10.969999)
(100.5 4.3766256e-18 10.97)
(69.473204 4.8595061e-17 -0.50331288)
(82.705436 -9.136913e-18 -0.44541962)
(91.192097 1.7726452e-17 -0.55685583)
(98.342486 -4.2125273e-17 -0.6216614)
(104.6617 2.4434624e-17 -0.69544582)
(109.76717 -2.7983591e-17 -0.78077891)
(111.25976 8.3095732e-17 -0.79442028)
(110.95337 -3.7337974e-17 -0.73237139)
(110.50124 1.5293332e-17 -0.74923344)
(110.16817 -3.0035986e-17 -0.65852446)
(109.77347 -3.6813592e-17 -0.67367274)
(109.41982 9.2247218e-17 -0.56696512)
(109.03056 -6.8148559e-17 -0.55587097)
(108.68372 1.0141834e-17 -0.43742358)
(108.36051 -2.9239533e-17 -0.37650927)
(108.09168 8.5174902e-17 -0.22759579)
(107.84402 -2.659053e-17 -0.090989279)
(107.59246 5.787005e-18 0.12008765)
(107.29264 -5.8167575e-17 0.35380639)
(106.91674 3.0998995e-17 0.65475166)
(106.45056 -4.7275227e-17 1.0006431)
(105.89954 -2.1339371e-17 1.4156934)
(105.28549 6.5395139e-17 1.8977202)
(104.64348 -1.3303016e-16 2.4613462)
(104.01038 -4.8416411e-17 3.1062054)
(103.40896 -8.9045824e-17 3.824608)
(102.8546 7.2730415e-17 4.5890646)
(102.36129 -6.0152324e-17 5.3676734)
(101.94105 -2.9738964e-16 6.1266154)
(101.59579 -5.0902602e-18 6.8328896)
(101.31721 -2.2073846e-17 7.4635954)
(101.08949 1.8807574e-17 8.0107093)
(100.89411 7.1624087e-17 8.4712251)
(100.69878 -1.7007549e-16 8.8238268)
(100.47305 -1.6350377e-16 9.0281195)
(100.26895 -2.2600794e-16 9.1048742)
(100.15308 -4.0826632e-16 9.1288199)
(100.05734 1.7299928e-16 9.0102654)
(99.99482 -7.1729287e-16 8.9316976)
(100.15141 1.158792e-16 9.2645081)
(100.32764 -2.9196651e-16 9.9360467)
(100.45471 6.2473754e-16 10.524775)
(100.49719 -2.231761e-16 10.822842)
(100.50196 3.9527274e-16 10.931876)
(100.50089 1.0603863e-16 10.962279)
(100.50017 -2.5431782e-16 10.968795)
(100.50002 6.0546625e-16 10.969856)
(100.5 -4.275227e-16 10.969987)
(100.5 -9.3180481e-17 10.969999)
(100.5 -1.9156646e-17 10.97)
(69.577935 -1.8571678e-16 -0.77562977)
(82.876148 -1.0527753e-16 -0.78264031)
(91.413328 6.993959e-17 -0.92348694)
(98.606195 9.6630693e-17 -1.0189366)
(104.93687 -1.275899e-16 -1.1214866)
(109.90478 -7.2360612e-18 -1.2229772)
(111.10986 6.9961284e-17 -1.2374831)
(110.80422 9.1232165e-17 -1.1682586)
(110.35197 -6.6387108e-17 -1.1866139)
(110.01917 -6.9038595e-17 -1.0877085)
(109.62269 5.846653e-17 -1.1046435)
(109.26783 1.8165226e-17 -0.99051811)
(108.87305 -7.0368751e-17 -0.97863238)
(108.5166 4.0650052e-17 -0.85406909)
(108.17882 -8.6549516e-17 -0.79010261)
(107.89323 -5.8484011e-17 -0.63543804)
(107.62979 1.0875147e-16 -0.49291014)
(107.36603 -2.1837742e-17 -0.27330447)
(107.05888 -3.4062395e-17 -0.028103465)
(106.67993 -4.8743974e-17 0.28784434)
(106.2135 -2.8900151e-17 0.65312109)
(105.66292 4.6308015e-17 1.0917727)
(105.04946 1.4981667e-16 1.6015148)
(104.40927 -6.2755523e-17 2.1962006)
(103.78041 -8.892376e-17 2.8746688)
(103.19004 8.9462966e-17 3.6289349)
(102.65421 -7.635355e-17 4.4300811)
(102.18523 -2.2508905e-17 5.2435145)
(101.7921 4.2020672e-16 6.0332238)
(101.47493 -1.4163623e-16 6.7649564)
(101.22245 2.7098205e-16 7.4148127)
(101.01696 6.1691005e-17 7.9751438)
(100.83956 -4.4374556e-16 8.4448016)
(100.65801 -3.1192995e-16 8.8044735)
(100.44379 4.2461519e-16 9.0175086)
(100.24845 -3.8828914e-16 9.1111483)
(100.13277 1.4290611e-16 9.1499857)
(100.02164 -5.0558596e-16 9.0403199)
(99.954495 2.082343e-16 8.9545746)
(100.09533 -8.8823869e-16 9.2647577)
(100.28919 2.5400538e-16 9.9213808)
(100.43509 5.7552332e-16 10.513149)
(100.48897 5.2598338e-16 10.816973)
(100.49925 -7.2455836e-16 10.92966)
(100.50025 1.0481267e-15 10.961653)
(100.50006 6.4673529e-18 10.968665)
(100.50001 -1.7588206e-15 10.969838)
(100.5 1.1032325e-16 10.969985)
(100.5 3.2279115e-17 10.969999)
(100.5 3.9163808e-16 10.97)
(69.675687 1.4371519e-16 -1.0544968)
(83.036698 -1.5460825e-16 -1.1243853)
(91.62232 7.437767e-17 -1.2967536)
(98.856492 -7.6090367e-17 -1.422482)
(105.19935 7.701518e-17 -1.5536876)
(110.00928 1.1035103e-16 -1.6677145)
(110.92269 -5.0935028e-17 -1.6835974)
(110.64277 -1.4075653e-16 -1.6087629)
(110.19097 1.1241089e-16 -1.6297484)
(109.85917 -8.3854424e-17 -1.5220197)
(109.4609 2.650341e-17 -1.5410596)
(109.10513 -3.7146996e-17 -1.4191659)
(108.70511 1.3666714e-17 -1.4064348)
(108.33938 2.9082456e-17 -1.2753261)
(107.98708 7.7846409e-17 -1.2078912)
(107.68429 -4.5708151e-17 -1.0469835)
(107.40412 3.5921352e-17 -0.89803608)
(107.12699 -2.5729103e-17 -0.66940251)
(106.81137 1.1367759e-17 -0.4122026)
(106.42843 3.2230202e-17 -0.08065695)
(105.96141 1.0334212e-16 0.30488564)
(105.41132 9.0499333e-18 0.76827447)
(104.79885 5.52544e-17 1.3070175)
(104.16066 2.8614441e-16 1.9339893)
(103.53765 4.9570563e-17 2.6473951)
(102.95994 -1.5479574e-16 3.4383358)
(102.44473 -1.7120737e-16 4.2765977)
(102.00161 1.4032051e-16 5.1247104)
(101.63711 -8.1335886e-17 5.9445964)
(101.34963 1.9638493e-16 6.7008886)
(101.12456 2.5077411e-16 7.3689121)
(100.94217 9.9629992e-17 7.9413516)
(100.78313 -3.0406862e-16 8.418838)
(100.61537 2.1565915e-16 8.7842343)
(100.41233 3.6933308e-16 9.0052487)
(100.22553 2.227383e-16 9.113716)
(100.11009 -4.8212117e-16 9.1665337)
(99.98575 1.281188e-16 9.0672033)
(99.914538 -4.5793233e-16 8.979434)
(100.04195 -6.5705454e-17 9.2695482)
(100.25236 5.9738748e-16 9.9102766)
(100.41575 -6.3763061e-16 10.502898)
(100.48097 2.5087194e-15 10.811548)
(100.49701 -1.8312262e-16 10.927632)
(100.49969 -1.0896843e-15 10.96109)
(100.49997 -1.7752438e-16 10.968548)
(100.5 2.3183739e-15 10.96982)
(100.5 3.6628912e-16 10.969984)
(100.5 5.7356914e-16 10.969999)
(100.5 -4.491821e-16 10.97)
(69.773322 1.0079084e-16 -1.3400334)
(83.196775 1.6142026e-16 -1.4706764)
(91.829604 -1.0391606e-16 -1.6765201)
(99.10264 6.5614737e-17 -1.8333971)
(105.457 -1.7772228e-19 -1.9949356)
(110.08617 -1.4609535e-16 -2.1195561)
(110.75438 -1.2614392e-17 -2.1361143)
(110.46824 1.2398689e-16 -2.054537)
(110.01702 -7.6727864e-17 -2.0789011)
(109.68667 2.2272309e-17 -1.9617968)
(109.2865 -4.0314392e-17 -1.9828086)
(108.92997 1.3563542e-16 -1.8527529)
(108.52516 -1.5049654e-16 -1.8387742)
(108.15069 -2.1100603e-17 -1.7007579)
(107.78432 7.1211176e-17 -1.6292846)
(107.46423 -2.5477171e-17 -1.4617002)
(107.16662 4.0216423e-17 -1.3057235)
(106.87492 1.212872e-16 -1.0675666)
(106.5495 -8.6662769e-17 -0.79765909)
(106.16135 -1.020256e-16 -0.44974783)
(105.69292 -1.6754068e-17 -0.042868336)
(105.14312 -2.9683428e-16 0.44663637)
(104.53229 -8.3926859e-17 1.0160523)
(103.89736 -2.370141e-16 1.6770369)
(103.28119 -2.1561553e-16 2.4267312)
(102.71723 2.6823626e-16 3.2551517)
(102.22391 3.5796219e-16 4.1307495)
(101.80906 1.580465e-16 5.0134646)
(101.4759 6.9567496e-17 5.8630135)
(101.2195 -5.3142299e-16 6.6428115)
(101.02305 -8.7802347e-16 7.3277748)
(100.86455 3.6196371e-16 7.911036)
(100.72435 1.4601044e-15 8.3947719)
(100.57076 1.1319803e-16 8.7641263)
(100.37916 -1.5437839e-15 8.9918731)
(100.20109 5.9226916e-16 9.1131925)
(100.0865 -3.6755234e-16 9.178735)
(99.951083 9.1587812e-16 9.0896097)
(99.875267 4.8465072e-16 9.0058802)
(99.989893 -4.8557931e-16 9.2807763)
(100.2148 -2.5050933e-15 9.9050885)
(100.39556 5.967861e-16 10.495324)
(100.47261 -3.642872e-15 10.807052)
(100.49435 -3.172876e-16 10.925881)
(100.4991 1.9964261e-16 10.960602)
(100.49988 3.7633866e-16 10.968447)
(100.49999 -1.3587416e-15 10.969805)
(100.5 4.0969863e-16 10.969982)
(100.5 -1.0981069e-16 10.969999)
(100.5 8.6636445e-17 10.97)
(69.866457 -4.7260226e-17 -1.6325282)
(83.352387 1.1522297e-16 -1.82513)
(92.032387 -5.5578116e-17 -2.0658894)
(99.341719 1.0879895e-16 -2.2543919)
(105.70677 -1.7050548e-17 -2.4474305)
(110.12909 1.0539402e-16 -2.5789413)
(110.56102 -4.5843518e-17 -2.5945722)
(110.28063 -3.9459843e-17 -2.5043092)
(109.83004 3.4744869e-18 -2.5326221)
(109.50168 -5.4948423e-17 -2.4058104)
(109.09946 -8.0799857e-17 -2.4289733)
(108.74228 6.0488671e-18 -2.2906123)
(108.33298 6.7267632e-17 -2.2752252)
(107.95021 1.0414285e-16 -2.1300961)
(107.5701 -3.1570607e-17 -2.0541072)
(107.23262 -3.6393062e-17 -1.8794443)
(106.9169 -9.32227e-18 -1.7158252)
(106.60948 -1.1165127e-18 -1.4675769)
(106.27298 -3.7531402e-17 -1.1842501)
(105.8785 1.501478e-17 -0.8191167)
(105.40786 -4.3226152e-17 -0.38979097)
(104.85822 1.8365757e-16 0.12719601)
(104.24964 2.6318733e-16 0.72894686)
(103.61913 3.9396354e-16 1.4256929)
(103.01137 5.3472148e-16 2.2131436)
(102.46277 -7.7166237e-17 3.0798787)
(101.99323 6.9676253e-17 3.9929789)
(101.6084 5.2041669e-16 4.9099131)
(101.30811 -1.0079774e-16 5.7882841)
(101.08488 -1.7832714e-16 6.5905678)
(100.91873 4.3198795e-17 7.29126)
(100.78506 -1.1152656e-15 7.8841518)
(100.66383 -1.8743076e-15 8.372842)
(100.52433 -1.1796898e-15 8.7446101)
(100.34418 1.7378419e-15 8.9777912)
(100.17499 1.1324489e-15 9.1103686)
(100.06149 4.9630272e-16 9.1871232)
(99.916595 -1.9744044e-16 9.1081009)
(99.83628 -8.2923461e-16 9.0318547)
(99.939712 1.5864756e-15 9.2970942)
(100.17775 2.5637475e-15 9.9056444)
(100.37526 -6.0377536e-16 10.490567)
(100.46417 1.7537869e-15 10.803616)
(100.49177 -1.6239734e-16 10.924444)
(100.49849 -2.5635306e-16 10.960191)
(100.49977 -1.1278232e-15 10.968362)
(100.49997 -8.7874729e-16 10.969793)
(100.5 -5.8603681e-16 10.969981)
(100.5 -1.7552524e-16 10.969999)
(100.5 1.5511704e-16 10.97)
(69.955705 -3.2511682e-16 -1.9300068)
(83.50444 -7.4060905e-17 -2.1844084)
(92.231191 9.5041191e-17 -2.4615818)
(99.575097 -6.1023199e-17 -2.6817648)
(105.94836 3.7006159e-17 -2.9077008)
(110.13884 4.0546419e-17 -3.0421984)
(110.35461 -1.2753839e-16 -3.0576055)
(110.08021 5.1542512e-17 -2.9581476)
(109.63019 -6.3269332e-18 -2.990953)
(109.30418 1.5087113e-16 -2.854022)
(108.89967 -5.5311964e-17 -2.8794256)
(108.54177 -3.5488202e-17 -2.7325833)
(108.12817 6.3531043e-18 -2.7155714)
(107.73742 2.8258469e-17 -2.5631191)
(107.34389 -5.9124057e-17 -2.4821321)
(106.98895 7.5123798e-17 -2.2999751)
(106.65453 -2.2279212e-17 -2.128061)
(106.33027 1.3956873e-16 -1.8691405)
(105.98139 -6.5920897e-17 -1.5716065)
(105.57942 -1.7877496e-17 -1.1883104)
(105.10575 2.3690744e-17 -0.7353002)
(104.55614 -2.5947233e-16 -0.18935461)
(103.95048 -2.3590995e-16 0.44648467)
(103.32578 -4.0203885e-17 1.1808235)
(102.72816 -8.2864624e-17 2.0075771)
(102.1967 -1.384264e-16 2.9134853)
(101.7528 -4.1968173e-16 3.8641649)
(101.40004 -1.5626671e-16 4.814859)
(101.13489 -1.1827377e-16 5.7211022)
(100.9463 1.4341643e-15 6.5445597)
(100.81156 -2.2168082e-16 7.2596522)
(100.7036 -5.7244253e-17 7.8609824)
(100.60185 1.4344399e-15 8.3534726)
(100.47621 1.1327321e-15 8.7263275)
(100.30733 9.4428551e-17 8.963604)
(100.14719 -1.5424807e-15 9.1058616)
(100.03489 -7.2069542e-16 9.190636)
(99.882294 5.3869235e-16 9.1225279)
(99.797332 -3.8918952e-16 9.0563188)
(99.890957 1.8723794e-15 9.3177945)
(100.14117 -4.0088468e-16 9.9121267)
(100.35498 -5.7808774e-16 10.489085)
(100.45559 -2.0187123e-15 10.801437)
(100.48909 1.9875599e-17 10.923376)
(100.49785 2.9007749e-16 10.959871)
(100.49966 -1.2692986e-15 10.968295)
(100.49996 2.9399318e-15 10.969783)
(100.5 8.6052123e-16 10.96998)
(100.5 5.5065003e-16 10.969999)
(100.5 5.0292513e-17 10.97)
(70.040368 2.3223985e-16 -2.2334792)
(83.652834 -2.6250522e-16 -2.5491562)
(92.427418 4.3232039e-17 -2.8657564)
(99.802522 -3.6240042e-17 -3.1175346)
(106.17789 1.266366e-16 -3.377342)
(110.11535 -6.2697716e-17 -3.5099564)
(110.13387 7.5797264e-17 -3.5252533)
(109.86713 -1.0909778e-16 -3.4156007)
(109.4175 -9.8452483e-17 -3.4535035)
(109.09411 1.4059533e-16 -3.3061033)
(108.68697 -6.4127649e-17 -3.3338726)
(108.32818 1.9738819e-17 -3.1784654)
(107.91033 -5.8804844e-17 -3.1596254)
(107.51185 -3.3242195e-17 -2.9996728)
(107.10518 -9.7727169e-17 -2.9131605)
(106.73275 7.4750758e-17 -2.7230771)
(106.37907 -8.2426642e-17 -2.5421735)
(106.03693 8.3794874e-19 -2.2719215)
(105.67438 -1.9407466e-17 -1.9593576)
(105.26378 -4.9523153e-17 -1.5569127)
(104.78648 1.636742e-16 -1.0788832)
(104.23682 1.5679233e-17 -0.5023832)
(103.63478 -2.0558568e-16 0.16936298)
(103.01739 -5.052104e-16 0.94319183)
(102.43192 -1.0275973e-16 1.8108634)
(101.91966 -2.9648391e-16 2.7568165)
(101.50332 -5.6962771e-17 3.745058)
(101.18476 -7.7354077e-16 4.7288912)
(100.95681 -5.5921306e-16 5.6619297)
(100.80445 -1.0464141e-15 6.5050835)
(100.70227 1.7137729e-15 7.2330751)
(100.62065 5.2630898e-16 7.841514)
(100.53853 2.0028836e-16 8.3368148)
(100.42666 -6.4401372e-16 8.7101064)
(100.26854 -8.8748011e-16 8.9502213)
(100.11715 -5.8295383e-16 9.1004538)
(100.00624 2.7971216e-15 9.1913239)
(99.847199 -3.9540284e-15 9.1330129)
(99.757827 4.6868471e-15 9.0786952)
(99.843441 -4.5019386e-15 9.3419505)
(100.10522 -1.2980813e-16 9.9244246)
(100.33482 1.8463652e-16 10.491352)
(100.447 -1.5581454e-15 10.800721)
(100.48634 8.8700135e-16 10.922741)
(100.4972 -1.8375103e-15 10.959657)
(100.49955 1.8890904e-15 10.968249)
(100.49995 -1.6275893e-15 10.969776)
(100.5 -6.184108e-16 10.969979)
(100.5 -2.2239346e-15 10.969999)
(100.5 -1.4578421e-16 10.97)
(70.122773 -4.2887614e-17 -2.5455373)
(83.799745 -5.348121e-17 -2.9173296)
(92.622543 -7.750611e-17 -3.2770138)
(100.02578 3.3650793e-17 -3.56067)
(106.39366 -3.4845967e-18 -3.8552198)
(110.05101 -1.0144724e-16 -3.9813833)
(109.90001 8.9843643e-17 -3.9973938)
(109.64125 1.4312424e-16 -3.8769177)
(109.19169 -3.3522117e-16 -3.9206086)
(108.87107 2.8172405e-16 -3.7624079)
(108.46096 7.2933046e-17 -3.7925215)
(108.10105 -9.264211e-20 -3.6283453)
(107.67896 2.7535503e-17 -3.6073319)
(107.27292 -4.5084521e-17 -3.4396261)
(106.8534 7.23179e-17 -3.3470042)
(106.46348 -2.0173482e-16 -3.1485135)
(106.09008 1.0300592e-16 -2.957862)
(105.72904 4.6920284e-17 -2.6755638)
(105.35154 -2.7633351e-19 -2.3470434)
(104.93117 5.1782801e-17 -1.9243163)
(104.4489 -2.8057723e-16 -1.4199704)
(103.89915 4.4115312e-16 -0.81129294)
(103.30154 3.4491349e-16 -0.10176082)
(102.69317 2.2201484e-16 0.7135134)
(102.12212 1.3693938e-16 1.6237692)
(101.63144 4.2447506e-16 2.6106168)
(101.24468 7.5068443e-16 3.6363448)
(100.96267 -1.6740631e-16 4.6525707)
(100.77411 1.4280124e-16 5.6111757)
(100.65947 -2.0326381e-16 6.4724378)
(100.59089 -1.2740724e-15 7.2117386)
(100.53627 -1.0449348e-16 7.8258965)
(100.47395 -3.6520112e-16 8.3228904)
(100.37567 -7.1383892e-17 8.6959286)
(100.22819 -1.350467e-15 8.9387119)
(100.08569 7.0754798e-16 9.0964971)
(99.975851 1.2232119e-15 9.1913501)
(99.80978 7.104008e-16 9.1403999)
(99.716874 -1.3575025e-15 9.0989182)
(99.796865 2.9774743e-15 9.3685578)
(100.06999 1.3756551e-15 9.9422413)
(100.315 1.1595761e-15 10.497701)
(100.43856 5.1501671e-15 10.801665)
(100.48372 5.6287281e-16 10.922617)
(100.49662 3.7386365e-15 10.959561)
(100.49947 3.3840956e-16 10.968225)
(100.49994 -9.5723293e-16 10.969773)
(100.5 1.5455527e-15 10.969979)
(100.5 1.559675e-15 10.969999)
(100.5 -2.4440729e-16 10.97)
(70.200316 8.5162326e-17 -2.8637236)
(83.94309 4.6506592e-17 -3.2934052)
(92.815977 1.2675112e-16 -3.6972952)
(100.24521 -1.1026258e-16 -4.0135384)
(106.59264 -3.0321892e-16 -4.3431076)
(109.94381 1.203302e-16 -4.457486)
(109.65278 2.0030455e-17 -4.4751463)
(109.40196 1.1399273e-16 -4.3425964)
(108.95221 -1.2470776e-16 -4.3923418)
(108.63452 4.6797613e-18 -4.2228141)
(108.22123 1.5299115e-16 -4.2551391)
(107.85996 -1.6022011e-16 -4.0819991)
(107.4336 1.7751812e-16 -4.0584559)
(107.02014 -1.269488e-16 -3.8827864)
(106.588 9.4620503e-17 -3.783442)
(106.18061 9.1348324e-17 -3.5760454)
(105.78706 -2.4095306e-16 -3.3748279)
(105.40617 2.8425683e-16 -3.0796624)
(105.01243 -1.5243604e-16 -2.7341687)
(104.58112 -8.5225548e-17 -2.2898972)
(104.09312 4.5872966e-16 -1.7577169)
(103.5432 5.3910149e-17 -1.1151595)
(102.95087 -6.2900019e-16 -0.36589189)
(102.35334 2.8516382e-16 0.49281562)
(101.79924 -4.3300214e-16 1.4473343)
(101.33272 1.5628246e-16 2.4758751)
(100.97778 1.0001149e-16 3.5388751)
(100.73472 3.9723897e-16 4.5865781)
(100.58766 6.8439072e-16 5.5693166)
(100.51204 3.8527041e-16 6.4469161)
(100.47795 -5.7796585e-16 7.1957834)
(100.45082 9.1358942e-16 7.8141635)
(100.40832 -1.847879e-16 8.3116604)
(100.32334 2.4308253e-16 8.6836931)
(100.18614 4.2957766e-16 8.9286829)
(100.05245 -2.0730791e-15 9.0933767)
(99.943727 -5.0157734e-15 9.1914259)
(99.770854 3.7907542e-15 9.1487447)
(99.674313 -1.4269244e-15 9.1186412)
(99.75077 -1.9063694e-15 9.3965907)
(100.03596 -3.9945332e-15 9.964924)
(100.29635 -1.8906756e-15 10.508076)
(100.43082 -3.5840091e-15 10.804406)
(100.48144 8.6292751e-16 10.923096)
(100.49613 -8.6615043e-16 10.959592)
(100.49939 -2.8176807e-15 10.968222)
(100.49993 -7.3169743e-16 10.969772)
(100.49999 -3.3499416e-15 10.969979)
(100.5 2.3804446e-15 10.969999)
(100.5 7.4351754e-18 10.97)
(70.271322 4.992796e-16 -3.1874311)
(84.081828 1.6811497e-16 -3.6761459)
(93.00725 -1.0888599e-16 -4.1255878)
(100.46178 2.3024092e-16 -4.4749327)
(106.76985 -2.0237914e-16 -4.8390717)
(109.79253 2.0650647e-16 -4.9361039)
(109.39256 -2.2016058e-16 -4.9572297)
(109.1493 2.1096978e-17 -4.8117427)
(108.69904 2.4038994e-18 -4.86809)
(108.38434 1.973728e-17 -4.6869762)
(107.96762 -3.8164938e-17 -4.7215247)
(107.60463 6.9553409e-17 -4.5393173)
(107.17385 -1.9115496e-17 -4.5128954)
(106.75299 4.0683005e-17 -4.3290474)
(106.3084 -1.4416992e-16 -4.2223329)
(105.88356 -1.4904945e-17 -4.0054621)
(105.46946 1.0074764e-16 -3.7927684)
(105.06782 -1.8152029e-16 -3.483827)
(104.65655 3.1349303e-16 -3.1202244)
(104.21307 2.1446507e-16 -2.6530489)
(103.71848 4.7033911e-17 -2.0913881)
(103.16837 -1.2943823e-16 -1.4131011)
(102.58227 3.6051766e-17 -0.62207767)
(101.99758 -4.9393403e-16 0.28207142)
(101.46325 4.7561719e-16 1.2824888)
(101.02359 -1.1464548e-16 2.3534952)
(100.70313 -9.2457043e-16 3.4534389)
(100.50172 -4.6923932e-16 4.5314566)
(100.39776 8.322507e-17 5.5367468)
(100.36258 -6.900846e-16 6.4287534)
(100.36376 9.448435e-16 7.1853513)
(100.36448 1.7836987e-15 7.8063987)
(100.34177 -9.4063267e-16 8.3031522)
(100.26976 -4.3864628e-16 8.6733777)
(100.14255 2.3234944e-15 8.9201622)
(100.01765 1.026608e-15 9.0912063)
(99.909859 -1.1583182e-16 9.1915666)
(99.729752 -1.9445994e-15 9.1564195)
(99.630123 -2.0501021e-15 9.138539)
(99.704733 6.2057598e-16 9.4253721)
(100.0037 5.8114547e-15 9.9909035)
(100.28024 2.2764298e-15 10.52188)
(100.42425 4.4093076e-15 10.809071)
(100.47942 3.5222797e-16 10.924251)
(100.49565 -1.7397301e-15 10.959776)
(100.4993 7.1052656e-16 10.968246)
(100.49992 5.940192e-16 10.969774)
(100.49999 3.8102183e-15 10.969979)
(100.5 -3.1655232e-15 10.969999)
(100.5 -4.5281197e-16 10.97)
(70.337621 8.5851314e-16 -3.5157214)
(84.217303 -6.9572702e-16 -4.0642253)
(93.197958 9.5333559e-17 -4.5609868)
(100.67783 1.3949825e-16 -4.9446843)
(106.92003 -1.1410333e-16 -5.3423156)
(109.59781 4.2308657e-16 -5.4171312)
(109.12002 -2.3342773e-16 -5.4436501)
(108.88352 2.6905284e-17 -5.2846084)
(108.43219 -1.1477116e-16 -5.3480683)
(108.1203 6.3722732e-17 -5.155063)
(107.69987 -1.5460138e-16 -5.1917843)
(107.33468 5.6568019e-17 -5.0003802)
(106.89918 2.8065348e-17 -4.9706505)
(106.47082 8.3278502e-17 -4.7783698)
(106.0139 -1.6685268e-16 -4.663545)
(105.57163 5.3149412e-17 -4.4365533)
(105.13668 2.1599225e-16 -4.2113751)
(104.71347 -2.8315707e-16 -3.8876289)
(104.28343 -2.1525754e-16 -3.5046873)
(103.82656 -1.8209404e-16 -3.0131164)
(103.3246 -4.5975536e-18 -2.4201818)
(102.77436 -7.1661357e-17 -1.7041808)
(102.19556 3.3217625e-16 -0.86930502)
(101.62592 4.2290826e-16 0.082301867)
(101.11439 2.1348825e-16 1.1301549)
(100.70451 -1.0346904e-15 2.244348)
(100.42161 -1.0808067e-16 3.3808457)
(100.26449 -1.0226822e-15 4.4877049)
(100.20488 -6.268428e-16 5.513758)
(100.21169 1.7257437e-15 6.4181538)
(100.24871 -5.8054434e-16 7.1805185)
(100.27747 -4.1158349e-15 7.8026572)
(100.27443 -2.07257e-16 8.2974313)
(100.21501 7.0381639e-16 8.6650468)
(100.09748 -3.5914918e-16 8.9132073)
(99.981291 1.6449053e-15 9.0899768)
(99.874216 1.0092018e-15 9.1918439)
(99.686463 1.7399971e-15 9.16414)
(99.584146 5.6947707e-16 9.1587681)
(99.659 2.3571576e-15 9.4555502)
(99.973903 -4.3295118e-15 10.018495)
(100.26622 -1.3221906e-15 10.537253)
(100.41876 -1.0782243e-15 10.815593)
(100.47765 -2.9879767e-16 10.926088)
(100.4952 2.1071013e-15 10.96015)
(100.49922 1.0279514e-15 10.968304)
(100.49991 1.9400768e-15 10.969781)
(100.49999 -2.4847806e-15 10.969979)
(100.5 5.35708e-16 10.969999)
(100.5 1.3221643e-15 10.97)
(70.400327 -3.2912489e-16 -3.8516486)
(84.349646 2.3556577e-16 -4.4619336)
(93.388348 1.0796077e-16 -5.0075949)
(100.89512 -7.3816977e-17 -5.4266231)
(107.03698 -2.8385425e-16 -5.8544653)
(109.35721 4.4786551e-16 -5.9025927)
(108.83452 -3.2364577e-16 -5.9357766)
(108.60408 3.4503634e-16 -5.7620822)
(108.15112 -1.2827251e-16 -5.8328306)
(107.84175 -1.6211917e-16 -5.6274877)
(107.41737 1.0201922e-16 -5.6661787)
(107.04943 -6.3068298e-17 -5.4653767)
(106.60887 1.4904504e-16 -5.4317783)
(106.17285 -9.0614064e-17 -5.2307104)
(105.70369 6.9768918e-17 -5.1069365)
(105.24404 -1.4993672e-17 -4.8690702)
(104.78803 -1.3752745e-16 -4.6302807)
(104.34253 1.9966424e-16 -4.2905991)
(103.89264 7.0033955e-17 -3.8869573)
(103.42133 -1.8303251e-16 -3.3693699)
(102.91132 -1.7857088e-16 -2.7432299)
(102.36111 -5.3061473e-16 -1.9874107)
(101.79082 4.7695665e-16 -1.1065185)
(101.23859 7.2644998e-16 -0.1054552)
(100.75301 -1.9111795e-16 0.99126231)
(100.37629 1.1498935e-15 2.1492766)
(100.13457 1.4953176e-15 3.3217699)
(100.02354 2.0206249e-15 4.4558266)
(100.01001 -6.4292369e-16 5.5005334)
(100.06007 -2.2202481e-15 6.4152336)
(100.13332 1.4018237e-15 7.1812659)
(100.19009 1.3518061e-15 7.802901)
(100.20644 -6.6137275e-17 8.2945155)
(100.15909 -1.7047131e-15 8.6587712)
(100.05087 -1.4171744e-16 8.9079196)
(99.943301 2.310692e-15 9.089736)
(99.836538 -8.0298131e-16 9.1922544)
(99.640615 -3.3030879e-15 9.1716624)
(99.536147 -3.2025884e-16 9.1796214)
(99.613728 4.1367958e-16 9.4872304)
(99.947498 1.643205e-15 10.047971)
(100.25389 2.8551305e-15 10.554097)
(100.41403 -1.4217597e-15 10.822488)
(100.47626 8.1206004e-16 10.928332)
(100.49488 4.5517118e-16 10.960726)
(100.49917 -4.0779719e-15 10.968401)
(100.4999 -1.420162e-15 10.969793)
(100.49999 -4.9957627e-16 10.969981)
(100.5 4.2782598e-15 10.969999)
(100.5 -9.1666604e-17 10.97)
(70.457655 -1.3020305e-15 -4.1920979)
(84.476992 9.5412949e-16 -4.8644656)
(93.575109 -4.376716e-16 -5.4607608)
(101.11359 -2.4522374e-16 -5.916576)
(107.1141 4.2642159e-16 -6.3702675)
(109.06854 -8.118774e-17 -6.3905717)
(108.53542 -1.5996365e-16 -6.4328605)
(108.31036 6.8898313e-17 -6.243938)
(107.85505 -1.8619114e-16 -6.3224222)
(107.54775 4.5867711e-17 -6.1043892)
(107.11919 1.4522211e-16 -6.1448479)
(106.74798 4.785498e-17 -5.9343796)
(106.302 -2.1494126e-16 -5.8962308)
(105.85816 -1.5388793e-18 -5.6859292)
(105.37685 1.9608776e-16 -5.5522747)
(104.89994 -1.8911738e-17 -5.3026911)
(104.42274 2.0545909e-16 -5.049056)
(103.95441 -1.5822824e-16 -4.6921646)
(103.48376 2.824508e-16 -4.2662973)
(102.99705 6.4821761e-16 -3.7209819)
(102.47846 -5.0139693e-16 -3.0596283)
(101.92853 5.7230596e-16 -2.2617822)
(101.36815 -4.5273979e-16 -1.3326549)
(100.83592 -6.5731815e-16 -0.28020898)
(100.37946 -6.6737141e-16 0.86671752)
(100.03982 -5.7178418e-17 2.0691232)
(99.843178 -8.1985145e-16 3.2767738)
(99.779562 -1.0735572e-15 4.4361985)
(99.814067 1.4696762e-15 5.4972596)
(99.908389 1.7351969e-15 6.4200246)
(100.01806 -1.2840517e-15 7.1875097)
(100.1026 -1.0844605e-16 7.8070064)
(100.13793 7.6252562e-16 8.2943451)
(100.10205 2.6775935e-15 8.6545834)
(100.00273 -1.2468495e-15 8.9044072)
(99.903626 -1.7456103e-15 9.090609)
(99.796653 2.9642658e-15 9.1929586)
(99.591936 4.9907953e-15 9.1796324)
(99.485903 -3.3031234e-16 9.2016713)
(99.568987 -3.0349571e-15 9.5205473)
(99.923854 -3.282253e-17 10.079126)
(100.24373 -2.9240652e-15 10.57201)
(100.41062 -9.1292475e-16 10.829961)
(100.47536 -5.2704554e-15 10.930773)
(100.49471 1.075994e-16 10.961352)
(100.49914 1.0968437e-14 10.968527)
(100.4999 1.9277389e-16 10.969811)
(100.49999 8.6036956e-16 10.969982)
(100.5 -6.9157511e-15 10.969999)
(100.5 -1.4235622e-15 10.97)
(70.510859 4.3774555e-16 -4.5384119)
(84.599598 4.4952186e-17 -5.2734885)
(93.757571 -4.2741621e-16 -5.9216056)
(101.33417 2.6773536e-16 -6.4154081)
(107.15102 2.3934642e-16 -6.8902257)
(108.74685 -5.2214595e-16 -6.8834343)
(108.22049 2.7405083e-16 -6.9369497)
(108.0005 -1.1980845e-16 -6.731844)
(107.54241 1.7757273e-16 -6.8178268)
(107.23686 -8.1623572e-19 -6.5862205)
(106.80417 -4.8711047e-17 -6.6277944)
(106.42932 1.2288066e-16 -6.4072116)
(105.97765 -6.5565066e-17 -6.3637234)
(105.52583 2.2759237e-17 -6.1437227)
(105.03248 -8.0188432e-17 -5.9992088)
(104.53842 1.6338206e-16 -5.7369989)
(104.04001 -2.6105576e-16 -5.4671732)
(103.54839 -1.3054822e-16 -5.0916475)
(103.0562 -5.2092472e-18 -4.6417786)
(102.55245 -5.2658506e-17 -4.066926)
(102.02482 4.9577163e-16 -3.3683034)
(101.47557 -2.7872421e-16 -2.5261341)
(100.92673 -1.5174654e-16 -1.5465076)
(100.41733 -5.5383425e-16 -0.44088267)
(99.993346 9.4857654e-17 0.75749161)
(99.695413 1.7376444e-16 2.0047155)
(99.547237 1.418902e-16 3.2465372)
(99.532912 1.603668e-15 4.4291597)
(99.61722 -2.4504389e-17 5.5041861)
(99.756727 4.6913695e-16 6.4326215)
(99.902938 -1.3686764e-15 7.199257)
(100.01501 -1.6198024e-15 7.8149247)
(100.069 -1.6131466e-15 8.2969444)
(100.04418 -3.0438168e-15 8.6526384)
(99.953567 -3.985596e-15 8.9029292)
(99.862783 4.2521371e-16 9.0929795)
(99.755173 1.3868824e-15 9.1947471)
(99.541146 -1.4057824e-15 9.1888942)
(99.43404 1.3637567e-15 9.2252087)
(99.525039 3.6816928e-15 9.5553915)
(99.902276 -3.1945901e-16 10.111106)
(100.23552 -9.9689468e-16 10.590164)
(100.4082 5.9597564e-16 10.837472)
(100.47485 2.6567901e-15 10.933213)
(100.49465 -3.979371e-15 10.961977)
(100.49914 -4.0047967e-15 10.968651)
(100.4999 -2.8071738e-15 10.96983)
(100.49999 -6.5780254e-15 10.969984)
(100.5 3.2762005e-16 10.969999)
(100.5 -2.7745013e-15 10.97)
(70.555159 7.5982109e-16 -4.8921835)
(84.71252 -6.0764891e-16 -5.6916029)
(93.930663 2.3472312e-16 -6.3931331)
(101.55282 1.6995524e-16 -6.9262107)
(107.14352 -1.8371387e-16 -7.4178229)
(108.44291 3.9235947e-17 -7.3818012)
(107.88817 -2.0293012e-16 -7.4459438)
(107.67336 1.1769986e-16 -7.2236268)
(107.21237 -1.7044857e-16 -7.3173033)
(106.90826 -1.2592812e-16 -7.0717287)
(106.47157 -4.1022229e-17 -7.1141228)
(106.09272 1.1307896e-17 -6.8832831)
(105.63507 4.8790901e-17 -6.8337767)
(105.17505 4.6873987e-17 -6.6037041)
(104.66968 1.0789185e-16 -6.4473415)
(104.15861 -1.0027707e-16 -6.17154)
(103.63896 2.0245395e-16 -5.8841156)
(103.12366 -1.4913569e-17 -5.4883926)
(102.60924 -1.3932528e-17 -5.0125532)
(102.08775 -5.6443634e-16 -4.4059955)
(101.55071 -4.9524974e-16 -3.6678348)
(101.00271 3.7907432e-16 -2.7789103)
(100.46726 -7.1878412e-17 -1.7465031)
(99.98354 1.2182902e-15 -0.58605342)
(99.595814 1.0864458e-16 0.66481725)
(99.344721 -1.1321701e-15 1.9568936)
(99.247653 -5.6593394e-16 3.2317786)
(99.285164 -6.9638192e-16 4.4351497)
(99.420661 2.5435737e-16 5.5215457)
(99.606041 -4.818253e-16 6.4530292)
(99.788609 -6.6043807e-17 7.2163314)
(99.92765 4.4524287e-16 7.8262886)
(99.999695 -1.8186122e-16 8.3018102)
(99.985367 2.6785814e-15 8.6522877)
(99.903158 8.2274155e-15 8.9027516)
(99.820496 -4.0499878e-15 9.0960915)
(99.711705 -1.5598157e-15 9.1970052)
(99.487749 -2.6154115e-15 9.1974209)
(99.38017 1.6082787e-15 9.2499441)
(99.482338 -8.1136013e-16 9.5924194)
(99.883919 -1.5159282e-15 10.145074)
(100.22957 3.4115726e-15 10.609369)
(100.40687 2.8232579e-15 10.845393)
(100.47475 5.4098585e-15 10.935769)
(100.49469 5.128149e-15 10.962626)
(100.49916 -6.0754669e-17 10.968778)
(100.4999 -6.729585e-16 10.969848)