/*--------------------------------*- C++ -*----------------------------------*\
| =========                 |                                                 |
| \\      /  F ield         | OpenFOAM: The Open Source CFD Toolbox           |
|  \\    /   O peration     | Version:  2306                                  |
|   \\  /    A nd           | Website:  www.openfoam.com                      |
|    \\/     M anipulation  |                                                 |
\*---------------------------------------------------------------------------*/
FoamFile
{
    version     2.0;
    format      ascii;
    arch        "LSB;label=32;scalar=64";
    class       volScalarField;
    location    "175";
    object      magR;
}
// * * * * * * * * * * * * * * * * * * * * * * * * * * * * * * * * * * * * * //

dimensions      [0 2 -2 0 0 0 0];

internalField   nonuniform List<scalar> 
1340
(
59.7419
57.1078
54.0442
44.3283
1.8026
1.98246
2.3884
3.32894
0.394169
0.540651
0.643318
1.1046
0.0149915
0.0484702
0.121122
0.439208
0.0032837
0.00122085
0.00385988
0.0853813
5.13015e-07
0.000207141
0.000888885
0.00987364
1.54693e-05
1.5195e-06
0
0.00212046
2.32183e-05
1.59192e-05
1.83724e-06
0
2.92308e-05
3.1186e-05
3.26865e-05
1.33276e-06
2.46653e-05
2.41265e-05
4.0415e-05
1.81501e-05
2.49646e-05
2.46517e-05
3.47705e-05
4.2859e-05
2.31472e-05
2.32033e-05
2.95347e-05
4.68885e-05
2.22832e-05
2.24072e-05
2.71476e-05
4.2951e-05
2.10456e-05
2.10408e-05
2.5104e-05
3.85533e-05
1.99359e-05
1.98193e-05
2.3208e-05
3.47163e-05
1.87362e-05
1.85189e-05
2.13197e-05
3.12542e-05
1.75441e-05
1.72364e-05
1.95172e-05
2.8056e-05
1.63357e-05
1.59437e-05
1.7793e-05
2.5095e-05
1.5129e-05
1.46592e-05
1.61468e-05
2.23594e-05
1.39243e-05
1.33842e-05
1.45811e-05
1.98533e-05
1.27269e-05
1.21247e-05
1.30912e-05
1.75619e-05
1.15433e-05
1.08887e-05
1.16794e-05
1.54793e-05
1.03835e-05
9.68289e-06
1.03453e-05
1.35969e-05
9.25581e-06
8.51572e-06
9.08647e-06
1.18971e-05
8.16454e-06
7.39111e-06
7.90662e-06
1.03729e-05
7.11637e-06
6.31443e-06
6.80682e-06
9.01311e-06
6.12121e-06
5.29183e-06
5.7896e-06
7.80943e-06
5.18908e-06
4.32831e-06
4.85646e-06
6.7501e-06
4.32884e-06
3.42773e-06
4.01202e-06
5.8264e-06
3.55096e-06
2.59281e-06
3.26367e-06
5.03271e-06
2.86991e-06
1.82421e-06
2.62384e-06
4.36477e-06
2.30908e-06
1.12442e-06
2.11056e-06
3.81858e-06
1.90184e-06
4.96738e-07
1.74838e-06
3.38749e-06
1.67897e-06
1.14952e-07
1.55927e-06
3.06323e-06
1.64042e-06
5.7815e-07
1.53574e-06
2.83526e-06
1.73845e-06
1.00722e-06
1.62822e-06
2.68797e-06
1.90584e-06
1.37527e-06
1.77675e-06
2.60179e-06
2.09196e-06
1.68548e-06
1.94026e-06
2.55925e-06
2.89594e-06
2.26839e-06
1.9391e-06
2.09283e-06
2.54247e-06
2.92947e-06
2.41631e-06
2.14062e-06
2.22196e-06
2.53656e-06
2.95563e-06
2.53271e-06
2.29521e-06
2.32448e-06
2.53335e-06
2.96755e-06
2.61583e-06
2.4069e-06
2.39886e-06
2.52661e-06
2.96077e-06
2.66575e-06
2.47942e-06
2.44506e-06
2.51154e-06
2.93436e-06
2.68507e-06
2.51748e-06
2.46515e-06
2.48599e-06
2.88926e-06
2.67729e-06
2.52591e-06
2.46194e-06
2.44954e-06
2.82627e-06
2.64527e-06
2.50846e-06
2.43787e-06
2.40205e-06
2.7475e-06
2.59246e-06
2.46894e-06
2.39552e-06
2.34395e-06
2.65618e-06
2.52307e-06
2.41177e-06
2.33825e-06
2.27668e-06
2.55483e-06
2.44038e-06
2.34045e-06
2.26889e-06
2.20187e-06
2.44523e-06
2.3468e-06
2.25747e-06
2.18935e-06
2.12032e-06
2.32931e-06
2.24472e-06
2.1653e-06
2.10162e-06
2.03312e-06
2.20977e-06
2.13671e-06
2.06647e-06
2.00784e-06
1.94167e-06
2.15028e-06
2.0873e-06
2.02417e-06
1.96252e-06
1.90923e-06
1.84672e-06
2.01571e-06
1.96226e-06
1.90872e-06
1.8547e-06
1.80684e-06
1.74887e-06
1.88179e-06
1.83697e-06
1.7914e-06
1.74438e-06
1.70195e-06
1.64895e-06
1.74992e-06
1.7124e-06
1.67381e-06
1.63317e-06
1.59603e-06
1.54816e-06
1.62182e-06
1.59051e-06
1.55795e-06
1.52304e-06
1.49087e-06
1.44801e-06
1.49921e-06
1.47313e-06
1.44574e-06
1.41588e-06
1.38828e-06
1.35016e-06
1.38331e-06
1.36162e-06
1.33866e-06
1.31322e-06
1.2897e-06
1.25602e-06
1.27417e-06
1.2561e-06
1.2369e-06
1.21534e-06
1.19544e-06
1.1659e-06
1.17106e-06
1.15582e-06
1.13987e-06
1.12173e-06
1.10503e-06
1.07941e-06
1.08372e-06
1.07221e-06
1.05941e-06
1.04626e-06
1.0311e-06
1.01729e-06
9.9537e-07
9.86033e-07
9.76324e-07
9.6593e-07
9.55094e-07
9.42557e-07
9.31404e-07
9.12934e-07
8.91702e-07
8.83671e-07
8.75145e-07
8.6633e-07
8.56137e-07
8.47425e-07
8.32067e-07
8.01815e-07
7.95179e-07
7.88244e-07
7.81183e-07
7.73042e-07
7.66529e-07
7.53885e-07
7.1753e-07
7.12039e-07
7.06402e-07
7.0082e-07
6.9441e-07
6.89754e-07
6.79327e-07
6.41123e-07
6.3653e-07
6.31945e-07
6.27619e-07
6.22751e-07
6.19732e-07
6.11468e-07
5.7728e-07
5.73189e-07
5.69226e-07
5.65677e-07
5.61789e-07
5.59891e-07
5.53468e-07
5.26079e-07
5.22171e-07
5.1851e-07
5.15299e-07
5.1184e-07
5.10449e-07
5.05009e-07
4.80514e-07
4.76675e-07
4.73141e-07
4.70071e-07
4.66839e-07
4.6566e-07
4.60944e-07
4.36507e-07
4.32681e-07
4.29287e-07
4.26384e-07
4.23384e-07
4.22379e-07
4.18313e-07
3.96773e-07
3.92475e-07
3.88428e-07
3.84994e-07
3.8216e-07
3.79503e-07
3.79102e-07
3.77233e-07
3.5248e-07
3.47243e-07
3.42357e-07
3.37952e-07
3.34127e-07
3.30581e-07
3.28448e-07
3.24291e-07
2.96461e-07
2.9094e-07
2.86216e-07
2.82418e-07
2.79773e-07
2.78322e-07
2.81127e-07
2.86798e-07
2.18779e-07
2.07955e-07
1.98124e-07
1.8962e-07
1.82518e-07
1.7679e-07
1.72689e-07
1.65644e-07
1.74512e-07
1.71739e-07
1.71368e-07
1.73604e-07
1.7947e-07
1.89359e-07
2.11762e-07
2.4455e-07
1.9381e-07
1.92791e-07
1.91538e-07
1.89807e-07
1.88599e-07
1.94764e-07
2.30781e-07
2.69351e-07
5.3246e-07
5.52362e-07
5.69683e-07
5.85631e-07
6.03931e-07
6.30709e-07
6.96851e-07
7.52114e-07
9.96701e-07
9.99568e-07
1.00157e-06
1.00284e-06
1.0036e-06
1.00662e-06
1.02652e-06
9.7801e-07
1.90931e-06
1.90957e-06
1.90813e-06
1.90563e-06
1.90071e-06
1.89752e-06
1.8809e-06
1.74446e-06
12.1841
3.36478
0.930834
0.293029
0.0514365
0.00320476
0.000634709
0
1.61295e-06
2.75606e-05
4.9251e-05
4.94967e-05
4.48448e-05
4.04419e-05
3.6618e-05
3.31437e-05
2.99129e-05
2.69141e-05
2.41462e-05
2.15974e-05
1.92656e-05
1.7143e-05
1.52186e-05
1.3481e-05
1.19193e-05
1.05258e-05
9.28952e-06
8.19775e-06
7.23966e-06
6.40651e-06
5.69041e-06
5.0823e-06
4.57143e-06
4.14825e-06
3.80367e-06
3.52683e-06
3.30653e-06
3.13294e-06
2.9947e-06
2.8816e-06
2.78689e-06
2.70418e-06
2.62775e-06
2.55386e-06
2.48021e-06
2.40481e-06
2.32654e-06
2.2453e-06
2.16135e-06
2.07443e-06
1.98484e-06
1.89318e-06
1.79962e-06
1.70433e-06
1.60779e-06
1.51087e-06
1.41479e-06
1.32101e-06
1.2307e-06
1.14412e-06
1.06087e-06
9.79813e-07
9.00195e-07
8.21998e-07
7.4631e-07
6.73885e-07
6.08038e-07
5.51541e-07
5.04198e-07
4.6091e-07
4.18693e-07
3.78838e-07
3.24615e-07
2.93308e-07
1.62928e-07
2.67212e-07
2.45112e-07
7.39582e-07
8.63768e-07
1.55059e-06
7.1078
2.31773
0.467415
0.0776917
0.00792909
1.23246e-05
6.7201e-07
1.44681e-07
2.74687e-06
2.34845e-05
2.92352e-05
2.83927e-05
2.66087e-05
2.50258e-05
2.35837e-05
2.21739e-05
2.07727e-05
1.93788e-05
1.80116e-05
1.66759e-05
1.5384e-05
1.4142e-05
1.29551e-05
1.18339e-05
1.07811e-05
9.80118e-06
8.89687e-06
8.06816e-06
7.31377e-06
6.63396e-06
6.02721e-06
5.49021e-06
5.01817e-06
4.60661e-06
4.25138e-06
3.94607e-06
3.68509e-06
3.463e-06
3.27279e-06
3.10829e-06
2.96521e-06
2.83861e-06
2.72404e-06
2.61803e-06
2.51814e-06
2.42193e-06
2.32773e-06
2.23481e-06
2.14258e-06
2.05021e-06
1.95746e-06
1.86437e-06
1.77069e-06
1.67627e-06
1.58135e-06
1.48658e-06
1.39297e-06
1.30184e-06
1.2141e-06
1.1299e-06
1.04878e-06
9.69638e-07
8.91785e-07
8.15286e-07
7.4124e-07
6.70289e-07
6.05631e-07
5.49827e-07
5.03145e-07
4.60534e-07
4.18668e-07
3.79225e-07
3.24886e-07
2.9521e-07
1.61411e-07
2.80914e-07
2.13682e-07
7.43306e-07
8.55816e-07
1.58751e-06
4.31655
1.37375
0.197294
0.0144821
0.000597205
0.00012875
0
4.45788e-07
7.67927e-06
1.79367e-05
1.77515e-05
1.68108e-05
1.58579e-05
1.50705e-05
1.43486e-05
1.36488e-05
1.29712e-05
1.2312e-05
1.16684e-05
1.10501e-05
1.04503e-05
9.87043e-06
9.30656e-06
8.76352e-06
8.23999e-06
7.73447e-06
7.24885e-06
6.78424e-06
6.34059e-06
5.92071e-06
5.52606e-06
5.15746e-06
4.81549e-06
4.50072e-06
4.21345e-06
3.95248e-06
3.71699e-06
3.50552e-06
3.31523e-06
3.14353e-06
2.98884e-06
2.84833e-06
2.71935e-06
2.59976e-06
2.48776e-06
2.38143e-06
2.27927e-06
2.1806e-06
2.08454e-06
1.99015e-06
1.89694e-06
1.80467e-06
1.71283e-06
1.62107e-06
1.52948e-06
1.43852e-06
1.34902e-06
1.26209e-06
1.17847e-06
1.09817e-06
1.02064e-06
9.44822e-07
8.70092e-07
7.96571e-07
7.25376e-07
6.57064e-07
5.94621e-07
5.40519e-07
4.95451e-07
4.54505e-07
4.13887e-07
3.75604e-07
3.22397e-07
2.93801e-07
1.63803e-07
2.86853e-07
1.99056e-07
7.37403e-07
8.38427e-07
1.59103e-06
2.45192
0.621246
0.0469656
0.000832847
0.000195528
0
7.24529e-08
1.27091e-06
9.79111e-06
1.24063e-05
1.15111e-05
1.10608e-05
1.06241e-05
1.02559e-05
9.88757e-06
9.51469e-06
9.14762e-06
8.78416e-06
8.42601e-06
8.07984e-06
7.74072e-06
7.41317e-06
7.09481e-06
6.78565e-06
6.48685e-06
6.19699e-06
5.91494e-06
5.64094e-06
5.37451e-06
5.11622e-06
4.86623e-06
4.62457e-06
4.39209e-06
4.16925e-06
3.95683e-06
3.75545e-06
3.56543e-06
3.3871e-06
3.21981e-06
3.06312e-06
2.91708e-06
2.78068e-06
2.65259e-06
2.53219e-06
2.41849e-06
2.31025e-06
2.20658e-06
2.10705e-06
2.0109e-06
1.91728e-06
1.82574e-06
1.73585e-06
1.64706e-06
1.55895e-06
1.47144e-06
1.3849e-06
1.30003e-06
1.21776e-06
1.13866e-06
1.06263e-06
9.89067e-07
9.16945e-07
8.45722e-07
7.75537e-07
7.07526e-07
6.42179e-07
5.82312e-07
5.30366e-07
4.8724e-07
4.48137e-07
4.08991e-07
3.72123e-07
3.20423e-07
2.92979e-07
1.69103e-07
2.91168e-07
1.92716e-07
7.29916e-07
8.16783e-07
1.57866e-06
1.08954
0.163399
0.00248061
0.000362749
0
1.2989e-08
2.43819e-07
5.30431e-06
9.444e-06
9.263e-06
8.72263e-06
8.54883e-06
8.36236e-06
8.19685e-06
8.01439e-06
7.82285e-06
7.62309e-06
7.41229e-06
7.19481e-06
6.97054e-06
6.73939e-06
6.50453e-06
6.26884e-06
6.03107e-06
5.79455e-06
5.56214e-06
5.3324e-06
5.10782e-06
4.88923e-06
4.67699e-06
4.47159e-06
4.27287e-06
4.08158e-06
3.89729e-06
3.72015e-06
3.55061e-06
3.38823e-06
3.23332e-06
3.08531e-06
2.94417e-06
2.81022e-06
2.68279e-06
2.56131e-06
2.44583e-06
2.3357e-06
2.23025e-06
2.12903e-06
2.03182e-06
1.93806e-06
1.84709e-06
1.75853e-06
1.67191e-06
1.58672e-06
1.50254e-06
1.4192e-06
1.33701e-06
1.25659e-06
1.17872e-06
1.10383e-06
1.03175e-06
9.61831e-07
8.93115e-07
8.25143e-07
7.58064e-07
6.93034e-07
6.30462e-07
5.72988e-07
5.2304e-07
4.81675e-07
4.44146e-07
4.06276e-07
3.70653e-07
3.20344e-07
2.9414e-07
1.76152e-07
2.97724e-07
1.882e-07
7.30173e-07
8.05405e-07
1.57675e-06
0.289703
0.0131846
0.000950786
0
0
1.85775e-07
3.14037e-06
7.45168e-06
8.1203e-06
7.50942e-06
7.28993e-06
7.19956e-06
7.08255e-06
6.96569e-06
6.8343e-06
6.69814e-06
6.55323e-06
6.40043e-06
6.24286e-06
6.0789e-06
5.91028e-06
5.73767e-06
5.563e-06
5.38487e-06
5.20527e-06
5.02596e-06
4.84563e-06
4.66669e-06
4.48922e-06
4.31381e-06
4.1415e-06
3.97258e-06
3.80824e-06
3.64843e-06
3.49359e-06
3.34438e-06
3.20044e-06
3.06223e-06
2.92923e-06
2.80155e-06
2.67939e-06
2.56209e-06
2.44947e-06
2.34166e-06
2.23805e-06
2.13838e-06
2.04237e-06
1.94991e-06
1.86062e-06
1.77396e-06
1.68969e-06
1.60734e-06
1.5265e-06
1.44674e-06
1.36792e-06
1.2903e-06
1.21444e-06
1.141e-06
1.07028e-06
1.00209e-06
9.35757e-07
8.70406e-07
8.05642e-07
7.4166e-07
6.79608e-07
6.19799e-07
5.64675e-07
5.16683e-07
4.77053e-07
4.41029e-07
4.04411e-07
3.69991e-07
3.21089e-07
2.96273e-07
1.84083e-07
3.05581e-07
1.82795e-07
7.33404e-07
0.0246102
7.27171e-07
6.41451e-08
0
9.87468e-08
1.68904e-06
5.6709e-06
6.62859e-06
6.20834e-06
5.91753e-06
5.87701e-06
5.83028e-06
5.76579e-06
5.69676e-06
5.61792e-06
5.53539e-06
5.4447e-06
5.34633e-06
5.24246e-06
5.13236e-06
5.01766e-06
4.89845e-06
4.77467e-06
4.64771e-06
4.51891e-06
4.3881e-06
4.256e-06
4.12397e-06
3.99109e-06
3.8583e-06
3.72628e-06
3.59512e-06
3.46564e-06
3.33794e-06
3.21232e-06
3.08927e-06
2.96889e-06
2.85167e-06
2.73741e-06
2.62651e-06
2.51911e-06
2.41481e-06
2.31394e-06
2.21643e-06
2.12196e-06
2.03055e-06
1.94203e-06
1.85638e-06
1.77334e-06
1.69255e-06
1.61385e-06
1.53689e-06
1.46128e-06
1.38666e-06
1.31294e-06
1.24036e-06
1.16942e-06
1.10071e-06
1.03441e-06
9.70302e-07
9.07762e-07
8.45979e-07
7.84621e-07
7.2394e-07
6.65068e-07
6.08191e-07
5.55564e-07
5.09698e-07
4.71957e-07
4.37544e-07
4.02319e-07
3.69238e-07
3.21932e-07
2.98717e-07
1.92572e-07
3.1351e-07
0.000355594
0.000112264
0
5.62425e-08
1.00963e-06
4.51817e-06
5.55522e-06
5.22337e-06
4.92372e-06
4.86085e-06
4.8514e-06
4.81262e-06
4.76724e-06
4.7176e-06
4.66253e-06
4.60387e-06
4.53933e-06
4.46937e-06
4.39519e-06
4.31678e-06
4.23503e-06
4.14991e-06
4.06091e-06
3.9695e-06
3.8768e-06
3.78225e-06
3.68661e-06
3.59012e-06
3.49216e-06
3.39362e-06
3.29494e-06
3.19604e-06
3.09747e-06
2.99924e-06
2.90143e-06
2.80443e-06
2.70827e-06
2.61332e-06
2.5196e-06
2.42737e-06
2.33672e-06
2.24764e-06
2.16046e-06
2.07517e-06
1.99172e-06
1.91031e-06
1.83082e-06
1.75341e-06
1.67791e-06
1.60413e-06
1.53201e-06
1.46127e-06
1.39161e-06
1.32275e-06
1.25463e-06
1.1875e-06
1.12181e-06
1.05807e-06
9.96411e-07
9.36591e-07
8.78019e-07
8.19981e-07
7.62232e-07
7.0503e-07
6.49516e-07
5.95737e-07
5.45796e-07
5.02247e-07
4.66527e-07
4.33824e-07
4.00119e-07
3.68433e-07
3.22915e-07
3.01511e-07
1.73321e-05
0
2.47233e-08
4.4517e-07
3.8834e-06
4.86851e-06
4.57372e-06
4.27635e-06
4.1974e-06
4.19585e-06
4.17538e-06
4.14015e-06
4.10303e-06
4.06208e-06
4.01745e-06
3.96867e-06
3.91508e-06
3.85764e-06
3.79684e-06
3.73295e-06
3.66622e-06
3.59685e-06
3.52531e-06
3.45183e-06
3.37791e-06
3.30352e-06
3.22815e-06
3.15182e-06
3.07465e-06
2.9972e-06
2.9195e-06
2.84162e-06
2.764e-06
2.68613e-06
2.60834e-06
2.53086e-06
2.45348e-06
2.37655e-06
2.30011e-06
2.22414e-06
2.14873e-06
2.07402e-06
2.00006e-06
1.927e-06
1.85488e-06
1.78388e-06
1.71398e-06
1.64539e-06
1.57805e-06
1.51187e-06
1.44688e-06
1.38285e-06
1.31957e-06
1.25685e-06
1.19463e-06
1.13319e-06
1.07295e-06
1.01433e-06
9.57408e-07
9.0197e-07
8.47486e-07
7.93342e-07
7.39316e-07
6.85714e-07
6.33672e-07
5.83083e-07
5.35873e-07
4.94751e-07
4.61114e-07
4.30142e-07
3.98078e-07
0
1.37852e-09
2.67349e-08
3.45324e-06
4.42838e-06
4.07051e-06
3.79444e-06
3.70489e-06
3.69836e-06
3.68505e-06
3.65466e-06
3.62167e-06
3.58764e-06
3.55064e-06
3.51073e-06
3.46776e-06
3.42118e-06
3.37173e-06
3.32008e-06
3.26611e-06
3.20981e-06
3.15139e-06
3.09166e-06
3.0311e-06
2.97049e-06
2.90963e-06
2.84775e-06
2.78517e-06
2.72214e-06
2.65911e-06
2.59587e-06
2.53267e-06
2.46971e-06
2.40636e-06
2.34314e-06
2.27997e-06
2.21674e-06
2.15374e-06
2.09085e-06
2.02805e-06
1.96538e-06
1.90285e-06
1.84057e-06
1.77861e-06
1.71697e-06
1.65587e-06
1.59528e-06
1.5354e-06
1.47624e-06
1.41778e-06
1.36005e-06
1.3029e-06
1.2462e-06
1.18979e-06
1.1337e-06
1.07808e-06
1.02337e-06
9.6993e-07
9.17807e-07
8.66829e-07
8.16494e-07
7.66219e-07
7.15989e-07
6.66078e-07
6.17571e-07
5.70295e-07
3.80229e-10
5.31655e-09
2.87201e-06
4.15482e-06
3.68972e-06
3.42537e-06
3.34108e-06
3.32321e-06
3.30584e-06
3.27402e-06
3.23856e-06
3.20384e-06
3.16793e-06
3.13024e-06
3.09026e-06
3.04834e-06
3.00452e-06
2.95891e-06
2.91211e-06
2.86378e-06
2.81403e-06
2.76326e-06
2.71231e-06
2.66161e-06
2.61124e-06
2.56065e-06
2.50935e-06
2.4578e-06
2.40615e-06
2.35472e-06
2.30333e-06
2.25202e-06
2.20083e-06
2.14946e-06
2.09812e-06
2.04673e-06
1.99527e-06
1.9439e-06
1.89237e-06
1.84067e-06
1.78888e-06
1.73701e-06
1.68511e-06
1.63303e-06
1.58093e-06
1.52894e-06
1.47703e-06
1.42542e-06
1.37412e-06
1.32317e-06
1.27259e-06
1.22228e-06
1.1722e-06
1.12212e-06
1.07198e-06
1.02219e-06
9.73023e-07
9.24769e-07
8.7744e-07
8.309e-07
7.84875e-07
6.8981e-08
2.87624e-06
3.94598e-06
3.42955e-06
3.15844e-06
3.08801e-06
3.05942e-06
3.0312e-06
2.99294e-06
2.95165e-06
2.91186e-06
2.87269e-06
2.83268e-06
2.7918e-06
2.74953e-06
2.70654e-06
2.66291e-06
2.61829e-06
2.57316e-06
2.52718e-06
2.48087e-06
2.43472e-06
2.38947e-06
2.34501e-06
2.30103e-06
2.25713e-06
2.21303e-06
2.16924e-06
2.12589e-06
2.08308e-06
2.04059e-06
1.99841e-06
1.95646e-06
1.91451e-06
1.87272e-06
1.83094e-06
1.78917e-06
1.74744e-06
1.70545e-06
1.6633e-06
1.62111e-06
1.57846e-06
1.53526e-06
1.49206e-06
1.44853e-06
1.40477e-06
1.36083e-06
1.31688e-06
1.27297e-06
1.22913e-06
1.1854e-06
1.14163e-06
1.09785e-06
1.05427e-06
3.01725e-06
3.68835e-06
3.27081e-06
2.97547e-06
2.91972e-06
2.88136e-06
2.83871e-06
2.78996e-06
2.74037e-06
2.693e-06
2.64776e-06
2.60296e-06
2.55802e-06
2.51333e-06
2.46849e-06
2.42393e-06
2.37933e-06
2.33456e-06
2.2898e-06
2.24521e-06
2.20136e-06
2.15871e-06
2.1173e-06
2.0769e-06
2.03712e-06
1.99753e-06
1.95842e-06
1.92009e-06
1.8826e-06
1.8459e-06
1.80976e-06
1.7742e-06
1.73899e-06
1.70408e-06
1.66956e-06
1.63517e-06
1.60102e-06
1.5669e-06
1.5325e-06
1.49764e-06
1.46285e-06
1.42925e-06
)
;

boundaryField
{
    inlet
    {
        type            calculated;
        value           nonuniform List<scalar> 
13
(
6.46227e-06
6.54734e-06
6.62188e-06
6.68862e-06
6.75286e-06
6.8184e-06
6.90376e-06
6.92841e-06
6.86566e-06
6.82899e-06
6.77692e-06
6.73107e-06
6.69383e-06
)
;
    }
    outlet
    {
        type            calculated;
        value           nonuniform List<scalar> 0();
    }
    walls
    {
        type            calculated;
        value           nonuniform List<scalar> 4(1.0193 0.967575 0.896668 0.712898);
    }
    frontAndBack
    {
        type            empty;
    }
    procBoundary2to1
    {
        type            processor;
        value           nonuniform List<scalar> 
84
(
61.5441
1.63214
0.25859
0.00288769
0.00167132
1.65187e-06
3.55603e-05
2.6719e-05
2.90447e-05
2.5335e-05
2.53374e-05
2.39164e-05
2.31004e-05
2.19903e-05
2.09479e-05
1.98354e-05
1.8717e-05
1.75803e-05
1.64368e-05
1.52886e-05
1.41394e-05
1.29965e-05
1.18713e-05
1.07726e-05
9.70591e-06
8.67915e-06
7.70456e-06
6.79394e-06
5.9567e-06
5.20272e-06
4.54239e-06
3.98709e-06
3.54692e-06
3.22461e-06
3.01431e-06
2.90063e-06
2.85983e-06
2.8657e-06
2.8657e-06
3.64189e-06
3.55329e-06
3.47581e-06
3.40088e-06
3.32197e-06
3.23589e-06
3.14146e-06
3.03758e-06
2.92485e-06
2.80525e-06
2.68032e-06
2.551e-06
2.41847e-06
2.28444e-06
2.28444e-06
2.21346e-06
2.06821e-06
1.92542e-06
1.78613e-06
1.65177e-06
1.52394e-06
1.40374e-06
1.29105e-06
1.18488e-06
1.18488e-06
1.0948e-06
9.95254e-07
8.99439e-07
8.08342e-07
7.23075e-07
6.45888e-07
5.81604e-07
5.30264e-07
4.84639e-07
4.40463e-07
4.40463e-07
4.01526e-07
3.57979e-07
3.02757e-07
2.30352e-07
1.79575e-07
1.95226e-07
5.09832e-07
9.92404e-07
1.90656e-06
)
;
    }
    procBoundary2to3
    {
        type            processor;
        value           nonuniform List<scalar> 
88
(
7.99507e-07
1.57944e-06
1.77917e-07
7.99507e-07
7.36476e-07
2.01851e-07
1.77917e-07
3.21237e-07
3.67963e-07
3.24424e-07
2.01851e-07
3.04864e-07
5.2609e-07
4.87531e-07
4.5599e-07
4.26754e-07
3.67963e-07
3.96327e-07
7.38884e-07
6.92508e-07
6.46341e-07
6.01432e-07
5.2609e-07
5.57431e-07
1.01066e-06
9.66501e-07
9.22718e-07
8.7955e-07
8.36964e-07
7.94834e-07
7.38884e-07
7.52938e-07
1.39499e-06
1.35889e-06
1.32261e-06
1.28599e-06
1.24912e-06
1.21207e-06
1.17492e-06
1.13768e-06
1.10039e-06
1.06289e-06
1.02505e-06
1.01066e-06
9.8709e-07
3.72626e-06
3.14429e-06
2.91467e-06
2.83302e-06
2.79019e-06
2.72723e-06
2.66396e-06
2.60173e-06
2.54351e-06
2.48855e-06
2.43549e-06
2.38373e-06
2.3331e-06
2.28393e-06
2.23566e-06
2.18824e-06
2.1416e-06
2.09564e-06
2.05063e-06
2.0069e-06
1.96483e-06
1.92451e-06
1.88566e-06
1.84782e-06
1.81067e-06
1.77428e-06
1.73892e-06
1.70464e-06
1.67154e-06
1.63937e-06
1.60801e-06
1.57735e-06
1.54728e-06
1.5178e-06
1.48883e-06
1.46028e-06
1.4321e-06
1.40394e-06
1.37578e-06
1.34752e-06
1.31792e-06
1.39499e-06
1.28822e-06
)
;
    }
    procBoundary2to6
    {
        type            processor;
        value           nonuniform List<scalar> 
13
(
17.0222
12.5058
8.06729
5.12564
2.92864
1.28978
0.32729
0.0230705
7.96145e-05
4.52135e-06
0
4.45653e-09
4.12058e-07
)
;
    }
}


// ************************************************************************* //
