/*--------------------------------*- C++ -*----------------------------------*\
| =========                 |                                                 |
| \\      /  F ield         | OpenFOAM: The Open Source CFD Toolbox           |
|  \\    /   O peration     | Version:  2306                                  |
|   \\  /    A nd           | Website:  www.openfoam.com                      |
|    \\/     M anipulation  |                                                 |
\*---------------------------------------------------------------------------*/
FoamFile
{
    version     2.0;
    format      ascii;
    arch        "LSB;label=32;scalar=64";
    class       surfaceScalarField;
    location    "175";
    object      phi;
}
// * * * * * * * * * * * * * * * * * * * * * * * * * * * * * * * * * * * * * //

dimensions      [0 3 -1 0 0 0 0];

oriented        oriented;

internalField   nonuniform List<scalar> 
2579
(
0.202586
0.00471686
0.195754
0.00683198
0.181856
0.013898
0.162216
0.0196389
0.229717
0.00875974
0.224755
0.011794
0.214318
0.0243342
0.19614
0.0378165
0.249222
0.0124
0.244047
0.0169692
0.233696
0.034685
0.215727
0.0557842
0.266618
0.0154119
0.261857
0.0217293
0.252062
0.0444787
0.233535
0.0743116
0.280593
0.0181984
0.276226
0.0260972
0.267635
0.0530688
0.249697
0.0922496
0.295948
0.0211209
0.291253
0.0307916
0.282845
0.0614749
0.265326
0.109769
0.311646
0.0241383
0.306748
0.0356904
0.29833
0.069893
0.281333
0.126765
0.328424
0.0272546
0.323337
0.0407768
0.314794
0.0784341
0.298317
0.143243
0.346016
0.0304494
0.340752
0.0460419
0.332184
0.0870014
0.3163
0.159126
0.364566
0.0337337
0.359178
0.0514287
0.3506
0.0955783
0.335285
0.174441
0.384123
0.0370743
0.3786
0.0569525
0.370034
0.104144
0.355355
0.18912
0.404705
0.0404757
0.399075
0.0625819
0.390583
0.112635
0.376549
0.203153
0.426423
0.0439046
0.420714
0.0682917
0.41226
0.121089
0.398916
0.216497
0.449279
0.0473598
0.443524
0.0740453
0.435197
0.129414
0.422516
0.229178
0.473384
0.0508307
0.467611
0.0798194
0.459382
0.137643
0.447406
0.241154
0.498788
0.0542866
0.493012
0.085594
0.484945
0.145709
0.473695
0.252403
0.525556
0.0577234
0.519839
0.0913125
0.511926
0.153623
0.501371
0.262958
0.553801
0.0610699
0.548132
0.09698
0.540452
0.161302
0.5306
0.272809
0.583558
0.0643574
0.578016
0.102523
0.570544
0.168774
0.561406
0.281948
0.614944
0.0675247
0.609541
0.107925
0.602318
0.175995
0.593871
0.290395
0.648032
0.0705877
0.642819
0.11314
0.635887
0.182927
0.628091
0.298191
0.682954
0.0734597
0.677926
0.118166
0.671298
0.189554
0.664201
0.305288
0.719775
0.0761653
0.715004
0.122939
0.708707
0.195852
0.702225
0.311771
0.758622
0.0786471
0.754138
0.127422
0.748171
0.201818
0.74231
0.317631
0.799602
0.0809695
0.795455
0.13157
0.789843
0.20743
0.784568
0.322908
0.842848
0.082998
0.838971
0.135446
0.833859
0.212541
0.829135
0.327631
0.888526
0.0846644
0.885101
0.138872
0.880236
0.217407
0.876053
0.331815
0.93685
0.0860647
0.933526
0.142196
0.929234
0.221699
0.925597
0.335451
0.987571
0.08719
0.984884
0.144884
0.980905
0.225679
0.977868
0.33849
1.04135
0.088005
1.03903
0.147199
1.03554
0.229172
1.03295
0.341081
1.09816
0.0885136
1.09614
0.149222
1.09311
0.232202
1.09084
0.343358
1.15805
0.0886966
1.15658
0.150697
1.15404
0.234739
1.15218
0.345223
1.22152
0.0883098
1.22033
0.151889
1.21804
0.237034
1.21684
0.346423
1.28822
0.0879828
1.28759
0.152514
1.28579
0.238831
1.28485
0.347367
1.35905
0.0870733
1.35858
0.152992
1.35739
0.240018
1.35684
0.347914
1.43377
0.0859733
1.43384
0.152927
1.43277
0.241091
1.43258
0.348103
1.51267
0.0845632
1.513
0.152597
1.51252
0.241571
1.5127
0.347931
1.59624
0.0828774
1.59697
0.151872
1.59671
0.241825
1.59709
0.347551
1.68259
0.0237461
1.68444
0.0810251
1.68541
0.150905
1.68546
0.241782
1.68629
0.346713
1.77564
0.0207839
1.77775
0.0789168
1.77894
0.149717
1.77942
0.2413
1.78043
0.3457
1.87411
0.0176663
1.87634
0.0766889
1.87785
0.148204
1.87851
0.240646
1.87979
0.344412
1.97816
0.0145337
1.9806
0.0742437
1.98231
0.146491
1.98309
0.239875
1.98465
0.34285
2.08831
0.0112726
2.09083
0.0717247
2.09282
0.1445
2.09386
0.238841
2.0954
0.341304
2.20473
0.00801499
2.20745
0.0690044
2.20945
0.142497
2.21057
0.237727
2.21248
0.339388
2.32794
0.00477419
2.33071
0.066231
2.3327
0.140512
2.33404
0.236387
2.33601
0.337421
2.45822
0.00130541
2.4609
0.0635574
2.46312
0.138286
2.46438
0.235128
2.46641
0.335393
2.59587
-0.00202438
2.5987
0.0607352
2.60089
0.136096
2.60232
0.233691
2.60423
0.333485
2.74138
-0.00531053
2.74423
0.0578824
2.74636
0.133968
2.74782
0.232229
2.74989
0.33142
2.89534
-0.00859104
2.89805
0.0551701
2.90037
0.131649
2.90161
0.230992
2.90366
0.329366
3.0581
-0.0119688
3.06073
0.0525438
3.06284
0.129534
3.0642
0.229629
3.06624
0.327334
3.22997
-0.0150893
3.2326
0.0499194
3.23477
0.127364
3.2359
0.228498
3.23775
0.325487
3.41161
-0.018214
3.41438
0.0471538
3.41623
0.125517
3.41736
0.227366
3.41915
0.323695
3.60065
-0.0813771
3.60378
-0.021343
3.6062
0.0447286
3.60809
0.123631
3.60898
0.226475
3.6106
0.322074
3.80348
-0.0852099
3.80653
-0.0243988
3.80896
0.042302
3.81082
0.121769
3.81146
0.225838
3.813
0.320527
4.01787
-0.0891082
4.02096
-0.0274903
4.02322
0.0400418
4.02487
0.120123
4.02541
0.225297
4.02677
0.319167
4.24421
-0.0928477
4.24724
-0.0305164
4.24957
0.0377134
4.25094
0.11875
4.25128
0.224958
4.25231
0.31813
4.48338
-0.0968234
4.48627
-0.0334069
4.48831
0.0356806
4.48967
0.117389
4.4898
0.224827
4.49077
0.317158
4.73568
-0.100711
4.73855
-0.0362725
4.74071
0.0335198
4.7418
0.116294
4.74164
0.224992
4.74232
0.316481
5.00221
-0.104764
5.00512
-0.0391776
5.00701
0.0316227
5.00803
0.115278
5.00761
0.22541
5.00799
0.316104
5.28355
-0.108778
5.28638
-0.0420006
5.28822
0.0297846
5.28901
0.114484
5.28834
0.226084
5.28857
0.315874
5.58047
-0.112787
5.58326
-0.0447917
5.5849
0.0281443
5.58566
0.113721
5.58465
0.227093
5.58463
0.315904
5.8897
-0.186315
5.89387
-0.116963
5.89664
-0.0475543
5.89838
0.026399
5.89877
0.113336
5.89758
0.228279
5.89717
0.316318
6.22048
-0.192389
6.22458
-0.121066
6.22738
-0.0503557
6.22902
0.0247661
6.2293
0.113056
6.22772
0.22986
6.22711
0.316925
6.56928
-0.198616
6.5736
-0.125393
6.57646
-0.0532155
6.57778
0.0234481
6.57799
0.112844
6.5761
0.231752
6.57526
0.317765
6.93742
-0.205163
6.94203
-0.129997
6.94487
-0.0560572
6.94615
0.0221714
6.94621
0.112776
6.94311
0.234856
6.94239
0.318485
7.32552
-0.212718
7.32967
-0.134147
7.33202
-0.0584072
7.33316
0.0210282
7.33376
0.11218
7.33182
0.2368
7.32944
0.320859
7.73353
-0.21852
7.73842
-0.139036
7.74145
-0.0614438
7.74328
0.0192045
7.74205
0.113405
7.73963
0.239219
7.73856
0.321928
5.66536
-0.246605
5.69681
-0.170484
5.73321
-0.0978433
5.77255
-0.0201351
5.81929
0.066663
5.87769
0.180818
5.92929
0.270328
6.23519
-0.278488
6.27039
-0.205682
6.30797
-0.135425
6.35235
-0.064514
6.40423
0.0147859
6.46805
0.117002
6.5258
0.212576
6.86085
-0.313006
6.89993
-0.244758
6.94262
-0.178115
6.99217
-0.114061
7.04805
-0.0410955
7.1187
0.0463532
7.18013
0.151147
7.55136
-0.35029
7.59313
-0.286532
7.63982
-0.224798
7.69337
-0.167611
7.75591
-0.103638
7.83232
-0.0300605
7.90259
0.0808743
8.26793
-0.458468
8.31068
-0.393042
8.35532
-0.331173
8.40864
-0.278113
8.46631
-0.225289
8.53572
-0.173046
8.62056
-0.114895
8.69602
0.00541587
9.09938
-0.498898
9.14518
-0.438845
9.19663
-0.382617
9.25163
-0.333114
9.31745
-0.291115
9.39254
-0.248139
9.48482
-0.207171
9.56941
-0.0791714
10.0134
-0.543883
10.0624
-0.487841
10.1182
-0.438434
10.1814
-0.396302
10.2516
-0.361329
10.3338
-0.330319
10.4374
-0.310718
10.5285
-0.170293
11.0181
-0.593567
11.073
-0.542709
11.1346
-0.500056
11.2023
-0.463981
11.2796
-0.438667
11.3705
-0.421135
11.4834
-0.423627
11.5842
-0.271168
12.1193
-0.647846
12.18
-0.603342
12.246
-0.566076
12.3206
-0.538577
12.4061
-0.524212
12.5051
-0.520133
12.6271
-0.545572
12.7359
-0.379977
13.3298
-0.706072
13.3955
-0.668996
13.4689
-0.639565
13.5509
-0.620562
13.6441
-0.617358
13.754
-0.63009
13.8927
-0.684191
14.0156
-0.50297
14.6541
-0.770355
14.7259
-0.7408
14.8055
-0.719231
14.895
-0.710009
14.9977
-0.720079
15.1158
-0.748143
15.2578
-0.826211
15.3842
-0.629357
16.1501
-0.843093
16.231
-0.821785
16.3221
-0.810249
16.4229
-0.810884
16.5373
-0.834476
16.6753
-0.886076
16.8533
-1.00429
17.012
-0.787984
17.7814
17.8698
17.9671
18.076
18.1992
18.337
18.4952
18.6441
-0.177556
0.17913
-0.190404
0.208994
-0.203303
0.228622
-0.215132
0.245368
-0.226236
0.260798
-0.236694
0.275787
-0.2466
0.291237
-0.255897
0.307616
-0.264577
0.324978
-0.272617
0.343325
-0.280052
0.362789
-0.286854
0.383352
-0.29305
0.405111
-0.298652
0.428118
-0.30369
0.452443
-0.308178
0.478183
-0.312185
0.505378
-0.315715
0.534129
-0.318825
0.564515
-0.321559
0.596605
-0.323966
0.630499
-0.326095
0.66633
-0.327995
0.704125
-0.329716
0.74403
-0.331301
0.786153
-0.332794
0.830628
-0.334235
0.877495
-0.335661
0.927022
-0.337101
0.979309
-0.338587
1.03443
-0.34014
1.09239
-0.341772
1.15381
-0.343533
1.2186
-0.345404
1.28672
-0.347408
1.35885
-0.349553
1.43472
-0.351845
1.51499
-0.354288
1.59953
-0.356881
1.68889
-0.359623
1.78317
-0.362508
1.88268
-0.365529
1.98767
-0.368677
2.09855
-0.371926
2.21573
-0.375289
2.33937
-0.378749
2.46987
-0.382265
2.60775
-0.385832
2.75345
-0.389431
2.90726
-0.393044
3.06985
-0.396655
3.24136
-0.400244
3.42274
-0.403795
3.61415
-0.407292
3.8165
-0.410719
4.0302
-0.414064
4.25566
-0.417314
4.49402
-0.420462
4.74546
-0.4235
5.01103
-0.426423
5.29149
-0.429214
5.58742
-0.431911
5.89986
-0.434468
6.22967
-0.436893
6.57769
-0.439187
6.94468
-0.441349
7.3316
-0.443382
7.74059
-0.44478
5.93069
-0.446185
6.5272
-0.447573
7.18151
-0.448987
7.90401
-0.45037
8.6974
-0.451713
9.57075
-0.453006
10.5298
-0.454056
11.5853
-0.45518
12.737
-0.455338
14.0158
-0.458144
15.387
-0.456406
17.0102
18.6533
-0.18963
0.193006
-0.197809
0.217175
-0.204398
0.235209
-0.209544
0.250516
-0.213985
0.265236
-0.218411
0.280215
-0.223154
0.295978
-0.228209
0.312672
-0.233543
0.33031
-0.239117
0.3489
-0.244871
0.368541
-0.250786
0.389267
-0.256812
0.411136
-0.262901
0.434208
-0.269011
0.458552
-0.275103
0.484275
-0.281107
0.511381
-0.287007
0.54003
-0.29276
0.570268
-0.298333
0.602177
-0.3037
0.635866
-0.308842
0.671471
-0.313746
0.709029
-0.31841
0.748693
-0.322832
0.790576
-0.327024
0.834819
-0.330998
0.88147
-0.334777
0.9308
-0.338381
0.982913
-0.341838
1.03789
-0.345172
1.09572
-0.348427
1.15706
-0.351594
1.22177
-0.354733
1.28986
-0.357856
1.36197
-0.360987
1.43785
-0.364143
1.51814
-0.367342
1.60273
-0.370595
1.69214
-0.373911
1.78649
-0.377298
1.88607
-0.380758
1.99113
-0.38429
2.10208
-0.387906
2.21935
-0.391573
2.34303
-0.395283
2.47358
-0.399053
2.61152
-0.402856
2.75726
-0.406681
2.91109
-0.410512
3.07368
-0.414336
3.24518
-0.418137
3.42654
-0.4219
3.61792
-0.425609
3.82021
-0.42925
4.03384
-0.432809
4.25922
-0.43629
4.4975
-0.439654
4.74883
-0.442894
5.01427
-0.446033
5.29463
-0.449067
5.59045
-0.451947
5.90274
-0.45471
6.23243
-0.457353
6.58033
-0.459828
6.94716
-0.46218
7.33396
-0.464398
7.74281
-0.465943
5.93224
-0.467466
6.52873
-0.469024
7.18307
-0.470548
7.90553
-0.472074
8.69892
-0.473561
9.57224
-0.474997
10.5312
-0.476178
11.5865
-0.477451
12.7383
-0.477736
14.0161
-0.480806
15.39
-0.47959
17.009
18.6627
-0.221048
0.205265
-0.229118
0.225246
-0.235345
0.241435
-0.240437
0.255608
-0.245027
0.269825
-0.249496
0.284683
-0.253929
0.300411
-0.258316
0.317058
-0.26263
0.334624
-0.266898
0.353168
-0.271131
0.372774
-0.275323
0.393459
-0.279494
0.415307
-0.283647
0.43836
-0.287809
0.462714
-0.291984
0.48845
-0.296186
0.515583
-0.300394
0.544238
-0.304637
0.574511
-0.308906
0.606445
-0.313205
0.640165
-0.317498
0.675765
-0.321806
0.713337
-0.326119
0.753006
-0.330403
0.79486
-0.334648
0.839064
-0.338863
0.885685
-0.343029
0.934966
-0.347138
0.987023
-0.351188
1.04194
-0.355177
1.09971
-0.359108
1.16099
-0.362987
1.22565
-0.366832
1.2937
-0.370631
1.36577
-0.374406
1.44163
-0.378168
1.52191
-0.381929
1.60649
-0.385688
1.6959
-0.38949
1.79029
-0.393295
1.88987
-0.397144
1.99498
-0.401042
2.10598
-0.404952
2.22326
-0.40891
2.34699
-0.412901
2.47757
-0.416931
2.61555
-0.420968
2.76129
-0.425015
2.91513
-0.429047
3.07771
-0.43308
3.24921
-0.437101
3.43056
-0.441055
3.62187
-0.44497
3.82413
-0.448832
4.0377
-0.452586
4.26297
-0.456263
4.50118
-0.459838
4.7524
-0.463306
5.01773
-0.466658
5.29798
-0.46989
5.59368
-0.472995
5.90585
-0.475967
6.2354
-0.478799
6.58316
-0.481505
6.94986
-0.484052
7.3365
-0.486445
7.74521
-0.48811
5.9339
-0.489803
6.53042
-0.491473
7.18474
-0.493176
7.90723
-0.494837
8.70059
-0.496491
9.57389
-0.498086
10.5328
-0.499392
11.5878
-0.500845
12.7397
-0.501217
14.0165
-0.50465
15.3935
-0.503772
17.0081
18.6723
-0.251522
0.213611
-0.256911
0.23063
-0.260695
0.245214
-0.263972
0.25888
-0.267241
0.273091
-0.27066
0.288098
-0.274212
0.303962
-0.277875
0.320718
-0.281626
0.338375
-0.285459
0.356999
-0.289357
0.376672
-0.293311
0.397411
-0.297303
0.4193
-0.301327
0.442383
-0.305377
0.466765
-0.30942
0.492492
-0.313473
0.519636
-0.317523
0.548287
-0.321566
0.578554
-0.325601
0.61048
-0.329628
0.644192
-0.333659
0.679795
-0.337665
0.717344
-0.341681
0.757021
-0.345699
0.798878
-0.349723
0.843088
-0.353753
0.889715
-0.357791
0.939004
-0.361837
0.991069
-0.365891
1.04599
-0.369949
1.10377
-0.374013
1.16506
-0.37808
1.22971
-0.382149
1.29777
-0.386221
1.36984
-0.390295
1.4457
-0.394374
1.52599
-0.39846
1.61058
-0.402567
1.70001
-0.406664
1.79439
-0.41079
1.894
-0.414934
1.99912
-0.419098
2.11015
-0.423285
2.22744
-0.427492
2.3512
-0.431717
2.4818
-0.435957
2.61979
-0.440206
2.76554
-0.444458
2.91939
-0.448703
3.08196
-0.452933
3.25344
-0.457135
3.43476
-0.461299
3.62603
-0.465411
3.82824
-0.469458
4.04175
-0.473442
4.26696
-0.477308
4.50504
-0.481091
4.75619
-0.484782
5.02142
-0.488346
5.30155
-0.491775
5.59711
-0.495091
5.90917
-0.498273
6.23858
-0.501314
6.5862
-0.50421
6.95276
-0.506958
7.33925
-0.509564
7.74781
-0.511369
5.9357
-0.513194
6.53224
-0.515031
7.18658
-0.516874
7.90908
-0.518711
8.70242
-0.520513
9.57569
-0.522271
10.5346
-0.523731
11.5892
-0.525365
12.7414
-0.525907
14.017
-0.529596
15.3972
-0.52927
17.0078
18.6821
-0.28776
0.219383
-0.291142
0.234018
-0.293318
0.247394
-0.29533
0.260896
-0.297447
0.275211
-0.299703
0.290356
-0.302056
0.306315
-0.304527
0.32319
-0.307112
0.340961
-0.309814
0.359701
-0.312638
0.379495
-0.315581
0.400355
-0.318648
0.422365
-0.321843
0.445578
-0.325137
0.470059
-0.328552
0.495906
-0.332072
0.523157
-0.33569
0.551905
-0.339396
0.58226
-0.343182
0.614265
-0.347036
0.648046
-0.35095
0.683708
-0.354912
0.721306
-0.358916
0.761024
-0.362952
0.802915
-0.367016
0.847151
-0.371102
0.893801
-0.375206
0.943108
-0.379327
0.99519
-0.383463
1.05013
-0.387612
1.10792
-0.391778
1.16922
-0.395958
1.23389
-0.400154
1.30197
-0.404366
1.37405
-0.408595
1.44993
-0.412842
1.53023
-0.417107
1.61484
-0.42139
1.70429
-0.425693
1.79869
-0.430015
1.89832
-0.43437
2.00348
-0.438718
2.11449
-0.443098
2.23182
-0.447494
2.3556
-0.451905
2.48621
-0.456326
2.62421
-0.460753
2.76997
-0.46518
2.92381
-0.469601
3.08638
-0.474018
3.25786
-0.478384
3.43913
-0.482726
3.63038
-0.487019
3.83253
-0.491252
4.04598
-0.495411
4.27112
-0.499486
4.50912
-0.503467
4.76017
-0.507346
5.0253
-0.511115
5.30532
-0.514768
5.60076
-0.518309
5.91271
-0.521687
6.24196
-0.524937
6.58945
-0.52804
6.95586
-0.530995
7.34221
-0.533804
7.75062
-0.535755
5.93766
-0.537732
6.53422
-0.539727
7.18857
-0.541735
7.91109
-0.543742
8.70443
-0.545719
9.57767
-0.547647
10.5365
-0.549284
11.5909
-0.55107
12.7431
-0.551876
14.0178
-0.555726
15.401
-0.556097
-0.325212
0.223004
-0.327202
0.23601
-0.328714
0.248905
-0.330309
0.262493
-0.332013
0.276914
-0.333793
0.292137
-0.335666
0.308188
-0.337596
0.32512
-0.339624
0.342989
-0.341725
0.361803
-0.343904
0.381673
-0.34618
0.402631
-0.348549
0.424735
-0.351015
0.448044
-0.353581
0.472624
-0.35625
0.498575
-0.359025
0.525931
-0.361918
0.554797
-0.36491
0.585252
-0.368013
0.617367
-0.371215
0.651248
-0.374535
0.687028
-0.37797
0.724741
-0.381486
0.76454
-0.385107
0.806536
-0.388829
0.850873
-0.392623
0.897594
-0.396492
0.946977
-0.400429
0.999127
-0.404429
1.05412
-0.408482
1.11197
-0.412586
1.17332
-0.416734
1.23804
-0.420912
1.30614
-0.425138
1.37828
-0.4294
1.45419
-0.433696
1.53453
-0.438024
1.61917
-0.442383
1.70865
-0.446773
1.80308
-0.451203
1.90275
-0.455636
2.00791
-0.460108
2.11897
-0.464616
2.23633
-0.469134
2.36011
-0.473669
2.49074
-0.478206
2.62874
-0.482765
2.77453
-0.487328
2.92838
-0.491901
3.09095
-0.496435
3.2624
-0.500963
3.44366
-0.505473
3.63489
-0.509927
3.83699
-0.514312
4.05037
-0.518644
4.27545
-0.522898
4.51337
-0.527065
4.76433
-0.531135
5.02937
-0.535102
5.30928
-0.538956
5.60462
-0.542687
5.91644
-0.546301
6.24557
-0.549745
6.5929
-0.553057
6.95918
-0.55622
7.34537
-0.559251
7.75365
-0.561337
5.93974
-0.563471
6.53636
-0.565631
7.19074
-0.567811
7.91326
-0.570013
8.70663
-0.572157
9.57981
-0.574266
10.5386
-0.576092
11.5927
-0.578059
12.7451
-0.579131
-0.362723
0.22485
-0.363884
0.237173
-0.365068
0.250087
-0.366382
0.263808
-0.367772
0.278304
-0.369226
0.293592
-0.370747
0.309708
-0.372335
0.326709
-0.373996
0.34465
-0.375732
0.363538
-0.377545
0.383486
-0.379437
0.404524
-0.381413
0.42671
-0.383473
0.450104
-0.38562
0.474771
-0.387855
0.50081
-0.390181
0.528257
-0.3926
0.557216
-0.395113
0.587766
-0.397724
0.619978
-0.400433
0.653956
-0.403243
0.689838
-0.406155
0.727653
-0.409171
0.767556
-0.412292
0.809657
-0.415517
0.854099
-0.418847
0.900924
-0.422279
0.950409
-0.425812
1.00266
-0.429442
1.05776
-0.433166
1.1157
-0.43698
1.17714
-0.440878
1.24194
-0.444856
1.31012
-0.448908
1.38233
-0.45303
1.45831
-0.457217
1.53872
-0.461464
1.62342
-0.465768
1.71295
-0.470123
1.80743
-0.474528
1.90715
-0.478978
2.01236
-0.483468
2.12346
-0.487998
2.24086
-0.492561
2.36468
-0.497154
2.49534
-0.501771
2.63336
-0.506408
2.77917
-0.511059
2.93303
-0.515715
3.09561
-0.520369
3.26705
-0.525011
3.4483
-0.529631
3.63951
-0.534218
3.84157
-0.538759
4.05491
-0.543242
4.27993
-0.547656
4.51779
-0.551992
4.76867
-0.55624
5.03362
-0.560391
5.31343
-0.564452
5.60868
-0.568366
5.92035
-0.572167
6.24938
-0.57583
6.59656
-0.579349
6.96269
-0.582721
7.34874
-0.585946
7.75688
-0.5882
5.94199
-0.590495
6.53865
-0.592826
7.19307
-0.595184
7.91562
-0.597557
8.70901
-0.59991
9.58217
-0.60221
10.5409
-0.604235
-0.400927
0.225751
-0.40177
0.238016
-0.402756
0.251072
-0.403814
0.264866
-0.404922
0.27941
-0.40608
0.29475
-0.407293
0.310921
-0.408575
0.327991
-0.409899
0.345974
-0.411299
0.364938
-0.412779
0.384965
-0.41432
0.406066
-0.415939
0.428328
-0.417626
0.451791
-0.419407
0.476551
-0.421284
0.502687
-0.423239
0.530212
-0.425274
0.559252
-0.427414
0.589906
-0.429651
0.622214
-0.431996
0.656301
-0.434419
0.692262
-0.436956
0.73019
-0.439606
0.770206
-0.44235
0.812401
-0.445188
0.856937
-0.448143
0.903878
-0.451204
0.95347
-0.454372
1.00583
-0.457646
1.06103
-0.461025
1.11908
-0.46451
1.18062
-0.468098
1.24553
-0.471798
1.31382
-0.475585
1.38612
-0.479466
1.46219
-0.483439
1.54269
-0.487499
1.62748
-0.491629
1.71708
-0.495862
1.81167
-0.500142
1.91143
-0.504504
2.01672
-0.508941
2.12789
-0.513411
2.24533
-0.517946
2.36921
-0.522528
2.49992
-0.527164
2.638
-0.531821
2.78382
-0.536507
2.93771
-0.541199
3.1003
-0.545916
3.27177
-0.550648
3.45303
-0.555343
3.6442
-0.56003
3.84626
-0.564698
4.05958
-0.569293
4.28453
-0.573858
4.52235
-0.578342
4.77315
-0.582735
5.03801
-0.587057
5.31776
-0.591281
5.6129
-0.595397
5.92447
-0.599391
6.25337
-0.603268
6.60044
-0.60699
6.96642
-0.610569
7.35232
-0.613989
7.7603
-0.616412
5.94442
-0.618873
6.54111
-0.621378
7.19557
-0.623921
7.91817
-0.626473
-0.629044
-0.440114
0.226374
-0.440876
0.23878
-0.441691
0.251889
-0.442552
0.265729
-0.443451
0.28031
-0.444403
0.295703
-0.445381
0.311899
-0.446418
0.329028
-0.447507
0.347063
-0.44865
0.366082
-0.449853
0.386168
-0.451116
0.40733
-0.452446
0.429658
-0.453854
0.4532
-0.455324
0.478021
-0.456859
0.504222
-0.458485
0.531837
-0.460193
0.560961
-0.46199
0.591702
-0.463877
0.624101
-0.465859
0.658283
-0.46795
0.694353
-0.47012
0.73236
-0.472406
0.772492
-0.474798
0.814793
-0.477298
0.859437
-0.479909
0.906488
-0.482631
0.956192
-0.485465
1.00866
-0.488414
1.06398
-0.491486
1.12215
-0.494649
1.18379
-0.497936
1.24882
-0.501335
1.31722
-0.504844
1.38963
-0.508462
1.46581
-0.512187
1.54641
-0.516016
1.63131
-0.519958
1.72102
-0.523973
1.81568
-0.528105
1.91557
-0.532314
2.02093
-0.536594
2.13217
-0.540966
2.2497
-0.545409
2.37366
-0.54992
2.50443
-0.55449
2.64257
-0.559114
2.78845
-0.563783
2.94238
-0.56849
3.10501
-0.573238
3.27651
-0.577977
3.45777
-0.58275
3.64897
-0.587504
3.85101
-0.592225
4.0643
-0.596943
4.28924
-0.601591
4.527
-0.6062
4.77776
-0.610761
5.04257
-0.615233
5.32223
-0.619606
5.61727
-0.623909
5.92877
-0.628071
6.25753
-0.632124
6.60449
-0.636043
6.97034
-0.639826
7.3561
-0.643485
-0.646033
-0.64866
-0.651344
-0.480433
0.226966
-0.481091
0.239439
-0.481788
0.252586
-0.482502
0.266442
-0.483249
0.281057
-0.484021
0.296476
-0.484854
0.312731
-0.485706
0.329881
-0.486625
0.347981
-0.48758
0.367037
-0.488573
0.387161
-0.48963
0.408388
-0.490743
0.430771
-0.491915
0.454372
-0.493149
0.479255
-0.494449
0.505522
-0.495819
0.533207
-0.497273
0.562415
-0.498794
0.593223
-0.500396
0.625703
-0.502072
0.659959
-0.503849
0.69613
-0.505731
0.734242
-0.507688
0.774448
-0.509756
0.816861
-0.511941
0.861622
-0.514222
0.908769
-0.516614
0.958584
-0.51912
1.01117
-0.521742
1.0666
-0.524469
1.12488
-0.527339
1.18666
-0.530317
1.25179
-0.533404
1.32031
-0.536622
1.39285
-0.53996
1.46915
-0.543416
1.54987
-0.54699
1.63488
-0.550677
1.72471
-0.554478
1.81948
-0.558386
1.91948
-0.562401
2.02494
-0.566516
2.13629
-0.570742
2.25393
-0.575046
2.37796
-0.579435
2.50882
-0.583891
2.64702
-0.588432
2.79299
-0.593038
2.94699
-0.597714
3.10968
-0.602409
3.28121
-0.607155
3.46252
-0.611925
3.65374
-0.616708
3.8558
-0.621491
4.06908
-0.626259
4.29401
-0.631003
4.53174
-0.63571
4.78247
-0.640371
5.04723
-0.644973
5.32683
-0.649519
5.62182
-0.65395
-0.65831
-0.662527
-0.666636
-0.521961
0.227494
-0.522512
0.23999
-0.523071
0.253146
-0.523668
0.267039
-0.524294
0.281684
-0.524963
0.297145
-0.525642
0.313411
-0.526379
0.330619
-0.527133
0.348734
-0.527937
0.367842
-0.528796
0.38802
-0.529689
0.409281
-0.530631
0.431712
-0.531612
0.455353
-0.532672
0.480315
-0.533778
0.506628
-0.534946
0.534375
-0.536167
0.563637
-0.53747
0.594525
-0.538844
0.627078
-0.540308
0.661423
-0.541841
0.697663
-0.543448
0.735848
-0.545167
0.776167
-0.546967
0.818661
-0.548852
0.863507
-0.55085
0.910767
-0.552953
0.960687
-0.555165
1.01338
-0.557488
1.06892
-0.559927
1.12732
-0.562483
1.18921
-0.56516
1.25447
-0.567972
1.32312
-0.570896
1.39577
-0.573946
1.4722
-0.57712
1.55304
-0.580421
1.63818
-0.583846
1.72814
-0.587395
1.82303
-0.591052
1.92313
-0.594842
2.02873
-0.59876
2.14021
-0.602766
2.25793
-0.606892
2.38209
-0.611121
2.51305
-0.615461
2.65136
-0.619878
2.79741
-0.62438
2.95149
-0.628944
3.11425
-0.633587
3.28585
-0.6383
3.46723
-0.64303
3.65847
-0.647806
3.86057
-0.652615
-0.657415
-0.66221
-0.666988
-0.671723
-0.676445
-0.564767
0.227938
-0.565227
0.240449
-0.565719
0.253637
-0.566223
0.267543
-0.566752
0.282213
-0.567297
0.297689
-0.567893
0.314007
-0.568497
0.331222
-0.569156
0.349394
-0.569839
0.368525
-0.570548
0.388728
-0.571308
0.41004
-0.57211
0.432514
-0.572968
0.456212
-0.573852
0.481198
-0.574798
0.507574
-0.575799
0.535376
-0.57687
0.564707
-0.57799
0.595645
-0.579177
0.628264
-0.580421
0.662667
-0.58175
0.698992
-0.583168
0.737267
-0.584644
0.777643
-0.586217
0.820235
-0.587892
0.865182
-0.589649
0.912524
-0.591504
0.962542
-0.593461
1.01534
-0.595525
1.07099
-0.597698
1.12949
-0.599973
1.19149
-0.602389
1.25689
-0.604901
1.32563
-0.607548
1.39842
-0.610321
1.47497
-0.613221
1.55595
-0.61625
1.64121
-0.619408
1.7313
-0.622697
1.82632
-0.626129
1.92656
-0.629678
2.03228
-0.63334
-0.63714
-0.641075
-0.645114
-0.649254
-0.653515
-0.657878
-0.662348
-0.66689
-0.671494
-0.676189
-0.608992
-0.609371
-0.609782
-0.610214
-0.610667
-0.611143
-0.611645
-0.612184
-0.612729
-0.613315
-0.613933
-0.614598
-0.615288
-0.616005
-0.616777
-0.617605
-0.61847
-0.619374
-0.620345
-0.621374
-0.622478
-0.623623
-0.62485
-0.626151
-0.627541
-0.62899
-0.630537
-0.632175
-0.633908
-0.635742
-0.637678
-0.639735
-0.641879
-0.644152
-0.646545
-0.64906
-0.651701
-0.654484
-0.657371
-0.660404
-0.66357
)
;

boundaryField
{
    inlet
    {
        type            calculated;
        value           nonuniform List<scalar> 
13
(
-0.921509
-0.910188
-0.907549
-0.919833
-0.957655
-1.02384
-1.16257
-0.936878
-0.465599
-0.488932
-0.513443
-0.539034
-0.565821
)
;
    }
    outlet
    {
        type            calculated;
        value           nonuniform List<scalar> 0();
    }
    walls
    {
        type            calculated;
        value           uniform 0;
    }
    frontAndBack
    {
        type            empty;
        value           nonuniform List<scalar> 0();
    }
    procBoundary2to1
    {
        type            processor;
        value           nonuniform List<scalar> 
84
(
-0.207302
-0.233761
-0.252861
-0.269632
-0.283378
-0.298872
-0.314661
-0.331542
-0.349208
-0.367851
-0.387461
-0.408108
-0.429849
-0.452735
-0.476852
-0.502244
-0.528991
-0.557148
-0.586843
-0.618111
-0.651092
-0.685826
-0.722479
-0.761104
-0.801923
-0.844876
-0.890191
-0.938251
-0.988696
-1.04216
-1.09867
-1.15824
-1.22114
-1.28789
-1.35814
-1.43267
-1.51126
-1.59456
-0.0266645
-1.67967
-1.77268
-1.87099
-1.97503
-2.08505
-2.20147
-2.3247
-2.45476
-2.59254
-2.73809
-2.89206
-3.05472
-3.22685
-3.40849
0.0774627
-3.59673
-3.79964
-4.01397
-4.24047
-4.47941
-4.73179
-4.99816
-5.27954
-5.57646
0.180609
-5.88399
-6.21441
-6.56305
-6.93088
-7.31797
-7.72772
-5.63728
-6.20331
-6.82633
-7.51408
0.421182
-8.23064
-9.05895
-9.96843
-10.9684
-12.065
-13.2716
-14.5898
-16.0773
-17.703
)
;
    }
    procBoundary2to3
    {
        type            processor;
        value           nonuniform List<scalar> 
88
(
17.0082
18.6918
14.0189
-0.583177
15.4051
11.5947
-0.606369
12.7472
8.71156
9.58474
-0.631543
10.5434
7.76395
5.94697
6.54374
7.19825
-0.654077
7.9209
5.9332
6.26189
6.60871
6.97445
-0.670617
7.36008
4.07389
4.29881
4.53654
4.78725
5.05197
5.33155
-0.681085
5.62646
2.14387
2.26173
2.38602
2.51709
2.6555
2.80167
2.95585
3.11872
3.2904
3.47183
3.66317
-0.680923
3.86531
0.228324
0.240829
0.254048
0.267975
0.282666
0.298165
0.314508
0.331762
0.349938
0.369111
0.389346
0.410705
0.433204
0.456929
0.48197
0.508403
0.536241
0.565612
0.596616
0.629294
0.663771
0.700138
0.738494
0.778944
0.821625
0.866631
0.914072
0.96418
1.01707
1.07282
1.13143
1.19354
1.25903
1.3279
1.40081
1.47749
1.55859
1.64399
1.73418
1.82935
1.92973
-0.666873
2.03558
)
;
    }
    procBoundary2to6
    {
        type            processor;
        value           nonuniform List<scalar> 
13
(
0.160627
0.175747
0.208781
0.243159
0.281994
0.321588
0.360874
0.400021
0.439493
0.47984
0.521433
0.564322
0.608606
)
;
    }
}


// ************************************************************************* //
