/*--------------------------------*- C++ -*----------------------------------*\
| =========                 |                                                 |
| \\      /  F ield         | OpenFOAM: The Open Source CFD Toolbox           |
|  \\    /   O peration     | Version:  2306                                  |
|   \\  /    A nd           | Website:  www.openfoam.com                      |
|    \\/     M anipulation  |                                                 |
\*---------------------------------------------------------------------------*/
FoamFile
{
    version     2.0;
    format      ascii;
    arch        "LSB;label=32;scalar=64";
    class       volScalarField;
    location    "175";
    object      turbulenceProperties:nut;
}
// * * * * * * * * * * * * * * * * * * * * * * * * * * * * * * * * * * * * * //

dimensions      [0 2 -1 0 0 0 0];

internalField   nonuniform List<scalar> 
1340
(
0.107039
0.104882
0.102435
0.0930432
0.0703885
0.0721014
0.0756676
0.0789963
0.0400343
0.0474283
0.0540633
0.0636386
0.00708269
0.0133533
0.0221539
0.0396165
0.00168778
0.000769494
0.00172999
0.0139013
2.72388e-09
0.000172408
0.000452164
0.00246285
1.05204e-06
1.03197e-08
0
0.00058859
5.54259e-06
2.83765e-06
1.79657e-08
0
6.23057e-06
6.66984e-06
4.5684e-06
3.1327e-09
6.2095e-06
5.86069e-06
8.92629e-06
6.9498e-07
6.17945e-06
5.87027e-06
7.23059e-06
4.40444e-06
6.13082e-06
6.07274e-06
6.23958e-06
6.22673e-06
6.11205e-06
6.12961e-06
6.07055e-06
6.29361e-06
6.10959e-06
6.12362e-06
6.0955e-06
6.17117e-06
6.1089e-06
6.11445e-06
6.11436e-06
6.12578e-06
6.10701e-06
6.11002e-06
6.1158e-06
6.11776e-06
6.10483e-06
6.10749e-06
6.11254e-06
6.11579e-06
6.10293e-06
6.10546e-06
6.10952e-06
6.11339e-06
6.10134e-06
6.10368e-06
6.10721e-06
6.11085e-06
6.09994e-06
6.10207e-06
6.1053e-06
6.1086e-06
6.09857e-06
6.10052e-06
6.10347e-06
6.10658e-06
6.09722e-06
6.09898e-06
6.10163e-06
6.10459e-06
6.09603e-06
6.09759e-06
6.09993e-06
6.10264e-06
6.09502e-06
6.0964e-06
6.09847e-06
6.1009e-06
6.09407e-06
6.0953e-06
6.09714e-06
6.09936e-06
6.09311e-06
6.09419e-06
6.09581e-06
6.09785e-06
6.09223e-06
6.09314e-06
6.09453e-06
6.09635e-06
6.0915e-06
6.09226e-06
6.09344e-06
6.09497e-06
6.09089e-06
6.09153e-06
6.09253e-06
6.0938e-06
6.09037e-06
6.09088e-06
6.09173e-06
6.09278e-06
6.0899e-06
6.09029e-06
6.09099e-06
6.09186e-06
6.08953e-06
6.08978e-06
6.09033e-06
6.09099e-06
6.08931e-06
6.08943e-06
6.08981e-06
6.09025e-06
6.08923e-06
6.08923e-06
6.08947e-06
6.08968e-06
6.08926e-06
6.08915e-06
6.08926e-06
6.08931e-06
6.08935e-06
6.08916e-06
6.08914e-06
6.08914e-06
6.0894e-06
6.08918e-06
6.08908e-06
6.08907e-06
6.08942e-06
6.08923e-06
6.08904e-06
6.08904e-06
6.08939e-06
6.08931e-06
6.0892e-06
6.089e-06
6.08904e-06
6.08913e-06
6.08906e-06
6.08901e-06
6.08882e-06
6.08893e-06
6.08878e-06
6.08874e-06
6.08873e-06
6.08856e-06
6.08872e-06
6.08836e-06
6.08834e-06
6.08836e-06
6.08824e-06
6.08845e-06
6.08784e-06
6.08784e-06
6.08789e-06
6.0878e-06
6.08806e-06
6.08725e-06
6.08727e-06
6.08733e-06
6.08727e-06
6.08757e-06
6.08664e-06
6.08667e-06
6.08675e-06
6.08671e-06
6.08703e-06
6.08599e-06
6.08602e-06
6.08612e-06
6.0861e-06
6.08644e-06
6.0853e-06
6.08535e-06
6.08546e-06
6.08545e-06
6.0858e-06
6.08463e-06
6.08469e-06
6.08481e-06
6.08482e-06
6.08516e-06
6.08398e-06
6.08404e-06
6.08417e-06
6.0842e-06
6.08454e-06
6.08329e-06
6.08336e-06
6.0835e-06
6.08355e-06
6.0839e-06
6.08251e-06
6.0826e-06
6.08274e-06
6.08281e-06
6.08317e-06
6.08161e-06
6.0817e-06
6.08185e-06
6.08193e-06
6.08231e-06
6.08044e-06
6.08051e-06
6.0806e-06
6.08075e-06
6.08084e-06
6.08124e-06
6.07909e-06
6.07914e-06
6.07922e-06
6.07937e-06
6.07946e-06
6.07986e-06
6.07746e-06
6.0775e-06
6.07756e-06
6.07768e-06
6.07776e-06
6.07816e-06
6.07565e-06
6.07566e-06
6.07569e-06
6.07579e-06
6.07584e-06
6.07619e-06
6.07386e-06
6.07384e-06
6.07385e-06
6.07391e-06
6.07393e-06
6.0742e-06
6.07242e-06
6.0724e-06
6.07239e-06
6.07241e-06
6.07242e-06
6.07258e-06
6.0718e-06
6.07182e-06
6.07185e-06
6.07187e-06
6.07193e-06
6.07199e-06
6.07208e-06
6.07214e-06
6.07221e-06
6.07225e-06
6.07233e-06
6.07231e-06
6.073e-06
6.07309e-06
6.07318e-06
6.07324e-06
6.07334e-06
6.07327e-06
6.07441e-06
6.07457e-06
6.0747e-06
6.07482e-06
6.07491e-06
6.07503e-06
6.07495e-06
6.07666e-06
6.07687e-06
6.07706e-06
6.07722e-06
6.07735e-06
6.07751e-06
6.07743e-06
6.0796e-06
6.07988e-06
6.08013e-06
6.08036e-06
6.08055e-06
6.08076e-06
6.08072e-06
6.08309e-06
6.08345e-06
6.08377e-06
6.08407e-06
6.08432e-06
6.0846e-06
6.08463e-06
6.08689e-06
6.0873e-06
6.08769e-06
6.08806e-06
6.08838e-06
6.08874e-06
6.08885e-06
6.09074e-06
6.0912e-06
6.09164e-06
6.09206e-06
6.09245e-06
6.09287e-06
6.09305e-06
6.09392e-06
6.09444e-06
6.09494e-06
6.09543e-06
6.0959e-06
6.09641e-06
6.09671e-06
6.09609e-06
6.09664e-06
6.09719e-06
6.09774e-06
6.09828e-06
6.09889e-06
6.09935e-06
6.09774e-06
6.0983e-06
6.09885e-06
6.09942e-06
6.1e-06
6.10065e-06
6.10119e-06
6.09901e-06
6.09957e-06
6.10013e-06
6.10071e-06
6.10131e-06
6.10198e-06
6.10257e-06
6.09962e-06
6.10021e-06
6.1008e-06
6.10139e-06
6.10199e-06
6.10262e-06
6.10331e-06
6.10392e-06
6.10155e-06
6.10226e-06
6.10296e-06
6.10366e-06
6.10438e-06
6.10511e-06
6.10593e-06
6.1066e-06
6.10537e-06
6.10631e-06
6.10725e-06
6.10819e-06
6.10916e-06
6.11014e-06
6.11126e-06
6.11217e-06
6.11119e-06
6.11241e-06
6.11363e-06
6.11485e-06
6.11611e-06
6.11742e-06
6.11887e-06
6.12018e-06
6.11591e-06
6.11713e-06
6.11834e-06
6.11957e-06
6.12083e-06
6.12216e-06
6.12365e-06
6.12508e-06
6.11373e-06
6.11448e-06
6.11522e-06
6.11595e-06
6.1167e-06
6.11749e-06
6.11827e-06
6.11918e-06
6.10643e-06
6.10737e-06
6.10836e-06
6.10938e-06
6.11048e-06
6.11164e-06
6.11307e-06
6.11419e-06
6.11294e-06
6.11587e-06
6.11884e-06
6.1219e-06
6.12509e-06
6.12848e-06
6.13229e-06
6.13585e-06
6.10941e-06
6.11064e-06
6.11177e-06
6.1128e-06
6.11375e-06
6.11463e-06
6.11556e-06
6.11637e-06
0.121248
0.082279
0.0547195
0.0297594
0.00883657
0.000788225
0.000176946
0
4.41954e-09
1.4638e-06
5.35217e-06
6.37688e-06
6.2772e-06
6.16072e-06
6.12813e-06
6.12296e-06
6.12052e-06
6.11735e-06
6.1142e-06
6.11143e-06
6.10892e-06
6.10651e-06
6.10423e-06
6.10219e-06
6.10035e-06
6.0986e-06
6.09691e-06
6.09539e-06
6.0941e-06
6.09298e-06
6.09196e-06
6.09101e-06
6.09021e-06
6.08959e-06
6.08917e-06
6.08896e-06
6.08887e-06
6.08884e-06
6.08882e-06
6.08873e-06
6.08853e-06
6.08827e-06
6.08789e-06
6.08742e-06
6.08689e-06
6.08631e-06
6.08568e-06
6.08505e-06
6.08444e-06
6.08382e-06
6.0831e-06
6.08224e-06
6.08115e-06
6.07976e-06
6.07802e-06
6.07607e-06
6.07412e-06
6.07259e-06
6.07209e-06
6.07246e-06
6.07347e-06
6.0752e-06
6.07775e-06
6.08111e-06
6.08508e-06
6.08935e-06
6.0936e-06
6.09729e-06
6.09992e-06
6.10175e-06
6.1031e-06
6.10449e-06
6.10731e-06
6.11311e-06
6.12136e-06
6.126e-06
6.11972e-06
6.11521e-06
6.1382e-06
6.11713e-06
0.138787
0.0830627
0.0433213
0.0179952
0.00365539
7.68677e-07
2.53068e-09
1.24378e-10
4.89793e-08
3.69623e-06
6.16858e-06
6.38631e-06
6.22308e-06
6.14597e-06
6.12965e-06
6.12627e-06
6.12295e-06
6.11914e-06
6.1156e-06
6.11245e-06
6.10955e-06
6.10683e-06
6.10435e-06
6.10218e-06
6.10026e-06
6.0985e-06
6.09683e-06
6.09534e-06
6.09407e-06
6.09294e-06
6.09189e-06
6.09093e-06
6.09011e-06
6.08947e-06
6.08902e-06
6.08877e-06
6.08866e-06
6.08862e-06
6.0886e-06
6.08851e-06
6.08833e-06
6.08807e-06
6.0877e-06
6.08723e-06
6.08672e-06
6.08615e-06
6.08554e-06
6.08493e-06
6.08434e-06
6.08372e-06
6.083e-06
6.08214e-06
6.08103e-06
6.0796e-06
6.07784e-06
6.07587e-06
6.07394e-06
6.07253e-06
6.07215e-06
6.0726e-06
6.07367e-06
6.07547e-06
6.07809e-06
6.08152e-06
6.08555e-06
6.08986e-06
6.09413e-06
6.09783e-06
6.10043e-06
6.10221e-06
6.10353e-06
6.10495e-06
6.10791e-06
6.11393e-06
6.12232e-06
6.1266e-06
6.12009e-06
6.11616e-06
6.13971e-06
6.1176e-06
0.136021
0.0739682
0.0288707
0.0075393
0.000536384
0.000110623
0
3.33613e-09
1.06067e-06
6.00374e-06
6.43055e-06
6.30723e-06
6.17496e-06
6.13727e-06
6.13088e-06
6.12759e-06
6.12344e-06
6.11922e-06
6.11544e-06
6.1121e-06
6.10908e-06
6.10642e-06
6.10408e-06
6.10204e-06
6.10018e-06
6.09842e-06
6.09677e-06
6.09533e-06
6.09407e-06
6.09293e-06
6.09186e-06
6.09087e-06
6.09004e-06
6.08937e-06
6.08887e-06
6.08858e-06
6.08844e-06
6.0884e-06
6.08837e-06
6.08828e-06
6.08812e-06
6.08786e-06
6.0875e-06
6.08705e-06
6.08655e-06
6.086e-06
6.0854e-06
6.08481e-06
6.08424e-06
6.08363e-06
6.08292e-06
6.08204e-06
6.08091e-06
6.07944e-06
6.07764e-06
6.07565e-06
6.07375e-06
6.07245e-06
6.07221e-06
6.07274e-06
6.07388e-06
6.07576e-06
6.07848e-06
6.08199e-06
6.08608e-06
6.09042e-06
6.09472e-06
6.09842e-06
6.10097e-06
6.1027e-06
6.10399e-06
6.10544e-06
6.10856e-06
6.11483e-06
6.12333e-06
6.12721e-06
6.12047e-06
6.11727e-06
6.14126e-06
6.11805e-06
0.116887
0.0549835
0.0138545
0.00121734
0.000297889
0
2.19604e-10
7.14325e-08
4.1897e-06
6.94065e-06
6.35014e-06
6.22569e-06
6.14685e-06
6.13423e-06
6.13101e-06
6.12693e-06
6.12237e-06
6.11829e-06
6.11478e-06
6.11166e-06
6.10885e-06
6.10637e-06
6.10418e-06
6.10222e-06
6.10034e-06
6.09855e-06
6.0969e-06
6.09547e-06
6.09421e-06
6.09302e-06
6.0919e-06
6.09088e-06
6.09001e-06
6.08929e-06
6.08875e-06
6.0884e-06
6.08821e-06
6.08815e-06
6.08813e-06
6.08805e-06
6.0879e-06
6.08765e-06
6.0873e-06
6.08686e-06
6.08638e-06
6.08584e-06
6.08527e-06
6.0847e-06
6.08415e-06
6.08354e-06
6.08283e-06
6.08194e-06
6.08077e-06
6.07926e-06
6.07742e-06
6.07542e-06
6.07355e-06
6.07239e-06
6.07229e-06
6.07289e-06
6.07411e-06
6.07608e-06
6.07889e-06
6.08249e-06
6.08664e-06
6.09101e-06
6.09534e-06
6.09904e-06
6.10153e-06
6.1032e-06
6.10446e-06
6.10597e-06
6.10927e-06
6.11579e-06
6.1244e-06
6.12782e-06
6.12087e-06
6.11852e-06
6.14288e-06
6.11848e-06
0.0847486
0.0297498
0.00268646
0.000667661
0
1.27913e-11
4.70869e-09
2.21609e-06
6.83705e-06
6.78033e-06
6.21436e-06
6.17519e-06
6.13474e-06
6.1334e-06
6.12992e-06
6.12554e-06
6.12135e-06
6.11773e-06
6.11456e-06
6.11167e-06
6.10905e-06
6.10672e-06
6.10461e-06
6.10263e-06
6.10069e-06
6.09885e-06
6.09721e-06
6.09577e-06
6.09446e-06
6.0932e-06
6.09202e-06
6.09095e-06
6.09002e-06
6.08924e-06
6.08864e-06
6.08824e-06
6.08799e-06
6.0879e-06
6.08787e-06
6.0878e-06
6.08766e-06
6.08742e-06
6.08708e-06
6.08667e-06
6.0862e-06
6.08568e-06
6.08513e-06
6.08459e-06
6.08405e-06
6.08346e-06
6.08274e-06
6.08183e-06
6.08063e-06
6.07907e-06
6.07719e-06
6.07517e-06
6.07336e-06
6.07235e-06
6.07238e-06
6.07307e-06
6.07437e-06
6.07643e-06
6.07933e-06
6.08302e-06
6.08724e-06
6.09165e-06
6.096e-06
6.09969e-06
6.10212e-06
6.10373e-06
6.10496e-06
6.10653e-06
6.11003e-06
6.11684e-06
6.12551e-06
6.12846e-06
6.12129e-06
6.1199e-06
6.14459e-06
6.11886e-06
0.0460995
0.00842513
0.00208766
0
0
3.98893e-09
1.13477e-06
6.10023e-06
7.25857e-06
6.37234e-06
6.14462e-06
6.15141e-06
6.1313e-06
6.13302e-06
6.12881e-06
6.12472e-06
6.12102e-06
6.11779e-06
6.11485e-06
6.11213e-06
6.10963e-06
6.10737e-06
6.10525e-06
6.10319e-06
6.10117e-06
6.0993e-06
6.09764e-06
6.09616e-06
6.09477e-06
6.09343e-06
6.09217e-06
6.09105e-06
6.09006e-06
6.08922e-06
6.08856e-06
6.08809e-06
6.08777e-06
6.08763e-06
6.0876e-06
6.08754e-06
6.08741e-06
6.08718e-06
6.08685e-06
6.08646e-06
6.08601e-06
6.08551e-06
6.08498e-06
6.08447e-06
6.08395e-06
6.08336e-06
6.08264e-06
6.0817e-06
6.08046e-06
6.07885e-06
6.07694e-06
6.07491e-06
6.07318e-06
6.07234e-06
6.07249e-06
6.07326e-06
6.07465e-06
6.0768e-06
6.07981e-06
6.08359e-06
6.08788e-06
6.09232e-06
6.09669e-06
6.10037e-06
6.10274e-06
6.10428e-06
6.10549e-06
6.10713e-06
6.11086e-06
6.11796e-06
6.12667e-06
6.12911e-06
6.12174e-06
6.12142e-06
0.0143211
8.42466e-08
3.01712e-10
0
1.84378e-09
5.29023e-07
5.59913e-06
7.49316e-06
6.66175e-06
6.14114e-06
6.13471e-06
6.14182e-06
6.1323e-06
6.13304e-06
6.1284e-06
6.12478e-06
6.12146e-06
6.11846e-06
6.11564e-06
6.113e-06
6.11055e-06
6.10827e-06
6.10606e-06
6.10388e-06
6.10179e-06
6.09988e-06
6.09819e-06
6.09663e-06
6.09514e-06
6.0937e-06
6.09237e-06
6.09118e-06
6.09012e-06
6.08921e-06
6.08849e-06
6.08795e-06
6.08757e-06
6.08735e-06
6.0873e-06
6.08725e-06
6.08713e-06
6.08692e-06
6.08661e-06
6.08624e-06
6.08581e-06
6.08533e-06
6.08483e-06
6.08435e-06
6.08384e-06
6.08326e-06
6.08252e-06
6.08156e-06
6.08027e-06
6.07861e-06
6.07666e-06
6.07463e-06
6.07302e-06
6.07235e-06
6.07263e-06
6.07348e-06
6.07496e-06
6.07722e-06
6.08033e-06
6.08421e-06
6.08855e-06
6.09303e-06
6.09743e-06
6.10109e-06
6.10338e-06
6.10486e-06
6.10604e-06
6.10778e-06
6.11175e-06
6.11916e-06
6.12787e-06
6.12978e-06
0.000997038
0.00023909
0
9.66565e-10
2.86353e-07
5.31252e-06
7.7573e-06
6.90484e-06
6.20228e-06
6.09961e-06
6.14354e-06
6.13884e-06
6.13487e-06
6.13339e-06
6.12893e-06
6.1257e-06
6.12259e-06
6.11967e-06
6.11688e-06
6.11424e-06
6.11176e-06
6.10937e-06
6.10701e-06
6.10471e-06
6.10254e-06
6.10059e-06
6.09883e-06
6.09716e-06
6.09554e-06
6.09401e-06
6.0926e-06
6.09134e-06
6.09021e-06
6.08923e-06
6.08844e-06
6.08783e-06
6.08737e-06
6.08709e-06
6.08699e-06
6.08694e-06
6.08684e-06
6.08663e-06
6.08635e-06
6.086e-06
6.08559e-06
6.08513e-06
6.08467e-06
6.08422e-06
6.08373e-06
6.08314e-06
6.08239e-06
6.0814e-06
6.08006e-06
6.07835e-06
6.07635e-06
6.07435e-06
6.07286e-06
6.0724e-06
6.07279e-06
6.07372e-06
6.0753e-06
6.07766e-06
6.0809e-06
6.08487e-06
6.08927e-06
6.09378e-06
6.0982e-06
6.10183e-06
6.10405e-06
6.10546e-06
6.10662e-06
6.10847e-06
6.11271e-06
6.12044e-06
1.76959e-05
0
2.48087e-10
8.03695e-08
5.25007e-06
8.01511e-06
7.08551e-06
6.26436e-06
6.08008e-06
6.12911e-06
6.14804e-06
6.13945e-06
6.13752e-06
6.13434e-06
6.13042e-06
6.12736e-06
6.12427e-06
6.12132e-06
6.11848e-06
6.11578e-06
6.11317e-06
6.11061e-06
6.10808e-06
6.10565e-06
6.10342e-06
6.1014e-06
6.09952e-06
6.09772e-06
6.09598e-06
6.09434e-06
6.09286e-06
6.09152e-06
6.09031e-06
6.08927e-06
6.08841e-06
6.08772e-06
6.08719e-06
6.08685e-06
6.08668e-06
6.08661e-06
6.08652e-06
6.08633e-06
6.08607e-06
6.08574e-06
6.08536e-06
6.08493e-06
6.0845e-06
6.08407e-06
6.0836e-06
6.08301e-06
6.08225e-06
6.08121e-06
6.07982e-06
6.07805e-06
6.07603e-06
6.07407e-06
6.07274e-06
6.07247e-06
6.07297e-06
6.074e-06
6.07567e-06
6.07816e-06
6.0815e-06
6.08557e-06
6.09004e-06
6.09458e-06
6.09902e-06
6.10261e-06
6.10474e-06
6.10608e-06
6.10724e-06
0
1.17583e-12
3.64946e-10
5.34245e-06
8.31587e-06
7.16461e-06
6.29524e-06
6.07224e-06
6.11408e-06
6.15216e-06
6.14824e-06
6.14232e-06
6.14007e-06
6.1362e-06
6.13271e-06
6.12957e-06
6.12639e-06
6.12333e-06
6.12038e-06
6.11752e-06
6.11471e-06
6.11193e-06
6.10923e-06
6.1067e-06
6.1044e-06
6.10227e-06
6.10025e-06
6.0983e-06
6.09643e-06
6.09471e-06
6.09314e-06
6.09172e-06
6.09043e-06
6.08932e-06
6.08839e-06
6.08763e-06
6.08703e-06
6.08661e-06
6.08637e-06
6.08626e-06
6.08617e-06
6.08601e-06
6.08577e-06
6.08547e-06
6.08511e-06
6.08471e-06
6.08432e-06
6.08393e-06
6.08346e-06
6.08287e-06
6.08208e-06
6.08101e-06
6.07955e-06
6.07772e-06
6.07568e-06
6.0738e-06
6.07266e-06
6.07259e-06
6.07318e-06
6.0743e-06
6.07608e-06
6.07868e-06
6.08216e-06
6.08632e-06
6.09085e-06
6.09543e-06
9.65373e-14
1.92188e-11
4.31723e-06
8.78608e-06
7.09629e-06
6.27427e-06
6.06741e-06
6.10821e-06
6.15428e-06
6.15774e-06
6.1496e-06
6.14612e-06
6.14284e-06
6.13894e-06
6.13553e-06
6.13217e-06
6.12883e-06
6.1256e-06
6.12245e-06
6.11935e-06
6.11629e-06
6.11329e-06
6.11046e-06
6.10784e-06
6.10543e-06
6.10316e-06
6.10098e-06
6.09887e-06
6.0969e-06
6.09508e-06
6.09343e-06
6.09192e-06
6.09057e-06
6.08938e-06
6.08838e-06
6.08755e-06
6.08688e-06
6.0864e-06
6.08607e-06
6.08589e-06
6.08579e-06
6.08565e-06
6.08544e-06
6.08516e-06
6.08483e-06
6.08447e-06
6.08413e-06
6.08376e-06
6.08331e-06
6.08271e-06
6.08189e-06
6.08076e-06
6.07925e-06
6.07736e-06
6.07532e-06
6.07354e-06
6.07262e-06
6.07273e-06
6.07342e-06
6.07463e-06
6.07653e-06
3.17411e-09
5.0672e-06
8.7436e-06
7.05307e-06
6.16952e-06
6.07141e-06
6.11247e-06
6.16062e-06
6.16695e-06
6.15892e-06
6.15358e-06
6.15027e-06
6.14629e-06
6.14243e-06
6.1388e-06
6.13515e-06
6.13158e-06
6.12809e-06
6.12465e-06
6.12125e-06
6.11793e-06
6.11476e-06
6.11181e-06
6.10908e-06
6.10652e-06
6.10408e-06
6.10172e-06
6.09947e-06
6.09739e-06
6.09549e-06
6.09375e-06
6.09215e-06
6.09071e-06
6.08945e-06
6.08838e-06
6.08748e-06
6.08675e-06
6.08619e-06
6.08579e-06
6.08553e-06
6.0854e-06
6.0853e-06
6.08514e-06
6.08488e-06
6.08458e-06
6.08426e-06
6.08395e-06
6.08361e-06
6.08316e-06
6.08255e-06
6.0817e-06
6.08051e-06
6.07892e-06
6.07695e-06
5.40684e-06
8.5401e-06
6.89398e-06
6.08092e-06
6.06041e-06
6.13375e-06
6.17065e-06
6.17712e-06
6.16849e-06
6.16213e-06
6.15818e-06
6.15413e-06
6.14986e-06
6.14584e-06
6.14187e-06
6.13793e-06
6.13407e-06
6.13027e-06
6.12652e-06
6.12286e-06
6.11935e-06
6.11606e-06
6.11301e-06
6.11015e-06
6.10743e-06
6.10481e-06
6.10231e-06
6.09996e-06
6.09779e-06
6.09581e-06
6.09399e-06
6.09231e-06
6.09081e-06
6.08949e-06
6.08835e-06
6.0874e-06
6.08662e-06
6.086e-06
6.08552e-06
6.0852e-06
6.08504e-06
6.08486e-06
)
;

boundaryField
{
    inlet
    {
        type            freestream;
        freestreamValue uniform 1e-05;
        value           uniform 1e-05;
    }
    outlet
    {
        type            freestream;
        freestreamValue nonuniform List<scalar> 0();
        value           nonuniform List<scalar> 0();
    }
    walls
    {
        type            nutUSpaldingWallFunction;
        value           nonuniform List<scalar> 4(0.00273714 0.00267275 0.00258173 0.00232361);
    }
    frontAndBack
    {
        type            empty;
    }
    procBoundary2to1
    {
        type            processor;
        value           nonuniform List<scalar> 
84
(
0.108445
0.0684175
0.0315733
0.00314704
0.000737035
2.06945e-08
5.22453e-06
6.29903e-06
6.16224e-06
6.10411e-06
6.10305e-06
6.10927e-06
6.11113e-06
6.10906e-06
6.10661e-06
6.10435e-06
6.10242e-06
6.10081e-06
6.09944e-06
6.09822e-06
6.09702e-06
6.09585e-06
6.09482e-06
6.09396e-06
6.09314e-06
6.09231e-06
6.09157e-06
6.09097e-06
6.09047e-06
6.09004e-06
6.08968e-06
6.08942e-06
6.08931e-06
6.08932e-06
6.08943e-06
6.08956e-06
6.0896e-06
6.08955e-06
6.08955e-06
6.08947e-06
6.08918e-06
6.08882e-06
6.08838e-06
6.08784e-06
6.08724e-06
6.08662e-06
6.08596e-06
6.08527e-06
6.08459e-06
6.08392e-06
6.08322e-06
6.08245e-06
6.08154e-06
6.08154e-06
6.0804e-06
6.07907e-06
6.07746e-06
6.07568e-06
6.0739e-06
6.07245e-06
6.07178e-06
6.07201e-06
6.07289e-06
6.07289e-06
6.07424e-06
6.07642e-06
6.07929e-06
6.08271e-06
6.08644e-06
6.09024e-06
6.09337e-06
6.09552e-06
6.09717e-06
6.09845e-06
6.09845e-06
6.09903e-06
6.10084e-06
6.10441e-06
6.10996e-06
6.11468e-06
6.11296e-06
6.10552e-06
6.11007e-06
6.10806e-06
)
;
    }
    procBoundary2to3
    {
        type            processor;
        value           nonuniform List<scalar> 
88
(
6.14637e-06
6.11918e-06
6.12221e-06
6.14637e-06
6.1231e-06
6.12912e-06
6.12221e-06
6.13046e-06
6.10922e-06
6.11376e-06
6.12912e-06
6.12182e-06
6.09989e-06
6.10344e-06
6.10547e-06
6.10673e-06
6.10922e-06
6.10789e-06
6.07929e-06
6.08288e-06
6.08714e-06
6.09173e-06
6.09989e-06
6.09633e-06
6.0749e-06
6.0733e-06
6.07266e-06
6.07292e-06
6.07371e-06
6.07503e-06
6.07929e-06
6.07705e-06
6.08461e-06
6.08441e-06
6.08415e-06
6.0839e-06
6.08364e-06
6.08333e-06
6.08289e-06
6.08226e-06
6.08138e-06
6.08013e-06
6.07846e-06
6.0749e-06
6.07648e-06
8.3613e-06
6.74944e-06
6.0285e-06
6.05888e-06
6.16178e-06
6.19069e-06
6.19084e-06
6.18147e-06
6.17404e-06
6.16945e-06
6.16497e-06
6.16022e-06
6.15559e-06
6.15109e-06
6.14663e-06
6.14223e-06
6.1379e-06
6.13365e-06
6.12951e-06
6.12554e-06
6.1218e-06
6.11832e-06
6.11505e-06
6.11195e-06
6.10897e-06
6.10611e-06
6.10341e-06
6.10091e-06
6.0986e-06
6.09648e-06
6.09453e-06
6.09273e-06
6.09111e-06
6.08967e-06
6.08844e-06
6.08739e-06
6.08651e-06
6.08577e-06
6.08516e-06
6.08471e-06
6.08444e-06
6.08461e-06
6.08431e-06
)
;
    }
    procBoundary2to6
    {
        type            processor;
        value           nonuniform List<scalar> 
13
(
0.159186
0.195158
0.195993
0.178256
0.14641
0.102772
0.0540989
0.0156606
0.000177195
1.57347e-06
0
1.47739e-11
1.17993e-07
)
;
    }
}


// ************************************************************************* //
