/*--------------------------------*- C++ -*----------------------------------*\
| =========                 |                                                 |
| \\      /  F ield         | OpenFOAM: The Open Source CFD Toolbox           |
|  \\    /   O peration     | Version:  2306                                  |
|   \\  /    A nd           | Website:  www.openfoam.com                      |
|    \\/     M anipulation  |                                                 |
\*---------------------------------------------------------------------------*/
FoamFile
{
    version     2.0;
    format      ascii;
    arch        "LSB;label=32;scalar=64";
    class       volScalarField;
    location    "175";
    object      turbulenceProperties:I;
}
// * * * * * * * * * * * * * * * * * * * * * * * * * * * * * * * * * * * * * //

dimensions      [0 0 0 0 0 0 0];

internalField   nonuniform List<scalar> 
1340
(
0.244683
0.24611
0.249523
0.256232
0.0396752
0.0425146
0.0476879
0.0613424
0.018061
0.0215584
0.0240527
0.0339788
0.0034796
0.00635403
0.0102463
0.0208579
0.00163483
0.00101008
0.00182614
0.00908072
2.10855e-05
0.000417938
0.000877806
0.00307178
0.000115959
3.68404e-05
0
0.00142104
0.000141961
0.000119198
4.12437e-05
0
0.000159462
0.000166748
0.000173733
3.6573e-05
0.000146684
0.000146862
0.000192948
0.000134596
0.000147789
0.000148608
0.000179194
0.000205997
0.000142518
0.000144309
0.000165301
0.000214793
0.00014004
0.00014195
0.000158556
0.000205103
0.000136297
0.000137687
0.000152522
0.000193899
0.000132851
0.000133758
0.000146688
0.000183607
0.000128982
0.000129414
0.000140622
0.000173853
0.000124994
0.000124963
0.000134566
0.00016439
0.000120786
0.000120288
0.000128495
0.000155177
0.000116405
0.000115436
0.000122409
0.000146208
0.00011183
0.000110387
0.00011632
0.000137532
0.00010706
0.000105143
0.000110209
0.000129139
0.000102094
9.97098e-05
0.000104085
0.00012105
9.69534e-05
9.40887e-05
9.79454e-05
0.000113283
9.16491e-05
8.82902e-05
9.17766e-05
0.000105817
8.61771e-05
8.23008e-05
8.55934e-05
9.86766e-05
8.05436e-05
7.61102e-05
7.93996e-05
9.18673e-05
7.47765e-05
6.9708e-05
7.32087e-05
8.54133e-05
6.89131e-05
6.30696e-05
6.70321e-05
7.93219e-05
6.29965e-05
5.61465e-05
6.09093e-05
7.36189e-05
5.71004e-05
4.8847e-05
5.49196e-05
6.83546e-05
5.13682e-05
4.09824e-05
4.92278e-05
6.3599e-05
4.61032e-05
3.21815e-05
4.41368e-05
5.94354e-05
4.18605e-05
2.13924e-05
4.01582e-05
5.59343e-05
3.93457e-05
1.02924e-05
3.79108e-05
5.31485e-05
3.89014e-05
2.30798e-05
3.76095e-05
5.10945e-05
4.00528e-05
3.04604e-05
3.87099e-05
4.9714e-05
4.19382e-05
3.55876e-05
4.04198e-05
4.88765e-05
4.39349e-05
3.93881e-05
4.22194e-05
4.84422e-05
5.1768e-05
4.57413e-05
4.22347e-05
4.38265e-05
4.82506e-05
5.20521e-05
4.71952e-05
4.43581e-05
4.51346e-05
4.8162e-05
5.22628e-05
4.82993e-05
4.59109e-05
4.61381e-05
4.8099e-05
5.23404e-05
4.90609e-05
4.69898e-05
4.68421e-05
4.8002e-05
5.22472e-05
4.94973e-05
4.76637e-05
4.72604e-05
4.78251e-05
5.19751e-05
4.96423e-05
4.79959e-05
4.74214e-05
4.75472e-05
5.15311e-05
4.95322e-05
4.80407e-05
4.73558e-05
4.71624e-05
5.09196e-05
4.91935e-05
4.78362e-05
4.7087e-05
4.66674e-05
5.01551e-05
4.86555e-05
4.74172e-05
4.6638e-05
4.60632e-05
4.92625e-05
4.79531e-05
4.68223e-05
4.60376e-05
4.53603e-05
4.82598e-05
4.71122e-05
4.60806e-05
4.53088e-05
4.45713e-05
4.71585e-05
4.61503e-05
4.52109e-05
4.44658e-05
4.36999e-05
4.5972e-05
4.50851e-05
4.42323e-05
4.35237e-05
4.27534e-05
4.47219e-05
4.39365e-05
4.31648e-05
4.24991e-05
4.17422e-05
4.40934e-05
4.34107e-05
4.27137e-05
4.2019e-05
4.14e-05
4.06703e-05
4.26346e-05
4.20373e-05
4.14284e-05
4.08029e-05
4.02328e-05
3.954e-05
4.11394e-05
4.06219e-05
4.00872e-05
3.95263e-05
3.90066e-05
3.83566e-05
3.96197e-05
3.91713e-05
3.87032e-05
3.82028e-05
3.77337e-05
3.71296e-05
3.80928e-05
3.77049e-05
3.72958e-05
3.68512e-05
3.64314e-05
3.58736e-05
3.65785e-05
3.62429e-05
3.5886e-05
3.54922e-05
3.51193e-05
3.46069e-05
3.50929e-05
3.48029e-05
3.44922e-05
3.41443e-05
3.38149e-05
3.33467e-05
3.36397e-05
3.33885e-05
3.31184e-05
3.28123e-05
3.25231e-05
3.20979e-05
3.22123e-05
3.19918e-05
3.17584e-05
3.14905e-05
3.12382e-05
3.08556e-05
3.09602e-05
3.07879e-05
3.0595e-05
3.03943e-05
3.0161e-05
2.99434e-05
2.96031e-05
2.94991e-05
2.93473e-05
2.91833e-05
2.90103e-05
2.88088e-05
2.86249e-05
2.83257e-05
2.80232e-05
2.78915e-05
2.77503e-05
2.76027e-05
2.74308e-05
2.72797e-05
2.70192e-05
2.65472e-05
2.64327e-05
2.63119e-05
2.61874e-05
2.60429e-05
2.59233e-05
2.56981e-05
2.50904e-05
2.49906e-05
2.4887e-05
2.47831e-05
2.46629e-05
2.45718e-05
2.43762e-05
2.36972e-05
2.36091e-05
2.35202e-05
2.3435e-05
2.33383e-05
2.32746e-05
2.3111e-05
2.24718e-05
2.23895e-05
2.23088e-05
2.22351e-05
2.21536e-05
2.21099e-05
2.19757e-05
2.14415e-05
2.13595e-05
2.12816e-05
2.12121e-05
2.11363e-05
2.11019e-05
2.09828e-05
2.04819e-05
2.03979e-05
2.03197e-05
2.02505e-05
2.01768e-05
2.01463e-05
2.00383e-05
1.95121e-05
1.94248e-05
1.93463e-05
1.92779e-05
1.92065e-05
1.91792e-05
1.90816e-05
1.85952e-05
1.84932e-05
1.83962e-05
1.83129e-05
1.82429e-05
1.81764e-05
1.81629e-05
1.81135e-05
1.75186e-05
1.73873e-05
1.72634e-05
1.71504e-05
1.70511e-05
1.69578e-05
1.68996e-05
1.67884e-05
1.60598e-05
1.59091e-05
1.57786e-05
1.56724e-05
1.55973e-05
1.55547e-05
1.56302e-05
1.5784e-05
1.37923e-05
1.34466e-05
1.31245e-05
1.28391e-05
1.25954e-05
1.23949e-05
1.22488e-05
1.19943e-05
1.23187e-05
1.22211e-05
1.22083e-05
1.22878e-05
1.24935e-05
1.28329e-05
1.35708e-05
1.45832e-05
1.29917e-05
1.29593e-05
1.29185e-05
1.28614e-05
1.28223e-05
1.30327e-05
1.41864e-05
1.53191e-05
2.15487e-05
2.19483e-05
2.22898e-05
2.25994e-05
2.29498e-05
2.3455e-05
2.46597e-05
2.56244e-05
2.94221e-05
2.94637e-05
2.94926e-05
2.95111e-05
2.95221e-05
2.95665e-05
2.98503e-05
2.91143e-05
4.07069e-05
4.07034e-05
4.06808e-05
4.06471e-05
4.05909e-05
4.0561e-05
4.04076e-05
3.89434e-05
0.136749
0.0632726
0.0319057
0.0174972
0.0072466
0.00179952
0.000799127
0
4.10911e-05
0.000169045
0.000224696
0.000224281
0.000212683
0.000201248
0.000190831
0.000180946
0.000171354
0.000162047
0.000153049
0.000144356
0.000135995
0.00012798
0.000120314
0.000113003
0.000106051
9.94809e-05
9.33009e-05
8.75117e-05
8.21215e-05
7.71494e-05
7.26207e-05
6.85524e-05
6.49468e-05
6.18063e-05
5.91287e-05
5.68864e-05
5.50353e-05
5.35287e-05
5.22944e-05
5.12594e-05
5.03735e-05
4.95848e-05
4.88442e-05
4.81181e-05
4.7385e-05
4.66249e-05
4.58255e-05
4.49837e-05
4.41e-05
4.31691e-05
4.21915e-05
4.11706e-05
4.01052e-05
3.89943e-05
3.78396e-05
3.66481e-05
3.54316e-05
3.42064e-05
3.29869e-05
3.17773e-05
3.05726e-05
2.93561e-05
2.81146e-05
2.68442e-05
2.55592e-05
2.42703e-05
2.30392e-05
2.19315e-05
2.09607e-05
2.00328e-05
1.90861e-05
1.81484e-05
1.67937e-05
1.59596e-05
1.18937e-05
1.52409e-05
1.46084e-05
2.54039e-05
2.73383e-05
3.6705e-05
0.0923143
0.0486644
0.0211917
0.0085397
0.0027189
0.000110298
2.57439e-05
1.19333e-05
5.19365e-05
0.000151434
0.000168574
0.000165897
0.000160398
0.000155347
0.000150596
0.000145819
0.000140934
0.000135928
0.000130855
0.000125728
0.000120587
0.000115454
0.00011035
0.000105323
0.000100397
9.56034e-05
9.09742e-05
8.65313e-05
8.22934e-05
7.8291e-05
7.45482e-05
7.10802e-05
6.78926e-05
6.49915e-05
6.23828e-05
6.00528e-05
5.79882e-05
5.6172e-05
5.45683e-05
5.31421e-05
5.18691e-05
5.07156e-05
4.96483e-05
4.86401e-05
4.76711e-05
4.67196e-05
4.57702e-05
4.48157e-05
4.38493e-05
4.28617e-05
4.18489e-05
4.08096e-05
3.97391e-05
3.86333e-05
3.74923e-05
3.6321e-05
3.51294e-05
3.39323e-05
3.27416e-05
3.15598e-05
3.03808e-05
2.91884e-05
2.79701e-05
2.67233e-05
2.54627e-05
2.41974e-05
2.29867e-05
2.18914e-05
2.09335e-05
2.00201e-05
1.90816e-05
1.81543e-05
1.6798e-05
1.60089e-05
1.18368e-05
1.56237e-05
1.36362e-05
2.54565e-05
2.7202e-05
3.71091e-05
0.0665753
0.035749
0.0132701
0.00357481
0.000725136
0.000338552
0
2.04382e-05
8.47655e-05
0.000129237
0.000128517
0.000125043
0.000121426
0.000118346
0.000115447
0.000112565
0.000109702
0.000106843
0.000103976
0.000101144
9.83189e-05
9.5509e-05
9.26961e-05
8.9905e-05
8.71313e-05
8.43688e-05
8.16296e-05
7.89229e-05
7.62518e-05
7.36379e-05
7.10967e-05
6.86414e-05
6.62849e-05
6.40418e-05
6.19258e-05
5.99406e-05
5.80922e-05
5.63817e-05
5.47973e-05
5.3328e-05
5.19689e-05
5.07029e-05
4.95125e-05
4.83829e-05
4.73009e-05
4.62509e-05
4.52199e-05
4.42022e-05
4.31894e-05
4.21718e-05
4.11439e-05
4.01021e-05
3.90398e-05
3.79513e-05
3.68356e-05
3.5696e-05
3.45411e-05
3.3384e-05
3.22342e-05
3.10927e-05
2.99522e-05
2.87964e-05
2.76138e-05
2.64027e-05
2.51784e-05
2.39486e-05
2.27692e-05
2.16988e-05
2.07671e-05
1.98836e-05
1.8968e-05
1.80637e-05
1.67304e-05
1.59681e-05
1.19227e-05
1.57858e-05
1.31622e-05
2.53482e-05
2.69284e-05
3.71271e-05
0.0480576
0.0234735
0.00638096
0.000848715
0.000411512
0
8.16766e-06
3.42021e-05
9.47452e-05
0.000106513
0.00010261
0.000100575
9.85606e-05
9.68254e-05
9.50583e-05
9.32359e-05
9.14067e-05
8.95592e-05
8.77009e-05
8.58665e-05
8.40306e-05
8.22181e-05
8.04171e-05
7.86284e-05
7.68598e-05
7.51039e-05
7.33547e-05
7.16145e-05
6.98809e-05
6.81583e-05
6.64488e-05
6.47539e-05
6.30809e-05
6.14352e-05
5.9825e-05
5.82579e-05
5.67402e-05
5.52784e-05
5.38715e-05
5.25201e-05
5.12288e-05
4.99928e-05
4.88041e-05
4.76599e-05
4.65538e-05
4.54764e-05
4.44204e-05
4.3383e-05
4.23572e-05
4.13349e-05
4.03113e-05
3.92813e-05
3.82383e-05
3.71764e-05
3.60931e-05
3.49913e-05
3.38784e-05
3.27658e-05
3.16614e-05
3.05645e-05
2.94667e-05
2.83522e-05
2.72102e-05
2.60395e-05
2.4856e-05
2.36667e-05
2.25245e-05
2.14873e-05
2.05884e-05
1.97387e-05
1.8851e-05
1.79759e-05
1.66759e-05
1.5943e-05
1.21124e-05
1.59022e-05
1.29531e-05
2.52142e-05
2.65837e-05
3.69655e-05
0.0310517
0.0118342
0.00145237
0.000555645
0
3.43288e-06
1.48731e-05
6.93017e-05
9.22875e-05
9.1404e-05
8.87224e-05
8.78389e-05
8.68805e-05
8.60195e-05
8.50594e-05
8.40387e-05
8.296e-05
8.18054e-05
8.05958e-05
7.93283e-05
7.79994e-05
7.66247e-05
7.52191e-05
7.37733e-05
7.23056e-05
7.08331e-05
6.93462e-05
6.78607e-05
6.63823e-05
6.49142e-05
6.34606e-05
6.20216e-05
6.06037e-05
5.92054e-05
5.78293e-05
5.64806e-05
5.51579e-05
5.38658e-05
5.26015e-05
5.13669e-05
5.01672e-05
4.89986e-05
4.78582e-05
4.67482e-05
4.56648e-05
4.46028e-05
4.35593e-05
4.25333e-05
4.152e-05
4.0513e-05
3.95086e-05
3.85018e-05
3.74863e-05
3.64565e-05
3.54093e-05
3.43473e-05
3.32774e-05
3.22092e-05
3.11492e-05
3.00955e-05
2.90391e-05
2.79645e-05
2.68623e-05
2.57317e-05
2.45891e-05
2.34403e-05
2.23353e-05
2.13312e-05
2.04642e-05
1.9645e-05
1.87835e-05
1.79362e-05
1.66704e-05
1.59716e-05
1.23605e-05
1.60779e-05
1.28017e-05
2.52132e-05
2.63994e-05
3.69262e-05
0.0156755
0.00332479
0.000892829
0
0
1.28913e-05
5.29769e-05
8.1434e-05
8.49761e-05
8.17573e-05
8.05717e-05
8.00817e-05
7.94406e-05
7.87945e-05
7.80601e-05
7.72909e-05
7.64624e-05
7.55776e-05
7.46529e-05
7.36767e-05
7.26576e-05
7.15976e-05
7.05073e-05
6.93759e-05
6.82145e-05
6.70334e-05
6.58227e-05
6.45973e-05
6.33573e-05
6.21061e-05
6.08507e-05
5.95932e-05
5.8343e-05
5.70999e-05
5.58684e-05
5.46546e-05
5.34569e-05
5.22805e-05
5.11223e-05
4.99848e-05
4.88713e-05
4.77772e-05
4.67024e-05
4.56495e-05
4.46141e-05
4.35946e-05
4.25894e-05
4.15984e-05
4.06182e-05
3.9644e-05
3.86732e-05
3.7701e-05
3.67222e-05
3.57314e-05
3.47257e-05
3.37074e-05
3.26833e-05
3.16616e-05
3.06472e-05
2.96374e-05
2.86229e-05
2.75891e-05
2.65275e-05
2.54382e-05
2.4338e-05
2.32311e-05
2.21639e-05
2.11936e-05
2.0359e-05
1.957e-05
1.87351e-05
1.79156e-05
1.66859e-05
1.60262e-05
1.26336e-05
1.62861e-05
1.2617e-05
2.52624e-05
0.00451848
2.53417e-05
7.53256e-06
0
9.34847e-06
3.86567e-05
7.06786e-05
7.63619e-05
7.39372e-05
7.22114e-05
7.19754e-05
7.17008e-05
7.13164e-05
7.09016e-05
7.04233e-05
6.99184e-05
6.93579e-05
6.87431e-05
6.80868e-05
6.73825e-05
6.66395e-05
6.58569e-05
6.50326e-05
6.41747e-05
6.32908e-05
6.23787e-05
6.14422e-05
6.04902e-05
5.95151e-05
5.85228e-05
5.75178e-05
5.65002e-05
5.54759e-05
5.44454e-05
5.34111e-05
5.2377e-05
5.13441e-05
5.0317e-05
4.92942e-05
4.828e-05
4.72763e-05
4.628e-05
4.52951e-05
4.43216e-05
4.3357e-05
4.24024e-05
4.14565e-05
4.05201e-05
3.95907e-05
3.86648e-05
3.77411e-05
3.68154e-05
3.58831e-05
3.49394e-05
3.39822e-05
3.30137e-05
3.20401e-05
3.1069e-05
3.01034e-05
2.91405e-05
2.81709e-05
2.71809e-05
2.6163e-05
2.51183e-05
2.40639e-05
2.30018e-05
2.19751e-05
2.10417e-05
2.02428e-05
1.94861e-05
1.86809e-05
1.78924e-05
1.67037e-05
1.60886e-05
1.29193e-05
1.64931e-05
0.000540695
0.000304345
0
7.0269e-06
2.97707e-05
6.28429e-05
6.96196e-05
6.75419e-05
6.56056e-05
6.51992e-05
6.51462e-05
6.48977e-05
6.46038e-05
6.42799e-05
6.39174e-05
6.35281e-05
6.30957e-05
6.26221e-05
6.21148e-05
6.15729e-05
6.10016e-05
6.03997e-05
5.97625e-05
5.90996e-05
5.84184e-05
5.77141e-05
5.69915e-05
5.62518e-05
5.54892e-05
5.47102e-05
5.39172e-05
5.31093e-05
5.22904e-05
5.146e-05
5.06182e-05
4.97681e-05
4.89096e-05
4.80457e-05
4.71763e-05
4.63037e-05
4.5429e-05
4.45516e-05
4.36751e-05
4.27994e-05
4.19242e-05
4.10516e-05
4.01809e-05
3.93138e-05
3.84487e-05
3.75838e-05
3.67182e-05
3.58488e-05
3.49716e-05
3.40827e-05
3.31805e-05
3.22675e-05
3.13491e-05
3.04324e-05
2.95192e-05
2.86063e-05
2.76844e-05
2.67412e-05
2.57704e-05
2.47734e-05
2.3768e-05
2.27538e-05
2.17713e-05
2.08787e-05
2.01183e-05
1.93962e-05
1.86237e-05
1.78675e-05
1.67246e-05
1.61598e-05
0.000122004
0
4.64359e-06
1.97051e-05
5.80713e-05
6.49537e-05
6.29901e-05
6.09386e-05
6.03884e-05
6.03868e-05
6.02501e-05
6.00074e-05
5.97502e-05
5.94641e-05
5.91498e-05
5.88032e-05
5.84186e-05
5.80025e-05
5.75578e-05
5.70857e-05
5.65873e-05
5.60635e-05
5.5517e-05
5.49488e-05
5.43705e-05
5.37813e-05
5.31765e-05
5.25559e-05
5.19197e-05
5.12722e-05
5.0613e-05
4.99425e-05
4.9264e-05
4.85726e-05
4.78707e-05
4.71601e-05
4.64384e-05
4.57085e-05
4.49703e-05
4.42235e-05
4.34684e-05
4.27061e-05
4.1937e-05
4.11622e-05
4.03819e-05
3.95979e-05
3.88098e-05
3.80199e-05
3.72273e-05
3.64312e-05
3.56315e-05
3.48252e-05
3.40097e-05
3.31815e-05
3.23393e-05
3.14861e-05
3.0627e-05
2.97677e-05
2.89093e-05
2.80488e-05
2.71773e-05
2.6284e-05
2.53629e-05
2.44165e-05
2.3463e-05
2.24992e-05
2.15623e-05
2.07133e-05
1.99931e-05
1.93065e-05
1.85696e-05
0
1.09345e-06
4.81576e-06
5.4607e-05
6.17693e-05
5.92579e-05
5.72432e-05
5.65784e-05
5.65374e-05
5.6445e-05
5.62226e-05
5.59796e-05
5.57276e-05
5.54515e-05
5.51513e-05
5.48254e-05
5.44688e-05
5.40869e-05
5.36842e-05
5.32595e-05
5.28118e-05
5.23423e-05
5.1857e-05
5.13595e-05
5.08562e-05
5.03451e-05
4.9819e-05
4.92805e-05
4.8731e-05
4.81745e-05
4.76086e-05
4.70352e-05
4.64561e-05
4.5865e-05
4.52664e-05
4.46592e-05
4.40419e-05
4.34172e-05
4.27834e-05
4.21401e-05
4.14871e-05
4.08241e-05
4.0152e-05
3.9471e-05
3.87808e-05
3.80834e-05
3.73781e-05
3.6667e-05
3.59497e-05
3.5226e-05
3.44958e-05
3.37569e-05
3.30071e-05
3.22438e-05
3.14666e-05
3.06766e-05
2.98795e-05
2.908e-05
2.82788e-05
2.7473e-05
2.66541e-05
2.58113e-05
2.49421e-05
2.40489e-05
2.31492e-05
2.22389e-05
5.72926e-07
2.14254e-06
4.97062e-05
5.96809e-05
5.62893e-05
5.42628e-05
5.36045e-05
5.34691e-05
5.33376e-05
5.30901e-05
5.28122e-05
5.25388e-05
5.22543e-05
5.19537e-05
5.16323e-05
5.12924e-05
5.09343e-05
5.0558e-05
5.01687e-05
4.97628e-05
4.93408e-05
4.89058e-05
4.84649e-05
4.80217e-05
4.7577e-05
4.71256e-05
4.66626e-05
4.6192e-05
4.5715e-05
4.52343e-05
4.47482e-05
4.42567e-05
4.37602e-05
4.32553e-05
4.2744e-05
4.2225e-05
4.16979e-05
4.11643e-05
4.06209e-05
4.00675e-05
3.95043e-05
3.89313e-05
3.83483e-05
3.77534e-05
3.71478e-05
3.65326e-05
3.59071e-05
3.52732e-05
3.46308e-05
3.398e-05
3.33208e-05
3.26512e-05
3.19703e-05
3.12744e-05
3.05617e-05
2.98372e-05
2.91042e-05
2.83664e-05
2.76237e-05
2.68737e-05
2.61111e-05
7.7022e-06
4.96286e-05
5.80482e-05
5.41628e-05
5.20056e-05
5.14331e-05
5.12022e-05
5.09734e-05
5.06597e-05
5.03185e-05
4.99878e-05
4.96603e-05
4.93234e-05
4.89764e-05
4.86147e-05
4.82438e-05
4.7864e-05
4.74722e-05
4.70721e-05
4.66606e-05
4.62421e-05
4.58209e-05
4.5404e-05
4.49903e-05
4.45772e-05
4.41605e-05
4.37375e-05
4.33128e-05
4.28879e-05
4.24637e-05
4.2038e-05
4.16106e-05
4.11804e-05
4.07452e-05
4.03062e-05
3.98619e-05
3.94119e-05
3.89565e-05
3.8492e-05
3.80192e-05
3.75392e-05
3.70468e-05
3.65405e-05
3.60262e-05
3.54995e-05
3.49612e-05
3.44114e-05
3.38517e-05
3.32823e-05
3.27032e-05
3.21144e-05
3.15134e-05
3.09001e-05
3.02768e-05
5.07369e-05
5.60315e-05
5.2809e-05
5.03939e-05
4.99281e-05
4.96058e-05
4.9245e-05
4.88288e-05
4.84018e-05
4.79906e-05
4.75949e-05
4.71997e-05
4.67998e-05
4.63987e-05
4.59926e-05
4.55851e-05
4.51735e-05
4.47563e-05
4.4335e-05
4.3911e-05
4.34898e-05
4.30763e-05
4.26708e-05
4.22714e-05
4.18743e-05
4.14749e-05
4.10764e-05
4.06816e-05
4.02917e-05
3.99059e-05
3.95222e-05
3.91405e-05
3.87584e-05
3.83755e-05
3.79926e-05
3.76068e-05
3.72192e-05
3.68272e-05
3.64272e-05
3.60165e-05
3.56013e-05
3.5195e-05
)
;

boundaryField
{
    inlet
    {
        type            calculated;
        value           nonuniform List<scalar> 
13
(
7.42412e-05
7.47237e-05
7.51426e-05
7.5516e-05
7.58768e-05
7.62515e-05
7.67516e-05
7.69101e-05
7.65422e-05
7.63035e-05
7.59926e-05
7.57226e-05
7.5499e-05
)
;
    }
    outlet
    {
        type            calculated;
        value           nonuniform List<scalar> 0();
    }
    walls
    {
        type            calculated;
        value           uniform 0;
    }
    frontAndBack
    {
        type            empty;
    }
    procBoundary2to1
    {
        type            processor;
        value           nonuniform List<scalar> 
84
(
0.243583
0.0372071
0.014463
0.00151564
0.00115885
3.75519e-05
0.000174227
0.000151153
0.00015786
0.000147674
0.000147934
0.000143973
0.000141744
0.000138543
0.000135463
0.000132056
0.000128512
0.000124774
0.000120866
0.000116776
0.000112499
0.000108042
0.000103433
9.86899e-05
9.38221e-05
8.8852e-05
8.38312e-05
7.88233e-05
7.38946e-05
6.91339e-05
6.46595e-05
6.06284e-05
5.72234e-05
5.45916e-05
5.28032e-05
5.18118e-05
5.14526e-05
5.15047e-05
5.15047e-05
5.81681e-05
5.74364e-05
5.67793e-05
5.61296e-05
5.54341e-05
5.46654e-05
5.38117e-05
5.28607e-05
5.18139e-05
5.0685e-05
4.94838e-05
4.82149e-05
4.68855e-05
4.55082e-05
4.55082e-05
4.47659e-05
4.32118e-05
4.16357e-05
4.00465e-05
3.84593e-05
3.68929e-05
3.53629e-05
3.38719e-05
3.24104e-05
3.24104e-05
3.1124e-05
2.96418e-05
2.81487e-05
2.66585e-05
2.519e-05
2.37874e-05
2.25578e-05
2.15283e-05
2.0571e-05
1.96015e-05
1.96015e-05
1.87068e-05
1.76551e-05
1.62295e-05
1.41522e-05
1.24951e-05
1.3037e-05
2.10845e-05
2.93591e-05
4.06822e-05
)
;
    }
    procBoundary2to3
    {
        type            processor;
        value           nonuniform List<scalar> 
88
(
2.63018e-05
3.69393e-05
1.24476e-05
2.63018e-05
2.53083e-05
1.32242e-05
1.24476e-05
1.6692e-05
1.78504e-05
1.67588e-05
1.32242e-05
1.62452e-05
2.13539e-05
2.05521e-05
1.98731e-05
1.92226e-05
1.78504e-05
1.85219e-05
2.5327e-05
2.4512e-05
2.3674e-05
2.28306e-05
2.13539e-05
2.19742e-05
2.96398e-05
2.89805e-05
2.83116e-05
2.76362e-05
2.69533e-05
2.62602e-05
2.5327e-05
2.55527e-05
3.47754e-05
3.43265e-05
3.38688e-05
3.33995e-05
3.29196e-05
3.24293e-05
3.19293e-05
3.14195e-05
3.08997e-05
3.03676e-05
2.98204e-05
2.96398e-05
2.92608e-05
5.62383e-05
5.17037e-05
4.98034e-05
4.91084e-05
4.87419e-05
4.81965e-05
4.76425e-05
4.70914e-05
4.65701e-05
4.60727e-05
4.55875e-05
4.51092e-05
4.46363e-05
4.41721e-05
4.37117e-05
4.32545e-05
4.27998e-05
4.2347e-05
4.18986e-05
4.14582e-05
4.10301e-05
4.06156e-05
4.02124e-05
3.98155e-05
3.94218e-05
3.90321e-05
3.86496e-05
3.8275e-05
3.79098e-05
3.75513e-05
3.71983e-05
3.68497e-05
3.65043e-05
3.61624e-05
3.58228e-05
3.54845e-05
3.51472e-05
3.48065e-05
3.44618e-05
3.41119e-05
3.37407e-05
3.47754e-05
3.33635e-05
)
;
    }
    procBoundary2to6
    {
        type            processor;
        value           nonuniform List<scalar> 
13
(
0.235473
0.139715
0.0977215
0.0727675
0.0524288
0.0336093
0.0165724
0.00435586
0.000255535
6.25493e-05
0
1.95749e-06
1.87915e-05
)
;
    }
}


// ************************************************************************* //
