/*--------------------------------*- C++ -*----------------------------------*\
| =========                 |                                                 |
| \\      /  F ield         | OpenFOAM: The Open Source CFD Toolbox           |
|  \\    /   O peration     | Version:  2306                                  |
|   \\  /    A nd           | Website:  www.openfoam.com                      |
|    \\/     M anipulation  |                                                 |
\*---------------------------------------------------------------------------*/
FoamFile
{
    version     2.0;
    format      ascii;
    arch        "LSB;label=32;scalar=64";
    class       volScalarField;
    location    "875";
    object      div(phi);
}
// * * * * * * * * * * * * * * * * * * * * * * * * * * * * * * * * * * * * * //

dimensions      [0 0 -1 0 0 0 0];

internalField   nonuniform List<scalar> 
1340
(
-2.82974e-05
-7.80099e-05
2.32172e-05
-6.23714e-05
-1.15451e-05
-7.10569e-05
-5.18606e-05
-8.32242e-05
-1.85713e-05
-2.64436e-05
4.15714e-05
-1.26134e-05
-7.74258e-06
-4.73138e-05
-3.33519e-05
-6.21136e-05
-1.91351e-05
-1.8078e-05
4.53296e-05
-3.15837e-06
-8.89662e-06
-3.99018e-05
-2.25928e-05
-4.8966e-05
-2.14219e-05
-1.67148e-05
4.90051e-05
-1.78257e-06
-1.0609e-05
-3.66494e-05
-1.53922e-05
-3.82599e-05
-2.0708e-05
-1.39691e-05
5.16049e-05
-1.03789e-06
-1.06464e-05
-2.93408e-05
-1.04679e-05
-2.97275e-05
-1.74398e-05
-1.19737e-05
5.02099e-05
-2.20122e-06
-9.94637e-06
-2.19435e-05
-6.45937e-06
-2.24369e-05
-1.4057e-05
-9.98035e-06
4.54829e-05
-2.20853e-06
-9.01161e-06
-1.54758e-05
-3.44661e-06
-1.65098e-05
-1.09013e-05
-9.99678e-06
4.08228e-05
-2.93343e-06
-7.66469e-06
-1.08064e-05
-1.34188e-06
-1.25351e-05
-8.22402e-06
-9.38621e-06
3.53346e-05
-3.04008e-06
-6.00447e-06
-6.72533e-06
-4.56231e-08
-9.43934e-06
-6.0476e-06
-9.21231e-06
3.06763e-05
-3.2085e-06
-4.32729e-06
-3.67744e-06
9.49817e-07
-7.27177e-06
-4.46968e-06
-8.88611e-06
2.52143e-05
-3.12025e-06
-3.05727e-06
-1.59309e-06
1.60534e-06
-5.49396e-06
-3.58607e-06
-7.1341e-06
2.09477e-05
-3.21844e-06
-2.10622e-06
-3.91946e-07
1.96761e-06
-4.23424e-06
-2.44878e-06
-4.71953e-06
1.56742e-05
-3.06111e-06
-1.62321e-06
-3.7928e-08
1.67873e-06
-3.26573e-06
-1.70828e-06
-2.52697e-06
1.16555e-05
-2.95218e-06
-1.24031e-06
-1.52833e-07
1.15815e-06
-2.55154e-06
-1.17642e-06
-6.74966e-07
7.89139e-06
-2.66065e-06
-1.57721e-06
-3.0123e-07
4.00948e-07
-1.90813e-06
-2.56619e-08
2.30676e-07
4.80605e-06
-1.94094e-06
-1.4112e-06
-4.57015e-07
-1.29765e-07
-1.3995e-06
1.91405e-07
4.72924e-07
2.70354e-06
-1.21461e-06
2.71825e-06
-9.39556e-07
-4.47365e-07
-4.19062e-07
-9.71611e-07
-1.65892e-06
8.83791e-08
4.08111e-07
1.43783e-06
-6.76232e-07
1.00321e-06
-6.26063e-07
-4.01279e-07
-4.8162e-07
-6.65768e-07
-1.31321e-06
6.24997e-08
3.05902e-07
6.56619e-07
-2.53304e-07
8.97187e-07
-3.89714e-07
-3.2516e-07
-4.15558e-07
-4.5094e-07
-1.11092e-06
6.02028e-08
1.62696e-07
3.23203e-07
-7.4551e-08
8.0204e-07
-2.34714e-07
-2.34026e-07
-3.06036e-07
-3.06323e-07
-9.27483e-07
4.07542e-08
8.2206e-08
1.69595e-07
-7.16367e-09
4.10388e-07
-1.58862e-07
-1.52618e-07
-2.07494e-07
-2.08033e-07
-3.67627e-07
6.57572e-08
3.55596e-08
9.25384e-08
7.30187e-09
3.0048e-07
-8.91218e-08
-8.70864e-08
-1.42459e-07
-1.36227e-07
-2.08434e-07
2.46808e-08
-3.95045e-09
3.85039e-08
5.56147e-09
2.6721e-07
2.25e-07
-7.33929e-08
-6.40052e-08
-9.38086e-08
-1.01e-07
-6.26336e-08
-2.31582e-07
-1.67191e-08
-3.28056e-08
-1.53684e-09
2.7237e-09
2.58048e-08
1.32809e-07
-7.19933e-08
-5.14411e-08
-6.76491e-08
-7.33983e-08
-6.61631e-08
-1.89418e-07
-3.57501e-08
-5.00646e-08
-1.64044e-08
-9.18145e-09
-2.79023e-08
7.54659e-08
-6.48773e-08
-3.66263e-08
-5.10758e-08
-5.3176e-08
3.014e-09
-1.30272e-07
-2.90813e-08
-5.08071e-08
-2.91337e-08
-1.11227e-08
-9.68502e-10
5.07698e-08
-4.88966e-08
-3.12197e-08
-3.80854e-08
-4.54306e-08
7.8083e-09
-7.01186e-08
-2.12883e-08
-4.34946e-08
-3.90047e-08
-1.30698e-08
-2.98806e-08
3.36596e-08
3.68072e-09
-1.59412e-08
-2.22455e-08
-4.32566e-08
2.61725e-08
5.86686e-08
4.4475e-08
-6.8908e-11
-9.91545e-09
-4.75111e-08
-2.41107e-08
2.62037e-08
4.53086e-08
9.98462e-09
3.07907e-08
-1.1861e-08
-1.49548e-08
-5.45053e-08
-4.3046e-08
-3.29826e-09
3.94998e-08
-6.55244e-09
-2.90331e-09
-4.07547e-08
-2.56701e-08
3.8893e-09
1.27379e-08
-1.96366e-08
1.38452e-08
-3.90091e-09
9.25945e-09
-3.97958e-08
-4.03551e-08
-2.1317e-08
1.62651e-08
3.48296e-09
3.04525e-08
-1.63271e-08
5.12294e-09
-4.35711e-09
3.79822e-10
-1.16466e-08
2.69001e-08
-1.07301e-08
2.55849e-08
-2.74722e-08
-2.00456e-08
-2.15028e-08
1.79067e-09
-2.37435e-08
1.4035e-08
-2.50699e-08
-8.89635e-09
-2.45348e-08
-1.71774e-08
-1.50617e-08
-2.79005e-08
1.96519e-09
-2.74331e-08
-7.51751e-09
-1.96713e-08
-2.43328e-08
-1.52566e-08
-1.81458e-08
-7.66915e-09
-2.13408e-08
-1.90651e-09
-1.87502e-08
-2.97967e-09
-1.15726e-08
-1.10481e-08
-1.2021e-08
-1.35986e-08
-9.43683e-09
-1.19456e-08
-1.03559e-08
-1.6784e-08
-2.4431e-08
-5.9218e-09
-8.97953e-09
-1.07048e-08
-9.52279e-09
-1.05108e-08
-1.12641e-08
-1.46066e-08
1.5301e-08
-2.19283e-09
-3.5815e-09
-6.59134e-09
-5.28141e-09
-1.74209e-08
-8.38519e-09
-1.1804e-08
-7.26664e-09
1.35096e-09
-4.65049e-09
-1.85253e-09
-2.56811e-08
-6.6869e-09
-1.64077e-08
-1.29554e-08
1.12726e-08
-4.53178e-09
-7.14042e-10
-2.791e-08
8.91111e-10
-2.94477e-08
-4.40107e-09
-8.7734e-09
5.64022e-09
-3.70655e-09
-1.68429e-09
-1.40821e-08
1.93885e-09
-1.95111e-08
2.46584e-09
-8.33989e-09
1.25278e-09
-2.1416e-09
-2.19921e-09
-6.26325e-09
-1.39699e-09
-8.95963e-09
1.33303e-09
-5.69385e-09
-1.68593e-09
-1.05951e-08
-5.38444e-09
-4.83749e-09
-4.46018e-09
-5.82882e-09
-4.84468e-09
-5.82239e-09
-5.36066e-09
-7.97268e-09
-7.20752e-09
-1.87591e-09
-2.10125e-09
-4.79059e-09
-5.99217e-09
-5.98764e-09
-6.97038e-09
-7.13084e-09
-7.48735e-09
-6.17584e-09
-1.30069e-09
-2.05842e-09
-1.76027e-09
-3.53935e-09
-5.13475e-09
-5.24677e-09
-4.59066e-09
-5.4306e-09
-3.89242e-09
3.48562e-09
1.21568e-09
4.54468e-11
-1.30341e-09
-9.22825e-10
-2.03539e-09
-2.10581e-09
-1.73025e-09
-7.71179e-10
1.47214e-10
4.4331e-09
3.57502e-09
2.48889e-09
1.54776e-09
1.27491e-09
2.17557e-09
4.62535e-10
1.67328e-09
2.25752e-08
7.12888e-09
5.92235e-09
4.84601e-09
5.15531e-09
4.55537e-09
4.03636e-09
3.34859e-09
4.1544e-09
1.27987e-08
6.82673e-09
6.34348e-09
6.12141e-09
6.29382e-09
5.30284e-09
6.31456e-09
3.76917e-09
3.88755e-09
1.17294e-08
6.00524e-09
5.9549e-09
6.12843e-09
6.28504e-09
7.02719e-09
7.39877e-09
6.64436e-09
5.69925e-09
6.28695e-09
9.55542e-09
6.51445e-09
5.77219e-09
6.72018e-09
6.98257e-09
7.09249e-09
6.88622e-09
5.83676e-09
4.65555e-09
4.87741e-09
1.04675e-08
4.79368e-09
4.956e-09
4.44728e-09
4.50456e-09
4.00078e-09
3.72598e-09
2.76669e-09
2.65742e-09
2.01306e-09
-0.000149541
7.47111e-05
-3.49032e-05
4.24887e-05
-3.276e-05
1.72003e-05
-2.40625e-05
1.09221e-06
-1.9717e-05
-9.23439e-06
-1.42842e-05
-1.25293e-05
-8.39319e-06
-1.16158e-05
-4.5266e-06
-9.61261e-06
-2.042e-06
-7.51383e-06
-1.43374e-06
-5.27003e-06
-8.09237e-07
-3.25504e-06
-8.19001e-07
-1.7528e-06
-1.12529e-06
-8.54563e-07
-1.33583e-06
-5.3123e-07
-1.41753e-06
-5.75098e-07
-1.40237e-06
-5.92317e-07
-1.11376e-06
-5.94244e-07
-7.02108e-07
-5.14001e-07
-4.35334e-07
-4.0275e-07
-2.36147e-07
-2.95089e-07
-1.33155e-07
-2.00443e-07
-8.28672e-08
-1.35941e-07
-5.91101e-08
-7.91192e-08
-5.30709e-08
-5.08933e-08
-3.40785e-08
-3.85784e-08
-2.18138e-08
-3.1058e-08
1.29604e-08
-2.93634e-08
-1.3889e-09
-4.39717e-08
-3.79092e-08
-3.98577e-08
-4.30404e-08
9.43546e-09
-2.89022e-08
-1.7207e-08
-3.66608e-08
-1.63539e-08
-1.63937e-08
-1.03647e-08
4.11791e-11
-6.92469e-09
-1.55253e-08
-2.92332e-09
-1.47624e-08
-1.25492e-08
-1.08359e-08
-2.14916e-09
-2.48233e-09
3.40263e-09
7.36615e-09
1.01794e-08
9.74418e-09
6.45058e-09
-6.49872e-05
4.72456e-05
-1.79081e-05
3.59251e-05
-2.02068e-05
2.44048e-05
-1.6736e-05
1.43808e-05
-1.54119e-05
6.95368e-06
-1.22335e-05
2.3544e-06
-8.89204e-06
-8.75382e-08
-4.94781e-06
-9.7759e-07
-2.5379e-06
-1.1287e-06
-8.44702e-07
-1.02026e-06
-1.16195e-07
-8.17331e-07
-5.72437e-09
-5.76251e-07
4.2759e-08
-3.65022e-07
-1.76514e-07
-2.01005e-07
-3.5318e-07
-6.21097e-08
-3.21347e-07
-9.70934e-08
-2.8273e-07
-1.60073e-07
-2.67379e-07
-2.3178e-07
-1.94772e-07
-2.58421e-07
-1.59745e-07
-2.30383e-07
-1.20807e-07
-1.76187e-07
-9.11629e-08
-1.12594e-07
-7.10916e-08
-7.76202e-08
-4.91959e-08
-4.67406e-08
-4.246e-08
-2.52237e-08
-2.85106e-08
-3.16803e-09
-1.62356e-08
2.02353e-08
-1.87967e-08
6.46025e-09
-2.80937e-08
-1.74431e-08
-4.13389e-09
-4.69818e-08
-1.25527e-08
-2.53508e-08
-2.24897e-09
-2.60677e-08
-1.97307e-08
-1.39741e-08
-1.64508e-08
-6.19964e-09
2.77726e-09
-1.95461e-08
-8.47685e-09
-7.30178e-09
-5.13671e-10
-1.40475e-09
1.39087e-09
8.25906e-09
2.76178e-09
1.26834e-08
6.17376e-09
-1.45279e-05
3.09777e-05
-1.73146e-06
2.96074e-05
-3.85165e-06
2.60932e-05
-4.24403e-06
2.11921e-05
-5.20084e-06
1.72549e-05
-5.10382e-06
1.38299e-05
-5.86463e-06
9.20722e-06
-5.07879e-06
5.2493e-06
-4.23806e-06
2.50336e-06
-3.10049e-06
1.12089e-06
-2.18992e-06
6.71299e-07
-1.17791e-06
6.66473e-07
-7.28229e-07
7.22133e-07
-3.89088e-07
6.4099e-07
-2.12688e-07
3.52463e-07
-2.60445e-07
1.1062e-07
-2.54257e-07
-7.54746e-08
-1.82755e-07
-1.64313e-07
-1.63975e-07
-1.86063e-07
-1.18925e-07
-1.73219e-07
-9.17243e-08
-1.40665e-07
-7.05518e-08
-1.11683e-07
-5.6861e-08
-6.93086e-08
-5.2161e-08
-4.33572e-08
-3.65502e-08
-2.74306e-08
-2.99829e-08
-1.8237e-08
1.05591e-09
-1.21786e-08
2.39511e-08
-8.73991e-09
1.74527e-08
-1.30981e-08
-2.82963e-08
6.40562e-09
-2.73343e-08
-1.35208e-08
-3.5912e-08
-1.34774e-08
-1.35231e-08
-7.5546e-09
5.66013e-09
-3.99999e-09
-1.66824e-08
-6.31546e-09
-1.33644e-08
-7.76968e-09
-1.52724e-08
1.2604e-08
-2.36956e-09
1.67511e-09
9.42333e-09
3.00105e-09
1.56179e-05
3.90959e-05
5.84931e-06
2.76673e-05
-1.38572e-06
2.09286e-05
-4.73472e-06
1.56057e-05
-5.48164e-06
1.19784e-05
-6.27045e-06
9.67671e-06
-6.14028e-06
7.53399e-06
-5.97615e-06
5.2229e-06
-4.72818e-06
3.4474e-06
-3.93027e-06
2.09895e-06
-2.73205e-06
1.13065e-06
-2.11848e-06
4.38598e-07
-1.57524e-06
3.95825e-08
-1.14612e-06
-1.62281e-07
-9.42429e-07
-1.48604e-07
-5.89785e-07
-1.2166e-07
-3.33042e-07
-1.07171e-07
-2.12736e-07
-1.29804e-07
-1.13286e-07
-1.5366e-07
-8.8907e-08
-1.52723e-07
-7.13712e-08
-1.31563e-07
-6.14928e-08
-9.06686e-08
-5.07908e-08
-6.84047e-08
-3.67312e-08
-4.37246e-08
-3.56913e-08
-2.78122e-08
-2.80571e-08
-1.8937e-08
-2.24391e-08
8.45942e-10
-6.09035e-09
2.11298e-08
-5.45201e-09
1.43512e-08
1.21302e-08
-3.69523e-08
-1.33191e-08
-2.46096e-08
1.40843e-09
-2.1375e-08
-1.13066e-08
-1.06623e-08
-1.71428e-08
-4.36428e-09
-2.00926e-09
-1.1633e-08
-6.49655e-09
-7.66166e-09
-2.37768e-09
-3.71537e-10
6.24161e-09
1.0303e-08
-4.12434e-09
-2.28451e-05
1.29957e-05
-4.43618e-06
1.20401e-05
-4.40123e-06
1.14891e-05
-4.32252e-06
1.03046e-05
-3.90936e-06
8.79715e-06
-3.88014e-06
7.75137e-06
-3.8009e-06
6.76848e-06
-4.00321e-06
5.21443e-06
-3.57263e-06
3.69431e-06
-3.20377e-06
2.4084e-06
-2.57241e-06
1.52594e-06
-2.16411e-06
9.99354e-07
-1.47341e-06
7.38608e-07
-1.1051e-06
5.50799e-07
-6.34694e-07
3.20118e-07
-4.4709e-07
1.03588e-07
-3.5245e-07
-6.68835e-08
-2.43652e-07
-1.42497e-07
-1.95e-07
-1.51029e-07
-1.22013e-07
-1.31289e-07
-7.65755e-08
-1.04133e-07
-4.75908e-08
-8.96962e-08
-3.67997e-08
-6.03934e-08
-3.62489e-08
-4.15675e-08
-2.72296e-08
-2.70891e-08
-2.79546e-08
-2.18315e-08
-2.11625e-08
-1.61542e-08
-2.26868e-09
-7.63175e-09
2.54667e-08
1.57999e-09
-1.97383e-08
7.20299e-09
-1.78626e-08
-1.35407e-09
-3.22708e-08
-5.25825e-09
-1.32643e-08
-1.95706e-08
3.80663e-09
-9.59236e-09
1.73187e-09
-6.90399e-09
-8.42331e-09
-1.11662e-08
-1.01306e-08
1.85563e-08
-7.07646e-09
-5.02499e-09
-1.98596e-05
9.20113e-06
-5.05226e-06
6.94459e-06
-4.90613e-06
6.04043e-06
-4.58721e-06
5.34848e-06
-4.17863e-06
4.58247e-06
-3.64047e-06
4.02363e-06
-3.48878e-06
3.67129e-06
-3.20437e-06
3.27143e-06
-2.99897e-06
2.64123e-06
-2.48015e-06
2.02917e-06
-2.24593e-06
1.40301e-06
-1.77415e-06
8.1259e-07
-1.6244e-06
2.66125e-07
-1.39316e-06
-8.35947e-08
-1.21863e-06
-2.04908e-07
-9.1921e-07
-2.01062e-07
-5.91151e-07
-1.3444e-07
-3.64403e-07
-9.94008e-08
-1.80922e-07
-9.60651e-08
-1.05833e-07
-9.94328e-08
-6.54641e-08
-9.56157e-08
-4.92862e-08
-7.01813e-08
-3.60533e-08
-5.75898e-08
-2.39128e-08
-3.98164e-08
-2.50528e-08
-2.82365e-08
-2.15836e-08
-1.96152e-08
-2.58625e-08
-1.80988e-08
-1.90361e-08
1.07567e-09
-1.15431e-08
1.03762e-08
2.05422e-08
-1.19323e-08
3.66491e-09
-2.09925e-08
9.68672e-09
-1.6815e-08
-7.5017e-09
4.83962e-09
-2.47563e-08
3.03538e-09
-9.83454e-09
2.41708e-09
-2.81433e-09
6.70902e-11
-3.47926e-09
-1.07576e-08
-1.46306e-05
6.25452e-06
-3.57991e-06
5.02137e-06
-3.20315e-06
4.60701e-06
-2.94592e-06
4.3272e-06
-2.70673e-06
3.95398e-06
-2.41188e-06
3.49746e-06
-2.27814e-06
3.19818e-06
-2.20205e-06
2.91423e-06
-2.20898e-06
2.40681e-06
-2.00349e-06
1.83612e-06
-1.8369e-06
1.28428e-06
-1.56631e-06
8.4888e-07
-1.43179e-06
5.71922e-07
-1.09439e-06
4.07855e-07
-8.21476e-07
2.40026e-07
-6.06598e-07
1.20862e-07
-4.45806e-07
9.07639e-09
-3.00742e-07
-5.24714e-08
-2.27279e-07
-7.02076e-08
-1.39325e-07
-6.63001e-08
-8.12961e-08
-5.65143e-08
-4.11927e-08
-6.00091e-08
-2.65717e-08
-4.72173e-08
-2.52288e-08
-3.74788e-08
-1.85097e-08
-2.55868e-08
-2.132e-08
-2.24529e-08
-2.11739e-08
-2.24442e-08
-1.72733e-08
-1.91488e-08
1.65955e-08
1.36671e-08
7.80669e-09
2.83932e-08
5.89232e-09
2.61545e-08
-1.94166e-08
2.06555e-09
3.31959e-09
-2.28593e-08
7.93233e-09
-1.48954e-08
9.80981e-09
-1.19879e-08
-7.91003e-09
-1.89827e-08
-1.0987e-05
6.78132e-06
-2.15643e-06
4.24657e-06
-2.77911e-06
3.29202e-06
-2.82458e-06
2.83097e-06
-2.7231e-06
2.50285e-06
-2.51396e-06
2.14909e-06
-2.26845e-06
1.87172e-06
-2.18096e-06
1.69909e-06
-2.03632e-06
1.54835e-06
-1.89015e-06
1.30914e-06
-1.57244e-06
1.06357e-06
-1.41035e-06
7.77415e-07
-1.1209e-06
4.54028e-07
-1.04146e-06
1.53889e-07
-9.81742e-07
2.22531e-08
-7.81426e-07
-1.72354e-08
-5.65754e-07
1.79945e-08
-3.66257e-07
4.62224e-08
-1.79163e-07
3.59971e-08
-9.51864e-08
2.26276e-09
-5.3656e-08
-3.04883e-08
-4.16685e-08
-3.53967e-08
-2.97267e-08
-4.01477e-08
-1.80708e-08
-3.35589e-08
-1.83932e-08
-2.89311e-08
-1.70901e-08
-2.1911e-08
-2.40315e-08
-1.54221e-08
-2.26416e-08
-1.58192e-09
1.46094e-09
1.60542e-08
4.20248e-08
1.78073e-08
4.26873e-08
-1.24886e-08
1.50251e-08
-6.71438e-09
-1.03658e-08
2.08091e-08
-3.81613e-08
1.45391e-09
-1.75138e-08
-1.24554e-05
4.54938e-06
-2.79746e-06
3.37194e-06
-2.65383e-06
2.82406e-06
-2.37081e-06
2.53298e-06
-2.12349e-06
2.3318e-06
-1.89719e-06
2.10027e-06
-1.67825e-06
1.83374e-06
-1.53292e-06
1.65605e-06
-1.44945e-06
1.52356e-06
-1.38132e-06
1.32302e-06
-1.22006e-06
1.08779e-06
-1.08283e-06
8.42407e-07
-9.1371e-07
6.53378e-07
-8.61848e-07
5.1613e-07
-5.99514e-07
3.80878e-07
-5.31769e-07
2.66368e-07
-4.0752e-07
1.73245e-07
-2.7581e-07
9.96974e-08
-2.12015e-07
5.14877e-08
-1.37306e-07
2.30121e-08
-8.59691e-08
5.0681e-09
-4.46297e-08
-2.03614e-08
-2.69103e-08
-2.75822e-08
-2.27552e-08
-3.0649e-08
-1.57431e-08
-2.56794e-08
-1.73955e-08
-2.46555e-08
-1.48557e-08
-2.31818e-08
-1.97195e-08
-2.3352e-09
-6.52399e-09
3.24003e-08
2.85167e-09
4.70572e-08
-1.6906e-08
3.00771e-08
-3.77541e-08
2.60855e-09
1.41057e-08
-3.74709e-08
-7.20114e-06
3.08202e-06
-2.18486e-06
2.45757e-06
-2.0017e-06
2.06181e-06
-1.84951e-06
1.76083e-06
-1.72236e-06
1.58307e-06
-1.60658e-06
1.46615e-06
-1.43655e-06
1.34798e-06
-1.25421e-06
1.2613e-06
-1.14438e-06
1.22448e-06
-1.02888e-06
1.17883e-06
-9.49718e-07
1.05837e-06
-7.85943e-07
9.1511e-07
-7.10584e-07
7.08354e-07
-5.66226e-07
4.81084e-07
-6.26567e-07
3.13394e-07
-5.38141e-07
2.30766e-07
-4.16692e-07
2.00305e-07
-3.07335e-07
1.85833e-07
-1.64233e-07
1.52871e-07
-9.08681e-08
9.42702e-08
-5.46245e-08
3.19142e-08
-4.68697e-08
2.99843e-10
-3.53801e-08
-1.99321e-08
-2.08367e-08
-2.29459e-08
-1.87324e-08
-2.53621e-08
-1.75983e-08
-2.05882e-08
-2.41781e-08
-2.56362e-08
-5.72852e-09
-3.08167e-08
2.05504e-08
-3.33805e-08
3.17554e-08
-4.34414e-08
4.46742e-08
-5.00264e-08
-7.49062e-06
1.74795e-06
-2.43056e-06
1.62377e-06
-2.08411e-06
1.52893e-06
-1.79628e-06
1.36286e-06
-1.55802e-06
1.27079e-06
-1.38269e-06
1.22287e-06
-1.20549e-06
1.17682e-06
-1.04046e-06
1.10598e-06
-9.03267e-07
1.06902e-06
-8.08158e-07
1.04084e-06
-7.35926e-07
9.56931e-07
-6.37976e-07
8.31855e-07
-5.63609e-07
6.98671e-07
-4.86481e-07
5.77766e-07
-4.44448e-07
4.47216e-07
-3.69744e-07
3.36719e-07
-3.57674e-07
2.41547e-07
-2.70682e-07
1.71474e-07
-2.13713e-07
1.10771e-07
-1.573e-07
6.24155e-08
-1.16696e-07
3.34817e-08
-7.15757e-08
4.44385e-09
-4.21583e-08
-7.44228e-09
-2.7242e-08
-2.04427e-08
-1.83944e-08
-2.57723e-08
-1.35762e-08
-2.3734e-08
-2.07381e-08
-1.52249e-08
-3.30355e-08
9.91711e-09
-5.17944e-08
-2.63768e-06
3.30331e-06
-8.59194e-08
2.28909e-06
-7.81363e-07
1.76305e-06
-9.63364e-07
1.40161e-06
-9.81325e-07
1.16214e-06
-9.40928e-07
1.01911e-06
-8.89974e-07
9.19739e-07
-8.13362e-07
8.23977e-07
-7.21497e-07
7.43459e-07
-6.57591e-07
6.89643e-07
-5.98518e-07
6.41172e-07
-5.45339e-07
5.65092e-07
-4.71733e-07
4.86167e-07
-4.13204e-07
4.00631e-07
-3.52807e-07
3.36427e-07
-3.40481e-07
2.92483e-07
-2.6054e-07
2.6592e-07
-2.09765e-07
2.2885e-07
-1.48619e-07
1.64797e-07
-1.00478e-07
1.17328e-07
-7.81223e-08
5.2056e-08
-6.40223e-08
1.90212e-08
-4.21256e-08
-7.53058e-10
-2.53085e-08
-1.28112e-08
-2.16322e-08
-4.07618e-09
-5.18935e-06
1.9225e-06
-1.62089e-06
1.40123e-06
-1.85638e-06
1.21149e-06
-1.77099e-06
1.05372e-06
-1.57587e-06
8.82554e-07
-1.38599e-06
7.62229e-07
-1.23959e-06
6.78591e-07
-1.12017e-06
6.15844e-07
-9.87965e-07
5.47333e-07
-8.80321e-07
4.9401e-07
-7.858e-07
4.56576e-07
-7.07596e-07
4.21019e-07
-5.96418e-07
3.77652e-07
-5.09347e-07
3.35955e-07
-4.2034e-07
2.92975e-07
-3.60189e-07
2.53505e-07
-2.86483e-07
1.98692e-07
-2.38666e-07
1.56865e-07
-2.82676e-07
3.35405e-07
)
;

boundaryField
{
    inlet
    {
        type            extrapolatedCalculated;
        value           nonuniform List<scalar> 
11
(
1.04675e-08
4.79368e-09
4.956e-09
4.44728e-09
4.50456e-09
4.00078e-09
3.72598e-09
2.76669e-09
2.65742e-09
2.01306e-09
6.45058e-09
)
;
    }
    outlet
    {
        type            extrapolatedCalculated;
        value           nonuniform List<scalar> 0();
    }
    walls
    {
        type            extrapolatedCalculated;
        value           nonuniform List<scalar> 4(-2.82974e-05 -7.80099e-05 2.32172e-05 -6.23714e-05);
    }
    frontAndBack
    {
        type            empty;
    }
    procBoundary6to2
    {
        type            processor;
        value           nonuniform List<scalar> 
13
(
0.000128079
8.60905e-05
4.89428e-05
7.95465e-05
8.35314e-06
2.29881e-05
1.43435e-05
1.25548e-05
4.20584e-06
6.89352e-06
3.37347e-06
6.46655e-06
2.12282e-06
)
;
    }
    procBoundary6to3
    {
        type            processor;
        value           uniform 5.31818e-06;
    }
    procBoundary6to5
    {
        type            processor;
        value           nonuniform List<scalar> 
86
(
6.88866e-06
-1.89263e-06
6.56729e-06
-2.34382e-06
7.19352e-06
-2.35001e-06
8.43028e-06
-2.26042e-06
8.14796e-06
-2.16283e-06
7.53203e-06
-2.15583e-06
6.78478e-06
-1.90712e-06
6.15513e-06
-1.74059e-06
6.57185e-06
-1.49933e-06
6.33668e-06
-1.20971e-06
6.06173e-06
-9.62993e-07
5.27689e-06
-1.02756e-06
3.81415e-06
-1.59327e-06
2.5899e-06
-2.22475e-06
1.93492e-07
-4.78789e-09
-1.1425e-06
2.09138e-06
-2.62872e-06
-2.62872e-06
-1.36232e-06
9.20971e-07
-1.05709e-06
7.7615e-07
-8.99332e-07
6.8417e-07
-8.375e-07
3.43489e-07
-4.28086e-07
1.05244e-07
1.07064e-07
-1.08962e-07
-1.08962e-07
-2.52452e-07
1.85822e-07
-1.72381e-07
1.12522e-07
-1.17463e-07
8.11889e-08
-2.80477e-08
4.23551e-08
-9.59034e-08
-9.59034e-08
-1.08602e-07
-2.5497e-08
3.02125e-08
-5.89539e-08
1.74416e-08
-2.18055e-08
-9.38542e-09
-9.38542e-09
-1.46961e-08
-6.33186e-09
-2.40552e-08
1.33428e-08
-1.64745e-08
1.46561e-08
1.75012e-09
1.75012e-09
2.01014e-09
-4.89621e-09
1.52238e-10
-3.03376e-09
2.63824e-09
-4.1658e-09
1.19789e-08
5.52599e-09
1.02093e-08
1.02093e-08
7.19183e-09
6.26164e-09
5.6598e-09
)
;
    }
    procBoundary6to7
    {
        type            processor;
        value           nonuniform List<scalar> 
91
(
1.25825e-08
1.25825e-08
1.95608e-08
1.95608e-08
2.1157e-08
2.1157e-08
1.41511e-08
9.3946e-09
1.41511e-08
1.5465e-08
-1.22146e-08
9.3946e-09
2.18759e-08
1.54862e-09
-9.87637e-09
-1.22146e-08
2.47554e-09
7.16987e-09
-2.26542e-08
1.54862e-09
8.02204e-09
3.45052e-08
-1.33067e-08
-1.56568e-08
7.16987e-09
1.93691e-08
2.29184e-08
-5.47368e-08
5.40891e-08
-4.66949e-08
3.45052e-08
3.20326e-08
-2.68076e-08
-2.07741e-08
-2.59164e-08
-3.47938e-08
-1.59392e-08
-3.55541e-08
2.29184e-08
-1.39677e-08
-2.9753e-07
9.002e-08
-1.23478e-07
4.79031e-08
-9.49833e-08
3.01684e-08
-5.61607e-08
1.63542e-08
-4.7805e-08
-2.22821e-09
-4.10618e-08
-2.68076e-08
-1.05371e-08
-1.24386e-06
1.53915e-06
2.31385e-07
1.0404e-06
3.79732e-09
8.38179e-07
-1.04195e-07
6.77887e-07
-1.81847e-07
5.46584e-07
-1.95943e-07
4.73988e-07
-2.08458e-07
4.29974e-07
-1.97648e-07
3.988e-07
-2.01686e-07
3.70084e-07
-1.90443e-07
3.62698e-07
-1.95151e-07
3.62571e-07
-2.00356e-07
3.50788e-07
-1.99032e-07
3.22105e-07
-2.07355e-07
2.82132e-07
-1.92153e-07
2.19449e-07
-2.12854e-07
1.52054e-07
-2.24541e-07
1.07709e-07
-2.07171e-07
6.94301e-08
-2.9753e-07
-1.64981e-07
)
;
    }
}


// ************************************************************************* //
