/*--------------------------------*- C++ -*----------------------------------*\
| =========                 |                                                 |
| \\      /  F ield         | OpenFOAM: The Open Source CFD Toolbox           |
|  \\    /   O peration     | Version:  2306                                  |
|   \\  /    A nd           | Website:  www.openfoam.com                      |
|    \\/     M anipulation  |                                                 |
\*---------------------------------------------------------------------------*/
FoamFile
{
    version     2.0;
    format      ascii;
    arch        "LSB;label=32;scalar=64";
    class       volScalarField;
    location    "875";
    object      turbulenceProperties:k;
}
// * * * * * * * * * * * * * * * * * * * * * * * * * * * * * * * * * * * * * //

dimensions      [0 2 -2 0 0 0 0];

internalField   nonuniform List<scalar> 
1340
(
25.414
20.1344
15.0259
5.56101
9.51836
8.47324
7.40896
8.55702
12.1066
10.5205
8.71503
9.81124
12.4506
11.7086
10.2487
11.028
8.10644
10.0683
10.4365
11.6112
1.85189
5.17458
8.34282
11.082
0.126025
0.85008
4.25325
8.89178
0.00839899
0.104614
0.965132
5.32802
0.000901597
0.0325671
0.131043
2.12207
0
0.000164267
0.0163183
0.557875
0
0
0.00514909
0.142936
2.54002e-06
0
0.000812349
0.0492163
3.87392e-05
2.9653e-08
0.000264575
0.0164144
8.1999e-05
2.57112e-06
2.80672e-05
0.00415359
7.50783e-05
3.57545e-05
4.15605e-07
0.0003093
6.02719e-05
7.2057e-05
1.52148e-07
2.28315e-05
5.27487e-05
7.89654e-05
3.96575e-07
3.73369e-10
5.12976e-05
6.70263e-05
2.55097e-05
5.32449e-07
5.16525e-05
5.48756e-05
5.15749e-05
6.42646e-06
5.13069e-05
4.8457e-05
5.53806e-05
2.61196e-05
4.98781e-05
4.59182e-05
4.98481e-05
4.05273e-05
4.78595e-05
4.45996e-05
4.42779e-05
4.3791e-05
4.5696e-05
4.31744e-05
4.06355e-05
4.16056e-05
4.35664e-05
4.13842e-05
3.82329e-05
3.82702e-05
4.14913e-05
3.93772e-05
3.6267e-05
3.52299e-05
3.94389e-05
3.73097e-05
3.4364e-05
3.26311e-05
3.73953e-05
3.52617e-05
3.24486e-05
3.0329e-05
3.53616e-05
3.3252e-05
3.05445e-05
2.82179e-05
3.33421e-05
3.12814e-05
2.86763e-05
2.62478e-05
3.13508e-05
2.93562e-05
2.68639e-05
2.44055e-05
2.93979e-05
2.74818e-05
2.51098e-05
2.26803e-05
2.74884e-05
2.56649e-05
2.34238e-05
2.10634e-05
2.56326e-05
2.39076e-05
2.18051e-05
1.95495e-05
2.52864e-05
2.38372e-05
2.22188e-05
2.0256e-05
1.81287e-05
2.344e-05
2.21076e-05
2.06017e-05
1.87818e-05
1.67956e-05
2.16672e-05
2.04506e-05
1.90583e-05
1.73823e-05
1.55454e-05
1.99741e-05
1.88694e-05
1.75913e-05
1.60576e-05
1.43726e-05
1.83655e-05
1.73679e-05
1.62026e-05
1.48077e-05
1.32732e-05
1.6844e-05
1.59484e-05
1.48931e-05
1.36324e-05
1.22436e-05
1.54117e-05
1.46119e-05
1.36619e-05
1.25299e-05
1.12803e-05
1.40698e-05
1.33592e-05
1.2509e-05
1.14983e-05
1.03799e-05
1.28177e-05
1.21894e-05
1.14331e-05
1.05357e-05
9.53935e-06
1.16544e-05
1.11013e-05
1.04319e-05
9.63941e-06
8.75593e-06
1.05777e-05
1.00931e-05
9.50328e-06
8.80717e-06
8.02645e-06
9.58477e-06
9.16189e-06
8.64467e-06
8.03595e-06
7.34864e-06
8.97135e-06
8.67236e-06
8.30447e-06
7.85283e-06
7.32278e-06
6.71982e-06
8.09513e-06
7.83662e-06
7.51766e-06
7.12464e-06
6.66487e-06
6.13742e-06
7.29639e-06
7.07322e-06
6.79749e-06
6.45665e-06
6.05926e-06
5.59902e-06
6.57021e-06
6.37792e-06
6.1401e-06
5.84528e-06
5.50281e-06
5.10218e-06
5.91165e-06
5.74611e-06
5.5414e-06
5.28707e-06
4.99261e-06
4.64467e-06
5.31576e-06
5.1734e-06
4.99738e-06
4.77833e-06
4.5257e-06
4.22408e-06
4.77755e-06
4.65519e-06
4.50406e-06
4.31569e-06
4.09923e-06
3.83814e-06
4.29236e-06
4.18718e-06
4.05745e-06
3.89563e-06
3.71038e-06
3.4847e-06
3.8556e-06
3.76514e-06
3.65383e-06
3.5149e-06
3.35641e-06
3.16158e-06
3.52501e-06
3.46293e-06
3.3851e-06
3.28954e-06
3.17029e-06
3.0347e-06
2.86666e-06
3.16403e-06
3.11029e-06
3.04323e-06
2.96117e-06
2.85878e-06
2.74274e-06
2.59791e-06
2.84054e-06
2.79394e-06
2.73607e-06
2.6655e-06
2.57753e-06
2.47812e-06
2.35336e-06
2.55093e-06
2.51041e-06
2.46036e-06
2.39956e-06
2.32386e-06
2.23859e-06
2.13116e-06
2.29181e-06
2.25648e-06
2.21307e-06
2.16057e-06
2.09536e-06
2.02204e-06
1.92953e-06
2.05991e-06
2.02905e-06
1.99134e-06
1.94592e-06
1.88962e-06
1.82646e-06
1.7468e-06
1.85194e-06
1.825e-06
1.79225e-06
1.75297e-06
1.70436e-06
1.64988e-06
1.58132e-06
1.68397e-06
1.66473e-06
1.6413e-06
1.61295e-06
1.57904e-06
1.53715e-06
1.49018e-06
1.43134e-06
1.51277e-06
1.4959e-06
1.47552e-06
1.451e-06
1.42179e-06
1.38578e-06
1.34537e-06
1.29509e-06
1.35884e-06
1.34391e-06
1.32605e-06
1.30474e-06
1.2795e-06
1.24851e-06
1.21374e-06
1.17089e-06
1.22133e-06
1.2079e-06
1.19202e-06
1.17328e-06
1.15128e-06
1.12445e-06
1.09442e-06
1.05793e-06
1.09834e-06
1.086e-06
1.07161e-06
1.05485e-06
1.03537e-06
1.01181e-06
9.85545e-07
9.5416e-07
9.92782e-07
9.81554e-07
9.68537e-07
9.53483e-07
9.36098e-07
9.15084e-07
8.9174e-07
8.64113e-07
9.08603e-07
8.98287e-07
8.8645e-07
8.72863e-07
8.5719e-07
8.38182e-07
8.17096e-07
7.93552e-07
8.44561e-07
8.36186e-07
8.25887e-07
8.14395e-07
8.01577e-07
7.86985e-07
7.69519e-07
7.49888e-07
7.28935e-07
7.80181e-07
7.71921e-07
7.61757e-07
7.50464e-07
7.38002e-07
7.23961e-07
7.07485e-07
6.89425e-07
6.71963e-07
7.12716e-07
7.0421e-07
6.94046e-07
6.82877e-07
6.70709e-07
6.57133e-07
6.41197e-07
6.22905e-07
6.0371e-07
6.58285e-07
6.50546e-07
6.41167e-07
6.30664e-07
6.1907e-07
6.06215e-07
5.91658e-07
5.76727e-07
5.65273e-07
5.81993e-07
5.73353e-07
5.63579e-07
5.53101e-07
5.41901e-07
5.29443e-07
5.1445e-07
4.95623e-07
4.74495e-07
5.57605e-07
5.50439e-07
5.41772e-07
5.31949e-07
5.21222e-07
5.0987e-07
4.98502e-07
4.90014e-07
4.8946e-07
4.51036e-07
4.42798e-07
4.33804e-07
4.2412e-07
4.13575e-07
4.01241e-07
3.8471e-07
3.62116e-07
3.34838e-07
5.17641e-07
5.12621e-07
5.06148e-07
4.98202e-07
4.89627e-07
4.81678e-07
4.78028e-07
4.84532e-07
5.01056e-07
4.03076e-07
4.02452e-07
3.99559e-07
3.94365e-07
3.8716e-07
3.77375e-07
3.63995e-07
3.56292e-07
3.42186e-07
6.96361e-07
6.80406e-07
6.80719e-07
6.80848e-07
6.80044e-07
6.7906e-07
6.80109e-07
6.93005e-07
7.24445e-07
7.40518e-07
7.47002e-07
7.42539e-07
7.46943e-07
7.52353e-07
7.56964e-07
7.61104e-07
7.66959e-07
7.86445e-07
8.19232e-07
8.17421e-07
1.26412e-06
1.06793e-06
1.08314e-06
1.09611e-06
1.10376e-06
1.11258e-06
1.12443e-06
1.14782e-06
1.16828e-06
9.99068e-07
15.1652
6.96028
3.09906
8.99674
12.0142
12.6175
11.2526
8.12238
4.16845
1.25663
0.21143
0.0424984
0.0141863
0.00359968
0.000173471
1.00315e-05
0
8.53325e-08
1.76779e-06
1.82753e-05
3.3106e-05
3.73938e-05
3.58428e-05
3.2886e-05
3.01497e-05
2.78588e-05
2.58656e-05
2.40574e-05
2.23788e-05
2.08157e-05
1.93606e-05
1.80059e-05
1.67455e-05
1.5569e-05
1.44692e-05
1.3441e-05
1.24774e-05
1.15739e-05
1.07266e-05
9.93163e-06
9.18544e-06
8.48535e-06
7.82966e-06
7.21499e-06
6.64019e-06
6.10335e-06
5.60256e-06
5.13628e-06
4.70292e-06
4.30097e-06
3.92892e-06
3.58512e-06
3.26819e-06
2.97656e-06
2.70872e-06
2.4632e-06
2.23854e-06
2.03332e-06
1.84614e-06
1.67569e-06
1.52067e-06
1.37966e-06
1.25118e-06
1.13365e-06
1.02649e-06
9.27462e-07
8.40744e-07
7.73839e-07
7.09948e-07
6.58539e-07
5.85115e-07
5.60161e-07
4.50352e-07
4.99102e-07
2.97318e-07
5.262e-07
3.06128e-07
7.39755e-07
7.59475e-07
9.37136e-07
10.9746
10.3827
4.98168
2.77207
6.90998
9.33957
9.61195
7.96909
4.95894
1.8981
0.308501
0.0224398
0.00562422
0.00202624
0.000166623
1.36347e-05
0
2.4165e-08
5.12391e-07
9.64596e-06
2.02781e-05
2.43156e-05
2.41195e-05
2.2668e-05
2.12096e-05
1.99687e-05
1.887e-05
1.78422e-05
1.68564e-05
1.59105e-05
1.50059e-05
1.41427e-05
1.33212e-05
1.25375e-05
1.17893e-05
1.10758e-05
1.03939e-05
9.7429e-06
9.12123e-06
8.52772e-06
7.9612e-06
7.42095e-06
6.90701e-06
6.41765e-06
5.95326e-06
5.51342e-06
5.0974e-06
4.70494e-06
4.33562e-06
3.98894e-06
3.66445e-06
3.36139e-06
3.07918e-06
2.81706e-06
2.57421e-06
2.34976e-06
2.14283e-06
1.95248e-06
1.77773e-06
1.61765e-06
1.47127e-06
1.33746e-06
1.21504e-06
1.10264e-06
9.99825e-07
9.04577e-07
8.20465e-07
7.55281e-07
6.91966e-07
6.43435e-07
5.69668e-07
5.48658e-07
4.36566e-07
4.90554e-07
2.84941e-07
5.16446e-07
2.95307e-07
7.21349e-07
7.37463e-07
7.14447
8.62175
6.91945
3.04544
2.29844
5.71826
7.69361
7.75732
6.07512
3.35077
0.992287
0.0910248
0.00389455
0.000572959
0.000189988
0
0
1.32305e-09
2.75933e-08
4.04107e-06
1.12378e-05
1.48237e-05
1.52983e-05
1.47311e-05
1.40918e-05
1.35725e-05
1.31295e-05
1.27069e-05
1.22772e-05
1.18358e-05
1.13843e-05
1.09258e-05
1.0464e-05
9.99982e-06
9.53511e-06
9.07261e-06
8.6134e-06
8.16023e-06
7.71418e-06
7.277e-06
6.84982e-06
6.43412e-06
6.03138e-06
5.64156e-06
5.26628e-06
4.90619e-06
4.5615e-06
4.23284e-06
3.92046e-06
3.62455e-06
3.34521e-06
3.08223e-06
2.83555e-06
2.6048e-06
2.38961e-06
2.1895e-06
2.00391e-06
1.83224e-06
1.67379e-06
1.52791e-06
1.39387e-06
1.27078e-06
1.15773e-06
1.05347e-06
9.57701e-07
8.68684e-07
7.89385e-07
7.28009e-07
6.6699e-07
6.22628e-07
5.50347e-07
5.33119e-07
4.22418e-07
4.78141e-07
2.78168e-07
5.03651e-07
2.93648e-07
7.05982e-07
4.68545
6.38708
6.58579
4.88794
1.92105
1.92279
4.70522
6.31894
6.33403
4.83559
2.50468
0.661253
0.0508466
0.000349059
0.00011612
0
0
0
1.01104e-07
2.05364e-06
7.919e-06
1.17412e-05
1.25557e-05
1.2088e-05
1.14477e-05
1.09448e-05
1.05559e-05
1.02149e-05
9.8878e-06
9.56425e-06
9.24056e-06
8.91552e-06
8.58901e-06
8.25947e-06
7.92661e-06
7.59104e-06
7.2534e-06
6.91533e-06
6.57765e-06
6.24199e-06
5.90962e-06
5.58214e-06
5.26095e-06
4.94674e-06
4.64119e-06
4.3451e-06
4.05916e-06
3.78432e-06
3.52097e-06
3.26965e-06
3.03077e-06
2.80432e-06
2.59057e-06
2.38937e-06
2.20061e-06
2.02409e-06
1.85946e-06
1.70637e-06
1.56435e-06
1.43291e-06
1.31156e-06
1.19961e-06
1.09636e-06
1.00074e-06
9.12457e-07
8.30099e-07
7.56052e-07
6.99239e-07
6.41182e-07
6.01142e-07
5.30678e-07
5.17151e-07
4.08413e-07
4.6573e-07
2.72057e-07
4.91982e-07
2.91173e-07
2.84457
4.43196
5.3735
5.17255
3.7084
1.39354
1.55734
3.80716
5.15793
5.19994
3.94778
2.00719
0.522569
0.0386144
0.00270314
0
0
0
4.21907e-10
8.59291e-09
4.16344e-06
9.13113e-06
1.04506e-05
1.01919e-05
9.68038e-06
9.22933e-06
8.87564e-06
8.57644e-06
8.2935e-06
8.01472e-06
7.73903e-06
7.46695e-06
7.19833e-06
6.93204e-06
6.66699e-06
6.40254e-06
6.13848e-06
5.87508e-06
5.6122e-06
5.35037e-06
5.09022e-06
4.83246e-06
4.57789e-06
4.32708e-06
4.08119e-06
3.84081e-06
3.60672e-06
3.37979e-06
3.16044e-06
2.94933e-06
2.74702e-06
2.55371e-06
2.3698e-06
2.19537e-06
2.03057e-06
1.87538e-06
1.72968e-06
1.59332e-06
1.46607e-06
1.3476e-06
1.23761e-06
1.13561e-06
1.04111e-06
9.53193e-07
8.71594e-07
7.95211e-07
7.25833e-07
6.73057e-07
6.1762e-07
5.81345e-07
5.12453e-07
5.02273e-07
3.95072e-07
4.54457e-07
2.65367e-07
4.8259e-07
1.41951
2.7471
3.91661
4.50452
4.21999
3.00937
1.14989
1.1997
3.07385
4.25554
4.35627
3.34287
1.73015
0.470934
0.0414125
0.00253414
5.29418e-07
0
0
7.413e-10
1.26004e-08
4.186e-06
7.74028e-06
7.92736e-06
7.42273e-06
7.11147e-06
6.9005e-06
6.72282e-06
6.55938e-06
6.39534e-06
6.22505e-06
6.0499e-06
5.87151e-06
5.69027e-06
5.50593e-06
5.31851e-06
5.12851e-06
4.93646e-06
4.74246e-06
4.54705e-06
4.35089e-06
4.15436e-06
3.9582e-06
3.76295e-06
3.56944e-06
3.37825e-06
3.19012e-06
3.00587e-06
2.82594e-06
2.65105e-06
2.48185e-06
2.31869e-06
2.16206e-06
2.01223e-06
1.86953e-06
1.73409e-06
1.60599e-06
1.48526e-06
1.37182e-06
1.26554e-06
1.16626e-06
1.07367e-06
9.87448e-07
9.06869e-07
8.31663e-07
7.61027e-07
6.96123e-07
6.47124e-07
5.94171e-07
5.61457e-07
4.94188e-07
4.87275e-07
3.81562e-07
4.43245e-07
0.469853
1.36207
2.45745
3.37985
3.81897
3.56863
2.58849
1.06362
0.858094
2.46235
3.53495
3.70806
2.91617
1.57034
0.46731
0.0525097
0.000145088
3.00026e-05
0
0
9.56291e-12
2.24728e-07
3.64998e-06
6.48188e-06
6.18906e-06
5.59618e-06
5.37467e-06
5.26524e-06
5.1553e-06
5.04822e-06
4.94439e-06
4.83813e-06
4.72817e-06
4.61488e-06
4.49748e-06
4.37523e-06
4.24816e-06
4.1166e-06
3.98068e-06
3.84096e-06
3.69799e-06
3.55221e-06
3.40442e-06
3.25516e-06
3.10516e-06
2.95513e-06
2.80574e-06
2.65775e-06
2.5117e-06
2.36828e-06
2.22818e-06
2.09182e-06
1.95977e-06
1.83237e-06
1.71006e-06
1.59306e-06
1.48159e-06
1.37579e-06
1.27571e-06
1.18133e-06
1.09263e-06
1.00942e-06
9.31504e-07
8.58356e-07
7.89674e-07
7.2495e-07
6.64699e-07
6.19632e-07
5.69337e-07
5.40303e-07
4.74904e-07
4.71397e-07
0.0623898
0.425042
1.18306
2.10487
2.88603
3.27538
3.10451
2.32807
1.06966
0.544402
1.93813
2.9358
3.18515
2.59291
1.47037
0.487951
0.0657166
0.00052233
6.73626e-05
0
0
0
1.68691e-07
2.63337e-06
5.38602e-06
5.11051e-06
4.47855e-06
4.28714e-06
4.22937e-06
4.14804e-06
4.05691e-06
3.97231e-06
3.8906e-06
3.80799e-06
3.72341e-06
3.6361e-06
3.5454e-06
3.45113e-06
3.35298e-06
3.25103e-06
3.14546e-06
3.03649e-06
2.92467e-06
2.81037e-06
2.69413e-06
2.57659e-06
2.45828e-06
2.33988e-06
2.22188e-06
2.10494e-06
1.98967e-06
1.8765e-06
1.76603e-06
1.65859e-06
1.55465e-06
1.4545e-06
1.35842e-06
1.2666e-06
1.17917e-06
1.0962e-06
1.01773e-06
9.43692e-07
8.73982e-07
8.08238e-07
7.46106e-07
6.87374e-07
6.31906e-07
5.90919e-07
5.43438e-07
0.000538189
0.0456577
0.33059
0.954442
1.74378
2.44147
2.82783
2.75036
2.15431
1.11816
0.28125
1.48518
2.42755
2.75046
2.33413
1.40519
0.515623
0.0827787
0.00173383
0.000124155
0
0
0
9.31203e-08
1.37793e-06
4.22967e-06
4.27597e-06
3.63973e-06
3.43597e-06
3.41923e-06
3.37839e-06
3.31022e-06
3.24294e-06
3.17973e-06
3.11633e-06
3.05087e-06
2.98287e-06
2.91226e-06
2.83865e-06
2.76192e-06
2.68206e-06
2.59916e-06
2.51345e-06
2.42518e-06
2.33469e-06
2.24239e-06
2.14869e-06
2.05415e-06
1.95911e-06
1.86416e-06
1.76981e-06
1.67644e-06
1.58461e-06
1.49462e-06
1.40693e-06
1.32186e-06
1.23969e-06
1.16065e-06
1.08491e-06
1.01257e-06
9.43737e-07
8.78408e-07
8.16552e-07
7.57964e-07
7.0221e-07
6.49376e-07
0.000132845
0.000206807
0.0250954
0.224254
0.71788
1.39634
2.03855
2.44163
2.45876
2.02323
1.17832
0.173422
1.09354
1.99058
2.37924
2.11728
1.35609
0.546879
0.103845
0.00409249
0.000181459
0
0
0
2.88864e-08
3.74271e-07
3.09007e-06
3.67178e-06
3.0837e-06
2.79793e-06
2.7636e-06
2.74608e-06
2.70116e-06
2.65136e-06
2.60448e-06
2.55755e-06
2.50849e-06
2.45698e-06
2.40282e-06
2.34586e-06
2.28602e-06
2.22331e-06
2.15789e-06
2.08996e-06
2.01972e-06
1.94746e-06
1.87351e-06
1.79832e-06
1.72213e-06
1.6454e-06
1.56859e-06
1.49201e-06
1.41615e-06
1.3413e-06
1.26784e-06
1.19611e-06
1.12637e-06
1.05887e-06
9.93789e-07
9.31247e-07
8.71377e-07
8.14217e-07
0
9.37268e-05
0.000287911
0.010645
0.131876
0.500115
1.07397
1.66985
2.09491
2.20133
1.90964
1.23373
0.309448
0.755193
1.61048
2.05443
1.92653
1.31198
0.578382
0.128241
0.00791522
0.000258984
0
0
0
9.88202e-10
3.24902e-09
1.74788e-06
2.90599e-06
2.61189e-06
2.32536e-06
2.26383e-06
2.25036e-06
2.21929e-06
2.18157e-06
2.14562e-06
2.10982e-06
2.07234e-06
2.03274e-06
1.99083e-06
1.94642e-06
1.89942e-06
1.84988e-06
1.79793e-06
1.7437e-06
1.68741e-06
1.62931e-06
1.56974e-06
1.50892e-06
1.44721e-06
1.38499e-06
1.32252e-06
1.26022e-06
1.19835e-06
1.13725e-06
1.07721e-06
1.01849e-06
2.72435e-16
0
9.03534e-06
4.70997e-05
0.00276201
0.0657909
0.318181
0.785388
1.33173
1.7744
1.9612
1.79854
1.27478
0.479569
0.463452
1.276
1.764
1.75134
1.26764
0.607591
0.155005
0.0136947
0.000425264
0
0
0
3.17443e-12
8.30181e-08
1.2242e-06
2.29784e-06
2.19625e-06
1.94644e-06
1.87376e-06
1.8615e-06
1.83928e-06
1.80985e-06
1.78133e-06
1.7531e-06
1.72347e-06
1.69199e-06
1.65852e-06
1.62293e-06
1.58516e-06
1.54526e-06
1.50329e-06
1.45938e-06
1.41372e-06
1.36656e-06
1.31809e-06
1.26856e-06
3.17428e-12
2.31655e-12
0
8.3513e-09
0.000340781
0.000303104
0.0261578
0.18092
0.53904
1.02492
1.47405
1.72877
1.68098
1.29518
0.627644
0.217567
0.979791
1.50009
1.58576
1.21993
0.632452
0.183603
0.0205622
0.000745193
7.27801e-07
0
0
0
5.29622e-08
7.53729e-07
1.81169e-06
1.85248e-06
1.63623e-06
1.55832e-06
1.54843e-06
1.53328e-06
1.50966e-06
1.48629e-06
)
;

boundaryField
{
    inlet
    {
        type            calculated;
        value           nonuniform List<scalar> 
11
(
5.59372e-06
5.30215e-06
5.42939e-06
5.54744e-06
5.65208e-06
5.74506e-06
5.83221e-06
5.91988e-06
6.02369e-06
5.78953e-06
6.09951e-06
)
;
    }
    outlet
    {
        type            calculated;
        value           nonuniform List<scalar> 0();
    }
    walls
    {
        type            calculated;
        value           uniform 0;
    }
    frontAndBack
    {
        type            empty;
    }
    procBoundary6to2
    {
        type            processor;
        value           nonuniform List<scalar> 
13
(
10.4544
6.28828
3.96654
2.38931
1.18155
0.396759
0.0571843
0.000589545
0.000263077
0
0
5.41975e-08
8.76016e-07
)
;
    }
    procBoundary6to3
    {
        type            processor;
        value           uniform 1.15785e-06;
    }
    procBoundary6to5
    {
        type            processor;
        value           nonuniform List<scalar> 
86
(
29.3093
11.0154
14.1315
12.6336
5.00186
0.197477
0.021063
0.00319992
0
0
3.25155e-06
5.28176e-05
7.81769e-05
6.7344e-05
6.01292e-05
5.94962e-05
5.97738e-05
5.86027e-05
5.64485e-05
5.41391e-05
5.19905e-05
4.99701e-05
4.79712e-05
4.59333e-05
4.38503e-05
4.17363e-05
3.96072e-05
3.74782e-05
3.5361e-05
3.32639e-05
3.11981e-05
2.91739e-05
2.72003e-05
2.72003e-05
2.66019e-05
2.46294e-05
2.27381e-05
2.09339e-05
1.92217e-05
1.76046e-05
1.60847e-05
1.46627e-05
1.33382e-05
1.21095e-05
1.09744e-05
9.92966e-06
9.92966e-06
9.20906e-06
8.29998e-06
7.47277e-06
6.72203e-06
6.04231e-06
5.42816e-06
4.87433e-06
4.37575e-06
3.9275e-06
3.9275e-06
3.5737e-06
3.20638e-06
2.8775e-06
2.5833e-06
2.32026e-06
2.08495e-06
1.87392e-06
1.87392e-06
1.69947e-06
1.52648e-06
1.37114e-06
1.23255e-06
1.10876e-06
1.00212e-06
9.16938e-07
9.16938e-07
8.51867e-07
7.87492e-07
7.20492e-07
6.65585e-07
5.90169e-07
5.65553e-07
4.57539e-07
5.27803e-07
3.96847e-07
3.96847e-07
6.43063e-07
7.4361e-07
9.60321e-07
)
;
    }
    procBoundary6to7
    {
        type            processor;
        value           nonuniform List<scalar> 
91
(
9.39406e-07
9.39406e-07
7.13838e-07
7.13838e-07
6.92252e-07
6.92252e-07
2.88855e-07
2.58105e-07
2.88855e-07
4.73852e-07
3.6736e-07
2.58105e-07
4.31548e-07
5.18166e-07
4.54841e-07
3.6736e-07
4.54826e-07
5.98671e-07
5.61756e-07
5.18166e-07
5.17132e-07
7.59787e-07
7.08024e-07
6.58407e-07
5.98671e-07
6.11309e-07
9.61329e-07
9.05897e-07
8.52316e-07
8.00723e-07
7.59787e-07
7.5119e-07
1.2183e-06
1.16755e-06
1.11663e-06
1.06576e-06
1.01526e-06
9.65364e-07
9.61329e-07
9.16316e-07
1.46359e-06
1.43982e-06
1.41438e-06
1.3872e-06
1.35818e-06
1.32731e-06
1.29462e-06
1.26022e-06
1.22421e-06
1.18679e-06
1.14812e-06
1.2183e-06
1.10839e-06
1.72114e-08
1.02447e-09
0
0
3.98641e-05
8.24154e-05
0.00693513
0.087804
0.339507
0.751254
1.19078
1.49858
1.55142
1.29147
0.74561
0.0792247
0.717436
1.25786
1.42621
1.16674
0.652019
0.212792
0.0284161
0.000169933
2.17123e-05
0
0
0
2.76748e-08
3.72583e-07
1.4038e-06
1.57269e-06
1.37846e-06
1.29228e-06
1.28597e-06
1.27981e-06
1.46359e-06
1.26253e-06
)
;
    }
}


// ************************************************************************* //
