/*--------------------------------*- C++ -*----------------------------------*\
| =========                 |                                                 |
| \\      /  F ield         | OpenFOAM: The Open Source CFD Toolbox           |
|  \\    /   O peration     | Version:  2306                                  |
|   \\  /    A nd           | Website:  www.openfoam.com                      |
|    \\/     M anipulation  |                                                 |
\*---------------------------------------------------------------------------*/
FoamFile
{
    version     2.0;
    format      ascii;
    arch        "LSB;label=32;scalar=64";
    class       volScalarField;
    location    "375";
    object      magR;
}
// * * * * * * * * * * * * * * * * * * * * * * * * * * * * * * * * * * * * * //

dimensions      [0 2 -2 0 0 0 0];

internalField   nonuniform List<scalar> 
1340
(
0.000592109
0.000585162
0.00057751
0.000567973
0.000555443
0.000502716
0.000496494
0.000489869
0.000481867
0.000471379
0.000459296
0.000429705
0.000424137
0.000418332
0.000411555
0.00040272
0.00039276
0.000381793
0.000369351
0.000364397
0.000359299
0.000353506
0.000346036
0.000337759
0.000328839
0.000319188
0.000319054
0.000314626
0.000310151
0.000305149
0.000298804
0.000291883
0.000284528
0.000276588
0.000268053
0.000276796
0.000272829
0.000268892
0.000264553
0.000259128
0.000253304
0.000247168
0.000240582
0.000233593
0.000226423
0.000241038
0.000237495
0.000234008
0.000230231
0.000225568
0.00022064
0.000215471
0.000209959
0.000204192
0.000198337
0.000210595
0.000207439
0.000204345
0.000201033
0.000197008
0.000192813
0.000188421
0.000183774
0.000178983
0.000174166
0.000169297
0.000184541
0.000181725
0.000178977
0.000176059
0.000172568
0.000168981
0.000165219
0.000161276
0.000157266
0.000153272
0.000149267
0.000162135
0.000159617
0.000157171
0.000154594
0.000151557
0.000148464
0.000145227
0.00014186
0.000138482
0.000135145
0.000131829
0.000128509
0.000142779
0.000140528
0.000138346
0.000136064
0.000133417
0.000130727
0.000127929
0.00012504
0.000122172
0.000119365
0.000116598
0.00011385
0.000125994
0.00012398
0.00012203
0.000120007
0.000117691
0.000115341
0.000112908
0.000110418
0.000107969
0.000105592
0.000103268
0.000100974
0.000111387
0.000109588
0.000107839
0.000106043
0.00010401
0.000101948
9.98241e-05
9.76671e-05
9.5564e-05
9.35368e-05
9.15682e-05
8.96428e-05
8.77423e-05
9.86363e-05
9.70288e-05
9.54609e-05
9.38612e-05
9.20705e-05
9.0254e-05
8.83946e-05
8.65158e-05
8.47003e-05
8.29613e-05
8.12836e-05
7.96523e-05
7.8054e-05
8.74762e-05
8.60356e-05
8.46332e-05
8.32047e-05
8.16236e-05
8.0019e-05
7.83843e-05
7.67418e-05
7.51641e-05
7.36626e-05
7.22228e-05
7.08336e-05
6.94806e-05
6.81361e-05
7.76823e-05
7.63908e-05
7.51352e-05
7.38576e-05
7.24588e-05
7.1038e-05
6.95949e-05
6.81545e-05
6.67782e-05
6.5474e-05
6.42309e-05
6.30385e-05
6.1883e-05
6.07405e-05
6.90663e-05
6.79104e-05
6.67845e-05
6.56397e-05
6.44005e-05
6.31397e-05
6.18621e-05
6.05949e-05
5.93878e-05
5.82497e-05
5.71697e-05
5.614e-05
5.51469e-05
5.41702e-05
6.1472e-05
6.04377e-05
5.94282e-05
5.84012e-05
5.73009e-05
5.618e-05
5.50456e-05
5.39271e-05
5.28656e-05
5.18676e-05
5.09238e-05
5.0028e-05
4.91691e-05
4.83286e-05
4.74851e-05
5.47663e-05
5.38393e-05
5.29347e-05
5.20135e-05
5.10345e-05
5.00365e-05
4.90284e-05
4.80375e-05
4.71005e-05
4.62213e-05
4.53924e-05
4.46088e-05
4.38607e-05
4.31318e-05
4.24049e-05
4.88341e-05
4.80028e-05
4.71931e-05
4.63669e-05
4.54934e-05
4.46043e-05
4.37073e-05
4.28274e-05
4.19976e-05
4.12201e-05
4.04893e-05
3.98005e-05
3.9145e-05
3.85093e-05
3.78779e-05
4.35782e-05
4.28331e-05
4.2108e-05
4.13674e-05
4.05866e-05
3.97942e-05
3.89951e-05
3.82124e-05
3.74753e-05
3.67859e-05
3.61384e-05
3.55298e-05
3.49533e-05
3.43961e-05
3.38446e-05
3.32879e-05
3.89155e-05
3.82476e-05
3.75979e-05
3.69343e-05
3.62365e-05
3.55291e-05
3.48166e-05
3.41197e-05
3.34636e-05
3.28504e-05
3.2275e-05
3.17359e-05
3.12251e-05
3.07337e-05
3.02506e-05
2.97647e-05
3.41747e-05
3.35931e-05
3.29981e-05
3.23744e-05
3.17429e-05
3.11072e-05
3.04859e-05
2.99012e-05
2.93547e-05
2.88419e-05
2.83619e-05
2.79089e-05
2.7474e-05
2.70478e-05
2.66213e-05
2.61836e-05
3.05529e-05
3.00328e-05
2.94994e-05
2.89416e-05
2.8378e-05
2.78107e-05
2.72563e-05
2.67348e-05
2.6247e-05
2.57894e-05
2.53612e-05
2.49577e-05
2.45711e-05
2.4194e-05
2.38184e-05
2.34345e-05
2.7329e-05
2.68639e-05
2.63861e-05
2.58874e-05
2.53845e-05
2.48782e-05
2.43838e-05
2.3918e-05
2.34822e-05
2.30732e-05
2.26903e-05
2.23302e-05
2.19863e-05
2.16512e-05
2.13192e-05
2.09822e-05
2.44563e-05
2.40406e-05
2.36129e-05
2.31674e-05
2.27187e-05
2.22672e-05
2.18262e-05
2.14102e-05
2.10209e-05
2.0655e-05
2.03125e-05
1.99905e-05
1.96832e-05
1.93853e-05
1.90914e-05
1.87941e-05
1.84857e-05
2.18942e-05
2.15229e-05
2.11405e-05
2.07427e-05
2.03429e-05
1.99406e-05
1.95472e-05
1.91762e-05
1.88282e-05
1.8501e-05
1.81943e-05
1.79062e-05
1.76318e-05
1.73664e-05
1.71054e-05
1.68427e-05
1.6572e-05
1.96077e-05
1.92759e-05
1.89344e-05
1.85798e-05
1.82237e-05
1.78655e-05
1.75152e-05
1.71843e-05
1.68738e-05
1.65812e-05
1.63068e-05
1.6049e-05
1.58035e-05
1.5567e-05
1.53354e-05
1.51031e-05
1.48649e-05
1.75652e-05
1.72691e-05
1.69643e-05
1.66487e-05
1.63321e-05
1.60136e-05
1.5702e-05
1.54076e-05
1.51306e-05
1.48691e-05
1.46239e-05
1.43933e-05
1.41741e-05
1.39632e-05
1.37574e-05
1.3552e-05
1.33422e-05
1.31229e-05
1.57395e-05
1.54754e-05
1.52037e-05
1.49233e-05
1.46423e-05
1.43596e-05
1.4083e-05
1.38214e-05
1.35748e-05
1.33417e-05
1.31228e-05
1.29167e-05
1.27211e-05
1.25333e-05
1.23506e-05
1.2169e-05
1.19844e-05
1.17923e-05
1.41065e-05
1.38713e-05
1.36295e-05
1.33808e-05
1.31319e-05
1.28814e-05
1.26365e-05
1.24046e-05
1.21856e-05
1.19783e-05
1.17831e-05
1.15994e-05
1.14251e-05
1.12581e-05
1.1096e-05
1.09356e-05
1.07735e-05
1.06054e-05
1.26451e-05
1.24358e-05
1.2221e-05
1.20008e-05
1.1781e-05
1.15597e-05
1.13433e-05
1.11383e-05
1.09444e-05
1.07604e-05
1.0587e-05
1.04236e-05
1.02686e-05
1.01203e-05
9.97689e-06
9.83557e-06
9.69313e-06
9.5461e-06
9.39041e-06
1.13365e-05
1.11505e-05
1.096e-05
1.07657e-05
1.05719e-05
1.0377e-05
1.01864e-05
1.00059e-05
9.83487e-06
9.67206e-06
9.5183e-06
9.37338e-06
9.23587e-06
9.1046e-06
8.97798e-06
8.8536e-06
8.72884e-06
8.60083e-06
8.46572e-06
1.01642e-05
9.99898e-06
9.83049e-06
9.65956e-06
9.48932e-06
9.31813e-06
9.15101e-06
8.99257e-06
8.8422e-06
8.69878e-06
8.56296e-06
8.43488e-06
8.31325e-06
8.19734e-06
8.08587e-06
7.97676e-06
7.86779e-06
7.75645e-06
7.63937e-06
9.11336e-06
8.96698e-06
8.81824e-06
8.66841e-06
8.51933e-06
8.36958e-06
8.22365e-06
8.08529e-06
7.95379e-06
7.82788e-06
7.70831e-06
7.59543e-06
7.48833e-06
7.38639e-06
7.28865e-06
7.19314e-06
7.09819e-06
7.00167e-06
6.90074e-06
6.79204e-06
8.17112e-06
8.04158e-06
7.91076e-06
7.7798e-06
7.64981e-06
7.51943e-06
7.39274e-06
7.2726e-06
7.15802e-06
7.04796e-06
6.94328e-06
6.84419e-06
6.75022e-06
6.66087e-06
6.57543e-06
6.49225e-06
6.40993e-06
6.32661e-06
6.2397e-06
6.14644e-06
7.3259e-06
7.21143e-06
7.0968e-06
6.98285e-06
6.87005e-06
6.75711e-06
6.64778e-06
6.5441e-06
6.44489e-06
6.3492e-06
6.25787e-06
6.17133e-06
6.08921e-06
6.01127e-06
5.93694e-06
5.86484e-06
5.79372e-06
5.72198e-06
5.64749e-06
5.56798e-06
6.56742e-06
6.46648e-06
6.36639e-06
6.2678e-06
6.17034e-06
6.07317e-06
5.97956e-06
5.89073e-06
5.80538e-06
5.72262e-06
5.64337e-06
5.56817e-06
5.49681e-06
5.42915e-06
5.36474e-06
5.30251e-06
5.24139e-06
5.17998e-06
5.11651e-06
5.04895e-06
4.97473e-06
5.88656e-06
5.79774e-06
5.71073e-06
5.62594e-06
5.54228e-06
5.4593e-06
5.37987e-06
5.3044e-06
5.2315e-06
5.16039e-06
5.09201e-06
5.02704e-06
4.96538e-06
4.90699e-06
4.85152e-06
4.79816e-06
4.74593e-06
4.69361e-06
4.63972e-06
4.58257e-06
4.52002e-06
5.27517e-06
5.19723e-06
5.12195e-06
5.04957e-06
4.97828e-06
4.90807e-06
4.84145e-06
4.77797e-06
4.71618e-06
4.65555e-06
4.59695e-06
4.54117e-06
4.48826e-06
4.43823e-06
4.39082e-06
4.34531e-06
4.30091e-06
4.25662e-06
4.2112e-06
4.16312e-06
4.11063e-06
4.72599e-06
4.65784e-06
4.59309e-06
4.53183e-06
4.47156e-06
4.41291e-06
4.35782e-06
4.30505e-06
4.25319e-06
4.2019e-06
4.15211e-06
4.10462e-06
4.05959e-06
4.01705e-06
3.97683e-06
3.93831e-06
3.90085e-06
3.86359e-06
3.82551e-06
3.78532e-06
3.74155e-06
4.23258e-06
4.17318e-06
4.11791e-06
4.06656e-06
4.01617e-06
3.96795e-06
3.92319e-06
3.87997e-06
3.83696e-06
3.79403e-06
3.75215e-06
3.71212e-06
3.67414e-06
3.63831e-06
3.60449e-06
3.57216e-06
3.54078e-06
3.50965e-06
3.4779e-06
3.44447e-06
3.4081e-06
3.36712e-06
3.78918e-06
3.73761e-06
3.69083e-06
3.64833e-06
3.60679e-06
3.56797e-06
3.53247e-06
3.4977e-06
3.46256e-06
3.42709e-06
3.3923e-06
3.35898e-06
3.32733e-06
3.29746e-06
3.26926e-06
3.24231e-06
3.2162e-06
3.19037e-06
3.16406e-06
3.13637e-06
3.10632e-06
3.07245e-06
3.39062e-06
3.34605e-06
3.30692e-06
3.27227e-06
3.23862e-06
3.20831e-06
3.18109e-06
3.15375e-06
3.1256e-06
3.09682e-06
3.0684e-06
3.04106e-06
3.015e-06
2.99033e-06
2.96702e-06
2.94475e-06
2.92315e-06
2.90179e-06
2.88003e-06
2.85718e-06
2.83235e-06
2.80436e-06
3.03231e-06
2.99399e-06
2.96173e-06
2.93404e-06
2.90745e-06
2.88484e-06
2.86495e-06
2.84413e-06
2.8222e-06
2.79943e-06
2.77668e-06
2.75462e-06
2.73342e-06
2.71324e-06
2.69406e-06
2.67567e-06
2.65782e-06
2.64013e-06
2.62216e-06
2.60326e-06
2.58272e-06
2.55959e-06
2.71014e-06
2.67738e-06
2.65131e-06
2.62974e-06
2.60949e-06
2.59386e-06
2.58042e-06
2.56529e-06
2.54894e-06
2.53155e-06
2.51379e-06
2.49628e-06
2.47919e-06
2.4627e-06
2.4469e-06
2.43166e-06
2.41681e-06
2.4021e-06
2.38713e-06
2.3714e-06
2.3543e-06
2.33505e-06
2.31266e-06
2.42041e-06
2.39262e-06
2.3721e-06
2.35592e-06
2.34137e-06
2.33207e-06
2.32422e-06
2.31406e-06
2.30274e-06
2.29014e-06
2.27669e-06
2.26294e-06
2.24915e-06
2.23557e-06
2.22239e-06
2.20958e-06
2.19707e-06
2.18467e-06
2.17204e-06
2.15881e-06
2.14446e-06
2.12832e-06
2.10957e-06
2.15984e-06
2.13648e-06
2.12094e-06
2.10945e-06
2.10008e-06
2.0965e-06
2.09345e-06
2.0876e-06
2.0809e-06
2.07252e-06
2.06258e-06
2.05175e-06
2.04044e-06
2.02901e-06
2.01775e-06
2.00676e-06
1.99602e-06
1.98541e-06
1.97465e-06
1.96341e-06
1.95127e-06
1.93766e-06
1.92189e-06
1.92548e-06
1.90608e-06
1.89498e-06
1.88759e-06
1.88292e-06
1.8845e-06
1.88544e-06
1.88343e-06
1.88104e-06
1.8762e-06
1.8689e-06
1.86013e-06
1.85053e-06
1.84059e-06
1.83075e-06
1.82114e-06
1.8118e-06
1.80264e-06
1.79342e-06
1.78384e-06
1.77357e-06
1.76212e-06
1.74892e-06
1.7147e-06
1.69881e-06
1.69168e-06
1.68783e-06
1.68751e-06
1.69366e-06
1.69784e-06
1.69933e-06
1.70098e-06
1.69894e-06
1.69332e-06
1.68582e-06
1.67735e-06
1.6685e-06
1.65976e-06
1.65134e-06
1.64325e-06
1.63538e-06
1.62754e-06
1.61948e-06
1.61091e-06
1.60139e-06
1.59046e-06
1.52512e-06
1.51239e-06
1.50877e-06
1.50798e-06
1.5117e-06
1.52184e-06
1.52853e-06
1.53332e-06
1.53879e-06
1.53863e-06
1.53378e-06
1.52701e-06
1.51939e-06
1.5115e-06
1.50385e-06
1.49661e-06
1.48976e-06
1.48318e-06
1.47668e-06
1.47004e-06
1.46301e-06
1.45522e-06
1.4463e-06
1.43611e-06
1.35461e-06
1.3447e-06
1.34419e-06
1.34605e-06
1.35357e-06
1.36707e-06
1.37567e-06
1.38376e-06
1.39271e-06
1.39334e-06
1.38853e-06
1.38232e-06
1.37566e-06
1.3689e-06
1.36246e-06
1.35647e-06
1.35086e-06
1.34551e-06
1.34023e-06
1.33484e-06
1.32912e-06
1.32278e-06
1.31547e-06
1.30709e-06
1.20128e-06
1.19389e-06
1.19607e-06
1.2002e-06
1.21132e-06
1.22752e-06
1.23758e-06
1.24922e-06
1.26132e-06
1.26147e-06
1.25622e-06
1.25085e-06
1.24551e-06
1.24007e-06
1.23489e-06
1.23008e-06
1.22554e-06
1.22118e-06
1.21683e-06
1.21235e-06
1.20756e-06
1.2022e-06
1.19598e-06
1.1888e-06
1.06347e-06
1.05834e-06
1.06281e-06
1.06887e-06
1.08336e-06
1.10146e-06
1.11261e-06
1.12813e-06
1.14313e-06
1.14184e-06
1.13612e-06
1.13208e-06
1.12831e-06
1.12409e-06
1.11986e-06
1.11584e-06
1.11195e-06
1.10812e-06
1.10424e-06
1.1002e-06
1.09585e-06
1.09096e-06
1.08528e-06
1.07871e-06
9.39728e-07
9.36681e-07
9.4307e-07
9.5081e-07
9.68446e-07
9.87616e-07
9.99446e-07
1.01858e-06
1.03623e-06
1.03336e-06
1.02779e-06
1.02547e-06
1.02306e-06
1.01949e-06
1.01555e-06
1.01167e-06
1.00784e-06
1.004e-06
1.0001e-06
9.96053e-07
9.91735e-07
9.86932e-07
9.81379e-07
9.75018e-07
8.28672e-07
8.27529e-07
8.35567e-07
8.44919e-07
8.65554e-07
8.85184e-07
8.97495e-07
9.19712e-07
9.39288e-07
9.34776e-07
9.30126e-07
9.2962e-07
9.27775e-07
9.23964e-07
9.19673e-07
9.15444e-07
9.11253e-07
9.07089e-07
9.02906e-07
8.98634e-07
8.94156e-07
8.89262e-07
8.83683e-07
8.77399e-07
7.29165e-07
7.29604e-07
7.38921e-07
7.49866e-07
7.7324e-07
7.92944e-07
8.05958e-07
8.328e-07
8.54349e-07
8.45229e-07
8.40759e-07
8.42139e-07
8.40209e-07
8.35442e-07
8.30447e-07
8.25765e-07
8.21206e-07
8.1673e-07
8.12314e-07
8.07896e-07
8.03318e-07
7.98381e-07
7.92839e-07
7.86665e-07
7.80117e-07
6.41463e-07
6.4306e-07
6.52876e-07
6.64915e-07
6.89991e-07
7.08577e-07
7.2167e-07
7.55242e-07
7.83251e-07
7.65449e-07
7.58415e-07
7.62222e-07
7.60608e-07
7.54903e-07
7.49301e-07
7.44382e-07
7.39663e-07
7.35011e-07
7.30496e-07
7.26039e-07
7.21458e-07
7.16552e-07
7.1111e-07
7.05067e-07
6.98677e-07
5.70794e-07
5.72889e-07
5.8193e-07
5.93442e-07
6.17674e-07
6.31775e-07
6.41535e-07
6.81563e-07
7.16939e-07
6.92431e-07
6.83811e-07
6.90942e-07
6.91264e-07
6.86013e-07
6.80638e-07
6.76065e-07
6.7165e-07
6.67215e-07
6.6286e-07
6.58539e-07
6.54114e-07
6.49363e-07
6.44077e-07
6.38202e-07
6.3199e-07
5.14802e-07
5.16873e-07
5.24357e-07
5.34209e-07
5.55285e-07
5.62689e-07
5.69193e-07
6.0567e-07
6.45809e-07
6.23397e-07
6.17141e-07
6.26886e-07
6.30133e-07
6.26846e-07
6.22507e-07
6.18705e-07
6.14988e-07
6.11172e-07
6.07301e-07
6.03389e-07
5.99351e-07
5.9499e-07
5.90068e-07
5.84534e-07
5.7866e-07
4.6356e-07
4.65568e-07
4.71594e-07
4.80285e-07
4.98172e-07
5.00034e-07
5.06122e-07
5.34239e-07
5.74479e-07
5.5949e-07
5.56772e-07
5.67298e-07
5.72856e-07
5.71813e-07
5.68738e-07
5.65712e-07
5.62693e-07
5.5951e-07
5.56211e-07
5.52823e-07
5.49281e-07
5.45413e-07
5.40993e-07
5.35933e-07
5.30514e-07
4.13504e-07
4.15416e-07
4.20042e-07
4.28079e-07
4.42548e-07
4.4081e-07
4.47973e-07
4.68089e-07
5.08844e-07
5.01962e-07
5.02309e-07
5.12247e-07
5.18875e-07
5.19552e-07
5.17668e-07
5.15453e-07
5.13161e-07
5.10587e-07
5.07778e-07
5.04832e-07
5.01719e-07
4.98281e-07
4.9433e-07
4.89705e-07
4.84643e-07
3.65911e-07
3.67634e-07
3.70976e-07
3.78649e-07
3.8942e-07
3.86178e-07
3.9443e-07
4.07444e-07
4.49235e-07
4.4986e-07
4.53251e-07
4.62481e-07
4.69534e-07
4.71289e-07
4.70185e-07
4.68648e-07
4.67181e-07
4.65448e-07
4.63301e-07
4.60833e-07
4.58082e-07
4.54975e-07
4.5132e-07
4.46971e-07
4.421e-07
3.20989e-07
3.22313e-07
3.24424e-07
3.31722e-07
3.38613e-07
3.36244e-07
3.44606e-07
3.52477e-07
3.96383e-07
4.0346e-07
4.09366e-07
4.18071e-07
4.25615e-07
4.28396e-07
4.27656e-07
4.25894e-07
4.24273e-07
4.22806e-07
4.21213e-07
4.19313e-07
4.16987e-07
4.14127e-07
4.10504e-07
4.06061e-07
4.00958e-07
2.79297e-07
2.79899e-07
2.80695e-07
2.87076e-07
2.89957e-07
2.9072e-07
2.97363e-07
3.03362e-07
3.50611e-07
3.63186e-07
3.71126e-07
3.7875e-07
3.85845e-07
3.89648e-07
3.90301e-07
3.88959e-07
3.86575e-07
3.83755e-07
3.80913e-07
3.78196e-07
3.75444e-07
3.723e-07
3.68248e-07
3.62865e-07
3.56198e-07
2.41242e-07
2.40865e-07
2.4023e-07
2.44631e-07
2.43316e-07
2.48222e-07
2.50066e-07
2.59271e-07
3.11684e-07
3.28645e-07
3.39684e-07
3.46317e-07
3.49894e-07
3.5042e-07
3.50127e-07
3.50111e-07
3.4974e-07
3.47895e-07
3.44352e-07
3.3966e-07
3.34344e-07
3.28548e-07
3.21998e-07
3.14335e-07
3.05492e-07
2.95616e-07
2.06798e-07
2.05342e-07
2.03247e-07
2.04577e-07
1.994e-07
2.07457e-07
2.00541e-07
2.20758e-07
2.7965e-07
2.96579e-07
3.117e-07
3.19844e-07
3.20816e-07
3.15245e-07
3.06768e-07
2.99602e-07
2.95734e-07
2.94354e-07
2.93349e-07
2.91035e-07
2.86621e-07
2.79952e-07
2.71041e-07
2.60309e-07
2.48462e-07
2.36254e-07
1.7606e-07
1.73071e-07
1.68814e-07
1.66177e-07
1.58866e-07
1.6885e-07
1.53243e-07
1.97276e-07
2.57454e-07
2.68273e-07
2.84127e-07
2.89804e-07
2.91522e-07
2.90479e-07
2.82115e-07
2.66515e-07
2.49603e-07
2.37409e-07
2.32523e-07
2.3416e-07
2.39765e-07
2.46395e-07
2.50383e-07
2.48323e-07
2.40525e-07
2.30593e-07
1.51232e-07
1.45391e-07
1.36431e-07
1.27525e-07
1.191e-07
1.31016e-07
1.19221e-07
1.99446e-07
2.47583e-07
2.66548e-07
3.05155e-07
3.15109e-07
3.03414e-07
2.84168e-07
2.71521e-07
2.73868e-07
2.86044e-07
2.9736e-07
3.02687e-07
3.03071e-07
3.01259e-07
3.00151e-07
3.04192e-07
3.1884e-07
3.44232e-07
3.74631e-07
1.36146e-07
1.26702e-07
1.10552e-07
9.08155e-08
7.59516e-08
8.66803e-08
9.7893e-08
2.02091e-07
2.20774e-07
2.57817e-07
3.29182e-07
3.90548e-07
4.52462e-07
5.15986e-07
5.73973e-07
6.21884e-07
6.58506e-07
6.88337e-07
7.17317e-07
7.48988e-07
7.84363e-07
8.2272e-07
8.62168e-07
8.97916e-07
9.25075e-07
9.46174e-07
1.29202e-07
1.18011e-07
9.72005e-08
6.70882e-08
3.56604e-08
4.27147e-08
8.74802e-08
1.52612e-07
2.20652e-07
4.82911e-07
7.3738e-07
9.66079e-07
1.1476e-06
1.27874e-06
1.36597e-06
1.42418e-06
1.46865e-06
1.51051e-06
1.55349e-06
1.59693e-06
1.63866e-06
1.67833e-06
1.71756e-06
1.76211e-06
1.80758e-06
1.84611e-06
)
;

boundaryField
{
    inlet
    {
        type            calculated;
        value           nonuniform List<scalar> 
26
(
1.30095e-07
1.19105e-07
9.81431e-08
6.65936e-08
3.06929e-08
4.38122e-08
1.03855e-07
1.11285e-07
4.98192e-07
1.02032e-06
1.613e-06
2.20419e-06
2.74242e-06
3.2058e-06
3.58408e-06
3.88657e-06
4.1288e-06
4.32736e-06
4.49775e-06
4.65259e-06
4.80148e-06
4.95468e-06
5.12429e-06
5.31938e-06
5.52678e-06
5.72489e-06
)
;
    }
    outlet
    {
        type            calculated;
        value           nonuniform List<scalar> 0();
    }
    walls
    {
        type            calculated;
        value           nonuniform List<scalar> 0();
    }
    frontAndBack
    {
        type            empty;
    }
    procBoundary0to1
    {
        type            processor;
        value           nonuniform List<scalar> 
94
(
0.000659569
0.00054063
0.00054063
0.000445621
0.000445621
0.00036992
0.00036992
0.000308678
0.000308678
0.000259196
0.000259196
0.000219053
0.000192371
0.000192371
0.000164346
0.000145227
0.000145227
0.00012517
0.000111104
9.86958e-05
9.86958e-05
8.58338e-05
7.6457e-05
7.6457e-05
6.67646e-05
5.95835e-05
5.31852e-05
5.31852e-05
4.66192e-05
4.16626e-05
3.72373e-05
3.72373e-05
3.27107e-05
2.92631e-05
2.92631e-05
2.57231e-05
2.30334e-05
2.06308e-05
2.06308e-05
1.81589e-05
1.62862e-05
1.46144e-05
1.46144e-05
1.28874e-05
1.15869e-05
1.04263e-05
1.04263e-05
9.22102e-06
8.3191e-06
7.51283e-06
7.51283e-06
6.67159e-06
6.04356e-06
5.48046e-06
5.48046e-06
4.89071e-06
4.44933e-06
4.05141e-06
3.69216e-06
3.69216e-06
3.3196e-06
3.03313e-06
2.77189e-06
2.53269e-06
2.53269e-06
2.28672e-06
2.08788e-06
1.90372e-06
1.73376e-06
1.57797e-06
1.57797e-06
1.42491e-06
1.29785e-06
1.18086e-06
1.07147e-06
9.68111e-07
8.7069e-07
8.7069e-07
7.73521e-07
6.92315e-07
6.25819e-07
5.72818e-07
5.25066e-07
4.79435e-07
4.36924e-07
3.95458e-07
3.48736e-07
3.48736e-07
2.84849e-07
2.24218e-07
2.21441e-07
4.05414e-07
9.6495e-07
1.87671e-06
)
;
    }
    procBoundary0to4
    {
        type            processor;
        value           nonuniform List<scalar> 
72
(
0.000597535
0.000507796
0.000434437
0.000373709
0.000323032
0.000280402
0.000244307
0.000213559
0.00018722
0.000164548
0.000144952
0.000127954
0.000113152
0.000100227
8.89089e-05
7.8972e-05
7.02289e-05
6.25196e-05
5.57091e-05
4.96836e-05
4.43439e-05
3.96049e-05
3.47736e-05
3.47736e-05
3.10898e-05
2.78101e-05
2.48874e-05
2.22805e-05
1.99533e-05
1.78741e-05
1.60153e-05
1.43527e-05
1.28646e-05
1.15318e-05
1.03378e-05
9.26751e-06
8.30776e-06
7.44678e-06
6.67416e-06
5.98061e-06
5.35786e-06
4.79854e-06
4.29607e-06
3.84458e-06
3.43882e-06
3.07411e-06
2.74625e-06
2.45148e-06
2.18644e-06
1.94814e-06
1.73388e-06
1.54123e-06
1.36805e-06
1.21237e-06
1.07249e-06
9.46932e-07
8.34302e-07
7.33474e-07
6.44781e-07
5.73576e-07
5.17255e-07
4.65668e-07
4.15288e-07
3.67412e-07
3.22295e-07
2.80532e-07
2.42545e-07
2.08314e-07
1.78032e-07
1.54005e-07
1.39771e-07
1.33189e-07
)
;
    }
    procBoundary0to5
    {
        type            processor;
        value           nonuniform List<scalar> 4(0.000702359 0.000694772 0.000685989 0.000674641);
    }
}


// ************************************************************************* //
