/*--------------------------------*- C++ -*----------------------------------*\
| =========                 |                                                 |
| \\      /  F ield         | OpenFOAM: The Open Source CFD Toolbox           |
|  \\    /   O peration     | Version:  2306                                  |
|   \\  /    A nd           | Website:  www.openfoam.com                      |
|    \\/     M anipulation  |                                                 |
\*---------------------------------------------------------------------------*/
FoamFile
{
    version     2.0;
    format      ascii;
    arch        "LSB;label=32;scalar=64";
    class       volVectorField;
    location    "375";
    object      momentError;
}
// * * * * * * * * * * * * * * * * * * * * * * * * * * * * * * * * * * * * * //

dimensions      [0 1 -2 0 0 0 0];

internalField   nonuniform List<vector> 
1340
(
(8.63543e-06 0.000756151 -2.94629e-15)
(-3.13229e-05 0.000718913 -2.40512e-14)
(-6.91653e-05 0.000657283 1.50618e-14)
(-0.000103841 0.000564486 4.42746e-14)
(-0.000132101 0.000493321 1.44975e-14)
(7.72269e-06 0.000662894 -6.00332e-15)
(-2.59452e-05 0.000630022 9.69779e-15)
(-5.82038e-05 0.000578364 2.38079e-14)
(-8.87303e-05 0.000499194 -3.81649e-14)
(-0.000117084 0.000438236 -2.82783e-14)
(-0.000134568 0.000371943 -1.81807e-14)
(8.23978e-06 0.000583906 2.60354e-15)
(-2.154e-05 0.000555202 5.17365e-15)
(-4.98507e-05 0.000510299 -1.37212e-14)
(-7.77805e-05 0.000442362 1.79635e-14)
(-0.000102352 0.000390025 3.21906e-14)
(-0.000120504 0.000336526 1.62797e-15)
(-0.000138859 0.000312501 1.13897e-14)
(8.98548e-06 0.000515923 -1.68982e-15)
(-1.79184e-05 0.000490121 -7.01584e-15)
(-4.33331e-05 0.000450919 3.88152e-15)
(-6.83122e-05 0.000392711 1.96333e-16)
(-9.04047e-05 0.000347417 -2.05689e-14)
(-0.00010774 0.00030733 1.6472e-14)
(-0.000127612 0.000289814 -4.47623e-14)
(-0.000151222 0.000280499 6.26821e-15)
(9.04165e-06 0.000456528 -1.88596e-15)
(-1.51966e-05 0.00043349 4.62985e-15)
(-3.7911e-05 0.000399234 4.25682e-15)
(-6.02148e-05 0.000349157 -1.87499e-14)
(-8.01352e-05 0.000309861 -5.85229e-14)
(-9.68509e-05 0.000279725 3.66018e-14)
(-0.000116421 0.00026707 -7.66481e-14)
(-0.000138876 0.000258185 2.5895e-14)
(-0.000157584 0.000245004 1.37784e-13)
(9.08703e-06 0.000404478 8.91976e-16)
(-1.29277e-05 0.000383865 3.92502e-16)
(-3.32603e-05 0.000353806 -1.03353e-14)
(-5.32163e-05 0.000310706 -7.62025e-15)
(-7.11801e-05 0.000276476 3.01474e-15)
(-8.72299e-05 0.000254129 1.70371e-14)
(-0.000106271 0.00024531 9.70705e-16)
(-0.000126499 0.000237164 -7.22266e-14)
(-0.000144372 0.000225296 6.96888e-14)
(-0.000158873 0.000211479 2.73524e-14)
(8.89426e-06 0.000358525 1.09051e-15)
(-1.09695e-05 0.000340144 -4.00261e-15)
(-2.92416e-05 0.000313924 1.48907e-15)
(-4.71261e-05 0.000276703 1.98391e-14)
(-6.34513e-05 0.00024705 4.59634e-14)
(-7.86406e-05 0.000230712 -7.60327e-14)
(-9.68821e-05 0.000224662 6.16777e-14)
(-0.000115468 0.000217236 -3.67909e-14)
(-0.000131897 0.000206836 -6.93629e-14)
(-0.000145744 0.000194506 8.47614e-15)
(8.64139e-06 0.000318066 -1.8321e-15)
(-9.30202e-06 0.000301654 -1.54203e-16)
(-2.57496e-05 0.000278672 1.43601e-16)
(-4.19233e-05 0.000246606 1.59692e-14)
(-5.67018e-05 0.000220713 1.12715e-15)
(-7.08071e-05 0.000208621 3.17713e-14)
(-8.82594e-05 0.000205173 -1.61858e-14)
(-0.000105381 0.000198379 -4.82391e-14)
(-0.000120746 0.000189102 -3.13534e-14)
(-0.000133537 0.000177897 -6.74603e-14)
(-0.000144258 0.000164698 -1.83897e-14)
(8.29909e-06 0.000282161 -2.13536e-17)
(-7.8855e-06 0.000267583 -6.79613e-15)
(-2.27645e-05 0.000247504 2.95972e-15)
(-3.74494e-05 0.000219768 9.02553e-15)
(-5.08893e-05 0.000198214 -1.16837e-14)
(-6.40958e-05 0.000189088 -1.19102e-14)
(-8.04543e-05 0.0001869 -1.99068e-14)
(-9.62162e-05 0.00018062 -1.52707e-14)
(-0.000110507 0.00017232 3.16777e-14)
(-0.000122507 0.000162218 8.43418e-14)
(-0.000132598 0.000150796 -4.37668e-14)
(7.90437e-06 0.000250457 -8.35022e-16)
(-6.7058e-06 0.000237495 6.40673e-16)
(-2.01598e-05 0.000219902 -4.7368e-16)
(-3.35067e-05 0.000195975 -1.32261e-14)
(-4.58561e-05 0.000178764 9.08449e-15)
(-5.83487e-05 0.000171921 -6.57047e-15)
(-7.33476e-05 0.000169818 -1.35723e-15)
(-8.79244e-05 0.000164096 7.30509e-14)
(-0.000101162 0.000156608 7.48725e-15)
(-0.000112366 0.000147487 5.97144e-14)
(-0.000121631 0.000137249 6.86912e-14)
(-0.000130186 0.00012706 -3.41274e-14)
(7.45769e-06 0.000222374 1.35946e-16)
(-5.71904e-06 0.000210904 -5.88244e-15)
(-1.78918e-05 0.000195537 -8.24494e-15)
(-3.00083e-05 0.000174794 -9.69123e-15)
(-4.14015e-05 0.000161176 1.21007e-14)
(-5.31532e-05 0.000156075 5.11903e-14)
(-6.69008e-05 0.000154013 -4.15829e-15)
(-8.03255e-05 0.000148773 2.46247e-14)
(-9.26073e-05 0.000141972 -1.82145e-15)
(-0.000103009 0.000133828 -7.13093e-14)
(-0.000111608 0.000124488 -3.71783e-14)
(-0.000119651 0.000115701 5.53493e-14)
(6.99178e-06 0.000197645 -2.93568e-18)
(-4.92661e-06 0.000187455 2.65649e-15)
(-1.59326e-05 0.000173959 8.61414e-15)
(-2.69418e-05 0.00015602 3.30166e-15)
(-3.74084e-05 0.000145174 1.10845e-15)
(-4.84449e-05 0.000141516 -6.98713e-15)
(-6.10314e-05 0.000139507 7.8778e-14)
(-7.34018e-05 0.000134715 -2.69623e-16)
(-8.47789e-05 0.000128582 -9.57918e-14)
(-9.43349e-05 0.000121213 -2.17966e-14)
(-0.000102378 0.000112773 1.28179e-14)
(-0.000110128 0.000105262 1.59155e-14)
(6.49824e-06 0.000175736 6.75387e-16)
(-4.3135e-06 0.0001667 5.4048e-15)
(-1.4266e-05 0.000154883 -3.12698e-15)
(-2.42363e-05 0.000139303 2.60641e-14)
(-3.3866e-05 0.000130768 2.40105e-14)
(-4.41414e-05 0.000128133 -3.57903e-16)
(-5.56901e-05 0.000126225 2.1358e-14)
(-6.70552e-05 0.000121827 -3.76688e-14)
(-7.75548e-05 0.00011629 -2.42399e-14)
(-8.6405e-05 0.000109672 -7.96644e-14)
(-9.37347e-05 0.000102074 5.24292e-14)
(-0.000101166 9.55011e-05 8.19222e-14)
(-0.000107191 8.94716e-05 -1.46924e-14)
(5.93582e-06 0.000156409 7.43474e-16)
(-3.82477e-06 0.000148362 1.95186e-16)
(-1.28162e-05 0.000138018 -8.64707e-15)
(-2.18572e-05 0.000124485 4.01749e-15)
(-3.06746e-05 0.000117694 -4.69713e-15)
(-4.02605e-05 0.000115936 -4.99211e-15)
(-5.0803e-05 0.000114106 -6.91305e-14)
(-6.12856e-05 0.000110111 4.70088e-14)
(-7.09633e-05 0.000105108 1.99787e-14)
(-7.91022e-05 9.90953e-05 1.4036e-14)
(-8.59206e-05 9.23229e-05 -5.60436e-14)
(-9.27422e-05 8.66554e-05 1.66217e-15)
(-9.90602e-05 8.15374e-05 -3.75741e-14)
(5.42057e-06 0.000139245 6.51532e-16)
(-3.42177e-06 0.000132155 -2.03542e-15)
(-1.15357e-05 0.000123042 4.32482e-15)
(-1.97295e-05 0.000111275 -1.13355e-14)
(-2.78298e-05 0.000105934 -3.33732e-14)
(-3.67075e-05 0.000104815 1.79017e-16)
(-4.63537e-05 0.000103089 -1.03301e-15)
(-5.5976e-05 9.94247e-05 -8.29338e-15)
(-6.49289e-05 9.49174e-05 4.82685e-14)
(-7.24731e-05 8.95146e-05 -1.92334e-14)
(-7.87726e-05 8.3421e-05 -5.63803e-15)
(-8.51981e-05 7.8443e-05 -6.53724e-15)
(-9.11518e-05 7.41855e-05 1.03534e-14)
(-9.53828e-05 6.93965e-05 -2.14128e-14)
(4.94349e-06 0.000124107 -1.48564e-15)
(-3.0741e-06 0.000117756 -9.95923e-16)
(-1.04242e-05 0.000109766 9.86349e-15)
(-1.78336e-05 9.95405e-05 -1.18474e-14)
(-2.52496e-05 9.53634e-05 5.62811e-15)
(-3.34626e-05 9.47079e-05 -1.95359e-14)
(-4.22714e-05 9.30715e-05 -8.86724e-16)
(-5.11436e-05 8.97663e-05 -2.06359e-14)
(-5.94207e-05 8.56767e-05 2.14845e-14)
(-6.6385e-05 8.07562e-05 -2.1753e-14)
(-7.22629e-05 7.52865e-05 3.30868e-15)
(-7.83344e-05 7.09333e-05 2.67125e-15)
(-8.39739e-05 6.72763e-05 3.21685e-14)
(-8.82482e-05 6.32458e-05 1.184e-14)
(4.58564e-06 0.000110635 3.20042e-18)
(-2.90123e-06 0.000104982 8.88268e-16)
(-9.53236e-06 9.79373e-05 1.49098e-15)
(-1.62065e-05 8.91032e-05 2.17036e-15)
(-2.29445e-05 8.58677e-05 3.04071e-14)
(-3.04918e-05 8.55353e-05 4.25918e-15)
(-3.85618e-05 8.39951e-05 -7.87773e-15)
(-4.66991e-05 8.09648e-05 5.93904e-15)
(-5.43709e-05 7.72591e-05 5.06643e-15)
(-6.08518e-05 7.28104e-05 5.36574e-14)
(-6.63177e-05 6.7874e-05 2.03838e-14)
(-7.20416e-05 6.40358e-05 5.35119e-15)
(-7.74461e-05 6.08389e-05 -5.20653e-14)
(-8.19541e-05 5.77223e-05 1.94323e-14)
(3.9894e-06 9.865e-05 -4.67901e-16)
(-2.80859e-06 9.34454e-05 -2.67639e-15)
(-8.82647e-06 8.74888e-05 -6.0824e-15)
(-1.47674e-05 7.98258e-05 -2.63569e-15)
(-2.0831e-05 7.71984e-05 -1.28187e-14)
(-2.77995e-05 7.7237e-05 -1.37147e-15)
(-3.51611e-05 7.57668e-05 5.60483e-14)
(-4.26649e-05 7.30054e-05 1.36716e-14)
(-4.97407e-05 6.96314e-05 -4.42822e-14)
(-5.57527e-05 6.55764e-05 -9.69054e-15)
(-6.08857e-05 6.11371e-05 2.51635e-15)
(-6.62946e-05 5.77122e-05 2.42051e-14)
(-7.1564e-05 5.49302e-05 -1.49936e-14)
(-7.57977e-05 5.22049e-05 -2.80229e-14)
(-7.92382e-05 4.94048e-05 5.06812e-14)
(3.48122e-06 8.77768e-05 -1.12891e-15)
(-2.63772e-06 8.3423e-05 -9.0099e-16)
(-8.13096e-06 7.82042e-05 -9.09081e-16)
(-1.34486e-05 7.18838e-05 -9.40768e-16)
(-1.89923e-05 6.9766e-05 2.17957e-14)
(-2.53261e-05 6.97194e-05 5.71181e-16)
(-3.20642e-05 6.83356e-05 -4.33181e-15)
(-3.89439e-05 6.57909e-05 9.40462e-15)
(-4.54921e-05 6.2728e-05 3.38289e-14)
(-5.10807e-05 5.9051e-05 -6.37701e-14)
(-5.58697e-05 5.50124e-05 -3.18602e-14)
(-6.09762e-05 5.19124e-05 -4.83824e-15)
(-6.60478e-05 4.94813e-05 3.59981e-14)
(-7.03177e-05 4.69211e-05 -1.8058e-14)
(-7.3504e-05 4.46531e-05 -3.06464e-14)
(3.19932e-06 7.83196e-05 8.47534e-17)
(-2.42324e-06 7.43376e-05 -7.48361e-16)
(-7.29909e-06 7.00025e-05 1.30913e-15)
(-1.21612e-05 6.48031e-05 1.80216e-15)
(-1.7279e-05 6.30311e-05 1.88226e-14)
(-2.30701e-05 6.29345e-05 -1.96806e-14)
(-2.92188e-05 6.16046e-05 -4.71369e-16)
(-3.5551e-05 5.92889e-05 -2.16026e-14)
(-4.15818e-05 5.64893e-05 -1.67599e-14)
(-4.6758e-05 5.31303e-05 4.87657e-14)
(-5.12381e-05 4.94721e-05 -2.77046e-14)
(-5.60787e-05 4.66628e-05 -1.96939e-14)
(-6.08357e-05 4.44109e-05 -1.74453e-14)
(-6.51055e-05 4.21684e-05 3.33001e-14)
(-6.84896e-05 4.00461e-05 2.08319e-14)
(2.70929e-06 6.99901e-05 5.88355e-17)
(-2.05865e-06 6.65106e-05 1.97646e-15)
(-6.44856e-06 6.27374e-05 -6.52097e-15)
(-1.09319e-05 5.83761e-05 6.43424e-16)
(-1.57018e-05 5.6959e-05 -2.99633e-14)
(-2.09976e-05 5.67887e-05 2.12451e-15)
(-2.6638e-05 5.55427e-05 4.3626e-15)
(-3.24336e-05 5.34006e-05 -4.52172e-14)
(-3.80058e-05 5.08463e-05 1.12631e-14)
(-4.27993e-05 4.78053e-05 -3.26369e-15)
(-4.69593e-05 4.4445e-05 2.72069e-14)
(-5.14518e-05 4.18833e-05 1.78671e-15)
(-5.60586e-05 3.987e-05 -2.22545e-14)
(-5.99411e-05 3.79152e-05 -2.44087e-14)
(-6.35595e-05 3.56468e-05 4.3617e-15)
(-6.45521e-05 3.32554e-05 1.88334e-14)
(2.495e-06 6.27569e-05 8.39048e-16)
(-1.81343e-06 5.95978e-05 2.46941e-15)
(-5.76092e-06 5.61894e-05 -2.30106e-16)
(-9.83595e-06 5.2564e-05 5.88936e-16)
(-1.42439e-05 5.14137e-05 2.66556e-15)
(-1.9113e-05 5.12353e-05 -1.57626e-14)
(-2.42632e-05 5.00484e-05 1.26621e-14)
(-2.9601e-05 4.80941e-05 1.80457e-14)
(-3.47213e-05 4.57672e-05 -1.17166e-14)
(-3.91484e-05 4.29761e-05 -8.22141e-15)
(-4.30196e-05 3.99297e-05 3.96663e-15)
(-4.7224e-05 3.76074e-05 3.39791e-14)
(-5.1543e-05 3.58296e-05 4.41726e-14)
(-5.51292e-05 3.38778e-05 1.62146e-15)
(-5.83334e-05 3.20069e-05 -1.31125e-14)
(-6.00748e-05 2.93344e-05 -2.77164e-14)
(-1.63935e-06 5.33851e-05 2.84935e-16)
(-5.19427e-06 5.03826e-05 -5.08299e-16)
(-8.86597e-06 4.72929e-05 1.16297e-14)
(-1.29235e-05 4.63878e-05 8.99023e-15)
(-1.73748e-05 4.61855e-05 8.001e-15)
(-2.21027e-05 4.50976e-05 -6.0278e-15)
(-2.69901e-05 4.32969e-05 4.16231e-14)
(-3.17098e-05 4.11814e-05 -2.36067e-14)
(-3.58014e-05 3.86456e-05 -1.2136e-14)
(-3.93789e-05 3.58596e-05 -4.08793e-14)
(-4.32738e-05 3.37465e-05 -2.24312e-14)
(-4.72822e-05 3.21673e-05 -3.22562e-14)
(-5.07791e-05 3.04021e-05 6.94245e-15)
(-5.3392e-05 2.863e-05 9.86529e-15)
(-5.535e-05 2.63713e-05 9.82796e-15)
(-5.57362e-05 2.44964e-05 -5.91452e-15)
(-1.45246e-06 4.79735e-05 3.17509e-15)
(-4.68065e-06 4.51209e-05 2.14076e-16)
(-8.00183e-06 4.25302e-05 -9.77581e-15)
(-1.17165e-05 4.17951e-05 -8.04314e-15)
(-1.5792e-05 4.16129e-05 4.80377e-15)
(-2.01133e-05 4.05989e-05 1.22905e-14)
(-2.46113e-05 3.89739e-05 -1.01235e-14)
(-2.89477e-05 3.70451e-05 1.79635e-14)
(-3.27188e-05 3.47299e-05 1.8649e-15)
(-3.6044e-05 3.2202e-05 -8.62353e-15)
(-3.96933e-05 3.03143e-05 2.38591e-15)
(-4.33699e-05 2.88963e-05 5.40962e-15)
(-4.64854e-05 2.73583e-05 -1.98462e-14)
(-4.90358e-05 2.56383e-05 9.84138e-16)
(-5.07586e-05 2.39418e-05 1.49875e-15)
(-5.1827e-05 2.22534e-05 2.36625e-15)
(-1.27697e-06 4.29609e-05 -2.40763e-16)
(-4.20488e-06 4.04091e-05 -5.61591e-15)
(-7.21597e-06 3.8196e-05 -3.24197e-15)
(-1.06259e-05 3.76287e-05 2.10674e-14)
(-1.43401e-05 3.7439e-05 -1.72003e-14)
(-1.83087e-05 3.6526e-05 1.30524e-14)
(-2.24222e-05 3.50438e-05 -1.11136e-14)
(-2.64279e-05 3.32958e-05 -1.56633e-14)
(-2.99099e-05 3.11971e-05 1.36463e-14)
(-3.29882e-05 2.88809e-05 2.78261e-14)
(-3.63587e-05 2.71937e-05 -1.96636e-14)
(-3.98347e-05 2.60001e-05 2.23589e-14)
(-4.26406e-05 2.46395e-05 1.55029e-14)
(-4.49112e-05 2.30575e-05 -1.92661e-14)
(-4.67496e-05 2.16655e-05 -8.2549e-15)
(-4.8361e-05 2.0558e-05 3.62586e-15)
(-1.07304e-06 3.84346e-05 -2.06841e-15)
(-3.74984e-06 3.6116e-05 2.9138e-15)
(-6.50039e-06 3.42558e-05 5.04485e-15)
(-9.62147e-06 3.3798e-05 -1.84941e-14)
(-1.30225e-05 3.36357e-05 2.46587e-14)
(-1.66406e-05 3.28028e-05 -3.94692e-15)
(-2.04346e-05 3.14798e-05 3.52615e-16)
(-2.41093e-05 2.98972e-05 -4.61266e-15)
(-2.73244e-05 2.79714e-05 -3.57384e-14)
(-3.02003e-05 2.58862e-05 1.81769e-14)
(-3.3406e-05 2.43913e-05 8.8904e-15)
(-3.65816e-05 2.33567e-05 -5.08816e-14)
(-3.91152e-05 2.19923e-05 8.95081e-15)
(-4.12338e-05 2.07115e-05 1.50696e-14)
(-4.30669e-05 1.95946e-05 -1.12033e-14)
(-4.50509e-05 1.86507e-05 -2.61057e-14)
(-4.65034e-05 1.81059e-05 -9.97139e-15)
(-8.83819e-07 3.43076e-05 2.18061e-15)
(-3.33898e-06 3.22469e-05 1.36839e-15)
(-5.8481e-06 3.06635e-05 -4.75098e-15)
(-8.71339e-06 3.03233e-05 8.68117e-15)
(-1.18093e-05 3.01633e-05 -9.89145e-15)
(-1.51232e-05 2.94283e-05 1.04274e-14)
(-1.85895e-05 2.82267e-05 -2.72044e-14)
(-2.19793e-05 2.68053e-05 -1.61224e-15)
(-2.49569e-05 2.50646e-05 2.61188e-14)
(-2.76269e-05 2.31528e-05 -6.70325e-15)
(-3.06463e-05 2.18096e-05 2.66106e-14)
(-3.36298e-05 2.08041e-05 1.71921e-14)
(-3.60025e-05 1.96058e-05 -7.0243e-15)
(-3.79621e-05 1.83943e-05 3.0888e-14)
(-3.97163e-05 1.74452e-05 1.68981e-14)
(-4.18561e-05 1.67692e-05 4.21438e-15)
(-4.36132e-05 1.63482e-05 -4.17908e-15)
(-7.27619e-07 3.06065e-05 2.48924e-16)
(-2.97154e-06 2.8734e-05 -6.65907e-15)
(-5.26281e-06 2.74196e-05 2.95591e-15)
(-7.88104e-06 2.71461e-05 6.40409e-15)
(-1.07064e-05 2.70126e-05 -7.2508e-15)
(-1.37222e-05 2.63419e-05 -1.05125e-14)
(-1.69085e-05 2.52834e-05 6.2489e-15)
(-2.00149e-05 2.39939e-05 -2.6533e-14)
(-2.27528e-05 2.24e-05 1.82759e-15)
(-2.52546e-05 2.06731e-05 4.47335e-14)
(-2.80932e-05 1.94408e-05 7.83908e-16)
(-3.09206e-05 1.84665e-05 -2.59605e-15)
(-3.30029e-05 1.73135e-05 -1.45207e-14)
(-3.49044e-05 1.62054e-05 -7.6437e-15)
(-3.67554e-05 1.54141e-05 1.39482e-14)
(-3.90091e-05 1.50449e-05 -3.42759e-15)
(-4.11617e-05 1.46476e-05 9.52895e-16)
(-6.02491e-07 2.72476e-05 -3.34947e-17)
(-2.64507e-06 2.56041e-05 3.2614e-15)
(-4.73402e-06 2.44886e-05 2.03077e-15)
(-7.13391e-06 2.4289e-05 -1.20887e-14)
(-9.69849e-06 2.41489e-05 1.69633e-14)
(-1.24572e-05 2.35544e-05 4.97747e-15)
(-1.53538e-05 2.25931e-05 2.36665e-14)
(-1.82171e-05 2.14326e-05 3.75388e-14)
(-2.07365e-05 1.99949e-05 -4.61208e-14)
(-2.3043e-05 1.84043e-05 -4.30415e-14)
(-2.56775e-05 1.7257e-05 2.19211e-15)
(-2.83258e-05 1.63525e-05 4.49136e-15)
(-3.03467e-05 1.52561e-05 -1.17056e-14)
(-3.20456e-05 1.42923e-05 -2.33024e-14)
(-3.39782e-05 1.36647e-05 8.732e-15)
(-3.61925e-05 1.33544e-05 1.01128e-15)
(-3.86708e-05 1.3013e-05 -2.23979e-14)
(-3.97059e-05 1.26967e-05 7.57575e-15)
(-4.88271e-07 2.42731e-05 -6.3119e-16)
(-2.35333e-06 2.28023e-05 4.91374e-15)
(-4.26338e-06 2.18759e-05 -2.37472e-15)
(-6.45317e-06 2.17081e-05 4.42292e-15)
(-8.79418e-06 2.15794e-05 -1.43373e-14)
(-1.12943e-05 2.10279e-05 -1.52002e-14)
(-1.39516e-05 2.01664e-05 1.58022e-14)
(-1.65558e-05 1.91118e-05 1.44524e-14)
(-1.88633e-05 1.77915e-05 1.54797e-14)
(-2.09944e-05 1.63585e-05 -8.84e-15)
(-2.34533e-05 1.53053e-05 -1.10877e-14)
(-2.58916e-05 1.44477e-05 1.52337e-15)
(-2.77392e-05 1.34175e-05 5.54258e-15)
(-2.94436e-05 1.25824e-05 -1.08241e-14)
(-3.1326e-05 1.20524e-05 -2.2528e-15)
(-3.36067e-05 1.17411e-05 1.46253e-14)
(-3.61317e-05 1.15933e-05 -4.18877e-15)
(-3.73534e-05 1.11048e-05 -8.16828e-15)
(-3.95062e-07 2.16176e-05 1.13265e-16)
(-2.10594e-06 2.03336e-05 -2.09691e-15)
(-3.84313e-06 1.95452e-05 4.84224e-15)
(-5.84647e-06 1.94212e-05 8.48588e-15)
(-7.96862e-06 1.9276e-05 2.01258e-15)
(-1.02474e-05 1.8775e-05 -2.19814e-14)
(-1.26567e-05 1.79775e-05 -2.80505e-14)
(-1.50403e-05 1.70217e-05 6.22136e-15)
(-1.71501e-05 1.58257e-05 3.6519e-15)
(-1.90894e-05 1.45069e-05 2.9285e-14)
(-2.13319e-05 1.35373e-05 1.38443e-14)
(-2.36097e-05 1.27579e-05 5.02877e-15)
(-2.53776e-05 1.18499e-05 2.00247e-14)
(-2.69229e-05 1.10663e-05 1.63942e-15)
(-2.87683e-05 1.06181e-05 -1.3906e-14)
(-3.1079e-05 1.03362e-05 -5.2406e-15)
(-3.36476e-05 1.0227e-05 -2.65843e-15)
(-3.53003e-05 9.89835e-06 1.87002e-14)
(-3.35429e-07 1.92964e-05 2.6939e-15)
(-1.89609e-06 1.81404e-05 -3.70216e-15)
(-3.47418e-06 1.7492e-05 -2.52782e-15)
(-5.29649e-06 1.73824e-05 -2.37242e-15)
(-7.22963e-06 1.72432e-05 7.06148e-16)
(-9.29241e-06 1.676e-05 2.09428e-14)
(-1.14912e-05 1.60347e-05 1.89335e-14)
(-1.36519e-05 1.51498e-05 -2.60884e-15)
(-1.55675e-05 1.40481e-05 4.81809e-15)
(-1.73432e-05 1.28592e-05 -1.45574e-14)
(-1.94063e-05 1.19852e-05 -2.06314e-14)
(-2.14737e-05 1.12801e-05 -9.09065e-15)
(-2.30733e-05 1.04521e-05 1.1581e-15)
(-2.46108e-05 9.80072e-06 4.91156e-15)
(-2.63047e-05 9.40923e-06 -8.40176e-15)
(-2.85967e-05 9.20017e-06 1.08763e-14)
(-3.12655e-05 9.18367e-06 -6.271e-15)
(-3.31329e-05 8.81637e-06 -1.23481e-14)
(-3.35414e-05 8.31297e-06 1.63813e-14)
(-3.01178e-07 1.72286e-05 -2.49822e-16)
(-1.71554e-06 1.62235e-05 3.0536e-15)
(-3.14414e-06 1.56699e-05 -3.69434e-15)
(-4.8086e-06 1.55908e-05 1.95808e-15)
(-6.55983e-06 1.54342e-05 -1.02801e-14)
(-8.44405e-06 1.49844e-05 -8.7528e-15)
(-1.04298e-05 1.42994e-05 2.61863e-15)
(-1.24033e-05 1.34813e-05 1.06938e-14)
(-1.41417e-05 1.24776e-05 3.53041e-15)
(-1.57446e-05 1.13821e-05 2.31353e-15)
(-1.76077e-05 1.05936e-05 -1.85842e-14)
(-1.95215e-05 9.98438e-06 -7.37749e-15)
(-2.10348e-05 9.2929e-06 6.2035e-15)
(-2.2397e-05 8.70513e-06 -2.57355e-15)
(-2.40376e-05 8.38805e-06 1.55402e-14)
(-2.62587e-05 8.24595e-06 1.21792e-14)
(-2.8808e-05 8.14575e-06 8.45882e-15)
(-3.08716e-05 7.87007e-06 -9.92138e-15)
(-3.15112e-05 7.24233e-06 -1.41093e-14)
(-2.70639e-07 1.54197e-05 -5.1747e-16)
(-1.55318e-06 1.45173e-05 6.28168e-16)
(-2.85073e-06 1.40598e-05 6.25374e-15)
(-4.36424e-06 1.39918e-05 5.75102e-15)
(-5.9653e-06 1.38433e-05 -4.51406e-15)
(-7.67034e-06 1.34077e-05 -3.1947e-15)
(-9.48751e-06 1.27708e-05 -1.12814e-14)
(-1.12677e-05 1.20054e-05 3.88062e-15)
(-1.28441e-05 1.10695e-05 -7.89357e-15)
(-1.43047e-05 1.00833e-05 1.47563e-14)
(-1.60173e-05 9.37945e-06 1.39167e-14)
(-1.77465e-05 8.84358e-06 5.74006e-15)
(-1.91045e-05 8.22443e-06 5.35419e-15)
(-2.04311e-05 7.74594e-06 1.23527e-14)
(-2.18842e-05 7.4543e-06 -4.94845e-15)
(-2.39217e-05 7.31849e-06 -2.24578e-14)
(-2.65053e-05 7.20678e-06 -5.41297e-15)
(-2.85373e-05 6.91608e-06 1.99141e-14)
(-2.94705e-05 6.27622e-06 2.14035e-15)
(-2.4478e-07 1.37948e-05 1.08897e-16)
(-1.41123e-06 1.30033e-05 -1.19499e-15)
(-2.58524e-06 1.261e-05 2.2653e-15)
(-3.9662e-06 1.25714e-05 -2.99455e-15)
(-5.41941e-06 1.24194e-05 4.38369e-15)
(-6.97815e-06 1.20183e-05 1.24082e-14)
(-8.62362e-06 1.14146e-05 -5.04599e-15)
(-1.0249e-05 1.07044e-05 -1.3248e-14)
(-1.16807e-05 9.84425e-06 -1.75167e-14)
(-1.30005e-05 8.92996e-06 4.15473e-16)
(-1.45503e-05 8.28937e-06 -4.20707e-15)
(-1.61596e-05 7.81948e-06 -4.66794e-16)
(-1.74403e-05 7.29041e-06 1.02194e-14)
(-1.85877e-05 6.8309e-06 -1.46551e-14)
(-1.99614e-05 6.57992e-06 -4.35862e-15)
(-2.17677e-05 6.45946e-06 7.96624e-15)
(-2.40911e-05 6.35247e-06 -1.03957e-14)
(-2.61989e-05 6.14114e-06 4.4525e-15)
(-2.72723e-05 5.41101e-06 5.77895e-15)
(-2.69948e-05 4.53462e-06 -1.27443e-14)
(-2.28352e-07 1.23535e-05 -6.24283e-17)
(-1.28243e-06 1.16286e-05 1.42649e-15)
(-2.3473e-06 1.131e-05 -5.21795e-15)
(-3.60146e-06 1.12837e-05 -4.89445e-15)
(-4.92908e-06 1.11532e-05 -1.4222e-15)
(-6.34446e-06 1.07724e-05 1.32247e-14)
(-7.85121e-06 1.02202e-05 -6.0708e-15)
(-9.3234e-06 9.55494e-06 -1.03095e-14)
(-1.06223e-05 8.75147e-06 1.44266e-14)
(-1.18326e-05 7.92038e-06 -6.30211e-15)
(-1.32629e-05 7.33613e-06 1.15716e-14)
(-1.47211e-05 6.89988e-06 -9.46963e-15)
(-1.58667e-05 6.39381e-06 -1.07948e-15)
(-1.69728e-05 5.99566e-06 1.35081e-14)
(-1.81576e-05 5.74876e-06 -2.0468e-14)
(-1.97992e-05 5.6386e-06 -4.35555e-15)
(-2.20468e-05 5.61349e-06 2.1782e-14)
(-2.38284e-05 5.32473e-06 -9.28217e-16)
(-2.49696e-05 4.76321e-06 -2.84564e-15)
(-2.49655e-05 3.85761e-06 2.41834e-15)
(-2.14422e-07 1.10299e-05 5.03779e-16)
(-1.16215e-06 1.03982e-05 -1.88017e-15)
(-2.12784e-06 1.01233e-05 -2.59336e-15)
(-3.2728e-06 1.01206e-05 8.59417e-15)
(-4.47734e-06 9.99614e-06 -8.5534e-15)
(-5.77655e-06 9.65605e-06 -1.10324e-14)
(-7.14191e-06 9.14275e-06 1.5685e-14)
(-8.49395e-06 8.52897e-06 -5.71055e-15)
(-9.67745e-06 7.79355e-06 -6.03305e-15)
(-1.07753e-05 7.01579e-06 -8.22006e-16)
(-1.20738e-05 6.47058e-06 -3.45237e-15)
(-1.34323e-05 6.06775e-06 1.98983e-14)
(-1.45122e-05 5.61193e-06 9.57884e-16)
(-1.54568e-05 5.20628e-06 -5.43236e-15)
(-1.65735e-05 4.99057e-06 3.23256e-15)
(-1.80078e-05 4.90066e-06 -5.81752e-15)
(-1.98939e-05 4.86274e-06 1.82512e-15)
(-2.1789e-05 4.68326e-06 1.22532e-14)
(-2.2828e-05 4.18277e-06 -4.06356e-15)
(-2.31901e-05 3.53794e-06 -2.07008e-15)
(-1.89779e-07 9.84161e-06 -2.30843e-16)
(-1.04548e-06 9.27021e-06 1.5178e-16)
(-1.92652e-06 9.04246e-06 1.23758e-15)
(-2.96759e-06 9.0482e-06 -6.44821e-15)
(-4.07105e-06 8.94586e-06 1.79117e-15)
(-5.24939e-06 8.63416e-06 -1.631e-14)
(-6.50643e-06 8.17272e-06 8.49034e-15)
(-7.73261e-06 7.60891e-06 2.45724e-14)
(-8.81474e-06 6.92392e-06 -2.09939e-14)
(-9.8251e-06 6.21699e-06 -1.93366e-14)
(-1.10276e-05 5.71016e-06 -9.66515e-15)
(-1.22572e-05 5.32058e-06 -1.3855e-15)
(-1.32193e-05 4.86674e-06 5.62543e-15)
(-1.41378e-05 4.50853e-06 4.09349e-15)
(-1.50999e-05 4.29684e-06 2.22671e-15)
(-1.64271e-05 4.23118e-06 -1.57194e-14)
(-1.82049e-05 4.2823e-06 -1.67392e-14)
(-1.9695e-05 4.15188e-06 7.46533e-15)
(-2.09602e-05 3.8871e-06 4.9424e-15)
(-2.14877e-05 3.37838e-06 -6.91613e-15)
(-2.10317e-05 2.494e-06 4.77814e-15)
(-1.59654e-07 8.75117e-06 1.18108e-16)
(-9.37929e-07 8.25832e-06 3.31685e-16)
(-1.74075e-06 8.05547e-06 1.75231e-15)
(-2.69142e-06 8.07346e-06 1.24684e-15)
(-3.69211e-06 7.97758e-06 1.04665e-14)
(-4.77065e-06 7.70633e-06 1.9284e-14)
(-5.91153e-06 7.28483e-06 -2.164e-14)
(-7.03941e-06 6.77597e-06 1.19129e-14)
(-8.0314e-06 6.15349e-06 1.04359e-14)
(-8.95347e-06 5.49278e-06 7.57894e-15)
(-1.00476e-05 5.01357e-06 -2.14497e-15)
(-1.11958e-05 4.64342e-06 8.36412e-15)
(-1.21087e-05 4.22753e-06 8.3184e-16)
(-1.28971e-05 3.85999e-06 -3.51231e-15)
(-1.38286e-05 3.68062e-06 5.70751e-15)
(-1.50227e-05 3.646e-06 -1.32496e-15)
(-1.65823e-05 3.69929e-06 9.43191e-16)
(-1.82559e-05 3.74455e-06 -5.17354e-15)
(-1.92897e-05 3.56163e-06 -5.3363e-15)
(-1.96017e-05 3.01004e-06 8.53049e-15)
(-1.91589e-05 2.11761e-06 -3.64021e-15)
(-1.33354e-07 7.78035e-06 4.32089e-16)
(-8.40144e-07 7.34122e-06 -1.86164e-15)
(-1.57389e-06 7.17262e-06 -1.27221e-15)
(-2.43632e-06 7.18071e-06 2.29788e-15)
(-3.34825e-06 7.10104e-06 -6.83125e-15)
(-4.32453e-06 6.85234e-06 4.91199e-15)
(-5.37106e-06 6.4807e-06 -8.1855e-15)
(-6.39603e-06 6.01623e-06 -1.68178e-14)
(-7.30413e-06 5.44263e-06 -2.27153e-15)
(-8.15757e-06 4.8424e-06 9.25943e-15)
(-9.17398e-06 4.3945e-06 9.62977e-15)
(-1.02147e-05 4.03181e-06 3.5026e-15)
(-1.10338e-05 3.61434e-06 2.88564e-15)
(-1.18224e-05 3.28778e-06 -1.50706e-15)
(-1.26489e-05 3.10999e-06 5.87924e-15)
(-1.37959e-05 3.08943e-06 -2.44136e-15)
(-1.5335e-05 3.21723e-06 3.82029e-15)
(-1.6697e-05 3.25905e-06 7.06623e-15)
(-1.77769e-05 3.0911e-06 -1.715e-15)
(-1.79878e-05 2.50608e-06 7.80569e-15)
(-1.74238e-05 1.64178e-06 -1.23687e-15)
(-1.11562e-07 6.89981e-06 2.39255e-16)
(-7.50411e-07 6.53334e-06 -3.92899e-16)
(-1.42052e-06 6.37917e-06 5.28059e-16)
(-2.20764e-06 6.38436e-06 -1.92372e-15)
(-3.03107e-06 6.30177e-06 -5.0991e-15)
(-3.92308e-06 6.08035e-06 -1.64757e-14)
(-4.8666e-06 5.7393e-06 1.80047e-14)
(-5.81016e-06 5.31874e-06 -1.04011e-14)
(-6.64068e-06 4.80059e-06 -2.87724e-16)
(-7.4187e-06 4.23885e-06 8.24721e-15)
(-8.34207e-06 3.81514e-06 -1.71303e-14)
(-9.31569e-06 3.469e-06 -1.18996e-14)
(-1.01008e-05 3.08263e-06 -3.19274e-15)
(-1.07922e-05 2.74107e-06 3.1539e-15)
(-1.16213e-05 2.57852e-06 4.88521e-15)
(-1.27038e-05 2.57248e-06 -3.19471e-15)
(-1.41184e-05 2.66678e-06 -1.88549e-15)
(-1.55617e-05 2.74383e-06 7.03316e-15)
(-1.62647e-05 2.40983e-06 -4.96868e-16)
(-1.63067e-05 1.70088e-06 5.65471e-15)
(-1.59679e-05 9.21133e-07 -1.14184e-15)
(-8.69153e-08 6.13113e-06 2.77736e-16)
(-6.66607e-07 5.8116e-06 -5.2921e-16)
(-1.28116e-06 5.6804e-06 5.32651e-16)
(-1.99616e-06 5.67094e-06 -4.14482e-16)
(-2.74762e-06 5.59144e-06 6.04869e-15)
(-3.54991e-06 5.38009e-06 7.74136e-15)
(-4.41403e-06 5.07025e-06 -2.55384e-15)
(-5.26412e-06 4.68336e-06 1.79294e-15)
(-6.02279e-06 4.20162e-06 -2.56677e-15)
(-6.73793e-06 3.69214e-06 -8.24208e-15)
(-7.59151e-06 3.29429e-06 9.11412e-15)
(-8.46906e-06 2.95326e-06 -5.00656e-20)
(-9.17316e-06 2.56064e-06 -5.35162e-16)
(-9.87298e-06 2.25028e-06 -5.15563e-16)
(-1.06312e-05 2.0733e-06 -7.97658e-15)
(-1.16885e-05 2.04087e-06 3.26198e-15)
(-1.30771e-05 2.11173e-06 -4.21914e-15)
(-1.41044e-05 1.92475e-06 1.08774e-16)
(-1.47215e-05 1.37488e-06 6.65441e-15)
(-1.47947e-05 7.90493e-07 -6.05887e-15)
(-1.45324e-05 8.91181e-08 -1.96564e-15)
(-1.38675e-05 -5.77187e-07 -2.90717e-15)
(-6.58608e-08 5.448e-06 -3.02466e-16)
(-5.96303e-07 5.18295e-06 -5.03076e-17)
(-1.15536e-06 5.06266e-06 -1.5212e-15)
(-1.80753e-06 5.04832e-06 -3.53877e-15)
(-2.48553e-06 4.9599e-06 -5.14822e-16)
(-3.21501e-06 4.76252e-06 -4.96171e-15)
(-3.99072e-06 4.46738e-06 -7.5124e-15)
(-4.76648e-06 4.11034e-06 3.51562e-15)
(-5.45512e-06 3.66863e-06 2.3841e-15)
(-6.10027e-06 3.18831e-06 3.84727e-15)
(-6.86577e-06 2.80781e-06 -6.43227e-15)
(-7.678e-06 2.47981e-06 8.48387e-15)
(-8.35003e-06 2.11658e-06 -7.26367e-15)
(-8.95794e-06 1.78836e-06 -4.30055e-15)
(-9.70528e-06 1.61129e-06 1.28461e-14)
(-1.06723e-05 1.5556e-06 -3.40432e-15)
(-1.17569e-05 1.40172e-06 2.13665e-15)
(-1.26195e-05 1.02619e-06 -1.82917e-15)
(-1.31724e-05 6.08337e-07 -6.10023e-16)
(-1.34562e-05 1.18092e-07 3.38139e-15)
(-1.33866e-05 -3.33783e-07 3.66581e-15)
(-1.28825e-05 -8.0549e-07 -2.88559e-15)
(-5.38903e-08 4.85934e-06 -6.47684e-16)
(-5.3445e-07 4.624e-06 5.87051e-16)
(-1.04249e-06 4.52567e-06 5.47184e-17)
(-1.63359e-06 4.50012e-06 2.45972e-15)
(-2.25069e-06 4.41215e-06 -1.66374e-15)
(-2.90598e-06 4.21504e-06 -2.95168e-17)
(-3.61133e-06 3.9391e-06 8.95949e-15)
(-4.3062e-06 3.59913e-06 9.45038e-15)
(-4.92704e-06 3.18199e-06 2.79048e-16)
(-5.51237e-06 2.73968e-06 1.31108e-14)
(-6.20817e-06 2.37968e-06 6.21908e-15)
(-6.92623e-06 2.05842e-06 -1.20329e-14)
(-7.51313e-06 1.69557e-06 4.2863e-16)
(-8.11995e-06 1.39475e-06 -5.06191e-15)
(-8.78495e-06 1.21709e-06 -1.50994e-15)
(-9.56096e-06 1.04011e-06 8.2485e-15)
(-1.04212e-05 7.94466e-07 -1.45839e-14)
(-1.11898e-05 5.32116e-07 -1.91051e-15)
(-1.18714e-05 2.2282e-07 8.16162e-15)
(-1.22869e-05 -8.45593e-08 1.228e-15)
(-1.24964e-05 -3.42559e-07 -1.4214e-15)
(-1.19824e-05 -7.8297e-07 -4.08541e-15)
(-4.92513e-08 4.33143e-06 9.82365e-18)
(-4.81011e-07 4.13817e-06 2.68972e-16)
(-9.40291e-07 4.05048e-06 1.71388e-15)
(-1.47838e-06 4.02485e-06 4.8895e-15)
(-2.03498e-06 3.92969e-06 2.16882e-15)
(-2.63219e-06 3.74045e-06 4.12856e-15)
(-3.26162e-06 3.47058e-06 3.75792e-16)
(-3.8936e-06 3.14656e-06 -1.3887e-14)
(-4.44961e-06 2.75725e-06 1.55891e-14)
(-4.96803e-06 2.33436e-06 1.25382e-15)
(-5.5774e-06 1.98985e-06 4.26205e-16)
(-6.22658e-06 1.68747e-06 6.35578e-15)
(-6.76899e-06 1.3591e-06 3.44628e-15)
(-7.28742e-06 1.06287e-06 7.24517e-15)
(-7.85649e-06 8.63693e-07 6.2064e-15)
(-8.49246e-06 6.79004e-07 -6.02634e-15)
(-9.26222e-06 5.20346e-07 2.55083e-15)
(-9.95574e-06 3.60482e-07 8.21525e-15)
(-1.06385e-05 1.94254e-07 -4.16936e-15)
(-1.13699e-05 5.52164e-08 -4.45692e-15)
(-1.15864e-05 -2.57602e-07 1.32549e-15)
(-1.11331e-05 -7.29904e-07 -3.61176e-15)
(-4.30809e-08 3.86791e-06 2.36415e-16)
(-4.31534e-07 3.69789e-06 -4.42359e-16)
(-8.48118e-07 3.6272e-06 -1.6633e-15)
(-1.3346e-06 3.59872e-06 -7.21168e-16)
(-1.8431e-06 3.50792e-06 3.67843e-15)
(-2.37886e-06 3.32108e-06 4.37744e-15)
(-2.95299e-06 3.06342e-06 -8.54667e-15)
(-3.51454e-06 2.75142e-06 -3.17592e-15)
(-4.01287e-06 2.37724e-06 -2.02548e-14)
(-4.4751e-06 1.98564e-06 9.56055e-16)
(-5.01949e-06 1.66087e-06 2.24924e-15)
(-5.576e-06 1.37465e-06 -2.62762e-15)
(-6.03352e-06 1.0634e-06 -4.92812e-15)
(-6.51876e-06 8.12576e-07 5.79012e-15)
(-7.01799e-06 6.38877e-07 9.31713e-15)
(-7.58191e-06 5.06339e-07 -3.54364e-15)
(-8.24026e-06 4.06446e-07 -8.04406e-15)
(-8.95001e-06 3.495e-07 4.41164e-15)
(-9.73199e-06 3.0224e-07 1.77981e-15)
(-1.02604e-05 1.41555e-07 -2.2936e-15)
(-1.05735e-05 -1.31019e-07 1.50392e-15)
(-1.02859e-05 -6.36512e-07 3.57003e-15)
(-9.38144e-06 -1.23109e-06 3.93266e-15)
(-3.55822e-08 3.44847e-06 4.12944e-16)
(-3.87062e-07 3.31003e-06 -1.22726e-15)
(-7.6303e-07 3.24677e-06 -1.36385e-15)
(-1.20518e-06 3.22198e-06 -8.91927e-16)
(-1.66392e-06 3.13079e-06 1.35938e-15)
(-2.15183e-06 2.95487e-06 -6.33315e-15)
(-2.66496e-06 2.7043e-06 1.83083e-15)
(-3.17453e-06 2.40767e-06 5.59926e-15)
(-3.61931e-06 2.05605e-06 6.97682e-15)
(-4.02527e-06 1.68153e-06 -1.04814e-14)
(-4.49652e-06 1.37325e-06 -8.94621e-16)
(-4.99542e-06 1.11152e-06 4.19816e-15)
(-5.41266e-06 8.46935e-07 -8.98143e-15)
(-5.81771e-06 6.21345e-07 3.99898e-16)
(-6.26086e-06 4.84163e-07 5.87785e-15)
(-6.75051e-06 3.94707e-07 -2.50141e-15)
(-7.40975e-06 3.6016e-07 -3.78416e-15)
(-8.08204e-06 3.51121e-07 -3.53445e-15)
(-8.76716e-06 2.98189e-07 6.24677e-15)
(-9.49241e-06 1.90697e-07 -1.08744e-15)