/*--------------------------------*- C++ -*----------------------------------*\
| =========                 |                                                 |
| \\      /  F ield         | OpenFOAM: The Open Source CFD Toolbox           |
|  \\    /   O peration     | Version:  2306                                  |
|   \\  /    A nd           | Website:  www.openfoam.com                      |
|    \\/     M anipulation  |                                                 |
\*---------------------------------------------------------------------------*/
FoamFile
{
    version     2.0;
    format      ascii;
    arch        "LSB;label=32;scalar=64";
    class       volScalarField;
    location    "375";
    object      turbulenceProperties:I;
}
// * * * * * * * * * * * * * * * * * * * * * * * * * * * * * * * * * * * * * //

dimensions      [0 0 0 0 0 0 0];

internalField   nonuniform List<scalar> 
1340
(
0.000809573
0.000837916
0.000867273
0.000900731
0.000936858
0.000740438
0.000763335
0.000786831
0.00081343
0.00084164
0.00086826
0.000679323
0.000697924
0.000716833
0.000738183
0.000760476
0.000781252
0.000800051
0.000625002
0.000640203
0.000655522
0.000672787
0.000690599
0.000707025
0.000721883
0.000733345
0.00057655
0.000589009
0.000601497
0.00061554
0.000629899
0.000643036
0.000654886
0.000663926
0.000668297
0.000533144
0.000543378
0.000553607
0.000565095
0.000576746
0.000587345
0.000596859
0.000604055
0.000607522
0.00060687
0.000494092
0.000502529
0.000510918
0.000520365
0.00052987
0.000538484
0.000546162
0.000551916
0.000554679
0.000554157
0.00045882
0.000465797
0.000472696
0.000480477
0.000488266
0.000495305
0.000501519
0.000506135
0.000508341
0.000507899
0.000504859
0.000426852
0.000432624
0.000438305
0.000444726
0.000451126
0.000456901
0.000461935
0.000465644
0.000467394
0.000466995
0.000464496
0.000397777
0.000402548
0.000407227
0.000412529
0.000417802
0.000422538
0.000426622
0.000429596
0.000430976
0.00043059
0.000428503
0.000424827
0.000371246
0.000375186
0.000379031
0.000383413
0.000387764
0.000391634
0.000394945
0.000397324
0.000398388
0.000398002
0.000396225
0.000393153
0.000346963
0.00035021
0.000353362
0.00035698
0.000360569
0.000363721
0.000366392
0.000368284
0.000369089
0.000368691
0.00036715
0.000364543
0.000324677
0.000327347
0.000329913
0.000332895
0.000335849
0.000338406
0.000340548
0.000342038
0.000342621
0.000342203
0.000340837
0.000338601
0.000335596
0.000304171
0.000306357
0.000308435
0.000310881
0.000313301
0.000315361
0.000317067
0.000318217
0.000318614
0.000318172
0.000316943
0.000314991
0.000312408
0.00028526
0.000287033
0.000288708
0.0002907
0.000292674
0.000294318
0.000295656
0.000296524
0.000296758
0.000296289
0.000295163
0.000293442
0.000291198
0.000288492
0.00026778
0.000269204
0.00027054
0.000272149
0.000273747
0.000275042
0.00027607
0.000276703
0.000276801
0.000276304
0.000275259
0.000273718
0.000271742
0.000269384
0.000251588
0.000252721
0.000253769
0.000255053
0.000256334
0.000257337
0.000258104
0.000258539
0.000258519
0.000257996
0.000257013
0.000255618
0.000253861
0.000251786
0.000236563
0.000237451
0.000238257
0.000239265
0.000240277
0.000241034
0.00024158
0.000241849
0.000241731
0.000241185
0.000240249
0.00023897
0.00023739
0.000235548
0.000233455
0.000222598
0.000223275
0.000223879
0.000224655
0.000225439
0.000225989
0.000226353
0.000226479
0.000226277
0.00022571
0.000224812
0.000223627
0.000222192
0.000220538
0.00021868
0.000209594
0.000210093
0.000210529
0.00021111
0.000211697
0.000212074
0.000212287
0.000212293
0.000212021
0.000211435
0.00021057
0.000209463
0.000208147
0.00020665
0.000204983
0.000197468
0.000197818
0.000198111
0.000198529
0.000198949
0.000199182
0.000199268
0.000199176
0.000198844
0.000198244
0.000197405
0.000196363
0.000195148
0.000193783
0.000192276
0.000190626
0.000186147
0.00018637
0.000186544
0.000186825
0.000187104
0.000187217
0.000187197
0.000187024
0.000186644
0.000186032
0.000185217
0.000184232
0.000183099
0.000181843
0.000180474
0.000178986
0.000175679
0.000175754
0.000175919
0.000176081
0.000176093
0.000175988
0.000175748
0.00017533
0.000174711
0.000173917
0.00017298
0.000171921
0.00017076
0.000169504
0.000168151
0.000166683
0.000165682
0.000165676
0.000165744
0.000165808
0.000165738
0.000165563
0.000165269
0.000164822
0.0001642
0.000163428
0.000162535
0.000161539
0.000160458
0.000159301
0.000158065
0.000156731
0.000156324
0.00015625
0.000156239
0.000156221
0.000156086
0.000155854
0.000155519
0.00015505
0.000154429
0.000153679
0.000152824
0.000151885
0.000150877
0.000149805
0.000148669
0.000147455
0.000147554
0.000147425
0.000147349
0.000147265
0.000147076
0.0001468
0.000146435
0.000145951
0.000145336
0.000144607
0.00014379
0.000142903
0.000141957
0.000140962
0.000139915
0.000138804
0.000137605
0.000139326
0.000139153
0.000139024
0.000138887
0.000138656
0.000138349
0.00013796
0.000137469
0.000136863
0.000136158
0.000135377
0.000134537
0.000133651
0.000132723
0.000131755
0.000130733
0.000129641
0.000131601
0.000131393
0.000131222
0.000131042
0.000130781
0.000130449
0.000130047
0.000129554
0.000128961
0.000128281
0.000127536
0.000126741
0.000125907
0.000125043
0.000124146
0.000123206
0.000122207
0.000124342
0.000124105
0.000123901
0.00012369
0.000123406
0.000123059
0.00012265
0.000122162
0.000121584
0.00012093
0.000120221
0.00011947
0.000118687
0.00011788
0.000117048
0.000116181
0.000115266
0.000114281
0.000117513
0.000117256
0.000117026
0.000116792
0.000116494
0.000116138
0.000115728
0.00011525
0.000114691
0.000114066
0.000113393
0.000112683
0.000111949
0.000111196
0.000110424
0.000109625
0.000108786
0.000107889
0.000111085
0.000110813
0.000110565
0.000110315
0.000110009
0.000109652
0.000109247
0.000108781
0.000108246
0.000107651
0.000107014
0.000106346
0.000105658
0.000104956
0.00010424
0.000103504
0.000102735
0.000101917
0.000105029
0.000104748
0.000104488
0.000104229
0.00010392
0.000103567
0.000103172
0.000102724
0.000102214
0.00010165
0.000101049
0.000100423
9.97798e-05
9.91267e-05
9.84647e-05
9.77872e-05
9.70831e-05
9.63376e-05
9.55308e-05
9.93209e-05
9.90334e-05
9.87668e-05
9.85043e-05
9.81993e-05
9.78539e-05
9.74727e-05
9.70462e-05
9.65641e-05
9.60334e-05
9.54696e-05
9.48836e-05
9.42844e-05
9.36786e-05
9.30671e-05
9.24442e-05
9.18008e-05
9.11241e-05
9.03945e-05
9.39361e-05
9.36464e-05
9.33777e-05
9.31168e-05
9.28192e-05
9.24861e-05
9.21229e-05
9.17203e-05
9.12677e-05
9.07716e-05
9.02452e-05
8.96999e-05
8.91433e-05
8.85829e-05
8.80198e-05
8.7449e-05
8.68625e-05
8.62486e-05
8.55897e-05
8.88531e-05
8.85647e-05
8.82975e-05
8.80425e-05
8.77558e-05
8.74385e-05
8.70966e-05
8.67207e-05
8.63e-05
8.58387e-05
8.53498e-05
8.48441e-05
8.43299e-05
8.38137e-05
8.32973e-05
8.27753e-05
8.22419e-05
8.16868e-05
8.10945e-05
8.04449e-05
8.4052e-05
8.37674e-05
8.35058e-05
8.32596e-05
8.29872e-05
8.26888e-05
8.23714e-05
8.20245e-05
8.16361e-05
8.12103e-05
8.07594e-05
8.02931e-05
7.98198e-05
7.93462e-05
7.88742e-05
7.83993e-05
7.79167e-05
7.74168e-05
7.6885e-05
7.63041e-05
7.95146e-05
7.92359e-05
7.8983e-05
7.87489e-05
7.84935e-05
7.82165e-05
7.79257e-05
7.76095e-05
7.72549e-05
7.68649e-05
7.64514e-05
7.60239e-05
7.55906e-05
7.51583e-05
7.47291e-05
7.42993e-05
7.3864e-05
7.34151e-05
7.29398e-05
7.24237e-05
7.52239e-05
7.4953e-05
7.47112e-05
7.44922e-05
7.42554e-05
7.40023e-05
7.37405e-05
7.34563e-05
7.3136e-05
7.27818e-05
7.24052e-05
7.2016e-05
7.16218e-05
7.12294e-05
7.08408e-05
7.04535e-05
7.00632e-05
6.96624e-05
6.92402e-05
6.87831e-05
6.82729e-05
7.11642e-05
7.09027e-05
7.06742e-05
7.04724e-05
7.02564e-05
7.0029e-05
6.97979e-05
6.95466e-05
6.92608e-05
6.89423e-05
6.8602e-05
6.82501e-05
6.78941e-05
6.75402e-05
6.71909e-05
6.68443e-05
6.64964e-05
6.61403e-05
6.57667e-05
6.53637e-05
6.49158e-05
6.73207e-05
6.70702e-05
6.68566e-05
6.66742e-05
6.64804e-05
6.62804e-05
6.60817e-05
6.58638e-05
6.56123e-05
6.53291e-05
6.50246e-05
6.4709e-05
6.439e-05
6.40737e-05
6.37621e-05
6.34539e-05
6.31455e-05
6.28314e-05
6.25032e-05
6.21501e-05
6.17585e-05
6.368e-05
6.34418e-05
6.32447e-05
6.30833e-05
6.29126e-05
6.27418e-05
6.25767e-05
6.23927e-05
6.21751e-05
6.19264e-05
6.16571e-05
6.13771e-05
6.10941e-05
6.08138e-05
6.05383e-05
6.02664e-05
5.99954e-05
5.972e-05
5.94334e-05
5.91259e-05
5.8786e-05
6.02294e-05
6.00046e-05
5.98255e-05
5.9686e-05
5.95397e-05
5.93999e-05
5.92691e-05
5.91189e-05
5.89347e-05
5.87199e-05
5.84852e-05
5.824e-05
5.79918e-05
5.77461e-05
5.7505e-05
5.72674e-05
5.7031e-05
5.67914e-05
5.65426e-05
5.62764e-05
5.59823e-05
5.56462e-05
5.69575e-05
5.67466e-05
5.65869e-05
5.64704e-05
5.63494e-05
5.62418e-05
5.61462e-05
5.60292e-05
5.5878e-05
5.56966e-05
5.54956e-05
5.52844e-05
5.50699e-05
5.48572e-05
5.46483e-05
5.44423e-05
5.42376e-05
5.40308e-05
5.38162e-05
5.35867e-05
5.33338e-05
5.30448e-05
5.38531e-05
5.36569e-05
5.35177e-05
5.34248e-05
5.333e-05
5.32562e-05
5.31962e-05
5.31117e-05
5.29928e-05
5.28443e-05
5.26766e-05
5.24983e-05
5.23158e-05
5.21337e-05
5.19545e-05
5.17776e-05
5.16016e-05
5.14237e-05
5.12391e-05
5.1042e-05
5.08247e-05
5.05762e-05
5.09061e-05
5.0725e-05
5.06076e-05
5.05387e-05
5.04709e-05
5.04324e-05
5.0408e-05
5.03551e-05
5.02683e-05
5.01524e-05
5.00169e-05
4.98698e-05
4.97171e-05
4.95632e-05
4.94104e-05
4.92588e-05
4.91076e-05
4.89545e-05
4.87959e-05
4.86263e-05
4.84391e-05
4.82255e-05
4.81069e-05
4.79413e-05
4.78468e-05
4.78021e-05
4.77622e-05
4.77607e-05
4.77715e-05
4.77493e-05
4.76943e-05
4.76106e-05
4.75061e-05
4.73879e-05
4.72617e-05
4.7132e-05
4.70015e-05
4.68711e-05
4.67405e-05
4.6608e-05
4.64705e-05
4.63236e-05
4.61616e-05
4.59764e-05
4.57583e-05
4.54466e-05
4.5297e-05
4.52263e-05
4.52058e-05
4.51951e-05
4.5232e-05
4.5277e-05
4.52844e-05
4.52618e-05
4.52099e-05
4.5134e-05
4.5041e-05
4.49368e-05
4.48265e-05
4.47136e-05
4.45997e-05
4.44851e-05
4.43688e-05
4.42482e-05
4.41194e-05
4.39778e-05
4.38162e-05
4.36259e-05
4.29168e-05
4.27835e-05
4.27376e-05
4.2741e-05
4.2761e-05
4.2838e-05
4.29156e-05
4.29517e-05
4.29627e-05
4.29414e-05
4.28903e-05
4.28173e-05
4.27296e-05
4.26332e-05
4.25328e-05
4.24309e-05
4.23284e-05
4.22247e-05
4.21175e-05
4.20035e-05
4.18786e-05
4.17366e-05
4.15699e-05
4.05098e-05
4.0393e-05
4.03727e-05
4.03999e-05
4.04523e-05
4.05705e-05
4.06785e-05
4.07435e-05
4.07897e-05
4.07965e-05
4.07642e-05
4.07048e-05
4.06277e-05
4.05401e-05
4.04483e-05
4.03552e-05
4.02621e-05
4.01686e-05
4.00728e-05
3.99715e-05
3.98612e-05
3.97367e-05
3.95912e-05
3.82182e-05
3.81183e-05
3.81243e-05
3.81748e-05
3.82621e-05
3.84221e-05
3.85573e-05
3.86522e-05
3.87362e-05
3.87666e-05
3.87454e-05
3.86928e-05
3.86212e-05
3.85393e-05
3.84538e-05
3.83684e-05
3.82841e-05
3.82004e-05
3.81154e-05
3.80266e-05
3.79306e-05
3.78227e-05
3.76971e-05
3.60351e-05
3.59526e-05
3.59854e-05
3.60591e-05
3.6184e-05
3.63856e-05
3.65444e-05
3.66718e-05
3.67958e-05
3.68425e-05
3.68236e-05
3.67728e-05
3.67048e-05
3.6628e-05
3.65497e-05
3.64731e-05
3.63988e-05
3.63258e-05
3.62524e-05
3.61763e-05
3.60943e-05
3.60023e-05
3.58955e-05
3.5772e-05
3.39539e-05
3.38892e-05
3.39493e-05
3.40461e-05
3.42122e-05
3.4454e-05
3.46331e-05
3.47975e-05
3.49628e-05
3.50147e-05
3.49902e-05
3.49401e-05
3.48779e-05
3.48094e-05
3.4741e-05
3.46753e-05
3.46122e-05
3.45506e-05
3.44886e-05
3.44243e-05
3.4355e-05
3.42769e-05
3.41858e-05
3.40798e-05
3.19685e-05
3.19221e-05
3.20095e-05
3.21292e-05
3.23404e-05
3.26196e-05
3.28163e-05
3.30266e-05
3.32336e-05
3.32759e-05
3.32397e-05
3.31946e-05
3.31442e-05
3.30878e-05
3.30312e-05
3.29767e-05
3.2924e-05
3.28718e-05
3.28188e-05
3.27632e-05
3.27026e-05
3.26338e-05
3.25528e-05
3.24581e-05
3.00739e-05
3.00466e-05
3.01607e-05
3.03031e-05
3.05628e-05
3.08735e-05
3.10861e-05
3.13521e-05
3.16029e-05
3.1622e-05
3.15733e-05
3.15412e-05
3.15077e-05
3.14637e-05
3.14161e-05
3.13688e-05
3.13217e-05
3.12738e-05
3.12242e-05
3.11714e-05
3.11137e-05
3.1048e-05
3.09704e-05
3.08795e-05
2.82659e-05
2.82592e-05
2.83994e-05
2.8565e-05
2.88768e-05
2.92113e-05
2.94365e-05
2.97611e-05
3.00568e-05
3.00495e-05
2.99967e-05
2.99852e-05
2.99674e-05
2.99288e-05
2.98818e-05
2.98333e-05
2.97837e-05
2.97326e-05
2.96796e-05
2.96238e-05
2.95633e-05
2.94951e-05
2.94153e-05
2.93228e-05
2.65397e-05
2.6555e-05
2.67216e-05
2.69136e-05
2.72821e-05
2.76342e-05
2.78709e-05
2.82528e-05
2.85875e-05
2.85506e-05
2.85058e-05
2.85185e-05
2.85064e-05
2.84605e-05
2.84044e-05
2.8347e-05
2.82886e-05
2.82293e-05
2.81687e-05
2.8106e-05
2.80396e-05
2.79661e-05
2.78815e-05
2.77851e-05
2.48924e-05
2.49285e-05
2.51197e-05
2.5342e-05
2.57703e-05
2.61361e-05
2.63897e-05
2.686e-05
2.72385e-05
2.71224e-05
2.70747e-05
2.71157e-05
2.70995e-05
2.70344e-05
2.69629e-05
2.68944e-05
2.68262e-05
2.67582e-05
2.66901e-05
2.66213e-05
2.65493e-05
2.64709e-05
2.6382e-05
2.6282e-05
2.61751e-05
2.3345e-05
2.33983e-05
2.36039e-05
2.38522e-05
2.43292e-05
2.46895e-05
2.49519e-05
2.55559e-05
2.60572e-05
2.57871e-05
2.56904e-05
2.5772e-05
2.57587e-05
2.56732e-05
2.55867e-05
2.55098e-05
2.54347e-05
2.53596e-05
2.52858e-05
2.52122e-05
2.51359e-05
2.50535e-05
2.49613e-05
2.4858e-05
2.47477e-05
2.20199e-05
2.20811e-05
2.22785e-05
2.2525e-05
2.30072e-05
2.32987e-05
2.35077e-05
2.42548e-05
2.49056e-05
2.45041e-05
2.43728e-05
2.45163e-05
2.45358e-05
2.44536e-05
2.43666e-05
2.42917e-05
2.42181e-05
2.41429e-05
2.40682e-05
2.39933e-05
2.39159e-05
2.3832e-05
2.37379e-05
2.36324e-05
2.35198e-05
2.09108e-05
2.09709e-05
2.11429e-05
2.13641e-05
2.18044e-05
2.19751e-05
2.21255e-05
2.28424e-05
2.36139e-05
2.32298e-05
2.31354e-05
2.33343e-05
2.34086e-05
2.3359e-05
2.32871e-05
2.32232e-05
2.31592e-05
2.30922e-05
2.30232e-05
2.29526e-05
2.28791e-05
2.27989e-05
2.27075e-05
2.26039e-05
2.24928e-05
1.98418e-05
1.99002e-05
2.00464e-05
2.02502e-05
2.06431e-05
2.07034e-05
2.08477e-05
2.14335e-05
2.22501e-05
2.1988e-05
2.19576e-05
2.21813e-05
2.23037e-05
2.2295e-05
2.22441e-05
2.21922e-05
2.21389e-05
2.20811e-05
2.20201e-05
2.19567e-05
2.18896e-05
2.18157e-05
2.17302e-05
2.16315e-05
2.15246e-05
1.87389e-05
1.87953e-05
1.89147e-05
1.91114e-05
1.94477e-05
1.94275e-05
1.95987e-05
2.00454e-05
2.09214e-05
2.08098e-05
2.08406e-05
2.10629e-05
2.12126e-05
2.1238e-05
2.12086e-05
2.11705e-05
2.11293e-05
2.10811e-05
2.10273e-05
2.09699e-05
2.09085e-05
2.08399e-05
2.07603e-05
2.0666e-05
2.05617e-05
1.76268e-05
1.76791e-05
1.77716e-05
1.7968e-05
1.82348e-05
1.81734e-05
1.83767e-05
1.86868e-05
1.96414e-05
1.96851e-05
1.9783e-05
2.00005e-05
2.01661e-05
2.02151e-05
2.02006e-05
2.01747e-05
2.01489e-05
2.01163e-05
2.0074e-05
2.00241e-05
1.99675e-05
1.99028e-05
1.98258e-05
1.97331e-05
1.96281e-05
1.65087e-05
1.65514e-05
1.66154e-05
1.68121e-05
1.69962e-05
1.69483e-05
1.71647e-05
1.7368e-05
1.84359e-05
1.86291e-05
1.87888e-05
1.90044e-05
1.91884e-05
1.92622e-05
1.92545e-05
1.92217e-05
1.91907e-05
1.91622e-05
1.913e-05
1.90904e-05
1.90406e-05
1.89782e-05
1.8898e-05
1.87985e-05
1.86828e-05
1.53988e-05
1.54222e-05
1.54518e-05
1.56348e-05
1.57211e-05
1.57506e-05
1.59341e-05
1.61021e-05
1.7327e-05
1.76635e-05
1.78791e-05
1.80783e-05
1.82597e-05
1.83603e-05
1.83844e-05
1.83596e-05
1.83087e-05
1.82463e-05
1.81825e-05
1.81209e-05
1.80579e-05
1.79851e-05
1.78899e-05
1.77616e-05
1.76004e-05
1.4311e-05
1.43049e-05
1.42918e-05
1.44282e-05
1.43954e-05
1.45462e-05
1.4603e-05
1.48774e-05
1.63269e-05
1.67926e-05
1.70955e-05
1.72778e-05
1.73792e-05
1.74024e-05
1.74033e-05
1.74095e-05
1.74057e-05
1.73642e-05
1.72795e-05
1.71647e-05
1.7033e-05
1.68876e-05
1.67213e-05
1.65241e-05
1.62928e-05
1.60297e-05
1.32499e-05
1.32067e-05
1.31432e-05
1.31904e-05
1.30267e-05
1.32916e-05
1.30703e-05
1.37212e-05
1.54564e-05
1.59431e-05
1.63672e-05
1.65959e-05
1.66337e-05
1.64988e-05
1.62833e-05
1.60981e-05
1.59987e-05
1.59654e-05
1.59417e-05
1.58821e-05
1.57643e-05
1.55828e-05
1.53359e-05
1.50323e-05
1.46892e-05
1.43263e-05
1.22255e-05
1.21236e-05
1.19761e-05
1.1885e-05
1.16235e-05
1.19861e-05
1.14206e-05
1.29653e-05
1.48224e-05
1.51542e-05
1.56175e-05
1.57889e-05
1.5849e-05
1.58324e-05
1.56121e-05
1.51811e-05
1.46964e-05
1.43368e-05
1.41919e-05
1.42449e-05
1.44174e-05
1.46185e-05
1.47397e-05
1.46827e-05
1.4454e-05
1.4156e-05
1.1331e-05
1.11113e-05
1.07648e-05
1.04092e-05
1.00611e-05
1.05542e-05
1.00706e-05
1.30303e-05
1.45275e-05
1.50977e-05
1.61785e-05
1.64587e-05
1.61635e-05
1.56526e-05
1.53097e-05
1.53856e-05
1.57337e-05
1.60504e-05
1.62006e-05
1.62167e-05
1.61731e-05
1.61483e-05
1.6262e-05
1.66547e-05
1.73105e-05
1.80634e-05
1.07515e-05
1.03726e-05
9.68965e-06
8.78294e-06
8.03268e-06
8.58185e-06
9.12293e-06
1.31081e-05
1.37088e-05
1.48436e-05
1.68019e-05
1.83284e-05
1.97512e-05
2.11106e-05
2.22777e-05
2.31961e-05
2.3873e-05
2.44099e-05
2.49209e-05
2.54688e-05
2.60687e-05
2.67057e-05
2.73473e-05
2.79172e-05
2.83426e-05
2.86676e-05
1.04746e-05
1.0011e-05
9.08579e-06
7.54859e-06
5.50355e-06
6.02297e-06
8.61891e-06
1.13848e-05
1.37073e-05
2.03147e-05
2.51448e-05
2.88285e-05
3.14685e-05
3.32621e-05
3.44124e-05
3.5161e-05
3.57177e-05
3.62258e-05
3.67339e-05
3.72367e-05
3.77114e-05
3.81571e-05
3.85965e-05
3.9097e-05
3.9607e-05
4.00353e-05
)
;

boundaryField
{
    inlet
    {
        type            calculated;
        value           nonuniform List<scalar> 
26
(
1.04629e-05
1.00114e-05
9.08809e-06
7.48638e-06
5.08208e-06
6.07512e-06
9.35149e-06
9.69884e-06
2.05365e-05
2.94081e-05
3.69968e-05
4.32757e-05
4.83007e-05
5.22497e-05
5.52677e-05
5.75664e-05
5.93396e-05
6.075e-05
6.19311e-05
6.29832e-05
6.39783e-05
6.49882e-05
6.60928e-05
6.73462e-05
6.86558e-05
6.98822e-05
)
;
    }
    outlet
    {
        type            calculated;
        value           nonuniform List<scalar> 0();
    }
    walls
    {
        type            calculated;
        value           nonuniform List<scalar> 0();
    }
    frontAndBack
    {
        type            empty;
    }
    procBoundary0to1
    {
        type            processor;
        value           nonuniform List<scalar> 
94
(
0.00104972
0.000971485
0.000971485
0.000892353
0.000892353
0.000814711
0.000814711
0.000738896
0.000738896
0.000667431
0.000667431
0.000602115
0.000550389
0.000550389
0.000499381
0.000460038
0.000460038
0.000419753
0.000388942
0.000361002
0.000361002
0.000331911
0.000309265
0.000309265
0.00028534
0.000266662
0.000249409
0.000249409
0.000231108
0.000216611
0.000203144
0.000203144
0.000188811
0.000177358
0.000177358
0.000165071
0.00015528
0.000146139
0.000146139
0.000136296
0.000128453
0.000121125
0.000121125
0.000113199
0.000106907
0.000101027
0.000101027
9.46358e-05
8.95876e-05
8.4864e-05
8.4864e-05
7.97128e-05
7.56526e-05
7.18462e-05
7.18462e-05
6.76864e-05
6.44019e-05
6.13103e-05
5.83969e-05
5.83969e-05
5.5251e-05
5.27046e-05
5.02839e-05
4.79737e-05
4.79737e-05
4.55021e-05
4.3403e-05
4.13753e-05
3.9422e-05
3.75518e-05
3.75518e-05
3.56343e-05
3.39614e-05
3.23519e-05
3.07782e-05
2.92213e-05
2.76813e-05
2.76813e-05
2.60662e-05
2.46369e-05
2.34069e-05
2.23812e-05
2.14161e-05
2.04533e-05
1.95151e-05
1.85565e-05
1.74174e-05
1.74174e-05
1.57371e-05
1.39589e-05
1.38757e-05
1.87951e-05
2.89529e-05
4.03707e-05
)
;
    }
    procBoundary0to4
    {
        type            processor;
        value           nonuniform List<scalar> 
72
(
0.000780601
0.000716762
0.000659914
0.000609023
0.000563344
0.000522189
0.000484991
0.000451255
0.000420557
0.000392533
0.000366881
0.000343342
0.00032168
0.000301703
0.000283238
0.000266137
0.00025027
0.00023552
0.000221787
0.000208983
0.000197028
0.00018585
0.000175563
0.000175563
0.000165655
0.000156371
0.000147663
0.000139486
0.000131802
0.000124573
0.000117769
0.000111359
0.000105317
9.9616e-05
9.42349e-05
8.91524e-05
8.43489e-05
7.98064e-05
7.55085e-05
7.14398e-05
6.75861e-05
6.3934e-05
6.04714e-05
5.71866e-05
5.40688e-05
5.11082e-05
4.82952e-05
4.5621e-05
4.30773e-05
4.06565e-05
3.83512e-05
3.61547e-05
3.40603e-05
3.20621e-05
3.01548e-05
2.8334e-05
2.65954e-05
2.49367e-05
2.33808e-05
2.20525e-05
2.09422e-05
1.98711e-05
1.87661e-05
1.7652e-05
1.65335e-05
1.5426e-05
1.43446e-05
1.32948e-05
1.22916e-05
1.14332e-05
1.08931e-05
1.06347e-05
)
;
    }
    procBoundary0to5
    {
        type            processor;
        value           nonuniform List<scalar> 4(0.00088776 0.000923121 0.000960164 0.0010028);
    }
}


// ************************************************************************* //
