/*--------------------------------*- C++ -*----------------------------------*\
| =========                 |                                                 |
| \\      /  F ield         | OpenFOAM: The Open Source CFD Toolbox           |
|  \\    /   O peration     | Version:  2306                                  |
|   \\  /    A nd           | Website:  www.openfoam.com                      |
|    \\/     M anipulation  |                                                 |
\*---------------------------------------------------------------------------*/
FoamFile
{
    version     2.0;
    format      ascii;
    arch        "LSB;label=32;scalar=64";
    class       volScalarField;
    location    "375";
    object      turbulenceProperties:epsilon;
}
// * * * * * * * * * * * * * * * * * * * * * * * * * * * * * * * * * * * * * //

dimensions      [0 2 -3 0 0 0 0];

internalField   nonuniform List<scalar> 
1340
(
0.000197878
0.000193263
0.000188242
0.000182077
0.000174133
0.00014264
0.000139131
0.000135444
0.000131055
0.000125413
0.000119065
0.000104216
0.000101533
9.87737e-05
9.55995e-05
9.15395e-05
8.7067e-05
8.22727e-05
7.69973e-05
7.49455e-05
7.28636e-05
7.05334e-05
6.75842e-05
6.43894e-05
6.10334e-05
5.75033e-05
5.74547e-05
5.5871e-05
5.42932e-05
5.25563e-05
5.03938e-05
4.8086e-05
4.5693e-05
4.31785e-05
4.05551e-05
4.32431e-05
4.20125e-05
4.08089e-05
3.95027e-05
3.78993e-05
3.62147e-05
3.44815e-05
3.26685e-05
3.07981e-05
2.89364e-05
3.27922e-05
3.18352e-05
3.09071e-05
2.99178e-05
2.87182e-05
2.7477e-05
2.62046e-05
2.48812e-05
2.35333e-05
2.2203e-05
2.5032e-05
2.42873e-05
2.35682e-05
2.28104e-05
2.19063e-05
2.09834e-05
2.00382e-05
1.90621e-05
1.80812e-05
1.71211e-05
1.61772e-05
1.92215e-05
1.86392e-05
1.80797e-05
1.74952e-05
1.68084e-05
1.61168e-05
1.54071e-05
1.46806e-05
1.39596e-05
1.32596e-05
1.25757e-05
1.48373e-05
1.438e-05
1.39426e-05
1.34891e-05
1.29646e-05
1.24408e-05
1.19041e-05
1.13586e-05
1.08241e-05
1.03087e-05
9.80904e-06
9.32123e-06
1.15061e-05
1.11462e-05
1.08026e-05
1.04493e-05
1.00467e-05
9.64576e-06
9.23721e-06
8.82478e-06
8.42456e-06
8.04186e-06
7.67347e-06
7.31603e-06
8.9598e-06
8.67573e-06
8.40492e-06
8.12864e-06
7.81795e-06
7.50878e-06
7.19534e-06
6.88146e-06
6.57969e-06
6.29314e-06
6.01919e-06
5.75473e-06
7.00275e-06
6.7784e-06
6.56381e-06
6.34695e-06
6.10597e-06
5.86622e-06
5.62439e-06
5.38396e-06
5.15459e-06
4.93823e-06
4.73257e-06
4.53563e-06
4.34536e-06
5.49131e-06
5.31377e-06
5.14342e-06
4.97249e-06
4.7846e-06
4.59766e-06
4.41017e-06
4.2247e-06
4.04926e-06
3.8847e-06
3.72917e-06
3.581e-06
3.43874e-06
4.31899e-06
4.1779e-06
4.0428e-06
3.90749e-06
3.76041e-06
3.61402e-06
3.46787e-06
3.32406e-06
3.1888e-06
3.06268e-06
2.94412e-06
2.83196e-06
2.7248e-06
2.62037e-06
3.40602e-06
3.2937e-06
3.18631e-06
3.07888e-06
2.96337e-06
2.8483e-06
2.73376e-06
2.62177e-06
2.51696e-06
2.41961e-06
2.32861e-06
2.24295e-06
2.16148e-06
2.08241e-06
2.69238e-06
2.60301e-06
2.51741e-06
2.43185e-06
2.3409e-06
2.25014e-06
2.16001e-06
2.07243e-06
1.99068e-06
1.91511e-06
1.84476e-06
1.77891e-06
1.71653e-06
1.65627e-06
2.13284e-06
2.06167e-06
1.99337e-06
1.92507e-06
1.85322e-06
1.78143e-06
1.71022e-06
1.64143e-06
1.57745e-06
1.51845e-06
1.46369e-06
1.41265e-06
1.36456e-06
1.31831e-06
1.2727e-06
1.6929e-06
1.63607e-06
1.58155e-06
1.52699e-06
1.47006e-06
1.41313e-06
1.35676e-06
1.30247e-06
1.25216e-06
1.20585e-06
1.16299e-06
1.12318e-06
1.08583e-06
1.05004e-06
1.01494e-06
1.34602e-06
1.30058e-06
1.25708e-06
1.21344e-06
1.16816e-06
1.12295e-06
1.07824e-06
1.03526e-06
9.95535e-07
9.59021e-07
9.25315e-07
8.94103e-07
8.64891e-07
8.37029e-07
8.09808e-07
1.07187e-06
1.03553e-06
1.00077e-06
9.65875e-07
9.29762e-07
8.93811e-07
8.58276e-07
8.24172e-07
7.92684e-07
7.63788e-07
7.37137e-07
7.12519e-07
6.89584e-07
6.67775e-07
6.46529e-07
6.25435e-07
8.54773e-07
8.25681e-07
7.97869e-07
7.69952e-07
7.41137e-07
7.12486e-07
6.84196e-07
6.57082e-07
6.32054e-07
6.09104e-07
5.87952e-07
5.68475e-07
5.50325e-07
5.33139e-07
5.16509e-07
5.00052e-07
6.59195e-07
6.36949e-07
6.14588e-07
5.91575e-07
5.68721e-07
5.46172e-07
5.24574e-07
5.04646e-07
4.86368e-07
4.69525e-07
4.54028e-07
4.39641e-07
4.26044e-07
4.12928e-07
4.0001e-07
3.86963e-07
5.26879e-07
5.09093e-07
4.9117e-07
4.72771e-07
4.54539e-07
4.36547e-07
4.19316e-07
4.03427e-07
3.8884e-07
3.754e-07
3.63038e-07
3.51578e-07
3.40771e-07
3.30389e-07
3.20212e-07
3.09972e-07
4.21553e-07
4.07327e-07
3.92968e-07
3.78254e-07
3.63702e-07
3.4934e-07
3.35592e-07
3.22895e-07
3.11235e-07
3.00489e-07
2.90598e-07
2.81448e-07
2.72845e-07
2.64592e-07
2.5654e-07
2.48492e-07
3.37588e-07
3.26208e-07
3.14707e-07
3.02943e-07
2.91324e-07
2.79861e-07
2.68885e-07
2.58735e-07
2.49409e-07
2.40804e-07
2.32883e-07
2.25559e-07
2.18677e-07
2.12109e-07
2.05725e-07
1.99368e-07
1.92879e-07
2.70562e-07
2.6146e-07
2.52254e-07
2.42851e-07
2.33579e-07
2.24433e-07
2.15665e-07
2.07557e-07
2.00093e-07
1.93199e-07
1.86846e-07
1.80976e-07
1.75472e-07
1.70228e-07
1.6515e-07
1.60117e-07
1.55011e-07
2.16999e-07
2.09718e-07
2.02354e-07
1.94846e-07
1.8745e-07
1.80153e-07
1.73157e-07
1.66678e-07
1.60709e-07
1.55183e-07
1.5009e-07
1.45382e-07
1.40967e-07
1.36781e-07
1.32741e-07
1.28749e-07
1.2472e-07
1.74147e-07
1.68323e-07
1.62435e-07
1.56448e-07
1.50554e-07
1.4474e-07
1.39163e-07
1.33993e-07
1.29219e-07
1.24791e-07
1.20709e-07
1.16933e-07
1.13398e-07
1.10049e-07
1.06828e-07
1.03662e-07
1.00478e-07
9.7202e-08
1.39826e-07
1.35174e-07
1.30469e-07
1.25702e-07
1.21013e-07
1.16384e-07
1.11944e-07
1.07825e-07
1.04012e-07
1.00471e-07
9.72002e-08
9.41719e-08
9.13416e-08
8.86635e-08
8.60978e-08
8.3585e-08
8.10682e-08
7.84902e-08
1.12317e-07
1.08604e-07
1.04849e-07
1.01059e-07
9.73345e-08
9.36574e-08
9.01296e-08
8.68516e-08
8.38128e-08
8.09858e-08
7.83678e-08
7.59436e-08
7.36781e-08
7.15393e-08
6.94942e-08
6.75001e-08
6.5513e-08
6.34847e-08
9.02507e-08
8.72889e-08
8.42989e-08
8.12896e-08
7.83382e-08
7.54238e-08
7.26262e-08
7.00251e-08
6.76086e-08
6.53545e-08
6.32643e-08
6.13269e-08
5.95165e-08
5.78097e-08
5.61835e-08
5.46031e-08
5.3033e-08
5.14364e-08
4.97723e-08
7.2538e-08
7.0177e-08
6.78004e-08
6.5418e-08
6.30843e-08
6.07794e-08
5.8568e-08
5.651e-08
5.45952e-08
5.28026e-08
5.11372e-08
4.9592e-08
4.81476e-08
4.67887e-08
4.54963e-08
4.42445e-08
4.30063e-08
4.17542e-08
4.04527e-08
5.83111e-08
5.64314e-08
5.45457e-08
5.26656e-08
5.08258e-08
4.90086e-08
4.72666e-08
4.56441e-08
4.41305e-08
4.27106e-08
4.13873e-08
4.01585e-08
3.90087e-08
3.79285e-08
3.69041e-08
3.59148e-08
3.49402e-08
3.39583e-08
3.2941e-08
4.68777e-08
4.5384e-08
4.38909e-08
4.24123e-08
4.09661e-08
3.95387e-08
3.81721e-08
3.68986e-08
3.57081e-08
3.45866e-08
3.35381e-08
3.25631e-08
3.16513e-08
3.07955e-08
2.99858e-08
2.92051e-08
2.84392e-08
2.76711e-08
2.68791e-08
2.6039e-08
3.76854e-08
3.65e-08
3.53222e-08
3.41625e-08
3.30306e-08
3.19143e-08
3.08481e-08
2.98537e-08
2.89205e-08
2.8038e-08
2.72114e-08
2.64403e-08
2.57192e-08
2.50429e-08
2.44046e-08
2.37911e-08
2.31916e-08
2.25926e-08
2.19762e-08
2.13242e-08
3.02923e-08
2.93531e-08
2.84274e-08
2.7522e-08
2.66401e-08
2.57715e-08
2.49443e-08
2.41724e-08
2.34451e-08
2.27541e-08
2.21042e-08
2.14972e-08
2.09289e-08
2.03966e-08
1.98953e-08
1.9415e-08
1.8947e-08
1.84807e-08
1.80027e-08
1.74994e-08
2.43445e-08
2.36019e-08
2.28771e-08
2.21741e-08
2.14899e-08
2.08185e-08
2.01817e-08
1.95866e-08
1.90232e-08
1.84848e-08
1.79764e-08
1.75005e-08
1.70548e-08
1.66376e-08
1.62452e-08
1.58705e-08
1.55067e-08
1.51455e-08
1.47767e-08
1.4389e-08
1.3969e-08
1.95585e-08
1.89727e-08
1.84076e-08
1.78651e-08
1.73378e-08
1.68226e-08
1.63367e-08
1.58816e-08
1.54481e-08
1.50311e-08
1.46354e-08
1.42643e-08
1.39166e-08
1.35912e-08
1.32857e-08
1.29951e-08
1.27137e-08
1.24349e-08
1.2151e-08
1.18535e-08
1.15322e-08
1.57067e-08
1.52461e-08
1.48076e-08
1.43922e-08
1.39887e-08
1.3597e-08
1.32304e-08
1.28857e-08
1.25547e-08
1.2234e-08
1.1928e-08
1.16403e-08
1.13707e-08
1.11186e-08
1.08823e-08
1.06579e-08
1.04412e-08
1.02273e-08
1.00102e-08
9.78297e-09
9.53782e-09
1.26066e-08
1.22457e-08
1.19076e-08
1.15922e-08
1.1286e-08
1.09918e-08
1.07192e-08
1.04612e-08
1.02107e-08
9.96595e-09
9.73122e-09
9.50992e-09
9.3024e-09
9.1085e-09
8.92702e-09
8.75493e-09
8.58917e-09
8.42589e-09
8.26063e-09
8.08794e-09
7.90198e-09
1.01117e-08
9.82992e-09
9.57126e-09
9.33412e-09
9.10427e-09
8.887e-09
8.68764e-09
8.49736e-09
8.31005e-09
8.12514e-09
7.94678e-09
7.77815e-09
7.6198e-09
7.47196e-09
7.33367e-09
7.2027e-09
7.07673e-09
6.95286e-09
6.82762e-09
6.697e-09
6.55633e-09
6.3996e-09
8.1041e-09
7.88502e-09
7.68894e-09
7.51291e-09
7.34282e-09
7.18563e-09
7.04341e-09
6.90545e-09
6.76745e-09
6.62955e-09
6.49565e-09
6.36869e-09
6.24924e-09
6.13756e-09
6.03303e-09
5.93398e-09
5.83878e-09
5.7454e-09
5.65103e-09
5.55256e-09
5.44665e-09
5.32853e-09
6.48894e-09
6.31949e-09
6.17257e-09
6.04393e-09
5.9203e-09
5.81003e-09
5.71186e-09
5.61415e-09
5.5144e-09
5.41336e-09
5.31447e-09
5.2202e-09
5.13112e-09
5.04751e-09
4.96913e-09
4.8948e-09
4.82327e-09
4.75302e-09
4.68201e-09
4.60801e-09
4.52829e-09
4.43923e-09
5.18996e-09
5.05961e-09
4.9512e-09
4.85908e-09
4.77143e-09
4.69752e-09
4.633e-09
4.56595e-09
4.49584e-09
4.42361e-09
4.35201e-09
4.28312e-09
4.21748e-09
4.15543e-09
4.0969e-09
4.04117e-09
3.98741e-09
3.93454e-09
3.88114e-09
3.82539e-09
3.76526e-09
3.69813e-09
4.14572e-09
4.04611e-09
3.96771e-09
3.90346e-09
3.84358e-09
3.79768e-09
3.75846e-09
3.71456e-09
3.66736e-09
3.61751e-09
3.56696e-09
3.51743e-09
3.46945e-09
3.42347e-09
3.37968e-09
3.33771e-09
3.29708e-09
3.25707e-09
3.21659e-09
3.17434e-09
3.12874e-09
3.07777e-09
3.01904e-09
3.30671e-09
3.23123e-09
3.17605e-09
3.13289e-09
3.09434e-09
3.0698e-09
3.04921e-09
3.02262e-09
2.99313e-09
2.9605e-09
2.92583e-09
2.8906e-09
2.85548e-09
2.82112e-09
2.78796e-09
2.75592e-09
2.7248e-09
2.69412e-09
2.66308e-09
2.63072e-09
2.59587e-09
2.55695e-09
2.5121e-09
2.63307e-09
2.57644e-09
2.53909e-09
2.51169e-09
2.48943e-09
2.48096e-09
2.47376e-09
2.45998e-09
2.44424e-09
2.42459e-09
2.40141e-09
2.37626e-09
2.35014e-09
2.32389e-09
2.29817e-09
2.27321e-09
2.24895e-09
2.2251e-09
2.20106e-09
2.17606e-09
2.14923e-09
2.11936e-09
2.08502e-09
2.09266e-09
2.0507e-09
2.02689e-09
2.01113e-09
2.00122e-09
2.00459e-09
2.00661e-09
2.00235e-09
1.99727e-09
1.98703e-09
1.97159e-09
1.95314e-09
1.93304e-09
1.91234e-09
1.89194e-09
1.87215e-09
1.853e-09
1.83431e-09
1.81559e-09
1.79625e-09
1.77562e-09
1.75277e-09
1.72661e-09
1.65957e-09
1.62898e-09
1.61534e-09
1.608e-09
1.60739e-09
1.61915e-09
1.62716e-09
1.63003e-09
1.63322e-09
1.62931e-09
1.61856e-09
1.60426e-09
1.58818e-09
1.57147e-09
1.55505e-09
1.53931e-09
1.52427e-09
1.50971e-09
1.49528e-09
1.48051e-09
1.46487e-09
1.44761e-09
1.42792e-09
1.31289e-09
1.29108e-09
1.28491e-09
1.28358e-09
1.28992e-09
1.30729e-09
1.31883e-09
1.32712e-09
1.33661e-09
1.33634e-09
1.32794e-09
1.31624e-09
1.30315e-09
1.28966e-09
1.27664e-09
1.26437e-09
1.25283e-09
1.24178e-09
1.23092e-09
1.21989e-09
1.20824e-09
1.19542e-09
1.18081e-09
1.16423e-09
1.03574e-09
1.02066e-09
1.01987e-09
1.02271e-09
1.03417e-09
1.05492e-09
1.06825e-09
1.08085e-09
1.09489e-09
1.09588e-09
1.08834e-09
1.07863e-09
1.06827e-09
1.0578e-09
1.04788e-09
1.03868e-09
1.03011e-09
1.02196e-09
1.01396e-09
1.00582e-09
9.97226e-10
9.87724e-10
9.76845e-10
9.64434e-10
8.14536e-10
8.04555e-10
8.07497e-10
8.13093e-10
8.2824e-10
8.50547e-10
8.64544e-10
8.80901e-10
8.98048e-10
8.98271e-10
8.90821e-10
8.83224e-10
8.757e-10
8.68069e-10
8.60831e-10
8.54133e-10
8.47853e-10
8.41819e-10
8.35837e-10
8.29696e-10
8.23148e-10
8.15856e-10
8.07442e-10
7.97777e-10
6.38377e-10
6.3224e-10
6.3759e-10
6.4489e-10
6.62501e-10
6.8483e-10
6.9876e-10
7.18398e-10
7.37644e-10
7.35977e-10
7.28626e-10
7.23456e-10
7.18657e-10
7.13291e-10
7.0793e-10
7.0285e-10
6.97968e-10
6.93167e-10
6.8832e-10
6.83289e-10
6.77891e-10
6.71862e-10
6.64881e-10
6.56852e-10
4.98463e-10
4.95237e-10
5.02019e-10
5.10296e-10
5.29406e-10
5.50579e-10
5.63854e-10
5.85652e-10
6.0613e-10
6.02791e-10
5.96305e-10
5.93619e-10
5.90829e-10
5.86712e-10
5.82194e-10
5.77751e-10
5.73381e-10
5.69019e-10
5.64603e-10
5.60044e-10
5.55198e-10
5.49832e-10
5.43661e-10
5.36636e-10
3.87611e-10
3.86543e-10
3.94091e-10
4.02965e-10
4.22892e-10
4.42296e-10
4.54689e-10
4.77483e-10
4.98031e-10
4.9326e-10
4.88366e-10
4.87835e-10
4.859e-10
4.81914e-10
4.77448e-10
4.73065e-10
4.68742e-10
4.64467e-10
4.60193e-10
4.55847e-10
4.51314e-10
4.46386e-10
4.40802e-10
4.34553e-10
3.00112e-10
3.00475e-10
3.082e-10
3.17399e-10
3.37498e-10
3.54922e-10
3.66672e-10
3.91506e-10
4.12032e-10
4.03285e-10
3.9903e-10
4.00339e-10
3.98505e-10
3.93994e-10
3.89296e-10
3.84917e-10
3.80676e-10
3.76537e-10
3.72475e-10
3.68433e-10
3.64269e-10
3.59804e-10
3.54825e-10
3.49319e-10
3.43527e-10
2.32261e-10
2.3342e-10
2.40602e-10
2.49559e-10
2.6874e-10
2.83416e-10
2.9399e-10
3.21982e-10
3.46309e-10
3.30746e-10
3.24694e-10
3.2796e-10
3.26571e-10
3.21689e-10
3.1693e-10
3.12781e-10
3.08827e-10
3.04953e-10
3.01217e-10
2.97551e-10
2.93807e-10
2.89824e-10
2.85438e-10
2.80606e-10
2.75542e-10
1.83905e-10
1.85258e-10
1.91153e-10
1.98792e-10
2.1536e-10
2.25308e-10
2.32326e-10
2.62225e-10
2.90154e-10
2.70655e-10
2.63956e-10
2.69487e-10
2.69737e-10
2.65652e-10
2.61504e-10
2.58001e-10
2.5464e-10
2.51288e-10
2.48017e-10
2.44793e-10
2.41514e-10
2.38017e-10
2.34157e-10
2.29904e-10
2.25449e-10
1.49595e-10
1.50802e-10
1.55201e-10
1.61089e-10
1.74052e-10
1.78727e-10
1.82885e-10
2.07079e-10
2.35437e-10
2.19377e-10
2.14993e-10
2.21835e-10
2.24136e-10
2.21802e-10
2.18741e-10
2.16076e-10
2.13487e-10
2.10844e-10
2.08181e-10
2.05507e-10
2.02765e-10
1.99824e-10
1.96531e-10
1.92861e-10
1.89004e-10
1.21297e-10
1.22351e-10
1.25539e-10
1.3021e-10
1.40091e-10
1.41141e-10
1.44601e-10
1.61115e-10
1.86304e-10
1.76705e-10
1.74988e-10
1.81665e-10
1.8524e-10
1.84564e-10
1.82583e-10
1.80644e-10
1.78721e-10
1.76704e-10
1.74626e-10
1.72504e-10
1.703e-10
1.6791e-10
1.65199e-10
1.62122e-10
1.5886e-10
9.65159e-11
9.74109e-11
9.95934e-11
1.03442e-10
1.10554e-10
1.09688e-10
1.13284e-10
1.23687e-10
1.46167e-10
1.42235e-10
1.42426e-10
1.48116e-10
1.51972e-10
1.52368e-10
1.51264e-10
1.49971e-10
1.4864e-10
1.47152e-10
1.45537e-10
1.43852e-10
1.42083e-10
1.40143e-10
1.37928e-10
1.35359e-10
1.32575e-10
7.55777e-11
7.62914e-11
7.76852e-11
8.09326e-11
8.56034e-11
8.41852e-11
8.78226e-11
9.37135e-11
1.1393e-10
1.1424e-10
1.15964e-10
1.20733e-10
1.24443e-10
1.25373e-10
1.24786e-10
1.23971e-10
1.23195e-10
1.22283e-10
1.21157e-10
1.19869e-10
1.18442e-10
1.16841e-10
1.1497e-10
1.12765e-10
1.1032e-10
5.816e-11
5.8641e-11
5.9412e-11
6.21157e-11
6.47237e-11
6.38221e-11
6.70369e-11
7.01342e-11
8.87007e-11
9.18889e-11
9.45948e-11
9.86586e-11
1.0225e-10
1.0359e-10
1.03232e-10
1.02383e-10
1.01605e-10
1.00903e-10
1.00144e-10
9.9242e-11
9.81436e-11
9.68016e-11
9.51151e-11
9.30669e-11
9.07424e-11
4.40332e-11
4.42234e-11
4.44755e-11
4.65208e-11
4.746e-11
4.77107e-11
4.99163e-11
5.19506e-11
6.93993e-11
7.44593e-11
7.77471e-11
8.09726e-11
8.4034e-11
8.56981e-11
8.59853e-11
8.53947e-11
8.43506e-11
8.31239e-11
8.18973e-11
8.07326e-11
7.95617e-11
7.82345e-11
7.65407e-11
7.4319e-11
7.16129e-11
3.28515e-11
3.27489e-11
3.25768e-11
3.37816e-11
3.34197e-11
3.47815e-11
3.53005e-11
3.79467e-11
5.48454e-11
6.09702e-11
6.51316e-11
6.76986e-11
6.91042e-11
6.93111e-11
6.91946e-11
6.9188e-11
6.9041e-11
6.83142e-11
6.69296e-11
6.51181e-11
6.30954e-11
6.09264e-11
5.8521e-11
5.57685e-11
5.26746e-11
4.93236e-11
2.41406e-11
2.38017e-11
2.33188e-11
2.36249e-11
2.24447e-11
2.42956e-11
2.27028e-11
2.75102e-11
4.41525e-11
4.96536e-11
5.48439e-11
5.77441e-11
5.80949e-11
5.60944e-11
5.3118e-11
5.06659e-11
4.9366e-11
4.89057e-11
4.85715e-11
4.78077e-11
4.6368e-11
4.42349e-11
4.14637e-11
3.82447e-11
3.48427e-11
3.15027e-11
1.74975e-11
1.69085e-11
1.6087e-11
1.55885e-11
1.42473e-11
1.60946e-11
1.32569e-11
2.19689e-11
3.7425e-11
4.06269e-11
4.55698e-11
4.74072e-11
4.79729e-11
4.76345e-11
4.49312e-11
4.00959e-11
3.51656e-11
3.18124e-11
3.05173e-11
3.09502e-11
3.24509e-11
3.42717e-11
3.53916e-11
3.48141e-11
3.26656e-11
3.00293e-11
1.29105e-11
1.19327e-11
1.05072e-11
9.18027e-12
8.00743e-12
9.69002e-12
8.02659e-12
2.24556e-11
3.46107e-11
4.01044e-11
5.25661e-11
5.60615e-11
5.19744e-11
4.5581e-11
4.16143e-11
4.23527e-11
4.62274e-11
4.998e-11
5.18033e-11
5.19475e-11
5.13406e-11
5.09806e-11
5.23859e-11
5.75745e-11
6.71201e-11
7.94956e-11
1.04634e-11
9.06222e-12
6.89921e-12
4.65576e-12
3.25643e-12
4.24141e-12
5.41459e-12
2.3055e-11
2.75136e-11
3.75327e-11
6.11658e-11
8.61238e-11
1.15674e-10
1.50547e-10
1.86408e-10
2.18917e-10
2.45485e-10
2.68192e-10
2.91177e-10
3.1738e-10
3.48016e-10
3.82883e-10
4.20559e-10
4.56305e-10
4.84468e-10
5.069e-10
9.42346e-12
7.86188e-12
5.3337e-12
2.54103e-12
7.17986e-13
1.02998e-12
4.32005e-12
1.31514e-11
2.75912e-11
1.32231e-10
3.08146e-10
5.28814e-10
7.46143e-10
9.26292e-10
1.05673e-09
1.14833e-09
1.22068e-09
1.29075e-09
1.36481e-09
1.44191e-09
1.51814e-09
1.59264e-09
1.6684e-09
1.75666e-09
1.84888e-09
1.9286e-09
)
;

boundaryField
{
    inlet
    {
        type            calculated;
        value           nonuniform List<scalar> 
26
(
8.64271e-12
7.24472e-12
4.91963e-12
2.26531e-12
4.81071e-13
9.8234e-13
5.51525e-12
6.3815e-12
1.28195e-10
5.37513e-10
1.34221e-09
2.50532e-09
3.8773e-09
5.2969e-09
6.61864e-09
7.7804e-09
8.7775e-09
9.63921e-09
1.04112e-08
1.11395e-08
1.18645e-08
1.26363e-08
1.35213e-08
1.45763e-08
1.57387e-08
1.68876e-08
)
;
    }
    outlet
    {
        type            calculated;
        value           nonuniform List<scalar> 0();
    }
    walls
    {
        type            calculated;
        value           nonuniform List<scalar> 0();
    }
    frontAndBack
    {
        type            empty;
    }
    procBoundary0to1
    {
        type            processor;
        value           nonuniform List<scalar> 
94
(
0.00024554
0.000164967
0.000164967
0.00011208
0.00011208
7.72355e-05
7.72355e-05
5.37791e-05
5.37791e-05
3.79194e-05
3.79194e-05
2.70833e-05
2.08873e-05
2.08873e-05
1.52448e-05
1.19043e-05
1.19043e-05
8.84314e-06
6.96731e-06
5.498e-06
5.498e-06
4.15838e-06
3.29946e-06
3.29946e-06
2.51594e-06
2.00383e-06
1.59658e-06
1.59658e-06
1.2267e-06
9.79721e-07
7.82649e-07
7.82649e-07
6.03934e-07
4.83339e-07
4.83339e-07
3.73472e-07
2.99452e-07
2.40238e-07
2.40238e-07
1.8612e-07
1.49711e-07
1.20553e-07
1.20553e-07
9.37447e-08
7.57797e-08
6.13594e-08
6.13594e-08
4.79928e-08
3.90637e-08
3.18587e-08
3.18587e-08
2.51236e-08
2.06163e-08
1.69535e-08
1.69535e-08
1.35012e-08
1.11743e-08
9.26499e-09
7.69477e-09
7.69477e-09
6.22025e-09
5.19303e-09
4.33703e-09
3.62083e-09
3.62083e-09
2.95169e-09
2.46071e-09
2.04578e-09
1.69681e-09
1.40558e-09
1.40558e-09
1.14614e-09
9.50844e-10
7.87153e-10
6.48066e-10
5.29059e-10
4.27932e-10
4.27932e-10
3.37742e-10
2.70545e-10
2.21067e-10
1.85206e-10
1.55613e-10
1.2974e-10
1.07752e-10
8.82697e-11
6.86436e-11
6.86436e-11
4.57957e-11
2.83747e-11
2.77004e-11
9.30872e-11
5.27255e-10
1.99295e-09
)
;
    }
    procBoundary0to4
    {
        type            processor;
        value           nonuniform List<scalar> 
72
(
0.000201521
0.000145537
0.000106524
7.88248e-05
5.88963e-05
4.43774e-05
3.36877e-05
2.57415e-05
1.97836e-05
1.52822e-05
1.18591e-05
9.24074e-06
7.2265e-06
5.66991e-06
4.46163e-06
3.52006e-06
2.78378e-06
2.20616e-06
1.75169e-06
1.39325e-06
1.10987e-06
8.85327e-07
6.825e-07
6.825e-07
5.45558e-07
4.36528e-07
3.49593e-07
2.80192e-07
2.24717e-07
1.80324e-07
1.4477e-07
1.16272e-07
9.34108e-08
7.50594e-08
6.03202e-08
4.84769e-08
3.89563e-08
3.13002e-08
2.51422e-08
2.01884e-08
1.6203e-08
1.29966e-08
1.04173e-08
8.34282e-09
6.67474e-09
5.33402e-09
4.25693e-09
3.39214e-09
2.69833e-09
2.1422e-09
1.6969e-09
1.34078e-09
1.05639e-09
8.29649e-10
6.49256e-10
5.06134e-10
3.92894e-10
3.03669e-10
2.3467e-10
1.85702e-10
1.51024e-10
1.22403e-10
9.73506e-11
7.61989e-11
5.86341e-11
4.44232e-11
3.32074e-11
2.44955e-11
1.78917e-11
1.33883e-11
1.1028e-11
1.0014e-11
)
;
    }
    procBoundary0to5
    {
        type            processor;
        value           nonuniform List<scalar> 4(0.000278428 0.000272446 0.000265603 0.000256889);
    }
}


// ************************************************************************* //
