/*--------------------------------*- C++ -*----------------------------------*\
| =========                 |                                                 |
| \\      /  F ield         | OpenFOAM: The Open Source CFD Toolbox           |
|  \\    /   O peration     | Version:  2306                                  |
|   \\  /    A nd           | Website:  www.openfoam.com                      |
|    \\/     M anipulation  |                                                 |
\*---------------------------------------------------------------------------*/
FoamFile
{
    version     2.0;
    format      ascii;
    arch        "LSB;label=32;scalar=64";
    class       volVectorField;
    location    "375";
    object      U;
}
// * * * * * * * * * * * * * * * * * * * * * * * * * * * * * * * * * * * * * //

dimensions      [0 1 -1 0 0 0 0];

internalField   nonuniform List<vector> 
1340
(
(17.8937 14.0912 -4.02588e-18)
(17.3011 13.388 5.85689e-17)
(16.7584 12.6504 1.77767e-16)
(16.2305 11.7708 -3.80316e-16)
(15.7276 10.7713 -7.78312e-16)
(18.602 13.4344 1.5626e-17)
(18.0462 12.7909 6.70281e-17)
(17.5363 12.117 -2.01081e-16)
(17.0354 11.3122 -7.60509e-18)
(16.5537 10.3963 4.40556e-16)
(16.1583 9.42034 -8.76408e-16)
(19.2324 12.8368 -1.08267e-17)
(18.709 12.2457 -4.74162e-17)
(18.2281 11.6278 -2.57534e-17)
(17.7516 10.8884 1.74115e-16)
(17.2898 10.0457 -4.61998e-17)
(16.9057 9.14857 5.41004e-16)
(16.5983 8.18509 9.23383e-16)
(19.7963 12.2897 1.0247e-17)
(19.3019 11.7452 1.72744e-17)
(18.8468 11.1767 7.36207e-17)
(18.3929 10.4952 -2.70114e-16)
(17.9498 9.71721 -2.19027e-16)
(17.5771 8.88949 -4.95732e-16)
(17.2732 7.99853 -6.98681e-16)
(17.0571 7.06065 6.3194e-16)
(20.3031 11.7863 9.63418e-18)
(19.8349 11.2833 7.57953e-18)
(19.4032 10.7589 -3.95716e-17)
(18.9699 10.1289 2.33903e-16)
(18.5447 9.40868 5.01575e-16)
(18.1833 8.64259 3.45001e-17)
(17.8844 7.81622 1.29578e-15)
(17.6652 6.94531 -4.95008e-16)
(17.5389 6.0839 -7.5989e-16)
(20.7605 11.3209 1.2931e-17)
(20.3161 10.8554 -2.56391e-17)
(19.9058 10.3702 -2.06201e-17)
(19.4917 9.78668 -3.30303e-17)
(19.0833 9.11826 4.15257e-16)
(18.7333 8.40742 -5.62993e-16)
(18.4402 7.63908 1.83252e-16)
(18.2201 6.82843 1.23711e-17)
(18.0859 6.02643 -1.82542e-15)
(18.0362 5.2646 5.66894e-16)
(21.1748 10.8889 -1.09553e-17)
(20.7521 10.4574 2.10207e-17)
(20.3615 10.0078 1.53888e-16)
(19.9654 9.466 4.15998e-17)
(19.5729 8.84446 -2.57645e-16)
(19.2343 8.18334 2.45932e-16)
(18.9476 7.46747 -4.77766e-18)
(18.728 6.71147 9.31785e-16)
(18.5883 5.96329 1.37982e-16)
(18.5274 5.25273 -1.58439e-16)
(21.5512 10.4867 -3.20557e-18)
(21.1485 10.0861 -5.94227e-18)
(20.7761 9.66866 -1.28398e-16)
(20.3968 9.16486 -2.77804e-16)
(20.0196 8.58587 -4.13571e-16)
(19.6921 7.96981 7.36643e-16)
(19.4123 7.30164 -7.77185e-16)
(19.1944 6.59537 1.99957e-16)
(19.0512 5.89623 5.0106e-16)
(18.9817 5.2324 2.47626e-16)
(18.9784 4.60641 3.44528e-16)
(21.8939 10.111 1.86372e-17)
(21.51 9.73869 4.24415e-17)
(21.1545 9.35058 1.3657e-16)
(20.7909 8.88146 -3.50702e-17)
(20.4283 8.34131 1.57024e-16)
(20.1117 7.76627 -7.48166e-16)
(19.8391 7.1417 6.54754e-16)
(19.6239 6.4809 9.32534e-16)
(19.4787 5.82664 1.73381e-17)
(19.4026 5.20556 5.71744e-16)
(19.3884 4.62009 2.83635e-16)
(22.2069 9.75923 -2.12583e-17)
(21.8404 9.41284 3.58491e-17)
(21.5007 9.05154 -1.21666e-16)
(21.1521 8.61423 -1.30471e-16)
(20.8033 8.10969 -1.46816e-17)
(20.4975 7.57216 6.74339e-16)
(20.2323 6.98762 -9.46273e-17)
(20.0204 6.36861 -6.18291e-16)
(19.8742 5.7555 -6.16123e-16)
(19.7933 5.17374 -1.93195e-15)
(19.7703 4.62554 4.51432e-16)
(19.7965 4.11849 1.25003e-15)
(22.4932 9.42907 1.16812e-17)
(22.143 9.10656 9.18783e-18)
(21.8182 8.7699 1.33101e-16)
(21.4837 8.36186 2.84824e-16)
(21.1482 7.89007 -1.40494e-16)
(20.8529 7.387 -5.14001e-16)
(20.5952 6.83932 7.73709e-17)
(20.3872 6.25879 -7.68577e-16)
(20.2411 5.68364 3.90569e-16)
(20.1566 5.13813 7.25305e-16)
(20.1265 4.62432 -6.2772e-16)
(20.1426 4.14948 -6.89093e-16)
(22.7556 9.11864 -1.25689e-17)
(22.4207 8.81816 6.24737e-17)
(22.11 8.5042 -4.04123e-17)
(21.7889 8.12313 -3.83251e-17)
(21.4661 7.68155 -1.33261e-16)
(21.1811 7.21032 -4.05883e-16)
(20.9309 6.69668 -2.17908e-16)
(20.7271 6.15172 -6.6547e-17)
(20.5818 5.61165 2.97817e-16)
(20.4948 5.09961 4.35444e-16)
(20.459 4.61762 8.20688e-16)
(20.4667 4.17259 -2.19403e-16)
(22.9964 8.82623 -1.10033e-17)
(22.676 8.54614 -8.66452e-17)
(22.3785 8.25314 -6.88445e-17)
(22.0703 7.89702 -6.23768e-17)
(21.7598 7.48339 -4.9491e-17)
(21.4847 7.04162 2.37451e-16)
(21.242 6.55953 -1.21805e-15)
(21.0427 6.04751 1.03582e-16)
(20.8988 5.53996 1.81747e-15)
(20.8101 5.05896 4.10323e-16)
(20.7698 4.60649 -1.43839e-15)
(20.7705 4.18911 -9.97914e-16)
(20.8041 3.81301 2.1911e-16)
(23.2176 8.55037 1.31596e-17)
(22.9111 8.28918 -2.33274e-17)
(22.6261 8.01564 1.18502e-16)
(22.3301 7.6826 -4.11107e-16)
(22.0314 7.29494 -3.66883e-16)
(21.7659 6.88051 -1.92254e-16)
(21.5307 6.42769 4.57029e-16)
(21.3361 5.94632 7.79513e-16)
(21.1941 5.46898 -7.9948e-16)
(21.1044 5.01681 7.35034e-16)
(21.0606 4.5917 -4.57776e-18)
(21.0554 4.20003 -2.68267e-16)
(21.0811 3.8477 9.16619e-16)
(23.4212 8.28978 -1.02747e-17)
(23.1277 8.04615 -3.29692e-17)
(22.8547 7.79067 8.57344e-17)
(22.5704 7.4791 1.82378e-16)
(22.283 7.11556 3.58676e-16)
(22.0269 6.72656 2.62806e-16)
(21.799 6.30099 8.81568e-16)
(21.6094 5.84813 -1.48444e-15)
(21.4695 5.39896 1.29274e-16)
(21.3795 4.97361 -3.07225e-16)
(21.3329 4.57398 6.98685e-16)
(21.3227 4.20621 2.11376e-16)
(21.3418 3.87598 5.14835e-16)
(21.3842 3.57807 1.86283e-16)
(23.6086 8.0433 1.13939e-17)
(23.3276 7.81605 5.19376e-17)
(23.0659 7.57733 -1.54364e-16)
(22.7929 7.28574 7.82381e-17)
(22.5164 6.94471 3.42299e-16)
(22.2694 6.57939 -1.00196e-16)
(22.0488 6.17924 -4.55426e-16)
(21.8641 5.75301 1.10761e-15)
(21.7267 5.33007 -9.93166e-16)
(21.6368 4.92973 8.40599e-16)
(21.588 4.55385 -3.22782e-16)
(21.5737 4.20833 -4.3006e-16)
(21.5871 3.89866 -7.51692e-16)
(21.6222 3.61987 1.01701e-16)
(23.7813 7.80993 -9.21856e-19)
(23.5122 7.59796 1.44533e-17)
(23.2614 7.37487 -9.47169e-17)
(22.9991 7.10189 2.08943e-16)
(22.7331 6.78185 -3.29042e-16)
(22.495 6.43865 4.47047e-16)
(22.2815 6.06225 4.59701e-16)
(22.1019 5.66088 -4.75965e-16)
(21.9671 5.26249 -7.92665e-17)
(21.8776 4.88551 9.99969e-17)
(21.8272 4.5318 -3.8454e-16)
(21.8095 4.20703 5.29012e-16)
(21.8179 3.91649 3.22881e-16)
(21.8468 3.65547 4.58165e-17)
(23.9406 7.5888 -1.64697e-18)
(23.6828 7.39106 1.3508e-17)
(23.4424 7.18255 -4.22731e-18)
(23.1904 6.92696 -1.17888e-16)
(22.9346 6.62653 -3.61585e-16)
(22.705 6.30401 -2.8657e-16)
(22.4986 5.94984 -4.69978e-16)
(22.324 5.57176 2.21172e-16)
(22.1921 5.19633 7.56795e-17)
(22.1033 4.84118 -1.27871e-15)
(22.0517 4.50817 -2.21171e-16)
(22.0311 4.20277 -4.85242e-16)
(22.0353 3.93007 9.06315e-16)
(22.0586 3.68559 -9.63764e-16)
(22.0971 3.46471 -3.17404e-16)
(24.0875 7.37906 1.21006e-17)
(23.8406 7.19462 4.97039e-17)
(23.6101 6.99975 1.19001e-16)
(23.3681 6.76041 1.54047e-16)
(23.1221 6.47834 2.85223e-16)
(22.9008 6.17517 2.78913e-16)
(22.7012 5.84181 -8.87903e-16)
(22.5316 5.48556 -4.32817e-16)
(22.4028 5.13166 7.51938e-16)
(22.315 4.79696 1.37543e-15)
(22.2625 4.48332 6.99014e-16)
(22.2395 4.196 -1.64682e-16)
(22.24 3.93993 -2.27929e-16)
(22.2585 3.71084 1.07032e-15)
(22.2912 3.50434 -2.24952e-16)
(24.2231 7.18001 9.46536e-18)
(23.9866 7.008 -1.57114e-17)
(23.7657 6.82587 -4.98683e-17)
(23.5332 6.60173 -7.90884e-17)
(23.2967 6.33686 -7.49451e-16)
(23.0834 6.05185 -1.50545e-16)
(22.8905 5.73801 4.55369e-16)
(22.726 5.40223 4.06694e-16)
(22.6002 5.06853 -1.13789e-15)
(22.5135 4.75299 2.20289e-16)
(22.4605 4.45749 -1.13175e-16)
(22.4355 4.18708 9.29227e-18)
(22.4329 3.9465 -3.73385e-16)
(22.4472 3.73174 -5.81141e-16)
(22.4746 3.53859 2.10294e-17)
(24.3483 6.99099 -4.48881e-18)
(24.1218 6.83061 2.68051e-17)
(23.91 6.66038 4.21437e-17)
(23.6867 6.45048 1.88543e-17)
(23.4594 6.20175 1.07561e-16)
(23.2539 5.93376 6.71192e-16)
(23.0676 5.63824 -4.26194e-16)
(22.908 5.3217 3.25125e-16)
(22.7853 5.00697 1.16808e-15)
(22.7 4.70941 -9.48691e-16)
(22.6467 4.4309 8.23782e-16)
(22.6201 4.17631 5.75138e-16)
(22.6146 3.95021 9.05479e-16)
(22.6252 3.74878 -1.4593e-16)
(22.6481 3.56804 -3.70258e-16)
(22.6806 3.40539 -3.97227e-16)
(24.4639 6.81139 -1.2107e-20)
(24.2469 6.66188 -8.66228e-17)
(24.044 6.50282 1.32388e-16)
(23.8295 6.30625 -5.39882e-17)
(23.611 6.07267 5.51843e-16)
(23.4132 5.82066 -3.9305e-16)
(23.2332 5.54236 7.76765e-17)
(23.0786 5.2439 1.1646e-15)
(22.959 4.94699 -1.42131e-15)
(22.8751 4.66632 6.01022e-16)
(22.8217 4.40375 -9.77809e-16)
(22.7938 4.16396 -1.18334e-15)
(22.786 3.95137 -5.56077e-16)
(22.7933 3.76237 2.36681e-16)
(22.8121 3.59317 5.75659e-16)
(22.8398 3.44126 2.30055e-16)
(24.3629 6.50135 -3.12872e-17)
(24.1684 6.35274 -4.53056e-17)
(23.9625 6.16866 -3.0278e-17)
(23.7525 5.94932 -3.72931e-16)
(23.562 5.71232 6.65233e-16)
(23.3884 5.45021 -3.55726e-16)
(23.2385 5.16875 -1.45976e-15)
(23.1221 4.88859 1.39038e-15)
(23.0398 4.62379 1.97317e-16)
(22.9865 4.37617 4.4006e-16)
(22.9574 4.15025 5.27696e-16)
(22.9475 3.95029 -8.52728e-17)
(22.952 3.77287 9.53285e-17)
(22.9672 3.61438 -5.7517e-16)
(22.9907 3.47244 3.07408e-16)
(23.0212 3.34305 -5.76112e-16)
(24.4703 6.34854 -1.98309e-17)
(24.284 6.20972 6.44147e-17)
(24.0864 6.03737 -2.57178e-16)
(23.8846 5.8314 7.93308e-17)
(23.7012 5.60852 -6.38618e-16)
(23.5337 5.36162 1.5589e-16)
(23.3886 5.09617 3.79316e-17)
(23.2754 4.83179 -4.91588e-17)
(23.1947 4.58189 -2.26023e-16)
(23.1416 4.3483 1.17642e-15)
(23.1116 4.13538 -1.26429e-16)
(23.1 3.94721 1.02676e-15)
(23.1019 3.78057 -3.39172e-16)
(23.1139 3.63205 3.31582e-16)
(23.1337 3.49936 -2.48077e-16)
(23.1598 3.37869 4.32416e-16)
(24.5699 6.20303 -9.15652e-17)
(24.3914 6.0734 -1.19738e-17)
(24.2017 5.91205 4.13991e-16)
(24.0079 5.71866 1.49889e-17)
(23.8315 5.50904 3.8272e-16)
(23.6699 5.27647 -5.17331e-16)
(23.5295 5.02609 8.58179e-17)
(23.4194 4.77654 -2.64258e-16)
(23.3404 4.54067 2.10127e-16)
(23.2877 4.32027 -6.36651e-16)
(23.257 4.11952 -3.57565e-16)
(23.2438 3.94239 -1.1219e-15)
(23.2435 3.7858 3.44648e-16)
(23.2527 3.64653 1.31923e-16)
(23.2691 3.52242 -1.15366e-16)
(23.2913 3.40979 -1.21434e-16)
(24.6622 6.06445 6.71702e-17)
(24.4912 5.94343 1.49069e-16)
(24.3093 5.7924 -1.7535e-16)
(24.1232 5.61083 -5.37021e-16)
(23.9535 5.41369 7.88789e-17)
(23.7976 5.19461 -1.40864e-16)
(23.6618 4.95843 4.76502e-16)
(23.5549 4.72286 6.90602e-16)
(23.4776 4.50018 -4.8728e-16)
(23.4254 4.29216 -7.31374e-16)
(23.3942 4.10283 1.43495e-15)
(23.3796 3.936 6.52171e-16)
(23.3773 3.78879 -2.07962e-16)
(23.384 3.65813 1.014e-16)
(23.3974 3.54196 5.41652e-16)
(23.4162 3.43678 4.38723e-16)
(23.4398 3.33977 6.41495e-17)
(24.7477 5.93242 -1.50372e-17)
(24.5839 5.81947 -1.65555e-16)
(24.4095 5.67814 2.16935e-17)
(24.2308 5.5077 8.12781e-16)
(24.0677 5.32231 -6.83137e-16)
(23.9174 5.11592 8.12659e-17)
(23.7861 4.89311 -4.27089e-17)
(23.6823 4.67071 -4.58544e-16)
(23.6068 4.46045 1.35201e-15)
(23.5552 4.26405 2.80684e-17)
(23.5236 4.08544 -1.36147e-15)
(23.5079 3.92825 3.61761e-16)
(23.5039 3.78977 -6.26058e-16)
(23.5083 3.6671 -5.26391e-16)
(23.5191 3.5583 -2.12501e-16)
(23.5349 3.46001 9.07015e-17)
(23.5549 3.36953 5.97492e-17)
(24.8269 5.80663 -4.03931e-17)
(24.6702 5.70125 1.05538e-16)
(24.503 5.56901 1.01543e-16)
(24.3315 5.40904 -8.44042e-16)
(24.1746 5.2347 6.90713e-16)
(24.0299 5.04027 -2.71867e-16)
(23.903 4.83006 9.89544e-16)
(23.8023 4.62007 6.79892e-16)
(23.7286 4.42148 -1.95854e-15)
(23.6777 4.23603 -8.9666e-16)
(23.6458 4.06746 3.78277e-16)
(23.6291 3.91928 -1.35098e-16)
(23.6236 3.78895 4.21752e-16)
(23.626 3.67372 -3.4035e-16)
(23.6345 3.57173 -8.83679e-17)
(23.6475 3.47981 -6.96217e-17)
(23.6644 3.39536 -7.29801e-17)
(24.9003 5.68675 1.35105e-18)
(24.7503 5.58847 1.13531e-16)
(24.5901 5.46478 -1.69447e-16)
(24.4256 5.31466 4.35878e-16)
(24.2749 5.15072 -2.63975e-16)
(24.1355 4.96755 4.76443e-16)
(24.013 4.76922 -9.33252e-16)
(23.9153 4.57092 -1.09298e-16)
(23.8434 4.38332 1.61423e-15)
(23.7932 4.20814 -1.16331e-16)
(23.7612 4.049 -2.44374e-16)
(23.7437 3.90925 -6.26531e-17)
(23.7368 3.78652 5.76564e-16)
(23.7375 3.67819 3.08445e-16)
(23.7439 3.58253 -3.15634e-16)
(23.7545 3.4965 4.77859e-16)
(23.7687 3.41761 5.33573e-17)
(23.7862 3.344 -3.88409e-16)
(24.9683 5.5725 -1.10584e-17)
(24.8249 5.48087 -1.82314e-16)
(24.6714 5.3652 4.27397e-17)
(24.5137 5.22435 3.60181e-17)
(24.3689 5.0702 -3.07092e-16)
(24.2347 4.89765 -3.50796e-16)
(24.1164 4.71051 -4.60608e-16)
(24.0218 4.52322 -1.13595e-15)
(23.9518 4.34598 6.13245e-16)
(23.9024 4.18046 1.21824e-15)
(23.8703 4.03015 4.25303e-16)
(23.8522 3.8983 4.56154e-17)
(23.8441 3.78265 1.94628e-16)
(23.8432 3.68075 2.96956e-16)
(23.8477 3.59095 -3.79489e-16)
(23.8562 3.51036 -9.42087e-17)
(23.868 3.43661 3.68615e-16)
(23.8827 3.36789 -1.25815e-17)
(25.0313 5.46361 4.15246e-17)
(24.8942 5.37822 -5.81881e-17)
(24.7472 5.27008 9.57166e-18)
(24.596 5.13794 -1.87321e-16)
(24.457 4.99301 6.6876e-16)
(24.328 4.83045 1.06217e-15)
(24.2138 4.65387 -4.21157e-16)
(24.1222 4.47696 1.74405e-16)
(24.054 4.30946 -4.48939e-16)
(24.0055 4.15303 -1.0951e-15)
(23.9735 4.01101 -4.98641e-16)
(23.9548 3.88654 -3.07947e-16)
(23.9456 3.77751 -5.57212e-16)
(23.9435 3.68158 1.73718e-16)
(23.9463 3.59721 2.68188e-16)
(23.9529 3.52165 4.57864e-17)
(23.9625 3.45263 -1.91655e-16)
(23.9748 3.38843 -4.08198e-16)
(25.0897 5.35983 -4.71379e-17)
(24.9586 5.28028 1.0707e-16)
(24.818 5.17921 -1.72407e-16)
(24.6731 5.05527 -2.16122e-16)
(24.5397 4.91901 -4.25818e-16)
(24.4156 4.76587 2.89282e-17)
(24.3056 4.59924 1.09977e-15)
(24.2169 4.4321 -5.0535e-16)
(24.1505 4.27378 1.58987e-17)
(24.1029 4.12589 -2.64819e-16)
(24.0711 3.99166 5.86823e-16)
(24.0519 3.8741 1.07915e-16)
(24.0419 3.77123 -4.59822e-16)
(24.0385 3.68086 5.21941e-16)
(24.0399 3.60152 1.06224e-16)
(24.0448 3.53061 -3.02619e-16)
(24.0526 3.46596 5.81929e-16)
(24.0628 3.40592 -5.04764e-16)
(24.0754 3.34878 8.20311e-17)
(25.1437 5.26091 -9.02365e-17)
(25.0185 5.18684 6.83754e-17)
(24.884 5.0924 2.11878e-16)
(24.7453 4.97617 1.50978e-16)
(24.6174 4.84808 4.27502e-16)
(24.498 4.70381 -6.24965e-16)
(24.392 4.54655 -1.6732e-15)
(24.3063 4.38863 1.37212e-16)
(24.2418 4.23895 -1.24488e-16)
(24.1951 4.09908 8.71322e-16)
(24.1635 3.97215 1.02083e-15)
(24.144 3.86107 -2.45904e-16)
(24.1333 3.76395 4.53493e-16)
(24.1288 3.67876 -4.11511e-16)
(24.1289 3.60409 -6.48482e-16)
(24.1323 3.53747 -1.90686e-16)
(24.1384 3.47685 -2.50612e-17)
(24.1467 3.42065 5.6475e-16)
(24.1572 3.36721 -7.37235e-18)
(25.1937 5.16663 5.4263e-17)
(25.0742 5.09769 -1.60367e-16)
(24.9456 5.00947 -2.16113e-17)
(24.8129 4.9005 -2.49437e-16)
(24.6902 4.78008 1.84444e-16)
(24.5756 4.64417 6.4198e-16)
(24.4735 4.49575 1.31297e-15)
(24.3906 4.34652 -3.79997e-16)
(24.328 4.20497 -6.1375e-17)
(24.2824 4.07266 -8.41361e-16)
(24.251 3.95258 -2.57376e-16)
(24.2313 3.84754 3.98021e-17)
(24.2199 3.7558 -7.63707e-16)
(24.2145 3.67542 -5.32259e-17)
(24.2135 3.60508 4.66827e-16)
(24.2157 3.54244 4.38307e-16)
(24.2203 3.48554 -3.09766e-16)
(24.2269 3.43288 -3.10883e-16)
(24.2356 3.38285 1.67912e-16)
(25.24 5.07677 -1.23489e-17)
(25.1259 5.01264 7.34472e-17)
(25.0031 4.93026 -2.63391e-16)
(24.8761 4.8281 -7.99885e-17)
(24.7586 4.71492 2.09606e-16)
(24.6486 4.58688 -4.34798e-16)
(24.5503 4.44678 -5.401e-16)
(24.4703 4.30574 -1.20897e-16)
(24.4096 4.17184 8.36699e-16)
(24.365 4.04663 -2.82416e-16)
(24.334 3.93299 6.84336e-17)
(24.3141 3.83363 -5.92448e-16)
(24.3022 3.7469 3.52465e-16)
(24.296 3.671 2.8334e-16)
(24.294 3.60468 -2.70065e-16)
(24.295 3.54571 2.68763e-16)
(24.2984 3.49225 1.20612e-16)
(24.3036 3.44285 -3.65483e-16)
(24.3106 3.39598 3.31743e-16)
(24.3195 3.35027 5.61216e-17)
(25.2828 4.99115 3.65735e-18)
(25.1741 4.93151 -1.35837e-17)
(25.0568 4.85461 6.53918e-17)
(24.9354 4.75886 2.01477e-16)
(24.8229 4.65247 -2.93985e-16)
(24.7173 4.53185 -4.68266e-16)
(24.6228 4.3996 9.91399e-16)
(24.5456 4.26627 1.07074e-15)
(24.4867 4.13958 2.8676e-16)
(24.4432 4.02105 -2.98219e-16)
(24.4127 3.91345 3.14903e-16)
(24.3927 3.81939 6.30308e-16)
(24.3804 3.73736 -7.02052e-16)
(24.3735 3.66562 2.15072e-16)
(24.3707 3.60303 7.99745e-16)
(24.3707 3.54748 -6.06387e-16)
(24.3729 3.49718 -1.95732e-16)
(24.3769 3.45079 1.74296e-16)
(24.3825 3.40683 -1.29416e-16)
(24.3898 3.36397 3.1441e-16)
(25.3224 4.90956 -3.46545e-18)
(25.2188 4.85414 -3.7765e-17)
(25.1069 4.78236 2.23818e-16)
(24.9909 4.69263 5.15556e-17)
(24.8833 4.59265 3.21064e-16)
(24.7821 4.479 -3.32258e-16)
(24.6913 4.35415 -3.51614e-16)
(24.6169 4.22808 -3.38696e-16)
(24.5598 4.10819 -1.27071e-15)
(24.5174 3.99593 7.71122e-16)
(24.4873 3.894 -8.81258e-16)
(24.4673 3.80492 -5.60904e-16)
(24.4547 3.72727 4.0386e-16)
(24.4473 3.65942 -1.05852e-16)
(24.4437 3.6003 -2.30704e-17)
(24.4429 3.5479 -5.19538e-17)
(24.4441 3.50054 -1.51779e-16)
(24.447 3.45693 -2.77073e-16)
(24.4513 3.41564 3.63084e-16)
(24.4572 3.37542 -3.99147e-16)
(25.359 4.83183 -2.05629e-17)
(25.2603 4.78035 1.17015e-16)
(25.1537 4.71338 3.10559e-17)
(25.043 4.62931 -4.12305e-16)
(24.94 4.53534 2.24541e-16)
(24.8431 4.42827 8.32836e-16)
(24.7559 4.31038 -6.19214e-16)
(24.6842 4.19116 4.99981e-16)
(24.6291 4.07766 1.79934e-15)
(24.5877 3.97131 2.97616e-17)
(24.5582 3.87471 4.75978e-16)
(24.5383 3.79029 -1.62635e-16)
(24.5254 3.71673 -2.70314e-16)
(24.5175 3.65251 -4.39968e-17)
(24.5133 3.59661 1.16928e-16)
(24.5117 3.54714 8.16714e-16)
(24.5121 3.5025 -2.32372e-17)
(24.514 3.46145 -3.41757e-16)
(24.5174 3.42264 2.75435e-16)
(24.5221 3.38485 -1.2558e-16)
(24.5283 3.34701 6.59704e-17)
(25.3929 4.75779 1.53403e-17)
(25.299 4.71 -7.24854e-17)
(25.1974 4.64752 -7.32066e-17)
(25.0918 4.56877 5.91672e-16)
(24.9934 4.48046 -2.17554e-16)
(24.9007 4.37958 1.95905e-16)
(24.817 4.26825 -1.2037e-16)
(24.748 4.15548 -1.85225e-15)
(24.6947 4.04799 -1.58254e-16)
(24.6545 3.9472 6.78287e-16)
(24.6255 3.8556 4.2026e-16)
(24.6057 3.77556 -4.64828e-16)
(24.5926 3.70582 1.93131e-16)
(24.5844 3.64499 -3.25144e-17)
(24.5797 3.59209 -1.87103e-16)
(24.5775 3.54534 2.76911e-16)
(24.5771 3.50322 -1.90038e-16)
(24.5783 3.46454 5.16878e-16)
(24.5807 3.42803 -3.58877e-16)
(24.5843 3.39249 1.3071e-16)
(24.5893 3.35689 -7.98026e-17)
(25.4242 4.68728 -2.2641e-17)
(25.3349 4.64293 6.04777e-17)
(25.2382 4.58467 -4.27998e-17)
(25.1375 4.51091 -4.80528e-16)
(25.0436 4.42792 -4.67476e-16)
(24.955 4.33286 -1.20617e-15)
(24.8748 4.22772 1.42309e-15)
(24.8085 4.12102 6.16098e-16)
(24.7569 4.0192 3.89812e-16)
(24.7179 3.92363 -1.41854e-15)
(24.6895 3.83673 -6.12275e-16)
(24.6699 3.76079 -5.94638e-16)
(24.6567 3.69464 3.08934e-16)
(24.6482 3.63697 -1.34296e-16)
(24.643 3.58687 -1.75743e-16)
(24.6403 3.54265 1.92385e-16)
(24.6394 3.50286 -4.29799e-16)
(24.6398 3.46638 1.14406e-16)
(24.6414 3.43198 -1.55274e-16)
(24.6442 3.39853 -1.51746e-16)
(24.6481 3.36503 3.1582e-16)
(25.453 4.62014 -2.19474e-17)
(25.3682 4.57901 8.41476e-17)
(25.2764 4.52469 7.41231e-17)
(25.1805 4.45562 2.19478e-16)
(25.0909 4.37764 7.31333e-16)
(25.0062 4.28806 6.76393e-16)
(24.9294 4.18873 -2.58373e-16)
(24.8657 4.08776 2.93751e-16)
(24.816 3.99127 -4.21353e-16)
(24.7781 3.90062 1.08017e-16)
(24.7503 3.81814 9.04969e-16)
(24.731 3.74604 5.92729e-16)
(24.7178 3.68326 -1.31466e-16)
(24.709 3.62854 -3.47996e-16)
(24.7035 3.58105 -4.55644e-17)
(24.7004 3.53918 1.81811e-16)
(24.6989 3.50156 -2.63258e-16)
(24.6988 3.46713 2.86725e-17)
(24.6997 3.43469 -2.09684e-16)
(24.7017 3.40318 -7.04569e-17)
(24.7048 3.37161 8.93652e-17)
(25.4797 4.55623 -1.57228e-17)
(25.3992 4.51811 3.37986e-18)
(25.312 4.46748 -8.10171e-17)
(25.2207 4.40281 -3.54281e-17)
(25.1354 4.32953 -1.95861e-16)
(25.0546 4.24511 4.04766e-16)
(24.9812 4.15126 -1.04551e-15)
(24.92 4.05568 8.74682e-16)
(24.8721 3.96421 2.15624e-16)
(24.8353 3.87818 -6.01528e-16)
(24.8082 3.79986 7.11656e-16)
(24.7891 3.73138 -3.5632e-16)
(24.776 3.67174 1.28243e-16)
(24.7671 3.61979 3.6041e-16)
(24.7613 3.57474 1.28343e-16)
(24.7578 3.53506 -8.47372e-17)
(24.7559 3.49946 3.34332e-16)
(24.7553 3.46692 -4.68842e-16)
(24.7557 3.43631 2.85222e-16)
(24.7571 3.40659 -1.55167e-17)
(24.7594 3.37683 2.17222e-16)
(24.7629 3.34603 -2.26514e-16)
(25.5043 4.4954 -1.12652e-17)
(25.428 4.46009 5.0376e-17)
(25.3453 4.41292 3.39093e-17)
(25.2586 4.35238 1.28439e-16)
(25.1774 4.28352 -1.94382e-16)
(25.1003 4.20395 -6.45356e-16)
(25.0301 4.11526 8.52968e-16)
(24.9715 4.02475 -4.48637e-16)
(24.9253 3.93801 -4.75726e-16)
(24.8897 3.85634 1.27813e-15)
(24.8633 3.78193 -1.09635e-15)
(24.8446 3.71684 -2.12048e-16)
(24.8315 3.66016 6.89582e-16)
(24.8226 3.6108 -7.71828e-16)
(24.8166 3.56803 1.67545e-16)
(24.8128 3.5304 -2.62634e-16)
(24.8106 3.49668 5.72335e-17)
(24.8096 3.4659 7.7606e-17)
(24.8095 3.43699 -4.44995e-17)
(24.8104 3.40894 -1.55076e-16)
(24.8121 3.38085 -8.93056e-18)
(24.8148 3.35177 2.76191e-16)
(25.527 4.43753 3.36964e-17)
(25.4548 4.40484 -3.00169e-17)
(25.3764 4.3609 8.19114e-17)
(25.2941 4.30424 1.41345e-16)
(25.2169 4.23953 9.0547e-17)
(25.1436 4.16453 8.98886e-16)
(25.0766 4.08069 -1.21125e-16)
(25.0204 3.99496 -3.06231e-16)
(24.9759 3.91267 4.73289e-16)
(24.9415 3.8351 -1.72562e-15)
(24.9158 3.76437 9.19071e-16)
(24.8975 3.70247 5.68049e-16)
(24.8846 3.64857 -1.09176e-16)
(24.8756 3.60164 7.44783e-16)
(24.8695 3.56101 -6.83506e-16)
(24.8655 3.52529 4.0767e-16)
(24.8631 3.49333 5.02973e-16)
(24.8617 3.46419 -4.15233e-16)
(24.8613 3.43686 -3.62842e-17)
(24.8617 3.41036 -9.39584e-17)
(24.8628 3.38384 1.70491e-16)
(24.8649 3.35636 -7.63722e-17)
(25.5479 4.38249 3.37937e-17)
(25.4796 4.35225 -2.49485e-17)
(25.4055 4.31133 -5.61317e-17)
(25.3275 4.2583 -3.28153e-16)
(25.2542 4.1975 3.32978e-17)
(25.1845 4.12678 -7.18077e-16)
(25.1206 4.04751 -7.51432e-16)
(25.0668 3.96629 -3.77303e-16)
(25.024 3.8882 -7.41914e-16)
(24.9908 3.81448 -1.13472e-17)
(24.9659 3.74721 -3.99703e-16)
(24.948 3.68832 -3.41643e-16)
(24.9353 3.63703 -1.01698e-16)
(24.9263 3.59239 -4.95912e-16)
(24.9202 3.55376 4.22779e-17)
(24.9161 3.51984 1.41096e-16)
(24.9134 3.48951 -3.26498e-16)
(24.9118 3.4619 -1.05174e-16)
(24.911 3.43604 3.50869e-16)
(24.911 3.411 -1.07788e-16)
(24.9118 3.38593 1.98338e-16)
(24.9133 3.35995 7.53319e-17)
(25.5672 4.33015 -1.68559e-17)
(25.5027 4.30221 -3.59781e-18)
(25.4327 4.26411 -7.67671e-17)
(25.3588 4.21449 -2.06082e-16)
(25.2894 4.15735 -2.42531e-16)
(25.2233 4.09067 9.09131e-17)
(25.1624 4.0157 6.89765e-16)
(25.1108 3.93871 1.72753e-15)
(25.0698 3.86457 -7.20376e-16)
(25.0377 3.79449 -4.18738e-17)
(25.0136 3.73048 2.47387e-16)
(24.9962 3.67443 -4.35275e-17)
(24.9837 3.6256 -6.98918e-17)
(24.9749 3.5831 -4.33199e-16)
(24.9688 3.54635 -2.80527e-16)
(24.9645 3.5141 5.00333e-16)
(24.9617 3.48531 -1.44291e-16)
(24.9599 3.45913 -4.70599e-17)
(24.9589 3.43464 1.29243e-18)
(24.9585 3.41095 -2.73027e-18)
(24.9589 3.38724 -8.08467e-17)
(24.96 3.36267 -3.04356e-16)
(24.962 3.33618 8.74335e-17)
(25.5849 4.28041 -1.5542e-17)
(25.5242 4.2546 5.87831e-17)
(25.4582 4.21914 1.91412e-16)
(25.3883 4.17272 1.14273e-16)
(25.3227 4.11903 -1.97465e-16)
(25.26 4.05614 -4.24348e-16)
(25.202 3.9852 3.7508e-16)
(25.1527 3.91222 -1.21483e-15)
(25.1133 3.8418 1.96376e-15)
(25.0825 3.77514 5.11091e-16)
(25.0592 3.71421 -6.10908e-16)
(25.0423 3.66082 1.39394e-16)
(25.0301 3.6143 9.56702e-16)
(25.0214 3.57383 -6.79756e-16)
(25.0153 3.53884 2.08339e-17)
(25.011 3.50816 1.63537e-16)
(25.008 3.4808 2.20708e-16)
(25.006 3.45596 -2.37265e-17)
(25.0048 3.43275 -3.36187e-16)
(25.0042 3.41032 5.15878e-16)
(25.0042 3.38789 -4.03329e-16)
(25.0049 3.36462 3.22586e-16)
(25.0064 3.33951 4.2334e-18)
(25.6013 4.23315 -3.97326e-17)
(25.5442 4.20933 9.40842e-17)
(25.482 4.17633 -5.58481e-18)
(25.4161 4.13292 -8.53731e-17)
(25.3541 4.08246 -5.217e-17)
(25.2948 4.02314 8.55715e-16)
(25.2396 3.956 -2.32448e-16)
(25.1925 3.88679 5.83414e-16)
(25.1548 3.81987 -2.01035e-15)
(25.1252 3.75644 -3.98336e-16)
(25.1028 3.6984 9.08649e-16)
(25.0864 3.64753 5.57067e-17)
(25.0745 3.60319 -1.81861e-16)
(25.066 3.56461 -7.50836e-16)
(25.0598 3.53127 8.35883e-16)
(25.0555 3.50207 -2.65747e-17)
(25.0524 3.47605 -2.98676e-16)
(25.0502 3.45246 -3.00372e-17)
(25.0488 3.43044 7.21736e-17)
(25.048 3.40918 -9.63629e-17)
(25.0477 3.38794 3.28968e-16)
(25.0481 3.3659 -4.11117e-16)
(25.0491 3.3421 2.24486e-16)
(25.6163 4.18827 -5.22474e-18)
(25.5627 4.16631 7.76476e-18)
(25.5044 4.13561 -1.08368e-16)
(25.4423 4.09502 -2.43225e-16)
(25.3838 4.0476 2.35088e-16)
(25.3278 3.99163 -1.0806e-15)
(25.2753 3.92806 5.35933e-16)
(25.2304 3.8624 -4.61843e-17)
(25.1944 3.79877 4.88147e-16)
(25.1661 3.73838 -1.52129e-16)
(25.1444 3.68308 6.0076e-16)
(25.1286 3.63457 -2.81035e-16)
(25.117 3.59228 4.16902e-16)
(25.1085 3.55548 8.03176e-17)
(25.1024 3.5237 3.53037e-16)
(25.098 3.49587 -2.35883e-16)
(25.0947 3.47111 -2.5793e-16)
(25.0924 3.44868 2.00119e-16)
(25.0909 3.42778 -1.78878e-16)
(25.0898 3.40762 1.14003e-16)
(25.0893 3.38748 -1.53419e-16)
(25.0894 3.3666 3.33307e-16)
(25.09 3.34401 -1.75035e-16)
(25.6301 4.14566 -5.34913e-18)
(25.58 4.12544 1.18478e-17)
(25.5253 4.09688 -1.25806e-16)
(25.4669 4.05895 5.31236e-16)
(25.412 4.01438 -1.94064e-16)
(25.3591 3.96155 1.14213e-15)
(25.3092 3.90135 7.29475e-16)
(25.2665 3.83905 1.24344e-16)
(25.2322 3.77851 9.96875e-16)
(25.2051 3.72097 3.24291e-17)
(25.1843 3.66824 -8.37083e-16)
(25.1688 3.62196 -6.56291e-16)
(25.1575 3.5816 -4.12898e-16)
(25.1491 3.54646 4.85899e-16)
(25.143 3.51613 -1.89609e-17)
(25.1385 3.4896 4.96565e-16)
(25.1351 3.46601 -4.75421e-16)
(25.1327 3.44467 6.22377e-18)
(25.131 3.42481 -9.01184e-17)
(25.1298 3.40568 -1.42494e-16)
(25.129 3.38659 6.15223e-18)
(25.1288 3.36678 -9.41275e-17)
(25.1292 3.34535 1.14786e-16)
(25.6429 4.10523 4.15981e-17)
(25.596 4.08663 -6.99168e-17)
(25.5449 4.06007 2.8388e-16)
(25.4902 4.02464 -5.38122e-16)
(25.4387 3.98275 1.96243e-16)
(25.3888 3.93287 -1.34406e-15)
(25.3415 3.87584 -6.61241e-16)
(25.3009 3.81672 5.04701e-16)
(25.2683 3.75907 -1.09521e-15)
(25.2424 3.70421 4.54451e-16)
(25.2222 3.6539 8.12515e-17)
(25.2072 3.60971 5.05105e-17)
(25.196 3.57114 -2.37946e-16)
(25.1877 3.53757 -2.68317e-16)
(25.1815 3.5086 8.44758e-17)
(25.177 3.48328 3.53269e-16)
(25.1736 3.46079 -3.03015e-16)
(25.171 3.44048 4.03638e-16)
(25.1692 3.42159 -1.64162e-16)
(25.1678 3.40343 9.96024e-17)
(25.1669 3.38531 -2.43982e-16)
(25.1665 3.36653 3.00502e-16)
(25.1665 3.34618 -5.07192e-17)
(25.1673 3.32375 -1.51432e-16)
(25.6545 4.06689 -2.30551e-17)
(25.6109 4.0498 4.05063e-17)
(25.5633 4.0251 -4.24636e-17)
(25.5121 3.99203 -1.82714e-16)
(25.4639 3.95265 -4.08421e-17)
(25.4171 3.90555 8.44156e-16)
(25.3722 3.85151 3.54591e-16)
(25.3338 3.79539 -1.28859e-15)
(25.3028 3.74044 -5.93551e-16)
(25.2779 3.68807 3.72467e-16)
(25.2584 3.64003 -5.30367e-16)
(25.2437 3.5978 8.41031e-16)
(25.2326 3.56092 1.22261e-16)
(25.2243 3.52882 1.04192e-16)
(25.2182 3.50113 -1.34532e-17)
(25.2136 3.47695 7.46295e-17)
(25.2101 3.4555 -7.21929e-16)
(25.2075 3.43615 2.07726e-16)
(25.2055 3.41819 8.0924e-17)
(25.2041 3.40093 8.9669e-17)
(25.203 3.38374 -1.76685e-16)
(25.2024 3.36591 1.87342e-16)
(25.2023 3.34659 6.65501e-17)
(25.2027 3.32528 -5.7876e-17)
(25.6652 4.03054 -1.15535e-17)
(25.6248 4.01486 -2.81408e-17)
(25.5806 3.99191 1.07505e-16)
(25.5328 3.96107 1.66377e-16)
(25.488 3.92403 2.94847e-16)
(25.4439 3.87955 7.55347e-17)
(25.4013 3.82833 5.08762e-17)
(25.3652 3.77506 2.84682e-16)
(25.3358 3.72258 1.65729e-15)
(25.3118 3.67254 8.27545e-17)
(25.2928 3.62664 6.79891e-16)
(25.2783 3.58624 -7.12429e-16)
(25.2673 3.55094 -1.35001e-16)
(25.2591 3.52023 1.16575e-16)
(25.2529 3.49375 -3.70611e-17)
(25.2483 3.47065 1.45114e-16)
(25.2449 3.45018 -6.67529e-17)
(25.2422 3.43174 4.64538e-16)
(25.2402 3.41465 -4.94641e-16)
(25.2387 3.39825 3.1164e-16)
(25.2375 3.38193 -5.02377e-16)
(25.2368 3.36501 3.32107e-16)
(25.2364 3.34666 -2.55592e-16)
(25.2367 3.32639 -9.55092e-17)
(25.6751 3.9961 2.02029e-17)
(25.6377 3.98174 -1.02398e-17)
(25.5968 3.96042 -2.64409e-16)
(25.5524 3.93169 1.36059e-16)
(25.5107 3.89683 -5.67038e-16)
(25.4694 3.85484 1.67366e-16)
(25.4291 3.80628 -1.5395e-17)
(25.3952 3.75572 1.2471e-15)
(25.3674 3.70547 -1.99829e-15)
(25.344 3.65759 3.68765e-16)
(25.3253 3.6137 -7.08029e-16)
(25.311 3.57503 5.41188e-16)
(25.3002 3.54123 -2.62801e-16)
(25.2921 3.51182 -2.60708e-16)
(25.286 3.4865 1.53406e-16)
(25.2815 3.46442 -2.40286e-17)
(25.278 3.44488 -1.13412e-18)
(25.2753 3.42731 1.49296e-17)
(25.2733 3.41103 3.14975e-16)
(25.2716 3.39544 -2.18486e-19)
(25.2704 3.37992 -2.91265e-17)
(25.2695 3.36385 -1.82089e-16)
(25.269 3.34641 2.38437e-17)
(25.269 3.32713 3.45981e-17)
(25.6841 3.96348 -4.59904e-17)
(25.6497 3.95035 -3.42187e-17)
(25.6121 3.93056 2.81417e-17)
(25.5709 3.90382 -4.75201e-16)
(25.5324 3.87101 3.45837e-16)
(25.4936 3.83137 -5.51973e-16)
(25.4556 3.78532 -7.33019e-16)
(25.424 3.73735 -7.89765e-16)
(25.3974 3.6891 1.12061e-15)
(25.3745 3.64323 -9.41123e-16)
(25.356 3.60125 5.4819e-16)
(25.342 3.56421 3.53891e-16)
(25.3315 3.53182 -4.01048e-17)
(25.3235 3.50365 1.64448e-16)
(25.3175 3.47941 -4.10959e-19)
(25.313 3.4583 2.15544e-16)
(25.3095 3.43963 -1.19334e-17)
(25.3068 3.42285 -3.26766e-16)
(25.3047 3.40734 -4.78745e-17)
(25.303 3.39249 8.64604e-17)
(25.3016 3.37774 -6.48687e-17)
(25.3006 3.36246 -5.50326e-18)
(25.2999 3.34587 5.6939e-17)
(25.2997 3.32753 4.62203e-17)
(25.6923 3.93259 2.36097e-17)
(25.6609 3.92061 -2.59476e-17)
(25.6264 3.90225 6.23321e-17)
(25.5885 3.87742 5.44562e-16)
(25.5529 3.8465 8.11085e-16)
(25.5165 3.80912 1.87543e-16)
(25.4808 3.76542 4.05914e-16)
(25.4515 3.71997 -2.02441e-16)
(25.4259 3.6734 9.48298e-16)
(25.4033 3.62942 -8.66358e-16)
(25.3851 3.58929 1.84287e-16)
(25.3715 3.5538 -1.01958e-16)
(25.3612 3.52273 -1.87645e-16)
(25.3533 3.49572 -1.59638e-16)
(25.3474 3.4725 -2.03938e-16)
(25.3428 3.45228 1.45084e-16)
(25.3393 3.43441 -1.09388e-16)
(25.3365 3.41838 -3.24739e-17)
(25.3343 3.40358 -8.89894e-17)
(25.3325 3.38942 2.595e-16)
(25.331 3.37537 2.18217e-16)
(25.3298 3.36083 -2.08944e-17)
(25.3289 3.34504 -5.78557e-17)
(25.3284 3.32757 -1.2002e-16)
(25.6999 3.90335 -2.46203e-18)
(25.6713 3.89243 -7.37298e-17)
(25.6399 3.87544 1.30803e-16)
(25.6051 3.85243 -3.88627e-16)
(25.5726 3.82329 -9.7365e-16)