# p  FACE_DATA 600
# x y z  p
0.29893883 -0.05 -0.060006728 20940.934
0.29682219 -0.05 -0.060005155 20932.652
0.29471691 -0.05 -0.060001576 20925.981
0.29262294 -0.05 -0.05999591 20919.538
0.29054021 -0.05 -0.059988277 20912.598
0.28846868 -0.05 -0.059978645 20907.081
0.28640827 -0.05 -0.059967019 20900.701
0.28435895 -0.05 -0.059953476 20895.142
0.28232063 -0.05 -0.05993795 20889.99
0.28029328 -0.05 -0.059920485 20884.832
0.27827682 -0.05 -0.059901123 20879.86
0.27627121 -0.05 -0.059879855 20875.36
0.27427639 -0.05 -0.05985667 20871.241
0.2722923 -0.05 -0.059831621 20867.057
0.27031889 -0.05 -0.059804697 20863.727
0.26835611 -0.05 -0.05977592 20859.961
0.26640388 -0.05 -0.059745343 20856.609
0.26446217 -0.05 -0.059712935 20853.61
0.26253092 -0.05 -0.059678711 20850.881
0.26061007 -0.05 -0.059642689 20848.547
0.25869958 -0.05 -0.059604861 20846.6
0.25679938 -0.05 -0.059565286 20844.445
0.25490942 -0.05 -0.05952394 20843.394
0.25302965 -0.05 -0.059480842 20841.749
0.25116001 -0.05 -0.059436049 20840.735
0.24930047 -0.05 -0.059389521 20840.191
0.24745095 -0.05 -0.059341283 20839.952
0.24561141 -0.05 -0.059291325 20840.369
0.24378182 -0.05 -0.05923967 20840.736
0.24196209 -0.05 -0.059186367 20841.297
0.24015219 -0.05 -0.059131421 20842.098
0.23835206 -0.05 -0.059074821 20843.299
0.23656166 -0.05 -0.059016618 20844.333
0.23478094 -0.05 -0.058956769 20846.989
0.23300984 -0.05 -0.05889526 20849.044
0.23124831 -0.05 -0.05883224 20850.731
0.22949632 -0.05 -0.058767617 20854.305
0.22775381 -0.05 -0.058701363 20857.448
0.22602072 -0.05 -0.058633589 20860.71
0.22429701 -0.05 -0.058564274 20864.341
0.22258262 -0.05 -0.058493448 20867.959
0.22087752 -0.05 -0.058421069 20873.181
0.21918166 -0.05 -0.058347133 20877.995
0.21749499 -0.05 -0.058271732 20882.972
0.21581745 -0.05 -0.058194856 20888.297
0.21414901 -0.05 -0.058116493 20894.189
0.21248962 -0.05 -0.058036649 20900.424
0.21083923 -0.05 -0.057955337 20907.117
0.20919779 -0.05 -0.057872577 20913.915
0.20756526 -0.05 -0.057788393 20921.195
0.20594158 -0.05 -0.057702763 20929.168
0.20432674 -0.05 -0.057615707 20937.105
0.20272065 -0.05 -0.057527278 20945.032
0.20112329 -0.05 -0.057437457 20953.722
0.19953461 -0.05 -0.05734625 20962.754
0.19795458 -0.05 -0.057253621 20972.97
0.19638314 -0.05 -0.057159665 20981.756
0.19482023 -0.05 -0.05706438 20992.54
0.19326583 -0.05 -0.056967732 21002.607
0.19171991 -0.05 -0.05686975 21013.955
0.19018239 -0.05 -0.056770463 21024.415
0.18865324 -0.05 -0.056669846 21037.006
0.18713243 -0.05 -0.056567899 21048.541
0.18561991 -0.05 -0.056464666 21061.67
0.18411564 -0.05 -0.056360132 21074.314
0.18261956 -0.05 -0.056254317 21088.083
0.18113166 -0.05 -0.056147258 21100.668
0.17965186 -0.05 -0.056038987 21114.552
0.17818015 -0.05 -0.05592942 21129.213
0.17671648 -0.05 -0.055818588 21143.897
0.1752608 -0.05 -0.05570656 21158.283
0.17381308 -0.05 -0.055593324 21173.599
0.17237329 -0.05 -0.055478844 21189.232
0.17094135 -0.05 -0.055363199 21204.438
0.16951726 -0.05 -0.055246341 21221.553
0.16810096 -0.05 -0.055128258 21237.861
0.16669242 -0.05 -0.05500905 21254.384
0.16529159 -0.05 -0.054888659 21271.98
0.16389844 -0.05 -0.054767078 21289.512
0.16251293 -0.05 -0.054644372 21306.843
0.16113501 -0.05 -0.054520532 21324.731
0.15976465 -0.05 -0.054395554 21342.617
0.15840181 -0.05 -0.054269449 21361.353
0.15704647 -0.05 -0.054142171 21380.893
0.15569856 -0.05 -0.05401378 21399.523
0.15435807 -0.05 -0.053884336 21418.264
0.15302494 -0.05 -0.053753791 21437.488
0.15169915 -0.05 -0.053622161 21456.776
0.15038066 -0.05 -0.053489407 21477.487
0.14906942 -0.05 -0.053355551 21497.223
0.1477654 -0.05 -0.053220679 21517.291
0.14646858 -0.05 -0.053084715 21538.55
0.1451789 -0.05 -0.052947683 21558.924
0.14389634 -0.05 -0.052809659 21579.412
0.14262085 -0.05 -0.05267058 21601.11
0.14135242 -0.05 -0.052530426 21623.147
0.14009099 -0.05 -0.052389231 21645.418
0.13883653 -0.05 -0.052247037 21667.288
0.137589 -0.05 -0.052103837 21689.83
0.13634838 -0.05 -0.051959625 21711.804
0.13511461 -0.05 -0.051814476 21734.08
0.1338877 -0.05 -0.051668228 21759.574
0.13266759 -0.05 -0.051520967 21781.495
0.13145422 -0.05 -0.051372868 21804.552
0.13024759 -0.05 -0.051223701 21830.363
0.12904768 -0.05 -0.051073498 21854.926
0.12785442 -0.05 -0.050922382 21879.78
0.12666779 -0.05 -0.050770304 21905.357
0.12548777 -0.05 -0.050617245 21931.713
0.12431431 -0.05 -0.050463216 21957.939
0.12314738 -0.05 -0.050308326 21983.189
0.12198694 -0.05 -0.050152493 22011.684
0.12083298 -0.05 -0.049995623 22040.423
0.11968546 -0.05 -0.049837846 22068.733
0.11854435 -0.05 -0.049679177 22097.885
0.11740961 -0.05 -0.049519574 22127.866
0.11628121 -0.05 -0.049359037 22158.651
0.11515913 -0.05 -0.049197589 22189.806
0.11404333 -0.05 -0.049035234 22221.784
0.11293377 -0.05 -0.048871989 22253.951
0.11183042 -0.05 -0.048707847 22287.154
0.11073327 -0.05 -0.048542821 22320.66
0.10964229 -0.05 -0.048376866 22356.494
0.10855744 -0.05 -0.048209982 22392.106
0.10747868 -0.05 -0.048042235 22428.778
0.106406 -0.05 -0.04787359 22466.513
0.10533935 -0.05 -0.047704062 22505.016
0.10427873 -0.05 -0.047533647 22544.649
0.10322407 -0.05 -0.047362394 22583.81
0.10217536 -0.05 -0.04719032 22624.679
0.10113259 -0.05 -0.047017348 22667.586
0.10009572 -0.05 -0.046843455 22712.217
0.099064719 -0.05 -0.046668685 22756.869
0.098039551 -0.05 -0.046493118 22801.301
0.097020189 -0.05 -0.046316733 22847.464
0.096006622 -0.05 -0.046139442 22895.976
0.094998822 -0.05 -0.045961241 22945.356
0.09399675 -0.05 -0.045782217 22994.795
0.093000378 -0.05 -0.045602371 23045.858
0.092009685 -0.05 -0.045421665 23097.944
0.091024643 -0.05 -0.045240119 23151.247
0.090045231 -0.05 -0.045057701 23206.449
0.089071419 -0.05 -0.044874427 23261.788
0.088103174 -0.05 -0.044690349 23317.891
0.087140475 -0.05 -0.044505439 23374.989
0.086183302 -0.05 -0.044319662 23433.342
0.08523163 -0.05 -0.044133032 23492.545
0.084285425 -0.05 -0.043945577 23553.844
0.083344663 -0.05 -0.043757308 23617.15
0.082409325 -0.05 -0.043568191 23681.93
0.081479395 -0.05 -0.04337819 23746.856
0.080554831 -0.05 -0.043187382 23811.005
0.079635606 -0.05 -0.042995792 23875.958
0.078721718 -0.05 -0.042803304 23942.327
0.077813136 -0.05 -0.042609969 24007.072
0.076909826 -0.05 -0.042415818 24072.717
0.07601178 -0.05 -0.042220793 24137.781
0.075118966 -0.05 -0.042024932 24202.051
0.074231361 -0.05 -0.041828237 24265.141
0.073348935 -0.05 -0.04163074 24326.757
0.07247168 -0.05 -0.041432371 24388.609
0.071599572 -0.05 -0.041233139 24447.802
0.070732584 -0.05 -0.041033074 24506.234
0.069870697 -0.05 -0.040832148 24562.058
0.069013884 -0.05 -0.040630397 24616.168
0.068162134 -0.05 -0.040427777 24668.541
0.067315419 -0.05 -0.040224307 24718.514
0.06647372 -0.05 -0.040019973 24767.388
0.065637027 -0.05 -0.039814748 24814.115
0.06480531 -0.05 -0.039608654 24858.537
0.063978543 -0.05 -0.039401719 24899.877
0.063156706 -0.05 -0.039193946 24939.363
0.062339788 -0.05 -0.038985285 24977.283
0.061527775 -0.05 -0.038775725 25013.826
0.060720649 -0.05 -0.038565255 25048.977
0.059918385 -0.05 -0.038353894 25082.344
0.059120963 -0.05 -0.03814165 25114.512
0.058328367 -0.05 -0.037928504 25145.473
0.057540574 -0.05 -0.037714473 25174.719
0.056757564 -0.05 -0.037499568 25203.299
0.055979326 -0.05 -0.037283751 25232.29
0.055205861 -0.05 -0.03706696 25262.291
0.054437143 -0.05 -0.036849222 25291.453
0.053673142 -0.05 -0.036630582 25320.585
0.052913841 -0.05 -0.036411033 25349.534
0.052159229 -0.05 -0.036190552 25379.576
0.051409301 -0.05 -0.035969101 25410.593
0.050664044 -0.05 -0.035746666 25442.344
0.049923426 -0.05 -0.035523297 25474.18
0.049187444 -0.05 -0.035298949 25508.772
0.048456093 -0.05 -0.035073588 25543.661
0.047729343 -0.05 -0.034847258 25579.513
0.047007184 -0.05 -0.034619944 25616.324
0.046289611 -0.05 -0.034391604 25654.805
0.045576607 -0.05 -0.034162251 25693.432
0.044868158 -0.05 -0.033931882 25733.866
0.044164259 -0.05 -0.033700464 25775.082
0.043464894 -0.05 -0.033468005 25817.923
0.042770054 -0.05 -0.033234488 25862.019
0.042079734 -0.05 -0.032999885 25908.218
0.041393929 -0.05 -0.032764174 25955.599
0.040712625 -0.05 -0.032527361 26003.941
0.040035798 -0.05 -0.032289471 26052.386
0.039363443 -0.05 -0.032050489 26102.479
0.038695563 -0.05 -0.031810365 26154.439
0.038032168 -0.05 -0.031569045 26208.702
0.037373226 -0.05 -0.031326581 26262.628
0.036718733 -0.05 -0.03108296 26318.717
0.036068678 -0.05 -0.030838173 26374.38
0.035423063 -0.05 -0.030592193 26433.871
0.034781926 -0.05 -0.030344894 26494.74
0.034145213 -0.05 -0.030096392 26554.849
0.033512917 -0.05 -0.029846677 26617.46
0.032885063 -0.05 -0.029595666 26681.428
0.032261651 -0.05 -0.029343341 26747.414
0.031642676 -0.05 -0.029089692 26813.836
0.031028119 -0.05 -0.028834753 26880.987
0.030417981 -0.05 -0.028578493 26950.084
0.029812303 -0.05 -0.028320809 27021.984
0.029211079 -0.05 -0.028061701 27094.183
0.028614285 -0.05 -0.027801211 27167.402
0.028021925 -0.05 -0.027539318 27241.889
0.027434034 -0.05 -0.027275938 27318.951
0.02685062 -0.05 -0.027011044 27396.241
0.026271654 -0.05 -0.026744689 27474.85
0.025697179 -0.05 -0.02647678 27556.125
0.025127212 -0.05 -0.026207275 27637.947
0.024561729 -0.05 -0.025936225 27720.486
0.024000753 -0.05 -0.025663583 27805.39
0.023444337 -0.05 -0.025389243 27892.257
0.022892447 -0.05 -0.025113275 27979.406
0.022345135 -0.05 -0.024835581 28071.036
0.02180243 -0.05 -0.024556113 28162.181
0.021264293 -0.05 -0.024274957 28255.887
0.020730799 -0.05 -0.023991978 28353.001
0.020201992 -0.05 -0.023707109 28452.226
0.019677841 -0.05 -0.023420417 28552.407
0.019158403 -0.05 -0.023131824 28656.574
0.018643727 -0.05 -0.022841258 28762.052
0.018133826 -0.05 -0.022548716 28870.168
0.017628739 -0.05 -0.022254151 28979.25
0.017128472 -0.05 -0.021957583 29090.437
0.016633127 -0.05 -0.021658866 29205.276
0.016142724 -0.05 -0.021358 29320.395
0.015657283 -0.05 -0.021054987 29438.883
0.015176888 -0.05 -0.020749728 29559.247
0.014701579 -0.05 -0.020442197 29682.043
0.014231398 -0.05 -0.020132368 29806.502
0.013766434 -0.05 -0.019820157 29934.277
0.013306742 -0.05 -0.019505528 30063.124
0.012852374 -0.05 -0.019188457 30195.155
0.012403438 -0.05 -0.018868841 30329.473
0.01195997 -0.05 -0.018546687 30465.886
0.011522076 -0.05 -0.018221915 30605.249
0.011089809 -0.05 -0.017894515 30746.146
0.0106633 -0.05 -0.017564386 30891.433
0.010242659 -0.05 -0.017231451 31037.542
0.009827894 -0.05 -0.016895788 31185.731
0.0094192167 -0.05 -0.016557218 31337.949
0.0090167438 -0.05 -0.016215673 31490.742
0.0086204858 -0.05 -0.015871238 31645.055
0.0082306648 -0.05 -0.015523765 31803.428
0.0078474301 -0.05 -0.015173186 31963.663
0.00747084 -0.05 -0.014819531 32125.375
0.0071010571 -0.05 -0.014462741 32288.851
0.0067383047 -0.05 -0.014102728 32454.878
0.0063827544 -0.05 -0.013739427 32622.011
0.0060345067 -0.05 -0.013372862 32789.868
0.0056937565 -0.05 -0.013003011 32959.066
0.0053606882 -0.05 -0.012629837 33128.43
0.0050354824 -0.05 -0.012253323 33297.774
0.0047183926 -0.05 -0.01187344 33466.958
0.0044096379 -0.05 -0.011490161 33635.265
0.0041094132 -0.05 -0.011103483 33802.042
0.0038179536 -0.05 -0.010713443 33966.623
0.0035354728 -0.05 -0.01032007 34128.152
0.0032621919 -0.05 -0.0099233916 34285.968
0.0029983702 -0.05 -0.0095234712 34439.236
0.0027442429 -0.05 -0.0091203468 34587.087
0.0025000604 -0.05 -0.0087141009 34728.459
0.0022660754 -0.05 -0.0083048554 34862.213
0.0020425146 -0.05 -0.0078926699 34987.4
0.0018296563 -0.05 -0.0074776735 35103.047
0.0016277487 -0.05 -0.0070600556 35207.976
0.0014369745 -0.05 -0.006639968 35300.395
0.0012575291 -0.05 -0.0062175973 35377.651
0.0010896146 -0.05 -0.0057931737 35439.343
0.00093341057 -0.05 -0.0053669215 35488.848
0.00078906403 -0.05 -0.0049390744 35522.525
0.00065670868 -0.05 -0.0045099017 35537.788
0.00053653171 -0.05 -0.0040796665 35535.023
0.00042862038 -0.05 -0.003648665 35513.85
0.00033294635 -0.05 -0.003217232 35474.304
0.00024951873 -0.05 -0.002785685 35417.503
0.00017832255 -0.05 -0.0023543467 35341.61
0.00011930806 -0.05 -0.0019235435 35244.382
7.2389968e-05 -0.05 -0.0014936046 35126.896
3.7448893e-05 -0.05 -0.0010648563 34989.795
1.4332163e-05 -0.05 -0.0006376208 34834.012
2.8544133e-06 -0.05 -0.00021221054 34660.095
0.99884037 -0.05 -0.00016828408 26792.103
0.99652103 -0.05 -0.00050440213 26720.858
0.99420154 -0.05 -0.00083952039 26639.308
0.99188191 -0.05 -0.0011736208 26571.328
0.98956214 -0.05 -0.0015067636 26505.357
0.98724224 -0.05 -0.001838948 26443.711
0.9849222 -0.05 -0.0021701637 26384.549
0.98260201 -0.05 -0.0025004302 26327.709
0.9802817 -0.05 -0.0028297328 26273.011
0.97796124 -0.05 -0.0031580577 26220.013
0.97564065 -0.05 -0.0034854377 26168.657
0.97331994 -0.05 -0.0038118591 26118.808
0.97099908 -0.05 -0.0041373159 26070.367
0.96867808 -0.05 -0.0044618578 26023.041
0.96635697 -0.05 -0.0047854478 25977.196
0.96403572 -0.05 -0.0051081172 25932.041
0.96171435 -0.05 -0.0054299032 25888.177
0.95939284 -0.05 -0.0057507069 25845.439
0.95707121 -0.05 -0.0060705875 25803.444
0.95474946 -0.05 -0.0063895914 25762.413
0.95242757 -0.05 -0.0067076389 25722.49
0.95010556 -0.05 -0.0070248024 25682.878
0.94778343 -0.05 -0.0073411104 25644.349
0.94546118 -0.05 -0.0076564368 25606.8
0.9431388 -0.05 -0.0079708659 25569.618
0.94081631 -0.05 -0.0082844406 25533.28
0.93849369 -0.05 -0.0085971026 25497.678
0.93617096 -0.05 -0.0089088655 25462.698
0.93384811 -0.05 -0.0092197818 25428.107
0.93152514 -0.05 -0.0095298292 25394.335
0.92920204 -0.05 -0.00983897 25361.101
0.92687884 -0.05 -0.010147248 25328.371
0.92455553 -0.05 -0.01045465 25296.242
0.92223209 -0.05 -0.01076119 25264.476
0.91990855 -0.05 -0.011066875 25233.377
0.91758488 -0.05 -0.011371653 25202.919
0.91526111 -0.05 -0.011675608 25172.4
0.91293723 -0.05 -0.011978761 25142.587
0.91061324 -0.05 -0.012281 25113.445
0.90828913 -0.05 -0.012582372 25084.437
0.90596492 -0.05 -0.012882964 25055.665
0.90364059 -0.05 -0.013182677 25027.913
0.90131615 -0.05 -0.013481494 25000.181
0.89899162 -0.05 -0.013779572 24972.325
0.89666698 -0.05 -0.014076841 24945.396
0.89434223 -0.05 -0.014373142 24919.189
0.89201737 -0.05 -0.01466868 24892.196
0.88969241 -0.05 -0.014963453 24866.418
0.88736734 -0.05 -0.0152573 24840.875
0.88504217 -0.05 -0.015550344 24815.348
0.88271689 -0.05 -0.015842646 24789.907
0.88039152 -0.05 -0.016134071 24765.564
0.87806604 -0.05 -0.016424635 24740.894
0.87574046 -0.05 -0.016714466 24716.518
0.87341478 -0.05 -0.017003468 24692.632
0.871089 -0.05 -0.017291665 24668.739
0.86876312 -0.05 -0.017579058 24645.369
0.86643714 -0.05 -0.017865646 24621.958
0.86411107 -0.05 -0.018151445 24599.053
0.86178489 -0.05 -0.018436407 24576.353
0.85945862 -0.05 -0.018720606 24553.531
0.85713225 -0.05 -0.019004019 24531.346
0.85480578 -0.05 -0.019286574 24509.513
0.85247922 -0.05 -0.019568356 24487.464
0.85015256 -0.05 -0.019849417 24465.59
0.84782581 -0.05 -0.020129657 24444.367
0.84549896 -0.05 -0.020409081 24422.99
0.84317202 -0.05 -0.020687756 24401.776
0.84084499 -0.05 -0.020965643 24380.967
0.83851785 -0.05 -0.021242672 24360.757
0.83619063 -0.05 -0.021518954 24339.883
0.83386332 -0.05 -0.021794529 24319.553
0.83153592 -0.05 -0.022069294 24299.434
0.82920841 -0.05 -0.022343258 24279.553
0.82688083 -0.05 -0.02261648 24259.403
0.82455315 -0.05 -0.022888925 24239.924
0.82222538 -0.05 -0.023160547 24220.532
0.81989751 -0.05 -0.023431389 24201.364
0.81756957 -0.05 -0.023701495 24181.987
0.81524153 -0.05 -0.023970846 24163.066
0.8129134 -0.05 -0.024239417 24144.08
0.81058518 -0.05 -0.02450723 24125.368
0.80825687 -0.05 -0.024774259 24106.826
0.80592849 -0.05 -0.02504053 24088.333
0.8036 -0.05 -0.025306023 24070.15
0.80127144 -0.05 -0.025570775 24051.648
0.79894279 -0.05 -0.025834763 24033.836
0.79661404 -0.05 -0.026097924 24016.024
0.79428522 -0.05 -0.026360374 23997.935
0.79195631 -0.05 -0.026622048 23980.625
0.78962731 -0.05 -0.026882938 23962.866
0.78729823 -0.05 -0.027143126 23945.338
0.78496906 -0.05 -0.027402516 23928.139
0.78263981 -0.05 -0.02766117 23910.454
0.78031048 -0.05 -0.027919081 23893.476
0.77798106 -0.05 -0.028176144 23876.689
0.77565155 -0.05 -0.028432494 23859.313
0.77332196 -0.05 -0.028688107 23842.667
0.77099228 -0.05 -0.028942907 23825.902
0.76866253 -0.05 -0.029196968 23809.134
0.7663327 -0.05 -0.029450285 23792.461
0.76400278 -0.05 -0.029702803 23776.196
0.76167277 -0.05 -0.029954568 23759.571
0.75934268 -0.05 -0.030205572 23743.547
0.75701251 -0.05 -0.030455803 23727.14
0.75468227 -0.05 -0.030705313 23710.899
0.75235194 -0.05 -0.030954045 23694.792
0.75002152 -0.05 -0.031202018 23678.635
0.74769103 -0.05 -0.031449207 23662.855
0.74536045 -0.05 -0.031695625 23646.815
0.74302979 -0.05 -0.031941289 23631.029
0.74069906 -0.05 -0.032186181 23615.163
0.73836824 -0.05 -0.032430305 23599.564
0.73603734 -0.05 -0.032673645 23583.982
0.73370637 -0.05 -0.032916233 23568.204
0.73137531 -0.05 -0.033158092 23552.396
0.72904417 -0.05 -0.033399148 23537.193
0.72671295 -0.05 -0.033639378 23521.864
0.72438166 -0.05 -0.03387888 23506.144
0.72205028 -0.05 -0.034117645 23490.762
0.71971882 -0.05 -0.034355552 23475.947
0.71738728 -0.05 -0.034592685 23460.375
0.71505567 -0.05 -0.034829099 23445.23
0.71272397 -0.05 -0.035064674 23430.342
0.71039219 -0.05 -0.035299486 23414.955
0.70806035 -0.05 -0.035533544 23400.04
0.70572841 -0.05 -0.035766778 23385.07
0.70339641 -0.05 -0.035999269 23369.753
0.70106432 -0.05 -0.03623098 23354.794
0.69873216 -0.05 -0.036461891 23339.605
0.69639992 -0.05 -0.036691978 23324.917
0.69406759 -0.05 -0.036921269 23309.776
0.69173519 -0.05 -0.037149739 23295.485
0.68940271 -0.05 -0.037377398 23280.405
0.68707015 -0.05 -0.037604327 23265.401
0.68473751 -0.05 -0.037830471 23250.347
0.68240481 -0.05 -0.038055756 23235.952
0.68007201 -0.05 -0.038280206 23221.14
0.67773914 -0.05 -0.038503859 23206.643
0.67540619 -0.05 -0.03872673 23191.621
0.67307317 -0.05 -0.038948784 23177.195
0.67074007 -0.05 -0.039170028 23162.079
0.66840689 -0.05 -0.039390456 23147.681
0.66607364 -0.05 -0.039610024 23132.911
0.6637403 -0.05 -0.039828774 23118.47
0.66140688 -0.05 -0.040046678 23103.827
0.65907339 -0.05 -0.040263799 23088.886
0.65673983 -0.05 -0.040480085 23074.438
0.65440619 -0.05 -0.040695489 23059.904
0.65207246 -0.05 -0.040910082 23045.109
0.64973866 -0.05 -0.041123838 23030.555
0.64740479 -0.05 -0.04133674 23015.815
0.64507083 -0.05 -0.041548788 23001.375
0.6427368 -0.05 -0.04175995 22986.95
0.64040268 -0.05 -0.041970278 22972.228
0.6380685 -0.05 -0.042179754 22957.798
0.63573424 -0.05 -0.042388356 22943.18
0.63339989 -0.05 -0.042596094 22928.747
0.63106547 -0.05 -0.042802945 22914.245
0.62873098 -0.05 -0.043008941 22899.564
0.6263964 -0.05 -0.043214055 22885.16
0.62406175 -0.05 -0.043418269 22870.665
0.62172701 -0.05 -0.043621601 22856.12
0.61939221 -0.05 -0.043824069 22841.314
0.61705733 -0.05 -0.044025645 22826.883
0.61472237 -0.05 -0.044226271 22812.588
0.61238733 -0.05 -0.044426006 22797.787
0.61005222 -0.05 -0.04462488 22782.947
0.60771702 -0.05 -0.044822825 22768.374
0.60538174 -0.05 -0.045019806 22753.988
0.6030464 -0.05 -0.045215861 22739.423
0.60071097 -0.05 -0.045411024 22724.818
0.59837546 -0.05 -0.045605254 22710.404
0.59603988 -0.05 -0.045798556 22695.671
0.59370422 -0.05 -0.045990938 22681.063
0.59136849 -0.05 -0.046182352 22666.607
0.58903267 -0.05 -0.046372791 22652.231
0.58669678 -0.05 -0.046562266 22637.726
0.5843608 -0.05 -0.046750814 22622.932
0.58202475 -0.05 -0.046938396 22608.568
0.57968862 -0.05 -0.047124972 22594.157
0.57735242 -0.05 -0.047310578 22579.53
0.57501614 -0.05 -0.04749525 22564.58
0.57267978 -0.05 -0.047678924 22550.258
0.57034334 -0.05 -0.04786155 22535.881
0.56800682 -0.05 -0.048043188 22521.279
0.56567024 -0.05 -0.048223861 22506.415
0.56333356 -0.05 -0.048403536 22491.838
0.56099681 -0.05 -0.048582153 22477.522
0.55865998 -0.05 -0.04875972 22463.04
0.55632308 -0.05 -0.048936314 22448.004
0.55398609 -0.05 -0.049111879 22433.573
0.55164903 -0.05 -0.049286359 22418.903
0.54931189 -0.05 -0.049459794 22404.312
0.54697467 -0.05 -0.049632163 22389.761
0.54463737 -0.05 -0.049803468 22375.163
0.5423 -0.05 -0.049973718 22360.417
0.53996254 -0.05 -0.050142913 22345.599
0.53762502 -0.05 -0.050311035 22330.814
0.53528741 -0.05 -0.050478054 22316.206
0.53294972 -0.05 -0.050643972 22301.364
0.53061196 -0.05 -0.050808824 22286.318
0.52827412 -0.05 -0.050972558 22271.646
0.5259362 -0.05 -0.051135143 22256.875
0.5235982 -0.05 -0.051296612 22242.106
0.52126012 -0.05 -0.051456922 22227.565
0.51892198 -0.05 -0.051616121 22212.418
0.51658374 -0.05 -0.051774162 22198.048
0.51424543 -0.05 -0.051931037 22182.844
0.51190704 -0.05 -0.05208678 22168.136
0.50956857 -0.05 -0.052241321 22153.359
0.50723003 -0.05 -0.052394685 22138.504
0.50489141 -0.05 -0.052546885 22123.407
0.50255271 -0.05 -0.05269791 22108.416
0.50021394 -0.05 -0.052847701 22093.697
0.49787509 -0.05 -0.052996281 22078.608
0.49553616 -0.05 -0.053143654 22063.693
0.49319715 -0.05 -0.053289801 22048.571
0.49085807 -0.05 -0.053434697 22033.872
0.48851891 -0.05 -0.05357832 22019.103
0.48617967 -0.05 -0.053720679 22004.454
0.48384035 -0.05 -0.053861795 21989.357
0.48150097 -0.05 -0.054001669 21974.399
0.4791615 -0.05 -0.054140241 21959.564
0.47682195 -0.05 -0.054277501 21944.778
0.47448234 -0.05 -0.054413462 21929.911
0.47214264 -0.05 -0.054548109 21915.135
0.46980287 -0.05 -0.054681459 21899.931
0.46746302 -0.05 -0.054813494 21885.005
0.4651231 -0.05 -0.054944178 21869.946
0.46278311 -0.05 -0.055073496 21855.174
0.46044304 -0.05 -0.055201437 21840.278
0.45810288 -0.05 -0.055328007 21825.487
0.45576266 -0.05 -0.055453195 21810.607
0.45342237 -0.05 -0.055576996 21795.84
0.451082 -0.05 -0.05569938 21781.144
0.44874156 -0.05 -0.055820362 21766.156
0.44640104 -0.05 -0.055939944 21751.329
0.44406046 -0.05 -0.056058045 21736.888
0.44171979 -0.05 -0.056174717 21721.578
0.43937906 -0.05 -0.05628996 21706.881
0.43703826 -0.05 -0.056403696 21692.023
0.43469738 -0.05 -0.056515954 21677.303
0.43235643 -0.05 -0.056626691 21662.79
0.43001541 -0.05 -0.056735938 21647.732
0.42767432 -0.05 -0.056843696 21632.887
0.42533316 -0.05 -0.056949929 21617.945
0.42299193 -0.05 -0.057054582 21603.679
0.42065064 -0.05 -0.05715767 21588.774
0.41830927 -0.05 -0.057259223 21574.16
0.41596783 -0.05 -0.057359191 21559.458
0.41362634 -0.05 -0.057457551 21545.17
0.41128476 -0.05 -0.057554292 21530.612
0.40894313 -0.05 -0.057649427 21516.043
0.40660142 -0.05 -0.057742965 21501.109
0.40425966 -0.05 -0.057834838 21486.951
0.40191783 -0.05 -0.057925023 21472.332
0.39957593 -0.05 -0.058013541 21458.056
0.39723398 -0.05 -0.058100379 21443.353
0.39489196 -0.05 -0.058185525 21429.129
0.39254988 -0.05 -0.058268918 21414.958
0.39020774 -0.05 -0.05835059 21400.54
0.38786553 -0.05 -0.058430541 21386.26
0.38552326 -0.05 -0.058508715 21372.289
0.38318094 -0.05 -0.058585094 21358.353
0.38083857 -0.05 -0.058659688 21344.377
0.37849613 -0.05 -0.058732482 21330.397
0.37615364 -0.05 -0.058803471 21316.326
0.37381109 -0.05 -0.058872605 21302.798
0.37146848 -0.05 -0.058939856 21289.176
0.36912583 -0.05 -0.059005237 21275.703
0.36678312 -0.05 -0.059068742 21262.069
0.36444037 -0.05 -0.059130354 21248.631
0.36209757 -0.05 -0.059190049 21235.037
0.35975471 -0.05 -0.059247824 21221.705
0.35741181 -0.05 -0.059303603 21208.948
0.35506886 -0.05 -0.059357402 21195.851
0.35272586 -0.05 -0.059409225 21183.166
0.35038283 -0.05 -0.059459044 21170.22
0.34803975 -0.05 -0.059506859 21157.689
0.34569662 -0.05 -0.059552581 21145.654
0.34335347 -0.05 -0.059596249 21133.044
0.34101027 -0.05 -0.059637862 21121.097
0.33866703 -0.05 -0.059677333 21109.332
0.33632377 -0.05 -0.059714702 21097.465
0.33398046 -0.05 -0.059749909 21086.381
0.33163712 -0.05 -0.059782951 21074.648
0.32929376 -0.05 -0.059813858 21063.335
0.32695037 -0.05 -0.059842535 21052.559
0.32460696 -0.05 -0.059868969 21041.981
0.32226351 -0.05 -0.059893141 21031.851
0.31992004 -0.05 -0.059915067 21021.404
0.31757656 -0.05 -0.059934727 21011.548
0.31523306 -0.05 -0.059952066 21001.848
0.31288954 -0.05 -0.059967055 20992.748
0.31054601 -0.05 -0.059979678 20983.524
0.30820246 -0.05 -0.059989926 20974.453
0.30585891 -0.05 -0.059997792 20964.784
0.30351535 -0.05 -0.060003209 20955.937
0.30117179 -0.05 -0.060006157 20947.547
