/*--------------------------------*- C++ -*----------------------------------*\
| =========                 |                                                 |
| \\      /  F ield         | OpenFOAM: The Open Source CFD Toolbox           |
|  \\    /   O peration     | Version:  2306                                  |
|   \\  /    A nd           | Website:  www.openfoam.com                      |
|    \\/     M anipulation  |                                                 |
\*---------------------------------------------------------------------------*/
FoamFile
{
    version     2.0;
    format      ascii;
    arch        "LSB;label=32;scalar=64";
    class       volScalarField;
    location    "25";
    object      div(phi);
}
// * * * * * * * * * * * * * * * * * * * * * * * * * * * * * * * * * * * * * //

dimensions      [0 0 -1 0 0 0 0];

internalField   nonuniform List<scalar> 
10720
(
0.105197
0.0184301
0.0352294
0.0239547
0.0277326
0.024945
0.0206778
0.0218635
0.0203723
0.0209185
0.0193422
0.0181783
0.0157447
0.0149189
0.0140963
0.0147635
0.0154457
0.0176773
0.0189065
0.0230256
0.0181006
0.0204192
-0.0100202
0.00333923
0.0444432
0.14168
0.133599
0.024199
-0.246637
-0.516551
0.629226
0.206834
-0.295816
-0.0533312
-0.0503449
0.128639
0.11772
-0.0360622
0.143226
0.0281704
0.1184
0.0693135
0.139854
0.130133
0.0549516
0.0487599
0.051816
0.034646
0.0293472
0.0232856
0.0227316
0.0192922
0.0213367
0.0197409
0.0237714
0.0248214
0.0324105
0.0341125
0.0458052
0.0381147
0.0443669
-0.0139825
-0.0335316
-0.0341431
-0.0185011
-0.00526748
-0.00293432
0.0401982
-0.0205976
-0.000680701
0.00444528
-0.000632518
-0.00655602
-0.0198576
0.00473937
0.00543691
-0.00740481
0.0129651
0.0694086
0.025816
0.0318832
0.0217241
0.0271534
0.023502
0.0213686
0.018387
0.0197066
0.0193641
0.0181787
0.0167652
0.0146045
0.0135548
0.0119651
0.0128751
0.0123274
0.0146137
0.0143739
0.0171712
0.0121655
0.00765892
-0.0184548
-0.024873
-0.0138571
0.0179383
0.074417
0.0842388
-0.0413247
-0.139402
0.167439
0.0636304
-0.126957
-0.033219
0.0157524
0.0874646
0.13294
0.014747
0.164614
0.0573074
0.0630995
0.0631667
0.070889
0.0702036
0.0395523
0.0778453
0.0360907
0.0316911
0.025046
0.0242803
0.021851
0.0226722
0.023147
0.0228388
0.0260479
0.0263968
0.0333069
0.0347884
0.0448428
0.0393736
0.0386801
-0.0148583
-0.041646
-0.0550302
-0.0311519
-0.018297
0.00301394
0.0357992
-0.0244966
0.00502551
0.000368708
0.000200319
-0.00975842
-0.0226992
-0.0143652
-0.00916122
-0.008846
0.0121948
0.0379583
0.0351837
0.0126306
0.0294702
0.0207318
0.0206498
0.019382
0.0182267
0.0174746
0.0167246
0.0163536
0.0146002
0.014544
0.0136517
0.0147911
0.0154387
0.0171816
0.0181067
0.0199925
0.0193695
0.0187696
0.0118075
0.00590599
0.00465629
0.0187304
0.0271524
0.0340642
-0.0246815
-0.172352
-0.257497
0.28166
0.164282
-0.234696
-0.0166859
-0.0594436
0.125411
0.069141
-0.0529168
0.0576207
0.0505945
0.0337028
0.044525
0.0519748
0.0342283
0.0515178
0.0481194
0.0315618
0.0262175
0.0226904
0.0211231
0.0201919
0.0223826
0.0214143
0.0242457
0.0235953
0.027613
0.0292051
0.0347714
0.0370739
0.0385657
0.030217
0.00386265
-0.0180089
-0.0201984
-0.01819
-0.0145119
-0.0141266
0.0171651
-0.0165863
-0.0112067
-0.000580381
-0.00770263
-0.00602873
-0.0180595
0.0149574
0.013826
-0.000181297
0.0181035
0.0491707
0.015105
0.0267272
0.0149727
0.0196881
0.0214038
0.015548
0.0150171
0.0151719
0.0152183
0.0145267
0.0143007
0.0137707
0.0134846
0.0141635
0.0142864
0.0166795
0.0172094
0.0192275
0.0185173
0.0159075
0.00652339
-0.0104571
-0.0210439
-0.0188218
-0.00650592
0.0192767
0.043366
-0.000489582
-0.0484655
0.0894577
0.0386264
-0.0879477
-0.011284
-0.0087706
0.0696961
0.0936638
0.00881999
0.116705
0.0283546
0.026435
0.0325492
0.0301572
0.0489331
0.0553789
0.0283478
0.0272132
0.0221777
0.0227759
0.0203028
0.0239863
0.0244253
0.0269029
0.0283269
0.0286993
0.0315211
0.0329117
0.0387812
0.0397175
0.0418288
0.0296327
0.00223038
-0.0293337
-0.0435572
-0.0428114
-0.0321611
-0.0178239
0.00763958
-0.0284048
-0.00764647
-0.00505257
-0.00527016
-0.00946102
-0.0200265
-0.00679147
0.000320287
0.00168547
0.0295152
0.0522493
0.0233392
0.0177087
0.0189945
0.021351
0.013316
0.017212
0.0139126
0.0134421
0.0135185
0.0128113
0.0132705
0.0127335
0.0139583
0.0139245
0.0157696
0.0164099
0.0179093
0.0177236
0.0179978
0.0150786
0.0110472
0.00555406
0.00648359
0.0125264
0.0249398
0.0234813
-0.0141316
-0.166575
-0.277372
0.269176
0.289252
-0.184158
-0.021737
-0.0616345
0.106909
0.0414106
-0.0650293
0.0418941
0.0170229
0.0277676
0.0228281
0.03853
0.0249877
0.0436363
0.0282437
0.0220357
0.0217398
0.0188432
0.02075
0.0221071
0.023803
0.0264098
0.0253337
0.0276095
0.0259355
0.0304849
0.0302893
0.034698
0.030888
0.0276168
0.00801312
-0.00153778
-0.0143217
-0.0132505
-0.0168752
-0.0141208
0.00326506
-0.00502453
-0.0123544
-0.00103247
-0.00817583
-0.00550448
-0.0161346
0.019809
0.0151593
0.00145061
0.0150289
0.0337799
0.0268303
0.021954
0.0221807
0.0145388
0.0222627
0.0122713
0.0130724
0.0129506
0.0127643
0.0140163
0.013255
0.0146134
0.014902
0.0154849
0.0167083
0.0176169
0.0198647
0.0194958
0.0196477
0.0151004
0.00785974
-0.00523204
-0.0150795
-0.0182922
-0.010643
0.0100702
0.0348602
-0.00229951
-0.0736008
0.0908774
0.0626632
-0.0666398
-0.000561272
-0.00887685
0.0513417
0.0621923
0.00606339
0.0954791
0.0262493
0.021434
0.0267107
0.0300471
0.0586058
0.024606
0.0172842
0.0230879
0.0223813
0.0200039
0.0232975
0.0234434
0.0279668
0.0285515
0.0305277
0.0304044
0.0315831
0.0343745
0.0360009
0.038492
0.0363974
0.0283678
0.0100431
-0.0139577
-0.030978
-0.0412221
-0.036376
-0.0285407
-0.00564176
-0.0251228
-0.0123565
-0.0059011
-0.00485125
-0.0076722
-0.0154271
-0.00248576
0.00335469
0.0056762
0.0335387
0.0376934
0.0265707
0.0249719
0.0215564
0.0231786
0.0115262
0.0158326
0.0118986
0.013161
0.0139529
0.0134144
0.0138371
0.0144673
0.0142225
0.0152587
0.0148491
0.0161222
0.0155602
0.0158259
0.0137649
0.0121459
0.00716885
0.00496197
0.00312735
0.00797732
0.0165302
0.0201049
-0.0157923
-0.184416
-0.349114
0.355955
0.257496
-0.154127
-0.0274698
-0.060142
0.0865908
0.0303149
-0.0674095
0.0412493
0.0292999
0.0209392
0.035681
0.0221297
0.0497261
0.0118208
0.0290509
0.0230351
0.0203883
0.0216272
0.0202908
0.0238084
0.0252914
0.0265322
0.0273156
0.0254624
0.0275244
0.0264587
0.02978
0.0266326
0.0288106
0.0185813
0.0158712
-0.000938904
-0.000718485
-0.01498
-0.0085906
-0.0166755
0.00548506
0.00117904
-0.00771082
-0.000949284
-0.00705682
-0.00442497
-0.0142595
0.0214917
0.013982
-0.000208215
0.00865203
0.049788
0.0315363
0.0291773
0.0193412
0.0176835
0.0192234
0.00967391
0.0127459
0.0112668
0.0141908
0.014769
0.0158654
0.0156981
0.0175723
0.0176204
0.0180888
0.0192265
0.0198026
0.0202032
0.0180147
0.0152375
0.00834188
0.000152375
-0.00841069
-0.0127132
-0.00861553
0.00736812
0.0276776
-0.00638912
-0.119002
0.154767
0.020564
-0.0396667
0.00584799
-0.000445442
0.0418559
0.0427788
0.00519256
0.0827472
0.0213366
0.0352359
0.0171052
0.0537194
0.0282222
0.0277112
0.013257
0.0285973
0.022632
0.0228561
0.0219604
0.0251889
0.0254163
0.0282104
0.0271036
0.0288617
0.0290169
0.0317836
0.0322452
0.0336316
0.0306021
0.0258431
0.0132738
-0.00283641
-0.0189261
-0.0317726
-0.0333851
-0.0291014
-0.0100814
-0.0203121
-0.0147724
-0.00620668
-0.00336012
-0.00554707
-0.0121891
-0.0010555
0.00232018
0.00486151
0.0276102
0.046438
0.0270149
0.0175479
0.0339857
0.0129069
0.00877675
0.0169666
0.0108599
0.0139874
0.0135488
0.0151488
0.0154552
0.0160573
0.0165043
0.0157805
0.0159876
0.0147462
0.0149049
0.0125399
0.0114883
0.00791998
0.00538029
0.00177795
0.000213324
0.0013474
0.00506341
0.0101052
-0.0273472
-0.167064
-0.336465
0.42503
0.188406
-0.128361
-0.034459
-0.0579405
0.073698
0.0254622
-0.0679447
0.0336983
0.0364129
0.0201538
0.0526896
0.0463807
0.0319332
0.0154153
0.0264388
0.0170447
0.0225141
0.0185304
0.0211929
0.0207163
0.0234565
0.0233692
0.0235988
0.0238802
0.0236772
0.0252393
0.0234325
0.0243194
0.0194217
0.0185455
0.00989085
0.00698162
-0.00203742
-0.00448509
-0.00929709
-0.0076798
0.00347004
0.00588667
-0.0052065
0.000123592
-0.00613204
-0.00483842
-0.012126
0.0212971
0.0116969
-0.00116616
0.00198852
0.0540395
0.0576194
0.055765
0.0169071
0.0409939
0.0278839
0.00826178
0.0129514
0.0136466
0.0136634
0.0123352
0.0150436
0.0182972
0.0182536
0.0196135
0.0192615
0.0192716
0.0196916
0.0186327
0.0168231
0.0137441
0.00913474
0.00342569
-0.0027827
-0.00633546
-0.00476081
0.00710462
0.0199952
-0.00433311
-0.085934
0.108995
0.00598598
-0.0259245
0.00719877
0.00418801
0.0382992
0.0270779
0.00569606
0.0657156
0.0424922
0.0611117
0.0442893
0.0615118
0.0480259
0.0113899
0.0142287
0.0265653
0.0151557
0.0184647
0.0205092
0.0201182
0.0219349
0.0211716
0.0229973
0.0224565
0.0253549
0.0252931
0.0275859
0.025637
0.0258118
0.0202432
0.0151213
0.00206125
-0.00753054
-0.0217677
-0.0234025
-0.0248752
-0.00880656
-0.0168546
-0.015275
-0.0076683
-0.00281937
-0.00368775
-0.00973155
-0.000903657
0.000130815
0.00233267
0.0196754
0.0684468
0.0438543
0.0134623
0.0386174
0.0305718
0.0137114
0.0383354
0.0201287
0.0122633
0.0155471
0.0174318
0.0148319
0.0159166
0.0170612
0.0169813
0.015675
0.0149144
0.0127339
0.0114479
0.00818894
0.0063918
0.00268654
0.0003911
-0.0024153
-0.00425729
-0.00242966
-0.00412002
-0.0294073
-0.141662
-0.257799
0.298786
0.15739
-0.0983371
-0.0395809
-0.0584324
0.0564777
0.0235252
-0.0641554
0.0296489
0.0436486
0.0447447
0.0412739
0.0534475
0.0295015
0.0448872
0.0146523
0.0200491
0.0134476
0.0133501
0.0140323
0.0171184
0.0161422
0.0181123
0.017789
0.0193098
0.01969
0.0201838
0.0195731
0.0175663
0.0160749
0.0124058
0.0101209
0.00467234
0.00281495
-0.00307932
-0.00224724
-0.00495165
0.00542559
0.00602614
-0.00222901
-0.000203586
-0.0049126
-0.00520363
-0.0112084
0.0200261
0.0102639
-0.00226496
-4.29057e-05
0.0472634
0.0443395
0.0398059
0.0149276
0.0185061
0.0335432
0.0231464
0.0199833
0.0370864
0.0137874
0.00823623
0.0155581
0.0164124
0.0187859
0.0185028
0.0189338
0.0178279
0.0176007
0.0163452
0.0146252
0.0118974
0.00908903
0.00507832
0.00131253
-0.00178713
-0.000278164
0.0067185
0.0157335
-0.00486378
-0.048724
0.0476961
-0.00517121
-0.0226785
0.00147781
0.000129229
0.0333193
0.0164419
0.00547699
0.0528507
0.0500591
0.0450339
0.0425346
0.0180427
0.0445388
0.0146433
0.0434749
0.0111877
0.011395
0.0122298
0.0132448
0.0139552
0.0139407
0.0153403
0.0152776
0.0174674
0.0177964
0.0200288
0.0189903
0.0203548
0.0179624
0.0176955
0.012243
0.00702588
-0.00179933
-0.00997402
-0.0144751
-0.0154782
-0.00728363
-0.0124671
-0.0151597
-0.00883157
-0.00386302
-0.0026
-0.00748422
-0.000892047
-0.00151061
-2.03835e-05
0.0124566
0.0519519
0.0463355
0.00738042
0.0294456
0.0240464
0.0106019
0.020514
0.0325229
0.0169477
0.0313557
0.0161425
0.0113946
0.0142467
0.015324
0.015826
0.0146139
0.0128672
0.0113881
0.00886719
0.00705013
0.00419061
0.00221626
-0.000639197
-0.00323877
-0.00596022
-0.00720867
-0.00890154
-0.0283316
-0.107124
-0.173908
0.196804
0.121704
-0.0647842
-0.0393655
-0.0618587
0.0400002
0.0233703
-0.0595326
0.0244403
0.0289157
0.0345327
0.0267508
0.0460379
0.0102536
0.0368726
0.0174403
0.0413267
0.00350508
0.00750625
0.00994748
0.00889486
0.0110434
0.010713
0.0131743
0.0131473
0.0152103
0.0144577
0.0146287
0.0128162
0.0119861
0.00959471
0.00785873
0.0048029
0.00330904
0.000302927
0.000496181
-0.000668694
0.00494599
0.00466775
-0.00114023
-0.000236164
-0.00475232
-0.00589558
-0.0101779
0.0188575
0.00915366
-0.0021783
-0.00129
0.0268313
0.0249325
0.0297354
0.00724379
0.0125278
0.025684
0.0201402
0.00733182
0.0296172
0.0204545
0.0159205
0.0127692
0.0152368
0.0152756
0.0161019
0.0151861
0.0147875
0.013666
0.0136789
0.0116075
0.0104413
0.00804183
0.00628235
0.00318087
0.00206241
0.00215295
0.00838267
0.0111541
-0.00223334
-0.0258318
0.0221788
-0.0132757
-0.0212416
-0.00381832
-0.0110719
0.0268682
0.0107847
0.0043848
0.0404099
0.037122
0.0280921
0.029281
0.00597979
0.0362819
0.00634406
0.0347867
0.00985115
0.0275305
0.00339816
0.00744757
0.00767858
0.00864717
0.00913531
0.0103362
0.0110681
0.0124714
0.0124416
0.01366
0.0131927
0.0141881
0.0127245
0.0118385
0.00758433
0.00382654
-0.00280511
-0.00513189
-0.00788613
-0.0039669
-0.0097372
-0.0120096
-0.0102585
-0.0044998
-0.00344005
-0.00527801
-0.000744317
-0.00229962
-0.00171822
0.00675198
0.040534
0.0238704
-0.000159933
0.0229152
0.0172509
0.0051843
0.0117295
0.0271698
0.00551832
0.0109868
0.0261618
0.00545801
0.0109914
0.0127849
0.0119565
0.0112766
0.00970363
0.00872863
0.00721192
0.00537004
0.00368727
0.00182024
-0.000158397
-0.00254393
-0.00520199
-0.00665584
-0.00819202
-0.020699
-0.0689847
-0.106703
0.13304
0.0934001
-0.0349518
-0.0325106
-0.0489925
0.0263314
0.0221308
-0.0543223
0.0239685
0.0150632
0.0211526
0.0148767
0.0329381
-0.000364295
0.0289552
0.00225973
0.0235275
0.00335539
0.0125181
0.004158
0.00590071
0.00536617
0.00760828
0.00743481
0.00951976
0.0090699
0.0104787
0.00946639
0.0101901
0.00850046
0.00834198
0.00593225
0.00523883
0.00301222
0.00272005
0.0014912
0.00224048
0.00273936
0.00326179
-0.00123249
-0.000646614
-0.00455168
-0.0068425
-0.00940878
0.0163634
0.00814853
-0.00197523
-0.000459665
0.013832
0.0159545
0.0242356
0.00340023
0.00700198
0.019325
0.0136674
-0.000393268
0.0198641
0.0144826
0.00322419
0.0241915
0.0061404
0.0106983
0.0106717
0.0104483
0.0104868
0.0103216
0.0103595
0.0100284
0.00859407
0.00787343
0.00611613
0.00498737
0.00359447
0.00506108
0.00819424
0.0105489
-0.00167438
-0.0115025
0.0101442
-0.0151386
-0.0189688
-0.00671788
-0.0127236
0.0221493
0.00958984
0.00263807
0.0298772
0.0231445
0.0175418
0.017918
-0.00207458
0.0257697
-0.00154416
0.0225576
0.000185778
0.00819384
0.00855345
0.00127345
0.00381427
0.00492325
0.00546111
0.00614114
0.00671447
0.00713679
0.00796103
0.00844118
0.00961313
0.00969413
0.0105847
0.00937773
0.00883828
0.00536164
0.00314617
-0.000229047
-0.00115028
-0.00228065
-0.00564151
-0.00909848
-0.00903528
-0.00555802
-0.00418243
-0.00410467
-0.000367309
-0.00231576
-0.00250092
0.00269334
0.0215975
0.0220313
-0.00174743
0.0169962
0.0128628
0.0013106
0.0065621
0.0203636
0.00083744
0.0060887
0.0175547
0.00502278
0.0152878
0.00802388
0.0077892
0.00723878
0.00715146
0.00666152
0.00639123
0.00488647
0.00380711
0.00218055
0.000892487
-0.00107772
-0.00274456
-0.00390876
-0.00405682
-0.0106971
-0.039255
-0.0571158
0.0836509
0.0620428
-0.016878
-0.0225053
-0.0369057
0.0180981
0.0205191
-0.0484185
0.023141
0.00679791
0.0129694
0.00791089
0.0230629
-0.00399602
0.0194032
-0.00295157
0.0138877
0.00359507
0.00259246
0.00571962
0.00183117
0.00360207
0.00346784
0.00497823
0.00458306
0.00617221
0.00601007
0.00757056
0.00690781
0.0076512
0.00621688
0.0059677
0.00415989
0.00386693
0.00243749
0.00293312
0.00164459
0.0022878
0.000759636
-0.000619785
-0.00187498
-0.00423923
-0.00694206
-0.00898992
0.0145863
0.00750603
-0.00147576
0.000651912
0.00816146
0.00896837
0.0178624
-1.15602e-05
0.00470193
0.0144081
0.00987698
-0.00363314
0.0144319
0.00955952
0.00056599
0.00777071
0.0102366
0.00412773
0.00625483
0.007062
0.00770409
0.00851954
0.0089281
0.00895701
0.00821883
0.00720428
0.00645071
0.0053267
0.00508161
0.00601627
0.00882281
0.00906695
-0.000273527
-0.00434456
0.00306858
-0.0140815
-0.0153671
-0.00658199
-0.0116309
0.0191535
0.00992354
0.000895512
0.0218801
0.0183112
0.0107679
0.0113707
-0.00461619
0.0180076
-0.00474191
0.0149318
-0.00279649
0.00437855
0.00432725
0.00174834
0.00077495
-5.32636e-05
0.00262949
0.00316403
0.00366761
0.00417471
0.00497713
0.00589953
0.00646264
0.0075413
0.00758503
0.00837998
0.00741323
0.00671756
0.00480195
0.00322346
0.00169784
-1.44702e-05
-0.00275306
-0.0058051
-0.00686281
-0.00563235
-0.0043648
-0.0039885
0.000137823
-0.00197506
-0.00271773
0.000304546
0.0207852
0.0118761
-0.00364824
0.0138934
0.00894684
-0.00053934
0.00366234
0.0152371
-0.00105391
0.00309263
0.0106923
0.00484137
0.00702482
0.0077202
0.00517517
0.00569045
0.0062694
0.0069074
0.00643959
0.00569191
0.00411086
0.00316629
0.00168511
0.000806024
-0.000596967
-0.000472286
-0.000532819
-0.0025439
-0.0208872
-0.0251483
0.0441606
0.0345426
-0.00545344
-0.0158352
-0.0297859
0.0139414
0.0182578
-0.0437615
0.0242771
0.00362495
0.0085207
0.00522107
0.0164473
-0.00597333
0.0139072
-0.00499791
0.0104824
0.00252556
0.00112907
0.000692058
0.00201014
0.00281279
0.00150849
0.00190481
0.00319423
0.00327359
0.0049656
0.00494578
0.00624705
0.00558221
0.00599465
0.00460809
0.0043225
0.00293084
0.00322709
0.00180504
0.00219981
0.000343137
0.000686889
-0.00175886
-0.00151466
-0.00441753
-0.00595873
-0.0086325
0.0113311
0.00642685
-0.000978447
0.00150584
0.00551086
0.00686412
0.0152428
-0.000620327
0.00274618
0.0115142
0.00652736
-0.00424611
0.0107351
0.00656357
-0.0011183
0.00403975
0.00346629
0.0063403
0.00241344
0.00508875
0.00731849
0.00741186
0.00853657
0.00860909
0.00773918
0.00684391
0.00609187
0.00542739
0.0053327
0.00635356
0.0082689
0.00762871
0.000963206
-0.00158239
-0.000790133
-0.0108579
-0.0110388
-0.00523032
-0.0085465
0.0163341
0.0103337
0.000612879
0.0179307
0.012771
0.00782399
0.00722014
-0.00514816
0.0134069
-0.00495603
0.0116064
-0.00207692
0.00482781
0.00376347
0.00654945
0.00154819
-0.00122366
0.00219302
0.0022599
0.00237626
0.0031316
0.00372162
0.00435247
0.00499245
0.00529462
0.00605194
0.00610549
0.00647503
0.00601225
0.00525174
0.0040714
0.00297507
0.00113136
-0.000615056
-0.00339456
-0.00438193
-0.00482959
-0.00390695
-0.00400633
0.000736399
-0.0015912
-0.00221665
-0.000361779
0.0119555
0.0128798
-0.00306688
0.0108856
0.00697151
-0.00142386
0.00258706
0.0121422
-0.00188346
0.00159389
0.00743167
0.0015242
0.00329303
0.00319642
0.00586224
0.00567896
0.00572249
0.00674247
0.00668335
0.00581125
0.0047061
0.00335729
0.00262057
0.00162539
0.00138933
0.00113611
0.00234845
0.000294138
-0.00825523
-0.012565
0.0199837
0.0182321
-0.00207179
-0.0100513
-0.024182
0.0140003
0.0152428
-0.0395878
0.0221436
0.00142263
0.00611437
0.00349736
0.0124826
-0.00504927
0.010768
-0.00391268
0.00935483
0.00312949
0.00468974
0.000190352
0.00678082
0.00401113
0.000809519
0.00186635
0.00189172
0.00333012
0.00337835
0.00469312
0.00437836
0.00521189
0.00443384
0.00440354
0.00331511
0.00327219
0.00223262
0.00211362
0.000929465
0.000471879
-0.000559887
-0.00127004
-0.00197032
-0.00332038
-0.0050075
-0.00768459
0.00941331
0.00549749
-0.000628277
0.0024452
0.00366691
0.00446709
0.011595
-0.00174705
0.00232594
0.00905321
0.00522311
-0.00436663
0.00834791
0.004175
-0.00215072
0.00277124
0.00157899
0.00342635
0.00529557
0.00211938
0.00219347
0.00666961
0.00750729
0.00787116
0.00682365
0.00601052
0.0053099
0.00488416
0.0048466
0.00577941
0.00690865
0.006199
0.00149799
-0.000890248
-0.00142268
-0.00677846
-0.00739652
-0.00361595
-0.00560115
0.0142633
0.0102093
0.000534932
0.0132635
0.0114029
0.00534609
0.00509566
-0.0046303
0.0103779
-0.00454813
0.00966463
-0.00184988
0.00509952
0.0036462
0.0089201
0.00441104
0.00331053
0.00248534
0.0020963
0.0027778
0.00275688
0.00336039
0.00339348
0.00377731
0.00403752
0.00415473
0.0047541
0.00496336
0.0050572
0.00458357
0.00377214
0.00296493
0.00150976
0.000416858
-0.00179128
-0.00238282
-0.00362636
-0.0028962
-0.00357727
0.00106027
-0.000905657
-0.00158021
2.41324e-05
0.0124478
0.00716908
-0.00357309
0.00918097
0.00504506
-0.00167704
0.00170585
0.00948256
-0.00242493
0.000589622
0.00547534
0.000408034
0.00243135
0.00283856
0.00248336
0.00476314
0.0105686
0.00544219
0.00626347
0.00553166
0.00425523
0.00337425
0.00254834
0.00221109
0.00187352
0.00218263
0.0026299
0.00184861
-0.00329025
-0.0067196
0.00748174
0.00846548
0.000459079
-0.0074111
-0.0205184
0.0156255
0.0118017
-0.0375372
0.0176729
0.000682844
0.00443881
0.00287129
0.00958072
-0.00489043
0.00876282
-0.00395069
0.00806741
0.00260011
0.00467416
0.000297079
0.00291951
0.00792948
0.000168609
0.00168502
0.00262137
0.0026698
0.00341088
0.00332098
0.0040582
0.00369641
0.00411961
0.00343643
0.00329557
0.00261104
0.00222258
0.00137854
0.000791141
-0.000138006
-0.00054605
-0.00135813
-0.00151191
-0.00247672
-0.00359689
-0.00612425
0.00685293
0.00418905
-0.000305258
0.00276565
0.00255251
0.00339189
0.00976695
-0.00162608
0.0014242
0.00755343
0.00355662
-0.00395028
0.00651252
0.00309825
-0.00240345
0.00241215
0.00191725
0.00248912
0.00652236
0.00805317
0.00374094
0.00933769
0.00733372
0.00625843
0.00544889
0.0046497
0.00425392
0.0038313
0.00397651
0.0045282
0.00536066
0.00464787
0.00152222
-0.000177547
-0.000660116
-0.00311666
-0.00377714
-0.00276293
-0.00317575
0.0115585
0.00946509
0.000386821
0.0103831
0.00801972
0.00401408
0.00327621
-0.00407328
0.00828786
-0.00388732
0.00803118
-0.00168893
0.0042125
0.00242294
0.00669329
0.00429562
-0.000262777
0.00700585
0.00309691
0.00304183
0.00327707
0.00210985
0.00283772
0.00293637
0.00301681
0.00330597
0.00345121
0.00394042
0.00391568
0.00354932
0.00302782
0.00229682
0.0014057
0.000646787
-0.000822431
-0.00111755
-0.00236869
-0.00190008
-0.00289578
0.00114824
-0.000227318
-0.00105765
0.00066054
0.00677814
0.00737907
-0.00305751
0.00704852
0.00398898
-0.00175599
0.00138691
0.00784658
-0.00223306
0.000185259
0.00465873
0.000742231
0.00276923
0.00499397
0.00264641
0.01077
0.00957764
0.00660972
0.00535634
0.00444316
0.00342258
0.00270994
0.0022409
0.00199349
0.00193291
0.00207765
0.00235336
0.00180034
-0.00122082
-0.00369824
0.00178242
0.00407975
0.00202203
-0.00617185
-0.016709
0.0127322
0.00719858
-0.0275262
0.0133657
-0.000708335
0.00300552
0.00189849
0.00758091
-0.00380699
0.00707891
-0.00320807
0.00660633
0.0018742
0.00345015
-0.000910672
0.00208273
0.00537979
0.00138322
0.00303516
0.00284767
0.00156961
0.00186088
0.00199388
0.00246285
0.00339258
0.00314782
0.00331603
0.0027692
0.00243528
0.00176171
0.00109661
0.000414976
-0.000205273
-0.000625094
-0.00106417
-0.00116022
-0.00155552
-0.00260437
-0.00450633
0.00484375
0.00347073
-0.000386625
0.00273652
0.000992873
0.000975796
0.00685269
-0.00222157
0.00120351
0.00600166
0.00306752
-0.00358329
0.00537279
0.00261692
-0.00178029
0.00279706
0.00259905
0.00244585
0.0102094
0.00679273
0.011845
0.00508474
0.00440862
0.00403901
0.00364707
0.00331804
0.00296133
0.00282073
0.00283482
0.00328995
0.00382147
0.00333109
0.00145571
0.000390443
0.000337765
-0.000199465
-0.00118258
-0.00214952
-0.00133419
0.00769797
0.00674933
0.000432438
0.00833374
0.00647893
0.00241547
0.00228567
-0.00349429
0.0066401
-0.00346493
0.0065152
-0.00195515
0.003091
0.00135084
0.00538378
0.00324088
-0.000163317
0.0070923
0.00176807
0.00227985
0.0019461
0.000473274
0.00160902
0.0011992
0.00237166
0.0026459
0.00294022
0.00295745
0.0029627
0.00252023
0.00211787
0.00155438
0.00105411
0.000509183
-0.000293925
-0.000466412
-0.00135344
-0.00129786
-0.00194819
0.0010094
0.000364142
-0.000738017
0.00105212
0.00542513
0.00326556
-0.00366099
0.0055323
0.00275199
-0.00170085
0.000952559
0.00640107
-0.00200836
0.000282523
0.00453812
0.00104927
0.00289663
0.00574854
-0.000869115
0.00903716
-0.000221647
0.00275034
0.0028804
0.00261949
0.00217975
0.00183061
0.00165822
0.00154938
0.00161124
0.00168436
0.00182795
0.00140812
-0.000340888
-0.00200817
-1.58057e-05
0.00244158
0.00235465
-0.0051242
-0.0128329
0.00969577
0.00345318
-0.0190367
0.00941822
-0.000875917
0.00190195
0.00166187
0.0059952
-0.00351741
0.00577069
-0.00320548
0.00527115
0.0009684
0.00264124
-0.0008046
0.00199162
0.00573891
0.00167642
0.00602289
0.00346691
-0.000472699
0.00197158
-0.00195849
0.00257877
0.00165714
0.00305744
0.0027636
0.00254613
0.0019316
0.00136056
0.000787045
0.000221337
-0.00020184
-0.000566552
-0.000762898
-0.000848309
-0.000941337
-0.00195552
-0.00295598
0.00334861
0.00252064
-0.000265412
0.00242881
-0.00109128
0.000361466
0.00537384
-0.0020578
0.0005769
0.00498323
0.00218132
-0.00308648
0.00460539
0.00258395
-0.00123723
0.00290615
0.00250993
0.00100762
0.00814993
-0.00314174
0.00749763
-0.000923698
-0.000275522
0.00179695
0.0023041
0.00212653
0.0020067
0.00188476
0.00191103
0.00223685
0.00259467
0.0023406
0.0012903
0.000715689
0.00109611
0.00141473
0.000234434
-0.00204155
-3.30942e-05
0.00523948
0.00468614
0.000228669
0.00651039
0.00249035
0.00160875
0.00149992
-0.00290531
0.00538229
-0.00289169
0.00525918
-0.00188388
0.00239558
0.00105803
0.00501703
0.00348713
0.00110454
0.0049181
0.00551697
0.000252107
0.0040939
-0.00272499
0.00328269
-0.000719421
0.00255518
0.00237875
0.00221001
0.00223923
0.00192783
0.00164907
0.00131578
0.000933754
0.0006721
0.000286916
-4.49725e-05
-0.000204344
-0.000712668
-0.000933278
-0.001197
0.000652409
0.000648476
-0.000589328
0.000972206
0.00260674
0.00104761
-0.00304799
0.00422494
0.00219069
-0.00156871
0.00077132
0.00554382
-0.00162531
0.000283187
0.00418615
0.00116243
0.00246007
0.00448107
-0.00226991
0.00611398
-0.00302876
0.0032432
0.00419855
0.00126246
0.00148962
0.00140332
0.00118324
0.00119112
0.00123333
0.00131759
0.00137181
0.0010653
6.79282e-05
-0.00097639
-0.00017969
0.0017489
0.0016518
-0.00429138
-0.00440622
0.00671564
0.00258163
-0.0114742
0.00602128
-0.000504176
0.000613967
0.000996821
0.00486229
-0.00269118
0.00463048
-0.00259899
0.00420923
0.000716269
0.00236588
-0.000352542
0.00175126
0.00657966
0.00256473
0.00608432
0.00394664
0.000217758
0.00266999
-0.00189317
0.00176286
0.00149971
0.00208374
0.00228607
0.00176719
0.00138826
0.000934619
0.00050278
0.000131926
-0.000195033
-0.000413624
-0.000567857
-0.000556859
-0.000685796
-0.00141198
-0.00190879
0.00199346
0.0019632
-0.000195322
0.00191996
-0.00156306
0.00191168
0.00451616
-0.00192656
0.000626615
0.00398658
0.00200055
-0.00275995
0.00389318
0.00226946
-0.00101407
0.00253587
0.00198702
0.000550969
0.00616219
-0.00189324
0.00423454
0.00268982
0.000333066
0.00363057
0.00243194
0.00175917
0.00151484
0.00133098
0.00130175
0.00149422
0.00173492
0.00160484
0.00105115
0.000813211
0.00142129
0.00192876
0.000518004
-0.000101686
-0.00300775
0.00573203
0.00352523
0.000625464
0.00453048
0.000423327
0.00119002
0.00114941
-0.00242016
0.0043462
-0.00253479
0.00420284
-0.00188164
0.00185576
0.000823783
0.00421865
0.00393302
-1.15349e-05
0.00577319
0.00300778
0.00810743
0.0010454
8.00786e-05
0.000370521
-0.000712519
0.00091702
0.000626037
0.00114317
0.00118584
0.00112056
0.000907938
0.000727994
0.000489502
0.000386233
0.000105879
7.37167e-05
-0.000153091
-0.000304654
-0.000796017
-0.000664496
0.000257415
0.000720812
-0.000554513
0.000698057
0.00450363
0.00168839
-0.00234876
0.00370823
0.00164471
-0.0013732
0.000494345
0.00454096
-0.00149214
0.0001412
0.00360425
0.000867158
0.0019522
0.00342817
-0.00232445
0.00579707
-1.58183e-05
0.00524635
0.00421831
0.00231175
0.00179345
0.00134453
0.00109671
0.000983715
0.00101712
0.00105961
0.00105565
0.000840551
0.000238739
-0.000321655
8.4113e-05
0.00116724
0.000917556
-0.00546994
0.00125669
0.00372158
0.00268681
-0.00547148
0.0031302
0.00108436
0.000441739
0.00099606
0.00389064
-0.0024351
0.00373767
-0.00247421
0.00332736
0.000316852
0.0018186
-0.00036915
0.000604466
0.00544875
0.000346917
0.00578166
-0.000162273
0.00266779
-4.08817e-06
-0.00211222
-0.000334232
-0.00146934
0.000392038
0.000213648
0.000807271
0.000708306
0.000539943
0.000294864
6.22647e-05
-0.000126377
-0.000304195
-0.000346769
-0.000418517
-0.000458714
-0.00112012
-0.00115733
0.00113671
0.00141524
-1.46219e-05
0.00143252
0.000374755
0.00103318
0.00397851
-0.00143766
0.000395389
0.0033501
0.00141693
-0.0024103
0.00320445
0.00192794
-0.000995502
0.00206051
0.00149071
3.84881e-05
0.00531152
-0.00230773
0.00555391
0.00147551
0.00567901
0.0019649
0.00188456
0.00160686
0.00129462
0.00109252
0.000972046
0.00104708
0.00115778
0.00107581
0.000777613
0.000772466
0.0013567
0.00173631
-0.00013174
0.00127161
-0.00703655
0.00547216
0.00304027
0.000917753
0.00287005
0.00292017
0.00169572
0.000933528
-0.00195427
0.0035155
-0.00208078
0.00332921
-0.0016649
0.0013609
0.000478378
0.00298912
0.00249979
-0.000559553
0.0030397
0.000409638
0.00550301
0.000735097
-0.000380476
-0.000627127
-0.00141092
-0.000787325
-0.00101133
-0.000725417
3.38732e-05
0.000336944
0.000436127
0.000309246
0.000307304
0.000132902
0.000134507
-7.19969e-07
1.78532e-05
-0.000232371
-0.000507397
-0.000378616
0.000198717
0.000548791
-0.000427526
0.000378858
0.0038574
0.0014549
-0.001807
0.00303012
0.00141498
-0.00119898
0.000374975
0.00384464
-0.00132334
-3.61471e-05
0.00293806
0.000613007
0.00133977
0.00272792
-0.00250593
0.00534524
-0.00238335
0.00462824
-0.00181853
0.00126827
0.00161745
0.00140177
0.00110659
0.000920599
0.000887721
0.000877366
0.000838846
0.000669796
0.000326639
5.80867e-05
0.000292973
0.000555482
3.41358e-05
-0.00671248
0.00621296
0.00255811
0.00288863
-0.00177859
0.00137793
0.00115894
0.00101811
0.000984153
0.00324128
-0.00186146
0.00295225
-0.00197304
0.00256541
0.000111685
0.00115029
-0.000763651
-9.48911e-05
0.00316221
0.00104168
0.00112273
0.00135416
0.002625
-0.000476609
0.00111335
-0.00147449
-0.000736869
-0.00182157
-0.000678296
-0.000431229
0.000152822
0.000208714
0.000203146
3.84212e-05
-3.14692e-05
-0.000174247
-0.000177992
-0.000256708
-0.000328154
-0.000761788
-0.000661979
0.000593253
0.00102236
9.69918e-05
0.00110795
-0.000529955
0.000684503
0.00317235
-0.00127418
0.000474124
0.00268373
0.00127836
-0.00216357
0.00258197
0.00148774
-0.000975372
0.00154188
0.00107733
-0.000258779
0.00421829
-0.00277724
0.00451232
-0.00282001
0.00394984
3.46265e-05
0.00145795
0.0014375
0.00120884
0.000945308
0.000785464
0.000760541
0.000813602
0.000720983
0.000567898
0.00065592
0.00106232
0.00110631
-0.000946314
0.00194219
-0.0114312
0.00423621
0.00257315
0.00110983
0.00156402
0.00324757
0.00135972
0.000784752
-0.00163306
0.00280573
-0.0018066
0.00259579
-0.00156975
0.00088179
4.49266e-05
0.00177086
0.00148045
-0.000724585
0.00194301
0.000579543
0.00227164
4.3509e-05
0.00263649
-0.000487632
0.000463229
-0.00126468
-0.00105882
-0.00145503
-0.000670015
-0.000103562
0.000120122
0.00018569
0.000154979
0.000139352
8.35004e-05
8.28793e-05
3.43631e-05
-5.46282e-05
-0.000327138
-2.61978e-05
0.000293528
0.000342746
-0.000183388
6.60072e-05
0.00289723
0.00107507
-0.00158807
0.00261013
0.00106931
-0.00104594
0.000199771
0.00306239
-0.00124559
-0.000157359
0.00233873
0.000324636
0.000971103
0.00203681
-0.00199392
0.00415096
-0.00243609
0.00305561
-0.00162143
0.00281955
0.0013891
0.00130436
0.000947994