/*--------------------------------*- C++ -*----------------------------------*\
| =========                 |                                                 |
| \\      /  F ield         | OpenFOAM: The Open Source CFD Toolbox           |
|  \\    /   O peration     | Version:  2306                                  |
|   \\  /    A nd           | Website:  www.openfoam.com                      |
|    \\/     M anipulation  |                                                 |
\*---------------------------------------------------------------------------*/
FoamFile
{
    version     2.0;
    format      ascii;
    arch        "LSB;label=32;scalar=64";
    class       volScalarField;
    location    "25";
    object      magR;
}
// * * * * * * * * * * * * * * * * * * * * * * * * * * * * * * * * * * * * * //

dimensions      [0 2 -2 0 0 0 0];

internalField   nonuniform List<scalar> 
10720
(
0.0106632
0.0126172
0.0151477
0.0186022
0.0230145
0.0289422
0.03668
0.0462318
0.0580859
0.0728897
0.0917495
0.116962
0.152049
0.203136
0.278863
0.393306
0.568582
0.841741
1.2758
1.98085
3.16225
5.44895
9.39161
19.3395
10.3592
3.13052
0.56196
4.47035
7.89351
6.75916
4.00699
32.6376
124.825
54.0533
44.8061
47.9661
28.5368
11.7065
4.86492
0.00889522
0.00743692
0.00591488
0.004706
0.00397448
0.00411551
0.00506377
0.00683235
0.00955171
0.0134988
0.0191231
0.0269943
0.0378366
0.0526268
0.0728062
0.101193
0.142834
0.207201
0.311822
0.490403
0.808108
1.3965
2.50931
4.85049
9.29657
19.4905
42.2312
63.6499
73.569
76.1153
76.0758
75.2843
74.0953
72.6093
70.8453
68.9862
66.7247
64.2753
57.3729
0.00292888
0.00291986
0.00287517
0.00278898
0.0026855
0.0025721
0.00243527
0.00227042
0.00208925
0.00189302
0.00169197
0.00150076
0.00132597
0.00116201
0.00110503
0.00123722
0.00194215
0.00410163
0.0101369
0.028172
0.0858213
0.335737
1.06254
5.81444
16.9759
26.6442
31.8768
39.2019
47.718
47.538
32.8536
17.2151
5.38735
61.3293
9.89535
3.71253
3.30671
1.7755
1.61613
0.00290812
0.0028586
0.00274923
0.00257565
0.00240533
0.00225613
0.00209154
0.00189836
0.00169824
0.0014968
0.00129833
0.00110702
0.000928455
0.000767386
0.000627112
0.000509829
0.000412297
0.000333686
0.000268791
0.000213233
0.000159069
0.000106863
5.68038e-05
0.000121731
0.00292245
0.0113669
0.105745
0.420623
0.889348
1.32064
1.6216
1.78881
1.89648
1.99657
2.11745
2.26398
2.39334
2.66125
3.2711
0.00206928
0.00201729
0.00194223
0.00185026
0.00176226
0.00166255
0.00154956
0.00143382
0.00131801
0.00121104
0.0011212
0.00105558
0.00101825
0.00100543
0.00101286
0.00106021
0.00104653
0.000920612
0.000300659
0.000666305
0.000353052
0.00389751
0.002052
0.0791263
1.6238
7.63218
23.2438
49.9786
63.536
59.2682
22.4382
6.77262
28.5868
46.2995
3.72744
2.14504
2.15941
1.36836
1.12794
0.0021051
0.00211078
0.00206939
0.00197488
0.00186965
0.00177724
0.00166501
0.00151549
0.00134073
0.00115387
0.000962311
0.000780078
0.000618881
0.000485022
0.000384348
0.00031541
0.000272866
0.000248872
0.000236718
0.000232144
0.00023274
0.000237454
0.00024368
0.000242664
0.000221333
0.000203228
0.000104531
0.000282112
0.00161104
0.00484146
0.0291926
0.0902592
0.191886
0.330945
0.496169
0.669816
0.862038
0.959999
1.55815
0.00161097
0.00160012
0.00158197
0.00156021
0.00153407
0.00149256
0.00143661
0.001368
0.0012893
0.00120261
0.00111184
0.00102306
0.000942232
0.000871491
0.000809882
0.000752349
0.000681795
0.000599152
0.000485667
0.000379161
6.79137e-05
0.000263525
0.00056995
0.0119441
0.00741939
0.430154
5.06604
25.7087
53.6097
42.5497
8.51935
0.932207
39.5216
18.2898
2.12246
1.48983
1.73165
1.28271
0.822128
0.00161246
0.00160467
0.00157187
0.00151311
0.00145173
0.00138638
0.00130409
0.00120284
0.00109236
0.000978336
0.000863881
0.000754491
0.000654375
0.000566774
0.000495869
0.000443082
0.000408334
0.00038787
0.00037664
0.000368006
0.000357784
0.000342506
0.000319792
0.000286772
0.000247688
0.000205017
0.000163232
4.31843e-05
0.000161829
9.75625e-05
2.23538e-05
0.000565448
0.00310302
0.0103589
0.0272599
0.0620314
0.131681
0.22075
0.566993
0.00125688
0.0012445
0.00122565
0.00120236
0.00117577
0.00113684
0.00108715
0.0010309
0.000969052
0.000902629
0.000833089
0.000763406
0.000697602
0.000639157
0.000589844
0.000551856
0.000527497
0.000510041
0.000485682
0.000447062
0.000348909
0.000196171
1.55159e-05
0
0.00541493
0.00165054
0.129066
3.91937
15.7076
11.4514
1.15103
2.03634
31.8147
6.70473
1.23857
1.73777
1.88899
1.3897
0.744658
0.00126049
0.00125569
0.00123173
0.00118973
0.00114926
0.00110538
0.00104906
0.000978932
0.00090015
0.000815129
0.000725512
0.000635252
0.000548319
0.000467975
0.000397596
0.000339063
0.000292698
0.000257124
0.000230253
0.000209487
0.000193478
0.000182045
0.000176395
0.000177929
0.000186619
0.000201172
0.000220123
0.000240277
0.000247359
0.000314475
9.39553e-05
0.000796011
1.49681e-05
0.00452764
0.00771048
0.000685193
0.00419098
0.0077934
0.0699809
0.00100435
0.000999709
0.000991869
0.00098334
0.000973838
0.000955111
0.0009288
0.000897827
0.000861634
0.000819727
0.000772228
0.000720565
0.000667269
0.000614596
0.000563587
0.000515047
0.000467011
0.000414911
0.000361802
0.000315158
0.000279106
0.000247749
0.000185262
9.52295e-06
0
0.000189618
0.0184123
0.0308691
0.753879
0.612303
0.198952
2.76822
20.4026
3.24128
1.24443
2.37366
2.16799
1.51116
0.847287
0.00100333
0.000997922
0.000980608
0.000951074
0.000923549
0.000893331
0.000853028
0.00080351
0.000747994
0.000688308
0.000625553
0.000562263
0.000500826
0.000443123
0.00039111
0.000346242
0.000308817
0.000278025
0.000252301
0.000229611
0.000208493
0.000188194
0.000169067
0.000151662
0.000136265
0.000123337
0.000112742
0.000102269
8.93951e-05
7.32756e-05
5.32895e-05
3.23181e-05
2.32796e-05
5.57852e-06
1.87081e-06
5.00564e-05
0.000629524
0.0011217
0.00173172
0.000815352
0.000813191
0.0008085
0.000803903
0.000798578
0.00078439
0.00076407
0.000740061
0.000711371
0.000677847
0.000639906
0.000598425
0.000555416
0.000512777
0.000471983
0.000433701
0.000399154
0.000369061
0.000341724
0.000315804
0.000291676
0.000264477
0.000271159
0.000146622
6.04134e-06
0
0
0.027948
0.0269732
0.0319898
0.0416627
3.12558
12.1495
2.25658
1.51244
3.34083
2.57134
1.65628
1.03876
0.000812921
0.000807733
0.000795337
0.000774147
0.000754278
0.000732792
0.00070369
0.000667818
0.000627474
0.000583595
0.000536731
0.000488324
0.000439893
0.000392663
0.00034828
0.000308135
0.000273035
0.000243242
0.000218494
0.00019795
0.000180797
0.000166351
0.000154075
0.00014309
0.00013207
0.000120501
0.000108582
9.60771e-05
8.32523e-05
7.03846e-05
5.99873e-05
5.7997e-05
6.42689e-05
7.79581e-05
7.52684e-05
4.0216e-05
6.84787e-08
4.36177e-08
0.000755183
0.000671057
0.000671134
0.000669231
0.000667127
0.000665764
0.000657387
0.000644399
0.000628795
0.000609915
0.000587765
0.000562336
0.000533775
0.000503126
0.000471409
0.000439519
0.000407654
0.000376312
0.000343554
0.000307852
0.000270604
0.000233894
0.00019874
0.000180496
0.000189187
7.31485e-05
2.84543e-06
0
0
0.00614366
0.00666182
0.0400914
3.15641
7.41063
2.11796
1.72822
4.59658
3.12603
1.8392
1.25717
0.000668269
0.000663251
0.000653994
0.000638533
0.000624126
0.000607995
0.000586645
0.000560439
0.000531024
0.000498966
0.000464471
0.000428546
0.000392187
0.000356247
0.000321971
0.00029047
0.000262453
0.000238308
0.000217947
0.000200762
0.000185898
0.000172503
0.000159862
0.000147169
0.000133593
0.000119432
0.000105661
9.32008e-05
8.34297e-05
7.71397e-05
7.66295e-05
8.29372e-05
9.31237e-05
0.000104265
0.000113481
0.000111705
9.76348e-05
8.83635e-07
2.48243e-07
0.000558729
0.000559282
0.000559329
0.000558944
0.000557949
0.000553118
0.000545191
0.000535328
0.000522271
0.00050594
0.000486717
0.000464407
0.000439598
0.000413144
0.000385831
0.000358163
0.000330827
0.000304155
0.000278133
0.000252017
0.000223948
0.000192356
0.00015942
0.000144558
0.000137415
3.20189e-05
8.37675e-07
0
0
0
0.0391868
3.00622
5.2107
2.4229
1.97911
6.08522
3.7881
2.05701
1.45756
0.000555844
0.000551308
0.00054409
0.000532442
0.000521492
0.000509405
0.000493544
0.000474283
0.000452632
0.000428967
0.000403233
0.000376088
0.000348144
0.00031998
0.000292424
0.000266267
0.000242089
0.000220312
0.000201101
0.000184298
0.000169557
0.000156397
0.000144383
0.000132905
0.000121405
0.000109875
9.88362e-05
8.85972e-05
7.92517e-05
7.01366e-05
6.06911e-05
5.15276e-05
4.31143e-05
3.65461e-05
3.19862e-05
3.15835e-05
3.28802e-05
4.11074e-05
1.82196e-06
0.000469817
0.000470364
0.000471292
0.000472592
0.00047218
0.000468267
0.000462336
0.000457083
0.000448772
0.00043836
0.000424195
0.000407101
0.000387736
0.000366695
0.000344479
0.000321582
0.000298517
0.000275399
0.000251914
0.000228802
0.000206765
0.000184193
0.00015829
0.000132178
0.000122204
0.000104911
7.48691e-06
9.57518e-07
0
0
0.0419155
2.7824
4.60713
3.02268
3.27152
7.77866
4.49376
2.30747
1.65081
0.00046696
0.000462998
0.000457195
0.000448183
0.000439631
0.000429866
0.000418189
0.000404194
0.000388296
0.000370805
0.000351612
0.000331148
0.000309844
0.000288072
0.000266465
0.000245603
0.000225892
0.000207722
0.000191295
0.000176597
0.000163387
0.000151285
0.000139873
0.000128716
0.000117361
0.000105912
9.48642e-05
8.45813e-05
7.52775e-05
6.62914e-05
5.7103e-05
4.85542e-05
4.11381e-05
3.55133e-05
3.09857e-05
2.8486e-05
2.64039e-05
3.18134e-05
1.94494e-05
0.000398209
0.000399053
0.000400185
0.000402064
0.000403373
0.000400485
0.000395771
0.000391029
0.000384318
0.000379302
0.00037002
0.000357102
0.000341971
0.000325139
0.000306978
0.000287908
0.000268302
0.000248513
0.000228266
0.000207746
0.0001881
0.000169656
0.000151244
0.000131477
0.000113226
0.00010877
8.8836e-05
1.46226e-05
5.06418e-08
0
0.0452327
2.54528
4.80698
3.66043
5.17244
9.51413
5.20007
2.58898
1.8388
0.000395682
0.000392168
0.000387588
0.000380416
0.000373664
0.000365816
0.000356126
0.000346011
0.000334782
0.000322052
0.000307695
0.000292142
0.000275785
0.000258839
0.000241761
0.000224947
0.000208673
0.000193235
0.000178884
0.000165685
0.000153542
0.000142264
0.000131602
0.000121232
0.000110815
0.000100449
9.04782e-05
8.122e-05
7.28484e-05
6.47731e-05
5.65046e-05
4.86756e-05
4.15642e-05
3.59863e-05
3.14754e-05
2.86075e-05
2.62709e-05
2.79856e-05
2.75143e-05
0.000339848
0.000340802
0.000342198
0.000344058
0.000345548
0.000344401
0.000342141
0.00033801
0.000332433
0.000325896
0.000322077
0.00031316
0.000301663
0.000288323
0.000273547
0.000257717
0.000241126
0.000224245
0.000206826
0.000189013
0.000171688
0.000155282
0.000139562
0.000126149
0.000112479
9.82602e-05
0.000116814
0.000145427
5.39668e-07
0
0.0475435
2.3559
5.09821
4.70946
7.87559
11.049
5.86755
2.88753
2.0181
0.000337635
0.000334673
0.000330931
0.000325133
0.000319582
0.000313675
0.000305707
0.000297012
0.000289199
0.00028064
0.000270088
0.00025827
0.000245685
0.000232491
0.000219051
0.000205621
0.000192377
0.000179548
0.000167328
0.000155821
0.000145032
0.000134841
0.000125075
0.000115443
0.000105753
9.60737e-05
8.67391e-05
7.80206e-05
7.00917e-05
6.24593e-05
5.4728e-05
4.73364e-05
4.04405e-05
3.49277e-05
3.05925e-05
2.79939e-05
2.57476e-05
2.51878e-05
2.34125e-05
0.000291787
0.000292618
0.000294056
0.00029599
0.000297428
0.000296779
0.000295529
0.00029377
0.000290686
0.000283226
0.000278421
0.000274768
0.000265922
0.000255436
0.000243563
0.000230599
0.000216651
0.000202279
0.000187249
0.000171802
0.000156947
0.00014291
0.000128867
0.000117663
0.000109732
9.35133e-05
0.00011196
0.00020165
8.22383e-07
0
0.0502276
2.28047
5.35028
7.32573
13.7314
12.8725
6.53161
3.18409
2.18288
0.000289817
0.000287248
0.000284281
0.000279424
0.000274783
0.000270069
0.000264361
0.000257014
0.000249892
0.000244454
0.000237404
0.000228641
0.000218964
0.000208696
0.000198069
0.000187313
0.000176537
0.000165909
0.000155566
0.000145584
0.000135991
0.000126741
0.000117722
0.000108751
9.97152e-05
9.07354e-05
8.2122e-05
7.41468e-05
6.69988e-05
6.02798e-05
5.36198e-05
4.73089e-05
4.12059e-05
3.59452e-05
3.13536e-05
2.77552e-05
2.45748e-05
2.34246e-05
2.1746e-05
0.000251697
0.000252518
0.00025399
0.000255737
0.000257176
0.000257047
0.000256328
0.000255254
0.00025322
0.000250109
0.000242713
0.000240012
0.00023418
0.000226397
0.000217139
0.000206647
0.000195008
0.000182804
0.000169834
0.000156267
0.000143211
0.000131141
0.000118988
0.000108915
0.000103456
8.96575e-05
0.000109589
0.00018482
8.28925e-07
0
0.0516987
2.22529
5.93812
12.4485
23.3211
15.054
7.1439
3.44727
2.31757
0.000250064
0.000247882
0.000245394
0.000241284
0.000237428
0.000233639
0.000229098
0.000224034
0.000217654
0.000212423
0.000208409
0.000202388
0.000195177
0.000187214
0.000178829
0.000170224
0.000161478
0.000152719
0.000144032
0.00013547
0.000127055
0.000118795
0.00011062
0.000102428
9.41342e-05
8.58853e-05
7.79467e-05
7.05664e-05
6.38987e-05
5.76441e-05
5.1503e-05
4.56531e-05
4.00015e-05
3.50786e-05
3.0897e-05
2.76267e-05
2.46479e-05
2.31267e-05
2.16206e-05
0.000218144
0.000218884
0.000220232
0.000221921
0.000223269
0.000223362
0.000223205
0.000222715
0.000221241
0.000219182
0.000215201
0.000208611
0.000206597
0.000201219
0.000193986
0.000185422
0.000175712
0.000165294
0.000154117
0.00014232
0.000130797
0.000120216
0.000109759
0.000100616
9.5996e-05
8.40022e-05
0.000107473
0.000154226
7.54404e-07
0
0.0499218
1.9692
6.70447
18.5065
31.6037
16.751
7.55556
3.62424
2.40337
0.000216679
0.000214768
0.00021273
0.000209226
0.000206033
0.000202961
0.000199313
0.00019537
0.00019109
0.000185587
0.000182525
0.000179009
0.000173946
0.000167875
0.000161264
0.000154384
0.0001473
0.000140079
0.000132773
0.000125428
0.000118087
0.000110763
0.000103428
9.59854e-05
8.84279e-05
8.08936e-05
7.3643e-05
6.68647e-05
6.07307e-05
5.50024e-05
4.94458e-05
4.41772e-05
3.91202e-05
3.45459e-05
3.06071e-05
2.74521e-05
2.44989e-05
2.27035e-05
2.13425e-05
0.00018972
0.000190449
0.00019171
0.000193176
0.000194498
0.000194864
0.000194956
0.000194831
0.00019397
0.000192443
0.000190328
0.000184803
0.000181294
0.00017898
0.000173174
0.000166184
0.000158128
0.00014928
0.000139654
0.000129412
0.000119255
0.000109966
0.000100983
9.26178e-05
8.86496e-05
7.77586e-05
9.69803e-05
0.000137579
7.13675e-07
0
0.0452015
1.56653
6.97181
21.8056
33.1875
16.8289
7.53092
3.63938
2.40749
0.000188471
0.000186833
0.000185051
0.000182048
0.000179426
0.000176929
0.000173976
0.000170853
0.000167676
0.000163664
0.000159861
0.000158105
0.000154876
0.000150405
0.000145245
0.000139722
0.000133951
0.000127982
0.000121851
0.000115589
0.000109232
0.000102794
9.62663e-05
8.95886e-05
8.27811e-05
7.59721e-05
6.93906e-05
6.31964e-05
5.75474e-05
5.22611e-05
4.71868e-05
4.23989e-05
3.7869e-05
3.36713e-05
3.00475e-05
2.7149e-05
2.43558e-05
2.22691e-05
2.07345e-05
0.000165621
0.000166223
0.000167377
0.000168788
0.000170016
0.000170459
0.000170809
0.000170952
0.000170372
0.000169323
0.000167788
0.000165382
0.000159904
0.000158357
0.000153986
0.000148511
0.000141996
0.00013458
0.000126349
0.000117467
0.000108507
0.000100297
9.25233e-05
8.48199e-05
8.12684e-05
7.13823e-05
8.24954e-05
0.00012733
7.01729e-07
0
0.0385239
1.22336
6.52523
20.872
28.4562
14.8768
6.8759
3.40582
2.28629
0.000164462
0.000163022
0.000161495
0.000158932
0.000156718
0.000154682
0.000152286
0.000149769
0.000147367
0.000144663
0.000140745
0.000139243
0.000137635
0.000134544
0.000130568
0.00012614
0.000121433
0.000116509
0.000111382
0.000106082
0.000100625
9.50223e-05
8.92583e-05
8.33189e-05
7.72158e-05
7.10934e-05
6.51357e-05
5.95049e-05
5.4317e-05
4.94562e-05
4.48027e-05
4.04462e-05
3.63709e-05
3.25196e-05
2.91466e-05
2.64724e-05
2.38864e-05
2.1678e-05
1.99139e-05
0.000144924
0.00014553
0.000146644
0.000147884
0.000149038
0.000149609
0.000150007
0.000150278
0.000150045
0.000149326
0.000148136
0.000146462
0.000143538
0.000139049
0.000137399
0.000133022
0.000127637
0.000121347
0.000114317
0.00010661
9.86916e-05
9.13439e-05
8.45039e-05
7.73646e-05
7.36658e-05
6.5445e-05
6.82393e-05
0.000111344
3.33206e-06
0
0.0300336
0.951585
5.51094
16.5231
20.7453
11.5021
5.61802
2.89181
2.00675
0.000143953
0.000142687
0.000141314
0.000139112
0.000137282
0.000135588
0.000133646
0.000131589
0.000129754
0.000127776
0.00012489
0.000122562
0.000122003
0.000120105
0.000117138
0.000113641
0.000109825
0.000105763
0.000101491
9.70326e-05
9.23886e-05
8.75524e-05
8.25089e-05
7.72501e-05
7.17914e-05
6.63002e-05
6.09378e-05
5.58396e-05
5.1098e-05
4.66396e-05
4.23848e-05
3.84276e-05
3.47475e-05
3.12067e-05
2.80422e-05
2.55299e-05
2.31174e-05
2.08895e-05
1.89475e-05
0.000127203
0.000127779
0.000128775
0.000129957
0.000131017
0.000131557
0.000132079
0.000132462
0.000132345
0.000131926
0.000131133
0.000129822
0.000128076
0.000123873
0.000122498
0.000118879
0.000114531
0.000109347
0.000103433
9.67956e-05
8.97715e-05
8.31293e-05
7.6979e-05
7.03447e-05
6.61011e-05
5.96129e-05
5.53569e-05
9.06995e-05
2.45488e-05
1.50672e-07
0.0201864
0.652174
3.95817
10.4406
12.6592
7.68259
4.04318
2.17758
1.58219
0.000126307
0.000125168
0.000123985
0.000122091
0.000120537
0.000119129
0.000117537
0.000115887
0.000114415
0.000112921
0.000110928
0.000108455
0.000107964
0.000106996
0.000104928
0.000102262
9.91792e-05
9.58258e-05
9.22769e-05
8.85482e-05
8.46149e-05
8.04474e-05
7.6049e-05
7.14084e-05
6.6569e-05
6.16665e-05
5.68645e-05
5.22636e-05
4.79579e-05
4.3888e-05
4.00194e-05
3.64214e-05
3.3081e-05
2.9822e-05
2.68461e-05
2.44496e-05
2.21622e-05
1.99467e-05
1.78762e-05
0.000111894
0.000112464
0.000113397
0.000114432
0.00011543
0.00011602
0.000116517
0.000116937
0.000117015
0.000116777
0.000116211
0.000115255
0.000113984
0.000111729
0.000107969
0.00010652
0.000103043
9.8684e-05
9.36295e-05
8.78834e-05
8.16348e-05
7.56276e-05
6.99889e-05
6.38812e-05
5.88577e-05
5.36732e-05
4.51051e-05
6.92475e-05
3.98104e-05
3.02038e-07
0.0114082
0.363369
2.30607
4.72805
5.70461
4.27486
2.52217
1.43349
1.0996
0.000111113
0.000110105
0.000109026
0.000107375
0.000106074
0.000104891
0.000103578
0.000102238
0.000101037
9.99444e-05
9.83794e-05
9.63113e-05
9.55825e-05
9.52807e-05
9.40366e-05
9.20315e-05
8.95327e-05
8.67613e-05
8.38023e-05
8.06657e-05
7.73227e-05
7.37396e-05
6.99175e-05
6.58429e-05
6.15662e-05
5.72113e-05
5.29285e-05
4.88109e-05
4.49189e-05
4.12271e-05
3.77264e-05
3.44636e-05
3.14132e-05
2.83982e-05
2.55908e-05
2.32769e-05
2.10686e-05
1.88985e-05
1.67614e-05
9.86854e-05
9.91874e-05
0.000100059
0.000101054
0.000101946
0.000102471
0.000103009
0.000103473
0.000103584
0.000103513
0.000103194
0.000102476
0.000101469
0.000100052
9.66835e-05
9.54723e-05
9.2479e-05
8.8837e-05
8.463e-05
7.97371e-05
7.42349e-05
6.88372e-05
6.36078e-05
5.8001e-05
5.22843e-05
4.76479e-05
3.71942e-05
4.58544e-05
5.08467e-05
5.10402e-07
0.00470549
0.149316
1.24215
1.28026
1.48847
2.01041
1.37608
0.82367
0.664137
9.79462e-05
9.70462e-05
9.60869e-05
9.46527e-05
9.35204e-05
9.25365e-05
9.14431e-05
9.03602e-05
8.93961e-05
8.85247e-05
8.74667e-05
8.57765e-05
8.45506e-05
8.48619e-05
8.4224e-05
8.27698e-05
8.07723e-05
7.84804e-05
7.59999e-05
7.33479e-05
7.04928e-05
6.74173e-05
6.41085e-05
6.0558e-05
5.6789e-05
5.29395e-05
4.91381e-05
4.54744e-05
4.19763e-05
3.86469e-05
3.54796e-05
3.25141e-05
2.97159e-05
2.69307e-05
2.42982e-05
2.20714e-05
1.99178e-05
1.77815e-05
1.56115e-05
8.71498e-05
8.76622e-05
8.85244e-05
8.9389e-05
9.02001e-05
9.07286e-05
9.12097e-05
9.16724e-05
9.19034e-05
9.19179e-05
9.17188e-05
9.12301e-05
9.04546e-05
8.93692e-05
8.75862e-05
8.45921e-05
8.31682e-05
8.01508e-05
7.66449e-05
7.24463e-05
6.76174e-05
6.27668e-05
5.7898e-05
5.2711e-05
4.66576e-05
4.17988e-05
3.11615e-05
2.83101e-05
4.61152e-05
1.27593e-06
0.000564378
0.0240664
0.688948
0.794127
0.700333
0.968471
0.693452
0.422706
0.348488
8.65349e-05
8.57216e-05
8.48324e-05
8.35788e-05
8.26215e-05
8.17865e-05
8.088e-05
7.99871e-05
7.92226e-05
7.85133e-05
7.77621e-05
7.67791e-05
7.51198e-05
7.51673e-05
7.52316e-05
7.43243e-05
7.27733e-05
7.08701e-05
6.87884e-05
6.655e-05
6.41251e-05
6.14902e-05
5.86338e-05
5.55476e-05
5.22448e-05
4.8853e-05
4.54986e-05
4.22475e-05
3.91221e-05
3.61249e-05
3.32626e-05
3.0566e-05
2.79962e-05
2.54145e-05
2.2941e-05
2.08004e-05
1.87184e-05
1.66233e-05
1.44487e-05
7.7133e-05
7.76322e-05
7.84144e-05
7.92319e-05
7.99484e-05
8.04068e-05
8.09181e-05
8.13973e-05
8.16246e-05
8.1733e-05
8.16749e-05
8.13236e-05
8.07307e-05
7.98777e-05
7.86532e-05
7.61688e-05
7.50654e-05
7.22709e-05
6.92432e-05
6.56654e-05
6.15442e-05
5.72641e-05
5.28209e-05
4.80178e-05
4.20753e-05
3.64859e-05
2.65055e-05
1.67787e-05
2.87655e-05
2.40016e-06
2.47274e-08
0.0184185
0.309028
0.644609
0.674013
0.540929
0.342206
0.204923
0.165037
7.65653e-05
7.58273e-05
7.50446e-05
7.39403e-05
7.31064e-05
7.24024e-05
7.1643e-05
7.09115e-05
7.03091e-05
6.97324e-05
6.91445e-05
6.85234e-05
6.73897e-05
6.65452e-05
6.69685e-05
6.65779e-05
6.54398e-05
6.3902e-05
6.21821e-05
6.0305e-05
5.82535e-05
5.60024e-05
5.35467e-05
5.08589e-05
4.79607e-05
4.49683e-05
4.20104e-05
3.91354e-05
3.63562e-05
3.36703e-05
3.10906e-05
2.86369e-05
2.62758e-05
2.38812e-05
2.15665e-05
1.95155e-05
1.7505e-05
1.54491e-05
1.32906e-05
6.83569e-05
6.88428e-05
6.95815e-05
7.02914e-05
7.09496e-05
7.1416e-05
7.18843e-05
7.23487e-05
7.2649e-05
7.27937e-05
7.27864e-05
7.2577e-05
7.21406e-05
7.14524e-05
7.05078e-05
6.89889e-05
6.71511e-05
6.49992e-05
6.25566e-05
5.95581e-05
5.6051e-05
5.23123e-05
4.83481e-05
4.39397e-05
3.84249e-05
3.22317e-05
2.30928e-05
9.5072e-06
1.40268e-05
2.50669e-05
3.38533e-07
0.00401055
0.0945498
0.312155
0.373296
0.27401
0.160341
0.094653
0.0725227
6.7869e-05
6.72135e-05
6.64856e-05
6.55046e-05
6.4795e-05
6.41904e-05
6.35482e-05
6.29349e-05
6.24471e-05
6.20124e-05
6.15335e-05
6.10758e-05
6.04366e-05
5.9305e-05
5.94881e-05
5.949e-05
5.87094e-05
5.75422e-05
5.61524e-05
5.45944e-05
5.28671e-05
5.09453e-05
4.88188e-05
4.64645e-05
4.39119e-05
4.1275e-05
3.86766e-05
3.61538e-05
3.36975e-05
3.13047e-05
2.89857e-05
2.6764e-05
2.46038e-05
2.2387e-05
2.0217e-05
1.82486e-05
1.63071e-05
1.42934e-05
1.21478e-05
6.06925e-05
6.11189e-05
6.18e-05
6.2477e-05
6.306e-05
6.34809e-05
6.39701e-05
6.4442e-05
6.47215e-05
6.49172e-05
6.49926e-05
6.48513e-05
6.45401e-05
6.4007e-05
6.32351e-05
6.21043e-05
6.00458e-05
5.89564e-05
5.69153e-05
5.43643e-05
5.1335e-05
4.80427e-05
4.45254e-05
4.05227e-05
3.55491e-05
2.93229e-05
2.09439e-05
6.52615e-06
8.76033e-06
3.31096e-05
1.04658e-06
0.000489911
0.0162107
0.103243
0.146405
0.114396
0.0684491
0.0399292
0.0306071
6.023e-05
5.96486e-05
5.8996e-05
5.81309e-05
5.75003e-05
5.69853e-05
5.64328e-05
5.59211e-05
5.5525e-05
5.51764e-05
5.47758e-05
5.44636e-05
5.40146e-05
5.30879e-05
5.28764e-05
5.30512e-05
5.26486e-05
5.18106e-05
5.06842e-05
4.93942e-05
4.79285e-05
4.62669e-05
4.43963e-05
4.23269e-05
4.00826e-05
3.77759e-05
3.55094e-05
3.33046e-05
3.11442e-05
2.90231e-05
2.69431e-05
2.4934e-05
2.29634e-05
2.09292e-05
1.89123e-05
1.70413e-05
1.51722e-05
1.32089e-05
1.10768e-05
5.39313e-05
5.43386e-05
5.49814e-05
5.55664e-05
5.61088e-05
5.65451e-05
5.69963e-05
5.74496e-05
5.77774e-05
5.79872e-05
5.80873e-05
5.80418e-05
5.78336e-05
5.74248e-05
5.68474e-05
5.60662e-05
5.44129e-05
5.37306e-05
5.18408e-05
4.97155e-05
4.71844e-05
4.43555e-05
4.12967e-05
3.77578e-05
3.3382e-05
2.77051e-05
2.02883e-05
9.08579e-06
1.05853e-05
3.49422e-05
1.71173e-06
1.58732e-08
0.00363398
0.0235739
0.0434822
0.0381427
0.0247015
0.0154548
0.0126092
5.35374e-05
5.30124e-05
5.24017e-05
5.16405e-05
5.11016e-05
5.06503e-05
5.01747e-05
4.97323e-05
4.9401e-05
4.91304e-05
4.88053e-05
4.85513e-05
4.83192e-05
4.75768e-05
4.69703e-05
4.73586e-05
4.72103e-05
4.65864e-05
4.56875e-05
4.46172e-05
4.33645e-05
4.18995e-05
4.02455e-05
3.84318e-05
3.64775e-05
3.44781e-05
3.25152e-05
3.05959e-05
2.86977e-05
2.68146e-05
2.49469e-05
2.31273e-05
2.13261e-05
1.94758e-05
1.76033e-05
1.58393e-05
1.40709e-05
1.21857e-05
1.00901e-05
4.80298e-05
4.83685e-05
4.89308e-05
4.94884e-05
4.9992e-05
5.03973e-05
5.08665e-05
5.13194e-05
5.16164e-05
5.18608e-05
5.20208e-05
5.20215e-05
5.19163e-05
5.16528e-05
5.12166e-05
5.06789e-05
4.98331e-05
4.86464e-05
4.7222e-05
4.55442e-05
4.34958e-05
4.11199e-05
3.85266e-05
3.55049e-05
3.17924e-05
2.70205e-05
2.09326e-05
1.37626e-05
1.41206e-05
3.32676e-05
3.84784e-05
3.84649e-07
4.44344e-05
0.00336808
0.00975645
0.0102725
0.00759119
0.00532895
0.00482846
4.76344e-05
4.71528e-05
4.661e-05
4.59344e-05
4.54587e-05
4.50647e-05
4.46503e-05
4.42691e-05
4.39928e-05
4.37609e-05
4.34959e-05
4.32799e-05
4.31687e-05
4.2788e-05
4.18951e-05
4.20204e-05
4.21548e-05
4.17614e-05
4.10883e-05
4.0212e-05
3.91326e-05
3.78455e-05
3.64107e-05
3.48425e-05
3.31601e-05
3.14325e-05
2.97314e-05
2.80574e-05
2.63854e-05
2.47082e-05
2.30251e-05
2.13702e-05
1.97208e-05
1.80329e-05
1.62959e-05
1.46374e-05
1.2978e-05
1.12044e-05
9.19005e-06
4.28086e-05
4.31062e-05
4.36191e-05
4.41024e-05
4.45882e-05
4.50082e-05
4.54415e-05
4.58685e-05
4.61987e-05
4.64505e-05
4.66287e-05
4.67087e-05
4.66815e-05
4.65501e-05
4.62761e-05
4.59021e-05
4.53243e-05
4.40161e-05
4.33083e-05
4.19494e-05
4.03034e-05
3.83153e-05
3.61466e-05
3.36506e-05
3.06393e-05
2.68821e-05
2.22894e-05
1.80232e-05
1.84872e-05
3.03197e-05
6.1386e-05
4.2988e-06
1.05157e-08
3.20328e-06
0.00150003
0.00218951
0.00195857
0.00160092
0.00168211
4.2453e-05
4.20129e-05
4.14987e-05
4.08927e-05
4.04838e-05
4.01337e-05
3.97685e-05
3.94333e-05
3.91932e-05
3.9006e-05
3.87949e-05
3.85887e-05
3.85158e-05
3.82562e-05
3.75028e-05
3.73047e-05
3.75138e-05
3.73831e-05
3.69431e-05
3.62354e-05
3.53072e-05
3.42018e-05
3.29624e-05
3.16212e-05
3.01752e-05
2.8676e-05
2.71923e-05
2.57222e-05
2.42414e-05
2.27406e-05
2.12206e-05
1.97104e-05
1.81948e-05
1.66412e-05
1.50178e-05
1.34477e-05
1.19004e-05
1.02597e-05
8.35325e-06
3.82261e-05
3.84379e-05
3.89055e-05
3.9378e-05
3.98231e-05
4.02094e-05
4.06482e-05
4.10688e-05
4.13705e-05
4.16467e-05
4.18743e-05
4.1989e-05
4.20457e-05
4.20042e-05
4.18488e-05
4.16085e-05
4.12432e-05
4.02207e-05
3.97894e-05
3.85961e-05
3.73003e-05
3.57063e-05
3.39817e-05
3.20319e-05
2.97312e-05
2.69526e-05
2.37602e-05
2.13254e-05
2.2489e-05
2.97422e-05
5.62441e-05
4.28535e-05
3.38194e-06
2.06688e-06
3.69734e-05
0.000254179
0.000365557
0.000394488
0.000532071
3.78758e-05
3.74543e-05
3.69886e-05
3.64495e-05
3.60794e-05
3.57743e-05
3.54468e-05
3.51549e-05
3.49485e-05
3.47846e-05
3.45962e-05
3.44429e-05
3.43591e-05
3.4217e-05
3.35791e-05
3.30491e-05
3.34338e-05
3.35001e-05
3.32248e-05
3.26752e-05
3.19014e-05
3.0945e-05
2.98858e-05
2.87465e-05
2.7498e-05
2.61887e-05
2.48817e-05
2.35781e-05
2.22552e-05
2.09036e-05
1.95252e-05
1.81457e-05
1.67499e-05
1.53057e-05
1.37836e-05
1.22956e-05
1.08542e-05
9.35657e-06
7.57926e-06
3.4118e-05
3.42981e-05
3.47547e-05
3.51788e-05
3.55992e-05
3.59858e-05
3.63861e-05
3.67849e-05
3.71139e-05
3.73927e-05
3.76288e-05
3.78024e-05
3.79053e-05
3.79386e-05
3.78839e-05
3.7712e-05
3.74724e-05
3.69998e-05
3.62706e-05
3.53999e-05
3.44229e-05
3.31975e-05
3.19184e-05
3.05221e-05
2.89122e-05
2.70126e-05
2.49727e-05
2.37259e-05
2.53392e-05
3.08859e-05
4.75566e-05
6.94618e-05
4.24803e-05
1.46983e-05
1.62805e-05
3.7504e-05
6.23414e-05
8.3181e-05
0.000143446
3.38272e-05
3.34356e-05
3.2992e-05
3.25083e-05
3.21883e-05
3.19132e-05
3.16226e-05
3.136e-05
3.11773e-05
3.10416e-05
3.08882e-05
3.07509e-05
3.06438e-05
3.0551e-05
3.02692e-05
2.94785e-05
2.95778e-05
2.99215e-05
2.98624e-05
2.94663e-05
2.88094e-05
2.79984e-05
2.71053e-05
2.61388e-05
2.50594e-05
2.39066e-05
2.27442e-05
2.1579e-05
2.03903e-05
1.91688e-05
1.79147e-05
1.66515e-05
1.53633e-05
1.40144e-05
1.25824e-05
1.1175e-05
9.84166e-06
8.49144e-06
6.85072e-06
3.04676e-05
3.06876e-05
3.1076e-05
3.14794e-05
3.18586e-05
3.22062e-05
3.26085e-05
3.30015e-05
3.33038e-05
3.35977e-05
3.38671e-05
3.40574e-05
3.42093e-05
3.42913e-05
3.42891e-05
3.42179e-05
3.40461e-05
3.37957e-05
3.29771e-05
3.26197e-05
3.18742e-05
3.09706e-05
3.00644e-05
2.91391e-05
2.81212e-05
2.6949e-05
2.57844e-05
2.53396e-05
2.70872e-05
3.1928e-05
4.28603e-05
6.35532e-05
7.56182e-05
6.73616e-05
5.70432e-05
5.36635e-05
5.27621e-05
5.16401e-05
5.94091e-05
3.02146e-05
2.98506e-05
2.94482e-05
2.90209e-05
2.87327e-05
2.84875e-05
2.8227e-05
2.79931e-05
2.78342e-05
2.77115e-05
2.75747e-05
2.74609e-05
2.73789e-05
2.72419e-05
2.70855e-05
2.66352e-05
2.62753e-05
2.66401e-05
2.67354e-05
2.64921e-05
2.59691e-05
2.52943e-05
2.45476e-05
2.3717e-05
2.2779e-05
2.17604e-05
2.07231e-05
1.96761e-05
1.86037e-05
1.74954e-05
1.63538e-05
1.51955e-05
1.40046e-05
1.27495e-05
1.14128e-05
1.00917e-05
8.86363e-06
7.66158e-06
6.16138e-06
2.72295e-05
2.74854e-05
2.78234e-05
2.81723e-05
2.85275e-05
2.88687e-05
2.92369e-05
2.96054e-05
2.99279e-05
3.02184e-05
3.04853e-05
3.07122e-05
3.08894e-05
3.10191e-05
3.10823e-05
3.10579e-05
3.09937e-05
3.08687e-05
3.031e-05
3.02174e-05
2.95658e-05
2.89595e-05
2.83773e-05
2.78427e-05
2.73041e-05
2.67001e-05
2.61701e-05
2.62575e-05
2.79951e-05
3.22253e-05
4.03334e-05
5.49376e-05
7.14867e-05
7.98637e-05
7.86519e-05
7.26845e-05
6.4672e-05
5.6007e-05
4.91977e-05
2.70042e-05
2.66702e-05
2.63014e-05
2.59179e-05
2.56678e-05
2.54454e-05
2.52115e-05
2.49993e-05
2.48534e-05
2.47482e-05
2.46334e-05
2.45262e-05
2.44301e-05
2.43141e-05
2.42008e-05
2.4018e-05
2.35074e-05
2.36345e-05
2.38784e-05
2.37308e-05
2.33268e-05
2.27693e-05
2.21329e-05
2.14269e-05
2.06114e-05
1.97084e-05
1.87785e-05
1.78363e-05
1.68698e-05
1.58676e-05
1.48321e-05
1.37731e-05
1.26771e-05
1.1517e-05
1.02753e-05
9.04392e-06
7.92311e-06
6.8553e-06
5.49117e-06
2.43827e-05
2.45882e-05
2.49057e-05
2.52429e-05
2.55644e-05
2.58723e-05
2.62361e-05
2.6597e-05
2.6892e-05
2.719e-05
2.74772e-05
2.77081e-05
2.79173e-05
2.80744e-05
2.81817e-05
2.82488e-05
2.82529e-05
2.82299e-05
2.81355e-05
2.78308e-05
2.74112e-05
2.70518e-05
2.67482e-05
2.65434e-05
2.63898e-05
2.62215e-05
2.61444e-05
2.65747e-05
2.8246e-05
3.18652e-05
3.82638e-05
4.87426e-05
6.18914e-05
7.25912e-05
7.68909e-05
7.4653e-05
6.77812e-05
5.87846e-05
4.89765e-05
2.41583e-05
2.38461e-05
2.35113e-05
2.31704e-05
2.294e-05
2.27431e-05
2.2529e-05
2.23387e-05
2.22058e-05
2.21067e-05
2.19949e-05
2.19022e-05
2.18182e-05
2.16869e-05
2.15905e-05
2.147e-05
2.11159e-05
2.10226e-05
2.11981e-05
2.1147e-05
2.08654e-05
2.04155e-05
1.98815e-05
1.92759e-05
1.85568e-05
1.77481e-05
1.69105e-05
1.60646e-05
1.51983e-05
1.43004e-05
1.33673e-05
1.24071e-05
1.14083e-05
1.03453e-05
9.19903e-06
8.05592e-06
7.0334e-06
6.08308e-06
4.84086e-06