/*--------------------------------*- C++ -*----------------------------------*\
| =========                 |                                                 |
| \\      /  F ield         | OpenFOAM: The Open Source CFD Toolbox           |
|  \\    /   O peration     | Version:  2306                                  |
|   \\  /    A nd           | Website:  www.openfoam.com                      |
|    \\/     M anipulation  |                                                 |
\*---------------------------------------------------------------------------*/
FoamFile
{
    version     2.0;
    format      ascii;
    arch        "LSB;label=32;scalar=64";
    class       volSymmTensorField;
    location    "25";
    object      turbulenceProperties:R;
}
// * * * * * * * * * * * * * * * * * * * * * * * * * * * * * * * * * * * * * //

dimensions      [0 2 -2 0 0 0 0];

internalField   nonuniform List<symmTensor> 
10720
(
(0.00673071 0.000962896 -2.43493e-21 0.00539898 -7.31641e-21 0.00611532)
(0.00806553 0.00116855 1.61127e-20 0.00628122 4.89433e-20 0.00720811)
(0.00986554 0.00137102 -3.77538e-20 0.00730627 -1.23558e-19 0.00865932)
(0.0123473 0.00165645 6.31191e-20 0.00868395 2.39832e-19 0.0106154)
(0.01563 0.00198475 -6.62598e-20 0.0102996 -2.20462e-19 0.0130924)
(0.0201815 0.00228878 -8.67564e-20 0.0122469 -1.87712e-19 0.0164284)
(0.0262707 0.00252096 1.95543e-19 0.0145943 4.74246e-19 0.0207259)
(0.0339447 0.00248062 -4.26864e-19 0.0172677 -9.02365e-19 0.0259742)
(0.0435494 0.001942 -9.22329e-20 0.0204104 1.65305e-19 0.0324545)
(0.0555099 0.000732583 3.58509e-19 0.0243214 5.92584e-19 0.040484)
(0.0705325 -0.00146443 8.03198e-19 0.0294675 3.77037e-19 0.0507003)
(0.0901711 -0.00503977 -1.8377e-18 0.0367891 -1.62722e-18 0.0643815)
(0.116807 -0.0106308 3.24288e-19 0.0477384 4.18919e-19 0.0834872)
(0.154634 -0.0193697 1.51759e-18 0.0647583 7.54803e-19 0.111393)
(0.209411 -0.0330957 -2.52575e-18 0.0914326 -3.50782e-18 0.152843)
(0.290377 -0.0549558 -2.87369e-18 0.133717 -1.50225e-18 0.215524)
(0.411511 -0.0902466 1.11258e-17 0.201418 1.00715e-17 0.311587)
(0.596045 -0.147688 1.36128e-17 0.311379 1.89479e-17 0.46117)
(0.882296 -0.242574 -2.1495e-17 0.49326 -2.99499e-17 0.698737)
(1.3371 -0.401057 -3.31554e-18 0.799442 8.05021e-18 1.08403)
(2.08415 -0.67187 -1.64948e-17 1.32832 2.42497e-17 1.72885)
(3.5159 -1.19835 9.49782e-18 2.36908 1.6292e-17 2.97403)
(5.95667 -2.11495 -6.58677e-17 4.20005 -1.8528e-16 5.11214)
(12.1255 -4.42315 1.09197e-16 8.85225 2.225e-16 10.4642)
(6.38906 -2.4106 6.16554e-17 4.88305 -2.55834e-16 5.57009)
(1.89038 -0.73873 3.28333e-17 1.50517 2.4383e-16 1.69401)
(0.401617 0.0974264 -3.21925e-17 0.208901 -2.17339e-17 0.303116)
(2.58099 1.07948 8.89257e-17 2.27942 6.70827e-17 2.40754)
(4.40313 1.92068 6.2759e-17 4.21296 5.72149e-16 4.21815)
(3.4946 1.63359 -1.67907e-16 3.89538 8.93847e-16 3.60039)
(1.41409 -0.53081 -1.52611e-16 3.03061 -1.6605e-16 2.07561)
(14.2096 -7.04408 -3.60232e-16 21.543 1.49666e-16 17.3193)
(58.9922 -29.1623 1.61919e-15 76.4467 -1.93522e-15 67.5006)
(28.3013 -13.1398 -3.7709e-15 30.3848 -1.42619e-14 29.1934)
(29.3096 9.73884 1.60508e-15 19.4104 3.27969e-15 24.1263)
(30.0545 10.9575 -6.96184e-16 21.8683 8.48774e-15 26.0599)
(17.8214 6.54303 -9.22534e-16 13.0812 -2.43802e-15 15.4921)
(7.28335 2.70311 5.7334e-16 5.45153 -2.14057e-15 6.29786)
(2.85631 1.1611 6.04434e-16 2.38046 3.03916e-15 2.6732)
(0.00554007 0.00078543 7.31293e-21 0.00460515 1.2834e-20 0.00509817)
(0.00459587 0.000615827 -5.79732e-21 0.00389125 -1.69584e-20 0.00427615)
(0.00363946 0.000455769 -4.78869e-20 0.00313197 -1.03668e-20 0.00339343)
(0.00290329 0.000330728 5.56756e-20 0.00250461 -1.30801e-20 0.00268803)
(0.00248164 0.000243866 -1.21504e-20 0.00210088 8.39348e-21 0.00225949)
(0.00261719 0.000227073 -1.39227e-20 0.0021217 8.26824e-20 0.00234158)
(0.00327876 0.000263412 -1.27676e-20 0.002529 -1.75281e-20 0.00289082)
(0.00450126 0.000363781 6.74389e-20 0.00330225 -7.39014e-20 0.00390514)
(0.00639625 0.000575936 7.39409e-20 0.00446443 -1.94341e-20 0.0054524)
(0.0091686 0.00100424 -2.89797e-20 0.0060937 -9.7397e-21 0.00768136)
(0.0131441 0.00180703 -3.4722e-20 0.00832622 9.14367e-20 0.0108198)
(0.018705 0.00320103 3.34193e-19 0.0113543 -8.02006e-20 0.0151461)
(0.0262578 0.00544349 4.51734e-19 0.0155045 -1.14519e-19 0.0210352)
(0.0363231 0.00878313 -2.51319e-19 0.0213053 -3.47254e-20 0.0290174)
(0.0497382 0.0134691 3.53952e-19 0.0295333 -1.68511e-19 0.0398973)
(0.0682029 0.0200681 5.19161e-19 0.0415682 -1.31844e-19 0.0552719)
(0.0949136 0.0296523 -5.74703e-19 0.0597111 2.88241e-19 0.0779046)
(0.135755 0.0443929 7.95943e-19 0.088297 -1.65457e-19 0.112982)
(0.201583 0.0683556 4.40853e-19 0.135423 -1.84875e-20 0.170038)
(0.312848 0.109514 -2.37649e-18 0.217055 7.08707e-19 0.267436)
(0.508723 0.18336 -7.11388e-18 0.36456 3.2134e-18 0.44056)
(0.866716 0.321576 -1.67539e-18 0.642825 1.67104e-18 0.760898)
(1.53295 0.585967 1.02055e-17 1.18063 -4.02745e-18 1.36607)
(2.90817 1.14808 -3.29304e-17 2.33931 4.01576e-18 2.63842)
(5.45856 2.2264 8.29339e-18 4.60385 3.89339e-17 5.05184)
(11.2045 4.70832 -2.7297e-16 9.90351 7.57436e-17 10.5794)
(23.7659 10.2607 -1.30873e-16 21.9952 -8.95777e-17 22.8977)
(35.0641 15.5121 1.09476e-16 33.951 -3.5482e-17 34.4658)
(39.6896 17.9393 1.10568e-17 40.1304 4.61874e-18 39.7875)
(40.2535 18.5311 4.0141e-17 42.3678 -9.55184e-17 41.1261)
(39.4935 18.4635 -5.54522e-16 43.1002 4.41995e-17 41.0897)
(38.4156 18.1944 1.66175e-16 43.3128 8.01989e-17 40.6682)
(37.2117 17.8188 -2.39032e-15 43.2028 -5.03664e-16 40.0487)
(35.9334 17.3673 -4.12888e-15 42.8343 1.07338e-15 39.2795)
(34.5839 16.8489 1.4255e-15 42.2268 4.35217e-16 38.3685)
(33.2319 16.305 1.29066e-15 41.5208 -7.68764e-17 37.4038)
(31.6939 15.6529 1.79516e-15 40.5843 7.90687e-17 36.2017)
(30.1201 14.9608 -3.36807e-16 39.4708 -8.20412e-17 34.907)
(26.2936 13.1573 -6.03652e-15 35.8076 -1.0199e-15 31.1749)
(0.00187392 -9.36484e-05 2.66958e-22 0.00150066 1.72057e-22 0.00167249)
(0.00184676 -0.000126652 5.57356e-21 0.00151995 1.76251e-20 0.00166516)
(0.001788 -0.000155078 -2.84035e-21 0.00153023 -6.95262e-21 0.00163705)
(0.00170247 -0.000169912 -1.07056e-20 0.00151977 -1.74455e-20 0.00158511)
(0.00160653 -0.000174557 3.25799e-20 0.00149963 5.41857e-20 0.00152353)
(0.00150574 -0.000170944 1.25179e-20 0.00147314 2.0191e-20 0.00145598)
(0.00139746 -0.000159114 5.52619e-20 0.00142704 5.44593e-20 0.00137499)
(0.00128048 -0.000141153 -2.31685e-20 0.00135703 -6.62188e-21 0.00127821)
(0.00116181 -0.000120201 3.80625e-20 0.00126972 2.99028e-20 0.00117221)
(0.0010427 -9.89345e-05 1.27254e-21 0.00116496 5.32301e-22 0.00105812)
(0.000926882 -7.94863e-05 -5.76534e-20 0.0010504 -4.85894e-20 0.000942169)
(0.000820398 -6.34175e-05 7.31474e-20 0.000936885 8.34652e-20 0.000832733)
(0.000725175 -5.11917e-05 4.15275e-20 0.000830299 2.15984e-20 0.000733261)
(0.000637215 -4.17994e-05 -6.78106e-21 0.000727763 3.01022e-21 0.000641171)
(0.000606487 -4.23362e-05 -3.31442e-20 0.000694126 4.32637e-21 0.000606518)
(0.000677476 -6.19158e-05 6.75566e-20 0.000785053 7.22186e-20 0.000669158)
(0.00105818 -0.000169966 1.28897e-19 0.00125767 -1.61478e-19 0.00100632)
(0.00227475 -0.000642225 -1.43366e-18 0.00262395 -1.66661e-18 0.00198466)
(0.005936 -0.00211555 4.035e-19 0.00595344 2.94131e-18 0.00480895)
(0.0172682 -0.00635384 3.72268e-18 0.014999 -1.03435e-18 0.0137753)
(0.0537991 -0.0196393 7.30828e-18 0.0425284 3.34215e-18 0.0434843)
(0.212178 -0.0767669 -1.56064e-17 0.159215 -1.14102e-17 0.174826)
(0.671588 -0.242561 4.18012e-17 0.493037 7.6372e-17 0.563206)
(3.64696 -1.33369 1.89668e-18 2.68871 -9.1519e-17 3.11782)
(10.445 -3.94939 -2.22927e-16 7.9624 1.60195e-16 9.1918)
(16.1047 -6.28739 2.43528e-17 12.8294 -9.35418e-16 14.3838)
(18.8164 -7.63168 2.00163e-18 15.8934 9.14394e-17 17.1168)
(21.876 -9.54134 -1.65589e-16 20.7172 -7.01468e-16 21.1413)
(24.8967 -11.5919 1.4302e-16 26.9215 -4.88125e-15 25.7614)
(22.8958 -11.2545 4.93436e-16 28.4271 -4.75934e-15 25.9658)
(14.2983 -7.25706 -2.21773e-16 21.0435 1.1865e-15 18.0764)
(6.94709 -3.51914 -2.7946e-16 11.4697 4.88954e-17 9.57993)
(3.95505 0.266467 -8.80135e-15 1.57749 1.15899e-15 3.27881)
(41.632 12.4451 6.96005e-15 25.0533 2.55709e-14 33.0246)
(7.17725 1.69811 8.76415e-16 3.8505 -2.20243e-15 5.08049)
(1.44917 -0.700623 -4.58884e-15 2.5946 -1.62799e-14 1.99226)
(1.32785 -0.645829 8.67628e-16 2.28911 2.73042e-15 1.75982)
(0.710418 -0.347742 1.71899e-16 1.22535 3.31771e-15 0.950978)
(0.52292 -0.145923 -1.17084e-15 1.25217 -3.21661e-15 0.85318)
(0.00187544 -5.17311e-05 3.31188e-21 0.00147126 -2.38505e-21 0.00166432)
(0.00184941 -6.98904e-06 -4.21492e-21 0.00143605 -4.61575e-20 0.0016398)
(0.00177312 4.34792e-05 -1.06562e-20 0.00138211 1.60357e-20 0.00158124)
(0.0016439 8.81784e-05 -9.63001e-21 0.00130961 7.73832e-20 0.00148354)
(0.00150993 0.000118412 2.80419e-20 0.00124679 -1.32545e-20 0.0013868)
(0.00138494 0.000137521 4.21654e-21 0.00120166 -6.98467e-20 0.0013001)
(0.0012437 0.000145443 -1.57354e-20 0.00115641 -2.40433e-20 0.00120339)
(0.00108894 0.000136238 -7.42956e-20 0.00109245 3.93555e-20 0.00108969)
(0.000941784 0.000114622 2.89405e-20 0.00101288 1.48327e-20 0.000972036)
(0.000807457 8.75792e-05 -1.76003e-20 0.000918452 -7.36731e-21 0.000854124)
(0.000687793 6.173e-05 -7.32481e-21 0.00081237 -1.06634e-20 0.00073826)
(0.000581464 4.12859e-05 -1.41554e-20 0.000700555 -3.79124e-21 0.000627062)
(0.000486982 2.71344e-05 -2.50467e-22 0.000590677 4.37632e-21 0.000523932)
(0.000403764 1.8491e-05 6.0724e-21 0.000488753 6.78611e-21 0.000431616)
(0.000331789 1.37032e-05 1.46128e-20 0.000398689 -1.30243e-21 0.000351933)
(0.000271389 1.10499e-05 -2.75765e-20 0.000322948 6.65355e-21 0.000285892)
(0.000220883 9.34624e-06 2.82749e-20 0.000259763 -5.74994e-21 0.000231404)
(0.000179965 7.93383e-06 -6.164e-21 0.000208804 1.03807e-21 0.000187708)
(0.000146119 6.36775e-06 -1.13932e-20 0.000166763 1.99128e-21 0.000151679)
(0.000117107 4.59884e-06 -6.74886e-21 0.000130902 5.63214e-22 0.000120733)
(8.85465e-05 2.6781e-06 -9.98975e-21 9.63011e-05 -5.83806e-22 9.04107e-05)
(6.03368e-05 1.14314e-06 -5.35061e-21 6.36746e-05 1.05057e-23 6.10087e-05)
(3.24664e-05 2.79311e-07 -1.48612e-21 3.33177e-05 3.10819e-22 3.25941e-05)
(6.90413e-05 1.05872e-06 2.97327e-21 7.23833e-05 -1.07432e-21 6.93549e-05)
(0.00132947 0.000278489 -7.62749e-20 0.00218033 -1.6107e-19 0.0013654)
(0.00506659 0.0012509 2.06973e-18 0.00863468 -2.48621e-18 0.00508428)
(0.0476593 0.0122039 1.66007e-17 0.0799409 2.07895e-18 0.0471403)
(0.191292 0.0526556 4.29435e-19 0.315263 1.3281e-17 0.188135)
(0.408057 0.125284 -6.61917e-20 0.657153 -3.13662e-18 0.401481)
(0.611461 0.211616 9.6153e-17 0.956043 4.26968e-17 0.60549)
(0.758701 0.297039 5.92376e-16 1.13871 -9.74605e-17 0.762126)
(0.847601 0.367374 3.451e-16 1.20684 5.94628e-17 0.868919)
(0.912779 0.422985 2.29391e-15 1.221 2.68445e-17 0.956449)
(0.976747 0.467053 3.1855e-15 1.22771 -1.00837e-15 1.04341)
(1.04907 0.506038 -8.20119e-16 1.25355 4.24198e-16 1.13997)
(1.13158 0.544693 -6.3116e-16 1.30333 1.07544e-16 1.24623)
(1.19467 0.575025 -1.67301e-15 1.36256 5.50131e-16 1.33528)
(1.32778 0.639612 -2.86178e-15 1.52096 -6.93749e-16 1.47911)
(1.60402 0.779268 -1.94236e-15 1.86987 -5.27049e-16 1.84832)
(0.00132612 -6.46053e-05 1.46996e-21 0.00104626 3.36368e-21 0.00119178)
(0.00127753 -8.79056e-05 -1.25704e-20 0.00103387 -1.45586e-20 0.0011632)
(0.00120843 -0.000107774 -9.75922e-22 0.00101536 -5.18739e-21 0.00112149)
(0.00112512 -0.000120617 1.23106e-20 0.000991492 1.39705e-20 0.00107024)
(0.00104239 -0.000126533 -2.40114e-20 0.000971758 -3.29892e-20 0.0010211)
(0.00095186 -0.000123743 -2.38537e-20 0.000946148 -3.54087e-20 0.000965511)
(0.000856179 -0.00011165 -5.34e-20 0.000910011 -6.81462e-20 0.000902796)
(0.000764628 -9.23538e-05 -2.67991e-21 0.000866631 -2.40385e-21 0.000838491)
(0.000680422 -6.79555e-05 -3.16451e-20 0.000816005 -4.82908e-20 0.000774003)
(0.000609664 -4.18156e-05 9.55393e-20 0.000762312 9.67104e-20 0.000714354)
(0.000556206 -1.68266e-05 -1.00615e-20 0.000711298 1.87261e-20 0.000664238)
(0.00052217 5.22803e-06 1.4849e-20 0.00066873 7.30832e-21 0.000627964)
(0.00050771 2.35824e-05 -7.56911e-20 0.000639076 -8.65827e-20 0.000607888)
(0.0005091 3.8507e-05 4.40305e-20 0.000621773 -2.84594e-21 0.000601789)
(0.00052243 5.02933e-05 1.37979e-20 0.000616545 4.07522e-20 0.000606439)
(0.000555426 6.22086e-05 1.95754e-20 0.000637184 8.32694e-21 0.000633882)
(0.000558179 6.46227e-05 -8.36152e-20 0.000622533 -4.90262e-20 0.000622701)
(0.000501528 5.22513e-05 5.66086e-20 0.000542971 4.50708e-20 0.000543799)
(0.000170893 5.93263e-06 1.92909e-21 0.0001748 -5.04278e-23 0.000174831)
(0.000372694 2.93188e-05 -3.85641e-20 0.000389873 -6.03842e-21 0.000389028)
(0.00020048 9.07605e-06 1.27132e-20 0.000205677 -5.09311e-21 0.000204904)
(0.00187214 0.00078178 2.86636e-20 0.00234917 5.51905e-19 0.00222367)
(0.000986689 0.0004689 5.46021e-19 0.00122712 -7.12701e-19 0.00113648)
(0.0503037 -0.0179553 -5.66101e-18 0.0364558 -5.16594e-18 0.041913)
(1.01467 -0.373953 8.87014e-18 0.75589 3.87761e-17 0.869559)
(4.73954 -1.76663 -9.56505e-17 3.57369 4.27816e-17 4.09556)
(14.0104 -5.5003 4.63844e-17 11.2857 1.91066e-17 12.4944)
(28.5926 -12.1017 -1.85334e-16 25.725 5.70528e-16 26.9378)
(33.6964 -15.473 -6.19795e-16 35.2871 1.6214e-15 34.3128)
(28.7331 -14.0679 7.44954e-16 35.3515 7.47117e-16 32.2737)
(9.74096 -4.95377 9.3815e-16 14.3337 -3.65512e-16 12.4118)
(2.57734 -1.28151 -1.34836e-15 4.61031 2.83154e-16 3.83226)
(19.9638 5.25526 2.61402e-15 10.8208 1.7177e-15 15.6948)
(32.1084 8.98243 -2.16612e-15 18.4732 -5.9639e-15 24.6995)
(2.204 -0.891952 -3.28591e-15 1.89462 -2.77062e-15 1.96353)
(0.803053 -0.377202 2.91075e-15 1.52773 -2.24017e-15 1.15663)
(0.830534 -0.383826 -2.45513e-16 1.54493 -1.69837e-15 1.13659)
(0.530721 -0.248524 -9.86168e-16 0.972491 -2.7992e-15 0.722131)
(0.357508 -0.104691 7.98174e-16 0.866228 -2.29757e-17 0.610053)
(0.00135946 -3.62326e-05 -3.22806e-21 0.00105439 -5.82251e-21 0.00121201)
(0.00136755 -6.10635e-06 -4.86771e-21 0.00105338 9.87699e-21 0.00121471)
(0.00133802 2.90121e-05 4.26185e-20 0.00103573 3.97142e-20 0.00119065)
(0.00126643 6.11977e-05 -3.77293e-21 0.000999824 -3.83941e-20 0.00113542)
(0.00118077 8.68261e-05 -8.31134e-21 0.000964569 -2.69049e-20 0.00107512)
(0.00109805 0.000106063 -1.5375e-20 0.000941313 3.74879e-20 0.00102191)
(0.000998987 0.00011567 1.99409e-20 0.000911557 2.89103e-20 0.000957392)
(0.000879129 0.000112259 4.31353e-20 0.000859495 1.45326e-20 0.000871733)
(0.000751022 9.82479e-05 3.17366e-20 0.000786232 -2.96136e-20 0.000772043)
(0.000624556 7.79571e-05 1.28822e-21 0.000697029 2.10629e-20 0.000665842)
(0.000504999 5.55901e-05 -3.15407e-20 0.000595333 1.19674e-20 0.00055715)
(0.000399158 3.52411e-05 3.83862e-21 0.000490792 9.97213e-21 0.000453688)
(0.000310884 1.91817e-05 2.56939e-20 0.000393083 -1.93785e-20 0.000362096)
(0.000241 7.97616e-06 5.73699e-20 0.000308578 -2.45492e-20 0.000286037)
(0.000190409 1.10675e-06 -7.75888e-21 0.000243185 1.15859e-21 0.00022875)
(0.000156917 -2.8378e-06 -2.04411e-21 0.000197334 4.95221e-21 0.000189484)
(0.000136911 -5.0545e-06 4.99236e-20 0.000168531 -1.85286e-20 0.000165098)
(0.000125942 -6.53559e-06 3.54266e-21 0.000152209 -8.99747e-23 0.000151073)
(0.000120447 -7.87298e-06 4.96705e-20 0.000144286 -1.10501e-20 0.000143477)
(0.000118529 -9.34732e-06 5.18902e-20 0.00014173 -1.16574e-20 0.000139926)
(0.000119206 -1.09316e-05 1.32414e-19 0.000142777 -2.46202e-20 0.000139044)
(0.000122266 -1.26433e-05 1.5554e-19 0.00014633 -2.4649e-20 0.000140368)
(0.000126582 -1.44459e-05 7.86328e-20 0.000150407 -2.64104e-20 0.000142538)
(0.000127846 -1.5918e-05 1.45228e-20 0.000148978 4.19488e-21 0.000140855)
(0.000118933 -1.549e-05 -2.02074e-20 0.000134123 -1.29849e-20 0.000127963)
(0.000111092 -1.57011e-05 9.41012e-20 0.000121181 2.34432e-20 0.000117397)
(5.9082e-05 -5.41861e-06 -1.22084e-20 6.09604e-05 5.72662e-21 6.05069e-05)
(0.000153546 -4.39844e-05 -9.00144e-20 0.000162455 -7.99445e-21 0.000160467)
(0.000808207 -0.000376257 2.19977e-19 0.000986799 6.74889e-20 0.000827854)
(0.00221026 0.000186042 -5.01184e-18 0.00376284 1.32994e-18 0.00207997)
(0.0138599 0.00510699 -2.18866e-17 0.0206447 1.67474e-17 0.0134813)
(0.0435142 0.0187707 -1.04875e-16 0.060305 -6.00707e-18 0.043725)
(0.093905 0.043372 -2.28845e-16 0.121905 7.8896e-17 0.096845)
(0.164999 0.0783653 -5.19747e-16 0.199722 8.32801e-17 0.173576)
(0.251914 0.119838 -1.12822e-15 0.285322 -4.5904e-16 0.269429)
(0.347835 0.162067 2.53386e-16 0.365818 2.44159e-16 0.375912)
(0.455762 0.205964 -1.24463e-15 0.450964 -1.00598e-15 0.497171)
(0.52652 0.22551 3.77434e-15 0.476602 4.47619e-16 0.561709)
(0.804396 0.371549 5.85123e-15 0.833094 9.02834e-16 0.900353)
(0.00103295 -5.04212e-05 2.71995e-21 0.000816551 2.70199e-21 0.000925417)
(0.00101511 -6.88543e-05 -2.70155e-21 0.000822191 -4.59609e-21 0.000918938)
(0.000988085 -8.59278e-05 -1.66131e-21 0.000828793 -5.31597e-21 0.000908109)
(0.000955645 -9.91654e-05 1.8528e-20 0.000836737 2.467e-20 0.000895098)
(0.000918698 -0.000107555 1.56068e-20 0.000844206 2.16159e-20 0.000879515)
(0.000871437 -0.000110054 2.40333e-20 0.000844457 2.72749e-20 0.000854988)
(0.000816617 -0.000106383 2.92441e-20 0.000835634 3.06241e-20 0.00082223)
(0.000757284 -9.73015e-05 -1.37867e-20 0.000816773 -1.80753e-20 0.000782242)
(0.000696226 -8.41215e-05 -5.80364e-20 0.000788277 -5.26649e-20 0.000736219)
(0.00063594 -6.87744e-05 6.58148e-20 0.000750111 3.87822e-20 0.00068536)
(0.000578633 -5.31949e-05 6.13135e-20 0.000704632 4.96659e-20 0.000631833)
(0.000526777 -3.89624e-05 8.09805e-20 0.000656186 4.06846e-20 0.000579263)
(0.000482376 -2.69188e-05 -1.25023e-19 0.000609506 -4.38008e-20 0.000531195)
(0.000445402 -1.7057e-05 -1.15853e-19 0.000566954 -7.53604e-20 0.000488972)
(0.000414531 -9.01215e-06 1.46868e-19 0.00052867 4.80691e-20 0.000452127)
(0.000386714 -2.62476e-06 3.19326e-20 0.000491859 1.90764e-20 0.000417783)
(0.000352585 3.04749e-06 -2.26253e-20 0.00044562 2.31552e-21 0.000376738)
(0.000312694 7.93113e-06 -7.6448e-20 0.000390501 -5.04235e-20 0.000329529)
(0.0002581 1.09469e-05 1.73834e-20 0.000312593 -6.82132e-21 0.000267027)
(0.000206156 1.16277e-05 6.36906e-20 0.000238944 2.09332e-20 0.000209518)
(3.88777e-05 5.45697e-07 -3.33345e-21 3.98002e-05 -1.00016e-21 3.89377e-05)
(0.000148122 8.3071e-06 1.96339e-20 0.00015829 2.86811e-21 0.000149371)
(0.000313089 3.19368e-05 -1.60361e-20 0.000348638 -3.80937e-21 0.000321294)
(0.00531141 0.00245544 -2.78462e-18 0.00811942 9.29815e-19 0.0060388)
(0.0037226 0.000344657 4.34335e-18 0.00560257 -6.62218e-19 0.00309246)
(0.270302 -0.0988717 -2.80326e-17 0.203437 2.07502e-17 0.225901)
(3.06833 -1.19559 3.09535e-19 2.45115 -4.8577e-18 2.71719)
(14.874 -6.20181 1.5818e-16 13.0419 -5.6412e-17 13.8812)
(29.1088 -13.0733 -1.35764e-16 28.958 1.0834e-15 29.0911)
(21.5409 -10.2763 6.19038e-16 24.314 -1.20996e-15 23.3257)
(3.87813 -1.956 -1.20564e-16 5.19605 -1.40882e-16 4.7842)
(0.472328 -0.168222 1.66395e-15 0.451463 -5.18191e-16 0.620887)
(27.6224 7.33659 5.795e-15 15.1245 -2.68533e-17 21.5072)
(13.5004 2.81165 -1.1804e-15 6.62874 -2.47992e-15 9.61787)
(1.16325 -0.513519 2.06739e-15 1.09918 3.03982e-16 1.19)
(0.559168 -0.275803 9.21636e-16 1.01989 9.83942e-15 0.845341)
(0.650488 -0.307821 5.8764e-17 1.22865 -2.44531e-15 0.936159)
(0.494751 -0.236538 6.49354e-16 0.903507 -1.07886e-15 0.687263)
(0.267947 -0.103475 -2.22141e-16 0.608737 2.76858e-16 0.46057)
(0.00104125 -2.87369e-05 -5.44291e-21 0.00080924 -7.28867e-21 0.000926986)
(0.0010395 -6.29475e-06 -4.43546e-21 0.000801821 1.762e-20 0.000922722)
(0.0010167 1.93612e-05 1.59688e-20 0.000786792 1.29694e-20 0.000904055)
(0.000971813 4.3469e-05 -1.61276e-20 0.000764874 5.22707e-21 0.000869635)
(0.000919816 6.37867e-05 1.22836e-20 0.000746464 2.5182e-20 0.000834341)
(0.000860817 7.93287e-05 2.95952e-20 0.000730313 -2.42356e-20 0.000796932)
(0.000787983 8.79987e-05 1.02889e-20 0.000708518 3.6396e-21 0.00074984)
(0.000704122 8.78953e-05 -3.10839e-20 0.000676143 -1.70608e-20 0.000691675)
(0.000618529 8.03675e-05 -9.63743e-21 0.000634967 3.08771e-22 0.000628153)
(0.000536238 6.78322e-05 6.31548e-20 0.000586431 -6.79533e-21 0.000562571)
(0.00046003 5.29464e-05 1.42616e-20 0.000531403 -3.02992e-21 0.000496657)
(0.000392749 3.84845e-05 2.58173e-20 0.000473447 -1.21414e-20 0.000433464)
(0.000335354 2.63384e-05 -6.46589e-20 0.000416447 4.9962e-21 0.000375404)
(0.000287876 1.73035e-05 -5.32438e-20 0.000364066 1.57249e-20 0.000324373)
(0.000251005 1.13537e-05 1.29345e-20 0.000320404 2.0684e-21 0.000282784)
(0.000224351 7.69124e-06 1.18652e-20 0.000287382 -3.10331e-21 0.000251558)
(0.000207279 5.46083e-06 -4.94154e-20 0.0002655 1.0181e-20 0.000230699)
(0.000197554 3.88289e-06 4.79057e-21 0.000252603 -1.16046e-21 0.000218122)
(0.000192475 2.42449e-06 -1.3861e-20 0.000245545 3.58854e-21 0.000210968)
(0.000188614 8.00496e-07 4.07277e-20 0.00024005 -4.41292e-21 0.000205494)
(0.000183898 -9.90185e-07 -4.94043e-20 0.000233383 1.53698e-20 0.000199303)
(0.000176599 -2.89431e-06 -7.8408e-20 0.000223253 2.38823e-20 0.000190433)
(0.000165551 -4.78328e-06 1.59881e-20 0.000208078 9.35877e-21 0.000177531)
(0.000149313 -6.33803e-06 2.89555e-20 0.000185983 9.15838e-21 0.000158978)
(0.00012987 -7.05792e-06 6.28171e-20 0.000160044 -4.33832e-21 0.000137)
(0.000108431 -6.65407e-06 -6.65926e-20 0.000131907 2.12568e-20 0.000113078)
(8.7043e-05 -5.67528e-06 -7.29353e-21 0.000104635 -1.07851e-20 8.97504e-05)
(2.43117e-05 -5.77632e-07 8.76669e-22 2.5951e-05 -5.99017e-22 2.44888e-05)
(8.2599e-05 -1.04808e-05 -1.18725e-20 0.000109907 2.80585e-21 8.40635e-05)
(5.04695e-05 -7.27389e-06 -1.89501e-20 6.65637e-05 -3.4944e-20 4.93431e-05)
(1.58005e-05 -1.51636e-06 -5.01531e-20 1.16495e-05 -7.31331e-20 1.04751e-05)
(0.000390463 6.52728e-05 1.27625e-18 0.000184656 2.64072e-19 0.00035306)
(0.00206537 0.000411887 9.36202e-18 0.00106497 4.43275e-18 0.00197219)
(0.00673756 0.00155012 4.90712e-17 0.0037136 -2.06651e-18 0.00658141)
(0.0172774 0.00462212 1.47078e-16 0.0103043 -2.41629e-17 0.0171956)
(0.0384251 0.0114746 -2.76528e-16 0.024558 -1.75741e-18 0.038794)
(0.0800412 0.025555 1.09082e-15 0.0539067 1.12152e-16 0.0819832)
(0.135694 0.0436719 -6.97686e-16 0.0901432 -6.41799e-18 0.135563)
(0.318015 0.129757 -7.26404e-16 0.270159 1.09642e-16 0.337178)
(0.000806233 -3.83392e-05 -5.16286e-21 0.000636458 -4.13388e-21 0.0007223)
(0.000790297 -5.20313e-05 4.91975e-22 0.000637992 -7.26027e-22 0.000715381)
(0.000766863 -6.48298e-05 6.47335e-21 0.000639509 8.08834e-21 0.00070481)
(0.000737959 -7.49946e-05 -3.51063e-20 0.000641295 -3.14156e-20 0.0006918)
(0.000705258 -8.15872e-05 -2.592e-20 0.000642972 -2.94532e-20 0.000676995)
(0.000664139 -8.35554e-05 5.56088e-20 0.000638985 5.3935e-20 0.000655026)
(0.000617212 -8.0623e-05 -5.60538e-20 0.000628401 -5.55651e-20 0.000626944)
(0.000568262 -7.33939e-05 -2.22907e-20 0.000612262 -1.86797e-20 0.000595143)
(0.000518903 -6.25685e-05 -5.88702e-20 0.000590166 -4.27278e-20 0.000560068)
(0.000470785 -4.93028e-05 -1.42072e-20 0.00056164 -1.8803e-20 0.000522302)
(0.000425162 -3.4974e-05 7.95834e-21 0.000527182 -1.40139e-21 0.000482605)
(0.000383461 -2.09209e-05 -4.65162e-20 0.000488732 -5.1042e-20 0.000442732)
(0.000347183 -8.0992e-06 1.35082e-19 0.000449317 8.85872e-20 0.000405087)
(0.000317406 3.11273e-06 -4.12414e-20 0.000411757 -6.8128e-21 0.000371769)
(0.000294488 1.26777e-05 -1.09687e-19 0.000377656 -4.88585e-20 0.00034387)
(0.000279242 2.07218e-05 7.13716e-20 0.000348644 2.51606e-21 0.000322736)
(0.000272529 2.71274e-05 -5.28863e-20 0.000326706 -3.01947e-20 0.000309471)
(0.000270169 3.14684e-05 3.90989e-22 0.000308632 3.87451e-20 0.00029986)
(0.000264253 3.31415e-05 -1.26442e-20 0.000286668 -9.77608e-21 0.0002858)
(0.000249935 3.1877e-05 -9.0253e-20 0.000257275 -6.26889e-20 0.00026301)
(0.000200403 2.23927e-05 5.40271e-20 0.000196742 5.25132e-20 0.000204611)
(0.000114279 8.41706e-06 5.40346e-22 0.000110629 -1.71538e-20 0.000114205)
(8.96417e-06 5.98123e-08 4.73123e-23 8.94899e-06 1.48872e-23 8.96084e-06)
(0 0 0 0 0 0)
(0.00255405 0.00121503 -6.45818e-19 0.00340142 -1.71027e-19 0.00287681)
(0.00079367 0.000330965 1.11961e-18 0.00106973 2.15153e-19 0.000854972)
(0.0775804 -0.0306358 -7.6143e-19 0.0644516 1.88114e-19 0.0678844)
(2.27086 -0.945071 -4.29966e-17 1.98634 -2.79412e-17 2.11491)
(8.73519 -3.82283 -6.19996e-17 8.25703 1.66841e-16 8.54518)
(6.25342 -2.78832 -1.59825e-15 6.07195 2.36703e-16 6.29378)
(0.620205 -0.271663 -1.39456e-16 0.583144 3.80968e-17 0.672726)
(1.54911 0.0739852 2.094e-16 0.589534 1.09659e-16 1.17833)
(22.8426 5.36928 1.42773e-15 11.6414 -2.63441e-16 17.2399)
(5.27792 0.459766 2.14547e-15 2.18775 -1.82159e-15 3.44789)
(0.692503 -0.271527 -4.68553e-16 0.576267 4.6634e-15 0.758256)
(0.641764 -0.313593 -2.07914e-16 1.18645 1.59859e-16 1.00182)
(0.694924 -0.328137 1.38443e-15 1.34065 7.07829e-15 1.0357)
(0.539281 -0.262315 3.92842e-16 0.968429 2.78942e-15 0.751654)
(0.278651 -0.137416 4.34634e-16 0.507389 -2.78661e-16 0.426215)
(0.000814018 -2.24197e-05 3.88509e-21 0.000632626 -2.06454e-21 0.000724561)
(0.000813512 -5.84894e-06 -1.33098e-20 0.000627609 -8.26728e-21 0.000721792)
(0.000797182 1.32709e-05 -3.3403e-21 0.000616364 6.22763e-21 0.000708096)
(0.000765242 3.17428e-05 1.07861e-20 0.000600525 -3.09888e-20 0.000683528)
(0.000730062 4.79605e-05 -7.25557e-20 0.000589198 -4.93008e-20 0.000660339)
(0.000689164 6.09146e-05 -6.06078e-20 0.000579577 4.20305e-20 0.000635284)
(0.00063775 6.90146e-05 8.7799e-20 0.000566204 5.77833e-21 0.000603068)
(0.000577817 7.07097e-05 -4.67676e-20 0.000545576 -2.77451e-20 0.000562834)
(0.000514906 6.66615e-05 -1.97718e-20 0.000517959 6.52637e-21 0.000517662)
(0.000451904 5.83134e-05 -1.09103e-20 0.000483179 -2.07596e-20 0.000468994)
(0.000390721 4.74164e-05 -1.86272e-21 0.00044124 9.93163e-21 0.000417751)
(0.000333719 3.5933e-05 -1.9186e-20 0.000394379 -4.93642e-21 0.000366142)
(0.000282453 2.54298e-05 -4.13084e-20 0.000345654 2.59747e-20 0.000316393)
(0.000237643 1.6796e-05 4.92623e-20 0.000298122 -3.70215e-21 0.000270344)
(0.000199992 1.03305e-05 2.8328e-20 0.000254969 -8.99664e-21 0.00022992)
(0.000169552 5.74652e-06 -5.56156e-21 0.000218263 -2.51217e-21 0.000196242)
(0.000145883 2.52468e-06 1.60306e-20 0.000188753 -2.46068e-21 0.000169558)
(0.000127957 9.23287e-08 -3.07217e-20 0.000165818 6.85523e-21 0.000149144)
(0.000114617 -1.99134e-06 2.17938e-20 0.000148177 -3.85243e-21 0.000133847)
(0.000104598 -3.98783e-06 -2.3756e-20 0.000134071 5.47822e-21 0.000122218)
(9.73635e-05 -5.95156e-06 3.03357e-20 0.000122495 -6.16356e-21 0.000113482)
(9.30263e-05 -7.83835e-06 2.94144e-20 0.000113133 -9.44543e-21 0.00010754)
(9.24312e-05 -9.51209e-06 -1.03203e-20 0.000106546 -3.01533e-23 0.000105065)
(9.65178e-05 -1.07237e-05 -6.51346e-20 0.000103403 1.0154e-20 0.000106869)
(0.000105077 -1.10617e-05 -1.75843e-20 0.000103946 1.82084e-20 0.000112854)
(0.000116844 -1.04765e-05 -6.41617e-21 0.000108036 -2.24461e-20 0.000122174)
(0.000130667 -9.28566e-06 2.62535e-20 0.000115151 -3.19747e-21 0.00013397)
(0.000144608 -7.7993e-06 -4.86905e-22 0.000123565 1.47817e-21 0.000146395)
(0.000149926 -5.84621e-06 -7.10899e-22 0.000126403 -1.14656e-21 0.000150541)
(0.00019358 -6.61955e-06 2.47208e-20 0.000154897 6.28758e-21 0.000193237)
(5.55755e-05 -4.7493e-07 1.41717e-21 5.16073e-05 2.02543e-22 5.54545e-05)
(0.000524046 -1.91956e-05 -5.44543e-19 0.000305897 -1.10102e-19 0.00051449)
(8.68813e-06 -9.5764e-09 -8.69657e-22 8.55592e-06 -4.23624e-23 8.68073e-06)
(0.00310261 -0.000118292 -2.50426e-18 0.00140579 3.25463e-18 0.00297811)
(0.0053236 -0.000221524 2.9949e-18 0.00237131 6.3285e-18 0.00503881)
(0.000474844 -2.03725e-05 -6.41685e-19 0.000220104 -1.64542e-18 0.00044129)
(0.00296924 -5.91421e-05 -2.52665e-17 0.00124837 2.17568e-17 0.00268001)
(0.00567382 0.000167686 7.18754e-17 0.00226744 1.21422e-17 0.00483191)
(0.0452218 0.0128217 -2.9051e-16 0.0266522 -5.17098e-17 0.0425815)
(0.000644238 -3.05558e-05 4.85385e-21 0.000508574 3.53158e-21 0.000577208)
(0.000635147 -4.1363e-05 -1.08058e-20 0.00051228 -7.50724e-21 0.00057459)
(0.00062137 -5.17921e-05 -1.20028e-22 0.000517013 -2.47361e-21 0.00057012)
(0.000604899 -6.06178e-05 -1.89614e-21 0.000523687 -5.03789e-21 0.000565206)
(0.000586281 -6.69219e-05 3.10928e-20 0.000531345 2.80505e-20 0.000559777)
(0.00056105 -6.98233e-05 2.23493e-20 0.000535142 2.00812e-20 0.000548938)
(0.000531416 -6.90853e-05 3.13465e-21 0.000534674 5.36037e-21 0.000533707)
(0.000500058 -6.50782e-05 6.02489e-20 0.000530598 5.07397e-20 0.000515782)
(0.000467399 -5.81424e-05 -4.73987e-21 0.000521878 9.91201e-22 0.000494806)
(0.000434041 -4.89486e-05 -1.97492e-20 0.000507333 -1.04029e-20 0.000470513)
(0.000400553 -3.84075e-05 3.88036e-20 0.000486582 1.62832e-20 0.000442923)
(0.000367788 -2.75048e-05 -5.00809e-20 0.000460414 -2.03376e-20 0.000412859)
(0.000336816 -1.71182e-05 -9.8211e-20 0.000430616 -7.09631e-20 0.000381821)
(0.000308328 -7.75659e-06 -4.22254e-20 0.000399047 4.95958e-21 0.000351145)
(0.000282361 3.84271e-07 1.75713e-19 0.000366803 7.91129e-20 0.000321493)
(0.000258924 7.22614e-06 -1.25357e-19 0.000334773 -5.65948e-20 0.00029335)
(0.000236704 1.27281e-05 -3.12195e-20 0.000301981 2.40347e-20 0.00026562)
(0.000213166 1.70361e-05 5.80425e-20 0.000265434 3.69968e-20 0.000235957)
(0.000189874 2.00357e-05 -3.64014e-20 0.000227043 -5.12299e-22 0.000206149)
(0.00017058 2.15335e-05 -1.20579e-20 0.000191724 2.92133e-20 0.000180393)
(0.000157157 2.1234e-05 1.74815e-20 0.00016251 -9.94325e-21 0.000160905)
(0.00014537 1.82116e-05 -1.20229e-19 0.000137299 8.34506e-21 0.000143989)
(0.000111496 9.89397e-06 1.30381e-21 0.000100028 -1.14865e-20 0.000108118)
(5.51413e-06 2.81672e-08 -1.71859e-22 5.47721e-06 7.33028e-24 5.50268e-06)
(0 0 0 0 0 0)
(0.000107842 6.52888e-06 -1.53124e-21 0.000110771 -3.82059e-21 0.000109407)
(0.00909791 0.00436657 -2.92802e-19 0.0110841 -3.44071e-20 0.00975962)
(0.0205867 -0.0065961 2.61769e-18 0.0137178 2.60796e-20 0.015934)
(0.478729 -0.169853 1.40839e-16 0.338025 -3.97797e-17 0.408891)
(0.432901 -0.107704 7.6085e-17 0.226435 9.23379e-17 0.336212)