/*--------------------------------*- C++ -*----------------------------------*\
| =========                 |                                                 |
| \\      /  F ield         | OpenFOAM: The Open Source CFD Toolbox           |
|  \\    /   O peration     | Version:  2306                                  |
|   \\  /    A nd           | Website:  www.openfoam.com                      |
|    \\/     M anipulation  |                                                 |
\*---------------------------------------------------------------------------*/
FoamFile
{
    version     2.0;
    format      ascii;
    arch        "LSB;label=32;scalar=64";
    class       volScalarField;
    location    "25";
    object      turbulenceProperties:I;
}
// * * * * * * * * * * * * * * * * * * * * * * * * * * * * * * * * * * * * * //

dimensions      [0 0 0 0 0 0 0];

internalField   nonuniform List<scalar> 
10720
(
0.00507632
0.00477824
0.00458621
0.00455016
0.00459574
0.00473887
0.00497364
0.00527147
0.0056426
0.00610444
0.00667847
0.00740997
0.0083579
0.00960152
0.0112525
0.0134638
0.0164636
0.020622
0.02661
0.0356688
0.0506119
0.0803634
0.148237
0.427101
1
0.368751
0.0927004
0.191604
0.213602
0.22323
0.760567
0.316486
0.24252
0.200634
0.290056
0.218452
0.20106
0.167646
0.220983
0.00549672
0.00629355
0.00769615
0.0106965
0.0148479
0.0129516
0.00868423
0.0068605
0.00619997
0.00607828
0.00629204
0.00675274
0.00741874
0.00827978
0.00934228
0.0106565
0.0123083
0.0144426
0.0172701
0.0211168
0.0264445
0.0339552
0.0445549
0.0608853
0.0833898
0.1202
0.176837
0.217533
0.234657
0.239725
0.241396
0.242372
0.243142
0.243721
0.24432
0.245066
0.245842
0.247916
0.252838
0.00277801
0.0024416
0.00215001
0.00190068
0.00169367
0.00151976
0.00136979
0.00123779
0.0011223
0.00101945
0.000927648
0.000846966
0.000776187
0.000711816
0.00068136
0.00070814
0.000870814
0.00123852
0.00191434
0.00317557
0.00558968
0.0113893
0.0217664
0.0597765
0.138373
0.270312
0.881484
1
1
1
0.550311
0.141314
0.0475987
0.51153
0.0887493
0.0674479
0.0820601
0.0866586
0.16811
0.00319005
0.00374854
0.00455072
0.00556463
0.0062794
0.00590306
0.00459595
0.00342002
0.00262096
0.00208075
0.00170033
0.00141953
0.00120269
0.00102919
0.000886647
0.000768142
0.000667124
0.000581312
0.000506134
0.000437787
0.000367625
0.000293366
0.000208654
0.000298887
0.0014136
0.00274312
0.00831188
0.01655
0.0241227
0.0295779
0.033054
0.0350519
0.0364639
0.0378411
0.0394723
0.0413568
0.0432491
0.0462824
0.054812
0.00230288
0.00204401
0.00180707
0.00160027
0.00142956
0.00128017
0.0011488
0.00103627
0.000939757
0.000859458
0.000795599
0.000748185
0.000716687
0.000698252
0.000690362
0.000698884
0.000690059
0.000645793
0.000369646
0.000550433
0.000400789
0.00129482
0.000925615
0.00579574
0.0281842
0.0730103
0.191378
0.514236
0.902083
0.737239
0.231191
0.0738026
0.124794
0.713217
0.0588962
0.0570987
0.0796741
0.100051
0.167487
0.00259989
0.0029491
0.00335813
0.00375096
0.00396392
0.00385542
0.00337866
0.00277588
0.00224065
0.00181234
0.00147425
0.00120794
0.000997487
0.000831096
0.000704418
0.000612615
0.00055001
0.00050871
0.000481404
0.000463167
0.000451119
0.000443926
0.000439045
0.000429079
0.000403146
0.00038169
0.000272124
0.000439998
0.00102991
0.00180459
0.00441605
0.00777712
0.0113867
0.0150492
0.0185937
0.0218387
0.0251489
0.0269843
0.0361891
0.00196325
0.00179282
0.00163067
0.00148599
0.0013594
0.00124269
0.00113703
0.00104213
0.000956804
0.000880214
0.000811955
0.000752212
0.000701379
0.000658833
0.000623262
0.000592045
0.000557866
0.000520186
0.000468596
0.000416782
0.000178733
0.000356796
0.000528322
0.00233774
0.00184922
0.0143374
0.0566619
0.165279
0.308014
0.279251
0.103605
0.026578
0.204034
0.221349
0.0495694
0.0524234
0.084383
0.124237
0.160365
0.00214607
0.0023477
0.00255985
0.00274158
0.00283489
0.00278907
0.00256931
0.00224838
0.00192132
0.00163198
0.00139009
0.00119339
0.00103457
0.00090691
0.000806909
0.000731068
0.000676356
0.000637654
0.000609296
0.000584957
0.000560963
0.000534597
0.000504104
0.000467116
0.000426416
0.000382737
0.000338225
0.000173184
0.000331801
0.000256967
0.000122838
0.000609592
0.0014356
0.00263751
0.00430753
0.00654962
0.00965471
0.0126831
0.0211821
0.0016634
0.00154129
0.00141897
0.00130474
0.00120138
0.00110253
0.00101086
0.000928039
0.000852923
0.000784956
0.000723509
0.000668445
0.000620207
0.000579227
0.000545514
0.000519662
0.0005026
0.000491082
0.000478441
0.000460588
0.000410647
0.000312486
8.94352e-05
0
0.00163557
0.000890626
0.00791443
0.0472948
0.105417
0.0989833
0.0329687
0.0403866
0.284112
0.109918
0.040772
0.062311
0.1042
0.167829
0.173898
0.00178659
0.00191276
0.00203458
0.0021305
0.00217988
0.00215917
0.00204433
0.00185954
0.00164944
0.00144354
0.00125579
0.00109137
0.000949862
0.000829185
0.00072793
0.000644459
0.000576991
0.000523071
0.000480017
0.000444838
0.000415978
0.000393239
0.000377962
0.000371608
0.000373865
0.000382851
0.000396467
0.000411405
0.00041572
0.000467576
0.000256489
0.000739607
0.000103127
0.00176141
0.00231194
0.000695507
0.00173037
0.00238446
0.00737985
0.00142705
0.00134197
0.00125399
0.00117048
0.00109353
0.00101755
0.000945894
0.000880379
0.000819902
0.000763895
0.000711798
0.000663437
0.000619124
0.000579001
0.000542746
0.000510126
0.000479639
0.000448365
0.000417203
0.000389951
0.000369394
0.000352027
0.000309388
7.16062e-05
0
0.000322485
0.00302253
0.00393651
0.020137
0.0204123
0.0133095
0.0496621
0.327696
0.0721439
0.0434703
0.0814163
0.134322
0.233077
0.220564
0.00150961
0.00159117
0.00166716
0.00172449
0.00175456
0.00174451
0.00167731
0.00156345
0.00142532
0.00128131
0.00114311
0.00101729
0.000905781
0.000808521
0.00072512
0.000654781
0.0005961
0.000547104
0.000505422
0.000468459
0.000434372
0.000402177
0.000372151
0.000344939
0.00032101
0.000300981
0.000284634
0.000269006
0.000250221
0.000225946
0.000192709
0.000150468
0.000128238
6.31874e-05
3.68338e-05
0.000191646
0.000675427
0.000913191
0.00115766
0.00123749
0.00117586
0.00111005
0.00104633
0.000986242
0.000924266
0.000864513
0.000808897
0.000756388
0.000706901
0.000660296
0.000616477
0.000575934
0.000538999
0.000505834
0.000476321
0.000450788
0.000429427
0.000411184
0.000395182
0.000381478
0.000366478
0.000375364
0.000280893
5.8151e-05
0
0
0.00385226
0.00386186
0.00475242
0.00620468
0.0580926
0.260515
0.0602676
0.0508416
0.11144
0.182166
0.321747
0.30075
0.00129514
0.00135035
0.00140129
0.00143862
0.00145841
0.00145321
0.00141129
0.00133705
0.00124277
0.00113934
0.00103515
0.00093583
0.000843913
0.000760299
0.000685646
0.000620048
0.00056318
0.000514464
0.000473035
0.000437619
0.000407128
0.000380732
0.000357844
0.000337539
0.000318346
0.00029957
0.000281136
0.000262279
0.000242788
0.000222579
0.000205457
0.000202463
0.00021397
0.000236822
0.00023432
0.0001727
7.20046e-06
5.82466e-06
0.000778289
0.00108426
0.00103918
0.000989703
0.000940554
0.00089425
0.000844999
0.00079676
0.000751356
0.000708112
0.000667211
0.000628513
0.000591814
0.000557426
0.000525516
0.000496156
0.000469064
0.000444192
0.000419998
0.000395087
0.000369735
0.000344646
0.000319886
0.000307932
0.000319126
0.000202123
4.05118e-05
0
0
0.00191956
0.00225528
0.00621993
0.0657691
0.175516
0.0603924
0.0575085
0.15802
0.261881
0.371164
0.374434
0.00112588
0.00116454
0.0012003
0.00122618
0.00124029
0.00123726
0.00120974
0.00115948
0.00109352
0.00101855
0.000940263
0.000863231
0.00078985
0.000721414
0.000659014
0.000603189
0.000554041
0.000511421
0.000474774
0.000443096
0.000415216
0.000390062
0.000366779
0.00034445
0.000322089
0.000299872
0.000278674
0.000259409
0.000243932
0.000233765
0.000232874
0.000242664
0.00025797
0.000274225
0.000287886
0.000287827
0.000271961
2.6265e-05
1.43152e-05
0.000958845
0.000924568
0.000887062
0.000848901
0.00081156
0.000772287
0.000733535
0.00069657
0.000660523
0.000625658
0.000592192
0.000559853
0.000528884
0.000499545
0.000472002
0.000446252
0.00042245
0.000400497
0.000380166
0.000360721
0.000340367
0.000316995
0.000291005
0.000280082
0.0002766
0.000135852
2.2304e-05
0
0
0
0.00619903
0.0710843
0.12941
0.0683191
0.065136
0.235187
0.380434
0.316243
0.340593
0.000989605
0.00101764
0.00104367
0.0010623
0.00107249
0.00107095
0.00105231
0.00101728
0.000970074
0.000914863
0.000855414
0.000795196
0.000736175
0.000679616
0.000626579
0.000577685
0.000533251
0.00049341
0.000458025
0.000426669
0.000398768
0.000373665
0.000350819
0.000329512
0.000309084
0.000289464
0.000271138
0.000254309
0.000238917
0.000223852
0.00020796
0.000191786
0.000175898
0.000162634
0.000153078
0.000153267
0.00015803
0.000179206
3.88102e-05
0.000854821
0.000828099
0.000799059
0.000769628
0.000739465
0.000706949
0.000674754
0.000645289
0.00061579
0.000587236
0.000558627
0.00053049
0.000503238
0.000477108
0.000452231
0.000428714
0.000406686
0.000385967
0.0003661
0.000347378
0.000330081
0.000312559
0.000291652
0.000269007
0.000261548
0.000245546
6.67489e-05
2.43566e-05
0
0
0.00639729
0.0721664
0.111485
0.0821986
0.0913912
0.378666
0.438092
0.243268
0.259951
0.00087804
0.000899018
0.000918528
0.00093232
0.000939875
0.000938539
0.000925834
0.00090118
0.000866903
0.000825806
0.000780411
0.000733316
0.000686121
0.000639906
0.000595694
0.000554116
0.000515533
0.00048024
0.000448288
0.000419494
0.00039344
0.000369589
0.000347395
0.000326325
0.000305816
0.000285931
0.000267152
0.000249774
0.000233941
0.000218531
0.000202439
0.00018674
0.000172276
0.000160698
0.000150974
0.000145805
0.000141814
0.000157753
0.00012668
0.000767334
0.000746415
0.000723449
0.000700237
0.000676813
0.000649889
0.000622767
0.00059737
0.00057203
0.0005498
0.000526234
0.000501964
0.000478063
0.000454814
0.000432363
0.000410865
0.000390424
0.0003711
0.000352469
0.000334443
0.000317702
0.000302283
0.000286851
0.000269533
0.000252676
0.000250529
0.000229978
9.54688e-05
5.89569e-06
0
0.0066353
0.0688474
0.106329
0.0983443
0.131272
0.655457
0.35633
0.191668
0.198952
0.000785384
0.000801373
0.000816491
0.000826904
0.000832655
0.000831703
0.000821678
0.000804163
0.000779514
0.000748867
0.000713959
0.00067689
0.000639024
0.000601214
0.000564336
0.000528923
0.000495315
0.000463826
0.000434678
0.000407856
0.000383158
0.000360295
0.000338921
0.000318636
0.000299021
0.00028017
0.000262429
0.000246093
0.000231286
0.000216993
0.000202187
0.00018764
0.000173714
0.000162225
0.000152554
0.000146463
0.000141756
0.000148293
0.00015052
0.000692947
0.000676298
0.000658063
0.000639342
0.000620383
0.000598847
0.000577187
0.000555191
0.000533217
0.000512087
0.000494401
0.000474177
0.000453531
0.000433017
0.000412885
0.00039334
0.000374492
0.000356565
0.000339164
0.000322203
0.000306233
0.000291402
0.000277291
0.000265325
0.00025278
0.000238958
0.000264122
0.00030144
1.9285e-05
0
0.00678879
0.0631079
0.101992
0.119925
0.192976
0.788438
0.268471
0.15718
0.158652
0.000707221
0.000719755
0.00073163
0.0007396
0.000743953
0.000743743
0.000735899
0.000721612
0.000703867
0.000681693
0.000654927
0.000625669
0.000595233
0.000564327
0.000533714
0.000503812
0.000474897
0.000447286
0.000421206
0.000396754
0.000373902
0.000352468
0.000332209
0.000312755
0.000293877
0.000275647
0.000258436
0.000242505
0.000228001
0.000214045
0.000199779
0.000185691
0.000171877
0.000160262
0.000150779
0.000145236
0.000140671
0.000141033
0.000138961
0.000629059
0.000615487
0.000600803
0.000585717
0.000570147
0.000552302
0.000534456
0.000517019
0.00049928
0.000478963
0.000462244
0.000447422
0.000429546
0.00041158
0.00039371
0.000376141
0.000358889
0.000342324
0.000326066
0.000310153
0.000295343
0.000281673
0.000268151
0.000257576
0.000250671
0.000233925
0.000259395
0.000355399
2.38317e-05
0
0.00694275
0.0572164
0.0963803
0.159876
0.330901
0.537892
0.210173
0.132766
0.130808
0.000640462
0.000650375
0.000659976
0.000666053
0.000669338
0.000669355
0.000664107
0.000652523
0.000637449
0.000621675
0.000601947
0.000579053
0.000554563
0.000529306
0.000503867
0.000478641
0.000453848
0.000429763
0.000406588
0.00038443
0.000363326
0.000343207
0.000323922
0.000305237
0.000287026
0.000269456
0.000252908
0.0002377
0.000224052
0.000211264
0.000198581
0.000186336
0.000174072
0.000163054
0.000153027
0.000144923
0.000137665
0.000136206
0.000133995
0.000573516
0.000562449
0.000550575
0.000538152
0.000525377
0.000510668
0.000495747
0.000481145
0.000466264
0.000451256
0.0004334
0.000420756
0.000406146
0.000390845
0.000375271
0.000359633
0.000343971
0.00032874
0.000313595
0.000298542
0.000284514
0.000271848
0.000259311
0.000249131
0.00024443
0.000229864
0.000257371
0.000341353
2.39289e-05
0
0.00697297
0.0510663
0.092696
0.222695
0.693703
0.362223
0.17066
0.114211
0.110411
0.000582867
0.000590858
0.000598598
0.000603264
0.000605837
0.000605991
0.000602012
0.0005939
0.000581082
0.000567318
0.0005536
0.000536263
0.000516822
0.000496207
0.000475101
0.00045387
0.000432695
0.000411812
0.000391375
0.000371487
0.000352205
0.000333556
0.00031545
0.000297766
0.000280424
0.000263646
0.000247782
0.000233144
0.000219922
0.000207566
0.00019545
0.000183742
0.000172087
0.000161559
0.000152317
0.000144935
0.000138151
0.000135541
0.000133647
0.000525029
0.000515844
0.000506069
0.000495903
0.000485297
0.000472999
0.000460682
0.000448498
0.000435805
0.000423223
0.000409516
0.000394221
0.000383958
0.000371296
0.000357729
0.000343781
0.000329607
0.000315584
0.000301527
0.000287449
0.000274142
0.000262195
0.000250636
0.000240735
0.000236481
0.000223294
0.000255551
0.000312628
2.28037e-05
0
0.00674437
0.0433416
0.0885875
0.268618
0.843217
0.258795
0.140899
0.0988051
0.0943323
0.000532654
0.000539095
0.000545474
0.000549076
0.000551151
0.000551394
0.000548321
0.000542074
0.000532879
0.000520044
0.000509163
0.000496816
0.000481776
0.000465079
0.000447579
0.000429736
0.000411704
0.000393639
0.000375655
0.000357854
0.00034034
0.000323161
0.000306297
0.000289637
0.000273218
0.000257269
0.000242168
0.000228161
0.000215494
0.000203718
0.000192338
0.000181453
0.000170772
0.000160825
0.00015202
0.000144835
0.000138028
0.000134517
0.000132836
0.000482215
0.000474613
0.000466538
0.000458013
0.000449259
0.000439064
0.000428718
0.000418506
0.000407857
0.000397048
0.00038622
0.00037255
0.000361692
0.000352547
0.000340595
0.000328187
0.000315435
0.000302593
0.00028958
0.000276452
0.000263858
0.000252581
0.000241929
0.000232215
0.000228262
0.00021559
0.000243486
0.000295484
2.21236e-05
0
0.00626228
0.0352907
0.0803536
0.240931
0.413788
0.189068
0.116039
0.0849858
0.0807712
0.00048855
0.000493838
0.000499012
0.000501799
0.000503539
0.000503847
0.00050145
0.000496541
0.000489517
0.000479643
0.000468847
0.000460306
0.000449085
0.00043577
0.000421334
0.000406314
0.000390932
0.000375315
0.000359546
0.000343712
0.000327912
0.000312205
0.000296605
0.000281059
0.000265653
0.000250625
0.000236326
0.000222982
0.000210832
0.000199524
0.000188718
0.00017847
0.000168618
0.000159281
0.000151051
0.000144398
0.000137922
0.000133445
0.000130987
0.000444321
0.000437862
0.00043114
0.00042412
0.000416802
0.000408212
0.000399607
0.000391039
0.000381919
0.000372716
0.000363442
0.000353701
0.000341253
0.0003336
0.00032339
0.000312613
0.000301337
0.000289704
0.000277741
0.000265527
0.000253618
0.000242917
0.000233018
0.000223416
0.00021953
0.000207259
0.000225251
0.000284132
2.18392e-05
0
0.00559151
0.0288449
0.069022
0.177206
0.231835
0.138061
0.093775
0.0716706
0.0684204
0.00044951
0.000453839
0.000458106
0.000460294
0.0004617
0.00046205
0.00046018
0.000456246
0.000450807
0.000443495
0.00043335
0.000426199
0.00041842
0.000408084
0.000396244
0.000383611
0.000370496
0.000357029
0.000343262
0.000329271
0.000315126
0.00030088
0.000286545
0.00027214
0.000257747
0.000243646
0.00023014
0.000217481
0.000205853
0.000195018
0.000184701
0.000175012
0.000165848
0.000157041
0.0001492
0.000142957
0.000136887
0.000131881
0.000128433
0.000410379
0.000405009
0.000399466
0.000393533
0.000387429
0.000380266
0.00037294
0.000365688
0.000358029
0.00035014
0.000342093
0.00033387
0.000324652
0.00031421
0.000307356
0.000297906
0.000287821
0.000277224
0.000266257
0.000254908
0.00024365
0.000233397
0.000224048
0.000214499
0.00020994
0.000199094
0.000205421
0.000265608
4.72912e-05
0
0.00476309
0.0237601
0.0565458
0.120581
0.141862
0.0995182
0.0735605
0.0585478
0.0566059
0.000414789
0.000418352
0.000421805
0.000423515
0.000424724
0.000425059
0.000423609
0.000420409
0.000416154
0.000410479
0.000402502
0.000394819
0.000389567
0.000381878
0.000372314
0.000361773
0.00035063
0.000339031
0.000327056
0.000314762
0.000302187
0.000289358
0.000276282
0.000262992
0.000249581
0.000236386
0.000223692
0.000211724
0.000200638
0.000190274
0.000180439
0.000171279
0.000162699
0.000154346
0.000146775
0.000140754
0.000134962
0.000129673
0.000125344
0.000380028
0.000375506
0.00037084
0.000365933
0.000360795
0.000354672
0.000348558
0.000342435
0.000335833
0.000329144
0.000322298
0.000315133
0.00030779
0.000297889
0.000291826
0.000283394
0.000274509
0.000265051
0.000255125
0.00024466
0.000234005
0.000224112
0.000215109
0.000205593
0.000199735
0.000190609
0.000185427
0.000239721
0.000127443
1.04767e-05
0.00379356
0.0186232
0.0432452
0.0774487
0.0880444
0.0698302
0.0556151
0.0458908
0.0451238
0.000383675
0.000386578
0.000389456
0.000390795
0.000391787
0.000392112
0.000390972
0.000388412
0.000384958
0.000380471
0.000374383
0.000367008
0.00036259
0.000357112
0.00034962
0.000340981
0.000331533
0.000321547
0.000311159
0.000300411
0.000289286
0.000277765
0.000265883
0.000253666
0.000241262
0.000228967
0.000217091
0.000205812
0.000195303
0.000185431
0.0001761
0.000167424
0.000159338
0.000151386
0.000144037
0.000138106
0.000132435
0.000126918
0.000121816
0.000352646
0.000348873
0.000344987
0.000340807
0.000336521
0.000331383
0.000326129
0.00032092
0.000315369
0.000309631
0.000303724
0.000297568
0.000291295
0.000284062
0.000275309
0.000269779
0.000262006
0.000253469
0.000244396
0.000234723
0.000224634
0.000215103
0.000206288
0.000196907
0.000189276
0.000181415
0.000167665
0.00020948
0.000161184
1.46237e-05
0.00279744
0.0134537
0.0305915
0.0449132
0.0505728
0.0466199
0.0402252
0.0343397
0.0344283
0.000355733
0.00035813
0.000360446
0.00036146
0.000362315
0.000362615
0.000361708
0.000359635
0.000356791
0.00035329
0.000348298
0.000341996
0.000337744
0.000334018
0.000328455
0.000321412
0.000313391
0.000304794
0.000295775
0.000286359
0.000276512
0.000266198
0.000255443
0.000244267
0.000232832
0.000221429
0.000210362
0.00019981
0.000189889
0.000180539
0.000171723
0.000163523
0.00015585
0.000148226
0.00014105
0.000135108
0.000129408
0.000123735
0.000118024
0.000327945
0.000324708
0.000321479
0.000318042
0.000314393
0.000309951
0.000305535
0.000301128
0.000296314
0.000291444
0.00028644
0.000281098
0.000275606
0.000269801
0.000261644
0.000256729
0.000249637
0.000241968
0.000233838
0.000225021
0.000215564
0.000206452
0.000197748
0.000188542
0.000179127
0.000171439
0.000152459
0.000170559
0.00018102
1.87182e-05
0.00177211
0.00855594
0.0215956
0.0214697
0.0236838
0.0298282
0.0279814
0.0245385
0.0249926
0.000330474
0.000332444
0.000334342
0.000335112
0.000335783
0.000336081
0.000335348
0.00033368
0.00033136
0.000328487
0.000324706
0.00031938
0.000314638
0.000312554
0.000308545
0.000302896
0.000296139
0.000288738
0.000280888
0.000272623
0.000263893
0.000254683
0.000244987
0.000234828
0.000224319
0.000213793
0.000203525
0.000193703
0.000184386
0.000175576
0.000167247
0.000159474
0.00015215
0.000144837
0.000137859
0.000131912
0.0001261
0.000120212
0.000113972
0.000305406
0.000302745
0.000300147
0.000297191
0.000294106
0.000290351
0.000286518
0.000282761
0.00027873
0.000274537
0.000270213
0.000265642
0.000260857
0.000255832
0.000250023
0.000242771
0.000237974
0.000231135
0.000223853
0.000215782
0.00020696
0.000198268
0.000189667
0.000180587
0.000169884
0.000161043
0.00013971
0.000134051
0.00017148
2.91673e-05
0.000616619
0.00346834
0.0160375
0.0164003
0.0156661
0.0200307
0.0191986
0.0169245
0.0172772
0.000307616
0.000309218
0.000310707
0.000311273
0.00031185
0.000312115
0.000311534
0.00031016
0.000308286
0.000305893
0.00030294
0.000299191
0.00029391
0.000291774
0.000289523
0.000285264
0.000279659
0.000273275
0.000266443
0.0002592
0.000251495
0.000243291
0.000234578
0.00022537
0.000215761
0.000206074
0.000196596
0.000187478
0.000178773
0.000170485
0.000162621
0.000155245
0.000148236
0.000141183
0.000134362
0.000128399
0.000122512
0.000116413
0.000109715
0.000284933
0.000282724
0.000280552
0.000278119
0.000275471
0.000272196
0.000269002
0.000265836
0.000262328
0.000258776
0.000255112
0.000251142
0.000246973
0.000242579
0.000237799
0.000231323
0.000227173
0.000220624
0.000213941
0.000206599
0.000198565
0.000190414
0.000182086
0.000173147
0.000161942
0.000150896
0.000128995
0.00010318
0.000134982
3.95335e-05
4.0634e-06
0.00308125
0.0109818
0.0149047
0.0154118
0.0149082
0.0133186
0.011555
0.0115602
0.000286767
0.000288057
0.000289284
0.000289673
0.000290128
0.000290376
0.000289904
0.000288782
0.000287274
0.000285278
0.000282847
0.000280049
0.000276001
0.000272402
0.000271281
0.000268376
0.000263859
0.000258441
0.000252551
0.000246233
0.000239455
0.000232168
0.000224368
0.000216021
0.000207235
0.00019832
0.000189583
0.000181146
0.000173046
0.000165279
0.000157871
0.000150862
0.000144146
0.000137326
0.000130673
0.000124702
0.000118733
0.000112401
0.000105297
0.000266174
0.000264358
0.000262597
0.000260496
0.000258271
0.000255527
0.000252773
0.000250085
0.000247166
0.000244103
0.000240921
0.000237532
0.000233916
0.00023004
0.0002259
0.000221004
0.000215802
0.000210236
0.000204387
0.000197799
0.000190507
0.00018294
0.000175057
0.000166361
0.000155329
0.00014223
0.000120551
7.764e-05
9.4087e-05
0.000126562
1.47916e-05
0.00145585
0.00627568
0.010689
0.0117629
0.0107692
0.00914177
0.00781138
0.00755611
0.000267759
0.000268819
0.000269752
0.000269985
0.000270376
0.000270588
0.000270194
0.000269249
0.00026801
0.000266415
0.000264365
0.000262107
0.00025927
0.000255266
0.000253985
0.000252212
0.000248685
0.000244248
0.00023924
0.000233768
0.000227828
0.000221364
0.000214354
0.000206765
0.000198718
0.000190527
0.000182502
0.000174746
0.00016725
0.000160009
0.000153046
0.000146414
0.00014
0.000133413
0.000126905
0.000120907
0.000114847
0.000108282
0.000100737
0.000249022
0.000247456
0.000246018
0.000244317
0.000242408
0.000240037
0.00023778
0.000235544
0.000233001
0.000230414
0.000227724
0.000224764
0.000221635
0.000218247
0.000214579
0.000210433
0.000204883
0.000201114
0.00019588
0.000189912
0.00018323
0.000176177
0.000168777
0.000160439
0.00014994
0.000136038
0.000114969
6.43034e-05
7.43211e-05
0.000144277
2.56671e-05
0.000522333
0.00268178
0.00637881
0.0076161
0.00712856
0.00604819
0.00509801
0.00489031
0.000250311
0.000251181
0.000251917
0.000252038
0.000252321
0.000252512
0.000252165
0.000251374
0.000250352
0.000249029
0.000247275
0.000245501
0.000243249
0.000239824
0.000237936
0.000236836
0.00023436
0.000230828
0.000226564
0.000221835
0.000216607
0.000210829
0.000204467
0.000197555
0.0001902
0.00018272
0.000175394
0.000168291
0.000161383
0.000154663
0.00014813
0.00014186
0.000135745
0.000129433
0.000123115
0.000117149
0.000111018
0.000104253
9.6263e-05
0.000233192
0.000231911
0.000230779
0.0002293
0.000227717
0.000225779
0.00022385
0.000221974
0.000219888
0.000217665
0.000215337
0.000212831
0.000210131
0.000207172
0.000204014
0.000200598
0.000195747
0.00019279
0.000187773
0.000182454
0.000176497
0.000170072
0.000163269
0.000155503
0.000145809
0.000132596
0.000113344
7.58425e-05
8.16652e-05
0.0001474
3.25345e-05
3.01498e-06
0.00130307
0.00315654
0.00429031
0.00422176
0.00368782
0.00319432
0.00313908
0.000234321
0.000235014
0.000235528
0.000235565
0.000235808
0.000235953
0.000235645
0.000234948
0.000234084
0.000233007
0.000231525
0.00023002
0.000228424
0.000225529
0.000222895
0.000222557
0.000220876
0.000218007
0.000214412
0.000210321
0.000205698
0.000200466
0.000194672
0.000188394
0.000181721
0.000174942
0.000168294
0.000161814
0.000155456
0.00014921
0.000143073
0.000137132
0.000131285
0.000125276
0.000119137
0.00011324
0.000107142
0.000100287
9.19437e-05
0.000218716
0.000217565
0.000216603
0.00021543
0.000214123
0.000212481
0.000210951
0.000209421
0.000207602
0.000205755
0.000203821
0.000201655
0.000199374
0.000196873
0.000194135
0.000191296
0.000187974
0.000184143
0.000179953
0.000175393
0.000170215
0.00016448
0.000158375
0.000151393
0.00014279
0.000131311
0.000115346
9.33659e-05
9.42854e-05
0.000143599
0.000153314
1.48767e-05
0.000151586
0.00122975
0.0020932
0.0022416
0.00207226
0.00188709
0.00194305
0.000219574
0.000220098
0.00022049
0.000220446
0.00022062
0.000220731
0.000220446
0.000219833
0.000219103
0.000218171
0.000216917
0.000215615
0.000214451
0.00021253
0.000209293
0.000208544
0.000207757
0.000205601
0.000202679
0.000199168
0.000195059
0.000190331
0.000185122
0.000179475
0.000173476
0.000167354
0.000161324
0.000155408
0.000149548
0.000143729
0.000137946
0.000132293
0.000126687
0.000120942
0.00011497
0.000109143
0.000103117
9.63104e-05
8.78146e-05
0.00020531
0.000204317
0.000203543
0.000202526
0.000201502
0.000200211
0.000198925
0.000197657
0.0001962
0.000194641
0.000193
0.000191222
0.000189299
0.000187239
0.000184962
0.000182566
0.000179844
0.000175781
0.000173002
0.00016902
0.000164544
0.000159447
0.00015404
0.000147957
0.00014066
0.000131348
0.000119274
0.000106948
0.000107885
0.000137137
0.000192804
4.99019e-05
2.37023e-06
4.01167e-05
0.000843956
0.00105646
0.00106561
0.00103953
0.00114617
0.000206022
0.000206409
0.000206621
0.000206498
0.000206643
0.000206711
0.000206436
0.000205879
0.000205237
0.00020446
0.000203408
0.00020222
0.000201275
0.000199767
0.000196928
0.000195512
0.000195119
0.00019378
0.000191566
0.00018858
0.000184933
0.000180725
0.00017606
0.000171025
0.000165646
0.000160107
0.00015462
0.000149196
0.000143777
0.000138341
0.000132885
0.000127491
0.000122098
0.000116554
0.000110693
0.000104882
9.89502e-05
9.22991e-05
8.37867e-05
0.000192981
0.000191997
0.00019139
0.000190635
0.000189801
0.000188722
0.00018774
0.000186737
0.000185482
0.000184227
0.000182923
0.000181427
0.00017987
0.000178161
0.000176274
0.000174272
0.000172075
0.000168586
0.000166432
0.000162751
0.000158932
0.00015455
0.000149954
0.000144903
0.000139038
0.00013191
0.000123434
0.000116516
0.000119081
0.000135951
0.000184632
0.000158172
4.31113e-05
3.2922e-05
0.000139481
0.000374964
0.000472391
0.000523324
0.000645956
0.000193494
0.000193715
0.000193825
0.00019365
0.000193723
0.000193771
0.000193491
0.00019299
0.000192431
0.000191747
0.00019081
0.000189839
0.000188963
0.000187866
0.000185371
0.000183143
0.000183415
0.000182751
0.00018109
0.000178612
0.00017544
0.00017168
0.000167537
0.000163076
0.000158244
0.000153214
0.00014819
0.000143187
0.000138146
0.000133043
0.00012788
0.00012273
0.000117531
0.000112128
0.000106351
0.000100542
9.46965e-05
8.82742e-05
7.98743e-05
0.000181414
0.000180544
0.000180156
0.000179539
0.000178903
0.000178082
0.00017727
0.000176475
0.000175523
0.000174498
0.000173426
0.000172255
0.000170975
0.000169589
0.000168056
0.000166318
0.000164488
0.000162206
0.000159447
0.000156439
0.000153266
0.000149607
0.000145896
0.000141977
0.000137587
0.000132467
0.000126878
0.000123156
0.000126608
0.000138765
0.000170249
0.000202162
0.000154706
8.94628e-05
9.44162e-05
0.000147446
0.000199854
0.000245431
0.000340987
0.000181893
0.000182
0.000181965
0.000181739
0.000181793
0.000181799
0.000181525
0.000181051
0.000180547
0.000179967
0.000179171
0.000178306
0.000177447
0.000176576
0.000175126
0.00017218
0.0001718
0.000172082
0.000171142
0.000169171
0.000166383
0.000163071
0.00015943
0.000155485
0.000151143
0.000146552
0.00014192
0.000137279
0.00013257
0.000127768
0.000122867
0.000117939
0.000112914
0.000107618
0.000101895
9.60877e-05
9.03548e-05
8.42182e-05
7.60001e-05
0.000170646
0.000170057
0.00016971
0.000169271
0.000168758
0.000168074
0.000167507
0.000166928
0.000166129
0.00016535
0.000164551
0.000163598
0.000162598
0.000161471
0.000160191
0.000158793
0.000157208
0.000155489
0.00015253
0.000150696
0.000148026
0.000145049
0.000142134
0.000139238
0.000136171
0.000132743
0.000129301
0.000127605
0.000131215
0.000141441
0.000162228
0.000194611
0.000208577
0.000194546
0.000179758
0.000178856
0.000185491
0.000194149
0.000220362
0.000171059
0.000171067
0.000170961
0.000170713
0.000170719
0.000170698
0.000170423
0.00016998
0.000169534
0.000169009
0.000168297
0.000167554
0.000166832
0.000165903
0.000164885
0.000162952
0.000161278
0.000161791
0.000161429
0.000159987
0.000157641
0.000154764
0.000151586
0.000148065
0.000144149
0.000139945
0.000135663
0.000131338
0.000126924
0.000122386
0.000117728
0.000113001
0.000108127
0.000102945
9.7306e-05
9.15306e-05
8.59182e-05
8.01136e-05
7.21348e-05
0.000160634
0.000160305
0.000160015
0.000159636
0.000159268
0.000158778
0.000158338
0.00015791
0.000157364
0.000156765
0.000156142
0.000155447
0.000154662
0.000153794
0.000152793
0.000151615
0.000150378
0.00014903
0.000146683
0.00014553
0.000143073
0.000140778
0.000138603
0.000136608
0.000134661
0.000132582
0.000130686
0.000130293
0.000133803
0.000142577
0.000158081
0.000182264
0.000205066
0.000214868
0.000214238
0.000210718
0.000206883
0.000202596
0.00020013
0.000160974
0.000160908
0.000160733
0.000160451
0.000160445
0.000160391
0.000160116
0.000159688
0.000159267
0.000158809
0.000158193
0.00015751
0.0001568
0.00015599
0.000155167
0.000154097
0.000151962
0.000151864
0.000152094
0.000151028
0.000149093
0.000146607
0.000143793
0.000140675
0.000137139
0.000133277
0.000129298
0.000125258
0.000121117
0.000116835
0.000112414
0.000107882
0.000103166
9.8113e-05
9.25684e-05
8.68486e-05
8.13883e-05
7.58889e-05
6.81556e-05
0.000151398
0.000151063
0.000150893
0.000150673
0.000150396
0.000150007
0.000149756
0.000149501
0.000149064
0.000148664
0.000148262
0.000147733
0.000147177
0.00014651
0.000145742
0.000144898
0.000143922
0.000142908
0.000141748
0.000140117
0.000138234
0.00013655
0.00013506
0.000133876
0.000132873
0.000131862
0.000131081
0.000131533
0.000134886
0.000142357
0.000154771
0.000172982
0.000192918
0.000207688
0.000214832
0.000216037
0.000213291
0.000207945
0.000199167
0.000151603
0.000151457
0.000151234
0.000150938
0.00015088
0.000150812
0.000150525
0.000150119
0.000149724