/*--------------------------------*- C++ -*----------------------------------*\
| =========                 |                                                 |
| \\      /  F ield         | OpenFOAM: The Open Source CFD Toolbox           |
|  \\    /   O peration     | Version:  2306                                  |
|   \\  /    A nd           | Website:  www.openfoam.com                      |
|    \\/     M anipulation  |                                                 |
\*---------------------------------------------------------------------------*/
FoamFile
{
    version     2.0;
    format      ascii;
    arch        "LSB;label=32;scalar=64";
    class       volScalarField;
    location    "25";
    object      turbulenceProperties:nuEff;
}
// * * * * * * * * * * * * * * * * * * * * * * * * * * * * * * * * * * * * * //

dimensions      [0 2 -1 0 0 0 0];

internalField   nonuniform List<scalar> 
10720
(
2.45237e-05
2.65962e-05
2.9106e-05
3.25206e-05
3.76117e-05
4.48992e-05
5.47324e-05
6.71034e-05
8.25338e-05
0.000101791
0.000126276
0.00015864
0.000202768
0.000266026
0.000358861
0.000498874
0.00071512
0.00105866
0.00162232
0.00258617
0.00433975
0.0081658
0.0165022
0.0456559
0.0424927
0.0261765
0.0236168
0.0427085
0.0581908
0.0567365
0.04222
0.0792626
0.153298
0.1188
0.0889979
0.0928785
0.0683095
0.0381025
0.0328349
2.2513e-05
2.06422e-05
1.89546e-05
1.76817e-05
1.6929e-05
1.76438e-05
1.94706e-05
2.2471e-05
2.69909e-05
3.38533e-05
4.43906e-05
6.022e-05
8.27085e-05
0.000113098
0.000152901
0.000206174
0.000281086
0.000393222
0.00057089
0.000867573
0.00138519
0.00232633
0.00407663
0.00771938
0.0145757
0.0302876
0.0653716
0.0985314
0.114177
0.1187
0.119542
0.119412
0.118784
0.117779
0.11648
0.115078
0.113339
0.111499
0.106706
1.57202e-05
1.56542e-05
1.55661e-05
1.54411e-05
1.52893e-05
1.51536e-05
1.50522e-05
1.49681e-05
1.49015e-05
1.48373e-05
1.47623e-05
1.46845e-05
1.46363e-05
1.45075e-05
1.51251e-05
1.78604e-05
3.04295e-05
7.53357e-05
0.000175401
0.000368823
0.000780715
0.00207831
0.00455135
0.018523
0.0454585
0.076654
0.118209
0.197142
0.270636
0.27154
0.1817
0.114262
0.129206
0.168713
0.103808
0.0728691
0.0481718
0.0240475
0.030924
1.57757e-05
1.58695e-05
1.59575e-05
1.6054e-05
1.60986e-05
1.6035e-05
1.59159e-05
1.57715e-05
1.55969e-05
1.53965e-05
1.51762e-05
1.49397e-05
1.46917e-05
1.4438e-05
1.41632e-05
1.38685e-05
1.35149e-05
1.30945e-05
1.2553e-05
1.1885e-05
1.111e-05
1.04725e-05
1.01137e-05
1.04117e-05
0.000106418
0.000380184
0.00316061
0.012308
0.0272398
0.0437356
0.0578718
0.0671858
0.0722161
0.0747263
0.0761967
0.0775562
0.0786343
0.0806546
0.0848738
1.62492e-05
1.62557e-05
1.62721e-05
1.62972e-05
1.63271e-05
1.63516e-05
1.63673e-05
1.63824e-05
1.64032e-05
1.64328e-05
1.64732e-05
1.65244e-05
1.65851e-05
1.66657e-05
1.6715e-05
1.69924e-05
1.643e-05
1.47431e-05
1.05043e-05
1.24284e-05
1.07904e-05
9.6815e-05
0.000187149
0.00166088
0.0120463
0.0367936
0.0904133
0.208739
0.324173
0.317989
0.162751
0.10066
0.196134
0.177177
0.0771497
0.050802
0.0389769
0.0256723
0.0354271
1.62466e-05
1.62446e-05
1.62253e-05
1.62055e-05
1.61861e-05
1.61933e-05
1.62048e-05
1.62218e-05
1.62423e-05
1.62673e-05
1.62942e-05
1.63205e-05
1.6346e-05
1.63719e-05
1.6401e-05
1.64339e-05
1.64729e-05
1.65189e-05
1.6575e-05
1.66438e-05
1.6731e-05
1.68425e-05
1.69948e-05
1.71419e-05
1.69223e-05
1.75341e-05
1.3047e-05
4.40559e-05
0.000581699
0.00236821
0.00643625
0.0129505
0.0213718
0.0306531
0.0397319
0.0479251
0.0548342
0.0595913
0.0718548
1.61733e-05
1.61675e-05
1.61666e-05
1.61752e-05
1.61922e-05
1.6211e-05
1.62257e-05
1.62365e-05
1.62476e-05
1.62604e-05
1.62757e-05
1.62937e-05
1.63157e-05
1.6343e-05
1.63784e-05
1.64294e-05
1.64736e-05
1.64672e-05
1.56736e-05
1.44099e-05
1.01537e-05
1.16989e-05
1.48823e-05
0.000392651
0.000984794
0.00724005
0.0344323
0.127741
0.263253
0.252558
0.0985204
0.0803741
0.214819
0.140923
0.0568408
0.046458
0.0410137
0.0329503
0.039795
1.61779e-05
1.61864e-05
1.61868e-05
1.61868e-05
1.61796e-05
1.61729e-05
1.61643e-05
1.61565e-05
1.615e-05
1.6145e-05
1.61416e-05
1.61391e-05
1.61367e-05
1.61341e-05
1.61314e-05
1.613e-05
1.61299e-05
1.61311e-05
1.61337e-05
1.6138e-05
1.61441e-05
1.61518e-05
1.61624e-05
1.61648e-05
1.624e-05
1.62072e-05
1.61771e-05
1.08104e-05
3.13244e-05
3.77396e-05
6.2079e-05
0.000341512
0.00100125
0.0024448
0.00529245
0.0102035
0.0175154
0.0253626
0.043919
1.61753e-05
1.61764e-05
1.61828e-05
1.61955e-05
1.62112e-05
1.62242e-05
1.62326e-05
1.62394e-05
1.62476e-05
1.62575e-05
1.62684e-05
1.62793e-05
1.629e-05
1.62997e-05
1.631e-05
1.63221e-05
1.63369e-05
1.63578e-05
1.63493e-05
1.62923e-05
1.49423e-05
1.21729e-05
1.0016e-05
1e-05
0.000209797
0.000118778
0.00383463
0.0425501
0.122174
0.114864
0.0309285
0.0647456
0.200395
0.101641
0.0521711
0.0600239
0.0522564
0.0425962
0.0444231
1.61779e-05
1.6187e-05
1.619e-05
1.61894e-05
1.61817e-05
1.6178e-05
1.61746e-05
1.61723e-05
1.61713e-05
1.61712e-05
1.61718e-05
1.61723e-05
1.61729e-05
1.61737e-05
1.61753e-05
1.61772e-05
1.61792e-05
1.61808e-05
1.6182e-05
1.61827e-05
1.61831e-05
1.61837e-05
1.61851e-05
1.61882e-05
1.61916e-05
1.62025e-05
1.62178e-05
1.62744e-05
1.59532e-05
1.90267e-05
1.09225e-05
6.41287e-05
1.00372e-05
0.000578586
0.0012511
0.000146413
0.00112639
0.00209765
0.0126359
1.61695e-05
1.61712e-05
1.61782e-05
1.61917e-05
1.62069e-05
1.62189e-05
1.62273e-05
1.6236e-05
1.62473e-05
1.62608e-05
1.6276e-05
1.62926e-05
1.63108e-05
1.63311e-05
1.63539e-05
1.63801e-05
1.64108e-05
1.64436e-05
1.64769e-05
1.65413e-05
1.66551e-05
1.65213e-05
1.43936e-05
1.00137e-05
1e-05
1.1336e-05
0.00106171
0.00588106
0.0256722
0.0226897
0.00929122
0.0537843
0.168673
0.0775208
0.0623341
0.0802299
0.0641948
0.0509542
0.0476399
1.61717e-05
1.61806e-05
1.61845e-05
1.61836e-05
1.61767e-05
1.6174e-05
1.61719e-05
1.61701e-05
1.61688e-05
1.61683e-05
1.61681e-05
1.61678e-05
1.61675e-05
1.61675e-05
1.6168e-05
1.61686e-05
1.61688e-05
1.61684e-05
1.61673e-05
1.61654e-05
1.61629e-05
1.61607e-05
1.61599e-05
1.61609e-05
1.61639e-05
1.61691e-05
1.61766e-05
1.61851e-05
1.61841e-05
1.62784e-05
1.60947e-05
1.46856e-05
1.39069e-05
1.01862e-05
1.00133e-05
1.65615e-05
0.000269926
0.000525147
0.00110167
1.61678e-05
1.61699e-05
1.61768e-05
1.61901e-05
1.62044e-05
1.62155e-05
1.62241e-05
1.62335e-05
1.62452e-05
1.62584e-05
1.62725e-05
1.62873e-05
1.63025e-05
1.63184e-05
1.63349e-05
1.6352e-05
1.63693e-05
1.63876e-05
1.64129e-05
1.64391e-05
1.65374e-05
1.64996e-05
1.81709e-05
1.30317e-05
1.0007e-05
1e-05
1e-05
0.00131062
0.00115037
0.00114656
0.00153492
0.0477316
0.136399
0.070479
0.0834536
0.106337
0.0779414
0.059004
0.0502645
1.61687e-05
1.6176e-05
1.61797e-05
1.61783e-05
1.61722e-05
1.61701e-05
1.61691e-05
1.61682e-05
1.61677e-05
1.61676e-05
1.61676e-05
1.61673e-05
1.61673e-05
1.6168e-05
1.61695e-05
1.61714e-05
1.61734e-05
1.61753e-05
1.6177e-05
1.61786e-05
1.61803e-05
1.61825e-05
1.61856e-05
1.619e-05
1.61964e-05
1.6206e-05
1.62199e-05
1.62391e-05
1.6263e-05
1.62958e-05
1.63534e-05
1.63643e-05
1.60038e-05
1.60409e-05
1.40712e-05
1.09522e-05
1e-05
1e-05
0.000266283
1.61656e-05
1.6168e-05
1.6175e-05
1.6188e-05
1.62016e-05
1.62119e-05
1.62204e-05
1.62302e-05
1.62419e-05
1.62547e-05
1.62683e-05
1.62826e-05
1.62977e-05
1.63137e-05
1.63305e-05
1.63484e-05
1.63677e-05
1.63882e-05
1.64087e-05
1.6427e-05
1.6472e-05
1.63901e-05
1.6736e-05
1.83989e-05
1.14792e-05
1.00025e-05
1e-05
1e-05
0.000249929
0.00025274
0.00152722
0.0466376
0.111458
0.0775208
0.114136
0.138653
0.0937858
0.0673155
0.0555208
1.61657e-05
1.61716e-05
1.61745e-05
1.61725e-05
1.61675e-05
1.61658e-05
1.61654e-05
1.61652e-05
1.61653e-05
1.61657e-05
1.61657e-05
1.61652e-05
1.61649e-05
1.61653e-05
1.61666e-05
1.61684e-05
1.61704e-05
1.61723e-05
1.61741e-05
1.61756e-05
1.61771e-05
1.61788e-05
1.6181e-05
1.61838e-05
1.61876e-05
1.61934e-05
1.62018e-05
1.62131e-05
1.62272e-05
1.6244e-05
1.62638e-05
1.62909e-05
1.63022e-05
1.63746e-05
1.63901e-05
1.56816e-05
1.44192e-05
1.00004e-05
1.00001e-05
1.61632e-05
1.61657e-05
1.61728e-05
1.61853e-05
1.61981e-05
1.62076e-05
1.62161e-05
1.62256e-05
1.62364e-05
1.62479e-05
1.626e-05
1.62726e-05
1.62859e-05
1.63e-05
1.63149e-05
1.63304e-05
1.63467e-05
1.6364e-05
1.63823e-05
1.64021e-05
1.64305e-05
1.6448e-05
1.63158e-05
1.7153e-05
1.81741e-05
1.05112e-05
1.00002e-05
1e-05
1e-05
1e-05
0.00161192
0.0471425
0.0969092
0.0977406
0.156024
0.17706
0.111705
0.076074
0.0619078
1.61629e-05
1.61675e-05
1.61693e-05
1.6167e-05
1.61627e-05
1.61613e-05
1.61614e-05
1.61617e-05
1.61624e-05
1.61634e-05
1.61637e-05
1.61632e-05
1.61627e-05
1.61629e-05
1.6164e-05
1.61658e-05
1.61682e-05
1.61709e-05
1.61737e-05
1.61765e-05
1.61794e-05
1.61825e-05
1.6186e-05
1.61903e-05
1.61957e-05
1.62033e-05
1.62136e-05
1.6227e-05
1.62435e-05
1.62633e-05
1.62863e-05
1.63132e-05
1.63432e-05
1.63839e-05
1.6466e-05
1.66669e-05
1.67938e-05
1.74844e-05
1.00191e-05
1.61604e-05
1.61626e-05
1.61698e-05
1.61816e-05
1.6193e-05
1.62017e-05
1.62104e-05
1.62199e-05
1.62301e-05
1.62402e-05
1.62505e-05
1.62611e-05
1.62725e-05
1.62848e-05
1.6298e-05
1.6312e-05
1.6327e-05
1.63423e-05
1.63582e-05
1.63748e-05
1.63967e-05
1.64316e-05
1.6389e-05
1.63678e-05
1.77467e-05
1.70043e-05
1.00295e-05
1.00002e-05
1e-05
1e-05
0.00167319
0.0468798
0.0932564
0.130351
0.210231
0.220752
0.131279
0.085541
0.0685626
1.61599e-05
1.61633e-05
1.61643e-05
1.61617e-05
1.61585e-05
1.61568e-05
1.61566e-05
1.61573e-05
1.61588e-05
1.61605e-05
1.61613e-05
1.61611e-05
1.61605e-05
1.61604e-05
1.6161e-05
1.61625e-05
1.61648e-05
1.61677e-05
1.6171e-05
1.61745e-05
1.61781e-05
1.6182e-05
1.61861e-05
1.61907e-05
1.61963e-05
1.62036e-05
1.62133e-05
1.62254e-05
1.62401e-05
1.62573e-05
1.62769e-05
1.62994e-05
1.63257e-05
1.63589e-05
1.63855e-05
1.64871e-05
1.64066e-05
1.81488e-05
1.4116e-05
1.61572e-05
1.61592e-05
1.61662e-05
1.61775e-05
1.61874e-05
1.61951e-05
1.62036e-05
1.62131e-05
1.62234e-05
1.6233e-05
1.62417e-05
1.62501e-05
1.62591e-05
1.62692e-05
1.62806e-05
1.62931e-05
1.63067e-05
1.63207e-05
1.63355e-05
1.63498e-05
1.63681e-05
1.63992e-05
1.63956e-05
1.63752e-05
1.66454e-05
1.7841e-05
1.46167e-05
1.00576e-05
1e-05
1e-05
0.0017123
0.0459807
0.0978712
0.172865
0.275509
0.26803
0.151954
0.0956677
0.0753963
1.61566e-05
1.61592e-05
1.61593e-05
1.61566e-05
1.61544e-05
1.61532e-05
1.6152e-05
1.61521e-05
1.61542e-05
1.61567e-05
1.61585e-05
1.61589e-05
1.61586e-05
1.61583e-05
1.61585e-05
1.61596e-05
1.61616e-05
1.61644e-05
1.61679e-05
1.61719e-05
1.61761e-05
1.61807e-05
1.61854e-05
1.61906e-05
1.61966e-05
1.62043e-05
1.6214e-05
1.62259e-05
1.62402e-05
1.62572e-05
1.62768e-05
1.63e-05
1.63273e-05
1.63601e-05
1.63951e-05
1.6442e-05
1.64542e-05
1.67526e-05
1.69056e-05
1.61537e-05
1.61558e-05
1.61626e-05
1.61732e-05
1.61823e-05
1.61894e-05
1.61969e-05
1.62056e-05
1.62154e-05
1.62255e-05
1.62337e-05
1.62408e-05
1.62477e-05
1.62554e-05
1.62646e-05
1.62754e-05
1.62877e-05
1.63007e-05
1.63148e-05
1.63289e-05
1.63434e-05
1.63767e-05
1.6358e-05
1.64207e-05
1.65451e-05
1.6218e-05
1.80384e-05
1.62201e-05
1e-05
1e-05
0.00177051
0.0455888
0.105745
0.224937
0.350457
0.3147
0.173219
0.106225
0.0823002
1.6153e-05
1.61549e-05
1.61545e-05
1.61519e-05
1.61501e-05
1.61495e-05
1.61485e-05
1.61474e-05
1.61486e-05
1.61518e-05
1.61548e-05
1.61563e-05
1.61566e-05
1.61565e-05
1.61565e-05
1.61571e-05
1.61587e-05
1.61611e-05
1.61645e-05
1.61684e-05
1.6173e-05
1.61778e-05
1.61829e-05
1.61883e-05
1.61944e-05
1.62019e-05
1.62109e-05
1.62217e-05
1.62344e-05
1.62492e-05
1.62662e-05
1.62862e-05
1.63105e-05
1.63398e-05
1.63756e-05
1.64134e-05
1.64724e-05
1.64822e-05
1.67963e-05
1.61501e-05
1.61523e-05
1.61589e-05
1.61688e-05
1.61771e-05
1.61837e-05
1.6191e-05
1.61992e-05
1.6207e-05
1.62162e-05
1.62254e-05
1.62322e-05
1.62377e-05
1.62434e-05
1.62506e-05
1.62596e-05
1.62704e-05
1.62822e-05
1.62952e-05
1.63092e-05
1.63214e-05
1.63564e-05
1.63325e-05
1.63906e-05
1.66584e-05
1.55771e-05
1.75344e-05
2.28574e-05
1.00001e-05
1e-05
0.00187002
0.0461982
0.11653
0.286846
0.434281
0.357147
0.193107
0.116387
0.0888847
1.61493e-05
1.61506e-05
1.61499e-05
1.61476e-05
1.61461e-05
1.61454e-05
1.61451e-05
1.61442e-05
1.61436e-05
1.6146e-05
1.61499e-05
1.61527e-05
1.61541e-05
1.61546e-05
1.61547e-05
1.6155e-05
1.6156e-05
1.61579e-05
1.61608e-05
1.61646e-05
1.61691e-05
1.6174e-05
1.61793e-05
1.61849e-05
1.61912e-05
1.61986e-05
1.62073e-05
1.62175e-05
1.62293e-05
1.62431e-05
1.62589e-05
1.62775e-05
1.62998e-05
1.63265e-05
1.63587e-05
1.63943e-05
1.6446e-05
1.6473e-05
1.65924e-05
1.61465e-05
1.61487e-05
1.61552e-05
1.61645e-05
1.61721e-05
1.61782e-05
1.61851e-05
1.61928e-05
1.62002e-05
1.6207e-05
1.62158e-05
1.62232e-05
1.62284e-05
1.62332e-05
1.62388e-05
1.62461e-05
1.62552e-05
1.62659e-05
1.62776e-05
1.62911e-05
1.63021e-05
1.63356e-05
1.63168e-05
1.6357e-05
1.66756e-05
1.54494e-05
1.74952e-05
2.26908e-05
1.00001e-05
1e-05
0.00196349
0.0465622
0.133325
0.352343
0.515114
0.389091
0.20912
0.125028
0.0945653
1.61455e-05
1.61464e-05
1.61455e-05
1.61435e-05
1.61422e-05
1.61415e-05
1.6141e-05
1.61412e-05
1.61405e-05
1.61409e-05
1.61442e-05
1.61481e-05
1.61508e-05
1.61522e-05
1.61527e-05
1.61529e-05
1.61535e-05
1.61548e-05
1.61572e-05
1.61606e-05
1.6165e-05
1.61699e-05
1.61753e-05
1.6181e-05
1.61874e-05
1.61947e-05
1.62031e-05
1.62127e-05
1.62236e-05
1.62361e-05
1.62505e-05
1.62674e-05
1.62876e-05
1.63122e-05
1.63414e-05
1.63752e-05
1.64184e-05
1.64583e-05
1.65219e-05
1.61429e-05
1.61452e-05
1.61515e-05
1.61602e-05
1.61672e-05
1.61729e-05
1.61794e-05
1.61865e-05
1.61933e-05
1.61994e-05
1.62061e-05
1.62136e-05
1.62193e-05
1.62239e-05
1.62284e-05
1.62338e-05
1.62411e-05
1.62505e-05
1.6261e-05
1.62736e-05
1.62841e-05
1.63146e-05
1.63055e-05
1.63285e-05
1.66432e-05
1.54386e-05
1.78725e-05
2.10536e-05
1.00001e-05
1e-05
0.00194714
0.0443318
0.152743
0.404075
0.567958
0.405896
0.218737
0.130728
0.0984836
1.61418e-05
1.61423e-05
1.61413e-05
1.61395e-05
1.61385e-05
1.61378e-05
1.61372e-05
1.61374e-05
1.6138e-05
1.61373e-05
1.61388e-05
1.61427e-05
1.61465e-05
1.6149e-05
1.61502e-05
1.61506e-05
1.61509e-05
1.61519e-05
1.61538e-05
1.61569e-05
1.61611e-05
1.61659e-05
1.61713e-05
1.61771e-05
1.61835e-05
1.61908e-05
1.61989e-05
1.6208e-05
1.62181e-05
1.62297e-05
1.6243e-05
1.62583e-05
1.62768e-05
1.62993e-05
1.6326e-05
1.63572e-05
1.63959e-05
1.64337e-05
1.64886e-05
1.61393e-05
1.61417e-05
1.61477e-05
1.6156e-05
1.61625e-05
1.61678e-05
1.61739e-05
1.61803e-05
1.61865e-05
1.61921e-05
1.61972e-05
1.62036e-05
1.62102e-05
1.62148e-05
1.62186e-05
1.62227e-05
1.62284e-05
1.62365e-05
1.62459e-05
1.62575e-05
1.62676e-05
1.62949e-05
1.62966e-05
1.62938e-05
1.66254e-05
1.551e-05
1.75134e-05
2.11002e-05
1.00002e-05
1e-05
0.0018154
0.0396924
0.165403
0.423966
0.571822
0.399615
0.219005
0.132029
0.0997086
1.61382e-05
1.61384e-05
1.61373e-05
1.61358e-05
1.61349e-05
1.61342e-05
1.61337e-05
1.61336e-05
1.61348e-05
1.61347e-05
1.61347e-05
1.61374e-05
1.61417e-05
1.61453e-05
1.61474e-05
1.61481e-05
1.61484e-05
1.61491e-05
1.61508e-05
1.61536e-05
1.61575e-05
1.61621e-05
1.61673e-05
1.6173e-05
1.61793e-05
1.61864e-05
1.61942e-05
1.62027e-05
1.6212e-05
1.62226e-05
1.62348e-05
1.62489e-05
1.62658e-05
1.62865e-05
1.63112e-05
1.634e-05
1.63756e-05
1.64095e-05
1.64613e-05
1.61357e-05
1.61381e-05
1.61439e-05
1.61518e-05
1.61579e-05
1.61629e-05
1.61685e-05
1.61744e-05
1.61798e-05
1.61849e-05
1.61896e-05
1.6194e-05
1.62003e-05
1.62059e-05
1.62096e-05
1.6213e-05
1.62177e-05
1.62245e-05
1.62328e-05
1.62434e-05
1.62533e-05
1.62768e-05
1.62895e-05
1.62607e-05
1.66102e-05
1.56122e-05
1.68461e-05
2.21813e-05
1.00002e-05
1e-05
0.00165273
0.0347154
0.165132
0.404994
0.525764
0.3682
0.207467
0.127228
0.0970516
1.61346e-05
1.61345e-05
1.61335e-05
1.61322e-05
1.61314e-05
1.61308e-05
1.61303e-05
1.61303e-05
1.61312e-05
1.61323e-05
1.61315e-05
1.61326e-05
1.61367e-05
1.61411e-05
1.61441e-05
1.61454e-05
1.6146e-05
1.61466e-05
1.61481e-05
1.61506e-05
1.6154e-05
1.61582e-05
1.61629e-05
1.61683e-05
1.61744e-05
1.61811e-05
1.61884e-05
1.61963e-05
1.62048e-05
1.62145e-05
1.62257e-05
1.62385e-05
1.62539e-05
1.62729e-05
1.62958e-05
1.63225e-05
1.63552e-05
1.63861e-05
1.64351e-05
1.61322e-05
1.61345e-05
1.61401e-05
1.61476e-05
1.61534e-05
1.61581e-05
1.61633e-05
1.61686e-05
1.61734e-05
1.61778e-05
1.61821e-05
1.6186e-05
1.61908e-05
1.61966e-05
1.62007e-05
1.62043e-05
1.62082e-05
1.62138e-05
1.6221e-05
1.62301e-05
1.62403e-05
1.62584e-05
1.62824e-05
1.62362e-05
1.65646e-05
1.57929e-05
1.62466e-05
2.27512e-05
1.00058e-05
1e-05
0.00147349
0.0297449
0.151598
0.352761
0.443647
0.316026
0.184171
0.115713
0.0897823
1.6131e-05
1.61308e-05
1.61298e-05
1.61287e-05
1.6128e-05
1.61274e-05
1.6127e-05
1.61271e-05
1.61278e-05
1.61293e-05
1.61289e-05
1.61289e-05
1.6132e-05
1.61367e-05
1.61405e-05
1.61424e-05
1.61433e-05
1.61441e-05
1.61454e-05
1.61474e-05
1.61503e-05
1.61539e-05
1.61582e-05
1.61632e-05
1.6169e-05
1.61753e-05
1.61822e-05
1.61894e-05
1.61973e-05
1.62061e-05
1.62163e-05
1.62278e-05
1.62418e-05
1.62592e-05
1.62801e-05
1.63045e-05
1.63344e-05
1.63623e-05
1.64085e-05
1.61286e-05
1.6131e-05
1.61363e-05
1.61434e-05
1.61489e-05
1.61533e-05
1.61581e-05
1.61628e-05
1.61671e-05
1.6171e-05
1.61748e-05
1.61785e-05
1.61821e-05
1.61875e-05
1.61924e-05
1.6196e-05
1.61995e-05
1.62042e-05
1.62104e-05
1.62182e-05
1.62283e-05
1.62411e-05
1.6273e-05
1.62209e-05
1.6496e-05
1.60253e-05
1.56942e-05
2.28261e-05
1.04262e-05
1e-05
0.00118542
0.0229925
0.126989
0.280697
0.344339
0.251627
0.152151
0.0983675
0.0780683
1.61275e-05
1.61272e-05
1.61264e-05
1.61254e-05
1.61248e-05
1.61243e-05
1.61239e-05
1.6124e-05
1.61247e-05
1.6126e-05
1.61265e-05
1.61259e-05
1.61279e-05
1.61324e-05
1.61365e-05
1.6139e-05
1.61404e-05
1.61414e-05
1.61426e-05
1.61442e-05
1.61465e-05
1.61496e-05
1.61535e-05
1.61581e-05
1.61636e-05
1.61697e-05
1.61762e-05
1.61831e-05
1.61904e-05
1.61986e-05
1.62079e-05
1.62184e-05
1.62312e-05
1.62471e-05
1.62661e-05
1.62882e-05
1.6315e-05
1.63398e-05
1.63822e-05
1.61252e-05
1.61275e-05
1.61326e-05
1.61393e-05
1.61444e-05
1.61485e-05
1.61529e-05
1.61572e-05
1.61609e-05
1.61644e-05
1.61679e-05
1.61713e-05
1.61746e-05
1.61788e-05
1.6184e-05
1.6188e-05
1.61917e-05
1.61959e-05
1.62013e-05
1.62078e-05
1.62171e-05
1.62266e-05
1.62587e-05
1.62208e-05
1.63965e-05
1.62639e-05
1.53399e-05
2.26293e-05
1.17336e-05
1e-05
0.000787754
0.0146592
0.0949934
0.203821
0.244772
0.184536
0.116364
0.0777851
0.0634008
1.61241e-05
1.61238e-05
1.61231e-05
1.61223e-05
1.61217e-05
1.61212e-05
1.61208e-05
1.6121e-05
1.61217e-05
1.61228e-05
1.61237e-05
1.61232e-05
1.61243e-05
1.61281e-05
1.61322e-05
1.61353e-05
1.61373e-05
1.61387e-05
1.61397e-05
1.61411e-05
1.6143e-05
1.61456e-05
1.61491e-05
1.61534e-05
1.61586e-05
1.61645e-05
1.61708e-05
1.61773e-05
1.61842e-05
1.61919e-05
1.62006e-05
1.62104e-05
1.62222e-05
1.62367e-05
1.6254e-05
1.6274e-05
1.62981e-05
1.63201e-05
1.6358e-05
1.61219e-05
1.61242e-05
1.61291e-05
1.61353e-05
1.614e-05
1.61438e-05
1.61478e-05
1.61516e-05
1.6155e-05
1.61582e-05
1.61613e-05
1.61645e-05
1.61677e-05
1.6171e-05
1.61759e-05
1.61807e-05
1.61844e-05
1.61883e-05
1.6193e-05
1.61985e-05
1.62065e-05
1.62151e-05
1.62406e-05
1.62305e-05
1.62907e-05
1.64531e-05
1.52324e-05
2.03517e-05
1.52266e-05
1.00001e-05
0.000375346
0.00668178
0.0618982
0.134038
0.159386
0.124718
0.0822117
0.0569429
0.0477494
1.61208e-05
1.61205e-05
1.61199e-05
1.61192e-05
1.61188e-05
1.61183e-05
1.61179e-05
1.61181e-05
1.61188e-05
1.61197e-05
1.61209e-05
1.61208e-05
1.6121e-05
1.61238e-05
1.61279e-05
1.61316e-05
1.61342e-05
1.61359e-05
1.61371e-05
1.61382e-05
1.61398e-05
1.61421e-05
1.61452e-05
1.61492e-05
1.61542e-05
1.61598e-05
1.61657e-05
1.61718e-05
1.61784e-05
1.61856e-05
1.61937e-05
1.62029e-05
1.62139e-05
1.62273e-05
1.62432e-05
1.62615e-05
1.62833e-05
1.63031e-05
1.6337e-05
1.61188e-05
1.61211e-05
1.61257e-05
1.61314e-05
1.61357e-05
1.61391e-05
1.61427e-05
1.61462e-05
1.61493e-05
1.61523e-05
1.61552e-05
1.61582e-05
1.61613e-05
1.61643e-05
1.61683e-05
1.61732e-05
1.61773e-05
1.61813e-05
1.61858e-05
1.61906e-05
1.6197e-05
1.62054e-05
1.62224e-05
1.62381e-05
1.62157e-05
1.65333e-05
1.54202e-05
1.79252e-05
2.00516e-05
1.0001e-05
4.23437e-05
0.001206
0.0341417
0.0788576
0.0948551
0.0774373
0.0534346
0.0384717
0.0330857
1.61176e-05
1.61174e-05
1.61169e-05
1.61163e-05
1.61159e-05
1.61155e-05
1.61151e-05
1.61153e-05
1.6116e-05
1.61169e-05
1.61179e-05
1.61186e-05
1.61184e-05
1.61197e-05
1.61235e-05
1.61276e-05
1.61309e-05
1.61331e-05
1.61345e-05
1.61356e-05
1.61371e-05
1.61391e-05
1.61418e-05
1.61454e-05
1.61499e-05
1.61551e-05
1.61606e-05
1.61663e-05
1.61723e-05
1.6179e-05
1.61865e-05
1.61951e-05
1.62053e-05
1.62177e-05
1.62323e-05
1.62493e-05
1.62693e-05
1.62874e-05
1.63182e-05
1.61157e-05
1.61182e-05
1.61225e-05
1.61276e-05
1.61314e-05
1.61345e-05
1.61379e-05
1.61411e-05
1.6144e-05
1.61468e-05
1.61496e-05
1.61524e-05
1.61553e-05
1.61583e-05
1.61614e-05
1.61661e-05
1.61708e-05
1.61747e-05
1.61788e-05
1.6183e-05
1.61881e-05
1.61962e-05
1.62076e-05
1.62345e-05
1.61914e-05
1.64618e-05
1.58164e-05
1.62059e-05
2.23319e-05
1.0007e-05
1e-05
0.00109485
0.0152752
0.040787
0.0510103
0.0435937
0.0316327
0.0237336
0.0208716
1.61146e-05
1.61144e-05
1.6114e-05
1.61136e-05
1.61132e-05
1.61128e-05
1.61125e-05
1.61126e-05
1.61133e-05
1.61142e-05
1.61149e-05
1.6116e-05
1.61162e-05
1.61167e-05
1.61194e-05
1.61235e-05
1.61273e-05
1.613e-05
1.61317e-05
1.6133e-05
1.61344e-05
1.61361e-05
1.61384e-05
1.61416e-05
1.61457e-05
1.61504e-05
1.61554e-05
1.61606e-05
1.61662e-05
1.61724e-05
1.61794e-05
1.61873e-05
1.61967e-05
1.62081e-05
1.62216e-05
1.62372e-05
1.62555e-05
1.6272e-05
1.63004e-05
1.61128e-05
1.61154e-05
1.61194e-05
1.61239e-05
1.61272e-05
1.613e-05
1.61332e-05
1.61363e-05
1.61391e-05
1.61418e-05
1.61444e-05
1.61471e-05
1.61498e-05
1.61526e-05
1.61556e-05
1.61597e-05
1.61642e-05
1.61681e-05
1.61721e-05
1.61761e-05
1.61806e-05
1.61879e-05
1.61973e-05
1.62213e-05
1.62011e-05
1.63204e-05
1.62432e-05
1.53633e-05
2.18871e-05
1.1812e-05
1e-05
0.000307433
0.00522547
0.0180271
0.0243614
0.0215176
0.0165801
0.0130406
0.0118779
1.61116e-05
1.61115e-05
1.61112e-05
1.61109e-05
1.61106e-05
1.61102e-05
1.61099e-05
1.611e-05
1.61107e-05
1.61115e-05
1.61123e-05
1.61132e-05
1.61139e-05
1.61142e-05
1.61159e-05
1.61197e-05
1.61236e-05
1.61267e-05
1.61287e-05
1.61302e-05
1.61315e-05
1.6133e-05
1.6135e-05
1.61378e-05
1.61415e-05
1.61459e-05
1.61506e-05
1.61554e-05
1.61606e-05
1.61664e-05
1.61729e-05
1.61803e-05
1.6189e-05
1.61995e-05
1.62119e-05
1.62263e-05
1.62429e-05
1.62576e-05
1.62833e-05
1.61099e-05
1.61126e-05
1.61163e-05
1.61203e-05
1.61231e-05
1.61257e-05
1.61288e-05
1.61318e-05
1.61344e-05
1.6137e-05
1.61395e-05
1.61421e-05
1.61446e-05
1.61474e-05
1.61501e-05
1.61537e-05
1.61581e-05
1.6162e-05
1.61659e-05
1.61697e-05
1.61738e-05
1.61802e-05
1.61892e-05
1.62063e-05
1.62126e-05
1.62225e-05
1.64328e-05
1.539e-05
1.87246e-05
1.71621e-05
1.00007e-05
3.91736e-05
0.00110828
0.00655967
0.0100901
0.00948948
0.00765444
0.00615161
0.00598098
1.61087e-05
1.61087e-05
1.61085e-05
1.61083e-05
1.6108e-05
1.61077e-05
1.61074e-05
1.61075e-05
1.61082e-05
1.6109e-05
1.61097e-05
1.61105e-05
1.61115e-05
1.61118e-05
1.6113e-05
1.61161e-05
1.61199e-05
1.61232e-05
1.61256e-05
1.61273e-05
1.61286e-05
1.61299e-05
1.61317e-05
1.61343e-05
1.61378e-05
1.61419e-05
1.61462e-05
1.61507e-05
1.61555e-05
1.61609e-05
1.6167e-05
1.6174e-05
1.61821e-05
1.61919e-05
1.62034e-05
1.62167e-05
1.62318e-05
1.62449e-05
1.62679e-05
1.61071e-05
1.61098e-05
1.61133e-05
1.61167e-05
1.61192e-05
1.61216e-05
1.61246e-05
1.61275e-05
1.613e-05
1.61325e-05
1.61349e-05
1.61373e-05
1.61397e-05
1.61423e-05
1.6145e-05
1.61479e-05
1.61521e-05
1.61564e-05
1.61603e-05
1.61638e-05
1.61673e-05
1.61726e-05
1.61811e-05
1.61938e-05
1.62107e-05
1.61941e-05
1.63786e-05
1.58522e-05
1.6315e-05
2.15621e-05
1.00033e-05
1e-05
0.000324617
0.00181285
0.00347929
0.00359587
0.00304908
0.0025824
0.00271229
1.6106e-05
1.6106e-05
1.61059e-05
1.61058e-05
1.61056e-05
1.61052e-05
1.6105e-05
1.61052e-05
1.61058e-05
1.61066e-05
1.61073e-05
1.61079e-05
1.61091e-05
1.61096e-05
1.61103e-05
1.61126e-05
1.61163e-05
1.61199e-05
1.61226e-05
1.61245e-05
1.61259e-05
1.61272e-05
1.61289e-05
1.61313e-05
1.61344e-05
1.61381e-05
1.6142e-05
1.6146e-05
1.61503e-05
1.61553e-05
1.6161e-05
1.61675e-05
1.61749e-05
1.6184e-05
1.61948e-05
1.62072e-05
1.6221e-05
1.6233e-05
1.62539e-05
1.61044e-05
1.6107e-05
1.61102e-05
1.61133e-05
1.61155e-05
1.61178e-05
1.61207e-05
1.61234e-05
1.61258e-05
1.61282e-05
1.61305e-05
1.61328e-05
1.61351e-05
1.61375e-05
1.61401e-05
1.61429e-05
1.61466e-05
1.61508e-05
1.61546e-05
1.6158e-05
1.61613e-05
1.61658e-05
1.61733e-05
1.6184e-05
1.62004e-05
1.61962e-05
1.62711e-05
1.62121e-05
1.55947e-05
2.01219e-05
1.26007e-05
1.00001e-05
1.03942e-05
0.000328541
0.000944505
0.00113555
0.00105822
0.000969537
0.00112024
1.61034e-05
1.61035e-05
1.61034e-05
1.61033e-05
1.61032e-05
1.61029e-05
1.61027e-05
1.61029e-05
1.61035e-05
1.61043e-05
1.61049e-05
1.61055e-05
1.61065e-05
1.61076e-05
1.61079e-05
1.61095e-05
1.61129e-05
1.61166e-05
1.61195e-05
1.61216e-05
1.61232e-05
1.61246e-05
1.61262e-05
1.61282e-05
1.6131e-05
1.61342e-05
1.61376e-05
1.61411e-05
1.6145e-05
1.61495e-05
1.61548e-05
1.61608e-05
1.61677e-05
1.61761e-05
1.61862e-05
1.61977e-05
1.62103e-05
1.62211e-05
1.62402e-05
1.61018e-05
1.61042e-05
1.61072e-05
1.611e-05
1.61121e-05
1.61142e-05
1.6117e-05
1.61196e-05
1.61219e-05
1.6124e-05
1.61262e-05
1.61284e-05
1.61307e-05
1.6133e-05
1.61355e-05
1.61381e-05
1.61414e-05
1.61454e-05
1.61492e-05
1.61526e-05
1.61557e-05
1.61597e-05
1.61663e-05
1.61759e-05
1.61894e-05
1.61972e-05
1.62136e-05
1.62934e-05
1.57937e-05
1.73306e-05
1.8461e-05
1.00129e-05
1e-05
1.00023e-05
0.000177022
0.000287365
0.0003118
0.000321674
0.000423583
1.6101e-05
1.61011e-05
1.6101e-05
1.6101e-05
1.6101e-05
1.61008e-05
1.61006e-05
1.61008e-05
1.61013e-05
1.61021e-05
1.61027e-05
1.61032e-05
1.61041e-05
1.61053e-05
1.61058e-05
1.61069e-05
1.61097e-05
1.61132e-05
1.61163e-05
1.61187e-05
1.61205e-05
1.6122e-05
1.61234e-05
1.61252e-05
1.61276e-05
1.61304e-05
1.61334e-05
1.61366e-05
1.61401e-05
1.61442e-05
1.61492e-05
1.61548e-05
1.61612e-05
1.61691e-05
1.61785e-05
1.61892e-05
1.62007e-05
1.62101e-05
1.62271e-05
1.60995e-05
1.61015e-05
1.61044e-05
1.6107e-05
1.61089e-05
1.61109e-05
1.61135e-05
1.61159e-05
1.61181e-05
1.61201e-05
1.61222e-05
1.61243e-05
1.61265e-05
1.61287e-05
1.61311e-05
1.61337e-05
1.61364e-05
1.61401e-05
1.61442e-05
1.61479e-05
1.61509e-05
1.61541e-05
1.61595e-05
1.61681e-05
1.61796e-05
1.61913e-05
1.61961e-05
1.62524e-05
1.6088e-05
1.6183e-05
1.8504e-05
1.18004e-05
1.00055e-05
1.00014e-05
1.04121e-05
2.9217e-05
5.57369e-05
7.90458e-05
0.000142669
1.60989e-05
1.60989e-05
1.60987e-05
1.60988e-05
1.60989e-05
1.60987e-05
1.60986e-05
1.60987e-05
1.60993e-05
1.61e-05
1.61006e-05
1.61011e-05
1.61018e-05
1.61031e-05
1.61038e-05
1.61045e-05
1.61066e-05
1.61098e-05
1.6113e-05
1.61158e-05
1.61178e-05
1.61194e-05
1.61208e-05
1.61224e-05
1.61246e-05
1.61271e-05
1.61298e-05
1.61325e-05
1.61357e-05
1.61396e-05
1.61442e-05
1.61495e-05
1.61556e-05
1.6163e-05
1.61719e-05
1.6182e-05
1.61925e-05
1.62009e-05
1.62158e-05
1.60973e-05
1.6099e-05
1.61017e-05
1.61042e-05
1.61059e-05
1.61078e-05
1.61102e-05
1.61125e-05
1.61145e-05
1.61164e-05
1.61184e-05
1.61204e-05
1.61225e-05
1.61247e-05
1.6127e-05
1.61294e-05
1.6132e-05
1.61354e-05
1.61393e-05
1.61429e-05
1.61459e-05
1.61487e-05
1.61533e-05
1.61608e-05
1.6171e-05
1.61827e-05
1.61896e-05
1.6212e-05
1.6201e-05
1.60539e-05
1.69724e-05
1.6181e-05
1.12261e-05
1.01022e-05
1.0112e-05
1.06523e-05
1.23128e-05
1.57175e-05
3.23648e-05
1.60969e-05
1.60969e-05
1.60967e-05
1.60968e-05
1.60969e-05
1.60968e-05
1.60967e-05
1.60968e-05
1.60973e-05
1.6098e-05
1.60986e-05
1.6099e-05
1.60997e-05
1.61008e-05
1.61019e-05
1.61024e-05
1.61036e-05
1.61064e-05
1.61097e-05
1.61127e-05
1.61151e-05
1.61169e-05
1.61183e-05
1.61199e-05
1.61219e-05
1.61242e-05
1.61265e-05
1.6129e-05
1.61318e-05
1.61353e-05
1.61396e-05
1.61446e-05
1.61503e-05
1.61573e-05
1.61658e-05
1.61753e-05
1.61852e-05
1.6193e-05
1.62063e-05
1.60954e-05
1.60968e-05
1.60993e-05
1.61016e-05
1.61032e-05
1.61049e-05
1.61071e-05
1.61092e-05
1.61111e-05
1.61129e-05
1.61148e-05
1.61168e-05
1.61187e-05
1.61208e-05
1.6123e-05
1.61254e-05
1.61279e-05
1.61309e-05
1.61346e-05
1.61381e-05
1.6141e-05
1.61436e-05
1.61477e-05
1.61545e-05
1.61637e-05
1.61743e-05
1.61832e-05
1.61927e-05
1.62082e-05
1.61391e-05
1.63143e-05
1.67258e-05
1.52223e-05
1.29197e-05
1.18458e-05
1.17418e-05
1.20936e-05
1.27359e-05
1.51702e-05
1.60951e-05
1.60952e-05
1.60949e-05
1.6095e-05
1.60952e-05
1.6095e-05
1.60949e-05
1.60951e-05
1.60955e-05
1.60962e-05
1.60967e-05
1.60971e-05
1.60977e-05
1.60986e-05
1.60998e-05
1.61006e-05
1.61014e-05
1.61034e-05
1.61064e-05
1.61095e-05
1.61122e-05
1.61142e-05
1.61157e-05
1.61173e-05
1.61193e-05
1.61215e-05
1.61236e-05
1.61257e-05
1.61282e-05
1.61313e-05
1.61352e-05
1.61398e-05
1.61451e-05
1.61516e-05
1.61595e-05
1.61686e-05
1.6178e-05
1.61854e-05
1.61978e-05
1.60937e-05
1.60949e-05
1.60971e-05
1.60992e-05
1.61006e-05
1.61022e-05
1.61042e-05
1.61062e-05
1.61079e-05
1.61097e-05
1.61115e-05
1.61133e-05
1.61152e-05
1.61172e-05
1.61193e-05
1.61216e-05
1.6124e-05
1.61265e-05
1.61299e-05
1.61336e-05
1.61367e-05
1.61393e-05
1.61428e-05
1.61487e-05
1.6157e-05
1.61666e-05
1.61758e-05
1.6183e-05
1.6194e-05
1.61826e-05
1.61847e-05
1.63822e-05
1.63026e-05
1.55362e-05
1.4641e-05
1.41071e-05
1.39045e-05
1.38742e-05
1.42515e-05
1.60936e-05
1.60936e-05
1.60933e-05
1.60934e-05
1.60936e-05
1.60935e-05
1.60933e-05
1.60934e-05
1.60939e-05
1.60944e-05
1.60949e-05
1.60952e-05
1.60958e-05
1.60966e-05
1.60977e-05
1.60988e-05
1.60995e-05
1.61008e-05
1.61034e-05
1.61065e-05
1.61093e-05
1.61114e-05
1.61131e-05
1.61148e-05
1.61167e-05
1.61187e-05
1.61205e-05
1.61223e-05
1.61244e-05
1.61271e-05
1.61306e-05
1.61349e-05
1.61398e-05
1.61458e-05
1.61532e-05
1.61617e-05
1.61705e-05
1.61775e-05
1.61893e-05
1.60922e-05
1.60932e-05
1.60952e-05
1.6097e-05
1.60983e-05
1.60997e-05
1.61016e-05
1.61034e-05
1.6105e-05
1.61066e-05
1.61083e-05
1.611e-05
1.61118e-05
1.61137e-05
1.61157e-05
1.61179e-05
1.61203e-05
1.61227e-05
1.61257e-05
1.61292e-05
1.61323e-05
1.61349e-05
1.61381e-05
1.61433e-05