/*--------------------------------*- C++ -*----------------------------------*\
| =========                 |                                                 |
| \\      /  F ield         | OpenFOAM: The Open Source CFD Toolbox           |
|  \\    /   O peration     | Version:  2306                                  |
|   \\  /    A nd           | Website:  www.openfoam.com                      |
|    \\/     M anipulation  |                                                 |
\*---------------------------------------------------------------------------*/
FoamFile
{
    version     2.0;
    format      ascii;
    arch        "LSB;label=32;scalar=64";
    class       volSymmTensorField;
    location    "25";
    object      turbulenceProperties:devReff;
}
// * * * * * * * * * * * * * * * * * * * * * * * * * * * * * * * * * * * * * //

dimensions      [0 2 -2 0 0 0 0];

internalField   nonuniform List<symmTensor> 
10720
(
(0.00109593 0.00162588 -4.11144e-21 -0.00115274 -1.2354e-20 5.68132e-05)
(0.00141117 0.00187265 2.58214e-20 -0.00144828 7.84341e-20 3.71065e-05)
(0.00191211 0.00208861 -5.7514e-20 -0.00198668 -1.88228e-19 7.45657e-05)
(0.00259698 0.00239198 9.11464e-20 -0.00269303 3.46326e-19 9.60534e-05)
(0.00357249 0.00270356 -9.02568e-20 -0.00368837 -3.00306e-19 0.000115886)
(0.00501223 0.00294461 -1.11616e-19 -0.005196 -2.41499e-19 0.000183767)
(0.00702367 0.00308453 2.39257e-19 -0.00726301 5.80264e-19 0.000239338)
(0.00965459 0.00291502 -5.01617e-19 -0.00994284 -1.06039e-18 0.000288257)
(0.0129845 0.00220973 -1.04949e-19 -0.0133446 1.88095e-19 0.000360049)
(0.0170831 0.000812393 3.97566e-19 -0.0175032 6.57142e-19 0.000420154)
(0.0220448 -0.00159037 8.72275e-19 -0.0225518 4.09463e-19 0.000506992)
(0.028166 -0.00537883 -1.96134e-18 -0.0288074 -1.7367e-18 0.000641395)
(0.0358999 -0.0111823 3.4111e-19 -0.0367516 4.40651e-19 0.000851669)
(0.0461056 -0.0201262 1.57686e-18 -0.0472809 7.84285e-19 0.00117523)
(0.0598497 -0.0340444 -2.59815e-18 -0.0615104 -3.60837e-18 0.00166069)
(0.0787499 -0.0560799 -2.93248e-18 -0.0811152 -1.53298e-18 0.00236529)
(0.104804 -0.0915264 1.12836e-17 -0.108268 1.02143e-17 0.00346351)
(0.141181 -0.149097 1.37426e-17 -0.1462 1.91286e-17 0.00501968)
(0.192049 -0.244079 -2.16284e-17 -0.1994 -3.01357e-17 0.00735148)
(0.264603 -0.402614 -3.32841e-18 -0.275146 8.08146e-18 0.0105428)
(0.371233 -0.673422 -1.65329e-17 -0.386346 2.43057e-17 0.0151131)
(0.563588 -1.19982 9.50946e-18 -0.584637 1.6312e-17 0.0210484)
(0.86758 -2.11624 -6.59076e-17 -0.890114 -1.85392e-16 0.0225344)
(1.6452 -4.42412 1.09221e-16 -1.62873 2.22549e-16 -0.016474)
(0.775176 -2.41117 6.16699e-17 -0.731188 -2.55894e-16 -0.043988)
(0.19393 -0.739012 3.28458e-17 -0.19142 2.43924e-16 -0.00250929)
(0.0971135 0.0974677 -3.22062e-17 -0.0956842 -2.17431e-17 -0.00142938)
(0.158379 1.07973 8.89465e-17 -0.143266 6.70984e-17 -0.0151135)
(0.12507 1.92101 6.27697e-17 -0.0651338 5.72247e-16 -0.0599361)
(-0.168891 1.63388 -1.67937e-16 0.231966 8.94005e-16 -0.063075)
(-0.759527 -0.530935 -1.52647e-16 0.857378 -1.6609e-16 -0.097851)
(-3.48146 -7.04497 -3.60278e-16 3.85288 1.49685e-16 -0.37142)
(-8.65489 -29.1642 1.61929e-15 8.80077 -1.93534e-15 -0.145886)
(-0.991933 -13.1409 -3.77122e-15 1.09171 -1.42631e-14 -0.0997745)
(5.02804 9.73993 1.60526e-15 -4.87225 3.28006e-15 -0.155796)
(4.0607 10.9586 -6.96259e-16 -4.12638 8.48865e-15 0.0656826)
(2.35688 6.54399 -9.22669e-16 -2.38407 -2.43838e-15 0.0271931)
(0.939348 2.70382 5.7349e-16 -0.892951 -2.14113e-15 -0.0463977)
(0.219718 1.16146 6.04619e-16 -0.256275 3.04008e-15 0.0365572)
(0.000825718 0.00141312 1.31572e-20 -0.000856376 2.30905e-20 3.06573e-05)
(0.000662295 0.00119449 -1.12448e-20 -0.00070444 -3.28936e-20 4.21447e-05)
(0.000531672 0.000964747 -1.01364e-19 -0.000542562 -2.19439e-20 1.08895e-05)
(0.000471059 0.000761267 1.28153e-19 -0.000446625 -3.01077e-20 -2.44344e-05)
(0.000491018 0.000595818 -2.96862e-20 -0.000439268 2.05071e-20 -5.17503e-05)
(0.000593297 0.000524142 -3.21372e-20 -0.000550415 1.90852e-19 -4.28821e-05)
(0.000779659 0.000541549 -2.62488e-20 -0.000761757 -3.6036e-20 -1.79014e-05)
(0.0010782 0.000655482 1.21515e-19 -0.00108225 -1.3316e-19 4.05837e-06)
(0.00152271 0.000914904 1.17459e-19 -0.00154608 -3.08721e-20 2.33664e-05)
(0.00215824 0.00142525 -4.11288e-20 -0.00220574 -1.38229e-20 4.75015e-05)
(0.00307304 0.00233247 -4.48183e-20 -0.00314583 1.18024e-19 7.27917e-05)
(0.00436067 0.00383843 4.00738e-19 -0.00445374 -9.61704e-20 9.30785e-05)
(0.00605772 0.00619217 5.13863e-19 -0.00617452 -1.3027e-19 0.000116797)
(0.00816289 0.00963505 -2.75696e-19 -0.00831152 -3.80936e-20 0.000148629)
(0.0107162 0.0144117 3.78721e-19 -0.0109027 -1.80303e-19 0.000186553)
(0.0138608 0.0210911 5.45625e-19 -0.0141316 -1.38564e-19 0.000270727)
(0.0180458 0.0307461 -5.95903e-19 -0.0184552 2.98874e-19 0.00040943)
(0.0240208 0.0455513 8.16713e-19 -0.0246752 -1.69774e-19 0.00065441)
(0.0331486 0.0695743 4.48713e-19 -0.0341904 -1.88171e-20 0.00104171)
(0.0476177 0.110791 -2.4042e-18 -0.049293 7.16971e-19 0.00167527)
(0.0712901 0.184693 -7.16561e-18 -0.0739213 3.23677e-18 0.00263119)
(0.110378 0.322965 -1.68262e-18 -0.11448 1.67825e-18 0.00410231)
(0.173491 0.587408 1.02306e-17 -0.179694 -4.03736e-18 0.00620316)
(0.279901 1.14957 -3.29732e-17 -0.289698 4.02096e-18 0.00979693)
(0.420768 2.22793 8.29908e-18 -0.434537 3.89606e-17 0.0137693)
(0.642271 4.70988 -2.7306e-16 -0.659186 7.57686e-17 0.0169144)
(0.879769 10.2623 -1.30893e-16 -0.891172 -8.95914e-17 0.011403)
(0.57053 15.5137 1.09487e-16 -0.542693 -3.54856e-17 -0.0278364)
(-0.179585 17.9409 1.10578e-17 0.261268 4.61914e-18 -0.0816835)
(-0.99573 18.5326 4.01444e-17 1.11879 -9.55264e-17 -0.12306)
(-1.73441 18.465 -5.54568e-16 1.87256 4.42032e-17 -0.138146)
(-2.38348 18.1959 1.66189e-16 2.51415 8.02056e-17 -0.130678)
(-2.94294 17.8203 -2.39052e-15 3.04865 -5.03707e-16 -0.10571)
(-3.41594 17.3688 -4.12924e-15 3.4855 1.07347e-15 -0.0695528)
(-3.80948 16.8503 1.42562e-15 3.83407 4.35255e-16 -0.0245844)
(-4.15394 16.3064 1.29078e-15 4.13562 -7.68831e-17 0.0183177)
(-4.46643 15.6543 1.79532e-15 4.42469 7.90756e-17 0.0417401)
(-4.71294 14.9621 -3.36837e-16 4.63858 -8.20486e-17 0.0743599)
(-4.79886 13.1586 -6.03709e-15 4.716 -1.01999e-15 0.0828659)
(0.000526456 -0.000257362 7.33647e-22 -0.000499328 4.72842e-22 -2.71279e-05)
(0.0004692 -0.000350649 1.5431e-20 -0.000435619 4.87971e-20 -3.35808e-05)
(0.000381009 -0.000433688 -7.94327e-21 -0.000339883 -1.94436e-20 -4.11263e-05)
(0.000283851 -0.000482187 -3.03811e-20 -0.000234647 -4.95079e-20 -4.92034e-05)
(0.000182975 -0.000504575 9.41758e-20 -0.000126041 1.5663e-19 -5.69347e-05)
(8.07267e-05 -0.000502641 3.68074e-20 -1.51373e-05 5.93694e-20 -6.55894e-05)
(-7.05646e-06 -0.000474052 1.64643e-19 8.10677e-05 1.62252e-19 -7.40113e-05)
(-7.45903e-05 -0.000425275 -6.98034e-20 0.000156029 -1.99508e-20 -8.14389e-05)
(-0.000119905 -0.000365436 1.15718e-19 0.000208184 9.09108e-20 -8.82793e-05)
(-0.000140772 -0.000303459 3.90323e-21 0.000234244 1.63271e-21 -9.34722e-05)
(-0.000143423 -0.000246392 -1.78714e-19 0.00023946 -1.50618e-19 -9.60374e-05)
(-0.000134606 -0.000198796 2.29297e-19 0.000230547 2.6164e-19 -9.59404e-05)
(-0.00011913 -0.000161606 1.31097e-19 0.000212735 6.81835e-20 -9.36046e-05)
(-0.000101388 -0.000134533 -2.18251e-20 0.000190043 9.68849e-21 -8.86541e-05)
(-8.62447e-05 -0.000124943 -9.78151e-20 0.000172396 1.2768e-20 -8.61515e-05)
(-7.51782e-05 -0.000140685 1.53502e-19 0.000169256 1.64095e-19 -9.40783e-05)
(-7.3298e-05 -0.000253162 1.9199e-19 0.000223834 -2.4052e-19 -0.000150536)
(-2.27147e-05 -0.000740522 -1.65309e-18 0.000379922 -1.9217e-18 -0.000357207)
(0.00039223 -0.00224346 4.27895e-19 0.000410729 3.11914e-18 -0.000802959)
(0.00197429 -0.00653091 3.82642e-18 -0.000358242 -1.06317e-18 -0.00161605)
(0.00728854 -0.0198942 7.40311e-18 -0.00412841 3.38552e-18 -0.00316013)
(0.0302511 -0.077138 -1.56818e-17 -0.0229687 -1.14654e-17 -0.00728246)
(0.0958548 -0.243096 4.18932e-17 -0.083089 7.65402e-17 -0.0127657)
(0.496067 -1.33441 1.8977e-18 -0.462708 -9.15685e-17 -0.0333596)
(1.24553 -3.95025 -2.22976e-16 -1.2376 1.6023e-16 -0.0079351)
(1.66558 -6.28821 2.43559e-17 -1.61008 -9.3554e-16 -0.0555007)
(1.54094 -7.63232 2.0018e-18 -1.38222 9.14472e-17 -0.158723)
(0.631165 -9.54182 -1.65598e-16 -0.527652 -7.01504e-16 -0.103514)
(-0.963192 -11.5923 1.43025e-16 1.0617 -4.88143e-15 -0.0985063)
(-2.86723 -11.2549 4.93454e-16 2.66434 -4.75951e-15 0.202885)
(-3.508 -7.25746 -2.21785e-16 3.23762 1.18656e-15 0.270383)
(-2.38535 -3.51945 -2.79485e-16 2.13763 4.88997e-17 0.247717)
(1.01801 0.266488 -8.80203e-15 -1.35973 1.15908e-15 0.341718)
(8.3959 12.4459 6.96047e-15 -8.18381 2.55724e-14 -0.212086)
(1.80801 1.69827 8.76499e-16 -1.51906 -2.20264e-15 -0.288954)
(-0.56292 -0.700719 -4.58947e-15 0.582673 -1.62821e-14 -0.0197532)
(-0.464508 -0.645963 8.67809e-16 0.496954 2.73099e-15 -0.032446)
(-0.251936 -0.347887 1.7197e-16 0.263211 3.31909e-15 -0.0112751)
(-0.353284 -0.14597 -1.17122e-15 0.376201 -3.21765e-15 -0.0229174)
(0.000560202 -0.000141297 9.04602e-21 -0.000543766 -6.51448e-21 -1.6436e-05)
(0.000561443 -1.88965e-05 -1.1396e-20 -0.000556166 -1.24798e-19 -5.27732e-06)
(0.000520432 0.000116461 -2.85432e-20 -0.000526904 4.29525e-20 6.4724e-06)
(0.000437238 0.000233832 -2.55369e-20 -0.000449231 2.05205e-19 1.19933e-05)
(0.000339885 0.000312576 7.40231e-20 -0.000354738 -3.49882e-20 1.48527e-05)
(0.000237458 0.000365392 1.12033e-20 -0.000249507 -1.85582e-19 1.20492e-05)
(0.000114426 0.000391295 -4.23341e-20 -0.000120416 -6.46853e-20 5.99022e-06)
(-3.88914e-06 0.00037229 -2.03023e-19 5.70848e-06 1.07545e-19 -1.81934e-06)
(-9.41442e-05 0.000319418 8.06485e-20 0.000103984 4.13342e-20 -9.83985e-06)
(-0.000149939 0.000249868 -5.02144e-20 0.000166735 -2.10193e-20 -1.67963e-05)
(-0.000171072 0.000180988 -2.14758e-20 0.000194179 -3.12642e-20 -2.31068e-05)
(-0.000166031 0.000124866 -4.28119e-20 0.000194152 -1.14663e-20 -2.81213e-05)
(-0.000146805 8.49692e-05 -7.84317e-22 0.000177906 1.37041e-20 -3.11009e-05)
(-0.000122368 6.01567e-05 1.97553e-20 0.000154125 2.20772e-20 -3.17568e-05)
(-9.87092e-05 4.66183e-05 4.97129e-20 0.000128887 -4.43086e-21 -3.01776e-05)
(-7.8944e-05 3.96134e-05 -9.88606e-20 0.000105893 2.38527e-20 -2.6949e-05)
(-6.33158e-05 3.59365e-05 1.08718e-19 8.61796e-05 -2.21087e-20 -2.28638e-05)
(-5.15996e-05 3.35725e-05 -2.60833e-20 7.04351e-05 4.39265e-21 -1.88355e-05)
(-4.29463e-05 3.13095e-05 -5.60192e-20 5.85572e-05 9.79092e-21 -1.5611e-05)
(-3.66114e-05 2.8996e-05 -4.2552e-20 5.03664e-05 3.5511e-21 -1.37551e-05)
(-3.20907e-05 2.68043e-05 -9.99844e-20 4.55232e-05 -5.84314e-21 -1.34326e-05)
(-2.96219e-05 2.53359e-05 -1.18588e-19 4.43542e-05 2.32841e-22 -1.47324e-05)
(-2.90184e-05 2.48362e-05 -1.32145e-19 4.66767e-05 2.76378e-20 -1.76583e-05)
(-3.08188e-05 2.6776e-05 7.51966e-20 5.37039e-05 -2.71704e-20 -2.28851e-05)
(-0.000326253 0.000307373 -8.41857e-20 0.000612849 -1.77776e-19 -0.000286596)
(-0.00122755 0.00128469 2.12564e-18 0.00243693 -2.55337e-18 -0.00120938)
(-0.0106212 0.0122427 1.66534e-17 0.0217629 2.08555e-18 -0.0111418)
(-0.0403044 0.0526984 4.29785e-19 0.0837679 1.32918e-17 -0.0434635)
(-0.0808696 0.12533 -6.6216e-20 0.168317 -3.13777e-18 -0.0874478)
(-0.112896 0.211664 9.6175e-17 0.231765 4.27066e-17 -0.118869)
(-0.127833 0.29709 5.92479e-16 0.252241 -9.74773e-17 -0.124407)
(-0.126871 0.367429 3.45152e-16 0.232421 5.94717e-17 -0.10555)
(-0.117314 0.423044 2.29423e-15 0.190953 2.68482e-17 -0.0736385)
(-0.105888 0.467116 3.18592e-15 0.145106 -1.00851e-15 -0.039218)
(-0.0984731 0.506104 -8.20227e-16 0.106032 4.24254e-16 -0.0075592)
(-0.0954811 0.544763 -6.31242e-16 0.0762948 1.07558e-16 0.0191862)
(-0.102849 0.575098 -1.67322e-15 0.065069 5.50201e-16 0.0377797)
(-0.114848 0.639692 -2.86213e-15 0.0783512 -6.93835e-16 0.0364968)
(-0.170071 0.77936 -1.94259e-15 0.0958125 -5.27111e-16 0.0742582)
(0.000358991 -0.000167986 3.82217e-21 -0.000368682 8.74621e-21 9.69097e-06)
(0.000310088 -0.000228427 -3.26648e-20 -0.00032308 -3.78313e-20 1.29918e-05)
(0.000242144 -0.000279606 -2.5319e-21 -0.000258746 -1.3458e-20 1.66019e-05)
(0.000162618 -0.000312158 3.18599e-20 -0.000183208 3.61558e-20 2.059e-05)
(7.90634e-05 -0.00032652 -6.19618e-20 -0.000103194 -8.51289e-20 2.41308e-05)
(-6.81167e-06 -0.000318564 -6.14091e-20 -2.15179e-05 -9.11566e-20 2.83296e-05)
(-8.60682e-05 -0.000286998 -1.37266e-19 5.23074e-05 -1.75172e-19 3.37609e-05)
(-0.000150472 -0.000237054 -6.87881e-21 0.000111352 -6.17023e-21 3.91206e-05)
(-0.000195684 -0.000174083 -8.1066e-20 0.00015164 -1.23708e-19 4.40432e-05)
(-0.000219125 -0.000106819 2.44058e-19 0.000170817 2.47049e-19 4.83075e-05)
(-0.000223202 -4.28208e-05 -2.56047e-20 0.000171481 4.76547e-20 5.17206e-05)
(-0.000213047 1.32411e-05 3.76082e-20 0.000158148 1.85099e-20 5.48986e-05)
(-0.000194387 5.93939e-05 -1.90633e-19 0.000136468 -2.18064e-19 5.79192e-05)
(-0.000171151 9.62762e-05 1.10086e-19 0.000110558 -7.11549e-21 6.0593e-05)
(-0.000147796 0.00012519 3.43458e-20 8.6475e-05 1.01441e-19 6.13205e-05)
(-0.00012978 0.000151175 4.75706e-20 6.89019e-05 2.02355e-20 6.08785e-05)
(-0.000109767 0.000165124 -2.13654e-19 5.46688e-05 -1.25272e-19 5.50983e-05)
(-8.67377e-05 0.000162414 1.75958e-19 4.20815e-05 1.40094e-19 4.46562e-05)
(-5.446e-05 0.00012357 4.01807e-20 2.69082e-05 -1.05035e-21 2.75518e-05)
(-5.71719e-05 0.00015005 -1.97367e-19 3.07487e-05 -3.09039e-20 2.64232e-05)
(-4.37789e-05 0.000123903 1.73556e-19 2.71694e-05 -6.95292e-20 1.66095e-05)
(-0.000308001 0.000871831 3.19653e-20 0.000223976 6.15478e-19 8.40249e-05)
(-0.000137417 0.000495369 5.76844e-19 0.000116586 -7.52933e-19 2.08313e-05)
(0.00745779 -0.018064 -5.6953e-18 -0.006474 -5.19723e-18 -0.000983786)
(0.134741 -0.374264 8.87751e-18 -0.124252 3.88083e-17 -0.0104887)
(0.603441 -1.76711 -9.56765e-17 -0.562724 4.27932e-17 -0.0407171)
(1.41368 -5.5009 4.63896e-17 -1.31125 1.91087e-17 -0.102433)
(1.50753 -12.1022 -1.85343e-16 -1.36018 5.70555e-16 -0.147347)
(-0.735728 -15.4735 -6.19815e-16 0.855017 1.62145e-15 -0.119289)
(-3.38641 -14.0684 7.44977e-16 3.23214 7.4714e-16 0.154266)
(-2.42133 -4.95408 9.38207e-16 2.17166 -3.65534e-16 0.249676)
(-1.09607 -1.28164 -1.34849e-15 0.937102 2.83182e-16 0.15897)
(4.47085 5.25552 2.61415e-15 -4.67255 1.71779e-15 0.2017)
(7.0151 8.98294 -2.16624e-15 -6.62088 -5.96423e-15 -0.39422)
(0.183308 -0.892068 -3.28634e-15 -0.126114 -2.77098e-15 -0.0571936)
(-0.359487 -0.377276 2.91132e-15 0.365328 -2.24061e-15 -0.00584035)
(-0.340237 -0.383924 -2.45576e-16 0.374338 -1.69881e-15 -0.0341014)
(-0.211142 -0.248621 -9.86552e-16 0.2308 -2.80029e-15 -0.0196577)
(-0.253827 -0.104721 7.98399e-16 0.255037 -2.29822e-17 -0.00121054)
(0.000392313 -9.42365e-05 -8.39579e-21 -0.000401129 -1.51436e-20 8.81524e-06)
(0.000404958 -1.5885e-05 -1.26628e-20 -0.000412312 2.56939e-20 7.35424e-06)
(0.000390657 7.56158e-05 1.11079e-19 -0.000397217 1.03509e-19 6.55986e-06)
(0.000346128 0.000159817 -9.85293e-21 -0.000350111 -1.00265e-19 3.98295e-06)
(0.000280716 0.000227183 -2.17469e-20 -0.00028499 -7.03976e-20 4.27379e-06)
(0.000202968 0.000277318 -4.02003e-20 -0.000206847 9.80176e-20 3.87947e-06)
(0.000112324 0.000302092 5.2079e-20 -0.000116015 7.55039e-20 3.6901e-06)
(2.34917e-05 0.000292689 1.12465e-19 -2.76999e-05 3.78904e-20 4.20813e-06)
(-4.87713e-05 0.000255638 8.25776e-20 4.28448e-05 -7.70536e-20 5.92655e-06)
(-9.84228e-05 0.000202344 3.34368e-21 8.9685e-05 5.46707e-20 8.73784e-06)
(-0.000122954 0.000143909 -8.16514e-20 0.000110901 3.09808e-20 1.20532e-05)
(-0.000125807 9.0998e-05 9.9119e-21 0.000110807 2.57496e-20 1.49992e-05)
(-0.000114546 4.9408e-05 6.61821e-20 9.71809e-05 -4.9915e-20 1.73656e-05)
(-9.64522e-05 2.04939e-05 1.47406e-19 7.71844e-05 -6.30766e-20 1.92678e-05)
(-7.78225e-05 2.8358e-06 -1.98803e-20 5.74047e-05 2.96862e-21 2.04178e-05)
(-6.21401e-05 -7.2485e-06 -5.22121e-21 4.10953e-05 1.26493e-20 2.10448e-05)
(-5.07356e-05 -1.28633e-05 1.27051e-19 2.97362e-05 -4.71537e-20 2.09994e-05)
(-4.34148e-05 -1.65612e-05 8.97712e-21 2.31467e-05 -2.27997e-22 2.0268e-05)
(-3.9385e-05 -1.9847e-05 1.25215e-19 2.07119e-05 -2.78563e-20 1.8673e-05)
(-3.72414e-05 -2.34166e-05 1.29994e-19 2.0881e-05 -2.92038e-20 1.63604e-05)
(-3.59665e-05 -2.71723e-05 3.29139e-19 2.26223e-05 -6.11978e-20 1.33442e-05)
(-3.45964e-05 -3.11209e-05 3.82854e-19 2.46359e-05 -6.06723e-20 9.96052e-06)
(-3.22184e-05 -3.50982e-05 1.91049e-19 2.56694e-05 -6.41676e-20 6.54899e-06)
(-2.73157e-05 -3.82061e-05 3.48575e-20 2.34061e-05 1.00685e-20 3.90962e-06)
(-1.9737e-05 -3.78669e-05 -4.9399e-20 1.73971e-05 -3.1743e-20 2.33986e-06)
(-1.27184e-05 -3.65413e-05 2.19002e-19 1.07622e-05 5.45595e-20 1.95622e-06)
(-4.71476e-06 -2.32023e-05 -5.22759e-20 3.32836e-06 2.45212e-20 1.3864e-06)
(-6.82568e-06 -5.68997e-05 -1.16446e-19 4.69851e-06 -1.03419e-20 2.12717e-06)
(-6.72354e-05 -0.000382838 2.23824e-19 0.00011448 6.86694e-20 -4.7245e-05)
(-0.000476107 0.000186831 -5.0331e-18 0.00108305 1.33558e-18 -0.000606947)
(-0.0021387 0.00511494 -2.19206e-17 0.00465658 1.67735e-17 -0.00251788)
(-0.00567161 0.0187852 -1.04956e-16 0.0111322 -6.01172e-18 -0.00546062)
(-0.010318 0.0433923 -2.28952e-16 0.0176947 7.89329e-17 -0.00737664)
(-0.0144379 0.0783908 -5.19917e-16 0.0202962 8.33073e-17 -0.00585829)
(-0.0169788 0.119869 -1.1285e-15 0.0164376 -4.59156e-16 0.000541158)
(-0.0153564 0.162101 2.53439e-16 0.00262988 2.44209e-16 0.0127265)
(-0.0122056 0.206001 -1.24486e-15 -0.017005 -1.00616e-15 0.0292106)
(0.00491028 0.225548 3.77497e-15 -0.0450158 4.47694e-16 0.0401055)
(-0.0415575 0.371601 5.85204e-15 -0.0128553 9.02959e-16 0.0544128)
(0.000282882 -0.000132097 7.12594e-21 -0.00028405 7.07889e-21 1.16799e-06)
(0.000252616 -0.000180495 -7.08185e-21 -0.000253114 -1.20482e-20 4.98104e-07)
(0.000209091 -0.000225271 -4.35535e-21 -0.000208515 -1.39365e-20 -5.7644e-07)
(0.000156686 -0.000259752 4.85318e-20 -0.000154778 6.462e-20 -1.90804e-06)
(9.9085e-05 -0.00028125 4.08108e-20 -9.57075e-05 5.65243e-20 -3.37757e-06)
(3.77839e-05 -0.000287246 6.27283e-20 -3.26358e-05 7.11891e-20 -5.14803e-06)
(-2.13976e-05 -0.000277262 7.62175e-20 2.81656e-05 7.98139e-20 -6.76802e-06)
(-7.32839e-05 -0.00025332 -3.5893e-20 8.15916e-05 -4.70581e-20 -8.30773e-06)
(-0.000114467 -0.000218769 -1.50931e-19 0.000124925 -1.36962e-19 -1.04581e-05)
(-0.000141633 -0.000178631 1.70943e-19 0.000154906 1.00731e-19 -1.32736e-05)
(-0.000154916 -0.000137959 1.59014e-19 0.000171859 1.28807e-19 -1.69432e-05)
(-0.000156967 -0.000100869 2.09649e-19 0.000178055 1.05328e-19 -2.10882e-05)
(-0.000151512 -6.95409e-05 -3.22978e-19 0.000176909 -1.13153e-19 -2.53969e-05)
(-0.000141814 -4.3948e-05 -2.985e-19 0.000171369 -1.94169e-19 -2.95548e-05)
(-0.000129873 -2.31412e-05 3.77124e-19 0.000163209 1.23431e-19 -3.33352e-05)
(-0.000116025 -6.70718e-06 8.15989e-20 0.000152657 4.87469e-20 -3.66326e-05)
(-9.94043e-05 7.75509e-06 -5.75757e-20 0.000137345 5.89242e-21 -3.79411e-05)
(-8.03275e-05 2.01947e-05 -1.94656e-19 0.000117788 -1.28391e-19 -3.74608e-05)
(-5.84e-05 3.02414e-05 4.80223e-20 9.21384e-05 -1.88442e-20 -3.37383e-05)
(-3.93741e-05 3.7995e-05 2.08117e-19 6.77623e-05 6.84019e-20 -2.83883e-05)
(-2.16366e-05 3.60475e-05 -2.202e-19 3.93072e-05 -6.60681e-20 -1.76707e-05)
(-2.62077e-05 5.72037e-05 1.35202e-19 4.38132e-05 1.97502e-20 -1.76054e-05)
(-4.44564e-05 9.73501e-05 -4.88815e-20 6.39032e-05 -1.16118e-20 -1.94469e-05)
(-0.00120927 0.00251961 -2.8574e-18 0.00167213 9.54114e-19 -0.000462863)
(-0.000420885 0.000348193 4.38791e-18 0.00147837 -6.69012e-19 -0.00105749)
(0.0371402 -0.0990084 -2.80714e-17 -0.0298172 2.07789e-17 -0.00732301)
(0.322863 -1.19593 3.09625e-19 -0.294489 -4.85911e-18 -0.0283735)
(0.94167 -6.20229 1.58193e-16 -0.890505 -5.64164e-17 -0.051165)
(0.0561199 -13.0738 -1.35769e-16 -0.0946347 1.08344e-15 0.0385149)
(-1.51938 -10.2767 6.19062e-16 1.25385 -1.21e-15 0.265528)
(-0.741408 -1.9562 -1.20576e-16 0.57665 -1.40896e-16 0.164758)
(-0.0425701 -0.168243 1.66416e-15 -0.0634374 -5.18255e-16 0.106007)
(6.20467 7.33693 5.79527e-15 -6.29387 -2.68546e-17 0.0892012)
(3.585 2.81185 -1.18048e-15 -3.28717 -2.4801e-15 -0.297825)
(0.0124378 -0.513609 2.06776e-15 -0.0516383 3.04036e-16 0.0392005)
(-0.249019 -0.275862 9.21835e-16 0.211804 9.84154e-15 0.0372154)
(-0.288014 -0.307896 5.87783e-17 0.290287 -2.44591e-15 -0.00227319)
(-0.200484 -0.23661 6.49551e-16 0.208397 -1.07919e-15 -0.00791305)
(-0.177849 -0.103501 -2.22197e-16 0.163027 2.76928e-16 0.014822)
(0.000302261 -7.52523e-05 -1.42531e-20 -0.000305299 -1.90865e-20 3.03744e-06)
(0.000309142 -1.64699e-05 -1.16052e-20 -0.000312737 4.61018e-20 3.59517e-06)
(0.000298743 5.06558e-05 4.17799e-20 -0.000302773 3.39324e-20 4.03022e-06)
(0.000269584 0.000113729 -4.21951e-20 -0.000271836 1.36758e-20 2.25223e-06)
(0.000225891 0.000167009 3.21614e-20 -0.000227987 6.59324e-20 2.09594e-06)
(0.000169765 0.000207841 7.75394e-20 -0.000172154 -6.34971e-20 2.38918e-06)
(0.0001028 0.000230754 2.69799e-20 -0.000105578 9.54394e-21 2.77831e-06)
(3.53631e-05 0.000230663 -8.15733e-20 -3.8061e-05 -4.47725e-20 2.69793e-06)
(-2.28124e-05 0.000211046 -2.5308e-20 2.03528e-05 8.10836e-22 2.45954e-06)
(-6.70209e-05 0.000178219 1.6593e-19 6.48547e-05 -1.78537e-20 2.16621e-06)
(-9.46172e-05 0.000139156 3.74832e-20 9.29696e-05 -7.96339e-21 1.64759e-06)
(-0.000106394 0.000101172 6.78715e-20 0.000105753 -3.19185e-20 6.40685e-07)
(-0.000106183 6.92578e-05 -1.70023e-19 0.000107054 1.31377e-20 -8.71524e-07)
(-9.87981e-05 4.55121e-05 -1.40044e-19 0.000101601 4.13601e-20 -2.80269e-06)
(-8.87311e-05 2.98708e-05 3.403e-20 9.38534e-05 5.44184e-21 -5.1223e-06)
(-7.91476e-05 2.0238e-05 3.1221e-20 8.67056e-05 -8.16578e-21 -7.55796e-06)
(-7.16093e-05 1.43693e-05 -1.30029e-19 8.15922e-05 2.67896e-20 -9.98293e-06)
(-6.63163e-05 1.0216e-05 1.26041e-20 7.85178e-05 -3.05322e-21 -1.22015e-05)
(-6.2745e-05 6.3772e-06 -3.64591e-20 7.68463e-05 9.43905e-21 -1.41012e-05)
(-5.98709e-05 2.10465e-06 1.07081e-19 7.53619e-05 -1.16024e-20 -1.5491e-05)
(-5.68344e-05 -2.60179e-06 -1.29814e-19 7.31909e-05 4.03855e-20 -1.63565e-05)
(-5.29383e-05 -7.59912e-06 -2.05863e-19 6.95546e-05 6.27037e-20 -1.66162e-05)
(-4.76524e-05 -1.25453e-05 4.19324e-20 6.38852e-05 2.45456e-20 -1.62328e-05)
(-4.04991e-05 -1.66191e-05 7.59249e-20 5.56542e-05 2.40144e-20 -1.51551e-05)
(-3.23618e-05 -1.83688e-05 1.63486e-19 4.61687e-05 -1.12908e-20 -1.38069e-05)
(-2.44773e-05 -1.73741e-05 -1.73876e-19 3.68212e-05 5.55025e-20 -1.23439e-05)
(-1.7721e-05 -1.48628e-05 -1.91008e-20 2.83515e-05 -2.82449e-20 -1.06305e-05)
(-8.07686e-06 -7.70545e-06 1.16945e-20 1.37907e-05 -7.99072e-21 -5.71382e-06)
(-1.40886e-05 -1.53957e-05 -1.74401e-20 2.60259e-05 4.12164e-21 -1.19372e-05)
(-6.78786e-06 -9.8961e-06 -2.57815e-20 1.51082e-05 -4.75412e-20 -8.32037e-06)
(3.76537e-06 -1.80753e-06 -5.97834e-20 -1.18274e-06 -8.71758e-20 -2.58263e-06)
(8.35157e-05 6.72418e-05 1.31475e-18 -0.0001285 2.72037e-19 4.49844e-05)
(0.000368204 0.000416042 9.45647e-18 -0.00064229 4.47747e-18 0.000274085)
(0.00106439 0.00155648 4.92728e-17 -0.00197199 -2.075e-18 0.000907598)
(0.00235609 0.00463087 1.47357e-16 -0.00463022 -2.42086e-17 0.00227413)
(0.00450383 0.0114859 -2.76799e-16 -0.00937694 -1.75914e-18 0.00487311)
(0.00806875 0.0255696 1.09145e-15 -0.0180807 1.12217e-16 0.0100119)
(0.0152333 0.0436892 -6.97961e-16 -0.0303355 -6.42053e-18 0.0151022)
(0.00956645 0.129786 -7.26569e-16 -0.0383004 1.09667e-16 0.0287339)
(0.000221516 -0.000100423 -1.35233e-20 -0.000223183 -1.0828e-20 1.66683e-06)
(0.000198369 -0.000136273 1.28851e-21 -0.000200528 -1.90151e-21 2.15903e-06)
(0.00016525 -0.000169684 1.69432e-20 -0.000168084 2.11703e-20 2.83374e-06)
(0.000124449 -0.000196041 -9.17701e-20 -0.000128237 -8.21223e-20 3.7878e-06)
(7.87789e-05 -0.000212943 -6.76514e-20 -8.37891e-05 -7.68729e-20 5.01021e-06)
(2.97743e-05 -0.000217797 1.44951e-19 -3.57933e-05 1.40588e-19 6.01897e-06)
(-1.81633e-05 -0.000209981 -1.45991e-19 1.0979e-05 -1.44718e-19 7.18429e-06)
(-6.14952e-05 -0.000191025 -5.80167e-20 5.30252e-05 -4.86182e-20 8.47004e-06)
(-9.74603e-05 -0.000162717 -1.53099e-19 8.78659e-05 -1.11119e-19 9.59438e-06)
(-0.000123297 -0.000128092 -3.69113e-20 0.000112749 -4.88515e-20 1.05483e-05)
(-0.000137951 -9.07683e-05 2.06544e-20 0.000126821 -3.63704e-21 1.11298e-05)
(-0.000142193 -5.42381e-05 -1.20595e-19 0.000130724 -1.32328e-19 1.14686e-05)
(-0.000138156 -2.09755e-05 3.49838e-19 0.000126352 2.29425e-19 1.18042e-05)
(-0.000128259 8.05379e-06 -1.06707e-19 0.000115862 -1.76272e-20 1.23974e-05)
(-0.000114203 3.27692e-05 -2.83516e-19 0.000100767 -1.26288e-19 1.34363e-05)
(-9.71553e-05 5.34985e-05 1.84263e-19 8.20213e-05 6.49581e-21 1.5134e-05)
(-7.83041e-05 6.9936e-05 -1.36344e-19 6.13678e-05 -7.78436e-20 1.69363e-05)
(-5.84508e-05 8.09642e-05 1.00597e-21 4.05109e-05 9.96864e-20 1.79399e-05)
(-3.77341e-05 8.53384e-05 -3.25585e-20 1.99843e-05 -2.51731e-20 1.77498e-05)
(-1.76196e-05 8.2537e-05 -2.33686e-19 1.38576e-06 -1.62316e-19 1.62338e-05)
(-5.50443e-07 6.77007e-05 1.63342e-19 -1.16203e-05 1.58765e-19 1.21708e-05)
(6.95329e-06 4.71531e-05 3.02707e-21 -1.34943e-05 -9.60971e-20 6.54098e-06)
(3.86707e-06 3.75085e-05 2.96697e-20 -5.64864e-06 9.33584e-21 1.78157e-06)
(-7.80568e-06 4.83589e-05 8.97086e-20 9.37669e-06 4.00969e-22 -1.57101e-06)
(-0.000409561 0.00127584 -6.78141e-19 0.000480216 -1.79587e-19 -7.06548e-05)
(-0.00012279 0.00036139 1.22254e-18 0.000178643 2.34932e-19 -5.58531e-05)
(0.00762813 -0.0307159 -7.63421e-19 -0.00553495 1.88606e-19 -0.00209318)
(0.146858 -0.945293 -4.30067e-17 -0.13773 -2.79478e-17 -0.00912818)
(0.222742 -3.82314 -6.20047e-17 -0.255458 1.66855e-16 0.0327157)
(0.0470407 -2.78856 -1.59839e-15 -0.134447 2.36724e-16 0.0874067)
(-0.00515521 -0.27175 -1.39501e-16 -0.0422277 3.81091e-17 0.0473829)
(0.44352 0.0739966 2.09432e-16 -0.516201 1.09676e-16 0.072681)
(5.60155 5.36955 1.4278e-15 -5.60014 -2.63454e-16 -0.0014163)
(1.64023 0.459811 2.14568e-15 -1.45025 -1.82177e-15 -0.189982)
(0.016831 -0.271579 -4.68643e-16 -0.0994277 4.6643e-15 0.0825967)
(-0.30163 -0.313645 -2.07948e-16 0.243142 1.59885e-16 0.0584878)
(-0.328897 -0.3282 1.3847e-15 0.316955 7.07965e-15 0.0119415)
(-0.213891 -0.262377 3.92935e-16 0.215358 2.79008e-15 -0.00146755)
(-0.125462 -0.137447 4.34732e-16 0.103327 -2.78723e-16 0.022135)
(0.000236422 -5.87099e-05 1.01738e-20 -0.000238586 -5.40635e-21 2.16353e-06)
(0.000242113 -1.53025e-05 -3.48222e-20 -0.000244261 -2.16295e-20 2.14815e-06)
(0.000235311 3.47101e-05 -8.73654e-21 -0.000237618 1.62884e-20 2.30669e-06)
(0.000214862 8.30288e-05 2.8213e-20 -0.000215985 -8.10566e-20 1.12374e-06)
(0.000183751 0.000125545 -1.89928e-19 -0.000184988 -1.29054e-19 1.23727e-06)
(0.000142687 0.000159514 -1.5871e-19 -0.000144282 1.10063e-19 1.59533e-06)
(9.27556e-05 0.000180786 2.29992e-19 -9.46618e-05 1.51365e-20 1.90625e-06)
(4.12447e-05 0.000185269 -1.22537e-19 -4.32318e-05 -7.26958e-20 1.9871e-06)
(-5.075e-06 0.00017468 -5.18102e-20 2.92757e-06 1.71018e-20 2.14744e-06)
(-4.2245e-05 0.000152806 -2.85896e-20 3.97066e-05 -5.43989e-20 2.53837e-06)
(-6.77329e-05 0.000124244 -4.88084e-21 6.46401e-05 2.60237e-20 3.0928e-06)
(-8.12957e-05 9.41493e-05 -5.027e-20 7.76405e-05 -1.29341e-20 3.65521e-06)
(-8.48366e-05 6.66259e-05 -1.08228e-19 8.0749e-05 6.80536e-20 4.08765e-06)
(-8.137e-05 4.40016e-05 1.29056e-19 7.70713e-05 -9.69877e-21 4.29871e-06)
(-7.41324e-05 2.70592e-05 7.42011e-20 6.98725e-05 -2.35654e-20 4.25994e-06)
(-6.58203e-05 1.50492e-05 -1.45649e-20 6.17456e-05 -6.57898e-21 4.07474e-06)
(-5.80799e-05 6.61045e-06 4.19735e-20 5.41694e-05 -6.44288e-21 3.91053e-06)
(-5.15269e-05 2.41708e-07 -8.04264e-20 4.75897e-05 1.79463e-20 3.93713e-06)
(-4.60605e-05 -5.21252e-06 5.70473e-20 4.17855e-05 -1.00841e-20 4.27497e-06)
(-4.10859e-05 -1.04378e-05 -6.21792e-20 3.60549e-05 1.43388e-20 5.03095e-06)
(-3.59878e-05 -1.55771e-05 7.93979e-20 2.97884e-05 -1.6132e-20 6.19941e-06)
(-3.02019e-05 -2.05142e-05 7.69822e-20 2.24195e-05 -2.47202e-20 7.78242e-06)
(-2.33313e-05 -2.48912e-05 -2.7006e-20 1.36031e-05 -7.89051e-23 9.72825e-06)
(-1.50298e-05 -2.80531e-05 -1.70391e-19 2.98161e-06 2.65626e-20 1.20482e-05)
(-5.79356e-06 -2.89274e-05 -4.59845e-20 -8.74983e-06 4.76165e-20 1.45434e-05)
(3.02939e-06 -2.73674e-05 -1.67607e-20 -1.99807e-05 -5.8635e-20 1.69513e-05)
(1.06191e-05 -2.42198e-05 6.84768e-20 -2.98528e-05 -8.33995e-21 1.92337e-05)
(1.66491e-05 -2.02297e-05 -1.26293e-21 -3.79326e-05 3.83405e-21 2.12834e-05)
(2.04633e-05 -1.56665e-05 -1.90505e-21 -4.25737e-05 -3.07252e-21 2.21104e-05)
(2.74202e-05 -1.39528e-05 5.2107e-20 -5.41171e-05 1.32531e-20 2.66969e-05)
(1.61391e-05 -5.6232e-06 1.67794e-20 -3.08449e-05 2.39812e-21 1.47057e-05)
(8.9924e-05 -2.27418e-05 -6.45145e-19 -0.000168527 -1.30442e-19 7.86028e-05)
(1.25668e-05 -2.58587e-06 -2.34829e-19 -2.31343e-05 -1.14389e-20 1.05675e-05)
(0.000617784 -0.000120372 -2.5483e-18 -0.00110888 3.31187e-18 0.000491092)
(0.00108772 -0.000223309 3.01903e-18 -0.00188836 6.3795e-18 0.000800638)
(0.000103143 -2.18659e-05 -6.88725e-19 -0.000170271 -1.76604e-18 6.71285e-05)
(0.000676038 -5.96718e-05 -2.54929e-17 -0.00106025 2.19517e-17 0.000384212)
(0.00142288 0.000168489 7.22197e-17 -0.00199981 1.22003e-17 0.000576937)
(0.00707555 0.0128318 -2.9074e-16 -0.0115087 -5.17508e-17 0.00443315)
(0.000177077 -8.00827e-05 1.27213e-20 -0.000178479 9.25579e-21 1.40174e-06)
(0.000160217 -0.000108389 -2.8316e-20 -0.000161748 -1.96723e-20 1.53139e-06)
(0.000135823 -0.000135622 -3.14305e-22 -0.000137444 -6.47739e-21 1.62143e-06)
(0.000105393 -0.00015852 -4.95856e-21 -0.000106984 -1.31745e-20 1.59154e-06)
(7.08838e-05 -0.000174741 8.11868e-20 -7.25617e-05 7.3243e-20 1.67795e-06)
(3.30525e-05 -0.0001821 5.82871e-20 -3.4517e-05 5.23719e-20 1.46444e-06)
(-4.81972e-06 -0.000180024 8.16836e-21 3.67007e-06 1.39682e-20 1.14966e-06)
(-4.01507e-05 -0.000169437 1.56863e-19 3.9362e-05 1.32105e-19 7.88638e-07)
(-7.09868e-05 -0.000151211 -1.2327e-20 7.06964e-05 2.57782e-21 2.90434e-07)
(-9.50282e-05 -0.000127131 -5.12935e-20 9.53299e-05 -2.70187e-20 -3.01784e-07)
(-0.000110996 -9.96051e-05 1.00632e-19 0.000112109 4.22286e-20 -1.11333e-06)
(-0.00011884 -7.12142e-05 -1.29667e-19 0.000120984 -5.26572e-20 -2.14339e-06)