/*--------------------------------*- C++ -*----------------------------------*\
| =========                 |                                                 |
| \\      /  F ield         | OpenFOAM: The Open Source CFD Toolbox           |
|  \\    /   O peration     | Version:  2306                                  |
|   \\  /    A nd           | Website:  www.openfoam.com                      |
|    \\/     M anipulation  |                                                 |
\*---------------------------------------------------------------------------*/
FoamFile
{
    version     2.0;
    format      ascii;
    arch        "LSB;label=32;scalar=64";
    class       volScalarField;
    location    "25";
    object      turbulenceProperties:nut;
}
// * * * * * * * * * * * * * * * * * * * * * * * * * * * * * * * * * * * * * //

dimensions      [0 2 -1 0 0 0 0];

internalField   nonuniform List<scalar> 
10720
(
1.45237e-05
1.65962e-05
1.9106e-05
2.25206e-05
2.76117e-05
3.48992e-05
4.47324e-05
5.71034e-05
7.25338e-05
9.1791e-05
0.000116276
0.00014864
0.000192768
0.000256026
0.000348861
0.000488874
0.00070512
0.00104866
0.00161232
0.00257617
0.00432975
0.0081558
0.0164922
0.0456459
0.0424827
0.0261665
0.0236068
0.0426985
0.0581808
0.0567265
0.04221
0.0792526
0.153288
0.11879
0.0889879
0.0928685
0.0682995
0.0380925
0.0328249
1.2513e-05
1.06422e-05
8.9546e-06
7.68173e-06
6.92895e-06
7.64376e-06
9.4706e-06
1.2471e-05
1.69909e-05
2.38533e-05
3.43906e-05
5.022e-05
7.27085e-05
0.000103098
0.000142901
0.000196174
0.000271086
0.000383222
0.00056089
0.000857573
0.00137519
0.00231633
0.00406663
0.00770938
0.0145657
0.0302776
0.0653616
0.0985214
0.114167
0.11869
0.119532
0.119402
0.118774
0.117769
0.11647
0.115068
0.113329
0.111489
0.106696
5.72025e-06
5.65416e-06
5.56613e-06
5.44109e-06
5.2893e-06
5.1536e-06
5.05222e-06
4.96805e-06
4.90146e-06
4.83729e-06
4.76234e-06
4.68446e-06
4.63632e-06
4.50749e-06
5.12506e-06
7.86043e-06
2.04295e-05
6.53357e-05
0.000165401
0.000358823
0.000770715
0.00206831
0.00454135
0.018513
0.0454485
0.076644
0.118199
0.197132
0.270626
0.27153
0.18169
0.114252
0.129196
0.168703
0.103798
0.0728591
0.0481618
0.0240375
0.030914
5.77573e-06
5.86946e-06
5.95752e-06
6.05399e-06
6.09857e-06
6.03504e-06
5.91587e-06
5.77152e-06
5.59692e-06
5.39652e-06
5.17619e-06
4.93966e-06
4.69171e-06
4.43796e-06
4.16319e-06
3.86854e-06
3.51491e-06
3.09448e-06
2.55305e-06
1.88499e-06
1.11004e-06
4.72514e-07
1.13741e-07
4.11676e-07
9.64184e-05
0.000370184
0.00315061
0.012298
0.0272298
0.0437256
0.0578618
0.0671758
0.0722061
0.0747163
0.0761867
0.0775462
0.0786243
0.0806446
0.0848638
6.24925e-06
6.25567e-06
6.27208e-06
6.29717e-06
6.32707e-06
6.35159e-06
6.36729e-06
6.38241e-06
6.40317e-06
6.43283e-06
6.47323e-06
6.52438e-06
6.58515e-06
6.66565e-06
6.71499e-06
6.9924e-06
6.43004e-06
4.74311e-06
5.04316e-07
2.42843e-06
7.90412e-07
8.6815e-05
0.000177149
0.00165088
0.0120363
0.0367836
0.0904033
0.208729
0.324163
0.317979
0.162741
0.10065
0.196124
0.177167
0.0771397
0.050792
0.0389669
0.0256623
0.0354171
6.24657e-06
6.24457e-06
6.22528e-06
6.20548e-06
6.18609e-06
6.19329e-06
6.20477e-06
6.22178e-06
6.24232e-06
6.26729e-06
6.29422e-06
6.3205e-06
6.34602e-06
6.37188e-06
6.40096e-06
6.43391e-06
6.47285e-06
6.51888e-06
6.57502e-06
6.64377e-06
6.73097e-06
6.84253e-06
6.99479e-06
7.1419e-06
6.92234e-06
7.53406e-06
3.04695e-06
3.40559e-05
0.000571699
0.00235821
0.00642625
0.0129405
0.0213618
0.0306431
0.0397219
0.0479151
0.0548242
0.0595813
0.0718448
6.1733e-06
6.16749e-06
6.16661e-06
6.17522e-06
6.1922e-06
6.21097e-06
6.22568e-06
6.23653e-06
6.24756e-06
6.26041e-06
6.27566e-06
6.29374e-06
6.31571e-06
6.34299e-06
6.37845e-06
6.42943e-06
6.47357e-06
6.46723e-06
5.67362e-06
4.40991e-06
1.5371e-07
1.69891e-06
4.88231e-06
0.000382651
0.000974794
0.00723005
0.0344223
0.127731
0.263243
0.252548
0.0985104
0.0803641
0.214809
0.140913
0.0568308
0.046448
0.0410037
0.0329403
0.039785
6.17795e-06
6.1864e-06
6.18678e-06
6.18684e-06
6.17956e-06
6.17286e-06
6.16429e-06
6.15651e-06
6.15001e-06
6.14497e-06
6.14156e-06
6.13907e-06
6.13671e-06
6.1341e-06
6.13143e-06
6.13004e-06
6.12991e-06
6.1311e-06
6.13371e-06
6.13804e-06
6.14408e-06
6.15182e-06
6.16244e-06
6.16476e-06
6.23997e-06
6.20716e-06
6.17713e-06
8.10391e-07
2.13244e-05
2.77396e-05
5.2079e-05
0.000331512
0.000991249
0.0024348
0.00528245
0.0101935
0.0175054
0.0253526
0.043909
6.17534e-06
6.17641e-06
6.18282e-06
6.19554e-06
6.21117e-06
6.22424e-06
6.23256e-06
6.23935e-06
6.24759e-06
6.25753e-06
6.26836e-06
6.27932e-06
6.29e-06
6.29972e-06
6.31003e-06
6.32214e-06
6.3369e-06
6.35779e-06
6.34934e-06
6.29234e-06
4.94233e-06
2.17293e-06
1.59718e-08
0
0.000199797
0.000108778
0.00382463
0.0425401
0.122164
0.114854
0.0309185
0.0647356
0.200385
0.101631
0.0521611
0.0600139
0.0522464
0.0425862
0.0444131
6.17789e-06
6.18704e-06
6.19005e-06
6.18936e-06
6.18169e-06
6.178e-06
6.17462e-06
6.17235e-06
6.17128e-06
6.17122e-06
6.17177e-06
6.17232e-06
6.17286e-06
6.17374e-06
6.1753e-06
6.17725e-06
6.17921e-06
6.18084e-06
6.18201e-06
6.1827e-06
6.1831e-06
6.18369e-06
6.18508e-06
6.18817e-06
6.19161e-06
6.20249e-06
6.21776e-06
6.27438e-06
5.95318e-06
9.02672e-06
9.22505e-07
5.41287e-05
3.71712e-08
0.000568586
0.0012411
0.000136413
0.00111639
0.00208765
0.0126259
6.16954e-06
6.17116e-06
6.1782e-06
6.19165e-06
6.20688e-06
6.21887e-06
6.22732e-06
6.23601e-06
6.24726e-06
6.2608e-06
6.27599e-06
6.29264e-06
6.31084e-06
6.33107e-06
6.35393e-06
6.3801e-06
6.41079e-06
6.4436e-06
6.47688e-06
6.54128e-06
6.65511e-06
6.5213e-06
4.3936e-06
1.37328e-08
0
1.33604e-06
0.00105171
0.00587106
0.0256622
0.0226797
0.00928122
0.0537743
0.168663
0.0775108
0.0623241
0.0802199
0.0641848
0.0509442
0.0476299
6.17169e-06
6.18061e-06
6.18447e-06
6.18362e-06
6.17674e-06
6.17404e-06
6.17194e-06
6.17009e-06
6.16879e-06
6.16828e-06
6.16812e-06
6.1678e-06
6.16749e-06
6.16753e-06
6.16805e-06
6.1686e-06
6.1688e-06
6.16839e-06
6.16729e-06
6.16543e-06
6.16288e-06
6.16066e-06
6.15987e-06
6.16088e-06
6.16394e-06
6.16908e-06
6.17658e-06
6.18512e-06
6.18414e-06
6.27841e-06
6.09465e-06
4.6856e-06
3.9069e-06
1.86188e-07
1.32975e-08
6.56149e-06
0.000259926
0.000515147
0.00109167
6.16784e-06
6.16986e-06
6.17683e-06
6.19007e-06
6.20444e-06
6.21552e-06
6.22406e-06
6.23355e-06
6.24524e-06
6.25845e-06
6.27253e-06
6.28725e-06
6.30255e-06
6.31843e-06
6.33488e-06
6.35201e-06
6.36929e-06
6.38762e-06
6.41287e-06
6.43912e-06
6.53741e-06
6.49956e-06
8.1709e-06
3.03172e-06
6.97963e-09
0
0
0.00130062
0.00114037
0.00113656
0.00152492
0.0477216
0.136389
0.070469
0.0834436
0.106327
0.0779314
0.058994
0.0502545
6.16868e-06
6.17605e-06
6.17973e-06
6.17832e-06
6.17217e-06
6.17009e-06
6.16909e-06
6.16819e-06
6.16768e-06
6.16763e-06
6.16761e-06
6.16734e-06
6.16731e-06
6.16801e-06
6.16951e-06
6.17141e-06
6.17342e-06
6.17531e-06
6.177e-06
6.17855e-06
6.18026e-06
6.18248e-06
6.18559e-06
6.18996e-06
6.19636e-06
6.20598e-06
6.21994e-06
6.23912e-06
6.26298e-06
6.29576e-06
6.35339e-06
6.36431e-06
6.00382e-06
6.04094e-06
4.07116e-06
9.52219e-07
2.57488e-12
1.18508e-12
0.000256283
6.16563e-06
6.168e-06
6.175e-06
6.18798e-06
6.2016e-06
6.2119e-06
6.22041e-06
6.23024e-06
6.24192e-06
6.2547e-06
6.26826e-06
6.2826e-06
6.2977e-06
6.31366e-06
6.33052e-06
6.34841e-06
6.36773e-06
6.3882e-06
6.40872e-06
6.427e-06
6.47198e-06
6.39013e-06
6.73597e-06
8.39894e-06
1.4792e-06
2.52956e-09
0
0
0.000239929
0.00024274
0.00151722
0.0466276
0.111448
0.0775108
0.114126
0.138643
0.0937758
0.0673055
0.0555108
6.16568e-06
6.17156e-06
6.17448e-06
6.17253e-06
6.16745e-06
6.16582e-06
6.16545e-06
6.16518e-06
6.16535e-06
6.16574e-06
6.16575e-06
6.16523e-06
6.1649e-06
6.16532e-06
6.1666e-06
6.16838e-06
6.17038e-06
6.17232e-06
6.17406e-06
6.17558e-06
6.17707e-06
6.17879e-06
6.18097e-06
6.18376e-06
6.1876e-06
6.19337e-06
6.20176e-06
6.21307e-06
6.22719e-06
6.24401e-06
6.2638e-06
6.29093e-06
6.30223e-06
6.37461e-06
6.39009e-06
5.68156e-06
4.41915e-06
4.16137e-10
5.67096e-11
6.16322e-06
6.16574e-06
6.17283e-06
6.18531e-06
6.19813e-06
6.20761e-06
6.21606e-06
6.22562e-06
6.23641e-06
6.24789e-06
6.25996e-06
6.27263e-06
6.28594e-06
6.30003e-06
6.31487e-06
6.33035e-06
6.34674e-06
6.36395e-06
6.38235e-06
6.40209e-06
6.43047e-06
6.44797e-06
6.31584e-06
7.153e-06
8.17409e-06
5.11209e-07
2.39562e-10
0
0
0
0.00160192
0.0471325
0.0968992
0.0977306
0.156014
0.17705
0.111695
0.076064
0.0618978
6.16288e-06
6.16746e-06
6.16935e-06
6.16697e-06
6.16272e-06
6.16129e-06
6.16138e-06
6.16168e-06
6.16242e-06
6.16338e-06
6.16372e-06
6.16322e-06
6.16271e-06
6.1629e-06
6.16401e-06
6.16585e-06
6.16823e-06
6.1709e-06
6.17369e-06
6.17648e-06
6.17936e-06
6.18247e-06
6.18602e-06
6.19025e-06
6.19573e-06
6.2033e-06
6.21364e-06
6.22703e-06
6.24354e-06
6.26331e-06
6.28628e-06
6.31322e-06
6.34317e-06
6.38385e-06
6.46598e-06
6.66691e-06
6.79377e-06
7.48444e-06
1.91109e-08
6.16037e-06
6.16255e-06
6.16979e-06
6.18163e-06
6.19303e-06
6.20172e-06
6.2104e-06
6.21989e-06
6.23008e-06
6.2402e-06
6.2505e-06
6.26115e-06
6.27246e-06
6.28475e-06
6.298e-06
6.31203e-06
6.32701e-06
6.34226e-06
6.35818e-06
6.3748e-06
6.39669e-06
6.43161e-06
6.38899e-06
6.36779e-06
7.74666e-06
7.00434e-06
2.94572e-08
1.90318e-10
0
0
0.00166319
0.0468698
0.0932464
0.130341
0.210221
0.220742
0.131269
0.085531
0.0685526
6.15991e-06
6.16334e-06
6.16426e-06
6.16167e-06
6.15851e-06
6.15684e-06
6.15656e-06
6.15735e-06
6.15884e-06
6.16046e-06
6.16134e-06
6.1611e-06
6.16053e-06
6.16037e-06
6.16104e-06
6.16254e-06
6.16483e-06
6.16772e-06
6.171e-06
6.17448e-06
6.17813e-06
6.18197e-06
6.18609e-06
6.19067e-06
6.19626e-06
6.20362e-06
6.21329e-06
6.22543e-06
6.24006e-06
6.25732e-06
6.27685e-06
6.29937e-06
6.32574e-06
6.35887e-06
6.38551e-06
6.48708e-06
6.40656e-06
8.14882e-06
4.11605e-06
6.15722e-06
6.15924e-06
6.16623e-06
6.17753e-06
6.18744e-06
6.19514e-06
6.20361e-06
6.21312e-06
6.22337e-06
6.23298e-06
6.2417e-06
6.25014e-06
6.2591e-06
6.26919e-06
6.28056e-06
6.29307e-06
6.30674e-06
6.32073e-06
6.3355e-06
6.34983e-06
6.36806e-06
6.39916e-06
6.3956e-06
6.37524e-06
6.64542e-06
7.84103e-06
4.61674e-06
5.76282e-08
2.83844e-13
0
0.0017023
0.0459707
0.0978612
0.172855
0.275499
0.26802
0.151944
0.0956577
0.0753863
6.15661e-06
6.15916e-06
6.15927e-06
6.15655e-06
6.15439e-06
6.15318e-06
6.15196e-06
6.15213e-06
6.15418e-06
6.15674e-06
6.15848e-06
6.15887e-06
6.15856e-06
6.15828e-06
6.15854e-06
6.15961e-06
6.16161e-06
6.16445e-06
6.16794e-06
6.17187e-06
6.17614e-06
6.18067e-06
6.18543e-06
6.19058e-06
6.19664e-06
6.20429e-06
6.21397e-06
6.22589e-06
6.24021e-06
6.25716e-06
6.27682e-06
6.29996e-06
6.32733e-06
6.36013e-06
6.3951e-06
6.44203e-06
6.45419e-06
6.75259e-06
6.90559e-06
6.15373e-06
6.15583e-06
6.16258e-06
6.17316e-06
6.18229e-06
6.18936e-06
6.19687e-06
6.20561e-06
6.21541e-06
6.22554e-06
6.23374e-06
6.24081e-06
6.24766e-06
6.25537e-06
6.26458e-06
6.27537e-06
6.28769e-06
6.30069e-06
6.31478e-06
6.3289e-06
6.34335e-06
6.37671e-06
6.35798e-06
6.42074e-06
6.54515e-06
6.21796e-06
8.03837e-06
6.22013e-06
4.21719e-11
0
0.00176051
0.0455788
0.105735
0.224927
0.350447
0.31469
0.173209
0.106215
0.0822902
6.15301e-06
6.1549e-06
6.15446e-06
6.15189e-06
6.15009e-06
6.14954e-06
6.14849e-06
6.14739e-06
6.14859e-06
6.15183e-06
6.1548e-06
6.15626e-06
6.15659e-06
6.15646e-06
6.1565e-06
6.15713e-06
6.15867e-06
6.16115e-06
6.16446e-06
6.16845e-06
6.17295e-06
6.1778e-06
6.18288e-06
6.18829e-06
6.19445e-06
6.20188e-06
6.2109e-06
6.22169e-06
6.23439e-06
6.24923e-06
6.26625e-06
6.28624e-06
6.31046e-06
6.33984e-06
6.37564e-06
6.41338e-06
6.47237e-06
6.48216e-06
6.79628e-06
6.15012e-06
6.15228e-06
6.15888e-06
6.16882e-06
6.17711e-06
6.18367e-06
6.191e-06
6.19919e-06
6.20702e-06
6.21617e-06
6.22542e-06
6.23216e-06
6.2377e-06
6.24342e-06
6.25061e-06
6.2596e-06
6.27036e-06
6.2822e-06
6.29516e-06
6.3092e-06
6.3214e-06
6.35637e-06
6.33246e-06
6.39064e-06
6.65839e-06
5.57705e-06
7.53441e-06
1.28574e-05
1.15848e-10
0
0.00186002
0.0461882
0.11652
0.286836
0.434271
0.357137
0.193097
0.116377
0.0888747
6.14928e-06
6.15061e-06
6.14986e-06
6.14757e-06
6.14606e-06
6.14543e-06
6.14508e-06
6.1442e-06
6.14364e-06
6.14603e-06
6.1499e-06
6.15274e-06
6.15414e-06
6.15459e-06
6.15469e-06
6.155e-06
6.15601e-06
6.15792e-06
6.1608e-06
6.16456e-06
6.16906e-06
6.17403e-06
6.1793e-06
6.18491e-06
6.1912e-06
6.19858e-06
6.2073e-06
6.21747e-06
6.2293e-06
6.24306e-06
6.25891e-06
6.2775e-06
6.29978e-06
6.32652e-06
6.35866e-06
6.39433e-06
6.44604e-06
6.47304e-06
6.59244e-06
6.1465e-06
6.14874e-06
6.15516e-06
6.16449e-06
6.17208e-06
6.17817e-06
6.18506e-06
6.19277e-06
6.20016e-06
6.20705e-06
6.21579e-06
6.22323e-06
6.22841e-06
6.23316e-06
6.23884e-06
6.2461e-06
6.25517e-06
6.26586e-06
6.27764e-06
6.29108e-06
6.30207e-06
6.3356e-06
6.31685e-06
6.35697e-06
6.67558e-06
5.44937e-06
7.4952e-06
1.26908e-05
1.32705e-10
0
0.00195349
0.0465522
0.133315
0.352333
0.515104
0.389081
0.20911
0.125018
0.0945553
6.14555e-06
6.1464e-06
6.14546e-06
6.14347e-06
6.14224e-06
6.14151e-06
6.14103e-06
6.14125e-06
6.14048e-06
6.14087e-06
6.14423e-06
6.14808e-06
6.15078e-06
6.15217e-06
6.15268e-06
6.1529e-06
6.15347e-06
6.15481e-06
6.15718e-06
6.16061e-06
6.16496e-06
6.16993e-06
6.17528e-06
6.18101e-06
6.18739e-06
6.19471e-06
6.2031e-06
6.21266e-06
6.22357e-06
6.23611e-06
6.25054e-06
6.26738e-06
6.28765e-06
6.31217e-06
6.3414e-06
6.37523e-06
6.41837e-06
6.45831e-06
6.52186e-06
6.1429e-06
6.14522e-06
6.15146e-06
6.16023e-06
6.16721e-06
6.17289e-06
6.17937e-06
6.18646e-06
6.19327e-06
6.1994e-06
6.20612e-06
6.21363e-06
6.21926e-06
6.22386e-06
6.22838e-06
6.23384e-06
6.24106e-06
6.25045e-06
6.261e-06
6.27359e-06
6.28407e-06
6.3146e-06
6.30545e-06
6.32853e-06
6.64315e-06
5.43857e-06
7.87254e-06
1.10536e-05
1.30124e-10
0
0.00193714
0.0443218
0.152733
0.404065
0.567948
0.405886
0.218727
0.130718
0.0984736
6.14185e-06
6.14233e-06
6.14127e-06
6.13955e-06
6.13849e-06
6.13783e-06
6.13721e-06
6.13741e-06
6.13802e-06
6.13733e-06
6.13884e-06
6.14269e-06
6.14648e-06
6.14902e-06
6.15023e-06
6.15061e-06
6.15094e-06
6.15187e-06
6.15382e-06
6.15692e-06
6.16107e-06
6.16595e-06
6.1713e-06
6.1771e-06
6.18354e-06
6.19081e-06
6.19895e-06
6.20799e-06
6.21812e-06
6.22969e-06
6.24297e-06
6.25835e-06
6.27684e-06
6.29927e-06
6.32601e-06
6.35724e-06
6.39593e-06
6.4337e-06
6.48856e-06
6.1393e-06
6.14169e-06
6.14773e-06
6.15601e-06
6.16249e-06
6.1678e-06
6.17388e-06
6.18034e-06
6.18645e-06
6.1921e-06
6.19718e-06
6.20359e-06
6.21021e-06
6.21482e-06
6.2186e-06
6.22269e-06
6.22839e-06
6.23647e-06
6.24585e-06
6.25753e-06
6.26758e-06
6.29494e-06
6.29661e-06
6.29383e-06
6.62536e-06
5.51005e-06
7.51343e-06
1.11002e-05
1.51505e-10
0
0.0018054
0.0396824
0.165393
0.423956
0.571812
0.399605
0.218995
0.132019
0.0996986
6.13818e-06
6.13839e-06
6.13728e-06
6.13578e-06
6.13487e-06
6.13423e-06
6.13373e-06
6.13364e-06
6.13485e-06
6.13474e-06
6.13466e-06
6.1374e-06
6.14166e-06
6.1453e-06
6.14736e-06
6.14812e-06
6.14845e-06
6.14915e-06
6.15081e-06
6.15361e-06
6.15748e-06
6.16212e-06
6.16729e-06
6.17297e-06
6.17932e-06
6.18641e-06
6.19418e-06
6.20265e-06
6.21202e-06
6.22264e-06
6.23484e-06
6.24888e-06
6.26582e-06
6.28646e-06
6.31116e-06
6.34e-06
6.37556e-06
6.4095e-06
6.46126e-06
6.13571e-06
6.13811e-06
6.14395e-06
6.15181e-06
6.15787e-06
6.16287e-06
6.16853e-06
6.1744e-06
6.1798e-06
6.18487e-06
6.18956e-06
6.19402e-06
6.20035e-06
6.20586e-06
6.20959e-06
6.21303e-06
6.21765e-06
6.22447e-06
6.23279e-06
6.24339e-06
6.25332e-06
6.27677e-06
6.28949e-06
6.26075e-06
6.61024e-06
5.61224e-06
6.84612e-06
1.21813e-05
1.96061e-10
0
0.00164273
0.0347054
0.165122
0.404984
0.525754
0.36819
0.207457
0.127218
0.0970416
6.13457e-06
6.13455e-06
6.13348e-06
6.13218e-06
6.13138e-06
6.13076e-06
6.13032e-06
6.13028e-06
6.13123e-06
6.13226e-06
6.13148e-06
6.13261e-06
6.13672e-06
6.14115e-06
6.14409e-06
6.14543e-06
6.14598e-06
6.14664e-06
6.14809e-06
6.15055e-06
6.15398e-06
6.15817e-06
6.16295e-06
6.16831e-06
6.17438e-06
6.18114e-06
6.18844e-06
6.19627e-06
6.20484e-06
6.21454e-06
6.22568e-06
6.23845e-06
6.25391e-06
6.27293e-06
6.29578e-06
6.32246e-06
6.35521e-06
6.38606e-06
6.43513e-06
6.13216e-06
6.13451e-06
6.14014e-06
6.14761e-06
6.15335e-06
6.15806e-06
6.16329e-06
6.16858e-06
6.17336e-06
6.17781e-06
6.18209e-06
6.18601e-06
6.19081e-06
6.19657e-06
6.20071e-06
6.20426e-06
6.20822e-06
6.21383e-06
6.22101e-06
6.23014e-06
6.24028e-06
6.25838e-06
6.28244e-06
6.23617e-06
6.56456e-06
5.79294e-06
6.24663e-06
1.27512e-05
5.79329e-09
0
0.00146349
0.0297349
0.151588
0.352751
0.443637
0.316016
0.184161
0.115703
0.0897723
6.13101e-06
6.13083e-06
6.12985e-06
6.12872e-06
6.12802e-06
6.12744e-06
6.12703e-06
6.12707e-06
6.1278e-06
6.12927e-06
6.12895e-06
6.12888e-06
6.13205e-06
6.13675e-06
6.14046e-06
6.14243e-06
6.14334e-06
6.14412e-06
6.1454e-06
6.14744e-06
6.15032e-06
6.15394e-06
6.15822e-06
6.1632e-06
6.16895e-06
6.17535e-06
6.18219e-06
6.18943e-06
6.19728e-06
6.20614e-06
6.21626e-06
6.2278e-06
6.24183e-06
6.25921e-06
6.28014e-06
6.30455e-06
6.33439e-06
6.36228e-06
6.40849e-06
6.12865e-06
6.13096e-06
6.13634e-06
6.14345e-06
6.14888e-06
6.1533e-06
6.15809e-06
6.16283e-06
6.16707e-06
6.17099e-06
6.17484e-06
6.1785e-06
6.18209e-06
6.18748e-06
6.19243e-06
6.196e-06
6.19948e-06
6.20417e-06
6.21042e-06
6.21817e-06
6.22832e-06
6.2411e-06
6.27297e-06
6.22087e-06
6.496e-06
6.02525e-06
5.6942e-06
1.28261e-05
4.26195e-07
5.43189e-12
0.00117542
0.0229825
0.126979
0.280687
0.344329
0.251617
0.152141
0.0983575
0.0780583
6.12751e-06
6.12723e-06
6.12638e-06
6.12542e-06
6.1248e-06
6.12426e-06
6.12387e-06
6.12396e-06
6.12465e-06
6.12598e-06
6.12645e-06
6.1259e-06
6.12793e-06
6.1324e-06
6.13646e-06
6.13897e-06
6.14038e-06
6.1414e-06
6.14256e-06
6.14419e-06
6.14654e-06
6.14964e-06
6.15347e-06
6.15811e-06
6.16359e-06
6.16971e-06
6.17622e-06
6.18305e-06
6.19037e-06
6.19856e-06
6.20787e-06
6.21843e-06
6.23124e-06
6.24707e-06
6.26607e-06
6.28816e-06
6.31499e-06
6.3398e-06
6.38216e-06
6.12523e-06
6.12751e-06
6.13263e-06
6.13935e-06
6.14445e-06
6.14854e-06
6.15292e-06
6.15716e-06
6.16092e-06
6.16443e-06
6.16789e-06
6.17133e-06
6.1746e-06
6.1788e-06
6.18401e-06
6.18802e-06
6.19171e-06
6.19591e-06
6.2013e-06
6.20778e-06
6.21712e-06
6.22658e-06
6.2587e-06
6.22084e-06
6.39648e-06
6.26393e-06
5.3399e-06
1.26293e-05
1.73358e-06
2.65508e-11
0.000777754
0.0146492
0.0949834
0.203811
0.244762
0.184526
0.116354
0.0777751
0.0633908
6.12411e-06
6.12379e-06
6.12308e-06
6.12226e-06
6.12172e-06
6.1212e-06
6.12085e-06
6.12096e-06
6.12165e-06
6.12279e-06
6.12371e-06
6.12322e-06
6.12435e-06
6.12811e-06
6.13221e-06
6.13532e-06
6.13734e-06
6.13865e-06
6.13973e-06
6.14105e-06
6.14296e-06
6.14562e-06
6.14907e-06
6.15341e-06
6.15864e-06
6.16454e-06
6.17079e-06
6.17729e-06
6.18422e-06
6.19191e-06
6.20059e-06
6.2104e-06
6.22222e-06
6.2367e-06
6.25398e-06
6.274e-06
6.29807e-06
6.32008e-06
6.35799e-06
6.12194e-06
6.12421e-06
6.12907e-06
6.13534e-06
6.14004e-06
6.14379e-06
6.14778e-06
6.15161e-06
6.15498e-06
6.15817e-06
6.16133e-06
6.16454e-06
6.16773e-06
6.17096e-06
6.17587e-06
6.18066e-06
6.18445e-06
6.18827e-06
6.19296e-06
6.19851e-06
6.20651e-06
6.21507e-06
6.24063e-06
6.23054e-06
6.29068e-06
6.45311e-06
5.23243e-06
1.03517e-05
5.22663e-06
1.00105e-10
0.000365346
0.00667178
0.0618882
0.134028
0.159376
0.124708
0.0822017
0.0569329
0.0477394
6.12082e-06
6.1205e-06
6.11993e-06
6.11924e-06
6.11877e-06
6.11828e-06
6.11794e-06
6.11807e-06
6.11876e-06
6.11974e-06
6.12091e-06
6.12081e-06
6.12103e-06
6.12379e-06
6.12787e-06
6.13158e-06
6.13423e-06
6.13592e-06
6.13708e-06
6.13823e-06
6.13983e-06
6.14212e-06
6.14521e-06
6.14923e-06
6.15417e-06
6.15978e-06
6.1657e-06
6.17184e-06
6.17835e-06
6.18557e-06
6.1937e-06
6.2029e-06
6.2139e-06
6.22728e-06
6.24317e-06
6.26154e-06
6.28334e-06
6.30313e-06
6.33701e-06
6.11879e-06
6.1211e-06
6.12568e-06
6.13143e-06
6.13568e-06
6.13908e-06
6.14274e-06
6.14624e-06
6.14933e-06
6.15229e-06
6.15525e-06
6.15823e-06
6.1613e-06
6.16433e-06
6.16826e-06
6.1732e-06
6.17731e-06
6.18129e-06
6.18575e-06
6.19061e-06
6.19698e-06
6.20542e-06
6.22239e-06
6.23812e-06
6.21571e-06
6.53327e-06
5.42023e-06
7.92518e-06
1.00516e-05
9.95747e-10
3.23437e-05
0.001196
0.0341317
0.0788476
0.0948451
0.0774273
0.0534246
0.0384617
0.0330757
6.11763e-06
6.11735e-06
6.11692e-06
6.11635e-06
6.11594e-06
6.11547e-06
6.11515e-06
6.11528e-06
6.11597e-06
6.11686e-06
6.11789e-06
6.11861e-06
6.11836e-06
6.11975e-06
6.12346e-06
6.12759e-06
6.13089e-06
6.13309e-06
6.13449e-06
6.13564e-06
6.13706e-06
6.13906e-06
6.14178e-06
6.14539e-06
6.14993e-06
6.15511e-06
6.1606e-06
6.16627e-06
6.1723e-06
6.17899e-06
6.18654e-06
6.1951e-06
6.20529e-06
6.21765e-06
6.23233e-06
6.24932e-06
6.26929e-06
6.28736e-06
6.31823e-06
6.11574e-06
6.11817e-06
6.12248e-06
6.12764e-06
6.13138e-06
6.13446e-06
6.13786e-06
6.14113e-06
6.14404e-06
6.14683e-06
6.14962e-06
6.15244e-06
6.15534e-06
6.15829e-06
6.16143e-06
6.1661e-06
6.17075e-06
6.17471e-06
6.17881e-06
6.18302e-06
6.18813e-06
6.1962e-06
6.20761e-06
6.23449e-06
6.19135e-06
6.46178e-06
5.81638e-06
6.20589e-06
1.23319e-05
7.0286e-09
1.20591e-13
0.00108485
0.0152652
0.040777
0.0510003
0.0435837
0.0316227
0.0237236
0.0208616
6.11455e-06
6.11435e-06
6.11403e-06
6.11357e-06
6.11321e-06
6.11276e-06
6.11246e-06
6.11259e-06
6.11326e-06
6.11416e-06
6.11494e-06
6.11599e-06
6.11617e-06
6.11668e-06
6.11941e-06
6.12347e-06
6.1273e-06
6.13002e-06
6.13174e-06
6.13302e-06
6.13437e-06
6.13609e-06
6.13841e-06
6.14157e-06
6.14566e-06
6.1504e-06
6.15543e-06
6.16064e-06
6.16619e-06
6.17237e-06
6.17938e-06
6.18732e-06
6.19672e-06
6.2081e-06
6.22161e-06
6.23725e-06
6.25553e-06
6.27198e-06
6.30035e-06
6.11278e-06
6.11536e-06
6.11939e-06
6.12393e-06
6.12718e-06
6.12998e-06
6.13319e-06
6.13632e-06
6.13909e-06
6.14175e-06
6.14442e-06
6.14708e-06
6.14982e-06
6.15265e-06
6.15559e-06
6.15968e-06
6.16421e-06
6.16809e-06
6.17206e-06
6.17606e-06
6.1806e-06
6.18789e-06
6.19732e-06
6.2213e-06
6.2011e-06
6.32038e-06
6.24318e-06
5.36326e-06
1.18871e-05
1.81204e-06
3.80601e-11
0.000297433
0.00521547
0.0180171
0.0243514
0.0215076
0.0165701
0.0130306
0.0118679
6.11158e-06
6.11147e-06
6.11124e-06
6.11088e-06
6.11058e-06
6.11016e-06
6.10987e-06
6.11001e-06
6.11066e-06
6.11155e-06
6.11225e-06
6.11316e-06
6.11394e-06
6.11416e-06
6.11591e-06
6.11967e-06
6.12365e-06
6.12667e-06
6.12872e-06
6.13019e-06
6.1315e-06
6.13298e-06
6.13495e-06
6.13776e-06
6.14151e-06
6.14591e-06
6.15057e-06
6.15541e-06
6.16058e-06
6.16635e-06
6.17291e-06
6.18033e-06
6.18903e-06
6.19951e-06
6.21194e-06
6.22628e-06
6.24285e-06
6.25759e-06
6.28331e-06
6.1099e-06
6.1126e-06
6.11634e-06
6.12029e-06
6.1231e-06
6.12568e-06
6.12877e-06
6.13178e-06
6.13444e-06
6.13699e-06
6.13953e-06
6.14206e-06
6.14465e-06
6.14736e-06
6.1501e-06
6.15365e-06
6.15808e-06
6.16198e-06
6.16591e-06
6.16971e-06
6.17383e-06
6.18019e-06
6.18919e-06
6.20631e-06
6.2126e-06
6.22251e-06
6.43281e-06
5.39004e-06
8.72459e-06
7.16214e-06
6.7357e-10
2.91736e-05
0.00109828
0.00654967
0.0100801
0.00947948
0.00764444
0.00614161
0.00597098
6.10871e-06
6.1087e-06
6.10853e-06
6.10827e-06
6.10804e-06
6.10765e-06
6.10739e-06
6.10754e-06
6.10817e-06
6.10902e-06
6.10971e-06
6.11046e-06
6.11148e-06
6.11183e-06
6.113e-06
6.1161e-06
6.11989e-06
6.1232e-06
6.12563e-06
6.1273e-06
6.12859e-06
6.12992e-06
6.13171e-06
6.13431e-06
6.13781e-06
6.14191e-06
6.14623e-06
6.15069e-06
6.15549e-06
6.16088e-06
6.16705e-06
6.17401e-06
6.1821e-06
6.19187e-06
6.20342e-06
6.21668e-06
6.23175e-06
6.24493e-06
6.26795e-06
6.1071e-06
6.10983e-06
6.1133e-06
6.11673e-06
6.11919e-06
6.12161e-06
6.12459e-06
6.1275e-06
6.13004e-06
6.13247e-06
6.13489e-06
6.13729e-06
6.13974e-06
6.14232e-06
6.14501e-06
6.14787e-06
6.15206e-06
6.1564e-06
6.16033e-06
6.16384e-06
6.16734e-06
6.17262e-06
6.18106e-06
6.19377e-06
6.2107e-06
6.19415e-06
6.37856e-06
5.85221e-06
6.31499e-06
1.15621e-05
3.31345e-09
6.78448e-14
0.000314617
0.00180285
0.00346929
0.00358587
0.00303908
0.0025724
0.00270229
6.10598e-06
6.10603e-06
6.1059e-06
6.10575e-06
6.10559e-06
6.10525e-06
6.10501e-06
6.10516e-06
6.10578e-06
6.1066e-06
6.10727e-06
6.1079e-06
6.10905e-06
6.10964e-06
6.11027e-06
6.11264e-06
6.11626e-06
6.11986e-06
6.12261e-06
6.12448e-06
6.12586e-06
6.1272e-06
6.1289e-06
6.13127e-06
6.13445e-06
6.13813e-06
6.14199e-06
6.14599e-06
6.15033e-06
6.15528e-06
6.16099e-06
6.16746e-06
6.17494e-06
6.18402e-06
6.19482e-06
6.20718e-06
6.22105e-06
6.23301e-06
6.2539e-06
6.1044e-06
6.10704e-06
6.11025e-06
6.11329e-06
6.1155e-06
6.11779e-06
6.12066e-06
6.12343e-06
6.12585e-06
6.12815e-06
6.13046e-06
6.13275e-06
6.13509e-06
6.13754e-06
6.14014e-06
6.14286e-06
6.14657e-06
6.15077e-06
6.15456e-06
6.15799e-06
6.16126e-06
6.16581e-06
6.17334e-06
6.18404e-06
6.20043e-06
6.19617e-06
6.27108e-06
6.21209e-06
5.59467e-06
1.01219e-05
2.60073e-06
6.64626e-11
3.94221e-07
0.000318541
0.000934505
0.00112555
0.00104822
0.000959537
0.00111024
6.10341e-06
6.10349e-06
6.10338e-06
6.10332e-06
6.10324e-06
6.10295e-06
6.10274e-06
6.1029e-06
6.10349e-06
6.10429e-06
6.10494e-06
6.10548e-06
6.10654e-06
6.10756e-06
6.10795e-06
6.10947e-06
6.11285e-06
6.11659e-06
6.11954e-06
6.12163e-06
6.12321e-06
6.1246e-06
6.12616e-06
6.12824e-06
6.13101e-06
6.13422e-06
6.1376e-06
6.14113e-06
6.14502e-06
6.14954e-06
6.15483e-06
6.16083e-06
6.1677e-06
6.17613e-06
6.18619e-06
6.19768e-06
6.21034e-06
6.22108e-06
6.24021e-06
6.10184e-06
6.10425e-06
6.10724e-06
6.11002e-06
6.11205e-06
6.11423e-06
6.11696e-06
6.11958e-06
6.12186e-06
6.12404e-06
6.12624e-06
6.12843e-06
6.13067e-06
6.13301e-06
6.13552e-06
6.13811e-06
6.14139e-06
6.14544e-06
6.14917e-06
6.15263e-06
6.15574e-06
6.15972e-06
6.16631e-06
6.17594e-06
6.18939e-06
6.19719e-06
6.2136e-06
6.29345e-06
5.79371e-06
7.33056e-06
8.46103e-06
1.28731e-08
3.5258e-14
2.28058e-09
0.000167022
0.000277365
0.0003018
0.000311674
0.000413583
6.10102e-06
6.1011e-06
6.10098e-06
6.10101e-06
6.101e-06
6.10076e-06
6.10059e-06
6.10075e-06
6.10133e-06
6.10208e-06
6.1027e-06
6.10322e-06
6.1041e-06
6.10528e-06
6.1058e-06
6.1069e-06
6.10974e-06
6.11321e-06
6.1163e-06
6.11869e-06
6.1205e-06
6.12195e-06
6.12337e-06
6.1252e-06
6.12762e-06
6.13045e-06
6.13342e-06
6.13655e-06
6.14007e-06
6.14424e-06
6.14919e-06
6.15481e-06
6.16122e-06
6.16911e-06
6.17855e-06
6.18921e-06
6.20067e-06
6.21009e-06
6.22715e-06
6.09946e-06
6.10155e-06
6.10435e-06
6.10696e-06
6.10886e-06
6.1109e-06
6.11347e-06
6.11593e-06
6.11807e-06
6.12014e-06
6.12223e-06
6.12433e-06
6.12648e-06
6.12872e-06
6.13114e-06
6.1337e-06
6.13639e-06
6.14014e-06
6.14422e-06
6.14787e-06
6.15086e-06
6.15409e-06
6.15953e-06
6.16814e-06
6.1796e-06
6.19134e-06
6.19606e-06
6.2524e-06
6.08799e-06
6.18301e-06
8.50404e-06
1.80043e-06
5.48313e-09
1.40949e-09
4.12053e-07
1.9217e-05
4.57369e-05
6.90458e-05
0.000132669
6.09885e-06
6.0989e-06
6.09874e-06
6.09884e-06
6.09889e-06
6.09871e-06
6.09856e-06
6.09873e-06
6.09927e-06
6.09999e-06
6.10058e-06
6.10107e-06
6.10181e-06
6.10306e-06
6.10379e-06
6.10447e-06
6.1066e-06
6.10978e-06
6.11304e-06
6.11575e-06
6.11783e-06
6.1194e-06
6.12078e-06
6.12244e-06
6.12462e-06
6.12713e-06
6.12976e-06
6.13255e-06
6.13573e-06
6.13957e-06
6.14421e-06
6.14951e-06
6.15557e-06
6.16302e-06
6.17195e-06
6.18198e-06
6.19252e-06
6.20089e-06
6.21583e-06
6.09729e-06
6.09903e-06
6.10169e-06
6.10415e-06
6.1059e-06
6.10778e-06
6.11018e-06
6.11247e-06
6.11447e-06
6.11644e-06
6.11843e-06
6.12044e-06
6.12251e-06
6.12466e-06
6.12697e-06
6.12944e-06
6.13203e-06
6.13538e-06
6.13929e-06
6.14289e-06
6.14585e-06
6.1487e-06
6.15328e-06
6.16084e-06
6.17104e-06
6.18266e-06
6.18965e-06
6.21205e-06
6.20095e-06
6.05392e-06
6.97237e-06
6.18101e-06
1.22612e-06
1.0224e-07
1.11955e-07
6.52346e-07
2.31282e-06
5.71753e-06
2.23648e-05
6.0969e-06
6.09692e-06
6.0967e-06
6.09684e-06
6.09694e-06
6.0968e-06
6.09667e-06
6.09683e-06
6.09734e-06
6.09802e-06
6.09856e-06
6.09902e-06
6.09966e-06
6.10075e-06
6.10193e-06
6.10245e-06
6.10364e-06
6.10639e-06
6.10971e-06
6.11271e-06
6.11509e-06
6.11686e-06
6.1183e-06
6.11988e-06
6.12191e-06
6.1242e-06
6.12654e-06
6.12901e-06
6.13185e-06
6.13534e-06
6.13963e-06
6.1446e-06
6.1503e-06
6.15732e-06
6.16577e-06
6.17532e-06
6.18521e-06
6.19297e-06
6.20632e-06
6.09537e-06
6.09681e-06
6.09927e-06
6.10156e-06
6.10315e-06
6.10487e-06
6.10708e-06
6.10921e-06
6.11108e-06
6.11294e-06
6.11484e-06
6.11676e-06
6.11874e-06
6.12081e-06
6.12301e-06
6.1254e-06
6.12787e-06
6.13088e-06
6.13459e-06
6.13809e-06
6.141e-06
6.14365e-06
6.14772e-06
6.15447e-06
6.16371e-06
6.1743e-06
6.18323e-06
6.1927e-06
6.2082e-06
6.13914e-06
6.31426e-06
6.72576e-06
5.2223e-06
2.91974e-06
1.84583e-06
1.74183e-06
2.09362e-06
2.73595e-06
5.17017e-06
6.09515e-06
6.09516e-06
6.09488e-06
6.09503e-06
6.09517e-06
6.09504e-06
6.09492e-06
6.09506e-06
6.09554e-06
6.09617e-06
6.09666e-06
6.09708e-06
6.09768e-06
6.09856e-06
6.09981e-06
6.10064e-06
6.10142e-06
6.1034e-06
6.10637e-06
6.10952e-06
6.11219e-06
6.11418e-06
6.11572e-06
6.11735e-06
6.11933e-06
6.12147e-06
6.12356e-06
6.1257e-06
6.12817e-06
6.13127e-06
6.13516e-06
6.13975e-06
6.14507e-06
6.15159e-06
6.15952e-06
6.1686e-06
6.17796e-06
6.18537e-06
6.19779e-06
6.09368e-06
6.09491e-06
6.0971e-06
6.09917e-06
6.10061e-06
6.10217e-06
6.10421e-06
6.10618e-06
6.10792e-06
6.10966e-06
6.11146e-06
6.11328e-06
6.11518e-06
6.11716e-06
6.11927e-06
6.12155e-06
6.124e-06
6.12651e-06
6.12986e-06
6.13358e-06
6.1367e-06
6.13933e-06
6.14285e-06
6.14869e-06
6.15698e-06
6.16664e-06
6.17584e-06
6.18299e-06
6.19397e-06
6.18258e-06
6.1847e-06
6.38224e-06
6.30264e-06
5.53622e-06
4.64098e-06
4.10709e-06
3.90446e-06
3.87418e-06
4.25154e-06
6.09359e-06
6.09361e-06
6.09328e-06
6.09343e-06
6.09357e-06
6.09346e-06
6.09332e-06
6.09343e-06
6.09386e-06
6.09444e-06
6.09489e-06
6.09525e-06
6.09581e-06
6.09658e-06
6.09766e-06
6.09877e-06
6.09947e-06
6.10079e-06
6.10341e-06
6.10654e-06
6.10928e-06
6.11137e-06
6.11305e-06
6.11476e-06
6.11669e-06
6.11866e-06
6.12048e-06
6.12229e-06
6.1244e-06
6.12713e-06
6.13064e-06
6.13486e-06
6.13977e-06
6.14578e-06
6.15316e-06
6.1617e-06
6.17051e-06
6.17753e-06
6.1893e-06
6.09218e-06
6.09322e-06
6.09518e-06
6.09703e-06
6.09832e-06
6.09973e-06
6.1016e-06
6.1034e-06
6.10501e-06
6.10663e-06
6.10831e-06
6.11004e-06
6.11183e-06
6.11373e-06
6.11574e-06
6.1179e-06
6.12026e-06
6.12267e-06
6.12569e-06
6.12923e-06
6.13231e-06
6.13494e-06
6.13815e-06
6.14327e-06
6.15066e-06
6.15949e-06