/*--------------------------------*- C++ -*----------------------------------*\
| =========                 |                                                 |
| \\      /  F ield         | OpenFOAM: The Open Source CFD Toolbox           |
|  \\    /   O peration     | Version:  2306                                  |
|   \\  /    A nd           | Website:  www.openfoam.com                      |
|    \\/     M anipulation  |                                                 |
\*---------------------------------------------------------------------------*/
FoamFile
{
    version     2.0;
    format      ascii;
    arch        "LSB;label=32;scalar=64";
    class       volVectorField;
    location    "25";
    object      U;
}
// * * * * * * * * * * * * * * * * * * * * * * * * * * * * * * * * * * * * * //

dimensions      [0 1 -1 0 0 0 0];

internalField   nonuniform List<vector> 
10720
(
(1.63971 15.2748 -2.03206e-17)
(2.65992 17.5391 5.96319e-17)
(4.08252 19.8167 -1.10595e-16)
(5.77711 21.8205 2.18393e-17)
(7.73099 23.5814 2.84608e-18)
(9.94579 25.0255 6.27471e-17)
(12.3279 26.0377 -1.50787e-16)
(14.7803 26.5975 6.25744e-16)
(17.1946 26.716 -4.67681e-16)
(19.4581 26.4125 -3.44609e-16)
(21.5117 25.7586 1.94042e-16)
(23.3332 24.8427 1.09201e-15)
(24.916 23.7225 4.37329e-16)
(26.2838 22.4767 4.05912e-16)
(27.3849 21.0816 1.00765e-15)
(28.1844 19.5395 9.0011e-16)
(28.6216 17.8259 -1.84625e-15)
(28.6141 15.9364 -6.6477e-15)
(28.0127 13.8477 4.93612e-15)
(26.6386 11.5834 -2.31744e-16)
(24.189 9.16105 -9.08072e-16)
(20.3241 6.64633 -1.5488e-15)
(14.6485 4.1277 4.99408e-15)
(7.37201 1.76303 -1.4382e-15)
(-0.36781 -0.0846565 1.35819e-15)
(-3.52364 -0.245877 -4.03538e-15)
(-5.95252 0.0843857 2.07912e-16)
(-8.11992 0.239241 -1.31988e-15)
(-9.68158 0.176657 -5.03557e-15)
(-8.57243 -0.172968 -6.1707e-15)
(-1.49676 -1.23166 1.84452e-15)
(12.7205 -3.84808 -1.93032e-16)
(33.4675 -5.4832 2.15968e-16)
(26.7913 -3.15115 5.38005e-14)
(-16.564 3.77493 -1.83351e-14)
(-22.9335 4.33202 -2.00848e-15)
(-19.2291 3.57775 3.45388e-15)
(-14.8164 2.49129 3.58568e-14)
(-7.18188 1.55353 -2.42485e-14)
(0.998045 12.9296 6.09099e-17)
(0.724142 10.3386 7.89964e-18)
(0.924316 7.5067 -3.0661e-16)
(1.57849 4.59292 4.66425e-16)
(2.56668 1.93834 -1.72831e-15)
(3.69399 -0.651565 1.47653e-15)
(5.29506 -3.22638 1.33938e-15)
(7.31917 -5.4178 1.47075e-15)
(9.5568 -7.08014 -3.9844e-16)
(11.8345 -8.18226 1.52617e-16)
(13.9634 -8.76898 5.47551e-16)
(15.8269 -8.94217 7.90271e-16)
(17.392 -8.82324 2.44692e-16)
(18.6722 -8.52326 -3.79048e-16)
(19.7192 -8.14141 -2.87226e-16)
(20.6049 -7.73847 1.33632e-16)
(21.3917 -7.3504 2.73434e-17)
(22.1307 -6.98765 4.57105e-17)
(22.8578 -6.64809 4.67193e-17)
(23.5839 -6.31058 2.37752e-17)
(24.3056 -5.95753 2.48489e-16)
(25.009 -5.56445 -2.24458e-16)
(25.6695 -5.10918 -9.39231e-16)
(26.2346 -4.56533 4.7633e-16)
(26.6263 -3.94257 8.78827e-16)
(26.8348 -3.31146 1.18265e-15)
(26.9228 -2.64993 9.50056e-18)
(26.9331 -1.88198 -1.01094e-16)
(26.8883 -1.03625 7.61578e-18)
(26.7907 -0.192562 -1.11283e-16)
(26.5926 0.581235 1.11482e-15)
(26.3237 1.25811 5.89725e-16)
(25.9976 1.83051 1.71733e-15)
(25.6347 2.30301 7.70218e-15)
(25.2189 2.6814 1.00362e-16)
(24.7688 3.00038 -1.26833e-15)
(24.2354 3.3076 -1.77043e-15)
(23.5469 3.50378 -1.72517e-15)
(21.7215 3.81393 -2.87377e-16)
(6.04528 13.4704 -3.27104e-18)
(7.15294 15.1721 1.14778e-16)
(8.59417 16.8365 -6.79864e-17)
(10.3105 18.3649 -4.13644e-17)
(12.2599 19.6897 4.52762e-17)
(14.4775 20.7471 -6.76236e-17)
(16.8937 21.4628 -2.07236e-16)
(19.4005 21.8068 4.4931e-17)
(21.9138 21.7598 -2.29667e-16)
(24.3235 21.35 -4.35218e-17)
(26.5549 20.6327 7.72988e-16)
(28.5759 19.6706 -1.10126e-15)
(30.3813 18.528 -6.47803e-16)
(31.9768 17.2418 -4.04038e-18)
(33.4161 15.8962 4.39276e-16)
(34.7314 14.5159 -9.51155e-16)
(35.892 13.1183 -5.09971e-16)
(36.8561 11.723 3.09997e-15)
(37.5718 10.3542 -5.21334e-16)
(37.9434 9.06798 -1.05637e-15)
(37.8008 7.91763 -1.42849e-15)
(36.8197 6.9242 1.15219e-15)
(34.357 5.9368 -1.53534e-15)
(29.3282 4.66261 -1.31323e-16)
(21.7064 3.05129 7.60464e-16)
(13.9701 1.56515 9.16614e-16)
(4.67248 0.633381 1.0031e-16)
(-0.676488 0.292516 7.99863e-16)
(-1.75189 -0.171958 1.69736e-15)
(-1.148 -0.774201 7.65674e-16)
(7.11614 -2.85607 -1.40282e-16)
(20.8502 -5.70877 2.50038e-17)
(35.6732 -4.87807 3.63712e-15)
(11.1573 1.59219 -1.26427e-14)
(-25.4485 5.83791 5.17342e-15)
(-20.6957 3.73681 -3.00049e-14)
(-16.0859 2.72009 9.99779e-15)
(-11.2248 1.46242 -1.85448e-14)
(-5.56769 0.0303327 -8.88547e-15)
(5.23029 11.6954 1.08563e-16)
(4.66704 9.7497 -3.3401e-16)
(4.45506 7.50938 -1.32425e-15)
(4.61975 5.14023 1.47804e-15)
(5.20916 2.80932 1.69622e-15)
(6.07739 0.494957 5.19311e-18)
(7.3521 -1.67708 -1.97016e-15)
(8.99933 -3.49756 -1.81935e-15)
(10.8795 -4.8634 1.1485e-15)
(12.8599 -5.76722 -6.22026e-16)
(14.8065 -6.23264 8.6685e-17)
(16.5985 -6.34753 -1.78415e-16)
(18.1763 -6.22115 4.4486e-17)
(19.5258 -5.9533 3.05919e-17)
(20.6668 -5.64255 1.60322e-16)
(21.6515 -5.33678 -1.78987e-16)
(22.5317 -5.06262 1.5654e-16)
(23.3551 -4.81522 -1.50805e-17)
(24.1564 -4.57852 1.54656e-17)
(24.9543 -4.31338 4.49117e-17)
(25.7484 -3.99057 2.0417e-16)
(26.5298 -3.57359 4.36204e-16)
(27.2768 -3.03311 7.78863e-16)
(27.9474 -2.33076 -5.01923e-16)
(28.4783 -1.48995 5.82969e-17)
(28.8412 -0.598704 -5.74437e-16)
(29.0348 0.265102 -5.35263e-16)
(29.0581 1.02316 -1.73254e-17)
(28.9396 1.6328 6.30001e-18)
(28.6971 2.10326 -1.78159e-16)
(28.3798 2.44711 -9.50208e-16)
(28.032 2.7067 -4.13841e-16)
(27.6812 2.91016 -2.70153e-15)
(27.3233 3.07941 -3.54886e-15)
(26.9464 3.2254 7.46172e-16)
(26.5699 3.38387 5.94343e-16)
(26.0901 3.60222 1.33463e-15)
(25.6673 3.82881 1.71657e-15)
(23.9725 3.97746 3.37679e-16)
(8.29712 12.4572 8.28473e-18)
(9.07321 13.9603 -1.16263e-16)
(10.0828 15.4859 -2.25316e-18)
(11.2948 16.9481 3.90651e-17)
(12.7143 18.2596 -7.26587e-17)
(14.3579 19.398 1.75771e-17)
(16.1734 20.3112 1.80867e-16)
(18.1003 20.9526 1.478e-17)
(20.0758 21.3053 3.07134e-16)
(22.0216 21.3666 -6.31859e-16)
(23.8675 21.1571 -6.58424e-17)
(25.5721 20.7159 -2.18895e-16)
(27.1161 20.0857 9.99513e-16)
(28.5009 19.2947 -2.43618e-16)
(29.7306 18.3529 -3.15831e-16)
(30.7952 17.2667 -4.81095e-16)
(31.7263 15.9954 1.57028e-15)
(32.5285 14.5386 -1.28993e-15)
(33.2084 12.9241 -7.84784e-16)
(33.7737 11.239 2.02858e-15)
(34.291 9.60003 -1.58516e-15)
(34.8484 8.18422 -2.86058e-16)
(35.4023 7.08111 -3.30219e-16)
(35.2054 6.11935 4.05281e-16)
(32.9116 4.97003 -2.0424e-16)
(27.6285 3.55355 3.56643e-16)
(18.4334 2.03625 -8.19208e-17)
(10.0999 0.645182 -7.59496e-17)
(6.4741 -0.631463 1.49771e-15)
(7.44856 -1.90105 1.12518e-16)
(14.4503 -4.3282 -4.84182e-16)
(25.0221 -6.94892 -1.90364e-16)
(31.4084 -2.88921 -7.8752e-17)
(-3.88684 5.8501 -9.70721e-17)
(-23.3825 5.98394 -1.23832e-14)
(-18.6858 2.72032 8.76675e-14)
(-13.5017 1.45699 -1.9358e-14)
(-8.60357 0.285025 -1.39767e-14)
(-4.58462 -0.878455 1.49877e-14)
(7.72883 10.9119 2.80342e-18)
(7.30764 9.27036 -2.09212e-16)
(7.12181 7.39181 7.61333e-16)
(7.16923 5.40304 5.14152e-16)
(7.52862 3.41172 -1.27673e-15)
(8.16414 1.41283 -6.89541e-16)
(9.13739 -0.503006 8.23365e-16)
(10.3962 -2.20008 9.15039e-16)
(11.8501 -3.59162 7.66076e-16)
(13.4163 -4.65772 -6.54137e-16)
(15.0021 -5.39847 -4.71574e-16)
(16.5153 -5.8478 1.12922e-16)
(17.8977 -6.06799 3.91948e-16)
(19.1227 -6.13012 4.66939e-16)
(20.1918 -6.10186 -8.05526e-17)
(21.1333 -6.02645 -9.07253e-18)
(21.9853 -5.92714 1.72614e-16)
(22.7859 -5.8027 -5.22608e-18)
(23.5661 -5.63737 -1.69069e-17)
(24.3444 -5.40092 -1.09843e-16)
(25.1229 -5.06909 -5.10524e-16)
(25.8923 -4.61827 -8.9349e-16)
(26.6309 -4.03312 -6.69925e-16)
(27.2998 -3.30722 -1.4587e-16)
(27.8441 -2.48149 2.51569e-16)
(28.2376 -1.63872 -1.09304e-15)
(28.4963 -0.823622 3.39238e-16)
(28.6421 -0.0633646 2.89236e-16)
(28.7031 0.61743 -3.66142e-17)
(28.6847 1.22074 2.13943e-16)
(28.587 1.7301 3.28249e-16)
(28.4346 2.14722 8.05469e-16)
(28.2429 2.47818 9.9416e-16)
(28.014 2.73773 1.51797e-15)
(27.7326 2.94166 2.64136e-15)
(27.4181 3.12516 -4.55492e-16)
(26.9925 3.36301 1.80897e-15)
(26.5228 3.59038 -3.26561e-15)
(25.1224 3.84691 -1.51459e-15)
(10.3124 11.5601 5.16903e-17)
(11 12.839 -6.22053e-17)
(11.8942 14.1465 1.45367e-17)
(12.9765 15.4044 1.60808e-16)
(14.2519 16.5385 7.08681e-17)
(15.7306 17.5351 -1.38549e-17)
(17.3657 18.342 -1.05948e-16)
(19.1147 18.9165 1.7231e-17)
(20.9392 19.239 3.372e-16)
(22.7805 19.2935 -2.12618e-16)
(24.5783 19.084 -4.56156e-16)
(26.2867 18.6323 -7.55092e-16)
(27.8746 17.9667 8.75802e-16)
(29.3285 17.1105 1.57379e-15)
(30.6398 16.0791 -1.45355e-15)
(31.8021 14.8804 -6.72644e-16)
(32.7889 13.5403 8.11369e-17)
(33.5469 12.115 1.43556e-15)
(34.0327 10.6518 8.53244e-17)
(34.2264 9.20454 -2.11336e-15)
(34.1414 7.84988 2.77265e-15)
(33.8908 6.69642 -1.23655e-15)
(33.7599 5.84832 2.39608e-16)
(34.0499 5.30413 8.5397e-16)
(34.4455 4.89289 -4.34901e-16)
(33.4016 4.34258 3.44039e-16)
(29.0609 3.25952 4.03486e-17)
(22.5379 1.43801 -2.5443e-16)
(17.4824 -0.770052 -2.6144e-16)
(16.9825 -2.70377 -2.17665e-16)
(20.0772 -5.22135 7.76115e-17)
(26.0234 -7.18963 3.79397e-16)
(22.6811 0.229794 -1.16959e-15)
(-11.3039 8.63716 1.44378e-15)
(-20.8017 5.9704 2.39245e-14)
(-17.0018 2.23536 -2.24426e-14)
(-11.4642 0.604887 2.89185e-14)
(-6.69142 -0.513901 2.6414e-14)
(-3.92335 -1.39294 -8.3471e-15)
(9.80095 10.2451 -1.25393e-16)
(9.4182 8.85776 -2.51069e-17)
(9.2214 7.2591 7.87359e-16)
(9.20564 5.55353 -3.08635e-16)
(9.43812 3.82619 1.55402e-15)
(9.90176 2.07031 9.09943e-16)
(10.6442 0.358654 -6.84074e-16)
(11.628 -1.18777 3.92659e-18)
(12.7943 -2.49315 1.91603e-16)
(14.0866 -3.53314 1.18976e-15)
(15.435 -4.29652 9.08466e-17)
(16.7688 -4.79557 3.33387e-16)
(18.0369 -5.07123 -7.3093e-16)
(19.2063 -5.17651 -4.05698e-16)
(20.2641 -5.16453 1.16738e-16)
(21.2196 -5.07747 5.34809e-17)
(22.095 -4.94098 -1.92647e-16)
(22.9167 -4.76271 1.13216e-17)
(23.7094 -4.5368 -4.26376e-18)
(24.4898 -4.24492 -4.52337e-17)
(25.2619 -3.86954 1.68913e-16)
(26.0184 -3.39307 4.80152e-16)
(26.7414 -2.80399 -8.15326e-17)
(27.3988 -2.09558 -2.11854e-16)
(27.9454 -1.29426 -7.83176e-16)
(28.3546 -0.466663 9.02579e-16)
(28.6344 0.338918 1.46387e-16)
(28.8027 1.08683 -1.08164e-16)
(28.8852 1.74271 5.15146e-17)
(28.8894 2.29752 7.55284e-17)
(28.8172 2.7154 1.26965e-16)
(28.6982 3.00094 -3.85695e-16)
(28.5514 3.17572 -1.00447e-15)
(28.38 3.27504 -2.01219e-15)
(28.1665 3.32575 -2.7175e-15)
(27.9208 3.35929 2.45066e-15)
(27.5732 3.4482 -4.92478e-15)
(27.1339 3.55498 1.47876e-15)
(25.9446 3.78622 3.06089e-16)
(11.9448 10.8692 -6.84524e-17)
(12.524 11.9976 1.87328e-17)
(13.2712 13.1675 3.75988e-17)
(14.1709 14.3079 -1.91416e-16)
(15.2318 15.3532 -6.34823e-17)
(16.4691 16.3014 8.92448e-17)
(17.8397 17.1053 6.5095e-17)
(19.3131 17.7269 7.48249e-17)
(20.8678 18.1478 2.39974e-16)
(22.46 18.3477 1.48497e-16)
(24.0439 18.3205 -6.17856e-17)
(25.5779 18.0755 6.05437e-16)
(27.0262 17.6309 -1.33797e-15)
(28.366 17.0052 9.93775e-17)
(29.5827 16.215 1.52352e-15)
(30.6608 15.2745 -7.67406e-16)
(31.5843 14.1965 8.49006e-16)
(32.347 12.9676 -1.83027e-16)
(32.9231 11.5978 5.68744e-17)
(33.2802 10.1322 2.08639e-15)
(33.3889 8.64128 -1.40526e-15)
(33.2468 7.22891 5.52636e-17)
(32.9244 5.99334 -2.8272e-16)
(32.6524 5.02308 -1.12292e-15)
(32.8764 4.43878 3.59842e-16)
(33.5386 4.18373 -1.05958e-15)
(33.2264 3.6185 -3.94051e-17)
(30.7512 1.98831 1.52649e-16)
(27.6716 -0.543114 -1.75029e-16)
(25.0195 -2.73424 2.06657e-15)
(23.4108 -5.2228 2.35843e-16)
(25.234 -6.41191 1.13005e-16)
(14.1831 3.5262 -8.34672e-16)
(-13.9375 10.3366 7.32555e-15)
(-19.1713 6.23859 -2.07292e-14)
(-15.476 1.85901 3.1948e-15)
(-9.70993 -0.0804511 4.12057e-15)
(-5.04683 -1.12594 -1.89793e-15)
(-3.2702 -1.63346 1.11105e-14)
(11.503 9.71717 3.57835e-17)
(11.1609 8.5143 -2.99961e-16)
(10.9581 7.12492 1.10036e-16)
(10.8964 5.63588 7.13489e-18)
(11.0416 4.11675 -2.01232e-15)
(11.3844 2.55587 -1.13168e-15)
(11.9621 1.01596 2.48791e-15)
(12.7432 -0.401297 -1.7045e-15)
(13.6861 -1.63146 -4.35908e-19)
(14.7496 -2.65486 2.06102e-17)
(15.8804 -3.45904 -1.82533e-16)
(17.0254 -4.04547 -2.39557e-16)
(18.1452 -4.4383 -4.44255e-16)
(19.2088 -4.67297 5.02682e-16)
(20.1975 -4.78524 1.96954e-16)
(21.11 -4.80851 -3.07288e-17)
(21.957 -4.76566 6.21956e-17)
(22.7559 -4.66717 -6.88495e-17)
(23.5255 -4.51186 2.38817e-17)
(24.2801 -4.28877 4.1582e-17)
(25.0251 -3.98459 -8.29947e-17)
(25.7556 -3.58567 -1.48849e-16)
(26.4562 -3.08346 6.01202e-17)
(27.0999 -2.47689 6.21856e-16)
(27.6479 -1.78919 2.5802e-16)
(28.073 -1.07632 8.38951e-17)
(28.3768 -0.384299 -3.84912e-16)
(28.5727 0.25516 -9.7977e-18)
(28.6821 0.816294 2.37933e-17)
(28.7096 1.29901 -2.97333e-16)
(28.6569 1.68642 -2.25811e-16)
(28.5528 1.99665 1.06542e-15)
(28.4164 2.24768 2.62002e-15)
(28.254 2.45836 4.69199e-16)
(28.0558 2.64234 -3.17583e-16)
(27.8397 2.81411 5.96434e-16)
(27.5463 3.01566 1.70458e-15)
(27.1763 3.20992 -2.08208e-15)
(26.2333 3.51225 4.49638e-16)
(13.3126 10.2931 4.74214e-17)
(13.8244 11.2969 -1.02659e-16)
(14.4828 12.3457 -2.26463e-18)
(15.2754 13.3706 -1.236e-17)
(16.2107 14.3105 1.34013e-16)
(17.3045 15.1715 3.50614e-17)
(18.5175 15.9097 -2.59117e-18)
(19.8272 16.4911 -9.3864e-17)
(21.2204 16.8993 -2.07115e-17)
(22.6631 17.1142 1.05277e-16)
(24.1198 17.1258 -1.9082e-16)
(25.5553 16.9353 2.4842e-16)
(26.9341 16.5515 9.35463e-16)
(28.2297 15.9867 5.21255e-16)
(29.4227 15.2539 -2.14811e-15)
(30.494 14.3651 1.48565e-15)
(31.4281 13.3289 4.99421e-16)
(32.1958 12.1759 -1.07612e-15)
(32.7641 10.9419 4.76779e-16)
(33.1096 9.66418 1.13729e-16)
(33.2198 8.39178 -4.35502e-16)
(33.1058 7.18691 2.2007e-15)
(32.8024 6.09168 8.35006e-17)
(32.3441 5.11137 1.56657e-15)
(31.9548 4.33981 -2.96109e-16)
(32.188 3.91279 1.05266e-16)
(32.8729 3.44279 3.64705e-17)
(32.8082 2.07234 -1.3836e-17)
(31.7402 -0.284079 -8.8091e-16)
(28.1265 -2.31328 -6.08687e-16)
(24.3336 -4.6105 -2.80983e-18)
(24.1513 -5.057 -6.37659e-16)
(7.70133 6.60729 7.74016e-16)
(-14.436 11.3946 2.9229e-15)
(-17.8398 6.62279 -1.10431e-14)
(-13.8654 1.46053 -2.46941e-14)
(-8.03648 -0.735925 -3.12818e-14)
(-3.50493 -1.67042 -1.78753e-15)
(-2.51677 -1.76254 -3.40545e-15)
(12.9159 9.2719 -8.07571e-17)
(12.6024 8.21517 -4.27605e-17)
(12.3978 6.99043 1.65429e-16)
(12.3074 5.67033 -4.00131e-16)
(12.3941 4.31717 -7.11843e-16)
(12.6507 2.91581 1.03584e-15)
(13.1064 1.52166 -6.89428e-16)
(13.7365 0.222731 -5.37776e-16)
(14.5105 -0.923874 -5.67922e-16)
(15.3983 -1.90171 -5.36065e-16)
(16.3584 -2.69775 8.12946e-16)
(17.3501 -3.30662 -3.48093e-16)
(18.3437 -3.74256 3.7316e-16)
(19.3126 -4.02946 6.84853e-17)
(20.2365 -4.19234 -8.23761e-17)
(21.1084 -4.2578 -2.11274e-16)
(21.931 -4.24727 -1.32069e-16)
(22.7134 -4.17408 5.4042e-17)
(23.4682 -4.04219 8.77086e-19)
(24.2066 -3.84658 3.12905e-17)
(24.9333 -3.57814 7.91513e-17)
(25.6449 -3.22629 1.11899e-16)
(26.3288 -2.78262 -1.77369e-16)
(26.9619 -2.24418 8.3777e-17)
(27.511 -1.62519 4.28069e-16)
(27.95 -0.96919 -7.00661e-16)
(28.2752 -0.315179 -4.07914e-17)
(28.4963 0.309036 -1.19596e-17)
(28.6307 0.881753 -3.19095e-17)
(28.6823 1.39977 3.49132e-16)
(28.6515 1.83727 2.06129e-16)
(28.5631 2.1922 -1.03594e-15)
(28.4339 2.4735 -7.81903e-16)
(28.2716 2.69923 6.49449e-16)
(28.068 2.88084 -6.70574e-16)
(27.8385 3.02592 -2.66628e-15)
(27.534 3.18525 4.61667e-15)
(27.1452 3.30013 2.42197e-15)
(26.294 3.50833 -1.73081e-16)
(14.474 9.80886 -2.4013e-17)
(14.932 10.7112 -3.24497e-18)
(15.5171 11.66 9.89635e-17)
(16.221 12.5888 -1.40111e-17)
(17.0489 13.4434 -1.81298e-16)
(18.0152 14.2352 1.57427e-17)
(19.0842 14.9252 -3.26181e-17)
(20.2389 15.4845 6.97068e-18)
(21.4718 15.9008 8.00491e-17)
(22.7549 16.1559 -1.02031e-16)
(24.0618 16.2381 5.10791e-16)
(25.365 16.1443 -3.10927e-16)
(26.632 15.8766 -8.81498e-16)
(27.8366 15.4415 -1.64166e-15)
(28.9568 14.8495 2.51381e-15)
(29.9717 14.1112 -1.17323e-15)
(30.86 13.241 -1.63146e-15)
(31.6043 12.2528 -1.05475e-15)
(32.1839 11.16 -7.89318e-16)
(32.5755 9.9892 -1.14649e-16)
(32.7642 8.78305 -3.83443e-16)
(32.7536 7.60379 -2.53048e-15)
(32.577 6.50716 9.70928e-16)
(32.2465 5.50437 -2.48374e-15)
(31.7818 4.62442 1.83182e-16)
(31.4889 3.96265 1.69682e-16)
(31.6564 3.32989 -4.39464e-17)
(31.8813 2.05862 1.5705e-16)
(31.3078 0.0665257 5.75046e-16)
(27.6574 -1.65231 6.96193e-17)
(24.0075 -3.63111 3.81142e-18)
(22.2199 -2.94294 4.38356e-16)
(3.3547 9.26176 8.2127e-16)
(-13.8751 12.0486 2.51835e-15)
(-16.5502 7.04648 1.27144e-14)
(-12.0424 0.979254 4.21225e-14)
(-6.32958 -1.39105 6.97028e-15)
(-1.97797 -2.18133 -2.42237e-15)
(-1.53907 -1.9634 -2.36328e-15)
(14.113 8.89317 3.26348e-18)
(13.8232 7.9536 1.8085e-16)
(13.6195 6.86076 -1.83005e-16)
(13.5114 5.67549 8.42693e-16)
(13.5553 4.45756 -3.0357e-16)
(13.7498 3.19038 1.13194e-16)
(14.113 1.91927 8.21907e-16)
(14.6276 0.723858 5.66973e-16)
(15.2693 -0.345459 2.22768e-16)
(16.0158 -1.27611 -5.78668e-16)
(16.8338 -2.05595 -2.42022e-16)
(17.6914 -2.67744 3.90636e-16)
(18.5668 -3.15002 2.23176e-17)
(19.4383 -3.49033 -1.14262e-17)
(20.2873 -3.7154 -2.03823e-16)
(21.1046 -3.84521 1.28234e-16)
(21.8881 -3.89735 2.45359e-16)
(22.6407 -3.88384 -1.09412e-16)
(23.3699 -3.80937 3.2143e-18)
(24.0836 -3.67132 -6.0923e-19)
(24.7857 -3.46206 2.51524e-17)
(25.4737 -3.17192 -9.82625e-17)
(26.1372 -2.79226 4.0402e-16)
(26.756 -2.31979 -2.16841e-16)
(27.3011 -1.76598 -4.41239e-16)
(27.7466 -1.16539 2.55273e-16)
(28.085 -0.553607 2.79741e-16)
(28.3224 0.0425577 6.89674e-17)
(28.4726 0.601001 8.90778e-18)
(28.5386 1.1165 -4.15098e-17)
(28.5204 1.56079 5.64747e-16)
(28.4426 1.93664 -1.30005e-15)
(28.3209 2.25372 -5.14395e-17)
(28.1634 2.52561 -8.48029e-16)
(27.9633 2.7609 -4.14753e-16)
(27.7359 2.96189 2.17638e-15)
(27.4326 3.16472 -3.34823e-15)
(27.044 3.29996 -1.66009e-16)
(26.2451 3.4603 -8.46447e-16)
(15.4763 9.39309 -1.16784e-19)
(15.894 10.2089 -6.63464e-19)
(16.4223 11.0724 -6.86983e-18)
(17.0571 11.9183 -5.51429e-17)
(17.8011 12.6936 4.40938e-17)
(18.667 13.4222 1.14099e-16)
(19.6223 14.0632 -2.00241e-17)
(20.6544 14.5908 6.58937e-17)
(21.76 14.9956 -1.79376e-16)
(22.9164 15.2603 -1.62656e-16)
(24.1034 15.3725 2.35846e-17)
(25.2996 15.3263 4.43424e-16)
(26.4772 15.1183 1.38624e-15)
(27.6118 14.7501 2.10939e-15)
(28.6807 14.2275 6.28633e-17)
(29.6619 13.5587 -1.31076e-16)
(30.5328 12.7538 2.07164e-15)
(31.2751 11.8293 1.88168e-15)
(31.861 10.8194 -6.24281e-18)
(32.2667 9.75692 -1.8664e-15)
(32.4798 8.68304 6.2703e-16)
(32.5044 7.64318 7.34293e-16)
(32.3715 6.6739 -1.27001e-16)
(32.1164 5.77607 9.7336e-16)
(31.748 4.94699 -5.14715e-16)
(31.3557 4.21799 -2.34601e-16)
(31.0852 3.46945 -8.05088e-18)
(30.9046 2.23164 -2.53196e-16)
(30.0852 0.588044 -8.99687e-17)
(26.6558 -0.892861 -1.81337e-15)
(23.6001 -2.54596 1.87346e-16)
(19.8858 -0.497564 2.98881e-16)
(0.888942 11.3877 -8.81461e-16)
(-12.7343 12.4043 9.78349e-16)
(-15.3038 7.4662 -7.88348e-15)
(-9.98545 0.391491 -3.99358e-14)
(-4.52232 -2.06236 9.80641e-15)
(-0.42304 -2.65635 5.57222e-15)
(-0.331206 -2.1795 -6.99085e-15)
(15.1441 8.56472 -2.94667e-17)
(14.873 7.72056 -9.841e-17)
(14.6718 6.73611 1.66454e-16)
(14.553 5.66183 -6.23576e-16)
(14.5669 4.55634 -3.49299e-18)
(14.713 3.4024 -1.44051e-16)
(15.0052 2.23755 -1.42365e-15)
(15.4295 1.13395 5.79421e-16)
(15.9675 0.137376 -7.05109e-17)
(16.6013 -0.742771 6.39094e-16)
(17.3036 -1.495 -3.38014e-16)
(18.0486 -2.11094 2.82997e-16)
(18.8204 -2.59722 -3.92957e-16)
(19.602 -2.96566 -2.73143e-16)
(20.3778 -3.22694 1.18212e-16)
(21.1392 -3.39538 1.26847e-16)
(21.8811 -3.48413 9.85584e-17)
(22.6026 -3.50292 3.43682e-17)
(23.3069 -3.45649 -2.57986e-17)
(23.9987 -3.34401 1.85463e-17)
(24.6804 -3.16 7.84768e-18)
(25.3495 -2.89625 -9.70762e-17)
(25.9967 -2.54469 -2.43458e-16)
(26.6043 -2.10099 8.99228e-18)
(27.1461 -1.57365 1.2824e-16)
(27.5971 -0.989488 1.38449e-16)
(27.947 -0.380594 -3.49998e-17)
(28.1987 0.228044 -7.35315e-17)
(28.363 0.814277 -3.16474e-17)
(28.4418 1.37059 -9.77918e-17)
(28.4351 1.87271 -3.967e-16)
(28.3639 2.30834 2.29644e-15)
(28.2436 2.6751 8.90589e-16)
(28.0836 2.98158 6.04427e-17)
(27.879 3.23521 1.13143e-15)
(27.6455 3.42973 -2.3322e-15)
(27.3368 3.60564 1.05604e-15)
(26.9442 3.67997 -1.93616e-16)
(26.1829 3.72138 3.62215e-17)
(16.3517 9.03118 -3.14718e-17)
(16.7382 9.77216 -7.98799e-17)
(17.2212 10.5623 -1.56508e-18)
(17.7993 11.3369 1.86676e-16)
(18.4748 12.0446 -7.95591e-17)
(19.2571 12.7133 -4.09522e-17)
(20.118 13.3046 -2.13344e-17)
(21.0473 13.8009 5.89606e-17)
(22.0432 14.191 -7.24096e-17)
(23.0868 14.4589 -2.44648e-17)
(24.1632 14.5932 -5.86781e-17)
(25.2559 14.5877 -1.13896e-15)
(26.3407 14.4373 3.17902e-16)
(27.3959 14.1405 -1.34818e-15)
(28.4001 13.7001 -3.78927e-16)
(29.3316 13.1221 4.84535e-16)
(30.1674 12.4155 -1.38215e-15)
(30.89 11.5938 -7.88455e-16)
(31.4764 10.6776 -3.78277e-16)
(31.9054 9.69054 1.22225e-15)
(32.164 8.67084 9.10751e-17)
(32.2495 7.67046 5.4145e-16)
(32.1768 6.73976 9.91449e-16)
(31.9752 5.89783 -1.92288e-16)
(31.6739 5.13785 -1.38756e-17)
(31.3274 4.44594 7.19359e-16)
(30.9592 3.70277 1.30244e-16)
(30.5226 2.53966 -2.76989e-17)
(29.3671 1.14927 1.89608e-16)
(26.1102 -0.136649 -1.45858e-16)
(23.4661 -1.55488 -6.74743e-16)
(17.8515 1.96059 -5.68139e-16)
(-0.0270279 12.9966 -1.01175e-15)
(-11.2831 12.4855 -7.93647e-15)
(-14.0515 7.68891 2.45988e-14)
(-7.71814 -0.314926 1.37489e-14)
(-2.5398 -2.78112 -7.43452e-15)
(1.20172 -3.11489 -1.56852e-14)
(1.02988 -2.3979 5.16454e-15)
(16.0435 8.27645 1.57875e-17)
(15.7876 7.51127 2.02347e-16)
(15.5891 6.61686 -7.93181e-17)
(15.4645 5.63533 -6.17673e-16)
(15.4573 4.62513 -2.91386e-16)
(15.5655 3.56833 -5.58236e-16)
(15.8012 2.49572 -1.03783e-16)
(16.1547 1.47374 6.23181e-16)
(16.6095 0.544139 4.27469e-16)
(17.1521 -0.286407 -1.15489e-16)
(17.7594 -1.0073 9.49586e-16)
(18.4094 -1.60982 -2.82196e-17)
(19.0902 -2.09957 5.80757e-16)
(19.7889 -2.4856 2.08667e-16)
(20.4931 -2.77506 -1.70204e-16)
(21.1956 -2.97807 1.49348e-17)
(21.8905 -3.10423 -2.59774e-16)
(22.5745 -3.16097 1.73562e-17)
(23.2479 -3.1522 7.24321e-17)
(23.9125 -3.07763 9.26825e-18)
(24.5691 -2.93291 -4.37897e-17)
(25.2151 -2.71078 1.11138e-16)
(25.8424 -2.40326 1.08824e-16)
(26.4353 -2.00623 3.45226e-16)
(26.9703 -1.52612 3.28564e-16)
(27.4234 -0.985273 3.92096e-17)
(27.7827 -0.41188 1.85498e-16)
(28.048 0.169427 3.62631e-18)
(28.2274 0.737539 3.021e-17)
(28.322 1.28222 1.08833e-17)
(28.3317 1.7784 -2.76001e-16)
(28.2744 2.218 -1.37159e-17)
(28.1646 2.59911 -1.82956e-15)
(28.0115 2.92628 2.84983e-15)
(27.8116 3.20585 -1.73026e-16)
(27.5798 3.43135 8.93136e-17)
(27.2715 3.63211 -5.7035e-16)
(26.877 3.73935 -2.24375e-16)
(26.1528 3.79468 4.85412e-17)
(17.1258 8.71066 -1.07972e-17)
(17.4835 9.38961 2.4815e-18)
(17.9306 10.1147 1.12747e-16)
(18.4637 10.8257 -5.34783e-17)
(19.0793 11.4795 6.16205e-17)
(19.7932 12.0909 4.52868e-17)
(20.5759 12.6359 4.33145e-17)
(21.4187 13.0954 2.63913e-19)
(22.3213 13.4629 -6.26774e-17)
(23.2678 13.7275 1.71476e-16)
(24.2467 13.8755 -2.30766e-16)
(25.2452 13.9002 6.99779e-16)
(26.2431 13.7953 -6.67898e-17)
(27.2224 13.557 -4.75566e-17)
(28.1632 13.1857 -2.55176e-16)
(29.0445 12.6851 -1.25828e-16)
(29.8446 12.0616 4.82042e-16)
(30.5453 11.3267 1.01037e-15)
(31.1245 10.5018 1.05081e-15)
(31.5625 9.60757 6.91885e-16)
(31.8477 8.67005 5.39303e-16)
(31.9791 7.72643 1.10357e-16)
(31.9654 6.82121 -6.61078e-16)
(31.8233 5.98969 -1.6721e-17)
(31.5725 5.24793 3.89095e-16)
(31.263 4.58445 -5.5859e-16)
(30.9044 3.88211 -1.16153e-16)
(30.3938 2.84377 -9.55924e-17)
(29.0651 1.64778 -1.90355e-16)
(26.0767 0.50667 1.56094e-15)
(23.5493 -0.700134 4.87157e-16)
(16.4566 4.3308 1.19743e-16)
(0.368218 14.1844 3.78241e-16)
(-9.62773 12.3284 -1.1796e-15)
(-12.5267 7.48047 -1.36037e-14)
(-5.30122 -1.146 -6.3896e-15)
(-0.421235 -3.53721 6.73612e-15)
(2.8978 -3.5684 4.8269e-15)
(2.50062 -2.64359 6.32417e-15)
(16.8361 8.01992 9.77072e-17)
(16.5929 7.32076 2.8072e-16)
(16.397 6.5025 -5.61847e-16)
(16.2692 5.60069 -1.00438e-15)
(16.2461 4.6712 -7.77751e-16)
(16.3257 3.69839 1.8215e-15)
(16.5164 2.70837 8.83643e-16)
(16.8128 1.75971 2.99298e-16)
(17.2009 0.891495 -1.19972e-15)
(17.6689 0.108767 -6.41415e-16)
(18.1975 -0.578578 -1.08646e-15)
(18.7678 -1.16156 -9.29895e-16)
(19.3702 -1.6455 -1.89609e-16)
(19.9947 -2.03776 1.22999e-16)
(20.6319 -2.34317 -1.11165e-16)
(21.2763 -2.56912 -1.23693e-16)
(21.9227 -2.72213 1.08054e-16)
(22.5668 -2.80731 -1.23022e-16)
(23.2069 -2.82758 2.88807e-17)
(23.8424 -2.78268 3.21653e-17)
(24.4728 -2.66895 -1.71379e-17)
(25.0951 -2.4802 4.04441e-17)
(25.702 -2.20912 2.1461e-17)
(26.2793 -1.85158 3.57621e-17)
(26.8056 -1.41251 -2.43236e-16)
(27.2582 -0.910352 1.07926e-17)
(27.624 -0.369388 -1.27233e-16)
(27.9006 0.187279 2.08165e-17)
(28.0937 0.739674 1.63084e-17)
(28.2032 1.27625 6.43869e-17)
(28.229 1.77359 2.91758e-16)
(28.1861 2.22069 7.74395e-16)
(28.088 2.61093 -6.32179e-17)
(27.9434 2.94582 -2.60836e-15)
(27.75 3.23229 -1.77641e-15)
(27.5217 3.46325 -7.40017e-16)
(27.2164 3.66352 -3.39127e-15)
(26.8233 3.7686 1.79431e-15)
(26.1377 3.81779 -3.53924e-16)
(17.8145 8.42413 3.26182e-17)
(18.149 9.04838 3.81616e-17)
(18.5639 9.71635 -2.59485e-17)
(19.0593 10.3708 -3.75681e-17)
(19.6274 10.971 2.62759e-16)
(20.2799 11.5394 -6.40802e-17)
(20.9941 12.0477 -2.07053e-17)
(21.7647 12.4677 3.72434e-17)
(22.5871 12.8125 6.74363e-17)
(23.4487 13.0611 -2.10123e-16)
(24.3416 13.2152 5.48151e-17)
(25.255 13.2619 -2.37734e-16)
(26.1726 13.1934 -7.12987e-17)
(27.0795 13.0046 -2.29e-16)
(27.9581 12.6936 1.85715e-16)
(28.789 12.2619 3.38305e-16)
(29.5517 11.714 -7.88335e-17)
(30.2272 11.0593 -1.09195e-15)
(30.7962 10.3161 -6.07161e-16)
(31.2401 9.50449 -6.69727e-16)
(31.5451 8.64672 -2.46523e-16)
(31.7095 7.77207 -5.11221e-16)
(31.7404 6.9119 -8.36204e-17)
(31.6516 6.0963 7.66149e-16)
(31.4524 5.34969 1.69605e-17)
(31.1726 4.67983 3.55565e-16)
(30.8181 3.99233 6.61718e-17)
(30.2778 3.07953 3.15181e-16)
(28.9297 2.05775 3.21069e-16)
(26.2554 0.998699 -1.65007e-15)
(23.5949 0.242538 -1.67964e-16)
(15.7362 6.58854 3.68565e-16)
(1.87834 15.0789 1.0752e-15)
(-7.8664 12.0558 7.04359e-16)
(-10.6536 7.02877 1.31068e-14)
(-2.74477 -2.11522 -3.76459e-15)
(1.84935 -4.333 -8.29467e-15)
(4.68938 -4.02513 1.60318e-15)
(4.08774 -2.91042 -2.51792e-15)
(17.5406 7.78802 1.17817e-16)
(17.308 7.1458 -3.15944e-16)
(17.1158 6.39303 -5.68049e-18)
(16.9862 5.55992 5.52885e-16)
(16.9513 4.70217 -8.4789e-16)
(17.0062 3.80005 -1.17326e-15)
(17.1626 2.88279 -6.96882e-16)
(17.4129 2.003 8.16225e-16)
(17.7462 1.19156 1.06479e-15)
(18.1529 0.454113 1.73001e-16)
(18.616 -0.199321 6.71534e-16)
(19.1188 -0.759703 5.7272e-16)
(19.6535 -1.23219 -3.0969e-16)
(20.2122 -1.62354 1.96546e-16)
(20.7875 -1.93729 -5.00851e-17)
(21.376 -2.17891 2.63065e-16)
(21.9735 -2.35299 -1.39359e-16)
(22.5757 -2.46264 -1.8036e-16)
(23.1798 -2.50948 -4.30922e-17)
(23.7839 -2.49311 -6.68628e-17)
(24.3862 -2.41043 -2.69047e-18)
(24.9832 -2.2558 6.50703e-17)
(25.5681 -2.02226 -2.6765e-16)
(26.1283 -1.70532 -2.82935e-16)
(26.6439 -1.30913 -6.25836e-17)
(27.0937 -0.848373 -3.41581e-16)
(27.4636 -0.344236 -8.62088e-17)
(27.7496 0.182324 -2.99827e-17)
(27.9546 0.711857 2.88618e-18)
(28.0778 1.23243 2.30509e-19)
(28.1188 1.72084 -1.41909e-16)
(28.0899 2.16495 -2.3131e-16)
(28.0038 2.55667 -4.21104e-16)
(27.8683 2.89448 -8.91024e-16)
(27.6826 3.18496 3.17818e-15)
(27.4599 3.42145 -2.50172e-17)
(27.161 3.62217 3.93977e-15)
(26.775 3.72283 -2.93796e-15)
(26.1306 3.77306 -4.43597e-16)
(18.4317 8.16424 -1.79251e-17)
(18.7469 8.74003 2.23229e-17)
(19.135 9.35802 -6.04614e-17)
(19.5974 9.96144 -1.80724e-16)
(20.1238 10.5134 -9.47564e-18)
(20.7259 11.038 9.25165e-18)
(21.3829 11.5081 6.83418e-17)
(22.0871 11.9069 1.1383e-18)
(22.8391 12.2346 1.32202e-16)
(23.6287 12.4586 9.10052e-17)
(24.445 12.608 1.64814e-16)
(25.2816 12.6687 -1.06688e-16)
(26.1254 12.6287 -4.46877e-16)
(26.9642 12.4808 1.01998e-15)
(27.7829 12.2216 -4.35424e-16)
(28.5639 11.8509 -4.84589e-16)
(29.2882 11.371 -3.32826e-16)
(29.9367 10.7891 9.8104e-16)
(30.4929 10.1202 1.19637e-15)
(30.9387 9.38324 3.32021e-16)
(31.2594 8.59653 -1.38035e-15)
(31.4512 7.78675 3.02263e-16)
(31.517 6.9801 -5.88355e-17)
(31.4687 6.19989 2.45696e-16)
(31.3145 5.46204 -1.06972e-16)
(31.0671 4.77917 7.66179e-17)
(30.7129 4.0848 3.00292e-17)
(30.1365 3.27205 -1.69218e-16)
(28.8442 2.40476 2.69085e-16)
(26.466 1.34376 1.00933e-15)
(23.6162 1.18793 9.68507e-18)
(15.6538 8.69258 -3.48526e-16)
(4.17484 15.771 6.32033e-16)
(-6.15033 11.8748 -4.16772e-15)
(-8.49693 6.52434 -2.08081e-14)
(-0.0591387 -3.10452 -5.68069e-15)
(4.22564 -5.12462 -5.28984e-15)
(6.57548 -4.48359 -1.10591e-15)
(5.76582 -3.19568 -5.99319e-15)
(18.1713 7.57674 -8.08794e-17)
(17.9488 6.98403 -3.8768e-17)
(17.7606 6.28808 2.45046e-16)
(17.6313 5.51563 -4.63665e-17)
(17.5858 4.72068 5.27643e-16)
(17.6218 3.88247 7.68023e-16)
(17.7475 3.02593 6.63482e-17)
(17.9619 2.20773 4.84196e-16)
(18.2499 1.45273 -1.36711e-15)
(18.6059 0.759064 -8.50599e-16)
(19.0139 0.139173 5.4228e-16)
(19.4593 -0.397115 7.24461e-16)
(19.9355 -0.854639 -3.47844e-16)
(20.4361 -1.23977 -4.15982e-17)
(20.9554 -1.55522 -2.47781e-17)
(21.4913 -1.80575 -6.59284e-17)
(22.0409 -1.99447 2.15849e-16)
(22.6007 -2.12292 2.33288e-16)
(23.1675 -2.19159 9.88768e-18)
(23.7387 -2.1996 6.9774e-17)
(24.3115 -2.14396 -9.78188e-18)
(24.8821 -2.01946 -5.89791e-17)
(25.4441 -1.81938 1.51806e-16)
(25.9859 -1.53915 3.70518e-17)
(26.4893 -1.18173 1.94483e-16)
(26.9339 -0.758956 3.4936e-16)
(27.3058 -0.288545 1.82661e-16)
(27.5993 0.210774 -5.5702e-17)
(27.8148 0.72081 -2.86889e-17)
(27.9509 1.22905 -3.40118e-17)
(28.0063 1.71411 9.00003e-18)
(27.9909 2.16264 2.56665e-17)
(27.9166 2.56346 7.73039e-17)
(27.79 2.91053 1.61501e-15)
(27.6114 3.20885 -1.64095e-16)
(27.3936 3.45046 1.65481e-15)
(27.1005 3.64901 -2.48885e-15)
(26.7229 3.73263 1.65899e-15)
(26.121 3.74749 6.98902e-16)
(18.9882 7.92655 1.91816e-17)
(19.286 8.45984 -3.77394e-17)
(19.6511 9.03236 -1.7502e-16)
(20.0851 9.59038 6.89387e-17)
(20.5752 10.1001 2.63591e-17)
(21.1326 10.5848 6.22154e-17)
(21.7394 11.0196 -5.61103e-17)
(22.3888 11.3903 -3.66433e-17)
(23.0806 11.6964 3.0856e-16)
(23.8021 11.9294 1.62391e-16)
(24.5516 12.0565 -4.38076e-16)
(25.3204 12.1214 -4.68117e-17)
(26.0967 12.101 6.73317e-16)