/*--------------------------------*- C++ -*----------------------------------*\
| =========                 |                                                 |
| \\      /  F ield         | OpenFOAM: The Open Source CFD Toolbox           |
|  \\    /   O peration     | Version:  2306                                  |
|   \\  /    A nd           | Website:  www.openfoam.com                      |
|    \\/     M anipulation  |                                                 |
\*---------------------------------------------------------------------------*/
FoamFile
{
    version     2.0;
    format      ascii;
    arch        "LSB;label=32;scalar=64";
    class       volVectorField;
    location    "275";
    object      momentError;
}
// * * * * * * * * * * * * * * * * * * * * * * * * * * * * * * * * * * * * * //

dimensions      [0 1 -2 0 0 0 0];

internalField   nonuniform List<vector> 
10720
(
(0.000683124 -0.00937739 -6.9577e-15)
(0.000299191 -0.00960492 2.41414e-14)
(-0.000536924 -0.00630053 -4.72742e-14)
(-0.00103244 -0.00612627 1.77723e-14)
(-0.00134045 -0.00562858 1.10337e-13)
(-0.00149666 -0.00502156 -1.75235e-13)
(-0.00160747 -0.00435506 9.00442e-14)
(-0.00155688 -0.00361988 -1.11114e-13)
(-0.00142409 -0.00302882 -2.54763e-13)
(-0.00120726 -0.00236251 3.44272e-13)
(-0.000895349 -0.00196602 1.24201e-13)
(1.10653e-05 -0.000785463 -2.28894e-13)
(0.000801807 3.94562e-06 -3.3464e-13)
(0.00158209 0.000731885 -5.72209e-14)
(0.0025837 0.00149987 -1.39809e-13)
(0.00380578 0.00235378 -3.10483e-13)
(0.00549821 0.00329217 -1.46795e-13)
(0.00787698 0.0042935 8.32929e-13)
(0.0107717 0.00529943 4.23409e-13)
(0.0155193 0.00656827 -5.95238e-13)
(0.0192664 0.00709952 1.05344e-13)
(0.0214655 0.00603832 1.53314e-13)
(0.0077233 0.00313224 -6.74952e-14)
(-0.0029225 0.000325721 -1.51634e-13)
(0.0149158 0.00114144 3.57311e-14)
(0.0261679 0.00362137 -2.34552e-15)
(0.0183663 0.00407704 4.15594e-14)
(0.00345778 0.00189682 -1.64687e-14)
(-0.00321776 -4.13718e-05 4.39744e-14)
(0.00112924 -0.000708704 1.54558e-13)
(0.00494379 -0.000776658 3.03227e-14)
(0.00590703 -0.000661357 -1.28688e-13)
(0.00630337 -0.00066961 -7.89264e-15)
(0.00605282 -0.000753729 -2.15862e-13)
(0.00575434 -0.000963394 -2.82567e-13)
(0.0058934 -0.00221974 1.1561e-13)
(0.00451476 -0.0126534 -1.13998e-14)
(-0.0494724 -0.0737534 4.04922e-16)
(-1.19607 0.130079 -5.68237e-14)
(0.00082176 -0.00829128 -1.07572e-14)
(0.00109999 -0.00671171 2.65349e-14)
(0.00123305 -0.00491184 1.73757e-15)
(0.00102046 -0.00323592 3.61554e-14)
(0.000919859 -0.00228034 -3.28926e-14)
(0.000887857 -0.00151565 -9.39474e-14)
(0.000404547 -0.000575757 -1.07649e-13)
(0.000146109 -0.000214753 2.99954e-14)
(0.000265726 -0.000307572 -7.50407e-14)
(0.00050277 -0.000432243 9.57716e-14)
(0.000379544 -0.000154443 -6.00578e-14)
(0.00012064 6.29314e-06 -1.46149e-13)
(0.000124997 -2.74261e-05 -1.64707e-13)
(0.000159765 -3.29359e-05 1.32142e-14)
(0.000119433 -9.60345e-06 1.33069e-13)
(8.35048e-05 -4.5474e-06 3.99532e-14)
(7.46441e-05 -6.2425e-06 -5.03234e-14)
(6.57936e-05 -6.59548e-06 -3.54886e-14)
(5.67516e-05 -7.81316e-06 -2.18253e-14)
(5.62128e-05 -1.1427e-05 3.90561e-14)
(6.24369e-05 -1.25772e-05 1.7306e-14)
(6.72652e-05 -1.23007e-05 2.5066e-14)
(6.90363e-05 -7.7862e-06 -3.38619e-14)
(6.33109e-05 -4.10903e-06 -2.46752e-14)
(5.01532e-05 1.0033e-06 1.82019e-14)
(3.39895e-05 -7.13199e-06 1.24286e-14)
(2.38416e-05 -9.1941e-06 6.94432e-15)
(2.00203e-05 2.44865e-05 -1.46611e-15)
(1.96915e-05 4.12138e-05 -2.85425e-16)
(2.71108e-05 3.62122e-05 2.27531e-16)
(3.05807e-05 2.09431e-05 -4.48232e-16)
(1.83119e-05 1.43234e-05 -1.85681e-15)
(2.97544e-06 9.59873e-06 -1.26748e-15)
(-3.33212e-05 5.24051e-06 -3.78217e-15)
(-8.9038e-05 -5.09864e-07 -2.82866e-15)
(-8.70792e-05 1.9337e-06 1.24597e-15)
(-0.000196959 4.03559e-06 -2.18143e-15)
(-0.000569517 8.96664e-05 -1.10816e-14)
(-0.00279717 0.00125075 -2.15214e-14)
(-0.0018637 -0.00552624 -1.31338e-14)
(-0.00234129 -0.00547581 5.89668e-15)
(-0.00227221 -0.00356655 7.83455e-15)
(-0.00274651 -0.00351113 -3.37135e-14)
(-0.00300537 -0.00336307 2.1051e-14)
(-0.00313489 -0.0030298 8.04779e-14)
(-0.00329626 -0.00261659 1.03957e-13)
(-0.00334414 -0.00226045 1.00704e-13)
(-0.00328016 -0.00192929 -3.9941e-15)
(-0.00323177 -0.00162064 1.90774e-13)
(-0.00297514 -0.00112385 -2.08941e-13)
(-0.00300172 -0.00175994 -1.1959e-13)
(-0.00300861 -0.00216006 4.48784e-13)
(-0.00318347 -0.00233875 1.28301e-13)
(-0.0028271 -0.00289027 -1.19227e-13)
(-0.00252278 -0.00347318 -1.78104e-14)
(-0.00201872 -0.004235 3.4216e-13)
(-0.00112551 -0.00505133 -1.53365e-13)
(-4.45894e-05 -0.00579042 -4.92081e-13)
(0.000390991 -0.00656233 1.88492e-13)
(0.0127021 -0.00663219 2.35497e-13)
(0.012312 -0.00417568 4.67838e-14)
(0.0405014 -0.00280047 -1.30877e-13)
(0.103645 0.00858444 1.92594e-13)
(0.098789 0.0152006 -4.19982e-14)
(0.0183154 0.00951915 -7.05141e-14)
(-0.0184098 0.0037322 -3.02003e-14)
(-0.0276202 -0.00232064 5.59835e-15)
(-0.00905254 -0.00383687 -1.50115e-14)
(0.00811475 -0.00238348 -1.59066e-14)
(0.00900259 -0.00138374 -2.03981e-14)
(0.00669234 -0.00131495 3.53302e-14)
(0.0073091 -0.0013958 -1.88321e-13)
(0.00811958 -0.00144383 -2.24093e-13)
(0.00854256 -0.00154897 1.62433e-13)
(0.0102068 -0.0021377 -3.95174e-14)
(0.0107654 -0.00412954 3.31176e-14)
(0.0403726 -0.0159188 -1.4043e-14)
(0.999971 -0.120665 -4.41845e-14)
(-0.00151947 -0.00512743 -4.64406e-15)
(-0.000928546 -0.00425984 1.24031e-13)
(-0.000377778 -0.00330604 -7.97149e-15)
(-0.000119409 -0.0025465 -1.29028e-13)
(0.0001129 -0.00193286 -2.56905e-14)
(0.000329475 -0.00134844 1.27322e-13)
(0.000294474 -0.000738737 1.11624e-13)
(0.000241655 -0.000443276 5.95092e-14)
(0.000343439 -0.00040013 -8.2754e-14)
(0.000485869 -0.000310479 -1.05613e-14)
(0.000445305 -7.85987e-05 1.01906e-13)
(0.000303787 -3.18354e-05 -5.20581e-15)
(0.000280345 -6.29948e-05 1.22851e-14)
(0.000291037 -3.72827e-05 -2.48039e-14)
(0.000258233 -7.41605e-06 -3.25958e-14)
(0.000222024 -4.63116e-06 1.41601e-14)
(0.000205717 -3.89172e-06 1.70881e-14)
(0.000192333 -2.72086e-06 -5.80613e-14)
(0.000179122 -6.52771e-06 2.69383e-14)
(0.000173529 -1.20133e-05 1.78514e-14)
(0.000174393 -1.3385e-05 1.46838e-14)
(0.000175191 -1.01172e-05 3.19236e-14)
(0.00017204 -4.34698e-06 4.18098e-14)
(0.000162062 4.34318e-06 1.76613e-14)
(0.000144402 1.0851e-05 -1.51773e-14)
(0.000124228 1.47734e-05 8.15407e-16)
(0.000101989 1.56064e-05 -5.69466e-15)
(7.99872e-05 1.10302e-05 -2.09183e-15)
(6.78516e-05 -2.11156e-06 3.94951e-16)
(6.24252e-05 -1.34661e-05 -3.74797e-17)
(3.48294e-05 -6.78729e-06 2.76961e-16)
(2.07252e-05 -5.96188e-06 6.08921e-16)
(8.00609e-06 -3.62835e-06 1.84038e-15)
(-1.41574e-06 -5.35546e-06 2.31735e-15)
(-1.59048e-05 -9.05237e-06 7.41032e-16)
(-5.13239e-05 -8.96338e-07 -1.53956e-15)
(-0.00012272 -4.63416e-06 -5.87303e-17)
(-0.000335712 -2.95703e-05 3.79278e-15)
(-0.0017586 -0.000195674 9.21908e-15)
(-0.00044104 -0.00401615 -5.06621e-15)
(-0.000505791 -0.00388683 -8.33818e-16)
(-0.00045928 -0.00262214 -5.8592e-15)
(-0.000561653 -0.00272269 1.55805e-14)
(-0.000619928 -0.00269529 3.91771e-15)
(-0.000648891 -0.00243936 -3.37841e-14)
(-0.000674843 -0.00221573 -1.07685e-13)
(-0.000666644 -0.00201083 -9.5483e-14)
(-0.000622297 -0.00177593 -1.1137e-13)
(-0.00055481 -0.00152741 1.10088e-14)
(-0.000434338 -0.00129186 2.6418e-13)
(-0.000250401 -0.00100862 7.06412e-14)
(-8.71359e-05 -0.000729696 -9.93389e-14)
(0.000154648 -0.000629585 -2.41138e-13)
(1.79544e-05 -0.000460654 1.10278e-13)
(-0.000430654 -0.000277333 1.45969e-13)
(-0.000950958 -0.000333834 -9.42691e-14)
(-0.00173527 -0.000785735 -1.89434e-13)
(-0.0027272 -0.00245526 3.17248e-13)
(-0.00207587 -0.00431566 -9.49165e-14)
(-0.0104213 -0.00430704 -1.19599e-13)
(-0.0121869 -0.0112993 1.78611e-13)
(-0.0126733 -0.0104481 7.38953e-14)
(-0.0225216 -0.0130502 -3.34867e-15)
(-0.0451193 -0.0107036 -3.30859e-14)
(-0.0500783 -0.000471167 3.57079e-15)
(-0.0401857 0.000558217 -3.06026e-14)
(-0.00476581 -0.00191827 2.10728e-14)
(0.0635405 -0.000749707 -3.3174e-14)
(0.0428312 0.000408364 -7.21345e-14)
(0.0213168 -0.000737062 6.96389e-14)
(0.0134311 -0.0017193 3.0865e-14)
(0.0119269 -0.00183448 -1.21887e-13)
(0.00987419 -0.00186544 7.82046e-14)
(0.00981035 -0.0019562 1.65875e-14)
(0.0116005 -0.00237561 -3.62199e-14)
(0.0140342 -0.00352869 -1.00002e-13)
(0.0265828 -0.00429541 2.77673e-14)
(0.122443 -0.0116853 6.10609e-15)
(-0.000317512 -0.0038567 2.92012e-14)
(-0.000147711 -0.00328028 -2.76709e-14)
(2.14319e-05 -0.00256953 -9.83021e-14)
(0.000138618 -0.00208042 4.48446e-14)
(0.000220688 -0.00165036 2.06307e-14)
(0.00028194 -0.00120704 -6.45577e-14)
(0.000274417 -0.000725833 1.35127e-14)
(0.000286908 -0.000539978 -1.17661e-13)
(0.000406777 -0.00048972 -7.9138e-14)
(0.000501301 -0.000385426 -8.81496e-14)
(0.000478689 -0.00025343 9.75304e-14)
(0.000390667 -0.000202721 1.45204e-14)
(0.000349649 -0.000177969 -1.36439e-14)
(0.000338779 -0.000132936 -8.09045e-14)
(0.0003103 -9.57808e-05 -5.80978e-14)
(0.000274979 -7.80268e-05 3.78633e-14)
(0.000252235 -6.48794e-05 -2.13778e-14)
(0.000235441 -5.52941e-05 -4.39847e-14)
(0.000219812 -5.23934e-05 -4.00571e-15)
(0.000209866 -5.16144e-05 -4.02555e-14)
(0.000206253 -4.64302e-05 -4.30193e-14)
(0.000203782 -3.69695e-05 -8.43681e-14)
(0.000198138 -2.43134e-05 -6.39831e-14)
(0.000185851 -1.12924e-05 -1.80138e-14)
(0.000166827 -1.63846e-06 3.95534e-15)
(0.000145056 2.59698e-06 -1.15203e-15)
(0.000123733 1.5463e-06 -1.05443e-14)
(0.00010458 4.57901e-07 4.48372e-15)
(9.26063e-05 4.73112e-07 5.83756e-16)
(8.52628e-05 8.80371e-06 -1.81929e-16)
(6.87191e-05 1.08629e-05 -7.24114e-18)
(5.08198e-05 1.04692e-05 -5.28635e-16)
(3.28126e-05 1.25317e-05 -9.74866e-16)
(9.96814e-06 1.20685e-05 -1.45681e-15)
(-1.12981e-05 1.65838e-05 1.90123e-15)
(1.67346e-05 2.12414e-05 5.63715e-17)
(-0.000219395 -1.34644e-05 1.44942e-14)
(-0.00041409 4.51877e-06 8.76181e-15)
(-0.00155079 -0.000244693 -1.035e-13)
(-0.00105516 -0.00268223 7.92315e-15)
(-0.00113949 -0.00250191 -2.34015e-15)
(-0.00101778 -0.00168848 5.64811e-17)
(-0.00114314 -0.00170231 -7.12714e-15)
(-0.0012254 -0.0016119 2.02352e-15)
(-0.00125666 -0.0013887 3.58525e-14)
(-0.00129016 -0.00118244 5.85079e-14)
(-0.00128562 -0.000995621 5.46633e-14)
(-0.00124414 -0.000798199 -1.33463e-13)
(-0.00117209 -0.000606125 -1.11697e-13)
(-0.00105756 -0.000433966 1.41593e-13)
(-0.000897188 -0.000307122 2.56691e-13)
(-0.000690097 -0.000309663 1.35748e-13)
(-0.000467232 -0.00043138 -4.72323e-13)
(-0.000395339 -0.000491664 -1.62215e-13)
(0.000184573 -0.000968938 3.86043e-13)
(0.000632725 -0.00129951 8.39437e-14)
(0.00114093 -0.0017314 -1.24303e-13)
(0.0016757 -0.00208536 -2.28481e-13)
(0.00137335 -0.00194304 1.9797e-13)
(0.00111605 -0.00446777 4.36071e-14)
(0.000382356 -0.00365369 -2.2251e-13)
(-0.0080124 -0.00731872 1.65628e-13)
(-0.0146167 -0.00536229 -1.14186e-13)
(-0.0154531 0.0038166 -3.7216e-14)
(-0.00600414 0.00435727 3.56566e-14)
(-0.00497232 0.00600668 -4.55945e-14)
(0.0975339 -0.0110335 1.00816e-14)
(-0.0180208 -0.00543029 1.36532e-14)
(0.0329649 -0.00742344 2.0969e-14)
(0.013786 0.00122913 -9.05145e-15)
(0.0282407 -0.00192759 2.55496e-14)
(0.0192185 -0.00127446 2.07377e-13)
(0.0145763 -0.00188125 5.36188e-14)
(0.0122875 -0.00206219 -7.6004e-14)
(0.0125329 -0.00250322 -1.16663e-13)
(0.0137533 -0.00317577 1.66896e-14)
(0.0185497 -0.00247002 -2.8366e-14)
(0.0465274 -0.0117624 4.72389e-14)
(-0.000888624 -0.00261633 1.88099e-14)
(-0.000627179 -0.00231768 -3.68645e-14)
(-0.000340305 -0.00191025 -4.02987e-15)
(-0.000128442 -0.00164785 -3.37344e-14)
(4.82666e-05 -0.00135995 -2.08591e-14)
(0.000175325 -0.00102694 7.34807e-14)
(0.000229045 -0.000687518 -1.84163e-13)
(0.000284693 -0.000570846 1.69141e-13)
(0.000428922 -0.000535034 2.01756e-15)
(0.000494647 -0.000419603 -1.20429e-13)
(0.000492031 -0.000291311 -7.02257e-14)
(0.000448887 -0.000211184 -1.98379e-14)
(0.000411156 -0.000161812 5.96146e-14)
(0.000389511 -0.000116644 1.2929e-13)
(0.000362323 -7.83864e-05 2.11124e-14)
(0.000328793 -5.49228e-05 -4.73471e-14)
(0.000302807 -4.10793e-05 2.2205e-14)
(0.000283104 -3.2441e-05 5.0024e-14)
(0.000265096 -2.85692e-05 -3.67832e-15)
(0.000250989 -2.68022e-05 -7.78643e-15)
(0.000242576 -2.21487e-05 -2.14456e-14)
(0.000235991 -1.43656e-05 5.28332e-14)
(0.000226851 -4.27608e-06 3.09532e-14)
(0.000211703 5.94997e-06 -1.07715e-14)
(0.000190837 1.36044e-05 -1.69288e-14)
(0.000167689 1.67711e-05 -6.96954e-15)
(0.000144595 1.60136e-05 1.26435e-14)
(0.000123061 1.5339e-05 -8.9288e-16)
(0.000108371 1.25993e-05 -5.15067e-16)
(9.82465e-05 1.13226e-05 2.02616e-16)
(8.05307e-05 1.18232e-05 -3.73877e-17)
(5.98659e-05 7.44534e-07 -3.53055e-17)
(2.92946e-05 -4.76432e-05 2.69166e-16)
(-4.83279e-05 -0.000230415 4.97493e-16)
(7.15886e-05 0.000285276 -3.27226e-15)
(-0.000412773 -0.00107837 7.60445e-15)
(0.00036851 0.00189886 -1.28859e-14)
(-0.00036318 -0.00042279 -2.99921e-14)
(-0.00148993 -0.00026421 -1.08559e-16)
(-0.000568522 -0.00192903 -4.04003e-15)
(-0.000546487 -0.0017725 4.77239e-15)
(-0.000420233 -0.00121694 6.60792e-17)
(-0.000440602 -0.00125569 -4.19221e-15)
(-0.000440198 -0.00121968 -2.88836e-14)
(-0.000412033 -0.00108239 3.46696e-14)
(-0.000381436 -0.00098726 1.26651e-14)
(-0.000332891 -0.000908253 -7.02166e-14)
(-0.00026637 -0.000819175 -5.82636e-14)
(-0.000179397 -0.000743757 -1.21445e-13)
(-7.23811e-05 -0.000689498 1.7466e-14)
(5.69146e-05 -0.000668771 -1.32404e-13)
(0.000202206 -0.000693196 8.04751e-15)
(0.000320246 -0.000738076 3.54494e-13)
(0.000450649 -0.000820876 -2.34298e-13)
(0.000479483 -0.000765524 -1.67719e-13)
(0.000450812 -0.000669046 1.01615e-13)
(0.000451324 -0.000703815 -1.32008e-13)
(0.0005437 -0.000844018 8.49149e-14)
(0.00050621 -0.00122351 -1.44009e-13)
(0.000541069 -0.00156716 -1.61861e-13)
(-0.000302172 -0.0022646 1.83316e-13)
(-0.00241044 -0.00295208 -4.0547e-14)
(-0.00214372 -0.00275603 8.97135e-14)
(0.000815504 -0.000415247 5.67867e-14)
(-0.00496242 0.00448703 6.31192e-15)
(0.0113401 0.00200714 1.08853e-13)
(-0.0660124 0.0085831 -2.11451e-14)
(-0.00373308 0.00124882 2.25381e-14)
(-0.0126549 -0.00282048 -5.53802e-14)
(-0.0196943 -0.00406881 -1.55752e-13)
(0.00297597 0.00249004 1.31291e-15)
(0.00153719 7.21365e-05 1.40244e-13)
(0.00688438 -0.000761676 -3.31274e-14)
(0.00966466 -0.00151189 -1.04983e-13)
(0.0127764 -0.00222862 1.18165e-13)
(0.0132444 -0.00292613 -3.97213e-14)
(0.0168132 -0.00236115 -1.67041e-14)
(0.0346386 -0.0123911 -9.70769e-16)
(-0.000501089 -0.00190348 2.02773e-14)
(-0.000387588 -0.00171433 1.43567e-14)
(-0.000227127 -0.00143695 -3.19912e-14)
(-9.36951e-05 -0.00128296 7.88698e-14)
(3.98605e-05 -0.00108471 1.86887e-13)
(0.000141525 -0.000849703 -6.88359e-14)
(0.000210462 -0.000660534 -7.24301e-14)
(0.000294481 -0.000581133 1.50544e-13)
(0.000415084 -0.000522103 1.26894e-13)
(0.000472804 -0.000421415 3.56762e-14)
(0.000479344 -0.000321639 -5.19569e-14)
(0.00045591 -0.000248905 5.91957e-14)
(0.000423425 -0.000198381 4.54231e-14)
(0.000397343 -0.000156233 -3.9925e-15)
(0.000371332 -0.000120529 -9.37314e-14)
(0.000340751 -9.61971e-05 3.96975e-15)
(0.000314535 -8.04802e-05 3.73172e-15)
(0.000293657 -6.8436e-05 2.07349e-16)
(0.000275071 -5.93975e-05 1.51417e-14)
(0.000259388 -5.29177e-05 -5.42973e-15)
(0.000248492 -4.53929e-05 1.23057e-14)
(0.000239838 -3.58112e-05 -2.67366e-14)
(0.000229358 -2.39083e-05 -1.53746e-14)
(0.000213543 -1.18528e-05 1.55133e-14)
(0.000192732 -2.11131e-06 2.09712e-14)
(0.000169769 2.95457e-06 1.25776e-15)
(0.000146393 3.88523e-06 -1.23962e-15)
(0.000124374 3.17298e-06 -3.26579e-15)
(0.000108882 3.34513e-07 6.5603e-16)
(9.78086e-05 2.2343e-06 -1.05497e-16)
(7.89835e-05 4.29535e-06 -5.37527e-16)
(5.85972e-05 1.13331e-05 -2.97735e-17)
(4.34912e-05 8.18661e-05 1.02566e-16)
(4.66495e-05 0.00031347 -4.25896e-17)
(-6.80738e-05 -0.000461337 -9.33743e-16)
(0.000171517 0.00124112 -6.95409e-16)
(-0.00010157 -0.0025587 1.03214e-14)
(-0.000393041 0.000466216 -1.08716e-14)
(-0.00120746 -0.000234533 5.4817e-15)
(-0.00056589 -0.00130188 1.93911e-15)
(-0.000553574 -0.00116543 5.0438e-16)
(-0.000443505 -0.000783902 3.1604e-15)
(-0.000459328 -0.000781154 -2.46211e-15)
(-0.000456518 -0.000734019 -1.08399e-15)
(-0.000431521 -0.000625462 1.63705e-14)
(-0.000406843 -0.00054723 7.61221e-15)
(-0.000364425 -0.000482754 4.05056e-14)
(-0.000306378 -0.000413514 6.80171e-14)
(-0.000237361 -0.000356999 -3.2064e-14)
(-0.000155348 -0.000318079 -7.79507e-15)
(-6.20962e-05 -0.000299768 7.50408e-14)
(3.60524e-05 -0.00031002 -1.45576e-13)
(0.000131871 -0.000352446 -2.89511e-13)
(0.000225028 -0.000416102 1.75297e-13)
(0.000281389 -0.000455268 2.68453e-13)
(0.000517404 -0.000790759 -3.55973e-13)
(0.000699899 -0.00115377 6.06882e-14)
(0.000876169 -0.00159978 1.1193e-13)
(0.000984313 -0.00225524 -1.12998e-13)
(0.00078728 -0.0031912 8.56445e-14)
(0.000227627 -0.00403478 -8.73561e-14)
(-0.00103486 -0.00485634 -1.69302e-13)
(-0.00286455 -0.00417843 -5.03314e-14)
(-0.00427301 -0.000886897 -1.16238e-13)
(-0.00415304 0.00292541 5.63326e-14)
(-0.00868933 0.00431356 -1.62168e-14)
(-0.00278458 0.00116776 -1.09064e-14)
(-0.00166321 -0.00127544 2.13863e-14)
(-0.0342825 0.0021952 4.24156e-14)
(0.00996426 -0.00274815 3.29178e-14)
(-0.0103724 0.00101554 -4.52686e-14)
(-0.00379337 0.000510175 -1.16519e-13)
(-0.00501506 0.000420215 -1.48721e-13)
(-0.00270204 -5.37165e-05 3.37275e-14)
(0.00324448 -0.000575064 7.3437e-14)
(0.00998066 -0.00246274 8.47888e-14)
(0.0167433 -0.00249017 3.86318e-14)
(0.0324053 -0.0131903 2.88469e-14)
(-0.000504942 -0.00130956 8.59157e-15)
(-0.000395215 -0.00121498 -2.06854e-14)
(-0.0002454 -0.00105368 1.04877e-14)
(-0.000119593 -0.000974903 -5.81053e-15)
(1.04387e-06 -0.000849457 4.66083e-15)
(9.99017e-05 -0.000685399 -7.81543e-14)
(0.000177045 -0.000579137 -2.94182e-14)
(0.000277209 -0.000539585 -3.50981e-14)
(0.000380362 -0.000487505 2.7408e-14)
(0.000432546 -0.000402633 1.35747e-13)
(0.000446543 -0.00031898 -3.03664e-14)
(0.000437978 -0.000250143 -5.88474e-14)
(0.000416644 -0.000196331 2.48935e-15)
(0.000394825 -0.000152803 -5.12996e-14)
(0.000372995 -0.000116849 1.70111e-14)
(0.000347334 -8.97881e-05 2.54145e-14)
(0.000323296 -7.02458e-05 3.93226e-14)
(0.000303004 -5.4939e-05 1.50535e-14)
(0.000284936 -4.3252e-05 -1.77069e-14)
(0.000268917 -3.50972e-05 2.27355e-14)
(0.000256342 -2.77522e-05 2.51935e-14)
(0.00024576 -1.9181e-05 1.82681e-14)
(0.000233634 -8.85021e-06 3.81851e-15)
(0.000216894 1.74717e-06 -1.4419e-14)
(0.000195746 1.05191e-05 1.18114e-14)
(0.000172808 1.55922e-05 3.28195e-15)
(0.00014911 1.65207e-05 -1.1384e-14)
(0.00012657 1.56838e-05 1.22501e-15)
(0.000110143 1.27189e-05 -1.19511e-16)
(9.80962e-05 1.39124e-05 2.06906e-16)
(7.95936e-05 1.51864e-05 6.74677e-16)
(6.00478e-05 9.64412e-06 -1.6306e-16)
(4.81583e-05 -1.02247e-05 -2.67352e-16)
(4.71938e-05 -7.9695e-05 5.63237e-16)
(-9.00122e-05 0.000206204 1.40561e-15)
(0.000108061 -7.58648e-05 -1.1954e-14)
(-0.000477043 0.000793201 3.45214e-15)
(-0.000263854 -0.000226797 4.42873e-14)
(-0.00149475 0.000309475 3.10781e-14)
(-0.000381706 -0.000877612 3.08996e-15)
(-0.000340081 -0.000751062 5.81357e-16)
(-0.000248645 -0.000501695 -1.12036e-15)
(-0.000231413 -0.000503754 4.18032e-15)
(-0.000197941 -0.00047232 -8.71346e-15)
(-0.000150998 -0.000411429 -1.10878e-15)
(-0.000104806 -0.000384849 2.36234e-14)
(-4.82429e-05 -0.000370536 -1.11569e-14)
(2.30616e-05 -0.000353191 -3.9649e-14)
(0.00010048 -0.0003492 2.65465e-14)
(0.000178578 -0.00035969 -6.08026e-14)
(0.000259079 -0.000386116 -1.50933e-13)
(0.000338924 -0.000435193 1.06659e-13)
(0.000416067 -0.000505152 3.77325e-13)
(0.000482756 -0.000590042 -1.38825e-14)
(0.000555559 -0.000710634 -4.01521e-13)
(0.000598582 -0.000798776 3.32654e-13)
(0.000626224 -0.000923986 2.33444e-13)
(0.000627989 -0.00114388 1.24603e-13)
(0.000544408 -0.00152634 5.87521e-14)
(0.000249167 -0.0020971 -2.88506e-14)
(-0.000354368 -0.00280286 1.61982e-13)
(-0.00168429 -0.00351177 1.12001e-13)
(-0.00344254 -0.0030686 -1.0191e-14)
(-0.00376991 -0.000720582 2.1432e-13)
(-0.00150597 0.00182051 -6.57213e-14)
(0.00217214 0.00177904 -7.6549e-15)
(0.00240142 0.000107068 5.67927e-15)
(0.00102465 -0.000979942 -2.01483e-14)
(0.000435729 -0.00140609 -2.08151e-14)
(-0.00216692 -0.000860015 -1.52662e-14)
(-0.00295745 0.000172493 4.78076e-14)
(-0.00177897 0.00028622 -2.27507e-14)
(-0.0029627 0.000253072 -1.2804e-13)
(-0.00698897 0.000543814 -2.08098e-14)
(-0.028631 0.00739967 -1.02782e-13)
(0.0075212 -0.0037913 -5.77577e-14)
(0.0130267 -0.00131658 6.48292e-15)
(0.0288113 -0.0123931 -2.59582e-14)
(-0.000365458 -0.000897011 -9.66293e-15)
(-0.000302317 -0.00085 1.21931e-14)
(-0.000200513 -0.00075653 -2.61365e-14)
(-0.000107978 -0.000726229 -3.94314e-15)
(-1.37079e-05 -0.000651982 7.3872e-15)
(7.453e-05 -0.000538498 1.10733e-14)
(0.000148147 -0.000489876 8.06601e-14)
(0.000246648 -0.00047267 -1.01455e-13)
(0.000333583 -0.000427923 -3.2794e-14)
(0.000383856 -0.000362924 -3.11606e-14)
(0.000403084 -0.000297818 1.17319e-13)
(0.000402976 -0.000240487 -4.64601e-14)
(0.000390496 -0.000192739 -4.55301e-15)
(0.000374828 -0.000154055 1.85463e-14)
(0.000357757 -0.00012258 1.77864e-14)
(0.000336779 -9.76094e-05 1.20848e-14)
(0.000315759 -7.89112e-05 -7.68465e-14)
(0.000296888 -6.43462e-05 -2.81468e-14)
(0.000279767 -5.29549e-05 3.58267e-14)
(0.000264103 -4.42774e-05 1.42763e-15)
(0.000250897 -3.66523e-05 3.64e-14)
(0.000239216 -2.78387e-05 -1.03973e-14)
(0.00022635 -1.73583e-05 1.50899e-15)
(0.000209543 -6.27287e-06 2.42485e-14)
(0.000189096 3.13367e-06 -2.0378e-14)
(0.000166974 9.13e-06 -6.9955e-15)
(0.000143918 1.10076e-05 6.59001e-15)
(0.000121598 1.02613e-05 2.20157e-15)
(0.000105031 7.15235e-06 -8.8721e-19)
(9.26659e-05 7.65149e-06 -2.58762e-16)
(7.45455e-05 7.56561e-06 6.43204e-16)
(5.36559e-05 3.76518e-06 7.37608e-17)
(3.47625e-05 3.89775e-06 -1.09335e-15)
(9.62416e-06 4.31759e-06 5.25748e-17)
(-3.68805e-05 5.41884e-06 -3.17926e-15)
(-0.000137097 -0.000197411 7.26111e-15)
(-0.000128437 -0.000145245 -1.53073e-15)
(-0.000250168 2.0118e-05 -2.48866e-15)
(-0.000901508 -0.000473927 -4.22526e-14)
(-0.0003033 -0.000540247 1.40013e-15)
(-0.000262186 -0.000452376 1.50739e-15)
(-0.000181732 -0.000262824 -9.52292e-16)
(-0.00016545 -0.000253736 -1.91535e-15)
(-0.000134693 -0.000264901 -3.81275e-15)
(-6.99564e-05 -0.000196608 1.65321e-14)
(-1.80254e-05 -0.000175042 1.38977e-14)
(3.3856e-05 -0.000175624 -5.19517e-14)
(9.86349e-05 -0.000174122 2.17431e-14)
(0.000169731 -0.000184659 1.11356e-13)
(0.000238157 -0.000206791 4.63377e-14)
(0.000302268 -0.00023937 2.13101e-14)
(0.000360091 -0.000287877 -1.87962e-13)
(0.000411772 -0.000351442 -4.30036e-13)
(0.000459774 -0.000431314 -3.04161e-13)
(0.000502364 -0.000526897 1.20115e-13)
(0.000525264 -0.000628603 -7.38789e-14)
(0.00059881 -0.000895769 -3.77236e-13)
(0.00063425 -0.00124358 -1.94635e-13)
(0.000574653 -0.00170451 1.60935e-13)
(0.000317943 -0.00224274 1.61015e-13)
(-0.000253067 -0.00279023 -9.33736e-14)
(-0.00140035 -0.00321056 -3.83225e-14)
(-0.00290525 -0.0026771 2.39096e-15)
(-0.00337862 -0.00064318 -6.09829e-14)
(-0.00185634 0.00149728 6.33103e-14)
(0.000354644 0.00150853 7.22145e-15)
(0.00108536 -0.000169112 4.32187e-15)
(0.000497622 -0.00116189 -4.41673e-15)
(-0.000733561 -0.000944104 5.21968e-14)
(-0.000881048 -0.000438152 3.49773e-14)
(-0.00102574 1.8678e-05 -3.46555e-15)
(-0.000148279 0.000114192 1.13177e-13)
(0.000242976 -0.00021214 7.8121e-14)
(-0.000655519 -0.0023307 -4.04501e-14)
(0.0100557 -0.00237486 7.08958e-14)
(-0.0027612 0.00136056 5.83306e-14)
(0.00242516 0.000392546 -3.50801e-14)
(0.0196422 -0.010631 -2.78052e-14)
(-0.000298029 -0.000578092 7.38967e-15)
(-0.000255705 -0.000561423 -1.20429e-14)
(-0.000178704 -0.000524192 3.27452e-15)
(-0.000106457 -0.000524863 6.1077e-14)
(-2.47876e-05 -0.000477575 3.13863e-15)
(5.21493e-05 -0.000424566 1.01659e-13)
(0.000126271 -0.000404092 1.36657e-13)
(0.000217062 -0.000398983 -5.30301e-14)
(0.000283611 -0.000360749 -7.25308e-14)
(0.000328548 -0.00031184 -5.54202e-14)
(0.000352071 -0.000262974 -1.02183e-13)
(0.000358475 -0.000217596 -5.53731e-15)
(0.000353513 -0.000177391 -4.30593e-14)
(0.0003448 -0.000143775 5.78132e-14)
(0.000333702 -0.000115761 1.93987e-14)
(0.00031826 -9.24386e-05 -3.0756e-14)
(0.000301441 -7.39268e-05 -3.25765e-15)
(0.000285161 -5.91342e-05 -2.54478e-14)
(0.000269868 -4.70509e-05 2.7906e-15)
(0.000255365 -3.73043e-05 -1.77762e-14)
(0.000242408 -2.87765e-05 -3.33909e-14)
(0.000230316 -1.9834e-05 1.48015e-14)
(0.000217139 -9.79916e-06 -2.76388e-14)
(0.000200482 4.3284e-07 -1.00715e-14)
(0.000180895 9.22227e-06 6.29065e-15)
(0.000159733 1.49279e-05 3.97513e-15)
(0.000137516 1.69521e-05 1.56522e-15)
(0.000115671 1.58752e-05 -1.0365e-15)
(9.91034e-05 1.25045e-05 -4.35934e-16)
(8.6491e-05 1.1981e-05 -7.71672e-17)
(6.88701e-05 1.17677e-05 -1.03876e-15)
(4.78832e-05 7.89415e-06 5.60226e-16)
(2.8923e-05 5.9726e-06 3.09217e-15)
(5.85597e-06 6.56374e-07 5.2895e-17)
(-2.68323e-05 -1.21981e-05 2.50895e-15)
(-4.6223e-05 -4.56817e-05 -3.4274e-15)
(-0.000119424 -1.62251e-05 -6.49323e-15)
(-0.000274772 -0.000104333 3.79755e-15)
(-0.000489139 -0.000710208 -2.26659e-14)
(-0.000226024 -0.000288779 2.41622e-15)
(-0.000191825 -0.000271629 4.02046e-15)
(-0.00010343 -0.000103399 -1.76523e-16)
(-7.11198e-05 -8.30536e-05 1.34775e-17)
(-3.58268e-05 -0.000112982 -2.53287e-15)
(3.58967e-05 -8.01262e-05 -6.75008e-15)
(0.000108456 -8.08803e-05 -4.94834e-15)
(0.000170451 -7.57624e-05 -5.24134e-14)
(0.000234867 -8.87625e-05 -1.0096e-15)
(0.000303981 -0.000119329 1.93002e-14)
(0.000369378 -0.000162884 -2.3305e-14)
(0.000429906 -0.000216625 1.41315e-13)
(0.000478026 -0.000283649 1.49145e-13)
(0.000515784 -0.000363231 2.6949e-14)
(0.000548191 -0.00045678 2.76982e-13)
(0.000571985 -0.000564557 -5.76311e-14)
(0.000586171 -0.000703629 -7.32271e-16)
(0.000578468 -0.000854772 2.14536e-13)
(0.000563317 -0.00110292 9.99528e-14)
(0.000457362 -0.00143102 -2.94298e-14)
(0.000190916 -0.00182693 -1.21945e-13)
(-0.000316788 -0.00223346 -1.15883e-14)
(-0.00122154 -0.00251189 -9.36856e-14)
(-0.00238364 -0.00206781 -8.10572e-14)
(-0.00280436 -0.000490535 4.8887e-14)
(-0.00166924 0.00119475 -3.11006e-14)
(7.63172e-05 0.00124169 -5.65045e-14)
(0.000737673 -0.000140311 6.45253e-15)
(0.000126241 -0.00106608 -3.11638e-15)
(-0.000655662 -0.000953133 -3.84088e-15)
(-0.001028 -0.000400771 8.20919e-14)
(-0.000945751 1.54531e-05 -2.93469e-14)
(-0.000339257 0.000107821 -3.90878e-14)
(0.000481161 -0.000121016 2.2718e-13)
(0.00161166 -0.000713699 3.70922e-14)
(0.00882344 -0.00587665 -8.30341e-14)
(-0.0114243 0.00291406 -1.58002e-14)
(-0.0100227 0.00390743 2.6217e-14)
(0.00592742 -0.0113696 -5.03994e-15)
(-0.000231462 -0.000334432 -1.31407e-14)
(-0.000207778 -0.000341704 -3.10073e-14)
(-0.00015527 -0.000336997 5.06778e-14)
(-9.45491e-05 -0.000354208 9.71431e-14)
(-3.0272e-05 -0.00033452 6.43143e-14)
(3.36887e-05 -0.000318654 -1.65782e-13)
(9.91473e-05 -0.00030898 -1.14085e-13)
(0.000179698 -0.000312259 -3.87801e-14)
(0.000239391 -0.000294171 7.08876e-14)
(0.000274077 -0.000256915 7.32216e-14)
(0.00029802 -0.000220774 2.73088e-14)
(0.000309374 -0.000186744 2.50695e-14)
(0.000310499 -0.000155761 -2.67483e-14)
(0.00030763 -0.000129355 -8.73467e-14)
(0.000301828 -0.000106606 1.34205e-14)
(0.000291592 -8.66786e-05 2.71003e-14)
(0.000279234 -7.01878e-05 1.8442e-14)
(0.00026592 -5.67554e-05 5.10976e-14)
(0.000252802 -4.55996e-05 -2.8489e-14)
(0.000239824 -3.64642e-05 -2.1267e-14)
(0.000227576 -2.83338e-05 -1.53262e-14)
(0.000215609 -2.00877e-05 -3.15575e-15)
(0.000202566 -1.0975e-05 2.46497e-14)
(0.000186591 -1.65848e-06 1.64647e-14)
(0.000168218 6.52374e-06 1.90998e-14)
(0.000148492 1.20997e-05 6.47535e-15)
(0.000127521 1.4348e-05 2.90274e-17)
(0.000106702 1.3427e-05 2.2158e-15)
(9.04978e-05 9.74552e-06 -3.08738e-16)
(7.80356e-05 8.68243e-06 3.03179e-16)
(6.11013e-05 7.78801e-06 -3.81194e-16)
(4.05967e-05 3.34092e-06 3.29272e-17)
(2.13994e-05 8.91407e-07 -1.77521e-15)
(-1.84836e-06 -2.38453e-06 4.22615e-16)
(-3.43922e-05 -8.77512e-06 4.66028e-15)
(-5.97558e-05 -3.72344e-05 -1.10684e-15)
(-0.000130348 -3.9031e-05 8.91546e-16)
(-0.000300986 -9.1246e-05 -8.15652e-15)
(-0.000829279 -0.000322608 7.94733e-15)
(-0.000171727 -9.60964e-05 -2.94486e-15)
(-0.000136272 -6.08239e-05 1.79364e-16)
(-6.61612e-05 5.01462e-06 -1.64854e-15)
(-3.85173e-06 6.36566e-05 -1.52324e-15)
(4.62507e-05 8.09947e-05 9.02146e-15)
(0.000104172 3.67351e-05 -2.93739e-15)
(0.000194257 5.82545e-05 2.93056e-14)
(0.000255745 2.80147e-05 2.05046e-14)
(0.000316329 -8.38963e-06 5.15918e-15)
(0.000370517 -3.92466e-05 -1.70765e-15)
(0.000427081 -8.93015e-05 7.11668e-15)
(0.000476967 -0.000147785 -3.14244e-14)
(0.000516438 -0.000219167 -1.37155e-13)
(0.000541131 -0.000301365 3.64279e-14)
(0.000557802 -0.000393902 1.88232e-14)
(0.000565355 -0.000498581 5.25481e-14)
(0.00055765 -0.00061747 -4.5288e-16)
(0.000533848 -0.000765305 -9.40967e-14)
(0.000508287 -0.00101339 -1.3904e-13)
(0.000404945 -0.0013295 -1.19722e-13)
(0.00016034 -0.00167456 -6.97165e-14)
(-0.000287247 -0.00198891 -5.64402e-14)
(-0.00102243 -0.00214274 1.91388e-14)
(-0.00191655 -0.00171696 6.72419e-14)
(-0.00224758 -0.000443664 -3.61944e-14)
(-0.00140426 0.000902191 -1.37683e-14)
(-4.1358e-05 0.000994227 4.44713e-14)
(0.000478533 -7.96107e-05 2.10542e-15)
(-9.91716e-05 -0.000893887 2.45391e-14)
(-0.000851924 -0.00084763 -3.05812e-14)
(-0.00113911 -0.000379081 -1.01185e-13)
(-0.00102191 -2.80707e-06 -5.51626e-14)
(-0.000635374 9.69289e-05 3.49525e-14)
(-0.000112345 -6.90029e-05 -1.5053e-14)
(0.000352397 -0.000369531 2.04014e-14)
(-0.000182522 1.944e-05 3.05398e-14)
(3.64099e-05 -0.00137741 5.41882e-15)
(0.00404333 -0.00636888 -1.69237e-14)
(0.00206355 -0.00569604 4.26665e-14)
(-0.000182899 -0.000143733 -2.4045e-14)
(-0.000171147 -0.000166653 1.50574e-14)
(-0.000132423 -0.000183209 4.42718e-14)
(-8.90797e-05 -0.000216929 1.45139e-14)
(-3.47099e-05 -0.000215021 1.02092e-13)
(1.8277e-05 -0.00022004 1.87012e-14)
(7.99746e-05 -0.000235705 -2.75858e-15)
(0.00013553 -0.000224324 -9.34355e-14)
(0.00019041 -0.00021897 -3.883e-14)
(0.000224763 -0.000201317 5.64795e-14)
(0.000245563 -0.000176271 6.41657e-14)
(0.000259037 -0.000151954 1.04449e-13)
(0.000264601 -0.000129426 9.98232e-14)