/*--------------------------------*- C++ -*----------------------------------*\
| =========                 |                                                 |
| \\      /  F ield         | OpenFOAM: The Open Source CFD Toolbox           |
|  \\    /   O peration     | Version:  2306                                  |
|   \\  /    A nd           | Website:  www.openfoam.com                      |
|    \\/     M anipulation  |                                                 |
\*---------------------------------------------------------------------------*/
FoamFile
{
    version     2.0;
    format      ascii;
    arch        "LSB;label=32;scalar=64";
    class       volScalarField;
    location    "275";
    object      p;
}
// * * * * * * * * * * * * * * * * * * * * * * * * * * * * * * * * * * * * * //

dimensions      [0 2 -2 0 0 0 0];

internalField   nonuniform List<scalar> 
10720
(
-62.501
-133.805
-217.672
-300.323
-376.691
-454.485
-523.502
-581.442
-631.774
-671.152
-701.131
-723.206
-738.507
-747.757
-751.135
-747.991
-739.233
-723.812
-703.153
-677.318
-649.666
-623.249
-600.632
-573.658
-533.401
-482.303
-429.917
-384.319
-345.076
-308.159
-271.665
-235.501
-199.712
-163.927
-127.745
-90.1294
-51.6122
-6.95037
26.1139
8.88748
73.9499
143.315
208.08
263.43
305.378
330.153
338.459
336.077
323.192
302.176
278.639
255.098
232.318
210.938
190.825
172.035
154.137
136.862
119.717
102.652
85.356
67.9218
50.7613
35.7421
23.9046
14.1885
6.30559
0.440776
-3.44044
-5.58635
-6.14509
-5.19933
-2.75521
1.19609
7.00835
15.2561
29.1833
52.8817
43.0561
-11.1129
-71.7991
-136.25
-202.48
-270.265
-336.05
-397.759
-454.707
-505.139
-548.844
-585.83
-616.003
-639.36
-655.719
-664.778
-667.291
-663.14
-653.378
-638.552
-621.307
-604.002
-587.719
-565.297
-528.526
-479.46
-428.306
-383.247
-344.192
-307.354
-270.889
-234.762
-199.045
-163.355
-127.279
-89.7611
-51.3234
-6.64921
25.8032
91.8006
138.267
184.617
229.328
268.734
300.222
320.654
329.366
327.955
317.281
300.109
279.918
258.661
237.277
216.474
196.501
177.488
159.253
141.598
124.196
106.946
89.6432
72.3696
55.55
40.6568
28.617
18.7481
10.6358
4.24421
-0.326524
-3.0893
-4.13851
-3.57765
-1.43939
2.27513
7.91049
16.0255
29.874
52.641
56.8502
8.18036
-46.619
-107.122
-169.85
-234.142
-298.432
-360.06
-417.444
-469.583
-515.228
-553.823
-585.063
-609.141
-626.29
-636.928
-641.084
-638.821
-630.785
-617.701
-601.428
-583.996
-566.562
-544.666
-511.471
-467.354
-420.448
-377.917
-340.271
-304.459
-268.841
-233.362
-198.065
-162.628
-126.72
-89.3353
-51.0033
-6.40124
25.9219
100.77
143.442
185.885
226.072
260.79
288.421
306.858
315.791
315.965
308.04
294.098
276.489
256.996
236.787
216.674
197.092
178.241
160.086
142.485
125.195
108.082
91.0061
74.0305
57.5372
42.6889
30.389
20.2665
11.9665
5.47509
0.879803
-1.88284
-2.97059
-2.50133
-0.489224
3.09657
8.61843
16.6451
30.3592
52.2438
79.4839
38.6843
-7.92314
-59.1768
-112.986
-169.281
-226.398
-282.575
-336.489
-386.983
-432.937
-473.62
-508.569
-537.634
-560.69
-577.861
-588.696
-593.152
-591.542
-584.481
-573.255
-559.411
-543.783
-523.506
-493.653
-454.176
-411.292
-371.212
-334.982
-300.285
-265.656
-231.003
-196.381
-161.483
-125.967
-88.8543
-50.704
-6.30231
26.1228
116.029
151.127
186.334
220.301
250.034
274.27
291.193
300.32
301.897
296.385
285.381
270.628
253.587
235.359
216.732
198.191
180.009
162.273
144.926
127.823
110.864
93.9752
77.2269
60.9786
46.1893
33.7089
23.3701
14.8498
8.10417
3.19512
0.0664953
-1.38606
-1.23839
0.514843
3.90859
9.29462
17.2225
30.7633
51.7983
85.6236
49.2975
7.605
-38.5778
-87.1967
-138.663
-191.602
-244.403
-296.055
-345.401
-391.294
-432.924
-469.612
-500.862
-526.372
-545.831
-558.992
-565.858
-566.667
-562.041
-552.998
-540.824
-526.163
-506.977
-479.454
-443.244
-403.242
-364.948
-329.768
-295.948
-262.16
-228.264
-194.299
-159.97
-124.944
-88.2536
-50.4123
-6.34419
26.1798
118.244
149.404
180.745
210.978
237.463
259.326
275.171
284.418
287.095
283.623
275.152
262.997
248.301
232.025
214.92
197.494
180.084
162.867
145.879
129.061
112.357
95.7374
79.2875
63.3384
48.6821
36.0919
25.5596
16.8282
9.85917
4.72041
1.38526
-0.231794
-0.212629
1.43254
4.73189
10.031
17.8668
31.1982
51.3441
89.4285
57.2673
20.161
-20.9095
-64.1591
-110.288
-158.014
-206.058
-253.68
-299.822
-343.516
-383.992
-420.515
-452.486
-479.48
-501.12
-517.287
-527.784
-532.619
-532.153
-527.063
-518.241
-506.09
-489.138
-464.475
-431.681
-394.715
-358.455
-324.531
-291.662
-258.693
-225.502
-192.157
-158.38
-123.841
-87.6
-50.1496
-6.55711
26.0574
118.311
145.797
173.642
200.703
224.538
244.502
259.464
268.743
272.249
270.396
264.029
254.162
241.689
227.41
211.999
195.936
179.574
163.143
146.742
130.388
114.071
97.8077
81.6984
66.0586
51.5632
38.9154
28.2274
19.3196
12.1583
6.80777
3.25404
1.41377
1.20999
2.63947
5.74435
10.8751
18.5557
31.618
50.8503
89.3578
60.332
26.7548
-10.4434
-49.538
-91.4626
-135.081
-179.271
-223.539
-266.946
-308.653
-347.975
-384.161
-416.565
-444.668
-468.019
-486.209
-498.973
-506.162
-508.055
-505.195
-498.285
-487.646
-472.269
-449.976
-420.268
-386.206
-351.988
-319.355
-287.456
-255.314
-222.813
-190.04
-156.771
-122.722
-86.9683
-49.9792
-6.97843
25.7296
115.451
140.204
165.408
190.004
211.751
230.194
244.401
253.632
257.75
257.165
252.519
244.608
234.135
221.744
208.013
193.368
178.147
162.609
146.902
131.098
115.24
99.3838
83.6511
68.3431
54.0456
41.3975
30.5951
21.5339
14.1912
8.63068
4.85279
2.7927
2.38532
3.63624
6.59212
11.597
19.152
31.9404
50.2821
87.686
61.3391
30.7973
-3.00807
-38.4411
-76.5604
-116.319
-156.741
-197.503
-237.806
-276.924
-314.286
-349.201
-381.032
-409.222
-433.26
-452.683
-467.253
-476.767
-481.289
-481.12
-476.688
-468.154
-454.788
-434.993
-408.307
-377.107
-344.994
-313.761
-282.93
-251.707
-219.981
-187.849
-155.121
-121.564
-86.3188
-49.8821
-7.59171
25.1452
111.407
133.86
156.851
179.397
199.409
216.588
230.119
239.23
243.797
244.191
240.933
234.666
225.948
215.295
203.187
189.982
175.989
161.465
146.582
131.453
116.162
100.799
85.5027
70.5655
56.5114
43.9236
33.0556
23.8751
16.3775
10.6287
6.64521
4.37803
3.77023
4.83118
7.61376
12.4572
19.8419
32.2889
49.7119
84.797
60.6719
32.6729
1.70517
-30.6519
-65.5212
-101.957
-139.077
-176.702
-214.137
-250.775
-286.154
-319.654
-350.675
-378.67
-403.103
-423.477
-439.427
-450.666
-457.089
-458.862
-456.279
-449.429
-437.794
-420.207
-396.249
-367.732
-337.693
-307.899
-278.177
-247.906
-216.993
-185.544
-153.401
-120.362
-85.6352
-49.7963
-8.30229
24.2859
106.549
127.107
148.26
169.088
187.634
203.744
216.658
225.603
230.483
231.631
229.485
224.583
217.379
208.286
197.693
185.891
173.147
159.696
145.715
131.342
116.692
101.881
87.0661
72.5318
58.7575
46.2798
35.3896
26.1193
18.4872
12.5642
8.38131
5.90678
5.09562
5.9651
8.57498
13.2577
20.4681
32.5556
49.082
81.2549
59.037
33.2331
4.72832
-24.9594
-56.9782
-90.4479
-124.574
-159.278
-193.948
-228.089
-261.332
-293.125
-322.949
-350.277
-374.568
-395.317
-412.114
-424.655
-432.728
-436.337
-435.61
-430.535
-420.715
-405.3
-383.935
-358.003
-330.045
-301.748
-273.184
-243.906
-213.842
-183.109
-151.586
-119.104
-84.9213
-49.6937
-9.05308
23.2022
101.322
120.264
139.847
159.202
176.491
191.666
204.012
212.759
217.844
219.568
218.312
214.535
208.62
200.901
191.694
181.226
169.715
157.367
144.349
130.804
116.868
102.675
88.3942
74.3053
60.8547
48.5424
37.6813
28.3592
20.6217
14.5468
10.1804
7.50936
6.50036
7.17703
9.60649
14.1123
21.1224
32.803
48.4218
77.3266
56.755
32.853
6.48429
-20.8828
-50.4093
-81.2683
-112.737
-144.795
-176.915
-208.692
-239.842
-269.884
-298.364
-324.807
-348.698
-369.531
-386.872
-400.359
-409.703
-414.765
-415.572
-412.055
-403.898
-390.48
-371.506
-348.015
-322.1
-295.329
-267.964
-239.712
-210.532
-180.55
-149.68
-117.788
-84.1856
-49.5701
-9.85343
21.9599
95.9388
113.492
131.717
149.794
165.987
180.333
192.147
200.677
205.883
208.044
207.494
204.642
199.817
193.296
185.334
176.107
165.784
154.535
142.507
129.839
116.67
103.149
89.448
75.8415
62.7545
50.6563
39.8716
30.5342
22.718
16.5115
11.9751
9.11428
7.90986
8.39284
10.6384
14.9596
21.7551
33.0023
47.7261
73.2158
54.0874
31.8568
7.36689
-17.963
-45.2873
-73.8235
-102.904
-132.561
-162.324
-191.864
-220.969
-249.224
-276.248
-301.612
-324.839
-345.446
-362.988
-377.074
-387.388
-393.665
-395.84
-393.784
-387.222
-375.694
-358.952
-337.771
-313.86
-288.643
-262.517
-235.327
-207.067
-177.871
-147.687
-116.418
-83.4365
-49.4442
-10.719
20.5849
90.5568
106.897
123.932
140.882
156.111
169.707
181.02
189.322
194.584
197.071
197.083
194.988
191.079
185.591
178.736
170.644
161.443
151.266
140.232
128.468
116.11
103.306
90.2274
77.143
64.4602
52.6248
41.9657
32.653
24.7897
18.4763
13.7881
10.7494
9.35587
9.64559
11.7021
15.8259
22.3856
33.166
46.9998
69.0523
51.1971
30.4478
7.62199
-15.9059
-41.2748
-67.7409
-94.6799
-122.163
-149.774
-177.232
-204.39
-230.892
-256.421
-280.606
-303.012
-323.187
-340.692
-355.111
-366.116
-373.351
-376.668
-375.901
-370.8
-361.013
-346.331
-327.319
-305.354
-281.703
-256.845
-230.75
-203.443
-175.068
-145.606
-114.995
-82.6735
-49.3371
-11.6505
19.0827
85.2659
100.541
116.518
132.463
146.833
159.747
170.585
178.653
183.921
186.646
187.103
185.626
182.485
177.885
172.002
164.935
156.776
147.624
137.571
126.721
115.197
103.142
90.7226
78.1964
65.9562
54.4284
43.9418
34.6941
26.8152
20.4202
15.5989
12.394
10.8175
10.915
12.7785
16.6954
23.0021
33.2898
46.2455
64.9222
48.2014
28.7763
7.43734
-14.4835
-38.1046
-62.7167
-87.7279
-113.244
-138.885
-164.413
-189.731
-214.539
-238.572
-261.517
-282.987
-302.559
-319.817
-334.333
-345.78
-353.753
-358.024
-358.396
-354.634
-346.455
-333.673
-316.693
-296.606
-274.519
-250.955
-225.982
-199.66
-172.141
-143.435
-113.517
-81.8934
-49.2558
-12.6451
17.4677
80.129
94.4528
109.486
124.526
138.123
150.409
160.796
168.626
173.864
176.76
177.567
176.594
174.094
170.251
165.217
159.066
151.864
143.678
134.573
124.628
113.95
102.666
90.9343
78.9984
67.2364
56.0587
45.7902
36.6484
28.7878
22.3387
17.4054
14.0487
12.2978
12.2053
13.8725
17.5715
23.6069
33.3775
45.4672
60.8814
45.1811
26.9473
6.94651
-13.5332
-35.5845
-58.5254
-81.7993
-105.528
-129.366
-153.113
-176.71
-199.902
-222.476
-244.162
-264.624
-283.476
-300.329
-314.763
-326.444
-334.951
-339.99
-341.342
-338.779
-332.063
-321.022
-305.932
-287.646
-267.109
-244.854
-221.026
-195.717
-169.087
-141.173
-111.984
-81.0948
-49.1957
-13.7002
15.7525
75.1834
88.6521
102.831
117.052
129.945
141.65
151.611
159.2
164.379
167.391
168.472
167.909
165.945
162.747
158.45
153.113
146.779
139.491
131.288
122.225
112.389
101.889
90.8655
79.5461
68.2937
57.5049
47.4974
38.5021
30.6942
24.2195
19.1967
15.7041
13.788
13.509
14.977
18.4486
24.1957
33.4295
44.6685
56.967
42.1919
25.037
6.2484
-12.9313
-33.5624
-54.991
-76.6912
-98.7953
-120.984
-143.092
-165.085
-186.748
-207.909
-228.346
-247.763
-265.814
-282.141
-296.343
-308.076
-316.942
-322.584
-324.763
-323.262
-317.867
-308.415
-295.076
-278.506
-259.492
-238.552
-215.887
-191.616
-165.906
-138.819
-110.394
-80.2771
-49.1536
-14.8091
13.9432
70.4498
83.1448
96.5471
110.02
122.266
133.431
142.989
150.336
155.435
158.52
159.813
159.584
158.066
155.415
151.757
147.137
141.584
135.121
127.767
119.553
110.543
100.825
90.522
79.8399
69.1254
58.7601
49.0535
40.244
32.5237
26.0532
20.9648
17.3538
15.2837
14.8229
16.0897
19.3248
24.7675
33.4482
43.8535
53.204
39.2708
23.0989
5.41544
-12.5851
-31.925
-51.981
-72.2492
-92.8716
-113.554
-134.152
-154.653
-174.879
-194.69
-213.904
-232.266
-249.467
-265.182
-279.034
-290.678
-299.743
-305.835
-308.698
-308.12
-303.905
-295.891
-284.166
-269.217
-251.689
-232.063
-210.572
-187.361
-162.6
-136.373
-108.748
-79.4403
-49.1273
-15.9636
12.0462
65.9389
77.9304
90.6208
103.405
115.056
125.716
134.889
141.998
146.999
150.123
151.578
151.62
150.473
148.289
145.181
141.19
136.335
130.625
124.059
116.651
108.441
99.4964
89.9158
79.8845
69.7297
59.8182
50.4489
41.8628
34.2649
27.8288
22.7
18.9896
16.7777
16.1413
17.2059
20.1963
25.3201
33.4356
43.0262
49.6064
36.4438
21.175
4.50058
-12.4216
-30.5854
-49.3873
-68.3501
-87.618
-106.918
-126.125
-145.246
-164.125
-182.657
-200.689
-218.003
-234.33
-249.371
-262.782
-274.221
-283.35
-289.757
-293.17
-293.381
-290.208
-283.489
-273.242
-259.817
-243.727
-225.402
-205.092
-182.957
-159.171
-133.834
-107.044
-78.5826
-49.1159
-17.155
10.0727
61.6548
73.0012
85.0362
97.1857
108.284
118.469
127.276
134.148
139.04
142.177
143.755
144.016
143.179
141.389
138.755
135.315
131.08
126.05
120.211
113.56
106.116
97.9244
89.0614
79.6872
70.1084
60.676
51.6762
43.3488
35.9071
29.5359
24.3928
20.6033
18.2633
17.4588
18.3212
21.06
25.8518
33.3943
42.1915
46.1813
33.7286
19.2903
3.54626
-12.3895
-29.4733
-47.1271
-64.8931
-82.9213
-100.953
-118.878
-136.719
-154.343
-171.665
-188.565
-204.853
-220.297
-234.629
-247.532
-258.68
-267.756
-274.358
-278.199
-279.071
-276.807
-271.243
-262.342
-250.34
-235.631
-218.586
-199.456
-178.41
-155.621
-131.205
-105.283
-77.7031
-49.1176
-18.3742
8.03462
57.5968
68.3487
79.7773
91.3383
101.918
111.658
120.116
126.755
131.53
134.659
136.326
136.764
136.185
134.73
132.505
129.545
125.859
121.439
116.265
110.318
103.599
96.1337
87.9746
79.2576
70.2662
61.3325
52.7299
44.6933
37.4402
31.1642
26.0333
22.186
19.7329
18.7691
19.4304
21.9122
26.3612
33.3269
41.3538
42.9323
31.1362
17.4658
2.58045
-12.4459
-28.537
-45.1338
-61.802
-78.6902
-95.5543
-112.296
-128.951
-145.403
-161.588
-177.41
-192.706
-207.275
-220.879
-233.228
-244.016
-252.946
-259.641
-263.796
-265.211
-263.73
-259.189
-251.506
-240.823
-227.43
-211.637
-193.678
-173.727
-151.954
-128.487
-103.465
-76.7997
-49.1294
-19.6128
5.94498
53.7608
63.9628
74.8281
85.8409
95.9362
105.253
113.379
119.79
124.442
127.545
129.277
129.857
129.492
128.322
126.448
123.907
120.705
116.832
112.261
106.962
100.924
94.1515
86.6763
78.6095
70.2094
61.7887
53.6062
45.889
38.855
32.7037
27.6117
23.7287
21.1786
20.0656
20.5284
22.7491
26.8466
33.2359
40.5176
39.8586
28.6724
15.7155
1.62651
-12.5601
-27.7335
-43.3561
-59.0122
-74.8498
-90.6374
-106.289
-121.845
-137.207
-152.325
-167.124
-181.467
-195.178
-208.048
-219.812
-230.193
-238.9
-245.598
-249.97
-251.819
-251.003
-247.358
-240.77
-231.302
-219.155
-204.575
-187.774
-168.919
-148.177
-125.682
-101.589
-75.8704
-49.1471
-20.8613
3.81809
50.1422
59.8322
70.1721
80.672
90.3117
99.2297
107.037
113.227
117.751
120.816
122.591
123.284
123.098
122.17
120.598
118.42
115.645
112.259
108.232
103.527
98.1215
92.005
85.1883
77.7579
69.947
62.048
54.3035
46.9303
40.1434
34.145
29.1182
25.2222
22.5921
21.3413
21.6096
23.5671
27.3068
33.1244
39.6874
36.9584
26.3404
14.0477
0.700198
-12.707
-27.0305
-41.7508
-56.4721
-71.3375
-86.1312
-100.774
-115.313
-129.66
-143.78
-157.615
-171.047
-183.926
-196.066
-207.231
-217.166
-225.594
-232.221
-236.722
-238.907
-238.646
-235.78
-230.168
-221.813
-210.837
-197.426
-181.761
-163.998
-144.296
-122.793
-99.6573
-74.9131
-49.1662
-22.1094
1.66884
46.7332
55.9454
65.7931
75.8115
85.0222
93.5628
101.066
107.038
111.433
114.451
116.252
117.035
116.998
116.275
114.964
113.103
110.701
107.747
104.209
100.045
95.2235
89.7214
83.5321
76.719
69.4903
62.1163
54.8224
47.8135
41.2985
35.4794
30.5435
26.6572
23.965
22.5888
22.668
24.3621
27.7406
32.9947
38.8678
34.2276
24.1402
12.4688
-0.186314
-12.8701
-26.4019
-40.2852
-54.1395
-68.106
-81.9781
-95.6863
-109.281
-122.684
-135.872
-148.8
-161.366
-173.444
-184.869
-195.43
-204.894
-213.002
-219.493
-224.049
-226.484
-226.678
-224.48
-219.733
-212.39
-202.507
-190.213
-175.657
-158.977
-140.319
-119.824
-97.6693
-73.9253
-49.1811
-23.348
-0.488694
43.5252
52.2915
61.677
71.2415
80.0474
88.2297
95.4404
101.202
105.466
108.429
110.243
111.096
111.184
110.637
109.549
107.963
105.89
103.319
100.217
96.5431
92.2575
87.3274
81.7312
75.512
68.8526
62.0012
55.1656
48.5363
42.3146
36.6992
31.8786
28.0244
25.2888
23.8004
23.6978
25.1303
28.1468
32.8496
38.0629
31.6611
22.0709
10.9817
-1.0251
-13.0333
-25.8278
-38.9319
-51.9809
-65.1122
-78.1311
-90.9726
-103.69
-116.215
-128.531
-140.606
-152.354
-163.665
-174.394
-184.354
-193.335
-201.093
-207.397
-211.944
-214.553
-215.112
-213.482
-209.495
-203.066
-194.197
-182.965
-169.483
-153.868
-136.256
-116.781
-95.6265
-72.9046
-49.1855
-24.5664
-2.639
40.5107
48.8578
57.8088
66.9455
75.3682
83.209
90.1396
95.6957
99.831
102.734
104.549
105.457
105.648
105.25
104.356
103.01
101.225
98.9913
96.2795
93.0465
89.2496
84.8483
79.809
74.1558
68.0484
61.7122
55.337
49.0989
43.1879
37.7974
33.1152
29.3151
26.5545
24.9684
24.6926
25.8676
28.5244
32.6914
37.2766
29.2525
20.1301
9.58801
-1.81075
-13.1864
-25.2921
-37.6686
-49.9674
-62.3225
-74.5481
-86.5844
-98.4866
-110.194
-121.697
-132.972
-143.947
-154.527
-164.585
-173.955
-182.447
-189.836
-195.914
-200.399
-203.114
-203.959
-202.805
-199.481
-193.872
-185.937
-175.708
-163.26
-148.691
-132.117
-113.669
-93.5307
-71.8477
-49.173
-25.7541
-4.76716
37.6809
45.6338
54.1745
62.9061
70.9655
78.4812
85.1437
90.5016
94.5084
97.3466
99.1546
100.105
100.382
100.112
99.3847
98.2471
96.7141
94.779
92.4135
89.5765
86.2231
82.3074
77.7869
72.67
67.093
61.2604
55.3432
49.5024
43.9159
38.769
34.2458
30.5207
27.754
26.0849
25.6463
26.57
28.8725
32.5223
36.5125
26.9959
18.3143
8.28727
-2.53982
-13.3223
-24.7827
-36.4789
-48.0775
-59.7089
-71.1955
-82.4833
-93.6266
-104.572
-115.317
-125.843
-136.089
-145.975
-155.39
-164.185
-172.189
-179.198
-185.02
-189.4
-192.166
-193.226
-192.466
-189.715
-184.836
-177.757
-168.467
-157.012
-143.46
-127.913
-110.494
-91.3825
-70.7531
-49.1359
-26.9006
-6.85797
35.0272
42.6083
50.7609
59.1081
66.8228
74.0288
80.4335
85.5999
89.4802
92.2513
94.0454
95.0271
95.3763
95.2147
94.6324
93.6763
92.3642
90.6919
88.6341
86.1513
83.1987
79.7265
75.6863
71.0728
66.0026
60.6576
55.1918
49.7503
44.4976
39.6095
35.264
31.6335
28.8792
27.1425
26.5526
27.2336
29.1898
32.3441
35.7734
24.8852
16.6191
7.07859
-3.21011
-13.435
-24.2896
-35.3485
-46.2922
-57.2476
-68.0448
-78.6353
-89.072
-99.3078
-109.344
-119.169
-128.731
-137.96
-146.761
-154.999
-162.523
-169.146
-174.691
-178.933
-181.702
-182.916
-182.477
-180.217
-175.986
-169.684
-161.271
-150.76
-138.195
-123.659
-107.264
-89.1862
-69.6173
-49.0673
-27.9969
-8.89619
32.5408
39.7705
47.5556
55.5385
62.9246
69.8356
75.9928
80.9737
84.7297
87.4324
89.2071
90.2116
90.6201
90.5518
90.0953
89.2978
88.1794
86.7387
84.9532
82.7864
80.194
77.1255
73.5273
69.3844
64.7936
59.9172
54.8917
49.8473
44.934
40.3162
36.1642
32.6465
29.9222
28.1337
27.4055
27.8543
29.4756
32.1581
35.0619
22.9133
15.0405
5.95921
-3.82048
-13.5209
-23.8056
-34.2659
-44.5969
-54.9196
-65.0733
-75.0129
-84.7915
-94.365
-103.74
-112.909
-121.828
-130.438
-138.653
-146.357
-153.412
-159.65
-164.905
-168.982
-171.714
-173.031
-172.848
-171.006
-167.344
-161.746
-154.145
-144.527
-132.913
-119.367
-103.987
-86.9426
-68.4384
-48.9608
-29.0322
-10.868
30.2131
37.1102
44.5471
52.1831
59.2566
65.8861
71.8055
76.607
80.2415
82.8748
84.6264
85.6465
86.1047
86.1164
85.7687
85.1097
84.1611
82.9242
81.3798
79.4939
77.2245
74.5217
71.3287
67.6221
63.4823
59.0525
54.4532
49.7994
45.227
40.8877
36.9426
33.5532
30.8758
29.0515
28.199
28.4284
29.7285
31.9657
34.3797
21.0737
13.5732
4.92692
-4.37149
-13.5774
-23.3257
-33.2227
-42.9784
-52.7085
-62.2605
-71.5915
-80.7557
-89.7122
-98.4696
-107.025
-115.341
-123.367
-131.028
-138.22
-144.82
-150.676
-155.636
-159.527
-162.192
-163.568
-163.586
-162.095
-158.931
-153.966
-147.115
-138.337
-127.634
-115.05
-100.672
-84.656
-67.2142
-48.8069
-29.9978
-12.7601
28.0362
34.6178
41.7238
49.0295
55.8048
62.1653
67.8568
72.4848
76.0008
78.5646
80.2899
81.3199
81.8192
81.9
81.6466
81.1086
80.309
79.2515
77.9201
76.2839
74.3038
71.9304
69.1065
65.8026
62.0841
58.0771
53.8869
49.6143
45.3805
41.3243
37.5959
34.3491
31.7341
29.8893
28.9277
28.9522
29.9478
31.7674
33.7278
19.3599
12.2124
3.97867
-4.86425
-13.6029
-22.8446
-32.2116
-41.4262
-50.6004
-59.5884
-68.351
-76.9407
-85.3207
-93.5016
-101.483
-109.234
-116.711
-123.848
-130.553
-136.715
-142.198
-146.859
-150.551
-153.124
-154.524
-154.694
-153.495
-150.765
-146.367
-140.202
-132.211
-122.377
-110.725
-97.3279
-82.3301
-65.9428
-48.6007
-30.8841
-14.56
26.002
32.2837
39.0753
46.0664
52.557
58.66
64.1328
68.5932
71.9939
74.4884
76.1852
77.2206
77.7533
77.8938
77.7229
77.2908
76.6222
75.7223
74.5787
73.1641
71.4417
69.3646
66.8758
63.9415
60.6144
57.0049
53.2044
49.3
45.3992
41.6274
38.1229
35.0298
32.4915
30.6414
29.5863
29.4222
30.132
31.5634
33.1067
17.7652
10.9531
3.11083
-5.30005
-13.5969
-22.3602
-31.2272
-39.9329
-48.5846
-57.0441
-65.2741
-73.3267
-81.1681
-88.8099
-96.2553
-103.477
-110.439
-117.081
-123.323
-129.065
-134.185
-138.551
-142.035
-144.497
-145.891
-146.173
-145.216
-142.861
-138.968
-133.428
-126.171
-117.16
-106.405
-93.9649
-79.9687
-64.6232
-48.335
-31.6837
-16.257
24.1028
30.0995
36.5914
43.2826
49.5011
55.3577
60.62
64.9196
68.2081
70.6341
72.3002
73.3371
73.8978
74.0892
73.9904
73.6511
73.0976
72.3365
71.3586
70.1401
68.6472
66.8354
64.6496
62.0529
59.0875
55.8493
52.4171
48.8658
45.2894
41.7999
38.5231
35.5929
33.1438
31.3028
30.1703
29.8351
30.2799
31.3534
32.5158
16.2836
9.79007
2.31993
-5.68096
-13.5596
-21.8704
-30.2653
-38.4917
-46.6524
-54.6153
-62.3465
-69.8961
-77.2337
-84.3715
-91.3155
-98.042
-104.52
-110.697
-116.501
-121.843
-126.612
-130.688
-133.96
-136.297
-137.662
-138.022
-137.261
-135.229
-131.784
-126.814
-120.236
-112.002
-102.106
-90.5927
-77.5767
-63.2553
-48.0042
-32.3893
-17.8413
22.3311
28.0568
34.263
40.6673
46.626
52.2466
57.3069
61.4512
64.6308
66.9893
68.624
69.6592
70.2428
70.4779
70.4418
70.1842
69.7314
69.0928
68.2611
67.2158
65.9267
64.3521
62.4392
60.1497
57.5166
54.6231
51.5367
48.3211
45.0577
41.8455
38.7979
36.037
33.6877
31.8693
30.6757
30.188
30.3901
31.137
31.9542
14.9086
8.7183
1.60222
-6.0092
-13.4914
-21.3737
-29.3224
-37.0964
-44.7948
-52.2911
-59.5546
-66.6332
-73.4995
-80.1666
-86.6414
-92.9045
-98.9284
-104.668
-110.059
-115.021
-119.454
-123.248
-126.305
-128.509
-129.828
-130.237
-129.635
-127.878
-124.83
-120.376
-114.425
-106.92
-97.8414
-87.2217
-75.1595
-61.8381
-47.6037
-32.9943
-19.3039
20.6799
26.1474
32.0809
38.2112
43.9212
49.3157
54.1822
58.1764
61.2507
63.5429
65.1452
66.1761
66.778
67.0513
67.0699
66.8838
66.5199
65.9885
65.2857
64.3936
63.2851
61.922
60.2541
58.2429
55.9138
53.3384
50.5746
47.6759
44.7121
41.7697
38.9494
36.3618
34.1212
32.3379
31.0993
30.4783
30.4614
30.9129
31.4201
13.6344
7.73287
0.953866
-6.28719
-13.3932
-20.8697
-28.396
-35.7433
-43.0054
-50.0631
-56.8874
-63.5245
-69.9494
-76.1763
-82.2129
-88.0426
-93.6419
-98.9715
-103.972
-108.574
-112.685
-116.207
-119.053
-121.118
-122.377
-122.814
-122.338
-120.816
-118.118
-114.128
-108.754
-101.929
-93.6258
-83.8624
-72.7224
-60.3736
-47.129
-33.4933
-20.6382
19.1423
24.3635
30.0368
35.9051
41.377
46.5548
51.2346
55.0845
58.0568
60.2838
61.8533
62.8777
63.4942
63.8001
63.8668
63.7436
63.4576
63.021
62.4315
61.6745
60.7258
59.5506
58.102
56.342
54.2897
52.0067
49.5419
46.9402
44.2608
41.5783
38.9814
36.5687
34.4435
32.7066
31.4383
30.7038
30.4921
30.6797
30.9111
12.4552
6.82883
0.371055
-6.51764
-13.2665
-20.358
-27.4847
-34.4286
-41.2798
-47.9243
-54.3359
-60.5592
-66.571
-72.3857
-78.0122
-83.4367
-88.6385
-93.5832
-98.2181
-102.479
-106.286
-109.547
-112.185
-114.109
-115.298
-115.744
-115.368
-114.046
-111.655
-108.083
-103.237
-97.0458
-89.4723
-80.5251
-70.2718
-58.8628
-46.5786
-33.883
-21.8383
17.7118
22.6979
28.1225
33.74
38.9839
43.9538
48.4543
52.1651
55.0386
57.2018
58.7384
59.7544
60.3826
60.7167
60.8253
60.757
60.5397
60.1864
59.6965
59.0584
58.2509
57.2425
55.9897
54.4555
52.6543
50.6383
48.4492
46.1239
43.7122
41.278
38.8984
36.66
34.6551
32.9744
31.6913
30.8628
30.4811
30.4358
30.4243
11.3654
6.00153
-0.150078
-6.70322
-13.1126
-19.8388
-26.5867
-33.1492
-39.6127
-45.8681
-51.8919
-57.7267
-63.3512
-68.7805
-74.024
-79.0695
-83.8995
-88.4838
-92.7751
-96.7161
-100.234
-103.246
-105.684
-107.467
-108.58
-109.021
-108.722
-107.57
-105.448
-102.251
-97.8869
-92.2821
-85.3934
-77.2194
-67.814
-57.3082
-45.9508
-34.1602
-22.9003
16.382
21.1438
26.3304
31.708
36.7334
41.5038
45.8317
49.4083
52.1863
54.2873
55.7909
56.7971
57.4341
57.792
57.9373
57.9173
57.7605
57.4801
57.078
56.5445
55.8614
55.0006
53.9221
52.5906
51.0158
49.2428
47.3064
45.2367
43.0755
40.8764
38.7059
36.6393
34.7577
33.1417
31.8572
30.9541
30.427
30.1791
29.9564
10.3597
5.24635
-0.613283
-6.84683
-12.9335
-19.3128
-25.7018
-31.9036
-38.0006
-43.8895
-49.5482
-55.0184
-60.28
-65.3484
-70.2335
-74.9252
-79.4078
-83.655
-87.6245
-91.265
-94.5101
-97.2859
-99.5307
-101.176
-102.21
-102.636
-102.395
-101.386
-99.5011
-96.6398
-92.7138
-87.6497
-81.3999
-73.9551
-65.3554
-55.7131
-45.245
-34.3237
-23.8218
15.1472
19.6945
24.6534
29.8012
34.6171
39.1958
43.3579
46.8051
49.4906
51.5308
53.0013
53.9967
54.6402
55.0184
55.1955
55.218
55.114
54.8978
54.5726
54.1311
53.5575
52.827
51.9032
50.7528
49.3817
47.8287
46.1226
44.2881
42.3593
40.3813
38.4102
36.5111
34.754
33.2096
31.9363
30.9771
30.3286
29.9075
29.5038
9.4329
4.55887
-1.02221
-6.95104
-12.7308
-18.7805
-24.8292
-30.6895
-36.4402
-41.9835
-47.299
-52.4267
-57.3482
-62.0788
-66.6289
-70.9896
-75.1481
-79.0804
-82.749
-86.1074
-89.0967
-91.6492
-93.7103
-95.2215
-96.1739
-96.5773
-96.3808
-95.4929
-93.8149
-91.254
-87.7257
-83.1584
-77.5022
-70.7409
-62.9029
-54.0817
-44.4629
-34.3731
-24.6016
14.0014
18.3437
23.0846
28.0121
32.6273
37.0219
41.0242
44.3468
46.9426
48.9237
50.361
51.3445
51.9922
52.3877
52.5924
52.6521
52.5944
52.4345
52.1767
51.8157
51.3385
50.7227
49.9358
48.9467
47.7584
46.4035
44.9064
43.2868
41.5725
39.8007
38.0185
36.2809
34.6479
33.1804
31.9296
30.9317
30.1851
29.6189
29.0625
8.58023
3.93459
-1.38039
-7.0187
-12.5066
-18.2428
-23.9686
-29.5055
-34.9292
-40.1466
-45.1391
-49.9449
-54.5474
-58.9621
-63.1988
-67.2505
-71.1062
-74.7447
-78.1323
-81.2271
-83.9762
-86.3188
-88.2058
-89.5882
-90.4602
-90.8357
-90.6715
-89.8861
-88.3895
-86.0967
-82.9284
-78.8162
-73.7089
-67.5853
-60.4632
-52.4181
-43.6066
-34.3099
-25.2404
12.9392
17.0855
21.6177
26.3339
30.7564
34.9741
38.8228
42.0249
44.5342
46.4574
47.8618
48.8324
49.4824
49.8923
50.1209
50.2128
50.1958
50.085
49.8863
49.5958
49.2028
48.6881
48.0222
47.1762
46.151
44.9741
43.6657
42.2415
40.7238
39.1429
37.538
35.9549
34.4442
33.0576
31.8389
30.8185
29.9958
29.3109
28.6286
7.79693
3.36958
-1.69142
-7.0526
-12.2625
-17.7009
-23.1201
-28.3508
-33.4652
-38.3751
-43.0632
-47.5669
-51.8704
-55.989
-59.9331
-63.6963
-67.2697
-70.6342
-73.7596
-76.6086
-79.1331
-81.279
-83.0023
-84.2618
-85.0553
-85.3994
-85.2587
-84.5601
-83.2228
-81.1693
-78.3264
-74.6292
-70.0274
-64.4958
-58.0429
-50.728
-42.6798
-34.1368
-25.74
11.9555
15.9143
20.2464
24.7602
28.9977
33.0454
36.7459
39.8319
42.2572
44.1239
45.4956
46.4526
47.1031
47.5247
47.7738
47.8939
47.9123
47.8444
47.697
47.4682
47.149
46.7228
46.1634
45.444
44.5641
43.5463
42.4075
41.16
39.8214
38.4164
36.9766
35.54
34.1484
32.8451
31.6669
30.6387
29.7603
28.9816
28.1982
7.07853
2.85979
-1.95857
-7.0554
-12.0007
-17.1558
-22.2839
-27.2246
-32.0464
-36.6662
-41.068
-45.2876
-49.3105
-53.1521
-56.8225
-60.3166
-63.6267
-66.736
-69.6174
-72.2372
-74.5526
-76.5148
-78.0847
-79.2282
-79.946
-80.2575
-80.1332
-79.5082
-78.3109
-76.4708
-73.9213
-70.6018
-66.4636
-61.479
-55.6487
-49.0168
-41.6869
-33.8575
-26.1034
11.0455
14.8247
18.9653
23.2846
27.3445
31.2286
34.7864
37.7603
40.1042
41.9158
43.255
44.1974
44.8469
45.2779
45.5445
45.6888
45.7379
45.7074
45.6048
45.4296
45.1747
44.8259
44.3599
43.7525
43.0013
42.1252
41.1382
40.0496
38.8734
37.6291
36.3422
35.0434
33.7668
32.5479
31.4171
30.3941
29.4787
28.6292
27.7674
6.4207
2.40147
-2.18509
-7.0297
-11.723
-16.6087
-21.4603
-26.1261
-30.6715
-35.0173
-39.1495
-43.102
-46.862
-50.4441
-53.8589
-57.102
-60.1667
-63.0384
-65.693
-68.0999
-70.2207
-72.0117
-73.4388
-74.4735
-75.1196
-75.398
-75.2848
-74.7228
-73.6485
-71.9988
-69.7135
-66.7368
-63.0224
-58.5408
-53.2866
-47.2908
-40.6335
-33.4771
-26.3353
10.2042
13.8116
17.7684
21.9013
25.7904
29.5173
32.9377
35.8031
38.0681
39.8257
41.1326
42.0598
42.707
43.1451
43.4263
43.5914
43.6671
43.669
43.6052
43.4765
43.2775
42.9961
42.612
42.103
41.4655
40.7151
39.8633
38.9171
37.8874
36.7892
35.6428
34.4727
33.3062
32.1716
31.0935
30.0871
29.1515
28.2519
27.3326
5.81948
1.9909
-2.37402
-6.97806
-11.4311
-16.0606
-20.6499
-25.0552
-29.3388
-33.4262
-37.3043
-41.006
-44.5192
-47.8587
-51.0346
-54.0435
-56.88
-59.531
-61.9747
-64.184
-66.1241
-67.7566
-69.051
-69.9845
-70.563
-70.8087
-70.703
-70.1953
-69.2294
-67.7496
-65.7019
-63.0357
-59.7069
-55.6861
-50.9627
-45.5559
-39.5257
-33.0016
-26.4412
9.4274
12.8702
16.6507
20.6046
24.3299
27.9053
31.1931
33.9535
36.142
37.847
39.1217
40.033
40.6763
41.1197
41.413
41.5958
41.6943
41.724
41.6938
41.6054
41.4548
41.232
40.9192
40.4964
39.9592
39.3199
38.588
37.7688
36.8704
35.9044
34.8865
33.8357
32.7735
31.7222
30.7008
29.7206
28.7796
27.8485
26.8907
5.27093
1.62473
-2.52843
-6.90278
-11.1271
-15.5128
-19.8528
-24.0112
-28.0474
-31.8908
-35.5297
-38.9956
-42.2776
-45.3899
-48.3428
-51.1334
-53.7575
-56.2033
-58.4516
-60.4777
-62.2508
-63.7365
-64.9083
-65.7482
-66.2636
-66.4782
-66.377
-65.9164
-65.0464
-63.7183
-61.8842
-59.4982
-56.5196
-52.9191
-48.6822
-43.8185
-38.3704
-32.4379
-26.4275
8.71077
11.9958
15.6074
19.3894
22.957
26.3867
29.5464
32.2056
34.3196
35.9729
37.2156
38.1105
38.7487
39.1956
39.4986
39.6963
39.8142
39.8678
39.8663
39.8125
39.7037
39.5316
39.281
38.9335
38.4841
37.9427
37.3168
36.6103
35.8292
34.982
34.0808
33.1401
32.1762
31.2061
30.2442
29.2979
28.3644
27.4183
26.4386
4.77141
1.29967
-2.65114
-6.80624
-10.8128
-14.9663
-19.0697
-22.9941
-26.7962
-30.4093
-33.8229
-37.0671
-40.1324
-43.0322
-45.777
-48.3643
-50.791
-53.0464
-55.1134
-56.9702
-58.589
-59.9394
-60.9982
-61.7518
-62.209
-62.3942
-62.2961
-61.8763
-61.0916
-59.8989
-58.2564
-56.1229
-53.4613
-50.2427
-46.4501
-42.085
-37.1747
-31.7935
-26.3016
8.05032
11.1843
14.6338
18.2506
21.6667
24.956
27.9922
30.5532