/*--------------------------------*- C++ -*----------------------------------*\
| =========                 |                                                 |
| \\      /  F ield         | OpenFOAM: The Open Source CFD Toolbox           |
|  \\    /   O peration     | Version:  2306                                  |
|   \\  /    A nd           | Website:  www.openfoam.com                      |
|    \\/     M anipulation  |                                                 |
\*---------------------------------------------------------------------------*/
FoamFile
{
    version     2.0;
    format      ascii;
    arch        "LSB;label=32;scalar=64";
    class       volScalarField;
    location    "275";
    object      turbulenceProperties:I;
}
// * * * * * * * * * * * * * * * * * * * * * * * * * * * * * * * * * * * * * //

dimensions      [0 0 0 0 0 0 0];

internalField   nonuniform List<scalar> 
10720
(
0.00417393
0.00414905
0.00416926
0.00429773
0.00446111
0.00469047
0.00500347
0.00538918
0.00586675
0.00645497
0.0071735
0.00806457
0.00918874
0.0106293
0.0125296
0.0150877
0.0186953
0.0238255
0.0320139
0.044391
0.0693841
0.111478
0.228045
0.420858
0.507705
0.466799
0.408217
0.36631
0.339305
0.322179
0.311101
0.303385
0.298912
0.296796
0.296848
0.299124
0.307424
0.319688
0.526011
0.00422526
0.00438218
0.0045629
0.00498452
0.0056857
0.00704163
0.0101773
0.0169973
0.0134964
0.00874765
0.00732351
0.00706379
0.00731413
0.00787074
0.00865656
0.00966559
0.0109374
0.0125659
0.0146956
0.0175296
0.0214014
0.0267165
0.0344027
0.045354
0.0627038
0.0884322
0.130966
0.186817
0.221532
0.234697
0.238638
0.240293
0.241517
0.242567
0.243552
0.244663
0.246104
0.249521
0.255951
0.00181764
0.00166457
0.00152701
0.00139718
0.00127658
0.00116837
0.00106923
0.000977821
0.000896744
0.000824114
0.000759231
0.000711244
0.000692117
0.000711448
0.0007959
0.00098012
0.00132965
0.00190129
0.00294533
0.00464629
0.00817169
0.0141493
0.0265256
0.0520875
0.0804813
0.108706
0.1368
0.161148
0.175519
0.177562
0.171133
0.161774
0.153434
0.147523
0.144684
0.145096
0.154363
0.167148
0.329783
0.0019833
0.00219061
0.00246936
0.00286715
0.00346209
0.00439574
0.00583097
0.00715598
0.00638745
0.00447055
0.00313797
0.00234319
0.00183817
0.00149035
0.00123565
0.00104055
0.000884707
0.000756413
0.000645215
0.000542955
0.000438697
0.000325454
0.000185312
7.25601e-05
0.000112722
0.00129812
0.00295632
0.00829897
0.0151182
0.0210803
0.0257801
0.0293922
0.0322548
0.0347424
0.0371134
0.0396035
0.0424692
0.0476558
0.0612008
0.00157852
0.00145461
0.00133318
0.00121895
0.0011207
0.00103357
0.000958147
0.000895719
0.000844838
0.000804979
0.000774106
0.0007525
0.000739209
0.000734136
0.000729989
0.000715246
0.000657213
0.00060285
8.06815e-05
0.000707821
0.000332721
0.000638069
0.00012019
0.00233242
0.00788017
0.015358
0.0254842
0.0402734
0.0601697
0.0833271
0.105583
0.12222
0.13102
0.134114
0.135397
0.137205
0.144699
0.152673
0.256607
0.0017221
0.00189274
0.00212845
0.00244284
0.00286639
0.00342189
0.00405511
0.00446477
0.0042482
0.00350008
0.00272325
0.00212347
0.00168655
0.00136427
0.00112281
0.000938185
0.000796376
0.000687272
0.000604448
0.00054141
0.000494133
0.000459285
0.000434798
0.000416881
0.000406304
0.000396876
0.000402773
0.000306676
0.000796887
0.00202924
0.00340286
0.00491152
0.00734743
0.0106605
0.0142949
0.017901
0.0214171
0.0239684
0.0337489
0.00149012
0.00138661
0.00128691
0.00119623
0.00111314
0.00103586
0.000965441
0.000900509
0.000840909
0.000785939
0.00073499
0.000687234
0.000641822
0.000598265
0.000555781
0.000512212
0.000468285
0.000429545
0.000376645
0.000321117
0.000156456
0.000211743
7.54629e-05
0.0012354
0.0027961
0.00407485
0.00310888
0.00219065
0.00396883
0.0126661
0.0275728
0.0483009
0.0714931
0.0921965
0.107554
0.118489
0.130672
0.142421
0.215944
0.00159986
0.00172785
0.00189063
0.00210495
0.00237194
0.00268383
0.00299067
0.00316922
0.00308289
0.00273268
0.00229176
0.0018942
0.00157532
0.00132712
0.00113438
0.000982955
0.000863161
0.000767453
0.000690535
0.000627465
0.000575299
0.000531039
0.000491979
0.000454143
0.000417927
0.00038796
0.000364837
0.000347674
0.000328761
0.000305505
0.000263727
0.000208896
0.000577704
0.000760871
0.00145472
0.00339494
0.00626686
0.0101617
0.0207164
0.00131443
0.00122924
0.00114543
0.0010662
0.00099309
0.000924118
0.00086039
0.000801946
0.000748327
0.000700025
0.000656866
0.000618839
0.000586163
0.000558847
0.00053687
0.000519354
0.000503009
0.000484578
0.000464765
0.000435292
0.000399723
0.000273153
9.60762e-05
4.35027e-05
0
0
0.00198189
0.00224845
0.00335632
0.00608211
0.00278288
0.00523499
0.0133463
0.0341083
0.0590937
0.0831679
0.105357
0.125173
0.183368
0.00140553
0.00150895
0.00163723
0.00179506
0.00197599
0.00216705
0.00233678
0.0024299
0.00238921
0.00220612
0.0019459
0.00167781
0.00143667
0.00123134
0.00106024
0.000918388
0.000800976
0.000703902
0.000623845
0.000557613
0.000502788
0.000456915
0.000417603
0.000381198
0.000345864
0.000313566
0.000287162
0.00026794
0.000258176
0.000246273
0.00027087
0.000131422
0.000334972
0.000725602
0.00115179
0.00106571
0.00128535
0.0017844
0.00901594
0.0011967
0.00112912
0.0010614
0.000997488
0.000938137
0.000881724
0.000829268
0.000780505
0.000735021
0.000692785
0.000653393
0.000616602
0.000582269
0.000550156
0.000520073
0.000490964
0.00046101
0.000430979
0.000402592
0.000377624
0.0003613
0.000335172
0.000304907
0.000157959
6.67037e-05
4.65866e-05
2.82219e-05
0
0
0
0.00141543
0.0045479
0.00184204
0.00735294
0.0111408
0.0364184
0.0675545
0.098959
0.152279
0.00126666
0.00134409
0.00143784
0.0015501
0.00167226
0.00179415
0.00189742
0.00195269
0.00193071
0.00182512
0.00166358
0.001482
0.00130534
0.00114555
0.0010064
0.000887594
0.000787207
0.000702923
0.000632386
0.000573196
0.000523191
0.000480165
0.000441927
0.000405692
0.000370151
0.000337028
0.000307863
0.000282876
0.0002614
0.000243103
0.000227106
0.000212389
0.000190176
0.000159736
2.29178e-05
0.00041059
0.000533325
0.000856643
0.00303332
0.00107717
0.00102228
0.000966382
0.000912712
0.000862481
0.000813976
0.00076819
0.000725177
0.000684521
0.000646356
0.000610539
0.000576956
0.000545686
0.000516774
0.000490208
0.000466231
0.000445429
0.000427034
0.000409328
0.00039137
0.000374764
0.000361503
0.000352604
0.000324337
0.000266442
0.000197348
0.000110078
5.34205e-05
4.08973e-05
1.52103e-05
0
0
0.000667576
0.00427965
0.00370855
0.0094891
0.0257907
0.0642637
0.118837
0.00113327
0.00119397
0.00126584
0.00134878
0.00143474
0.00151693
0.00158489
0.00162047
0.00160732
0.00154223
0.0014378
0.00131285
0.00118316
0.0010587
0.000944614
0.000842773
0.000753244
0.000675398
0.000608187
0.000550239
0.000500199
0.000456555
0.00041762
0.000381219
0.000346037
0.000313054
0.000283578
0.000257969
0.000235862
0.000217212
0.000202706
0.000192985
0.000187177
0.000178304
0.000155069
5.58401e-05
3.79094e-05
0
0.00140488
0.000977301
0.000933306
0.000887832
0.000843765
0.000802337
0.000761988
0.00072374
0.000687635
0.000653318
0.000620914
0.000590214
0.000561103
0.000533558
0.000507489
0.00048283
0.000459587
0.000437238
0.000414991
0.000393322
0.000373128
0.000355324
0.000341644
0.000332865
0.000327901
0.000315749
0.000294023
0.000262975
0.000220288
0.000174925
6.05336e-05
4.19364e-05
9.35213e-06
0
0
0.00148299
0.00244605
0.00913153
0.0290599
0.0827091
0.00102146
0.00106846
0.00112326
0.00118503
0.00124696
0.00130456
0.00135169
0.00137596
0.00136763
0.00132536
0.00125514
0.00116739
0.00107181
0.000975696
0.000883848
0.000798913
0.000721987
0.000653467
0.000593113
0.000540225
0.000493859
0.000452874
0.000415902
0.000381262
0.000347946
0.000316663
0.000288382
0.000263283
0.000240859
0.000220669
0.000202624
0.00018649
0.00017202
0.000159016
0.000149936
0.000143886
0.000126723
4.19747e-05
0
0.000887721
0.000852033
0.000814643
0.000777976
0.000743329
0.000709233
0.000676618
0.000645582
0.000615805
0.000587403
0.000560245
0.000534224
0.000509356
0.00048561
0.000463014
0.00044155
0.000421297
0.000402591
0.000385273
0.000369115
0.000354112
0.000340776
0.000329729
0.000321053
0.000312218
0.000300589
0.000287303
0.00027267
0.000256182
0.000223631
0.000185043
4.19123e-05
3.29311e-05
0
0
0.000812982
0.00519644
0.0107045
0.0487929
0.000923084
0.00096013
0.00100277
0.00104971
0.00109557
0.00113747
0.00117141
0.00118867
0.00118321
0.00115457
0.00110587
0.00104303
0.000972025
0.000897841
0.00082427
0.000753806
0.000687947
0.000627526
0.000572828
0.000523717
0.000479743
0.000440174
0.000404024
0.000370108
0.000337673
0.000307133
0.000279318
0.000254491
0.000232335
0.000212548
0.000195147
0.00018045
0.000168818
0.000160573
0.000156065
0.000157816
0.000166114
0.000175696
3.74151e-05
0.00080955
0.000780576
0.000749867
0.000719483
0.00069063
0.000662045
0.000634542
0.000608242
0.000582882
0.00055857
0.000535177
0.000512614
0.00049089
0.000469969
0.00044985
0.000430534
0.000412083
0.000394274
0.000376975
0.000360572
0.000345633
0.00033264
0.000321758
0.00031218
0.000302228
0.000290602
0.000278158
0.000267013
0.000258705
0.000252309
0.000245343
0.000215564
0.000146728
4.59208e-05
0
0
0.000360708
0.00375429
0.024262
0.000837895
0.000867256
0.000900721
0.000936859
0.000971501
0.00100291
0.00102805
0.00104067
0.00103705
0.00101699
0.000982267
0.00093643
0.000883167
0.000825758
0.000767049
0.000709114
0.000653383
0.000600922
0.00055228
0.000507668
0.000466981
0.000429803
0.000395469
0.000363175
0.000332353
0.000303312
0.000276711
0.00025278
0.000231244
0.000211782
0.000194296
0.000178815
0.000165307
0.000154263
0.000146082
0.000145259
0.000146072
0.000192949
0.000137907
0.000740426
0.000716748
0.000691386
0.000666083
0.000641943
0.000617866
0.000594534
0.00057213
0.000550381
0.000529404
0.000509079
0.000489319
0.00047013
0.000451476
0.00043338
0.000415873
0.000398978
0.000382794
0.000367424
0.000352949
0.000339608
0.000327604
0.000317026
0.000307308
0.000297119
0.000285381
0.000272481
0.000260366
0.000250712
0.000244498
0.00024098
0.000241504
0.000232435
0.000190826
4.80001e-05
0
0
0.00215393
0.0122217
0.000763326
0.000786826
0.000813431
0.000841651
0.000868284
0.000892392
0.00091143
0.00092086
0.000918422
0.000904018
0.000878666
0.000844632
0.000804263
0.000759698
0.000712905
0.000665478
0.000618634
0.000573374
0.000530397
0.000490087
0.000452551
0.000417648
0.000384993
0.000354072
0.000324544
0.000296659
0.000270931
0.000247605
0.000226514
0.000207434
0.000190332
0.000175348
0.000162701
0.000152912
0.000146265
0.000146291
0.000147701
0.000178893
0.000207522
0.000679319
0.000659907
0.000638905
0.000617796
0.000597603
0.000577327
0.000557593
0.000538563
0.000520004
0.000502025
0.000484516
0.000467393
0.000450657
0.000434278
0.000418263
0.000402644
0.000387463
0.000372808
0.000358625
0.000345014
0.000332337
0.00032087
0.00031066
0.000301232
0.000291506
0.000280542
0.000268489
0.000256712
0.000246581
0.000238689
0.000232659
0.000230632
0.000232356
0.000237119
0.00019262
4.46684e-05
0
0.00086806
0.00717486
0.000697923
0.000716837
0.000738192
0.000760494
0.000781281
0.000800091
0.000814767
0.000821959
0.000820288
0.000809677
0.000790804
0.000765152
0.000734238
0.000699423
0.000662102
0.000623404
0.000584253
0.000545528
0.000507881
0.000471813
0.000437587
0.000405236
0.000374556
0.000345271
0.000317263
0.000290739
0.000266122
0.000243642
0.000223202
0.000204622
0.000187852
0.00017299
0.000160141
0.00014976
0.000142339
0.000141084
0.000143475
0.000165229
0.000215756
0.000625005
0.000609023
0.000591573
0.000573916
0.000556979
0.00053987
0.000523159
0.000506985
0.000491137
0.000475719
0.000460631
0.000445791
0.000431193
0.000416796
0.000402615
0.000388681
0.000375027
0.000361761
0.000348928
0.000336607
0.000325017
0.000314362
0.000304646
0.000295517
0.000286175
0.000275887
0.000264734
0.00025376
0.000244097
0.000236083
0.000229395
0.00022436
0.000222273
0.000225714
0.000240288
0.000175177
5.06153e-06
0.000492016
0.00413039
0.000640209
0.000655531
0.000672802
0.000690621
0.000707056
0.000721924
0.000733398
0.000738962
0.000737788
0.000729825
0.000715527
0.000695897
0.000671965
0.000644629
0.00061478
0.000583219
0.000550624
0.000517685
0.000484966
0.000452942
0.00042195
0.000392133
0.00036346
0.000335851
0.000309324
0.000284104
0.000260537
0.000238851
0.00021901
0.000200895
0.000184484
0.000169908
0.000157334
0.000147223
0.000140063
0.000138558
0.000141054
0.000158536
0.000206
0.000576558
0.000563349
0.000548814
0.000534018
0.000519796
0.000505363
0.000491211
0.000477474
0.000463967
0.000450774
0.000437818
0.000425005
0.000412339
0.000399779
0.000387324
0.000374998
0.000362831
0.00035093
0.000339335
0.000328086
0.00031736
0.000307394
0.00029819
0.000289464
0.000280593
0.000270984
0.000260677
0.000250502
0.000241446
0.000233827
0.000227438
0.000222128
0.00021833
0.000216773
0.000222451
0.000254104
4.75342e-05
0.000157412
0.00206094
0.00058902
0.000601511
0.000615559
0.000629924
0.000643068
0.000654926
0.000663976
0.000668358
0.000667501
0.000661407
0.000650391
0.000635185
0.000616481
0.000594853
0.000570922
0.000545188
0.000518108
0.000490209
0.000461943
0.00043372
0.000405867
0.000378605
0.000352015
0.000326171
0.000301198
0.00027733
0.000254883
0.000234069
0.000214902
0.000197312
0.000181294
0.000166976
0.000154501
0.0001443
0.000136867
0.00013483
0.00013683
0.000152568
0.000194864
0.000533155
0.000522198
0.000510071
0.000497641
0.000485684
0.000473507
0.000461515
0.00044985
0.000438349
0.000427078
0.000415972
0.000404947
0.000393987
0.000383056
0.000372139
0.000361268
0.000350472
0.000339825
0.000329407
0.000319253
0.000309458
0.000300247
0.000291621
0.000283355
0.000274978
0.000266021
0.000256489
0.000247036
0.000238513
0.000231276
0.000225216
0.000220277
0.000216423
0.000214851
0.000210467
0.000243033
0.000177716
1.85163e-05
0.000535679
0.000543392
0.000553624
0.000565116
0.000576773
0.000587377
0.000596899
0.000604102
0.000607578
0.000606933
0.000602185
0.000593581
0.000581642
0.000566872
0.000549651
0.000530371
0.000509367
0.000486912
0.000463358
0.000439043
0.000414304
0.000389451
0.000364718
0.000340239
0.000316158
0.000292718
0.000270199
0.000248875
0.000228947
0.000210466
0.000193409
0.000177792
0.000163752
0.000151447
0.000141303
0.000133796
0.000131386
0.000132908
0.000146768
0.000184629
0.000494106
0.000485003
0.000474863
0.000464407
0.000454359
0.000444078
0.000433927
0.000424035
0.000414256
0.000404651
0.000395154
0.000385685
0.000376235
0.000366758
0.000357251
0.000347722
0.000338199
0.000328732
0.000319425
0.000310284
0.000301366
0.000292877
0.00028484
0.000277081
0.000269227
0.000260914
0.000252126
0.000243375
0.000235372
0.000228488
0.000222689
0.00021802
0.000214374
0.000213118
0.000209756
0.000218014
0.000249066
1.31972e-05
0.000140594
0.000502546
0.000510938
0.000520388
0.000529898
0.000538517
0.000546201
0.000551961
0.000554731
0.000554215
0.000550452
0.000543632
0.000534161
0.000522393
0.000508574
0.000492978
0.000475777
0.00045715
0.000437308
0.000416479
0.000394913
0.000372862
0.000350553
0.00032815
0.000305866
0.000283991
0.000262832
0.000242646
0.00022363
0.000205868
0.000189371
0.000174174
0.000160421
0.000148264
0.000138114
0.000130429
0.000127553
0.000128604
0.000140753
0.000174914
0.000458836
0.00045127
0.000442775
0.00043398
0.000425532
0.000416856
0.00040827
0.000399895
0.000391588
0.000383413
0.000375311
0.000367204
0.000359089
0.000350915
0.000342666
0.00033435
0.000325986
0.000317612
0.00030933
0.000301151
0.000293099
0.000285336
0.000277908
0.000270687
0.00026338
0.000255694
0.000247615
0.000239538
0.000232055
0.000225528
0.000219981
0.00021548
0.000212067
0.000210345
0.000210612
0.000204505
0.000259434
2.49862e-05
8.0453e-07
0.000465816
0.000472717
0.000480501
0.000488295
0.000495337
0.000501557
0.000506178
0.000508389
0.000507952
0.000504916
0.000499441
0.000491832
0.000482358
0.000471196
0.000458506
0.000444391
0.000428921
0.000412228
0.000394434
0.000375715
0.000356259
0.000336251
0.000315862
0.00029534
0.000275018
0.000255204
0.000236159
0.000218071
0.000201044
0.000185123
0.00017036
0.0001569
0.000144902
0.000134762
0.000126922
0.000123594
0.000124182
0.000134738
0.000165475
0.00042687
0.000420573
0.000413451
0.00040606
0.000398953
0.000391643
0.000384389
0.000377309
0.000370271
0.000363336
0.000356445
0.000349535
0.000342587
0.000335557
0.00032843
0.000321207
0.000313904
0.000306541
0.000299211
0.00029193
0.000284705
0.000277646
0.000270831
0.000264167
0.000257416
0.000250347
0.000242945
0.000235518
0.000228555
0.000222396
0.000217118
0.000212772
0.000209556
0.000207421
0.00020891
0.000202091
0.000238775
0.000156913
2.4059e-05
0.000432644
0.000438328
0.000444751
0.000451154
0.000456933
0.000461971
0.000465684
0.000467439
0.000467043
0.000464548
0.000460092
0.000453916
0.000446224
0.00043713
0.000426749
0.000415116
0.000402248
0.000388202
0.000373031
0.00035683
0.000339736
0.0003219
0.000303463
0.000284655
0.000265832
0.000247351
0.000229448
0.000212301
0.000196027
0.000180697
0.000166381
0.000153221
0.00014138
0.000131234
0.00012321
0.000119405
0.000119531
0.000128706
0.000156278
0.000397796
0.00039255
0.00038659
0.000380372
0.000374411
0.000368257
0.000362147
0.00035617
0.000350226
0.000344358
0.000338517
0.000332638
0.000326713
0.000320694
0.00031457
0.000308329
0.000301984
0.000295552
0.000289096
0.000282652
0.00027621
0.000269835
0.000263631
0.000257532
0.000251341
0.000244872
0.000238115
0.000231311
0.000224862
0.000219082
0.000214083
0.00020992
0.000206827
0.000204672
0.00020545
0.000203
0.000216359
0.000219022
8.35701e-05
0.000402569
0.00040725
0.000412555
0.00041783
0.000422569
0.000426657
0.000429634
0.000431017
0.000430635
0.000428551
0.000424877
0.000419804
0.000413498
0.000406033
0.000397483
0.000387858
0.000377126
0.000365295
0.000352371
0.000338395
0.000323429
0.000307579
0.000290966
0.000273821
0.000256491
0.000239319
0.000222542
0.000206332
0.000190818
0.000176089
0.000162227
0.000149371
0.000137688
0.000127531
0.000119311
0.000115026
0.000114689
0.000122655
0.000147329
0.000371266
0.0003669
0.000361916
0.000356696
0.000351702
0.000346538
0.000341399
0.000336375
0.000331368
0.00032642
0.000321488
0.000316514
0.000311486
0.000306364
0.000301125
0.000295763
0.00029028
0.000284691
0.000279031
0.000273358
0.000267656
0.000261944
0.000256336
0.000250796
0.000245159
0.000239274
0.000233131
0.000226924
0.00022098
0.000215583
0.000210867
0.000206908
0.000203895
0.000201906
0.00020165
0.000202477
0.000203649
0.000225719
0.000163407
0.000375207
0.000379055
0.000383438
0.000387792
0.000391664
0.000394978
0.00039736
0.000398427
0.000398044
0.000396269
0.000393199
0.000388988
0.000383766
0.000377593
0.000370509
0.000362501
0.000353523
0.000343547
0.000332535
0.000320484
0.000307425
0.000293404
0.000278502
0.000262932
0.000247032
0.000231129
0.000215456
0.00020018
0.000185432
0.000171312
0.000157912
0.000145365
0.00013384
0.00012366
0.000115227
0.000110444
0.000109643
0.0001166
0.000138677
0.000346984
0.000343361
0.000339199
0.000334825
0.000330655
0.000326335
0.000322027
0.00031782
0.000313622
0.00030947
0.000305326
0.000301137
0.000296891
0.000292551
0.000288094
0.000283512
0.000278801
0.000273972
0.000269048
0.000264094
0.000259079
0.000254001
0.000248972
0.000243979
0.000238885
0.000233562
0.000228004
0.000222364
0.000216912
0.0002119
0.00020747
0.000203724
0.000200789
0.000198933
0.000198062
0.00019983
0.000198376
0.000213766
0.000201091
0.000350232
0.000353385
0.000357005
0.000360596
0.00036375
0.000366424
0.000368318
0.000369126
0.00036873
0.00036719
0.000364584
0.000361045
0.000356682
0.000351533
0.000345625
0.000338928
0.000331385
0.000322952
0.000313568
0.000303191
0.000291805
0.000279435
0.000266125
0.000252043
0.000237495
0.000222814
0.000208222
0.00019387
0.000179887
0.00016638
0.000153445
0.000141207
0.000129837
0.000119624
0.00011096
0.000105667
0.0001044
0.000110522
0.00013031
0.000324698
0.000321699
0.000318238
0.000314582
0.000311117
0.000307517
0.000303923
0.000300418
0.000296916
0.000293451
0.000289986
0.000286478
0.000282914
0.000279258
0.000275494
0.000271604
0.000267585
0.000263444
0.000259191
0.000254887
0.000250503
0.000246027
0.000241553
0.000237088
0.000232522
0.000227741
0.000222739
0.000217639
0.000212664
0.000208034
0.000203894
0.000200359
0.000197527
0.000195715
0.000194625
0.000195979
0.000195502
0.000201329
0.000207685
0.000327369
0.000329937
0.00033292
0.000335875
0.000338434
0.000340579
0.000342071
0.000342656
0.00034224
0.000340875
0.000338639
0.000335635
0.00033195
0.000327615
0.000322648
0.000317017
0.000310654
0.000303502
0.000295489
0.00028655
0.000276645
0.000265751
0.000253887
0.000241186
0.000227932
0.000214427
0.000200878
0.00018743
0.000174202
0.000161305
0.000148836
0.000136911
0.00012569
0.000115432
0.000106516
0.000100695
9.8966e-05
0.000104429
0.000122243
0.000304192
0.000301723
0.000298854
0.000295811
0.000292949
0.000289964
0.000286985
0.000284081
0.00028118
0.000278307
0.000275434
0.000272518
0.00026955
0.000266494
0.000263333
0.000260055
0.00025665
0.000253123
0.000249476
0.00024576
0.000241959
0.00023805
0.000234104
0.000230144
0.000226085
0.00022182
0.000217343
0.000212756
0.000208241
0.000203988
0.000200139
0.000196812
0.000194099
0.000192281
0.000191142
0.000191753
0.000192314
0.000192718
0.000201585
0.000306379
0.000308458
0.000310905
0.000313327
0.000315389
0.000317096
0.000318248
0.000318647
0.000318206
0.000316978
0.000315027
0.000312444
0.000309301
0.000305624
0.000301421
0.000296651
0.000291255
0.000285171
0.000278312
0.000270604
0.000261987
0.000252411
0.00024186
0.000230439
0.000218394
0.000206006
0.000193456
0.000180884
0.0001684
0.000156109
0.000144106
0.000132494
0.000121418
0.000111102
0.000101909
9.55341e-05
9.33365e-05
9.83214e-05
0.000114496
0.000285281
0.000283259
0.000280893
0.000278379
0.000276026
0.00027357
0.000271119
0.000268734
0.000266347
0.000263987
0.000261623
0.000259221
0.000256767
0.000254236
0.000251608
0.000248867
0.000246008
0.000243028
0.000239929
0.000236749
0.00023348
0.0002301
0.000226649
0.00022317
0.000219588
0.00021581
0.000211828
0.000207727
0.000203651
0.000199768
0.000196207
0.00019309
0.0001905
0.000188668
0.00018749
0.00018749
0.00018826
0.000186717
0.000192691
0.000287055
0.000288731
0.000290725
0.000292699
0.000294345
0.000295685
0.000296554
0.000296789
0.000296321
0.000295196
0.000293476
0.000291232
0.000288526
0.000285374
0.000281782
0.000277718
0.000273119
0.00026792
0.000262034
0.00025538
0.000247881
0.000239469
0.000230102
0.00021985
0.000208926
0.00019758
0.00018599
0.000174265
0.000162508
0.000150817
0.000139277
0.000127975
0.000117041
0.000106655
9.7159e-05
9.01929e-05
8.75184e-05
9.21898e-05
0.000107056
0.000267801
0.000266157
0.00026422
0.00026216
0.000260243
0.000258242
0.000256243
0.000254303
0.000252363
0.000250443
0.000248521
0.000246562
0.000244558
0.000242483
0.000240317
0.000238051
0.000235673
0.00023318
0.000230573
0.000227873
0.000225091
0.000222193
0.000219201
0.00021617
0.000213041
0.000209724
0.000206208
0.000202563
0.000198906
0.000195379
0.000192104
0.000189193
0.000186728
0.000184895
0.000183644
0.000183227
0.000183634
0.000181606
0.000184312
0.000269226
0.000270563
0.000272173
0.000273772
0.000275068
0.000276098
0.000276731
0.000276831
0.000276334
0.00027529
0.000273749
0.000271774
0.000269415
0.000266693
0.000263605
0.000260115
0.00025617
0.000251706
0.00024664
0.00024088
0.000234345
0.000226954
0.000218647
0.00020946
0.000199576
0.000189209
0.000178523
0.000167608
0.000156557
0.000145453
0.00013437
0.000123379
0.000112584
0.000102119
9.22862e-05
8.46766e-05
8.15033e-05
8.60512e-05
9.99474e-05
0.000251609
0.00025029
0.000248718
0.000247043
0.000245502
0.00024389
0.000242281
0.000240723
0.000239168
0.000237628
0.000236087
0.000234512
0.000232898
0.000231217
0.000229457
0.000227606
0.000225652
0.00022359
0.000221419
0.000219152
0.000216807
0.000214353
0.000211788
0.000209176
0.000206467
0.000203578
0.000200494
0.000197274
0.000194016
0.000190832
0.000187834
0.000185127
0.000182788
0.000180958
0.000179621
0.000178895
0.000178759
0.000176531
0.000176855
0.000252743
0.000253791
0.000255076
0.000256358
0.000257362
0.00025813
0.000258567
0.000258547
0.000258025
0.000257042
0.000255648
0.00025389
0.000251816
0.000249438
0.000246758
0.000243743
0.000240339
0.000236485
0.000232106
0.000227109
0.000221407
0.000214907
0.000207535
0.000199307
0.000190371
0.000180919
0.000171083
0.000160943
0.000150573
0.000140042
0.000129414
0.000118733
0.000108075
9.7523e-05
8.73218e-05
7.89974e-05
7.52837e-05
7.99086e-05
9.31695e-05
0.000236584
0.00023554
0.000234283
0.000232937
0.000231717
0.000230438
0.000229162
0.000227935
0.00022671
0.000225499
0.000224286
0.000223043
0.000221765
0.000220429
0.000219022
0.000217532
0.000215948
0.000214267
0.000212484
0.000210605
0.000208652
0.000206598
0.000204427
0.000202199
0.000199879
0.000197385
0.000194703
0.000191879
0.000188992
0.000186137
0.000183407
0.000180899
0.000178684
0.000176871
0.000175438
0.000174455
0.000173806
0.000171311
0.000170008
0.000237472
0.000238279
0.000239288
0.000240301
0.000241058
0.000241606
0.000241876
0.000241758
0.000241212
0.000240277
0.000238998
0.000237418
0.000235575
0.000233483
0.000231135
0.000228508
0.000225552
0.000222212
0.000218407
0.000214056
0.000209069
0.000203349
0.000196806
0.000189442
0.000181371
0.000172761
0.00016372
0.000154313
0.000144595
0.000134624
0.000124441
0.000114072
0.000103553
9.29116e-05
8.23085e-05
7.31711e-05
6.88435e-05
7.37816e-05
8.67436e-05
0.000222618
0.000221806
0.00022082
0.000219754
0.000218809
0.000217818
0.000216827
0.000215885
0.000214942
0.000214015
0.000213084
0.000212128
0.000211138
0.0002101
0.000208998
0.000207822
0.000206564
0.000205215
0.000203775
0.000202243
0.000200642
0.000198945
0.000197133
0.000195255
0.00019329
0.000191161
0.000188849
0.000186392
0.000183851
0.000181305
0.000178834
0.00017652
0.000174422
0.000172635
0.000171117
0.000169905
0.000168811
0.000166
0.000163531
0.000223296
0.0002239
0.000224677
0.000225462
0.000226012
0.000226377
0.000226504
0.000226303
0.000225736
0.000224839
0.000223654
0.000222218
0.000220564
0.000218706
0.000216636
0.000214331
0.000211746
0.00020883
0.000205511
0.000201708
0.000197333
0.000192289
0.000186478
0.000179885
0.0001726
0.000164761
0.00015646
0.000147743
0.000138651
0.000129224
0.000119483
0.00010943
9.90625e-05
8.83372e-05
7.73039e-05
6.72222e-05
6.21482e-05
6.76949e-05
8.06857e-05
0.000209614
0.000209002
0.000208244
0.00020742
0.000206709
0.000205962
0.000205218
0.000204519
0.000203819
0.000203134
0.000202447
0.000201736
0.000200998
0.000200217
0.000199379
0.000198477
0.000197501
0.000196444
0.000195305
0.000194079
0.000192789
0.000191411
0.000189921
0.000188365
0.00018672
0.000184921
0.000182946
0.000180826
0.000178607
0.000176351
0.000174124
0.000171998
0.00017002
0.000168256
0.000166672
0.000165243
0.000163773
0.000160656
0.000157308
0.000210114
0.00021055
0.000211132
0.000211719
0.000212097
0.00021231
0.000212318
0.000212046
0.00021146
0.000210595
0.000209489
0.000208172
0.000206675
0.000205008
0.000203168
0.00020113
0.000198855
0.000196295
0.000193385
0.000190048
0.0001862
0.000181741
0.000176573
0.000170666
0.000164086
0.000156956
0.00014934
0.000141274
0.00013278
0.00012388
0.000114579
0.000104849
9.46493e-05
8.38593e-05
7.23835e-05
6.11927e-05
5.51419e-05
6.17028e-05
7.50282e-05
0.000197488
0.000197047
0.000196482
0.000195865
0.000195356
0.000194816
0.000194285
0.000193792
0.000193303
0.000192825
0.000192347
0.000191848
0.000191325
0.000190763
0.000190154
0.000189486
0.000188755
0.000187954
0.000187078
0.000186121
0.000185106
0.00018401
0.000182808
0.000181538
0.000180183
0.000178683
0.000177015
0.0001752
0.000173276
0.00017129
0.000169294
0.000167345
0.000165483
0.000163753
0.000162109
0.000160496
0.000158705
0.000155331
0.000151317
0.000197838
0.000198132
0.00019855
0.00019897
0.000199205
0.000199291
0.000199199
0.000198868
0.000198268
0.000197429
0.000196387
0.000195172
0.000193807
0.000192299
0.000190649
0.000188833
0.000186818
0.000184559
0.000181996
0.000179055
0.000175658
0.000171706
0.000167101
0.000161803
0.000155863
0.000149375
0.000142395
0.000134937
0.000127013
0.000118625
0.000109762
0.000100369
9.03649e-05
7.95521e-05
6.76541e-05
5.51676e-05
4.77237e-05
5.58985e-05
6.98175e-05
0.000186167
0.000185869
0.00018547
0.000185029
0.00018469
0.00018433
0.000183978
0.000183664
0.000183354
0.000183054
0.000182753
0.000182435
0.000182096
0.000181723
0.000181309
0.000180846
0.000180327
0.000179745
0.000179096
0.000178375
0.0001776
0.000176753
0.000175809
0.000174794
0.000173696
0.000172463
0.000171071
0.000169532
0.000167876
0.000166138
0.000164357
0.000162579
0.000160828
0.000159135
0.000157445
0.000155682
0.000153617
0.000150031
0.000145542
0.00018639
0.000186564
0.000186845
0.000187125
0.000187238
0.000187219
0.000187047
0.000186667
0.000186055
0.00018524
0.000184255
0.000183122
0.000181866
0.000180496
0.000179007
0.000177379
0.000175581
0.000173575
0.000171305
0.000168702
0.000165692
0.000162183
0.000158072
0.000153313
0.000147947
0.000142045
0.000135651
0.000128764
0.000121382
0.000113494
0.00010507
9.6036e-05
8.62679e-05
7.54995e-05
6.3254e-05
4.93188e-05
3.96821e-05
5.04568e-05
6.51093e-05
0.000175582
0.000175406
0.000175147
0.000174856
0.000174662
0.000174455
0.000174256
0.000174093
0.000173935
0.000173786
0.000173637
0.000173473
0.000173291
0.000173081
0.000172834
0.000172545
0.000172207
0.000171813
0.000171362
0.000170848
0.000170282
0.000169652
0.000168933
0.000168142
0.000167272
0.000166276
0.000165129
0.000163839
0.000162426
0.000160913
0.000159331
0.000157711
0.00015607
0.000154417
0.000152696
0.000150807
0.000148525
0.000144786
0.000139967
0.000175698
0.000175773
0.000175939
0.000176102
0.000176114
0.000176009
0.00017577
0.000175352
0.000174733
0.000173939
0.000173002
0.000171943
0.000170781
0.000169525
0.000168172
0.000166703
0.000165091
0.000163301
0.000161279
0.000158968
0.000156293
0.000153166
0.000149489
0.00014521
0.000140357
0.00013499
0.000129134
0.000122781
0.000115917
0.00010852
0.000100541
9.18894e-05
8.24118e-05
7.17856e-05
5.93531e-05
4.40105e-05
3.05717e-05
4.56792e-05
6.09739e-05
0.000165674
0.000165601
0.00016546
0.000165297
0.000165226
0.000165147
0.000165079
0.000165044
0.000165016
0.000164996
0.000164976
0.000164942