/*--------------------------------*- C++ -*----------------------------------*\
| =========                 |                                                 |
| \\      /  F ield         | OpenFOAM: The Open Source CFD Toolbox           |
|  \\    /   O peration     | Version:  2306                                  |
|   \\  /    A nd           | Website:  www.openfoam.com                      |
|    \\/     M anipulation  |                                                 |
\*---------------------------------------------------------------------------*/
FoamFile
{
    version     2.0;
    format      ascii;
    arch        "LSB;label=32;scalar=64";
    class       volScalarField;
    location    "275";
    object      turbulenceProperties:k;
}
// * * * * * * * * * * * * * * * * * * * * * * * * * * * * * * * * * * * * * //

dimensions      [0 2 -2 0 0 0 0];

internalField   nonuniform List<scalar> 
10720
(
0.0199865
0.0232627
0.0274286
0.0330624
0.0396871
0.0480699
0.0587281
0.0718734
0.0885322
0.109789
0.137296
0.173689
0.222601
0.289985
0.385975
0.526503
0.742948
1.07658
1.66216
2.57421
4.62859
7.73807
18.114
35.3562
39.1866
37.4983
36.8556
37.5335
38.3678
38.5776
38.0663
36.9308
35.0968
32.5877
29.3483
25.4546
20.1772
15.066
5.59963
0.0170462
0.0146551
0.0119609
0.00964357
0.00744782
0.00546246
0.00385458
0.00288616
0.00301398
0.00406731
0.00602737
0.00902753
0.0133902
0.0196268
0.0284054
0.0407992
0.0586381
0.0853103
0.12702
0.194984
0.311509
0.517654
0.910917
1.66795
3.31838
6.78628
15.1679
31.258
44.2979
49.8944
51.4821
51.7421
51.4442
50.7166
49.5963
48.1448
46.0213
43.5477
35.6668
0.0031079
0.0030907
0.00305535
0.00296721
0.00283077
0.0026739
0.00248875
0.0022805
0.00207436
0.0018722
0.00167943
0.00154546
0.00152638
0.00167456
0.00216544
0.00337237
0.00632903
0.0130826
0.0313754
0.076737
0.227256
0.627315
1.92729
6.17133
12.0642
18.1508
23.891
27.9668
28.7865
26.418
22.5169
18.5648
15.358
12.9004
11.0128
9.51607
8.47132
7.41058
8.55353
0.00307964
0.00303783
0.00295243
0.00282587
0.00265284
0.00242471
0.00215704
0.00189742
0.00165755
0.00141957
0.00119307
0.000996983
0.000831323
0.000690812
0.000571731
0.000471394
0.000386273
0.000314239
0.00025111
0.000193441
0.0001364
8.06361e-05
2.7943e-05
4.54964e-06
1.15488e-05
0.00159443
0.00853386
0.068794
0.231372
0.451667
0.673295
0.867617
1.03098
1.17474
1.3093
1.44793
1.59462
1.92206
2.67355
0.00208412
0.00206768
0.00202107
0.0019498
0.00187527
0.00179337
0.00171058
0.00163614
0.00157212
0.00152246
0.00148404
0.00146201
0.00145603
0.00146858
0.00147314
0.00142761
0.0012135
0.00102758
1.85826e-05
0.00145295
0.000329021
0.00124548
4.50324e-05
0.0167776
0.183242
0.650459
1.64661
3.71581
7.32364
12.0894
16.4056
18.5346
18.126
16.2783
14.1235
12.0994
10.5136
8.71071
9.80305
0.00210036
0.00209778
0.00209222
0.00205498
0.00198892
0.00187801
0.00172505
0.00155034
0.00138796
0.00122099
0.00104131
0.000867305
0.000711578
0.000577482
0.000466772
0.000377384
0.000307719
0.000254881
0.000216447
0.000188837
0.000169813
0.000157464
0.000150676
0.000146951
0.000146771
0.000145825
0.00015512
9.22551e-05
0.000635109
0.00417417
0.01183
0.0247033
0.0551072
0.114975
0.203514
0.311966
0.429917
0.514635
0.878485
0.00175917
0.0017628
0.00175395
0.00173934
0.00170921
0.00166435
0.00160843
0.00153862
0.00145883
0.00137058
0.00127575
0.00117566
0.00107127
0.000964518
0.000856307
0.000742608
0.000628464
0.000530968
0.000406715
0.000292783
6.87032e-05
0.000124952
1.58916e-05
0.00427033
0.0216702
0.0448677
0.0252169
0.0120465
0.0378357
0.363558
1.58407
4.31465
8.09423
11.245
12.6089
12.4319
11.6932
10.238
11.0144
0.00174029
0.00171171
0.00166683
0.00161278
0.00154501
0.00145628
0.00135267
0.00124241
0.00112763
0.00100306
0.000874309
0.000753591
0.000646936
0.000555018
0.000477356
0.000412248
0.000358683
0.000315057
0.000280044
0.00025154
0.000228378
0.000208924
0.000191491
0.000173158
0.000154324
0.000138668
0.000126842
0.000118342
0.000108052
9.47284e-05
7.12842e-05
4.49385e-05
0.000343666
0.000593209
0.00214557
0.0114917
0.0379764
0.0959443
0.349125
0.00131974
0.00131741
0.00130712
0.00128878
0.00126039
0.00122191
0.00117539
0.00112156
0.00106216
0.00100083
0.00093955
0.000880773
0.00082713
0.000780244
0.00074126
0.000708469
0.000673965
0.000630221
0.000580669
0.000507396
0.000424169
0.000195675
2.3868e-05
4.81273e-06
0
0
0.00909423
0.0112853
0.0243429
0.0775979
0.0157542
0.0535913
0.327252
1.92911
4.9698
8.07158
10.0383
10.4153
11.5906
0.00131633
0.00130702
0.00128848
0.0012588
0.00121695
0.00115765
0.00108669
0.0010105
0.000929268
0.000840107
0.00074735
0.000656584
0.000571342
0.000493107
0.000422928
0.00036125
0.000308224
0.000263615
0.000226904
0.000196974
0.000172811
0.000153108
0.000136466
0.000120594
0.000104465
8.95698e-05
7.77427e-05
6.9572e-05
6.59862e-05
6.09767e-05
7.45001e-05
1.76221e-05
0.00011448
0.00053467
0.00133406
0.0011251
0.001593
0.00296821
0.067824
0.00108177
0.00108638
0.00108594
0.00108206
0.00107143
0.00105421
0.00103113
0.0010013
0.000965331
0.000924189
0.000878235
0.00082855
0.000776311
0.000722443
0.000667905
0.000611369
0.000549767
0.000486554
0.000426951
0.0003753
0.000341273
0.000290294
0.000236236
6.19299e-05
1.06924e-05
5.00452e-06
1.7527e-06
0
0
0
0.00369628
0.0367939
0.00583798
0.089529
0.192699
1.82881
5.13646
8.30713
11.0513
0.00107197
0.00105842
0.00103871
0.00101271
0.000979336
0.000935465
0.000884967
0.000830786
0.000771879
0.000706758
0.000638556
0.000570672
0.00050571
0.000445184
0.000390145
0.000341282
0.000298806
0.000262598
0.000232237
0.000206941
0.000185826
0.000167772
0.000151537
0.000135384
0.000118611
0.000102643
8.87143e-05
7.70582e-05
6.72827e-05
5.91553e-05
5.21906e-05
4.59085e-05
3.68376e-05
2.58845e-05
5.27822e-07
0.000166892
0.000274097
0.000683017
0.00775828
0.000875082
0.000878925
0.000879538
0.000877312
0.000870322
0.000858221
0.000841296
0.000819051
0.000791681
0.000759941
0.000724375
0.000685873
0.000645622
0.000604767
0.000564264
0.000525465
0.00049029
0.000457529
0.000424049
0.000388716
0.000355507
0.000328365
0.000308534
0.00025601
0.000167834
8.85692e-05
2.63254e-05
5.90583e-06
3.294e-06
4.33028e-07
0
0
0.000713267
0.0280012
0.0201778
0.125758
0.833236
4.21413
8.8488
0.000867898
0.000858167
0.000844012
0.000824521
0.000799237
0.000766791
0.000730326
0.00069058
0.000646815
0.000598824
0.000548382
0.000497393
0.000447404
0.000399481
0.000354519
0.000313236
0.000276029
0.000243138
0.000214565
0.000189971
0.000168885
0.0001506
0.000134214
0.000118469
0.000102704
8.77653e-05
7.4634e-05
6.35821e-05
5.43817e-05
4.69128e-05
4.13272e-05
3.76941e-05
3.55051e-05
3.21041e-05
2.4065e-05
3.0752e-06
1.38065e-06
0
0.00167198
0.000725297
0.000730248
0.000733188
0.000734372
0.000732361
0.000726867
0.000718111
0.000705447
0.000688874
0.000668745
0.00064503
0.00061819
0.000588752
0.000557198
0.000524091
0.000490108
0.000454819
0.000417315
0.000379353
0.000343338
0.000311325
0.000286284
0.000268897
0.000256514
0.000231833
0.000194153
0.000148957
9.9876e-05
6.0056e-05
6.84108e-06
3.11202e-06
1.46113e-07
0
0
0.00304691
0.00786544
0.103502
0.946262
5.28244
0.000717858
0.000708892
0.000696874
0.000680925
0.000660938
0.000636169
0.000609108
0.00057928
0.000546254
0.000510425
0.000472599
0.000433961
0.000395465
0.000357833
0.000321798
0.000288059
0.000257042
0.000229119
0.000204428
0.000182826
0.000163967
0.000147321
0.000132164
0.000117546
0.000102971
8.90633e-05
7.65875e-05
6.57569e-05
5.63444e-05
4.81407e-05
4.10873e-05
3.50484e-05
2.98786e-05
2.5456e-05
2.24404e-05
2.0373e-05
1.54023e-05
1.63308e-06
0
0.000605026
0.000609794
0.000613268
0.000615437
0.000615357
0.000612716
0.000607575
0.000599366
0.000588018
0.000573635
0.00055617
0.000535871
0.000513096
0.000488212
0.000461759
0.000434161
0.00040605
0.000378517
0.00035166
0.000325456
0.000300285
0.000277277
0.000257409
0.000240437
0.000222245
0.000199629
0.000175524
0.000151555
0.000127942
9.29956e-05
6.05143e-05
2.93774e-06
1.7072e-06
0
0
0.000838825
0.0318719
0.129421
2.09207
0.000598491
0.000590926
0.00058115
0.000568168
0.000552338
0.000533225
0.000512623
0.000489804
0.000464574
0.00043745
0.000408813
0.000379338
0.000349598
0.000320035
0.000291159
0.0002635
0.000237472
0.000213419
0.000191558
0.000171921
0.000154358
0.000138534
0.000123945
0.000109952
9.62065e-05
8.31092e-05
7.12908e-05
6.09896e-05
5.20729e-05
4.43878e-05
3.79003e-05
3.26533e-05
2.8652e-05
2.58579e-05
2.42319e-05
2.44386e-05
2.6409e-05
2.85753e-05
1.19724e-06
0.000510057
0.000514731
0.000518629
0.000521645
0.000523048
0.000522684
0.000520504
0.000516024
0.000509172
0.00049994
0.00048818
0.000474006
0.000457586
0.000439104
0.00041885
0.000397119
0.00037436
0.000350536
0.000325809
0.000301248
0.000278134
0.000257404
0.00023927
0.000222337
0.000204145
0.000183408
0.000162182
0.000143614
0.000129202
0.000117455
0.000105784
7.74737e-05
3.38915e-05
3.11588e-06
0
0
0.00014974
0.0154327
0.547141
0.000504073
0.000497482
0.000489266
0.000478474
0.000465712
0.000450794
0.000434743
0.000416975
0.000397513
0.000376731
0.00035482
0.000332185
0.000309119
0.00028586
0.000262783
0.000240275
0.000218655
0.000198272
0.000179343
0.000161982
0.000146152
0.000131652
0.000118135
0.000105177
9.2514e-05
8.04379e-05
6.94437e-05
5.97445e-05
5.12438e-05
4.38025e-05
3.73675e-05
3.19114e-05
2.73579e-05
2.37795e-05
2.11655e-05
2.065e-05
2.03827e-05
3.44269e-05
1.63469e-05
0.000433054
0.00043743
0.000441354
0.000444666
0.000446789
0.000447665
0.000447145
0.000444895
0.000440768
0.000434737
0.000426617
0.000416438
0.000404258
0.000390158
0.000374344
0.000357051
0.000338541
0.000319232
0.000299563
0.000279923
0.000260942
0.000243112
0.000226623
0.000210626
0.000193332
0.000173784
0.000153324
0.000134843
0.000120043
0.000109281
0.000101263
9.6637e-05
8.46805e-05
5.37164e-05
3.17412e-06
0
0
0.00495428
0.140563
0.000427695
0.000421988
0.000415094
0.000406061
0.000395651
0.000383869
0.000371142
0.000357104
0.000341935
0.000325858
0.000308928
0.000291402
0.00027344
0.000255145
0.000236726
0.000218457
0.000200571
0.00018334
0.000166996
0.000151674
0.000137396
0.000124072
0.000111497
9.93985e-05
8.76242e-05
7.63943e-05
6.60918e-05
5.69219e-05
4.88439e-05
4.1766e-05
3.56599e-05
3.05344e-05
2.63872e-05
2.32764e-05
2.11497e-05
2.08868e-05
2.07997e-05
2.95655e-05
3.71987e-05
0.000370162
0.000374239
0.000378068
0.000381477
0.000384037
0.000385702
0.000386346
0.000385661
0.000383538
0.000379918
0.000374618
0.00036762
0.000358917
0.00034853
0.000336558
0.00032314
0.000308478
0.000292873
0.000276437
0.000259531
0.000242903
0.000227119
0.000212307
0.000197826
0.000182317
0.000164953
0.000146602
0.000129395
0.000114839
0.00010316
9.36158e-05
8.75108e-05
8.41219e-05
8.25621e-05
5.09905e-05
2.55002e-06
0
0.0007997
0.0484256
0.000365366
0.000360366
0.000354527
0.000346917
0.000338336
0.000328887
0.000318659
0.000307441
0.000295498
0.000282918
0.000269728
0.000256077
0.000242026
0.000227582
0.000212888
0.000198104
0.000183373
0.000168914
0.000154906
0.000141511
0.000128798
0.000116743
0.000105216
9.40627e-05
8.3231e-05
7.28846e-05
6.33257e-05
5.47392e-05
4.71171e-05
4.03948e-05
3.45443e-05
2.95711e-05
2.5451e-05
2.22416e-05
1.99642e-05
1.93735e-05
1.95907e-05
2.52023e-05
4.04048e-05
0.000318173
0.000321927
0.000325568
0.000328922
0.000331653
0.00033374
0.000335084
0.000335404
0.000334604
0.000332621
0.000329281
0.000324545
0.000318368
0.000310715
0.000301644
0.000291236
0.000279608
0.000267019
0.000253662
0.000239791
0.00022586
0.000212286
0.00019916
0.000186067
0.000172088
0.000156621
0.000140296
0.000124748
0.000111253
9.99326e-05
9.02468e-05
8.22246e-05
7.65125e-05
7.44283e-05
7.90361e-05
3.91229e-05
2.99559e-08
0.000257975
0.0160935
0.000313906
0.000309514
0.000304524
0.000298088
0.000290957
0.000283272
0.000274957
0.000265904
0.000256404
0.000246479
0.000236118
0.0002254
0.000214347
0.000202932
0.000191193
0.000179232
0.000167139
0.000155063
0.000143143
0.000131513
0.000120262
0.000109404
9.88894e-05
8.86538e-05
7.86975e-05
6.91671e-05
6.02983e-05
5.22603e-05
4.50736e-05
3.87015e-05
3.31315e-05
2.83834e-05
2.4457e-05
2.14105e-05
1.92665e-05
1.86346e-05
1.89011e-05
2.31872e-05
3.70082e-05
0.000274847
0.000278274
0.000281686
0.000284908
0.000287674
0.000289993
0.000291754
0.000292727
0.000292839
0.000292013
0.000290105
0.000287051
0.000282807
0.00027732
0.000270594
0.000262663
0.00025359
0.000243574
0.000232742
0.000221245
0.000209421
0.000197688
0.000186128
0.00017445
0.000161993
0.000148301
0.000133836
0.000119882
0.000107557
9.70356e-05
8.79457e-05
8.0009e-05
7.33731e-05
6.83048e-05
6.74715e-05
8.20569e-05
2.64245e-06
2.65418e-05
0.00403893
0.000271032
0.000267177
0.000262868
0.000257403
0.000251439
0.000245102
0.000238262
0.000230909
0.000223279
0.000215374
0.000207164
0.000198704
0.000189971
0.000180906
0.000171527
0.000161864
0.000151953
0.000141902
0.000131813
0.000121787
0.000111902
0.000102205
9.26931e-05
8.33718e-05
7.42786e-05
6.55402e-05
5.7355e-05
4.98709e-05
4.31271e-05
3.71103e-05
3.18178e-05
2.72737e-05
2.34779e-05
2.04875e-05
1.83356e-05
1.75967e-05
1.77551e-05
2.1464e-05
3.32685e-05
0.000238445
0.000241552
0.000244724
0.000247757
0.000250464
0.000252873
0.000254851
0.000256226
0.000256938
0.000256905
0.00025601
0.000254193
0.000251384
0.000247528
0.000242596
0.000236605
0.000229591
0.000221661
0.00021296
0.000203585
0.000193718
0.000183719
0.00017366
0.000163338
0.000152304
0.000140222
0.000127424
0.000114917
0.000103664
9.39232e-05
8.54571e-05
7.80846e-05
7.16465e-05
6.6763e-05
6.01716e-05
7.486e-05
3.68975e-05
3.68386e-07
0.000275619
0.000235028
0.000231636
0.000227898
0.000223224
0.000218206
0.00021292
0.000207246
0.000201225
0.000195048
0.000188698
0.000182149
0.000175417
0.000168476
0.000161257
0.00015374
0.000145933
0.000137833
0.000129493
0.000120983
0.000112379
0.000103757
9.51681e-05
8.66314e-05
7.81783e-05
6.98928e-05
6.19045e-05
5.43721e-05
4.74247e-05
4.11143e-05
3.5447e-05
3.0431e-05
2.60975e-05
2.24561e-05
1.9567e-05
1.74625e-05
1.66631e-05
1.67236e-05
1.98566e-05
2.99996e-05
0.000207643
0.000210459
0.00021338
0.000216205
0.000218809
0.000221207
0.000223285
0.000224897
0.000225997
0.00022651
0.00022633
0.0002254
0.00022366
0.000221042
0.000217527
0.000213089
0.000207744
0.000201541
0.000194619
0.000187011
0.000178816
0.000170332
0.00016164
0.000152608
0.00014291
0.000132307
0.00012104
0.000109887
9.96589e-05
9.06615e-05
8.27633e-05
7.58871e-05
6.98386e-05
6.53508e-05
5.95412e-05
6.01007e-05
7.24248e-05
1.87455e-07
1.91713e-05
0.000204591
0.000201586
0.000198333
0.000194315
0.000190069
0.000185615
0.000180867
0.000175899
0.000170854
0.000165714
0.000160446
0.000155062
0.000149519
0.000143741
0.000137706
0.000131383
0.000124762
0.000117859
0.00011071
0.000103368
9.58886e-05
8.83236e-05
8.07065e-05
7.3099e-05
6.55955e-05
5.83229e-05
5.14158e-05
4.49909e-05
3.91077e-05
3.37868e-05
2.90455e-05
2.49197e-05
2.14238e-05
1.86182e-05
1.6538e-05
1.5662e-05
1.56323e-05
1.82585e-05
2.70424e-05
0.000181419
0.000183972
0.000186641
0.000189259
0.000191723
0.000194051
0.000196144
0.000197879
0.000199208
0.000200075
0.000200389
0.000200095
0.000199149
0.000197478
0.000195047
0.000191826
0.000187808
0.000183014
0.000177552
0.000171438
0.000164712
0.000157584
0.000150147
0.000142318
0.000133863
0.000124605
0.000114728
0.000104831
9.55873e-05
8.73158e-05
7.99715e-05
7.35174e-05
6.788e-05
6.33195e-05
5.97953e-05
5.27634e-05
7.85709e-05
6.72965e-07
6.3331e-10
0.0001787
0.000176034
0.00017318
0.000169713
0.000166099
0.000162314
0.000158311
0.000154183
0.000150033
0.000145838
0.000141572
0.000137231
0.000132774
0.000128133
0.000123269
0.000118147
0.000112732
0.000107027
0.00010104
9.48016e-05
8.83501e-05
8.17249e-05
7.49674e-05
6.81525e-05
6.13878e-05
5.47877e-05
4.84763e-05
4.25557e-05
3.70886e-05
3.21077e-05
2.76376e-05
2.37179e-05
2.03695e-05
1.76537e-05
1.56069e-05
1.46648e-05
1.45529e-05
1.673e-05
2.43037e-05
0.000158975
0.000161283
0.000163713
0.00016613
0.000168432
0.000170661
0.00017271
0.000174483
0.000175941
0.000177036
0.000177686
0.000177852
0.000177479
0.000176509
0.000174906
0.000172633
0.000169677
0.000166029
0.000161767
0.0001569
0.000151433
0.000145489
0.000139181
0.000132459
0.000125146
0.000117113
0.000108498
9.97628e-05
9.14595e-05
8.39011e-05
7.71114e-05
7.10662e-05
6.58142e-05
6.12284e-05
5.85966e-05
5.14041e-05
6.65642e-05
2.65913e-05
5.70964e-07
0.000156549
0.000154181
0.000151668
0.00014866
0.000145569
0.000142328
0.000138931
0.000135476
0.000132034
0.000128584
0.000125103
0.000121583
0.00011798
0.00011423
0.000110295
0.000106133
0.000101701
9.69884e-05
9.19848e-05
8.66994e-05
8.11591e-05
7.53959e-05
6.94428e-05
6.33675e-05
5.72838e-05
5.13179e-05
4.55728e-05
4.01372e-05
3.50748e-05
3.04262e-05
2.62228e-05
2.25061e-05
1.93028e-05
1.66738e-05
1.46569e-05
1.36509e-05
1.34629e-05
1.52662e-05
2.17645e-05
0.000139674
0.000141753
0.000143967
0.00014618
0.000148324
0.000150426
0.000152403
0.000154157
0.000155672
0.000156897
0.000157765
0.000158239
0.000158279
0.000157828
0.000156857
0.000155321
0.000153201
0.000150482
0.000147197
0.000143366
0.000138968
0.000134058
0.00012876
0.000123044
0.00011677
0.000109842
0.000102366
9.46968e-05
8.72848e-05
8.0422e-05
7.41807e-05
6.85576e-05
6.36414e-05
5.92712e-05
5.64373e-05
5.17425e-05
5.46617e-05
5.19276e-05
6.94292e-06
0.000137505
0.000135397
0.000133177
0.000130561
0.000127896
0.000125106
0.000122205
0.000119295
0.000116419
0.000113562
0.000110702
0.000107825
0.000104894
0.000101848
9.8649e-05
9.52571e-05
9.16253e-05
8.77296e-05
8.3553e-05
7.90924e-05
7.43521e-05
6.93529e-05
6.41252e-05
5.87405e-05
5.33055e-05
4.79337e-05
4.27201e-05
3.77451e-05
3.30717e-05
2.87453e-05
2.4802e-05
2.12844e-05
1.82251e-05
1.56826e-05
1.36972e-05
1.26343e-05
1.23764e-05
1.38667e-05
1.94176e-05
0.000123
0.000124872
0.000126885
0.000128909
0.00013089
0.00013286
0.000134735
0.000136442
0.000137959
0.000139246
0.000140247
0.000140932
0.000141265
0.0001412
0.000140702
0.000139733
0.000138268
0.000136286
0.00013379
0.000130812
0.000127316
0.000123307
0.000118897
0.000114079
0.000108741
0.000102806
9.63545e-05
8.96595e-05
8.30831e-05
7.68913e-05
7.11844e-05
6.59899e-05
6.13793e-05
5.73351e-05
5.41371e-05
5.13499e-05
4.84343e-05
5.52932e-05
2.67481e-05
0.000121061
0.00011918
0.000117215
0.000114934
0.000112617
0.000110205
0.000107716
0.000105245
0.000102826
0.000100443
9.80748e-05
9.57084e-05
9.33066e-05
9.08196e-05
8.82085e-05
8.54329e-05
8.24497e-05
7.92288e-05
7.57431e-05
7.19808e-05
6.794e-05
6.36264e-05
5.90586e-05
5.43036e-05
4.94638e-05
4.46421e-05
3.99265e-05
3.53888e-05
3.10888e-05
2.70742e-05
2.33843e-05
2.00616e-05
1.71438e-05
1.46863e-05
1.27324e-05
1.16177e-05
1.12959e-05
1.25345e-05
1.72673e-05
0.00010854
0.000110229
0.000112053
0.000113899
0.000115723
0.000117557
0.000119318
0.000120952
0.000122438
0.000123741
0.000124814
0.000125633
0.000126167
0.000126374
0.000126225
0.000125688
0.00012473
0.00012333
0.000121478
0.000119206
0.000116463
0.000113229
0.000109596
0.000105573
0.00010107
9.60207e-05
9.04855e-05
8.46736e-05
7.88747e-05
7.33241e-05
6.81356e-05
6.33639e-05
5.90552e-05
5.5314e-05
5.19975e-05
4.98912e-05
4.59637e-05
4.97252e-05
4.08113e-05
0.000106806
0.000105126
0.000103383
0.000101387
9.93621e-05
9.72657e-05
9.51201e-05
9.30105e-05
9.09621e-05
8.89596e-05
8.69828e-05
8.50199e-05
8.30406e-05
8.09968e-05
7.88548e-05
7.65747e-05
7.41154e-05
7.14479e-05
6.8541e-05
6.53734e-05
6.19321e-05
5.82203e-05
5.42482e-05
5.00675e-05
4.57691e-05
4.14552e-05
3.72051e-05
3.308e-05
2.91359e-05
2.54207e-05
2.19756e-05
1.88427e-05
1.60632e-05
1.36893e-05
1.17676e-05
1.06075e-05
1.02281e-05
1.12655e-05
1.52998e-05
9.59575e-05
9.74785e-05
9.91327e-05
0.000100812
0.000102488
0.000104183
0.000105828
0.000107376
0.000108807
0.000110093
0.000111192
0.000112087
0.000112752
0.00011315
0.000113259
0.000113044
0.000112479
0.000111541
0.000110207
0.000108503
0.00010638
0.000103805
0.000100846
9.75184e-05
9.37551e-05
8.94931e-05
8.47744e-05
7.97598e-05
7.46793e-05
6.97353e-05
6.5047e-05
6.06852e-05
5.66874e-05
5.31964e-05
4.9981e-05
4.78644e-05
4.46452e-05
4.42294e-05
4.38484e-05
9.44078e-05
9.29013e-05
9.13533e-05
8.96019e-05
8.78248e-05
8.59951e-05
8.41365e-05
8.23243e-05
8.05775e-05
7.88812e-05
7.72221e-05
7.55845e-05
7.39399e-05
7.22482e-05
7.04791e-05
6.85985e-05
6.65655e-05
6.435e-05
6.19217e-05
5.92556e-05
5.63338e-05
5.31466e-05
4.9699e-05
4.60339e-05
4.2234e-05
3.83891e-05
3.45692e-05
3.083e-05
2.7222e-05
2.37923e-05
2.05827e-05
1.76344e-05
1.49897e-05
1.26977e-05
1.08086e-05
9.60912e-06
9.17992e-06
1.00618e-05
1.3509e-05
8.49737e-05
8.63446e-05
8.78414e-05
8.93673e-05
9.09034e-05
9.24648e-05
9.39935e-05
9.54442e-05
9.68079e-05
9.80534e-05
9.91504e-05
0.000100082
0.000100827
0.000101355
0.000101646
0.00010167
0.000101402
0.00010082
9.98981e-05
9.86501e-05
9.70385e-05
9.50216e-05
9.26408e-05
8.99184e-05
8.68023e-05
8.32328e-05
7.92368e-05
7.49378e-05
7.05154e-05
6.61414e-05
6.1931e-05
5.79631e-05
5.42781e-05
5.10073e-05
4.79825e-05
4.57025e-05
4.32033e-05
4.06398e-05
4.16005e-05
8.35887e-05
8.22378e-05
8.08595e-05
7.93167e-05
7.77514e-05
7.61493e-05
7.45304e-05
7.2966e-05
7.14675e-05
7.00218e-05
6.86161e-05
6.72389e-05
6.58627e-05
6.44549e-05
6.29873e-05
6.1426e-05
5.97377e-05
5.78939e-05
5.58622e-05
5.36165e-05
5.11364e-05
4.84061e-05
4.54225e-05
4.222e-05
3.88695e-05
3.54526e-05
3.20277e-05
2.86471e-05
2.53557e-05
2.2198e-05
1.92144e-05
1.64445e-05
1.39306e-05
1.17189e-05
9.86269e-06
8.62892e-06
8.15599e-06
8.92351e-06
1.18883e-05
7.53599e-05
7.65942e-05
7.79474e-05
7.93348e-05
8.07364e-05
8.21709e-05
8.35837e-05
8.49375e-05
8.62215e-05
8.74135e-05
8.84837e-05
8.94223e-05
9.02075e-05
9.08185e-05
9.12365e-05
9.14347e-05
9.13914e-05
9.10832e-05
9.04868e-05
8.96057e-05
8.84105e-05
8.68617e-05
8.49714e-05
8.27703e-05
8.02138e-05
7.72482e-05
7.38882e-05
7.0227e-05
6.64024e-05
6.25587e-05
5.88015e-05
5.5212e-05
5.18335e-05
4.87752e-05
4.59439e-05
4.35758e-05
4.14013e-05
3.82552e-05
3.82675e-05
7.41187e-05
7.29104e-05
7.16795e-05
7.03172e-05
6.89346e-05
6.75261e-05
6.61107e-05
6.47513e-05
6.34574e-05
6.22166e-05
6.10195e-05
5.98536e-05
5.8695e-05
5.75132e-05
5.6285e-05
5.49829e-05
5.35754e-05
5.20352e-05
5.0332e-05
4.84398e-05
4.63357e-05
4.39997e-05
4.14228e-05
3.863e-05
3.5682e-05
3.265e-05
2.95898e-05
2.65414e-05
2.35464e-05
2.06461e-05
1.78783e-05
1.52801e-05
1.28936e-05
1.07608e-05
8.93728e-06
7.67364e-06
7.16336e-06
7.84943e-06
1.04245e-05
6.69229e-05
6.80341e-05
6.92563e-05
7.05173e-05
7.17941e-05
7.31088e-05
7.44097e-05
7.56651e-05
7.68678e-05
7.79955e-05
7.90258e-05
7.99493e-05
8.07487e-05
8.14072e-05
8.19067e-05
8.22285e-05
8.235e-05
8.22502e-05
8.19083e-05
8.1317e-05
8.04607e-05
7.92951e-05
7.78159e-05
7.60571e-05
7.39846e-05
7.15446e-05
6.87417e-05
6.5645e-05
6.23602e-05
5.9004e-05
5.56727e-05
5.24434e-05
4.93613e-05
4.65171e-05
4.38602e-05
4.1502e-05
3.93896e-05
3.62896e-05
3.5238e-05
6.58101e-05
6.47283e-05
6.36275e-05
6.24222e-05
6.1198e-05
5.99546e-05
5.87134e-05
5.75274e-05
5.64035e-05
5.53323e-05
5.43047e-05
5.33089e-05
5.23244e-05
5.13273e-05
5.02951e-05
4.92019e-05
4.80218e-05
4.67303e-05
4.52995e-05
4.37016e-05
4.19146e-05
3.99165e-05
3.76944e-05
3.52643e-05
3.26779e-05
2.99941e-05
2.72647e-05
2.45219e-05
2.18031e-05
1.91445e-05
1.65817e-05
1.4149e-05
1.18861e-05
9.83102e-06
8.03974e-06
6.7492e-06
6.20655e-06
6.84291e-06
9.11174e-06
5.95006e-05
6.05022e-05
6.16061e-05
6.27493e-05
6.39121e-05
6.51132e-05
6.63078e-05
6.74664e-05
6.85868e-05
6.96455e-05
7.06264e-05
7.15198e-05
7.23142e-05
7.29921e-05
7.35419e-05
7.3947e-05
7.41869e-05
7.42434e-05
7.40965e-05
7.37336e-05
7.31475e-05
7.22975e-05
7.11623e-05
6.97789e-05
6.81174e-05
6.61276e-05
6.38068e-05
6.12056e-05
5.84045e-05
5.54942e-05
5.25588e-05
4.96698e-05
4.68728e-05
4.42387e-05
4.17458e-05
3.94496e-05
3.73208e-05
3.43824e-05
3.26443e-05
5.85047e-05
5.75346e-05
5.65482e-05
5.54804e-05
5.43941e-05
5.32932e-05
5.22013e-05
5.11611e-05
5.01803e-05
4.92495e-05
4.83622e-05
4.75064e-05
4.66647e-05
4.58158e-05
4.49416e-05
4.40196e-05
4.30255e-05
4.1937e-05
4.07305e-05
3.938e-05
3.78613e-05
3.61514e-05
3.42346e-05
3.21218e-05
2.98548e-05
2.74862e-05
2.5056e-05
2.25942e-05
2.01315e-05
1.76997e-05
1.53318e-05
1.30581e-05
1.09148e-05
8.93675e-06
7.17809e-06
5.8624e-06
5.29083e-06
5.90455e-06
7.93893e-06
5.29584e-05
5.3861e-05
5.48584e-05
5.58934e-05
5.69504e-05
5.80464e-05
5.91394e-05
6.02066e-05
6.12442e-05
6.2233e-05
6.31577e-05
6.40121e-05
6.4786e-05
6.54655e-05
6.60418e-05
6.64989e-05
6.68201e-05
6.69909e-05
6.69911e-05
6.68072e-05
6.64349e-05
6.58382e-05
6.49896e-05
6.39189e-05
6.26042e-05
6.09984e-05
5.90935e-05
5.69249e-05
5.45519e-05
5.20458e-05
4.94755e-05
4.69048e-05
4.43786e-05
4.19538e-05
3.96162e-05
3.74055e-05
3.52724e-05
3.24635e-05
3.03424e-05
5.20673e-05
5.11975e-05
5.03125e-05
4.93645e-05
4.83987e-05
4.74212e-05
4.64574e-05
4.55426e-05
4.46826e-05
4.38692e-05
4.30972e-05
4.2357e-05
4.16326e-05
4.09057e-05
4.01595e-05
3.93762e-05
3.85343e-05
3.76148e-05
3.65934e-05
3.54477e-05
3.41553e-05
3.26924e-05
3.10399e-05
2.92053e-05
2.72211e-05
2.51324e-05
2.29728e-05
2.07668e-05
1.85399e-05
1.63203e-05
1.41363e-05
1.20149e-05
9.98831e-06
8.08687e-06
6.36095e-06
5.02012e-06
4.42093e-06
5.03713e-06
6.89888e-06
4.71817e-05
4.7994e-05
4.88955e-05
4.98314e-05
5.07915e-05
5.17901e-05
5.27878e-05
5.37684e-05
5.47248e-05
5.56437e-05
5.65094e-05
5.73187e-05
5.80613e-05
5.87289e-05
5.93118e-05
5.97974e-05
6.01735e-05
6.0424e-05
6.05343e-05
6.04883e-05
6.02844e-05
5.98887e-05
5.92743e-05
5.84616e-05
5.74368e-05
5.61568e-05
5.46076e-05
5.28138e-05
5.08178e-05
4.86733e-05
4.64374e-05
4.41638e-05
4.18903e-05
3.96703e-05
3.7487e-05
3.53713e-05
3.32622e-05
3.05571e-05
2.82299e-05
4.6383e-05
4.56035e-05
4.48098e-05
4.39663e-05
4.31064e-05
4.22377e-05
4.13838e-05
4.05763e-05
3.98187e-05
3.91043e-05
3.8429e-05
3.77843e-05
3.71561e-05
3.65296e-05
3.58899e-05
3.52205e-05
3.45037e-05
3.37216e-05
3.28542e-05
3.188e-05
3.07773e-05
2.95237e-05
2.80993e-05
2.65064e-05
2.47715e-05
2.29319e-05
2.10152e-05
1.90419e-05
1.70324e-05
1.50108e-05
1.30008e-05
1.10259e-05
9.11387e-06
7.28962e-06
5.59742e-06
4.22973e-06
3.60042e-06
4.24326e-06
5.98308e-06
4.20713e-05
4.28032e-05
4.36164e-05
4.44631e-05
4.53337e-05
4.62415e-05
4.71518e-05
4.80493e-05
4.89286e-05
4.97779e-05
5.05843e-05
5.13442e-05
5.20511e-05
5.26966e-05
5.32733e-05
5.37714e-05
5.41793e-05
5.44842e-05
5.46735e-05
5.47313e-05
5.46559e-05
5.44192e-05
5.39929e-05
5.3394e-05
5.26087e-05
5.15998e-05
5.0352e-05
4.88805e-05
4.7214e-05
4.53914e-05
4.34576e-05
4.14578e-05
3.94241e-05
3.73972e-05
3.53694e-05
3.33512e-05
3.1291e-05
2.86874e-05
2.62582e-05
4.1355e-05
4.06574e-05
3.99454e-05
3.91928e-05
3.84268e-05
3.76538e-05
3.68956e-05
3.61805e-05
3.55105e-05
3.48806e-05
3.4287e-05
3.3722e-05
3.31742e-05
3.26301e-05
3.2078e-05
3.15028e-05
3.0889e-05
3.02212e-05
2.94814e-05
2.86504e-05
2.77082e-05
2.66324e-05
2.54034e-05
2.40203e-05
2.25033e-05
2.08849e-05
1.91865e-05
1.74242e-05
1.56145e-05
1.37767e-05
1.19314e-05
1.00972e-05
8.29798e-06
6.55251e-06
4.89674e-06
3.49954e-06
2.83279e-06
3.52784e-06
5.18502e-06
3.75434e-05
3.82032e-05
3.89362e-05
3.97016e-05
4.04908e-05
4.13145e-05
4.21439e-05
4.29635e-05
4.37702e-05
4.45523e-05
4.53001e-05
4.60098e-05
4.66763e-05
4.72923e-05
4.78534e-05
4.83495e-05
4.87733e-05
4.91131e-05
4.93572e-05
4.94909e-05
4.95129e-05
4.93994e-05
4.91238e-05
4.86969e-05
4.81082e-05
4.73251e-05
4.63311e-05
4.51336e-05
4.37518e-05
4.22131e-05
4.05508e-05
3.88003e-05
3.69894e-05
3.5149e-05
3.3272e-05
3.13593e-05
2.93652e-05
2.68738e-05
2.44147e-05
3.69015e-05
3.62767e-05
3.56386e-05
3.49658e-05
3.4283e-05
3.35944e-05
3.292e-05
3.22848e-05
3.16907e-05
3.11327e-05
3.06081e-05
3.01113e-05
2.96311e-05
2.91557e-05
2.86759e-05
2.81785e-05
2.76502e-05
2.70779e-05
2.64448e-05
2.57335e-05
2.4926e-05
2.40012e-05
2.29397e-05
2.17386e-05
2.04136e-05
1.89902e-05
1.74869e-05
1.59153e-05
1.42885e-05
1.26217e-05
1.09318e-05
9.23365e-06
7.54626e-06
5.88324e-06
4.2693e-06
2.84041e-06
2.12091e-06
2.89749e-06
4.49929e-06
3.35267e-05
3.41207e-05
3.47816e-05
3.54727e-05
3.61873e-05
3.69347e-05
3.76885e-05
3.84359e-05
3.91743e-05
3.98924e-05
4.05825e-05
4.12417e-05
4.18656e-05
4.24484e-05
4.29866e-05
4.34732e-05
4.39002e-05
4.42582e-05
4.45372e-05
4.4725e-05
4.4819e-05
4.47997e-05
4.46431e-05
4.43539e-05
4.39241e-05
4.33263e-05
4.25439e-05
4.15779e-05
4.04405e-05
3.91495e-05
3.77286e-05
3.62051e-05
3.45991e-05
3.29353e-05
3.12058e-05
2.94059e-05
2.749e-05
2.51187e-05
2.26884e-05
3.29512e-05
3.23914e-05
3.18196e-05
3.12183e-05
3.06088e-05
2.99948e-05
2.93943e-05
2.88289e-05
2.83005e-05
2.78045e-05
2.73399e-05
2.68997e-05
2.64762e-05
2.60598e-05
2.56411e-05
2.52088e-05
2.47517e-05
2.42584e-05
2.37143e-05
2.31036e-05
2.241e-05
2.16141e-05
2.06963e-05
1.96521e-05
1.84947e-05
1.7244e-05
1.59151e-05
1.45158e-05
1.30563e-05
1.15485e-05
1.00053e-05
8.43923e-06
6.86395e-06
5.28853e-06
3.72555e-06
2.26736e-06
1.46588e-06
2.36263e-06
3.9207e-06
2.99584e-05
3.04933e-05
3.10885e-05
3.17124e-05
3.23587e-05
3.30359e-05
3.37202e-05
3.44005e-05
3.50748e-05
3.57323e-05
3.63672e-05
3.69768e-05
3.75575e-05
3.81051e-05
3.86163e-05
3.90855e-05
3.95062e-05
3.98706e-05
4.01707e-05
4.03955e-05
4.05409e-05
4.05919e-05
4.05263e-05
4.03456e-05
4.00432e-05
3.95962e-05
3.8988e-05
3.82165e-05
3.72871e-05
3.62105e-05
3.50025e-05
3.36823e-05
3.22653e-05
3.0767e-05
2.91812e-05
2.74959e-05
2.56725e-05
2.34318e-05
2.10707e-05
2.94425e-05
2.89413e-05
2.84287e-05
2.78912e-05
2.73471e-05
2.67993e-05
2.62639e-05
2.57601e-05
2.52891e-05
2.48472e-05
2.44335e-05
2.40431e-05
2.36682e-05
2.33009e-05
2.29334e-05
2.25561e-05
2.21592e-05
2.17325e-05
2.12631e-05
2.07376e-05
2.01405e-05
1.94539e-05
1.86595e-05
1.77516e-05
1.67402e-05
1.56422e-05
1.44683e-05
1.32246e-05
1.19181e-05
1.05582e-05
9.1544e-06
7.71607e-06
6.25388e-06
4.77299e-06
3.27535e-06
1.80375e-06
8.69865e-07
1.93792e-06
3.44495e-06
2.67849e-05
2.72663e-05
2.7802e-05
2.83649e-05
2.8949e-05
2.9562e-05
3.01827e-05
3.08012e-05
3.14154e-05
3.20165e-05
3.25988e-05
3.31604e-05
3.36983e-05
3.42092e-05
3.46904e-05
3.5138e-05
3.55462e-05
3.59088e-05
3.62186e-05
3.64655e-05
3.66454e-05
3.67473e-05
3.67511e-05
3.66541e-05
3.64524e-05
3.61261e-05