/*--------------------------------*- C++ -*----------------------------------*\
| =========                 |                                                 |
| \\      /  F ield         | OpenFOAM: The Open Source CFD Toolbox           |
|  \\    /   O peration     | Version:  2306                                  |
|   \\  /    A nd           | Website:  www.openfoam.com                      |
|    \\/     M anipulation  |                                                 |
\*---------------------------------------------------------------------------*/
FoamFile
{
    version     2.0;
    format      ascii;
    arch        "LSB;label=32;scalar=64";
    class       volVectorField;
    location    "275";
    object      U;
}
// * * * * * * * * * * * * * * * * * * * * * * * * * * * * * * * * * * * * * //

dimensions      [0 1 -1 0 0 0 0];

internalField   nonuniform List<vector> 
10720
(
(0.226011 27.6543 6.76028e-18)
(1.96372 29.9505 -5.629e-17)
(4.137 32.1688 2.13034e-16)
(6.63512 33.9015 -4.10596e-16)
(9.39164 35.2314 3.1486e-16)
(12.3383 36.1164 2.00463e-16)
(15.3201 36.4583 -3.61798e-16)
(18.2412 36.2913 1.24286e-15)
(21.0167 35.6806 -8.3962e-16)
(23.5636 34.661 -5.81089e-16)
(25.8451 33.3277 3.00376e-16)
(27.8143 31.7296 1.6784e-15)
(29.4243 29.8636 6.52465e-16)
(30.6586 27.7698 5.97961e-16)
(31.4746 25.4635 1.43058e-15)
(31.8441 22.9758 1.24057e-15)
(31.6968 20.308 -2.52961e-15)
(30.9553 17.4965 -8.97518e-15)
(29.4855 14.5535 6.6826e-15)
(27.1593 11.5437 -3.12814e-16)
(23.8367 8.53136 -1.30872e-15)
(19.5675 5.67687 -2.42397e-15)
(14.8925 3.22825 8.27202e-15)
(11.4456 1.44068 -2.14883e-15)
(10.0639 0.260587 1.4781e-15)
(10.705 -0.359372 -3.15816e-15)
(12.1279 -0.599806 1.89279e-16)
(13.6367 -0.719956 -1.37212e-15)
(14.88 -0.871654 -5.45016e-15)
(15.7032 -1.08718 -7.67914e-15)
(16.1367 -1.34764 7.72072e-15)
(16.2746 -1.6213 2.6931e-15)
(16.0744 -1.86739 1.10762e-15)
(15.5685 -2.06236 3.71534e-14)
(14.7403 -2.18185 -5.57792e-15)
(13.5929 -2.21135 -5.02676e-16)
(11.7493 -2.06984 8.64385e-16)
(9.74392 -1.8257 2.1619e-15)
(3.51076 -1.08009 1.69748e-14)
(-1.14445 25.2039 7.64181e-18)
(-2.25081 22.4432 1.16881e-17)
(-3.01678 19.3363 -9.04349e-17)
(-3.31971 15.7398 8.59323e-17)
(-3.00001 12.0247 -2.85766e-16)
(-2.02785 8.32651 7.07389e-16)
(-0.490811 4.95669 1.8845e-15)
(1.36052 2.19292 5.48195e-15)
(3.31852 -0.135268 -1.64718e-15)
(5.54859 -2.15597 5.09224e-16)
(7.84448 -3.65844 1.74233e-15)
(9.96108 -4.62516 2.62383e-15)
(11.8318 -5.18412 8.17466e-16)
(13.4687 -5.45994 -1.38939e-15)
(14.8967 -5.54947 -1.24526e-15)
(16.1468 -5.51577 6.67465e-16)
(17.2497 -5.40643 2.50695e-16)
(18.2378 -5.25041 8.38022e-16)
(19.1424 -5.06719 -6.88292e-16)
(19.9852 -4.85957 -1.35797e-16)
(20.7843 -4.62906 -5.97719e-16)
(21.5506 -4.3662 2.95736e-16)
(22.2854 -4.05702 8.09928e-16)
(22.9579 -3.67649 -2.72117e-16)
(23.5003 -3.2247 -3.04052e-16)
(23.8953 -2.74511 -2.95427e-16)
(24.1734 -2.27741 -8.41291e-18)
(24.3706 -1.77819 9.31107e-18)
(24.5022 -1.18098 1.19919e-19)
(24.5685 -0.512973 -3.35356e-18)
(24.549 0.159869 7.40291e-17)
(24.4292 0.78958 5.53651e-17)
(24.2101 1.35354 1.24189e-16)
(23.9005 1.84532 3.57928e-16)
(23.5004 2.26721 9.67698e-18)
(23.0063 2.6271 2.32039e-16)
(22.3158 2.92644 8.29575e-16)
(21.3652 3.13389 2.18843e-15)
(18.7616 3.31132 2.34315e-15)
(7.15449 23.9988 -3.5464e-18)
(9.04537 25.7258 -2.16837e-17)
(11.3493 27.2899 1.51072e-17)
(14.0055 28.5862 6.47599e-17)
(16.8677 29.5553 -3.30792e-16)
(19.9405 30.1368 -1.76175e-16)
(23.1115 30.2842 -5.82283e-16)
(26.2479 30.0188 1.1454e-16)
(29.2961 29.3505 -4.87298e-16)
(32.173 28.3309 -8.47574e-17)
(34.8226 27.0131 1.21766e-15)
(37.2381 25.4958 -1.62266e-15)
(39.4281 23.8687 -9.28186e-16)
(41.4043 22.1644 -1.68395e-17)
(43.1537 20.4138 5.61804e-16)
(44.6357 18.6554 -1.17279e-15)
(45.8314 16.9128 -6.08785e-16)
(46.7038 15.2149 3.57424e-15)
(47.1918 13.5691 -5.87938e-16)
(47.1829 11.9797 -1.20902e-15)
(46.4835 10.3975 -1.70192e-15)
(44.8646 8.72399 1.48e-15)
(42.1849 6.82153 -2.19561e-15)
(38.6496 4.75755 -2.05727e-16)
(35.1211 2.86626 1.18647e-15)
(31.9717 1.34606 1.13895e-15)
(29.1723 0.240606 8.54829e-17)
(26.7892 -0.549991 5.74242e-16)
(24.9323 -1.15069 1.34886e-15)
(23.5791 -1.62289 1.07694e-15)
(22.5521 -1.99285 -1.0469e-15)
(21.6267 -2.27952 -1.23151e-16)
(20.7036 -2.50424 1.44845e-14)
(19.6985 -2.67329 -1.09688e-14)
(18.5213 -2.77192 1.73728e-15)
(17.1347 -2.78246 -4.999e-15)
(15.1678 -2.63655 1.58178e-15)
(13.0847 -2.37081 -6.63657e-16)
(7.088 -1.48064 4.50016e-15)
(5.55907 22.1596 3.07787e-17)
(4.17352 20.1149 -9.5741e-17)
(2.95915 17.721 -4.79627e-16)
(2.03798 15.0006 4.46933e-16)
(1.58958 12.0426 6.05824e-16)
(1.70274 8.98657 -2.53135e-17)
(2.3993 6.04467 -2.71872e-15)
(3.58417 3.44324 -4.60213e-15)
(5.07656 1.14588 3.07694e-15)
(6.83978 -0.754813 -1.62559e-15)
(8.73348 -2.12163 2.2127e-16)
(10.5827 -3.01008 -5.08706e-16)
(12.3059 -3.54811 2.78558e-17)
(13.8793 -3.83552 1.49447e-16)
(15.2974 -3.9533 5.00231e-16)
(16.5715 -3.95375 -9.10853e-16)
(17.7184 -3.88127 9.78343e-16)
(18.7616 -3.76096 -2.29251e-16)
(19.7254 -3.61068 -4.23943e-16)
(20.6326 -3.42767 -2.95148e-16)
(21.4986 -3.20961 -6.67237e-16)
(22.3358 -2.93914 -7.29877e-16)
(23.1459 -2.59489 -7.91426e-16)
(23.9066 -2.13651 3.15584e-16)
(24.5656 -1.57138 -2.123e-17)
(25.097 -0.963331 1.35153e-16)
(25.5116 -0.336517 9.96456e-17)
(25.8036 0.273669 5.91648e-18)
(25.9653 0.821186 -1.22046e-19)
(25.9989 1.28852 2.30422e-18)
(25.9334 1.68386 -4.22681e-17)
(25.7956 2.03 -1.87427e-17)
(25.5957 2.34655 -1.7499e-16)
(25.3348 2.64206 -1.25783e-16)
(25.0035 2.91993 -2.65024e-17)
(24.6031 3.18309 -1.09502e-16)
(24.0344 3.42868 -6.38198e-16)
(23.4714 3.64778 -2.27876e-15)
(21.4955 3.71604 -2.42594e-15)
(8.30348 22.1057 2.14122e-18)
(9.64537 23.6314 1.00786e-17)
(11.2782 25.1173 5.1028e-18)
(13.1547 26.4912 -5.36751e-17)
(15.2226 27.6344 1.44226e-16)
(17.4809 28.5235 2.15337e-16)
(19.8554 29.1196 5.85022e-16)
(22.2716 29.3853 2.4614e-17)
(24.6722 29.3205 6.10583e-16)
(26.9995 28.9372 -1.19614e-15)
(29.2003 28.2554 -1.30131e-16)
(31.2405 27.3 -3.34509e-16)
(33.0931 26.101 1.5121e-15)
(34.7408 24.6912 -3.33358e-16)
(36.1821 23.1049 -4.39008e-16)
(37.4761 21.3529 -6.31231e-16)
(38.6532 19.4658 1.95144e-15)
(39.7332 17.4996 -1.55528e-15)
(40.7768 15.5039 -9.24833e-16)
(41.8292 13.5525 2.37307e-15)
(42.9515 11.6864 -1.87446e-15)
(44.0629 9.89391 -3.57831e-16)
(44.8743 8.03503 -4.50464e-16)
(44.941 6.02583 6.3873e-16)
(44.1705 4.02866 -3.69436e-16)
(42.8167 2.28367 5.95364e-16)
(41.1031 0.90214 -1.14488e-16)
(39.0803 -0.183447 -8.58585e-17)
(36.7075 -1.07372 1.53244e-15)
(34.0223 -1.80138 2.17543e-16)
(31.2332 -2.36458 -3.02911e-15)
(28.6271 -2.77047 3.16106e-15)
(26.357 -3.04123 -7.69783e-16)
(24.3538 -3.20008 1.52692e-16)
(22.4273 -3.25954 -3.4119e-15)
(20.4484 -3.21677 1.06913e-14)
(18.0444 -3.02614 -2.39345e-15)
(15.5587 -2.65802 -3.74238e-16)
(9.78152 -1.89002 -6.2665e-15)
(7.20896 20.4985 3.83958e-18)
(6.24903 18.7437 -8.46282e-17)
(5.4513 16.6784 2.91861e-16)
(4.81061 14.3678 2.30108e-16)
(4.48205 11.8867 -6.5528e-16)
(4.51127 9.30443 -6.21612e-16)
(4.92585 6.75818 1.249e-15)
(5.69509 4.40621 1.86453e-15)
(6.78081 2.30049 1.61224e-15)
(8.13537 0.510574 -1.39313e-15)
(9.6329 -0.902716 -1.02409e-15)
(11.1528 -1.96053 2.63622e-16)
(12.6236 -2.72414 9.92076e-16)
(14.0097 -3.25161 1.4034e-15)
(15.2944 -3.5935 -2.76351e-16)
(16.4756 -3.79312 -3.25871e-17)
(17.5597 -3.88847 9.48561e-16)
(18.5603 -3.90573 1.80447e-17)
(19.4943 -3.86311 7.18716e-16)
(20.3789 -3.76586 6.4225e-16)
(21.2267 -3.61611 1.49447e-15)
(22.0466 -3.40564 1.55714e-15)
(22.8387 -3.12103 6.87609e-16)
(23.5837 -2.74186 1.34774e-16)
(24.2385 -2.28318 -1.24938e-16)
(24.7787 -1.79417 3.60135e-16)
(25.2147 -1.29698 -6.99608e-17)
(25.5599 -0.796596 -3.86436e-17)
(25.8199 -0.289498 2.7413e-18)
(25.9949 0.226149 2.46226e-19)
(26.087 0.750063 1.62447e-17)
(26.0976 1.27188 3.92972e-17)
(26.0266 1.77344 5.58725e-17)
(25.8737 2.23915 1.48307e-17)
(25.6295 2.66155 -1.944e-16)
(25.294 3.03901 1.04192e-16)
(24.7683 3.37327 -9.27594e-16)
(24.1675 3.62575 4.35439e-15)
(22.3675 3.72674 1.07183e-14)
(10.9051 20.2299 1.19447e-17)
(12.1618 21.5248 -1.40053e-17)
(13.6688 22.786 1.64255e-17)
(15.4029 23.9391 -2.31913e-17)
(17.3177 24.8938 -6.95253e-17)
(19.4195 25.6313 -1.79083e-16)
(21.6523 26.1075 -2.87258e-16)
(23.9558 26.2877 1.04047e-16)
(26.2833 26.1637 6.91811e-16)
(28.5798 25.7375 -4.55593e-16)
(30.7944 25.022 -7.66827e-16)
(32.8874 24.0403 -1.16268e-15)
(34.8232 22.8268 1.31974e-15)
(36.5754 21.4186 2.2272e-15)
(38.1334 19.8485 -1.98865e-15)
(39.4575 18.1685 -8.58862e-16)
(40.5023 16.4365 1.08899e-16)
(41.264 14.6892 1.74613e-15)
(41.7525 12.9635 1.00864e-16)
(42.016 11.2942 -2.52634e-15)
(42.153 9.70803 3.36302e-15)
(42.3168 8.19917 -1.57258e-15)
(42.6115 6.68385 3.38318e-16)
(42.8905 5.07387 1.34252e-15)
(42.8491 3.43548 -8.01104e-16)
(42.3983 1.95574 6.70088e-16)
(41.6992 0.741874 7.41304e-17)
(40.9075 -0.254624 -3.7911e-16)
(40.0011 -1.12398 -3.0288e-16)
(38.8223 -1.89706 -4.32754e-16)
(37.1822 -2.5576 4.84449e-16)
(34.9781 -3.07852 -4.98986e-15)
(32.3093 -3.44165 -5.14795e-15)
(29.4725 -3.64857 1.44484e-15)
(26.6998 -3.71181 5.697e-15)
(24.0232 -3.63407 -2.50576e-15)
(21.095 -3.39645 3.32279e-15)
(18.1106 -2.91504 6.59492e-16)
(12.3529 -2.2074 3.05345e-15)
(9.84955 18.8751 -5.22156e-17)
(8.90252 17.4062 -2.10327e-17)
(8.07593 15.6734 3.58578e-16)
(7.38436 13.7161 -1.58835e-16)
(6.95864 11.6041 9.40284e-16)
(6.83376 9.38537 7.9546e-16)
(7.03582 7.16385 -9.87405e-16)
(7.53915 5.06222 1.19411e-17)
(8.3216 3.13807 3.43507e-16)
(9.35035 1.45586 2.38353e-15)
(10.5344 0.0688621 1.75377e-16)
(11.7893 -1.01712 6.78032e-16)
(13.0549 -1.83386 -1.854e-15)
(14.2905 -2.42228 -1.14737e-15)
(15.4707 -2.82173 3.44806e-16)
(16.5835 -3.07127 1.98646e-16)
(17.626 -3.20504 -9.53214e-16)
(18.6024 -3.25011 9.43639e-17)
(19.5223 -3.22615 -2.30379e-16)
(20.3974 -3.1426 5.98587e-16)
(21.2368 -3.0027 -6.305e-16)
(22.0468 -2.80097 -9.17271e-16)
(22.8265 -2.52618 1.14767e-16)
(23.5594 -2.16079 2.24848e-16)
(24.2097 -1.71048 4.36969e-16)
(24.7534 -1.21277 -3.20095e-16)
(25.1956 -0.690701 -4.05702e-17)
(25.5473 -0.155341 1.39806e-17)
(25.8132 0.382821 -4.20823e-18)
(25.9962 0.908745 -2.57806e-18)
(26.1016 1.40661 3.65071e-18)
(26.1358 1.86075 -8.43162e-18)
(26.1026 2.26796 -7.36228e-18)
(26.0037 2.63134 2.24899e-17)
(25.8296 2.95754 2.01617e-16)
(25.5761 3.25096 -5.67993e-16)
(25.1447 3.52 2.55904e-15)
(24.6124 3.69562 -1.99253e-15)
(22.9826 3.75857 -2.1078e-15)
(12.4356 18.8307 -2.29464e-17)
(13.4921 19.98 7.29867e-18)
(14.7664 21.122 6.9826e-19)
(16.2238 22.1945 6.16907e-17)
(17.8243 23.1147 1.12081e-16)
(19.5888 23.878 -3.03629e-16)
(21.4704 24.4448 4.33959e-16)
(23.422 24.7797 1.92288e-16)
(25.4133 24.8728 5.37942e-16)
(27.3976 24.7175 2.80703e-16)
(29.3337 24.3152 -8.40626e-17)
(31.187 23.6777 9.63437e-16)
(32.9233 22.8242 -2.01772e-15)
(34.5156 21.7762 1.41227e-16)
(35.9432 20.5573 2.09237e-15)
(37.1856 19.1912 -1.03672e-15)
(38.255 17.6736 1.07049e-15)
(39.1457 16.0274 -2.1727e-16)
(39.8504 14.2857 6.94899e-17)
(40.3622 12.4949 2.56202e-15)
(40.6872 10.6945 -1.75426e-15)
(40.8519 8.91531 7.15626e-17)
(40.8988 7.14927 -3.85061e-16)
(40.8207 5.39057 -1.76759e-15)
(40.5247 3.71077 6.44895e-16)
(39.9721 2.23052 -2.16271e-15)
(39.275 1.00705 -8.17886e-17)
(38.577 -0.00818226 2.7016e-16)
(37.9452 -0.895705 -2.23178e-16)
(37.3577 -1.69047 4.06441e-15)
(36.7483 -2.39524 1.55326e-15)
(35.9812 -3.00595 -7.22584e-16)
(34.8213 -3.50519 -4.11269e-15)
(33.0243 -3.85485 6.54713e-15)
(30.5389 -4.01917 -4.8285e-15)
(27.6065 -3.98005 3.57536e-16)
(24.2681 -3.73583 4.75738e-16)
(20.8117 -3.16774 -4.49945e-17)
(14.9561 -2.47525 -3.74857e-15)
(11.5424 17.6348 1.21163e-17)
(10.7386 16.3513 -1.52142e-16)
(10.0167 14.8365 5.97904e-17)
(9.38479 13.1288 3.82217e-17)
(8.95906 11.2925 -1.33976e-15)
(8.76426 9.35576 -1.15342e-15)
(8.83151 7.39438 3.56781e-15)
(9.15182 5.50809 -2.81279e-15)
(9.71576 3.75922 -1.11575e-17)
(10.4993 2.20004 3.55489e-17)
(11.4377 0.871312 -3.50234e-16)
(12.4679 -0.213881 -5.13881e-16)
(13.5421 -1.07303 -1.03662e-15)
(14.6223 -1.73315 1.26941e-15)
(15.6811 -2.22003 5.41069e-16)
(16.7023 -2.56334 -1.13641e-16)
(17.6778 -2.78938 2.87868e-16)
(18.6055 -2.92041 -5.26118e-16)
(19.4896 -2.97309 3.54966e-16)
(20.3368 -2.95725 -3.43332e-16)
(21.1533 -2.87631 3.86491e-16)
(21.9427 -2.72707 3.55029e-16)
(22.703 -2.5014 -6.26915e-17)
(23.4196 -2.18852 -5.29569e-16)
(24.0619 -1.79449 -1.31647e-16)
(24.6067 -1.35118 -4.54117e-17)
(25.0546 -0.88383 1.09996e-16)
(25.4143 -0.405202 1.21861e-18)
(25.69 0.0753285 -3.128e-18)
(25.8835 0.547642 1.96756e-17)
(25.9985 1.00353 8.71718e-18)
(26.0404 1.44298 -4.57679e-18)
(26.0133 1.86607 3.9107e-18)
(25.9204 2.2693 6.54802e-18)
(25.7562 2.64956 3.34553e-17)
(25.5228 3.00263 -1.75175e-16)
(25.1341 3.32864 -8.63736e-16)
(24.6754 3.54859 2.85623e-15)
(23.2992 3.66025 -3.12525e-15)
(13.9267 17.5964 1.59352e-17)
(14.8868 18.6135 -2.81192e-17)
(16.0401 19.6299 5.56165e-18)
(17.3546 20.5871 4.97207e-18)
(18.7917 21.412 -7.24263e-17)
(20.3809 22.1048 -8.81685e-17)
(22.0821 22.6274 -2.73705e-17)
(23.8574 22.9478 -4.37408e-16)
(25.6861 23.0527 -3.89906e-17)
(27.53 22.9308 2.0285e-16)
(29.3539 22.578 -3.46105e-16)
(31.1279 21.9975 4.25021e-16)
(32.8188 21.1997 1.45076e-15)
(34.3984 20.1993 7.554e-16)
(35.8424 19.0148 -2.99661e-15)
(37.1313 17.6678 2.00498e-15)
(38.2378 16.1982 6.40071e-16)
(39.1346 14.6569 -1.34255e-15)
(39.8114 13.0837 5.86843e-16)
(40.2756 11.5078 1.44991e-16)
(40.5452 9.94977 -5.4635e-16)
(40.6451 8.40689 2.87211e-15)
(40.5849 6.84789 1.30965e-16)
(40.3373 5.25391 2.3589e-15)
(39.8558 3.6879 -5.06743e-16)
(39.1422 2.26945 2.25498e-16)
(38.2871 1.07343 7.261e-17)
(37.4058 0.0773242 -2.38089e-17)
(36.558 -0.78452 -1.27642e-15)
(35.7529 -1.54843 -1.03662e-15)
(35.0006 -2.22258 1.14728e-16)
(34.3226 -2.81107 3.68505e-15)
(33.7048 -3.31842 4.62879e-15)
(33.0148 -3.73843 2.34988e-15)
(31.9179 -4.03582 -2.5791e-15)
(30.0361 -4.13355 -3.41553e-15)
(27.1027 -3.97388 -4.24946e-15)
(23.5381 -3.38816 -3.60789e-17)
(17.6157 -2.72111 1.02387e-15)
(13.1067 16.5418 -3.71688e-17)
(12.3652 15.4169 -2.64294e-17)
(11.6854 14.0855 8.90183e-17)
(11.0771 12.5809 -2.3138e-16)
(10.6425 10.964 -5.54918e-16)
(10.3981 9.25314 1.10126e-15)
(10.3712 7.50412 -9.85711e-16)
(10.5628 5.80368 -8.66207e-16)
(10.9676 4.21403 -9.56115e-16)
(11.5651 2.77423 -9.56964e-16)
(12.3094 1.51726 1.4706e-15)
(13.1533 0.460243 -7.14512e-16)
(14.0605 -0.405265 7.96385e-16)
(14.9987 -1.09585 1.52612e-16)
(15.9421 -1.6273 -2.40042e-16)
(16.8734 -2.02089 -6.69252e-16)
(17.7815 -2.29656 -5.29195e-16)
(18.6601 -2.47258 2.91016e-16)
(19.5083 -2.56363 -1.29559e-16)
(20.3285 -2.5796 -3.9488e-16)
(21.1235 -2.52505 -3.49018e-16)
(21.8943 -2.3991 -2.48183e-16)
(22.6376 -2.1961 3.10545e-16)
(23.3396 -1.90859 -1.02765e-16)
(23.9741 -1.54098 -2.95144e-16)
(24.5189 -1.11859 3.29253e-16)
(24.9712 -0.664809 2.20788e-17)
(25.337 -0.192054 2.18697e-18)
(25.6196 0.290684 4.28823e-18)
(25.8206 0.772889 -2.65065e-17)
(25.9432 1.24523 -4.14808e-18)
(25.9923 1.69796 1.28016e-17)
(25.9718 2.12117 -4.81867e-18)
(25.8847 2.50883 -2.17255e-17)
(25.7252 2.85935 8.95853e-17)
(25.4938 3.16943 6.6619e-16)
(25.1111 3.44482 -2.5372e-15)
(24.6495 3.59156 -3.3073e-15)
(23.4301 3.62799 1.09502e-15)
(15.1259 16.553 -1.16187e-17)
(15.988 17.4664 -1.86822e-18)
(17.0233 18.3867 6.60365e-18)
(18.1979 19.2595 -1.86452e-17)
(19.4734 20.0195 1.12849e-16)
(20.8848 20.6729 -4.39481e-17)
(22.3955 21.1866 -8.04222e-17)
(23.9733 21.5314 1.85585e-16)
(25.6059 21.6961 2.47952e-16)
(27.2605 21.6689 -2.20674e-16)
(28.909 21.4428 9.56923e-16)
(30.5269 21.0174 -5.01918e-16)
(32.0838 20.3978 -1.36043e-15)
(33.5532 19.5933 -2.40394e-15)
(34.9111 18.6181 3.53291e-15)
(36.1333 17.4916 -1.60195e-15)
(37.2004 16.2344 -2.14444e-15)
(38.1042 14.8563 -1.32587e-15)
(38.836 13.3799 -9.82999e-16)
(39.392 11.838 -1.41212e-16)
(39.7765 10.2624 -4.8414e-16)
(39.9974 8.67795 -3.321e-15)
(40.0522 7.08581 1.34657e-15)
(39.9043 5.48684 -3.70799e-15)
(39.5047 3.93357 2.97465e-16)
(38.8554 2.52175 3.19633e-16)
(38.0347 1.31633 -8.14677e-17)
(37.1426 0.303213 2.69877e-16)
(36.2299 -0.573065 8.39836e-16)
(35.2987 -1.34558 1.5653e-16)
(34.3495 -2.02077 1.09771e-16)
(33.4083 -2.602 -3.16627e-15)
(32.5178 -3.09462 5.20334e-15)
(31.7325 -3.50281 1.77973e-15)
(31.0397 -3.8235 3.24894e-15)
(30.2476 -4.02132 6.92241e-15)
(28.6186 -4.01222 1.10403e-15)
(25.844 -3.51636 -6.59545e-17)
(20.2268 -2.93223 6.575e-16)
(14.3839 15.6083 -1.31167e-19)
(13.7098 14.6069 1.00953e-16)
(13.0795 13.4195 -1.04639e-16)
(12.5025 12.0766 5.51283e-16)
(12.0711 10.6364 -2.65602e-16)
(11.7976 9.10883 1.17405e-16)
(11.7069 7.53541 1.17125e-15)
(11.8062 5.99477 8.68125e-16)
(12.0927 4.54713 3.71382e-16)
(12.5488 3.22052 -9.53442e-16)
(13.1406 2.04202 -4.60103e-16)
(13.8322 1.02899 7.47984e-16)
(14.5958 0.176698 8.09292e-17)
(15.4056 -0.525276 -3.11072e-17)
(16.2387 -1.0863 -5.43484e-16)
(17.079 -1.52139 4.4496e-16)
(17.9145 -1.84491 9.9466e-16)
(18.7364 -2.07055 -5.59336e-16)
(19.5406 -2.20987 -6.36617e-17)
(20.326 -2.27139 -5.74291e-16)
(21.0926 -2.25917 -2.90298e-16)
(21.8391 -2.17314 3.04699e-16)
(22.5609 -2.00936 -7.27351e-16)
(23.2454 -1.76315 2.51511e-16)
(23.8692 -1.43873 3.3594e-16)
(24.4112 -1.057 -1.14061e-16)
(24.866 -0.639893 -9.71406e-17)
(25.2372 -0.200852 -1.89225e-17)
(25.5271 0.249959 -1.37002e-18)
(25.7369 0.701341 1.93942e-18)
(25.8692 1.14251 -4.00971e-17)
(25.9284 1.56547 7.00216e-17)
(25.918 1.9667 -6.99955e-18)
(25.8403 2.34266 6.34724e-17)
(25.6892 2.69184 7.61295e-17)
(25.4644 3.00978 -6.05976e-16)
(25.0917 3.2977 1.83567e-15)
(24.6319 3.46016 1.91397e-16)
(23.505 3.50298 5.69292e-15)
(16.1811 15.6341 -8.41371e-20)
(16.9714 16.458 2.65287e-18)
(17.919 17.2919 3.25179e-18)
(18.9901 18.0845 1.64064e-20)
(20.1464 18.7766 -2.47893e-17)
(21.4257 19.3783 -2.16118e-16)
(22.7947 19.8589 1.42044e-17)
(24.2257 20.1924 2.33242e-16)
(25.7117 20.3685 -5.69067e-16)
(27.2261 20.3749 -3.21381e-16)
(28.7453 20.2025 6.42226e-17)
(30.2504 19.8477 7.72253e-16)
(31.715 19.3102 2.19812e-15)
(33.1149 18.594 3.13105e-15)
(34.4267 17.7073 8.85167e-17)
(35.6267 16.6628 -1.87226e-16)
(36.6948 15.4763 2.73877e-15)
(37.6094 14.1771 2.37508e-15)
(38.3526 12.8 -1.236e-17)
(38.9189 11.3739 -2.36085e-15)
(39.3122 9.92228 8.03405e-16)
(39.5426 8.45762 9.71475e-16)
(39.6136 6.97798 -1.75676e-16)
(39.5023 5.48352 1.44243e-15)
(39.1678 4.01627 -8.03356e-16)
(38.6028 2.65847 -3.80446e-16)
(37.8653 1.4742 -1.27463e-17)
(37.0392 0.462877 -4.1847e-16)
(36.1704 -0.417289 -1.34437e-16)
(35.2591 -1.19415 -2.5752e-15)
(34.2956 -1.87226 1.12687e-15)
(33.2822 -2.45203 -2.60031e-15)
(32.2311 -2.93574 -5.87091e-15)
(31.1777 -3.32483 3.10048e-16)
(30.175 -3.6168 -1.9036e-15)
(29.3591 -3.8 -7.50135e-15)
(28.5073 -3.85266 1.76071e-15)
(27.1075 -3.49309 2.33043e-16)
(22.4807 -3.06884 1.84508e-15)
(15.496 14.7834 -1.63224e-17)
(14.8718 13.8854 -5.80323e-17)
(14.2795 12.8185 1.06036e-16)
(13.7285 11.6097 -4.32392e-16)
(13.3027 10.3159 -3.24591e-18)
(13.0108 8.93992 -1.8733e-16)
(12.8761 7.51408 -1.97392e-15)
(12.9083 6.11187 7.97293e-16)
(13.1057 4.78965 -1.15099e-16)
(13.4535 3.5671 1.03512e-15)
(13.925 2.4672 -5.72845e-16)
(14.4921 1.50621 5.35034e-16)
(15.1339 0.680789 -7.77823e-16)
(15.8299 -0.0159856 -5.96597e-16)
(16.5613 -0.589101 3.09863e-16)
(17.3141 -1.04884 3.35186e-16)
(18.0767 -1.40465 3.36496e-16)
(18.8395 -1.66588 1.97879e-16)
(19.5965 -1.84104 -2.32308e-16)
(20.3441 -1.93688 9.28869e-16)
(21.0798 -1.95683 -2.71048e-16)
(21.8004 -1.90127 4.35367e-16)
(22.5001 -1.76748 4.53441e-16)
(23.1666 -1.55274 -1.63969e-18)
(23.7788 -1.26094 -8.83172e-17)
(24.3166 -0.908865 -6.99708e-17)
(24.7725 -0.516519 1.52185e-17)
(25.1477 -0.0975127 1.99467e-17)
(25.4436 0.337827 6.51365e-18)
(25.6608 0.778543 1.16632e-17)
(25.801 1.21413 2.74492e-17)
(25.8681 1.63641 -1.3493e-16)
(25.8651 2.03734 -6.98142e-17)
(25.794 2.41074 1.22917e-17)
(25.6492 2.75322 -1.53672e-16)
(25.4301 3.05739 6.71308e-16)
(25.0673 3.32322 -6.19953e-16)
(24.6182 3.44601 2.69788e-16)
(23.5712 3.43386 -3.0704e-16)
(17.092 14.8222 -1.38929e-17)
(17.82 15.5703 -2.58833e-17)
(18.6917 16.3304 1.07688e-17)
(19.6731 17.0546 7.82898e-18)
(20.7264 17.6884 3.55032e-17)
(21.8901 18.2452 1.00373e-16)
(23.1337 18.6971 2.40058e-16)
(24.4323 19.021 2.61728e-16)
(25.7829 19.2089 -2.56751e-16)
(27.1626 19.2491 -6.09242e-17)
(28.5526 19.1325 -1.19144e-16)
(29.9381 18.8541 -1.95576e-15)
(31.2965 18.4116 5.01114e-16)
(32.6062 17.8056 -2.03167e-15)
(33.8458 17.0412 -5.43618e-16)
(34.9924 16.1275 6.65265e-16)
(36.0244 15.0794 -1.84233e-15)
(36.9235 13.9132 -1.00446e-15)
(37.676 12.6466 -4.81839e-16)
(38.2719 11.3028 1.56146e-15)
(38.7083 9.90669 1.18454e-16)
(38.9857 8.47964 7.16133e-16)
(39.1017 7.03351 1.35593e-15)
(39.0379 5.57991 -2.75731e-16)
(38.7642 4.15636 -8.16846e-18)
(38.2745 2.82916 1.17808e-15)
(37.6151 1.65458 2.18055e-16)
(36.8585 0.639048 -4.35721e-17)
(36.0497 -0.249231 2.89575e-16)
(35.1937 -1.03467 -2.60801e-16)
(34.2818 -1.72182 -2.97285e-15)
(33.3102 -2.31012 5.58714e-15)
(32.2747 -2.79989 -5.90658e-15)
(31.1741 -3.18865 -6.15864e-15)
(30.0033 -3.46941 5.731e-15)
(28.861 -3.62396 2.7611e-15)
(27.8137 -3.64306 -1.49174e-15)
(27.2368 -3.33572 -7.5336e-16)
(24.0059 -3.08974 -1.38882e-15)
(16.4571 14.0507 8.5832e-18)
(15.8768 13.2391 1.22423e-16)
(15.3189 12.273 -4.23131e-17)
(14.7929 11.177 -4.67269e-16)
(14.3759 10.0059 -2.84496e-16)
(14.0733 8.75749 -6.76193e-16)
(13.9081 7.4574 -1.69592e-16)
(13.8913 6.17566 8.67562e-16)
(14.0209 4.964 6.58074e-16)
(14.2847 3.83654 -1.89545e-16)
(14.661 2.81264 1.5876e-15)
(15.1268 1.90722 -3.97412e-17)
(15.6661 1.117 1.16195e-15)
(16.2629 0.436777 4.70394e-16)
(16.9019 -0.136252 -4.24462e-16)
(17.5721 -0.60896 3.84563e-17)
(18.263 -0.987268 -8.82883e-16)
(18.9652 -1.27709 5.82764e-17)
(19.672 -1.48399 5.13258e-16)
(20.3782 -1.61268 2.186e-17)
(21.0794 -1.66557 3.50265e-16)
(21.7709 -1.64286 -4.4145e-16)
(22.446 -1.5425 -2.83862e-16)
(23.0925 -1.36297 -5.06388e-16)
(23.6912 -1.10782 -3.14463e-16)
(24.2226 -0.790831 -2.01815e-17)
(24.6778 -0.430024 -8.78913e-17)
(25.0558 -0.0390861 -1.65555e-18)
(25.357 0.371288 -6.42903e-18)
(25.5813 0.789959 -1.58085e-18)
(25.7299 1.20604 3.24004e-17)
(25.8059 1.61027 -1.69211e-17)
(25.8117 1.99628 1.38366e-16)
(25.7493 2.35826 -3.09086e-16)
(25.6127 2.6926 3.54448e-17)
(25.401 2.99131 -2.04415e-17)
(25.0493 3.25202 3.23786e-16)
(24.6124 3.37013 3.29981e-16)
(23.6427 3.34434 -4.18017e-16)
(17.8938 14.0947 -4.02104e-18)
(18.5699 14.7768 -5.35165e-19)
(19.3782 15.4717 1.83606e-17)
(20.2852 16.1344 -1.85179e-17)
(21.2532 16.7144 -1.01887e-17)
(22.3212 17.2272 -3.79176e-17)
(23.4604 17.6472 -3.6901e-16)
(24.6481 17.9541 6.44323e-17)
(25.8843 18.1414 -1.8406e-16)
(27.1492 18.198 4.30916e-16)
(28.4278 18.1153 -4.38144e-16)
(29.7088 17.8875 1.24239e-15)
(30.973 17.5103 -8.76636e-17)
(32.2024 16.9817 -7.44532e-17)
(33.3776 16.3031 -3.7177e-16)
(34.4769 15.48 -1.74088e-16)
(35.4797 14.5222 6.47445e-16)
(36.3673 13.4433 1.31217e-15)
(37.1214 12.2651 1.34626e-15)
(37.729 11.011 8.89918e-16)
(38.1837 9.70278 7.01164e-16)
(38.4839 8.35818 1.44283e-16)
(38.6254 6.98902 -9.14483e-16)
(38.5937 5.6085 -2.11102e-17)
(38.3655 4.24926 5.91485e-16)
(37.935 2.96706 -8.82575e-16)
(37.3381 1.81402 -1.8925e-16)
(36.6367 0.80366 -1.52133e-16)
(35.8743 -0.085927 -2.95576e-16)
(35.0609 -0.875088 2.57564e-15)
(34.1928 -1.56791 2.43531e-15)
(33.269 -2.16342 -1.32657e-15)
(32.2861 -2.66123 2.40906e-15)
(31.2366 -3.05754 -8.7332e-16)
(30.0893 -3.34254 -2.9721e-15)
(28.8633 -3.4917 -1.28824e-15)
(27.4792 -3.48387 1.41437e-15)
(26.8349 -3.1371 2.42446e-16)
(24.7123 -2.99437 -1.68254e-15)
(17.301 13.3915 5.85404e-17)
(16.758 12.6539 1.77693e-16)
(16.23 11.7742 -3.80179e-16)
(15.7269 10.7747 -7.78084e-16)
(15.3202 9.70821 -7.70645e-16)
(15.0123 8.56859 2.17204e-15)
(14.8258 7.3771 1.1629e-15)
(14.7726 6.20092 4.17666e-16)
(14.8505 5.08698 -1.7317e-15)
(15.0488 4.04557 -9.84788e-16)
(15.3491 3.0935 -1.78539e-15)
(15.7324 2.24413 -1.64162e-15)
(16.1858 1.49361 -3.74939e-16)
(16.6968 0.837381 2.54232e-16)
(17.2534 0.273981 -2.6836e-16)
(17.847 -0.201603 -3.43088e-16)
(18.469 -0.59261 3.70956e-16)
(19.111 -0.902345 -4.94656e-16)
(19.7663 -1.1339 5.42494e-17)
(20.4289 -1.28986 1.94516e-16)
(21.0932 -1.37123 3.94791e-16)
(21.7535 -1.37781 -1.78823e-16)
(22.4023 -1.3078 -1.00128e-16)
(23.0276 -1.16017 -8.1952e-17)
(23.6111 -0.938188 2.49407e-16)
(24.1344 -0.653143 -1.2292e-17)
(24.5871 -0.320866 5.51823e-17)
(24.9666 0.0453013 -7.8385e-18)
(25.272 0.434521 -4.22824e-18)
(25.5025 0.835767 -1.34443e-17)
(25.6585 1.23805 -3.70876e-17)
(25.7425 1.63208 -1.10458e-16)
(25.7565 2.01002 1.97496e-17)
(25.7019 2.36469 3.09311e-16)
(25.5729 2.69128 3.61343e-16)
(25.3685 2.97987 2.62194e-16)
(25.0288 3.22597 2.11713e-15)
(24.6058 3.3223 -2.57141e-15)
(23.7139 3.26665 2.00559e-15)
(18.602 13.4378 1.56135e-17)
(19.233 14.0623 1.40651e-17)
(19.9865 14.6996 -3.88316e-18)
(20.829 15.3075 1.82759e-17)
(21.7234 15.8396 -9.99839e-17)
(22.7086 16.3119 1.15226e-17)
(23.7571 16.7016 1.34346e-16)
(24.848 16.9906 2.05534e-16)
(25.983 17.1736 1.49276e-16)
(27.1448 17.241 -5.44498e-16)
(28.3215 17.185 9.32215e-17)
(29.5047 16.9995 -4.15622e-16)
(30.6782 16.6795 -1.18731e-16)
(31.8267 16.2217 -3.57541e-16)
(32.9332 15.6253 2.72981e-16)
(33.9782 14.893 4.69235e-16)
(34.9419 14.0316 -1.0754e-16)
(35.8054 13.0525 -1.4334e-15)
(36.5519 11.9696 -7.87369e-16)
(37.1668 10.8012 -8.68725e-16)
(37.6404 9.56692 -3.23508e-16)
(37.9668 8.28607 -6.8069e-16)
(38.1388 6.97533 -1.18044e-16)
(38.1433 5.6524 1.08246e-15)
(37.9618 4.3471 2.52038e-17)
(37.5887 3.10545 5.53546e-16)
(37.0516 1.97366 1.053e-16)
(36.4024 0.969561 5.02032e-16)
(35.6817 0.0795231 5.17589e-16)
(34.9029 -0.712492 -2.9567e-15)
(34.0665 -1.40981 -1.00204e-15)
(33.1745 -2.01093 -4.86614e-15)
(32.2275 -2.515 5.10619e-15)
(31.2236 -2.91802 3.60488e-16)
(30.1352 -3.21013 2.3957e-15)
(28.9733 -3.36363 -7.60295e-16)
(27.5296 -3.36159 -1.86548e-15)
(26.5163 -2.96512 1.0267e-16)
(24.8876 -2.82301 7.52466e-16)
(18.0461 12.7942 6.69909e-17)
(17.536 12.1203 -2.00996e-16)
(17.0349 11.3154 -7.60585e-18)
(16.553 10.3995 4.4043e-16)
(16.1574 9.42344 -8.76207e-16)
(15.8482 8.37768 -1.4017e-15)
(15.6473 7.28123 -9.12394e-16)
(15.567 6.19801 1.09967e-15)
(15.605 5.17078 1.53306e-15)
(15.7517 4.2072 2.43008e-16)
(15.9913 3.32211 1.06567e-15)
(16.3072 2.52753 1.00181e-15)
(16.6887 1.81882 -6.01384e-16)
(17.1261 1.19137 4.02856e-16)
(17.6098 0.644277 -1.04218e-16)
(18.1336 0.173704 6.91835e-16)
(18.6906 -0.222258 -4.24489e-16)
(19.274 -0.544834 -6.92233e-16)
(19.8774 -0.795053 -2.40712e-16)
(20.495 -0.973771 -5.79144e-16)
(21.1206 -1.08074 -5.11285e-16)
(21.7476 -1.11498 -4.52156e-16)
(22.3683 -1.07444 8.41226e-16)
(22.9708 -0.958283 5.20259e-16)
(23.5375 -0.76933 8.38672e-17)
(24.0507 -0.51674 2.83567e-16)
(24.4992 -0.214374 4.79808e-17)
(24.8788 0.124984 1.29737e-17)
(25.1873 0.490446 -1.42217e-18)
(25.4233 0.87102 -2.4835e-18)
(25.5865 1.25569 2.46832e-17)
(25.6785 1.63462 -3.53677e-18)
(25.7009 1.99998 7.09405e-17)
(25.6546 2.34433 1.54055e-16)
(25.5339 2.66225 -6.56698e-16)
(25.3375 2.94264 2.71353e-17)
(25.0104 3.1788 -2.47157e-15)
(24.6017 3.26387 4.1995e-15)
(23.7839 3.19032 2.17878e-15)
(19.2325 12.84 -1.08213e-17)
(19.8241 13.4136 1.20147e-17)
(20.5296 13.9996 -1.90543e-17)
(21.3162 14.5583 -1.77244e-17)
(22.1471 15.0467 1.25431e-17)
(23.0607 15.4813 3.24096e-17)
(24.0305 15.8415 -1.42257e-16)
(25.0372 16.111 -5.85923e-17)
(26.0837 16.2859 4.41177e-16)
(27.1548 16.3577 2.35882e-16)
(28.2405 16.3194 3.46026e-16)
(29.3352 16.1652 -1.82883e-16)
(30.4252 15.8898 -7.22137e-16)
(31.4978 15.4886 1.57411e-15)
(32.5385 14.9593 -6.48414e-16)
(33.5296 14.3023 -6.77523e-16)
(34.453 13.5217 -4.44275e-16)
(35.2904 12.6254 1.29979e-15)
(36.0248 11.6251 1.55971e-15)
(36.64 10.5376 4.33087e-16)
(37.1238 9.3808 -1.8146e-15)
(37.4678 8.17269 4.03356e-16)
(37.6636 6.93024 -8.19415e-17)
(37.6993 5.67224 3.34851e-16)
(37.56 4.42576 -1.54944e-16)
(37.2399 3.22924 1.15657e-16)
(36.7599 2.12387 4.62552e-17)
(36.1622 1.13076 -2.69223e-16)
(35.4837 0.243814 4.48938e-16)
(34.7395 -0.548646 1.91569e-15)
(33.9325 -1.24866 4.6284e-17)
(33.0662 -1.85391 5.01225e-15)
(32.1429 -2.36271 2.13033e-15)
(31.1652 -2.77049 -2.37051e-15)
(30.113 -3.06811 -3.31581e-15)
(29.0108 -3.22468 -1.18366e-15)
(27.6695 -3.23783 -1.22235e-15)
(26.4485 -2.82712 -8.73713e-17)
(24.9044 -2.62658 1.60726e-15)
(18.7089 12.2489 -4.7391e-17)
(18.2278 11.631 -2.57434e-17)
(17.7512 10.8915 1.74058e-16)
(17.2891 10.0488 -4.61937e-17)
(16.9048 9.15152 5.40937e-16)
(16.5973 8.18794 9.23419e-16)
(16.3868 7.17534 7.09283e-17)
(16.2863 6.1745 6.5219e-16)
(16.2935 5.22452 -1.92903e-15)
(16.3995 4.3315 -1.29122e-15)
(16.5901 3.50842 8.6432e-16)
(16.8507 2.76614 1.26319e-15)
(17.1722 2.09945 -6.54013e-16)
(17.5467 1.50356 -9.16431e-17)
(17.9665 0.977545 -5.29881e-17)
(18.4272 0.517829 -1.73237e-16)
(18.924 0.123426 6.36948e-16)
(19.4512 -0.205606 8.7549e-16)
(20.0036 -0.468809 8.18735e-17)
(20.5756 -0.665517 6.24716e-16)
(21.1611 -0.794235 2.16041e-16)
(21.7534 -0.853139 3.37481e-16)
(22.3445 -0.839837 -5.26019e-16)
(22.9228 -0.753206 -4.35258e-17)
(23.4713 -0.595418 -2.67355e-16)
(23.9726 -0.373912 -3.05936e-16)
(24.4152 -0.100592 -1.14945e-16)
(24.7933 0.212553 2.83789e-17)
(25.1038 0.554769 9.43161e-18)
(25.3443 0.915278 6.16563e-18)
(25.514 1.2831 1.26856e-18)
(25.6136 1.64821 -3.65905e-17)
(25.644 2.00225 1.04613e-17)
(25.6059 2.33689 -2.57353e-16)
(25.4935 2.64574 1.72754e-17)
(25.3055 2.91629 -6.01167e-16)
(24.9921 3.1398 1.60592e-15)
(24.5991 3.21054 -2.36216e-15)
(23.8521 3.11835 -4.08981e-15)
(19.7964 12.2928 1.02401e-17)
(20.3531 12.821 -1.82858e-17)
(21.0163 13.361 -5.3482e-17)
(21.7535 13.8754 9.33062e-18)
(22.5285 14.3241 -3.26274e-18)
(23.3791 14.724 -9.56005e-17)
(24.2798 15.0562 1.93679e-16)
(25.2122 15.3062 -3.2117e-16)
(26.1804 15.4711 1.0281e-15)
(27.1705 15.5437 4.28217e-16)
(28.1743 15.5178 -8.82356e-16)
(29.1881 15.3879 -6.09293e-17)
(30.2004 15.1489 1.12546e-15)
(31.2008 14.7958 -5.35258e-16)