# p  FACE_DATA 150
# x y z  p
0.29576437 -0.05 0.059999701 95925.161
0.28738431 -0.05 0.059968924 95840.03
0.27918472 -0.05 0.059906283 95756.683
0.27116186 -0.05 0.05981265 95673.017
0.26331203 -0.05 0.059689027 95589.481
0.25563166 -0.05 0.059536266 95506.104
0.24811723 -0.05 0.059355154 95422.761
0.24076528 -0.05 0.059146557 95339.274
0.23357246 -0.05 0.058911358 95255.569
0.22653546 -0.05 0.058650341 95171.844
0.21965107 -0.05 0.058364202 95087.852
0.21291613 -0.05 0.058053757 95002.886
0.20632755 -0.05 0.057719714 94918.007
0.19988232 -0.05 0.057362758 94832.524
0.19357748 -0.05 0.056983702 94746.456
0.18741014 -0.05 0.056583118 94660.398
0.18137746 -0.05 0.056161624 94573.754
0.17547671 -0.05 0.055719844 94487.008
0.16970518 -0.05 0.055258362 94399.381
0.16406021 -0.05 0.05477783 94310.782
0.15853921 -0.05 0.054278745 94221.796
0.15313967 -0.05 0.053761636 94131.88
0.14785914 -0.05 0.053226963 94041.368
0.14269518 -0.05 0.052675259 93948.998
0.13764543 -0.05 0.052106992 93856.458
0.13270762 -0.05 0.051522466 93763.227
0.12787949 -0.05 0.050922169 93668.463
0.12315883 -0.05 0.050306449 93572.826
0.11854353 -0.05 0.049675628 93475.592
0.11403148 -0.05 0.04903008 93376.819
0.10962065 -0.05 0.04837006 93276.585
0.10530908 -0.05 0.047695796 93174.784
0.10109483 -0.05 0.047007509 93071.202
0.096976017 -0.05 0.046305459 92965.292
0.092950808 -0.05 0.04558984 92857.452
0.08901745 -0.05 0.044860715 92748.243
0.085174232 -0.05 0.044118143 92636.687
0.081419479 -0.05 0.043362243 92521.618
0.077751578 -0.05 0.042593081 92403.214
0.074168981 -0.05 0.041810614 92281.973
0.070670198 -0.05 0.041014781 92157.716
0.06725379 -0.05 0.040205491 92031.093
0.06391837 -0.05 0.039382651 91901.623
0.060662655 -0.05 0.038545988 91770.101
0.057485397 -0.05 0.037695273 91634.145
0.054385413 -0.05 0.036830261 91495.204
0.051361621 -0.05 0.035950545 91352.783
0.048412992 -0.05 0.035055749 91207.562
0.045538629 -0.05 0.034145316 91059.982
0.042737712 -0.05 0.03321865 90908.473
0.040009498 -0.05 0.032275149 90752.009
0.037353406 -0.05 0.031314032 90591.2
0.034768993 -0.05 0.030334375 90424.955
0.032255944 -0.05 0.02933521 90251.188
0.029814132 -0.05 0.028315426 90072.67
0.027443661 -0.05 0.027273729 89891.784
0.025144824 -0.05 0.026208776 89706.997
0.022918276 -0.05 0.02511886 89521.136
0.020764984 -0.05 0.02400217 89330.49
0.018686283 -0.05 0.022856725 89144.806
0.016684024 -0.05 0.021680228 88972.87
0.01476059 -0.05 0.020470219 88831.591
0.012919252 -0.05 0.019223865 88738.097
0.011164249 -0.05 0.017938283 88689.386
0.0095007128 -0.05 0.016610449 88688.687
0.0079348886 -0.05 0.015236971 88756.897
0.006474941 -0.05 0.013814774 88946.783
0.0051312596 -0.05 0.012341958 89310.336
0.0039150106 -0.05 0.010816511 89893.416
0.0028396284 -0.05 0.009238845 90731.583
0.0019206554 -0.05 0.007613688 91830.932
0.0011720639 -0.05 0.0059475212 93260.325
0.00060615611 -0.05 0.004252283 94953.671
0.00023063831 -0.05 0.0025452878 96783.274
4.5460517e-05 -0.05 0.0008455405 98620.639
0.99536103 -0.05 0.00067021835 101166.49
0.98608198 -0.05 0.0020028877 101073.07
0.97680071 -0.05 0.0033200849 100946.03
0.96751731 -0.05 0.0046220425 100835.16
0.95823181 -0.05 0.0059090613 100726.17
0.94894428 -0.05 0.0071813587 100623.25
0.93965479 -0.05 0.0084391859 100524.59
0.93036339 -0.05 0.0096828487 100430.29
0.92107012 -0.05 0.010912491 100339.92
0.91177504 -0.05 0.012128333 100253.04
0.90247819 -0.05 0.013330648 100169.44
0.89317963 -0.05 0.014519511 100089.01
0.88387936 -0.05 0.015695054 100011.43
0.87457746 -0.05 0.016857552 99936.419
0.86527394 -0.05 0.01800713 99863.92
0.85596885 -0.05 0.019143875 99793.554
0.84666223 -0.05 0.020267984 99725.12
0.8373541 -0.05 0.021379502 99658.527
0.82804448 -0.05 0.022478516 99593.412
0.8187334 -0.05 0.023565119 99529.629
0.8094209 -0.05 0.024639397 99467.01
0.80010698 -0.05 0.025701394 99405.64
0.79079168 -0.05 0.026751168 99345.198
0.78147501 -0.05 0.027788748 99285.583
0.77215699 -0.05 0.028814138 99226.74
0.76283764 -0.05 0.029827333 99168.768
0.75351698 -0.05 0.030828337 99111.397
0.74419501 -0.05 0.03181713 99054.683
0.73487174 -0.05 0.032793639 98998.475
0.72554719 -0.05 0.033757832 98942.75
0.71622136 -0.05 0.034709535 98887.522
0.70689427 -0.05 0.03564879 98832.047
0.69756592 -0.05 0.036575541 98776.75
0.68823633 -0.05 0.037489546 98721.482
0.67890547 -0.05 0.03839067 98666.378
0.66957337 -0.05 0.039278803 98611.159
0.66024004 -0.05 0.040153805 98555.989
0.65090546 -0.05 0.04101549 98500.668
0.64156964 -0.05 0.041863622 98445.393
0.63223258 -0.05 0.042697993 98389.849
0.62289428 -0.05 0.043518409 98334.213
0.61355475 -0.05 0.04432459 98278.361
0.60421397 -0.05 0.045116236 98222.405
0.59487195 -0.05 0.045893096 98165.904
0.58552869 -0.05 0.046654869 98108.965
0.57618419 -0.05 0.047401205 98051.334
0.56683843 -0.05 0.048131797 97993.176
0.55749143 -0.05 0.048846241 97934.525
0.54814318 -0.05 0.049544112 97875.463
0.53879368 -0.05 0.050225066 97815.643
0.52944294 -0.05 0.050888717 97755.224
0.52009095 -0.05 0.051534504 97694.437
0.51073771 -0.05 0.052161963 97633.022
0.50138323 -0.05 0.052770675 97570.933
0.49202751 -0.05 0.05336005 97508.139
0.48267057 -0.05 0.053929509 97444.218
0.47331239 -0.05 0.054478508 97379.223
0.46395301 -0.05 0.055006444 97313.286
0.45459243 -0.05 0.05551264 97246.472
0.44523065 -0.05 0.055996468 97178.526
0.43586772 -0.05 0.056457197 97109.891
0.42650365 -0.05 0.05689408 97040.219
0.41713847 -0.05 0.057306402 96969.606
0.4077722 -0.05 0.057693321 96897.964
0.39840488 -0.05 0.058053993 96825.064
0.38903656 -0.05 0.058387503 96750.582
0.37966728 -0.05 0.058692933 96674.38
0.3702971 -0.05 0.058969274 96596.935
0.36092607 -0.05 0.059215505 96517.849
0.35155429 -0.05 0.059430617 96437.222
0.34218182 -0.05 0.059613395 96355.689
0.33280876 -0.05 0.059762649 96273.012
0.3234352 -0.05 0.059877122 96188.504
0.31406128 -0.05 0.059955444 96099.868
0.30468712 -0.05 0.059996221 96008.671
