/*--------------------------------*- C++ -*----------------------------------*\
| =========                 |                                                 |
| \\      /  F ield         | OpenFOAM: The Open Source CFD Toolbox           |
|  \\    /   O peration     | Version:  2306                                  |
|   \\  /    A nd           | Website:  www.openfoam.com                      |
|    \\/     M anipulation  |                                                 |
\*---------------------------------------------------------------------------*/
FoamFile
{
    version     2.0;
    format      ascii;
    arch        "LSB;label=32;scalar=64";
    class       volScalarField;
    location    "75";
    object      div(phi);
}
// * * * * * * * * * * * * * * * * * * * * * * * * * * * * * * * * * * * * * //

dimensions      [0 0 -1 0 0 0 0];

internalField   nonuniform List<scalar> 
1340
(
0.00118049
-0.000782691
0.000742055
-0.000619063
0.000548918
0.000104651
0.000972699
0.000648147
0.000391303
1.58043e-05
-8.14877e-05
-9.22069e-05
2.13138e-05
9.83152e-05
0.000171719
0.000203607
0.000238221
0.000258845
0.000283612
0.000321045
0.000265338
0.000288717
-0.00015029
-0.000203351
-0.000252945
-0.000127417
-0.000341078
-0.000510381
0.000595718
0.00112111
-0.000369834
-0.00212148
-0.00111826
0.00194065
-0.061738
-0.000765358
0.000746777
5.95284e-05
4.7114e-05
0.000677471
-0.00131363
0.000915074
0.000729559
-0.000149191
0.000463109
-0.000374199
0.000495176
0.000458531
0.00076376
0.000637893
0.000235178
-3.54458e-05
-8.94979e-05
-5.51942e-05
7.2115e-05
0.000133462
0.000202063
0.000221527
0.00024688
0.000256915
0.00025573
0.000244264
0.000151184
3.66349e-05
-0.000334456
-0.0005531
-0.0006462
-0.000509808
-0.000298597
-0.000117116
0.000368403
0.000693046
0.000356774
-0.00168152
8.54266e-05
0.000988329
-0.0180964
-5.45157e-06
0.000504771
-0.000192622
0.000273654
-0.000380855
0.000511097
-0.000780782
0.000703187
-0.000564508
0.000531
6.51468e-05
0.000682347
0.000664348
0.000419715
0.000126008
-2.05442e-05
-0.000123954
-5.59577e-05
4.03338e-06
8.76301e-05
0.000144819
0.000184247
0.000218306
0.00022651
0.000261394
0.000254435
0.000279252
0.000225154
0.00014699
9.77402e-05
0.000191598
0.000138883
-1.24232e-05
-0.000212017
0.000179271
0.000449265
-0.000647673
-0.000458656
-0.000865987
0.00039394
-0.0174439
0.000771096
-0.000392423
0.000296584
-0.000297399
0.000172108
-0.000399014
0.000628892
-0.000335068
0.000265505
-4.60671e-05
0.000468294
0.000544212
0.000479694
0.000257606
8.11394e-05
-7.59009e-05
-0.000101143
-6.22053e-06
5.60172e-05
0.000153989
0.000181962
0.00023424
0.000249874
0.000272527
0.000273383
0.000255214
0.000196196
6.03948e-05
-0.000184053
-0.000417716
-0.000528556
-0.000530828
-0.000381632
-0.00020666
0.00015164
0.000403487
2.77928e-05
-0.000821564
0.000138757
0.000334517
-0.007304
-0.000203753
0.000141869
-0.000256552
2.79683e-05
-0.000225617
0.000213935
0.000104701
-3.04717e-05
0.000282559
0.000398268
0.00043301
0.000315667
0.000227666
4.10349e-05
-8.33063e-05
-5.5358e-05
-3.93762e-05
3.94318e-05
7.73445e-05
0.000131962
0.000170404
0.000200185
0.000222332
0.000229282
0.00024666
0.000240844
0.000234562
0.000177796
0.000197827
0.000235725
0.000247115
0.000113615
-7.10621e-05
0.000247817
0.000316857
-0.0008813
-2.07292e-05
-0.000694512
-3.56438e-05
-0.0125515
-9.53612e-05
-0.000123885
-0.000107643
-0.000142749
0.000215067
7.15166e-05
-4.39385e-05
0.000270871
0.000203637
0.000358351
0.000365526
0.000303498
9.11427e-05
1.58967e-05
-6.59306e-05
-2.77362e-05
2.09202e-05
0.00010414
0.000129155
0.000192521
0.000209326
0.000250582
0.000265288
0.000270738
0.000254285
0.000197844
9.62886e-05
-9.57608e-05
-0.000278808
-0.000456103
-0.000512569
-0.000503853
-0.000322533
-3.45286e-05
0.000284287
-0.000285042
-0.000391084
0.000231346
0.000156172
-0.00458941
-1.55052e-05
-0.000149958
-0.000286773
0.000147588
-0.000196593
0.000264613
5.46099e-05
0.000298391
0.000341184
0.000243477
0.000147246
0.000187124
-1.73814e-05
5.97931e-06
-7.0885e-06
5.32283e-05
5.90085e-05
9.74842e-05
0.000115205
0.000152411
0.000181249
0.000195385
0.000206272
0.000193106
0.00020474
0.000166887
0.000178146
0.00016023
0.000249087
0.00024012
0.000262549
6.85342e-05
0.000457816
0.000314463
-0.00105497
0.000204172
-0.000511874
-0.000160371
-0.0110528
-5.46729e-05
-0.000319617
-7.90849e-06
-0.000222121
0.000193578
0.000103799
0.000253881
0.000215487
0.000178543
0.000233251
0.000239844
1.48445e-05
6.80186e-05
-1.15701e-05
5.04822e-05
0.000104662
0.000107151
0.000155027
0.000160913
0.000206179
0.000221008
0.000252834
0.000252629
0.000238667
0.000196429
0.000112295
-1.3271e-05
-0.00017135
-0.000324322
-0.000444257
-0.000499847
-0.000427545
-0.000187022
8.82938e-05
-0.000470738
-0.000151073
0.000354826
5.73752e-05
-0.00359792
-0.000170859
-5.05149e-05
-0.000179828
0.000232013
0.000164811
0.000181717
0.000127156
0.000251541
0.000169773
0.0001152
9.97711e-05
0.000205237
1.8686e-05
7.77487e-05
9.27151e-05
9.42507e-05
0.000117065
9.33642e-05
0.000114433
0.000129474
0.000155
0.000166506
0.000159976
0.000151903
0.000128619
0.00012003
9.82342e-05
0.000123545
0.000158448
0.00022139
0.000260298
0.000238709
0.000547194
0.000451783
-0.00100339
0.000385738
-0.000295341
-0.000567078
-0.0104237
8.1089e-05
-5.46846e-05
0.000160467
0.000211919
0.000251596
0.000161052
-6.97306e-06
0.000151396
-4.03452e-05
0.000127055
0.000124779
0.000142666
0.000127558
0.000163731
0.000168837
0.000201527
0.000216642
0.000228889
0.000213154
0.000180001
0.000122946
3.11577e-05
-7.75338e-05
-0.000214335
-0.000331475
-0.00044498
-0.00043904
-0.000309631
-7.05653e-05
-0.000524206
-1.10471e-05
0.000408268
1.17749e-05
-0.00333047
0.000223644
0.000341137
-0.000213954
0.000170443
0.000144986
0.000177373
0.000117284
0.000114886
9.70692e-05
0.000115485
0.000117956
0.000128556
0.000114675
9.73115e-05
6.97779e-05
5.37772e-05
3.17323e-05
5.36799e-05
6.57578e-05
0.000155313
0.00018273
0.000306679
0.000536518
0.000643411
-0.00092785
0.00062499
-6.3493e-05
-0.000785061
-0.0101052
0.000495019
-9.61203e-05
0.000134032
0.000201588
0.000139536
0.00014502
0.000129714
0.000143885
0.00015986
0.000176361
0.000191046
0.000177657
0.000159016
0.000112785
6.12953e-05
-2.49094e-05
-0.00011483
-0.000231341
-0.000339108
-0.000396372
-0.000320135
-0.000185787
-0.000482145
2.44505e-05
0.000445074
-1.65576e-05
-0.0031671
0.000359065
0.000204869
0.000141227
0.00014382
0.000101723
9.67606e-05
7.45254e-05
7.9793e-05
6.9011e-05
6.88238e-05
4.13463e-05
2.55949e-05
-6.00593e-06
-1.18863e-05
-2.34998e-05
6.22291e-06
3.84651e-05
0.000114943
0.000197788
0.000496183
0.000568216
-0.000625305
0.000512983
0.000381301
-0.00125134
-0.00953255
0.000123464
0.00014903
0.000153157
0.000113469
0.000102401
9.47823e-05
0.000102
0.000133838
0.000133929
0.000146759
0.000121524
0.000107073
5.99125e-05
1.92154e-05
-5.86862e-05
-0.000131977
-0.000240243
-0.000295888
-0.000274834
-0.000210479
-0.00039411
4.10753e-05
0.000432443
-2.91504e-05
-0.00301601
0.000282597
5.86814e-05
0.000112714
0.000102011
4.98957e-05
3.09565e-05
1.75665e-05
2.15283e-05
1.74133e-05
8.01502e-06
-1.3973e-05
-2.89325e-05
-5.56391e-05
-5.22127e-05
-6.97661e-05
-2.18703e-05
-2.49481e-05
0.000116995
0.000249209
0.000468588
-0.000538253
0.000485234
0.000341526
-0.00157123
-0.0087152
0.000287017
4.88035e-05
8.38594e-05
4.5903e-05
2.34711e-05
6.16555e-05
7.28327e-05
0.000102758
9.63618e-05
0.000105973
7.7652e-05
7.15904e-05
2.16203e-05
-2.79451e-06
-8.09274e-05
-0.000130518
-0.000210876
-0.000174109
-0.000197636
-0.00026129
4.18705e-05
0.00041015
-6.78059e-05
-0.00271247
0.000193516
6.15698e-05
3.86751e-06
-1.22708e-05
-1.85925e-05
-4.99721e-06
-4.38612e-06
-6.31646e-06
-2.47263e-05
-4.00437e-05
-6.38715e-05
-7.7351e-05
-9.54089e-05
-9.19732e-05
-0.000100407
-2.81672e-05
6.03827e-05
0.000207721
-0.000463807
0.000224961
0.000131763
-0.00175214
-0.00806413
9.81521e-05
5.08187e-06
1.22939e-05
-6.98932e-06
2.25323e-05
6.77325e-05
6.23787e-05
8.12479e-05
7.28383e-05
7.55223e-05
5.15006e-05
4.01893e-05
2.91926e-06
-2.56818e-05
-7.76622e-05
-0.000112852
-0.000106
-0.000132154
-0.000167752
7.01128e-05
0.000371235
-9.96493e-05
-0.00237288
7.47185e-05
-1.08237e-05
-1.54867e-05
-3.17719e-06
-4.54533e-06
7.25757e-06
-1.12113e-05
-1.30517e-05
-4.22592e-05
-4.9493e-05
-8.71223e-05
-9.07327e-05
-0.000136895
-0.000128169
-0.000152472
-4.95789e-05
-8.04324e-05
-0.000381825
-0.000142621
-7.95261e-05
-0.00201994
-0.00712653
2.09876e-05
-6.93311e-06
-1.32564e-05
4.87564e-05
5.45224e-05
5.70824e-05
5.17783e-05
6.08879e-05
5.60722e-05
4.78707e-05
3.17127e-05
1.17547e-05
-1.06639e-05
-3.65238e-05
-5.90288e-05
-4.7059e-05
-8.63238e-05
-7.9876e-05
7.78135e-05
0.000344229
-0.000212034
-0.00195985
-2.35063e-05
5.33273e-05
2.10223e-05
2.75064e-05
2.56215e-06
2.30702e-06
-1.94128e-05
-2.03111e-05
-4.86635e-05
-5.79725e-05
-9.51457e-05
-0.000115606
-0.000157537
-0.000164735
-0.000159717
-0.000181855
-0.000413042
-0.000290485
-0.00040308
-0.00193788
-0.00633453
0.000130316
-0.000130847
-2.52587e-06
3.86686e-05
2.66012e-05
2.69645e-05
4.06153e-05
4.0302e-05
3.80531e-05
2.32498e-05
8.38954e-06
-6.04168e-06
-2.0422e-05
-2.7832e-05
-2.02921e-05
-4.68534e-05
-3.47994e-05
9.08042e-05
0.000273446
-0.000337993
-0.00152799
0.000160841
0.000121064
1.77713e-05
-4.50821e-07
-1.48013e-05
-1.48201e-05
-1.9954e-05
-2.60084e-05
-4.60148e-05
-6.36773e-05
-0.000100497
-0.00012564
-0.000166134
-0.000159729
-0.000240936
-0.000349076
-0.000386077
-0.00045009
-0.00171488
-0.005178
-7.48627e-05
7.49452e-05
8.20307e-05
1.63284e-05
5.77171e-06
1.63248e-05
2.85023e-05
2.46432e-05
1.84237e-05
-2.30531e-07
-3.9282e-06
-1.96971e-05
-1.11304e-05
-1.556e-05
-2.56784e-05
-1.40047e-05
8.41684e-05
0.000215062
-0.000476067
-0.00114189
0.000310269
0.000100364
4.74573e-05
-1.47574e-05
-2.33557e-05
-2.05286e-05
-1.338e-05
-1.71803e-05
-2.48312e-05
-4.37085e-05
-6.48321e-05
-9.86922e-05
-0.000121122
-0.000147726
-0.000207552
-0.00028468
-0.000330953
-0.00031787
-0.00146223
-0.00390164
0.000262244
5.26027e-06
-1.66309e-05
-1.61485e-05
3.09828e-06
1.09647e-05
2.02831e-05
5.78835e-06
1.98695e-06
-1.36443e-05
-1.2368e-05
-1.45187e-05
-1.46955e-05
-2.0879e-05
-1.17539e-05
9.95609e-05
0.000111043
-0.000588891
-0.000867105
-3.63878e-05
-2.15014e-06
-3.32944e-05
-2.96994e-05
-2.23096e-05
-1.09171e-05
-1.16266e-05
-1.27843e-05
-2.57129e-05
-3.977e-05
-6.52811e-05
-8.34405e-05
-0.000113839
-0.000154318
-0.000202312
-0.000196319
-0.000206028
-0.0012295
-0.00263493
0.000167677
-0.000133346
-5.98522e-05
-3.09262e-05
-1.5602e-05
4.08209e-06
5.86249e-06
5.23231e-06
-6.53769e-06
-1.14022e-05
-1.598e-05
-1.56545e-05
-1.94791e-05
-2.28627e-05
1.92935e-06
9.25635e-05
-1.49022e-05
-0.000638454
-0.000665498
6.46274e-05
-1.78361e-06
-3.12334e-05
-1.78171e-05
-1.55335e-05
-5.16129e-06
-1.15813e-05
-1.07999e-05
-2.66487e-05
-3.73858e-05
-5.77351e-05
-7.74087e-05
-0.00010452
-0.000119437
-9.21654e-05
-0.000185588
-0.00100874
-0.00126866
-0.00011825
-1.87102e-05
1.05388e-05
-8.43251e-06
-9.96397e-07
1.10141e-06
-3.2762e-08
-7.91852e-06
-1.29486e-05
-1.56242e-05
-1.87236e-05
-2.20069e-05
-2.11455e-05
1.16707e-05
6.62029e-05
-0.000136098
-0.000472586
-0.000593196
9.8089e-05
-1.98665e-06
-3.0972e-06
-9.66363e-06
-6.09992e-06
-6.74643e-06
-4.29344e-06
-9.17796e-06
-1.27197e-05
-2.50867e-05
-3.59212e-05
-5.28727e-05
-6.52332e-05
-5.86251e-05
-6.2165e-05
-0.00018255
-0.000916888
-0.000560111
7.69751e-05
-1.04182e-05
-7.27536e-06
-2.91975e-06
3.5546e-07
-3.21861e-06
-7.14513e-06
-1.26103e-05
-1.45585e-05
-1.95918e-05
-2.33122e-05
-1.72524e-05
1.14864e-05
2.38222e-05
-0.000239076
-0.000370316
-0.000541623
-9.6473e-05
-1.3862e-05
-6.52832e-06
-3.82826e-06
-3.1671e-06
-4.59402e-06
-4.70803e-06
-8.32701e-06
-1.43857e-05
-2.45039e-05
-3.50699e-05
-3.90419e-05
-3.25322e-05
-7.1257e-05
-0.000237122
-0.000829548
-0.000238297
3.82733e-05
-4.88784e-05
-1.31167e-05
-2.11616e-06
-2.90098e-06
-2.79532e-06
-8.10578e-06
-9.12566e-06
-1.33859e-05
-1.88983e-05
-2.30876e-05
-1.66473e-05
1.24942e-06
-3.84256e-05
-0.000303728
-0.00030935
1.11905e-05
-6.60472e-06
-4.79979e-06
-4.29146e-06
-6.01142e-06
-3.56761e-06
-4.305e-06
-7.92406e-06
-1.63372e-05
-2.37814e-05
-2.46224e-05
-2.89101e-05
-0.000104714
-0.000270599
-0.000666706
-6.66127e-05
-1.21027e-05
-8.91167e-06
-6.64407e-06
-7.49756e-06
-5.31007e-06
-5.71594e-06
-9.71476e-06
-1.66386e-05
-2.22778e-05
-1.7664e-05
-2.13303e-05
-9.01725e-05
-0.000309418
-0.000277695
8.19942e-06
-8.75352e-06
-7.11386e-06
-1.20177e-05
-7.39057e-06
-3.741e-06
-3.68033e-09
-3.75615e-06
-1.13258e-05
-1.71761e-05
-1.93363e-05
-3.62002e-05
-0.000123941
-0.000260702
-0.000457184
-7.15137e-05
-8.58041e-06
-6.3717e-06
-1.13183e-05
-7.20644e-06
-1.41099e-06
-7.81848e-07
-4.6809e-06
-1.42865e-05
-1.92104e-05
-2.21611e-05
-3.69988e-05
-0.000121914
-0.000258627
-0.000212929
8.01099e-06
-1.15304e-05
-1.72113e-05
-1.30743e-05
-8.5716e-06
-5.35139e-07
2.53679e-06
-2.9321e-06
-9.21829e-06
-1.62288e-05
-1.71134e-05
-4.46603e-05
-0.000117999
-0.000211939
-0.000284229
-6.06629e-06
-1.62061e-05
-1.55757e-05
-5.23697e-06
1.66626e-06
2.36859e-06
-3.4817e-06
-1.20298e-05
-1.84266e-05
-2.05194e-05
-4.81948e-05
-0.00011888
-0.000195652
-0.000154594
-3.01708e-05
-1.98967e-05
-1.43259e-05
-6.24282e-06
1.15437e-06
8.96496e-07
-3.27002e-06
-1.22814e-05
-1.21856e-05
-1.96444e-05
-4.6979e-05
-0.0001008
-0.000151906
-0.000130288
-7.77201e-06
-1.76681e-05
-1.30145e-05
-4.07253e-06
-1.06311e-06
-9.8008e-07
-6.23762e-06
-1.09366e-05
-1.47232e-05
-2.19914e-05
-4.53251e-05
-0.000100423
-8.91022e-05
-0.00012201
-3.48893e-05
-1.46933e-05
-1.15398e-05
-1.0038e-05
-6.12948e-06
-2.82063e-06
-7.51866e-06
-1.05308e-05
-1.28778e-05
-1.56832e-05
-4.82041e-05
-4.72168e-05
-0.00012416
-3.00691e-05
2.45697e-06
-2.48723e-05
-1.5896e-05
-1.38302e-05
-4.51566e-06
-7.57793e-06
-6.66016e-06
-8.52972e-06
-9.97669e-06
-2.23924e-05
-2.69248e-05
-8.65563e-05
-3.04624e-05
-0.000110175
-1.66231e-06
-2.08819e-05
-1.06359e-05
-1.35433e-05
-6.30498e-06
-4.0866e-06
-1.03373e-05
-1.03194e-05
-1.30935e-05
-4.07598e-05
-2.26624e-05
-0.00010625
2.90107e-05
-4.25434e-05
-1.42583e-05
-1.87781e-05
-1.03822e-05
-1.89354e-06
-1.08014e-05
-5.56485e-06
-1.36574e-05
-1.73372e-05
-1.77376e-05
-6.79521e-05
2.28643e-06
7.17458e-06
-1.92731e-05
-1.44488e-05
-6.1486e-06
-1.30896e-05
-6.08287e-06
-2.13137e-05
-9.61513e-06
-1.69611e-05
-3.00333e-05
-1.67428e-05
-6.8093e-05
-4.51393e-05
-1.14631e-05
-7.62276e-06
-1.26015e-05
-6.72158e-06
-2.09555e-05
-7.1151e-06
-2.49743e-05
-1.4964e-05
-2.08898e-05
-4.59e-05
-1.04387e-05
1.43906e-05
-1.13468e-05
-1.48193e-05
-5.843e-06
-1.62908e-05
-4.81423e-06
-2.8254e-05
-9.16049e-06
-3.03276e-05
-2.26562e-05
-2.07466e-05
-4.57703e-05
-1.16061e-06
-2.62583e-06
-1.28282e-05
5.68642e-07
-1.74281e-05
5.03591e-07
-2.73058e-05
-3.12306e-06
-2.72718e-05
-2.7724e-05
-1.25395e-05
-1.73034e-05
-9.36029e-06
1.72572e-06
-5.38024e-06
6.46767e-06
-1.12069e-05
9.63809e-06
-2.57201e-05
-7.11661e-06
-2.07493e-05
-3.58669e-05
4.87445e-06
-9.96631e-07
-7.29773e-08
4.50099e-06
-3.11466e-07
1.01451e-05
-1.44685e-05
6.03708e-06
-1.62058e-05
-3.02104e-05
-1.01446e-05
-1.55763e-05
-1.01745e-06
9.64693e-07
2.54309e-07
4.61816e-06
-2.82156e-06
7.04763e-06
-1.60821e-06
-1.37422e-05
-2.705e-06
-3.9461e-05
3.78205e-06
1.8475e-07
-3.87639e-07
2.34605e-06
1.00742e-06
4.89734e-06
5.77278e-06
3.26715e-06
7.98938e-06
-2.66192e-05
1.68831e-05
-6.31625e-06
-2.21772e-06
4.97212e-06
-3.11095e-06
6.66563e-06
-5.64585e-07
9.20544e-06
4.96109e-06
-1.04822e-05
1.82149e-05
-9.63969e-07
5.0964e-06
-4.52942e-06
6.64497e-06
-4.88683e-06
6.69132e-06
-2.60669e-06
1.4472e-07
1.08095e-06
-1.15779e-05
3.26247e-06
1.33277e-06
-1.42151e-06
1.0968e-06
-1.7705e-06
4.0341e-07
-4.89002e-06
-3.56222e-06
7.90319e-07
-3.59125e-06
-4.29084e-08
-1.10794e-06
-9.78915e-07
-9.91178e-07
-4.73337e-06
-4.24286e-06
-3.79647e-06
5.5832e-07
6.35595e-07
-5.36156e-07
-1.15285e-06
-1.08296e-06
-1.88545e-06
-3.65774e-06
-2.22824e-06
-5.29396e-06
2.77289e-06
-2.29669e-06
-1.92491e-07
-1.02987e-06
-1.25241e-06
-2.71742e-07
2.32109e-06
-5.25926e-06
4.10438e-06
-1.0146e-05
8.24834e-07
-1.7282e-07
-7.27136e-07
-2.21356e-07
3.79478e-06
-1.44917e-06
5.98853e-06
-9.14805e-06
9.88292e-06
-2.51026e-06
1.18436e-06
-1.72741e-06
1.12801e-06
4.6896e-07
3.30998e-06
-2.3087e-06
5.30791e-06
5.11362e-06
-2.40091e-06
1.62181e-06
-2.59307e-06
2.8195e-06
-1.10994e-06
-9.06789e-07
1.80999e-07
-9.8717e-06
6.00092e-06
-5.26975e-06
4.68515e-06
-4.60731e-06
3.59735e-07
-3.36987e-06
1.55717e-06
-5.6987e-06
1.18505e-06
-1.04813e-06
-2.06089e-06
-9.74814e-07
-2.92576e-06
1.06105e-06
-5.17285e-07
5.96731e-07
-4.38378e-07
-1.0186e-06
-2.06759e-06
-4.9155e-07
1.00201e-06
-7.46921e-07
1.2288e-06
-7.42698e-07
-1.35338e-06
-1.35959e-06
1.28272e-07
3.08052e-07
7.55334e-07
2.6657e-07
7.02611e-08
-1.1723e-06
7.9582e-07
-2.24787e-06
5.65155e-06
5.87641e-07
2.90099e-07
2.23397e-07
3.04619e-08
-8.81724e-07
2.08955e-06
9.55188e-07
2.80746e-07
4.26212e-08
-5.10269e-08
-1.10705e-07
4.65572e-08
4.04262e-08
9.83526e-08
7.56272e-08
1.99079e-07
-5.41105e-07
5.34553e-07
9.72289e-07
2.69349e-07
-1.25457e-07
2.92309e-07
-3.74171e-07
3.98341e-07
-1.33173e-06
8.6098e-08
2.3206e-07
6.86024e-08
-4.68485e-07
5.35979e-07
7.577e-07
9.54627e-08
-9.71463e-07
2.21007e-07
-1.01518e-06
8.14454e-07
-1.92464e-07
-8.76024e-07
8.24735e-08
-8.37659e-07
1.2377e-06
-1.78395e-06
2.85816e-07
5.06022e-07
8.10469e-07
1.03893e-06
8.65215e-07
4.30463e-07
1.86477e-06
-1.8664e-07
3.96816e-06
-2.84166e-06
-5.12853e-07
-1.64557e-06
5.3637e-07
-5.13897e-06
-7.49602e-06
-5.01254e-06
-6.96489e-06
-1.75918e-05
-8.42499e-06
-6.02534e-06
-8.51889e-06
)
;

boundaryField
{
    inlet
    {
        type            extrapolatedCalculated;
        value           nonuniform List<scalar> 4(-1.75918e-05 -8.42499e-06 -6.02534e-06 -8.51889e-06);
    }
    outlet
    {
        type            extrapolatedCalculated;
        value           nonuniform List<scalar> 0();
    }
    walls
    {
        type            extrapolatedCalculated;
        value           nonuniform List<scalar> 
42
(
0.00118049
-0.000782691
0.000742055
-0.000619063
0.000548918
0.000104651
0.000972699
0.000648147
0.000391303
1.58043e-05
-8.14877e-05
-9.22069e-05
2.13138e-05
9.83152e-05
0.000171719
0.000203607
0.000238221
0.000258845
0.000283612
0.000321045
0.000265338
0.000288717
-0.00015029
-0.000203351
-0.000252945
-0.000127417
-0.000341078
-0.000510381
0.000595718
0.00112111
-0.000369834
-0.00212148
-0.00111826
0.00194065
-0.061738
-0.000765358
0.000746777
5.95284e-05
4.7114e-05
0.000677471
-0.00131363
0.000915074
)
;
    }
    frontAndBack
    {
        type            empty;
    }
    procBoundary5to0
    {
        type            processor;
        value           nonuniform List<scalar> 4(0.00025415 9.95591e-05 9.28748e-05 3.46695e-05);
    }
    procBoundary5to1
    {
        type            processor;
        value           nonuniform List<scalar> 
13
(
-0.000500118
-0.000930823
-0.000930823
0.000208353
0.000289046
0.000289046
6.1553e-06
-0.000189194
-0.000189194
0.00016477
-5.44039e-05
-0.000108498
-0.000108498
)
;
    }
    procBoundary5to4
    {
        type            processor;
        value           nonuniform List<scalar> 
95
(
0.000368739
0.000416213
0.000140252
0.000140252
0.000251421
8.39396e-05
8.39396e-05
0.000327659
-0.000137815
-0.000137815
-0.000293182
-0.000293182
-4.40994e-06
-4.40994e-06
3.58581e-06
-4.78653e-05
-4.78653e-05
3.18949e-05
3.18949e-05
8.64623e-05
7.38196e-05
7.38196e-05
2.73786e-05
2.639e-05
2.639e-05
-3.75918e-05
-0.000197641
-0.000197641
0.000171489
-0.000103465
-4.97529e-06
-4.97529e-06
0.000200174
-6.64246e-05
-0.000172975
-0.000172975
7.13427e-05
-0.000111761
-0.000119478
-0.000119478
5.46062e-05
-9.68075e-05
-0.000111249
-0.000111249
1.88273e-06
-7.19437e-05
1.10782e-05
-5.69819e-05
-5.10226e-05
-5.10226e-05
-4.24304e-06
-2.42208e-05
5.21464e-06
-2.66519e-05
-4.01771e-05
-4.01771e-05
6.08861e-06
-3.7263e-05
1.80994e-05
-3.1602e-05
-3.2186e-05
-3.2186e-05
2.01276e-06
-1.95228e-05
7.85745e-06
-1.26938e-05
4.10546e-06
-5.25622e-06
-3.16856e-06
-3.16856e-06
2.87472e-06
-2.1107e-06
1.99034e-06
-4.93015e-07
3.29688e-06
-2.56316e-06
7.34974e-06
7.43829e-06
7.43829e-06
6.45293e-07
1.57912e-06
8.4591e-07
7.5753e-07
4.8126e-07
1.04731e-06
-4.99072e-07
1.70204e-06
-1.21646e-06
-1.89563e-06
-1.89563e-06
1.88989e-07
-1.14089e-06
1.50978e-06
-1.01866e-05
-8.34799e-06
)
;
    }
    procBoundary5to6
    {
        type            processor;
        value           nonuniform List<scalar> 
86
(
0.0484552
0.0117805
0.013322
0.00385201
0.00948764
0.00223978
0.00854853
0.0017726
0.00805528
0.00167493
0.00793649
0.00174997
0.00776648
0.0017772
0.00722597
0.00177316
0.00660475
0.0016725
0.00549215
0.0014991
0.00495523
0.00129272
0.0039933
0.000989033
0.00309668
0.000712532
0.00227791
0.000471369
0.00144554
0.00042969
0.000912624
0.000370099
0.00055931
-0.00108424
-0.00108424
-0.000283525
-0.000319481
-0.000194041
-0.000177721
-0.000140566
-0.000102582
-0.000108887
-1.91073e-05
-9.38871e-05
1.17222e-06
-5.73436e-05
-0.000170398
-0.000170398
-9.50054e-06
-7.03321e-05
-1.16651e-05
-4.75763e-05
-1.45295e-05
-5.08496e-05
-5.15323e-06
-3.72839e-05
-4.3344e-05
-4.3344e-05
8.77966e-06
-2.56196e-06
3.99744e-07
-5.66983e-06
6.00942e-06
-1.06795e-05
-5.86509e-06
-5.86509e-06
-2.99315e-07
-2.75966e-06
-1.59542e-06
1.41709e-07
2.73895e-06
-2.08791e-06
-1.0849e-06
-1.0849e-06
-7.81115e-08
-5.90625e-07
-6.03608e-07
-5.85937e-07
-1.11036e-06
-1.26101e-06
1.24272e-06
2.89575e-07
-1.51268e-06
-1.51268e-06
-1.02659e-05
-1.55399e-05
)
;
    }
}


// ************************************************************************* //
