/*--------------------------------*- C++ -*----------------------------------*\
| =========                 |                                                 |
| \\      /  F ield         | OpenFOAM: The Open Source CFD Toolbox           |
|  \\    /   O peration     | Version:  2306                                  |
|   \\  /    A nd           | Website:  www.openfoam.com                      |
|    \\/     M anipulation  |                                                 |
\*---------------------------------------------------------------------------*/
FoamFile
{
    version     2.0;
    format      ascii;
    arch        "LSB;label=32;scalar=64";
    class       volScalarField;
    location    "75";
    object      magR;
}
// * * * * * * * * * * * * * * * * * * * * * * * * * * * * * * * * * * * * * //

dimensions      [0 2 -2 0 0 0 0];

internalField   nonuniform List<scalar> 
1340
(
0.014965
0.0176649
0.0211726
0.0259263
0.0316672
0.0390542
0.0486005
0.060569
0.0758575
0.0953865
0.120378
0.153214
0.197392
0.25847
0.34417
0.469218
0.65427
0.950316
1.40234
2.26131
3.51071
6.7705
11.0948
27.8965
43.317
43.7222
39.4679
35.9557
32.8878
29.0978
24.119
17.5165
9.88295
5.38718
2.44963
0.0125871
0.0106536
0.00857453
0.00679517
0.00520455
0.00407282
0.00386493
0.00318514
0.00318377
0.00315454
0.00307625
0.00295385
0.00280519
0.00262476
0.0024187
0.0022088
0.00199664
0.00179249
0.00161182
0.00145512
0.00134188
0.00139216
0.00171131
0.00273193
0.00559352
0.0122747
0.0328918
0.0828349
0.288525
0.771279
2.78412
7.88564
14.6529
21.7446
27.4594
29.0088
26.4544
22.425
18.4909
14.8474
11.6641
8.88081
0.00314753
0.00308947
0.00299689
0.00285159
0.00264846
0.0024275
0.00220056
0.00216765
0.00210593
0.00201747
0.00192195
0.00181477
0.00170255
0.00159829
0.0015055
0.0014301
0.00137247
0.00133143
0.00130466
0.00129088
0.00129031
0.00132366
0.00128516
0.00123284
0.000760473
0.000166439
0.00774216
0.00464875
0.0252232
0.00428043
0.0629423
0.361923
1.46807
4.42034
10.497
18.2942
23.0619
23.0582
20.6137
17.4281
14.185
0.00222423
0.00222942
0.00222171
0.0021712
0.00207232
0.00193139
0.00177991
0.00178234
0.00177313
0.00175633
0.00172579
0.00168107
0.0016256
0.00155748
0.00147984
0.00139434
0.0013029
0.00120843
0.00111352
0.00101786
0.000921762
0.000824858
0.000719121
0.000612023
0.000498906
0.000372437
0.00013641
0.000259314
6.53255e-06
0.00628111
0.016013
0.0364831
0.00136463
0.00793168
0.283752
2.47897
9.2974
17.8365
22.1626
21.7777
19.2573
0.001764
0.00174172
0.0017063
0.00165428
0.00158426
0.00136439
0.00135998
0.0013483
0.00132775
0.00129736
0.00125657
0.00120684
0.00114892
0.0010847
0.0010174
0.000949379
0.000883375
0.000821812
0.000766442
0.00071824
0.000678784
0.000648478
0.00061904
0.000585253
0.000539838
0.000468263
0.000277249
0.000105285
1.7223e-05
1.85719e-07
0
0.000128678
0.0113001
0.0516095
0.00531143
0.496135
5.52857
15.4462
22.1142
23.2022
0.0013607
0.00135234
0.00133378
0.00129864
0.00125017
0.00110134
0.00110429
0.00110296
0.00109725
0.00108552
0.00106736
0.00104317
0.00101246
0.000975812
0.000934192
0.000888063
0.000838462
0.000786442
0.000732746
0.000678172
0.000623966
0.000569202
0.000509501
0.000447639
0.000388518
0.000334635
0.000291459
0.00024064
0.000170366
2.16649e-06
6.03217e-06
0
0
0
0.00248398
0.0871741
0.244969
5.24298
16.3154
24.1308
0.00109294
0.00108239
0.00106573
0.00103791
0.000892448
0.00089534
0.000895543
0.000892306
0.000884768
0.000872273
0.000854835
0.000832083
0.000804197
0.00077182
0.000735471
0.000696017
0.00065456
0.000611992
0.00056938
0.000527667
0.000487972
0.000452377
0.000419344
0.000385923
0.000350247
0.0003147
0.000284149
0.000264003
0.000201348
0.00010821
8.7456e-06
2.98093e-06
0
0
0
0.0794907
0.466609
7.47621
20.3324
0.000885523
0.000877239
0.000864558
0.000843289
0.000735667
0.000739605
0.000742059
0.000742148
0.000739539
0.000733534
0.000724128
0.000710912
0.000693851
0.000673281
0.000649194
0.000622038
0.000592326
0.000560441
0.000526929
0.000492265
0.00045716
0.000420983
0.000382863
0.000344567
0.000308316
0.000275666
0.000249703
0.000230009
0.000222401
0.000196023
0.000137191
6.03966e-05
6.15749e-06
4.80045e-08
0
0.000133454
0.00883912
1.62735
12.7361
0.000728857
0.000721329
0.000710847
0.000694053
0.000612097
0.000616065
0.000619307
0.00062063
0.000620047
0.000617084
0.000611487
0.00060293
0.000591322
0.000576724
0.000559098
0.000538644
0.000515683
0.000490533
0.000463672
0.000435582
0.000406664
0.000377651
0.000349257
0.000321379
0.000294013
0.000267502
0.000243313
0.000221834
0.000205606
0.000190515
0.000176288
0.000149637
0.000103686
1.03102e-06
1.39376e-09
0
0.00567084
0.0492141
5.23895
0.00060603
0.000599499
0.000590879
0.000524865
0.000524047
0.00052136
0.00051652
0.000509352
0.000499861
0.000487892
0.000473534
0.000456927
0.000438229
0.000417713
0.000395657
0.000372396
0.000348336
0.000323231
0.000297402
0.000271983
0.000248102
0.000226723
0.000208033
0.000190707
0.000174117
0.00015832
0.000144577
0.000138557
9.46677e-05
4.58261e-06
0
0
0.0314784
1.17839
0.000446301
0.000443679
0.000439272
0.000433064
0.000424794
0.000414487
0.000402183
0.000387937
0.000371927
0.000354383
0.000335514
0.000315699
0.000295195
0.000274332
0.00025353
0.000233394
0.000214585
0.000197486
0.000181259
0.000164748
0.000147924
0.000131361
0.000119356
0.000129621
6.42438e-05
7.41883e-07
0
0.00215146
0.0543096
0.000380591
0.000376655
0.00037124
0.000364087
0.000355225
0.00034467
0.00033249
0.000318818
0.000303825
0.000287786
0.000270858
0.000253124
0.00023507
0.000217474
0.000200904
0.000185587
0.000171002
0.000156077
0.000140561
0.000125305
0.000108138
0.000105232
0.000118157
5.9756e-06
8.18773e-09
0
0.0215682
0.000328431
0.000324843
0.000319998
0.000313659
0.000305844
0.00029658
0.000285932
0.00027402
0.000261019
0.000247162
0.000232556
0.000217481
0.000202523
0.00018809
0.000174386
0.000161111
0.0001476
0.000133429
0.000119695
0.000105644
9.02019e-05
0.000102496
6.66626e-05
5.16953e-07
0
0.00397051
0.000284924
0.000281681
0.000277276
0.000271613
0.000264684
0.000256506
0.000247145
0.000236728
0.000225476
0.00021341
0.000200726
0.000187942
0.000175397
0.000163262
0.000151317
0.000139126
0.000126376
0.000113519
0.000102332
8.71589e-05
8.05575e-05
9.90153e-05
3.12031e-06
4.14508e-09
4.08082e-05
0.000250381
0.000248269
0.00024531
0.000241267
0.000236128
0.000229898
0.000222605
0.000214311
0.000205221
0.000195347
0.000184812
0.000173999
0.000163192
0.00015252
0.000141852
0.000130867
0.000119445
0.000107637
9.7046e-05
8.6408e-05
7.1586e-05
8.43646e-05
4.43861e-05
6.87093e-08
0
0.000219154
0.000217171
0.00021439
0.000210664
0.000205993
0.000200377
0.000193837
0.000186541
0.000178504
0.000169796
0.000160683
0.000151422
0.000142114
0.000132661
0.000122829
0.000112577
0.000102019
9.16493e-05
8.33532e-05
6.97993e-05
6.70466e-05
7.15121e-05
1.26397e-06
0
0.000192441
0.000190572
0.000187941
0.000184491
0.000180214
0.000175113
0.00016929
0.000162803
0.000155659
0.000148031
0.000140152
0.000132097
0.000123785
0.00011505
0.000105854
9.64322e-05
8.67978e-05
7.86692e-05
6.91636e-05
5.71794e-05
7.19373e-05
1.24374e-05
1.76003e-08
0.000170705
0.000169467
0.000167685
0.000165186
0.00016198
0.000158048
0.000153443
0.000148237
0.000142414
0.000136068
0.000129407
0.000122487
0.000115231
0.000107522
9.93225e-05
9.08589e-05
8.22215e-05
7.39719e-05
6.6854e-05
5.39523e-05
5.90409e-05
3.68708e-05
5.52956e-08
0.000150791
0.000149617
0.000147865
0.000145502
0.000142516
0.000138914
0.000134767
0.000130044
0.000124798
0.000119203
0.0001133
0.000107014
0.00010025
9.29891e-05
8.53824e-05
7.76666e-05
6.97833e-05
6.31556e-05
5.31992e-05
4.73014e-05
4.96017e-05
8.74449e-07
0.000134276
0.000133516
0.000132353
0.000130652
0.000128415
0.000125628
0.00012235
0.000118547
0.000114238
0.000109564
0.000104559
9.91521e-05
9.32557e-05
8.68614e-05
8.00657e-05
7.31171e-05
6.59375e-05
5.91918e-05
5.19841e-05
4.13302e-05
4.68677e-05
9.0391e-06
0.000119197
0.00011845
0.000117265
0.000115619
0.000113498
0.000110939
0.0001079
0.000104384
0.000100501
9.62846e-05
9.16649e-05
8.65569e-05
8.09517e-05
7.49227e-05
6.86483e-05
6.22089e-05
5.55629e-05
4.96158e-05
3.93404e-05
3.83534e-05
2.36326e-05
0.000106462
0.000105992
0.00010522
0.000104043
0.000102454
0.000100476
9.80659e-05
9.52183e-05
9.20126e-05
8.8479e-05
8.45585e-05
8.01635e-05
7.52752e-05
6.99566e-05
6.43187e-05
5.85188e-05
5.23151e-05
4.66177e-05
3.85811e-05
3.16028e-05
3.00563e-05
9.48735e-05
9.43924e-05
9.35784e-05
9.24101e-05
9.09e-05
8.90117e-05
8.6724e-05
8.4091e-05
8.11477e-05
7.78412e-05
7.40828e-05
6.98441e-05
6.51748e-05
6.01488e-05
5.49009e-05
4.92933e-05
4.36321e-05
3.74509e-05
2.83472e-05
2.83206e-05
8.49292e-05
8.466e-05
8.41281e-05
8.32935e-05
8.21598e-05
8.06983e-05
7.88783e-05
7.67284e-05
7.42921e-05
7.15184e-05
6.83222e-05
6.46685e-05
6.05899e-05
5.6141e-05
5.14054e-05
4.63762e-05
4.09574e-05
3.56504e-05
2.73877e-05
2.38123e-05
7.60255e-05
7.59159e-05
7.56118e-05
7.50375e-05
7.42014e-05
7.30885e-05
7.16528e-05
6.9909e-05
6.79027e-05
6.55913e-05
6.28904e-05
5.97597e-05
5.62159e-05
5.23001e-05
4.80588e-05
4.35375e-05
3.85771e-05
3.35683e-05
2.71042e-05
2.04505e-05
6.808e-05
6.79308e-05
6.75592e-05
6.69618e-05
6.6128e-05
6.50112e-05
6.36095e-05
6.19698e-05
6.00547e-05
5.77853e-05
5.5118e-05
5.20572e-05
4.86304e-05
4.48658e-05
4.0801e-05
3.63691e-05
3.16015e-05
2.65222e-05
1.93122e-05
6.1048e-05
6.10097e-05
6.07962e-05
6.03874e-05
5.97758e-05
5.89186e-05
5.7804e-05
5.64717e-05
5.48946e-05
5.3e-05
5.07427e-05
4.81168e-05
4.51363e-05
4.18229e-05
3.81925e-05
3.42582e-05
2.98827e-05
2.55275e-05
1.95096e-05
5.47293e-05
5.47727e-05
5.46891e-05
5.44274e-05
5.39943e-05
5.33489e-05
5.24731e-05
5.13978e-05
5.01069e-05
4.85359e-05
4.66367e-05
4.4398e-05
4.18229e-05
3.89267e-05
3.57171e-05
3.2231e-05
2.83499e-05
2.44047e-05
1.98712e-05
4.9173e-05
4.91751e-05
4.90282e-05
4.87361e-05
4.82628e-05
4.75845e-05
4.67277e-05
4.56794e-05
4.43845e-05
4.27974e-05
4.09016e-05
3.86928e-05
3.61794e-05
3.33688e-05
3.02955e-05
2.69135e-05
2.33648e-05
1.98485e-05
4.41389e-05
4.41997e-05
4.41421e-05
4.39594e-05
4.36231e-05
4.31086e-05
4.24338e-05
4.15905e-05
4.05321e-05
3.92162e-05
3.76226e-05
3.57428e-05
3.35798e-05
3.11415e-05
2.84556e-05
2.55268e-05
2.24308e-05
1.94981e-05
3.96089e-05
3.97114e-05
3.97269e-05
3.96288e-05
3.94015e-05
3.9022e-05
3.8499e-05
3.78269e-05
3.69686e-05
3.58861e-05
3.4557e-05
3.29704e-05
3.11254e-05
2.90289e-05
2.67069e-05
2.41806e-05
2.15405e-05
1.90192e-05
3.56774e-05
3.574e-05
3.57068e-05
3.55663e-05
3.52955e-05
3.48987e-05
3.43706e-05
3.36817e-05
3.27986e-05
3.16998e-05
3.03722e-05
2.88122e-05
2.70258e-05
2.5038e-05
2.28756e-05
2.06452e-05
1.84986e-05
3.20494e-05
3.21414e-05
3.21581e-05
3.20841e-05
3.19009e-05
3.16084e-05
3.12008e-05
3.06537e-05
2.99407e-05
2.9041e-05
2.79406e-05
2.66343e-05
2.51268e-05
2.34412e-05
2.16057e-05
1.97303e-05
1.79348e-05
2.8781e-05
2.88938e-05
2.89512e-05
2.89281e-05
2.88142e-05
2.86071e-05
2.82997e-05
2.78719e-05
2.73021e-05
2.65723e-05
2.56689e-05
2.45858e-05
2.3326e-05
2.19101e-05
2.03663e-05
1.87936e-05
2.59746e-05
2.60572e-05
2.60723e-05
2.6013e-05
2.58743e-05
2.56496e-05
2.53213e-05
2.48719e-05
2.42864e-05
2.35521e-05
2.26626e-05
2.16201e-05
2.0441e-05
1.9154e-05
1.78379e-05
2.33465e-05
2.34443e-05
2.34895e-05
2.34725e-05
2.33874e-05
2.32301e-05
2.29849e-05
2.26369e-05
2.21733e-05
2.15831e-05
2.086e-05
2.00053e-05
1.90325e-05
1.79663e-05
1.68736e-05
2.09764e-05
2.10874e-05
2.11548e-05
2.11697e-05
2.11276e-05
2.10246e-05
2.08469e-05
2.05825e-05
2.02211e-05
1.9753e-05
1.9172e-05
1.84788e-05
1.76833e-05
1.68069e-05
1.5904e-05
1.88442e-05
1.89633e-05
1.90459e-05
1.90848e-05
1.90767e-05
1.90169e-05
1.88932e-05
1.86966e-05
1.84198e-05
1.80539e-05
1.7593e-05
1.70368e-05
1.63924e-05
1.56772e-05
1.49346e-05
1.6927e-05
1.7047e-05
1.71415e-05
1.71982e-05
1.72167e-05
1.71912e-05
1.71107e-05
1.6969e-05
1.67613e-05
1.64799e-05
1.6119e-05
1.56773e-05
1.516e-05
1.45806e-05
1.39723e-05
1.53237e-05
1.54245e-05
1.54931e-05
1.55311e-05
1.5532e-05
1.54861e-05
1.53892e-05
1.52378e-05
1.50252e-05
1.47462e-05
1.43991e-05
1.3987e-05
1.35201e-05
1.30232e-05
1.37727e-05
1.38747e-05
1.39521e-05
1.4004e-05
1.40246e-05
1.40063e-05
1.39458e-05
1.38397e-05
1.36828e-05
1.34705e-05
1.32007e-05
1.28748e-05
1.25006e-05
1.20954e-05
1.23737e-05
1.24765e-05
1.25597e-05
1.26216e-05
1.26569e-05
1.26595e-05
1.2627e-05
1.25568e-05
1.24445e-05
1.22864e-05
1.20795e-05
1.18246e-05
1.15261e-05
1.11957e-05
1.11148e-05
1.12165e-05
1.13022e-05
1.13705e-05
1.14164e-05
1.14347e-05
1.14233e-05
1.13805e-05
1.13036e-05
1.11889e-05
1.10332e-05
1.08357e-05
1.05991e-05
1.03307e-05
9.98312e-06
1.00802e-05
1.01672e-05
1.0239e-05
1.02923e-05
1.03218e-05
1.03259e-05
1.03042e-05
1.02547e-05
1.01742e-05
1.0059e-05
9.90766e-06
9.72145e-06
9.50386e-06
9.05881e-06
9.14449e-06
9.21701e-06
9.27421e-06
9.31126e-06
9.32713e-06
9.32152e-06
9.29302e-06
9.2387e-06
9.15513e-06
9.04048e-06
8.89524e-06
8.71994e-06
8.13986e-06
8.22219e-06
8.29447e-06
8.35331e-06
8.39501e-06
8.4193e-06
8.4259e-06
8.41318e-06
8.37868e-06
8.3196e-06
8.23386e-06
8.12108e-06
7.31154e-06
7.3907e-06
7.4617e-06
7.52082e-06
7.56498e-06
7.59483e-06
7.61011e-06
7.6089e-06
7.58934e-06
7.5492e-06
7.48655e-06
7.39899e-06
6.56646e-06
6.64173e-06
6.71046e-06
6.76853e-06
6.81378e-06
6.84714e-06
6.8679e-06
6.87466e-06
6.8663e-06
6.84084e-06
6.7961e-06
6.72937e-06
5.89671e-06
5.96673e-06
6.0329e-06
6.08905e-06
6.13421e-06
6.16916e-06
6.19325e-06
6.20549e-06
6.20532e-06
6.19109e-06
6.1603e-06
6.11018e-06
5.36026e-06
5.42282e-06
5.47598e-06
5.51981e-06
5.55503e-06
5.58111e-06
5.59731e-06
5.60311e-06
5.59703e-06
5.57675e-06
5.53964e-06
4.81494e-06
4.87317e-06
4.92338e-06
4.9651e-06
4.9997e-06
5.02703e-06
5.04586e-06
5.05571e-06
5.0555e-06
5.0431e-06
5.01606e-06
4.32397e-06
4.37812e-06
4.42503e-06
4.46432e-06
4.49783e-06
4.52551e-06
4.54594e-06
4.55872e-06
4.56279e-06
4.55622e-06
4.53722e-06
3.8828e-06
3.93271e-06
3.97601e-06
4.01263e-06
4.04461e-06
4.07184e-06
4.09315e-06
4.10789e-06
4.11489e-06
4.11285e-06
4.10016e-06
3.48643e-06
3.53208e-06
3.57196e-06
3.60594e-06
3.63594e-06
3.66218e-06
3.68352e-06
3.69924e-06
3.70824e-06
3.70979e-06
3.70254e-06
3.13077e-06
3.17237e-06
3.20868e-06
3.23981e-06
3.26771e-06
3.29253e-06
3.31325e-06
3.32917e-06
3.33946e-06
3.34377e-06
2.81154e-06
2.84896e-06
2.88215e-06
2.91038e-06
2.93596e-06
2.95913e-06
2.97883e-06
2.99431e-06
3.00566e-06
3.01196e-06
2.55905e-06
2.58896e-06
2.61428e-06
2.63754e-06
2.65887e-06
2.67718e-06
2.69229e-06
2.70401e-06
2.71193e-06
2.29923e-06
2.32568e-06
2.34842e-06
2.36942e-06
2.3888e-06
2.40578e-06
2.42025e-06
2.43207e-06
2.44078e-06
2.06555e-06
2.08916e-06
2.10954e-06
2.1284e-06
2.14592e-06
2.16169e-06
2.17544e-06
2.18702e-06
2.19588e-06
1.85545e-06
1.87633e-06
1.89447e-06
1.91139e-06
1.92738e-06
1.94191e-06
1.95483e-06
1.96574e-06
1.97443e-06
1.66582e-06
1.68422e-06
1.70038e-06
1.71561e-06
1.73014e-06
1.74342e-06
1.75525e-06
1.76547e-06
1.7741e-06
1.4941e-06
1.5102e-06
1.52453e-06
1.5382e-06
1.55119e-06
1.56327e-06
1.57406e-06
1.5837e-06
1.33889e-06
1.35281e-06
1.36534e-06
1.37738e-06
1.38901e-06
1.39977e-06
1.40963e-06
1.41863e-06
1.19905e-06
1.21093e-06
1.22188e-06
1.23231e-06
1.24239e-06
1.25175e-06
1.26045e-06
1.26864e-06
1.08458e-06
1.09401e-06
1.10291e-06
1.11135e-06
1.1192e-06
1.12655e-06
1.13365e-06
9.71925e-07
9.79733e-07
9.87136e-07
9.9389e-07
9.99921e-07
1.00549e-06
1.01098e-06
8.73493e-07
8.81083e-07
8.88333e-07
8.94948e-07
9.00657e-07
9.05706e-07
9.10925e-07
7.91074e-07
7.98316e-07
8.05422e-07
8.12324e-07
8.18147e-07
8.23123e-07
8.28824e-07
7.23122e-07
7.28741e-07
7.34163e-07
7.39481e-07
7.43575e-07
7.46681e-07
6.63516e-07
6.6797e-07
6.72088e-07
6.75954e-07
6.78512e-07
6.79893e-07
6.05145e-07
6.08687e-07
6.1182e-07
6.14611e-07
6.16093e-07
6.1627e-07
5.48874e-07
5.51869e-07
5.54657e-07
5.57172e-07
5.58641e-07
5.59169e-07
4.92372e-07
4.9322e-07
4.93872e-07
4.94316e-07
4.94011e-07
4.92333e-07
4.46252e-07
4.47954e-07
4.49583e-07
4.50612e-07
4.51167e-07
4.51953e-07
3.81309e-07
3.7815e-07
3.75426e-07
3.72351e-07
3.66029e-07
3.72679e-07
3.74703e-07
3.74449e-07
3.74791e-07
3.79732e-07
2.7716e-07
2.7175e-07
2.69046e-07
2.63323e-07
2.47338e-07
3.79824e-07
3.86878e-07
3.84957e-07
3.86621e-07
3.45557e-07
3.49156e-07
3.56406e-07
3.62872e-07
5.94596e-07
6.25073e-07
6.02109e-07
5.69926e-07
)
;

boundaryField
{
    inlet
    {
        type            calculated;
        value           nonuniform List<scalar> 4(2.29115e-06 2.43424e-06 2.45767e-06 2.47627e-06);
    }
    outlet
    {
        type            calculated;
        value           nonuniform List<scalar> 0();
    }
    walls
    {
        type            calculated;
        value           nonuniform List<scalar> 
42
(
0.776717
0.948918
1.14728
1.34643
1.54758
1.74711
1.92928
2.09006
2.22799
2.33803
2.42166
2.48157
2.51745
2.52955
2.50675
2.44727
2.34551
2.19932
2.00253
1.75408
1.45089
1.10754
0.754284
0.468013
0.313406
0.260996
0.262525
0.280411
0.289826
0.27246
0.228686
0.169108
0.103897
0.0494227
0.0112615
0.619428
0.468943
0.325539
0.194243
0.0966267
0.0439226
0.0400799
)
;
    }
    frontAndBack
    {
        type            empty;
    }
    procBoundary5to0
    {
        type            processor;
        value           nonuniform List<scalar> 4(0.000514256 0.000508663 0.000502929 0.000495683);
    }
    procBoundary5to1
    {
        type            processor;
        value           nonuniform List<scalar> 
13
(
0.00471158
0.00222267
0.00222267
0.00178827
0.00149948
0.00149948
0.00119177
0.00100249
0.00100249
0.000817056
0.000674288
0.000577503
0.000577503
)
;
    }
    procBoundary5to4
    {
        type            processor;
        value           nonuniform List<scalar> 
95
(
0.000518141
0.000521786
0.000524074
0.000524074
0.000446932
0.00044737
0.00044737
0.000384156
0.000383076
0.000383076
0.000330774
0.000330774
0.000287167
0.000287167
0.000251516
0.000220365
0.000220365
0.00019368
0.00019368
0.000171308
0.000151509
0.000151509
0.000134564
0.000119605
0.000119605
0.000106574
9.50977e-05
9.50977e-05
8.49545e-05
7.5913e-05
6.80634e-05
6.80634e-05
6.0925e-05
5.45373e-05
4.90618e-05
4.90618e-05
4.39705e-05
3.94083e-05
3.55397e-05
3.55397e-05
3.18828e-05
2.8601e-05
2.58439e-05
2.58439e-05
2.32007e-05
2.08261e-05
1.86929e-05
1.67762e-05
1.52021e-05
1.52021e-05
1.36495e-05
1.2254e-05
1.1e-05
9.87304e-06
8.96529e-06
8.96529e-06
8.04933e-06
7.22631e-06
6.48675e-06
5.82228e-06
5.29478e-06
5.29478e-06
4.7534e-06
4.26723e-06
3.83071e-06
3.43888e-06
3.0874e-06
2.77211e-06
2.52535e-06
2.52535e-06
2.26874e-06
2.03839e-06
1.83136e-06
1.64454e-06
1.47545e-06
1.32262e-06
1.18506e-06
1.07448e-06
1.07448e-06
9.63507e-07
8.65645e-07
7.83941e-07
7.17657e-07
6.59225e-07
6.01819e-07
5.46379e-07
4.92027e-07
4.45276e-07
3.84393e-07
3.84393e-07
3.70825e-07
2.82206e-07
3.73839e-07
3.36998e-07
5.93605e-07
)
;
    }
    procBoundary5to6
    {
        type            processor;
        value           nonuniform List<scalar> 
86
(
0.961695
4.75135
9.77441
14.6201
19.5848
24.0149
26.6342
25.8281
20.888
13.3235
6.21078
1.87933
0.244977
0.00189418
0.00667226
0.000783294
0
0
0
9.5755e-09
2.55522e-08
4.28144e-07
5.38893e-06
1.41692e-05
1.98963e-05
1.97547e-05
1.75555e-05
1.63112e-05
1.63928e-05
1.69191e-05
1.71937e-05
1.70941e-05
1.67541e-05
1.7308e-05
1.7308e-05
1.66052e-05
1.58453e-05
1.50459e-05
1.42194e-05
1.33754e-05
1.2525e-05
1.16778e-05
1.08455e-05
1.00368e-05
9.25774e-06
8.51361e-06
7.98015e-06
7.98015e-06
7.28546e-06
6.63882e-06
6.03841e-06
5.48342e-06
4.97239e-06
4.50378e-06
4.07538e-06
3.68478e-06
3.34081e-06
3.34081e-06
3.01231e-06
2.71505e-06
2.44544e-06
2.20135e-06
1.9806e-06
1.78073e-06
1.59216e-06
1.59216e-06
1.42675e-06
1.27635e-06
1.14058e-06
1.01652e-06
9.16194e-07
8.34377e-07
7.50737e-07
7.50737e-07
6.81962e-07
6.16808e-07
5.59506e-07
4.91082e-07
4.50914e-07
3.62609e-07
3.76233e-07
2.44822e-07
4.10237e-07
4.10237e-07
3.52176e-07
7.33948e-07
)
;
    }
}


// ************************************************************************* //
