/*--------------------------------*- C++ -*----------------------------------*\
| =========                 |                                                 |
| \\      /  F ield         | OpenFOAM: The Open Source CFD Toolbox           |
|  \\    /   O peration     | Version:  2306                                  |
|   \\  /    A nd           | Website:  www.openfoam.com                      |
|    \\/     M anipulation  |                                                 |
\*---------------------------------------------------------------------------*/
FoamFile
{
    version     2.0;
    format      ascii;
    arch        "LSB;label=32;scalar=64";
    class       volSymmTensorField;
    location    "75";
    object      turbulenceProperties:R;
}
// * * * * * * * * * * * * * * * * * * * * * * * * * * * * * * * * * * * * * //

dimensions      [0 2 -2 0 0 0 0];

internalField   nonuniform List<symmTensor> 
1340
(
(0.00934901 0.00158925 -2.12848e-21 0.00763197 -1.039e-20 0.00855856)
(0.0112155 0.00191937 1.30763e-20 0.00881152 6.75762e-20 0.0100623)
(0.0137696 0.00226538 -3.75751e-20 0.0101371 -1.93001e-19 0.0120686)
(0.0172693 0.00272577 8.00775e-20 0.0119059 3.91435e-19 0.0147422)
(0.0216579 0.00318967 -1.05343e-19 0.0138485 -3.69897e-19 0.0179337)
(0.0274752 0.00355543 -1.12904e-19 0.0160748 -2.60613e-19 0.0220603)
(0.0351345 0.00379793 2.47331e-19 0.0187618 6.8439e-19 0.0273262)
(0.0448798 0.00368027 -5.60702e-19 0.021906 -1.27568e-18 0.033874)
(0.0573557 0.00291439 -1.25665e-19 0.0257847 2.64093e-19 0.0422238)
(0.0731619 0.00125969 4.62456e-19 0.030849 8.06084e-19 0.0528307)
(0.0930342 -0.00171113 1.06876e-18 0.0376869 4.91747e-19 0.0664035)
(0.118526 -0.0064687 -2.42921e-18 0.0473599 -2.19134e-18 0.0842584)
(0.151946 -0.0137101 4.34838e-19 0.0613813 5.49773e-19 0.108316)
(0.196998 -0.0245744 1.93749e-18 0.082074 9.58287e-19 0.141614)
(0.258668 -0.0408392 -3.07598e-18 0.112789 -4.2984e-18 0.188378)
(0.346615 -0.0657173 -3.48051e-18 0.159786 -1.82179e-18 0.256621)
(0.473621 -0.104289 1.26587e-17 0.2325 1.12022e-17 0.357691)
(0.672697 -0.16766 1.58172e-17 0.35306 2.11141e-17 0.519333)
(0.968679 -0.268349 -2.34607e-17 0.545114 -3.13621e-17 0.766196)
(1.52259 -0.461307 -4.52125e-18 0.918897 8.15245e-18 1.23502)
(2.30209 -0.753189 -1.81528e-17 1.489 2.46062e-17 1.91669)
(4.32425 -1.50983 1.59393e-17 2.9896 1.82902e-17 3.69372)
(6.89435 -2.55115 -8.41204e-17 5.09486 -1.80761e-16 6.04884)
(16.8051 -6.57842 1.34603e-16 13.3462 2.11185e-16 15.2031)
(25.1968 -10.4121 3.19583e-17 21.6455 -4.14768e-16 23.5823)
(24.5549 -10.6248 3.24312e-16 22.7728 4.28458e-16 23.7554)
(21.4991 -9.62416 -4.95077e-17 21.2598 -6.13712e-17 21.4074)
(19.1224 -8.76095 2.17715e-16 19.8465 1.95867e-16 19.4873)
(17.1663 -7.99337 5.25994e-16 18.4787 9.5904e-16 17.8234)
(14.9528 -7.04927 2.16701e-16 16.5791 1.46499e-15 15.7749)
(12.2202 -5.82096 -8.09741e-16 13.9077 -1.32343e-15 13.0844)
(8.76235 -4.21013 -1.60181e-16 10.207 -4.28278e-16 9.50872)
(4.89107 -2.36602 -2.20007e-16 5.80832 -1.31178e-15 5.36818)
(2.64751 -1.28594 -5.97733e-16 3.18501 -2.94125e-15 2.92588)
(1.20329 -0.585111 3.18959e-16 1.44286 4.21761e-16 1.33649)
(0.00772444 0.00131992 6.12386e-21 0.00660715 2.05787e-20 0.00718528)
(0.00646104 0.00107265 -5.13074e-21 0.00567412 -1.16118e-20 0.00610382)
(0.00514339 0.000823648 -3.8619e-20 0.00464713 -3.49729e-20 0.00491075)
(0.00404821 0.000613252 3.65152e-20 0.00372522 1.33857e-20 0.0038932)
(0.00310659 0.000433813 -1.55803e-20 0.00286587 3.14639e-20 0.00297436)
(0.00246494 0.000307193 -1.82854e-20 0.00222673 1.03378e-19 0.00231623)
(0.002391 0.000268643 -1.40562e-20 0.00206086 8.38202e-21 0.00219757)
(0.00202126 -0.000120601 1.65991e-22 0.00165169 5.66945e-22 0.00181727)
(0.00199479 -0.00015078 7.24676e-21 0.00167936 2.00379e-20 0.00181425)
(0.00194159 -0.000177158 -5.239e-21 0.00170306 -1.04123e-20 0.00179394)
(0.0018588 -0.000189601 -8.93517e-21 0.00169952 -1.74762e-20 0.00174582)
(0.00175093 -0.000190269 3.54707e-20 0.00166966 6.32155e-20 0.0016731)
(0.00162997 -0.000181636 1.35225e-20 0.00162268 2.14556e-20 0.0015853)
(0.00149846 -0.000164953 6.14398e-20 0.00154931 5.94339e-20 0.00147959)
(0.00136045 -0.000143475 -2.77425e-20 0.00145219 -6.96361e-21 0.00135988)
(0.00122749 -0.000120959 4.22177e-20 0.00134512 3.22165e-20 0.00123833)
(0.00110048 -9.96716e-05 9.59214e-22 0.001229 5.5434e-22 0.00111589)
(0.000983111 -8.10641e-05 -6.15966e-20 0.00111195 -5.24433e-20 0.000998466)
(0.000882292 -6.63148e-05 7.85853e-20 0.00100524 9.15912e-20 0.000894558)
(0.000797252 -5.55448e-05 4.54558e-20 0.000910195 2.3948e-20 0.000804442)
(0.00073728 -5.00979e-05 -7.55345e-21 0.000840389 3.73664e-21 0.000738768)
(0.000765675 -6.00325e-05 -4.47453e-20 0.000876565 5.49633e-21 0.000759131)
(0.000941536 -0.000103366 1.00135e-19 0.00108911 1.05232e-19 0.000913555)
(0.00151331 -0.000279553 1.92579e-19 0.00175291 -2.13162e-19 0.00139439)
(0.00319032 -0.000938504 -1.80118e-18 0.00347436 -1.98521e-18 0.0026975)
(0.00733031 -0.00258779 4.01817e-19 0.00699385 2.90097e-18 0.00588446)
(0.0202647 -0.00745318 3.87743e-18 0.017225 -9.60843e-19 0.0162298)
(0.0516323 -0.0190748 6.98793e-18 0.0410481 2.9682e-18 0.0422267)
(0.179612 -0.0668616 -1.42521e-17 0.139026 -9.55347e-18 0.150722)
(0.475117 -0.180109 3.74623e-17 0.369525 5.92261e-17 0.409522)
(1.68555 -0.657288 1.38524e-18 1.34848 -4.89981e-17 1.49258)
(4.67812 -1.88194 -1.61345e-16 3.88935 6.74793e-17 4.25299)
(8.51026 -3.5281 -8.38505e-17 7.37636 -3.80264e-16 7.93588)
(12.356 -5.27071 -3.36756e-18 11.1923 5.09726e-17 11.8039)
(15.251 -6.68496 -2.22325e-16 14.4738 -3.48629e-16 14.9184)
(15.7322 -7.074 -3.61584e-16 15.6691 -2.20801e-15 15.7609)
(14.031 -6.44455 -1.07514e-16 14.6204 -2.87478e-15 14.3577)
(11.6972 -5.4494 3.36037e-16 12.6156 3.77483e-15 12.1453)
(9.55521 -4.48372 -6.01208e-16 10.512 2.90547e-16 9.995)
(7.63157 -3.59516 -3.62287e-15 8.48828 6.79067e-16 8.01893)
(5.97397 -2.82157 4.56763e-15 6.69164 1.41617e-14 6.29782)
(4.4973 -2.14209 -7.11726e-16 5.13537 -1.87024e-15 4.80561)
(0.0020176 -8.14599e-05 3.29224e-21 0.00160896 2.18006e-21 0.00179839)
(0.00199305 -4.0471e-05 -4.60943e-21 0.0015646 -3.93108e-20 0.00176673)
(0.0019368 9.32871e-06 -8.75742e-21 0.00151054 -9.79369e-21 0.00171705)
(0.00183354 6.24015e-05 -5.35192e-21 0.00144311 6.75032e-20 0.00163688)
(0.00167884 0.000107591 1.02238e-20 0.00136123 -2.04401e-21 0.00152308)
(0.00150567 0.000135412 2.32594e-21 0.00127844 -8.62281e-20 0.00139808)
(0.00139959 -8.61573e-05 1.18158e-21 0.00112197 2.4933e-21 0.00126882)
(0.00135847 -0.000110116 -1.19705e-20 0.00112368 -1.89105e-20 0.00125154)
(0.00129249 -0.000129419 -1.5067e-21 0.00111711 -3.79781e-21 0.00121778)
(0.00120616 -0.000139721 1.13446e-20 0.00109954 1.61666e-20 0.00116932)
(0.00111488 -0.000141075 -2.58378e-20 0.00107914 -4.19298e-20 0.0011165)
(0.00101747 -0.00013276 -2.68907e-20 0.00105139 -4.17373e-20 0.0010571)
(0.000921516 -0.000115541 -5.85931e-20 0.00101621 -7.9088e-20 0.000995035)
(0.000837141 -9.23372e-05 -3.63307e-21 0.000978901 -1.85898e-21 0.000937236)
(0.00076691 -6.52429e-05 -3.23684e-20 0.000940789 -5.63405e-20 0.00088588)
(0.000714523 -3.72195e-05 1.05856e-19 0.000904932 1.11969e-19 0.000844382)
(0.000679337 -1.04636e-05 -1.22215e-20 0.000872606 2.1289e-20 0.000812716)
(0.000659289 1.37056e-05 1.53093e-20 0.000844408 8.15515e-21 0.000790342)
(0.000651564 3.44689e-05 -8.43952e-20 0.000820501 -9.78029e-20 0.000775896)
(0.000653756 5.16575e-05 4.86925e-20 0.000801904 -2.55998e-21 0.000768503)
(0.000664362 6.53075e-05 1.66747e-20 0.000790849 4.38191e-20 0.000767824)
(0.000691808 7.82012e-05 2.21558e-20 0.000801484 9.6336e-21 0.00078668)
(0.000683683 7.96331e-05 -9.43122e-20 0.000769445 -5.28936e-20 0.000761247)
(0.000665691 7.68662e-05 7.70498e-20 0.000731893 5.68159e-20 0.000727499)
(0.000423804 3.11362e-05 1.00225e-20 0.000445986 1.42682e-22 0.000444823)
(9.54511e-05 1.58396e-06 -1.97524e-21 9.64326e-05 -3.06032e-22 9.63684e-05)
(0.00365306 0.00164482 2.10542e-18 0.00458652 -7.76057e-19 0.00448878)
(0.00227203 0.000903179 4.07681e-20 0.00276062 5.14244e-19 0.00268257)
(0.0119543 0.00591605 2.43074e-18 0.0147994 -3.39445e-18 0.0142927)
(0.00233587 0.000990843 -3.10772e-18 0.00210797 -3.00306e-18 0.00254139)
(0.0384513 -0.0147514 3.14726e-18 0.0299918 7.85588e-18 0.0338897)
(0.214376 -0.0864859 -1.7616e-17 0.179421 3.55772e-18 0.194627)
(0.848883 -0.35429 1.14438e-17 0.74659 9.88755e-19 0.791328)
(2.50506 -1.07273 -1.05257e-17 2.29375 6.2173e-17 2.38773)
(5.8416 -2.55556 -4.52273e-16 5.54522 2.19118e-16 5.67913)
(9.99731 -4.46063 2.22e-16 9.83506 3.20449e-16 9.91009)
(12.3844 -5.62293 1.44507e-15 12.6082 -4.646e-16 12.5011)
(12.2231 -5.61649 -2.35306e-15 12.7695 1.35181e-15 12.495)
(10.8448 -5.01616 4.38129e-17 11.5048 6.43754e-15 11.1638)
(9.14505 -4.23915 1.0957e-16 9.75542 -4.32995e-15 9.43391)
(7.39063 -3.44663 1.19852e-15 7.98136 -7.05652e-16 7.68978)
(0.0014296 -5.71702e-05 -2.4773e-21 0.00111997 -4.4735e-21 0.00128163)
(0.0014415 -2.71043e-05 -5.19983e-21 0.0011154 2.63264e-21 0.00128328)
(0.00143883 8.72999e-06 3.34278e-20 0.00111015 4.14735e-20 0.00127796)
(0.00140042 4.51293e-05 1.77391e-21 0.00109201 -2.53995e-20 0.00124754)
(0.00132169 7.81421e-05 5.81387e-22 0.00105807 -3.15345e-20 0.00118992)
(0.0012089 0.00010185 -1.23225e-20 0.00100887 3.77715e-20 0.00110918)
(0.00113387 -6.96684e-05 3.09554e-21 0.000911734 4.09749e-21 0.00102051)
(0.00112154 -8.82218e-05 -3.61773e-21 0.000927154 -6.33364e-21 0.00102162)
(0.00109683 -0.000105143 -1.92833e-21 0.000942046 -3.93701e-21 0.00101557)
(0.00106436 -0.000117382 2.18294e-20 0.000955994 3.05395e-20 0.00100517)
(0.00102228 -0.000123572 1.63663e-20 0.000963856 2.53618e-20 0.000986772)
(0.000971292 -0.000123558 2.38459e-20 0.000964534 3.26168e-20 0.000960069)
(0.000915915 -0.000117606 3.12024e-20 0.000957317 3.39445e-20 0.000927129)
(0.000856926 -0.00010659 -1.55688e-20 0.000939221 -2.18297e-20 0.000886886)
(0.000796856 -9.19754e-05 -6.27485e-20 0.000911388 -5.88749e-20 0.000841069)
(0.000737366 -7.55569e-05 7.33816e-20 0.000873874 4.29668e-20 0.000790818)
(0.000679325 -5.87741e-05 6.65379e-20 0.000828089 5.47209e-20 0.00073718)
(0.000623721 -4.28514e-05 8.78708e-20 0.000776299 4.43696e-20 0.000681873)
(0.000571224 -2.86603e-05 -1.3583e-19 0.00072083 -4.76929e-20 0.000626403)
(0.000520858 -1.65871e-05 -1.26572e-19 0.000662227 -8.16723e-20 0.000570665)
(0.000471983 -6.80605e-06 1.58626e-19 0.000601375 5.20147e-20 0.000514911)
(0.000423841 4.84934e-07 3.5427e-20 0.000538665 2.00904e-20 0.0004589)
(0.000371532 6.38754e-06 -2.34207e-20 0.000469258 2.39933e-21 0.000398514)
(0.0003189 1.1021e-05 -8.36643e-20 0.000398037 -5.24832e-20 0.000337934)
(0.000263995 1.39765e-05 1.78033e-20 0.000320873 -7.08628e-21 0.000275434)
(0.000202224 1.2875e-05 6.71517e-20 0.000233429 2.07745e-20 0.00020735)
(7.73879e-05 2.35673e-06 -1.37064e-20 8.08405e-05 -3.92037e-21 7.79259e-05)
(0.000146271 8.36491e-06 1.88452e-20 0.000154369 2.62222e-21 0.000147915)
(3.77019e-06 4.5938e-09 -2.22859e-24 3.77342e-06 -4.96472e-25 3.77109e-06)
(0.00311236 0.00141269 -1.22927e-18 0.00382421 5.26675e-19 0.0033391)
(0.00816696 0.00383725 2.06148e-18 0.00937425 -5.49777e-19 0.00850826)
(0.0194717 0.00886332 -4.55645e-18 0.0204735 5.28919e-18 0.0193801)
(0.000791541 0.000245038 -1.29211e-21 0.000746104 -4.37975e-21 0.000747601)
(0.00626221 -0.000557338 3.32065e-18 0.00267181 -9.39729e-19 0.00399204)
(0.167343 -0.067946 1.12901e-17 0.14134 2.6787e-17 0.152647)
(1.40133 -0.601904 8.14486e-17 1.28894 -1.93386e-16 1.34001)
(5.13853 -2.26521 -1.25603e-16 4.9429 -6.32753e-16 5.03413)
(9.69303 -4.34966 3.16915e-15 9.64015 7.54906e-16 9.66508)
(11.8993 -5.4036 3.18715e-15 12.1206 5.2339e-16 12.0117)
(11.6322 -5.30815 -9.7631e-16 11.9723 -1.37762e-15 11.8012)
(10.2235 -4.69161 -4.77258e-15 10.6393 1.5251e-16 10.4455)
(0.00113416 -4.76359e-05 -5.55252e-21 0.000892367 -8.89462e-21 0.00101219)
(0.00112621 -2.50259e-05 -3.48406e-21 0.000874487 1.35162e-20 0.000999635)
(0.00110534 1.90277e-06 1.74763e-20 0.000853939 2.17955e-20 0.000980033)
(0.00106814 2.92457e-05 -1.34054e-20 0.000831473 5.32199e-21 0.00095008)
(0.00101297 5.44358e-05 6.49978e-21 0.000806438 3.45381e-20 0.00090967)
(0.000868632 -5.31826e-05 -5.2223e-21 0.00069779 -5.52441e-21 0.000783886)
(0.00085508 -6.70883e-05 6.80089e-22 0.000705963 1.36195e-22 0.000781663)
(0.00083329 -7.9654e-05 6.48036e-21 0.00071421 7.76654e-21 0.000775089)
(0.000803532 -8.8596e-05 -3.65727e-20 0.000720056 -3.97676e-20 0.0007636)
(0.000766552 -9.30311e-05 -2.69851e-20 0.000721761 -3.11515e-20 0.000746522)
(0.000722765 -9.26447e-05 5.96239e-20 0.000718353 6.30739e-20 0.000723458)
(0.000674847 -8.7357e-05 -6.11638e-20 0.000708687 -6.60977e-20 0.00069538)
(0.000624676 -7.77379e-05 -2.51632e-20 0.000691811 -1.97102e-20 0.000662652)
(0.000574245 -6.47137e-05 -6.42977e-20 0.000667954 -4.7593e-20 0.000626319)
(0.000526078 -4.96107e-05 -1.49251e-20 0.000638207 -2.10623e-20 0.000588306)
(0.000481664 -3.36382e-05 8.61817e-21 0.00060388 -1.755e-21 0.000549895)
(0.000442312 -1.79155e-05 -5.00931e-20 0.000566788 -5.64306e-20 0.000512659)
(0.000408897 -3.34656e-06 1.46334e-19 0.000528848 9.70821e-20 0.000477991)
(0.000381767 9.48182e-06 -4.37854e-20 0.000491728 -7.46131e-21 0.00044689)
(0.000360801 2.01547e-05 -1.19381e-19 0.000456705 -5.30263e-20 0.000419879)
(0.000346157 2.85825e-05 7.65422e-20 0.000425432 4.05713e-21 0.000397864)
(0.000337264 3.4678e-05 -5.75366e-20 0.000399125 -3.17224e-20 0.000380882)
(0.000328703 3.81027e-05 1.24741e-21 0.000373982 3.93667e-20 0.000363866)
(0.00031709 3.94624e-05 -1.32617e-20 0.000347183 -1.02518e-20 0.000343984)
(0.000298352 3.84325e-05 -1.02993e-19 0.000314522 -6.71353e-20 0.000317069)
(0.00026401 3.31548e-05 7.30867e-20 0.000268348 6.72897e-20 0.000274518)
(0.000159352 1.3449e-05 7.5458e-22 0.000158078 -2.31164e-20 0.000161628)
(6.08646e-05 2.07477e-06 1.46601e-21 6.04311e-05 4.43711e-22 6.09916e-05)
(9.94749e-06 5.1585e-08 9.71999e-23 9.93584e-06 -1.97281e-24 9.94748e-06)
(1.07225e-07 5.21117e-12 -2.90438e-27 1.07224e-07 -8.7258e-28 1.07225e-07)
(0 0 0 0 0 0)
(7.45288e-05 2.03349e-06 -1.29495e-22 7.39807e-05 4.90096e-24 7.43105e-05)
(0.00648002 0.00271847 -4.54055e-19 0.00575148 -2.32699e-19 0.00615163)
(0.0299303 0.0124262 7.1278e-19 0.0259421 2.89059e-18 0.028034)
(0.00349541 0.00113461 -9.61772e-18 0.00225519 4.45016e-19 0.00288666)
(0.296435 -0.117833 -1.15426e-16 0.241511 1.09285e-17 0.268662)
(3.10275 -1.34407 2.87363e-16 2.891 -8.41134e-16 2.99451)
(8.47832 -3.76533 2.834e-15 8.265 -1.80311e-15 8.36893)
(12.0146 -5.39286 -6.87941e-15 11.9564 2.04261e-16 11.9819)
(12.5046 -5.65788 5.75821e-15 12.637 2.1501e-15 12.5802)
(0.000874334 -3.69783e-05 3.67273e-21 0.000687785 -7.41414e-22 0.000781825)
(0.000874053 -2.02029e-05 -1.29196e-20 0.000678731 -1.17599e-20 0.000776763)
(0.000864023 -2.51858e-07 -1.2156e-21 0.000667317 6.89639e-21 0.000766238)
(0.000839238 2.03541e-05 1.02816e-20 0.00065208 -3.04614e-20 0.000745734)
(0.0008011 3.97262e-05 -6.67903e-20 0.000634763 -6.45746e-20 0.000717701)
(0.000701172 -4.32539e-05 4.78809e-21 0.00056376 4.22953e-21 0.000632258)
(0.000694746 -5.4359e-05 -1.11575e-20 0.000573542 -9.8593e-21 0.000633978)
(0.000682711 -6.46964e-05 -3.94938e-22 0.000584165 -2.29258e-21 0.000633091)
(0.000665937 -7.25974e-05 -2.9025e-21 0.000594469 -4.27557e-21 0.00062973)
(0.000644373 -7.72951e-05 3.37714e-20 0.000602643 3.36988e-20 0.00062291)
(0.000618127 -7.85772e-05 2.47877e-20 0.000608192 2.16693e-20 0.000612307)
(0.000588792 -7.62338e-05 2.39893e-21 0.000609912 7.20589e-21 0.000598255)
(0.000557157 -7.05177e-05 6.49798e-20 0.000606477 5.75781e-20 0.00058042)
(0.000524249 -6.19772e-05 -5.80667e-21 0.000597565 5.40108e-22 0.000559112)
(0.000491298 -5.14781e-05 -2.15869e-20 0.000583 -1.12612e-20 0.000534932)
(0.000458831 -3.98781e-05 4.20358e-20 0.000562821 1.75611e-20 0.000508116)
(0.000427387 -2.80167e-05 -5.42316e-20 0.000537671 -2.22476e-20 0.000479269)
(0.000397317 -1.66775e-05 -1.05028e-19 0.00050839 -7.70883e-20 0.000449014)
(0.000368635 -6.42255e-06 -4.53303e-20 0.000475834 4.72977e-21 0.000417761)
(0.000341289 2.33878e-06 1.87883e-19 0.000440968 8.47096e-20 0.000385974)
(0.000315408 9.37079e-06 -1.32845e-19 0.000405085 -5.96492e-20 0.000354377)
(0.000290042 1.45529e-05 -3.31812e-20 0.000368078 2.36748e-20 0.000322431)
(0.000262499 1.81732e-05 6.18005e-20 0.000327285 3.80279e-20 0.00028794)
(0.000233949 2.03926e-05 -3.7926e-20 0.000284695 -8.0264e-22 0.000252518)
(0.000206666 2.13783e-05 -1.25333e-20 0.000243687 2.9445e-20 0.000218947)
(0.000181802 2.12799e-05 1.83973e-20 0.000206032 -1.03212e-20 0.000188609)
(0.000162107 2.06902e-05 -1.33916e-19 0.000175391 1.01648e-20 0.000164475)
(0.000137547 1.70417e-05 1.06959e-21 0.000140709 -1.76917e-20 0.000136414)
(9.95674e-05 9.3615e-06 -4.79178e-20 9.72133e-05 3.35979e-21 9.73928e-05)
(1.25132e-06 1.50412e-09 2.06889e-24 1.25038e-06 5.79254e-25 1.25076e-06)
(3.48735e-06 1.05842e-08 -4.48146e-24 3.47822e-06 -1.6783e-23 3.48242e-06)
(0 0 -0 0 -0 0)
(0 0 0 0 0 0)
(0 0 0 0 -0 0)
(0.00145961 0.000517282 4.23568e-19 0.00127814 4.6558e-19 0.0013678)
(0.0525522 0.0205802 -4.67523e-18 0.0418949 8.45365e-18 0.0472793)
(0.158696 -0.0537987 -3.04602e-16 0.106751 4.96867e-17 0.13282)
(2.97233 -1.27186 -2.07171e-15 2.71026 -7.17195e-16 2.84136)
(9.03414 -3.97421 -2.85585e-15 8.65248 9.30872e-16 8.83867)
(13.1955 -5.88352 4.06146e-15 12.958 -1.94341e-15 13.0781)
(0.000702105 -3.05267e-05 -5.19161e-21 0.000552994 -6.03637e-21 0.000627621)
(0.000699387 -1.74363e-05 3.30324e-21 0.000543641 2.58644e-21 0.000621505)
(0.000690405 -1.9228e-06 4.40272e-21 0.000533296 1.05449e-21 0.000612138)
(0.0006712 1.41787e-05 -1.15463e-21 0.000520771 -1.7491e-20 0.000595936)
(0.00056794 -3.53184e-05 -2.48822e-21 0.000456939 -1.48949e-21 0.000512465)
(0.000563118 -4.41525e-05 5.26092e-22 0.000464998 -1.51117e-21 0.000514208)
(0.000554291 -5.24474e-05 1.50985e-20 0.000474068 1.33937e-20 0.000514312)
(0.000541703 -5.88649e-05 1.09641e-21 0.0004829 2.94671e-21 0.000512489)
(0.000525538 -6.28363e-05 -5.24076e-20 0.000490352 -4.60311e-20 0.000508214)
(0.000505622 -6.41571e-05 1.21906e-20 0.00049588 9.06624e-21 0.000501076)
(0.000482966 -6.25886e-05 1.17346e-20 0.000498441 7.84658e-21 0.00049113)
(0.000458201 -5.82509e-05 -2.84364e-20 0.000496988 -3.10486e-20 0.000478153)
(0.000432003 -5.14703e-05 -3.7917e-20 0.000491078 -2.34228e-20 0.000462223)
(0.00040535 -4.28368e-05 1.70848e-20 0.000480432 1.746e-20 0.000443748)
(0.000378841 -3.29775e-05 -8.87185e-20 0.000465063 -6.66926e-20 0.00042301)
(0.000353075 -2.25546e-05 5.38798e-20 0.000445371 3.34167e-20 0.000400506)
(0.000328609 -1.22499e-05 1.14858e-19 0.000422048 6.40784e-20 0.000376882)
(0.000305715 -2.5856e-06 1.54803e-19 0.000395856 6.06028e-20 0.000352643)
(0.000284655 6.0019e-06 -2.05254e-19 0.000367754 -1.41993e-19 0.000328406)
(0.000265551 1.31805e-05 1.06402e-19 0.000338695 7.63544e-20 0.000304718)
(0.000248623 1.88638e-05 1.16696e-19 0.000309721 2.89664e-20 0.000282248)
(0.000234516 2.28924e-05 7.47327e-20 0.000282693 -1.29329e-20 0.000262077)
(0.00022188 2.51548e-05 3.90144e-20 0.00025735 1.95896e-20 0.000243153)
(0.000208652 2.57389e-05 -4.25839e-21 0.000232346 2.55838e-20 0.000223811)
(0.000193444 2.48409e-05 3.67142e-20 0.000206907 -5.35233e-21 0.000202996)
(0.000177309 2.30986e-05 1.27616e-19 0.000182616 5.08605e-20 0.000182158)
(0.000163201 2.13691e-05 -5.48802e-20 0.000161992 -7.54025e-21 0.000164168)
(0.000154959 2.04335e-05 1.59316e-19 0.000147241 3.63494e-20 0.000152219)
(0.000120678 1.29194e-05 -1.8456e-20 0.000110338 4.77951e-22 0.000116057)
(6.49773e-05 3.86552e-06 -2.99153e-21 5.96514e-05 1.71405e-21 6.2443e-05)
(5.07448e-06 2.41489e-08 7.33911e-24 5.02349e-06 2.78676e-24 5.0496e-06)
(1.72451e-06 2.62251e-09 -3.45627e-24 1.71753e-06 1.19977e-24 1.72107e-06)
(0 0 -0 0 -0 0)
(0 0 -0 0 0 0)
(0 0 -0 0 -0 0)
(0.0484655 0.0186122 7.07079e-17 0.0376285 2.89429e-17 0.0431408)
(0.295918 -0.105238 -7.40487e-16 0.209364 2.64315e-16 0.253324)
(4.2488 -1.81251 -1.70905e-15 3.85443 1.7993e-16 4.05146)
(11.2876 -4.95113 -3.83825e-15 10.7504 -6.13768e-17 11.018)
(0.000568599 -2.52876e-05 8.27369e-22 0.000448245 3.13843e-21 0.00050857)
(0.000566627 -1.4973e-05 1.09874e-20 0.000440778 5.84733e-21 0.000503734)
(0.000560057 -2.75116e-06 -1.17203e-20 0.000432664 3.37179e-22 0.000496572)
(0.000545633 1.00294e-05 2.84008e-20 0.000422861 1.64853e-20 0.000484157)
(0.00046798 -2.94396e-05 -1.35227e-22 0.00037689 -3.7863e-22 0.000422398)
(0.000465053 -3.66419e-05 -1.06224e-21 0.000384303 -3.45562e-22 0.000424697)
(0.000459325 -4.34677e-05 -2.67689e-21 0.000392875 -9.08401e-22 0.000426078)
(0.000450794 -4.88644e-05 -9.71421e-21 0.000401512 -9.22549e-21 0.000426123)
(0.00043981 -5.23938e-05 1.35613e-20 0.000409504 9.77984e-21 0.000424619)
(0.000426056 -5.38903e-05 6.80297e-20 0.000416381 5.16993e-20 0.00042115)
(0.000410301 -5.31356e-05 -4.55229e-21 0.000421347 -6.29743e-21 0.000415733)
(0.000392961 -5.01787e-05 -3.14216e-20 0.000423529 -2.38442e-20 0.000408123)
(0.000374436 -4.52137e-05 7.94256e-20 0.0004225 6.28193e-20 0.000398286)
(0.000355441 -3.86504e-05 3.2662e-20 0.000417909 2.02827e-20 0.000386437)
(0.000336271 -3.09348e-05 -2.14291e-20 0.000409472 -4.65583e-21 0.00037255)
(0.000317311 -2.25588e-05 -8.98822e-20 0.000397315 -4.41944e-20 0.000356885)
(0.000298876 -1.40636e-05 -1.79074e-19 0.000381705 -1.24551e-19 0.000339747)
(0.000281065 -5.90271e-06 -2.08946e-19 0.000362995 -1.18014e-19 0.000321343)
(0.000263956 1.5196e-06 -1.17321e-20 0.000341732 3.82917e-20 0.000301986)
(0.00024751 7.88397e-06 1.05685e-20 0.0003185 -1.81455e-20 0.000281952)
(0.000231766 1.29973e-05 -1.53362e-19 0.000294094 -6.78144e-20 0.000261632)
(0.000216033 1.67182e-05 -1.02778e-19 0.000268455 -4.25792e-20 0.000240684)
(0.000199574 1.91159e-05 2.35419e-20 0.000241225 2.03529e-21 0.000218709)
(0.000183013 2.02654e-05 1.06945e-19 0.000213776 1.5127e-20 0.000196751)
(0.000167276 2.03428e-05 -4.37819e-20 0.000187745 -1.75007e-20 0.000176073)
(0.000152963 1.95272e-05 -2.8733e-20 0.000164364 -4.82298e-20 0.000157531)
(0.000141713 1.83749e-05 5.49912e-21 0.000145577 1.98039e-21 0.000142832)
(0.000133569 1.71274e-05 -4.9409e-20 0.000130882 -4.2994e-20 0.000131708)
(0.000132521 1.69173e-05 3.80797e-20 0.000122882 7.94184e-21 0.000127389)
(0.000119934 1.35192e-05 1.28033e-20 0.000105124 -7.32298e-21 0.000112358)
(8.49706e-05 6.5106e-06 3.28204e-22 7.283e-05 -2.04864e-21 7.88191e-05)
(3.65946e-05 1.0836e-06 2.5767e-21 3.30731e-05 6.81003e-22 3.48196e-05)
(3.57816e-06 6.95172e-09 1.85871e-23 3.53179e-06 1.26393e-23 3.55496e-06)
(2.77169e-08 2.5872e-13 1.2428e-26 2.77139e-08 6.70322e-28 2.77154e-08)
(0 0 -0 0 0 0)
(7.81333e-05 4.62104e-06 1.57186e-20 7.57519e-05 -1.20432e-20 7.69682e-05)
(0.00576107 0.00192122 2.55554e-17 0.00380921 7.27328e-18 0.00480082)
(0.977775 -0.385001 -2.47258e-16 0.785224 3.13111e-16 0.882724)
(7.1969 -3.09181 2.50719e-15 6.60562 -3.15745e-16 6.90354)
(0.000467798 -2.1357e-05 -1.81094e-21 0.000369186 -2.66118e-21 0.000418554)
(0.000465758 -1.30428e-05 -6.06231e-21 0.000362621 -1.92497e-21 0.000414186)
(0.000460452 -3.22017e-06 1.01249e-20 0.000355792 1.40913e-22 0.000408264)
(0.000449262 7.11458e-06 -4.26368e-20 0.000347853 -2.24657e-20 0.000398459)
(0.000389178 -2.48014e-05 -3.50122e-21 0.00031377 -1.33577e-21 0.000351456)
(0.000387197 -3.07159e-05 -1.07533e-20 0.000320276 -7.77344e-21 0.000353767)
(0.000383229 -3.63587e-05 -1.93648e-21 0.000327973 -4.02007e-21 0.000355622)
(0.00037697 -4.08637e-05 3.68703e-20 0.000335748 2.69691e-20 0.000356382)
(0.000368886 -4.38819e-05 -2.32871e-20 0.000343154 -1.5997e-20 0.000356055)
(0.000358711 -4.53039e-05 -2.61808e-20 0.000349925 -2.1323e-20 0.000354355)
(0.000346915 -4.49146e-05 -5.8451e-20 0.00035528 -4.04175e-20 0.000351151)
(0.000333816 -4.2731e-05 -4.27042e-20 0.000358536 -2.82116e-20 0.000346253)
(0.000319694 -3.88731e-05 4.37699e-20 0.000359322 2.69991e-20 0.000339592)
(0.000305022 -3.36217e-05 1.09883e-20 0.000357209 1.46017e-21 0.00033123)
(0.000290039 -2.72958e-05 1.79548e-20 0.00035193 1.77172e-20 0.000321128)
(0.000275021 -2.02614e-05 1.77601e-19 0.000343439 1.02018e-19 0.000309402)
(0.000260232 -1.2951e-05 -5.71464e-20 0.000331828 -8.94805e-21 0.000296249)
(0.000245813 -5.74592e-06 1.35269e-19 0.000317328 1.036e-19 0.000281843)
(0.000231903 9.96632e-07 2.11053e-20 0.000300347 1.36774e-20 0.000266463)
(0.000218564 6.96154e-06 -3.2254e-20 0.00028137 -1.48193e-20 0.000250391)
(0.000205765 1.19236e-05 9.46032e-20 0.000260893 6.01283e-20 0.000233853)
(0.00019361 1.5762e-05 3.73073e-20 0.000239626 2.53996e-20 0.000217297)
(0.000182165 1.83525e-05 1.8143e-20 0.000218409 -7.13004e-21 0.000201047)
(0.000171018 1.96845e-05 -6.36398e-20 0.000197548 -5.13118e-20 0.000185033)
(0.000159858 1.98871e-05 -1.00266e-21 0.00017735 1.32581e-21 0.00016925)
(0.000148637 1.91785e-05 -3.47234e-20 0.000158227 6.63504e-22 0.000153925)
(0.000138122 1.79187e-05 -5.2199e-20 0.000141075 -3.62946e-21 0.000139926)
(0.00012866 1.63008e-05 1.32428e-20 0.000125957 1.56813e-20 0.000127517)
(0.00012194 1.48502e-05 -1.86856e-21 0.000114042 -1.28582e-20 0.000118143)
(0.000115706 1.31459e-05 -4.28241e-20 0.000102919 3.26292e-22 0.000109408)
(0.000109774 1.12057e-05 -5.03916e-21 9.24525e-05 1.22482e-21 0.000101136)
(9.50046e-05 7.58377e-06 1.43986e-21 7.67098e-05 -2.63572e-21 8.58256e-05)
(6.57525e-05 2.86368e-06 -6.29191e-21 5.34727e-05 7.33944e-22 5.95956e-05)
(5.96027e-07 6.27858e-11 9.19265e-25 5.9449e-07 -3.68956e-24 5.95258e-07)
(8.0469e-10 -3.42775e-16 1.40465e-29 8.04687e-10 -1.53539e-30 8.04688e-10)
(0 0 -0 0 -0 0)
(0.00342898 0.00133317 1.3578e-17 0.00271388 -3.21626e-18 0.00307907)
(0.0377235 -0.0045994 2.9476e-16 0.0155534 4.75421e-18 0.0267348)
(3.03803 -1.26184 -4.7508e-15 2.6379 1.14208e-16 2.84147)
(0.000388775 -1.82112e-05 2.589e-21 0.000307163 3.56361e-21 0.000348015)
(0.000386948 -1.14272e-05 1.84612e-20 0.000301523 8.36008e-21 0.000344228)
(0.000382699 -3.41959e-06 -1.22817e-20 0.000295796 -1.33777e-20 0.000339354)
(0.000312302 -3.71379e-05 1.82411e-20 0.000290451 9.33238e-21 0.00030138)
(0.000304797 -3.84592e-05 2.09331e-20 0.000297022 1.3743e-20 0.000300904)
(0.000296096 -3.83205e-05 9.09138e-20 0.000302633 6.06332e-20 0.000299366)
(0.00028642 -3.67247e-05 -1.41087e-20 0.00030675 -8.95421e-21 0.000296585)
(0.000275932 -3.37443e-05 3.04304e-20 0.000309013 1.48874e-20 0.000292462)
(0.000264988 -2.95778e-05 -6.01533e-20 0.000309058 -3.3286e-20 0.000287011)
(0.000253732 -2.44574e-05 4.58715e-20 0.000306576 2.385e-20 0.000280132)
(0.000242365 -1.86591e-05 -1.14746e-19 0.000301466 -7.86985e-20 0.000271874)
(0.000231065 -1.2514e-05 2.45115e-21 0.000293704 9.10581e-21 0.000262327)
(0.000219929 -6.33099e-06 1.584e-20 0.000283381 -7.21407e-21 0.000251576)
(0.000209046 -4.26267e-07 2.91896e-20 0.000270723 6.65101e-21 0.000239776)
(0.000198429 4.91552e-06 5.97298e-21 0.000256032 4.20233e-21 0.00022709)
(0.000188069 9.47883e-06 -3.63093e-20 0.000239708 -3.02943e-20 0.000213704)
(0.000177933 1.30853e-05 -6.96103e-20 0.000222247 -2.19158e-20 0.000199853)
(0.000167654 1.56534e-05 -6.05338e-20 0.000203728 -1.73798e-20 0.000185405)
(0.000157134 1.71599e-05 -4.3686e-20 0.0001846 1.00194e-20 0.00017056)
(0.000146741 1.77055e-05 -2.81026e-20 0.00016579 -3.23477e-21 0.000155977)
(0.000136859 1.7445e-05 -3.39694e-21 0.000148209 1.15041e-20 0.000142301)
(0.000127931 1.66069e-05 3.41993e-20 0.000132545 1.98751e-20 0.000130067)
(0.000120092 1.5365e-05 -2.00417e-21 0.000118873 -1.17729e-20 0.000119383)
(0.000112645 1.3725e-05 -1.86887e-20 0.000106383 -2.89517e-21 0.000109481)
(0.000105207 1.18004e-05 3.17874e-20 9.47432e-05 8.75034e-21 9.99671e-05)
(9.77543e-05 9.75371e-06 4.61842e-21 8.40299e-05 1.45399e-21 9.08732e-05)
(9.11071e-05 7.79356e-06 5.4179e-21 7.4843e-05 -4.45005e-21 8.29404e-05)
(8.93361e-05 6.30864e-06 6.37655e-21 6.95229e-05 -1.48577e-21 7.9399e-05)
(6.048e-05 2.04711e-06 -6.40074e-20 4.83252e-05 1.47882e-20 5.44098e-05)
(2.66212e-06 -2.34645e-09 -1.47469e-22 2.62937e-06 -3.07394e-23 2.64572e-06)
(0 -0 0 0 0 0)
(0 0 -0 0 -0 0)
(0.0202237 0.00699548 1.8512e-17 0.0139016 -1.58652e-17 0.0170517)
(0.720097 -0.275419 1.19515e-15 0.556095 9.19262e-17 0.639613)
(0.000253592 -3.28147e-05 -3.49908e-20 0.000258933 -2.33075e-20 0.000256273)
(0.000246246 -3.16062e-05 -4.02545e-20 0.000263264 -2.39811e-20 0.00025477)
(0.000238268 -2.92488e-05 -1.28449e-20 0.000266181 -1.03824e-20 0.00025224)
(0.000229924 -2.5884e-05 7.53412e-20 0.000267392 4.57377e-20 0.000248679)
(0.000221268 -2.16781e-05 -3.82002e-21 0.000266547 -8.36724e-21 0.000243932)
(0.000212452 -1.68357e-05 3.1594e-20 0.000263525 2.92228e-20 0.000238017)
(0.000203606 -1.16173e-05 4.65087e-21 0.000258235 8.19204e-21 0.000230955)
(0.000194801 -6.27573e-06 3.55991e-20 0.000250677 3.62436e-21 0.000222777)
(0.000186108 -1.06691e-06 -2.30086e-20 0.000240979 -8.98783e-21 0.00021359)
(0.000177571 3.756e-06 -2.78781e-20 0.000229358 -7.62927e-21 0.000203527)
(0.00016917 7.98131e-06 7.46035e-21 0.000216078 1.29094e-20 0.000192702)
(0.000160916 1.14328e-05 7.20843e-20 0.000201556 2.6955e-20 0.000181344)
(0.000152743 1.40095e-05 3.47575e-20 0.000186161 1.04393e-20 0.00016959)
(0.000144582 1.56411e-05 3.5179e-20 0.000170363 1.4661e-20 0.000157612)
(0.000136422 1.63701e-05 8.16418e-21 0.00015465 2.33385e-20 0.000145649)
(0.000128377 1.63166e-05 2.7919e-20 0.000139593 3.96684e-21 0.000134066)
(0.000120713 1.56721e-05 7.84021e-24 0.00012568 -6.99153e-21 0.000123242)
(0.000113644 1.4606e-05 -4.19219e-20 0.000113124 -9.73994e-21 0.00011341)
(0.000106724 1.31365e-05 3.19354e-22 0.000101409 6.08034e-21 0.000104095)
(9.92233e-05 1.12556e-05 -1.85369e-20 8.99553e-05 -1.00076e-20 9.46121e-05)
(9.09786e-05 9.11984e-06 -3.15417e-21 7.88909e-05 -2.09503e-21 8.49371e-05)
(8.22397e-05 6.94592e-06 -1.64512e-20 6.86186e-05 -5.69667e-23 7.5415e-05)
(7.59542e-05 5.19491e-06 -1.15553e-20 6.10764e-05 -6.55686e-21 6.85011e-05)
(8.49492e-05 4.95476e-06 1.40834e-19 6.34669e-05 1.03524e-20 7.42167e-05)
(4.03538e-05 5.51141e-07 1.5535e-20 3.36101e-05 7.52523e-21 3.69945e-05)