/*--------------------------------*- C++ -*----------------------------------*\
| =========                 |                                                 |
| \\      /  F ield         | OpenFOAM: The Open Source CFD Toolbox           |
|  \\    /   O peration     | Version:  2306                                  |
|   \\  /    A nd           | Website:  www.openfoam.com                      |
|    \\/     M anipulation  |                                                 |
\*---------------------------------------------------------------------------*/
FoamFile
{
    version     2.0;
    format      ascii;
    arch        "LSB;label=32;scalar=64";
    class       volScalarField;
    location    "75";
    object      turbulenceProperties:I;
}
// * * * * * * * * * * * * * * * * * * * * * * * * * * * * * * * * * * * * * //

dimensions      [0 0 0 0 0 0 0];

internalField   nonuniform List<scalar> 
1340
(
0.00450527
0.00437419
0.00431158
0.00437037
0.00447425
0.00465025
0.00491255
0.00524698
0.00566779
0.00618779
0.00681805
0.00759131
0.00855368
0.00976913
0.0113367
0.0134199
0.016226
0.02026
0.025906
0.0353596
0.0488492
0.0785616
0.123905
0.254554
0.39429
0.438018
0.415856
0.383295
0.360134
0.350367
0.350986
0.352732
0.345763
0.383724
0.583309
0.00469456
0.00506596
0.00562034
0.0068232
0.009317
0.0143882
0.0146595
0.00226148
0.00203127
0.00182796
0.00164584
0.00148483
0.0013436
0.00121776
0.00110489
0.00100583
0.000917633
0.00083973
0.000773457
0.00071746
0.000675447
0.000675742
0.000736554
0.00091446
0.00128278
0.00187239
0.00304924
0.00486583
0.0092598
0.0157621
0.0320897
0.0594089
0.0904727
0.124688
0.160158
0.188197
0.203758
0.2141
0.229558
0.260514
0.320582
0.471055
0.00252693
0.00287229
0.00337625
0.00413705
0.00523481
0.00636235
0.00192616
0.00174052
0.0015655
0.00140569
0.00126903
0.00114842
0.00104378
0.000956652
0.000884909
0.000827878
0.000783742
0.00075051
0.000726328
0.000709994
0.000700983
0.000704365
0.000691212
0.000675961
0.000531332
0.000248561
0.00164557
0.0012709
0.00289902
0.0011892
0.00459531
0.0113276
0.0238951
0.044444
0.0758161
0.114953
0.152661
0.18515
0.221896
0.276578
0.387467
0.00213971
0.00239813
0.00274669
0.0031926
0.00368473
0.00404956
0.00172643
0.00159113
0.00146153
0.00134392
0.00123819
0.00114137
0.00105451
0.000976146
0.000905477
0.000841552
0.000783495
0.000730709
0.00068273
0.000638381
0.0005968
0.000556886
0.000514968
0.000472597
0.000426533
0.0003702
0.000226091
0.000314555
5.03382e-05
0.00152226
0.00243019
0.00369076
0.000732742
0.00177343
0.0109209
0.0343436
0.0747589
0.123742
0.174501
0.232358
0.326367
0.001871
0.00203895
0.00224629
0.00249039
0.00272681
0.00149251
0.00138852
0.00128567
0.00118822
0.0010987
0.00101467
0.000937354
0.000866771
0.000802315
0.000744208
0.000692211
0.000646206
0.000606175
0.000572033
0.000543574
0.000520982
0.000504186
0.00048969
0.00047509
0.00045692
0.000427681
0.000332171
0.000207037
8.4749e-05
8.91673e-06
0
0.000242032
0.00222959
0.00480929
0.00155702
0.0155573
0.0574068
0.116044
0.182582
0.271707
0.00160042
0.00171961
0.00185793
0.00200591
0.0021356
0.00131488
0.00123859
0.00116088
0.00108627
0.00101686
0.00095076
0.000889291
0.000832468
0.000779825
0.000731338
0.000686585
0.000645239
0.000607066
0.000571717
0.000538893
0.000508546
0.000479769
0.000450119
0.000420066
0.000391176
0.000364248
0.0003422
0.00031405
0.000267902
3.07564e-05
5.23809e-05
0
0
0
0.0011287
0.0066367
0.0113476
0.0582161
0.127659
0.217391
0.00139141
0.00147321
0.00156495
0.0016582
0.00115891
0.00110086
0.0010403
0.00098077
0.000924536
0.000869835
0.00081796
0.000769202
0.000723196
0.000680113
0.000639809
0.00060215
0.000567171
0.000534783
0.000504986
0.000477791
0.000453348
0.000432362
0.00041391
0.000396293
0.00037812
0.000360114
0.000344754
0.000335726
0.000297626
0.000222682
6.48753e-05
3.89148e-05
0
0
0
0.00660596
0.0163664
0.0747075
0.162349
0.0012156
0.00127446
0.00133855
0.00140092
0.00102997
0.000985886
0.000939019
0.00089215
0.0008475
0.000803427
0.000761205
0.000721183
0.000683075
0.000647107
0.000613119
0.000581012
0.000550781
0.000522298
0.000495493
0.000470269
0.000446645
0.000423974
0.000401437
0.000379516
0.000359042
0.000340675
0.000326328
0.000316132
0.000314768
0.000300598
0.000257155
0.000175213
5.75674e-05
5.24533e-06
0
0.000290513
0.00227134
0.0322641
0.109429
0.00107208
0.00111489
0.00116069
0.00120398
0.00092046
0.000886386
0.000849633
0.000812167
0.000776128
0.000740107
0.000705138
0.000671623
0.00063933
0.000608462
0.000578947
0.000550698
0.000523751
0.000498074
0.000473681
0.000450593
0.00042877
0.000408343
0.000389461
0.000371845
0.000355234
0.000339555
0.000325526
0.000313399
0.000305228
0.000298384
0.000292619
0.000275875
0.000235848
2.42467e-05
9.22285e-07
0
0.00187896
0.00550765
0.0630013
0.000952433
0.000984334
0.00101803
0.00071288
0.000683488
0.000654721
0.000626964
0.000599986
0.000574003
0.00054894
0.000524741
0.000501444
0.000479029
0.000457511
0.000436902
0.000417211
0.000398473
0.000380323
0.000362699
0.000346025
0.000330785
0.000317498
0.00030632
0.000296406
0.000287322
0.000279001
0.000272366
0.000272983
0.000231913
5.26544e-05
0
0
0.0044745
0.0282334
0.000608048
0.000584917
0.000562254
0.000540281
0.000518878
0.000498006
0.000477703
0.000457953
0.000438789
0.000420265
0.000402389
0.000385251
0.000368838
0.000353184
0.000338368
0.000324593
0.000312163
0.000301301
0.000291404
0.000281505
0.000271308
0.000260903
0.000254419
0.000271509
0.000196807
2.18483e-05
0
0.00119628
0.00596393
0.000527229
0.000508646
0.000490529
0.000472681
0.000455168
0.000437989
0.000421162
0.000404737
0.000388757
0.00037331
0.000358374
0.000343863
0.000329944
0.000316985
0.000305266
0.000294896
0.000285457
0.000276009
0.000266071
0.000256034
0.000243103
0.000245542
0.000266532
6.18441e-05
2.37042e-06
0
0.00378726
0.000478788
0.000463342
0.000448128
0.00043304
0.000418105
0.000403345
0.000388803
0.00037453
0.0003606
0.00034709
0.000333972
0.00032133
0.000309455
0.000298533
0.000288639
0.000279484
0.000270426
0.000260851
0.000251471
0.00024115
0.000228034
0.000248887
0.000206217
1.87268e-05
0
0.00164818
0.000437639
0.000424644
0.000411719
0.000398824
0.00038597
0.000373193
0.000360541
0.000348087
0.000335947
0.000324062
0.000312497
0.000301544
0.000291364
0.00028201
0.000273233
0.000264557
0.000255493
0.000246161
0.000238249
0.00022474
0.000221256
0.000250938
4.58954e-05
1.72417e-06
0.000172935
0.000413324
0.000402211
0.000391181
0.000380074
0.000368911
0.000357731
0.000346574
0.00033549
0.000324622
0.000313933
0.000303463
0.000293449
0.000284034
0.000275244
0.000266889
0.00025858
0.000250022
0.000240978
0.000232969
0.000224373
0.000208971
0.000232035
0.000172768
6.98124e-06
0
0.000380895
0.000371435
0.000361934
0.0003523
0.000342578
0.000332797
0.000322995
0.000313311
0.000303735
0.000294292
0.000285159
0.000276486
0.000268286
0.000260391
0.000252484
0.00024436
0.000235895
0.000227374
0.000221036
0.000206694
0.000207218
0.000218725
2.98433e-05
0
0.000352553
0.000344427
0.000336157
0.00032774
0.000319206
0.000310588
0.000301994
0.000293466
0.000284998
0.000276715
0.000268773
0.000261176
0.000253771
0.000246299
0.000238575
0.000230645
0.000222261
0.000215441
0.000206127
0.000191595
0.000219253
9.34481e-05
3.58975e-06
0.000334562
0.000327582
0.000320525
0.000313271
0.000305869
0.000298336
0.000290751
0.000283189
0.00027563
0.000268153
0.000260919
0.000253926
0.000247024
0.000240008
0.000232705
0.000225183
0.000217322
0.000209633
0.000203087
0.000186283
0.000198804
0.000160428
6.33772e-06
0.000311443
0.000305418
0.000299205
0.000292815
0.000286272
0.000279617
0.000272941
0.00026622
0.000259504
0.00025295
0.000246551
0.000240165
0.00023361
0.000226749
0.00021959
0.000212227
0.000204347
0.000197864
0.000185159
0.000178097
0.000185538
2.5141e-05
0.000296038
0.000290865
0.000285587
0.000280098
0.00027444
0.000268632
0.000262766
0.000256817
0.000250817
0.000244904
0.000239079
0.000233208
0.000227121
0.000220707
0.000213932
0.000206934
0.000199383
0.000192055
0.000183256
0.000166558
0.00018022
8.06821e-05
0.000276904
0.000272412
0.000267725
0.000262855
0.000257823
0.000252703
0.000247464
0.000242129
0.00023682
0.000231547
0.000226181
0.000220561
0.000214587
0.000208219
0.000201527
0.000194424
0.000186592
0.000179306
0.000162557
0.000163098
0.000130013
0.000263541
0.000259691
0.000255728
0.000251565
0.000247228
0.000242778
0.000238188
0.00023347
0.000228727
0.000223975
0.000219102
0.000213945
0.000208405
0.000202451
0.00019608
0.000189339
0.000181589
0.000174117
0.000161057
0.00014811
0.00014623
0.000247481
0.000244125
0.000240584
0.000236865
0.000233019
0.000229023
0.000224875
0.000220655
0.000216395
0.000211993
0.000207289
0.000202179
0.000196634
0.00019062
0.000184167
0.000176813
0.000168789
0.000158801
0.0001403
0.00014188
0.000235754
0.000232917
0.000229926
0.000226759
0.000223455
0.000219999
0.000216375
0.000212638
0.00020884
0.000204883
0.000200613
0.000195925
0.000190784
0.000185148
0.000178983
0.000172062
0.000163894
0.000155105
0.000137925
0.000130173
0.000224488
0.000222107
0.000219617
0.000216938
0.000214113
0.000211146
0.000207997
0.000204705
0.000201333
0.000197798
0.000193944
0.000189669
0.000184926
0.000179672
0.000173832
0.000167285
0.000159439
0.000150716
0.000137254
0.000120706
0.000211724
0.000209646
0.000207398
0.000205003
0.000202472
0.000199758
0.000196877
0.000193903
0.00019076
0.000187302
0.000183423
0.000179073
0.000174202
0.000168724
0.000162523
0.000155206
0.000146472
0.000135861
0.000117343
0.000201747
0.00020002
0.000198153
0.000196141
0.000193996
0.000191673
0.000189171
0.00018656
0.000183783
0.000180697
0.000177202
0.000173238
0.000168751
0.000163659
0.000157827
0.00015105
0.000142695
0.000133424
0.000117984
0.000192152
0.000190732
0.000189217
0.000187543
0.000185744
0.000183773
0.000181618
0.000179338
0.000176895
0.000174161
0.000171029
0.00016744
0.000163333
0.000158635
0.000153212
0.000146942
0.000139271
0.000130628
0.000119143
0.000181815
0.000180586
0.00017921
0.000177718
0.000176064
0.000174224
0.000172253
0.000170121
0.000167711
0.000164923
0.000161696
0.000157966
0.000153663
0.000148675
0.000142903
0.000136002
0.000128012
0.000119186
0.000173249
0.000172259
0.000171149
0.000169925
0.000168552
0.000166999
0.00016531
0.000163464
0.000161357
0.000158895
0.000156015
0.000152655
0.000148749
0.000144207
0.000138944
0.000132776
0.000125648
0.000118276
0.000165015
0.000164234
0.000163367
0.000162379
0.000161254
0.000159963
0.000158532
0.000156946
0.000155117
0.00015296
0.000150411
0.000147411
0.000143899
0.000139803
0.000135061
0.000129568
0.000123372
0.000116988
0.000156534
0.000155865
0.000155083
0.00015418
0.000153121
0.000151926
0.000150579
0.000149007
0.000147133
0.000144897
0.000142242
0.000139115
0.000135456
0.000131229
0.000126375
0.000121042
0.000115569
0.000149147
0.000148638
0.000148038
0.000147328
0.000146477
0.000145496
0.000144368
0.00014303
0.000141419
0.000139477
0.000137152
0.000134395
0.000131161
0.00012743
0.000123178
0.000118606
0.000114005
0.000142051
0.000141681
0.00014125
0.000140706
0.000140039
0.000139251
0.000138322
0.0001372
0.000135828
0.000134158
0.000132142
0.000129738
0.000126909
0.000123649
0.000119958
0.000116045
0.000135017
0.000134719
0.000134321
0.000133815
0.000133198
0.000132451
0.000131524
0.000130372
0.000128952
0.000127223
0.000125148
0.000122699
0.000119875
0.000116701
0.000113353
0.000128626
0.000128437
0.000128169
0.000127805
0.000127336
0.000126752
0.000126004
0.000125053
0.000123862
0.000122397
0.000120626
0.000118527
0.000116105
0.000113391
0.000110548
0.000122486
0.000122402
0.000122247
0.000122005
0.00012167
0.000121229
0.000120641
0.00011987
0.000118888
0.000117664
0.000116171
0.000114393
0.000112336
0.000110033
0.000107628
0.000116607
0.000116612
0.000116553
0.000116417
0.0001162
0.000115887
0.000115437
0.000114825
0.00011403
0.000113024
0.000111784
0.000110296
0.000108566
0.000106626
0.000104598
0.000110981
0.000111052
0.000111082
0.000111038
0.000110925
0.000110724
0.000110397
0.000109925
0.000109295
0.000108483
0.000107468
0.000106237
0.000104796
0.000103174
0.000101469
0.000105733
0.000105834
0.000105868
0.000105844
0.00010574
0.000105521
0.000105174
0.00010469
0.000104048
0.000103229
0.000102223
0.000101033
9.96838e-05
9.8253e-05
0.000100643
0.000100798
0.0001009
0.000100951
0.00010093
0.000100807
0.000100571
0.000100215
9.97213e-05
9.90737e-05
9.82625e-05
9.72879e-05
9.61713e-05
9.49698e-05
9.57618e-05
9.59668e-05
9.61286e-05
9.62445e-05
9.6294e-05
9.62528e-05
9.61122e-05
9.58656e-05
9.54998e-05
9.5001e-05
9.43579e-05
9.35703e-05
9.26509e-05
9.16399e-05
9.10934e-05
9.13398e-05
9.15496e-05
9.17192e-05
9.18295e-05
9.18573e-05
9.17951e-05
9.16403e-05
9.1384e-05
9.10133e-05
9.05156e-05
8.98869e-05
8.91354e-05
8.82873e-05
8.66341e-05
8.69057e-05
8.71581e-05
8.73722e-05
8.75336e-05
8.76188e-05
8.76215e-05
8.75432e-05
8.73786e-05
8.71158e-05
8.67402e-05
8.62462e-05
8.56371e-05
8.49257e-05
8.26722e-05
8.29557e-05
8.32026e-05
8.34032e-05
8.35344e-05
8.35924e-05
8.3579e-05
8.34905e-05
8.3316e-05
8.30416e-05
8.26596e-05
8.21719e-05
8.15792e-05
7.86275e-05
7.89312e-05
7.92066e-05
7.94374e-05
7.96049e-05
7.97087e-05
7.97501e-05
7.9724e-05
7.9621e-05
7.94294e-05
7.91404e-05
7.87524e-05
7.47562e-05
7.50789e-05
7.53773e-05
7.56327e-05
7.58282e-05
7.59681e-05
7.60536e-05
7.60775e-05
7.60324e-05
7.59089e-05
7.56988e-05
7.53905e-05
7.10596e-05
7.13956e-05
7.17111e-05
7.19841e-05
7.22021e-05
7.23709e-05
7.24889e-05
7.25509e-05
7.25529e-05
7.24861e-05
7.23405e-05
7.21026e-05
6.75331e-05
6.78722e-05
6.8202e-05
6.84874e-05
6.87223e-05
6.89118e-05
6.9054e-05
6.91456e-05
6.91851e-05
6.9165e-05
6.90728e-05
6.88939e-05
6.45133e-05
6.48499e-05
6.51405e-05
6.53853e-05
6.55889e-05
6.57502e-05
6.58664e-05
6.59362e-05
6.59523e-05
6.59024e-05
6.57721e-05
6.13097e-05
6.16461e-05
6.19407e-05
6.21899e-05
6.2403e-05
6.25805e-05
6.27163e-05
6.2809e-05
6.28532e-05
6.28369e-05
6.27459e-05
5.82502e-05
5.85857e-05
5.88801e-05
5.91307e-05
5.93502e-05
5.95395e-05
5.96907e-05
5.98024e-05
5.98691e-05
5.98791e-05
5.98216e-05
5.5335e-05
5.56657e-05
5.59559e-05
5.62048e-05
5.64273e-05
5.66237e-05
5.6787e-05
5.6914e-05
5.69976e-05
5.70299e-05
5.70007e-05
5.2558e-05
5.2881e-05
5.3166e-05
5.3412e-05
5.36335e-05
5.38332e-05
5.40038e-05
5.41411e-05
5.42379e-05
5.42899e-05
5.42879e-05
4.9917e-05
5.02308e-05
5.05071e-05
5.07467e-05
5.09653e-05
5.11649e-05
5.13384e-05
5.14813e-05
5.15881e-05
5.1657e-05
4.74051e-05
4.77056e-05
4.79743e-05
4.82051e-05
4.84176e-05
4.86145e-05
4.87877e-05
4.8932e-05
4.90488e-05
4.91313e-05
4.53073e-05
4.55647e-05
4.57845e-05
4.59893e-05
4.61809e-05
4.63503e-05
4.64968e-05
4.66191e-05
4.67147e-05
4.30311e-05
4.32727e-05
4.34821e-05
4.3678e-05
4.3862e-05
4.40274e-05
4.41738e-05
4.43004e-05
4.44038e-05
4.08631e-05
4.1092e-05
4.1291e-05
4.14773e-05
4.16532e-05
4.1815e-05
4.19604e-05
4.20887e-05
4.21951e-05
3.87992e-05
3.9014e-05
3.92018e-05
3.93788e-05
3.95483e-05
3.97053e-05
3.98486e-05
3.99745e-05
4.00815e-05
3.68266e-05
3.70273e-05
3.72046e-05
3.73733e-05
3.75361e-05
3.76874e-05
3.78253e-05
3.79486e-05
3.80576e-05
3.49342e-05
3.51204e-05
3.52871e-05
3.54475e-05
3.56014e-05
3.57467e-05
3.58791e-05
3.60007e-05
3.31217e-05
3.32925e-05
3.3447e-05
3.35967e-05
3.37426e-05
3.38794e-05
3.40068e-05
3.41256e-05
3.13908e-05
3.15455e-05
3.16887e-05
3.18261e-05
3.19601e-05
3.2086e-05
3.22048e-05
3.23187e-05
2.98968e-05
3.00276e-05
3.01519e-05
3.02708e-05
3.03828e-05
3.04892e-05
3.05933e-05
2.83399e-05
2.84547e-05
2.85642e-05
2.86653e-05
2.87568e-05
2.88428e-05
2.89288e-05
2.69011e-05
2.7019e-05
2.71321e-05
2.72361e-05
2.7327e-05
2.74088e-05
2.74941e-05
2.56272e-05
2.57456e-05
2.5862e-05
2.59756e-05
2.60725e-05
2.61566e-05
2.62531e-05
2.45222e-05
2.46185e-05
2.4712e-05
2.48042e-05
2.48765e-05
2.4933e-05
2.35096e-05
2.35896e-05
2.36641e-05
2.37347e-05
2.37829e-05
2.38113e-05
2.2471e-05
2.25377e-05
2.25974e-05
2.26513e-05
2.26816e-05
2.26886e-05
2.14192e-05
2.14785e-05
2.15343e-05
2.15852e-05
2.16163e-05
2.16298e-05
2.03043e-05
2.03227e-05
2.03375e-05
2.03485e-05
2.03446e-05
2.0313e-05
1.93463e-05
1.93839e-05
1.94203e-05
1.94442e-05
1.94582e-05
1.94778e-05
1.78994e-05
1.78261e-05
1.77633e-05
1.76921e-05
1.75433e-05
1.77091e-05
1.7758e-05
1.77532e-05
1.77628e-05
1.78816e-05
1.52877e-05
1.51387e-05
1.50643e-05
1.49046e-05
1.44468e-05
1.79062e-05
1.80725e-05
1.80285e-05
1.80689e-05
1.71114e-05
1.72008e-05
1.73787e-05
1.75371e-05
2.24308e-05
2.29978e-05
2.25716e-05
2.19597e-05
)
;

boundaryField
{
    inlet
    {
        type            calculated;
        value           nonuniform List<scalar> 4(4.40854e-05 4.54414e-05 4.56582e-05 4.58278e-05);
    }
    outlet
    {
        type            calculated;
        value           nonuniform List<scalar> 0();
    }
    walls
    {
        type            calculated;
        value           uniform 0;
    }
    frontAndBack
    {
        type            empty;
    }
    procBoundary5to0
    {
        type            processor;
        value           nonuniform List<scalar> 4(0.000827609 0.000852064 0.000876212 0.000901476);
    }
    procBoundary5to1
    {
        type            processor;
        value           nonuniform List<scalar> 
13
(
0.00939674
0.00630677
0.00630677
0.00402602
0.00288604
0.00288604
0.0022177
0.00173585
0.00173585
0.00145113
0.00123836
0.00104913
0.00104913
)
;
    }
    procBoundary5to4
    {
        type            processor;
        value           nonuniform List<scalar> 
95
(
0.000800998
0.000771984
0.00074203
0.00074203
0.000656018
0.000631914
0.000631914
0.000565517
0.000546253
0.000546253
0.000494506
0.000494506
0.00045078
0.00045078
0.000424359
0.000390317
0.000390317
0.000360635
0.000360635
0.000341354
0.000317374
0.000317374
0.000301
0.000281285
0.000281285
0.000267184
0.000250721
0.000250721
0.000238436
0.000226697
0.000213696
0.000213696
0.000203335
0.00019342
0.000182952
0.000182952
0.000174121
0.000165672
0.000157122
0.000157122
0.000149555
0.000142315
0.000135254
0.000135254
0.000128738
0.000122504
0.000116544
0.000110846
0.000105597
0.000105597
0.000100444
9.55197e-05
9.08173e-05
8.63273e-05
8.2374e-05
8.2374e-05
7.83025e-05
7.44181e-05
7.07131e-05
6.71803e-05
6.41701e-05
6.41701e-05
6.09614e-05
5.79051e-05
5.49953e-05
5.22263e-05
4.95937e-05
4.70915e-05
4.50195e-05
4.50195e-05
4.27542e-05
4.06013e-05
3.85527e-05
3.65956e-05
3.47194e-05
3.29228e-05
3.12094e-05
2.97574e-05
2.97574e-05
2.82168e-05
2.67797e-05
2.55109e-05
2.44288e-05
2.3433e-05
2.24086e-05
2.137e-05
2.02967e-05
1.93248e-05
1.79709e-05
1.79709e-05
1.76646e-05
1.54255e-05
1.77644e-05
1.68982e-05
2.24139e-05
)
;
    }
    procBoundary5to6
    {
        type            processor;
        value           nonuniform List<scalar> 
86
(
0.856113
0.650021
0.550396
0.464816
0.395744
0.334317
0.276116
0.219266
0.164396
0.113868
0.0703456
0.0364625
0.0128294
0.00112531
0.00212871
0.000735979
0
0
0
2.65243e-06
4.3247e-06
1.76853e-05
6.26851e-05
0.000101393
0.00011994
0.000119601
0.00011292
0.00010898
0.000109358
0.000111209
0.00011224
0.000112072
0.000111126
0.00011222
0.00011222
0.000110155
0.00010785
0.000105344
0.000102661
9.98188e-05
9.68411e-05
9.37505e-05
9.05818e-05
8.73649e-05
8.4121e-05
8.08741e-05
7.82593e-05
7.82593e-05
7.49784e-05
7.17626e-05
6.86157e-05
6.55484e-05
6.25685e-05
5.96843e-05
5.69006e-05
5.42205e-05
5.16787e-05
5.16787e-05
4.91731e-05
4.67755e-05
4.44758e-05
4.22735e-05
4.01667e-05
3.81486e-05
3.61111e-05
3.61111e-05
3.4236e-05
3.2428e-05
3.06968e-05
2.90168e-05
2.75813e-05
2.6348e-05
2.50063e-05
2.50063e-05
2.38526e-05
2.27031e-05
2.16405e-05
2.02908e-05
1.94586e-05
1.74639e-05
1.78013e-05
1.43754e-05
1.86146e-05
1.86146e-05
1.72794e-05
2.49178e-05
)
;
    }
}


// ************************************************************************* //
