/*--------------------------------*- C++ -*----------------------------------*\
| =========                 |                                                 |
| \\      /  F ield         | OpenFOAM: The Open Source CFD Toolbox           |
|  \\    /   O peration     | Version:  2306                                  |
|   \\  /    A nd           | Website:  www.openfoam.com                      |
|    \\/     M anipulation  |                                                 |
\*---------------------------------------------------------------------------*/
FoamFile
{
    version     2.0;
    format      ascii;
    arch        "LSB;label=32;scalar=64";
    class       volVectorField;
    location    "975";
    object      momentError;
}
// * * * * * * * * * * * * * * * * * * * * * * * * * * * * * * * * * * * * * //

dimensions      [0 1 -2 0 0 0 0];

internalField   nonuniform List<vector> 
1340
(
(1.08154e-07 -6.17725e-07 6.04177e-16)
(8.70924e-08 -6.74611e-07 -1.95205e-15)
(1.81173e-07 -6.58274e-07 5.9428e-15)
(1.44697e-07 -6.94425e-07 7.89902e-16)
(9.64321e-08 -5.96709e-07 1.19894e-15)
(1.62216e-07 -6.63323e-07 2.7942e-15)
(2.29679e-07 -6.85566e-07 9.75797e-17)
(2.23774e-07 -6.31981e-07 6.32711e-16)
(1.93414e-07 -6.27993e-07 7.02407e-16)
(1.64314e-07 -6.80821e-07 -3.9252e-16)
(9.14473e-08 -7.18163e-07 -5.39262e-16)
(1.64862e-07 -6.74333e-07 3.05654e-15)
(3.47947e-07 -1.0945e-06 -1.32701e-15)
(2.95427e-07 -9.53384e-07 2.76906e-15)
(2.40679e-07 -8.25774e-07 8.46648e-18)
(2.08356e-07 -6.59585e-07 1.68361e-18)
(2.49558e-07 -6.29656e-07 1.20545e-15)
(2.19187e-07 -7.06938e-07 -4.17098e-15)
(1.75087e-07 -7.30107e-07 -2.20927e-15)
(1.19147e-07 -6.79062e-07 1.56422e-17)
(1.15817e-07 -6.72159e-07 -5.43762e-15)
(7.51301e-07 -1.61191e-06 2.16818e-16)
(6.52082e-07 -1.44508e-06 -2.65772e-16)
(5.72718e-07 -1.36513e-06 1.83281e-16)
(4.97011e-07 -1.30283e-06 1.12155e-15)
(4.13431e-07 -1.19141e-06 -4.12129e-16)
(3.35525e-07 -1.00257e-06 2.70045e-15)
(2.83362e-07 -8.82012e-07 -8.21307e-16)
(2.50012e-07 -8.0248e-07 -1.39444e-15)
(2.29204e-07 -7.62504e-07 -1.75778e-17)
(2.67071e-07 -6.92642e-07 -1.83122e-16)
(2.15376e-07 -6.68729e-07 2.71574e-15)
(1.72304e-07 -7.04659e-07 1.51725e-15)
(1.21789e-07 -6.82454e-07 3.03888e-18)
(1.00358e-07 -6.62329e-07 4.39401e-16)
(1.87713e-06 -1.58033e-06 -9.60057e-16)
(1.62159e-06 -1.65347e-06 2.21601e-16)
(1.35755e-06 -1.67185e-06 3.47353e-16)
(1.16063e-06 -1.69015e-06 1.11301e-15)
(9.64652e-07 -1.61925e-06 1.02628e-15)
(8.00742e-07 -1.4333e-06 -3.98597e-16)
(6.72594e-07 -1.288e-06 -6.26356e-16)
(5.81838e-07 -1.21852e-06 -5.6674e-16)
(4.96499e-07 -1.15243e-06 1.68754e-15)
(4.31438e-07 -1.12465e-06 -1.11343e-16)
(3.90632e-07 -1.11994e-06 -6.81548e-16)
(3.34786e-07 -9.83006e-07 8.58158e-16)
(2.86982e-07 -8.52347e-07 -6.31143e-16)
(2.5521e-07 -7.27188e-07 1.51701e-17)
(2.47154e-07 -6.80317e-07 -1.63044e-16)
(2.18038e-07 -6.72822e-07 6.20619e-16)
(1.74169e-07 -6.98728e-07 7.21119e-16)
(1.24521e-07 -6.68556e-07 2.62397e-17)
(8.2716e-08 -6.48105e-07 -2.31074e-16)
(4.11256e-06 -7.9951e-07 4.63403e-16)
(3.7727e-06 -9.32949e-07 8.07158e-16)
(3.45738e-06 -9.86907e-07 9.94068e-16)
(3.15938e-06 -1.00538e-06 -2.56756e-16)
(2.86805e-06 -9.86404e-07 7.71617e-16)
(2.61646e-06 -1.05411e-06 -7.49312e-16)
(2.31534e-06 -1.11673e-06 -2.2897e-15)
(2.02408e-06 -1.0662e-06 -1.15913e-15)
(1.71972e-06 -1.25379e-06 6.27323e-16)
(1.47285e-06 -1.32096e-06 1.01966e-16)
(1.24107e-06 -1.35805e-06 1.45314e-15)
(1.07184e-06 -1.43683e-06 -2.24408e-16)
(9.45083e-07 -1.53231e-06 -5.2147e-17)
(7.98973e-07 -1.42887e-06 8.048e-17)
(6.96403e-07 -1.35916e-06 -5.61818e-17)
(5.94318e-07 -1.29181e-06 -5.39949e-16)
(5.06479e-07 -1.17874e-06 1.07562e-15)
(4.19145e-07 -1.02066e-06 -9.69777e-16)
(3.5655e-07 -9.07779e-07 1.2337e-16)
(3.06938e-07 -8.07919e-07 1.72682e-15)
(2.72269e-07 -7.30337e-07 -3.73563e-17)
(2.50736e-07 -6.82698e-07 1.70588e-16)
(2.16659e-07 -6.61505e-07 -1.40742e-15)
(1.74016e-07 -6.8418e-07 -1.67632e-15)
(1.22228e-07 -6.53921e-07 -2.11107e-17)
(7.10487e-08 -6.30305e-07 6.30173e-16)
(6.70996e-06 2.45375e-06 -2.3941e-16)
(6.60097e-06 2.16734e-06 2.68111e-16)
(6.48329e-06 1.95606e-06 -1.10561e-16)
(6.3218e-06 1.7356e-06 -2.15841e-16)
(6.14258e-06 1.51442e-06 7.03259e-16)
(5.92663e-06 1.28168e-06 -5.63917e-16)
(5.69477e-06 1.04506e-06 9.91815e-17)
(5.43432e-06 8.00488e-07 6.16017e-16)
(5.16098e-06 5.63001e-07 -6.14678e-16)
(4.85886e-06 3.28096e-07 -1.85811e-15)
(4.6225e-06 6.0871e-08 3.37768e-17)
(4.37924e-06 -1.79754e-07 -3.54425e-16)
(3.87123e-06 -9.99952e-08 3.28142e-16)
(3.55603e-06 -2.73271e-07 3.45e-16)
(3.23469e-06 -4.10556e-07 -1.00426e-16)
(2.98504e-06 -4.47946e-07 -2.2343e-16)
(2.7144e-06 -5.24741e-07 7.12578e-16)
(2.50484e-06 -5.54849e-07 -2.74343e-16)
(2.33159e-06 -7.66432e-07 -4.00471e-16)
(2.26203e-06 -1.20257e-06 3.30263e-16)
(1.97183e-06 -1.29374e-06 -1.00442e-15)
(1.7043e-06 -1.39606e-06 6.39793e-16)
(1.45897e-06 -1.45587e-06 -3.79383e-16)
(1.23172e-06 -1.42012e-06 -5.21306e-16)
(9.95961e-07 -1.274e-06 2.87799e-16)
(8.54743e-07 -1.2e-06 2.0157e-16)
(7.41428e-07 -1.16347e-06 4.20729e-16)
(6.42852e-07 -1.11796e-06 -4.56518e-16)
(5.46489e-07 -1.06064e-06 -7.81179e-16)
(4.64603e-07 -9.78133e-07 2.68937e-16)
(3.91378e-07 -8.7682e-07 4.30351e-17)
(3.32193e-07 -7.85458e-07 -1.72225e-16)
(2.87728e-07 -7.11093e-07 1.24171e-17)
(2.5271e-07 -6.72767e-07 -1.38834e-16)
(2.14424e-07 -6.50961e-07 2.83384e-15)
(1.70955e-07 -6.67122e-07 -1.33357e-16)
(1.17884e-07 -6.34104e-07 2.68172e-16)
(6.15232e-08 -6.1072e-07 -9.54525e-17)
(3.31475e-05 -1.37048e-05 -7.58892e-17)
(3.46506e-05 -1.11556e-05 -2.39067e-17)
(3.47524e-05 -1.05904e-05 -2.76964e-18)
(3.43733e-05 -9.9078e-06 -2.61454e-17)
(3.35879e-05 -9.13944e-06 -1.17637e-17)
(3.2463e-05 -8.39297e-06 -8.8928e-18)
(3.11124e-05 -7.62178e-06 2.48382e-17)
(2.95872e-05 -6.85829e-06 6.72e-17)
(2.79812e-05 -6.06294e-06 -2.89407e-17)
(2.6307e-05 -5.27347e-06 -5.41056e-17)
(2.46517e-05 -4.49113e-06 2.53284e-17)
(2.30067e-05 -3.74368e-06 -5.02818e-17)
(2.14439e-05 -3.01508e-06 -6.09803e-17)
(1.99377e-05 -2.33161e-06 -5.36782e-17)
(1.85474e-05 -1.68111e-06 -1.081e-16)
(1.72341e-05 -1.06715e-06 -1.02427e-17)
(1.60494e-05 -4.94198e-07 -8.98226e-17)
(1.49443e-05 3.38395e-08 -5.33862e-17)
(1.3967e-05 5.12302e-07 -1.20516e-16)
(1.3061e-05 9.58384e-07 -1.00084e-17)
(1.22744e-05 1.36529e-06 1.40505e-16)
(1.15445e-05 1.7298e-06 1.41573e-16)
(1.09203e-05 2.04101e-06 -8.45728e-17)
(1.03375e-05 2.32703e-06 5.85497e-17)
(9.84808e-06 2.58337e-06 1.26186e-16)
(9.38423e-06 2.80369e-06 1.14901e-17)
(8.99972e-06 2.97759e-06 -1.07145e-16)
(8.62858e-06 3.12891e-06 -7.39742e-18)
(8.32743e-06 3.26874e-06 2.56448e-17)
(8.03293e-06 3.38925e-06 -1.19007e-17)
(7.79813e-06 3.47323e-06 -9.52144e-17)
(7.56887e-06 3.54537e-06 8.12986e-17)
(7.39406e-06 3.60843e-06 -2.40956e-16)
(7.21866e-06 3.62146e-06 -9.33839e-17)
(7.09173e-06 3.63489e-06 1.70034e-16)
(6.96759e-06 3.62097e-06 3.12994e-17)
(6.87692e-06 3.59417e-06 2.10376e-17)
(6.78883e-06 3.53682e-06 -3.25513e-17)
(6.71367e-06 3.47308e-06 4.52523e-17)
(6.64902e-06 3.41584e-06 2.55538e-16)
(6.51451e-06 3.31917e-06 -9.47032e-17)
(6.68355e-06 3.27829e-06 2.14511e-18)
(7.0501e-06 3.05635e-06 1.8147e-17)
(6.29322e-06 2.93719e-06 -1.50997e-16)
(6.01586e-06 2.69759e-06 7.08088e-16)
(5.82966e-06 2.52571e-06 1.44935e-17)
(5.61968e-06 2.33905e-06 -6.57195e-16)
(5.42834e-06 2.13661e-06 5.98735e-16)
(5.20792e-06 1.91897e-06 3.82693e-16)
(5.00809e-06 1.69666e-06 -7.985e-17)
(4.77401e-06 1.46083e-06 9.91143e-18)
(4.56068e-06 1.2237e-06 -6.37458e-16)
(4.31455e-06 9.90335e-07 -1.0041e-15)
(4.04538e-06 7.69472e-07 -6.10041e-17)
(3.98198e-06 4.47345e-07 -2.14372e-16)
(4.15499e-06 -1.28261e-07 3.17205e-16)
(3.8499e-06 -3.01876e-07 -7.38465e-17)
(3.54676e-06 -4.46321e-07 -1.43816e-15)
(3.24591e-06 -5.60646e-07 -4.97837e-17)
(3.00395e-06 -6.16346e-07 4.51482e-16)
(2.72688e-06 -7.08166e-07 2.13327e-16)
(2.50225e-06 -7.52938e-07 5.01242e-16)
(2.19889e-06 -7.63297e-07 4.15956e-16)
(1.98506e-06 -8.83462e-07 6.61477e-16)
(1.7504e-06 -1.00007e-06 1.12117e-15)
(1.51378e-06 -1.09025e-06 2.59624e-17)
(1.28721e-06 -1.12455e-06 1.34366e-16)
(1.08149e-06 -1.12078e-06 -1.80602e-16)
(9.28242e-07 -1.07046e-06 -1.64914e-16)
(8.16592e-07 -1.05335e-06 8.4291e-16)
(7.10791e-07 -1.03581e-06 -6.83903e-16)
(6.04216e-07 -9.81016e-07 -4.3027e-17)
(5.05164e-07 -9.0468e-07 -5.80651e-16)
(4.2097e-07 -8.22469e-07 7.62726e-16)
(3.53954e-07 -7.48635e-07 -3.18059e-16)
(3.0045e-07 -6.90932e-07 4.23992e-17)
(2.53966e-07 -6.55346e-07 8.82583e-17)
(2.10615e-07 -6.31821e-07 -1.91253e-15)
(1.65209e-07 -6.48235e-07 7.61452e-16)
(1.11071e-07 -6.1404e-07 1.7998e-16)
(5.43976e-08 -5.89508e-07 6.72517e-18)
(1.29532e-05 -6.11349e-06 -1.36773e-17)
(1.66948e-05 -5.11707e-06 -9.71951e-18)
(1.90627e-05 -4.90972e-06 8.61459e-18)
(2.08565e-05 -4.57998e-06 -1.06456e-18)
(2.21119e-05 -4.27852e-06 -1.19099e-17)
(2.28669e-05 -3.95849e-06 3.78998e-17)
(2.32132e-05 -3.61425e-06 1.29753e-17)
(2.32004e-05 -3.23805e-06 -1.01015e-17)
(2.29061e-05 -2.85106e-06 3.17882e-17)
(2.23702e-05 -2.43586e-06 -4.03383e-18)
(2.16657e-05 -2.02313e-06 3.44896e-17)
(2.0822e-05 -1.58624e-06 5.5203e-17)
(1.99006e-05 -1.15673e-06 -3.68516e-17)
(1.89193e-05 -7.08769e-07 4.63712e-17)
(1.79264e-05 -2.82915e-07 -2.80629e-17)
(1.69284e-05 1.59173e-07 -9.07739e-17)
(1.59624e-05 5.74134e-07 -6.60378e-18)
(1.50246e-05 9.92061e-07 2.18897e-17)
(1.41445e-05 1.36672e-06 1.85419e-17)
(1.33078e-05 1.73995e-06 -2.34396e-17)
(1.25405e-05 2.07678e-06 -1.04073e-17)
(1.18219e-05 2.40828e-06 -3.38867e-18)
(1.11731e-05 2.68611e-06 -2.54929e-17)
(1.05683e-05 2.95158e-06 -4.1742e-17)
(1.00296e-05 3.17915e-06 1.26981e-17)
(9.5287e-06 3.39632e-06 5.61215e-17)
(9.08446e-06 3.55493e-06 -4.90649e-17)
(8.66605e-06 3.6953e-06 4.72291e-17)
(8.29574e-06 3.79861e-06 -2.22808e-17)
(7.94543e-06 3.8954e-06 4.61952e-17)
(7.6353e-06 3.93285e-06 -1.09869e-16)
(7.33415e-06 3.96246e-06 -1.16781e-16)
(7.06899e-06 3.96508e-06 -8.71481e-18)
(6.8114e-06 3.95927e-06 -1.98043e-16)
(6.57763e-06 3.8891e-06 -2.37219e-17)
(6.35378e-06 3.83511e-06 8.08301e-17)
(6.14887e-06 3.74585e-06 3.98052e-17)
(5.95296e-06 3.67706e-06 3.12096e-17)
(5.77367e-06 3.58128e-06 6.15685e-17)
(5.60981e-06 3.50052e-06 1.89223e-16)
(5.44922e-06 3.42173e-06 -1.58071e-17)
(5.17478e-06 3.32783e-06 -1.31151e-16)
(5.35133e-06 3.35115e-06 1.17846e-16)
(6.32457e-06 3.17214e-06 -2.65771e-16)
(6.16845e-06 2.95174e-06 -4.51899e-16)
(5.97305e-06 2.69223e-06 2.55262e-17)
(5.77506e-06 2.43043e-06 1.98754e-16)
(5.58095e-06 2.17373e-06 -2.89518e-16)
(5.37775e-06 1.91089e-06 2.64896e-16)
(5.17914e-06 1.65302e-06 1.16688e-16)
(4.96651e-06 1.39724e-06 2.15968e-16)
(4.75877e-06 1.148e-06 4.9792e-16)
(4.53041e-06 9.08406e-07 5.40854e-16)
(4.29056e-06 6.88861e-07 -2.29364e-17)
(3.96277e-06 5.04707e-07 -4.91986e-17)
(3.571e-06 4.25615e-07 1.6645e-16)
(3.35353e-06 2.39413e-07 1.84738e-16)
(3.16047e-06 7.43344e-08 1.12637e-15)
(2.94195e-06 -6.00705e-08 1.56582e-17)
(2.75726e-06 -1.79504e-07 -1.05767e-15)
(2.56568e-06 -2.76307e-07 1.09738e-16)
(2.38504e-06 -4.06972e-07 -5.13535e-16)
(2.21373e-06 -5.37989e-07 -2.63678e-16)
(2.00885e-06 -6.508e-07 9.39446e-19)
(1.79612e-06 -7.6166e-07 -9.20628e-16)
(1.5809e-06 -8.65201e-07 1.03939e-16)
(1.35391e-06 -9.21257e-07 5.71388e-17)
(1.15665e-06 -9.13426e-07 -1.02324e-17)
(9.95468e-07 -9.14791e-07 1.32811e-16)
(8.90552e-07 -9.23027e-07 -4.40646e-16)
(7.68946e-07 -9.08434e-07 2.13085e-16)
(6.5519e-07 -8.73669e-07 1.085e-16)
(5.43901e-07 -8.21148e-07 4.22952e-17)
(4.47178e-07 -7.61027e-07 -1.82659e-15)
(3.72246e-07 -7.04206e-07 -5.39292e-16)
(3.09062e-07 -6.55681e-07 -1.50449e-17)
(2.54116e-07 -6.31424e-07 3.64595e-17)
(2.05134e-07 -6.12942e-07 -1.43926e-15)
(1.58424e-07 -6.26274e-07 4.97133e-16)
(1.0342e-07 -5.90903e-07 -4.05482e-16)
(4.89809e-08 -5.68005e-07 1.07391e-17)
(-5.72543e-06 5.66939e-06 -1.24919e-17)
(-1.69694e-06 5.59087e-06 -5.1069e-18)
(2.10554e-06 4.77404e-06 1.23589e-17)
(5.34661e-06 4.25067e-06 8.18477e-18)
(8.08897e-06 3.77731e-06 -3.79434e-18)
(1.03478e-05 3.38632e-06 -3.65687e-18)
(1.21448e-05 3.06229e-06 1.39251e-17)
(1.35249e-05 2.80781e-06 -1.00189e-17)
(1.45147e-05 2.61469e-06 -3.1336e-18)
(1.5171e-05 2.47012e-06 1.54859e-17)
(1.55262e-05 2.36149e-06 -1.8975e-18)
(1.56383e-05 2.30397e-06 2.28283e-17)
(1.55375e-05 2.28766e-06 2.06496e-17)
(1.5279e-05 2.31196e-06 -1.27979e-17)
(1.48847e-05 2.36182e-06 3.66104e-17)
(1.44043e-05 2.44645e-06 -1.04073e-17)
(1.38504e-05 2.55147e-06 -2.52494e-17)
(1.32654e-05 2.68344e-06 3.1204e-17)
(1.26528e-05 2.82587e-06 1.58713e-17)
(1.20465e-05 2.98584e-06 2.34957e-18)
(1.14429e-05 3.14805e-06 -9.73893e-18)
(1.08704e-05 3.32453e-06 -6.92466e-17)
(1.03183e-05 3.49902e-06 3.68128e-18)
(9.80954e-06 3.67788e-06 -3.64918e-17)
(9.32911e-06 3.84145e-06 -1.08958e-17)
(8.89735e-06 4.00992e-06 1.85239e-17)
(8.49573e-06 4.16637e-06 3.52093e-17)
(8.13963e-06 4.31327e-06 3.40935e-18)
(7.80986e-06 4.42452e-06 8.41977e-18)
(7.52146e-06 4.52844e-06 -1.09539e-17)
(7.25478e-06 4.61346e-06 2.80933e-17)
(7.01948e-06 4.67231e-06 -5.90509e-17)
(6.79821e-06 4.68096e-06 -1.40992e-17)
(6.60302e-06 4.68898e-06 3.87772e-17)
(6.41627e-06 4.64554e-06 -1.15763e-16)
(6.23849e-06 4.5775e-06 -6.01311e-17)
(6.0671e-06 4.473e-06 2.07932e-17)
(5.8993e-06 4.35005e-06 -1.70292e-17)
(5.74055e-06 4.18076e-06 -3.3327e-17)
(5.58839e-06 4.00949e-06 -5.14316e-17)
(5.43766e-06 3.823e-06 3.91575e-17)
(5.22967e-06 3.63245e-06 -4.01231e-17)
(4.92301e-06 3.42157e-06 -1.14841e-16)
(4.38574e-06 3.21993e-06 4.64847e-17)
(4.29713e-06 3.00586e-06 -2.38342e-16)
(4.21303e-06 2.78484e-06 3.17725e-19)
(4.13911e-06 2.56269e-06 1.4744e-17)
(4.05729e-06 2.34445e-06 1.70964e-16)
(3.98284e-06 2.1256e-06 -3.33611e-16)
(3.89452e-06 1.90963e-06 1.43859e-19)
(3.81024e-06 1.69542e-06 3.58325e-16)
(3.70743e-06 1.47978e-06 -1.18636e-16)
(3.60661e-06 1.26922e-06 4.96313e-16)
(3.46568e-06 1.06073e-06 2.98446e-17)
(3.3504e-06 8.49618e-07 -6.52451e-17)
(3.23954e-06 6.32932e-07 -6.43331e-17)
(3.09862e-06 4.60888e-07 -4.20676e-18)
(2.93537e-06 2.95321e-07 -6.34334e-16)
(2.78072e-06 1.5133e-07 2.19446e-16)
(2.61679e-06 2.02511e-08 6.07056e-16)
(2.45944e-06 -9.4112e-08 -1.34387e-16)
(2.29843e-06 -2.05654e-07 1.0079e-15)
(2.13326e-06 -3.11059e-07 1.48844e-17)
(1.96516e-06 -4.11282e-07 -1.84765e-16)
(1.78958e-06 -5.32138e-07 -2.21795e-16)
(1.59591e-06 -6.25955e-07 -2.70729e-16)
(1.39803e-06 -6.90453e-07 5.21064e-16)
(1.20136e-06 -7.36069e-07 1.23186e-16)
(1.06085e-06 -7.461e-07 2.62856e-16)
(9.3366e-07 -7.73199e-07 -4.81885e-16)
(8.16493e-07 -7.74775e-07 1.51512e-16)
(6.88709e-07 -7.56831e-07 -1.12311e-16)
(5.69018e-07 -7.19915e-07 -1.171e-15)
(4.70334e-07 -6.84941e-07 -3.83444e-16)
(3.86645e-07 -6.5099e-07 1.39203e-16)
(3.15947e-07 -6.1897e-07 9.83186e-18)
(2.51827e-07 -6.00216e-07 1.81975e-16)
(1.99093e-07 -5.85522e-07 2.68096e-16)
(1.52349e-07 -6.03024e-07 -8.99735e-16)
(9.64954e-08 -5.68342e-07 -2.02938e-16)
(4.48229e-08 -5.45831e-07 -5.13723e-16)
(-2.14672e-05 1.64865e-05 6.81339e-18)
(-1.82976e-05 1.69431e-05 -2.02389e-18)
(-1.42355e-05 1.57975e-05 -9.00856e-18)
(-1.04589e-05 1.4739e-05 -2.63984e-18)
(-6.95775e-06 1.36655e-05 5.94454e-18)
(-3.78574e-06 1.26561e-05 -2.58432e-19)
(-9.67208e-07 1.17005e-05 -4.50325e-18)
(1.48511e-06 1.08279e-05 1.85888e-18)
(3.57358e-06 1.00399e-05 -2.01581e-17)
(5.30965e-06 9.32711e-06 -1.31693e-17)
(6.71323e-06 8.67815e-06 -1.0165e-17)
(7.81012e-06 8.09674e-06 -1.96626e-18)
(8.629e-06 7.58391e-06 2.68124e-17)
(9.20319e-06 7.12867e-06 -7.72909e-18)
(9.56292e-06 6.72174e-06 -3.10193e-17)
(9.74209e-06 6.36312e-06 1.478e-17)
(9.76872e-06 6.04943e-06 -1.0022e-17)
(9.67378e-06 5.77861e-06 -4.74049e-17)
(9.48036e-06 5.54262e-06 -6.82354e-18)
(9.21421e-06 5.34393e-06 -5.62896e-19)
(8.89283e-06 5.17499e-06 4.05251e-17)
(8.53671e-06 5.03874e-06 5.26123e-17)
(8.15742e-06 4.92377e-06 5.02294e-18)
(7.77103e-06 4.83757e-06 1.90138e-17)
(7.38383e-06 4.76532e-06 -3.24961e-19)
(7.00682e-06 4.71414e-06 3.36087e-17)
(6.64284e-06 4.67037e-06 -1.4956e-17)
(6.30002e-06 4.64455e-06 -3.48632e-18)
(5.9771e-06 4.61367e-06 -2.17749e-18)
(5.6783e-06 4.59068e-06 7.36817e-18)
(5.40221e-06 4.55859e-06 -2.85172e-18)
(5.1525e-06 4.54025e-06 2.88837e-17)
(4.92316e-06 4.49802e-06 -3.88612e-19)
(4.71509e-06 4.44751e-06 8.23125e-19)
(4.52837e-06 4.4004e-06 2.12033e-17)
(4.35957e-06 4.34938e-06 7.08655e-17)
(4.2075e-06 4.26053e-06 -4.42136e-17)
(4.07021e-06 4.16144e-06 -2.93838e-18)
(3.94917e-06 4.03324e-06 4.89765e-17)
(3.84266e-06 3.88403e-06 4.60823e-18)
(3.74963e-06 3.70757e-06 -8.50581e-17)
(3.6247e-06 3.52157e-06 3.69076e-17)
(3.55724e-06 3.32841e-06 7.77286e-17)
(3.58639e-06 3.14114e-06 2.01301e-16)
(3.55414e-06 2.92928e-06 2.1184e-16)
(3.5158e-06 2.71851e-06 4.92788e-17)
(3.48103e-06 2.50632e-06 -7.55814e-18)
(3.44288e-06 2.30276e-06 -1.04034e-16)
(3.40538e-06 2.09986e-06 1.19912e-16)
(3.36161e-06 1.90437e-06 -5.44698e-17)
(3.31428e-06 1.71188e-06 -2.77361e-16)
(3.25756e-06 1.52356e-06 -1.76934e-16)
(3.19251e-06 1.3382e-06 -7.99191e-17)
(3.1021e-06 1.15753e-06 -4.79421e-17)
(3.00155e-06 9.79691e-07 4.23707e-17)
(2.89914e-06 8.12165e-07 -4.06183e-16)
(2.7951e-06 6.498e-07 -1.92448e-16)
(2.68252e-06 4.94694e-07 -2.25971e-16)
(2.55999e-06 3.53672e-07 -5.5279e-16)
(2.43461e-06 2.20081e-07 1.25388e-16)
(2.30185e-06 1.00929e-07 -1.40617e-16)
(2.16831e-06 -1.45378e-08 -5.43823e-16)
(2.03355e-06 -1.18302e-07 5.71101e-16)
(1.89109e-06 -2.26971e-07 7.14524e-16)
(1.7437e-06 -3.20382e-07 -1.12852e-16)
(1.56895e-06 -4.18725e-07 -3.32984e-16)
(1.40026e-06 -4.89306e-07 -7.97746e-18)
(1.21772e-06 -5.43684e-07 -6.46352e-17)
(1.07286e-06 -5.84479e-07 1.59065e-16)
(9.5779e-07 -6.16483e-07 1.27655e-16)
(8.31698e-07 -6.31872e-07 1.04693e-16)
(7.07349e-07 -6.20805e-07 3.01819e-16)
(5.93858e-07 -6.17085e-07 5.75301e-16)
(4.95548e-07 -6.05172e-07 2.44252e-16)
(4.04594e-07 -5.86379e-07 5.51216e-17)
(3.22871e-07 -5.65629e-07 -1.39369e-16)
(2.54994e-07 -5.61742e-07 -9.72111e-16)
(1.97657e-07 -5.5947e-07 4.2628e-16)
(1.48233e-07 -5.76205e-07 4.60118e-16)
(9.09548e-08 -5.41561e-07 6.12582e-16)
(4.10809e-08 -5.23049e-07 1.88946e-15)
(-3.06211e-05 2.60098e-05 4.92352e-19)
(-2.94239e-05 2.63095e-05 1.82257e-18)
(-2.64545e-05 2.45766e-05 6.03166e-18)
(-2.33537e-05 2.30486e-05 1.81879e-18)
(-2.0192e-05 2.1537e-05 -3.24239e-18)
(-1.70639e-05 2.01201e-05 -1.44196e-18)
(-1.40485e-05 1.87782e-05 -2.46266e-19)
(-1.12043e-05 1.75205e-05 -6.65906e-20)
(-8.57376e-06 1.63397e-05 3.04068e-20)
(-6.18476e-06 1.52497e-05 -8.03747e-18)
(-4.05542e-06 1.42429e-05 9.68418e-18)
(-2.18882e-06 1.33096e-05 -7.07692e-18)
(-5.84233e-07 1.24452e-05 -1.72594e-17)
(7.71472e-07 1.16555e-05 -1.03235e-17)
(1.89066e-06 1.09332e-05 -3.77209e-18)
(2.79499e-06 1.0269e-05 3.27427e-18)
(3.50264e-06 9.65619e-06 1.41378e-18)
(4.03916e-06 9.0967e-06 -1.21919e-17)
(4.42377e-06 8.58419e-06 -1.80754e-17)
(4.68157e-06 8.11309e-06 -4.89517e-18)
(4.83e-06 7.68014e-06 3.11613e-18)
(4.89225e-06 7.28411e-06 1.95867e-17)
(4.882e-06 6.91954e-06 -2.73346e-17)
(4.81931e-06 6.58678e-06 6.02816e-18)
(4.71383e-06 6.284e-06 -2.2357e-17)
(4.58177e-06 6.0127e-06 1.23659e-17)
(4.42918e-06 5.76515e-06 3.37534e-17)
(4.26886e-06 5.5452e-06 -2.59935e-17)
(4.10306e-06 5.34787e-06 -4.72186e-17)
(3.94116e-06 5.17469e-06 -1.33377e-17)
(3.7834e-06 5.0162e-06 9.92064e-17)
(3.63679e-06 4.87429e-06 6.59201e-17)
(3.5003e-06 4.74431e-06 5.49405e-17)
(3.37652e-06 4.62444e-06 -4.9315e-19)
(3.26421e-06 4.48449e-06 -5.80113e-17)
(3.16794e-06 4.35209e-06 -6.42551e-17)
(3.08324e-06 4.20411e-06 4.87757e-17)
(3.00867e-06 4.04768e-06 -2.02058e-17)
(2.94565e-06 3.86985e-06 -6.40208e-17)
(2.8968e-06 3.69131e-06 4.97859e-17)
(2.85494e-06 3.48758e-06 -1.32364e-17)
(2.79101e-06 3.27786e-06 2.98619e-19)
(2.7429e-06 3.07789e-06 -3.83451e-17)
(2.71695e-06 2.88728e-06 3.2362e-18)
(2.7142e-06 2.6885e-06 -1.72667e-16)
(2.71027e-06 2.5024e-06 -1.14767e-16)
(2.70831e-06 2.3176e-06 -2.42462e-17)
(2.7022e-06 2.14302e-06 -2.30156e-16)
(2.69505e-06 1.96889e-06 -1.81431e-16)
(2.68034e-06 1.80528e-06 -5.94147e-17)
(2.66094e-06 1.64382e-06 -1.63983e-16)
(2.63115e-06 1.48871e-06 1.18346e-16)
(2.59503e-06 1.33463e-06 -3.20083e-16)
(2.53838e-06 1.18454e-06 -4.52488e-17)
(2.47669e-06 1.03293e-06 2.14039e-16)
(2.41299e-06 8.85196e-07 4.19957e-17)
(2.33985e-06 7.4501e-07 -1.03336e-16)
(2.25691e-06 6.06808e-07 9.20894e-16)
(2.16676e-06 4.77849e-07 5.36292e-17)
(2.07184e-06 3.52742e-07 -7.88563e-16)
(1.96988e-06 2.37167e-07 1.93106e-16)
(1.86486e-06 1.26754e-07 -6.62626e-16)
(1.75693e-06 2.47861e-08 -3.64857e-17)
(1.64705e-06 -6.66057e-08 8.00439e-17)
(1.52189e-06 -1.60215e-07 -1.72251e-15)
(1.39621e-06 -2.36415e-07 4.28746e-17)
(1.24509e-06 -3.07669e-07 7.87269e-17)
(1.10826e-06 -3.71348e-07 -2.46901e-16)
(9.81678e-07 -4.23186e-07 3.22968e-16)
(8.76598e-07 -4.603e-07 -2.28349e-17)
(7.71162e-07 -4.78185e-07 1.06674e-16)
(6.65422e-07 -4.97244e-07 -7.12147e-16)
(5.7227e-07 -5.02752e-07 -6.83217e-16)
(4.75845e-07 -5.06425e-07 6.13202e-17)
(3.92777e-07 -5.01926e-07 -5.03104e-17)
(3.13052e-07 -5.01407e-07 1.24005e-16)
(2.50314e-07 -5.07731e-07 -6.68404e-16)
(1.89846e-07 -5.12279e-07 8.53179e-17)
(1.37919e-07 -5.37932e-07 -6.87664e-16)
(7.99949e-08 -5.05966e-07 -8.15958e-17)
(3.40183e-08 -4.92283e-07 1.4542e-15)
(-2.74917e-05 2.52458e-05 2.71328e-18)
(-2.88866e-05 2.56704e-05 4.04511e-18)
(-2.83093e-05 2.44019e-05 -1.01343e-18)
(-2.72126e-05 2.3232e-05 1.98565e-18)
(-2.57105e-05 2.21009e-05 1.75269e-18)
(-2.38986e-05 2.09975e-05 -1.57959e-17)
(-2.18798e-05 1.99261e-05 -9.37349e-18)
(-1.97379e-05 1.88716e-05 -3.43138e-18)
(-1.75483e-05 1.78398e-05 -1.05409e-18)
(-1.53784e-05 1.68361e-05 4.02977e-18)
(-1.32756e-05 1.58682e-05 -9.10994e-18)
(-1.1282e-05 1.49307e-05 1.24143e-17)
(-9.4262e-06 1.403e-05 2.1375e-18)
(-7.72796e-06 1.31633e-05 7.63858e-18)
(-6.19718e-06 1.23404e-05 1.90276e-17)
(-4.83846e-06 1.15564e-05 1.71568e-17)
(-3.64856e-06 1.08143e-05 1.49338e-17)
(-2.62255e-06 1.01108e-05 5.83708e-18)
(-1.74849e-06 9.45306e-06 2.6089e-17)
(-1.01582e-06 8.834e-06 -1.29568e-17)
(-4.09685e-07 8.25608e-06 -3.83753e-17)
(8.32316e-08 7.7158e-06 -8.38639e-18)
(4.77698e-07 7.21309e-06 -2.42052e-18)
(7.8736e-07 6.74759e-06 -1.11156e-17)
(1.02527e-06 6.31517e-06 -8.53562e-18)
(1.20361e-06 5.91646e-06 -2.84738e-17)
(1.33313e-06 5.54904e-06 -5.44049e-18)
(1.42396e-06 5.21493e-06 -1.47119e-18)
(1.48427e-06 4.90837e-06 3.04874e-17)
(1.52268e-06 4.63126e-06 -9.33999e-18)
(1.54416e-06 4.37892e-06 1.04556e-17)
(1.55618e-06 4.156e-06 3.1829e-17)
(1.5613e-06 3.95207e-06 2.6189e-17)
(1.5656e-06 3.76986e-06 6.96778e-17)
(1.56972e-06 3.60549e-06 5.22293e-18)
(1.57626e-06 3.45944e-06 -4.58965e-17)
(1.58485e-06 3.3251e-06 -6.5452e-17)
(1.59605e-06 3.1965e-06 2.12999e-17)
(1.60936e-06 3.05472e-06 5.94641e-17)
(1.62726e-06 2.9121e-06 -3.57479e-17)
(1.64498e-06 2.76336e-06 6.22365e-17)
(1.64906e-06 2.60968e-06 -1.07358e-17)
(1.65778e-06 2.44548e-06 2.2981e-17)
(1.67912e-06 2.29269e-06 -1.2902e-16)
(1.69633e-06 2.13992e-06 -3.72187e-17)
(1.70893e-06 2.00135e-06 3.37692e-17)
(1.71954e-06 1.86586e-06 -4.37016e-17)
(1.72575e-06 1.74142e-06 -4.89909e-17)
(1.72984e-06 1.61807e-06 7.65287e-17)
(1.72849e-06 1.50282e-06 3.90734e-18)
(1.72491e-06 1.39058e-06 1.43047e-16)
(1.71561e-06 1.27923e-06 2.39302e-16)
(1.70397e-06 1.16652e-06 2.83631e-17)
(1.68166e-06 1.05337e-06 7.12398e-17)
(1.65619e-06 9.36369e-07 1.27021e-17)
(1.62899e-06 8.19184e-07 1.92177e-16)
(1.5966e-06 7.04316e-07 4.33549e-17)
(1.55827e-06 5.90518e-07 -3.20725e-16)
(1.51326e-06 4.80172e-07 3.08777e-16)
(1.46402e-06 3.73847e-07 8.1251e-17)
(1.4063e-06 2.73226e-07 -5.96107e-17)
(1.34608e-06 1.78107e-07 4.76694e-16)
(1.27863e-06 9.07196e-08 -1.44164e-16)
(1.20914e-06 9.62821e-09 -1.21551e-16)
(1.13197e-06 -6.0636e-08 8.46011e-16)
(1.04552e-06 -1.24863e-07 -6.35405e-17)
(9.56894e-07 -1.84464e-07 -3.78664e-16)
(8.56433e-07 -2.47449e-07 -3.6242e-18)
(7.7721e-07 -2.95773e-07 -1.35285e-16)
(7.05136e-07 -3.35611e-07 -3.55639e-17)
(6.3274e-07 -3.66441e-07 -8.64119e-17)
(5.60063e-07 -3.84417e-07 4.53648e-16)
(4.86387e-07 -4.04547e-07 4.74123e-16)
(4.18119e-07 -4.16146e-07 2.05257e-16)
(3.49122e-07 -4.24658e-07 1.70744e-16)
(2.87834e-07 -4.31611e-07 -1.19521e-16)
(2.3149e-07 -4.51014e-07 7.25558e-16)
(1.77887e-07 -4.63037e-07 1.00231e-17)
(1.27639e-07 -4.93063e-07 8.06742e-16)
(7.05274e-08 -4.62301e-07 -4.10169e-16)
(3.01923e-08 -4.6176e-07 -2.34434e-15)
(-1.18986e-05 2.29224e-05 9.35518e-18)
(-1.53252e-05 2.31243e-05 -3.3563e-18)
(-1.75817e-05 2.18099e-05 -4.58598e-18)
(-1.92074e-05 2.05952e-05 7.12249e-19)
(-2.02753e-05 1.94869e-05 5.52536e-18)
(-2.08252e-05 1.84435e-05 7.54803e-18)
(-2.09118e-05 1.74657e-05 -4.12602e-18)
(-2.06013e-05 1.65375e-05 4.11813e-19)
(-1.99575e-05 1.56554e-05 9.21807e-18)
(-1.90531e-05 1.48123e-05 5.18913e-18)
(-1.79465e-05 1.40052e-05 -4.46879e-18)
(-1.67006e-05 1.32291e-05 -9.47269e-18)
(-1.53672e-05 1.24833e-05 5.92783e-19)
(-1.39944e-05 1.17708e-05 5.10054e-20)
(-1.26182e-05 1.10879e-05 -8.32059e-19)
(-1.12745e-05 1.04379e-05 1.69118e-18)
(-9.9847e-06 9.81516e-06 1.15565e-17)
(-8.76835e-06 9.22571e-06 5.93165e-18)
(-7.63811e-06 8.66726e-06 -1.27157e-17)
(-6.60029e-06 8.13942e-06 2.07711e-17)
(-5.66017e-06 7.63932e-06 1.41287e-17)
(-4.81556e-06 7.17021e-06 -5.88085e-18)
(-4.06433e-06 6.72751e-06 1.40583e-18)
(-3.40154e-06 6.31419e-06 1.58439e-17)
(-2.82217e-06 5.92403e-06 1.45153e-17)
(-2.31753e-06 5.55972e-06 1.71252e-17)
(-1.88198e-06 5.21846e-06 -1.37103e-17)
(-1.50595e-06 4.90073e-06 -3.20859e-19)
(-1.18423e-06 4.60377e-06 1.86097e-17)
(-9.07766e-07 4.32831e-06 4.01048e-18)
(-6.71907e-07 4.07046e-06 -2.61518e-17)
(-4.68028e-07 3.83412e-06 -1.37061e-17)
(-2.92457e-07 3.61534e-06 -6.89177e-18)
(-1.38153e-07 3.41468e-06 2.14531e-17)
(-3.20372e-09 3.22737e-06 4.21315e-17)
(1.1917e-07 3.06027e-06 4.28882e-17)
(2.28859e-07 2.90786e-06 3.06001e-17)
(3.3225e-07 2.7731e-06 -2.08061e-17)
(4.28763e-07 2.64691e-06 -6.5346e-17)
(5.23081e-07 2.53228e-06 2.87858e-17)
(6.09864e-07 2.42024e-06 7.80776e-18)
(6.82986e-07 2.31391e-06 2.60391e-17)
(7.56808e-07 2.20795e-06 -5.20092e-17)
(8.27454e-07 2.10851e-06 9.48847e-17)
(8.91951e-07 2.00977e-06 -3.50674e-17)
(9.49599e-07 1.91326e-06 1.09239e-16)
(1.00389e-06 1.8079e-06 3.56579e-17)
(1.05227e-06 1.70534e-06 -7.13705e-17)
(1.09836e-06 1.59878e-06 5.116e-17)
(1.13826e-06 1.49346e-06 1.23665e-16)
(1.17656e-06 1.38541e-06 3.39014e-17)
(1.20989e-06 1.27953e-06 -4.31891e-17)
(1.24143e-06 1.1686e-06 2.29648e-16)
(1.26249e-06 1.06245e-06 4.77537e-17)
(1.28217e-06 9.5108e-07 -1.14432e-16)
(1.29541e-06 8.43151e-07 -2.93824e-16)
(1.30191e-06 7.34441e-07 -2.58167e-17)
(1.30004e-06 6.29054e-07 -1.99262e-17)
(1.29053e-06 5.23294e-07 -2.52882e-16)
(1.27381e-06 4.21596e-07 1.9614e-16)
(1.24665e-06 3.22581e-07 1.18706e-16)
(1.21408e-06 2.2682e-07 2.0846e-16)
(1.17146e-06 1.37017e-07 1.96498e-16)
(1.12434e-06 5.33329e-08 -4.36179e-16)
(1.06627e-06 -2.04872e-08 5.38537e-16)
(1.00584e-06 -8.52952e-08 3.46215e-16)
(9.369e-07 -1.50201e-07 2.22445e-17)
(8.61856e-07 -2.13373e-07 1.15354e-16)
(7.77145e-07 -2.69656e-07 -2.76979e-16)
(7.22451e-07 -3.18943e-07 -5.95466e-17)
(6.59843e-07 -3.51876e-07 -1.9748e-17)
(5.97024e-07 -3.83559e-07 4.83135e-16)
(5.32084e-07 -4.05977e-07 5.50307e-16)
(4.65979e-07 -4.25158e-07 4.84932e-16)
(3.99572e-07 -4.36862e-07 2.12761e-16)
(3.37096e-07 -4.55165e-07 1.05039e-16)
(2.77482e-07 -4.75776e-07 -7.47747e-16)
(2.15178e-07 -4.90426e-07 1.65537e-16)
(1.55044e-07 -5.18526e-07 7.20185e-16)
(9.28362e-08 -4.91067e-07 -1.44847e-16)
(4.44681e-08 -4.82764e-07 -5.445e-16)
(4.91039e-06 1.21164e-05 -2.26198e-18)
(2.00709e-06 1.23129e-05 3.94657e-18)
(-1.00739e-06 1.15941e-05 1.7295e-18)
(-3.72435e-06 1.0958e-05 4.82997e-19)
(-6.13824e-06 1.0435e-05 5.45038e-19)
(-8.19934e-06 9.96504e-06 1.37324e-18)
(-9.88585e-06 9.54127e-06 5.04112e-18)
(-1.11992e-05 9.14715e-06 -2.62719e-20)
(-1.21489e-05 8.77731e-06 -7.03583e-18)
(-1.27558e-05 8.42197e-06 -2.25879e-18)
(-1.30582e-05 8.08204e-06 2.44804e-18)
(-1.30882e-05 7.75047e-06 -3.44033e-18)
(-1.28884e-05 7.42666e-06 -9.51567e-19)
(-1.24983e-05 7.10843e-06 -7.06153e-18)
(-1.19603e-05 6.79629e-06 2.71525e-18)
(-1.13108e-05 6.48989e-06 -1.72916e-18)
(-1.05823e-05 6.1881e-06 -4.24217e-18)
(-9.80847e-06 5.89285e-06 1.75855e-18)
(-9.01267e-06 5.60408e-06 3.98912e-18)
(-8.21651e-06 5.3239e-06 -1.177e-17)
(-7.43848e-06 5.05282e-06 -9.83172e-18)
(-6.69109e-06 4.79081e-06 -2.55374e-18)
(-5.98288e-06 4.53719e-06 -1.63212e-18)
(-5.32186e-06 4.29583e-06 -1.164e-17)
(-4.71111e-06 4.06476e-06 -1.07094e-17)
(-4.15186e-06 3.84396e-06 -9.58626e-18)
(-3.64472e-06 3.63322e-06 3.01322e-17)
(-3.18709e-06 3.43223e-06 -5.75207e-19)
(-2.77722e-06 3.24078e-06 -2.83135e-17)
(-2.4113e-06 3.05945e-06 3.9836e-18)
(-2.08645e-06 2.88592e-06 1.08293e-17)
(-1.79798e-06 2.72197e-06 2.50447e-18)
(-1.54271e-06 2.56588e-06 -7.97726e-18)
(-1.31626e-06 2.41867e-06 -3.74503e-17)
(-1.11667e-06 2.27998e-06 -7.49447e-18)
(-9.38824e-07 2.1506e-06 1.94049e-17)
(-7.80712e-07 2.02907e-06 2.01456e-17)
(-6.37259e-07 1.91918e-06 5.49635e-18)
(-5.07088e-07 1.81876e-06 -1.71865e-17)
(-3.86918e-07 1.72726e-06 -4.93827e-17)
(-2.7958e-07 1.63931e-06 5.45574e-18)
(-1.84962e-07 1.55875e-06 -3.66594e-17)
(-9.5675e-08 1.48669e-06 2.8333e-17)
(-8.50335e-09 1.42139e-06 -2.08903e-17)
(7.32205e-08 1.35635e-06 6.71938e-17)
(1.52203e-07 1.29622e-06 -9.34374e-17)
(2.26873e-07 1.23367e-06 3.53348e-17)
(2.98336e-07 1.174e-06 4.73162e-17)
(3.65753e-07 1.11263e-06 -9.73625e-17)
(4.29913e-07 1.05424e-06 -8.85109e-17)
(4.89906e-07 9.89666e-07 -5.54346e-17)
(5.46222e-07 9.28576e-07 -6.31137e-17)
(5.98544e-07 8.63048e-07 -2.7751e-18)
(6.43103e-07 8.00224e-07 -1.44488e-16)
(6.83804e-07 7.33692e-07 8.82562e-17)
(7.19593e-07 6.67938e-07 1.53866e-16)
(7.50914e-07 5.99665e-07 -1.39045e-16)
(7.74769e-07 5.31243e-07 9.87642e-17)
(7.9398e-07 4.6153e-07 2.69872e-16)
(8.05062e-07 3.92167e-07 4.74928e-17)
(8.1059e-07 3.23226e-07 1.05054e-16)
(8.07418e-07 2.55134e-07 -1.83189e-16)
(8.0018e-07 1.90167e-07 -1.65729e-16)
(7.85393e-07 1.27564e-07 3.55162e-17)
(7.67018e-07 7.25636e-08 -5.61002e-16)
(7.43318e-07 1.99378e-08 -3.21154e-16)