/*--------------------------------*- C++ -*----------------------------------*\
| =========                 |                                                 |
| \\      /  F ield         | OpenFOAM: The Open Source CFD Toolbox           |
|  \\    /   O peration     | Version:  2306                                  |
|   \\  /    A nd           | Website:  www.openfoam.com                      |
|    \\/     M anipulation  |                                                 |
\*---------------------------------------------------------------------------*/
FoamFile
{
    version     2.0;
    format      ascii;
    arch        "LSB;label=32;scalar=64";
    class       volScalarField;
    location    "925";
    object      div(phi);
}
// * * * * * * * * * * * * * * * * * * * * * * * * * * * * * * * * * * * * * //

dimensions      [0 0 -1 0 0 0 0];

internalField   nonuniform List<scalar> 
10720
(
-6.56566e-06
4.90605e-06
-3.57385e-06
2.93315e-06
-2.237e-06
-5.15004e-07
-3.12811e-06
-1.68396e-06
-7.38794e-07
7.13981e-07
9.03915e-07
1.14087e-06
6.96759e-07
6.72445e-07
3.72348e-07
4.97195e-07
2.96835e-07
5.76665e-07
1.8602e-07
5.9833e-07
-7.22597e-07
-4.93194e-07
-4.80285e-06
-6.23716e-06
-7.42964e-06
-5.69691e-06
-3.41012e-06
-2.11176e-06
-3.17171e-06
-3.43305e-06
6.20123e-06
-1.88316e-05
-2.23497e-06
3.57077e-07
9.09118e-06
-2.77337e-05
-7.69246e-05
2.18811e-05
-5.55488e-05
5.13959e-06
-5.63045e-06
-1.3101e-07
-1.20137e-06
-1.04828e-06
4.23198e-06
1.74211e-06
6.49174e-06
1.20838e-06
3.31372e-08
-5.28263e-10
-5.18396e-07
-3.50991e-07
-6.60685e-07
-3.86321e-07
-5.66767e-07
-3.21044e-07
-6.16067e-07
-2.78763e-07
-7.09938e-07
-8.50074e-08
-4.22708e-07
1.02301e-06
1.64169e-06
1.81607e-06
1.76282e-06
1.22901e-06
1.16613e-06
-1.68295e-06
2.8308e-06
1.03569e-06
1.43642e-06
1.45362e-06
2.52692e-06
2.613e-06
-2.87943e-08
1.41556e-05
9.7832e-06
1.06227e-05
-3.23948e-06
1.35889e-06
-2.29512e-06
2.19573e-06
-2.38969e-06
-1.18153e-06
-2.36318e-06
-1.6733e-06
-9.34017e-08
8.00907e-07
9.60918e-07
1.04046e-06
6.65909e-07
6.85327e-07
4.00739e-07
5.52085e-07
3.34531e-07
5.25861e-07
1.9921e-07
3.50029e-07
-4.32651e-07
-6.54792e-07
-2.61284e-06
-3.14804e-06
-3.855e-06
-3.44148e-06
-3.05953e-06
-2.44561e-06
-2.57779e-06
-2.39787e-06
2.50077e-06
-1.013e-05
-2.81692e-06
-2.6661e-06
1.24567e-06
-1.02399e-05
-7.21394e-05
-5.46215e-05
-8.64515e-05
9.70416e-08
-2.71484e-06
9.94946e-07
-6.74983e-07
2.27987e-06
5.99399e-07
4.91173e-06
1.10516e-06
2.99891e-07
1.22047e-07
-1.53529e-07
-3.06209e-07
-4.64819e-07
-6.78888e-07
-5.88637e-07
-6.96971e-07
-5.12132e-07
-6.66338e-07
-4.54471e-07
-6.46266e-07
-2.62205e-07
-3.45059e-07
6.47798e-07
1.05987e-06
1.51345e-06
1.4535e-06
1.44215e-06
1.05124e-06
-1.18973e-06
2.16671e-06
8.74079e-07
1.37819e-06
1.32074e-06
2.53033e-06
2.2609e-06
-9.31621e-07
1.36042e-05
1.19964e-05
1.9267e-05
5.81839e-06
-3.80364e-06
3.74862e-06
-2.77901e-06
5.03144e-07
-2.54932e-06
-1.89361e-06
-6.79777e-07
3.15052e-07
6.95222e-07
1.18954e-06
8.64317e-07
9.08408e-07
5.85532e-07
6.2604e-07
4.81256e-07
5.41162e-07
5.35611e-07
4.92871e-07
4.79479e-07
6.35894e-08
-1.51008e-07
-1.43011e-06
-2.17797e-06
-2.76052e-06
-2.37637e-06
-2.31645e-06
-6.80565e-07
-1.41315e-06
-1.60568e-06
2.89759e-06
-1.01983e-05
-5.60732e-07
1.45179e-06
7.28137e-06
-1.83681e-05
-2.49718e-05
4.2009e-05
-8.08837e-06
-4.21437e-06
2.7436e-06
-4.65097e-07
2.38465e-06
8.54549e-07
1.60409e-06
1.14177e-06
2.94922e-08
-8.81838e-08
2.8542e-09
-1.46847e-07
-1.45763e-07
-5.04337e-07
-4.44973e-07
-6.07064e-07
-4.20565e-07
-4.89934e-07
-4.1639e-07
-4.22547e-07
-4.52945e-07
-2.69798e-07
-2.05567e-07
6.30015e-07
1.21239e-06
1.62014e-06
1.48153e-06
1.49049e-06
9.7616e-07
-1.14761e-06
2.30894e-06
9.25266e-07
1.41276e-06
1.27482e-06
2.28512e-06
2.16308e-06
5.99205e-07
1.0964e-05
6.59206e-06
5.13057e-06
-2.83849e-06
2.39371e-06
-1.16931e-06
7.75347e-07
-2.07821e-06
-1.5809e-06
-1.08385e-06
-3.82976e-07
3.99143e-07
9.00402e-07
1.02822e-06
8.56403e-07
8.55804e-07
5.86326e-07
7.2626e-07
4.87169e-07
6.92633e-07
4.56751e-07
5.97949e-07
2.74361e-07
1.47221e-07
-5.58831e-07
-1.41843e-06
-2.41689e-06
-2.72803e-06
-3.04428e-06
-2.55734e-06
-2.32984e-06
-2.1975e-06
-1.8981e-06
6.91275e-07
-6.89247e-06
-2.83982e-06
-2.7659e-06
1.47882e-09
-6.62597e-06
-4.78535e-05
-3.60678e-05
-6.43411e-05
1.9281e-06
5.34083e-07
2.11014e-06
1.8385e-06
1.18783e-06
1.47161e-06
-2.00391e-07
-3.13943e-07
-1.13141e-07
-1.1893e-07
6.14395e-09
-1.9669e-07
-4.39174e-07
-5.82907e-07
-7.2249e-07
-5.9984e-07
-6.41577e-07
-5.01342e-07
-5.95476e-07
-4.34349e-07
-4.30259e-07
-1.63598e-07
2.25992e-07
7.75044e-07
1.05888e-06
1.37097e-06
1.40554e-06
1.17257e-06
-6.74284e-07
1.72017e-06
9.27794e-07
1.371e-06
1.36132e-06
2.57066e-06
2.31099e-06
-2.77266e-08
1.36758e-05
1.27098e-05
2.06587e-05
-1.1797e-06
1.74745e-07
1.95902e-07
-1.25221e-06
-1.00465e-06
-1.50218e-06
-7.62618e-07
7.94721e-08
3.88519e-07
9.53705e-07
8.10457e-07
9.83677e-07
6.95735e-07
8.25523e-07
6.04649e-07
7.12757e-07
5.77633e-07
6.78744e-07
5.67321e-07
5.56475e-07
2.64941e-07
-3.17748e-08
-8.37997e-07
-1.70254e-06
-2.26853e-06
-2.86354e-06
-2.34067e-06
-1.75494e-06
-1.08681e-06
-1.6688e-06
1.45723e-06
-7.60575e-06
-7.95267e-07
2.90786e-06
7.63969e-06
-1.91416e-05
-1.66283e-05
4.53544e-05
8.17944e-07
1.56629e-06
1.316e-06
2.55016e-06
9.08281e-07
1.02281e-06
2.93831e-07
-2.6237e-07
-4.4565e-07
-3.30466e-07
-4.52524e-08
2.07948e-08
-2.04178e-07
-3.47919e-07
-6.75436e-07
-5.66497e-07
-6.68577e-07
-4.36899e-07
-5.37085e-07
-3.81548e-07
-4.77018e-07
-2.62922e-07
-2.5175e-07
3.63392e-07
6.94784e-07
1.3196e-06
1.35653e-06
1.58791e-06
1.02826e-06
-4.18688e-07
1.44105e-06
9.23495e-07
1.14939e-06
1.20471e-06
1.87816e-06
1.84311e-06
1.36427e-06
9.09072e-06
4.07671e-06
2.33277e-06
7.87531e-07
-5.80029e-08
-1.13187e-06
-1.40025e-07
-1.51721e-06
-6.97774e-07
-2.94471e-07
-4.25067e-08
6.04893e-07
7.44256e-07
8.12477e-07
7.81571e-07
6.85712e-07
7.91519e-07
6.1562e-07
7.64958e-07
5.54315e-07
7.26579e-07
4.43218e-07
5.38196e-07
7.47531e-08
-9.76146e-08
-9.87456e-07
-1.42432e-06
-2.22266e-06
-2.38709e-06
-2.61746e-06
-2.48965e-06
-2.72706e-06
-2.1414e-06
-4.27698e-07
-6.04572e-06
-3.5056e-06
-3.13605e-06
-2.69552e-07
-7.90607e-06
-4.00812e-05
-2.47487e-05
-5.01649e-05
8.73995e-07
2.06316e-06
1.92601e-06
9.46545e-07
1.60633e-06
9.23378e-08
-5.15557e-07
-4.34128e-07
-2.58489e-07
2.67963e-08
3.30319e-08
-9.94273e-08
-4.26946e-07
-6.29805e-07
-7.34488e-07
-6.72421e-07
-5.63655e-07
-5.78159e-07
-4.98477e-07
-4.80481e-07
-3.62299e-07
-2.21255e-07
4.42114e-08
4.33684e-07
7.20426e-07
1.17642e-06
1.282e-06
1.31215e-06
-2.8793e-07
1.39693e-06
1.03737e-06
1.28966e-06
1.29215e-06
2.28601e-06
2.08077e-06
9.44621e-07
1.18401e-05
1.21895e-05
1.95453e-05
1.85977e-06
-1.3168e-06
-1.54096e-08
-1.09659e-06
-5.12042e-07
-5.31634e-07
-2.42592e-07
1.80207e-07
5.1922e-07
5.75462e-07
7.40195e-07
6.01574e-07
8.07886e-07
6.7161e-07
8.25048e-07
6.46904e-07
7.38398e-07
6.10806e-07
6.47328e-07
4.98779e-07
3.86729e-07
1.09112e-07
-3.44003e-07
-9.65379e-07
-1.57681e-06
-2.15286e-06
-2.5968e-06
-1.69377e-06
-1.793e-06
-1.27905e-06
5.66409e-07
-5.90231e-06
-8.36563e-08
3.56496e-06
8.83617e-06
-2.16287e-05
-1.50584e-05
4.87565e-05
1.34468e-06
6.39139e-07
2.52258e-06
5.11024e-07
1.49877e-06
-3.53262e-07
1.3975e-07
-1.69254e-07
-4.66451e-07
-1.62146e-07
2.43429e-08
9.60833e-08
-7.98885e-08
-4.36746e-07
-6.00759e-07
-7.63648e-07
-5.86411e-07
-6.00015e-07
-4.46243e-07
-5.3469e-07
-3.3771e-07
-4.35955e-07
-1.08432e-07
-8.72888e-08
5.76813e-07
6.29462e-07
1.42066e-06
1.20059e-06
1.46232e-06
-4.11385e-07
1.30373e-06
6.99894e-07
1.07418e-06
9.09261e-07
1.5883e-06
1.2911e-06
1.50311e-06
5.61584e-06
2.04833e-06
-8.75949e-07
-1.15114e-06
-6.83552e-07
-6.69824e-07
-6.19341e-07
-4.38029e-07
-2.64761e-07
-1.35037e-07
1.84987e-07
3.60533e-07
6.10063e-07
4.82529e-07
5.29796e-07
6.61731e-07
6.5584e-07
7.85536e-07
6.149e-07
7.47611e-07
5.12699e-07
6.34823e-07
3.08459e-07
3.35101e-07
-1.59003e-07
-3.52364e-07
-1.0319e-06
-1.29753e-06
-1.92787e-06
-2.07632e-06
-2.61297e-06
-2.81779e-06
-2.57438e-06
-1.04951e-06
-5.11961e-06
-3.88203e-06
-3.18838e-06
-5.05713e-07
-9.77465e-06
-3.64618e-05
-1.6249e-05
-3.84299e-05
1.65183e-06
3.74889e-07
1.7233e-06
-1.98964e-06
1.12538e-06
8.5927e-08
-2.22335e-07
-3.3114e-07
-7.73552e-08
1.20547e-07
1.54319e-07
-9.78964e-08
-3.65578e-07
-6.85131e-07
-6.86471e-07
-6.4817e-07
-5.44082e-07
-5.58263e-07
-4.84928e-07
-4.68142e-07
-3.2524e-07
-2.69609e-07
-5.2735e-08
1.65888e-07
4.56743e-07
8.57256e-07
1.09762e-06
1.1994e-06
7.56365e-09
1.20751e-06
1.26742e-06
1.34012e-06
1.28844e-06
2.01971e-06
1.8659e-06
1.65417e-06
9.81751e-06
1.1042e-05
1.63709e-05
-1.7964e-07
-3.53872e-07
-1.02116e-06
-3.68975e-07
-4.34813e-07
-2.78317e-07
-6.79857e-08
9.48703e-08
3.78794e-07
2.84176e-07
3.81195e-07
5.23218e-07
5.26255e-07
7.99521e-07
6.80637e-07
8.0474e-07
6.06074e-07
7.07332e-07
5.05467e-07
5.77263e-07
3.19958e-07
3.50908e-07
-1.22834e-07
-2.61668e-07
-9.70236e-07
-1.18334e-06
-2.1738e-06
-1.57154e-06
-1.98593e-06
-1.21675e-06
-1.9669e-07
-3.54573e-06
-6.91564e-08
4.75747e-06
8.38284e-06
-2.11523e-05
-1.2214e-05
5.09328e-05
1.58931e-06
-2.00288e-07
1.64558e-06
-1.42084e-06
2.62188e-06
-9.75073e-07
1.02277e-07
-2.61032e-08
-4.47876e-08
-7.0863e-08
1.74236e-07
1.58971e-07
-5.98396e-08
-3.83371e-07
-6.36884e-07
-6.5917e-07
-6.20694e-07
-5.08748e-07
-5.56253e-07
-4.31626e-07
-4.79963e-07
-2.8004e-07
-3.29389e-07
-2.27573e-08
6.43433e-08
5.37867e-07
7.49816e-07
1.22012e-06
1.04675e-06
-1.01207e-08
8.15309e-07
1.02697e-06
7.90414e-07
8.67578e-07
1.12619e-06
1.02338e-06
1.64376e-06
3.43005e-06
6.36384e-08
-2.95396e-06
-8.24372e-07
-1.55763e-06
-7.05537e-07
-8.72119e-07
-2.89824e-07
-9.72202e-08
-1.04038e-07
8.51707e-08
6.41749e-08
7.90226e-07
-1.0228e-08
3.08049e-07
4.94773e-07
6.65302e-07
6.51585e-07
7.27399e-07
5.82966e-07
6.14132e-07
4.39098e-07
4.01641e-07
1.97204e-07
3.21844e-08
-2.36383e-07
-5.71628e-07
-8.53292e-07
-1.34474e-06
-1.62016e-06
-2.40086e-06
-2.66442e-06
-2.9815e-06
-1.26341e-06
-4.65315e-06
-4.21402e-06
-3.14518e-06
-8.33723e-07
-1.00686e-05
-2.90602e-05
-1.01176e-05
-2.90404e-05
1.07686e-06
-2.32568e-08
1.82315e-06
-1.93153e-06
1.12244e-06
-8.95353e-08
8.52841e-08
-6.57494e-07
1.8456e-07
2.37791e-07
1.7001e-07
-3.79224e-08
-4.12798e-07
-5.65164e-07
-6.41307e-07
-5.15243e-07
-5.56087e-07
-4.77028e-07
-5.37487e-07
-3.71391e-07
-3.84686e-07
-2.08546e-07
-1.98617e-07
7.03929e-08
1.5666e-07
6.07865e-07
7.12669e-07
9.91227e-07
1.01686e-07
1.13622e-06
1.39591e-06
1.5234e-06
1.39836e-06
1.83808e-06
1.76565e-06
2.26932e-06
8.23151e-06
9.8398e-06
1.31516e-05
-9.6719e-07
-4.31145e-07
-4.70204e-07
-6.43711e-08
-3.35474e-07
-2.52778e-07
-1.3801e-07
-1.48415e-07
9.73386e-07
-2.63107e-07
2.73606e-07
1.70493e-08
4.48754e-07
5.36596e-07
7.71504e-07
6.35732e-07
7.55208e-07
5.03728e-07
6.47566e-07
3.40168e-07
5.52062e-07
1.45699e-07
3.8987e-07
-2.74197e-07
5.0885e-08
-9.99018e-07
-7.39652e-07
-1.83515e-06
-1.09662e-06
-1.95134e-06
7.23241e-07
-2.67163e-06
8.42422e-07
4.81245e-06
7.78731e-06
-1.79361e-05
-1.02719e-05
4.91046e-05
-3.23957e-07
1.69207e-07
6.30691e-07
1.03809e-07
3.15688e-07
-9.44898e-07
5.82356e-07
-7.15119e-07
4.29523e-09
1.59275e-07
3.2618e-07
2.21474e-07
-7.05372e-08
-3.38858e-07
-5.50479e-07
-5.34122e-07
-5.1566e-07
-4.95541e-07
-5.01371e-07
-4.92372e-07
-4.01647e-07
-3.66282e-07
-2.54043e-07
-2.31953e-07
1.26106e-08
8.7225e-08
5.50301e-07
5.8731e-07
8.94819e-07
-1.17883e-07
7.79193e-07
8.64494e-07
1.05195e-06
6.22049e-07
9.64697e-07
6.65128e-07
1.42041e-06
1.39862e-06
-1.0865e-06
-3.56654e-06
-2.33654e-07
-8.85165e-07
-1.753e-07
-9.88708e-08
-3.57468e-08
-1.66244e-07
-2.98193e-07
4.46442e-07
-3.80543e-07
9.09902e-07
-2.9182e-07
-4.43023e-08
2.68072e-07
4.61634e-07
6.00139e-07
6.70197e-07
5.79838e-07
5.50948e-07
3.79591e-07
3.54477e-07
1.28596e-07
7.72339e-08
-2.03281e-07
-3.14848e-07
-6.14022e-07
-8.831e-07
-1.23924e-06
-1.92588e-06
-2.39162e-06
-2.86008e-06
-1.47596e-06
-4.27894e-06
-4.68737e-06
-3.2774e-06
-1.1784e-06
-9.62958e-06
-2.17365e-05
-5.72478e-06
-2.13991e-05
2.64145e-07
2.12185e-07
1.87383e-07
-1.36454e-07
2.05481e-07
-3.79212e-07
2.16576e-07
-4.63568e-07
3.34164e-07
4.43077e-07
2.32705e-07
-7.454e-08
-3.17601e-07
-4.81711e-07
-4.44765e-07
-4.78936e-07
-4.32149e-07
-5.43098e-07
-4.18783e-07
-4.43917e-07
-2.74471e-07
-3.1497e-07
-1.48263e-07
-1.36406e-07
7.71639e-08
2.34233e-07
4.66333e-07
5.57916e-07
2.25687e-07
9.11848e-07
1.46178e-06
1.61246e-06
1.62893e-06
1.79721e-06
1.72074e-06
2.62935e-06
6.91241e-06
8.49259e-06
1.03443e-05
-4.30308e-07
-2.71901e-07
-1.51524e-07
-3.10674e-08
-1.01312e-07
-1.48494e-07
-5.77921e-08
-2.22494e-07
1.30615e-06
-5.12347e-07
-3.04028e-08
-1.15919e-08
1.56316e-07
4.51486e-07
5.52266e-07
7.35651e-07
5.97758e-07
6.61158e-07
4.0749e-07
5.23254e-07
2.48202e-07
4.45687e-07
9.39925e-08
3.0818e-07
-8.41446e-08
4.43642e-08
-6.14263e-07
-5.49871e-07
-1.18036e-06
-9.00601e-07
5.96959e-07
-1.03462e-06
1.07367e-06
5.44962e-06
7.02238e-06
-1.45943e-05
-8.45953e-06
4.40311e-05
-1.01232e-06
1.4147e-08
1.3773e-07
-4.64394e-08
6.92594e-08
-1.40168e-07
8.40426e-08
-7.47917e-07
1.82662e-07
2.91414e-07
3.49108e-07
1.59112e-07
-5.06038e-08
-3.17729e-07
-3.63282e-07
-4.29545e-07
-3.82195e-07
-4.78681e-07
-4.61243e-07
-4.82031e-07
-3.78235e-07
-3.55726e-07
-2.89395e-07
-2.59415e-07
-1.59187e-07
-6.647e-08
1.55863e-07
2.52614e-07
4.00469e-07
-9.4207e-08
4.88057e-07
9.11882e-07
8.67735e-07
8.68157e-07
6.15781e-07
5.49314e-07
1.19004e-06
2.20068e-07
-1.93302e-06
-3.87728e-06
-2.88755e-07
-3.13022e-07
-8.94141e-08
-2.56619e-08
-6.93136e-08
-2.11603e-07
-2.14664e-07
2.25108e-07
-7.7172e-08
7.23747e-07
-1.06146e-07
-1.97321e-08
6.37466e-08
3.03679e-07
5.56057e-07
5.7236e-07
6.5263e-07
3.92035e-07
4.46209e-07
1.48771e-07
2.07413e-07
-1.09902e-07
-4.82805e-08
-3.82349e-07
-3.04044e-07
-7.54896e-07
-7.54751e-07
-1.58412e-06
-1.75475e-06
-2.58267e-06
-1.41615e-06
-4.08677e-06
-4.71468e-06
-3.67571e-06
-1.2674e-06
-8.93363e-06
-1.53961e-05
-2.80914e-06
-1.54976e-05
-4.0842e-08
-1.70857e-08
2.95849e-08
-1.41851e-07
5.2485e-08
-1.4081e-07
-5.36962e-08
-3.80668e-07
3.47237e-07
2.55374e-07
1.39458e-07
-9.13441e-08
-2.56479e-07
-3.11771e-07
-3.49465e-07
-3.48019e-07
-4.68e-07
-4.33916e-07
-4.62691e-07
-3.30662e-07
-3.49875e-07
-2.32833e-07
-2.59699e-07
-1.27177e-07
-1.17458e-07
9.62426e-08
1.32735e-07
3.12774e-07
1.33957e-07
7.88676e-07
1.22168e-06
1.67641e-06
1.71129e-06
1.94248e-06
1.74385e-06
2.89069e-06
5.75669e-06
7.15781e-06
7.94783e-06
-2.60778e-07
-2.46668e-07
-3.8241e-08
-4.99432e-08
-1.27973e-07
-1.60629e-07
-1.24101e-07
-9.34259e-08
1.78105e-07
8.49362e-08
-1.68025e-07
-8.84699e-08
3.56678e-08
2.65915e-07
5.20353e-07
6.52428e-07
6.44615e-07
5.3898e-07
4.67162e-07
3.27215e-07
3.31766e-07
2.00993e-07
2.74137e-07
1.20598e-07
3.16365e-07
5.11682e-08
2.13009e-07
-3.18526e-07
-6.25404e-08
-5.44785e-07
1.2263e-06
-4.18449e-08
1.46558e-06
6.28163e-06
6.47142e-06
-1.13464e-05
-8.71361e-06
3.92483e-05
-2.27724e-06
-1.20902e-07
-4.83788e-08
-8.14386e-08
4.21788e-08
-1.05266e-07
5.95542e-09
-1.13709e-07
6.24134e-08
2.7352e-07
2.84625e-07
9.346e-08
-1.00589e-07
-1.83817e-07
-2.93364e-07
-2.58726e-07
-3.89403e-07
-3.82303e-07
-4.83108e-07
-3.75155e-07
-3.95239e-07
-2.97363e-07
-3.25825e-07
-2.56517e-07
-2.60946e-07
-1.7044e-07
-1.03204e-07
2.592e-09
1.27683e-08
-1.03632e-07
2.42381e-07
6.49557e-07
8.46167e-07
7.48169e-07
6.63583e-07
3.17702e-07
8.79342e-07
-7.5063e-07
-2.45091e-06
-3.32027e-06
-2.69338e-07
-1.84524e-07
-8.40182e-08
-1.7407e-08
-7.6117e-08
-2.44903e-07
-2.24195e-07
1.10687e-07
-1.25565e-08
-1.27336e-08
9.52581e-08
-2.65545e-07
7.47634e-08
1.82339e-07
4.57181e-07
6.25378e-07
4.70789e-07
4.77487e-07
1.98213e-07
2.5582e-07
-5.05641e-08
2.82529e-08
-2.70255e-07
-1.47626e-07
-4.19987e-07
-3.69783e-07
-7.01988e-07
-9.66913e-07
-1.42644e-06
-1.83813e-06
-1.53827e-06
-3.5143e-06
-4.60177e-06
-3.69799e-06
-1.35868e-06
-7.76724e-06
-1.08007e-05
-9.21256e-07
-1.17167e-05
-1.20443e-07
-8.44515e-08
-2.27422e-08
-1.10882e-07
4.90724e-08
-8.09946e-08
-2.25277e-08
2.18392e-09
7.50983e-08
1.48912e-07
2.81772e-08
-7.99889e-08
-1.47177e-07
-2.08066e-07
-2.48299e-07
-3.53245e-07
-3.92225e-07
-4.30136e-07
-3.53483e-07
-3.56684e-07
-2.62755e-07
-2.93068e-07
-1.96233e-07
-2.32696e-07
-9.99587e-08
-1.03714e-07
5.21414e-08
3.95411e-08
1.75426e-07
4.98909e-07
1.03659e-06
1.43854e-06
1.77266e-06
1.97795e-06
1.85354e-06
2.88509e-06
4.74189e-06
5.77841e-06
6.09516e-06
-2.18571e-07
-2.05129e-07
-3.65669e-09
-6.11155e-08
-1.53225e-07
-1.5775e-07
-1.27867e-07
-1.78633e-07
1.56666e-07
9.89512e-08
-2.11017e-07
-4.03647e-08
-2.21318e-07
1.6798e-07
4.8051e-07
5.40465e-07
5.86511e-07
4.10975e-07
3.96311e-07
2.31011e-07
2.41174e-07
1.26323e-07
1.91898e-07
1.30972e-07
3.02841e-07
2.3582e-07
4.31582e-07
1.52029e-07
4.94692e-07
1.35395e-07
1.61241e-06
4.48669e-07
2.20217e-06
5.87067e-06
6.9414e-06
-8.58799e-06
-8.33902e-06
3.38279e-05
-2.7186e-06
-1.43925e-07
-9.1699e-08
-8.34562e-08
3.15479e-08
-6.98485e-08
3.15537e-08
-4.73023e-08
-2.23058e-08
4.38125e-08
1.34851e-07
6.40382e-08
1.8367e-08
-1.47732e-07
-1.35706e-07
-2.78585e-07
-2.85034e-07
-4.19513e-07
-3.34727e-07
-3.81777e-07
-2.7827e-07
-3.1793e-07
-2.50895e-07
-2.91873e-07
-2.42319e-07
-2.62743e-07
-1.65903e-07
-1.97015e-07
-1.01296e-07
-2.16902e-07
1.28467e-07
2.77011e-07
6.95146e-07
5.80853e-07
6.29657e-07
7.56257e-08
4.75324e-07
-1.31491e-06
-2.45968e-06
-2.97677e-06
-2.30265e-07
-1.38689e-07
-8.64112e-08
-1.16445e-08
-9.33876e-08
-2.47482e-07
-2.35753e-07
8.85868e-08
-3.85417e-08
-3.09168e-08
7.36952e-08
-1.28162e-07
-4.86859e-08
2.46599e-07
3.57217e-07
4.53066e-07
4.22237e-07
2.40518e-07
2.35351e-07
4.26354e-08
2.54477e-08
-1.5957e-07
-1.52379e-07
-2.63891e-07
-2.42133e-07
-3.49882e-07
-4.54936e-07
-6.92936e-07
-1.00385e-06
-1.29431e-06
-1.49142e-06
-2.95697e-06
-4.07664e-06
-3.53577e-06
-1.3031e-06
-6.22804e-06
-6.7729e-06
1.97554e-07
-8.85985e-06
-1.26766e-07
-9.62851e-08
-3.59373e-08
-8.62299e-08
4.86451e-08
-3.86497e-08
7.53405e-09
-3.98025e-08
-1.80004e-08
3.87427e-08
9.45844e-08
-2.34275e-07
4.15849e-08
-1.08466e-07
-2.28069e-07
-3.09052e-07
-3.51296e-07
-3.2477e-07
-3.2359e-07
-2.57837e-07
-2.76545e-07
-2.06391e-07
-2.41544e-07
-1.57115e-07
-1.55328e-07
-8.76759e-08
-5.00671e-08
6.58113e-09
1.12625e-07
3.61007e-07
7.74418e-07
1.17071e-06
1.64915e-06
1.88604e-06
1.99653e-06
2.72072e-06
3.80244e-06
4.57557e-06
4.518e-06
-1.83952e-07
-1.79744e-07
1.58855e-08
-8.17365e-08
-1.5555e-07
-1.45307e-07
-1.15566e-07
-2.06812e-07
1.19032e-07
5.94669e-08
-9.53873e-08
-7.02361e-08
-5.54407e-09
5.41159e-08
2.82032e-07
4.14669e-07
3.07746e-07
3.47849e-07
1.799e-07
2.49544e-07
4.69693e-08
1.60115e-07
-2.70603e-10
2.10374e-07
1.15041e-07
4.27658e-07
2.98008e-07
6.21021e-07
4.61361e-07
9.5449e-07
1.12328e-06
1.24347e-06
1.90575e-06
5.74386e-06
6.75401e-06
-6.27574e-06
-8.44696e-06
2.92973e-05
-3.06285e-06
-1.32759e-07
-9.30964e-08
-7.29403e-08
2.7468e-08
-5.01362e-08
5.23886e-08
-4.42307e-08
-1.68169e-08
-4.49378e-08
6.31653e-08
-2.22052e-07
2.53868e-07
-1.16902e-09
-6.08429e-08
-1.52228e-07
-3.17317e-07
-2.57739e-07
-3.26334e-07
-2.27814e-07
-2.77814e-07
-2.0095e-07
-2.53202e-07
-2.02869e-07
-2.51661e-07
-1.73889e-07
-2.40185e-07
-1.36844e-07
-2.39602e-07
-1.01168e-07
-1.25748e-07
2.28959e-07
2.41601e-07
5.84473e-07
3.01998e-07
1.22048e-07
2.41243e-07
-1.55405e-06
-2.44134e-06
-2.23255e-06
-1.94414e-07
-1.05064e-07
-9.43041e-08
-1.3567e-08
-8.11772e-08
-2.45881e-07
-2.25198e-07
7.90491e-08
-9.42033e-08
-2.0144e-08
9.96597e-08
1.8586e-08
5.03338e-08
1.4071e-07
2.85946e-07
2.71792e-07
1.4818e-07
1.3423e-07
9.88381e-08
3.78383e-08
-6.04098e-08
-1.49958e-07
-2.02027e-07
-2.25376e-07
-2.31536e-07
-2.62954e-07
-3.73075e-07
-4.76934e-07
-7.72675e-07
-9.1539e-07
-1.4643e-06
-2.35295e-06
-3.4612e-06
-3.0216e-06
-1.13668e-06
-4.59464e-06
-3.76686e-06
1.05671e-06
-6.88093e-06
-1.14284e-07
-8.17559e-08
-3.38686e-08
-6.60751e-08
5.45347e-08
-2.29429e-08
3.68349e-08
-7.04279e-08
-7.8541e-09
-9.34965e-08
1.23399e-07
-2.85332e-07
1.96874e-07
1.59011e-08
-1.58094e-07
-2.27096e-07
-2.53496e-07
-2.46683e-07
-2.19218e-07
-2.23118e-07
-1.81651e-07
-2.04202e-07
-1.52819e-07
-1.1685e-07
-8.85334e-08
-6.58647e-08
-2.54989e-08
6.03614e-09
1.25514e-07
2.58229e-07
6.23978e-07
8.83205e-07
1.46362e-06
1.65649e-06
2.05567e-06
2.32239e-06
3.00164e-06
3.35875e-06
3.26414e-06
-1.52735e-07
-1.5974e-07
2.18007e-08
-7.92458e-08
-1.52748e-07
-1.30544e-07
-1.08979e-07
-2.333e-07
9.07693e-08
1.0624e-07
-9.52936e-08
1.18775e-07
4.78354e-08
2.14123e-07
1.62962e-07
1.43202e-08
1.67844e-07
9.4172e-08
1.8607e-07
6.32473e-08
1.05646e-07
-3.61251e-08
6.28248e-08
-6.0571e-09
1.79749e-07
1.89052e-07
4.03434e-07
4.34555e-07
6.70494e-07
8.03392e-07
1.09224e-06
1.07517e-06
1.94105e-06
4.67552e-06
6.52321e-06
-4.63323e-06
-8.28735e-06
2.40716e-05
-3.06335e-06
-1.10281e-07
-8.06002e-08
-5.77254e-08
2.96292e-08
-2.97774e-08
6.69045e-08
-3.07596e-08
8.72369e-10
-4.15623e-08
4.33722e-09
-2.14418e-07
3.2714e-07
1.63454e-09
1.7025e-08
-1.70108e-07
-1.53486e-07
-2.35685e-07
-1.56607e-07
-2.13139e-07
-1.34038e-07
-1.87963e-07
-1.31857e-07
-1.62335e-07
-9.63158e-08
-1.49228e-07
-1.07472e-07
-1.54208e-07
-1.16711e-07
-1.42996e-07
-5.8476e-08
3.16339e-08
1.57669e-07
2.833e-07
2.03802e-07
-1.22278e-08
-2.96471e-07
-1.94233e-06
-2.06868e-06
-1.96933e-06
-1.59767e-07
-8.73135e-08
-9.2187e-08
-2.41002e-09
-8.19466e-08
-2.29205e-07
-2.2524e-07
7.19929e-08
-8.84683e-08
-3.92886e-08
1.97935e-07
4.88622e-08
1.32934e-07
6.42654e-08
-5.88011e-08
5.21673e-07
-7.57195e-08
5.59629e-09
4.42741e-08
2.31351e-08
-9.79032e-08
-1.54729e-07
-2.27226e-07
-2.21064e-07
-2.27351e-07
-2.48721e-07
-3.2249e-07
-4.05364e-07
-6.23868e-07
-7.74081e-07
-1.3328e-06
-1.89983e-06
-2.81131e-06
-2.42185e-06
-9.51819e-07
-3.30137e-06
-1.70241e-06
1.62252e-06
-5.24226e-06
-9.80035e-08
-7.01362e-08
-2.64178e-08
-4.79945e-08
5.87108e-08
-1.07538e-08
5.78061e-08
-4.99179e-08
-1.88321e-08
-6.69602e-08
1.03483e-07
-1.58472e-07
1.79948e-07
-5.36493e-08
-9.53958e-08
-1.60427e-07
-1.54249e-07
-1.53971e-07
-1.37836e-07
-1.27218e-07
-1.3657e-07
-1.11968e-07
-5.8722e-08
-2.20654e-08
-3.49084e-09
-3.9716e-09
2.39754e-08
5.5395e-08
1.49708e-07
2.43835e-07
5.22063e-07
7e-07
1.23258e-06
1.38907e-06
1.87989e-06
1.87387e-06
2.2205e-06
2.3485e-06
2.22519e-06
-1.35126e-07
-1.38879e-07
2.80708e-08
-8.6526e-08
-1.37919e-07
-1.11048e-07
-9.74823e-08
-2.29013e-07
8.70143e-08
1.12149e-07
-4.60491e-08
1.18827e-07
7.94764e-08
-1.22672e-07
6.52427e-07
-4.59133e-07
-2.84007e-07
-9.00743e-08
2.85749e-08
7.79708e-08
-1.05345e-08
-2.60526e-08
-8.2587e-08
-1.91475e-08
-7.3521e-09
1.32877e-07
1.78516e-07
3.82787e-07
4.16064e-07
7.3117e-07
6.83187e-07
1.00961e-06
1.53901e-06
3.56611e-06
5.72295e-06
-3.686e-06
-6.73174e-06
2.00098e-05
-3.16988e-06
-9.26347e-08
-6.6014e-08
-4.44809e-08
3.07472e-08
-2.04548e-08
7.66812e-08
-1.80952e-08
2.52295e-08
-4.72247e-08
-1.95385e-08
-3.21877e-08
2.76186e-08
6.69283e-08
-7.19267e-08
-7.41591e-08
-1.57112e-07
-8.2009e-08
-1.4233e-07
-6.78508e-08
-1.17958e-07
-6.41023e-08
-6.71101e-08
2.04396e-09
-8.68155e-09
-7.28283e-09
-4.7864e-08
-4.39101e-08
-7.29542e-08
-3.41427e-08
-6.0524e-08
6.73086e-08
1.04831e-08
2.16075e-07
-2.59396e-08
-1.27863e-07
-3.7675e-07
-1.79205e-06
-2.08294e-06
-1.47484e-06
-1.42235e-07
-7.22416e-08
-9.9376e-08
-3.97663e-09
-6.39479e-08
-2.15336e-07
-2.01764e-07
7.55094e-08
-9.50851e-08
-2.9707e-08
2.05548e-07
7.02788e-08
-3.79851e-08
2.23224e-07
-4.58567e-07
3.26245e-07
-4.40683e-07
-3.37412e-07
-5.82137e-08
-3.64023e-08
-8.61217e-08
-2.00689e-07
-2.16541e-07
-2.62299e-07
-2.11045e-07
-2.87097e-07
-2.74317e-07
-4.23349e-07
-5.08301e-07
-7.43782e-07
-1.14359e-06
-1.56202e-06
-2.27095e-06
-1.82117e-06
-1.02661e-06
-2.28857e-06
-5.04179e-07
1.93059e-06
-4.06434e-06
-7.84413e-08
-5.33032e-08
-1.98347e-08
-3.53382e-08
6.00229e-08
1.38712e-10
7.50849e-08
-3.91255e-08
-2.02528e-08
-4.16106e-08
2.02929e-08
3.47262e-08
-1.41934e-08
2.04127e-08
-8.60528e-08
-4.5347e-08
-1.78783e-07
-4.46267e-08
-7.56015e-08
-6.16782e-08
-5.16575e-08
-7.6836e-12
4.64559e-08
8.93918e-08
6.48719e-08
6.34012e-08
6.66526e-08
1.15241e-07
1.75077e-07
2.66566e-07
4.54604e-07
5.93042e-07
1.01754e-06
1.12278e-06
1.64773e-06
1.45099e-06
1.6221e-06
1.56443e-06
1.54933e-06
-1.08448e-07
-1.38831e-07
2.25295e-08
-8.0961e-08
-1.26531e-07
-9.3557e-08
-8.46291e-08
-2.2364e-07
8.52744e-08
1.28692e-07
-5.41238e-08
7.40384e-08
7.90813e-09
-3.01226e-07
2.58708e-07
-1.03282e-06
-4.26796e-07
-2.48749e-07
-2.13034e-08
1.01017e-08
-3.19185e-08
-1.00757e-07
-1.17972e-07
-1.24761e-07
-7.98555e-08
-3.6822e-08
7.16274e-08
1.45642e-07
2.767e-07
4.16675e-07
4.58948e-07
7.20359e-07
1.08504e-06
2.68229e-06
4.19308e-06
-2.50897e-06
-4.50144e-06
1.4994e-05
-3.00761e-06
-7.82776e-08
-5.11053e-08
-3.25418e-08
3.04604e-08
-9.13548e-09
8.05619e-08
-3.7913e-09
3.80728e-08
-4.21722e-08
-2.30637e-08
-3.24123e-08
8.22362e-09
1.00685e-08
-2.25297e-08
-3.22837e-08
-2.34779e-07
-8.24756e-08
-5.55435e-08
-2.28616e-08
-1.03689e-08
-3.70883e-10
7.1352e-08
1.09124e-07
1.12727e-07
7.08006e-08
3.1124e-08
1.53455e-08
1.33371e-08
2.32041e-08
1.40439e-08
6.88989e-08
1.20373e-08
1.36572e-07
-1.12764e-07
-1.24383e-07
-4.90939e-07
-1.7282e-06
-1.68585e-06
-1.21507e-06
-1.3355e-07
-7.02777e-08
-9.5623e-08
2.02393e-09
-6.32533e-08
-1.9143e-07
-1.89253e-07
8.24626e-08
-8.19939e-08
-3.71888e-08
1.89849e-07
-1.35517e-08
-1.42637e-07
-2.94115e-08
-7.33663e-07
-1.36686e-07
-8.9495e-07
-1.70905e-07
-6.96868e-08
-2.274e-08
-1.37208e-07
-1.69689e-07
-2.682e-07
-2.21346e-07
-2.69441e-07
-2.35818e-07
-3.15817e-07
-3.57372e-07
-4.79172e-07
-6.60913e-07
-9.58817e-07
-1.31666e-06
-1.76471e-06
-1.38788e-06
-1.51862e-06
-1.72688e-06
-1.26713e-07
1.63714e-06
-3.14237e-06
-5.49745e-08
-4.5125e-08
-1.49679e-08
-2.57938e-08
5.8054e-08
5.46654e-09
8.36552e-08
-3.20017e-08
-2.08197e-08
-3.0972e-08
3.30528e-08
3.47188e-09
-2.68614e-08
5.13608e-09
-2.71334e-07
-1.49113e-07
-1.56261e-07
1.61957e-08
-2.33275e-08
4.55872e-08
6.54824e-08
1.00118e-07
1.55782e-07
1.46069e-07
1.14966e-07
9.13472e-08
1.00847e-07
1.46831e-07
1.92275e-07
2.78721e-07
3.97046e-07
5.27735e-07
8.10611e-07
9.46599e-07
1.29664e-06
1.0976e-06
1.15339e-06
1.09849e-06
1.13508e-06
-8.27908e-08
-1.29388e-07
1.74588e-08
-8.62096e-08
-1.12128e-07
-7.61081e-08
-6.82327e-08
-2.01131e-07
8.32595e-08
1.14754e-07
-8.79146e-08
-8.771e-09
-1.1942e-07
-4.0522e-07
-1.55498e-07
-7.06125e-07
-2.25263e-07
-1.67391e-07
3.98076e-09
-2.11081e-08
-4.99033e-08
-1.37968e-07
-1.4165e-07
-1.77474e-07
-1.42323e-07
-1.31277e-07
-4.66562e-08
-2.28081e-09
1.1159e-07
1.76052e-07
2.53962e-07
4.09218e-07
7.36632e-07
1.79022e-06
2.87599e-06
-1.75471e-06
-2.44262e-06
1.11549e-05
-2.8772e-06
-7.50114e-08
-3.14586e-08
-2.56051e-08
2.73551e-08
-6.56918e-09
8.05574e-08
-5.85149e-10
4.74809e-08
-3.28766e-08
-9.63124e-09
-3.47363e-08
-1.38769e-08
6.08172e-08
-2.90597e-07
5.19324e-09
-3.74609e-07
2.91508e-08
-1.71157e-07
1.77936e-07
7.15306e-08
1.4691e-07
1.78876e-07
1.88066e-07
1.66513e-07
1.04437e-07
6.94411e-08
5.79569e-08
6.55779e-08
6.59163e-08
6.82806e-08
7.89902e-08
4.31931e-08
8.41163e-08
-9.34219e-08
-2.00825e-07
-3.99148e-07
-1.30147e-06
-1.41447e-06
-8.76943e-07
-2.06116e-07
-3.57585e-08
-9.15226e-08
-4.74115e-09
-5.03933e-08
-1.7475e-07
-1.60519e-07
8.16954e-08
-7.77394e-08
-4.62673e-08
1.25017e-07
-8.08342e-08
-2.1482e-07
-1.49561e-07
-6.66607e-07
-7.45436e-08
-7.38365e-07
3.43622e-07
2.27346e-09
-4.28754e-08
-9.51876e-08
-1.97825e-07
-2.17973e-07
-2.46521e-07
-2.23495e-07
-2.46815e-07
-2.64542e-07
-3.27062e-07
-4.01189e-07
-5.70277e-07
-7.74972e-07
-1.07421e-06
-1.3824e-06
-9.00367e-07
-2.08555e-06
-1.28351e-06
-2.04296e-07
1.13466e-06
-2.45365e-06
2.65134e-08
-1.44058e-08
-5.98416e-09
-1.95885e-08
5.42264e-08
8.86294e-09
8.63771e-08
-2.16706e-08
-5.66724e-09
-2.2469e-08
3.64042e-08
5.24038e-08
-2.01006e-07
1.48693e-07
-7.57268e-07
2.77527e-08
-3.60313e-07
2.46038e-07
7.82121e-08
2.32981e-07
2.27596e-07
2.18118e-07
1.98839e-07
1.63179e-07
1.11969e-07
9.47527e-08
1.08751e-07
1.48305e-07
1.88139e-07
2.6225e-07
3.38805e-07
4.5656e-07
6.415e-07
7.59084e-07
1.01293e-06
8.40671e-07
8.88091e-07
8.60265e-07
9.51689e-07
4.77616e-08
-2.40359e-07
2.00196e-10
-8.00533e-08
-1.04289e-07
-6.35018e-08
-5.79181e-08
-1.8597e-07
7.62369e-08
8.68535e-08
-1.13287e-07
-6.5706e-08
-1.64171e-07
-4.385e-07
-8.5757e-08
-6.58432e-07
3.09819e-07
-4.98049e-07
-1.81563e-07
-7.41308e-08
-1.26903e-07
-1.2125e-07
-1.88028e-07
-1.5956e-07
-2.01634e-07
-1.46752e-07
-1.41299e-07
-6.5747e-08
-3.42504e-08
3.5439e-08
7.52403e-08
1.6884e-07
5.13665e-07
1.01162e-06
2.9073e-07
-1.19725e-06
-7.10186e-07
7.54832e-06
-2.57502e-06
-3.66838e-08
2.49636e-08
-6.63301e-09
2.6492e-08
-2.01317e-09
7.68411e-08
4.97347e-09
5.62481e-08
-1.97944e-08
6.57044e-09
-2.48252e-08
-3.96969e-08
1.16387e-07
-4.46459e-07
1.1276e-07
-3.99859e-07
1.00799e-08
1.12698e-07
1.99065e-07
3.53623e-07
2.76098e-07
2.2466e-07
2.11181e-07
1.51657e-07
1.02295e-07
7.45311e-08
7.60809e-08
8.47161e-08
9.06082e-08
9.11417e-08
8.86132e-08
6.32867e-08
6.45118e-08
-6.97558e-08
-1.7771e-07
-2.15074e-07
-8.95945e-07
-9.92614e-07
-5.79203e-07
-2.24507e-07
-2.22994e-08
-9.52838e-08
-5.48567e-09
-5.20311e-08
-1.5363e-07
-1.46966e-07
8.05319e-08
-7.49988e-08
-5.07312e-08
8.25808e-08
-1.10285e-07
-2.27655e-07
-1.53415e-07
-6.24579e-07
1.15607e-07
-4.51556e-07
2.4401e-07
-1.70268e-07
-2.98304e-07
-1.82466e-07
-2.09809e-07
-2.1312e-07
-2.22291e-07
-2.02197e-07
-2.0786e-07
-2.24582e-07
-2.61675e-07
-3.28237e-07
-4.47187e-07
-6.05825e-07
-8.22397e-07
-1.03386e-06
-1.24115e-06
9.98997e-08
-1.61022e-06
-3.27609e-07
4.0949e-07
-1.83035e-06
8.16129e-08
3.7026e-08
8.53922e-09
-1.30856e-08
4.98996e-08
8.25811e-09
8.52402e-08
-1.67217e-08
8.47852e-09
-1.97731e-08
4.80407e-08
6.01289e-08
-9.71269e-08
-8.38002e-08
-4.7497e-07
-3.96402e-07
1.59878e-07
-1.01619e-08
4.29851e-07
3.04713e-07
2.23011e-07
2.40239e-07
1.96677e-07
1.27077e-07
8.93516e-08
7.69014e-08
9.31541e-08
1.30505e-07
1.60647e-07
2.2409e-07
2.69777e-07
3.78574e-07
4.81193e-07
6.17388e-07
7.61454e-07
6.60131e-07
7.04782e-07
7.6674e-07
8.41487e-07
6.01215e-08