/*--------------------------------*- C++ -*----------------------------------*\
| =========                 |                                                 |
| \\      /  F ield         | OpenFOAM: The Open Source CFD Toolbox           |
|  \\    /   O peration     | Version:  2306                                  |
|   \\  /    A nd           | Website:  www.openfoam.com                      |
|    \\/     M anipulation  |                                                 |
\*---------------------------------------------------------------------------*/
FoamFile
{
    version     2.0;
    format      ascii;
    arch        "LSB;label=32;scalar=64";
    class       volScalarField;
    location    "925";
    object      magR;
}
// * * * * * * * * * * * * * * * * * * * * * * * * * * * * * * * * * * * * * //

dimensions      [0 2 -2 0 0 0 0];

internalField   nonuniform List<scalar> 
10720
(
0.023538
0.0274623
0.0324771
0.0392891
0.0473599
0.0576334
0.0707697
0.0870427
0.107706
0.134069
0.16813
0.213099
0.273425
0.356423
0.474563
0.647438
0.913676
1.32394
2.04423
3.16556
5.69264
9.51402
22.2732
43.4776
48.1831
46.098
45.2986
46.1253
47.1507
47.4116
46.785
45.3892
43.1323
40.0438
36.0561
31.2637
24.7687
18.4844
6.84116
0.0200321
0.0171884
0.0140008
0.0112669
0.0086856
0.00635916
0.00448042
0.00335175
0.00350619
0.00474344
0.00705507
0.0106247
0.0158801
0.0234976
0.0343388
0.0497157
0.0718251
0.104784
0.156208
0.239903
0.383332
0.637032
1.121
2.0526
4.08368
8.35113
18.6656
38.4622
54.5031
61.3868
63.3395
63.659
63.2924
62.397
61.0188
59.2334
56.6214
53.5797
43.8862
0.00360469
0.0035844
0.00354304
0.00344051
0.00328197
0.00309976
0.00288482
0.00264314
0.00240399
0.0021695
0.00194594
0.00179066
0.0017693
0.00194392
0.00252448
0.00397255
0.00759018
0.0159216
0.0384709
0.0942972
0.278461
0.7703
2.35995
7.57256
14.8473
22.3686
29.4376
34.44
35.4321
32.5064
27.7013
22.8381
18.8947
15.8725
13.5509
11.7093
10.4237
9.11428
10.5253
0.0035722
0.00352403
0.00342528
0.00327883
0.00307843
0.00281404
0.00250372
0.0022027
0.00192412
0.00164763
0.00138453
0.00115676
0.000964327
0.000801119
0.000662816
0.000546301
0.000447472
0.00036386
0.000290609
0.000223737
0.000157664
9.31612e-05
3.22832e-05
5.26527e-06
1.3424e-05
0.00191624
0.010375
0.0836545
0.281746
0.55142
0.824377
1.06463
1.26669
1.44422
1.61011
1.7808
1.96131
2.36382
3.28793
0.00241978
0.00240068
0.00234654
0.00226375
0.00217717
0.00208202
0.00198581
0.00189929
0.00182488
0.00176716
0.00172253
0.00169695
0.00169017
0.00170496
0.00170975
0.00165714
0.00144904
0.00124712
0.000141825
0.0080688
0.00318823
0.00558846
0.000695839
0.0294584
0.245621
0.819331
2.0454
4.57335
9.01199
14.89
20.2057
22.8202
22.3114
20.0352
17.3836
14.8934
12.9424
10.7212
12.0695
0.00243863
0.00243561
0.00242913
0.00238587
0.00230911
0.00218026
0.00200263
0.00179981
0.00161135
0.00141748
0.00120888
0.00100688
0.000826098
0.00067042
0.000541888
0.000438106
0.000357222
0.00029587
0.000251245
0.000219186
0.000197101
0.000182769
0.000174901
0.000170575
0.000170352
0.000169185
0.00017994
0.000106713
0.000756713
0.00502253
0.0142338
0.0299799
0.0675796
0.141403
0.250421
0.383904
0.528987
0.633153
1.08071
0.00204215
0.00204636
0.00203608
0.00201912
0.00198413
0.00193205
0.00186712
0.00178607
0.00169343
0.00159096
0.00148086
0.00136465
0.00124346
0.0011195
0.000993835
0.000862103
0.000730737
0.000612227
0.00046349
0.000264156
6.24342e-10
0.000607262
0.000433662
0.00778374
0.0289901
0.0544016
0.0743754
0.003138
0.0452708
0.447885
1.95665
5.3335
9.9968
13.8721
15.5413
15.3166
14.4039
12.6079
13.5662
0.00202024
0.00198706
0.00193497
0.00187224
0.00179357
0.00169056
0.00157029
0.00144231
0.00130906
0.00116444
0.00101496
0.000874827
0.000751019
0.000644317
0.000554162
0.000478581
0.000416398
0.000365753
0.000325104
0.000292011
0.000265121
0.000242534
0.000222291
0.000201004
0.00017913
0.000160942
0.000147193
0.000137313
0.000125328
0.000109899
8.24745e-05
5.19289e-05
0.000414988
0.00070634
0.00264796
0.0142232
0.0466634
0.117931
0.429292
0.0015321
0.00152939
0.00151745
0.00149615
0.0014632
0.00141852
0.00136452
0.00130202
0.00123305
0.00116185
0.00109069
0.00102244
0.000960141
0.000905694
0.000860403
0.000822356
0.000782375
0.000733497
0.000681785
0.000606638
0.000407688
0.000130254
2.14539e-05
3.42051e-06
0
0
0
0.00242474
0.0289755
0.0952446
0.0196994
0.0658459
0.410627
2.39948
6.15652
9.97419
12.3864
12.8389
14.2836
0.00152813
0.00151732
0.0014958
0.00146134
0.00141275
0.0013439
0.00126153
0.00117308
0.00107878
0.000975268
0.000867585
0.000762215
0.000663259
0.000572435
0.000490963
0.000419361
0.000357802
0.000306016
0.0002634
0.000228655
0.000200605
0.000177734
0.000158417
0.000139991
0.000121266
0.000103972
9.02366e-05
8.07406e-05
7.65755e-05
7.07206e-05
8.65914e-05
2.03216e-05
0.00013448
0.000653416
0.00160908
0.00318468
0.00116482
0.00365611
0.0832092
0.0012558
0.00126116
0.00126065
0.00125615
0.00124381
0.00122381
0.00119703
0.0011624
0.00112064
0.00107288
0.00101954
0.000961856
0.00090121
0.000838672
0.000775347
0.000709715
0.000638247
0.00056483
0.000495861
0.000435975
0.000388249
0.000321399
0.000228168
4.41448e-05
1.18243e-05
6.85226e-06
2.68934e-06
1.88276e-08
0
0
0.00462823
0.0458283
0.0084289
0.111512
0.243756
2.28004
6.36691
10.2635
13.6325
0.00124442
0.0012287
0.00120582
0.00117563
0.00113689
0.00108596
0.00102734
0.00096445
0.000896062
0.000820461
0.000741285
0.00066248
0.000587068
0.000516805
0.000452913
0.000396189
0.000346882
0.000304851
0.000269606
0.000240243
0.000215733
0.000194776
0.00017593
0.000157178
0.000137706
0.000119166
0.000102994
8.94591e-05
7.81062e-05
6.86663e-05
6.05718e-05
5.3212e-05
4.21055e-05
2.69857e-05
1.81094e-08
5.37877e-07
0.000195129
0.000839544
0.00953299
0.00101587
0.00102033
0.00102104
0.00101846
0.00101034
0.000996297
0.000976651
0.000950828
0.000919056
0.000882212
0.000840925
0.000796229
0.000749502
0.000702073
0.00065505
0.000610001
0.00056917
0.000531128
0.000492269
0.000451737
0.000413665
0.000381724
0.000347722
0.000286826
0.000196806
0.000120877
4.03424e-05
2.33354e-07
4.02206e-06
4.73891e-07
0
0
0.00107385
0.035217
0.0264374
0.155256
1.04628
5.23282
10.9384
0.00100752
0.000996227
0.000979796
0.000957167
0.000927814
0.000890148
0.000847821
0.000801683
0.000750874
0.000695161
0.000636604
0.000577412
0.000519381
0.000463748
0.000411553
0.000363628
0.000320435
0.000282254
0.000249085
0.000220536
0.000196058
0.000174833
0.000155813
0.000137535
0.000119233
0.000101891
8.66467e-05
7.38159e-05
6.31341e-05
5.44613e-05
4.7972e-05
4.37493e-05
4.13052e-05
3.84596e-05
3.51627e-05
1.60097e-05
1.54449e-06
0
0.00205259
0.000841976
0.000847724
0.000851137
0.000852513
0.000850179
0.000843802
0.000833638
0.000818938
0.0007997
0.000776334
0.000748805
0.000717648
0.000683475
0.000646845
0.000608412
0.000568959
0.000527994
0.000484466
0.000440352
0.000398596
0.000361892
0.000332439
0.000310602
0.000293939
0.000267851
0.000228723
0.000176494
0.000119742
7.19676e-05
7.47915e-06
3.56179e-06
1.32785e-07
0
0
0.00401652
0.0105111
0.12885
1.18872
6.55527
0.00083334
0.000822932
0.000808981
0.000790465
0.000767263
0.00073851
0.000707099
0.000672473
0.000634133
0.000592539
0.000548628
0.000503774
0.000459086
0.0004154
0.000373568
0.000334403
0.000298397
0.000265982
0.00023732
0.000212245
0.000190353
0.00017103
0.000153436
0.000136467
0.000119547
0.000103401
8.89176e-05
7.63435e-05
6.54157e-05
5.58907e-05
4.77008e-05
4.06893e-05
3.46924e-05
2.95708e-05
2.59991e-05
2.27245e-05
1.6078e-05
1.8581e-06
0
0.000702354
0.000707889
0.000711922
0.00071444
0.000714349
0.000711283
0.000705316
0.000695788
0.000682615
0.000665919
0.000645646
0.000622083
0.000595645
0.000566758
0.00053605
0.000504012
0.000471376
0.000439415
0.000408233
0.000377795
0.000348635
0.000322184
0.000298872
0.000277755
0.000256112
0.0002312
0.00020499
0.000176126
0.000149383
0.000108068
6.95853e-05
2.66746e-06
1.85206e-06
0
0
0.00112555
0.040236
0.164995
2.60904
0.000694768
0.000685985
0.000674636
0.000659565
0.000641189
0.000619003
0.000595089
0.0005686
0.00053931
0.000507823
0.000474579
0.000440363
0.00040584
0.000371521
0.000338
0.000305892
0.000275678
0.000247756
0.000222379
0.000199584
0.000179196
0.000160828
0.000143893
0.000127649
0.000111692
9.64875e-05
8.27671e-05
7.0808e-05
6.04561e-05
5.15339e-05
4.40019e-05
3.79097e-05
3.32638e-05
3.00257e-05
2.81794e-05
2.84443e-05
3.05163e-05
3.29198e-05
1.37875e-06
0.000592105
0.00059753
0.000602055
0.000605556
0.000607185
0.000606764
0.000604233
0.000599033
0.000591079
0.000580364
0.000566713
0.00055026
0.000531199
0.000509743
0.000486232
0.000461004
0.000434584
0.000406926
0.000378223
0.000349703
0.000322861
0.000298891
0.00027794
0.000258015
0.00023645
0.000212324
0.000188106
0.000166984
0.000150642
0.000137232
0.000123362
8.90952e-05
3.71055e-05
3.29539e-06
0
0
0
0.0574415
0.673041
0.000585158
0.000577506
0.000567969
0.000555439
0.000540626
0.000523311
0.000504678
0.000484053
0.00046146
0.000437335
0.0004119
0.000385624
0.000358848
0.000331848
0.000305059
0.000278931
0.000253834
0.000230172
0.0002082
0.000188047
0.000169671
0.000152839
0.000137148
0.000122106
0.000107406
9.33871e-05
8.06237e-05
6.93633e-05
5.94944e-05
5.08551e-05
4.33839e-05
3.70491e-05
3.17621e-05
2.76085e-05
2.45773e-05
2.39868e-05
2.3639e-05
4.00122e-05
1.88502e-05
0.000502712
0.000507792
0.000512347
0.000516192
0.000518656
0.000519673
0.00051907
0.000516459
0.000511668
0.000504668
0.000495243
0.000483427
0.000469289
0.000452921
0.000434563
0.000414489
0.000393001
0.000370586
0.000347752
0.000324952
0.000302911
0.00028222
0.000263139
0.00024459
0.000224393
0.000201554
0.000177787
0.000156468
0.000139493
0.000127298
0.000118206
0.000112658
9.83814e-05
5.7002e-05
3.72453e-06
0
0
0.00305808
0.171973
0.000496491
0.000489866
0.000481863
0.000471376
0.000459293
0.000445618
0.000430844
0.000414549
0.000396941
0.000378278
0.000358624
0.00033828
0.000317429
0.000296192
0.00027481
0.000253603
0.00023284
0.000212838
0.000193866
0.00017608
0.000159506
0.00014404
0.000129442
0.000115398
0.000101729
8.86925e-05
7.67321e-05
6.60864e-05
5.67082e-05
4.84909e-05
4.14017e-05
3.5451e-05
3.06357e-05
2.70239e-05
2.45542e-05
2.42486e-05
2.41365e-05
3.43266e-05
4.31098e-05
0.000429702
0.000434434
0.000438879
0.000442836
0.000445808
0.00044774
0.000448488
0.000447694
0.000445229
0.000441028
0.000434876
0.000426753
0.000416651
0.000404594
0.000390696
0.00037512
0.0003581
0.000339985
0.000320904
0.000301279
0.000281976
0.000263649
0.000246468
0.000229688
0.000211684
0.00019148
0.000170118
0.000150122
0.000133273
0.000119836
0.000108953
0.000101887
9.84107e-05
9.45833e-05
6.07924e-05
2.91871e-06
0
0.000986063
0.059824
0.000424134
0.000418329
0.000411552
0.000402717
0.000392757
0.00038179
0.000369918
0.000356896
0.000343033
0.000328429
0.000313118
0.000297271
0.000280961
0.000264195
0.000247138
0.000229976
0.000212876
0.000196091
0.000179831
0.000164282
0.000149525
0.00013553
0.00012215
0.000109203
9.66291e-05
8.46181e-05
7.35211e-05
6.35527e-05
5.47038e-05
4.68994e-05
4.01069e-05
3.43329e-05
2.95493e-05
2.58228e-05
2.31782e-05
2.24917e-05
2.27414e-05
2.92509e-05
4.68851e-05
0.000369349
0.000373706
0.000377932
0.000381825
0.000384996
0.000387418
0.000388978
0.000389351
0.000388422
0.000386121
0.000382244
0.000376747
0.000369577
0.000360693
0.000350163
0.000338081
0.000324584
0.00030997
0.000294465
0.000278362
0.000262191
0.000246433
0.000231197
0.000216009
0.000199797
0.000181844
0.000162871
0.000144788
0.000129108
0.000115985
0.00010482
9.55476e-05
8.90592e-05
8.65132e-05
9.08103e-05
4.46315e-05
6.55078e-08
0.00031262
0.0198801
0.000364394
0.000359297
0.000353504
0.000346033
0.000337756
0.000328837
0.000319185
0.000308676
0.000297649
0.000286128
0.0002741
0.00026166
0.00024883
0.000235579
0.000221952
0.000208068
0.000194029
0.000180012
0.000166175
0.000152675
0.000139615
0.000127011
0.000114805
0.000102924
9.13659e-05
8.03022e-05
7.00065e-05
6.06749e-05
5.23316e-05
4.49337e-05
3.84671e-05
3.29544e-05
2.83957e-05
2.48583e-05
2.23687e-05
2.1634e-05
2.19419e-05
2.69128e-05
4.29488e-05
0.000319052
0.00032303
0.000326991
0.000330731
0.000333941
0.000336633
0.000338678
0.000339808
0.000339938
0.000338979
0.000336765
0.00033322
0.000328294
0.000321925
0.000314118
0.000304911
0.000294379
0.000282752
0.000270179
0.000256832
0.000243107
0.000229487
0.000216069
0.000202516
0.000188065
0.00017218
0.000155388
0.000139176
0.00012485
0.000112627
0.00010209
9.29133e-05
8.5211e-05
7.94889e-05
7.82914e-05
9.46243e-05
1.02178e-07
3.11235e-05
0.00499216
0.000314624
0.000310149
0.000305147
0.000298802
0.000291881
0.000284526
0.000276586
0.000268051
0.000259195
0.000250018
0.000240489
0.000230668
0.000220532
0.000210009
0.000199122
0.000187905
0.0001764
0.000164734
0.000153022
0.000141384
0.000129909
0.000118653
0.000107612
9.67916e-05
8.62358e-05
7.60917e-05
6.65895e-05
5.79012e-05
5.0072e-05
4.30867e-05
3.69422e-05
3.16665e-05
2.72594e-05
2.37873e-05
2.12885e-05
2.04296e-05
2.06118e-05
2.49143e-05
3.86068e-05
0.000276794
0.0002804
0.000284082
0.000287602
0.000290745
0.000293541
0.000295838
0.000297434
0.000298261
0.000298223
0.000297185
0.000295075
0.000291816
0.00028734
0.000281615
0.00027466
0.000266518
0.000257313
0.000247213
0.000236331
0.000224877
0.000213271
0.000201595
0.000189615
0.000176811
0.000162793
0.000147941
0.000133419
0.000120347
0.000109029
9.91977e-05
9.06582e-05
8.31774e-05
7.7567e-05
6.97744e-05
8.71613e-05
4.39163e-05
4.27778e-07
0.00032968
0.000272827
0.00026889
0.000264551
0.000259126
0.000253302
0.000247166
0.00024058
0.000233592
0.000226421
0.000219051
0.000211449
0.000203635
0.000195578
0.000187199
0.000178473
0.000169411
0.000160008
0.000150328
0.000140449
0.000130463
0.000120454
0.000110484
0.000100575
9.07623e-05
8.11442e-05
7.18709e-05
6.31266e-05
5.50614e-05
4.77355e-05
4.1156e-05
3.53326e-05
3.03014e-05
2.60736e-05
2.27191e-05
2.02753e-05
1.93463e-05
1.94148e-05
2.30492e-05
3.48134e-05
0.000241037
0.000244306
0.000247696
0.000250974
0.000253998
0.000256781
0.000259193
0.000261065
0.000262342
0.000262938
0.00026273
0.00026165
0.00025963
0.000256592
0.000252512
0.000247361
0.000241156
0.000233956
0.000225921
0.00021709
0.000207578
0.00019773
0.000187642
0.000177159
0.000165904
0.0001536
0.000140524
0.000127578
0.000115701
0.00010525
9.60757e-05
8.80984e-05
8.10773e-05
7.58928e-05
6.90925e-05
7.01096e-05
8.42065e-05
1.7785e-07
2.20833e-05
0.000237494
0.000234006
0.00023023
0.000225566
0.000220638
0.000215469
0.000209957
0.000204191
0.000198336
0.000192369
0.000186255
0.000180006
0.000173572
0.000166865
0.00015986
0.000152521
0.000144835
0.000136822
0.000128524
0.000120002
0.00011132
0.000102538
9.36963e-05
8.48654e-05
7.61551e-05
6.77128e-05
5.96945e-05
5.22359e-05
4.5406e-05
3.92288e-05
3.37244e-05
2.89344e-05
2.48756e-05
2.16182e-05
1.92026e-05
1.81846e-05
1.81485e-05
2.11946e-05
3.13823e-05
0.000210594
0.000213557
0.000216656
0.000219694
0.000222555
0.000225257
0.000227687
0.000229701
0.000231244
0.000232251
0.000232615
0.000232274
0.000231176
0.000229237
0.000226415
0.000222676
0.000218013
0.000212449
0.000206108
0.000199012
0.000191205
0.000182931
0.000174299
0.000165212
0.0001554
0.000144656
0.000133193
0.000121706
0.000110973
0.000101368
9.2838e-05
8.53453e-05
7.88021e-05
7.35176e-05
6.9415e-05
6.12028e-05
9.21316e-05
4.70534e-07
4.42997e-10
0.000207438
0.000204344
0.000201031
0.000197006
0.000192812
0.000188419
0.000183773
0.000178982
0.000174165
0.000169296
0.000164345
0.000159306
0.000154132
0.000148746
0.0001431
0.000137154
0.000130869
0.000124248
0.000117297
0.000110057
0.000102568
9.48775e-05
8.70335e-05
7.91227e-05
7.12702e-05
6.36086e-05
5.62819e-05
4.94088e-05
4.30621e-05
3.72797e-05
3.20902e-05
2.75396e-05
2.36521e-05
2.04989e-05
1.81221e-05
1.70275e-05
1.68958e-05
1.94206e-05
2.82043e-05
0.00018454
0.000187219
0.000190039
0.000192845
0.000195517
0.000198104
0.000200483
0.000202542
0.000204234
0.000205505
0.00020626
0.000206453
0.00020602
0.000204895
0.000203034
0.000200396
0.000196965
0.000192731
0.000187783
0.000182134
0.000175789
0.00016889
0.000161569
0.000153767
0.00014528
0.000135957
0.000125958
0.000115819
0.000106179
9.74031e-05
8.95188e-05
8.24995e-05
7.64039e-05
7.10771e-05
6.80551e-05
5.95336e-05
7.80953e-05
2.9469e-05
5.93154e-07
0.000181723
0.000178975
0.000176058
0.000172567
0.00016898
0.000165218
0.000161275
0.000157265
0.000153271
0.000149266
0.000145226
0.000141141
0.000136959
0.000132606
0.000128039
0.000123207
0.000118064
0.000112593
0.000106786
0.000100651
9.42196e-05
8.75299e-05
8.06198e-05
7.35676e-05
6.65056e-05
5.95802e-05
5.29111e-05
4.66011e-05
4.07242e-05
3.53277e-05
3.04478e-05
2.61329e-05
2.24141e-05
1.93617e-05
1.70197e-05
1.5851e-05
1.56308e-05
1.77216e-05
2.52578e-05
0.000162134
0.000164547
0.000167118
0.000169686
0.000172174
0.000174615
0.000176909
0.000178946
0.000180704
0.000182127
0.000183135
0.000183685
0.000183732
0.000183208
0.000182081
0.000180299
0.000177838
0.000174682
0.00017087
0.000166423
0.000161318
0.00015562
0.000149471
0.000142836
0.000135556
0.000127515
0.000118837
0.000109936
0.000101331
9.33631e-05
8.61164e-05
7.95872e-05
7.38814e-05
6.88001e-05
6.55474e-05
5.99577e-05
6.37631e-05
5.98678e-05
7.09015e-06
0.000159616
0.00015717
0.000154593
0.000151556
0.000148463
0.000145226
0.000141859
0.000138481
0.000135144
0.000131828
0.000128508
0.000125169
0.000121767
0.000118231
0.000114519
0.000110582
0.000106367
0.000101845
9.69969e-05
9.18195e-05
8.63171e-05
8.05143e-05
7.44462e-05
6.81958e-05
6.18868e-05
5.56512e-05
4.95991e-05
4.3824e-05
3.83987e-05
3.33763e-05
2.87985e-05
2.47149e-05
2.11632e-05
1.82114e-05
1.5906e-05
1.46712e-05
1.43699e-05
1.60972e-05
2.25342e-05
0.000142778
0.000144951
0.000147287
0.000149637
0.000151936
0.000154224
0.0001564
0.000158381
0.000160142
0.000161636
0.000162798
0.000163594
0.000163981
0.000163906
0.000163327
0.000162204
0.000160503
0.000158203
0.000155306
0.000151849
0.000147791
0.000143139
0.000138021
0.000132428
0.000126234
0.000119346
0.000111858
0.000104086
9.64519e-05
8.92632e-05
8.26374e-05
7.6606e-05
7.12547e-05
6.65536e-05
6.28601e-05
5.95694e-05
5.62516e-05
6.43948e-05
3.00784e-05
0.000140527
0.000138345
0.000136063
0.000133416
0.000130726
0.000127928
0.000125039
0.000122171
0.000119364
0.000116598
0.00011385
0.000111103
0.000108316
0.000105429
0.000102399
9.91772e-05
9.57146e-05
9.19762e-05
8.79303e-05
8.35633e-05
7.88731e-05
7.38661e-05
6.85641e-05
6.30447e-05
5.74267e-05
5.18298e-05
4.63558e-05
4.10882e-05
3.60966e-05
3.14362e-05
2.71527e-05
2.32954e-05
1.9908e-05
1.7055e-05
1.47863e-05
1.34914e-05
1.31159e-05
1.4551e-05
2.00388e-05
0.000125993
0.000127953
0.000130069
0.000132213
0.00013433
0.000136458
0.000138503
0.0001404
0.000142125
0.000143637
0.000144884
0.000145835
0.000146454
0.000146694
0.000146522
0.000145899
0.000144787
0.000143163
0.000141013
0.000138376
0.000135193
0.000131439
0.000127223
0.000122553
0.000117328
0.000111468
0.000105043
9.8297e-05
9.15652e-05
8.51211e-05
7.90973e-05
7.35571e-05
6.85554e-05
6.42097e-05
6.03626e-05
5.79153e-05
5.32961e-05
5.79339e-05
4.69243e-05
0.00012398
0.000122029
0.000120007
0.000117691
0.00011534
0.000112907
0.000110417
0.000107969
0.000105591
0.000103267
0.000100973
9.86952e-05
9.63981e-05
9.4026e-05
9.15401e-05
8.88936e-05
8.60393e-05
8.29432e-05
7.95693e-05
7.58926e-05
7.18984e-05
6.75899e-05
6.29794e-05
5.81267e-05
5.31372e-05
4.81298e-05
4.31963e-05
3.84078e-05
3.38293e-05
2.95166e-05
2.55173e-05
2.18804e-05
1.86538e-05
1.58978e-05
1.36666e-05
1.23191e-05
1.18766e-05
1.3078e-05
1.77555e-05
0.000111386
0.000113151
0.000115072
0.00011702
0.000118966
0.000120934
0.000122844
0.00012464
0.000126301
0.000127794
0.00012907
0.00013011
0.000130881
0.000131343
0.000131471
0.000131221
0.000130566
0.000129477
0.000127929
0.000125951
0.000123487
0.000120499
0.000117065
0.000113203
0.000108835
0.000103889
9.84123e-05
9.25916e-05
8.66938e-05
8.0954e-05
7.55111e-05
7.0447e-05
6.58056e-05
6.17524e-05
5.80162e-05
5.55707e-05
5.17721e-05
5.1424e-05
5.08161e-05
0.000109587
0.000107839
0.000106042
0.000104009
0.000101947
9.98234e-05
9.76665e-05
9.55634e-05
9.35362e-05
9.15677e-05
8.96422e-05
8.77418e-05
8.58333e-05
8.387e-05
8.18168e-05
7.96341e-05
7.72746e-05
7.47032e-05
7.18848e-05
6.87903e-05
6.53991e-05
6.16997e-05
5.76979e-05
5.34437e-05
4.9033e-05
4.457e-05
4.0136e-05
3.57956e-05
3.16073e-05
2.76261e-05
2.39003e-05
2.04778e-05
1.74077e-05
1.47469e-05
1.25537e-05
1.11604e-05
1.066e-05
1.16807e-05
1.56771e-05
9.86357e-05
0.000100227
0.000101964
0.000103735
0.000105518
0.000107331
0.000109105
0.000110789
0.000112372
0.000113818
0.000115092
0.000116173
0.000117038
0.000117651
0.000117989
0.000118018
0.000117707
0.000117032
0.000115962
0.000114513
0.000112643
0.000110302
0.00010754
0.00010438
0.000100764
9.66209e-05
9.1983e-05
8.69928e-05
8.18591e-05
7.67813e-05
7.18932e-05
6.72866e-05
6.30081e-05
5.9211e-05
5.56956e-05
5.30566e-05
5.01242e-05
4.71792e-05
4.83088e-05
9.70282e-05
9.54603e-05
9.38606e-05
9.20699e-05
9.02534e-05
8.8394e-05
8.65152e-05
8.46997e-05
8.29607e-05
8.1283e-05
7.96518e-05
7.80536e-05
7.64566e-05
7.48228e-05
7.31196e-05
7.13076e-05
6.93481e-05
6.72082e-05
6.48501e-05
6.22437e-05
5.93651e-05
5.61961e-05
5.2733e-05
4.90159e-05
4.51269e-05
4.11607e-05
3.71852e-05
3.32612e-05
2.94405e-05
2.57751e-05
2.23117e-05
1.90964e-05
1.61782e-05
1.36107e-05
1.14558e-05
1.00228e-05
9.4716e-06
1.03593e-05
1.3796e-05
8.74757e-05
8.89084e-05
9.0479e-05
9.20893e-05
9.37162e-05
9.53815e-05
9.70214e-05
9.85929e-05
0.000100083
0.000101467
0.00010271
0.000103799
0.000104711
0.00010542
0.000105906
0.000106136
0.000106086
0.000105728
0.000105036
0.000104014
0.000102627
0.00010083
9.86361e-05
9.60816e-05
9.31147e-05
8.96729e-05
8.57731e-05
8.15234e-05
7.70837e-05
7.26216e-05
6.82596e-05
6.40924e-05
6.01698e-05
5.66193e-05
5.33297e-05
5.05828e-05
4.80488e-05
4.43869e-05
4.44361e-05
8.60351e-05
8.46326e-05
8.32042e-05
8.16231e-05
8.00185e-05
7.83838e-05
7.67413e-05
7.51636e-05
7.36622e-05
7.22223e-05
7.08332e-05
6.94802e-05
6.81357e-05
6.67643e-05
6.53389e-05
6.38277e-05
6.21942e-05
6.04068e-05
5.84301e-05
5.62339e-05
5.37917e-05
5.10805e-05
4.80895e-05
4.48479e-05
4.14262e-05
3.79069e-05
3.43548e-05
3.08164e-05
2.73399e-05
2.39733e-05
2.07605e-05
1.77446e-05
1.49744e-05
1.24986e-05
1.03816e-05
8.91404e-06
8.31946e-06
9.11241e-06
1.2097e-05
7.76818e-05
7.89715e-05
8.03902e-05
8.18538e-05
8.33359e-05
8.4862e-05
8.6372e-05
8.78293e-05
8.92254e-05
9.05345e-05
9.17305e-05
9.28026e-05
9.37307e-05
9.44952e-05
9.50753e-05
9.54489e-05
9.55901e-05
9.54747e-05
9.50782e-05
9.43921e-05
9.33985e-05
9.20459e-05
9.03293e-05
8.82882e-05
8.58831e-05
8.30512e-05
7.97981e-05
7.62037e-05
7.23906e-05
6.84944e-05
6.4627e-05
6.0878e-05
5.72996e-05
5.39975e-05
5.09114e-05
4.81729e-05
4.57192e-05
4.21057e-05
4.09037e-05
7.63903e-05
7.51347e-05
7.38571e-05
7.24583e-05
7.10375e-05
6.95945e-05
6.81541e-05
6.67778e-05
6.54736e-05
6.42306e-05
6.30381e-05
6.18826e-05
6.07402e-05
5.95832e-05
5.83853e-05
5.71166e-05
5.57471e-05
5.42482e-05
5.25876e-05
5.07331e-05
4.86591e-05
4.634e-05
4.37609e-05
4.09404e-05
3.79384e-05
3.48233e-05
3.16552e-05
2.84717e-05
2.53159e-05
2.22298e-05
1.9255e-05
1.64313e-05
1.38047e-05
1.14192e-05
9.33984e-06
7.84109e-06
7.20886e-06
7.94387e-06
1.05732e-05
6.90659e-05
7.02285e-05
7.15098e-05
7.28367e-05
7.41863e-05
7.55805e-05
7.69672e-05
7.83121e-05
7.96127e-05
8.08417e-05
8.19803e-05
8.30175e-05
8.39397e-05
8.47267e-05
8.53651e-05
8.58355e-05
8.61142e-05
8.61801e-05
8.60099e-05
8.55889e-05
8.49089e-05
8.39226e-05
8.26053e-05
8.09999e-05
7.90718e-05
7.67624e-05
7.40688e-05
7.10496e-05
6.7798e-05
6.44196e-05
6.10118e-05
5.76578e-05
5.44105e-05
5.13522e-05
4.84571e-05
4.57899e-05
4.33185e-05
3.98975e-05
3.78856e-05
6.791e-05
6.67841e-05
6.56393e-05
6.44001e-05
6.31393e-05
6.18617e-05
6.05946e-05
5.93874e-05
5.82493e-05
5.71693e-05
5.61396e-05
5.51466e-05
5.41699e-05
5.31849e-05
5.21705e-05
5.11005e-05
4.99468e-05
4.86836e-05
4.72834e-05
4.5716e-05
4.39534e-05
4.19689e-05
3.97442e-05
3.72919e-05
3.46607e-05
3.19115e-05
2.90908e-05
2.62335e-05
2.3375e-05
2.05523e-05
1.78038e-05
1.51648e-05
1.2677e-05
1.03811e-05
8.33966e-06
6.81181e-06
6.14594e-06
6.85439e-06
9.21182e-06
6.14716e-05
6.25192e-05
6.36769e-05
6.48783e-05
6.61052e-05
6.73773e-05
6.8646e-05
6.98849e-05
7.10893e-05
7.22371e-05
7.33105e-05
7.43024e-05
7.52009e-05
7.59898e-05
7.66588e-05
7.71896e-05
7.75627e-05
7.77611e-05
7.77616e-05
7.75485e-05
7.71166e-05
7.64242e-05
7.54395e-05
7.41971e-05
7.26714e-05
7.08077e-05
6.85969e-05
6.60797e-05
6.33252e-05
6.0416e-05
5.74322e-05
5.44478e-05
5.15148e-05
4.86995e-05
4.5985e-05
4.34171e-05
4.09404e-05
3.76742e-05
3.52129e-05
6.04374e-05
5.94279e-05
5.84008e-05
5.73005e-05
5.61797e-05
5.50452e-05
5.39268e-05
5.28653e-05
5.18673e-05
5.09235e-05
5.00277e-05
4.91688e-05
4.83283e-05
4.74849e-05
4.6619e-05
4.571e-05
4.4733e-05
4.36658e-05
4.24805e-05
4.11508e-05
3.96509e-05
3.79531e-05
3.60352e-05
3.39059e-05
3.16029e-05
2.91787e-05
2.66721e-05
2.41116e-05
2.15269e-05
1.89506e-05
1.64157e-05
1.39535e-05
1.16013e-05
9.39435e-06
7.39108e-06
5.8342e-06
5.13617e-06
5.84718e-06
8.00443e-06
5.4766e-05
5.57088e-05
5.67552e-05
5.78415e-05
5.89559e-05
6.0115e-05
6.12731e-05
6.24114e-05
6.35215e-05
6.45882e-05
6.55932e-05
6.65327e-05
6.73947e-05
6.81698e-05
6.88465e-05
6.94104e-05
6.98471e-05
7.0138e-05
7.02664e-05
7.02132e-05
6.99768e-05
6.95178e-05
6.88048e-05
6.78618e-05
6.66725e-05
6.5187e-05
6.3389e-05
6.1307e-05
5.899e-05
5.65006e-05
5.3905e-05
5.12655e-05
4.86261e-05
4.60486e-05
4.35132e-05
4.1056e-05
3.86069e-05
3.54635e-05
3.27621e-05
5.3839e-05
5.29344e-05
5.20131e-05
5.10342e-05
5.00362e-05
4.90281e-05
4.80372e-05
4.71002e-05
4.62211e-05
4.53921e-05
4.46086e-05
4.38604e-05
4.31315e-05
4.24047e-05
4.16624e-05
4.08857e-05
4.00537e-05
3.91462e-05
3.81395e-05
3.70089e-05
3.57292e-05
3.42744e-05
3.26211e-05
3.07724e-05
2.87589e-05
2.66237e-05
2.43992e-05
2.21088e-05
1.97765e-05
1.74301e-05
1.50972e-05
1.2805e-05
1.05859e-05
8.46864e-06
6.50465e-06
4.91678e-06
4.1837e-06
4.92525e-06
6.94121e-06
4.88338e-05
4.96833e-05
5.06272e-05
5.16099e-05
5.26205e-05
5.36742e-05
5.47308e-05
5.57727e-05
5.67933e-05
5.77791e-05
5.87153e-05
5.95975e-05
6.04181e-05
6.11674e-05
6.18369e-05
6.24153e-05
6.28889e-05
6.3243e-05
6.3463e-05
6.35303e-05
6.3443e-05
6.31685e-05
6.26739e-05
6.19789e-05
6.10676e-05
5.98968e-05
5.84486e-05
5.67407e-05
5.48063e-05
5.26906e-05
5.04456e-05
4.81241e-05
4.5763e-05
4.34097e-05
4.10551e-05
3.87113e-05
3.63189e-05
3.32943e-05
3.04748e-05
4.80025e-05
4.71929e-05
4.63666e-05
4.54931e-05
4.4604e-05
4.37071e-05
4.28271e-05
4.19973e-05
4.12199e-05
4.0489e-05
3.98003e-05
3.91447e-05
3.8509e-05
3.78777e-05
3.72371e-05
3.65697e-05
3.58574e-05
3.50825e-05
3.4224e-05
3.32596e-05
3.21661e-05
3.09176e-05
2.94913e-05
2.7886e-05
2.61254e-05
2.42471e-05
2.22758e-05
2.02305e-05
1.813e-05
1.59971e-05
1.38553e-05
1.17266e-05
9.63835e-06
7.61264e-06
5.69107e-06
4.0692e-06
3.29259e-06
4.09429e-06
6.0146e-06
4.35779e-05
4.43437e-05
4.51944e-05
4.60829e-05
4.69989e-05
4.79549e-05
4.89177e-05
4.98691e-05
5.08055e-05
5.17133e-05
5.25814e-05
5.34052e-05
5.4179e-05
5.48941e-05
5.55455e-05
5.61215e-05
5.66136e-05
5.70082e-05
5.72917e-05
5.7447e-05
5.74728e-05
5.73412e-05
5.70216e-05
5.65262e-05
5.58431e-05
5.49343e-05
5.37807e-05
5.23908e-05
5.07869e-05
4.90007e-05
4.7071e-05
4.50389e-05
4.29365e-05
4.07998e-05
3.86204e-05
3.63993e-05
3.40837e-05
3.11901e-05
2.83358e-05
4.28329e-05
4.21078e-05
4.13672e-05
4.05864e-05
3.97939e-05
3.89949e-05
3.82122e-05
3.74751e-05
3.67857e-05
3.61382e-05
3.55296e-05
3.49531e-05
3.4396e-05
3.38444e-05
3.32877e-05
3.27105e-05
3.20975e-05
3.14333e-05
3.06987e-05
2.98732e-05
2.89361e-05
2.78628e-05
2.66308e-05
2.52369e-05
2.36991e-05
2.20471e-05
2.03025e-05
1.84784e-05
1.65903e-05
1.46558e-05
1.26944e-05
1.07236e-05
8.76528e-06
6.83532e-06
4.9624e-06
3.30404e-06
2.46615e-06
3.36193e-06
5.21837e-06
3.89153e-05
3.96047e-05
4.03719e-05
4.1174e-05
4.20034e-05
4.2871e-05
4.37459e-05
4.46135e-05
4.54706e-05
4.63042e-05
4.71053e-05
4.78705e-05
4.85947e-05
4.92713e-05
4.98961e-05
5.0461e-05
5.09568e-05
5.13724e-05
5.16964e-05
5.19146e-05
5.2024e-05
5.20017e-05
5.18201e-05
5.14847e-05
5.09859e-05
5.02921e-05
4.93842e-05
4.8263e-05
4.69427e-05
4.54442e-05
4.37948e-05
4.20261e-05
4.01616e-05
3.823e-05
3.62219e-05
3.41319e-05
3.19073e-05
2.91535e-05
2.63327e-05
3.82474e-05
3.75977e-05
3.6934e-05
3.62363e-05
3.55289e-05
3.48164e-05
3.41195e-05
3.34634e-05
3.28502e-05
3.22748e-05
3.17357e-05
3.1225e-05
3.07335e-05
3.02504e-05
2.97646e-05
2.9263e-05
2.87326e-05
2.81601e-05
2.75287e-05
2.682e-05
2.6015e-05
2.50914e-05
2.40263e-05
2.28144e-05
2.14712e-05
2.00197e-05
1.84773e-05
1.68534e-05
1.51594e-05
1.34094e-05
1.16185e-05
9.80091e-06
7.97271e-06
6.14444e-06
4.33074e-06
2.63868e-06
1.70565e-06
2.74022e-06
4.54648e-06
3.47734e-05
3.53942e-05
3.6085e-05
3.68091e-05
3.75592e-05
3.83453e-05
3.91396e-05
3.99293e-05
4.0712e-05
4.14752e-05
4.22122e-05
4.29198e-05
4.35939e-05
4.42296e-05
4.4823e-05
4.53678e-05
4.58563e-05
4.62793e-05
4.66277e-05
4.68888e-05
4.70578e-05
4.71172e-05
4.70412e-05
4.68316e-05
4.64807e-05
4.5962e-05
4.52562e-05
4.43608e-05
4.3282e-05
4.20323e-05
4.063e-05
3.90975e-05
3.74524e-05
3.5713e-05
3.38717e-05
3.19149e-05
2.97979e-05
2.71959e-05
2.44554e-05
3.41745e-05
3.35929e-05
3.29979e-05
3.23742e-05
3.17427e-05
3.1107e-05
3.04857e-05
2.9901e-05
2.93545e-05
2.88417e-05
2.83618e-05
2.79088e-05
2.74738e-05
2.70476e-05
2.66212e-05
2.61835e-05
2.5723e-05
2.52278e-05
2.4683e-05
2.40732e-05
2.33803e-05
2.25834e-05
2.16615e-05
2.06079e-05
1.94341e-05
1.81598e-05
1.67975e-05
1.5354e-05
1.38377e-05
1.22594e-05
1.06302e-05
8.96089e-06
7.26394e-06
5.54535e-06
3.80748e-06
2.10008e-06
1.01357e-06
2.24621e-06
3.99396e-06
3.10896e-05
3.16483e-05
3.227e-05
3.29234e-05
3.36014e-05
3.43129e-05
3.50333e-05
3.57512e-05
3.64642e-05
3.7162e-05
3.78379e-05
3.84898e-05
3.91142e-05
3.97073e-05
4.0266e-05
4.07855e-05
4.12594e-05
4.16805e-05
4.20401e-05
4.23269e-05
4.25359e-05
4.26543e-05
4.26588e-05
4.25464e-05
4.23123e-05
4.19338e-05
4.13933e-05
4.0685e-05
3.981e-05
3.87741e-05
3.75881e-05
3.62664e-05
3.48202e-05
3.32614e-05