/*--------------------------------*- C++ -*----------------------------------*\
| =========                 |                                                 |
| \\      /  F ield         | OpenFOAM: The Open Source CFD Toolbox           |
|  \\    /   O peration     | Version:  2306                                  |
|   \\  /    A nd           | Website:  www.openfoam.com                      |
|    \\/     M anipulation  |                                                 |
\*---------------------------------------------------------------------------*/
FoamFile
{
    version     2.0;
    format      ascii;
    arch        "LSB;label=32;scalar=64";
    class       volVectorField;
    location    "925";
    object      momentError;
}
// * * * * * * * * * * * * * * * * * * * * * * * * * * * * * * * * * * * * * //

dimensions      [0 1 -2 0 0 0 0];

internalField   nonuniform List<vector> 
10720
(
(-8.90529e-05 0.000260682 -6.95743e-15)
(-8.17808e-05 0.000284028 2.41134e-14)
(-6.14299e-05 0.000290583 -4.72326e-14)
(-1.63889e-05 0.000256875 1.778e-14)
(7.40717e-06 0.000247544 1.10239e-13)
(2.62735e-05 0.000230725 -1.75099e-13)
(4.63897e-05 0.000242122 8.99984e-14)
(7.10279e-05 0.000241896 -1.11069e-13)
(9.69852e-05 0.000233042 -2.5463e-13)
(0.000112544 0.000199975 3.44117e-13)
(0.000113716 0.000162784 1.24149e-13)
(0.000106883 0.000127615 -2.28811e-13)
(9.45124e-05 9.67869e-05 -3.34526e-13)
(8.44926e-05 7.58154e-05 -5.72036e-14)
(7.16683e-05 5.78565e-05 -1.39768e-13)
(5.16552e-05 3.96497e-05 -3.10394e-13)
(4.99784e-05 3.53024e-05 -1.46757e-13)
(6.41689e-05 5.55974e-05 8.32706e-13)
(0.000192862 0.000107906 4.23307e-13)
(0.000194795 -4.93437e-05 -5.95089e-13)
(0.00108687 0.000317956 1.05315e-13)
(0.000304328 0.000695373 1.53274e-13)
(0.00124905 0.000507878 -6.74747e-14)
(0.0218336 0.00384496 -1.5158e-13)
(0.0233799 0.00597766 3.57129e-14)
(-0.00234636 0.00205331 -2.34775e-15)
(-0.0125704 -0.00184186 4.15475e-14)
(-0.0099786 -0.00310984 -1.64632e-14)
(0.000521948 -0.0019873 4.39594e-14)
(0.00534862 -0.00084414 1.54493e-13)
(0.00380261 -0.00018186 3.03038e-14)
(0.000849509 0.000127862 -1.28624e-13)
(-0.00171315 0.000288855 -7.91889e-15)
(-0.00125964 0.000167308 -2.15703e-13)
(-0.00031039 -8.32511e-05 -2.82306e-13)
(0.000420614 -0.00132106 1.15489e-13)
(-0.000828448 -0.0115715 -1.13967e-14)
(-0.0522729 -0.0724264 4.16998e-16)
(-1.19449 0.130229 -5.67031e-14)
(-9.91353e-05 0.000248728 -1.0766e-14)
(-0.000106948 0.000180659 2.65582e-14)
(-0.000119044 0.000122675 1.73226e-15)
(-0.000108135 5.7673e-05 3.61655e-14)
(-0.000104236 2.36582e-05 -3.2885e-14)
(-3.96136e-05 -6.01733e-05 -9.40221e-14)
(-5.95499e-06 -8.41663e-05 -1.07345e-13)
(8.47337e-05 -0.000149045 2.99401e-14)
(9.66903e-05 -8.52007e-05 -7.52065e-14)
(5.09775e-05 -2.27496e-05 9.57956e-14)
(1.03018e-05 2.64294e-05 -6.00385e-14)
(-3.81061e-05 4.85655e-05 -1.46125e-13)
(-5.50939e-05 4.82481e-05 -1.64675e-13)
(-6.3023e-05 4.29131e-05 1.3209e-14)
(-6.32098e-05 3.57101e-05 1.33035e-13)
(-5.97585e-05 2.87401e-05 3.99406e-14)
(-5.46695e-05 2.28979e-05 -5.03069e-14)
(-4.87781e-05 1.78327e-05 -3.54748e-14)
(-4.2448e-05 1.40399e-05 -2.18179e-14)
(-3.61584e-05 1.05391e-05 3.90398e-14)
(-2.94818e-05 8.38473e-06 1.72959e-14)
(-2.33644e-05 6.36027e-06 2.50512e-14)
(-1.74694e-05 6.35087e-06 -3.38374e-14)
(-1.60216e-05 6.99231e-06 -2.46548e-14)
(-1.92338e-05 7.00072e-06 1.81837e-14)
(-2.38797e-05 6.56337e-06 1.24069e-14)
(-2.98776e-05 5.10738e-06 6.92986e-15)
(-3.56312e-05 4.96632e-06 -1.4624e-15)
(-3.52539e-05 2.19889e-06 -2.84488e-16)
(-2.56906e-05 5.9372e-06 2.30723e-16)
(-2.50694e-05 2.12633e-06 -4.51475e-16)
(-3.54187e-05 1.5865e-06 -1.8679e-15)
(-4.29332e-05 5.68325e-07 -1.25991e-15)
(-2.99878e-05 2.17435e-06 -3.84243e-15)
(-6.08588e-05 -5.83445e-07 -2.91008e-15)
(-0.000113291 -9.86827e-06 1.26218e-15)
(-7.75692e-05 1.1663e-05 -2.16362e-15)
(-0.00030038 0.000132411 -1.10554e-14)
(-0.00214685 0.0012688 -2.1491e-14)
(-0.000101877 0.000230678 -1.31424e-14)
(-8.92514e-05 0.000252195 5.88448e-15)
(-6.48831e-05 0.000261704 7.81388e-15)
(-2.56926e-05 0.000242289 -3.3662e-14)
(5.57958e-06 0.000227954 2.10325e-14)
(1.49552e-05 0.000227156 8.03964e-14)
(4.47182e-05 0.000236187 1.03894e-13)
(6.35639e-05 0.000236401 1.00638e-13)
(8.69674e-05 0.000225108 -3.98772e-15)
(9.88027e-05 0.000192408 1.9068e-13)
(9.90459e-05 0.000152541 -2.08859e-13)
(9.09905e-05 0.000119135 -1.19528e-13)
(8.26888e-05 9.38316e-05 4.48617e-13)
(7.26807e-05 7.2194e-05 1.28258e-13)
(6.20715e-05 5.77733e-05 -1.19187e-13)
(3.29229e-05 4.86617e-05 -1.78004e-14)
(7.65247e-05 1.72071e-05 3.42057e-13)
(0.000236744 -7.40422e-05 -1.53339e-13)
(0.000376287 -0.000179728 -4.91942e-13)
(0.00511762 -0.000838954 1.88439e-13)
(-0.0108197 0.00216558 2.35439e-13)
(0.00395034 -0.00171191 4.67708e-14)
(0.0362094 0.00929936 -1.3086e-13)
(0.00818587 0.0109003 1.92532e-13)
(-0.0777989 -0.00614287 -4.19891e-14)
(-0.068794 -0.0121269 -7.04615e-14)
(-0.0172673 -0.00897084 -3.01905e-14)
(0.00359705 -0.00574779 5.60056e-15)
(0.0156231 -0.00143686 -1.4999e-14)
(0.00955387 0.00062899 -1.58865e-14)
(0.00169918 0.00101092 -2.03951e-14)
(-0.00108133 0.000865905 3.52776e-14)
(-0.00143896 0.000498176 -1.88218e-13)
(-0.00164126 0.000257427 -2.24044e-13)
(-0.000752382 2.6275e-05 1.62298e-13)
(0.000482411 -0.000441872 -3.94958e-14)
(0.00155706 -0.00232231 3.30593e-14)
(0.0323726 -0.0142242 -1.40049e-14)
(0.987497 -0.118623 -4.40506e-14)
(-0.000110662 0.000206962 -4.63885e-15)
(-0.000131789 0.000164326 1.24099e-13)
(-0.000141363 0.000114895 -7.98389e-15)
(-0.000144714 6.58174e-05 -1.29075e-13)
(-0.000130026 1.69341e-05 -2.56851e-14)
(-9.27674e-05 -3.27195e-05 1.27346e-13)
(-5.37746e-05 -6.11026e-05 1.11416e-13)
(4.6125e-06 -7.75842e-05 5.95855e-14)
(2.91601e-05 -3.42693e-05 -8.25876e-14)
(1.79136e-05 8.31575e-06 -1.06488e-14)
(-4.50919e-06 4.02834e-05 1.01897e-13)
(-3.19633e-05 5.14904e-05 -5.21001e-15)
(-4.7509e-05 5.10815e-05 1.22904e-14)
(-5.56172e-05 4.5929e-05 -2.47922e-14)
(-5.75477e-05 3.90513e-05 -3.2588e-14)
(-5.55817e-05 3.21303e-05 1.41525e-14)
(-5.17997e-05 2.58238e-05 1.7087e-14)
(-4.67486e-05 2.04596e-05 -5.80435e-14)
(-4.12e-05 1.59153e-05 2.69296e-14)
(-3.5202e-05 1.23057e-05 1.7845e-14)
(-2.91928e-05 9.20765e-06 1.46788e-14)
(-2.32721e-05 7.2137e-06 3.1909e-14)
(-1.84252e-05 5.86523e-06 4.17815e-14)
(-1.70728e-05 6.89799e-06 1.76492e-14)
(-1.99951e-05 6.88104e-06 -1.51651e-14)
(-2.43699e-05 6.72612e-06 8.16108e-16)
(-2.9934e-05 5.90284e-06 -5.68178e-15)
(-3.62119e-05 4.77244e-06 -2.08569e-15)
(-3.54148e-05 2.75359e-06 3.93292e-16)
(-2.9574e-05 -2.43357e-07 -3.86622e-17)
(-4.2861e-05 4.48139e-06 2.83106e-16)
(-4.76466e-05 6.28026e-08 6.142e-16)
(-5.3321e-05 -1.61476e-06 1.84988e-15)
(-7.86786e-05 -8.81553e-07 2.35643e-15)
(-7.57498e-05 3.15516e-06 7.67033e-16)
(-7.7363e-05 -7.07871e-06 -1.55164e-15)
(-0.000203478 -1.53625e-05 -6.70228e-17)
(-0.000313535 -1.97331e-05 3.77888e-15)
(-0.00154497 -0.000201864 9.20257e-15)
(-7.88564e-05 0.000203244 -5.07372e-15)
(-7.09773e-05 0.000216088 -8.20193e-16)
(-4.74363e-05 0.000216705 -5.83694e-15)
(-1.50755e-05 0.000209085 1.55514e-14)
(4.14165e-06 0.000199947 3.91317e-15)
(1.87488e-05 0.000207964 -3.37372e-14)
(3.81708e-05 0.000213988 -1.07609e-13)
(5.93364e-05 0.000217013 -9.54173e-14)
(7.98385e-05 0.000199705 -1.11321e-13)
(9.206e-05 0.000172116 1.10097e-14)
(9.36943e-05 0.000140803 2.64052e-13)
(8.78737e-05 0.000114371 7.06209e-14)
(7.89502e-05 9.43039e-05 -9.93109e-14)
(6.55332e-05 8.13986e-05 -2.41053e-13)
(5.33104e-05 6.89878e-05 1.10245e-13)
(4.91127e-05 6.40728e-05 1.45922e-13)
(-7.73043e-06 0.000136047 -9.42421e-14)
(-0.000208632 0.000275883 -1.89373e-13)
(-0.000536719 0.00118303 3.17156e-13)
(-0.00389051 0.000769457 -9.48704e-14)
(0.0070757 -0.00984305 -1.19558e-13)
(0.00030236 -0.00233037 1.78542e-13)
(-0.0294548 -0.0138214 7.38941e-14)
(-0.0505213 -0.0105842 -3.36043e-15)
(-0.000366076 0.00303848 -3.30716e-14)
(0.0514567 0.00881755 3.55386e-15)
(0.0485303 0.000788348 -3.06127e-14)
(0.0826769 0.000811969 2.10659e-14)
(0.0329744 0.00272169 -3.31742e-14)
(-0.0150495 0.00140446 -7.20992e-14)
(-0.0130084 0.00111736 6.96115e-14)
(-0.0067579 0.00120256 3.08457e-14)
(-0.00236586 0.00064436 -1.21841e-13)
(-0.000420878 7.553e-05 7.82253e-14)
(0.000733919 -0.00020555 1.65089e-14)
(0.00147096 -0.0004698 -3.61583e-14)
(0.00317839 -0.00134248 -9.98094e-14)
(0.016697 -0.00209462 2.76701e-14)
(0.111438 -0.00953856 6.03201e-15)
(-9.97044e-05 0.0001769 2.9218e-14)
(-0.000112141 0.000146436 -2.76868e-14)
(-0.000123772 0.000106893 -9.83431e-14)
(-0.000125177 7.10939e-05 4.48518e-14)
(-0.000114482 3.149e-05 2.05983e-14)
(-9.341e-05 -3.2037e-06 -6.45708e-14)
(-6.31037e-05 -2.57621e-05 1.35492e-14)
(-2.86487e-05 -3.07842e-05 -1.17648e-13)
(-9.75562e-06 -5.0579e-06 -7.91932e-14)
(-9.21834e-06 1.98291e-05 -8.81237e-14)
(-2.14672e-05 3.84969e-05 9.75412e-14)
(-3.68714e-05 4.64607e-05 1.45331e-14)
(-4.79038e-05 4.72814e-05 -1.36542e-14)
(-5.38723e-05 4.40024e-05 -8.08996e-14)
(-5.52769e-05 3.87436e-05 -5.80884e-14)
(-5.34906e-05 3.26301e-05 3.78567e-14)
(-5.00464e-05 2.67064e-05 -2.1374e-14)
(-4.54704e-05 2.13858e-05 -4.39723e-14)
(-4.0247e-05 1.68956e-05 -4.00348e-15)
(-3.4591e-05 1.30626e-05 -4.02393e-14)
(-2.88038e-05 1.03498e-05 -4.3e-14)
(-2.30963e-05 8.68679e-06 -8.43248e-14)
(-1.83769e-05 8.9148e-06 -6.39428e-14)
(-1.69529e-05 1.06238e-05 -1.79984e-14)
(-1.94918e-05 1.09484e-05 3.95027e-15)
(-2.36836e-05 1.01214e-05 -1.14739e-15)
(-2.8833e-05 8.48063e-06 -1.05282e-14)
(-3.48625e-05 6.68266e-06 4.47366e-15)
(-3.45312e-05 2.86403e-06 5.81711e-16)
(-2.87163e-05 5.53565e-06 -1.81313e-16)
(-3.38851e-05 2.9443e-06 -9.50005e-18)
(-4.11911e-05 8.6004e-07 -5.34341e-16)
(-4.73058e-05 -1.62235e-06 -9.83416e-16)
(-5.6769e-05 -8.7412e-06 -1.46503e-15)
(-0.000100005 -2.19738e-06 1.86586e-15)
(-0.000192639 5.1902e-05 3.71049e-17)
(-0.000151547 3.05239e-05 1.44742e-14)
(-0.000198476 -3.1014e-05 8.74858e-15)
(-0.00119486 -0.000225948 -1.03371e-13)
(-6.60911e-05 0.000169932 7.92674e-15)
(-5.31722e-05 0.000192903 -2.34387e-15)
(-3.63701e-05 0.000189917 6.66064e-17)
(-1.14465e-05 0.00018879 -7.13004e-15)
(2.19604e-07 0.00018662 1.9958e-15)
(1.74325e-05 0.00019634 3.58142e-14)
(3.54857e-05 0.000205382 5.84656e-14)
(5.53723e-05 0.000199576 5.46313e-14)
(7.32236e-05 0.000184403 -1.33388e-13)
(8.37444e-05 0.000160821 -1.11642e-13)
(8.49936e-05 0.000133598 1.41517e-13)
(8.13803e-05 0.000111073 2.56581e-13)
(7.32836e-05 9.36068e-05 1.35702e-13)
(6.4005e-05 8.03747e-05 -4.72147e-13)
(5.58621e-05 6.80121e-05 -1.62161e-13)
(4.2242e-05 6.43443e-05 3.8591e-13)
(2.99944e-05 4.53078e-05 8.39267e-14)
(5.02928e-05 -3.45097e-05 -1.2427e-13)
(-3.37636e-05 -0.000105703 -2.28419e-13)
(-0.000231689 -0.00164426 1.97904e-13)
(0.00253742 0.00450754 4.35908e-14)
(0.000476531 0.000145931 -2.22434e-13)
(0.0101555 0.00748573 1.65569e-13)
(0.014094 0.00898556 -1.14159e-13)
(0.012208 0.0052923 -3.71812e-14)
(0.0337339 -0.00775354 3.56576e-14)
(0.096152 -0.0247032 -4.55987e-14)
(-0.059368 -0.00334842 1.00991e-14)
(-0.0415531 0.00528785 1.3654e-14)
(0.0235767 -0.00246819 2.09646e-14)
(-0.0289868 0.00509554 -9.02529e-15)
(-0.0168812 0.000731266 2.55595e-14)
(-0.00653 0.000373492 2.0724e-13)
(0.000542012 -0.000455738 5.34551e-14)
(0.00229151 -0.000538471 -7.58473e-14)
(0.00215916 -0.000560391 -1.16592e-13)
(0.00241287 -0.000734187 1.66383e-14)
(0.00699666 0.000188326 -2.82613e-14)
(0.0331585 -0.00909377 4.72035e-14)
(-8.58634e-05 0.000152672 1.88164e-14)
(-9.80345e-05 0.000132099 -3.68743e-14)
(-0.000108086 0.000103516 -4.04094e-15)
(-0.000107459 7.51334e-05 -3.37242e-14)
(-0.000101583 4.35628e-05 -2.08221e-14)
(-8.60436e-05 1.63428e-05 7.34766e-14)
(-6.40368e-05 -4.47722e-06 -1.8417e-13)
(-4.00691e-05 -6.98152e-06 1.69127e-13)
(-2.96529e-05 9.83267e-06 2.01469e-15)
(-2.70831e-05 2.47389e-05 -1.20416e-13)
(-3.34781e-05 3.70996e-05 -7.02476e-14)
(-4.19504e-05 4.32218e-05 -1.98382e-14)
(-4.91457e-05 4.44448e-05 5.9586e-14)
(-5.3069e-05 4.20561e-05 1.29281e-13)
(-5.37499e-05 3.73722e-05 2.11142e-14)
(-5.19037e-05 3.16877e-05 -4.73378e-14)
(-4.87006e-05 2.59764e-05 2.21982e-14)
(-4.45041e-05 2.0731e-05 5.00095e-14)
(-3.95983e-05 1.64118e-05 -3.67787e-15)
(-3.42521e-05 1.26794e-05 -7.7828e-15)
(-2.87443e-05 1.01367e-05 -2.14374e-14)
(-2.33765e-05 8.52781e-06 5.28066e-14)
(-1.89879e-05 8.72875e-06 3.09351e-14)
(-1.75855e-05 1.0272e-05 -1.07666e-14)
(-1.9705e-05 1.07489e-05 -1.69119e-14)
(-2.36394e-05 1.00076e-05 -6.96405e-15)
(-2.86671e-05 8.44826e-06 1.26251e-14)
(-3.44586e-05 6.7356e-06 -8.9135e-16)
(-3.42124e-05 2.90492e-06 -5.13453e-16)
(-2.92839e-05 2.63077e-06 2.01637e-16)
(-3.35189e-05 5.5524e-06 -3.98895e-17)
(-4.10881e-05 1.19291e-06 -3.67617e-17)
(-3.75096e-05 3.05269e-05 2.74446e-16)
(4.80287e-05 0.000353221 5.1249e-16)
(0.000550325 0.00200571 -3.23048e-15)
(0.000776226 0.00288943 7.58328e-15)
(-0.000493506 -0.00165843 -1.28909e-14)
(-0.000348355 -0.000311116 -2.99063e-14)
(-0.00108413 -0.000198147 -1.05205e-16)
(-5.70505e-05 0.000148801 -4.04106e-15)
(-4.06319e-05 0.000165107 4.77981e-15)
(-2.39062e-05 0.000168902 5.64868e-17)
(-7.9724e-06 0.000170202 -4.17629e-15)
(3.9256e-06 0.00017312 -2.88316e-14)
(1.90251e-05 0.000181804 3.46356e-14)
(3.83716e-05 0.00018503 1.26339e-14)
(5.72379e-05 0.00017802 -7.01523e-14)
(7.25242e-05 0.00016333 -5.82309e-14)
(8.17655e-05 0.000142506 -1.21381e-13)
(8.3572e-05 0.000119954 1.74614e-14)
(8.06837e-05 0.000101367 -1.32354e-13)
(7.39836e-05 8.66034e-05 8.04617e-15)
(6.51481e-05 7.55209e-05 3.54352e-13)
(5.35893e-05 6.7464e-05 -2.34206e-13)
(4.22153e-05 6.29337e-05 -1.67665e-13)
(2.89383e-05 6.35885e-05 1.01579e-13)
(1.73449e-05 5.65256e-05 -1.31965e-13)
(-4.05332e-05 2.03792e-05 8.48917e-14)
(-5.85181e-05 5.98536e-05 -1.4397e-13)
(-0.000147159 8.04011e-05 -1.61815e-13)
(-0.000529814 0.000177237 1.83267e-13)
(0.00288987 0.00095435 -4.05341e-14)
(0.00321603 0.00204451 8.9688e-14)
(-0.00662109 0.00254238 5.67602e-14)
(-0.0403585 0.0051053 6.28319e-15)
(-0.0849662 0.00925712 1.08851e-13)
(0.0247683 -0.00567031 -2.11569e-14)
(0.0214288 0.00287958 2.25272e-14)
(0.00522959 0.00170011 -5.5386e-14)
(-0.00706919 -0.00295321 -1.55683e-13)
(0.00118835 0.00154347 1.36949e-15)
(-0.00605454 -0.000574484 1.40175e-13)
(0.00142423 -0.000692139 -3.31587e-14)
(0.00407799 -0.000695204 -1.04841e-13)
(0.00410253 -0.000564998 1.1802e-13)
(0.00201107 -0.000407885 -3.96401e-14)
(0.00407541 0.000685628 -1.66261e-14)
(0.0199268 -0.00938513 -9.7964e-16)
(-6.72162e-05 0.000135391 2.02826e-14)
(-8.04385e-05 0.000121442 1.43635e-14)
(-8.63562e-05 0.000100711 -3.19923e-14)
(-8.95399e-05 7.68802e-05 7.88747e-14)
(-8.60252e-05 5.13442e-05 1.86884e-13)
(-7.69423e-05 2.88786e-05 -6.87529e-14)
(-6.27574e-05 1.16689e-05 -7.24483e-14)
(-4.71727e-05 9.93009e-06 1.5044e-13)
(-3.9996e-05 1.95361e-05 1.26936e-13)
(-3.80378e-05 2.82607e-05 3.5648e-14)
(-4.15462e-05 3.59165e-05 -5.19378e-14)
(-4.65696e-05 4.01577e-05 5.91809e-14)
(-5.08595e-05 4.1143e-05 4.54279e-14)
(-5.30459e-05 3.92079e-05 -3.9818e-15)
(-5.27498e-05 3.52575e-05 -9.37209e-14)
(-5.05707e-05 3.02105e-05 3.96392e-15)
(-4.74082e-05 2.52229e-05 3.73007e-15)
(-4.33967e-05 2.05729e-05 2.06826e-16)
(-3.87789e-05 1.66556e-05 1.51383e-14)
(-3.36896e-05 1.3278e-05 -5.43059e-15)
(-2.84688e-05 1.11066e-05 1.2301e-14)
(-2.33999e-05 9.8489e-06 -2.67242e-14)
(-1.92476e-05 1.05699e-05 -1.53649e-14)
(-1.77534e-05 1.22694e-05 1.55016e-14)
(-1.94856e-05 1.31475e-05 2.09528e-14)
(-2.31698e-05 1.23528e-05 1.25522e-15)
(-2.81567e-05 1.05251e-05 -1.2369e-15)
(-3.38486e-05 7.99713e-06 -3.25987e-15)
(-3.39006e-05 3.61455e-06 6.54246e-16)
(-2.92719e-05 5.10054e-06 -1.04565e-16)
(-3.29738e-05 7.08255e-06 -5.30363e-16)
(-4.01785e-05 2.30778e-06 -2.80181e-17)
(-4.50895e-05 -4.72193e-05 7.7051e-17)
(-6.29948e-05 -0.000545545 -7.0588e-17)
(-0.000232213 -0.00293582 -9.30774e-16)
(-0.000388197 -0.00388456 -6.95753e-16)
(-0.000234726 0.00226707 1.03197e-14)
(-0.000280113 0.000248052 -1.08843e-14)
(-0.00101648 -0.000249304 5.48872e-15)
(-4.36932e-05 0.000134031 1.93827e-15)
(-3.14818e-05 0.000144066 5.06796e-16)
(-1.71773e-05 0.000150478 3.16249e-15)
(-4.52226e-06 0.000158246 -2.45878e-15)
(6.24501e-06 0.000160452 -1.08434e-15)
(2.15021e-05 0.000167373 1.63381e-14)
(3.97265e-05 0.000168779 7.60512e-15)
(5.5926e-05 0.000160321 4.04773e-14)
(6.93941e-05 0.000148512 6.79652e-14)
(7.7247e-05 0.000131013 -3.20432e-14)
(7.91334e-05 0.000112427 -7.79472e-15)
(7.71984e-05 9.71046e-05 7.50086e-14)
(7.19696e-05 8.46393e-05 -1.45507e-13)
(6.3839e-05 7.46418e-05 -2.89384e-13)
(5.41637e-05 6.66372e-05 1.75229e-13)
(4.49567e-05 5.95875e-05 2.68354e-13)
(3.77034e-05 5.07845e-05 -3.55848e-13)
(2.46565e-05 3.79782e-05 6.06679e-14)
(-8.3247e-06 8.57834e-06 1.11899e-13)
(-6.41646e-05 3.87393e-05 -1.12965e-13)
(-0.000111161 0.000139634 8.56209e-14)
(-0.000314339 0.000108203 -8.73352e-14)
(-0.000622341 0.000791073 -1.69252e-13)
(5.4684e-05 0.00245091 -5.03176e-14)
(0.00150917 0.00241708 -1.16203e-13)
(0.00276596 -0.000773736 5.63304e-14)
(0.00274261 -0.00296935 -1.6212e-14)
(0.00443149 -0.00233099 -1.09016e-14)
(-0.000942263 0.000366314 2.13837e-14)
(-0.0252862 0.00541759 4.23993e-14)
(0.0247322 -0.00106781 3.28936e-14)
(0.000554114 0.000440993 -4.52677e-14)
(0.000701141 -0.000894023 -1.16438e-13)
(-0.00187547 -0.000552335 -1.48654e-13)
(0.00116602 -0.000290999 3.3778e-14)
(0.00289772 0.000226345 7.33063e-14)
(0.00191747 -0.000316076 8.46108e-14)
(0.00370116 0.000654465 3.8485e-14)
(0.0167333 -0.0099097 2.88102e-14)
(-5.35127e-05 0.000123526 8.59491e-15)
(-6.25627e-05 0.000114299 -2.0693e-14)
(-6.82099e-05 9.72761e-05 1.04909e-14)
(-7.17222e-05 7.69683e-05 -5.83381e-15)
(-7.2147e-05 5.63176e-05 4.68177e-15)
(-6.86639e-05 3.54861e-05 -7.8182e-14)
(-6.02504e-05 2.26129e-05 -2.9426e-14)
(-5.07061e-05 2.09604e-05 -3.50567e-14)
(-4.60111e-05 2.5558e-05 2.74176e-14)
(-4.47529e-05 3.05261e-05 1.35735e-13)
(-4.69793e-05 3.50284e-05 -3.03588e-14)
(-5.01757e-05 3.78026e-05 -5.88494e-14)
(-5.25529e-05 3.83392e-05 2.50175e-15)
(-5.3295e-05 3.65981e-05 -5.12985e-14)
(-5.20734e-05 3.31838e-05 1.7003e-14)
(-4.94653e-05 2.87517e-05 2.54111e-14)
(-4.62316e-05 2.43705e-05 3.93181e-14)
(-4.23774e-05 2.02756e-05 1.5049e-14)
(-3.79762e-05 1.66904e-05 -1.7703e-14)
(-3.3142e-05 1.36422e-05 2.27255e-14)
(-2.82523e-05 1.15554e-05 2.51826e-14)
(-2.3511e-05 1.05411e-05 1.82592e-14)
(-1.97039e-05 1.11956e-05 3.81562e-15)
(-1.81418e-05 1.28116e-05 -1.44097e-14)
(-1.95277e-05 1.36958e-05 1.18015e-14)
(-2.28535e-05 1.31835e-05 3.28033e-15)
(-2.77066e-05 1.13159e-05 -1.13708e-14)
(-3.32197e-05 8.797e-06 1.2234e-15)
(-3.35853e-05 4.1916e-06 -1.18421e-16)
(-2.94672e-05 4.64649e-06 2.05566e-16)
(-3.28706e-05 5.64062e-06 6.67061e-16)
(-4.07854e-05 3.30421e-06 -1.60473e-16)
(-5.33107e-05 1.67172e-05 -2.50673e-16)
(-0.000111816 0.000152655 5.63724e-16)
(-0.000379151 0.000916397 1.39596e-15)
(-0.0005614 0.000953434 -1.18988e-14)
(0.000212586 -0.000815123 3.4651e-15)
(-0.000236322 6.28776e-05 4.41945e-14)
(-0.001316 0.000505723 3.10299e-14)
(-2.88697e-05 0.000120724 3.09102e-15)
(-2.0834e-05 0.000131345 5.82455e-16)
(-1.0638e-05 0.00013689 -1.12641e-15)
(4.61745e-07 0.000145667 4.1696e-15)
(1.13434e-05 0.000149054 -8.69014e-15)
(2.51765e-05 0.000152763 -1.0943e-15)
(4.18283e-05 0.000151039 2.35995e-14)
(5.59162e-05 0.000144707 -1.11468e-14)
(6.75384e-05 0.000134022 -3.96141e-14)
(7.44531e-05 0.000119191 2.65385e-14)
(7.66126e-05 0.000103631 -6.07785e-14)
(7.60071e-05 9.06574e-05 -1.50861e-13)
(7.17088e-05 8.00737e-05 1.06603e-13)
(6.46773e-05 7.08181e-05 3.77166e-13)
(5.58913e-05 6.31661e-05 -1.38923e-14)
(4.50946e-05 5.77534e-05 -4.01368e-13)
(3.45785e-05 5.36479e-05 3.32533e-13)
(2.16431e-05 4.82675e-05 2.33369e-13)
(-4.81005e-06 3.95091e-05 1.24569e-13)
(-4.06361e-05 6.51134e-05 5.87362e-14)
(-7.00202e-05 0.000103684 -2.88419e-14)
(-0.000222561 0.00012342 1.61935e-13)
(-0.000306427 0.00060947 1.11967e-13)
(0.000729516 0.00163068 -1.01878e-14)
(0.00231167 0.00138907 2.14256e-13)
(0.00192937 -0.000784277 -6.57057e-14)
(-0.000286282 -0.00234841 -7.65303e-15)
(-0.00287347 -0.00129514 5.67733e-15)
(-0.00267415 0.000442594 -2.01428e-14)
(0.000976155 0.000920256 -2.08083e-14)
(0.00250396 0.000776906 -1.52564e-14)
(0.00245596 0.000310901 4.77715e-14)
(0.00078408 -0.000491744 -2.27746e-14)
(-0.00236318 -0.000403553 -1.27978e-13)
(-0.00418193 0.000355856 -2.08046e-14)
(-0.0233027 0.00764799 -1.02629e-13)
(0.00776467 -0.00264838 -5.75834e-14)
(0.00296415 0.000951835 6.46739e-15)
(0.0128235 -0.00918498 -2.59302e-14)
(-3.92563e-05 0.000114139 -9.66503e-15)
(-4.66423e-05 0.000107209 1.2194e-14)
(-5.35184e-05 9.31048e-05 -2.61343e-14)
(-5.86363e-05 7.43826e-05 -3.94508e-15)
(-6.14013e-05 5.43153e-05 7.38142e-15)
(-6.03614e-05 3.86159e-05 1.10947e-14)
(-5.56819e-05 2.85485e-05 8.0639e-14)
(-5.13709e-05 2.76194e-05 -1.01462e-13)
(-4.88442e-05 2.9496e-05 -3.28009e-14)
(-4.86784e-05 3.19373e-05 -3.11479e-14)
(-5.05041e-05 3.43636e-05 1.17307e-13)
(-5.27455e-05 3.59312e-05 -4.64458e-14)
(-5.40323e-05 3.58258e-05 -4.56719e-15)
(-5.36655e-05 3.40324e-05 1.85391e-14)
(-5.17062e-05 3.07786e-05 1.77851e-14)
(-4.86806e-05 2.68735e-05 1.20879e-14)
(-4.53372e-05 2.30681e-05 -7.68254e-14)
(-4.15278e-05 1.95555e-05 -2.81417e-14)
(-3.72834e-05 1.63522e-05 3.58169e-14)
(-3.26713e-05 1.37031e-05 1.4287e-15)
(-2.8079e-05 1.17755e-05 3.6386e-14)
(-2.36733e-05 1.1057e-05 -1.03901e-14)
(-2.01202e-05 1.1724e-05 1.50657e-15)
(-1.8526e-05 1.33946e-05 2.42352e-14)
(-1.95236e-05 1.44719e-05 -2.03627e-14)
(-2.25487e-05 1.43134e-05 -6.98976e-15)
(-2.71444e-05 1.27122e-05 6.58208e-15)
(-3.25402e-05 9.92341e-06 2.19789e-15)
(-3.31547e-05 5.2093e-06 -1.1684e-18)
(-2.95926e-05 5.27778e-06 -2.57085e-16)
(-3.27342e-05 5.84518e-06 6.37523e-16)
(-4.02037e-05 1.58018e-06 7.50566e-17)
(-4.70058e-05 -1.19345e-07 -1.08034e-15)
(-5.4864e-05 -8.52688e-06 5.43613e-17)
(-6.00366e-05 -3.80671e-05 -3.16237e-15)
(-2.53438e-05 7.89821e-05 7.24228e-15)
(-8.54947e-05 0.000126249 -1.54388e-15)
(-0.000227422 -2.64304e-05 -2.46457e-15)
(-0.000690543 -0.000420617 -4.22079e-14)
(-2.08006e-05 0.000111535 1.40114e-15)
(-1.45576e-05 0.000122699 1.51055e-15)
(-4.74384e-06 0.000128148 -9.49545e-16)
(6.17196e-06 0.00013477 -1.91883e-15)
(1.55739e-05 0.000137764 -3.80275e-15)
(2.96065e-05 0.000142255 1.65053e-14)
(4.35317e-05 0.000140111 1.3875e-14)
(5.55788e-05 0.000132546 -5.19114e-14)
(6.52683e-05 0.00012284 2.17311e-14)
(7.12808e-05 0.000110194 1.11285e-13)
(7.39995e-05 9.62838e-05 4.63175e-14)
(7.41641e-05 8.56976e-05 2.13133e-14)
(7.11544e-05 7.65018e-05 -1.87881e-13)
(6.50826e-05 6.82796e-05 -4.29855e-13)
(5.67924e-05 6.12736e-05 -3.04036e-13)
(4.69587e-05 5.54679e-05 1.20067e-13)
(3.7754e-05 4.98579e-05 -7.38522e-14)
(2.79857e-05 4.47362e-05 -3.77114e-13)
(5.82617e-06 4.53208e-05 -1.94584e-13)
(-2.01262e-05 7.35505e-05 1.60888e-13)
(-3.98432e-05 0.00010985 1.60969e-13)
(-0.000131642 0.000141911 -9.33451e-14)
(-0.000134061 0.000512216 -3.83133e-14)
(0.000569728 0.00117564 2.39798e-15)
(0.00175717 0.000848598 -6.09648e-14)
(0.00181269 -0.00101972 6.32916e-14)
(-5.24503e-05 -0.00232216 7.21957e-15)
(-0.00188167 -0.00141568 4.32065e-15)
(-0.00213817 0.000262077 -4.41463e-15)
(-0.00152251 0.00120012 5.21809e-14)
(0.000529062 0.00103489 3.49632e-14)
(0.00147681 0.000318594 -3.44307e-15)
(0.00133868 -0.000395494 1.13106e-13)
(-0.000279471 -0.000706148 7.80658e-14)
(-0.00142384 -0.00232149 -4.04151e-14)
(0.0128784 -0.00200768 7.07846e-14)
(0.00346607 0.00151869 5.82181e-14)
(0.00298691 -0.0021814 -3.49671e-14)
(0.0086322 -0.0077914 -2.7744e-14)
(-2.87857e-05 0.00010465 7.39128e-15)
(-3.71184e-05 9.97212e-05 -1.20441e-14)
(-4.46703e-05 8.50166e-05 3.26933e-15)
(-5.17119e-05 6.83684e-05 6.10928e-14)
(-5.36054e-05 5.49336e-05 3.14461e-15)
(-5.31846e-05 4.02169e-05 1.01651e-13)
(-5.11715e-05 3.252e-05 1.36656e-13)
(-4.98157e-05 3.20065e-05 -5.29996e-14)
(-4.96089e-05 3.18494e-05 -7.25299e-14)
(-5.0504e-05 3.26726e-05 -5.54112e-14)
(-5.25456e-05 3.38272e-05 -1.02164e-13)
(-5.44488e-05 3.43807e-05 -5.52865e-15)
(-5.50781e-05 3.36664e-05 -4.305e-14)
(-5.40314e-05 3.15826e-05 5.78122e-14)
(-5.14753e-05 2.84446e-05 1.93966e-14)
(-4.81253e-05 2.49278e-05 -3.07511e-14)
(-4.46612e-05 2.16938e-05 -3.26307e-15)
(-4.0851e-05 1.86705e-05 -2.54405e-14)
(-3.66866e-05 1.58907e-05 2.7909e-15)
(-3.22683e-05 1.35263e-05 -1.77679e-14)
(-2.7925e-05 1.18909e-05 -3.33798e-14)
(-2.38756e-05 1.13068e-05 1.47957e-14)
(-2.05637e-05 1.20159e-05 -2.76254e-14)
(-1.89793e-05 1.35636e-05 -1.00664e-14)
(-1.9631e-05 1.48154e-05 6.28566e-15)
(-2.23258e-05 1.48903e-05 3.97114e-15)
(-2.6594e-05 1.36629e-05 1.56319e-15)
(-3.17864e-05 1.07921e-05 -1.03505e-15)
(-3.26372e-05 6.17155e-06 -4.35122e-16)
(-2.96167e-05 5.47795e-06 -7.72706e-17)
(-3.24618e-05 5.96838e-06 -1.03019e-15)
(-3.96936e-05 2.28262e-06 5.53276e-16)
(-4.66739e-05 6.48772e-07 3.06319e-15)
(-5.42461e-05 -2.20687e-06 5.11862e-17)
(-6.62641e-05 8.16271e-06 2.4974e-15)
(-8.66116e-05 2.51424e-05 -3.42265e-15)
(-0.000135833 8.29875e-06 -6.46609e-15)
(-0.00022751 -7.78512e-05 3.7862e-15)
(-0.000304698 -0.000595395 -2.26297e-14)
(-1.69634e-05 0.000102072 2.41731e-15)
(-9.93784e-06 0.00011243 4.02437e-15)
(-1.71954e-06 0.000120827 -1.76075e-16)
(1.01744e-05 0.000124235 1.80305e-19)
(2.01538e-05 0.000123292 -2.54028e-15)
(3.15702e-05 0.000131048 -6.73414e-15)
(4.4573e-05 0.000129237 -4.93855e-15)
(5.60817e-05 0.000124757 -5.23679e-14)
(6.44158e-05 0.000115792 -1.00713e-15)
(6.89511e-05 0.000102679 1.92802e-14)
(7.17797e-05 8.98596e-05 -2.32913e-14)
(7.37416e-05 8.0133e-05 1.41246e-13)
(7.12708e-05 7.23501e-05 1.49071e-13)
(6.60582e-05 6.48863e-05 2.69491e-14)
(5.85365e-05 5.8239e-05 2.76871e-13)
(4.92842e-05 5.27886e-05 -5.76105e-14)
(3.92732e-05 4.92109e-05 -7.29755e-16)
(3.01236e-05 4.792e-05 2.14469e-13)
(1.55772e-05 5.1362e-05 9.99259e-14)
(-1.87641e-06 7.38473e-05 -2.94234e-14)
(-1.32951e-05 0.000111232 -1.21911e-13)
(-5.38182e-05 0.00015997 -1.15865e-14)
(-1.64876e-05 0.000420489 -9.36596e-14)
(0.000503477 0.000842718 -8.10376e-14)
(0.00135782 0.000524082 4.88752e-14)
(0.00136425 -0.000926812 -3.1092e-14)
(5.47259e-06 -0.00199455 -5.64886e-14)
(-0.00142648 -0.001317 6.4511e-15)
(-0.0016056 9.96622e-05 -3.11524e-15)
(-0.000746629 0.000893 -3.83349e-15)
(0.000317769 0.000836334 8.20594e-14)
(0.00106865 0.000231005 -2.93321e-14)
(0.0012527 -0.000368759 -3.90324e-14)
(0.000707949 -0.000621674 2.2705e-13)
(0.000521513 -0.000744342 3.70609e-14)
(0.00852518 -0.00545712 -8.29295e-14)
(-0.00515237 0.0020925 -1.57664e-14)
(0.0220543 -0.0146148 2.60536e-14)
(0.00546449 -0.00271436 -5.05289e-15)
(-2.4432e-05 9.65108e-05 -1.31444e-14)
(-3.16051e-05 9.03632e-05 -3.10177e-14)
(-3.98003e-05 7.83543e-05 5.06889e-14)
(-4.19174e-05 6.62262e-05 9.71644e-14)
(-4.62975e-05 5.23099e-05 6.43189e-14)
(-4.76141e-05 4.15195e-05 -1.65789e-13)
(-4.74899e-05 3.66919e-05 -1.14058e-13)
(-4.74155e-05 3.45386e-05 -3.87774e-14)
(-4.87437e-05 3.27777e-05 7.08571e-14)
(-5.10218e-05 3.27449e-05 7.32029e-14)
(-5.34087e-05 3.31314e-05 2.72944e-14)
(-5.53594e-05 3.30097e-05 2.50397e-14)
(-5.56711e-05 3.17216e-05 -2.67404e-14)
(-5.42463e-05 2.92552e-05 -8.73372e-14)
(-5.13318e-05 2.61222e-05 1.34147e-14)
(-4.77977e-05 2.29598e-05 2.7094e-14)
(-4.42019e-05 2.01905e-05 1.84377e-14)
(-4.03557e-05 1.75891e-05 5.10857e-14)
(-3.62249e-05 1.52254e-05 -2.84805e-14)
(-3.19619e-05 1.31156e-05 -2.12612e-14)
(-2.78631e-05 1.17696e-05 -1.5318e-14)
(-2.41025e-05 1.13227e-05 -3.15587e-15)
(-2.10358e-05 1.20381e-05 2.4638e-14)
(-1.94199e-05 1.34956e-05 1.64548e-14)
(-1.98212e-05 1.48524e-05 1.90873e-14)
(-2.21366e-05 1.52628e-05 6.46995e-15)
(-2.61095e-05 1.43777e-05 2.82259e-17)
(-3.09763e-05 1.17727e-05 2.21308e-15)
(-3.20744e-05 7.00482e-06 -3.08455e-16)
(-2.95294e-05 5.87855e-06 3.02087e-16)
(-3.22073e-05 5.93707e-06 -3.79773e-16)
(-3.92276e-05 2.32382e-06 3.17817e-17)
(-4.63537e-05 3.09232e-07 -1.75934e-15)
(-5.33814e-05 -3.58085e-06 4.23966e-16)
(-6.26326e-05 -5.04946e-06 4.62907e-15)
(-8.19414e-05 6.28303e-09 -1.09947e-15)
(-0.000133038 -1.4043e-07 8.88944e-16)
(-0.000245775 -4.04136e-05 -8.14207e-15)
(-0.000650333 -0.000190158 7.93538e-15)
(-1.39589e-05 9.38988e-05 -2.94633e-15)
(-7.58276e-06 0.000102649 1.78891e-16)
(-3.68485e-07 0.000111395 -1.65408e-15)
(1.06854e-05 0.00011741 -1.52309e-15)
(2.24359e-05 0.000114423 9.00186e-15)
(3.36994e-05 0.000112741 -2.93907e-15)
(4.43856e-05 0.000116673 2.92741e-14)
(5.51213e-05 0.000114759 2.04786e-14)
(6.23716e-05 0.000108119 5.16008e-15)
(6.83553e-05 9.77486e-05 -1.70691e-15)
(7.10126e-05 8.45278e-05 7.12005e-15)
(7.2951e-05 7.58194e-05 -3.14154e-14)
(7.23575e-05 6.88993e-05 -1.37085e-13)
(6.72949e-05 6.17221e-05 3.64126e-14)
(6.04867e-05 5.56574e-05 1.8814e-14)
(5.1644e-05 5.08843e-05 5.25268e-14)
(4.24355e-05 4.74501e-05 -4.53504e-16)
(3.48967e-05 4.61651e-05 -9.40639e-14)
(2.5698e-05 5.2339e-05 -1.38998e-13)
(1.36978e-05 7.35188e-05 -1.19687e-13)
(1.04083e-05 0.00010903 -6.96968e-14)
(5.22147e-08 0.000164218 -5.64245e-14)
(6.48059e-05 0.000357652 1.91329e-14)
(0.00046478 0.000620087 6.72238e-14)
(0.00107952 0.000320348 -3.6185e-14)
(0.0010595 -0.000805417 -1.37662e-14)
(-1.39619e-05 -0.00164641 4.44584e-14)
(-0.00116388 -0.00114422 2.10504e-15)
(-0.00128235 1.89091e-05 2.45306e-14)
(-0.000513156 0.000737937 -3.05756e-14)
(0.000375933 0.000708656 -1.01143e-13)
(0.000864547 0.000186866 -5.51577e-14)
(0.000920525 -0.000331509 3.49534e-14)
(0.000610229 -0.000547652 -1.50168e-14)
(6.83301e-05 -0.000451501 2.03699e-14)
(-0.0010774 0.000666189 3.04953e-14)
(0.00112667 0.00170798 5.3949e-15)
(-0.00521714 0.00518662 -1.68305e-14)
(-0.00500149 -0.00286941 4.26756e-14)
(-2.00861e-05 8.83304e-05 -2.40514e-14)
(-2.71279e-05 8.3195e-05 1.50619e-14)
(-3.29111e-05 7.44191e-05 4.42746e-14)
(-3.66334e-05 6.24299e-05 1.44969e-14)
(-3.89275e-05 4.98727e-05 1.02133e-13)
(-4.24991e-05 4.19376e-05 1.87092e-14)
(-4.39211e-05 3.86117e-05 -2.79247e-15)
(-4.57904e-05 3.58957e-05 -9.34345e-14)
(-4.74355e-05 3.31301e-05 -3.88165e-14)
(-5.0418e-05 3.21282e-05 5.64921e-14)
(-5.35571e-05 3.22839e-05 6.4165e-14)
(-5.55487e-05 3.16583e-05 1.04452e-13)