/*--------------------------------*- C++ -*----------------------------------*\
| =========                 |                                                 |
| \\      /  F ield         | OpenFOAM: The Open Source CFD Toolbox           |
|  \\    /   O peration     | Version:  2306                                  |
|   \\  /    A nd           | Website:  www.openfoam.com                      |
|    \\/     M anipulation  |                                                 |
\*---------------------------------------------------------------------------*/
FoamFile
{
    version     2.0;
    format      ascii;
    arch        "LSB;label=32;scalar=64";
    class       volSymmTensorField;
    location    "925";
    object      turbulenceProperties:R;
}
// * * * * * * * * * * * * * * * * * * * * * * * * * * * * * * * * * * * * * //

dimensions      [0 2 -2 0 0 0 0];

internalField   nonuniform List<symmTensor> 
10720
(
(0.0144987 0.00306874 -6.84736e-22 0.0120404 -1.6136e-20 0.0134172)
(0.0172866 0.00364567 -9.29455e-23 0.0136447 1.04863e-19 0.0155754)
(0.0210786 0.00423414 -2.14382e-20 0.0153257 -3.37288e-19 0.0184316)
(0.0262504 0.00499593 9.57184e-20 0.0176186 7.06455e-19 0.0222311)
(0.0326216 0.00571449 -1.87824e-19 0.0200522 -6.93568e-19 0.0266719)
(0.0409538 0.00622485 -1.47709e-19 0.0227818 -3.86292e-19 0.0323711)
(0.051733 0.00649515 2.87122e-19 0.0261171 1.10314e-18 0.0395674)
(0.0651914 0.00618101 -7.49144e-19 0.0300846 -2.03779e-18 0.0484255)
(0.0821902 0.0049164 -1.89717e-19 0.035131 5.55268e-19 0.0596894)
(0.10357 0.00243289 5.72955e-19 0.0419321 1.17571e-18 0.0740118)
(0.130614 -0.00179553 1.4945e-18 0.0513613 5.4652e-19 0.0925367)
(0.165468 -0.00835549 -3.39844e-18 0.0647917 -3.1563e-18 0.117021)
(0.211089 -0.0181758 6.49696e-19 0.0840949 8.38586e-19 0.1499)
(0.272353 -0.032849 2.6147e-18 0.112291 1.23916e-18 0.195176)
(0.357552 -0.0550344 -3.9951e-18 0.154536 -6.24079e-18 0.259668)
(0.479504 -0.0890629 -4.30058e-18 0.21919 -2.54666e-18 0.354038)
(0.663284 -0.143543 1.90117e-17 0.322813 1.76039e-17 0.499441)
(0.940194 -0.230775 1.7732e-17 0.488981 3.35505e-17 0.723345)
(1.41739 -0.38714 -3.52287e-17 0.789747 -5.4608e-17 1.11643)
(2.14082 -0.639985 -1.3741e-18 1.27813 1.45139e-17 1.72768)
(3.75092 -1.21248 -2.71842e-17 2.39982 5.19718e-17 3.10442)
(6.1008 -2.11286 -1.24333e-17 4.18504 4.18528e-17 5.18206)
(13.8357 -5.12734 -1.43102e-16 10.2534 -6.41739e-16 12.1227)
(25.99 -10.3104 3.31416e-16 21.0502 5.58831e-16 23.6453)
(27.6402 -11.6476 4.23682e-17 24.5421 -7.122e-16 26.153)
(25.5086 -11.2297 3.65793e-16 24.4663 5.81104e-16 24.9705)
(24.403 -11.0456 -8.18234e-17 24.7239 -7.84335e-17 24.5188)
(24.3318 -11.228 2.74499e-16 25.6862 2.30547e-16 24.9718)
(24.416 -11.4414 7.28976e-16 26.705 1.20839e-15 25.5358)
(24.1219 -11.4542 4.00526e-16 27.2738 1.99741e-15 25.6853)
(23.3962 -11.2402 -1.41141e-15 27.3103 -1.93127e-15 25.3558)
(22.3241 -10.834 -4.749e-16 26.8608 -7.26081e-16 24.6082)
(20.881 -10.2205 -3.22226e-17 25.8532 -4.36776e-15 23.3895)
(19.0958 -9.41361 -2.58303e-15 24.2905 -7.29921e-15 21.7163)
(16.9507 -8.40525 1.00622e-15 22.1147 9.23141e-16 19.554)
(14.5074 -7.22666 1.21989e-15 19.3669 1.1438e-15 16.9537)
(11.348 -5.67514 -1.22453e-16 15.4844 -5.25238e-16 13.4361)
(8.41528 -4.21337 -1.5483e-15 11.6198 -2.10833e-17 10.0165)
(2.9479 -1.48467 -3.64167e-16 4.46986 -3.32836e-15 3.70449)
(0.0120301 0.00257345 1.65925e-21 0.0106522 3.85337e-20 0.0113951)
(0.0101308 0.00212441 -2.3732e-21 0.00934047 1.70747e-23 0.00982536)
(0.00808313 0.00164666 -1.2339e-20 0.00782729 -8.64903e-20 0.00799973)
(0.00638588 0.00123967 2.95485e-21 0.00644522 5.55273e-20 0.00644592)
(0.0048637 0.000879183 2.15764e-21 0.00505102 -1.00497e-20 0.00497246)
(0.00355262 0.00058671 -1.7019e-20 0.00372634 5.57116e-20 0.00363918)
(0.00253013 0.000377466 -9.14019e-20 0.00261695 7.3565e-20 0.0025572)
(0.00194574 0.000261405 5.73459e-20 0.00191624 -2.26473e-20 0.00190778)
(0.00211346 0.000277939 1.01428e-19 0.00191824 -5.13045e-20 0.00199813)
(0.00295784 0.000385224 -8.01636e-20 0.0024703 2.02627e-20 0.00271151)
(0.00451443 0.000623822 -2.35967e-20 0.00352084 1.11287e-19 0.00402733)
(0.0069353 0.00109498 1.74296e-19 0.00509623 7.25001e-20 0.00603462)
(0.010512 0.00197148 3.58649e-19 0.0073282 -5.58414e-20 0.00895543)
(0.0156729 0.00349525 -6.87712e-21 0.0104664 -2.18646e-19 0.0131347)
(0.0229295 0.00591752 -7.16455e-20 0.0148956 -1.54512e-19 0.0190127)
(0.0330184 0.00952974 2.48024e-20 0.0213044 -5.36568e-20 0.0273117)
(0.0472599 0.0147525 -1.86027e-19 0.0308193 6.32299e-19 0.0392459)
(0.0681597 0.0224734 7.12234e-19 0.0454428 2.64745e-19 0.0570865)
(0.100399 0.0344354 3.18637e-19 0.0687664 -1.18361e-18 0.0849737)
(0.152284 0.0539241 -1.29505e-18 0.107411 -3.39668e-19 0.130422)
(0.240272 0.0874854 -4.38414e-18 0.174648 -2.00332e-18 0.208335)
(0.393913 0.147341 -3.32817e-18 0.29558 -8.90064e-19 0.346204)
(0.682853 0.262513 6.19828e-18 0.530388 -5.76132e-19 0.609275)
(1.22834 0.486478 -7.44724e-18 0.992768 1.2049e-18 1.116)
(2.39607 0.978114 4.06398e-18 2.02224 -7.21397e-18 2.22091)
(4.80349 2.01626 -1.26328e-16 4.23162 2.61501e-18 4.5421)
(10.5254 4.53133 -7.82999e-17 9.66709 1.22946e-17 10.1539)
(21.265 9.36762 6.59154e-17 20.3425 8.24431e-19 20.9242)
(29.545 13.2906 8.69752e-18 29.4246 -1.25593e-19 29.641)
(32.6387 14.9584 6.28523e-17 33.7977 4.34808e-19 33.3657)
(33.0578 15.3972 -4.37145e-16 35.511 -4.89362e-18 34.4078)
(32.6456 15.4171 1.57294e-16 36.2844 2.09281e-17 34.566)
(31.9228 15.2549 -1.88886e-15 36.6213 -1.53191e-16 34.3557)
(30.9818 14.9549 -3.45824e-15 36.6007 -2.36931e-16 33.8616)
(29.8495 14.5327 1.05837e-15 36.2457 1.08383e-16 33.1081)
(28.5629 14.0096 1.0245e-15 35.6023 1.64261e-16 32.1355)
(26.9098 13.2866 1.45041e-15 34.4276 2.66644e-16 30.7168)
(25.1172 12.4694 -2.90364e-16 32.9255 -3.67432e-17 29.0663)
(20.1433 10.0656 -4.5543e-15 27.4165 -7.84148e-16 23.7897)
(0.00226707 -0.000155249 4.14166e-23 0.00189643 1.34947e-21 0.00205172)
(0.00222406 -0.000181973 9.65227e-21 0.00191883 2.33896e-20 0.00203798)
(0.00215863 -0.000204454 -8.83521e-21 0.0019412 -1.55767e-20 0.00201037)
(0.00205931 -0.00021172 -5.88763e-21 0.0019265 -1.67695e-20 0.00194814)
(0.00192972 -0.000206755 3.91872e-20 0.00187662 7.60562e-20 0.00185481)
(0.00178982 -0.00019331 1.50776e-20 0.00180978 2.33914e-20 0.00174787)
(0.00164015 -0.000173016 7.08532e-20 0.00171467 6.50922e-20 0.00162238)
(0.00148395 -0.000149084 -3.63228e-20 0.00159447 -6.98999e-21 0.00148233)
(0.00133653 -0.000125537 5.11405e-20 0.001468 3.54371e-20 0.00134398)
(0.00119891 -0.000104531 -1.82196e-21 0.00133681 7.78023e-23 0.00120848)
(0.00107268 -8.69447e-05 -6.96685e-20 0.00120611 -5.95213e-20 0.00107993)
(0.000987018 -7.80233e-05 9.33782e-20 0.00111434 1.16246e-19 0.00098911)
(0.000976209 -8.37159e-05 6.53833e-20 0.0011064 3.28555e-20 0.000969182)
(0.00107581 -0.000114017 -1.70904e-20 0.00122304 9.26952e-21 0.00104863)
(0.00141246 -0.000214136 -1.40971e-19 0.00159267 2.32055e-20 0.00132274)
(0.00229543 -0.000517907 3.75388e-19 0.0024494 4.2957e-19 0.00199403)
(0.00462249 -0.00138353 7.64222e-19 0.00434266 -8.3567e-19 0.00368189)
(0.0101337 -0.00334586 -4.16577e-18 0.00824688 -5.39941e-18 0.00777203)
(0.0249994 -0.00841296 4.90648e-19 0.0184614 7.23856e-18 0.0193044)
(0.0614737 -0.0208006 7.24871e-18 0.0433968 -2.03583e-18 0.0486244)
(0.180181 -0.0619697 1.53478e-17 0.126116 6.08153e-18 0.146593)
(0.491198 -0.173843 -2.34511e-17 0.349965 -2.24569e-17 0.411301)
(1.47324 -0.542986 7.39101e-17 1.0924 1.86555e-16 1.27119)
(4.60646 -1.77735 1.5888e-19 3.60385 -1.54135e-16 4.10103)
(8.7939 -3.54007 -2.72826e-16 7.27491 1.69334e-16 8.06985)
(12.912 -5.3929 -9.71851e-17 11.2783 -6.59957e-16 12.1765)
(16.5569 -7.14959 1.17854e-18 15.2778 7.57043e-17 16.0249)
(18.8684 -8.39461 -2.94551e-16 18.3844 -4.44853e-16 18.7396)
(18.906 -8.63621 -4.93592e-16 19.4315 -2.83274e-15 19.2677)
(16.9089 -7.89723 -1.66919e-16 18.2821 -3.54621e-15 17.6574)
(14.0809 -6.69154 5.22849e-16 15.9349 4.89598e-15 15.0206)
(11.3785 -5.47758 -9.55117e-16 13.3929 -3.75597e-17 12.3585)
(9.25531 -4.49796 -7.1891e-15 11.2536 1.34196e-15 10.2098)
(7.67108 -3.75329 8.77194e-15 9.56218 1.59509e-14 8.57219)
(6.47987 -3.18628 -1.48861e-15 8.23143 -8.63752e-16 7.31964)
(5.5641 -2.7434 3.42252e-15 7.14765 -4.99292e-15 6.32518)
(4.91814 -2.43265 -1.50372e-15 6.39278 1.52311e-15 5.6358)
(4.37738 -2.14559 3.25243e-15 5.53409 4.03568e-16 4.90665)
(4.8538 -2.43431 5.79856e-15 6.4565 8.24867e-15 5.80389)
(0.00227291 -0.000117567 3.19295e-21 0.00184999 7.89803e-21 0.00203578)
(0.00226157 -7.76371e-05 -4.39124e-21 0.00180466 -3.31924e-20 0.00200878)
(0.00221 -2.67194e-05 -6.52089e-21 0.0017391 -3.88994e-20 0.00195513)
(0.00211612 3.07932e-05 -2.53059e-21 0.00166073 5.87262e-20 0.00187426)
(0.00197222 8.48926e-05 6.95056e-22 0.00156958 1.5678e-20 0.00176326)
(0.00177352 0.000127801 1.38547e-20 0.00146038 -5.32126e-20 0.00161494)
(0.00153865 0.000150826 2.61013e-20 0.00133586 -8.34671e-20 0.00143915)
(0.00131418 0.000152955 -1.19466e-19 0.0012122 3.15462e-21 0.0012683)
(0.00111352 0.000139696 1.82434e-20 0.00109252 8.08317e-20 0.00110891)
(0.000921924 0.000116356 4.57795e-22 0.000968416 -4.75427e-20 0.000948604)
(0.000751498 8.77024e-05 -2.9975e-20 0.000839678 -2.84207e-20 0.000794821)
(0.000614981 6.18777e-05 -2.10391e-20 0.000717194 -2.97617e-20 0.000661715)
(0.000506782 4.2146e-05 -3.79577e-21 0.000605966 6.32183e-21 0.000549865)
(0.000418993 2.82119e-05 1.2222e-20 0.000507055 3.28891e-20 0.000455565)
(0.000346715 1.88844e-05 2.00766e-20 0.000420698 7.7565e-21 0.00037605)
(0.000286783 1.28387e-05 -2.68799e-20 0.000346637 -1.37107e-21 0.000309375)
(0.000236368 8.97551e-06 2.22335e-20 0.000283086 2.29649e-21 0.000253106)
(0.000193789 6.45644e-06 -2.36638e-21 0.000228972 -6.93826e-21 0.000205738)
(0.000156382 4.6166e-06 -6.86643e-21 0.000181427 1.09233e-20 0.000164439)
(0.000121922 3.10752e-06 -4.01243e-21 0.000138142 4.3676e-21 0.000126849)
(8.72589e-05 1.73924e-06 -6.01329e-21 9.58644e-05 6.7649e-21 8.97092e-05)
(5.24491e-05 6.64628e-07 -3.52392e-21 5.55804e-05 1.82814e-21 5.32733e-05)
(1.84808e-05 8.35049e-08 -6.76914e-22 1.88622e-05 5.83201e-23 1.85706e-05)
(3.03595e-06 2.27628e-09 8.24194e-24 3.04585e-06 7.82704e-25 3.0379e-06)
(7.72743e-06 1.60528e-08 -3.71457e-24 7.78722e-06 5.0934e-24 7.73628e-06)
(0.000851214 0.000192922 4.75927e-19 0.00142944 1.24491e-19 0.000910856)
(0.00451846 0.00133222 2.64766e-18 0.00782256 -1.8906e-19 0.00474153)
(0.0372391 0.0119653 1.08093e-18 0.062099 -4.50378e-19 0.0383237)
(0.128092 0.0458989 -7.53593e-19 0.204224 1.03124e-19 0.130584)
(0.256255 0.102681 4.96281e-17 0.386153 2.01569e-18 0.261143)
(0.390996 0.170639 4.02562e-16 0.554228 9.71811e-18 0.40164)
(0.512551 0.2352 2.39492e-16 0.689726 1.31156e-17 0.533271)
(0.614425 0.289335 1.76218e-15 0.799431 1.2092e-16 0.648434)
(0.701294 0.334888 2.54436e-15 0.89799 1.69223e-16 0.75052)
(0.77882 0.375321 -5.70502e-16 0.995063 -9.71426e-17 0.844991)
(0.856921 0.415506 -4.90906e-16 1.09894 -8.61326e-17 0.940203)
(0.934336 0.456125 -1.22503e-15 1.21466 -5.14987e-16 1.04032)
(1.13397 0.552251 -2.52489e-15 1.45541 -3.50814e-18 1.25443)
(1.57424 0.775688 -2.03887e-15 1.97924 1.35814e-15 1.79206)
(0.00151784 -0.000120502 6.64822e-22 0.00125059 9.1976e-22 0.00139946)
(0.00147803 -0.000143657 -1.0533e-20 0.00126633 -2.55916e-20 0.00139063)
(0.00140943 -0.000159865 -2.32742e-21 0.00127072 -1.17245e-21 0.0013616)
(0.0013199 -0.000165123 8.82559e-21 0.00126219 1.90636e-20 0.00131711)
(0.00122892 -0.000160346 -2.79862e-20 0.00125142 -5.69224e-20 0.00126979)
(0.0011352 -0.000144947 -3.19398e-20 0.00123354 -5.23477e-20 0.00121757)
(0.00104698 -0.000120401 -6.49511e-20 0.00120871 -9.60033e-20 0.00116503)
(0.000973122 -9.03613e-05 -5.24979e-21 0.00118112 -7.80404e-22 0.00111757)
(0.000915121 -5.71726e-05 -2.87274e-20 0.00115183 -6.84139e-20 0.0010768)
(0.000875398 -2.41351e-05 1.20772e-19 0.00112359 1.37431e-19 0.00104541)
(0.000850746 6.5875e-06 -1.9884e-20 0.00109582 2.70454e-20 0.001021)
(0.000842033 3.35379e-05 1.36416e-20 0.00107453 8.39392e-21 0.00100686)
(0.00084681 5.6066e-05 -9.3999e-20 0.00106209 -1.19637e-19 0.00100264)
(0.000864163 7.53515e-05 6.1295e-20 0.00106206 -5.69031e-21 0.00101033)
(0.000877933 8.92146e-05 1.77983e-20 0.00105559 5.52319e-20 0.00101109)
(0.00086384 9.31462e-05 2.09353e-20 0.00101387 1.00477e-20 0.00097703)
(0.000771719 7.75919e-05 -8.22357e-20 0.00087661 -4.7896e-20 0.00085069)
(0.00067553 6.1648e-05 5.74967e-20 0.000747974 4.28598e-20 0.00072931)
(8.13411e-05 8.87201e-07 2.66208e-22 8.22772e-05 3.47803e-24 8.20169e-05)
(0.00356404 0.00156624 -2.00941e-18 0.00510509 -3.02316e-19 0.00462979)
(0.00155945 0.000450944 6.84259e-19 0.00198647 -2.68714e-19 0.00183852)
(0.00246684 0.00115689 6.44441e-20 0.00356105 1.1046e-18 0.00312852)
(0.000281183 0.000114757 4.44339e-19 0.000488371 -6.56243e-19 0.000374544)
(0.0178389 -0.00696 -3.39414e-18 0.0144617 -3.6264e-18 0.0156059)
(0.146367 -0.0585625 4.84668e-18 0.121865 1.71123e-17 0.131134)
(0.47688 -0.197338 -2.91435e-17 0.415445 7.96438e-18 0.439785)
(1.16222 -0.496146 1.48983e-17 1.06082 1.15694e-18 1.10239)
(2.5422 -1.11362 -1.43007e-17 2.42189 7.63541e-17 2.47122)
(4.90903 -2.1976 -4.39813e-16 4.86545 2.45929e-16 4.87708)
(7.94946 -3.62916 2.16831e-16 8.19238 3.53049e-16 8.06612)
(10.5631 -4.9125 1.56322e-15 11.3319 -5.86501e-16 10.9552)
(11.6754 -5.52283 -2.76435e-15 13.044 2.16184e-15 12.3813)
(11.1859 -5.36646 5.13863e-16 12.9808 9.32614e-15 12.1069)
(9.87463 -4.78687 -4.87133e-17 11.8322 -6.36733e-15 10.866)
(8.45582 -4.12822 3.05758e-15 10.3841 -2.3007e-15 9.42215)
(7.19258 -3.52378 -1.43657e-14 8.95267 5.20357e-16 8.06817)
(6.2152 -3.05365 4.95831e-15 7.81147 -1.62555e-15 7.01487)
(5.27821 -2.5582 5.14255e-15 6.35719 -1.52331e-15 5.79504)
(5.69672 -2.82219 -1.0109e-14 7.36773 3.05691e-15 6.55807)
(0.0015522 -9.11044e-05 -1.3629e-21 0.00123878 -2.59439e-21 0.00140939)
(0.00156568 -5.92718e-05 -5.15643e-21 0.0012237 -7.29603e-21 0.00140584)
(0.0015711 -2.04301e-05 2.13536e-20 0.00121257 4.60391e-20 0.00140042)
(0.00154388 2.08073e-05 4.37932e-21 0.00119225 -5.18724e-21 0.00137349)
(0.00148458 6.12863e-05 3.01556e-21 0.00116498 -3.39741e-20 0.00132791)
(0.00138226 9.45469e-05 -9.39707e-21 0.0011207 2.42904e-20 0.00125262)
(0.0012428 0.000115289 9.03944e-21 0.00105709 5.48266e-20 0.00114977)
(0.00108704 0.000121546 5.94068e-20 0.000979563 6.37737e-20 0.00103372)
(0.000943522 0.000117563 2.02111e-20 0.00090637 -5.07552e-20 0.000925779)
(0.000803106 0.000104287 4.50908e-20 0.000824285 2.67233e-20 0.000814299)
(0.000664137 8.4454e-05 -3.18647e-20 0.000723572 8.18942e-21 0.000694615)
(0.00053886 6.38434e-05 -4.60991e-21 0.00061641 2.70063e-20 0.000579072)
(0.000432621 4.57751e-05 2.01706e-21 0.000514431 -2.4334e-20 0.000475864)
(0.000344876 3.11657e-05 4.36091e-20 0.000422742 -3.07e-20 0.000387131)
(0.000274804 2.00997e-05 3.30649e-21 0.000344661 -4.84101e-21 0.000313888)
(0.000219731 1.20343e-05 -4.90923e-21 0.000280097 2.02967e-20 0.000254777)
(0.000177755 6.39073e-06 3.15944e-20 0.000228859 -3.73208e-20 0.000208692)
(0.000146505 2.47152e-06 5.16389e-21 0.000189416 4.53523e-21 0.000173738)
(0.000124168 -3.00161e-07 3.68392e-20 0.000160366 -2.5764e-21 0.000148286)
(0.000108451 -2.4142e-06 3.96673e-20 0.000139158 8.88741e-21 0.000130017)
(9.79625e-05 -4.16495e-06 1.02386e-19 0.000124202 -1.35247e-20 0.000117436)
(9.16474e-05 -5.84953e-06 1.33983e-19 0.000113942 -2.02683e-20 0.000109335)
(8.90451e-05 -7.67574e-06 8.0927e-20 0.000107317 7.01046e-21 0.000105007)
(8.91713e-05 -9.44682e-06 1.89347e-20 0.000101838 -3.87236e-21 0.000102932)
(9.23409e-05 -1.05781e-05 -2.07361e-20 9.77672e-05 1.00152e-20 0.000103493)
(9.52338e-05 -1.00466e-05 7.57194e-20 9.33031e-05 -1.23041e-20 0.000103183)
(0.000104347 -9.47635e-06 -2.05287e-20 9.5862e-05 -1.99751e-21 0.000110096)
(6.26069e-05 -2.75254e-06 -6.24725e-21 5.80044e-05 1.28788e-22 6.39408e-05)
(0.000474076 -6.55469e-05 2.46681e-20 0.000295503 -7.75766e-22 0.000501947)
(0.00325925 -0.000272184 -1.42217e-18 0.0016856 -5.38111e-20 0.00340789)
(0.00933505 0.000424196 -8.62165e-18 0.00467943 -7.8466e-20 0.00965406)
(0.0187835 0.00468284 -5.47629e-17 0.011265 -3.17622e-18 0.0193705)
(0.0386039 0.0154366 -1.34237e-16 0.0316807 -4.42995e-18 0.0399562)
(0.0759822 0.0342762 -3.33929e-16 0.0747658 -2.28611e-17 0.0792589)
(0.130187 0.0608433 -8.54809e-16 0.13971 -7.65228e-17 0.137257)
(0.196711 0.0929596 2.15565e-16 0.218895 -1.74362e-17 0.20854)
(0.267596 0.127587 -1.17274e-15 0.30571 2.10858e-16 0.286713)
(0.333483 0.154073 2.94675e-15 0.353599 5.32835e-16 0.342292)
(0.548262 0.261165 4.6364e-15 0.615193 9.50542e-16 0.593697)
(0.00128851 -9.76977e-05 3.60022e-21 0.00106031 6.15888e-21 0.00116908)
(0.00127314 -0.000115777 -5.01347e-21 0.00108091 -9.03767e-21 0.00117113)
(0.00124326 -0.000131401 -2.27991e-21 0.00110008 -1.25638e-21 0.00116414)
(0.00120671 -0.000141544 2.70848e-20 0.00111814 3.96382e-20 0.00115342)
(0.00115892 -0.000144743 1.72144e-20 0.00112689 3.12031e-20 0.0011322)
(0.00110138 -0.000141116 2.18408e-20 0.00112596 4.19419e-20 0.00110097)
(0.00103936 -0.000131397 3.33735e-20 0.00111479 3.86112e-20 0.00106236)
(0.000972773 -0.000116712 -1.9162e-20 0.00108966 -2.97579e-20 0.00101448)
(0.000904794 -9.88105e-05 -6.8608e-20 0.00105273 -6.79745e-20 0.000959838)
(0.000836921 -7.97129e-05 8.92102e-20 0.00100427 5.02401e-20 0.000899698)
(0.000769938 -6.08835e-05 7.51611e-20 0.000946101 6.36552e-20 0.000835245)
(0.000703905 -4.35106e-05 9.75092e-20 0.000879742 4.67116e-20 0.000767497)
(0.000638514 -2.83865e-05 -1.60978e-19 0.000806701 -5.15545e-20 0.000697222)
(0.000573918 -1.5832e-05 -1.37493e-19 0.000729256 -9.23612e-20 0.000625773)
(0.00050996 -5.80832e-06 1.82848e-19 0.000648868 5.75119e-20 0.000553671)
(0.000443541 2.89973e-06 3.71581e-20 0.000563203 2.28825e-20 0.00047883)
(0.000378384 1.0248e-05 -2.73211e-20 0.00047589 2.81988e-21 0.000405117)
(0.000320814 1.57418e-05 -8.42061e-20 0.000394945 -5.51684e-20 0.000339739)
(0.000249412 1.52631e-05 1.44625e-20 0.000291016 -5.54891e-21 0.000259732)
(0.000147589 6.47507e-06 2.21348e-20 0.000158867 6.82926e-21 0.000150576)
(3.60464e-10 3.65557e-17 -1.38586e-31 3.60464e-10 -3.98595e-32 3.60464e-10)
(0.000337063 2.9173e-05 4.4722e-20 0.000364699 6.38817e-21 0.000347056)
(0.000245509 1.37515e-05 -5.36822e-21 0.000255413 -1.16382e-21 0.000249347)
(0.00385792 0.00175791 -1.36522e-18 0.004705 6.69501e-19 0.0041696)
(0.0150644 0.00700659 3.89133e-18 0.0166618 -1.242e-18 0.0154172)
(0.0300112 0.0132355 -7.6934e-18 0.0295709 1.02127e-17 0.0288803)
(0.0437517 0.0178415 1.54087e-19 0.0378525 -3.5222e-19 0.0393451)
(0.00215819 0.000628148 8.41372e-19 0.00132169 -2.98822e-19 0.00162888)
(0.0287866 -0.0102657 6.30495e-18 0.0207938 1.59517e-17 0.0240339)
(0.252763 -0.108803 2.6935e-17 0.233937 -1.22284e-16 0.241472)
(1.06008 -0.47715 -6.6346e-17 1.06286 -3.95371e-16 1.05815)
(2.81366 -1.29832 2.07625e-15 2.96981 5.51305e-16 2.88765)
(5.15407 -2.42357 2.97024e-15 5.6819 6.72317e-16 5.41665)
(7.00352 -3.34391 -1.64332e-15 8.0284 -2.23411e-15 7.52106)
(7.70676 -3.72243 -7.33307e-15 9.13187 1.42197e-15 8.42824)
(7.5076 -3.65037 4.79334e-15 9.09087 4.89466e-15 8.30304)
(7.0046 -3.42057 -1.01672e-14 8.60242 -1.30171e-16 7.81058)
(6.25853 -3.0196 -1.30295e-14 7.41659 1.88251e-15 6.82258)
(6.53907 -3.21018 9.22585e-15 8.1371 -3.48747e-15 7.37973)
(0.00128954 -7.51058e-05 -5.52712e-21 0.00103296 -1.12538e-20 0.00115766)
(0.00127903 -5.12169e-05 -1.90128e-21 0.00100504 7.68434e-21 0.00113892)
(0.00125241 -2.16722e-05 1.83046e-20 0.000970773 3.49006e-20 0.00111007)
(0.00121286 9.52562e-06 -7.83637e-21 0.000937747 -4.40099e-22 0.00107456)
(0.00115581 3.99811e-05 6.828e-21 0.000903922 4.32682e-20 0.00102992)
(0.00107627 6.6081e-05 2.09412e-20 0.000865085 -5.98759e-21 0.000970838)
(0.000980822 8.44565e-05 2.26461e-20 0.000822616 -5.87488e-22 0.000901573)
(0.000879003 9.33552e-05 -5.5895e-20 0.000777356 -3.37802e-20 0.000828196)
(0.000775194 9.35048e-05 -3.05326e-20 0.000727843 2.63967e-21 0.000751976)
(0.000668447 8.578e-05 5.06152e-20 0.000668379 2.28418e-20 0.000669062)
(0.000565377 7.27341e-05 2.36166e-20 0.000599849 -1.93792e-21 0.000583177)
(0.00047446 5.81124e-05 2.79519e-20 0.000530018 -1.72579e-20 0.000502531)
(0.000398355 4.43962e-05 -4.31502e-20 0.000464231 -2.82826e-20 0.00043115)
(0.00033584 3.26781e-05 -5.34778e-20 0.000404538 1.0095e-20 0.000369554)
(0.000285193 2.33522e-05 4.87958e-21 0.000351991 1.41312e-20 0.000317447)
(0.000244166 1.62558e-05 1.65266e-20 0.000306526 -4.91832e-21 0.000273745)
(0.000211305 1.1071e-05 -4.05724e-20 0.000268254 -3.21222e-21 0.000237765)
(0.00018506 7.34811e-06 -1.55772e-21 0.000236568 -6.4583e-21 0.000208459)
(0.000164284 4.64475e-06 -1.55664e-20 0.000210852 -3.04696e-21 0.000184936)
(0.000147525 2.56367e-06 3.26928e-20 0.000189739 -1.88339e-20 0.00016581)
(0.000134023 8.48416e-07 -3.559e-20 0.000172462 -1.23656e-20 0.000150274)
(0.000122794 -7.18997e-07 -7.39668e-20 0.000157828 -8.73133e-21 0.000137235)
(0.00011289 -2.26746e-06 3.34755e-21 0.000144555 -1.12037e-20 0.000125549)
(0.00010263 -3.70514e-06 1.89359e-20 0.000130415 -1.07743e-20 0.000113287)
(9.22026e-05 -4.60639e-06 5.73465e-20 0.000115835 -4.00104e-21 0.000100628)
(8.3629e-05 -4.88956e-06 -5.37416e-20 0.000103765 -3.11242e-21 8.99641e-05)
(7.72222e-05 -4.83539e-06 -9.23836e-21 9.46597e-05 2.87337e-21 8.18249e-05)
(7.26563e-05 -4.67174e-06 5.59228e-21 8.8158e-05 4.89134e-22 7.5898e-05)
(6.69044e-05 -4.28743e-06 -2.56154e-21 8.02391e-05 -1.02981e-22 6.89622e-05)
(5.91242e-05 -3.80639e-06 -3.7113e-21 7.01617e-05 1.80321e-22 6.02542e-05)
(4.48889e-05 -2.80187e-06 -5.4805e-21 5.21778e-05 -2.89577e-22 4.52636e-05)
(2.86592e-05 -1.69084e-06 1.35409e-20 3.24266e-05 3.90734e-22 2.86017e-05)
(0.000200262 -5.49612e-05 1.92881e-18 0.000303517 1.25505e-19 0.000184245)
(0.000395622 -4.5609e-05 1.8669e-17 0.000505648 1.73625e-18 0.000287332)
(0.00167503 0.000601043 7.86548e-17 0.00130146 1.03611e-17 0.00133778)
(0.00859516 0.00334402 -1.74219e-16 0.00676099 -2.65976e-17 0.00776833)
(0.0268667 0.0112128 7.42371e-16 0.0232377 1.09799e-16 0.0257722)
(0.0706292 0.0278951 -4.85919e-16 0.0567038 -1.68196e-16 0.0644024)
(0.229864 0.104463 -3.29557e-16 0.230736 -1.40966e-15 0.237467)
(0.000964184 -7.43941e-05 -5.1339e-21 0.000794144 -7.64719e-21 0.00088088)
(0.000948036 -8.78633e-05 1.00848e-21 0.000806675 1.60685e-21 0.000879836)
(0.000922323 -9.91032e-05 6.11157e-21 0.000818488 6.63758e-21 0.000873156)
(0.000888686 -0.000105918 -3.75458e-20 0.000827165 -5.33656e-20 0.000861434)
(0.000847358 -0.000107502 -2.74899e-20 0.000830127 -3.2151e-20 0.000843039)
(0.000799173 -0.000103634 6.42542e-20 0.000826518 7.69153e-20 0.000817872)
(0.000747514 -9.45867e-05 -6.82382e-20 0.000815505 -8.4734e-20 0.000787526)
(0.00069433 -8.11871e-05 -3.08597e-20 0.000796209 -2.05295e-20 0.000752344)
(0.000641643 -6.4565e-05 -7.33983e-20 0.000769004 -5.49259e-20 0.000713452)
(0.000592379 -4.63118e-05 -1.36859e-20 0.000735704 -2.49033e-20 0.000673371)
(0.000547813 -2.77255e-05 9.19857e-21 0.000697763 -3.31922e-21 0.000633321)
(0.000509147 -1.00034e-05 -5.03839e-20 0.000657262 -6.68227e-20 0.000594941)
(0.00047737 5.89105e-06 1.64256e-19 0.000616748 1.12498e-19 0.000559947)
(0.000452672 1.93871e-05 -5.41627e-20 0.000578283 -9.47204e-21 0.000529346)
(0.000434922 3.04248e-05 -1.33058e-19 0.000543485 -5.81848e-20 0.000503894)
(0.000422119 3.85837e-05 8.84717e-20 0.000512422 1.77056e-21 0.000482214)
(0.00040834 4.36394e-05 -6.45547e-20 0.000480643 -3.72336e-20 0.000458849)
(0.000389438 4.58348e-05 8.8759e-22 0.000444138 4.74563e-20 0.000429996)
(0.000367961 4.6453e-05 -1.58554e-20 0.000407006 -1.24565e-20 0.000399332)
(0.000333215 4.27386e-05 -1.09822e-19 0.000357068 -7.58785e-20 0.00035472)
(0.000229429 2.22798e-05 4.66221e-20 0.000237076 4.52594e-20 0.000237433)
(7.47998e-05 2.44464e-06 1.27874e-22 7.53182e-05 -3.94258e-21 7.54077e-05)
(1.23803e-05 6.18358e-08 3.40013e-23 1.23882e-05 1.04032e-23 1.23904e-05)
(1.97479e-06 1.38613e-09 1.9381e-24 1.97481e-06 -8.68795e-26 1.9749e-06)
(0 0 0 0 0 0)
(0 0 0 0 0 0)
(0 0 0 0 0 0)
(0.00142447 0.000425902 -6.76855e-20 0.00128232 -4.19139e-20 0.00135761)
(0.0170003 0.00694227 2.06005e-20 0.0143946 1.79018e-18 0.0157154)
(0.0567713 0.0226525 -6.59578e-17 0.0465052 5.44561e-18 0.0515708)
(0.01213 0.00458091 -5.80409e-18 0.00924647 9.70635e-19 0.0106518)
(0.0463434 0.0121057 2.79436e-17 0.025254 -1.63102e-16 0.0354556)
(0.241242 -0.0984457 5.75507e-16 0.20465 -7.06079e-16 0.221702)
(1.27466 -0.584539 -2.98371e-15 1.32802 1.59037e-16 1.29835)
(3.15413 -1.49016 4.83508e-15 3.52046 1.81657e-15 3.33458)
(5.00454 -2.39908 -9.9603e-16 5.80673 4.27317e-16 5.40459)
(6.12658 -2.96365 -1.75006e-15 7.29455 3.98504e-15 6.71653)
(6.43223 -3.08564 6.73608e-16 7.49379 2.43502e-16 6.94728)
(6.96841 -3.40035 -1.72695e-14 8.4758 4.3234e-15 7.77799)
(0.000973466 -5.79984e-05 3.27632e-21 0.000780253 1.33925e-21 0.000878656)
(0.000975238 -4.04187e-05 -1.18514e-20 0.00076659 -1.70412e-20 0.000871922)
(0.000967264 -1.88376e-05 1.5134e-21 0.000749906 7.7116e-21 0.000859506)
(0.000946607 4.46413e-06 6.463e-21 0.000731287 -2.15633e-20 0.000839416)
(0.000911514 2.7723e-05 -5.25595e-20 0.000710673 -7.55782e-20 0.000811421)
(0.000858161 4.83614e-05 -5.38318e-20 0.000685183 2.76304e-20 0.000771677)
(0.000791989 6.39221e-05 7.53602e-20 0.000656883 3.91252e-20 0.000724251)
(0.000720102 7.2908e-05 -2.43792e-20 0.000627121 -7.08134e-20 0.000673544)
(0.00064475 7.53646e-05 -3.32864e-20 0.000594064 9.44899e-21 0.000619509)
(0.000566066 7.16191e-05 -2.2698e-20 0.000553813 -3.9416e-20 0.000560133)
(0.000489211 6.33212e-05 7.94991e-21 0.000507017 1.20024e-20 0.000498287)
(0.000418537 5.28387e-05 -1.48982e-20 0.000456694 -1.94838e-20 0.000437774)
(0.000355885 4.20687e-05 -3.07706e-20 0.000405684 4.13949e-20 0.000380972)
(0.000301272 3.21409e-05 3.26394e-20 0.000355941 1.91487e-20 0.000328872)
(0.000254411 2.36691e-05 2.77382e-20 0.000309161 -1.27569e-20 0.000282169)
(0.000214677 1.68085e-05 -5.7e-21 0.000266559 -1.14174e-20 0.000241161)
(0.00018147 1.14775e-05 1.65647e-20 0.000228954 3.68948e-21 0.000205931)
(0.000154125 7.42266e-06 -2.45443e-20 0.000196707 6.27137e-21 0.000176316)
(0.000131986 4.34742e-06 1.73811e-20 0.000169794 -4.57145e-22 0.000151958)
(0.000114178 1.94892e-06 -2.28838e-20 0.000147598 -1.06866e-20 0.000132113)
(0.0001 -8.71334e-09 2.20833e-20 0.000129479 1.84572e-21 0.000116094)
(8.86494e-05 -1.71741e-06 2.96115e-20 0.000114493 6.47743e-21 0.000103034)
(7.93352e-05 -3.28686e-06 -2.06738e-21 0.000101567 2.71817e-21 9.20009e-05)
(7.07568e-05 -4.65785e-06 -5.55255e-20 8.89128e-05 2.65971e-23 8.14992e-05)
(6.22256e-05 -5.5308e-06 -2.06712e-20 7.58557e-05 -8.82687e-21 7.08384e-05)
(5.44202e-05 -5.80777e-06 -6.09318e-21 6.37347e-05 9.38976e-21 6.09833e-05)
(4.83914e-05 -5.71929e-06 2.25746e-20 5.38814e-05 2.80292e-22 5.32193e-05)
(4.4556e-05 -5.39401e-06 8.12302e-22 4.66695e-05 -1.85026e-22 4.79331e-05)
(4.35217e-05 -5.06205e-06 -1.2935e-21 4.27175e-05 1.10483e-22 4.57563e-05)
(4.12518e-05 -4.09786e-06 1.36265e-20 3.83527e-05 6.31657e-23 4.23696e-05)
(5.17156e-05 -5.49371e-06 1.54839e-20 4.50153e-05 5.00619e-22 5.23147e-05)
(1.19046e-05 -3.20428e-07 -4.93768e-21 1.13908e-05 -2.73266e-22 1.18866e-05)
(8.48323e-05 -1.23701e-05 -5.48021e-19 6.20584e-05 -4.25055e-20 8.20424e-05)
(0.000439449 -0.000103854 -1.01636e-18 0.000233755 -1.24076e-19 0.00039702)
(0.00111131 -0.000257512 1.99337e-18 0.000562245 2.14598e-20 0.000951528)
(0.00229376 -0.000460333 -9.02619e-18 0.00107083 3.58751e-18 0.00181943)
(0.000888173 -9.18939e-05 -1.25522e-17 0.000354249 -1.04459e-17 0.000652368)
(0.00286014 0.000199277 5.25246e-17 0.00112311 3.75169e-18 0.00196111)
(0.0489441 0.0196842 -2.90204e-16 0.039909 5.22112e-17 0.046482)
(0.000790889 -6.10369e-05 4.49952e-21 0.000651711 5.22684e-21 0.000720668)
(0.000783252 -7.19175e-05 -1.13148e-20 0.000665456 -1.36e-20 0.000723782)
(0.000768841 -8.14804e-05 -9.13692e-22 0.000679511 -1.89064e-21 0.000723263)
(0.000750132 -8.80968e-05 -4.716e-21 0.00069316 -2.45939e-21 0.00072057)
(0.000725967 -9.09726e-05 3.73925e-20 0.000703296 4.30341e-20 0.000713342)
(0.000696862 -8.99693e-05 2.86742e-20 0.000709706 2.36586e-20 0.000701591)
(0.000664843 -8.51191e-05 3.64649e-22 0.00071121 1.1563e-20 0.000685969)
(0.000630415 -7.68323e-05 7.11428e-20 0.000706162 6.89332e-20 0.000665792)
(0.000594642 -6.58153e-05 -8.8855e-21 0.000694361 -1.18646e-21 0.000641438)
(0.000558768 -5.31294e-05 -2.4573e-20 0.000675782 -1.15384e-20 0.000613621)
(0.000523167 -3.97212e-05 4.82709e-20 0.000650568 1.8014e-20 0.000582542)
(0.000488366 -2.64975e-05 -6.49866e-20 0.000619627 -2.51869e-20 0.00054893)
(0.000454737 -1.42771e-05 -1.1472e-19 0.000584127 -8.96762e-20 0.000513598)
(0.000422333 -3.55649e-06 -4.79317e-20 0.000545257 1.23545e-20 0.000477153)
(0.000391158 5.36855e-06 2.069e-19 0.000504247 9.34419e-20 0.000440268)
(0.000359898 1.22824e-05 -1.49585e-19 0.000460629 -6.81805e-20 0.000402105)
(0.000326228 1.76143e-05 -3.59846e-20 0.000412331 3.12057e-20 0.000360968)
(0.000291867 2.13315e-05 6.73187e-20 0.000362139 4.38793e-20 0.000319049)
(0.000259813 2.36621e-05 -4.25508e-20 0.00031446 -3.45332e-22 0.000279947)
(0.000232202 2.49065e-05 -1.40457e-20 0.000272573 3.51655e-20 0.000246211)
(0.00021065 2.55482e-05 2.00089e-20 0.000238471 -1.2854e-20 0.000219522)
(0.000178785 2.14407e-05 -1.27357e-19 0.000192618 1.23285e-20 0.000182515)
(0.000130297 1.22184e-05 7.07093e-22 0.000133212 -1.18641e-20 0.000130536)
(2.5525e-05 4.72628e-07 -1.89147e-21 2.54612e-05 1.90274e-22 2.5466e-05)
(6.83433e-06 3.24665e-08 3.51346e-23 6.81979e-06 1.02926e-23 6.82595e-06)
(3.95979e-06 1.06101e-08 -3.70144e-24 3.95271e-06 -1.56082e-23 3.95593e-06)
(1.55332e-06 1.6131e-09 -1.19933e-25 1.5521e-06 -1.1243e-26 1.55266e-06)
(1.08702e-08 7.59706e-14 1.27092e-29 1.08701e-08 3.09986e-31 1.08701e-08)
(0 0 0 0 0 0)
(0 0 0 0 0 0)
(0.00284692 0.00104936 -3.06531e-19 0.00219276 6.327e-19 0.00251099)
(0.0282708 0.0106433 -3.55176e-17 0.0214563 1.15389e-17 0.0247804)