/*--------------------------------*- C++ -*----------------------------------*\
| =========                 |                                                 |
| \\      /  F ield         | OpenFOAM: The Open Source CFD Toolbox           |
|  \\    /   O peration     | Version:  2306                                  |
|   \\  /    A nd           | Website:  www.openfoam.com                      |
|    \\/     M anipulation  |                                                 |
\*---------------------------------------------------------------------------*/
FoamFile
{
    version     2.0;
    format      ascii;
    arch        "LSB;label=32;scalar=64";
    class       volSymmTensorField;
    location    "225";
    object      turbulenceProperties:R;
}
// * * * * * * * * * * * * * * * * * * * * * * * * * * * * * * * * * * * * * //

dimensions      [0 2 -2 0 0 0 0];

internalField   nonuniform List<symmTensor> 
1340
(
(0.00194105 0.000259983 5.71591e-20 0.00190955 -2.26075e-20 0.00190221)
(0.00211729 0.000277834 1.01466e-19 0.00191962 -5.13549e-20 0.00200092)
(0.00296807 0.000385975 -7.98307e-20 0.00247676 2.00633e-20 0.00271991)
(0.00453067 0.000625663 -2.36489e-20 0.00353112 1.11173e-19 0.00404057)
(0.00695888 0.00109868 1.74498e-19 0.00511054 7.22452e-20 0.00605359)
(0.0105455 0.0019783 3.58891e-19 0.0073476 -5.59439e-20 0.00898202)
(0.0157196 0.0035068 -7.31104e-21 0.0104927 -2.18442e-19 0.0131714)
(0.0229931 0.00593542 -7.09051e-20 0.0149314 -1.54641e-19 0.0190627)
(0.0331044 0.00955595 2.57333e-20 0.0213547 -5.38738e-20 0.0273802)
(0.0473787 0.0147905 -1.86907e-19 0.0308922 6.32281e-19 0.0393422)
(0.068329 0.0225293 7.13086e-19 0.0455516 2.64327e-19 0.0572262)
(0.100653 0.0345219 3.19107e-19 0.0689366 -1.18335e-18 0.0851867)
(0.152675 0.0540614 -1.29786e-18 0.107683 -3.38911e-19 0.130755)
(0.240926 0.0877218 -4.39391e-18 0.175119 -2.00116e-18 0.2089)
(0.394985 0.14774 -3.33246e-18 0.296379 -8.89146e-19 0.347143)
(0.68493 0.263308 6.21447e-18 0.531993 -5.7936e-19 0.611123)
(1.23191 0.487885 -7.47874e-18 0.995638 1.2088e-18 1.11923)
(2.40429 0.981468 4.07836e-18 2.02917 -7.20671e-18 2.22853)
(4.81846 2.02253 -1.26709e-16 4.24478 2.65914e-18 4.55624)
(10.5644 4.54808 -7.85654e-17 9.70283 1.22822e-17 10.1915)
(21.3192 9.39152 6.60839e-17 20.3944 8.03314e-19 20.9775)
(29.5886 13.3102 8.70902e-18 29.4682 -1.22707e-19 29.6847)
(32.6714 14.9734 6.28977e-17 33.8318 3.76826e-19 33.3991)
(33.0861 15.4104 -4.37531e-16 35.5415 -4.87109e-18 34.4372)
(32.6721 15.4296 1.57433e-16 36.3139 2.09653e-17 34.594)
(31.9479 15.2669 -1.8903e-15 36.6502 -1.5334e-16 34.3827)
(31.0053 14.9662 -3.46083e-15 36.6285 -2.37355e-16 33.8873)
(29.8712 14.5432 1.05909e-15 36.2721 1.08311e-16 33.1322)
(0.00153733 0.000150837 2.59743e-20 0.00133498 -8.35298e-20 0.00143808)
(0.00131346 0.000152948 -1.19638e-19 0.00121173 3.23031e-21 0.00126773)
(0.00111279 0.000139636 1.80621e-20 0.00109212 8.06295e-20 0.00110832)
(0.00092115 0.000116229 3.54938e-22 0.000967939 -4.73343e-20 0.000947929)
(0.000750941 8.75768e-05 -2.98581e-20 0.000839241 -2.83323e-20 0.000794276)
(0.000614629 6.17872e-05 -2.10004e-20 0.000716853 -2.964e-20 0.000661338)
(0.000506545 4.20833e-05 -3.77926e-21 0.0006057 6.31638e-21 0.000549595)
(0.00041881 2.81702e-05 1.2197e-20 0.000506824 3.27903e-20 0.000455343)
(0.000346563 1.88608e-05 2.00542e-20 0.000420488 7.72207e-21 0.000375857)
(0.000286658 1.28286e-05 -2.68761e-20 0.000346455 -1.34538e-21 0.000309213)
(0.000236267 8.97405e-06 2.22445e-20 0.000282934 2.27367e-21 0.000252975)
(0.00019371 6.45987e-06 -2.37526e-21 0.00022885 -6.91441e-21 0.000205635)
(0.000156319 4.62187e-06 -6.87243e-21 0.00018133 1.08966e-20 0.000164357)
(0.000121871 3.11234e-06 -4.01429e-21 0.000138065 4.35634e-21 0.000126785)
(8.72082e-05 1.74187e-06 -6.01211e-21 9.57955e-05 6.74263e-21 8.96505e-05)
(5.23923e-05 6.6508e-07 -3.51691e-21 5.55132e-05 1.82045e-21 5.32128e-05)
(1.84461e-05 8.34418e-08 -6.74036e-22 1.88256e-05 5.81904e-23 1.85353e-05)
(3.01189e-06 2.24705e-09 8.10852e-24 3.02162e-06 7.63732e-25 3.0138e-06)
(8.07092e-06 1.75592e-08 -4.05391e-24 8.13604e-06 5.52579e-24 8.08054e-06)
(0.000856555 0.000194984 4.79522e-19 0.0014389 1.24618e-19 0.000916451)
(0.00455937 0.00134657 2.6691e-18 0.00788918 -1.90097e-19 0.00478332)
(0.0374928 0.0120632 1.0865e-18 0.0624892 -4.48729e-19 0.0385784)
(0.12866 0.0461525 -7.55859e-19 0.205018 1.02149e-19 0.131149)
(0.257092 0.103089 4.97588e-17 0.387202 2.03664e-18 0.261978)
(0.392045 0.171161 4.03299e-16 0.555449 9.68451e-18 0.402704)
(0.513734 0.235779 2.39836e-16 0.691067 1.31412e-17 0.53449)
(0.615673 0.28994 1.76431e-15 0.800855 1.21048e-16 0.649741)
(0.702573 0.335506 2.54712e-15 0.899477 1.69617e-16 0.751879)
(0.780129 0.375954 -5.71029e-16 0.996616 -9.74921e-17 0.846399)
(0.00124145 0.000115245 9.18325e-21 0.00105621 5.49078e-20 0.00114865)
(0.00108594 0.000121462 5.9517e-20 0.000978825 6.36422e-20 0.00103281)
(0.000942654 0.000117464 2.03283e-20 0.00090579 -5.06394e-20 0.000925047)
(0.000802251 0.000104157 4.48972e-20 0.000823612 2.66824e-20 0.000813534)
(0.000663391 8.43281e-05 -3.18467e-20 0.000722886 8.19652e-21 0.000693906)
(0.000538258 6.37376e-05 -4.57888e-21 0.000615801 2.69382e-20 0.000578477)
(0.000432128 4.56866e-05 2.08969e-21 0.0005139 -2.43122e-20 0.000475365)
(0.000344455 3.10919e-05 4.36371e-20 0.000422262 -3.06736e-20 0.000386695)
(0.000274446 2.00413e-05 3.27243e-21 0.00034423 -4.81966e-21 0.000313507)
(0.000219435 1.19898e-05 -4.90135e-21 0.000279723 2.02486e-20 0.000254455)
(0.000177517 6.35731e-06 3.16363e-20 0.000228546 -3.72631e-20 0.000208429)
(0.000146318 2.4469e-06 5.15662e-21 0.000189158 4.52372e-21 0.000173527)
(0.000124023 -3.17774e-07 3.68602e-20 0.000160156 -2.59427e-21 0.000148119)
(0.000108343 -2.42631e-06 3.96816e-20 0.000138991 8.84542e-21 0.000129888)
(9.78842e-05 -4.17276e-06 1.0242e-19 0.000124071 -1.35413e-20 0.000117339)
(9.15949e-05 -5.85393e-06 1.33993e-19 0.000113842 -2.02723e-20 0.000109266)
(8.90154e-05 -7.67718e-06 8.09066e-20 0.000107245 6.95982e-21 0.000104962)
(8.91676e-05 -9.44585e-06 1.89255e-20 0.000101796 -3.86234e-21 0.000102915)
(9.23572e-05 -1.05734e-05 -2.07324e-20 9.77485e-05 9.98414e-21 0.000103497)
(9.52607e-05 -1.00384e-05 7.56994e-20 9.33016e-05 -1.22638e-20 0.000103198)
(0.000104357 -9.46134e-06 -2.05182e-20 9.58537e-05 -1.97933e-21 0.000110095)
(6.24525e-05 -2.73435e-06 -6.21405e-21 5.78683e-05 1.27719e-22 6.37773e-05)
(0.000478685 -6.62269e-05 2.49958e-20 0.000297724 -7.78654e-22 0.000506866)
(0.00327545 -0.000271662 -1.43037e-18 0.00169332 -5.37357e-20 0.0034246)
(0.00936706 0.000434839 -8.65783e-18 0.00469653 -7.42435e-20 0.0096868)
(0.0188574 0.00472172 -5.49385e-17 0.0113276 -3.18551e-18 0.0194461)
(0.038782 0.0155238 -1.34584e-16 0.0318642 -4.43355e-18 0.0401398)
(0.076298 0.0344262 -3.34659e-16 0.0751113 -2.29303e-17 0.0795875)
(0.130641 0.0610558 -8.56448e-16 0.140201 -7.65312e-17 0.137733)
(0.00107523 6.6125e-05 2.09638e-20 0.000864411 -6.07591e-21 0.00096998)
(0.000979862 8.44528e-05 2.26097e-20 0.000822 -5.95133e-22 0.000900787)
(0.000878194 9.33183e-05 -5.58521e-20 0.000776839 -3.37409e-20 0.000827538)
(0.000774449 9.34377e-05 -3.04421e-20 0.000727348 2.64105e-21 0.000751354)
(0.000667749 8.56875e-05 5.06405e-20 0.000667864 2.2729e-20 0.000668453)
(0.000564816 7.2641e-05 2.35736e-20 0.000599398 -1.94261e-21 0.000582666)
(0.000474049 5.80315e-05 2.79409e-20 0.000529666 -1.72385e-20 0.000502143)
(0.000398057 4.43281e-05 -4.32093e-20 0.000463961 -2.81723e-20 0.000430859)
(0.000335617 3.26214e-05 -5.3467e-20 0.000404322 1.01142e-20 0.000369327)
(0.000285028 2.33072e-05 4.90292e-21 0.000351819 1.40944e-20 0.000317271)
(0.000244049 1.62217e-05 1.65132e-20 0.000306394 -4.91345e-21 0.000273612)
(0.000211225 1.10459e-05 -4.05937e-20 0.000268157 -3.17605e-21 0.000237669)
(0.000185007 7.33005e-06 -1.54152e-21 0.000236499 -6.4468e-21 0.00020839)
(0.000164252 4.63227e-06 -1.55633e-20 0.000210805 -3.03182e-21 0.000184888)
(0.000147509 2.55544e-06 3.2711e-20 0.00018971 -1.88066e-20 0.000165781)
(0.00013402 8.43284e-07 -3.56169e-20 0.000172449 -1.23158e-20 0.000150259)
(0.000122801 -7.21953e-07 -7.39798e-20 0.000157828 -8.67832e-21 0.000137231)
(0.000112904 -2.26896e-06 3.36718e-21 0.000144564 -1.1176e-20 0.000125554)
(0.000102648 -3.70565e-06 1.89511e-20 0.00013043 -1.07506e-20 0.000113297)
(9.22221e-05 -4.60602e-06 5.73613e-20 0.000115854 -4.00434e-21 0.000100642)
(8.36521e-05 -4.88848e-06 -5.3766e-20 0.000103789 -3.08502e-21 8.99821e-05)
(7.72463e-05 -4.83332e-06 -9.23757e-21 9.46856e-05 2.86121e-21 8.18445e-05)
(7.26934e-05 -4.67075e-06 5.5962e-21 8.82032e-05 4.84708e-22 7.59324e-05)
(6.68865e-05 -4.27981e-06 -2.56001e-21 8.02089e-05 -1.02122e-22 6.8939e-05)
(5.92403e-05 -3.81797e-06 -3.72748e-21 7.03222e-05 1.76229e-22 6.03725e-05)
(4.4554e-05 -2.75831e-06 -5.40453e-21 5.17367e-05 -2.8906e-22 4.49219e-05)
(2.85984e-05 -1.68364e-06 1.35198e-20 3.23545e-05 3.90615e-22 2.85401e-05)
(0.000200889 -5.50215e-05 1.94082e-18 0.000304517 1.26363e-19 0.000184739)
(0.000395554 -4.4268e-05 1.87405e-17 0.000505012 1.74339e-18 0.00028673)
(0.00168326 0.000605263 7.85465e-17 0.00131051 1.03589e-17 0.0013462)
(0.000857361 4.84033e-05 -5.38728e-20 0.000684664 2.77335e-20 0.000771013)
(0.000791229 6.39275e-05 7.53668e-20 0.000656399 3.90325e-20 0.000723629)
(0.000719409 7.28847e-05 -2.44073e-20 0.000626683 -7.0691e-20 0.00067298)
(0.000644106 7.53146e-05 -3.32304e-20 0.000593642 9.43542e-21 0.000618975)
(0.000565487 7.15497e-05 -2.26506e-20 0.000553401 -3.93406e-20 0.000559636)
(0.000488724 6.32464e-05 7.91781e-21 0.00050664 1.19953e-20 0.000497854)
(0.000418143 5.27682e-05 -1.49081e-20 0.000456365 -1.9435e-20 0.000437413)
(0.000355565 4.20051e-05 -3.08001e-20 0.000405397 4.13434e-20 0.00038067)
(0.000301006 3.20846e-05 3.26853e-20 0.000355684 1.90781e-20 0.000328613)
(0.000254186 2.36209e-05 2.77377e-20 0.000308929 -1.27462e-20 0.000281944)
(0.000214488 1.67684e-05 -5.70047e-21 0.000266353 -1.13939e-20 0.000240967)
(0.000181312 1.14446e-05 1.65641e-20 0.000228773 3.6722e-21 0.000205765)
(0.000153993 7.39575e-06 -2.45609e-20 0.000196549 6.27364e-21 0.000176175)
(0.000131877 4.32543e-06 1.7393e-20 0.000169658 -4.65661e-22 0.00015184)
(0.00011409 1.93089e-06 -2.28889e-20 0.000147484 -1.06552e-20 0.000132017)
(9.9932e-05 -2.36598e-08 2.21009e-20 0.000129387 1.8301e-21 0.000116018)
(8.86006e-05 -1.72999e-06 2.96149e-20 0.000114422 6.4512e-21 0.000102979)
(7.93055e-05 -3.29763e-06 -2.07954e-21 0.000101517 2.71469e-21 9.19654e-05)
(7.0746e-05 -4.66721e-06 -5.55471e-20 8.88829e-05 4.25094e-23 8.14833e-05)
(6.22323e-05 -5.5389e-06 -2.06707e-20 7.58443e-05 -8.79529e-21 7.08404e-05)
(5.44418e-05 -5.81471e-06 -6.09465e-21 6.37392e-05 9.35768e-21 6.10006e-05)
(4.84278e-05 -5.72538e-06 2.25828e-20 5.39016e-05 2.76108e-22 5.32519e-05)
(4.46049e-05 -5.39901e-06 8.11203e-22 4.67027e-05 -1.83647e-22 4.79784e-05)
(4.35881e-05 -5.06785e-06 -1.29374e-21 4.27686e-05 1.09566e-22 4.582e-05)
(4.1295e-05 -4.09813e-06 1.36186e-20 3.83862e-05 6.51171e-23 4.24092e-05)
(5.18792e-05 -5.51734e-06 1.55367e-20 4.51424e-05 5.02666e-22 5.24763e-05)
(1.17322e-05 -3.1109e-07 -4.78922e-21 1.12333e-05 -2.65248e-22 1.17145e-05)
(8.56264e-05 -1.25549e-05 -5.55593e-19 6.25224e-05 -4.30875e-20 8.27875e-05)
(0.000445982 -0.000105507 -1.03125e-18 0.000237166 -1.26152e-19 0.000402831)
(0.000122816 -2.3444e-05 1.81356e-19 7.28663e-05 1.7871e-21 0.000108255)
(0.000733666 1.93892e-05 -1.09556e-20 0.000570772 2.88406e-21 0.000652299)
(0.000694481 3.59647e-05 4.75272e-20 0.000551628 3.38109e-20 0.000622953)
(0.000646982 4.91166e-05 -2.98103e-20 0.000531917 -5.07962e-20 0.00058932)
(0.000594904 5.75709e-05 1.49395e-20 0.000511768 2.50669e-20 0.000553307)
(0.000539117 6.10234e-05 -1.72685e-20 0.000489006 -3.59241e-21 0.000514098)
(0.000480256 5.96324e-05 -5.23362e-20 0.000461074 -2.14519e-21 0.00047077)
(0.000422052 5.44766e-05 3.75555e-20 0.000428448 8.36437e-21 0.000425368)
(0.000367453 4.71128e-05 -7.17581e-21 0.000392666 1.02754e-20 0.00038017)
(0.000318057 3.89376e-05 2.14505e-20 0.000355573 1.68663e-20 0.000336911)
(0.000274368 3.09304e-05 7.7268e-21 0.000318687 -1.92847e-20 0.00029658)
(0.00023647 2.37288e-05 -5.83291e-21 0.00028333 -1.40364e-20 0.000259885)
(0.000204134 1.76128e-05 -2.25323e-20 0.000250644 8.863e-21 0.000227296)
(0.000176948 1.26501e-05 -2.73742e-20 0.000221329 1.27816e-20 0.000198951)
(0.000154383 8.73397e-06 1.12637e-20 0.000195744 -7.87323e-22 0.000174776)
(0.000135857 5.67556e-06 -4.59216e-21 0.000173907 -5.24463e-21 0.000154494)
(0.000120683 3.24579e-06 -2.31758e-20 0.000155463 7.86135e-24 0.00013759)
(0.000108213 1.25201e-06 -2.60032e-20 0.00013988 -6.12065e-21 0.000123472)
(9.77263e-05 -4.75455e-07 -2.19617e-20 0.000126383 1.59386e-21 0.0001114)
(8.84872e-05 -2.03933e-06 2.33527e-20 0.000114052 -1.03477e-20 0.000100545)
(7.94843e-05 -3.40589e-06 -5.75112e-21 0.000101574 1.0694e-20 8.9758e-05)
(7.02359e-05 -4.34757e-06 -3.50041e-20 8.85071e-05 8.24152e-21 7.85552e-05)
(6.14366e-05 -4.76278e-06 4.66538e-20 7.60882e-05 -2.71993e-21 6.78535e-05)
(5.3735e-05 -4.81743e-06 3.70597e-21 6.52988e-05 -2.76798e-21 5.85001e-05)
(4.72675e-05 -4.67099e-06 6.80513e-22 5.63088e-05 -2.70461e-22 5.06553e-05)
(4.18115e-05 -4.38749e-06 1.69097e-21 4.88315e-05 3.7841e-23 4.40447e-05)
(3.72299e-05 -4.01661e-06 -1.71874e-20 4.26957e-05 -7.14426e-22 3.85116e-05)
(3.32317e-05 -3.57279e-06 -9.90507e-21 3.75032e-05 -1.03089e-21 3.37489e-05)
(2.9514e-05 -3.15411e-06 5.06304e-20 3.27914e-05 4.04275e-21 2.94371e-05)
(2.38372e-05 -2.38257e-06 3.50149e-20 2.58174e-05 2.45944e-21 2.33561e-05)
(1.72079e-05 -1.50668e-06 -2.28036e-20 1.79652e-05 -1.61318e-21 1.65852e-05)
(9.86799e-06 -6.22692e-07 1.19069e-20 9.85509e-06 1.50323e-21 9.44026e-06)
(0.000599214 1.37296e-05 -1.32188e-21 0.000465355 -9.61546e-21 0.000532336)
(0.000570346 2.72228e-05 -1.60654e-20 0.000451089 8.23724e-21 0.000510624)
(0.000535689 3.83607e-05 1.82834e-20 0.000437189 1.77158e-20 0.000486356)
(0.000496878 4.60381e-05 4.27928e-20 0.000423007 1.87217e-20 0.000459931)
(0.000454672 4.98462e-05 2.91841e-20 0.000406881 -7.56519e-22 0.000430784)
(0.000410188 4.98945e-05 -8.31655e-21 0.00038743 7.31323e-21 0.000398848)
(0.000365802 4.68622e-05 -3.933e-20 0.000364647 -1.47516e-20 0.00036527)
(0.000323427 4.17785e-05 2.7745e-20 0.000339126 1.90055e-20 0.000331323)
(0.000284153 3.56474e-05 1.3907e-21 0.000311825 -2.16808e-20 0.000298044)
(0.00024847 2.92553e-05 1.47894e-21 0.000283679 -9.8816e-21 0.000266133)
(0.000216626 2.31871e-05 -2.21928e-20 0.000255643 8.80587e-21 0.00023619)
(0.000188608 1.77669e-05 1.27932e-20 0.000228668 1.3533e-20 0.000208703)
(0.000164264 1.31527e-05 5.60038e-20 0.000203442 4.62271e-21 0.000183934)
(0.000143377 9.34704e-06 -2.0435e-20 0.000180505 -3.26221e-22 0.000162045)
(0.000125659 6.25759e-06 -4.24411e-21 0.000160145 -4.66062e-22 0.000143036)
(0.000110707 3.73529e-06 -2.9234e-20 0.000142319 1.8909e-20 0.000126684)
(9.81129e-05 1.63626e-06 -2.21657e-20 0.000126806 3.38054e-21 0.00011267)
(8.73979e-05 -1.69956e-07 2.51786e-20 0.00011315 6.27893e-21 0.000100524)
(7.80137e-05 -1.7638e-06 -5.84891e-20 0.000100695 6.18311e-21 8.96424e-05)
(6.92205e-05 -3.12741e-06 1.96424e-20 8.84917e-05 1.75305e-22 7.91956e-05)
(6.05725e-05 -4.09447e-06 3.87755e-20 7.61073e-05 5.72616e-22 6.87392e-05)
(5.24355e-05 -4.57317e-06 -1.59655e-20 6.43267e-05 -4.41625e-21 5.88149e-05)
(4.5304e-05 -4.68654e-06 -1.73487e-20 5.39459e-05 3.08962e-22 5.00946e-05)
(3.9334e-05 -4.57359e-06 -4.17128e-21 4.51585e-05 2.36476e-22 4.2776e-05)
(3.44019e-05 -4.30124e-06 -5.10798e-22 3.77877e-05 1.84478e-23 3.67037e-05)
(3.04416e-05 -3.90949e-06 2.07762e-21 3.17445e-05 5.42165e-22 3.17938e-05)
(2.75691e-05 -3.44603e-06 -2.70125e-20 2.711e-05 -8.72298e-22 2.81557e-05)
(2.584e-05 -2.96147e-06 6.20371e-20 2.39567e-05 2.0817e-21 2.58233e-05)
(2.4998e-05 -2.5098e-06 2.64208e-21 2.20199e-05 -5.59958e-22 2.45044e-05)
(2.33808e-05 -1.91247e-06 3.9475e-20 1.99053e-05 4.06903e-21 2.25591e-05)
(1.67704e-05 -8.69522e-07 1.20871e-20 1.45144e-05 -3.79265e-22 1.61294e-05)
(0.000495837 9.77083e-06 -4.78051e-22 0.000384548 2.57451e-21 0.000440187)
(0.00047392 2.09026e-05 -2.47114e-21 0.000373517 -2.30014e-20 0.000423642)
(0.00044798 3.03647e-05 -7.99522e-20 0.000363399 -3.76184e-20 0.000405645)
(0.000418457 3.72177e-05 1.76304e-20 0.00035316 2.76132e-20 0.0003858)
(0.000386068 4.10347e-05 -5.21021e-21 0.00034155 1.88071e-21 0.000363803)
(0.000352033 4.19129e-05 4.23109e-20 0.000327858 1.44156e-20 0.000339965)
(0.000317782 4.02767e-05 -2.84786e-21 0.000311744 1.39957e-20 0.000314787)
(0.000284651 3.68283e-05 1.79061e-20 0.000293427 -6.28449e-21 0.000289063)
(0.000253418 3.22909e-05 -1.55803e-20 0.000273391 5.08984e-21 0.000263439)
(0.000224494 2.72688e-05 -2.84471e-20 0.000252195 8.23098e-21 0.000238382)
(0.000198187 2.22549e-05 7.52083e-21 0.000230515 3.74163e-21 0.000214379)
(0.000174637 1.75715e-05 1.24002e-20 0.000209135 -5.05671e-21 0.000191906)
(0.000153831 1.34116e-05 1.16661e-20 0.000188639 -2.2239e-20 0.000171242)
(0.000135716 9.84532e-06 1.63237e-20 0.000169581 5.71415e-21 0.000152637)
(0.00012014 6.85601e-06 -1.50043e-20 0.000152293 8.45153e-21 0.000136184)
(0.000106831 4.35756e-06 5.58881e-20 0.000136856 2.41694e-21 0.000121787)
(9.54572e-05 2.25005e-06 -1.31461e-20 0.000123136 7.77087e-21 0.000109218)
(8.56326e-05 4.34014e-07 2.59542e-20 0.000110817 -1.01742e-20 9.8123e-05)
(7.68976e-05 -1.15405e-06 3.9824e-20 9.93891e-05 2.52326e-21 8.80198e-05)
(6.86781e-05 -2.50634e-06 7.91884e-22 8.81555e-05 -8.93927e-21 7.82805e-05)
(6.06299e-05 -3.50136e-06 -1.09441e-20 7.67998e-05 -7.13627e-21 6.85705e-05)
(5.3011e-05 -4.05747e-06 -1.0025e-20 6.59139e-05 1.51678e-21 5.92883e-05)
(4.61855e-05 -4.25964e-06 2.02696e-21 5.61464e-05 1.30455e-22 5.09522e-05)
(4.02534e-05 -4.23058e-06 4.19771e-21 4.76707e-05 1.95142e-22 4.37165e-05)
(3.5074e-05 -4.03877e-06 1.71105e-21 4.03309e-05 -3.08596e-23 3.74242e-05)
(3.05134e-05 -3.72748e-06 4.82612e-21 3.39894e-05 1.13312e-22 3.19289e-05)
(2.65362e-05 -3.34512e-06 1.90194e-20 2.86076e-05 1.74382e-21 2.71903e-05)
(2.30717e-05 -2.92958e-06 -1.08327e-19 2.40667e-05 -7.85863e-21 2.31201e-05)
(2.00659e-05 -2.51412e-06 -4.32681e-20 2.0214e-05 -1.75652e-21 1.96366e-05)
(1.74677e-05 -2.09125e-06 -2.37683e-21 1.68975e-05 -4.497e-21 1.6652e-05)
(1.56688e-05 -1.7342e-06 -6.00444e-20 1.44081e-05 -7.00045e-21 1.45049e-05)
(0.000426883 -2.81157e-06 -3.23511e-20 0.00032993 -2.46363e-20 0.000378407)
(0.000414561 6.95794e-06 -1.86051e-20 0.000321171 -1.32367e-20 0.000367844)
(0.000397738 1.62366e-05 -4.72079e-21 0.000312563 -1.17967e-21 0.000355093)
(0.000377861 2.43174e-05 1.1629e-20 0.000304969 2.98328e-20 0.000341399)
(0.000355013 3.03773e-05 2.64828e-20 0.000297411 1.70472e-20 0.000326204)
(0.000329864 3.40304e-05 1.87919e-20 0.000288963 -1.22612e-20 0.000309403)
(0.000303478 3.53633e-05 -2.55652e-20 0.000279223 -1.58994e-20 0.000291359)
(0.000276804 3.46456e-05 5.35378e-20 0.000267769 2.33599e-21 0.000272297)
(0.000250747 3.23641e-05 -7.79982e-21 0.000254582 -2.39633e-20 0.000252673)
(0.000225841 2.90439e-05 4.56685e-20 0.000239877 9.75492e-21 0.000232876)
(0.000202396 2.51423e-05 3.51377e-20 0.000223946 4.85685e-21 0.000213194)
(0.000180678 2.10564e-05 -1.67361e-20 0.000207208 -6.96893e-21 0.000193963)
(0.000160829 1.707e-05 2.86488e-21 0.000190217 -7.81776e-21 0.000175544)
(0.00014293 1.33843e-05 -4.29613e-20 0.000173453 1.98619e-21 0.000158211)
(0.000126983 1.01018e-05 -6.68977e-21 0.000157367 -5.13073e-21 0.000142194)
(0.000112936 7.25273e-06 3.00536e-20 0.000142301 1.52462e-21 0.000127637)
(0.000100653 4.80729e-06 6.02908e-22 0.000128434 -8.41915e-21 0.000114564)
(8.99324e-05 2.7081e-06 2.62107e-20 0.000115768 4.93172e-21 0.000102874)
(8.05012e-05 8.85869e-07 -2.94523e-20 0.000104129 -4.93908e-21 9.23437e-05)
(7.2023e-05 -7.02061e-07 -2.24509e-20 9.31781e-05 -4.95618e-21 8.26377e-05)
(6.4101e-05 -2.04928e-06 -4.45118e-20 8.24603e-05 1.45666e-21 7.33329e-05)
(5.64836e-05 -3.0663e-06 -3.35045e-20 7.17613e-05 5.14146e-21 6.41959e-05)
(4.93123e-05 -3.68112e-06 -3.59717e-21 6.14832e-05 7.93105e-22 5.54823e-05)
(4.28757e-05 -3.95145e-06 -1.27493e-20 5.21762e-05 5.65263e-22 4.76151e-05)
(3.72822e-05 -3.98113e-06 -4.26358e-22 4.40407e-05 -3.01281e-22 4.07648e-05)
(3.24437e-05 -3.83692e-06 -1.62086e-21 3.69891e-05 -1.48808e-22 3.48411e-05)
(2.82607e-05 -3.56143e-06 -6.07828e-22 3.09221e-05 -2.9868e-22 2.97384e-05)
(2.47143e-05 -3.19932e-06 1.33611e-20 2.58118e-05 -6.15642e-23 2.54357e-05)
(2.18505e-05 -2.79332e-06 1.98122e-22 2.16655e-05 3.26423e-22 2.1965e-05)
(1.96876e-05 -2.37445e-06 8.78156e-20 1.84819e-05 7.947e-21 1.93207e-05)
(1.82385e-05 -1.96163e-06 -1.40122e-19 1.62089e-05 -9.82705e-21 1.74746e-05)
(1.75113e-05 -1.56539e-06 7.82142e-21 1.47903e-05 6.63031e-21 1.64115e-05)
(0.000349667 4.93236e-06 -5.77003e-20 0.000270673 -5.83621e-21 0.000310141)
(0.000336606 1.27405e-05 8.26029e-20 0.000263881 6.54438e-20 0.000300201)
(0.000321059 1.96709e-05 5.08203e-20 0.000258015 7.15893e-21 0.000289537)
(0.000303096 2.50026e-05 3.65577e-20 0.000252313 -7.08607e-21 0.0002777)
(0.000283371 2.84137e-05 -5.74945e-20 0.00024613 -2.55428e-20 0.000264738)
(0.000262679 2.99685e-05 -3.58424e-20 0.000239145 -6.82521e-21 0.000250916)
(0.000241701 2.98443e-05 -7.25295e-20 0.000230953 -2.32314e-20 0.000236329)
(0.00022108 2.83901e-05 -7.44651e-20 0.000221437 3.94318e-21 0.00022126)
(0.000201155 2.59905e-05 -3.62562e-20 0.000210642 -1.20849e-20 0.000205908)
(0.000182129 2.2987e-05 1.10039e-20 0.000198688 7.4202e-22 0.000190424)
(0.000164241 1.96932e-05 -6.8145e-21 0.000185843 1.76512e-21 0.000175056)
(0.000147624 1.63488e-05 -1.9104e-20 0.000172485 7.75753e-21 0.000160069)
(0.000132362 1.31351e-05 2.10894e-20 0.000158956 4.24458e-21 0.000145671)
(0.000118529 1.01704e-05 -2.57644e-20 0.000145646 -7.16856e-21 0.000132096)
(0.000106123 7.51573e-06 -2.76917e-21 0.00013285 -6.45752e-21 0.00011949)
(9.50831e-05 5.17344e-06 8.20049e-21 0.000120776 -6.00989e-21 0.000107928)
(8.5293e-05 3.12303e-06 2.52129e-20 0.000109494 -1.08498e-20 9.73861e-05)
(7.65628e-05 1.32628e-06 -1.07095e-20 9.89224e-05 5.19254e-22 8.77296e-05)
(6.86465e-05 -2.41969e-07 -6.19584e-21 8.88483e-05 1.19181e-20 7.873e-05)
(6.12651e-05 -1.57587e-06 -6.74296e-21 7.89812e-05 1.10827e-20 7.01041e-05)
(5.42183e-05 -2.60579e-06 2.48154e-20 6.9167e-05 3.37094e-21 6.16763e-05)
(4.75966e-05 -3.27035e-06 -3.02801e-22 5.97115e-05 3.12336e-21 5.36326e-05)
(4.1613e-05 -3.60752e-06 8.50162e-21 5.10625e-05 1.35557e-21 4.63029e-05)
(3.63517e-05 -3.70216e-06 -1.13066e-21 4.34129e-05 1.43105e-22 3.98373e-05)
(3.17384e-05 -3.61809e-06 -9.09568e-22 3.67086e-05 3.40381e-23 3.41716e-05)
(2.76768e-05 -3.39796e-06 -3.29385e-21 3.08651e-05 -1.25678e-22 2.92089e-05)
(2.41304e-05 -3.08565e-06 -1.38944e-20 2.58487e-05 -7.80659e-22 2.49135e-05)
(2.10908e-05 -2.72269e-06 -3.73278e-20 2.16302e-05 -2.32422e-21 2.12669e-05)
(1.85321e-05 -2.33697e-06 2.54249e-21 1.813e-05 -5.59269e-22 1.82224e-05)
(1.65417e-05 -1.95155e-06 1.26668e-19 1.53584e-05 1.67899e-20 1.58286e-05)
(1.51313e-05 -1.55712e-06 9.13436e-20 1.32777e-05 2.53006e-21 1.40852e-05)
(0.000286885 1.00809e-05 -7.62723e-20 0.000224442 -4.2777e-20 0.000255636)
(0.000274534 1.60468e-05 -5.81309e-20 0.000219812 -1.01086e-20 0.00024718)
(0.000260221 2.07341e-05 4.32803e-20 0.000215435 3.55429e-20 0.000237826)
(0.000244591 2.38706e-05 7.09094e-20 0.000210881 1.68399e-20 0.000227723)
(0.000228206 2.55065e-05 1.17911e-20 0.000205852 -1.07051e-21 0.000217031)
(0.000211557 2.57576e-05 5.28408e-20 0.000199963 3.61152e-20 0.00020576)
(0.000195113 2.48839e-05 6.8451e-20 0.000193076 2.74835e-20 0.000194093)
(0.000179108 2.31734e-05 -2.46553e-20 0.000185159 -7.52163e-21 0.000182137)
(0.000163672 2.08834e-05 1.48895e-20 0.00017623 6.18666e-23 0.000169959)
(0.000148959 1.82542e-05 -5.10114e-21 0.000166414 2.41756e-21 0.000157694)
(0.000135075 1.54777e-05 3.76403e-20 0.000155966 2.02986e-21 0.000145531)
(0.00012211 1.2714e-05 -1.36633e-20 0.000145113 -2.67691e-22 0.000133621)
(0.000110135 1.00759e-05 -3.64247e-20 0.000134143 1.40212e-20 0.000122148)
(9.91974e-05 7.63865e-06 -1.36939e-20 0.000123319 1.27386e-21 0.000111265)
(8.92832e-05 5.43216e-06 -3.19477e-20 0.000112833 5.18578e-21 0.000101063)
(8.03265e-05 3.46079e-06 -3.40448e-20 0.00010278 -5.03238e-22 9.15562e-05)
(7.22129e-05 1.70957e-06 -3.69e-20 9.31552e-05 7.2041e-21 8.26866e-05)
(6.47783e-05 1.69683e-07 6.00345e-20 8.38464e-05 -6.1376e-21 7.43158e-05)
(5.78333e-05 -1.14645e-06 4.67718e-20 7.46825e-05 -1.47809e-21 6.62649e-05)
(5.12458e-05 -2.18289e-06 7.94975e-21 6.5589e-05 -5.50033e-21 5.84317e-05)
(4.50748e-05 -2.88726e-06 3.09438e-20 5.68048e-05 -3.33623e-21 5.09577e-05)
(3.94724e-05 -3.28082e-06 7.0807e-21 4.86895e-05 -1.75501e-21 4.40966e-05)
(3.45145e-05 -3.43191e-06 2.07208e-21 4.14355e-05 3.69812e-22 3.79915e-05)
(3.01553e-05 -3.39903e-06 -1.53562e-22 3.50335e-05 1.31105e-22 3.26162e-05)
(2.63254e-05 -3.22385e-06 -1.96057e-22 2.94338e-05 1.81225e-22 2.7907e-05)
(2.30014e-05 -2.9478e-06 6.95506e-21 2.46225e-05 7.41765e-22 2.38444e-05)
(2.01979e-05 -2.61172e-06 9.97105e-21 2.05945e-05 1.38366e-21 2.04362e-05)
(1.79284e-05 -2.24504e-06 2.02561e-20 1.73349e-05 1.53375e-21 1.76785e-05)
(1.62635e-05 -1.87091e-06 4.52782e-20 1.48541e-05 -1.52571e-21 1.56066e-05)
(1.5185e-05 -1.48263e-06 -1.61071e-19 1.30922e-05 -2.07922e-20 1.41905e-05)
(0.000236043 1.3189e-05 1.869e-20 0.000188391 1.01994e-20 0.000212226)
(0.000224517 1.73099e-05 2.66662e-20 0.000184987 -1.48364e-20 0.00020475)
(0.000212007 2.01657e-05 -9.0957e-20 0.000181607 -4.78692e-20 0.000196797)
(0.000198899 2.17944e-05 -7.45704e-20 0.000177962 -7.20611e-22 0.00018843)
(0.000185572 2.22778e-05 1.37486e-20 0.000173729 -1.40358e-21 0.000179649)
(0.000172382 2.18097e-05 6.39283e-20 0.000168747 -1.07699e-20 0.00017056)
(0.000159473 2.0612e-05 -1.77192e-20 0.000162945 4.22755e-21 0.000161211)
(0.000146906 1.88781e-05 -1.01119e-20 0.000156277 -8.71677e-22 0.000151597)
(0.000134806 1.67942e-05 -2.55066e-21 0.00014881 -4.30287e-21 0.000141812)
(0.00012324 1.45123e-05 -1.31739e-20 0.000140687 -3.26588e-22 0.00013197)
(0.000112269 1.21624e-05 2.84936e-20 0.000132042 3.72002e-21 0.000122162)
(0.000101968 9.84676e-06 5.60989e-20 0.000123089 1.41252e-20 0.000112535)
(9.23892e-05 7.64295e-06 8.62661e-21 0.000114018 4.18068e-21 0.000103208)
(8.35594e-05 5.59504e-06 3.98307e-20 0.000105013 4.6206e-21 9.42897e-05)
(7.54617e-05 3.72713e-06 1.71869e-20 9.61869e-05 5.14556e-21 8.58253e-05)
(6.80284e-05 2.04229e-06 2.82281e-20 8.75718e-05 1.98183e-21 7.77983e-05)
(6.1146e-05 5.46237e-07 -3.96402e-20 7.91095e-05 -7.58912e-21 7.01246e-05)
(5.4692e-05 -7.44137e-07 -6.2435e-21 7.07146e-05 -1.00964e-20 6.27015e-05)
(4.85971e-05 -1.77969e-06 -2.37679e-20 6.23861e-05 -1.9301e-22 5.54927e-05)
(4.28956e-05 -2.51342e-06 -3.32636e-20 5.43111e-05 -2.85842e-22 4.86051e-05)
(3.76981e-05 -2.95626e-06 -1.52434e-20 4.67839e-05 -5.10389e-22 4.22382e-05)
(3.30652e-05 -3.16064e-06 3.5432e-21 3.99861e-05 -3.5448e-22 3.6519e-05)
(2.89657e-05 -3.17918e-06 1.74969e-21 3.39369e-05 -7.05066e-23 3.14436e-05)
(2.53431e-05 -3.05189e-06 1.7493e-21 2.86089e-05 4.63645e-22 2.69666e-05)
(2.21711e-05 -2.81804e-06 -2.13127e-22 2.39919e-05 -4.25064e-22 2.30688e-05)
(1.94571e-05 -2.51703e-06 -2.33869e-21 2.00848e-05 9.83838e-22 1.97541e-05)
(1.71995e-05 -2.17756e-06 -2.60552e-21 1.68557e-05 -3.86464e-21 1.70069e-05)
(1.54666e-05 -1.82108e-06 -7.88743e-20 1.43144e-05 -3.77134e-21 1.48643e-05)
(1.42915e-05 -1.44558e-06 7.60947e-21 1.24477e-05 1.0207e-20 1.33468e-05)
(0.000194553 1.45355e-05 -1.02737e-19 0.000159621 -4.44793e-20 0.000177086)
(0.000184441 1.71213e-05 2.1634e-20 0.000157094 3.13931e-20 0.000170759)
(0.000173869 1.86933e-05 5.5431e-20 0.000154453 9.58815e-21 0.000164161)
(0.000163119 1.93103e-05 -6.72264e-20 0.000151408 -2.8183e-20 0.000157262)
(0.00015246 1.91216e-05 -6.66836e-20 0.0001478 -6.8386e-21 0.000150127)
(0.000141992 1.83023e-05 3.80376e-20 0.000143553 9.32058e-21 0.000142772)
(0.000131744 1.70017e-05 2.00047e-20 0.000138599 -4.39323e-22 0.000135174)
(0.000121782 1.53608e-05 -3.41566e-20 0.00013293 -1.85426e-21 0.000127358)
(0.000112148 1.34976e-05 2.96569e-20 0.000126637 1.31789e-21 0.000119396)
(0.00010289 1.15183e-05 -2.09107e-20 0.000119792 -1.0043e-20 0.000111345)
(9.40685e-05 9.51024e-06 5.04936e-20 0.000112534 -9.94519e-21 0.000103306)
(8.57321e-05 7.54474e-06 2.07041e-20 0.000105 -3.69891e-21 9.537e-05)
(7.79152e-05 5.6702e-06 -2.39024e-21 9.73327e-05 -8.30429e-21 8.76273e-05)
(7.06299e-05 3.92262e-06 7.79885e-21 8.96393e-05 -3.58239e-21 8.01363e-05)
(6.38448e-05 2.31989e-06 -7.6539e-21 8.19705e-05 -5.04541e-21 7.29081e-05)
(5.74973e-05 8.79674e-07 -2.34702e-21 7.43196e-05 5.35521e-21 6.59087e-05)
(5.15213e-05 -3.758e-07 -4.83268e-20 6.66683e-05 5.57154e-21 5.90962e-05)
(4.58815e-05 -1.40276e-06 3.81459e-22 5.90508e-05 3.22719e-21 5.24705e-05)
(4.06095e-05 -2.15701e-06 2.29925e-20 5.16319e-05 3.6078e-21 4.61269e-05)
(3.57829e-05 -2.64023e-06 3.23475e-22 4.46512e-05 1.58012e-21 4.02216e-05)
(3.14527e-05 -2.8919e-06 -4.24818e-21 3.82804e-05 -1.04342e-22 3.48695e-05)
(2.76011e-05 -2.95747e-06 -2.36236e-21 3.25628e-05 -9.52475e-23 3.00857e-05)
(2.4186e-05 -2.87434e-06 7.53324e-21 2.74927e-05 -2.75825e-23 2.58444e-05)
(2.11883e-05 -2.6792e-06 -5.12748e-21 2.30735e-05 -5.3122e-22 2.21365e-05)
(1.86216e-05 -2.40965e-06 3.75525e-20 1.93165e-05 4.73132e-21 1.89756e-05)
(1.64965e-05 -2.09423e-06 -8.73071e-20 1.62108e-05 -7.56965e-21 1.63617e-05)
(1.48764e-05 -1.75391e-06 1.29877e-19 1.37727e-05 1.01566e-20 1.43304e-05)
(1.37934e-05 -1.38895e-06 6.1919e-20 1.19926e-05 9.65219e-21 1.29025e-05)
(0.000160987 1.46018e-05 5.72507e-21 0.000136423 3.85093e-21 0.000148698)
(0.000152381 1.60887e-05 -3.59379e-20 0.000134503 -1.48636e-20 0.000143441)
(0.000143641 1.67744e-05 4.58776e-21 0.000132318 2.11952e-20 0.000137977)
(0.000134977 1.67764e-05 3.70665e-20 0.000129719 8.25522e-21 0.000132343)
(0.000126451 1.62352e-05 -4.183e-20 0.00012662 -1.26999e-20 0.000126534)
(0.00011806 1.52673e-05 7.70488e-21 0.00012294 7.88734e-22 0.000120501)