/*--------------------------------*- C++ -*----------------------------------*\
| =========                 |                                                 |
| \\      /  F ield         | OpenFOAM: The Open Source CFD Toolbox           |
|  \\    /   O peration     | Version:  2306                                  |
|   \\  /    A nd           | Website:  www.openfoam.com                      |
|    \\/     M anipulation  |                                                 |
\*---------------------------------------------------------------------------*/
FoamFile
{
    version     2.0;
    format      ascii;
    arch        "LSB;label=32;scalar=64";
    class       volScalarField;
    location    "225";
    object      turbulenceProperties:epsilon;
}
// * * * * * * * * * * * * * * * * * * * * * * * * * * * * * * * * * * * * * //

dimensions      [0 2 -3 0 0 0 0];

internalField   nonuniform List<scalar> 
1340
(
0.00627535
0.00687098
0.0123328
0.0260626
0.0545614
0.107759
0.198659
0.341625
0.555855
0.873503
1.35757
2.12902
3.41356
5.66621
9.74708
17.7096
33.3468
67.9371
141.365
320.324
665.267
946.85
1068.45
1101.57
1103.07
1089.4
1063.58
1026.49
0.00353577
0.00273697
0.00208883
0.00153207
0.00108271
0.000756541
0.000526231
0.000363388
0.0002488
0.000168961
0.000113206
7.46054e-05
4.72352e-05
2.75417e-05
1.31617e-05
4.20754e-06
3.99546e-07
6.71943e-09
6.16966e-08
0.00099503
0.0061261
0.0516745
0.17164
0.321061
0.468367
0.617443
0.77625
0.949455
1.13754
0.00225883
0.00182489
0.00146298
0.0011317
0.00082289
0.000570783
0.000384144
0.000252923
0.000165184
0.000107945
7.17579e-05
4.9226e-05
3.54993e-05
2.70221e-05
2.18528e-05
1.879e-05
1.72012e-05
1.63579e-05
1.63061e-05
1.61244e-05
1.82318e-05
6.34349e-06
0.000169469
0.000996809
0.00209519
0.0036641
0.00966647
0.0267075
0.0601834
0.00161028
0.00138933
0.00117227
0.000965623
0.000763931
0.000580445
0.000431329
0.00031795
0.000234056
0.000173164
0.000129173
9.78052e-05
7.54753e-05
5.96436e-05
4.81299e-05
3.96827e-05
3.32165e-05
2.79093e-05
2.28246e-05
1.81318e-05
1.4642e-05
1.22525e-05
1.06688e-05
8.87985e-06
6.86418e-06
3.79965e-06
1.5241e-06
2.28762e-05
1.50849e-05
6.9442e-05
0.00101761
0.000896687
0.000775398
0.000655717
0.000535893
0.0004241
0.000327369
0.000247899
0.000184655
0.000135829
9.9097e-05
7.21383e-05
5.27678e-05
3.90954e-05
2.94643e-05
2.26824e-05
1.78093e-05
1.41529e-05
1.10568e-05
8.30101e-06
6.10611e-06
4.60335e-06
3.6898e-06
3.32122e-06
2.83818e-06
4.19574e-06
2.00827e-07
8.65558e-06
5.21533e-05
1.09273e-05
0.000728256
0.000664457
0.000594693
0.000524117
0.000452394
0.000379276
0.000309626
0.000247318
0.000194238
0.000150539
0.000115628
8.84889e-05
6.78432e-05
5.24064e-05
4.09963e-05
3.25589e-05
2.626e-05
2.14109e-05
1.74723e-05
1.395e-05
1.07106e-05
8.02293e-06
5.99496e-06
4.52447e-06
3.45046e-06
2.668e-06
2.07651e-06
1.60055e-06
1.01532e-06
5.09869e-07
1.58054e-07
0.000485041
0.000446449
0.000405016
0.000362131
0.00031767
0.000272286
0.000228362
0.000187884
0.000152027
0.00012121
9.54674e-05
7.45321e-05
5.78809e-05
4.49123e-05
3.49795e-05
2.74238e-05
2.16771e-05
1.7241e-05
1.36971e-05
1.06753e-05
8.02602e-06
5.86344e-06
4.24222e-06
3.08073e-06
2.25533e-06
1.67986e-06
1.30504e-06
1.08757e-06
9.72684e-07
8.25378e-07
4.25559e-07
0.0003317
0.000307303
0.000281722
0.000254803
0.000226574
0.000197835
0.000169612
0.000143023
0.000118782
9.72578e-05
7.86605e-05
6.30353e-05
5.01954e-05
3.9887e-05
3.17583e-05
2.5406e-05
2.04397e-05
1.65047e-05
1.32874e-05
1.05143e-05
8.07159e-06
6.04093e-06
4.46907e-06
3.29611e-06
2.42139e-06
1.76873e-06
1.28938e-06
9.38906e-07
6.82813e-07
4.9511e-07
3.77931e-07
0.000245123
0.000231647
0.000215895
0.000199534
0.000182163
0.000163884
0.000145314
0.00012692
0.000109286
9.28273e-05
7.77957e-05
6.43941e-05
5.27438e-05
4.2842e-05
3.46061e-05
2.78827e-05
2.24626e-05
1.81111e-05
1.45915e-05
1.16832e-05
9.19713e-06
7.04399e-06
5.25886e-06
3.87142e-06
2.83508e-06
2.0681e-06
1.50394e-06
1.09751e-06
8.15541e-07
6.28633e-07
5.12757e-07
4.51297e-07
0.000164679
0.000154302
0.000143507
0.000132017
0.000119985
0.000107774
9.56085e-05
8.3805e-05
7.25749e-05
6.20675e-05
5.24537e-05
4.38561e-05
3.63216e-05
2.98684e-05
2.44407e-05
1.99409e-05
1.6237e-05
1.31779e-05
1.06139e-05
8.41612e-06
6.51415e-06
4.9267e-06
3.67383e-06
2.72082e-06
2.00297e-06
1.46462e-06
1.06684e-06
7.78782e-07
5.72953e-07
4.33285e-07
3.43479e-07
0.000111885
0.000104587
9.68257e-05
8.87799e-05
8.06316e-05
7.24752e-05
6.449e-05
5.67877e-05
4.94457e-05
4.25668e-05
3.62524e-05
3.05616e-05
2.55386e-05
2.11909e-05
1.74833e-05
1.4349e-05
1.17036e-05
9.45373e-06
7.51577e-06
5.84283e-06
4.44308e-06
3.32715e-06
2.46938e-06
1.81948e-06
1.33144e-06
9.71515e-07
7.13065e-07
5.33111e-07
4.15238e-07
3.43045e-07
7.70972e-05
7.17662e-05
6.63032e-05
6.07813e-05
5.52489e-05
4.98011e-05
4.44888e-05
3.93393e-05
3.44254e-05
2.9812e-05
2.55452e-05
2.16776e-05
1.82335e-05
1.52186e-05
1.26093e-05
1.03615e-05
8.4185e-06
6.73039e-06
5.27142e-06
4.04399e-06
3.05434e-06
2.28355e-06
1.69306e-06
1.24544e-06
9.11663e-07
6.68762e-07
4.9593e-07
3.79116e-07
3.0564e-07
5.36832e-05
4.99187e-05
4.61326e-05
4.2337e-05
3.85832e-05
3.48944e-05
3.12784e-05
2.7766e-05
2.44023e-05
2.12221e-05
1.8268e-05
1.55692e-05
1.31439e-05
1.0993e-05
9.09947e-06
7.4362e-06
5.97823e-06
4.71249e-06
3.64165e-06
2.76899e-06
2.08118e-06
1.54923e-06
1.1431e-06
8.38567e-07
6.16109e-07
4.57972e-07
3.51354e-07
2.84698e-07
3.78534e-05
3.52224e-05
3.25906e-05
2.99843e-05
2.74087e-05
2.48569e-05
2.23478e-05
1.9902e-05
1.75408e-05
1.52986e-05
1.32019e-05
1.12714e-05
9.5174e-06
7.94091e-06
6.53318e-06
5.28679e-06
4.19788e-06
3.26959e-06
2.50508e-06
1.89508e-06
1.4182e-06
1.05096e-06
7.73328e-07
5.68842e-07
4.22019e-07
3.21707e-07
2.57849e-07
2.70367e-05
2.51953e-05
2.33678e-05
2.15566e-05
1.97502e-05
1.7953e-05
1.61771e-05
1.44321e-05
1.27397e-05
1.11213e-05
9.59693e-06
8.18204e-06
6.88475e-06
5.7063e-06
4.64834e-06
3.7165e-06
2.91666e-06
2.25109e-06
1.71352e-06
1.28872e-06
9.58709e-07
7.07266e-07
5.20749e-07
3.86026e-07
2.93414e-07
2.3386e-07
2.08516e-05
1.95481e-05
1.82596e-05
1.69784e-05
1.56926e-05
1.44035e-05
1.3112e-05
1.18245e-05
1.0553e-05
9.31253e-06
8.11928e-06
6.98777e-06
5.92975e-06
4.95216e-06
4.06366e-06
3.27328e-06
2.58868e-06
2.01274e-06
1.54197e-06
1.16581e-06
8.70837e-07
6.44185e-07
4.74694e-07
3.51265e-07
2.65586e-07
2.09708e-07
1.5219e-05
1.43019e-05
1.33882e-05
1.24695e-05
1.15414e-05
1.06028e-05
9.65371e-06
8.70211e-06
7.75638e-06
6.82898e-06
5.93199e-06
5.07657e-06
4.27267e-06
3.53207e-06
2.86658e-06
2.28415e-06
1.78897e-06
1.37938e-06
1.04837e-06
7.86276e-07
5.83112e-07
4.29902e-07
3.1746e-07
2.38721e-07
1.86717e-07
1.18843e-05
1.12258e-05
1.0571e-05
9.91006e-06
9.23954e-06
8.55577e-06
7.85671e-06
7.14597e-06
6.42829e-06
5.71143e-06
5.00549e-06
4.32056e-06
3.66595e-06
3.05331e-06
2.49591e-06
2.0038e-06
1.58092e-06
1.2269e-06
9.37483e-07
7.05963e-07
5.24838e-07
3.87011e-07
2.85021e-07
2.12913e-07
1.6465e-07
8.82859e-06
8.35596e-06
7.87773e-06
7.39107e-06
6.89201e-06
6.37694e-06
5.84667e-06
5.30372e-06
4.75307e-06
4.20094e-06
3.65558e-06
3.12583e-06
2.62352e-06
2.16109e-06
1.74807e-06
1.38905e-06
1.08489e-06
8.33356e-07
6.30034e-07
4.69436e-07
3.46081e-07
2.54041e-07
1.88328e-07
1.43784e-07
6.95574e-06
6.61171e-06
6.26405e-06
5.90937e-06
5.54372e-06
5.16368e-06
4.76849e-06
4.35849e-06
3.93665e-06
3.50749e-06
3.07667e-06
2.65124e-06
2.242e-06
1.86067e-06
1.5161e-06
1.2132e-06
9.53554e-07
7.3633e-07
5.58833e-07
4.17242e-07
3.0741e-07
2.24754e-07
1.6514e-07
1.24234e-07
5.48891e-06
5.2366e-06
4.98246e-06
4.72255e-06
4.45364e-06
4.17246e-06
3.87779e-06
3.56895e-06
3.24699e-06
2.91447e-06
2.57592e-06
2.2368e-06
1.90572e-06
1.59296e-06
1.30724e-06
1.05334e-06
8.33099e-07
6.46643e-07
4.92584e-07
3.68426e-07
2.71139e-07
1.97278e-07
1.43455e-07
1.06109e-07
4.15155e-06
3.96432e-06
3.77254e-06
3.57409e-06
3.36564e-06
3.14556e-06
2.91283e-06
2.66762e-06
2.41128e-06
2.14642e-06
1.87728e-06
1.61093e-06
1.3563e-06
1.12093e-06
9.09288e-07
7.23539e-07
5.64399e-07
4.31427e-07
3.2314e-07
2.37433e-07
1.71756e-07
1.23402e-07
8.95089e-08
3.29414e-06
3.15501e-06
3.0132e-06
2.86577e-06
2.71057e-06
2.54597e-06
2.37056e-06
2.18396e-06
1.98679e-06
1.78052e-06
1.56804e-06
1.355e-06
1.14875e-06
9.55929e-07
7.80425e-07
6.24633e-07
4.89595e-07
3.75483e-07
2.81555e-07
2.06433e-07
1.48316e-07
1.05096e-07
7.45232e-08
2.51195e-06
2.40612e-06
2.29604e-06
2.1801e-06
2.05669e-06
1.9244e-06
1.78257e-06
1.63125e-06
1.4711e-06
1.30401e-06
1.13431e-06
9.67998e-07
8.10697e-07
6.66068e-07
5.36115e-07
4.22159e-07
3.24766e-07
2.43716e-07
1.78202e-07
1.27035e-07
8.86053e-08
6.11958e-08
2.00065e-06
1.92117e-06
1.83857e-06
1.75156e-06
1.65874e-06
1.55884e-06
1.45092e-06
1.3348e-06
1.21069e-06
1.07978e-06
9.45195e-07
8.11798e-07
6.84106e-07
5.65442e-07
4.57577e-07
3.6191e-07
2.79195e-07
2.09607e-07
1.52762e-07
1.07934e-07
7.39432e-08
4.95207e-08
1.59405e-06
1.53389e-06
1.47174e-06
1.40609e-06
1.33592e-06
1.26023e-06
1.1781e-06
1.08906e-06
9.93004e-07
8.90599e-07
7.84185e-07
6.77541e-07
5.74438e-07
4.77492e-07
3.88415e-07
3.08496e-07
2.386e-07
1.79158e-07
1.30079e-07
9.09884e-08
6.10867e-08
3.94703e-08
1.2248e-06
1.17767e-06
1.12783e-06
1.07468e-06
1.01717e-06
9.54522e-07
8.86253e-07
8.12037e-07
7.3211e-07
6.48225e-07
5.63242e-07
4.80233e-07
4.01357e-07
3.28085e-07
2.61602e-07
2.02821e-07
1.52271e-07
1.10095e-07
7.61737e-08
5.00061e-08
3.09912e-08
9.78219e-07
9.42159e-07
9.04193e-07
8.63711e-07
8.199e-07
7.7205e-07
7.19618e-07
6.62252e-07
5.99954e-07
5.33935e-07
4.66409e-07
3.99787e-07
3.35836e-07
2.75812e-07
2.20756e-07
1.71546e-07
1.28763e-07
9.26908e-08
6.34017e-08
4.06218e-08
2.3996e-08
7.81451e-07
7.53706e-07
7.24698e-07
6.93719e-07
6.60205e-07
6.2355e-07
5.83252e-07
5.38881e-07
4.90339e-07
4.38451e-07
3.84879e-07
3.31574e-07
2.799e-07
2.3091e-07
1.85502e-07
1.44473e-07
1.08427e-07
7.77145e-08
5.25427e-08
3.28132e-08
1.83633e-08
6.03018e-07
5.80719e-07
5.56908e-07
5.31192e-07
5.03034e-07
4.71995e-07
4.37648e-07
3.99825e-07
3.5909e-07
3.16694e-07
2.74115e-07
2.32484e-07
1.92624e-07
1.5531e-07
1.2124e-07
9.09976e-08
6.4971e-08
4.34394e-08
2.64431e-08
1.39566e-08
4.82633e-07
4.65306e-07
4.4698e-07
4.27166e-07
4.05472e-07
3.81511e-07
3.54911e-07
3.25429e-07
2.93446e-07
2.59934e-07
2.26002e-07
1.92547e-07
1.60217e-07
1.29657e-07
1.01478e-07
7.62091e-08
5.42552e-08
3.59249e-08
2.13569e-08
1.06235e-08
3.72933e-07
3.58766e-07
3.43417e-07
3.26663e-07
3.08138e-07
2.87497e-07
2.64512e-07
2.39422e-07
2.12942e-07
1.85952e-07
1.59118e-07
1.32967e-07
1.08022e-07
8.48045e-08
6.37816e-08
4.53406e-08
2.98099e-08
1.7386e-08
8.20572e-09
2.99031e-07
2.87991e-07
2.76093e-07
2.63114e-07
2.48751e-07
2.32724e-07
2.14801e-07
1.95121e-07
1.74222e-07
1.52768e-07
1.31288e-07
1.10192e-07
8.98994e-08
7.08371e-08
5.34187e-08
3.80003e-08
2.4905e-08
1.43632e-08
6.54587e-09
2.39902e-07
2.31269e-07
2.22046e-07
2.11966e-07
2.00825e-07
1.88354e-07
1.74347e-07
1.58898e-07
1.4241e-07
1.25391e-07
1.08238e-07
9.12625e-08
7.48042e-08
5.9211e-08
4.484e-08
3.20091e-08
2.10206e-08
1.21183e-08
5.48945e-09
1.85864e-07
1.78686e-07
1.70824e-07
1.62154e-07
1.5244e-07
1.41505e-07
1.29386e-07
1.16385e-07
1.02897e-07
8.92223e-08
7.5599e-08
6.22929e-08
4.95894e-08
3.7781e-08
2.71526e-08
1.79769e-08
1.04933e-08
4.89393e-09
1.49513e-07
1.43885e-07
1.37764e-07
1.31014e-07
1.23442e-07
1.14896e-07
1.05391e-07
9.51502e-08
8.44755e-08
7.35937e-08
6.26874e-08
5.19651e-08
4.16519e-08
3.1992e-08
2.32289e-08
1.56053e-08
9.34334e-09
4.63083e-09
1.20396e-07
1.15987e-07
1.11223e-07
1.05954e-07
1.00051e-07
9.33716e-08
8.59143e-08
7.78548e-08
6.9416e-08
6.07741e-08
5.20678e-08
4.34561e-08
3.51167e-08
2.7251e-08
2.00608e-08
1.37579e-08
8.54249e-09
4.58942e-09
9.36256e-08
8.99083e-08
8.5794e-08
8.11879e-08
7.59654e-08
7.01191e-08
6.37794e-08
5.71229e-08
5.02783e-08
4.33486e-08
3.64554e-08
2.97411e-08
2.33637e-08
1.74932e-08
1.23079e-08
7.98338e-09
4.67769e-09
7.56895e-08
7.27784e-08
6.95711e-08
6.59772e-08
6.18967e-08
5.73208e-08
5.23441e-08
4.71012e-08
4.16911e-08
3.6191e-08
3.06934e-08
2.53093e-08
2.01627e-08
1.53929e-08
1.11488e-08
7.57867e-09
6.12886e-08
5.90098e-08
5.65156e-08
5.37131e-08
5.0529e-08
4.6949e-08
4.30468e-08
3.8925e-08
3.46598e-08
3.03086e-08
2.59406e-08
2.16408e-08
1.75078e-08
1.36519e-08
1.01951e-08
7.2612e-09
4.79397e-08
4.59991e-08
4.38124e-08
4.13291e-08
3.85321e-08
3.54779e-08
3.2247e-08
2.88944e-08
2.54637e-08
2.20068e-08
1.85885e-08
1.52849e-08
1.21835e-08
9.38188e-09
6.98147e-09
3.90244e-08
3.75088e-08
3.58092e-08
3.38771e-08
3.16967e-08
2.93121e-08
2.67855e-08
2.41581e-08
2.14626e-08
1.87376e-08
1.6032e-08
1.34039e-08
1.09214e-08
8.66173e-09
6.7061e-09
3.18283e-08
3.06501e-08
2.9335e-08
2.78322e-08
2.61353e-08
2.42784e-08
2.23079e-08
2.02556e-08
1.81449e-08
1.60052e-08
1.38728e-08
1.17919e-08
9.81451e-09
8.00064e-09
6.4142e-09
2.51012e-08
2.40825e-08
2.29165e-08
2.16001e-08
2.01572e-08
1.86248e-08
1.70267e-08
1.53804e-08
1.37073e-08
1.20344e-08
1.03945e-08
8.82702e-09
7.37779e-09
6.09621e-09
2.06002e-08
1.98118e-08
1.89113e-08
1.78923e-08
1.67745e-08
1.55868e-08
1.43472e-08
1.30682e-08
1.17653e-08
1.04583e-08
9.17163e-09
7.9347e-09
6.78176e-09
5.7505e-09
1.69414e-08
1.63324e-08
1.56398e-08
1.48532e-08
1.39904e-08
1.30733e-08
1.2115e-08
1.11247e-08
1.0114e-08
9.0971e-09
8.09183e-09
7.11987e-09
6.2066e-09
5.37986e-09
1.34925e-08
1.29612e-08
1.23555e-08
1.16917e-08
1.09856e-08
1.02473e-08
9.48345e-09
8.70249e-09
7.9145e-09
7.1323e-09
6.37174e-09
5.65119e-09
4.99091e-09
1.11684e-08
1.07605e-08
1.02967e-08
9.78775e-09
9.2461e-09
8.67937e-09
8.09253e-09
7.49141e-09
6.88318e-09
6.27697e-09
5.68409e-09
5.11758e-09
4.59211e-09
9.26051e-09
8.94946e-09
8.59559e-09
8.20659e-09
7.79255e-09
7.35934e-09
6.91014e-09
6.44907e-09
5.98127e-09
5.5131e-09
5.05246e-09
4.6086e-09
4.19169e-09
7.69149e-09
7.45455e-09
7.18613e-09
6.88984e-09
6.5746e-09
6.2445e-09
5.90171e-09
5.54918e-09
5.19044e-09
4.82998e-09
4.47321e-09
4.12649e-09
3.79677e-09
6.21801e-09
6.01482e-09
5.78979e-09
5.55029e-09
5.29937e-09
5.03851e-09
4.76969e-09
4.49538e-09
4.21868e-09
3.94315e-09
3.67309e-09
3.41314e-09
5.19166e-09
5.03742e-09
4.86714e-09
4.68573e-09
4.49539e-09
4.29729e-09
4.09278e-09
3.88359e-09
3.67173e-09
3.45951e-09
3.24981e-09
3.04554e-09
4.33595e-09
4.21939e-09
4.09057e-09
3.95316e-09
3.80895e-09
3.65879e-09
3.50355e-09
3.34433e-09
3.18245e-09
3.01942e-09
2.85704e-09
3.62004e-09
3.53152e-09
3.43422e-09
3.33008e-09
3.22082e-09
3.10706e-09
2.98934e-09
2.86833e-09
2.74487e-09
2.61996e-09
2.49459e-09
2.9512e-09
2.87739e-09
2.79831e-09
2.71549e-09
2.62928e-09
2.54006e-09
2.44825e-09
2.35435e-09
2.25894e-09
2.16255e-09
2.46043e-09
2.40401e-09
2.34404e-09
2.28131e-09
2.21605e-09
2.14857e-09
2.07909e-09
2.00792e-09
1.93533e-09
1.86154e-09
2.04552e-09
2.00261e-09
1.95716e-09
1.90977e-09
1.86056e-09
1.80971e-09
1.75737e-09
1.70365e-09
1.64866e-09
1.59246e-09
1.69656e-09
1.66412e-09
1.62993e-09
1.59435e-09
1.55747e-09
1.51939e-09
1.48017e-09
1.43982e-09
1.39835e-09
1.35572e-09
1.40537e-09
1.38106e-09
1.35567e-09
1.32912e-09
1.30165e-09
1.27328e-09
1.244e-09
1.21377e-09
1.18257e-09
1.15033e-09
1.14601e-09
1.12715e-09
1.10739e-09
1.08693e-09
1.06576e-09
1.04385e-09
1.02116e-09
9.97661e-10
9.73245e-10
9.50773e-10
9.36511e-10
9.21631e-10
9.06188e-10
8.90175e-10
8.73592e-10
8.56421e-10
8.38626e-10
8.20072e-10
7.87086e-10
7.75934e-10
7.64331e-10
7.5232e-10
7.39915e-10
7.27132e-10
7.13952e-10
7.00337e-10
6.48009e-10
6.38865e-10
6.29439e-10
6.19784e-10
6.0993e-10
5.99888e-10
5.89642e-10
5.79151e-10
5.29012e-10
5.21229e-10
5.13346e-10
5.05406e-10
4.97439e-10
4.89444e-10
4.81406e-10
4.73301e-10
4.279e-10
4.21183e-10
4.14558e-10
4.07962e-10
4.0147e-10
3.95067e-10
3.88746e-10
3.82489e-10
3.37734e-10
3.32125e-10
3.2662e-10
3.21292e-10
3.16122e-10
3.11128e-10
3.06262e-10
2.70535e-10
2.65733e-10
2.61109e-10
2.56674e-10
2.52454e-10
2.48441e-10
2.44595e-10
2.21007e-10
2.16826e-10
2.12811e-10
2.08982e-10
2.05372e-10
2.01957e-10
1.98751e-10
1.85135e-10
1.81466e-10
1.77922e-10
1.74541e-10
1.71323e-10
1.68288e-10
1.65463e-10
1.55568e-10
1.52388e-10
1.49296e-10
1.46316e-10
1.43452e-10
1.40748e-10
1.38211e-10
1.29702e-10
1.26901e-10
1.24156e-10
1.21479e-10
1.18912e-10
1.16493e-10
1.14214e-10
1.07716e-10
1.05118e-10
1.02507e-10
9.99121e-11
9.73966e-11
9.50031e-11
8.82311e-11
8.57032e-11
8.31465e-11
8.05902e-11
7.80809e-11
7.56479e-11
6.86037e-11
6.55548e-11
6.2533e-11
5.96022e-11
5.68497e-11
5.43298e-11
4.57721e-11
4.21667e-11
3.85562e-11
3.50371e-11
3.16974e-11
2.83421e-11
2.5521e-11
2.30601e-11
2.10143e-11
1.94299e-11
2.75603e-11
2.57398e-11
2.44031e-11
2.34862e-11
2.29197e-11
9.29629e-11
1.07163e-10
1.21938e-10
1.3686e-10
1.51449e-10
5.25712e-10
5.43517e-10
5.57819e-10
5.68576e-10
5.76194e-10
1.9888e-09
2.03933e-09
2.07704e-09
2.10227e-09
2.11725e-09
)
;

boundaryField
{
    inlet
    {
        type            calculated;
        value           nonuniform List<scalar> 5(1.79279e-08 1.89337e-08 1.98635e-08 2.07116e-08 2.1474e-08);
    }
    outlet
    {
        type            calculated;
        value           nonuniform List<scalar> 0();
    }
    walls
    {
        type            calculated;
        value           uniform 0;
    }
    frontAndBack
    {
        type            empty;
    }
    procBoundary1to0
    {
        type            processor;
        value           nonuniform List<scalar> 
94
(
0.000173834
0.000173834
0.000118855
0.000118855
8.21274e-05
8.21274e-05
5.73994e-05
5.73994e-05
4.04824e-05
4.04824e-05
2.88856e-05
2.88856e-05
2.21634e-05
1.61492e-05
1.61492e-05
1.25535e-05
9.30551e-06
9.30551e-06
7.30344e-06
5.74468e-06
4.3381e-06
4.3381e-06
3.43285e-06
2.6161e-06
2.6161e-06
2.07895e-06
1.65347e-06
1.27067e-06
1.27067e-06
1.0133e-06
8.08479e-07
6.24466e-07
6.24466e-07
4.99261e-07
3.86392e-07
3.86392e-07
3.09508e-07
2.48116e-07
1.92608e-07
1.92608e-07
1.54792e-07
1.24544e-07
9.70767e-08
9.70767e-08
7.83899e-08
6.34045e-08
4.97164e-08
4.97164e-08
4.04086e-08
3.2906e-08
2.60154e-08
2.60154e-08
2.13058e-08
1.7485e-08
1.39599e-08
1.39599e-08
1.15253e-08
9.53258e-09
7.89791e-09
6.39722e-09
6.39722e-09
5.32676e-09
4.43786e-09
3.69701e-09
3.01846e-09
3.01846e-09
2.51162e-09
2.08461e-09
1.72624e-09
1.42757e-09
1.16406e-09
1.16406e-09
9.64278e-10
7.97647e-10
6.56745e-10
5.36545e-10
4.34474e-10
3.43503e-10
3.43503e-10
2.75505e-10
2.2537e-10
1.88919e-10
1.58801e-10
1.32524e-10
1.10273e-10
9.06931e-11
7.15614e-11
4.92916e-11
4.92916e-11
3.14614e-11
2.98963e-11
7.93874e-11
5.05447e-10
1.92465e-09
)
;
    }
    procBoundary1to2
    {
        type            processor;
        value           nonuniform List<scalar> 
84
(
979.915
1.35141
0.111155
0.000874892
3.488e-05
2.33437e-06
3.07588e-08
2.6418e-07
4.60153e-07
3.26242e-07
3.34407e-07
2.87733e-07
2.66246e-07
2.37403e-07
2.12868e-07
1.88019e-07
1.64806e-07
1.42784e-07
1.22301e-07
1.03408e-07
8.62035e-08
7.07359e-08
5.70419e-08
4.51167e-08
3.4906e-08
2.63385e-08
1.93171e-08
1.37182e-08
9.3963e-09
6.19486e-09
3.95034e-09
2.50116e-09
1.69025e-09
1.36889e-09
1.40261e-09
1.67418e-09
2.08451e-09
2.55358e-09
4.82337e-09
4.82337e-09
4.97052e-09
5.08232e-09
5.13611e-09
5.12017e-09
5.03288e-09
4.87956e-09
4.66892e-09
4.41242e-09
4.12308e-09
3.81268e-09
3.49158e-09
3.16832e-09
2.85011e-09
2.69722e-09
2.69722e-09
2.36999e-09
2.06588e-09
1.78694e-09
1.5352e-09
1.31198e-09
1.11699e-09
9.47855e-10
8.0076e-10
6.86209e-10
6.86209e-10
5.68378e-10
4.6509e-10
3.76242e-10
3.01503e-10
2.40941e-10
1.95756e-10
1.62822e-10
1.35832e-10
1.12106e-10
9.27569e-11
9.27569e-11
7.33221e-11
5.20842e-11
2.86128e-11
1.83186e-11
2.25855e-11
1.65155e-10
5.81439e-10
2.12411e-09
)
;
    }
    procBoundary1to5
    {
        type            processor;
        value           nonuniform List<scalar> 
13
(
0.011088
0.011088
0.00446805
0.00267761
0.00267761
0.00181256
0.00112459
0.00112459
0.000778758
0.000516241
0.000352078
0.000352078
0.000256456
)
;
    }
}


// ************************************************************************* //
