/*--------------------------------*- C++ -*----------------------------------*\
| =========                 |                                                 |
| \\      /  F ield         | OpenFOAM: The Open Source CFD Toolbox           |
|  \\    /   O peration     | Version:  2306                                  |
|   \\  /    A nd           | Website:  www.openfoam.com                      |
|    \\/     M anipulation  |                                                 |
\*---------------------------------------------------------------------------*/
FoamFile
{
    version     2.0;
    format      ascii;
    arch        "LSB;label=32;scalar=64";
    class       volScalarField;
    location    "225";
    object      turbulenceProperties:I;
}
// * * * * * * * * * * * * * * * * * * * * * * * * * * * * * * * * * * * * * //

dimensions      [0 0 0 0 0 0 0];

internalField   nonuniform List<scalar> 
1340
(
0.0170326
0.0133947
0.00871175
0.00731002
0.00705796
0.0073116
0.0078701
0.00865734
0.00966768
0.010941
0.0125714
0.0147039
0.0175412
0.0214186
0.0267395
0.0344396
0.0454012
0.0627884
0.0885392
0.131167
0.186991
0.221613
0.234726
0.238651
0.240302
0.241526
0.242574
0.243559
0.00584821
0.00715897
0.00636398
0.00445102
0.00312693
0.00233669
0.00183396
0.00148741
0.0012335
0.00103892
0.000883454
0.000755437
0.000644449
0.000542355
0.000438215
0.000325046
0.000185046
7.2303e-05
0.000115514
0.001302
0.00296876
0.00832359
0.0151441
0.0211039
0.0258021
0.0294128
0.032274
0.0347601
0.03713
0.00405931
0.00446288
0.00423865
0.00348891
0.00271468
0.00211746
0.00168226
0.00136107
0.00112034
0.000936242
0.000794829
0.000686029
0.000603444
0.0005406
0.000493482
0.000458765
0.000434389
0.00041658
0.000406083
0.000396707
0.000402579
0.00030616
0.000800538
0.00203365
0.00340762
0.00492026
0.00736296
0.0106798
0.0143158
0.00268624
0.00299174
0.00316755
0.00307788
0.00272621
0.00228597
0.00188971
0.00157194
0.00132456
0.00113241
0.000981434
0.000861969
0.000766505
0.000689772
0.000626848
0.000574797
0.000530628
0.00049164
0.000453864
0.000417697
0.000387775
0.000364682
0.000347577
0.000328524
0.000305724
0.000262331
0.000208342
0.000578594
0.000760779
0.00146228
0.00216799
0.00233678
0.00242841
0.00238602
0.00220199
0.0019418
0.00167426
0.00143375
0.00122898
0.00105831
0.000916817
0.000799684
0.000702828
0.000622948
0.000556862
0.000502161
0.000456399
0.000417186
0.000380874
0.000345627
0.000313406
0.000287078
0.000267923
0.000258232
0.000246279
0.000271181
0.0001303
0.00033625
0.000730875
0.000388563
0.00167285
0.00179438
0.00189705
0.00195142
0.00192847
0.00182227
0.0016606
0.00147925
0.00130297
0.00114355
0.00100475
0.000886239
0.000786099
0.000702018
0.000631646
0.000572591
0.0005227
0.00047977
0.000441612
0.00040545
0.000369968
0.000336894
0.000307771
0.000282819
0.000261374
0.000243103
0.000227099
0.000212195
0.000189223
0.000159642
0.000120401
0.00143495
0.00151685
0.00158438
0.00161939
0.00160564
0.00154014
0.00143557
0.0013107
0.0011812
0.00105698
0.000943135
0.000841515
0.000752179
0.000674499
0.000607428
0.0005496
0.000499664
0.000456113
0.000417261
0.000380937
0.000345824
0.000312903
0.000283484
0.000257929
0.000235875
0.000217276
0.000202823
0.000193186
0.000187759
0.000180477
0.000153841
0.00124695
0.00130433
0.00135114
0.00137502
0.0013663
0.00132376
0.00125342
0.00116567
0.0010702
0.000974237
0.000882557
0.000797789
0.000721019
0.000652645
0.00059242
0.000539646
0.00049338
0.000452485
0.000415594
0.000381026
0.000347775
0.000316548
0.000288318
0.000263263
0.000240879
0.000220727
0.000202718
0.000186614
0.000172167
0.000159107
0.000149369
0.0010497
0.00109543
0.00113716
0.00117087
0.00118785
0.00118214
0.00115331
0.00110451
0.00104164
0.00097069
0.000896596
0.000823139
0.000752798
0.000687062
0.000626757
0.000572165
0.000523154
0.00047927
0.000439782
0.000403707
0.00036986
0.000337488
0.000307006
0.000279243
0.000254466
0.000232356
0.000212614
0.000195258
0.000180604
0.000169014
0.00016082
0.000156397
0.000971294
0.00100257
0.00102754
0.00103995
0.00103615
0.00101596
0.000981155
0.000935293
0.000882048
0.000824693
0.000766063
0.000708217
0.000652582
0.000600217
0.000551667
0.000507141
0.000466534
0.000429431
0.000395169
0.000362943
0.000332182
0.000303198
0.000276648
0.000252765
0.000231273
0.000211853
0.000194407
0.000178963
0.000165486
0.000154469
0.000146301
0.000892044
0.000910942
0.000920227
0.000917665
0.000903158
0.000877741
0.00084368
0.000803316
0.000758784
0.000712043
0.000664681
0.000617911
0.000572728
0.000529827
0.000489592
0.000452128
0.000417293
0.0003847
0.00035384
0.00032437
0.000296539
0.000270862
0.000247583
0.000226537
0.0002075
0.00019044
0.000175497
0.000162887
0.000153127
0.000146495
0.000814312
0.000821395
0.000819635
0.000808948
0.000790021
0.000764344
0.00073343
0.000698634
0.000661348
0.000622698
0.000583603
0.00054494
0.000507357
0.000471352
0.00043719
0.0004049
0.000374279
0.000345051
0.000317096
0.000290623
0.000266054
0.000243621
0.000223226
0.000204689
0.00018796
0.000173138
0.000160323
0.00014997
0.000142562
0.000738458
0.000737214
0.000729198
0.000714854
0.000695203
0.000671268
0.000643944
0.000614119
0.000582593
0.000550041
0.000517151
0.000484484
0.000452515
0.000421577
0.000391815
0.000363195
0.000335638
0.000309161
0.000283989
0.000260468
0.000238827
0.000219031
0.000200959
0.000184591
0.000170054
0.000157517
0.000147435
0.00014029
0.000666994
0.000660856
0.00064981
0.000634583
0.000615875
0.000594255
0.000570341
0.000544633
0.000517586
0.000489725
0.000461502
0.000433325
0.000405518
0.000378304
0.000351762
0.000325967
0.000301041
0.000277219
0.000254815
0.000234044
0.000214921
0.000197374
0.000181398
0.00016712
0.000154681
0.000144509
0.000137091
0.000601696
0.000593075
0.000581116
0.000566342
0.000549127
0.000529859
0.000508873
0.000486443
0.000462919
0.000438639
0.000413938
0.000389125
0.000364434
0.000339999
0.000315962
0.000292566
0.00027009
0.000248808
0.00022892
0.00021048
0.000193464
0.000177888
0.000163888
0.00015162
0.000141506
0.000134014
0.00055002
0.00054318
0.0005337
0.000521928
0.000508111
0.000492524
0.000475337
0.000456728
0.000436909
0.000416108
0.000394574
0.000372557
0.000350286
0.000327922
0.000305678
0.000283844
0.000262725
0.000242578
0.000223601
0.000205876
0.000189418
0.000174261
0.000160547
0.000148427
0.000138305
0.000130636
0.000499036
0.000491426
0.000481946
0.000470784
0.0004581
0.000443995
0.00042854
0.000411865
0.000394094
0.000375402
0.000355976
0.000336
0.000315646
0.00029516
0.000274876
0.000255099
0.00023609
0.000218039
0.000201047
0.000185163
0.000170437
0.000157016
0.000145053
0.000134942
0.000127118
0.000459733
0.000453552
0.000445857
0.000436763
0.000426384
0.00041476
0.000401902
0.000387872
0.00037272
0.000356542
0.000339474
0.000321666
0.00030326
0.000284484
0.000265695
0.000247248
0.000229379
0.000212266
0.000196026
0.000180731
0.000166451
0.000153328
0.000141522
0.000131404
0.000123396
0.000419474
0.00041317
0.000405701
0.000397154
0.000387536
0.000376815
0.000364996
0.000352089
0.000338131
0.000323187
0.000307361
0.000290774
0.000273658
0.00025636
0.000239219
0.000222473
0.000206295
0.000190814
0.000176119
0.000162291
0.000149471
0.000137822
0.000127694
0.000119491
0.00038869
0.00038347
0.000377294
0.000370213
0.000362211
0.000353243
0.000343277
0.000332277
0.000320242
0.0003072
0.000293201
0.000278322
0.000262778
0.000246906
0.000231031
0.000215387
0.000200142
0.000185425
0.000171338
0.000157972
0.000145458
0.000133966
0.000123816
0.0001154
0.000360776
0.000356412
0.000351267
0.000345359
0.000338666
0.00033113
0.000322706
0.000313332
0.000302968
0.000291597
0.000279245
0.000265955
0.000251896
0.000237374
0.000222719
0.000208154
0.000193831
0.000179878
0.000166401
0.000153498
0.000141294
0.000129955
0.000119772
0.000111125
0.000331703
0.000327376
0.000322406
0.000316779
0.000310423
0.000303278
0.000295273
0.000286345
0.000276452
0.000265574
0.000253727
0.000241047
0.000227816
0.000214335
0.000200812
0.00018739
0.00017419
0.000161322
0.000148883
0.00013699
0.0001258
0.000115571
0.000106673
0.000309079
0.000305403
0.000301204
0.000296436
0.000291045
0.000284966
0.000278114
0.000270415
0.000261808
0.000252246
0.000241711
0.000230309
0.000218284
0.000205918
0.000193391
0.000180843
0.000168385
0.000156122
0.000144147
0.000132565
0.00012152
0.000111232
0.000102059
0.000285171
0.000281587
0.00027752
0.000272925
0.000267732
0.000261852
0.000255206
0.000247718
0.000239318
0.000229964
0.000219728
0.000208821
0.000197495
0.000185926
0.000174223
0.00016249
0.000150825
0.000139312
0.000128039
0.000117136
0.00010678
9.73033e-05
0.000266508
0.000263424
0.000259934
0.000255994
0.000251536
0.000246476
0.000240722
0.000234195
0.000226814
0.000218518
0.000209345
0.000199476
0.000189126
0.00017846
0.000167566
0.000156537
0.000145456
0.000134399
0.000123436
0.000112671
0.000102235
9.24238e-05
0.000249269
0.000246591
0.000243582
0.00024018
0.00023633
0.000231955
0.000226963
0.000221267
0.000214775
0.000207413
0.000199197
0.000190275
0.00018084
0.000171021
0.0001609
0.00015055
0.000140041
0.000129436
0.000118782
0.000108152
9.76285e-05
8.74504e-05
0.000230982
0.000228363
0.000225405
0.000222067
0.000218267
0.000213919
0.000208938
0.000203226
0.000196692
0.000189339
0.000181281
0.000172685
0.000163659
0.000154269
0.000144569
0.000134618
0.000124457
0.000114112
0.00010362
9.30064e-05
8.24277e-05
0.000216496
0.000214195
0.00021161
0.000208696
0.000205382
0.000201583
0.000197213
0.000192176
0.000186373
0.000179789
0.000172514
0.000164688
0.0001564
0.000147698
0.000138623
0.000129214
0.000119493
0.000109462
9.91202e-05
8.84225e-05
7.74153e-05
0.000203039
0.000201002
0.000198732
0.000196174
0.000193267
0.000189934
0.00018609
0.000181636
0.000176475
0.000170575
0.000164005
0.000156885
0.000149282
0.000141229
0.00013275
0.000123866
0.000114583
0.000104874
9.46985e-05
8.39355e-05
7.24874e-05
0.000188715
0.000186707
0.000184447
0.000181886
0.000178949
0.000175556
0.000171608
0.000167009
0.000161718
0.000155786
0.000149307
0.000142337
0.000134891
0.00012698
0.000118607
0.000109761
0.000100388
9.04051e-05
7.96181e-05
6.7749e-05
0.000177272
0.000175475
0.000173473
0.000171204
0.000168605
0.000165598
0.000162092
0.000157985
0.000153232
0.000147873
0.000141979
0.000135594
0.000128718
0.000121348
0.000113473
0.000105064
9.60471e-05
8.62987e-05
7.55537e-05
6.33367e-05
0.000164993
0.000163209
0.000161186
0.000158876
0.000156204
0.00015308
0.000149406
0.000145133
0.000140286
0.000134926
0.000129079
0.000122736
0.000115882
0.000108496
0.00010053
9.18935e-05
8.24331e-05
7.18275e-05
5.94214e-05
0.000155209
0.000153605
0.000151798
0.000149737
0.000147353
0.000144563
0.000141271
0.000137425
0.00013304
0.000128163
0.000122812
0.000116969
0.000110612
0.000103703
9.61896e-05
8.79657e-05
7.88608e-05
6.85258e-05
5.61918e-05
0.000146073
0.000144626
0.000143008
0.000141163
0.000139032
0.000136533
0.000133575
0.000130106
0.000126136
0.000121703
0.000116812
0.00011144
0.000105557
9.91206e-05
9.20697e-05
8.42955e-05
7.56222e-05
6.57101e-05
5.37986e-05
0.000136237
0.000134783
0.000133122
0.00013121
0.000128967
0.000126308
0.000123179
0.000119585
0.000115555
0.000111091
0.000106163
0.000100738
9.47692e-05
8.81926e-05
8.09049e-05
7.27424e-05
6.34101e-05
5.22937e-05
0.0001284
0.000127082
0.000125589
0.000123871
0.000121855
0.000119461
0.000116638
0.000113385
0.000109726
0.000105658
0.000101149
9.61658e-05
9.06592e-05
8.45684e-05
7.78011e-05
7.02213e-05
6.16088e-05
5.15864e-05
0.000121077
0.000119883
0.000118539
0.000116991
0.000115178
0.000113022
0.000110473
0.000107531
0.000104213
0.000100514
9.64034e-05
9.18458e-05
8.67956e-05
8.11995e-05
7.49799e-05
6.80387e-05
6.02463e-05
5.14735e-05
0.000113155
0.000111943
0.000110547
0.000108914
0.000106972
0.000104672
0.000102013
9.90109e-05
9.56585e-05
9.1926e-05
8.77791e-05
8.31789e-05
7.80791e-05
7.24239e-05
6.61544e-05
5.92282e-05
5.17148e-05
0.000106868
0.000105771
0.000104513
0.000103044
0.000101295
9.92238e-05
9.68261e-05
9.41163e-05
9.10874e-05
8.77121e-05
8.39599e-05
7.97983e-05
7.51908e-05
7.01025e-05
6.45126e-05
5.8447e-05
0.000100991
9.99986e-05
9.88694e-05
9.75477e-05
9.59758e-05
9.41121e-05
9.19544e-05
8.9515e-05
8.67887e-05
8.37513e-05
8.03764e-05
7.66379e-05
7.25113e-05
6.79795e-05
6.30515e-05
5.7801e-05
9.46042e-05
9.359e-05
9.24013e-05
9.09898e-05
8.93166e-05
8.73798e-05
8.51926e-05
8.27493e-05
8.003e-05
7.70131e-05
7.36792e-05
7.00137e-05
6.60147e-05
6.17121e-05
5.72044e-05
8.95604e-05
8.86468e-05
8.75822e-05
8.63189e-05
8.48212e-05
8.30889e-05
8.1135e-05
7.89552e-05
7.65336e-05
7.38533e-05
7.09012e-05
6.76704e-05
6.41701e-05
6.04427e-05
5.65932e-05
8.48397e-05
8.40209e-05
8.30725e-05
8.19433e-05
8.06063e-05
7.90628e-05
7.73244e-05
7.5389e-05
7.32437e-05
7.08767e-05
6.82794e-05
6.54519e-05
6.24096e-05
5.91996e-05
5.59225e-05
7.96915e-05
7.88465e-05
7.78406e-05
7.66522e-05
7.52815e-05
7.37412e-05
7.20308e-05
7.01407e-05
6.80625e-05
6.57919e-05
6.33328e-05
6.07041e-05
5.79521e-05
5.51663e-05
7.56347e-05
7.48834e-05
7.39922e-05
7.29394e-05
7.17274e-05
7.03689e-05
6.88652e-05
6.72089e-05
6.53945e-05
6.34205e-05
6.12934e-05
5.90328e-05
5.66806e-05
5.43128e-05
7.18305e-05
7.11644e-05
7.0379e-05
6.945e-05
6.83834e-05
6.71913e-05
6.58754e-05
6.44308e-05
6.28545e-05
6.11467e-05
5.9315e-05
5.7378e-05
5.5372e-05
5.3358e-05
6.76731e-05
6.69835e-05
6.61667e-05
6.52321e-05
6.41903e-05
6.30439e-05
6.17898e-05
6.04266e-05
5.89557e-05
5.73844e-05
5.57295e-05
5.40208e-05
5.2306e-05
6.43914e-05
6.37861e-05
6.30726e-05
6.22574e-05
6.1351e-05
6.03568e-05
5.92731e-05
5.80994e-05
5.68373e-05
5.54938e-05
5.40829e-05
5.26281e-05
5.11662e-05
6.1301e-05
6.07739e-05
6.01535e-05
5.94453e-05
5.86602e-05
5.78022e-05
5.68697e-05
5.58626e-05
5.47833e-05
5.36374e-05
5.2436e-05
5.11976e-05
4.99492e-05
5.8389e-05
5.79308e-05
5.7395e-05
5.67824e-05
5.61055e-05
5.53677e-05
5.45679e-05
5.37065e-05
5.27855e-05
5.18096e-05
5.07876e-05
4.9733e-05
4.86651e-05
5.52446e-05
5.4783e-05
5.4255e-05
5.36729e-05
5.30401e-05
5.23559e-05
5.16206e-05
5.0836e-05
5.0006e-05
4.91367e-05
4.82379e-05
4.73229e-05
5.26998e-05
5.23014e-05
5.1848e-05
5.1349e-05
5.08073e-05
5.02228e-05
4.95959e-05
4.89283e-05
4.82226e-05
4.7483e-05
4.67164e-05
4.59313e-05
5.02797e-05
4.99373e-05
4.95481e-05
4.91201e-05
4.86565e-05
4.81576e-05
4.76236e-05
4.70555e-05
4.64551e-05
4.58253e-05
4.51705e-05
4.797e-05
4.76743e-05
4.73404e-05
4.69728e-05
4.65756e-05
4.61493e-05
4.56938e-05
4.52097e-05
4.46982e-05
4.41613e-05
4.36011e-05
4.54993e-05
4.52112e-05
4.48943e-05
4.45532e-05
4.41879e-05
4.37986e-05
4.33855e-05
4.29493e-05
4.24909e-05
4.20113e-05
4.34009e-05
4.31501e-05
4.28766e-05
4.25831e-05
4.22696e-05
4.19365e-05
4.15836e-05
4.12114e-05
4.08199e-05
4.04091e-05
4.13732e-05
4.11554e-05
4.09191e-05
4.06666e-05
4.03978e-05
4.01129e-05
3.98119e-05
3.94945e-05
3.91602e-05
3.88085e-05
3.94199e-05
3.92315e-05
3.90284e-05
3.88121e-05
3.85826e-05
3.83399e-05
3.80838e-05
3.78136e-05
3.75286e-05
3.72278e-05
3.75497e-05
3.73882e-05
3.72156e-05
3.70313e-05
3.68362e-05
3.66303e-05
3.64128e-05
3.6183e-05
3.59401e-05
3.56829e-05
3.56327e-05
3.54862e-05
3.53294e-05
3.51636e-05
3.49884e-05
3.48031e-05
3.4607e-05
3.43995e-05
3.41788e-05
3.39603e-05
3.38334e-05
3.36984e-05
3.35554e-05
3.34041e-05
3.32443e-05
3.30753e-05
3.28965e-05
3.27061e-05
3.23507e-05
3.2237e-05
3.21163e-05
3.19889e-05
3.18547e-05
3.17137e-05
3.15655e-05
3.14093e-05
3.07771e-05
3.06696e-05
3.05566e-05
3.04387e-05
3.0316e-05
3.01885e-05
3.00559e-05
2.99175e-05
2.92203e-05
2.9114e-05
2.90043e-05
2.88917e-05
2.87766e-05
2.86588e-05
2.85382e-05
2.84142e-05
2.76804e-05
2.7573e-05
2.74652e-05
2.73557e-05
2.7246e-05
2.71358e-05
2.70248e-05
2.6913e-05
2.60657e-05
2.59581e-05
2.58506e-05
2.57446e-05
2.56398e-05
2.55367e-05
2.54343e-05
2.46363e-05
2.45278e-05
2.44213e-05
2.43172e-05
2.42163e-05
2.41186e-05
2.40232e-05
2.3405e-05
2.32951e-05
2.31875e-05
2.3083e-05
2.29826e-05
2.28858e-05
2.27932e-05
2.23787e-05
2.22687e-05
2.21603e-05
2.20549e-05
2.19525e-05
2.18542e-05
2.17609e-05
2.14143e-05
2.13057e-05
2.11981e-05
2.10922e-05
2.09884e-05
2.08885e-05
2.07929e-05
2.04515e-05
2.0342e-05
2.02324e-05
2.01232e-05
2.00164e-05
1.99136e-05
1.98149e-05
1.95133e-05
1.93964e-05
1.92761e-05
1.91538e-05
1.90325e-05
1.89145e-05
1.85542e-05
1.84217e-05
1.82842e-05
1.8143e-05
1.80006e-05
1.78588e-05
1.74147e-05
1.72197e-05
1.70192e-05
1.68173e-05
1.66203e-05
1.64333e-05
1.57348e-05
1.5417e-05
1.5077e-05
1.47214e-05
1.43578e-05
1.39546e-05
1.35955e-05
1.32568e-05
1.29537e-05
1.27032e-05
1.38579e-05
1.36252e-05
1.34464e-05
1.33196e-05
1.32396e-05
1.87885e-05
1.94724e-05
2.01153e-05
2.07077e-05
2.12415e-05
2.89313e-05
2.91744e-05
2.93651e-05
2.95059e-05
2.96042e-05
4.0349e-05
4.06058e-05
4.07934e-05
4.09163e-05
4.09868e-05
)
;

boundaryField
{
    inlet
    {
        type            calculated;
        value           nonuniform List<scalar> 5(7.09384e-05 7.19156e-05 7.2784e-05 7.35488e-05 7.4215e-05);
    }
    outlet
    {
        type            calculated;
        value           nonuniform List<scalar> 0();
    }
    walls
    {
        type            calculated;
        value           uniform 0;
    }
    frontAndBack
    {
        type            empty;
    }
    procBoundary1to0
    {
        type            processor;
        value           nonuniform List<scalar> 
94
(
0.000936757
0.000936757
0.00086804
0.00086804
0.000799745
0.000799745
0.000732975
0.000732975
0.000667904
0.000667904
0.00060648
0.00060648
0.000553806
0.000504528
0.000504528
0.000464196
0.000424553
0.000424553
0.000392903
0.000364314
0.000335389
0.000335389
0.000312218
0.000288322
0.000288322
0.000269226
0.000251641
0.000233327
0.000233327
0.000218561
0.000204872
0.000190528
0.000190528
0.000178894
0.000166603
0.000166603
0.000156656
0.000147386
0.000137545
0.000137545
0.000129585
0.000122154
0.000114236
0.000114236
0.000107847
0.000101879
9.54986e-05
9.54986e-05
9.03652e-05
8.55629e-05
8.04232e-05
8.04232e-05
7.62846e-05
7.24061e-05
6.82593e-05
6.82593e-05
6.4904e-05
6.17482e-05
5.87768e-05
5.56396e-05
5.56396e-05
5.30391e-05
5.05712e-05
4.82208e-05
4.57551e-05
4.57551e-05
4.3623e-05
4.15671e-05
3.95885e-05
3.76942e-05
3.57701e-05
3.57701e-05
3.40779e-05
3.24563e-05
3.08779e-05
2.93212e-05
2.77835e-05
2.61743e-05
2.61743e-05
2.47466e-05
2.35175e-05
2.249e-05
2.15224e-05
2.05595e-05
1.96257e-05
1.868e-05
1.75971e-05
1.60269e-05
1.60269e-05
1.43214e-05
1.41401e-05
1.80569e-05
2.86466e-05
4.00141e-05
)
;
    }
    procBoundary1to2
    {
        type            processor;
        value           nonuniform List<scalar> 
84
(
0.244671
0.03962
0.017922
0.00340867
0.000706537
0.000256134
8.42706e-05
0.000137486
0.000158261
0.00014541
0.000146513
0.000141298
0.000138774
0.00013504
0.00013159
0.000127746
0.000123777
0.000119579
0.000115192
0.000110605
0.000105821
0.000100841
9.56743e-05
9.03289e-05
8.48082e-05
7.9123e-05
7.32911e-05
6.73392e-05
6.1309e-05
5.52835e-05
4.94321e-05
4.41169e-05
4.00158e-05
3.79721e-05
3.8211e-05
3.99427e-05
4.21913e-05
4.43808e-05
5.21014e-05
5.21014e-05
5.24758e-05
5.27433e-05
5.28509e-05
5.27726e-05
5.25039e-05
5.20527e-05
5.14312e-05
5.06564e-05
4.97492e-05
4.87282e-05
4.76103e-05
4.64097e-05
4.51399e-05
4.44964e-05
4.44964e-05
4.30213e-05
4.15124e-05
3.99796e-05
3.84391e-05
3.69103e-05
3.541e-05
3.39439e-05
3.25036e-05
3.12438e-05
3.12438e-05
2.97725e-05
2.82861e-05
2.67991e-05
2.53322e-05
2.39308e-05
2.2705e-05
2.1672e-05
2.07015e-05
1.97217e-05
1.88012e-05
1.88012e-05
1.77197e-05
1.62608e-05
1.39952e-05
1.25183e-05
1.31918e-05
2.17087e-05
2.9671e-05
4.10159e-05
)
;
    }
    procBoundary1to5
    {
        type            processor;
        value           nonuniform List<scalar> 
13
(
0.010226
0.010226
0.00440899
0.00342767
0.00342767
0.00237452
0.00197731
0.00197731
0.00155082
0.00134914
0.00118516
0.00118516
0.00100284
)
;
    }
}


// ************************************************************************* //
