# p  FACE_DATA 150
# x y z  p
0.29576437 -0.05 -0.059999701 21433.565
0.28738431 -0.05 -0.059968924 21422.202
0.27918472 -0.05 -0.059906283 21416.703
0.27116186 -0.05 -0.05981265 21414.104
0.26331203 -0.05 -0.059689027 21413.463
0.25563166 -0.05 -0.059536266 21416.314
0.24811723 -0.05 -0.059355154 21423.1
0.24076528 -0.05 -0.059146557 21433.609
0.23357246 -0.05 -0.058911358 21447.934
0.22653546 -0.05 -0.058650342 21466.516
0.21965107 -0.05 -0.058364201 21489.463
0.21291613 -0.05 -0.058053757 21516.232
0.20632755 -0.05 -0.057719714 21547.176
0.19988232 -0.05 -0.057362759 21581.118
0.19357748 -0.05 -0.056983702 21618.528
0.18741014 -0.05 -0.056583118 21659.625
0.18137746 -0.05 -0.056161624 21704.709
0.17547671 -0.05 -0.055719844 21754.446
0.16970518 -0.05 -0.055258362 21808.314
0.16406021 -0.05 -0.05477783 21865.994
0.15853921 -0.05 -0.054278745 21927.591
0.15313968 -0.05 -0.053761636 21992.834
0.14785914 -0.05 -0.053226963 22062.773
0.14269518 -0.05 -0.052675258 22136.759
0.13764543 -0.05 -0.052106992 22215.26
0.13270762 -0.05 -0.051522466 22296.089
0.12787949 -0.05 -0.050922169 22379.318
0.12315883 -0.05 -0.050306449 22467.776
0.11854353 -0.05 -0.049675629 22560.07
0.11403148 -0.05 -0.04903008 22655.525
0.10962066 -0.05 -0.04837006 22754.98
0.10530909 -0.05 -0.047695796 22858.734
0.10109483 -0.05 -0.047007509 22966.506
0.096976017 -0.05 -0.046305459 23077.928
0.092950808 -0.05 -0.04558984 23193.447
0.08901745 -0.05 -0.044860715 23314.781
0.085174232 -0.05 -0.044118143 23443.388
0.081419479 -0.05 -0.043362242 23579.002
0.077751578 -0.05 -0.042593081 23720.881
0.074168981 -0.05 -0.041810614 23869.393
0.070670198 -0.05 -0.041014781 24024.804
0.06725379 -0.05 -0.040205491 24186.894
0.06391837 -0.05 -0.039382651 24354.853
0.060662655 -0.05 -0.038545988 24529.634
0.057485397 -0.05 -0.037695273 24711.705
0.054385414 -0.05 -0.036830261 24902.769
0.051361622 -0.05 -0.035950545 25102.213
0.048412992 -0.05 -0.035055749 25310.874
0.045538629 -0.05 -0.034145316 25530.462
0.042737712 -0.05 -0.03321865 25761.352
0.040009498 -0.05 -0.032275149 26003.245
0.037353406 -0.05 -0.031314032 26256.928
0.034768993 -0.05 -0.030334375 26524.083
0.032255944 -0.05 -0.029335211 26808.876
0.029814132 -0.05 -0.028315426 27114.532
0.027443661 -0.05 -0.027273729 27439.154
0.025144824 -0.05 -0.026208776 27784.864
0.022918276 -0.05 -0.02511886 28157.996
0.020764984 -0.05 -0.02400217 28555.635
0.018686283 -0.05 -0.022856725 28979.514
0.016684024 -0.05 -0.021680228 29432.612
0.01476059 -0.05 -0.020470219 29917.44
0.012919251 -0.05 -0.019223865 30436.781
0.011164249 -0.05 -0.017938283 30991.551
0.0095007128 -0.05 -0.016610449 31584.109
0.0079348886 -0.05 -0.015236971 32222.034
0.006474941 -0.05 -0.013814774 32892.932
0.0051312596 -0.05 -0.012341958 33560.657
0.0039150106 -0.05 -0.010816511 34184.375
0.0028396284 -0.05 -0.009238845 34749.908
0.0019206554 -0.05 -0.007613688 35216.789
0.0011720639 -0.05 -0.0059475212 35491.22
0.0006061561 -0.05 -0.004252283 35537.845
0.00023063831 -0.05 -0.0025452878 35334.465
4.5460517e-05 -0.05 -0.0008455405 34836.921
0.99536103 -0.05 -0.00067021835 26578.83
0.98608197 -0.05 -0.0020028877 26364.461
0.97680071 -0.05 -0.0033200849 26153.105
0.96751731 -0.05 -0.0046220425 25973.538
0.95823181 -0.05 -0.0059090613 25807.672
0.94894428 -0.05 -0.0071813587 25657.192
0.93965479 -0.05 -0.0084391859 25518.199
0.93036339 -0.05 -0.0096828487 25389.444
0.92107013 -0.05 -0.010912491 25269.305
0.91177504 -0.05 -0.012128333 25156.328
0.9024782 -0.05 -0.013330648 25049.819
0.89317963 -0.05 -0.014519511 24949.398
0.88387936 -0.05 -0.015695054 24854.209
0.87457746 -0.05 -0.016857552 24763.393
0.86527394 -0.05 -0.01800713 24676.629
0.85596885 -0.05 -0.019143876 24593.198
0.84666223 -0.05 -0.020267984 24512.782
0.8373541 -0.05 -0.021379502 24435.271
0.82804448 -0.05 -0.022478516 24360.238
0.8187334 -0.05 -0.023565119 24287.622
0.8094209 -0.05 -0.024639397 24216.987
0.80010698 -0.05 -0.025701394 24148.415
0.79079168 -0.05 -0.026751168 24081.421
0.78147501 -0.05 -0.027788748 24016.128
0.77215699 -0.05 -0.028814138 23952.12
0.76283764 -0.05 -0.029827333 23889.61
0.75351698 -0.05 -0.030828337 23828.132
0.744195 -0.05 -0.03181713 23767.885
0.73487174 -0.05 -0.032793639 23708.306
0.72554719 -0.05 -0.033757832 23649.505
0.71622136 -0.05 -0.034709535 23591.477
0.70689427 -0.05 -0.03564879 23533.777
0.69756593 -0.05 -0.03657554 23476.895
0.68823632 -0.05 -0.037489546 23420.82
0.67890547 -0.05 -0.03839067 23365.455
0.66957337 -0.05 -0.039278803 23310.322
0.66024004 -0.05 -0.040153805 23255.251
0.65090546 -0.05 -0.04101549 23200.26
0.64156964 -0.05 -0.041863622 23145.651
0.63223258 -0.05 -0.042697993 23091.293
0.62289428 -0.05 -0.043518409 23037.315
0.61355475 -0.05 -0.044324591 22983.628
0.60421397 -0.05 -0.045116235 22930.2
0.59487195 -0.05 -0.045893096 22876.785
0.58552869 -0.05 -0.046654869 22823.622
0.57618419 -0.05 -0.047401205 22770.5
0.56683843 -0.05 -0.048131797 22717.504
0.55749143 -0.05 -0.04884624 22664.714
0.54814318 -0.05 -0.049544112 22612.058
0.53879368 -0.05 -0.050225066 22559.189
0.52944294 -0.05 -0.050888717 22506.353
0.52009095 -0.05 -0.051534504 22453.934
0.51073771 -0.05 -0.052161963 22401.48
0.50138323 -0.05 -0.052770676 22349.066
0.49202751 -0.05 -0.05336005 22297.405
0.48267056 -0.05 -0.053929509 22246.132
0.47331239 -0.05 -0.054478508 22195.2
0.46395301 -0.05 -0.055006444 22144.597
0.45459243 -0.05 -0.05551264 22094.232
0.44523066 -0.05 -0.055996468 22043.641
0.43586772 -0.05 -0.056457197 21993.597
0.42650365 -0.05 -0.056894081 21944.115
0.41713847 -0.05 -0.057306403 21895.6
0.4077722 -0.05 -0.057693321 21848.485
0.39840488 -0.05 -0.058053993 21801.703
0.38903655 -0.05 -0.058387504 21756.365
0.37966728 -0.05 -0.058692933 21712.733
0.3702971 -0.05 -0.058969274 21671.65
0.36092607 -0.05 -0.059215505 21632.555
0.35155428 -0.05 -0.059430617 21594.918
0.34218182 -0.05 -0.059613395 21558.735
0.33280876 -0.05 -0.059762649 21524.068
0.32343521 -0.05 -0.059877122 21492.62
0.31406128 -0.05 -0.059955444 21465.359
0.30468712 -0.05 -0.059996221 21445.009
