# p  FACE_DATA 600
# x y z  p
0.29893883 -0.05 -0.060006728 21769.377
0.29682219 -0.05 -0.060005155 21766.503
0.29471691 -0.05 -0.060001576 21765.059
0.29262294 -0.05 -0.05999591 21763.742
0.29054021 -0.05 -0.059988277 21762.088
0.28846868 -0.05 -0.059978645 21761.641
0.28640827 -0.05 -0.059967019 21760.575
0.28435895 -0.05 -0.059953476 21760.215
0.28232063 -0.05 -0.05993795 21760.145
0.28029328 -0.05 -0.059920485 21760.051
0.27827682 -0.05 -0.059901123 21760.069
0.27627121 -0.05 -0.059879855 21760.532
0.27427639 -0.05 -0.05985667 21761.352
0.2722923 -0.05 -0.059831621 21762.086
0.27031889 -0.05 -0.059804697 21763.622
0.26835611 -0.05 -0.05977592 21764.718
0.26640388 -0.05 -0.059745343 21766.17
0.26446217 -0.05 -0.059712935 21767.914
0.26253092 -0.05 -0.059678711 21769.864
0.26061007 -0.05 -0.059642689 21772.162
0.25869958 -0.05 -0.059604861 21774.823
0.25679938 -0.05 -0.059565286 21777.252
0.25490942 -0.05 -0.05952394 21780.722
0.25302965 -0.05 -0.059480842 21783.571
0.25116001 -0.05 -0.059436049 21786.895
0.24930047 -0.05 -0.059389521 21790.513
0.24745095 -0.05 -0.059341283 21794.395
0.24561141 -0.05 -0.059291325 21798.939
0.24378182 -0.05 -0.05923967 21803.396
0.24196209 -0.05 -0.059186367 21807.984
0.24015219 -0.05 -0.059131421 21812.744
0.23835206 -0.05 -0.059074821 21817.835
0.23656166 -0.05 -0.059016618 21822.667
0.23478094 -0.05 -0.058956769 21828.96
0.23300984 -0.05 -0.05889526 21834.597
0.23124831 -0.05 -0.05883224 21839.842
0.22949632 -0.05 -0.058767617 21846.808
0.22775381 -0.05 -0.058701363 21853.348
0.22602072 -0.05 -0.058633589 21859.944
0.22429701 -0.05 -0.058564274 21866.782
0.22258262 -0.05 -0.058493448 21873.516
0.22087752 -0.05 -0.058421069 21881.656
0.21918166 -0.05 -0.058347133 21889.336
0.21749499 -0.05 -0.058271732 21897.077
0.21581745 -0.05 -0.058194856 21905.023
0.21414901 -0.05 -0.058116493 21913.41
0.21248962 -0.05 -0.058036649 21922.025
0.21083923 -0.05 -0.057955337 21931.003
0.20919779 -0.05 -0.057872577 21939.95
0.20756526 -0.05 -0.057788393 21949.233
0.20594158 -0.05 -0.057702763 21959.071
0.20432674 -0.05 -0.057615707 21968.783
0.20272065 -0.05 -0.057527278 21978.393
0.20112329 -0.05 -0.057437457 21988.659
0.19953461 -0.05 -0.05734625 21999.136
0.19795458 -0.05 -0.057253621 22010.658
0.19638314 -0.05 -0.057159665 22020.685
0.19482023 -0.05 -0.05706438 22032.45
0.19326583 -0.05 -0.056967732 22043.412
0.19171991 -0.05 -0.05686975 22055.401
0.19018239 -0.05 -0.056770463 22066.444
0.18865324 -0.05 -0.056669846 22079.34
0.18713243 -0.05 -0.056567899 22091.181
0.18561991 -0.05 -0.056464666 22104.389
0.18411564 -0.05 -0.056360132 22117.086
0.18261956 -0.05 -0.056254317 22130.69
0.18113166 -0.05 -0.056147258 22143.088
0.17965186 -0.05 -0.056038987 22156.555
0.17818015 -0.05 -0.05592942 22170.628
0.17671648 -0.05 -0.055818588 22184.679
0.1752608 -0.05 -0.05570656 22198.452
0.17381308 -0.05 -0.055593324 22213.05
0.17237329 -0.05 -0.055478844 22227.804
0.17094135 -0.05 -0.055363199 22242.111
0.16951726 -0.05 -0.055246341 22258.053
0.16810096 -0.05 -0.055128258 22273.215
0.16669242 -0.05 -0.05500905 22288.541
0.16529159 -0.05 -0.054888659 22304.831
0.16389844 -0.05 -0.054767078 22321.024
0.16251293 -0.05 -0.054644372 22337.022
0.16113501 -0.05 -0.054520532 22353.466
0.15976465 -0.05 -0.054395554 22369.897
0.15840181 -0.05 -0.054269449 22387.122
0.15704647 -0.05 -0.054142171 22405.1
0.15569856 -0.05 -0.05401378 22422.255
0.15435807 -0.05 -0.053884336 22439.499
0.15302494 -0.05 -0.053753791 22457.173
0.15169915 -0.05 -0.053622161 22474.955
0.15038066 -0.05 -0.053489407 22494.165
0.14906942 -0.05 -0.053355551 22512.586
0.1477654 -0.05 -0.053220679 22531.32
0.14646858 -0.05 -0.053084715 22551.166
0.1451789 -0.05 -0.052947683 22570.185
0.14389634 -0.05 -0.052809659 22589.277
0.14262085 -0.05 -0.05267058 22609.468
0.14135242 -0.05 -0.052530426 22629.939
0.14009099 -0.05 -0.052389231 22650.592
0.13883653 -0.05 -0.052247037 22670.893
0.137589 -0.05 -0.052103837 22691.848
0.13634838 -0.05 -0.051959625 22712.297
0.13511461 -0.05 -0.051814476 22732.94
0.1338877 -0.05 -0.051668228 22756.53
0.13266759 -0.05 -0.051520967 22776.728
0.13145422 -0.05 -0.051372868 22797.781
0.13024759 -0.05 -0.051223701 22821.25
0.12904768 -0.05 -0.051073498 22843.474
0.12785442 -0.05 -0.050922382 22865.901
0.12666779 -0.05 -0.050770304 22889.043
0.12548777 -0.05 -0.050617245 22912.809
0.12431431 -0.05 -0.050463216 22936.194
0.12314738 -0.05 -0.050308326 22958.315
0.12198694 -0.05 -0.050152493 22983.223
0.12083298 -0.05 -0.049995623 23008.013
0.11968546 -0.05 -0.049837846 23032.148
0.11854435 -0.05 -0.049679177 23056.742
0.11740961 -0.05 -0.049519574 23081.836
0.11628121 -0.05 -0.049359037 23107.344
0.11515913 -0.05 -0.049197589 23132.892
0.11404333 -0.05 -0.049035234 23158.748
0.11293377 -0.05 -0.048871989 23184.335
0.11183042 -0.05 -0.048707847 23210.355
0.11073327 -0.05 -0.048542821 23236.202
0.10964229 -0.05 -0.048376866 23263.698
0.10855744 -0.05 -0.048209982 23290.535
0.10747868 -0.05 -0.048042235 23317.806
0.106406 -0.05 -0.04787359 23345.664
0.10533935 -0.05 -0.047704062 23373.752
0.10427873 -0.05 -0.047533647 23402.297
0.10322407 -0.05 -0.047362394 23429.705
0.10217536 -0.05 -0.04719032 23458.043
0.10113259 -0.05 -0.047017348 23487.55
0.10009572 -0.05 -0.046843455 23517.887
0.099064719 -0.05 -0.046668685 23547.452
0.098039551 -0.05 -0.046493118 23576.193
0.097020189 -0.05 -0.046316733 23605.845
0.096006622 -0.05 -0.046139442 23637.021
0.094998822 -0.05 -0.045961241 23668.202
0.09399675 -0.05 -0.045782217 23698.68
0.093000378 -0.05 -0.045602371 23729.877
0.092009685 -0.05 -0.045421665 23761.325
0.091024643 -0.05 -0.045240119 23793.126
0.090045231 -0.05 -0.045057701 23826.035
0.089071419 -0.05 -0.044874427 23858.33
0.088103174 -0.05 -0.044690349 23890.783
0.087140475 -0.05 -0.044505439 23923.699
0.086183302 -0.05 -0.044319662 23957.452
0.08523163 -0.05 -0.044133032 23991.106
0.084285425 -0.05 -0.043945577 24024.965
0.083344663 -0.05 -0.043757308 24059.061
0.082409325 -0.05 -0.043568191 24094.47
0.081479395 -0.05 -0.04337819 24130.085
0.080554831 -0.05 -0.043187382 24164.689
0.079635606 -0.05 -0.042995792 24200.084
0.078721718 -0.05 -0.042803304 24237.072
0.077813136 -0.05 -0.042609969 24272.946
0.076909826 -0.05 -0.042415818 24310.319
0.07601178 -0.05 -0.042220793 24347.883
0.075118966 -0.05 -0.042024932 24385.597
0.074231361 -0.05 -0.041828237 24423.272
0.073348935 -0.05 -0.04163074 24460.887
0.07247168 -0.05 -0.041432371 24500.271
0.071599572 -0.05 -0.041233139 24538.786
0.070732584 -0.05 -0.041033074 24578.471
0.069870697 -0.05 -0.040832148 24617.829
0.069013884 -0.05 -0.040630397 24657.854
0.068162134 -0.05 -0.040427777 24698.613
0.067315419 -0.05 -0.040224307 24739.365
0.06647372 -0.05 -0.040019973 24781.493
0.065637027 -0.05 -0.039814748 24823.98
0.06480531 -0.05 -0.039608654 24866.818
0.063978543 -0.05 -0.039401719 24909.133
0.063156706 -0.05 -0.039193946 24952.013
0.062339788 -0.05 -0.038985285 24995.476
0.061527775 -0.05 -0.038775725 25039.717
0.060720649 -0.05 -0.038565255 25084.68
0.059918385 -0.05 -0.038353894 25129.917
0.059120963 -0.05 -0.03814165 25175.753
0.058328367 -0.05 -0.037928504 25222.021
0.057540574 -0.05 -0.037714473 25268.021
0.056757564 -0.05 -0.037499568 25314.477
0.055979326 -0.05 -0.037283751 25362.193
0.055205861 -0.05 -0.03706696 25411.522
0.054437143 -0.05 -0.036849222 25460.523
0.053673142 -0.05 -0.036630582 25509.804
0.052913841 -0.05 -0.036411033 25559.128
0.052159229 -0.05 -0.036190552 25609.738
0.051409301 -0.05 -0.035969101 25661.351
0.050664044 -0.05 -0.035746666 25713.392
0.049923426 -0.05 -0.035523297 25765.024
0.049187444 -0.05 -0.035298949 25818.587
0.048456093 -0.05 -0.035073588 25871.768
0.047729343 -0.05 -0.034847258 25925.492
0.047007184 -0.05 -0.034619944 25979.829
0.046289611 -0.05 -0.034391604 26035.624
0.045576607 -0.05 -0.034162251 26091.289
0.044868158 -0.05 -0.033931882 26148.281
0.044164259 -0.05 -0.033700464 26205.43
0.043464894 -0.05 -0.033468005 26263.419
0.042770054 -0.05 -0.033234488 26321.909
0.042079734 -0.05 -0.032999885 26381.897
0.041393929 -0.05 -0.032764174 26442.557
0.040712625 -0.05 -0.032527361 26503.787
0.040035798 -0.05 -0.032289471 26564.815
0.039363443 -0.05 -0.032050489 26627.172
0.038695563 -0.05 -0.031810365 26690.885
0.038032168 -0.05 -0.031569045 26756.269
0.037373226 -0.05 -0.031326581 26821.001
0.036718733 -0.05 -0.03108296 26887.377
0.036068678 -0.05 -0.030838173 26953.167
0.035423063 -0.05 -0.030592193 27022.135
0.034781926 -0.05 -0.030344894 27092.078
0.034145213 -0.05 -0.030096392 27161.159
0.033512917 -0.05 -0.029846677 27232.219
0.032885063 -0.05 -0.029595666 27304.316
0.032261651 -0.05 -0.029343341 27378.133
0.031642676 -0.05 -0.029089692 27452.112
0.031028119 -0.05 -0.028834753 27526.521
0.030417981 -0.05 -0.028578493 27602.584
0.029812303 -0.05 -0.028320809 27681.13
0.029211079 -0.05 -0.028061701 27759.683
0.028614285 -0.05 -0.027801211 27838.822
0.028021925 -0.05 -0.027539318 27918.957
0.027434034 -0.05 -0.027275938 28001.51
0.02685062 -0.05 -0.027011044 28084.232
0.026271654 -0.05 -0.026744689 28168.026
0.025697179 -0.05 -0.02647678 28254.188
0.025127212 -0.05 -0.026207275 28340.821
0.024561729 -0.05 -0.025936225 28428.124
0.024000753 -0.05 -0.025663583 28517.588
0.023444337 -0.05 -0.025389243 28608.933
0.022892447 -0.05 -0.025113275 28700.666
0.022345135 -0.05 -0.024835581 28796.623
0.02180243 -0.05 -0.024556113 28892.254
0.021264293 -0.05 -0.024274957 28990.167
0.020730799 -0.05 -0.023991978 29090.985
0.020201992 -0.05 -0.023707109 29193.408
0.019677841 -0.05 -0.023420417 29296.324
0.019158403 -0.05 -0.023131824 29402.548
0.018643727 -0.05 -0.022841258 29509.765
0.018133826 -0.05 -0.022548716 29619.197
0.017628739 -0.05 -0.022254151 29729.42
0.017128472 -0.05 -0.021957583 29841.6
0.016633127 -0.05 -0.021658866 29957.173
0.016142724 -0.05 -0.021358 30072.89
0.015657283 -0.05 -0.021054987 30191.249
0.015176888 -0.05 -0.020749728 30311.042
0.014701579 -0.05 -0.020442197 30432.861
0.014231398 -0.05 -0.020132368 30556.208
0.013766434 -0.05 -0.019820157 30682.515
0.013306742 -0.05 -0.019505528 30809.831
0.012852374 -0.05 -0.019188457 30939.998
0.012403438 -0.05 -0.018868841 31072.096
0.01195997 -0.05 -0.018546687 31205.863
0.011522076 -0.05 -0.018221915 31342.091
0.011089809 -0.05 -0.017894515 31479.47
0.0106633 -0.05 -0.017564386 31620.392
0.010242659 -0.05 -0.017231451 31761.7
0.009827894 -0.05 -0.016895788 31904.297
0.0094192167 -0.05 -0.016557218 32049.798
0.0090167438 -0.05 -0.016215673 32195.785
0.0086204858 -0.05 -0.015871238 32343.895
0.0082306648 -0.05 -0.015523765 32494.893
0.0078474301 -0.05 -0.015173186 32646.388
0.00747084 -0.05 -0.014819531 32798.646
0.0071010571 -0.05 -0.014462741 32951.821
0.0067383047 -0.05 -0.014102728 33106.604
0.0063827544 -0.05 -0.013739427 33262.054
0.0060345067 -0.05 -0.013372862 33417.304
0.0056937565 -0.05 -0.013003011 33572.284
0.0053606882 -0.05 -0.012629837 33726.231
0.0050354824 -0.05 -0.012253323 33879.025
0.0047183926 -0.05 -0.01187344 34030.38
0.0044096379 -0.05 -0.011490161 34179.573
0.0041094132 -0.05 -0.011103483 34325.898
0.0038179536 -0.05 -0.010713443 34468.617
0.0035354728 -0.05 -0.01032007 34606.789
0.0032621919 -0.05 -0.0099233916 34739.705
0.0029983702 -0.05 -0.0095234712 34866.506
0.0027442429 -0.05 -0.0091203468 34986.284
0.0025000604 -0.05 -0.0087141009 35098.068
0.0022660754 -0.05 -0.0083048554 35200.886
0.0020425146 -0.05 -0.0078926699 35293.46
0.0018296563 -0.05 -0.0074776735 35373.748
0.0016277487 -0.05 -0.0070600556 35440.057
0.0014369745 -0.05 -0.006639968 35493.593
0.0012575291 -0.05 -0.0062175973 35534.411
0.0010896146 -0.05 -0.0057931737 35559.126
0.00093341057 -0.05 -0.0053669215 35566.58
0.00078906403 -0.05 -0.0049390744 35556.865
0.00065670868 -0.05 -0.0045099017 35528.727
0.00053653171 -0.05 -0.0040796665 35483.409
0.00042862038 -0.05 -0.003648665 35421.281
0.00033294635 -0.05 -0.003217232 35337.783
0.00024951873 -0.05 -0.002785685 35233.077
0.00017832255 -0.05 -0.0023543467 35108.534
0.00011930806 -0.05 -0.0019235435 34963.979
7.2389968e-05 -0.05 -0.0014936046 34799.353
3.7448893e-05 -0.05 -0.0010648563 34615.378
1.4332163e-05 -0.05 -0.0006376208 34413.67
2.8544133e-06 -0.05 -0.00021221054 34194.41
0.99884037 -0.05 -0.00016828408 26495.605
0.99652103 -0.05 -0.00050440213 26438.95
0.99420154 -0.05 -0.00083952039 26368.17
0.99188191 -0.05 -0.0011736208 26309.296
0.98956214 -0.05 -0.0015067636 26251.526
0.98724224 -0.05 -0.001838948 26197.453
0.9849222 -0.05 -0.0021701637 26145.465
0.98260201 -0.05 -0.0025004302 26095.476
0.9802817 -0.05 -0.0028297328 26047.407
0.97796124 -0.05 -0.0031580577 26000.832
0.97564065 -0.05 -0.0034854377 25955.739
0.97331994 -0.05 -0.0038118591 25912.007
0.97099908 -0.05 -0.0041373159 25869.554
0.96867808 -0.05 -0.0044618578 25828.083
0.96635697 -0.05 -0.0047854478 25787.993
0.96403572 -0.05 -0.0051081172 25748.46
0.96171435 -0.05 -0.0054299032 25710.128
0.95939284 -0.05 -0.0057507069 25672.831
0.95707121 -0.05 -0.0060705875 25636.172
0.95474946 -0.05 -0.0063895914 25600.386
0.95242757 -0.05 -0.0067076389 25565.632
0.95010556 -0.05 -0.0070248024 25531.081
0.94778343 -0.05 -0.0073411104 25497.544
0.94546118 -0.05 -0.0076564368 25464.917
0.9431388 -0.05 -0.0079708659 25432.565
0.94081631 -0.05 -0.0082844406 25400.986
0.93849369 -0.05 -0.0085971026 25370.073
0.93617096 -0.05 -0.0089088655 25339.707
0.93384811 -0.05 -0.0092197818 25309.654
0.93152514 -0.05 -0.0095298292 25280.36
0.92920204 -0.05 -0.00983897 25251.539
0.92687884 -0.05 -0.010147248 25223.159
0.92455553 -0.05 -0.01045465 25195.324
0.92223209 -0.05 -0.01076119 25167.793
0.91990855 -0.05 -0.011066875 25140.879
0.91758488 -0.05 -0.011371653 25114.556
0.91526111 -0.05 -0.011675608 25088.111
0.91293723 -0.05 -0.011978761 25062.331
0.91061324 -0.05 -0.012281 25037.181
0.90828913 -0.05 -0.012582372 25012.114
0.90596492 -0.05 -0.012882964 24987.238
0.90364059 -0.05 -0.013182677 24963.346
0.90131615 -0.05 -0.013481494 24939.428
0.89899162 -0.05 -0.013779572 24915.338
0.89666698 -0.05 -0.014076841 24892.145
0.89434223 -0.05 -0.014373142 24869.638
0.89201737 -0.05 -0.01466868 24846.295
0.88969241 -0.05 -0.014963453 24824.138
0.88736734 -0.05 -0.0152573 24802.182
0.88504217 -0.05 -0.015550344 24780.202
0.88271689 -0.05 -0.015842646 24758.277
0.88039152 -0.05 -0.016134071 24737.423
0.87806604 -0.05 -0.016424635 24716.205
0.87574046 -0.05 -0.016714466 24695.249
0.87341478 -0.05 -0.017003468 24674.754
0.871089 -0.05 -0.017291665 24654.22
0.86876312 -0.05 -0.017579058 24634.183
0.86643714 -0.05 -0.017865646 24614.078
0.86411107 -0.05 -0.018151445 24594.452
0.86178489 -0.05 -0.018436407 24575.003
0.85945862 -0.05 -0.018720606 24555.402
0.85713225 -0.05 -0.019004019 24536.41
0.85480578 -0.05 -0.019286574 24517.736
0.85247922 -0.05 -0.019568356 24498.813
0.85015256 -0.05 -0.019849417 24480.029
0.84782581 -0.05 -0.020129657 24461.863
0.84549896 -0.05 -0.020409081 24443.509
0.84317202 -0.05 -0.020687756 24425.285
0.84084499 -0.05 -0.020965643 24407.438
0.83851785 -0.05 -0.021242672 24390.158
0.83619063 -0.05 -0.021518954 24372.188
0.83386332 -0.05 -0.021794529 24354.732
0.83153592 -0.05 -0.022069294 24337.456
0.82920841 -0.05 -0.022343258 24320.391
0.82688083 -0.05 -0.02261648 24303.033
0.82455315 -0.05 -0.022888925 24286.319
0.82222538 -0.05 -0.023160547 24269.67
0.81989751 -0.05 -0.023431389 24253.221
0.81756957 -0.05 -0.023701495 24236.54
0.81524153 -0.05 -0.023970846 24220.287
0.8129134 -0.05 -0.024239417 24203.94
0.81058518 -0.05 -0.02450723 24187.834
0.80825687 -0.05 -0.024774259 24171.865
0.80592849 -0.05 -0.02504053 24155.916
0.8036 -0.05 -0.025306023 24140.241
0.80127144 -0.05 -0.025570775 24124.226
0.79894279 -0.05 -0.025834763 24108.868
0.79661404 -0.05 -0.026097924 24093.491
0.79428522 -0.05 -0.026360374 24077.819
0.79195631 -0.05 -0.026622048 24062.899
0.78962731 -0.05 -0.026882938 24047.516
0.78729823 -0.05 -0.027143126 24032.346
0.78496906 -0.05 -0.027402516 24017.484
0.78263981 -0.05 -0.02766117 24002.131
0.78031048 -0.05 -0.027919081 23987.465
0.77798106 -0.05 -0.028176144 23972.976
0.77565155 -0.05 -0.028432494 23957.897
0.77332196 -0.05 -0.028688107 23943.526
0.77099228 -0.05 -0.028942907 23929.023
0.76866253 -0.05 -0.029196968 23914.5
0.7663327 -0.05 -0.029450285 23900.049
0.76400278 -0.05 -0.029702803 23885.981
0.76167277 -0.05 -0.029954568 23871.541
0.75934268 -0.05 -0.030205572 23857.675
0.75701251 -0.05 -0.030455803 23843.42
0.75468227 -0.05 -0.030705313 23829.317
0.75235194 -0.05 -0.030954045 23815.338
0.75002152 -0.05 -0.031202018 23801.303
0.74769103 -0.05 -0.031449207 23787.634
0.74536045 -0.05 -0.031695625 23773.706
0.74302979 -0.05 -0.031941289 23760.022
0.74069906 -0.05 -0.032186181 23746.257
0.73836824 -0.05 -0.032430305 23732.755
0.73603734 -0.05 -0.032673645 23719.271
0.73370637 -0.05 -0.032916233 23705.595
0.73137531 -0.05 -0.033158092 23691.887
0.72904417 -0.05 -0.033399148 23678.774
0.72671295 -0.05 -0.033639378 23665.533
0.72438166 -0.05 -0.03387888 23651.895
0.72205028 -0.05 -0.034117645 23638.58
0.71971882 -0.05 -0.034355552 23625.818
0.71738728 -0.05 -0.034592685 23612.3
0.71505567 -0.05 -0.034829099 23599.195
0.71272397 -0.05 -0.035064674 23586.349
0.71039219 -0.05 -0.035299486 23573.011
0.70806035 -0.05 -0.035533544 23560.145
0.70572841 -0.05 -0.035766778 23547.237
0.70339641 -0.05 -0.035999269 23533.993
0.70106432 -0.05 -0.03623098 23521.109
0.69873216 -0.05 -0.036461891 23508.004
0.69639992 -0.05 -0.036691978 23495.403
0.69406759 -0.05 -0.036921269 23482.366
0.69173519 -0.05 -0.037149739 23470.182
0.68940271 -0.05 -0.037377398 23457.232
0.68707015 -0.05 -0.037604327 23444.364
0.68473751 -0.05 -0.037830471 23431.45
0.68240481 -0.05 -0.038055756 23419.188
0.68007201 -0.05 -0.038280206 23406.518
0.67773914 -0.05 -0.038503859 23394.159
0.67540619 -0.05 -0.03872673 23381.284
0.67307317 -0.05 -0.038948784 23369.003
0.67074007 -0.05 -0.039170028 23356.054
0.66840689 -0.05 -0.039390456 23343.826
0.66607364 -0.05 -0.039610024 23331.25
0.6637403 -0.05 -0.039828774 23319.013
0.66140688 -0.05 -0.040046678 23306.593
0.65907339 -0.05 -0.040263799 23293.89
0.65673983 -0.05 -0.040480085 23281.684
0.65440619 -0.05 -0.040695489 23269.414
0.65207246 -0.05 -0.040910082 23256.906
0.64973866 -0.05 -0.041123838 23244.649
0.64740479 -0.05 -0.04133674 23232.223
0.64507083 -0.05 -0.041548788 23220.101
0.6427368 -0.05 -0.04175995 23208.005
0.64040268 -0.05 -0.041970278 23195.623
0.6380685 -0.05 -0.042179754 23183.529
0.63573424 -0.05 -0.042388356 23171.254
0.63339989 -0.05 -0.042596094 23159.165
0.63106547 -0.05 -0.042802945 23147.024
0.62873098 -0.05 -0.043008941 23134.723
0.6263964 -0.05 -0.043214055 23122.714
0.62406175 -0.05 -0.043418269 23110.635
0.62172701 -0.05 -0.043621601 23098.518
0.61939221 -0.05 -0.043824069 23086.157
0.61705733 -0.05 -0.044025645 23074.183
0.61472237 -0.05 -0.044226271 23062.38
0.61238733 -0.05 -0.044426006 23050.127
0.61005222 -0.05 -0.04462488 23037.884
0.60771702 -0.05 -0.044822825 23025.953
0.60538174 -0.05 -0.045019806 23014.215
0.6030464 -0.05 -0.045215861 23002.264
0.60071097 -0.05 -0.045411024 22990.248
0.59837546 -0.05 -0.045605254 22978.414
0.59603988 -0.05 -0.045798556 22966.26
0.59370422 -0.05 -0.045990938 22954.228
0.59136849 -0.05 -0.046182352 22942.358
0.58903267 -0.05 -0.046372791 22930.586
0.58669678 -0.05 -0.046562266 22918.709
0.5843608 -0.05 -0.046750814 22906.563
0.58202475 -0.05 -0.046938396 22894.852
0.57968862 -0.05 -0.047124972 22883.112
0.57735242 -0.05 -0.047310578 22871.182
0.57501614 -0.05 -0.04749525 22858.955
0.57267978 -0.05 -0.047678924 22847.365
0.57034334 -0.05 -0.04786155 22835.745
0.56800682 -0.05 -0.048043188 22823.923
0.56567024 -0.05 -0.048223861 22811.861
0.56333356 -0.05 -0.048403536 22800.097
0.56099681 -0.05 -0.048582153 22788.607
0.55865998 -0.05 -0.04875972 22776.971
0.55632308 -0.05 -0.048936314 22764.804
0.55398609 -0.05 -0.049111879 22753.253
0.55164903 -0.05 -0.049286359 22741.503
0.54931189 -0.05 -0.049459794 22729.862
0.54697467 -0.05 -0.049632163 22718.29
0.54463737 -0.05 -0.049803468 22706.702
0.5423 -0.05 -0.049973718 22694.995
0.53996254 -0.05 -0.050142913 22683.25
0.53762502 -0.05 -0.050311035 22671.569
0.53528741 -0.05 -0.050478054 22660.099
0.53294972 -0.05 -0.050643972 22648.43
0.53061196 -0.05 -0.050808824 22636.594
0.52827412 -0.05 -0.050972558 22625.15
0.5259362 -0.05 -0.051135143 22613.639
0.5235982 -0.05 -0.051296612 22602.15
0.52126012 -0.05 -0.051456922 22590.91
0.51892198 -0.05 -0.051616121 22579.097
0.51658374 -0.05 -0.051774162 22568.078
0.51424543 -0.05 -0.051931037 22556.284
0.51190704 -0.05 -0.05208678 22545.012
0.50956857 -0.05 -0.052241321 22533.711
0.50723003 -0.05 -0.052394685 22522.363
0.50489141 -0.05 -0.052546885 22510.807
0.50255271 -0.05 -0.05269791 22499.387
0.50021394 -0.05 -0.052847701 22488.269
0.49787509 -0.05 -0.052996281 22476.822
0.49553616 -0.05 -0.053143654 22465.57
0.49319715 -0.05 -0.053289801 22454.137
0.49085807 -0.05 -0.053434697 22443.139
0.48851891 -0.05 -0.05357832 22432.097
0.48617967 -0.05 -0.053720679 22421.191
0.48384035 -0.05 -0.053861795 22409.868
0.48150097 -0.05 -0.054001669 22398.705
0.4791615 -0.05 -0.054140241 22387.699
0.47682195 -0.05 -0.054277501 22376.779
0.47448234 -0.05 -0.054413462 22365.815
0.47214264 -0.05 -0.054548109 22354.971
0.46980287 -0.05 -0.054681459 22343.741
0.46746302 -0.05 -0.054813494 22332.813
0.4651231 -0.05 -0.054944178 22321.793
0.46278311 -0.05 -0.055073496 22311.089
0.46044304 -0.05 -0.055201437 22300.3
0.45810288 -0.05 -0.055328007 22289.641
0.45576266 -0.05 -0.055453195 22278.929
0.45342237 -0.05 -0.055576996 22268.359
0.451082 -0.05 -0.05569938 22257.891
0.44874156 -0.05 -0.055820362 22247.166
0.44640104 -0.05 -0.055939944 22236.638
0.44406046 -0.05 -0.056058045 22226.545
0.44171979 -0.05 -0.056174717 22215.656
0.43937906 -0.05 -0.05628996 22205.405
0.43703826 -0.05 -0.056403696 22195.04
0.43469738 -0.05 -0.056515954 22184.849
0.43235643 -0.05 -0.056626691 22174.913
0.43001541 -0.05 -0.056735938 22164.499
0.42767432 -0.05 -0.056843696 22154.338
0.42533316 -0.05 -0.056949929 22144.123
0.42299193 -0.05 -0.057054582 22134.609
0.42065064 -0.05 -0.05715767 22124.506
0.41830927 -0.05 -0.057259223 22114.72
0.41596783 -0.05 -0.057359191 22104.876
0.41362634 -0.05 -0.057457551 22095.473
0.41128476 -0.05 -0.057554292 22085.874
0.40894313 -0.05 -0.057649427 22076.332
0.40660142 -0.05 -0.057742965 22066.491
0.40425966 -0.05 -0.057834838 22057.454
0.40191783 -0.05 -0.057925023 22048.011
0.39957593 -0.05 -0.058013541 22038.95
0.39723398 -0.05 -0.058100379 22029.523
0.39489196 -0.05 -0.058185525 22020.614
0.39254988 -0.05 -0.058268918 22011.811
0.39020774 -0.05 -0.05835059 22002.813
0.38786553 -0.05 -0.058430541 21993.983
0.38552326 -0.05 -0.058508715 21985.489
0.38318094 -0.05 -0.058585094 21977.063
0.38083857 -0.05 -0.058659688 21968.627
0.37849613 -0.05 -0.058732482 21960.226
0.37615364 -0.05 -0.058803471 21951.788
0.37381109 -0.05 -0.058872605 21943.936
0.37146848 -0.05 -0.058939856 21936.047
0.36912583 -0.05 -0.059005237 21928.341
0.36678312 -0.05 -0.059068742 21920.514
0.36444037 -0.05 -0.059130354 21912.913
0.36209757 -0.05 -0.059190049 21905.193
0.35975471 -0.05 -0.059247824 21897.752
0.35741181 -0.05 -0.059303603 21890.894
0.35506886 -0.05 -0.059357402 21883.724
0.35272586 -0.05 -0.059409225 21876.967
0.35038283 -0.05 -0.059459044 21869.958
0.34803975 -0.05 -0.059506859 21863.353
0.34569662 -0.05 -0.059552581 21857.249
0.34335347 -0.05 -0.059596249 21850.597
0.34101027 -0.05 -0.059637862 21844.588
0.33866703 -0.05 -0.059677333 21838.763
0.33632377 -0.05 -0.059714702 21832.847
0.33398046 -0.05 -0.059749909 21827.707
0.33163712 -0.05 -0.059782951 21821.95
0.32929376 -0.05 -0.059813858 21816.577
0.32695037 -0.05 -0.059842535 21811.703
0.32460696 -0.05 -0.059868969 21806.987
0.32226351 -0.05 -0.059893141 21802.663
0.31992004 -0.05 -0.059915067 21797.984
0.31757656 -0.05 -0.059934727 21793.827
0.31523306 -0.05 -0.059952066 21789.803
0.31288954 -0.05 -0.059967055 21786.396
0.31054601 -0.05 -0.059979678 21782.927
0.30820246 -0.05 -0.059989926 21779.596
0.30585891 -0.05 -0.059997792 21775.664
0.30351535 -0.05 -0.060003209 21772.7
0.30117179 -0.05 -0.060006157 21770.438
