/*--------------------------------*- C++ -*----------------------------------*\
| =========                 |                                                 |
| \\      /  F ield         | OpenFOAM: The Open Source CFD Toolbox           |
|  \\    /   O peration     | Version:  2306                                  |
|   \\  /    A nd           | Website:  www.openfoam.com                      |
|    \\/     M anipulation  |                                                 |
\*---------------------------------------------------------------------------*/
FoamFile
{
    version     2.0;
    format      ascii;
    arch        "LSB;label=32;scalar=64";
    class       volVectorField;
    location    "125";
    object      momentError;
}
// * * * * * * * * * * * * * * * * * * * * * * * * * * * * * * * * * * * * * //

dimensions      [0 1 -2 0 0 0 0];

internalField   nonuniform List<vector> 
1340
(
(0.0071385 0.0099717 5.60034e-16)
(0.0054282 0.0288291 -1.65409e-15)
(0.0085374 0.0162644 5.37365e-15)
(0.00793162 0.0193501 6.85403e-16)
(0.00669369 0.00973074 1.09237e-15)
(0.00461731 0.0277559 2.36732e-15)
(0.00901185 0.0179503 8.91694e-17)
(0.0083003 0.0178535 5.63469e-16)
(0.00792766 0.0158999 6.3438e-16)
(0.00722881 0.0187626 -3.41068e-16)
(0.00623069 0.00948531 -4.87065e-16)
(0.00382801 0.02673 2.58373e-15)
(0.0110034 0.0191405 -1.21265e-15)
(0.0100401 0.0187207 2.52706e-15)
(0.00912956 0.0182545 7.557e-18)
(0.0083424 0.0176347 1.568e-18)
(0.00764747 0.0174626 1.0793e-15)
(0.00726765 0.0154687 -3.77061e-15)
(0.00649213 0.0180319 -1.92064e-15)
(0.00572149 0.00924963 1.44203e-17)
(0.00310091 0.0257521 -4.60051e-15)
(0.0144804 0.0202729 1.99652e-16)
(0.0138606 0.0206144 -2.47064e-16)
(0.0129723 0.0202259 1.70659e-16)
(0.0120563 0.0198448 1.03347e-15)
(0.0111293 0.0193984 -3.78589e-16)
(0.0102188 0.0189667 2.47339e-15)
(0.00932565 0.0185295 -7.51155e-16)
(0.0084623 0.0180197 -1.2683e-15)
(0.0076365 0.0172321 -1.60535e-17)
(0.00694528 0.0169418 -1.60067e-16)
(0.00662495 0.0150683 2.45493e-15)
(0.00579906 0.0173779 1.31835e-15)
(0.00517983 0.00901621 4.6504e-18)
(0.00243363 0.0248145 3.73302e-16)
(0.0205427 0.021934 -8.89026e-16)
(0.0190353 0.0216788 2.0577e-16)
(0.0175712 0.0213812 3.2345e-16)
(0.0161602 0.0210429 1.032e-15)
(0.0148044 0.0206832 9.48823e-16)
(0.013538 0.020343 -3.68771e-16)
(0.012917 0.0206434 -5.77832e-16)
(0.0120271 0.0201608 -5.22786e-16)
(0.0111787 0.0197891 1.55316e-15)
(0.010325 0.019336 -1.03159e-16)
(0.00937576 0.0186976 -6.24983e-16)
(0.00853092 0.0181944 7.85974e-16)
(0.0077 0.0176013 -5.72315e-16)
(0.00696112 0.0168616 1.38324e-17)
(0.00629667 0.0164925 -1.49848e-16)
(0.00598959 0.0146746 5.61677e-16)
(0.00512716 0.0167354 6.26963e-16)
(0.00462853 0.00878803 2.21535e-17)
(0.0018102 0.0239118 -1.93631e-16)
(0.0304944 0.0236315 4.28255e-16)
(0.0287368 0.0234933 7.46281e-16)
(0.0270396 0.0233326 9.16845e-16)
(0.025397 0.0231592 -2.37333e-16)
(0.0238458 0.0230145 7.14309e-16)
(0.0223421 0.0228465 -6.95273e-16)
(0.0208443 0.0226228 -2.11951e-15)
(0.0194492 0.0224362 -1.07321e-15)
(0.0179882 0.022099 5.79874e-16)
(0.0165502 0.0217006 9.51302e-17)
(0.0152244 0.0213489 1.34315e-15)
(0.013928 0.0209444 -2.07724e-16)
(0.01249 0.0202678 -4.74823e-17)
(0.0118611 0.0205142 7.45087e-17)
(0.011006 0.0199728 -5.13527e-17)
(0.0101703 0.0195046 -4.97469e-16)
(0.00933641 0.0189573 9.87944e-16)
(0.00853422 0.018423 -8.88621e-16)
(0.00774567 0.0178772 1.11998e-16)
(0.00697427 0.0172487 1.56905e-15)
(0.00628183 0.0164858 -3.43691e-17)
(0.0056547 0.0160443 1.56324e-16)
(0.00535947 0.0142874 -1.27042e-15)
(0.00447401 0.0161062 -1.45699e-15)
(0.00407365 0.008567 -1.95282e-17)
(0.00121973 0.023039 5.3085e-16)
(0.0546801 0.0255535 -2.20517e-16)
(0.0521789 0.0256191 2.41037e-16)
(0.0497477 0.0256468 -9.92114e-17)
(0.0473863 0.0256541 -1.96098e-16)
(0.0450915 0.025647 6.41165e-16)
(0.0428642 0.0256278 -5.14909e-16)
(0.0407003 0.0255999 9.12295e-17)
(0.0386003 0.0255539 5.65226e-16)
(0.0365383 0.0254677 -5.62617e-16)
(0.0346488 0.0254294 -1.70688e-15)
(0.0328068 0.0253258 3.12167e-17)
(0.0309127 0.0251006 -3.25796e-16)
(0.0293298 0.0250261 3.03265e-16)
(0.0275415 0.024727 3.16025e-16)
(0.0258137 0.024413 -9.42389e-17)
(0.0241563 0.0240916 -2.04598e-16)
(0.0225509 0.0237561 6.58658e-16)
(0.0211589 0.0235709 -2.52172e-16)
(0.0197647 0.0233127 -3.69296e-16)
(0.0180762 0.022685 3.06072e-16)
(0.0166967 0.0222965 -9.27248e-16)
(0.015345 0.0218441 5.92148e-16)
(0.0140523 0.0213821 -3.51462e-16)
(0.0127598 0.0208391 -4.81207e-16)
(0.0114969 0.0202585 2.65332e-16)
(0.010874 0.0204566 1.87627e-16)
(0.0100467 0.0198398 3.87177e-16)
(0.00923449 0.0192952 -4.21683e-16)
(0.00844219 0.0187016 -7.18698e-16)
(0.0076843 0.018125 2.47027e-16)
(0.00694687 0.0175363 4.01711e-17)
(0.00623259 0.0168753 -1.57167e-16)
(0.0055921 0.0160974 1.14e-17)
(0.00500945 0.0155923 -1.25513e-16)
(0.00472674 0.0139057 2.55576e-15)
(0.00383627 0.0154925 -1.13475e-16)
(0.00351536 0.00835332 2.46054e-16)
(0.000661926 0.0221954 -8.01153e-17)
(0.325342 0.087149 -6.15397e-17)
(0.336209 0.0837563 -2.00325e-17)
(0.328389 0.0787105 -2.53826e-18)
(0.319208 0.0735207 -2.16803e-17)
(0.309179 0.0693516 -9.62537e-18)
(0.298573 0.0654882 -6.97782e-18)
(0.287515 0.0621584 1.93417e-17)
(0.276202 0.059204 5.56658e-17)
(0.26486 0.0566174 -2.33554e-17)
(0.253597 0.0543502 -4.57148e-17)
(0.242562 0.052372 2.09277e-17)
(0.231795 0.0506417 -4.02302e-17)
(0.221388 0.049125 -5.1286e-17)
(0.211362 0.0477744 -4.39583e-17)
(0.201749 0.0465613 -9.19963e-17)
(0.192554 0.0454526 -9.41563e-18)
(0.183771 0.0444185 -7.61107e-17)
(0.175407 0.0434324 -4.45152e-17)
(0.16744 0.0424837 -1.02126e-16)
(0.159857 0.0415601 -8.24338e-18)
(0.152644 0.0406636 1.17741e-16)
(0.145783 0.0397839 1.23522e-16)
(0.139249 0.0389318 -7.32019e-17)
(0.133037 0.0381092 4.89753e-17)
(0.127122 0.0373253 1.08055e-16)
(0.121493 0.0365789 1.2068e-17)
(0.116129 0.0358766 -9.25716e-17)
(0.111023 0.0352145 -7.65441e-18)
(0.106149 0.0345969 2.18893e-17)
(0.101501 0.0340188 -1.05928e-17)
(0.0970595 0.0334803 -8.21903e-17)
(0.092823 0.0329795 7.38279e-17)
(0.0887542 0.0325097 -2.11932e-16)
(0.08486 0.0320796 -8.24238e-17)
(0.0811281 0.0316882 1.48885e-16)
(0.0775482 0.0313378 2.74312e-17)
(0.0741109 0.0310305 1.8799e-17)
(0.0708076 0.0307621 -3.09765e-17)
(0.0676333 0.0305184 3.97482e-17)
(0.0643812 0.030196 2.29509e-16)
(0.0618594 0.0301917 -8.43216e-17)
(0.0593445 0.0300837 1.51761e-18)
(0.0562961 0.0297282 1.54497e-17)
(0.054571 0.0299096 -1.36993e-16)
(0.0518983 0.0296577 6.39216e-16)
(0.0493135 0.0294084 1.38399e-17)
(0.0468046 0.0291346 -5.96895e-16)
(0.0443789 0.0288478 5.44484e-16)
(0.0420274 0.0285568 3.48484e-16)
(0.0397595 0.0282702 -7.26754e-17)
(0.0375683 0.0279829 1.06919e-17)
(0.0354376 0.0276739 -5.82524e-16)
(0.0333403 0.0273154 -9.17532e-16)
(0.0316492 0.0271806 -5.59585e-17)
(0.0299026 0.0269058 -1.97015e-16)
(0.0274334 0.026037 2.90943e-16)
(0.0256924 0.025612 -6.71397e-17)
(0.0240204 0.0251677 -1.32323e-15)
(0.0224174 0.0247117 -4.68042e-17)
(0.0208713 0.0242467 4.15502e-16)
(0.0194519 0.0238543 1.96083e-16)
(0.0180239 0.023389 4.6319e-16)
(0.0166841 0.022947 3.85944e-16)
(0.0153825 0.0224912 6.11144e-16)
(0.0141159 0.02198 1.03333e-15)
(0.0128993 0.0214612 2.29939e-17)
(0.0116888 0.020875 1.24348e-16)
(0.0104883 0.0202349 -1.66431e-16)
(0.00988964 0.020398 -1.51388e-16)
(0.00910422 0.0197133 7.74005e-16)
(0.00832086 0.0190929 -6.26957e-16)
(0.00756308 0.0184432 -3.71584e-17)
(0.00684116 0.0178139 -5.33168e-16)
(0.00614586 0.0171791 6.92461e-16)
(0.00548257 0.0164852 -2.88393e-16)
(0.00489022 0.0156947 3.89524e-17)
(0.00435315 0.0151319 7.61866e-17)
(0.00408529 0.0135235 -1.7267e-15)
(0.00321201 0.0148911 6.61053e-16)
(0.0029567 0.00814658 1.64791e-16)
(0.000134037 0.021375 6.10281e-18)
(0.201585 0.139586 -1.17766e-17)
(0.220894 0.135411 -8.37645e-18)
(0.227104 0.127424 7.13861e-18)
(0.230843 0.119641 -9.61554e-19)
(0.232274 0.112693 -9.85503e-18)
(0.231687 0.106263 3.05759e-17)
(0.229451 0.100424 1.11978e-17)
(0.225921 0.0950815 -7.7359e-18)
(0.221387 0.0902135 2.60421e-17)
(0.216081 0.0857836 -3.44137e-18)
(0.210231 0.081767 2.80998e-17)
(0.203978 0.0781303 4.56105e-17)
(0.197491 0.0748475 -3.10971e-17)
(0.190864 0.0718856 3.79214e-17)
(0.184201 0.0692111 -2.35196e-17)
(0.177562 0.0667963 -7.52919e-17)
(0.171003 0.0645952 -6.18916e-18)
(0.164566 0.0625813 1.73151e-17)
(0.158282 0.060716 1.54398e-17)
(0.152157 0.0589792 -2.07388e-17)
(0.146217 0.0573458 -7.18212e-18)
(0.140461 0.0557966 -2.45467e-18)
(0.134892 0.0543151 -2.18828e-17)
(0.129509 0.052897 -3.51569e-17)
(0.124311 0.0515343 1.12402e-17)
(0.119292 0.0502218 4.82746e-17)
(0.114446 0.0489558 -4.31507e-17)
(0.109768 0.0477365 4.11215e-17)
(0.105245 0.0465597 -1.92595e-17)
(0.100875 0.0454247 4.03451e-17)
(0.0966483 0.0443335 -9.53059e-17)
(0.0925666 0.0432832 -1.02135e-16)
(0.0886042 0.0422691 -7.73695e-18)
(0.0847707 0.0412973 -1.73255e-16)
(0.0810635 0.0403752 -2.06393e-17)
(0.0774734 0.0394977 7.10023e-17)
(0.0740041 0.0386781 3.47831e-17)
(0.0706442 0.0379214 2.80573e-17)
(0.06741 0.0372342 5.43474e-17)
(0.0641566 0.0364912 1.68418e-16)
(0.060859 0.0357134 -1.42488e-17)
(0.0586162 0.0354272 -1.17531e-16)
(0.0560865 0.034962 1.05535e-16)
(0.0515216 0.0336045 -2.37821e-16)
(0.0489203 0.033056 -4.08884e-16)
(0.0464126 0.0325092 2.3481e-17)
(0.043984 0.0319534 1.81672e-16)
(0.0416398 0.0313998 -2.64285e-16)
(0.0393686 0.0308549 2.3989e-16)
(0.0371823 0.0303247 1.06365e-16)
(0.035073 0.0298148 1.96657e-16)
(0.0330339 0.029304 4.55596e-16)
(0.031028 0.0287579 4.96294e-16)
(0.0292353 0.028317 -2.10436e-17)
(0.0273542 0.0277408 -4.44872e-17)
(0.0256089 0.0271886 1.51584e-16)
(0.0239169 0.0266285 1.68712e-16)
(0.0222996 0.0260327 1.03478e-15)
(0.0207446 0.0254319 1.49527e-17)
(0.019246 0.0248201 -9.73176e-16)
(0.0178585 0.0242739 1.02491e-16)
(0.0164941 0.0236951 -4.72571e-16)
(0.0152144 0.023157 -2.43611e-16)
(0.013991 0.0226188 -1.22128e-18)
(0.0128101 0.0220491 -8.51258e-16)
(0.0116806 0.0214808 9.58988e-17)
(0.0105678 0.0208595 5.37775e-17)
(0.00945371 0.020176 -8.64056e-18)
(0.00889661 0.0203175 1.21537e-16)
(0.00816912 0.0195784 -4.05725e-16)
(0.00742677 0.0188948 1.95606e-16)
(0.00670768 0.0181887 9.69269e-17)
(0.00601777 0.0175011 3.69122e-17)
(0.00535592 0.0168129 -1.66284e-15)
(0.00473369 0.0160815 -4.87956e-16)
(0.00418269 0.0152811 -1.38097e-17)
(0.0036895 0.0146667 3.20667e-17)
(0.00343808 0.0131444 -1.29288e-15)
(0.00260259 0.014303 4.28541e-16)
(0.00240333 0.00794529 -3.72785e-16)
(-0.000367567 0.0205732 9.83475e-18)
(0.0638361 0.18262 -1.07437e-17)
(0.0912967 0.178242 -4.38932e-18)
(0.110632 0.167987 1.0265e-17)
(0.125989 0.158174 6.82182e-18)
(0.137975 0.149051 -3.19356e-18)
(0.146968 0.140586 -2.94493e-18)
(0.153419 0.132745 1.17739e-17)
(0.157708 0.12548 -8.41798e-18)
(0.160165 0.118752 -2.57061e-18)
(0.161098 0.112528 1.30481e-17)
(0.160783 0.106785 -1.53397e-18)
(0.159433 0.101475 1.91807e-17)
(0.157274 0.0965983 1.73386e-17)
(0.154466 0.0921176 -1.05241e-17)
(0.151169 0.0880226 3.08352e-17)
(0.147496 0.0842773 -8.88474e-18)
(0.143558 0.0808629 -2.12885e-17)
(0.139439 0.0777461 2.64014e-17)
(0.135215 0.0748994 1.36686e-17)
(0.130927 0.0722871 2.28138e-18)
(0.126634 0.0698844 -8.37523e-18)
(0.12236 0.0676582 -5.89916e-17)
(0.118134 0.0655831 3.20333e-18)
(0.113975 0.0636397 -3.10522e-17)
(0.109894 0.0618034 -1.00724e-17)
(0.105899 0.0600611 1.56578e-17)
(0.101994 0.0583956 3.06385e-17)
(0.0981834 0.0568005 2.74656e-18)
(0.0944604 0.0552585 7.19583e-18)
(0.0908259 0.053768 -9.67328e-18)
(0.0872802 0.0523243 2.48016e-17)
(0.0838262 0.050926 -5.04273e-17)
(0.0804465 0.0495635 -1.16457e-17)
(0.0771489 0.0482429 3.45134e-17)
(0.0739354 0.046968 -1.01737e-16)
(0.0707971 0.0457305 -5.26892e-17)
(0.0677435 0.044546 1.81543e-17)
(0.0647653 0.0434228 -1.56819e-17)
(0.0618929 0.0423917 -2.9507e-17)
(0.0589998 0.0413371 -4.54922e-17)
(0.0560387 0.0402162 3.47076e-17)
(0.0535674 0.0393661 -3.53972e-17)
(0.05082 0.0384106 -1.02834e-16)
(0.0482758 0.0375442 4.26633e-17)
(0.0458167 0.0367219 -2.13928e-16)
(0.0434352 0.0358478 9.49752e-19)
(0.0411222 0.0349997 1.41715e-17)
(0.0388783 0.0341678 1.52624e-16)
(0.0367045 0.0333567 -3.02021e-16)
(0.0346055 0.0325703 -9.84359e-21)
(0.0325847 0.0318203 3.23057e-16)
(0.0306322 0.0310903 -1.07055e-16)
(0.0287103 0.0303416 4.51107e-16)
(0.0269637 0.029694 2.7526e-17)
(0.0251933 0.0289771 -5.93669e-17)
(0.0235324 0.0282945 -6.06852e-17)
(0.0219365 0.0275925 -6.21559e-18)
(0.0204033 0.0268615 -5.80496e-16)
(0.0189274 0.0261273 2.02304e-16)
(0.0174984 0.0253767 5.57029e-16)
(0.0161658 0.0246813 -1.23687e-16)
(0.0148716 0.023979 9.26639e-16)
(0.0136586 0.0233247 1.65023e-17)
(0.0125107 0.0226915 -1.68239e-16)
(0.0114149 0.0220525 -2.07262e-16)
(0.0103773 0.0214302 -2.50666e-16)
(0.00936949 0.0207753 4.79503e-16)
(0.00835771 0.0200569 1.13453e-16)
(0.00785608 0.0201946 2.41703e-16)
(0.00720254 0.0194195 -4.42288e-16)
(0.00651973 0.0186847 1.40026e-16)
(0.00584998 0.0179274 -1.01148e-16)
(0.00519896 0.0171862 -1.06732e-15)
(0.00457215 0.0164488 -3.47022e-16)
(0.00398627 0.0156776 1.2693e-16)
(0.00346941 0.0148589 8.89968e-18)
(0.0030162 0.0141921 1.61308e-16)
(0.00278252 0.0127584 2.42709e-16)
(0.00200151 0.0137209 -7.76762e-16)
(0.00185885 0.00775108 -1.85929e-16)
(-0.000857582 0.0197799 -4.25683e-16)
(-0.0638602 0.222386 5.3579e-18)
(-0.0312608 0.218572 -1.87179e-18)
(-0.00135551 0.206476 -7.39008e-18)
(0.0238799 0.195098 -2.2848e-18)
(0.0452572 0.184273 4.86394e-18)
(0.0630669 0.17412 -1.19829e-19)
(0.077713 0.164576 -3.69584e-18)
(0.0895485 0.155634 1.53914e-18)
(0.0989104 0.147252 -1.66152e-17)
(0.106113 0.139412 -1.10894e-17)
(0.11146 0.132088 -8.35123e-18)
(0.115198 0.125228 -1.8557e-18)
(0.117577 0.118833 2.21612e-17)
(0.118808 0.112868 -6.19754e-18)
(0.119086 0.107327 -2.58428e-17)
(0.118573 0.10218 1.24695e-17)
(0.117415 0.0974201 -7.91532e-18)
(0.115741 0.0930274 -3.94787e-17)
(0.11366 0.0889866 -5.87209e-18)
(0.111261 0.0852687 -5.54375e-19)
(0.108625 0.0818588 3.32053e-17)
(0.105815 0.0787234 4.44564e-17)
(0.10288 0.0758401 4.09596e-18)
(0.0998696 0.073181 1.60815e-17)
(0.0968115 0.0707201 -4.27898e-19)
(0.0937343 0.0684289 2.84534e-17)
(0.0906524 0.0662852 -1.25883e-17)
(0.0875882 0.0642694 -3.24921e-18)
(0.0845436 0.0623601 -1.89658e-18)
(0.0815305 0.0605383 6.15806e-18)
(0.0785562 0.0587949 -1.76863e-18)
(0.0756308 0.0571233 2.57283e-17)
(0.0727428 0.0555076 6.83089e-20)
(0.0699031 0.0539454 1.26135e-18)
(0.0671166 0.0524354 1.84773e-17)
(0.0643761 0.0509634 6.11092e-17)
(0.0616946 0.0495414 -3.8981e-17)
(0.0590671 0.0481735 -2.55625e-18)
(0.0565246 0.0469006 4.23669e-17)
(0.0539713 0.0456338 3.51073e-18)
(0.0513068 0.0442995 -7.45345e-17)
(0.0489949 0.0431671 3.24218e-17)
(0.0465569 0.0419913 6.87097e-17)
(0.0442639 0.0409161 1.77847e-16)
(0.0420384 0.0398403 1.87853e-16)
(0.0398653 0.0387537 4.40013e-17)
(0.0377404 0.0377005 -5.97189e-18)
(0.0356674 0.0366529 -9.51629e-17)
(0.0336505 0.0356224 1.07693e-16)
(0.0316951 0.0346148 -4.98196e-17)
(0.029808 0.0336472 -2.50621e-16)
(0.0279836 0.0327131 -1.58089e-16)
(0.0261852 0.0317785 -7.38044e-17)
(0.0245324 0.0309424 -4.31685e-17)
(0.0228963 0.0300844 3.92308e-17)
(0.021353 0.0292645 -3.70135e-16)
(0.0198702 0.0284332 -1.74018e-16)
(0.0184425 0.0275891 -2.04846e-16)
(0.0170661 0.0267397 -5.05588e-16)
(0.0157263 0.0258658 1.14697e-16)
(0.0144652 0.0250348 -1.29736e-16)
(0.0132487 0.0242123 -4.99465e-16)
(0.0121035 0.0234393 5.25995e-16)
(0.011023 0.0226991 6.51356e-16)
(0.0100035 0.0219811 -1.05786e-16)
(0.00905045 0.0212995 -3.0543e-16)
(0.00813982 0.0206016 -7.89854e-18)
(0.00722947 0.0198518 -5.89115e-17)
(0.00678577 0.019998 1.4573e-16)
(0.00622007 0.0192049 1.17684e-16)
(0.00561017 0.0184399 9.45747e-17)
(0.00500438 0.0176522 2.73804e-16)
(0.0044038 0.0168682 5.25088e-16)
(0.00381684 0.0160836 2.23921e-16)
(0.00326576 0.0152741 5.0816e-17)
(0.00277745 0.0144361 -1.27234e-16)
(0.00235984 0.0137176 -8.6594e-16)
(0.00214121 0.0123724 3.84288e-16)
(0.00142091 0.0131441 3.97736e-16)
(0.0013329 0.0075669 5.4954e-16)
(-0.00132856 0.0190102 1.56906e-15)
(-0.186399 0.260383 -2.00109e-19)
(-0.152174 0.257483 1.40582e-18)
(-0.114594 0.244008 5.21961e-18)
(-0.0816404 0.231598 1.57009e-18)
(-0.052554 0.219603 -2.83803e-18)
(-0.0271793 0.208257 -1.10644e-18)
(-0.00522071 0.197479 -8.26278e-20)
(0.0136047 0.187283 -5.22775e-20)
(0.0295823 0.177632 -3.76491e-20)
(0.0429907 0.168513 -6.76641e-18)
(0.0541036 0.159918 8.00633e-18)
(0.0631709 0.151794 -5.79421e-18)
(0.0704381 0.144139 -1.42206e-17)
(0.0761274 0.136917 -8.53496e-18)
(0.0804442 0.130118 -3.23348e-18)
(0.0835771 0.123718 2.77928e-18)
(0.085693 0.117705 1.34827e-18)
(0.0869472 0.112069 -1.0143e-17)
(0.0874741 0.106802 -1.49002e-17)
(0.0873922 0.101887 -3.86738e-18)
(0.0868093 0.0973235 2.15173e-18)
(0.0858146 0.0930875 1.65334e-17)
(0.0844842 0.0891674 -2.27071e-17)
(0.082889 0.0855406 4.97911e-18)
(0.0810806 0.0821868 -1.87565e-17)
(0.0791085 0.0790803 9.59317e-18)
(0.0770121 0.0761995 2.8314e-17)
(0.0748238 0.073514 -2.19461e-17)
(0.0725621 0.0709972 -3.93925e-17)
(0.0702527 0.0686257 -1.14676e-17)
(0.0679181 0.0663879 8.39836e-17)
(0.0655803 0.064265 5.65873e-17)
(0.063229 0.0622309 4.73533e-17)
(0.0608894 0.0602847 4.8838e-19)
(0.058565 0.0584196 -4.92263e-17)
(0.0562666 0.0566181 -5.55258e-17)
(0.0540003 0.0548764 4.16778e-17)
(0.0517631 0.0531938 -1.78779e-17)
(0.0495845 0.0516131 -5.55791e-17)
(0.0474006 0.050074 4.35528e-17)
(0.0451077 0.0484973 -1.11361e-17)
(0.0430721 0.0470857 7.61475e-19)
(0.0409959 0.0456742 -3.43609e-17)
(0.0390035 0.0443441 2.52209e-18)
(0.0370552 0.0430291 -1.53758e-16)
(0.0351464 0.0417417 -9.9584e-17)
(0.0332765 0.0404816 -2.09003e-17)
(0.0314505 0.039227 -2.05539e-16)
(0.0296674 0.0379882 -1.61089e-16)
(0.0279336 0.0367711 -5.2505e-17)
(0.026254 0.035592 -1.4504e-16)
(0.0246249 0.0344528 1.07389e-16)
(0.0230162 0.0333287 -2.87047e-16)
(0.0215258 0.0323017 -3.88649e-17)
(0.02007 0.0312834 1.9352e-16)
(0.0186889 0.0303117 3.78088e-17)
(0.0173628 0.0293488 -9.37616e-17)
(0.0160841 0.0283815 8.38443e-16)
(0.0148515 0.0274109 4.98506e-17)
(0.0136501 0.0264221 -7.1863e-16)
(0.0125073 0.0254629 1.7675e-16)
(0.0114047 0.0245185 -6.03425e-16)
(0.010359 0.0236239 -3.37286e-17)
(0.00937152 0.0227738 7.0102e-17)
(0.00844285 0.0219595 -1.57515e-15)
(0.00758228 0.021194 3.93686e-17)
(0.00677185 0.020436 6.9764e-17)
(0.00596787 0.0196435 -2.25503e-16)
(0.00557997 0.0197826 2.94822e-16)
(0.00511055 0.0189693 -2.16278e-17)
(0.00459037 0.018182 9.6809e-17)
(0.00406879 0.0173676 -6.473e-16)
(0.00353953 0.0165506 -6.19121e-16)
(0.00301111 0.0157272 5.74282e-17)
(0.00250778 0.0148794 -4.46192e-17)
(0.0020554 0.0140172 1.1315e-16)
(0.00167622 0.0132484 -5.95228e-16)
(0.00148478 0.011989 7.77659e-17)
(0.000806526 0.0125515 -5.92068e-16)
(0.000846281 0.00739706 -6.98646e-17)
(-0.00187973 0.0182236 1.20149e-15)
(-0.287286 0.27499 1.74374e-18)
(-0.255194 0.271704 3.47498e-18)
(-0.214216 0.257209 -5.96609e-19)
(-0.177302 0.243792 1.66142e-18)
(-0.143875 0.230886 1.3219e-18)
(-0.113907 0.218672 -1.35942e-17)
(-0.0872169 0.20708 -8.10365e-18)
(-0.0636394 0.196086 -2.92492e-18)
(-0.0429639 0.185651 -1.09196e-18)
(-0.0249695 0.175778 3.29816e-18)
(-0.0094686 0.166425 -7.48873e-18)
(0.00379037 0.157565 1.0295e-17)
(0.0149987 0.149184 1.88157e-18)
(0.0243706 0.141244 6.20561e-18)
(0.0320991 0.133728 1.58295e-17)
(0.0383851 0.126616 1.41906e-17)
(0.0433875 0.119878 1.23577e-17)
(0.0472645 0.113502 4.94134e-18)
(0.0501854 0.107483 2.13598e-17)
(0.052257 0.101798 -1.03628e-17)
(0.0536222 0.0964523 -3.16436e-17)
(0.054373 0.0914284 -7.09e-18)
(0.0546119 0.0867231 -1.96009e-18)
(0.054428 0.082331 -9.15377e-18)
(0.0538921 0.0782342 -7.00008e-18)
(0.0530634 0.0744167 -2.36881e-17)
(0.0520049 0.0708707 -4.32957e-18)
(0.0507615 0.0675759 -1.38246e-18)
(0.0493781 0.0645072 2.53643e-17)
(0.0478825 0.0616404 -7.92794e-18)
(0.0463073 0.0589591 8.50815e-18)
(0.0446836 0.05645 2.70075e-17)
(0.0430215 0.0540802 2.17233e-17)
(0.0413415 0.0518496 5.86216e-17)
(0.0396649 0.0497488 4.9318e-18)
(0.0379951 0.0477537 -3.82866e-17)
(0.0363485 0.045867 -5.55564e-17)
(0.0347203 0.0440752 1.78466e-17)
(0.0331406 0.0424026 4.94494e-17)
(0.0315394 0.0407863 -3.20194e-17)
(0.0299395 0.0392307 5.44019e-17)
(0.0284754 0.0378016 -1.00836e-17)
(0.0270282 0.0364306 1.95021e-17)
(0.025625 0.035137 -1.12753e-16)
(0.024264 0.0338915 -3.14887e-17)
(0.0229453 0.0326982 2.97691e-17)
(0.0216669 0.0315427 -3.61764e-17)
(0.0204285 0.0304142 -4.28399e-17)
(0.0192307 0.0293185 6.67486e-17)
(0.0180718 0.0282524 4.3321e-18)
(0.0169564 0.0272289 1.26923e-16)
(0.0158701 0.0262395 2.13453e-16)
(0.0148106 0.0252849 2.79376e-17)
(0.0138236 0.0244041 6.21385e-17)
(0.0128759 0.02356 1.08978e-17)
(0.0119758 0.0227614 1.7272e-16)
(0.0111168 0.0219886 3.74803e-17)
(0.0102974 0.021235 -2.90938e-16)
(0.00950774 0.0204857 2.82646e-16)
(0.00873919 0.0197351 7.59778e-17)
(0.00800242 0.0190064 -5.09228e-17)
(0.00728793 0.018292 4.35943e-16)
(0.00660194 0.0176129 -1.34573e-16)
(0.00594874 0.0169694 -1.10006e-16)
(0.00533266 0.0163617 7.75097e-16)
(0.00476126 0.0158004 -6.05918e-17)
(0.00422621 0.0152569 -3.42967e-16)
(0.00369161 0.0146976 -3.5591e-18)
(0.00346947 0.0150805 -1.2563e-16)
(0.00318154 0.0144799 -3.26009e-17)
(0.00285246 0.0139164 -7.77385e-17)
(0.00252224 0.0133479 4.15207e-16)
(0.0021794 0.0127831 4.32131e-16)
(0.00182687 0.0122148 1.87533e-16)
(0.00148028 0.0116304 1.54584e-16)
(0.00115791 0.0110504 -1.08972e-16)
(0.000891812 0.010512 6.47497e-16)
(0.000772978 0.00972579 8.87357e-18)
(0.000225206 0.0101324 6.92003e-16)
(0.000394541 0.0063269 -3.69757e-16)
(-0.00214825 0.0157362 -1.94233e-15)
(-0.406142 0.312351 8.3454e-18)
(-0.379287 0.309682 -3.15426e-18)
(-0.336828 0.293971 -4.21028e-18)
(-0.297359 0.279187 7.43721e-19)
(-0.2605 0.264889 4.88683e-18)
(-0.226357 0.251287 6.65495e-18)
(-0.194947 0.23832 -3.58953e-18)
(-0.166218 0.226005 2.88678e-19)
(-0.140075 0.214279 7.98098e-18)
(-0.116483 0.203192 4.47511e-18)
(-0.0952871 0.192672 -3.80439e-18)
(-0.0763683 0.182704 -7.96972e-18)
(-0.0596061 0.17326 4.26193e-19)
(-0.0448365 0.164319 5.31764e-21)
(-0.0319116 0.155838 -7.15971e-19)
(-0.0206844 0.147805 1.32557e-18)
(-0.0110149 0.140171 9.41322e-18)
(-0.00273577 0.132919 4.87581e-18)
(0.00427009 0.126037 -1.0237e-17)
(0.0101446 0.119487 1.674e-17)
(0.0150114 0.113276 1.11891e-17)
(0.0189864 0.107379 -4.7076e-18)
(0.0221711 0.101784 1.37815e-18)
(0.0246729 0.096503 1.25074e-17)
(0.0265734 0.0915208 1.12788e-17)
(0.0279547 0.0868275 1.32126e-17)
(0.028897 0.0824273 -1.1033e-17)
(0.0294598 0.0783013 -2.0955e-19)
(0.0297041 0.0744386 1.45662e-17)
(0.0296767 0.070824 3.62981e-18)
(0.0294279 0.0674415 -2.13932e-17)
(0.0289971 0.0642696 -1.13905e-17)
(0.0284174 0.0612844 -6.0506e-18)
(0.027716 0.0584737 1.62332e-17)
(0.026924 0.055833 3.46542e-17)
(0.0260505 0.0533363 3.56658e-17)
(0.0251245 0.0509852 2.47362e-17)
(0.0241508 0.0487637 -1.81372e-17)
(0.0231744 0.0466912 -5.39737e-17)
(0.0221712 0.0447237 2.44287e-17)
(0.0211239 0.0428461 5.31029e-18)
(0.0201528 0.0411149 2.23225e-17)
(0.0191665 0.0394822 -4.42465e-17)
(0.0181938 0.0379462 8.18073e-17)
(0.0172432 0.0364859 -2.874e-17)
(0.0163134 0.0350953 9.62185e-17)
(0.0154075 0.0337579 3.46739e-17)
(0.014523 0.0324622 -5.86866e-17)
(0.0136637 0.0312079 4.60493e-17)
(0.0128267 0.0299894 1.05759e-16)
(0.012015 0.0288135 2.70069e-17)
(0.0112227 0.0276801 -3.70554e-17)
(0.0104403 0.0265787 2.00432e-16)
(0.00972116 0.0255581 4.37405e-17)
(0.00903195 0.0245876 -1.03546e-16)
(0.00837609 0.0236719 -2.60793e-16)
(0.00775319 0.0227976 -2.10303e-17)
(0.00715931 0.0219546 -1.75395e-17)
(0.00658481 0.0211275 -2.26062e-16)
(0.00601491 0.0202989 1.7968e-16)
(0.00546353 0.0194882 1.03598e-16)
(0.00491815 0.0186859 1.87042e-16)
(0.00438496 0.0179072 1.77649e-16)
(0.00387101 0.017157 -3.98828e-16)
(0.00338374 0.0164454 4.8675e-16)
(0.00293364 0.0157881 3.14525e-16)
(0.00251421 0.0151618 1.8249e-17)
(0.00209626 0.0145394 1.05821e-16)
(0.00192289 0.014898 -2.51582e-16)
(0.0017436 0.0142756 -5.40496e-17)
(0.00151972 0.0137017 -1.82022e-17)
(0.00129405 0.0131283 4.35991e-16)
(0.00105035 0.0125518 4.9734e-16)
(0.000788429 0.011962 4.37667e-16)
(0.000519442 0.0113484 1.9132e-16)
(0.000264114 0.0107387 9.55986e-17)
(6.45489e-05 0.0101382 -6.63579e-16)
(-6.32758e-07 0.00943128 1.49089e-16)
(-0.000448515 0.00963153 6.20304e-16)
(-0.000258365 0.00615265 -1.29402e-16)
(-0.00242853 0.0151558 -4.46577e-16)
(-0.475156 0.336 -2.3842e-18)
(-0.455339 0.333392 3.71303e-18)
(-0.41565 0.316777 1.74189e-18)
(-0.377837 0.301109 4.6651e-19)
(-0.341668 0.285981 4.99637e-19)
(-0.307392 0.27154 1.223e-18)
(-0.275046 0.257709 4.43608e-18)
(-0.244747 0.244548 1.32394e-20)
(-0.216502 0.231991 -6.13723e-18)
(-0.190315 0.220033 -2.01008e-18)
(-0.166203 0.208706 2.10258e-18)
(-0.144098 0.19795 -2.84561e-18)
(-0.123953 0.187761 -7.5361e-19)
(-0.105694 0.178108 -5.59428e-18)
(-0.0892305 0.168978 1.9888e-18)
(-0.0744775 0.160342 -1.35377e-18)
(-0.061311 0.152144 -3.58163e-18)
(-0.0496434 0.14439 1.37633e-18)
(-0.0393527 0.137027 3.19187e-18)
(-0.0303282 0.130034 -9.20011e-18)
(-0.0224684 0.123397 -7.63309e-18)
(-0.0156703 0.117088 -1.69243e-18)
(-0.0098262 0.111076 -8.47821e-19)
(-0.00484445 0.105374 -9.04051e-18)
(-0.000634913 0.0999614 -8.27035e-18)
(0.00289079 0.0948254 -7.75375e-18)
(0.00580976 0.0899709 2.25738e-17)
(0.00818999 0.0853846 -3.42363e-19)
(0.0101033 0.0810619 -2.13002e-17)
(0.0116074 0.0769919 2.47199e-18)
(0.0127568 0.0731639 7.82261e-18)
(0.0136015 0.0695627 2.13048e-18)
(0.0141851 0.0661619 -6.07769e-18)
(0.0145375 0.0629517 -2.97915e-17)
(0.0146997 0.0599276 -6.46165e-18)
(0.01469 0.0570567 1.4343e-17)
(0.0145454 0.05435 1.50839e-17)
(0.0142963 0.051789 4.15418e-18)
(0.0139836 0.0493876 -1.37316e-17)
(0.0136054 0.0471179 -4.09839e-17)
(0.0131427 0.0449623 4.23497e-18)
(0.0126636 0.0429571 -3.01603e-17)
(0.0121375 0.0410726 2.18969e-17)
(0.0115913 0.0393048 -1.84993e-17)
(0.011039 0.0376421 5.6585e-17)
(0.0104796 0.0360715 -7.72107e-17)
(0.00991953 0.0345764 3.36009e-17)
(0.00936106 0.0331494 4.29382e-17)
(0.00880823 0.0317755 -8.39385e-17)
(0.00826019 0.0304538 -7.45179e-17)
(0.00772203 0.029181 -4.72504e-17)
(0.00719466 0.027962 -5.55491e-17)
(0.00667475 0.0267852 -3.67022e-18)
(0.00619819 0.0256853 -1.25812e-16)
(0.0057414 0.0246449 7.83325e-17)
(0.00530451 0.0236665 1.33072e-16)
(0.00489085 0.0227412 -1.21072e-16)
(0.00449383 0.0218571 8.90884e-17)
(0.00410591 0.0210018 2.42407e-16)
(0.00371565 0.0201591 4.14971e-17)
(0.00333357 0.0193358 9.45516e-17)
(0.00294925 0.0185197 -1.65179e-16)
(0.00256625 0.0177186 -1.48862e-16)
(0.00219064 0.0169383 3.35375e-17)
(0.00182876 0.0161896 -5.07807e-16)
(0.00148829 0.015489 -2.92419e-16)
(0.00116341 0.0148172 3.41481e-16)
(0.000832184 0.0141561 -1.6557e-16)
(0.000667397 0.0145058 -1.70392e-16)
(0.000566598 0.013867 4.23526e-17)
(0.000416931 0.0132846 -1.58121e-16)
(0.000267444 0.0127132 -1.01459e-16)
(9.97407e-05 0.0121412 -3.18042e-16)
(-8.84551e-05 0.0115555 -1.80543e-17)
(-0.000288936 0.010945 2.3544e-17)
(-0.000480096 0.0103353 3.29034e-18)
(-0.000610689 0.00971002 1.0187e-15)
(-0.000645856 0.00907805 -3.65702e-16)
(-0.000940194 0.00910536 -3.96088e-16)
(-0.000898348 0.00590159 1.48795e-16)
(-0.00245534 0.0144709 -8.9334e-17)
(-0.507738 0.344795 8.70743e-19)
(-0.492651 0.327909 8.24842e-19)
(-0.495417 0.3428 4.7335e-20)
(-0.460952 0.32631 -5.26308e-19)
(-0.427247 0.310729 -1.75145e-18)
(-0.394447 0.295818 -1.69909e-18)
(-0.36262 0.281493 -2.40435e-18)
(-0.331986 0.26778 8.20987e-19)
(-0.30268 0.254651 2.69e-18)
(-0.274794 0.242073 4.13726e-18)
(-0.248371 0.230026 1.0274e-18)
(-0.22353 0.218537 -1.35834e-18)
(-0.200259 0.207567 2.83858e-18)
(-0.178601 0.197133 5.60293e-18)
(-0.158518 0.187197 8.41922e-18)
(-0.140015 0.177764 -3.52484e-18)
(-0.123048 0.168818 1.22302e-18)
(-0.107544 0.160305 -3.21158e-18)
(-0.09347 0.152246 -3.24097e-18)
(-0.0807397 0.144581 -4.43384e-19)
(-0.069281 0.137303 4.51451e-18)
(-0.0590218 0.130395 -7.33928e-19)
(-0.0498772 0.123816 5.07838e-18)
(-0.0417554 0.117556 5.36823e-18)
(-0.0345873 0.111591 -1.74823e-18)
(-0.0282846 0.105919 -8.76776e-18)
(-0.0227753 0.100513 -1.04118e-17)
(-0.0179871 0.0953766 -9.83738e-18)
(-0.0138446 0.0905032 1.33327e-17)
(-0.0102817 0.0858768 4.40133e-20)
(-0.00724099 0.0815018 -1.36102e-17)
(-0.00466422 0.0773672 5.1096e-18)
(-0.00249847 0.0734645 8.0854e-18)
(-0.000697476 0.0697693 4.09893e-18)
(0.000780692 0.0662731 -7.8364e-18)
(0.00197527 0.062971 -1.28937e-17)
(0.00292216 0.0598381 -7.5886e-18)
(0.00366696 0.0568725 -5.8114e-18)
(0.00424385 0.0540653 -6.1791e-18)
(0.00468649 0.05142 7.83405e-18)
(0.0049979 0.0489172 1.51736e-17)
(0.00516756 0.0465424 -5.59005e-18)
(0.00524552 0.0443157 -3.44185e-18)
(0.00523842 0.0422256 -5.3611e-18)
(0.00517401 0.0402666 2.63297e-18)
(0.00506213 0.0384254 -8.73611e-18)
(0.0049081 0.036698 3.2575e-17)
(0.00472306 0.0350661 4.49129e-17)
(0.00451224 0.0335197 2.22589e-17)
(0.0042808 0.0320415 5.7811e-17)
(0.00403179 0.0306271 -1.46407e-17)
(0.00377357 0.0292705 -3.9789e-17)
(0.00351274 0.0279752 6.90735e-17)
(0.00324992 0.026733 -9.01547e-17)
(0.00300599 0.0255672 9.72881e-17)
(0.00276646 0.0244667 -7.36095e-17)
(0.0025334 0.0234342 2.82959e-17)
(0.00231082 0.0224653 1.45577e-16)
(0.00209268 0.0215531 -4.58092e-17)
(0.00187478 0.0206835 -1.29546e-17)
(0.00164978 0.0198409 3.54492e-17)
(0.00142467 0.0190228 -2.68524e-16)
(0.00118982 0.0182152 4.06558e-17)
(0.000946693 0.0174193 8.84479e-17)
(0.000699658 0.0166359 -9.34456e-18)
(0.000451989 0.015873 4.84064e-17)
(0.000208661 0.0151487 -1.63908e-16)
(-3.54526e-05 0.0144453 -4.2207e-16)
(-0.000293139 0.013751 1.91334e-16)
(-0.00047109 0.0140882 1.2928e-16)
(-0.000506114 0.0134315 4.53457e-17)
(-0.000594433 0.0128334 7.02637e-17)
(-0.000680919 0.0122571 1.04722e-17)
(-0.000785658 0.0116872 5.84276e-17)
(-0.000909978 0.0111074 -6.44965e-17)
(-0.00104812 0.0105068 4.86807e-17)
(-0.0011757 0.00990547 -2.5325e-17)
(-0.00124045 0.00926773 -4.23339e-17)
(-0.0012312 0.00869479 6.43881e-16)
(-0.00142641 0.00857157 -4.66221e-16)
(-0.00142809 0.00560344 -4.32727e-16)