/*--------------------------------*- C++ -*----------------------------------*\
| =========                 |                                                 |
| \\      /  F ield         | OpenFOAM: The Open Source CFD Toolbox           |
|  \\    /   O peration     | Version:  2306                                  |
|   \\  /    A nd           | Website:  www.openfoam.com                      |
|    \\/     M anipulation  |                                                 |
\*---------------------------------------------------------------------------*/
FoamFile
{
    version     2.0;
    format      ascii;
    arch        "LSB;label=32;scalar=64";
    class       volScalarField;
    location    "125";
    object      nut;
}
// * * * * * * * * * * * * * * * * * * * * * * * * * * * * * * * * * * * * * //

dimensions      [0 2 -1 0 0 0 0];

internalField   nonuniform List<scalar> 
1340
(
6.1292e-06
6.10583e-06
6.11018e-06
6.11225e-06
6.13037e-06
6.1058e-06
6.11768e-06
6.11744e-06
6.11038e-06
6.11368e-06
6.13159e-06
6.10566e-06
6.1029e-06
6.10625e-06
6.11241e-06
6.11847e-06
6.11769e-06
6.11062e-06
6.11525e-06
6.13284e-06
6.10541e-06
6.09813e-06
6.10077e-06
6.10178e-06
6.10193e-06
6.10222e-06
6.10345e-06
6.10707e-06
6.11345e-06
6.11931e-06
6.11795e-06
6.11092e-06
6.11696e-06
6.13413e-06
6.10504e-06
6.08491e-06
6.08709e-06
6.08976e-06
6.09268e-06
6.09571e-06
6.0989e-06
6.10144e-06
6.10233e-06
6.1024e-06
6.1027e-06
6.10408e-06
6.10799e-06
6.11458e-06
6.12019e-06
6.11822e-06
6.11128e-06
6.11881e-06
6.13544e-06
6.10453e-06
6.08193e-06
6.08173e-06
6.08179e-06
6.08202e-06
6.08238e-06
6.08298e-06
6.08401e-06
6.08564e-06
6.08788e-06
6.09059e-06
6.09351e-06
6.09656e-06
6.09973e-06
6.10216e-06
6.10291e-06
6.10292e-06
6.10324e-06
6.1048e-06
6.10902e-06
6.11581e-06
6.1211e-06
6.11851e-06
6.11172e-06
6.12083e-06
6.13676e-06
6.10386e-06
6.10408e-06
6.1018e-06
6.09955e-06
6.09733e-06
6.09512e-06
6.09298e-06
6.09091e-06
6.08895e-06
6.08712e-06
6.0855e-06
6.08417e-06
6.08321e-06
6.08264e-06
6.08242e-06
6.08246e-06
6.08266e-06
6.08302e-06
6.08364e-06
6.08473e-06
6.08644e-06
6.08875e-06
6.09149e-06
6.09442e-06
6.09748e-06
6.10062e-06
6.10292e-06
6.10354e-06
6.10348e-06
6.10384e-06
6.10561e-06
6.11017e-06
6.11715e-06
6.12206e-06
6.11879e-06
6.11224e-06
6.12302e-06
6.13806e-06
6.10303e-06
4.8054e-10
0
0
5.53483e-20
9.79146e-09
2.56096e-06
7.74419e-06
6.23965e-06
6.14694e-06
6.24361e-06
6.1821e-06
6.19509e-06
6.18991e-06
6.18648e-06
6.18408e-06
6.1814e-06
6.17884e-06
6.17628e-06
6.17368e-06
6.17104e-06
6.16838e-06
6.1657e-06
6.16301e-06
6.1603e-06
6.15755e-06
6.15475e-06
6.1519e-06
6.14899e-06
6.14605e-06
6.14309e-06
6.14012e-06
6.13717e-06
6.13423e-06
6.13134e-06
6.1285e-06
6.12573e-06
6.12303e-06
6.12038e-06
6.11776e-06
6.11518e-06
6.11263e-06
6.11014e-06
6.10769e-06
6.10531e-06
6.10298e-06
6.10066e-06
6.09835e-06
6.09609e-06
6.09388e-06
6.09176e-06
6.08975e-06
6.08789e-06
6.08625e-06
6.08492e-06
6.08397e-06
6.08341e-06
6.08317e-06
6.08318e-06
6.08336e-06
6.08372e-06
6.08437e-06
6.08554e-06
6.08733e-06
6.0897e-06
6.09246e-06
6.09541e-06
6.09848e-06
6.10158e-06
6.10374e-06
6.10421e-06
6.10409e-06
6.10452e-06
6.10653e-06
6.11146e-06
6.11858e-06
6.12304e-06
6.11909e-06
6.11285e-06
6.12539e-06
6.13933e-06
6.10201e-06
0
0
1.38458e-13
1.04832e-11
2.79443e-06
6.9561e-06
6.63275e-06
6.11314e-06
6.24771e-06
6.21429e-06
6.20391e-06
6.20611e-06
6.20053e-06
6.19705e-06
6.19367e-06
6.19027e-06
6.18698e-06
6.18372e-06
6.1805e-06
6.17731e-06
6.17416e-06
6.17105e-06
6.16795e-06
6.16486e-06
6.16176e-06
6.15863e-06
6.15548e-06
6.1523e-06
6.14913e-06
6.14596e-06
6.14281e-06
6.1397e-06
6.13663e-06
6.13362e-06
6.13068e-06
6.12781e-06
6.125e-06
6.12225e-06
6.11953e-06
6.11682e-06
6.11417e-06
6.1116e-06
6.10912e-06
6.10667e-06
6.10424e-06
6.10183e-06
6.09944e-06
6.0971e-06
6.09483e-06
6.09266e-06
6.0906e-06
6.08871e-06
6.08705e-06
6.08573e-06
6.0848e-06
6.08424e-06
6.08398e-06
6.08396e-06
6.08412e-06
6.08448e-06
6.08518e-06
6.08643e-06
6.08831e-06
6.09074e-06
6.09353e-06
6.09648e-06
6.09956e-06
6.10261e-06
6.1046e-06
6.10492e-06
6.10477e-06
6.10528e-06
6.10758e-06
6.11289e-06
6.12013e-06
6.12406e-06
6.11939e-06
6.11357e-06
6.12795e-06
6.14053e-06
6.10079e-06
5.12888e-16
1.26869e-09
3.31029e-07
3.69245e-06
6.80093e-06
6.6137e-06
6.19463e-06
6.20855e-06
6.23462e-06
6.21255e-06
6.21449e-06
6.21189e-06
6.20786e-06
6.20451e-06
6.20095e-06
6.19734e-06
6.19373e-06
6.19013e-06
6.18656e-06
6.18304e-06
6.17957e-06
6.17614e-06
6.17273e-06
6.16934e-06
6.16593e-06
6.16252e-06
6.15911e-06
6.15571e-06
6.15233e-06
6.14897e-06
6.14566e-06
6.1424e-06
6.13919e-06
6.13606e-06
6.13301e-06
6.13003e-06
6.12712e-06
6.12425e-06
6.1214e-06
6.11856e-06
6.1158e-06
6.1132e-06
6.11068e-06
6.10813e-06
6.10557e-06
6.10306e-06
6.10059e-06
6.09818e-06
6.09585e-06
6.09362e-06
6.09152e-06
6.08959e-06
6.08792e-06
6.08662e-06
6.08571e-06
6.08514e-06
6.08485e-06
6.08481e-06
6.08495e-06
6.08532e-06
6.08609e-06
6.08743e-06
6.08939e-06
6.09188e-06
6.09469e-06
6.09766e-06
6.10074e-06
6.10371e-06
6.10551e-06
6.1057e-06
6.10551e-06
6.10614e-06
6.10877e-06
6.11448e-06
6.12178e-06
6.12509e-06
6.11969e-06
6.11441e-06
6.13071e-06
6.14163e-06
6.09936e-06
2.1179e-07
2.19394e-06
5.60272e-06
6.85727e-06
6.53097e-06
6.2111e-06
6.18722e-06
6.2179e-06
6.21124e-06
6.20982e-06
6.21202e-06
6.2106e-06
6.20882e-06
6.20664e-06
6.20396e-06
6.20095e-06
6.19771e-06
6.19432e-06
6.19085e-06
6.18735e-06
6.18383e-06
6.18029e-06
6.17675e-06
6.1732e-06
6.16963e-06
6.16605e-06
6.16248e-06
6.15893e-06
6.1554e-06
6.15191e-06
6.14847e-06
6.14509e-06
6.14177e-06
6.13854e-06
6.13538e-06
6.13231e-06
6.12928e-06
6.12628e-06
6.12328e-06
6.12032e-06
6.1175e-06
6.11489e-06
6.11229e-06
6.10959e-06
6.10691e-06
6.10432e-06
6.10176e-06
6.09928e-06
6.09688e-06
6.0946e-06
6.09245e-06
6.0905e-06
6.08883e-06
6.08756e-06
6.08667e-06
6.08608e-06
6.08578e-06
6.08571e-06
6.08583e-06
6.08623e-06
6.08707e-06
6.08851e-06
6.09055e-06
6.0931e-06
6.09594e-06
6.09892e-06
6.10199e-06
6.10486e-06
6.10647e-06
6.10651e-06
6.10631e-06
6.10711e-06
6.11011e-06
6.11623e-06
6.12353e-06
6.12613e-06
6.11998e-06
6.11537e-06
6.13366e-06
6.1426e-06
6.0977e-06
5.29812e-06
6.57152e-06
6.72294e-06
6.38855e-06
6.18651e-06
6.16537e-06
6.18578e-06
6.18972e-06
6.19008e-06
6.19506e-06
6.19832e-06
6.20003e-06
6.2011e-06
6.20122e-06
6.2005e-06
6.19909e-06
6.1971e-06
6.19468e-06
6.19193e-06
6.18894e-06
6.18579e-06
6.18251e-06
6.17913e-06
6.17568e-06
6.17218e-06
6.16865e-06
6.1651e-06
6.16155e-06
6.15801e-06
6.15449e-06
6.15101e-06
6.14758e-06
6.14421e-06
6.14093e-06
6.13771e-06
6.13455e-06
6.13141e-06
6.12828e-06
6.12516e-06
6.12214e-06
6.11932e-06
6.11667e-06
6.11394e-06
6.11108e-06
6.10831e-06
6.10563e-06
6.10299e-06
6.10044e-06
6.09798e-06
6.09564e-06
6.09346e-06
6.09149e-06
6.08984e-06
6.0886e-06
6.08772e-06
6.08711e-06
6.08678e-06
6.0867e-06
6.08682e-06
6.08725e-06
6.08818e-06
6.08972e-06
6.09186e-06
6.09446e-06
6.09732e-06
6.10031e-06
6.10336e-06
6.10611e-06
6.10749e-06
6.10739e-06
6.10722e-06
6.10821e-06
6.11164e-06
6.11818e-06
6.1254e-06
6.12719e-06
6.12028e-06
6.1165e-06
6.13681e-06
6.14337e-06
6.09574e-06
6.64419e-06
6.45822e-06
6.26881e-06
6.18309e-06
6.16827e-06
6.16984e-06
6.16669e-06
6.16416e-06
6.16631e-06
6.17011e-06
6.17435e-06
6.17884e-06
6.18298e-06
6.1865e-06
6.18914e-06
6.1908e-06
6.19151e-06
6.19133e-06
6.19037e-06
6.18876e-06
6.18663e-06
6.1841e-06
6.18127e-06
6.17822e-06
6.17502e-06
6.17172e-06
6.16834e-06
6.16491e-06
6.16146e-06
6.15799e-06
6.15453e-06
6.1511e-06
6.14771e-06
6.14436e-06
6.14104e-06
6.13774e-06
6.13444e-06
6.13115e-06
6.12795e-06
6.12492e-06
6.12207e-06
6.11925e-06
6.11628e-06
6.11326e-06
6.11038e-06
6.10757e-06
6.10482e-06
6.10217e-06
6.09962e-06
6.09721e-06
6.09498e-06
6.09301e-06
6.0914e-06
6.0902e-06
6.08931e-06
6.08867e-06
6.08832e-06
6.08819e-06
6.08831e-06
6.08879e-06
6.08982e-06
6.09148e-06
6.0937e-06
6.09634e-06
6.09921e-06
6.1022e-06
6.1052e-06
6.10774e-06
6.10883e-06
6.10858e-06
6.10845e-06
6.10974e-06
6.11369e-06
6.12068e-06
6.12767e-06
6.1284e-06
6.12068e-06
6.11813e-06
6.14041e-06
6.14401e-06
6.09352e-06
6.35075e-06
6.27276e-06
6.2378e-06
6.22404e-06
6.21026e-06
6.19446e-06
6.1805e-06
6.17036e-06
6.16322e-06
6.15839e-06
6.15592e-06
6.15577e-06
6.15781e-06
6.16119e-06
6.16524e-06
6.16946e-06
6.17324e-06
6.17642e-06
6.17874e-06
6.18008e-06
6.18054e-06
6.18015e-06
6.17903e-06
6.17733e-06
6.17517e-06
6.17267e-06
6.16991e-06
6.16698e-06
6.16393e-06
6.16079e-06
6.1576e-06
6.15437e-06
6.1511e-06
6.14781e-06
6.14447e-06
6.1411e-06
6.13774e-06
6.13443e-06
6.13127e-06
6.12825e-06
6.12527e-06
6.1222e-06
6.119e-06
6.11586e-06
6.11286e-06
6.10992e-06
6.10705e-06
6.1043e-06
6.10166e-06
6.09918e-06
6.09693e-06
6.09499e-06
6.09344e-06
6.09227e-06
6.09136e-06
6.0907e-06
6.0903e-06
6.09015e-06
6.09027e-06
6.09084e-06
6.092e-06
6.09378e-06
6.09608e-06
6.09876e-06
6.10162e-06
6.10458e-06
6.10748e-06
6.10973e-06
6.11046e-06
6.11006e-06
6.11004e-06
6.11174e-06
6.11635e-06
6.12377e-06
6.13032e-06
6.12968e-06
6.12116e-06
6.12049e-06
6.14452e-06
6.14431e-06
6.09081e-06
6.35251e-06
6.32747e-06
6.30467e-06
6.2818e-06
6.25832e-06
6.23636e-06
6.21703e-06
6.20026e-06
6.18583e-06
6.17377e-06
6.16416e-06
6.15696e-06
6.15202e-06
6.14917e-06
6.14824e-06
6.14908e-06
6.15157e-06
6.15504e-06
6.15886e-06
6.1626e-06
6.16576e-06
6.16821e-06
6.16979e-06
6.17046e-06
6.17031e-06
6.16944e-06
6.168e-06
6.16609e-06
6.16385e-06
6.16137e-06
6.1587e-06
6.15589e-06
6.15296e-06
6.1499e-06
6.14675e-06
6.14354e-06
6.14033e-06
6.1372e-06
6.13415e-06
6.13112e-06
6.12798e-06
6.12472e-06
6.12143e-06
6.11824e-06
6.11516e-06
6.11213e-06
6.10919e-06
6.10636e-06
6.10367e-06
6.10118e-06
6.09896e-06
6.09709e-06
6.09561e-06
6.09445e-06
6.09353e-06
6.09284e-06
6.09242e-06
6.09225e-06
6.09242e-06
6.0931e-06
6.09441e-06
6.0963e-06
6.09868e-06
6.10137e-06
6.10422e-06
6.10715e-06
6.10989e-06
6.1118e-06
6.11216e-06
6.11165e-06
6.11183e-06
6.11404e-06
6.11935e-06
6.12713e-06
6.13301e-06
6.13085e-06
6.12172e-06
6.12352e-06
6.14876e-06
6.14414e-06
6.0877e-06
6.40836e-06
6.42882e-06
6.38297e-06
6.35704e-06
6.33116e-06
6.30613e-06
6.2824e-06
6.2602e-06
6.23962e-06
6.22081e-06
6.20393e-06
6.1891e-06
6.17636e-06
6.16573e-06
6.1572e-06
6.15071e-06
6.14619e-06
6.14348e-06
6.14241e-06
6.14278e-06
6.14443e-06
6.1473e-06
6.15059e-06
6.15389e-06
6.15685e-06
6.15911e-06
6.16061e-06
6.16126e-06
6.16116e-06
6.16038e-06
6.15905e-06
6.15728e-06
6.15517e-06
6.1528e-06
6.15022e-06
6.1475e-06
6.1447e-06
6.14187e-06
6.13904e-06
6.13615e-06
6.13312e-06
6.12993e-06
6.12665e-06
6.12339e-06
6.12023e-06
6.11713e-06
6.11407e-06
6.1111e-06
6.10826e-06
6.10559e-06
6.10315e-06
6.10103e-06
6.09927e-06
6.09786e-06
6.09671e-06
6.09577e-06
6.09507e-06
6.09464e-06
6.09449e-06
6.09475e-06
6.09558e-06
6.09703e-06
6.09904e-06
6.10148e-06
6.10418e-06
6.10701e-06
6.10988e-06
6.11242e-06
6.11393e-06
6.1139e-06
6.11335e-06
6.11384e-06
6.11669e-06
6.12274e-06
6.13073e-06
6.1357e-06
6.13187e-06
6.12243e-06
6.12729e-06
6.15308e-06
6.14341e-06
6.08457e-06
6.43899e-06
6.45735e-06
6.4162e-06
6.39276e-06
6.3691e-06
6.34563e-06
6.32253e-06
6.30005e-06
6.27841e-06
6.25786e-06
6.23859e-06
6.22078e-06
6.20457e-06
6.19006e-06
6.17733e-06
6.16644e-06
6.15739e-06
6.15013e-06
6.14462e-06
6.14076e-06
6.13843e-06
6.13749e-06
6.13771e-06
6.13895e-06
6.14108e-06
6.14392e-06
6.14675e-06
6.14931e-06
6.15125e-06
6.15248e-06
6.15292e-06
6.15264e-06
6.15172e-06
6.15029e-06
6.1485e-06
6.14647e-06
6.14428e-06
6.14196e-06
6.13951e-06
6.13685e-06
6.13397e-06
6.13092e-06
6.1278e-06
6.12471e-06
6.12165e-06
6.1186e-06
6.1156e-06
6.11269e-06
6.10993e-06
6.10736e-06
6.10506e-06
6.1031e-06
6.10147e-06
6.10012e-06
6.09899e-06
6.09806e-06
6.09737e-06
6.09695e-06
6.09687e-06
6.09727e-06
6.09826e-06
6.09987e-06
6.10199e-06
6.10448e-06
6.10718e-06
6.10999e-06
6.11276e-06
6.11503e-06
6.11608e-06
6.11571e-06
6.11521e-06
6.11613e-06
6.11972e-06
6.12653e-06
6.13456e-06
6.13831e-06
6.13271e-06
6.12336e-06
6.13184e-06
6.15736e-06
6.14209e-06
6.08196e-06
6.44757e-06
6.46203e-06
6.43014e-06
6.41131e-06
6.39168e-06
6.3715e-06
6.35097e-06
6.33034e-06
6.30986e-06
6.28975e-06
6.27026e-06
6.25159e-06
6.23392e-06
6.21743e-06
6.20225e-06
6.18852e-06
6.1763e-06
6.16564e-06
6.15658e-06
6.14909e-06
6.14314e-06
6.13864e-06
6.13552e-06
6.13365e-06
6.13291e-06
6.13315e-06
6.13418e-06
6.13589e-06
6.13825e-06
6.14058e-06
6.14261e-06
6.14406e-06
6.14483e-06
6.14491e-06
6.1444e-06
6.1434e-06
6.14203e-06
6.14035e-06
6.13835e-06
6.13605e-06
6.1335e-06
6.13079e-06
6.12801e-06
6.12518e-06
6.12232e-06
6.11945e-06
6.11662e-06
6.11389e-06
6.11131e-06
6.10896e-06
6.10688e-06
6.10511e-06
6.10363e-06
6.10236e-06
6.10127e-06
6.10038e-06
6.09973e-06
6.09937e-06
6.09941e-06
6.09999e-06
6.10118e-06
6.10294e-06
6.10516e-06
6.10769e-06
6.11038e-06
6.11315e-06
6.11578e-06
6.11772e-06
6.11828e-06
6.1176e-06
6.11727e-06
6.11878e-06
6.12323e-06
6.13074e-06
6.13856e-06
6.14078e-06
6.13335e-06
6.12461e-06
6.13719e-06
6.16146e-06
6.14021e-06
6.08009e-06
6.43876e-06
6.44911e-06
6.42679e-06
6.41298e-06
6.39801e-06
6.38207e-06
6.36528e-06
6.34789e-06
6.33007e-06
6.31205e-06
6.29403e-06
6.27624e-06
6.25887e-06
6.24212e-06
6.22616e-06
6.21116e-06
6.19724e-06
6.18451e-06
6.17307e-06
6.16297e-06
6.15423e-06
6.14685e-06
6.14081e-06
6.13607e-06
6.13253e-06
6.13014e-06
6.12877e-06
6.1283e-06
6.12862e-06
6.12953e-06
6.13094e-06
6.13285e-06
6.13471e-06
6.13629e-06
6.13734e-06
6.13779e-06
6.13758e-06
6.13676e-06
6.13542e-06
6.13367e-06
6.13164e-06
6.12943e-06
6.12709e-06
6.12466e-06
6.12214e-06
6.11959e-06
6.11707e-06
6.11465e-06
6.11238e-06
6.11033e-06
6.10854e-06
6.107e-06
6.10567e-06
6.1045e-06
6.10348e-06
6.10266e-06
6.10208e-06
6.10184e-06
6.10206e-06
6.10286e-06
6.10425e-06
6.10617e-06
6.10848e-06
6.11104e-06
6.11373e-06
6.11645e-06
6.11888e-06
6.1204e-06
6.12045e-06
6.11953e-06
6.11952e-06
6.12178e-06
6.12718e-06
6.13533e-06
6.14264e-06
6.14299e-06
6.13377e-06
6.12624e-06
6.14329e-06
6.16524e-06
6.13772e-06
6.07884e-06
6.41971e-06
6.42707e-06
6.41184e-06
6.40216e-06
6.39131e-06
6.37938e-06
6.36643e-06
6.35262e-06
6.33807e-06
6.32294e-06
6.3074e-06
6.29163e-06
6.27581e-06
6.26013e-06
6.24475e-06
6.22985e-06
6.21559e-06
6.20212e-06
6.18955e-06
6.17799e-06
6.16753e-06
6.15821e-06
6.15008e-06
6.14313e-06
6.13735e-06
6.13269e-06
6.12911e-06
6.1265e-06
6.1248e-06
6.12389e-06
6.12368e-06
6.1241e-06
6.12502e-06
6.12638e-06
6.1281e-06
6.1296e-06
6.13062e-06
6.13097e-06
6.13064e-06
6.12973e-06
6.12841e-06
6.12681e-06
6.12501e-06
6.12307e-06
6.12104e-06
6.11897e-06
6.11693e-06
6.11496e-06
6.11313e-06
6.11149e-06
6.11004e-06
6.10877e-06
6.10764e-06
6.10662e-06
6.10573e-06
6.10504e-06
6.10462e-06
6.10459e-06
6.10506e-06
6.10612e-06
6.10774e-06
6.10982e-06
6.11221e-06
6.11479e-06
6.11746e-06
6.12007e-06
6.12221e-06
6.12324e-06
6.1228e-06
6.12184e-06
6.12238e-06
6.1256e-06
6.132e-06
6.14051e-06
6.1468e-06
6.14488e-06
6.13411e-06
6.12859e-06
6.15031e-06
6.16846e-06
6.13492e-06
6.07899e-06
6.40484e-06
6.41048e-06
6.39929e-06
6.3921e-06
6.38384e-06
6.37457e-06
6.36431e-06
6.35314e-06
6.34115e-06
6.32842e-06
6.3151e-06
6.30129e-06
6.28715e-06
6.27282e-06
6.25847e-06
6.24425e-06
6.23032e-06
6.21683e-06
6.20392e-06
6.19172e-06
6.18035e-06
6.16988e-06
6.16038e-06
6.15191e-06
6.14447e-06
6.13806e-06
6.13267e-06
6.12823e-06
6.12471e-06
6.12206e-06
6.12021e-06
6.11913e-06
6.11874e-06
6.11894e-06
6.11962e-06
6.1206e-06
6.12181e-06
6.123e-06
6.12386e-06
6.12421e-06
6.12406e-06
6.12344e-06
6.12242e-06
6.12112e-06
6.11963e-06
6.11807e-06
6.1165e-06
6.115e-06
6.11361e-06
6.11235e-06
6.11122e-06
6.11019e-06
6.10921e-06
6.10831e-06
6.10752e-06
6.10694e-06
6.10667e-06
6.10684e-06
6.10756e-06
6.10885e-06
6.11067e-06
6.11287e-06
6.11532e-06
6.11792e-06
6.1206e-06
6.12312e-06
6.12498e-06
6.1255e-06
6.12458e-06
6.12357e-06
6.12466e-06
6.12881e-06
6.13619e-06
6.14507e-06
6.15037e-06
6.14625e-06
6.13396e-06
6.13079e-06
6.15691e-06
6.17121e-06
6.13131e-06
6.07846e-06
6.36538e-06
6.3677e-06
6.36367e-06
6.36031e-06
6.35591e-06
6.35051e-06
6.34413e-06
6.33681e-06
6.32861e-06
6.3196e-06
6.30986e-06
6.29948e-06
6.28855e-06
6.27718e-06
6.26549e-06
6.25361e-06
6.24165e-06
6.22975e-06
6.21804e-06
6.20662e-06
6.19561e-06
6.1851e-06
6.17518e-06
6.16592e-06
6.15736e-06
6.14954e-06
6.14251e-06
6.13627e-06
6.13083e-06
6.12621e-06
6.1224e-06
6.11937e-06
6.11708e-06
6.11546e-06
6.11441e-06
6.11381e-06
6.11358e-06
6.11358e-06
6.11372e-06
6.11392e-06
6.1143e-06
6.11463e-06
6.11483e-06
6.1148e-06
6.11458e-06
6.11422e-06
6.11378e-06
6.11331e-06
6.11285e-06
6.11239e-06
6.11192e-06
6.11143e-06
6.11092e-06
6.11047e-06
6.11016e-06
6.11011e-06
6.11044e-06
6.11125e-06
6.11258e-06
6.11439e-06
6.11659e-06
6.11903e-06
6.12162e-06
6.12427e-06
6.12682e-06
6.12891e-06
6.12997e-06
6.12964e-06
6.12848e-06
6.12835e-06
6.13119e-06
6.13732e-06
6.14591e-06
6.1539e-06
6.15563e-06
6.14717e-06
6.13494e-06
6.14004e-06
6.1695e-06
6.17295e-06
6.12736e-06
6.08302e-06
)
;

boundaryField
{
    inlet
    {
        type            freestream;
        freestreamValue uniform 1e-05;
        value           uniform 1e-05;
    }
    outlet
    {
        type            freestream;
        freestreamValue uniform 1e-05;
        value           nonuniform List<scalar> 
82
(
6.36538e-06
6.36367e-06
6.3677e-06
6.36031e-06
6.35591e-06
6.35051e-06
6.34413e-06
6.33681e-06
6.32861e-06
6.3196e-06
6.30986e-06
6.29948e-06
6.28855e-06
6.27718e-06
6.26549e-06
6.25361e-06
6.24165e-06
6.22975e-06
6.21804e-06
6.20662e-06
6.19561e-06
6.1851e-06
6.17518e-06
6.16592e-06
6.15736e-06
6.14954e-06
6.14251e-06
6.13627e-06
6.13083e-06
6.12621e-06
6.1224e-06
6.11937e-06
6.11708e-06
6.11546e-06
6.11441e-06
6.11381e-06
6.11358e-06
6.11358e-06
6.11372e-06
6.11392e-06
6.1143e-06
6.11463e-06
6.11483e-06
6.1148e-06
6.11458e-06
6.11422e-06
6.11378e-06
6.11331e-06
6.11285e-06
6.11239e-06
6.11192e-06
6.11143e-06
6.11092e-06
6.11047e-06
6.11016e-06
6.11011e-06
6.11044e-06
6.11125e-06
6.11258e-06
6.11439e-06
6.11659e-06
6.11903e-06
6.12162e-06
6.12427e-06
6.12682e-06
6.12891e-06
6.12997e-06
6.12964e-06
6.12848e-06
6.12835e-06
6.13119e-06
6.13732e-06
6.14591e-06
6.1539e-06
6.15563e-06
6.14717e-06
6.13494e-06
6.14004e-06
6.1695e-06
6.17295e-06
6.12736e-06
6.08302e-06
)
;
    }
    walls
    {
        type            nutUSpaldingWallFunction;
        value           nonuniform List<scalar> 0();
    }
    frontAndBack
    {
        type            empty;
    }
    procBoundary3to2
    {
        type            processor;
        value           nonuniform List<scalar> 
88
(
6.12809e-06
6.10578e-06
6.11004e-06
6.11093e-06
6.11093e-06
6.11692e-06
6.1172e-06
6.1172e-06
6.10241e-06
6.10552e-06
6.11146e-06
6.11146e-06
6.09742e-06
6.10014e-06
6.10127e-06
6.1015e-06
6.1018e-06
6.1018e-06
6.08424e-06
6.08637e-06
6.089e-06
6.09191e-06
6.09494e-06
6.09494e-06
6.08128e-06
6.08108e-06
6.08117e-06
6.08142e-06
6.0818e-06
6.08237e-06
6.08335e-06
6.08335e-06
6.10289e-06
6.10069e-06
6.09851e-06
6.09636e-06
6.09422e-06
6.09213e-06
6.09012e-06
6.0882e-06
6.0864e-06
6.0848e-06
6.08347e-06
6.08251e-06
6.08251e-06
0.000172366
2.69229e-12
0
0
1.90494e-08
4.86583e-06
7.70438e-06
5.85326e-06
6.29026e-06
6.16687e-06
6.17728e-06
6.17927e-06
6.17481e-06
6.17388e-06
6.17218e-06
6.17055e-06
6.16884e-06
6.167e-06
6.16503e-06
6.16293e-06
6.16073e-06
6.15844e-06
6.1561e-06
6.15369e-06
6.1512e-06
6.14863e-06
6.14597e-06
6.14325e-06
6.14048e-06
6.13768e-06
6.13487e-06
6.13206e-06
6.12927e-06
6.12652e-06
6.12384e-06
6.12121e-06
6.11865e-06
6.11612e-06
6.11363e-06
6.11117e-06
6.10876e-06
6.1064e-06
6.1064e-06
)
;
    }
    procBoundary3to6
    {
        type            processor;
        value           uniform 0.000446933;
    }
    procBoundary3to7
    {
        type            processor;
        value           nonuniform List<scalar> 
16
(
0.000169109
0
0
1.01771e-09
2.4384e-06
6.69033e-06
6.51397e-06
6.38922e-06
6.38922e-06
6.44872e-06
6.47361e-06
6.47411e-06
6.45674e-06
6.4317e-06
6.41341e-06
6.36742e-06
)
;
    }
}


// ************************************************************************* //
