/*--------------------------------*- C++ -*----------------------------------*\
| =========                 |                                                 |
| \\      /  F ield         | OpenFOAM: The Open Source CFD Toolbox           |
|  \\    /   O peration     | Version:  2306                                  |
|   \\  /    A nd           | Website:  www.openfoam.com                      |
|    \\/     M anipulation  |                                                 |
\*---------------------------------------------------------------------------*/
FoamFile
{
    version     2.0;
    format      ascii;
    arch        "LSB;label=32;scalar=64";
    class       volScalarField;
    location    "125";
    object      turbulenceProperties:k;
}
// * * * * * * * * * * * * * * * * * * * * * * * * * * * * * * * * * * * * * //

dimensions      [0 2 -2 0 0 0 0];

internalField   nonuniform List<scalar> 
1340
(
5.36591e-07
1.15603e-06
1.33685e-07
5.55572e-07
5.33304e-07
1.15383e-06
2.1846e-07
2.85086e-07
1.35761e-07
5.55694e-07
5.32419e-07
1.15085e-06
3.31209e-07
2.98805e-07
2.82379e-07
2.26994e-07
2.90806e-07
1.38981e-07
5.55701e-07
5.33038e-07
1.1475e-06
4.77054e-07
4.42788e-07
4.14275e-07
3.87414e-07
3.59492e-07
3.33527e-07
3.02557e-07
2.87218e-07
2.35453e-07
2.95887e-07
1.42776e-07
5.55381e-07
5.34486e-07
1.14418e-06
6.8641e-07
6.40394e-07
5.95523e-07
5.52989e-07
5.11061e-07
4.72826e-07
4.40323e-07
4.13307e-07
3.87537e-07
3.60423e-07
3.35435e-07
3.06109e-07
2.91925e-07
2.43785e-07
3.00226e-07
1.4678e-07
5.5462e-07
5.36303e-07
1.14096e-06
1.0048e-06
9.5386e-07
9.0383e-07
8.54839e-07
8.06731e-07
7.60106e-07
7.14586e-07
6.69863e-07
6.2628e-07
5.84052e-07
5.44084e-07
5.04144e-07
4.67843e-07
4.37416e-07
4.11833e-07
3.87071e-07
3.60994e-07
3.37151e-07
3.09509e-07
2.96469e-07
2.51933e-07
3.03782e-07
1.50844e-07
5.53333e-07
5.38157e-07
1.13768e-06
1.58819e-06
1.53314e-06
1.47902e-06
1.42495e-06
1.37126e-06
1.31801e-06
1.26539e-06
1.21329e-06
1.16196e-06
1.11158e-06
1.0626e-06
1.01436e-06
9.66101e-07
9.18553e-07
8.71938e-07
8.25941e-07
7.80902e-07
7.37294e-07
6.94332e-07
6.52071e-07
6.11457e-07
5.71894e-07
5.34358e-07
4.96558e-07
4.62564e-07
4.34057e-07
4.09892e-07
3.86203e-07
3.61267e-07
3.3853e-07
3.12709e-07
3.00838e-07
2.59915e-07
3.06445e-07
1.54893e-07
5.51546e-07
5.39603e-07
1.13459e-06
5.5015e-08
0
0
5.34693e-13
2.15908e-07
3.39167e-06
5.74283e-06
4.90134e-06
4.65111e-06
4.48758e-06
4.27695e-06
4.10643e-06
3.94091e-06
3.78695e-06
3.64374e-06
3.51002e-06
3.38467e-06
3.26747e-06
3.15746e-06
3.05421e-06
2.95682e-06
2.86497e-06
2.77797e-06
2.69558e-06
2.61704e-06
2.54186e-06
2.46954e-06
2.40005e-06
2.33282e-06
2.26775e-06
2.20461e-06
2.1434e-06
2.08379e-06
2.02567e-06
1.96905e-06
1.91382e-06
1.85977e-06
1.80682e-06
1.75419e-06
1.70091e-06
1.64954e-06
1.60059e-06
1.54939e-06
1.49917e-06
1.45083e-06
1.40054e-06
1.35015e-06
1.30037e-06
1.25105e-06
1.20239e-06
1.15434e-06
1.10687e-06
1.06023e-06
1.01551e-06
9.7099e-07
9.25823e-07
8.81967e-07
8.3878e-07
7.96037e-07
7.54132e-07
7.13304e-07
6.73069e-07
6.34052e-07
5.96165e-07
5.59204e-07
5.24119e-07
4.88561e-07
4.56756e-07
4.30145e-07
4.07352e-07
3.8473e-07
3.6106e-07
3.39519e-07
3.15693e-07
3.04992e-07
2.6767e-07
3.08263e-07
1.58865e-07
5.49031e-07
5.40417e-07
1.13189e-06
0
0
7.70882e-10
6.60993e-09
3.38107e-06
5.25975e-06
4.96391e-06
4.59323e-06
4.47828e-06
4.2996e-06
4.13349e-06
3.97666e-06
3.82297e-06
3.67665e-06
3.53739e-06
3.40529e-06
3.27995e-06
3.16157e-06
3.04972e-06
2.94413e-06
2.84431e-06
2.75003e-06
2.66077e-06
2.57629e-06
2.49589e-06
2.41922e-06
2.34604e-06
2.27607e-06
2.20889e-06
2.14436e-06
2.08229e-06
2.02256e-06
1.96478e-06
1.90882e-06
1.8547e-06
1.80213e-06
1.75106e-06
1.70133e-06
1.65201e-06
1.6015e-06
1.55109e-06
1.5065e-06
1.46412e-06
1.41589e-06
1.36766e-06
1.32092e-06
1.27491e-06
1.22925e-06
1.18394e-06
1.1392e-06
1.09512e-06
1.05143e-06
1.0086e-06
9.67405e-07
9.26552e-07
8.85849e-07
8.45378e-07
8.05461e-07
7.65934e-07
7.26992e-07
6.89007e-07
6.51721e-07
6.1564e-07
5.80361e-07
5.46014e-07
5.13326e-07
4.80038e-07
4.5039e-07
4.25629e-07
4.04135e-07
3.82704e-07
3.60313e-07
3.40036e-07
3.18402e-07
3.0895e-07
2.75166e-07
3.09161e-07
1.62632e-07
5.46051e-07
5.402e-07
1.12992e-06
3.15347e-11
5.43089e-08
9.2185e-07
3.19524e-06
4.42228e-06
4.35151e-06
4.16666e-06
4.10799e-06
4.03397e-06
3.92995e-06
3.82447e-06
3.71135e-06
3.59465e-06
3.47723e-06
3.36055e-06
3.24571e-06
3.13375e-06
3.02541e-06
2.92116e-06
2.82088e-06
2.72493e-06
2.63336e-06
2.54592e-06
2.46235e-06
2.38246e-06
2.30624e-06
2.23332e-06
2.16361e-06
2.0968e-06
2.03284e-06
1.9715e-06
1.91269e-06
1.85601e-06
1.80143e-06
1.7489e-06
1.69812e-06
1.64891e-06
1.60112e-06
1.55389e-06
1.50554e-06
1.45769e-06
1.41678e-06
1.37781e-06
1.33317e-06
1.28737e-06
1.24454e-06
1.20233e-06
1.16012e-06
1.11835e-06
1.07714e-06
1.03663e-06
9.96482e-07
9.57218e-07
9.19551e-07
8.82455e-07
8.45276e-07
8.08038e-07
7.71335e-07
7.34874e-07
6.98869e-07
6.63782e-07
6.29523e-07
5.96305e-07
5.63719e-07
5.32024e-07
5.01755e-07
4.70751e-07
4.43284e-07
4.20349e-07
4.00134e-07
3.79905e-07
3.58851e-07
3.39993e-07
3.2074e-07
3.12573e-07
2.82154e-07
3.09146e-07
1.66111e-07
5.41942e-07
5.39354e-07
1.12903e-06
3.24006e-07
1.26509e-06
2.40506e-06
2.96765e-06
3.11558e-06
3.1922e-06
3.29148e-06
3.36288e-06
3.38806e-06
3.38558e-06
3.36074e-06
3.31645e-06
3.25801e-06
3.18899e-06
3.11231e-06
3.03043e-06
2.94544e-06
2.85898e-06
2.77222e-06
2.68595e-06
2.60113e-06
2.51825e-06
2.43742e-06
2.35892e-06
2.28302e-06
2.20981e-06
2.13916e-06
2.07127e-06
2.00591e-06
1.94313e-06
1.88275e-06
1.8248e-06
1.76895e-06
1.71527e-06
1.6637e-06
1.61393e-06
1.56563e-06
1.51858e-06
1.47216e-06
1.42553e-06
1.38066e-06
1.34242e-06
1.30443e-06
1.26084e-06
1.21777e-06
1.17781e-06
1.13794e-06
1.09827e-06
1.05925e-06
1.02087e-06
9.83242e-07
9.46105e-07
9.09971e-07
8.7548e-07
8.41635e-07
8.07405e-07
7.73057e-07
7.39223e-07
7.05476e-07
6.72164e-07
6.39788e-07
6.08337e-07
5.77755e-07
5.47743e-07
5.18565e-07
4.90586e-07
4.61703e-07
4.36389e-07
4.15084e-07
3.96002e-07
3.76967e-07
3.57241e-07
3.39837e-07
3.23084e-07
3.16278e-07
2.88957e-07
3.08516e-07
1.68795e-07
5.36976e-07
5.36669e-07
1.13057e-06
5.15809e-07
6.02034e-07
8.81589e-07
1.27617e-06
1.62992e-06
1.93766e-06
2.1907e-06
2.38592e-06
2.53187e-06
2.63694e-06
2.70604e-06
2.74496e-06
2.75897e-06
2.75252e-06
2.72957e-06
2.6937e-06
2.64771e-06
2.59403e-06
2.53476e-06
2.47161e-06
2.40601e-06
2.33891e-06
2.27115e-06
2.20361e-06
2.13682e-06
2.07106e-06
2.00683e-06
1.94431e-06
1.88353e-06
1.82455e-06
1.76755e-06
1.71262e-06
1.65955e-06
1.60847e-06
1.55924e-06
1.51175e-06
1.4652e-06
1.41961e-06
1.37502e-06
1.3317e-06
1.29114e-06
1.25531e-06
1.21787e-06
1.17611e-06
1.1366e-06
1.0994e-06
1.06209e-06
1.02548e-06
9.89545e-07
9.54354e-07
9.20001e-07
8.86292e-07
8.5383e-07
8.22975e-07
7.92593e-07
7.61642e-07
7.30654e-07
7.00062e-07
6.69496e-07
6.39407e-07
6.10225e-07
5.82039e-07
5.54513e-07
5.27507e-07
5.0121e-07
4.75892e-07
4.49463e-07
4.26569e-07
4.07027e-07
3.89257e-07
3.71673e-07
3.53465e-07
3.37791e-07
3.23709e-07
3.18243e-07
2.9364e-07
3.05938e-07
1.72721e-07
5.29251e-07
5.3662e-07
1.13237e-06
2.56343e-06
2.22164e-06
1.45606e-06
8.41994e-07
4.57292e-07
5.19177e-07
8.25966e-07
1.13216e-06
1.39716e-06
1.61644e-06
1.79315e-06
1.93051e-06
2.03396e-06
2.10755e-06
2.15578e-06
2.18251e-06
2.19128e-06
2.1852e-06
2.16714e-06
2.13947e-06
2.10431e-06
2.06323e-06
2.01789e-06
1.96964e-06
1.91933e-06
1.86778e-06
1.81588e-06
1.76394e-06
1.71249e-06
1.66166e-06
1.61202e-06
1.56371e-06
1.51664e-06
1.47083e-06
1.42647e-06
1.3831e-06
1.34021e-06
1.29845e-06
1.25858e-06
1.22105e-06
1.18573e-06
1.15205e-06
1.11571e-06
1.07783e-06
1.04289e-06
1.00905e-06
9.75484e-07
9.42756e-07
9.10583e-07
8.79256e-07
8.48827e-07
8.19162e-07
7.91032e-07
7.64161e-07
7.37386e-07
7.10048e-07
6.82849e-07
6.55835e-07
6.28898e-07
6.0252e-07
5.77008e-07
5.52413e-07
5.28292e-07
5.04639e-07
4.8157e-07
4.59174e-07
4.35585e-07
4.15533e-07
3.98029e-07
3.81632e-07
3.6575e-07
3.49412e-07
3.35877e-07
3.24864e-07
3.20561e-07
2.99133e-07
3.01324e-07
1.82223e-07
5.15415e-07
5.29959e-07
1.09575e-06
4.74077e-06
4.45476e-06
3.62571e-06
2.86451e-06
2.19194e-06
1.59529e-06
1.08028e-06
6.61395e-07
4.07051e-07
4.53481e-07
6.60955e-07
8.79908e-07
1.07472e-06
1.23859e-06
1.37257e-06
1.47876e-06
1.56035e-06
1.62005e-06
1.66118e-06
1.68606e-06
1.69747e-06
1.69741e-06
1.68816e-06
1.67143e-06
1.64853e-06
1.62086e-06
1.58966e-06
1.55573e-06
1.52007e-06
1.48304e-06
1.44546e-06
1.40766e-06
1.36985e-06
1.33195e-06
1.29454e-06
1.25701e-06
1.21997e-06
1.18433e-06
1.15099e-06
1.11938e-06
1.08794e-06
1.05551e-06
1.02153e-06
9.88434e-07
9.57457e-07
9.26931e-07
8.96987e-07
8.67679e-07
8.38996e-07
8.1115e-07
7.84294e-07
7.58472e-07
7.34082e-07
7.10504e-07
6.86689e-07
6.62454e-07
6.38475e-07
6.14595e-07
5.9093e-07
5.67925e-07
5.45827e-07
5.24503e-07
5.03625e-07
4.83145e-07
4.63138e-07
4.43572e-07
4.22937e-07
4.0579e-07
3.90099e-07
3.74948e-07
3.60838e-07
3.46648e-07
3.3575e-07
3.28334e-07
3.25342e-07
3.06704e-07
2.96771e-07
1.92552e-07
5.08241e-07
5.23877e-07
1.09619e-06
6.30134e-06
6.12689e-06
5.31965e-06
4.52148e-06
3.7991e-06
3.13448e-06
2.52976e-06
1.98646e-06
1.50371e-06
1.07984e-06
7.25598e-07
4.64376e-07
3.69127e-07
4.58137e-07
6.13934e-07
7.70337e-07
9.08831e-07
1.02592e-06
1.12197e-06
1.19836e-06
1.25712e-06
1.30034e-06
1.33003e-06
1.348e-06
1.35602e-06
1.35577e-06
1.34869e-06
1.33595e-06
1.31876e-06
1.29799e-06
1.27449e-06
1.24884e-06
1.22148e-06
1.19271e-06
1.16313e-06
1.13286e-06
1.10296e-06
1.07417e-06
1.04673e-06
1.01925e-06
9.90337e-07
9.59969e-07
9.29696e-07
9.009e-07
8.73154e-07
8.45749e-07
8.18906e-07
7.92683e-07
7.67126e-07
7.42484e-07
7.1895e-07
6.96689e-07
6.7546e-07
6.54692e-07
6.33529e-07
6.12195e-07
5.91209e-07
5.70315e-07
5.49883e-07
5.30258e-07
5.11549e-07
4.93586e-07
4.7605e-07
4.588e-07
4.41989e-07
4.2547e-07
4.08015e-07
3.93855e-07
3.7984e-07
3.66074e-07
3.54146e-07
3.42541e-07
3.34818e-07
3.31213e-07
3.29749e-07
3.12999e-07
2.92524e-07
2.02063e-07
5.05765e-07
5.07614e-07
1.0984e-06
7.3753e-06
6.53007e-06
7.15174e-06
6.46125e-06
5.69034e-06
4.99494e-06
4.33002e-06
3.71354e-06
3.14132e-06
2.61711e-06
2.13704e-06
1.70515e-06
1.31974e-06
9.83359e-07
6.98831e-07
4.832e-07
3.73109e-07
3.90838e-07
4.87019e-07
6.01372e-07
7.09607e-07
8.04842e-07
8.84982e-07
9.50348e-07
1.00214e-06
1.04144e-06
1.06992e-06
1.08877e-06
1.09941e-06
1.10311e-06
1.10087e-06
1.09362e-06
1.08222e-06
1.06732e-06
1.04962e-06
1.02996e-06
1.00893e-06
9.87475e-07
9.6598e-07
9.43895e-07
9.20275e-07
8.94629e-07
8.68128e-07
8.42322e-07
8.17344e-07
7.92734e-07
7.68312e-07
7.44326e-07
7.20985e-07
6.98324e-07
6.7667e-07
6.56247e-07
6.37008e-07
6.18398e-07
5.99908e-07
5.8108e-07
5.62326e-07
5.43932e-07
5.2575e-07
5.08279e-07
4.91788e-07
4.76222e-07
4.61402e-07
4.46973e-07
4.32798e-07
4.19058e-07
4.05556e-07
3.9123e-07
3.79876e-07
3.67374e-07
3.55122e-07
3.45702e-07
3.36986e-07
3.32871e-07
3.33092e-07
3.33106e-07
3.17166e-07
2.87964e-07
2.12826e-07
5.05692e-07
4.87339e-07
1.10023e-06
7.7278e-06
6.65815e-06
7.64037e-06
7.05629e-06
6.37442e-06
5.74565e-06
5.13306e-06
4.55119e-06
3.99834e-06
3.47969e-06
2.99439e-06
2.54419e-06
2.13089e-06
1.75306e-06
1.41315e-06
1.10946e-06
8.45925e-07
6.24409e-07
4.58654e-07
3.68158e-07
3.65708e-07
4.2414e-07
5.04202e-07
5.85576e-07
6.59342e-07
7.2297e-07
7.75893e-07
8.18405e-07
8.51464e-07
8.75829e-07
8.92443e-07
9.02283e-07
9.06166e-07
9.05113e-07
9.00023e-07
8.91784e-07
8.81228e-07
8.68866e-07
8.54677e-07
8.38274e-07
8.19447e-07
7.98723e-07
7.77438e-07
7.56384e-07
7.35377e-07
7.14173e-07
6.93012e-07
6.72194e-07
6.51923e-07
6.32385e-07
6.13829e-07
5.96414e-07
5.79837e-07
5.63464e-07
5.46998e-07
5.30345e-07
5.13863e-07
4.97768e-07
4.82118e-07
4.67427e-07
4.53828e-07
4.41179e-07
4.29252e-07
4.17707e-07
4.06415e-07
3.9558e-07
3.84996e-07
3.73654e-07
3.6487e-07
3.53721e-07
3.43096e-07
3.36362e-07
3.30878e-07
3.30632e-07
3.34521e-07
3.35641e-07
3.19593e-07
2.83891e-07
2.27289e-07
5.08141e-07
4.64319e-07
1.10266e-06
7.53911e-06
6.41872e-06
7.56794e-06
7.12096e-06
6.56297e-06
6.03603e-06
5.51333e-06
5.00277e-06
4.50934e-06
4.03464e-06
3.58075e-06
3.15069e-06
2.7468e-06
2.36823e-06
2.0186e-06
1.69668e-06
1.40356e-06
1.13995e-06
9.06597e-07
7.06281e-07
5.42008e-07
4.23533e-07
3.61875e-07
3.58802e-07
3.96231e-07
4.5153e-07
5.09584e-07
5.63778e-07
6.11496e-07
6.5136e-07
6.83527e-07
7.08301e-07
7.26407e-07
7.38749e-07
7.46213e-07
7.49501e-07
7.49259e-07
7.45675e-07
7.3875e-07
7.28616e-07
7.15738e-07
7.01043e-07
6.85471e-07
6.69298e-07
6.52457e-07
6.35073e-07
6.17543e-07
6.00185e-07
5.83219e-07
5.66936e-07
5.51467e-07
5.36871e-07
5.22656e-07
5.08359e-07
4.93904e-07
4.79376e-07
4.65111e-07
4.51329e-07
4.38249e-07
4.26289e-07
4.15467e-07
4.05578e-07
3.96406e-07
3.87565e-07
3.79017e-07
3.71003e-07
3.63227e-07
3.54702e-07
3.48274e-07
3.38414e-07
3.29548e-07
3.25827e-07
3.23856e-07
3.27554e-07
3.34574e-07
3.35978e-07
3.18635e-07
2.78893e-07
2.44064e-07
5.12835e-07
4.36744e-07
1.10795e-06
7.01182e-06
5.91622e-06
7.10683e-06
6.7891e-06
6.35863e-06
5.94787e-06
5.52956e-06
5.11212e-06
4.70057e-06
4.29523e-06
3.90004e-06
3.51751e-06
3.15016e-06
2.79904e-06
2.46657e-06
2.15418e-06
1.86201e-06
1.59206e-06
1.34404e-06
1.11898e-06
9.17134e-07
7.40223e-07
5.90599e-07
4.71018e-07
3.87356e-07
3.4601e-07
3.4253e-07
3.66092e-07
4.02633e-07
4.42425e-07
4.80428e-07
5.14224e-07
5.42963e-07
5.66668e-07
5.85451e-07
5.99486e-07
6.09042e-07
6.14112e-07
6.14977e-07
6.12144e-07
6.06428e-07
5.98613e-07
5.89192e-07
5.78401e-07
5.66378e-07
5.53508e-07
5.40191e-07
5.26763e-07
5.13533e-07
5.00745e-07
4.88488e-07
4.7664e-07
4.64747e-07
4.52609e-07
4.40279e-07
4.27992e-07
4.16063e-07
4.04741e-07
3.94355e-07
3.85206e-07
3.77205e-07
3.70123e-07
3.63715e-07
3.57622e-07
3.5193e-07
3.46857e-07
3.41958e-07
3.36235e-07
3.32128e-07
3.23596e-07
3.16635e-07
3.16036e-07
3.17577e-07
3.24991e-07
3.34637e-07
3.35776e-07
3.1735e-07
2.78582e-07
2.70122e-07
5.2383e-07
4.10008e-07
1.12324e-06
6.23581e-06
5.25397e-06
6.3581e-06
6.13849e-06
5.8134e-06
5.50305e-06
5.18101e-06
4.85569e-06
4.52874e-06
4.20153e-06
3.87679e-06
3.55722e-06
3.24423e-06
2.94002e-06
2.64617e-06
2.36479e-06
2.09684e-06
1.84389e-06
1.60643e-06
1.38514e-06
1.1816e-06
9.95173e-07
8.27803e-07
6.79134e-07
5.50934e-07
4.46249e-07
3.67328e-07
3.18157e-07
2.98904e-07
3.04439e-07
3.25134e-07
3.52531e-07
3.81436e-07
4.08722e-07
4.32809e-07
4.52813e-07
4.68336e-07
4.79313e-07
4.86049e-07
4.89199e-07
4.89469e-07
4.87305e-07
4.83058e-07
4.77032e-07
4.69511e-07
4.60977e-07
4.51792e-07
4.42291e-07
4.32782e-07
4.2344e-07
4.14284e-07
4.05122e-07
3.95702e-07
3.86017e-07
3.76215e-07
3.66635e-07
3.57533e-07
3.49255e-07
3.42059e-07
3.36149e-07
3.31296e-07
3.27291e-07
3.23838e-07
3.20698e-07
3.18008e-07
3.15891e-07
3.13744e-07
3.10526e-07
3.08477e-07
3.01279e-07
2.96582e-07
2.99644e-07
3.05136e-07
3.16171e-07
3.26933e-07
3.25115e-07
3.02861e-07
2.66313e-07
2.84497e-07
5.27416e-07
3.61866e-07
1.14761e-06
5.73773e-06
4.82549e-06
5.86181e-06
5.69096e-06
5.42326e-06
5.17033e-06
4.90575e-06
4.63945e-06
4.36984e-06
4.09726e-06
3.8256e-06
3.55513e-06
3.28809e-06
3.02505e-06
2.76786e-06
2.51891e-06
2.27833e-06
2.04833e-06
1.82924e-06
1.62213e-06
1.42933e-06
1.24918e-06
1.08446e-06
9.34817e-07
8.01152e-07
6.84185e-07
5.84846e-07
5.04319e-07
4.42885e-07
4.01467e-07
3.78022e-07
3.69609e-07
3.72362e-07
3.81391e-07
3.93359e-07
4.05435e-07
4.15974e-07
4.24215e-07
4.29797e-07
4.32962e-07
4.33744e-07
4.32328e-07
4.28924e-07
4.2381e-07
4.17312e-07
4.09803e-07
4.01663e-07
3.93142e-07
3.84569e-07
3.76032e-07
3.67534e-07
3.58933e-07
3.50148e-07
3.41305e-07
3.32671e-07
3.2459e-07
3.17359e-07
3.11331e-07
3.06691e-07
3.03472e-07
3.01386e-07
3.00149e-07
2.99489e-07
2.99211e-07
2.9949e-07
3.00327e-07
3.0099e-07
3.00447e-07
3.00959e-07
2.95328e-07
2.92223e-07
2.97449e-07
3.04886e-07
3.17317e-07
3.28209e-07
3.25583e-07
3.05799e-07
2.84037e-07
3.35549e-07
5.50879e-07
3.52641e-07
1.25044e-06
4.64921e-06
3.87982e-06
4.79102e-06
4.69944e-06
4.52741e-06
4.36174e-06
4.18398e-06
4.00128e-06
3.81246e-06
3.61874e-06
3.42304e-06
3.22476e-06
3.02636e-06
2.82785e-06
2.63131e-06
2.43782e-06
2.24775e-06
2.06299e-06
1.88365e-06
1.71126e-06
1.54674e-06
1.38948e-06
1.24187e-06
1.10308e-06
9.74063e-07
8.54815e-07
7.46073e-07
6.47806e-07
5.60263e-07
4.8439e-07
4.19756e-07
3.67427e-07
3.27251e-07
2.98608e-07
2.8036e-07
2.70178e-07
2.65983e-07
2.65531e-07
2.67129e-07
2.69515e-07
2.7172e-07
2.73299e-07
2.73965e-07
2.73608e-07
2.72267e-07
2.70137e-07
2.67379e-07
2.64142e-07
2.60624e-07
2.56824e-07
2.52739e-07
2.48308e-07
2.43659e-07
2.39027e-07
2.3475e-07
2.31138e-07
2.2852e-07
2.2711e-07
2.2695e-07
2.27926e-07
2.29679e-07
2.31968e-07
2.34592e-07
2.37501e-07
2.40792e-07
2.44169e-07
2.46474e-07
2.47099e-07
2.48682e-07
2.4287e-07
2.41246e-07
2.51538e-07
2.64707e-07
2.81487e-07
2.90556e-07
2.77438e-07
2.44233e-07
2.29135e-07
3.11271e-07
4.52541e-07
2.73601e-07
1.24583e-06
)
;

boundaryField
{
    inlet
    {
        type            calculated;
        value           nonuniform List<scalar> 
23
(
4.75705e-06
4.71718e-06
4.67882e-06
4.64186e-06
4.60585e-06
4.57028e-06
4.53444e-06
4.49778e-06
4.45955e-06
4.41915e-06
4.37569e-06
4.32946e-06
4.27749e-06
4.20496e-06
4.14191e-06
4.06673e-06
3.97558e-06
3.86674e-06
3.73814e-06
3.5893e-06
3.41482e-06
3.28051e-06
3.02489e-06
)
;
    }
    outlet
    {
        type            calculated;
        value           nonuniform List<scalar> 
82
(
4.70583e-06
4.84766e-06
3.93579e-06
4.75603e-06
4.5838e-06
4.41792e-06
4.23995e-06
4.05705e-06
3.86802e-06
3.67411e-06
3.47819e-06
3.27967e-06
3.08099e-06
2.88213e-06
2.68519e-06
2.49121e-06
2.30054e-06
2.11506e-06
1.93487e-06
1.76145e-06
1.59571e-06
1.43696e-06
1.28756e-06
1.14661e-06
1.01496e-06
8.92512e-07
7.79869e-07
6.76799e-07
5.83358e-07
5.00261e-07
4.26791e-07
3.64012e-07
3.11916e-07
2.70515e-07
2.39806e-07
2.18637e-07
2.05931e-07
1.99548e-07
1.97632e-07
1.98356e-07
2.00249e-07
2.02479e-07
2.04437e-07
2.05794e-07
2.0642e-07
2.06449e-07
2.05956e-07
2.05061e-07
2.03937e-07
2.0255e-07
2.00882e-07
1.98838e-07
1.96503e-07
1.94097e-07
1.91916e-07
1.90256e-07
1.89425e-07
1.89636e-07
1.90931e-07
1.93211e-07
1.96114e-07
1.99421e-07
2.02928e-07
2.06597e-07
2.10531e-07
2.14473e-07
2.17188e-07
2.17949e-07
2.19521e-07
2.13507e-07
2.11927e-07
2.23093e-07
2.37399e-07
2.55772e-07
2.65817e-07
2.51517e-07
2.13879e-07
1.9614e-07
2.82926e-07
4.34655e-07
2.06375e-07
1.12521e-06
)
;
    }
    walls
    {
        type            calculated;
        value           nonuniform List<scalar> 0();
    }
    frontAndBack
    {
        type            empty;
    }
    procBoundary3to2
    {
        type            processor;
        value           nonuniform List<scalar> 
88
(
5.42402e-07
1.15801e-06
1.32887e-07
5.54785e-07
5.54785e-07
2.10113e-07
2.78718e-07
2.78718e-07
3.28814e-07
2.95005e-07
2.77292e-07
2.77292e-07
4.80974e-07
4.44783e-07
4.14908e-07
3.87019e-07
3.58051e-07
3.58051e-07
7.02309e-07
6.53735e-07
6.06389e-07
5.61405e-07
5.17176e-07
5.17176e-07
1.04247e-06
9.88125e-07
9.34856e-07
8.82739e-07
8.31775e-07
7.82077e-07
7.33618e-07
7.33618e-07
1.67411e-06
1.61568e-06
1.55734e-06
1.49923e-06
1.44146e-06
1.38415e-06
1.32744e-06
1.27139e-06
1.21611e-06
1.16178e-06
1.10843e-06
1.05609e-06
1.05609e-06
6.2501e-05
4.10374e-09
0
0
2.84516e-07
4.43668e-06
5.37886e-06
4.45488e-06
4.43298e-06
4.21286e-06
4.05711e-06
3.91123e-06
3.77441e-06
3.64915e-06
3.53205e-06
3.42268e-06
3.31999e-06
3.22331e-06
3.13184e-06
3.04492e-06
2.96202e-06
2.88278e-06
2.8067e-06
2.73338e-06
2.66242e-06
2.59324e-06
2.52569e-06
2.45965e-06
2.39485e-06
2.33124e-06
2.26882e-06
2.20749e-06
2.14718e-06
2.08792e-06
2.02978e-06
1.97242e-06
1.91585e-06
1.85977e-06
1.80404e-06
1.74886e-06
1.69435e-06
1.64127e-06
1.64127e-06
)
;
    }
    procBoundary3to6
    {
        type            processor;
        value           uniform 0.000174677;
    }
    procBoundary3to7
    {
        type            processor;
        value           nonuniform List<scalar> 
16
(
5.27186e-05
0
0
1.9221e-08
6.37378e-07
2.85248e-06
4.90314e-06
6.25668e-06
6.25668e-06
5.74044e-06
5.7442e-06
5.48416e-06
5.03265e-06
4.4709e-06
4.10226e-06
3.27913e-06
)
;
    }
}


// ************************************************************************* //
