/*--------------------------------*- C++ -*----------------------------------*\
| =========                 |                                                 |
| \\      /  F ield         | OpenFOAM: The Open Source CFD Toolbox           |
|  \\    /   O peration     | Version:  2306                                  |
|   \\  /    A nd           | Website:  www.openfoam.com                      |
|    \\/     M anipulation  |                                                 |
\*---------------------------------------------------------------------------*/
FoamFile
{
    version     2.0;
    format      ascii;
    arch        "LSB;label=32;scalar=64";
    class       volScalarField;
    location    "25";
    object      nuTilda;
}
// * * * * * * * * * * * * * * * * * * * * * * * * * * * * * * * * * * * * * //

dimensions      [0 2 -1 0 0 0 0];

internalField   nonuniform List<scalar> 
1340
(
0.0928685
0.0682995
0.0380925
0.0328249
0.0728591
0.0481618
0.0240375
0.030914
0.050792
0.0389669
0.0256623
0.0354171
0.046448
0.0410037
0.0329403
0.039785
0.0600139
0.0522464
0.0425862
0.0444131
0.0802199
0.0641848
0.0509442
0.0476299
0.106327
0.0779314
0.058994
0.0502545
0.138643
0.0937758
0.0673055
0.0555108
0.17705
0.111695
0.076064
0.0618978
0.220742
0.131269
0.085531
0.0685526
0.26802
0.151944
0.0956577
0.0753863
0.31469
0.173209
0.106215
0.0822902
0.357137
0.193097
0.116377
0.0888747
0.389081
0.20911
0.125018
0.0945553
0.405886
0.218727
0.130718
0.0984736
0.399605
0.218995
0.132019
0.0996986
0.36819
0.207457
0.127218
0.0970416
0.316016
0.184161
0.115703
0.0897723
0.251617
0.152141
0.0983575
0.0780583
0.184526
0.116354
0.0777751
0.0633908
0.124708
0.0822017
0.0569329
0.0477394
0.0774273
0.0534246
0.0384617
0.0330757
0.0435837
0.0316227
0.0237236
0.0208616
0.0215076
0.0165701
0.0130306
0.0118679
0.00947949
0.00764445
0.00614162
0.00597099
0.0035859
0.00303912
0.00257245
0.00270234
0.00112583
0.00104855
0.000959925
0.00111053
0.000281801
0.000305585
0.000315235
0.000415645
5.67833e-05
7.89728e-05
9.65246e-05
0.000147474
2.21467e-05
3.07586e-05
3.93368e-05
5.97987e-05
2.85451e-05
2.99594e-05
3.21642e-05
3.82462e-05
3.58939e-05
3.54015e-05
3.53265e-05
3.62352e-05
3.91277e-05
3.86471e-05
3.82515e-05
3.79282e-05
4.02488e-05
4.00866e-05
3.98835e-05
3.96578e-05
3.93151e-05
4.0292e-05
4.02784e-05
4.02315e-05
4.01598e-05
3.99908e-05
4.02685e-05
4.02891e-05
4.02973e-05
4.02972e-05
4.0246e-05
4.02481e-05
4.02729e-05
4.02952e-05
4.03194e-05
4.0322e-05
4.02326e-05
4.02566e-05
4.02815e-05
4.0312e-05
4.03348e-05
4.02193e-05
4.02422e-05
4.02669e-05
4.02983e-05
4.03277e-05
4.02071e-05
4.02289e-05
4.02529e-05
4.02837e-05
4.03146e-05
4.01955e-05
4.02165e-05
4.02396e-05
4.02692e-05
4.02999e-05
4.01844e-05
4.02044e-05
4.02267e-05
4.0255e-05
4.02848e-05
4.01735e-05
4.01926e-05
4.02139e-05
4.0241e-05
4.02696e-05
4.0163e-05
4.0181e-05
4.02013e-05
4.02271e-05
4.02543e-05
4.01529e-05
4.01699e-05
4.01891e-05
4.02133e-05
4.0239e-05
4.01299e-05
4.01433e-05
4.01593e-05
4.01773e-05
4.02e-05
4.0224e-05
4.01214e-05
4.01339e-05
4.0149e-05
4.0166e-05
4.01872e-05
4.02096e-05
4.01133e-05
4.01249e-05
4.01389e-05
4.01549e-05
4.01748e-05
4.01956e-05
4.01058e-05
4.01164e-05
4.01293e-05
4.01442e-05
4.01627e-05
4.0182e-05
4.00988e-05
4.01084e-05
4.01202e-05
4.0134e-05
4.0151e-05
4.01688e-05
4.00923e-05
4.01009e-05
4.01117e-05
4.01243e-05
4.01399e-05
4.01562e-05
4.00863e-05
4.0094e-05
4.01037e-05
4.01152e-05
4.01295e-05
4.01442e-05
4.00809e-05
4.00877e-05
4.00963e-05
4.01067e-05
4.01197e-05
4.0133e-05
4.0076e-05
4.00821e-05
4.00897e-05
4.00989e-05
4.01106e-05
4.01225e-05
4.00671e-05
4.00715e-05
4.00769e-05
4.00837e-05
4.00919e-05
4.01024e-05
4.01128e-05
4.00629e-05
4.00671e-05
4.00722e-05
4.00783e-05
4.00856e-05
4.00949e-05
4.0104e-05
4.00585e-05
4.00627e-05
4.00675e-05
4.00732e-05
4.00798e-05
4.00882e-05
4.00961e-05
4.00538e-05
4.00579e-05
4.00626e-05
4.00681e-05
4.00743e-05
4.0082e-05
4.00889e-05
4.0049e-05
4.00529e-05
4.00576e-05
4.00629e-05
4.00689e-05
4.00762e-05
4.00824e-05
4.00444e-05
4.00479e-05
4.00523e-05
4.00575e-05
4.00634e-05
4.00704e-05
4.00762e-05
4.00404e-05
4.00433e-05
4.00472e-05
4.0052e-05
4.00577e-05
4.00645e-05
4.00702e-05
4.00366e-05
4.00374e-05
4.00394e-05
4.00426e-05
4.00468e-05
4.0052e-05
4.00586e-05
4.00641e-05
4.00359e-05
4.00357e-05
4.00367e-05
4.00388e-05
4.00421e-05
4.00467e-05
4.00529e-05
4.00581e-05
4.00363e-05
4.00353e-05
4.00352e-05
4.00363e-05
4.00385e-05
4.00422e-05
4.00476e-05
4.00524e-05
4.00377e-05
4.00363e-05
4.00354e-05
4.00354e-05
4.00364e-05
4.00389e-05
4.00432e-05
4.00473e-05
4.00394e-05
4.00382e-05
4.0037e-05
4.00362e-05
4.00361e-05
4.00373e-05
4.00403e-05
4.00433e-05
4.00408e-05
4.00409e-05
4.004e-05
4.00387e-05
4.00375e-05
4.00373e-05
4.00387e-05
4.00402e-05
4.00407e-05
4.00422e-05
4.00426e-05
4.00419e-05
4.00404e-05
4.00387e-05
4.00382e-05
4.00384e-05
4.00349e-05
4.00377e-05
4.00402e-05
4.00419e-05
4.00426e-05
4.00421e-05
4.00406e-05
4.00393e-05
4.00384e-05
4.00309e-05
4.00338e-05
4.00367e-05
4.00393e-05
4.00413e-05
4.00422e-05
4.00417e-05
4.00408e-05
4.00396e-05
4.00275e-05
4.00303e-05
4.00333e-05
4.00364e-05
4.00392e-05
4.00412e-05
4.00419e-05
4.00417e-05
4.0041e-05
4.00243e-05
4.0027e-05
4.003e-05
4.00332e-05
4.00364e-05
4.00392e-05
4.0041e-05
4.00415e-05
4.00417e-05
4.00212e-05
4.00237e-05
4.00265e-05
4.00295e-05
4.00328e-05
4.0036e-05
4.00386e-05
4.00401e-05
4.00414e-05
4.00183e-05
4.00204e-05
4.00229e-05
4.00257e-05
4.00288e-05
4.00321e-05
4.00351e-05
4.00374e-05
4.00399e-05
4.00154e-05
4.00173e-05
4.00194e-05
4.00218e-05
4.00245e-05
4.00275e-05
4.00305e-05
4.00332e-05
4.00364e-05
4.0013e-05
4.00147e-05
4.00165e-05
4.00187e-05
4.00211e-05
4.00238e-05
4.00267e-05
4.00294e-05
4.00329e-05
4.00097e-05
4.00111e-05
4.00126e-05
4.00143e-05
4.00162e-05
4.00184e-05
4.0021e-05
4.00232e-05
4.0026e-05
4.00068e-05
4.00078e-05
4.0009e-05
4.00105e-05
4.00123e-05
4.00142e-05
4.00164e-05
4.0019e-05
4.00211e-05
4.00234e-05
4.00063e-05
4.00069e-05
4.00077e-05
4.00087e-05
4.00098e-05
4.0011e-05
4.00125e-05
4.00141e-05
4.00168e-05
4.00195e-05
4.0011e-05
4.0011e-05
4.00114e-05
4.00121e-05
4.00131e-05
4.00143e-05
4.00159e-05
4.00178e-05
4.00191e-05
4.00205e-05
0.0970078
0.113093
0.129316
0.142403
0.145305
0.124038
0.0802138
0.0611889
0.0577037
0.0593503
0.062573
0.0660796
0.0692217
0.0714684
0.0722224
0.0709467
0.0670982
0.0604756
0.0514192
0.0409608
0.0303096
0.020729
0.0129694
0.00735651
0.00373272
0.00171546
0.00072176
0.000281712
0.000109276
5.21833e-05
3.81669e-05
3.70986e-05
3.84693e-05
3.9558e-05
4.00951e-05
4.03019e-05
4.03637e-05
4.03724e-05
4.03636e-05
4.03492e-05
4.03328e-05
4.03158e-05
4.02986e-05
4.02812e-05
4.02639e-05
4.0247e-05
4.02307e-05
4.02149e-05
4.01996e-05
4.01848e-05
4.01706e-05
4.01571e-05
4.01445e-05
4.01326e-05
4.01216e-05
4.01116e-05
4.01025e-05
4.00944e-05
4.0087e-05
4.00802e-05
4.00737e-05
4.00674e-05
4.00611e-05
4.00552e-05
4.00497e-05
4.00452e-05
4.00412e-05
4.00388e-05
4.00382e-05
4.0039e-05
4.00404e-05
4.00414e-05
4.00417e-05
4.00412e-05
4.00389e-05
4.00361e-05
4.00294e-05
4.00272e-05
4.00208e-05
4.00245e-05
0.0885671
0.132427
0.17272
0.197411
0.200215
0.178155
0.1288
0.0729478
0.0556975
0.0537725
0.0549946
0.0564924
0.0575293
0.0576508
0.056468
0.0536999
0.0491884
0.0430201
0.0356253
0.0277488
0.0201755
0.0136006
0.00841791
0.00474067
0.00240719
0.00111604
0.000478497
0.000194992
8.36149e-05
4.6895e-05
3.81685e-05
3.78131e-05
3.89418e-05
3.97852e-05
4.01988e-05
4.03577e-05
4.04033e-05
4.04063e-05
4.03952e-05
4.03791e-05
4.03611e-05
4.03423e-05
4.03233e-05
4.03042e-05
4.02851e-05
4.02664e-05
4.02485e-05
4.02313e-05
4.02146e-05
4.01984e-05
4.01829e-05
4.01683e-05
4.01545e-05
4.01415e-05
4.01295e-05
4.01184e-05
4.01083e-05
4.00993e-05
4.00912e-05
4.00837e-05
4.00767e-05
4.007e-05
4.00636e-05
4.00574e-05
4.00517e-05
4.00468e-05
4.00421e-05
4.00392e-05
4.00381e-05
4.00385e-05
4.00399e-05
4.00411e-05
4.00417e-05
4.00419e-05
4.00405e-05
4.00385e-05
4.00324e-05
4.00308e-05
4.00226e-05
0.0673388
0.123578
0.1815
0.222831
0.238162
0.224986
0.182406
0.112943
0.0604967
0.0506073
0.0497988
0.049892
0.0496611
0.0485526
0.0463661
0.0429422
0.0383244
0.0326956
0.0264888
0.0202429
0.0144912
0.00964386
0.00591067
0.00330694
0.00167872
0.000784124
0.00034274
0.000146378
6.93562e-05
4.41545e-05
3.83781e-05
3.83594e-05
3.92939e-05
3.9963e-05
4.02888e-05
4.04116e-05
4.04438e-05
4.04419e-05
4.04284e-05
4.04105e-05
4.03906e-05
4.037e-05
4.03491e-05
4.03281e-05
4.03072e-05
4.02869e-05
4.02674e-05
4.02487e-05
4.02306e-05
4.02131e-05
4.01964e-05
4.01806e-05
4.01658e-05
4.01518e-05
4.01387e-05
4.01266e-05
4.01156e-05
4.01056e-05
4.00967e-05
4.00885e-05
4.0081e-05
4.00738e-05
4.0067e-05
4.00606e-05
4.00546e-05
4.00494e-05
4.00441e-05
4.00403e-05
4.00383e-05
4.00381e-05
4.00392e-05
4.00403e-05
4.00411e-05
4.00419e-05
4.00417e-05
4.00406e-05
4.00356e-05
4.00348e-05
0.0420776
0.098277
0.163968
0.219319
0.251983
0.256616
0.231257
0.174477
0.100288
0.0563757
0.0475735
0.0466981
0.0456795
0.043813
0.0410326
0.0371978
0.0325267
0.0272038
0.021655
0.0162831
0.0115007
0.00756562
0.00459669
0.00255524
0.00129452
0.000607335
0.000269805
0.000120145
6.17494e-05
4.28209e-05
3.86369e-05
3.87698e-05
3.95592e-05
4.01053e-05
4.03677e-05
4.04641e-05
4.04859e-05
4.04798e-05
4.04639e-05
4.04441e-05
4.04223e-05
4.03996e-05
4.03767e-05
4.03537e-05
4.03309e-05
4.03087e-05
4.02876e-05
4.02673e-05
4.02478e-05
4.0229e-05
4.0211e-05
4.01941e-05
4.01781e-05
4.01631e-05
4.01491e-05
4.01361e-05
4.01241e-05
4.01133e-05
4.01035e-05
4.00946e-05
4.00865e-05
4.00788e-05
4.00716e-05
4.0065e-05
4.00587e-05
4.00532e-05
4.00473e-05
4.00426e-05
4.00397e-05
4.00387e-05
4.0039e-05
4.00395e-05
4.004e-05
4.00413e-05
4.00419e-05
4.0042e-05
4.00381e-05
0.016925
0.0615317
0.126454
0.191445
0.241172
0.266986
0.264541
0.231651
0.169084
0.0960056
0.0542331
0.0441467
0.0422237
0.0400863
0.0372973
0.0336473
0.0292125
0.0241924
0.0190471
0.0141618
0.00990006
0.00645514
0.00389544
0.00215541
0.00108954
0.000512259
0.000230428
0.000106238
5.79787e-05
4.24132e-05
3.89946e-05
3.91144e-05
3.97704e-05
4.02236e-05
4.04402e-05
4.05172e-05
4.05311e-05
4.05212e-05
4.0503e-05
4.04811e-05
4.0457e-05
4.0432e-05
4.04068e-05
4.03816e-05
4.03566e-05
4.03323e-05
4.03092e-05
4.02872e-05
4.02661e-05
4.02458e-05
4.02265e-05
4.02083e-05
4.01912e-05
4.01752e-05
4.01602e-05
4.01462e-05
4.01334e-05
4.01217e-05
4.01111e-05
4.01015e-05
4.00928e-05
4.00846e-05
4.00771e-05
4.00701e-05
4.00636e-05
4.00578e-05
4.00515e-05
4.0046e-05
4.00422e-05
4.00403e-05
4.00399e-05
4.00395e-05
4.0039e-05
4.00401e-05
4.00414e-05
4.00425e-05
0.00202845
0.0254765
0.0785808
0.14577
0.20817
0.253462
0.274304
0.266097
0.225955
0.15626
0.0825729
0.0443965
0.0381219
0.0371555
0.0342968
0.0305105
0.0263416
0.0217854
0.0171154
0.0126833
0.00883277
0.00574446
0.00346446
0.00192089
0.000975205
0.00046102
0.000210101
9.96567e-05
5.66332e-05
4.26141e-05
3.94132e-05
3.94156e-05
3.99476e-05
4.03288e-05
4.05118e-05
4.05743e-05
4.05815e-05
4.0568e-05
4.05472e-05
4.05228e-05
4.04961e-05
4.04684e-05
4.04405e-05
4.04125e-05
4.03849e-05
4.03582e-05
4.03328e-05
4.03087e-05
4.02857e-05
4.02636e-05
4.02427e-05
4.0223e-05
4.02047e-05
4.01875e-05
4.01714e-05
4.01565e-05
4.01428e-05
4.01302e-05
4.01189e-05
4.01086e-05
4.00992e-05
4.00906e-05
4.00827e-05
4.00755e-05
4.00687e-05
4.00627e-05
4.00561e-05
4.00499e-05
4.00453e-05
4.00426e-05
4.00416e-05
4.00403e-05
4.00385e-05
4.00386e-05
0.000964227
0.00404665
0.0322607
0.0878092
0.15376
0.213304
0.255566
0.273256
0.26084
0.214913
0.140532
0.0690724
0.0356843
0.0315953
0.031595
0.0286728
0.024314
0.0197984
0.0154757
0.0114864
0.00802722
0.00524494
0.00318281
0.00178027
0.00091408
0.000436876
0.000201847
9.77766e-05
5.68496e-05
4.32119e-05
3.98765e-05
3.96935e-05
4.01071e-05
4.04302e-05
4.05877e-05
4.06388e-05
4.06399e-05
4.06223e-05
4.05984e-05
4.05709e-05
4.05411e-05
4.05101e-05
4.04788e-05
4.04476e-05
4.04169e-05
4.03872e-05
4.0359e-05
4.03323e-05
4.0307e-05
4.02828e-05
4.02599e-05
4.02385e-05
4.02186e-05
4.02001e-05
4.01828e-05
4.01668e-05
4.01521e-05
4.01386e-05
4.01264e-05
4.01155e-05
4.01055e-05
4.00964e-05
4.00881e-05
4.00805e-05
4.00736e-05
4.00675e-05
4.00606e-05
4.00539e-05
4.00485e-05
4.00451e-05
4.00436e-05
4.00416e-05
0
0.00144149
0.00600112
0.0371489
0.0942218
0.159659
0.217492
0.257455
0.27211
0.255355
0.203783
0.125843
0.0548818
0.0231125
0.021475
0.0240054
0.0225518
0.0186722
0.014401
0.0105619
0.00736103
0.00483393
0.0029632
0.00168082
0.000878037
0.000426881
0.000200488
9.8732e-05
5.80558e-05
4.40888e-05
4.03921e-05
3.99709e-05
4.02635e-05
4.05346e-05
4.06715e-05
4.07133e-05
4.07085e-05
4.06862e-05
4.0658e-05
4.06268e-05
4.05932e-05
4.05582e-05
4.05229e-05
4.04878e-05
4.04534e-05
4.04201e-05
4.03885e-05
4.03587e-05
4.03306e-05
4.03038e-05
4.02786e-05
4.02551e-05
4.02334e-05
4.02133e-05
4.01945e-05
4.01772e-05
4.01613e-05
4.01468e-05
4.01337e-05
4.0122e-05
4.01113e-05
4.01016e-05
4.00929e-05
4.00851e-05
4.00779e-05
4.00717e-05
4.00647e-05
4.00576e-05
4.00515e-05
0
0
0.00176869
0.00731326
0.0372936
0.0905465
0.152295
0.207971
0.247177
0.262067
0.24616
0.196584
0.122714
0.0539999
0.0195202
0.0135883
0.0157153
0.0158639
0.0134149
0.0100857
0.00702006
0.00459404
0.0028254
0.0016207
0.000861715
0.000427223
0.000204167
0.000101753
5.99625e-05
4.5169e-05
4.09648e-05
4.02699e-05
4.04333e-05
4.06505e-05
4.07663e-05
4.07991e-05
4.07883e-05
4.07605e-05
4.07272e-05
4.06914e-05
4.06531e-05
4.06135e-05
4.05735e-05
4.0534e-05
4.04952e-05
4.04577e-05
4.04221e-05
4.03887e-05
4.03572e-05
4.03274e-05
4.02995e-05
4.02735e-05
4.02495e-05
4.02275e-05
4.0207e-05
4.01882e-05
4.01709e-05
4.01551e-05
4.0141e-05
4.01283e-05
4.01169e-05
4.01065e-05
4.00973e-05
4.00891e-05
4.00817e-05
4.00754e-05
2.38614e-07
0
0
0.00160723
0.00655504
0.0331389
0.0822424
0.141496
0.196495
0.236434
0.253272
0.24098
0.197558
0.131108
0.0646447
0.0242179
0.0102086
0.00919688
0.00984458
0.00881815
0.00670685
0.0045473
0.00283294
0.00163951
0.000883004
0.000444928
0.000215564
0.000107841
6.28444e-05
4.64634e-05
4.15531e-05
4.05651e-05
4.06112e-05
4.07812e-05
4.08762e-05
4.0898e-05
4.08798e-05
4.08454e-05
4.0806e-05
4.07645e-05
4.07211e-05
4.06763e-05
4.06311e-05
4.05865e-05
4.05428e-05
4.05006e-05
4.04605e-05
4.04228e-05
4.03875e-05
4.03543e-05
4.03231e-05
4.02942e-05
4.02677e-05
4.02433e-05
4.02208e-05
4.02001e-05
4.01812e-05
4.0164e-05
4.01486e-05
4.01348e-05
4.01225e-05
4.01114e-05
7.01582e-06
1.85425e-06
0
0
0.0013229
0.00536893
0.0300135
0.0771285
0.135279
0.19009
0.230506
0.248572
0.238872
0.199973
0.138688
0.0740673
0.0293121
0.00947418
0.00522556
0.00547789
0.00529067
0.00417193
0.00282147
0.00170657
0.000944659
0.000486297
0.000239226
0.000119778
6.821e-05
4.86293e-05
4.23516e-05
4.0863e-05
4.07616e-05
4.09004e-05
4.09902e-05
4.10077e-05
4.0983e-05
4.09412e-05
4.08944e-05
4.08463e-05
4.07968e-05
4.07462e-05
4.06954e-05
4.06453e-05
4.05963e-05
4.05489e-05
4.05038e-05
4.04615e-05
4.04219e-05
4.03848e-05
4.035e-05
4.03178e-05
4.02883e-05
4.02613e-05
4.02364e-05
4.02137e-05
4.01928e-05
4.12613e-05
1.31078e-05
3.38433e-06
0
0
0.00104515
0.00423193
0.025278
0.0669949
0.12098
0.174402
0.216042
0.237501
0.233089
0.201018
0.146643
0.0857009
0.0389333
0.0138655
0.00518795
0.00355537
0.00321146
0.0025614
0.00173151
0.00102637
0.000551201
0.000277438
0.000139066
7.71206e-05
5.25669e-05
4.4027e-05
4.15373e-05
4.10284e-05
4.10326e-05
4.10944e-05
4.11126e-05
4.10894e-05
4.10447e-05
4.09919e-05
4.09367e-05
4.08803e-05
4.08233e-05
4.07664e-05
4.07103e-05
4.06557e-05
4.06028e-05
4.05523e-05
4.05049e-05
4.04607e-05
4.04193e-05
4.90414e-05
4.46261e-05
1.58945e-05
4.08725e-06
0
0
0.000717994
0.00288021
0.0210084
0.058616
0.109199
0.161143
0.203478
0.227293
0.226198
0.197576
0.146007
0.0866391
0.0400216
0.0140388
0.00439205
0.00230817
0.00201736
0.00163919
0.00110655
0.000640568
0.000332828
0.000165283
8.72815e-05
5.61704e-05
4.55555e-05
4.24373e-05
4.16076e-05
4.13793e-05
4.12962e-05
4.12462e-05
4.11995e-05
4.11486e-05
)
;

boundaryField
{
    inlet
    {
        type            freestream;
        freestreamValue uniform 4e-05;
        value           nonuniform List<scalar> 
11
(
4.0011e-05
4.0011e-05
4.00114e-05
4.00121e-05
4.00131e-05
4.00143e-05
4.00159e-05
4.00178e-05
4.00191e-05
4.00205e-05
4.00245e-05
)
;
    }
    outlet
    {
        type            freestream;
        freestreamValue nonuniform List<scalar> 0();
        value           nonuniform List<scalar> 0();
    }
    walls
    {
        type            fixedValue;
        value           uniform 0;
    }
    frontAndBack
    {
        type            empty;
    }
    procBoundary6to2
    {
        type            processor;
        value           nonuniform List<scalar> 
13
(
0.0811703
0.0526793
0.0293723
0.0111326
0.000942231
0.000497079
0
0
7.04768e-09
7.2471e-07
3.59669e-05
4.82144e-05
4.76769e-05
)
;
    }
    procBoundary6to3
    {
        type            processor;
        value           uniform 4.71048e-05;
    }
    procBoundary6to5
    {
        type            processor;
        value           nonuniform List<scalar> 
86
(
0.0889879
0.103798
0.0771397
0.0568308
0.0521611
0.0623241
0.0834436
0.114126
0.156014
0.210221
0.275499
0.350447
0.434271
0.515104
0.567948
0.571812
0.525754
0.443637
0.344329
0.244762
0.159376
0.0948451
0.0510003
0.0243514
0.0100801
0.00346932
0.000934914
0.000177679
1.97005e-05
1.41764e-05
2.89825e-05
3.71191e-05
3.97141e-05
3.97141e-05
4.03225e-05
4.02734e-05
4.02426e-05
4.02251e-05
4.02118e-05
4.01997e-05
4.01885e-05
4.01778e-05
4.01675e-05
4.01574e-05
4.01479e-05
4.01387e-05
4.01387e-05
4.01188e-05
4.0111e-05
4.01038e-05
4.00972e-05
4.00911e-05
4.00854e-05
4.00801e-05
4.00755e-05
4.00712e-05
4.00712e-05
4.00634e-05
4.00592e-05
4.00548e-05
4.00502e-05
4.00457e-05
4.00416e-05
4.00385e-05
4.00385e-05
4.00366e-05
4.00369e-05
4.00378e-05
4.00392e-05
4.00401e-05
4.00399e-05
4.00385e-05
4.00385e-05
4.00322e-05
4.00284e-05
4.00251e-05
4.00222e-05
4.00194e-05
4.00167e-05
4.0014e-05
4.00116e-05
4.00086e-05
4.00086e-05
4.00063e-05
4.00061e-05
4.00113e-05
)
;
    }
    procBoundary6to7
    {
        type            processor;
        value           nonuniform List<scalar> 
91
(
4.00288e-05
4.00288e-05
4.0025e-05
4.0025e-05
4.00383e-05
4.00383e-05
4.00398e-05
4.00403e-05
4.00398e-05
4.00423e-05
4.00385e-05
4.00403e-05
4.00373e-05
4.00476e-05
4.00457e-05
4.00385e-05
4.00432e-05
4.00684e-05
4.00609e-05
4.00476e-05
4.00543e-05
4.01015e-05
4.00928e-05
4.00851e-05
4.00684e-05
4.00786e-05
4.0174e-05
4.01571e-05
4.0142e-05
4.01285e-05
4.01015e-05
4.01165e-05
4.03805e-05
4.03447e-05
4.03118e-05
4.02818e-05
4.02543e-05
4.02292e-05
4.0174e-05
4.02062e-05
4.10929e-05
4.10334e-05
4.09713e-05
4.09078e-05
4.08442e-05
4.07818e-05
4.07211e-05
4.06623e-05
4.06062e-05
4.05534e-05
4.05041e-05
4.03805e-05
4.0458e-05
4.90685e-05
4.56051e-05
1.75049e-05
4.48893e-06
0
0
0.000491004
0.00197003
0.0167403
0.0480362
0.0918063
0.139122
0.180214
0.205947
0.208868
0.184981
0.137908
0.082382
0.0378434
0.012815
0.00333276
0.00126884
0.00115677
0.00102956
0.000727688
0.00043031
0.000224909
0.000113212
6.37047e-05
4.62662e-05
4.19337e-05
4.15004e-05
4.16397e-05
4.16329e-05
4.1514e-05
4.13842e-05
4.10929e-05
4.12811e-05
)
;
    }
}


// ************************************************************************* //
