/*--------------------------------*- C++ -*----------------------------------*\
| =========                 |                                                 |
| \\      /  F ield         | OpenFOAM: The Open Source CFD Toolbox           |
|  \\    /   O peration     | Version:  2306                                  |
|   \\  /    A nd           | Website:  www.openfoam.com                      |
|    \\/     M anipulation  |                                                 |
\*---------------------------------------------------------------------------*/
FoamFile
{
    version     2.0;
    format      ascii;
    arch        "LSB;label=32;scalar=64";
    class       volScalarField;
    location    "25";
    object      p;
}
// * * * * * * * * * * * * * * * * * * * * * * * * * * * * * * * * * * * * * //

dimensions      [0 2 -2 0 0 0 0];

internalField   nonuniform List<scalar> 
1340
(
-400.806
-235.061
-109.943
-40.6841
-401.596
-235.877
-111.353
-41.2829
-402.649
-236.342
-112.505
-42.2445
-404.74
-237.083
-113.423
-42.7154
-407.665
-237.978
-114.08
-42.4664
-411.389
-238.899
-114.401
-41.6943
-416.042
-239.88
-114.403
-40.9115
-421.706
-240.968
-114.117
-40.2828
-428.456
-242.27
-113.668
-39.7483
-436.079
-243.829
-113.125
-39.2303
-444.214
-245.693
-112.651
-38.7848
-452.132
-247.752
-112.293
-38.4095
-458.889
-249.838
-112.202
-38.1809
-463.317
-251.654
-112.386
-38.122
-464.606
-252.979
-112.998
-38.3432
-461.912
-253.499
-113.986
-38.8967
-454.341
-252.881
-115.382
-39.8744
-440.681
-250.561
-116.9
-41.2507
-420.494
-246.05
-118.319
-42.9484
-394.489
-239.07
-119.194
-44.7615
-364.945
-229.94
-119.363
-46.4939
-334.544
-219.271
-118.604
-47.9598
-305.77
-207.924
-117.04
-49.1105
-279.857
-196.553
-114.62
-50.0015
-256.777
-185.595
-111.681
-50.8062
-235.933
-175.066
-108.48
-51.6615
-217.104
-165.04
-105.305
-52.5581
-200.132
-155.49
-102.047
-53.4224
-184.865
-146.473
-98.8119
-54.1961
-171.083
-137.931
-95.5206
-54.8469
-158.68
-129.945
-92.3047
-55.3635
-147.484
-122.461
-89.1001
-55.7235
-137.402
-115.523
-85.9977
-55.9258
-137.818
-128.262
-109.045
-82.9326
-55.9517
-128.825
-119.963
-103.025
-79.9586
-55.8148
-120.645
-112.363
-97.3789
-77.0198
-55.5036
-113.077
-105.392
-92.1082
-74.1673
-55.0441
-106.123
-98.9647
-87.1746
-71.3822
-54.4348
-99.63
-93.0457
-82.5862
-68.7011
-53.7007
-93.633
-87.565
-78.2918
-66.09
-52.8296
-87.9817
-82.4763
-74.2674
-63.5505
-51.834
-82.7191
-77.7151
-70.4601
-61.0511
-50.7092
-77.7362
-73.2488
-66.8509
-58.5961
-49.4754
-73.0582
-69.0363
-63.4065
-56.1684
-48.1369
-68.6329
-65.0669
-60.1198
-53.7774
-46.7134
-66.5687
-64.483
-61.3154
-56.9751
-51.4207
-45.2172
-62.4311
-60.5625
-57.7763
-53.9739
-49.1144
-43.6735
-58.5644
-56.8992
-54.4342
-51.107
-46.8603
-42.0943
-54.9296
-53.4427
-51.2804
-48.3711
-44.6633
-40.4921
-51.5257
-50.2085
-48.2981
-45.7525
-42.5125
-38.8632
-48.3187
-47.146
-45.469
-43.2359
-40.3995
-37.2045
-45.2883
-44.2542
-42.7683
-40.8031
-38.3119
-35.5106
-42.4057
-41.484
-40.1738
-38.4404
-36.2486
-33.7887
-39.6453
-38.8309
-37.6719
-36.145
-34.2144
-32.0517
-37.4754
-37.0073
-36.2804
-35.2596
-33.9196
-32.2217
-30.3185
-34.9159
-34.4885
-33.8404
-32.9449
-31.7711
-30.2796
-28.6019
-32.4835
-32.093
-31.5155
-30.7253
-29.6978
-28.3898
-26.9131
-30.1755
-29.8165
-29.2974
-28.6006
-27.7016
-26.556
-25.2557
-27.9737
-27.6494
-27.1868
-26.5721
-25.7843
-24.7792
-23.6379
-25.8844
-25.5912
-25.1804
-24.6401
-23.9472
-23.0685
-22.0616
-23.8944
-23.6351
-23.2751
-22.7996
-22.1945
-21.4202
-20.5378
-22.1617
-22.0082
-21.7778
-21.4618
-21.0483
-20.5178
-19.8413
-19.0664
-20.363
-20.2196
-20.0132
-19.7365
-19.3759
-18.918
-18.3264
-17.6513
-18.6686
-18.5283
-18.3379
-18.0918
-17.7796
-17.3835
-16.8732
-16.2837
-17.0866
-16.9398
-16.7553
-16.5303
-16.2556
-15.9137
-15.4741
-14.9642
-15.6236
-15.4593
-15.2694
-15.054
-14.8051
-14.5055
-14.1268
-13.6864
-14.2787
-14.0956
-13.8942
-13.6778
-13.4424
-13.176
-12.8447
-12.4649
-13.231
-13.0277
-12.8073
-12.5776
-12.3419
-12.0812
-11.7754
-11.4337
-12.5735
-12.3889
-12.1689
-11.9288
-11.6818
-11.427
-11.1621
-10.8571
-10.5358
-11.7508
-11.5657
-11.3373
-11.0808
-10.8099
-10.5348
-10.2513
-9.94335
-9.63149
-10.9282
-10.7516
-10.5216
-10.2509
-9.9579
-9.65641
-9.35148
-9.0313
-8.72481
-10.1011
-9.94012
-9.71512
-9.43741
-9.12656
-8.80111
-8.4726
-8.13638
-7.82864
-9.25551
-9.1114
-8.89648
-8.61808
-8.29618
-7.95262
-7.6028
-7.24765
-6.92697
-8.4133
-8.28937
-8.09019
-7.82048
-7.49816
-7.14525
-6.78055
-6.4117
-6.0902
-7.48135
-7.36826
-7.18256
-6.92504
-6.60964
-6.25712
-5.88376
-5.49517
-5.13204
-6.69454
-6.60294
-6.44704
-6.21974
-5.92864
-5.58984
-5.22254
-4.84278
-4.51835
-5.43845
-5.35641
-5.22427
-5.03617
-4.7866
-4.48731
-4.13991
-3.74071
-3.29884
-5.06709
-5.07357
-5.03662
-4.96275
-4.8366
-4.65391
-4.41797
-4.14563
-3.86318
-3.66019
-2.72033
-2.68184
-2.636
-2.5871
-2.51561
-2.41215
-2.26881
-2.06712
-1.7693
-1.30305
-4.23483
-4.17226
-4.17018
-4.21492
-4.23671
-4.2195
-4.17734
-4.14193
-4.16118
-4.36137
23.0553
23.3265
23.5427
23.8207
24.3881
25.0604
25.4714
25.5148
25.2517
24.8077
24.2388
23.6011
22.8917
22.1349
21.2597
20.1845
18.7183
16.7216
14.0631
10.7735
6.94573
2.78226
-1.53826
-5.85451
-10.0794
-14.1371
-17.9515
-21.4886
-24.7327
-27.6917
-30.3662
-32.7556
-34.8601
-36.6814
-38.2306
-39.512
-40.5395
-41.3136
-41.8463
-42.1416
-42.2172
-42.0838
-41.764
-41.2702
-40.6221
-39.8353
-38.9321
-37.9302
-36.8415
-35.6695
-34.4137
-33.0753
-31.6656
-30.1988
-28.6988
-27.1818
-25.6656
-24.1592
-22.674
-21.2206
-19.7996
-18.4224
-17.088
-15.7996
-14.5486
-13.3318
-12.1682
-11.1788
-10.3082
-9.42969
-8.53394
-7.64704
-6.73773
-5.90744
-4.89872
-4.31742
-2.95753
-3.49828
-0.936804
-4.53829
21.6022
22.2475
22.4978
22.5589
22.7438
23.0864
23.3792
23.4902
23.4275
23.2025
22.8307
22.3123
21.6743
20.9335
20.1061
19.1742
18.0955
16.7905
15.1827
13.217
10.8866
8.23423
5.33805
2.28474
-0.856798
-4.02741
-7.17115
-10.2525
-13.237
-16.1074
-18.831
-21.3915
-23.7627
-25.937
-27.9023
-29.6573
-31.1942
-32.5071
-33.5926
-34.4478
-35.081
-35.5006
-35.7238
-35.7602
-35.6236
-35.3257
-34.8825
-34.3066
-33.6083
-32.7917
-31.858
-30.8117
-29.6628
-28.4301
-27.1325
-25.794
-24.43
-23.0587
-21.6929
-20.3422
-19.0231
-17.7342
-16.4837
-15.2642
-14.0801
-12.9251
-11.8157
-10.8758
-10.0479
-9.20364
-8.34177
-7.47894
-6.58195
-5.75941
-4.74289
-4.14886
-2.76875
-3.27846
-0.824664
24.4001
24.4225
24.1317
23.6458
23.1941
22.9333
22.8835
22.7449
22.3217
21.6079
20.7376
19.7743
18.7825
17.7423
16.6846
15.5656
14.3879
13.0801
11.6339
10.0017
8.2163
6.28337
4.26735
2.18722
0.0793002
-2.06247
-4.21458
-6.38666
-8.55858
-10.7332
-12.8827
-14.9986
-17.0486
-19.0231
-20.8962
-22.6577
-24.285
-25.7636
-27.0731
-28.2024
-29.1472
-29.9096
-30.4954
-30.9069
-31.1496
-31.2266
-31.1457
-30.9131
-30.5344
-30.0128
-29.3507
-28.5544
-27.6353
-26.6098
-25.5002
-24.3249
-23.1065
-21.8604
-20.6065
-19.3641
-18.1374
-16.9386
-15.7662
-14.6263
-13.5128
-12.4252
-11.3819
-10.4949
-9.71473
-8.9242
-8.1051
-7.28076
-6.41264
-5.61054
-4.60969
-4.00115
-2.63967
-3.06351
30.746
30.7217
30.5106
30.0177
29.4236
29.0627
29.2044
29.651
29.9373
29.704
28.9821
27.9395
26.7476
25.4606
24.1221
22.6741
21.1118
19.3712
17.4732
15.3939
13.2161
10.9641
8.72673
6.5048
4.34432
2.21787
0.150837
-1.8909
-3.89186
-5.88513
-7.85156
-9.80755
-11.7249
-13.6081
-15.4303
-17.1898
-18.8588
-20.4249
-21.8625
-23.1605
-24.3085
-25.3037
-26.143
-26.8223
-27.3387
-27.6896
-27.8758
-27.8975
-27.7568
-27.4557
-26.9983
-26.3922
-25.6507
-24.792
-23.8353
-22.8017
-21.7092
-20.5799
-19.4318
-18.2818
-17.1495
-16.0358
-14.9492
-13.8832
-12.8443
-11.8296
-10.8562
-10.0359
-9.31602
-8.58186
-7.81974
-7.04608
-6.22248
-5.45334
-4.48775
-3.88294
-2.54545
31.9049
31.749
31.4164
30.7381
29.7764
28.805
28.2801
28.454
29.286
30.4342
31.6268
32.6184
33.1907
33.1568
32.5178
31.3105
29.6681
27.6638
25.4231
22.9977
20.5091
17.9891
15.5162
13.0701
10.6912
8.34272
6.05796
3.79701
1.59117
-0.594947
-2.73091
-4.84288
-6.89961
-8.91672
-10.8642
-12.7473
-14.5376
-16.2298
-17.7991
-19.2397
-20.5392
-21.6955
-22.7004
-23.5481
-24.2326
-24.7489
-25.0947
-25.2684
-25.2704
-25.1024
-24.7703
-24.2844
-23.66
-22.9167
-22.0747
-21.153
-20.172
-19.1464
-18.0992
-17.0517
-16.0111
-14.9896
-13.9861
-13.009
-12.0528
-11.1212
-10.2344
-9.48684
-8.83346
-8.16838
-7.47243
-6.76181
-5.99759
-5.28015
-4.36312
-3.78404
26.3719
26.3597
26.3247
26.1636
25.9126
25.5803
25.2184
24.8402
24.6971
25.0062
25.8301
26.9222
28.0054
28.7495
28.9976
28.6653
27.8304
26.5583
24.9887
23.2023
21.3182
19.3657
17.3873
15.3619
13.3028
11.1934
9.05416
6.8795
4.69229
2.49342
0.308235
-1.8608
-3.99039
-6.07727
-8.09705
-10.0436
-11.8921
-13.6336
-15.2474
-16.7281
-18.0653
-19.2562
-20.2931
-21.1706
-21.8827
-22.4264
-22.8001
-23.0028
-23.0358
-22.9018
-22.6086
-22.1679
-21.5973
-20.9178
-20.1497
-19.3132
-18.4234
-17.5006
-16.5604
-15.6147
-14.6811
-13.76
-12.863
-11.9831
-11.1266
-10.2962
-9.50314
-8.8431
-8.2647
-7.67864
-7.0601
-6.42617
-5.73265
-5.07959
16.2864
16.4387
16.541
16.6205
16.7838
17.1142
17.4731
17.5662
17.1355
16.2258
15.124
14.0814
13.159
12.344
11.6527
11.0998
10.667
10.303
9.95261
9.56853
9.12058
8.56633
7.87291
7.01059
5.98459
4.8041
3.50049
2.0864
0.591968
-0.974923
-2.5853
-4.23393
-5.89233
-7.55286
-9.18457
-10.7748
-12.2947
-13.7307
-15.0608
-16.2765
-17.3665
-18.3267
-19.1484
-19.827
-20.3581
-20.7398
-20.9722
-21.0558
-20.9924
-20.7851
-20.4418
-19.9744
-19.4006
-18.7402
-18.0138
-17.2393
-16.4337
-15.609
-14.7775
-13.954
-13.14
-12.3444
-11.5649
-10.8076
-10.0712
-9.35426
-8.67852
-8.11162
-7.61887
-7.11724
-6.58571
-6.03541
-1.82131
-1.61803
-1.71849
-2.02601
-2.35218
-2.45951
-2.32882
-2.12756
-2.17049
-2.68619
-3.79031
-5.38728
-7.26835
-9.16816
-10.853
-12.1226
-12.8941
-13.1882
-13.1338
-12.8552
-12.4873
-12.1166
-11.8281
-11.6465
-11.5872
-11.6246
-11.753
-11.9542
-12.2344
-12.5857
-13.0125
-13.5049
-14.0584
-14.6572
-15.2862
-15.926
-16.5562
-17.1587
-17.7162
-18.2171
-18.6514
-19.0117
-19.2902
-19.4806
-19.578
-19.5805
-19.4874
-19.2981
-19.0132
-18.6339
-18.1652
-17.6157
-16.9992
-16.3322
-15.6316
-14.9125
-14.1875
-13.4669
-12.7608
-12.0698
-11.4002
-10.7459
-10.1147
-9.49968
-8.90122
-8.32383
-7.77068
-7.31311
-6.9091
-16.7066
-17.4044
-18.4106
-19.5811
-20.7615
-21.6695
-22.2249
-22.411
-22.4373
-22.3993
-22.4996
-22.8424
-23.5966
-24.6965
-25.9782
-27.1264
-27.9865
-28.4779
-28.7247
-28.7974
-28.821
-28.7947
-28.7607
-28.6611
-28.5011
-28.2253
-27.859
-27.3908
-26.8705
-26.3065
-25.7389
-25.1716
-24.6256
-24.0987
-23.5969
-23.1136
-22.6473
-22.191
-21.7409
-21.2923
-20.8426
-20.389
-19.9272
-19.4532
-18.9643
-18.458
-17.9333
-17.3877
-16.8191
-16.2244
-15.6043
-14.9608
-14.3015
-13.636
-12.9742
-12.3269
-11.7009
-11.1046
-10.5381
-10.0059
-9.497
-9.01372
-8.54663
-8.09671
-7.65965
-7.22701
-39.3349
-39.9926
-40.7576
-41.4339
-41.9063
-42.0276
-41.8214
-41.3279
-40.7392
-40.0596
-39.3288
-38.4548
-37.5386
-36.6277
-35.869
-35.2066
-34.6355
-34.0875
-33.6846
-33.4578
-33.4836
-33.6636
-33.9473
-34.1861
-34.3259
-34.2763
-34.0488
-33.6314
-33.0742
-32.3899
-31.6152
-30.7582
-29.8378
-28.8601
-27.8367
-26.778
-25.6925
-24.5921
-23.4854
-22.3855
-21.3014
-20.2434
-19.2177
-18.2298
-17.283
-16.3805
-15.5234
-14.7105
-13.9393
-13.2052
-12.5047
-11.8349
-11.1971
-10.5925
-10.0253
-9.49772
-9.01431
-8.5753
-8.18413
-7.82887
-7.51049
-7.20921
-41.301
-41.5464
-41.7414
-41.7401
-41.48
-40.9524
-40.2417
-39.4739
-38.8099
-38.2979
-37.8554
-37.3009
-36.4883
-35.3584
-33.9684
-32.4189
-30.8308
-29.3117
-28.0151
-27.0595
-26.5163
-26.3192
-26.3671
-26.5012
-26.628
-26.656
-26.5836
-26.3969
-26.1341
-25.7901
-25.3858
-24.9026
-24.345
-23.6999
-22.9712
-22.1593
-21.2723
-20.3225
-19.3208
-18.2867
-17.2334
-16.1822
-15.144
-14.1369
-13.1699
-12.2563
-11.4017
-10.6127
-9.88962
-9.23083
-8.6346
-8.09598
-7.61343
-7.18411
-6.80683
-6.47921
-6.20057
-19.8723
-20.0993
-20.1521
-19.9496
-19.483
-18.8328
-18.1322
-17.5285
-17.1734
-17.1403
-17.3954
-17.7649
-18.0457
-18.0462
-17.6847
-16.9541
-15.9519
-14.8041
-13.6884
-12.7535
-12.1065
-11.7315
-11.5539
-11.4532
-11.3513
-11.1988
-11.0072
-10.7989
-10.6133
-10.4653
-10.3584
-10.2776
-10.2013
-10.1123
-9.98816
-9.82441
-9.60263
-9.32983
-8.99542
-8.61519
-8.18428
-7.72492
-7.2391
-6.74938
-6.26056
-5.79266
-5.35145
-4.95084
-4.59253
-4.2855
-12.2959
-11.9111
-11.3036
-10.4646
-9.43667
-8.31504
-7.1854
-6.14629
-5.26881
-4.63914
-4.263
-4.11909
-4.08532
-4.06937
-3.94244
-3.66594
-3.19732
-2.59647
-1.91004
-1.25693
-0.681919
-0.229019
0.175365
0.571601
1.04225
1.57013
2.15417
2.71503
3.2251
3.62344
3.91631
4.08478
4.15961
4.14014
4.05336
3.9029
3.71153
3.48589
)
;

boundaryField
{
    inlet
    {
        type            freestreamPressure;
        freestreamValue uniform 0;
        value           nonuniform List<scalar> 
11
(
-1.97122
-1.81512
-1.81472
-1.83466
-1.84457
-1.83746
-1.81946
-1.80438
-1.81322
-1.82439
-1.97783
)
;
    }
    outlet
    {
        type            freestreamPressure;
        freestreamValue nonuniform List<scalar> 0();
        value           nonuniform List<scalar> 0();
    }
    walls
    {
        type            zeroGradient;
    }
    frontAndBack
    {
        type            empty;
    }
    procBoundary6to2
    {
        type            processor;
        value           nonuniform List<scalar> 
13
(
24.3002
20.9654
24.1117
30.7147
32.0925
26.4913
16.138
-2.1574
-16.452
-38.9245
-41.0936
-19.7073
-12.3864
)
;
    }
    procBoundary6to3
    {
        type            processor;
        value           uniform 5.76542;
    }
    procBoundary6to5
    {
        type            processor;
        value           nonuniform List<scalar> 
86
(
-474.161
-477.913
-486.22
-496.875
-508.796
-521.346
-534.128
-546.69
-558.662
-570.129
-581.301
-591.748
-600.417
-606.329
-608.104
-603.953
-591.357
-568.229
-534.154
-491.827
-445.639
-399.992
-357.859
-320.772
-288.835
-261.52
-238.086
-217.826
-200.158
-184.625
-170.866
-158.645
-147.659
-147.659
-138.798
-130.743
-123.146
-116.018
-109.253
-102.895
-96.8375
-91.127
-85.6749
-80.5079
-75.5976
-70.9404
-70.9404
-67.7118
-63.5054
-59.536
-55.8263
-52.3237
-49.0364
-45.9232
-42.9732
-40.1566
-40.1566
-37.7149
-35.1519
-32.7133
-30.3893
-28.1792
-26.0687
-24.0654
-24.0654
-22.2509
-20.4538
-18.7674
-17.2033
-15.7576
-14.435
-13.4058
-13.4058
-12.7107
-11.8802
-11.0421
-10.1926
-9.32703
-8.46434
-7.52893
-6.72011
-5.48049
-5.48049
-4.99066
-2.70818
-3.98593
)
;
    }
    procBoundary6to7
    {
        type            processor;
        value           nonuniform List<scalar> 
91
(
-4.41774
-4.41774
-0.775045
-0.775045
-2.89698
-2.89698
-2.47946
-4.23227
-2.47946
-3.69597
-5.42785
-4.23227
-4.85485
-6.50246
-6.06209
-5.42785
-5.60648
-6.82324
-6.47357
-6.50246
-6.16687
-6.93376
-6.65954
-6.3893
-6.82324
-6.12412
-5.97427
-5.78908
-5.64817
-5.52779
-6.93376
-5.43152
-4.02271
-3.8116
-3.64695
-3.52748
-3.44832
-3.4074
-5.97427
-3.40264
3.25451
3.01342
2.77865
2.55316
2.3409
2.14045
1.95126
1.76789
1.58709
1.40206
1.20862
-4.02271
1.00212
5.96421
6.38994
7.03141
7.77342
8.51289
9.15579
9.66854
10.0168
10.2058
10.2223
10.1081
9.88915
9.63506
9.36964
9.13852
8.93831
8.78372
8.64551
8.51317
8.35874
8.20799
8.09368
8.08771
8.22198
8.5172
8.93514
9.43347
9.94954
10.4451
10.8892
11.2678
11.5742
11.7972
11.9353
11.9723
11.9116
3.25451
11.7434
)
;
    }
}


// ************************************************************************* //
