/*--------------------------------*- C++ -*----------------------------------*\
| =========                 |                                                 |
| \\      /  F ield         | OpenFOAM: The Open Source CFD Toolbox           |
|  \\    /   O peration     | Version:  2306                                  |
|   \\  /    A nd           | Website:  www.openfoam.com                      |
|    \\/     M anipulation  |                                                 |
\*---------------------------------------------------------------------------*/
FoamFile
{
    version     2.0;
    format      ascii;
    arch        "LSB;label=32;scalar=64";
    class       volScalarField;
    location    "25";
    object      turbulenceProperties:epsilon;
}
// * * * * * * * * * * * * * * * * * * * * * * * * * * * * * * * * * * * * * //

dimensions      [0 2 -3 0 0 0 0];

internalField   nonuniform List<scalar> 
1340
(
736.682
354.545
106.983
21.4437
5.62562
6.75295
3.90014
2.51384
2.69378
3.56105
2.17096
1.06816
1.42362
2.17459
1.48544
0.505663
1.50136
2.03111
1.34851
0.372246
2.0954
2.17805
1.33292
0.448396
3.12958
2.52359
1.38275
0.638465
4.54093
3.09944
1.49452
0.84679
6.22943
3.8208
1.65421
1.02101
8.16041
4.57474
1.85113
1.18256
10.054
5.29211
2.08362
1.33417
11.5577
5.91072
2.33424
1.47213
13.8342
6.57012
2.5905
1.59466
17.3622
7.258
2.82656
1.68942
20.5945
7.76169
2.98804
1.7444
21.1058
7.70177
2.98341
1.72878
17.9021
6.77768
2.71141
1.60172
12.4731
5.09771
2.14924
1.33391
6.99246
3.1966
1.43358
0.953627
2.95335
1.62679
0.785642
0.567197
0.966473
0.685498
0.354347
0.274765
0.360718
0.267796
0.138143
0.109198
0.199674
0.110129
0.0526358
0.0388273
0.103805
0.0461392
0.0204494
0.0131781
0.0410526
0.0182315
0.00772568
0.00466613
0.0120655
0.00597229
0.00276303
0.00174987
0.00278741
0.00163473
0.000880171
0.000624389
0.000507121
0.000374056
0.000242267
0.000202611
3.23511e-05
5.16788e-05
4.94008e-05
5.79144e-05
7.13826e-07
2.16589e-06
3.91174e-06
9.9754e-06
1.58029e-06
1.54375e-06
1.49669e-06
1.99879e-06
2.99315e-06
2.36841e-06
1.77611e-06
1.37162e-06
3.15198e-06
2.60047e-06
1.95698e-06
1.35887e-06
2.61638e-06
2.62923e-06
2.29629e-06
1.8093e-06
1.28391e-06
1.97049e-06
2.04139e-06
1.85803e-06
1.52504e-06
1.12384e-06
1.48509e-06
1.5608e-06
1.45806e-06
1.23506e-06
9.40491e-07
1.12657e-06
1.19206e-06
1.13423e-06
9.85881e-07
7.71185e-07
8.60191e-07
9.13054e-07
8.80519e-07
7.82076e-07
6.26487e-07
6.60395e-07
7.00609e-07
6.82771e-07
6.17925e-07
5.06094e-07
5.09723e-07
5.39347e-07
5.29007e-07
4.86174e-07
4.06196e-07
3.95601e-07
4.16309e-07
4.10169e-07
3.81791e-07
3.24709e-07
3.07781e-07
3.22531e-07
3.18464e-07
2.99658e-07
2.58911e-07
2.40049e-07
2.50005e-07
2.47506e-07
2.3529e-07
2.06308e-07
1.87125e-07
1.9402e-07
1.9246e-07
1.84723e-07
1.64178e-07
1.46121e-07
1.50746e-07
1.49742e-07
1.44924e-07
1.3047e-07
1.09167e-07
1.14296e-07
1.17464e-07
1.16786e-07
1.13761e-07
1.03532e-07
8.59498e-08
8.9468e-08
9.18514e-08
9.14263e-08
8.95007e-08
8.21544e-08
6.75856e-08
7.02017e-08
7.19716e-08
7.17347e-08
7.05488e-08
6.51881e-08
5.31276e-08
5.50167e-08
5.63839e-08
5.63478e-08
5.56732e-08
5.1714e-08
4.16621e-08
4.30862e-08
4.41454e-08
4.42304e-08
4.39122e-08
4.09625e-08
3.27192e-08
3.37127e-08
3.45108e-08
3.46657e-08
3.4562e-08
3.23613e-08
2.57019e-08
2.64301e-08
2.70327e-08
2.71706e-08
2.71545e-08
2.5482e-08
2.02804e-08
2.0806e-08
2.12331e-08
2.13347e-08
2.13312e-08
2.00362e-08
1.60634e-08
1.64502e-08
1.67516e-08
1.68021e-08
1.67914e-08
1.57652e-08
1.23861e-08
1.27433e-08
1.30367e-08
1.32496e-08
1.32772e-08
1.32642e-08
1.24387e-08
9.8425e-09
1.00984e-08
1.03307e-08
1.04986e-08
1.05318e-08
1.05242e-08
9.8497e-09
7.81084e-09
8.01073e-09
8.19363e-09
8.33114e-09
8.36906e-09
8.37282e-09
7.8206e-09
6.20478e-09
6.35769e-09
6.49985e-09
6.60574e-09
6.65178e-09
6.67335e-09
6.22056e-09
4.9307e-09
5.04039e-09
5.14634e-09
5.23394e-09
5.28721e-09
5.32214e-09
4.9506e-09
3.91032e-09
3.99246e-09
4.07288e-09
4.14296e-09
4.19659e-09
4.24222e-09
3.94635e-09
3.09752e-09
3.15605e-09
3.22005e-09
3.2762e-09
3.32882e-09
3.37852e-09
3.1421e-09
2.39834e-09
2.44162e-09
2.49593e-09
2.54385e-09
2.58833e-09
2.63583e-09
2.68392e-09
2.49448e-09
1.87946e-09
1.91719e-09
1.96547e-09
2.00541e-09
2.04117e-09
2.08197e-09
2.12838e-09
1.97321e-09
1.46226e-09
1.49618e-09
1.53867e-09
1.57215e-09
1.60262e-09
1.6394e-09
1.682e-09
1.55481e-09
1.12713e-09
1.15743e-09
1.19635e-09
1.22466e-09
1.25069e-09
1.28504e-09
1.32333e-09
1.21985e-09
8.63579e-10
8.85196e-10
9.165e-10
9.39107e-10
9.60199e-10
9.89305e-10
1.02254e-09
9.36221e-10
6.86674e-10
7.00195e-10
7.24018e-10
7.40211e-10
7.56489e-10
7.82484e-10
8.09842e-10
7.35568e-10
5.60087e-10
5.67901e-10
5.85905e-10
5.99788e-10
6.16379e-10
6.43247e-10
6.66861e-10
6.0256e-10
4.48073e-10
4.45596e-10
4.55845e-10
4.60549e-10
4.71485e-10
4.8763e-10
5.1386e-10
5.37637e-10
4.81505e-10
3.63953e-10
3.55592e-10
3.59621e-10
3.59835e-10
3.65681e-10
3.7747e-10
3.99646e-10
4.20509e-10
3.73995e-10
3.01669e-10
2.90713e-10
2.90625e-10
2.863e-10
2.86996e-10
2.92607e-10
3.07385e-10
3.22136e-10
2.81954e-10
2.52783e-10
2.42477e-10
2.40787e-10
2.34553e-10
2.31883e-10
2.32679e-10
2.40884e-10
2.50366e-10
2.14717e-10
2.04875e-10
1.95773e-10
1.93412e-10
1.86562e-10
1.82107e-10
1.79672e-10
1.82799e-10
1.86865e-10
1.53675e-10
1.75859e-10
1.69082e-10
1.66822e-10
1.60011e-10
1.54967e-10
1.51257e-10
1.52242e-10
1.55859e-10
1.28901e-10
1.26747e-10
1.21119e-10
1.1896e-10
1.1182e-10
1.06217e-10
1.016e-10
1.00302e-10
1.01102e-10
7.82008e-11
1.3556e-10
1.30767e-10
1.28064e-10
1.19327e-10
1.12016e-10
1.06032e-10
1.03881e-10
1.07875e-10
9.20834e-11
7.80252e-11
7.54192e-11
7.24042e-11
6.55584e-11
5.9392e-11
5.37754e-11
5.00313e-11
5.17339e-11
4.24761e-11
1.77606e-10
1.718e-10
1.7168e-10
1.6487e-10
1.56004e-10
1.46625e-10
1.37112e-10
1.30204e-10
1.33493e-10
1.17409e-10
1.22154e-10
1.26769e-10
1.27492e-10
1.25143e-10
1.22636e-10
1.21227e-10
1.21751e-10
1.27687e-10
1.42989e-10
1.44494e-10
5.61499e-10
4.29575e-10
4.48489e-10
4.61444e-10
4.71859e-10
4.81117e-10
4.87752e-10
4.96173e-10
5.0739e-10
3.60324e-10
47.3402
50.3786
38.2657
25.0807
14.8239
3.32292
1.06512
2.93244
1.98103
1.42433
1.23091
1.14937
1.10537
1.06632
1.01373
0.931994
0.804444
0.625396
0.418606
0.234448
0.108893
0.0427475
0.0147701
0.00468206
0.00151423
0.000550445
0.000207085
7.38756e-05
2.23626e-05
4.07308e-06
1.2422e-06
9.71606e-07
9.56875e-07
9.03041e-07
8.01451e-07
6.85595e-07
5.76089e-07
4.7979e-07
3.96738e-07
3.25425e-07
2.65445e-07
2.15697e-07
1.74955e-07
1.41522e-07
1.14211e-07
9.19496e-08
7.39369e-08
5.93306e-08
4.74985e-08
3.78859e-08
3.01025e-08
2.38103e-08
1.88025e-08
1.48538e-08
1.17606e-08
9.33191e-09
7.4194e-09
5.90289e-09
4.69777e-09
3.73807e-09
2.97244e-09
2.35593e-09
1.85745e-09
1.45709e-09
1.13691e-09
8.64802e-10
6.69484e-10
5.43761e-10
4.28522e-10
3.28689e-10
2.39926e-10
1.77172e-10
1.15983e-10
9.84337e-11
4.67015e-11
7.01307e-11
2.2567e-11
9.00217e-11
1.33453e-10
3.18828e-10
4.95577
28.9434
48.7662
44.526
27.9892
12.1049
1.76756
0.682534
1.08055
0.882843
0.770035
0.710406
0.664342
0.612874
0.547295
0.464241
0.364966
0.257187
0.156794
0.0811476
0.0354211
0.0131894
0.00431362
0.00129593
0.000410192
0.00015423
6.28986e-05
2.46705e-05
7.52704e-06
1.61154e-06
7.22313e-07
6.32945e-07
6.31119e-07
6.03024e-07
5.47559e-07
4.81827e-07
4.16335e-07
3.55948e-07
3.01538e-07
2.53196e-07
2.11097e-07
1.75184e-07
1.44837e-07
1.19217e-07
9.77464e-08
7.98663e-08
6.50889e-08
5.28706e-08
4.27743e-08
3.44373e-08
2.75999e-08
2.203e-08
1.75604e-08
1.40113e-08
1.12061e-08
8.97929e-09
7.20631e-09
5.78149e-09
4.63566e-09
3.71242e-09
2.96874e-09
2.36377e-09
1.87305e-09
1.47619e-09
1.15697e-09
8.84794e-10
6.83677e-10
5.52092e-10
4.34565e-10
3.34717e-10
2.44031e-10
1.79667e-10
1.15105e-10
9.7492e-11
4.22454e-11
6.76387e-11
1.587e-11
8.46364e-11
1.40114e-10
0.442313
7.97753
26.9272
38.4487
33.4618
20.4351
7.18414
0.412348
0.648429
0.816623
0.648177
0.549763
0.4777
0.412488
0.344446
0.271839
0.197792
0.129253
0.0736323
0.0359636
0.0149668
0.00533861
0.0016595
0.000472273
0.000144231
5.45046e-05
2.32671e-05
9.61164e-06
2.87635e-06
7.74808e-07
4.50649e-07
4.22844e-07
4.26989e-07
4.13655e-07
3.83266e-07
3.45086e-07
3.04659e-07
2.65956e-07
2.29745e-07
1.9663e-07
1.6688e-07
1.40858e-07
1.18216e-07
9.86178e-08
8.1811e-08
6.75871e-08
5.56497e-08
4.56429e-08
3.72545e-08
3.02532e-08
2.44585e-08
1.9712e-08
1.58815e-08
1.28284e-08
1.03947e-08
8.44598e-09
6.87111e-09
5.59159e-09
4.5423e-09
3.68024e-09
2.97696e-09
2.39728e-09
1.92129e-09
1.53011e-09
1.21186e-09
9.38458e-10
7.28631e-10
5.86795e-10
4.64186e-10
3.61926e-10
2.66595e-10
1.9785e-10
1.26809e-10
1.06047e-10
4.54819e-11
7.01188e-11
1.20637e-11
8.51314e-11
0.0203041
1.454
9.87229
22.505
28.0377
23.6273
13.6899
3.67976
0.0522213
0.35781
0.541315
0.521589
0.455373
0.373253
0.29022
0.213678
0.145797
0.0900935
0.0490754
0.0231897
0.00942625
0.00330111
0.00100509
0.000278275
8.20999e-05
3.02652e-05
1.29116e-05
5.29981e-06
1.54545e-06
5.01096e-07
3.34957e-07
3.22227e-07
3.23936e-07
3.13608e-07
2.91949e-07
2.64925e-07
2.35826e-07
2.07778e-07
1.81197e-07
1.56637e-07
1.34209e-07
1.14321e-07
9.66991e-08
8.12411e-08
6.78349e-08
5.6403e-08
4.6751e-08
3.86269e-08
3.17799e-08
2.60335e-08
2.12563e-08
1.7329e-08
1.41452e-08
1.15926e-08
9.54044e-09
7.87761e-09
6.51637e-09
5.38603e-09
4.44273e-09
3.65455e-09
2.99491e-09
2.44161e-09
1.97997e-09
1.59582e-09
1.2778e-09
1.00012e-09
7.81857e-10
6.27041e-10
4.99327e-10
3.94636e-10
2.9342e-10
2.19039e-10
1.40893e-10
1.16349e-10
5.05194e-11
7.46934e-11
9.54927e-12
0.00164706
0.11724
2.42696
9.91403
18.5022
21.5974
17.5912
9.28697
1.98516
0.0149189
0.247559
0.33021
0.323857
0.291466
0.238363
0.177196
0.119735
0.0726816
0.0388202
0.0179863
0.00719058
0.00248872
0.000753226
0.000206732
5.94928e-05
2.13124e-05
9.0281e-06
3.65813e-06
1.0752e-06
3.99054e-07
2.85143e-07
2.7338e-07
2.70583e-07
2.59008e-07
2.39468e-07
2.16259e-07
1.91879e-07
1.68799e-07
1.4723e-07
1.27454e-07
1.09401e-07
9.33705e-08
7.91315e-08
6.66425e-08
5.58014e-08
4.6577e-08
3.88121e-08
3.22928e-08
2.68057e-08
2.21985e-08
1.83616e-08
1.51938e-08
1.26095e-08
1.0517e-08
8.81193e-09
7.4059e-09
6.22938e-09
5.23452e-09
4.38673e-09
3.65759e-09
3.03544e-09
2.50223e-09
2.05003e-09
1.66758e-09
1.34511e-09
1.0631e-09
8.35927e-10
6.69757e-10
5.36279e-10
4.2749e-10
3.21212e-10
2.41192e-10
1.56008e-10
1.26987e-10
5.66321e-11
8.20474e-11
0.000535293
0.000545363
0.287816
2.96015
9.32323
15.876
18.0749
14.3911
6.93656
1.08
0.0596764
0.255801
0.258517
0.221578
0.180355
0.134585
0.0904428
0.054339
0.0287561
0.0131841
0.0052162
0.00178763
0.000537397
0.000145262
4.01457e-05
1.38012e-05
5.88282e-06
2.44406e-06
7.64256e-07
3.14452e-07
2.33167e-07
2.22869e-07
2.19081e-07
2.0872e-07
1.92386e-07
1.73081e-07
1.53078e-07
1.34323e-07
1.17057e-07
1.0132e-07
8.69923e-08
7.42754e-08
6.30115e-08
5.31837e-08
4.46991e-08
3.75227e-08
3.15154e-08
2.65007e-08
2.22921e-08
1.87534e-08
1.57944e-08
1.33321e-08
1.13001e-08
9.62476e-09
8.22684e-09
7.04647e-09
6.02876e-09
5.14371e-09
4.36864e-09
3.68956e-09
3.09251e-09
2.56942e-09
2.11975e-09
1.73457e-09
1.40715e-09
1.11984e-09
8.85017e-10
7.08412e-10
5.68827e-10
4.5665e-10
3.45763e-10
2.60741e-10
1.69431e-10
1.36491e-10
0.000269813
0.000982157
0.00363332
0.367256
2.70533
7.65624
12.7148
14.4458
11.2632
4.93751
0.581159
0.126644
0.236649
0.211064
0.160348
0.110435
0.0696588
0.0396815
0.0201198
0.00892978
0.00343399
0.00114344
0.000332515
8.55982e-05
2.15676e-05
6.66801e-06
2.76924e-06
1.21634e-06
4.24013e-07
1.92332e-07
1.48558e-07
1.44662e-07
1.44691e-07
1.4018e-07
1.31144e-07
1.19325e-07
1.0654e-07
9.42913e-08
8.2936e-08
7.24606e-08
6.27912e-08
5.40965e-08
4.63502e-08
3.95754e-08
3.37139e-08
2.87571e-08
2.46078e-08
2.11348e-08
1.81983e-08
1.56979e-08
1.35716e-08
1.17615e-08
1.02279e-08
8.92092e-09
7.79317e-09
6.79967e-09
5.90896e-09
5.10886e-09
4.38887e-09
3.73937e-09
3.1545e-09
2.63424e-09
2.18264e-09
1.79039e-09
1.4566e-09
1.16472e-09
9.22496e-10
7.38443e-10
5.93867e-10
4.78788e-10
3.65275e-10
2.76943e-10
0
0.000716659
0.00167173
0.00471829
0.318473
2.16796
5.96637
9.849
11.1757
8.51057
3.36383
0.260453
0.121899
0.156745
0.130565
0.0955553
0.0586942
0.0321805
0.0157262
0.00679978
0.00259562
0.000878789
0.00026801
7.45827e-05
1.96895e-05
5.53519e-06
1.84284e-06
6.75267e-07
2.24037e-07
1.00864e-07
7.69742e-08
7.47331e-08
7.5517e-08
7.4386e-08
7.09451e-08
6.57347e-08
5.98009e-08
5.39625e-08
4.85447e-08
4.34651e-08
3.86733e-08
3.42524e-08
3.02339e-08
2.66588e-08
2.35205e-08
2.08254e-08
1.85243e-08
1.65471e-08
1.48077e-08
1.32511e-08
1.18538e-08
1.0596e-08
9.47191e-09
8.45605e-09
7.5322e-09
6.67324e-09
5.87247e-09
5.12304e-09
4.43362e-09
3.79565e-09
3.21212e-09
2.6878e-09
2.22654e-09
1.82846e-09
1.48907e-09
1.19274e-09
9.46918e-10
7.59027e-10
6.10219e-10
0
0
0.000841571
0.0029527
0.00220905
0.165308
1.27853
3.7561
6.51494
7.7124
6.12274
2.61454
0.285004
0.0335106
0.0721907
0.0581585
0.0487632
0.0314288
0.0162271
0.00711589
0.00275765
0.000968577
0.000311974
9.13307e-05
2.39708e-05
5.97127e-06
1.63096e-06
5.02488e-07
1.50862e-07
6.231e-08
4.39879e-08
4.03254e-08
3.92236e-08
3.76791e-08
3.54356e-08
3.26878e-08
2.98538e-08
2.72993e-08
2.51771e-08
2.33775e-08
2.17644e-08
2.02907e-08
1.8936e-08
1.77035e-08
1.65763e-08
1.55546e-08
1.46124e-08
1.37133e-08
1.2814e-08
1.18986e-08
1.09772e-08
1.00636e-08
9.17239e-09
8.31637e-09
7.48899e-09
6.69008e-09
5.91114e-09
5.17706e-09
4.48647e-09
3.84305e-09
3.25006e-09
2.71703e-09
2.24942e-09
1.84579e-09
1.50191e-09
1.20386e-09
2.99356e-16
0
0
0.00058426
0.00157443
0.00204788
0.103072
0.833937
2.56253
4.56088
5.48995
4.4977
2.15988
0.385847
0.00289227
0.0334457
0.0246222
0.0190175
0.0134384
0.00727182
0.00324914
0.00127349
0.000445176
0.000137388
3.66151e-05
8.57187e-06
1.9603e-06
4.95891e-07
1.36063e-07
5.39009e-08
3.74285e-08
3.40685e-08
3.27474e-08
3.08464e-08
2.84754e-08
2.59162e-08
2.356e-08
2.16162e-08
2.01758e-08
1.91016e-08
1.82517e-08
1.7525e-08
1.68634e-08
1.62432e-08
1.56434e-08
1.50477e-08
1.44293e-08
1.3761e-08
1.30173e-08
1.21904e-08
1.13091e-08
1.03921e-08
9.47923e-09
8.58666e-09
7.71203e-09
6.85596e-09
6.03427e-09
5.25831e-09
4.5404e-09
3.87124e-09
3.26331e-09
2.71989e-09
1.05173e-09
3.13605e-12
0
0
0.000324086
0.00192023
0.00807643
0.0742289
0.604456
1.93261
3.48094
4.1784
3.436
1.74055
0.383014
0.00529643
0.0187199
0.013681
0.00681683
0.00475109
0.00287814
0.00144859
0.000617521
0.000224649
7.09765e-05
2.04204e-05
5.75123e-06
1.65712e-06
4.50545e-07
1.50176e-07
8.79535e-08
7.39148e-08
6.89239e-08
6.38786e-08
5.78791e-08
5.15993e-08
4.58576e-08
4.08783e-08
3.67542e-08
3.33184e-08
3.03975e-08
2.78421e-08
2.55698e-08
2.35453e-08
2.17165e-08
2.00584e-08
1.85215e-08
1.70666e-08
1.56534e-08
1.42622e-08
1.29072e-08
1.16063e-08
1.03901e-08
9.2418e-09
8.16839e-09
7.14983e-09
6.2181e-09
5.36468e-06
3.24823e-08
4.66456e-11
0
0
0.000244866
0.00141493
0.00437569
0.0364206
0.390017
1.39094
2.67856
3.37549
2.90691
1.57856
0.405565
0.013852
0.0139642
0.0136257
0.00467696
0.00205952
0.00112916
0.000564878
0.00024088
8.90792e-05
3.03307e-05
1.00611e-05
3.3109e-06
9.88527e-07
3.08848e-07
1.55553e-07
1.19949e-07
1.10542e-07
1.05567e-07
9.91705e-08
9.1009e-08
8.21081e-08
7.33939e-08
6.54303e-08
5.83271e-08
5.18578e-08
4.60568e-08
4.08425e-08
3.6202e-08
3.20713e-08
2.84222e-08
2.51707e-08
2.22856e-08
1.96666e-08
1.73051e-08
3.32765e-06
1.96447e-06
3.06203e-08
8.06443e-11
0
0
0.000132244
0.000644003
0.000972624
0.0201547
0.287274
1.10398
2.25838
3.00972
2.71922
1.52459
0.391829
0.0113858
0.016248
0.0139671
0.00368378
0.00111636
0.000513884
0.000224853
8.51873e-05
2.97671e-05
1.04869e-05
3.82467e-06
1.28399e-06
3.9535e-07
1.78468e-07
1.24829e-07
1.08181e-07
1.0168e-07
9.77491e-08
9.36715e-08
8.85187e-08
8.26411e-08
)
;

boundaryField
{
    inlet
    {
        type            calculated;
        value           nonuniform List<scalar> 
11
(
7.78616e-09
7.00369e-09
7.37172e-09
7.69577e-09
7.97915e-09
8.22316e-09
8.44099e-09
8.63856e-09
8.89225e-09
8.18751e-09
8.81628e-09
)
;
    }
    outlet
    {
        type            calculated;
        value           nonuniform List<scalar> 0();
    }
    walls
    {
        type            calculated;
        value           uniform 0;
    }
    frontAndBack
    {
        type            empty;
    }
    procBoundary6to2
    {
        type            processor;
        value           nonuniform List<scalar> 
13
(
11.5047
0.224102
0.00460911
0.000563204
0.000165411
8.32533e-05
0
0
2.99899e-23
3.99914e-14
8.71729e-07
4.48776e-06
4.24485e-06
)
;
    }
    procBoundary6to3
    {
        type            processor;
        value           uniform 2.87911e-06;
    }
    procBoundary6to5
    {
        type            processor;
        value           nonuniform List<scalar> 
86
(
670.866
28.123
5.35954
2.35949
0.886185
0.760696
0.848775
0.815811
0.768972
1.52262
2.89619
5.27721
12.9225
31.3991
52.2932
57.2764
45.8073
28.8711
13.8664
3.96737
0.416985
0.154152
0.264877
0.170171
0.0632359
0.0162062
0.00302784
0.000379967
6.63005e-07
1.11251e-07
1.79184e-06
3.50604e-06
3.33976e-06
3.33976e-06
2.22856e-06
1.67154e-06
1.26832e-06
9.72612e-07
7.51703e-07
5.85138e-07
4.5787e-07
3.5993e-07
2.83631e-07
2.23658e-07
1.76258e-07
1.38716e-07
1.38716e-07
1.0301e-07
8.16078e-08
6.44651e-08
5.08456e-08
4.00605e-08
3.15688e-08
2.49062e-08
1.96812e-08
1.56057e-08
1.56057e-08
1.20313e-08
9.58156e-09
7.62355e-09
6.06776e-09
4.83271e-09
3.8416e-09
3.04569e-09
3.04569e-09
2.36717e-09
1.85561e-09
1.44129e-09
1.11422e-09
8.60345e-10
6.87765e-10
5.64026e-10
5.64026e-10
4.68041e-10
3.87959e-10
3.26431e-10
2.74465e-10
2.22934e-10
1.898e-10
1.38285e-10
1.4673e-10
8.28136e-11
8.28136e-11
1.61315e-10
1.33566e-10
3.43822e-10
)
;
    }
    procBoundary6to7
    {
        type            processor;
        value           nonuniform List<scalar> 
91
(
3.14932e-10
3.14932e-10
1.34963e-10
1.34963e-10
8.72084e-11
8.72084e-11
9.20526e-12
6.25161e-11
9.20526e-12
8.95486e-11
1.81015e-10
6.25161e-11
1.44465e-10
4.94283e-10
3.79254e-10
1.81015e-10
2.89987e-10
9.59044e-10
7.6828e-10
4.94283e-10
6.1833e-10
2.24722e-09
1.8388e-09
1.49363e-09
9.59044e-10
1.19743e-09
5.35571e-09
4.58083e-09
3.87086e-09
3.24153e-09
2.24722e-09
2.68754e-09
1.51717e-08
1.32533e-08
1.15413e-08
1.00287e-08
8.66246e-09
7.44277e-09
5.35571e-09
6.36073e-09
7.64013e-08
6.97319e-08
6.30784e-08
5.65652e-08
5.03445e-08
4.45047e-08
3.91565e-08
3.42816e-08
2.99139e-08
2.60038e-08
2.25162e-08
1.51717e-08
1.94359e-08
2.94822e-06
2.65048e-06
6.75528e-08
1.49582e-10
0
0
6.31459e-05
0.000334466
0.000758869
0.00817938
0.149298
0.662513
1.54577
2.33305
2.36592
1.47966
0.436937
0.0228751
0.0104237
0.0114064
0.0027744
0.000626853
0.000282358
0.000116863
3.85655e-05
1.16815e-05
3.83704e-06
1.40091e-06
4.49809e-07
1.70339e-07
1.10938e-07
9.32257e-08
8.15442e-08
7.25082e-08
6.62188e-08
6.22221e-08
7.64013e-08
5.95891e-08
)
;
    }
}


// ************************************************************************* //
