/*--------------------------------*- C++ -*----------------------------------*\
| =========                 |                                                 |
| \\      /  F ield         | OpenFOAM: The Open Source CFD Toolbox           |
|  \\    /   O peration     | Version:  2306                                  |
|   \\  /    A nd           | Website:  www.openfoam.com                      |
|    \\/     M anipulation  |                                                 |
\*---------------------------------------------------------------------------*/
FoamFile
{
    version     2.0;
    format      ascii;
    arch        "LSB;label=32;scalar=64";
    class       volScalarField;
    location    "25";
    object      turbulenceProperties:I;
}
// * * * * * * * * * * * * * * * * * * * * * * * * * * * * * * * * * * * * * //

dimensions      [0 0 0 0 0 0 0];

internalField   nonuniform List<scalar> 
1340
(
0.218452
0.20106
0.167646
0.220983
0.0674479
0.0820601
0.0866586
0.16811
0.0570987
0.0796741
0.100051
0.167487
0.0524234
0.084383
0.124237
0.160365
0.062311
0.1042
0.167829
0.173898
0.0814163
0.134322
0.233077
0.220564
0.11144
0.182166
0.321747
0.30075
0.15802
0.261881
0.371164
0.374434
0.235187
0.380434
0.316243
0.340593
0.378666
0.438092
0.243268
0.259951
0.655457
0.35633
0.191668
0.198952
0.788438
0.268471
0.15718
0.158652
0.537892
0.210173
0.132766
0.130808
0.362223
0.17066
0.114211
0.110411
0.258795
0.140899
0.0988051
0.0943323
0.189068
0.116039
0.0849858
0.0807712
0.138061
0.093775
0.0716706
0.0684204
0.0995182
0.0735605
0.0585478
0.0566059
0.0698302
0.0556151
0.0458908
0.0451238
0.0466199
0.0402252
0.0343397
0.0344283
0.0298282
0.0279814
0.0245385
0.0249926
0.0200307
0.0191986
0.0169245
0.0172772
0.0149082
0.0133186
0.011555
0.0115602
0.0107692
0.00914177
0.00781138
0.00755611
0.00712856
0.00604819
0.00509801
0.00489031
0.00422176
0.00368782
0.00319432
0.00313908
0.0022416
0.00207226
0.00188709
0.00194305
0.00105646
0.00106561
0.00103953
0.00114617
0.000374964
0.000472391
0.000523324
0.000645956
0.000147446
0.000199854
0.000245431
0.000340987
0.000178856
0.000185491
0.000194149
0.000220362
0.000210718
0.000206883
0.000202596
0.00020013
0.000216037
0.000213291
0.000207945
0.000199167
0.000204865
0.000208865
0.000208326
0.000204453
0.000196006
0.000193182
0.000198113
0.000198956
0.000196406
0.000189301
0.000181996
0.00018703
0.000188465
0.000186779
0.000180813
0.000171578
0.000176382
0.000178062
0.000176974
0.000171865
0.00016188
0.000166345
0.000168085
0.000167419
0.000163019
0.000152824
0.000156846
0.000158562
0.000158216
0.000154449
0.000144365
0.000147925
0.000149498
0.000149357
0.000146129
0.000136479
0.000139525
0.00014093
0.000140923
0.000138151
0.000129027
0.00013166
0.00013286
0.000132943
0.000130553
0.000121998
0.000124199
0.000125248
0.000125422
0.000123374
0.000115283
0.000117149
0.000118057
0.000118318
0.000116572
0.000108938
0.00011049
0.000111269
0.000111591
0.000110122
0.000101359
0.000102946
0.000104251
0.000104911
0.000105256
0.000104003
9.59369e-05
9.72667e-05
9.84188e-05
9.89896e-05
9.93297e-05
9.82325e-05
9.07436e-05
9.19253e-05
9.29359e-05
9.34372e-05
9.37761e-05
9.27878e-05
8.57981e-05
8.68246e-05
8.77313e-05
8.82054e-05
8.8552e-05
8.76449e-05
8.10482e-05
8.19695e-05
8.27864e-05
8.32385e-05
8.36034e-05
8.27598e-05
7.65689e-05
7.73487e-05
7.80733e-05
7.85093e-05
7.88845e-05
7.80992e-05
7.23227e-05
7.30068e-05
7.36507e-05
7.40397e-05
7.4395e-05
7.36433e-05
6.83732e-05
6.89652e-05
6.95143e-05
6.98478e-05
7.01545e-05
6.94187e-05
6.46876e-05
6.52063e-05
6.56725e-05
6.5935e-05
6.61864e-05
6.54491e-05
6.06921e-05
6.12139e-05
6.16782e-05
6.20738e-05
6.22872e-05
6.2494e-05
6.17492e-05
5.74534e-05
5.79009e-05
5.83307e-05
5.86908e-05
5.88913e-05
5.90692e-05
5.83112e-05
5.43608e-05
5.47729e-05
5.51689e-05
5.55057e-05
5.57001e-05
5.58665e-05
5.51011e-05
5.144e-05
5.18129e-05
5.21742e-05
5.24768e-05
5.26797e-05
5.28586e-05
5.20902e-05
4.86747e-05
4.89938e-05
4.93127e-05
4.95991e-05
4.98199e-05
5.00178e-05
4.92498e-05
4.60297e-05
4.63128e-05
4.65982e-05
4.68636e-05
4.70951e-05
4.7321e-05
4.65824e-05
4.35116e-05
4.37523e-05
4.4018e-05
4.42645e-05
4.45093e-05
4.47579e-05
4.40457e-05
4.08693e-05
4.10769e-05
4.13343e-05
4.15695e-05
4.17969e-05
4.20445e-05
4.23054e-05
4.1616e-05
3.85252e-05
3.87376e-05
3.9005e-05
3.92337e-05
3.94464e-05
3.96899e-05
3.99682e-05
3.92844e-05
3.62467e-05
3.64724e-05
3.67503e-05
3.69751e-05
3.71853e-05
3.74364e-05
3.77265e-05
3.70467e-05
3.40205e-05
3.42616e-05
3.45642e-05
3.47889e-05
3.4999e-05
3.52693e-05
3.55699e-05
3.48983e-05
3.18799e-05
3.20902e-05
3.23856e-05
3.26017e-05
3.28051e-05
3.30774e-05
3.3385e-05
3.26939e-05
3.01497e-05
3.0308e-05
3.05757e-05
3.07607e-05
3.09464e-05
3.12305e-05
3.15272e-05
3.08082e-05
2.86886e-05
2.87982e-05
2.90355e-05
2.92193e-05
2.94349e-05
2.97689e-05
3.00613e-05
2.93341e-05
2.71513e-05
2.71216e-05
2.72857e-05
2.73666e-05
2.75397e-05
2.77864e-05
2.8169e-05
2.85095e-05
2.77559e-05
2.58012e-05
2.56588e-05
2.57397e-05
2.57533e-05
2.58683e-05
2.60869e-05
2.64763e-05
2.68329e-05
2.60765e-05
2.46427e-05
2.44219e-05
2.44276e-05
2.4345e-05
2.43698e-05
2.44993e-05
2.48157e-05
2.51235e-05
2.43163e-05
2.36006e-05
2.33614e-05
2.33272e-05
2.31827e-05
2.31255e-05
2.31555e-05
2.33682e-05
2.36082e-05
2.27322e-05
2.24152e-05
2.21663e-05
2.21048e-05
2.19134e-05
2.17895e-05
2.17253e-05
2.18291e-05
2.1961e-05
2.09246e-05
2.15969e-05
2.13893e-05
2.13225e-05
2.11077e-05
2.09466e-05
2.08283e-05
2.08712e-05
2.10043e-05
2.00404e-05
1.99194e-05
1.96973e-05
1.96129e-05
1.93167e-05
1.9076e-05
1.8872e-05
1.88189e-05
1.88652e-05
1.77008e-05
2.0276e-05
2.0097e-05
1.9996e-05
1.96505e-05
1.9348e-05
1.90908e-05
1.90003e-05
1.91884e-05
1.8452e-05
1.76809e-05
1.7533e-05
1.73572e-05
1.69343e-05
1.65247e-05
1.61236e-05
1.58401e-05
1.59798e-05
1.52191e-05
2.17317e-05
2.15535e-05
2.15523e-05
2.13384e-05
2.10492e-05
2.07299e-05
2.03903e-05
2.0134e-05
2.02655e-05
1.96308e-05
1.98211e-05
2.00062e-05
2.00353e-05
1.99429e-05
1.98432e-05
1.97872e-05
1.98108e-05
2.00511e-05
2.06336e-05
2.06981e-05
2.90057e-05
2.71315e-05
2.74289e-05
2.76274e-05
2.77851e-05
2.79243e-05
2.80244e-05
2.81481e-05
2.83056e-05
2.59802e-05
0.137549
0.203263
0.307221
0.526726
1
0.733672
0.440993
1
0.428608
0.223576
0.155073
0.120408
0.098738
0.0833238
0.0712167
0.0609564
0.0515876
0.0426022
0.033889
0.0257885
0.0186988
0.0129538
0.00861586
0.00552911
0.00349355
0.00222398
0.00139728
0.000849642
0.000495703
0.00027996
0.0002037
0.000190553
0.00018887
0.000185325
0.00017914
0.000171624
0.000163748
0.00015595
0.00014832
0.000140832
0.000133585
0.000126632
0.000120023
0.000113713
0.0001077
0.000101966
9.65268e-05
9.13459e-05
8.64053e-05
8.16673e-05
7.71246e-05
7.27606e-05
6.86221e-05
6.47308e-05
6.10982e-05
5.77037e-05
5.45268e-05
5.1535e-05
4.87118e-05
4.60419e-05
4.35114e-05
4.10866e-05
3.87457e-05
3.64922e-05
3.43238e-05
3.20797e-05
3.01141e-05
2.86094e-05
2.69742e-05
2.52611e-05
2.33652e-05
2.16743e-05
1.951e-05
1.87396e-05
1.5565e-05
1.72416e-05
1.29968e-05
1.8372e-05
2.02945e-05
2.51971e-05
0.058805
0.115096
0.175773
0.239351
0.304915
0.357096
0.293582
0.195459
0.150597
0.111778
0.0902332
0.0762708
0.0658615
0.057299
0.0497593
0.0427978
0.0361457
0.0296732
0.023444
0.0177297
0.0127884
0.00879982
0.00579352
0.00367409
0.00231202
0.00148767
0.000957991
0.000602833
0.000363107
0.00022503
0.000181791
0.000174842
0.000173734
0.00017086
0.000165947
0.000159953
0.00015353
0.000147033
0.000140546
0.000134098
0.000127766
0.000121635
0.000115728
0.000110021
0.000104524
9.92427e-05
9.41911e-05
8.93424e-05
8.46759e-05
8.01701e-05
7.58318e-05
7.16667e-05
6.77175e-05
6.40096e-05
6.05473e-05
5.73043e-05
5.42603e-05
5.13768e-05
4.86417e-05
4.60399e-05
4.35625e-05
4.11748e-05
3.88718e-05
3.66485e-05
3.45049e-05
3.22883e-05
3.02925e-05
2.87349e-05
2.70824e-05
2.5387e-05
2.34731e-05
2.17569e-05
1.94779e-05
1.86986e-05
1.51824e-05
1.70893e-05
1.19032e-05
1.8094e-05
2.05427e-05
0.0284519
0.0716666
0.120771
0.166804
0.205288
0.230486
0.21824
0.112566
0.0992168
0.0842464
0.0687337
0.0585355
0.0508166
0.0443073
0.0384301
0.0328808
0.0275457
0.0224089
0.0175566
0.0131756
0.00943855
0.00644542
0.00419722
0.00262845
0.00164146
0.00106044
0.00069459
0.00044849
0.000278298
0.000189143
0.000163716
0.000160231
0.000159755
0.000157657
0.000153879
0.000149138
0.000143874
0.000138448
0.00013292
0.000127356
0.000121809
0.00011638
0.000111069
0.000105873
0.000100809
9.59159e-05
9.12084e-05
8.66694e-05
8.22764e-05
7.80241e-05
7.39255e-05
7.00013e-05
6.62923e-05
6.28306e-05
5.9605e-05
5.6591e-05
5.37518e-05
5.10636e-05
4.84919e-05
4.60221e-05
4.36625e-05
4.13789e-05
3.91694e-05
3.70203e-05
3.49416e-05
3.27956e-05
3.08018e-05
2.91954e-05
2.75485e-05
2.59009e-05
2.40081e-05
2.22956e-05
1.99611e-05
1.91008e-05
1.54682e-05
1.72473e-05
1.11156e-05
1.8124e-05
0.0115313
0.042115
0.0822334
0.121664
0.15528
0.179691
0.186823
0.151275
0.0496708
0.0652402
0.0615926
0.0543512
0.047311
0.0407234
0.0347254
0.0292169
0.0241127
0.0193644
0.0150195
0.0111849
0.00796647
0.00541223
0.00350339
0.00217682
0.00134733
0.000866083
0.000569618
0.000371443
0.000235858
0.000171057
0.000153555
0.000151273
0.000150693
0.000148706
0.00014532
0.000141114
0.000136399
0.000131532
0.000126545
0.000121508
0.000116444
0.000111458
0.000106528
0.000101671
9.69152e-05
9.23107e-05
8.78806e-05
8.36189e-05
7.95005e-05
7.55221e-05
7.17016e-05
6.80635e-05
6.46441e-05
6.14696e-05
5.85221e-05
5.57706e-05
5.31795e-05
5.07044e-05
4.83246e-05
4.60283e-05
4.38026e-05
4.16326e-05
3.95194e-05
3.74576e-05
3.54463e-05
3.33538e-05
3.1376e-05
2.97057e-05
2.80742e-05
2.64824e-05
2.46025e-05
2.28793e-05
2.05005e-05
1.9554e-05
1.58831e-05
1.75253e-05
1.04857e-05
0.00485228
0.0194639
0.0510648
0.0860715
0.118434
0.144927
0.161377
0.157589
0.114149
0.0306728
0.0506397
0.047032
0.0422652
0.037306
0.0322242
0.0271941
0.022393
0.0178966
0.013801
0.0102146
0.00723476
0.00489323
0.00315805
0.0019555
0.00120183
0.000767292
0.000505282
0.000331624
0.000215411
0.000163013
0.000148859
0.00014653
0.000145402
0.000143076
0.000139569
0.000135354
0.000130709
0.000125974
0.000121175
0.000116362
0.000111529
0.000106768
0.000102058
9.74272e-05
9.28984e-05
8.85356e-05
8.43661e-05
8.0385e-05
7.6568e-05
7.29087e-05
6.9422e-05
6.61245e-05
6.30443e-05
6.01948e-05
5.75506e-05
5.50738e-05
5.27223e-05
5.04652e-05
4.82775e-05
4.61302e-05
4.40304e-05
4.19582e-05
3.99244e-05
3.79231e-05
3.5948e-05
3.39037e-05
3.19354e-05
3.02247e-05
2.86012e-05
2.70349e-05
2.51797e-05
2.34482e-05
2.10376e-05
1.99927e-05
1.6347e-05
1.79452e-05
0.00213972
0.00402482
0.0257112
0.0555425
0.0865086
0.114758
0.137551
0.149766
0.139509
0.089553
0.0376611
0.0431667
0.0381422
0.0336876
0.0291719
0.0246535
0.0203069
0.0162278
0.0125077
0.00924217
0.00653083
0.00440657
0.00283943
0.00175222
0.00106694
0.000675028
0.000446679
0.000297372
0.00019858
0.000154709
0.000142587
0.00014025
0.000138929
0.00013654
0.000133084
0.000128933
0.000124396
0.000119799
0.000115193
0.000110596
0.000105989
0.000101454
9.69812e-05
9.2611e-05
8.83681e-05
8.43177e-05
8.04864e-05
7.68731e-05
7.34491e-05
7.01981e-05
6.71276e-05
6.42435e-05
6.15607e-05
5.90744e-05
5.67496e-05
5.45536e-05
5.2436e-05
5.03724e-05
4.83407e-05
4.63304e-05
4.43235e-05
4.23137e-05
4.03262e-05
3.83559e-05
3.64046e-05
3.43889e-05
3.2429e-05
3.06808e-05
2.90503e-05
2.75052e-05
2.56643e-05
2.39227e-05
2.14858e-05
2.0364e-05
0.00148019
0.00291092
0.00675407
0.027749
0.0543777
0.0814911
0.106047
0.12516
0.133107
0.118074
0.0681416
0.0389029
0.0357939
0.0310679
0.0270489
0.0226434
0.0183678
0.0144866
0.01107
0.00813799
0.0057255
0.0038444
0.00246203
0.0015045
0.000897726
0.000554713
0.000366098
0.000248661
0.000171575
0.000137053
0.000127632
0.000126176
0.000125581
0.000123983
0.00012133
0.00011791
0.000114055
0.000110095
0.000106122
0.000102136
9.81143e-05
9.41323e-05
9.02075e-05
8.63914e-05
8.27102e-05
7.92316e-05
7.59802e-05
7.29484e-05
7.01005e-05
6.74114e-05
6.4878e-05
6.24921e-05
6.02589e-05
5.81606e-05
5.61675e-05
5.4235e-05
5.23237e-05
5.04224e-05
4.8518e-05
4.65942e-05
4.46396e-05
4.2662e-05
4.06953e-05
3.87243e-05
3.67748e-05
3.47746e-05
3.28058e-05
3.10336e-05
2.93927e-05
2.7856e-05
2.6038e-05
2.4301e-05
0
0.00205987
0.00361369
0.00735883
0.0268599
0.0510684
0.0752131
0.0965342
0.112169
0.11632
0.0980208
0.0493641
0.0328613
0.0262321
0.0227849
0.0203709
0.0168938
0.0133051
0.0100738
0.00735378
0.0051694
0.00349327
0.00227065
0.00141986
0.000860752
0.000521613
0.00032721
0.000213401
0.000145638
0.000116009
0.000107746
0.000106528
0.000106391
0.000105565
0.000103889
0.000101497
9.87067e-05
9.58037e-05
9.29209e-05
9.00255e-05
8.70929e-05
8.41708e-05
8.12907e-05
7.85028e-05
7.58367e-05
7.33417e-05
7.10259e-05
6.88709e-05
6.68262e-05
6.48563e-05
6.29521e-05
6.11053e-05
5.93243e-05
5.75865e-05
5.58773e-05
5.41535e-05
5.24014e-05
5.06019e-05
4.87718e-05
4.68854e-05
4.49458e-05
4.29686e-05
4.09783e-05
3.89976e-05
3.70375e-05
3.50324e-05
3.30631e-05
3.12835e-05
2.96235e-05
0
0
0.00221637
0.00429773
0.00598151
0.0220995
0.0430091
0.0637426
0.0817244
0.0943387
0.096844
0.08158
0.0444999
0.0213437
0.0191521
0.0155984
0.0146754
0.0126277
0.00991688
0.00730913
0.00515393
0.00350981
0.00231295
0.00146766
0.000891631
0.000526472
0.0003156
0.000197636
0.000131277
0.000102073
9.29636e-05
9.06658e-05
8.97668e-05
8.85932e-05
8.6962e-05
8.49429e-05
8.27623e-05
8.06637e-05
7.87876e-05
7.70875e-05
7.54778e-05
7.39324e-05
7.24437e-05
7.10248e-05
6.96688e-05
6.83853e-05
6.71545e-05
6.59394e-05
6.46865e-05
6.33679e-05
6.19857e-05
6.05482e-05
5.90667e-05
5.75541e-05
5.5992e-05
5.43697e-05
5.26556e-05
5.08886e-05
4.90559e-05
4.71561e-05
4.51889e-05
4.31827e-05
4.11683e-05
3.91634e-05
3.71805e-05
3.51676e-05
1.29978e-06
0
0
0.00192856
0.00349173
0.00556718
0.0186846
0.0368132
0.0550254
0.0705508
0.080963
0.0827578
0.0711791
0.0443722
0.0111478
0.0157146
0.0112305
0.00982113
0.00883281
0.00715762
0.00533865
0.00376331
0.00253506
0.00163096
0.000996413
0.000580935
0.000333984
0.000199056
0.000128392
9.8267e-05
8.90323e-05
8.66804e-05
8.55898e-05
8.40883e-05
8.21936e-05
8.00553e-05
7.7951e-05
7.60794e-05
7.45735e-05
7.33598e-05
7.23339e-05
7.14121e-05
7.05436e-05
6.97077e-05
6.8884e-05
6.80553e-05
6.719e-05
6.62517e-05
6.52002e-05
6.40109e-05
6.27026e-05
6.12822e-05
5.97901e-05
5.82395e-05
5.66137e-05
5.48982e-05
5.31065e-05
5.12502e-05
4.93498e-05
4.73738e-05
4.53514e-05
4.32964e-05
3.67072e-05
1.00867e-05
0
0
0.00157178
0.00346205
0.00758568
0.0167655
0.0331778
0.0500901
0.0642732
0.0734006
0.074706
0.0649404
0.0429586
0.0128893
0.0138352
0.00932432
0.00651109
0.00583738
0.00498051
0.00387502
0.00279465
0.00189037
0.00121094
0.000745946
0.000452779
0.000278288
0.000176887
0.000128241
0.000111024
0.000105881
0.000103721
0.000101458
9.86858e-05
9.5603e-05
9.25497e-05
8.96682e-05
8.70693e-05
8.47241e-05
8.25785e-05
8.0571e-05
7.86699e-05
7.68694e-05
7.51459e-05
7.34923e-05
7.18752e-05
7.0262e-05
6.86109e-05
6.68926e-05
6.5113e-05
6.32849e-05
6.14451e-05
5.95682e-05
5.76621e-05
5.56862e-05
5.36964e-05
0.00026342
7.97069e-05
1.82566e-05
0
0
0.00137469
0.00300797
0.00620372
0.0134644
0.0286768
0.0446409
0.0583606
0.067564
0.0697198
0.0620055
0.0431957
0.016679
0.0136192
0.0101623
0.0058913
0.00425029
0.00349128
0.00272934
0.00197371
0.00133638
0.000866607
0.000550304
0.000349027
0.000223867
0.000156945
0.000130058
0.000121216
0.000118322
0.000116554
0.000114339
0.000111512
0.000108295
0.000104935
0.00010162
9.84152e-05
9.52561e-05
9.21821e-05
8.91811e-05
8.62762e-05
8.34623e-05
8.07552e-05
7.81294e-05
7.55912e-05
7.3082e-05
7.06112e-05
0.000236004
0.000204934
7.66467e-05
2.04109e-05
0
0
0.00107273
0.00224333
0.00406469
0.0112201
0.0258473
0.0411906
0.0548926
0.0647278
0.0679735
0.0613378
0.0430076
0.0160221
0.0143034
0.010276
0.00532784
0.00327842
0.00256188
0.00195106
0.00137304
0.000913289
0.000593374
0.000384931
0.000249877
0.0001711
0.00013704
0.000124436
0.000119532
0.00011723
0.000115626
0.000113951
0.000111904
0.000109564
)
;

boundaryField
{
    inlet
    {
        type            calculated;
        value           nonuniform List<scalar> 
11
(
5.60621e-05
5.45965e-05
5.53043e-05
5.59054e-05
5.64168e-05
5.68479e-05
5.72258e-05
5.7562e-05
5.79799e-05
5.67879e-05
5.78502e-05
)
;
    }
    outlet
    {
        type            calculated;
        value           nonuniform List<scalar> 0();
    }
    walls
    {
        type            calculated;
        value           uniform 0;
    }
    frontAndBack
    {
        type            empty;
    }
    procBoundary6to2
    {
        type            processor;
        value           nonuniform List<scalar> 
13
(
0.0734981
0.0233166
0.00739543
0.00338671
0.00133273
0.000949214
0
0
3.6757e-08
3.85952e-06
0.000168046
0.000254844
0.0002512
)
;
    }
    procBoundary6to3
    {
        type            processor;
        value           uniform 0.000228172;
    }
    procBoundary6to5
    {
        type            processor;
        value           nonuniform List<scalar> 
86
(
0.290056
0.0887493
0.0588962
0.0495694
0.040772
0.0434703
0.0508416
0.0575085
0.065136
0.0913912
0.131272
0.192976
0.330901
0.693703
0.843217
0.413788
0.231835
0.141862
0.0880444
0.0505728
0.0236838
0.0156661
0.0154118
0.0117629
0.0076161
0.00429031
0.0020932
0.000843956
0.000139481
9.44162e-05
0.000179758
0.000214238
0.000214832
0.000214832
0.000195756
0.000184334
0.000173918
0.000164392
0.000155573
0.000147391
0.000139734
0.000132552
0.00012575
0.000119261
0.000113039
0.000107062
0.000107062
9.96363e-05
9.44636e-05
8.94652e-05
8.46718e-05
8.00902e-05
7.57385e-05
7.16263e-05
6.77482e-05
6.41215e-05
6.41215e-05
6.01868e-05
5.70102e-05
5.39802e-05
5.11085e-05
4.83918e-05
4.57924e-05
4.32996e-05
4.32996e-05
4.07171e-05
3.83864e-05
3.61024e-05
3.39109e-05
3.18397e-05
3.01524e-05
2.87303e-05
2.87303e-05
2.74424e-05
2.62109e-05
2.51287e-05
2.40872e-05
2.28904e-05
2.20102e-05
2.0356e-05
2.06795e-05
1.79449e-05
1.79449e-05
2.12149e-05
2.02686e-05
2.56604e-05
)
;
    }
    procBoundary6to7
    {
        type            processor;
        value           nonuniform List<scalar> 
91
(
2.51246e-05
2.51246e-05
2.03498e-05
2.03498e-05
1.8237e-05
1.8237e-05
1.03911e-05
1.67605e-05
1.03911e-05
1.83461e-05
2.1855e-05
1.67605e-05
2.06635e-05
2.81046e-05
2.63048e-05
2.1855e-05
2.45991e-05
3.32138e-05
3.14168e-05
2.81046e-05
2.97543e-05
4.12474e-05
3.92035e-05
3.71953e-05
3.32138e-05
3.51767e-05
5.16568e-05
4.96123e-05
4.75085e-05
4.53955e-05
4.12474e-05
4.32719e-05
6.81679e-05
6.57558e-05
6.33855e-05
6.1073e-05
5.87627e-05
5.64699e-05
5.16568e-05
5.41998e-05
0.00010701
0.000104186
0.000101214
9.81209e-05
9.49512e-05
9.1738e-05
8.85377e-05
8.53541e-05
8.22259e-05
7.91472e-05
7.61176e-05
6.81679e-05
7.31564e-05
0.000229432
0.000221603
9.26631e-05
2.36224e-05
0
0
0.000814899
0.0017407
0.00362859
0.00855909
0.0210487
0.0348418
0.0480483
0.0585633
0.0635514
0.0593192
0.0434203
0.018899
0.0127251
0.00964033
0.00467252
0.00246056
0.00193022
0.00148264
0.00102019
0.000658978
0.000421854
0.00027528
0.000182485
0.000137442
0.000122348
0.000116581
0.000112269
0.000108568
0.000105693
0.00010363
0.00010701
0.000102092
)
;
    }
}


// ************************************************************************* //
