/*--------------------------------*- C++ -*----------------------------------*\
| =========                 |                                                 |
| \\      /  F ield         | OpenFOAM: The Open Source CFD Toolbox           |
|  \\    /   O peration     | Version:  2306                                  |
|   \\  /    A nd           | Website:  www.openfoam.com                      |
|    \\/     M anipulation  |                                                 |
\*---------------------------------------------------------------------------*/
FoamFile
{
    version     2.0;
    format      ascii;
    arch        "LSB;label=32;scalar=64";
    class       volSymmTensorField;
    location    "25";
    object      turbulenceProperties:R;
}
// * * * * * * * * * * * * * * * * * * * * * * * * * * * * * * * * * * * * * //

dimensions      [0 2 -2 0 0 0 0];

internalField   nonuniform List<symmTensor> 
1340
(
(30.0545 10.9575 -6.96184e-16 21.8683 8.48774e-15 26.0599)
(17.8214 6.54303 -9.22534e-16 13.0812 -2.43802e-15 15.4921)
(7.28335 2.70311 5.7334e-16 5.45153 -2.14057e-15 6.29786)
(2.85631 1.1611 6.04434e-16 2.38046 3.03916e-15 2.6732)
(1.44917 -0.700623 -4.58884e-15 2.5946 -1.62799e-14 1.99226)
(1.32785 -0.645829 8.67628e-16 2.28911 2.73042e-15 1.75982)
(0.710418 -0.347742 1.71899e-16 1.22535 3.31771e-15 0.950978)
(0.52292 -0.145923 -1.17084e-15 1.25217 -3.21661e-15 0.85318)
(0.803053 -0.377202 2.91075e-15 1.52773 -2.24017e-15 1.15663)
(0.830534 -0.383826 -2.45513e-16 1.54493 -1.69837e-15 1.13659)
(0.530721 -0.248524 -9.86168e-16 0.972491 -2.7992e-15 0.722131)
(0.357508 -0.104691 7.98174e-16 0.866228 -2.29757e-17 0.610053)
(0.559168 -0.275803 9.21636e-16 1.01989 9.83942e-15 0.845341)
(0.650488 -0.307821 5.8764e-17 1.22865 -2.44531e-15 0.936159)
(0.494751 -0.236538 6.49354e-16 0.903507 -1.07886e-15 0.687263)
(0.267947 -0.103475 -2.22141e-16 0.608737 2.76858e-16 0.46057)
(0.641764 -0.313593 -2.07914e-16 1.18645 1.59859e-16 1.00182)
(0.694924 -0.328137 1.38443e-15 1.34065 7.07829e-15 1.0357)
(0.539281 -0.262315 3.92842e-16 0.968429 2.78942e-15 0.751654)
(0.278651 -0.137416 4.34634e-16 0.507389 -2.78661e-16 0.426215)
(0.86852 -0.421179 -1.96011e-15 1.62956 -6.17163e-15 1.36736)
(0.790058 -0.371518 -1.54322e-15 1.54023 -1.79144e-16 1.19484)
(0.592754 -0.291137 -3.3385e-16 1.04463 1.04466e-16 0.819435)
(0.362393 -0.184586 8.21471e-17 0.545603 1.31798e-15 0.46983)
(1.21416 -0.584666 2.93549e-15 2.31251 2.23824e-15 1.91196)
(0.939897 -0.444497 -2.52788e-16 1.82128 -6.69648e-15 1.41991)
(0.659128 -0.327115 -1.72694e-16 1.13293 -8.88483e-16 0.900717)
(0.465615 -0.234142 -4.97134e-17 0.658955 2.86207e-16 0.564237)
(1.65155 -0.7844 -1.82962e-15 3.21511 8.71847e-15 2.6141)
(1.15674 -0.552922 2.5228e-17 2.2031 2.7971e-15 1.72305)
(0.744186 -0.372765 4.37572e-16 1.2427 1.72866e-15 1.00332)
(0.558586 -0.282724 -1.25492e-16 0.793896 -1.01846e-15 0.691611)
(2.14783 -0.995369 2.07156e-16 4.31062 -1.15958e-14 3.44293)
(1.42249 -0.686298 5.02521e-16 2.65685 4.87408e-16 2.07976)
(0.846555 -0.426175 1.28485e-16 1.3753 -2.55581e-16 1.12247)
(0.642107 -0.326016 -5.1954e-16 0.921228 -1.26758e-15 0.806817)
(2.70015 -1.21385 -3.89662e-17 5.58174 6.93319e-15 4.37196)
(1.71231 -0.832313 -2.67436e-16 3.13672 3.74564e-16 2.45711)
(0.965525 -0.487053 -6.06964e-16 1.52887 -2.42813e-15 1.25709)
(0.724864 -0.368213 -1.86652e-16 1.04576 1.22173e-15 0.913769)
(3.27148 -1.44582 1.1246e-15 6.86158 -7.60135e-16 5.3436)
(2.01317 -0.987135 7.02254e-16 3.60439 2.56627e-15 2.83679)
(1.10195 -0.555987 1.4863e-17 1.70019 1.03115e-15 1.407)
(0.808474 -0.410482 4.05468e-16 1.16492 1.38275e-15 1.01663)
(3.80707 -1.70581 -2.22646e-15 7.9001 -1.07195e-14 6.2733)
(2.31304 -1.14654 1.5268e-16 4.02403 -2.82003e-15 3.2025)
(1.25054 -0.630385 9.37936e-17 1.87817 -5.123e-16 1.5658)
(0.891187 -0.451992 5.85884e-16 1.27623 -1.57247e-15 1.11407)
(4.54179 -2.11697 4.38117e-17 9.04114 9.8131e-15 7.37354)
(2.63353 -1.32001 2.18598e-16 4.41411 -3.80093e-15 3.57173)
(1.40416 -0.706389 -9.87051e-16 2.04899 -6.89879e-17 1.7235)
(0.970497 -0.491404 -1.33615e-15 1.37589 7.30272e-16 1.20294)
(5.57827 -2.73035 5.90102e-15 10.3271 -1.33203e-15 8.59914)
(2.9698 -1.50157 -2.25641e-15 4.73273 2.27494e-15 3.91246)
(1.55066 -0.777226 1.30253e-16 2.19126 2.19661e-15 1.86261)
(1.03914 -0.524918 2.02147e-15 1.45488 -9.37602e-16 1.27419)
(6.61341 -3.34648 -7.805e-15 11.1445 -9.41973e-15 9.50054)
(3.26417 -1.6547 2.55324e-15 4.87999 1.35294e-15 4.14021)
(1.66658 -0.830372 1.70744e-15 2.27138 -1.84708e-15 1.95433)
(1.08857 -0.548066 -3.14181e-15 1.50183 2.80144e-16 1.31717)
(7.10458 -3.63113 3.75065e-15 10.7753 9.51017e-15 9.50049)
(3.40352 -1.7147 -4.76683e-16 4.71203 -1.29613e-15 4.12882)
(1.7163 -0.847561 -2.90485e-15 2.24159 -2.31966e-16 1.95907)
(1.10369 -0.553193 9.93786e-16 1.49601 5.46908e-16 1.31445)
(6.7272 -3.39866 2.09076e-15 9.07006 -6.86436e-16 8.40811)
(3.2697 -1.61874 -6.04254e-16 4.13203 6.48125e-18 3.77793)
(1.65473 -0.806487 3.47577e-16 2.05002 2.14147e-15 1.83251)
(1.06458 -0.530348 -9.27095e-16 1.40832 2.29146e-16 1.24414)
(5.60252 -2.72929 2.86287e-16 6.58243 -4.17624e-15 6.53332)
(2.83233 -1.35516 -2.39454e-16 3.20195 1.09643e-15 3.10077)
(1.45731 -0.695781 2.50029e-15 1.68587 -2.33154e-16 1.55833)
(0.954377 -0.471285 9.53369e-16 1.21796 5.9479e-16 1.09021)
(4.07372 -1.84626 -4.94118e-15 4.04238 1.07552e-15 4.38963)
(2.18233 -0.983072 1.66948e-15 2.14945 -3.48674e-16 2.24315)
(1.14884 -0.530016 1.43975e-15 1.21429 -1.24513e-15 1.17715)
(0.77471 -0.3771 2.41771e-15 0.937945 -8.41386e-16 0.85965)
(2.52563 -0.988145 3.81468e-16 1.98177 1.47828e-15 2.45261)
(1.48 -0.598443 -3.43993e-16 1.21712 -6.39817e-16 1.40474)
(0.802819 -0.348575 -4.19863e-16 0.74989 -8.3281e-16 0.777829)
(0.561789 -0.266141 -1.90608e-16 0.626729 -5.70063e-16 0.59922)
(1.36581 -0.372738 -1.47885e-16 0.75432 -6.36482e-16 1.15303)
(0.892931 -0.294546 -7.7826e-16 0.577431 5.17285e-16 0.767674)
(0.498105 -0.193807 -1.40682e-15 0.39269 5.42682e-16 0.448326)
(0.360758 -0.161841 -6.88608e-16 0.355213 1.15569e-16 0.363828)
(0.740031 -0.0640715 -7.92585e-16 0.289415 7.70136e-16 0.546186)
(0.498315 -0.110773 5.73877e-16 0.244168 -1.26073e-16 0.385225)
(0.280343 -0.0892008 2.85335e-16 0.177032 1.46807e-16 0.229856)
(0.205375 -0.083019 -2.67622e-16 0.169792 2.37346e-16 0.191445)
(0.418946 0.0313931 9.6788e-16 0.163008 -9.79497e-18 0.297566)
(0.263275 -0.0271347 -3.7357e-16 0.105553 2.54697e-17 0.187556)
(0.148715 -0.0329502 -1.28105e-16 0.073572 2.94289e-17 0.110874)
(0.106661 -0.0361296 4.25244e-16 0.0712945 -8.4322e-17 0.0903719)
(0.206433 0.0333057 -8.10963e-17 0.0905727 -1.91713e-16 0.148474)
(0.126341 -0.000471028 9.37025e-17 0.0481697 -3.43395e-17 0.0861776)
(0.0729953 -0.00886643 1.04007e-16 0.0304386 -4.06384e-17 0.0504692)
(0.0510529 -0.0132632 -1.63156e-16 0.0276557 1.96537e-17 0.039198)
(0.084459 0.0168687 -3.79108e-17 0.0400438 -2.21126e-19 0.0614859)
(0.053873 0.00292886 -1.05686e-16 0.0210763 1.75387e-17 0.036354)
(0.0315061 -0.00177494 -8.15637e-17 0.012453 2.60983e-17 0.0209841)
(0.0227197 -0.00441143 9.36083e-17 0.0106978 -1.35964e-17 0.0163476)
(0.0279332 0.00593629 -2.28895e-17 0.0136242 1.03106e-17 0.0204574)
(0.0193725 0.00139951 2.81646e-17 0.00768134 2.11862e-17 0.0131131)
(0.0122208 -0.000494685 5.63887e-17 0.00478171 8.13329e-19 0.00813318)
(0.00951552 -0.00158884 -4.23125e-17 0.00425922 4.29972e-18 0.00672727)
(0.00750542 0.00161344 9.00169e-18 0.00367605 2.0991e-18 0.00552021)
(0.00594456 0.000442617 1.95896e-17 0.00235606 -6.24662e-18 0.00404296)
(0.00420561 -0.000182177 6.57441e-20 0.00164037 -3.47981e-18 0.00282016)
(0.0036484 -0.000596737 8.88289e-18 0.00162124 -1.03436e-18 0.00258118)
(0.00159593 0.000340772 1.3798e-18 0.000786951 -8.75605e-19 0.00118128)
(0.00152937 0.000114317 -3.64637e-18 0.000609981 -1.25887e-18 0.00104823)
(0.00125964 -5.77537e-05 7.36477e-19 0.000494205 -7.03925e-19 0.000851655)
(0.0012682 -0.000209986 -6.25979e-18 0.00056693 7.60363e-19 0.00090088)
(0.000168678 2.0436e-05 -1.93238e-19 0.000120556 2.15476e-20 0.000144171)
(0.000267143 1.59965e-05 -3.22094e-19 0.000143419 1.81016e-19 0.000202942)
(0.000297697 -1.13745e-05 -9.17827e-19 0.000142283 1.33715e-19 0.000215625)
(0.000396695 -6.25112e-05 1.33876e-18 0.000187634 -2.03706e-19 0.000287594)
(2.23466e-05 6.0639e-07 7.04763e-21 2.09398e-05 -3.27497e-22 2.16326e-05)
(3.87195e-05 7.64706e-07 1.85518e-20 3.31704e-05 -2.22043e-21 3.58581e-05)
(5.37589e-05 -7.70985e-07 3.50666e-20 4.19851e-05 -3.20326e-21 4.75933e-05)
(9.79914e-05 -9.53502e-06 -4.85643e-19 6.51395e-05 7.97229e-20 8.09281e-05)
(3.25617e-05 1.42181e-06 -2.21719e-20 2.93165e-05 -8.22845e-22 3.09194e-05)
(3.26473e-05 6.58159e-07 -2.57993e-20 2.81969e-05 9.63269e-22 3.03654e-05)
(3.23444e-05 -2.79932e-07 -4.49972e-20 2.72018e-05 3.70487e-21 2.96722e-05)
(3.77247e-05 -1.94794e-06 1.82742e-19 3.06347e-05 -1.09729e-20 3.40619e-05)
(4.51325e-05 2.94559e-06 2.6249e-20 3.85039e-05 7.54423e-21 4.17875e-05)
(4.08999e-05 1.16539e-06 3.26863e-20 3.35616e-05 -2.289e-22 3.7156e-05)
(3.55665e-05 -2.74231e-07 3.89101e-20 2.89484e-05 6.34531e-21 3.21503e-05)
(3.10363e-05 -1.38875e-06 -6.17381e-20 2.56038e-05 -3.95573e-21 2.82444e-05)
(4.68238e-05 3.53352e-06 1.63382e-20 3.89601e-05 -6.46692e-21 4.28689e-05)
(4.34185e-05 1.51147e-06 -5.9699e-20 3.45192e-05 -1.45687e-21 3.88971e-05)
(3.78152e-05 -2.19191e-07 2.03302e-20 2.98201e-05 -1.33382e-20 3.37091e-05)
(3.11489e-05 -1.39622e-06 2.97749e-20 2.51958e-05 1.90893e-21 2.8102e-05)
(4.12911e-05 4.5609e-06 -7.57727e-20 3.69202e-05 7.04794e-21 3.90911e-05)
(4.29267e-05 3.3785e-06 -2.94938e-20 3.54613e-05 -5.59598e-21 3.91861e-05)
(4.10228e-05 1.5879e-06 2.18807e-20 3.22528e-05 1.30886e-20 3.6585e-05)
(3.66294e-05 -1.02798e-07 -9.67098e-20 2.84351e-05 6.70378e-21 3.24377e-05)
(3.05235e-05 -1.33184e-06 -2.13286e-20 2.42639e-05 2.58935e-21 2.73304e-05)
(3.59141e-05 3.92717e-06 8.50508e-20 3.19581e-05 8.83301e-21 3.39305e-05)
(3.78465e-05 3.01184e-06 -3.30047e-20 3.12325e-05 5.37969e-21 3.45378e-05)
(3.69371e-05 1.52918e-06 8.82318e-20 2.89878e-05 -5.17532e-21 3.2925e-05)
(3.37208e-05 2.18286e-08 6.79449e-20 2.60294e-05 6.12017e-21 2.97994e-05)
(2.87014e-05 -1.16663e-06 7.28769e-20 2.25755e-05 -1.47948e-21 2.5586e-05)
(3.12423e-05 3.37181e-06 -2.10001e-20 2.76792e-05 -7.09938e-21 2.94557e-05)
(3.30876e-05 2.64439e-06 3.96459e-20 2.73192e-05 3.12662e-21 3.01968e-05)
(3.2704e-05 1.42859e-06 -2.53896e-20 2.56978e-05 -1.0479e-20 2.91695e-05)
(3.03648e-05 1.27597e-07 -2.65215e-21 2.34065e-05 -7.06102e-21 2.68256e-05)
(2.63291e-05 -9.67624e-07 -3.14244e-20 2.05831e-05 -7.03808e-21 2.34165e-05)
(2.72644e-05 2.90499e-06 1.21516e-20 2.40558e-05 -3.06768e-22 2.56523e-05)
(2.89103e-05 2.31535e-06 -6.63321e-21 2.38836e-05 -2.31446e-21 2.63861e-05)
(2.88206e-05 1.31635e-06 -5.74354e-20 2.26891e-05 5.10812e-21 2.57273e-05)
(2.71255e-05 2.07207e-07 -3.65816e-20 2.09122e-05 -2.50225e-21 2.39727e-05)
(2.38813e-05 -7.7633e-07 -8.01202e-20 1.85961e-05 3.50278e-21 2.12114e-05)
(2.38714e-05 2.50991e-06 -3.82219e-20 2.09746e-05 3.00138e-22 2.24126e-05)
(2.52999e-05 2.02631e-06 8.9572e-21 2.09063e-05 -7.36532e-22 2.30897e-05)
(2.53713e-05 1.20364e-06 5.63569e-20 2.0011e-05 1.86717e-21 2.26692e-05)
(2.41496e-05 2.64278e-07 -4.73198e-20 1.86301e-05 1.17218e-21 2.13566e-05)
(2.15488e-05 -6.07387e-07 2.95246e-20 1.67319e-05 3.21689e-21 1.91237e-05)
(2.09559e-05 2.17411e-06 5.67833e-20 1.83384e-05 7.15835e-21 1.96371e-05)
(2.2162e-05 1.77261e-06 -1.5529e-20 1.83133e-05 1.48539e-21 2.02251e-05)
(2.23229e-05 1.09398e-06 -5.57463e-20 1.76375e-05 -2.78906e-21 1.99636e-05)
(2.1455e-05 3.03304e-07 -9.44784e-21 1.65667e-05 6.7667e-21 1.89873e-05)
(1.93852e-05 -4.6155e-07 -7.09556e-21 1.50181e-05 -1.31956e-22 1.7191e-05)
(1.84447e-05 1.88765e-06 2.80798e-20 1.60766e-05 -2.85318e-21 1.72522e-05)
(1.94462e-05 1.55172e-06 3.84613e-20 1.60664e-05 2.59765e-21 1.77451e-05)
(1.96332e-05 9.91486e-07 4.50167e-20 1.55392e-05 3.21323e-21 1.75736e-05)
(1.902e-05 3.29086e-07 1.0282e-19 1.47033e-05 7.71941e-22 1.68435e-05)
(1.738e-05 -3.36987e-07 3.38155e-20 1.34405e-05 2.16653e-21 1.54015e-05)
(1.62758e-05 1.64426e-06 -2.26333e-20 1.41346e-05 -4.16217e-21 1.52002e-05)
(1.70854e-05 1.36027e-06 1.73804e-21 1.41134e-05 -4.20021e-21 1.55911e-05)
(1.72741e-05 8.96895e-07 -2.30207e-20 1.36952e-05 -3.18241e-21 1.54751e-05)
(1.68445e-05 3.43874e-07 -4.21645e-20 1.3039e-05 -7.66422e-21 1.49267e-05)
(1.55486e-05 -2.32954e-07 2.44832e-20 1.2008e-05 -8.18912e-22 1.37693e-05)
(1.43766e-05 1.4355e-06 -3.04436e-20 1.24462e-05 -5.01117e-22 1.34075e-05)
(1.50383e-05 1.1957e-06 -5.56755e-20 1.24219e-05 -2.26205e-21 1.37235e-05)
(1.52086e-05 8.1133e-07 -7.87499e-21 1.20787e-05 2.00333e-21 1.36367e-05)
(1.49127e-05 3.50263e-07 -3.38983e-20 1.15611e-05 4.03419e-22 1.32245e-05)
(1.38901e-05 -1.47276e-07 -7.71683e-22 1.0717e-05 -3.00845e-21 1.22945e-05)
(1.27106e-05 1.25742e-06 3.94074e-21 1.0978e-05 3.25505e-21 1.18401e-05)
(1.32388e-05 1.05254e-06 2.78798e-20 1.09371e-05 3.30413e-21 1.20825e-05)
(1.33966e-05 7.33353e-07 3.52002e-20 1.06583e-05 1.2518e-21 1.20225e-05)
(1.32042e-05 3.49532e-07 -4.7979e-21 1.02536e-05 2.4783e-21 1.1719e-05)
(1.2402e-05 -7.83656e-08 -5.88577e-20 9.5635e-06 -4.22084e-22 1.09744e-05)
(1.12333e-05 1.1019e-06 4.77447e-20 9.68194e-06 3.90146e-21 1.0453e-05)
(1.16612e-05 9.27885e-07 -2.14733e-20 9.63656e-06 -3.42218e-21 1.06437e-05)
(1.18035e-05 6.62691e-07 -2.85775e-20 9.40798e-06 -3.50313e-21 1.06018e-05)
(1.16899e-05 3.43484e-07 2.94168e-20 9.09414e-06 3.86013e-22 1.0384e-05)
(1.10641e-05 -2.34102e-08 5.94041e-20 8.53018e-06 4.66624e-21 9.79006e-06)
(9.93407e-06 9.67702e-07 -1.24749e-21 8.54799e-06 -1.5758e-21 9.23688e-06)
(1.0277e-05 8.18987e-07 -3.47468e-20 8.49598e-06 -1.49584e-21 9.38166e-06)
(1.04031e-05 5.98226e-07 -7.87977e-21 8.30692e-06 -7.47921e-22 9.35116e-06)
(1.03454e-05 3.3285e-07 -2.51094e-20 8.06364e-06 -1.48086e-21 9.19758e-06)
(9.86212e-06 1.90555e-08 -2.9179e-21 7.60468e-06 -3.67886e-21 8.72752e-06)
(8.43483e-06 9.2511e-07 -9.25774e-23 7.53918e-06 -2.78384e-22 7.98446e-06)
(8.79247e-06 8.50304e-07 7.13184e-21 7.5527e-06 3.52936e-22 8.16983e-06)
(9.06987e-06 7.23897e-07 1.01103e-20 7.50079e-06 1.8241e-21 8.28214e-06)
(9.17974e-06 5.3978e-07 -3.98261e-20 7.34305e-06 -1.11253e-21 8.25854e-06)
(9.15774e-06 3.1871e-07 3.45553e-20 7.15187e-06 2.7881e-21 8.14914e-06)
(8.78313e-06 5.07433e-08 -5.77282e-20 6.77575e-06 -1.86136e-21 7.7749e-06)
(7.49573e-06 8.14521e-07 -6.71203e-21 6.67682e-06 -6.02291e-22 7.08591e-06)
(7.78371e-06 7.47831e-07 -9.84717e-21 6.67592e-06 -1.50277e-21 7.22978e-06)
(8.01837e-06 6.40894e-07 -1.04472e-20 6.63341e-06 -1.50796e-21 7.32491e-06)
(8.1154e-06 4.86996e-07 5.19631e-20 6.50258e-06 5.53194e-21 7.3081e-06)
(8.11515e-06 3.02317e-07 -4.12963e-21 6.34999e-06 -2.26545e-21 7.22919e-06)
(7.82098e-06 7.34865e-08 4.95912e-20 6.03767e-06 4.16444e-21 6.92668e-06)
(6.65592e-06 7.17029e-07 6.82495e-21 5.91044e-06 1.45906e-21 6.2846e-06)
(6.89861e-06 6.58883e-07 -1.75922e-20 5.90886e-06 -1.06947e-21 6.40504e-06)
(7.09578e-06 5.68224e-07 8.17594e-22 5.87249e-06 8.08469e-22 6.48516e-06)
(7.18232e-06 4.39353e-07 2.24018e-20 5.76441e-06 -3.0371e-22 6.47492e-06)
(7.1977e-06 2.84903e-07 -3.62396e-20 5.64315e-06 -1.12377e-21 6.41992e-06)
(6.96315e-06 8.95427e-08 -2.10893e-20 5.38028e-06 -2.22955e-21 6.17144e-06)
(5.90836e-06 6.31564e-07 2.40972e-20 5.23263e-06 1.53304e-21 5.57238e-06)
(6.10949e-06 5.80787e-07 1.25856e-20 5.22758e-06 1.43804e-21 5.67098e-06)
(6.27863e-06 5.03908e-07 2.71281e-20 5.19854e-06 1.84329e-21 5.74111e-06)
(6.36018e-06 3.96171e-07 -3.01821e-20 5.11283e-06 -2.2192e-21 5.73996e-06)
(6.38733e-06 2.67238e-07 5.24892e-20 5.0179e-06 4.6356e-21 5.70466e-06)
(6.19803e-06 1.00704e-07 2.27118e-20 4.79443e-06 2.06861e-21 5.4981e-06)
(5.23764e-06 5.56013e-07 -2.79289e-20 4.62799e-06 -3.12794e-21 4.93472e-06)
(5.40881e-06 5.11987e-07 -4.76422e-21 4.62389e-06 -9.7271e-22 5.0186e-06)
(5.55391e-06 4.47057e-07 -3.21336e-20 4.6011e-06 -3.83138e-21 5.08031e-06)
(5.63019e-06 3.57238e-07 3.72925e-20 4.5338e-06 3.71784e-21 5.08615e-06)
(5.66668e-06 2.49935e-07 3.02956e-21 4.46133e-06 -1.07012e-21 5.0674e-06)
(5.51233e-06 1.0836e-07 -1.31019e-20 4.26982e-06 -2.25696e-21 4.89427e-06)
(4.64586e-06 4.90254e-07 1.12303e-20 4.09726e-06 1.73176e-21 4.37285e-06)
(4.78561e-06 4.51812e-07 -1.17312e-20 4.08911e-06 -8.7928e-22 4.43898e-06)
(4.90895e-06 3.96871e-07 -5.91519e-21 4.0701e-06 3.97525e-22 4.49144e-06)
(4.98039e-06 3.22148e-07 -4.07503e-21 4.0181e-06 -1.14705e-21 4.50234e-06)
(5.02215e-06 2.33096e-07 -1.39346e-20 3.9631e-06 -9.14095e-22 4.49555e-06)
(4.89587e-06 1.13133e-07 -4.06548e-20 3.79851e-06 -2.53387e-21 4.35034e-06)
(4.12064e-06 4.32691e-07 -2.66077e-21 3.62849e-06 4.96348e-22 3.8755e-06)
(4.23808e-06 3.9949e-07 3.19972e-21 3.62043e-06 5.22193e-22 3.92974e-06)
(4.34297e-06 3.53266e-07 1.0889e-20 3.60486e-06 1.17641e-21 3.97413e-06)
(4.40563e-06 2.90959e-07 -3.08654e-21 3.56199e-06 -5.14087e-22 3.98482e-06)
(4.44711e-06 2.1686e-07 9.30064e-21 3.51818e-06 3.57533e-22 3.98377e-06)
(4.34111e-06 1.15186e-07 3.28459e-20 3.37444e-06 3.52315e-21 3.8598e-06)
(3.66258e-06 3.83056e-07 5.32881e-20 3.22127e-06 5.47179e-21 3.44217e-06)
(3.76033e-06 3.54509e-07 2.91907e-21 3.21287e-06 5.14421e-22 3.48585e-06)
(3.84723e-06 3.15321e-07 1.96614e-21 3.19778e-06 -8.73194e-23 3.52092e-06)
(3.90068e-06 2.63119e-07 -1.9652e-20 3.16094e-06 -1.08641e-21 3.52964e-06)
(3.93762e-06 2.01088e-07 -3.29194e-20 3.12325e-06 -2.84673e-21 3.52962e-06)
(3.84632e-06 1.14818e-07 -5.70815e-21 2.99602e-06 -8.01762e-22 3.42179e-06)
(3.26109e-06 3.40119e-07 -1.67346e-20 2.86592e-06 -2.44194e-21 3.06291e-06)
(3.34344e-06 3.15523e-07 7.17553e-21 2.85776e-06 5.68688e-22 3.09877e-06)
(3.41538e-06 2.8221e-07 -7.92015e-21 2.84306e-06 -1.19095e-21 3.12637e-06)
(3.45865e-06 2.38049e-07 3.85882e-20 2.80909e-06 3.61945e-21 3.13129e-06)
(3.49012e-06 1.85744e-07 2.70375e-20 2.77539e-06 3.02136e-21 3.13063e-06)
(3.40897e-06 1.12362e-07 2.87335e-20 2.66109e-06 2.15133e-21 3.03451e-06)
(2.8276e-06 3.16694e-07 1.32939e-20 2.55254e-06 1.2962e-21 2.68957e-06)
(2.90583e-06 3.02303e-07 2.04769e-20 2.55196e-06 2.72518e-21 2.72747e-06)
(2.97606e-06 2.8122e-07 -6.63179e-21 2.54484e-06 -9.21007e-22 2.7581e-06)
(3.03584e-06 2.52666e-07 -1.49891e-20 2.53045e-06 -1.37365e-21 2.78007e-06)
(3.07188e-06 2.15209e-07 -2.55204e-20 2.50009e-06 -2.97425e-21 2.78315e-06)
(3.09886e-06 1.70987e-07 -8.08178e-21 2.47019e-06 -8.92879e-22 2.78205e-06)
(3.02539e-06 1.08315e-07 -4.91228e-20 2.36674e-06 -5.21432e-21 2.695e-06)
(2.52251e-06 2.81474e-07 -1.9588e-20 2.27379e-06 -2.29938e-21 2.39722e-06)
(2.5878e-06 2.68508e-07 1.4771e-20 2.27099e-06 1.03506e-21 2.42766e-06)
(2.64914e-06 2.50385e-07 -1.76307e-20 2.26561e-06 -1.83015e-21 2.45508e-06)
(2.70098e-06 2.26139e-07 -3.86682e-21 2.25379e-06 1.20311e-22 2.47474e-06)
(2.73355e-06 1.94562e-07 8.64661e-21 2.22891e-06 7.21471e-22 2.47884e-06)
(2.75749e-06 1.57115e-07 1.77679e-20 2.20308e-06 2.10763e-21 2.4781e-06)
(2.68972e-06 1.03324e-07 -6.79148e-21 2.10861e-06 3.35867e-22 2.39805e-06)
(2.24854e-06 2.50081e-07 1.44513e-20 2.02424e-06 2.20869e-21 2.13542e-06)
(2.30542e-06 2.38757e-07 -2.79629e-20 2.02214e-06 -3.26267e-21 2.16214e-06)
(2.35902e-06 2.23124e-07 -2.19697e-21 2.018e-06 -1.88708e-22 2.18637e-06)
(2.40483e-06 2.02544e-07 3.66535e-20 2.00887e-06 3.67096e-21 2.20457e-06)
(2.43461e-06 1.75935e-07 -3.65593e-20 1.98883e-06 -3.84007e-21 2.20991e-06)
(2.45695e-06 1.44253e-07 1.75847e-20 1.96739e-06 1.75655e-21 2.21055e-06)
(2.39447e-06 9.77835e-08 2.14865e-20 1.88107e-06 1.67756e-21 2.13686e-06)
(2.00474e-06 2.22571e-07 2.34883e-20 1.80364e-06 2.67733e-21 1.90309e-06)
(2.05406e-06 2.12556e-07 1.77623e-22 1.80141e-06 3.24751e-22 1.92597e-06)
(2.10058e-06 1.99086e-07 2.69897e-21 1.79797e-06 4.35641e-22 1.9472e-06)
(2.14011e-06 1.81455e-07 -4.32342e-20 1.78996e-06 -4.96387e-21 1.96313e-06)
(2.16852e-06 1.5909e-07 -1.07399e-21 1.77483e-06 -1.14791e-22 1.97038e-06)
(2.19115e-06 1.32303e-07 3.02402e-20 1.75846e-06 3.37103e-21 1.97374e-06)
(2.13346e-06 9.20316e-08 -6.01529e-20 1.67954e-06 -6.47413e-21 1.9059e-06)
(1.78716e-06 1.98353e-07 5.83571e-21 1.60787e-06 5.19428e-22 1.69637e-06)
(1.82849e-06 1.89478e-07 -7.94821e-21 1.60446e-06 -7.46101e-22 1.7148e-06)
(1.86832e-06 1.77694e-07 -4.40217e-21 1.60065e-06 -6.06921e-22 1.73262e-06)
(1.90371e-06 1.62638e-07 1.19641e-20 1.5945e-06 1.9027e-21 1.74748e-06)
(1.93154e-06 1.43852e-07 -2.14959e-20 1.58397e-06 -2.3835e-21 1.75683e-06)
(1.95463e-06 1.21264e-07 2.37499e-20 1.57223e-06 2.40591e-21 1.7629e-06)
(1.9014e-06 8.61657e-08 -1.05095e-20 1.49998e-06 -6.74923e-22 1.70043e-06)
(1.5911e-06 1.76792e-07 3.22775e-21 1.4323e-06 1.79876e-22 1.51068e-06)
(1.62662e-06 1.68996e-07 1.7119e-20 1.42863e-06 2.08055e-21 1.52621e-06)
(1.66103e-06 1.58775e-07 -1.57348e-21 1.42491e-06 -8.91774e-23 1.54144e-06)
(1.69236e-06 1.45872e-07 1.0093e-20 1.41989e-06 6.70666e-22 1.5548e-06)
(1.71913e-06 1.30008e-07 -2.88867e-21 1.4127e-06 -3.97051e-22 1.56534e-06)
(1.74311e-06 1.1104e-07 2.35984e-20 1.4054e-06 2.54501e-21 1.57416e-06)
(1.69591e-06 8.04375e-08 -2.58209e-20 1.34071e-06 -2.63124e-21 1.51841e-06)
(1.41557e-06 1.57508e-07 -1.11639e-20 1.27508e-06 -1.50859e-21 1.34476e-06)
(1.44521e-06 1.50729e-07 6.39961e-21 1.27093e-06 6.26241e-22 1.35722e-06)
(1.47561e-06 1.42004e-07 8.03708e-21 1.26803e-06 9.41223e-22 1.37083e-06)
(1.50349e-06 1.30905e-07 -4.06175e-20 1.26388e-06 -4.60335e-21 1.38284e-06)
(1.52946e-06 1.17524e-07 -2.83615e-20 1.25964e-06 -3.31055e-21 1.39433e-06)
(1.55379e-06 1.0148e-07 1.91796e-20 1.25572e-06 1.87133e-21 1.40505e-06)
(1.5117e-06 7.47292e-08 -2.37361e-21 1.1976e-06 -1.97602e-22 1.35515e-06)
(1.23056e-06 1.44323e-07 1.18972e-21 1.1369e-06 2.73705e-22 1.1834e-06)
(1.25607e-06 1.40087e-07 -1.3456e-20 1.13254e-06 -1.42375e-21 1.19417e-06)
(1.284e-06 1.34619e-07 9.32697e-21 1.13113e-06 9.27883e-22 1.20727e-06)
(1.31011e-06 1.2711e-07 -1.4394e-20 1.12818e-06 -1.86355e-21 1.21873e-06)
(1.3348e-06 1.17594e-07 1.02741e-21 1.12466e-06 3.37736e-22 1.22941e-06)
(1.35928e-06 1.0627e-07 -5.52421e-21 1.12228e-06 -2.74219e-22 1.241e-06)
(1.38316e-06 9.26211e-08 3.61068e-21 1.12061e-06 1.69922e-22 1.25262e-06)
(1.34555e-06 6.90908e-08 -1.21601e-20 1.06822e-06 -1.11573e-21 1.20765e-06)
(1.08896e-06 1.27876e-07 8.23685e-21 1.0068e-06 1.00959e-21 1.04762e-06)
(1.1122e-06 1.24474e-07 2.21161e-20 1.00434e-06 2.76927e-21 1.05824e-06)
(1.13831e-06 1.20007e-07 -1.91228e-20 1.00466e-06 -2.27096e-21 1.07152e-06)
(1.16182e-06 1.13712e-07 -2.0539e-20 1.00278e-06 -2.19672e-21 1.08241e-06)
(1.1837e-06 1.05662e-07 -7.21601e-21 9.9998e-07 -1.0183e-21 1.09214e-06)
(1.20633e-06 9.60791e-08 2.1667e-20 9.98761e-07 2.55807e-21 1.10333e-06)
(1.23002e-06 8.45288e-08 -1.65118e-20 9.9926e-07 -1.98345e-21 1.11582e-06)
(1.19542e-06 6.36938e-08 2.94175e-20 9.5114e-07 3.36743e-21 1.07431e-06)
(9.60284e-07 1.12917e-07 7.28664e-21 8.88577e-07 9.48486e-22 9.23763e-07)
(9.81965e-07 1.10222e-07 -1.01766e-20 8.87909e-07 -1.39145e-21 9.34729e-07)
(1.0062e-06 1.06693e-07 -1.16947e-21 8.89834e-07 -9.02933e-23 9.48118e-07)
(1.02734e-06 1.01518e-07 2.51289e-20 8.88994e-07 3.22503e-21 9.58589e-07)
(1.04724e-06 9.48307e-08 -1.49391e-20 8.8733e-07 -1.95031e-21 9.68083e-07)
(1.06871e-06 8.68538e-08 -5.10657e-21 8.87608e-07 -5.00829e-22 9.79467e-07)
(1.09173e-06 7.71317e-08 -1.57798e-20 8.89646e-07 -1.62221e-21 9.92324e-07)
(1.05989e-06 5.85278e-08 3.27986e-21 8.45246e-07 1.94939e-22 9.53928e-07)
(8.43165e-07 9.92075e-08 1.37124e-20 7.80679e-07 1.57647e-21 8.10411e-07)
(8.6337e-07 9.71657e-08 -6.94602e-21 7.81683e-07 -7.78862e-22 8.21703e-07)
(8.86454e-07 9.45596e-08 3.75675e-21 7.85633e-07 3.81526e-22 8.35801e-07)
(9.05529e-07 9.03948e-08 1.78206e-20 7.8581e-07 2.18201e-21 8.46051e-07)
(9.23613e-07 8.49369e-08 -5.76381e-20 7.85191e-07 -6.77233e-21 8.55412e-07)
(9.44477e-07 7.84236e-08 4.10554e-20 7.87191e-07 4.67183e-21 8.67525e-07)
(9.66686e-07 7.02427e-08 1.63888e-20 7.90369e-07 2.00314e-21 8.80592e-07)
(9.37572e-07 5.3633e-08 3.81003e-21 7.49522e-07 3.28654e-22 8.45328e-07)
(7.38162e-07 8.69175e-08 -1.54657e-20 6.84136e-07 -2.03038e-21 7.08447e-07)
(7.54861e-07 8.5229e-08 1.23686e-21 6.84722e-07 1.82124e-22 7.17663e-07)
(7.75212e-07 8.33089e-08 -6.77077e-21 6.89054e-07 -7.74107e-22 7.30791e-07)
(7.91872e-07 8.00463e-08 1.56553e-20 6.8976e-07 1.77736e-21 7.40331e-07)
(8.0786e-07 7.56773e-08 1.0458e-20 6.89715e-07 1.50324e-21 7.49202e-07)
(8.27074e-07 7.04569e-08 -6.85076e-21 6.92445e-07 -8.14209e-22 7.61057e-07)
(8.48156e-07 6.36865e-08 -7.5361e-21 6.96373e-07 -9.98261e-22 7.74042e-07)
(8.20321e-07 4.88234e-08 -1.23205e-20 6.57763e-07 -1.37293e-21 7.40475e-07)
(6.58405e-07 7.7514e-08 -9.68749e-21 6.1046e-07 -1.16494e-21 6.31146e-07)
(6.7124e-07 7.59596e-08 1.13162e-21 6.09728e-07 1.81437e-22 6.37659e-07)
(6.88564e-07 7.44077e-08 2.35371e-20 6.13422e-07 2.77478e-21 6.49005e-07)
(7.02201e-07 7.17e-08 -1.4605e-22 6.13546e-07 9.52384e-24 6.56939e-07)
(7.15764e-07 6.81917e-08 -1.79882e-20 6.13547e-07 -2.23097e-21 6.64947e-07)
(7.33893e-07 6.41293e-08 3.69054e-20 6.17324e-07 4.43961e-21 6.77015e-07)
(7.53019e-07 5.85694e-08 -7.00822e-21 6.21248e-07 -8.97381e-22 6.89119e-07)
(7.25795e-07 4.51426e-08 2.3082e-20 5.84059e-07 2.8035e-21 6.56638e-07)
(5.95575e-07 6.97204e-08 -1.86752e-20 5.50538e-07 -2.2546e-21 5.69853e-07)
(6.0493e-07 6.83124e-08 2.00968e-20 5.49194e-07 2.4737e-21 5.73772e-07)
(6.19495e-07 6.6989e-08 -3.30932e-20 5.5215e-07 -4.1782e-21 5.83427e-07)
(6.31831e-07 6.47779e-08 8.52687e-21 5.52772e-07 1.04698e-21 5.91139e-07)
(6.4545e-07 6.20561e-08 1.07364e-20 5.54507e-07 1.3381e-21 6.00177e-07)
(6.64249e-07 5.909e-08 9.43209e-21 5.60678e-07 8.68326e-22 6.14019e-07)
(6.81799e-07 5.45813e-08 -2.9748e-20 5.64881e-07 -3.33233e-21 6.25716e-07)
(6.55603e-07 4.25604e-08 1.56061e-20 5.29597e-07 1.60686e-21 5.94637e-07)
(5.27673e-07 6.3767e-08 3.81977e-21 4.97895e-07 4.96877e-22 5.09237e-07)
(5.32096e-07 6.19289e-08 1.05576e-20 4.90601e-07 1.40469e-21 5.07864e-07)
(5.42636e-07 6.09876e-08 -4.17767e-21 4.91895e-07 -5.03634e-22 5.13534e-07)
(5.50001e-07 5.91278e-08 -6.51045e-21 4.89433e-07 -7.34787e-22 5.16601e-07)
(5.60832e-07 5.72304e-08 1.74715e-20 4.90163e-07 2.08502e-21 5.23407e-07)
(5.74426e-07 5.51802e-08 -1.06734e-20 4.9349e-07 -1.29659e-21 5.33215e-07)
(5.93574e-07 5.31506e-08 -3.52612e-20 5.01729e-07 -4.2752e-21 5.48324e-07)
(6.1161e-07 4.97882e-08 4.09746e-20 5.08067e-07 5.03538e-21 5.61546e-07)
(5.85352e-07 3.92927e-08 -2.24602e-20 4.74412e-07 -2.78232e-21 5.31273e-07)
(4.75612e-07 5.74346e-08 1.07373e-21 4.48328e-07 1.18711e-22 4.59308e-07)
(4.75418e-07 5.53002e-08 -3.1942e-21 4.38406e-07 -5.47016e-22 4.53448e-07)
(4.82717e-07 5.38747e-08 2.32862e-20 4.36419e-07 2.8721e-21 4.55861e-07)
(4.87147e-07 5.18249e-08 -1.28573e-20 4.32123e-07 -1.51235e-21 4.56141e-07)
(4.94908e-07 4.99243e-08 -9.03443e-21 4.31299e-07 -1.20925e-21 4.60332e-07)
(5.06228e-07 4.8137e-08 -4.21107e-21 4.33964e-07 -4.76919e-22 4.68521e-07)
(5.23993e-07 4.66281e-08 2.99689e-20 4.42415e-07 3.72896e-21 4.83093e-07)
(5.41031e-07 4.40223e-08 -1.02835e-20 4.4941e-07 -1.09636e-21 4.96414e-07)
(5.15867e-07 3.46821e-08 -2.00303e-20 4.18158e-07 -2.57726e-21 4.68185e-07)
(4.32427e-07 5.23861e-08 -2.89013e-22 4.08218e-07 -3.04091e-23 4.18691e-07)
(4.29555e-07 5.00768e-08 -2.11919e-20 3.96467e-07 -2.69951e-21 4.10236e-07)
(4.33998e-07 4.84167e-08 -1.81836e-20 3.92421e-07 -2.25904e-21 4.09656e-07)
(4.34916e-07 4.6094e-08 6.46564e-21 3.85592e-07 8.48241e-22 4.06339e-07)
(4.38971e-07 4.40552e-08 -4.96056e-21 3.82356e-07 -6.60111e-22 4.07012e-07)
(4.46153e-07 4.23142e-08 1.21743e-20 3.82532e-07 1.62272e-21 4.11606e-07)
(4.5978e-07 4.10263e-08 -2.4348e-20 3.88587e-07 -3.3295e-21 4.22859e-07)
(4.73609e-07 3.88236e-08 7.5679e-20 3.93952e-07 9.44951e-21 4.3381e-07)
(4.4805e-07 3.03314e-08 -3.76874e-20 3.63491e-07 -4.60731e-21 4.05963e-07)
(3.95265e-07 4.80074e-08 -4.3359e-22 3.73433e-07 -1.02554e-23 3.8409e-07)
(3.91927e-07 4.57886e-08 -1.97336e-20 3.61822e-07 -2.42506e-21 3.75297e-07)
(3.94956e-07 4.40556e-08 4.16029e-20 3.56908e-07 5.19967e-21 3.73241e-07)
(3.93889e-07 4.1582e-08 2.53026e-21 3.48741e-07 3.2876e-22 3.6782e-07)
(3.95006e-07 3.93672e-08 -2.38637e-20 3.43531e-07 -2.83796e-21 3.65576e-07)
(3.98249e-07 3.75435e-08 2.78048e-20 3.41155e-07 3.34358e-21 3.66607e-07)
(4.07178e-07 3.63425e-08 -5.31366e-20 3.44282e-07 -6.58028e-21 3.73884e-07)
(4.17434e-07 3.45089e-08 4.87892e-20 3.47773e-07 5.79982e-21 3.8207e-07)
(3.90863e-07 2.68568e-08 -5.75318e-20 3.17634e-07 -6.84416e-21 3.53968e-07)
(3.54909e-07 4.33962e-08 5.01581e-21 3.36932e-07 6.33668e-22 3.4597e-07)
(3.51302e-07 4.14071e-08 1.39869e-20 3.25946e-07 1.85992e-21 3.3725e-07)
(3.53322e-07 3.97759e-08 -1.99609e-20 3.20739e-07 -2.6291e-21 3.34303e-07)
(3.50935e-07 3.73309e-08 -1.21357e-20 3.119e-07 -1.60213e-21 3.27516e-07)
(3.49933e-07 3.50833e-08 5.92797e-20 3.05376e-07 7.52449e-21 3.23147e-07)
(3.49902e-07 3.32491e-08 -3.90428e-20 3.00877e-07 -4.79193e-21 3.21116e-07)
(3.54588e-07 3.21084e-08 -3.36086e-20 3.01189e-07 -4.15061e-21 3.24541e-07)
(3.60504e-07 3.04827e-08 1.24911e-20 3.01877e-07 1.37155e-21 3.2878e-07)
(3.30803e-07 2.33886e-08 2.04816e-20 2.70048e-07 2.68556e-21 2.97989e-07)
(3.28874e-07 3.9974e-08 2.78122e-21 3.1068e-07 3.28805e-22 3.21961e-07)
(3.26642e-07 3.81906e-08 4.67995e-21 3.01241e-07 5.79659e-22 3.14922e-07)
(3.28438e-07 3.65805e-08 -1.29484e-20 2.96114e-07 -1.54118e-21 3.11933e-07)
(3.25523e-07 3.40715e-08 8.99647e-22 2.86996e-07 1.21789e-22 3.04652e-07)
(3.23557e-07 3.16517e-08 1.72189e-20 2.79791e-07 1.99018e-21 2.99253e-07)
(3.21882e-07 2.96219e-08 2.39288e-20 2.74211e-07 3.10709e-21 2.95642e-07)
(3.24266e-07 2.84144e-08 -3.44966e-20 2.73226e-07 -4.21049e-21 2.97145e-07)
(3.29519e-07 2.71282e-08 3.7131e-21 2.74389e-07 4.1585e-22 3.01293e-07)
(3.02743e-07 2.10762e-08 -7.26806e-21 2.46415e-07 -9.55992e-22 2.74049e-07)
(2.76746e-07 3.4566e-08 -5.51918e-21 2.68116e-07 -7.13826e-22 2.71421e-07)
(2.73849e-07 3.32421e-08 4.57213e-21 2.59606e-07 5.68483e-22 2.64502e-07)
(2.74718e-07 3.20776e-08 2.08927e-20 2.54897e-07 2.67858e-21 2.61197e-07)