/*--------------------------------*- C++ -*----------------------------------*\
| =========                 |                                                 |
| \\      /  F ield         | OpenFOAM: The Open Source CFD Toolbox           |
|  \\    /   O peration     | Version:  2306                                  |
|   \\  /    A nd           | Website:  www.openfoam.com                      |
|    \\/     M anipulation  |                                                 |
\*---------------------------------------------------------------------------*/
FoamFile
{
    version     2.0;
    format      ascii;
    arch        "LSB;label=32;scalar=64";
    class       volVectorField;
    location    "25";
    object      U;
}
// * * * * * * * * * * * * * * * * * * * * * * * * * * * * * * * * * * * * * //

dimensions      [0 1 -1 0 0 0 0];

internalField   nonuniform List<vector> 
1340
(
(-22.9335 4.33202 -2.00848e-15)
(-19.2291 3.57775 3.45388e-15)
(-14.8164 2.49129 3.58568e-14)
(-7.18188 1.55353 -2.42485e-14)
(-20.6957 3.73681 -3.00049e-14)
(-16.0859 2.72009 9.99779e-15)
(-11.2248 1.46242 -1.85448e-14)
(-5.56769 0.0303327 -8.88547e-15)
(-18.6858 2.72032 8.76675e-14)
(-13.5017 1.45699 -1.9358e-14)
(-8.60357 0.285025 -1.39767e-14)
(-4.58462 -0.878455 1.49877e-14)
(-17.0018 2.23536 -2.24426e-14)
(-11.4642 0.604887 2.89185e-14)
(-6.69142 -0.513901 2.6414e-14)
(-3.92335 -1.39294 -8.3471e-15)
(-15.476 1.85901 3.1948e-15)
(-9.70993 -0.0804511 4.12057e-15)
(-5.04683 -1.12594 -1.89793e-15)
(-3.2702 -1.63346 1.11105e-14)
(-13.8654 1.46053 -2.46941e-14)
(-8.03648 -0.735925 -3.12818e-14)
(-3.50493 -1.67042 -1.78753e-15)
(-2.51677 -1.76254 -3.40545e-15)
(-12.0424 0.979254 4.21225e-14)
(-6.32958 -1.39105 6.97028e-15)
(-1.97797 -2.18133 -2.42237e-15)
(-1.53907 -1.9634 -2.36328e-15)
(-9.98545 0.391491 -3.99358e-14)
(-4.52232 -2.06236 9.80641e-15)
(-0.42304 -2.65635 5.57222e-15)
(-0.331206 -2.1795 -6.99085e-15)
(-7.71814 -0.314926 1.37489e-14)
(-2.5398 -2.78112 -7.43452e-15)
(1.20172 -3.11489 -1.56852e-14)
(1.02988 -2.3979 5.16454e-15)
(-5.30122 -1.146 -6.3896e-15)
(-0.421235 -3.53721 6.73612e-15)
(2.8978 -3.5684 4.8269e-15)
(2.50062 -2.64359 6.32417e-15)
(-2.74477 -2.11522 -3.76459e-15)
(1.84935 -4.333 -8.29467e-15)
(4.68938 -4.02513 1.60318e-15)
(4.08774 -2.91042 -2.51792e-15)
(-0.0591387 -3.10452 -5.68069e-15)
(4.22564 -5.12462 -5.28984e-15)
(6.57548 -4.48359 -1.10591e-15)
(5.76582 -3.19568 -5.99319e-15)
(2.81806 -4.02522 1.81461e-14)
(6.73563 -5.89628 1.96408e-16)
(8.57271 -4.93989 4.32536e-15)
(7.5469 -3.4913 6.6107e-15)
(6.14162 -4.95334 -2.28225e-14)
(9.43033 -6.63343 7.56197e-15)
(10.6855 -5.38889 1.75601e-15)
(9.41397 -3.79646 -7.49218e-15)
(10.0513 -5.88533 1.64333e-14)
(12.3574 -7.31822 -3.60128e-15)
(12.9332 -5.82427 -7.52486e-15)
(11.3797 -4.10819 8.26329e-15)
(14.4854 -6.74483 -1.24097e-15)
(15.507 -7.91524 3.18372e-16)
(15.3036 -6.23519 7.85151e-15)
(13.4302 -4.42906 -2.24451e-15)
(19.1976 -7.39937 -3.16135e-15)
(18.8076 -8.36951 1.40049e-15)
(17.7718 -6.59478 -2.31305e-16)
(15.5602 -4.74872 1.85647e-15)
(23.8816 -7.72435 -1.18419e-15)
(22.1041 -8.61036 1.35021e-15)
(20.2513 -6.86108 -6.50314e-15)
(17.7185 -5.04535 -2.27217e-15)
(28.2118 -7.6789 8.16983e-15)
(25.1971 -8.58368 -3.07804e-15)
(22.6182 -6.9838 -4.42026e-15)
(19.8313 -5.27493 -6.59196e-15)
(31.8496 -7.28347 -1.00958e-15)
(27.861 -8.29334 7.44177e-16)
(24.7116 -6.93668 1.25738e-15)
(21.7618 -5.40126 3.81383e-16)
(34.3863 -6.62305 6.66271e-17)
(29.8747 -7.76627 3.11045e-15)
(26.3874 -6.7097 7.62829e-15)
(23.3968 -5.36843 2.90552e-15)
(35.7086 -5.82285 4.22928e-15)
(31.1404 -7.07982 -3.32163e-15)
(27.5598 -6.34039 -2.28871e-15)
(24.6142 -5.18359 1.41481e-15)
(35.9727 -5.00507 -9.61654e-15)
(31.7104 -6.32328 3.4847e-15)
(28.2343 -5.88001 2.0229e-15)
(25.4051 -4.88599 -3.00048e-15)
(35.531 -4.23325 1.50182e-15)
(31.7554 -5.60066 -1.8561e-15)
(28.4948 -5.36674 -2.73714e-15)
(25.8417 -4.53585 1.90186e-15)
(34.7473 -3.55367 1.3106e-15)
(31.4587 -4.95784 5.0383e-15)
(28.4431 -4.8913 4.19533e-15)
(26.0029 -4.18156 -2.13011e-15)
(33.9268 -2.96315 2.09236e-15)
(31.0722 -4.35872 -2.40731e-15)
(28.3107 -4.43122 -5.79574e-15)
(26.0562 -3.82251 1.91116e-15)
(33.1966 -2.4391 -2.00179e-15)
(30.7201 -3.79734 -6.14988e-15)
(28.2028 -3.97345 -3.49892e-16)
(26.0988 -3.46408 -1.13573e-15)
(32.5671 -1.96172 -1.50282e-15)
(30.4147 -3.26535 3.23109e-15)
(28.1296 -3.52535 -5.29442e-16)
(26.1634 -3.11383 1.95644e-15)
(32.0186 -1.52951 2.49884e-15)
(30.1459 -2.76474 1.99572e-15)
(28.0787 -3.0896 2.97435e-15)
(26.2461 -2.77293 -1.34264e-15)
(31.529 -1.1387 -2.54489e-15)
(29.8988 -2.29658 -2.05593e-15)
(28.037 -2.66909 -1.377e-15)
(26.3386 -2.44075 2.74804e-15)
(31.0861 -0.784433 2.91994e-15)
(29.6678 -1.85888 2.81802e-15)
(27.9975 -2.26247 3.40586e-15)
(26.4308 -2.11527 -4.40704e-15)
(30.6816 -0.461612 -1.32804e-15)
(29.4479 -1.4506 -1.81146e-15)
(27.9557 -1.87254 -1.92905e-15)
(26.5184 -1.79723 1.71364e-15)
(30.312 -0.166794 -6.7255e-16)
(29.239 -1.0708 2.227e-15)
(27.9104 -1.49962 -6.92423e-16)
(26.5971 -1.48689 -7.71132e-16)
(30.5011 1.14982 2.27317e-15)
(29.9728 0.104258 1.03715e-15)
(29.0392 -0.718519 -7.41718e-16)
(27.8602 -1.14649 2.78266e-15)
(26.6661 -1.18638 5.1931e-16)
(30.1279 1.26722 -2.49825e-15)
(29.6627 0.353842 9.84472e-16)
(28.849 -0.391787 -2.58356e-15)
(27.8055 -0.812339 -1.83582e-15)
(26.7239 -0.895995 -1.50326e-15)
(29.7907 1.38186 5.9266e-16)
(29.3775 0.58219 -1.17791e-15)
(28.6674 -0.091069 6.65378e-16)
(27.746 -0.498746 5.07167e-18)
(26.7708 -0.616942 5.70023e-16)
(29.4843 1.4924 -3.36758e-16)
(29.1161 0.790953 1.1632e-16)
(28.4952 0.18491 1.58281e-15)
(27.6832 -0.204997 8.94971e-16)
(26.8069 -0.349312 1.61742e-15)
(29.2059 1.5991 1.01433e-15)
(28.8757 0.982613 -1.7507e-16)
(28.332 0.438323 -1.52871e-15)
(27.6177 0.0691718 1.06808e-15)
(26.8332 -0.0938063 -5.88278e-16)
(28.9516 1.70219 -1.47124e-15)
(28.6553 1.15931 3.64382e-16)
(28.1784 0.6715 1.44325e-15)
(27.5506 0.325045 2.17021e-16)
(26.8502 0.149649 1.14941e-16)
(28.7196 1.80205 -6.44217e-16)
(28.4526 1.32284 -9.27308e-16)
(28.0338 0.885847 -1.05701e-15)
(27.4824 0.562518 -2.37975e-15)
(26.8586 0.379924 -6.78156e-16)
(28.5066 1.89882 5.78091e-16)
(28.2666 1.47458 -2.54942e-17)
(27.8981 1.08292 5.30327e-16)
(27.4138 0.782376 9.56538e-16)
(26.859 0.596776 -4.63211e-16)
(28.3114 1.99254 6.94789e-16)
(28.0951 1.6158 1.35327e-15)
(27.7705 1.2642 1.90357e-16)
(27.345 0.985421 7.26665e-16)
(26.8525 0.800041 1.48654e-18)
(28.1313 2.08195 -7.67915e-17)
(27.937 1.74682 -6.20728e-16)
(27.6508 1.43101 -8.09561e-16)
(27.2767 1.17301 6.79201e-17)
(26.8399 0.990464 1.12721e-15)
(27.9654 2.16701 -1.08749e-15)
(27.7906 1.86841 4.43143e-16)
(27.5381 1.5845 6.46886e-16)
(27.209 1.34621 -6.32915e-16)
(26.822 1.16853 -1.10944e-15)
(27.8122 2.24749 3.05926e-17)
(27.6554 1.98096 7.49581e-16)
(27.4322 1.72553 1.68881e-16)
(27.1424 1.50597 5.13048e-16)
(26.7998 1.33488 4.9991e-17)
(27.7631 2.55935 5.22709e-18)
(27.6706 2.32377 -1.38476e-16)
(27.53 2.08539 -2.41063e-16)
(27.3326 1.85517 8.17834e-16)
(27.0771 1.65311 -7.09786e-16)
(26.7741 1.4899 1.04279e-15)
(27.6244 2.60739 1.53923e-16)
(27.5398 2.39642 1.95074e-16)
(27.4138 2.18276 2.23922e-16)
(27.239 1.9749 -1.06311e-15)
(27.0136 1.78901 6.56841e-17)
(26.7457 1.63438 -8.8113e-16)
(27.4964 2.65478 -1.16819e-16)
(27.4187 2.46555 3.34009e-16)
(27.3057 2.27374 -4.22284e-18)
(27.1509 2.08585 -4.36783e-16)
(26.952 1.9149 6.61833e-16)
(26.7152 1.7691 3.59983e-16)
(27.3773 2.70086 -4.29994e-16)
(27.3065 2.531 -2.39074e-16)
(27.2053 2.35873 -5.33816e-16)
(27.068 2.18887 6.03261e-16)
(26.8923 2.03175 -9.82709e-16)
(26.6832 1.8948 -3.78249e-16)
(27.2673 2.74533 5.01204e-16)
(27.2026 2.59285 8.59604e-17)
(27.1117 2.43807 6.12429e-16)
(26.99 2.28447 -6.75394e-16)
(26.8346 2.14016 -5.19228e-17)
(26.6499 2.01189 2.41339e-16)
(27.1652 2.78784 -2.00355e-16)
(27.1062 2.65079 1.94239e-16)
(27.0247 2.51164 9.84234e-17)
(26.9164 2.37275 7.38806e-17)
(26.7788 2.24033 2.43121e-16)
(26.6156 2.12061 6.67594e-16)
(27.0705 2.82827 3.52292e-17)
(27.0168 2.70494 -4.89769e-17)
(26.9436 2.57955 -1.91933e-16)
(26.8471 2.45375 6.17556e-17)
(26.7248 2.33228 -1.73979e-16)
(26.5805 2.22092 -5.44062e-16)
(26.9825 2.86663 -8.55283e-16)
(26.9336 2.75524 -5.46847e-17)
(26.8677 2.64194 -3.39403e-17)
(26.7815 2.52779 3.39914e-16)
(26.6727 2.41632 5.66128e-16)
(26.5449 2.31312 9.10706e-17)
(26.9005 2.90281 2.60186e-16)
(26.8559 2.80197 -1.04894e-16)
(26.7964 2.69924 1.36005e-16)
(26.7194 2.59545 -6.11601e-16)
(26.6225 2.49313 -4.56851e-16)
(26.5092 2.39774 -4.43969e-16)
(26.8532 3.02599 -1.84047e-16)
(26.8237 2.93681 -3.00235e-16)
(26.783 2.84534 9.62061e-17)
(26.7294 2.75207 2.24302e-16)
(26.6606 2.65757 4.06827e-16)
(26.5743 2.56359 1.1566e-16)
(26.4737 2.47551 7.28511e-16)
(26.7791 3.04961 2.76409e-16)
(26.7518 2.96878 -1.97162e-16)
(26.7148 2.88586 2.56178e-16)
(26.6665 2.80119 6.84812e-17)
(26.605 2.71506 -1.16416e-16)
(26.528 2.62862 -2.86547e-16)
(26.4386 2.5473 9.01126e-17)
(26.7096 3.07233 -2.01999e-16)
(26.6846 2.99904 3.82313e-16)
(26.6509 2.92388 3.47632e-17)
(26.6074 2.84697 -5.15703e-16)
(26.5523 2.76844 5.25593e-16)
(26.4836 2.68888 -2.62568e-16)
(26.4041 2.61375 -2.94962e-16)
(26.6443 3.09393 -3.03224e-16)
(26.6213 3.02756 -6.84738e-18)
(26.5907 2.95943 -4.37114e-17)
(26.5516 2.88961 5.88981e-16)
(26.5024 2.81805 1.53834e-17)
(26.4411 2.74481 -4.37797e-16)
(26.3703 2.67542 7.86885e-16)
(26.5824 3.11433 -6.55387e-17)
(26.5616 3.05424 9.24855e-17)
(26.5341 2.99256 5.76621e-17)
(26.499 2.92928 -1.58619e-16)
(26.455 2.86411 2.78554e-16)
(26.4004 2.79679 -3.27722e-16)
(26.3373 2.73268 1.25508e-16)
(26.5238 3.13345 -3.07459e-17)
(26.5051 3.07914 -2.03353e-16)
(26.4805 3.0234 2.10623e-17)
(26.4491 2.96608 -1.18789e-16)
(26.4099 2.90687 4.54747e-17)
(26.3612 2.84507 -3.10373e-16)
(26.3052 2.78593 3.01637e-16)
(26.468 3.1513 1.2851e-16)
(26.4514 3.10236 -6.93043e-17)
(26.4295 3.05206 -9.32653e-17)
(26.4017 3.00023 4.72679e-16)
(26.367 2.94651 3.48272e-16)
(26.3235 2.8899 -2.36441e-16)
(26.2737 2.8355 2.47483e-17)
(26.4257 3.21128 -1.88168e-17)
(26.4149 3.16827 1.4836e-16)
(26.4002 3.12408 -1.03608e-16)
(26.381 3.07871 1.58591e-16)
(26.3565 3.03193 -1.91655e-17)
(26.3258 2.98329 5.99846e-17)
(26.2873 2.93157 -3.83342e-17)
(26.2431 2.88169 1.24867e-16)
(26.3739 3.22245 -8.36317e-17)
(26.3644 3.18389 -2.22003e-16)
(26.3515 3.14419 1.85749e-16)
(26.3346 3.10342 2.06758e-16)
(26.3131 3.06128 6.68651e-17)
(26.2862 3.01734 -2.45087e-16)
(26.2523 2.97022 1.87347e-16)
(26.2132 2.92458 -3.04118e-16)
(26.3249 3.23275 -6.59849e-17)
(26.3164 3.19833 9.77341e-17)
(26.305 3.16283 9.72436e-18)
(26.2902 3.12633 -2.50838e-16)
(26.2715 3.08853 1.50111e-16)
(26.248 3.04893 4.83914e-17)
(26.2183 3.0061 1.53015e-16)
(26.184 2.96445 -3.84491e-17)
(26.2786 3.24187 -1.18045e-16)
(26.2709 3.2114 6.36914e-17)
(26.2607 3.17979 -3.61996e-17)
(26.2477 3.14727 -1.69913e-16)
(26.2315 3.1135 5.41057e-16)
(26.2112 3.078 -3.8724e-16)
(26.1854 3.03921 -1.69847e-16)
(26.1554 3.00146 -4.44032e-17)
(26.235 3.24985 1.36274e-16)
(26.2278 3.22298 -8.28038e-18)
(26.2186 3.19502 5.63284e-17)
(26.2072 3.16626 -1.3759e-16)
(26.1931 3.13631 -9.96623e-17)
(26.1756 3.10474 6.3516e-17)
(26.1533 3.06987 8.04556e-17)
(26.1273 3.0359 1.04457e-16)
(26.1942 3.25617 7.7815e-17)
(26.1875 3.23234 -1.00288e-17)
(26.1791 3.20758 -1.86158e-16)
(26.1689 3.1822 -3.79356e-18)
(26.1566 3.15581 1.51555e-16)
(26.1416 3.12788 -3.11685e-16)
(26.1225 3.09669 6.96951e-17)
(26.1001 3.0663 -1.90286e-16)
(26.1598 3.26157 1.37877e-16)
(26.1532 3.24015 -1.48257e-16)
(26.1453 3.21804 2.39015e-16)
(26.1359 3.19552 -6.37741e-17)
(26.1247 3.17213 -7.6612e-17)
(26.1113 3.14732 -6.58575e-17)
(26.0945 3.11925 2.43501e-16)
(26.075 3.09219 -1.06832e-16)
(26.1378 3.28595 -2.86201e-17)
(26.1326 3.26624 -7.69468e-17)
(26.126 3.24591 2.70688e-17)
(26.1181 3.2258 4.34779e-17)
(26.1089 3.20561 -1.22679e-16)
(26.0982 3.18471 7.58348e-17)
(26.0856 3.1625 2.57359e-16)
(26.07 3.13713 -3.13637e-16)
(26.0523 3.11273 1.4327e-16)
(26.1115 3.28863 -7.61579e-18)
(26.1066 3.27038 2.29265e-17)
(26.1001 3.2517 -1.59932e-16)
(26.0923 3.23349 8.70065e-17)
(26.0832 3.21542 5.76118e-17)
(26.0728 3.1969 2.8127e-17)
(26.0608 3.17721 -2.13052e-16)
(26.0462 3.15455 8.0863e-17)
(26.03 3.13271 1.24154e-16)
(26.0851 3.29146 1.96701e-18)
(26.0807 3.27455 1.42499e-16)
(26.0746 3.25736 1.17567e-16)
(26.0671 3.24083 -4.43768e-17)
(26.0583 3.2247 2.95254e-17)
(26.0482 3.20836 -7.89751e-17)
(26.0367 3.19113 1.61613e-16)
(26.0231 3.17116 -5.29058e-16)
(26.0082 3.15202 2.34564e-16)
(26.0584 3.29463 1.49366e-19)
(26.0546 3.27882 1.27585e-16)
(26.0491 3.26282 -2.64278e-16)
(26.042 3.24763 -1.50489e-17)
(26.0335 3.23306 1.45867e-16)
(26.0237 3.21855 -1.72996e-16)
(26.0128 3.20347 3.33652e-16)
(26.0001 3.186 -3.23958e-16)
(25.9865 3.16936 3.30024e-16)
(26.0314 3.29868 -3.42758e-17)
(26.0281 3.28406 -8.92885e-17)
(26.0232 3.26928 1.20956e-16)
(26.0166 3.25539 7.23501e-17)
(26.0085 3.24224 -3.44014e-16)
(25.9991 3.22936 2.28453e-16)
(25.9888 3.21617 1.97483e-16)
(25.9769 3.201 -8.49181e-17)
(25.9642 3.18678 -1.08681e-16)
(26.0049 3.30104 -1.75918e-17)
(26.0022 3.28717 -2.97552e-17)
(25.9978 3.27318 7.32307e-17)
(25.9917 3.26013 -6.02956e-18)
(25.9841 3.24794 -9.36803e-17)
(25.9751 3.23621 -1.26823e-16)
(25.9652 3.22442 1.91506e-16)
(25.9541 3.21091 -2.40307e-17)
(25.9424 3.19832 3.63094e-17)
(25.977 3.30927 3.16505e-17)
(25.9747 3.29709 -2.6591e-17)
(25.971 3.28451 -1.1286e-16)
(25.9657 3.27284 -2.11278e-17)
(25.9589 3.26202 2.00166e-17)
(25.9507 3.25173 2.15726e-17)
(25.9416 3.24153 3.12534e-17)
(25.9307 3.23009 -3.84798e-17)
(25.9187 3.21989 6.45892e-17)
(25.9532 3.30125 -1.78124e-17)
(25.9512 3.28882 -5.55329e-17)
(25.948 3.27608 -2.57639e-17)
(25.9433 3.26444 5.72659e-17)
(25.937 3.25389 1.85041e-17)
(25.9292 3.24414 -7.4376e-18)
(25.9206 3.23479 9.97316e-17)
(25.9109 3.22434 -4.97281e-17)
(25.9006 3.21479 -6.70617e-17)
(25.9194 3.32984 1.59261e-16)
(25.9182 3.31995 -5.9115e-17)
(25.9163 3.30963 1.65044e-17)
(25.9132 3.30006 -1.89541e-16)
(25.9088 3.29131 -4.49878e-17)
(25.903 3.28323 1.89088e-16)
(25.8959 3.27568 1.16913e-16)
(25.886 3.26837 -1.46037e-16)
(25.8731 3.26223 1.76808e-17)
(25.9075 3.28788 4.13892e-17)
(25.9072 3.27454 1.00494e-17)
(25.9057 3.26085 5.94915e-18)
(25.9036 3.24835 9.07145e-17)
(25.9004 3.23704 -1.10984e-16)
(25.8961 3.22698 1.273e-16)
(25.8906 3.21786 -2.13525e-17)
(25.8845 3.20956 -1.36807e-16)
(25.8784 3.20071 -4.78355e-17)
(25.8723 3.1919 1.50629e-17)
(25.8521 3.40173 7.44108e-18)
(25.8523 3.39573 5.45574e-18)
(25.8525 3.38799 -6.33625e-18)
(25.8527 3.38041 -6.13155e-17)
(25.8525 3.37322 -4.48007e-17)
(25.8516 3.36643 2.65814e-17)
(25.8496 3.35999 -2.63001e-17)
(25.8462 3.35418 -2.43994e-17)
(25.8378 3.35021 4.21106e-17)
(25.8254 3.34448 6.63732e-17)
(25.8958 3.17908 -2.79164e-18)
(25.8936 3.16399 -5.22607e-17)
(25.892 3.14906 2.34526e-17)
(25.8912 3.1354 1.34212e-16)
(25.8899 3.12284 -2.43827e-16)
(25.8876 3.11125 7.1453e-17)
(25.8849 3.10015 2.43975e-16)
(25.8829 3.08953 -2.33188e-16)
(25.8845 3.07764 3.72889e-17)
(25.8902 3.06503 -6.93782e-18)
(18.5971 3.17966 1.03055e-17)
(13.2453 2.47511 -3.87584e-18)
(8.41778 1.7914 -3.83762e-18)
(4.42991 1.33538 -1.18898e-17)
(1.13025 1.1674 1.85261e-17)
(-1.51295 1.20802 -4.31754e-17)
(-1.98604 0.882686 -1.91421e-17)
(0.212196 0.109776 1.95914e-17)
(2.35153 -0.504282 2.37783e-17)
(4.16663 -0.958567 5.35305e-17)
(5.87284 -1.33378 -1.2504e-17)
(7.54825 -1.66212 3.64845e-17)
(9.23779 -1.95733 -6.21985e-18)
(10.9542 -2.22776 6.2008e-18)
(12.7094 -2.47667 -2.44122e-17)
(14.4962 -2.71092 1.9727e-17)
(16.302 -2.93276 2.81763e-17)
(18.081 -3.13445 -1.10816e-17)
(19.7648 -3.28923 -2.88782e-17)
(21.2534 -3.37311 9.09317e-18)
(22.4732 -3.36608 2.303e-18)
(23.3838 -3.27266 -5.69843e-18)
(24.0046 -3.11815 -2.05733e-18)
(24.3865 -2.93543 2.51946e-17)
(24.5895 -2.74518 -3.46841e-17)
(24.7171 -2.54836 2.15756e-17)
(24.8355 -2.34694 -3.58091e-17)
(24.969 -2.14301 2.84319e-19)
(25.116 -1.93588 -4.33739e-17)
(25.2702 -1.72481 -5.85739e-17)
(25.4234 -1.50937 -2.11906e-17)
(25.5719 -1.29064 -1.34933e-17)
(25.7115 -1.06965 3.04503e-17)
(25.8413 -0.84839 1.51741e-18)
(25.9591 -0.62802 5.62695e-17)
(26.0654 -0.410032 1.78072e-18)
(26.1592 -0.195095 3.71234e-18)
(26.2403 0.0158822 -3.99006e-17)
(26.3087 0.22202 -5.20515e-18)
(26.3658 0.421071 4.61881e-18)
(26.4121 0.612268 -6.61506e-17)
(26.4486 0.794719 -4.45173e-16)
(26.476 0.968742 2.04281e-17)
(26.4954 1.13414 3.85712e-17)
(26.5074 1.29118 -2.22703e-17)
(26.5131 1.43972 -6.58953e-18)
(26.5132 1.58015 2.60268e-16)
(26.5086 1.71263 -3.50705e-17)
(26.5 1.83744 3.06525e-17)
(26.4879 1.9546 2.27535e-17)
(26.4725 2.06414 -1.08641e-16)
(26.4542 2.16598 2.53849e-16)
(26.4336 2.26023 8.51302e-18)
(26.4111 2.34737 -3.11412e-17)
(26.3872 2.42802 -1.98309e-16)
(26.3622 2.50282 1.54577e-16)
(26.3367 2.57234 7.81933e-19)
(26.3107 2.63701 -2.11102e-16)
(26.2847 2.69726 -1.79236e-17)
(26.2585 2.75331 6.25602e-17)
(26.2326 2.80562 -3.5737e-16)
(26.2068 2.85454 8.63956e-17)
(26.1813 2.90011 -1.9732e-19)
(26.156 2.9426 3.42467e-18)
(26.1311 2.98211 -2.45123e-16)
(26.1063 3.01903 1.2024e-16)
(26.0821 3.05179 -3.81167e-20)
(26.0592 3.0796 5.20652e-18)
(26.0384 3.1018 5.30286e-19)
(26.0176 3.12352 -3.11794e-16)
(25.9971 3.14463 -7.49824e-17)
(25.9768 3.16361 2.87754e-17)
(25.9555 3.18282 7.35538e-17)
(25.9349 3.19527 -2.80042e-19)
(25.9112 3.21877 -1.35367e-19)
(25.8947 3.21288 1.52249e-18)
(25.8663 3.26273 4.14922e-17)
(25.8693 3.18837 4.34146e-18)
(25.8207 3.34413 -3.28819e-17)
(25.8908 3.06438 -4.52519e-21)
(24.4034 2.56296 -4.66057e-18)
(21.4287 2.29503 -3.01048e-20)
(17.0756 1.90539 9.33009e-18)
(12.6639 1.50477 2.83536e-20)
(8.87115 1.14915 3.39794e-18)
(5.9529 0.868907 1.65461e-17)
(4.13029 0.581688 6.26362e-18)
(4.28239 0.127753 8.76861e-18)
(5.82296 -0.295741 -8.38428e-17)
(7.37944 -0.589982 -5.40205e-17)
(8.87351 -0.831258 1.41454e-17)
(10.3499 -1.05186 -3.01485e-18)
(11.834 -1.26294 -1.0552e-17)
(13.3339 -1.46079 -6.04481e-19)
(14.8474 -1.64029 2.50582e-18)
(16.3605 -1.80038 -2.05306e-18)
(17.8472 -1.94103 -2.74781e-18)
(19.2665 -2.05862 8.99969e-19)
(20.5612 -2.14151 1.52774e-18)
(21.6723 -2.1746 -7.31341e-18)
(22.5627 -2.15142 -5.59924e-18)
(23.2215 -2.07914 -8.12952e-20)
(23.6712 -1.97135 -8.48906e-19)
(23.9506 -1.84893 5.21283e-18)
(24.1088 -1.72458 -9.14745e-18)
(24.2193 -1.59981 8.11406e-18)
(24.329 -1.47411 -2.22612e-17)
(24.4554 -1.34669 1.90923e-17)
(24.597 -1.21502 -6.46389e-17)
(24.7483 -1.07768 -7.48561e-17)
(24.9026 -0.933774 -1.21602e-17)
(25.0564 -0.783532 3.68995e-17)
(25.2055 -0.627376 -1.08339e-16)
(25.3489 -0.46662 1.04124e-18)
(25.4838 -0.302292 5.14728e-17)
(25.6102 -0.135397 6.9118e-17)
(25.7256 0.0336469 -5.76519e-17)
(25.8296 0.203515 -6.87778e-17)
(25.922 0.372905 -4.19678e-18)
(26.0042 0.539558 1.6757e-16)
(26.0757 0.702586 -1.14107e-17)
(26.1376 0.860929 4.12704e-16)
(26.1901 1.01463 1.84469e-17)
(26.2338 1.16304 7.62107e-17)
(26.2693 1.30612 -2.09827e-17)
(26.2972 1.44342 -1.51497e-16)
(26.3183 1.57499 -2.42617e-16)
(26.3334 1.70061 -3.49001e-17)
(26.3429 1.82017 2.35045e-17)
(26.3473 1.93336 4.43956e-17)
(26.3471 2.03998 7.11901e-17)
(26.3427 2.13984 7.2115e-17)
(26.3346 2.23299 5.87009e-17)
(26.3234 2.31977 -9.6517e-18)
(26.3095 2.40076 -2.90626e-18)
(26.2935 2.4764 -3.17342e-16)
(26.2758 2.54715 8.97519e-19)
(26.2568 2.61332 1.84071e-16)
(26.2369 2.67515 9.37348e-18)
(26.2162 2.73296 -6.56004e-17)
(26.1952 2.78708 2.19737e-16)
(26.1738 2.83781 -1.66963e-16)
(26.1523 2.88516 3.23869e-16)
(26.1306 2.92941 4.44065e-18)
(26.1089 2.97065 -6.9501e-17)
(26.0871 3.00917 2.69005e-18)
(26.0656 3.04357 -5.2285e-20)
(26.0448 3.07254 7.24298e-18)
(26.0258 3.09563 7.36203e-19)
(26.0068 3.1184 1.90409e-16)
(25.988 3.14067 7.34077e-17)
(25.9691 3.16067 -2.90649e-17)
(25.9491 3.18112 -7.46394e-17)
(25.9294 3.19415 -6.70231e-17)
(25.9065 3.21898 -4.91332e-17)
(25.8902 3.21276 3.60829e-17)
(25.8629 3.26459 -4.45228e-17)
(25.8646 3.18966 -5.18641e-19)
(25.8209 3.34754 -5.42731e-19)
(25.8027 2.05595 -2.61186e-18)
(24.5698 1.96492 -4.35134e-19)
(21.7551 1.74665 1.61883e-18)
(18.1242 1.45765 -4.16281e-18)
(14.4626 1.16132 -1.41749e-17)
(11.2249 0.920762 -2.32023e-19)
(8.65756 0.761809 -1.17233e-17)
(7.29491 0.554787 -5.40645e-18)
(7.9497 0.182147 -8.34737e-18)
(9.48681 -0.126261 6.1636e-17)
(10.9265 -0.353379 -1.63521e-17)
(12.3125 -0.553645 4.7853e-18)
(13.6715 -0.733088 1.19466e-17)
(15.0248 -0.897127 6.83015e-19)
(16.3656 -1.0426 6.4681e-18)
(17.6833 -1.16683 -2.03532e-17)
(18.9473 -1.2673 2.08623e-18)
(20.1256 -1.34178 1.08418e-17)
(21.1746 -1.38519 2.64718e-17)
(22.0574 -1.38891 8.84828e-18)
(22.7529 -1.35381 1.32275e-17)
(23.2625 -1.28779 2.30083e-18)
(23.6065 -1.20127 -6.57995e-18)
(23.817 -1.10743 -1.24516e-17)
(23.9353 -1.01437 1.91113e-18)
(24.0188 -0.923049 2.70039e-18)
(24.1041 -0.832563 -3.53698e-18)
(24.206 -0.741545 -2.08555e-17)
(24.3235 -0.647805 3.46293e-17)
(24.4531 -0.549847 -2.62045e-17)
(24.5892 -0.446802 -8.20142e-18)
(24.729 -0.338281 5.66561e-18)
(24.8687 -0.224135 1.74618e-19)
(25.0069 -0.104519 7.6401e-19)
(25.1404 0.0199023 1.85335e-17)
(25.2688 0.148715 -6.6689e-17)
(25.3892 0.281318 7.65674e-17)
(25.5014 0.416856 1.3432e-17)
(25.6048 0.554046 -3.31238e-18)
(25.7001 0.691093 -1.59164e-16)
(25.7866 0.82723 -8.85342e-17)
(25.8648 0.961633 -3.34808e-16)
(25.9345 1.09417 1.56904e-17)
(25.996 1.22409 5.60404e-17)
(26.0494 1.3511 2.88354e-17)
(26.095 1.47464 -2.76689e-17)
(26.1333 1.59458 2.09602e-16)
(26.1649 1.71049 -3.19257e-17)
(26.19 1.82201 3.63633e-17)
(26.2091 1.92858 -4.8065e-17)
(26.2225 2.02984 -1.84512e-17)
(26.2307 2.1255 -1.47225e-17)
(26.2342 2.21548 5.71326e-18)
(26.2336 2.30008 -2.00505e-16)
(26.2294 2.37976 -1.15133e-16)
(26.222 2.45485 2.86839e-16)
(26.212 2.52566 9.53373e-19)
(26.1998 2.59237 -3.61425e-16)
(26.186 2.6552 -1.76795e-17)
(26.1708 2.71421 7.16655e-17)
(26.1547 2.76969 5.2742e-19)
(26.1378 2.82189 7.93313e-17)
(26.1203 2.87077 -5.4433e-16)
(26.1023 2.91658 -1.08267e-16)
(26.084 2.9593 2.87663e-16)
(26.0653 2.9993 4.64343e-17)
(26.0467 3.03523 1.70536e-17)
(26.0283 3.06522 8.87304e-18)
(26.0113 3.08923 9.06149e-19)
(25.9943 3.11302 1.05649e-16)
(25.9772 3.13641 2.12113e-16)
(25.9601 3.15747 -2.29583e-19)
(25.9415 3.17922 -7.3764e-17)
(25.923 3.19296 1.1681e-16)
(25.9012 3.21912 4.88084e-17)
(25.885 3.21308 1.29349e-16)
(25.8599 3.26715 1.09562e-17)
(25.8589 3.19315 -7.88921e-17)
(26.2202 1.82004 4.50581e-18)
(25.8165 1.81612 -3.9766e-19)
(24.2561 1.70992 -1.16062e-17)
(21.6649 1.52297 2.46006e-18)
(18.5683 1.28756 3.59783e-18)
(15.4452 1.05185 -1.7613e-19)
(12.6264 0.884835 4.51724e-18)
(10.457 0.830761 7.8559e-19)
(9.56546 0.827418 -6.13964e-18)
(10.2091 0.802063 -5.63317e-17)
(11.5106 0.666994 1.88129e-17)
(12.8786 0.420257 1.41313e-17)
(14.2296 0.134891 3.75828e-17)
(15.5666 -0.125701 -3.70548e-17)
(16.8609 -0.336523 -2.37349e-17)
(18.1104 -0.491901 -3.30029e-17)
(19.2839 -0.59671 1.40302e-17)
(20.3587 -0.66108 -3.31472e-18)
(21.2996 -0.690863 -4.63178e-17)
(22.0835 -0.686945 -1.55462e-17)
(22.6971 -0.656916 -8.28936e-18)
(23.1474 -0.608765 -2.94432e-17)
(23.4534 -0.550181 1.97779e-17)
(23.6436 -0.488036 -1.26092e-17)
(23.753 -0.427146 7.48706e-18)
(23.8305 -0.366845 4.97351e-18)
(23.9081 -0.306497 -6.63217e-18)
(23.9997 -0.244047 5.10125e-19)
(24.1054 -0.178167 -2.19601e-17)
(24.2227 -0.107288 3.61083e-17)
(24.347 -0.0317284 -2.06184e-17)
(24.4765 0.0490043 1.36087e-17)
(24.6077 0.134693 4.04957e-17)
(24.7395 0.22593 -1.70573e-18)
(24.8688 0.321914 2.33979e-17)
(24.9952 0.422743 -5.39404e-17)
(25.1162 0.527546 -1.60962e-18)
(25.2315 0.635899 -4.1848e-17)
(25.3405 0.746541 -6.35977e-17)
(25.4435 0.858353 2.30248e-18)
(25.5396 0.970687 2.8952e-17)
(25.6289 1.08312 4.52907e-17)
(25.7109 1.19543 1.27334e-17)
(25.7855 1.30691 1.68779e-17)
(25.8525 1.41723 -2.09085e-17)
(25.912 1.52586 5.32621e-17)
(25.9641 1.6326 -1.36013e-17)
(26.009 1.73697 -2.81103e-17)
(26.0469 1.83854 2.59285e-17)
(26.0782 1.93663 8.71133e-17)
(26.1032 2.03076 -5.43143e-17)
(26.1222 2.12054 -1.42145e-17)
(26.1358 2.20583 -7.95164e-17)
(26.1446 2.28684 1.80651e-16)
(26.1489 2.3639 1.08926e-16)
(26.1494 2.43724 -2.8124e-16)
(26.1466 2.5071 1.02642e-18)
(26.1408 2.57355 3.2842e-16)
(26.1328 2.63659 -8.24295e-17)
(26.1229 2.69631 -7.55792e-17)
(26.1116 2.7528 -1.86105e-16)
(26.0991 2.80615 7.3491e-17)
(26.0857 2.85626 5.09532e-16)
(26.0714 2.90336 1.85069e-16)
(26.0565 2.94744 -2.18562e-16)
(26.041 2.98877 1.0175e-16)
(26.0255 3.02617 -7.33816e-17)
(26.0096 3.05722 1.06178e-17)
(25.9949 3.0821 1.08783e-18)
(25.9799 3.10688 -7.36943e-18)
(25.9649 3.13142 -2.13711e-16)
(25.9498 3.15353 -2.74526e-19)
(25.933 3.17657 1.85803e-17)
(25.9159 3.19112 -1.13498e-16)
(25.8958 3.21861 2.13042e-16)
(25.8799 3.21309 -3.38969e-18)
(25.857 3.26951 -1.04241e-18)
(26.4869 1.78398 -1.37205e-18)
(26.4813 1.82205 2.67671e-19)
(25.7749 1.82127 -5.09249e-19)
(24.1101 1.77012 3.09589e-19)
(21.6931 1.64098 -6.12959e-18)
(18.9022 1.41357 6.99412e-18)
(16.0963 1.10943 -3.62746e-18)
(13.5996 0.81387 -4.27303e-19)
(11.804 0.633689 7.754e-18)
(11.2258 0.633299 -3.48466e-17)
(11.8945 0.721844 -6.19176e-18)
(13.0777 0.714643 -5.65008e-17)
(14.3306 0.601042 -3.25814e-17)
(15.6166 0.452316 -1.29416e-17)
(16.8898 0.310578 -3.71914e-18)
(18.1135 0.193879 2.9849e-17)
(19.2521 0.108389 1.85452e-17)
(20.2841 0.0522482 -1.86322e-17)
(21.1817 0.0220221 -7.31355e-18)
(21.9254 0.0156891 -1.78781e-18)
(22.5075 0.0251214 1.76739e-17)
(22.9364 0.0447603 6.32605e-17)
(23.2327 0.0701176 -1.30981e-17)
(23.422 0.0985065 -1.07327e-17)
(23.5358 0.126782 -7.38216e-18)
(23.6163 0.156373 4.30632e-18)
(23.6945 0.187344 -1.05536e-17)
(23.7845 0.222204 2.05194e-18)
(23.8877 0.261333 1.33793e-17)
(24.0018 0.307014 -1.69161e-17)
(24.123 0.357798 1.25724e-18)
(24.2496 0.414445 -8.12361e-18)
(24.3786 0.475938 -1.32577e-17)
(24.5086 0.543481 1.1934e-18)
(24.6373 0.615698 1.66931e-17)
(24.764 0.693114 2.09782e-17)
(24.8867 0.774374 6.96271e-18)
(25.005 0.859418 -8.85906e-18)
(25.1186 0.946922 8.46618e-17)
(25.2275 1.03636 -1.44113e-17)
(25.3308 1.12714 -1.97576e-17)
(25.4282 1.21916 1.07529e-17)
(25.5192 1.31212 4.26108e-17)
(25.6034 1.40552 6.70155e-17)
(25.6804 1.49901 -9.04879e-17)
(25.7501 1.59215 7.07632e-18)
(25.8125 1.68479 -1.13871e-17)
(25.8675 1.77652 -2.43331e-17)
(25.9153 1.8669 2.32165e-17)
(25.9561 1.95523 -1.4666e-17)
(25.9902 2.041 -7.50829e-17)
(26.0179 2.12378 -1.40403e-17)
(26.0397 2.20331 1.27403e-17)
(26.0562 2.27971 -1.03889e-17)
(26.0679 2.35318 -3.33699e-18)
(26.0753 2.4239 2.46548e-16)
(26.0789 2.49193 1.14711e-18)
(26.0792 2.5573 -1.72708e-16)
(26.0766 2.62001 4.15435e-19)
(26.0718 2.67988 -2.45331e-18)
(26.0652 2.73689 1.45263e-17)
(26.057 2.79099 -6.05135e-18)
(26.0476 2.84204 -2.89588e-16)
(26.0371 2.89022 -9.65877e-17)
(26.0258 2.93539 1.91309e-16)
(26.0137 2.97794 -9.81793e-17)
(26.0015 3.01667 5.60127e-17)
(25.9884 3.04872 1.23078e-16)
(25.976 3.07449 -1.48625e-16)
(25.9634 3.1002 -2.68258e-16)
(25.9507 3.1258 -1.39224e-18)
(25.9378 3.14894 -3.27252e-19)
(25.9233 3.17326 -6.63682e-17)
(25.908 3.1886 6.22248e-17)
(25.8898 3.21738 -6.24282e-18)
(25.8747 3.21257 -2.91145e-18)
(26.6806 1.84597 -6.6101e-19)
(26.8271 1.85681 8.36366e-19)
(26.6718 1.88823 3.06916e-18)
(25.7972 1.9194 1.18047e-18)
(24.1131 1.89389 5.24998e-18)
(21.8083 1.76007 -4.61836e-18)
(19.1735 1.49274 1.18487e-18)
(16.5216 1.10378 -7.76559e-19)
(14.2032 0.649051 2.45393e-17)
(12.6856 0.243003 5.02239e-17)
(12.4715 0.034924 -4.53281e-18)
(13.4063 0.0631727 4.53478e-18)
(14.6428 0.188668 1.56673e-17)
(15.8482 0.317669 3.98805e-17)
(17.0371 0.428574 1.33688e-17)
(18.1954 0.511948 -4.38556e-18)
(19.2786 0.565399 -1.51407e-17)
(20.2547 0.59413 5.53187e-18)
(21.102 0.606358 1.29081e-17)
(21.8036 0.611437 1.82191e-17)
(22.3554 0.611424 1.49466e-18)
(22.7654 0.611315 -8.95483e-18)
(23.0542 0.613322 -1.74477e-17)
(23.2445 0.619565 4.79599e-17)
(23.3634 0.627817 -2.3007e-17)
(23.4465 0.638822 -1.45951e-18)
(23.524 0.651259 2.57155e-18)
(23.6113 0.667168 -3.30369e-19)
(23.7116 0.68652 -5.1179e-18)
(23.8229 0.711558 4.18152e-19)
(23.9422 0.741039 4.28169e-18)
(24.067 0.775988 7.29244e-19)
(24.1949 0.815495 -1.92108e-17)
(24.3243 0.860861 2.23652e-19)
(24.4533 0.910882 3.89524e-18)
(24.5807 0.966084 -3.7474e-18)
(24.7049 1.02509 -5.54447e-17)
(24.8255 1.08801 -4.65125e-17)
(24.9422 1.15363 -6.16483e-17)
(25.0548 1.22182 3.00423e-17)
(25.1626 1.29201 2.02396e-17)
(25.2651 1.36433 2.33257e-17)
(25.3615 1.43844 -2.70757e-17)
(25.4516 1.514 -6.67864e-17)
(25.5348 1.59068 -5.42538e-18)
(25.6108 1.6682 3.349e-17)
(25.6797 1.74643 -9.21756e-18)
(25.7413 1.82504 -2.08772e-17)
(25.7956 1.90367 2.0977e-17)
(25.843 1.98166 4.83182e-17)
(25.8834 2.05848 7.878e-17)
(25.9174 2.13365 -1.42925e-17)
(25.9454 2.20688 8.39841e-17)
(25.968 2.27816 -1.11769e-17)
(25.9857 2.34753 -3.66977e-18)
(25.9989 2.41505 -2.39798e-16)
(26.0081 2.48076 1.30277e-18)
(26.0138 2.54455 1.31149e-16)
(26.0165 2.60625 7.49268e-17)
(26.0166 2.66576 -2.84438e-18)
(26.0147 2.72286 2.67842e-16)
(26.0109 2.77734 -7.02096e-18)
(26.0056 2.82897 -4.56909e-19)
(25.9991 2.87787 -4.38683e-17)
(25.9916 2.92395 -1.66779e-17)
(25.9831 2.96746 -3.27011e-17)
(25.9744 3.00731 -1.02685e-19)
(25.9644 3.04033 -9.5792e-17)
(25.9546 3.06691 1.50962e-16)
(25.9445 3.09347 6.92237e-18)
(25.9343 3.11999 -1.34375e-16)
(25.924 3.14405 4.386e-17)
(25.912 3.16949 1.17323e-16)
(25.8989 3.18565 -4.28168e-19)
(26.9862 1.83636 -3.14194e-18)
(27.1317 1.80942 1.69902e-18)
(27.2495 1.82529 2.41734e-18)
(27.0073 1.87988 2.48881e-18)
(26.1119 1.90914 1.04209e-18)
(24.5217 1.85863 -2.95749e-19)
(22.3791 1.70996 2.73854e-18)
(19.9109 1.46652 -1.62818e-18)
(17.3995 1.13466 -3.10905e-18)
(15.2207 0.733496 -1.14704e-17)
(13.9038 0.33107 4.52605e-18)
(13.9359 0.0705597 8.1413e-19)
(15.0136 0.0579429 -3.4752e-18)
(16.3046 0.218488 -5.50293e-18)
(17.4802 0.418198 2.39965e-17)
(18.5624 0.59031 7.30759e-18)
(19.5664 0.717672 -4.11637e-17)
(20.4718 0.80291 1.19283e-17)
(21.2554 0.857598 2.99671e-17)
(21.9043 0.891813 -8.92021e-18)
(22.4166 0.912693 -1.86134e-17)