/*--------------------------------*- C++ -*----------------------------------*\
| =========                 |                                                 |
| \\      /  F ield         | OpenFOAM: The Open Source CFD Toolbox           |
|  \\    /   O peration     | Version:  2306                                  |
|   \\  /    A nd           | Website:  www.openfoam.com                      |
|    \\/     M anipulation  |                                                 |
\*---------------------------------------------------------------------------*/
FoamFile
{
    version     2.0;
    format      ascii;
    arch        "LSB;label=32;scalar=64";
    class       volScalarField;
    location    "900";
    object      magR;
}
// * * * * * * * * * * * * * * * * * * * * * * * * * * * * * * * * * * * * * //

dimensions      [0 2 -2 0 0 0 0];

internalField   nonuniform List<scalar> 
1340
(
59.2333
56.6214
53.5796
43.8855
1.7808
1.96131
2.36383
3.28791
0.383868
0.528936
0.633144
1.0807
0.0141603
0.0466214
0.117998
0.429372
0.000602515
0.00164766
0.00387928
0.0833077
7.61507e-05
0.000281025
0.00088624
0.00949135
8.22551e-06
1.45403e-06
7.85688e-08
0.000281707
2.15214e-05
1.57422e-05
1.83009e-06
1.94413e-05
2.84478e-05
3.05152e-05
3.24671e-05
1.22081e-06
2.39505e-05
2.35771e-05
3.97326e-05
1.64642e-05
2.42467e-05
2.41277e-05
3.42673e-05
4.26841e-05
2.24909e-05
2.27377e-05
2.92288e-05
4.66921e-05
2.16339e-05
2.1941e-05
2.69071e-05
4.29099e-05
2.04295e-05
2.06115e-05
2.49124e-05
3.8595e-05
1.93463e-05
1.94147e-05
2.30486e-05
3.48104e-05
1.81846e-05
1.81484e-05
2.11943e-05
3.13812e-05
1.70275e-05
1.68957e-05
1.94204e-05
2.82039e-05
1.5851e-05
1.56307e-05
1.77215e-05
2.52574e-05
1.46712e-05
1.43698e-05
1.60971e-05
2.25339e-05
1.34914e-05
1.31158e-05
1.45508e-05
2.00386e-05
1.2319e-05
1.18765e-05
1.30778e-05
1.77552e-05
1.11603e-05
1.06599e-05
1.16805e-05
1.56769e-05
1.00227e-05
9.47152e-06
1.03592e-05
1.37958e-05
8.91399e-06
8.31938e-06
9.11229e-06
1.20968e-05
7.84104e-06
7.20879e-06
7.94376e-06
1.05731e-05
6.81177e-06
6.14587e-06
6.85429e-06
9.21169e-06
5.83416e-06
5.13611e-06
5.84709e-06
8.00432e-06
4.91674e-06
4.18365e-06
4.92517e-06
6.94111e-06
4.06916e-06
3.29254e-06
4.09421e-06
6.01451e-06
3.30401e-06
2.4661e-06
3.36186e-06
5.21829e-06
2.63866e-06
1.70561e-06
2.74016e-06
4.54641e-06
2.10007e-06
1.01353e-06
2.24616e-06
3.9939e-06
1.72685e-06
3.92747e-07
1.90145e-06
3.55482e-06
1.55458e-06
1.87415e-07
1.72059e-06
3.2212e-06
1.57414e-06
6.67256e-07
1.69022e-06
2.98147e-06
1.72001e-06
1.09222e-06
1.76625e-06
2.82064e-06
1.91931e-06
1.45602e-06
1.89707e-06
2.72105e-06
2.1242e-06
1.76121e-06
2.04379e-06
2.66465e-06
2.92145e-06
2.30979e-06
2.011e-06
2.18313e-06
2.63524e-06
2.96547e-06
2.46457e-06
2.20923e-06
2.30279e-06
2.61957e-06
2.99847e-06
2.58415e-06
2.36009e-06
2.39722e-06
2.60791e-06
3.01411e-06
2.66803e-06
2.46785e-06
2.4645e-06
2.59344e-06
3.00934e-06
2.71778e-06
2.53702e-06
2.50511e-06
2.57201e-06
2.98353e-06
2.73613e-06
2.57196e-06
2.52056e-06
2.54126e-06
2.93763e-06
2.72651e-06
2.57708e-06
2.51302e-06
2.50007e-06
2.87349e-06
2.69258e-06
2.55671e-06
2.48532e-06
2.44858e-06
2.79352e-06
2.63805e-06
2.51476e-06
2.44007e-06
2.38732e-06
2.70043e-06
2.56659e-06
2.45508e-06
2.38004e-06
2.31722e-06
2.59678e-06
2.48148e-06
2.38108e-06
2.3079e-06
2.23962e-06
2.48506e-06
2.38568e-06
2.29567e-06
2.22591e-06
2.15563e-06
2.36734e-06
2.28179e-06
2.20149e-06
2.13615e-06
2.06644e-06
2.24533e-06
2.17176e-06
2.10053e-06
2.04028e-06
1.97303e-06
2.1846e-06
2.12043e-06
2.05729e-06
1.99447e-06
1.93966e-06
1.87617e-06
2.04782e-06
1.99375e-06
1.93973e-06
1.88467e-06
1.83547e-06
1.77661e-06
1.91198e-06
1.86652e-06
1.82047e-06
1.77252e-06
1.7289e-06
1.67512e-06
1.77829e-06
1.74016e-06
1.70108e-06
1.65959e-06
1.62137e-06
1.57282e-06
1.64834e-06
1.61645e-06
1.58341e-06
1.54773e-06
1.5146e-06
1.47118e-06
1.52384e-06
1.49723e-06
1.46941e-06
1.43886e-06
1.41039e-06
1.37181e-06
1.40607e-06
1.3839e-06
1.36052e-06
1.33447e-06
1.31017e-06
1.27613e-06
1.29527e-06
1.2768e-06
1.2572e-06
1.23506e-06
1.21446e-06
1.18466e-06
1.19053e-06
1.17515e-06
1.15876e-06
1.14004e-06
1.12274e-06
1.09693e-06
1.10219e-06
1.09022e-06
1.07742e-06
1.06377e-06
1.0481e-06
1.03376e-06
1.01172e-06
1.00312e-06
9.93154e-07
9.82543e-07
9.71279e-07
9.5832e-07
9.46692e-07
9.28166e-07
9.0741e-07
8.99103e-07
8.90355e-07
8.81159e-07
8.70592e-07
8.61439e-07
8.4608e-07
8.16134e-07
8.09226e-07
8.02064e-07
7.94643e-07
7.86146e-07
7.79219e-07
7.66612e-07
7.30577e-07
7.24829e-07
7.18983e-07
7.13054e-07
7.06295e-07
7.01234e-07
6.90866e-07
6.53099e-07
6.48265e-07
6.43476e-07
6.38809e-07
6.3358e-07
6.30152e-07
6.21946e-07
5.88757e-07
5.84428e-07
5.8026e-07
5.76357e-07
5.72088e-07
5.69748e-07
5.6337e-07
5.36988e-07
5.32873e-07
5.28991e-07
5.25419e-07
5.2158e-07
5.19737e-07
5.1435e-07
4.90424e-07
4.86394e-07
4.82623e-07
4.79205e-07
4.75618e-07
4.74029e-07
4.69389e-07
4.45512e-07
4.41595e-07
4.37931e-07
4.34677e-07
4.31327e-07
4.29919e-07
4.25895e-07
4.05292e-07
4.00733e-07
3.96601e-07
3.92866e-07
3.897e-07
3.86711e-07
3.85941e-07
3.84142e-07
3.60336e-07
3.54879e-07
3.49759e-07
3.45036e-07
3.40861e-07
3.36933e-07
3.34329e-07
3.30098e-07
3.03697e-07
2.97918e-07
2.9293e-07
2.88789e-07
2.85763e-07
2.83915e-07
2.86388e-07
2.92162e-07
2.25002e-07
2.13807e-07
2.03583e-07
1.94573e-07
1.86849e-07
1.80368e-07
1.75127e-07
1.67323e-07
1.79998e-07
1.7673e-07
1.75798e-07
1.77426e-07
1.82739e-07
1.92287e-07
2.15047e-07
2.48571e-07
2.00564e-07
1.99485e-07
1.98159e-07
1.96301e-07
1.94817e-07
2.00475e-07
2.35953e-07
2.74404e-07
5.40478e-07
5.60644e-07
5.78196e-07
5.9439e-07
6.13071e-07
6.40584e-07
7.08509e-07
7.65202e-07
1.01492e-06
1.01809e-06
1.02037e-06
1.02186e-06
1.02279e-06
1.02587e-06
1.04601e-06
9.96649e-07
1.93988e-06
1.94058e-06
1.93954e-06
1.93745e-06
1.93294e-06
1.93027e-06
1.9139e-06
1.77562e-06
12.8379
3.47079
0.920126
0.284752
0.0497401
0.00307776
0.000289954
2.22342e-05
1.6121e-06
2.76777e-05
4.91747e-05
4.93672e-05
4.48136e-05
4.04935e-05
3.67273e-05
3.32904e-05
3.00844e-05
2.71036e-05
2.43509e-05
2.18149e-05
1.94914e-05
1.73717e-05
1.54468e-05
1.37075e-05
1.21424e-05
1.07423e-05
9.49679e-06
8.3955e-06
7.42868e-06
6.58682e-06
5.8607e-06
5.24125e-06
4.71898e-06
4.28473e-06
3.92868e-06
3.64042e-06
3.40941e-06
3.22502e-06
3.07701e-06
2.95618e-06
2.85449e-06
2.76524e-06
2.68336e-06
2.60487e-06
2.527e-06
2.44803e-06
2.36692e-06
2.28311e-06
2.19667e-06
2.1076e-06
2.01625e-06
1.92284e-06
1.82758e-06
1.73077e-06
1.6328e-06
1.5345e-06
1.43704e-06
1.34187e-06
1.25016e-06
1.16236e-06
1.07798e-06
9.95859e-07
9.1519e-07
8.35834e-07
7.5892e-07
6.8536e-07
6.18491e-07
5.61428e-07
5.13529e-07
4.69383e-07
4.26335e-07
3.85858e-07
3.30473e-07
2.98746e-07
1.64204e-07
2.71146e-07
2.4977e-07
7.51915e-07
8.81318e-07
1.57784e-06
7.72684
2.50184
0.474296
0.0742486
0.00755037
0.000465373
8.09722e-05
1.32951e-07
2.46297e-06
2.32314e-05
2.88215e-05
2.80337e-05
2.63403e-05
2.48315e-05
2.3448e-05
2.20856e-05
2.07249e-05
1.93669e-05
1.80323e-05
1.67249e-05
1.5456e-05
1.42319e-05
1.30593e-05
1.19493e-05
1.09042e-05
9.92785e-06
9.02427e-06
8.19506e-06
7.43954e-06
6.7573e-06
6.14627e-06
5.60367e-06
5.12573e-06
4.70811e-06
4.34625e-06
4.03427e-06
3.76682e-06
3.53789e-06
3.34146e-06
3.17193e-06
3.024e-06
2.89269e-06
2.7741e-06
2.66454e-06
2.56128e-06
2.46217e-06
2.36559e-06
2.27045e-06
2.17603e-06
2.08177e-06
1.98743e-06
1.89275e-06
1.79752e-06
1.70168e-06
1.60542e-06
1.50934e-06
1.41442e-06
1.32195e-06
1.23288e-06
1.14754e-06
1.06536e-06
9.85215e-07
9.06358e-07
8.28744e-07
7.53529e-07
6.815e-07
6.15867e-07
5.59509e-07
5.12272e-07
4.68831e-07
4.26173e-07
3.86129e-07
3.30661e-07
3.00473e-07
1.6268e-07
2.84471e-07
2.1877e-07
7.55075e-07
8.74112e-07
1.61493e-06
4.87843
1.57881
0.213182
0.0137656
0.000546662
9.97703e-05
8.71768e-06
3.87078e-08
7.56063e-06
1.75716e-05
1.73526e-05
1.64616e-05
1.5556e-05
1.48094e-05
1.41253e-05
1.34616e-05
1.2819e-05
1.21928e-05
1.15806e-05
1.09908e-05
1.04166e-05
9.85907e-06
9.31479e-06
8.78845e-06
8.27834e-06
7.78298e-06
7.30509e-06
6.84657e-06
6.40758e-06
5.99059e-06
5.597e-06
5.2282e-06
4.88536e-06
4.56903e-06
4.27944e-06
4.01576e-06
3.77725e-06
3.56218e-06
3.36858e-06
3.19411e-06
3.03645e-06
2.89295e-06
2.76135e-06
2.63933e-06
2.52492e-06
2.41652e-06
2.31264e-06
2.21228e-06
2.11453e-06
2.01869e-06
1.92424e-06
1.83067e-06
1.73757e-06
1.64463e-06
1.5519e-06
1.45981e-06
1.36914e-06
1.28102e-06
1.19621e-06
1.11488e-06
1.0364e-06
9.59671e-07
8.84002e-07
8.09427e-07
7.37125e-07
6.67795e-07
6.04426e-07
5.49784e-07
5.04163e-07
4.62416e-07
4.21042e-07
3.82171e-07
3.27865e-07
2.98667e-07
1.64787e-07
2.90017e-07
2.0421e-07
7.48913e-07
8.56566e-07
1.61888e-06
2.93901
0.791047
0.057193
0.000552271
0.000124273
2.57022e-08
1.21138e-07
2.15162e-06
9.83169e-06
1.22847e-05
1.14294e-05
1.10033e-05
1.05818e-05
1.02252e-05
9.86583e-06
9.50067e-06
9.14037e-06
8.78309e-06
8.43057e-06
8.08962e-06
7.75532e-06
7.43246e-06
7.11866e-06
6.81367e-06
6.5185e-06
6.23167e-06
5.95233e-06
5.68087e-06
5.41667e-06
5.15997e-06
4.9109e-06
4.66975e-06
4.43753e-06
4.21454e-06
4.00156e-06
3.79934e-06
3.60812e-06
3.42815e-06
3.25944e-06
3.10148e-06
2.95388e-06
2.81586e-06
2.68634e-06
2.56448e-06
2.44927e-06
2.33977e-06
2.23503e-06
2.13437e-06
2.03706e-06
1.94246e-06
1.85006e-06
1.75922e-06
1.66948e-06
1.58045e-06
1.49203e-06
1.40456e-06
1.3187e-06
1.23538e-06
1.15525e-06
1.07833e-06
1.00392e-06
9.30981e-07
8.5889e-07
7.87714e-07
7.18661e-07
6.52352e-07
5.9161e-07
5.39152e-07
4.95486e-07
4.55612e-07
4.15737e-07
3.7829e-07
3.25504e-07
2.97401e-07
1.69691e-07
2.94019e-07
1.97607e-07
7.41318e-07
8.34508e-07
1.6068e-06
1.45368
0.251222
0.00346082
0.000361328
0
1.56981e-08
2.85978e-07
5.39745e-06
9.16644e-06
8.94539e-06
8.46679e-06
8.32465e-06
8.16636e-06
8.02807e-06
7.87093e-06
7.70264e-06
7.5236e-06
7.33128e-06
7.13035e-06
6.92086e-06
6.70271e-06
6.47918e-06
6.25334e-06
6.02384e-06
5.79426e-06
5.5676e-06
5.34265e-06
5.12212e-06
4.90688e-06
4.6973e-06
4.494e-06
4.29701e-06
4.10716e-06
3.92391e-06
3.74753e-06
3.57849e-06
3.41625e-06
3.26118e-06
3.11311e-06
2.97184e-06
2.83747e-06
2.70955e-06
2.5876e-06
2.47151e-06
2.3607e-06
2.25469e-06
2.15298e-06
2.05517e-06
1.96075e-06
1.86922e-06
1.78014e-06
1.69289e-06
1.60703e-06
1.52217e-06
1.43811e-06
1.35517e-06
1.27393e-06
1.19515e-06
1.11936e-06
1.0465e-06
9.75848e-07
9.06395e-07
8.37616e-07
7.69605e-07
7.0359e-07
6.40106e-07
5.81809e-07
5.31377e-07
4.8949e-07
4.51224e-07
4.12651e-07
3.76454e-07
3.25063e-07
2.98171e-07
1.76401e-07
3.00403e-07
1.92821e-07
7.41615e-07
8.22949e-07
1.6052e-06
0.489047
0.0348897
0.000111925
2.65329e-05
9.06193e-10
1.69531e-08
3.08788e-06
7.01887e-06
7.56633e-06
7.01461e-06
6.84329e-06
6.78289e-06
6.69878e-06
6.61519e-06
6.51652e-06
6.41158e-06
6.2959e-06
6.17091e-06
6.04023e-06
5.90185e-06
5.75721e-06
5.60662e-06
5.45228e-06
5.29272e-06
5.12994e-06
4.96547e-06
4.79799e-06
4.63021e-06
4.46244e-06
4.2954e-06
4.13023e-06
3.96734e-06
3.80807e-06
3.65246e-06
3.50109e-06
3.35471e-06
3.21297e-06
3.0765e-06
2.945e-06
2.81849e-06
2.69715e-06
2.58048e-06
2.46836e-06
2.3608e-06
2.25731e-06
2.15777e-06
2.06185e-06
1.96931e-06
1.87983e-06
1.79304e-06
1.70858e-06
1.62592e-06
1.54467e-06
1.46447e-06
1.38513e-06
1.30693e-06
1.2304e-06
1.15621e-06
1.08474e-06
1.01589e-06
9.48923e-07
8.82916e-07
8.17409e-07
7.52558e-07
6.89582e-07
6.28911e-07
5.73015e-07
5.24564e-07
4.84432e-07
4.47714e-07
4.10426e-07
3.75447e-07
3.25472e-07
2.99948e-07
1.84037e-07
3.08159e-07
1.87196e-07
7.44923e-07
0.0704799
0.000204044
2.51409e-05
1.19927e-06
1.03095e-07
1.77667e-06
5.12865e-06
5.9064e-06
5.55582e-06
5.32827e-06
5.32578e-06
5.31459e-06
5.2885e-06
5.2569e-06
5.21387e-06
5.16509e-06
5.1062e-06
5.0385e-06
4.96455e-06
4.88297e-06
4.79519e-06
4.70116e-06
4.6012e-06
4.49679e-06
4.38881e-06
4.27669e-06
4.16125e-06
4.04423e-06
3.92496e-06
3.80441e-06
3.68319e-06
3.56142e-06
3.44008e-06
3.31939e-06
3.19977e-06
3.08183e-06
2.96574e-06
2.85214e-06
2.74094e-06
2.63255e-06
2.52722e-06
2.42468e-06
2.32526e-06
2.22886e-06
2.13529e-06
2.04471e-06
1.95684e-06
1.87163e-06
1.7889e-06
1.70839e-06
1.62987e-06
1.5529e-06
1.47717e-06
1.40233e-06
1.32832e-06
1.25534e-06
1.1839e-06
1.11459e-06
1.0477e-06
9.83076e-07
9.20013e-07
8.57663e-07
7.95635e-07
7.34154e-07
6.74423e-07
6.16744e-07
5.63403e-07
5.17099e-07
4.78883e-07
4.43829e-07
4.07971e-07
3.74337e-07
3.25963e-07
3.02037e-07
1.92303e-07
3.16022e-07
0.000731134
0.000290427
2.56724e-09
5.00722e-08
9.43396e-07
3.84027e-06
4.62863e-06
4.38971e-06
4.18595e-06
4.17176e-06
4.20524e-06
4.21259e-06
4.21331e-06
4.20743e-06
4.19349e-06
4.17356e-06
4.14595e-06
4.11153e-06
4.07134e-06
4.02484e-06
3.97287e-06
3.91572e-06
3.8531e-06
3.78636e-06
3.71616e-06
3.64164e-06
3.56397e-06
3.48394e-06
3.40113e-06
3.31636e-06
3.22995e-06
3.14188e-06
3.05291e-06
2.96315e-06
2.87278e-06
2.78227e-06
2.69177e-06
2.60172e-06
2.51217e-06
2.42347e-06
2.33591e-06
2.24949e-06
2.16456e-06
2.08115e-06
1.99932e-06
1.91933e-06
1.84103e-06
1.76457e-06
1.68984e-06
1.61675e-06
1.54514e-06
1.4747e-06
1.40519e-06
1.33635e-06
1.26813e-06
1.2008e-06
1.13477e-06
1.07061e-06
1.00851e-06
9.4831e-07
8.89332e-07
8.30824e-07
7.72481e-07
7.14556e-07
6.58258e-07
6.03735e-07
5.53112e-07
5.09142e-07
4.72982e-07
4.3969e-07
4.05398e-07
3.73219e-07
3.26659e-07
3.04514e-07
0.000322649
0
4.91576e-09
8.8311e-08
3.09797e-06
3.74853e-06
3.54864e-06
3.37824e-06
3.36534e-06
3.4115e-06
3.44332e-06
3.4616e-06
3.47546e-06
3.48253e-06
3.48329e-06
3.4778e-06
3.4659e-06
3.44851e-06
3.42559e-06
3.39721e-06
3.36379e-06
3.32599e-06
3.28415e-06
3.23799e-06
3.18871e-06
3.13634e-06
3.08092e-06
3.02304e-06
2.96284e-06
2.90074e-06
2.83667e-06
2.77091e-06
2.7041e-06
2.6358e-06
2.56651e-06
2.49656e-06
2.42581e-06
2.35467e-06
2.28323e-06
2.2116e-06
2.14002e-06
2.06867e-06
1.99762e-06
1.92708e-06
1.85717e-06
1.78811e-06
1.71987e-06
1.65267e-06
1.58653e-06
1.5214e-06
1.45723e-06
1.39379e-06
1.33092e-06
1.26843e-06
1.20632e-06
1.14485e-06
1.08445e-06
1.02555e-06
9.6836e-07
9.12679e-07
8.57888e-07
8.03331e-07
7.48791e-07
6.94547e-07
6.41791e-07
5.90525e-07
5.42727e-07
5.01216e-07
4.67175e-07
4.35683e-07
4.0304e-07
0
0
1.27765e-07
2.16837e-06
3.17652e-06
2.85019e-06
2.74071e-06
2.73296e-06
2.7826e-06
2.82699e-06
2.8569e-06
2.88169e-06
2.90194e-06
2.91619e-06
2.9252e-06
2.92934e-06
2.92784e-06
2.92127e-06
2.91e-06
2.89402e-06
2.87367e-06
2.84927e-06
2.8213e-06
2.78962e-06
2.75501e-06
2.71768e-06
2.6775e-06
2.63511e-06
2.59064e-06
2.54437e-06
2.49609e-06
2.4463e-06
2.39538e-06
2.34277e-06
2.28914e-06
2.23453e-06
2.17887e-06
2.12249e-06
2.06537e-06
2.00764e-06
1.94948e-06
1.89092e-06
1.83215e-06
1.77325e-06
1.71433e-06
1.65562e-06
1.59712e-06
1.53905e-06
1.48146e-06
1.42437e-06
1.36776e-06
1.31148e-06
1.25543e-06
1.19944e-06
1.1436e-06
1.08812e-06
1.0334e-06
9.79848e-07
9.27611e-07
8.76501e-07
8.25962e-07
7.7544e-07
7.24789e-07
6.74323e-07
6.25196e-07
5.7726e-07
0
6.99708e-08
1.44688e-06
2.58433e-06
2.33385e-06
2.20678e-06
2.23217e-06
2.27701e-06
2.32498e-06
2.36008e-06
2.38951e-06
2.41558e-06
2.43704e-06
2.45408e-06
2.46645e-06
2.47481e-06
2.47871e-06
2.47807e-06
2.47371e-06
2.4655e-06
2.45375e-06
2.43858e-06
2.42035e-06
2.39922e-06
2.3756e-06
2.34958e-06
2.32115e-06
2.29087e-06
2.25871e-06
2.22486e-06
2.1893e-06
2.15228e-06
2.114e-06
2.07424e-06
2.03336e-06
1.99135e-06
1.9482e-06
1.90414e-06
1.85908e-06
1.81316e-06
1.76652e-06
1.71912e-06
1.67114e-06
1.62261e-06
1.57365e-06
1.52446e-06
1.47504e-06
1.42561e-06
1.37622e-06
1.32693e-06
1.27775e-06
1.22855e-06
1.17928e-06
1.12981e-06
1.08023e-06
1.03075e-06
9.81734e-07
9.33528e-07
8.86254e-07
8.39741e-07
7.93502e-07
6.37518e-08
1.05037e-06
2.14273e-06
1.91575e-06
1.79982e-06
1.83264e-06
1.88319e-06
1.92631e-06
1.96302e-06
1.99337e-06
2.02107e-06
2.0455e-06
2.06604e-06
2.08311e-06
2.09603e-06
2.10564e-06
2.11165e-06
2.11384e-06
2.11306e-06
2.10905e-06
2.10219e-06
2.09249e-06
2.08044e-06
2.06602e-06
2.04956e-06
2.03121e-06
2.01096e-06
1.98922e-06
1.96595e-06
1.94129e-06
1.91522e-06
1.88795e-06
1.85953e-06
1.82982e-06
1.79909e-06
1.76726e-06
1.73433e-06
1.70047e-06
1.66551e-06
1.6296e-06
1.59282e-06
1.5551e-06
1.51653e-06
1.47721e-06
1.43718e-06
1.39658e-06
1.35548e-06
1.31403e-06
1.27232e-06
1.2304e-06
1.18831e-06
1.14594e-06
1.10325e-06
1.06017e-06
1.08245e-06
1.55861e-06
1.62394e-06
1.47592e-06
1.52379e-06
1.57166e-06
1.61145e-06
1.64487e-06
1.67464e-06
1.7013e-06
1.7262e-06
1.74777e-06
1.76613e-06
1.78173e-06
1.79402e-06
1.80353e-06
1.80998e-06
1.81351e-06
1.81451e-06
1.81294e-06
1.80904e-06
1.80297e-06
1.7948e-06
1.78487e-06
1.77334e-06
1.76014e-06
1.74559e-06
1.7298e-06
1.7128e-06
1.69467e-06
1.67543e-06
1.6553e-06
1.63411e-06
1.61193e-06
1.58892e-06
1.56488e-06
1.53996e-06
1.5141e-06
1.48725e-06
1.45952e-06
1.43083e-06
1.40118e-06
)
;

boundaryField
{
    inlet
    {
        type            calculated;
        value           nonuniform List<scalar> 
13
(
6.56494e-06
6.65281e-06
6.73e-06
6.79931e-06
6.86615e-06
6.93446e-06
7.02314e-06
7.05013e-06
6.98789e-06
6.95151e-06
6.89966e-06
6.85422e-06
6.81748e-06
)
;
    }
    outlet
    {
        type            calculated;
        value           nonuniform List<scalar> 0();
    }
    walls
    {
        type            calculated;
        value           nonuniform List<scalar> 4(1.01147 0.960054 0.889622 0.707856);
    }
    frontAndBack
    {
        type            empty;
    }
    procBoundary2to1
    {
        type            processor;
        value           nonuniform List<scalar> 
84
(
61.0188
1.61011
0.250404
0.00263379
0.000180434
1.66963e-05
2.74335e-05
2.57862e-05
2.81677e-05
2.45704e-05
2.45539e-05
2.31781e-05
2.23687e-05
2.12884e-05
2.02753e-05
1.92026e-05
1.81221e-05
1.70197e-05
1.5906e-05
1.47863e-05
1.36666e-05
1.25536e-05
1.14557e-05
1.03816e-05
9.33981e-06
8.33963e-06
7.39105e-06
6.50462e-06
5.69105e-06
4.96239e-06
4.33073e-06
3.80747e-06
3.40177e-06
3.11613e-06
2.94298e-06
2.86313e-06
2.85034e-06
2.87745e-06
2.87745e-06
3.66361e-06
3.58581e-06
3.51578e-06
3.44543e-06
3.3694e-06
3.28466e-06
3.18996e-06
3.08532e-06
2.97169e-06
2.85048e-06
2.7233e-06
2.59181e-06
2.45745e-06
2.32141e-06
2.32141e-06
2.24863e-06
2.10118e-06
1.9564e-06
1.8152e-06
1.67894e-06
1.54916e-06
1.427e-06
1.31259e-06
1.2049e-06
1.2049e-06
1.11354e-06
1.01264e-06
9.15441e-07
8.22932e-07
7.36369e-07
6.58078e-07
5.93287e-07
5.41365e-07
4.9474e-07
4.49737e-07
4.49737e-07
4.10199e-07
3.66045e-07
3.10215e-07
2.36884e-07
1.85457e-07
2.02031e-07
5.17541e-07
1.01028e-06
1.93666e-06
)
;
    }
    procBoundary2to3
    {
        type            processor;
        value           nonuniform List<scalar> 
88
(
8.17022e-07
1.6082e-06
1.82046e-07
8.17022e-07
7.4807e-07
2.01321e-07
1.82046e-07
3.23698e-07
3.72366e-07
3.27808e-07
2.01321e-07
3.0755e-07
5.32374e-07
4.93408e-07
4.61529e-07
4.31857e-07
3.72366e-07
4.00931e-07
7.47083e-07
7.00405e-07
6.53801e-07
6.0838e-07
5.32374e-07
5.63839e-07
1.01674e-06
9.73155e-07
9.29752e-07
8.86822e-07
8.44464e-07
8.02532e-07
7.47083e-07
7.60609e-07
1.37062e-06
1.33919e-06
1.30691e-06
1.27387e-06
1.2402e-06
1.20596e-06
1.17125e-06
1.13614e-06
1.10066e-06
1.06474e-06
1.02831e-06
1.01674e-06
9.91305e-07
1.3877e-06
1.2413e-06
1.2703e-06
1.26986e-06
1.32777e-06
1.35877e-06
1.38918e-06
1.41564e-06
1.44067e-06
1.46369e-06
1.48458e-06
1.50279e-06
1.51844e-06
1.53206e-06
1.54289e-06
1.55133e-06
1.55744e-06
1.56133e-06
1.56314e-06
1.56291e-06
1.56077e-06
1.55697e-06
1.55161e-06
1.5448e-06
1.53664e-06
1.5273e-06
1.51693e-06
1.50547e-06
1.49314e-06
1.47989e-06
1.46582e-06
1.45097e-06
1.4353e-06
1.4189e-06
1.40173e-06
1.38375e-06
1.36505e-06
1.34548e-06
1.32507e-06
1.30386e-06
1.28173e-06
1.37062e-06
1.25871e-06
)
;
    }
    procBoundary2to6
    {
        type            processor;
        value           nonuniform List<scalar> 
13
(
18.582
13.4745
8.78727
5.76352
3.49912
1.7449
0.57754
0.0766671
0.00065875
0.000162605
0
0
7.69662e-08
)
;
    }
}


// ************************************************************************* //
