/*--------------------------------*- C++ -*----------------------------------*\
| =========                 |                                                 |
| \\      /  F ield         | OpenFOAM: The Open Source CFD Toolbox           |
|  \\    /   O peration     | Version:  2306                                  |
|   \\  /    A nd           | Website:  www.openfoam.com                      |
|    \\/     M anipulation  |                                                 |
\*---------------------------------------------------------------------------*/
FoamFile
{
    version     2.0;
    format      ascii;
    arch        "LSB;label=32;scalar=64";
    class       volSymmTensorField;
    location    "900";
    object      turbulenceProperties:R;
}
// * * * * * * * * * * * * * * * * * * * * * * * * * * * * * * * * * * * * * //

dimensions      [0 2 -2 0 0 0 0];

internalField   nonuniform List<symmTensor> 
1340
(
(28.5629 14.0096 1.0245e-15 35.6023 1.64275e-16 32.1355)
(26.9098 13.2866 1.45041e-15 34.4276 2.66658e-16 30.7168)
(25.1171 12.4694 -2.90366e-16 32.9255 -3.67392e-17 29.0663)
(20.143 10.0655 -4.55422e-15 27.416 -7.84122e-16 23.7894)
(0.856921 0.415506 -4.90903e-16 1.09894 -8.61429e-17 0.940202)
(0.934337 0.456126 -1.22502e-15 1.21466 -5.15045e-16 1.04032)
(1.13397 0.552252 -2.52489e-15 1.45542 -3.46052e-18 1.25443)
(1.57421 0.775677 -2.03891e-15 1.97926 1.35834e-15 1.79204)
(0.196706 0.092953 2.15556e-16 0.21885 -1.74274e-17 0.208533)
(0.26758 0.127577 -1.17268e-15 0.305661 2.1084e-16 0.286695)
(0.33348 0.154071 2.94675e-15 0.353588 5.32817e-16 0.342288)
(0.548251 0.261161 4.63644e-15 0.615184 9.50562e-16 0.593689)
(0.0085546 0.0033304 -1.73529e-16 0.00673641 -2.64907e-17 0.00773108)
(0.0268389 0.011204 7.41855e-16 0.0232241 1.09735e-16 0.0257453)
(0.0706671 0.0279116 -4.86219e-16 0.0567397 -1.68276e-16 0.064437)
(0.229903 0.104483 -3.29596e-16 0.230783 -1.4101e-15 0.23751)
(0.000433549 -8.6518e-05 -1.69757e-18 0.000203731 6.74507e-19 0.000344358)
(0.00125652 -0.000129961 -1.77756e-17 0.00050093 -1.47913e-17 0.000922634)
(0.00303472 0.000211595 5.57357e-17 0.00119172 3.97964e-18 0.00208077)
(0.0490018 0.0197074 -2.90523e-16 0.0399557 5.22663e-17 0.0465379)
(5.02064e-05 -1.01578e-05 1.12581e-18 4.00522e-05 1.00353e-19 3.83108e-05)
(0.000215369 -3.34036e-05 -1.16767e-17 0.000107237 -2.31236e-19 0.000137331)
(0.000705826 -2.37328e-05 -1.60667e-17 0.000285147 -5.22947e-18 0.000452545)
(0.00612205 0.0020443 6.91042e-18 0.00400421 4.73006e-17 0.00531171)
(4.8552e-06 -6.31568e-08 -6.34567e-21 4.61452e-06 -7.99723e-22 4.77328e-06)
(8.43278e-07 -1.08949e-09 3.33002e-22 8.34971e-07 8.7014e-23 8.40185e-07)
(4.53717e-08 -1.63055e-13 9.39018e-27 4.53511e-08 1.39513e-25 4.53623e-08)
(0.000185968 4.24227e-05 2.38503e-18 0.000120344 2.11892e-19 0.000163379)
(1.33735e-05 -1.08517e-06 1.0798e-19 1.16505e-05 1.91556e-20 1.20926e-05)
(9.83463e-06 -3.44017e-07 -3.05568e-20 8.41375e-06 -1.30395e-20 8.9482e-06)
(1.06449e-06 1.56602e-10 5.13577e-23 1.04951e-06 1.22208e-23 1.05576e-06)
(1.14617e-05 3.85402e-07 2.63306e-22 1.09386e-05 -7.6123e-21 1.12536e-05)
(1.80031e-05 -1.17533e-06 -5.04323e-21 1.45152e-05 -5.65531e-21 1.64836e-05)
(1.96652e-05 -6.16796e-07 3.50061e-20 1.51817e-05 3.81641e-20 1.76978e-05)
(2.0745e-05 1.54293e-07 2.03455e-20 1.65737e-05 -2.08478e-20 1.86821e-05)
(7.0583e-07 1.57191e-09 -8.99519e-24 7.03646e-07 9.61826e-24 7.0502e-07)
(1.51212e-05 -1.17429e-06 3.97611e-20 1.24721e-05 5.25942e-21 1.36627e-05)
(1.51686e-05 -5.33664e-07 2.15155e-19 1.19475e-05 8.12545e-22 1.35085e-05)
(2.62875e-05 3.20345e-07 -2.49875e-19 1.93878e-05 2.2333e-20 2.26176e-05)
(9.69375e-06 3.16693e-07 7.95754e-21 9.27544e-06 3.73489e-21 9.53238e-06)
(1.53351e-05 -1.09483e-06 4.15978e-21 1.24897e-05 -8.30614e-21 1.39407e-05)
(1.55112e-05 -4.64452e-07 -2.46762e-19 1.21531e-05 -3.88205e-20 1.39075e-05)
(2.2385e-05 3.30864e-07 3.15776e-19 1.69836e-05 4.85577e-20 1.96087e-05)
(2.58928e-05 2.22936e-06 8.50376e-20 2.29816e-05 -3.22574e-20 2.4767e-05)
(1.4213e-05 -1.0481e-06 -9.45989e-20 1.16405e-05 -4.43544e-21 1.28892e-05)
(1.46593e-05 -4.41278e-07 1.6004e-19 1.14383e-05 2.35523e-20 1.30723e-05)
(1.89546e-05 3.24017e-07 -1.44433e-19 1.46642e-05 -6.43547e-20 1.67271e-05)
(2.85263e-05 2.89398e-06 -1.80635e-19 2.48282e-05 -1.01167e-19 2.70779e-05)
(1.36738e-05 -9.90629e-07 1.09027e-19 1.11753e-05 1.33934e-20 1.24177e-05)
(1.41526e-05 -3.96875e-07 -2.24809e-19 1.10151e-05 -2.98815e-20 1.26279e-05)
(1.74141e-05 3.49046e-07 -1.49854e-20 1.35276e-05 2.39164e-20 1.54112e-05)
(2.62084e-05 2.69477e-06 -2.91402e-19 2.28296e-05 3.20332e-20 2.48731e-05)
(1.29098e-05 -9.42974e-07 -8.00655e-20 1.05627e-05 -1.48907e-20 1.17198e-05)
(1.33014e-05 -3.5733e-07 1.46894e-19 1.0347e-05 4.53619e-20 1.18572e-05)
(1.61169e-05 3.74107e-07 2.30084e-20 1.25299e-05 1.97631e-20 1.42686e-05)
(2.35452e-05 2.42042e-06 1.691e-19 2.05795e-05 5.78398e-20 2.23599e-05)
(1.22238e-05 -8.92733e-07 1.6696e-20 1.00004e-05 7.40599e-21 1.11021e-05)
(1.25313e-05 -3.18944e-07 6.37009e-20 9.7419e-06 -1.40086e-20 1.11708e-05)
(1.49017e-05 3.92219e-07 1.20866e-19 1.15976e-05 -7.80689e-21 1.32048e-05)
(2.1216e-05 2.19185e-06 -8.27315e-20 1.85939e-05 -5.30486e-20 2.0157e-05)
(1.14864e-05 -8.43548e-07 1.12319e-20 9.40362e-06 7.69456e-24 1.04351e-05)
(1.17173e-05 -2.8501e-07 -9.30364e-20 9.10429e-06 -1.2788e-20 1.04412e-05)
(1.36917e-05 4.0244e-07 -1.59427e-19 1.06734e-05 -4.1304e-20 1.21447e-05)
(1.91077e-05 1.9902e-06 -9.43194e-20 1.67901e-05 3.52819e-20 1.81617e-05)
(1.07514e-05 -7.94141e-07 -4.40106e-21 8.80818e-06 1.46807e-21 9.7723e-06)
(1.09109e-05 -2.5411e-07 5.01705e-20 8.4736e-06 1.88862e-21 9.72043e-06)
(1.25338e-05 4.06243e-07 -6.5432e-20 9.78927e-06 2.16944e-20 1.11308e-05)
(1.71549e-05 1.80296e-06 2.25679e-19 1.51166e-05 1.67716e-20 1.63142e-05)
(1.00033e-05 -7.45221e-07 4.12635e-20 8.20421e-06 -2.53145e-21 9.0976e-06)
(1.00961e-05 -2.26179e-07 -1.46912e-19 7.83759e-06 -1.8535e-20 8.99217e-06)
(1.14256e-05 4.04658e-07 9.7329e-20 8.94232e-06 2.64244e-20 1.01594e-05)
(1.53439e-05 1.62837e-06 -1.73248e-19 1.3564e-05 -1.66123e-20 1.4602e-05)
(9.25265e-06 -6.96658e-07 -1.1449e-19 7.599e-06 -1.15543e-20 8.42117e-06)
(9.28317e-06 -2.00884e-07 3.53742e-20 7.20411e-06 2.46066e-20 8.2664e-06)
(1.0367e-05 3.9803e-07 7.26395e-20 8.13204e-06 -9.38392e-21 9.23009e-06)
(1.36701e-05 1.46597e-06 2.80912e-19 1.21278e-05 3.5004e-20 1.30202e-05)
(8.50139e-06 -6.48754e-07 5.80071e-20 6.99456e-06 1.22866e-20 7.74455e-06)
(8.4743e-06 -1.78128e-07 1.14158e-19 6.57468e-06 3.75218e-21 7.54464e-06)
(9.36006e-06 3.87113e-07 -7.04661e-20 7.36009e-06 -1.92442e-20 8.3453e-06)
(1.21364e-05 1.31609e-06 -1.68621e-19 1.08108e-05 -4.90852e-20 1.15721e-05)
(7.75438e-06 -6.01536e-07 -1.5637e-20 6.39449e-06 -4.87359e-21 7.07211e-06)
(7.67444e-06 -1.57585e-07 -8.70986e-20 5.95293e-06 -1.72177e-20 6.83134e-06)
(8.40184e-06 3.72661e-07 -4.144e-20 6.62424e-06 6.88189e-21 7.50205e-06)
(1.07331e-05 1.17805e-06 3.20541e-20 9.60479e-06 2.28755e-20 1.0248e-05)
(7.01568e-06 -5.5507e-07 4.62109e-21 5.80189e-06 3.52047e-21 6.40741e-06)
(6.88892e-06 -1.3901e-07 1.33402e-20 5.34286e-06 8.11836e-21 6.13126e-06)
(7.49376e-06 3.55142e-07 4.90716e-20 5.92552e-06 1.45288e-20 6.70183e-06)
(9.45574e-06 1.05145e-06 1.90656e-21 8.5062e-06 -8.09549e-21 9.04358e-06)
(6.29004e-06 -5.09511e-07 3.27497e-20 5.22056e-06 1.68653e-21 5.75473e-06)
(6.1213e-06 -1.22125e-07 3.138e-21 4.7471e-06 -2.38221e-21 5.44744e-06)
(6.63578e-06 3.35531e-07 6.63929e-20 5.26431e-06 -7.26242e-21 5.94483e-06)
(8.29948e-06 9.35928e-07 -4.75434e-20 7.5112e-06 -2.43724e-21 7.95441e-06)
(5.58247e-06 -4.6498e-07 -2.60823e-20 4.65442e-06 -3.53709e-21 5.11853e-06)
(5.37688e-06 -1.06777e-07 -2.35637e-20 4.16966e-06 7.99152e-22 4.7846e-06)
(5.82695e-06 3.1415e-07 -1.30719e-19 4.63991e-06 -1.58807e-20 5.23015e-06)
(7.25502e-06 8.30634e-07 2.67019e-20 6.61196e-06 9.42251e-21 6.97135e-06)
(4.89741e-06 -4.21524e-07 1.86719e-20 4.10695e-06 6.28814e-22 4.50277e-06)
(4.65914e-06 -9.26413e-08 5.22105e-20 3.61311e-06 7.35531e-21 4.14575e-06)
(5.0694e-06 2.91877e-07 4.89285e-20 4.05448e-06 2.19199e-20 4.56018e-06)
(6.31805e-06 7.35181e-07 2.80113e-20 5.80497e-06 3.77576e-21 6.09045e-06)
(4.23992e-06 -3.79224e-07 -4.84208e-20 3.58214e-06 -3.77749e-21 3.91201e-06)
(3.97209e-06 -7.95396e-08 -2.33824e-21 3.0805e-06 -1.67188e-21 3.53442e-06)
(4.36339e-06 2.69229e-07 8.79046e-20 3.50862e-06 9.93299e-22 3.93532e-06)
(5.48053e-06 6.4886e-07 4.51527e-20 5.0838e-06 -5.14064e-21 5.30396e-06)
(3.61505e-06 -3.38181e-07 4.15917e-20 3.08412e-06 7.05852e-21 3.35086e-06)
(3.31932e-06 -6.72298e-08 3.36977e-20 2.5745e-06 3.07715e-21 2.95375e-06)
(3.71064e-06 2.46777e-07 -6.65681e-20 3.00419e-06 -9.88632e-21 3.35748e-06)
(4.73725e-06 5.71148e-07 -1.06836e-19 4.44418e-06 -9.56758e-21 4.60699e-06)
(3.02812e-06 -2.98478e-07 2.25125e-21 2.61735e-06 -2.16566e-21 2.82421e-06)
(2.70357e-06 -5.55787e-08 -1.08734e-20 2.09718e-06 -5.02323e-21 2.40609e-06)
(3.1127e-06 2.24984e-07 4.88889e-20 2.54309e-06 5.14145e-21 2.82841e-06)
(4.082e-06 5.01425e-07 6.97852e-20 3.88126e-06 9.15854e-21 3.99365e-06)
(2.48505e-06 -2.60188e-07 -2.93885e-21 2.18698e-06 -9.23671e-22 2.33759e-06)
(2.1275e-06 -4.4361e-08 -3.22327e-20 1.65052e-06 -4.00418e-21 1.89379e-06)
(2.5727e-06 2.04281e-07 -7.1916e-20 2.12865e-06 -8.59037e-21 2.35142e-06)
(3.51001e-06 4.3914e-07 -8.63036e-20 3.39126e-06 -1.39354e-20 3.45947e-06)
(1.99343e-06 -2.23394e-07 -9.38496e-21 1.79986e-06 -1.31077e-21 1.89827e-06)
(1.59328e-06 -3.34787e-08 -2.25406e-20 1.23614e-06 -8.80939e-22 1.41874e-06)
(2.09488e-06 1.85008e-07 3.49189e-20 1.76537e-06 8.28457e-21 1.93096e-06)
(3.01724e-06 3.83799e-07 -8.13784e-21 2.97119e-06 9.44501e-21 3.0007e-06)
(1.56349e-06 -1.88181e-07 -9.25647e-21 1.46572e-06 -1.02259e-21 1.51621e-06)
(1.1018e-06 -2.2845e-08 -5.87062e-21 8.5471e-07 2.10162e-21 9.81616e-07)
(1.68601e-06 1.67426e-07 3.16293e-21 1.46028e-06 -1.11008e-21 1.57397e-06)
(2.59988e-06 3.34871e-07 8.33625e-20 2.61809e-06 1.33162e-20 2.61377e-06)
(1.21091e-06 -1.54635e-07 -1.27767e-20 1.19979e-06 -1.08053e-21 1.20692e-06)
(6.54635e-07 -1.2368e-08 3.0581e-20 5.07438e-07 2.95942e-21 5.83864e-07)
(1.35569e-06 1.51709e-07 1.22602e-20 1.22335e-06 -5.71009e-22 1.29024e-06)
(2.25469e-06 2.91897e-07 8.33822e-20 2.32957e-06 6.70165e-23 2.29573e-06)
(9.58014e-07 -1.22861e-07 -3.79173e-21 1.02413e-06 1.1884e-21 9.92569e-07)
(2.53497e-07 -2.03739e-09 -9.85418e-21 1.95958e-07 -1.88123e-21 2.27117e-07)
(1.11616e-06 1.37944e-07 -2.9302e-20 1.06709e-06 -3.63997e-21 1.09223e-06)
(1.97798e-06 2.54421e-07 -7.27076e-20 2.10256e-06 -1.41255e-20 2.04306e-06)
(8.25249e-07 -9.29401e-08 2.32882e-20 9.59117e-07 2.36707e-21 8.9359e-07)
(9.59941e-08 8.16289e-09 1.36671e-20 1.17902e-07 -1.4895e-22 1.08974e-07)
(9.75588e-07 1.26188e-07 2.05156e-22 1.00005e-06 3.27373e-21 9.88284e-07)
(1.76493e-06 2.22007e-07 -5.24363e-20 1.93284e-06 -5.56453e-22 1.85114e-06)
(8.07383e-07 -6.49582e-08 -4.94544e-21 9.99531e-07 -1.14963e-21 9.04741e-07)
(3.36928e-07 1.81917e-08 -4.66856e-20 4.28211e-07 -4.22922e-21 3.84296e-07)
(9.26114e-07 1.16388e-07 3.57048e-20 1.01474e-06 1.64447e-21 9.70762e-07)
(1.60867e-06 1.94215e-07 2.51106e-20 1.81401e-06 2.95557e-21 1.71326e-06)
(8.66687e-07 -3.89914e-08 7.95866e-21 1.10783e-06 7.15342e-22 9.88417e-07)
(5.51245e-07 2.80139e-08 2.98079e-20 7.02094e-07 4.5339e-21 6.28144e-07)
(9.42191e-07 1.0845e-07 -4.39347e-20 1.08605e-06 -5.14723e-21 1.01434e-06)
(1.50042e-06 1.70632e-07 -4.71416e-20 1.73771e-06 -5.31351e-21 1.62077e-06)
(9.61154e-07 -1.51154e-08 -7.4884e-21 1.24233e-06 -5.90823e-22 1.10277e-06)
(7.35156e-07 3.75439e-08 -1.41955e-20 9.36114e-07 -2.57867e-21 8.36903e-07)
(9.93976e-07 1.02244e-07 2.19843e-20 1.18457e-06 3.07522e-21 1.0894e-06)
(1.42986e-06 1.50849e-07 1.41021e-20 1.69396e-06 5.88429e-21 1.56351e-06)
(1.06309e-06 6.62876e-09 1.30229e-20 1.37578e-06 1.7945e-21 1.22033e-06)
(8.89887e-07 4.6704e-08 3.52758e-21 1.13198e-06 3.48331e-22 1.01203e-06)
(1.05888e-06 9.75816e-08 -2.7947e-20 1.28822e-06 -2.03274e-21 1.17359e-06)
(1.3865e-06 1.34453e-07 6.52569e-20 1.6726e-06 5.65855e-21 1.53109e-06)
(1.46243e-06 1.25132e-08 -8.87013e-21 1.8921e-06 -8.82972e-23 1.67803e-06)
(1.15792e-06 2.6191e-08 3.85871e-21 1.49417e-06 -1.39435e-21 1.32681e-06)
(1.01702e-06 5.5381e-08 -1.6559e-20 1.29183e-06 2.36276e-22 1.15536e-06)
(1.12327e-06 9.42693e-08 4.77376e-20 1.38388e-06 6.10456e-21 1.25356e-06)
(1.36089e-06 1.21055e-07 -9.22119e-21 1.66445e-06 -3.19699e-21 1.51419e-06)
(1.48727e-06 3.67517e-08 2.39965e-20 1.9179e-06 2.64151e-21 1.70323e-06)
(1.23873e-06 4.35709e-08 -3.89185e-20 1.5912e-06 -4.05143e-21 1.41561e-06)
(1.11845e-06 6.34946e-08 5.95002e-20 1.41813e-06 5.66912e-21 1.26909e-06)
(1.17984e-06 9.20881e-08 3.83891e-21 1.46477e-06 -3.14794e-21 1.32224e-06)
(1.3453e-06 1.10267e-07 3.00661e-21 1.66204e-06 6.49278e-22 1.5052e-06)
(1.50835e-06 5.75448e-08 -6.73722e-21 1.9348e-06 -1.76003e-21 1.72211e-06)
(1.30263e-06 5.87706e-08 7.63355e-21 1.6647e-06 2.80346e-21 1.4842e-06)
(1.19625e-06 7.09321e-08 -3.30489e-20 1.51367e-06 -5.68035e-21 1.35565e-06)
(1.2251e-06 9.08064e-08 -5.46767e-20 1.52798e-06 -5.18925e-21 1.37644e-06)
(1.334e-06 1.01712e-07 -1.75607e-21 1.65994e-06 -1.37084e-21 1.49851e-06)
(1.52167e-06 7.50448e-08 -9.51211e-21 1.9395e-06 -3.76257e-22 1.73102e-06)
(1.34896e-06 7.1835e-08 2.30085e-20 1.71476e-06 2.79962e-21 1.5323e-06)
(1.25251e-06 7.76215e-08 -6.38598e-21 1.58123e-06 9.4353e-22 1.41746e-06)
(1.25766e-06 9.02206e-08 2.01383e-20 1.5727e-06 4.08833e-21 1.41506e-06)
(1.32296e-06 9.50536e-08 -3.46784e-20 1.65436e-06 -2.56629e-21 1.49021e-06)
(1.52511e-06 8.94394e-08 1.53984e-20 1.93065e-06 2.01093e-21 1.72823e-06)
(1.37825e-06 8.28249e-08 1.8965e-20 1.74267e-06 1.2119e-21 1.56081e-06)
(1.28946e-06 8.34926e-08 1.82062e-20 1.62377e-06 1.56161e-21 1.45712e-06)
(1.27751e-06 9.01119e-08 5.68978e-21 1.59951e-06 6.86112e-22 1.43837e-06)
(1.30964e-06 8.99484e-08 3.36994e-20 1.64307e-06 4.97475e-21 1.47791e-06)
(1.51794e-06 1.00946e-07 2.41728e-21 1.90822e-06 -2.04083e-22 1.71336e-06)
(1.39167e-06 9.18242e-08 -5.29714e-21 1.75038e-06 -1.68199e-21 1.5713e-06)
(1.30924e-06 8.84825e-08 -2.12448e-20 1.64417e-06 -2.43014e-21 1.47713e-06)
(1.28519e-06 9.02934e-08 2.46124e-20 1.60956e-06 1.92639e-21 1.44723e-06)
(1.29252e-06 8.61012e-08 1.68812e-20 1.62487e-06 7.12964e-22 1.46025e-06)
(1.50039e-06 1.09809e-07 -1.04277e-21 1.87311e-06 -3.85058e-23 1.68697e-06)
(1.39084e-06 9.89558e-08 -2.32096e-20 1.74021e-06 -2.28078e-21 1.56573e-06)
(1.31401e-06 9.25802e-08 1.47728e-20 1.64532e-06 1.95319e-21 1.48003e-06)
(1.28169e-06 9.06026e-08 -1.80011e-20 1.60442e-06 -3.1226e-21 1.4429e-06)
(1.27084e-06 8.3241e-08 -6.37639e-21 1.59927e-06 -1.97613e-21 1.4366e-06)
(1.47319e-06 1.16283e-07 4.93886e-21 1.82668e-06 5.08929e-22 1.65011e-06)
(1.37749e-06 1.04343e-07 4.70202e-21 1.71463e-06 1.61364e-21 1.54621e-06)
(1.30591e-06 9.57657e-08 -8.85392e-21 1.63006e-06 -1.35839e-21 1.4683e-06)
(1.26832e-06 9.08977e-08 -2.02205e-20 1.58599e-06 -1.11705e-21 1.42699e-06)
(1.24447e-06 8.11217e-08 -3.71688e-20 1.56651e-06 -3.30031e-21 1.40703e-06)
(1.43746e-06 1.20626e-07 -4.72085e-21 1.77061e-06 -5.05111e-22 1.60416e-06)
(1.35342e-06 1.08123e-07 2.23914e-20 1.67611e-06 2.00766e-21 1.51487e-06)
(1.28686e-06 9.80527e-08 -1.44973e-21 1.60097e-06 -1.51784e-24 1.44418e-06)
(1.2463e-06 9.10608e-08 2.28728e-20 1.55604e-06 3.13941e-21 1.40101e-06)
(1.21357e-06 7.95335e-08 2.34124e-20 1.52707e-06 2.60585e-21 1.37184e-06)
(1.39449e-06 1.23101e-07 7.33327e-21 1.70668e-06 1.19609e-21 1.55068e-06)
(1.32045e-06 1.10462e-07 -1.74821e-20 1.62704e-06 -2.91902e-21 1.47382e-06)
(1.25876e-06 9.94781e-08 -2.67974e-21 1.56057e-06 -1.08702e-22 1.40989e-06)
(1.21697e-06 9.1011e-08 8.49236e-21 1.51644e-06 9.38353e-22 1.36654e-06)
(1.1785e-06 7.82957e-08 -3.61621e-20 1.48165e-06 -4.34971e-21 1.33157e-06)
(1.34556e-06 1.23945e-07 1.41858e-20 1.63661e-06 1.35597e-21 1.49115e-06)
(1.28019e-06 1.11496e-07 -2.29111e-20 1.56958e-06 -2.20905e-21 1.42492e-06)
(1.22328e-06 1.00074e-07 6.33887e-21 1.51109e-06 4.83355e-22 1.36737e-06)
(1.1816e-06 9.06641e-08 2.42845e-20 1.46897e-06 2.68979e-21 1.32511e-06)
(1.13988e-06 7.7247e-08 3.86787e-21 1.4312e-06 9.97346e-22 1.28699e-06)
(1.29191e-06 1.23394e-07 -8.08802e-21 1.56196e-06 -1.05446e-21 1.42699e-06)
(1.23412e-06 1.11375e-07 1.03e-21 1.50565e-06 7.68007e-22 1.36991e-06)
(1.18185e-06 9.98829e-08 -1.34743e-20 1.45446e-06 -1.67624e-21 1.31832e-06)
(1.14126e-06 8.99719e-08 8.8928e-21 1.41514e-06 7.04371e-24 1.27803e-06)
(1.09816e-06 7.62599e-08 -9.0366e-21 1.37647e-06 -1.30769e-21 1.23873e-06)
(1.2346e-06 1.21643e-07 8.12576e-21 1.48409e-06 1.02689e-21 1.35938e-06)
(1.18353e-06 1.1023e-07 1.23125e-20 1.43694e-06 1.0393e-21 1.31024e-06)
(1.13577e-06 9.89563e-08 -8.36892e-22 1.39239e-06 6.7492e-22 1.26422e-06)
(1.09697e-06 8.88878e-08 -2.64477e-20 1.35636e-06 -3.52188e-21 1.22649e-06)
(1.05392e-06 7.52093e-08 -1.45189e-20 1.31833e-06 -1.36966e-21 1.18749e-06)
(1.17451e-06 1.18864e-07 -3.15961e-21 1.40408e-06 -5.70901e-22 1.28932e-06)
(1.12939e-06 1.08171e-07 -2.2044e-20 1.36472e-06 -2.83162e-21 1.24705e-06)
(1.086e-06 9.73229e-08 2.97624e-20 1.32622e-06 3.63243e-21 1.20624e-06)
(1.04949e-06 8.73694e-08 -2.22805e-20 1.29375e-06 -1.56069e-21 1.17144e-06)
(1.00755e-06 7.39902e-08 5.63697e-21 1.25745e-06 7.72882e-22 1.13382e-06)
(1.15349e-06 1.2511e-07 1.90551e-21 1.35537e-06 6.21881e-23 1.25444e-06)
(1.11234e-06 1.15207e-07 -4.47372e-21 1.32281e-06 -8.06405e-22 1.2176e-06)
(1.07256e-06 1.05303e-07 -4.67742e-21 1.2901e-06 2.92471e-22 1.18132e-06)
(1.03336e-06 9.50289e-08 1.27498e-20 1.25707e-06 7.2415e-22 1.14533e-06)
(9.99459e-07 8.5391e-08 2.95378e-20 1.22822e-06 4.08349e-21 1.11367e-06)
(9.59409e-07 7.25132e-08 -4.1244e-21 1.1944e-06 -6.81551e-22 1.07817e-06)
(1.08442e-06 1.19732e-07 -4.95991e-21 1.26735e-06 -4.66317e-22 1.17589e-06)
(1.04871e-06 1.10807e-07 -2.44229e-20 1.24097e-06 -2.7623e-21 1.14485e-06)
(1.01372e-06 1.0172e-07 3.46841e-20 1.21395e-06 3.90965e-21 1.11381e-06)
(9.78514e-07 9.21146e-08 -1.73754e-20 1.18583e-06 -2.05539e-21 1.08227e-06)
(9.47421e-07 8.29336e-08 2.2651e-20 1.16061e-06 2.08782e-21 1.05385e-06)
(9.09809e-07 7.07119e-08 -8.67758e-21 1.12971e-06 -8.36469e-22 1.02096e-06)
(1.01523e-06 1.13805e-07 1.31291e-20 1.18055e-06 1.68737e-21 1.0979e-06)
(9.84266e-07 1.05808e-07 5.81781e-21 1.1593e-06 9.48452e-22 1.0718e-06)
(9.53574e-07 9.75351e-08 -1.74714e-20 1.13713e-06 -2.47216e-21 1.04533e-06)
(9.22154e-07 8.86552e-08 1.15396e-20 1.11341e-06 1.46051e-21 1.01787e-06)
(8.93954e-07 8.00282e-08 -2.70538e-21 1.09168e-06 -7.35416e-22 9.92661e-07)
(8.59097e-07 6.856e-08 6.66377e-21 1.06391e-06 8.78526e-22 9.62635e-07)
(9.46614e-07 1.07499e-07 3.72399e-21 1.09564e-06 1.55759e-22 1.02113e-06)
(9.198e-07 1.00368e-07 -4.01594e-21 1.07866e-06 -3.74624e-22 9.99239e-07)
(8.92972e-07 9.28912e-08 4.32587e-21 1.06062e-06 8.09072e-22 9.76773e-07)
(8.65084e-07 8.4753e-08 -1.05837e-20 1.0408e-06 -1.19485e-21 9.5302e-07)
(8.3977e-07 7.67343e-08 -7.24763e-21 1.02237e-06 -8.5362e-22 9.3092e-07)
(8.07825e-07 6.6077e-08 -4.5918e-22 9.97757e-07 -3.89051e-23 9.03845e-07)
(8.79481e-07 1.01005e-07 -1.43215e-20 1.01354e-06 -1.71273e-21 9.46511e-07)
(8.56299e-07 9.4672e-08 1.6275e-20 1.00009e-06 2.19061e-21 9.28199e-07)
(8.32919e-07 8.79543e-08 6.96483e-21 9.85551e-07 6.16253e-22 9.09209e-07)
(8.08294e-07 8.05526e-08 1.65814e-20 9.69136e-07 1.94294e-21 8.88786e-07)
(7.85773e-07 7.31716e-08 -4.06858e-21 9.53745e-07 -3.06047e-22 8.69622e-07)
(7.56739e-07 6.33464e-08 9.03064e-21 9.32165e-07 8.53563e-22 8.45431e-07)
(8.14828e-07 9.45096e-08 6.73992e-21 9.35208e-07 9.37972e-22 8.75019e-07)
(7.9481e-07 8.89072e-08 1.79187e-20 9.24671e-07 1.92446e-21 8.59746e-07)
(7.74482e-07 8.29033e-08 -1.53257e-20 9.13065e-07 -1.74613e-21 8.43749e-07)
(7.52817e-07 7.62141e-08 -1.36838e-20 8.99589e-07 -2.05266e-21 8.26267e-07)
(7.32914e-07 6.94723e-08 5.78691e-21 8.86916e-07 6.90138e-22 8.0979e-07)
(7.06686e-07 6.04716e-08 -1.89347e-20 8.68157e-07 -2.07138e-21 7.88324e-07)
(7.53409e-07 8.81628e-08 -2.60411e-21 8.61378e-07 -6.05095e-22 8.07394e-07)
(7.36122e-07 8.32209e-08 -8.03101e-21 8.53202e-07 -9.34854e-22 7.94667e-07)
(7.18472e-07 7.78779e-08 1.69503e-20 8.44026e-07 2.15556e-21 7.81225e-07)
(6.99462e-07 7.18647e-08 -2.42875e-20 8.33056e-07 -2.71067e-21 7.66317e-07)
(6.81964e-07 6.57481e-08 -5.3568e-21 8.22765e-07 -7.0641e-22 7.52249e-07)
(6.58403e-07 5.75508e-08 2.47609e-20 8.06602e-07 2.90586e-21 7.33332e-07)
(6.95399e-07 8.20265e-08 -2.73668e-20 7.92144e-07 -3.26696e-21 7.4377e-07)
(6.80462e-07 7.76773e-08 2.26707e-20 7.85872e-07 2.64935e-21 7.33171e-07)
(6.65145e-07 7.29381e-08 -4.56057e-21 7.78688e-07 -5.88982e-22 7.21894e-07)
(6.48511e-07 6.75584e-08 4.84824e-21 7.69847e-07 8.46041e-22 7.09232e-07)
(6.33197e-07 6.20431e-08 2.21655e-21 7.61615e-07 4.80001e-23 6.97301e-07)
(6.12166e-07 5.46202e-08 -1.88069e-20 7.47839e-07 -2.33325e-21 6.80764e-07)
(6.40335e-07 7.60748e-08 8.58568e-21 7.26921e-07 1.216e-21 6.83627e-07)
(6.27419e-07 7.22526e-08 -2.38517e-20 7.22174e-07 -3.06926e-21 6.74799e-07)
(6.14144e-07 6.80608e-08 1.54323e-20 7.16632e-07 1.95181e-21 6.65368e-07)
(5.9964e-07 6.32675e-08 5.67375e-21 7.09603e-07 5.51151e-22 6.54669e-07)
(5.86308e-07 5.83169e-08 -2.76125e-20 7.03152e-07 -3.36021e-21 6.44634e-07)
(5.677e-07 5.1635e-08 1.2472e-20 6.91598e-07 1.68501e-21 6.30343e-07)
(5.98215e-07 7.32484e-08 2.99573e-22 6.67583e-07 -1.40622e-22 6.329e-07)
(5.87358e-07 7.02222e-08 -5.64534e-21 6.647e-07 -6.83729e-22 6.26028e-07)
(5.76184e-07 6.68647e-08 4.17562e-21 6.61172e-07 7.54579e-22 6.18681e-07)
(5.64704e-07 6.31637e-08 5.01201e-21 6.56986e-07 4.72965e-22 6.10827e-07)
(5.52131e-07 5.89079e-08 -1.18706e-20 6.5152e-07 -1.34551e-21 6.01869e-07)
(5.40623e-07 5.44823e-08 -5.48049e-21 6.46641e-07 -5.63098e-22 5.93548e-07)
(5.24339e-07 4.85049e-08 6.84309e-21 6.37146e-07 6.53342e-22 5.81372e-07)
(5.45264e-07 6.70605e-08 -2.67275e-20 6.06759e-07 -3.32826e-21 5.76011e-07)
(5.35848e-07 6.44121e-08 9.75085e-21 6.04729e-07 1.37804e-21 5.70287e-07)
(5.26194e-07 6.14631e-08 8.41285e-21 6.02195e-07 9.10038e-22 5.64195e-07)
(5.16313e-07 5.81998e-08 -2.85191e-21 5.99152e-07 -4.88946e-22 5.57714e-07)
(5.05497e-07 5.44308e-08 1.67922e-20 5.95049e-07 2.23369e-21 5.5031e-07)
(4.95684e-07 5.04857e-08 -1.72683e-20 5.91581e-07 -1.76419e-21 5.43559e-07)
(4.81604e-07 4.51662e-08 -9.0172e-21 5.83968e-07 -1.2156e-21 5.33341e-07)
(4.93902e-07 6.09802e-08 -7.1259e-22 5.48197e-07 1.14983e-22 5.21053e-07)
(4.85724e-07 5.86592e-08 1.88116e-20 5.46835e-07 2.26585e-21 5.16283e-07)
(4.774e-07 5.60696e-08 -1.47191e-20 5.45111e-07 -1.88681e-21 5.11261e-07)
(4.68935e-07 5.31943e-08 -1.70575e-20 5.43024e-07 -2.07613e-21 5.0597e-07)
(4.59704e-07 4.98632e-08 1.37238e-20 5.4009e-07 1.69798e-21 4.99933e-07)
(4.51454e-07 4.63518e-08 3.60298e-20 5.37886e-07 4.45626e-21 4.94619e-07)
(4.3941e-07 4.16385e-08 -1.24314e-20 5.31933e-07 -1.62963e-21 4.86158e-07)
(4.44759e-07 5.51002e-08 6.61641e-21 4.92519e-07 7.68979e-22 4.68633e-07)
(4.37656e-07 5.30641e-08 -8.46203e-22 4.91688e-07 -1.27904e-22 4.64666e-07)
(4.30495e-07 5.07884e-08 -1.55562e-21 4.90624e-07 -7.95188e-23 4.60555e-07)
(4.23272e-07 4.82534e-08 -8.55327e-22 4.89331e-07 -4.58843e-23 4.56286e-07)
(4.15444e-07 4.53108e-08 2.40705e-20 4.87378e-07 2.77795e-21 4.5143e-07)
(4.08615e-07 4.21867e-08 -3.94041e-21 4.86291e-07 -7.02075e-22 4.47411e-07)
(3.98389e-07 3.8017e-08 -3.35268e-20 4.81746e-07 -3.95153e-21 4.40466e-07)
(3.9861e-07 4.95474e-08 -1.37133e-20 4.40401e-07 -1.71721e-21 4.19512e-07)
(3.92425e-07 4.77596e-08 1.6472e-20 4.39983e-07 2.0137e-21 4.16213e-07)
(3.86258e-07 4.5759e-08 4.19912e-21 4.39435e-07 6.38504e-22 4.12856e-07)
(3.80109e-07 4.35242e-08 -8.97806e-21 4.38782e-07 -1.2107e-21 4.09445e-07)
(3.73489e-07 4.09253e-08 -1.18125e-20 4.37621e-07 -1.44625e-21 4.05581e-07)
(3.67877e-07 3.81421e-08 4.26892e-21 4.37442e-07 4.61921e-22 4.02654e-07)
(3.59177e-07 3.44483e-08 3.2583e-21 4.34001e-07 7.39147e-22 3.96935e-07)
(3.56759e-07 4.44827e-08 5.95512e-21 3.93282e-07 7.19145e-22 3.75011e-07)
(3.51335e-07 4.29078e-08 -9.51497e-21 3.93153e-07 -1.26363e-21 3.72237e-07)
(3.45999e-07 4.11446e-08 2.4484e-20 3.92987e-07 2.93571e-21 3.69487e-07)
(3.40783e-07 3.91769e-08 -1.95132e-20 3.92849e-07 -2.35548e-21 3.66802e-07)
(3.35244e-07 3.68886e-08 2.73518e-20 3.9237e-07 3.36915e-21 3.63812e-07)
(3.30728e-07 3.44247e-08 -1.49187e-20 3.92959e-07 -1.88731e-21 3.61833e-07)
(3.23488e-07 3.11722e-08 3.03666e-20 3.90593e-07 3.70257e-21 3.57303e-07)
(3.2186e-07 4.02137e-08 -1.55473e-20 3.54286e-07 -2.09266e-21 3.38065e-07)
(3.16926e-07 3.87859e-08 -3.8944e-22 3.5425e-07 -1.04681e-23 3.35578e-07)
(3.12133e-07 3.71864e-08 -1.08196e-20 3.54256e-07 -1.39013e-21 3.33184e-07)
(3.07523e-07 3.5398e-08 -6.33065e-22 3.54386e-07 3.98501e-23 3.30941e-07)
(3.02704e-07 3.33187e-08 -4.72242e-21 3.54296e-07 -8.12858e-22 3.28496e-07)
(2.98938e-07 3.10634e-08 -7.80503e-21 3.55375e-07 -8.43595e-22 3.27151e-07)
(2.92938e-07 2.81487e-08 1.0866e-20 3.53919e-07 1.03685e-21 3.23618e-07)
(2.93795e-07 3.67815e-08 -2.25353e-20 3.22888e-07 -2.73113e-21 3.08349e-07)
(2.89147e-07 3.54603e-08 -3.45897e-21 3.22809e-07 -3.65665e-22 3.05984e-07)
(2.84677e-07 3.39812e-08 1.30668e-20 3.22822e-07 1.65861e-21 3.03754e-07)
(2.80406e-07 3.23231e-08 1.79235e-23 3.22991e-07 -5.01117e-23 3.01704e-07)
(2.75987e-07 3.03968e-08 -1.13392e-20 3.22998e-07 -1.48245e-21 2.99502e-07)
(2.72631e-07 2.82952e-08 1.12098e-21 3.24228e-07 4.83838e-22 2.98453e-07)
(2.67382e-07 2.56375e-08 -1.70419e-20 3.23194e-07 -2.3012e-21 2.95455e-07)
(2.68613e-07 3.3712e-08 3.22519e-21 2.94596e-07 5.6548e-22 2.81606e-07)
(2.64173e-07 3.24881e-08 9.87539e-21 2.94408e-07 1.23377e-21 2.79294e-07)
(2.59916e-07 3.11161e-08 -7.6826e-21 2.9433e-07 -1.02324e-21 2.77132e-07)
(2.55884e-07 2.95804e-08 -1.08355e-20 2.94436e-07 -1.42814e-21 2.7517e-07)
(2.51757e-07 2.77956e-08 -2.06077e-20 2.94441e-07 -2.35273e-21 2.73112e-07)
(2.48687e-07 2.58446e-08 4.37268e-20 2.95678e-07 5.24637e-21 2.72208e-07)
(2.4403e-07 2.34145e-08 -2.91792e-20 2.94944e-07 -3.30473e-21 2.69604e-07)
(2.44331e-07 3.07469e-08 9.22685e-21 2.6731e-07 1.16902e-21 2.55808e-07)
(2.40106e-07 2.96181e-08 -3.21586e-21 2.67041e-07 -4.76626e-22 2.53556e-07)
(2.36053e-07 2.83473e-08 2.95594e-21 2.66884e-07 3.84529e-22 2.51452e-07)
(2.32256e-07 2.69267e-08 -1.69838e-20 2.66945e-07 -2.11016e-21 2.49582e-07)
(2.28403e-07 2.52738e-08 2.57347e-20 2.66949e-07 3.25227e-21 2.47661e-07)
(2.25571e-07 2.34617e-08 -2.51478e-20 2.68151e-07 -3.21651e-21 2.46865e-07)
(2.21426e-07 2.12504e-08 3.4639e-20 2.67623e-07 4.33375e-21 2.44605e-07)
(2.24597e-07 2.87398e-08 1.25425e-20 2.40814e-07 1.59755e-21 2.32753e-07)
(2.20125e-07 2.77962e-08 6.43552e-21 2.40048e-07 8.05778e-22 2.30138e-07)
(2.15934e-07 2.67447e-08 -5.53567e-21 2.39494e-07 -7.29566e-22 2.27765e-07)
(2.11996e-07 2.557e-08 -4.99159e-21 2.39147e-07 -6.76865e-22 2.25616e-07)
(2.08386e-07 2.42588e-08 -1.10565e-20 2.39127e-07 -1.26885e-21 2.23792e-07)
(2.04868e-07 2.274e-08 -1.09933e-20 2.39225e-07 -1.41248e-21 2.22063e-07)
(2.02522e-07 2.10878e-08 2.84508e-20 2.40699e-07 3.63961e-21 2.21608e-07)
(1.99726e-07 1.91395e-08 -1.59854e-20 2.41453e-07 -2.08139e-21 2.20551e-07)
(2.00044e-07 2.56417e-08 -6.30959e-21 2.13841e-07 -7.75468e-22 2.06837e-07)
(1.95215e-07 2.47028e-08 1.06381e-20 2.1239e-07 1.24232e-21 2.03715e-07)
(1.90616e-07 2.36575e-08 -1.10372e-20 2.11088e-07 -1.2795e-21 2.00797e-07)
(1.86281e-07 2.25019e-08 -9.77706e-21 2.09976e-07 -1.27185e-21 1.98109e-07)
(1.8226e-07 2.12178e-08 9.08381e-21 2.09168e-07 1.09759e-21 1.95743e-07)
(1.78379e-07 1.9747e-08 1.81369e-20 2.08503e-07 2.43885e-21 1.93524e-07)
(1.75127e-07 1.8053e-08 -3.30376e-21 2.08679e-07 -6.33643e-22 1.92114e-07)
(1.71238e-07 1.61613e-08 8.34351e-21 2.07617e-07 1.14794e-21 1.89776e-07)
(1.6926e-07 2.17986e-08 2.03977e-20 1.79452e-07 2.6039e-21 1.74441e-07)
(1.64364e-07 2.09141e-08 -2.39799e-20 1.77771e-07 -3.12505e-21 1.71062e-07)
(1.59928e-07 1.99339e-08 2.78124e-20 1.76543e-07 3.57674e-21 1.68133e-07)
(1.55983e-07 1.88445e-08 -2.19483e-20 1.75802e-07 -2.73912e-21 1.65685e-07)
(1.52663e-07 1.76338e-08 -2.51946e-20 1.75722e-07 -3.22452e-21 1.63874e-07)
(1.50027e-07 1.62749e-08 3.62261e-20 1.76349e-07 4.58237e-21 1.62699e-07)
(1.49784e-07 1.49384e-08 -2.25094e-20 1.79607e-07 -2.8595e-21 1.63944e-07)
(1.51431e-07 1.35285e-08 1.77436e-20 1.84889e-07 2.17991e-21 1.66964e-07)
(1.26094e-07 1.63227e-08 3.05018e-21 1.31992e-07 2.92967e-22 1.29504e-07)
(1.18449e-07 1.5214e-08 -2.13242e-20 1.2663e-07 -2.64913e-21 1.23228e-07)
(1.114e-07 1.40599e-08 1.38907e-20 1.2179e-07 1.62938e-21 1.17508e-07)
(1.05064e-07 1.28548e-08 -3.74304e-21 1.17635e-07 -3.24981e-22 1.12479e-07)
(9.94125e-08 1.1536e-08 -1.54362e-20 1.14252e-07 -1.8389e-21 1.08213e-07)
(9.4386e-08 9.99903e-09 4.0873e-20 1.1161e-07 4.95502e-21 1.04723e-07)
(8.96869e-08 7.73155e-09 -2.1243e-20 1.09786e-07 -2.4806e-21 1.02241e-07)
(8.44745e-08 5.54731e-09 4.2938e-21 1.05662e-07 3.68593e-22 9.8158e-08)
(1.01196e-07 1.26198e-08 -1.06609e-20 1.0738e-07 -1.329e-21 1.01536e-07)
(9.77284e-08 1.16961e-08 -1.08155e-20 1.07381e-07 -1.29785e-21 9.93905e-08)
(9.56e-08 1.06302e-08 -1.74975e-20 1.08696e-07 -2.27309e-21 9.86147e-08)
(9.49878e-08 9.42392e-09 3.0103e-20 1.11428e-07 3.76214e-21 9.93142e-08)
(9.65808e-08 8.17362e-09 5.04199e-21 1.16233e-07 6.83863e-22 1.02087e-07)
(1.00964e-07 7.03292e-09 -9.76623e-21 1.2339e-07 -1.32241e-21 1.07035e-07)
(1.13105e-07 6.9478e-09 2.53903e-20 1.38421e-07 3.1861e-21 1.19143e-07)
(1.30611e-07 6.81167e-09 -3.82801e-20 1.60519e-07 -4.74835e-21 1.37365e-07)
(1.22622e-07 4.55667e-09 1.41024e-20 1.01735e-07 1.77355e-21 1.21649e-07)
(1.2148e-07 3.92908e-09 4.75579e-21 1.01319e-07 6.47761e-22 1.2141e-07)
(1.20167e-07 3.39138e-09 -2.08747e-20 1.00842e-07 -2.57201e-21 1.20975e-07)
(1.18381e-07 2.84979e-09 -1.43031e-20 1.00215e-07 -1.89009e-21 1.20252e-07)
(1.16401e-07 2.00413e-09 5.48962e-21 1.00064e-07 7.70557e-22 1.19931e-07)
(1.17626e-07 3.76792e-10 6.55019e-21 1.04419e-07 7.28404e-22 1.24302e-07)
(1.34793e-07 -3.89119e-09 -1.52677e-20 1.26078e-07 -1.93496e-21 1.46897e-07)