/*--------------------------------*- C++ -*----------------------------------*\
| =========                 |                                                 |
| \\      /  F ield         | OpenFOAM: The Open Source CFD Toolbox           |
|  \\    /   O peration     | Version:  2306                                  |
|   \\  /    A nd           | Website:  www.openfoam.com                      |
|    \\/     M anipulation  |                                                 |
\*---------------------------------------------------------------------------*/
FoamFile
{
    version     2.0;
    format      ascii;
    arch        "LSB;label=32;scalar=64";
    class       volScalarField;
    location    "600";
    object      turbulenceProperties:nuEff;
}
// * * * * * * * * * * * * * * * * * * * * * * * * * * * * * * * * * * * * * //

dimensions      [0 2 -1 0 0 0 0];

internalField   nonuniform List<scalar> 
1340
(
0.0869227
0.0784596
0.0683288
0.0332661
0.153848
0.148539
0.139519
0.13993
0.206335
0.207585
0.201495
0.210288
0.215363
0.231957
0.239158
0.255252
0.175062
0.217188
0.248054
0.278277
0.0933019
0.160415
0.223999
0.278326
0.0217545
0.0782579
0.166222
0.252322
0.00543305
0.0161876
0.0904826
0.200064
1e-05
0.00443204
0.0305959
0.132879
1e-05
1.00273e-05
0.000467634
0.072429
1e-05
1e-05
0.000812562
0.0333169
1.00105e-05
1e-05
0.000292896
0.0131228
1.25032e-05
1e-05
8.3217e-05
0.00435123
1.99667e-05
1e-05
1.13622e-05
0.00112032
1.92988e-05
1.26814e-05
1.00004e-05
8.06243e-05
1.64295e-05
1.94536e-05
1e-05
1.06949e-05
1.5264e-05
2.20996e-05
1.00003e-05
1e-05
1.53073e-05
1.9458e-05
1.15993e-05
1.00005e-05
1.57418e-05
1.69225e-05
1.68298e-05
1.00877e-05
1.60761e-05
1.58737e-05
1.849e-05
1.16984e-05
1.61947e-05
1.57314e-05
1.75758e-05
1.46034e-05
1.61855e-05
1.58913e-05
1.66161e-05
1.61536e-05
1.61461e-05
1.6044e-05
1.61713e-05
1.64173e-05
1.61195e-05
1.61138e-05
1.60617e-05
1.62859e-05
1.61095e-05
1.61272e-05
1.6074e-05
1.61651e-05
1.61082e-05
1.61215e-05
1.61005e-05
1.61178e-05
1.61092e-05
1.61151e-05
1.61132e-05
1.61109e-05
1.61098e-05
1.61121e-05
1.61153e-05
1.61143e-05
1.61098e-05
1.61112e-05
1.61139e-05
1.61167e-05
1.61095e-05
1.61111e-05
1.61125e-05
1.61168e-05
1.61093e-05
1.61109e-05
1.61117e-05
1.6116e-05
1.61092e-05
1.61108e-05
1.61114e-05
1.61152e-05
1.61091e-05
1.61106e-05
1.61111e-05
1.61146e-05
1.61083e-05
1.6109e-05
1.61104e-05
1.6111e-05
1.61142e-05
1.61084e-05
1.61091e-05
1.61104e-05
1.61108e-05
1.61138e-05
1.61085e-05
1.61091e-05
1.61103e-05
1.61107e-05
1.61135e-05
1.61086e-05
1.61092e-05
1.61103e-05
1.61107e-05
1.61133e-05
1.61087e-05
1.61093e-05
1.61104e-05
1.61107e-05
1.61131e-05
1.61089e-05
1.61094e-05
1.61104e-05
1.61107e-05
1.6113e-05
1.61091e-05
1.61096e-05
1.61105e-05
1.61108e-05
1.6113e-05
1.61093e-05
1.61098e-05
1.61107e-05
1.61109e-05
1.61129e-05
1.61095e-05
1.611e-05
1.61108e-05
1.61111e-05
1.61129e-05
1.61097e-05
1.61101e-05
1.6111e-05
1.61112e-05
1.6113e-05
1.61099e-05
1.61103e-05
1.61111e-05
1.61114e-05
1.61131e-05
1.611e-05
1.61105e-05
1.61113e-05
1.61116e-05
1.61132e-05
1.61097e-05
1.61102e-05
1.61107e-05
1.61114e-05
1.61117e-05
1.61133e-05
1.61098e-05
1.61103e-05
1.61108e-05
1.61116e-05
1.61119e-05
1.61134e-05
1.61099e-05
1.61104e-05
1.61109e-05
1.61117e-05
1.6112e-05
1.61135e-05
1.61099e-05
1.61105e-05
1.6111e-05
1.61117e-05
1.61121e-05
1.61135e-05
1.61099e-05
1.61105e-05
1.6111e-05
1.61118e-05
1.61122e-05
1.61136e-05
1.61098e-05
1.61104e-05
1.6111e-05
1.61117e-05
1.61122e-05
1.61135e-05
1.61097e-05
1.61103e-05
1.61108e-05
1.61116e-05
1.61122e-05
1.61135e-05
1.61094e-05
1.611e-05
1.61107e-05
1.61114e-05
1.6112e-05
1.61133e-05
1.61091e-05
1.61097e-05
1.61104e-05
1.61112e-05
1.61118e-05
1.61131e-05
1.6108e-05
1.61086e-05
1.61093e-05
1.611e-05
1.61108e-05
1.61115e-05
1.61127e-05
1.61074e-05
1.61081e-05
1.61088e-05
1.61095e-05
1.61103e-05
1.61111e-05
1.61123e-05
1.61068e-05
1.61074e-05
1.61081e-05
1.61089e-05
1.61097e-05
1.61105e-05
1.61118e-05
1.61059e-05
1.61066e-05
1.61073e-05
1.61081e-05
1.6109e-05
1.61098e-05
1.61111e-05
1.6105e-05
1.61057e-05
1.61065e-05
1.61072e-05
1.61082e-05
1.6109e-05
1.61103e-05
1.61039e-05
1.61047e-05
1.61054e-05
1.61062e-05
1.61072e-05
1.61081e-05
1.61093e-05
1.61026e-05
1.61034e-05
1.61042e-05
1.6105e-05
1.6106e-05
1.6107e-05
1.61083e-05
1.61001e-05
1.61009e-05
1.61017e-05
1.61026e-05
1.61035e-05
1.61045e-05
1.61056e-05
1.61069e-05
1.60979e-05
1.60987e-05
1.60996e-05
1.61005e-05
1.61015e-05
1.61026e-05
1.61038e-05
1.61052e-05
1.60953e-05
1.60962e-05
1.6097e-05
1.6098e-05
1.6099e-05
1.61002e-05
1.61015e-05
1.6103e-05
1.60927e-05
1.60935e-05
1.60943e-05
1.60953e-05
1.60963e-05
1.60974e-05
1.60987e-05
1.61003e-05
1.609e-05
1.60908e-05
1.60916e-05
1.60924e-05
1.60934e-05
1.60945e-05
1.60957e-05
1.60972e-05
1.60874e-05
1.60881e-05
1.60889e-05
1.60897e-05
1.60906e-05
1.60917e-05
1.60928e-05
1.60942e-05
1.60849e-05
1.60857e-05
1.60864e-05
1.60873e-05
1.60882e-05
1.60893e-05
1.60904e-05
1.60917e-05
1.60817e-05
1.60823e-05
1.60831e-05
1.60839e-05
1.60847e-05
1.60857e-05
1.60867e-05
1.60879e-05
1.60892e-05
1.6079e-05
1.60796e-05
1.60803e-05
1.6081e-05
1.60818e-05
1.60827e-05
1.60837e-05
1.60848e-05
1.60862e-05
1.60763e-05
1.60768e-05
1.60774e-05
1.6078e-05
1.60787e-05
1.60794e-05
1.60803e-05
1.60814e-05
1.60826e-05
1.60735e-05
1.6074e-05
1.60745e-05
1.6075e-05
1.60756e-05
1.60762e-05
1.6077e-05
1.60779e-05
1.6079e-05
1.60712e-05
1.60714e-05
1.60717e-05
1.6072e-05
1.60724e-05
1.60728e-05
1.60734e-05
1.60741e-05
1.6075e-05
1.60714e-05
1.60713e-05
1.60712e-05
1.60711e-05
1.60711e-05
1.60711e-05
1.60713e-05
1.60715e-05
1.6072e-05
1.60742e-05
1.6074e-05
1.60739e-05
1.60737e-05
1.60735e-05
1.60732e-05
1.6073e-05
1.60728e-05
1.60727e-05
1.60775e-05
1.60774e-05
1.60772e-05
1.60769e-05
1.60766e-05
1.60763e-05
1.60759e-05
1.60755e-05
1.60749e-05
1.60817e-05
1.60818e-05
1.60818e-05
1.60819e-05
1.6082e-05
1.6082e-05
1.6082e-05
1.6082e-05
1.60819e-05
1.60849e-05
1.60849e-05
1.60849e-05
1.60847e-05
1.60846e-05
1.60843e-05
1.60841e-05
1.60838e-05
1.60837e-05
1.60836e-05
1.60905e-05
1.60914e-05
1.60924e-05
1.60935e-05
1.60945e-05
1.60956e-05
1.60968e-05
1.60979e-05
1.60994e-05
1.61007e-05
1.61e-05
1.61002e-05
1.61003e-05
1.61004e-05
1.61004e-05
1.61004e-05
1.61004e-05
1.61007e-05
1.61012e-05
1.61016e-05
0.17236
0.214961
0.255359
0.299992
0.326391
0.329399
0.307336
0.258841
0.186633
0.105697
0.0439062
0.0155233
0.00483308
0.00112811
4.4267e-05
1.01725e-05
1e-05
1e-05
1.00094e-05
1.11344e-05
1.41816e-05
1.60984e-05
1.64867e-05
1.63434e-05
1.61909e-05
1.61259e-05
1.61136e-05
1.6117e-05
1.61201e-05
1.61204e-05
1.61194e-05
1.61183e-05
1.61174e-05
1.61168e-05
1.61162e-05
1.61157e-05
1.61153e-05
1.61149e-05
1.61146e-05
1.61144e-05
1.61142e-05
1.61141e-05
1.6114e-05
1.61139e-05
1.61139e-05
1.61139e-05
1.61139e-05
1.61139e-05
1.61139e-05
1.61139e-05
1.61138e-05
1.61138e-05
1.61137e-05
1.61135e-05
1.61132e-05
1.61128e-05
1.61123e-05
1.61117e-05
1.61109e-05
1.611e-05
1.61089e-05
1.61076e-05
1.6106e-05
1.61038e-05
1.61011e-05
1.6098e-05
1.60949e-05
1.60924e-05
1.60899e-05
1.60868e-05
1.60832e-05
1.60795e-05
1.60755e-05
1.60721e-05
1.60726e-05
1.60748e-05
1.60818e-05
1.60835e-05
1.61016e-05
1.61018e-05
0.213614
0.258503
0.288532
0.316979
0.345754
0.357739
0.345388
0.305899
0.239456
0.153007
0.0689524
0.0208709
0.00566525
0.00141068
7.3564e-05
1.05278e-05
1e-05
1e-05
1.00022e-05
1.08399e-05
1.38961e-05
1.60281e-05
1.65124e-05
1.63756e-05
1.62071e-05
1.61309e-05
1.61147e-05
1.61176e-05
1.6121e-05
1.61214e-05
1.61203e-05
1.6119e-05
1.6118e-05
1.61173e-05
1.61167e-05
1.61162e-05
1.61158e-05
1.61154e-05
1.61151e-05
1.61149e-05
1.61147e-05
1.61145e-05
1.61144e-05
1.61143e-05
1.61143e-05
1.61143e-05
1.61143e-05
1.61143e-05
1.61143e-05
1.61142e-05
1.61142e-05
1.61142e-05
1.61141e-05
1.61139e-05
1.61137e-05
1.61133e-05
1.61128e-05
1.61122e-05
1.61114e-05
1.61105e-05
1.61094e-05
1.61082e-05
1.61065e-05
1.61043e-05
1.61016e-05
1.60985e-05
1.60954e-05
1.60928e-05
1.60903e-05
1.60873e-05
1.60836e-05
1.60799e-05
1.60757e-05
1.60723e-05
1.60725e-05
1.60747e-05
1.60817e-05
1.60834e-05
1.61021e-05
0.2178
0.269149
0.303791
0.326773
0.347907
0.366382
0.36854
0.346291
0.296152
0.21908
0.12485
0.0439168
0.007224
0.00081263
1.00009e-05
1e-05
1e-05
1e-05
1e-05
1.04246e-05
1.32924e-05
1.58771e-05
1.6554e-05
1.64248e-05
1.62314e-05
1.61382e-05
1.61151e-05
1.61168e-05
1.61209e-05
1.61219e-05
1.61209e-05
1.61196e-05
1.61186e-05
1.61178e-05
1.61173e-05
1.61168e-05
1.61163e-05
1.61159e-05
1.61156e-05
1.61154e-05
1.61152e-05
1.6115e-05
1.61149e-05
1.61148e-05
1.61148e-05
1.61148e-05
1.61148e-05
1.61148e-05
1.61147e-05
1.61147e-05
1.61147e-05
1.61147e-05
1.61146e-05
1.61145e-05
1.61142e-05
1.61138e-05
1.61134e-05
1.61127e-05
1.6112e-05
1.61111e-05
1.611e-05
1.61087e-05
1.61071e-05
1.61049e-05
1.61022e-05
1.60991e-05
1.60959e-05
1.60933e-05
1.60908e-05
1.60877e-05
1.6084e-05
1.60802e-05
1.6076e-05
1.60724e-05
1.60725e-05
1.60747e-05
1.60816e-05
1.60834e-05
0.20267
0.258534
0.300415
0.328242
0.346529
0.362713
0.37481
0.371364
0.344268
0.28939
0.207418
0.110588
0.0326183
0.000704003
0.000197869
1e-05
1e-05
1e-05
1.00004e-05
1.01664e-05
1.23417e-05
1.53728e-05
1.65381e-05
1.65162e-05
1.62803e-05
1.61502e-05
1.61152e-05
1.61155e-05
1.61204e-05
1.61223e-05
1.61217e-05
1.61204e-05
1.61193e-05
1.61185e-05
1.61179e-05
1.61174e-05
1.6117e-05
1.61166e-05
1.61163e-05
1.6116e-05
1.61158e-05
1.61156e-05
1.61155e-05
1.61154e-05
1.61154e-05
1.61153e-05
1.61153e-05
1.61153e-05
1.61153e-05
1.61153e-05
1.61153e-05
1.61153e-05
1.61152e-05
1.61151e-05
1.61148e-05
1.61144e-05
1.6114e-05
1.61133e-05
1.61126e-05
1.61117e-05
1.61106e-05
1.61093e-05
1.61077e-05
1.61055e-05
1.61028e-05
1.60996e-05
1.60965e-05
1.60938e-05
1.60913e-05
1.60881e-05
1.60844e-05
1.60805e-05
1.60764e-05
1.60725e-05
1.60724e-05
1.60747e-05
1.60814e-05
0.172724
0.23272
0.28167
0.317726
0.341534
0.356932
0.369877
0.378307
0.372112
0.343204
0.286813
0.203247
0.106138
0.0278245
0.00148317
0.000408333
1e-05
1e-05
1e-05
1.0003e-05
1.09656e-05
1.48191e-05
1.65227e-05
1.65939e-05
1.63595e-05
1.61838e-05
1.61173e-05
1.61121e-05
1.61192e-05
1.61225e-05
1.61224e-05
1.61213e-05
1.61201e-05
1.61193e-05
1.61187e-05
1.61182e-05
1.61177e-05
1.61173e-05
1.61169e-05
1.61167e-05
1.61164e-05
1.61163e-05
1.61161e-05
1.6116e-05
1.6116e-05
1.6116e-05
1.6116e-05
1.61159e-05
1.61159e-05
1.61159e-05
1.61159e-05
1.61159e-05
1.61158e-05
1.61157e-05
1.61154e-05
1.61151e-05
1.61146e-05
1.6114e-05
1.61132e-05
1.61123e-05
1.61112e-05
1.611e-05
1.61084e-05
1.61062e-05
1.61035e-05
1.61002e-05
1.6097e-05
1.60943e-05
1.60918e-05
1.60886e-05
1.60849e-05
1.60809e-05
1.60767e-05
1.60727e-05
1.60724e-05
1.60746e-05
0.130139
0.19368
0.24932
0.294161
0.327081
0.348806
0.362595
0.373404
0.379794
0.37253
0.343484
0.287309
0.204082
0.106428
0.0305334
0.00246566
0.000593827
1e-05
1e-05
1e-05
1.00062e-05
1.17533e-05
1.65196e-05
1.69951e-05
1.6456e-05
1.62172e-05
1.61363e-05
1.61117e-05
1.61155e-05
1.61225e-05
1.61237e-05
1.61223e-05
1.6121e-05
1.61201e-05
1.61195e-05
1.61189e-05
1.61185e-05
1.6118e-05
1.61177e-05
1.61174e-05
1.61171e-05
1.61169e-05
1.61168e-05
1.61167e-05
1.61166e-05
1.61166e-05
1.61166e-05
1.61166e-05
1.61166e-05
1.61165e-05
1.61165e-05
1.61165e-05
1.61165e-05
1.61163e-05
1.61161e-05
1.61157e-05
1.61153e-05
1.61146e-05
1.61139e-05
1.6113e-05
1.61119e-05
1.61106e-05
1.6109e-05
1.61069e-05
1.61041e-05
1.61009e-05
1.60976e-05
1.60949e-05
1.60923e-05
1.60891e-05
1.60854e-05
1.60813e-05
1.60771e-05
1.60729e-05
0.0788442
0.142583
0.203884
0.257086
0.299956
0.331577
0.352548
0.365603
0.374971
0.3803
0.373014
0.344893
0.290116
0.207975
0.111186
0.0360085
0.000759914
0.0002088
1e-05
1e-05
1e-05
1.00091e-05
1.24315e-05
1.75895e-05
1.72631e-05
1.62948e-05
1.6098e-05
1.61148e-05
1.61168e-05
1.61174e-05
1.61224e-05
1.61239e-05
1.61224e-05
1.6121e-05
1.61203e-05
1.61198e-05
1.61193e-05
1.61189e-05
1.61185e-05
1.61181e-05
1.61179e-05
1.61177e-05
1.61175e-05
1.61174e-05
1.61173e-05
1.61173e-05
1.61173e-05
1.61173e-05
1.61173e-05
1.61172e-05
1.61172e-05
1.61172e-05
1.61172e-05
1.6117e-05
1.61168e-05
1.61164e-05
1.6116e-05
1.61154e-05
1.61146e-05
1.61137e-05
1.61126e-05
1.61114e-05
1.61097e-05
1.61076e-05
1.61049e-05
1.61016e-05
1.60982e-05
1.60955e-05
1.60929e-05
1.60897e-05
1.60859e-05
1.60817e-05
0.0299796
0.0828621
0.145796
0.206052
0.258487
0.301001
0.33267
0.353879
0.366869
0.37529
0.380195
0.373586
0.347122
0.294506
0.21435
0.119837
0.0403604
0.00136895
0.000417821
1e-05
1e-05
1e-05
1.00077e-05
1.19358e-05
1.80025e-05
1.75895e-05
1.62157e-05
1.60017e-05
1.6112e-05
1.61392e-05
1.6125e-05
1.61212e-05
1.61227e-05
1.61225e-05
1.61214e-05
1.61207e-05
1.61202e-05
1.61197e-05
1.61193e-05
1.61189e-05
1.61187e-05
1.61184e-05
1.61183e-05
1.61181e-05
1.61181e-05
1.6118e-05
1.6118e-05
1.6118e-05
1.6118e-05
1.61179e-05
1.61179e-05
1.61179e-05
1.61179e-05
1.61177e-05
1.61175e-05
1.61172e-05
1.61167e-05
1.61161e-05
1.61153e-05
1.61144e-05
1.61134e-05
1.61121e-05
1.61105e-05
1.61084e-05
1.61056e-05
1.61023e-05
1.60989e-05
1.60961e-05
1.60935e-05
0.00322386
0.0283148
0.0794123
0.141511
0.201854
0.254867
0.298275
0.331042
0.353287
0.366765
0.374618
0.379512
0.374054
0.34979
0.299906
0.222901
0.129852
0.0472644
0.00388076
0.00109612
1e-05
1e-05
1e-05
1.00034e-05
1.08108e-05
1.75708e-05
1.80801e-05
1.62458e-05
1.58596e-05
1.60524e-05
1.61476e-05
1.6137e-05
1.61231e-05
1.61219e-05
1.61224e-05
1.61218e-05
1.61211e-05
1.61206e-05
1.61202e-05
1.61198e-05
1.61195e-05
1.61192e-05
1.6119e-05
1.61189e-05
1.61188e-05
1.61188e-05
1.61187e-05
1.61187e-05
1.61187e-05
1.61187e-05
1.61187e-05
1.61186e-05
1.61186e-05
1.61185e-05
1.61183e-05
1.6118e-05
1.61175e-05
1.61169e-05
1.61161e-05
1.61152e-05
1.61141e-05
1.61129e-05
1.61113e-05
1.61092e-05
1.61064e-05
1.61031e-05
0.000432441
0.00168942
0.0228299
0.070019
0.131
0.192195
0.246856
0.292196
0.326949
0.350951
0.365512
0.373525
0.378495
0.374359
0.352608
0.306017
0.232465
0.140716
0.0557713
0.0077781
0.00212251
1e-05
1e-05
1e-05
1.00005e-05
1.00897e-05
1.6141e-05
1.9007e-05
1.67843e-05
1.58933e-05
1.59885e-05
1.61298e-05
1.61417e-05
1.61259e-05
1.61219e-05
1.61224e-05
1.61222e-05
1.61216e-05
1.61211e-05
1.61207e-05
1.61204e-05
1.61201e-05
1.61199e-05
1.61197e-05
1.61196e-05
1.61196e-05
1.61195e-05
1.61195e-05
1.61195e-05
1.61195e-05
1.61194e-05
1.61194e-05
1.61194e-05
1.61193e-05
1.61191e-05
1.61188e-05
1.61183e-05
1.61177e-05
1.6117e-05
1.6116e-05
1.6115e-05
1.61137e-05
1e-05
7.96631e-05
0.000351228
0.0164791
0.057145
0.115588
0.177712
0.234744
0.28288
0.320441
0.34696
0.363391
0.372525
0.377535
0.374654
0.35551
0.312498
0.242429
0.152329
0.0655187
0.0128833
0.00345614
1.06044e-05
1e-05
1e-05
1e-05
1e-05
1.29406e-05
1.83385e-05
1.71874e-05
1.60369e-05
1.59712e-05
1.61114e-05
1.6142e-05
1.61284e-05
1.61228e-05
1.6123e-05
1.61228e-05
1.61222e-05
1.61217e-05
1.61213e-05
1.6121e-05
1.61208e-05
1.61206e-05
1.61205e-05
1.61204e-05
1.61203e-05
1.61203e-05
1.61203e-05
1.61203e-05
1.61203e-05
1.61202e-05
1.61202e-05
1.61201e-05
1.61199e-05
1.61196e-05
1.61192e-05
1e-05
1e-05
1.00004e-05
0.00246382
0.00979011
0.0427946
0.0968022
0.159073
0.218728
0.270324
0.311461
0.341287
0.360395
0.371126
0.376373
0.374787
0.358335
0.318978
0.252524
0.164406
0.0761782
0.0191506
0.000826446
0.000267
1e-05
1e-05
1e-05
1.00076e-05
1.18476e-05
1.76093e-05
1.73902e-05
1.61591e-05
1.5965e-05
1.60952e-05
1.61399e-05
1.61286e-05
1.61224e-05
1.61232e-05
1.61236e-05
1.6123e-05
1.61224e-05
1.6122e-05
1.61217e-05
1.61215e-05
1.61214e-05
1.61213e-05
1.61212e-05
1.61212e-05
1.61212e-05
1.61212e-05
1.00161e-05
1e-05
1e-05
1e-05
0.00120331
0.00468746
0.0287997
0.0763196
0.137221
0.199178
0.254614
0.299961
0.333775
0.356189
0.368988
0.374745
0.374534
0.360835
0.325209
0.262519
0.176666
0.0877791
0.0260295
0.00283241
0.000706505
1e-05
1e-05
1e-05
1.00043e-05
1.10567e-05
1.70201e-05
1.76729e-05
1.63029e-05
1.59645e-05
1.6088e-05
1.61485e-05
1.61346e-05
1.6123e-05
)
;

boundaryField
{
    inlet
    {
        type            calculated;
        value           nonuniform List<scalar> 
11
(
1.61e-05
1.61002e-05
1.61003e-05
1.61004e-05
1.61004e-05
1.61004e-05
1.61004e-05
1.61007e-05
1.61012e-05
1.61016e-05
1.61018e-05
)
;
    }
    outlet
    {
        type            calculated;
        value           nonuniform List<scalar> 0();
    }
    walls
    {
        type            calculated;
        value           nonuniform List<scalar> 4(0.0017742 0.00157478 0.00135147 0.000616172);
    }
    frontAndBack
    {
        type            empty;
    }
    procBoundary6to2
    {
        type            processor;
        value           nonuniform List<scalar> 
13
(
0.12659
0.149865
0.151247
0.135172
0.104411
0.0649753
0.0258294
0.00298563
0.000814723
1e-05
1e-05
1.00117e-05
1.37328e-05
)
;
    }
    procBoundary6to3
    {
        type            processor;
        value           uniform 1.5067e-05;
    }
    procBoundary6to5
    {
        type            processor;
        value           nonuniform List<scalar> 
86
(
0.0928045
0.159349
0.203451
0.193222
0.124128
0.0380894
0.00168677
0.000395573
1e-05
1e-05
1.00158e-05
1.40026e-05
1.85288e-05
1.66662e-05
1.56365e-05
1.58149e-05
1.61894e-05
1.63111e-05
1.62443e-05
1.61524e-05
1.61041e-05
1.60944e-05
1.61003e-05
1.61068e-05
1.61098e-05
1.61102e-05
1.61096e-05
1.6109e-05
1.61086e-05
1.61084e-05
1.61083e-05
1.61083e-05
1.61083e-05
1.61083e-05
1.61076e-05
1.61077e-05
1.61078e-05
1.6108e-05
1.61082e-05
1.61084e-05
1.61086e-05
1.61088e-05
1.6109e-05
1.61092e-05
1.61094e-05
1.61096e-05
1.61096e-05
1.61093e-05
1.61094e-05
1.61095e-05
1.61095e-05
1.61094e-05
1.61093e-05
1.61091e-05
1.61089e-05
1.61085e-05
1.61085e-05
1.61075e-05
1.61068e-05
1.61061e-05
1.61053e-05
1.61044e-05
1.61032e-05
1.61019e-05
1.61019e-05
1.60993e-05
1.60971e-05
1.60946e-05
1.6092e-05
1.60893e-05
1.60867e-05
1.60842e-05
1.60842e-05
1.6081e-05
1.60784e-05
1.60758e-05
1.60732e-05
1.6071e-05
1.60715e-05
1.60743e-05
1.60776e-05
1.60816e-05
1.60816e-05
1.60846e-05
1.60898e-05
1.60997e-05
)
;
    }
    procBoundary6to7
    {
        type            processor;
        value           nonuniform List<scalar> 
91
(
1.6102e-05
1.6102e-05
1.61027e-05
1.61027e-05
1.60833e-05
1.60833e-05
1.60813e-05
1.60723e-05
1.60813e-05
1.60746e-05
1.60774e-05
1.60723e-05
1.60731e-05
1.60902e-05
1.60864e-05
1.60774e-05
1.60822e-05
1.60996e-05
1.60967e-05
1.60902e-05
1.60941e-05
1.61121e-05
1.611e-05
1.61073e-05
1.60996e-05
1.61039e-05
1.61186e-05
1.61178e-05
1.61169e-05
1.61158e-05
1.61121e-05
1.61146e-05
1.61211e-05
1.61211e-05
1.61211e-05
1.6121e-05
1.61208e-05
1.61205e-05
1.61186e-05
1.61201e-05
1.61227e-05
1.61235e-05
1.61233e-05
1.6123e-05
1.61228e-05
1.61225e-05
1.61223e-05
1.61222e-05
1.61221e-05
1.61221e-05
1.61221e-05
1.61211e-05
1.61221e-05
1.00005e-05
1e-05
1e-05
1e-05
0.000151938
0.000465008
0.0161213
0.0552038
0.112674
0.176098
0.235521
0.285628
0.324085
0.350425
0.365822
0.372627
0.373758
0.362761
0.330904
0.272112
0.188982
0.0998913
0.0339019
0.00196374
0.000550568
1e-05
1e-05
1e-05
1.00019e-05
1.04407e-05
1.62639e-05
1.80454e-05
1.64641e-05
1.59079e-05
1.60332e-05
1.61418e-05
1.61227e-05
1.61419e-05
)
;
    }
}


// ************************************************************************* //
