/*--------------------------------*- C++ -*----------------------------------*\
| =========                 |                                                 |
| \\      /  F ield         | OpenFOAM: The Open Source CFD Toolbox           |
|  \\    /   O peration     | Version:  2306                                  |
|   \\  /    A nd           | Website:  www.openfoam.com                      |
|    \\/     M anipulation  |                                                 |
\*---------------------------------------------------------------------------*/
FoamFile
{
    version     2.0;
    format      ascii;
    arch        "LSB;label=32;scalar=64";
    class       volScalarField;
    location    "600";
    object      turbulenceProperties:k;
}
// * * * * * * * * * * * * * * * * * * * * * * * * * * * * * * * * * * * * * //

dimensions      [0 2 -2 0 0 0 0];

internalField   nonuniform List<scalar> 
1340
(
25.4143
20.1269
14.8751
3.46756
9.51823
8.47188
7.38118
7.92663
12.1063
10.52
8.70943
9.78643
12.4501
11.7085
10.248
11.0365
8.10737
10.0689
10.4368
11.6172
1.85447
5.17624
8.34381
11.0849
0.127642
0.850241
4.25499
8.89323
0.0539479
0.0990843
0.967527
5.32813
0
0.0311207
0.132184
2.11964
0
4.5211e-06
0.00245208
0.552987
0
0
0.00292733
0.14274
2.63296e-06
0
0.000815496
0.0494301
4.02433e-05
6.25974e-08
0.000264173
0.016397
8.02282e-05
1.1162e-07
2.81881e-05
0.0041564
7.52011e-05
3.81618e-05
4.23444e-07
0.00030959
6.02596e-05
7.12231e-05
1.44406e-07
2.2863e-05
5.27326e-05
7.8906e-05
3.50011e-07
3.29541e-10
5.12995e-05
6.69959e-05
2.53973e-05
5.26012e-07
5.165e-05
5.48538e-05
5.1484e-05
6.33532e-06
5.13055e-05
4.84494e-05
5.53463e-05
2.61584e-05
4.98774e-05
4.59144e-05
4.98331e-05
4.05187e-05
4.78592e-05
4.45979e-05
4.42716e-05
4.37913e-05
4.56958e-05
4.31738e-05
4.06332e-05
4.16058e-05
4.35663e-05
4.1384e-05
3.82321e-05
3.82702e-05
4.14912e-05
3.93772e-05
3.62668e-05
3.52299e-05
3.94388e-05
3.73098e-05
3.43641e-05
3.26312e-05
3.73952e-05
3.52618e-05
3.24487e-05
3.0329e-05
3.53616e-05
3.3252e-05
3.05446e-05
2.8218e-05
3.33421e-05
3.12814e-05
2.86764e-05
2.62478e-05
3.13508e-05
2.93563e-05
2.6864e-05
2.44055e-05
2.93979e-05
2.74818e-05
2.51099e-05
2.26803e-05
2.74884e-05
2.5665e-05
2.34239e-05
2.10634e-05
2.56326e-05
2.39076e-05
2.18051e-05
1.95495e-05
2.52864e-05
2.38372e-05
2.22188e-05
2.0256e-05
1.81287e-05
2.344e-05
2.21076e-05
2.06017e-05
1.87818e-05
1.67955e-05
2.16672e-05
2.04506e-05
1.90583e-05
1.73822e-05
1.55453e-05
1.99741e-05
1.88694e-05
1.75913e-05
1.60575e-05
1.43725e-05
1.83655e-05
1.73679e-05
1.62026e-05
1.48076e-05
1.32732e-05
1.68439e-05
1.59483e-05
1.4893e-05
1.36324e-05
1.22436e-05
1.54117e-05
1.46119e-05
1.36619e-05
1.25299e-05
1.12803e-05
1.40697e-05
1.33591e-05
1.2509e-05
1.14982e-05
1.03799e-05
1.28177e-05
1.21894e-05
1.1433e-05
1.05357e-05
9.53932e-06
1.16544e-05
1.11013e-05
1.04319e-05
9.63938e-06
8.7559e-06
1.05777e-05
1.00931e-05
9.50326e-06
8.80714e-06
8.02642e-06
9.58475e-06
9.16187e-06
8.64465e-06
8.03592e-06
7.34862e-06
8.97133e-06
8.67235e-06
8.30445e-06
7.85281e-06
7.32275e-06
6.7198e-06
8.09512e-06
7.8366e-06
7.51764e-06
7.12463e-06
6.66485e-06
6.1374e-06
7.29637e-06
7.07321e-06
6.79748e-06
6.45663e-06
6.05925e-06
5.59899e-06
6.5702e-06
6.37791e-06
6.14009e-06
5.84526e-06
5.5028e-06
5.10217e-06
5.91165e-06
5.7461e-06
5.54138e-06
5.28705e-06
4.99259e-06
4.64465e-06
5.31575e-06
5.17339e-06
4.99737e-06
4.77832e-06
4.52568e-06
4.22406e-06
4.77754e-06
4.65518e-06
4.50405e-06
4.31568e-06
4.09922e-06
3.83813e-06
4.29235e-06
4.18717e-06
4.05744e-06
3.89562e-06
3.71037e-06
3.48469e-06
3.85559e-06
3.76513e-06
3.65383e-06
3.51489e-06
3.3564e-06
3.16157e-06
3.52501e-06
3.46292e-06
3.38509e-06
3.28954e-06
3.17028e-06
3.0347e-06
2.86665e-06
3.16402e-06
3.11028e-06
3.04322e-06
2.96116e-06
2.85878e-06
2.74273e-06
2.5979e-06
2.84053e-06
2.79394e-06
2.73607e-06
2.66549e-06
2.57752e-06
2.47811e-06
2.35335e-06
2.55092e-06
2.51041e-06
2.46035e-06
2.39955e-06
2.32386e-06
2.23858e-06
2.13116e-06
2.29181e-06
2.25647e-06
2.21307e-06
2.16057e-06
2.09535e-06
2.02204e-06
1.92953e-06
2.05991e-06
2.02904e-06
1.99133e-06
1.94592e-06
1.88962e-06
1.82646e-06
1.74679e-06
1.85194e-06
1.825e-06
1.79225e-06
1.75296e-06
1.70436e-06
1.64988e-06
1.58132e-06
1.68397e-06
1.66473e-06
1.64129e-06
1.61294e-06
1.57904e-06
1.53715e-06
1.49018e-06
1.43134e-06
1.51277e-06
1.4959e-06
1.47552e-06
1.451e-06
1.42179e-06
1.38578e-06
1.34537e-06
1.29509e-06
1.35884e-06
1.34391e-06
1.32605e-06
1.30474e-06
1.2795e-06
1.24851e-06
1.21374e-06
1.17089e-06
1.22133e-06
1.2079e-06
1.19202e-06
1.17328e-06
1.15128e-06
1.12445e-06
1.09442e-06
1.05793e-06
1.09834e-06
1.086e-06
1.07161e-06
1.05485e-06
1.03537e-06
1.01181e-06
9.85543e-07
9.54159e-07
9.92781e-07
9.81554e-07
9.68536e-07
9.53483e-07
9.36098e-07
9.15084e-07
8.91739e-07
8.64112e-07
9.08602e-07
8.98287e-07
8.86449e-07
8.72862e-07
8.5719e-07
8.38181e-07
8.17096e-07
7.93551e-07
8.44561e-07
8.36185e-07
8.25887e-07
8.14395e-07
8.01576e-07
7.86985e-07
7.69519e-07
7.49887e-07
7.28935e-07
7.80181e-07
7.71921e-07
7.61757e-07
7.50464e-07
7.38002e-07
7.23961e-07
7.07485e-07
6.89424e-07
6.71963e-07
7.12716e-07
7.0421e-07
6.94046e-07
6.82877e-07
6.70709e-07
6.57133e-07
6.41197e-07
6.22904e-07
6.0371e-07
6.58285e-07
6.50546e-07
6.41167e-07
6.30664e-07
6.1907e-07
6.06215e-07
5.91658e-07
5.76726e-07
5.65273e-07
5.81993e-07
5.73353e-07
5.63579e-07
5.53101e-07
5.41901e-07
5.29443e-07
5.1445e-07
4.95623e-07
4.74495e-07
5.57605e-07
5.50439e-07
5.41772e-07
5.31949e-07
5.21222e-07
5.0987e-07
4.98502e-07
4.90014e-07
4.8946e-07
4.51036e-07
4.42798e-07
4.33804e-07
4.2412e-07
4.13575e-07
4.01241e-07
3.8471e-07
3.62116e-07
3.34838e-07
5.1764e-07
5.12621e-07
5.06148e-07
4.98202e-07
4.89627e-07
4.81678e-07
4.78028e-07
4.84532e-07
5.01056e-07
4.03076e-07
4.02451e-07
3.99558e-07
3.94364e-07
3.8716e-07
3.77375e-07
3.63995e-07
3.56291e-07
3.42186e-07
6.9636e-07
6.80405e-07
6.80718e-07
6.80847e-07
6.80044e-07
6.7906e-07
6.80109e-07
6.93005e-07
7.24445e-07
7.40518e-07
7.47002e-07
7.42539e-07
7.46943e-07
7.52353e-07
7.56964e-07
7.61104e-07
7.6696e-07
7.86445e-07
8.19232e-07
8.17422e-07
1.26412e-06
1.06793e-06
1.08314e-06
1.09611e-06
1.10375e-06
1.11258e-06
1.12443e-06
1.14782e-06
1.16828e-06
9.99067e-07
15.1054
6.9712
3.09421
8.99442
12.0134
12.617
11.252
8.1219
4.16953
1.26026
0.211572
0.0426835
0.0142314
0.00362111
0.000174214
1.00879e-05
0
8.60072e-08
1.78176e-06
1.8319e-05
3.31178e-05
3.74004e-05
3.5845e-05
3.28868e-05
3.015e-05
2.7859e-05
2.58657e-05
2.40575e-05
2.23789e-05
2.08158e-05
1.93606e-05
1.80059e-05
1.67455e-05
1.5569e-05
1.44692e-05
1.3441e-05
1.24774e-05
1.15739e-05
1.07266e-05
9.93162e-06
9.18542e-06
8.48533e-06
7.82964e-06
7.21498e-06
6.64017e-06
6.10334e-06
5.60255e-06
5.13627e-06
4.70291e-06
4.30096e-06
3.92891e-06
3.58511e-06
3.26819e-06
2.97655e-06
2.70871e-06
2.4632e-06
2.23854e-06
2.03332e-06
1.84614e-06
1.67569e-06
1.52067e-06
1.37966e-06
1.25118e-06
1.13365e-06
1.02649e-06
9.27463e-07
8.40745e-07
7.7384e-07
7.09949e-07
6.5854e-07
5.85116e-07
5.60162e-07
4.50353e-07
4.99103e-07
2.9732e-07
5.26202e-07
3.06128e-07
7.39756e-07
7.59474e-07
9.37136e-07
10.9533
10.382
4.98045
2.77185
6.91025
9.33978
9.61188
7.9688
4.95857
1.89719
0.308343
0.0224666
0.00563143
0.00203033
0.000132843
9.5693e-06
0
2.41192e-08
5.1143e-07
9.66417e-06
2.02825e-05
2.4318e-05
2.412e-05
2.26678e-05
2.12093e-05
1.99684e-05
1.88697e-05
1.7842e-05
1.68563e-05
1.59105e-05
1.50058e-05
1.41427e-05
1.33212e-05
1.25375e-05
1.17893e-05
1.10758e-05
1.03939e-05
9.74289e-06
9.12121e-06
8.52771e-06
7.96118e-06
7.42094e-06
6.90699e-06
6.41764e-06
5.95325e-06
5.51341e-06
5.09739e-06
4.70493e-06
4.33561e-06
3.98893e-06
3.66444e-06
3.36139e-06
3.07918e-06
2.81706e-06
2.5742e-06
2.34976e-06
2.14283e-06
1.95248e-06
1.77773e-06
1.61765e-06
1.47127e-06
1.33746e-06
1.21505e-06
1.10264e-06
9.99827e-07
9.04579e-07
8.20467e-07
7.55283e-07
6.91967e-07
6.43437e-07
5.6967e-07
5.48659e-07
4.36568e-07
4.90555e-07
2.84942e-07
5.16447e-07
2.95307e-07
7.21351e-07
7.37462e-07
7.14311
8.62203
6.9192
3.04521
2.29864
5.71851
7.69378
7.75737
6.07513
3.35073
0.992178
0.0910303
0.00389554
0.000569633
2.64541e-07
1.34218e-08
0
1.27656e-09
2.66241e-08
4.06167e-06
1.12417e-05
1.48265e-05
1.52986e-05
1.47309e-05
1.40913e-05
1.3572e-05
1.31291e-05
1.27066e-05
1.22769e-05
1.18356e-05
1.13841e-05
1.09257e-05
1.04639e-05
9.99973e-06
9.53504e-06
9.07254e-06
8.61335e-06
8.16018e-06
7.71414e-06
7.27696e-06
6.84978e-06
6.43409e-06
6.03135e-06
5.64153e-06
5.26626e-06
4.90616e-06
4.56148e-06
4.23282e-06
3.92045e-06
3.62453e-06
3.3452e-06
3.08222e-06
2.83555e-06
2.6048e-06
2.3896e-06
2.1895e-06
2.00391e-06
1.83224e-06
1.67379e-06
1.52791e-06
1.39387e-06
1.27078e-06
1.15773e-06
1.05347e-06
9.57701e-07
8.68684e-07
7.89385e-07
7.28009e-07
6.6699e-07
6.22628e-07
5.50347e-07
5.33119e-07
4.22419e-07
4.78141e-07
2.78168e-07
5.03652e-07
2.93648e-07
7.05982e-07
4.68512
6.38714
6.58577
4.88793
1.921
1.92285
4.70533
6.31906
6.33416
4.83564
2.50464
0.661251
0.0508345
0.00033527
0.000138133
0
0
0
1.05978e-07
2.15481e-06
7.92821e-06
1.17524e-05
1.25575e-05
1.20883e-05
1.14475e-05
1.09445e-05
1.05556e-05
1.02147e-05
9.88757e-06
9.56405e-06
9.24039e-06
8.91538e-06
8.58889e-06
8.25936e-06
7.92652e-06
7.59096e-06
7.25333e-06
6.91526e-06
6.57759e-06
6.24193e-06
5.90957e-06
5.5821e-06
5.26091e-06
4.9467e-06
4.64116e-06
4.34507e-06
4.05913e-06
3.78429e-06
3.52095e-06
3.26964e-06
3.03076e-06
2.80431e-06
2.59057e-06
2.38936e-06
2.2006e-06
2.02409e-06
1.85946e-06
1.70637e-06
1.56434e-06
1.43291e-06
1.31156e-06
1.19961e-06
1.09636e-06
1.00074e-06
9.12457e-07
8.30099e-07
7.56052e-07
6.99239e-07
6.41182e-07
6.01142e-07
5.30678e-07
5.17151e-07
4.08413e-07
4.65729e-07
2.72057e-07
4.91982e-07
2.91173e-07
2.84441
4.43191
5.3735
5.17259
3.70847
1.3936
1.5573
3.80717
5.158
5.20003
3.94786
2.00723
0.522408
0.0381482
0.000550256
0.000204502
0
0
0
2.30163e-07
4.10057e-06
9.16644e-06
1.04565e-05
1.01931e-05
9.68068e-06
9.22925e-06
8.8755e-06
8.57629e-06
8.29335e-06
8.01459e-06
7.73891e-06
7.46684e-06
7.19823e-06
6.93194e-06
6.6669e-06
6.40246e-06
6.1384e-06
5.87501e-06
5.61213e-06
5.35031e-06
5.09016e-06
4.83241e-06
4.57784e-06
4.32704e-06
4.08115e-06
3.84078e-06
3.60669e-06
3.37977e-06
3.16042e-06
2.94931e-06
2.747e-06
2.5537e-06
2.36979e-06
2.19536e-06
2.03057e-06
1.87538e-06
1.72968e-06
1.59332e-06
1.46606e-06
1.34759e-06
1.23761e-06
1.13561e-06
1.0411e-06
9.53192e-07
8.71593e-07
7.9521e-07
7.25832e-07
6.73056e-07
6.17619e-07
5.81345e-07
5.12453e-07
5.02272e-07
3.95071e-07
4.54456e-07
2.65366e-07
4.8259e-07
1.41842
2.7467
3.91645
4.5045
4.22005
3.00947
1.15
1.1996
3.0738
4.25556
4.35634
3.34296
1.73016
0.471087
0.0424649
0.00080468
0.000200838
0
0
0
2.36759e-07
3.99011e-06
7.78146e-06
7.92313e-06
7.42382e-06
7.11145e-06
6.90049e-06
6.72276e-06
6.55932e-06
6.39527e-06
6.22498e-06
6.04982e-06
5.87143e-06
5.69019e-06
5.50585e-06
5.31843e-06
5.12843e-06
4.93638e-06
4.74239e-06
4.54699e-06
4.35083e-06
4.15431e-06
3.95815e-06
3.76291e-06
3.5694e-06
3.37821e-06
3.19009e-06
3.00584e-06
2.82592e-06
2.65103e-06
2.48183e-06
2.31868e-06
2.16205e-06
2.01222e-06
1.86952e-06
1.73408e-06
1.60599e-06
1.48525e-06
1.37181e-06
1.26554e-06
1.16626e-06
1.07367e-06
9.87446e-07
9.06868e-07
8.31662e-07
7.61026e-07
6.96123e-07
6.47123e-07
5.9417e-07
5.61456e-07
4.94187e-07
4.87275e-07
3.81562e-07
4.43245e-07
0.469479
1.36186
2.45731
3.37978
3.81896
3.56868
2.58858
1.06372
0.857992
2.46227
3.53493
3.70811
2.91618
1.57013
0.466968
0.0542
0.00025845
4.91899e-05
0
0
0
2.23094e-07
3.64474e-06
6.48048e-06
6.18916e-06
5.59629e-06
5.37473e-06
5.26523e-06
5.15527e-06
5.04817e-06
4.94434e-06
4.83807e-06
4.72811e-06
4.61481e-06
4.49741e-06
4.37516e-06
4.24808e-06
4.11652e-06
3.98061e-06
3.8409e-06
3.69793e-06
3.55215e-06
3.40436e-06
3.25512e-06
3.10512e-06
2.95509e-06
2.8057e-06
2.65772e-06
2.51167e-06
2.36826e-06
2.22816e-06
2.09181e-06
1.95976e-06
1.83236e-06
1.71005e-06
1.59305e-06
1.48159e-06
1.37579e-06
1.27571e-06
1.18133e-06
1.09263e-06
1.00942e-06
9.31502e-07
8.58355e-07
7.89673e-07
7.24949e-07
6.64698e-07
6.19631e-07
5.69336e-07
5.40302e-07
4.74903e-07
4.71396e-07
0.0623231
0.424972
1.18299
2.10481
2.886
3.27536
3.10452
2.32812
1.06974
0.544329
1.93805
2.93577
3.18515
2.59294
1.47048
0.487565
0.065872
0.000526815
6.78459e-05
0
0
0
1.68806e-07
2.636e-06
5.38667e-06
5.11081e-06
4.47858e-06
4.28714e-06
4.22934e-06
4.14801e-06
4.05688e-06
3.97227e-06
3.89054e-06
3.80792e-06
3.72334e-06
3.63603e-06
3.54533e-06
3.45106e-06
3.35291e-06
3.25097e-06
3.1454e-06
3.03644e-06
2.92462e-06
2.81033e-06
2.69409e-06
2.57656e-06
2.45825e-06
2.33985e-06
2.22186e-06
2.10492e-06
1.98965e-06
1.87649e-06
1.76602e-06
1.65858e-06
1.55464e-06
1.4545e-06
1.35841e-06
1.2666e-06
1.17917e-06
1.0962e-06
1.01773e-06
9.43691e-07
8.7398e-07
8.08237e-07
7.46105e-07
6.87373e-07
6.31906e-07
5.90918e-07
5.43437e-07
0.000536357
0.0456473
0.33059
0.95443
1.74376
2.44145
2.82782
2.75035
2.15432
1.11819
0.281226
1.48514
2.42751
2.75042
2.33417
1.40552
0.515817
0.0828143
0.00173863
0.000124455
0
0
0
9.32426e-08
1.3798e-06
4.23005e-06
4.27455e-06
3.63919e-06
3.43584e-06
3.41924e-06
3.37837e-06
3.31019e-06
3.2429e-06
3.17968e-06
3.11628e-06
3.0508e-06
2.98281e-06
2.9122e-06
2.83859e-06
2.76187e-06
2.68201e-06
2.59911e-06
2.5134e-06
2.42514e-06
2.33465e-06
2.24236e-06
2.14866e-06
2.05412e-06
1.95909e-06
1.86414e-06
1.76979e-06
1.67642e-06
1.5846e-06
1.49461e-06
1.40692e-06
1.32186e-06
1.23968e-06
1.16064e-06
1.08491e-06
1.01257e-06
9.43735e-07
8.78406e-07
8.16551e-07
7.57963e-07
7.02209e-07
6.49375e-07
0.000132269
0.000206008
0.0251607
0.224191
0.717891
1.39634
2.03854
2.44162
2.45875
2.02322
1.17832
0.173427
1.09353
1.99057
2.37923
2.11731
1.35617
0.546909
0.103854
0.00409424
0.000181544
0
0
0
2.89318e-08
3.74883e-07
3.07502e-06
3.6675e-06
3.08178e-06
2.79716e-06
2.7633e-06
2.74599e-06
2.7011e-06
2.65131e-06
2.60443e-06
2.5575e-06
2.50844e-06
2.45693e-06
2.40277e-06
2.34581e-06
2.28597e-06
2.22327e-06
2.15786e-06
2.08993e-06
2.01969e-06
1.94744e-06
1.87349e-06
1.7983e-06
1.72211e-06
1.64539e-06
1.56858e-06
1.49201e-06
1.41614e-06
1.34129e-06
1.26784e-06
1.19611e-06
1.12637e-06
1.05887e-06
9.93787e-07
9.31245e-07
8.71376e-07
8.14215e-07
0
2.38851e-05
7.10416e-05
0.010495
0.132146
0.500091
1.07399
1.66986
2.09491
2.20132
1.90962
1.2337
0.309426
0.755212
1.61049
2.05444
1.92655
1.31199
0.57838
0.128238
0.00791406
0.000258472
3.73044e-07
0
0
3.8405e-10
1.27946e-11
1.72885e-06
2.88502e-06
2.60411e-06
2.3227e-06
2.26287e-06
2.25e-06
2.21915e-06
2.1815e-06
2.14557e-06
2.10978e-06
2.0723e-06
2.03271e-06
1.9908e-06
1.94639e-06
1.89939e-06
1.84985e-06
1.7979e-06
1.74368e-06
1.68739e-06
1.62929e-06
1.56973e-06
1.50891e-06
1.4472e-06
1.38498e-06
1.32251e-06
1.26022e-06
1.19834e-06
1.13724e-06
1.07721e-06
1.01849e-06
0
0
3.76761e-08
0.000651586
0.00260537
0.0658474
0.31817
0.785384
1.33174
1.77441
1.9612
1.79853
1.27475
0.479533
0.463486
1.27603
1.76401
1.75134
1.26762
0.607566
0.154954
0.0135114
6.78559e-05
1.34435e-05
0
0
1.25009e-14
7.74425e-08
1.13323e-06
2.27142e-06
2.18544e-06
1.94289e-06
1.87254e-06
1.86106e-06
1.83911e-06
1.80978e-06
1.78129e-06
1.75307e-06
1.72344e-06
1.69197e-06
1.6585e-06
1.62291e-06
1.58514e-06
1.54524e-06
1.50328e-06
1.45937e-06
1.41371e-06
1.36656e-06
1.31808e-06
1.26856e-06
6.66537e-08
5.58429e-13
0
0
0.000333788
0.000297953
0.0261407
0.180906
0.539043
1.02494
1.47407
1.72878
1.68097
1.29515
0.627608
0.217603
0.979824
1.50011
1.58575
1.21991
0.632414
0.18355
0.0207101
0.000310735
4.01576e-05
0
0
0
4.98934e-08
7.136e-07
1.80435e-06
1.84951e-06
1.63483e-06
1.55785e-06
1.54825e-06
1.5332e-06
1.50962e-06
1.48627e-06
)
;

boundaryField
{
    inlet
    {
        type            calculated;
        value           nonuniform List<scalar> 
11
(
5.59372e-06
5.30215e-06
5.42938e-06
5.54744e-06
5.65207e-06
5.74506e-06
5.83221e-06
5.91988e-06
6.02369e-06
5.78953e-06
6.09951e-06
)
;
    }
    outlet
    {
        type            calculated;
        value           nonuniform List<scalar> 0();
    }
    walls
    {
        type            calculated;
        value           uniform 0;
    }
    frontAndBack
    {
        type            empty;
    }
    procBoundary6to2
    {
        type            processor;
        value           nonuniform List<scalar> 
13
(
10.437
6.2811
3.96564
2.3891
1.18169
0.397542
0.0572926
0.000594342
0.000262293
0
0
5.52101e-08
9.34243e-07
)
;
    }
    procBoundary6to3
    {
        type            processor;
        value           uniform 1.08581e-06;
    }
    procBoundary6to5
    {
        type            processor;
        value           nonuniform List<scalar> 
86
(
29.3105
11.0154
14.1307
12.6324
5.00326
0.197976
0.0216383
0.00312479
0
0
3.28054e-06
5.3402e-05
7.84011e-05
6.73354e-05
6.01342e-05
5.95076e-05
5.977e-05
5.86014e-05
5.64479e-05
5.41391e-05
5.19906e-05
4.997e-05
4.7971e-05
4.59331e-05
4.38501e-05
4.17362e-05
3.9607e-05
3.74781e-05
3.53609e-05
3.32639e-05
3.11981e-05
2.91739e-05
2.72003e-05
2.72003e-05
2.66019e-05
2.46293e-05
2.2738e-05
2.09339e-05
1.92216e-05
1.76045e-05
1.60846e-05
1.46627e-05
1.33381e-05
1.21095e-05
1.09744e-05
9.92965e-06
9.92965e-06
9.20904e-06
8.29997e-06
7.47276e-06
6.72202e-06
6.0423e-06
5.42815e-06
4.87433e-06
4.37574e-06
3.92749e-06
3.92749e-06
3.57369e-06
3.20637e-06
2.8775e-06
2.5833e-06
2.32026e-06
2.08494e-06
1.87392e-06
1.87392e-06
1.69947e-06
1.52648e-06
1.37113e-06
1.23254e-06
1.10876e-06
1.00212e-06
9.16937e-07
9.16937e-07
8.51866e-07
7.87492e-07
7.20491e-07
6.65585e-07
5.90168e-07
5.65553e-07
4.57539e-07
5.27802e-07
3.96847e-07
3.96847e-07
6.43063e-07
7.4361e-07
9.60321e-07
)
;
    }
    procBoundary6to7
    {
        type            processor;
        value           nonuniform List<scalar> 
91
(
9.39407e-07
9.39407e-07
7.13838e-07
7.13838e-07
6.92252e-07
6.92252e-07
2.88855e-07
2.58104e-07
2.88855e-07
4.73852e-07
3.67359e-07
2.58104e-07
4.31548e-07
5.18165e-07
4.54841e-07
3.67359e-07
4.54826e-07
5.9867e-07
5.61756e-07
5.18165e-07
5.17131e-07
7.59786e-07
7.08023e-07
6.58406e-07
5.9867e-07
6.11308e-07
9.61327e-07
9.05895e-07
8.52314e-07
8.00722e-07
7.59786e-07
7.51189e-07
1.2183e-06
1.16755e-06
1.11662e-06
1.06576e-06
1.01526e-06
9.65363e-07
9.61327e-07
9.16315e-07
1.46358e-06
1.4398e-06
1.41437e-06
1.38719e-06
1.35817e-06
1.3273e-06
1.29462e-06
1.26022e-06
1.22421e-06
1.18679e-06
1.14812e-06
1.2183e-06
1.10839e-06
7.0844e-09
4.5802e-10
0
0
3.88662e-05
8.02674e-05
0.00693533
0.0878092
0.339521
0.751273
1.1908
1.49859
1.55142
1.29145
0.745582
0.0792181
0.717465
1.25788
1.42621
1.1667
0.651768
0.212518
0.0298695
0.000293818
3.3343e-05
0
0
0
2.82825e-08
3.86782e-07
1.41217e-06
1.57486e-06
1.37918e-06
1.29249e-06
1.28602e-06
1.27982e-06
1.46358e-06
1.26253e-06
)
;
    }
}


// ************************************************************************* //
