/*--------------------------------*- C++ -*----------------------------------*\
| =========                 |                                                 |
| \\      /  F ield         | OpenFOAM: The Open Source CFD Toolbox           |
|  \\    /   O peration     | Version:  2306                                  |
|   \\  /    A nd           | Website:  www.openfoam.com                      |
|    \\/     M anipulation  |                                                 |
\*---------------------------------------------------------------------------*/
FoamFile
{
    version     2.0;
    format      ascii;
    arch        "LSB;label=32;scalar=64";
    class       volVectorField;
    location    "650";
    object      momentError;
}
// * * * * * * * * * * * * * * * * * * * * * * * * * * * * * * * * * * * * * //

dimensions      [0 1 -2 0 0 0 0];

internalField   nonuniform List<vector> 
10720
(
(7.43897e-05 -0.00021855 -6.95743e-15)
(7.25757e-05 -0.000245502 2.41135e-14)
(5.90568e-05 -0.000264218 -4.72326e-14)
(1.64092e-05 -0.000234721 1.778e-14)
(-5.42726e-06 -0.000229082 1.10239e-13)
(-2.27027e-05 -0.000215107 -1.75099e-13)
(-4.11452e-05 -0.000227329 8.99985e-14)
(-6.38202e-05 -0.000226251 -1.11069e-13)
(-8.62799e-05 -0.000215133 -2.54631e-13)
(-9.7357e-05 -0.000180552 3.44118e-13)
(-9.29697e-05 -0.000137333 1.24149e-13)
(-8.03998e-05 -9.14517e-05 -2.28811e-13)
(-6.35223e-05 -5.93337e-05 -3.34526e-13)
(-4.40325e-05 -3.51569e-05 -5.72036e-14)
(-1.43138e-05 -1.00369e-05 -1.39768e-13)
(2.32287e-05 1.43754e-05 -3.10395e-13)
(9.21434e-05 4.48724e-05 -1.46757e-13)
(0.000196158 6.7174e-05 8.32708e-13)
(1.21557e-05 6.9685e-06 4.23308e-13)
(0.000739702 0.000370725 -5.95091e-13)
(0.000793866 0.000267177 1.05315e-13)
(0.00060875 -0.000155791 1.53274e-13)
(-0.00888089 -0.00130325 -6.74716e-14)
(-0.0127233 -0.00268911 -1.51575e-13)
(0.00848742 -0.000250745 3.57105e-14)
(0.0217035 0.00375717 -2.34318e-15)
(0.0126338 0.00487055 4.15485e-14)
(0.00154987 0.00331857 -1.64643e-14)
(-0.00596549 0.00108527 4.39569e-14)
(-0.00829734 -0.000118284 1.54493e-13)
(-0.00452455 -0.000340316 3.03114e-14)
(-0.000436607 -0.000330301 -1.28628e-13)
(0.00209374 -0.000348301 -7.92305e-15)
(0.00150548 -0.000176043 -2.15711e-13)
(0.000531725 8.40913e-05 -2.82323e-13)
(-0.000178134 0.00130507 1.15496e-13)
(0.00115997 0.0115181 -1.13959e-14)
(0.0524215 0.0722329 -4.53038e-16)
(1.09048 -0.120009 -6.74695e-14)
(7.93793e-05 -0.000206774 -1.0766e-14)
(8.25019e-05 -0.000144244 2.65582e-14)
(9.24585e-05 -9.41918e-05 1.73222e-15)
(8.45299e-05 -3.6663e-05 3.61656e-14)
(8.66606e-05 -9.15317e-06 -3.28851e-14)
(3.01599e-05 6.8364e-05 -9.40224e-14)
(5.05159e-06 8.69485e-05 -1.07345e-13)
(-8.15265e-05 0.000148027 2.99402e-14)
(-9.52812e-05 8.70963e-05 -7.52055e-14)
(-5.4201e-05 2.86505e-05 9.5795e-14)
(-1.62171e-05 -2.01003e-05 -6.00386e-14)
(3.09598e-05 -4.26195e-05 -1.46125e-13)
(4.77411e-05 -4.30655e-05 -1.64675e-13)
(5.57705e-05 -3.84674e-05 1.32091e-14)
(5.61475e-05 -3.19089e-05 1.33035e-13)
(5.29426e-05 -2.54677e-05 3.99406e-14)
(4.80716e-05 -2.00385e-05 -5.0307e-14)
(4.23141e-05 -1.52817e-05 -3.54749e-14)
(3.6026e-05 -1.17608e-05 -2.1818e-14)
(2.97802e-05 -8.53221e-06 3.90399e-14)
(2.31918e-05 -6.67707e-06 1.72961e-14)
(1.72181e-05 -4.92718e-06 2.50514e-14)
(1.14359e-05 -5.18207e-06 -3.38377e-14)
(1.0213e-05 -6.10103e-06 -2.46551e-14)
(1.38958e-05 -6.35385e-06 1.8184e-14)
(1.91675e-05 -6.13021e-06 1.24073e-14)
(2.58636e-05 -4.76061e-06 6.93013e-15)
(3.23579e-05 -4.64845e-06 -1.46247e-15)
(3.24643e-05 -1.87817e-06 -2.84507e-16)
(2.30233e-05 -5.87056e-06 2.30626e-16)
(2.31506e-05 -2.27347e-06 -4.51379e-16)
(3.40095e-05 -1.76287e-06 -1.86759e-15)
(4.04526e-05 -8.93489e-07 -1.26031e-15)
(3.66665e-05 -5.91915e-07 -3.83991e-15)
(4.84821e-05 1.71107e-06 -2.90648e-15)
(0.000165038 1.78586e-05 1.26148e-15)
(2.56915e-05 -2.0053e-05 -2.16462e-15)
(0.000339196 -0.000128744 -1.10573e-14)
(0.00219512 -0.00126867 -2.14937e-14)
(9.96918e-05 -0.000193236 -1.31424e-14)
(9.06689e-05 -0.000218642 5.8845e-15)
(7.14337e-05 -0.000237278 7.81391e-15)
(3.64748e-05 -0.000221297 -3.36621e-14)
(6.85218e-06 -0.000210245 2.10325e-14)
(-2.31603e-06 -0.000211009 8.03965e-14)
(-3.12167e-05 -0.000220311 1.03894e-13)
(-4.96302e-05 -0.000219278 1.00638e-13)
(-7.20845e-05 -0.000205214 -3.98781e-15)
(-8.18449e-05 -0.000168115 1.90681e-13)
(-8.0942e-05 -0.000126035 -2.0886e-13)
(-7.21267e-05 -9.03545e-05 -1.19528e-13)
(-5.95841e-05 -5.36447e-05 4.48618e-13)
(-4.32774e-05 -2.54271e-05 1.28259e-13)
(-1.20089e-05 -1.32355e-05 -1.19187e-13)
(1.48253e-05 -2.35215e-06 -1.78005e-14)
(2.62918e-05 1.60373e-05 3.42058e-13)
(2.65064e-05 8.28361e-05 -1.53339e-13)
(-0.000709477 0.000343088 -4.91942e-13)
(-0.00363198 0.000410963 1.88444e-13)
(0.00212242 0.000410913 2.35433e-13)
(-0.00754429 0.00105557 4.67752e-14)
(0.00934677 -0.00186013 -1.30874e-13)
(0.0674065 0.00646103 1.92544e-13)
(0.0655006 0.0129099 -4.19924e-14)
(-0.0113553 0.00701248 -7.04799e-14)
(-0.0554588 0.00104969 -3.01917e-14)
(-0.0328576 0.000384267 5.59758e-15)
(-0.0130547 -0.000562476 -1.49967e-14)
(-0.0100726 -0.00197106 -1.58728e-14)
(-0.00274554 -0.00171607 -2.03998e-14)
(0.00121084 -0.000954701 3.52751e-14)
(0.00154675 -0.000405504 -1.88216e-13)
(0.0020095 -0.000174145 -2.24046e-13)
(0.00119456 1.80826e-05 1.62307e-13)
(3.84981e-05 0.000403661 -3.94954e-14)
(-0.00097666 0.00223018 3.30544e-14)
(-0.0317689 0.0142603 -1.41193e-14)
(-0.893063 0.108622 -3.85092e-14)
(0.000106214 -0.000168105 -4.63885e-15)
(0.000123842 -0.000129089 1.24099e-13)
(0.000130408 -8.60024e-05 -7.98397e-15)
(0.000132774 -4.30814e-05 -1.29075e-13)
(0.00011958 -6.54886e-07 -2.56851e-14)
(8.65283e-05 4.32692e-05 1.27346e-13)
(5.25413e-05 6.74945e-05 1.11416e-13)
(-3.76167e-06 8.19859e-05 5.95854e-14)
(-2.95139e-05 4.00912e-05 -8.25881e-14)
(-2.11432e-05 -4.0265e-07 -1.06483e-14)
(-9.05928e-07 -3.23541e-05 1.01897e-13)
(2.53456e-05 -4.45312e-05 -5.20992e-15)
(4.04492e-05 -4.53696e-05 1.22903e-14)
(4.84704e-05 -4.13379e-05 -2.47923e-14)
(5.0452e-05 -3.53847e-05 -3.2588e-14)
(4.86218e-05 -2.9174e-05 1.41526e-14)
(4.49836e-05 -2.33756e-05 1.70869e-14)
(4.0023e-05 -1.83783e-05 -5.80437e-14)
(3.4498e-05 -1.41746e-05 2.69297e-14)
(2.85184e-05 -1.09453e-05 1.78451e-14)
(2.25761e-05 -8.25442e-06 1.46789e-14)
(1.67708e-05 -6.62891e-06 3.19092e-14)
(1.20582e-05 -5.56022e-06 4.17819e-14)
(1.09832e-05 -6.8694e-06 1.76494e-14)
(1.44055e-05 -7.08621e-06 -1.51653e-14)
(1.94117e-05 -7.10563e-06 8.16093e-16)
(2.56633e-05 -6.35585e-06 -5.68203e-15)
(3.26762e-05 -5.28105e-06 -2.08582e-15)
(3.23953e-05 -3.26999e-06 3.93329e-16)
(2.66314e-05 -2.23145e-07 -3.86222e-17)
(4.03464e-05 -4.97083e-06 2.8293e-16)
(4.61161e-05 -6.09095e-07 6.14086e-16)
(5.20971e-05 3.59709e-08 1.84957e-15)
(7.54561e-05 -8.52115e-07 2.35487e-15)
(9.47122e-05 -6.62653e-07 7.65901e-16)
(4.50996e-05 1.45098e-05 -1.55113e-15)
(0.000220161 2.65327e-05 -6.65597e-17)
(0.000284137 1.76673e-05 3.77963e-15)
(0.00158169 0.000199788 9.20382e-15)
(7.48536e-05 -0.000171312 -5.07372e-15)
(7.11082e-05 -0.000186521 -8.20208e-16)
(5.42886e-05 -0.000194002 -5.83698e-15)
(2.57328e-05 -0.00018908 1.55515e-14)
(7.25549e-06 -0.000182644 3.91319e-15)
(-6.59863e-06 -0.000191978 -3.37372e-14)
(-2.47481e-05 -0.000198243 -1.07609e-13)
(-4.44714e-05 -0.000200105 -9.54175e-14)
(-6.27886e-05 -0.000180785 -1.11322e-13)
(-7.23234e-05 -0.000150317 1.10097e-14)
(-7.09977e-05 -0.000115642 2.64053e-13)
(-6.15549e-05 -8.59608e-05 7.0621e-14)
(-4.64766e-05 -6.37651e-05 -9.9311e-14)
(-2.58352e-05 -4.83879e-05 -2.41054e-13)
(-1.72796e-05 -2.82958e-05 1.10245e-13)
(-9.21768e-06 -1.16058e-05 1.45922e-13)
(3.10658e-05 -2.98345e-05 -9.42423e-14)
(0.000152916 -0.000235437 -1.89374e-13)
(0.000775277 -0.00124746 3.17158e-13)
(0.00419182 -0.0017826 -9.48902e-14)
(-0.000128794 0.000430634 -1.19561e-13)
(0.00196354 -0.00453161 1.78553e-13)
(0.0010359 -0.00403717 7.38972e-14)
(-0.0149555 -0.00922481 -3.35089e-15)
(-0.0436514 -0.0102378 -3.30802e-14)
(-0.0680647 -0.00988322 3.55818e-15)
(-0.0282513 0.000968283 -3.05932e-14)
(-0.00508971 0.00249266 2.10618e-14)
(0.00141579 -0.000432574 -3.3176e-14)
(0.0203735 -0.00226703 -7.20894e-14)
(0.0171693 -0.0016389 6.96049e-14)
(0.00644176 -0.00101412 3.08565e-14)
(0.00110114 -0.000376204 -1.21845e-13)
(0.000336993 0.000162981 7.82204e-14)
(-0.000273577 0.000328537 1.65125e-14)
(-0.000825409 0.000445394 -3.61659e-14)
(-0.00254297 0.00126137 -9.9807e-14)
(-0.0164293 0.00207458 2.77746e-14)
(-0.113452 0.00993018 9.91239e-15)
(9.26463e-05 -0.000144682 2.9218e-14)
(0.000102953 -0.00011737 -2.76869e-14)
(0.000112914 -8.28735e-05 -9.83431e-14)
(0.000113863 -5.17616e-05 4.48519e-14)
(0.000105255 -1.69142e-05 2.05984e-14)
(8.80956e-05 1.38184e-05 -6.4571e-14)
(6.15622e-05 3.32979e-05 1.35491e-14)
(2.77383e-05 3.73543e-05 -1.17648e-13)
(7.57312e-06 1.26875e-05 -7.91933e-14)
(5.02652e-06 -1.14526e-05 -8.81236e-14)
(1.57231e-05 -3.04001e-05 9.75412e-14)
(3.02569e-05 -3.92511e-05 1.4533e-14)
(4.09612e-05 -4.11449e-05 -1.36542e-14)
(4.69104e-05 -3.88817e-05 -8.08997e-14)
(4.84121e-05 -3.44994e-05 -5.80885e-14)
(4.67695e-05 -2.90997e-05 3.78567e-14)
(4.34677e-05 -2.37318e-05 -2.13741e-14)
(3.89906e-05 -1.88728e-05 -4.39724e-14)
(3.38097e-05 -1.48474e-05 -4.00353e-15)
(2.81773e-05 -1.15204e-05 -4.02395e-14)
(2.24348e-05 -9.32811e-06 -4.30003e-14)
(1.68055e-05 -8.11744e-06 -8.43254e-14)
(1.22001e-05 -8.71891e-06 -6.39434e-14)
(1.10484e-05 -1.07765e-05 -1.79986e-14)
(1.40869e-05 -1.13533e-05 3.95037e-15)
(1.89121e-05 -1.06594e-05 -1.14748e-15)
(2.47833e-05 -9.04114e-06 -1.05285e-14)
(3.16507e-05 -7.24566e-06 4.47386e-15)
(3.19131e-05 -3.26237e-06 5.81756e-16)
(2.62669e-05 -5.94642e-06 -1.81328e-16)
(3.19399e-05 -3.43128e-06 -9.44754e-18)
(4.00178e-05 -7.21639e-07 -5.34169e-16)
(4.60774e-05 2.03063e-06 -9.83141e-16)
(5.99863e-05 4.95824e-06 -1.46474e-15)
(9.11816e-05 1.32686e-05 1.8677e-15)
(0.00017142 3.12213e-05 3.72873e-17)
(4.45359e-05 8.05733e-06 1.44751e-14)
(0.000232429 6.29755e-05 8.75125e-15)
(0.00124621 0.000217654 -1.0338e-13)
(6.16434e-05 -0.000142014 7.92674e-15)
(5.35737e-05 -0.000166881 -2.34386e-15)
(4.39918e-05 -0.000169728 6.65901e-17)
(2.24264e-05 -0.000170574 -7.13004e-15)
(1.12657e-05 -0.000170546 1.99584e-15)
(-4.56562e-06 -0.000180942 3.58143e-14)
(-2.05929e-05 -0.000189853 5.84657e-14)
(-3.84376e-05 -0.000183227 5.46315e-14)
(-5.36501e-05 -0.000166271 -1.33388e-13)
(-6.1222e-05 -0.000140385 -1.11642e-13)
(-5.94992e-05 -0.00011094 1.41518e-13)
(-5.22365e-05 -8.60081e-05 2.56582e-13)
(-3.98914e-05 -6.59504e-05 1.35702e-13)
(-2.63905e-05 -4.87299e-05 -4.72148e-13)
(-9.38684e-06 -3.48418e-05 -1.62162e-13)
(3.67449e-05 -4.02932e-05 3.85911e-13)
(7.36815e-05 -3.67124e-05 8.39269e-14)
(0.000128461 -2.22991e-05 -1.2427e-13)
(0.000282875 0.000232401 -2.28419e-13)
(-2.91866e-05 0.00126661 1.97915e-13)
(0.000864879 -9.76837e-06 4.35952e-14)
(0.00362582 0.00213247 -2.22444e-13)
(0.000847685 -0.000954335 1.65577e-13)
(-0.000433605 -0.000251503 -1.1416e-13)
(0.000530556 -0.00257964 -3.71919e-14)
(-0.0262665 0.0144432 3.55851e-14)
(-0.0328799 0.0122467 -4.55834e-14)
(-0.0519369 0.00570315 1.00957e-14)
(0.0224182 -0.00234172 1.36358e-14)
(0.0119951 0.00202931 2.10886e-14)
(0.0373411 -0.00391187 -9.0409e-15)
(0.0129767 7.33897e-05 2.55473e-14)
(0.00243457 6.82092e-05 2.07244e-13)
(-0.00253798 0.000832725 5.34789e-14)
(-0.00219198 0.000703616 -7.58605e-14)
(-0.00132981 0.000534502 -1.16597e-13)
(-0.00173398 0.000666408 1.66349e-14)
(-0.00692557 -0.000138571 -2.8297e-14)
(-0.0339973 0.00930279 4.56601e-14)
(7.83807e-05 -0.000125217 1.88164e-14)
(8.93773e-05 -0.000107047 -3.68743e-14)
(9.86315e-05 -8.24657e-05 -4.04088e-15)
(9.80803e-05 -5.75902e-05 -3.37243e-14)
(9.41303e-05 -2.96157e-05 -2.08222e-14)
(8.18498e-05 -5.61549e-06 7.34768e-14)
(6.23079e-05 1.26327e-05 -1.8417e-13)
(3.83279e-05 1.46603e-05 1.69127e-13)
(2.6477e-05 -1.00302e-06 2.01465e-15)
(2.24803e-05 -1.57635e-05 -1.20416e-13)
(2.77687e-05 -2.85924e-05 -7.02475e-14)
(3.55558e-05 -3.56541e-05 -1.98383e-14)
(4.24461e-05 -3.80081e-05 5.95862e-14)
(4.63062e-05 -3.67189e-05 1.29281e-13)
(4.7029e-05 -3.29991e-05 2.11142e-14)
(4.52734e-05 -2.81227e-05 -4.73379e-14)
(4.21659e-05 -2.3072e-05 2.21983e-14)
(3.80572e-05 -1.83893e-05 5.00097e-14)
(3.32068e-05 -1.46008e-05 -3.67786e-15)
(2.79003e-05 -1.13765e-05 -7.78287e-15)
(2.24349e-05 -9.3094e-06 -2.14375e-14)
(1.7136e-05 -8.08524e-06 5.2807e-14)
(1.28647e-05 -8.60182e-06 3.09354e-14)
(1.17416e-05 -1.04442e-05 -1.07667e-14)
(1.43503e-05 -1.11583e-05 -1.69122e-14)
(1.89018e-05 -1.05593e-05 -6.96414e-15)
(2.46425e-05 -9.05207e-06 1.26255e-14)
(3.12678e-05 -7.36949e-06 -8.9138e-16)
(3.16275e-05 -3.42556e-06 -5.13489e-16)
(2.68971e-05 -3.22825e-06 2.01661e-16)
(3.1389e-05 -7.28927e-06 -3.98116e-17)
(3.82085e-05 -9.1173e-06 -3.67066e-17)
(3.09979e-05 -5.50729e-05 2.74276e-16)
(-1.09485e-05 -0.000235872 5.11482e-16)
(0.0001591 0.000286659 -3.23159e-15)
(-0.000276921 -0.00105835 7.59922e-15)
(0.000623396 0.00191819 -1.28761e-14)
(0.000255223 -0.000356601 -2.99211e-14)
(0.00110653 0.000241015 -1.06438e-16)
(5.30895e-05 -0.00012401 -4.04106e-15)
(4.19854e-05 -0.00014204 4.77979e-15)
(3.18943e-05 -0.000150896 5.65089e-17)
(1.87415e-05 -0.000154143 -4.17632e-15)
(7.29076e-06 -0.000158565 -2.88317e-14)
(-5.91475e-06 -0.000167768 3.46357e-14)
(-2.25739e-05 -0.000171011 1.2634e-14)
(-3.8818e-05 -0.000163251 -7.01525e-14)
(-5.0811e-05 -0.000147276 -5.8231e-14)
(-5.64909e-05 -0.00012525 -1.21381e-13)
(-5.46975e-05 -0.000101798 1.74614e-14)
(-4.75317e-05 -8.24748e-05 -1.32355e-13)
(-3.60133e-05 -6.73425e-05 8.04609e-15)
(-2.06426e-05 -5.64881e-05 3.54352e-13)
(-1.43285e-06 -4.92381e-05 -2.34207e-13)
(1.54031e-05 -3.9039e-05 -1.67665e-13)
(3.47484e-05 -3.42268e-05 1.0158e-13)
(6.89729e-05 -3.85608e-05 -1.31966e-13)
(0.000176898 -2.21061e-05 8.48919e-14)
(0.000200404 -9.6511e-05 -1.4397e-13)
(0.00045302 -3.06042e-07 -1.61817e-13)
(0.000331997 -0.000289746 1.83268e-13)
(-0.000159524 -0.000949692 -4.05354e-14)
(0.0011129 -0.000960665 8.96879e-14)
(0.00431349 0.00120729 5.67714e-14)
(0.0484672 -0.00240198 6.36684e-15)
(0.0296237 -0.00156993 1.08817e-13)
(0.0317174 -0.00643419 -2.11475e-14)
(-0.0131163 -0.00698103 2.25054e-14)
(-0.0119137 0.000426532 -5.57912e-14)
(0.010693 0.00458399 -1.55439e-13)
(0.000806129 -0.000890465 1.29093e-15)
(0.0035833 0.000859944 1.40173e-13)
(-0.00437344 0.000914938 -3.31377e-14)
(-0.00434744 0.000787694 -1.04862e-13)
(-0.0028375 0.000506894 1.18032e-13)
(-0.00117587 0.000361347 -3.96452e-14)
(-0.00420893 -0.000559957 -1.66194e-14)
(-0.0207266 0.00963558 -5.31737e-16)
(6.062e-05 -0.000111025 2.02826e-14)
(7.29986e-05 -9.9236e-05 1.43635e-14)
(7.87119e-05 -8.17778e-05 -3.19923e-14)
(8.20977e-05 -6.06096e-05 7.88748e-14)
(8.02651e-05 -3.80533e-05 1.86885e-13)
(7.37213e-05 -1.81558e-05 -6.87532e-14)
(6.06583e-05 -2.6552e-06 -7.24484e-14)
(4.47069e-05 -1.1402e-06 1.5044e-13)
(3.63288e-05 -1.01169e-05 1.26935e-13)
(3.32635e-05 -1.89311e-05 3.56481e-14)
(3.59361e-05 -2.7153e-05 -5.19379e-14)
(4.04215e-05 -3.2316e-05 5.9181e-14)
(4.44592e-05 -3.43881e-05 4.54279e-14)
(4.65746e-05 -3.35052e-05 -3.9819e-15)
(4.62842e-05 -3.04869e-05 -9.37211e-14)
(4.41628e-05 -2.62447e-05 3.96395e-15)
(4.10664e-05 -2.19331e-05 3.73007e-15)
(3.71309e-05 -1.78604e-05 2.06857e-16)
(3.25692e-05 -1.44552e-05 1.51383e-14)
(2.75233e-05 -1.15354e-05 -5.43059e-15)
(2.2339e-05 -9.78253e-06 1.23011e-14)
(1.73239e-05 -8.87849e-06 -2.67244e-14)
(1.32773e-05 -9.94217e-06 -1.53651e-14)
(1.20489e-05 -1.1999e-05 1.55018e-14)
(1.42422e-05 -1.31989e-05 2.09531e-14)
(1.85149e-05 -1.26211e-05 1.25527e-15)
(2.41973e-05 -1.09106e-05 -1.23696e-15)
(3.07008e-05 -8.44466e-06 -3.25999e-15)
(3.13541e-05 -3.94439e-06 6.5429e-16)
(2.69705e-05 -5.38295e-06 -1.04591e-16)
(3.12448e-05 -6.12071e-06 -5.30584e-16)
(3.98531e-05 7.55503e-06 -2.81006e-17)
(4.90594e-05 7.5221e-05 7.79824e-17)
(8.74179e-05 0.000308647 -6.95801e-17)
(2.01576e-05 -0.000464857 -9.2908e-16)
(0.000302809 0.00125219 -6.92494e-16)
(0.000152517 -0.00253877 1.03027e-14)
(0.000176363 0.000503842 -1.08707e-14)
(0.00107817 0.000133135 5.48108e-15)
(4.03594e-05 -0.000111727 1.93828e-15)
(3.2922e-05 -0.00012334 5.06787e-16)
(2.4656e-05 -0.000134141 3.1625e-15)
(1.44723e-05 -0.000143654 -2.45879e-15)
(4.26344e-06 -0.000147163 -1.08436e-15)
(-8.79339e-06 -0.000154323 1.63382e-14)
(-2.41586e-05 -0.00015545 7.60516e-15)
(-3.75544e-05 -0.000146348 4.04774e-14)
(-4.74555e-05 -0.000133602 6.79655e-14)
(-5.14544e-05 -0.000115457 -3.20433e-14)
(-4.94323e-05 -9.6781e-05 -7.79475e-15)
(-4.29535e-05 -8.18111e-05 7.50088e-14)
(-3.26302e-05 -7.02332e-05 -1.45507e-13)
(-1.86737e-05 -6.1657e-05 -2.89385e-13)
(-2.13406e-06 -5.55216e-05 1.75229e-13)
(1.72338e-05 -5.15094e-05 2.68355e-13)
(4.86814e-05 -6.45636e-05 -3.55849e-13)
(8.38099e-05 -7.37951e-05 6.0668e-14)
(0.000156457 -5.21174e-05 1.11899e-13)
(0.00029044 -0.000135964 -1.12965e-13)
(0.000365659 -0.000460718 8.56214e-14)
(0.000378098 -0.000916389 -8.73353e-14)
(-0.00015934 -0.00197152 -1.69252e-13)
(-0.00152389 -0.00216486 -5.03168e-14)
(-0.00195813 0.000288277 -1.16205e-13)
(-0.000272704 0.00314002 5.63228e-14)
(0.00721417 0.00176374 -1.62123e-14)
(0.00364559 -0.00141699 -1.09019e-14)
(-0.00469753 -0.00287408 2.13873e-14)
(0.0185179 -0.00542839 4.25639e-14)
(-0.0245683 0.00218316 3.28572e-14)
(0.00192156 0.000423257 -4.52636e-14)
(-5.66952e-05 0.00113496 -1.16438e-13)
(0.000120838 0.000548968 -1.48668e-13)
(-0.00222363 0.000265431 3.37777e-14)
(-0.00165549 -0.000323803 7.32822e-14)
(-0.000583557 0.000284161 8.46297e-14)
(-0.00367435 -0.000460136 3.84861e-14)
(-0.0176078 0.0101816 2.85636e-14)
(4.79969e-05 -0.000101783 8.59491e-15)
(5.64757e-05 -9.43154e-05 -2.0693e-14)
(6.22945e-05 -8.00144e-05 1.04909e-14)
(6.59668e-05 -6.18953e-05 -5.83378e-15)
(6.7916e-05 -4.35027e-05 4.6817e-15)
(6.63018e-05 -2.4915e-05 -7.8182e-14)
(5.82186e-05 -1.31626e-05 -2.9426e-14)
(4.78772e-05 -1.14516e-05 -3.50567e-14)
(4.21091e-05 -1.58018e-05 2.74176e-14)
(3.99826e-05 -2.10285e-05 1.35735e-13)
(4.15416e-05 -2.61338e-05 -3.0359e-14)
(4.42951e-05 -2.97859e-05 -5.88494e-14)
(4.64567e-05 -3.13439e-05 2.50168e-15)
(4.7116e-05 -3.0601e-05 -5.12986e-14)
(4.58673e-05 -2.8086e-05 1.70031e-14)
(4.32788e-05 -2.445e-05 2.54112e-14)
(4.00814e-05 -2.07509e-05 3.93182e-14)
(3.62791e-05 -1.72445e-05 1.5049e-14)
(3.1921e-05 -1.41656e-05 -1.77031e-14)
(2.712e-05 -1.15639e-05 2.27256e-14)
(2.22592e-05 -9.8835e-06 2.51827e-14)
(1.75624e-05 -9.24652e-06 1.82594e-14)
(1.38584e-05 -1.02914e-05 3.81566e-15)
(1.25499e-05 -1.23312e-05 -1.44098e-14)
(1.43736e-05 -1.36085e-05 1.18017e-14)
(1.82592e-05 -1.33916e-05 3.28035e-15)
(2.37896e-05 -1.16996e-05 -1.1371e-14)
(3.00951e-05 -9.27851e-06 1.22343e-15)
(3.10688e-05 -4.57117e-06 -1.18451e-16)
(2.72592e-05 -5.1136e-06 2.05603e-16)
(3.13453e-05 -6.65276e-06 6.67294e-16)
(4.06787e-05 -6.14213e-06 -1.60559e-16)
(5.38957e-05 -2.25595e-05 -2.51279e-16)
(8.73318e-05 -8.76243e-05 5.63598e-16)
(-2.0978e-06 0.000207561 1.39486e-15)
(0.000241871 -5.24071e-05 -1.19157e-14)
(-0.000214762 0.000802851 3.44892e-15)
(0.000377715 -0.000268958 4.42061e-14)
(0.00133699 -0.00043985 3.1052e-14)
(2.61912e-05 -0.000100402 3.09102e-15)
(2.22321e-05 -0.000112677 5.82452e-16)
(1.71578e-05 -0.000122022 -1.12639e-15)
(8.22559e-06 -0.000132306 4.16964e-15)
(-1.86647e-06 -0.000136672 -8.69022e-15)
(-1.35086e-05 -0.000140359 -1.09433e-15)
(-2.74139e-05 -0.000138252 2.35996e-14)
(-3.86504e-05 -0.000131233 -1.11468e-14)
(-4.64913e-05 -0.000119959 -3.96143e-14)
(-4.93086e-05 -0.000105189 2.65385e-14)
(-4.72526e-05 -9.05012e-05 -6.07786e-14)
(-4.17045e-05 -7.90876e-05 -1.50861e-13)
(-3.20042e-05 -7.08002e-05 1.06604e-13)
(-1.90001e-05 -6.46929e-05 3.77167e-13)
(-2.73649e-06 -6.15068e-05 -1.38921e-14)
(1.68032e-05 -6.1854e-05 -4.01369e-13)
(3.53932e-05 -6.44175e-05 3.32534e-13)
(6.27118e-05 -7.02502e-05 2.33369e-13)
(0.000118706 -7.46833e-05 1.24569e-13)
(0.000190338 -0.000142983 5.87363e-14)
(0.000242197 -0.000311133 -2.88419e-14)
(0.000254628 -0.000681268 1.61935e-13)
(-0.000313026 -0.00143729 1.11967e-13)
(-0.00166301 -0.0016235 -1.01885e-14)
(-0.00235906 8.94526e-05 2.14259e-13)
(-0.000764403 0.00224001 -6.57048e-14)
(0.00126113 0.00221285 -7.65304e-15)
(0.00262936 -0.000244317 5.67703e-15)
(0.000944544 -0.00209412 -2.01406e-14)
(-0.00368208 -0.0013632 -2.0816e-14)
(-0.00354747 -0.000187049 -1.52574e-14)
(-0.00119217 0.00037223 4.77779e-14)
(0.000925772 0.000759998 -2.27666e-14)
(0.0022503 0.000374429 -1.27989e-13)
(0.00250519 -0.00036321 -2.07578e-14)
(0.022866 -0.00761112 -1.0184e-13)
(-0.00676591 0.00276586 -5.77974e-14)
(-0.00247024 -0.000581735 6.50759e-15)
(-0.0138995 0.00938042 -2.58436e-14)
(3.49382e-05 -9.43825e-05 -9.66503e-15)
(4.21029e-05 -8.90517e-05 1.2194e-14)
(4.92351e-05 -7.73179e-05 -2.61343e-14)
(5.46642e-05 -6.02089e-05 -3.94504e-15)
(5.85739e-05 -4.20511e-05 7.38142e-15)
(5.86908e-05 -2.8383e-05 1.10946e-14)
(5.36869e-05 -1.8988e-05 8.0639e-14)
(4.85079e-05 -1.77983e-05 -1.01462e-13)
(4.4937e-05 -1.9617e-05 -3.28009e-14)
(4.40189e-05 -2.24021e-05 -3.11479e-14)
(4.52936e-05 -2.54321e-05 1.17307e-13)
(4.71594e-05 -2.78168e-05 -4.64459e-14)
(4.82538e-05 -2.86487e-05 -4.56716e-15)
(4.77878e-05 -2.7779e-05 1.85391e-14)
(4.57694e-05 -2.53742e-05 1.77852e-14)
(4.27293e-05 -2.22444e-05 1.20879e-14)
(3.93897e-05 -1.91209e-05 -7.68257e-14)
(3.56028e-05 -1.62096e-05 -2.81418e-14)
(3.13807e-05 -1.35266e-05 3.58171e-14)
(2.67871e-05 -1.1341e-05 1.42872e-15)
(2.22136e-05 -9.83567e-06 3.63862e-14)
(1.78489e-05 -9.53128e-06 -1.03902e-14)
(1.43981e-05 -1.06349e-05 1.50662e-15)
(1.30488e-05 -1.27805e-05 2.42355e-14)
(1.44574e-05 -1.43063e-05 -2.0363e-14)
(1.80156e-05 -1.44995e-05 -6.98987e-15)
(2.32659e-05 -1.31307e-05 6.58224e-15)
(2.94314e-05 -1.04599e-05 2.19797e-15)
(3.06493e-05 -5.6603e-06 -1.15942e-18)
(2.73983e-05 -5.75107e-06 -2.57136e-16)
(3.10305e-05 -6.38628e-06 6.37714e-16)
(3.9111e-05 -1.86869e-06 7.49883e-17)
(4.58749e-05 -2.1192e-07 -1.08078e-15)
(5.427e-05 3.95524e-06 5.42667e-17)
(5.38915e-05 9.54394e-06 -3.16323e-15)
(-1.35776e-06 -0.000175701 7.24258e-15)
(0.000123952 -0.000117852 -1.53646e-15)
(0.000246089 8.84708e-05 -2.47753e-15)
(0.00071263 0.000405173 -4.22939e-14)
(1.89147e-05 -9.28039e-05 1.40113e-15)
(1.58269e-05 -0.000105343 1.51054e-15)
(1.05028e-05 -0.000114516 -9.49558e-16)
(1.50395e-06 -0.000122396 -1.91882e-15)
(-7.41245e-06 -0.000125781 -3.8028e-15)
(-1.89887e-05 -0.000130201 1.65054e-14)
(-3.02562e-05 -0.000127448 1.38751e-14)
(-3.95447e-05 -0.000119377 -5.19116e-14)
(-4.54995e-05 -0.000109575 2.17311e-14)
(-4.73929e-05 -9.75815e-05 1.11285e-13)
(-4.57548e-05 -8.5353e-05 4.63177e-14)
(-4.08867e-05 -7.7238e-05 2.13134e-14)
(-3.24492e-05 -7.13084e-05 -1.87882e-13)
(-2.04772e-05 -6.72623e-05 -4.29856e-13)
(-5.34471e-06 -6.55733e-05 -3.04037e-13)
(1.19553e-05 -6.66198e-05 1.20067e-13)
(3.00344e-05 -7.24562e-05 -7.38523e-14)
(5.76086e-05 -8.90586e-05 -3.77115e-13)
(0.00010443 -0.000114025 -1.94585e-13)
(0.000158354 -0.000198292 1.60889e-13)
(0.000190324 -0.000352642 1.6097e-13)
(0.000149968 -0.000634036 -9.33449e-14)
(-0.000282504 -0.00112686 -3.83133e-14)
(-0.00125106 -0.00114201 2.39758e-15)
(-0.0017231 0.000220579 -6.09653e-14)
(-0.0005609 0.00190509 6.32925e-14)
(0.00153738 0.0018156 7.21968e-15)
(0.00264795 -3.59822e-05 4.32049e-15)
(0.001592 -0.00153356 -4.41671e-15)
(-2.28949e-05 -0.00156673 5.21817e-14)
(-0.00175099 -0.000605607 3.49645e-14)
(-0.00144531 0.000247615 -3.44865e-15)
(-0.000300466 0.000675776 1.13116e-13)
(0.000989321 0.00068667 7.80729e-14)
(0.00062212 0.00225735 -4.04541e-14)
(-0.0143568 0.00214246 6.9418e-14)
(-0.00372407 -0.00112563 5.85357e-14)
(-0.00327814 0.00256184 -3.5051e-14)
(-0.0103935 0.00731179 -2.773e-14)
(2.57618e-05 -8.66249e-05 7.39128e-15)
(3.39582e-05 -8.31605e-05 -1.20441e-14)
(4.19289e-05 -7.04448e-05 3.26935e-15)
(4.91656e-05 -5.51523e-05 6.10928e-14)
(5.20031e-05 -4.33074e-05 3.14461e-15)
(5.19901e-05 -3.0096e-05 1.01651e-13)
(4.92664e-05 -2.26862e-05 1.36656e-13)
(4.68822e-05 -2.2005e-05 -5.29997e-14)
(4.58821e-05 -2.20175e-05 -7.25299e-14)
(4.60723e-05 -2.32138e-05 -5.54113e-14)
(4.7607e-05 -2.49485e-05 -1.02164e-13)
(4.91751e-05 -2.6241e-05 -5.52872e-15)
(4.96217e-05 -2.63662e-05 -4.305e-14)
(4.84598e-05 -2.51097e-05 5.78123e-14)
(4.58162e-05 -2.27566e-05 1.93966e-14)
(4.24217e-05 -1.99835e-05 -3.07512e-14)
(3.89325e-05 -1.74275e-05 -3.26307e-15)
(3.51169e-05 -1.50159e-05 -2.54406e-14)
(3.09491e-05 -1.27776e-05 2.79092e-15)
(2.65317e-05 -1.08965e-05 -1.77681e-14)
(2.2196e-05 -9.70828e-06 -3.338e-14)
(1.81856e-05 -9.56453e-06 1.47958e-14)
(1.49759e-05 -1.07426e-05 -2.76257e-14)
(1.36285e-05 -1.27939e-05 -1.00665e-14)
(1.46628e-05 -1.45334e-05 6.28575e-15)
(1.78605e-05 -1.50031e-05 3.97122e-15)
(2.2755e-05 -1.40632e-05 1.56324e-15)
(2.86892e-05 -1.13438e-05 -1.03508e-15)
(3.01392e-05 -6.67707e-06 -4.35141e-16)
(2.74513e-05 -6.00824e-06 -7.72652e-17)
(3.07793e-05 -6.58782e-06 -1.03048e-15)
(3.86677e-05 -2.73095e-06 5.53526e-16)
(4.60278e-05 -1.43687e-06 3.06423e-15)
(5.55206e-05 -1.21214e-06 5.12424e-17)
(6.76732e-05 -4.48992e-06 2.49803e-15)
(9.3754e-05 -1.29424e-05 -3.42321e-15)
(0.000137026 2.43191e-05 -6.46792e-15)
(0.000227516 9.03719e-05 3.78679e-15)
(0.000318793 0.000601872 -2.25902e-14)
(1.58939e-05 -8.48838e-05 2.41731e-15)
(1.04587e-05 -9.49312e-05 4.02435e-15)
(6.49655e-06 -0.000107655 -1.76074e-16)
(-3.34087e-06 -0.000112416 2.38119e-19)
(-1.30576e-05 -0.00011118 -2.54025e-15)
(-2.23369e-05 -0.000119054 -6.7342e-15)
(-3.30288e-05 -0.000116564 -4.93856e-15)
(-4.13089e-05 -0.000111917 -5.23682e-14)
(-4.57925e-05 -0.000103231 -1.00714e-15)
(-4.63956e-05 -9.13478e-05 1.92803e-14)
(-4.50432e-05 -8.08769e-05 -2.32914e-14)
(-4.2015e-05 -7.43046e-05 1.41246e-13)
(-3.42691e-05 -7.04619e-05 1.49071e-13)
(-2.34494e-05 -6.78799e-05 2.6949e-14)
(-9.56719e-06 -6.73704e-05 2.76872e-13)
(6.64811e-06 -7.00659e-05 -5.76107e-14)
(2.35352e-05 -7.79484e-05 -7.29815e-16)
(4.22372e-05 -9.06552e-05 2.14469e-13)
(7.50615e-05 -0.000118932 9.99261e-14)
(0.000107016 -0.000190399 -2.94233e-14)
(0.00011122 -0.000318213 -1.21911e-13)
(4.30423e-05 -0.000525771 -1.15865e-14)
(-0.000294885 -0.000838923 -9.36598e-14)
(-0.000986366 -0.000784386 -8.10379e-14)
(-0.00129753 0.00025283 4.88751e-14)
(-0.000396626 0.00152635 -3.10927e-14)
(0.0011394 0.00148722 -5.64889e-14)
(0.00171886 8.3963e-05 6.45159e-15)
(0.000858727 -0.00110727 -3.11512e-15)
(-0.000480672 -0.00112004 -3.83249e-15)
(-0.00130532 -0.00042365 8.20619e-14)
(-0.00138498 0.000287341 -2.93318e-14)
(-0.00082949 0.000657644 -3.90426e-14)
(3.98068e-05 0.000636485 2.27062e-13)
(-0.000380355 0.000641868 3.7074e-14)
(-0.00941812 0.00551969 -8.23521e-14)
(0.00452495 -0.0018667 -1.57867e-14)
(-0.012083 0.00584933 2.61655e-14)
(-0.00488414 0.00176129 -4.9996e-15)
(2.24314e-05 -7.99943e-05 -1.31444e-14)
(2.96188e-05 -7.5118e-05 -3.10177e-14)
(3.82243e-05 -6.49491e-05 5.06889e-14)
(4.05667e-05 -5.39478e-05 9.71644e-14)
(4.55857e-05 -4.13497e-05 6.43189e-14)
(4.68615e-05 -3.15525e-05 -1.65789e-13)
(4.59917e-05 -2.70117e-05 -1.14058e-13)
(4.46517e-05 -2.44222e-05 -3.87775e-14)
(4.51185e-05 -2.29478e-05 7.08572e-14)
(4.68811e-05 -2.34459e-05 7.32029e-14)
(4.87899e-05 -2.43959e-05 2.72944e-14)
(5.04139e-05 -2.49348e-05 2.50398e-14)
(5.05369e-05 -2.4375e-05 -2.67405e-14)
(4.89729e-05 -2.26284e-05 -8.73373e-14)
(4.59451e-05 -2.02058e-05 1.34148e-14)
(4.23411e-05 -1.77471e-05 2.7094e-14)
(3.86952e-05 -1.56402e-05 1.84378e-14)
(3.48212e-05 -1.36528e-05 5.10859e-14)
(3.06631e-05 -1.18419e-05 -2.84807e-14)
(2.63821e-05 -1.02308e-05 -2.12613e-14)
(2.22814e-05 -9.35258e-06 -1.53181e-14)
(1.85578e-05 -9.37044e-06 -3.15587e-15)
(1.5594e-05 -1.05785e-05 2.46382e-14)
(1.42048e-05 -1.25625e-05 1.6455e-14)
(1.49636e-05 -1.44336e-05 1.90875e-14)
(1.775e-05 -1.52806e-05 6.47006e-15)
(2.23197e-05 -1.47288e-05 2.82467e-17)
(2.78933e-05 -1.232e-05 2.21314e-15)
(2.958e-05 -7.53608e-06 -3.08461e-16)
(2.73864e-05 -6.43963e-06 3.0212e-16)
(3.05343e-05 -6.57631e-06 -3.7982e-16)
(3.81766e-05 -2.78883e-06 3.1849e-17)
(4.56738e-05 -7.58064e-07 -1.76e-15)
(5.43162e-05 1.6801e-06 4.2401e-16)
(6.51816e-05 3.91045e-06 4.63044e-15)
(8.6482e-05 -2.39315e-06 -1.09979e-15)
(0.000135689 4.61584e-06 8.89104e-16)
(0.000245556 5.01564e-05 -8.14319e-15)
(0.000667441 0.000191848 7.93267e-15)
(1.3625e-05 -7.80773e-05 -2.94633e-15)
(8.5678e-06 -8.65447e-05 1.78893e-16)
(3.95048e-06 -9.78254e-05 -1.65406e-15)
(-4.4981e-06 -0.000105981 -1.5231e-15)
(-1.50913e-05 -0.000103745 9.00198e-15)
(-2.54285e-05 -0.000100724 -2.93907e-15)
(-3.39043e-05 -0.00010456 2.92743e-14)
(-4.18508e-05 -0.00010287 2.04787e-14)
(-4.56916e-05 -9.65683e-05 5.16009e-15)
(-4.73731e-05 -8.77622e-05 -1.70687e-15)
(-4.60055e-05 -7.70768e-05 7.12003e-15)
(-4.32383e-05 -7.17785e-05 -3.14154e-14)
(-3.76995e-05 -6.90851e-05 -1.37085e-13)
(-2.74782e-05 -6.71341e-05 3.64127e-14)
(-1.49399e-05 -6.76047e-05 1.88141e-14)
(-1.42051e-07 -7.11071e-05 5.2527e-14)
(1.45788e-05 -7.8942e-05 -4.53486e-16)
(3.00389e-05 -9.46791e-05 -9.40642e-14)
(5.33344e-05 -0.00012844 -1.38998e-13)
(7.2207e-05 -0.000194013 -1.19687e-13)
(5.97656e-05 -0.000299766 -6.9697e-14)
(-1.97426e-05 -0.000453303 -5.64247e-14)
(-0.000292941 -0.000644251 1.91328e-14)
(-0.000794079 -0.000537371 6.72242e-14)
(-0.00100269 0.000274037 -3.61852e-14)
(-0.000309838 0.00124483 -1.37658e-14)
(0.000863833 0.00122048 4.44587e-14)
(0.00130528 0.000112998 2.10504e-15)
(0.000599699 -0.000861793 2.45309e-14)
(-0.00044722 -0.000900345 -3.05755e-14)
(-0.00104167 -0.000315836 -1.01146e-13)
(-0.00105544 0.000299382 -5.51578e-14)
(-0.000698567 0.000624009 3.49524e-14)
(-9.55012e-05 0.000605168 -1.50208e-14)
(0.00035576 0.000353959 2.03724e-14)
(0.000945737 -0.000773862 3.04292e-14)
(-0.000442451 -0.00121525 5.39703e-15)
(0.00539872 -0.00576605 -1.69097e-14)
(0.00515767 0.00385992 4.25592e-14)
(1.8925e-05 -7.31095e-05 -2.40514e-14)
(2.5995e-05 -6.91498e-05 1.5062e-14)
(3.21405e-05 -6.19874e-05 4.42746e-14)
(3.62026e-05 -5.09963e-05 1.44969e-14)
(3.88731e-05 -3.964e-05 1.02133e-13)
(4.21094e-05 -3.21865e-05 1.87091e-14)
(4.24883e-05 -2.87248e-05 -2.79247e-15)