/*--------------------------------*- C++ -*----------------------------------*\
| =========                 |                                                 |
| \\      /  F ield         | OpenFOAM: The Open Source CFD Toolbox           |
|  \\    /   O peration     | Version:  2306                                  |
|   \\  /    A nd           | Website:  www.openfoam.com                      |
|    \\/     M anipulation  |                                                 |
\*---------------------------------------------------------------------------*/
FoamFile
{
    version     2.0;
    format      ascii;
    arch        "LSB;label=32;scalar=64";
    class       volVectorField;
    location    "25";
    object      momentError;
}
// * * * * * * * * * * * * * * * * * * * * * * * * * * * * * * * * * * * * * //

dimensions      [0 1 -2 0 0 0 0];

internalField   nonuniform List<vector> 
1340
(
(-0.0144895 0.105534 -3.90305e-16)
(0.0201164 0.0369149 -9.30613e-17)
(-0.00879836 0.102459 -4.01361e-16)
(0.00322578 0.0777097 1.86572e-15)
(0.0114282 0.0333435 -5.0203e-17)
(-0.00777383 0.0885351 6.36672e-16)
(-0.0133023 0.0698368 -5.30319e-16)
(-0.00844475 0.0754154 1.91953e-15)
(0.00180545 0.026581 1.78893e-16)
(-0.0101078 0.0754355 -9.64221e-16)
(-0.0175185 0.0648156 -1.51761e-15)
(-0.0213348 0.0758002 -1.10004e-15)
(-0.0209041 0.0665919 -7.31306e-16)
(-0.0176907 0.0716434 -6.82808e-16)
(-0.00650797 0.0215733 -1.62064e-16)
(-0.0124267 0.0640302 -5.36093e-16)
(-0.00983761 0.0468298 -5.65822e-16)
(-0.014009 0.0542945 4.89587e-17)
(-0.0187629 0.0572896 -3.68512e-15)
(-0.0239316 0.0699118 -1.68997e-15)
(-0.0257394 0.0624181 8.00576e-16)
(-0.024283 0.0688675 -7.42317e-16)
(-0.0129799 0.0182684 -4.24362e-16)
(-0.0142233 0.0556742 1.3512e-15)
(0.000783829 0.0257927 -3.02541e-15)
(-0.00318872 0.0295612 -3.89749e-15)
(-0.00706858 0.034765 -2.33614e-15)
(-0.0107409 0.0394096 -5.50227e-18)
(-0.0149437 0.0472684 -1.30061e-16)
(-0.0198041 0.0504942 1.4875e-15)
(-0.0253612 0.0639066 5.53624e-16)
(-0.0288909 0.0588998 -1.43534e-16)
(-0.0284624 0.066537 3.66135e-16)
(-0.0176606 0.0168922 2.48276e-17)
(-0.0156479 0.050436 -3.25135e-16)
(0.0105103 0.0174199 -7.63077e-16)
(0.00461477 0.0178727 1.04809e-15)
(0.000301422 0.0186597 3.05955e-16)
(-0.0035225 0.0209622 -4.20266e-16)
(-0.00707012 0.0243966 -1.36829e-15)
(-0.0104922 0.0294437 -2.29576e-15)
(-0.0134682 0.0338103 -4.86595e-16)
(-0.0171409 0.0413914 1.17994e-16)
(-0.0216203 0.0451384 1.50815e-15)
(-0.0267455 0.0589462 2.96495e-16)
(-0.030745 0.0555743 -6.72376e-16)
(-0.0307887 0.0647917 6.51894e-16)
(-0.0207958 0.0171345 2.58617e-16)
(-0.016716 0.0478344 4.45819e-16)
(0.0415529 0.0199693 -8.94236e-16)
(0.0292979 0.0169067 2.23465e-16)
(0.0183146 0.0152754 3.60385e-17)
(0.00831882 0.0141028 -7.54569e-17)
(0.000318875 0.0138793 -4.07527e-16)
(-0.0052206 0.0154543 1.90297e-15)
(-0.00877795 0.0163706 2.23745e-16)
(-0.0116393 0.0183553 8.34965e-16)
(-0.0143315 0.0213969 -4.31005e-17)
(-0.016564 0.0259655 1.04295e-15)
(-0.0187446 0.0300881 4.30718e-16)
(-0.0211305 0.0373187 -1.33605e-16)
(-0.0244353 0.0409447 -1.02979e-15)
(-0.028362 0.0546211 -2.54265e-16)
(-0.0320021 0.0526814 3.41707e-16)
(-0.0318649 0.0635519 -3.73954e-16)
(-0.022757 0.0185303 3.32713e-17)
(-0.0173389 0.0472039 1.30176e-16)
(0.09668 0.0539215 -8.3856e-16)
(0.0786952 0.0416267 -1.51564e-16)
(0.0625431 0.0309231 1.69393e-16)
(0.0474735 0.0229046 1.47294e-15)
(0.0337539 0.0169094 -1.03826e-16)
(0.0212644 0.0133369 -7.06482e-16)
(0.0100507 0.0119367 1.36194e-15)
(1.17451e-05 0.0113849 4.30908e-16)
(-0.00874096 0.0114601 8.04069e-17)
(-0.0151954 0.0124175 2.41236e-16)
(-0.0197636 0.0149044 -5.19649e-16)
(-0.0220646 0.0161654 -7.44182e-17)
(-0.0237535 0.0180176 -1.49521e-15)
(-0.0249901 0.0206005 -1.79625e-16)
(-0.0257883 0.0246418 2.38445e-16)
(-0.0263303 0.0282255 -3.89843e-16)
(-0.0269157 0.0347619 5.2454e-17)
(-0.0285172 0.0379653 -3.3212e-16)
(-0.030637 0.0512006 -1.14854e-16)
(-0.0332157 0.0503435 -2.48862e-18)
(-0.0323449 0.062729 -5.14524e-16)
(-0.0239263 0.0207016 -6.80439e-17)
(-0.0174985 0.0478681 -7.42022e-16)
(0.255506 0.107754 3.11977e-16)
(0.219608 0.0948623 -4.23831e-17)
(0.186188 0.0832516 -4.57546e-18)
(0.155282 0.0724987 -3.61962e-17)
(0.12705 0.0629058 -6.56409e-16)
(0.101204 0.0526649 1.73343e-17)
(0.0780662 0.043726 4.95967e-17)
(0.0582446 0.0350945 -7.99842e-16)
(0.0400584 0.0262458 -2.14221e-16)
(0.0247623 0.0201722 -2.23539e-16)
(0.0111045 0.0149802 -2.27094e-16)
(-0.000407177 0.0116914 -1.91789e-17)
(-0.0102433 0.00991713 9.39628e-16)
(-0.0187269 0.00962641 3.39468e-16)
(-0.0262953 0.0102648 -1.8205e-16)
(-0.0321227 0.0114253 2.14872e-16)
(-0.0363084 0.013432 2.74731e-17)
(-0.0389009 0.0168511 -1.30764e-16)
(-0.0394857 0.0182673 -3.77373e-17)
(-0.0394218 0.0199165 8.31299e-16)
(-0.038716 0.0219936 9.14588e-16)
(-0.0375627 0.0253708 2.4532e-17)
(-0.0360947 0.0282095 3.76506e-16)
(-0.0345095 0.0338856 -5.85298e-17)
(-0.0339103 0.0363986 7.26569e-16)
(-0.0337914 0.0487677 4.12022e-16)
(-0.0348586 0.0486743 8.934e-17)
(-0.0327755 0.0623322 1.24007e-16)
(-0.0247203 0.0233719 6.2456e-16)
(-0.017277 0.0492896 2.36461e-16)
(0.624791 -0.0185002 -1.35176e-16)
(0.597349 -0.016716 8.01936e-17)
(0.565139 -0.0108562 -1.5121e-18)
(0.528501 -0.00328156 -3.85216e-16)
(0.488603 0.00512561 -1.92353e-16)
(0.446238 0.0127479 9.02581e-17)
(0.402931 0.020481 -1.0716e-16)
(0.3593 0.0263827 -1.0915e-16)
(0.316754 0.0313271 -2.98796e-17)
(0.275403 0.0343575 3.14679e-16)
(0.236386 0.0353713 -3.79687e-19)
(0.199255 0.0360806 -1.70962e-16)
(0.165214 0.0365245 3.88972e-17)
(0.132936 0.0338886 -2.18861e-16)
(0.104001 0.0315787 1.55659e-16)
(0.076384 0.0303106 -2.197e-16)
(0.0523763 0.0280651 4.60243e-17)
(0.0294991 0.0258111 2.54956e-16)
(0.0111758 0.0234309 8.48137e-18)
(-0.00638246 0.0203456 4.21471e-16)
(-0.0193752 0.0171106 -7.15178e-18)
(-0.0308699 0.0145073 3.08728e-17)
(-0.0397609 0.012437 2.25315e-16)
(-0.0467463 0.0114902 4.50021e-17)
(-0.0521799 0.0112747 -2.17839e-16)
(-0.0563086 0.011917 -5.27363e-16)
(-0.0594931 0.0131621 5.88596e-17)
(-0.0612549 0.0149942 -3.17249e-16)
(-0.0618723 0.0175683 -1.1263e-16)
(-0.0618941 0.0215036 -3.13254e-17)
(-0.060175 0.022915 1.67932e-17)
(-0.057895 0.0242409 6.27699e-16)
(-0.054859 0.0257292 -2.43207e-16)
(-0.0514399 0.0282665 3.94598e-16)
(-0.047652 0.0302535 -5.06491e-16)
(-0.0436102 0.0348022 1.65342e-16)
(-0.0405675 0.036325 -5.08361e-16)
(-0.0379729 0.0475175 7.20838e-16)
(-0.0371512 0.0478069 6.74812e-16)
(-0.0335817 0.0624109 -4.8176e-18)
(-0.0255092 0.0264557 -2.96308e-17)
(-0.0168641 0.0511481 4.15099e-17)
(2.55388 1.28656 1.41517e-18)
(2.38658 2.09412 3.79516e-17)
(2.07741 2.47404 6.81148e-17)
(1.96919 2.43115 3.41704e-17)
(1.71462 2.15699 9.19091e-18)
(1.42469 1.77017 -7.33737e-18)
(1.21287 1.37602 -5.39658e-17)
(1.03757 1.01769 5.2168e-18)
(0.903012 0.695007 4.24461e-17)
(1.01806 0.42114 8.85923e-19)
(1.52526 0.240161 -2.39243e-18)
(2.2746 0.166923 -3.35996e-17)
(2.91476 0.165333 1.57462e-17)
(3.11343 0.173295 1.11789e-16)
(2.75948 0.140083 2.34239e-17)
(2.04275 0.0580923 -1.63728e-16)
(1.31275 -0.0487108 -8.00088e-17)
(0.737219 -0.150835 7.65203e-17)
(0.263791 -0.234744 3.0393e-17)
(-0.0928689 -0.285346 -5.83234e-17)
(-0.236592 -0.269669 4.10842e-17)
(-0.188342 -0.17761 -1.71193e-16)
(-0.0562351 -0.0214105 5.42789e-17)
(0.0466304 0.153847 -3.41671e-18)
(0.0754907 0.304334 -1.57425e-16)
(0.0217612 0.399329 -8.63349e-17)
(-0.0767326 0.430616 -1.2253e-17)
(-0.179235 0.415659 -3.50289e-16)
(-0.241947 0.376345 -1.40279e-16)
(-0.25531 0.336764 -8.82242e-17)
(-0.222605 0.303105 1.96799e-16)
(-0.170015 0.278745 3.89646e-16)
(-0.112593 0.253631 6.63143e-17)
(-0.0662435 0.22642 1.71276e-16)
(-0.0290099 0.192743 -3.04004e-16)
(-0.00325166 0.154212 -8.02131e-17)
(0.0187407 0.121627 3.10031e-16)
(0.0342187 0.094354 3.16084e-16)
(0.0481765 0.0629384 -4.65665e-17)
(0.0571127 0.040528 2.35899e-17)
(0.0635164 0.0222074 -1.11971e-16)
(0.0642296 0.00977129 -1.26588e-16)
(0.0625006 0.00142092 5.38013e-17)
(0.0559388 -0.00217166 -5.49038e-17)
(0.0477587 -0.00319553 -7.48512e-17)
(0.0362385 -0.00173986 1.70183e-16)
(0.0242792 0.000381485 2.60046e-16)
(0.0104467 0.00315541 -3.82468e-18)
(-0.00253921 0.00601571 4.79372e-17)
(-0.0168059 0.00889016 1.78092e-16)
(-0.0299725 0.0106547 2.62209e-16)
(-0.0427016 0.0120563 -2.10605e-16)
(-0.0546411 0.0135085 1.34437e-16)
(-0.0661137 0.0153441 7.46834e-17)
(-0.0760216 0.0165742 -1.62077e-16)
(-0.0848295 0.017977 -2.7025e-17)
(-0.0919711 0.0184786 1.54528e-16)
(-0.0969541 0.0187074 5.93404e-17)
(-0.10047 0.018327 7.49579e-17)
(-0.10208 0.0184122 1.04107e-16)
(-0.102427 0.0185709 -4.30498e-17)
(-0.101574 0.0191125 -1.93389e-16)
(-0.0998579 0.0199797 -2.84608e-16)
(-0.0972955 0.0213021 1.92349e-16)
(-0.094055 0.0229999 -1.49127e-16)
(-0.0904151 0.0252372 9.76859e-17)
(-0.0873282 0.029318 -1.96541e-16)
(-0.0829177 0.030379 -1.35725e-16)
(-0.0780364 0.0312386 -3.89663e-16)
(-0.0725128 0.0319455 -3.50109e-16)
(-0.0665897 0.0334657 -6.45966e-16)
(-0.0603541 0.0343734 2.99593e-16)
(-0.0538131 0.0376276 -2.02568e-16)
(-0.0482167 0.0379158 5.4694e-16)
(-0.0430435 0.0475745 2.09141e-16)
(-0.0401617 0.0478763 -1.01749e-17)
(-0.03492 0.0630478 1.14941e-16)
(-0.0265267 0.0299361 -1.98127e-16)
(-0.0164239 0.053297 -6.68053e-17)
(2.15728 1.61745 1.38962e-17)
(1.65129 1.91138 -2.06896e-17)
(1.14637 1.93069 -4.68569e-17)
(1.0008 1.69417 1.46202e-17)
(0.821814 1.27645 4.33947e-17)
(0.547266 0.796966 2.03016e-18)
(0.276799 0.381411 -7.8173e-18)
(0.0630818 0.101211 -1.35043e-17)
(-0.153347 -0.0464601 -7.15362e-18)
(-0.357906 -0.106457 -3.31676e-17)
(-0.338476 -0.0882518 -5.18624e-17)
(0.11181 0.00431242 3.29459e-17)
(0.978885 0.156058 -2.50156e-17)
(1.98335 0.305443 -1.16655e-17)
(2.74836 0.389401 4.97864e-17)
(2.99251 0.358505 -3.98667e-17)
(2.6977 0.215797 1.9651e-17)
(2.04543 0.0120976 4.82844e-17)
(1.19367 -0.191973 -5.94163e-17)
(0.255023 -0.361404 -7.48955e-17)
(-0.554435 -0.472186 -9.78305e-17)
(-1.01499 -0.494849 6.59983e-17)
(-1.09483 -0.423536 5.1629e-17)
(-0.925314 -0.28297 -9.57803e-17)
(-0.658046 -0.112092 4.87868e-17)
(-0.422626 0.0482972 -4.42289e-17)
(-0.285141 0.173251 -5.0402e-18)
(-0.26794 0.252355 -6.03605e-17)
(-0.338395 0.295597 3.00333e-17)
(-0.447436 0.316361 -5.22386e-17)
(-0.541042 0.330356 1.68432e-16)
(-0.595726 0.343487 9.13154e-17)
(-0.606051 0.35807 -8.19726e-17)
(-0.58984 0.36753 -8.80073e-17)
(-0.559998 0.367207 -1.23477e-16)
(-0.531143 0.353616 1.40862e-16)
(-0.503056 0.329811 1.77337e-16)
(-0.481296 0.299834 -2.69805e-17)
(-0.458373 0.264844 -2.62951e-16)
(-0.436385 0.227449 -1.2324e-17)
(-0.412421 0.191478 -2.26811e-16)
(-0.389115 0.159169 -3.67382e-17)
(-0.364896 0.131494 -2.95802e-16)
(-0.342631 0.108613 -1.21802e-16)
(-0.320882 0.090395 -3.55348e-17)
(-0.301884 0.0761537 1.4632e-16)
(-0.283864 0.065457 1.62236e-16)
(-0.268605 0.0572225 -5.12684e-16)
(-0.254227 0.0511414 -2.17081e-16)
(-0.242466 0.0463349 3.66262e-17)
(-0.231325 0.0423694 1.47134e-16)
(-0.222355 0.0389337 -9.19847e-17)
(-0.213739 0.0365663 8.33175e-17)
(-0.207022 0.0352271 1.68065e-17)
(-0.200375 0.0346639 -1.25524e-16)
(-0.194782 0.0346858 -3.32344e-17)
(-0.188804 0.0349132 3.68739e-17)
(-0.182859 0.0349742 1.80387e-17)
(-0.176164 0.0347736 -3.73462e-18)
(-0.168961 0.0346485 1.35863e-16)
(-0.161284 0.0345316 -1.27224e-18)
(-0.153114 0.0344764 1.73504e-16)
(-0.144705 0.034701 3.19227e-16)
(-0.136013 0.035039 -2.00719e-16)
(-0.127619 0.0355094 2.20702e-16)
(-0.11928 0.0367557 -1.43517e-16)
(-0.112985 0.0403572 -1.75569e-16)
(-0.105623 0.0407884 -1.16345e-16)
(-0.0981998 0.040858 7.18581e-17)
(-0.0901223 0.0405562 5.91705e-16)
(-0.0817817 0.0408961 6.64458e-16)
(-0.0731477 0.0405663 -2.76952e-17)
(-0.0642197 0.0423069 -2.19368e-16)
(-0.0561922 0.0411502 -4.93481e-17)
(-0.0485697 0.0490248 -1.04847e-15)
(-0.0435968 0.0489443 2.71567e-17)
(-0.0366883 0.0642943 -3.6277e-16)
(-0.0277848 0.0338759 -3.44986e-17)
(-0.0160841 0.0557481 9.74745e-17)
(1.08442 0.951189 -1.78826e-17)
(0.427171 1.11296 -2.07434e-17)
(-0.177787 1.12822 1.70027e-17)
(-0.354837 1.00573 6.09503e-18)
(-0.451394 0.71532 -3.22836e-17)
(-0.598412 0.326178 2.74392e-17)
(-0.784438 -0.06022 5.03829e-18)
(-0.946094 -0.350057 -4.24464e-17)
(-1.0965 -0.494228 1.8744e-17)
(-1.29758 -0.505174 -3.66673e-17)
(-1.51518 -0.417147 1.80881e-17)
(-1.55864 -0.257028 -3.02813e-17)
(-1.20666 -0.0352395 -6.72468e-17)
(-0.381181 0.221828 1.13111e-17)
(0.784476 0.473337 1.08558e-17)
(1.9973 0.659827 -1.93324e-17)
(2.93721 0.734952 3.78969e-17)
(3.38104 0.681266 -1.13835e-16)
(3.21912 0.519822 -5.89323e-17)
(2.45191 0.291394 5.55645e-18)
(1.24327 0.037102 -2.173e-17)
(-0.0163606 -0.197705 2.66227e-17)
(-0.955124 -0.368036 -1.18523e-16)
(-1.42341 -0.451937 2.95612e-16)
(-1.47788 -0.455656 3.54554e-17)
(-1.25975 -0.400369 3.08448e-17)
(-0.919633 -0.30789 7.26532e-17)
(-0.594137 -0.200464 1.46631e-16)
(-0.375832 -0.0934448 3.93365e-17)
(-0.298658 0.000383218 7.56396e-17)
(-0.339751 0.0790222 -8.10574e-17)
(-0.441989 0.142383 -2.27893e-16)
(-0.549592 0.196858 1.33689e-17)
(-0.627908 0.243815 -2.41923e-17)
(-0.669617 0.28488 2.45616e-16)
(-0.682928 0.316445 -1.1412e-16)
(-0.681383 0.338161 -7.8193e-17)
(-0.674678 0.348386 -2.84787e-16)
(-0.66741 0.348169 2.3662e-16)
(-0.659174 0.337094 -7.51686e-17)
(-0.648654 0.318956 8.93363e-17)
(-0.634162 0.295873 8.96648e-19)
(-0.615508 0.271203 -9.80251e-17)
(-0.592775 0.245778 1.31274e-16)
(-0.567119 0.221699 2.33719e-17)
(-0.539281 0.198977 -2.12288e-16)
(-0.510489 0.178595 -9.18349e-17)
(-0.48129 0.159843 6.58929e-17)
(-0.452533 0.143289 -6.26463e-17)
(-0.424567 0.128166 -1.07141e-17)
(-0.397882 0.114625 -1.18864e-16)
(-0.372615 0.102249 1.74823e-16)
(-0.349005 0.0917768 -3.78427e-18)
(-0.327253 0.0830423 -1.74709e-17)
(-0.30727 0.0763567 -4.06872e-18)
(-0.288944 0.0712457 1.36392e-17)
(-0.27188 0.0675902 -1.89301e-17)
(-0.25581 0.0646618 2.00846e-17)
(-0.240262 0.0621775 -1.91527e-17)
(-0.225195 0.0600565 -2.97809e-17)
(-0.210392 0.058122 -6.27896e-17)
(-0.195959 0.0564487 1.72771e-16)
(-0.181768 0.0548627 -1.39332e-17)
(-0.168261 0.0533445 -1.23914e-16)
(-0.155266 0.0519203 2.73017e-16)
(-0.143167 0.0514038 1.26789e-17)
(-0.134109 0.0541285 -2.0923e-16)
(-0.124463 0.0536019 1.11648e-16)
(-0.114884 0.0525992 -2.86689e-17)
(-0.104743 0.0511814 3.17429e-16)
(-0.0944841 0.0501982 -6.34653e-19)
(-0.0839828 0.0485157 -2.02285e-17)
(-0.0731863 0.0486391 1.90896e-16)
(-0.0631705 0.0459062 -1.71737e-17)
(-0.0535522 0.0518005 -8.64416e-19)
(-0.0467806 0.0510385 -3.73752e-17)
(-0.0384075 0.0661986 -2.13935e-16)
(-0.029036 0.0383237 2.18005e-16)
(-0.015808 0.058559 -1.8445e-16)
(-0.314636 0.668791 2.41469e-17)
(-0.953076 0.63667 9.62212e-18)
(-1.44391 0.496912 -4.1184e-17)
(-1.57073 0.417962 -3.30574e-17)
(-1.58152 0.24142 5.34159e-17)
(-1.59681 -0.000148253 -3.04959e-17)
(-1.64967 -0.268896 2.2311e-17)
(-1.71523 -0.501549 6.77437e-17)
(-1.76625 -0.645757 -1.52456e-17)
(-1.83237 -0.684957 9.95433e-18)
(-1.95709 -0.63033 -5.5515e-18)
(-2.12596 -0.50896 9.6709e-18)
(-2.21222 -0.336868 4.24425e-17)
(-2.04092 -0.124715 -3.56953e-17)
(-1.47937 0.120633 -1.26572e-16)
(-0.52005 0.37854 -3.41061e-17)
(0.717784 0.617398 -3.87536e-17)
(2.01902 0.800331 5.50325e-18)
(3.10683 0.896283 3.2163e-17)
(3.68356 0.88769 2.55764e-18)
(3.51992 0.76985 8.71744e-17)
(2.63315 0.554746 -1.30313e-16)
(1.3391 0.278755 1.65437e-16)
(0.0704949 -0.00370685 -1.66584e-16)
(-0.876535 -0.245688 -1.30672e-16)
(-1.39206 -0.420282 -4.75213e-17)
(-1.50125 -0.518466 -1.95908e-17)
(-1.30525 -0.542678 -1.7475e-17)
(-0.948025 -0.504293 1.40913e-17)
(-0.57789 -0.422406 -4.02527e-17)
(-0.306343 -0.318136 -2.5379e-17)
(-0.17953 -0.21282 1.07865e-16)
(-0.181699 -0.119047 5.25518e-17)
(-0.259812 -0.0421335 1.19529e-16)
(-0.359158 0.0219042 -2.11873e-16)
(-0.442714 0.0759769 4.41601e-17)
(-0.498639 0.124664 -8.26797e-17)
(-0.530324 0.168596 1.43955e-16)
(-0.548257 0.207747 6.93625e-17)
(-0.560074 0.239282 3.93243e-17)
(-0.570016 0.26239 2.5212e-16)
(-0.577937 0.27657 1.33262e-16)
(-0.582864 0.283209 3.86086e-16)
(-0.582992 0.282896 4.72618e-17)
(-0.577923 0.277568 9.42861e-17)
(-0.567443 0.267993 7.85157e-18)
(-0.552461 0.255773 -3.05934e-16)
(-0.533608 0.241163 1.73176e-16)
(-0.512081 0.225404 3.35692e-16)
(-0.48857 0.20858 -2.57842e-16)
(-0.464 0.191419 -1.05344e-16)
(-0.438865 0.174087 -1.15484e-17)
(-0.413867 0.157773 -7.51477e-17)
(-0.38944 0.142831 -3.71491e-17)
(-0.365996 0.129996 1.50183e-16)
(-0.343583 0.119224 3.53266e-17)
(-0.322216 0.110568 -8.27866e-17)
(-0.301753 0.103456 -1.27515e-16)
(-0.282061 0.0974917 -2.02711e-17)
(-0.262968 0.0922949 -2.36739e-16)
(-0.244461 0.0877471 1.97774e-16)
(-0.226439 0.0834967 9.6249e-17)
(-0.209027 0.0794156 -4.10538e-16)
(-0.192346 0.0754357 2.77503e-16)
(-0.17654 0.0715616 -2.01885e-16)
(-0.161839 0.0687285 2.40618e-17)
(-0.150876 0.0701307 -1.1954e-16)
(-0.139566 0.0684249 1.94936e-16)
(-0.128418 0.0662194 1.49525e-16)
(-0.116803 0.0634505 -1.78889e-16)
(-0.105055 0.0610934 -3.10878e-16)
(-0.0930975 0.0579408 -1.50944e-17)
(-0.0809227 0.0563578 -4.81514e-16)
(-0.0693452 0.0519662 -1.29875e-16)
(-0.0580252 0.0557223 7.98679e-16)
(-0.049624 0.053989 -2.60976e-16)
(-0.0399781 0.0686176 5.18883e-16)
(-0.0301524 0.0431529 -6.97068e-16)
(-0.015589 0.0617135 1.2153e-16)
(-1.76693 -0.142082 -2.22628e-17)
(-2.19807 -0.0474248 3.84884e-18)
(-2.39951 0.0270214 -1.08449e-17)
(-2.40021 0.143545 -1.82916e-17)
(-2.31761 0.194717 -5.49119e-17)
(-2.22466 0.169467 2.5391e-17)
(-2.15549 0.0757516 8.12764e-18)
(-2.11483 -0.0475624 -5.80739e-17)
(-2.08302 -0.157094 1.22921e-17)
(-2.05466 -0.224298 3.198e-18)
(-2.04779 -0.238716 7.22728e-18)
(-2.09798 -0.206435 -3.39987e-18)
(-2.20246 -0.137553 -2.75105e-17)
(-2.29966 -0.0409794 -3.18685e-18)
(-2.27202 0.082295 3.02524e-17)
(-1.99819 0.231936 3.87141e-17)
(-1.39153 0.405509 3.51238e-18)
(-0.434583 0.593086 2.12276e-17)
(0.797339 0.778055 -4.19888e-17)
(2.11252 0.936702 1.92372e-17)
(3.20689 1.03857 4.49138e-17)
(3.76053 1.0519 7.62614e-17)
(3.60368 0.955851 -8.43598e-17)
(2.82464 0.754649 -9.50056e-17)
(1.69976 0.480021 9.82443e-17)
(0.538262 0.179269 3.53534e-17)
(-0.42203 -0.101136 3.51512e-19)
(-1.0392 -0.324822 -7.71473e-18)
(-1.2741 -0.47199 1.51244e-17)
(-1.18195 -0.538281 4.30154e-17)
(-0.888136 -0.534233 1.59636e-18)
(-0.539101 -0.480199 -6.42765e-17)
(-0.252329 -0.399924 -7.91807e-17)
(-0.0860169 -0.313379 -8.02656e-17)
(-0.0394519 -0.232936 1.408e-16)
(-0.0743361 -0.163783 7.6756e-18)
(-0.144515 -0.103986 -4.14202e-17)
(-0.215189 -0.0499266 8.97569e-18)
(-0.270509 0.00207612 -3.002e-17)
(-0.30862 0.0523694 6.64084e-18)
(-0.33479 0.100538 1.72284e-16)
(-0.354755 0.144032 1.64345e-16)
(-0.372245 0.181377 1.56143e-17)
(-0.388207 0.21082 6.53204e-17)
(-0.402195 0.232132 5.7539e-17)
(-0.413035 0.245296 -7.17066e-17)
(-0.420031 0.25146 -1.29194e-16)
(-0.422744 0.251182 2.532e-16)
(-0.421347 0.245788 -8.66423e-17)
(-0.416167 0.236095 4.81503e-17)
(-0.407743 0.223255 -2.12603e-16)
(-0.396612 0.208208 2.70907e-17)
(-0.383404 0.192456 9.59131e-18)
(-0.36858 0.176734 -5.51285e-17)
(-0.352523 0.162213 -1.5471e-16)
(-0.335693 0.149415 9.52025e-17)
(-0.318417 0.138581 -1.40349e-16)
(-0.300909 0.129466 -3.30671e-17)
(-0.283206 0.121531 7.4624e-17)
(-0.265408 0.114622 -2.80048e-16)
(-0.247757 0.108407 7.88478e-17)
(-0.230176 0.102534 2.55096e-17)
(-0.213047 0.0969112 2.31935e-17)
(-0.196312 0.0913139 -2.42694e-16)
(-0.180293 0.0858288 3.79162e-17)
(-0.165284 0.0813715 -1.36151e-16)
(-0.153732 0.0818711 3.79651e-16)
(-0.142291 0.0793115 9.30005e-17)
(-0.131051 0.0762352 3.49295e-17)
(-0.119397 0.0726153 -3.74367e-16)
(-0.107519 0.069316 6.85286e-17)
(-0.0955909 0.0652048 1.38668e-16)
(-0.0832583 0.0624246 5.18219e-16)
(-0.0714068 0.0569297 1.29047e-16)
(-0.0594436 0.0589158 -9.77028e-16)
(-0.0503781 0.0562623 -2.99273e-16)
(-0.0401624 0.0701924 -7.26551e-17)
(-0.0307409 0.0474687 2.84186e-16)
(-0.0154708 0.0651436 2.05698e-16)
(-2.44787 1.00731 -1.62855e-17)
(-2.58973 0.847792 -9.56024e-18)
(-2.43136 0.519087 3.02126e-17)
(-2.33085 0.517184 7.65702e-18)
(-2.19358 0.498209 -1.98912e-17)
(-2.04981 0.478839 -5.67328e-17)
(-1.91819 0.436383 -2.64481e-17)
(-1.80831 0.372098 4.46602e-17)
(-1.71885 0.29977 -3.0539e-17)
(-1.64581 0.233379 -4.03742e-17)
(-1.58397 0.180711 1.27607e-17)
(-1.5412 0.143329 1.22703e-18)
(-1.52863 0.121568 2.3282e-17)
(-1.55257 0.112561 -1.43614e-17)
(-1.59498 0.116078 -1.69591e-19)
(-1.61585 0.13378 6.80359e-17)
(-1.552 0.168815 1.02757e-16)
(-1.33209 0.224944 -2.84607e-17)
(-0.892396 0.304774 9.39886e-18)
(-0.212469 0.407477 3.00667e-17)
(0.650636 0.524843 1.37694e-18)
(1.55237 0.639536 2.12303e-17)
(2.29404 0.725408 2.72157e-17)
(2.70313 0.756824 1.47775e-16)
(2.69907 0.71608 4.86209e-17)
(2.30929 0.601674 1.46102e-17)
(1.64266 0.429466 1.83506e-17)
(0.853718 0.227582 1.00046e-17)
(0.107198 0.0288339 3.54942e-17)
(-0.458056 -0.138147 -5.01242e-18)
(-0.766263 -0.256508 -8.19802e-17)
(-0.820258 -0.322924 -7.65037e-17)
(-0.687531 -0.345103 5.37096e-17)
(-0.464782 -0.33626 -6.31801e-18)
(-0.24131 -0.310135 -4.62334e-17)
(-0.0739836 -0.278028 -1.26767e-18)
(0.0187763 -0.24715 4.19711e-17)
(0.0481923 -0.220271 1.33684e-17)
(0.0382351 -0.196406 -1.06388e-17)
(0.0124887 -0.173534 1.20308e-17)
(-0.0140911 -0.148869 6.77173e-18)
(-0.0351788 -0.121517 -2.7808e-17)
(-0.0508751 -0.0914677 2.72594e-17)
(-0.0636935 -0.0601657 4.39534e-17)
(-0.0761772 -0.0293222 -2.08483e-17)
(-0.0896189 -0.000628348 1.34538e-17)
(-0.104119 0.0249784 4.58612e-17)
(-0.118995 0.0465099 6.39465e-17)
(-0.133354 0.0640543 5.84397e-18)
(-0.146396 0.0774517 -2.06418e-17)
(-0.157546 0.0871637 8.9424e-17)
(-0.166548 0.0934116 1.02922e-16)
(-0.173082 0.0968946 -5.6255e-17)
(-0.177269 0.0981874 5.90012e-17)
(-0.179132 0.0981844 1.16802e-17)
(-0.179002 0.0974636 7.39979e-17)
(-0.176949 0.0964224 -2.35571e-16)
(-0.173419 0.0952107 4.54303e-17)
(-0.168546 0.0937355 6.5539e-17)
(-0.162693 0.0921295 1.02776e-16)
(-0.155986 0.0902367 -3.72453e-16)
(-0.148679 0.0879968 -2.00711e-16)
(-0.140932 0.0853427 -1.60088e-16)
(-0.132853 0.0821547 -2.73726e-16)
(-0.124618 0.0784362 1.22682e-16)
(-0.116532 0.0751848 6.61467e-17)
(-0.111534 0.0771853 1.13681e-16)
(-0.104514 0.0750936 -2.14088e-16)
(-0.097646 0.0726064 -7.1025e-17)
(-0.0904448 0.0698063 5.18236e-17)
(-0.0830723 0.0671684 -1.52349e-16)
(-0.0754554 0.0638134 -7.30498e-17)
(-0.0672669 0.061408 6.46476e-16)
(-0.0590466 0.056556 2.25834e-17)
(-0.0501111 0.0577064 3.6859e-16)
(-0.0433641 0.0554927 5.6862e-16)
(-0.0354127 0.0691287 9.52684e-17)
(-0.0287445 0.0517596 3.43055e-16)
(-0.0147966 0.0686786 3.48679e-17)
(-2.79834 0.694367 -2.95145e-18)
(-2.67609 0.5275 -4.73005e-18)
(-2.27315 0.26718 -5.09886e-18)
(-2.12211 0.300037 -5.28734e-18)
(-1.96084 0.327116 2.80237e-17)
(-1.80156 0.363901 5.42694e-17)
(-1.65255 0.389691 3.67322e-17)
(-1.51807 0.396405 -1.61954e-17)
(-1.40082 0.389039 2.05418e-17)
(-1.3032 0.373009 5.48765e-17)
(-1.22146 0.351265 -2.19789e-17)
(-1.1532 0.324326 7.19329e-18)
(-1.09768 0.293949 2.54536e-17)
(-1.06345 0.260325 2.06089e-17)
(-1.05875 0.224744 2.08982e-18)
(-1.09182 0.189524 2.48875e-18)
(-1.15875 0.157294 -2.75658e-17)
(-1.23996 0.132635 3.45271e-17)
(-1.28944 0.120937 2.40795e-17)
(-1.24054 0.128972 -3.66641e-17)
(-1.02151 0.163078 -1.08673e-17)
(-0.59147 0.226293 -1.57819e-17)
(0.0310418 0.314846 -5.71623e-17)
(0.7614 0.417646 -1.25206e-16)
(1.47178 0.514247 -8.04354e-17)
(2.03381 0.583217 5.57618e-17)
(2.3425 0.604769 -7.74806e-18)
(2.34048 0.567322 8.92114e-18)
(2.02626 0.470607 -9.40427e-17)
(1.4708 0.328189 -1.35243e-16)
(0.802198 0.163474 4.50602e-18)
(0.172456 0.00209118 1.64838e-16)
(-0.294265 -0.136149 -8.07676e-17)
(-0.538417 -0.241177 -4.55241e-17)
(-0.572636 -0.311997 2.83996e-17)
(-0.460183 -0.35309 2.87737e-17)
(-0.281555 -0.372374 -1.69427e-17)
(-0.105022 -0.376949 9.55285e-18)
(0.0284032 -0.373498 4.72283e-18)
(0.10706 -0.365793 -4.62077e-18)
(0.138937 -0.355362 -2.69079e-17)
(0.14111 -0.341229 3.78918e-17)
(0.129145 -0.322104 -1.55467e-17)
(0.113518 -0.29689 -4.52366e-17)
(0.0982278 -0.265636 -1.23632e-17)
(0.0836282 -0.229271 1.77772e-17)
(0.0682317 -0.189762 -5.63706e-17)
(0.0510882 -0.149153 -5.58403e-17)
(0.0319068 -0.109382 -5.1177e-17)
(0.0113682 -0.0721279 1.20988e-16)
(-0.00961736 -0.0379938 2.33839e-16)
(-0.0299154 -0.00817537 6.42507e-17)
(-0.0485897 0.0172809 -1.05037e-16)
(-0.0651301 0.0384514 5.28731e-17)
(-0.0790914 0.0557862 2.98408e-17)
(-0.0905592 0.0696958 -1.36497e-16)
(-0.0994013 0.0808415 2.46507e-16)
(-0.10602 0.089517 3.81405e-16)
(-0.110374 0.0960552 7.38708e-17)
(-0.112965 0.100583 2.1465e-16)
(-0.113732 0.103374 1.63432e-17)
(-0.113124 0.104378 -4.58878e-16)
(-0.11108 0.103762 3.46572e-16)
(-0.107971 0.101524 1.42123e-16)
(-0.103842 0.0976841 -3.49678e-16)
(-0.0993185 0.0939137 -2.30711e-17)
(-0.0958397 0.0949191 -6.92459e-17)
(-0.0912288 0.0926552 -2.44467e-16)
(-0.0864053 0.0896387 -1.22169e-16)
(-0.0811712 0.0861233 -9.04313e-18)
(-0.0754946 0.0824923 1.19635e-16)
(-0.0692972 0.0779197 -7.9485e-17)
(-0.0623594 0.0738172 -5.01439e-16)
(-0.0549672 0.0672861 -1.52007e-16)
(-0.0465938 0.066206 2.23472e-16)
(-0.0400687 0.0627543 -3.59679e-16)
(-0.032449 0.0753048 -3.87127e-16)
(-0.0261676 0.0593429 -2.04517e-16)
(-0.0130952 0.0731573 -1.62886e-16)
(-2.48624 0.481699 4.54535e-18)
(-2.2393 0.250957 2.02985e-17)
(-1.77895 0.00140497 -2.47504e-18)
(-1.63386 -0.00608325 -9.19757e-18)
(-1.48579 0.0177778 -1.78276e-17)
(-1.34574 0.0782442 -2.25511e-17)
(-1.21925 0.146664 -2.08589e-17)
(-1.10549 0.204782 -1.57247e-17)
(-1.00442 0.249451 -1.04255e-17)
(-0.917029 0.27814 4.09812e-18)
(-0.842957 0.2914 3.79679e-17)
(-0.781346 0.289199 3.12593e-18)
(-0.72946 0.274414 -2.91045e-18)
(-0.686741 0.249645 -3.41622e-17)
(-0.653665 0.21836 2.9296e-18)
(-0.635283 0.184451 -4.71966e-18)
(-0.638831 0.15064 -5.32551e-17)
(-0.672615 0.119543 -1.69197e-17)
(-0.737797 0.0934118 3.89241e-18)
(-0.820621 0.0743916 2.65629e-17)
(-0.886038 0.0657781 2.45597e-17)
(-0.88547 0.0709436 -1.17564e-17)
(-0.771558 0.0938398 -2.00036e-17)
(-0.518845 0.136698 -1.59781e-17)
(-0.13186 0.198579 6.91168e-17)
(0.354914 0.275294 -1.32206e-17)
(0.883931 0.357558 -7.58742e-17)
(1.38124 0.433115 -1.15764e-17)
(1.76037 0.486879 4.55729e-17)
(1.94135 0.504743 8.64539e-17)
(1.8718 0.477642 1.22803e-16)
(1.5584 0.405819 -6.44728e-17)
(1.07241 0.299451 3.6919e-17)
(0.532023 0.175602 1.24771e-16)
(0.0591847 0.052658 6.03908e-17)
(-0.261541 -0.0547364 -5.80676e-17)
(-0.403789 -0.138512 -2.59429e-17)
(-0.394795 -0.196765 -4.19364e-17)
(-0.291176 -0.232917 -9.57242e-18)
(-0.154196 -0.252624 1.12403e-18)
(-0.0297949 -0.262231 5.72006e-17)
(0.0586994 -0.266498 -2.63283e-17)
(0.108389 -0.2679 -5.62858e-18)
(0.128751 -0.266499 5.94448e-18)
(0.132256 -0.261034 1.68581e-17)
(0.128945 -0.250007 1.64277e-17)
(0.12384 -0.232707 8.89883e-18)
(0.118358 -0.20966 -7.40157e-17)
(0.111727 -0.182401 -1.3183e-17)
(0.103109 -0.152251 -3.65602e-17)
(0.0919794 -0.120845 -2.01424e-16)
(0.0788554 -0.0900961 -7.25903e-17)
(0.0642742 -0.060828 3.58972e-17)
(0.0491554 -0.0338872 -1.86771e-16)
(0.0340637 -0.00968019 -1.17722e-17)
(0.0196008 0.0116379 -1.28028e-16)
(0.00602643 0.0302331 1.70572e-16)
(-0.00640138 0.0460447 -2.26221e-16)
(-0.0175262 0.0592483 -2.87799e-16)
(-0.027273 0.0698528 -1.44472e-16)
(-0.0354937 0.0781103 1.44001e-16)
(-0.0422689 0.0839336 3.43985e-16)
(-0.0474635 0.0875751 3.31959e-16)
(-0.0513016 0.0890135 -1.05736e-16)
(-0.0536889 0.0881688 -1.13919e-16)
(-0.0552434 0.0866936 -4.65887e-17)
(-0.0561542 0.088904 -3.73295e-16)
(-0.0559341 0.0882101 1.80562e-16)
(-0.055091 0.086546 -2.27143e-16)
(-0.0539137 0.0842391 -2.26886e-17)
(-0.0519298 0.0816335 4.72366e-16)
(-0.0494133 0.0779006 3.53929e-16)
(-0.0458507 0.0743761 -3.19374e-16)
(-0.041559 0.068324 3.28667e-16)
(-0.036028 0.0670099 -5.89345e-16)
(-0.0315644 0.0634869 -5.43711e-16)
(-0.0258079 0.075493 8.88522e-17)
(-0.0207528 0.061749 3.74179e-16)
(-0.0104413 0.0753471 -3.65561e-16)
(-1.45394 0.681586 -6.58103e-18)
(-1.45673 0.740289 1.19785e-17)
(-1.13675 0.512563 7.1217e-18)
(-1.02743 0.481901 -6.84156e-18)
(-0.921227 0.452197 -4.43849e-18)
(-0.824113 0.443447 8.05102e-18)
(-0.738092 0.445516 2.00609e-17)
(-0.662463 0.450647 -1.1023e-17)
(-0.596134 0.453721 -7.06761e-18)
(-0.538904 0.450491 -1.21965e-17)
(-0.490119 0.437962 -1.56497e-17)
(-0.449054 0.415356 -1.03982e-17)
(-0.414485 0.382966 3.17738e-17)
(-0.385164 0.342667 -1.14998e-18)
(-0.360152 0.298042 -1.02857e-17)
(-0.340657 0.251952 1.69849e-17)
(-0.330557 0.207942 -1.0501e-17)
(-0.336938 0.168235 -2.10953e-18)
(-0.366205 0.134451 3.06592e-17)
(-0.419108 0.107349 -2.75163e-17)
(-0.484789 0.087486 6.57898e-19)
(-0.540951 0.0758576 2.48399e-17)
(-0.5585 0.0740341 4.08044e-17)
(-0.51035 0.0840492 -3.49294e-17)
(-0.377701 0.108251 -8.00363e-17)
(-0.153092 0.147847 5.75892e-17)
(0.158151 0.203057 2.75389e-17)
(0.534634 0.270896 2.89061e-17)
(0.934153 0.34473 7.68652e-17)
(1.29268 0.413156 -3.54621e-17)
(1.53306 0.461752 -6.05337e-18)
(1.59081 0.477239 5.51391e-17)
(1.43796 0.4522 -5.30384e-17)
(1.10518 0.388672 -1.91104e-17)
(0.673917 0.297704 4.17823e-17)
(0.249309 0.195965 -2.74145e-19)
(-0.0793212 0.0996585 3.88872e-17)
(-0.266476 0.0197818 4.40143e-17)
(-0.315607 -0.039509 4.86644e-17)
(-0.265185 -0.0797559 1.4678e-17)
(-0.166046 -0.105975 -1.83939e-17)
(-0.0620966 -0.123945 3.93015e-17)
(0.0204506 -0.138448 -3.21763e-17)
(0.0738762 -0.151711 -1.38597e-17)
(0.102795 -0.163453 -5.45786e-17)
(0.116587 -0.171946 -2.0739e-17)
(0.123371 -0.175716 2.86361e-17)
(0.127691 -0.17354 5.73731e-17)
(0.130837 -0.165437 -8.24448e-17)
(0.132272 -0.152046 -7.173e-17)
(0.131303 -0.13481 -9.37617e-17)
(0.127368 -0.114861 9.17199e-17)
(0.120783 -0.0935976 -7.41561e-18)
(0.111764 -0.072081 4.49519e-17)
(0.101177 -0.0509051 -7.89103e-18)
(0.0892155 -0.0306049 -2.43705e-16)
(0.0766942 -0.0116079 -4.99411e-16)
(0.0637219 0.00569233 8.51644e-17)
(0.0510161 0.0211591 2.17488e-16)
(0.0386193 0.0346067 1.05231e-16)
(0.0271122 0.0458357 2.89206e-16)
(0.0164997 0.0548358 -3.33645e-16)
(0.00717875 0.0614538 1.73174e-17)
(-0.000863528 0.0654027 9.58523e-17)