/*--------------------------------*- C++ -*----------------------------------*\
| =========                 |                                                 |
| \\      /  F ield         | OpenFOAM: The Open Source CFD Toolbox           |
|  \\    /   O peration     | Version:  2306                                  |
|   \\  /    A nd           | Website:  www.openfoam.com                      |
|    \\/     M anipulation  |                                                 |
\*---------------------------------------------------------------------------*/
FoamFile
{
    version     2.0;
    format      ascii;
    arch        "LSB;label=32;scalar=64";
    class       volScalarField;
    location    "25";
    object      turbulenceProperties:nuEff;
}
// * * * * * * * * * * * * * * * * * * * * * * * * * * * * * * * * * * * * * //

dimensions      [0 2 -1 0 0 0 0];

internalField   nonuniform List<scalar> 
1340
(
1.60831e-05
1.60811e-05
1.60856e-05
1.60883e-05
1.60823e-05
1.60878e-05
1.60891e-05
1.60896e-05
1.60832e-05
1.60894e-05
1.60893e-05
1.60904e-05
1.60895e-05
1.60905e-05
1.60838e-05
1.60905e-05
1.60884e-05
1.60877e-05
1.60886e-05
1.609e-05
1.60897e-05
1.6091e-05
1.60843e-05
1.60914e-05
1.60933e-05
1.60923e-05
1.60909e-05
1.60887e-05
1.60872e-05
1.60878e-05
1.60895e-05
1.60897e-05
1.60912e-05
1.60847e-05
1.60923e-05
1.61045e-05
1.61004e-05
1.60969e-05
1.60945e-05
1.60934e-05
1.60918e-05
1.60891e-05
1.60869e-05
1.6087e-05
1.60889e-05
1.60895e-05
1.60914e-05
1.60851e-05
1.60932e-05
1.61224e-05
1.61177e-05
1.61135e-05
1.611e-05
1.61062e-05
1.6102e-05
1.60982e-05
1.60956e-05
1.60944e-05
1.60928e-05
1.60897e-05
1.60868e-05
1.60863e-05
1.60883e-05
1.60893e-05
1.60914e-05
1.60855e-05
1.60941e-05
1.61616e-05
1.61525e-05
1.61443e-05
1.6137e-05
1.61305e-05
1.61247e-05
1.61197e-05
1.61153e-05
1.61116e-05
1.61078e-05
1.61035e-05
1.60996e-05
1.60968e-05
1.60955e-05
1.60939e-05
1.60905e-05
1.6087e-05
1.60857e-05
1.60876e-05
1.60889e-05
1.60914e-05
1.60858e-05
1.60951e-05
1.62744e-05
1.62547e-05
1.62368e-05
1.62204e-05
1.62054e-05
1.61916e-05
1.61791e-05
1.61679e-05
1.61578e-05
1.61488e-05
1.61407e-05
1.61336e-05
1.61273e-05
1.61219e-05
1.61171e-05
1.61133e-05
1.61094e-05
1.6105e-05
1.61009e-05
1.60979e-05
1.60965e-05
1.6095e-05
1.60915e-05
1.60874e-05
1.60854e-05
1.60867e-05
1.60884e-05
1.60913e-05
1.6086e-05
1.6096e-05
1.66732e-05
1.66393e-05
1.66041e-05
1.65681e-05
1.65323e-05
1.64972e-05
1.64631e-05
1.64303e-05
1.63991e-05
1.63698e-05
1.63425e-05
1.6317e-05
1.62933e-05
1.62714e-05
1.62514e-05
1.62332e-05
1.62165e-05
1.62013e-05
1.61875e-05
1.61751e-05
1.61639e-05
1.6154e-05
1.61451e-05
1.61373e-05
1.61303e-05
1.61244e-05
1.61192e-05
1.61151e-05
1.61111e-05
1.61066e-05
1.61023e-05
1.60991e-05
1.60977e-05
1.60963e-05
1.60927e-05
1.60881e-05
1.60854e-05
1.60859e-05
1.60878e-05
1.6091e-05
1.60861e-05
1.60969e-05
2.21774e-05
1.9554e-05
1.02585e-05
1.00011e-05
1e-05
1e-05
0.000499524
0.00197994
0.0167503
0.0480462
0.0918163
0.139132
0.180224
0.205957
0.208878
0.184991
0.137918
0.082392
0.0378534
0.012825
0.00334273
0.00127862
0.0011665
0.00103922
0.000737013
0.000438386
0.000228049
0.000100812
3.67173e-05
2.00275e-05
1.71634e-05
1.69082e-05
1.69896e-05
1.69856e-05
1.69161e-05
1.68406e-05
1.67811e-05
1.67355e-05
1.66963e-05
1.66583e-05
1.66194e-05
1.65801e-05
1.65412e-05
1.65034e-05
1.6467e-05
1.64322e-05
1.63996e-05
1.63691e-05
1.63408e-05
1.63145e-05
1.62902e-05
1.62679e-05
1.62476e-05
1.62292e-05
1.62124e-05
1.61971e-05
1.61833e-05
1.6171e-05
1.616e-05
1.61502e-05
1.61416e-05
1.61339e-05
1.61273e-05
1.61217e-05
1.61172e-05
1.6113e-05
1.61084e-05
1.61039e-05
1.61005e-05
1.6099e-05
1.60977e-05
1.60942e-05
1.60892e-05
1.60856e-05
1.60854e-05
1.6087e-05
1.60905e-05
1.60861e-05
1.60975e-05
1.98386e-05
2.17834e-05
1.95193e-05
1.02857e-05
1.00013e-05
1e-05
1e-05
0.000233368
0.000900938
0.0112314
0.0345267
0.0692419
0.1096
0.147557
0.174441
0.182005
0.165081
0.125847
0.0769385
0.0357465
0.0119754
0.00252648
0.000350495
0.000397001
0.000521747
0.000449397
0.000298316
0.000166714
7.44341e-05
2.93803e-05
1.82095e-05
1.64004e-05
1.65469e-05
1.68925e-05
1.70286e-05
1.69983e-05
1.69124e-05
1.68309e-05
1.67678e-05
1.67179e-05
1.66738e-05
1.66312e-05
1.65891e-05
1.65476e-05
1.65074e-05
1.64689e-05
1.64326e-05
1.63987e-05
1.63673e-05
1.63381e-05
1.63111e-05
1.62864e-05
1.62639e-05
1.62435e-05
1.62249e-05
1.6208e-05
1.61927e-05
1.61791e-05
1.61669e-05
1.61561e-05
1.61466e-05
1.61381e-05
1.61308e-05
1.61246e-05
1.61196e-05
1.61151e-05
1.61104e-05
1.61058e-05
1.61021e-05
1.61004e-05
1.60992e-05
1.60959e-05
1.60907e-05
1.60863e-05
1.60852e-05
1.6086e-05
1.60898e-05
1.60861e-05
1.6098e-05
1.88671e-05
1.91089e-05
2.13968e-05
1.88249e-05
1.03292e-05
1.00015e-05
1e-05
1e-05
1.27002e-05
7.46174e-05
0.0066552
0.0224783
0.0479941
0.0800256
0.112661
0.138262
0.148938
0.139091
0.109524
0.0697941
0.0342703
0.0121133
0.00242376
0.000664103
2.05829e-05
0.000128258
0.000192319
0.000168102
0.000113773
6.10953e-05
3.01276e-05
1.9286e-05
1.66222e-05
1.63902e-05
1.67059e-05
1.69487e-05
1.70106e-05
1.69626e-05
1.68816e-05
1.68054e-05
1.67425e-05
1.66894e-05
1.66415e-05
1.65962e-05
1.65523e-05
1.651e-05
1.64697e-05
1.64321e-05
1.63971e-05
1.63646e-05
1.63346e-05
1.63071e-05
1.62821e-05
1.62594e-05
1.62388e-05
1.62201e-05
1.62033e-05
1.61882e-05
1.61748e-05
1.61628e-05
1.61522e-05
1.61429e-05
1.61348e-05
1.61279e-05
1.61223e-05
1.61175e-05
1.61126e-05
1.61078e-05
1.61038e-05
1.61018e-05
1.61008e-05
1.60977e-05
1.60924e-05
1.60873e-05
1.60852e-05
1.60852e-05
1.60888e-05
1.60859e-05
1.60982e-05
1.86324e-05
1.8355e-05
1.89907e-05
2.11604e-05
1.83529e-05
1.05897e-05
1.00027e-05
1e-05
1e-05
1.00001e-05
1.00061e-05
0.00350606
0.0130379
0.0301699
0.0535354
0.0792531
0.101414
0.113268
0.109727
0.0904618
0.0617139
0.0336166
0.0137873
0.00364417
0.000165495
5.04392e-05
1.0044e-05
1.15166e-05
4.19118e-05
5.02496e-05
4.43816e-05
3.20808e-05
2.28816e-05
1.83132e-05
1.68296e-05
1.66288e-05
1.67787e-05
1.69106e-05
1.69429e-05
1.69041e-05
1.68372e-05
1.67682e-05
1.6706e-05
1.6651e-05
1.6601e-05
1.65541e-05
1.65098e-05
1.64682e-05
1.64293e-05
1.63933e-05
1.636e-05
1.63295e-05
1.63017e-05
1.62767e-05
1.62539e-05
1.62333e-05
1.62147e-05
1.61981e-05
1.61833e-05
1.61702e-05
1.61585e-05
1.61482e-05
1.61392e-05
1.61316e-05
1.61254e-05
1.61201e-05
1.6115e-05
1.61099e-05
1.61057e-05
1.61034e-05
1.61025e-05
1.60997e-05
1.60943e-05
1.60887e-05
1.60857e-05
1.60847e-05
1.60876e-05
1.60856e-05
1.60982e-05
1.84985e-05
1.85042e-05
1.84283e-05
1.91413e-05
2.07004e-05
1.82119e-05
1.14793e-05
1.00068e-05
1e-05
1e-05
1e-05
0.000375614
0.00141299
0.00664188
0.0171489
0.0327465
0.0512662
0.0686002
0.0796973
0.0804614
0.0700101
0.0517453
0.0318138
0.0157458
0.0058385
0.00133244
0.00041193
1.65303e-05
1.00801e-05
1.00056e-05
1.04968e-05
1.75443e-05
2.46884e-05
2.53097e-05
2.17993e-05
1.88468e-05
1.74488e-05
1.69743e-05
1.68805e-05
1.68848e-05
1.68781e-05
1.68406e-05
1.67834e-05
1.67209e-05
1.66608e-05
1.66056e-05
1.65552e-05
1.65087e-05
1.64658e-05
1.6426e-05
1.63892e-05
1.63553e-05
1.63245e-05
1.62966e-05
1.62714e-05
1.62486e-05
1.6228e-05
1.62096e-05
1.61933e-05
1.61788e-05
1.61659e-05
1.61545e-05
1.61446e-05
1.6136e-05
1.61291e-05
1.61233e-05
1.61178e-05
1.61125e-05
1.61078e-05
1.61053e-05
1.61043e-05
1.61019e-05
1.60966e-05
1.60904e-05
1.60865e-05
1.60845e-05
1.60865e-05
1.60853e-05
1.60979e-05
1.83697e-05
1.8511e-05
1.85378e-05
1.8532e-05
1.88955e-05
1.9507e-05
1.8683e-05
1.43413e-05
1.01937e-05
1.00009e-05
1e-05
1e-05
5.71341e-05
0.000286868
0.00230974
0.00699022
0.0148371
0.0252878
0.0364077
0.0453781
0.0495288
0.0475628
0.0402058
0.0298479
0.0193517
0.0108426
0.00513358
0.00198131
0.000527412
0.000157924
1.02034e-05
1.00039e-05
1.00039e-05
1.03517e-05
1.41205e-05
1.93372e-05
2.03192e-05
1.92075e-05
1.80562e-05
1.73633e-05
1.70402e-05
1.69119e-05
1.68541e-05
1.68067e-05
1.6752e-05
1.66916e-05
1.6631e-05
1.65743e-05
1.65226e-05
1.64758e-05
1.64331e-05
1.6394e-05
1.63583e-05
1.6326e-05
1.62969e-05
1.62706e-05
1.6247e-05
1.62259e-05
1.62072e-05
1.61907e-05
1.6176e-05
1.61631e-05
1.61518e-05
1.6142e-05
1.6134e-05
1.61274e-05
1.61214e-05
1.61157e-05
1.61105e-05
1.61074e-05
1.61063e-05
1.61042e-05
1.60992e-05
1.60925e-05
1.60876e-05
1.60847e-05
1.60855e-05
1.6085e-05
1.60975e-05
1.81336e-05
1.82005e-05
1.82358e-05
1.82038e-05
1.81323e-05
1.8202e-05
1.85757e-05
1.88956e-05
1.73031e-05
1.29726e-05
1.00471e-05
1.00002e-05
1e-05
1.00001e-05
1.30449e-05
3.00374e-05
0.00129182
0.00411235
0.00874167
0.0146853
0.020721
0.02533
0.0272933
0.0261967
0.0225449
0.017461
0.0121771
0.00761256
0.00423522
0.00204892
0.000833748
0.000249592
1.08386e-05
1.00609e-05
1.00017e-05
1.00284e-05
1.18149e-05
1.60035e-05
1.8285e-05
1.84897e-05
1.79569e-05
1.74373e-05
1.71157e-05
1.69508e-05
1.68637e-05
1.68e-05
1.6737e-05
1.66717e-05
1.66076e-05
1.65481e-05
1.64944e-05
1.64463e-05
1.64032e-05
1.63645e-05
1.63299e-05
1.62988e-05
1.6271e-05
1.62463e-05
1.62244e-05
1.62051e-05
1.61882e-05
1.61732e-05
1.61602e-05
1.61489e-05
1.61396e-05
1.61319e-05
1.61253e-05
1.61192e-05
1.61134e-05
1.61096e-05
1.61082e-05
1.61065e-05
1.61018e-05
1.60948e-05
1.6089e-05
1.6085e-05
1.60846e-05
1.60846e-05
1.6097e-05
1.77708e-05
1.77659e-05
1.77477e-05
1.7714e-05
1.7653e-05
1.75732e-05
1.75409e-05
1.7729e-05
1.81153e-05
1.79698e-05
1.59932e-05
1.22849e-05
1.01227e-05
1.00006e-05
1e-05
1e-05
1.00488e-05
0.000206855
0.000718831
0.00241343
0.00513548
0.00844088
0.0116183
0.0139196
0.0148316
0.0142463
0.0124427
0.00992962
0.00725419
0.0048423
0.00293203
0.00159142
0.000754805
0.000294638
6.04078e-05
1.00699e-05
1.00016e-05
1.02516e-05
1.22536e-05
1.54191e-05
1.73839e-05
1.78731e-05
1.76631e-05
1.73301e-05
1.70829e-05
1.69348e-05
1.68429e-05
1.67705e-05
1.67012e-05
1.66324e-05
1.6567e-05
1.65073e-05
1.64542e-05
1.64075e-05
1.63663e-05
1.63298e-05
1.62974e-05
1.62686e-05
1.62433e-05
1.6221e-05
1.62015e-05
1.61844e-05
1.61695e-05
1.61566e-05
1.61459e-05
1.6137e-05
1.61297e-05
1.61232e-05
1.61167e-05
1.61121e-05
1.61102e-05
1.61087e-05
1.61045e-05
1.60974e-05
1.60908e-05
1.60858e-05
1.60842e-05
1.60844e-05
1.60962e-05
1.73474e-05
1.73056e-05
1.72596e-05
1.72091e-05
1.71504e-05
1.70805e-05
1.7026e-05
1.70588e-05
1.72493e-05
1.74647e-05
1.71934e-05
1.58742e-05
1.25343e-05
1.00462e-05
1.00002e-05
1e-05
1e-05
1.00057e-05
0.000131832
0.000497485
0.00153095
0.00306186
0.00481177
0.00641863
0.00754075
0.0079683
0.00767117
0.00678496
0.00554005
0.00418364
0.00291817
0.00187037
0.00109047
0.000569024
0.000258841
8.4006e-05
1.56571e-05
1.10069e-05
1.1641e-05
1.36864e-05
1.59369e-05
1.72425e-05
1.75825e-05
1.74453e-05
1.72059e-05
1.70141e-05
1.68864e-05
1.67967e-05
1.67212e-05
1.66493e-05
1.65803e-05
1.65164e-05
1.64593e-05
1.64094e-05
1.6366e-05
1.63279e-05
1.62945e-05
1.62651e-05
1.62394e-05
1.6217e-05
1.61974e-05
1.61804e-05
1.61657e-05
1.61533e-05
1.61431e-05
1.6135e-05
1.61278e-05
1.61206e-05
1.6115e-05
1.61125e-05
1.6111e-05
1.61073e-05
1.61002e-05
1.6093e-05
1.60869e-05
1.60842e-05
1.60843e-05
1.60952e-05
1.70083e-05
1.69628e-05
1.69166e-05
1.68703e-05
1.68241e-05
1.6776e-05
1.67225e-05
1.66706e-05
1.6648e-05
1.6696e-05
1.68369e-05
1.70001e-05
1.68852e-05
1.53605e-05
1.21477e-05
1.00753e-05
1.00004e-05
1e-05
1e-05
1.00233e-05
1.04352e-05
0.000360775
0.000984408
0.00181748
0.00272157
0.00352506
0.00407411
0.00427849
0.00412935
0.00368984
0.00306621
0.00237355
0.00170953
0.00114051
0.000700102
0.000391978
0.000195915
7.5216e-05
2.24906e-05
1.41641e-05
1.39898e-05
1.53475e-05
1.66835e-05
1.73647e-05
1.7467e-05
1.73034e-05
1.70989e-05
1.69381e-05
1.68247e-05
1.67381e-05
1.6662e-05
1.65904e-05
1.65236e-05
1.64634e-05
1.64107e-05
1.63651e-05
1.63255e-05
1.62911e-05
1.62613e-05
1.62353e-05
1.62128e-05
1.61932e-05
1.61764e-05
1.6162e-05
1.61503e-05
1.61411e-05
1.61332e-05
1.61251e-05
1.61185e-05
1.6115e-05
1.61134e-05
1.61101e-05
1.61033e-05
1.60955e-05
1.60885e-05
1.60846e-05
1.60844e-05
1.60942e-05
1.67494e-05
1.67093e-05
1.66701e-05
1.66316e-05
1.65943e-05
1.65583e-05
1.65226e-05
1.64857e-05
1.64476e-05
1.64154e-05
1.64052e-05
1.64412e-05
1.65718e-05
1.6725e-05
1.6544e-05
1.51153e-05
1.21679e-05
1.02462e-05
1.00012e-05
1e-05
1e-05
1.02346e-05
2.96561e-05
0.000281574
0.000640476
0.00108722
0.00155327
0.00195662
0.00222706
0.00232428
0.00224581
0.00202176
0.00170218
0.00134205
0.000989868
0.000680833
0.000434824
0.000256061
0.000133944
5.50553e-05
2.31896e-05
1.65625e-05
1.59408e-05
1.66107e-05
1.72446e-05
1.74712e-05
1.73863e-05
1.71882e-05
1.70008e-05
1.68601e-05
1.67569e-05
1.66734e-05
1.65984e-05
1.65292e-05
1.64665e-05
1.64113e-05
1.63636e-05
1.63226e-05
1.62874e-05
1.6257e-05
1.62308e-05
1.62082e-05
1.61888e-05
1.61722e-05
1.61585e-05
1.6148e-05
1.61392e-05
1.61303e-05
1.61225e-05
1.61178e-05
1.61158e-05
1.61129e-05
1.61064e-05
1.60982e-05
1.60903e-05
1.60854e-05
1.60847e-05
1.6093e-05
1.65611e-05
1.65275e-05
1.64957e-05
1.64652e-05
1.64361e-05
1.64085e-05
1.63823e-05
1.63573e-05
1.63326e-05
1.63076e-05
1.62827e-05
1.6262e-05
1.62585e-05
1.62981e-05
1.64225e-05
1.65615e-05
1.64307e-05
1.53121e-05
1.30557e-05
1.08901e-05
1.00457e-05
1.00002e-05
1e-05
1.00001e-05
5.13149e-05
0.000217139
0.000423049
0.000663533
0.000905774
0.00111041
0.00124441
0.00128962
0.00124531
0.00112641
0.000957364
0.000765365
0.00057502
0.000405071
0.000266367
0.00016063
8.32551e-05
3.7462e-05
2.14176e-05
1.75728e-05
1.70754e-05
1.7337e-05
1.75246e-05
1.74723e-05
1.72801e-05
1.70701e-05
1.6901e-05
1.67775e-05
1.66834e-05
1.66039e-05
1.65322e-05
1.64673e-05
1.64099e-05
1.63604e-05
1.63181e-05
1.62821e-05
1.62514e-05
1.62252e-05
1.62027e-05
1.61835e-05
1.61677e-05
1.61556e-05
1.61457e-05
1.61358e-05
1.61268e-05
1.61208e-05
1.61181e-05
1.61155e-05
1.61094e-05
1.6101e-05
1.60924e-05
1.60864e-05
1.60851e-05
1.60919e-05
1.64257e-05
1.63987e-05
1.63736e-05
1.63498e-05
1.63275e-05
1.63065e-05
1.62869e-05
1.62686e-05
1.62514e-05
1.62351e-05
1.62191e-05
1.62032e-05
1.61877e-05
1.61748e-05
1.61782e-05
1.6227e-05
1.63434e-05
1.64686e-05
1.63891e-05
1.57019e-05
1.41646e-05
1.1939e-05
1.04444e-05
1.0042e-05
1.00465e-05
1.26735e-05
6.00932e-05
0.000164171
0.000284759
0.000416553
0.000544576
0.000650065
0.000717031
0.000736786
0.000709707
0.000643509
0.000550539
0.000444649
0.000338625
0.000242163
0.000160388
9.44216e-05
4.84639e-05
2.66469e-05
1.96216e-05
1.78163e-05
1.75768e-05
1.76317e-05
1.75735e-05
1.7381e-05
1.71489e-05
1.69484e-05
1.67995e-05
1.66911e-05
1.6606e-05
1.65327e-05
1.64669e-05
1.64084e-05
1.63574e-05
1.6314e-05
1.62772e-05
1.62461e-05
1.62197e-05
1.61973e-05
1.61789e-05
1.61648e-05
1.61535e-05
1.61425e-05
1.61321e-05
1.61245e-05
1.61207e-05
1.61181e-05
1.61124e-05
1.61041e-05
1.60947e-05
1.60878e-05
1.60855e-05
1.60906e-05
1.63285e-05
1.63064e-05
1.62862e-05
1.62675e-05
1.62502e-05
1.62342e-05
1.62195e-05
1.6206e-05
1.61936e-05
1.61822e-05
1.61717e-05
1.61619e-05
1.61527e-05
1.61435e-05
1.61341e-05
1.6129e-05
1.61415e-05
1.61892e-05
1.62837e-05
1.63833e-05
1.63554e-05
1.589e-05
1.47132e-05
1.29932e-05
1.1578e-05
1.10459e-05
1.19185e-05
1.97858e-05
5.56918e-05
0.000120833
0.000194439
0.000269743
0.00033979
0.000395677
0.000429661
0.00043762
0.00042023
0.000381597
0.000328117
0.000266959
0.000204647
0.000145923
9.39955e-05
5.38326e-05
3.0896e-05
2.15361e-05
1.84926e-05
1.77193e-05
1.7617e-05
1.75714e-05
1.74204e-05
1.7201e-05
1.69853e-05
1.68119e-05
1.6684e-05
1.65888e-05
1.65127e-05
1.6448e-05
1.63913e-05
1.63422e-05
1.63001e-05
1.62644e-05
1.62343e-05
1.62089e-05
1.6188e-05
1.61721e-05
1.61597e-05
1.61476e-05
1.61361e-05
1.61272e-05
1.61223e-05
1.61197e-05
1.61148e-05
1.61066e-05
1.60969e-05
1.60889e-05
1.60864e-05
1.60895e-05
1.62275e-05
1.62114e-05
1.61975e-05
1.61853e-05
1.61747e-05
1.61654e-05
1.6157e-05
1.61493e-05
1.61421e-05
1.61356e-05
1.61301e-05
1.61254e-05
1.61215e-05
1.61183e-05
1.61154e-05
1.6112e-05
1.61085e-05
1.61083e-05
1.61209e-05
1.61591e-05
1.62309e-05
1.63033e-05
1.62599e-05
1.5909e-05
1.51463e-05
1.41352e-05
1.33029e-05
1.31753e-05
1.46621e-05
2.07384e-05
3.84971e-05
7.21379e-05
0.000114099
0.000155993
0.000193142
0.00022174
0.000238702
0.000242369
0.000233176
0.000212966
0.000184573
0.000151216
0.000116009
8.2211e-05
5.40355e-05
3.51296e-05
2.51024e-05
2.05797e-05
1.87667e-05
1.80743e-05
1.77672e-05
1.7544e-05
1.73215e-05
1.71056e-05
1.69173e-05
1.6765e-05
1.66452e-05
1.655e-05
1.64722e-05
1.64073e-05
1.63528e-05
1.6307e-05
1.62687e-05
1.62366e-05
1.62104e-05
1.61908e-05
1.61756e-05
1.61612e-05
1.61474e-05
1.61357e-05
1.6128e-05
1.61241e-05
1.61194e-05
1.61118e-05
1.61014e-05
1.60927e-05
1.60875e-05
1.60878e-05
)
;

boundaryField
{
    inlet
    {
        type            calculated;
        value           nonuniform List<scalar> 
27
(
1.60831e-05
1.60856e-05
1.60878e-05
1.60894e-05
1.60905e-05
1.60914e-05
1.60923e-05
1.60932e-05
1.60941e-05
1.60951e-05
1.6096e-05
1.60969e-05
1.60975e-05
1.6098e-05
1.60982e-05
1.60982e-05
1.60979e-05
1.60975e-05
1.6097e-05
1.60962e-05
1.60952e-05
1.60942e-05
1.6093e-05
1.60919e-05
1.60906e-05
1.60895e-05
1.60878e-05
)
;
    }
    outlet
    {
        type            calculated;
        value           nonuniform List<scalar> 
78
(
1.62275e-05
1.62114e-05
1.61975e-05
1.61853e-05
1.61747e-05
1.61654e-05
1.6157e-05
1.61493e-05
1.61421e-05
1.61356e-05
1.61301e-05
1.61254e-05
1.61215e-05
1.61183e-05
1.61154e-05
1.6112e-05
1.61085e-05
1.61083e-05
1.61209e-05
1.61591e-05
1.62309e-05
1.63033e-05
1.62599e-05
1.5909e-05
1.51463e-05
1.41352e-05
1.33029e-05
1.31753e-05
1.46621e-05
2.07384e-05
3.84971e-05
7.21379e-05
0.000114099
0.000155993
0.000193142
0.00022174
0.000238702
0.000242369
0.000233176
0.000212966
0.000184573
0.000151216
0.000116009
8.2211e-05
5.40355e-05
3.51296e-05
2.51024e-05
2.05797e-05
1.87667e-05
1.80743e-05
1.77672e-05
1.7544e-05
1.73215e-05
1.71056e-05
1.69173e-05
1.6765e-05
1.66452e-05
1.655e-05
1.64722e-05
1.64073e-05
1.63528e-05
1.6307e-05
1.62687e-05
1.62366e-05
1.62104e-05
1.61908e-05
1.61756e-05
1.61612e-05
1.61474e-05
1.61357e-05
1.6128e-05
1.61241e-05
1.61194e-05
1.61118e-05
1.61014e-05
1.60927e-05
1.60875e-05
1.60878e-05
)
;
    }
    walls
    {
        type            calculated;
        value           nonuniform List<scalar> 0();
    }
    frontAndBack
    {
        type            empty;
    }
    procBoundary7to3
    {
        type            processor;
        value           nonuniform List<scalar> 
16
(
2.06467e-05
1.97571e-05
1.93586e-05
1.88201e-05
1.83826e-05
1.82121e-05
1.80548e-05
1.77709e-05
1.73975e-05
1.73975e-05
1.70649e-05
1.68023e-05
1.66067e-05
1.64632e-05
1.63597e-05
1.62512e-05
)
;
    }
    procBoundary7to6
    {
        type            processor;
        value           nonuniform List<scalar> 
91
(
1.60808e-05
1.60798e-05
1.60798e-05
1.60864e-05
1.60864e-05
1.60881e-05
1.60881e-05
1.60899e-05
1.60905e-05
1.60905e-05
1.60883e-05
1.60884e-05
1.60884e-05
1.60919e-05
1.60911e-05
1.609e-05
1.609e-05
1.61025e-05
1.60986e-05
1.60954e-05
1.60954e-05
1.61201e-05
1.61157e-05
1.61117e-05
1.61082e-05
1.61082e-05
1.61562e-05
1.61479e-05
1.61404e-05
1.61337e-05
1.61277e-05
1.61277e-05
1.62577e-05
1.624e-05
1.62239e-05
1.62091e-05
1.61956e-05
1.61832e-05
1.61719e-05
1.61719e-05
1.66157e-05
1.65844e-05
1.65526e-05
1.65205e-05
1.64885e-05
1.64571e-05
1.64266e-05
1.63972e-05
1.63692e-05
1.6343e-05
1.63185e-05
1.62957e-05
1.62957e-05
1.88768e-05
1.01763e-05
1.00008e-05
1e-05
1e-05
0.0007273
0.00289017
0.0210184
0.058626
0.109209
0.161153
0.203488
0.227303
0.226208
0.197586
0.146017
0.0866491
0.0400316
0.0140488
0.00440203
0.0023181
0.00202727
0.00164905
0.00111626
0.000649697
0.000339628
0.000163143
6.67397e-05
2.86023e-05
1.9519e-05
1.74673e-05
1.69708e-05
1.68378e-05
1.67898e-05
1.6761e-05
1.67342e-05
1.6705e-05
1.6705e-05
)
;
    }
}


// ************************************************************************* //
