/*--------------------------------*- C++ -*----------------------------------*\
| =========                 |                                                 |
| \\      /  F ield         | OpenFOAM: The Open Source CFD Toolbox           |
|  \\    /   O peration     | Version:  2306                                  |
|   \\  /    A nd           | Website:  www.openfoam.com                      |
|    \\/     M anipulation  |                                                 |
\*---------------------------------------------------------------------------*/
FoamFile
{
    version     2.0;
    format      ascii;
    arch        "LSB;label=32;scalar=64";
    class       volScalarField;
    location    "25";
    object      turbulenceProperties:epsilon;
}
// * * * * * * * * * * * * * * * * * * * * * * * * * * * * * * * * * * * * * //

dimensions      [0 2 -3 0 0 0 0];

internalField   nonuniform List<scalar> 
1340
(
3.14932e-10
1.34963e-10
3.01679e-10
8.72084e-11
1.21676e-10
2.79529e-10
9.20526e-12
9.34036e-11
1.0676e-10
2.66985e-10
6.25161e-11
8.95486e-11
1.0076e-11
1.01422e-10
9.30951e-11
2.61617e-10
1.81015e-10
1.44465e-10
6.7586e-11
9.543e-11
1.16371e-11
1.09529e-10
8.2207e-11
2.5882e-10
4.94283e-10
3.79254e-10
2.89987e-10
1.9068e-10
1.50709e-10
7.1303e-11
9.95597e-11
1.34446e-11
1.16638e-10
7.42287e-11
2.56342e-10
9.59044e-10
7.6828e-10
6.1833e-10
5.01858e-10
3.87809e-10
2.98854e-10
1.97726e-10
1.54984e-10
7.42524e-11
1.02096e-10
1.51493e-11
1.22344e-10
6.85582e-11
2.53158e-10
2.24722e-09
1.8388e-09
1.49363e-09
1.19743e-09
9.5547e-10
7.65671e-10
6.15488e-10
5.00386e-10
3.8989e-10
3.02971e-10
2.02491e-10
1.57953e-10
7.65959e-11
1.03414e-10
1.6667e-11
1.26664e-10
6.45789e-11
2.49343e-10
5.35571e-09
4.58083e-09
3.87086e-09
3.24153e-09
2.68754e-09
2.21158e-09
1.80226e-09
1.45851e-09
1.16934e-09
9.33062e-10
7.49006e-10
6.01245e-10
4.90345e-10
3.85317e-10
3.02822e-10
2.04724e-10
1.59668e-10
7.85351e-11
1.03905e-10
1.80502e-11
1.29841e-10
6.18663e-11
2.445e-10
1.51717e-08
1.32533e-08
1.15413e-08
1.00287e-08
8.66246e-09
7.44277e-09
6.36073e-09
5.40439e-09
4.554e-09
3.8125e-09
3.16128e-09
2.60463e-09
2.12961e-09
1.7276e-09
1.3944e-09
1.11599e-09
8.92433e-10
7.17428e-10
5.75482e-10
4.70981e-10
3.73514e-10
2.97442e-10
2.04015e-10
1.59957e-10
7.98356e-11
1.03616e-10
1.92719e-11
1.32111e-10
6.01773e-11
2.38956e-10
7.64013e-08
6.97319e-08
6.30784e-08
5.65652e-08
5.03445e-08
4.45047e-08
3.91565e-08
3.42816e-08
2.99139e-08
2.60038e-08
2.25162e-08
1.94359e-08
1.67087e-08
1.42975e-08
1.22158e-08
1.04182e-08
8.83296e-09
7.46863e-09
6.2859e-09
5.26873e-09
4.38735e-09
3.63337e-09
2.98903e-09
2.44701e-09
1.99081e-09
1.6088e-09
1.29473e-09
1.03654e-09
8.30485e-10
6.69046e-10
5.36731e-10
4.41034e-10
3.53412e-10
2.85853e-10
1.99423e-10
1.57878e-10
7.99163e-11
1.02354e-10
2.01149e-11
1.33628e-10
5.89325e-11
2.32807e-10
2.94822e-06
2.65048e-06
6.75528e-08
1.49582e-10
0
0
6.31459e-05
0.000334466
0.000758869
0.00817938
0.149298
0.662513
1.54577
2.33305
2.36592
1.47966
0.436937
0.0228751
0.0104237
0.0114064
0.0027744
0.000626853
0.000282358
0.000116863
3.85655e-05
1.16815e-05
3.83704e-06
1.40091e-06
4.49809e-07
1.70339e-07
1.10938e-07
9.32257e-08
8.15442e-08
7.25082e-08
6.62188e-08
6.22221e-08
5.95891e-08
5.72572e-08
5.45246e-08
5.14882e-08
4.79475e-08
4.40834e-08
4.00448e-08
3.60252e-08
3.20829e-08
2.83473e-08
2.48349e-08
2.16211e-08
1.8691e-08
1.60585e-08
1.37074e-08
1.16629e-08
9.87408e-09
8.31861e-09
6.97436e-09
5.82824e-09
4.84303e-09
4.00762e-09
3.29659e-09
2.70098e-09
2.20291e-09
1.78691e-09
1.4412e-09
1.15916e-09
9.29461e-10
7.46688e-10
6.03797e-10
4.85113e-10
4.0076e-10
3.24757e-10
2.67459e-10
1.9007e-10
1.52666e-10
7.81168e-11
9.97536e-11
2.03108e-11
1.34395e-10
5.77119e-11
2.26277e-10
2.36301e-06
2.73628e-06
2.42995e-06
5.56389e-08
9.00027e-11
0
0
1.65678e-05
0.000114666
0.000813369
0.00272737
0.0557009
0.303332
0.846782
1.50582
1.78174
1.3124
0.495318
0.0563659
0.00160857
0.00609058
0.00168267
0.000166929
0.000107707
7.09986e-05
2.78071e-05
8.06817e-06
2.22716e-06
6.91169e-07
2.2343e-07
1.02586e-07
8.00636e-08
7.4872e-08
6.71771e-08
5.66398e-08
4.73362e-08
4.10199e-08
3.70637e-08
3.46473e-08
3.29664e-08
3.14097e-08
2.96999e-08
2.78299e-08
2.57997e-08
2.3666e-08
2.14718e-08
1.92807e-08
1.71415e-08
1.50982e-08
1.31654e-08
1.13834e-08
9.77603e-09
8.33474e-09
7.05372e-09
5.93384e-09
4.96437e-09
4.12685e-09
3.41476e-09
2.80895e-09
2.30282e-09
1.87821e-09
1.52438e-09
1.23058e-09
9.91798e-10
7.9769e-10
6.4376e-10
5.23551e-10
4.22175e-10
3.51057e-10
2.87914e-10
2.42166e-10
1.75344e-10
1.43736e-10
7.38468e-11
9.55826e-11
1.95992e-11
1.34412e-10
5.59151e-11
2.19771e-10
9.19129e-07
8.08579e-07
1.2075e-06
9.7263e-07
2.30197e-08
2.79263e-11
0
0
1.89991e-07
7.36929e-06
0.000552496
0.000863585
0.0135441
0.0998445
0.351046
0.755208
1.06075
0.940312
0.468085
0.101754
0.00412061
0.00122249
0.000808191
0.000248286
4.00809e-06
2.3677e-05
1.96173e-05
8.18034e-06
2.44818e-06
6.39971e-07
1.87964e-07
8.41539e-08
6.33729e-08
6.17333e-08
5.953e-08
5.24372e-08
4.35067e-08
3.57192e-08
3.00747e-08
2.62893e-08
2.36458e-08
2.15543e-08
1.97617e-08
1.81086e-08
1.65589e-08
1.50666e-08
1.36336e-08
1.22446e-08
1.09218e-08
9.64612e-09
8.45067e-09
7.34437e-09
6.33449e-09
5.41483e-09
4.59955e-09
3.87706e-09
3.24471e-09
2.69897e-09
2.2325e-09
1.8387e-09
1.50578e-09
1.22707e-09
9.94166e-10
8.05169e-10
6.50945e-10
5.28903e-10
4.34019e-10
3.52312e-10
2.95319e-10
2.45187e-10
2.11186e-10
1.55912e-10
1.31278e-10
6.71675e-11
8.99345e-11
1.79196e-11
1.33858e-10
5.33433e-11
2.13609e-10
9.22037e-08
2.06295e-07
4.27572e-07
4.79572e-07
2.3546e-07
6.52087e-09
6.34232e-12
0
0
2.6279e-12
2.80448e-10
0.000256771
0.000456861
0.00196202
0.0220229
0.105431
0.283673
0.480551
0.518913
0.340824
0.123357
0.0200857
0.00074711
0.000168884
2.52301e-05
1.03886e-05
7.33866e-09
2.81341e-07
3.69497e-06
2.28849e-06
8.88838e-07
2.82726e-07
1.09411e-07
6.4086e-08
5.434e-08
5.28751e-08
4.99616e-08
4.39458e-08
3.68485e-08
3.05962e-08
2.57603e-08
2.21041e-08
1.92602e-08
1.69261e-08
1.49222e-08
1.3151e-08
1.15691e-08
1.01435e-08
8.87193e-09
7.72074e-09
6.68964e-09
5.77164e-09
4.96153e-09
4.24055e-09
3.60867e-09
3.05293e-09
2.56706e-09
2.14643e-09
1.78598e-09
1.47887e-09
1.21819e-09
9.97844e-10
8.13085e-10
6.62615e-10
5.38981e-10
4.40889e-10
3.655e-10
2.99659e-10
2.53088e-10
2.12397e-10
1.86899e-10
1.40474e-10
1.2134e-10
6.19356e-11
8.54239e-11
1.63808e-11
1.33378e-10
5.00206e-11
2.08765e-10
2.80048e-07
5.22603e-07
6.11818e-07
5.41405e-07
3.9474e-07
1.43867e-07
9.32087e-09
2.19485e-11
6.43483e-19
0
2.37789e-19
1.6168e-05
7.14692e-05
0.000235503
0.000261786
0.00284702
0.0214002
0.0759845
0.158507
0.209529
0.178184
0.096072
0.0315366
0.00568533
0.000397137
1.41408e-05
2.41122e-05
1.02349e-06
1.02194e-08
4.47146e-10
4.5555e-08
4.55902e-07
4.23758e-07
2.2079e-07
1.08467e-07
6.82722e-08
5.56536e-08
5.08911e-08
4.66582e-08
4.11332e-08
3.4942e-08
2.91062e-08
2.41431e-08
2.01018e-08
1.68146e-08
1.41023e-08
1.18181e-08
9.88456e-09
8.24881e-09
6.861e-09
5.70232e-09
4.74357e-09
3.95585e-09
3.30429e-09
2.76637e-09
2.31695e-09
1.93761e-09
1.61728e-09
1.34582e-09
1.11569e-09
9.20372e-10
7.55287e-10
6.1724e-10
5.05437e-10
4.12368e-10
3.40023e-10
2.86593e-10
2.36556e-10
2.01456e-10
1.70385e-10
1.53793e-10
1.17127e-10
1.05713e-10
5.26349e-11
7.87749e-11
1.34438e-11
1.32289e-10
4.57615e-11
2.04232e-10
1.13214e-06
1.10324e-06
8.80732e-07
7.03187e-07
5.04107e-07
3.24461e-07
1.63334e-07
4.60401e-08
1.21083e-09
3.30379e-12
6.30566e-20
0
9.36408e-07
6.40729e-06
5.49185e-05
0.000100079
9.88064e-05
0.00127578
0.00783988
0.0235694
0.043048
0.0524435
0.0447922
0.0276649
0.0124749
0.00399411
0.000801059
6.72494e-05
1.79941e-06
5.28427e-06
1.49614e-08
2.12416e-10
1.8189e-10
1.85186e-08
1.50367e-07
1.84078e-07
1.17756e-07
7.42344e-08
5.53567e-08
4.71606e-08
4.21501e-08
3.71956e-08
3.16866e-08
2.61045e-08
2.1052e-08
1.68375e-08
1.34489e-08
1.07661e-08
8.63954e-09
6.93878e-09
5.58033e-09
4.49797e-09
3.63853e-09
2.95629e-09
2.41708e-09
1.98662e-09
1.63786e-09
1.35289e-09
1.11785e-09
9.22817e-10
7.59069e-10
6.22356e-10
5.08853e-10
4.17737e-10
3.39997e-10
2.80839e-10
2.39189e-10
1.99115e-10
1.71193e-10
1.45314e-10
1.33475e-10
1.03493e-10
9.65845e-11
4.83352e-11
7.39507e-11
1.26922e-11
1.26996e-10
3.67622e-11
1.77518e-10
1.45468e-06
1.09853e-06
7.1353e-07
5.46998e-07
3.90374e-07
2.61241e-07
1.72816e-07
1.08333e-07
5.34508e-08
1.37958e-08
1.14679e-10
3.09492e-13
9.82942e-20
1.38048e-13
2.99532e-08
2.88355e-07
1.70029e-05
3.83289e-05
2.05634e-05
0.00013815
0.00116118
0.00386462
0.00755952
0.0101498
0.0101616
0.00800434
0.00508172
0.002563
0.000963532
0.000231472
2.43318e-05
2.75095e-07
1.71594e-08
2.31018e-09
4.95181e-11
1.01925e-09
6.82974e-08
1.39751e-07
1.10397e-07
7.20387e-08
5.13118e-08
4.17319e-08
3.65222e-08
3.22267e-08
2.76601e-08
2.29131e-08
1.84439e-08
1.46204e-08
1.15214e-08
9.0815e-09
7.17311e-09
5.67892e-09
4.5053e-09
3.58344e-09
2.85959e-09
2.28897e-09
1.83767e-09
1.47947e-09
1.19418e-09
9.65622e-10
7.80553e-10
6.3042e-10
5.09333e-10
4.13672e-10
3.32603e-10
2.72059e-10
2.29273e-10
1.91283e-10
1.64684e-10
1.39477e-10
1.28155e-10
1.01399e-10
9.57238e-11
4.99512e-11
7.34583e-11
1.41289e-11
1.2662e-10
3.61027e-11
1.7578e-10
1.12937e-06
7.46247e-07
4.26714e-07
3.17722e-07
2.28965e-07
1.52311e-07
9.77193e-08
6.18065e-08
3.80085e-08
2.0554e-08
8.41156e-09
1.91945e-09
6.62143e-11
2.1254e-13
1.35926e-20
5.97741e-17
1.58764e-10
1.29296e-06
5.64576e-06
1.53326e-05
1.10484e-05
9.89902e-06
0.000144623
0.000571442
0.00124102
0.00187589
0.00220867
0.00215749
0.0017825
0.00121786
0.000645874
0.000239743
5.14197e-05
3.67764e-06
1.10311e-07
1.12334e-09
2.97153e-11
8.97562e-09
7.53197e-08
1.18994e-07
9.57919e-08
6.3708e-08
4.48623e-08
3.57852e-08
3.0948e-08
2.7236e-08
2.34479e-08
1.95275e-08
1.57941e-08
1.2547e-08
9.87488e-09
7.74615e-09
6.06554e-09
4.74633e-09
3.71048e-09
2.89684e-09
2.26033e-09
1.76365e-09
1.37831e-09
1.07927e-09
8.46631e-10
6.6493e-10
5.24006e-10
4.15751e-10
3.27026e-10
2.6204e-10
2.16901e-10
1.79907e-10
1.54527e-10
1.2984e-10
1.19105e-10
9.55839e-11
9.23291e-11
4.9626e-11
7.28075e-11
1.47509e-11
1.26786e-10
3.41646e-11
1.75581e-10
3.95068e-07
2.93058e-07
1.68402e-07
1.21969e-07
8.73079e-08
5.8895e-08
3.74155e-08
2.24768e-08
1.26328e-08
6.5537e-09
3.17728e-09
1.64622e-09
6.48863e-10
9.613e-12
3.91533e-14
1.70614e-20
0
8.31002e-12
4.66128e-07
2.17975e-06
5.80645e-06
5.37779e-06
7.23198e-07
1.25659e-05
7.08134e-05
0.000181912
0.000322198
0.000459273
0.000562272
0.000591703
0.000512896
0.00034207
0.000161184
4.7025e-05
6.32203e-06
8.95901e-08
5.48505e-08
2.41158e-08
5.00056e-08
9.82232e-08
1.07029e-07
7.92907e-08
5.19227e-08
3.621e-08
2.85186e-08
2.43834e-08
2.12842e-08
1.82591e-08
1.52042e-08
1.23313e-08
9.8244e-09
7.74426e-09
6.06511e-09
4.72751e-09
3.66598e-09
2.82795e-09
2.17171e-09
1.66276e-09
1.27241e-09
9.73618e-10
7.46356e-10
5.74209e-10
4.45617e-10
3.43494e-10
2.69244e-10
2.18244e-10
1.79406e-10
1.52962e-10
1.27444e-10
1.16097e-10
9.46044e-11
9.28415e-11
5.20916e-11
7.45269e-11
1.64185e-11
1.27706e-10
3.22231e-11
1.76785e-10
1.99612e-07
1.52037e-07
8.59789e-08
6.43023e-08
4.95315e-08
3.61227e-08
2.4419e-08
1.51927e-08
8.52439e-09
4.22077e-09
1.81177e-09
7.44202e-10
5.04303e-10
5.33564e-10
3.0068e-10
1.06428e-11
4.40449e-14
5.45032e-20
0
2.27425e-11
8.75922e-10
8.15545e-07
2.03558e-06
2.19529e-06
6.6938e-07
4.18028e-07
6.62973e-06
2.30744e-05
5.22609e-05
9.71432e-05
0.000155091
0.000205481
0.0002137
0.000164426
8.79755e-05
2.9718e-05
5.07567e-06
1.55498e-07
5.79247e-08
7.01728e-08
8.90181e-08
1.04186e-07
8.93095e-08
6.0739e-08
3.89177e-08
2.7024e-08
2.11568e-08
1.79029e-08
1.54472e-08
1.31353e-08
1.08881e-08
8.82688e-09
7.04379e-09
5.5622e-09
4.35757e-09
3.38589e-09
2.61058e-09
1.99708e-09
1.52016e-09
1.15192e-09
8.72325e-10
6.61092e-10
5.05145e-10
3.84457e-10
2.97335e-10
2.36722e-10
1.92775e-10
1.6254e-10
1.34444e-10
1.20922e-10
1.00264e-10
9.86727e-11
5.8812e-11
7.95638e-11
2.01422e-11
1.29558e-10
3.10704e-11
1.79357e-10
1.03549e-07
7.09796e-08
3.88979e-08
2.80018e-08
2.33095e-08
1.96573e-08
1.5734e-08
1.16084e-08
7.65891e-09
4.41184e-09
2.14568e-09
8.65063e-10
3.14344e-10
2.07276e-10
3.14302e-10
4.03247e-10
2.45466e-10
3.30671e-11
1.29006e-13
2.23856e-19
1.7104e-18
1.75022e-10
2.57156e-08
3.33025e-07
7.17893e-07
8.42032e-07
5.00363e-07
5.63268e-08
2.51412e-07
2.17604e-06
8.35108e-06
2.34919e-05
5.04563e-05
8.05204e-05
9.31962e-05
7.63328e-05
4.25952e-05
1.49896e-05
2.66543e-06
8.75887e-08
4.38841e-08
7.96786e-08
9.41351e-08
8.96251e-08
6.68847e-08
4.28415e-08
2.71467e-08
1.8939e-08
1.47977e-08
1.23652e-08
1.04895e-08
8.78833e-09
7.21852e-09
5.83016e-09
4.6526e-09
3.67671e-09
2.87892e-09
2.23224e-09
1.71584e-09
1.30831e-09
9.92842e-10
7.51239e-10
5.71193e-10
4.33853e-10
3.35541e-10
2.65888e-10
2.15318e-10
1.8018e-10
1.48574e-10
1.31887e-10
1.11103e-10
1.08956e-10
6.94306e-11
8.75373e-11
2.60329e-11
1.32158e-10
3.07506e-11
1.83116e-10
5.12856e-08
3.76707e-08
1.89281e-08
1.3031e-08
9.42281e-09
6.54235e-09
4.30512e-09
2.64753e-09
1.46814e-09
6.95798e-10
2.60068e-10
7.49715e-11
4.81502e-11
1.07077e-10
2.11972e-10
3.4663e-10
4.84751e-10
5.33924e-10
3.88848e-10
1.32533e-10
6.41745e-12
2.5035e-14
9.97238e-16
1.93328e-14
2.85936e-08
1.39932e-07
2.63175e-07
3.29672e-07
3.04034e-07
2.14013e-07
8.55723e-08
1.16378e-07
1.5932e-06
7.76142e-06
2.09854e-05
3.6487e-05
4.29927e-05
3.47629e-05
1.88532e-05
6.29538e-06
9.76542e-07
2.22945e-08
3.84044e-08
7.07102e-08
7.81247e-08
6.55459e-08
4.46869e-08
2.77509e-08
1.78157e-08
1.2719e-08
1.00122e-08
8.2734e-09
6.88319e-09
5.65919e-09
4.58448e-09
3.6701e-09
2.9106e-09
2.28737e-09
1.78185e-09
1.37567e-09
1.05477e-09
8.046e-10
6.1475e-10
4.70399e-10
3.6847e-10
2.95256e-10
2.39925e-10
2.01135e-10
1.66784e-10
1.47017e-10
1.2603e-10
1.23031e-10
8.39609e-11
9.90499e-11
3.47289e-11
1.36321e-10
3.09646e-11
1.9073e-10
2.67311e-08
1.79757e-08
9.23717e-09
7.1955e-09
6.43224e-09
5.56675e-09
4.45973e-09
3.25e-09
2.05449e-09
1.08197e-09
4.41522e-10
1.29705e-10
6.37237e-11
1.29998e-10
2.39394e-10
3.54078e-10
4.68144e-10
5.831e-10
6.79493e-10
6.97325e-10
5.74756e-10
2.93712e-10
6.93982e-11
6.17634e-12
8.92134e-12
1.00356e-09
2.11919e-08
6.32694e-08
1.08473e-07
1.52425e-07
2.04349e-07
2.56195e-07
2.12469e-07
4.10186e-08
5.65956e-07
3.86762e-06
1.09261e-05
1.83236e-05
2.02616e-05
1.51328e-05
7.3864e-06
2.0622e-06
2.20595e-07
5.75402e-09
3.85339e-08
5.88411e-08
5.71094e-08
4.20728e-08
2.61389e-08
1.55843e-08
1.00336e-08
7.30683e-09
5.82898e-09
4.82179e-09
3.98948e-09
3.25702e-09
2.62136e-09
2.08397e-09
1.64003e-09
1.27901e-09
9.90168e-10
7.62612e-10
5.8765e-10
4.55017e-10
3.63917e-10
2.98822e-10
2.46086e-10
2.09318e-10
1.76878e-10
1.57063e-10
1.37476e-10
1.34777e-10
9.7696e-11
1.10042e-10
4.37259e-11
1.39965e-10
2.9814e-11
2.00027e-10
1.78752e-08
1.58186e-08
6.38511e-09
4.91219e-09
3.43982e-09
2.06349e-09
1.1111e-09
5.65312e-10
2.8405e-10
1.56212e-10
1.12358e-10
1.14433e-10
1.3973e-10
1.84466e-10
2.52502e-10
3.42592e-10
4.43602e-10
5.39919e-10
6.22363e-10
6.84006e-10
7.167e-10
6.91648e-10
5.78218e-10
3.88439e-10
2.21575e-10
1.68938e-10
3.99959e-10
2.61483e-09
1.24478e-08
2.88744e-08
4.9668e-08
8.4048e-08
1.45496e-07
2.09616e-07
1.62468e-07
1.15083e-08
4.50155e-07
2.69634e-06
6.72635e-06
1.01027e-05
1.00651e-05
6.72065e-06
2.82715e-06
6.35021e-07
5.43459e-08
1.54792e-08
3.93108e-08
4.97654e-08
4.37223e-08
3.02861e-08
1.83935e-08
1.09377e-08
6.9526e-09
4.8735e-09
3.68703e-09
2.89495e-09
2.29536e-09
1.8139e-09
1.42543e-09
1.11542e-09
8.72734e-10
6.85836e-10
5.44907e-10
4.40082e-10
3.71479e-10
3.22929e-10
2.76983e-10
2.43675e-10
2.13155e-10
1.92241e-10
1.71312e-10
1.67054e-10
1.26445e-10
1.36041e-10
5.78651e-11
1.57513e-10
2.28653e-11
2.39041e-10
3.31294e-09
3.34006e-09
1.27403e-09
1.45342e-09
1.40332e-09
1.11804e-09
8.12322e-10
5.99488e-10
5.02102e-10
5.00573e-10
5.64071e-10
6.58025e-10
7.25314e-10
7.16524e-10
6.29674e-10
5.04327e-10
4.01344e-10
3.5095e-10
3.50962e-10
3.79975e-10
4.14417e-10
4.39359e-10
4.44531e-10
4.21249e-10
3.6867e-10
3.04188e-10
2.60676e-10
2.83614e-10
4.86307e-10
1.24999e-09
3.28889e-09
6.91555e-09
1.33701e-08
2.77935e-08
5.52355e-08
7.90668e-08
5.26701e-08
1.5145e-08
2.65049e-07
1.16445e-06
2.51965e-06
3.42588e-06
3.13398e-06
1.92302e-06
7.4924e-07
1.6527e-07
1.28643e-08
3.3786e-09
1.54315e-08
2.15031e-08
1.98769e-08
1.48188e-08
9.94227e-09
6.49522e-09
4.33665e-09
3.00745e-09
2.15451e-09
1.57581e-09
1.16584e-09
8.7061e-10
6.57227e-10
5.04904e-10
3.9757e-10
3.20922e-10
2.76633e-10
2.49796e-10
2.15008e-10
1.87379e-10
1.63745e-10
1.47702e-10
1.30877e-10
1.2992e-10
9.70686e-11
1.08779e-10
3.9905e-11
1.30373e-10
1.51026e-11
2.02734e-10
)
;

boundaryField
{
    inlet
    {
        type            calculated;
        value           nonuniform List<scalar> 
27
(
8.54213e-09
8.23554e-09
7.95822e-09
7.72652e-09
7.53461e-09
7.37178e-09
7.22933e-09
7.0994e-09
6.97617e-09
6.8535e-09
6.72813e-09
6.59738e-09
6.46e-09
6.31603e-09
6.1666e-09
6.0138e-09
5.86341e-09
5.64007e-09
5.47837e-09
5.32142e-09
5.16815e-09
5.01512e-09
4.85318e-09
4.67604e-09
4.46055e-09
4.25895e-09
3.86821e-09
)
;
    }
    outlet
    {
        type            calculated;
        value           nonuniform List<scalar> 
78
(
3.62155e-09
3.55037e-09
1.37599e-09
1.51969e-09
1.45094e-09
1.15038e-09
8.29879e-10
6.02777e-10
4.91932e-10
4.77787e-10
5.29358e-10
6.11791e-10
6.67539e-10
6.46994e-10
5.48104e-10
4.10734e-10
2.96229e-10
2.35388e-10
2.26401e-10
2.48099e-10
2.76843e-10
2.98505e-10
3.051e-10
2.916e-10
2.58087e-10
2.16892e-10
1.911e-10
2.15046e-10
3.80774e-10
1.00287e-09
2.68211e-09
5.72924e-09
1.13807e-08
2.45546e-08
5.03368e-08
7.30264e-08
4.72939e-08
1.19845e-08
2.63576e-07
1.16356e-06
2.52144e-06
3.43479e-06
3.15072e-06
1.9412e-06
7.61436e-07
1.70086e-07
1.34319e-08
2.3648e-09
1.40477e-08
2.02284e-08
1.88744e-08
1.40903e-08
9.42167e-09
6.11532e-09
4.04835e-09
2.78068e-09
1.97074e-09
1.42401e-09
1.03825e-09
7.61581e-10
5.61946e-10
4.19751e-10
3.19721e-10
2.48974e-10
2.08266e-10
1.83549e-10
1.53727e-10
1.31473e-10
1.13615e-10
1.02924e-10
9.16809e-11
9.4596e-11
6.92719e-11
8.27095e-11
2.6493e-11
1.08164e-10
1.53086e-11
1.72837e-10
)
;
    }
    walls
    {
        type            calculated;
        value           nonuniform List<scalar> 0();
    }
    frontAndBack
    {
        type            empty;
    }
    procBoundary7to3
    {
        type            processor;
        value           nonuniform List<scalar> 
16
(
2.87911e-06
2.73957e-06
1.35833e-06
2.26997e-07
1.05808e-07
9.01333e-07
1.49737e-06
1.31912e-06
5.85969e-07
5.85969e-07
3.09176e-07
1.66574e-07
8.40286e-08
4.55231e-08
2.63293e-08
7.31308e-09
)
;
    }
    procBoundary7to6
    {
        type            processor;
        value           nonuniform List<scalar> 
91
(
3.18828e-10
1.40114e-10
1.40114e-10
8.51314e-11
8.51314e-11
9.54927e-12
9.54927e-12
5.66321e-11
8.20474e-11
8.20474e-11
1.69431e-10
1.36491e-10
1.36491e-10
4.78788e-10
3.65275e-10
2.76943e-10
2.76943e-10
9.46918e-10
7.59027e-10
6.10219e-10
6.10219e-10
2.24942e-09
1.84579e-09
1.50191e-09
1.20386e-09
1.20386e-09
5.25831e-09
4.5404e-09
3.87124e-09
3.26331e-09
2.71989e-09
2.71989e-09
1.29072e-08
1.16063e-08
1.03901e-08
9.2418e-09
8.16839e-09
7.14983e-09
6.2181e-09
6.2181e-09
6.54303e-08
5.83271e-08
5.18578e-08
4.60568e-08
4.08425e-08
3.6202e-08
3.20713e-08
2.84222e-08
2.51707e-08
2.22856e-08
1.96666e-08
1.73051e-08
1.73051e-08
1.96447e-06
3.06203e-08
8.06443e-11
0
0
0.000132244
0.000644003
0.000972624
0.0201547
0.287274
1.10398
2.25838
3.00972
2.71922
1.52459
0.391829
0.0113858
0.016248
0.0139671
0.00368378
0.00111636
0.000513884
0.000224853
8.51873e-05
2.97671e-05
1.04869e-05
3.82467e-06
1.28399e-06
3.9535e-07
1.78468e-07
1.24829e-07
1.08181e-07
1.0168e-07
9.77491e-08
9.36715e-08
8.85187e-08
8.26411e-08
8.26411e-08
)
;
    }
}


// ************************************************************************* //
