/*--------------------------------*- C++ -*----------------------------------*\
| =========                 |                                                 |
| \\      /  F ield         | OpenFOAM: The Open Source CFD Toolbox           |
|  \\    /   O peration     | Version:  2306                                  |
|   \\  /    A nd           | Website:  www.openfoam.com                      |
|    \\/     M anipulation  |                                                 |
\*---------------------------------------------------------------------------*/
FoamFile
{
    version     2.0;
    format      ascii;
    arch        "LSB;label=32;scalar=64";
    class       volScalarField;
    location    "25";
    object      turbulenceProperties:k;
}
// * * * * * * * * * * * * * * * * * * * * * * * * * * * * * * * * * * * * * //

dimensions      [0 2 -2 0 0 0 0];

internalField   nonuniform List<scalar> 
1340
(
6.43362e-07
4.21165e-07
6.29681e-07
3.38555e-07
3.99897e-07
6.06126e-07
1.09994e-07
3.50375e-07
3.74586e-07
5.92372e-07
2.86647e-07
3.43068e-07
1.15079e-07
3.65104e-07
3.49793e-07
5.86387e-07
4.87761e-07
4.35744e-07
2.98043e-07
3.54155e-07
1.23673e-07
3.79416e-07
3.28702e-07
5.83245e-07
8.06011e-07
7.06021e-07
6.17363e-07
5.00614e-07
4.4506e-07
3.06128e-07
3.61737e-07
1.3293e-07
3.91536e-07
3.12344e-07
5.80447e-07
1.12274e-06
1.00489e-06
9.015e-07
8.12165e-07
7.13941e-07
6.26733e-07
5.0978e-07
4.51329e-07
3.12395e-07
3.66315e-07
1.41106e-07
4.00999e-07
3.00177e-07
5.76831e-07
1.71868e-06
1.55466e-06
1.40116e-06
1.25455e-06
1.12065e-06
1.00318e-06
8.99428e-07
8.10975e-07
7.15855e-07
6.31035e-07
5.15886e-07
4.55631e-07
3.17286e-07
3.68671e-07
1.48006e-07
4.08017e-07
2.91336e-07
5.7247e-07
2.65343e-06
2.45394e-06
2.25575e-06
2.06423e-06
1.87956e-06
1.705e-06
1.53914e-06
1.38459e-06
1.23975e-06
1.10743e-06
9.92208e-07
8.88962e-07
8.02798e-07
7.11646e-07
6.3088e-07
5.18723e-07
4.58098e-07
3.21278e-07
3.69545e-07
1.54025e-07
4.13102e-07
2.85151e-07
5.66884e-07
4.46677e-06
4.1747e-06
3.89563e-06
3.63129e-06
3.37481e-06
3.12814e-06
2.89177e-06
2.66548e-06
2.44677e-06
2.23869e-06
2.03852e-06
1.85035e-06
1.67312e-06
1.50693e-06
1.35382e-06
1.21115e-06
1.08306e-06
9.71069e-07
8.69709e-07
7.86788e-07
7.00663e-07
6.25253e-07
5.17826e-07
4.58513e-07
3.23926e-07
3.6903e-07
1.59152e-07
4.16697e-07
2.81232e-07
5.60421e-07
1.00311e-05
9.5826e-06
9.11334e-06
8.62942e-06
8.14054e-06
7.65335e-06
7.17832e-06
6.71623e-06
6.27346e-06
5.84879e-06
5.4422e-06
5.05605e-06
4.68773e-06
4.33616e-06
4.00795e-06
3.70121e-06
3.40792e-06
3.13362e-06
2.87475e-06
2.63185e-06
2.4016e-06
2.18548e-06
1.98222e-06
1.79349e-06
1.61768e-06
1.4542e-06
1.30455e-06
1.16724e-06
1.04479e-06
9.37756e-07
8.39919e-07
7.61365e-07
6.81548e-07
6.12952e-07
5.11966e-07
4.55523e-07
3.2409e-07
3.66777e-07
1.62596e-07
4.19083e-07
2.78308e-07
5.53163e-07
6.34614e-05
5.9574e-05
1.0475e-05
6.85186e-07
0
0
0.000830059
0.00382654
0.0168019
0.0934412
0.551896
1.43116
2.48806
3.26763
3.31383
2.46626
1.15717
0.20464
0.0936267
0.0569938
0.0143344
0.00420417
0.00269413
0.00163515
0.000789706
0.000334221
0.000138491
5.95473e-05
2.64165e-05
1.51281e-05
1.21006e-05
1.10861e-05
1.03702e-05
9.7787e-06
9.34352e-06
9.05568e-06
8.86088e-06
8.68495e-06
8.47449e-06
8.23451e-06
7.94572e-06
7.61824e-06
7.26035e-06
6.88583e-06
6.49772e-06
6.10734e-06
5.71613e-06
5.33318e-06
4.9584e-06
4.59577e-06
4.24587e-06
3.9163e-06
3.60335e-06
3.30728e-06
3.02821e-06
2.76816e-06
2.52332e-06
2.29534e-06
2.08176e-06
1.8843e-06
1.7017e-06
1.53261e-06
1.37638e-06
1.23436e-06
1.10531e-06
9.90685e-07
8.90858e-07
7.98513e-07
7.25772e-07
6.53335e-07
5.92905e-07
4.99817e-07
4.47942e-07
3.20421e-07
3.62087e-07
1.63385e-07
4.20284e-07
2.75411e-07
5.45351e-07
5.63073e-05
6.10411e-05
5.70349e-05
9.45455e-06
5.2809e-07
0
0
0.000290978
0.00150711
0.0142416
0.0457383
0.292737
0.859486
1.66627
2.41598
2.68439
2.19413
1.1769
0.310417
0.0357413
0.0402427
0.00970052
0.00112882
0.00096535
0.000899749
0.00052216
0.000228985
9.13366e-05
3.81242e-05
1.80221e-05
1.16691e-05
1.02634e-05
9.92771e-06
9.4104e-06
8.64353e-06
7.90127e-06
7.35384e-06
6.98898e-06
6.75641e-06
6.5898e-06
6.43176e-06
6.25371e-06
6.05314e-06
5.8277e-06
5.5811e-06
5.31569e-06
5.03684e-06
4.74892e-06
4.45666e-06
4.16142e-06
3.86937e-06
3.58564e-06
3.31067e-06
3.04554e-06
2.79325e-06
2.55483e-06
2.32932e-06
2.1188e-06
1.92165e-06
1.7399e-06
1.5713e-06
1.41556e-06
1.27184e-06
1.14179e-06
1.02397e-06
9.19876e-07
8.29552e-07
7.44917e-07
6.79279e-07
6.15161e-07
5.64175e-07
4.80066e-07
4.34645e-07
3.1154e-07
3.54436e-07
1.60497e-07
4.20311e-07
2.7109e-07
5.37454e-07
3.50005e-05
3.28545e-05
4.04875e-05
3.59998e-05
6.03503e-06
2.91211e-07
0
0
1.58981e-05
0.000124571
0.00903259
0.020765
0.120176
0.42135
0.937438
1.52322
1.87366
1.70476
1.06731
0.397235
0.0560106
0.0181329
0.0065842
0.00190094
7.35339e-05
0.00026715
0.000289051
0.000175686
8.21218e-05
3.48696e-05
1.6585e-05
1.06055e-05
9.13492e-06
9.01205e-06
8.85511e-06
8.31517e-06
7.57514e-06
6.86304e-06
6.29634e-06
5.8858e-06
5.58131e-06
5.32817e-06
5.10131e-06
4.88284e-06
4.66885e-06
4.45314e-06
4.23576e-06
4.01392e-06
3.79067e-06
3.56222e-06
3.33401e-06
3.10798e-06
2.88628e-06
2.66845e-06
2.45929e-06
2.25782e-06
2.06545e-06
1.88372e-06
1.71318e-06
1.55473e-06
1.40693e-06
1.27005e-06
1.14317e-06
1.02877e-06
9.25006e-07
8.3379e-07
7.55301e-07
6.80497e-07
6.23026e-07
5.67685e-07
5.26855e-07
4.52684e-07
4.15384e-07
2.97118e-07
3.43804e-07
1.53466e-07
4.19443e-07
2.64782e-07
5.29867e-07
1.10773e-05
1.6555e-05
2.38818e-05
2.5492e-05
1.76864e-05
3.11751e-06
1.33614e-07
0
0
1.03286e-07
8.44799e-07
0.00446641
0.0115007
0.0362627
0.161849
0.430883
0.79952
1.09976
1.12481
0.82769
0.411274
0.122476
0.0151241
0.00369311
0.000306432
0.000134599
3.82788e-06
1.9669e-05
7.74417e-05
6.31248e-05
3.83853e-05
2.0518e-05
1.22606e-05
9.22594e-06
8.46249e-06
8.34419e-06
8.11353e-06
7.61156e-06
6.97037e-06
6.35101e-06
5.82668e-06
5.39658e-06
5.03682e-06
4.72124e-06
4.43252e-06
4.16078e-06
3.9022e-06
3.65358e-06
3.41667e-06
3.1871e-06
2.96648e-06
2.75529e-06
2.5545e-06
2.36151e-06
2.17839e-06
2.00358e-06
1.83718e-06
1.67989e-06
1.53233e-06
1.39434e-06
1.26548e-06
1.1453e-06
1.03384e-06
9.33273e-07
8.41707e-07
7.61264e-07
6.93124e-07
6.27593e-07
5.76762e-07
5.28365e-07
4.95636e-07
4.29689e-07
3.99353e-07
2.85312e-07
3.35072e-07
1.46729e-07
4.18688e-07
2.56403e-07
5.23824e-07
1.92971e-05
2.63615e-05
2.85163e-05
2.68869e-05
2.3087e-05
1.3819e-05
3.58324e-06
2.34876e-07
1.09507e-10
0
7.46087e-11
0.000363736
0.00149283
0.00589129
0.00998523
0.0455098
0.156126
0.34032
0.529801
0.612044
0.526474
0.332342
0.149294
0.0445878
0.00717204
0.00064469
0.000465331
3.67043e-05
4.35792e-06
1.07273e-06
8.31021e-06
2.45538e-05
2.43137e-05
1.75972e-05
1.2154e-05
9.53849e-06
8.57672e-06
8.19214e-06
7.84242e-06
7.36353e-06
6.78668e-06
6.19358e-06
5.64017e-06
5.14584e-06
4.70576e-06
4.30907e-06
3.94431e-06
3.60692e-06
3.29472e-06
3.00459e-06
2.73898e-06
2.49798e-06
2.28105e-06
2.08465e-06
1.90735e-06
1.74549e-06
1.59616e-06
1.45822e-06
1.33019e-06
1.21111e-06
1.09998e-06
9.96436e-07
9.0077e-07
8.15107e-07
7.3624e-07
6.68539e-07
6.13765e-07
5.57612e-07
5.1458e-07
4.73234e-07
4.49602e-07
3.92362e-07
3.72752e-07
2.6302e-07
3.21768e-07
1.32926e-07
4.16975e-07
2.45244e-07
5.18106e-07
3.87841e-05
3.83027e-05
3.42256e-05
3.05814e-05
2.59232e-05
2.08403e-05
1.47458e-05
7.77493e-06
1.42512e-06
1.03042e-07
3.86809e-11
0
4.15236e-05
0.000200142
0.00167533
0.00394004
0.00570578
0.0267702
0.0796316
0.15415
0.217648
0.235411
0.200026
0.135439
0.0732249
0.0310077
0.00955022
0.00171643
0.000144024
0.000137423
4.9958e-06
7.56326e-07
6.99385e-07
5.39396e-06
1.40557e-05
1.56881e-05
1.25917e-05
9.95817e-06
8.56807e-06
7.8935e-06
7.4566e-06
7.00264e-06
6.46248e-06
5.8651e-06
5.2664e-06
4.70925e-06
4.20827e-06
3.76479e-06
3.37221e-06
3.02185e-06
2.70974e-06
2.43262e-06
2.18777e-06
1.97192e-06
1.78295e-06
1.61634e-06
1.46756e-06
1.33375e-06
1.21233e-06
1.10148e-06
9.98962e-07
9.04521e-07
8.17877e-07
7.41032e-07
6.68524e-07
6.07581e-07
5.60715e-07
5.11587e-07
4.74359e-07
4.37036e-07
4.18854e-07
3.68822e-07
3.56296e-07
2.52049e-07
3.1176e-07
1.29156e-07
4.08548e-07
2.19811e-07
4.83033e-07
4.39319e-05
3.81846e-05
3.07776e-05
2.69451e-05
2.27581e-05
1.86211e-05
1.51626e-05
1.20173e-05
8.40218e-06
4.27583e-06
4.76552e-07
3.43038e-08
4.48578e-11
2.46831e-08
6.29765e-06
2.05337e-05
0.000695994
0.00186928
0.00199751
0.00671218
0.0231177
0.0466314
0.0677002
0.0768536
0.071335
0.0557143
0.0370675
0.0208089
0.00951158
0.00323856
0.0006676
3.87332e-05
4.97463e-06
2.10609e-06
3.8497e-07
1.46493e-06
9.63321e-06
1.35511e-05
1.2108e-05
9.78695e-06
8.24674e-06
7.4267e-06
6.94219e-06
6.51871e-06
6.03806e-06
5.49481e-06
4.92924e-06
4.38809e-06
3.89487e-06
3.45755e-06
3.07256e-06
2.73363e-06
2.43464e-06
2.17117e-06
1.93941e-06
1.73506e-06
1.55456e-06
1.39479e-06
1.25308e-06
1.12676e-06
1.01302e-06
9.10377e-07
8.18273e-07
7.37425e-07
6.61221e-07
5.98012e-07
5.48972e-07
5.01428e-07
4.65256e-07
4.28169e-07
4.10423e-07
3.65073e-07
3.54706e-07
2.56228e-07
3.10721e-07
1.3627e-07
4.07943e-07
2.1783e-07
4.80663e-07
3.86693e-05
3.14328e-05
2.37677e-05
2.0507e-05
1.74057e-05
1.41932e-05
1.13676e-05
9.04512e-06
7.1009e-06
5.2196e-06
3.32452e-06
1.6043e-06
3.42096e-07
2.68492e-08
1.74989e-11
7.53199e-10
5.59553e-07
7.67608e-05
0.000298362
0.000904947
0.00112179
0.00136184
0.00610798
0.0132904
0.0202176
0.0243611
0.0247026
0.021808
0.0169396
0.0114359
0.00647609
0.00290275
0.000922928
0.00015365
1.44379e-05
1.45662e-06
2.98877e-07
3.82393e-06
1.00533e-05
1.24967e-05
1.12504e-05
9.18687e-06
7.70478e-06
6.87536e-06
6.39001e-06
5.99253e-06
5.55908e-06
5.07233e-06
4.56109e-06
4.06472e-06
3.60555e-06
3.193e-06
2.8252e-06
2.49894e-06
2.20933e-06
1.952e-06
1.72417e-06
1.52293e-06
1.34626e-06
1.19126e-06
1.05505e-06
9.34979e-07
8.29988e-07
7.39285e-07
6.55661e-07
5.86902e-07
5.33959e-07
4.86292e-07
4.50683e-07
4.13114e-07
3.95667e-07
3.5445e-07
3.48361e-07
2.55394e-07
3.09343e-07
1.39238e-07
4.0821e-07
2.11902e-07
4.8039e-07
2.28454e-05
1.96741e-05
1.49122e-05
1.26893e-05
1.07345e-05
8.81498e-06
7.02511e-06
5.44537e-06
4.0842e-06
2.94331e-06
2.04798e-06
1.47051e-06
9.30399e-07
1.38139e-07
1.22041e-08
1.87559e-11
0
1.46057e-07
3.7889e-05
0.000153901
0.000443026
0.000603922
0.000277795
0.00133775
0.00344247
0.00567198
0.00740633
0.00831539
0.0083125
0.00740806
0.00575734
0.00376065
0.00196753
0.000765095
0.000189005
1.42107e-05
8.48609e-06
5.85078e-06
8.26989e-06
1.13721e-05
1.18579e-05
1.0232e-05
8.28714e-06
6.91807e-06
6.13586e-06
5.67104e-06
5.29688e-06
4.90509e-06
4.47529e-06
4.02977e-06
3.59642e-06
3.19267e-06
2.82512e-06
2.49399e-06
2.19604e-06
1.92864e-06
1.69002e-06
1.47872e-06
1.2935e-06
1.13144e-06
9.90594e-07
8.68853e-07
7.65389e-07
6.71974e-07
5.94921e-07
5.35614e-07
4.85617e-07
4.48397e-07
4.09287e-07
3.90639e-07
3.52631e-07
3.49328e-07
2.61663e-07
3.12975e-07
1.46898e-07
4.09688e-07
2.05793e-07
4.82033e-07
1.62257e-05
1.41592e-05
1.06467e-05
9.2064e-06
8.07931e-06
6.89889e-06
5.67159e-06
4.47314e-06
3.35048e-06
2.35783e-06
1.54524e-06
9.90712e-07
8.15336e-07
8.36773e-07
6.36014e-07
1.4115e-07
1.25738e-08
3.06899e-11
0
2.21512e-07
1.16011e-06
8.00542e-05
0.000209987
0.000296954
0.000200837
0.000180703
0.000773795
0.00147944
0.00218725
0.00281849
0.0032455
0.00328525
0.00284103
0.00203268
0.00116216
0.000503834
0.000148289
1.81353e-05
8.90665e-06
9.60121e-06
1.08175e-05
1.16927e-05
1.08456e-05
8.95808e-06
7.17246e-06
5.97434e-06
5.28356e-06
4.85851e-06
4.51189e-06
4.15982e-06
3.78673e-06
3.40902e-06
3.0449e-06
2.70548e-06
2.39443e-06
2.11048e-06
1.85303e-06
1.62064e-06
1.41388e-06
1.23072e-06
1.07096e-06
9.3229e-07
8.14923e-07
7.10923e-07
6.25192e-07
5.57833e-07
5.0339e-07
4.62225e-07
4.20378e-07
3.98675e-07
3.63027e-07
3.60133e-07
2.78031e-07
3.23379e-07
1.62706e-07
4.12648e-07
2.02079e-07
4.85527e-07
1.16799e-05
9.66932e-06
7.15744e-06
6.07231e-06
5.53982e-06
5.08699e-06
4.5508e-06
3.90863e-06
3.17462e-06
2.40931e-06
1.68019e-06
1.06691e-06
6.43299e-07
5.22538e-07
6.43222e-07
7.2737e-07
5.74513e-07
2.32377e-07
2.0035e-08
5.65239e-11
1.43097e-10
5.36045e-07
6.12161e-06
4.52108e-05
0.000100361
0.000141995
0.000131002
4.9363e-05
0.000111297
0.000334535
0.000644154
0.00102483
0.0013775
0.00154397
0.00142482
0.00106737
0.000635589
0.000289501
9.11748e-05
1.2594e-05
7.7748e-06
1.02417e-05
1.11208e-05
1.08632e-05
9.39757e-06
7.52544e-06
5.98913e-06
5.00001e-06
4.41774e-06
4.03708e-06
3.71748e-06
3.40213e-06
3.08288e-06
2.77022e-06
2.47441e-06
2.19943e-06
1.94607e-06
1.7135e-06
1.50219e-06
1.31166e-06
1.14258e-06
9.93846e-07
8.6658e-07
7.55226e-07
6.64155e-07
5.91205e-07
5.32014e-07
4.86666e-07
4.41921e-07
4.16361e-07
3.82147e-07
3.78436e-07
3.02091e-07
3.39198e-07
1.84975e-07
4.16768e-07
2.01036e-07
4.90588e-07
8.21672e-06
7.04166e-06
4.99115e-06
4.14106e-06
3.52119e-06
2.9339e-06
2.37985e-06
1.8662e-06
1.38964e-06
9.56628e-07
5.84826e-07
3.1399e-07
2.51631e-07
3.75269e-07
5.28114e-07
6.75514e-07
7.98647e-07
8.37033e-07
7.17496e-07
4.36041e-07
1.12938e-07
9.74324e-09
2.36922e-09
9.0052e-09
7.08704e-06
2.58368e-05
4.92721e-05
6.92382e-05
7.78147e-05
7.23519e-05
4.84542e-05
5.75316e-05
0.00020915
0.000438866
0.000664817
0.000782927
0.000735447
0.000554021
0.000331003
0.000151097
4.67918e-05
5.90037e-06
7.22111e-06
9.67065e-06
1.01525e-05
9.30516e-06
7.68688e-06
6.05674e-06
4.85055e-06
4.09636e-06
3.63305e-06
3.30166e-06
3.01093e-06
2.7297e-06
2.45653e-06
2.19767e-06
1.95691e-06
1.73464e-06
1.53089e-06
1.34505e-06
1.17771e-06
1.02857e-06
8.99034e-07
7.86406e-07
6.95991e-07
6.23008e-07
5.61598e-07
5.14192e-07
4.68222e-07
4.39598e-07
4.07012e-07
4.02138e-07
3.32202e-07
3.60816e-07
2.13648e-07
4.23282e-07
2.01735e-07
5.00682e-07
5.93061e-06
4.8631e-06
3.48594e-06
3.07655e-06
2.90869e-06
2.70584e-06
2.42181e-06
2.06735e-06
1.64366e-06
1.19277e-06
7.61928e-07
4.12957e-07
2.89445e-07
4.13405e-07
5.61005e-07
6.82328e-07
7.84725e-07
8.75985e-07
9.45487e-07
9.56874e-07
8.68927e-07
6.30449e-07
3.26193e-07
1.11369e-07
1.33016e-07
1.15569e-06
6.32036e-06
1.52915e-05
2.59463e-05
3.72063e-05
4.93275e-05
6.04068e-05
5.7807e-05
2.57507e-05
9.38575e-05
0.000233505
0.000362683
0.000421601
0.000386545
0.000283098
0.00016356
7.07027e-05
1.9454e-05
2.85741e-06
7.18487e-06
8.82759e-06
8.69107e-06
7.46077e-06
5.87975e-06
4.53777e-06
3.63898e-06
3.10396e-06
2.77145e-06
2.52009e-06
2.29191e-06
2.07056e-06
1.85732e-06
1.65586e-06
1.46881e-06
1.29701e-06
1.14113e-06
1.0014e-06
8.79018e-07
7.73458e-07
6.9169e-07
6.26768e-07
5.68769e-07
5.24553e-07
4.82187e-07
4.54371e-07
4.25094e-07
4.20898e-07
3.58347e-07
3.80311e-07
2.39731e-07
4.28904e-07
1.97951e-07
5.12739e-07
4.84889e-06
4.56126e-06
2.89781e-06
2.54162e-06
2.1268e-06
1.64721e-06
1.20869e-06
8.6213e-07
6.11108e-07
4.53179e-07
3.84333e-07
3.87859e-07
4.28585e-07
4.9243e-07
5.76119e-07
6.71066e-07
7.63628e-07
8.42522e-07
9.04703e-07
9.48612e-07
9.7097e-07
9.53179e-07
8.71034e-07
7.17386e-07
5.51223e-07
4.88918e-07
7.35927e-07
1.87271e-06
4.75992e-06
9.11907e-06
1.46179e-05
2.22376e-05
3.28121e-05
4.25153e-05
3.90177e-05
1.04811e-05
6.42237e-05
0.000149726
0.000219233
0.000242566
0.000213095
0.000149898
8.2663e-05
3.37432e-05
8.94842e-06
4.58659e-06
7.22976e-06
8.11614e-06
7.60532e-06
6.329e-06
4.93032e-06
3.79987e-06
3.02803e-06
2.53421e-06
2.20366e-06
1.95229e-06
1.73815e-06
1.54495e-06
1.36942e-06
1.21129e-06
1.07136e-06
9.49687e-07
8.46467e-07
7.60672e-07
6.98849e-07
6.51567e-07
6.03426e-07
5.65971e-07
5.29334e-07
5.02688e-07
4.74532e-07
4.68597e-07
4.07679e-07
4.2286e-07
2.75781e-07
4.54997e-07
1.73355e-07
5.60515e-07
2.08714e-06
2.0956e-06
1.29423e-06
1.38232e-06
1.35827e-06
1.21236e-06
1.03338e-06
8.87729e-07
8.12421e-07
8.11175e-07
8.61081e-07
9.30027e-07
9.76416e-07
9.70476e-07
9.09757e-07
8.14182e-07
7.26309e-07
6.79181e-07
6.79206e-07
7.06764e-07
7.38184e-07
7.60165e-07
7.64571e-07
7.43895e-07
6.95492e-07
6.32171e-07
5.86711e-07
6.12362e-07
7.98834e-07
1.29935e-06
2.27651e-06
3.78109e-06
6.07514e-06
9.91408e-06
1.5368e-05
1.96157e-05
1.65859e-05
8.95965e-06
3.67891e-05
7.38508e-05
0.000101664
0.000108628
9.35773e-05
6.54176e-05
3.66826e-05
1.59008e-05
4.24384e-06
2.13492e-06
4.53366e-06
5.34037e-06
5.12999e-06
4.42679e-06
3.62391e-06
2.92755e-06
2.3911e-06
1.99057e-06
1.68441e-06
1.44027e-06
1.23865e-06
1.07026e-06
9.29807e-07
8.14902e-07
7.23069e-07
6.49606e-07
6.03092e-07
5.73075e-07
5.31662e-07
4.96316e-07
4.63951e-07
4.40631e-07
4.1477e-07
4.13249e-07
3.57198e-07
3.78127e-07
2.29019e-07
4.13949e-07
1.40888e-07
5.16194e-07
)
;

boundaryField
{
    inlet
    {
        type            calculated;
        value           nonuniform List<scalar> 
27
(
3.35066e-06
3.28999e-06
3.23413e-06
3.18671e-06
3.14689e-06
3.11271e-06
3.08249e-06
3.05467e-06
3.02804e-06
3.00131e-06
2.97373e-06
2.9447e-06
2.91388e-06
2.88123e-06
2.84695e-06
2.81145e-06
2.77608e-06
2.72269e-06
2.68337e-06
2.64465e-06
2.60629e-06
2.56741e-06
2.52561e-06
2.47909e-06
2.42128e-06
2.36593e-06
2.25478e-06
)
;
    }
    outlet
    {
        type            calculated;
        value           nonuniform List<scalar> 
78
(
2.18218e-06
2.16057e-06
1.34503e-06
1.41349e-06
1.38112e-06
1.22977e-06
1.04449e-06
8.90161e-07
8.04151e-07
7.92498e-07
8.34165e-07
8.96759e-07
9.3672e-07
9.22189e-07
8.48787e-07
7.3476e-07
6.2399e-07
5.56231e-07
5.4552e-07
5.71097e-07
6.03341e-07
6.26577e-07
6.33415e-07
6.18922e-07
5.81911e-07
5.33808e-07
5.02347e-07
5.33224e-07
7.06862e-07
1.16385e-06
2.05581e-06
3.44154e-06
5.60498e-06
9.31852e-06
1.46707e-05
1.88515e-05
1.57166e-05
7.97014e-06
3.66867e-05
7.38226e-05
0.0001017
0.000108769
9.38269e-05
6.57262e-05
3.698e-05
1.61308e-05
4.33644e-06
1.78612e-06
4.32562e-06
5.17966e-06
4.99896e-06
4.3166e-06
3.52776e-06
2.84065e-06
2.31026e-06
1.91406e-06
1.61097e-06
1.36914e-06
1.16891e-06
1.001e-06
8.5977e-07
7.43013e-07
6.48423e-07
5.72173e-07
5.23289e-07
4.9124e-07
4.49556e-07
4.15735e-07
3.86463e-07
3.67824e-07
3.47149e-07
3.52622e-07
3.01751e-07
3.29718e-07
1.86605e-07
3.77046e-07
1.41846e-07
4.76616e-07
)
;
    }
    walls
    {
        type            calculated;
        value           nonuniform List<scalar> 0();
    }
    frontAndBack
    {
        type            empty;
    }
    procBoundary7to3
    {
        type            processor;
        value           nonuniform List<scalar> 
16
(
6.23379e-05
6.06104e-05
4.2619e-05
1.73912e-05
1.18572e-05
3.45892e-05
4.45616e-05
4.17916e-05
2.78263e-05
2.78263e-05
2.01962e-05
1.48155e-05
1.05185e-05
7.73993e-06
5.88519e-06
3.10106e-06
)
;
    }
    procBoundary7to6
    {
        type            processor;
        value           nonuniform List<scalar> 
91
(
6.47327e-07
4.29127e-07
4.29127e-07
3.34498e-07
3.34498e-07
1.1203e-07
1.1203e-07
2.72824e-07
3.28385e-07
3.28385e-07
4.71897e-07
4.23547e-07
4.23547e-07
7.93276e-07
6.92886e-07
6.03318e-07
6.03318e-07
1.11562e-06
9.98816e-07
8.95566e-07
8.95566e-07
1.71951e-06
1.55761e-06
1.40504e-06
1.25792e-06
1.25792e-06
2.62917e-06
2.44307e-06
2.25584e-06
2.07114e-06
1.89083e-06
1.89083e-06
4.11984e-06
3.90661e-06
3.69616e-06
3.48585e-06
3.2771e-06
3.06592e-06
2.85913e-06
2.85913e-06
9.2819e-06
8.76307e-06
8.2623e-06
7.786e-06
7.33158e-06
6.90212e-06
6.49607e-06
6.11502e-06
5.75434e-06
5.41428e-06
5.08598e-06
4.77067e-06
4.77067e-06
5.11709e-05
7.20481e-06
5.15008e-07
0
0
0.00145259
0.00642022
0.021309
0.162028
0.834933
1.98829
3.19559
3.89897
3.69709
2.58725
1.12753
0.148058
0.12021
0.0660103
0.0189616
0.00756711
0.00479974
0.00286192
0.00144733
0.000650946
0.000278503
0.000118567
5.04814e-05
2.38906e-05
1.54569e-05
1.28456e-05
1.1944e-05
1.15761e-05
1.1349e-05
1.11091e-05
1.07986e-05
1.04333e-05
1.04333e-05
)
;
    }
}


// ************************************************************************* //
