/*--------------------------------*- C++ -*----------------------------------*\
| =========                 |                                                 |
| \\      /  F ield         | OpenFOAM: The Open Source CFD Toolbox           |
|  \\    /   O peration     | Version:  2306                                  |
|   \\  /    A nd           | Website:  www.openfoam.com                      |
|    \\/     M anipulation  |                                                 |
\*---------------------------------------------------------------------------*/
FoamFile
{
    version     2.0;
    format      ascii;
    arch        "LSB;label=32;scalar=64";
    class       volScalarField;
    location    "25";
    object      turbulenceProperties:I;
}
// * * * * * * * * * * * * * * * * * * * * * * * * * * * * * * * * * * * * * //

dimensions      [0 0 0 0 0 0 0];

internalField   nonuniform List<scalar> 
1340
(
2.51246e-05
2.03498e-05
2.48622e-05
1.8237e-05
1.98285e-05
2.4398e-05
1.03911e-05
1.85559e-05
1.91906e-05
2.41243e-05
1.67605e-05
1.83461e-05
1.063e-05
1.89453e-05
1.8545e-05
2.40067e-05
2.1855e-05
2.06635e-05
1.70957e-05
1.86448e-05
1.10213e-05
1.93167e-05
1.79778e-05
2.39471e-05
2.81046e-05
2.63048e-05
2.45991e-05
2.21537e-05
2.08929e-05
1.7332e-05
1.88486e-05
1.14284e-05
1.96267e-05
1.75258e-05
2.38946e-05
3.32138e-05
3.14168e-05
2.97543e-05
2.82395e-05
2.64749e-05
2.48036e-05
2.23694e-05
2.10501e-05
1.75153e-05
1.89733e-05
1.17769e-05
1.98665e-05
1.71822e-05
2.38252e-05
4.12474e-05
3.92035e-05
3.71953e-05
3.51767e-05
3.32302e-05
3.14303e-05
2.97544e-05
2.82482e-05
2.65347e-05
2.49084e-05
2.2518e-05
2.11617e-05
1.76593e-05
1.90406e-05
1.2064e-05
2.00439e-05
1.69288e-05
2.37401e-05
5.16568e-05
4.96123e-05
4.75085e-05
4.53955e-05
4.32719e-05
4.11741e-05
3.90859e-05
3.70419e-05
3.50258e-05
3.30818e-05
3.12988e-05
2.96159e-05
2.81354e-05
2.64817e-05
2.49259e-05
2.25956e-05
2.12311e-05
1.7778e-05
1.907e-05
1.23099e-05
2.01729e-05
1.67498e-05
2.36291e-05
6.81679e-05
6.57558e-05
6.33855e-05
6.1073e-05
5.87627e-05
5.64699e-05
5.41998e-05
5.19495e-05
4.9695e-05
4.74653e-05
4.52317e-05
4.30386e-05
4.08774e-05
3.87521e-05
3.66942e-05
3.46755e-05
3.27632e-05
3.10041e-05
2.93283e-05
2.78834e-05
2.63017e-05
2.48354e-05
2.25922e-05
2.12533e-05
1.78596e-05
1.90639e-05
1.25164e-05
2.02653e-05
1.66363e-05
2.34991e-05
0.00010701
0.000104186
0.000101214
9.81209e-05
9.49512e-05
9.1738e-05
8.85377e-05
8.53541e-05
8.22259e-05
7.91472e-05
7.61176e-05
7.31564e-05
7.02464e-05
6.73822e-05
6.46179e-05
6.1946e-05
5.93041e-05
5.67433e-05
5.42365e-05
5.17933e-05
4.93851e-05
4.70295e-05
4.47171e-05
4.24713e-05
4.02799e-05
3.81413e-05
3.60829e-05
3.40945e-05
3.22245e-05
3.05064e-05
2.8855e-05
2.7458e-05
2.5965e-05
2.46105e-05
2.24802e-05
2.11967e-05
1.78727e-05
1.9013e-05
1.26547e-05
2.03281e-05
1.65517e-05
2.33514e-05
0.000229432
0.000221603
9.26631e-05
2.36224e-05
0
0
0.000814899
0.0017407
0.00362859
0.00855909
0.0210487
0.0348418
0.0480483
0.0585633
0.0635514
0.0593192
0.0434203
0.018899
0.0127251
0.00964033
0.00467252
0.00246056
0.00193022
0.00148264
0.00102019
0.000658978
0.000421854
0.00027528
0.000182485
0.000137442
0.000122348
0.000116581
0.000112269
0.000108568
0.000105693
0.00010363
0.000102092
0.000100658
9.90202e-05
9.72037e-05
9.50894e-05
9.27284e-05
9.01596e-05
8.74569e-05
8.46296e-05
8.17414e-05
7.87943e-05
7.58438e-05
7.28851e-05
6.99434e-05
6.70211e-05
6.4178e-05
6.13882e-05
5.86555e-05
5.59851e-05
5.34e-05
5.08698e-05
4.84156e-05
4.60176e-05
4.37007e-05
4.14584e-05
3.92825e-05
3.71721e-05
3.5155e-05
3.32257e-05
3.142e-05
2.97692e-05
2.81655e-05
2.68352e-05
2.54449e-05
2.42242e-05
2.22274e-05
2.10321e-05
1.77799e-05
1.88986e-05
1.26891e-05
2.03622e-05
1.64677e-05
2.31909e-05
0.000215782
0.000224145
0.000216379
8.79588e-05
2.07452e-05
0
0
0.000483966
0.00109684
0.00335661
0.00601077
0.0153289
0.0268235
0.0387479
0.0492327
0.0556045
0.0543175
0.0427077
0.0229429
0.00784879
0.00816151
0.00388603
0.00128799
0.0011642
0.0011051
0.000831838
0.000546346
0.000343096
0.000220682
0.0001511
0.000121052
0.000112996
0.000110602
0.000107178
0.000102259
9.73538e-05
9.35333e-05
9.08137e-05
8.89267e-05
8.74646e-05
8.60534e-05
8.45046e-05
8.27968e-05
8.09103e-05
7.88622e-05
7.66618e-05
7.43373e-05
7.19123e-05
6.94123e-05
6.68401e-05
6.42359e-05
6.16376e-05
5.90456e-05
5.64671e-05
5.39284e-05
5.14411e-05
4.89981e-05
4.66241e-05
4.43067e-05
4.20749e-05
3.99099e-05
3.7815e-05
3.57867e-05
3.38578e-05
3.20203e-05
3.03114e-05
2.87573e-05
2.72306e-05
2.5985e-05
2.47108e-05
2.36478e-05
2.17983e-05
2.07293e-05
1.75401e-05
1.87051e-05
1.25802e-05
2.03679e-05
1.63404e-05
2.30272e-05
0.000169944
0.000164453
0.000182581
0.000172205
7.04822e-05
1.54692e-05
0
0
0.000113894
0.000317826
0.00269634
0.00408151
0.00986034
0.0187228
0.0286946
0.0381698
0.044871
0.0458753
0.0389092
0.0250361
0.00963561
0.00546471
0.00322845
0.00169208
0.000324985
0.000607046
0.000621458
0.000478897
0.000324822
0.000210516
0.000144576
0.000115149
0.000106403
0.000105185
0.000103758
0.000100067
9.50784e-05
9.01132e-05
8.59587e-05
8.27762e-05
8.02859e-05
7.81333e-05
7.61494e-05
7.42083e-05
7.22809e-05
7.03202e-05
6.83229e-05
6.62637e-05
6.41619e-05
6.19804e-05
5.97586e-05
5.75089e-05
5.52459e-05
5.29611e-05
5.06981e-05
4.84458e-05
4.6218e-05
4.40322e-05
4.18976e-05
3.98294e-05
3.7815e-05
3.58633e-05
3.39677e-05
3.21736e-05
3.04647e-05
2.88856e-05
2.74646e-05
2.60483e-05
2.49052e-05
2.37553e-05
2.28675e-05
2.11802e-05
2.02755e-05
1.71368e-05
1.84292e-05
1.2305e-05
2.03516e-05
1.61516e-05
2.28689e-05
9.57643e-05
0.000117113
0.000140869
0.000145789
0.00012159
5.10784e-05
1.05753e-05
0
0
9.28424e-06
2.6496e-05
0.00192095
0.00307571
0.00546765
0.0116402
0.0193311
0.0271489
0.0332921
0.035622
0.0324845
0.0241885
0.0137064
0.00489474
0.0024135
0.000685733
0.000445783
7.36296e-05
0.00016369
0.000319574
0.000285033
0.000220412
0.000160235
0.000123328
0.000106543
0.000101587
0.00010039
9.85031e-05
9.49451e-05
9.04391e-05
8.59512e-05
8.19842e-05
7.85834e-05
7.56209e-05
7.29316e-05
7.03985e-05
6.79524e-05
6.55665e-05
6.3217e-05
6.092e-05
5.86385e-05
5.63868e-05
5.41702e-05
5.19998e-05
4.98507e-05
4.77451e-05
4.56676e-05
4.36201e-05
4.16121e-05
3.96539e-05
3.77474e-05
3.58907e-05
3.4082e-05
3.23265e-05
3.06663e-05
2.90813e-05
2.76199e-05
2.63276e-05
2.50313e-05
2.39773e-05
2.29312e-05
2.21919e-05
2.06458e-05
1.98895e-05
1.67995e-05
1.81998e-05
1.20351e-05
2.03378e-05
1.58963e-05
2.27428e-05
0.000127283
0.00014906
0.000155426
0.000151318
0.000140548
0.000108934
5.55353e-05
1.42277e-05
3.0731e-07
0
2.53532e-07
0.000559032
0.00113004
0.00223966
0.00291319
0.00623761
0.0116661
0.0175599
0.0225903
0.0253015
0.0246206
0.0205306
0.0143433
0.00807293
0.00328916
0.000989218
0.000834442
0.000230998
7.81495e-05
3.80498e-05
0.000104162
0.000176753
0.000174291
0.000147347
0.000121875
0.000107503
0.000101485
9.87124e-05
9.61083e-05
9.26733e-05
8.85499e-05
8.4212e-05
8.00178e-05
7.61178e-05
7.2503e-05
6.91153e-05
6.58812e-05
6.27757e-05
5.97906e-05
5.69076e-05
5.41603e-05
5.15639e-05
4.91291e-05
4.68344e-05
4.46782e-05
4.26312e-05
4.06682e-05
3.87822e-05
3.69605e-05
3.51957e-05
3.34783e-05
3.1807e-05
3.01915e-05
2.86758e-05
2.72143e-05
2.58984e-05
2.4789e-05
2.36078e-05
2.26603e-05
2.17134e-05
2.1147e-05
1.97381e-05
1.9224e-05
1.6136e-05
1.78407e-05
1.1458e-05
2.03007e-05
1.55486e-05
2.26232e-05
0.000182734
0.000182184
0.000172748
0.000163772
0.000151191
0.00013588
0.000114516
8.32734e-05
3.56873e-05
9.6021e-06
1.86094e-07
0
0.000192661
0.000422414
0.00121988
0.00186748
0.00224644
0.00487988
0.00848634
0.0119907
0.0145816
0.0156255
0.0149057
0.0127075
0.00966045
0.00646882
0.00366895
0.00157604
0.000458148
0.000444951
8.37462e-05
3.20457e-05
3.02983e-05
8.29146e-05
0.000132325
0.000138638
0.000123444
0.000109232
0.00010085
9.634e-05
9.31736e-05
8.98378e-05
8.58721e-05
8.14114e-05
7.67887e-05
7.2296e-05
6.80597e-05
6.41219e-05
6.04619e-05
5.70344e-05
5.383e-05
5.08442e-05
4.80756e-05
4.55159e-05
4.31669e-05
4.09993e-05
3.89761e-05
3.70757e-05
3.52753e-05
3.35591e-05
3.19015e-05
3.03048e-05
2.87713e-05
2.73461e-05
2.59382e-05
2.4696e-05
2.37006e-05
2.26198e-05
2.17639e-05
2.08735e-05
2.04183e-05
1.91436e-05
1.88013e-05
1.58008e-05
1.75659e-05
1.12969e-05
2.00985e-05
1.47223e-05
2.18484e-05
0.000197964
0.000185232
0.000166792
0.000156475
0.00014415
0.000130671
0.000118135
0.000105335
8.8186e-05
6.29663e-05
2.10339e-05
5.64537e-06
2.04165e-07
4.78808e-06
7.64285e-05
0.000137836
0.000801081
0.00131041
0.00135317
0.00248306
0.00462923
0.00663551
0.00811035
0.00880729
0.00868122
0.00786969
0.00659347
0.00507464
0.00351826
0.00209642
0.0009652
0.000233619
8.33565e-05
5.36156e-05
2.25773e-05
4.33668e-05
0.000109723
0.000128765
0.000120747
0.000107885
9.8507e-05
9.30083e-05
8.94649e-05
8.62448e-05
8.25771e-05
7.83813e-05
7.3885e-05
6.93996e-05
6.51097e-05
6.11062e-05
5.73939e-05
5.39523e-05
5.07554e-05
4.77895e-05
4.5043e-05
4.24952e-05
4.01283e-05
3.7926e-05
3.58733e-05
3.39518e-05
3.21347e-05
3.04124e-05
2.87881e-05
2.72894e-05
2.5806e-05
2.45105e-05
2.34607e-05
2.24033e-05
2.15629e-05
2.06692e-05
2.02201e-05
1.90539e-05
1.87666e-05
1.59369e-05
1.75419e-05
1.16069e-05
2.00876e-05
1.46583e-05
2.17982e-05
0.000188623
0.000170615
0.000148725
0.000138439
0.000127784
0.000115586
0.000103598
9.25316e-05
8.20763e-05
7.04318e-05
5.62488e-05
3.90936e-05
1.80582e-05
5.05972e-06
1.29164e-07
8.47125e-07
2.30728e-05
0.000269914
0.000531254
0.000923525
0.00102684
0.00113138
0.00240146
0.00356101
0.00442994
0.00492115
0.00503111
0.00481384
0.0043331
0.00364553
0.00281307
0.00192936
0.00110958
0.000458134
0.000140742
4.44057e-05
1.98637e-05
7.00139e-05
0.000111956
0.000123386
0.000116023
0.000104113
9.47927e-05
8.90713e-05
8.54258e-05
8.22991e-05
7.88624e-05
7.49585e-05
7.0747e-05
6.64922e-05
6.23668e-05
5.84662e-05
5.48007e-05
5.13699e-05
4.81542e-05
4.51354e-05
4.2309e-05
3.96676e-05
3.72129e-05
3.49335e-05
3.28137e-05
3.08364e-05
2.90069e-05
2.73355e-05
2.57078e-05
2.42914e-05
2.31466e-05
2.2071e-05
2.12303e-05
2.03101e-05
1.98607e-05
1.87817e-05
1.86047e-05
1.59162e-05
1.7508e-05
1.17356e-05
2.00979e-05
1.44601e-05
2.17953e-05
0.000146983
0.000136701
0.000119214
0.000110129
0.000101421
9.20099e-05
8.22194e-05
7.24479e-05
6.27872e-05
5.33317e-05
4.45066e-05
3.77256e-05
3.00142e-05
1.15662e-05
3.43776e-06
1.34746e-07
0
1.18774e-05
0.000191089
0.000384565
0.000651438
0.000759587
0.000514913
0.00113095
0.00181919
0.00234656
0.00270088
0.00289016
0.00292727
0.00280976
0.00252866
0.00209328
0.00155258
0.000990184
0.000499969
0.000137961
0.000106274
8.7355e-05
0.000102476
0.000118565
0.000119672
0.000110138
9.83992e-05
8.93653e-05
8.37095e-05
8.00624e-05
7.6985e-05
7.37167e-05
7.00775e-05
6.61978e-05
6.22724e-05
5.84416e-05
5.47732e-05
5.12884e-05
4.79759e-05
4.48298e-05
4.18527e-05
3.90529e-05
3.6443e-05
3.40136e-05
3.17663e-05
2.96992e-05
2.7831e-05
2.60398e-05
2.4469e-05
2.31931e-05
2.20653e-05
2.11852e-05
2.02238e-05
1.97419e-05
1.87408e-05
1.86376e-05
1.61161e-05
1.76158e-05
1.20574e-05
2.01384e-05
1.42528e-05
2.18361e-05
0.000124751
0.000116724
0.000101343
9.43393e-05
8.84589e-05
8.18087e-05
7.42284e-05
6.5961e-05
5.71159e-05
4.79341e-05
3.88181e-05
3.10901e-05
2.82094e-05
2.85808e-05
2.49182e-05
1.17383e-05
3.50301e-06
1.73021e-07
0
1.46835e-05
3.35715e-05
0.000278545
0.000450537
0.000535143
0.000439789
0.000417209
0.000864391
0.00119824
0.00146301
0.00167131
0.00181047
0.0018466
0.00174943
0.00151418
0.00117404
0.000791273
0.000436727
0.000153964
0.000107748
0.000110918
0.000116309
0.000119407
0.000113728
0.000102431
9.1e-05
8.25598e-05
7.72293e-05
7.36865e-05
7.06641e-05
6.75318e-05
6.41422e-05
6.0601e-05
5.70457e-05
5.35737e-05
5.02269e-05
4.7005e-05
4.39156e-05
4.09589e-05
3.81623e-05
3.55243e-05
3.307e-05
3.0797e-05
2.87441e-05
2.68058e-05
2.51021e-05
2.36849e-05
2.24792e-05
2.15215e-05
2.05068e-05
1.99539e-05
1.90243e-05
1.89323e-05
1.66195e-05
1.79127e-05
1.26937e-05
2.0216e-05
1.41267e-05
2.19194e-05
0.000106348
9.68768e-05
8.34243e-05
7.68988e-05
7.34978e-05
7.04697e-05
6.66846e-05
6.18261e-05
5.57384e-05
4.8571e-05
4.05701e-05
3.23344e-05
2.51106e-05
2.26328e-05
2.51111e-05
2.67023e-05
2.37292e-05
1.50894e-05
4.4298e-06
2.35222e-07
3.74105e-07
2.28834e-05
7.72689e-05
0.00020978
0.000312218
0.000370997
0.000356078
0.000218509
0.000328187
0.000569556
0.000792042
0.00100321
0.00117185
0.0012559
0.00122799
0.001087
0.000859782
0.000593682
0.000338786
0.000126894
9.95711e-05
0.000113367
0.000116798
0.000114092
0.000105027
9.31974e-05
8.25808e-05
7.50266e-05
7.01648e-05
6.67534e-05
6.37633e-05
6.07318e-05
5.75725e-05
5.43629e-05
5.11922e-05
4.81014e-05
4.51049e-05
4.22019e-05
3.94092e-05
3.67355e-05
3.42097e-05
3.18408e-05
2.96774e-05
2.76587e-05
2.58981e-05
2.4405e-05
2.31288e-05
2.21002e-05
2.10407e-05
2.04053e-05
1.95311e-05
1.94187e-05
1.73329e-05
1.8354e-05
1.354e-05
2.0323e-05
1.40941e-05
2.20386e-05
8.94642e-05
8.28893e-05
6.98293e-05
6.36391e-05
5.871e-05
5.36119e-05
4.83017e-05
4.27852e-05
3.69293e-05
3.06462e-05
2.39655e-05
1.75623e-05
1.57231e-05
1.92018e-05
2.27789e-05
2.57613e-05
2.80087e-05
2.86705e-05
2.65404e-05
2.06861e-05
1.05252e-05
3.09048e-06
1.52335e-06
2.9683e-06
8.32131e-05
0.000158752
0.000219032
0.000259418
0.000274806
0.000264822
0.000216627
0.000236042
0.000450497
0.000654641
0.000811323
0.000891155
0.000879174
0.000780251
0.000617655
0.000426278
0.000240728
8.5989e-05
9.48963e-05
0.000108921
0.000110408
0.000104573
9.41656e-05
8.29545e-05
7.37775e-05
6.74412e-05
6.32091e-05
5.99871e-05
5.70417e-05
5.40945e-05
5.11237e-05
4.81862e-05
4.53228e-05
4.25435e-05
3.98564e-05
3.72639e-05
3.47874e-05
3.24405e-05
3.027e-05
2.82602e-05
2.65433e-05
2.50805e-05
2.37878e-05
2.27386e-05
2.16773e-05
2.09845e-05
2.01723e-05
2.00321e-05
1.81881e-05
1.89405e-05
1.45588e-05
2.04891e-05
1.41232e-05
2.22707e-05
7.61707e-05
6.90179e-05
5.84607e-05
5.49411e-05
5.34379e-05
5.15543e-05
4.87842e-05
4.5081e-05
4.02027e-05
3.42513e-05
2.73774e-05
2.01564e-05
1.68755e-05
2.01679e-05
2.34934e-05
2.59079e-05
2.77816e-05
2.93491e-05
3.04867e-05
3.06644e-05
2.92153e-05
2.48796e-05
1.78911e-05
1.04506e-05
1.14164e-05
3.36338e-05
7.86055e-05
0.000122178
0.000159027
0.000190282
0.000218916
0.000242038
0.000236545
0.000157772
0.000301369
0.000476856
0.000598735
0.000653909
0.000637682
0.000557827
0.000433537
0.000290342
0.000154024
5.91981e-05
9.34649e-05
0.0001027
0.000100872
9.25707e-05
8.15209e-05
7.11523e-05
6.33773e-05
5.82619e-05
5.48198e-05
5.2067e-05
4.94676e-05
4.68529e-05
4.42295e-05
4.16352e-05
3.91033e-05
3.66504e-05
3.42957e-05
3.20573e-05
2.99745e-05
2.80656e-05
2.64964e-05
2.51879e-05
2.3968e-05
2.29929e-05
2.20219e-05
2.13558e-05
2.06352e-05
2.05121e-05
1.89055e-05
1.94591e-05
1.54313e-05
2.0635e-05
1.39955e-05
2.25473e-05
6.89445e-05
6.68951e-05
5.3335e-05
4.99611e-05
4.57113e-05
4.0235e-05
3.44702e-05
2.91153e-05
2.45149e-05
2.11122e-05
1.94433e-05
1.95326e-05
2.05324e-05
2.2008e-05
2.38035e-05
2.56883e-05
2.74001e-05
2.87773e-05
2.98161e-05
3.05262e-05
3.08782e-05
3.05877e-05
2.92334e-05
2.65233e-05
2.32429e-05
2.18826e-05
2.68362e-05
4.27886e-05
6.8178e-05
9.43075e-05
0.000119321
0.000147058
0.000178466
0.000202903
0.00019412
0.000100524
0.00024904
0.000381804
0.000466108
0.00049737
0.000475198
0.000407278
0.000308716
0.000200328
0.000103984
7.44459e-05
9.28983e-05
9.75124e-05
9.34545e-05
8.4486e-05
7.40121e-05
6.45839e-05
5.7366e-05
5.22553e-05
4.85408e-05
4.55274e-05
4.2818e-05
4.02473e-05
3.77877e-05
3.54493e-05
3.3262e-05
3.125e-05
2.94457e-05
2.78637e-05
2.66638e-05
2.57111e-05
2.47158e-05
2.39104e-05
2.30988e-05
2.24865e-05
2.18242e-05
2.16638e-05
2.01824e-05
2.05343e-05
1.65618e-05
2.12648e-05
1.31024e-05
2.35856e-05
4.52576e-05
4.53577e-05
3.56486e-05
3.68438e-05
3.65233e-05
3.45067e-05
3.18585e-05
2.95283e-05
2.82478e-05
2.82254e-05
2.90796e-05
3.02197e-05
3.0962e-05
3.08651e-05
2.9881e-05
2.82648e-05
2.66927e-05
2.58088e-05
2.58057e-05
2.63199e-05
2.68942e-05
2.72867e-05
2.73604e-05
2.69823e-05
2.6084e-05
2.48622e-05
2.39453e-05
2.44558e-05
2.79225e-05
3.55973e-05
4.70977e-05
6.06695e-05
7.68628e-05
9.8126e-05
0.000122061
0.000137738
0.000126496
9.29105e-05
0.000188469
0.000268128
0.000317191
0.000332037
0.000313178
0.000266461
0.000202746
0.000135068
7.02028e-05
4.98106e-05
7.22985e-05
7.7966e-05
7.58703e-05
6.99998e-05
6.29554e-05
5.62939e-05
5.06519e-05
4.60386e-05
4.22077e-05
3.8912e-05
3.59888e-05
3.33722e-05
3.10374e-05
2.89983e-05
2.72652e-05
2.57985e-05
2.48179e-05
2.4159e-05
2.32426e-05
2.24307e-05
2.16619e-05
2.10861e-05
2.04337e-05
2.03718e-05
1.89144e-05
1.94393e-05
1.51055e-05
2.03019e-05
1.18151e-05
2.26631e-05
)
;

boundaryField
{
    inlet
    {
        type            calculated;
        value           nonuniform List<scalar> 
27
(
5.74013e-05
5.68871e-05
5.64089e-05
5.59998e-05
5.56548e-05
5.53579e-05
5.5095e-05
5.48524e-05
5.46194e-05
5.43844e-05
5.41405e-05
5.38821e-05
5.36057e-05
5.33108e-05
5.29989e-05
5.26735e-05
5.23474e-05
5.18474e-05
5.14763e-05
5.11078e-05
5.07404e-05
5.0366e-05
4.99611e-05
4.95069e-05
4.89386e-05
4.83889e-05
4.72729e-05
)
;
    }
    outlet
    {
        type            calculated;
        value           nonuniform List<scalar> 
78
(
4.62771e-05
4.60559e-05
3.63418e-05
3.72572e-05
3.68296e-05
3.4754e-05
3.20296e-05
2.9569e-05
2.81039e-05
2.78989e-05
2.86218e-05
2.96746e-05
3.03264e-05
3.00877e-05
2.88627e-05
2.68511e-05
2.47415e-05
2.33566e-05
2.31273e-05
2.36597e-05
2.43144e-05
2.47738e-05
2.49038e-05
2.46122e-05
2.38597e-05
2.28467e-05
2.21574e-05
2.28214e-05
2.62666e-05
3.3691e-05
4.47578e-05
5.78831e-05
7.38312e-05
9.51366e-05
0.000119265
0.000135035
0.000123143
8.76347e-05
0.000188216
0.000268085
0.000317245
0.000332229
0.00031355
0.000267029
0.000203505
0.000135994
7.09378e-05
4.55431e-05
7.0595e-05
7.6759e-05
7.48733e-05
6.91053e-05
6.21003e-05
5.54407e-05
4.97791e-05
4.51376e-05
4.12712e-05
3.79339e-05
3.49567e-05
3.22709e-05
2.98426e-05
2.76872e-05
2.58174e-05
2.42103e-05
2.31161e-05
2.23662e-05
2.13714e-05
2.05281e-05
1.97693e-05
1.92646e-05
1.86932e-05
1.88176e-05
1.7384e-05
1.81519e-05
1.36349e-05
1.93754e-05
1.1855e-05
2.17766e-05
)
;
    }
    walls
    {
        type            calculated;
        value           nonuniform List<scalar> 0();
    }
    frontAndBack
    {
        type            empty;
    }
    procBoundary7to3
    {
        type            processor;
        value           nonuniform List<scalar> 
16
(
0.000228172
0.000224585
0.000187945
0.000120067
9.96555e-05
0.000172093
0.000198682
0.000195443
0.000161871
0.000161871
0.000138963
0.000119635
0.000101138
8.6963e-05
7.59236e-05
5.51555e-05
)
;
    }
    procBoundary7to6
    {
        type            processor;
        value           nonuniform List<scalar> 
91
(
2.51971e-05
2.05427e-05
2.05427e-05
1.8124e-05
1.8124e-05
1.04857e-05
1.04857e-05
1.6347e-05
1.79452e-05
1.79452e-05
2.14858e-05
2.0364e-05
2.0364e-05
2.7856e-05
2.6038e-05
2.4301e-05
2.4301e-05
3.30631e-05
3.12835e-05
2.96235e-05
2.96235e-05
4.11683e-05
3.91634e-05
3.71805e-05
3.51676e-05
3.51676e-05
5.12502e-05
4.93498e-05
4.73738e-05
4.53514e-05
4.32964e-05
4.32964e-05
6.5113e-05
6.32849e-05
6.14451e-05
5.95682e-05
5.76621e-05
5.56862e-05
5.36964e-05
5.36964e-05
0.00010162
9.84152e-05
9.52561e-05
9.21821e-05
8.91811e-05
8.62762e-05
8.34623e-05
8.07552e-05
7.81294e-05
7.55912e-05
7.3082e-05
7.06112e-05
7.06112e-05
0.000204934
7.66467e-05
2.04109e-05
0
0
0.00107273
0.00224333
0.00406469
0.0112201
0.0258473
0.0411906
0.0548926
0.0647278
0.0679735
0.0613378
0.0430076
0.0160221
0.0143034
0.010276
0.00532784
0.00327842
0.00256188
0.00195106
0.00137304
0.000913289
0.000593374
0.000384931
0.000249877
0.0001711
0.00013704
0.000124436
0.000119532
0.00011723
0.000115626
0.000113951
0.000111904
0.000109564
0.000109564
)
;
    }
}


// ************************************************************************* //
