# p  FACE_DATA 300
# x y z  p
0.29787915 -0.05 0.060005454 11703.731
0.29366024 -0.05 0.059998184 11721.202
0.28948669 -0.05 0.059982824 11740.708
0.28535801 -0.05 0.05995956 11760.08
0.28127374 -0.05 0.05992843 11780.601
0.27723342 -0.05 0.059889544 11800.976
0.27323659 -0.05 0.059843055 11821.921
0.2692828 -0.05 0.059789027 11843.206
0.26537161 -0.05 0.059727601 11864.461
0.26150257 -0.05 0.05965892 11886.182
0.25767524 -0.05 0.059583046 11908.482
0.2538892 -0.05 0.059500074 11931.151
0.25014401 -0.05 0.059410118 11954.195
0.24643926 -0.05 0.059313284 11977.658
0.24277452 -0.05 0.059209674 12001.481
0.23914938 -0.05 0.059099387 12025.613
0.23556344 -0.05 0.058982537 12049.823
0.23201627 -0.05 0.058859254 12074.319
0.2285075 -0.05 0.058729541 12099.805
0.22503671 -0.05 0.058593532 12124.722
0.22160352 -0.05 0.058451379 12150.451
0.21820754 -0.05 0.058303115 12176.368
0.21484838 -0.05 0.058148846 12202.678
0.21152567 -0.05 0.05798866 12229.308
0.20823903 -0.05 0.057822651 12256.377
0.20498809 -0.05 0.057650874 12283.918
0.20177248 -0.05 0.057473468 12311.166
0.19859184 -0.05 0.057290478 12339.529
0.1954458 -0.05 0.057101994 12367.149
0.19233402 -0.05 0.056908168 12395.454
0.18925614 -0.05 0.056708999 12424.27
0.18621181 -0.05 0.056504563 12453.455
0.1832007 -0.05 0.056294919 12483.061
0.18022246 -0.05 0.05608023 12512.124
0.17727675 -0.05 0.055860526 12542.602
0.17436324 -0.05 0.055635849 12572.3
0.1714816 -0.05 0.055406376 12602.451
0.16863151 -0.05 0.055172052 12633.821
0.16581265 -0.05 0.054932944 12664.902
0.16302469 -0.05 0.054689208 12696.506
0.16026733 -0.05 0.054440898 12728.611
0.15754024 -0.05 0.054188056 12761.285
0.15484313 -0.05 0.053930725 12794.117
0.15217569 -0.05 0.053668978 12827.088
0.14953762 -0.05 0.053402889 12860.418
0.14692863 -0.05 0.053132457 12894.474
0.14434842 -0.05 0.052857799 12927.63
0.14179669 -0.05 0.052579044 12961.685
0.13927317 -0.05 0.05229612 12997.207
0.13677757 -0.05 0.052009061 13032.819
0.13430961 -0.05 0.051717985 13068.512
0.13186901 -0.05 0.051422994 13104.132
0.1294555 -0.05 0.05112408 13141.17
0.12706881 -0.05 0.050821224 13178.544
0.12470868 -0.05 0.050514504 13216.045
0.12237483 -0.05 0.05020403 13253.201
0.12006701 -0.05 0.049889836 13291.594
0.11778495 -0.05 0.049571874 13330.647
0.11552842 -0.05 0.049250263 13369.313
0.11329715 -0.05 0.048924992 13409.232
0.1110909 -0.05 0.048596121 13448.632
0.10890943 -0.05 0.048263656 13490.544
0.10675251 -0.05 0.047927554 13531.923
0.10461987 -0.05 0.047587958 13573.392
0.1025113 -0.05 0.047244937 13615.038
0.10042655 -0.05 0.046898432 13658.826
0.098365405 -0.05 0.046548446 13702.71
0.096327639 -0.05 0.046195043 13747.398
0.094313028 -0.05 0.045838237 13792.133
0.092321357 -0.05 0.045478019 13838.262
0.090352417 -0.05 0.04511438 13884.172
0.088405979 -0.05 0.044747421 13930.468
0.086481845 -0.05 0.044377096 13978.3
0.084579815 -0.05 0.044003384 14026.185
0.082699669 -0.05 0.043626385 14074.746
0.080841229 -0.05 0.043246005 14125.18
0.0790043 -0.05 0.042862236 14174.925
0.077188666 -0.05 0.0424752 14225.251
0.07539416 -0.05 0.04208479 14277.394
0.073620599 -0.05 0.041690997 14329.593
0.071867788 -0.05 0.041293877 14383.525
0.070135557 -0.05 0.040893384 14438.817
0.068423743 -0.05 0.040489458 14495.334
0.066732169 -0.05 0.040082112 14551.213
0.065060663 -0.05 0.039671361 14608.459
0.063409062 -0.05 0.039257174 14666.584
0.061777219 -0.05 0.038839488 14726.967
0.060164984 -0.05 0.038418265 14787.648
0.058572196 -0.05 0.037993513 14849.945
0.056998721 -0.05 0.037565159 14913.37
0.055444419 -0.05 0.03713316 14977.673
0.053909142 -0.05 0.036697516 15042.662
0.052392764 -0.05 0.03625817 15110.647
0.050895177 -0.05 0.035815009 15180.821
0.049416244 -0.05 0.035368033 15251.716
0.047955856 -0.05 0.034917167 15323.365
0.046513915 -0.05 0.034462309 15395.106
0.045090302 -0.05 0.034003445 15469.767
0.043684931 -0.05 0.033540468 15549.368
0.042297731 -0.05 0.03307324 15631.929
0.040928604 -0.05 0.032601734 15716.291
0.039577476 -0.05 0.032125845 15804.279
0.038244291 -0.05 0.03164545 15894.394
0.036928981 -0.05 0.031160474 15987.548
0.0356315 -0.05 0.030670795 16084.185
0.03435181 -0.05 0.030176299 16187.132
0.033089918 -0.05 0.029676761 16300.706
0.031845783 -0.05 0.029172106 16423.238
0.030619394 -0.05 0.02866221 16555.099
0.029410776 -0.05 0.028146878 16693.252
0.028219949 -0.05 0.027625962 16842.42
0.027046957 -0.05 0.027099267 16998.913
0.025891857 -0.05 0.026566614 17159.404
0.02475474 -0.05 0.026027768 17323.312
0.023635681 -0.05 0.025482558 17492.651
0.022534817 -0.05 0.024930717 17668.205
0.021452274 -0.05 0.024372036 17848.057
0.020388213 -0.05 0.023806274 18034.138
0.019342865 -0.05 0.023233111 18226.102
0.018316468 -0.05 0.022652259 18428.194
0.017309264 -0.05 0.02206346 18644.481
0.016321577 -0.05 0.021466368 18877.015
0.015353757 -0.05 0.020860645 19119.14
0.014406156 -0.05 0.020245997 19373.001
0.013479274 -0.05 0.019622013 19640.324
0.012573638 -0.05 0.018988323 19925.195
0.0116898 -0.05 0.018344552 20234.707
0.010828378 -0.05 0.017690314 20572.515
0.0099901249 -0.05 0.017025149 20936.181
0.0091759198 -0.05 0.016348644 21321.228
0.008386597 -0.05 0.0156605 21730.87
0.0076231725 -0.05 0.014960218 22167.51
0.0068867853 -0.05 0.014247452 22628.813
0.0061787359 -0.05 0.013521944 23122.128
0.0055003792 -0.05 0.012783302 23645.938
0.0048530826 -0.05 0.012031363 24202.451
0.0042385571 -0.05 0.011266143 24800.162
0.0036585397 -0.05 0.010487553 25441.441
0.0031148319 -0.05 0.0096957287 26116.865
0.0026094399 -0.05 0.0088912322 26819.638
0.0021442246 -0.05 0.0080745628 27545.882
0.0017210465 -0.05 0.0072465895 28291.029
0.0013418093 -0.05 0.0064087151 29053.697
0.0010080919 -0.05 0.0055623679 29819.605
0.00072127228 -0.05 0.0047092571 30576.874
0.00048251081 -0.05 0.0038515496 31318.187
0.00029236329 -0.05 0.0029916287 32026.702
0.0001508317 -0.05 0.0021320102 32686.607
5.7495879e-05 -0.05 0.0012752716 33289.206
1.1394864e-05 -0.05 0.00042397109 33829.104
0.99768066 -0.05 0.00033611804 26527.699
0.99304169 -0.05 0.0010063364 26495.227
0.98840215 -0.05 0.0016726212 26433.923
0.98376207 -0.05 0.0023350721 26379.892
0.97912143 -0.05 0.0029936636 26323.349
0.97448026 -0.05 0.00364841 26267.796
0.96983855 -0.05 0.0042993733 26212.028
0.96519632 -0.05 0.0049465845 26156.454
0.96055356 -0.05 0.0055900577 26100.927
0.95591031 -0.05 0.0062298653 26045.461
0.95126654 -0.05 0.0068660327 25990.115
0.94662227 -0.05 0.0074985225 25934.905
0.94197753 -0.05 0.0081274235 25879.807
0.9373323 -0.05 0.008752761 25824.914
0.93268659 -0.05 0.0093745713 25770.153
0.92804042 -0.05 0.0099928964 25715.629
0.92339378 -0.05 0.010607714 25661.34
0.91874669 -0.05 0.011219031 25607.323
0.91409914 -0.05 0.011826962 25553.476
0.90945116 -0.05 0.012431486 25500.021
0.90480273 -0.05 0.013032571 25446.791
0.90015387 -0.05 0.013630361 25393.859
0.89550457 -0.05 0.014224739 25341.375
0.89085486 -0.05 0.014815813 25289.051
0.88620473 -0.05 0.01540363 25237.216
0.88155418 -0.05 0.0159881 25185.677
0.87690323 -0.05 0.016569356 25134.452
0.87225187 -0.05 0.017147383 25083.597
0.86760011 -0.05 0.017722168 25033.091
0.86294796 -0.05 0.018293719 24982.958
0.85829541 -0.05 0.018862095 24933.12
0.85364248 -0.05 0.019427289 24883.708
0.84898916 -0.05 0.01998931 24834.568
0.84433547 -0.05 0.020548224 24785.81
0.83968139 -0.05 0.021103928 24737.514
0.83502695 -0.05 0.021656533 24689.384
0.83037214 -0.05 0.022206072 24641.697
0.82571697 -0.05 0.022752481 24594.274
0.82106143 -0.05 0.023295768 24547.271
0.81640552 -0.05 0.023835961 24500.469
0.81174928 -0.05 0.024373126 24453.978
0.80709266 -0.05 0.024907211 24407.759
0.80243571 -0.05 0.025438235 24361.816
0.7977784 -0.05 0.025966147 24316.259
0.79312074 -0.05 0.026490982 24270.869
0.78846275 -0.05 0.027012845 24225.678
0.78380442 -0.05 0.027531686 24180.775
0.77914574 -0.05 0.028047403 24136.202
0.77448674 -0.05 0.028560079 24091.689
0.7698274 -0.05 0.029069753 24047.439
0.76516772 -0.05 0.02957633 24003.383
0.7605077 -0.05 0.030079852 23959.438
0.75584737 -0.05 0.030580367 23915.558
0.75118671 -0.05 0.03107785 23871.803
0.74652573 -0.05 0.031572241 23828.161
0.74186441 -0.05 0.032063551 23784.575
0.73720278 -0.05 0.032551782 23741.04
0.73254082 -0.05 0.03303698 23697.439
0.72787854 -0.05 0.033519069 23653.939
0.72321595 -0.05 0.033998064 23610.213
0.71855304 -0.05 0.034473962 23566.547
0.71388981 -0.05 0.03494667 23522.697
0.70922626 -0.05 0.035416302 23478.579
0.7045624 -0.05 0.035882849 23434.197
0.69989823 -0.05 0.036346252 23389.5
0.69523375 -0.05 0.036806454 23344.502
0.69056894 -0.05 0.037263403 23299.101
0.68590382 -0.05 0.037717206 23253.098
0.68123839 -0.05 0.038167801 23206.682
0.67657265 -0.05 0.038615123 23159.518
0.67190661 -0.05 0.039059237 23111.628
0.66724025 -0.05 0.039500049 23062.953
0.66257357 -0.05 0.039937521 23013.34
0.6579066 -0.05 0.040371712 22962.607
0.65323931 -0.05 0.040802591 22910.718
0.64857171 -0.05 0.041230085 22857.519
0.6439038 -0.05 0.041654149 22802.932
0.63923558 -0.05 0.042074786 22746.742
0.63456705 -0.05 0.042492 22688.87
0.62989822 -0.05 0.042905734 22629.139
0.62522907 -0.05 0.043315943 22567.406
0.6205596 -0.05 0.043722625 22503.445
0.61588983 -0.05 0.044125719 22437.159
0.61121975 -0.05 0.044525219 22368.264
0.60654937 -0.05 0.044921074 22296.723
0.60187867 -0.05 0.045313219 22222.231
0.59720766 -0.05 0.045701683 22144.672
0.59253634 -0.05 0.046086399 22063.884
0.58786471 -0.05 0.046467288 21979.677
0.58319277 -0.05 0.046844345 21891.81
0.57852051 -0.05 0.047217535 21800.285
0.57384795 -0.05 0.047586814 21705.029
0.56917507 -0.05 0.047952124 21605.945
0.56450189 -0.05 0.048313436 21502.775
0.55982839 -0.05 0.048670677 21395.501
0.55515457 -0.05 0.04902381 21284.124
0.55048045 -0.05 0.04937281 21168.83
0.54580601 -0.05 0.04971755 21049.348
0.54113126 -0.05 0.050058049 20925.667
0.5364562 -0.05 0.050394263 20797.87
0.53178083 -0.05 0.050726133 20666.11
0.52710515 -0.05 0.051053569 20530.613
0.52242915 -0.05 0.051376464 20391.311
0.51775284 -0.05 0.051694815 20248.535
0.51307623 -0.05 0.052008601 20102.89
0.5083993 -0.05 0.052317708 19954.476
0.50372205 -0.05 0.052622097 19803.043
0.4990445 -0.05 0.052921701 19648.444
0.49436664 -0.05 0.053216429 19490.708
0.48968848 -0.05 0.053506199 19330.459
0.48501001 -0.05 0.053790938 19168.702
0.48033122 -0.05 0.054070626 19006.733
0.47565213 -0.05 0.05434516 18845.804
0.47097274 -0.05 0.054614471 18686.911
0.46629305 -0.05 0.054878504 18530.215
0.46161306 -0.05 0.055137129 18373.994
0.45693276 -0.05 0.055390258 18215.215
0.45225217 -0.05 0.05563783 18041.813
0.44757129 -0.05 0.055879797 17829.014
0.44289011 -0.05 0.056116052 17564.16
0.43820865 -0.05 0.05634646 17227.683
0.43352689 -0.05 0.056570934 16607.75
0.42884485 -0.05 0.056789428 15442.878
0.42416254 -0.05 0.057001839 14018.82
0.41947995 -0.05 0.057208045 12848.576
0.41479707 -0.05 0.057407955 12118.913
0.41011393 -0.05 0.057601449 11757.948
0.40543053 -0.05 0.057788457 11572.145
0.40074687 -0.05 0.057968848 11493.895
0.39606296 -0.05 0.058142512 11458.199
0.3913788 -0.05 0.05830933 11445.053
0.38669439 -0.05 0.058469176 11441.523
0.38200975 -0.05 0.058621944 11442.069
0.37732488 -0.05 0.058767528 11447.883
0.37263978 -0.05 0.058905769 11456.717
0.36795448 -0.05 0.059036526 11466.935
0.36326896 -0.05 0.059159727 11478.109
0.35858325 -0.05 0.059275201 11490.23
0.35389736 -0.05 0.059382803 11502.829
0.34921128 -0.05 0.05948244 11515.974
0.34452504 -0.05 0.059573923 11530.089
0.33983865 -0.05 0.059657062 11544.703
0.33515211 -0.05 0.059731741 11559.762
0.33046544 -0.05 0.059797856 11575.177
0.32577866 -0.05 0.059855197 11591.682
0.32109177 -0.05 0.059903555 11608.554
0.31640481 -0.05 0.059942821 11625.931
0.31171778 -0.05 0.059972784 11643.625
0.30703069 -0.05 0.059993273 11661.951
0.30234357 -0.05 0.060004087 11682.663
