/*--------------------------------*- C++ -*----------------------------------*\
| =========                 |                                                 |
| \\      /  F ield         | OpenFOAM: The Open Source CFD Toolbox           |
|  \\    /   O peration     | Version:  2306                                  |
|   \\  /    A nd           | Website:  www.openfoam.com                      |
|    \\/     M anipulation  |                                                 |
\*---------------------------------------------------------------------------*/
FoamFile
{
    version     2.0;
    format      ascii;
    arch        "LSB;label=32;scalar=64";
    class       volScalarField;
    location    "650";
    object      turbulenceProperties:epsilon;
}
// * * * * * * * * * * * * * * * * * * * * * * * * * * * * * * * * * * * * * //

dimensions      [0 2 -3 0 0 0 0];

internalField   nonuniform List<scalar> 
1340
(
334.419
232.374
145.748
16.2707
26.5015
21.7454
17.5738
20.2067
31.9667
23.9923
16.941
20.495
32.391
26.597
19.7612
21.4736
16.8957
21.0061
19.7608
21.8243
1.65817
7.51549
13.986
19.867
0.0337216
0.41547
4.90057
14.1049
0.0241376
0.0272907
0.464931
6.38501
0
0.00983043
0.0254402
1.52334
0
1.6742e-05
0.00390051
0.191728
0
0
0.000842419
0.0275578
2.9405e-09
0
0.000103749
0.00834228
1.22457e-06
1.34232e-13
3.11391e-05
0.00278688
5.01806e-06
2.81519e-09
5.63792e-07
0.000698275
4.23044e-06
9.53937e-07
4.58559e-11
4.28634e-05
2.76292e-06
3.87257e-06
4.91769e-12
3.41344e-07
2.12131e-06
4.56546e-06
4.17698e-11
6.18688e-18
2.00579e-06
3.35657e-06
4.75062e-07
8.17108e-11
2.03195e-06
2.28384e-06
2.01741e-06
2.23608e-08
2.00298e-06
1.7876e-06
2.30618e-06
4.99656e-07
1.89223e-06
1.60575e-06
1.87852e-06
1.25135e-06
1.74222e-06
1.51427e-06
1.4889e-06
1.45868e-06
1.58846e-06
1.41845e-06
1.25604e-06
1.3156e-06
1.44398e-06
1.30298e-06
1.11228e-06
1.11365e-06
1.30974e-06
1.17962e-06
1.0008e-06
9.44104e-07
1.18337e-06
1.05901e-06
8.98452e-07
8.10074e-07
1.06391e-06
9.4596e-07
8.01054e-07
6.99817e-07
9.51339e-07
8.41211e-07
7.09793e-07
6.05777e-07
8.45779e-07
7.44461e-07
6.2562e-07
5.24136e-07
7.4777e-07
6.55648e-07
5.49042e-07
4.53139e-07
6.57515e-07
5.74592e-07
4.79683e-07
3.9134e-07
5.74871e-07
5.01129e-07
4.17429e-07
3.37532e-07
4.99871e-07
4.34852e-07
3.61729e-07
2.90757e-07
4.86459e-07
4.32296e-07
3.75588e-07
3.12159e-07
2.5003e-07
4.18012e-07
3.71838e-07
3.22906e-07
2.68374e-07
2.1461e-07
3.57172e-07
3.18188e-07
2.76336e-07
2.29868e-07
1.83849e-07
3.03534e-07
2.70887e-07
2.35431e-07
1.96167e-07
1.57156e-07
2.56612e-07
2.2949e-07
1.99727e-07
1.66816e-07
1.34034e-07
2.15854e-07
1.93509e-07
1.68747e-07
1.41387e-07
1.14046e-07
1.80707e-07
1.62436e-07
1.42e-07
1.19443e-07
9.68067e-08
1.50607e-07
1.35778e-07
1.19046e-07
1.00584e-07
8.19688e-08
1.24995e-07
1.13041e-07
9.9447e-08
8.44485e-08
6.92309e-08
1.03335e-07
9.37603e-08
8.27931e-08
7.06913e-08
5.83267e-08
8.51242e-08
7.75026e-08
6.87091e-08
5.90117e-08
4.90128e-08
6.98928e-08
6.38614e-08
5.68543e-08
4.91292e-08
4.10844e-08
6.1233e-08
5.72195e-08
5.24676e-08
4.69158e-08
4.07959e-08
3.43541e-08
4.98561e-08
4.67226e-08
4.29965e-08
3.86183e-08
3.37947e-08
2.86573e-08
4.05029e-08
3.8063e-08
3.51533e-08
3.17162e-08
2.79322e-08
2.38499e-08
3.2842e-08
3.09476e-08
2.86826e-08
2.59942e-08
2.30375e-08
1.9805e-08
2.65882e-08
2.51199e-08
2.33618e-08
2.12665e-08
1.89636e-08
1.64124e-08
2.14982e-08
2.0362e-08
1.9e-08
1.73708e-08
1.55825e-08
1.35746e-08
1.73652e-08
1.64871e-08
1.5434e-08
1.417e-08
1.27841e-08
1.12074e-08
1.40173e-08
1.33387e-08
1.25249e-08
1.15458e-08
1.04738e-08
9.2384e-09
1.13098e-08
1.07853e-08
1.0157e-08
9.39928e-09
8.57072e-09
7.60453e-09
9.45355e-09
9.12344e-09
8.71794e-09
8.23269e-09
7.64656e-09
7.00649e-09
6.25198e-09
7.61648e-09
7.35993e-09
7.04596e-09
6.6711e-09
6.21774e-09
5.72319e-09
5.13469e-09
6.1387e-09
5.93893e-09
5.69545e-09
5.40541e-09
5.0545e-09
4.67212e-09
4.21351e-09
4.95076e-09
4.79473e-09
4.60543e-09
4.38061e-09
4.10859e-09
3.81257e-09
3.45543e-09
3.99609e-09
3.87381e-09
3.72621e-09
3.5515e-09
3.34033e-09
3.11066e-09
2.83253e-09
3.22833e-09
3.13229e-09
3.01694e-09
2.88089e-09
2.7166e-09
2.53802e-09
2.32144e-09
2.60936e-09
2.53399e-09
2.44387e-09
2.33789e-09
2.21004e-09
2.07099e-09
1.90244e-09
2.15752e-09
2.10848e-09
2.04954e-09
1.97934e-09
1.897e-09
1.79767e-09
1.68948e-09
1.55869e-09
1.74114e-09
1.70253e-09
1.65645e-09
1.60185e-09
1.53799e-09
1.46106e-09
1.37709e-09
1.27608e-09
1.40484e-09
1.37414e-09
1.33786e-09
1.29519e-09
1.24556e-09
1.18595e-09
1.12081e-09
1.04306e-09
1.13492e-09
1.11008e-09
1.08108e-09
1.04735e-09
1.00844e-09
9.61984e-10
9.11285e-10
8.51527e-10
9.17857e-10
8.97344e-10
8.73715e-10
8.46596e-10
8.15612e-10
7.7891e-10
7.38996e-10
6.92676e-10
7.49909e-10
7.33042e-10
7.13726e-10
6.9171e-10
6.66714e-10
6.37115e-10
6.05021e-10
5.6811e-10
6.28134e-10
6.13951e-10
5.97875e-10
5.79686e-10
5.59055e-10
5.34534e-10
5.07976e-10
4.79121e-10
5.42714e-10
5.32002e-10
5.18977e-10
5.04633e-10
4.88871e-10
4.71233e-10
4.50548e-10
4.27851e-10
4.04274e-10
4.6313e-10
4.53375e-10
4.41513e-10
4.28518e-10
4.14404e-10
3.98784e-10
3.80838e-10
3.61641e-10
3.43553e-10
3.86499e-10
3.77329e-10
3.66514e-10
3.54812e-10
3.42279e-10
3.28562e-10
3.12819e-10
2.95224e-10
2.77309e-10
3.29721e-10
3.22014e-10
3.12795e-10
3.02631e-10
2.91605e-10
2.7962e-10
2.66352e-10
2.53077e-10
2.43124e-10
2.57726e-10
2.5013e-10
2.41675e-10
2.32771e-10
2.2344e-10
2.13284e-10
2.01375e-10
1.86905e-10
1.71309e-10
2.36578e-10
2.30537e-10
2.23334e-10
2.15309e-10
2.06713e-10
1.97806e-10
1.89085e-10
1.82699e-10
1.82286e-10
1.54789e-10
1.49186e-10
1.43188e-10
1.36866e-10
1.30145e-10
1.22498e-10
1.12612e-10
9.97734e-11
8.53074e-11
2.03878e-10
1.99944e-10
1.94926e-10
1.88854e-10
1.82409e-10
1.76534e-10
1.73869e-10
1.78633e-10
1.91025e-10
1.23618e-10
1.23235e-10
1.2147e-10
1.18332e-10
1.14048e-10
1.08356e-10
1.00809e-10
9.6587e-11
8.90907e-11
3.68955e-10
3.52241e-10
3.52565e-10
3.52699e-10
3.51867e-10
3.5085e-10
3.51935e-10
3.65408e-10
3.99316e-10
4.17231e-10
4.24561e-10
4.19502e-10
4.24492e-10
4.30662e-10
4.35956e-10
4.40736e-10
4.47542e-10
4.7057e-10
5.10622e-10
5.08365e-10
1.2158e-09
8.67705e-10
8.92598e-10
9.14096e-10
9.26892e-10
9.41771e-10
9.61936e-10
1.00238e-09
1.03843e-09
7.59402e-10
59.5754
10.1748
1.68685
12.1349
19.8981
21.7482
18.5392
11.4691
4.19041
0.674198
0.0458536
0.00526111
0.00188306
0.000524017
1.67979e-05
5.07286e-08
0
1.38067e-12
1.28727e-09
2.37566e-07
8.34349e-07
1.06385e-06
9.76142e-07
8.22165e-07
6.91395e-07
5.90438e-07
5.0899e-07
4.40309e-07
3.81003e-07
3.29638e-07
2.85162e-07
2.46651e-07
2.13329e-07
1.84407e-07
1.59275e-07
1.37442e-07
1.18442e-07
1.01911e-07
8.7536e-08
7.50416e-08
6.4189e-08
5.47774e-08
4.66389e-08
3.96035e-08
3.35447e-08
2.834e-08
2.38801e-08
2.00707e-08
1.68267e-08
1.40733e-08
1.17439e-08
9.77852e-09
8.12608e-09
6.74053e-09
5.58205e-09
4.61601e-09
3.8124e-09
3.14543e-09
2.59298e-09
2.13629e-09
1.75932e-09
1.44816e-09
1.19102e-09
9.77772e-10
8.01665e-10
6.54456e-10
5.37799e-10
4.55614e-10
3.83489e-10
3.29963e-10
2.60489e-10
2.38747e-10
1.5432e-10
1.8954e-10
6.72613e-11
2.10679e-10
7.13042e-11
4.16373e-10
4.38842e-10
6.68171e-10
25.2754
18.7651
3.86939
1.09057
6.21466
10.9731
12.0379
9.34251
4.62117
1.05916
0.0620884
0.00108726
0.000251912
0.00013195
8.15941e-06
5.57197e-08
0
9.21334e-14
8.98165e-11
6.45457e-08
3.12648e-07
4.49896e-07
4.41951e-07
3.90558e-07
3.4212e-07
3.03334e-07
2.70887e-07
2.42182e-07
2.16159e-07
1.92581e-07
1.71304e-07
1.52164e-07
1.35001e-07
1.19585e-07
1.05738e-07
9.33266e-08
8.21897e-08
7.22161e-08
6.32944e-08
5.53255e-08
4.82189e-08
4.18967e-08
3.62945e-08
3.13339e-08
2.69633e-08
2.31263e-08
1.97679e-08
1.68411e-08
1.4301e-08
1.21054e-08
1.0216e-08
8.59615e-09
7.21334e-09
6.03753e-09
5.04143e-09
4.20065e-09
3.49338e-09
2.9003e-09
2.40438e-09
1.99087e-09
1.64687e-09
1.36093e-09
1.12321e-09
9.25016e-10
7.60559e-10
6.22558e-10
5.12169e-10
4.34024e-10
3.64308e-10
3.15002e-10
2.46918e-10
2.29042e-10
1.45017e-10
1.83103e-10
6.17779e-11
2.02941e-10
6.63522e-11
3.95912e-10
4.13773e-10
10.5426
12.4299
7.09241
1.27731
0.683321
4.01635
7.22799
7.82028
5.60839
2.30641
0.354908
0.00849307
9.45949e-05
1.80899e-05
2.28114e-12
2.80589e-15
0
1.36236e-16
1.28171e-13
1.067e-08
9.56419e-08
1.67303e-07
1.77764e-07
1.64905e-07
1.51004e-07
1.40122e-07
1.31136e-07
1.22831e-07
1.14663e-07
1.06567e-07
9.85928e-08
9.08118e-08
8.32987e-08
7.60725e-08
6.91668e-08
6.26199e-08
5.64417e-08
5.06591e-08
4.52724e-08
4.02865e-08
3.56956e-08
3.14946e-08
2.76753e-08
2.42135e-08
2.10993e-08
1.83125e-08
1.58299e-08
1.36309e-08
1.16933e-08
9.99471e-09
8.51354e-09
7.22759e-09
6.11702e-09
5.16196e-09
4.34429e-09
3.64717e-09
3.05509e-09
2.55407e-09
2.13144e-09
1.7761e-09
1.47815e-09
1.2286e-09
1.01974e-09
8.44355e-10
6.97819e-10
5.74131e-10
4.74099e-10
4.03244e-10
3.38482e-10
2.94957e-10
2.30452e-10
2.16252e-10
1.3577e-10
1.73953e-10
5.88755e-11
1.93009e-10
6.5609e-11
3.79222e-10
4.87398
7.10109
6.49715
3.27565
0.479284
0.458683
2.65814
4.83865
5.24449
3.63629
1.36113
0.177948
0.00356684
7.27549e-06
4.35909e-06
0
0
0
3.10349e-12
2.71438e-09
4.69076e-08
1.05221e-07
1.19777e-07
1.11008e-07
9.96389e-08
9.11146e-08
8.4764e-08
7.9377e-08
7.4374e-08
6.95863e-08
6.49565e-08
6.04678e-08
5.61204e-08
5.1897e-08
4.77987e-08
4.38376e-08
4.00248e-08
3.63809e-08
3.29149e-08
2.96413e-08
2.65688e-08
2.37059e-08
2.10564e-08
1.86164e-08
1.63877e-08
1.43634e-08
1.25352e-08
1.08952e-08
9.43158e-09
8.13327e-09
6.98825e-09
5.98297e-09
5.1057e-09
4.34341e-09
3.68426e-09
3.11692e-09
2.63052e-09
2.2152e-09
1.8618e-09
1.56209e-09
1.30873e-09
1.09484e-09
9.14503e-10
7.61945e-10
6.33442e-10
5.24259e-10
4.34904e-10
3.72002e-10
3.12795e-10
2.74951e-10
2.14273e-10
2.03491e-10
1.26916e-10
1.6504e-10
5.63171e-11
1.84169e-10
6.45078e-11
2.10803
3.79821
4.61315
3.78951
1.81205
0.244849
0.295073
1.72418
3.21743
3.54551
2.44537
0.892045
0.115711
0.00235426
9.24791e-06
4.69777e-06
0
0
0
1.90292e-11
1.1796e-08
6.40294e-08
8.30527e-08
7.89044e-08
7.12355e-08
6.4786e-08
5.99277e-08
5.59563e-08
5.23242e-08
4.88654e-08
4.55617e-08
4.24147e-08
3.94182e-08
3.65559e-08
3.38142e-08
3.1185e-08
2.86659e-08
2.62587e-08
2.39615e-08
2.1778e-08
1.97117e-08
1.7766e-08
1.59435e-08
1.42444e-08
1.26716e-08
1.12229e-08
9.89651e-09
8.69039e-09
7.59898e-09
6.6177e-09
5.74095e-09
4.9614e-09
4.27253e-09
3.66672e-09
3.1369e-09
2.67574e-09
2.27614e-09
1.93141e-09
1.63521e-09
1.38162e-09
1.1653e-09
9.81143e-10
8.2464e-10
6.91256e-10
5.77975e-10
4.81116e-10
4.00832e-10
3.44664e-10
2.90227e-10
2.57139e-10
1.99808e-10
1.9195e-10
1.18759e-10
1.57147e-10
5.35813e-11
1.77204e-10
0.695788
1.75301
2.7686
3.10405
2.45012
1.16839
0.164103
0.173458
1.11955
2.18765
2.4863
1.75034
0.66003
0.0938251
0.00265758
1.18601e-05
3.10211e-06
0
0
0
2.2083e-11
1.16959e-08
4.60006e-08
4.7591e-08
4.18763e-08
3.84602e-08
3.62223e-08
3.43833e-08
3.27315e-08
3.11141e-08
2.94792e-08
2.78438e-08
2.62262e-08
2.46322e-08
2.30622e-08
2.15189e-08
2.0009e-08
1.85386e-08
1.71102e-08
1.57293e-08
1.44015e-08
1.31299e-08
1.19192e-08
1.07724e-08
9.69297e-09
8.6824e-09
7.74231e-09
6.87383e-09
6.07556e-09
5.34683e-09
4.6861e-09
4.09022e-09
3.55629e-09
3.08046e-09
2.65905e-09
2.28773e-09
1.96223e-09
1.67829e-09
1.43172e-09
1.21848e-09
1.03482e-09
8.77035e-10
7.41825e-10
6.25698e-10
5.26228e-10
4.4064e-10
3.68689e-10
3.18615e-10
2.68607e-10
2.39845e-10
1.85818e-10
1.80658e-10
1.10776e-10
1.49488e-10
0.125832
0.585421
1.33287
1.99955
2.18803
1.72837
0.855245
0.13924
0.088373
0.717469
1.50754
1.79407
1.31905
0.533387
0.0882414
0.00367055
3.98938e-06
5.24323e-07
0
0
0
2.05537e-11
9.94501e-09
3.17516e-08
2.90041e-08
2.38102e-08
2.19771e-08
2.10904e-08
2.02187e-08
1.93874e-08
1.85978e-08
1.7807e-08
1.70068e-08
1.62017e-08
1.53879e-08
1.45628e-08
1.37292e-08
1.28921e-08
1.20549e-08
1.12235e-08
1.04036e-08
9.5995e-09
8.81735e-09
8.0612e-09
7.33541e-09
6.64368e-09
5.98895e-09
5.37385e-09
4.79946e-09
4.26704e-09
3.77712e-09
3.32897e-09
2.92194e-09
2.5544e-09
2.22476e-09
1.93075e-09
1.67002e-09
1.44003e-09
1.23814e-09
1.06173e-09
9.08272e-10
7.75199e-10
6.60148e-10
5.60544e-10
4.74433e-10
3.99851e-10
3.36153e-10
2.92118e-10
2.46622e-10
2.22112e-10
1.71599e-10
1.69076e-10
0.0058337
0.0981042
0.432004
0.967602
1.45006
1.60389
1.30373
0.6892
0.140337
0.0355428
0.444623
1.03822
1.31522
1.0273
0.453916
0.0892534
0.00483701
9.1581e-06
5.03912e-07
0
0
0
1.15318e-11
5.1391e-09
2.18897e-08
1.9746e-08
1.52535e-08
1.39869e-08
1.36081e-08
1.30888e-08
1.25207e-08
1.20041e-08
1.15153e-08
1.10315e-08
1.05469e-08
1.00581e-08
9.56261e-09
9.06088e-09
8.55285e-09
8.04067e-09
7.52695e-09
7.01451e-09
6.5074e-09
6.00871e-09
5.52196e-09
5.05064e-09
4.59747e-09
4.16528e-09
3.75577e-09
3.37084e-09
3.01175e-09
2.6789e-09
2.37277e-09
2.09285e-09
1.83876e-09
1.6095e-09
1.40388e-09
1.22051e-09
1.05784e-09
9.14209e-10
7.88013e-10
6.77533e-10
5.81134e-10
4.96996e-10
4.23525e-10
3.59474e-10
3.03803e-10
2.65672e-10
2.24695e-10
4.03121e-06
0.00331356
0.0619416
0.289708
0.677927
1.05249
1.20645
1.02828
0.591145
0.153394
0.00950439
0.261564
0.708971
0.973231
0.817503
0.398795
0.0921958
0.00652882
3.50917e-05
6.40724e-07
0
0
0
3.18429e-12
1.31762e-09
1.35318e-08
1.37774e-08
1.00713e-08
8.98611e-09
8.89572e-09
8.68221e-09
8.33564e-09
8.00061e-09
7.6918e-09
7.38812e-09
7.08097e-09
6.7689e-09
6.45223e-09
6.13018e-09
5.80328e-09
5.47256e-09
5.13946e-09
4.80611e-09
4.47447e-09
4.1468e-09
3.8254e-09
3.51239e-09
3.21011e-09
2.91996e-09
2.64377e-09
2.38293e-09
2.13812e-09
1.9103e-09
1.6995e-09
1.50593e-09
1.32934e-09
1.16919e-09
1.02486e-09
8.95468e-10
7.80037e-10
6.77593e-10
5.87031e-10
5.07269e-10
4.3709e-10
3.75155e-10
3.20828e-10
1.86142e-06
1.13987e-06
0.0012453
0.032318
0.177055
0.456545
0.757582
0.918144
0.83209
0.524868
0.170928
0.0036227
0.142187
0.476324
0.722447
0.659231
0.356022
0.0956488
0.00870232
9.70418e-05
7.01513e-07
0
0
0
2.39443e-13
7.67883e-11
7.19814e-09
1.00829e-08
7.21107e-09
5.95996e-09
5.81292e-09
5.73714e-09
5.55061e-09
5.34798e-09
5.16052e-09
4.97621e-09
4.78711e-09
4.59254e-09
4.39232e-09
4.18655e-09
3.97568e-09
3.76056e-09
3.54253e-09
3.323e-09
3.1034e-09
2.88532e-09
2.67037e-09
2.46031e-09
2.25626e-09
2.05969e-09
1.87189e-09
1.69358e-09
1.52573e-09
1.3687e-09
1.2229e-09
1.08844e-09
9.65217e-10
8.53002e-10
7.51367e-10
6.59772e-10
5.77668e-10
5.04368e-10
0
1.15557e-06
2.68072e-06
0.000305359
0.0137276
0.0973781
0.292096
0.534566
0.698162
0.680524
0.472969
0.188475
0.0115642
0.0679877
0.311541
0.53427
0.534483
0.319512
0.0988232
0.0112955
0.000218883
8.72069e-07
1.14083e-10
0
0
1.31486e-17
4.37769e-23
2.25529e-09
6.32431e-09
5.16234e-09
4.11413e-09
3.90129e-09
3.85314e-09
3.74695e-09
3.62071e-09
3.50235e-09
3.38644e-09
3.26719e-09
3.14352e-09
3.01525e-09
2.88222e-09
2.7447e-09
2.6034e-09
2.45923e-09
2.31312e-09
2.16619e-09
2.01959e-09
1.87462e-09
1.73218e-09
1.59339e-09
1.45931e-09
1.33065e-09
1.20824e-09
1.09251e-09
9.8394e-10
8.82799e-10
7.89183e-10
0
0
5.66062e-08
5.51176e-07
3.31231e-05
0.00455698
0.0470682
0.174511
0.364898
0.524145
0.555729
0.426518
0.202904
0.027882
0.0256857
0.195508
0.390784
0.432713
0.28635
0.101042
0.014185
0.000429255
2.65622e-07
2.31854e-08
0
0
7.5106e-30
2.5778e-12
1.01166e-09
3.92814e-09
3.63364e-09
2.878e-09
2.67138e-09
2.63626e-09
2.57349e-09
2.49191e-09
2.41404e-09
2.33813e-09
2.25974e-09
2.17795e-09
2.09264e-09
2.00379e-09
1.91162e-09
1.81659e-09
1.71926e-09
1.6203e-09
1.52049e-09
1.42074e-09
1.32174e-09
1.22428e-09
1.98633e-12
1.12877e-23
0
1.40295e-14
4.28915e-06
8.68946e-07
0.00106893
0.0193019
0.095298
0.237351
0.384045
0.448374
0.380971
0.211926
0.0480382
0.0056861
0.115353
0.280645
0.347961
0.255106
0.101878
0.0172852
0.000753333
6.59651e-08
6.81534e-09
0
0
0
9.57545e-13
3.64253e-10
2.4323e-09
2.57912e-09
2.03111e-09
1.84674e-09
1.82378e-09
1.78825e-09
1.73375e-09
1.68058e-09
)
;

boundaryField
{
    inlet
    {
        type            calculated;
        value           nonuniform List<scalar> 
11
(
2.3806e-08
2.13889e-08
2.24277e-08
2.34137e-08
2.43052e-08
2.51115e-08
2.58792e-08
2.66631e-08
2.76063e-08
2.55017e-08
2.83056e-08
)
;
    }
    outlet
    {
        type            calculated;
        value           nonuniform List<scalar> 0();
    }
    walls
    {
        type            calculated;
        value           uniform 0;
    }
    frontAndBack
    {
        type            empty;
    }
    procBoundary6to2
    {
        type            processor;
        value           nonuniform List<scalar> 
13
(
38.725
11.8467
4.67909
1.90026
0.601901
0.109483
0.00572233
5.34675e-06
3.8467e-06
0
0
1.29625e-12
6.67068e-10
)
;
    }
    procBoundary6to3
    {
        type            processor;
        value           uniform 9.39629e-10;
    }
    procBoundary6to5
    {
        type            processor;
        value           nonuniform List<scalar> 
86
(
416.609
34.2691
44.1714
37.1694
9.0741
0.0462551
0.012527
0.00112895
0
0
4.77972e-09
2.17764e-06
4.6234e-06
3.45246e-06
2.75762e-06
2.6969e-06
2.71824e-06
2.61124e-06
2.42318e-06
2.22961e-06
2.05646e-06
1.8998e-06
1.75082e-06
1.6052e-06
1.4629e-06
1.32525e-06
1.19349e-06
1.06863e-06
9.51309e-07
8.41822e-07
7.40507e-07
6.47534e-07
5.62887e-07
5.62887e-07
5.38395e-07
4.61509e-07
3.93352e-07
3.33407e-07
2.81096e-07
2.35789e-07
1.96832e-07
1.63568e-07
1.35352e-07
1.11564e-07
9.16297e-08
7.50135e-08
7.50135e-08
6.4521e-08
5.24113e-08
4.24849e-08
3.43773e-08
2.77765e-08
2.24169e-08
1.8076e-08
1.45672e-08
1.17356e-08
1.17356e-08
9.71649e-09
7.82175e-09
6.29951e-09
5.07722e-09
4.09593e-09
3.30727e-09
2.67168e-09
2.67168e-09
2.19741e-09
1.77286e-09
1.43038e-09
1.15585e-09
9.35345e-10
7.64085e-10
6.39713e-10
6.39713e-10
5.52144e-10
4.71851e-10
3.94979e-10
3.37075e-10
2.65018e-10
2.43371e-10
1.59285e-10
2.11962e-10
1.19827e-10
1.19827e-10
3.14639e-10
4.20715e-10
7.01645e-10
)
;
    }
    procBoundary6to7
    {
        type            processor;
        value           nonuniform List<scalar> 
91
(
6.71412e-10
6.71412e-10
3.87686e-10
3.87686e-10
3.64615e-10
3.64615e-10
6.34846e-11
5.06889e-11
6.34846e-11
1.70846e-10
1.02683e-10
5.06889e-11
1.41703e-10
2.04284e-10
1.57406e-10
1.02683e-10
1.57398e-10
2.72685e-10
2.40096e-10
2.04284e-10
2.03468e-10
4.3919e-10
3.81389e-10
3.29811e-10
2.72685e-10
2.84316e-10
7.03081e-10
6.24338e-10
5.52668e-10
4.87786e-10
4.3919e-10
4.29305e-10
1.12919e-09
1.03708e-09
9.4858e-10
8.64127e-10
7.84174e-10
7.08993e-10
7.03081e-10
6.38779e-10
1.62966e-09
1.57713e-09
1.52191e-09
1.46397e-09
1.40337e-09
1.34029e-09
1.2751e-09
1.20823e-09
1.14018e-09
1.07154e-09
1.00284e-09
1.12919e-09
9.34635e-10
1.97144e-14
3.74677e-17
0
0
4.49351e-07
6.52451e-07
0.00013436
0.00628646
0.0460425
0.144237
0.270943
0.353828
0.334215
0.214184
0.0683827
0.000757847
0.0619772
0.196281
0.276621
0.225112
0.10117
0.0203131
0.00114048
1.6353e-06
7.93584e-08
0
0
0
2.43924e-13
8.59442e-11
1.49317e-09
1.86188e-09
1.44232e-09
1.27069e-09
1.25822e-09
1.24594e-09
1.62966e-09
1.21256e-09
)
;
    }
}


// ************************************************************************* //
