/*--------------------------------*- C++ -*----------------------------------*\
| =========                 |                                                 |
| \\      /  F ield         | OpenFOAM: The Open Source CFD Toolbox           |
|  \\    /   O peration     | Version:  2306                                  |
|   \\  /    A nd           | Website:  www.openfoam.com                      |
|    \\/     M anipulation  |                                                 |
\*---------------------------------------------------------------------------*/
FoamFile
{
    version     2.0;
    format      ascii;
    arch        "LSB;label=32;scalar=64";
    class       volScalarField;
    location    "800";
    object      turbulenceProperties:I;
}
// * * * * * * * * * * * * * * * * * * * * * * * * * * * * * * * * * * * * * //

dimensions      [0 0 0 0 0 0 0];

internalField   nonuniform List<scalar> 
1340
(
0.244662
0.246102
0.249517
0.255934
0.0396027
0.0424672
0.0476505
0.0611855
0.0179017
0.0214177
0.023968
0.0337471
0.00339499
0.00626669
0.0101597
0.0207136
0.00106571
0.00128529
0.0017833
0.00901184
0.000410577
0.000533277
0.000855845
0.00301988
5.58545e-05
3.79097e-05
8.15003e-06
0.00050943
0.000143865
0.00012671
4.14582e-05
0.000133917
0.00015778
0.000165895
0.000173511
3.50328e-05
0.000145231
0.000145974
0.00019217
0.000128284
0.000146271
0.000147662
0.000178666
0.000206325
0.000141067
0.000143448
0.000165126
0.000215213
0.000138545
0.000141033
0.000158489
0.000205833
0.000134819
0.000136812
0.000152535
0.000194771
0.000131378
0.000132893
0.000146741
0.000184565
0.000127547
0.000128591
0.000140729
0.00017486
0.000123591
0.000124172
0.000134716
0.000165425
0.000119405
0.000119523
0.000128686
0.000156232
0.000115028
0.000114683
0.000122637
0.000147286
0.00011045
0.000109641
0.000116584
0.000138637
0.000105676
0.0001044
0.000110508
0.000130272
0.000100707
9.89684e-05
0.000104416
0.000122207
9.55491e-05
9.33417e-05
9.83093e-05
0.000114461
9.02114e-05
8.75266e-05
9.21785e-05
0.000107022
8.46991e-05
8.15145e-05
8.60403e-05
9.99136e-05
7.90242e-05
7.52983e-05
7.98977e-05
9.31357e-05
7.32027e-05
6.88619e-05
7.377e-05
8.6709e-05
6.72592e-05
6.21707e-05
6.76817e-05
8.06497e-05
6.12356e-05
5.51693e-05
6.16865e-05
7.49902e-05
5.5217e-05
4.7757e-05
5.58771e-05
6.97769e-05
4.93746e-05
3.97234e-05
5.04272e-05
6.50655e-05
4.40703e-05
3.0625e-05
4.56378e-05
6.09266e-05
3.99787e-05
1.90655e-05
4.19728e-05
5.74287e-05
3.79431e-05
1.31684e-05
3.99096e-05
5.46209e-05
3.81878e-05
2.48462e-05
3.95381e-05
5.25062e-05
3.99207e-05
3.17837e-05
4.03986e-05
5.10302e-05
4.21684e-05
3.66889e-05
4.18474e-05
5.00828e-05
4.43554e-05
4.0339e-05
4.34128e-05
4.95239e-05
5.20895e-05
4.62406e-05
4.30887e-05
4.48434e-05
4.92133e-05
5.24619e-05
4.77473e-05
4.51421e-05
4.60288e-05
4.90305e-05
5.27277e-05
4.88689e-05
4.66336e-05
4.69335e-05
4.8885e-05
5.28334e-05
4.96275e-05
4.76579e-05
4.75558e-05
4.87126e-05
5.27542e-05
5.00548e-05
4.82889e-05
4.79119e-05
4.8474e-05
5.24851e-05
5.01858e-05
4.85845e-05
4.80232e-05
4.81457e-05
5.2033e-05
5.00558e-05
4.85939e-05
4.79132e-05
4.77158e-05
5.14113e-05
4.96983e-05
4.83598e-05
4.76085e-05
4.7183e-05
5.06374e-05
4.91445e-05
4.79174e-05
4.71316e-05
4.65494e-05
4.97309e-05
4.84241e-05
4.72994e-05
4.65055e-05
4.58208e-05
4.87101e-05
4.75626e-05
4.65338e-05
4.57515e-05
4.50065e-05
4.75928e-05
4.65827e-05
4.56433e-05
4.48868e-05
4.41135e-05
4.63937e-05
4.55037e-05
4.46482e-05
4.39275e-05
4.31501e-05
4.51246e-05
4.43397e-05
4.35633e-05
4.28854e-05
4.21223e-05
4.44844e-05
4.37946e-05
4.31026e-05
4.24005e-05
4.17697e-05
4.10344e-05
4.30099e-05
4.24107e-05
4.18013e-05
4.11689e-05
4.05882e-05
3.98904e-05
4.1502e-05
4.09816e-05
4.04456e-05
3.98786e-05
3.93491e-05
3.86946e-05
3.99705e-05
3.95188e-05
3.90486e-05
3.85422e-05
3.80639e-05
3.74561e-05
3.84311e-05
3.80394e-05
3.76279e-05
3.71776e-05
3.67492e-05
3.61886e-05
3.6903e-05
3.65639e-05
3.62045e-05
3.58052e-05
3.54242e-05
3.49099e-05
3.54033e-05
3.51097e-05
3.47963e-05
3.44431e-05
3.41062e-05
3.36367e-05
3.39378e-05
3.36835e-05
3.34103e-05
3.30989e-05
3.28026e-05
3.23769e-05
3.24976e-05
3.22772e-05
3.20395e-05
3.1766e-05
3.15071e-05
3.11248e-05
3.12394e-05
3.10623e-05
3.0871e-05
3.06648e-05
3.04261e-05
3.02026e-05
2.98632e-05
2.97684e-05
2.96142e-05
2.94485e-05
2.92706e-05
2.90644e-05
2.88748e-05
2.85771e-05
2.82821e-05
2.81474e-05
2.80041e-05
2.78517e-05
2.76754e-05
2.75185e-05
2.72602e-05
2.67949e-05
2.66771e-05
2.65537e-05
2.64244e-05
2.62751e-05
2.61497e-05
2.59269e-05
2.53279e-05
2.52246e-05
2.51184e-05
2.50094e-05
2.48841e-05
2.47867e-05
2.45938e-05
2.39267e-05
2.38352e-05
2.37434e-05
2.36527e-05
2.35502e-05
2.34794e-05
2.33183e-05
2.27025e-05
2.26164e-05
2.25325e-05
2.24528e-05
2.23646e-05
2.23127e-05
2.21806e-05
2.16702e-05
2.15849e-05
2.15034e-05
2.14273e-05
2.13445e-05
2.13012e-05
2.11843e-05
2.06989e-05
2.06118e-05
2.05294e-05
2.04535e-05
2.03729e-05
2.03339e-05
2.02285e-05
1.97186e-05
1.96302e-05
1.95464e-05
1.9471e-05
1.93924e-05
1.93564e-05
1.92605e-05
1.87993e-05
1.86924e-05
1.85944e-05
1.85049e-05
1.84279e-05
1.83541e-05
1.83319e-05
1.82847e-05
1.77178e-05
1.75824e-05
1.74541e-05
1.73344e-05
1.72272e-05
1.71251e-05
1.70555e-05
1.69434e-05
1.62589e-05
1.61031e-05
1.59669e-05
1.58526e-05
1.57678e-05
1.57148e-05
1.57804e-05
1.59357e-05
1.39906e-05
1.3638e-05
1.33076e-05
1.30091e-05
1.27474e-05
1.25231e-05
1.23384e-05
1.20583e-05
1.25138e-05
1.24005e-05
1.23682e-05
1.24255e-05
1.261e-05
1.29352e-05
1.36794e-05
1.47067e-05
1.3219e-05
1.31851e-05
1.31427e-05
1.30824e-05
1.30348e-05
1.32254e-05
1.43481e-05
1.54661e-05
2.17156e-05
2.21178e-05
2.24615e-05
2.27737e-05
2.31289e-05
2.36444e-05
2.48721e-05
2.58539e-05
2.96956e-05
2.97415e-05
2.97742e-05
2.97959e-05
2.98093e-05
2.98542e-05
3.01386e-05
2.93963e-05
4.10399e-05
4.10411e-05
4.10228e-05
4.09936e-05
4.09422e-05
4.09183e-05
4.07697e-05
3.92992e-05
0.14164
0.0645481
0.0318495
0.0173192
0.00715676
0.00183442
0.000536348
0.000149226
4.11829e-05
0.000169872
0.000225407
0.000224901
0.000213467
0.000202171
0.000191853
0.000182029
0.000172475
0.000163197
0.000154231
0.000145572
0.000137239
0.000129242
0.00012159
0.000114292
0.000107352
0.000100784
9.45957e-05
8.87973e-05
8.34018e-05
7.84236e-05
7.3878e-05
6.97796e-05
6.61364e-05
6.29528e-05
6.02201e-05
5.79138e-05
5.59957e-05
5.44135e-05
5.3106e-05
5.20109e-05
5.10681e-05
5.02242e-05
4.94366e-05
4.86703e-05
4.78998e-05
4.7108e-05
4.62835e-05
4.54192e-05
4.45134e-05
4.35639e-05
4.25715e-05
4.1536e-05
4.04565e-05
3.93333e-05
3.81676e-05
3.69655e-05
3.57384e-05
3.45019e-05
3.32709e-05
3.20515e-05
3.0838e-05
2.96135e-05
2.8364e-05
2.70837e-05
2.57871e-05
2.44876e-05
2.32466e-05
2.21364e-05
2.11621e-05
2.02237e-05
1.92663e-05
1.83219e-05
1.69499e-05
1.61117e-05
1.19436e-05
1.5357e-05
1.47503e-05
2.56224e-05
2.76201e-05
3.70355e-05
0.0971447
0.0508603
0.0214535
0.0083833
0.00261298
0.00115862
8.3062e-06
1.14058e-05
4.89374e-05
0.000151223
0.000168113
0.000165563
0.000160267
0.000155385
0.000150768
0.000146099
0.000141308
0.000136388
0.000131399
0.00012635
0.000121276
0.000116198
0.000111142
0.000106159
0.000101267
9.6495e-05
9.18774e-05
8.74433e-05
8.32136e-05
7.9214e-05
7.54638e-05
7.19795e-05
6.87721e-05
6.58477e-05
6.32086e-05
6.08443e-05
5.87435e-05
5.68843e-05
5.52391e-05
5.37785e-05
5.24701e-05
5.12805e-05
5.01815e-05
4.91447e-05
4.81477e-05
4.71719e-05
4.62028e-05
4.52295e-05
4.42444e-05
4.32409e-05
4.22152e-05
4.11628e-05
4.00795e-05
3.89624e-05
3.78111e-05
3.66297e-05
3.54278e-05
3.42199e-05
3.3018e-05
3.1827e-05
3.06399e-05
2.94398e-05
2.82138e-05
2.69574e-05
2.56858e-05
2.44104e-05
2.31903e-05
2.20925e-05
2.11309e-05
2.02072e-05
1.92587e-05
1.8325e-05
1.6952e-05
1.61559e-05
1.18866e-05
1.57267e-05
1.38011e-05
2.56648e-05
2.74967e-05
3.74374e-05
0.0714673
0.0386006
0.0138757
0.00350155
0.000636922
0.000288624
1.59305e-06
6.88471e-06
8.48374e-05
0.000128459
0.000127668
0.000124317
0.000120811
0.000117833
0.000115033
0.000112251
0.000109491
0.000106734
0.000103969
0.000101235
9.85008e-05
9.57738e-05
9.30369e-05
9.03137e-05
8.75968e-05
8.48788e-05
8.21754e-05
7.94991e-05
7.68538e-05
7.4258e-05
7.17257e-05
6.92728e-05
6.69154e-05
6.46671e-05
6.25406e-05
6.05416e-05
5.86763e-05
5.69431e-05
5.53374e-05
5.38499e-05
5.24699e-05
5.11818e-05
4.99717e-05
4.88233e-05
4.77219e-05
4.66552e-05
4.56104e-05
4.45789e-05
4.3552e-05
4.25226e-05
4.1485e-05
4.04329e-05
3.93605e-05
3.82629e-05
3.71385e-05
3.59903e-05
3.48263e-05
3.36593e-05
3.24997e-05
3.135e-05
3.02022e-05
2.90395e-05
2.78496e-05
2.66292e-05
2.53942e-05
2.41547e-05
2.29663e-05
2.18931e-05
2.09572e-05
2.00635e-05
1.91381e-05
1.82271e-05
1.68771e-05
1.61046e-05
1.19619e-05
1.58771e-05
1.33348e-05
2.55528e-05
2.72237e-05
3.74596e-05
0.0531309
0.026683
0.00708453
0.000692704
0.000328074
0
1.02376e-05
4.27111e-05
9.59304e-05
0.000106534
0.000102729
0.000100785
9.88123e-05
9.71072e-05
9.53599e-05
9.35529e-05
9.17365e-05
8.99006e-05
8.8053e-05
8.6229e-05
8.44033e-05
8.26023e-05
8.0814e-05
7.90376e-05
7.72799e-05
7.55333e-05
7.37931e-05
7.20624e-05
7.03379e-05
6.86217e-05
6.69155e-05
6.52221e-05
6.35499e-05
6.19028e-05
6.02887e-05
5.87162e-05
5.71905e-05
5.57173e-05
5.43006e-05
5.29406e-05
5.16379e-05
5.03898e-05
4.91903e-05
4.80348e-05
4.69168e-05
4.58294e-05
4.47652e-05
4.37188e-05
4.26837e-05
4.16539e-05
4.06239e-05
3.95867e-05
3.85365e-05
3.74678e-05
3.63779e-05
3.52692e-05
3.41488e-05
3.30276e-05
3.19145e-05
3.08106e-05
2.97065e-05
2.85858e-05
2.74369e-05
2.62572e-05
2.50635e-05
2.38647e-05
2.27137e-05
2.16736e-05
2.07702e-05
1.99101e-05
1.90126e-05
1.81304e-05
1.6813e-05
1.60678e-05
1.21369e-05
1.59844e-05
1.31198e-05
2.54178e-05
2.68762e-05
3.7302e-05
0.0362015
0.0147739
0.00172653
0.000558075
0
4.73962e-06
2.05876e-05
6.95452e-05
9.13914e-05
9.02915e-05
8.78163e-05
8.7075e-05
8.62372e-05
8.54955e-05
8.46463e-05
8.37277e-05
8.27398e-05
8.16657e-05
8.05285e-05
7.93257e-05
7.80538e-05
7.6729e-05
7.53669e-05
7.39573e-05
7.252e-05
7.10725e-05
6.96063e-05
6.81384e-05
6.66746e-05
6.52179e-05
6.37732e-05
6.23415e-05
6.093e-05
5.95361e-05
5.81631e-05
5.68163e-05
5.54932e-05
5.41988e-05
5.29334e-05
5.16976e-05
5.04944e-05
4.93218e-05
4.81779e-05
4.70633e-05
4.59743e-05
4.49083e-05
4.38615e-05
4.28311e-05
4.18129e-05
4.08022e-05
3.97947e-05
3.87835e-05
3.77634e-05
3.6729e-05
3.5677e-05
3.46096e-05
3.35335e-05
3.2458e-05
3.13906e-05
3.03309e-05
2.9269e-05
2.81889e-05
2.70801e-05
2.59408e-05
2.47882e-05
2.363e-05
2.25166e-05
2.15096e-05
2.06378e-05
1.98084e-05
1.8937e-05
1.80821e-05
1.67981e-05
1.60856e-05
1.23728e-05
1.61547e-05
1.29612e-05
2.54173e-05
2.6691e-05
3.72661e-05
0.0205363
0.00544186
0.000309491
0.000153533
0
1.32193e-05
5.43136e-05
7.95876e-05
8.24478e-05
7.94133e-05
7.84268e-05
7.80809e-05
7.75977e-05
7.71134e-05
7.65382e-05
7.59218e-05
7.52363e-05
7.44882e-05
7.36975e-05
7.28504e-05
7.19536e-05
7.10071e-05
7.0023e-05
6.89901e-05
6.79192e-05
6.68189e-05
6.56788e-05
6.45156e-05
6.33303e-05
6.2127e-05
6.09132e-05
5.96915e-05
5.84717e-05
5.72543e-05
5.60443e-05
5.48484e-05
5.36648e-05
5.24996e-05
5.13517e-05
5.02223e-05
4.91145e-05
4.80252e-05
4.69544e-05
4.59037e-05
4.48694e-05
4.38518e-05
4.28482e-05
4.18573e-05
4.08766e-05
3.99025e-05
3.89318e-05
3.79581e-05
3.69773e-05
3.59839e-05
3.49752e-05
3.39532e-05
3.29243e-05
3.18966e-05
3.0876e-05
2.98613e-05
2.88423e-05
2.78036e-05
2.67359e-05
2.56382e-05
2.45283e-05
2.34123e-05
2.23369e-05
2.13636e-05
2.0524e-05
1.97252e-05
1.88806e-05
1.80533e-05
1.68048e-05
1.61301e-05
1.26357e-05
1.63593e-05
1.27713e-05
2.54674e-05
0.00769986
0.000413833
0.000149659
3.33115e-05
9.23016e-06
3.83083e-05
6.7745e-05
7.24637e-05
7.03123e-05
6.88564e-05
6.88358e-05
6.87653e-05
6.86e-05
6.83984e-05
6.81224e-05
6.78081e-05
6.7426e-05
6.69834e-05
6.64962e-05
6.59539e-05
6.53647e-05
6.47269e-05
6.40409e-05
6.33156e-05
6.25558e-05
6.1756e-05
6.09204e-05
6.00606e-05
5.91702e-05
5.82555e-05
5.73199e-05
5.63635e-05
5.5393e-05
5.44096e-05
5.34163e-05
5.24177e-05
5.1415e-05
5.04139e-05
4.94137e-05
4.84183e-05
4.74305e-05
4.64482e-05
4.54752e-05
4.4511e-05
4.35545e-05
4.26078e-05
4.16686e-05
4.0737e-05
3.98116e-05
3.88898e-05
3.79695e-05
3.70454e-05
3.61137e-05
3.51696e-05
3.42115e-05
3.3241e-05
3.22641e-05
3.12884e-05
3.03183e-05
2.93519e-05
2.83787e-05
2.73847e-05
2.63611e-05
2.53085e-05
2.42448e-05
2.31739e-05
2.21394e-05
2.12028e-05
2.03989e-05
1.96329e-05
1.88184e-05
1.80216e-05
1.68133e-05
1.61826e-05
1.2914e-05
1.65638e-05
0.000780187
0.000492018
1.53578e-06
6.47116e-06
2.80781e-05
5.85156e-05
6.39382e-05
6.22365e-05
6.08017e-05
6.06933e-05
6.09341e-05
6.09904e-05
6.09994e-05
6.09611e-05
6.0865e-05
6.07257e-05
6.05305e-05
6.02851e-05
5.99965e-05
5.96599e-05
5.92806e-05
5.886e-05
5.83946e-05
5.78938e-05
5.73615e-05
5.679e-05
5.61873e-05
5.55586e-05
5.48995e-05
5.42156e-05
5.35084e-05
5.27769e-05
5.20265e-05
5.12574e-05
5.04703e-05
4.96686e-05
4.88528e-05
4.80265e-05
4.71897e-05
4.63452e-05
4.54953e-05
4.46401e-05
4.37828e-05
4.29235e-05
4.2063e-05
4.1204e-05
4.03449e-05
3.94876e-05
3.86311e-05
3.77742e-05
3.69153e-05
3.60506e-05
3.51767e-05
3.42898e-05
3.33886e-05
3.24753e-05
3.15553e-05
3.06356e-05
2.97195e-05
2.88044e-05
2.78802e-05
2.69338e-05
2.59579e-05
2.49536e-05
2.39395e-05
2.29169e-05
2.19265e-05
2.10304e-05
2.0265e-05
1.95343e-05
1.87528e-05
1.79893e-05
1.68267e-05
1.62449e-05
0.000516901
0
2.06835e-06
8.7659e-06
5.20064e-05
5.72742e-05
5.57855e-05
5.44418e-05
5.43447e-05
5.47127e-05
5.49671e-05
5.51161e-05
5.523e-05
5.52904e-05
5.53013e-05
5.52631e-05
5.51743e-05
5.50421e-05
5.48656e-05
5.46449e-05
5.43827e-05
5.40836e-05
5.37499e-05
5.33783e-05
5.2978e-05
5.25485e-05
5.20892e-05
5.16044e-05
5.10944e-05
5.05621e-05
5.00061e-05
4.94281e-05
4.8833e-05
4.82161e-05
4.75812e-05
4.69307e-05
4.62626e-05
4.558e-05
4.48832e-05
4.41728e-05
4.34505e-05
4.27176e-05
4.19744e-05
4.12225e-05
4.0463e-05
3.96977e-05
3.89263e-05
3.81508e-05
3.73713e-05
3.6587e-05
3.57973e-05
3.49988e-05
3.41892e-05
3.33653e-05
3.25263e-05
3.16746e-05
3.08154e-05
2.99547e-05
2.90952e-05
2.82341e-05
2.73612e-05
2.6465e-05
2.55395e-05
2.45864e-05
2.36247e-05
2.2653e-05
2.17093e-05
2.08569e-05
2.0132e-05
1.94377e-05
1.86917e-05
0
0
1.05962e-05
4.35582e-05
5.25562e-05
4.98416e-05
4.89e-05
4.88414e-05
4.92846e-05
4.96752e-05
4.99385e-05
5.01576e-05
5.03369e-05
5.04642e-05
5.05466e-05
5.05872e-05
5.05796e-05
5.05285e-05
5.04371e-05
5.0305e-05
5.01346e-05
4.99282e-05
4.96897e-05
4.94172e-05
4.9117e-05
4.87904e-05
4.84356e-05
4.80577e-05
4.76573e-05
4.72364e-05
4.67923e-05
4.63292e-05
4.585e-05
4.53487e-05
4.48311e-05
4.42972e-05
4.37454e-05
4.31784e-05
4.25955e-05
4.19974e-05
4.13852e-05
4.07589e-05
4.01197e-05
3.94679e-05
3.88043e-05
3.81309e-05
3.74471e-05
3.67552e-05
3.60553e-05
3.53473e-05
3.46305e-05
3.39025e-05
3.31614e-05
3.24045e-05
3.16317e-05
3.0845e-05
3.00495e-05
2.92505e-05
2.84498e-05
2.76446e-05
2.68254e-05
2.59818e-05
2.51092e-05
2.42102e-05
2.33033e-05
2.23848e-05
0
7.82763e-06
3.55443e-05
4.73432e-05
4.50054e-05
4.37821e-05
4.4039e-05
4.44835e-05
4.49508e-05
4.52894e-05
4.55726e-05
4.58231e-05
4.60293e-05
4.61934e-05
4.63135e-05
4.63962e-05
4.64374e-05
4.64364e-05
4.64009e-05
4.63295e-05
4.6225e-05
4.6088e-05
4.59218e-05
4.57274e-05
4.55085e-05
4.52652e-05
4.49972e-05
4.47095e-05
4.44011e-05
4.40737e-05
4.37263e-05
4.33611e-05
4.29796e-05
4.2579e-05
4.21625e-05
4.17293e-05
4.12791e-05
4.08135e-05
4.03309e-05
3.98325e-05
3.9319e-05
3.87895e-05
3.82452e-05
3.7686e-05
3.71127e-05
3.65269e-05
3.59279e-05
3.5318e-05
3.46974e-05
3.40659e-05
3.34235e-05
3.2768e-05
3.20977e-05
3.14104e-05
3.07061e-05
2.9987e-05
2.92574e-05
2.85219e-05
2.77819e-05
2.70345e-05
2.6271e-05
7.4469e-06
3.01829e-05
4.30347e-05
4.07147e-05
3.94712e-05
3.98278e-05
4.03756e-05
4.08382e-05
4.12272e-05
4.15459e-05
4.18355e-05
4.20901e-05
4.23035e-05
4.2481e-05
4.2616e-05
4.27173e-05
4.27822e-05
4.28087e-05
4.28054e-05
4.27697e-05
4.27052e-05
4.26119e-05
4.24945e-05
4.23527e-05
4.21894e-05
4.20061e-05
4.18022e-05
4.15816e-05
4.13437e-05
4.10895e-05
4.08185e-05
4.05327e-05
4.0232e-05
3.99147e-05
3.95834e-05
3.92366e-05
3.8874e-05
3.84968e-05
3.81029e-05
3.76934e-05
3.72687e-05
3.68273e-05
3.63698e-05
3.58966e-05
3.54078e-05
3.49043e-05
3.43864e-05
3.38554e-05
3.33119e-05
3.27559e-05
3.21875e-05
3.16044e-05
3.10056e-05
3.03891e-05
3.06407e-05
3.6557e-05
3.74264e-05
3.56968e-05
3.62621e-05
3.68246e-05
3.72899e-05
3.76772e-05
3.80183e-05
3.83213e-05
3.86026e-05
3.88454e-05
3.90513e-05
3.92262e-05
3.93643e-05
3.94717e-05
3.95457e-05
3.9588e-05
3.96028e-05
3.95898e-05
3.95515e-05
3.94897e-05
3.94049e-05
3.93005e-05
3.91785e-05
3.90375e-05
3.8881e-05
3.87099e-05
3.85245e-05
3.83254e-05
3.81125e-05
3.7888e-05
3.76499e-05
3.73985e-05
3.71356e-05
3.68583e-05
3.65683e-05
3.62643e-05
3.59453e-05
3.56124e-05
3.52641e-05
3.48999e-05
)
;

boundaryField
{
    inlet
    {
        type            calculated;
        value           nonuniform List<scalar> 
13
(
7.48356e-05
7.53302e-05
7.57607e-05
7.61455e-05
7.65179e-05
7.69053e-05
7.74203e-05
7.75913e-05
7.72294e-05
7.69934e-05
7.66858e-05
7.64201e-05
7.62008e-05
)
;
    }
    outlet
    {
        type            calculated;
        value           nonuniform List<scalar> 0();
    }
    walls
    {
        type            calculated;
        value           uniform 0;
    }
    frontAndBack
    {
        type            empty;
    }
    procBoundary2to1
    {
        type            processor;
        value           nonuniform List<scalar> 
84
(
0.243552
0.0371134
0.0142957
0.0014549
0.00115186
2.29127e-05
0.000155058
0.000149922
0.000156049
0.000146066
0.000146253
0.000142328
0.000140054
0.00013686
0.000133791
0.000130427
0.000126922
0.000123212
0.000119316
0.000115235
0.00011097
0.000106529
0.000101925
9.71778e-05
9.2308e-05
8.73467e-05
8.23365e-05
7.73347e-05
7.24167e-05
6.7689e-05
6.32894e-05
5.93869e-05
5.6168e-05
5.37835e-05
5.22852e-05
5.15807e-05
5.14679e-05
5.17075e-05
5.17075e-05
5.84465e-05
5.77982e-05
5.71992e-05
5.65853e-05
5.59127e-05
5.51552e-05
5.43e-05
5.33442e-05
5.22923e-05
5.11525e-05
4.99351e-05
4.86511e-05
4.73099e-05
4.59192e-05
4.59192e-05
4.51606e-05
4.35918e-05
4.20028e-05
4.04016e-05
3.8802e-05
3.72219e-05
3.56773e-05
3.41737e-05
3.27015e-05
3.27015e-05
3.14055e-05
2.99142e-05
2.8411e-05
2.69096e-05
2.54308e-05
2.40199e-05
2.27914e-05
2.17599e-05
2.07911e-05
1.9813e-05
1.9813e-05
1.89132e-05
1.78578e-05
1.64325e-05
1.4355e-05
1.27011e-05
1.3265e-05
2.12484e-05
2.96282e-05
4.10104e-05
)
;
    }
    procBoundary2to3
    {
        type            processor;
        value           nonuniform List<scalar> 
88
(
2.6594e-05
3.72821e-05
1.25945e-05
2.6594e-05
2.55141e-05
1.32107e-05
1.25945e-05
1.67605e-05
1.79629e-05
1.68513e-05
1.32107e-05
1.63215e-05
2.14905e-05
2.06843e-05
2.00014e-05
1.93444e-05
1.79629e-05
1.86357e-05
2.54824e-05
2.46652e-05
2.38229e-05
2.29735e-05
2.14905e-05
2.21104e-05
2.97546e-05
2.91042e-05
2.84416e-05
2.77709e-05
2.70929e-05
2.64047e-05
2.54824e-05
2.56987e-05
3.45198e-05
3.4124e-05
3.3712e-05
3.32843e-05
3.2842e-05
3.23855e-05
3.19154e-05
3.14321e-05
3.09355e-05
3.0424e-05
2.9896e-05
2.97546e-05
2.93497e-05
3.46731e-05
3.26026e-05
3.30538e-05
3.30647e-05
3.38032e-05
3.41935e-05
3.45754e-05
3.49053e-05
3.52142e-05
3.54961e-05
3.57503e-05
3.5971e-05
3.616e-05
3.63242e-05
3.64552e-05
3.65575e-05
3.66325e-05
3.66813e-05
3.6706e-05
3.67068e-05
3.66855e-05
3.66446e-05
3.65855e-05
3.65092e-05
3.64169e-05
3.63104e-05
3.61913e-05
3.60588e-05
3.59154e-05
3.57604e-05
3.55945e-05
3.54184e-05
3.52313e-05
3.50339e-05
3.48258e-05
3.46061e-05
3.43758e-05
3.41325e-05
3.38766e-05
3.36082e-05
3.33253e-05
3.45198e-05
3.30279e-05
)
;
    }
    procBoundary2to6
    {
        type            processor;
        value           nonuniform List<scalar> 
13
(
0.249466
0.146346
0.103039
0.0780051
0.0579418
0.0395093
0.0222199
0.00799916
0.000738751
0.000366647
0
0
8.18891e-06
)
;
    }
}


// ************************************************************************* //
