/*--------------------------------*- C++ -*----------------------------------*\
| =========                 |                                                 |
| \\      /  F ield         | OpenFOAM: The Open Source CFD Toolbox           |
|  \\    /   O peration     | Version:  2306                                  |
|   \\  /    A nd           | Website:  www.openfoam.com                      |
|    \\/     M anipulation  |                                                 |
\*---------------------------------------------------------------------------*/
FoamFile
{
    version     2.0;
    format      ascii;
    arch        "LSB;label=32;scalar=64";
    class       volVectorField;
    location    "825";
    object      momentError;
}
// * * * * * * * * * * * * * * * * * * * * * * * * * * * * * * * * * * * * * //

dimensions      [0 1 -2 0 0 0 0];

internalField   nonuniform List<vector> 
10720
(
(-8.02372e-05 0.000223311 -6.95742e-15)
(-7.34148e-05 0.000254529 2.41135e-14)
(-5.57905e-05 0.000282827 -4.72326e-14)
(-1.21549e-05 0.000258469 1.778e-14)
(1.15217e-05 0.000258238 1.10239e-13)
(3.10029e-05 0.000249657 -1.75099e-13)
(5.38202e-05 0.000268458 8.99984e-14)
(8.13301e-05 0.000273139 -1.11069e-13)
(0.00010961 0.000266747 -2.5463e-13)
(0.000127222 0.000233867 3.44117e-13)
(0.000128836 0.000187787 1.24149e-13)
(0.000124152 0.000143707 -2.28811e-13)
(0.000114065 0.000111816 -3.34526e-13)
(0.000101379 8.65532e-05 -5.72036e-14)
(8.06824e-05 6.13141e-05 -1.39768e-13)
(5.97648e-05 4.04026e-05 -3.10394e-13)
(-2.56785e-06 6.48461e-06 -1.46757e-13)
(-0.0001424 -4.64815e-05 8.32706e-13)
(-9.87404e-05 -3.91259e-05 4.23307e-13)
(-0.000634295 -0.000226572 -5.95089e-13)
(-0.00168036 -0.000490234 1.05315e-13)
(-0.00206853 -0.000729123 1.53273e-13)
(-0.00259288 -0.00104443 -6.74722e-14)
(-0.0118477 -0.00173153 -1.51586e-13)
(-0.0250808 -0.00400034 3.57141e-14)
(-0.0185825 -0.0048015 -2.34989e-15)
(-0.00203927 -0.00297532 4.15496e-14)
(0.00825829 -0.000376417 -1.64622e-14)
(0.00622767 0.000589221 4.39637e-14)
(0.00337569 0.00062333 1.54495e-13)
(0.00202067 0.000408782 3.0304e-14)
(6.33721e-05 0.000256064 -1.28624e-13)
(-0.000872608 0.000161788 -7.91941e-15)
(-0.000394506 1.78271e-05 -2.15699e-13)
(-3.90243e-05 -0.000158857 -2.82306e-13)
(0.000163461 -0.00129543 1.15487e-13)
(-0.00144965 -0.0114645 -1.13965e-14)
(-0.0529384 -0.072288 4.17817e-16)
(-1.19484 0.13029 -5.67004e-14)
(-8.80568e-05 0.00021148 -1.0766e-14)
(-9.01577e-05 0.000148799 2.65581e-14)
(-9.59294e-05 9.95787e-05 1.73227e-15)
(-8.43372e-05 4.3365e-05 3.61654e-14)
(-8.42565e-05 1.53609e-05 -3.2885e-14)
(-2.78807e-05 -6.43709e-05 -9.4022e-14)
(-4.41036e-06 -8.59806e-05 -1.07345e-13)
(8.25944e-05 -0.000149648 2.99401e-14)
(9.6718e-05 -8.73136e-05 -7.52064e-14)
(5.43393e-05 -2.65418e-05 9.57956e-14)
(1.47924e-05 2.29414e-05 -6.00384e-14)
(-3.34145e-05 4.50602e-05 -1.46125e-13)
(-5.03198e-05 4.47419e-05 -1.64675e-13)
(-5.82214e-05 3.95297e-05 1.3209e-14)
(-5.83921e-05 3.24558e-05 1.33035e-13)
(-5.47885e-05 2.55222e-05 3.99405e-14)
(-4.93132e-05 1.96705e-05 -5.03068e-14)
(-4.29291e-05 1.4663e-05 -3.54747e-14)
(-3.6217e-05 1.10951e-05 -2.18179e-14)
(-2.98475e-05 7.96953e-06 3.90397e-14)
(-2.33765e-05 6.2758e-06 1.72959e-14)
(-1.76392e-05 4.67443e-06 2.50511e-14)
(-1.21342e-05 5.05355e-06 -3.38373e-14)
(-1.11484e-05 6.01919e-06 -2.46547e-14)
(-1.49138e-05 6.26594e-06 1.81837e-14)
(-2.01204e-05 5.99212e-06 1.24069e-14)
(-2.67282e-05 4.64282e-06 6.92982e-15)
(-3.31385e-05 4.59125e-06 -1.46239e-15)
(-3.32417e-05 1.8149e-06 -2.84485e-16)
(-2.40699e-05 5.77833e-06 2.3073e-16)
(-2.49551e-05 2.08799e-06 -4.51482e-16)
(-3.50675e-05 1.54258e-06 -1.86793e-15)
(-3.91284e-05 7.18519e-07 -1.2599e-15)
(-5.56745e-05 -2.15448e-06 -3.84256e-15)
(-5.68064e-05 -4.12083e-06 -2.91026e-15)
(-0.000161203 -1.56224e-05 1.26222e-15)
(-1.62834e-05 2.41925e-05 -2.16357e-15)
(-0.000367912 0.00012769 -1.10554e-14)
(-0.00220069 0.0012573 -2.14909e-14)
(-0.000103168 0.000205872 -1.31424e-14)
(-9.20428e-05 0.000233616 5.8845e-15)
(-7.22414e-05 0.000256698 7.81391e-15)
(-3.68364e-05 0.000245362 -3.36621e-14)
(-4.2939e-06 0.00023788 2.10326e-14)
(7.03877e-06 0.000244287 8.03965e-14)
(4.00686e-05 0.000260733 1.03894e-13)
(6.35295e-05 0.000266194 1.00638e-13)
(9.20649e-05 0.000256965 -3.98773e-15)
(0.000108331 0.000222025 1.9068e-13)
(0.000113752 0.000179717 -2.08859e-13)
(0.000108362 0.000136163 -1.19528e-13)
(9.93471e-05 9.26212e-05 4.48617e-13)
(8.45713e-05 6.06837e-05 1.28258e-13)
(6.02348e-05 4.23723e-05 -1.19187e-13)
(4.79566e-05 2.57443e-05 -1.78004e-14)
(1.14671e-05 2.01209e-05 3.42057e-13)
(-0.00012449 2.5568e-05 -1.53339e-13)
(0.000597933 -0.000209955 -4.91942e-13)
(0.00705726 -0.00162263 1.88438e-13)
(0.0123002 -0.00353514 2.35436e-13)
(-0.000875566 0.000594276 4.67742e-14)
(-0.0577254 -0.0214317 -1.30899e-13)
(-0.0256077 -0.00231195 1.92538e-13)
(0.0144224 -0.0018912 -4.19943e-14)
(0.0630039 0.00250475 -7.0462e-14)
(0.0602009 0.00550842 -3.01945e-14)
(0.0368055 0.00568019 5.5957e-15)
(0.00567304 0.00206245 -1.5005e-14)
(0.0032393 0.000694056 -1.58861e-14)
(0.00425487 0.00074579 -2.03941e-14)
(0.000289313 0.000491218 3.52745e-14)
(-0.000985375 9.31017e-05 -1.88214e-13)
(-0.000880049 -7.8337e-05 -2.24041e-13)
(-0.000376869 -0.000134994 1.62297e-13)
(0.00013187 -0.000373851 -3.94933e-14)
(0.000510571 -0.00211569 3.3058e-14)
(0.0311775 -0.013983 -1.40039e-14)
(0.986969 -0.118567 -4.40506e-14)
(-0.000112057 0.000178163 -4.63886e-15)
(-0.000130585 0.000136134 1.24099e-13)
(-0.00013546 9.10025e-05 -7.98388e-15)
(-0.00013559 4.69015e-05 -1.29075e-13)
(-0.0001202 3.88541e-06 -2.56851e-14)
(-8.65753e-05 -4.11053e-05 1.27346e-13)
(-5.32345e-05 -6.69201e-05 1.11416e-13)
(2.85923e-06 -8.24907e-05 5.95854e-14)
(2.91169e-05 -3.96824e-05 -8.25876e-14)
(2.01403e-05 1.91603e-06 -1.06488e-14)
(-1.22196e-06 3.39575e-05 1.01897e-13)
(-2.82918e-05 4.54772e-05 -5.21e-15)
(-4.35789e-05 4.54988e-05 1.22903e-14)
(-5.14928e-05 4.0768e-05 -2.47922e-14)
(-5.324e-05 3.41702e-05 -3.25879e-14)
(-5.09966e-05 2.73598e-05 1.41525e-14)
(-4.67638e-05 2.1124e-05 1.7087e-14)
(-4.1168e-05 1.6008e-05 -5.80435e-14)
(-3.51683e-05 1.19946e-05 2.69296e-14)
(-2.89825e-05 9.14617e-06 1.7845e-14)
(-2.3075e-05 6.85303e-06 1.46788e-14)
(-1.74452e-05 5.55383e-06 3.1909e-14)
(-1.29798e-05 4.7072e-06 4.17814e-14)
(-1.21111e-05 6.11854e-06 1.76491e-14)
(-1.55881e-05 6.35784e-06 -1.51651e-14)
(-2.05043e-05 6.39498e-06 8.16109e-16)
(-2.6663e-05 5.70543e-06 -5.68175e-15)
(-3.35743e-05 4.70553e-06 -2.08568e-15)
(-3.32739e-05 2.78036e-06 3.93288e-16)
(-2.79147e-05 -2.16134e-07 -3.86649e-17)
(-4.17294e-05 4.44868e-06 2.8312e-16)
(-4.78815e-05 3.6037e-07 6.14212e-16)
(-5.41626e-05 4.92283e-07 1.8499e-15)
(-6.53211e-05 -9.14774e-07 2.35652e-15)
(-9.98199e-05 -7.35467e-06 7.67077e-16)
(-3.79272e-05 -1.52859e-05 -1.55166e-15)
(-0.000203951 -2.44699e-05 -6.70834e-17)
(-0.000292206 -1.2366e-05 3.77889e-15)
(-0.00159591 -0.000211147 9.20253e-15)
(-7.99046e-05 0.000183923 -5.0737e-15)
(-7.34261e-05 0.000200007 -8.20214e-16)
(-5.4133e-05 0.000210701 -5.83697e-15)
(-2.23134e-05 0.000209797 1.55514e-14)
(-8.70835e-07 0.000206323 3.91317e-15)
(1.54469e-05 0.000221238 -3.37372e-14)
(3.69108e-05 0.000233776 -1.07609e-13)
(6.05284e-05 0.000241326 -9.54174e-14)
(8.42072e-05 0.00022567 -1.11322e-13)
(0.000100131 0.000195975 1.10097e-14)
(0.000105036 0.000158768 2.64052e-13)
(0.000101434 0.00012473 7.06209e-14)
(9.16839e-05 9.70861e-05 -9.93109e-14)
(7.87862e-05 7.37343e-05 -2.41053e-13)
(7.63995e-05 4.74898e-05 1.10245e-13)
(6.48206e-05 2.58136e-05 1.45922e-13)
(5.74048e-05 -2.35796e-05 -9.42421e-14)
(0.00011522 5.67977e-05 -1.89373e-13)
(-0.00066924 0.00184275 3.17156e-13)
(-0.00731115 0.00735984 -9.48693e-14)
(-0.00745027 0.00934387 -1.19587e-13)
(0.000996604 -0.000221024 1.78557e-13)
(0.0963247 0.0520636 7.39142e-14)
(0.00169659 0.000837704 -3.35241e-15)
(0.016127 -0.00059154 -3.30846e-14)
(0.020523 -0.00144305 3.55798e-15)
(-0.00478161 -0.000521173 -3.0598e-14)
(-0.0542591 -0.00121035 2.10713e-14)
(-0.0475886 -0.00276623 -3.31632e-14)
(-0.0131894 -0.000178132 -7.2099e-14)
(-0.00755718 0.001065 6.96095e-14)
(-0.00612854 0.000233792 3.08521e-14)
(-0.00088735 -0.000365856 -1.21838e-13)
(-4.43486e-05 -0.000415996 7.82235e-14)
(-0.000117547 -0.000271399 1.65088e-14)
(9.54807e-05 -0.000244601 -3.61586e-14)
(0.00165447 -0.00106169 -9.98054e-14)
(0.0155439 -0.00189955 2.76679e-14)
(0.111234 -0.00962332 6.03108e-15)
(-0.000100588 0.000155282 2.92179e-14)
(-0.000111062 0.000125716 -2.76868e-14)
(-0.000119727 8.88057e-05 -9.8343e-14)
(-0.000118107 5.60177e-05 4.48517e-14)
(-0.000107193 2.01596e-05 2.05983e-14)
(-8.90069e-05 -1.16306e-05 -6.45707e-14)
(-6.2855e-05 -3.23825e-05 1.35491e-14)
(-2.90794e-05 -3.71129e-05 -1.17648e-13)
(-8.69935e-06 -1.19038e-05 -7.91931e-14)
(-6.51993e-06 1.26668e-05 -8.81237e-14)
(-1.79397e-05 3.14678e-05 9.75412e-14)
(-3.30366e-05 3.9745e-05 1.4533e-14)
(-4.39436e-05 4.09566e-05 -1.36542e-14)
(-4.98356e-05 3.80483e-05 -8.08995e-14)
(-5.11143e-05 3.30583e-05 -5.80884e-14)
(-4.90905e-05 2.71385e-05 3.78566e-14)
(-4.52662e-05 2.14637e-05 -2.13739e-14)
(-4.02254e-05 1.66196e-05 -4.39722e-14)
(-3.45905e-05 1.28997e-05 -4.00347e-15)
(-2.87166e-05 1.003e-05 -4.02392e-14)
(-2.29462e-05 8.27727e-06 -4.3e-14)
(-1.74367e-05 7.39856e-06 -8.43246e-14)
(-1.30338e-05 8.20617e-06 -6.39427e-14)
(-1.2057e-05 1.0318e-05 -1.79983e-14)
(-1.51296e-05 1.08656e-05 3.95026e-15)
(-1.98544e-05 1.01429e-05 -1.14737e-15)
(-2.5609e-05 8.5746e-06 -1.05282e-14)
(-3.23096e-05 6.81731e-06 4.47363e-15)
(-3.24336e-05 2.91186e-06 5.81706e-16)
(-2.70277e-05 5.64876e-06 -1.81311e-16)
(-3.30449e-05 3.119e-06 -9.50535e-18)
(-4.11133e-05 4.34926e-07 -5.34354e-16)
(-4.61997e-05 2.36905e-08 -9.83435e-16)
(-6.07769e-05 2.88139e-06 -1.46505e-15)
(-6.44601e-05 -1.29516e-05 1.86591e-15)
(-6.68821e-05 -9.0157e-05 3.68144e-17)
(-1.71e-05 -4.74108e-05 1.44753e-14)
(-0.000318159 -5.03697e-05 8.74933e-15)
(-0.00130167 -0.00021806 -1.0337e-13)
(-6.29612e-05 0.000152983 7.92673e-15)
(-5.2435e-05 0.000179541 -2.34386e-15)
(-4.05365e-05 0.000184748 6.65881e-17)
(-1.44493e-05 0.000188791 -7.13003e-15)
(-7.2802e-07 0.000191794 1.99584e-15)
(1.73847e-05 0.000206886 3.58143e-14)
(3.60457e-05 0.000221982 5.84656e-14)
(5.76107e-05 0.000220043 5.46314e-14)
(7.75281e-05 0.000205369 -1.33388e-13)
(9.05935e-05 0.000179536 -1.11642e-13)
(9.41044e-05 0.000147555 1.41517e-13)
(9.18308e-05 0.000118379 2.56581e-13)
(8.44593e-05 9.30184e-05 1.35702e-13)
(7.60475e-05 7.00469e-05 -4.72147e-13)
(6.18579e-05 5.37501e-05 -1.62161e-13)
(3.32701e-05 4.53324e-05 3.8591e-13)
(8.63319e-06 3.88426e-05 8.39267e-14)
(-6.35637e-05 0.000101624 -1.2427e-13)
(-0.000145304 -9.66395e-05 -2.28419e-13)
(-0.00044979 -0.0026161 1.97907e-13)
(-0.00457491 -0.00633709 4.36136e-14)
(0.000132902 0.00163779 -2.22445e-13)
(-0.0473793 -0.0237197 1.65592e-13)
(0.00289094 0.000254068 -1.14161e-13)
(-0.00441705 -0.00296536 -3.71978e-14)
(-0.00747351 -0.00580405 3.56447e-14)
(-0.0609579 0.00936645 -4.55843e-14)
(0.0130926 0.00592721 1.00933e-14)
(0.0471463 -0.00241926 1.36289e-14)
(0.0124133 -0.00537285 2.09635e-14)
(-0.0233942 0.00234023 -9.02262e-15)
(0.00715059 -0.001478 2.55469e-14)
(0.00751966 -0.000567126 2.07237e-13)
(0.00323421 -0.000710869 5.34619e-14)
(0.000402114 -0.000363116 -7.58495e-14)
(-0.000351521 -0.000141743 -1.16591e-13)
(0.000346131 -0.000390089 1.66378e-14)
(0.00602766 0.000289677 -2.82589e-14)
(0.0333522 -0.00931501 4.72037e-14)
(-8.17269e-05 0.00013562 1.88164e-14)
(-9.36454e-05 0.000116205 -3.68743e-14)
(-0.000102733 8.93404e-05 -4.04092e-15)
(-0.00010104 6.25583e-05 -3.37242e-14)
(-9.58998e-05 3.29561e-05 -2.08221e-14)
(-8.31405e-05 7.7662e-06 7.34766e-14)
(-6.40085e-05 -1.17082e-05 -1.8417e-13)
(-3.98027e-05 -1.41875e-05 1.69127e-13)
(-2.79791e-05 1.81698e-06 2.01469e-15)
(-2.42567e-05 1.66842e-05 -1.20416e-13)
(-3.00023e-05 2.93299e-05 -7.02475e-14)
(-3.81355e-05 3.59683e-05 -1.98382e-14)
(-4.51726e-05 3.77917e-05 5.95859e-14)
(-4.8982e-05 3.59637e-05 1.29281e-13)
(-4.94977e-05 3.17586e-05 2.11142e-14)
(-4.74051e-05 2.65087e-05 -4.73378e-14)
(-4.38631e-05 2.12662e-05 2.21982e-14)
(-3.92864e-05 1.66315e-05 5.00095e-14)
(-3.40401e-05 1.30958e-05 -3.67787e-15)
(-2.84974e-05 1.02267e-05 -7.78279e-15)
(-2.29753e-05 8.49068e-06 -2.14374e-14)
(-1.77607e-05 7.50998e-06 5.28066e-14)
(-1.36577e-05 8.16127e-06 3.09351e-14)
(-1.26819e-05 1.0023e-05 -1.07666e-14)
(-1.53112e-05 1.07088e-05 -1.69118e-14)
(-1.97599e-05 1.01165e-05 -6.96403e-15)
(-2.53824e-05 8.69822e-06 1.26251e-14)
(-3.18355e-05 7.1083e-06 -8.91347e-16)
(-3.2042e-05 3.31038e-06 -5.13449e-16)
(-2.74701e-05 3.38728e-06 2.01635e-16)
(-3.21217e-05 8.17369e-06 -3.98952e-17)
(-3.92229e-05 1.05065e-05 -3.67647e-17)
(-4.08092e-05 2.60834e-05 2.74455e-16)
(-9.46792e-05 -0.0001167 5.12071e-16)
(-0.000781661 -0.00229121 -3.23218e-15)
(-0.000582822 -0.00183003 7.59148e-15)
(-0.000255109 -0.000266066 -1.28894e-14)
(-0.000183522 0.000650427 -2.99074e-14)
(-0.00115231 -0.000275668 -1.05031e-16)
(-5.24857e-05 0.000133606 -4.04106e-15)
(-3.94168e-05 0.000152639 4.77979e-15)
(-2.62464e-05 0.000164143 5.65059e-17)
(-8.48525e-06 0.000170654 -4.17632e-15)
(5.31363e-06 0.000177954 -2.88317e-14)
(2.02055e-05 0.000192256 3.46357e-14)
(3.96235e-05 0.000200858 1.2634e-14)
(5.92266e-05 0.000195968 -7.01524e-14)
(7.56783e-05 0.000181255 -5.82309e-14)
(8.64912e-05 0.000158424 -1.21381e-13)
(8.94392e-05 0.00013172 1.74614e-14)
(8.69532e-05 0.00010791 -1.32354e-13)
(7.9966e-05 8.75623e-05 8.04617e-15)
(6.92492e-05 7.11346e-05 3.54352e-13)
(5.63628e-05 5.78383e-05 -2.34206e-13)
(4.47936e-05 4.31562e-05 -1.67665e-13)
(3.25533e-05 2.9791e-05 1.01579e-13)
(1.59319e-05 3.09224e-05 -1.31966e-13)
(-7.24431e-06 6.22432e-05 8.48917e-14)
(-3.57475e-05 8.6649e-05 -1.43969e-13)
(-0.000256543 -4.89464e-05 -1.61817e-13)
(-8.22398e-05 0.000312861 1.83267e-13)
(0.00103352 0.00104351 -4.05349e-14)
(0.000977049 5.54651e-05 8.96866e-14)
(0.000533547 -0.00283454 5.67709e-14)
(-0.00395223 -0.00398931 6.31542e-15)
(0.0437307 -0.00699076 1.08821e-13)
(0.00321442 0.00399889 -2.11473e-14)
(-0.0160002 0.0109907 2.25347e-14)
(0.000902886 -0.000840099 -5.53725e-14)
(-0.0133293 -0.00576724 -1.55689e-13)
(0.00410112 0.000779228 1.36573e-15)
(0.00431654 -0.000689602 1.40173e-13)
(0.00711193 -0.00058534 -3.31464e-14)
(0.00225621 -0.000294699 -1.04853e-13)
(-0.000187258 1.30692e-05 1.18022e-13)
(-0.000575105 -7.7131e-05 -3.96408e-14)
(0.00345323 0.000659589 -1.66244e-14)
(0.0205334 -0.00973458 -9.80573e-16)
(-6.12501e-05 0.000120242 2.02826e-14)
(-7.49498e-05 0.000107618 1.43635e-14)
(-8.10339e-05 8.83923e-05 -3.19922e-14)
(-8.428e-05 6.51536e-05 7.88747e-14)
(-8.18952e-05 4.11031e-05 1.86884e-13)
(-7.53579e-05 1.99573e-05 -6.87529e-14)
(-6.25566e-05 3.5149e-06 -7.24483e-14)
(-4.6481e-05 1.66684e-06 1.50439e-13)
(-3.81712e-05 1.06477e-05 1.26935e-13)
(-3.53207e-05 1.93663e-05 3.5648e-14)
(-3.8295e-05 2.73593e-05 -5.19378e-14)
(-4.30129e-05 3.21786e-05 5.91809e-14)
(-4.715e-05 3.38473e-05 4.54278e-14)
(-4.92086e-05 3.25586e-05 -3.9818e-15)
(-4.87216e-05 2.91871e-05 -9.37208e-14)
(-4.62908e-05 2.46813e-05 3.96392e-15)
(-4.28145e-05 2.02205e-05 3.73007e-15)
(-3.84725e-05 1.61493e-05 2.06824e-16)
(-3.35538e-05 1.28871e-05 1.51383e-14)
(-2.82693e-05 1.0202e-05 -5.43059e-15)
(-2.29941e-05 8.68641e-06 1.2301e-14)
(-1.80161e-05 7.97723e-06 -2.67241e-14)
(-1.40902e-05 9.15891e-06 -1.53649e-14)
(-1.2971e-05 1.12456e-05 1.55016e-14)
(-1.51664e-05 1.24302e-05 2.09527e-14)
(-1.93333e-05 1.18675e-05 1.25521e-15)
(-2.48912e-05 1.02527e-05 -1.23689e-15)
(-3.12164e-05 7.87891e-06 -3.25985e-15)
(-3.1721e-05 3.51891e-06 6.54242e-16)
(-2.75325e-05 4.88732e-06 -1.04563e-16)
(-3.22227e-05 4.47449e-06 -5.30346e-16)
(-4.14943e-05 -9.44425e-06 -2.80147e-17)
(-5.12641e-05 -2.72751e-05 7.69903e-17)
(-8.19359e-05 0.000236371 -7.11679e-17)
(0.000139746 0.00339464 -9.27697e-16)
(7.48717e-07 0.00260799 -6.87917e-16)
(-4.5503e-05 0.000262913 1.03185e-14)
(-0.000163744 -0.000758299 -1.08677e-14)
(-0.00105724 -5.20586e-05 5.48118e-15)
(-3.81034e-05 0.0001197 1.93827e-15)
(-2.91032e-05 0.000132093 5.0679e-16)
(-1.81787e-05 0.00014557 3.16249e-15)
(-3.93029e-06 0.000159042 -2.45878e-15)
(8.44443e-06 0.000166077 -1.08435e-15)
(2.32685e-05 0.000177553 1.63381e-14)
(4.17094e-05 0.000182721 7.60514e-15)
(5.89053e-05 0.000175427 4.04773e-14)
(7.31624e-05 0.00016254 6.79653e-14)
(8.18727e-05 0.000142573 -3.20432e-14)
(8.41145e-05 0.000120503 -7.79472e-15)
(8.16308e-05 0.000101257 7.50086e-14)
(7.52532e-05 8.49428e-05 -1.45507e-13)
(6.5284e-05 7.14748e-05 -2.89384e-13)
(5.35031e-05 6.03588e-05 1.75229e-13)
(3.897e-05 5.23413e-05 2.68354e-13)
(1.64578e-05 5.79985e-05 -3.55848e-13)
(-4.35581e-06 7.12031e-05 6.06679e-14)
(-2.0471e-05 7.69275e-05 1.11899e-13)
(-6.53257e-05 5.06076e-05 -1.12965e-13)
(-0.000188441 9.38307e-05 8.56211e-14)
(-0.000210726 0.000496099 -8.73357e-14)
(0.00041859 0.000979832 -1.69251e-13)
(0.00135466 -1.45979e-05 -5.03159e-14)
(0.00104435 -0.00234468 -1.16204e-13)
(-0.000798364 -0.00283654 5.63234e-14)
(-0.00125343 -0.000780602 -1.62129e-14)
(-0.00579876 0.00252699 -1.09013e-14)
(-0.00196345 0.0029381 2.13823e-14)
(-0.0236593 0.00450254 4.23932e-14)
(0.0174146 -0.00300444 3.28948e-14)
(-0.00812758 -0.000304224 -4.52613e-14)
(-0.000589677 -0.000457356 -1.16442e-13)
(0.00192393 3.8155e-05 -1.48656e-13)
(0.00201865 0.000149564 3.37772e-14)
(-0.00115125 0.000732439 7.33146e-14)
(-0.0016079 -7.84915e-05 8.46094e-14)
(0.00288217 0.000497478 3.84817e-14)
(0.0176937 -0.0103511 2.88101e-14)
(-4.7228e-05 0.00010959 8.5949e-15)
(-5.69261e-05 0.000101542 -2.06929e-14)
(-6.36761e-05 8.57249e-05 1.04909e-14)
(-6.75444e-05 6.5819e-05 -5.83379e-15)
(-6.9497e-05 4.5976e-05 4.68176e-15)
(-6.82109e-05 2.62611e-05 -7.81819e-14)
(-6.02891e-05 1.37835e-05 -2.9426e-14)
(-4.99285e-05 1.17924e-05 -3.50566e-14)
(-4.42684e-05 1.59758e-05 2.74176e-14)
(-4.22833e-05 2.09742e-05 1.35735e-13)
(-4.4029e-05 2.58339e-05 -3.03588e-14)
(-4.69356e-05 2.92157e-05 -5.88493e-14)
(-4.91593e-05 3.04771e-05 2.50175e-15)
(-4.976e-05 2.94289e-05 -5.12985e-14)
(-4.83317e-05 2.66374e-05 1.7003e-14)
(-4.5463e-05 2.2781e-05 2.54111e-14)
(-4.19248e-05 1.89345e-05 3.93181e-14)
(-3.77591e-05 1.53848e-05 1.5049e-14)
(-3.30723e-05 1.23763e-05 -1.7703e-14)
(-2.80313e-05 9.93727e-06 2.27255e-14)
(-2.30503e-05 8.45279e-06 2.51825e-14)
(-1.83464e-05 7.99832e-06 1.82592e-14)
(-1.47136e-05 9.17321e-06 3.81562e-15)
(-1.34749e-05 1.12724e-05 -1.44096e-14)
(-1.52811e-05 1.2571e-05 1.18015e-14)
(-1.90582e-05 1.23962e-05 3.28032e-15)
(-2.44604e-05 1.08263e-05 -1.13707e-14)
(-3.05848e-05 8.53409e-06 1.2234e-15)
(-3.14126e-05 4.03696e-06 -1.18419e-16)
(-2.77863e-05 4.808e-06 2.05563e-16)
(-3.21814e-05 6.57758e-06 6.67043e-16)
(-4.11311e-05 5.54202e-06 -1.60467e-16)
(-4.77836e-05 7.5627e-06 -2.50636e-16)
(-3.26242e-05 -6.41002e-05 5.63577e-16)
(0.000309395 -0.00112364 1.39436e-15)
(0.000234689 -0.000904685 -1.19107e-14)
(-0.000128466 1.4958e-05 3.46359e-15)
(-0.000445735 0.00024939 4.41724e-14)
(-0.00130926 0.000334655 3.10368e-14)
(-2.29764e-05 0.000106554 3.09102e-15)
(-1.76444e-05 0.000120004 5.82452e-16)
(-1.07515e-05 0.000132651 -1.1264e-15)
(1.71741e-06 0.000147259 4.16962e-15)
(1.36915e-05 0.0001548 -8.69019e-15)
(2.7729e-05 0.000162207 -1.09433e-15)
(4.53517e-05 0.000162729 2.35995e-14)
(6.04857e-05 0.000155818 -1.11468e-14)
(7.28122e-05 0.000143543 -3.96142e-14)
(8.02706e-05 0.000126501 2.65385e-14)
(8.20365e-05 0.000108222 -6.07785e-14)
(8.00586e-05 9.26214e-05 -1.50861e-13)
(7.38598e-05 7.98364e-05 1.06603e-13)
(6.42809e-05 6.90654e-05 3.77166e-13)
(5.2142e-05 6.09939e-05 -1.38922e-14)
(3.82947e-05 5.54702e-05 -4.01368e-13)
(2.61078e-05 5.23137e-05 3.32533e-13)
(1.24103e-05 5.55414e-05 2.33369e-13)
(-4.86904e-06 6.08845e-05 1.24569e-13)
(-2.78591e-05 6.19452e-05 5.87362e-14)
(-9.70746e-05 0.000100878 -2.88417e-14)
(-8.23792e-05 0.000401781 1.61935e-13)
(0.000432486 0.000814887 1.11966e-13)
(0.00101324 0.000251534 -1.01888e-14)
(0.000296011 -0.00124479 2.14257e-13)
(-0.00137297 -0.00151461 -6.57046e-14)
(-0.00220248 6.92956e-05 -7.65321e-15)
(-2.31496e-05 0.00138191 5.67703e-15)
(0.00173944 0.00159098 -2.01421e-14)
(0.00439944 0.000373801 -2.08064e-14)
(0.00180096 -0.000620329 -1.5257e-14)
(-0.00189995 -0.000580818 4.77715e-14)
(-0.00253517 -0.000355955 -2.27679e-14)
(-0.00101646 0.000125805 -1.27981e-13)
(-0.0005103 0.000587671 -2.08073e-14)
(-0.0227243 0.00764267 -1.02635e-13)
(0.00550549 -0.00279968 -5.75806e-14)
(0.00206889 0.000635168 6.46735e-15)
(0.014521 -0.00951097 -2.59295e-14)
(-3.34397e-05 0.000100479 -9.66502e-15)
(-4.20236e-05 9.48391e-05 1.2194e-14)
(-5.03305e-05 8.19235e-05 -2.61343e-14)
(-5.63326e-05 6.31846e-05 -3.94507e-15)
(-6.04326e-05 4.37164e-05 7.38141e-15)
(-6.08528e-05 2.91953e-05 1.10946e-14)
(-5.59943e-05 1.9264e-05 8.06389e-14)
(-5.08499e-05 1.78036e-05 -1.01462e-13)
(-4.73612e-05 1.9388e-05 -3.28008e-14)
(-4.65457e-05 2.18932e-05 -3.11479e-14)
(-4.79301e-05 2.46575e-05 1.17307e-13)
(-4.98869e-05 2.68175e-05 -4.64458e-14)
(-5.10099e-05 2.74336e-05 -4.56718e-15)
(-5.04791e-05 2.63442e-05 1.8539e-14)
(-4.82927e-05 2.37357e-05 1.77851e-14)
(-4.49915e-05 2.04389e-05 1.20879e-14)
(-4.13362e-05 1.71951e-05 -7.68253e-14)
(-3.72126e-05 1.42386e-05 -2.81417e-14)
(-3.26794e-05 1.15996e-05 3.58169e-14)
(-2.78436e-05 9.53715e-06 1.4287e-15)
(-2.31259e-05 8.19708e-06 3.63859e-14)
(-1.87149e-05 8.05823e-06 -1.03901e-14)
(-1.52901e-05 9.29086e-06 1.50657e-15)
(-1.39736e-05 1.15089e-05 2.42352e-14)
(-1.53489e-05 1.30722e-05 -2.03627e-14)
(-1.87997e-05 1.33208e-05 -6.98974e-15)
(-2.39224e-05 1.2075e-05 6.58205e-15)
(-2.99053e-05 9.54686e-06 2.19788e-15)
(-3.09735e-05 4.97036e-06 -1.16908e-18)
(-2.78639e-05 5.26786e-06 -2.57081e-16)
(-3.17294e-05 5.92865e-06 6.3751e-16)
(-3.97665e-05 1.59223e-06 7.50595e-17)
(-4.61116e-05 1.17762e-06 -1.08031e-15)
(-5.63975e-05 4.20071e-06 5.43654e-17)
(-6.50496e-05 2.69822e-05 -3.16215e-15)
(-5.67901e-05 8.85891e-05 7.24236e-15)
(-0.000162606 -1.55233e-05 -1.54295e-15)
(-0.000245918 -7.46443e-05 -2.46104e-15)
(-0.000719462 -0.000390411 -4.22069e-14)
(-1.62543e-05 9.74928e-05 1.40113e-15)
(-1.19891e-05 0.000112005 1.51054e-15)
(-5.13739e-06 0.000124842 -9.49552e-16)
(6.92781e-06 0.000137083 -1.91882e-15)
(1.80329e-05 0.000143218 -3.80277e-15)
(3.23014e-05 0.000149774 1.65054e-14)
(4.76824e-05 0.000148319 1.38751e-14)
(6.12128e-05 0.000139862 -5.19114e-14)
(7.16104e-05 0.000128434 2.17311e-14)
(7.78514e-05 0.00011394 1.11285e-13)
(7.9778e-05 9.83487e-05 4.63176e-14)
(7.81318e-05 8.6314e-05 2.13133e-14)
(7.27167e-05 7.61852e-05 -1.87882e-13)
(6.36561e-05 6.76597e-05 -4.29855e-13)
(5.19837e-05 6.11368e-05 -3.04036e-13)
(3.9176e-05 5.67751e-05 1.20067e-13)
(2.61139e-05 5.7269e-05 -7.38522e-14)
(1.06675e-05 6.57445e-05 -3.77114e-13)
(-6.38387e-06 7.59355e-05 -1.94584e-13)
(-2.6131e-05 9.2816e-05 1.60888e-13)
(-6.85845e-05 0.000144759 1.60969e-13)
(-2.95871e-05 0.000368137 -9.33448e-14)
(0.0003662 0.00062286 -3.83133e-14)
(0.000773145 0.000140683 2.39895e-15)
(0.000223313 -0.000957065 -6.09651e-14)
(-0.00104742 -0.00103243 6.32922e-14)
(-0.00139282 0.000310849 7.21974e-15)
(-0.00058621 0.00138207 4.32083e-15)
(0.000534533 0.00123762 -4.41498e-15)
(0.00120592 0.000601156 5.21806e-14)
(0.00174239 -0.000172278 3.49626e-14)
(0.000287962 -0.00053009 -3.4449e-15)
(-0.000966885 -0.000404676 1.13108e-13)
(-0.00093119 -0.000211273 7.80691e-14)
(0.000883554 -0.00198658 -4.04134e-14)
(0.0157323 -0.00217819 7.0785e-14)
(0.00377531 0.00102681 5.82137e-14)
(0.00263677 -0.000738572 -3.49706e-14)
(0.0108526 -0.00724415 -2.77474e-14)
(-2.46252e-05 9.11273e-05 7.39127e-15)
(-3.42609e-05 8.7525e-05 -1.20441e-14)
(-4.3474e-05 7.37655e-05 3.26933e-15)
(-5.13432e-05 5.71464e-05 6.10927e-14)
(-5.4414e-05 4.43188e-05 3.14461e-15)
(-5.45781e-05 3.03713e-05 1.01651e-13)
(-5.18445e-05 2.2596e-05 1.36655e-13)
(-4.95527e-05 2.17026e-05 -5.29995e-14)
(-4.85719e-05 2.13881e-05 -7.25298e-14)
(-4.88073e-05 2.22877e-05 -5.54111e-14)
(-5.03993e-05 2.3759e-05 -1.02164e-13)
(-5.20109e-05 2.48502e-05 -5.52865e-15)
(-5.24539e-05 2.48124e-05 -4.305e-14)
(-5.12194e-05 2.34033e-05 5.78122e-14)
(-4.84171e-05 2.09105e-05 1.93966e-14)
(-4.47786e-05 1.80206e-05 -3.07511e-14)
(-4.0993e-05 1.53742e-05 -3.26307e-15)
(-3.68579e-05 1.29243e-05 -2.54404e-14)
(-3.23899e-05 1.07127e-05 2.7909e-15)
(-2.77275e-05 8.92353e-06 -1.77679e-14)
(-2.32281e-05 7.86682e-06 -3.33798e-14)
(-1.91369e-05 7.8666e-06 1.47957e-14)
(-1.59122e-05 9.16776e-06 -2.76254e-14)
(-1.45615e-05 1.13068e-05 -1.00664e-14)
(-1.55466e-05 1.31047e-05 6.28565e-15)
(-1.86374e-05 1.36549e-05 3.97113e-15)
(-2.34066e-05 1.28542e-05 1.56319e-15)
(-2.91624e-05 1.03086e-05 -1.03504e-15)
(-3.04646e-05 5.89735e-06 -4.3512e-16)
(-2.78997e-05 5.47904e-06 -7.72708e-17)
(-3.14616e-05 6.15495e-06 -1.03017e-15)
(-3.9374e-05 2.49201e-06 5.5326e-16)
(-4.66245e-05 1.9618e-06 3.06313e-15)
(-5.8091e-05 3.31735e-06 5.11836e-17)
(-7.21141e-05 -6.38976e-06 2.49736e-15)
(-9.0652e-05 -2.36398e-05 -3.42277e-15)
(-0.000126043 -4.24527e-05 -6.46566e-15)
(-0.00022701 -7.99962e-05 3.78589e-15)
(-0.000322788 -0.000604675 -2.26299e-14)
(-1.4593e-05 8.87072e-05 2.41731e-15)
(-8.23625e-06 0.000100533 4.02435e-15)
(-2.57481e-06 0.000117661 -1.76075e-16)
(9.8421e-06 0.00012652 2.16999e-19)
(2.19202e-05 0.000126984 -2.54026e-15)
(3.48103e-05 0.000136153 -6.73418e-15)
(4.95393e-05 0.000133867 -4.93856e-15)
(6.17346e-05 0.000127949 -5.2368e-14)
(7.05716e-05 0.000117722 -1.00713e-15)
(7.55671e-05 0.000103657 1.92803e-14)
(7.7518e-05 9.00229e-05 -2.32914e-14)
(7.75575e-05 7.97176e-05 1.41246e-13)
(7.26319e-05 7.17969e-05 1.49071e-13)
(6.43616e-05 6.47846e-05 2.69491e-14)
(5.33105e-05 5.93385e-05 2.76871e-13)
(4.07909e-05 5.63242e-05 -5.76105e-14)
(2.86828e-05 5.70189e-05 -7.29773e-16)
(1.75153e-05 6.09374e-05 2.14469e-13)
(3.74385e-06 7.14323e-05 9.99258e-14)
(-1.03578e-05 9.08182e-05 -2.94233e-14)
(-2.82117e-05 0.000137738 -1.21911e-13)
(2.0889e-05 0.000283342 -1.15867e-14)
(0.000298361 0.000424667 -9.36596e-14)
(0.000562601 5.92933e-05 -8.1038e-14)
(0.000132131 -0.000717706 4.88754e-14)
(-0.000836872 -0.000730814 -3.10924e-14)
(-0.00116526 0.000362545 -5.64895e-14)
(-0.000380297 0.00121769 6.45113e-15)
(0.000666445 0.00101754 -3.1152e-15)
(0.00130173 0.000341851 -3.83241e-15)
(0.00133266 -0.000243044 8.20593e-14)
(0.000734733 -0.000519557 -2.93309e-14)
(-0.000124108 -0.00041406 -3.90374e-14)
(-0.000583704 -0.00016159 2.27051e-13)
(0.000760135 -0.000275057 3.70597e-14)
(0.0103223 -0.00540753 -8.29269e-14)
(-0.00516541 0.0024267 -1.57678e-14)
(-0.00585721 0.0080585 2.61404e-14)
(0.00249451 -0.00495541 -5.04906e-15)
(-2.23967e-05 8.33693e-05 -1.31444e-14)
(-3.08256e-05 7.82e-05 -3.10176e-14)
(-4.05402e-05 6.72743e-05 5.06888e-14)
(-4.33208e-05 5.52886e-05 9.71643e-14)
(-4.86254e-05 4.16977e-05 6.43188e-14)
(-4.98925e-05 3.1381e-05 -1.65789e-13)
(-4.89666e-05 2.65738e-05 -1.14058e-13)
(-4.76311e-05 2.37617e-05 -3.87774e-14)
(-4.80965e-05 2.2028e-05 7.08571e-14)
(-4.98284e-05 2.21879e-05 7.32028e-14)
(-5.17364e-05 2.28715e-05 2.72944e-14)
(-5.33591e-05 2.3217e-05 2.50397e-14)
(-5.34482e-05 2.25202e-05 -2.67403e-14)
(-5.18029e-05 2.06617e-05 -8.73371e-14)
(-4.86245e-05 1.81476e-05 1.34147e-14)
(-4.47951e-05 1.56108e-05 2.7094e-14)
(-4.0873e-05 1.34385e-05 1.84377e-14)
(-3.66951e-05 1.14209e-05 5.10857e-14)
(-3.22452e-05 9.62603e-06 -2.84805e-14)
(-2.77165e-05 8.08387e-06 -2.12612e-14)
(-2.34351e-05 7.31127e-06 -1.5318e-14)
(-1.96003e-05 7.45397e-06 -3.15586e-15)
(-1.65841e-05 8.78179e-06 2.4638e-14)
(-1.51589e-05 1.08665e-05 1.64548e-14)
(-1.58522e-05 1.28189e-05 1.90872e-14)
(-1.85317e-05 1.37655e-05 6.46993e-15)
(-2.29781e-05 1.33689e-05 2.82239e-17)
(-2.83772e-05 1.11445e-05 2.21307e-15)
(-2.9918e-05 6.63834e-06 -3.08454e-16)
(-2.78291e-05 5.82351e-06 3.02084e-16)
(-3.11945e-05 6.08985e-06 -3.7977e-16)
(-3.8879e-05 2.47511e-06 3.17791e-17)
(-4.6462e-05 1.06952e-06 -1.7593e-15)
(-5.75793e-05 1.16277e-06 4.23967e-16)
(-7.27126e-05 -1.90441e-06 4.629e-15)
(-8.84043e-05 -8.19999e-06 -1.09944e-15)
(-0.000130213 -1.41883e-05 8.88886e-16)
(-0.00024791 -4.82076e-05 -8.14201e-15)
(-0.000673562 -0.000195971 7.93537e-15)
(-1.40996e-05 8.15091e-05 -2.94633e-15)
(-8.20426e-06 9.20984e-05 1.78891e-16)
(-2.11183e-06 0.000106972 -1.65407e-15)
(8.85411e-06 0.000119075 -1.52309e-15)
(2.22893e-05 0.000118097 9.00192e-15)
(3.58358e-05 0.000115122 -2.93906e-15)
(4.87483e-05 0.000118913 2.92742e-14)
(6.08292e-05 0.000115966 2.04786e-14)
(6.85522e-05 0.000107843 5.16008e-15)
(7.39461e-05 9.6746e-05 -1.7069e-15)
(7.59447e-05 8.30578e-05 7.12004e-15)
(7.61345e-05 7.42794e-05 -3.14154e-14)
(7.33147e-05 6.77532e-05 -1.37085e-13)
(6.53903e-05 6.14565e-05 3.64126e-14)
(5.52366e-05 5.67923e-05 1.8814e-14)
(4.32662e-05 5.42752e-05 5.25268e-14)
(3.19269e-05 5.48852e-05 -4.53497e-16)
(2.10013e-05 6.06254e-05 -9.4064e-14)
(9.71701e-06 7.32278e-05 -1.38998e-13)
(-2.03041e-07 9.33394e-05 -1.19687e-13)
(-4.27121e-06 0.000134019 -6.96968e-14)
(4.3924e-05 0.000230932 -5.64245e-14)
(0.000240041 0.000296495 1.91327e-14)
(0.00040907 1.44301e-06 6.7224e-14)
(8.03898e-05 -0.000562154 -3.61852e-14)
(-0.000639972 -0.000550199 -1.3766e-14)
(-0.000860595 0.000307526 4.44591e-14)
(-0.000196413 0.00102013 2.10508e-15)
(0.000650056 0.000875226 2.45305e-14)
(0.00102637 0.000277984 -3.05758e-14)
(0.000919248 -0.000261053 -1.01142e-13)
(0.000513134 -0.000505307 -5.51578e-14)
(3.40538e-05 -0.000414328 3.49528e-14)
(-0.000377967 -0.000178984 -1.5019e-14)
(-0.000377948 2.17173e-05 2.03711e-14)
(-0.000622746 0.000873565 3.04939e-14)
(-0.000162945 -0.000138751 5.42055e-15)
(0.00224714 0.000624176 -1.68978e-14)
(-0.000927061 -0.00566743 4.26406e-14)
(-2.02471e-05 7.56846e-05 -2.40514e-14)
(-2.82846e-05 7.13879e-05 1.50619e-14)
(-3.52066e-05 6.36025e-05 4.42746e-14)
(-3.98074e-05 5.16681e-05 1.44969e-14)
(-4.25573e-05 3.95479e-05 1.02133e-13)
(-4.5631e-05 3.16554e-05 1.87091e-14)
(-4.58972e-05 2.79578e-05 -2.79246e-15)
(-4.68643e-05 2.52193e-05 -9.34344e-14)
(-4.73507e-05 2.21271e-05 -3.88165e-14)
(-4.96918e-05 2.15009e-05 5.64921e-14)