/*--------------------------------*- C++ -*----------------------------------*\
| =========                 |                                                 |
| \\      /  F ield         | OpenFOAM: The Open Source CFD Toolbox           |
|  \\    /   O peration     | Version:  2306                                  |
|   \\  /    A nd           | Website:  www.openfoam.com                      |
|    \\/     M anipulation  |                                                 |
\*---------------------------------------------------------------------------*/
FoamFile
{
    version     2.0;
    format      ascii;
    arch        "LSB;label=32;scalar=64";
    class       volScalarField;
    location    "25";
    object      magR;
}
// * * * * * * * * * * * * * * * * * * * * * * * * * * * * * * * * * * * * * //

dimensions      [0 2 -2 0 0 0 0];

internalField   nonuniform List<scalar> 
1340
(
0.000470364
0.000471292
0.000472592
0.000399053
0.000400185
0.000402064
0.000403373
0.000400485
0.000340802
0.000342198
0.000344058
0.000345548
0.000344401
0.000342141
0.00033801
0.000292618
0.000294056
0.00029599
0.000297428
0.000296779
0.000295529
0.00029377
0.000290686
0.000252518
0.00025399
0.000255737
0.000257176
0.000257047
0.000256328
0.000255254
0.00025322
0.000250109
0.000218884
0.000220232
0.000221921
0.000223269
0.000223362
0.000223205
0.000222715
0.000221241
0.000219182
0.000190449
0.00019171
0.000193176
0.000194498
0.000194864
0.000194956
0.000194831
0.00019397
0.000192443
0.000190328
0.000166223
0.000167377
0.000168788
0.000170016
0.000170459
0.000170809
0.000170952
0.000170372
0.000169323
0.000167788
0.000165382
0.00014553
0.000146644
0.000147884
0.000149038
0.000149609
0.000150007
0.000150278
0.000150045
0.000149326
0.000148136
0.000146462
0.000127779
0.000128775
0.000129957
0.000131017
0.000131557
0.000132079
0.000132462
0.000132345
0.000131926
0.000131133
0.000129822
0.000128076
0.000112464
0.000113397
0.000114432
0.00011543
0.00011602
0.000116517
0.000116937
0.000117015
0.000116777
0.000116211
0.000115255
0.000113984
9.91874e-05
0.000100059
0.000101054
0.000101946
0.000102471
0.000103009
0.000103473
0.000103584
0.000103513
0.000103194
0.000102476
0.000101469
0.000100052
8.76622e-05
8.85244e-05
8.9389e-05
9.02001e-05
9.07286e-05
9.12097e-05
9.16724e-05
9.19034e-05
9.19179e-05
9.17188e-05
9.12301e-05
9.04546e-05
8.93692e-05
7.76322e-05
7.84144e-05
7.92319e-05
7.99484e-05
8.04068e-05
8.09181e-05
8.13973e-05
8.16246e-05
8.1733e-05
8.16749e-05
8.13236e-05
8.07307e-05
7.98777e-05
7.86532e-05
6.88428e-05
6.95815e-05
7.02914e-05
7.09496e-05
7.1416e-05
7.18843e-05
7.23487e-05
7.2649e-05
7.27937e-05
7.27864e-05
7.2577e-05
7.21406e-05
7.14524e-05
7.05078e-05
6.11189e-05
6.18e-05
6.2477e-05
6.306e-05
6.34809e-05
6.39701e-05
6.4442e-05
6.47215e-05
6.49172e-05
6.49926e-05
6.48513e-05
6.45401e-05
6.4007e-05
6.32351e-05
5.43386e-05
5.49814e-05
5.55664e-05
5.61088e-05
5.65451e-05
5.69963e-05
5.74496e-05
5.77774e-05
5.79872e-05
5.80873e-05
5.80418e-05
5.78336e-05
5.74248e-05
5.68474e-05
5.60662e-05
4.83685e-05
4.89308e-05
4.94884e-05
4.9992e-05
5.03973e-05
5.08665e-05
5.13194e-05
5.16164e-05
5.18608e-05
5.20208e-05
5.20215e-05
5.19163e-05
5.16528e-05
5.12166e-05
5.06789e-05
4.31062e-05
4.36191e-05
4.41024e-05
4.45882e-05
4.50082e-05
4.54415e-05
4.58685e-05
4.61987e-05
4.64505e-05
4.66287e-05
4.67087e-05
4.66815e-05
4.65501e-05
4.62761e-05
4.59021e-05
3.84379e-05
3.89055e-05
3.9378e-05
3.98231e-05
4.02094e-05
4.06482e-05
4.10688e-05
4.13705e-05
4.16467e-05
4.18743e-05
4.1989e-05
4.20457e-05
4.20042e-05
4.18488e-05
4.16085e-05
4.12432e-05
3.42981e-05
3.47547e-05
3.51788e-05
3.55992e-05
3.59858e-05
3.63861e-05
3.67849e-05
3.71139e-05
3.73927e-05
3.76288e-05
3.78024e-05
3.79053e-05
3.79386e-05
3.78839e-05
3.7712e-05
3.74724e-05
3.06876e-05
3.1076e-05
3.14794e-05
3.18586e-05
3.22062e-05
3.26085e-05
3.30015e-05
3.33038e-05
3.35977e-05
3.38671e-05
3.40574e-05
3.42093e-05
3.42913e-05
3.42891e-05
3.42179e-05
3.40461e-05
2.72295e-05
2.74854e-05
2.78234e-05
2.81723e-05
2.85275e-05
2.88687e-05
2.92369e-05
2.96054e-05
2.99279e-05
3.02184e-05
3.04853e-05
3.07122e-05
3.08894e-05
3.10191e-05
3.10823e-05
3.10579e-05
3.09937e-05
3.08687e-05
2.43827e-05
2.45882e-05
2.49057e-05
2.52429e-05
2.55644e-05
2.58723e-05
2.62361e-05
2.6597e-05
2.6892e-05
2.719e-05
2.74772e-05
2.77081e-05
2.79173e-05
2.80744e-05
2.81817e-05
2.82488e-05
2.82529e-05
2.82299e-05
2.18318e-05
2.20154e-05
2.23118e-05
2.26123e-05
2.29164e-05
2.32193e-05
2.35485e-05
2.38877e-05
2.41956e-05
2.44857e-05
2.47616e-05
2.50152e-05
2.52356e-05
2.54283e-05
2.55782e-05
2.56931e-05
2.57769e-05
2.58425e-05
1.95599e-05
1.97175e-05
1.99861e-05
2.02759e-05
2.05565e-05
2.0828e-05
2.11518e-05
2.14803e-05
2.176e-05
2.20496e-05
2.23369e-05
2.25849e-05
2.2823e-05
2.30297e-05
2.32082e-05
2.33773e-05
2.35163e-05
2.36306e-05
2.3728e-05
1.75142e-05
1.76729e-05
1.79206e-05
1.81779e-05
1.84437e-05
1.87071e-05
1.90004e-05
1.93045e-05
1.95904e-05
1.98671e-05
2.0139e-05
2.03982e-05
2.06377e-05
2.08628e-05
2.10663e-05
2.12524e-05
2.14371e-05
2.15925e-05
2.17465e-05
1.57072e-05
1.58476e-05
1.60691e-05
1.63166e-05
1.65572e-05
1.67937e-05
1.70774e-05
1.73696e-05
1.76272e-05
1.78989e-05
1.8174e-05
1.84214e-05
1.8668e-05
1.88955e-05
1.91105e-05
1.9324e-05
1.95199e-05
1.97206e-05
1.99063e-05
1.40886e-05
1.42176e-05
1.44247e-05
1.46418e-05
1.4868e-05
1.50972e-05
1.53509e-05
1.56205e-05
1.58789e-05
1.61347e-05
1.63902e-05
1.66404e-05
1.68796e-05
1.71141e-05
1.73357e-05
1.75489e-05
1.77696e-05
1.7981e-05
1.81987e-05
1.26464e-05
1.2759e-05
1.29472e-05
1.31552e-05
1.33624e-05
1.35661e-05
1.38104e-05
1.40659e-05
1.42959e-05
1.45413e-05
1.47936e-05
1.50278e-05
1.52654e-05
1.54928e-05
1.57129e-05
1.59365e-05
1.61535e-05
1.63755e-05
1.66195e-05
1.13448e-05
1.14613e-05
1.16353e-05
1.18199e-05
1.20144e-05
1.2209e-05
1.24269e-05
1.26591e-05
1.28857e-05
1.31133e-05
1.33448e-05
1.35752e-05
1.38011e-05
1.40267e-05
1.42459e-05
1.44621e-05
1.4685e-05
1.49097e-05
1.51553e-05
1.54366e-05
1.01952e-05
1.03001e-05
1.0457e-05
1.06349e-05
1.08104e-05
1.09841e-05
1.11916e-05
1.14102e-05
1.16109e-05
1.18264e-05
1.20506e-05
1.22627e-05
1.2482e-05
1.26971e-05
1.29113e-05
1.31285e-05
1.33458e-05
1.3579e-05
1.38072e-05
1.40872e-05
9.16266e-06
9.26022e-06
9.40806e-06
9.5659e-06
9.7313e-06
9.89843e-06
1.0083e-05
1.02821e-05
1.04774e-05
1.0675e-05
1.08777e-05
1.10828e-05
1.12875e-05
1.1497e-05
1.17048e-05
1.19149e-05
1.21343e-05
1.23527e-05
1.25995e-05
1.28627e-05
8.23963e-06
8.32603e-06
8.46186e-06
8.61425e-06
8.76702e-06
8.91626e-06
9.09324e-06
9.28025e-06
9.45216e-06
9.63747e-06
9.83158e-06
1.00181e-05
1.02134e-05
1.04094e-05
1.06085e-05
1.0816e-05
1.10282e-05
1.12527e-05
1.14907e-05
1.17472e-05
7.40281e-06
7.49127e-06
7.61714e-06
7.75432e-06
7.89925e-06
8.04272e-06
8.20183e-06
8.37193e-06
8.53947e-06
8.70897e-06
8.88416e-06
9.06204e-06
9.24234e-06
9.42924e-06
9.6193e-06
9.81634e-06
1.00231e-05
1.02402e-05
1.0472e-05
1.07217e-05
6.66041e-06
6.73902e-06
6.85271e-06
6.98563e-06
7.11818e-06
7.24857e-06
7.40161e-06
7.56269e-06
7.71211e-06
7.87172e-06
8.03871e-06
8.20006e-06
8.37003e-06
8.54253e-06
8.7207e-06
8.9078e-06
9.10335e-06
9.31011e-06
9.53072e-06
9.76578e-06
1.00259e-05
5.98875e-06
6.06021e-06
6.16631e-06
6.28541e-06
6.4115e-06
6.53824e-06
6.67698e-06
6.82646e-06
6.97285e-06
7.12005e-06
7.2713e-06
7.42485e-06
7.58033e-06
7.74269e-06
7.90796e-06
8.07998e-06
8.26166e-06
8.45146e-06
8.65685e-06
8.87417e-06
9.10593e-06
5.38332e-06
5.4454e-06
5.54169e-06
5.65594e-06
5.77294e-06
5.88814e-06
6.02307e-06
6.16567e-06
6.29772e-06
6.43751e-06
6.58258e-06
6.72236e-06
6.86848e-06
7.01665e-06
7.16858e-06
7.32853e-06
7.4947e-06
7.67044e-06
7.85133e-06
8.05033e-06
8.252e-06
4.82994e-06
4.89201e-06
4.9793e-06
5.08157e-06
5.19224e-06
5.303e-06
5.4264e-06
5.5589e-06
5.68928e-06
5.81984e-06
5.95322e-06
6.08691e-06
6.22128e-06
6.35983e-06
6.50026e-06
6.64498e-06
6.79684e-06
6.95403e-06
7.12046e-06
7.29467e-06
7.47243e-06
4.33566e-06
4.38962e-06
4.46702e-06
4.56409e-06
4.66466e-06
4.76552e-06
4.88445e-06
5.01106e-06
5.13036e-06
5.25562e-06
5.38428e-06
5.50743e-06
5.63446e-06
5.76174e-06
5.89076e-06
6.02423e-06
6.16126e-06
6.30287e-06
6.44807e-06
6.60159e-06
6.7589e-06
3.88598e-06
3.93433e-06
4.00523e-06
4.09059e-06
4.18477e-06
4.28109e-06
4.38901e-06
4.50736e-06
4.62442e-06
4.74162e-06
4.86078e-06
4.97934e-06
5.09714e-06
5.21715e-06
5.33646e-06
5.45731e-06
5.58145e-06
5.70797e-06
5.83897e-06
5.97309e-06
6.11235e-06
6.26205e-06
3.47974e-06
3.52164e-06
3.58513e-06
3.66494e-06
3.75058e-06
3.83681e-06
3.9399e-06
4.05164e-06
4.15805e-06
4.26988e-06
4.38468e-06
4.49461e-06
4.60662e-06
4.71759e-06
4.82798e-06
4.94049e-06
5.05366e-06
5.16838e-06
5.28407e-06
5.40519e-06
5.52979e-06
5.65504e-06
3.10956e-06
3.15166e-06
3.20836e-06
3.27828e-06
3.35751e-06
3.438e-06
3.53051e-06
3.63305e-06
3.73591e-06
3.83984e-06
3.94618e-06
4.05155e-06
4.15582e-06
4.2607e-06
4.36412e-06
4.4673e-06
4.57175e-06
4.67681e-06
4.78237e-06
4.88859e-06
4.99939e-06
5.10461e-06
2.78183e-06
2.81825e-06
2.86786e-06
2.93276e-06
3.00317e-06
3.0747e-06
3.16122e-06
3.25661e-06
3.34929e-06
3.44722e-06
3.54818e-06
3.64545e-06
3.74413e-06
3.84154e-06
3.93785e-06
4.03455e-06
4.13097e-06
4.22704e-06
4.32286e-06
4.41939e-06
4.51655e-06
4.6083e-06
2.48724e-06
2.51937e-06
2.56397e-06
2.61976e-06
2.68442e-06
2.75062e-06
2.82712e-06
2.91415e-06
3.00193e-06
3.09139e-06
3.18367e-06
3.2757e-06
3.36683e-06
3.45849e-06
3.5482e-06
3.6372e-06
3.72633e-06
3.81508e-06
3.90339e-06
3.9897e-06
4.07729e-06
4.15595e-06
2.22447e-06
2.25134e-06
2.29012e-06
2.34108e-06
2.39869e-06
2.45673e-06
2.52785e-06
2.60773e-06
2.68562e-06
2.76857e-06
2.85491e-06
2.93882e-06
3.02406e-06
3.10827e-06
3.19133e-06
3.2744e-06
3.3566e-06
3.43845e-06
3.51896e-06
3.59892e-06
3.67546e-06
3.74524e-06
1.98752e-06
2.0132e-06
2.04615e-06
2.08945e-06
2.14183e-06
2.19484e-06
2.2575e-06
2.32958e-06
2.40266e-06
2.47773e-06
2.55606e-06
2.63432e-06
2.71228e-06
2.7908e-06
2.86782e-06
2.94399e-06
3.01994e-06
3.0952e-06
3.16916e-06
3.24042e-06
3.30928e-06
3.37006e-06
1.77927e-06
1.79937e-06
1.82628e-06
1.86502e-06
1.9106e-06
1.95706e-06
2.01493e-06
2.08104e-06
2.14612e-06
2.21542e-06
2.28789e-06
2.35874e-06
2.43112e-06
2.50314e-06
2.57438e-06
2.64517e-06
2.71498e-06
2.78347e-06
2.85048e-06
2.91549e-06
2.97774e-06
3.03148e-06
3.07697e-06
1.59186e-06
1.60752e-06
1.6297e-06
1.66127e-06
1.70234e-06
1.74467e-06
1.79563e-06
1.85597e-06
1.917e-06
1.97955e-06
2.04497e-06
2.11064e-06
2.17662e-06
2.24375e-06
2.30973e-06
2.37482e-06
2.43898e-06
2.50186e-06
2.5628e-06
2.62109e-06
2.67629e-06
2.72632e-06
2.76464e-06
1.42368e-06
1.43474e-06
1.45243e-06
1.4799e-06
1.51549e-06
1.55218e-06
1.5995e-06
1.65494e-06
1.70944e-06
1.76714e-06
1.82743e-06
1.88665e-06
1.94773e-06
2.00922e-06
2.07039e-06
2.13112e-06
2.1905e-06
2.24823e-06
2.30391e-06
2.3569e-06
2.4055e-06
2.44944e-06
2.47995e-06
1.2707e-06
1.28081e-06
1.29463e-06
1.31671e-06
1.34844e-06
1.38155e-06
1.42333e-06
1.47387e-06
1.52509e-06
1.57708e-06
1.6314e-06
1.68594e-06
1.74142e-06
1.79855e-06
1.85532e-06
1.91163e-06
1.96695e-06
2.02057e-06
2.07152e-06
2.11903e-06
2.1622e-06
2.19992e-06
2.22463e-06
1.13572e-06
1.14272e-06
1.15355e-06
1.17285e-06
1.19993e-06
1.22892e-06
1.26766e-06
1.31417e-06
1.36018e-06
1.4078e-06
1.45722e-06
1.5062e-06
1.55747e-06
1.60982e-06
1.66244e-06
1.71494e-06
1.76632e-06
1.81577e-06
1.86265e-06
1.90549e-06
1.94334e-06
1.97578e-06
1.99472e-06
1.01206e-06
1.01802e-06
1.02752e-06
1.04357e-06
1.06845e-06
1.09527e-06
1.12975e-06
1.17265e-06
1.21564e-06
1.25766e-06
1.30183e-06
1.34719e-06
1.39408e-06
1.44276e-06
1.49123e-06
1.53939e-06
1.58655e-06
1.63214e-06
1.67468e-06
1.71366e-06
1.74737e-06
1.77596e-06
1.78994e-06
8.9826e-07
9.03728e-07
9.13778e-07
9.29878e-07
9.52555e-07
9.77073e-07
1.00957e-06
1.04906e-06
1.0872e-06
1.12462e-06
1.16507e-06
1.20701e-06
1.25104e-06
1.29565e-06
1.34029e-06
1.38435e-06
1.4273e-06
1.46842e-06
1.50746e-06
1.54244e-06
1.57396e-06
1.60009e-06
1.61024e-06
7.9306e-07
8.00869e-07
8.11486e-07
8.27316e-07
8.49465e-07
8.73233e-07
9.02646e-07
9.39277e-07
9.74292e-07
1.00621e-06
1.04392e-06
1.08468e-06
1.12556e-06
1.16707e-06
1.20806e-06
1.24862e-06
1.28779e-06
1.32539e-06
1.36029e-06
1.39373e-06
1.42426e-06
1.44638e-06
1.45209e-06
6.98872e-07
7.06424e-07
7.17424e-07
7.34482e-07
7.55586e-07
7.78664e-07
8.06514e-07
8.41435e-07
8.71525e-07
8.99101e-07
9.3667e-07
9.76301e-07
1.01427e-06
1.05217e-06
1.09098e-06
1.12935e-06
1.16625e-06
1.20102e-06
1.23447e-06
1.26596e-06
1.29027e-06
1.30875e-06
1.31095e-06
1.30063e-06
6.13433e-07
6.20804e-07
6.32088e-07
6.49098e-07
6.7015e-07
6.93149e-07
7.18118e-07
7.5218e-07
7.75925e-07
8.00587e-07
8.40839e-07
8.78428e-07
9.10141e-07
9.4534e-07
9.83154e-07
1.02094e-06
1.0571e-06
1.09129e-06
1.12286e-06
1.14951e-06
1.17087e-06
1.18351e-06
1.18264e-06
1.17184e-06
5.28313e-07
5.34539e-07
5.45618e-07
5.64567e-07
5.85646e-07
6.08756e-07
6.33144e-07
6.6815e-07
6.8407e-07
7.10641e-07
7.5782e-07
7.90096e-07
8.12989e-07
8.45269e-07
8.83777e-07
9.21752e-07
9.5734e-07
9.90876e-07
1.02033e-06
1.04385e-06
1.06003e-06
1.06964e-06
1.06816e-06
1.05707e-06
4.66428e-07
4.70776e-07
4.80183e-07
4.96717e-07
5.1591e-07
5.37582e-07
5.58373e-07
5.91244e-07
6.00174e-07
6.29243e-07
6.79537e-07
7.07651e-07
7.2591e-07
7.59563e-07
7.99379e-07
8.3659e-07
8.70562e-07
9.01546e-07
9.28199e-07
9.48324e-07
9.62465e-07
9.70979e-07
9.68799e-07
9.57864e-07
4.25959e-07
4.26518e-07
4.32442e-07
4.45127e-07
4.60983e-07
4.78637e-07
4.94553e-07
5.20266e-07
5.24236e-07
5.5086e-07
6.00743e-07
6.28527e-07
6.49234e-07
6.85806e-07
7.28222e-07
7.66317e-07
7.99524e-07
8.29165e-07
8.54066e-07
8.72937e-07
8.8613e-07
8.91509e-07
8.86536e-07
8.76203e-07
3.85196e-07
3.82772e-07
3.85759e-07
3.96287e-07
4.10441e-07
4.25512e-07
4.38588e-07
4.58566e-07
4.61395e-07
4.80396e-07
5.25062e-07
5.49992e-07
5.73416e-07
6.12691e-07
6.57217e-07
6.97529e-07
7.32284e-07
7.63049e-07
7.89661e-07
8.10368e-07
8.23899e-07
8.28564e-07
8.22122e-07
8.10171e-07
3.47638e-07
3.41628e-07
3.41061e-07
3.48111e-07
3.59251e-07
3.7201e-07
3.84195e-07
3.99809e-07
4.02734e-07
4.15605e-07
4.57284e-07
4.78178e-07
5.03585e-07
5.43016e-07
5.87561e-07
6.28185e-07
6.6326e-07
6.9419e-07
7.21264e-07
7.44276e-07
7.59996e-07
7.65079e-07
7.58735e-07
7.47474e-07
3.11646e-07
3.0367e-07
2.99475e-07
3.02526e-07
3.10613e-07
3.20433e-07
3.31005e-07
3.42459e-07
3.45984e-07
3.52836e-07
3.9178e-07
4.09212e-07
4.37214e-07
4.77601e-07
5.21411e-07
5.61698e-07
5.96281e-07
6.265e-07
6.54337e-07
6.79044e-07
6.96007e-07
7.02117e-07
6.97481e-07
6.86429e-07
2.762e-07
2.67114e-07
2.60951e-07
2.60748e-07
2.65132e-07
2.71897e-07
2.80871e-07
2.87631e-07
2.9091e-07
2.93695e-07
3.29446e-07
3.43689e-07
3.74854e-07
4.16005e-07
4.59231e-07
4.9862e-07
5.32822e-07
5.62722e-07
5.90464e-07
6.15255e-07
6.32892e-07
6.41201e-07
6.38162e-07
6.28415e-07
2.41928e-07
2.33495e-07
2.26448e-07
2.2361e-07
2.25073e-07
2.28545e-07
2.34579e-07
2.37222e-07
2.40222e-07
2.40619e-07
2.72454e-07
2.84135e-07
3.17609e-07
3.59601e-07
4.01352e-07
4.39933e-07
4.73584e-07
5.03123e-07
5.3008e-07
5.53073e-07
5.70234e-07
5.79872e-07
5.79839e-07
5.72734e-07
2.08857e-07
2.02291e-07
1.96294e-07
1.92336e-07
1.90948e-07
1.91277e-07
1.9387e-07
1.92989e-07
1.9454e-07
1.94211e-07
2.23695e-07
2.33422e-07
2.68088e-07
3.09451e-07
3.49453e-07
3.85858e-07
4.18405e-07
4.4724e-07
4.71686e-07
4.92573e-07
5.08948e-07
5.1822e-07
5.1871e-07
5.10164e-07
4.98705e-07
1.77328e-07
1.74187e-07
1.70601e-07
1.66836e-07
1.64036e-07
1.6143e-07
1.59414e-07
1.56098e-07
1.54883e-07
1.53275e-07
1.85236e-07
1.94294e-07
2.27997e-07
2.67679e-07
3.03924e-07
3.37072e-07
3.674e-07
3.93252e-07
4.15706e-07
4.35902e-07
4.53785e-07
4.69175e-07
4.78676e-07
4.81571e-07
4.83125e-07
1.49071e-07
1.49774e-07
1.49448e-07
1.4687e-07
1.42752e-07
1.3768e-07
1.31654e-07
1.26222e-07
1.21003e-07
1.19157e-07
1.58259e-07
1.66506e-07
1.96277e-07
2.29658e-07
2.59649e-07
2.88174e-07
3.15024e-07
3.38885e-07
3.58768e-07
3.7463e-07
3.87233e-07
3.94907e-07
3.94675e-07
3.88495e-07
3.84584e-07
1.26647e-07
1.3148e-07
1.33632e-07
1.31287e-07
1.25424e-07
1.17141e-07
1.07128e-07
9.96561e-08
9.12943e-08
9.25487e-08
1.36146e-07
1.39845e-07
1.63224e-07
1.90217e-07
2.17073e-07
2.45992e-07
2.77364e-07
3.08441e-07
3.369e-07
3.63398e-07
3.89367e-07
4.16922e-07
4.45611e-07
4.71618e-07
4.93056e-07
1.13273e-07
1.20985e-07
1.23852e-07
1.20071e-07
1.10213e-07
9.59582e-08
7.97887e-08
6.68677e-08
5.61922e-08
6.54049e-08
1.08341e-07
1.17719e-07
1.39442e-07
1.60028e-07
1.78856e-07
2.00628e-07
2.27205e-07
2.57083e-07
2.88035e-07
3.17965e-07
3.45104e-07
3.68663e-07
3.88404e-07
4.05799e-07
4.24828e-07
1.08145e-07
1.13557e-07
1.12282e-07
1.03618e-07
8.74582e-08
6.49771e-08
3.95028e-08
1.75582e-08
2.06324e-08
7.11912e-08
5.05252e-08
6.01748e-08
1.02366e-07
1.5041e-07
2.04554e-07
2.64535e-07
3.29929e-07
3.99324e-07
4.70394e-07
5.40415e-07
6.05757e-07
6.6259e-07
7.06151e-07
7.34856e-07
7.58699e-07
)
;

boundaryField
{
    inlet
    {
        type            calculated;
        value           nonuniform List<scalar> 
25
(
1.09883e-07
1.12451e-07
1.08085e-07
9.64748e-08
7.71778e-08
5.10789e-08
2.33814e-08
2.2356e-08
5.0887e-08
7.55744e-08
1.1658e-07
1.92293e-07
2.72954e-07
3.67662e-07
4.8832e-07
6.40119e-07
8.23672e-07
1.03656e-06
1.2742e-06
1.53017e-06
1.79586e-06
2.05925e-06
2.30661e-06
2.52226e-06
2.7049e-06
)
;
    }
    outlet
    {
        type            calculated;
        value           nonuniform List<scalar> 0();
    }
    walls
    {
        type            calculated;
        value           nonuniform List<scalar> 0();
    }
    frontAndBack
    {
        type            empty;
    }
    procBoundary4to0
    {
        type            processor;
        value           nonuniform List<scalar> 
72
(
0.000469817
0.000398209
0.000339848
0.000291787
0.000251697
0.000218144
0.00018972
0.000165621
0.000144924
0.000127203
0.000111894
9.86854e-05
8.71498e-05
7.7133e-05
6.83569e-05
6.06925e-05
5.39313e-05
4.80298e-05
4.28086e-05
3.82261e-05
3.4118e-05
3.04676e-05
3.04676e-05
2.70042e-05
2.41583e-05
2.1632e-05
1.93779e-05
1.73632e-05
1.5555e-05
1.39475e-05
1.25138e-05
1.12307e-05
1.0078e-05
9.05236e-06
8.13575e-06
7.31272e-06
6.5705e-06
5.90648e-06
5.30846e-06
4.76682e-06
4.27453e-06
3.83121e-06
3.43047e-06
3.06827e-06
2.74209e-06
2.4525e-06
2.19453e-06
1.9645e-06
1.75912e-06
1.5763e-06
1.41189e-06
1.26315e-06
1.12928e-06
1.00623e-06
8.91948e-07
7.87341e-07
6.92473e-07
6.07622e-07
5.23328e-07
4.64699e-07
4.27893e-07
3.89682e-07
3.55181e-07
3.21099e-07
2.85821e-07
2.50441e-07
2.14816e-07
1.79884e-07
1.47626e-07
1.2029e-07
1.01822e-07
9.82277e-08
)
;
    }
    procBoundary4to5
    {
        type            processor;
        value           nonuniform List<scalar> 
95
(
0.000559282
0.000559329
0.000558944
0.00047218
0.00047218
0.000468267
0.000395771
0.000395771
0.000391029
0.000332433
0.000332433
0.000283226
0.000283226
0.000242713
0.000215201
0.000215201
0.000184803
0.000184803
0.000159904
0.000143538
0.000143538
0.000123873
0.000111729
0.000111729
9.66835e-05
8.75862e-05
8.75862e-05
7.61688e-05
6.89889e-05
6.21043e-05
6.21043e-05
5.44129e-05
4.98331e-05
4.53243e-05
4.53243e-05
4.02207e-05
3.69998e-05
3.37957e-05
3.37957e-05
3.031e-05
2.81355e-05
2.58779e-05
2.58779e-05
2.35687e-05
2.18845e-05
2.01092e-05
1.84584e-05
1.69216e-05
1.69216e-05
1.56324e-05
1.4416e-05
1.31783e-05
1.20697e-05
1.10361e-05
1.10361e-05
1.026e-05
9.35966e-06
8.47936e-06
7.67219e-06
6.94105e-06
6.94105e-06
6.41401e-06
5.79292e-06
5.21544e-06
4.69851e-06
4.22949e-06
3.80371e-06
3.4226e-06
3.4226e-06
3.1283e-06
2.80446e-06
2.51007e-06
2.24541e-06
2.00786e-06
1.79429e-06
1.60812e-06
1.44184e-06
1.44184e-06
1.29916e-06
1.16565e-06
1.05088e-06
9.52374e-07
8.72641e-07
8.06578e-07
7.43927e-07
6.82104e-07
6.22432e-07
5.68473e-07
5.68473e-07
4.97439e-07
4.87665e-07
3.87731e-07
5.09315e-07
4.45944e-07
7.72069e-07
)
;
    }
}


// ************************************************************************* //
