/*--------------------------------*- C++ -*----------------------------------*\
| =========                 |                                                 |
| \\      /  F ield         | OpenFOAM: The Open Source CFD Toolbox           |
|  \\    /   O peration     | Version:  2306                                  |
|   \\  /    A nd           | Website:  www.openfoam.com                      |
|    \\/     M anipulation  |                                                 |
\*---------------------------------------------------------------------------*/
FoamFile
{
    version     2.0;
    format      ascii;
    arch        "LSB;label=32;scalar=64";
    class       volScalarField;
    location    "25";
    object      p;
}
// * * * * * * * * * * * * * * * * * * * * * * * * * * * * * * * * * * * * * //

dimensions      [0 2 -2 0 0 0 0];

internalField   nonuniform List<scalar> 
1340
(
119.153
102.585
83.1894
111.503
96.1184
78.184
58.613
36.6321
104.028
89.716
73.0416
54.9561
34.69
12.8527
-10.0084
96.7815
83.4123
67.907
51.1338
32.3516
12.1675
-8.93988
-30.9845
89.82
77.3244
62.8266
47.232
29.7996
11.0612
-8.50604
-28.9021
-49.8412
83.1936
71.4531
57.8981
43.3421
27.0833
9.6613
-8.49664
-27.4578
-46.8684
76.9133
65.8756
53.1188
39.5026
24.3303
8.07269
-8.84633
-26.4476
-44.4845
-62.7731
70.9906
60.551
48.5603
35.7807
21.5529
6.36592
-9.39442
-25.8158
-42.5862
-59.563
-76.7118
65.4111
55.552
44.2076
32.1928
18.8515
4.6149
-10.1344
-25.4236
-41.0519
-56.8691
-72.8059
60.1882
50.8273
40.1212
28.7848
16.2147
2.85801
-10.9313
-25.2504
-39.824
-54.5462
-69.3976
-84.2147
55.2973
46.427
36.255
25.5549
13.7226
1.14889
-11.8083
-25.1864
-38.8137
-52.5652
-66.4038
-80.2156
50.7288
42.2768
32.6538
22.5296
11.3403
-0.496112
-12.6557
-25.2348
-37.9842
-50.8199
-63.7466
-76.6308
-89.4228
46.4472
38.425
29.2649
19.6899
9.13087
-2.04782
-13.5164
-25.3061
-37.2689
-49.2939
-61.3623
-73.3958
-85.3323
42.459
34.8044
26.1304
17.0495
7.04331
-3.50615
-14.2983
-25.4221
-36.6461
-47.9017
-59.2029
-70.445
-81.605
-92.6282
38.7404
31.4646
23.1908
14.5894
5.13291
-4.85378
-15.0583
-25.5102
-36.0733
-46.647
-57.2222
-67.744
-78.1804
-88.4904
35.2926
28.3359
20.4915
12.3226
3.34234
-6.09751
-15.7206
-25.6082
-35.5433
-45.4638
-55.3936
-65.2489
-75.0252
-84.6991
32.0865
25.4715
17.9777
10.2272
1.7238
-7.23128
-16.3512
-25.6581
-35.0284
-44.3724
-53.6876
-62.9406
-72.1163
-81.1892
-90.1466
29.135
22.8053
15.6914
8.31098
0.21746
-8.26543
-16.88
-25.7035
-34.5337
-43.3194
-52.0941
-60.789
-69.4132
-77.9767
-86.3999
26.4098
20.3827
13.5687
6.55082
-1.12793
-9.19363
-17.3751
-25.693
-34.0388
-42.3363
-50.5886
-58.7781
-66.9039
-74.9479
-82.9316
23.9087
18.1299
11.6462
4.95004
-2.3757
-10.0289
-17.7707
-25.675
-33.556
-41.3717
-49.1659
-56.8804
-64.532
-72.1394
-79.6307
-87.0337
21.6028
16.0897
9.86196
3.48237
-3.4796
-10.7692
-18.138
-25.5995
-33.0619
-40.4607
-47.8037
-55.0836
-62.3024
-69.4481
-76.5391
-83.4899
19.4629
14.1798
8.24962
2.14911
-4.50209
-11.4292
-18.4098
-25.5144
-32.573
-39.5521
-46.5011
-53.3679
-60.1724
-66.9329
-73.5814
-80.1594
21.6653
17.4746
12.4404
6.745
0.928562
-5.39754
-12.0037
-18.6574
-25.3715
-32.0658
-38.6856
-45.2395
-51.7279
-58.1532
-64.5049
-70.8113
-76.9907
-83.0769
19.6457
15.6291
10.8032
5.3852
-0.175827
-6.2251
-12.5063
-18.8145
-25.2185
-31.5591
-37.8095
-44.0207
-50.1467
-56.2076
-62.2268
-68.141
-74.0158
-79.749
17.7521
13.9171
9.31844
4.1169
-1.18307
-6.93889
-12.9326
-18.9535
-25.0082
-31.0282
-36.965
-42.8279
-48.6206
-54.3495
-60.0059
-65.6284
-71.1399
-76.5997
16.0176
12.3382
7.92664
2.98116
-2.08855
-7.59396
-13.2964
-19.006
-24.7875
-30.494
-36.103
-41.665
-47.1378
-52.5435
-57.9064
-63.1771
-68.4182
-73.542
-78.5781
14.3982
10.8812
6.67671
1.92564
-2.90633
-8.14441
-13.589
-19.0415
-24.51
-29.9322
-35.2654
-40.5179
-45.6963
-50.8073
-55.847
-60.8554
-65.7646
-70.6247
-75.3675
12.9197
9.54476
5.50884
0.991124
-3.63061
-8.64343
-13.8231
-18.9954
-24.2217
-29.3647
-34.4052
-39.3917
-44.2861
-49.1093
-53.889
-58.5787
-63.2409
-67.7991
-72.2891
11.5437
8.32017
4.47143
0.129305
-4.27577
-9.04591
-13.9923
-18.9355
-23.8784
-28.7675
-33.5633
-38.2741
-42.9064
-47.4685
-51.9572
-56.4126
-60.7739
-65.0955
-69.3046
10.301
7.20462
3.50766
-0.620349
-4.83697
-9.40209
-14.109
-18.797
-23.5235
-28.1617
-32.6954
-37.1698
-41.5492
-45.855
-50.1127
-54.2833
-58.4242
-62.4637
-66.4531
9.14918
6.18856
2.66351
-1.30659
-5.3256
-9.66859
-14.1646
-18.6451
-23.1147
-27.5252
-31.8405
-36.0677
-40.2143
-44.288
-48.2879
-52.2517
-56.1232
-59.9597
-63.6864
-67.327
8.11294
5.26988
1.88307
-1.89094
-5.73699
-9.89444
-14.1706
-18.4195
-22.6947
-26.8788
-30.9578
-34.9739
-38.8948
-42.7403
-46.5367
-50.247
-53.9286
-57.5105
-61.0344
-64.4584
7.15668
4.44132
1.21151
-2.41879
-6.08343
-10.0379
-14.1216
-18.1834
-22.2242
-26.2023
-30.0848
-33.8783
-37.5903
-41.2293
-44.7943
-48.3229
-51.7635
-55.1662
-58.4613
-61.6853
6.30912
3.69992
0.595868
-2.85327
-6.36143
-10.1459
-14.0294
-17.8786
-21.7431
-25.5151
-29.1831
-32.7866
-36.2952
-39.7289
-43.1115
-46.4123
-49.6816
-52.856
-55.9813
-58.9877
5.53106
3.03707
0.0785751
-3.24006
-6.58152
-10.1789
-13.8871
-17.5648
-21.2147
-24.7995
-28.2898
-31.6906
-35.0105
-38.2569
-41.4305
-44.5652
-47.6154
-50.627
-53.5327
-56.373
4.84482
2.44984
-0.39294
-3.54416
-6.74075
-10.1829
-13.706
-17.189
-20.6787
-24.0754
-27.3695
-30.5974
-33.732
-36.7912
-39.7983
-42.7236
-45.6135
-48.4121
-51.1575
-53.7861
-56.3172
4.21669
1.93102
-0.777599
-3.80862
-6.85077
-10.1207
-13.4825
-16.8092
-20.1011
-23.3263
-26.4576
-29.5002
-32.4616
-35.3494
-38.1637
-40.9349
-43.6226
-46.2653
-48.8058
-51.2662
-53.6011
3.67257
1.47697
-1.12537
-4.00034
-6.91032
-10.0367
-13.2284
-16.375
-19.5197
-22.5715
-25.5227
-28.4065
-31.1975
-33.9131
-36.5731
-39.1523
-41.6897
-44.1383
-46.5257
-48.7978
-50.9656
3.17647
1.07974
-1.39747
-4.16229
-6.92945
-9.89623
-12.9397
-15.9414
-18.9035
-21.7974
-24.5988
-27.3116
-29.9435
-32.5006
-34.9842
-37.4205
-39.7743
-42.0776
-44.2803
-46.4022
-48.3943
2.74991
0.736995
-1.64211
-4.26241
-6.90666
-9.7416
-12.6268
-15.4625
-18.2891
-21.0231
-23.6582
-26.2244
-28.699
-31.0978
-33.4393
-35.7002
-37.916
-40.0438
-42.1084
-44.0578
-45.9097
2.3639
0.444272
-1.82005
-4.3393
-6.85153
-9.53952
-12.2877
-14.9904
-17.6482
-20.2366
-22.7331
-25.1416
-27.4693
-29.7222
-31.9016
-34.0315
-36.0806
-38.0773
-39.9763
-41.7976
-43.4927
-45.062
2.04555
0.201084
-1.97438
-4.36042
-6.76174
-9.32839
-11.9315
-14.481
-17.0141
-19.4549
-21.7984
-24.072
-26.2548
-28.3623
-30.4109
-32.3817
-34.3055
-36.1455
-37.9233
-39.5916
-41.1643
-42.5938
1.76505
0.00372704
-2.06649
-4.36195
-6.64318
-9.07514
-11.5536
-13.9808
-16.3592
-18.6668
-20.8835
-23.0125
-25.0612
-27.0349
-28.9365
-30.7876
-32.5613
-34.2836
-35.9136
-37.4703
-38.904
-40.2188
1.54411
-0.148
-2.13776
-4.31215
-6.49238
-8.81498
-11.1604
-13.4483
-15.7137
-17.8871
-19.9647
-21.971
-23.888
-25.73
-27.5131
-29.22
-30.8806
-32.4607
-33.9824
-35.4008
-36.7286
-37.9204
1.3556
-0.257957
-2.15201
-4.24471
-6.31571
-8.51632
-10.7486
-12.9264
-15.0512
-17.1041
-19.0669
-20.9431
-22.7393
-24.4614
-26.1117
-27.7114
-29.2356
-30.7102
-32.0977
-33.4163
-34.6198
-35.7136
1.22166
-0.328952
-2.14977
-4.13118
-6.11168
-8.21265
-10.3246
-12.3759
-14.3985
-16.3299
-18.1678
-19.9343
-21.6132
-23.2181
-24.7633
-26.2342
-27.658
-29.0043
-30.2946
-31.4878
-32.598
-33.582
1.11224
-0.367123
-2.09889
-4.0059
-5.88641
-7.87571
-9.88531
-11.8362
-13.7316
-15.5547
-17.2897
-18.9398
-20.5119
-22.0111
-23.4399
-24.8173
-26.1204
-27.3739
-28.543
-29.648
-30.6441
-31.5479
1.04607
-0.374474
-2.03825
-3.84238
-5.63885
-7.53726
-9.43633
-11.2729
-13.0762
-14.7897
-16.4123
-17.9645
-19.4326
-20.829
-22.1669
-23.4317
-24.6491
-25.7891
-26.8744
-27.8663
-28.7849
-29.5873
-30.2899
1.00032
-0.353382
-1.93532
-3.67038
-5.3741
-7.16995
-8.9754
-10.7215
-12.4098
-14.0259
-15.5561
-17.0042
-18.3772
-19.6806
-20.9161
-22.1014
-23.2135
-24.2761
-25.2558
-26.1742
-26.9904
-27.7229
-28.3386
0.998364
-0.30319
-1.82293
-3.46244
-5.08908
-6.80065
-8.50567
-10.1482
-11.754
-13.2719
-14.7017
-16.0625
-17.3426
-18.5544
-19.7103
-20.7965
-21.8368
-22.8021
-23.7135
-24.5349
-25.2878
-25.9324
-26.4846
1.01652
-0.225794
-1.66965
-3.24515
-4.78556
-6.40195
-8.02178
-9.58229
-11.0854
-12.5171
-13.8654
-15.1335
-16.3292
-17.4582
-18.5227
-19.5399
-20.4883
-21.3898
-22.2119
-22.9756
-23.6418
-24.2295
-24.7073
1.07027
-0.123159
-1.50854
-2.99456
-4.4614
-5.99888
-7.52521
-8.99209
-10.4215
-11.7666
-13.0263
-14.2178
-15.3319
-16.38
-17.3746
-18.3033
-19.19
-20.0067
-20.7742
-21.457
-22.0756
-22.5918
-23.0194
1.13285
-0.00317568
-1.31685
-2.74032
-4.12396
-5.57043
-7.01534
-8.40593
-9.74155
-11.009
-12.1964
-13.3072
-14.3485
-15.3257
-16.2399
-17.1093
-17.9136
-18.6763
-19.3663
-20.0048
-20.5539
-21.0277
-21.3985
1.21488
0.126417
-1.1303
-2.46731
-3.77864
-5.14613
-6.49997
-7.80033
-9.06438
-10.2506
-11.3576
-12.4015
-13.374
-14.2831
-15.1396
-15.9312
-16.6833
-17.3701
-18.0146
-18.5846
-19.0966
-19.5171
-19.8502
1.29314
0.259787
-0.927726
-2.20371
-3.43445
-4.71232
-5.98467
-7.20727
-8.37844
-9.48842
-10.526
-11.4975
-12.409
-13.2602
-14.0485
-14.7916
-15.4718
-16.1133
-16.6899
-17.2217
-17.6787
-18.0607
-18.3593
1.38222
0.397111
-0.735416
-1.93169
-3.09342
-4.296
-5.47899
-6.61265
-7.70932
-8.73822
-9.69649
-10.6053
-11.4569
-12.2492
-12.9879
-13.6632
-14.2995
-14.8759
-15.4141
-15.8901
-16.3074
-16.6529
-16.9253
-17.1224
1.46593
0.536394
-0.530555
-1.67014
-2.75893
-3.88019
-4.98748
-6.04692
-7.05127
-8.00363
-8.89525
-9.73697
-10.531
-11.2662
-11.9384
-12.567
-13.1389
-13.6764
-14.1588
-14.5973
-14.9772
-15.2979
-15.5484
-15.7379
1.55083
0.668883
-0.342368
-1.40657
-2.43417
-3.48806
-4.51483
-5.49299
-6.42439
-7.30081
-8.12029
-8.90469
-9.63781
-10.3051
-10.9186
-11.4785
-12.0069
-12.4865
-12.9359
-13.3379
-13.693
-13.9907
-14.2383
-14.418
1.64705
0.809623
-0.151263
-1.17129
-2.13889
-3.12562
-4.08181
-4.98236
-5.80259
-6.58978
-7.29875
-8.03381
-8.74337
-9.37093
-9.93761
-10.4733
-10.9672
-11.4361
-11.8657
-12.2657
-12.621
-12.9286
-13.1718
-13.3594
1.75765
0.949525
0.0275084
-0.935918
-1.85589
-2.78538
-3.66363
-4.47356
-5.19286
-5.89085
-6.45596
-7.16655
-7.87022
-8.46897
-9.01344
-9.52655
-10.021
-10.4798
-10.9213
-11.3312
-11.7042
-12.0206
-12.2817
-12.4712
1.84384
1.07429
0.200377
-0.717045
-1.57691
-2.43906
-3.24824
-3.98457
-4.60396
-5.22433
-5.66264
-6.33655
-7.02688
-7.59207
-8.09592
-8.59093
-9.06234
-9.52051
-9.95482
-10.3741
-10.7587
-11.0959
-11.3611
-11.5631
1.9125
1.17529
0.344243
-0.509632
-1.3135
-2.11352
-2.84906
-3.50543
-4.05021
-4.59509
-4.91009
-5.54568
-6.21315
-6.74052
-7.20913
-7.66665
-8.12356
-8.55841
-8.98927
-9.40638
-9.80048
-10.1435
-10.4256
-10.632
1.95459
1.25362
0.470333
-0.334969
-1.07758
-1.80813
-2.47609
-3.0656
-3.53169
-3.99748
-4.20913
-4.79502
-5.43232
-5.92226
-6.34612
-6.77513
-7.19865
-7.61992
-8.02982
-8.43855
-8.82795
-9.181
-9.46703
-9.68817
1.97635
1.30662
0.560771
-0.188568
-0.878432
-1.54908
-2.14797
-2.66107
-3.06151
-3.4405
-3.55598
-4.0877
-4.6823
-5.13037
-5.51717
-5.90479
-6.30645
-6.69812
-7.09039
-7.478
-7.8566
-8.20134
-8.49819
-8.72565
1.97228
1.33383
0.626321
-0.0845107
-0.724666
-1.33375
-1.86812
-2.31153
-2.63564
-2.91967
-2.95719
-3.42011
-3.96085
-4.36552
-4.70891
-5.06615
-5.43373
-5.80594
-6.17011
-6.53237
-6.88787
-7.22669
-7.51891
-7.76256
1.95139
1.33887
0.65794
-0.013294
-0.613337
-1.17139
-1.6415
-2.00438
-2.25806
-2.44172
-2.40627
-2.79164
-3.26337
-3.61918
-3.92697
-4.24638
-4.58979
-4.93388
-5.27209
-5.6062
-5.9392
-6.25636
-6.54941
-6.78984
-6.99011
1.91309
1.32539
0.671701
0.0259656
-0.539702
-1.04994
-1.46026
-1.75057
-1.92791
-2.00491
-1.90278
-2.19655
-2.58851
-2.89288
-3.16189
-3.45343
-3.76817
-4.08813
-4.40147
-4.70958
-5.01415
-5.3203
-5.60526
-5.86517
-6.087
1.87064
1.305
0.671128
0.0499857
-0.489129
-0.963766
-1.32432
-1.54821
-1.65673
-1.62135
-1.43885
-1.63472
-1.93971
-2.19078
-2.42638
-2.68841
-2.9774
-3.27306
-3.55856
-3.82977
-4.09497
-4.34783
-4.59013
-4.80319
-4.99152
1.83107
1.27859
0.657674
0.0498895
-0.471313
-0.917994
-1.23678
-1.40763
-1.44311
-1.28243
-1.01266
-1.11177
-1.33318
-1.53344
-1.73582
-1.96932
-2.23562
-2.51678
-2.79789
-3.07325
-3.3424
-3.61467
-3.88793
-4.15804
-4.40089
1.80431
1.24039
0.605676
-0.00932627
-0.526357
-0.950914
-1.22516
-1.3285
-1.26101
-0.955019
-0.615853
-0.642691
-0.79921
-0.959404
-1.1222
-1.2979
-1.48354
-1.67175
-1.85347
-2.02226
-2.17301
-2.29803
-2.39328
-2.45704
-2.51833
1.78022
1.1889
0.522156
-0.118076
-0.643745
-1.05277
-1.28108
-1.30608
-1.11929
-0.658587
-0.252725
-0.246287
-0.35606
-0.495067
-0.662916
-0.857407
-1.07485
-1.31226
-1.56928
-1.84753
-2.15076
-2.48063
-2.82328
-3.14541
-3.38965
)
;

boundaryField
{
    inlet
    {
        type            freestreamPressure;
        freestreamValue uniform 0;
        value           nonuniform List<scalar> 
25
(
1.77155
1.18311
0.519613
-0.117501
-0.640611
-1.04765
-1.27484
-1.29972
-1.11384
-0.65538
-0.108783
-0.10603
-0.153349
-0.213306
-0.28576
-0.369796
-0.463862
-0.566697
-0.678188
-0.799054
-0.930933
-1.07454
-1.22385
-1.36436
-1.47109
)
;
    }
    outlet
    {
        type            freestreamPressure;
        freestreamValue nonuniform List<scalar> 0();
        value           nonuniform List<scalar> 0();
    }
    walls
    {
        type            zeroGradient;
    }
    frontAndBack
    {
        type            empty;
    }
    procBoundary4to0
    {
        type            processor;
        value           nonuniform List<scalar> 
72
(
132.47
123.864
115.525
107.536
99.9054
92.6901
85.8587
79.4538
73.4346
67.8129
62.5365
57.621
53.0182
48.7345
44.7245
41.0096
37.5539
34.3674
31.4103
28.6962
26.173
23.8474
23.8474
25.3216
23.1426
21.121
19.2328
17.4931
15.88
14.3989
13.0251
11.7728
10.6218
9.57799
8.61856
7.75581
6.97101
6.26902
5.62831
5.06003
4.54829
4.10015
3.69905
3.35815
3.06464
2.82413
2.61866
2.45771
2.32936
2.24101
2.18039
2.15844
2.16185
2.18863
2.218
2.25629
2.29506
2.33709
2.3703
2.43509
2.51622
2.5787
2.61565
2.63078
2.61992
2.58816
2.53557
2.47198
2.40309
2.35072
2.32651
2.32189
)
;
    }
    procBoundary4to5
    {
        type            processor;
        value           nonuniform List<scalar> 
95
(
126.827
108.905
87.9242
61.9686
61.9686
38.0838
12.981
12.981
-11.842
-33.8402
-33.8402
-53.5873
-53.5873
-71.0932
-66.5442
-66.5442
-81.2165
-81.2165
-93.8084
-88.708
-88.708
-98.9303
-93.9204
-93.9204
-102.045
-97.122
-97.122
-103.444
-98.6219
-94.2024
-94.2024
-98.9488
-94.7161
-90.7444
-90.7444
-94.2511
-90.3027
-86.5798
-86.5798
-89.0089
-85.3797
-81.8939
-81.8939
-83.4578
-79.9882
-76.6435
-73.4309
-70.3201
-70.3201
-70.8923
-67.7741
-64.7886
-61.9088
-59.0737
-59.0737
-58.6918
-55.7964
-52.9812
-50.2587
-47.6099
-47.6099
-46.4684
-43.8753
-41.3769
-38.9782
-36.6633
-34.4499
-32.3162
-32.3162
-30.8655
-28.8531
-26.9254
-25.0942
-23.3428
-21.6805
-20.0914
-18.5712
-18.5712
-17.2495
-15.8595
-14.5464
-13.489
-12.6124
-11.7067
-10.7865
-9.84757
-8.90185
-7.94589
-7.94589
-7.14761
-6.27789
-5.15033
-4.603
-2.58563
-3.54891
)
;
    }
}


// ************************************************************************* //
