/*--------------------------------*- C++ -*----------------------------------*\
| =========                 |                                                 |
| \\      /  F ield         | OpenFOAM: The Open Source CFD Toolbox           |
|  \\    /   O peration     | Version:  2306                                  |
|   \\  /    A nd           | Website:  www.openfoam.com                      |
|    \\/     M anipulation  |                                                 |
\*---------------------------------------------------------------------------*/
FoamFile
{
    version     2.0;
    format      ascii;
    arch        "LSB;label=32;scalar=64";
    class       surfaceScalarField;
    location    "25";
    object      phi;
}
// * * * * * * * * * * * * * * * * * * * * * * * * * * * * * * * * * * * * * //

dimensions      [0 3 -1 0 0 0 0];

oriented        oriented;

internalField   nonuniform List<scalar> 
2584
(
0.17192
-0.243199
0.205548
-0.267341
-0.240179
0.17708
-0.274174
0.21253
-0.302721
0.243354
-0.270813
0.273484
-0.265072
-0.255707
0.182751
-0.306854
0.220246
-0.339981
0.252616
-0.3031
0.284271
-0.296619
0.31508
-0.286313
0.342578
-0.258386
-0.237423
0.188879
-0.341348
0.228434
-0.379486
0.262642
-0.337121
0.296008
-0.329827
0.328371
-0.318602
0.357216
-0.287091
0.383682
-0.263663
-0.238508
0.19542
-0.377847
0.237313
-0.421149
0.273335
-0.37309
0.308438
-0.364836
0.342551
-0.352515
0.372887
-0.317273
0.400571
-0.29129
0.425729
-0.263432
-0.233275
0.202486
-0.41636
0.246694
-0.465359
0.284714
-0.410923
0.321732
-0.401709
0.357694
-0.388431
0.389522
-0.349
0.418661
-0.320192
0.445039
-0.289761
-0.256429
0.209955
-0.457036
0.256749
-0.511911
0.296771
-0.450913
0.335841
-0.440711
0.373771
-0.426168
0.407277
-0.382373
0.437852
-0.350771
0.465534
-0.317247
0.489841
-0.280593
-0.249717
0.217944
-0.499982
0.267318
-0.561305
0.309611
-0.493028
0.350837
-0.481798
0.390743
-0.466059
0.426044
-0.417602
0.458261
-0.382764
0.487234
-0.346211
0.5127
-0.305992
0.535539
-0.27236
-0.239097
0.226405
-0.545429
0.278577
-0.613246
0.323237
-0.537688
0.36663
-0.525134
0.408806
-0.508052
0.44596
-0.454635
0.479777
-0.416626
0.510304
-0.376559
0.537043
-0.332615
0.560788
-0.296098
-0.260109
0.235344
-0.593333
0.290465
-0.66842
0.337535
-0.584572
0.383422
-0.570897
0.427818
-0.552457
0.467015
-0.493782
0.502636
-0.452036
0.534652
-0.40859
0.562683
-0.360603
0.587687
-0.320956
0.609683
-0.282038
-0.244727
0.24476
-0.643953
0.303034
-0.726444
0.352738
-0.634285
0.401065
-0.619181
0.448006
-0.599213
0.489244
-0.534919
0.526699
-0.489557
0.560448
-0.442173
0.589938
-0.389994
0.616056
-0.347091
0.639173
-0.305092
-0.264919
0.254802
-0.697355
0.316265
-0.787963
0.36874
-0.686575
0.419794
-0.670114
0.469207
-0.648652
0.512704
-0.578371
0.552235
-0.528878
0.587686
-0.477656
0.618578
-0.420859
0.646086
-0.374474
0.670227
-0.329208
0.691414
-0.286049
-0.246275
0.265278
-0.753798
0.330284
-0.852726
0.385623
-0.741947
0.439449
-0.723894
0.491656
-0.700675
0.537501
-0.624114
0.579105
-0.570567
0.616454
-0.514844
0.649017
-0.453344
0.677801
-0.403298
0.703177
-0.354531
0.725353
-0.308195
-0.265643
0.276437
-0.813371
0.34497
-0.921343
0.403388
-0.800167
0.460291
-0.780686
0.51528
-0.755703
0.563613
-0.67241
0.607466
-0.614215
0.646816
-0.554247
0.681006
-0.487522
0.711338
-0.433515
0.73792
-0.381105
0.761162
-0.331387
0.78156
-0.28598
-0.240886
0.288076
-0.876277
0.360541
-0.993547
0.422169
-0.861834
0.482118
-0.840599
0.540209
-0.813601
0.591195
-0.723309
0.637396
-0.660512
0.678798
-0.595494
0.714811
-0.523462
0.746625
-0.465385
0.774627
-0.409051
0.799021
-0.355736
0.820396
-0.307296
-0.259266
0.300447
-0.942587
0.376843
-1.07004
0.441959
-0.926758
0.505229
-0.903758
0.566489
-0.874911
0.620238
-0.77702
0.668973
-0.709034
0.712581
-0.639162
0.75048
-0.561356
0.784015
-0.4988
0.81337
-0.438388
0.838935
-0.38123
0.86139
-0.329621
-0.2786
0.313343
-1.01267
0.394083
-1.15054
0.462712
-0.995455
0.529475
-0.970484
0.594145
-0.939388
0.650864
-0.833646
0.702169
-0.760447
0.748196
-0.685029
0.788091
-0.601175
0.823348
-0.534109
0.854274
-0.469234
0.881174
-0.408056
0.904716
-0.353093
0.925129
-0.298716
-0.2463
0.327069
-1.08663
0.41218
-1.23579
0.484682
-1.06777
0.555134
-1.04084
0.623299
-1.00761
0.683093
-0.893407
0.737283
-0.814421
0.785743
-0.733556
0.827763
-0.643186
0.864911
-0.571112
0.897367
-0.501658
0.925723
-0.436321
0.950318
-0.377506
0.971867
-0.320293
-0.264449
0.341351
-1.16467
0.431324
-1.32554
0.507708
-1.14423
0.582027
-1.11513
0.654028
-1.07941
0.71706
-0.956356
0.774146
-0.871623
0.825266
-0.784505
0.869573
-0.6874
0.908589
-0.610172
0.942943
-0.535909
0.972487
-0.465778
0.998665
-0.403648
1.02108
-0.34242
-0.283847
0.356527
-1.24706
0.451346
-1.4205
0.532009
-1.22471
0.610429
-1.19346
0.686329
-1.15538
0.752848
-1.02284
0.813121
-0.931662
0.866934
-0.838386
0.913709
-0.734164
0.954914
-0.651212
0.990791
-0.571741
1.02225
-0.497141
1.04945
-0.430674
1.07307
-0.366126
1.09333
-0.303871
-0.241922
0.372413
-1.33395
0.472537
-1.52038
0.557592
-1.30986
0.640323
-1.27616
0.720425
-1.23529
0.790622
-1.09294
0.854082
-0.995251
0.910906
-0.895031
0.959995
-0.783152
1.00348
-0.694741
1.04143
-0.609578
1.07433
-0.529956
1.10307
-0.459396
1.12792
-0.390715
1.14916
-0.325187
-0.259859
0.38916
-1.42563
0.494748
-1.62611
0.584532
-1.39944
0.671811
-1.36335
0.756287
-1.31984
0.830288
-1.16692
0.897307
-1.06203
0.957118
-0.954918
1.00907
-0.835093
1.05473
-0.740232
1.09473
-0.64953
1.12938
-0.564518
1.15965
-0.489506
1.18568
-0.416854
1.208
-0.347224
-0.278725
0.309909
-1.50753
0.406733
-1.52239
0.518238
-1.73735
0.612874
-1.49417
0.704934
-1.45538
0.7941
-1.40879
0.87215
-1.24488
0.942723
-1.13275
1.00596
-1.01797
1.06057
-0.889602
1.10879
-0.788506
1.1508
-0.691428
1.1873
-0.60094
1.21906
-0.521259
1.24656
-0.444077
1.27007
-0.370861
1.28992
-0.298271
-0.22639
0.323138
-1.60879
0.425294
-1.62445
0.542826
-1.85502
0.642764
-1.5939
0.739899
-1.55242
0.833894
-1.50287
0.916233
-1.3272
0.990775
-1.20704
1.05725
-1.08453
1.11483
-0.947186
1.1657
-0.839199
1.21002
-0.735716
1.24841
-0.639255
1.28195
-0.554641
1.31062
-0.472892
1.3355
-0.39542
1.35625
-0.319164
-0.243513
0.336981
-1.71585
0.444742
-1.73216
0.568865
-1.97887
0.674196
-1.69933
0.776627
-1.65481
0.875848
-1.60188
0.962669
-1.41392
1.0412
-1.28572
1.11138
-1.15452
1.17222
-1.00793
1.22559
-0.892629
1.27226
-0.782284
1.31274
-0.679668
1.34797
-0.589885
1.37845
-0.503102
1.40418
-0.421333
1.42627
-0.340955
-0.261873
0.351582
-1.82856
0.465284
-1.84578
0.596118
-2.10985
0.707331
-1.81032
0.815389
-1.76278
0.919959
-1.70654
1.01155
-1.5055
1.09431
-1.36823
1.1684
-1.22871
1.23232
-1.07186
1.28883
-0.948967
1.33799
-0.831417
1.3806
-0.722212
1.41758
-0.626723
1.44943
-0.535096
1.47701
-0.448614
1.49996
-0.364082
1.51905
-0.28074
-0.197221
0.366914
-1.94768
0.486811
-1.96563
0.624967
-2.24773
0.742186
-1.92763
0.856161
-1.87673
0.966504
-1.81666
1.06299
-1.60191
1.15035
-1.45576
1.22851
-1.3067
1.29596
-1.13921
1.3552
-1.00828
1.4072
-0.883325
1.45207
-0.767027
1.49109
-0.665759
1.52471
-0.568458
1.55332
-0.477406
1.57769
-0.388185
1.59769
-0.3008
-0.213223
0.383056
-2.07316
0.509555
-2.09205
0.655164
-2.39349
0.778904
-2.05115
0.899116
-1.99684
1.01544
-1.93309
1.11732
-1.70377
1.20955
-1.54773
1.29164
-1.3889
1.36281
-1.2104
1.42549
-1.0708
1.48002
-0.937842
1.52715
-0.814103
1.56833
-0.706796
1.60352
-0.603807
1.63391
-0.507505
1.6592
-0.413639
1.68043
-0.321804
-0.230061
0.400002
-2.20574
0.533419
-2.22543
0.687166
-2.54696
0.817565
-2.18166
0.944357
-2.1236
1.06715
-2.05567
1.17457
-1.81111
1.27153
-1.64487
1.35828
-1.47547
1.43332
-1.28535
1.49929
-1.13686
1.55673
-0.995204
1.60657
-0.863887
1.6496
-0.74987
1.68704
-0.640989
1.71852
-0.539168
1.74544
-0.440265
1.76741
-0.343899
-0.247718
0.417848
-2.34536
0.558626
-2.36613
0.720655
-2.70916
0.858289
-2.31906
0.992062
-2.25729
1.12142
-2.18514
1.23471
-1.92439
1.33708
-1.74699
1.42853
-1.56705
1.50753
-1.36438
1.57706
-1.20623
1.63765
-1.0558
1.68986
-0.916049
1.73556
-0.795439
1.77444
-0.680025
1.80793
-0.572371
1.83591
-0.468418
1.85923
-0.36689
-0.266294
0.436581
-2.49284
0.585017
-2.51453
0.75606
-2.87991
0.901136
-2.46425
1.04213
-2.39827
1.17875
-2.32154
1.29804
-2.04362
1.40601
-1.85516
1.50238
-1.66325
1.58567
-1.44758
1.65892
-1.27958
1.72281
-1.11963
1.77798
-0.971178
1.82568
-0.843189
1.86701
-0.72111
1.90201
-0.60756
1.93154
-0.497641
1.95566
-0.391183
1.97515
-0.285547
-0.182124
0.45629
-2.6482
0.612891
-2.67107
0.793203
-3.06039
0.946299
-2.61712
1.0951
-2.54698
1.23896
-2.46553
1.36495
-2.16961
1.47883
-1.96878
1.58037
-1.76492
1.66813
-1.53539
1.74535
-1.35664
1.8125
-1.18679
1.87061
-1.02926
1.92102
-0.893481
1.96413
-0.764393
2.00119
-0.644345
2.03207
-0.528749
2.05754
-0.416396
2.07792
-0.305925
-0.197384
0.476978
-2.81233
0.642124
-2.83618
0.832397
-3.25038
0.993796
-2.77865
1.15069
-2.70386
1.30252
-2.61714
1.43527
-2.30228
1.55523
-2.08895
1.66244
-1.87197
1.75491
-1.62779
1.83621
-1.43806
1.90708
-1.25759
1.96819
-1.09036
2.02119
-0.946537
2.06676
-0.809745
2.10539
-0.683187
2.13792
-0.561026
2.16457
-0.443291
2.1858
-0.326953
-0.213684
0.498727
-2.98518
0.672948
-3.01034
0.873511
-3.45114
1.04385
-2.94876
1.20922
-2.86916
1.36937
-2.77742
1.5094
-2.44233
1.63603
-2.21534
1.7488
-1.98488
1.8464
-1.72544
1.93206
-1.52358
2.00662
-1.33217
2.07097
-1.15469
2.12685
-1.00231
2.17466
-0.857729
2.21535
-0.72365
2.24935
-0.595292
2.27736
-0.471089
2.29948
-0.349357
-0.230645
0.521539
-3.16772
0.705248
-3.19402
0.916911
-3.66251
1.09637
-3.12835
1.27094
-3.04371
1.4398
-2.94606
1.58739
-2.58987
1.7207
-2.34886
1.83995
-2.10398
1.94265
-1.82807
2.03298
-1.61402
2.11144
-1.41058
2.17934
-1.22259
2.23799
-1.06103
2.28842
-0.907972
2.33114
-0.766593
2.36707
-0.63103
2.3961
-0.500452
2.4195
-0.372611
-0.248257
0.545532
-3.36002
0.739297
-3.38773
0.96245
-3.88585
1.15191
-3.31759
1.33591
-3.22764
1.5138
-3.1241
1.66964
-2.74572
1.81023
-2.48922
1.93565
-2.22954
2.04403
-1.93652
2.13919
-1.70906
2.22201
-1.49344
2.29336
-1.29394
2.35525
-1.12283
2.40808
-0.960989
2.45299
-0.811322
2.49046
-0.668778
2.52138
-0.53121
2.5454
-0.396966
2.56369
-0.266516
-0.140582
0.57071
-3.56308
0.775063
-3.59206
1.01045
-4.12096
1.21006
-3.51735
1.40414
-3.4217
1.59192
-3.31167
1.756
-2.90975
1.90427
-2.63771
2.03674
-2.36186
2.15092
-2.05065
2.25123
-1.80949
2.33842
-1.58059
2.41343
-1.36896
2.47843
-1.18792
2.53428
-1.01667
2.58149
-0.858763
2.62089
-0.70802
2.65288
-0.563502
2.67825
-0.422252
2.69709
-0.285579
-0.153562
0.597215
-3.77702
0.812714
-3.80751
1.06089
-4.36934
1.27156
-3.72779
1.47606
-3.62614
1.67409
-3.50986
1.84711
-3.08279
2.00361
-2.79399
2.14286
-2.50127
2.26326
-2.17111
2.36899
-1.91511
2.46076
-1.6724
2.53994
-1.44814
2.6085
-1.25642
2.6669
-1.07526
2.71661
-0.908317
2.75797
-0.74963
2.79168
-0.597077
2.81785
-0.448724
2.83767
-0.305375
-0.167173
0.62502
-4.00284
0.852289
-4.03476
1.1141
-4.63087
1.33608
-3.94992
1.55187
-3.84194
1.76058
-3.71836
1.94315
-3.26532
2.10786
-2.95893
2.25496
-2.64824
2.3817
-2.29781
2.49308
-2.02663
2.58982
-1.76912
2.67319
-1.53153
2.74535
-1.32866
2.80693
-1.13669
2.85912
-0.960722
2.9025
-0.79288
2.93762
-0.632478
2.96534
-0.476334
2.98567
-0.325997
-0.181054
0.654353
-4.24078
0.89404
-4.27441
1.17002
-4.90706
1.4042
-4.18388
1.63165
-4.06933
1.85175
-3.93863
2.04406
-3.45766
2.21787
-3.13252
2.37268
-2.80321
2.50643
-2.43163
2.62376
-2.14385
2.72585
-1.87127
2.81352
-1.61921
2.88938
-1.40447
2.95422
-1.20171
3.00899
-1.01536
3.05454
-0.838668
3.09166
-0.669456
3.12043
-0.505409
3.14158
-0.347015
-0.195444
0.685161
-4.492
0.937917
-4.52715
1.22906
-5.19792
1.47586
-4.43085
1.71578
-4.30925
1.94779
-4.17045
2.15054
-3.66037
2.33357
-3.31579
2.49697
-2.96648
2.63794
-2.57257
2.76149
-2.26756
2.86875
-1.97852
2.96128
-1.71178
3.04115
-1.48442
3.1094
-1.26984
3.16696
-1.07312
3.21494
-0.886515
3.25359
-0.708364
3.2838
-0.535459
3.30585
-0.369335
3.32063
-0.210121
-0.0643762
0.717633
-4.75667
0.984215
-4.79369
1.29104
-5.50497
1.5515
-4.6911
1.80437
-4.56207
2.04882
-4.41508
2.26258
-3.87417
2.45578
-3.50878
2.62793
-3.13881
2.77625
-2.72097
2.90658
-2.3978
3.0196
-2.09161
3.11693
-1.80913
3.20103
-1.56848
3.27277
-1.34175
3.33345
-1.13366
3.38373
-0.937005
3.42436
-0.748842
3.45579
-0.567174
3.47895
-0.392348
3.49413
-0.225508
-0.0724931
0.751861
-5.03603
1.03292
-5.07474
1.35673
-5.8285
1.63109
-4.96563
1.89763
-4.82863
2.15563
-4.6729
2.38087
-4.0994
2.58431
-3.71246
2.76565
-3.32003
2.92207
-2.87738
3.05924
-2.53512
3.17842
-2.21079
3.28096
-1.9117
3.36943
-1.65703
3.445
-1.41719
3.5087
-1.19754
3.5615
-0.989672
3.604
-0.791573
3.63725
-0.600259
3.66119
-0.416583
3.67685
-0.241093
-0.0811227
0.787913
-5.33044
1.08437
-5.37117
1.42561
-6.16998
1.71505
-5.25486
1.99626
-5.1098
2.268
-4.94482
2.50553
-4.33697
2.71984
-3.92658
2.91104
-3.5114
3.07584
-3.04226
3.22038
-2.67959
3.34584
-2.33632
3.45378
-2.01967
3.54692
-1.75013
3.62619
-1.49663
3.6934
-1.2646
3.74878
-1.04525
3.79361
-0.836245
3.8281
-0.635012
3.85328
-0.441606
3.86948
-0.257509
-0.0895675
0.825861
-5.64119
1.13847
-5.68377
1.49845
-6.52968
1.80364
-5.56024
2.09994
-5.40612
2.38649
-5.2312
2.63693
-4.5874
2.86286
-4.15276
3.06426
-3.7127
3.23775
-3.21575
3.39012
-2.83211
3.52219
-2.46839
3.6358
-2.13332
3.73384
-1.84824
3.81754
-1.5802
3.88782
-1.33506
3.94623
-1.1035
3.99314
-0.883366
4.02943
-0.671103
4.0554
-0.467835
4.07251
-0.274517
-0.0982938
0.865928
-5.96867
1.19561
-6.01343
1.57512
-6.90945
1.89696
-5.88187
2.20936
-5.7185
2.51137
-5.5334
2.7752
-4.85127
3.01343
-4.39081
3.22567
-3.92513
3.40862
-3.3988
3.56896
-2.99239
3.70813
-2.60764
3.82764
-2.25284
3.93092
-1.95149
4.01867
-1.66809
4.09291
-1.40914
4.15409
-1.16485
4.20347
-0.93256
4.24122
-0.709087
4.26882
-0.495238
4.28621
-0.292106
-0.107093
0.908056
-6.31429
1.25571
-6.36108
1.65603
-7.3095
1.99521
-6.22125
2.32466
-6.04797
2.64328
-5.85185
2.92141
-5.12941
3.17238
-4.64203
3.39605
-4.14871
3.58881
-3.59157
3.75769
-3.16142
3.90419
-2.75414
4.03008
-2.37877
4.13868
-2.06015
4.23116
-1.76045
4.30889
-1.48702
4.3734
-1.22919
4.42507
-0.984427
4.46496
-0.748765
4.49344
-0.523957
4.51178
-0.310236
-0.116113
0.952495
-6.67859
1.31919
-6.72776
1.74121
-7.73177
2.09902
-6.57887
2.44642
-6.39536
2.78209
-6.18772
3.07526
-5.42264
3.33988
-4.90649
3.57562
-4.38464
3.7786
-3.79465
3.95655
-3.33932
4.11074
-2.90841
4.24346
-2.51149
4.35765
-2.17429
4.45493
-1.85787
4.53687
-1.56881
4.60438
-1.29687
4.65868
-1.03854
4.70037
-0.790681
4.73034
-0.553687
4.74914
-0.329246
4.7587
-0.125475
0.0467927
0.999271
-7.06312
1.38601
-7.11451
1.83127
-8.17678
2.20841
-6.95622
2.57465
-6.76162
2.9286
-6.54153
3.23774
-5.73179
3.51658
-5.18558
3.76486
-4.63285
3.9787
-4.00851
4.16617
-3.52694
4.32878
-3.07102
4.46822
-2.65097
4.58854
-2.29468
4.69084
-1.96004
4.77698
-1.6551
4.84814
-1.36786
4.90489
-1.09549
4.94872
-0.8343
4.97986
-0.585071
4.99973
-0.348895
5.00916
-0.135049
0.0455064
1.04859
-7.46847
1.45648
-7.5224
1.92581
-8.64637
2.32383
-7.35406
2.70993
-7.14773
3.08312
-6.91493
3.40894
-6.05766
3.70279
-5.4793
3.9645
-4.89476
4.19
-4.23412
4.38734
-3.72422
4.55848
-3.24224
4.7054
-2.7979
4.83218
-2.4214
4.9397
-2.06769
5.03024
-1.7455
5.1048
-1.4426
5.16483
-1.15534
5.21045
-0.880155
5.24318
-0.617569
5.26372
-0.369663
5.27347
-0.144678
0.0442186
1.1005
-7.89624
1.53079
-7.9527
2.02596
-9.1413
2.4454
-7.77371
2.85257
-7.55495
3.24606
-7.30828
3.58951
-6.40115
3.89923
-5.78926
4.17517
-5.17063
4.41253
-4.4715
4.62072
-3.93257
4.80093
-3.42244
4.95568
-2.95269
5.08874
-2.55452
5.20212
-2.18093
5.29725
-1.84078
5.37579
-1.52099
5.43841
-1.21817
5.48648
-0.928021
5.52058
-0.651927
5.54208
-0.39098
5.55209
-0.154856
0.0434031
1.15526
-8.34725
1.60906
-8.40651
2.13126
-9.66378
2.57366
-8.21593
3.00312
-7.98443
3.41788
-7.72325
3.77997
-6.7633
4.10663
-6.11581
4.39722
-5.46141
4.64743
-4.72183
4.86655
-4.15164
5.05633
-3.6123
5.21928
-3.11564
5.35966
-2.69483
5.4788
-2.30021
5.57893
-1.94075
5.66128
-1.60353
5.72733
-1.28405
5.77753
-0.97846
5.8135
-0.687692
5.83562
-0.413332
5.84605
-0.165205
0.0425455
1.21286
-8.82326
1.69144
-8.88512
2.24233
-10.2144
2.70889
-8.68272
3.16162
-8.4372
3.59908
-8.16058
3.98078
-7.14505
4.32493
-6.46021
4.63132
-5.76776
4.89508
-4.98563
5.12598
-4.38269
5.32604
-3.81236
5.49755
-3.28718
5.64518
-2.84253
5.77058
-2.42546
5.87598
-2.04631
5.96261
-1.68999
6.03182
-1.35348
6.08476
-1.0312
6.12201
-0.725197
6.14528
-0.436463
6.15589
-0.175982
0.0420336
1.27385
-9.32516
1.7785
-9.3898
2.35931
-10.7955
2.85143
-9.1747
3.32902
-8.91482
3.79007
-8.62185
4.19263
-7.54768
4.55546
-6.82295
4.87832
-6.09083
5.15624
-5.26366
5.39951
-4.62594
5.61017
-4.02309
5.79079
-3.46781
5.94631
-2.99798
6.07826
-2.55754
6.18905
-2.15693
6.2803
-1.78142
6.353
-1.426
6.4084
-1.08682
6.44768
-0.764309
6.47188
-0.460871
6.48279
-0.186955
0.0415389
1.33771
-9.85459
1.87023
-9.92237
2.48275
-11.4079
3.00168
-9.69387
3.50499
-9.41821
3.99142
-9.10816
4.41573
-7.97207
4.79824
-7.20571
5.13876
-6.43132
5.4317
-5.55665
5.688
-4.88239
5.90988
-4.24498
6.10025
-3.6582
6.26393
-3.16172
6.40294
-2.6964
6.51952
-2.27366
6.61536
-1.87709
6.69179
-1.5026
6.75016
-1.14501
6.79111
-0.805447
6.81642
-0.486252
6.82768
-0.198356
0.0413778
1.40533
-10.4128
1.96687
-10.484
2.61278
-12.0541
3.16003
-10.241
3.69063
-9.94886
4.20369
-9.62147
4.65094
-8.41938
5.05423
-7.60892
5.41309
-6.79038
5.72185
-5.86553
5.99196
-5.15249
6.22576
-4.47885
6.4263
-3.85876
6.59876
-3.33412
6.74513
-2.8429
6.86791
-2.39628
6.96875
-1.9781
7.04929
-1.58296
7.10968
-1.20557
7.1536
-0.84938
7.18005
-0.512855
7.19124
-0.209601
7.19182
0.0407467
0.225015
1.47668
-11.0017
2.06845
-11.0758
2.74976
-12.7352
3.32666
-10.8182
3.88655
-10.5088
4.42702
-10.1618
4.89885
-8.89128
5.32408
-8.03438
5.70253
-7.16881
6.02796
-6.191
6.31272
-5.43738
6.55913
-4.72529
6.77051
-4.07017
6.95203
-3.5157
7.10618
-2.99693
7.23527
-2.52553
7.3413
-2.08398
7.42612
-1.66796
7.49072
-1.27011
7.53564
-0.894395
7.56307
-0.540297
7.57524
-0.221867
7.57447
0.0416215
0.232304
1.5517
-11.6224
2.17633
-11.7006
2.89429
-13.4535
3.50265
-11.4264
4.09284
-11.0991
4.66294
-10.7322
5.16033
-9.38871
5.6087
-8.48266
6.00774
-7.56803
6.3506
-6.53397
6.6508
-5.73758
6.91067
-4.98523
7.13323
-4.29275
7.32467
-3.70711
7.48718
-3.15957
7.62235
-2.6606
7.7343
-2.19611
7.82349
-1.75704
7.89154
-1.33829
7.93771
-0.940584
7.96645
-0.569083
7.98025
-0.235489
7.97985
0.0419265
0.24279
1.12155
-12.0738
1.59784
-12.1769
2.19967
-14.0552
2.7825
-12.0095
3.44511
-11.7618
4.21864
-11.5055
5.05092
-10.2211
5.98676
-9.41872
7.03917
-8.62042
8.61913
-8.11396
8.23144
-5.35002
7.84097
-4.59479
7.50521
-3.95704
7.21063
-3.41259
6.95402
-2.90289
6.72996
-2.4367
6.53343
-1.99949
6.36257
-1.58636
6.21506
-1.19074
6.09246
-0.818004
5.98918
-0.465725
5.90629
-0.152699
5.84255
0.105751
0.288373
1.23099
-12.57
1.75449
-12.7005
2.41593
-14.7169
3.05653
-12.65
3.78454
-12.4898
4.634
-12.3552
5.54832
-11.1354
6.57576
-10.446
7.7314
-9.77624
9.46576
-9.84846
9.04061
-4.92488
8.61252
-4.16679
8.24433
-3.58887
7.92298
-3.09125
7.64088
-2.62093
7.3947
-2.19045
7.17923
-1.78422
6.99154
-1.39859
6.83145
-1.03078
6.69424
-0.680817
6.58186
-0.353412
6.49178
-0.0624781
6.42234
0.175086
0.340468
1.35047
-13.1159
1.92589
-13.2759
2.65338
-15.4442
3.35703
-13.3538
4.15707
-13.2899
5.09069
-13.2887
6.09458
-12.1393
7.22281
-11.5745
8.49164
-11.045
10.3965
-11.7534
9.92916
-4.45767
9.46119
-3.69885
9.05765
-3.18541
8.7045
-2.73817
8.39604
-2.31243
8.1256
-1.92021
7.88954
-1.54807
7.68433
-1.1936
7.50745
-0.853901
7.35645
-0.529882
7.23348
-0.230381
7.13302
0.0378382
7.05518
0.252984
0.39526
1.48164
-13.716
2.11452
-13.9089
2.91373
-16.2437
3.68747
-14.1275
4.56646
-14.169
5.59191
-14.3143
6.69466
-13.2421
7.93409
-12.8138
9.32701
-12.4381
11.418
-13.8445
10.9064
-3.94615
10.3937
-3.18629
9.94904
-2.74076
9.5619
-2.35106
9.22473
-1.97542
8.92701
-1.62243
8.66821
-1.28951
8.44254
-0.96788
8.24828
-0.659788
8.08444
-0.366077
7.94767
-0.0937498
7.838
0.147583
7.75516
0.335689
0.458321
1.62522
-14.3762
2.3215
-14.6052
3.19997
-17.122
4.05032
-14.978
5.01612
-15.1348
6.14282
-15.4409
7.35437
-14.4537
8.71554
-14.1752
10.2459
-13.9685
12.5425
-16.1411
11.9817
-3.38563
11.4167
-2.62129
10.932
-2.25624
10.5072
-1.92627
10.1341
-1.60233
9.81061
-1.29917
9.52478
-1.0036
9.27786
-0.721181
9.06446
-0.446438
8.88459
-0.186358
8.73374
0.0570874
8.61422
0.266911
8.51972
0.430195
0.524594
1.78283
-15.1022
2.54807
-15.3706
3.51438
-18.0886
4.44883
-15.9124
5.51039
-16.1964
6.74827
-16.679
8.07968
-15.7852
9.57518
-15.6707
11.2553
-15.6488
13.7777
-18.6638
13.1617
-2.76972
12.5429
-2.00262
12.0102
-1.72367
11.5436
-1.45971
11.136
-1.19483
10.7783
-0.941441
10.467
-0.692474
10.1944
-0.448603
9.95987
-0.212117
9.76088
0.0124824
9.59655
0.221223
9.4644
0.399068
9.36294
0.531509
0.599704
1.95582
-15.9008
2.79727
-16.2122
3.85934
-19.1506
4.88674
-16.94
6.0536
-17.3634
7.4142
-18.0396
8.87702
-17.2481
10.5208
-17.3146
12.3677
-17.4958
15.14
-21.4362
14.4622
-2.09219
13.7825
-1.32307
13.196
-1.13725
12.6836
-0.947472
12.2364
-0.747607
11.8433
-0.548434
11.4992
-0.348414
11.2013
-0.15089
10.9449
0.0440201
10.7261
0.23114
10.5454
0.401894
10.4
0.544304
10.2888
0.642806
0.682548
2.14526
-16.7791
3.07055
-17.1375
4.23868
-20.319
5.36817
-18.0695
6.65069
-18.646
8.14635
-19.5354
9.75417
-18.856
11.5604
-19.1209
13.5898
-19.5254
16.6387
-24.4853
15.8914
-1.34507
15.1439
-0.575804
14.5001
-0.493489
13.9364
-0.383895
13.4451
-0.256386
13.0139
-0.117293
12.6372
0.028195
12.3091
0.176968
12.0263
0.326721
11.7871
0.470246
11.588
0.600887
11.429
0.703369
11.3048
0.766943
11.215
0.772408
0.76782
2.35309
-17.7448
3.37067
-18.1553
4.65471
-21.6031
5.89665
-19.3117
7.30668
-20.0562
8.95103
-21.1798
10.719
-20.6241
12.7048
-21.1069
14.9363
-21.757
18.2871
-27.8363
17.4677
-0.525878
16.645
0.246713
15.9365
0.214797
15.3176
0.234916
14.7758
0.285304
14.3011
0.357285
13.8865
0.442595
13.5247
0.538688
13.2145
0.636791
12.9516
0.733153
12.7324
0.820208
12.5579
0.877757
12.4231
0.901799
12.3248
0.870604
0.841263
2.58092
-18.8066
3.69974
-19.2742
5.11165
-23.0152
6.47716
-20.6773
8.02758
-21.6067
9.8353
-22.9877
11.779
-22.568
13.9619
-23.2899
16.4171
-24.2123
20.1019
-31.5215
19.2004
0.3753
18.295
1.15184
17.515
0.994632
16.8327
0.916918
16.2367
0.88138
15.7158
0.877979
15.2595
0.898848
14.8627
0.935293
14.5216
0.977971
14.2313
1.02345
13.992
1.05944
13.7985
1.07139
13.6491
1.05106
13.54
0.979711
0.9208
2.8308
-19.9741
4.06088
-20.5045
5.6132
-24.5677
7.11438
-22.1786
8.81928
-23.3117
10.8076
-24.9763
12.9447
-24.7051
15.3468
-25.6921
18.046
-26.9119
22.0993
-35.5751
21.107
1.36739
20.1117
2.14712
19.2527
1.85331
18.502
1.66778
17.8463
1.53691
17.2721
1.45223
16.7687
1.40216
16.3333
1.37083
15.9575
1.35373
15.6407
1.34038
15.3762
1.32391
15.1654
1.28219
15.0041
1.21229
14.8854
1.09835
1.0081
3.10382
-21.2573
4.4563
-21.8571
6.16313
-26.2746
7.81397
-23.8296
9.68887
-25.1869
11.8753
-27.1628
14.2259
-27.0558
16.8678
-28.3342
19.8382
-29.8824
24.2982
-40.0351
23.2055
2.46016
22.1087
3.24394
21.1639
2.7983
20.3386
2.49312
19.6169
2.25879
18.982
2.0872
18.4306
1.95368
17.9491
1.8524
17.5367
1.76634
17.1842
1.69302
16.8938
1.61431
16.6589
1.51719
16.4766
1.39456
16.3438
1.23123
1.10652
3.40245
4.88913
6.76603
8.58201
10.6446
13.0511
15.6392
18.5466
21.8164
26.7256
25.5189
24.3077
23.2672
22.3569
21.5621
20.8664
20.257
19.7289
19.2741
18.8912
18.5752
18.3256
18.1336
17.9936
)
;

boundaryField
{
    inlet
    {
        type            calculated;
        value           nonuniform List<scalar> 
25
(
-22.6674
-23.3439
-28.1516
-25.6456
-27.2495
-29.5694
-29.6439
-31.2416
-33.1522
-44.9442
3.66706
4.45518
3.83892
3.40353
3.05361
2.78302
2.56321
2.38054
2.22134
2.07597
1.93042
1.76692
1.58657
1.3713
1.20917
)
;
    }
    outlet
    {
        type            calculated;
        value           nonuniform List<scalar> 0();
    }
    walls
    {
        type            calculated;
        value           nonuniform List<scalar> 0();
    }
    frontAndBack
    {
        type            empty;
        value           nonuniform List<scalar> 0();
    }
    procBoundary4to0
    {
        type            processor;
        value           nonuniform List<scalar> 
72
(
-0.142333
-0.145909
-0.149844
-0.154114
-0.158754
-0.163792
-0.169141
-0.174783
-0.180859
-0.187291
-0.194043
-0.201195
-0.208754
-0.216719
-0.225092
-0.233947
-0.243235
-0.253003
-0.263297
-0.274094
-0.28543
-0.297397
1.41141
-0.213766
-0.22163
-0.229962
-0.238646
-0.247791
-0.257356
-0.26751
-0.278015
-0.289129
-0.300722
-0.312953
-0.325674
-0.339062
-0.353033
-0.367772
-0.383092
-0.39927
-0.416225
-0.43409
-0.452789
-0.472596
-0.493331
-0.515283
-0.53828
-0.56256
-0.588033
-0.614924
-0.643093
-0.672879
-0.704109
-0.737068
-0.771841
-0.808468
-0.847103
-0.887992
-0.930971
-0.670385
-0.73471
-0.804837
-0.881454
-0.965273
-1.05689
-1.15741
-1.26712
-1.38763
-1.51933
-1.66369
-1.82087
-1.99255
)
;
    }
    procBoundary4to5
    {
        type            processor;
        value           nonuniform List<scalar> 
95
(
0.213837
0.233963
0.211071
0.234728
0.235098
0.226538
0.302727
0.231028
0.212388
0.367736
0.21465
0.407659
0.21122
0.447947
0.468289
0.228004
0.511586
0.219053
0.555639
0.581899
0.225418
0.629092
0.659419
0.227655
0.710091
0.744787
0.223224
0.799276
0.838933
0.880794
0.228879
0.942753
0.990312
1.04037
0.22473
1.1104
1.16728
1.22686
0.209997
1.30639
1.37365
1.44444
0.181661
1.53449
1.61383
1.69719
1.78535
1.87775
0.167187
1.99039
2.09331
2.20206
2.3166
2.43675
0.127609
2.57627
2.71004
2.85101
2.99962
3.15572
0.0560457
3.32871
3.50224
3.68527
3.87799
4.08105
4.29518
4.52062
-0.0483347
4.76004
5.01056
5.2746
5.553
5.84674
6.15643
6.48316
6.82774
-0.216133
7.18291
7.56713
7.96943
5.79689
6.37028
7.00028
7.69212
8.45332
9.28787
10.2058
-0.702169
11.1492
12.2514
13.4603
14.798
16.2453
17.8909
)
;
    }
}


// ************************************************************************* //
