/*--------------------------------*- C++ -*----------------------------------*\
| =========                 |                                                 |
| \\      /  F ield         | OpenFOAM: The Open Source CFD Toolbox           |
|  \\    /   O peration     | Version:  2306                                  |
|   \\  /    A nd           | Website:  www.openfoam.com                      |
|    \\/     M anipulation  |                                                 |
\*---------------------------------------------------------------------------*/
FoamFile
{
    version     2.0;
    format      ascii;
    arch        "LSB;label=32;scalar=64";
    class       volScalarField;
    location    "25";
    object      turbulenceProperties:I;
}
// * * * * * * * * * * * * * * * * * * * * * * * * * * * * * * * * * * * * * //

dimensions      [0 0 0 0 0 0 0];

internalField   nonuniform List<scalar> 
1340
(
0.000828099
0.000799059
0.000769628
0.000746415
0.000723449
0.000700237
0.000676813
0.000649889
0.000676298
0.000658063
0.000639342
0.000620383
0.000598847
0.000577187
0.000555191
0.000615487
0.000600803
0.000585717
0.000570147
0.000552302
0.000534456
0.000517019
0.00049928
0.000562449
0.000550575
0.000538152
0.000525377
0.000510668
0.000495747
0.000481145
0.000466264
0.000451256
0.000515844
0.000506069
0.000495903
0.000485297
0.000472999
0.000460682
0.000448498
0.000435805
0.000423223
0.000474613
0.000466538
0.000458013
0.000449259
0.000439064
0.000428718
0.000418506
0.000407857
0.000397048
0.00038622
0.000437862
0.00043114
0.00042412
0.000416802
0.000408212
0.000399607
0.000391039
0.000381919
0.000372716
0.000363442
0.000353701
0.000405009
0.000399466
0.000393533
0.000387429
0.000380266
0.00037294
0.000365688
0.000358029
0.00035014
0.000342093
0.00033387
0.000375506
0.00037084
0.000365933
0.000360795
0.000354672
0.000348558
0.000342435
0.000335833
0.000329144
0.000322298
0.000315133
0.00030779
0.000348873
0.000344987
0.000340807
0.000336521
0.000331383
0.000326129
0.00032092
0.000315369
0.000309631
0.000303724
0.000297568
0.000291295
0.000324708
0.000321479
0.000318042
0.000314393
0.000309951
0.000305535
0.000301128
0.000296314
0.000291444
0.00028644
0.000281098
0.000275606
0.000269801
0.000302745
0.000300147
0.000297191
0.000294106
0.000290351
0.000286518
0.000282761
0.00027873
0.000274537
0.000270213
0.000265642
0.000260857
0.000255832
0.000282724
0.000280552
0.000278119
0.000275471
0.000272196
0.000269002
0.000265836
0.000262328
0.000258776
0.000255112
0.000251142
0.000246973
0.000242579
0.000237799
0.000264358
0.000262597
0.000260496
0.000258271
0.000255527
0.000252773
0.000250085
0.000247166
0.000244103
0.000240921
0.000237532
0.000233916
0.00023004
0.0002259
0.000247456
0.000246018
0.000244317
0.000242408
0.000240037
0.00023778
0.000235544
0.000233001
0.000230414
0.000227724
0.000224764
0.000221635
0.000218247
0.000214579
0.000231911
0.000230779
0.0002293
0.000227717
0.000225779
0.00022385
0.000221974
0.000219888
0.000217665
0.000215337
0.000212831
0.000210131
0.000207172
0.000204014
0.000200598
0.000217565
0.000216603
0.00021543
0.000214123
0.000212481
0.000210951
0.000209421
0.000207602
0.000205755
0.000203821
0.000201655
0.000199374
0.000196873
0.000194135
0.000191296
0.000204317
0.000203543
0.000202526
0.000201502
0.000200211
0.000198925
0.000197657
0.0001962
0.000194641
0.000193
0.000191222
0.000189299
0.000187239
0.000184962
0.000182566
0.000191997
0.00019139
0.000190635
0.000189801
0.000188722
0.00018774
0.000186737
0.000185482
0.000184227
0.000182923
0.000181427
0.00017987
0.000178161
0.000176274
0.000174272
0.000172075
0.000180544
0.000180156
0.000179539
0.000178903
0.000178082
0.00017727
0.000176475
0.000175523
0.000174498
0.000173426
0.000172255
0.000170975
0.000169589
0.000168056
0.000166318
0.000164488
0.000170057
0.00016971
0.000169271
0.000168758
0.000168074
0.000167507
0.000166928
0.000166129
0.00016535
0.000164551
0.000163598
0.000162598
0.000161471
0.000160191
0.000158793
0.000157208
0.000160634
0.000160305
0.000160015
0.000159636
0.000159268
0.000158778
0.000158338
0.00015791
0.000157364
0.000156765
0.000156142
0.000155447
0.000154662
0.000153794
0.000152793
0.000151615
0.000150378
0.00014903
0.000151398
0.000151063
0.000150893
0.000150673
0.000150396
0.000150007
0.000149756
0.000149501
0.000149064
0.000148664
0.000148262
0.000147733
0.000147177
0.00014651
0.000145742
0.000144898
0.000143922
0.000142908
0.000142724
0.00014245
0.000142379
0.000142222
0.000142068
0.00014184
0.00014167
0.000141535
0.000141306
0.000141046
0.00014077
0.00014045
0.000140061
0.000139618
0.000139078
0.000138465
0.000137791
0.000137091
0.000134623
0.000134378
0.000134368
0.000134337
0.000134267
0.000134104
0.000134087
0.000134085
0.000133929
0.000133823
0.000133727
0.000133529
0.000133322
0.000133039
0.000132692
0.000132334
0.000131906
0.000131427
0.00013092
0.000126974
0.00012684
0.000126894
0.000126901
0.000126928
0.000126888
0.000126927
0.000127003
0.000127015
0.00012701
0.000127006
0.000126973
0.000126894
0.000126784
0.000126618
0.000126413
0.000126215
0.000125942
0.000125679
0.000119879
0.000119776
0.000119861
0.000119968
0.00012004
0.000120045
0.000120197
0.000120376
0.00012043
0.000120545
0.000120681
0.000120734
0.000120796
0.000120805
0.000120783
0.000120763
0.000120695
0.00012065
0.000120567
0.000113212
0.000113154
0.000113299
0.000113416
0.00011356
0.000113664
0.00011384
0.000114074
0.000114261
0.000114444
0.000114637
0.000114817
0.000114967
0.000115108
0.00011521
0.000115289
0.000115397
0.000115477
0.000115583
0.000106976
0.000106932
0.000107108
0.000107304
0.000107487
0.000107611
0.000107877
0.000108182
0.000108382
0.000108648
0.000108945
0.000109178
0.000109431
0.000109651
0.000109847
0.000110058
0.000110248
0.000110456
0.000110739
0.00010107
0.000101119
0.000101333
0.000101537
0.000101774
0.000101969
0.000102244
0.000102574
0.000102873
0.00010318
0.000103508
0.000103833
0.000104144
0.000104457
0.000104746
0.000105025
0.000105327
0.000105634
0.000106016
0.000106517
9.55918e-05
9.56582e-05
9.58864e-05
9.61591e-05
9.64123e-05
9.66186e-05
9.69566e-05
9.73369e-05
9.76336e-05
9.79965e-05
9.83973e-05
9.87491e-05
9.9133e-05
9.94996e-05
9.98626e-05
0.000100235
0.000100606
0.000101034
0.00010144
0.000102033
9.04268e-05
9.05236e-05
9.07932e-05
9.10645e-05
9.13633e-05
9.16331e-05
9.19676e-05
9.2364e-05
9.27351e-05
9.31172e-05
9.35246e-05
9.39412e-05
9.4357e-05
9.47928e-05
9.52176e-05
9.56497e-05
9.61154e-05
9.65727e-05
9.71369e-05
9.77582e-05
8.55793e-05
8.56802e-05
8.59696e-05
8.62999e-05
8.6623e-05
8.6895e-05
8.7287e-05
8.77209e-05
8.80755e-05
8.84942e-05
8.89535e-05
8.93769e-05
8.98398e-05
9.03034e-05
9.07779e-05
9.12835e-05
9.18036e-05
9.23697e-05
9.29847e-05
9.36681e-05
8.09663e-05
8.11352e-05
8.14461e-05
8.17783e-05
8.21426e-05
8.2467e-05
8.28569e-05
8.32972e-05
8.3716e-05
8.41438e-05
8.46e-05
8.50668e-05
8.55439e-05
8.60493e-05
8.65642e-05
8.7106e-05
8.76847e-05
8.83017e-05
8.89754e-05
8.9718e-05
7.66661e-05
7.68338e-05
7.7147e-05
7.7532e-05
7.79057e-05
7.82383e-05
7.8679e-05
7.91553e-05
7.95621e-05
8.00214e-05
8.05166e-05
8.09808e-05
8.14867e-05
8.20012e-05
8.2539e-05
8.31133e-05
8.37207e-05
8.43724e-05
8.50793e-05
8.58438e-05
8.67112e-05
7.25805e-05
7.27564e-05
7.30903e-05
7.34684e-05
7.38783e-05
7.42635e-05
7.47029e-05
7.5196e-05
7.56626e-05
7.61313e-05
7.66206e-05
7.71189e-05
7.7625e-05
7.81631e-05
7.87107e-05
7.9287e-05
7.99043e-05
8.05542e-05
8.12716e-05
8.20377e-05
8.28651e-05
6.87108e-05
6.8875e-05
6.92108e-05
6.96279e-05
7.00525e-05
7.04402e-05
7.09323e-05
7.14611e-05
7.19194e-05
7.24197e-05
7.29466e-05
7.34402e-05
7.39665e-05
7.44996e-05
7.50485e-05
7.56341e-05
7.62457e-05
7.68997e-05
7.75736e-05
7.83315e-05
7.90977e-05
6.4993e-05
6.52011e-05
6.55362e-05
6.59423e-05
6.63939e-05
6.68207e-05
6.73137e-05
6.78553e-05
6.83735e-05
6.88884e-05
6.94171e-05
6.9943e-05
7.04696e-05
7.10161e-05
7.15679e-05
7.21388e-05
7.27429e-05
7.337e-05
7.40407e-05
7.4747e-05
7.54687e-05
6.1498e-05
6.1692e-05
6.2014e-05
6.24472e-05
6.28949e-05
6.33218e-05
6.38555e-05
6.44297e-05
6.49465e-05
6.54965e-05
6.60625e-05
6.65894e-05
6.71364e-05
6.768e-05
6.82296e-05
6.87999e-05
6.93854e-05
6.99919e-05
7.06143e-05
7.12789e-05
7.1962e-05
5.81514e-05
5.83436e-05
5.86695e-05
5.90786e-05
5.95427e-05
5.99999e-05
6.05253e-05
6.11136e-05
6.16816e-05
6.22441e-05
6.28143e-05
6.33745e-05
6.39253e-05
6.44852e-05
6.50354e-05
6.55905e-05
6.61607e-05
6.67408e-05
6.73434e-05
6.79614e-05
6.86079e-05
6.93133e-05
5.49666e-05
5.51452e-05
5.5463e-05
5.58861e-05
5.63449e-05
5.67881e-05
5.73435e-05
5.79515e-05
5.85099e-05
5.91001e-05
5.97037e-05
6.02673e-05
6.08398e-05
6.13996e-05
6.19507e-05
6.25103e-05
6.30695e-05
6.36341e-05
6.42019e-05
6.48005e-05
6.54192e-05
6.60436e-05
5.19073e-05
5.21217e-05
5.24295e-05
5.28268e-05
5.3291e-05
5.37461e-05
5.42832e-05
5.48878e-05
5.54828e-05
5.60778e-05
5.66834e-05
5.72745e-05
5.78515e-05
5.8427e-05
5.89863e-05
5.95391e-05
6.00954e-05
6.06517e-05
6.1208e-05
6.17669e-05
6.23546e-05
6.29099e-05
4.90491e-05
4.92473e-05
4.95368e-05
4.99412e-05
5.03847e-05
5.08204e-05
5.13689e-05
5.1979e-05
5.25559e-05
5.31663e-05
5.37916e-05
5.43807e-05
5.49738e-05
5.55509e-05
5.61139e-05
5.66741e-05
5.72272e-05
5.77735e-05
5.83151e-05
5.88598e-05
5.94085e-05
5.99243e-05
4.63386e-05
4.65281e-05
4.68108e-05
4.71807e-05
4.76235e-05
4.80636e-05
4.85831e-05
4.91837e-05
4.97787e-05
5.03791e-05
5.09945e-05
5.15992e-05
5.21896e-05
5.27772e-05
5.3343e-05
5.38977e-05
5.44481e-05
5.49912e-05
5.55276e-05
5.6048e-05
5.65774e-05
5.70472e-05
4.37871e-05
4.39534e-05
4.42168e-05
4.45842e-05
4.5008e-05
4.54214e-05
4.5946e-05
4.65402e-05
4.71055e-05
4.7707e-05
4.8329e-05
4.89215e-05
4.95177e-05
5.0098e-05
5.06623e-05
5.12204e-05
5.17661e-05
5.23042e-05
5.28287e-05
5.33468e-05
5.38392e-05
5.42844e-05
4.13586e-05
4.1538e-05
4.17752e-05
4.21064e-05
4.25229e-05
4.29321e-05
4.34266e-05
4.40027e-05
4.45771e-05
4.51613e-05
4.57668e-05
4.63628e-05
4.69483e-05
4.75311e-05
4.80939e-05
4.86432e-05
4.91849e-05
4.97161e-05
5.02328e-05
5.07259e-05
5.11997e-05
5.16131e-05
3.91051e-05
3.92478e-05
3.94501e-05
3.97699e-05
4.01568e-05
4.05412e-05
4.10353e-05
4.16038e-05
4.21515e-05
4.27325e-05
4.33349e-05
4.39131e-05
4.44978e-05
4.50712e-05
4.56304e-05
4.61789e-05
4.67128e-05
4.72303e-05
4.77314e-05
4.82132e-05
4.86712e-05
4.90614e-05
4.93887e-05
3.69648e-05
3.70773e-05
3.72521e-05
3.75258e-05
3.79018e-05
3.82806e-05
3.87462e-05
3.93044e-05
3.9859e-05
4.04207e-05
4.10034e-05
4.15795e-05
4.21505e-05
4.27248e-05
4.32802e-05
4.38207e-05
4.43463e-05
4.48553e-05
4.53426e-05
4.5804e-05
4.62374e-05
4.66273e-05
4.69203e-05
3.49373e-05
3.50117e-05
3.5156e-05
3.54113e-05
3.57593e-05
3.61105e-05
3.6578e-05
3.71292e-05
3.76594e-05
3.82166e-05
3.87927e-05
3.93487e-05
3.99159e-05
4.04791e-05
4.10313e-05
4.15718e-05
4.20928e-05
4.25925e-05
4.30686e-05
4.35168e-05
4.39233e-05
4.42884e-05
4.4535e-05
3.29893e-05
3.30664e-05
3.31815e-05
3.33967e-05
3.37304e-05
3.40722e-05
3.45141e-05
3.50535e-05
3.55903e-05
3.61274e-05
3.66828e-05
3.72317e-05
3.77828e-05
3.83437e-05
3.88924e-05
3.94288e-05
3.99481e-05
4.04445e-05
4.09097e-05
4.13381e-05
4.1723e-05
4.20562e-05
4.2268e-05
3.11728e-05
3.12212e-05
3.13136e-05
3.15159e-05
3.18192e-05
3.21401e-05
3.25816e-05
3.31141e-05
3.36299e-05
3.4157e-05
3.46973e-05
3.52238e-05
3.5769e-05
3.63182e-05
3.68622e-05
3.73968e-05
3.79122e-05
3.84008e-05
3.88576e-05
3.92692e-05
3.96282e-05
3.9933e-05
4.01041e-05
2.94134e-05
2.94582e-05
2.95469e-05
2.97256e-05
3.00269e-05
3.03476e-05
3.07681e-05
3.12943e-05
3.1811e-05
3.23066e-05
3.28217e-05
3.33434e-05
3.38759e-05
3.44214e-05
3.49558e-05
3.54787e-05
3.5983e-05
3.64633e-05
3.69046e-05
3.73036e-05
3.76439e-05
3.79298e-05
3.80623e-05
2.76989e-05
2.77468e-05
2.78585e-05
2.80581e-05
2.83537e-05
2.86694e-05
2.90954e-05
2.96131e-05
3.01012e-05
3.05715e-05
3.10751e-05
3.15901e-05
3.21238e-05
3.26558e-05
3.31799e-05
3.36887e-05
3.41771e-05
3.46374e-05
3.50684e-05
3.54489e-05
3.5788e-05
3.60664e-05
3.61668e-05
2.60166e-05
2.6113e-05
2.62489e-05
2.6465e-05
2.67782e-05
2.71095e-05
2.75215e-05
2.80345e-05
2.85127e-05
2.8938e-05
2.94393e-05
2.99742e-05
3.0501e-05
3.10274e-05
3.15382e-05
3.20354e-05
3.25078e-05
3.29543e-05
3.33627e-05
3.37498e-05
3.40995e-05
3.43485e-05
3.44049e-05
2.44144e-05
2.4519e-05
2.46777e-05
2.4936e-05
2.52584e-05
2.56061e-05
2.60247e-05
2.65476e-05
2.69835e-05
2.73742e-05
2.7909e-05
2.84634e-05
2.89832e-05
2.94925e-05
3.00061e-05
3.05049e-05
3.09765e-05
3.14136e-05
3.18286e-05
3.22145e-05
3.25072e-05
3.27267e-05
3.27447e-05
3.26087e-05
2.28662e-05
2.29802e-05
2.31614e-05
2.34425e-05
2.37911e-05
2.41658e-05
2.45668e-05
2.5113e-05
2.54763e-05
2.58496e-05
2.64645e-05
2.70236e-05
2.74822e-05
2.79851e-05
2.85171e-05
2.90391e-05
2.95293e-05
2.99848e-05
3.03988e-05
3.07426e-05
3.10139e-05
3.11704e-05
3.11509e-05
3.10026e-05
2.12142e-05
2.13197e-05
2.15173e-05
2.18639e-05
2.22443e-05
2.26535e-05
2.30769e-05
2.3681e-05
2.39353e-05
2.43717e-05
2.51444e-05
2.56514e-05
2.59988e-05
2.64896e-05
2.70674e-05
2.7625e-05
2.81365e-05
2.86097e-05
2.90176e-05
2.93375e-05
2.95533e-05
2.96779e-05
2.96504e-05
2.94912e-05
1.993e-05
2.00062e-05
2.0186e-05
2.051e-05
2.08819e-05
2.12941e-05
2.16798e-05
2.22878e-05
2.24331e-05
2.29506e-05
2.38312e-05
2.42987e-05
2.45903e-05
2.51357e-05
2.57691e-05
2.63461e-05
2.68607e-05
2.73208e-05
2.77092e-05
2.79967e-05
2.81948e-05
2.83112e-05
2.82732e-05
2.81091e-05
1.9042e-05
1.90401e-05
1.91553e-05
1.94166e-05
1.97417e-05
2.00977e-05
2.04109e-05
2.09179e-05
2.09794e-05
2.14915e-05
2.24291e-05
2.29229e-05
2.32784e-05
2.39077e-05
2.46198e-05
2.52401e-05
2.57669e-05
2.6227e-05
2.66058e-05
2.68873e-05
2.70804e-05
2.71547e-05
2.70732e-05
2.69115e-05
1.8105e-05
1.80355e-05
1.80917e-05
1.8322e-05
1.86315e-05
1.89552e-05
1.92292e-05
1.9649e-05
1.9695e-05
2.00866e-05
2.09891e-05
2.14642e-05
2.18984e-05
2.26198e-05
2.34123e-05
2.41051e-05
2.46847e-05
2.51853e-05
2.56093e-05
2.59325e-05
2.6139e-05
2.62054e-05
2.60982e-05
2.59047e-05
1.71971e-05
1.70373e-05
1.70114e-05
1.71739e-05
1.74345e-05
1.7729e-05
1.80052e-05
1.83571e-05
1.84129e-05
1.86984e-05
1.96064e-05
2.00334e-05
2.05418e-05
2.1316e-05
2.21592e-05
2.2899e-05
2.35169e-05
2.40472e-05
2.45008e-05
2.48787e-05
2.51314e-05
2.52083e-05
2.50987e-05
2.49089e-05
1.628e-05
1.60616e-05
1.59406e-05
1.60117e-05
1.62147e-05
1.64594e-05
1.67197e-05
1.69989e-05
1.70779e-05
1.72424e-05
1.81647e-05
1.85501e-05
1.91588e-05
2.00106e-05
2.08956e-05
2.16756e-05
2.2321e-05
2.28687e-05
2.33612e-05
2.3789e-05
2.40761e-05
2.4175e-05
2.40905e-05
2.38961e-05
1.53239e-05
1.50627e-05
1.48802e-05
1.48666e-05
1.49837e-05
1.51664e-05
1.54081e-05
1.5587e-05
1.56701e-05
1.5743e-05
1.66715e-05
1.70156e-05
1.77566e-05
1.86937e-05
1.96297e-05
2.04431e-05
2.11217e-05
2.16962e-05
2.22153e-05
2.26684e-05
2.29837e-05
2.31281e-05
2.30689e-05
2.28893e-05
1.43395e-05
1.40818e-05
1.38617e-05
1.37686e-05
1.38082e-05
1.39091e-05
1.4087e-05
1.41626e-05
1.42486e-05
1.42596e-05
1.5173e-05
1.54843e-05
1.63591e-05
1.73965e-05
1.83688e-05
1.92216e-05
1.99334e-05
2.05364e-05
2.10711e-05
2.15157e-05
2.18404e-05
2.20188e-05
2.20139e-05
2.18759e-05
1.33214e-05
1.31062e-05
1.2906e-05
1.27709e-05
1.27209e-05
1.27283e-05
1.28115e-05
1.27802e-05
1.28299e-05
1.28189e-05
1.37581e-05
1.40452e-05
1.50422e-05
1.61522e-05
1.71561e-05
1.80189e-05
1.87549e-05
1.93823e-05
1.98976e-05
2.03267e-05
2.0656e-05
2.08383e-05
2.08442e-05
2.0669e-05
2.04339e-05
1.22731e-05
1.2161e-05
1.20321e-05
1.18956e-05
1.17927e-05
1.16965e-05
1.16216e-05
1.1499e-05
1.14538e-05
1.13943e-05
1.25275e-05
1.28227e-05
1.38825e-05
1.5035e-05
1.60136e-05
1.6857e-05
1.75916e-05
1.8193e-05
1.86987e-05
1.91418e-05
1.95253e-05
1.98491e-05
2.00454e-05
2.01031e-05
2.01335e-05
1.12516e-05
1.12763e-05
1.1262e-05
1.11625e-05
1.10034e-05
1.08049e-05
1.05651e-05
1.03444e-05
1.01285e-05
1.00512e-05
1.15861e-05
1.18777e-05
1.28897e-05
1.39371e-05
1.48135e-05
1.56001e-05
1.63046e-05
1.69049e-05
1.73883e-05
1.77637e-05
1.80557e-05
1.82302e-05
1.8222e-05
1.80767e-05
1.7984e-05
1.03702e-05
1.05652e-05
1.06501e-05
1.05553e-05
1.03162e-05
9.96917e-06
9.53335e-06
9.19495e-06
8.80118e-06
8.86182e-06
1.07518e-05
1.08914e-05
1.17618e-05
1.26928e-05
1.35548e-05
1.44247e-05
1.53119e-05
1.61418e-05
1.68652e-05
1.75115e-05
1.81225e-05
1.87496e-05
1.9381e-05
1.9936e-05
2.03819e-05
9.80712e-06
1.0135e-05
1.02538e-05
1.00957e-05
9.67215e-06
9.025e-06
8.22973e-06
7.5343e-06
6.90731e-06
7.45242e-06
9.59535e-06
9.99784e-06
1.08774e-05
1.16494e-05
1.23127e-05
1.30377e-05
1.38716e-05
1.47528e-05
1.56131e-05
1.64023e-05
1.70868e-05
1.76601e-05
1.81272e-05
1.85289e-05
1.89574e-05
9.5829e-06
9.81954e-06
9.76409e-06
9.37977e-06
8.61742e-06
7.42789e-06
5.7918e-06
3.86224e-06
4.18718e-06
7.78003e-06
6.55304e-06
7.15725e-06
9.33457e-06
1.13105e-05
1.31851e-05
1.49891e-05
1.67345e-05
1.84054e-05
1.9971e-05
2.14005e-05
2.26514e-05
2.36836e-05
2.44425e-05
2.49273e-05
2.53231e-05
)
;

boundaryField
{
    inlet
    {
        type            calculated;
        value           nonuniform List<scalar> 
25
(
9.61578e-06
9.7276e-06
9.53709e-06
9.01049e-06
8.05913e-06
6.55614e-06
4.4364e-06
4.34741e-06
6.55126e-06
7.99285e-06
9.96109e-06
1.27961e-05
1.5243e-05
1.76869e-05
2.03791e-05
2.33281e-05
2.64578e-05
2.9676e-05
3.28974e-05
3.60451e-05
3.90431e-05
4.18011e-05
4.42326e-05
4.62466e-05
4.78867e-05
)
;
    }
    outlet
    {
        type            calculated;
        value           nonuniform List<scalar> 0();
    }
    walls
    {
        type            calculated;
        value           nonuniform List<scalar> 0();
    }
    frontAndBack
    {
        type            empty;
    }
    procBoundary4to0
    {
        type            processor;
        value           nonuniform List<scalar> 
72
(
0.000854821
0.000767334
0.000692947
0.000629059
0.000573516
0.000525029
0.000482215
0.000444321
0.000410379
0.000380028
0.000352646
0.000327945
0.000305406
0.000284933
0.000266174
0.000249022
0.000233192
0.000218716
0.00020531
0.000192981
0.000181414
0.000170646
0.000170646
0.000160974
0.000151603
0.000142883
0.000134728
0.000127084
0.00011989
0.000113179
0.000106897
0.000100997
9.54343e-05
9.02369e-05
8.53603e-05
8.07627e-05
7.64092e-05
7.23175e-05
6.84457e-05
6.47596e-05
6.12363e-05
5.78963e-05
5.47163e-05
5.1687e-05
4.88099e-05
4.61146e-05
4.35816e-05
4.11986e-05
3.89543e-05
3.68473e-05
3.48488e-05
3.29411e-05
3.11283e-05
2.93673e-05
2.76352e-05
2.59518e-05
2.43275e-05
2.2779e-05
2.11318e-05
1.99085e-05
1.9099e-05
1.82221e-05
1.7393e-05
1.65337e-05
1.55955e-05
1.4595e-05
1.35142e-05
1.23641e-05
1.11988e-05
1.01075e-05
9.29871e-06
9.1332e-06
)
;
    }
    procBoundary4to5
    {
        type            processor;
        value           nonuniform List<scalar> 
95
(
0.000924568
0.000887062
0.000848901
0.000739465
0.000739465
0.000706949
0.000622767
0.000622767
0.00059737
0.000533217
0.000533217
0.000478963
0.000478963
0.0004334
0.000409516
0.000409516
0.00037255
0.00037255
0.000341253
0.000324652
0.000324652
0.000297889
0.000284062
0.000284062
0.000261644
0.000250023
0.000250023
0.000231323
0.000221004
0.000210433
0.000210433
0.000195747
0.000187974
0.000179844
0.000179844
0.000168586
0.000162206
0.000155489
0.000155489
0.000146683
0.000141748
0.000136337
0.000136337
0.000129734
0.000125387
0.000120546
0.000115824
0.000111213
0.000111213
0.000106724
0.000102795
9.85715e-05
9.46056e-05
9.07209e-05
9.07209e-05
8.7463e-05
8.37871e-05
7.99835e-05
7.62992e-05
7.27758e-05
7.27758e-05
7.0033e-05
6.67442e-05
6.35037e-05
6.04345e-05
5.74868e-05
5.46523e-05
5.19675e-05
5.19675e-05
4.97675e-05
4.72306e-05
4.47828e-05
4.24466e-05
4.02211e-05
3.80962e-05
3.61331e-05
3.4275e-05
3.4275e-05
3.25862e-05
3.09173e-05
2.9402e-05
2.80262e-05
2.6855e-05
2.58457e-05
2.48483e-05
2.38194e-05
2.27786e-05
2.17927e-05
2.17927e-05
2.04069e-05
2.02264e-05
1.80564e-05
2.07136e-05
1.94214e-05
2.55425e-05
)
;
    }
}


// ************************************************************************* //
