/*--------------------------------*- C++ -*----------------------------------*\
| =========                 |                                                 |
| \\      /  F ield         | OpenFOAM: The Open Source CFD Toolbox           |
|  \\    /   O peration     | Version:  2306                                  |
|   \\  /    A nd           | Website:  www.openfoam.com                      |
|    \\/     M anipulation  |                                                 |
\*---------------------------------------------------------------------------*/
FoamFile
{
    version     2.0;
    format      ascii;
    arch        "LSB;label=32;scalar=64";
    class       volScalarField;
    location    "25";
    object      turbulenceProperties:k;
}
// * * * * * * * * * * * * * * * * * * * * * * * * * * * * * * * * * * * * * //

dimensions      [0 2 -2 0 0 0 0];

internalField   nonuniform List<scalar> 
1340
(
0.000405108
0.000405905
0.00040702
0.000343692
0.000344665
0.000346279
0.000347404
0.000344915
0.000293523
0.000294723
0.000296323
0.000297604
0.000296614
0.000294665
0.000291106
0.000252024
0.000253261
0.000254925
0.000256161
0.000255601
0.000254523
0.000253006
0.000250349
0.000217488
0.000218754
0.000220257
0.000221495
0.000221383
0.000220762
0.000219836
0.000218083
0.000215402
0.00018852
0.00018968
0.000191133
0.000192293
0.000192373
0.000192236
0.000191813
0.000190543
0.000188768
0.00016403
0.000165116
0.000166377
0.000167514
0.000167829
0.000167908
0.000167799
0.000167056
0.00016574
0.000163918
0.000143165
0.000144158
0.000145373
0.000146429
0.000146811
0.000147111
0.000147234
0.000146734
0.000145829
0.000144507
0.000142434
0.000125343
0.000126301
0.000127369
0.000128362
0.000128854
0.000129196
0.000129429
0.000129227
0.000128607
0.000127582
0.000126141
0.000110055
0.000110912
0.000111929
0.000112841
0.000113307
0.000113756
0.000114085
0.000113984
0.000113623
0.000112939
0.00011181
0.000110305
9.68645e-05
9.76674e-05
9.85579e-05
9.94176e-05
9.9925e-05
0.000100353
0.000100714
0.000100781
0.000100576
0.000100088
9.92646e-05
9.81697e-05
8.54294e-05
8.61799e-05
8.7036e-05
8.78045e-05
8.82563e-05
8.87188e-05
8.91188e-05
8.92142e-05
8.91523e-05
8.88775e-05
8.82592e-05
8.73915e-05
8.6171e-05
7.5503e-05
7.62454e-05
7.69897e-05
7.7688e-05
7.81429e-05
7.85571e-05
7.89553e-05
7.91541e-05
7.91664e-05
7.89947e-05
7.85736e-05
7.79055e-05
7.69705e-05
6.68644e-05
6.75379e-05
6.82417e-05
6.88586e-05
6.92533e-05
6.96934e-05
7.0106e-05
7.03015e-05
7.03947e-05
7.03445e-05
7.00418e-05
6.9531e-05
6.87961e-05
6.77413e-05
5.92943e-05
5.99303e-05
6.05415e-05
6.11083e-05
6.15098e-05
6.1913e-05
6.23128e-05
6.25713e-05
6.26958e-05
6.26893e-05
6.25089e-05
6.21329e-05
6.154e-05
6.07263e-05
5.26418e-05
5.32283e-05
5.38112e-05
5.43132e-05
5.46756e-05
5.50968e-05
5.55031e-05
5.57437e-05
5.59121e-05
5.5977e-05
5.58552e-05
5.5587e-05
5.51277e-05
5.44628e-05
4.68021e-05
4.73556e-05
4.78593e-05
4.83263e-05
4.87021e-05
4.90905e-05
4.94808e-05
4.9763e-05
4.99436e-05
5.00298e-05
4.99904e-05
4.98111e-05
4.94589e-05
4.89615e-05
4.82885e-05
4.16601e-05
4.21442e-05
4.26244e-05
4.30581e-05
4.34071e-05
4.38111e-05
4.42011e-05
4.44568e-05
4.46672e-05
4.48049e-05
4.48055e-05
4.47148e-05
4.44878e-05
4.41119e-05
4.36487e-05
3.71277e-05
3.75693e-05
3.79856e-05
3.84039e-05
3.87656e-05
3.91387e-05
3.95063e-05
3.97907e-05
4.00075e-05
4.01609e-05
4.02298e-05
4.02063e-05
4.0093e-05
3.98569e-05
3.95347e-05
3.3107e-05
3.35096e-05
3.39165e-05
3.42998e-05
3.46325e-05
3.50103e-05
3.53725e-05
3.56323e-05
3.58701e-05
3.60662e-05
3.61649e-05
3.62136e-05
3.61778e-05
3.60439e-05
3.58369e-05
3.55222e-05
2.95414e-05
2.99346e-05
3.02998e-05
3.06618e-05
3.09947e-05
3.13395e-05
3.16829e-05
3.19662e-05
3.22063e-05
3.24096e-05
3.25591e-05
3.26476e-05
3.26763e-05
3.26291e-05
3.24809e-05
3.22745e-05
2.64316e-05
2.67662e-05
2.71135e-05
2.74401e-05
2.77395e-05
2.80859e-05
2.84243e-05
2.86847e-05
2.89377e-05
2.91697e-05
2.93336e-05
2.94644e-05
2.95349e-05
2.9533e-05
2.94716e-05
2.93236e-05
2.34532e-05
2.36735e-05
2.39647e-05
2.42651e-05
2.45711e-05
2.48649e-05
2.5182e-05
2.54993e-05
2.57771e-05
2.60272e-05
2.62571e-05
2.64525e-05
2.66051e-05
2.67167e-05
2.67711e-05
2.675e-05
2.66947e-05
2.65869e-05
2.10012e-05
2.11782e-05
2.14517e-05
2.17421e-05
2.20189e-05
2.22841e-05
2.25974e-05
2.29082e-05
2.31623e-05
2.34189e-05
2.36663e-05
2.38651e-05
2.40452e-05
2.41805e-05
2.42729e-05
2.43306e-05
2.43342e-05
2.43143e-05
1.88041e-05
1.89622e-05
1.92175e-05
1.94763e-05
1.97382e-05
1.99991e-05
2.02826e-05
2.05748e-05
2.08399e-05
2.10897e-05
2.13274e-05
2.15458e-05
2.17356e-05
2.19015e-05
2.20306e-05
2.21295e-05
2.22016e-05
2.22581e-05
1.68473e-05
1.69831e-05
1.72144e-05
1.74639e-05
1.77057e-05
1.79394e-05
1.82183e-05
1.85013e-05
1.87421e-05
1.89915e-05
1.92389e-05
1.94526e-05
1.96576e-05
1.98356e-05
1.99893e-05
2.0135e-05
2.02546e-05
2.0353e-05
2.04368e-05
1.50853e-05
1.5222e-05
1.54354e-05
1.56569e-05
1.58858e-05
1.61127e-05
1.63654e-05
1.66273e-05
1.68735e-05
1.71118e-05
1.7346e-05
1.75691e-05
1.77754e-05
1.79693e-05
1.81446e-05
1.83048e-05
1.84638e-05
1.85977e-05
1.87303e-05
1.35289e-05
1.36499e-05
1.38406e-05
1.40538e-05
1.4261e-05
1.44647e-05
1.47091e-05
1.49607e-05
1.51826e-05
1.54166e-05
1.56535e-05
1.58666e-05
1.60789e-05
1.62748e-05
1.64601e-05
1.66439e-05
1.68126e-05
1.69855e-05
1.71453e-05
1.21348e-05
1.22459e-05
1.24242e-05
1.26112e-05
1.28061e-05
1.30035e-05
1.3222e-05
1.34541e-05
1.36767e-05
1.3897e-05
1.41171e-05
1.43326e-05
1.45386e-05
1.47405e-05
1.49314e-05
1.5115e-05
1.53051e-05
1.54872e-05
1.56746e-05
1.08926e-05
1.09896e-05
1.11517e-05
1.13308e-05
1.15093e-05
1.16847e-05
1.18951e-05
1.21152e-05
1.23133e-05
1.25246e-05
1.27419e-05
1.29436e-05
1.31483e-05
1.33442e-05
1.35337e-05
1.37262e-05
1.39132e-05
1.41044e-05
1.43145e-05
9.7715e-06
9.87188e-06
1.00217e-05
1.01807e-05
1.03482e-05
1.05158e-05
1.07036e-05
1.09035e-05
1.10987e-05
1.12947e-05
1.14941e-05
1.16925e-05
1.18871e-05
1.20814e-05
1.22701e-05
1.24563e-05
1.26484e-05
1.28419e-05
1.30534e-05
1.32956e-05
8.78138e-06
8.87174e-06
9.00688e-06
9.16005e-06
9.31125e-06
9.46087e-06
9.63957e-06
9.82778e-06
1.00007e-05
1.01863e-05
1.03793e-05
1.0562e-05
1.07509e-05
1.09362e-05
1.11207e-05
1.13078e-05
1.14949e-05
1.16957e-05
1.18923e-05
1.21334e-05
7.89203e-06
7.97606e-06
8.10339e-06
8.23934e-06
8.38179e-06
8.52574e-06
8.68471e-06
8.85615e-06
9.02443e-06
9.19458e-06
9.36918e-06
9.54577e-06
9.72207e-06
9.90257e-06
1.00815e-05
1.02624e-05
1.04515e-05
1.06395e-05
1.08521e-05
1.10788e-05
7.09701e-06
7.17143e-06
7.28841e-06
7.41967e-06
7.55125e-06
7.67979e-06
7.83221e-06
7.99328e-06
8.14134e-06
8.30094e-06
8.46812e-06
8.62879e-06
8.79695e-06
8.96577e-06
9.13729e-06
9.31599e-06
9.49871e-06
9.69213e-06
9.89711e-06
1.0118e-05
6.37624e-06
6.45244e-06
6.56085e-06
6.679e-06
6.80383e-06
6.9274e-06
7.06443e-06
7.21094e-06
7.35524e-06
7.50122e-06
7.65211e-06
7.80531e-06
7.9606e-06
8.12157e-06
8.28526e-06
8.45497e-06
8.63305e-06
8.82e-06
9.01966e-06
9.23475e-06
5.7368e-06
5.80451e-06
5.90243e-06
6.01692e-06
6.13108e-06
6.24338e-06
6.3752e-06
6.51393e-06
6.64262e-06
6.78009e-06
6.92392e-06
7.06288e-06
7.20927e-06
7.35784e-06
7.51129e-06
7.67244e-06
7.84086e-06
8.01894e-06
8.20895e-06
8.4114e-06
8.63545e-06
5.15828e-06
5.21983e-06
5.31122e-06
5.4138e-06
5.52241e-06
5.63157e-06
5.75106e-06
5.87981e-06
6.00589e-06
6.13267e-06
6.26294e-06
6.39519e-06
6.5291e-06
6.66894e-06
6.81128e-06
6.95944e-06
7.11591e-06
7.27939e-06
7.45629e-06
7.64346e-06
7.84306e-06
4.63681e-06
4.69028e-06
4.77322e-06
4.87163e-06
4.9724e-06
5.07162e-06
5.18784e-06
5.31066e-06
5.42439e-06
5.54479e-06
5.66974e-06
5.79013e-06
5.91598e-06
6.0436e-06
6.17445e-06
6.31221e-06
6.45533e-06
6.60669e-06
6.76248e-06
6.93388e-06
7.10758e-06
4.16017e-06
4.21363e-06
4.28882e-06
4.3769e-06
4.47223e-06
4.56762e-06
4.67391e-06
4.78803e-06
4.90033e-06
5.01278e-06
5.12766e-06
5.24281e-06
5.35854e-06
5.47787e-06
5.59882e-06
5.72346e-06
5.85426e-06
5.98964e-06
6.13298e-06
6.28303e-06
6.43613e-06
3.73443e-06
3.78091e-06
3.84757e-06
3.93118e-06
4.0178e-06
4.10468e-06
4.20711e-06
4.31616e-06
4.41892e-06
4.52681e-06
4.63762e-06
4.74369e-06
4.8531e-06
4.96273e-06
5.07385e-06
5.18881e-06
5.30683e-06
5.42879e-06
5.55385e-06
5.68608e-06
5.82156e-06
3.34711e-06
3.38875e-06
3.44982e-06
3.52334e-06
3.60446e-06
3.68742e-06
3.78037e-06
3.88231e-06
3.98314e-06
4.08409e-06
4.18671e-06
4.28883e-06
4.3903e-06
4.49366e-06
4.59642e-06
4.70051e-06
4.80743e-06
4.9164e-06
5.02923e-06
5.14474e-06
5.26468e-06
5.39362e-06
2.9972e-06
3.03329e-06
3.08797e-06
3.15672e-06
3.23047e-06
3.30475e-06
3.39354e-06
3.48978e-06
3.58143e-06
3.67776e-06
3.77664e-06
3.87133e-06
3.9678e-06
4.06338e-06
4.15846e-06
4.25536e-06
4.35284e-06
4.45164e-06
4.55129e-06
4.65561e-06
4.76292e-06
4.8708e-06
2.67835e-06
2.71462e-06
2.76344e-06
2.82367e-06
2.89191e-06
2.96124e-06
3.04092e-06
3.12924e-06
3.21783e-06
3.30735e-06
3.39894e-06
3.4897e-06
3.57951e-06
3.66985e-06
3.75893e-06
3.8478e-06
3.93776e-06
4.02825e-06
4.11916e-06
4.21066e-06
4.30608e-06
4.39671e-06
2.39607e-06
2.42743e-06
2.47017e-06
2.52606e-06
2.58671e-06
2.64831e-06
2.72284e-06
2.805e-06
2.88482e-06
2.96918e-06
3.05614e-06
3.13991e-06
3.22491e-06
3.30881e-06
3.39176e-06
3.47506e-06
3.55811e-06
3.64085e-06
3.72338e-06
3.80652e-06
3.89021e-06
3.96923e-06
2.14232e-06
2.17001e-06
2.20841e-06
2.25647e-06
2.31216e-06
2.36918e-06
2.43507e-06
2.51003e-06
2.58563e-06
2.66269e-06
2.74217e-06
2.82143e-06
2.89993e-06
2.97888e-06
3.05615e-06
3.1328e-06
3.20958e-06
3.28602e-06
3.36208e-06
3.43642e-06
3.51187e-06
3.57961e-06
1.916e-06
1.93914e-06
1.97254e-06
2.01644e-06
2.06605e-06
2.11604e-06
2.1773e-06
2.2461e-06
2.31319e-06
2.38463e-06
2.459e-06
2.53127e-06
2.60469e-06
2.67723e-06
2.74877e-06
2.82031e-06
2.89112e-06
2.96161e-06
3.03096e-06
3.09983e-06
3.16576e-06
3.22586e-06
1.71191e-06
1.73402e-06
1.76241e-06
1.7997e-06
1.84481e-06
1.89047e-06
1.94444e-06
2.00652e-06
2.06947e-06
2.13412e-06
2.20159e-06
2.269e-06
2.33615e-06
2.40378e-06
2.47012e-06
2.53572e-06
2.60114e-06
2.66596e-06
2.72967e-06
2.79104e-06
2.85036e-06
2.90271e-06
1.53254e-06
1.54985e-06
1.57303e-06
1.60639e-06
1.64565e-06
1.68567e-06
1.73551e-06
1.79245e-06
1.8485e-06
1.90819e-06
1.97061e-06
2.03163e-06
2.09397e-06
2.156e-06
2.21737e-06
2.27834e-06
2.33847e-06
2.39746e-06
2.45518e-06
2.51118e-06
2.56479e-06
2.61108e-06
2.65027e-06
1.37111e-06
1.3846e-06
1.4037e-06
1.4309e-06
1.46627e-06
1.50273e-06
1.54662e-06
1.5986e-06
1.65116e-06
1.70503e-06
1.76138e-06
1.81794e-06
1.87477e-06
1.93259e-06
1.98942e-06
2.04548e-06
2.10074e-06
2.15491e-06
2.20739e-06
2.2576e-06
2.30514e-06
2.34824e-06
2.38125e-06
1.22626e-06
1.23578e-06
1.25102e-06
1.27468e-06
1.30533e-06
1.33693e-06
1.37769e-06
1.42544e-06
1.47238e-06
1.52208e-06
1.57401e-06
1.62502e-06
1.67763e-06
1.73059e-06
1.78327e-06
1.83558e-06
1.88672e-06
1.93645e-06
1.9844e-06
2.03004e-06
2.0719e-06
2.10975e-06
2.13603e-06
1.09449e-06
1.1032e-06
1.1151e-06
1.13412e-06
1.16144e-06
1.18996e-06
1.22595e-06
1.26948e-06
1.31359e-06
1.35838e-06
1.40517e-06
1.45214e-06
1.49992e-06
1.54913e-06
1.59803e-06
1.64653e-06
1.69417e-06
1.74036e-06
1.78424e-06
1.82516e-06
1.86234e-06
1.89484e-06
1.91612e-06
9.7823e-07
9.84255e-07
9.93585e-07
1.01021e-06
1.03353e-06
1.0585e-06
1.09187e-06
1.13193e-06
1.17156e-06
1.21257e-06
1.25514e-06
1.29733e-06
1.34148e-06
1.38657e-06
1.4319e-06
1.47711e-06
1.52137e-06
1.56396e-06
1.60434e-06
1.64123e-06
1.67384e-06
1.70178e-06
1.71809e-06
8.71711e-07
8.76844e-07
8.85025e-07
8.98855e-07
9.20286e-07
9.4338e-07
9.73085e-07
1.01003e-06
1.04706e-06
1.08325e-06
1.12129e-06
1.16037e-06
1.20076e-06
1.24268e-06
1.28443e-06
1.32591e-06
1.36653e-06
1.4058e-06
1.44244e-06
1.47601e-06
1.50504e-06
1.52967e-06
1.54171e-06
7.73695e-07
7.78404e-07
7.87059e-07
8.00926e-07
8.20459e-07
8.41577e-07
8.69564e-07
9.0358e-07
9.36428e-07
9.6866e-07
1.0035e-06
1.03963e-06
1.07755e-06
1.11597e-06
1.15442e-06
1.19237e-06
1.22937e-06
1.26479e-06
1.29841e-06
1.32854e-06
1.35568e-06
1.37819e-06
1.38693e-06
6.83083e-07
6.89809e-07
6.98953e-07
7.12587e-07
7.31665e-07
7.52136e-07
7.7747e-07
8.09022e-07
8.39181e-07
8.66678e-07
8.99157e-07
9.34265e-07
9.69468e-07
1.00522e-06
1.04053e-06
1.07546e-06
1.1092e-06
1.14159e-06
1.17165e-06
1.20046e-06
1.22674e-06
1.2458e-06
1.25072e-06
6.01956e-07
6.08461e-07
6.17935e-07
6.32627e-07
6.50804e-07
6.70682e-07
6.94669e-07
7.24748e-07
7.50666e-07
7.74418e-07
8.06777e-07
8.40912e-07
8.73618e-07
9.06256e-07
9.39692e-07
9.72739e-07
1.00452e-06
1.03446e-06
1.06328e-06
1.0904e-06
1.11134e-06
1.12725e-06
1.12915e-06
1.12026e-06
5.28366e-07
5.34715e-07
5.44433e-07
5.59084e-07
5.77216e-07
5.97025e-07
6.18532e-07
6.4787e-07
6.68323e-07
6.89566e-07
7.24235e-07
7.56611e-07
7.83926e-07
8.14244e-07
8.46815e-07
8.79359e-07
9.10504e-07
9.39954e-07
9.67144e-07
9.90105e-07
1.00849e-06
1.01938e-06
1.01863e-06
1.00933e-06
4.5505e-07
4.60413e-07
4.69955e-07
4.86276e-07
5.04432e-07
5.24336e-07
5.45342e-07
5.75494e-07
5.89207e-07
6.12093e-07
6.52728e-07
6.80528e-07
7.00248e-07
7.28051e-07
7.61219e-07
7.93929e-07
8.24581e-07
8.53466e-07
8.78839e-07
8.99092e-07
9.13033e-07
9.21308e-07
9.20034e-07
9.10476e-07
4.01747e-07
4.05491e-07
4.13594e-07
4.27835e-07
4.44367e-07
4.63033e-07
4.8094e-07
5.09254e-07
5.16945e-07
5.41982e-07
5.85302e-07
6.09517e-07
6.25244e-07
6.5423e-07
6.88525e-07
7.20576e-07
7.49837e-07
7.76525e-07
7.99482e-07
8.16816e-07
8.28996e-07
8.36329e-07
8.3445e-07
8.25031e-07
3.66891e-07
3.67371e-07
3.72473e-07
3.83399e-07
3.97057e-07
4.12262e-07
4.25971e-07
4.4812e-07
4.51539e-07
4.74471e-07
5.1744e-07
5.41366e-07
5.59202e-07
5.90701e-07
6.27236e-07
6.60048e-07
6.88651e-07
7.14181e-07
7.3563e-07
7.51884e-07
7.63248e-07
7.67881e-07
7.63597e-07
7.54696e-07
3.3178e-07
3.29691e-07
3.32264e-07
3.41332e-07
3.53523e-07
3.66506e-07
3.77767e-07
3.94978e-07
3.97413e-07
4.13779e-07
4.52264e-07
4.73722e-07
4.93898e-07
5.27727e-07
5.66079e-07
6.00801e-07
6.30735e-07
6.57234e-07
6.80156e-07
6.97993e-07
7.09647e-07
7.13665e-07
7.08116e-07
6.97822e-07
2.9943e-07
2.94253e-07
2.93765e-07
2.99837e-07
3.09433e-07
3.20423e-07
3.30918e-07
3.44369e-07
3.46886e-07
3.57974e-07
3.93896e-07
4.11868e-07
4.33751e-07
4.67715e-07
5.06083e-07
5.41074e-07
5.71285e-07
5.97925e-07
6.21245e-07
6.41067e-07
6.54608e-07
6.58986e-07
6.5352e-07
6.4382e-07
2.6843e-07
2.6156e-07
2.57946e-07
2.60573e-07
2.6754e-07
2.75998e-07
2.85104e-07
2.94971e-07
2.98006e-07
3.0391e-07
3.37485e-07
3.52466e-07
3.76585e-07
4.11373e-07
4.49108e-07
4.83808e-07
5.13594e-07
5.39622e-07
5.63599e-07
5.8488e-07
5.99492e-07
6.04755e-07
6.00762e-07
5.91241e-07
2.37899e-07
2.30073e-07
2.24765e-07
2.24589e-07
2.28366e-07
2.34192e-07
2.41922e-07
2.47746e-07
2.50569e-07
2.52971e-07
2.838e-07
2.9603e-07
3.22873e-07
3.58319e-07
3.95552e-07
4.29477e-07
4.58936e-07
4.8469e-07
5.08584e-07
5.29938e-07
5.4513e-07
5.52288e-07
5.49669e-07
5.41274e-07
2.0838e-07
2.01116e-07
1.95046e-07
1.92602e-07
1.93862e-07
1.96852e-07
2.0205e-07
2.04327e-07
2.06911e-07
2.07256e-07
2.34713e-07
2.44735e-07
2.73567e-07
3.09737e-07
3.457e-07
3.7893e-07
4.07914e-07
4.33356e-07
4.56574e-07
4.76378e-07
4.91161e-07
4.99464e-07
4.99436e-07
4.93316e-07
1.79895e-07
1.7424e-07
1.69074e-07
1.65665e-07
1.6447e-07
1.64753e-07
1.66986e-07
1.66228e-07
1.67565e-07
1.67283e-07
1.92715e-07
2.01054e-07
2.30913e-07
2.66542e-07
3.00999e-07
3.32354e-07
3.60387e-07
3.85223e-07
4.06279e-07
4.24269e-07
4.38373e-07
4.46361e-07
4.46783e-07
4.39422e-07
4.29551e-07
1.52738e-07
1.50032e-07
1.46944e-07
1.43701e-07
1.41289e-07
1.39045e-07
1.37308e-07
1.34452e-07
1.33406e-07
1.32023e-07
1.59593e-07
1.67352e-07
1.96382e-07
2.30565e-07
2.61785e-07
2.90334e-07
3.16455e-07
3.38721e-07
3.58061e-07
3.75457e-07
3.90864e-07
4.04125e-07
4.12316e-07
4.14817e-07
4.16162e-07
1.284e-07
1.29005e-07
1.28724e-07
1.26504e-07
1.22957e-07
1.18588e-07
1.13398e-07
1.08719e-07
1.04224e-07
1.02636e-07
1.36369e-07
1.43423e-07
1.69064e-07
1.97819e-07
2.2365e-07
2.48216e-07
2.71342e-07
2.91894e-07
3.09021e-07
3.22683e-07
3.3354e-07
3.4015e-07
3.39953e-07
3.34633e-07
3.31269e-07
1.09086e-07
1.13248e-07
1.15101e-07
1.13082e-07
1.08032e-07
1.00898e-07
9.22728e-08
8.58371e-08
7.86356e-08
7.97168e-08
1.17329e-07
1.20464e-07
1.40597e-07
1.63847e-07
1.86975e-07
2.11881e-07
2.38904e-07
2.65676e-07
2.90198e-07
3.13037e-07
3.35429e-07
3.592e-07
3.83956e-07
4.064e-07
4.24891e-07
9.75658e-08
1.04209e-07
1.06678e-07
1.03422e-07
9.49308e-08
8.26526e-08
6.8725e-08
5.75955e-08
4.84018e-08
5.63356e-08
9.33688e-08
1.01409e-07
1.20116e-07
1.37849e-07
1.54068e-07
1.72826e-07
1.95728e-07
2.21483e-07
2.48176e-07
2.74005e-07
2.97449e-07
3.17825e-07
3.34915e-07
3.49959e-07
3.66367e-07
9.31489e-08
9.78105e-08
9.67124e-08
8.92506e-08
7.53316e-08
5.59675e-08
3.40251e-08
1.51288e-08
1.7779e-08
6.13753e-08
4.35214e-08
5.19252e-08
8.83656e-08
1.29802e-07
1.76486e-07
2.28198e-07
2.84579e-07
3.44417e-07
4.05714e-07
4.66121e-07
5.2251e-07
5.71569e-07
6.09169e-07
6.33907e-07
6.54404e-07
)
;

boundaryField
{
    inlet
    {
        type            calculated;
        value           nonuniform List<scalar> 
25
(
9.37808e-08
9.59747e-08
9.22523e-08
8.23459e-08
6.58752e-08
4.35956e-08
1.99621e-08
1.91693e-08
4.35306e-08
6.47959e-08
1.00594e-07
1.66017e-07
2.35645e-07
3.17356e-07
4.21445e-07
5.52401e-07
7.10759e-07
8.94437e-07
1.09948e-06
1.32034e-06
1.54961e-06
1.77688e-06
1.9903e-06
2.17631e-06
2.33381e-06
)
;
    }
    outlet
    {
        type            calculated;
        value           nonuniform List<scalar> 0();
    }
    walls
    {
        type            calculated;
        value           nonuniform List<scalar> 0();
    }
    frontAndBack
    {
        type            empty;
    }
    procBoundary4to0
    {
        type            processor;
        value           nonuniform List<scalar> 
72
(
0.000404638
0.000342965
0.000292702
0.000251309
0.000216781
0.000187883
0.000163403
0.000142647
0.000124821
0.000109559
9.63731e-05
8.49972e-05
7.50618e-05
6.64346e-05
5.88759e-05
5.22747e-05
4.64513e-05
4.13684e-05
3.68714e-05
3.29246e-05
2.93862e-05
2.62422e-05
2.62422e-05
2.32591e-05
2.08079e-05
1.8632e-05
1.66905e-05
1.49553e-05
1.33978e-05
1.20133e-05
1.07784e-05
9.67327e-06
8.68042e-06
7.79703e-06
7.00753e-06
6.29865e-06
5.65936e-06
5.08742e-06
4.57233e-06
4.1058e-06
3.68178e-06
3.29993e-06
2.95476e-06
2.64279e-06
2.36184e-06
2.1124e-06
1.89021e-06
1.69208e-06
1.51517e-06
1.35771e-06
1.2161e-06
1.08798e-06
9.7268e-07
8.66696e-07
7.68258e-07
6.78157e-07
5.96445e-07
5.23362e-07
4.50757e-07
4.00258e-07
3.68557e-07
3.35644e-07
3.05928e-07
2.76572e-07
2.46187e-07
2.15713e-07
1.85029e-07
1.5494e-07
1.27155e-07
1.0361e-07
8.77023e-08
8.46079e-08
)
;
    }
    procBoundary4to5
    {
        type            processor;
        value           nonuniform List<scalar> 
95
(
0.000481689
0.000481727
0.00048139
0.000406662
0.000406662
0.000403289
0.000340852
0.000340852
0.000336765
0.000286301
0.000286301
0.000243922
0.000243922
0.000209031
0.000185339
0.000185339
0.000159159
0.000159159
0.000137715
0.000123622
0.000123622
0.000106685
9.6227e-05
9.6227e-05
8.32693e-05
7.54346e-05
7.54346e-05
6.56014e-05
5.94179e-05
5.34887e-05
5.34887e-05
4.68645e-05
4.29202e-05
3.90369e-05
3.90369e-05
3.46414e-05
3.18674e-05
2.91079e-05
2.91079e-05
2.61058e-05
2.42329e-05
2.22885e-05
2.22885e-05
2.02996e-05
1.88491e-05
1.732e-05
1.58983e-05
1.45747e-05
1.45747e-05
1.34643e-05
1.24166e-05
1.13506e-05
1.03958e-05
9.50548e-06
9.50548e-06
8.83707e-06
8.0616e-06
7.30339e-06
6.60818e-06
5.97845e-06
5.97845e-06
5.52449e-06
4.98955e-06
4.49216e-06
4.04693e-06
3.64296e-06
3.27622e-06
2.94796e-06
2.94796e-06
2.69448e-06
2.41555e-06
2.16198e-06
1.93401e-06
1.72941e-06
1.54546e-06
1.3851e-06
1.24189e-06
1.24189e-06
1.119e-06
1.004e-06
9.05143e-07
8.20303e-07
7.51627e-07
6.94727e-07
6.40764e-07
5.87515e-07
5.36119e-07
4.89645e-07
4.89645e-07
4.2846e-07
4.20076e-07
3.33986e-07
4.38905e-07
3.8457e-07
6.65886e-07
)
;
    }
}


// ************************************************************************* //
