/*--------------------------------*- C++ -*----------------------------------*\
| =========                 |                                                 |
| \\      /  F ield         | OpenFOAM: The Open Source CFD Toolbox           |
|  \\    /   O peration     | Version:  2306                                  |
|   \\  /    A nd           | Website:  www.openfoam.com                      |
|    \\/     M anipulation  |                                                 |
\*---------------------------------------------------------------------------*/
FoamFile
{
    version     2.0;
    format      ascii;
    arch        "LSB;label=32;scalar=64";
    class       volSymmTensorField;
    location    "25";
    object      turbulenceProperties:devReff;
}
// * * * * * * * * * * * * * * * * * * * * * * * * * * * * * * * * * * * * * //

dimensions      [0 2 -2 0 0 0 0];

internalField   nonuniform List<symmTensor> 
1340
(
(7.57168e-05 -5.05758e-05 5.06908e-21 -7.63792e-05 -2.6297e-21 6.62359e-07)
(6.58274e-05 -6.31438e-05 5.04948e-20 -6.65937e-05 3.03621e-20 7.66354e-07)
(5.30936e-05 -7.45301e-05 -2.72316e-20 -5.38252e-05 -8.38074e-21 7.31639e-07)
(6.41491e-05 -4.31201e-05 1.52073e-20 -6.46226e-05 8.75112e-21 4.73455e-07)
(5.58583e-05 -5.37e-05 -1.41709e-20 -5.64457e-05 -3.44787e-21 5.87347e-07)
(4.51789e-05 -6.34359e-05 -3.77253e-20 -4.57341e-05 -2.40035e-20 5.55236e-07)
(3.29485e-05 -7.085e-05 2.10967e-19 -3.36039e-05 1.19788e-19 6.55415e-07)
(1.91632e-05 -7.51957e-05 -4.75853e-20 -1.99557e-05 -1.90607e-20 7.92504e-07)
(5.46263e-05 -3.71088e-05 5.43629e-21 -5.49813e-05 4.22857e-21 3.55013e-07)
(4.76685e-05 -4.60681e-05 -2.6653e-20 -4.80955e-05 -6.97897e-21 4.27065e-07)
(3.86102e-05 -5.43659e-05 -1.06536e-19 -3.89863e-05 -5.54051e-20 3.76103e-07)
(2.82982e-05 -6.06861e-05 -1.84717e-20 -2.87883e-05 -8.71894e-21 4.9001e-07)
(1.67159e-05 -6.46307e-05 -1.20045e-20 -1.72799e-05 -1.04471e-20 5.63998e-07)
(4.53088e-06 -6.62035e-05 1.35727e-19 -5.09569e-06 7.07455e-20 5.64813e-07)
(-7.52621e-06 -6.51679e-05 3.33128e-20 6.78328e-06 1.93036e-20 7.42932e-07)
(4.67327e-05 -3.21482e-05 -1.33674e-20 -4.7001e-05 -2.03406e-21 2.68353e-07)
(4.07957e-05 -3.97916e-05 -8.2351e-20 -4.11156e-05 -4.04144e-20 3.19859e-07)
(3.30962e-05 -4.68817e-05 3.62543e-20 -3.3369e-05 1.19989e-20 2.72874e-07)
(2.43609e-05 -5.22547e-05 2.3655e-20 -2.47296e-05 1.03523e-20 3.6876e-07)
(1.45284e-05 -5.5677e-05 1.03089e-19 -1.49622e-05 5.10541e-20 4.33828e-07)
(4.15956e-06 -5.71749e-05 -1.47447e-19 -4.62592e-06 -7.4822e-20 4.66361e-07)
(-6.16186e-06 -5.6684e-05 1.7639e-19 5.63157e-06 8.395e-20 5.30299e-07)
(-1.60551e-05 -5.41284e-05 -4.44002e-19 1.54983e-05 -2.2048e-19 5.56797e-07)
(4.01704e-05 -2.80063e-05 2.45702e-20 -4.03648e-05 9.53349e-21 1.94464e-07)
(3.50659e-05 -3.45694e-05 2.4158e-20 -3.53082e-05 9.68478e-21 2.42359e-07)
(2.84402e-05 -4.06395e-05 5.04108e-21 -2.86266e-05 5.5236e-21 1.86367e-07)
(2.09904e-05 -4.52354e-05 -1.19908e-20 -2.12626e-05 -7.61798e-21 2.72207e-07)
(1.26312e-05 -4.82232e-05 8.43575e-20 -1.29659e-05 4.04902e-20 3.34685e-07)
(3.76965e-06 -4.95877e-05 -6.185e-20 -4.12895e-06 -3.26701e-20 3.593e-07)
(-5.08798e-06 -4.92856e-05 -2.42486e-19 4.66559e-06 -1.15757e-19 4.22394e-07)
(-1.36376e-05 -4.72593e-05 2.54818e-19 1.31582e-05 1.33012e-19 4.79404e-07)
(-2.15351e-05 -4.35782e-05 9.05528e-20 2.1093e-05 4.6158e-20 4.42031e-07)
(3.46531e-05 -2.45371e-05 -6.04212e-21 -3.47982e-05 -1.9581e-22 1.4517e-07)
(3.0232e-05 -3.01754e-05 -9.98712e-21 -3.04034e-05 -3.75412e-21 1.71468e-07)
(2.45135e-05 -3.53967e-05 -4.87673e-20 -2.46485e-05 -1.91647e-20 1.34972e-07)
(1.81168e-05 -3.93338e-05 2.3815e-20 -1.83222e-05 7.69113e-21 2.05341e-07)
(1.09461e-05 -4.19236e-05 -7.68602e-20 -1.11938e-05 -3.27645e-20 2.47717e-07)
(3.34583e-06 -4.31827e-05 1.62905e-19 -3.62247e-06 7.17127e-20 2.76633e-07)
(-4.26022e-06 -4.30254e-05 3.08494e-21 3.92898e-06 8.3783e-21 3.31236e-07)
(-1.16354e-05 -4.13702e-05 7.35569e-20 1.12712e-05 2.3765e-20 3.64169e-07)
(-1.84608e-05 -3.84e-05 6.1487e-20 1.80563e-05 1.93277e-20 4.04451e-07)
(2.99758e-05 -2.1605e-05 -5.04229e-20 -3.00967e-05 -2.22241e-20 1.20853e-07)
(2.61365e-05 -2.6455e-05 7.77849e-20 -2.62798e-05 2.97133e-20 1.43358e-07)
(2.11588e-05 -3.09479e-05 -5.47772e-20 -2.12546e-05 -2.14351e-20 9.57439e-08)
(1.56434e-05 -3.43401e-05 3.07787e-20 -1.57961e-05 1.25494e-20 1.52645e-07)
(9.47545e-06 -3.66019e-05 -1.80015e-19 -9.66989e-06 -7.79456e-20 1.94435e-07)
(2.9189e-06 -3.77246e-05 8.5508e-20 -3.124e-06 3.69822e-20 2.051e-07)
(-3.6504e-06 -3.765e-05 2.50061e-19 3.40349e-06 1.06318e-19 2.4691e-07)
(-1.00253e-05 -3.63209e-05 -3.43575e-19 9.74156e-06 -1.512e-19 2.83792e-07)
(-1.59574e-05 -3.38319e-05 -1.76476e-19 1.56442e-05 -7.33215e-20 3.13175e-07)
(-2.12328e-05 -3.03232e-05 1.39635e-19 2.09071e-05 5.40815e-20 3.25666e-07)
(2.60035e-05 -1.90793e-05 2.6557e-20 -2.61114e-05 8.6871e-21 1.07929e-07)
(2.26356e-05 -2.32838e-05 1.07112e-20 -2.27563e-05 6.11183e-21 1.20632e-07)
(1.82976e-05 -2.71759e-05 4.12202e-20 -1.83757e-05 1.60405e-20 7.80633e-08)
(1.35168e-05 -3.0096e-05 -1.1002e-19 -1.36383e-05 -4.44849e-20 1.21442e-07)
(8.17449e-06 -3.20554e-05 2.10952e-19 -8.31667e-06 8.28997e-20 1.42172e-07)
(2.49876e-06 -3.30621e-05 -3.68067e-19 -2.65358e-06 -1.50069e-19 1.54819e-07)
(-3.18371e-06 -3.30411e-05 -1.66001e-19 2.99044e-06 -6.85788e-20 1.93272e-07)
(-8.7131e-06 -3.19284e-05 2.04361e-19 8.4999e-06 9.20257e-20 2.13201e-07)
(-1.38794e-05 -2.98402e-05 1.07282e-19 1.36415e-05 4.63661e-20 2.37948e-07)
(-1.85007e-05 -2.68836e-05 -9.54039e-20 1.82305e-05 -4.67434e-20 2.70176e-07)
(-2.24241e-05 -2.30704e-05 -2.74084e-20 2.21815e-05 -1.08186e-20 2.42556e-07)
(2.26205e-05 -1.69051e-05 -2.73638e-20 -2.27155e-05 -8.18305e-21 9.50693e-08)
(1.96572e-05 -2.05706e-05 -1.97954e-20 -1.97653e-05 -9.86618e-21 1.08008e-07)
(1.58465e-05 -2.39401e-05 6.62419e-20 -1.59064e-05 2.35681e-20 5.99313e-08)
(1.16801e-05 -2.64637e-05 1.61353e-20 -1.17767e-05 6.49207e-21 9.66434e-08)
(7.03958e-06 -2.81733e-05 8.19568e-20 -7.15745e-06 3.19564e-20 1.1787e-07)
(2.10372e-06 -2.9047e-05 5.45196e-19 -2.22148e-06 2.15874e-19 1.17757e-07)
(-2.83373e-06 -2.90452e-05 9.74102e-20 2.68974e-06 4.15731e-20 1.43989e-07)
(-7.63993e-06 -2.81304e-05 8.65585e-20 7.46993e-06 2.84597e-20 1.69994e-07)
(-1.21337e-05 -2.6365e-05 -7.1203e-20 1.1948e-05 -2.85797e-20 1.85728e-07)
(-1.61784e-05 -2.38359e-05 -6.17403e-20 1.59729e-05 -2.19579e-20 2.05506e-07)
(-1.96399e-05 -2.06529e-05 -5.30292e-20 1.94137e-05 -2.00656e-20 2.26275e-07)
(1.97198e-05 -1.50325e-05 2.25614e-20 -1.98065e-05 5.11279e-21 8.66747e-08)
(1.70978e-05 -1.82251e-05 7.07678e-20 -1.71885e-05 2.39227e-20 9.07656e-08)
(1.37466e-05 -2.11566e-05 7.24665e-20 -1.38052e-05 2.95498e-20 5.86636e-08)
(1.00986e-05 -2.33408e-05 -1.09196e-19 -1.01842e-05 -3.72982e-20 8.56082e-08)
(6.03969e-06 -2.48156e-05 -1.82704e-19 -6.13297e-06 -6.95314e-20 9.32791e-08)
(1.73471e-06 -2.55875e-05 -1.31158e-19 -1.82976e-06 -5.20513e-20 9.50525e-08)
(-2.56402e-06 -2.55986e-05 -1.22913e-19 2.44507e-06 -4.66949e-20 1.18949e-07)
(-6.75089e-06 -2.48102e-05 -7.69003e-20 6.62151e-06 -3.26506e-20 1.29379e-07)
(-1.06793e-05 -2.33115e-05 1.16715e-19 1.05364e-05 4.68791e-20 1.42953e-07)
(-1.42182e-05 -2.1168e-05 -4.4964e-21 1.40569e-05 -1.55997e-21 1.61287e-07)
(-1.72685e-05 -1.84337e-05 2.43287e-20 1.7091e-05 1.0215e-20 1.77481e-07)
(-1.97631e-05 -1.51775e-05 -5.99951e-20 1.96085e-05 -2.48266e-20 1.54627e-07)
(1.72194e-05 -1.34076e-05 -9.25723e-21 -1.7302e-05 -7.36468e-22 8.25662e-08)
(1.49028e-05 -1.61895e-05 -6.8723e-20 -1.49925e-05 -2.1756e-20 8.97051e-08)
(1.19358e-05 -1.874e-05 -7.87142e-20 -1.19889e-05 -2.78315e-20 5.30789e-08)
(8.72768e-06 -2.06393e-05 -1.4149e-20 -8.80377e-06 -5.8873e-21 7.60868e-08)
(5.17018e-06 -2.19246e-05 6.06621e-20 -5.2567e-06 2.09073e-20 8.6524e-08)
(1.39893e-06 -2.25844e-05 -4.53664e-20 -1.47825e-06 -1.70727e-20 7.93174e-08)
(-2.36012e-06 -2.25912e-05 2.15383e-19 2.26631e-06 7.90338e-20 9.38146e-08)
(-6.0155e-06 -2.19264e-05 -1.57553e-19 5.90675e-06 -5.69171e-20 1.0875e-07)
(-9.44714e-06 -2.0639e-05 -2.53658e-20 9.3302e-06 -1.23182e-20 1.16944e-07)
(-1.25479e-05 -1.87926e-05 -5.62454e-20 1.24238e-05 -1.29594e-20 1.24138e-07)
(-1.52374e-05 -1.64465e-05 5.79051e-20 1.51037e-05 7.88208e-21 1.33655e-07)
(-1.74496e-05 -1.36958e-05 -1.02058e-19 1.73063e-05 -2.51683e-20 1.43318e-07)
(1.50699e-05 -1.19728e-05 -4.26106e-20 -1.51476e-05 -1.38455e-20 7.76465e-08)
(1.30087e-05 -1.44161e-05 3.74332e-20 -1.30888e-05 1.09465e-20 8.01074e-08)
(1.0385e-05 -1.66479e-05 -1.12315e-20 -1.0437e-05 -3.49362e-21 5.20854e-08)
(7.55057e-06 -1.8296e-05 -2.71871e-20 -7.62132e-06 -7.74376e-21 7.07505e-08)
(4.41246e-06 -1.94029e-05 -9.21204e-20 -4.48573e-06 -3.17938e-20 7.32625e-08)
(1.09685e-06 -1.99769e-05 -7.10618e-20 -1.16877e-06 -2.54264e-20 7.19137e-08)
(-2.1956e-06 -1.99817e-05 9.19311e-20 2.10926e-06 3.14708e-20 8.63451e-08)
(-5.39551e-06 -1.93926e-05 5.09875e-20 5.30602e-06 2.02816e-20 8.94908e-08)
(-8.40353e-06 -1.82828e-05 -7.78559e-20 8.30787e-06 -2.6425e-20 9.56577e-08)
(-1.11279e-05 -1.66997e-05 2.62033e-19 1.10217e-05 9.11519e-20 1.062e-07)
(-1.34929e-05 -1.46729e-05 -3.26631e-19 1.33854e-05 -1.13497e-19 1.07536e-07)
(-1.54531e-05 -1.22921e-05 3.31202e-19 1.53367e-05 1.13304e-19 1.16374e-07)
(-1.69454e-05 -9.58595e-06 -2.7737e-19 1.68416e-05 -7.13825e-20 1.03823e-07)
(1.32152e-05 -1.07144e-05 -2.03361e-21 -1.32818e-05 -5.49477e-22 6.65703e-08)
(1.13835e-05 -1.28679e-05 -5.35202e-20 -1.14561e-05 -1.57666e-20 7.26246e-08)
(9.04841e-06 -1.48142e-05 1.07254e-20 -9.09205e-06 1.97501e-21 4.36311e-08)
(6.53559e-06 -1.62494e-05 3.995e-20 -6.59754e-06 1.34785e-20 6.19423e-08)
(3.7631e-06 -1.72131e-05 3.5597e-20 -3.83395e-06 1.18622e-20 7.08521e-08)
(8.35944e-07 -1.76979e-05 1.20668e-19 -9.01096e-07 4.08154e-20 6.51516e-08)
(-2.06105e-06 -1.76921e-05 1.81358e-19 1.98695e-06 5.82689e-20 7.41023e-08)
(-4.86984e-06 -1.71856e-05 8.1832e-20 4.7873e-06 2.49581e-20 8.25357e-08)
(-7.50623e-06 -1.62174e-05 -9.86921e-20 7.42154e-06 -2.8195e-20 8.46892e-08)
(-9.89848e-06 -1.48384e-05 -9.64201e-21 9.81046e-06 -1.07743e-20 8.80241e-08)
(-1.19863e-05 -1.30881e-05 2.24066e-20 1.18944e-05 2.53212e-20 9.18159e-08)
(-1.37204e-05 -1.10275e-05 -8.78873e-20 1.36221e-05 -4.47224e-20 9.82676e-08)
(-1.50579e-05 -8.71857e-06 2.8707e-19 1.4948e-05 1.07015e-19 1.09903e-07)
(1.1605e-05 -9.61061e-06 1.19468e-20 -1.16635e-05 4.76398e-21 5.84372e-08)
(9.96929e-06 -1.15014e-05 -8.85186e-20 -1.00308e-05 -2.6424e-20 6.14662e-08)
(7.89322e-06 -1.32082e-05 8.79954e-20 -7.936e-06 2.65498e-20 4.27775e-08)
(5.66181e-06 -1.4456e-05 -5.12057e-20 -5.71924e-06 -1.44789e-20 5.74324e-08)
(3.19897e-06 -1.52862e-05 -4.94744e-20 -3.25996e-06 -1.61413e-20 6.09983e-08)
(6.10289e-07 -1.57086e-05 1.3068e-19 -6.7106e-07 4.05355e-20 6.07715e-08)
(-1.94329e-06 -1.5698e-05 -1.72775e-19 1.87113e-06 -6.12645e-20 7.21598e-08)
(-4.41391e-06 -1.52403e-05 -5.51259e-20 4.34123e-06 -1.77461e-20 7.26859e-08)
(-6.73387e-06 -1.43952e-05 2.63284e-19 6.65867e-06 8.28156e-20 7.51983e-08)
(-8.83777e-06 -1.32016e-05 -1.01405e-19 8.75624e-06 -3.4203e-20 8.15331e-08)
(-1.06765e-05 -1.16776e-05 3.43852e-19 1.0594e-05 9.99413e-20 8.24199e-08)
(-1.22112e-05 -9.88802e-06 -1.81177e-19 1.21232e-05 -5.31017e-20 8.80551e-08)
(-1.34089e-05 -7.88381e-06 2.13497e-20 1.33084e-05 -2.1948e-20 1.00485e-07)
(-1.42271e-05 -5.67412e-06 3.94618e-20 1.41319e-05 1.11915e-20 9.5176e-08)
(1.01964e-05 -8.63505e-06 3.63632e-20 -1.02519e-05 1.09088e-20 5.54864e-08)
(8.73968e-06 -1.0296e-05 -4.84086e-20 -8.80091e-06 -1.3779e-20 6.12324e-08)
(6.88456e-06 -1.1789e-05 -1.24973e-20 -6.9228e-06 -3.56811e-21 3.82351e-08)
(4.89969e-06 -1.28787e-05 -8.31049e-20 -4.9511e-06 -2.4539e-20 5.14101e-08)
(2.71457e-06 -1.36041e-05 -1.23628e-19 -2.77379e-06 -3.85655e-20 5.922e-08)
(4.19956e-07 -1.39609e-05 1.16184e-19 -4.75436e-07 3.33392e-20 5.54796e-08)
(-1.83828e-06 -1.39406e-05 -2.03856e-19 1.77429e-06 -6.25652e-20 6.39908e-08)
(-4.0175e-06 -1.35411e-05 -9.7223e-20 3.94635e-06 -3.09055e-20 7.11528e-08)
(-6.0595e-06 -1.27947e-05 -2.71059e-19 5.98752e-06 -8.72145e-20 7.19853e-08)
(-7.91167e-06 -1.17436e-05 -7.24683e-20 7.83753e-06 -2.60651e-20 7.41454e-08)
(-9.53519e-06 -1.042e-05 -3.55649e-19 9.45621e-06 -1.22601e-19 7.89763e-08)
(-1.08951e-05 -8.86354e-06 9.38797e-20 1.08095e-05 4.03501e-20 8.55609e-08)
(-1.19592e-05 -7.12058e-06 -4.79121e-19 1.18629e-05 -1.33112e-19 9.62473e-08)
(-1.27142e-05 -5.21466e-06 8.22188e-20 1.26072e-05 3.95068e-20 1.06971e-07)
(8.97051e-06 -7.7604e-06 -2.68924e-20 -9.02479e-06 -7.53024e-21 5.4279e-08)
(7.66025e-06 -9.2307e-06 5.43405e-20 -7.7168e-06 1.53663e-20 5.65515e-08)
(6.00722e-06 -1.05431e-05 1.03356e-20 -6.04542e-06 3.97282e-21 3.81974e-08)
(4.23886e-06 -1.1491e-05 -1.73899e-19 -4.28739e-06 -5.06599e-20 4.85216e-08)
(2.2938e-06 -1.21174e-05 1.96063e-19 -2.34467e-06 5.84808e-20 5.08694e-08)
(2.57966e-07 -1.24282e-05 -2.73067e-19 -3.10435e-07 -8.31176e-20 5.24689e-08)
(-1.73945e-06 -1.24052e-05 2.32912e-19 1.6762e-06 7.22043e-20 6.32476e-08)
(-3.66538e-06 -1.20395e-05 -3.89496e-20 3.60075e-06 -9.38586e-21 6.46218e-08)
(-5.46916e-06 -1.13817e-05 2.09683e-19 5.40159e-06 6.79522e-20 6.75717e-08)
(-7.10302e-06 -1.04644e-05 -1.53128e-19 7.02926e-06 -4.75397e-20 7.37604e-08)
(-8.53411e-06 -9.30281e-06 -1.29235e-19 8.45755e-06 -2.05727e-20 7.65625e-08)
(-9.73998e-06 -7.94565e-06 2.21686e-19 9.65548e-06 6.99955e-20 8.45014e-08)
(-1.06912e-05 -6.4274e-06 3.9323e-19 1.05932e-05 1.31696e-19 9.80266e-08)
(-1.13661e-05 -4.79402e-06 2.69601e-19 1.12481e-05 6.95371e-20 1.17982e-07)
(7.9018e-06 -6.98467e-06 2.7091e-20 -7.95052e-06 7.04172e-21 4.87253e-08)
(6.72273e-06 -8.28787e-06 -2.66316e-20 -6.77643e-06 -6.68354e-21 5.3699e-08)
(5.2393e-06 -9.43636e-06 1.57275e-20 -5.27347e-06 4.84164e-21 3.417e-08)
(3.66145e-06 -1.02655e-05 1.52888e-20 -3.70543e-06 5.23265e-21 4.39791e-08)
(1.93361e-06 -1.08145e-05 -1.33909e-19 -1.98373e-06 -3.82913e-20 5.0125e-08)
(1.24433e-07 -1.10763e-05 -1.46119e-19 -1.73095e-07 -4.16518e-20 4.86615e-08)
(-1.64867e-06 -1.10464e-05 -1.10523e-19 1.59224e-06 -3.304e-20 5.64279e-08)
(-3.35386e-06 -1.07248e-05 -3.23938e-20 3.29031e-06 -5.98509e-21 6.35521e-08)
(-4.94818e-06 -1.0139e-05 9.71266e-21 4.88225e-06 3.52057e-21 6.59297e-08)
(-6.39173e-06 -9.32567e-06 -4.15626e-21 6.32268e-06 3.12011e-21 6.90557e-08)
(-7.65817e-06 -8.31238e-06 2.52951e-19 7.58258e-06 7.56951e-20 7.55881e-08)
(-8.72646e-06 -7.12855e-06 4.72465e-20 8.64266e-06 7.00719e-22 8.38001e-08)
(-9.57338e-06 -5.80599e-06 -9.38576e-20 9.47699e-06 -3.6743e-20 9.63826e-08)
(-1.01928e-05 -4.38249e-06 -6.84355e-20 1.00771e-05 -3.08762e-20 1.1565e-07)
(-1.05672e-05 -2.86682e-06 -3.76031e-19 1.04428e-05 -9.70633e-20 1.24451e-07)
(6.96274e-06 -6.29484e-06 3.51515e-20 -7.01125e-06 8.75706e-21 4.85094e-08)
(5.89671e-06 -7.44601e-06 8.3742e-20 -5.94462e-06 2.32112e-20 4.79054e-08)
(4.56997e-06 -8.45692e-06 -1.25759e-19 -4.60418e-06 -3.41687e-20 3.42058e-08)
(3.16323e-06 -9.18179e-06 1.82379e-19 -3.20478e-06 5.0272e-20 4.15508e-08)
(1.62198e-06 -9.6575e-06 3.07799e-20 -1.66573e-06 9.80477e-21 4.37484e-08)
(1.35046e-08 -9.88685e-06 2.33864e-19 -5.93779e-08 6.80191e-20 4.58733e-08)
(-1.56044e-06 -9.85568e-06 1.78102e-19 1.50551e-06 4.99539e-20 5.49382e-08)
(-3.07249e-06 -9.55835e-06 1.39278e-19 3.0152e-06 4.25663e-20 5.72959e-08)
(-4.48713e-06 -9.03933e-06 2.10579e-19 4.42589e-06 5.61243e-20 6.12443e-08)
(-5.7661e-06 -8.32654e-06 -9.04624e-20 5.69739e-06 -2.71245e-20 6.87158e-08)
(-6.88684e-06 -7.43271e-06 -1.13562e-19 6.81416e-06 -4.18049e-20 7.26785e-08)
(-7.8386e-06 -6.3987e-06 -1.49583e-19 7.75674e-06 -4.20656e-20 8.18579e-08)
(-8.60084e-06 -5.24558e-06 1.77548e-19 8.50881e-06 4.65826e-20 9.20229e-08)
(-9.15882e-06 -4.00342e-06 6.64094e-20 9.05804e-06 1.52051e-20 1.00777e-07)
(-9.52632e-06 -2.68259e-06 1.39994e-19 9.41674e-06 5.99089e-20 1.09588e-07)
(6.14017e-06 -5.67968e-06 -6.8537e-20 -6.18786e-06 -1.67659e-20 4.76901e-08)
(5.17478e-06 -6.70104e-06 -8.59235e-21 -5.22166e-06 -3.01411e-21 4.68767e-08)
(3.98288e-06 -7.58529e-06 2.09857e-19 -4.01331e-06 5.54483e-20 3.04322e-08)
(2.72856e-06 -8.22162e-06 -5.5185e-21 -2.7657e-06 -1.61181e-22 3.71404e-08)
(1.35734e-06 -8.64023e-06 -9.17916e-20 -1.40038e-06 -2.43527e-20 4.30336e-08)
(-7.64053e-08 -8.83306e-06 -3.11105e-20 3.44184e-08 -1.10134e-20 4.19869e-08)
(-1.47822e-06 -8.79623e-06 -2.30347e-19 1.42976e-06 -6.56848e-20 4.84623e-08)
(-2.82168e-06 -8.53345e-06 6.15343e-20 2.76634e-06 1.80945e-20 5.53335e-08)
(-4.07679e-06 -8.06942e-06 -2.70082e-19 4.01833e-06 -7.53446e-20 5.84607e-08)
(-5.21251e-06 -7.43447e-06 5.79105e-20 5.14966e-06 1.42271e-20 6.28555e-08)
(-6.21036e-06 -6.65204e-06 -1.115e-19 6.14061e-06 -2.65927e-20 6.97551e-08)
(-7.05839e-06 -5.74424e-06 -2.02578e-20 6.98202e-06 -1.10976e-21 7.63634e-08)
(-7.74797e-06 -4.73495e-06 -2.33729e-19 7.66438e-06 -7.59408e-20 8.35939e-08)
(-8.26373e-06 -3.64397e-06 -1.23052e-19 8.17455e-06 -2.70328e-20 8.91732e-08)
(-8.60354e-06 -2.50401e-06 1.41152e-19 8.51383e-06 2.60728e-20 8.97135e-08)
(5.42129e-06 -5.12182e-06 1.39086e-20 -5.46632e-06 3.71693e-21 4.50285e-08)
(4.5423e-06 -6.03362e-06 -8.52231e-20 -4.58434e-06 -2.08793e-20 4.20464e-08)
(3.47566e-06 -6.81468e-06 -1.36506e-19 -3.50483e-06 -3.5315e-20 2.91631e-08)
(2.35516e-06 -7.37014e-06 -2.83214e-20 -2.38995e-06 -7.59085e-21 3.47912e-08)
(1.12881e-06 -7.73265e-06 1.28501e-19 -1.16607e-06 3.42024e-20 3.72566e-08)
(-1.50896e-07 -7.90103e-06 -1.45943e-19 1.11556e-07 -3.85547e-20 3.93402e-08)
(-1.39874e-06 -7.86399e-06 -1.32768e-20 1.35167e-06 9.59879e-22 4.70659e-08)
(-2.59492e-06 -7.61967e-06 2.59937e-19 2.54591e-06 6.70154e-20 4.90117e-08)
(-3.71227e-06 -7.20693e-06 1.95672e-19 3.65942e-06 5.48805e-20 5.28479e-08)
(-4.72343e-06 -6.64887e-06 -2.36327e-19 4.66331e-06 -6.50837e-20 6.01197e-08)
(-5.61191e-06 -5.9545e-06 9.13812e-20 5.5478e-06 3.39817e-20 6.41095e-08)
(-6.37377e-06 -5.15561e-06 5.87816e-20 6.30401e-06 1.67287e-20 6.97586e-08)
(-6.99509e-06 -4.26724e-06 -1.75995e-19 6.9207e-06 -3.14636e-20 7.43875e-08)
(-7.46876e-06 -3.30137e-06 1.83497e-19 7.39363e-06 5.00631e-20 7.51286e-08)
(-7.79086e-06 -2.29357e-06 -1.57984e-19 7.71334e-06 -5.05434e-20 7.75171e-08)
(-7.95114e-06 -1.24213e-06 1.39421e-19 7.88099e-06 4.26852e-20 7.01532e-08)
(4.79016e-06 -4.61861e-06 6.47856e-21 -4.8338e-06 1.51723e-21 4.36435e-08)
(3.99214e-06 -5.43933e-06 2.96947e-21 -4.0299e-06 5.69732e-22 3.77599e-08)
(3.03318e-06 -6.12514e-06 -4.26773e-20 -3.05775e-06 -1.10078e-20 2.45621e-08)
(2.03075e-06 -6.61262e-06 3.84445e-20 -2.06108e-06 9.75652e-21 3.03344e-08)
(9.3541e-07 -6.93144e-06 -9.39106e-20 -9.71059e-07 -2.31222e-20 3.56494e-08)
(-2.09772e-07 -7.07152e-06 1.97531e-19 1.7436e-07 5.23371e-20 3.54123e-08)
(-1.32504e-06 -7.03114e-06 1.27827e-19 1.28475e-06 2.95895e-20 4.02824e-08)
(-2.39169e-06 -6.81479e-06 -4.44557e-19 2.3459e-06 -1.21252e-19 4.57916e-08)
(-3.38648e-06 -6.44423e-06 4.31013e-20 3.33781e-06 1.4663e-20 4.8669e-08)
(-4.28809e-06 -5.94401e-06 1.68704e-20 4.23576e-06 8.10816e-21 5.23301e-08)
(-5.08369e-06 -5.33223e-06 2.2437e-19 5.02588e-06 5.46488e-20 5.78156e-08)
(-5.76531e-06 -4.6246e-06 1.45877e-19 5.70369e-06 2.76132e-20 6.16228e-08)
(-6.32775e-06 -3.83795e-06 2.73439e-19 6.26283e-06 7.89154e-20 6.49213e-08)
(-6.76214e-06 -2.9863e-06 -7.96408e-20 6.69584e-06 -2.30638e-20 6.63068e-08)
(-7.05827e-06 -2.08657e-06 -9.39824e-20 6.99107e-06 -1.81512e-20 6.72064e-08)
(-7.2222e-06 -1.16461e-06 2.05933e-19 7.15219e-06 4.43659e-20 7.00126e-08)
(4.24489e-06 -4.17806e-06 1.92026e-20 -4.27853e-06 3.97506e-21 3.36346e-08)
(3.51285e-06 -4.90727e-06 1.1634e-19 -3.54148e-06 2.8115e-20 2.8633e-08)
(2.64954e-06 -5.51286e-06 7.70007e-21 -2.67259e-06 2.44775e-21 2.30532e-08)
(1.75022e-06 -5.93853e-06 1.08496e-19 -1.77778e-06 2.73844e-20 2.75533e-08)
(7.66626e-07 -6.21334e-06 2.12376e-20 -7.96392e-07 5.7485e-21 2.9767e-08)
(-2.58216e-07 -6.33553e-06 -1.01135e-19 2.26412e-07 -2.77951e-20 3.18046e-08)
(-1.25465e-06 -6.29605e-06 -2.19667e-19 1.21677e-06 -5.75318e-20 3.78799e-08)
(-2.20688e-06 -6.09397e-06 -1.94366e-20 2.16781e-06 2.72329e-21 3.90698e-08)
(-3.09616e-06 -5.76225e-06 1.79056e-19 3.05401e-06 4.74099e-20 4.21545e-08)
(-3.90188e-06 -5.32017e-06 -9.70071e-20 3.85368e-06 -2.59099e-20 4.82001e-08)
(-4.61265e-06 -4.77315e-06 -1.62183e-19 4.56174e-06 -4.79735e-20 5.09038e-08)
(-5.22616e-06 -4.1453e-06 -3.60701e-19 5.17166e-06 -9.27083e-20 5.45081e-08)
(-5.73214e-06 -3.44728e-06 1.93853e-19 5.67588e-06 4.44662e-20 5.62581e-08)
(-6.125e-06 -2.69008e-06 2.12109e-19 6.06888e-06 4.53651e-20 5.6112e-08)
(-6.40386e-06 -1.89686e-06 -5.34727e-20 6.34298e-06 -1.27126e-20 6.08852e-08)
(-6.56097e-06 -1.08772e-06 -3.75177e-20 6.49039e-06 -7.63187e-21 7.05766e-08)
(4.24441e-06 -3.1465e-06 -3.09298e-21 -4.2754e-06 -1.01995e-21 3.09863e-08)
(3.76083e-06 -3.78609e-06 6.6129e-21 -3.78671e-06 1.88082e-21 2.58804e-08)
(3.09915e-06 -4.4271e-06 -6.96914e-20 -3.12369e-06 -1.59291e-20 2.45332e-08)
(2.31372e-06 -4.96185e-06 -5.09857e-20 -2.3324e-06 -1.24594e-20 1.8679e-08)
(1.50404e-06 -5.33647e-06 1.29372e-19 -1.52773e-06 3.12865e-20 2.36889e-08)
(6.22833e-07 -5.57743e-06 -1.99374e-19 -6.51042e-07 -4.84024e-20 2.82089e-08)
(-2.96071e-07 -5.678e-06 6.78768e-21 2.68329e-07 2.57217e-21 2.77423e-08)
(-1.1892e-06 -5.63549e-06 -4.9666e-20 1.15752e-06 -8.28451e-21 3.16882e-08)
(-2.04085e-06 -5.45583e-06 1.33432e-19 2.00483e-06 3.30894e-20 3.60128e-08)
(-2.83494e-06 -5.1562e-06 1.05241e-19 2.7967e-06 2.46138e-20 3.82346e-08)
(-3.55541e-06 -4.75689e-06 1.24797e-19 3.51457e-06 3.3243e-20 4.0843e-08)
(-4.19355e-06 -4.27168e-06 7.34754e-21 4.1486e-06 8.21635e-22 4.49483e-08)
(-4.7432e-06 -3.71191e-06 1.29143e-20 4.69624e-06 1.17749e-20 4.6957e-08)
(-5.20082e-06 -3.09145e-06 -3.38975e-20 5.15226e-06 -1.51853e-20 4.85633e-08)
(-5.55978e-06 -2.42209e-06 -2.43067e-19 5.50934e-06 -6.12454e-20 5.04414e-08)
(-5.81277e-06 -1.71755e-06 -1.14765e-20 5.76067e-06 6.07075e-21 5.20991e-08)
(-5.9702e-06 -9.97344e-07 2.34563e-19 5.90997e-06 4.9421e-20 6.02362e-08)
(-6.02487e-06 -2.70338e-07 2.51972e-20 5.95985e-06 -2.43694e-21 6.50196e-08)
(3.77181e-06 -2.85764e-06 8.80929e-21 -3.79785e-06 2.06875e-21 2.60394e-08)
(3.32641e-06 -3.42491e-06 -4.57861e-20 -3.34921e-06 -1.00201e-20 2.27912e-08)
(2.72931e-06 -3.99512e-06 -5.56947e-20 -2.7489e-06 -1.31317e-20 1.95871e-08)
(2.02171e-06 -4.46986e-06 4.495e-20 -2.03867e-06 1.04863e-20 1.69584e-08)
(1.29145e-06 -4.79806e-06 -8.78542e-20 -1.313e-06 -2.04431e-20 2.15527e-08)
(4.98097e-07 -5.00545e-06 1.3543e-19 -5.21153e-07 3.31636e-20 2.30561e-08)
(-3.26389e-07 -5.09216e-06 7.92405e-20 3.01759e-07 2.00961e-20 2.46304e-08)
(-1.12582e-06 -5.05099e-06 2.33933e-19 1.09628e-06 5.6972e-20 2.95411e-08)
(-1.88832e-06 -4.88186e-06 -1.97996e-19 1.8581e-06 -5.00646e-20 3.0226e-08)
(-2.60028e-06 -4.61198e-06 -1.48515e-20 2.56807e-06 -4.09383e-21 3.22099e-08)
(-3.24597e-06 -4.25701e-06 9.46426e-20 3.209e-06 1.67203e-20 3.69728e-08)
(-3.81734e-06 -3.82007e-06 -2.00252e-19 3.77868e-06 -4.60616e-20 3.86585e-08)
(-4.31316e-06 -3.3207e-06 2.59802e-20 4.27231e-06 7.77927e-21 4.08481e-08)
(-4.72471e-06 -2.76732e-06 9.51712e-21 4.68302e-06 5.31424e-21 4.16902e-08)
(-5.05046e-06 -2.17114e-06 1.50482e-19 5.00851e-06 4.00697e-20 4.19427e-08)
(-5.2912e-06 -1.54744e-06 1.30539e-19 5.24523e-06 2.01053e-20 4.59774e-08)
(-5.43987e-06 -9.08334e-07 -2.27015e-19 5.39128e-06 -5.68007e-20 4.85866e-08)
(-5.50678e-06 -2.55691e-07 -1.27179e-19 5.454e-06 -1.74334e-20 5.27853e-08)
(3.34963e-06 -2.59686e-06 -2.28172e-21 -3.37016e-06 -1.11122e-21 2.05299e-08)
(2.94488e-06 -3.09965e-06 4.52374e-21 -2.964e-06 8.07893e-22 1.91188e-08)
(2.40507e-06 -3.60628e-06 2.01323e-20 -2.42273e-06 4.33646e-21 1.76673e-08)
(1.76401e-06 -4.02567e-06 1.47677e-19 -1.77753e-06 3.40948e-20 1.35172e-08)
(1.10514e-06 -4.31537e-06 4.05238e-20 -1.12332e-06 9.42751e-21 1.81853e-08)
(3.92759e-07 -4.49757e-06 5.58971e-20 -4.143e-07 1.21047e-20 2.15409e-08)
(-3.48383e-07 -4.56701e-06 -3.37932e-20 3.27126e-07 -8.54576e-21 2.12573e-08)
(-1.06662e-06 -4.52393e-06 3.91574e-20 1.04268e-06 1.15277e-20 2.39397e-08)
(-1.75036e-06 -4.37262e-06 1.06507e-20 1.72313e-06 4.34922e-21 2.72339e-08)
(-2.38768e-06 -4.12741e-06 -6.11226e-20 2.35905e-06 -1.71722e-20 2.86288e-08)
(-2.96625e-06 -3.80413e-06 -1.82668e-19 2.93588e-06 -4.40481e-20 3.03716e-08)
(-3.48027e-06 -3.41441e-06 1.76106e-19 3.4471e-06 4.81705e-20 3.31651e-08)
(-3.92508e-06 -2.9665e-06 -2.24378e-20 3.89072e-06 -3.75832e-21 3.43647e-08)
(-4.2989e-06 -2.47199e-06 9.34444e-20 4.2633e-06 1.61786e-20 3.55992e-08)
(-4.59644e-06 -1.94094e-06 -1.23068e-19 4.55953e-06 -3.32915e-20 3.69095e-08)
(-4.81824e-06 -1.3825e-06 -2.60874e-19 4.78046e-06 -6.78864e-20 3.77794e-08)
(-4.96496e-06 -8.07309e-07 1.53804e-19 4.9251e-06 4.39075e-20 3.98555e-08)
(-5.03775e-06 -2.30409e-07 3.0357e-19 4.99761e-06 6.69203e-20 4.01392e-08)
(2.97439e-06 -2.36012e-06 -4.51705e-21 -2.99398e-06 -6.95178e-22 1.95966e-08)
(2.60627e-06 -2.80584e-06 4.29178e-20 -2.62319e-06 9.22979e-21 1.69272e-08)
(2.11667e-06 -3.25606e-06 3.52079e-20 -2.13075e-06 8.06165e-21 1.40802e-08)
(1.53851e-06 -3.62852e-06 -7.05655e-20 -1.55103e-06 -1.5469e-20 1.25155e-08)
(9.44277e-07 -3.88304e-06 -8.63948e-20 -9.60418e-07 -2.0356e-20 1.61411e-08)
(3.0131e-07 -4.03891e-06 -1.90219e-19 -3.18638e-07 -4.32729e-20 1.73288e-08)
(-3.64954e-07 -4.09819e-06 -5.89486e-20 3.46551e-07 -1.12187e-20 1.84028e-08)
(-1.00945e-06 -4.05625e-06 4.66823e-19 9.87294e-07 1.07663e-19 2.21591e-08)
(-1.62274e-06 -3.91266e-06 4.65016e-20 1.60041e-06 6.039e-21 2.23316e-08)
(-2.19539e-06 -3.69008e-06 -6.34108e-20 2.17171e-06 -1.56782e-20 2.36722e-08)
(-2.71496e-06 -3.40113e-06 -3.61624e-20 2.68779e-06 -3.15084e-21 2.71684e-08)
(-3.17559e-06 -3.04786e-06 1.03964e-19 3.14754e-06 1.83498e-20 2.8057e-08)
(-3.5773e-06 -2.64579e-06 9.21665e-20 3.54782e-06 1.97136e-20 2.9479e-08)
(-3.9135e-06 -2.20234e-06 -1.72982e-19 3.88351e-06 -4.51259e-20 2.99925e-08)
(-4.18462e-06 -1.72473e-06 6.38801e-20 4.15426e-06 1.6705e-20 3.03682e-08)
(-4.39248e-06 -1.22595e-06 -1.78821e-19 4.36002e-06 -3.22626e-20 3.24672e-08)
(-4.53296e-06 -7.0626e-07 -4.9943e-20 4.50029e-06 -6.6497e-21 3.26651e-08)
(-4.60658e-06 -1.8317e-07 -1.63814e-19 4.57304e-06 -3.3787e-20 3.35362e-08)
(-4.61447e-06 3.41831e-07 1.50628e-19 4.58454e-06 9.37323e-21 2.99306e-08)
(2.63974e-06 -2.14338e-06 -1.17538e-20 -2.65652e-06 -2.45259e-21 1.67838e-08)
(2.30618e-06 -2.54256e-06 -2.59663e-20 -2.3212e-06 -5.59942e-21 1.50123e-08)
(1.8634e-06 -2.94175e-06 4.80837e-20 -1.87652e-06 1.04466e-20 1.31196e-08)
(1.33921e-06 -3.27026e-06 5.07286e-20 -1.34914e-06 1.1305e-20 9.93316e-09)
(8.0263e-07 -3.49483e-06 8.89668e-20 -8.16044e-07 1.98389e-20 1.34143e-08)
(2.24243e-07 -3.63102e-06 1.91857e-19 -2.4057e-07 4.44611e-20 1.63269e-08)
(-3.75323e-07 -3.67706e-06 3.58924e-20 3.59769e-07 4.62093e-21 1.55546e-08)
(-9.55545e-07 -3.63305e-06 -1.32709e-19 9.37964e-07 -3.44725e-20 1.75815e-08)
(-1.50652e-06 -3.50365e-06 -1.89545e-19 1.48639e-06 -4.43546e-20 2.01247e-08)
(-2.01984e-06 -3.29991e-06 -7.28169e-20 1.99888e-06 -1.01375e-20 2.09667e-08)
(-2.48605e-06 -3.03499e-06 7.58712e-20 2.46414e-06 1.54185e-20 2.1905e-08)
(-2.90077e-06 -2.71802e-06 -2.36203e-19 2.877e-06 -5.50429e-20 2.37685e-08)
(-3.26128e-06 -2.3553e-06 -9.61127e-22 3.23684e-06 -1.42513e-21 2.44352e-08)
(-3.56635e-06 -1.95631e-06 -1.47803e-19 3.54099e-06 -2.72661e-20 2.536e-08)
(-3.81327e-06 -1.52809e-06 -4.08205e-20 3.78724e-06 -1.42675e-20 2.6035e-08)
(-4.0024e-06 -1.07584e-06 3.27421e-20 3.9765e-06 1.08501e-20 2.59011e-08)
(-4.1366e-06 -6.0896e-07 2.71393e-19 4.10926e-06 6.51682e-20 2.73336e-08)
(-4.21028e-06 -1.32844e-07 3.18895e-19 4.18078e-06 6.65569e-20 2.95041e-08)
(-4.2273e-06 3.43012e-07 -2.05984e-19 4.19957e-06 -4.18853e-20 2.77221e-08)
(2.34608e-06 -1.94839e-06 2.27591e-21 -2.36111e-06 1.9679e-22 1.50306e-08)
(2.04112e-06 -2.30452e-06 1.84513e-20 -2.05397e-06 4.05089e-21 1.28437e-08)
(1.63839e-06 -2.65869e-06 -9.45894e-20 -1.64889e-06 -1.98142e-20 1.05021e-08)
(1.16525e-06 -2.95034e-06 6.24693e-20 -1.17436e-06 1.29965e-20 9.11266e-09)
(6.80095e-07 -3.14656e-06 -1.53894e-19 -6.92293e-07 -3.31085e-20 1.2198e-08)
(1.57441e-07 -3.26232e-06 1.39543e-19 -1.70409e-07 2.84519e-20 1.2968e-08)
(-3.8267e-07 -3.30017e-06 -5.08789e-19 3.69084e-07 -1.13141e-19 1.35867e-08)
(-9.03798e-07 -3.25733e-06 3.03608e-20 8.87358e-07 9.04793e-21 1.64401e-08)
(-1.39868e-06 -3.13356e-06 -5.7908e-20 1.38233e-06 -9.3414e-21 1.63404e-08)
(-1.8604e-06 -2.94744e-06 3.77441e-19 1.84349e-06 8.15415e-20 1.69128e-08)
(-2.27938e-06 -2.70924e-06 -1.12935e-19 2.26e-06 -2.8133e-20 1.93805e-08)
(-2.65107e-06 -2.42017e-06 2.58509e-20 2.63136e-06 1.03995e-20 1.97054e-08)
(-2.97631e-06 -2.09291e-06 -2.17533e-21 2.95594e-06 2.16905e-21 2.03666e-08)
(-3.25038e-06 -1.73278e-06 1.06551e-19 3.22969e-06 2.8456e-20 2.06841e-08)
(-3.4742e-06 -1.34497e-06 -2.11345e-19 3.45386e-06 -4.79118e-20 2.03343e-08)
(-3.64913e-06 -9.38835e-07 -9.60331e-20 3.6271e-06 -1.56938e-20 2.20273e-08)
(-3.77136e-06 -5.15702e-07 1.20536e-19 3.74868e-06 1.80842e-20 2.26781e-08)
(-3.8451e-06 -8.25833e-08 -1.41207e-19 3.82123e-06 -4.20511e-20 2.38767e-08)
(-3.86715e-06 3.49599e-07 2.1129e-19 3.84106e-06 4.44606e-20 2.60979e-08)
(2.08352e-06 -1.77338e-06 -5.67128e-21 -2.09562e-06 -1.0226e-21 1.20916e-08)
(1.80582e-06 -2.09e-06 -4.97165e-20 -1.81702e-06 -1.02429e-20 1.11991e-08)
(1.44119e-06 -2.40461e-06 5.62905e-20 -1.45101e-06 1.17017e-20 9.82522e-09)
(1.01131e-06 -2.66115e-06 -1.068e-19 -1.01851e-06 -2.22601e-20 7.19693e-09)
(5.72369e-07 -2.83381e-06 1.96679e-19 -5.82522e-07 4.17257e-20 1.01526e-08)
(1.01594e-07 -2.93457e-06 -2.40772e-20 -1.13819e-07 -6.37103e-21 1.22246e-08)
(-3.85344e-07 -2.96158e-06 4.23454e-20 3.7382e-07 1.2081e-20 1.15242e-08)
(-8.55e-07 -2.91722e-06 3.35857e-20 8.42272e-07 8.01054e-21 1.27287e-08)
(-1.30017e-06 -2.80465e-06 -6.34517e-20 1.28568e-06 -1.49991e-20 1.4492e-08)
(-1.71432e-06 -2.63315e-06 -2.35878e-19 1.69949e-06 -5.14876e-20 1.48292e-08)
(-2.09033e-06 -2.41307e-06 -3.04124e-20 2.07517e-06 -5.92953e-21 1.51592e-08)
(-2.42499e-06 -2.15211e-06 1.94344e-20 2.4087e-06 6.72472e-21 1.62961e-08)