/*--------------------------------*- C++ -*----------------------------------*\
| =========                 |                                                 |
| \\      /  F ield         | OpenFOAM: The Open Source CFD Toolbox           |
|  \\    /   O peration     | Version:  2306                                  |
|   \\  /    A nd           | Website:  www.openfoam.com                      |
|    \\/     M anipulation  |                                                 |
\*---------------------------------------------------------------------------*/
FoamFile
{
    version     2.0;
    format      ascii;
    arch        "LSB;label=32;scalar=64";
    class       volScalarField;
    location    "75";
    object      div(phi);
}
// * * * * * * * * * * * * * * * * * * * * * * * * * * * * * * * * * * * * * //

dimensions      [0 0 -1 0 0 0 0];

internalField   nonuniform List<scalar> 
1340
(
0.000368739
0.000416213
0.000140252
0.000278126
6.2087e-05
0.000173069
0.000251421
8.39396e-05
0.000233299
0.000226378
6.04715e-05
6.97006e-05
0.000228427
0.000327659
-0.000137815
0.000252626
-2.18008e-08
0.00013707
0.000174427
9.70284e-05
8.22238e-05
0.000331933
-0.000293182
9.15387e-05
0.000165191
2.9718e-05
6.43532e-05
0.000200748
0.000206167
-7.5342e-05
0.00020027
-4.40994e-06
0.000151134
-3.83466e-05
0.000118373
0.000148813
7.70766e-05
4.69417e-05
0.00020069
-4.28365e-05
3.58581e-06
4.24981e-05
0.000130576
1.89733e-05
4.74404e-05
0.000171461
0.000158444
-9.16985e-05
9.11892e-05
0.000112423
-4.78653e-05
0.000121107
-3.81421e-05
9.07777e-05
0.00012799
5.76845e-05
2.78033e-05
0.000166736
-7.05042e-05
-3.004e-05
0.000174373
3.18949e-05
1.5252e-05
9.42103e-05
8.45144e-06
4.3573e-05
0.000138327
0.000134247
-9.23564e-05
6.29641e-05
5.22343e-05
-4.29598e-05
8.64623e-05
7.14084e-05
-4.15813e-05
7.59681e-05
0.000100954
4.71085e-05
1.37972e-05
0.000135337
-6.69739e-05
-5.0128e-05
9.0363e-05
4.59958e-05
7.38196e-05
5.01848e-06
7.33496e-05
6.37831e-06
3.29672e-05
0.000113382
0.000105261
-8.25913e-05
4.51356e-05
3.49707e-05
-6.13596e-05
1.87802e-05
2.73786e-05
5.9223e-05
-3.29746e-05
5.70459e-05
8.27414e-05
3.8054e-05
8.65821e-06
0.000114084
-6.24674e-05
-6.62113e-05
6.49072e-05
-1.54783e-05
2.4712e-06
2.639e-05
-2.78052e-06
5.19779e-05
1.71667e-06
3.06894e-05
8.93642e-05
9.18925e-05
-7.72715e-05
3.06709e-05
2.50442e-05
-9.92527e-05
-9.4629e-06
-2.31244e-06
-3.75918e-05
3.44446e-05
-3.07651e-05
4.63581e-05
6.3475e-05
3.27425e-05
1.80078e-06
9.38918e-05
-6.08743e-05
-8.63916e-05
4.09931e-05
-3.93656e-05
-3.66224e-05
8.34162e-05
-0.000197641
-6.05019e-06
3.90621e-05
1.19709e-06
2.29547e-05
7.13535e-05
7.24399e-05
-7.12831e-05
1.53139e-05
1.77106e-05
-0.000115147
-2.81502e-05
1.48746e-05
-8.60612e-05
0.000171489
2.91357e-05
-2.36497e-05
3.34103e-05
5.05636e-05
2.62422e-05
-3.01663e-06
7.69249e-05
-5.76529e-05
-9.28549e-05
2.49046e-05
-3.58213e-05
-3.96965e-05
0.000104716
-0.000103465
-1.06632e-05
2.56777e-05
-9.40264e-07
1.98977e-05
5.403e-05
6.06771e-05
-6.72628e-05
5.39027e-06
8.51162e-06
-0.000104235
-2.36424e-05
2.42346e-05
-4.72609e-05
0.000233773
-4.97529e-06
1.78648e-05
-2.04389e-05
2.52121e-05
3.78434e-05
2.12149e-05
-7.8443e-06
5.82445e-05
-5.44723e-05
-8.3038e-05
1.76472e-05
-2.82816e-05
-1.66526e-05
0.000106816
-2.5351e-05
0.000200174
-1.11198e-05
1.73939e-05
-2.33676e-07
1.39405e-05
4.11666e-05
4.41418e-05
-5.97417e-05
-8.88273e-07
2.63827e-06
-8.27413e-05
-1.34057e-05
3.10052e-05
-2.13822e-05
0.000177331
-6.64246e-05
1.21015e-05
-1.37268e-05
1.70435e-05
2.96886e-05
1.56384e-05
-9.67984e-06
4.27372e-05
-4.82211e-05
-6.79912e-05
1.14437e-05
-1.46605e-05
-2.90378e-06
0.000102673
-4.8418e-05
0.000146986
-0.000172975
-7.52968e-06
1.13062e-05
4.53329e-07
1.16228e-05
2.99639e-05
3.36968e-05
-5.14206e-05
-5.13335e-06
-3.55509e-06
-6.17795e-05
-6.80252e-06
3.58469e-05
-1.36398e-05
0.000141267
-8.6426e-05
7.13427e-05
5.754e-06
-9.98758e-06
1.28373e-05
2.23756e-05
1.2282e-05
-1.04552e-05
2.83109e-05
-4.19706e-05
-5.39865e-05
6.08524e-06
-7.33862e-06
1.69326e-06
8.8113e-05
-5.5993e-05
0.00010503
-0.000111761
5.11087e-06
-5.29457e-06
7.21556e-06
1.60236e-06
8.54283e-06
2.20328e-05
2.25205e-05
-4.22625e-05
-8.1892e-06
-7.33093e-06
-4.57516e-05
-3.75182e-06
3.24329e-05
-1.45587e-05
0.000108863
-8.23967e-05
8.56582e-05
-0.000119478
-3.23356e-07
1.09134e-06
-6.79267e-06
8.63673e-06
1.75436e-05
9.12309e-06
-9.64831e-06
1.80045e-05
-3.50704e-05
-4.23585e-05
1.19914e-06
-3.61159e-06
4.49424e-07
6.83912e-05
-4.91493e-05
8.33215e-05
-8.16884e-05
5.46062e-05
-2.07869e-06
-5.09627e-06
3.60187e-06
1.97964e-06
7.15809e-06
1.55866e-05
1.62856e-05
-3.38484e-05
-9.97259e-06
-1.0015e-05
-3.38015e-05
-3.71999e-06
2.59666e-05
-1.35633e-05
8.14342e-05
-6.92641e-05
5.63912e-05
-9.68075e-05
-1.29346e-06
-1.35029e-06
-5.3065e-06
5.92788e-06
1.30947e-05
7.67835e-06
-8.43429e-06
9.94509e-06
-2.88414e-05
-3.3124e-05
-2.55841e-06
-2.89519e-06
-3.17109e-07
5.11495e-05
-3.52178e-05
6.39984e-05
-7.53239e-05
3.0965e-05
-0.000111249
-2.67717e-06
-5.14703e-06
1.05453e-06
2.05009e-06
5.49301e-06
1.10821e-05
1.05018e-05
-2.6134e-05
-1.07199e-05
-1.09254e-05
-2.51558e-05
-4.03566e-06
1.96017e-05
-9.94749e-06
5.95429e-05
-4.97147e-05
3.89002e-05
-5.56875e-05
1.88273e-06
-2.59729e-06
-2.85798e-06
-3.99104e-06
3.32476e-06
9.9992e-06
6.21953e-06
-6.79539e-06
4.81138e-06
-2.29207e-05
-2.57629e-05
-5.10157e-06
-2.39257e-06
-1.25323e-06
3.78231e-05
-2.50811e-05
4.83679e-05
-5.60404e-05
1.59485e-05
-7.19437e-05
-3.79411e-06
-5.00961e-06
-1.01206e-06
1.96085e-06
4.50852e-06
7.65381e-06
7.54917e-06
-1.96267e-05
-1.06097e-05
-1.10344e-05
-1.87085e-05
-4.572e-06
1.44975e-05
-7.24735e-06
4.29653e-05
-3.50707e-05
3.14846e-05
-6.34872e-05
1.10782e-05
-3.21375e-06
-3.67278e-06
-3.15286e-06
1.61372e-06
7.39762e-06
5.76748e-06
-5.21616e-06
1.32585e-06
-1.79765e-05
-2.00475e-05
-6.52142e-06
-2.37985e-06
-1.70716e-06
2.75445e-05
-1.60452e-05
3.53773e-05
-4.58565e-05
1.10065e-05
-5.69819e-05
-3.12672e-06
-4.7353e-06
-2.28762e-06
1.81134e-06
3.71032e-06
5.29906e-06
5.08214e-06
-1.43103e-05
-1.00106e-05
-1.03714e-05
-1.39474e-05
-4.78238e-06
1.06377e-05
-4.60485e-06
3.11901e-05
-2.53445e-05
2.02803e-05
-4.47682e-05
4.01552e-06
-5.10226e-05
-3.74305e-06
-3.97649e-06
-2.32852e-06
3.22454e-07
5.65165e-06
5.18036e-06
-3.77218e-06
-6.73939e-07
-1.37512e-05
-1.55136e-05
-7.09355e-06
-2.09624e-06
-2.0563e-06
2.05521e-05
-1.07005e-05
2.47953e-05
-3.07923e-05
5.29944e-06
-2.50952e-05
-4.24304e-06
-3.07652e-06
-4.30867e-06
-3.10576e-06
1.83081e-06
3.13443e-06
3.65841e-06
3.87688e-06
-1.00644e-05
-9.06641e-06
-9.38436e-06
-1.03363e-05
-4.74856e-06
7.94753e-06
-3.16554e-06
2.27403e-05
-1.58498e-05
1.65039e-05
-2.7091e-05
3.37593e-06
-2.42208e-05
-3.75864e-06
-4.05889e-06
-1.67772e-06
-4.85755e-07
4.3163e-06
5.07939e-06
-2.50082e-06
-1.74381e-06
-1.03505e-05
-1.19993e-05
-7.00552e-06
-1.85318e-06
-2.17376e-06
1.52806e-05
-5.64945e-06
2.00888e-05
-1.81721e-05
1.24671e-05
-2.21591e-05
5.21464e-06
-2.51474e-06
-3.87388e-06
-3.4919e-06
1.74054e-06
2.83476e-06
2.53182e-06
3.02545e-06
-6.83365e-06
-7.9591e-06
-8.15907e-06
-7.65845e-06
-4.47981e-06
6.00654e-06
-1.72015e-06
1.77937e-05
-9.18254e-06
1.82094e-05
-1.97631e-05
1.20745e-05
-2.66519e-05
-3.81846e-06
-3.88365e-06
-1.14232e-06
-9.3124e-07
3.40644e-06
4.80308e-06
-1.51776e-06
-2.14969e-06
-7.63915e-06
-9.23684e-06
-6.42763e-06
-1.486e-06
-2.08195e-06
1.1942e-05
-2.84504e-06
1.80789e-05
-1.29697e-05
1.7789e-05
-2.06969e-05
1.19151e-05
-4.01771e-05
-2.27396e-06
-3.40778e-06
-3.59613e-06
1.80624e-06
2.50104e-06
1.82837e-06
2.60562e-06
-4.39661e-06
-6.73024e-06
-6.78391e-06
-5.71588e-06
-3.98427e-06
4.76804e-06
-9.56354e-07
1.4567e-05
-5.60036e-06
1.85191e-05
-1.55754e-05
1.90661e-05
-1.93327e-05
6.08861e-06
-3.57272e-06
-3.69683e-06
-6.99839e-07
-1.18728e-06
2.75534e-06
4.68252e-06
-7.06334e-07
-2.02403e-06
-5.49927e-06
-7.16654e-06
-5.50491e-06
-1.1403e-06
-1.88939e-06
9.6335e-06
-9.63815e-07
1.60229e-05
-9.3202e-06
2.14449e-05
-1.89402e-05
1.57661e-05
-3.7263e-05
-1.98242e-06
-3.00495e-06
-3.51653e-06
1.70891e-06
2.37382e-06
1.33845e-06
2.44354e-06
-2.70819e-06
-5.51854e-06
-5.41105e-06
-4.36868e-06
-3.4347e-06
3.98812e-06
-3.68538e-07
1.24181e-05
-3.64203e-06
1.79102e-05
-1.46652e-05
2.21517e-05
-2.87932e-05
1.80994e-05
-3.4628e-06
-3.36009e-06
-4.05655e-07
-1.19758e-06
2.27525e-06
4.42343e-06
-1.90268e-07
-1.6816e-06
-3.93763e-06
-5.61632e-06
-4.46044e-06
-7.85562e-07
-1.61841e-06
8.20143e-06
-3.57889e-07
1.40934e-05
-8.4127e-06
1.94267e-05
-2.12734e-05
1.92477e-05
-3.1602e-05
-1.75612e-06
-2.61612e-06
-3.27084e-06
1.71611e-06
2.14022e-06
1.08235e-06
2.31089e-06
-1.58089e-06
-4.36907e-06
-4.10906e-06
-3.4504e-06
-2.80795e-06
3.51476e-06
-1.80125e-07
1.06165e-05
-2.92011e-06
1.48451e-05
-1.37821e-05
1.87273e-05
-2.40136e-05
1.45202e-05
-3.2186e-05
-3.15745e-06
-3.07727e-06
-1.57665e-07
-1.15489e-06
1.95414e-06
4.14332e-06
1.90291e-07
-1.14862e-06
-2.75721e-06
-4.47932e-06
-3.40046e-06
-4.75274e-07
-1.33137e-06
7.02244e-06
-8.57911e-08
1.17247e-05
-7.2332e-06
1.50689e-05
-1.93708e-05
1.40132e-05
-1.8286e-05
2.01276e-06
-1.63339e-06
-2.29302e-06
-2.96537e-06
1.57611e-06
2.01268e-06
8.9694e-07
2.3012e-06
-9.07001e-07
-3.35071e-06
-2.99653e-06
-2.79959e-06
-2.22789e-06
3.1688e-06
-2.53224e-08
8.96147e-06
-2.3809e-06
1.17405e-05
-1.24128e-05
1.42877e-05
-2.29037e-05
8.10434e-06
-1.95228e-05
-2.96984e-06
-2.70409e-06
-4.32677e-08
-9.826e-07
1.67612e-06
3.7809e-06
3.48935e-07
-6.53901e-07
-1.98529e-06
-3.60304e-06
-2.4651e-06
-1.9599e-07
-9.94158e-07
6.02558e-06
-1.40655e-08
9.31715e-06
-6.31196e-06
1.07181e-05
-1.7616e-05
9.92473e-06
-1.75588e-05
7.85745e-06
-1.4381e-06
-1.98931e-06
-2.57342e-06
1.49387e-06
1.78879e-06
8.08793e-07
2.17431e-06
-5.51334e-07
-2.47028e-06
-2.07843e-06
-2.29418e-06
-1.64088e-06
2.88363e-06
1.34094e-07
7.23147e-06
-1.87938e-06
8.32879e-06
-1.07302e-05
8.28435e-06
-1.8315e-05
3.71458e-06
-1.26938e-05
-2.65521e-06
-2.40014e-06
5.19418e-08
-8.28388e-07
1.48129e-06
3.34628e-06
4.29039e-07
-1.85782e-07
-1.4035e-06
-2.89524e-06
-1.66387e-06
5.93732e-08
-6.26345e-07
5.06245e-06
2.51945e-07
6.93012e-06
-4.95319e-06
6.29248e-06
-1.40322e-05
3.24796e-06
-1.226e-05
4.10546e-06
-1.37995e-06
-1.73143e-06
-2.19549e-06
1.31108e-06
1.5956e-06
7.13681e-07
2.07716e-06
-3.69438e-07
-1.75352e-06
-1.37524e-06
-1.83602e-06
-1.13335e-06
2.6547e-06
4.13865e-07
5.8437e-06
-1.15464e-06
5.4826e-06
-8.10015e-06
2.86555e-06
-1.28854e-05
-2.36799e-07
-5.25622e-06
-2.41183e-06
-2.05767e-06
4.81279e-08
-6.39383e-07
1.26318e-06
2.90297e-06
3.93012e-07
1.50468e-07
-1.04303e-06
-2.28656e-06
-1.04959e-06
2.99993e-07
-2.33003e-07
4.42635e-06
4.73648e-07
5.32912e-06
-3.60383e-06
3.19935e-06
-9.87943e-06
-2.36608e-07
-9.60107e-06
9.02742e-07
-3.16856e-06
-1.22672e-06
-1.49815e-06
-1.79508e-06
1.14587e-06
1.36984e-06
6.41614e-07
1.86786e-06
-3.15361e-07
-1.17336e-06
-8.57589e-07
-1.4144e-06
-6.60941e-07
2.53794e-06
5.41959e-07
5.01922e-06
-8.10327e-07
3.8934e-06
-5.77494e-06
7.5379e-07
-9.65985e-06
-1.75689e-06
-5.56974e-06
2.87472e-06
-2.11096e-06
-1.78355e-06
3.04756e-08
-4.70534e-07
1.08817e-06
2.40401e-06
3.49075e-07
4.03066e-07
-7.52805e-07
-1.75072e-06
-5.52395e-07
5.23444e-07
2.9761e-08
4.0252e-06
3.95285e-07
4.50241e-06
-2.68104e-06
2.15289e-06
-6.69093e-06
-1.42533e-06
-7.16352e-06
-1.1199e-06
-2.1107e-06
-1.19321e-06
-1.30699e-06
-1.43172e-06
9.30794e-07
1.15068e-06
5.82038e-07
1.66899e-06
-2.90443e-07
-7.0069e-07
-4.66387e-07
-1.03038e-06
-2.94381e-07
2.42734e-06
5.4215e-07
4.50111e-06
-7.00994e-07
3.31572e-06
-4.14437e-06
2.71916e-07
-6.63486e-06
-2.28002e-06
-3.67508e-06
1.99034e-06
-1.8737e-06
-1.49567e-06
-4.59108e-08
-2.93535e-07
8.98522e-07
1.95361e-06
2.72518e-07
6.03917e-07
-5.85693e-07
-1.28768e-06
-1.67949e-07
6.63041e-07
2.36627e-07
3.6467e-06
2.21182e-07
3.97685e-06
-2.1371e-06
1.74916e-06
-4.72829e-06
-1.86062e-06
-4.83426e-06
-9.64334e-07
-4.93015e-07
-1.07982e-06
-1.15038e-06
-1.06664e-06
7.14491e-07
9.59782e-07
5.4657e-07
1.46091e-06
-3.40372e-07
-2.99241e-07
-1.82546e-07
-7.37903e-07
1.65176e-08
2.24876e-06
4.73358e-07
3.89401e-06
-6.91441e-07
2.78586e-06
-3.02472e-06
-1.62693e-07
-4.93017e-06
-1.57533e-06
-2.47235e-06
3.29688e-06
-1.6675e-06
-1.24813e-06
-1.10738e-07
-1.16968e-07
7.49571e-07
1.5098e-06
1.95064e-07
7.51725e-07
-4.67321e-07
-9.13535e-07
1.41777e-07
7.12375e-07
3.51877e-07
3.10667e-06
1.99009e-07
3.25947e-06
-1.44924e-06
1.26318e-06
-3.61262e-06
-1.05053e-06
-3.63446e-06
2.12086e-06
-2.56316e-06
-1.04344e-06
-1.07863e-06
-7.83019e-07
5.13662e-07
7.61418e-07
4.93906e-07
1.25881e-06
-3.82239e-07
-1.44166e-08
2.8279e-08
-5.2886e-07
2.26319e-07
1.96721e-06
5.60492e-07
3.20539e-06
-2.20113e-07
2.30048e-06
-2.21764e-06
3.37103e-07
-4.18608e-06
2.03249e-06
-4.57021e-06
7.34974e-06
-1.49345e-06
-9.91151e-07
-1.46555e-07
-5.19755e-09
6.01412e-07
1.16727e-06
8.24687e-08
8.0171e-07
-3.69072e-07
-6.55514e-07
3.41262e-07
7.12475e-07
4.85619e-07
2.6436e-06
4.13379e-07
2.88005e-06
-9.62383e-07
1.35337e-06
-3.10926e-06
7.68231e-07
-3.29975e-06
1.60852e-06
-4.64631e-06
7.43829e-06
-9.07792e-07
-8.50419e-07
-4.88814e-07
3.96703e-07
5.80406e-07
3.52016e-07
1.05702e-06
-3.89769e-07
1.20176e-07
2.59623e-07
-2.20504e-07
4.01705e-07
1.76797e-06
5.38134e-07
2.91861e-06
-2.02981e-07
2.22291e-06
-1.95201e-06
5.24528e-07
-2.37491e-06
7.53285e-08
-1.18438e-06
-9.55556e-07
6.45293e-07
-1.14883e-06
-7.1128e-07
-5.62171e-08
8.42813e-08
5.09317e-07
8.8514e-07
-2.59251e-09
7.37246e-07
-1.24194e-07
-3.48061e-07
4.84458e-07
8.04185e-07
4.43106e-07
2.35159e-06
1.05777e-07
2.86689e-06
-1.103e-06
1.28182e-06
-1.94024e-06
-5.29704e-08
-1.45511e-06
-2.92125e-07
-6.57388e-07
1.57912e-06
-1.16214e-06
-7.77753e-07
-2.80051e-07
3.97805e-07
5.04626e-07
2.7861e-07
8.99982e-07
-3.0987e-07
1.62489e-07
4.54211e-07
9.62203e-08
4.21519e-07
1.47405e-06
2.13849e-07
2.96099e-06
-5.52021e-07
2.65394e-06
-1.86141e-06
5.40168e-07
-1.48337e-06
-2.76702e-07
-1.17633e-06
-5.07586e-08
8.4591e-07
-9.22683e-07
-9.04812e-07
-1.36587e-07
1.2812e-07
4.02011e-07
7.0289e-07
-9.7798e-08
6.11701e-07
1.13001e-07
-1.29456e-07
6.01025e-07
7.64274e-07
2.30312e-07
2.17057e-06
-4.01494e-07
3.19893e-06
-1.36039e-06
1.76843e-06
-1.7368e-06
3.61975e-08
-1.3454e-06
9.98758e-08
1.52269e-07
7.5753e-07
-1.33642e-06
-6.10178e-07
-1.63453e-07
2.84464e-07
4.00387e-07
9.68826e-08
6.29142e-07
-1.97689e-07
1.80745e-07
6.37286e-07
1.91854e-07
3.65391e-07
1.32135e-06
-3.44208e-07
3.07737e-06
-1.15313e-06
2.8468e-06
-1.86649e-06
9.84802e-07
-1.3463e-06
1.78918e-07
-8.05604e-07
8.03563e-07
4.8126e-07
-8.14806e-07
-8.86301e-07
-2.36746e-07
1.48381e-07
2.57643e-07
4.69439e-07
-1.64738e-07
4.85441e-07
2.20532e-07
-1.09779e-07
6.88693e-07
6.72974e-07
-1.8204e-07
2.19177e-06
-1.16517e-06
3.41455e-06
-1.73886e-06
2.26693e-06
-1.8063e-06
4.81386e-07
-1.67327e-06
1.01275e-06
-1.92454e-07
1.04731e-06
-1.39799e-06
-5.28843e-07
-8.77156e-08
1.37113e-07
3.01407e-07
-1.77983e-08
4.40367e-07
-1.78502e-07
1.38493e-07
7.30336e-07
5.02428e-08
1.87687e-07
1.19671e-06
-9.55791e-07
3.2647e-06
-1.66855e-06
3.09251e-06
-2.28441e-06
1.75771e-06
-2.19849e-06
5.22157e-07
-1.4805e-06
1.03623e-06
-4.99072e-07
-9.09753e-07
-8.7882e-07
-3.95205e-07
1.38519e-07
9.80333e-08
2.7417e-07
-2.33185e-07
4.0147e-07
1.96698e-07
-3.39817e-07
7.68393e-07
4.64884e-07
-5.48405e-07
2.26892e-06
-1.63408e-06
3.42458e-06
-2.27014e-06
3.18169e-06
-2.55881e-06
3.9177e-07
-2.404e-06
1.47432e-06
-1.1563e-06
1.70204e-06
-1.52603e-06
-5.97423e-07
-1.26882e-07
-1.44323e-08
1.62086e-07
-1.24578e-07
2.94524e-07
-3.35079e-07
-2.981e-09
8.08556e-07
-3.00853e-07
3.19582e-08
1.18662e-06
-1.22297e-06
3.22955e-06
-2.13645e-06
3.6842e-06
-2.65093e-06
9.25898e-07
-2.62143e-06
1.5247e-06
-1.35883e-06
1.79952e-06
-1.21646e-06
-9.99186e-07
-1.00536e-06
-4.38359e-07
5.9601e-08
3.89906e-09
9.91568e-08
-4.08394e-07
3.25521e-07
9.83448e-08
-6.01857e-07
8.41212e-07
3.40479e-07
-7.02195e-07
2.23599e-06
-2.19036e-06
3.75291e-06
-2.58291e-06
1.27445e-06
-3.0288e-06
1.5276e-06
-1.8297e-06
2.90851e-06
-7.73001e-07
6.13827e-07
-1.89563e-06
-1.06416e-06
-5.3941e-07
-1.96566e-07
-2.48682e-09
5.35654e-08
-1.68653e-07
1.65853e-07
-5.21646e-07
-7.81469e-08
7.50915e-07
-7.47882e-07
1.02942e-07
1.34153e-06
-1.51019e-06
3.99207e-06
-2.7722e-06
1.17714e-06
-3.52177e-06
1.78873e-06
-2.49591e-06
3.96012e-06
-1.12611e-06
1.31306e-06
-1.0314e-06
1.88989e-07
-1.5996e-06
-7.49989e-07
-3.8534e-07
-7.7285e-08
-3.08439e-08
-1.3757e-07
-4.33159e-07
9.54121e-08
-2.95665e-07
-5.56987e-07
1.04653e-06
2.96347e-07
-2.56566e-07
3.63391e-06
-2.75001e-06
1.13307e-06
-3.88015e-06
1.90674e-06
-3.31602e-06
4.68088e-06
-1.82724e-06
3.18511e-06
-8.37822e-07
1.06038e-06
-1.14089e-06
1.26749e-06
-5.24103e-07
-4.77488e-07
-2.6589e-07
-3.45625e-07
-1.52506e-07
-3.15122e-07
-1.08943e-06
3.79469e-07
6.57304e-09
-1.2352e-06
-8.75275e-07
1.02951e-06
-2.61166e-06
2.58778e-07
-4.45779e-06
1.62905e-07
-4.68391e-06
3.22193e-06
-4.10626e-06
2.45376e-06
-3.43892e-06
1.99981e-06
-2.46919e-06
1.50978e-06
-2.20645e-06
-7.77133e-07
-5.67401e-07
-4.84584e-07
-2.04906e-07
-4.46535e-07
-1.00406e-06
3.0406e-07
-7.71156e-07
-1.28896e-06
-1.98253e-06
-1.47217e-06
-2.37023e-06
-1.25883e-06
-4.01984e-06
-2.11782e-06
-4.72796e-06
-2.52642e-07
-5.75515e-06
-1.60802e-06
-7.20504e-06
-1.34635e-06
-7.76885e-06
-1.59552e-06
-1.01866e-05
1.05578e-07
-2.35702e-07
-1.56662e-07
-9.81899e-08
-1.48245e-07
-3.02574e-07
1.45836e-09
-3.42088e-07
-4.15706e-07
-5.93341e-07
-1.1517e-06
-8.98325e-07
-8.3248e-07
-1.52005e-06
-1.36795e-06
-1.95632e-06
-1.08769e-06
-2.90323e-06
-2.23882e-06
-4.50951e-06
-3.19966e-06
-6.51303e-06
-5.43764e-06
-7.8391e-06
-8.34799e-06
)
;

boundaryField
{
    inlet
    {
        type            extrapolatedCalculated;
        value           nonuniform List<scalar> 
25
(
1.05578e-07
-2.35702e-07
-1.56662e-07
-9.81899e-08
-1.48245e-07
-3.02574e-07
1.45836e-09
-3.42088e-07
-4.15706e-07
-5.93341e-07
-1.1517e-06
-8.98325e-07
-8.3248e-07
-1.52005e-06
-1.36795e-06
-1.95632e-06
-1.08769e-06
-2.90323e-06
-2.23882e-06
-4.50951e-06
-3.19966e-06
-6.51303e-06
-5.43764e-06
-7.8391e-06
-8.34799e-06
)
;
    }
    outlet
    {
        type            extrapolatedCalculated;
        value           nonuniform List<scalar> 0();
    }
    walls
    {
        type            extrapolatedCalculated;
        value           nonuniform List<scalar> 0();
    }
    frontAndBack
    {
        type            empty;
    }
    procBoundary4to0
    {
        type            processor;
        value           nonuniform List<scalar> 
72
(
0.00025415
0.000415375
0.000236389
0.000233903
0.000147377
0.000158843
9.01626e-05
8.50083e-05
5.91053e-05
7.10104e-05
3.84008e-05
3.72208e-05
2.55812e-05
3.11613e-05
1.76968e-05
1.1903e-05
1.32602e-05
5.41461e-06
8.99305e-06
-2.88188e-06
4.66047e-06
-3.57513e-06
-3.57513e-06
1.09882e-06
2.98655e-06
4.49779e-06
1.46148e-06
2.26513e-06
1.06863e-06
2.53739e-06
1.01718e-06
1.21982e-06
1.11997e-06
1.20623e-06
1.20539e-06
5.87279e-07
1.22058e-06
4.85559e-07
1.16931e-06
2.01753e-07
1.04843e-06
2.99083e-08
9.02461e-07
-8.75538e-08
7.36817e-07
-2.48468e-07
5.9208e-07
-2.55817e-07
4.47243e-07
-3.53207e-07
3.18694e-07
-3.2103e-07
1.85996e-07
-3.96388e-07
4.97169e-08
-4.06899e-07
-9.6621e-08
-4.41933e-07
-1.74398e-07
-4.24771e-07
-3.77589e-07
-4.9478e-07
-6.39506e-07
-8.20081e-07
-7.2242e-07
-1.09622e-06
-8.22491e-07
-1.39392e-06
1.02405e-06
-3.3067e-06
1.99891e-06
-5.45288e-07
)
;
    }
    procBoundary4to5
    {
        type            processor;
        value           nonuniform List<scalar> 
95
(
0.000181717
0.000127156
0.000251541
0.000211919
0.000211919
0.000251596
0.000223644
0.000223644
0.000341137
0.000495019
0.000495019
0.000359065
0.000359065
0.000123464
0.000282597
0.000282597
0.000287017
0.000287017
0.000193516
9.81521e-05
9.81521e-05
7.47185e-05
2.09876e-05
2.09876e-05
-2.35063e-05
0.000130316
0.000130316
0.000160841
-7.48627e-05
0.000310269
0.000310269
0.000262244
-3.63878e-05
0.000167677
0.000167677
6.46274e-05
-0.00011825
9.8089e-05
9.8089e-05
7.69751e-05
-9.6473e-05
3.82733e-05
3.82733e-05
1.11905e-05
-6.66127e-05
8.19942e-06
-7.15137e-05
8.01099e-06
8.01099e-06
-6.06629e-06
-3.01708e-05
-7.77201e-06
-3.48893e-05
2.45697e-06
2.45697e-06
-1.66231e-06
-4.25434e-05
7.17458e-06
-4.51393e-05
1.43906e-05
1.43906e-05
-1.16061e-06
-1.73034e-05
4.87445e-06
-1.55763e-05
3.78205e-06
-6.31625e-06
-9.63969e-07
-9.63969e-07
3.26247e-06
-3.59125e-06
6.35595e-07
-2.29669e-06
8.24834e-07
-2.51026e-06
5.11362e-06
-9.8717e-06
-9.8717e-06
-5.6987e-06
-5.17285e-07
-7.46921e-07
7.55334e-07
5.87641e-07
9.55188e-07
4.04262e-08
9.72289e-07
-1.33173e-06
7.577e-07
7.577e-07
-1.92464e-07
-1.78395e-06
8.65215e-07
-2.84166e-06
-5.13897e-06
-1.75918e-05
)
;
    }
}


// ************************************************************************* //
