/*--------------------------------*- C++ -*----------------------------------*\
| =========                 |                                                 |
| \\      /  F ield         | OpenFOAM: The Open Source CFD Toolbox           |
|  \\    /   O peration     | Version:  2306                                  |
|   \\  /    A nd           | Website:  www.openfoam.com                      |
|    \\/     M anipulation  |                                                 |
\*---------------------------------------------------------------------------*/
FoamFile
{
    version     2.0;
    format      ascii;
    arch        "LSB;label=32;scalar=64";
    class       volScalarField;
    location    "75";
    object      turbulenceProperties:nut;
}
// * * * * * * * * * * * * * * * * * * * * * * * * * * * * * * * * * * * * * //

dimensions      [0 2 -1 0 0 0 0];

internalField   nonuniform List<scalar> 
1340
(
6.11003e-06
6.1112e-06
6.11241e-06
6.11239e-06
6.11341e-06
6.11413e-06
6.11466e-06
6.11526e-06
6.11352e-06
6.11467e-06
6.11522e-06
6.11552e-06
6.11583e-06
6.11612e-06
6.1165e-06
6.11283e-06
6.11435e-06
6.11503e-06
6.11542e-06
6.1158e-06
6.11611e-06
6.11641e-06
6.1169e-06
6.11033e-06
6.11231e-06
6.11335e-06
6.11407e-06
6.11475e-06
6.11532e-06
6.11585e-06
6.1164e-06
6.1171e-06
6.10665e-06
6.10899e-06
6.11044e-06
6.11159e-06
6.11268e-06
6.11363e-06
6.1145e-06
6.11533e-06
6.11614e-06
6.10278e-06
6.1052e-06
6.10695e-06
6.10845e-06
6.10989e-06
6.1112e-06
6.11238e-06
6.11349e-06
6.11449e-06
6.11545e-06
6.09977e-06
6.10192e-06
6.1037e-06
6.10532e-06
6.10693e-06
6.10842e-06
6.10977e-06
6.11104e-06
6.11222e-06
6.11331e-06
6.11438e-06
6.09841e-06
6.09996e-06
6.10144e-06
6.10292e-06
6.10443e-06
6.10585e-06
6.10717e-06
6.10844e-06
6.10965e-06
6.11083e-06
6.11197e-06
6.09901e-06
6.09974e-06
6.10069e-06
6.10179e-06
6.10296e-06
6.10408e-06
6.10517e-06
6.10626e-06
6.10734e-06
6.10846e-06
6.10961e-06
6.11074e-06
6.10129e-06
6.10123e-06
6.10155e-06
6.10216e-06
6.10287e-06
6.10355e-06
6.10424e-06
6.105e-06
6.10583e-06
6.10674e-06
6.10775e-06
6.10882e-06
6.10447e-06
6.10388e-06
6.10368e-06
6.10382e-06
6.10406e-06
6.10427e-06
6.10453e-06
6.10488e-06
6.10534e-06
6.10594e-06
6.10669e-06
6.10758e-06
6.10853e-06
6.10739e-06
6.10672e-06
6.10627e-06
6.10609e-06
6.10598e-06
6.1058e-06
6.10565e-06
6.10562e-06
6.10572e-06
6.10599e-06
6.10643e-06
6.10703e-06
6.1078e-06
6.10887e-06
6.10861e-06
6.1082e-06
6.10794e-06
6.10767e-06
6.10728e-06
6.10692e-06
6.10665e-06
6.10649e-06
6.1065e-06
6.10669e-06
6.10703e-06
6.10755e-06
6.10824e-06
6.10811e-06
6.10857e-06
6.10847e-06
6.10835e-06
6.10818e-06
6.10787e-06
6.10755e-06
6.10729e-06
6.10709e-06
6.10701e-06
6.10707e-06
6.10726e-06
6.10759e-06
6.10812e-06
6.10496e-06
6.10619e-06
6.10655e-06
6.1068e-06
6.10699e-06
6.10704e-06
6.10705e-06
6.10705e-06
6.10704e-06
6.10708e-06
6.10719e-06
6.10737e-06
6.10764e-06
6.10807e-06
6.10007e-06
6.10186e-06
6.10272e-06
6.10348e-06
6.10421e-06
6.10482e-06
6.10532e-06
6.10575e-06
6.1061e-06
6.10643e-06
6.10674e-06
6.10706e-06
6.10742e-06
6.10782e-06
6.10838e-06
6.09465e-06
6.09666e-06
6.09796e-06
6.09923e-06
6.1005e-06
6.10164e-06
6.10264e-06
6.10352e-06
6.10428e-06
6.10496e-06
6.10557e-06
6.10614e-06
6.10669e-06
6.10723e-06
6.10784e-06
6.09009e-06
6.09202e-06
6.09357e-06
6.09514e-06
6.09672e-06
6.09817e-06
6.0995e-06
6.1007e-06
6.1018e-06
6.1028e-06
6.10372e-06
6.10456e-06
6.10536e-06
6.10611e-06
6.10686e-06
6.08742e-06
6.08905e-06
6.09053e-06
6.09206e-06
6.09358e-06
6.09505e-06
6.09644e-06
6.09778e-06
6.09905e-06
6.10027e-06
6.10141e-06
6.1025e-06
6.10352e-06
6.10449e-06
6.10542e-06
6.10631e-06
6.08705e-06
6.08817e-06
6.08922e-06
6.09035e-06
6.09154e-06
6.09275e-06
6.09399e-06
6.09525e-06
6.09652e-06
6.09778e-06
6.09903e-06
6.10024e-06
6.10141e-06
6.10254e-06
6.10364e-06
6.10466e-06
6.08859e-06
6.08901e-06
6.08942e-06
6.08999e-06
6.0907e-06
6.09152e-06
6.09245e-06
6.09348e-06
6.09458e-06
6.09574e-06
6.09693e-06
6.09813e-06
6.09933e-06
6.10053e-06
6.10171e-06
6.10283e-06
6.09168e-06
6.09095e-06
6.09073e-06
6.09056e-06
6.09063e-06
6.09089e-06
6.0913e-06
6.09186e-06
6.09257e-06
6.09341e-06
6.09435e-06
6.09536e-06
6.09644e-06
6.09756e-06
6.0987e-06
6.09987e-06
6.10106e-06
6.10216e-06
6.09354e-06
6.09282e-06
6.09243e-06
6.09196e-06
6.09172e-06
6.09166e-06
6.09173e-06
6.09197e-06
6.09238e-06
6.09294e-06
6.09361e-06
6.0944e-06
6.09528e-06
6.09624e-06
6.09725e-06
6.09832e-06
6.09944e-06
6.10051e-06
6.09391e-06
6.09362e-06
6.09335e-06
6.09288e-06
6.09257e-06
6.09238e-06
6.09228e-06
6.09233e-06
6.09254e-06
6.09288e-06
6.09334e-06
6.09392e-06
6.0946e-06
6.09537e-06
6.09622e-06
6.09714e-06
6.09813e-06
6.09913e-06
6.09227e-06
6.09272e-06
6.09284e-06
6.09266e-06
6.09253e-06
6.09244e-06
6.09238e-06
6.09243e-06
6.09258e-06
6.09284e-06
6.09319e-06
6.09365e-06
6.09419e-06
6.09481e-06
6.09551e-06
6.09629e-06
6.09713e-06
6.09806e-06
6.09898e-06
6.08858e-06
6.08991e-06
6.09061e-06
6.09093e-06
6.09119e-06
6.0914e-06
6.09159e-06
6.09181e-06
6.09208e-06
6.0924e-06
6.09279e-06
6.09323e-06
6.09373e-06
6.09429e-06
6.09491e-06
6.09559e-06
6.09634e-06
6.09715e-06
6.09799e-06
6.08348e-06
6.08558e-06
6.08686e-06
6.08777e-06
6.08852e-06
6.08916e-06
6.08971e-06
6.09023e-06
6.09075e-06
6.09128e-06
6.09181e-06
6.09237e-06
6.09294e-06
6.09354e-06
6.09417e-06
6.09484e-06
6.09555e-06
6.09631e-06
6.09708e-06
6.07824e-06
6.08068e-06
6.08239e-06
6.08377e-06
6.08495e-06
6.08598e-06
6.08691e-06
6.08777e-06
6.08859e-06
6.08938e-06
6.09014e-06
6.09088e-06
6.09162e-06
6.09234e-06
6.09307e-06
6.0938e-06
6.09455e-06
6.09533e-06
6.09609e-06
6.07434e-06
6.07654e-06
6.07831e-06
6.07987e-06
6.08126e-06
6.08253e-06
6.08371e-06
6.08482e-06
6.08588e-06
6.0869e-06
6.08788e-06
6.08882e-06
6.08974e-06
6.09063e-06
6.0915e-06
6.09235e-06
6.0932e-06
6.09406e-06
6.09489e-06
6.07282e-06
6.07424e-06
6.07567e-06
6.07704e-06
6.07834e-06
6.07958e-06
6.08079e-06
6.08197e-06
6.08313e-06
6.08426e-06
6.08536e-06
6.08644e-06
6.08749e-06
6.08852e-06
6.08952e-06
6.0905e-06
6.09148e-06
6.09243e-06
6.0934e-06
6.09429e-06
6.07373e-06
6.07415e-06
6.07496e-06
6.07585e-06
6.07679e-06
6.07776e-06
6.07877e-06
6.07981e-06
6.08087e-06
6.08196e-06
6.08304e-06
6.08412e-06
6.0852e-06
6.08628e-06
6.08735e-06
6.08841e-06
6.08947e-06
6.09052e-06
6.09158e-06
6.09255e-06
6.0761e-06
6.07573e-06
6.07591e-06
6.07621e-06
6.07667e-06
6.07725e-06
6.07792e-06
6.07867e-06
6.07949e-06
6.08037e-06
6.08129e-06
6.08225e-06
6.08323e-06
6.08425e-06
6.08528e-06
6.08634e-06
6.08741e-06
6.08849e-06
6.0896e-06
6.09061e-06
6.07843e-06
6.07779e-06
6.07758e-06
6.07744e-06
6.07752e-06
6.07774e-06
6.07807e-06
6.07851e-06
6.07903e-06
6.07963e-06
6.08031e-06
6.08104e-06
6.08184e-06
6.08269e-06
6.08359e-06
6.08454e-06
6.08553e-06
6.08655e-06
6.08764e-06
6.08864e-06
6.07953e-06
6.07917e-06
6.07894e-06
6.07867e-06
6.07858e-06
6.07862e-06
6.07874e-06
6.07895e-06
6.07923e-06
6.07959e-06
6.08001e-06
6.08051e-06
6.08108e-06
6.08172e-06
6.08243e-06
6.0832e-06
6.08404e-06
6.08493e-06
6.0859e-06
6.08685e-06
6.07912e-06
6.07934e-06
6.07937e-06
6.07925e-06
6.07925e-06
6.07931e-06
6.0794e-06
6.07953e-06
6.07969e-06
6.0799e-06
6.08015e-06
6.08047e-06
6.08084e-06
6.08128e-06
6.08179e-06
6.08237e-06
6.08302e-06
6.08374e-06
6.08453e-06
6.08541e-06
6.08628e-06
6.0778e-06
6.07852e-06
6.0789e-06
6.07909e-06
6.07931e-06
6.07954e-06
6.07972e-06
6.0799e-06
6.08007e-06
6.08024e-06
6.08043e-06
6.08064e-06
6.0809e-06
6.0812e-06
6.08155e-06
6.08196e-06
6.08243e-06
6.08297e-06
6.08358e-06
6.08428e-06
6.08501e-06
6.07651e-06
6.07743e-06
6.07806e-06
6.07852e-06
6.07896e-06
6.07938e-06
6.07971e-06
6.07999e-06
6.08023e-06
6.08044e-06
6.08063e-06
6.08083e-06
6.08104e-06
6.08127e-06
6.08152e-06
6.08182e-06
6.08216e-06
6.08255e-06
6.083e-06
6.08353e-06
6.0841e-06
6.07593e-06
6.07674e-06
6.07743e-06
6.07804e-06
6.07862e-06
6.07914e-06
6.07958e-06
6.07995e-06
6.08026e-06
6.08052e-06
6.08075e-06
6.08096e-06
6.08117e-06
6.08137e-06
6.08158e-06
6.08181e-06
6.08206e-06
6.08235e-06
6.08268e-06
6.08308e-06
6.08351e-06
6.07618e-06
6.07673e-06
6.07736e-06
6.07802e-06
6.07861e-06
6.07915e-06
6.07962e-06
6.08002e-06
6.08036e-06
6.08064e-06
6.08088e-06
6.0811e-06
6.0813e-06
6.08148e-06
6.08167e-06
6.08186e-06
6.08206e-06
6.08229e-06
6.08254e-06
6.08283e-06
6.08315e-06
6.07694e-06
6.07729e-06
6.07783e-06
6.07848e-06
6.07902e-06
6.07952e-06
6.07999e-06
6.08037e-06
6.08069e-06
6.08095e-06
6.08117e-06
6.08136e-06
6.08153e-06
6.08168e-06
6.08183e-06
6.08199e-06
6.08215e-06
6.08232e-06
6.08251e-06
6.08272e-06
6.08297e-06
6.08326e-06
6.07776e-06
6.07808e-06
6.07858e-06
6.07918e-06
6.07969e-06
6.08017e-06
6.08061e-06
6.08097e-06
6.08126e-06
6.0815e-06
6.08168e-06
6.08182e-06
6.08194e-06
6.08205e-06
6.08215e-06
6.08224e-06
6.08235e-06
6.08246e-06
6.08259e-06
6.08274e-06
6.08291e-06
6.08312e-06
6.07842e-06
6.07878e-06
6.07931e-06
6.07991e-06
6.08042e-06
6.0809e-06
6.08133e-06
6.08168e-06
6.08196e-06
6.08218e-06
6.08235e-06
6.08247e-06
6.08255e-06
6.08261e-06
6.08264e-06
6.08268e-06
6.08272e-06
6.08277e-06
6.08282e-06
6.0829e-06
6.083e-06
6.08313e-06
6.07888e-06
6.07931e-06
6.07989e-06
6.08052e-06
6.08106e-06
6.08157e-06
6.08201e-06
6.08237e-06
6.08266e-06
6.08288e-06
6.08304e-06
6.08316e-06
6.08324e-06
6.08329e-06
6.08331e-06
6.0833e-06
6.08328e-06
6.08325e-06
6.08324e-06
6.08323e-06
6.08325e-06
6.0833e-06
6.0792e-06
6.07968e-06
6.08029e-06
6.08096e-06
6.08153e-06
6.08207e-06
6.08254e-06
6.08292e-06
6.08324e-06
6.08349e-06
6.08367e-06
6.08381e-06
6.0839e-06
6.08395e-06
6.08397e-06
6.08397e-06
6.08395e-06
6.08391e-06
6.08384e-06
6.08376e-06
6.08369e-06
6.08365e-06
6.07943e-06
6.07993e-06
6.08056e-06
6.08124e-06
6.08183e-06
6.08238e-06
6.08288e-06
6.08329e-06
6.08364e-06
6.08392e-06
6.08414e-06
6.08431e-06
6.08443e-06
6.08451e-06
6.08456e-06
6.08457e-06
6.08456e-06
6.08453e-06
6.08449e-06
6.08442e-06
6.08431e-06
6.0842e-06
6.07957e-06
6.08009e-06
6.08073e-06
6.08142e-06
6.082e-06
6.08255e-06
6.08305e-06
6.08348e-06
6.08384e-06
6.08415e-06
6.08441e-06
6.08462e-06
6.08479e-06
6.08491e-06
6.085e-06
6.08506e-06
6.08508e-06
6.08508e-06
6.08505e-06
6.08501e-06
6.08494e-06
6.08485e-06
6.0796e-06
6.08018e-06
6.08084e-06
6.08153e-06
6.08211e-06
6.08265e-06
6.08314e-06
6.08355e-06
6.08392e-06
6.08424e-06
6.08451e-06
6.08475e-06
6.08495e-06
6.08512e-06
6.08526e-06
6.08537e-06
6.08544e-06
6.08549e-06
6.08551e-06
6.0855e-06
6.08546e-06
6.0854e-06
6.0853e-06
6.07955e-06
6.0802e-06
6.08091e-06
6.08162e-06
6.0822e-06
6.08273e-06
6.0832e-06
6.08359e-06
6.08393e-06
6.08424e-06
6.08451e-06
6.08475e-06
6.08497e-06
6.08517e-06
6.08535e-06
6.0855e-06
6.08563e-06
6.08574e-06
6.08581e-06
6.08586e-06
6.08588e-06
6.08585e-06
6.08581e-06
6.07946e-06
6.08019e-06
6.08096e-06
6.08171e-06
6.0823e-06
6.08283e-06
6.08328e-06
6.08364e-06
6.08396e-06
6.08423e-06
6.08448e-06
6.0847e-06
6.08491e-06
6.08512e-06
6.08531e-06
6.08549e-06
6.08566e-06
6.08582e-06
6.08595e-06
6.08605e-06
6.08613e-06
6.08617e-06
6.08617e-06
6.07939e-06
6.08017e-06
6.08101e-06
6.0818e-06
6.08241e-06
6.08295e-06
6.08339e-06
6.08373e-06
6.08401e-06
6.08425e-06
6.08446e-06
6.08465e-06
6.08483e-06
6.08502e-06
6.08521e-06
6.08539e-06
6.08557e-06
6.08575e-06
6.08591e-06
6.08606e-06
6.08618e-06
6.08627e-06
6.08634e-06
6.07936e-06
6.08018e-06
6.08106e-06
6.08187e-06
6.08251e-06
6.08305e-06
6.08349e-06
6.08382e-06
6.08408e-06
6.08429e-06
6.08446e-06
6.08461e-06
6.08476e-06
6.08491e-06
6.08507e-06
6.08523e-06
6.08538e-06
6.08554e-06
6.0857e-06
6.08585e-06
6.086e-06
6.08613e-06
6.08624e-06
6.07937e-06
6.08019e-06
6.08109e-06
6.08191e-06
6.08255e-06
6.08309e-06
6.08352e-06
6.08384e-06
6.0841e-06
6.08429e-06
6.08444e-06
6.08456e-06
6.08468e-06
6.08479e-06
6.08489e-06
6.08498e-06
6.08508e-06
6.08519e-06
6.08531e-06
6.08544e-06
6.08558e-06
6.08573e-06
6.08587e-06
6.07938e-06
6.08019e-06
6.08107e-06
6.08187e-06
6.08249e-06
6.08301e-06
6.08343e-06
6.08375e-06
6.084e-06
6.08418e-06
6.08432e-06
6.08443e-06
6.08451e-06
6.08457e-06
6.08461e-06
6.08464e-06
6.08467e-06
6.08472e-06
6.08479e-06
6.08489e-06
6.08501e-06
6.08515e-06
6.08529e-06
6.07934e-06
6.08014e-06
6.08098e-06
6.08174e-06
6.08231e-06
6.0828e-06
6.08318e-06
6.08349e-06
6.08373e-06
6.0839e-06
6.08404e-06
6.08413e-06
6.08418e-06
6.08419e-06
6.08418e-06
6.08417e-06
6.08416e-06
6.08418e-06
6.08422e-06
6.08429e-06
6.08439e-06
6.08451e-06
6.08465e-06
6.07923e-06
6.08e-06
6.0808e-06
6.0815e-06
6.08202e-06
6.08245e-06
6.08279e-06
6.08306e-06
6.08326e-06
6.08342e-06
6.08354e-06
6.08361e-06
6.08362e-06
6.08361e-06
6.0836e-06
6.08359e-06
6.08359e-06
6.08361e-06
6.08366e-06
6.08372e-06
6.08381e-06
6.08392e-06
6.08405e-06
6.08419e-06
6.07901e-06
6.07977e-06
6.08053e-06
6.08116e-06
6.08163e-06
6.08198e-06
6.08226e-06
6.08248e-06
6.08262e-06
6.08276e-06
6.08283e-06
6.08285e-06
6.08285e-06
6.08286e-06
6.08287e-06
6.0829e-06
6.08293e-06
6.08298e-06
6.08304e-06
6.08312e-06
6.08322e-06
6.08333e-06
6.08346e-06
6.0836e-06
6.07869e-06
6.07945e-06
6.08017e-06
6.08075e-06
6.08115e-06
6.08143e-06
6.08165e-06
6.08179e-06
6.08187e-06
6.08195e-06
6.08194e-06
6.08193e-06
6.08193e-06
6.08196e-06
6.08199e-06
6.08203e-06
6.08208e-06
6.08215e-06
6.08222e-06
6.08232e-06
6.08243e-06
6.08256e-06
6.08272e-06
6.08288e-06
6.07836e-06
6.07911e-06
6.0798e-06
6.08033e-06
6.08068e-06
6.08088e-06
6.08102e-06
6.08102e-06
6.08102e-06
6.08094e-06
6.08087e-06
6.08084e-06
6.08086e-06
6.08089e-06
6.08094e-06
6.08098e-06
6.08104e-06
6.08111e-06
6.08119e-06
6.08129e-06
6.08141e-06
6.08154e-06
6.08169e-06
6.08187e-06
6.0781e-06
6.07885e-06
6.07951e-06
6.07998e-06
6.08025e-06
6.08036e-06
6.08039e-06
6.08022e-06
6.08009e-06
6.07972e-06
6.07957e-06
6.07954e-06
6.07957e-06
6.07963e-06
6.0797e-06
6.07978e-06
6.07988e-06
6.07998e-06
6.0801e-06
6.08024e-06
6.08038e-06
6.08053e-06
6.0807e-06
6.08088e-06
6.0778e-06
6.07853e-06
6.07915e-06
6.07956e-06
6.07975e-06
6.07976e-06
6.07966e-06
6.07932e-06
6.07907e-06
6.07836e-06
6.07812e-06
6.07809e-06
6.07815e-06
6.07823e-06
6.07834e-06
6.07845e-06
6.07859e-06
6.07874e-06
6.07892e-06
6.07911e-06
6.07931e-06
6.07952e-06
6.07975e-06
6.07998e-06
6.07743e-06
6.07813e-06
6.0787e-06
6.07904e-06
6.07915e-06
6.07906e-06
6.07883e-06
6.07832e-06
6.07793e-06
6.07691e-06
6.0766e-06
6.07658e-06
6.07666e-06
6.07677e-06
6.0769e-06
6.07704e-06
6.0772e-06
6.07738e-06
6.07758e-06
6.0778e-06
6.07804e-06
6.0783e-06
6.07858e-06
6.07887e-06
6.07698e-06
6.07765e-06
6.07815e-06
6.07841e-06
6.07844e-06
6.07824e-06
6.07787e-06
6.07721e-06
6.07669e-06
6.07536e-06
6.07501e-06
6.07501e-06
6.07511e-06
6.07525e-06
6.07539e-06
6.07555e-06
6.07572e-06
6.07591e-06
6.07613e-06
6.07636e-06
6.07662e-06
6.07691e-06
6.07723e-06
6.07756e-06
6.07642e-06
6.07704e-06
6.07747e-06
6.07765e-06
6.07758e-06
6.07727e-06
6.07677e-06
6.07599e-06
6.07533e-06
6.07375e-06
6.07337e-06
6.07339e-06
6.07352e-06
6.07367e-06
6.07384e-06
6.074e-06
6.07418e-06
6.07437e-06
6.07458e-06
6.07482e-06
6.07509e-06
6.07539e-06
6.07573e-06
6.07609e-06
6.07573e-06
6.07629e-06
6.07664e-06
6.07673e-06
6.07657e-06
6.07616e-06
6.07553e-06
6.07466e-06
6.07386e-06
6.07214e-06
6.07174e-06
6.07178e-06
6.07192e-06
6.07209e-06
6.07226e-06
6.07243e-06
6.07261e-06
6.07279e-06
6.073e-06
6.07323e-06
6.0735e-06
6.0738e-06
6.07414e-06
6.0745e-06
6.07489e-06
6.07538e-06
6.07564e-06
6.07565e-06
6.07541e-06
6.0749e-06
6.07418e-06
6.07325e-06
6.07234e-06
6.07064e-06
6.07024e-06
6.07026e-06
6.0704e-06
6.07056e-06
6.07073e-06
6.0709e-06
6.07107e-06
6.07125e-06
6.07144e-06
6.07166e-06
6.07192e-06
6.0722e-06
6.07252e-06
6.07286e-06
6.07321e-06
6.07392e-06
6.07431e-06
6.07449e-06
6.07442e-06
6.0741e-06
6.07353e-06
6.07275e-06
6.07182e-06
6.07083e-06
6.06941e-06
6.06904e-06
6.06901e-06
6.06909e-06
6.06921e-06
6.06935e-06
6.06949e-06
6.06964e-06
6.0698e-06
6.06998e-06
6.07017e-06
6.07039e-06
6.07064e-06
6.07091e-06
6.07122e-06
6.07154e-06
6.07281e-06
6.07311e-06
6.0732e-06
6.07305e-06
6.07269e-06
6.0721e-06
6.07132e-06
6.07044e-06
6.06946e-06
6.06865e-06
6.0684e-06
6.06843e-06
6.06844e-06
6.06842e-06
6.06842e-06
6.06845e-06
6.06851e-06
6.06858e-06
6.06867e-06
6.06879e-06
6.06893e-06
6.0691e-06
6.0693e-06
6.06954e-06
6.06981e-06
6.07156e-06
6.07176e-06
6.07177e-06
6.07159e-06
6.07122e-06
6.07067e-06
6.06998e-06
6.06922e-06
6.0684e-06
6.06832e-06
6.06838e-06
6.06856e-06
6.06869e-06
6.06876e-06
6.06879e-06
6.06879e-06
6.06879e-06
6.06877e-06
6.06875e-06
6.06874e-06
6.06871e-06
6.0687e-06
6.06872e-06
6.0688e-06
6.06892e-06
6.07014e-06
6.07024e-06
6.07021e-06
6.07004e-06
6.06975e-06
6.06933e-06
6.06883e-06
6.06828e-06
6.06784e-06
6.06812e-06
6.06839e-06
6.06868e-06
6.06891e-06
6.06902e-06
6.06906e-06
6.06905e-06
6.069e-06
6.06894e-06
6.06888e-06
6.06882e-06
6.06878e-06
6.06875e-06
6.06875e-06
6.06875e-06
6.06878e-06
6.06851e-06
6.06854e-06
6.06851e-06
6.06843e-06
6.0683e-06
6.06813e-06
6.06794e-06
6.06772e-06
6.06772e-06
6.06785e-06
6.06831e-06
6.06897e-06
6.06968e-06
6.07029e-06
6.07083e-06
6.07131e-06
6.07175e-06
6.07215e-06
6.0725e-06
6.0728e-06
6.07304e-06
6.07321e-06
6.07329e-06
6.07326e-06
6.07314e-06
)
;

boundaryField
{
    inlet
    {
        type            freestream;
        freestreamValue uniform 1e-05;
        value           nonuniform List<scalar> 
25
(
1e-05
1e-05
1e-05
1e-05
1e-05
1e-05
1e-05
1e-05
1e-05
1e-05
6.06831e-06
6.06897e-06
6.06968e-06
6.07029e-06
6.07083e-06
6.07131e-06
6.07175e-06
6.07215e-06
6.0725e-06
6.0728e-06
6.07304e-06
6.07321e-06
6.07329e-06
6.07326e-06
6.07314e-06
)
;
    }
    outlet
    {
        type            freestream;
        freestreamValue nonuniform List<scalar> 0();
        value           nonuniform List<scalar> 0();
    }
    walls
    {
        type            nutUSpaldingWallFunction;
        value           nonuniform List<scalar> 0();
    }
    frontAndBack
    {
        type            empty;
    }
    procBoundary4to0
    {
        type            processor;
        value           nonuniform List<scalar> 
72
(
6.11089e-06
6.11244e-06
6.11231e-06
6.11031e-06
6.10687e-06
6.10293e-06
6.09963e-06
6.09791e-06
6.09825e-06
6.10051e-06
6.10392e-06
6.10727e-06
6.10925e-06
6.10887e-06
6.10589e-06
6.10092e-06
6.09522e-06
6.09023e-06
6.08703e-06
6.08603e-06
6.08699e-06
6.08918e-06
6.08918e-06
6.09358e-06
6.09443e-06
6.09323e-06
6.08983e-06
6.08474e-06
6.07914e-06
6.07461e-06
6.07243e-06
6.07294e-06
6.0753e-06
6.07796e-06
6.07949e-06
6.07934e-06
6.07797e-06
6.07638e-06
6.07543e-06
6.0754e-06
6.07604e-06
6.07689e-06
6.07762e-06
6.07814e-06
6.07852e-06
6.0788e-06
6.07898e-06
6.07904e-06
6.07897e-06
6.07884e-06
6.0787e-06
6.07862e-06
6.07861e-06
6.07865e-06
6.07867e-06
6.07863e-06
6.07849e-06
6.07825e-06
6.07791e-06
6.07756e-06
6.0773e-06
6.07701e-06
6.07665e-06
6.07622e-06
6.07568e-06
6.07502e-06
6.07425e-06
6.07335e-06
6.07235e-06
6.07122e-06
6.06993e-06
6.06844e-06
)
;
    }
    procBoundary4to5
    {
        type            processor;
        value           nonuniform List<scalar> 
95
(
6.10807e-06
6.10932e-06
6.11085e-06
6.11291e-06
6.11291e-06
6.11418e-06
6.11528e-06
6.11528e-06
6.11599e-06
6.1166e-06
6.1166e-06
6.11717e-06
6.11717e-06
6.11747e-06
6.11693e-06
6.11693e-06
6.11653e-06
6.11653e-06
6.11576e-06
6.11336e-06
6.11336e-06
6.11229e-06
6.11005e-06
6.11005e-06
6.10966e-06
6.10855e-06
6.10855e-06
6.10881e-06
6.10842e-06
6.10837e-06
6.10837e-06
6.10877e-06
6.10842e-06
6.10771e-06
6.10771e-06
6.10747e-06
6.10605e-06
6.10425e-06
6.10425e-06
6.10369e-06
6.10196e-06
6.10036e-06
6.10036e-06
6.10016e-06
6.09903e-06
6.09807e-06
6.09713e-06
6.09599e-06
6.09599e-06
6.09557e-06
6.09396e-06
6.0921e-06
6.09012e-06
6.08814e-06
6.08814e-06
6.08746e-06
6.08598e-06
6.08486e-06
6.08408e-06
6.08357e-06
6.08357e-06
6.08362e-06
6.08338e-06
6.08329e-06
6.08335e-06
6.0836e-06
6.08405e-06
6.08465e-06
6.08465e-06
6.08511e-06
6.08567e-06
6.0861e-06
6.08634e-06
6.08631e-06
6.08598e-06
6.08542e-06
6.08477e-06
6.08477e-06
6.08432e-06
6.08374e-06
6.08305e-06
6.08206e-06
6.08108e-06
6.08022e-06
6.07916e-06
6.07789e-06
6.07645e-06
6.07487e-06
6.07487e-06
6.07358e-06
6.07189e-06
6.07009e-06
6.06909e-06
6.06885e-06
6.07294e-06
)
;
    }
}


// ************************************************************************* //
