/*--------------------------------*- C++ -*----------------------------------*\
| =========                 |                                                 |
| \\      /  F ield         | OpenFOAM: The Open Source CFD Toolbox           |
|  \\    /   O peration     | Version:  2306                                  |
|   \\  /    A nd           | Website:  www.openfoam.com                      |
|    \\/     M anipulation  |                                                 |
\*---------------------------------------------------------------------------*/
FoamFile
{
    version     2.0;
    format      ascii;
    arch        "LSB;label=32;scalar=64";
    class       volScalarField;
    location    "700";
    object      p;
}
// * * * * * * * * * * * * * * * * * * * * * * * * * * * * * * * * * * * * * //

dimensions      [0 2 -2 0 0 0 0];

internalField   nonuniform List<scalar> 
1340
(
-90.0581
-51.5572
-6.92265
26.0012
-89.6903
-51.2684
-6.61828
25.6917
-89.2648
-50.9482
-6.36872
25.8139
-88.7846
-50.6492
-6.26941
26.0198
-88.1853
-50.3581
-6.31144
26.0837
-87.5331
-50.0963
-6.52475
25.9693
-86.9031
-49.927
-6.94673
25.6505
-86.2557
-49.8318
-7.56137
25.0755
-85.5739
-49.7483
-8.2742
24.2253
-84.8617
-49.6481
-9.02712
23.1494
-84.1276
-49.5266
-9.82881
21.9137
-83.3803
-49.4025
-10.6955
20.5446
-82.6191
-49.297
-11.6283
19.0477
-81.8408
-49.2172
-12.624
17.4377
-81.0439
-49.1585
-13.68
15.7272
-80.228
-49.1179
-14.7896
13.9223
-79.3928
-49.0928
-15.9448
12.0295
-78.5367
-49.0826
-17.1367
10.0598
-77.6588
-49.0855
-18.3564
8.0252
-76.7571
-49.0983
-19.5953
5.93873
-75.8293
-49.117
-20.8439
3.81469
-74.8734
-49.1369
-22.0922
1.668
-73.887
-49.1526
-23.3309
-0.487251
-72.8676
-49.1577
-24.5492
-2.63553
-71.8121
-49.1459
-25.7368
-4.7619
-70.7186
-49.1094
-26.8832
-6.85112
-69.5839
-49.0415
-27.9795
-8.88795
-68.4062
-48.9355
-29.0146
-10.8586
-67.183
-48.7821
-29.9801
-12.7496
-65.9126
-48.5764
-30.8663
-14.5486
-64.594
-48.3112
-31.6658
-16.2448
-63.2269
-47.9808
-32.3713
-17.8285
-61.8106
-47.5807
-32.9762
-19.2906
-72.6924
-60.347
-47.1065
-33.4753
-20.6244
-70.2428
-58.837
-46.5565
-33.865
-21.8241
-67.7861
-57.2832
-45.9292
-34.1423
-22.8859
-65.3285
-55.6889
-45.2238
-34.3058
-23.8072
-62.877
-54.0581
-44.4422
-34.3554
-24.5869
-60.4382
-52.3954
-43.5864
-34.2924
-25.2256
-58.0189
-50.7059
-42.66
-34.1195
-25.7252
-55.6256
-48.9955
-41.6676
-33.8405
-26.0886
-53.2643
-47.2701
-40.6147
-33.4603
-26.3206
-50.9413
-45.5359
-39.5074
-32.9852
-26.4266
-48.6616
-43.7992
-38.3526
-32.4217
-26.4131
-46.4303
-42.0664
-37.1574
-31.7777
-26.2874
-47.6394
-44.2518
-40.3435
-35.9289
-31.0611
-26.0575
-45.1513
-42.1296
-38.6362
-34.6749
-30.2802
-25.732
-42.7582
-40.0672
-36.95
-33.4025
-29.4436
-25.3197
-40.4603
-38.0668
-35.2899
-32.1186
-28.5598
-24.8296
-38.2569
-36.1306
-33.6603
-30.83
-27.637
-24.2708
-36.1469
-34.2597
-32.0649
-29.5429
-26.6833
-23.6524
-34.1287
-32.4552
-30.5072
-28.263
-25.7062
-22.9829
-32.2001
-30.7171
-28.99
-26.9954
-24.7129
-22.2708
-30.3588
-29.0455
-27.5154
-25.7446
-23.7098
-21.524
-29.5906
-28.6023
-27.4397
-26.0851
-24.5145
-22.703
-20.7499
-27.8032
-26.9274
-25.8988
-24.7004
-23.3085
-21.6976
-19.9553
-26.1071
-25.3313
-24.4215
-23.3617
-22.1293
-20.6984
-19.1465
-24.4978
-23.8108
-23.0063
-22.0696
-20.9791
-19.7094
-18.329
-22.9708
-22.3624
-21.6513
-20.8239
-19.8597
-18.734
-17.5079
-21.5216
-20.983
-20.3547
-19.6242
-18.7722
-17.7751
-16.6874
-20.1457
-19.6692
-19.1143
-18.4697
-17.7174
-16.8351
-15.8714
-19.1989
-18.839
-18.4176
-17.9278
-17.3594
-16.6957
-15.9158
-15.0631
-17.916
-17.5973
-17.225
-16.793
-16.2922
-15.7072
-15.0185
-14.265
-16.6982
-16.4163
-16.0878
-15.7073
-15.2667
-14.7517
-14.1444
-13.4796
-15.5414
-15.2925
-15.0032
-14.6687
-14.2815
-13.8288
-13.2941
-12.7087
-14.4406
-14.2216
-13.9675
-13.674
-13.3346
-12.9376
-12.4678
-11.9532
-13.3929
-13.201
-12.9785
-12.7218
-12.425
-12.0778
-11.6661
-11.2152
-12.5494
-12.3762
-12.1758
-11.9446
-11.6775
-11.365
-10.9945
-10.589
-11.9863
-11.8482
-11.6881
-11.5028
-11.2891
-11.0427
-10.7547
-10.4131
-10.0394
-11.261
-11.1337
-10.9875
-10.8179
-10.6221
-10.3965
-10.133
-9.82041
-9.48091
-10.5164
-10.3989
-10.2657
-10.111
-9.93236
-9.72688
-9.48731
-9.20202
-8.88991
-9.77465
-9.6699
-9.55192
-9.41407
-9.25374
-9.06881
-8.8533
-8.59787
-8.32695
-8.98286
-8.88615
-8.77926
-8.65494
-8.51088
-8.34539
-8.1518
-7.91757
-7.65322
-8.27802
-8.20018
-8.11328
-8.00899
-7.88499
-7.74084
-7.57396
-7.38105
-7.19631
-7.33995
-7.26283
-7.18125
-7.08688
-6.97738
-6.8512
-6.69947
-6.50247
-6.24737
-6.89411
-6.8522
-6.80285
-6.73678
-6.65255
-6.55278
-6.44392
-6.33878
-6.3025
-5.37815
-5.31693
-5.2581
-5.19338
-5.11956
-5.03194
-4.91083
-4.71474
-4.37558
-5.99131
-6.01834
-6.02088
-6.01683
-5.99996
-5.96673
-5.92498
-5.90368
-5.95457
-6.21292
-2.51576
-2.44834
-2.38993
-2.3478
-2.30935
-2.26776
-2.21456
-2.1047
-1.85696
-1.29
-6.76582
-6.64701
-6.66823
-6.79428
-6.88715
-6.93177
-6.97485
-7.09104
-7.38648
-8.06387
106.926
106.19
105.241
104.006
102.276
99.8593
96.5383
92.1327
86.6692
80.5003
74.1443
67.9757
62.1139
56.5379
51.208
46.108
41.2377
36.5989
32.1896
28.0033
24.0305
20.2622
16.6891
13.3028
10.0957
7.0605
4.19018
1.47798
-1.0806
-3.48911
-5.74942
-7.86209
-9.82764
-11.6453
-13.3143
-14.8342
-16.2044
-17.4251
-18.4972
-19.4221
-20.2022
-20.8408
-21.3422
-21.7112
-21.9541
-22.0776
-22.089
-21.9962
-21.8075
-21.5315
-21.177
-20.7528
-20.2673
-19.7291
-19.146
-18.5257
-17.8752
-17.2011
-16.5093
-15.8052
-15.0935
-14.3785
-13.6639
-12.9526
-12.2477
-11.5507
-10.8653
-10.2787
-9.75551
-9.22751
-8.65535
-8.13259
-7.45211
-7.07707
-6.04506
-6.30127
-4.11207
-6.40264
-0.929285
-8.53893
47.0008
46.4854
45.9989
45.5494
45.1106
44.7214
44.4096
44.1471
43.839
43.3554
42.6131
41.6066
40.3423
38.8188
37.0536
35.0792
32.9302
30.6385
28.2337
25.7438
23.1949
20.6121
18.0177
15.4315
12.8712
10.3524
7.89008
5.49748
3.18627
0.965323
-1.15804
-3.17759
-5.08877
-6.88714
-8.56888
-10.131
-11.5708
-12.8861
-14.0755
-15.1378
-16.073
-16.8817
-17.5655
-18.1264
-18.5679
-18.8941
-19.1099
-19.2207
-19.2329
-19.1533
-18.9889
-18.7473
-18.4359
-18.0624
-17.6341
-17.1585
-16.6425
-16.0926
-15.5151
-14.9156
-14.2994
-13.6711
-13.035
-12.3948
-11.754
-11.1146
-10.4806
-9.9346
-9.44502
-8.95156
-8.40912
-7.91972
-7.26341
-6.9202
-5.91222
-6.18259
-4.05567
-6.2727
-1.02565
29.2664
28.9706
28.6461
28.3124
27.9331
27.487
26.9707
26.3839
25.7278
25.0077
24.2371
23.4478
22.6686
21.8987
21.1227
20.3203
19.473
18.5667
17.5902
16.5356
15.3981
14.1766
12.8733
11.4937
10.0459
8.5401
6.98778
5.40087
3.79269
2.17676
0.566623
-1.02422
-2.5835
-4.09945
-5.56121
-6.95923
-8.28485
-9.53054
-10.6897
-11.7569
-12.7276
-13.5987
-14.3679
-15.0336
-15.5959
-16.0556
-16.4146
-16.6755
-16.842
-16.9185
-16.91
-16.822
-16.6607
-16.4321
-16.1428
-15.7992
-15.4077
-14.9746
-14.5058
-14.0071
-13.4839
-12.9409
-12.3829
-11.8137
-11.2375
-10.6568
-10.0753
-9.57138
-9.11676
-8.65828
-8.14819
-7.69045
-7.06649
-6.74348
-5.78498
-6.03066
-4.03055
-6.08407
27.8501
27.6607
27.4544
27.2397
27.0027
26.7251
26.389
25.9762
25.4652
24.8353
24.0763
23.2025
22.256
21.272
20.2632
19.2333
18.1848
17.1213
16.0452
14.9574
13.8569
12.742
11.6102
10.4593
9.2875
8.09333
6.87656
5.63764
4.37896
3.10395
1.8176
0.526372
-0.762527
-2.04094
-3.30001
-4.53083
-5.72442
-6.87208
-7.96555
-8.99715
-9.96013
-10.8487
-11.6578
-12.3834
-13.0227
-13.574
-14.0363
-14.4099
-14.6962
-14.8971
-15.0158
-15.0558
-15.0216
-14.9178
-14.7499
-14.5232
-14.2433
-13.916
-13.5469
-13.1413
-12.7045
-12.2416
-11.7572
-11.2556
-10.7409
-10.2163
-9.68554
-9.22197
-8.80014
-8.37416
-7.89443
-7.46669
-6.87251
-6.57154
-5.65284
-5.89203
-3.97838
23.6009
23.3952
23.1848
22.9829
22.7821
22.5758
22.3558
22.1139
21.842
21.5288
21.1591
20.7181
20.202
19.6208
18.9821
18.2879
17.5393
16.7376
15.8851
14.9854
14.0425
13.0605
12.0435
10.9958
9.92175
8.82514
7.70984
6.5793
5.43712
4.28662
3.13118
1.97474
0.821228
-0.324853
-1.4584
-2.57394
-3.66553
-4.7269
-5.75152
-6.73292
-7.66479
-8.54118
-9.35654
-10.1059
-10.7851
-11.3908
-11.9204
-12.3723
-12.746
-13.0416
-13.2603
-13.404
-13.4754
-13.4778
-13.415
-13.2915
-13.1118
-12.8808
-12.6035
-12.2849
-11.93
-11.5434
-11.13
-10.6939
-10.2395
-9.77024
-9.28975
-8.86621
-8.477
-8.08338
-7.63409
-7.23668
-6.67152
-6.39547
-5.5106
-5.75642
18.9529
18.7748
18.5893
18.4101
18.2298
18.0458
17.8555
17.653
17.4323
17.1884
16.9151
16.6046
16.2504
15.8534
15.4205
14.9559
14.4602
13.9328
13.3715
12.7736
12.1377
11.4627
10.7482
9.99418
9.20172
8.37249
7.50899
6.61421
5.69188
4.74601
3.78098
2.80158
1.81261
0.819091
-0.173742
-1.16062
-2.13609
-3.09464
-4.03052
-4.93808
-5.8116
-6.64554
-7.43448
-8.17326
-8.85728
-9.48237
-10.0449
-10.5422
-10.9721
-11.3333
-11.6254
-11.8487
-12.0042
-12.0939
-12.1201
-12.086
-11.9949
-11.8508
-11.6579
-11.4203
-11.1427
-10.8294
-10.4847
-10.1129
-9.7181
-9.30409
-8.87421
-8.49128
-8.13562
-7.77538
-7.35793
-6.99188
-6.4574
-6.20704
15.8212
15.6745
15.5189
15.3657
15.2098
15.0498
14.8863
14.7166
14.5355
14.3378
14.1187
13.8723
13.5918
13.2726
12.9167
12.531
12.1199
11.6858
11.2301
10.7524
10.2513
9.72596
9.17549
8.59905
7.99589
7.36545
6.70748
6.02209
5.30996
4.5722
3.81054
3.0274
2.22564
1.40873
0.580679
-0.254124
-1.09089
-1.92461
-2.74995
-3.56152
-4.35385
-5.12151
-5.8591
-6.56136
-7.22341
-7.84062
-8.40877
-8.92422
-9.38384
-9.78522
-10.1267
-10.4071
-10.6264
-10.7847
-10.8834
-10.9241
-10.9092
-10.8413
-10.7238
-10.5601
-10.354
-10.1093
-9.82995
-9.51991
-9.18313
-8.82338
-8.44369
-8.10144
-7.77966
-7.45315
-7.06836
-6.73408
13.6172
13.4932
13.3598
13.2267
13.0903
12.95
12.8075
12.6625
12.5129
12.3549
12.1844
11.9974
11.7888
11.5525
11.284
10.9836
10.6556
10.3034
9.92885
9.53373
9.1181
8.68101
8.22201
7.74106
7.23816
6.71332
6.16665
5.59834
5.00883
4.39861
3.76845
3.11946
2.45297
1.77074
1.075
0.368361
-0.346065
-1.06478
-1.78381
-2.49889
-3.20548
-3.89886
-4.57415
-5.22642
-5.85088
-6.44287
-6.99792
-7.51197
-7.98131
-8.40279
-8.77379
-9.09227
-9.35689
-9.56689
-9.72223
-9.8235
-9.87184
-9.86901
-9.81718
-9.71897
-9.57738
-9.3956
-9.17705
-8.92521
-8.64367
-8.33616
-8.00528
-7.70297
-7.41465
11.8026
11.6974
11.5838
11.4689
11.3498
11.226
11.0994
10.971
10.8406
10.7066
10.5663
10.4163
10.2536
10.0741
9.87297
9.6461
9.39299
9.1165
8.81908
8.50223
8.16752
7.81492
7.44321
7.05158
6.63974
6.20751
5.75484
5.28181
4.78874
4.2761
3.74457
3.19509
2.62875
2.04688
1.45114
0.843412
0.225889
-0.398904
-1.02811
-1.65856
-2.28678
-2.90904
-3.52136
-4.11955
-4.69937
-5.25653
-5.78682
-6.28616
-6.75068
-7.1769
-7.5617
-7.90237
-8.19682
-8.44341
-8.64118
-8.78972
-8.88919
-8.94035
-8.94445
-8.90322
-8.81884
-8.69378
-8.53084
-8.33303
-8.10342
-7.8456
10.2869
10.1976
10.1014
10.0037
9.90125
9.79286
9.68061
9.56594
9.4493
9.33064
9.20904
9.08231
8.9477
8.80265
8.64394
8.46748
8.26958
8.04938
7.80901
7.55062
7.27568
6.98579
6.68119
6.36079
6.02366
5.66934
5.29756
4.90806
4.50073
4.07556
3.63273
3.17272
2.6961
2.20374
1.69679
1.17661
0.644874
0.10351
-0.445256
-0.998918
-1.55472
-2.10965
-2.66045
-3.20364
-3.73559
-4.25255
-4.7507
-5.22626
-5.67548
-6.09484
-6.48104
-6.83106
-7.14231
-7.4126
-7.64024
-7.82405
-7.96339
-8.05814
-8.10872
-8.11602
-8.08143
-8.0067
9.04458
8.96824
8.88614
8.80274
8.71541
8.62225
8.52394
8.42201
8.31751
8.21095
8.10251
7.99158
7.8765
7.75501
7.6249
7.48348
7.32717
7.15258
6.95851
6.74641
6.5182
6.27532
6.01932
5.75077
5.46881
5.17255
4.86157
4.53567
4.19467
3.83842
3.46684
3.08008
2.67832
2.26197
1.83165
1.38818
0.932605
0.466242
-0.00930323
-0.492179
-0.980269
-1.47121
-1.96236
-2.45083
-2.9336
-3.40741
-3.86891
-4.31468
-4.74125
-5.14525
-5.52342
-5.87263
-6.19005
-6.47316
-6.7198
-6.92824
-7.09719
8.01284
7.94732
7.87688
7.80509
7.72993
7.65018
7.56578
7.47677
7.38387
7.28819
7.19049
7.09102
6.98945
6.88455
6.77451
6.65739
6.5309
6.39198
6.23748
6.06591
5.87811
5.67576
5.46017
5.23281
4.99443
4.74439
4.4818
4.20621
3.91749
3.6155
3.30012
2.97136
2.62928
2.27405
1.90606
1.52577
1.13386
0.73118
0.31883
-0.101885
-0.529431
-0.96204
-1.39768
-1.83406
-2.26872
-2.69897
-3.12194
-3.53464
-3.93399
-4.31686
7.1381
7.08164
7.02099
6.95907
6.89415
6.82517
6.75247
6.67604
6.5953
6.51045
6.42262
6.33273
6.24114
6.14772
6.05165
5.95141
5.84534
5.7315
5.60727
5.46974
5.31723
5.15012
4.9698
4.77749
4.57455
4.36195
4.13921
3.90543
3.66015
3.4032
3.13446
2.85388
2.5614
2.25705
1.94104
1.61364
1.27527
0.92653
)
;

boundaryField
{
    inlet
    {
        type            freestreamPressure;
        freestreamValue uniform 0;
        value           nonuniform List<scalar> 
11
(
-3.17464
-2.91866
-2.9296
-2.98656
-3.02891
-3.04998
-3.07038
-3.12302
-3.25494
-3.41481
-3.76575
)
;
    }
    outlet
    {
        type            freestreamPressure;
        freestreamValue nonuniform List<scalar> 0();
        value           nonuniform List<scalar> 0();
    }
    walls
    {
        type            zeroGradient;
    }
    frontAndBack
    {
        type            empty;
    }
    procBoundary6to2
    {
        type            processor;
        value           nonuniform List<scalar> 
13
(
106.566
47.3222
29.4218
27.9798
23.7487
19.0755
15.9268
13.7104
11.8833
10.3568
9.10547
8.06595
7.18443
)
;
    }
    procBoundary6to3
    {
        type            processor;
        value           uniform 6.38747;
    }
    procBoundary6to5
    {
        type            processor;
        value           nonuniform List<scalar> 
86
(
-127.67
-127.205
-126.646
-125.894
-124.873
-123.771
-122.653
-121.496
-120.296
-119.039
-117.724
-116.356
-114.935
-113.459
-111.927
-110.339
-108.694
-106.992
-105.233
-103.416
-101.542
-99.6113
-97.6248
-95.5835
-93.4891
-91.3424
-89.1475
-86.9053
-84.62
-82.2954
-79.9352
-77.5444
-75.1283
-75.1283
-83.8296
-80.4935
-77.1891
-73.926
-70.713
-67.5585
-64.4701
-61.4544
-58.5172
-55.6635
-52.8974
-50.2219
-50.2219
-50.5112
-47.7109
-45.0368
-42.4867
-40.0573
-37.7454
-35.547
-33.458
-31.474
-31.474
-30.4192
-28.5392
-26.7608
-25.0783
-23.4863
-21.9791
-20.5517
-20.5517
-19.5016
-18.185
-16.9368
-15.7524
-14.6267
-13.5564
-12.6975
-12.6975
-12.1039
-11.3712
-10.6198
-9.8679
-9.07107
-8.34839
-7.41419
-6.92888
-5.44424
-5.44424
-5.90059
-2.5556
-6.35444
)
;
    }
    procBoundary6to7
    {
        type            processor;
        value           nonuniform List<scalar> 
91
(
-8.35235
-8.35235
-1.17348
-1.17348
-5.94142
-5.94142
-3.90487
-5.35814
-3.90487
-5.61026
-6.2318
-5.35814
-6.00685
-7.12148
-6.76942
-6.2318
-6.46667
-7.56164
-7.29802
-7.12148
-7.04243
-7.89395
-7.74562
-7.56427
-7.56164
-7.3532
-7.22585
-7.31391
-7.36151
-7.36931
-7.89395
-7.33835
-4.68017
-5.02089
-5.33613
-5.62322
-5.87975
-6.10362
-7.22585
-6.2931
0.568168
0.201119
-0.173492
-0.554356
-0.939925
-1.32842
-1.7179
-2.10618
-2.49087
-2.86947
-3.23929
-4.68017
-3.59757
6.33867
6.28628
6.23272
6.1766
6.1169
6.05376
5.98752
5.91804
5.84464
5.76712
5.68634
5.60337
5.51873
5.43248
5.34405
5.25226
5.1556
5.05247
4.94066
4.81749
4.68112
4.53152
4.36984
4.19725
4.01504
3.82425
3.62465
3.41539
3.19592
2.96609
2.72585
2.47508
2.21374
1.94187
1.65961
1.36718
0.568168
1.06495
)
;
    }
}


// ************************************************************************* //
