# p  FACE_DATA 600
# x y z  p
0.29893883 -0.05 0.060006728 11682.144
0.29682219 -0.05 0.060005155 11690.363
0.29471691 -0.05 0.060001576 11700.545
0.29262294 -0.05 0.05999591 11710.555
0.29054021 -0.05 0.059988277 11719.996
0.28846868 -0.05 0.059978645 11730.736
0.28640827 -0.05 0.059967018 11740.321
0.28435895 -0.05 0.059953476 11750.718
0.28232063 -0.05 0.05993795 11761.274
0.28029328 -0.05 0.059920485 11771.64
0.27827682 -0.05 0.059901123 11782.058
0.27627121 -0.05 0.059879855 11792.804
0.27427639 -0.05 0.05985667 11803.695
0.2722923 -0.05 0.059831621 11814.279
0.27031889 -0.05 0.059804697 11825.532
0.26835611 -0.05 0.05977592 11836.108
0.26640388 -0.05 0.059745343 11847.076
0.26446217 -0.05 0.059712935 11858.24
0.26253092 -0.05 0.059678711 11869.498
0.26061007 -0.05 0.059642689 11880.938
0.25869957 -0.05 0.059604861 11892.533
0.25679937 -0.05 0.059565286 11903.686
0.25490941 -0.05 0.05952394 11915.779
0.25302965 -0.05 0.059480841 11926.961
0.25116001 -0.05 0.059436049 11938.66
0.24930047 -0.05 0.059389522 11950.496
0.24745095 -0.05 0.059341283 11962.446
0.24561142 -0.05 0.059291325 11974.836
0.24378182 -0.05 0.05923967 11986.862
0.24196209 -0.05 0.059186367 11998.91
0.24015219 -0.05 0.059131421 12011.02
0.23835206 -0.05 0.059074821 12023.371
0.23656166 -0.05 0.059016618 12035.274
0.23478094 -0.05 0.058956769 12048.599
0.23300984 -0.05 0.05889526 12060.914
0.23124831 -0.05 0.05883224 12072.856
0.22949632 -0.05 0.058767617 12086.492
0.22775381 -0.05 0.058701363 12099.222
0.22602071 -0.05 0.058633589 12111.906
0.22429701 -0.05 0.058564274 12124.751
0.22258262 -0.05 0.058493448 12137.394
0.22087753 -0.05 0.058421069 12151.334
0.21918166 -0.05 0.058347132 12164.375
0.21749499 -0.05 0.058271731 12177.398
0.21581745 -0.05 0.058194856 12190.529
0.21414901 -0.05 0.058116493 12204
0.21248962 -0.05 0.05803665 12217.515
0.21083923 -0.05 0.057955337 12231.251
0.20919779 -0.05 0.057872577 12244.78
0.20756526 -0.05 0.057788393 12258.528
0.20594158 -0.05 0.057702763 12272.627
0.20432673 -0.05 0.057615706 12286.357
0.20272065 -0.05 0.057527277 12299.885
0.20112329 -0.05 0.057437457 12314.022
0.19953461 -0.05 0.05734625 12328.132
0.19795458 -0.05 0.057253621 12343.146
0.19638314 -0.05 0.057159665 12356.253
0.19482023 -0.05 0.05706438 12371.314
0.19326584 -0.05 0.056967732 12385.131
0.19171991 -0.05 0.056869749 12400.128
0.19018239 -0.05 0.056770463 12413.858
0.18865324 -0.05 0.056669846 12429.616
0.18713243 -0.05 0.056567899 12443.74
0.18561991 -0.05 0.056464666 12459.261
0.18411563 -0.05 0.056360132 12473.743
0.18261956 -0.05 0.056254318 12489.166
0.18113166 -0.05 0.056147258 12503.118
0.17965186 -0.05 0.056038987 12518.406
0.17818015 -0.05 0.05592942 12534.055
0.17671648 -0.05 0.055818588 12549.392
0.1752608 -0.05 0.05570656 12564.208
0.17381309 -0.05 0.055593325 12579.806
0.17237329 -0.05 0.055478844 12595.389
0.17094135 -0.05 0.055363199 12610.419
0.16951726 -0.05 0.055246341 12627.141
0.16810097 -0.05 0.055128259 12642.63
0.16669242 -0.05 0.05500905 12658.232
0.16529159 -0.05 0.054888659 12674.646
0.16389844 -0.05 0.054767078 12690.655
0.16251292 -0.05 0.054644372 12706.355
0.161135 -0.05 0.054520532 12722.518
0.15976465 -0.05 0.054395554 12738.519
0.15840181 -0.05 0.054269449 12755.166
0.15704647 -0.05 0.054142171 12772.245
0.15569857 -0.05 0.05401378 12788.176
0.15435807 -0.05 0.053884336 12804.334
0.15302494 -0.05 0.053753791 12820.97
0.15169915 -0.05 0.053622161 12837.592
0.15038066 -0.05 0.053489407 12855.408
0.14906942 -0.05 0.053355551 12871.887
0.1477654 -0.05 0.053220679 12888.649
0.14646858 -0.05 0.053084715 12906.412
0.1451789 -0.05 0.052947683 12923.105
0.14389634 -0.05 0.052809659 12940.035
0.14262085 -0.05 0.05267058 12958.018
0.14135242 -0.05 0.052530426 12975.927
0.14009099 -0.05 0.052389231 12993.732
0.13883652 -0.05 0.052247036 13010.979
0.137589 -0.05 0.052103837 13028.868
0.13634838 -0.05 0.051959625 13046.077
0.13511461 -0.05 0.051814476 13063.528
0.1338877 -0.05 0.051668228 13083.793
0.13266759 -0.05 0.051520967 13099.868
0.13145422 -0.05 0.051372868 13117.512
0.13024759 -0.05 0.051223701 13137.553
0.12904768 -0.05 0.051073499 13155.74
0.12785442 -0.05 0.050922382 13174.07
0.12666779 -0.05 0.050770303 13192.848
0.12548777 -0.05 0.050617245 13211.922
0.12431431 -0.05 0.050463216 13230.439
0.12314738 -0.05 0.050308326 13247.859
0.12198694 -0.05 0.050152493 13268.467
0.12083299 -0.05 0.049995623 13288.375
0.11968547 -0.05 0.049837846 13307.325
0.11854435 -0.05 0.049679176 13326.698
0.11740961 -0.05 0.049519574 13346.42
0.11628122 -0.05 0.049359037 13366.309
0.11515913 -0.05 0.049197589 13385.93
0.11404333 -0.05 0.049035234 13405.696
0.11293377 -0.05 0.048871989 13425.077
0.11183042 -0.05 0.048707847 13445.04
0.11073327 -0.05 0.048542821 13464.863
0.10964229 -0.05 0.048376866 13486.438
0.10855744 -0.05 0.048209982 13506.88
0.10747868 -0.05 0.048042235 13527.666
0.106406 -0.05 0.04787359 13548.715
0.10533935 -0.05 0.047704062 13569.604
0.10427873 -0.05 0.047533647 13590.713
0.10322407 -0.05 0.047362394 13610.465
0.10217537 -0.05 0.04719032 13631.557
0.10113259 -0.05 0.047017348 13653.821
0.10009572 -0.05 0.046843455 13676.653
0.099064719 -0.05 0.046668685 13698.223
0.098039551 -0.05 0.046493118 13718.949
0.097020189 -0.05 0.046316733 13740.893
0.096006622 -0.05 0.046139442 13764.291
0.094998822 -0.05 0.045961241 13787.257
0.09399675 -0.05 0.045782217 13809.203
0.093000378 -0.05 0.045602371 13831.874
0.092009685 -0.05 0.045421665 13854.606
0.091024643 -0.05 0.045240119 13877.564
0.090045231 -0.05 0.045057701 13901.53
0.089071419 -0.05 0.044874428 13924.431
0.088103174 -0.05 0.044690349 13947.545
0.087140475 -0.05 0.044505439 13971.202
0.086183303 -0.05 0.044319663 13995.639
0.08523163 -0.05 0.044133032 14019.575
0.084285425 -0.05 0.043945577 14043.599
0.083344663 -0.05 0.043757308 14067.884
0.082409326 -0.05 0.043568191 14093.682
0.081479394 -0.05 0.04337819 14119.371
0.080554831 -0.05 0.043187382 14143.723
0.079635605 -0.05 0.042995792 14169.194
0.078721718 -0.05 0.042803304 14196.349
0.077813136 -0.05 0.042609969 14221.603
0.076909826 -0.05 0.042415818 14248.401
0.07601178 -0.05 0.042220793 14274.844
0.075118966 -0.05 0.042024933 14301.239
0.074231361 -0.05 0.041828237 14327.477
0.073348934 -0.05 0.04163074 14353.619
0.072471679 -0.05 0.041432371 14381.806
0.071599572 -0.05 0.041233139 14408.531
0.070732583 -0.05 0.041033074 14436.713
0.069870697 -0.05 0.040832148 14464.13
0.069013884 -0.05 0.040630397 14492.17
0.068162134 -0.05 0.040427777 14520.825
0.067315419 -0.05 0.040224307 14549.331
0.06647372 -0.05 0.040019973 14579.554
0.065637027 -0.05 0.039814748 14609.951
0.06480531 -0.05 0.039608654 14640.592
0.063978543 -0.05 0.039401719 14670.467
0.063156705 -0.05 0.039193946 14701.191
0.062339788 -0.05 0.038985286 14732.596
0.061527775 -0.05 0.038775725 14764.698
0.060720649 -0.05 0.038565255 14797.188
0.059918385 -0.05 0.038353894 14829.534
0.059120963 -0.05 0.03814165 14862.25
0.058328367 -0.05 0.037928504 14895.102
0.057540575 -0.05 0.037714473 14927.288
0.056757564 -0.05 0.037499567 14959.971
0.055979327 -0.05 0.037283751 14994.121
0.055205861 -0.05 0.03706696 15029.963
0.054437144 -0.05 0.036849222 15064.816
0.053673142 -0.05 0.036630582 15099.865
0.052913841 -0.05 0.036411033 15134.757
0.052159229 -0.05 0.036190552 15170.951
0.051409301 -0.05 0.035969101 15208.041
0.050664044 -0.05 0.035746666 15245.837
0.049923426 -0.05 0.035523297 15283.495
0.049187444 -0.05 0.035298949 15323.981
0.048456093 -0.05 0.035073588 15363.591
0.047729344 -0.05 0.034847258 15403.585
0.047007184 -0.05 0.034619944 15443.775
0.046289611 -0.05 0.034391604 15485.216
0.045576607 -0.05 0.034162252 15526.01
0.044868158 -0.05 0.033931882 15568.389
0.044164259 -0.05 0.033700465 15610.468
0.043464894 -0.05 0.033468005 15653.462
0.042770054 -0.05 0.033234487 15697.278
0.042079734 -0.05 0.032999885 15743.186
0.041393929 -0.05 0.032764174 15789.688
0.040712625 -0.05 0.032527361 15836.553
0.040035798 -0.05 0.032289471 15883.044
0.039363443 -0.05 0.032050489 15931.177
0.038695563 -0.05 0.031810365 15980.643
0.038032168 -0.05 0.031569045 16031.488
0.037373226 -0.05 0.031326581 16081.081
0.036718733 -0.05 0.03108296 16132.888
0.036068678 -0.05 0.030838173 16184.27
0.035423063 -0.05 0.030592193 16239.823
0.034781926 -0.05 0.030344893 16295.567
0.034145213 -0.05 0.030096392 16349.519
0.033512917 -0.05 0.029846677 16406.149
0.032885063 -0.05 0.029595666 16464.162
0.032261651 -0.05 0.029343341 16524.584
0.031642677 -0.05 0.029089693 16584.874
0.031028119 -0.05 0.028834753 16645.458
0.030417982 -0.05 0.028578493 16707.751
0.029812303 -0.05 0.028320809 16772.546
0.029211079 -0.05 0.0280617 16836.428
0.028614285 -0.05 0.027801211 16901.284
0.028021925 -0.05 0.027539318 16967.636
0.027434034 -0.05 0.027275938 17037.318
0.026850619 -0.05 0.027011044 17106.688
0.026271654 -0.05 0.026744689 17177.767
0.025697179 -0.05 0.02647678 17252.393
0.025127212 -0.05 0.026207275 17327.173
0.024561729 -0.05 0.025936225 17402.731
0.024000753 -0.05 0.025663583 17481.374
0.023444336 -0.05 0.025389243 17562.137
0.022892447 -0.05 0.025113275 17642.551
0.022345135 -0.05 0.024835581 17728.968
0.02180243 -0.05 0.024556113 17812.648
0.021264293 -0.05 0.024274957 17899.014
0.0207308 -0.05 0.023991978 17988.717
0.020201992 -0.05 0.023707108 18079.877
0.019677842 -0.05 0.023420417 18170.567
0.019158403 -0.05 0.023131824 18265.795
0.018643727 -0.05 0.022841258 18360.954
0.018133826 -0.05 0.022548716 18459.302
0.017628739 -0.05 0.022254151 18558.261
0.017128471 -0.05 0.021957583 18660.855
0.016633127 -0.05 0.021658866 18770.011
0.016142724 -0.05 0.021358 18880.375
0.015657283 -0.05 0.021054987 18999.356
0.015176888 -0.05 0.020749728 19124.471
0.014701579 -0.05 0.020442196 19257.049
0.014231398 -0.05 0.020132367 19395.531
0.013766434 -0.05 0.019820157 19541.645
0.013306742 -0.05 0.019505528 19690.165
0.012852374 -0.05 0.019188457 19844.262
0.012403439 -0.05 0.018868841 20000.901
0.01195997 -0.05 0.018546687 20160.123
0.011522076 -0.05 0.018221915 20324.087
0.011089809 -0.05 0.017894514 20490.716
0.0106633 -0.05 0.017564386 20666.051
0.010242659 -0.05 0.01723145 20842.672
0.009827894 -0.05 0.016895788 21025.466
0.0094192167 -0.05 0.016557218 21218.239
0.0090167438 -0.05 0.016215673 21413.52
0.0086204858 -0.05 0.015871238 21614.971
0.0082306648 -0.05 0.015523765 21828.179
0.0078474301 -0.05 0.015173187 22045.598
0.00747084 -0.05 0.014819531 22269.515
0.0071010571 -0.05 0.014462741 22501.878
0.0067383047 -0.05 0.014102727 22745.436
0.0063827544 -0.05 0.013739427 22994.745
0.0060345067 -0.05 0.013372862 23247.835
0.0056937565 -0.05 0.013003011 23506.01
0.0053606882 -0.05 0.012629837 23770.779
0.0050354824 -0.05 0.012253323 24047.488
0.0047183926 -0.05 0.01187344 24335.986
0.0044096379 -0.05 0.011490161 24634.067
0.0041094132 -0.05 0.011103483 24941.44
0.0038179536 -0.05 0.010713443 25257.729
0.0035354728 -0.05 0.01032007 25582.662
0.0032621919 -0.05 0.0099233916 25916.85
0.0029983702 -0.05 0.0095234712 26259.456
0.0027442429 -0.05 0.0091203468 26609.29
0.0025000604 -0.05 0.0087141009 26965.945
0.0022660754 -0.05 0.0083048554 27329.39
0.0020425146 -0.05 0.0078926699 27699.659
0.0018296563 -0.05 0.0074776735 28075.822
0.0016277487 -0.05 0.0070600557 28455.595
0.0014369745 -0.05 0.006639968 28837.898
0.0012575291 -0.05 0.0062175973 29222.309
0.0010896146 -0.05 0.0057931737 29608.967
0.00093341056 -0.05 0.0053669215 29994.544
0.00078906403 -0.05 0.0049390744 30377.199
0.00065670868 -0.05 0.0045099018 30755.793
0.00053653171 -0.05 0.0040796665 31130.159
0.00042862038 -0.05 0.003648665 31495.574
0.00033294635 -0.05 0.003217232 31850.898
0.00024951873 -0.05 0.002785685 32196.039
0.00017832254 -0.05 0.0023543467 32529.342
0.00011930806 -0.05 0.0019235435 32848.471
7.2389968e-05 -0.05 0.0014936046 33152.08
3.7448892e-05 -0.05 0.0010648563 33439.57
1.4332163e-05 -0.05 0.0006376208 33710.756
2.8544133e-06 -0.05 0.00021221054 33962.644
0.99884037 -0.05 0.00016828408 26489.421
0.99652103 -0.05 0.00050440213 26482.815
0.99420154 -0.05 0.0008395204 26450.445
0.99188191 -0.05 0.0011736208 26425.219
0.98956214 -0.05 0.0015067636 26397.08
0.98724223 -0.05 0.001838948 26370.095
0.9849222 -0.05 0.0021701636 26342.792
0.98260202 -0.05 0.0025004302 26315.71
0.98028169 -0.05 0.0028297328 26288.671
0.97796124 -0.05 0.0031580577 26261.694
0.97564065 -0.05 0.0034854377 26234.765
0.97331994 -0.05 0.0038118591 26207.881
0.97099908 -0.05 0.0041373159 26181.033
0.96867809 -0.05 0.0044618578 26154.184
0.96635696 -0.05 0.0047854478 26127.411
0.96403572 -0.05 0.0051081172 26100.576
0.96171435 -0.05 0.0054299032 26073.806
0.95939284 -0.05 0.0057507069 26047.07
0.95707121 -0.05 0.0060705875 26020.31
0.95474946 -0.05 0.0063895914 25993.581
0.95242757 -0.05 0.0067076389 25966.921
0.95010556 -0.05 0.0070248024 25940.178
0.94778344 -0.05 0.0073411105 25913.517
0.94546118 -0.05 0.0076564368 25886.923
0.94313881 -0.05 0.007970866 25860.284
0.94081631 -0.05 0.0082844406 25833.705
0.93849369 -0.05 0.0085971026 25807.169
0.93617096 -0.05 0.0089088655 25780.668
0.9338481 -0.05 0.0092197817 25754.153
0.93152513 -0.05 0.0095298292 25727.727
0.92920205 -0.05 0.00983897 25701.331
0.92687884 -0.05 0.010147248 25674.972
0.92455553 -0.05 0.01045465 25648.677
0.92223209 -0.05 0.010761189 25622.391
0.91990855 -0.05 0.011066875 25596.196
0.91758488 -0.05 0.011371653 25570.098
0.91526111 -0.05 0.011675608 25543.932
0.91293723 -0.05 0.011978761 25517.884
0.91061324 -0.05 0.012281 25491.954
0.90828913 -0.05 0.012582372 25466.018
0.90596492 -0.05 0.012882964 25440.096
0.90364059 -0.05 0.013182677 25414.396
0.90131615 -0.05 0.013481494 25388.68
0.89899162 -0.05 0.013779572 25362.908
0.89666698 -0.05 0.014076842 25337.341
0.89434222 -0.05 0.014373142 25311.943
0.89201737 -0.05 0.014668681 25286.328
0.88969241 -0.05 0.014963453 25261.012
0.88736734 -0.05 0.0152573 25235.747
0.88504217 -0.05 0.015550344 25210.488
0.8827169 -0.05 0.015842646 25185.24
0.88039152 -0.05 0.016134071 25160.278
0.87806604 -0.05 0.016424635 25135.23
0.87574046 -0.05 0.016714466 25110.271
0.87341478 -0.05 0.017003468 25085.445
0.871089 -0.05 0.017291665 25060.623
0.86876312 -0.05 0.017579058 25035.953
0.86643714 -0.05 0.017865646 25011.276
0.86411107 -0.05 0.018151445 24986.752
0.86178489 -0.05 0.018436407 24962.302
0.85945862 -0.05 0.018720606 24937.826
0.85713225 -0.05 0.019004019 24913.535
0.85480578 -0.05 0.019286574 24889.36
0.85247921 -0.05 0.019568355 24865.15
0.85015256 -0.05 0.019849418 24841
0.84782581 -0.05 0.020129657 24817.053
0.84549896 -0.05 0.020409081 24793.085
0.84317202 -0.05 0.020687756 24769.176
0.84084499 -0.05 0.020965643 24745.39
0.83851786 -0.05 0.021242672 24721.8
0.83619063 -0.05 0.021518954 24698.055
0.83386332 -0.05 0.021794529 24674.483
0.83153592 -0.05 0.022069294 24650.988
0.82920841 -0.05 0.022343258 24627.593
0.82688083 -0.05 0.02261648 24604.143
0.82455316 -0.05 0.022888925 24580.896
0.82222538 -0.05 0.023160547 24557.691
0.81989751 -0.05 0.023431389 24534.58
0.81756956 -0.05 0.023701494 24511.437
0.81524153 -0.05 0.023970846 24488.446
0.8129134 -0.05 0.024239417 24465.456
0.81058518 -0.05 0.02450723 24442.564
0.80825687 -0.05 0.024774258 24419.736
0.80592849 -0.05 0.02504053 24396.948
0.8036 -0.05 0.025306023 24374.267
0.80127144 -0.05 0.025570774 24351.515
0.79894279 -0.05 0.025834763 24328.973
0.79661404 -0.05 0.026097924 24306.449
0.79428522 -0.05 0.026360374 24283.867
0.79195631 -0.05 0.026622048 24261.519
0.78962731 -0.05 0.026882938 24239.061
0.78729823 -0.05 0.027143126 24216.692
0.78496906 -0.05 0.027402517 24194.434
0.78263981 -0.05 0.02766117 24172.047
0.78031048 -0.05 0.027919081 24149.863
0.77798106 -0.05 0.028176144 24127.746
0.77565155 -0.05 0.028432494 24105.477
0.77332196 -0.05 0.028688107 24083.413
0.77099228 -0.05 0.028942908 24061.322
0.76866253 -0.05 0.029196968 24039.238
0.7663327 -0.05 0.029450285 24017.174
0.76400278 -0.05 0.029702803 23995.215
0.76167277 -0.05 0.029954568 23973.151
0.75934268 -0.05 0.030205573 23951.247
0.75701251 -0.05 0.030455803 23929.234
0.75468227 -0.05 0.030705313 23907.26
0.75235193 -0.05 0.030954045 23885.303
0.75002152 -0.05 0.031202018 23863.315
0.74769103 -0.05 0.031449207 23841.405
0.74536045 -0.05 0.031695625 23819.409
0.7430298 -0.05 0.031941289 23797.453
0.74069906 -0.05 0.032186181 23775.437
0.73836824 -0.05 0.032430305 23753.454
0.73603734 -0.05 0.032673645 23731.447
0.73370637 -0.05 0.032916233 23709.353
0.73137531 -0.05 0.033158092 23687.19
0.72904417 -0.05 0.033399148 23665.119
0.72671295 -0.05 0.033639377 23642.968
0.72438166 -0.05 0.03387888 23620.658
0.72205028 -0.05 0.034117645 23598.352
0.71971882 -0.05 0.034355552 23576.104
0.71738729 -0.05 0.034592685 23553.597
0.71505567 -0.05 0.034829099 23531.105
0.71272397 -0.05 0.035064674 23508.572
0.71039219 -0.05 0.035299486 23485.825
0.70806035 -0.05 0.035533544 23463.078
0.70572841 -0.05 0.035766778 23440.203
0.70339641 -0.05 0.035999269 23417.137
0.70106433 -0.05 0.03623098 23394.017
0.69873216 -0.05 0.036461892 23370.701
0.69639992 -0.05 0.036691978 23347.336
0.69406759 -0.05 0.036921269 23323.699
0.69173519 -0.05 0.03714974 23300.077
0.68940271 -0.05 0.037377398 23276.12
0.68707015 -0.05 0.037604327 23251.998
0.68473752 -0.05 0.03783047 23227.643
0.68240481 -0.05 0.038055756 23203.194
0.68007201 -0.05 0.038280206 23178.429
0.67773914 -0.05 0.038503859 23153.492
0.67540619 -0.05 0.03872673 23128.201
0.67307317 -0.05 0.038948784 23102.762
0.67074007 -0.05 0.039170028 23076.908
0.66840689 -0.05 0.039390456 23050.889
0.66607364 -0.05 0.039610024 23024.478
0.6637403 -0.05 0.039828774 22997.811
0.66140688 -0.05 0.040046679 22970.764
0.6590734 -0.05 0.040263799 22943.312
0.65673983 -0.05 0.040480084 22915.554
0.65440618 -0.05 0.040695489 22887.385
0.65207246 -0.05 0.040910082 22858.771
0.64973866 -0.05 0.041123838 22829.762
0.64740478 -0.05 0.04133674 22800.268
0.64507083 -0.05 0.041548788 22770.348
0.6427368 -0.05 0.04175995 22739.937
0.64040268 -0.05 0.041970278 22708.983
0.6380685 -0.05 0.042179753 22677.539
0.63573424 -0.05 0.042388355 22645.516
0.63339989 -0.05 0.042596094 22612.951
0.63106547 -0.05 0.042802945 22579.787
0.62873097 -0.05 0.04300894 22545.993
0.6263964 -0.05 0.043214055 22511.596
0.62406174 -0.05 0.043418269 22476.536
0.62172702 -0.05 0.043621601 22440.808
0.61939221 -0.05 0.043824069 22404.355
0.61705733 -0.05 0.044025645 22367.221
0.61472237 -0.05 0.044226271 22329.362
0.61238733 -0.05 0.044426006 22290.714
0.61005222 -0.05 0.04462488 22251.29
0.60771702 -0.05 0.044822825 22211.078
0.60538174 -0.05 0.045019806 22170.051
0.6030464 -0.05 0.045215861 22128.185
0.60071097 -0.05 0.045411024 22085.482
0.59837546 -0.05 0.045605254 22041.929
0.59603988 -0.05 0.045798556 21997.473
0.59370423 -0.05 0.045990938 21952.133
0.59136849 -0.05 0.046182352 21905.88
0.58903267 -0.05 0.046372791 21858.708
0.58669678 -0.05 0.046562266 21810.598
0.5843608 -0.05 0.046750814 21761.527
0.58202475 -0.05 0.046938396 21711.505
0.57968862 -0.05 0.047124972 21660.52
0.57735242 -0.05 0.047310579 21608.598
0.57501614 -0.05 0.047495251 21555.714
0.57267978 -0.05 0.047678924 21501.837
0.57034334 -0.05 0.04786155 21446.937
0.56800683 -0.05 0.048043188 21391.098
0.56567024 -0.05 0.048223861 21334.255
0.56333356 -0.05 0.048403536 21276.429
0.56099681 -0.05 0.048582153 21217.655
0.55865998 -0.05 0.04875972 21157.883
0.55632308 -0.05 0.048936314 21097.108
0.55398609 -0.05 0.049111879 21035.456
0.55164903 -0.05 0.049286359 20972.886
0.54931189 -0.05 0.049459794 20909.392
0.54697467 -0.05 0.049632163 20844.982
0.54463737 -0.05 0.049803468 20779.673
0.5423 -0.05 0.049973719 20713.479
0.53996254 -0.05 0.050142913 20646.428
0.53762502 -0.05 0.050311035 20578.536
0.53528742 -0.05 0.050478054 20509.829
0.53294973 -0.05 0.050643972 20440.321
0.53061196 -0.05 0.050808824 20370.048
0.52827412 -0.05 0.050972558 20299.036
0.5259362 -0.05 0.051135143 20227.304
0.5235982 -0.05 0.051296612 20154.894
0.52126012 -0.05 0.051456922 20081.845
0.51892198 -0.05 0.051616121 20008.17
0.51658374 -0.05 0.051774162 19933.949
0.51424543 -0.05 0.051931036 19859.157
0.51190704 -0.05 0.05208678 19783.896
0.50956857 -0.05 0.052241321 19708.15
0.50723003 -0.05 0.052394685 19631.998
0.50489141 -0.05 0.052546885 19555.469
0.50255271 -0.05 0.05269791 19478.628
0.50021394 -0.05 0.052847701 19401.524
0.49787509 -0.05 0.052996281 19324.216
0.49553616 -0.05 0.053143654 19246.772
0.49319715 -0.05 0.053289801 19169.225
0.49085807 -0.05 0.053434697 19091.625
0.48851891 -0.05 0.05357832 19013.967
0.48617967 -0.05 0.053720679 18936.262
0.48384036 -0.05 0.053861795 18858.493
0.48150096 -0.05 0.054001669 18780.684
0.4791615 -0.05 0.054140241 18702.863
0.47682195 -0.05 0.054277501 18625.101
0.47448234 -0.05 0.054413462 18547.495
0.47214264 -0.05 0.054548109 18470.145
0.46980287 -0.05 0.054681459 18393.107
0.46746302 -0.05 0.054813494 18316.376
0.4651231 -0.05 0.054944177 18239.782
0.4627831 -0.05 0.055073496 18163.004
0.46044304 -0.05 0.055201437 18085.435
0.45810288 -0.05 0.055328007 18006.241
0.45576266 -0.05 0.055453195 17924.326
0.45342237 -0.05 0.055576996 17838.43
0.451082 -0.05 0.05569938 17747.224
0.44874156 -0.05 0.055820362 17649.152
0.44640104 -0.05 0.055939944 17542.711
0.44406046 -0.05 0.056058044 17424.817
0.4417198 -0.05 0.056174717 17289.729
0.43937906 -0.05 0.05628996 17131.806
0.43703826 -0.05 0.056403696 16942.712
0.43469738 -0.05 0.056515954 16711.53
0.43235643 -0.05 0.056626691 16431.284
0.43001541 -0.05 0.056735938 16085.459
0.42767432 -0.05 0.056843696 15628.08
0.42533317 -0.05 0.056949929 15015.593
0.42299193 -0.05 0.057054582 14268.441
0.42065064 -0.05 0.05715767 13482.051
0.41830927 -0.05 0.057259222 12781.81
0.41596783 -0.05 0.057359191 12246.74
0.41362633 -0.05 0.057457551 11884.336
0.41128476 -0.05 0.057554292 11658.418
0.40894313 -0.05 0.057649427 11526.098
0.40660142 -0.05 0.057742965 11451.904
0.40425966 -0.05 0.057834838 11414.058
0.40191783 -0.05 0.057925023 11395.738
0.39957593 -0.05 0.058013541 11387.855
0.39723398 -0.05 0.058100378 11384.91
0.39489196 -0.05 0.058185525 11384.45
0.39254988 -0.05 0.058268918 11386.005
0.39020774 -0.05 0.058350591 11388.716
0.38786553 -0.05 0.058430541 11392.53
0.38552326 -0.05 0.058508715 11397.139
0.38318094 -0.05 0.058585094 11402.023
0.38083857 -0.05 0.058659688 11407.044
0.37849613 -0.05 0.058732482 11412.243
0.37615364 -0.05 0.058803471 11417.514
0.37381109 -0.05 0.058872605 11423.453
0.37146848 -0.05 0.058939856 11429.257
0.36912583 -0.05 0.059005237 11435.269
0.36678312 -0.05 0.059068742 11441.159
0.36444037 -0.05 0.059130353 11447.377
0.36209757 -0.05 0.059190049 11453.505
0.35975471 -0.05 0.059247824 11459.983
0.35741181 -0.05 0.059303603 11466.971
0.35506885 -0.05 0.059357402 11473.494
0.35272586 -0.05 0.059409225 11480.5
0.35038283 -0.05 0.059459045 11487.231
0.34803975 -0.05 0.059506859 11494.465
0.34569662 -0.05 0.059552581 11502.13
0.34335347 -0.05 0.059596249 11509.158
0.34101027 -0.05 0.059637862 11516.954
0.33866703 -0.05 0.059677333 11524.831
0.33632377 -0.05 0.059714702 11532.576
0.33398046 -0.05 0.059749909 11541.101
0.33163713 -0.05 0.059782951 11548.893
0.32929376 -0.05 0.059813858 11557.236
0.32695037 -0.05 0.059842535 11566.002
0.32460696 -0.05 0.059868968 11574.772
0.32226351 -0.05 0.059893141 11583.826
0.31992004 -0.05 0.059915067 11592.449
0.31757656 -0.05 0.059934727 11601.706
0.31523306 -0.05 0.059952066 11610.982
0.31288954 -0.05 0.059967055 11620.732
0.31054601 -0.05 0.059979678 11630.174
0.30820247 -0.05 0.059989926 11639.912
0.30585891 -0.05 0.059997793 11649.41
0.30351535 -0.05 0.060003209 11660.165
0.30117178 -0.05 0.060006157 11671.019
