/*--------------------------------*- C++ -*----------------------------------*\
| =========                 |                                                 |
| \\      /  F ield         | OpenFOAM: The Open Source CFD Toolbox           |
|  \\    /   O peration     | Version:  2306                                  |
|   \\  /    A nd           | Website:  www.openfoam.com                      |
|    \\/     M anipulation  |                                                 |
\*---------------------------------------------------------------------------*/
FoamFile
{
    version     2.0;
    format      ascii;
    arch        "LSB;label=32;scalar=64";
    class       volScalarField;
    location    "425";
    object      magR;
}
// * * * * * * * * * * * * * * * * * * * * * * * * * * * * * * * * * * * * * //

dimensions      [0 2 -2 0 0 0 0];

internalField   nonuniform List<scalar> 
10720
(
0.023538
0.0274622
0.0324771
0.039289
0.0473598
0.0576332
0.0707696
0.0870426
0.107706
0.134069
0.168129
0.213099
0.273425
0.356422
0.474562
0.647436
0.913674
1.32394
2.04423
3.16546
5.69255
9.51441
22.2743
43.4767
48.1778
46.0951
45.3017
46.1338
47.1581
47.4146
46.7851
45.3879
43.1305
40.0424
36.0553
31.2634
24.7685
18.4841
6.84072
0.020032
0.0171884
0.0140007
0.0112669
0.00868557
0.00635913
0.0044804
0.00335174
0.0035062
0.00474346
0.0070551
0.0106248
0.0158802
0.0234977
0.034339
0.0497159
0.0718253
0.104785
0.156208
0.239903
0.383333
0.637034
1.121
2.05261
4.08369
8.35115
18.6657
38.4622
54.5031
61.3869
63.3395
63.659
63.2924
62.3971
61.0188
59.2334
56.6215
53.5797
43.8863
0.00360469
0.0035844
0.00354304
0.0034405
0.00328197
0.00309976
0.00288482
0.00264314
0.00240398
0.0021695
0.00194594
0.00179066
0.0017693
0.0019439
0.00252449
0.00397254
0.00759023
0.0159144
0.0384352
0.0942131
0.279361
0.771383
2.37063
7.59359
14.8477
22.3412
29.4085
34.4238
35.4261
32.5044
27.7011
22.8387
18.8951
15.8726
13.5508
11.7092
10.4236
9.11414
10.5253
0.0035722
0.00352402
0.00342528
0.00327883
0.00307843
0.00281403
0.00250372
0.0022027
0.00192412
0.00164763
0.00138453
0.00115676
0.000964327
0.000801119
0.000662816
0.000546301
0.000447472
0.00036386
0.000290609
0.000223737
0.000157664
9.31613e-05
3.22833e-05
5.26535e-06
1.34246e-05
0.00191625
0.0103751
0.0836548
0.281747
0.551421
0.824378
1.06464
1.26669
1.44423
1.61011
1.7808
1.96131
2.36382
3.28791
0.00241978
0.00240068
0.00234654
0.00226375
0.00217717
0.00208202
0.00198581
0.00189929
0.00182488
0.00176715
0.00172253
0.00169697
0.00169013
0.00170492
0.00171043
0.00165727
0.00140703
0.00119032
2.15987e-05
0.00168917
0.000378959
0.00146545
5.22388e-05
0.0206921
0.226025
0.802476
2.03171
4.58478
9.03441
14.9077
20.2194
22.8305
22.3173
20.0377
17.3843
14.8933
12.9422
10.721
12.0696
0.00243862
0.00243561
0.00242913
0.00238586
0.00230911
0.00218026
0.00200263
0.00179981
0.00161135
0.00141748
0.00120888
0.00100688
0.000826097
0.00067042
0.000541887
0.000438106
0.000357221
0.00029587
0.000251244
0.000219186
0.0001971
0.000182769
0.000174901
0.000170576
0.000170353
0.000169185
0.000179941
0.000106713
0.000756719
0.00502255
0.0142338
0.02998
0.0675797
0.141401
0.250399
0.383847
0.528973
0.633165
1.08072
0.00204214
0.00204636
0.00203608
0.00201912
0.00198413
0.00193205
0.00186712
0.00178607
0.00169343
0.00159096
0.00148086
0.00136465
0.00124345
0.00111951
0.00099389
0.00086191
0.000729318
0.000616015
0.000471256
0.000338803
7.92576e-05
0.000144677
1.84649e-05
0.00518501
0.0266881
0.0552367
0.0310335
0.0147537
0.0472345
0.451297
1.96209
5.33641
9.99769
13.8729
15.5418
15.3166
14.4038
12.6078
13.5664
0.00202024
0.00198706
0.00193497
0.00187223
0.00179357
0.00169056
0.00157029
0.00144231
0.00130906
0.00116444
0.00101496
0.000874827
0.000751019
0.000644317
0.000554162
0.000478581
0.000416398
0.000365753
0.000325104
0.000292011
0.000265121
0.000242534
0.000222291
0.000201004
0.00017913
0.000160942
0.000147193
0.000137313
0.000125328
0.000109904
8.24907e-05
5.19355e-05
0.000414625
0.00070508
0.00263463
0.0141386
0.0467138
0.117997
0.429379
0.0015321
0.00152939
0.00151745
0.00149615
0.0014632
0.00141852
0.00136452
0.00130202
0.00123305
0.00116185
0.00109069
0.00102244
0.000960141
0.00090569
0.000860412
0.000822351
0.000782336
0.000731587
0.000674114
0.000588902
0.000491956
0.000226098
2.75634e-05
5.53718e-06
0
0
0.0112177
0.0139501
0.0301205
0.0958407
0.0197827
0.0657471
0.40932
2.39629
6.15344
9.97264
12.386
12.8389
14.2839
0.00152813
0.00151732
0.0014958
0.00146134
0.00141275
0.0013439
0.00126153
0.00117308
0.00107878
0.000975267
0.000867584
0.000762215
0.000663259
0.000572435
0.000490963
0.000419361
0.000357802
0.000306016
0.000263399
0.000228655
0.000200605
0.000177734
0.000158416
0.000139991
0.000121266
0.000103972
9.02366e-05
8.07406e-05
7.65755e-05
7.07209e-05
8.65946e-05
2.03324e-05
0.000134551
0.000653088
0.00163584
0.00138244
0.00195877
0.00364731
0.0833408
0.0012558
0.00126116
0.00126065
0.00125615
0.00124381
0.00122381
0.00119703
0.0011624
0.00112064
0.00107288
0.00101953
0.000961856
0.00090121
0.00083867
0.00077535
0.000709715
0.000638204
0.000564819
0.000495633
0.000435699
0.000396369
0.000336944
0.000273919
7.12654e-05
1.23345e-05
5.76989e-06
2.00606e-06
0
0
0
0.00464888
0.0456941
0.00779125
0.110897
0.242972
2.27835
6.36597
10.2634
13.633
0.00124442
0.0012287
0.00120582
0.00117563
0.00113689
0.00108596
0.00102734
0.000964449
0.000896061
0.00082046
0.000741285
0.000662479
0.000587067
0.000516804
0.000452913
0.000396189
0.000346881
0.000304851
0.000269606
0.000240243
0.000215733
0.000194776
0.00017593
0.000157178
0.000137706
0.000119166
0.000102994
8.94591e-05
7.81058e-05
6.86644e-05
6.05695e-05
5.32719e-05
4.27181e-05
2.99771e-05
6.09223e-07
0.000202265
0.000335153
0.000837764
0.00952391
0.00101587
0.00102033
0.00102104
0.00101846
0.00101034
0.000996296
0.00097665
0.000950828
0.000919056
0.000882211
0.000840925
0.000796229
0.000749502
0.000702072
0.000655049
0.000610002
0.000569162
0.000531129
0.000492267
0.000451248
0.00041273
0.000381303
0.000358457
0.000297114
0.000194193
0.000102174
3.01121e-05
6.80103e-06
3.7936e-06
4.78976e-07
0
0
0.000959923
0.0349737
0.0259187
0.155035
1.04589
5.23256
10.9387
0.00100752
0.000996226
0.000979795
0.000957167
0.000927813
0.000890147
0.00084782
0.000801682
0.000750874
0.000695161
0.000636603
0.000577412
0.00051938
0.000463748
0.000411553
0.000363628
0.000320435
0.000282254
0.000249085
0.000220536
0.000196058
0.000174833
0.000155812
0.000137535
0.000119233
0.000101891
8.66466e-05
7.38158e-05
6.31341e-05
5.44619e-05
4.79752e-05
4.37548e-05
4.12117e-05
3.72438e-05
2.78679e-05
3.55355e-06
1.59456e-06
0
0.00205058
0.000841976
0.000847723
0.000851137
0.000852512
0.000850178
0.000843801
0.000833637
0.000818937
0.000799699
0.000776333
0.000748804
0.000717647
0.000683474
0.000646845
0.000608411
0.000568959
0.000527993
0.000484456
0.000440384
0.000398572
0.000361404
0.00033235
0.000312217
0.000297973
0.000269306
0.000225415
0.000172697
0.000115419
6.92339e-05
7.55889e-06
3.57316e-06
1.53991e-07
0
0
0.00393603
0.0103364
0.128702
1.18743
6.55466
0.00083334
0.000822931
0.000808981
0.000790464
0.000767262
0.000738509
0.000707098
0.000672473
0.000634132
0.000592539
0.000548627
0.000503774
0.000459085
0.000415399
0.000373568
0.000334403
0.000298396
0.000265982
0.00023732
0.000212244
0.000190353
0.00017103
0.000153436
0.000136467
0.000119547
0.000103401
8.89176e-05
7.63435e-05
6.54156e-05
5.58907e-05
4.77007e-05
4.0688e-05
3.46842e-05
2.95468e-05
2.6049e-05
2.3641e-05
1.78422e-05
1.88657e-06
0
0.000702353
0.000707889
0.000711922
0.00071444
0.000714348
0.000711283
0.000705316
0.000695787
0.000682614
0.000665918
0.000645646
0.000622082
0.000595645
0.000566758
0.000536049
0.000504011
0.000471377
0.000439413
0.000408234
0.000377814
0.000348592
0.000321883
0.000298823
0.000279155
0.000258092
0.000231879
0.000203951
0.000176099
0.00014862
0.000107621
6.9776e-05
3.09374e-06
1.92815e-06
0
0
0.00110572
0.0400691
0.161211
2.61063
0.000694767
0.000685984
0.000674636
0.000659564
0.000641189
0.000619003
0.000595088
0.0005686
0.00053931
0.000507822
0.000474579
0.000440363
0.000405839
0.00037152
0.000338
0.000305892
0.000275677
0.000247756
0.000222379
0.000199583
0.000179196
0.000160828
0.000143893
0.000127649
0.000111692
9.64875e-05
8.27671e-05
7.0808e-05
6.04561e-05
5.15339e-05
4.40019e-05
3.791e-05
3.32641e-05
3.00196e-05
2.81313e-05
2.83729e-05
3.0667e-05
3.31582e-05
1.3857e-06
0.000592104
0.00059753
0.000602055
0.000605556
0.000607184
0.000606763
0.000604233
0.000599033
0.000591079
0.000580363
0.000566712
0.000550259
0.000531199
0.000509743
0.000486231
0.000461004
0.000434583
0.000406926
0.000378221
0.000349708
0.000322875
0.000298812
0.000277764
0.000258112
0.000237006
0.000212951
0.000188339
0.000166816
0.000150127
0.000136533
0.000122953
8.96738e-05
3.84388e-05
3.35274e-06
0
0
0.00019413
0.020081
0.6862
0.000585158
0.000577505
0.000567968
0.000555439
0.000540625
0.000523311
0.000504678
0.000484053
0.00046146
0.000437335
0.0004119
0.000385623
0.000358848
0.000331847
0.000305058
0.000278931
0.000253834
0.000230172
0.000208199
0.000188046
0.000169671
0.000152839
0.000137148
0.000122106
0.000107406
9.3387e-05
8.06237e-05
6.93633e-05
5.94944e-05
5.08551e-05
4.33839e-05
3.70491e-05
3.1762e-05
2.7607e-05
2.45709e-05
2.39731e-05
2.36542e-05
4.00444e-05
1.8937e-05
0.000502712
0.000507792
0.000512346
0.000516192
0.000518656
0.000519673
0.000519069
0.000516458
0.000511668
0.000504668
0.000495243
0.000483426
0.000469289
0.00045292
0.000434563
0.000414489
0.000393001
0.000370586
0.000347752
0.000324952
0.000302917
0.00028222
0.000263082
0.000244516
0.000224445
0.000201757
0.000178008
0.000156562
0.000139393
0.000126938
0.000117695
0.000112299
9.87977e-05
5.78379e-05
3.75431e-06
0
0
0.00633537
0.175731
0.00049649
0.000489865
0.000481863
0.000471376
0.000459292
0.000445617
0.000430844
0.000414548
0.00039694
0.000378277
0.000358624
0.00033828
0.000317429
0.000296192
0.00027481
0.000253602
0.00023284
0.000212838
0.000193866
0.00017608
0.000159506
0.00014404
0.000129442
0.000115398
0.000101729
8.86925e-05
7.6732e-05
6.60864e-05
5.67082e-05
4.84909e-05
4.14017e-05
3.5451e-05
3.06357e-05
2.70238e-05
2.45539e-05
2.42488e-05
2.41413e-05
3.4341e-05
4.31341e-05
0.000429701
0.000434433
0.000438878
0.000442835
0.000445807
0.00044774
0.000448488
0.000447694
0.000445229
0.000441028
0.000434875
0.000426753
0.000416651
0.000404593
0.000390696
0.00037512
0.000358099
0.000339984
0.000320904
0.000301279
0.000281976
0.000263654
0.000246463
0.000229656
0.000211656
0.000191503
0.000170201
0.000150226
0.000133327
0.000119768
0.000108727
0.000101561
9.82221e-05
9.48116e-05
6.12017e-05
2.93264e-06
0
0.000998152
0.0605069
0.000424133
0.000418329
0.000411551
0.000402717
0.000392756
0.00038179
0.000369917
0.000356896
0.000343032
0.000328429
0.000313118
0.000297271
0.000280961
0.000264195
0.000247138
0.000229976
0.000212876
0.000196091
0.000179831
0.000164282
0.000149525
0.00013553
0.00012215
0.000109203
9.6629e-05
8.46181e-05
7.35211e-05
6.35527e-05
5.47038e-05
4.68994e-05
4.01069e-05
3.43329e-05
2.95493e-05
2.58227e-05
2.31781e-05
2.24912e-05
2.27412e-05
2.92533e-05
4.68942e-05
0.000369348
0.000373706
0.000377932
0.000381825
0.000384995
0.000387418
0.000388978
0.000389351
0.000388422
0.00038612
0.000382243
0.000376747
0.000369577
0.000360693
0.000350163
0.000338081
0.000324583
0.00030997
0.000294465
0.000278362
0.000262191
0.000246435
0.0002312
0.000216004
0.00019978
0.000181829
0.000162881
0.000144831
0.000129165
0.000116017
0.000104784
9.54275e-05
8.89104e-05
8.6465e-05
9.09462e-05
4.48229e-05
3.4236e-08
0.000318938
0.0201838
0.000364394
0.000359296
0.000353503
0.000346033
0.000337756
0.000328836
0.000319185
0.000308675
0.000297649
0.000286127
0.0002741
0.000261659
0.000248829
0.000235578
0.000221951
0.000208068
0.000194029
0.000180011
0.000166175
0.000152675
0.000139615
0.000127011
0.000114805
0.000102924
9.13659e-05
8.03022e-05
7.00065e-05
6.06749e-05
5.23316e-05
4.49337e-05
3.84671e-05
3.29544e-05
2.83957e-05
2.48583e-05
2.23687e-05
2.1634e-05
2.19419e-05
2.69132e-05
4.29501e-05
0.000319052
0.000323029
0.00032699
0.000330731
0.00033394
0.000336632
0.000338678
0.000339807
0.000339938
0.000338978
0.000336765
0.00033322
0.000328294
0.000321925
0.000314117
0.000304911
0.000294379
0.000282752
0.000270178
0.000256832
0.000243106
0.000229488
0.000216071
0.000202516
0.000188059
0.000172168
0.000155378
0.000139181
0.000124873
0.000112658
0.000102104
9.28884e-05
8.51474e-05
7.94136e-05
7.82263e-05
9.55406e-05
2.96836e-06
3.24624e-05
0.00510835
0.000314624
0.000310149
0.000305147
0.000298802
0.00029188
0.000284525
0.000276585
0.000268051
0.000259194
0.000250018
0.000240489
0.000230668
0.000220532
0.000210009
0.000199122
0.000187905
0.0001764
0.000164734
0.000153022
0.000141384
0.000129909
0.000118653
0.000107612
9.67915e-05
8.62358e-05
7.60917e-05
6.65895e-05
5.79012e-05
5.0072e-05
4.30867e-05
3.69422e-05
3.16665e-05
2.72594e-05
2.37873e-05
2.12885e-05
2.04295e-05
2.06118e-05
2.49143e-05
3.86072e-05
0.000276794
0.0002804
0.000284081
0.000287602
0.000290744
0.000293541
0.000295838
0.000297434
0.000298261
0.000298223
0.000297184
0.000295075
0.000291815
0.000287339
0.000281614
0.00027466
0.000266518
0.000257313
0.000247212
0.00023633
0.000224877
0.000213271
0.000201596
0.000189616
0.00017681
0.000162788
0.000147933
0.000133414
0.000120352
0.000109045
9.92138e-05
9.06607e-05
8.31577e-05
7.75345e-05
6.97834e-05
8.74005e-05
4.13669e-05
4.80291e-07
0.00037265
0.000272827
0.00026889
0.000264551
0.000259126
0.000253302
0.000247166
0.00024058
0.000233591
0.000226421
0.000219051
0.000211449
0.000203635
0.000195578
0.000187198
0.000178473
0.000169411
0.000160008
0.000150328
0.000140449
0.000130463
0.000120454
0.000110484
0.000100575
9.07623e-05
8.11441e-05
7.18708e-05
6.31266e-05
5.50614e-05
4.77355e-05
4.1156e-05
3.53326e-05
3.03014e-05
2.60736e-05
2.27191e-05
2.02753e-05
1.93463e-05
1.94148e-05
2.30492e-05
3.48134e-05
0.000241036
0.000244305
0.000247696
0.000250974
0.000253997
0.00025678
0.000259193
0.000261065
0.000262342
0.000262938
0.00026273
0.000261649
0.00025963
0.000256592
0.000252511
0.000247361
0.000241156
0.000233956
0.000225921
0.00021709
0.000207578
0.000197729
0.000187642
0.000177159
0.000165903
0.000153597
0.000140519
0.000127573
0.0001157
0.000105256
9.60859e-05
8.81059e-05
8.10748e-05
7.58787e-05
6.9059e-05
6.99982e-05
8.39048e-05
1.75421e-07
2.64113e-05
0.000237494
0.000234006
0.00023023
0.000225566
0.000220638
0.000215469
0.000209957
0.000204191
0.000198336
0.000192369
0.000186255
0.000180006
0.000173571
0.000166865
0.00015986
0.000152521
0.000144835
0.000136822
0.000128524
0.000120002
0.000111319
0.000102538
9.36962e-05
8.48654e-05
7.61551e-05
6.77128e-05
5.96945e-05
5.22359e-05
4.5406e-05
3.92289e-05
3.37244e-05
2.89345e-05
2.48756e-05
2.16182e-05
1.92026e-05
1.81846e-05
1.81484e-05
2.11946e-05
3.13821e-05
0.000210594
0.000213557
0.000216656
0.000219694
0.000222555
0.000225257
0.000227687
0.000229701
0.000231243
0.00023225
0.000232615
0.000232274
0.000231176
0.000229237
0.000226415
0.000222676
0.000218013
0.000212448
0.000206108
0.000199012
0.000191204
0.00018293
0.000174299
0.000165212
0.000155399
0.000144654
0.00013319
0.000121703
0.000110972
0.00010137
9.28436e-05
8.53515e-05
7.88043e-05
7.35137e-05
6.94037e-05
6.11985e-05
9.21351e-05
4.56024e-07
4.2934e-10
0.000207437
0.000204343
0.000201031
0.000197006
0.000192812
0.000188419
0.000183773
0.000178982
0.000174165
0.000169296
0.000164344
0.000159306
0.000154132
0.000148746
0.000143099
0.000137154
0.000130869
0.000124248
0.000117297
0.000110056
0.000102568
9.48774e-05
8.70335e-05
7.91227e-05
7.12702e-05
6.36086e-05
5.62819e-05
4.94088e-05
4.30621e-05
3.72797e-05
3.20902e-05
2.75396e-05
2.36521e-05
2.04989e-05
1.81222e-05
1.70275e-05
1.68958e-05
1.94206e-05
2.82042e-05
0.00018454
0.000187219
0.000190039
0.000192845
0.000195517
0.000198104
0.000200482
0.000202541
0.000204234
0.000205505
0.000206259
0.000206453
0.00020602
0.000204894
0.000203033
0.000200396
0.000196965
0.00019273
0.000187783
0.000182134
0.000175789
0.00016889
0.000161569
0.000153767
0.000145279
0.000135956
0.000125956
0.000115817
0.000106178
9.74043e-05
8.95221e-05
8.25038e-05
7.64066e-05
7.10768e-05
6.80513e-05
5.95163e-05
7.80407e-05
2.94918e-05
6.14519e-07
0.000181723
0.000178975
0.000176058
0.000172567
0.00016898
0.000165217
0.000161275
0.000157265
0.000153271
0.000149266
0.000145226
0.00014114
0.000136958
0.000132606
0.000128039
0.000123207
0.000118064
0.000112593
0.000106786
0.000100651
9.42196e-05
8.75298e-05
8.06197e-05
7.35676e-05
6.65056e-05
5.95802e-05
5.29111e-05
4.66011e-05
4.07242e-05
3.53277e-05
3.04479e-05
2.61329e-05
2.24141e-05
1.93617e-05
1.70197e-05
1.5851e-05
1.56308e-05
1.77216e-05
2.52577e-05
0.000162134
0.000164546
0.000167117
0.000169686
0.000172174
0.000174615
0.000176909
0.000178946
0.000180704
0.000182126
0.000183134
0.000183685
0.000183731
0.000183208
0.000182081
0.000180299
0.000177838
0.000174682
0.00017087
0.000166423
0.000161317
0.000155619
0.00014947
0.000142836
0.000135555
0.000127514
0.000118836
0.000109934
0.000101331
9.33641e-05
8.61186e-05
7.95901e-05
7.38837e-05
6.88004e-05
6.5546e-05
5.99506e-05
6.3758e-05
5.99149e-05
7.41725e-06
0.000159616
0.00015717
0.000154592
0.000151556
0.000148463
0.000145226
0.000141859
0.000138481
0.000135144
0.000131828
0.000128508
0.000125169
0.000121767
0.000118231
0.000114519
0.000110582
0.000106367
0.000101845
9.69969e-05
9.18194e-05
8.63171e-05
8.05142e-05
7.44461e-05
6.81958e-05
6.18868e-05
5.56512e-05
4.95991e-05
4.3824e-05
3.83987e-05
3.33763e-05
2.87986e-05
2.47149e-05
2.11632e-05
1.82114e-05
1.59061e-05
1.46712e-05
1.43699e-05
1.60972e-05
2.25341e-05
0.000142778
0.000144951
0.000147287
0.000149636
0.000151936
0.000154223
0.000156399
0.000158381
0.000160142
0.000161636
0.000162798
0.000163593
0.000163981
0.000163906
0.000163327
0.000162204
0.000160502
0.000158202
0.000155306
0.000151849
0.000147791
0.000143138
0.00013802
0.000132428
0.000126233
0.000119345
0.000111856
0.000104085
9.64517e-05
8.9264e-05
8.26391e-05
7.66081e-05
7.12565e-05
6.65541e-05
6.28595e-05
5.95668e-05
5.6249e-05
6.4428e-05
3.02028e-05
0.000140527
0.000138344
0.000136063
0.000133416
0.000130726
0.000127928
0.000125039
0.000122171
0.000119364
0.000116598
0.00011385
0.000111103
0.000108316
0.000105429
0.000102399
9.91771e-05
9.57145e-05
9.19761e-05
8.79302e-05
8.35633e-05
7.88731e-05
7.38661e-05
6.8564e-05
6.30446e-05
5.74267e-05
5.18298e-05
4.63558e-05
4.10883e-05
3.60966e-05
3.14362e-05
2.71527e-05
2.32954e-05
1.99081e-05
1.70551e-05
1.47864e-05
1.34914e-05
1.31159e-05
1.45509e-05
2.00387e-05
0.000125993
0.000127953
0.000130069
0.000132213
0.000134329
0.000136458
0.000138503
0.0001404
0.000142125
0.000143637
0.000144883
0.000145834
0.000146453
0.000146694
0.000146522
0.000145899
0.000144786
0.000143163
0.000141013
0.000138376
0.000135193
0.000131438
0.000127222
0.000122553
0.000117327
0.000111467
0.000105042
9.82962e-05
9.15651e-05
8.51219e-05
7.90987e-05
7.35588e-05
6.85569e-05
6.42103e-05
6.03622e-05
5.79141e-05
5.32948e-05
5.79479e-05
4.69899e-05
0.000123979
0.000122029
0.000120007
0.00011769
0.00011534
0.000112907
0.000110417
0.000107968
0.000105591
0.000103267
0.000100973
9.86951e-05
9.6398e-05
9.40259e-05
9.154e-05
8.88936e-05
8.60392e-05
8.29431e-05
7.95692e-05
7.58926e-05
7.18983e-05
6.75899e-05
6.29794e-05
5.81267e-05
5.31372e-05
4.81297e-05
4.31963e-05
3.84078e-05
3.38294e-05
2.95166e-05
2.55174e-05
2.18804e-05
1.86538e-05
1.58978e-05
1.36666e-05
1.23191e-05
1.18766e-05
1.3078e-05
1.77554e-05
0.000111386
0.000113151
0.000115071
0.00011702
0.000118966
0.000120934
0.000122843
0.000124639
0.000126301
0.000127794
0.00012907
0.00013011
0.000130881
0.000131343
0.000131471
0.000131221
0.000130565
0.000129477
0.000127929
0.000125951
0.000123487
0.000120498
0.000117064
0.000113203
0.000108835
0.000103888
9.84115e-05
9.2591e-05
8.66937e-05
8.09546e-05
7.55122e-05
7.04484e-05
6.58068e-05
6.1753e-05
5.80159e-05
5.55699e-05
5.17715e-05
5.14306e-05
5.08438e-05
0.000109587
0.000107839
0.000106042
0.000104009
0.000101947
9.98233e-05
9.76664e-05
9.55633e-05
9.35361e-05
9.15676e-05
8.96421e-05
8.77417e-05
8.58332e-05
8.38699e-05
8.18167e-05
7.9634e-05
7.72745e-05
7.47032e-05
7.18847e-05
6.87903e-05
6.5399e-05
6.16996e-05
5.76979e-05
5.34437e-05
4.9033e-05
4.457e-05
4.0136e-05
3.57956e-05
3.16073e-05
2.76261e-05
2.39003e-05
2.04778e-05
1.74077e-05
1.47469e-05
1.25537e-05
1.11604e-05
1.066e-05
1.16807e-05
1.5677e-05
9.86356e-05
0.000100227
0.000101964
0.000103735
0.000105518
0.000107331
0.000109105
0.000110789
0.000112372
0.000113818
0.000115092
0.000116173
0.000117038
0.000117651
0.000117989
0.000118018
0.000117707
0.000117032
0.000115961
0.000114513
0.000112643
0.000110302
0.000107539
0.00010438
0.000100763
9.66204e-05
9.19824e-05
8.69924e-05
8.18591e-05
7.67818e-05
7.18941e-05
6.72876e-05
6.3009e-05
5.92115e-05
5.56955e-05
5.3056e-05
5.01238e-05
4.71816e-05
4.83178e-05
9.70281e-05
9.54601e-05
9.38604e-05
9.20698e-05
9.02533e-05
8.83939e-05
8.65151e-05
8.46996e-05
8.29606e-05
8.12829e-05
7.96517e-05
7.80535e-05
7.64565e-05
7.48227e-05
7.31195e-05
7.13075e-05
6.9348e-05
6.72081e-05
6.48501e-05
6.22436e-05
5.93651e-05
5.61961e-05
5.2733e-05
4.90159e-05
4.51269e-05
4.11607e-05
3.71852e-05
3.32612e-05
2.94405e-05
2.57751e-05
2.23118e-05
1.90965e-05
1.61783e-05
1.36108e-05
1.14558e-05
1.00228e-05
9.47162e-06
1.03593e-05
1.3796e-05
8.74756e-05
8.89083e-05
9.04789e-05
9.20892e-05
9.37161e-05
9.53813e-05
9.70213e-05
9.85927e-05
0.000100083
0.000101467
0.000102709
0.000103799
0.000104711
0.00010542
0.000105905
0.000106136
0.000106086
0.000105728
0.000105036
0.000104014
0.000102627
0.00010083
9.86358e-05
9.60813e-05
9.31143e-05
8.96724e-05
8.57727e-05
8.15231e-05
7.70837e-05
7.2622e-05
6.82604e-05
6.40933e-05
6.01706e-05
5.66197e-05
5.33297e-05
5.05823e-05
4.80483e-05
4.43876e-05
4.44394e-05
8.6035e-05
8.46325e-05
8.3204e-05
8.16229e-05
8.00184e-05
7.83837e-05
7.67412e-05
7.51635e-05
7.36621e-05
7.22222e-05
7.08331e-05
6.94801e-05
6.81356e-05
6.67642e-05
6.53389e-05
6.38277e-05
6.21942e-05
6.04067e-05
5.843e-05
5.62338e-05
5.37917e-05
5.10805e-05
4.80895e-05
4.48479e-05
4.14262e-05
3.79069e-05
3.43548e-05
3.08164e-05
2.73399e-05
2.39733e-05
2.07605e-05
1.77446e-05
1.49744e-05
1.24986e-05
1.03817e-05
8.91408e-06
8.31948e-06
9.11242e-06
1.2097e-05
7.76817e-05
7.89714e-05
8.03901e-05
8.18537e-05
8.33358e-05
8.48618e-05
8.63718e-05
8.78292e-05
8.92253e-05
9.05343e-05
9.17304e-05
9.28025e-05
9.37305e-05
9.44951e-05
9.50751e-05
9.54488e-05
9.559e-05
9.54745e-05
9.5078e-05
9.43919e-05
9.33983e-05
9.20457e-05
9.03291e-05
8.82879e-05
8.58827e-05
8.30508e-05
7.97977e-05
7.62034e-05
7.23906e-05
6.84947e-05
6.46276e-05
6.08787e-05
5.73002e-05
5.39978e-05
5.09114e-05
4.81726e-05
4.57188e-05
4.21057e-05
4.09047e-05
7.63902e-05
7.51346e-05
7.3857e-05
7.24582e-05
7.10374e-05
6.95944e-05
6.8154e-05
6.67777e-05
6.54735e-05
6.42305e-05
6.30381e-05
6.18825e-05
6.07401e-05
5.95831e-05
5.83853e-05
5.71165e-05
5.5747e-05
5.42482e-05
5.25876e-05
5.07331e-05
4.8659e-05
4.63399e-05
4.37609e-05
4.09404e-05
3.79383e-05
3.48233e-05
3.16552e-05
2.84717e-05
2.53159e-05
2.22298e-05
1.92551e-05
1.64314e-05
1.38047e-05
1.14193e-05
9.33988e-06
7.84113e-06
7.20889e-06
7.94388e-06
1.05732e-05
6.90658e-05
7.02284e-05
7.15097e-05
7.28366e-05
7.41862e-05
7.55804e-05
7.69671e-05
7.8312e-05
7.96126e-05
8.08416e-05
8.19802e-05
8.30174e-05
8.39396e-05
8.47266e-05
8.5365e-05
8.58354e-05
8.6114e-05
8.61799e-05
8.60097e-05
8.55887e-05
8.49087e-05
8.39224e-05
8.26051e-05
8.09997e-05
7.90715e-05
7.67621e-05
7.40685e-05
7.10494e-05
6.7798e-05
6.44198e-05
6.10123e-05
5.76584e-05
5.4411e-05
5.13524e-05
4.84571e-05
4.57896e-05
4.33181e-05
3.98972e-05
3.78858e-05
6.79099e-05
6.6784e-05
6.56392e-05
6.44e-05
6.31392e-05
6.18616e-05
6.05945e-05
5.93873e-05
5.82492e-05
5.71692e-05
5.61396e-05
5.51466e-05
5.41698e-05
5.31849e-05
5.21704e-05
5.11004e-05
4.99468e-05
4.86835e-05
4.72834e-05
4.57159e-05
4.39534e-05
4.19689e-05
3.97441e-05
3.72919e-05
3.46607e-05
3.19115e-05
2.90908e-05
2.62335e-05
2.3375e-05
2.05523e-05
1.78039e-05
1.51648e-05
1.2677e-05
1.03811e-05
8.3397e-06
6.81186e-06
6.14598e-06
6.8544e-06
9.2118e-06
6.14715e-05
6.25191e-05
6.36768e-05
6.48782e-05
6.61051e-05
6.73772e-05
6.86459e-05
6.98847e-05
7.10892e-05
7.2237e-05
7.33104e-05
7.43023e-05
7.52008e-05
7.59897e-05
7.66587e-05
7.71894e-05
7.75625e-05
7.77609e-05
7.77615e-05
7.75483e-05
7.71164e-05
7.64241e-05
7.54393e-05
7.41969e-05
7.26712e-05
7.08075e-05
6.85967e-05
6.60796e-05
6.33252e-05
6.04162e-05
5.74325e-05
5.44482e-05
5.15152e-05
4.86997e-05
4.5985e-05
4.34169e-05
4.094e-05
3.76738e-05
3.52128e-05
6.04373e-05
5.94278e-05
5.84007e-05
5.73005e-05
5.61796e-05
5.50452e-05
5.39267e-05
5.28652e-05
5.18672e-05
5.09234e-05
5.00277e-05
4.91688e-05
4.83282e-05
4.74848e-05
4.6619e-05
4.571e-05
4.47329e-05
4.36658e-05
4.24805e-05
4.11508e-05
3.96509e-05
3.7953e-05
3.60352e-05
3.39059e-05
3.16029e-05
2.91787e-05
2.66721e-05
2.41116e-05
2.15269e-05
1.89506e-05
1.64157e-05
1.39535e-05
1.16013e-05
9.39438e-06
7.39112e-06
5.83425e-06
5.13621e-06
5.84719e-06
8.00442e-06
5.47659e-05
5.57087e-05
5.67551e-05
5.78414e-05
5.89558e-05
6.01149e-05
6.1273e-05
6.24113e-05
6.35214e-05
6.45881e-05
6.55931e-05
6.65326e-05
6.73946e-05
6.81697e-05
6.88464e-05
6.94103e-05
6.98469e-05
7.01379e-05
7.02663e-05
7.02131e-05
6.99766e-05
6.95176e-05
6.88046e-05
6.78616e-05
6.66723e-05
6.51869e-05
6.33888e-05
6.13069e-05
5.89901e-05
5.65007e-05
5.39052e-05
5.12658e-05
4.86264e-05
4.60487e-05
4.35132e-05
4.10559e-05
3.86066e-05
3.54632e-05
3.27619e-05
5.38389e-05
5.29343e-05
5.20131e-05
5.10341e-05
5.00362e-05
4.9028e-05
4.80371e-05
4.71001e-05
4.6221e-05
4.53921e-05
4.46085e-05
4.38604e-05
4.31315e-05
4.24047e-05
4.16624e-05
4.08856e-05
4.00537e-05
3.91461e-05
3.81395e-05
3.70089e-05
3.57291e-05
3.42743e-05
3.26211e-05
3.07724e-05
2.87589e-05
2.66237e-05
2.43992e-05
2.21088e-05
1.97765e-05
1.74301e-05
1.50972e-05
1.2805e-05
1.05859e-05
8.46867e-06
6.50469e-06
4.91683e-06
4.18374e-06
4.92526e-06
6.94119e-06
4.88338e-05
4.96832e-05
5.06272e-05
5.16098e-05
5.26204e-05
5.36741e-05
5.47307e-05
5.57726e-05
5.67932e-05
5.7779e-05
5.87152e-05
5.95974e-05
6.0418e-05
6.11673e-05
6.18368e-05
6.24152e-05
6.28888e-05
6.32429e-05
6.34629e-05
6.35301e-05
6.34429e-05
6.31684e-05
6.26738e-05
6.19788e-05
6.10675e-05
5.98966e-05
5.84485e-05
5.67406e-05
5.48063e-05
5.26907e-05
5.04458e-05
4.81243e-05
4.57632e-05
4.34099e-05
4.10551e-05
3.87111e-05
3.63186e-05
3.3294e-05
3.04746e-05
4.80025e-05
4.71928e-05
4.63665e-05
4.5493e-05
4.4604e-05
4.3707e-05
4.28271e-05
4.19973e-05
4.12199e-05
4.0489e-05
3.98003e-05
3.91447e-05
3.8509e-05
3.78777e-05
3.72371e-05
3.65697e-05
3.58574e-05
3.50824e-05
3.42239e-05
3.32595e-05
3.21661e-05
3.09176e-05
2.94912e-05
2.7886e-05
2.61253e-05
2.42471e-05
2.22758e-05
2.02305e-05
1.813e-05
1.59971e-05
1.38554e-05
1.17266e-05
9.63838e-06
7.61268e-06
5.69111e-06
4.06924e-06
3.29263e-06
4.09429e-06
6.01459e-06
4.35779e-05
4.43436e-05
4.51944e-05
4.60828e-05
4.69988e-05
4.79549e-05
4.89176e-05
4.9869e-05
5.08054e-05
5.17132e-05
5.25813e-05
5.34051e-05
5.41789e-05
5.4894e-05
5.55454e-05
5.61214e-05
5.66135e-05
5.70081e-05
5.72916e-05
5.74469e-05
5.74727e-05
5.73411e-05
5.70215e-05
5.65261e-05
5.5843e-05
5.49342e-05
5.37806e-05
5.23908e-05
5.07869e-05
4.90008e-05
4.70712e-05
4.50391e-05
4.29366e-05
4.07999e-05
3.86204e-05
3.63991e-05
3.40835e-05
3.11898e-05
2.83356e-05
4.28328e-05
4.21077e-05
4.13671e-05
4.05863e-05
3.97939e-05
3.89948e-05
3.82122e-05
3.74751e-05
3.67857e-05
3.61382e-05
3.55296e-05
3.49531e-05
3.43959e-05
3.38443e-05
3.32877e-05
3.27105e-05
3.20975e-05
3.14333e-05
3.06986e-05
2.98731e-05
2.89361e-05
2.78628e-05
2.66308e-05
2.52369e-05
2.36991e-05
2.20471e-05
2.03025e-05
1.84784e-05
1.65903e-05
1.46558e-05
1.26945e-05
1.07236e-05
8.76531e-06
6.83535e-06
4.96244e-06
3.30408e-06
2.46618e-06
3.36193e-06
5.21835e-06
3.89153e-05
3.96047e-05
4.03718e-05
4.11739e-05
4.20033e-05
4.28709e-05
4.37459e-05
4.46134e-05
4.54705e-05
4.63041e-05
4.71052e-05
4.78704e-05
4.85946e-05
4.92712e-05
4.9896e-05
5.04609e-05
5.09567e-05
5.13723e-05
5.16963e-05
5.19145e-05
5.20239e-05
5.20016e-05
5.182e-05
5.14846e-05
5.09858e-05
5.0292e-05
4.93841e-05
4.8263e-05
4.69427e-05
4.54442e-05
4.37949e-05
4.20263e-05
4.01618e-05
3.82301e-05
3.62219e-05
3.41318e-05
3.19072e-05
2.91532e-05
2.63326e-05
3.82473e-05
3.75977e-05
3.6934e-05
3.62362e-05
3.55289e-05
3.48164e-05
3.41195e-05
3.34634e-05
3.28502e-05
3.22747e-05
3.17357e-05
3.12249e-05
3.07335e-05
3.02504e-05
2.97645e-05
2.9263e-05
2.87325e-05
2.81601e-05
2.75287e-05
2.682e-05
2.6015e-05
2.50914e-05
2.40263e-05
2.28144e-05
2.14712e-05
2.00197e-05
1.84773e-05
1.68534e-05
1.51594e-05
1.34095e-05
1.16185e-05
9.80093e-06
7.97273e-06
6.14447e-06
4.33077e-06
2.63872e-06
1.70569e-06
2.74021e-06
4.54646e-06
3.47733e-05
3.53941e-05
3.6085e-05
3.6809e-05
3.75592e-05
3.83453e-05
3.91396e-05
3.99292e-05
4.07119e-05
4.14751e-05
4.22121e-05
4.29197e-05
4.35938e-05
4.42295e-05
4.4823e-05
4.53677e-05
4.58562e-05
4.62792e-05
4.66276e-05
4.68888e-05
4.70577e-05
4.71171e-05
4.70411e-05
4.68315e-05
4.64806e-05
4.5962e-05
4.52561e-05
4.43607e-05
4.3282e-05
4.20323e-05
4.06301e-05
3.90976e-05
3.74525e-05
3.5713e-05
3.38717e-05
3.19148e-05
2.97977e-05
2.71958e-05
2.44553e-05
3.41745e-05
3.35928e-05
3.29979e-05
3.23741e-05
3.17426e-05
3.1107e-05
3.04857e-05
2.9901e-05
2.93545e-05
2.88417e-05
2.83617e-05
2.79087e-05
2.74738e-05
2.70476e-05
2.66212e-05
2.61834e-05
2.5723e-05
2.52278e-05
2.4683e-05
2.40732e-05
2.33803e-05
2.25834e-05
2.16615e-05
2.06079e-05
1.94341e-05
1.81598e-05
1.67975e-05
1.5354e-05
1.38377e-05
1.22594e-05
1.06302e-05
8.96091e-06
7.26396e-06
5.54538e-06
3.80751e-06
2.10012e-06
1.0136e-06
2.2462e-06
3.99394e-06
3.10896e-05
3.16483e-05
3.227e-05
3.29234e-05
3.36013e-05
3.43128e-05
3.50333e-05
3.57512e-05
3.64642e-05
3.71619e-05
3.78379e-05
3.84898e-05
3.91141e-05
3.97072e-05
4.02659e-05
4.07854e-05
4.12593e-05
4.16804e-05
4.20401e-05
4.23268e-05
4.25358e-05
4.26542e-05
4.26587e-05
4.25463e-05
4.23122e-05
4.19337e-05
4.13933e-05
4.0685e-05
3.981e-05
3.87741e-05
3.75882e-05