/*--------------------------------*- C++ -*----------------------------------*\
| =========                 |                                                 |
| \\      /  F ield         | OpenFOAM: The Open Source CFD Toolbox           |
|  \\    /   O peration     | Version:  2306                                  |
|   \\  /    A nd           | Website:  www.openfoam.com                      |
|    \\/     M anipulation  |                                                 |
\*---------------------------------------------------------------------------*/
FoamFile
{
    version     2.0;
    format      ascii;
    arch        "LSB;label=32;scalar=64";
    class       volScalarField;
    location    "425";
    object      nuTilda;
}
// * * * * * * * * * * * * * * * * * * * * * * * * * * * * * * * * * * * * * //

dimensions      [0 2 -1 0 0 0 0];

internalField   nonuniform List<scalar> 
10720
(
6.29091e-05
6.61137e-05
7.02152e-05
7.53177e-05
8.16866e-05
8.97461e-05
0.000100161
0.000113483
0.000130973
0.000154081
0.00018512
0.000227458
0.000285633
0.000367523
0.000486574
0.00066467
0.000946283
0.00139545
0.00221745
0.00358935
0.00690159
0.0127122
0.0339144
0.0760476
0.093733
0.0946585
0.0957044
0.0992434
0.102758
0.10449
0.104464
0.103214
0.100844
0.0974122
0.0927925
0.0869127
0.0784798
0.0690231
0.0538306
6.00005e-05
5.73604e-05
5.46052e-05
5.19066e-05
4.91578e-05
4.63757e-05
4.36717e-05
4.15911e-05
4.34422e-05
4.72962e-05
5.29036e-05
6.05938e-05
7.10608e-05
8.55652e-05
0.000105909
0.000135074
0.00017782
0.000242227
0.00034241
0.000503221
0.000773852
0.00124219
0.00211766
0.00376993
0.00732811
0.0147229
0.0324777
0.0663217
0.0934697
0.105025
0.108433
0.109375
0.109471
0.108975
0.107974
0.106577
0.104431
0.101996
0.0924634
3.8071e-05
3.78508e-05
3.76496e-05
3.74809e-05
3.72852e-05
3.71033e-05
3.69672e-05
3.68471e-05
3.67951e-05
3.68408e-05
3.69025e-05
3.75059e-05
3.96453e-05
4.4292e-05
5.39068e-05
7.20404e-05
0.000107832
0.00017385
0.000318539
0.000588862
0.00132128
0.0028298
0.00711223
0.0204722
0.0394349
0.0631988
0.0924767
0.12368
0.148738
0.162684
0.167971
0.168791
0.167203
0.163851
0.159338
0.153838
0.148548
0.139892
0.147212
3.8244e-05
3.84755e-05
3.86703e-05
3.89311e-05
3.91945e-05
3.9457e-05
3.97066e-05
3.99145e-05
3.97971e-05
3.95291e-05
3.91564e-05
3.86932e-05
3.81511e-05
3.75296e-05
3.67953e-05
3.59241e-05
3.48274e-05
3.34377e-05
3.15607e-05
2.8973e-05
2.51729e-05
1.98027e-05
1.18098e-05
4.78905e-06
7.59971e-06
0.000115495
0.000541179
0.00415681
0.0141156
0.0287197
0.0437274
0.0550627
0.0618256
0.0656074
0.0680051
0.0699954
0.0717271
0.0752991
0.0784605
4.03655e-05
4.03971e-05
4.04297e-05
4.04648e-05
4.05077e-05
4.05556e-05
4.06102e-05
4.06739e-05
4.07487e-05
4.0836e-05
4.09392e-05
4.10655e-05
4.12033e-05
4.1452e-05
4.1475e-05
4.07257e-05
3.73455e-05
3.43788e-05
4.62382e-06
4.37594e-05
2.20047e-05
5.68915e-05
2.64747e-05
0.000558424
0.00297804
0.00755047
0.0156468
0.0311266
0.0574097
0.0937852
0.132809
0.164517
0.184919
0.196752
0.203442
0.206321
0.20758
0.201627
0.212135
4.03413e-05
4.03065e-05
4.02799e-05
4.02404e-05
4.02063e-05
4.01696e-05
4.01369e-05
4.0111e-05
4.01198e-05
4.01475e-05
4.01836e-05
4.02277e-05
4.02815e-05
4.03416e-05
4.0409e-05
4.04833e-05
4.05673e-05
4.06631e-05
4.0777e-05
4.09146e-05
4.10897e-05
4.13121e-05
4.16237e-05
4.19506e-05
4.23858e-05
4.19223e-05
4.20738e-05
3.13478e-05
0.00010768
0.00079093
0.00301751
0.00754203
0.0142529
0.0224359
0.0311566
0.0395993
0.0470022
0.0536733
0.0631651
4.00344e-05
4.00299e-05
4.00288e-05
4.00295e-05
4.00312e-05
4.00361e-05
4.00452e-05
4.00577e-05
4.00763e-05
4.01015e-05
4.01347e-05
4.01781e-05
4.02342e-05
4.03056e-05
4.03998e-05
4.04978e-05
4.02811e-05
3.96774e-05
3.5891e-05
2.96865e-05
1.3149e-05
1.6066e-05
5.33317e-06
0.000114634
0.000622248
0.00166223
0.00142514
0.001752
0.00386236
0.0136314
0.0356507
0.0727747
0.11881
0.161321
0.193209
0.215345
0.231941
0.239193
0.255723
4.00356e-05
4.004e-05
4.00458e-05
4.00498e-05
4.00569e-05
4.00607e-05
4.00631e-05
4.00648e-05
4.00608e-05
4.00559e-05
4.00494e-05
4.00425e-05
4.0036e-05
4.00297e-05
4.00235e-05
4.0017e-05
4.00102e-05
4.00028e-05
3.99934e-05
3.99839e-05
3.99739e-05
3.99633e-05
3.99506e-05
3.99389e-05
3.99262e-05
3.99306e-05
3.9917e-05
4.00278e-05
3.98715e-05
3.97859e-05
3.83206e-05
3.60184e-05
0.000232765
0.00104536
0.00304154
0.00688481
0.0131282
0.0218469
0.0392292
4.00808e-05
4.00819e-05
4.00824e-05
4.0084e-05
4.00869e-05
4.00905e-05
4.00955e-05
4.01021e-05
4.01108e-05
4.01222e-05
4.01371e-05
4.01566e-05
4.01822e-05
4.02149e-05
4.02596e-05
4.03109e-05
4.039e-05
4.04129e-05
4.05333e-05
3.97894e-05
3.79082e-05
2.56141e-05
8.5101e-06
3.57235e-06
0
0
0.000305098
0.000380702
0.000850937
0.00306925
0.000887296
0.00805649
0.0295036
0.070665
0.12408
0.175025
0.217161
0.248051
0.278393
4.00809e-05
4.00784e-05
4.00797e-05
4.00777e-05
4.00793e-05
4.00771e-05
4.00732e-05
4.00697e-05
4.00677e-05
4.00673e-05
4.00672e-05
4.00671e-05
4.00677e-05
4.00687e-05
4.00705e-05
4.00728e-05
4.00756e-05
4.00791e-05
4.00831e-05
4.00877e-05
4.00928e-05
4.00984e-05
4.01048e-05
4.01118e-05
4.01209e-05
4.01288e-05
4.01533e-05
4.01157e-05
4.03775e-05
3.92933e-05
4.4377e-05
2.1505e-05
6.27162e-05
0.00025091
0.000728964
0.000717088
0.00123992
0.00164132
0.013713
4.00695e-05
4.00691e-05
4.00696e-05
4.00701e-05
4.00703e-05
4.0071e-05
4.00721e-05
4.00736e-05
4.00758e-05
4.0079e-05
4.00833e-05
4.00892e-05
4.00973e-05
4.01082e-05
4.01233e-05
4.01432e-05
4.01703e-05
4.01996e-05
4.02541e-05
4.04332e-05
4.12786e-05
4.0121e-05
3.69665e-05
1.84275e-05
7.55171e-06
5.16519e-06
3.04614e-06
0
0
0
0.000199094
0.00183812
0.000355306
0.00870963
0.0380217
0.093216
0.160369
0.223972
0.278354
4.00686e-05
4.00673e-05
4.0069e-05
4.00686e-05
4.00718e-05
4.00713e-05
4.00687e-05
4.00665e-05
4.00647e-05
4.00636e-05
4.00628e-05
4.00619e-05
4.00614e-05
4.00611e-05
4.00611e-05
4.00611e-05
4.00614e-05
4.00617e-05
4.00622e-05
4.00627e-05
4.00631e-05
4.00633e-05
4.00635e-05
4.00628e-05
4.00627e-05
4.00633e-05
4.0064e-05
4.00673e-05
4.00665e-05
4.00833e-05
4.00515e-05
4.02424e-05
3.91153e-05
3.61225e-05
5.67235e-06
0.000171512
0.000293922
0.000431572
0.00239501
4.00699e-05
4.00703e-05
4.00706e-05
4.00707e-05
4.0071e-05
4.00711e-05
4.00714e-05
4.00721e-05
4.0073e-05
4.00743e-05
4.00762e-05
4.00789e-05
4.00827e-05
4.0088e-05
4.00954e-05
4.01057e-05
4.01193e-05
4.01348e-05
4.01507e-05
4.01442e-05
4.03069e-05
4.07927e-05
4.16561e-05
3.97865e-05
3.37589e-05
2.59881e-05
1.50822e-05
7.61165e-06
5.87397e-06
2.0743e-06
0
0
8.10277e-05
0.00204601
0.00163238
0.0214618
0.0782575
0.16616
0.252334
4.00691e-05
4.00671e-05
4.00678e-05
4.00672e-05
4.00703e-05
4.00702e-05
4.0068e-05
4.00658e-05
4.00642e-05
4.00632e-05
4.00626e-05
4.00622e-05
4.0062e-05
4.00621e-05
4.0062e-05
4.0062e-05
4.00624e-05
4.00628e-05
4.00634e-05
4.00642e-05
4.00651e-05
4.00662e-05
4.00674e-05
4.00689e-05
4.00707e-05
4.00731e-05
4.00762e-05
4.00801e-05
4.0085e-05
4.00912e-05
4.00988e-05
4.01078e-05
4.0152e-05
3.89592e-05
3.4111e-05
1.20438e-05
8.04795e-06
0
0.000573361
4.00691e-05
4.00694e-05
4.00699e-05
4.00699e-05
4.00696e-05
4.00693e-05
4.0069e-05
4.00687e-05
4.00686e-05
4.00687e-05
4.00688e-05
4.00692e-05
4.00699e-05
4.0071e-05
4.00727e-05
4.00752e-05
4.00789e-05
4.00834e-05
4.00895e-05
4.00883e-05
4.00745e-05
4.01593e-05
4.04765e-05
4.12241e-05
4.13328e-05
4.05611e-05
3.85641e-05
3.42186e-05
2.84667e-05
9.91903e-06
7.12371e-06
1.5064e-06
0
0
0.00039743
0.000845662
0.0170762
0.0902781
0.200108
4.0068e-05
4.00659e-05
4.00659e-05
4.00652e-05
4.00682e-05
4.00684e-05
4.00668e-05
4.00648e-05
4.00633e-05
4.00625e-05
4.00619e-05
4.00616e-05
4.00615e-05
4.00616e-05
4.00618e-05
4.0062e-05
4.00621e-05
4.00621e-05
4.00623e-05
4.00625e-05
4.00627e-05
4.0063e-05
4.00633e-05
4.00636e-05
4.00638e-05
4.00641e-05
4.00645e-05
4.0065e-05
4.00655e-05
4.00657e-05
4.00666e-05
4.00616e-05
4.00819e-05
4.00181e-05
4.0453e-05
3.99146e-05
3.48071e-05
9.11543e-06
0
4.0069e-05
4.00693e-05
4.00695e-05
4.00692e-05
4.00688e-05
4.00683e-05
4.00679e-05
4.00677e-05
4.00674e-05
4.00673e-05
4.00674e-05
4.00676e-05
4.0068e-05
4.00687e-05
4.00699e-05
4.00716e-05
4.00743e-05
4.00777e-05
4.00813e-05
4.00854e-05
4.00826e-05
4.00737e-05
4.00835e-05
4.02634e-05
4.06094e-05
4.0992e-05
4.15015e-05
4.18007e-05
4.14261e-05
3.76455e-05
3.21876e-05
7.07727e-06
5.7997e-06
0
0
0.000196441
0.00462744
0.0303363
0.133056
4.00679e-05
4.00656e-05
4.0065e-05
4.00639e-05
4.00667e-05
4.00672e-05
4.00659e-05
4.00641e-05
4.00629e-05
4.0062e-05
4.00616e-05
4.00613e-05
4.00612e-05
4.00614e-05
4.00615e-05
4.00618e-05
4.00621e-05
4.00623e-05
4.00625e-05
4.00625e-05
4.00626e-05
4.00628e-05
4.00631e-05
4.00635e-05
4.00639e-05
4.00645e-05
4.00655e-05
4.00667e-05
4.00683e-05
4.00703e-05
4.00728e-05
4.00756e-05
4.008e-05
4.00731e-05
4.01069e-05
4.02178e-05
4.1152e-05
3.74448e-05
5.90901e-06
4.00689e-05
4.00689e-05
4.00689e-05
4.00684e-05
4.00678e-05
4.00673e-05
4.00667e-05
4.00663e-05
4.00659e-05
4.00656e-05
4.00653e-05
4.00651e-05
4.00649e-05
4.00648e-05
4.00648e-05
4.00648e-05
4.00649e-05
4.00651e-05
4.00654e-05
4.00669e-05
4.0069e-05
4.00681e-05
4.00634e-05
4.00629e-05
4.0099e-05
4.01924e-05
4.04174e-05
4.08143e-05
4.13924e-05
4.20286e-05
4.24053e-05
3.819e-05
2.60595e-05
7.93037e-06
0
0
6.61843e-05
0.00305657
0.0730692
4.00679e-05
4.00656e-05
4.00644e-05
4.00629e-05
4.00655e-05
4.00662e-05
4.00651e-05
4.00635e-05
4.00624e-05
4.00617e-05
4.00614e-05
4.00611e-05
4.0061e-05
4.00611e-05
4.00612e-05
4.00615e-05
4.00618e-05
4.00621e-05
4.00624e-05
4.00627e-05
4.00629e-05
4.0063e-05
4.0063e-05
4.00631e-05
4.00631e-05
4.00633e-05
4.00636e-05
4.00641e-05
4.00648e-05
4.00656e-05
4.00663e-05
4.00677e-05
4.00669e-05
4.00763e-05
4.00396e-05
4.02218e-05
3.95816e-05
4.46649e-05
2.30062e-05
4.00686e-05
4.00684e-05
4.00681e-05
4.00675e-05
4.00669e-05
4.00662e-05
4.00657e-05
4.00653e-05
4.0065e-05
4.00647e-05
4.00646e-05
4.00644e-05
4.00644e-05
4.00645e-05
4.00647e-05
4.0065e-05
4.00656e-05
4.00666e-05
4.00676e-05
4.00687e-05
4.00699e-05
4.00705e-05
4.00705e-05
4.00687e-05
4.00636e-05
4.00554e-05
4.00536e-05
4.01065e-05
4.02503e-05
4.06587e-05
4.13407e-05
4.2615e-05
4.19806e-05
3.31783e-05
8.63262e-06
0
0
0.00141228
0.0333598
4.0068e-05
4.00657e-05
4.00641e-05
4.00623e-05
4.00646e-05
4.00653e-05
4.00645e-05
4.0063e-05
4.0062e-05
4.00614e-05
4.00611e-05
4.00608e-05
4.00607e-05
4.00607e-05
4.00608e-05
4.0061e-05
4.00613e-05
4.00617e-05
4.0062e-05
4.00624e-05
4.00627e-05
4.00629e-05
4.00631e-05
4.00633e-05
4.00634e-05
4.00635e-05
4.00638e-05
4.00642e-05
4.00648e-05
4.00656e-05
4.00666e-05
4.00682e-05
4.00681e-05
4.00765e-05
4.00481e-05
4.01809e-05
3.96138e-05
4.19668e-05
3.67124e-05
4.00683e-05
4.00678e-05
4.00673e-05
4.00666e-05
4.00659e-05
4.00653e-05
4.00648e-05
4.00644e-05
4.00641e-05
4.00638e-05
4.00636e-05
4.00635e-05
4.00633e-05
4.00633e-05
4.00633e-05
4.00634e-05
4.00635e-05
4.00637e-05
4.00642e-05
4.00649e-05
4.00661e-05
4.00675e-05
4.00688e-05
4.00705e-05
4.00726e-05
4.00719e-05
4.00621e-05
4.00442e-05
4.00185e-05
4.00462e-05
4.01482e-05
4.07324e-05
4.19577e-05
4.29486e-05
3.54334e-05
7.6898e-06
0
0.000286026
0.0130605
4.00679e-05
4.00658e-05
4.00639e-05
4.00619e-05
4.00639e-05
4.00646e-05
4.00639e-05
4.00625e-05
4.00617e-05
4.00611e-05
4.00608e-05
4.00606e-05
4.00604e-05
4.00603e-05
4.00603e-05
4.00605e-05
4.00608e-05
4.00612e-05
4.00615e-05
4.00619e-05
4.00623e-05
4.00627e-05
4.0063e-05
4.00633e-05
4.00636e-05
4.00637e-05
4.00638e-05
4.0064e-05
4.00643e-05
4.00647e-05
4.00653e-05
4.00661e-05
4.00665e-05
4.00694e-05
4.0063e-05
4.00957e-05
3.99879e-05
4.02713e-05
4.02715e-05
4.00679e-05
4.00671e-05
4.00665e-05
4.00658e-05
4.00651e-05
4.00645e-05
4.0064e-05
4.00637e-05
4.00634e-05
4.00632e-05
4.00631e-05
4.0063e-05
4.00629e-05
4.00629e-05
4.0063e-05
4.00631e-05
4.00633e-05
4.00636e-05
4.00641e-05
4.00646e-05
4.00654e-05
4.00664e-05
4.00675e-05
4.00687e-05
4.00709e-05
4.00745e-05
4.00776e-05
4.00758e-05
4.00612e-05
4.00336e-05
3.99891e-05
3.9985e-05
4.03021e-05
4.12813e-05
4.40361e-05
3.07927e-05
8.43724e-07
9.9815e-05
0.00434724
4.00678e-05
4.00659e-05
4.00638e-05
4.00616e-05
4.00634e-05
4.0064e-05
4.00633e-05
4.00621e-05
4.00613e-05
4.00608e-05
4.00605e-05
4.00603e-05
4.006e-05
4.00599e-05
4.00599e-05
4.00601e-05
4.00603e-05
4.00606e-05
4.0061e-05
4.00615e-05
4.00619e-05
4.00624e-05
4.00628e-05
4.00631e-05
4.00635e-05
4.00638e-05
4.00639e-05
4.0064e-05
4.00641e-05
4.00644e-05
4.00648e-05
4.00654e-05
4.00662e-05
4.00669e-05
4.00689e-05
4.00655e-05
4.00923e-05
3.99768e-05
4.03701e-05
4.00673e-05
4.00664e-05
4.00657e-05
4.0065e-05
4.00644e-05
4.00637e-05
4.00633e-05
4.0063e-05
4.00628e-05
4.00627e-05
4.00627e-05
4.00626e-05
4.00626e-05
4.00626e-05
4.00626e-05
4.00627e-05
4.00628e-05
4.0063e-05
4.00633e-05
4.00637e-05
4.00643e-05
4.00651e-05
4.00661e-05
4.00673e-05
4.00687e-05
4.0071e-05
4.00749e-05
4.00796e-05
4.00827e-05
4.00778e-05
4.006e-05
4.00042e-05
3.99569e-05
4.00077e-05
4.10838e-05
4.67519e-05
8.0442e-06
2.67181e-05
0.00111021
4.00676e-05
4.00659e-05
4.00638e-05
4.00614e-05
4.00629e-05
4.00635e-05
4.00629e-05
4.00617e-05
4.0061e-05
4.00605e-05
4.00602e-05
4.006e-05
4.00597e-05
4.00595e-05
4.00595e-05
4.00596e-05
4.00598e-05
4.00602e-05
4.00605e-05
4.0061e-05
4.00614e-05
4.00619e-05
4.00624e-05
4.00628e-05
4.00633e-05
4.00636e-05
4.00638e-05
4.0064e-05
4.0064e-05
4.00641e-05
4.00644e-05
4.00647e-05
4.00653e-05
4.00657e-05
4.00677e-05
4.0064e-05
4.00837e-05
4.00269e-05
4.01527e-05
4.00667e-05
4.00657e-05
4.0065e-05
4.00643e-05
4.00637e-05
4.00631e-05
4.00627e-05
4.00625e-05
4.00624e-05
4.00624e-05
4.00624e-05
4.00624e-05
4.00625e-05
4.00625e-05
4.00626e-05
4.00627e-05
4.00628e-05
4.0063e-05
4.00632e-05
4.00635e-05
4.0064e-05
4.00646e-05
4.00653e-05
4.00663e-05
4.00675e-05
4.0069e-05
4.00713e-05
4.00748e-05
4.00797e-05
4.00845e-05
4.00869e-05
4.00812e-05
4.00199e-05
4.00669e-05
3.91777e-05
4.52004e-05
3.09206e-05
3.31705e-06
9.77087e-05
4.00672e-05
4.00658e-05
4.00638e-05
4.00613e-05
4.00625e-05
4.0063e-05
4.00624e-05
4.00614e-05
4.00607e-05
4.00602e-05
4.00599e-05
4.00596e-05
4.00593e-05
4.00592e-05
4.00591e-05
4.00592e-05
4.00594e-05
4.00597e-05
4.006e-05
4.00605e-05
4.00609e-05
4.00614e-05
4.00619e-05
4.00624e-05
4.00629e-05
4.00633e-05
4.00637e-05
4.00639e-05
4.0064e-05
4.0064e-05
4.00642e-05
4.00644e-05
4.00648e-05
4.00652e-05
4.00661e-05
4.00659e-05
4.00705e-05
4.00643e-05
4.00754e-05
4.00661e-05
4.00651e-05
4.00644e-05
4.00637e-05
4.00631e-05
4.00626e-05
4.00623e-05
4.00622e-05
4.00622e-05
4.00623e-05
4.00623e-05
4.00624e-05
4.00625e-05
4.00626e-05
4.00627e-05
4.00628e-05
4.00629e-05
4.0063e-05
4.00632e-05
4.00634e-05
4.00638e-05
4.00642e-05
4.00648e-05
4.00656e-05
4.00666e-05
4.00679e-05
4.00696e-05
4.00719e-05
4.0075e-05
4.00795e-05
4.00835e-05
4.00963e-05
4.00647e-05
4.01801e-05
3.95194e-05
4.06656e-05
4.57581e-05
2.05447e-06
2.25056e-05
4.00668e-05
4.00657e-05
4.00637e-05
4.00612e-05
4.00621e-05
4.00626e-05
4.0062e-05
4.00611e-05
4.00604e-05
4.00598e-05
4.00595e-05
4.00593e-05
4.0059e-05
4.00588e-05
4.00587e-05
4.00588e-05
4.0059e-05
4.00592e-05
4.00596e-05
4.006e-05
4.00605e-05
4.0061e-05
4.00615e-05
4.0062e-05
4.00626e-05
4.0063e-05
4.00634e-05
4.00637e-05
4.00639e-05
4.0064e-05
4.00641e-05
4.00642e-05
4.00644e-05
4.00648e-05
4.00652e-05
4.00659e-05
4.00664e-05
4.00708e-05
4.00656e-05
4.00655e-05
4.00645e-05
4.00637e-05
4.00631e-05
4.00626e-05
4.00622e-05
4.0062e-05
4.0062e-05
4.00621e-05
4.00622e-05
4.00624e-05
4.00625e-05
4.00626e-05
4.00627e-05
4.00628e-05
4.00629e-05
4.0063e-05
4.00631e-05
4.00633e-05
4.00635e-05
4.00638e-05
4.00642e-05
4.00646e-05
4.00653e-05
4.00661e-05
4.00672e-05
4.00687e-05
4.00705e-05
4.00727e-05
4.00758e-05
4.00785e-05
4.00873e-05
4.00838e-05
4.01058e-05
4.02263e-05
3.84442e-05
4.89939e-05
3.38137e-06
9.43778e-08
4.00663e-05
4.00655e-05
4.00636e-05
4.00611e-05
4.00618e-05
4.00622e-05
4.00617e-05
4.00608e-05
4.006e-05
4.00595e-05
4.00592e-05
4.00589e-05
4.00586e-05
4.00585e-05
4.00584e-05
4.00585e-05
4.00586e-05
4.00588e-05
4.00592e-05
4.00595e-05
4.006e-05
4.00605e-05
4.00611e-05
4.00616e-05
4.00622e-05
4.00627e-05
4.00631e-05
4.00635e-05
4.00638e-05
4.0064e-05
4.00641e-05
4.00641e-05
4.00642e-05
4.00644e-05
4.00648e-05
4.00654e-05
4.00656e-05
4.00692e-05
4.00669e-05
4.0065e-05
4.0064e-05
4.00632e-05
4.00626e-05
4.00622e-05
4.00619e-05
4.00618e-05
4.00619e-05
4.00621e-05
4.00623e-05
4.00624e-05
4.00626e-05
4.00627e-05
4.00629e-05
4.0063e-05
4.00631e-05
4.00632e-05
4.00633e-05
4.00635e-05
4.00636e-05
4.00639e-05
4.00642e-05
4.00646e-05
4.00651e-05
4.00658e-05
4.00667e-05
4.0068e-05
4.00695e-05
4.00714e-05
4.00738e-05
4.00766e-05
4.00785e-05
4.00946e-05
4.00295e-05
4.04477e-05
3.85249e-05
4.54814e-05
2.79744e-05
3.71819e-06
4.00658e-05
4.00652e-05
4.00635e-05
4.0061e-05
4.00615e-05
4.00618e-05
4.00613e-05
4.00604e-05
4.00597e-05
4.00592e-05
4.00589e-05
4.00586e-05
4.00583e-05
4.00582e-05
4.00581e-05
4.00581e-05
4.00582e-05
4.00585e-05
4.00588e-05
4.00591e-05
4.00596e-05
4.00601e-05
4.00606e-05
4.00612e-05
4.00618e-05
4.00623e-05
4.00628e-05
4.00632e-05
4.00636e-05
4.00638e-05
4.0064e-05
4.00641e-05
4.00641e-05
4.00642e-05
4.00645e-05
4.00649e-05
4.00653e-05
4.00676e-05
4.00672e-05
4.00644e-05
4.00635e-05
4.00627e-05
4.00622e-05
4.00618e-05
4.00617e-05
4.00617e-05
4.00619e-05
4.00621e-05
4.00623e-05
4.00625e-05
4.00627e-05
4.00629e-05
4.0063e-05
4.00632e-05
4.00633e-05
4.00634e-05
4.00635e-05
4.00636e-05
4.00638e-05
4.0064e-05
4.00642e-05
4.00646e-05
4.0065e-05
4.00656e-05
4.00664e-05
4.00674e-05
4.00688e-05
4.00705e-05
4.00724e-05
4.00755e-05
4.00747e-05
4.00947e-05
4.00252e-05
4.03258e-05
3.93842e-05
4.15345e-05
4.14046e-05
1.34252e-05
4.00653e-05
4.00649e-05
4.00633e-05
4.0061e-05
4.00613e-05
4.00614e-05
4.00609e-05
4.00601e-05
4.00594e-05
4.00589e-05
4.00586e-05
4.00583e-05
4.0058e-05
4.00579e-05
4.00578e-05
4.00578e-05
4.00579e-05
4.00582e-05
4.00584e-05
4.00588e-05
4.00592e-05
4.00597e-05
4.00602e-05
4.00608e-05
4.00614e-05
4.00619e-05
4.00624e-05
4.00629e-05
4.00633e-05
4.00636e-05
4.00639e-05
4.00641e-05
4.00641e-05
4.00642e-05
4.00643e-05
4.00646e-05
4.00649e-05
4.00667e-05
4.00667e-05
4.00639e-05
4.0063e-05
4.00622e-05
4.00618e-05
4.00616e-05
4.00616e-05
4.00617e-05
4.00619e-05
4.00622e-05
4.00624e-05
4.00626e-05
4.00628e-05
4.0063e-05
4.00632e-05
4.00633e-05
4.00635e-05
4.00636e-05
4.00637e-05
4.00638e-05
4.0064e-05
4.00641e-05
4.00644e-05
4.00646e-05
4.0065e-05
4.00655e-05
4.00662e-05
4.00671e-05
4.00682e-05
4.00698e-05
4.00714e-05
4.00742e-05
4.00739e-05
4.00872e-05
4.00551e-05
4.01568e-05
4.0016e-05
3.96391e-05
4.4063e-05
2.83333e-05
4.00648e-05
4.00646e-05
4.00631e-05
4.00609e-05
4.0061e-05
4.00611e-05
4.00606e-05
4.00598e-05
4.00591e-05
4.00586e-05
4.00583e-05
4.0058e-05
4.00577e-05
4.00576e-05
4.00575e-05
4.00576e-05
4.00577e-05
4.00579e-05
4.00581e-05
4.00584e-05
4.00588e-05
4.00593e-05
4.00598e-05
4.00604e-05
4.0061e-05
4.00615e-05
4.0062e-05
4.00625e-05
4.00629e-05
4.00633e-05
4.00636e-05
4.00639e-05
4.00641e-05
4.00641e-05
4.00642e-05
4.00644e-05
4.00646e-05
4.00662e-05
4.00662e-05
4.00635e-05
4.00626e-05
4.00618e-05
4.00615e-05
4.00615e-05
4.00615e-05
4.00617e-05
4.0062e-05
4.00622e-05
4.00625e-05
4.00628e-05
4.0063e-05
4.00632e-05
4.00634e-05
4.00635e-05
4.00637e-05
4.00638e-05
4.00639e-05
4.00641e-05
4.00642e-05
4.00644e-05
4.00646e-05
4.00648e-05
4.00651e-05
4.00655e-05
4.00661e-05
4.00669e-05
4.00679e-05
4.00692e-05
4.00707e-05
4.00729e-05
4.00741e-05
4.00794e-05
4.00786e-05
4.00675e-05
4.02349e-05
3.93651e-05
4.26219e-05
3.70397e-05
4.00643e-05
4.00643e-05
4.00629e-05
4.00607e-05
4.00607e-05
4.00608e-05
4.00603e-05
4.00595e-05
4.00588e-05
4.00583e-05
4.0058e-05
4.00577e-05
4.00574e-05
4.00573e-05
4.00573e-05
4.00573e-05
4.00574e-05
4.00576e-05
4.00578e-05
4.00581e-05
4.00585e-05
4.00589e-05
4.00594e-05
4.006e-05
4.00605e-05
4.00611e-05
4.00616e-05
4.00621e-05
4.00625e-05
4.0063e-05
4.00634e-05
4.00637e-05
4.00639e-05
4.00641e-05
4.00641e-05
4.00642e-05
4.00644e-05
4.00657e-05
4.00657e-05
4.00631e-05
4.00622e-05
4.00615e-05
4.00614e-05
4.00614e-05
4.00615e-05
4.00617e-05
4.0062e-05
4.00623e-05
4.00626e-05
4.00629e-05
4.00631e-05
4.00633e-05
4.00635e-05
4.00637e-05
4.00639e-05
4.0064e-05
4.00642e-05
4.00643e-05
4.00644e-05
4.00646e-05
4.00648e-05
4.0065e-05
4.00653e-05
4.00656e-05
4.00661e-05
4.00668e-05
4.00677e-05
4.00688e-05
4.00701e-05
4.00718e-05
4.00739e-05
4.00751e-05
4.00858e-05
4.00497e-05
4.02179e-05
3.96697e-05
4.09964e-05
4.01593e-05
4.00638e-05
4.00639e-05
4.00627e-05
4.00606e-05
4.00605e-05
4.00604e-05
4.00599e-05
4.00592e-05
4.00586e-05
4.00581e-05
4.00577e-05
4.00574e-05
4.00572e-05
4.00571e-05
4.0057e-05
4.00571e-05
4.00572e-05
4.00573e-05
4.00575e-05
4.00578e-05
4.00581e-05
4.00585e-05
4.0059e-05
4.00595e-05
4.00601e-05
4.00606e-05
4.00611e-05
4.00617e-05
4.00621e-05
4.00626e-05
4.0063e-05
4.00634e-05
4.00637e-05
4.0064e-05
4.00641e-05
4.00641e-05
4.00642e-05
4.00654e-05
4.00654e-05
4.00627e-05
4.00619e-05
4.00612e-05
4.00612e-05
4.00613e-05
4.00615e-05
4.00617e-05
4.00621e-05
4.00624e-05
4.00627e-05
4.0063e-05
4.00632e-05
4.00635e-05
4.00637e-05
4.00639e-05
4.00641e-05
4.00642e-05
4.00644e-05
4.00646e-05
4.00647e-05
4.00649e-05
4.00651e-05
4.00653e-05
4.00655e-05
4.00658e-05
4.00662e-05
4.00668e-05
4.00676e-05
4.00686e-05
4.00698e-05
4.00712e-05
4.00734e-05
4.00738e-05
4.00835e-05
4.00606e-05
4.01454e-05
3.99564e-05
4.01933e-05
4.06392e-05
4.00634e-05
4.00635e-05
4.00624e-05
4.00605e-05
4.00602e-05
4.00601e-05
4.00596e-05
4.00589e-05
4.00582e-05
4.00578e-05
4.00574e-05
4.00571e-05
4.00569e-05
4.00568e-05
4.00568e-05
4.00568e-05
4.00569e-05
4.0057e-05
4.00572e-05
4.00575e-05
4.00578e-05
4.00582e-05
4.00586e-05
4.00591e-05
4.00597e-05
4.00602e-05
4.00607e-05
4.00612e-05
4.00617e-05
4.00622e-05
4.00627e-05
4.00631e-05
4.00635e-05
4.00638e-05
4.0064e-05
4.00641e-05
4.00641e-05
4.00651e-05
4.00651e-05
4.00623e-05
4.00616e-05
4.0061e-05
4.00611e-05
4.00612e-05
4.00614e-05
4.00618e-05
4.00621e-05
4.00624e-05
4.00628e-05
4.00631e-05
4.00634e-05
4.00636e-05
4.00639e-05
4.00641e-05
4.00643e-05
4.00645e-05
4.00646e-05
4.00648e-05
4.0065e-05
4.00651e-05
4.00653e-05
4.00655e-05
4.00657e-05
4.0066e-05
4.00664e-05
4.00669e-05
4.00676e-05
4.00684e-05
4.00695e-05
4.00708e-05
4.00727e-05
4.00736e-05
4.00793e-05
4.00728e-05
4.00961e-05
4.00857e-05
3.99897e-05
4.04017e-05
4.0063e-05
4.00631e-05
4.00621e-05
4.00603e-05
4.006e-05
4.00598e-05
4.00592e-05
4.00585e-05
4.00579e-05
4.00575e-05
4.00571e-05
4.00568e-05
4.00567e-05
4.00566e-05
4.00565e-05
4.00566e-05
4.00566e-05
4.00568e-05
4.00569e-05
4.00572e-05
4.00574e-05
4.00578e-05
4.00582e-05
4.00587e-05
4.00592e-05
4.00597e-05
4.00602e-05
4.00608e-05
4.00613e-05
4.00618e-05
4.00623e-05
4.00627e-05
4.00632e-05
4.00635e-05
4.00638e-05
4.0064e-05
4.0064e-05
4.00648e-05
4.00648e-05
4.0062e-05
4.00614e-05
4.00609e-05
4.0061e-05
4.00612e-05
4.00614e-05
4.00618e-05
4.00622e-05
4.00625e-05
4.00629e-05
4.00632e-05
4.00635e-05
4.00638e-05
4.0064e-05
4.00643e-05
4.00645e-05
4.00647e-05
4.00649e-05
4.00651e-05
4.00652e-05
4.00654e-05
4.00656e-05
4.00658e-05
4.0066e-05
4.00663e-05
4.00666e-05
4.00671e-05
4.00677e-05
4.00684e-05
4.00694e-05
4.00705e-05
4.00721e-05
4.00735e-05
4.00763e-05
4.00783e-05
4.00777e-05
4.01106e-05
4.0012e-05
4.01805e-05
4.00626e-05
4.00628e-05
4.00619e-05
4.00601e-05
4.00597e-05
4.00594e-05
4.00589e-05
4.00582e-05
4.00576e-05
4.00572e-05
4.00568e-05
4.00566e-05
4.00564e-05
4.00563e-05
4.00563e-05
4.00563e-05
4.00564e-05
4.00565e-05
4.00566e-05
4.00568e-05
4.00571e-05
4.00574e-05
4.00579e-05
4.00583e-05
4.00588e-05
4.00593e-05
4.00598e-05
4.00603e-05
4.00608e-05
4.00613e-05
4.00618e-05
4.00623e-05
4.00628e-05
4.00632e-05
4.00635e-05
4.00638e-05
4.00638e-05
4.00644e-05
4.00646e-05
4.00617e-05
4.00611e-05
4.00607e-05
4.00609e-05
4.00611e-05
4.00614e-05
4.00618e-05
4.00622e-05
4.00626e-05
4.0063e-05
4.00633e-05
4.00636e-05
4.00639e-05
4.00642e-05
4.00645e-05
4.00647e-05
4.00649e-05
4.00651e-05
4.00653e-05
4.00655e-05
4.00657e-05
4.00659e-05
4.00661e-05
4.00663e-05
4.00666e-05
4.00669e-05
4.00673e-05
4.00678e-05
4.00685e-05
4.00693e-05
4.00704e-05
4.00717e-05
4.00733e-05
4.0075e-05
4.00789e-05
4.00754e-05
4.01e-05
4.00611e-05
4.00931e-05
4.00622e-05
4.00624e-05
4.00615e-05
4.00599e-05
4.00594e-05
4.00591e-05
4.00585e-05
4.00578e-05
4.00572e-05
4.00568e-05
4.00565e-05
4.00562e-05
4.00561e-05
4.0056e-05
4.0056e-05
4.0056e-05
4.00561e-05
4.00562e-05
4.00563e-05
4.00565e-05
4.00568e-05
4.00571e-05
4.00575e-05
4.00579e-05
4.00584e-05
4.00588e-05
4.00593e-05
4.00598e-05
4.00603e-05
4.00609e-05
4.00614e-05
4.00619e-05
4.00624e-05
4.00629e-05
4.00633e-05
4.00636e-05
4.00636e-05
4.00641e-05
4.00643e-05
4.00614e-05
4.00609e-05
4.00606e-05
4.00608e-05
4.00611e-05
4.00614e-05
4.00618e-05
4.00622e-05
4.00627e-05
4.00631e-05
4.00634e-05
4.00638e-05
4.00641e-05
4.00644e-05
4.00647e-05
4.00649e-05
4.00651e-05
4.00654e-05
4.00656e-05
4.00658e-05
4.0066e-05
4.00662e-05
4.00664e-05
4.00667e-05
4.00669e-05
4.00672e-05
4.00676e-05
4.0068e-05
4.00686e-05
4.00694e-05
4.00703e-05
4.00715e-05
4.0073e-05
4.00744e-05
4.00778e-05
4.00771e-05
4.00881e-05
4.00846e-05
4.00803e-05
4.00618e-05
4.0062e-05
4.00612e-05
4.00596e-05
4.00591e-05
4.00587e-05
4.00581e-05
4.00574e-05
4.00569e-05
4.00565e-05
4.00562e-05
4.00559e-05
4.00558e-05
4.00557e-05
4.00557e-05
4.00557e-05
4.00558e-05
4.00559e-05
4.0056e-05
4.00562e-05
4.00564e-05
4.00567e-05
4.00571e-05
4.00575e-05
4.00579e-05
4.00584e-05
4.00588e-05
4.00593e-05
4.00599e-05
4.00604e-05
4.00609e-05
4.00615e-05
4.0062e-05
4.00625e-05
4.00629e-05
4.00633e-05
4.00635e-05
4.00638e-05
4.0064e-05
4.00611e-05
4.00607e-05
4.00605e-05
4.00608e-05
4.00611e-05
4.00614e-05
4.00619e-05
4.00623e-05
4.00627e-05
4.00632e-05
4.00635e-05
4.00639e-05
4.00642e-05
4.00646e-05
4.00648e-05
4.00651e-05
4.00654e-05
4.00656e-05
4.00658e-05
4.00661e-05
4.00663e-05
4.00665e-05
4.00667e-05
4.0067e-05
4.00672e-05
4.00675e-05
4.00678e-05
4.00683e-05
4.00688e-05
4.00695e-05
4.00704e-05
4.00714e-05
4.00728e-05
4.00742e-05
4.00767e-05
4.00782e-05
4.00825e-05
4.00885e-05
4.00867e-05
4.00614e-05
4.00616e-05
4.00609e-05
4.00594e-05
4.00588e-05
4.00584e-05
4.00578e-05
4.00571e-05
4.00565e-05
4.00561e-05
4.00558e-05
4.00556e-05
4.00555e-05
4.00554e-05
4.00554e-05
4.00554e-05
4.00554e-05
4.00555e-05
4.00557e-05
4.00558e-05
4.0056e-05
4.00563e-05
4.00567e-05
4.00571e-05
4.00575e-05
4.00579e-05
4.00584e-05
4.00588e-05
4.00593e-05
4.00599e-05
4.00604e-05
4.0061e-05
4.00615e-05
4.00621e-05
4.00625e-05
4.0063e-05
4.00632e-05
4.00634e-05
4.00638e-05
4.00608e-05
4.00605e-05
4.00603e-05
4.00607e-05
4.0061e-05
4.00614e-05
4.00619e-05
4.00623e-05
4.00628e-05
4.00632e-05
4.00636e-05
4.0064e-05
4.00644e-05
4.00647e-05
4.0065e-05
4.00653e-05
4.00656e-05
4.00658e-05
4.00661e-05
4.00663e-05
4.00666e-05
4.00668e-05
4.00671e-05
4.00673e-05
4.00675e-05
4.00678e-05
4.00681e-05
4.00686e-05
4.00691e-05
4.00697e-05
4.00705e-05
4.00714e-05
4.00726e-05
4.00741e-05
4.0076e-05
4.00782e-05
4.00809e-05
4.00859e-05
4.0091e-05
4.00611e-05
4.00613e-05
4.00606e-05
4.00591e-05
4.00585e-05
4.0058e-05
4.00574e-05
4.00567e-05
4.00561e-05
4.00557e-05
4.00554e-05
4.00552e-05
4.00551e-05
4.00551e-05
4.0055e-05
4.00551e-05
4.00551e-05
4.00552e-05
4.00553e-05
4.00555e-05
4.00557e-05
4.00559e-05
4.00563e-05
4.00566e-05
4.0057e-05
4.00574e-05
4.00579e-05
4.00583e-05
4.00588e-05
4.00594e-05
4.00599e-05
4.00605e-05
4.0061e-05
4.00616e-05
4.00621e-05
4.00626e-05
4.00629e-05
4.00631e-05
4.00635e-05
4.00606e-05
4.00603e-05
4.00602e-05
4.00606e-05
4.0061e-05
4.00614e-05
4.00619e-05
4.00624e-05
4.00629e-05
4.00633e-05
4.00637e-05
4.00641e-05
4.00645e-05
4.00649e-05
4.00652e-05
4.00655e-05
4.00658e-05
4.00661e-05
4.00663e-05
4.00666e-05
4.00669e-05
4.00671e-05
4.00674e-05
4.00676e-05
4.00679e-05
4.00682e-05
4.00685e-05
4.00689e-05
4.00693e-05
4.00699e-05
4.00706e-05
4.00715e-05
4.00726e-05
4.0074e-05
4.00757e-05
4.00778e-05
4.00806e-05
4.00832e-05
4.00912e-05
4.00608e-05
4.00609e-05
4.00602e-05
4.00588e-05
4.00581e-05
4.00576e-05
4.00569e-05
4.00563e-05
4.00557e-05
4.00553e-05
4.00551e-05
4.00549e-05
4.00547e-05
4.00547e-05
4.00547e-05
4.00547e-05
4.00548e-05
4.00548e-05
4.00549e-05
4.00551e-05
4.00553e-05
4.00555e-05
4.00558e-05
4.00562e-05
4.00565e-05
4.00569e-05
4.00573e-05
4.00578e-05
4.00583e-05
4.00588e-05
4.00594e-05
4.00599e-05
4.00605e-05
4.00611e-05
4.00616e-05
4.00621e-05
4.00626e-05
4.00627e-05
4.00633e-05
4.00603e-05
4.00601e-05
4.006e-05
4.00605e-05
4.00609e-05
4.00614e-05
4.00619e-05
4.00624e-05
4.00629e-05
4.00634e-05
4.00638e-05
4.00643e-05
4.00647e-05
4.0065e-05
4.00654e-05
4.00657e-05
4.0066e-05
4.00663e-05
4.00666e-05
4.00669e-05
4.00672e-05
4.00674e-05
4.00677e-05
4.0068e-05
4.00682e-05
4.00685e-05
4.00688e-05
4.00692e-05
4.00696e-05
4.00702e-05
4.00708e-05
4.00716e-05
4.00727e-05
4.00739e-05
4.00755e-05
4.00773e-05
4.00804e-05
4.00818e-05
4.00897e-05
4.00604e-05
4.00606e-05
4.00599e-05
4.00585e-05
4.00578e-05
4.00572e-05
4.00565e-05
4.00558e-05
4.00553e-05
4.00549e-05
4.00547e-05
4.00545e-05
4.00544e-05
4.00543e-05
4.00543e-05
4.00543e-05
4.00544e-05
4.00544e-05
4.00546e-05
4.00547e-05
4.00549e-05
4.00551e-05
4.00554e-05
4.00557e-05
4.0056e-05
4.00564e-05
4.00568e-05
4.00572e-05
4.00577e-05
4.00582e-05
4.00588e-05
4.00593e-05
4.00599e-05
4.00605e-05
4.00611e-05
4.00616e-05
4.00622e-05
4.00624e-05
4.0063e-05
4.006e-05
4.00599e-05
4.00599e-05
4.00604e-05
4.00608e-05
4.00613e-05
4.00619e-05
4.00624e-05
4.0063e-05
4.00635e-05
4.00639e-05
4.00644e-05
4.00648e-05
4.00652e-05
4.00655e-05
4.00659e-05
4.00662e-05
4.00665e-05
4.00668e-05
4.00671e-05
4.00674e-05
4.00677e-05
4.0068e-05
4.00683e-05
4.00686e-05
4.00689e-05
4.00692e-05
4.00695e-05
4.007e-05
4.00705e-05
4.00711e-05
4.00718e-05
4.00728e-05
4.00739e-05
4.00754e-05
4.00771e-05
4.008e-05
4.00811e-05
4.00883e-05
4.00601e-05
4.00602e-05
4.00595e-05
4.00582e-05
4.00574e-05
4.00568e-05
4.00561e-05
4.00554e-05
4.00549e-05
4.00545e-05
4.00542e-05
4.00541e-05
4.00539e-05
4.00539e-05
4.00539e-05
4.00539e-05
4.0054e-05
4.0054e-05
4.00541e-05
4.00543e-05
4.00544e-05
4.00546e-05
4.00549e-05
4.00552e-05
4.00555e-05
4.00559e-05
4.00562e-05
4.00567e-05
4.00571e-05
4.00576e-05