/*--------------------------------*- C++ -*----------------------------------*\
| =========                 |                                                 |
| \\      /  F ield         | OpenFOAM: The Open Source CFD Toolbox           |
|  \\    /   O peration     | Version:  2306                                  |
|   \\  /    A nd           | Website:  www.openfoam.com                      |
|    \\/     M anipulation  |                                                 |
\*---------------------------------------------------------------------------*/
FoamFile
{
    version     2.0;
    format      ascii;
    arch        "LSB;label=32;scalar=64";
    class       surfaceScalarField;
    location    "425";
    object      phi;
}
// * * * * * * * * * * * * * * * * * * * * * * * * * * * * * * * * * * * * * //

dimensions      [0 3 -1 0 0 0 0];

oriented        oriented;

internalField   nonuniform List<scalar> 
21254
(
-0.2338
0.253398
-0.0195977
0.275396
-0.0219979
0.294333
-0.0189371
0.311246
-0.0169133
0.327221
-0.015975
0.339949
-0.0127281
0.349933
-0.00998361
0.357923
-0.00798975
0.362951
-0.00502835
0.366014
-0.00306315
0.367162
-0.00114823
0.365845
0.00131774
0.362193
0.00365176
0.356027
0.00616602
0.346947
0.00907993
0.334842
0.0121052
0.318931
0.0159104
0.29853
0.0204019
0.272471
0.026058
0.240006
0.032465
0.200644
0.0393625
0.157726
0.0429185
0.119269
0.0384565
0.0951017
0.0241672
0.0901246
0.00497705
0.0996579
-0.00953333
0.113635
-0.0139775
0.126111
-0.0124756
0.135151
-0.00904025
0.140762
-0.00561049
0.14351
-0.00274805
0.143542
-3.27699e-05
0.140723
0.00281915
0.13516
0.00556343
0.126579
0.00858086
0.113957
0.0126213
0.095407
0.0185479
0.0668498
0.0285579
0.0653286
0.00151931
-0.210716
-0.0230842
-0.186778
-0.0239385
-0.157389
-0.0293888
-0.125183
-0.0322062
-0.0912713
-0.0339114
-0.0563291
-0.0349421
-0.0219496
-0.0343795
0.00991991
-0.0318695
0.0388807
-0.0289607
0.0644589
-0.0255782
0.0864122
-0.0219533
0.105105
-0.0186923
0.120826
-0.0157218
0.133921
-0.0130947
0.145107
-0.0111856
0.154705
-0.00959877
0.163194
-0.00848857
0.170803
-0.00760945
0.177843
-0.00703907
0.184431
-0.00658805
0.190736
-0.00630547
0.196743
-0.00600705
0.202376
-0.00563325
0.206984
-0.00460733
0.210386
-0.00340194
0.212907
-0.0025216
0.214604
-0.00169709
0.215706
-0.00110134
0.216351
-0.000645558
0.216533
-0.000182074
0.216037
0.000496218
0.214777
0.00126044
0.212751
0.00202562
0.209999
0.0027519
0.206437
0.00356209
0.201731
0.00470606
0.194918
0.00681336
0.181099
0.0138198
0.161219
0.0198802
-0.213179
0.234686
-0.0411052
0.25671
-0.0440221
0.279735
-0.0419613
0.301247
-0.0384253
0.322288
-0.0370167
0.341872
-0.0323117
0.359598
-0.0277094
0.37575
-0.0241419
0.389959
-0.0192375
0.402304
-0.0154085
0.413023
-0.0118664
0.422562
-0.00822137
0.431262
-0.00504839
0.439174
-0.00174568
0.446088
0.00216539
0.451567
0.00662632
0.455276
0.0122014
0.456853
0.0188243
0.454948
0.027964
0.44838
0.0390326
0.434681
0.0530614
0.412244
0.0653554
0.380908
0.0697925
0.345677
0.0593982
0.31304
0.0376139
0.28488
0.0186269
0.260961
0.00994183
0.24141
0.00707485
0.226478
0.00589223
0.215533
0.00533401
0.206715
0.00606985
0.198433
0.00824935
0.189742
0.0115096
0.17989
0.0154156
0.168129
0.0203417
0.152936
0.027814
0.133146
0.0383366
0.0996688
0.0620333
0.0715169
0.0296686
-0.191219
-0.045044
-0.167719
-0.0474382
-0.140206
-0.0569023
-0.1111
-0.0613115
-0.0801851
-0.0648267
-0.0478564
-0.0672708
-0.0156145
-0.0666214
0.0152083
-0.0626923
0.0433623
-0.0571148
0.068412
-0.0506279
0.0901897
-0.0437311
0.109073
-0.0375761
0.125518
-0.0321667
0.139747
-0.0273234
0.15221
-0.0236481
0.163208
-0.0205973
0.173036
-0.0183166
0.182001
-0.0165746
0.19036
-0.015398
0.198224
-0.0144518
0.205756
-0.0138375
0.213027
-0.013278
0.219969
-0.0125751
0.226124
-0.0107621
0.231218
-0.00849672
0.235442
-0.00674566
0.238699
-0.00495394
0.240897
-0.00329931
0.241988
-0.00173614
0.242078
-0.000272005
0.241392
0.00118208
0.240115
0.00253717
0.238266
0.00387472
0.235842
0.00517596
0.232766
0.00663853
0.228741
0.00873098
0.223786
0.0117685
0.213441
0.0241648
0.195395
0.0379276
-0.206941
0.228639
-0.0628026
0.250486
-0.0658697
0.274075
-0.0655497
0.295637
-0.0599876
0.316131
-0.0575105
0.335727
-0.0519078
0.353126
-0.0451089
0.368721
-0.0397363
0.382061
-0.0325782
0.393413
-0.0267597
0.402736
-0.0211897
0.410163
-0.0156483
0.415545
-0.0104308
0.419363
-0.00556366
0.421618
-8.9166e-05
0.423338
0.00490588
0.424623
0.0109166
0.426406
0.0170419
0.429119
0.0252502
0.433448
0.0347043
0.439368
0.0471413
0.444871
0.0598518
0.446116
0.0685485
0.440186
0.0653273
0.428124
0.0496767
0.412438
0.0343128
0.394177
0.028203
0.372817
0.0284341
0.348204
0.0305051
0.321623
0.0319152
0.29551
0.0321827
0.271929
0.0318308
0.251252
0.0321863
0.232253
0.0344145
0.213223
0.0393723
0.19203
0.0490063
0.16714
0.0632264
0.129661
0.0995128
0.0871833
0.0721462
-0.185103
-0.0668823
-0.161173
-0.0713681
-0.13255
-0.085525
-0.102786
-0.0910757
-0.0716829
-0.0959299
-0.039392
-0.0995617
-0.00749514
-0.0985182
0.0222863
-0.0924738
0.0495768
-0.0844052
0.0742822
-0.0753333
0.0960771
-0.065526
0.115137
-0.0566363
0.131846
-0.0488755
0.14648
-0.0419578
0.159348
-0.0365155
0.170787
-0.0320361
0.181062
-0.028592
0.190441
-0.0259534
0.199131
-0.0240879
0.207296
-0.0226173
0.215124
-0.021665
0.222627
-0.0207809
0.229708
-0.0196561
0.236066
-0.0171205
0.241413
-0.0138435
0.24586
-0.0111932
0.249477
-0.00857049
0.252301
-0.00612367
0.254398
-0.00383254
0.255758
-0.00163249
0.25644
0.000500307
0.256406
0.00257131
0.255662
0.00461907
0.254134
0.00670314
0.25174
0.00903299
0.248126
0.0123451
0.242974
0.0169211
0.232689
0.0344501
0.214889
0.0557277
-0.199339
0.222022
-0.0854856
0.244787
-0.0886351
0.269821
-0.0905835
0.292676
-0.0828424
0.314837
-0.0796716
0.33609
-0.0731607
0.355614
-0.0646331
0.373234
-0.0573561
0.389162
-0.0485061
0.403178
-0.0407756
0.415393
-0.0334054
0.425822
-0.0260774
0.43453
-0.0191382
0.441589
-0.0126233
0.447302
-0.00580211
0.451123
0.00108546
0.453156
0.00888294
0.453178
0.0170204
0.451738
0.0266904
0.449322
0.0371199
0.447189
0.0492742
0.446607
0.0604339
0.447055
0.0681009
0.446267
0.0661144
0.442341
0.0536034
0.435847
0.0408069
0.428157
0.0358925
0.419566
0.0370254
0.409006
0.0410646
0.394779
0.0461424
0.375417
0.051545
0.350758
0.0564897
0.32273
0.0602138
0.294036
0.0631087
0.26597
0.0674384
0.237204
0.0777718
0.20566
0.0947693
0.162922
0.142249
0.112377
0.122688
-0.176944
-0.0892775
-0.152939
-0.0953731
-0.123818
-0.114646
-0.0939226
-0.120971
-0.0627559
-0.127097
-0.0303627
-0.131955
0.00144719
-0.130328
0.0308542
-0.121881
0.0576739
-0.111225
0.082006
-0.0996653
0.103499
-0.0870189
0.122395
-0.0755325
0.139126
-0.0656063
0.153945
-0.0567766
0.167172
-0.0497423
0.179031
-0.0438953
0.189816
-0.0393776
0.199706
-0.0358433
0.208931
-0.0333124
0.217628
-0.0313147
0.225909
-0.0299455
0.233838
-0.0287104
0.241356
-0.027174
0.24814
-0.0239047
0.253942
-0.0196452
0.258822
-0.016074
0.262834
-0.0125824
0.26603
-0.00931887
0.26844
-0.00624267
0.270134
-0.00332693
0.271145
-0.000510496
0.271494
0.00222192
0.271176
0.00493715
0.270174
0.00770539
0.268365
0.0108423
0.265379
0.0153314
0.260652
0.0216477
0.250923
0.0441795
0.232558
0.074094
-0.195501
0.219005
-0.10899
0.242641
-0.11227
0.269066
-0.117009
0.292661
-0.106437
0.315799
-0.10281
0.33809
-0.0954518
0.358427
-0.0849703
0.376915
-0.0758437
0.393842
-0.0654332
0.408554
-0.0554878
0.421431
-0.0462823
0.432404
-0.0370504
0.44175
-0.0284844
0.449149
-0.0200226
0.454747
-0.0113991
0.458607
-0.00277483
0.461005
0.00648457
0.462067
0.0159588
0.46166
0.0270976
0.460211
0.0385683
0.45783
0.0516556
0.454934
0.0633299
0.451599
0.0714358
0.447144
0.0705696
0.440914
0.059833
0.433359
0.0483622
0.42565
0.0436012
0.418525
0.0441504
0.412029
0.0475609
0.405817
0.0523539
0.398794
0.0585682
0.388874
0.0664092
0.373374
0.0757145
0.350588
0.0858947
0.321298
0.0967279
0.287369
0.1117
0.249255
0.132883
0.20061
0.190895
0.14426
0.179038
-0.172055
-0.112723
-0.147322
-0.120106
-0.116937
-0.145031
-0.0861893
-0.151718
-0.0542901
-0.158996
-0.0212464
-0.164999
0.0109649
-0.162539
0.0404111
-0.151327
0.067098
-0.137912
0.0912165
-0.123784
0.112466
-0.108269
0.131192
-0.0942583
0.147895
-0.0823088
0.162793
-0.0716756
0.176206
-0.0631548
0.188395
-0.0560839
0.199536
-0.0505191
0.209815
-0.0461222
0.219425
-0.0429228
0.228505
-0.0403947
0.237147
-0.0385866
0.245389
-0.0369527
0.253196
-0.0349809
0.260291
-0.0310002
0.266412
-0.0257654
0.271589
-0.0212512
0.275863
-0.0168565
0.279286
-0.0127425
0.281881
-0.00883721
0.283681
-0.00512737
0.284732
-0.00156062
0.285098
0.00185561
0.284788
0.00524703
0.283786
0.00870736
0.282069
0.0125593
0.279303
0.0180975
0.274958
0.0259932
0.266414
0.0527238
0.248622
0.0918863
-0.192327
0.216847
-0.13351
0.241805
-0.137229
0.269609
-0.144814
0.294411
-0.131238
0.318573
-0.126972
0.342235
-0.119114
0.363551
-0.106286
0.383333
-0.0956259
0.401274
-0.0833746
0.417259
-0.0714727
0.431516
-0.0605392
0.443861
-0.0493953
0.454524
-0.0391474
0.4635
-0.0289987
0.47066
-0.0185593
0.476366
-0.00848095
0.480221
0.00263004
0.482345
0.0138346
0.482932
0.026511
0.48196
0.0395404
0.479666
0.0539496
0.476303
0.0666927
0.471602
0.0761368
0.465102
0.0770695
0.456621
0.0683141
0.446783
0.0581998
0.436619
0.0537654
0.426764
0.0540052
0.417405
0.05692
0.408709
0.0610497
0.400928
0.0663494
0.393992
0.0733449
0.387015
0.0826919
0.37733
0.0955797
0.360647
0.11341
0.333411
0.138936
0.295019
0.171274
0.24242
0.243493
0.18128
0.240177
-0.167916
-0.137134
-0.14237
-0.145652
-0.110679
-0.176722
-0.0787915
-0.183606
-0.0458911
-0.191896
-0.01192
-0.19897
0.0210109
-0.19547
0.0508215
-0.181137
0.0776179
-0.164708
0.101689
-0.147855
0.122791
-0.129371
0.141332
-0.112799
0.157911
-0.0988877
0.172792
-0.0865563
0.186282
-0.0766447
0.198639
-0.0684415
0.210027
-0.0619068
0.22064
-0.0567355
0.230606
-0.0528882
0.240052
-0.0498413
0.249071
-0.0476054
0.257683
-0.0455648
0.265834
-0.0431316
0.273338
-0.038504
0.279862
-0.0322903
0.285397
-0.0267855
0.290033
-0.0214926
0.293768
-0.0164774
0.296644
-0.0117136
0.298694
-0.00717745
0.299962
-0.00282826
0.300476
0.00134154
0.300245
0.00547806
0.299294
0.00965882
0.297485
0.0143683
0.294582
0.0210008
0.289913
0.0306623
0.281549
0.0610879
0.26417
0.109266
-0.190476
0.216324
-0.159358
0.242323
-0.163228
0.271694
-0.174184
0.297765
-0.15731
0.323175
-0.152382
0.347907
-0.143846
0.370379
-0.128758
0.390998
-0.116245
0.409967
-0.102344
0.426865
-0.0883707
0.441922
-0.0755959
0.455275
-0.0627488
0.466798
-0.0506697
0.476561
-0.0387621
0.484639
-0.0266373
0.490862
-0.0147033
0.495418
-0.00192687
0.498302
0.0109506
0.499653
0.0251602
0.499565
0.0396291
0.498244
0.0552703
0.495749
0.0691874
0.491953
0.0799334
0.48611
0.0829124
0.478011
0.0764129
0.468143
0.0680681
0.457449
0.0644588
0.446517
0.0649369
0.435481
0.0679558
0.424342
0.0721887
0.413299
0.0773926
0.402704
0.0839404
0.393059
0.0923369
0.384583
0.104055
0.37592
0.122074
0.361782
0.153073
0.334138
0.198918
0.285298
0.292335
0.222121
0.303354
-0.164854
-0.162755
-0.138198
-0.172308
-0.10505
-0.209871
-0.0718456
-0.21681
-0.0377393
-0.226003
-0.00252151
-0.234188
0.0313953
-0.229387
0.0618762
-0.211618
0.0890317
-0.191864
0.113272
-0.172095
0.134328
-0.150427
0.152747
-0.131218
0.169206
-0.115347
0.184007
-0.101357
0.197487
-0.0901248
0.209931
-0.080885
0.22151
-0.0734856
0.232366
-0.0675914
0.242632
-0.063155
0.252403
-0.0596117
0.261748
-0.05695
0.27068
-0.0544969
0.279175
-0.0516268
0.286988
-0.0463168
0.293888
-0.039191
0.299795
-0.0326923
0.304735
-0.0264325
0.308761
-0.0205035
0.311871
-0.014823
0.314127
-0.00943363
0.315534
-0.00423531
0.316155
0.000720441
0.316005
0.00562843
0.315042
0.0106214
0.313226
0.0161841
0.310231
0.0239958
0.30536
0.0355341
0.29698
0.0694676
0.280112
0.126134
-0.189314
0.216498
-0.186542
0.243928
-0.190658
0.27498
-0.205236
0.302253
-0.184583
0.328952
-0.179081
0.354933
-0.169827
0.378423
-0.152248
0.400251
-0.138072
0.420037
-0.12213
0.437872
-0.106206
0.453985
-0.0917084
0.468215
-0.0769794
0.480645
-0.0630989
0.4914
-0.0495179
0.500429
-0.0356658
0.507709
-0.021983
0.513302
-0.00751995
0.5172
0.00705202
0.519379
0.0229818
0.519964
0.0390438
0.519179
0.0560554
0.51705
0.0713162
0.513501
0.0834825
0.508138
0.0882753
0.500595
0.0839563
0.491217
0.0774459
0.480826
0.0748493
0.469949
0.0758137
0.45866
0.0792453
0.446938
0.0839101
0.434698
0.0896329
0.422018
0.09662
0.40906
0.105295
0.396424
0.116691
0.385031
0.133466
0.374774
0.16333
0.359229
0.214461
0.322927
0.328636
0.263955
0.362325
-0.162461
-0.189609
-0.134644
-0.200125
-0.0997803
-0.244734
-0.0650524
-0.251538
-0.0295084
-0.261547
0.00707744
-0.270773
0.042215
-0.264525
0.073585
-0.242988
0.101292
-0.219571
0.125842
-0.196644
0.146995
-0.17158
0.165357
-0.14958
0.181713
-0.131703
0.19641
-0.116054
0.209827
-0.103542
0.22231
-0.0933685
0.233976
-0.085151
0.245005
-0.0786209
0.255496
-0.0736463
0.265543
-0.069658
0.275174
-0.066581
0.284433
-0.0637566
0.293257
-0.0604502
0.301438
-0.0544984
0.30871
-0.0464628
0.314986
-0.0389679
0.320282
-0.0317283
0.324631
-0.0248524
0.328022
-0.0182149
0.330501
-0.0119124
0.332118
-0.00585207
0.332879
-4.07088e-05
0.332822
0.00568518
0.331912
0.0115322
0.330046
0.0180496
0.32695
0.0270919
0.321891
0.0405933
0.313388
0.077971
0.29703
0.142494
-0.188985
0.217539
-0.215096
0.246418
-0.219537
0.279169
-0.237988
0.307833
-0.213246
0.336
-0.207247
0.363338
-0.197165
0.388047
-0.176958
0.410761
-0.160786
0.431658
-0.143028
0.450328
-0.124875
0.46715
-0.108531
0.482199
-0.0920279
0.495492
-0.0763925
0.50705
-0.0610757
0.516887
-0.0455023
0.525047
-0.0301437
0.531421
-0.0138938
0.536025
0.00244762
0.538925
0.0200823
0.540184
0.0377845
0.539987
0.056253
0.538376
0.0729269
0.53525
0.0866089
0.530312
0.0932125
0.523285
0.0909833
0.514389
0.0863424
0.504311
0.0849275
0.493636
0.0864882
0.482496
0.0903853
0.470806
0.0956
0.458503
0.101936
0.445486
0.109637
0.431605
0.119177
0.416794
0.131502
0.401441
0.14882
0.387024
0.177746
0.374548
0.226937
0.351071
0.352116
0.302022
0.411373
-0.160642
-0.217952
-0.131469
-0.229298
-0.0948253
-0.281378
-0.0585298
-0.287834
-0.0213305
-0.298746
0.0168393
-0.308943
0.0534508
-0.301136
0.0858815
-0.275419
0.114322
-0.248012
0.139353
-0.221675
0.160722
-0.192949
0.179129
-0.167987
0.195431
-0.148005
0.210033
-0.130656
0.22337
-0.116879
0.235801
-0.1058
0.247516
-0.0968664
0.258648
-0.0897522
0.269304
-0.0843021
0.279574
-0.0799283
0.289493
-0.0765
0.299024
-0.0732881
0.308154
-0.0695794
0.316684
-0.0630293
0.324342
-0.0541208
0.330967
-0.0455926
0.336614
-0.0373753
0.341258
-0.0294965
0.344944
-0.021901
0.347669
-0.0146374
0.349467
-0.00764991
0.350379
-0.00095214
0.350401
0.00566332
0.349529
0.0124033
0.347663
0.0199164
0.344493
0.0302621
0.339257
0.0458286
0.330727
0.0865014
0.314951
0.15827
-0.189085
0.219252
-0.245263
0.24968
-0.249966
0.284326
-0.272634
0.314449
-0.243369
0.343908
-0.236706
0.37272
-0.225977
0.398603
-0.202841
0.422458
-0.184641
0.444344
-0.164914
0.463895
-0.144427
0.481578
-0.126213
0.497509
-0.107959
0.511519
-0.0904027
0.523809
-0.0733647
0.534525
-0.0562183
0.54341
-0.0390288
0.550591
-0.0210753
0.555968
-0.00292957
0.559682
0.0163683
0.561702
0.0357646
0.562019
0.0559368
0.560881
0.0740645
0.558121
0.0893691
0.553546
0.0977871
0.546893
0.0976367
0.538292
0.0949431
0.528436
0.0947838
0.517859
0.0970656
0.50667
0.101574
0.49494
0.10733
0.482588
0.114288
0.469521
0.122703
0.455579
0.133119
0.440473
0.146607
0.423862
0.165431
0.405665
0.195944
0.389517
0.243083
0.371647
0.369985
0.332347
0.450672
-0.159367
-0.24767
-0.128726
-0.259938
-0.0901194
-0.319985
-0.0519624
-0.325991
-0.0130746
-0.337634
0.0269369
-0.348955
0.0650904
-0.33929
0.0987689
-0.309098
0.128114
-0.277358
0.153795
-0.247355
0.1755
-0.214654
0.194022
-0.18651
0.210335
-0.164317
0.224864
-0.145185
0.23811
-0.130124
0.250482
-0.118173
0.262176
-0.10856
0.273348
-0.100925
0.284139
-0.0950928
0.294582
-0.0903716
0.304689
-0.0866067
0.314501
-0.0830998
0.323936
-0.0790152
0.332798
-0.0718906
0.340804
-0.0621271
0.347813
-0.0526018
0.353792
-0.0433542
0.358779
-0.0344836
0.362749
-0.0258708
0.365727
-0.0176152
0.367752
-0.00967444
0.368808
-0.00200859
0.368952
0.00552003
0.368138
0.0132168
0.366253
0.0218018
0.362991
0.0335242
0.357633
0.0511866
0.349091
0.0950436
0.333873
0.173488
-0.189793
0.221533
-0.277003
0.253543
-0.281976
0.290121
-0.309211
0.321926
-0.275174
0.353002
-0.267782
0.38329
-0.256265
0.410323
-0.229874
0.435409
-0.209727
0.458335
-0.187839
0.478832
-0.164924
0.497311
-0.144693
0.513885
-0.124533
0.528702
-0.105219
0.541843
-0.0865057
0.553157
-0.0675333
0.562826
-0.0486978
0.570734
-0.0289827
0.576896
-0.00909202
0.581249
0.0120156
0.583888
0.033125
0.584832
0.0549936
0.584124
0.0747719
0.581777
0.0917161
0.577609
0.101955
0.571384
0.103862
0.563206
0.103122
0.553567
0.104423
0.542997
0.107635
0.531767
0.112804
0.519822
0.119275
0.507224
0.126886
0.493931
0.135996
0.479811
0.147239
0.464626
0.161793
0.44798
0.182076
0.428824
0.2151
0.408654
0.263253
0.390176
0.388465
0.355355
0.485493
-0.158399
-0.279063
-0.126248
-0.292089
-0.0855632
-0.36067
-0.0454712
-0.366083
-0.00461546
-0.378489
0.0372719
-0.390842
0.0771967
-0.379215
0.112274
-0.344175
0.142693
-0.307777
0.1691
-0.273762
0.191281
-0.236836
0.210028
-0.205257
0.226424
-0.180713
0.240914
-0.159676
0.25408
-0.14329
0.266368
-0.130461
0.278012
-0.120205
0.289201
-0.112113
0.300031
-0.105923
0.310595
-0.100936
0.320913
-0.0969245
0.330952
-0.0931388
0.340646
-0.0887097
0.349838
-0.0810823
0.358196
-0.0704845
0.365557
-0.0599632
0.371903
-0.0497001
0.377211
-0.0397916
0.381495
-0.0301548
0.384733
-0.0208535
0.386956
-0.0118972
0.388206
-0.00325812
0.388455
0.00527061
0.387706
0.0139661
0.385812
0.0236959
0.382498
0.0368376
0.377007
0.0566784
0.368475
0.103575
0.353883
0.188081
-0.190812
0.224354
-0.310544
0.258125
-0.315748
0.296744
-0.34783
0.330155
-0.308585
0.362847
-0.300474
0.394722
-0.28814
0.423265
-0.258416
0.449491
-0.235954
0.473495
-0.211843
0.494901
-0.186331
0.514285
-0.164076
0.531729
-0.141977
0.547171
-0.120661
0.560944
-0.100278
0.573041
-0.0796304
0.583406
-0.0590627
0.591979
-0.0375554
0.598778
-0.0158913
0.603799
0.00699453
0.607087
0.0298369
0.608621
0.0534605
0.608439
0.0749531
0.606516
0.0936397
0.602738
0.105732
0.596914
0.109686
0.589116
0.110919
0.579731
0.113808
0.569282
0.118084
0.557963
0.124123
0.545851
0.131387
0.532954
0.139783
0.519271
0.149679
0.504762
0.161748
0.489201
0.177354
0.47237
0.198907
0.453382
0.234087
0.431398
0.285236
0.410397
0.409465
0.376037
0.519851
-0.157778
-0.312098
-0.123897
-0.32597
-0.0810741
-0.403493
-0.0388859
-0.408271
0.00401662
-0.421392
0.0479584
-0.434784
0.0898339
-0.42109
0.126418
-0.380758
0.158018
-0.339377
0.185334
-0.301078
0.2081
-0.259601
0.227171
-0.224328
0.243682
-0.197224
0.258194
-0.174188
0.271299
-0.156395
0.283509
-0.14267
0.295072
-0.131768
0.306223
-0.123264
0.317092
-0.116792
0.327728
-0.111572
0.338173
-0.10737
0.348399
-0.103364
0.358371
-0.0986825
0.367865
-0.0905762
0.376562
-0.0791818
0.384278
-0.0676786
0.390963
-0.0563854
0.396618
-0.0454468
0.401186
-0.0347224
0.404708
-0.0243754
0.407167
-0.0143563
0.408586
-0.00467666
0.408981
0.00487544
0.408284
0.0146626
0.406408
0.0255723
0.403031
0.0402145
0.397433
0.0622771
0.388975
0.112033
0.375018
0.202038
-0.192322
0.227577
-0.345799
0.263211
-0.351383
0.303992
-0.38861
0.339259
-0.343852
0.373707
-0.334922
0.407228
-0.321661
0.437194
-0.288382
0.46476
-0.26352
0.489832
-0.236915
0.512231
-0.20873
0.532458
-0.184303
0.550648
-0.160168
0.566917
-0.13693
0.581403
-0.114765
0.594125
-0.0923521
0.605093
-0.0700301
0.61434
-0.0468025
0.621825
-0.023377
0.62748
0.00133952
0.631292
0.0260253
0.63337
0.0513828
0.633645
0.0746777
0.632145
0.0951403
0.628819
0.109057
0.623495
0.115011
0.61609
0.118323
0.607015
0.122883
0.59668
0.12842
0.58534
0.135462
0.573089
0.143638
0.559941
0.152931
0.545886
0.163733
0.53088
0.176753
0.514774
0.19346
0.497389
0.216292
0.478301
0.253175
0.455977
0.307559
0.433175
0.432271
0.398486
0.55454
-0.157369
-0.347051
-0.121822
-0.361517
-0.0766302
-0.448685
-0.0322468
-0.452654
0.0129038
-0.466542
0.0591153
-0.480995
0.102964
-0.464939
0.141257
-0.419051
0.174163
-0.372284
0.202493
-0.329407
0.225939
-0.283047
0.245418
-0.243807
0.262165
-0.213971
0.276747
-0.188769
0.289821
-0.16947
0.301957
-0.154807
0.313439
-0.143249
0.324526
-0.134351
0.335366
-0.127632
0.346048
-0.122255
0.356586
-0.117907
0.366986
-0.113764
0.377172
-0.108869
0.386962
-0.100366
0.395976
-0.0881965
0.404032
-0.0757343
0.411062
-0.0634151
0.417026
-0.0514111
0.421918
-0.0396146
0.425718
-0.0281754
0.428424
-0.0170615
0.430048
-0.00630158
0.430575
0.00434936
0.429969
0.0152679
0.428099
0.0274425
0.4247
0.0436138
0.419024
0.067953
0.410603
0.120454
0.397325
0.215316
-0.194069
0.231272
-0.383002
0.268874
-0.388984
0.311956
-0.431693
0.349117
-0.381013
0.385352
-0.371157
0.420637
-0.356945
0.452155
-0.319901
0.481041
-0.292406
0.507352
-0.263226
0.530755
-0.232132
0.551954
-0.205502
0.570938
-0.179152
0.587927
-0.153919
0.603097
-0.129934
0.61637
-0.105625
0.628025
-0.0816847
0.637894
-0.0566719
0.645968
-0.0314507
0.652248
-0.00494054
0.65668
0.0215934
0.659261
0.0488018
0.660034
0.0739044
0.65898
0.0961942
0.656068
0.11197
0.651157
0.119922
0.64416
0.12532
0.635418
0.131625
0.625269
0.138569
0.613951
0.146781
0.601586
0.156003
0.588198
0.166319
0.573813
0.178118
0.55834
0.192226
0.541703
0.210097
0.523646
0.234349
0.503992
0.272829
0.481462
0.330089
0.457914
0.455818
0.423464
0.588988
-0.157332
-0.383789
-0.119741
-0.399107
-0.0721648
-0.496262
-0.0254023
-0.499417
0.0220668
-0.514012
0.0706162
-0.529545
0.116734
-0.511057
0.156819
-0.459136
0.191202
-0.406667
0.220645
-0.358851
0.244881
-0.307283
0.264843
-0.263769
0.281878
-0.231007
0.296575
-0.203466
0.309647
-0.182542
0.321737
-0.166897
0.333145
-0.154657
0.344137
-0.145343
0.354932
-0.138426
0.365623
-0.132946
0.376226
-0.12851
0.386743
-0.124281
0.397138
-0.119264
0.407184
-0.110412
0.416498
-0.0975099
0.424877
-0.0841131
0.43224
-0.0707787
0.438547
-0.0577175
0.443752
-0.0448199
0.447836
-0.03226
0.450785
-0.0200104
0.452603
-0.00811906
0.453288
0.00366459
0.452774
0.0157813
0.450936
0.0292807
0.447508
0.0470419
0.441787
0.0736746
0.433492
0.12875
0.420866
0.227942
-0.196125
0.235436
-0.422313
0.275065
-0.428613
0.320563
-0.477191
0.359684
-0.420134
0.397856
-0.409328
0.435098
-0.394187
0.46815
-0.352953
0.498487
-0.322743
0.526162
-0.290901
0.550674
-0.256645
0.572769
-0.227598
0.592611
-0.198993
0.610241
-0.171549
0.626095
-0.145789
0.640128
-0.119658
0.652354
-0.0939105
0.662825
-0.0671428
0.67146
-0.0400856
0.678206
-0.0116868
0.68316
0.0166389
0.68628
0.0456822
0.687471
0.072714
0.686857
0.0968079
0.684382
0.114445
0.679929
0.124375
0.673405
0.131844
0.664964
0.140066
0.655017
0.148515
0.643792
0.158006
0.631351
0.168443
0.617776
0.179895
0.603066
0.192828
0.587213
0.208079
0.570051
0.22726
0.55134
0.253061
0.530943
0.293225
0.507973
0.353058
0.484031
0.479763
0.450435
0.622584
-0.157382
-0.422532
-0.117909
-0.43858
-0.0676691
-0.546501
-0.0184184
-0.548667
0.0315458
-0.563976
0.0826677
-0.580667
0.131082
-0.559471
0.173153
-0.501207
0.209067
-0.44258
0.239779
-0.389563
0.264879
-0.332382
0.28545
-0.28434
0.302848
-0.248404
0.317726
-0.218344
0.330857
-0.195674
0.342901
-0.178941
0.354225
-0.165981
0.36515
-0.156269
0.375874
-0.14915
0.386528
-0.143599
0.397158
-0.139141
0.407786
-0.134909
0.41835
-0.129827
0.428626
-0.120688
0.438237
-0.10712
0.44692
-0.092796
0.454604
-0.0784632
0.461221
-0.0643341
0.466738
-0.0503375
0.471099
-0.0366204
0.474311
-0.0232223
0.476358
-0.0101659
0.477187
0.00283523
0.476793
0.0161758
0.475005
0.0310687
0.471566
0.0504809
0.465827
0.0794134
0.457628
0.136949
0.445699
0.23987
-0.198542
0.240015
-0.463786
0.281776
-0.470374
0.329793
-0.525208
0.370985
-0.461326
0.411279
-0.449622
0.450481
-0.43339
0.485244
-0.387716
0.517145
-0.354644
0.546122
-0.319878
0.571739
-0.282261
0.594836
-0.250695
0.615562
-0.219719
0.634072
-0.190059
0.650565
-0.162282
0.665191
-0.134285
0.678003
-0.106722
0.689021
-0.0781612
0.698201
-0.0492651
0.705572
-0.0190584
0.711001
0.0112103
0.714544
0.0421388
0.716227
0.0710318
0.716007
0.0970278
0.713949
0.116503
0.709916
0.128407
0.703817
0.137943
0.695765
0.148118
0.686051
0.158229
0.674902
0.169155
0.662422
0.180923
0.648694
0.193623
0.633722
0.207799
0.617458
0.224342
0.599807
0.24491
0.580532
0.272335
0.559446
0.314312
0.535785
0.376718
0.511425
0.504123
0.478857
0.655151
-0.157632
-0.463443
-0.116011
-0.480202
-0.0630645
-0.599447
-0.0111807
-0.600551
0.0414334
-0.61659
0.0952477
-0.634481
0.146166
-0.61039
0.190316
-0.545357
0.227936
-0.4802
0.259978
-0.421606
0.286077
-0.358481
0.307299
-0.305563
0.325119
-0.266224
0.340242
-0.233467
0.353462
-0.208894
0.365512
-0.19099
0.376768
-0.177237
0.387604
-0.167104
0.398248
-0.159795
0.408858
-0.154209
0.419484
-0.149766
0.430165
-0.14559
0.440875
-0.140537
0.451387
-0.131201
0.461246
-0.116979
0.47021
-0.10176
0.478199
-0.0864519
0.485128
-0.0712634
0.490953
-0.0561629
0.495615
-0.0412824
0.499086
-0.0266927
0.501333
-0.0124129
0.502358
0.00181017
0.502071
0.0164629
0.500348
0.0327915
0.496922
0.0539071
0.491181
0.0851547
0.483143
0.144987
0.471931
0.251082
-0.201169
0.244866
-0.507482
0.288959
-0.514467
0.339661
-0.57591
0.383091
-0.504757
0.42555
-0.492081
0.466792
-0.474632
0.503416
-0.42434
0.536934
-0.388161
0.567299
-0.350243
0.594154
-0.309117
0.618393
-0.274933
0.639982
-0.241309
0.659264
-0.209341
0.676493
-0.17951
0.691722
-0.149514
0.705135
-0.120134
0.716688
-0.0897143
0.726418
-0.0589951
0.734231
-0.0268714
0.740174
0.00526682
0.744156
0.0381574
0.74622
0.0689673
0.746438
0.0968102
0.744781
0.11816
0.741208
0.13198
0.73552
0.143632
0.72783
0.155808
0.718375
0.167684
0.707337
0.180193
0.69487
0.19339
0.681008
0.207485
0.665791
0.223017
0.649175
0.240959
0.631059
0.263026
0.611256
0.292138
0.589501
0.336066
0.565165
0.401054
0.540267
0.529022
0.508592
0.686826
-0.158033
-0.506578
-0.114198
-0.524037
-0.0583805
-0.655265
-0.00365934
-0.655273
0.0517342
-0.671983
0.108362
-0.691108
0.161991
-0.664019
0.208333
-0.591699
0.24779
-0.519657
0.281279
-0.455094
0.308432
-0.385633
0.330397
-0.327529
0.348738
-0.284564
0.364153
-0.248883
0.377513
-0.222253
0.389606
-0.203084
0.400826
-0.188457
0.411584
-0.177862
0.422142
-0.170353
0.432675
-0.164743
0.443287
-0.160378
0.454003
-0.156306
0.464827
-0.151362
0.475513
-0.141886
0.485602
-0.127069
0.494847
-0.111005
0.50312
-0.0947253
0.510361
-0.0785045
0.516475
-0.0622763
0.521426
-0.0462333
0.525157
-0.0304243
0.527652
-0.0149073
0.528845
0.000616793
0.528681
0.0166275
0.527045
0.0344274
0.523642
0.0573097
0.51796
0.0908367
0.510075
0.152872
0.49955
0.261608
-0.204117
0.250217
-0.553583
0.296754
-0.561003
0.350147
-0.629303
0.396045
-0.550654
0.440678
-0.536714
0.484195
-0.518148
0.522673
-0.462819
0.557912
-0.423399
0.589824
-0.382155
0.617994
-0.337287
0.643223
-0.300163
0.665855
-0.26394
0.685908
-0.229394
0.703858
-0.19746
0.719822
-0.165479
0.733773
-0.134085
0.745898
-0.101839
0.756116
-0.0692133
0.764456
-0.0352118
0.770807
-0.00108383
0.7752
0.0337638
0.777709
0.0664583
0.778259
0.0962608
0.776997
0.119421
0.773812
0.135165
0.768537
0.148907
0.761235
0.16311
0.752061
0.176858
0.741217
0.191037
0.728766
0.205841
0.714807
0.221444
0.699362
0.238461
0.68241
0.25791
0.663873
0.281564
0.643505
0.312505
0.621196
0.358375
0.596215
0.426035
0.570676
0.554561
0.539773
0.717728
-0.158637
-0.552058
-0.112417
-0.570256
-0.0535136
-0.714169
0.0041186
-0.712905
0.062508
-0.730373
0.122152
-0.750752
0.178528
-0.720395
0.2273
-0.640471
0.268671
-0.561028
0.303755
-0.490179
0.332074
-0.413952
0.354871
-0.350325
0.373776
-0.303469
0.389543
-0.26465
0.403098
-0.235808
0.415244
-0.215229
0.426467
-0.199681
0.437146
-0.18854
0.447615
-0.180823
0.458071
-0.175198
0.468636
-0.170943
0.479366
-0.167036
0.490286
-0.162281
0.501137
-0.152738
0.511442
-0.137374
0.520919
-0.120481
0.529455
-0.103261
0.536966
-0.0860162
0.543383
-0.0686929
0.548606
-0.0514564
0.552614
-0.034432
0.555324
-0.0176173
0.556724
-0.000783249
0.556723
0.0166291
0.555152
0.0359985
0.551837
0.0606242
0.546204
0.0964701
0.538551
0.160525
0.528721
0.271438
-0.207294
0.255926
-0.602215
0.304937
-0.610014
0.361399
-0.685765
0.409614
-0.598869
0.456772
-0.583872
0.502559
-0.563936
0.543149
-0.503409
0.580124
-0.460374
0.613624
-0.415655
0.643132
-0.366795
0.669645
-0.326676
0.693212
-0.287507
0.71421
-0.250392
0.732918
-0.216168
0.749513
-0.182075
0.764082
-0.148653
0.776716
-0.114473
0.787402
-0.079899
0.796149
-0.0439591
0.802941
-0.00787598
0.807773
0.0289322
0.810583
0.0636486
0.811504
0.0953395
0.810633
0.120293
0.807838
0.137959
0.803006
0.153739
0.796076
0.170041
0.787181
0.185752
0.776493
0.201725
0.764127
0.218207
0.750109
0.235462
0.734475
0.254095
0.717223
0.275163
0.698267
0.30052
0.677421
0.333352
0.654545
0.38125
0.628994
0.451585
0.602853
0.580705
0.572586
0.747995
-0.159343
-0.60001
-0.110618
-0.618981
-0.048494
-0.776293
0.0122096
-0.773608
0.0737422
-0.791905
0.136579
-0.81359
0.195965
-0.77978
0.247218
-0.691725
0.290666
-0.604476
0.327409
-0.526923
0.356999
-0.443542
0.380713
-0.374039
0.400252
-0.323009
0.416446
-0.280845
0.430241
-0.249602
0.442502
-0.227491
0.453727
-0.210905
0.464363
-0.199176
0.474748
-0.191208
0.485142
-0.185593
0.495634
-0.181435
0.506371
-0.177772
0.517348
-0.173259
0.528339
-0.163729
0.538834
-0.147869
0.548514
-0.130161
0.557313
-0.112061
0.56509
-0.0937927
0.571759
-0.0753627
0.577285
-0.0569821
0.581543
-0.03869
0.584499
-0.0205737
0.586077
-0.0023612
0.586229
0.0164775
0.584796
0.0374311
0.581544
0.0638762
0.576038
0.101976
0.568592
0.167971
0.559468
0.280562
-0.210759
0.262012
-0.653467
0.313699
-0.661701
0.373217
-0.745284
0.424156
-0.649808
0.473761
-0.633476
0.522081
-0.612256
0.564693
-0.546021
0.603625
-0.499306
0.638827
-0.450857
0.669824
-0.397791
0.697518
-0.35437
0.722241
-0.31223
0.744123
-0.272274
0.763628
-0.235673
0.780867
-0.199313
0.796072
-0.163859
0.809208
-0.127609
0.820364
-0.0910549
0.82959
-0.0531853
0.836756
-0.015042
0.841919
0.0237687
0.845093