/*--------------------------------*- C++ -*----------------------------------*\
| =========                 |                                                 |
| \\      /  F ield         | OpenFOAM: The Open Source CFD Toolbox           |
|  \\    /   O peration     | Version:  2306                                  |
|   \\  /    A nd           | Website:  www.openfoam.com                      |
|    \\/     M anipulation  |                                                 |
\*---------------------------------------------------------------------------*/
FoamFile
{
    version     2.0;
    format      ascii;
    arch        "LSB;label=32;scalar=64";
    class       volScalarField;
    location    "425";
    object      turbulenceProperties:epsilon;
}
// * * * * * * * * * * * * * * * * * * * * * * * * * * * * * * * * * * * * * //

dimensions      [0 2 -3 0 0 0 0];

internalField   nonuniform List<scalar> 
10720
(
0.259336
0.340058
0.452942
0.62353
0.840153
1.1348
1.53073
2.0349
2.684
3.51442
4.57782
5.96433
7.80215
10.2908
13.7709
18.7577
26.236
37.3537
56.0414
83.0148
139.623
211.753
435.02
739.112
736.344
667.464
637.64
637.699
643.541
639.777
623.056
593.499
548.524
489.446
416.585
334.401
232.445
147.191
25.8495
0.194101
0.147051
0.100346
0.0666537
0.0405368
0.0221681
0.0111769
0.00631142
0.00685257
0.0122584
0.0258982
0.0542435
0.107194
0.197731
0.340207
0.553774
0.870459
1.35304
2.12201
3.40242
5.64714
9.7147
17.6458
33.2324
67.6701
140.858
318.996
663.28
945.051
1066.93
1100.19
1101.75
1088.14
1062.38
1025.39
978.924
912.873
836.942
619.392
0.00736068
0.00727969
0.00711408
0.00670935
0.0061062
0.00544777
0.00471907
0.00396206
0.00327805
0.00267032
0.00214888
0.00181988
0.00177254
0.00210472
0.00330686
0.00670982
0.0165568
0.0441962
0.138873
0.449316
1.75771
6.25386
23.497
83.7542
166.233
234.849
278.099
284.907
250.904
193.116
135.843
91.8907
63.494
45.7226
34.2683
26.5018
21.7493
17.6576
22.3829
0.00722705
0.0070314
0.00664091
0.00608257
0.00535915
0.00447577
0.00354115
0.00273952
0.00209099
0.00153415
0.00108411
0.00075735
0.000526721
0.000363723
0.000249043
0.000169131
0.00011332
7.46795e-05
4.72825e-05
2.75711e-05
1.31808e-05
4.21846e-06
4.01305e-07
6.84217e-09
5.59521e-08
0.000986787
0.00606627
0.0512888
0.170777
0.319801
0.466711
0.615417
0.7739
0.946814
1.13459
1.34803
1.59537
2.20742
4.09713
0.0033024
0.00325028
0.00310515
0.0028898
0.00267285
0.00244421
0.00222347
0.00203383
0.00187744
0.00176034
0.00167223
0.00162242
0.00160862
0.00163541
0.00164566
0.00154845
0.00112242
0.000801121
1.13134e-07
0.00158838
7.27106e-05
0.00107432
1.46856e-06
0.0228172
0.510207
2.53632
7.84487
20.081
42.2759
70.4637
91.5353
94.21
80.0903
60.6815
44.1727
31.9681
23.9942
16.9514
20.4199
0.00335422
0.0033462
0.00332862
0.00321141
0.00300837
0.00268225
0.00226319
0.00182811
0.00146527
0.00113382
0.000824578
0.000571969
0.000384964
0.000253507
0.000165598
0.000108228
7.19471e-05
4.93523e-05
3.55845e-05
2.70797e-05
2.18919e-05
1.88162e-05
1.72177e-05
1.63647e-05
1.63056e-05
1.61195e-05
1.82309e-05
6.37658e-06
0.000167585
0.000992373
0.00208857
0.00364296
0.00959261
0.0265265
0.0598471
0.110639
0.177022
0.222104
0.549914
0.00235402
0.00236378
0.0023401
0.0023013
0.00222224
0.00210713
0.0019679
0.00180075
0.0016188
0.00142882
0.00123791
0.00105123
0.00087279
0.000707443
0.000557543
0.000419263
0.000300408
0.000214634
0.000125911
6.35501e-05
2.54549e-06
9.30195e-06
8.87824e-08
0.00714624
0.0340556
0.0546024
0.0201055
0.00370067
0.0171832
0.444297
3.21106
11.6358
25.0164
35.4748
37.175
32.3944
26.5982
19.7609
21.4015
0.00230377
0.00222869
0.00211335
0.0019785
0.0018157
0.00161311
0.00139175
0.00117414
0.000967212
0.000765315
0.000581453
0.000431984
0.00031837
0.000234335
0.000173349
0.000129291
9.78789e-05
7.55206e-05
5.96704e-05
4.81438e-05
3.96878e-05
3.3216e-05
2.79053e-05
2.28189e-05
1.81257e-05
1.4635e-05
1.22458e-05
1.06583e-05
8.8856e-06
6.83665e-06
3.86136e-06
1.53117e-06
2.28372e-05
1.51499e-05
6.8159e-05
0.000863418
0.00494424
0.0189518
0.139801
0.00132482
0.00132014
0.0012996
0.00126337
0.00120833
0.00113566
0.00105084
0.000956771
0.0008581
0.000761854
0.000671391
0.000589993
0.000520286
0.000462941
0.000417793
0.000381614
0.000345308
0.000301937
0.000256264
0.000195936
0.000137135
2.72467e-05
2.49411e-07
6.53713e-09
0
0
0.0122888
0.0152156
0.0317063
0.0889911
0.0131165
0.0159552
0.168863
2.4163
9.07425
16.8966
21.0068
19.7603
21.7931
0.00131797
0.00129939
0.00126279
0.00120527
0.00112645
0.00101935
0.000898222
0.000776693
0.000656842
0.000536839
0.000424835
0.000327908
0.000248292
0.000184947
0.000136048
9.92584e-05
7.22563e-05
5.28538e-05
3.91578e-05
2.95088e-05
2.27133e-05
1.78296e-05
1.41648e-05
1.10619e-05
8.30118e-06
6.10312e-06
4.59806e-06
3.68303e-06
3.31212e-06
2.83276e-06
4.17139e-06
2.07554e-07
8.53884e-06
5.13004e-05
0.000109913
7.94559e-05
9.21034e-05
0.000241032
0.0150735
0.000890098
0.000897705
0.00089698
0.000890586
0.000873175
0.000845324
0.000808728
0.000762611
0.000708803
0.000649673
0.00058667
0.000522166
0.000458395
0.000396982
0.0003393
0.000284287
0.000229879
0.000180046
0.00013862
0.000107068
8.83763e-05
6.40789e-05
4.25283e-05
2.39599e-06
4.70863e-08
8.53182e-09
7.92373e-10
0
0
0
0.00324929
0.0337778
0.00508665
0.0419876
0.0461703
1.65587
7.51425
13.9852
19.855
0.000874041
0.000852089
0.000820656
0.000780078
0.000729506
0.00066561
0.000595698
0.000524996
0.000453184
0.000379941
0.00031015
0.000247712
0.000194526
0.000150749
0.00011578
8.85946e-05
6.7915e-05
5.24538e-05
4.10263e-05
3.25765e-05
2.62687e-05
2.1413e-05
1.74699e-05
1.39443e-05
1.07035e-05
8.0157e-06
5.98798e-06
4.51792e-06
3.44444e-06
2.66256e-06
2.07269e-06
1.60324e-06
1.0338e-06
5.09968e-07
9.9659e-11
7.30438e-06
1.15012e-05
4.85436e-05
0.0011272
0.00058246
0.000587587
0.000588407
0.000585433
0.000576143
0.000560234
0.000538357
0.000510265
0.000476733
0.000439274
0.00039912
0.000357819
0.000317053
0.000278194
0.000242175
0.000210011
0.000182829
0.000159207
0.000136756
0.000114915
9.60911e-05
8.18984e-05
7.21674e-05
4.98593e-05
2.12849e-05
5.58803e-06
3.91594e-07
1.43713e-08
3.93201e-09
3.72789e-11
0
0
0.000347804
0.017777
0.0122374
0.0333021
0.415648
4.89985
14.1008
0.000572936
0.000560161
0.000541835
0.000517097
0.000485864
0.000447216
0.000405698
0.000362746
0.000318225
0.000272754
0.000228739
0.00018818
0.000152256
0.000121385
9.5599e-05
7.46305e-05
5.79539e-05
4.49658e-05
3.50183e-05
2.74511e-05
2.16954e-05
1.72522e-05
1.37026e-05
1.06764e-05
8.02404e-06
5.85967e-06
4.23747e-06
3.07547e-06
2.24988e-06
1.67437e-06
1.29946e-06
1.08109e-06
9.59121e-07
7.85318e-07
4.3893e-07
4.90811e-09
8.1205e-10
0
0.000218748
0.000400123
0.000405605
0.000408877
0.0004102
0.000407957
0.00040186
0.000392237
0.000378526
0.000360952
0.000340167
0.00031647
0.000290681
0.000263657
0.000236154
0.000208924
0.000182707
0.000157344
0.000132464
0.000109459
8.96604e-05
7.372e-05
6.23295e-05
5.49588e-05
4.99427e-05
4.07799e-05
2.86406e-05
1.68833e-05
7.52771e-06
2.62867e-06
2.02197e-08
3.83893e-09
3.28376e-12
0
0
0.00116017
0.00375714
0.0288449
0.46443
6.38457
0.000391958
0.000382231
0.000369381
0.000352666
0.000332264
0.000307828
0.0002822
0.00025524
0.000226966
0.000198169
0.000169886
0.000143243
0.000118957
9.73945e-05
7.87666e-05
6.31163e-05
5.02562e-05
3.99306e-05
3.17885e-05
2.54258e-05
2.04513e-05
1.651e-05
1.32879e-05
1.05113e-05
8.06641e-06
6.03469e-06
4.4625e-06
3.28965e-06
2.41531e-06
1.76318e-06
1.28435e-06
9.34555e-07
6.7915e-07
4.93013e-07
3.8281e-07
3.15757e-07
1.80145e-07
1.20854e-09
0
0.000278424
0.000282829
0.000286061
0.000288088
0.000288015
0.000285549
0.000280778
0.000273243
0.000262995
0.000250287
0.00023528
0.00021842
0.000200249
0.000181297
0.000162182
0.000143375
0.000125409
0.000108977
9.40597e-05
8.05632e-05
6.85832e-05
5.84773e-05
5.03973e-05
4.39608e-05
3.75409e-05
3.02669e-05
2.33749e-05
1.74076e-05
1.24157e-05
6.56282e-06
2.73283e-06
2.86858e-09
1.00935e-09
0
0
0.000186344
0.0103172
0.0254771
1.52329
0.000272442
0.000265599
0.000256885
0.000245536
0.000232043
0.000216263
0.000199876
0.000182479
0.000164164
0.000145555
0.000127122
0.000109452
9.29633e-05
7.79056e-05
6.44818e-05
5.28127e-05
4.28948e-05
3.46459e-05
2.7912e-05
2.24828e-05
1.81242e-05
1.45991e-05
1.16863e-05
9.19675e-06
7.04119e-06
5.25463e-06
3.86647e-06
2.82985e-06
2.0629e-06
1.49894e-06
1.0928e-06
8.1117e-07
6.24546e-07
5.08676e-07
4.46665e-07
4.54225e-07
5.29188e-07
6.23057e-07
5.26178e-10
0.000197875
0.000201518
0.000204582
0.000206968
0.000208083
0.000207795
0.000206066
0.000202534
0.000197192
0.000190107
0.000181269
0.000170897
0.000159262
0.000146657
0.00013344
0.000119952
0.000106597
9.34611e-05
8.07405e-05
6.90255e-05
5.88389e-05
5.03956e-05
4.35464e-05
3.76025e-05
3.17015e-05
2.55867e-05
2.0002e-05
1.56734e-05
1.26702e-05
1.04549e-05
8.46575e-06
4.55426e-06
7.91529e-07
3.56408e-09
0
0
1.69787e-05
0.00392331
0.19172
0.00019326
0.000188239
0.000182074
0.00017413
0.000164965
0.000154567
0.000143757
0.000132247
0.00012019
0.000107952
9.57606e-05
8.39325e-05
7.26816e-05
6.21556e-05
5.25254e-05
4.39134e-05
3.63665e-05
2.99025e-05
2.44659e-05
1.99587e-05
1.62487e-05
1.31846e-05
1.06165e-05
8.41542e-06
6.51118e-06
4.92237e-06
3.66882e-06
2.71557e-06
1.9978e-06
1.45971e-06
1.06232e-06
7.7474e-07
5.69401e-07
4.30165e-07
3.40785e-07
3.24256e-07
3.16165e-07
8.88209e-07
1.84511e-07
0.000142637
0.000145535
0.000148157
0.00015039
0.000151829
0.000152425
0.000152072
0.000150546
0.000147766
0.000143751
0.000138432
0.000131905
0.000124303
0.000115783
0.000106587
9.69672e-05
8.71736e-05
7.75131e-05
6.82551e-05
5.95982e-05
5.17896e-05
4.49541e-05
3.90638e-05
3.37449e-05
2.84328e-05
2.29755e-05
1.7885e-05
1.38333e-05
1.09615e-05
9.07973e-06
7.78856e-06
7.05594e-06
5.47546e-06
1.88478e-06
4.65978e-09
0
0
0.000845239
0.027566
0.000139129
0.000135441
0.000131053
0.000125411
0.000119063
0.000112079
0.000104771
9.69955e-05
8.8931e-05
8.07651e-05
7.25909e-05
6.45886e-05
5.68717e-05
4.95164e-05
4.26255e-05
3.63003e-05
3.05998e-05
2.55683e-05
2.12133e-05
1.74994e-05
1.436e-05
1.17102e-05
9.4569e-06
7.51613e-06
5.84107e-06
4.43992e-06
3.32318e-06
2.46504e-06
1.81506e-06
1.32715e-06
9.67462e-07
7.09337e-07
5.29729e-07
4.12175e-07
3.40299e-07
3.31782e-07
3.29297e-07
6.61573e-07
1.0546e-06
0.000104215
0.000106523
0.000108714
0.000110683
0.000112174
0.000113149
0.000113527
0.000113126
0.000111884
0.000109782
0.000106741
0.000102791
9.79818e-05
9.23929e-05
8.61545e-05
7.94219e-05
7.23782e-05
6.52407e-05
5.81234e-05
5.12315e-05
4.4877e-05
3.92342e-05
3.42845e-05
2.97679e-05
2.52845e-05
2.06988e-05
1.63504e-05
1.27383e-05
1.00343e-05
8.09654e-06
6.67083e-06
5.81097e-06
5.41231e-06
5.02212e-06
2.12113e-06
2.68569e-09
0
0.000103842
0.00834771
0.000101532
9.87721e-05
9.5598e-05
9.15381e-05
8.70656e-05
8.22714e-05
7.72342e-05
7.18928e-05
6.64161e-05
6.08817e-05
5.53376e-05
4.9878e-05
4.45551e-05
3.9396e-05
3.44732e-05
2.98517e-05
2.55774e-05
2.1703e-05
1.82529e-05
1.52328e-05
1.26191e-05
1.03675e-05
8.42145e-06
6.73087e-06
5.27007e-06
4.04135e-06
3.05088e-06
2.27965e-06
1.68902e-06
1.24147e-06
9.07899e-07
6.65303e-07
4.92824e-07
3.76357e-07
3.03219e-07
2.85492e-07
2.91952e-07
4.82746e-07
1.24064e-06
7.69961e-05
7.88236e-05
8.06165e-05
8.22861e-05
8.36585e-05
8.47148e-05
8.53985e-05
8.55623e-05
8.51546e-05
8.41485e-05
8.24672e-05
8.01127e-05
7.70922e-05
7.34306e-05
6.92057e-05
6.45124e-05
5.9464e-05
5.423e-05
4.89403e-05
4.37341e-05
3.88001e-05
3.42769e-05
3.01698e-05
2.63341e-05
2.25267e-05
1.86602e-05
1.49736e-05
1.18388e-05
9.41655e-06
7.59757e-06
6.19826e-06
5.14083e-06
4.45897e-06
4.20447e-06
4.5967e-06
1.11987e-06
1.21474e-13
3.11999e-05
0.00278974
7.49444e-05
7.28624e-05
7.05323e-05
6.75831e-05
6.43884e-05
6.10324e-05
5.75024e-05
5.37783e-05
5.00047e-05
4.62086e-05
4.24056e-05
3.86436e-05
3.49469e-05
3.13239e-05
2.78049e-05
2.44351e-05
2.1249e-05
1.82896e-05
1.5586e-05
1.31565e-05
1.10018e-05
9.10515e-06
7.4392e-06
5.97904e-06
4.71161e-06
3.63962e-06
2.76616e-06
2.07787e-06
1.54571e-06
1.13958e-06
8.35176e-07
6.12951e-07
4.55096e-07
3.48772e-07
2.82408e-07
2.64163e-07
2.7172e-07
4.08912e-07
1.04044e-06
5.74538e-05
5.88954e-05
6.03488e-05
6.17373e-05
6.29416e-05
6.39606e-05
6.47403e-05
6.51729e-05
6.5223e-05
6.48553e-05
6.4011e-05
6.26706e-05
6.08312e-05
5.84939e-05
5.56911e-05
5.24744e-05
4.8912e-05
4.51245e-05
4.12005e-05
3.72304e-05
3.33574e-05
2.97247e-05
2.63505e-05
2.31482e-05
1.99611e-05
1.67301e-05
1.3626e-05
1.0933e-05
8.80076e-06
7.1632e-06
5.88429e-06
4.87067e-06
4.09316e-06
3.56002e-06
3.44367e-06
4.99152e-06
2.81343e-09
5.68561e-07
0.000699554
5.58701e-05
5.42923e-05
5.25555e-05
5.0393e-05
4.80852e-05
4.56923e-05
4.31778e-05
4.05544e-05
3.79188e-05
3.52815e-05
3.26434e-05
3.00317e-05
2.74503e-05
2.48933e-05
2.23792e-05
1.99288e-05
1.75632e-05
1.53168e-05
1.32164e-05
1.12825e-05
9.52541e-06
7.94622e-06
6.53616e-06
5.28782e-06
4.19736e-06
3.26795e-06
2.50272e-06
1.89224e-06
1.41511e-06
1.04782e-06
7.70276e-07
5.65978e-07
4.19404e-07
3.19366e-07
2.55791e-07
2.35569e-07
2.39779e-07
3.50381e-07
8.41148e-07
4.32425e-05
4.43767e-05
4.55496e-05
4.66857e-05
4.77116e-05
4.86338e-05
4.93979e-05
4.99325e-05
5.02105e-05
5.01978e-05
4.98487e-05
4.91435e-05
4.80638e-05
4.66007e-05
4.47622e-05
4.25786e-05
4.00917e-05
3.73702e-05
3.44939e-05
3.15239e-05
2.85424e-05
2.56721e-05
2.29383e-05
2.0293e-05
1.76445e-05
1.49567e-05
1.23516e-05
1.0046e-05
8.17499e-06
6.71098e-06
5.55545e-06
4.63895e-06
3.90349e-06
3.39303e-06
2.75393e-06
4.21808e-06
9.54529e-07
4.73952e-11
4.35501e-05
4.20118e-05
4.08083e-05
3.95021e-05
3.78987e-05
3.62141e-05
3.4481e-05
3.26679e-05
3.07976e-05
2.89359e-05
2.70829e-05
2.52357e-05
2.34051e-05
2.15896e-05
1.97792e-05
1.79784e-05
1.6199e-05
1.44507e-05
1.27551e-05
1.11338e-05
9.60673e-06
8.18932e-06
6.88973e-06
5.70926e-06
4.64957e-06
3.71634e-06
2.91546e-06
2.24919e-06
1.71118e-06
1.28612e-06
9.5602e-07
7.04614e-07
5.18233e-07
3.83708e-07
2.91327e-07
2.32024e-07
2.11249e-07
2.12745e-07
2.99857e-07
6.84086e-07
3.27917e-05
3.36872e-05
3.46288e-05
3.55516e-05
3.64132e-05
3.72157e-05
3.79183e-05
3.8468e-05
3.88452e-05
3.90218e-05
3.89602e-05
3.86404e-05
3.80463e-05
3.71611e-05
3.59885e-05
3.45354e-05
3.28245e-05
3.08937e-05
2.88081e-05
2.65999e-05
2.43199e-05
2.2067e-05
1.98728e-05
1.77143e-05
1.55349e-05
1.33156e-05
1.11446e-05
9.18562e-06
7.5554e-06
6.25283e-06
5.21072e-06
4.38101e-06
3.70997e-06
3.24871e-06
2.6952e-06
2.76093e-06
3.87442e-06
4.97637e-12
3.56096e-07
3.18347e-05
3.09066e-05
2.99174e-05
2.87177e-05
2.74766e-05
2.62042e-05
2.48808e-05
2.35329e-05
2.22027e-05
2.0887e-05
1.95803e-05
1.82885e-05
1.70044e-05
1.57158e-05
1.4424e-05
1.313e-05
1.184e-05
1.05661e-05
9.32339e-06
8.12794e-06
6.99433e-06
5.93437e-06
4.95504e-06
4.06503e-06
3.27341e-06
2.58787e-06
2.01126e-06
1.54006e-06
1.16366e-06
8.68584e-07
6.41931e-07
4.72532e-07
3.4926e-07
2.63777e-07
2.08123e-07
1.86641e-07
1.85899e-07
2.53539e-07
5.55892e-07
2.50316e-05
2.57411e-05
2.64936e-05
2.72419e-05
2.7956e-05
2.8639e-05
2.92602e-05
2.97802e-05
3.01815e-05
3.04449e-05
3.05405e-05
3.04511e-05
3.01639e-05
2.966e-05
2.89343e-05
2.79865e-05
2.68265e-05
2.54746e-05
2.39767e-05
2.23541e-05
2.06346e-05
1.88874e-05
1.7147e-05
1.54057e-05
1.363e-05
1.18103e-05
1.00124e-05
8.35973e-06
6.95051e-06
5.79971e-06
4.86507e-06
4.11147e-06
3.50492e-06
3.04994e-06
2.71759e-06
2.12048e-06
4.56728e-06
4.31387e-11
6.3893e-18
2.42869e-05
2.35678e-05
2.28101e-05
2.1906e-05
2.09831e-05
2.00379e-05
1.90618e-05
1.8081e-05
1.71208e-05
1.61769e-05
1.52446e-05
1.43242e-05
1.34089e-05
1.24881e-05
1.1558e-05
1.06176e-05
9.6667e-06
8.71328e-06
7.76573e-06
6.83654e-06
5.93782e-06
5.08078e-06
4.2754e-06
3.5335e-06
2.86693e-06
2.28367e-06
1.78788e-06
1.37787e-06
1.04663e-06
7.84413e-07
5.81225e-07
4.2807e-07
3.15747e-07
2.37171e-07
1.85361e-07
1.63645e-07
1.61123e-07
2.12873e-07
4.49002e-07
1.92212e-05
1.97833e-05
2.03839e-05
2.09903e-05
2.15759e-05
2.21507e-05
2.26859e-05
2.31542e-05
2.35428e-05
2.38368e-05
2.40121e-05
2.40571e-05
2.39564e-05
2.36953e-05
2.32668e-05
2.26662e-05
2.18966e-05
2.09653e-05
1.99027e-05
1.87233e-05
1.74414e-05
1.60993e-05
1.47338e-05
1.33451e-05
1.19125e-05
1.04326e-05
8.95435e-06
7.57072e-06
6.36304e-06
5.35483e-06
4.52321e-06
3.84178e-06
3.29479e-06
2.85163e-06
2.61113e-06
2.0053e-06
3.35742e-06
4.74972e-07
8.21407e-11
1.86389e-05
1.80794e-05
1.74949e-05
1.68081e-05
1.61165e-05
1.54069e-05
1.46804e-05
1.39594e-05
1.32594e-05
1.25755e-05
1.19041e-05
1.12437e-05
1.05873e-05
9.92505e-06
9.25314e-06
8.568e-06
7.86755e-06
7.15537e-06
6.43622e-06
5.71791e-06
5.01057e-06
4.32431e-06
3.66849e-06
3.05475e-06
2.49643e-06
2.00358e-06
1.58014e-06
1.22572e-06
9.36064e-07
7.04419e-07
5.23255e-07
3.85458e-07
2.83558e-07
2.11586e-07
1.63495e-07
1.41812e-07
1.379e-07
1.77257e-07
3.60084e-07
1.4837e-05
1.52819e-05
1.57632e-05
1.62515e-05
1.67316e-05
1.72093e-05
1.76645e-05
1.80736e-05
1.84305e-05
1.87218e-05
1.89296e-05
1.90435e-05
1.90532e-05
1.89447e-05
1.87124e-05
1.8348e-05
1.78505e-05
1.72225e-05
1.6479e-05
1.56324e-05
1.4688e-05
1.36687e-05
1.26099e-05
1.15152e-05
1.03712e-05
9.17723e-06
7.9706e-06
6.82122e-06
5.79528e-06
4.91983e-06
4.18583e-06
3.57525e-06
3.0808e-06
2.67193e-06
2.42323e-06
2.0317e-06
2.28411e-06
2.01798e-06
2.25123e-08
1.43798e-05
1.39424e-05
1.34889e-05
1.29644e-05
1.24406e-05
1.19039e-05
1.13584e-05
1.08239e-05
1.03085e-05
9.80889e-06
9.3211e-06
8.84302e-06
8.36884e-06
7.88991e-06
7.4022e-06
6.90202e-06
6.38582e-06
5.85442e-06
5.31033e-06
4.75855e-06
4.20532e-06
3.6589e-06
3.12816e-06
2.62494e-06
2.16172e-06
1.74804e-06
1.38851e-06
1.08399e-06
8.32212e-07
6.2875e-07
4.68104e-07
3.44761e-07
2.52792e-07
1.87191e-07
1.42799e-07
1.21488e-07
1.16548e-07
1.46251e-07
2.86613e-07
1.1506e-05
1.18589e-05
1.22442e-05
1.2638e-05
1.30293e-05
1.34247e-05
1.38062e-05
1.41581e-05
1.44748e-05
1.47461e-05
1.49589e-05
1.51054e-05
1.5177e-05
1.51631e-05
1.50562e-05
1.48498e-05
1.454e-05
1.41263e-05
1.36137e-05
1.30143e-05
1.23281e-05
1.15641e-05
1.07519e-05
9.89825e-06
8.99382e-06
8.03907e-06
7.06186e-06
6.1147e-06
5.25066e-06
4.49723e-06
3.85443e-06
3.31237e-06
2.86566e-06
2.50011e-06
2.22966e-06
2.00291e-06
1.78759e-06
2.30657e-06
4.99702e-07
1.1146e-05
1.08025e-05
1.04491e-05
1.00466e-05
9.64561e-06
9.23707e-06
8.82464e-06
8.42443e-06
8.04173e-06
7.67335e-06
7.31592e-06
6.96722e-06
6.62201e-06
6.27378e-06
5.91828e-06
5.55176e-06
5.17086e-06
4.77483e-06
4.36398e-06
3.94128e-06
3.51127e-06
3.07961e-06
2.65337e-06
2.24337e-06
1.86137e-06
1.51622e-06
1.21286e-06
9.52878e-07
7.35419e-07
5.57779e-07
4.16128e-07
3.06296e-07
2.23696e-07
1.64175e-07
1.23402e-07
1.02735e-07
9.70955e-08
1.19504e-07
2.26649e-07
8.95967e-06
9.2406e-06
9.54886e-06
9.8662e-06
1.01846e-05
1.051e-05
1.08273e-05
1.11259e-05
1.1401e-05
1.16449e-05
1.18478e-05
1.20039e-05
1.2106e-05
1.21458e-05
1.21173e-05
1.20144e-05
1.1832e-05
1.1568e-05
1.12233e-05
1.08074e-05
1.03159e-05
9.75087e-06
9.13536e-06
8.47708e-06
7.76953e-06
7.01275e-06
6.22766e-06
5.45343e-06
4.7321e-06
4.08955e-06
3.53126e-06
3.05392e-06
2.65268e-06
2.32699e-06
2.05649e-06
1.89224e-06
1.60569e-06
1.87873e-06
1.25147e-06
8.6756e-06
8.40479e-06
8.12852e-06
7.81783e-06
7.50866e-06
7.19523e-06
6.88136e-06
6.57959e-06
6.29305e-06
6.0191e-06
5.75465e-06
5.49792e-06
5.24497e-06
4.99003e-06
4.72965e-06
4.46014e-06
4.17831e-06
3.88301e-06
3.57353e-06
3.25091e-06
2.91772e-06
2.57851e-06
2.23873e-06
1.90702e-06
1.59368e-06
1.30747e-06
1.05316e-06
8.32611e-07
6.45936e-07
4.91739e-07
3.67513e-07
2.70217e-07
1.96397e-07
1.42651e-07
1.0542e-07
8.5656e-08
7.96132e-08
9.65342e-08
1.77939e-07
7.00264e-06
7.22639e-06
7.47374e-06
7.72901e-06
7.98816e-06
8.25468e-06
8.51739e-06
8.76826e-06
9.00364e-06
9.2177e-06
9.40274e-06
9.55475e-06
9.66837e-06
9.73673e-06
9.75568e-06
9.71872e-06
9.62179e-06
9.46203e-06
9.23715e-06
8.95367e-06
8.60682e-06
8.19524e-06
7.7348e-06
7.23288e-06
6.68551e-06
6.09161e-06
5.46624e-06
4.83876e-06
4.242e-06
3.69894e-06
3.21829e-06
2.80112e-06
2.44416e-06
2.15225e-06
1.89981e-06
1.74224e-06
1.51423e-06
1.48896e-06
1.45873e-06
6.7783e-06
6.56371e-06
6.34685e-06
6.10588e-06
5.86613e-06
5.6243e-06
5.38388e-06
5.15451e-06
4.93816e-06
4.73249e-06
4.53557e-06
4.3453e-06
4.15832e-06
3.97027e-06
3.77826e-06
3.57936e-06
3.37039e-06
3.14982e-06
2.91663e-06
2.67092e-06
2.41407e-06
2.14868e-06
1.879e-06
1.61212e-06
1.35701e-06
1.12122e-06
9.09226e-07
7.23205e-07
5.63868e-07
4.30765e-07
3.22409e-07
2.36684e-07
1.71035e-07
1.22745e-07
8.89495e-08
7.03007e-08
6.41385e-08
7.70079e-08
1.38719e-07
5.49122e-06
5.66982e-06
5.86811e-06
6.07373e-06
6.28433e-06
6.50206e-06
6.71883e-06
6.92783e-06
7.12721e-06
7.3118e-06
7.47634e-06
7.61748e-06
7.73138e-06
7.81252e-06
7.85745e-06
7.86128e-06
7.81997e-06
7.73051e-06
7.58974e-06
7.40134e-06
7.16154e-06
6.86701e-06
6.52728e-06
6.14937e-06
5.73062e-06
5.26908e-06
4.77536e-06
4.27129e-06
3.78207e-06
3.32744e-06
2.91728e-06
2.55541e-06
2.24076e-06
1.97875e-06
1.75083e-06
1.58847e-06
1.41842e-06
1.25603e-06
1.31563e-06
5.31369e-06
5.14334e-06
4.97241e-06
4.78453e-06
4.59759e-06
4.4101e-06
4.22464e-06
4.0492e-06
3.88464e-06
3.72912e-06
3.58095e-06
3.43869e-06
3.29941e-06
3.15991e-06
3.01769e-06
2.86998e-06
2.71442e-06
2.54948e-06
2.37372e-06
2.18674e-06
1.98916e-06
1.78246e-06
1.56954e-06
1.35606e-06
1.14941e-06
9.56247e-07
7.8045e-07
6.24423e-07
4.89209e-07
3.74975e-07
2.80976e-07
2.05829e-07
1.47729e-07
1.0456e-07
7.40717e-08
5.66995e-08
5.06349e-08
6.05706e-08
1.07426e-07
4.31893e-06
4.46156e-06
4.62059e-06
4.78653e-06
4.95715e-06
5.13487e-06
5.31296e-06
5.48646e-06
5.6536e-06
5.81101e-06
5.95417e-06
6.08118e-06
6.18846e-06
6.27259e-06
6.33048e-06
6.35804e-06
6.35205e-06
6.30931e-06
6.22699e-06
6.10636e-06
5.94459e-06
5.73818e-06
5.49121e-06
5.21046e-06
4.89362e-06
4.53853e-06
4.15236e-06
3.75109e-06
3.35367e-06
2.97667e-06
2.62984e-06
2.31855e-06
2.04342e-06
1.80934e-06
1.6052e-06
1.44398e-06
1.30297e-06
1.11226e-06
1.11365e-06
4.17784e-06
4.04274e-06
3.90743e-06
3.76036e-06
3.61397e-06
3.46782e-06
3.32401e-06
3.18875e-06
3.06263e-06
2.94408e-06
2.83191e-06
2.72476e-06
2.62034e-06
2.51591e-06
2.40964e-06
2.29946e-06
2.18327e-06
2.05958e-06
1.92699e-06
1.78486e-06
1.6332e-06
1.47271e-06
1.30529e-06
1.13525e-06
9.68623e-07
8.11037e-07
6.66161e-07
5.36003e-07
4.21888e-07
3.24383e-07
2.43264e-07
1.7772e-07
1.26561e-07
8.81707e-08
6.08326e-08
4.48491e-08
3.90656e-08
4.6867e-08
8.25956e-08
3.40597e-06
3.52e-06
3.64762e-06
3.78164e-06
3.91983e-06
4.0647e-06
4.21063e-06
4.35391e-06
4.49343e-06
4.62624e-06
4.74928e-06
4.86094e-06
4.95864e-06
5.03986e-06
5.10192e-06
5.1421e-06
5.15732e-06
5.14487e-06
5.10222e-06
5.02885e-06
4.92354e-06
4.78196e-06
4.60525e-06
4.39947e-06
4.16303e-06
3.89301e-06
3.594e-06
3.27752e-06
2.95774e-06
2.64794e-06
2.35738e-06
2.09181e-06
1.85311e-06
1.64566e-06
1.4629e-06
1.30974e-06
1.17961e-06
1.00078e-06
9.44101e-07
3.29365e-06
3.18626e-06
3.07883e-06
2.96333e-06
2.84826e-06
2.73372e-06
2.62173e-06
2.51692e-06
2.41957e-06
2.32857e-06
2.24292e-06
2.16145e-06
2.08238e-06
2.0038e-06
1.92405e-06
1.84133e-06
1.75409e-06
1.66104e-06
1.5609e-06
1.45275e-06
1.3364e-06
1.21204e-06
1.08088e-06
9.46042e-07
8.12387e-07
6.84456e-07
5.65583e-07
4.57541e-07
3.61734e-07
2.78917e-07
2.09263e-07
1.52387e-07
1.07561e-07
7.36001e-08
4.92361e-08
3.47023e-08
2.93318e-08
3.56176e-08
6.30983e-08
2.69234e-06
2.78374e-06
2.88625e-06
2.99435e-06
3.10634e-06
3.2242e-06
3.34359e-06
3.46146e-06
3.57738e-06
3.68868e-06
3.79332e-06
3.8899e-06
3.9768e-06
4.05172e-06
4.11301e-06
4.15846e-06
4.1855e-06
4.19191e-06
4.17536e-06
4.13458e-06
4.06915e-06
3.97516e-06
3.85134e-06
3.70309e-06
3.52888e-06
3.32576e-06
3.09645e-06
2.84916e-06
2.59435e-06
2.34225e-06
2.10101e-06
1.87636e-06
1.67095e-06
1.48837e-06
1.32525e-06
1.18337e-06
1.05901e-06
8.9844e-07
8.1007e-07
2.60297e-06
2.51737e-06
2.43181e-06
2.34087e-06
2.25011e-06
2.15997e-06
2.0724e-06
1.99065e-06
1.91508e-06
1.84473e-06
1.77888e-06
1.71651e-06
1.65624e-06
1.59656e-06
1.53624e-06
1.47387e-06
1.40807e-06
1.33774e-06
1.2619e-06
1.17962e-06
1.09042e-06
9.94174e-07
8.91567e-07
7.84939e-07
6.78081e-07
5.7478e-07
4.77659e-07
3.88433e-07
3.08395e-07
2.38409e-07
1.78909e-07
1.298e-07
9.07062e-08
6.08259e-08
3.92556e-08
2.61898e-08
2.13198e-08
2.65179e-08
4.78953e-08
2.13281e-06
2.20612e-06
2.28858e-06
2.37575e-06
2.46646e-06
2.56229e-06
2.6597e-06
2.75656e-06
2.85239e-06
2.94524e-06
3.03342e-06
3.11605e-06
3.19187e-06
3.25918e-06
3.31682e-06
3.36291e-06
3.39549e-06
3.41289e-06
3.41293e-06
3.39424e-06
3.35654e-06
3.29654e-06
3.21213e-06
3.1072e-06
2.98072e-06
2.8298e-06
2.65584e-06
2.46451e-06
2.26334e-06
2.06016e-06
1.8617e-06
1.67324e-06
1.49782e-06
1.33857e-06
1.19349e-06
1.06391e-06
9.45954e-07
8.01046e-07
6.99816e-07
2.06164e-06
1.99334e-06
1.92504e-06
1.8532e-06
1.7814e-06
1.71019e-06
1.6414e-06
1.57742e-06
1.51843e-06
1.46367e-06
1.41263e-06
1.36454e-06
1.31829e-06
1.27268e-06
1.22669e-06
1.17932e-06
1.12944e-06
1.0762e-06
1.01856e-06
9.55798e-07
8.8739e-07
8.1302e-07
7.32928e-07
6.4887e-07
5.63718e-07
4.8055e-07
4.01533e-07
3.2814e-07
2.61557e-07
2.02699e-07
1.52098e-07
1.09893e-07
7.59653e-08
4.98125e-08
3.08335e-08
1.92119e-08
1.48898e-08
1.92972e-08
3.61628e-08
1.69287e-06
1.75166e-06
1.81809e-06
1.88835e-06
1.96181e-06
2.03971e-06
2.11905e-06
2.19851e-06
2.27741e-06
2.35454e-06
2.42838e-06
2.49844e-06
2.5636e-06
2.62291e-06
2.67524e-06
2.71923e-06
2.75355e-06
2.77654e-06
2.78671e-06
2.78249e-06
2.76378e-06
2.72764e-06
2.67198e-06
2.59924e-06
2.50893e-06
2.39837e-06
2.26789e-06
2.12136e-06
1.96405e-06
1.80178e-06
1.64004e-06
1.48337e-06
1.33455e-06
1.19681e-06
1.06863e-06
9.51338e-07
8.41206e-07
7.09789e-07
6.05778e-07
1.63604e-06
1.58153e-06
1.52696e-06
1.47003e-06
1.4131e-06
1.35674e-06
1.30245e-06
1.25214e-06
1.20583e-06
1.16297e-06
1.12317e-06
1.08581e-06
1.05002e-06
1.01493e-06
9.7971e-07
9.43521e-07
9.05514e-07
8.64942e-07
8.2103e-07
7.73075e-07
7.20533e-07
6.63051e-07
6.00629e-07
5.3448e-07
4.66822e-07
4.00078e-07
3.36014e-07
2.75891e-07
2.20751e-07
1.71476e-07
1.28646e-07
9.25469e-08
6.32495e-08
4.04793e-08
2.38811e-08
1.36449e-08
9.87943e-09
1.36918e-08
2.71938e-08
1.346e-06
1.39323e-06
1.44668e-06
1.50338e-06
1.56283e-06
1.62604e-06
1.6907e-06
1.75567e-06
1.82052e-06
1.88426e-06
1.94581e-06
2.00472e-06
2.06031e-06
2.11173e-06
2.15821e-06
2.19877e-06
2.23226e-06
2.25747e-06
2.2732e-06
2.27802e-06
2.27176e-06
2.25215e-06
2.21702e-06
2.16812e-06
2.10483e-06
2.02489e-06
1.92816e-06
1.81712e-06
1.69533e-06
1.56697e-06
1.43629e-06
1.30714e-06
1.18202e-06
1.06357e-06
9.51308e-07
8.45779e-07
7.44458e-07
6.25618e-07
5.24139e-07
1.30056e-06
1.25706e-06
1.21343e-06
1.16814e-06
1.12293e-06
1.07823e-06
1.03525e-06
9.95521e-07
9.59007e-07
9.25301e-07
8.94091e-07
8.6488e-07
8.37018e-07
8.09798e-07
7.8264e-07
7.54837e-07
7.25716e-07
6.94687e-07
6.61104e-07
6.2437e-07
5.83992e-07
5.39536e-07
4.90902e-07
4.38915e-07
3.85241e-07
3.31839e-07
2.80075e-07
2.31004e-07
1.85525e-07
1.4444e-07
1.08353e-07
7.76153e-08
5.24339e-08
3.27098e-08
1.82809e-08
9.34608e-09
6.11911e-09
9.46147e-09
2.0418e-08
1.07186e-06
1.10986e-06
1.15285e-06
1.19862e-06
1.24674e-06
1.29798e-06
1.35062e-06
1.40367e-06
1.45687e-06
1.5094e-06
1.5605e-06
1.60978e-06
1.65676e-06
1.70079e-06
1.74139e-06
1.77769e-06
1.809e-06
1.8343e-06
1.85259e-06
1.86265e-06
1.86432e-06
1.85579e-06
1.83516e-06
1.80341e-06
1.76009e-06
1.70326e-06
1.63248e-06
1.54919e-06
1.45579e-06
1.35519e-06
1.25056e-06
1.14491e-06
1.04051e-06
9.39525e-07
8.41822e-07
7.47769e-07
6.55646e-07
5.49042e-07
4.53143e-07
1.03552e-06
1.00075e-06
9.6586e-07
9.29749e-07
8.93798e-07
8.58264e-07
8.2416e-07
7.92672e-07
7.63777e-07
7.37127e-07
7.12509e-07
6.89574e-07
6.67766e-07
6.46521e-07
6.25428e-07
6.03927e-07
5.81503e-07
5.57687e-07
5.31922e-07
5.037e-07
4.72596e-07
4.38186e-07
4.00294e-07
3.59484e-07
3.1701e-07
2.74355e-07
2.32652e-07
1.92725e-07
1.55352e-07
1.21235e-07
9.09564e-08
6.49066e-08
4.33649e-08
2.63709e-08
1.38993e-08
6.16175e-09
3.43285e-09
6.37938e-09
1.53698e-08
8.54761e-07
8.85314e-07
9.19944e-07
9.56862e-07
9.95798e-07
1.03736e-06
1.08013e-06
1.12339e-06
1.16697e-06
1.21015e-06
1.25238e-06
1.2934e-06
1.33283e-06
1.37021e-06
1.40517e-06
1.43717e-06
1.46555e-06
1.48956e-06
1.5084e-06
1.52116e-06
1.52757e-06
1.52626e-06
1.51562e-06
1.49606e-06
1.46722e-06
1.42756e-06
1.37648e-06
1.31469e-06
1.24374e-06
1.1656e-06
1.08253e-06
9.96859e-07
9.10366e-07
8.24898e-07
7.40507e-07
6.57514e-07
5.74591e-07
4.79683e-07
3.91344e-07
8.25669e-07
7.97858e-07
7.69941e-07
7.41127e-07
7.12475e-07
6.84186e-07
6.57072e-07
6.32045e-07
6.09095e-07
5.87944e-07
5.68467e-07
5.50318e-07
5.33132e-07
5.16503e-07
5.00046e-07
4.83334e-07
4.65971e-07
4.47588e-07
4.27741e-07
4.06002e-07
3.81996e-07
3.55353e-07
3.25823e-07
2.93783e-07
2.60209e-07
2.26216e-07
1.92702e-07
1.60318e-07
1.2971e-07
1.01491e-07
7.61919e-08
5.42175e-08
3.58772e-08
2.13095e-08
1.0586e-08
3.92999e-09
1.64211e-09
4.23809e-09
1.16667e-08
6.82491e-07
7.07078e-07
7.3495e-07
7.64738e-07
7.96225e-07
8.29902e-07
8.64639e-07
8.99879e-07
9.35501e-07
9.70905e-07
1.00571e-06
1.03971e-06
1.07263e-06
1.10414e-06
1.13397e-06
1.16169e-06
1.18684e-06
1.20884e-06
1.22711e-06
1.24089e-06
1.24985e-06
1.25301e-06
1.24897e-06
1.23786e-06
1.21938e-06
1.19232e-06
1.15598e-06
1.11069e-06
1.05732e-06
9.97149e-07
9.31725e-07
8.62763e-07
7.91684e-07
7.19852e-07
6.47534e-07
5.74871e-07
5.01129e-07
4.1743e-07
3.37536e-07
6.59186e-07
6.36939e-07
6.14579e-07
5.91566e-07
5.68713e-07
5.46164e-07
5.24566e-07
5.04638e-07
4.86361e-07
4.69518e-07
4.54022e-07
4.39635e-07
4.26038e-07
4.12922e-07
4.00006e-07
3.86959e-07
3.73468e-07
3.59228e-07
3.43879e-07
3.27097e-07
3.0854e-07
2.87866e-07
2.64842e-07
2.39706e-07
2.13176e-07
1.86136e-07
1.59256e-07
1.33062e-07
1.08078e-07
8.48288e-08
6.37806e-08
4.53221e-08
2.97819e-08
1.73567e-08
8.18249e-09
2.48938e-09
5.79884e-10
2.84772e-09
9.00336e-09
5.45551e-07
5.65335e-07
5.87764e-07
6.11805e-07
6.3726e-07
6.64532e-07
6.9273e-07
7.21411e-07
7.50471e-07
7.79466e-07
8.08078e-07
8.36162e-07
8.63509e-07
8.89894e-07
9.1511e-07
9.38876e-07
9.6082e-07
9.80531e-07
9.97525e-07
1.01118e-06
1.02119e-06
1.02688e-06
1.02709e-06
1.02169e-06
1.01048e-06
9.92478e-07