/*--------------------------------*- C++ -*----------------------------------*\
| =========                 |                                                 |
| \\      /  F ield         | OpenFOAM: The Open Source CFD Toolbox           |
|  \\    /   O peration     | Version:  2306                                  |
|   \\  /    A nd           | Website:  www.openfoam.com                      |
|    \\/     M anipulation  |                                                 |
\*---------------------------------------------------------------------------*/
FoamFile
{
    version     2.0;
    format      ascii;
    arch        "LSB;label=32;scalar=64";
    class       volSymmTensorField;
    location    "425";
    object      turbulenceProperties:R;
}
// * * * * * * * * * * * * * * * * * * * * * * * * * * * * * * * * * * * * * //

dimensions      [0 2 -2 0 0 0 0];

internalField   nonuniform List<symmTensor> 
10720
(
(0.0144987 0.00306873 -6.84749e-22 0.0120403 -1.6136e-20 0.0134172)
(0.0172865 0.00364565 -9.2834e-23 0.0136446 1.04863e-19 0.0155753)
(0.0210786 0.00423413 -2.14383e-20 0.0153257 -3.37286e-19 0.0184315)
(0.0262503 0.00499591 9.57184e-20 0.0176186 7.06453e-19 0.022231)
(0.0326215 0.00571447 -1.87824e-19 0.0200522 -6.93565e-19 0.0266719)
(0.0409537 0.00622483 -1.47709e-19 0.0227817 -3.86291e-19 0.032371)
(0.0517328 0.00649513 2.87122e-19 0.026117 1.10314e-18 0.0395673)
(0.0651912 0.00618099 -7.49143e-19 0.0300846 -2.03779e-18 0.0484254)
(0.0821901 0.00491638 -1.89717e-19 0.0351309 5.55266e-19 0.0596893)
(0.10357 0.00243288 5.72954e-19 0.0419321 1.1757e-18 0.0740117)
(0.130614 -0.00179553 1.4945e-18 0.0513612 5.4652e-19 0.0925365)
(0.165468 -0.00835548 -3.39844e-18 0.0647916 -3.15629e-18 0.117021)
(0.211089 -0.0181758 6.49695e-19 0.0840948 8.38584e-19 0.1499)
(0.272352 -0.032849 2.6147e-18 0.112291 1.23916e-18 0.195176)
(0.357551 -0.0550344 -3.99509e-18 0.154535 -6.24078e-18 0.259668)
(0.479503 -0.0890627 -4.30058e-18 0.21919 -2.54665e-18 0.354037)
(0.663283 -0.143542 1.90116e-17 0.322812 1.76038e-17 0.49944)
(0.940194 -0.230775 1.77321e-17 0.488981 3.35504e-17 0.723346)
(1.41739 -0.38714 -3.52287e-17 0.789747 -5.4608e-17 1.11643)
(2.14075 -0.639965 -1.37406e-18 1.27809 1.45133e-17 1.72763)
(3.75085 -1.21246 -2.71841e-17 2.39978 5.19721e-17 3.10437)
(6.10105 -2.11295 -1.24322e-17 4.18521 4.18536e-17 5.18228)
(13.8364 -5.12758 -1.43109e-16 10.2538 -6.4175e-16 12.1233)
(25.9896 -10.3101 3.314e-16 21.0497 5.58868e-16 23.6447)
(27.6371 -11.6463 4.23698e-17 24.5397 -7.12277e-16 26.15)
(25.5065 -11.229 3.65783e-16 24.4653 5.81059e-16 24.9688)
(24.4044 -11.0464 -8.18279e-17 24.7258 -7.84193e-17 24.5206)
(24.3364 -11.2301 2.74506e-16 25.6907 2.3053e-16 24.9765)
(24.4202 -11.4432 7.29082e-16 26.7088 1.20845e-15 25.54)
(24.1237 -11.455 4.00558e-16 27.2752 1.99758e-15 25.687)
(23.3964 -11.2403 -1.41145e-15 27.3101 -1.93143e-15 25.3559)
(22.3235 -10.8337 -4.74877e-16 26.8599 -7.26122e-16 24.6075)
(20.8801 -10.2201 -3.22954e-17 25.8521 -4.36785e-15 23.3886)
(19.0951 -9.41327 -2.58297e-15 24.2897 -7.29922e-15 21.7155)
(16.9503 -8.40505 1.00622e-15 22.1142 9.23121e-16 19.5536)
(14.5073 -7.22659 1.21988e-15 19.3667 1.14378e-15 16.9535)
(11.348 -5.6751 -1.22443e-16 15.4843 -5.25221e-16 13.436)
(8.41518 -4.21332 -1.54827e-15 11.6196 -2.10163e-17 10.0164)
(2.9477 -1.48457 -3.64181e-16 4.46958 -3.3283e-15 3.70424)
(0.01203 0.00257344 1.65928e-21 0.0106522 3.85335e-20 0.011395)
(0.0101308 0.0021244 -2.37322e-21 0.00934044 1.6987e-23 0.00982533)
(0.0080831 0.00164665 -1.23392e-20 0.00782726 -8.64899e-20 0.0079997)
(0.00638586 0.00123967 2.9551e-21 0.0064452 5.55269e-20 0.0064459)
(0.00486369 0.000879179 2.15758e-21 0.005051 -1.00495e-20 0.00497245)
(0.00355261 0.000586707 -1.70191e-20 0.00372633 5.57119e-20 0.00363917)
(0.00253012 0.000377464 -9.14016e-20 0.00261694 7.35647e-20 0.00255719)
(0.00194574 0.000261404 5.73457e-20 0.00191624 -2.26472e-20 0.00190778)
(0.00211346 0.000277939 1.01429e-19 0.00191824 -5.13046e-20 0.00199814)
(0.00295785 0.000385225 -8.01632e-20 0.00247031 2.02625e-20 0.00271152)
(0.00451445 0.000623825 -2.35967e-20 0.00352085 1.11287e-19 0.00402735)
(0.00693533 0.00109498 1.74296e-19 0.00509624 7.24997e-20 0.00603464)
(0.010512 0.00197149 3.5865e-19 0.00732823 -5.58415e-20 0.00895546)
(0.015673 0.00349526 -6.87775e-21 0.0104665 -2.18646e-19 0.0131347)
(0.0229296 0.00591754 -7.16443e-20 0.0148956 -1.54512e-19 0.0190127)
(0.0330185 0.00952977 2.48038e-20 0.0213045 -5.36571e-20 0.0273118)
(0.04726 0.0147526 -1.86028e-19 0.0308194 6.32299e-19 0.039246)
(0.0681599 0.0224734 7.12235e-19 0.0454429 2.64743e-19 0.0570866)
(0.100399 0.0344355 3.18637e-19 0.0687665 -1.18361e-18 0.0849739)
(0.152285 0.0539243 -1.29505e-18 0.107412 -3.39666e-19 0.130423)
(0.240272 0.0874856 -4.38415e-18 0.174649 -2.00331e-18 0.208336)
(0.393914 0.147342 -3.32817e-18 0.29558 -8.90059e-19 0.346204)
(0.682855 0.262513 6.19829e-18 0.530389 -5.76138e-19 0.609276)
(1.22835 0.486479 -7.44729e-18 0.992771 1.20491e-18 1.116)
(2.39607 0.978117 4.06399e-18 2.02225 -7.2139e-18 2.22091)
(4.8035 2.01626 -1.26329e-16 4.23163 2.61514e-18 4.54211)
(10.5254 4.53134 -7.83e-17 9.66712 1.22944e-17 10.154)
(21.265 9.36763 6.59155e-17 20.3425 8.24326e-19 20.9242)
(29.5451 13.2906 8.69753e-18 29.4247 -1.25576e-19 29.6411)
(32.6387 14.9584 6.28522e-17 33.7977 4.34386e-19 33.3657)
(33.0578 15.3972 -4.37145e-16 35.511 -4.89334e-18 34.4078)
(32.6456 15.4171 1.57294e-16 36.2844 2.09284e-17 34.566)
(31.9228 15.2549 -1.88887e-15 36.6213 -1.53193e-16 34.3557)
(30.9818 14.9549 -3.45825e-15 36.6007 -2.36922e-16 33.8616)
(29.8496 14.5327 1.05837e-15 36.2458 1.08385e-16 33.1082)
(28.5629 14.0096 1.0245e-15 35.6023 1.64259e-16 32.1355)
(26.9098 13.2866 1.45042e-15 34.4276 2.66644e-16 30.7168)
(25.1172 12.4694 -2.90364e-16 32.9255 -3.67439e-17 29.0664)
(20.1433 10.0656 -4.55431e-15 27.4165 -7.84151e-16 23.7898)
(0.00226707 -0.000155249 4.14172e-23 0.00189642 1.34947e-21 0.00205172)
(0.00222406 -0.000181972 9.65226e-21 0.00191883 2.33896e-20 0.00203798)
(0.00215863 -0.000204454 -8.8352e-21 0.00194119 -1.55767e-20 0.00201037)
(0.00205931 -0.00021172 -5.88765e-21 0.0019265 -1.67695e-20 0.00194814)
(0.00192972 -0.000206755 3.91872e-20 0.00187661 7.60561e-20 0.00185481)
(0.00178982 -0.00019331 1.50776e-20 0.00180978 2.33914e-20 0.00174787)
(0.00164015 -0.000173016 7.08532e-20 0.00171467 6.50922e-20 0.00162238)
(0.00148395 -0.000149084 -3.63228e-20 0.00159447 -6.98999e-21 0.00148233)
(0.00133653 -0.000125537 5.11405e-20 0.001468 3.54371e-20 0.00134398)
(0.00119891 -0.000104531 -1.82194e-21 0.00133681 7.7804e-23 0.00120848)
(0.00107268 -8.69447e-05 -6.96684e-20 0.00120611 -5.95212e-20 0.00107993)
(0.000987017 -7.80231e-05 9.3378e-20 0.00111434 1.16246e-19 0.00098911)
(0.000976207 -8.37156e-05 6.53831e-20 0.0011064 3.28554e-20 0.000969181)
(0.00107581 -0.000114015 -1.70901e-20 0.00122302 9.26934e-21 0.00104862)
(0.00141246 -0.000214136 -1.40972e-19 0.00159268 2.32055e-20 0.00132275)
(0.00229543 -0.000517906 3.75388e-19 0.0024494 4.29569e-19 0.00199403)
(0.00462252 -0.00138354 7.64229e-19 0.0043427 -8.35678e-19 0.00368191)
(0.0101291 -0.0033442 -4.16372e-18 0.00824327 -5.39673e-18 0.00776864)
(0.0249762 -0.00840501 4.90183e-19 0.0184444 7.23171e-18 0.0192866)
(0.0614188 -0.020782 7.24224e-18 0.0433582 -2.0339e-18 0.0485811)
(0.180764 -0.0621701 1.53974e-17 0.126523 6.10185e-18 0.147067)
(0.491891 -0.174087 -2.34841e-17 0.350455 -2.24883e-17 0.411879)
(1.47992 -0.545439 7.42443e-17 1.09734 1.87397e-16 1.27693)
(4.61922 -1.78229 1.58314e-19 3.61387 -1.54566e-16 4.11244)
(8.79396 -3.54017 -2.72805e-16 7.27511 1.69356e-16 8.07014)
(12.8961 -5.38628 -9.70622e-17 11.2644 -6.59057e-16 12.1617)
(16.5407 -7.1425 1.1773e-18 15.2624 7.55983e-17 16.0092)
(18.8599 -8.39066 -2.94475e-16 18.3755 -4.44678e-16 18.7307)
(18.903 -8.63477 -4.93699e-16 19.4282 -2.83296e-15 19.2643)
(16.9079 -7.89674 -1.67026e-16 18.2812 -3.54684e-15 17.6562)
(14.0807 -6.69147 5.22972e-16 15.935 4.89682e-15 15.0203)
(11.3787 -5.4777 -9.55212e-16 13.3934 -3.75899e-17 12.3587)
(9.25541 -4.49803 -7.1891e-15 11.254 1.34202e-15 10.21)
(7.67105 -3.75329 8.77182e-15 9.56232 1.59511e-14 8.5722)
(6.47979 -3.18624 -1.48858e-15 8.23142 -8.63693e-16 7.31958)
(5.56403 -2.74337 3.42247e-15 7.1476 -4.9928e-15 6.32512)
(4.91808 -2.43262 -1.50372e-15 6.3927 1.52306e-15 5.63574)
(4.37733 -2.14556 3.25235e-15 5.534 4.03345e-16 4.90657)
(4.85377 -2.4343 5.7985e-15 6.45646 8.24878e-15 5.80386)
(0.00227291 -0.000117567 3.19296e-21 0.00184999 7.898e-21 0.00203577)
(0.00226157 -7.7637e-05 -4.39125e-21 0.00180466 -3.31925e-20 0.00200878)
(0.00221 -2.67192e-05 -6.52091e-21 0.0017391 -3.88993e-20 0.00195512)
(0.00211612 3.07934e-05 -2.5306e-21 0.00166073 5.87262e-20 0.00187426)
(0.00197222 8.48928e-05 6.95101e-22 0.00156958 1.56779e-20 0.00176326)
(0.00177352 0.000127801 1.38548e-20 0.00146038 -5.32129e-20 0.00161494)
(0.00153865 0.000150826 2.61011e-20 0.00133585 -8.34672e-20 0.00143915)
(0.00131418 0.000152955 -1.19466e-19 0.0012122 3.15471e-21 0.0012683)
(0.00111352 0.000139696 1.82432e-20 0.00109252 8.08315e-20 0.00110891)
(0.000921923 0.000116356 4.57668e-22 0.000968416 -4.75425e-20 0.000948604)
(0.000751498 8.77023e-05 -2.99749e-20 0.000839678 -2.84206e-20 0.000794821)
(0.000614981 6.18776e-05 -2.10391e-20 0.000717194 -2.97616e-20 0.000661715)
(0.000506782 4.2146e-05 -3.79575e-21 0.000605966 6.32183e-21 0.000549865)
(0.000418993 2.82119e-05 1.2222e-20 0.000507055 3.28889e-20 0.000455565)
(0.000346715 1.88844e-05 2.00766e-20 0.000420698 7.75646e-21 0.00037605)
(0.000286783 1.28386e-05 -2.68799e-20 0.000346638 -1.37103e-21 0.000309375)
(0.000236368 8.9755e-06 2.22336e-20 0.000283086 2.29646e-21 0.000253106)
(0.000193789 6.45644e-06 -2.36639e-21 0.000228972 -6.93822e-21 0.000205738)
(0.000156382 4.61661e-06 -6.86645e-21 0.000181427 1.09233e-20 0.000164439)
(0.000121922 3.10753e-06 -4.01244e-21 0.000138142 4.36759e-21 0.000126849)
(8.7259e-05 1.73924e-06 -6.01331e-21 9.58645e-05 6.76488e-21 8.97093e-05)
(5.24491e-05 6.6463e-07 -3.52393e-21 5.55804e-05 1.82814e-21 5.32734e-05)
(1.84809e-05 8.35055e-08 -6.76918e-22 1.88623e-05 5.83207e-23 1.85707e-05)
(3.036e-06 2.27635e-09 8.24219e-24 3.0459e-06 7.82711e-25 3.03794e-06)
(7.72778e-06 1.60543e-08 -3.71492e-24 7.78757e-06 5.09379e-24 7.73664e-06)
(0.000851218 0.000192923 4.75931e-19 0.00142945 1.2449e-19 0.000910861)
(0.00451849 0.00133223 2.64768e-18 0.00782261 -1.8906e-19 0.00474156)
(0.0372393 0.0119653 1.08093e-18 0.0620992 -4.50359e-19 0.0383238)
(0.128092 0.045899 -7.53591e-19 0.204225 1.03117e-19 0.130585)
(0.256256 0.102681 4.96283e-17 0.386154 2.01581e-18 0.261143)
(0.390997 0.17064 4.02563e-16 0.554229 9.71761e-18 0.401641)
(0.512552 0.2352 2.39493e-16 0.689727 1.31157e-17 0.533272)
(0.614426 0.289336 1.76218e-15 0.799432 1.2092e-16 0.648435)
(0.701295 0.334889 2.54437e-15 0.897992 1.69216e-16 0.750521)
(0.77882 0.375321 -5.70503e-16 0.995064 -9.71387e-17 0.844991)
(0.856922 0.415506 -4.90906e-16 1.09894 -8.61313e-17 0.940204)
(0.934337 0.456126 -1.22503e-15 1.21465 -5.14976e-16 1.04032)
(1.13397 0.552251 -2.52489e-15 1.45541 -3.50131e-18 1.25442)
(1.57423 0.775683 -2.03887e-15 1.97923 1.35814e-15 1.79205)
(0.00151784 -0.000120502 6.64825e-22 0.00125059 9.19768e-22 0.00139946)
(0.00147803 -0.000143656 -1.0533e-20 0.00126633 -2.55916e-20 0.00139063)
(0.00140943 -0.000159864 -2.32741e-21 0.00127072 -1.17247e-21 0.0013616)
(0.0013199 -0.000165123 8.82561e-21 0.00126219 1.90636e-20 0.00131711)
(0.00122892 -0.000160346 -2.79862e-20 0.00125142 -5.69223e-20 0.00126979)
(0.0011352 -0.000144947 -3.19398e-20 0.00123354 -5.23477e-20 0.00121757)
(0.00104698 -0.000120401 -6.4951e-20 0.00120871 -9.60032e-20 0.00116503)
(0.000973121 -9.03614e-05 -5.24978e-21 0.00118112 -7.80411e-22 0.00111757)
(0.00091512 -5.71728e-05 -2.87274e-20 0.00115183 -6.84139e-20 0.00107679)
(0.000875397 -2.41352e-05 1.20772e-19 0.00112359 1.37431e-19 0.00104541)
(0.000850745 6.58735e-06 -1.9884e-20 0.00109582 2.70453e-20 0.001021)
(0.000842038 3.35383e-05 1.36419e-20 0.00107454 8.39406e-21 0.00100687)
(0.00084679 5.60631e-05 -9.39944e-20 0.00106206 -1.19631e-19 0.00100261)
(0.000864146 7.53485e-05 6.12925e-20 0.00106204 -5.69007e-21 0.00101031)
(0.00087824 8.92815e-05 1.78117e-20 0.00105603 5.52734e-20 0.0010115)
(0.000863902 9.31606e-05 2.09385e-20 0.00101396 1.00492e-20 0.00097711)
(0.000751112 7.33399e-05 -7.77292e-20 0.000850255 -4.52712e-20 0.000825756)
(0.000646666 5.63373e-05 5.25436e-20 0.000712869 3.91676e-20 0.000695813)
(1.24575e-05 2.06087e-08 6.18379e-24 1.24793e-05 8.08146e-26 1.24732e-05)
(0.000897667 0.000127275 -1.6329e-19 0.00102289 -2.45671e-20 0.000984272)
(0.000214328 8.30562e-06 1.26027e-20 0.000222192 -4.94947e-21 0.000219468)
(0.000749794 0.000164306 9.15023e-21 0.00090521 1.56879e-19 0.000843779)
(2.89434e-05 1.34848e-06 5.22937e-21 3.13833e-05 -7.72358e-21 3.00437e-05)
(0.01253 -0.00488512 -2.38152e-18 0.0101604 -2.54476e-18 0.0109637)
(0.134692 -0.0538898 4.46151e-18 0.11214 1.57506e-17 0.120672)
(0.46709 -0.193275 -2.85571e-17 0.406883 7.8144e-18 0.430732)
(1.1545 -0.492818 1.48034e-17 1.05366 1.15485e-18 1.095)
(2.54863 -1.1164 -1.43375e-17 2.42788 7.65555e-17 2.47737)
(4.92123 -2.20307 -4.40892e-16 4.87757 2.46534e-16 4.8892)
(7.95878 -3.63346 2.171e-16 8.20222 3.53469e-16 8.07571)
(10.57 -4.91582 1.56414e-15 11.3397 -5.86884e-16 10.9627)
(11.6804 -5.5253 -2.76529e-15 13.0501 2.16283e-15 12.3869)
(11.1886 -5.36784 5.13792e-16 12.9844 9.32777e-15 12.1101)
(9.87579 -4.78746 -4.86343e-17 11.8338 -6.36754e-15 10.8674)
(8.45611 -4.12837 3.05746e-15 10.3845 -2.30073e-15 9.42252)
(7.19254 -3.52376 -1.43652e-14 8.95264 5.20391e-16 8.06813)
(6.2151 -3.0536 4.95822e-15 7.81132 -1.6255e-15 7.01474)
(5.27814 -2.55816 5.14252e-15 6.35705 -1.52313e-15 5.79493)
(5.69675 -2.8222 -1.01089e-14 7.36775 3.0569e-15 6.5581)
(0.0015522 -9.11042e-05 -1.3629e-21 0.00123878 -2.5944e-21 0.00140939)
(0.00156568 -5.92716e-05 -5.15643e-21 0.0012237 -7.29597e-21 0.00140584)
(0.0015711 -2.04299e-05 2.13537e-20 0.00121257 4.60391e-20 0.00140042)
(0.00154388 2.08075e-05 4.37931e-21 0.00119225 -5.18734e-21 0.00137348)
(0.00148458 6.12865e-05 3.01555e-21 0.00116497 -3.3974e-20 0.00132791)
(0.00138226 9.45469e-05 -9.39712e-21 0.0011207 2.42905e-20 0.00125261)
(0.0012428 0.000115289 9.03962e-21 0.00105709 5.48267e-20 0.00114977)
(0.00108703 0.000121546 5.94069e-20 0.000979562 6.37736e-20 0.00103372)
(0.000943521 0.000117563 2.02113e-20 0.00090637 -5.07551e-20 0.000925778)
(0.000803106 0.000104287 4.50905e-20 0.000824285 2.67233e-20 0.000814298)
(0.000664136 8.44539e-05 -3.18647e-20 0.000723571 8.18943e-21 0.000694614)
(0.00053886 6.38433e-05 -4.60987e-21 0.000616409 2.70062e-20 0.000579072)
(0.000432621 4.5775e-05 2.01716e-21 0.000514431 -2.43339e-20 0.000475864)
(0.000344876 3.11656e-05 4.36091e-20 0.000422741 -3.07e-20 0.000387131)
(0.000274804 2.00997e-05 3.30644e-21 0.000344661 -4.84098e-21 0.000313888)
(0.000219731 1.20343e-05 -4.90922e-21 0.000280096 2.02966e-20 0.000254777)
(0.000177754 6.39068e-06 3.15944e-20 0.000228859 -3.73208e-20 0.000208692)
(0.000146505 2.47148e-06 5.16389e-21 0.000189416 4.53521e-21 0.000173738)
(0.000124168 -3.00196e-07 3.68393e-20 0.000160366 -2.57643e-21 0.000148286)
(0.000108451 -2.41423e-06 3.96674e-20 0.000139158 8.88733e-21 0.000130017)
(9.79625e-05 -4.16497e-06 1.02386e-19 0.000124202 -1.35247e-20 0.000117436)
(9.16474e-05 -5.84956e-06 1.33983e-19 0.000113942 -2.02683e-20 0.000109335)
(8.90451e-05 -7.67576e-06 8.0927e-20 0.000107317 7.01035e-21 0.000105007)
(8.91714e-05 -9.44684e-06 1.89347e-20 0.000101838 -3.87233e-21 0.000102932)
(9.23411e-05 -1.05781e-05 -2.07361e-20 9.77673e-05 1.00151e-20 0.000103494)
(9.52339e-05 -1.00467e-05 7.57195e-20 9.33032e-05 -1.23039e-20 0.000103183)
(0.000104347 -9.47635e-06 -2.05287e-20 9.58621e-05 -1.99744e-21 0.000110096)
(6.2607e-05 -2.75255e-06 -6.24725e-21 5.80045e-05 1.28787e-22 6.39408e-05)
(0.00047408 -6.55476e-05 2.46684e-20 0.000295505 -7.75732e-22 0.000501951)
(0.00325926 -0.000272185 -1.42218e-18 0.0016856 -5.38087e-20 0.0034079)
(0.00933507 0.000424198 -8.62168e-18 0.00467944 -7.84222e-20 0.00965408)
(0.0187835 0.00468285 -5.4763e-17 0.0112651 -3.17622e-18 0.0193705)
(0.038604 0.0154366 -1.34237e-16 0.0316807 -4.42954e-18 0.0399563)
(0.075982 0.0342756 -3.33926e-16 0.0747634 -2.28601e-17 0.0792586)
(0.130182 0.0608384 -8.54765e-16 0.139685 -7.65285e-17 0.137251)
(0.196699 0.0929486 2.15539e-16 0.21883 -1.73597e-17 0.208525)
(0.267592 0.127585 -1.17274e-15 0.305695 2.10936e-16 0.286709)
(0.333489 0.154076 2.94683e-15 0.353604 5.32811e-16 0.342298)
(0.548262 0.261166 4.63642e-15 0.615193 9.50533e-16 0.593698)
(0.00128851 -9.76975e-05 3.60022e-21 0.00106031 6.15887e-21 0.00116908)
(0.00127314 -0.000115777 -5.01346e-21 0.00108091 -9.03765e-21 0.00117113)
(0.00124326 -0.000131401 -2.27991e-21 0.00110008 -1.25639e-21 0.00116414)
(0.00120671 -0.000141543 2.70847e-20 0.00111814 3.96382e-20 0.00115342)
(0.00115892 -0.000144743 1.72144e-20 0.00112689 3.12031e-20 0.00113219)
(0.00110138 -0.000141115 2.18408e-20 0.00112596 4.19419e-20 0.00110097)
(0.00103935 -0.000131397 3.33735e-20 0.00111479 3.86112e-20 0.00106236)
(0.000972772 -0.000116712 -1.9162e-20 0.00108965 -2.97578e-20 0.00101448)
(0.000904793 -9.88104e-05 -6.86079e-20 0.00105272 -6.79744e-20 0.000959837)
(0.000836921 -7.97129e-05 8.92101e-20 0.00100427 5.02401e-20 0.000899698)
(0.000769938 -6.08835e-05 7.51611e-20 0.000946101 6.36552e-20 0.000835245)
(0.000703905 -4.35107e-05 9.75094e-20 0.000879743 4.67117e-20 0.000767498)
(0.000638511 -2.83862e-05 -1.60976e-19 0.000806696 -5.15539e-20 0.000697218)
(0.000573922 -1.58323e-05 -1.37495e-19 0.000729263 -9.23626e-20 0.000625778)
(0.000509985 -5.80894e-06 1.82867e-19 0.000648908 5.75179e-20 0.0005537)
(0.000443453 2.89848e-06 3.71423e-20 0.000563065 2.28727e-20 0.000478727)
(0.000377729 1.02103e-05 -2.72205e-20 0.000474876 2.80949e-21 0.000404363)
(0.000322606 1.59278e-05 -8.52008e-20 0.000397613 -5.58201e-20 0.000341755)
(0.000253289 1.57601e-05 1.49333e-20 0.000296248 -5.72963e-21 0.000263946)
(0.000187508 1.05599e-05 3.60978e-20 0.000205901 1.11369e-20 0.000192379)
(4.54402e-05 5.87751e-07 -2.22825e-21 4.61626e-05 -6.40922e-22 4.56649e-05)
(8.27782e-05 1.71377e-06 2.62726e-21 8.44018e-05 3.75277e-22 8.33652e-05)
(1.06523e-05 2.53859e-08 -9.90948e-24 1.06705e-05 -2.14867e-24 1.06593e-05)
(0.00261509 0.00108052 -8.38912e-19 0.00313583 4.11445e-19 0.00280663)
(0.0138686 0.00644893 3.58054e-18 0.0153393 -1.14282e-18 0.0141931)
(0.0304734 0.0134386 -7.81058e-18 0.0300247 1.03645e-17 0.0293222)
(0.0182567 0.00744378 6.40035e-20 0.0157941 -1.46932e-19 0.0164164)
(0.0101585 0.00296056 3.98964e-18 0.00619561 -1.41713e-18 0.00765258)
(0.030017 -0.0107177 6.55305e-18 0.0217099 1.65839e-17 0.0250804)
(0.254667 -0.109634 2.71134e-17 0.235737 -1.23095e-16 0.243317)
(1.06297 -0.478477 -6.64945e-17 1.06586 -3.96337e-16 1.0611)
(2.81511 -1.29902 2.07694e-15 2.97149 5.51537e-16 2.88924)
(5.15447 -2.42378 2.96994e-15 5.68246 6.72395e-16 5.41715)
(7.00391 -3.3441 -1.64314e-15 8.02887 -2.2341e-15 7.52151)
(7.70697 -3.72254 -7.33242e-15 9.1321 1.42195e-15 8.42848)
(7.50762 -3.65038 4.79301e-15 9.09084 4.89428e-15 8.30304)
(7.00457 -3.42056 -1.01669e-14 8.60233 -1.30124e-16 7.81052)
(6.2585 -3.01958 -1.30294e-14 7.4165 1.88253e-15 6.82252)
(6.53916 -3.21022 9.2258e-15 8.13718 -3.48748e-15 7.37982)
(0.00128954 -7.51057e-05 -5.52712e-21 0.00103296 -1.12538e-20 0.00115766)
(0.00127903 -5.12168e-05 -1.90129e-21 0.00100504 7.68437e-21 0.00113892)
(0.00125241 -2.1672e-05 1.83046e-20 0.000970772 3.49005e-20 0.00111006)
(0.00121286 9.52575e-06 -7.8364e-21 0.000937747 -4.40067e-22 0.00107456)
(0.0011558 3.99812e-05 6.82801e-21 0.000903921 4.32682e-20 0.00102992)
(0.00107627 6.60811e-05 2.09412e-20 0.000865084 -5.98769e-21 0.000970837)
(0.000980821 8.44565e-05 2.26461e-20 0.000822615 -5.87502e-22 0.000901572)
(0.000879002 9.33552e-05 -5.58949e-20 0.000777355 -3.37801e-20 0.000828196)
(0.000775193 9.35048e-05 -3.05325e-20 0.000727843 2.63968e-21 0.000751975)
(0.000668446 8.57799e-05 5.06152e-20 0.000668378 2.28416e-20 0.000669062)
(0.000565377 7.27341e-05 2.36165e-20 0.000599849 -1.93792e-21 0.000583176)
(0.00047446 5.81123e-05 2.79519e-20 0.000530018 -1.72578e-20 0.000502531)
(0.000398355 4.43961e-05 -4.31503e-20 0.000464231 -2.82824e-20 0.00043115)
(0.00033584 3.26781e-05 -5.34778e-20 0.000404537 1.00951e-20 0.000369553)
(0.000285193 2.33522e-05 4.87962e-21 0.000351991 1.41312e-20 0.000317447)
(0.000244166 1.62557e-05 1.65266e-20 0.000306526 -4.91832e-21 0.000273745)
(0.000211305 1.1071e-05 -4.05725e-20 0.000268254 -3.21216e-21 0.000237765)
(0.00018506 7.34808e-06 -1.55769e-21 0.000236568 -6.45828e-21 0.000208459)
(0.000164284 4.64474e-06 -1.55664e-20 0.000210852 -3.04693e-21 0.000184936)
(0.000147525 2.56366e-06 3.26928e-20 0.000189739 -1.88339e-20 0.00016581)
(0.000134023 8.48407e-07 -3.55901e-20 0.000172462 -1.23655e-20 0.000150274)
(0.000122794 -7.19004e-07 -7.39669e-20 0.000157828 -8.73122e-21 0.000137235)
(0.00011289 -2.26747e-06 3.3476e-21 0.000144556 -1.12036e-20 0.000125549)
(0.00010263 -3.70514e-06 1.89359e-20 0.000130415 -1.07743e-20 0.000113287)
(9.22026e-05 -4.60639e-06 5.73465e-20 0.000115835 -4.00105e-21 0.000100628)
(8.3629e-05 -4.88956e-06 -5.37416e-20 0.000103765 -3.11233e-21 8.99641e-05)
(7.72222e-05 -4.83539e-06 -9.23836e-21 9.46598e-05 2.87332e-21 8.18249e-05)
(7.26564e-05 -4.67174e-06 5.59228e-21 8.81581e-05 4.89113e-22 7.58981e-05)
(6.69046e-05 -4.28746e-06 -2.56156e-21 8.02394e-05 -1.02977e-22 6.89624e-05)
(5.91265e-05 -3.80669e-06 -3.71159e-21 7.01649e-05 1.80301e-22 6.02566e-05)
(4.48972e-05 -2.80293e-06 -5.48257e-21 5.21889e-05 -2.89721e-22 4.5272e-05)
(2.86627e-05 -1.69126e-06 1.35443e-20 3.2431e-05 3.90839e-22 2.86052e-05)
(0.000200089 -5.49094e-05 1.92703e-18 0.00030325 1.25394e-19 0.000184086)
(0.000394883 -4.54809e-05 1.8627e-17 0.00050478 1.73232e-18 0.000286819)
(0.00166586 0.000598094 7.82598e-17 0.00129664 1.03083e-17 0.00133021)
(0.00854081 0.00332564 -1.73291e-16 0.00672759 -2.64474e-17 0.00771851)
(0.026894 0.0112254 7.43242e-16 0.0232658 1.09909e-16 0.0257987)
(0.0706672 0.0279109 -4.86192e-16 0.0567371 -1.68254e-16 0.0644374)
(0.229909 0.104485 -3.29621e-16 0.230785 -1.40994e-15 0.237514)
(0.000964183 -7.4394e-05 -5.13391e-21 0.000794143 -7.64718e-21 0.000880879)
(0.000948036 -8.78632e-05 1.00848e-21 0.000806674 1.60684e-21 0.000879835)
(0.000922322 -9.91031e-05 6.11157e-21 0.000818487 6.63758e-21 0.000873156)
(0.000888686 -0.000105918 -3.75458e-20 0.000827164 -5.33655e-20 0.000861433)
(0.000847358 -0.000107502 -2.74899e-20 0.000830126 -3.2151e-20 0.000843038)
(0.000799172 -0.000103634 6.42542e-20 0.000826518 7.69152e-20 0.000817872)
(0.000747513 -9.45867e-05 -6.82381e-20 0.000815504 -8.47339e-20 0.000787525)
(0.00069433 -8.11872e-05 -3.08597e-20 0.000796209 -2.05295e-20 0.000752343)
(0.000641643 -6.4565e-05 -7.33982e-20 0.000769004 -5.49259e-20 0.000713452)
(0.000592379 -4.63118e-05 -1.36859e-20 0.000735704 -2.49033e-20 0.000673371)
(0.000547813 -2.77256e-05 9.19856e-21 0.000697763 -3.31921e-21 0.000633321)
(0.000509147 -1.00035e-05 -5.03839e-20 0.000657262 -6.68226e-20 0.000594941)
(0.00047737 5.891e-06 1.64256e-19 0.000616748 1.12498e-19 0.000559947)
(0.00045267 1.93868e-05 -5.41622e-20 0.00057828 -9.47195e-21 0.000529343)
(0.000434926 3.04254e-05 -1.33061e-19 0.000543492 -5.8186e-20 0.000503899)
(0.000422117 3.85833e-05 8.84709e-20 0.000512419 1.77056e-21 0.000482212)
(0.000408322 4.36352e-05 -6.45486e-20 0.000480618 -3.72301e-20 0.000458826)
(0.000388509 4.56087e-05 8.83222e-22 0.000442938 4.72221e-20 0.000428866)
(0.000364099 4.54675e-05 -1.5519e-20 0.000402315 -1.21922e-20 0.000394804)
(0.000323956 4.03971e-05 -1.03806e-19 0.000346503 -7.17209e-20 0.000344283)
(0.000275288 3.19875e-05 6.69367e-20 0.000286266 6.49821e-20 0.000286781)
(0.00012928 7.29275e-06 3.81495e-22 0.000130826 -1.17616e-20 0.000131093)
(1.59036e-05 1.02052e-07 5.61172e-23 1.59166e-05 1.71709e-23 1.59203e-05)
(3.19678e-06 3.63255e-09 5.07931e-24 3.19684e-06 -2.27555e-25 3.19706e-06)
(0 0 0 0 0 0)
(0 0 0 0 0 0)
(0.00646994 0.00268499 -2.08655e-19 0.00566399 4.6708e-21 0.00612196)
(0.00811069 0.00334271 -5.31313e-19 0.00699519 -3.29071e-19 0.00758557)
(0.0176722 0.00721691 2.12783e-20 0.0149635 1.86105e-18 0.0163361)
(0.0571279 0.022794 -6.63868e-17 0.0467953 5.48086e-18 0.0518932)
(0.0121814 0.00460031 -5.82866e-18 0.00928561 9.7482e-19 0.0106968)
(0.0462622 0.0120977 2.78681e-17 0.0252275 -1.62683e-16 0.0354028)
(0.240505 -0.0981267 5.74289e-16 0.203968 -7.04667e-16 0.220997)
(1.273 -0.583763 -2.98056e-15 1.32622 1.58853e-16 1.29663)
(3.1526 -1.48942 4.83285e-15 3.51865 1.81578e-15 3.33291)
(5.00383 -2.39872 -9.95863e-16 5.80578 4.27259e-16 5.40375)
(6.12642 -2.96357 -1.75e-15 7.29428 3.98471e-15 6.71631)
(6.43225 -3.08564 6.73572e-16 7.49376 2.43397e-16 6.94727)
(6.96858 -3.40043 -1.72696e-14 8.47597 4.32341e-15 7.77815)
(0.000973465 -5.79982e-05 3.27632e-21 0.000780252 1.33924e-21 0.000878655)
(0.000975237 -4.04186e-05 -1.18514e-20 0.00076659 -1.70412e-20 0.000871922)
(0.000967263 -1.88374e-05 1.51339e-21 0.000749905 7.71159e-21 0.000859505)
(0.000946606 4.46424e-06 6.46302e-21 0.000731287 -2.15634e-20 0.000839415)
(0.000911513 2.77231e-05 -5.25596e-20 0.000710672 -7.55781e-20 0.00081142)
(0.00085816 4.83614e-05 -5.38319e-20 0.000685183 2.76305e-20 0.000771676)
(0.000791988 6.39222e-05 7.53603e-20 0.000656883 3.91251e-20 0.00072425)
(0.000720101 7.2908e-05 -2.43793e-20 0.00062712 -7.08133e-20 0.000673543)
(0.000644749 7.53646e-05 -3.32863e-20 0.000594063 9.44898e-21 0.000619509)
(0.000566066 7.16191e-05 -2.2698e-20 0.000553813 -3.9416e-20 0.000560132)
(0.000489211 6.33212e-05 7.94987e-21 0.000507017 1.20024e-20 0.000498287)
(0.000418537 5.28386e-05 -1.48982e-20 0.000456693 -1.94838e-20 0.000437774)
(0.000355884 4.20686e-05 -3.07706e-20 0.000405684 4.13949e-20 0.000380972)
(0.000301272 3.21408e-05 3.26395e-20 0.000355941 1.91486e-20 0.000328872)
(0.00025441 2.36691e-05 2.77382e-20 0.000309161 -1.27568e-20 0.000282169)
(0.000214676 1.68085e-05 -5.7e-21 0.000266559 -1.14174e-20 0.000241161)
(0.00018147 1.14774e-05 1.65647e-20 0.000228954 3.68945e-21 0.000205931)
(0.000154125 7.42264e-06 -2.45444e-20 0.000196707 6.27137e-21 0.000176316)
(0.000131986 4.34739e-06 1.73811e-20 0.000169794 -4.57159e-22 0.000151958)
(0.000114178 1.9489e-06 -2.28838e-20 0.000147597 -1.06866e-20 0.000132113)
(9.99999e-05 -8.72998e-09 2.20833e-20 0.000129479 1.84569e-21 0.000116093)
(8.86493e-05 -1.71743e-06 2.96115e-20 0.000114493 6.47737e-21 0.000103034)
(7.93352e-05 -3.28687e-06 -2.06741e-21 0.000101567 2.71816e-21 9.20008e-05)
(7.07567e-05 -4.65786e-06 -5.55255e-20 8.89128e-05 2.66382e-23 8.14991e-05)
(6.22256e-05 -5.53081e-06 -2.06712e-20 7.58556e-05 -8.82677e-21 7.08384e-05)
(5.44202e-05 -5.80778e-06 -6.09318e-21 6.37347e-05 9.38965e-21 6.09833e-05)
(4.83914e-05 -5.71929e-06 2.25746e-20 5.38814e-05 2.80276e-22 5.32193e-05)
(4.4556e-05 -5.39401e-06 8.12297e-22 4.66695e-05 -1.8502e-22 4.79331e-05)
(4.35217e-05 -5.06205e-06 -1.2935e-21 4.27175e-05 1.10478e-22 4.57563e-05)
(4.12519e-05 -4.09788e-06 1.36266e-20 3.83528e-05 6.3181e-23 4.23698e-05)
(5.17176e-05 -5.49408e-06 1.54849e-20 4.50168e-05 5.00657e-22 5.23167e-05)
(1.19111e-05 -3.20766e-07 -4.94288e-21 1.13967e-05 -2.73558e-22 1.1893e-05)
(8.48793e-05 -1.23813e-05 -5.4851e-19 6.20851e-05 -4.25433e-20 8.20869e-05)
(0.000439223 -0.000103807 -1.01585e-18 0.000233647 -1.24003e-19 0.000396818)
(0.00112977 -0.00026187 2.02731e-18 0.000571639 2.1978e-20 0.000967299)
(0.000995676 -0.000199792 -3.92067e-18 0.000465112 1.55583e-18 0.000789682)
(0.00149375 -0.000154532 -2.11259e-17 0.000595459 -1.75867e-17 0.00109688)
(0.00285325 0.000198843 5.24009e-17 0.00112043 3.74227e-18 0.00195635)
(0.0490213 0.0197154 -2.9066e-16 0.0399724 5.22953e-17 0.0465555)
(0.000790888 -6.10368e-05 4.49952e-21 0.00065171 5.22683e-21 0.000720667)
(0.000783252 -7.19174e-05 -1.13148e-20 0.000665456 -1.36e-20 0.000723781)
(0.00076884 -8.14803e-05 -9.1369e-22 0.00067951 -1.89064e-21 0.000723263)
(0.000750131 -8.80967e-05 -4.71599e-21 0.000693159 -2.45939e-21 0.000720569)
(0.000725967 -9.09726e-05 3.73925e-20 0.000703296 4.3034e-20 0.000713341)
(0.000696862 -8.99692e-05 2.86742e-20 0.000709705 2.36586e-20 0.000701591)
(0.000664843 -8.51191e-05 3.6466e-22 0.00071121 1.15629e-20 0.000685969)
(0.000630415 -7.68323e-05 7.11428e-20 0.000706162 6.89332e-20 0.000665792)
(0.000594641 -6.58153e-05 -8.88549e-21 0.00069436 -1.18645e-21 0.000641437)
(0.000558767 -5.31294e-05 -2.4573e-20 0.000675782 -1.15384e-20 0.00061362)
(0.000523166 -3.97212e-05 4.82709e-20 0.000650568 1.80139e-20 0.000582541)
(0.000488366 -2.64975e-05 -6.49866e-20 0.000619627 -2.51869e-20 0.00054893)
(0.000454736 -1.42771e-05 -1.1472e-19 0.000584126 -8.96762e-20 0.000513598)
(0.000422332 -3.5565e-06 -4.79316e-20 0.000545256 1.23544e-20 0.000477153)
(0.000391159 5.36858e-06 2.06902e-19 0.000504249 9.34428e-20 0.00044027)
(0.000359898 1.22824e-05 -1.49585e-19 0.000460629 -6.81805e-20 0.000402105)
(0.000326208 1.7612e-05 -3.598e-20 0.000412301 3.12016e-20 0.000360944)
(0.000291862 2.13307e-05 6.73162e-20 0.000362132 4.38776e-20 0.000319043)
(0.000259705 2.36415e-05 -4.25136e-20 0.000314304 -3.4504e-22 0.000279821)
(0.000232067 2.48765e-05 -1.40288e-20 0.000272389 3.51232e-20 0.000246059)
(0.000214774 2.65686e-05 2.08083e-20 0.000243706 -1.33673e-20 0.000224)
(0.00018708 2.34562e-05 -1.39328e-19 0.000202213 1.34872e-20 0.00019116)
(0.000156002 1.73849e-05 1.00602e-21 0.00016015 -1.68811e-20 0.000156342)
(4.12393e-05 1.22771e-06 -4.91362e-21 4.10733e-05 4.94283e-22 4.10859e-05)
(7.12961e-06 3.53285e-08 3.82335e-23 7.11378e-06 1.12006e-23 7.12048e-06)
(3.33382e-06 7.52124e-09 -2.62334e-24 3.3288e-06 -1.10574e-23 3.33109e-06)
(1.15855e-06 8.96778e-10 -6.66042e-26 1.15787e-06 -6.20373e-27 1.15818e-06)
(0 0 0 0 0 0)
(0 0 0 0 0 0)
(0 0 0 0 0 0)
(0.00285972 0.00105436 -3.08031e-19 0.00220224 6.35831e-19 0.00252208)
(0.0281882 0.0106121 -3.54076e-17 0.0213933 1.15037e-17 0.0247077)