/*--------------------------------*- C++ -*----------------------------------*\
| =========                 |                                                 |
| \\      /  F ield         | OpenFOAM: The Open Source CFD Toolbox           |
|  \\    /   O peration     | Version:  2306                                  |
|   \\  /    A nd           | Website:  www.openfoam.com                      |
|    \\/     M anipulation  |                                                 |
\*---------------------------------------------------------------------------*/
FoamFile
{
    version     2.0;
    format      ascii;
    arch        "LSB;label=32;scalar=64";
    class       volScalarField;
    location    "75";
    object      p;
}
// * * * * * * * * * * * * * * * * * * * * * * * * * * * * * * * * * * * * * //

dimensions      [0 2 -2 0 0 0 0];

internalField   nonuniform List<scalar> 
1340
(
-37.3552
-49.7357
-71.8449
-93.4827
-37.0956
-49.6566
-73.1921
-94.3472
-36.7449
-49.3566
-74.1297
-95.2392
-36.5415
-49.1898
-74.559
-95.634
-36.5234
-49.2837
-74.7137
-95.3499
-36.6958
-49.5338
-74.6463
-94.6103
-37.1217
-49.8793
-74.4083
-93.6336
-37.8939
-50.3292
-74.061
-92.4854
-39.0714
-50.886
-73.607
-91.1499
-40.6358
-51.5443
-72.9932
-89.5622
-42.4587
-52.2559
-72.1797
-87.6361
-44.3693
-52.9504
-71.1038
-85.2907
-46.242
-53.5219
-69.7275
-82.4464
-48.0555
-53.8984
-67.9967
-79.048
-49.8132
-54.0576
-65.8941
-75.0903
-51.467
-54.0689
-63.4274
-70.65
-52.9229
-54.0036
-60.7043
-65.8707
-54.1368
-53.8865
-57.8794
-60.948
-55.1141
-53.6726
-55.1426
-56.084
-55.8838
-53.3459
-52.6033
-51.47
-56.4623
-52.9119
-50.3179
-47.2545
-56.8613
-52.3966
-48.2616
-43.522
-57.08
-51.8061
-46.4177
-40.269
-57.1194
-51.1513
-44.7447
-37.4551
-56.9792
-50.4304
-43.2295
-35.0272
-56.6676
-49.6529
-41.8386
-32.9434
-56.1936
-48.8226
-40.5664
-31.1622
-55.5693
-47.9491
-39.3879
-29.6561
-54.8062
-47.0352
-38.3035
-28.397
-53.9153
-46.0863
-37.2943
-27.3642
-52.9084
-45.1074
-36.3618
-26.5299
-51.7982
-44.1018
-35.4885
-25.8661
-50.5969
-43.0752
-34.671
-25.3369
-56.2272
-49.3173
-42.0273
-33.8911
-24.9116
-54.5036
-47.9682
-40.961
-33.1428
-24.56
-52.7111
-46.5604
-39.8743
-32.4107
-24.2595
-50.8674
-45.1059
-38.7699
-31.6904
-23.9914
-48.9864
-43.6155
-37.6486
-30.9726
-23.7404
-47.083
-42.0991
-36.5144
-30.2548
-23.4936
-45.1689
-40.5662
-35.3686
-29.53
-23.2382
-43.2575
-39.0253
-34.2141
-28.7957
-22.9644
-41.3586
-37.484
-33.0524
-28.0467
-22.6635
-39.4822
-35.949
-31.8859
-27.2821
-22.3306
-37.6362
-34.4266
-30.7173
-26.5003
-21.9617
-35.8274
-32.9222
-29.5499
-25.7023
-21.556
-36.2673
-34.0621
-31.4413
-28.3868
-24.8891
-21.1133
-34.3203
-32.3439
-29.9877
-27.2313
-24.0629
-20.6352
-32.4429
-30.6769
-28.5654
-26.0865
-23.2257
-20.1234
-30.6387
-29.0641
-27.1773
-24.9549
-22.3799
-19.5804
-28.9074
-27.5071
-25.8254
-23.8387
-21.5278
-19.0086
-27.2494
-26.0065
-24.5114
-22.7402
-20.6721
-18.4112
-25.6633
-24.5628
-23.2365
-21.6615
-19.8153
-17.7915
-24.1483
-23.1754
-22.0017
-20.6044
-18.9602
-17.153
-22.7016
-21.8438
-20.8073
-19.5706
-18.1096
-16.4991
-21.9369
-21.3225
-20.5666
-19.6535
-18.5614
-17.2656
-15.8334
-20.5485
-20.0068
-19.3426
-18.5398
-17.5775
-16.4305
-15.1592
-19.2292
-18.7531
-18.1704
-17.466
-16.6196
-15.6058
-14.4795
-17.9773
-17.5593
-17.0486
-16.4313
-15.6879
-14.7932
-13.797
-16.7889
-16.4224
-15.9754
-15.4349
-14.7822
-13.9936
-13.1139
-15.6609
-15.3395
-14.9485
-14.475
-13.903
-13.2083
-12.4326
-14.5884
-14.3079
-13.9656
-13.5515
-13.0501
-12.4386
-11.7551
-13.7674
-13.5696
-13.324
-13.0249
-12.6629
-12.2235
-11.6854
-11.0834
-12.773
-12.5999
-12.3852
-12.1241
-11.8077
-11.4228
-10.9491
-10.419
-11.8272
-11.6758
-11.4882
-11.2601
-10.9836
-10.6465
-10.2295
-9.76352
-10.9281
-10.7955
-10.6312
-10.4318
-10.1901
-9.89496
-9.52822
-9.11925
-10.0714
-9.95495
-9.81049
-9.63551
-9.42376
-9.16521
-8.84287
-8.48368
-9.2584
-9.15622
-9.0289
-8.87454
-8.68825
-8.46172
-8.17801
-7.8639
-8.60281
-8.50977
-8.39246
-8.25024
-8.0793
-7.87237
-7.61467
-7.33176
-8.12471
-8.05981
-7.97228
-7.86069
-7.7247
-7.56157
-7.36558
-7.12321
-6.85951
-7.56834
-7.50912
-7.4283
-7.32315
-7.19334
-7.03739
-6.85141
-6.62271
-6.37894
-6.99968
-6.94571
-6.87144
-6.77262
-6.64873
-6.49941
-6.32184
-6.10491
-5.87529
-6.42687
-6.37897
-6.31214
-6.22093
-6.10425
-5.96214
-5.79302
-5.58785
-5.37669
-5.83374
-5.78948
-5.72839
-5.64394
-5.53451
-5.40006
-5.23885
-5.0413
-4.83313
-5.26814
-5.23107
-5.17887
-5.10425
-5.00484
-4.88059
-4.73127
-4.5515
-4.37647
-4.61971
-4.5817
-4.53213
-4.46336
-4.37225
-4.25775
-4.11654
-3.93696
-3.73671
-4.14937
-4.12316
-4.08638
-4.03126
-3.95465
-3.85643
-3.73862
-3.60125
-3.48839
-3.28575
-3.25041
-3.21026
-3.15878
-3.09185
-3.00648
-2.89372
-2.73437
-2.52404
-3.24813
-3.24606
-3.23097
-3.20926
-3.17535
-3.12612
-3.06241
-2.99293
-2.92923
-2.93443
-1.6081
-1.57141
-1.53586
-1.50553
-1.47398
-1.43725
-1.39018
-1.31433
-1.1755
-0.919841
-3.14924
-3.08322
-3.06926
-3.09375
-3.10108
-3.08421
-3.05891
-3.05039
-3.0906
-3.26839
14.8439
16.3376
17.5108
18.2507
19.2103
20.3473
21.4774
22.5443
23.5472
24.4745
25.2815
25.9139
26.2606
26.1522
25.3574
23.6349
20.8345
17.0519
12.6834
8.26894
4.22713
0.742883
-2.16939
-4.57621
-6.56085
-8.20403
-9.5713
-10.7258
-11.7177
-12.592
-13.376
-14.0891
-14.7375
-15.3266
-15.8574
-16.3339
-16.7571
-17.1279
-17.4443
-17.7034
-17.9016
-18.0366
-18.1072
-18.1131
-18.0559
-17.9376
-17.7608
-17.5287
-17.2445
-16.912
-16.535
-16.1178
-15.6646
-15.1798
-14.6679
-14.133
-13.579
-13.0096
-12.4278
-11.8367
-11.2398
-10.6391
-10.0379
-9.437
-8.84128
-8.24742
-7.66501
-7.16194
-6.70798
-6.24573
-5.75385
-5.27467
-4.72967
-4.30452
-3.63375
-3.45445
-2.40787
-2.96192
-0.780794
-3.40852
23.1298
23.5922
23.4715
23.1074
22.9099
22.8957
22.9354
22.9158
22.7484
22.4199
21.9696
21.4571
20.9265
20.4286
20.0093
19.6913
19.4026
18.9603
18.1574
16.9283
15.3469
13.5177
11.5282
9.45648
7.3644
5.29813
3.28928
1.35696
-0.485336
-2.2269
-3.85645
-5.3647
-6.74586
-8.00066
-9.13394
-10.1548
-11.0706
-11.8878
-12.6098
-13.2389
-13.7769
-14.2257
-14.588
-14.8666
-15.0655
-15.1884
-15.2393
-15.2218
-15.1397
-14.997
-14.7981
-14.5475
-14.2498
-13.9097
-13.5318
-13.1206
-12.6804
-12.2151
-11.728
-11.2232
-10.7038
-10.1733
-9.63474
-9.09029
-8.54445
-7.99486
-7.45122
-6.97718
-6.54867
-6.11288
-5.64344
-5.18711
-4.65924
-4.25017
-3.59356
-3.41412
-2.40091
-2.91252
-0.82987
33.3929
34.2062
34.9663
35.5395
35.9108
36.1363
36.2525
36.2692
36.1563
35.8736
35.3814
34.6667
33.7131
32.5018
31.0102
29.2465
27.2583
25.1334
22.9552
20.8001
18.7388
16.7992
14.9521
13.1629
11.4056
9.66426
7.92991
6.20067
4.48472
2.79898
1.16519
-0.396754
-1.87341
-3.25883
-4.5515
-5.7526
-6.86224
-7.88012
-8.80503
-9.63594
-10.3727
-11.0164
-11.5694
-12.0348
-12.4167
-12.7187
-12.9439
-13.0954
-13.1761
-13.1898
-13.1405
-13.0325
-12.8702
-12.658
-12.4004
-12.1019
-11.7666
-11.3984
-11.001
-10.5781
-10.1343
-9.67251
-9.19686
-8.70885
-8.21393
-7.71043
-7.20752
-6.76556
-6.36554
-5.95858
-5.51736
-5.08806
-4.58574
-4.19416
-3.56507
-3.37764
-2.41647
-2.86528
31.0182
31.3206
31.5931
31.8011
31.9164
31.9634
31.9603
31.9149
31.8184
31.657
31.4027
31.0388
30.5554
29.9495
29.202
28.2862
27.1633
25.8046
24.1982
22.376
20.4345
18.4959
16.6172
14.8082
13.0612
11.3662
9.71264
8.09678
6.52101
4.99504
3.52691
2.12252
0.780557
-0.501169
-1.72555
-2.89214
-3.99842
-5.03929
-6.00928
-6.90306
-7.71749
-8.4513
-9.10528
-9.68096
-10.1804
-10.6049
-10.9554
-11.2329
-11.439
-11.5762
-11.6477
-11.6568
-11.6073
-11.5031
-11.3483
-11.147
-10.903
-10.6198
-10.3013
-9.95167
-9.57511
-9.17547
-8.75643
-8.32052
-7.87272
-7.41219
-6.94856
-6.53808
-6.165
-5.78653
-5.37344
-4.97247
-4.4982
-4.12914
-3.52703
-3.34551
-2.42066
25.6441
25.6992
25.7309
25.7671
25.7924
25.7943
25.7597
25.6809
25.5556
25.3866
25.1664
24.8818
24.5171
24.0655
23.5207
22.8825
22.151
21.3293
20.4085
19.3676
18.1974
16.9438
15.6531
14.3408
13.0076
11.6565
10.2929
8.9282
7.57648
6.25347
4.96848
3.72532
2.52108
1.35356
0.221499
-0.872557
-1.92453
-2.92775
-3.87612
-4.76404
-5.58892
-6.3496
-7.04662
-7.68
-8.24942
-8.7533
-9.19013
-9.55893
-9.85977
-10.0938
-10.2628
-10.3691
-10.4152
-10.4042
-10.3394
-10.2243
-10.0622
-9.85625
-9.61005
-9.3277
-9.01407
-8.67235
-8.30688
-7.91955
-7.51624
-7.09637
-6.67021
-6.29036
-5.94341
-5.59167
-5.20565
-4.83302
-4.38662
-4.04351
-3.46878
-3.30167
21.4765
21.4217
21.3701
21.3486
21.334
21.298
21.2238
21.1061
20.9473
20.7547
20.5309
20.2718
19.9668
19.6077
19.1856
18.6919
18.1183
17.4686
16.7564
15.9957
15.1826
14.3245
13.4416
12.5387
11.6067
10.6428
9.64988
8.63723
7.61379
6.58924
5.56655
4.54811
3.53199
2.52092
1.51835
0.532951
-0.427791
-1.35452
-2.24111
-3.08258
-3.87786
-4.62627
-5.32797
-5.98103
-6.58281
-7.12931
-7.61741
-8.04483
-8.41067
-8.71489
-8.95806
-9.1411
-9.2654
-9.33299
-9.3462
-9.30751
-9.21954
-9.08471
-8.90657
-8.68949
-8.43698
-8.15247
-7.83948
-7.50067
-7.14172
-6.76231
-6.37392
-6.02463
-5.70283
-5.37682
-5.01694
-4.67139
-4.25327
-3.93622
17.8471
17.7804
17.7355
17.7128
17.6696
17.5795
17.4439
17.2742
17.0783
16.8617
16.626
16.3696
16.086
15.7708
15.4229
15.044
14.6304
14.1771
13.6809
13.1479
12.5793
11.9735
11.3393
10.6853
10.0048
9.29481
8.55764
7.80256
7.03486
6.25901
5.47177
4.67212
3.85627
3.02732
2.1887
1.35025
0.519992
-0.292409
-1.08214
-1.84503
-2.58082
-3.28783
-3.96455
-4.60622
-5.20796
-5.76407
-6.27066
-6.72491
-7.1255
-7.47153
-7.76259
-7.99849
-8.17963
-8.307
-8.38191
-8.40595
-8.3807
-8.30843
-8.19263
-8.03603
-7.84224
-7.61343
-7.35289
-7.06302
-6.7489
-6.4115
-6.06199
-5.7435
-5.44694
-5.14634
-4.81213
-4.49315
14.9751
14.9365
14.9024
14.8618
14.7732
14.6215
14.4213
14.1972
13.9621
13.723
13.4784
13.2266
12.9597
12.6711
12.3549
12.0167
11.6633
11.3025
10.9348
10.5614
10.1788
9.77861
9.35404
8.90886
8.43962
7.9406
7.41133
6.85709
6.28284
5.69077
5.07976
4.44814
3.79535
3.124
2.43863
1.74582
1.05182
0.362688
-0.31893
-0.991015
-1.65317
-2.30246
-2.93488
-3.54327
-4.12109
-4.66185
-5.16165
-5.61758
-6.02807
-6.39151
-6.70672
-6.97266
-7.18905
-7.35605
-7.4742
-7.54438
-7.56757
-7.54589
-7.48186
-7.378
-7.23687
-7.05937
-6.84872
-6.6061
-6.33714
-6.04203
-5.73263
-5.4456
-5.1746
12.7379
12.6844
12.6183
12.5387
12.4213
12.256
12.052
11.8305
11.6053
11.3856
11.1707
10.9597
10.7456
10.5216
10.2766
10.0068
9.71388
9.40674
9.0915
8.77482
8.4593
8.14261
7.81557
7.47738
7.12865
6.76609
6.38485
5.98274
5.55737
5.1069
4.62957
4.1255
3.59644
3.04709
2.48291
1.90957
1.331
0.750427
0.168063
-0.416076
-1.00202
-1.586
-2.16252
-2.72331
-3.26143
-3.77063
-4.24751
-4.68916
-5.09368
-5.45864
-5.78207
-6.0622
-6.29816
-6.48943
-6.63609
-6.73844
-6.79671
-6.81347
-6.78994
-6.72924
-6.63153
-6.49873
-6.33228
-6.13383
-5.90741
-5.65425
11.3254
11.2206
11.0948
10.9651
10.8289
10.6785
10.5108
10.3315
10.1488
9.97058
9.7994
9.63614
9.47834
9.32282
9.16169
8.98621
8.7883
8.56699
8.32306
8.05945
7.77876
7.48469
7.1752
6.8519
6.52172
6.19007
5.85356
5.50724
5.1438
4.75855
4.34768
3.91258
3.45491
2.98027
2.49323
1.99955
1.50106
0.99958
0.493531
-0.0175715
-0.534471
-1.05315
-1.56831
-2.07232
-2.5598
-3.02602
-3.46878
-3.88539
-4.2736
-4.63013
-4.95229
-5.23751
-5.48417
-5.69122
-5.85806
-5.9834
-6.0691
-6.11468
-6.12423
-6.09694
-6.0355
-5.9396
10.3098
10.1592
10.0065
9.8718
9.75884
9.65979
9.56275
9.45991
9.35078
9.23914
9.12844
9.02079
8.91682
8.8171
8.72021
8.62185
8.51286
8.38402
8.22785
8.04034
7.81845
7.56295
7.27404
6.95414
6.61159
6.25853
5.89878
5.53199
5.15436
4.76303
4.35485
3.93092
3.49286
3.04606
2.5942
2.14172
1.68874
1.23493
0.777028
0.314782
-0.151783
-0.617977
-1.07887
-1.52833
-1.96375
-2.38294
-2.7857
-3.17012
-3.5342
-3.87434
-4.18762
-4.47098
-4.72232
-4.93955
-5.12057
-5.26531
-5.37184
9.32641
9.21235
9.11463
9.03399
8.96808
8.91636
8.87167
8.82542
8.77162
8.711
8.6451
8.57664
8.50614
8.43578
8.36649
8.29964
8.23189
8.15719
8.06569
7.94893
7.79836
7.609
7.37739
7.10198
6.78421
6.4342
6.06255
5.67717
5.28197
4.87894
4.46728
4.04772
3.62191
3.19451
2.76809
2.34526
1.92497
1.5052
1.08098
0.652171
0.220493
-0.207979
-0.628451
-1.0359
-1.42947
-1.80876
-2.17504
-2.52738
-2.86458
-3.18338
8.52719
8.47604
8.43574
8.39571
8.35066
8.30734
8.26835
8.22957
8.18376
8.12955
8.06727
7.99943
7.92537
7.84623
7.76201
7.67579
7.5882
7.50018
7.40768
7.30629
7.18774
7.04537
6.87131
6.66042
6.40605
6.1101
5.78175
5.43431
5.07571
4.7113
4.34157
3.96829
3.59236
3.21696
2.84219
2.4689
2.09494
1.71872
)
;

boundaryField
{
    inlet
    {
        type            freestreamPressure;
        freestreamValue uniform 0;
        value           nonuniform List<scalar> 
11
(
-1.46324
-1.33848
-1.33268
-1.34355
-1.34694
-1.33979
-1.32896
-1.3254
-1.34306
-1.36302
-1.48129
)
;
    }
    outlet
    {
        type            freestreamPressure;
        freestreamValue nonuniform List<scalar> 0();
        value           nonuniform List<scalar> 0();
    }
    walls
    {
        type            zeroGradient;
    }
    frontAndBack
    {
        type            empty;
    }
    procBoundary6to2
    {
        type            processor;
        value           nonuniform List<scalar> 
13
(
16.4511
22.6742
32.6688
30.6628
25.5097
21.4774
17.8913
14.9946
12.7622
11.3894
10.4336
9.44813
8.59535
)
;
    }
    procBoundary6to3
    {
        type            processor;
        value           uniform 7.68815;
    }
    procBoundary6to5
    {
        type            processor;
        value           nonuniform List<scalar> 
86
(
-52.3113
-52.0869
-51.7474
-51.4489
-51.2356
-51.1822
-51.4231
-52.0728
-53.1192
-54.4355
-55.8819
-57.4044
-58.9721
-60.504
-61.8923
-63.0995
-64.1346
-65.018
-65.7439
-66.3084
-66.6993
-66.9171
-66.9514
-66.8045
-66.4687
-65.9514
-65.2531
-64.3865
-63.3568
-62.1782
-60.8624
-59.4217
-57.8733
-57.8733
-62.7209
-60.5448
-58.3171
-56.0507
-53.7638
-51.4698
-49.1847
-46.9198
-44.6881
-42.4996
-40.3621
-38.2835
-38.2835
-38.0826
-35.9409
-33.8884
-31.9247
-30.05
-28.2624
-26.56
-24.9401
-23.4005
-23.4005
-22.4269
-20.9796
-19.6097
-18.3124
-17.0837
-15.9191
-14.8155
-14.8155
-13.9215
-12.9074
-11.9446
-11.0306
-10.1607
-9.33576
-8.67275
-8.67275
-8.16844
-7.60829
-7.03647
-6.45962
-5.86525
-5.29431
-4.65012
-4.1673
-3.31923
-3.31923
-3.21251
-1.62211
-2.97861
)
;
    }
    procBoundary6to7
    {
        type            processor;
        value           nonuniform List<scalar> 
91
(
-3.33206
-3.33206
-0.90684
-0.90684
-2.84056
-2.84056
-2.40701
-3.39079
-2.40701
-3.23871
-4.10212
-3.39079
-3.81089
-4.89945
-4.59108
-4.10212
-4.29763
-5.38427
-5.12907
-4.89945
-4.88382
-5.81221
-5.65262
-5.46624
-5.38427
-5.25209
-5.44399
-5.47935
-5.48146
-5.4497
-5.81221
-5.38679
-3.48176
-3.75673
-4.00547
-4.22606
-4.41608
-4.57375
-5.44399
-4.69881
1.33501
0.945359
0.552797
0.16373
-0.218275
-0.588944
-0.947992
-1.29489
-1.63121
-1.95561
-2.26786
-3.48176
-2.5648
7.68829
7.67985
7.65508
7.615
7.55938
7.49515
7.42362
7.34579
7.25988
7.16879
7.07223
6.97171
6.86469
6.75201
6.63293
6.51044
6.38527
6.25975
6.1329
6.00403
5.8686
5.72213
5.55842
5.37173
5.15592
4.91303
4.6505
4.37648
4.09472
3.80802
3.5178
3.2266
2.93445
2.64075
2.34231
2.03733
1.33501
1.72236
)
;
    }
}


// ************************************************************************* //
