/*--------------------------------*- C++ -*----------------------------------*\
| =========                 |                                                 |
| \\      /  F ield         | OpenFOAM: The Open Source CFD Toolbox           |
|  \\    /   O peration     | Version:  2306                                  |
|   \\  /    A nd           | Website:  www.openfoam.com                      |
|    \\/     M anipulation  |                                                 |
\*---------------------------------------------------------------------------*/
FoamFile
{
    version     2.0;
    format      ascii;
    arch        "LSB;label=32;scalar=64";
    class       volSymmTensorField;
    location    "75";
    object      turbulenceProperties:R;
}
// * * * * * * * * * * * * * * * * * * * * * * * * * * * * * * * * * * * * * //

dimensions      [0 2 -2 0 0 0 0];

internalField   nonuniform List<symmTensor> 
1340
(
(0.500644 -0.233514 4.46796e-17 0.543771 2.72888e-16 0.519104)
(1.8602 0.586914 -1.54049e-16 1.16678 -2.25365e-16 1.51759)
(5.84571 2.05274 4.921e-16 4.1084 -2.26085e-15 4.91202)
(4.94251 1.95038 1.13705e-15 3.98694 6.36431e-15 4.45762)
(2.54486 -1.1571 3.8186e-16 2.63405 -1.79656e-15 2.54618)
(2.61272 -1.15932 4.68269e-16 2.53547 1.02355e-15 2.58528)
(4.6645 -2.2998 1.66113e-16 5.74209 1.25972e-14 5.38932)
(1.73853 -0.543331 -8.47359e-15 4.22264 -2.3536e-14 3.13598)
(5.29955 -2.38346 -3.69229e-15 5.31518 -1.63509e-15 5.27645)
(6.90368 -3.22391 -1.0436e-16 7.51481 -8.97007e-17 7.17201)
(8.90736 -4.39011 -4.92493e-15 11.4036 -1.04805e-14 10.1173)
(3.05115 -1.18565 1.09979e-14 6.85746 -4.73718e-15 5.05486)
(7.9638 -3.56517 1.92121e-15 7.89248 4.24266e-15 7.9129)
(9.3589 -4.35746 -1.93298e-15 10.0902 -3.37258e-15 9.70306)
(11.513 -5.60671 3.9474e-15 14.1313 -6.19787e-15 12.7428)
(4.51776 -2.15281 -6.63885e-15 8.59004 8.83112e-15 6.65924)
(10.6865 -4.7756 -1.10611e-15 10.5516 -4.3908e-17 10.6026)
(11.458 -5.31586 -8.77874e-16 12.2315 5.94866e-15 11.8433)
(13.6251 -6.538 -5.22391e-16 15.9114 9.92376e-15 14.7129)
(7.03412 -3.56026 1.14049e-14 10.7933 -5.81196e-15 9.02198)
(13.1524 -5.85495 5.49801e-15 12.8922 -1.52412e-15 12.9984)
(13.4825 -6.23094 7.20687e-15 14.2688 1.12842e-15 13.8708)
(15.3253 -7.23756 -1.26127e-15 17.1243 3.44642e-16 16.1732)
(10.7602 -5.33968 -2.40973e-15 13.8892 1.60794e-14 12.4553)
(14.677 -6.49095 -1.39917e-14 14.2093 5.77977e-16 14.4151)
(15.416 -7.08083 -2.48648e-15 16.0983 -5.01126e-15 15.7461)
(16.8308 -7.8309 -2.2652e-16 18.1351 -2.39301e-15 17.4224)
(14.7732 -7.12665 -2.48362e-15 17.2968 2.39645e-15 16.1912)
(14.3445 -6.28947 1.55771e-14 13.6672 1.10664e-15 13.9792)
(16.9759 -7.73645 -6.18015e-15 17.4322 1.25042e-15 17.1908)
(18.3361 -8.42565 -4.78717e-15 19.2026 4.5044e-15 18.708)
(18.2372 -8.63813 -2.59898e-16 20.3266 -1.11085e-14 19.4549)
(11.7082 -5.07954 -5.78817e-15 10.9446 -1.11953e-15 11.3066)
(17.5533 -7.93315 6.31783e-15 17.7156 5.42289e-16 17.6216)
(19.7244 -8.9748 1.93448e-14 20.223 8.51917e-16 19.9091)
(20.877 -9.78558 -6.31409e-15 22.6794 -1.32614e-14 21.9692)
(7.55259 -3.2325 2.62069e-15 6.89563 5.22568e-16 7.21287)
(16.4412 -7.37045 -7.07088e-15 16.3244 -6.11208e-17 16.3723)
(20.6418 -9.31744 -8.06066e-15 20.8198 -6.30271e-15 20.6593)
(22.7314 -10.5932 -1.17495e-14 24.3581 1.22008e-14 23.7536)
(3.57549 -1.50028 1.36853e-15 3.1599 4.14683e-17 3.36199)
(13.3987 -5.95985 9.48317e-15 13.1023 1.58017e-15 13.2436)
(20.5394 -9.20723 -2.3814e-15 20.4338 2.05787e-15 20.4114)
(23.8261 -11.0649 5.07599e-15 25.3262 1.38206e-14 24.7975)
(1.11009 -0.449258 1.08309e-15 0.928943 -2.43485e-16 1.01636)
(9.05818 -3.99744 6.4432e-15 8.72603 -4.46888e-16 8.88838)
(18.8445 -8.39061 3.56033e-15 18.5046 -1.02447e-15 18.6019)
(23.9809 -11.1048 1.93219e-14 25.3245 -1.38105e-14 24.8767)
(0.153991 -0.0559906 -1.33309e-15 0.112392 5.49407e-17 0.131904)
(4.78726 -2.09397 2.34265e-16 4.5371 -8.29494e-16 4.66033)
(15.3819 -6.79659 -1.23648e-14 14.8888 -8.21341e-16 15.0717)
(22.8687 -10.554 -3.11463e-14 23.9661 4.83247e-15 23.6355)
(0.00149249 0.000103156 7.97844e-17 0.000598131 2.12328e-18 0.000990636)
(1.78038 -0.769658 -4.46621e-15 1.65273 2.05948e-17 1.71555)
(10.6947 -4.67673 -4.25913e-15 10.1598 2.59272e-15 10.3765)
(20.186 -9.27351 3.81368e-14 20.9375 -4.82869e-15 20.7655)
(0.00377781 0.00161987 -1.05564e-16 0.00350018 -1.10499e-17 0.00357043)
(0.366995 -0.155387 1.09916e-15 0.329124 1.54964e-16 0.347468)
(5.98791 -2.57432 1.41521e-14 5.5249 -7.86812e-16 5.72024)
(15.9806 -7.2936 -4.51799e-14 16.3346 -4.65095e-16 16.3381)
(0.000394281 0.000187655 1.54997e-18 0.000459928 1.23054e-18 0.000419678)
(0.00921033 -0.00342384 -2.43112e-17 0.00691868 -1.48156e-17 0.00795248)
(2.45396 -1.0179 -1.04331e-14 2.13965 -8.41736e-16 2.27442)
(10.9015 -4.92469 9.8931e-15 10.8975 3.23645e-15 11.0469)
(0 0 0 0 0 0)
(0.00857865 0.00401216 -3.47668e-17 0.00935891 -2.78982e-18 0.00893716)
(0.638489 -0.235877 3.08768e-16 0.47787 7.07686e-16 0.546593)
(6.09403 -2.70147 -7.21994e-15 5.86169 2.35924e-16 6.08478)
(0 -0 0 0 -0 0)
(0.00221317 0.00107302 -6.42048e-18 0.00265514 1.17679e-18 0.00243563)
(0.0926019 -0.00838032 1.64372e-15 0.0381846 7.38863e-17 0.0611297)
(2.66271 -1.13042 5.45766e-15 2.36805 1.25321e-15 2.58207)
(0 -0 -0 0 -0 0)
(2.6989e-05 4.5549e-06 1.03293e-19 3.00079e-05 3.78295e-21 2.85291e-05)
(0.0029848 0.000864641 2.61376e-17 0.00178474 -3.06324e-18 0.0022812)
(0.876382 -0.327024 7.95812e-15 0.647933 -7.38952e-16 0.796009)
(5.52862e-09 -3.98666e-13 3.909e-27 5.52823e-09 2.58012e-27 5.52839e-09)
(0 0 -0 0 -0 0)
(0.00704532 0.00243696 -1.91457e-17 0.00492673 -8.78635e-18 0.00579074)
(0.254166 -0.0590333 -3.7593e-16 0.127035 -3.84197e-16 0.204369)
(1.47555e-08 -2.51197e-12 -1.49932e-26 1.47498e-08 -1.7252e-26 1.47524e-08)
(0 0 -0 0 0 0)
(0.0022423 0.000779705 -3.22819e-17 0.00157662 3.85732e-19 0.0018484)
(0.0866247 -0.00437995 -6.59283e-16 0.0329282 1.6643e-17 0.0643794)
(2.48291e-07 -3.96448e-10 -6.89164e-23 2.46139e-07 6.27838e-24 2.47131e-07)
(0 0 0 0 0 0)
(0.000597941 0.000193216 2.98651e-18 0.000392499 5.82829e-19 0.000478063)
(0.0274077 0.000684343 -1.11682e-16 0.0102999 3.10805e-17 0.0201136)
(3.28348e-06 -2.14292e-08 1.99025e-20 2.93928e-06 1.1942e-21 3.10145e-06)
(3.44418e-09 1.84388e-13 -3.36887e-26 3.44357e-09 -1.70526e-27 3.4439e-09)
(9.98662e-05 2.38558e-05 -4.3026e-19 6.48664e-05 -1.135e-20 7.98897e-05)
(0.00578341 0.000183619 5.87233e-17 0.00217882 -1.21019e-18 0.00421963)
(9.22266e-06 4.97507e-09 -1.63729e-20 7.07714e-06 -8.78804e-21 8.10084e-06)
(2.938e-08 8.95925e-12 6.72749e-25 2.9347e-08 -7.81754e-27 2.93643e-08)
(2.43062e-08 3.43902e-12 1.17651e-25 2.42995e-08 -2.10207e-27 2.43025e-08)
(3.07346e-05 1.87317e-07 -8.25396e-20 2.38985e-05 -1.25076e-21 2.77242e-05)
(1.33136e-05 1.74819e-07 -3.14496e-20 9.49382e-06 -2.74524e-21 1.13322e-05)
(8.94026e-08 6.56361e-11 -1.12535e-23 8.91417e-08 -2.9508e-25 8.92762e-08)
(3.3332e-10 6.32594e-16 -4.45304e-29 3.33319e-10 4.67534e-31 3.33319e-10)
(1.20777e-06 9.16107e-11 2.39013e-22 1.19209e-06 1.03695e-24 1.20075e-06)
(1.31105e-05 2.8939e-07 -5.19712e-20 9.54547e-06 2.47056e-21 1.1273e-05)
(4.52757e-06 1.21909e-07 1.063e-20 3.99141e-06 2.75723e-21 4.26497e-06)
(1.49392e-08 1.21763e-12 1.54254e-25 1.49357e-08 9.50007e-27 1.49373e-08)
(0 -0 -0 0 -0 0)
(1.14422e-05 3.02529e-07 4.00981e-20 8.72346e-06 5.00004e-21 1.00493e-05)
(1.12597e-05 5.45506e-07 1.36649e-19 8.61335e-06 -7.39103e-22 9.95494e-06)
(2.60255e-07 3.48264e-10 3.17552e-24 2.59071e-07 -1.78917e-24 2.59623e-07)
(0 -0 0 0 0 0)
(1.05108e-05 3.09882e-07 2.7298e-20 8.2402e-06 -2.74635e-21 9.35343e-06)
(1.37142e-05 6.90141e-07 -1.01281e-19 1.01044e-05 -1.4899e-20 1.19267e-05)
(2.50511e-06 2.86873e-08 5.75142e-22 2.39062e-06 -1.12481e-22 2.44472e-06)
(5.21524e-08 -3.168e-13 -8.7525e-25 5.21108e-08 -1.12475e-26 5.21328e-08)
(1.05348e-05 3.51144e-07 -4.73624e-20 8.30935e-06 -7.04304e-22 9.40483e-06)
(1.25644e-05 5.57003e-07 -5.64383e-20 9.50305e-06 4.07759e-21 1.10431e-05)
(1.061e-05 3.97707e-07 -5.39677e-20 8.74643e-06 -1.19068e-21 9.63712e-06)
(4.69405e-07 -3.56605e-11 5.55672e-23 4.65707e-07 2.55561e-25 4.67642e-07)
(1.08809e-05 4.08213e-07 5.5573e-20 8.56188e-06 1.89522e-21 9.70691e-06)
(1.11965e-05 4.39347e-07 4.96397e-20 8.70683e-06 1.08406e-21 9.95588e-06)
(1.45376e-05 6.2508e-07 4.87221e-20 1.11246e-05 1.55331e-21 1.27726e-05)
(6.34836e-06 -8.73064e-09 -2.42633e-20 5.68439e-06 3.90582e-23 6.02921e-06)
(1.1061e-05 4.54868e-07 -6.8327e-20 8.69197e-06 -4.54929e-21 9.86469e-06)
(1.06531e-05 3.96068e-07 -6.82012e-20 8.36963e-06 -3.19152e-21 9.51298e-06)
(1.38746e-05 5.24387e-07 -1.25637e-19 1.05816e-05 -4.82495e-21 1.21852e-05)
(1.23704e-05 -4.1843e-08 1.54968e-19 9.93908e-06 5.4624e-21 1.1194e-05)
(1.09889e-05 4.8329e-07 3.41321e-20 8.64704e-06 5.46808e-21 9.80876e-06)
(1.05541e-05 3.89809e-07 4.6185e-20 8.29035e-06 2.47169e-21 9.42257e-06)
(1.23895e-05 3.98236e-07 6.53775e-20 9.56545e-06 7.51822e-21 1.09502e-05)
(1.38513e-05 -6.55209e-08 -8.86533e-20 1.06843e-05 -7.22529e-21 1.23098e-05)
(1.07577e-05 4.98619e-07 1.80344e-20 8.48645e-06 -1.36956e-21 9.61529e-06)
(1.04544e-05 3.89518e-07 -6.33301e-20 8.19576e-06 -4.28313e-21 9.32475e-06)
(1.13658e-05 3.2331e-07 2.39925e-20 8.83236e-06 -3.90101e-21 1.0081e-05)
(1.30074e-05 -6.9171e-08 3.83403e-20 9.98447e-06 3.18573e-21 1.15274e-05)
(1.10438e-05 6.40503e-07 -6.91582e-20 8.83196e-06 -3.29673e-22 9.93863e-06)
(1.04461e-05 5.06479e-07 -2.87238e-20 8.26155e-06 -3.8286e-21 9.34956e-06)
(1.02178e-05 3.85737e-07 2.03226e-20 8.00423e-06 5.91558e-21 9.11045e-06)
(1.0701e-05 2.81917e-07 -9.7996e-20 8.32358e-06 -3.53996e-21 9.49977e-06)
(1.1799e-05 -6.36353e-08 -2.57108e-20 9.08435e-06 -4.48158e-22 1.04624e-05)
(1.05757e-05 6.47237e-07 7.72912e-20 8.49312e-06 7.25227e-21 9.535e-06)
(1.00754e-05 5.09559e-07 -3.12866e-20 7.98754e-06 2.96963e-22 9.02841e-06)
(9.86654e-06 3.79114e-07 8.21986e-20 7.73177e-06 3.1465e-21 8.79831e-06)
(1.01447e-05 2.55953e-07 6.57798e-20 7.88528e-06 6.16366e-21 9.0062e-06)
(1.07653e-05 -5.44478e-08 7.58064e-20 8.30558e-06 3.87756e-21 9.5481e-06)
(1.00735e-05 6.46101e-07 -1.91406e-20 8.1232e-06 -3.84069e-21 9.09818e-06)
(9.65485e-06 5.08055e-07 3.64472e-20 7.67207e-06 3.25536e-21 8.66072e-06)
(9.44598e-06 3.71414e-07 -2.19785e-20 7.40846e-06 -5.14711e-21 8.42583e-06)
(9.59066e-06 2.37935e-07 -1.90113e-21 7.451e-06 -2.65419e-21 8.51465e-06)
(9.90028e-06 -4.30816e-08 -3.03896e-20 7.64272e-06 -4.39619e-21 8.77867e-06)
(9.5485e-06 6.379e-07 1.11886e-20 7.73038e-06 3.11336e-22 8.63897e-06)
(9.1968e-06 5.02129e-07 -4.88685e-21 7.32507e-06 -1.10809e-21 8.25862e-06)
(8.98632e-06 3.63231e-07 -5.4513e-20 7.05524e-06 -1.25803e-21 8.01899e-06)
(9.0277e-06 2.25007e-07 -3.49892e-20 7.01362e-06 -3.11942e-21 8.01644e-06)
(9.13718e-06 -2.99172e-08 -7.98852e-20 7.05398e-06 -3.38275e-21 8.09917e-06)
(9.00871e-06 6.23866e-07 -3.60504e-20 7.32117e-06 -1.60258e-21 8.16435e-06)
(8.71198e-06 4.92647e-07 7.09396e-21 6.95551e-06 -1.46344e-23 7.8318e-06)
(8.5035e-06 3.54771e-07 5.4082e-20 6.68415e-06 3.84079e-21 7.5919e-06)
(8.46547e-06 2.15972e-07 -4.55035e-20 6.57908e-06 -2.27693e-21 7.51962e-06)
(8.43929e-06 -1.55051e-08 2.79134e-20 6.51508e-06 2.83051e-21 7.47861e-06)
(8.46007e-06 6.04978e-07 5.35146e-20 6.90056e-06 6.03392e-21 7.67967e-06)
(8.2091e-06 4.79957e-07 -1.31954e-20 6.57004e-06 6.13674e-23 7.38801e-06)
(8.00632e-06 3.45821e-07 -5.31015e-20 6.30195e-06 -4.16713e-21 7.15236e-06)
(7.91238e-06 2.09854e-07 -1.08158e-20 6.15289e-06 2.07915e-21 7.03123e-06)
(7.79418e-06 -2.85227e-10 -7.13372e-21 6.0173e-06 -4.61477e-22 6.90574e-06)
(7.90971e-06 5.82099e-07 2.63765e-20 6.4744e-06 -9.26864e-24 7.1914e-06)
(7.69735e-06 4.64536e-07 3.64383e-20 6.17581e-06 3.19594e-21 6.93537e-06)
(7.50302e-06 3.3627e-07 4.22942e-20 5.91496e-06 3.75852e-21 6.70741e-06)
(7.37212e-06 2.05801e-07 1.00021e-19 5.73752e-06 6.26486e-21 6.55427e-06)
(7.19414e-06 1.53492e-08 3.42647e-20 5.55475e-06 2.94478e-21 6.37339e-06)
(7.36345e-06 5.56196e-07 -2.12826e-20 6.04782e-06 -3.07361e-21 6.70498e-06)
(7.18368e-06 4.46845e-07 2.13134e-21 5.77832e-06 -1.82013e-21 6.48006e-06)
(7.00057e-06 3.25952e-07 -2.14067e-20 5.52836e-06 -2.5769e-21 6.26304e-06)
(6.84829e-06 2.0278e-07 -4.06713e-20 5.33541e-06 -5.59411e-21 6.09179e-06)
(6.63606e-06 3.05832e-08 2.36986e-20 5.12511e-06 1.06976e-21 5.87864e-06)
(6.8283e-06 5.2836e-07 -2.84955e-20 5.62708e-06 -1.67266e-21 6.22707e-06)
(6.67602e-06 4.2763e-07 -5.38459e-20 5.38409e-06 -4.00994e-21 6.02925e-06)
(6.50595e-06 3.14967e-07 -8.21628e-21 5.14754e-06 3.92361e-22 5.82538e-06)
(6.34424e-06 2.00151e-07 -3.33474e-20 4.94894e-06 -1.81626e-21 5.64677e-06)
(6.11645e-06 4.48961e-08 -1.07376e-21 4.72568e-06 -1.33384e-21 5.41841e-06)
(6.30976e-06 4.99333e-07 3.1074e-21 5.21696e-06 1.75581e-21 5.76279e-06)
(6.18089e-06 4.07436e-07 2.64032e-20 4.99845e-06 2.95886e-21 5.58898e-06)
(6.02488e-06 3.03582e-07 3.4512e-20 4.77701e-06 2.54267e-21 5.39963e-06)
(5.86277e-06 1.97586e-07 -4.06424e-21 4.58016e-06 8.88952e-22 5.22176e-06)
(5.6335e-06 5.77903e-08 -5.81102e-20 4.35506e-06 -3.60538e-21 4.99113e-06)
(5.81141e-06 4.69655e-07 4.68113e-20 4.82058e-06 4.4237e-21 5.31546e-06)
(5.70334e-06 3.86626e-07 -1.97544e-20 4.62542e-06 -2.68138e-21 5.16372e-06)
(5.5622e-06 2.91845e-07 -2.80997e-20 4.42045e-06 -3.22932e-21 4.99004e-06)
(5.40605e-06 1.94953e-07 2.79337e-20 4.23071e-06 1.74448e-21 4.81874e-06)
(5.18431e-06 6.9365e-08 5.85363e-20 4.01101e-06 5.44319e-21 4.5942e-06)
(5.33663e-06 4.39756e-07 -7.11888e-22 4.44081e-06 -7.97604e-22 4.88818e-06)
(5.24631e-06 3.65278e-07 -3.38025e-20 4.26711e-06 -2.56439e-21 4.75611e-06)
(5.12043e-06 2.79588e-07 -7.78514e-21 4.07953e-06 -8.34694e-22 4.59874e-06)
(4.97479e-06 1.91861e-07 -2.46258e-20 3.90093e-06 -2.09421e-21 4.43827e-06)
(4.76738e-06 7.94178e-08 -2.67891e-21 3.6923e-06 -1.76587e-21 4.22624e-06)
(4.93819e-06 4.68296e-07 -2.80793e-22 4.22633e-06 -1.9184e-22 4.5822e-06)
(4.8873e-06 4.10101e-07 6.8579e-21 4.07952e-06 5.39243e-22 4.48303e-06)
(4.81275e-06 3.43742e-07 1.01952e-20 3.92595e-06 1.4795e-21 4.36885e-06)
(4.70225e-06 2.66814e-07 -3.93071e-20 3.75616e-06 -2.74309e-21 4.22803e-06)
(4.56957e-06 1.87999e-07 3.3902e-20 3.59099e-06 3.22619e-21 4.08074e-06)
(4.38045e-06 8.77167e-08 -5.67642e-20 3.39705e-06 -4.1378e-21 3.88514e-06)
(4.50214e-06 4.32066e-07 -6.73404e-21 3.8646e-06 -6.70073e-22 4.18333e-06)
(4.46508e-06 3.81133e-07 -9.53509e-21 3.73851e-06 -1.29702e-21 4.10143e-06)
(4.40432e-06 3.22393e-07 -1.07681e-20 3.60354e-06 -1.38328e-21 4.00348e-06)
(4.30823e-06 2.5373e-07 5.059e-20 3.45088e-06 5.51801e-21 3.8785e-06)
(4.19009e-06 1.83296e-07 -3.77553e-21 3.30052e-06 -1.26611e-21 3.74581e-06)
(4.02143e-06 9.41307e-08 4.89316e-20 3.12343e-06 4.73697e-21 3.5689e-06)
(4.09718e-06 3.97547e-07 6.6116e-21 3.52698e-06 1.13615e-21 3.81201e-06)
(4.07036e-06 3.53103e-07 -1.7228e-20 3.41835e-06 -1.46969e-21 3.74402e-06)
(4.0214e-06 3.01374e-07 3.81355e-22 3.30024e-06 4.15515e-22 3.66045e-06)
(3.9393e-06 2.40502e-07 2.24847e-20 3.16446e-06 1.12873e-21 3.55091e-06)
(3.83612e-06 1.77916e-07 -3.54932e-20 3.02938e-06 -2.54854e-21 3.43329e-06)
(3.68824e-06 9.88434e-08 -2.10721e-20 2.86975e-06 -2.25515e-21 3.27557e-06)
(3.72203e-06 3.64772e-07 2.36352e-20 3.2126e-06 2.04382e-21 3.46728e-06)
(3.70379e-06 3.26152e-07 1.22729e-20 3.11961e-06 1.41198e-21 3.41141e-06)
(3.66516e-06 2.80911e-07 2.70503e-20 3.0171e-06 2.43987e-21 3.34083e-06)
(3.59578e-06 2.27271e-07 -2.98336e-20 2.89717e-06 -2.7589e-21 3.24559e-06)
(3.50711e-06 1.7198e-07 5.11995e-20 2.77712e-06 5.12658e-21 3.14267e-06)
(3.37954e-06 1.02071e-07 2.28688e-20 2.63491e-06 2.30829e-21 3.0039e-06)
(3.37599e-06 3.33895e-07 -2.74451e-20 2.92128e-06 -3.13131e-21 3.1486e-06)
(3.36453e-06 3.00452e-07 -4.59117e-21 2.84193e-06 -7.62601e-22 3.10299e-06)
(3.3349e-06 2.61049e-07 -3.1843e-20 2.75358e-06 -3.73729e-21 3.04398e-06)
(3.27738e-06 2.14051e-07 3.63647e-20 2.64871e-06 3.87985e-21 2.96224e-06)
(3.20247e-06 1.65502e-07 3.53317e-21 2.5432e-06 -2.8923e-22 2.87339e-06)
(3.09424e-06 1.0394e-07 -1.27444e-20 2.41797e-06 -1.8025e-21 2.7529e-06)
(3.05797e-06 3.04999e-07 1.10605e-20 2.65244e-06 1.53026e-21 2.85517e-06)
(3.05204e-06 2.76122e-07 -1.14378e-20 2.58509e-06 -1.0709e-21 2.81833e-06)
(3.03004e-06 2.41937e-07 -5.96725e-21 2.50938e-06 -1.21688e-22 2.76948e-06)
(2.98313e-06 2.00912e-07 -3.88502e-21 2.41832e-06 -7.94204e-22 2.69999e-06)
(2.92108e-06 1.58467e-07 -1.35357e-20 2.32662e-06 -1.20432e-21 2.62442e-06)
(2.83107e-06 1.04468e-07 -4.05064e-20 2.21777e-06 -3.5681e-21 2.52135e-06)
(2.76688e-06 2.78101e-07 -2.56041e-21 2.40537e-06 1.59639e-22 2.5861e-06)
(2.76523e-06 2.53242e-07 3.03813e-21 2.34843e-06 4.34775e-22 2.55664e-06)
(2.74969e-06 2.23683e-07 1.07717e-20 2.28396e-06 1.20265e-21 2.51663e-06)
(2.71222e-06 1.87996e-07 -3.0062e-21 2.2055e-06 -4.34441e-22 2.4582e-06)
(2.66191e-06 1.51019e-07 8.96776e-21 2.12661e-06 6.64512e-22 2.39485e-06)
(2.58851e-06 1.0378e-07 3.26459e-20 2.03304e-06 3.59667e-21 2.30787e-06)
(2.50122e-06 2.53188e-07 5.2587e-20 2.17905e-06 5.79147e-21 2.34011e-06)
(2.50309e-06 2.31848e-07 3.22656e-21 2.13127e-06 4.80616e-22 2.31698e-06)
(2.49284e-06 2.06368e-07 2.13334e-21 2.07665e-06 7.70318e-23 2.28456e-06)
(2.46342e-06 1.75423e-07 -1.92241e-20 2.00938e-06 -1.60936e-21 2.23581e-06)
(2.42361e-06 1.43325e-07 -3.26621e-20 1.9422e-06 -3.29677e-21 2.18353e-06)
(2.3652e-06 1.02099e-07 -5.83553e-21 1.86273e-06 -7.41297e-22 2.11123e-06)
(2.25946e-06 2.30169e-07 -1.65857e-20 1.97225e-06 -2.24496e-21 2.11582e-06)
(2.26388e-06 2.11876e-07 7.05197e-21 1.93227e-06 6.84678e-22 2.09792e-06)
(2.25804e-06 1.89972e-07 -7.99411e-21 1.88633e-06 -1.08685e-21 2.07205e-06)
(2.23566e-06 1.63233e-07 3.79377e-20 1.82915e-06 3.98986e-21 2.0319e-06)
(2.20511e-06 1.35495e-07 2.67682e-20 1.77259e-06 3.06149e-21 1.9895e-06)
(2.15994e-06 9.96083e-08 2.87175e-20 1.70588e-06 2.72995e-21 1.93035e-06)
(2.0254e-06 2.2139e-07 1.30374e-20 1.81126e-06 1.40489e-21 1.91835e-06)
(2.03959e-06 2.08961e-07 2.03357e-20 1.7835e-06 2.61176e-21 1.91155e-06)
(2.04626e-06 1.93317e-07 -6.31959e-21 1.75047e-06 -8.3495e-22 1.89824e-06)
(2.04408e-06 1.74528e-07 -1.47162e-20 1.71215e-06 -1.53375e-21 1.87802e-06)
(2.0277e-06 1.51468e-07 -2.52579e-20 1.66388e-06 -2.96693e-21 1.84537e-06)
(2.00511e-06 1.2758e-07 -7.878e-21 1.61677e-06 -9.00335e-22 1.81161e-06)
(1.97145e-06 9.64167e-08 -4.88353e-20 1.56148e-06 -5.43273e-21 1.76409e-06)
(1.82533e-06 2.00051e-07 -1.94658e-20 1.63411e-06 -2.3344e-21 1.7297e-06)
(1.8402e-06 1.89488e-07 1.46478e-20 1.61173e-06 1.34918e-21 1.72592e-06)
(1.84833e-06 1.76117e-07 -1.73372e-20 1.58448e-06 -1.93474e-21 1.71629e-06)
(1.84903e-06 1.60009e-07 -4.00423e-21 1.55268e-06 -1.56135e-22 1.70081e-06)
(1.83793e-06 1.40165e-07 8.45113e-21 1.51239e-06 8.36261e-22 1.67483e-06)
(1.82224e-06 1.19638e-07 1.76469e-20 1.47368e-06 2.09799e-21 1.64866e-06)
(1.79848e-06 9.26194e-08 -6.68053e-21 1.42852e-06 -1.96553e-22 1.6113e-06)
(1.64451e-06 1.80638e-07 1.43869e-20 1.47358e-06 2.03123e-21 1.55896e-06)
(1.65913e-06 1.71607e-07 -2.7579e-20 1.45523e-06 -3.29463e-21 1.5571e-06)
(1.66823e-06 1.60175e-07 -2.53435e-21 1.43284e-06 -2.63691e-22 1.55045e-06)
(1.6715e-06 1.46399e-07 3.65039e-20 1.40687e-06 4.00443e-21 1.53918e-06)
(1.6649e-06 1.29359e-07 -3.612e-20 1.37363e-06 -4.04373e-21 1.51901e-06)
(1.65503e-06 1.11758e-07 1.71446e-20 1.34226e-06 1.87565e-21 1.49939e-06)
(1.63956e-06 8.83347e-08 2.14814e-20 1.30587e-06 2.08681e-21 1.47069e-06)
(1.48072e-06 1.62935e-07 2.3335e-20 1.32778e-06 2.76667e-21 1.40411e-06)
(1.49501e-06 1.55217e-07 2.58646e-22 1.31289e-06 2.09566e-22 1.40385e-06)
(1.50484e-06 1.45456e-07 2.8901e-21 1.29471e-06 4.14978e-22 1.3997e-06)
(1.51007e-06 1.3369e-07 -4.28015e-20 1.27372e-06 -5.05648e-21 1.39191e-06)
(1.5072e-06 1.19079e-07 -1.43363e-21 1.24659e-06 -1.69902e-22 1.3767e-06)
(1.50216e-06 1.04009e-07 3.02412e-20 1.22156e-06 3.50479e-21 1.36262e-06)
(1.49351e-06 8.3694e-08 -5.96795e-20 1.19265e-06 -6.7632e-21 1.34122e-06)
(1.33259e-06 1.46833e-07 5.84127e-21 1.19562e-06 6.08365e-22 1.26392e-06)
(1.34634e-06 1.40232e-07 -7.8484e-21 1.18358e-06 -8.35291e-22 1.26484e-06)
(1.35663e-06 1.31901e-07 -4.45129e-21 1.16899e-06 -5.89745e-22 1.26272e-06)
(1.36346e-06 1.21867e-07 1.18971e-20 1.15229e-06 1.71109e-21 1.25787e-06)
(1.36362e-06 1.09352e-07 -2.13706e-20 1.13042e-06 -2.48069e-21 1.24684e-06)
(1.36241e-06 9.64716e-08 2.35274e-20 1.11072e-06 2.60234e-21 1.23732e-06)
(1.35913e-06 7.88269e-08 -1.03912e-20 1.08803e-06 -9.3876e-22 1.22185e-06)
(1.19874e-06 1.32215e-07 3.14005e-21 1.07597e-06 2.57087e-22 1.13715e-06)
(1.21187e-06 1.26553e-07 1.70045e-20 1.06629e-06 2.09136e-21 1.13891e-06)
(1.2224e-06 1.19442e-07 -1.53202e-21 1.05472e-06 -1.3083e-22 1.13842e-06)
(1.2303e-06 1.1088e-07 1.00625e-20 1.04156e-06 9.05191e-22 1.13589e-06)
(1.23276e-06 1.00164e-07 -2.91456e-21 1.02407e-06 -3.85207e-22 1.12824e-06)
(1.23466e-06 8.91757e-08 2.35112e-20 1.00894e-06 2.69281e-21 1.12255e-06)
(1.23553e-06 7.3823e-08 -2.55565e-20 9.91358e-07 -2.83422e-21 1.11184e-06)
(1.07771e-06 1.1891e-07 -1.11587e-20 9.67481e-07 -1.47343e-21 1.02238e-06)
(1.0902e-06 1.14057e-07 6.28509e-21 9.59821e-07 6.85239e-22 1.02483e-06)
(1.10071e-06 1.07971e-07 8.16935e-21 9.50708e-07 9.83565e-22 1.02555e-06)
(1.10926e-06 1.00645e-07 -4.01861e-20 9.40431e-07 -4.74799e-21 1.02477e-06)
(1.11355e-06 9.14742e-08 -2.83749e-20 9.26695e-07 -3.40493e-21 1.01995e-06)
(1.11788e-06 8.21216e-08 1.89727e-20 9.15422e-07 2.06335e-21 1.01738e-06)
(1.1218e-06 6.87283e-08 -2.4348e-21 9.01946e-07 -2.47715e-22 1.01039e-06)
(9.54785e-07 1.09971e-07 1.18041e-21 8.73831e-07 2.22444e-22 9.14104e-07)
(9.67761e-07 1.06748e-07 -1.34117e-20 8.68676e-07 -1.52992e-21 9.18016e-07)
(9.79688e-07 1.02587e-07 9.28153e-21 8.62782e-07 1.01826e-21 9.21042e-07)
(9.90044e-07 9.73739e-08 -1.42637e-20 8.55738e-07 -1.83123e-21 9.22715e-07)
(9.99007e-07 9.11083e-08 9.69353e-22 8.47899e-07 2.42225e-22 9.23347e-07)
(1.00465e-06 8.32559e-08 -5.51922e-21 8.37293e-07 -4.46474e-22 9.2079e-07)
(1.01076e-06 7.53021e-08 3.62826e-21 8.29187e-07 2.9059e-22 9.20676e-07)
(1.0168e-06 6.35731e-08 -1.20761e-20 8.1895e-07 -1.26988e-21 9.16495e-07)
(8.55943e-07 9.84142e-08 8.13631e-21 7.82688e-07 1.0174e-21 8.19148e-07)
(8.68032e-07 9.56302e-08 2.20808e-20 7.78771e-07 2.78948e-21 8.23218e-07)
(8.79266e-07 9.2044e-08 -1.88799e-20 7.74268e-07 -2.30586e-21 8.26587e-07)
(8.89327e-07 8.75673e-08 -2.04789e-20 7.6892e-07 -2.3498e-21 8.28957e-07)
(8.98479e-07 8.21986e-08 -7.30755e-21 7.63099e-07 -9.88267e-22 8.30677e-07)
(9.0512e-07 7.54738e-08 2.15618e-20 7.55136e-07 2.61805e-21 8.29959e-07)
(9.12473e-07 6.87115e-08 -1.643e-20 7.49606e-07 -2.00954e-21 8.31719e-07)
(9.19716e-07 5.83858e-08 2.92135e-20 7.41761e-07 3.47052e-21 8.29465e-07)
(7.66111e-07 8.78923e-08 7.30064e-21 6.99797e-07 9.49813e-22 7.32787e-07)
(7.77222e-07 8.5463e-08 -1.00935e-20 6.96772e-07 -1.35051e-21 7.3681e-07)
(7.87723e-07 8.23541e-08 -1.2782e-21 6.93364e-07 -1.27524e-22 7.40357e-07)
(7.97428e-07 7.85015e-08 2.50282e-20 6.89427e-07 3.2057e-21 7.4325e-07)
(8.06551e-07 7.38859e-08 -1.47579e-20 6.85224e-07 -1.91275e-21 7.45752e-07)
(8.13825e-07 6.81232e-08 -5.09071e-21 6.7942e-07 -5.5235e-22 7.46444e-07)
(8.21871e-07 6.23537e-08 -1.57452e-20 6.7585e-07 -1.76761e-21 7.49493e-07)
(8.29331e-07 5.31756e-08 3.23842e-21 6.69478e-07 2.77739e-22 7.48196e-07)
(6.85043e-07 7.83791e-08 1.36333e-20 6.2493e-07 1.64086e-21 6.54846e-07)
(6.95159e-07 7.62306e-08 -6.8901e-21 6.2253e-07 -8.15536e-22 6.58681e-07)
(7.0495e-07 7.35167e-08 3.67026e-21 6.2e-07 4.07752e-22 6.62315e-07)
(7.14225e-07 7.01794e-08 1.79005e-20 6.17181e-07 2.23298e-21 6.65566e-07)
(7.23222e-07 6.61956e-08 -5.74277e-20 6.14313e-07 -6.97842e-21 6.68673e-07)
(7.30834e-07 6.12371e-08 4.06767e-20 6.10234e-07 4.84121e-21 6.70428e-07)
(7.39231e-07 5.63006e-08 1.63908e-20 6.08201e-07 2.03533e-21 6.74399e-07)
(7.46318e-07 4.80774e-08 3.76333e-21 6.0272e-07 3.8275e-22 6.73476e-07)
(6.10874e-07 6.97298e-08 -1.54e-20 5.56671e-07 -2.01756e-21 5.83563e-07)
(6.19662e-07 6.77788e-08 1.20677e-21 5.54386e-07 1.71627e-22 5.86775e-07)
(6.28396e-07 6.53609e-08 -6.77928e-21 5.52219e-07 -8.11192e-22 5.90055e-07)
(6.36964e-07 6.24363e-08 1.55452e-20 5.50077e-07 1.85362e-21 5.93295e-07)
(6.45433e-07 5.89638e-08 1.04477e-20 5.48024e-07 1.44254e-21 5.96556e-07)
(6.52924e-07 5.46669e-08 -6.77172e-21 5.45115e-07 -8.24558e-22 5.9887e-07)
(6.61216e-07 5.04141e-08 -7.48189e-21 5.44098e-07 -9.77595e-22 6.03257e-07)
(6.67146e-07 4.29186e-08 -1.226e-20 5.38724e-07 -1.44437e-21 6.01911e-07)
(5.50663e-07 6.28112e-08 -9.58954e-21 5.01628e-07 -1.18774e-21 5.25985e-07)
(5.58652e-07 6.10827e-08 1.05102e-21 4.99734e-07 1.61253e-22 5.28962e-07)
(5.66784e-07 5.89647e-08 2.34354e-20 4.98114e-07 2.86716e-21 5.32191e-07)
(5.74929e-07 5.64264e-08 -5.76869e-23 4.96674e-07 1.0193e-23 5.35565e-07)
(5.83016e-07 5.34176e-08 -1.7983e-20 4.95343e-07 -2.26641e-21 5.39006e-07)
(5.90352e-07 4.97208e-08 3.67251e-20 4.93375e-07 4.53803e-21 5.41745e-07)
(5.98183e-07 4.6045e-08 -6.94716e-21 4.92873e-07 -8.92455e-22 5.46108e-07)
(6.02075e-07 3.9083e-08 2.2979e-20 4.8659e-07 2.8518e-21 5.43367e-07)
(5.01995e-07 5.69998e-08 -1.86357e-20 4.56327e-07 -2.3224e-21 4.79014e-07)
(5.09613e-07 5.54628e-08 2.00281e-20 4.55058e-07 2.52283e-21 4.82091e-07)
(5.17582e-07 5.36094e-08 -3.29101e-20 4.54239e-07 -4.21181e-21 4.85618e-07)
(5.25686e-07 5.1418e-08 8.40443e-21 4.53727e-07 1.05466e-21 4.89448e-07)
(5.33879e-07 4.88375e-08 1.06888e-20 4.53437e-07 1.35379e-21 4.93478e-07)
(5.41382e-07 4.56756e-08 9.48526e-21 4.52578e-07 1.00211e-21 4.96908e-07)
(5.4869e-07 4.25075e-08 -2.96589e-20 4.52488e-07 -3.50775e-21 5.0123e-07)
(5.50873e-07 3.60709e-08 1.5523e-20 4.45563e-07 1.74253e-21 4.97403e-07)
(4.48391e-07 5.2462e-08 3.80283e-21 4.13785e-07 4.98167e-22 4.31078e-07)
(4.54703e-07 5.12692e-08 1.05228e-20 4.12034e-07 1.39667e-21 4.33246e-07)
(4.6109e-07 4.97463e-08 -4.12856e-21 4.10398e-07 -5.14773e-22 4.35475e-07)
(4.68069e-07 4.79728e-08 -6.5232e-21 4.0946e-07 -7.79332e-22 4.38383e-07)
(4.756e-07 4.59713e-08 1.74027e-20 4.09266e-07 2.14825e-21 4.42034e-07)
(4.83447e-07 4.36853e-08 -1.05368e-20 4.09555e-07 -1.31451e-21 4.46157e-07)
(4.90911e-07 4.09596e-08 -3.51972e-20 4.09617e-07 -4.38255e-21 4.50054e-07)
(4.97821e-07 3.82484e-08 4.07897e-20 4.10069e-07 5.12109e-21 4.54439e-07)
(4.98676e-07 3.23492e-08 -2.23187e-20 4.03006e-07 -2.81793e-21 4.49931e-07)
(4.07608e-07 4.75372e-08 1.07127e-21 3.75487e-07 1.2714e-22 3.91686e-07)
(4.12363e-07 4.62813e-08 -3.21562e-21 3.72892e-07 -5.065e-22 3.92681e-07)
(4.17208e-07 4.47008e-08 2.32047e-20 3.70393e-07 2.93497e-21 3.93696e-07)
(4.22804e-07 4.28892e-08 -1.27499e-20 3.68715e-07 -1.56338e-21 3.95487e-07)
(4.29186e-07 4.09082e-08 -9.00597e-21 3.68044e-07 -1.20028e-21 3.98274e-07)
(4.36092e-07 3.87186e-08 -4.25468e-21 3.68114e-07 -5.07361e-22 4.01806e-07)
(4.43003e-07 3.62385e-08 2.98455e-20 3.68429e-07 3.78325e-21 4.05612e-07)
(4.49615e-07 3.38544e-08 -1.0181e-20 3.69338e-07 -1.16421e-21 4.1016e-07)
(4.49129e-07 2.83386e-08 -2.00621e-20 3.62017e-07 -2.60159e-21 4.05071e-07)
(3.68623e-07 4.3017e-08 -2.65747e-22 3.39718e-07 -3.0817e-23 3.54203e-07)
(3.71904e-07 4.17909e-08 -2.1083e-20 3.36516e-07 -2.72902e-21 3.54153e-07)
(3.75228e-07 4.02465e-08 -1.81606e-20 3.33292e-07 -2.3118e-21 3.54001e-07)
(3.79277e-07 3.84671e-08 6.41466e-21 3.30792e-07 8.46785e-22 3.54518e-07)
(3.84114e-07 3.65302e-08 -4.94506e-21 3.29279e-07 -6.5812e-22 3.56016e-07)
(3.89591e-07 3.44273e-08 1.21438e-20 3.28622e-07 1.61705e-21 3.58398e-07)
(3.95303e-07 3.21135e-08 -2.43118e-20 3.28457e-07 -3.29261e-21 3.61332e-07)
(4.00789e-07 2.9896e-08 7.53805e-20 3.28868e-07 9.59796e-21 3.65005e-07)
(3.98096e-07 2.44747e-08 -3.74747e-20 3.2024e-07 -4.70326e-21 3.58192e-07)
(3.34468e-07 3.89419e-08 -3.79135e-22 3.07817e-07 -2.15038e-23 3.2155e-07)
(3.37233e-07 3.77998e-08 -1.97327e-20 3.04754e-07 -2.5016e-21 3.21392e-07)
(3.39954e-07 3.63412e-08 4.14157e-20 3.01539e-07 5.29991e-21 3.20984e-07)
(3.43222e-07 3.46283e-08 2.6186e-21 2.98829e-07 3.41866e-22 3.21001e-07)
(3.47132e-07 3.2749e-08 -2.3807e-20 2.96954e-07 -2.94615e-21 3.21822e-07)
(3.5158e-07 3.07213e-08 2.77269e-20 2.95871e-07 3.45262e-21 3.23444e-07)
(3.56416e-07 2.85787e-08 -5.29339e-20 2.955e-07 -6.71561e-21 3.25869e-07)
(3.6134e-07 2.66245e-08 4.86037e-20 2.96002e-07 6.00003e-21 3.29388e-07)
(3.58076e-07 2.16052e-08 -5.72731e-20 2.87533e-07 -7.06794e-21 3.22627e-07)
(2.93315e-07 3.43337e-08 4.9785e-21 2.70863e-07 6.42851e-22 2.81787e-07)
(2.94631e-07 3.32893e-08 1.39772e-20 2.6733e-07 1.86422e-21 2.80641e-07)
(2.95997e-07 3.19727e-08 -1.98511e-20 2.63681e-07 -2.63109e-21 2.79305e-07)
(2.97948e-07 3.04222e-08 -1.21959e-20 2.60489e-07 -1.61877e-21 2.78363e-07)
(3.00558e-07 2.87212e-08 5.90857e-20 2.58082e-07 7.6408e-21 2.78191e-07)
(3.03675e-07 2.68773e-08 -3.87802e-20 2.56376e-07 -4.90321e-21 2.78737e-07)
(3.07339e-07 2.49087e-08 -3.35346e-20 2.55417e-07 -4.25477e-21 2.80117e-07)
(3.10488e-07 2.29685e-08 1.23953e-20 2.54618e-07 1.45393e-21 2.81791e-07)
(3.04147e-07 1.7727e-08 2.04329e-20 2.43843e-07 2.69843e-21 2.72077e-07)
(2.69764e-07 3.11815e-08 2.77281e-21 2.47293e-07 3.4453e-22 2.59717e-07)
(2.71307e-07 3.01627e-08 4.68766e-21 2.44281e-07 5.97758e-22 2.59095e-07)
(2.72709e-07 2.88657e-08 -1.29051e-20 2.41005e-07 -1.6066e-21 2.58085e-07)
(2.7446e-07 2.73188e-08 8.58631e-22 2.37977e-07 1.16797e-22 2.57206e-07)
(2.76663e-07 2.56149e-08 1.71418e-20 2.35579e-07 2.08764e-21 2.56881e-07)
(2.79246e-07 2.37979e-08 2.38937e-20 2.33847e-07 3.13897e-21 2.57194e-07)
(2.82325e-07 2.20206e-08 -3.43509e-20 2.3306e-07 -4.3294e-21 2.58549e-07)
(2.85614e-07 2.05193e-08 3.67453e-21 2.33242e-07 4.36756e-22 2.61146e-07)
(2.80196e-07 1.609e-08 -7.23571e-21 2.24099e-07 -9.59339e-22 2.53174e-07)
(2.15712e-07 2.5699e-08 -5.5225e-21 2.01952e-07 -7.25561e-22 2.06997e-07)
(2.14723e-07 2.48537e-08 4.52541e-21 1.97715e-07 5.79494e-22 2.04377e-07)
(2.13894e-07 2.38137e-08 2.0833e-20 1.9341e-07 2.72055e-21 2.01666e-07)
(2.13559e-07 2.25636e-08 4.64975e-21 1.89355e-07 5.95231e-22 1.99175e-07)
(2.13857e-07 2.11639e-08 -3.05477e-21 1.85914e-07 -4.21135e-22 1.97291e-07)