/*--------------------------------*- C++ -*----------------------------------*\
| =========                 |                                                 |
| \\      /  F ield         | OpenFOAM: The Open Source CFD Toolbox           |
|  \\    /   O peration     | Version:  2306                                  |
|   \\  /    A nd           | Website:  www.openfoam.com                      |
|    \\/     M anipulation  |                                                 |
\*---------------------------------------------------------------------------*/
FoamFile
{
    version     2.0;
    format      ascii;
    arch        "LSB;label=32;scalar=64";
    class       volScalarField;
    location    "75";
    object      turbulenceProperties:nuEff;
}
// * * * * * * * * * * * * * * * * * * * * * * * * * * * * * * * * * * * * * //

dimensions      [0 2 -1 0 0 0 0];

internalField   nonuniform List<scalar> 
1340
(
0.0246978
0.0292032
0.0474364
0.0468833
0.123952
0.130638
0.181578
0.174067
0.24907
0.294279
0.391407
0.351744
0.348474
0.420805
0.566666
0.546541
0.422724
0.52258
0.709819
0.756438
0.469646
0.602484
0.8228
0.943737
0.484563
0.658423
0.907941
1.08274
0.462865
0.686444
0.966373
1.18396
0.403498
0.681549
0.996974
1.25203
0.313513
0.639404
0.996767
1.28819
0.208891
0.559779
0.961695
1.29156
0.113079
0.448093
0.888052
1.25969
0.0392547
0.319143
0.775295
1.18928
0.00174454
0.192051
0.628186
1.07775
0.00300952
0.0879007
0.46047
0.925562
0.000479871
0.0151898
0.291125
0.739829
1e-05
0.00792311
0.15088
0.536855
1e-05
0.00176195
0.0560821
0.345469
1e-05
2.08321e-05
0.00145978
0.188947
1e-05
1e-05
0.00312482
0.0881347
1e-05
1e-05
0.00118107
0.035369
1.00076e-05
1e-05
0.000414163
0.0117455
1.11117e-05
1e-05
8.17266e-05
0.00273451
1.64751e-05
1.00001e-05
1e-05
1.58308e-05
2.08777e-05
1.00009e-05
1e-05
1.00151e-05
1.96851e-05
1.17102e-05
1e-05
1e-05
1.71385e-05
1.77659e-05
1.00025e-05
1e-05
1.58373e-05
2.0003e-05
1.02418e-05
1.00001e-05
1.56725e-05
1.81858e-05
1.40159e-05
1.00055e-05
1.59229e-05
1.65371e-05
1.75369e-05
1.10841e-05
1.61208e-05
1.59748e-05
1.74913e-05
1.43437e-05
1.61747e-05
1.59745e-05
1.66561e-05
1.61765e-05
1.61611e-05
1.60791e-05
1.62219e-05
1.64231e-05
1.61277e-05
1.61416e-05
1.61327e-05
1.61175e-05
1.62746e-05
1.61268e-05
1.61317e-05
1.61413e-05
1.61216e-05
1.61734e-05
1.61248e-05
1.61279e-05
1.61359e-05
1.61334e-05
1.61428e-05
1.61225e-05
1.61256e-05
1.61305e-05
1.61354e-05
1.61377e-05
1.61203e-05
1.61234e-05
1.6127e-05
1.61327e-05
1.6136e-05
1.61184e-05
1.61212e-05
1.61243e-05
1.61293e-05
1.61332e-05
1.61166e-05
1.61192e-05
1.61219e-05
1.61262e-05
1.61299e-05
1.61149e-05
1.61174e-05
1.61199e-05
1.61237e-05
1.61269e-05
1.61133e-05
1.61157e-05
1.61181e-05
1.61216e-05
1.61243e-05
1.61116e-05
1.61139e-05
1.61163e-05
1.61196e-05
1.61221e-05
1.61099e-05
1.61122e-05
1.61145e-05
1.61177e-05
1.61201e-05
1.61083e-05
1.61105e-05
1.61127e-05
1.61157e-05
1.6118e-05
1.61047e-05
1.61067e-05
1.61088e-05
1.6111e-05
1.61138e-05
1.61161e-05
1.61031e-05
1.61051e-05
1.61072e-05
1.61093e-05
1.61121e-05
1.61143e-05
1.61013e-05
1.61033e-05
1.61055e-05
1.61076e-05
1.61103e-05
1.61125e-05
1.60995e-05
1.61015e-05
1.61037e-05
1.61058e-05
1.61084e-05
1.61107e-05
1.60975e-05
1.60997e-05
1.61019e-05
1.6104e-05
1.61065e-05
1.61088e-05
1.60955e-05
1.60977e-05
1.60999e-05
1.61021e-05
1.61046e-05
1.61068e-05
1.60936e-05
1.60956e-05
1.60978e-05
1.61e-05
1.61026e-05
1.61048e-05
1.60918e-05
1.60936e-05
1.60957e-05
1.60979e-05
1.61005e-05
1.61028e-05
1.60902e-05
1.60918e-05
1.60937e-05
1.60958e-05
1.60982e-05
1.61006e-05
1.60877e-05
1.60888e-05
1.60902e-05
1.60919e-05
1.60937e-05
1.6096e-05
1.60983e-05
1.60868e-05
1.60877e-05
1.60888e-05
1.60902e-05
1.60918e-05
1.60939e-05
1.6096e-05
1.60862e-05
1.60869e-05
1.60878e-05
1.60888e-05
1.60902e-05
1.60919e-05
1.60939e-05
1.60859e-05
1.60863e-05
1.60869e-05
1.60877e-05
1.60887e-05
1.60902e-05
1.60919e-05
1.60857e-05
1.60859e-05
1.60863e-05
1.60869e-05
1.60876e-05
1.60887e-05
1.60901e-05
1.60856e-05
1.60857e-05
1.60859e-05
1.60863e-05
1.60867e-05
1.60875e-05
1.60885e-05
1.60857e-05
1.60857e-05
1.60858e-05
1.60859e-05
1.60862e-05
1.60867e-05
1.60874e-05
1.60858e-05
1.60858e-05
1.60857e-05
1.60858e-05
1.60858e-05
1.60859e-05
1.60863e-05
1.60867e-05
1.60858e-05
1.60858e-05
1.60858e-05
1.60858e-05
1.60858e-05
1.60859e-05
1.60861e-05
1.60863e-05
1.60856e-05
1.60857e-05
1.60857e-05
1.60857e-05
1.60858e-05
1.60859e-05
1.60861e-05
1.60862e-05
1.60853e-05
1.60854e-05
1.60855e-05
1.60857e-05
1.60858e-05
1.60859e-05
1.60861e-05
1.60862e-05
1.6085e-05
1.60852e-05
1.60853e-05
1.60855e-05
1.60856e-05
1.60858e-05
1.6086e-05
1.60862e-05
1.60848e-05
1.6085e-05
1.60853e-05
1.60855e-05
1.60858e-05
1.6086e-05
1.60862e-05
1.60864e-05
1.60843e-05
1.60848e-05
1.60852e-05
1.60856e-05
1.6086e-05
1.60864e-05
1.60866e-05
1.6087e-05
1.60828e-05
1.60833e-05
1.60838e-05
1.60844e-05
1.60849e-05
1.60855e-05
1.60861e-05
1.60865e-05
1.60871e-05
1.60818e-05
1.60822e-05
1.60827e-05
1.60832e-05
1.60838e-05
1.60844e-05
1.60851e-05
1.60857e-05
1.60864e-05
1.60809e-05
1.60812e-05
1.60817e-05
1.60821e-05
1.60827e-05
1.60832e-05
1.60839e-05
1.60845e-05
1.60853e-05
1.60798e-05
1.60802e-05
1.60806e-05
1.60811e-05
1.60816e-05
1.60822e-05
1.60828e-05
1.60834e-05
1.60841e-05
1.60786e-05
1.6079e-05
1.60794e-05
1.60798e-05
1.60803e-05
1.60809e-05
1.60815e-05
1.6082e-05
1.60828e-05
1.60771e-05
1.60775e-05
1.60779e-05
1.60784e-05
1.60789e-05
1.60794e-05
1.608e-05
1.60806e-05
1.60814e-05
1.60754e-05
1.60758e-05
1.60762e-05
1.60766e-05
1.6077e-05
1.60775e-05
1.60781e-05
1.60785e-05
1.60793e-05
1.60737e-05
1.60741e-05
1.60745e-05
1.6075e-05
1.60754e-05
1.60759e-05
1.60764e-05
1.60768e-05
1.60775e-05
1.60717e-05
1.6072e-05
1.60723e-05
1.60726e-05
1.60729e-05
1.60733e-05
1.60736e-05
1.60741e-05
1.60746e-05
1.607e-05
1.60703e-05
1.60706e-05
1.60709e-05
1.60712e-05
1.60716e-05
1.60719e-05
1.60723e-05
1.60726e-05
1.60731e-05
1.60696e-05
1.60698e-05
1.60701e-05
1.60705e-05
1.6071e-05
1.60714e-05
1.6072e-05
1.60726e-05
1.60734e-05
1.60742e-05
1.60722e-05
1.60722e-05
1.60723e-05
1.60725e-05
1.60727e-05
1.6073e-05
1.60734e-05
1.60738e-05
1.60741e-05
1.60747e-05
0.204672
0.417381
0.616113
0.766624
0.876545
0.961873
1.04105
1.13329
1.22504
1.29814
1.3422
1.35053
1.31795
1.24
1.11338
0.938094
0.721421
0.485552
0.269223
0.116889
0.0428584
0.013398
0.00292445
5.46165e-05
1.02002e-05
1e-05
1e-05
1e-05
1.00009e-05
1.04737e-05
1.36344e-05
1.60367e-05
1.6483e-05
1.63257e-05
1.61942e-05
1.61504e-05
1.61426e-05
1.61408e-05
1.61379e-05
1.61344e-05
1.61309e-05
1.61278e-05
1.61253e-05
1.6123e-05
1.61208e-05
1.61186e-05
1.61167e-05
1.61149e-05
1.61131e-05
1.61111e-05
1.61091e-05
1.6107e-05
1.61049e-05
1.61026e-05
1.61003e-05
1.60979e-05
1.60956e-05
1.60935e-05
1.60914e-05
1.60897e-05
1.60883e-05
1.60873e-05
1.60868e-05
1.60866e-05
1.60866e-05
1.60865e-05
1.60867e-05
1.60873e-05
1.60875e-05
1.6087e-05
1.6086e-05
1.60849e-05
1.60836e-05
1.60822e-05
1.608e-05
1.60782e-05
1.60752e-05
1.60737e-05
1.60745e-05
1.60754e-05
0.127711
0.303694
0.488262
0.641272
0.758545
0.847473
0.917884
0.980196
1.04446
1.12275
1.19092
1.23374
1.24121
1.20604
1.12258
0.987204
0.80058
0.572917
0.33381
0.14174
0.0470554
0.0138589
0.0028994
8.8628e-05
1.06353e-05
1e-05
1e-05
1e-05
1.00004e-05
1.0312e-05
1.32927e-05
1.5934e-05
1.65003e-05
1.63518e-05
1.62075e-05
1.61563e-05
1.61464e-05
1.61443e-05
1.61414e-05
1.61376e-05
1.6134e-05
1.61309e-05
1.61283e-05
1.61258e-05
1.61232e-05
1.61207e-05
1.61184e-05
1.61165e-05
1.61147e-05
1.61128e-05
1.61107e-05
1.61087e-05
1.61065e-05
1.61042e-05
1.61018e-05
1.60994e-05
1.6097e-05
1.60947e-05
1.60925e-05
1.60906e-05
1.6089e-05
1.60879e-05
1.60872e-05
1.6087e-05
1.60869e-05
1.60868e-05
1.60871e-05
1.60877e-05
1.6088e-05
1.60875e-05
1.60866e-05
1.60855e-05
1.60843e-05
1.60828e-05
1.60807e-05
1.60789e-05
1.60758e-05
1.60742e-05
1.60746e-05
0.0453723
0.168775
0.329912
0.482817
0.611416
0.713539
0.791968
0.852364
0.903328
0.954908
1.01617
1.07482
1.11298
1.11815
1.08128
0.995601
0.85688
0.665696
0.433388
0.202674
0.0620095
0.0151342
0.00300449
2.50629e-05
1.00439e-05
1e-05
1e-05
1e-05
1.00003e-05
1.01911e-05
1.28822e-05
1.57719e-05
1.65032e-05
1.63772e-05
1.6221e-05
1.61613e-05
1.61487e-05
1.61462e-05
1.61431e-05
1.61392e-05
1.61355e-05
1.61326e-05
1.61304e-05
1.61284e-05
1.61261e-05
1.61235e-05
1.61209e-05
1.61185e-05
1.61162e-05
1.61141e-05
1.61121e-05
1.61102e-05
1.61081e-05
1.61058e-05
1.61033e-05
1.61008e-05
1.60984e-05
1.6096e-05
1.60937e-05
1.60916e-05
1.60898e-05
1.60885e-05
1.60877e-05
1.60873e-05
1.60871e-05
1.60871e-05
1.60875e-05
1.60882e-05
1.60885e-05
1.60881e-05
1.60872e-05
1.60862e-05
1.6085e-05
1.60836e-05
1.60815e-05
1.60795e-05
1.60765e-05
1.60748e-05
0.00546219
0.0770632
0.20834
0.350649
0.479582
0.587568
0.673278
0.738676
0.788503
0.829982
0.872162
0.92338
0.973011
1.00438
1.00508
0.965739
0.878981
0.739868
0.547298
0.314132
0.114843
0.024236
0.00289254
0.000637374
1e-05
1e-05
1e-05
1e-05
1.00002e-05
1.01074e-05
1.2335e-05
1.55015e-05
1.64895e-05
1.64087e-05
1.62394e-05
1.61683e-05
1.6152e-05
1.6149e-05
1.61456e-05
1.6141e-05
1.61364e-05
1.61325e-05
1.61299e-05
1.61283e-05
1.61269e-05
1.61254e-05
1.61236e-05
1.61214e-05
1.61188e-05
1.61161e-05
1.61136e-05
1.61115e-05
1.61095e-05
1.61073e-05
1.61048e-05
1.61023e-05
1.60997e-05
1.60973e-05
1.60949e-05
1.60927e-05
1.60907e-05
1.60893e-05
1.60883e-05
1.60878e-05
1.60875e-05
1.60874e-05
1.60879e-05
1.60887e-05
1.6089e-05
1.60887e-05
1.60879e-05
1.60869e-05
1.60858e-05
1.60843e-05
1.60822e-05
1.60803e-05
1.60771e-05
0.00665523
0.0284112
0.125359
0.250964
0.373203
0.480414
0.568991
0.638566
0.691182
0.731264
0.76529
0.80132
0.846277
0.887758
0.911392
0.906105
0.862922
0.774382
0.634407
0.438663
0.216104
0.0612699
0.00703992
0.00158717
1e-05
1e-05
1e-05
1e-05
1.00001e-05
1.00519e-05
1.17448e-05
1.50905e-05
1.64454e-05
1.64526e-05
1.62704e-05
1.61834e-05
1.61616e-05
1.61577e-05
1.61543e-05
1.61494e-05
1.61437e-05
1.6138e-05
1.61327e-05
1.61285e-05
1.61257e-05
1.6124e-05
1.61231e-05
1.61224e-05
1.61211e-05
1.61189e-05
1.61161e-05
1.61133e-05
1.61109e-05
1.61086e-05
1.61063e-05
1.61037e-05
1.61012e-05
1.60986e-05
1.60962e-05
1.60938e-05
1.60917e-05
1.60901e-05
1.6089e-05
1.60883e-05
1.60879e-05
1.60879e-05
1.60884e-05
1.60892e-05
1.60895e-05
1.60893e-05
1.60886e-05
1.60877e-05
1.60865e-05
1.60851e-05
1.6083e-05
1.6081e-05
0.00115676
0.00495091
0.0664691
0.17187
0.284828
0.388688
0.477812
0.550279
0.606291
0.648122
0.680264
0.709028
0.74221
0.782615
0.816404
0.83174
0.819153
0.77049
0.678415
0.53416
0.335523
0.138626
0.0293615
0.00109055
0.000243499
1e-05
1e-05
1e-05
1e-05
1.00172e-05
1.11686e-05
1.45074e-05
1.6325e-05
1.64948e-05
1.63102e-05
1.62028e-05
1.61723e-05
1.61669e-05
1.6164e-05
1.61599e-05
1.61554e-05
1.61509e-05
1.6146e-05
1.61398e-05
1.61329e-05
1.61267e-05
1.61224e-05
1.61203e-05
1.61196e-05
1.61191e-05
1.6118e-05
1.61159e-05
1.61131e-05
1.61103e-05
1.61077e-05
1.61051e-05
1.61026e-05
1.61e-05
1.60975e-05
1.6095e-05
1.60928e-05
1.6091e-05
1.60897e-05
1.60889e-05
1.60884e-05
1.60884e-05
1.60889e-05
1.60897e-05
1.60901e-05
1.60899e-05
1.60893e-05
1.60884e-05
1.60873e-05
1.60859e-05
1e-05
0.00591963
0.0252207
0.101939
0.203154
0.303161
0.392798
0.468566
0.529157
0.574996
0.608542
0.634518
0.659818
0.69248
0.72831
0.754656
0.761431
0.740521
0.684797
0.58623
0.433128
0.238383
0.0801183
0.0121492
6.8538e-05
1.03854e-05
1e-05
1e-05
1e-05
1.00016e-05
1.06557e-05
1.37421e-05
1.60615e-05
1.64933e-05
1.63374e-05
1.62105e-05
1.61684e-05
1.61605e-05
1.61594e-05
1.61573e-05
1.6154e-05
1.61521e-05
1.61521e-05
1.61521e-05
1.61495e-05
1.61434e-05
1.61352e-05
1.61268e-05
1.61204e-05
1.6117e-05
1.61161e-05
1.6116e-05
1.6115e-05
1.61127e-05
1.61096e-05
1.61067e-05
1.6104e-05
1.61014e-05
1.60989e-05
1.60963e-05
1.6094e-05
1.60921e-05
1.60906e-05
1.60896e-05
1.60891e-05
1.6089e-05
1.60895e-05
1.60903e-05
1.60906e-05
1.60905e-05
1.609e-05
1.60892e-05
1e-05
0.000452833
0.00192142
0.0444259
0.126025
0.219389
0.308839
0.388207
0.454693
0.507072
0.545689
0.572945
0.593789
0.615766
0.646833
0.678113
0.697581
0.696108
0.66658
0.602422
0.493052
0.329999
0.152728
0.0406494
0.00482732
0.00111656
1e-05
1e-05
1e-05
1.00006e-05
1.02684e-05
1.28703e-05
1.5646e-05
1.64358e-05
1.63498e-05
1.62088e-05
1.6155e-05
1.61451e-05
1.61419e-05
1.61373e-05
1.61344e-05
1.61323e-05
1.61309e-05
1.61336e-05
1.61407e-05
1.61477e-05
1.615e-05
1.6146e-05
1.61372e-05
1.61266e-05
1.61179e-05
1.61138e-05
1.61132e-05
1.61132e-05
1.61116e-05
1.61088e-05
1.61057e-05
1.61029e-05
1.61003e-05
1.60977e-05
1.60953e-05
1.60932e-05
1.60916e-05
1.60905e-05
1.60899e-05
1.60897e-05
1.60902e-05
1.6091e-05
1.60913e-05
1.00003e-05
1e-05
0.00272417
0.0115879
0.0645264
0.14428
0.229416
0.310006
0.381423
0.441095
0.487634
0.521013
0.543215
0.559071
0.576368
0.602909
0.628639
0.641597
0.632667
0.595024
0.520768
0.397366
0.231716
0.0876648
0.0181052
0.00134951
0.000313468
1e-05
1e-05
1.00001e-05
1.00628e-05
1.19559e-05
1.51211e-05
1.63749e-05
1.6404e-05
1.62467e-05
1.6169e-05
1.6145e-05
1.61353e-05
1.61284e-05
1.61213e-05
1.61146e-05
1.61094e-05
1.61032e-05
1.61e-05
1.61059e-05
1.61201e-05
1.61363e-05
1.6146e-05
1.61454e-05
1.61361e-05
1.61237e-05
1.61146e-05
1.61112e-05
1.61108e-05
1.611e-05
1.61077e-05
1.61047e-05
1.61018e-05
1.60991e-05
1.60967e-05
1.60945e-05
1.60928e-05
1.60916e-05
1.60908e-05
1.60905e-05
1.00324e-05
1e-05
0.00027034
0.00114823
0.032588
0.093605
0.167872
0.244102
0.316043
0.380099
0.433854
0.475648
0.504869
0.522753
0.533436
0.544332
0.562834
0.581005
0.586976
0.571149
0.525617
0.439449
0.304241
0.151301
0.0466799
0.00727384
0.000366673
5.57723e-05
1e-05
1e-05
1.00005e-05
1.10078e-05
1.4414e-05
1.63124e-05
1.65431e-05
1.63639e-05
1.62433e-05
1.62074e-05
1.62074e-05
1.6208e-05
1.61944e-05
1.61727e-05
1.61498e-05
1.61321e-05
1.61124e-05
1.60892e-05
1.60767e-05
1.60817e-05
1.61021e-05
1.61257e-05
1.61408e-05
1.61422e-05
1.61322e-05
1.61192e-05
1.61112e-05
1.61088e-05
1.61081e-05
1.61064e-05
1.61037e-05
1.61008e-05
1.60982e-05
1.60959e-05
1.00014e-05
1e-05
0.00144499
0.00582714
0.0310741
0.0769389
0.136935
0.203103
0.26959
0.332526
0.389124
0.437092
0.474515
0.500197
0.514488
0.520386
0.524149
0.532407
0.540825
0.538367
0.514946
0.460204
0.361617
0.223806
0.0956924
0.0247171
0.00289075
0.00067781
1e-05
1e-05
1.00005e-05
1.02296e-05
1.3164e-05
1.59984e-05
1.66604e-05
1.6536e-05
1.63909e-05
1.63483e-05
1.63461e-05
1.63438e-05
1.6342e-05
1.6333e-05
1.63143e-05
1.62823e-05
1.62466e-05
1.62084e-05
1.61562e-05
1.61034e-05
1.60681e-05
1.6065e-05
1.6088e-05
1.61174e-05
1.61359e-05
1.61364e-05
1.61249e-05
1.61136e-05
1.61082e-05
1.57444e-05
0.000154515
0.0078301
0.0231075
0.0483097
0.0854637
0.133024
0.187365
0.244726
0.301971
0.356529
0.406131
0.448622
0.481986
0.504663
0.516254
0.518556
0.51627
0.515152
0.513262
0.500942
0.467786
0.401297
0.292372
0.161694
0.0606168
0.0133413
0.000933289
0.000218563
1e-05
1e-05
1e-05
1.11886e-05
1.48157e-05
1.63701e-05
1.65467e-05
1.64348e-05
1.63223e-05
1.6253e-05
1.62275e-05
1.62405e-05
1.62856e-05
1.63373e-05
1.636e-05
1.63584e-05
1.6356e-05
1.63433e-05
1.62894e-05
1.62062e-05
1.61213e-05
0.00028328
0.00848358
0.0237966
0.0435732
0.0686903
0.100483
0.139243
0.183888
0.232522
0.283012
0.333283
0.38135
0.425261
0.463056
0.492819
0.512927
0.522595
0.522752
0.516824
0.509581
0.499019
0.476664
0.431952
0.352248
0.236518
0.117634
0.0392964
0.00761948
0.000353438
5.34396e-05
1e-05
1.00002e-05
1.00961e-05
1.27617e-05
1.53972e-05
1.59675e-05
1.59407e-05
1.58482e-05
)
;

boundaryField
{
    inlet
    {
        type            calculated;
        value           nonuniform List<scalar> 
11
(
1.60722e-05
1.60722e-05
1.60723e-05
1.60725e-05
1.60727e-05
1.6073e-05
1.60734e-05
1.60738e-05
1.60741e-05
1.60747e-05
1.60754e-05
)
;
    }
    outlet
    {
        type            calculated;
        value           nonuniform List<scalar> 0();
    }
    walls
    {
        type            calculated;
        value           nonuniform List<scalar> 4(0.000186537 0.000712948 0.00130109 0.00114633);
    }
    frontAndBack
    {
        type            empty;
    }
    procBoundary6to2
    {
        type            processor;
        value           nonuniform List<scalar> 
13
(
0.0815037
0.0338017
0.00354543
0.00135559
1e-05
1e-05
1e-05
1.00001e-05
1.0079e-05
1.80593e-05
1.04239e-05
1e-05
4.59554e-05
)
;
    }
    procBoundary6to3
    {
        type            processor;
        value           uniform 0.0183935;
    }
    procBoundary6to5
    {
        type            processor;
        value           nonuniform List<scalar> 
86
(
0.0320883
0.154531
0.255993
0.324386
0.359312
0.357245
0.316101
0.241429
0.149641
0.0697073
0.0118841
0.00587933
0.00116581
2.59833e-05
1e-05
1e-05
1e-05
1e-05
1.00058e-05
1.0809e-05
1.6199e-05
2.06534e-05
2.01311e-05
1.76729e-05
1.59632e-05
1.54968e-05
1.57353e-05
1.60769e-05
1.62244e-05
1.62117e-05
1.61627e-05
1.61352e-05
1.61282e-05
1.61282e-05
1.61268e-05
1.6124e-05
1.61216e-05
1.61196e-05
1.61178e-05
1.6116e-05
1.61144e-05
1.61127e-05
1.61111e-05
1.61094e-05
1.61078e-05
1.61063e-05
1.61063e-05
1.61028e-05
1.61011e-05
1.60993e-05
1.60974e-05
1.60955e-05
1.60935e-05
1.60917e-05
1.60901e-05
1.60888e-05
1.60888e-05
1.60867e-05
1.60861e-05
1.60857e-05
1.60855e-05
1.60855e-05
1.60856e-05
1.60857e-05
1.60857e-05
1.60859e-05
1.60858e-05
1.60856e-05
1.60852e-05
1.60848e-05
1.60845e-05
1.60839e-05
1.60839e-05
1.60824e-05
1.60814e-05
1.60805e-05
1.60795e-05
1.60782e-05
1.60767e-05
1.6075e-05
1.60733e-05
1.60713e-05
1.60713e-05
1.60698e-05
1.60695e-05
1.60723e-05
)
;
    }
    procBoundary6to7
    {
        type            processor;
        value           nonuniform List<scalar> 
91
(
1.6076e-05
1.6076e-05
1.60747e-05
1.60747e-05
1.60753e-05
1.60753e-05
1.60778e-05
1.60838e-05
1.60778e-05
1.60817e-05
1.60881e-05
1.60838e-05
1.60866e-05
1.60911e-05
1.60907e-05
1.60881e-05
1.609e-05
1.60909e-05
1.60917e-05
1.60911e-05
1.60919e-05
1.60941e-05
1.60928e-05
1.6092e-05
1.60909e-05
1.60916e-05
1.61065e-05
1.6105e-05
1.61026e-05
1.60999e-05
1.60941e-05
1.60976e-05
1.60673e-05
1.60581e-05
1.60829e-05
1.61163e-05
1.61331e-05
1.61288e-05
1.61065e-05
1.61168e-05
1.57887e-05
1.57649e-05
1.57565e-05
1.57726e-05
1.58185e-05
1.59492e-05
1.61176e-05
1.62228e-05
1.62957e-05
1.63784e-05
1.64146e-05
1.60673e-05
1.63686e-05
0.046353
0.0651733
0.0820531
0.101799
0.126321
0.156644
0.192553
0.232905
0.276169
0.32069
0.364801
0.406842
0.445144
0.478026
0.503836
0.521127
0.52905
0.527944
0.520058
0.508321
0.488613
0.453515
0.393999
0.301568
0.184933
0.0822363
0.0243894
0.00405493
1.03691e-05
1.00034e-05
1e-05
1.00023e-05
1.07902e-05
1.42985e-05
1.54208e-05
1.54494e-05
1.57887e-05
1.54829e-05
)
;
    }
}


// ************************************************************************* //
