/*--------------------------------*- C++ -*----------------------------------*\
| =========                 |                                                 |
| \\      /  F ield         | OpenFOAM: The Open Source CFD Toolbox           |
|  \\    /   O peration     | Version:  2306                                  |
|   \\  /    A nd           | Website:  www.openfoam.com                      |
|    \\/     M anipulation  |                                                 |
\*---------------------------------------------------------------------------*/
FoamFile
{
    version     2.0;
    format      ascii;
    arch        "LSB;label=32;scalar=64";
    class       volSymmTensorField;
    location    "75";
    object      turbulenceProperties:devReff;
}
// * * * * * * * * * * * * * * * * * * * * * * * * * * * * * * * * * * * * * //

dimensions      [0 2 -2 0 0 0 0];

internalField   nonuniform List<symmTensor> 
1340
(
(-0.0205374 -0.233608 4.46977e-17 0.0226072 2.72998e-16 -0.00206986)
(0.345465 0.587115 -1.54102e-16 -0.348201 -2.25443e-16 0.00273612)
(0.890526 2.05317 4.92203e-16 -0.847157 -2.26132e-15 -0.0433681)
(0.480259 1.95079 1.1373e-15 -0.475519 6.36567e-15 -0.00473934)
(-0.030176 -1.15719 3.81891e-16 0.0590275 -1.7967e-15 -0.0288515)
(0.0348982 -1.15941 4.68304e-16 -0.0423593 1.02363e-15 0.0074611)
(-0.600834 -2.29993 1.66122e-16 0.476811 1.25979e-14 0.124023)
(-1.29393 -0.543362 -8.47408e-15 1.19033 -2.35374e-14 0.103604)
(0.00248762 -2.38356 -3.69244e-15 0.0181201 -1.63516e-15 -0.0206077)
(-0.293163 -3.22402 -1.04364e-16 0.317985 -8.97038e-17 -0.024823)
(-1.23543 -4.39022 -4.92506e-15 1.26086 -1.04808e-14 -0.0254273)
(-1.93673 -1.18568 1.09982e-14 1.86969 -4.73732e-15 0.0670379)
(0.0407431 -3.56527 1.92126e-15 -0.0305789 4.24279e-15 -0.0101642)
(-0.358497 -4.35756 -1.93302e-15 0.372822 -3.37266e-15 -0.0143247)
(-1.28276 -5.6068 3.94746e-15 1.33565 -6.19798e-15 -0.0528824)
(-2.07129 -2.15285 -6.63897e-15 2.00106 8.83129e-15 0.0702266)
(0.0729565 -4.77572 -1.10614e-15 -0.0620134 -4.3909e-17 -0.0109431)
(-0.386289 -5.31597 -8.77891e-16 0.387232 5.94877e-15 -0.000943539)
(-1.12468 -6.53809 -5.22398e-16 1.16158 9.9239e-15 -0.0368981)
(-1.91571 -3.56031 1.14051e-14 1.84353 -5.81204e-15 0.0721756)
(0.13807 -5.85508 5.49812e-15 -0.122145 -1.52415e-15 -0.0159248)
(-0.391537 -6.23105 7.20699e-15 0.394776 1.12844e-15 -0.0032385)
(-0.882294 -7.23765 -1.26129e-15 0.916681 3.44646e-16 -0.0343869)
(-1.60807 -5.33974 -2.40976e-15 1.52101 1.60796e-14 0.0870634)
(0.243194 -6.49108 -1.3992e-14 -0.224498 5.77989e-16 -0.0186968)
(-0.337491 -7.08093 -2.48652e-15 0.344833 -5.01134e-15 -0.0073427)
(-0.632008 -7.83098 -2.26522e-16 0.672338 -2.39303e-15 -0.0403301)
(-1.31391 -7.12672 -2.48364e-15 1.20976 2.39648e-15 0.104146)
(0.347536 -6.2896 1.55774e-14 -0.3298 1.10666e-15 -0.0177358)
(-0.223731 -7.73656 -6.18024e-15 0.232567 1.25043e-15 -0.00883628)
(-0.41283 -8.42573 -4.78722e-15 0.45372 4.50445e-15 -0.0408906)
(-1.10238 -8.6382 -2.59901e-16 0.987038 -1.11086e-14 0.115345)
(0.388451 -5.07966 -5.78831e-15 -0.375212 -1.11956e-15 -0.0132396)
(-0.0768674 -7.93327 6.31792e-15 0.0853928 5.42297e-16 -0.00852544)
(-0.227761 -8.97489 1.9345e-14 0.270837 8.51926e-16 -0.0430765)
(-0.964867 -9.78566 -6.31414e-15 0.83757 -1.32615e-14 0.127297)
(0.332235 -3.2326 2.62078e-15 -0.324742 5.22585e-16 -0.00749342)
(0.0618486 -7.37056 -7.07099e-15 -0.0548849 -6.11218e-17 -0.00696375)
(-0.0651928 -9.31753 -8.06074e-15 0.112831 -6.30278e-15 -0.0476385)
(-0.882973 -10.5933 -1.17496e-14 0.743756 1.22009e-14 0.139218)
(0.209703 -1.50035 1.3686e-15 -0.205902 4.14702e-17 -0.00380088)
(0.150499 -5.95995 9.48334e-15 -0.145885 1.58019e-15 -0.00461447)
(0.0778799 -9.20733 -2.38142e-15 -0.0277761 2.05789e-15 -0.0501038)
(-0.82386 -11.0649 5.07603e-15 0.676271 1.38207e-14 0.147589)
(0.0916369 -0.449298 1.08319e-15 -0.0895285 -2.43506e-16 -0.00210842)
(0.167321 -3.99753 6.44334e-15 -0.164839 -4.46898e-16 -0.00248245)
(0.19417 -8.39071 3.56037e-15 -0.145722 -1.02448e-15 -0.048448)
(-0.746493 -11.1049 1.9322e-14 0.597136 -1.38106e-14 0.149357)
(0.0212342 -0.0560049 -1.33343e-15 -0.0203757 5.49547e-17 -0.000858521)
(0.125698 -2.09404 2.34272e-16 -0.124468 -8.2952e-16 -0.00122991)
(0.267763 -6.79667 -1.23649e-14 -0.225324 -8.21352e-16 -0.0424381)
(-0.621446 -10.5541 -3.11466e-14 0.47604 4.83251e-15 0.145406)
(0.000468085 0.000103751 8.02444e-17 -0.000431426 2.13552e-18 -3.66588e-05)
(0.0641624 -0.769698 -4.46644e-15 -0.0634925 2.05958e-17 -0.00066997)
(0.284363 -4.67681 -4.2592e-15 -0.250521 2.59276e-15 -0.0338425)
(-0.443633 -9.2736 3.81371e-14 0.307809 -4.82874e-15 0.135824)
(0.00016221 0.00162527 -1.05916e-16 -0.000116351 -1.10867e-17 -4.58594e-05)
(0.0191345 -0.155405 1.09929e-15 -0.0187403 1.54981e-16 -0.000394207)
(0.243562 -2.57437 1.41524e-14 -0.219449 -7.86829e-16 -0.0241135)
(-0.237183 -7.29368 -4.51804e-14 0.11684 -4.651e-16 0.120344)
(-3.0994e-05 0.000191649 1.58296e-18 3.60503e-05 1.25673e-18 -5.05632e-06)
(0.00118395 -0.0034261 -2.43273e-17 -0.00110921 -1.48254e-17 -7.47342e-05)
(0.164626 -1.01794 -1.04334e-14 -0.149701 -8.41765e-16 -0.0149255)
(-0.0471432 -4.92476 9.89324e-15 -0.0511303 3.2365e-15 0.0982736)
(-8.35394e-07 7.71033e-07 6.9169e-20 9.37452e-07 2.62325e-21 -1.02058e-07)
(-0.000380068 0.00401723 -3.48107e-17 0.000401175 -2.79335e-18 -2.11072e-05)
(0.0841777 -0.235892 3.08788e-16 -0.0764527 7.07733e-16 -0.007725)
(0.0805356 -2.70152 -7.22007e-15 -0.151813 2.35928e-16 0.0712773)
(-3.52475e-07 -1.50297e-06 2.53198e-20 4.67113e-07 -1.53429e-20 -1.14638e-07)
(-0.000222743 0.00107915 -6.45713e-18 0.000221754 1.18351e-18 9.89409e-07)
(0.0286349 -0.00838181 1.64402e-15 -0.0257921 7.38995e-17 -0.00284284)
(0.125099 -1.13045 5.45781e-15 -0.169561 1.25325e-15 0.0444622)
(3.40735e-07 -2.15516e-06 -1.76024e-19 -2.23309e-07 -6.16332e-21 -1.17425e-07)
(-2.92258e-06 8.75991e-06 1.98652e-19 2.8833e-06 7.27532e-21 3.92815e-08)
(0.000638932 0.000870605 2.63178e-17 -0.000569405 -3.08437e-18 -6.95272e-05)
(0.102946 -0.327041 7.95854e-15 -0.125515 -7.38991e-16 0.0225689)
(9.10795e-07 -1.75264e-06 1.7185e-20 -8.03184e-07 1.13429e-20 -1.07611e-07)
(-1.00159e-06 2.01527e-06 -2.34985e-20 9.79318e-07 -1.15039e-20 2.22737e-08)
(0.001128 0.00244478 -1.92072e-17 -0.000997391 -8.81456e-18 -0.000130607)
(0.0589824 -0.05904 -3.75973e-16 -0.0681628 -3.84241e-16 0.00918037)
(1.26163e-06 -1.06571e-06 -6.36092e-21 -1.17076e-06 -7.31922e-21 -9.08751e-08)
(-3.49204e-07 7.54619e-07 -8.65342e-20 3.19289e-07 4.35308e-21 2.9915e-08)
(0.000356212 0.000786363 -3.25576e-17 -0.000315157 3.89026e-19 -4.10545e-05)
(0.0253211 -0.00438119 -6.59469e-16 -0.0283906 1.66477e-17 0.0030695)
(1.45569e-06 -5.22725e-07 -9.08678e-20 -1.38212e-06 8.27818e-21 -7.3574e-08)
(2.88522e-07 3.9898e-07 8.76646e-20 -3.25692e-07 2.40716e-21 3.71699e-08)
(0.000111123 0.000197996 3.06041e-18 -9.94018e-05 5.97249e-19 -1.17209e-05)
(0.00814086 0.000684926 -1.11777e-16 -0.00898146 3.11069e-17 0.000840602)
(1.75323e-06 -2.14184e-07 1.98924e-19 -1.68705e-06 1.1936e-20 -6.61759e-08)
(7.83663e-07 4.78393e-07 -8.74047e-20 -8.22951e-07 -4.42426e-21 3.92878e-08)
(2.08803e-05 2.71817e-05 -4.90246e-19 -1.8999e-05 -1.29324e-20 -1.8813e-06)
(0.00172912 0.000184292 5.89389e-17 -0.00188871 -1.21463e-18 0.000159591)
(2.77109e-06 1.26584e-08 -4.16587e-20 -2.68789e-06 -2.236e-20 -8.32059e-08)
(1.13098e-06 6.23294e-07 4.6803e-20 -1.16643e-06 -5.43865e-22 3.5453e-08)
(2.52678e-06 2.46996e-06 8.44986e-20 -2.33868e-06 -1.50974e-21 -1.88096e-07)
(8.91107e-06 5.08569e-07 -2.24097e-19 -9.64899e-06 -3.39585e-21 7.37918e-07)
(3.71146e-06 3.35531e-07 -6.03616e-20 -3.61992e-06 -5.26897e-21 -9.15356e-08)
(1.37525e-06 6.99097e-07 -1.19863e-19 -1.40365e-06 -3.14292e-21 2.83934e-08)
(2.51854e-06 1.99353e-06 -1.40331e-19 -2.36294e-06 1.47336e-21 -1.55605e-07)
(5.00553e-06 6.05975e-08 1.58099e-19 -5.36788e-06 6.85909e-22 3.62351e-07)
(3.66023e-06 5.88189e-07 -1.05632e-19 -3.58576e-06 5.02145e-21 -7.44793e-08)
(1.82311e-06 8.34741e-07 7.27866e-20 -1.84812e-06 1.88795e-20 2.50064e-08)
(2.49672e-06 1.67687e-06 2.12433e-19 -2.36715e-06 1.30831e-20 -1.29568e-07)
(4.46553e-06 -3.96034e-08 -1.55339e-19 -4.73796e-06 -2.95985e-21 2.72432e-07)
(3.29055e-06 7.26329e-07 9.62697e-20 -3.23681e-06 1.20044e-20 -5.37358e-08)
(3.01289e-06 1.24795e-06 3.12611e-19 -3.04102e-06 -1.69083e-21 2.81257e-08)
(2.45948e-06 1.41601e-06 1.29114e-20 -2.35208e-06 -7.27461e-21 -1.07399e-07)
(4.01934e-06 -5.60424e-08 8.30438e-20 -4.2187e-06 1.92289e-21 1.99362e-07)
(3.10015e-06 8.40747e-07 7.40629e-20 -3.06024e-06 -7.45118e-21 -3.99072e-08)
(3.59762e-06 1.38008e-06 -2.02531e-19 -3.62084e-06 -2.97936e-20 2.32195e-08)
(2.4688e-06 1.21489e-06 2.4357e-20 -2.37995e-06 -4.7635e-21 -8.8853e-08)
(3.639e-06 -5.64952e-08 -1.56084e-19 -3.78336e-06 -2.00577e-21 1.44355e-07)
(3.09026e-06 9.70174e-07 -1.30857e-19 -3.05849e-06 -1.94592e-21 -3.17721e-08)
(3.39374e-06 1.23745e-06 -1.25385e-19 -3.40756e-06 9.0589e-21 1.38139e-08)
(3.29978e-06 1.38804e-06 -1.88353e-19 -3.20421e-06 -4.1556e-21 -9.55743e-08)
(3.31209e-06 -6.4895e-08 1.01121e-19 -3.41746e-06 4.65071e-22 1.05376e-07)
(3.13016e-06 1.09743e-06 1.49401e-19 -3.10422e-06 5.09507e-21 -2.59453e-08)
(3.14561e-06 1.11143e-06 1.25575e-19 -3.15268e-06 2.74237e-21 7.07202e-09)
(4.01605e-06 1.45443e-06 1.13367e-19 -3.92537e-06 3.61424e-21 -9.06774e-08)
(3.35042e-06 -8.92611e-08 -2.48065e-19 -3.43791e-06 3.99326e-22 8.74842e-08)
(3.13008e-06 1.19802e-06 -1.79958e-19 -3.10938e-06 -1.19818e-20 -2.07041e-08)
(3.05129e-06 1.05897e-06 -1.8235e-19 -3.05413e-06 -8.53318e-21 2.83872e-09)
(3.87771e-06 1.22438e-06 -2.93347e-19 -3.81096e-06 -1.12657e-20 -6.67495e-08)
(3.9712e-06 -1.38173e-07 5.11731e-19 -4.0575e-06 1.80378e-20 8.62956e-08)
(3.07537e-06 1.26598e-06 8.94091e-20 -3.05924e-06 1.43236e-20 -1.61272e-08)
(3.02598e-06 1.04226e-06 1.23488e-19 -3.02664e-06 6.60872e-21 6.59845e-10)
(3.55617e-06 9.96538e-07 1.63599e-19 -3.51063e-06 1.88134e-20 -4.55402e-08)
(4.11062e-06 -1.71601e-07 -2.32186e-19 -4.18388e-06 -1.89232e-20 7.32533e-08)
(2.98485e-06 1.30792e-06 4.73059e-20 -2.97296e-06 -3.59248e-21 -1.1891e-08)
(2.98732e-06 1.03026e-06 -1.67506e-19 -2.98673e-06 -1.13288e-20 -5.86211e-10)
(3.31828e-06 8.4294e-07 6.25537e-20 -3.28694e-06 -1.01708e-20 -3.13398e-08)
(3.83783e-06 -1.76862e-07 9.80314e-20 -3.89146e-06 8.14551e-21 5.36288e-08)
(2.91011e-06 1.68576e-06 -1.8202e-19 -2.91138e-06 -8.67678e-22 1.27568e-09)
(2.87452e-06 1.33115e-06 -7.54933e-20 -2.86704e-06 -1.00625e-20 -7.482e-09)
(2.91204e-06 1.01473e-06 5.34609e-20 -2.91104e-06 1.55616e-20 -1.00471e-09)
(3.14283e-06 7.42755e-07 -2.58185e-19 -3.12085e-06 -9.32656e-21 -2.19777e-08)
(3.50258e-06 -1.65053e-07 -6.66869e-20 -3.53847e-06 -1.1624e-21 3.5881e-08)
(2.74029e-06 1.70364e-06 2.03444e-19 -2.74135e-06 1.90892e-20 1.05555e-09)
(2.74913e-06 1.34058e-06 -8.23109e-20 -2.74375e-06 7.8127e-22 -5.38193e-09)
(2.80617e-06 9.96435e-07 2.16045e-19 -2.80469e-06 8.27004e-21 -1.48192e-09)
(2.98288e-06 6.74067e-07 1.73235e-19 -2.96744e-06 1.62323e-20 -1.54378e-08)
(3.21106e-06 -1.42644e-07 1.98601e-19 -3.23313e-06 1.01586e-20 2.20756e-08)
(2.56734e-06 1.70099e-06 -5.03916e-20 -2.5671e-06 -1.01114e-20 -2.47562e-10)
(2.61164e-06 1.33714e-06 9.59251e-20 -2.60683e-06 8.56775e-21 -4.80626e-09)
(2.68031e-06 9.76723e-07 -5.77977e-20 -2.67787e-06 -1.35356e-20 -2.43789e-09)
(2.8195e-06 6.25866e-07 -5.00074e-21 -2.80866e-06 -6.98161e-21 -1.08318e-08)
(2.96008e-06 -1.13215e-07 -7.98618e-20 -2.97264e-06 -1.15529e-20 1.25529e-08)
(2.39425e-06 1.67979e-06 2.9463e-20 -2.39342e-06 8.19848e-22 -8.27499e-10)
(2.46568e-06 1.32185e-06 -1.28646e-20 -2.46162e-06 -2.91703e-21 -4.06072e-09)
(2.54208e-06 9.55726e-07 -1.43434e-19 -2.53893e-06 -3.31009e-21 -3.15467e-09)
(2.65208e-06 5.9174e-07 -9.2017e-20 -2.64469e-06 -8.20367e-21 -7.39605e-09)
(2.73551e-06 -7.86606e-08 -2.1004e-19 -2.74181e-06 -8.89418e-21 6.30346e-09)
(2.22293e-06 1.6432e-06 -9.49531e-20 -2.22189e-06 -4.22103e-21 -1.03854e-09)
(2.31418e-06 1.29718e-06 1.86789e-20 -2.31076e-06 -3.85335e-23 -3.42182e-09)
(2.39607e-06 9.33803e-07 1.42351e-19 -2.39269e-06 1.01095e-20 -3.37636e-09)
(2.4835e-06 5.68137e-07 -1.19702e-19 -2.47884e-06 -5.98969e-21 -4.65355e-09)
(2.52882e-06 -4.07744e-08 7.34049e-20 -2.53133e-06 7.44351e-21 2.507e-09)
(2.05477e-06 1.59377e-06 1.4098e-19 -2.05364e-06 1.58959e-20 -1.13533e-09)
(2.15974e-06 1.26405e-06 -3.47523e-20 -2.15699e-06 1.61621e-22 -2.74189e-09)
(2.24523e-06 9.10492e-07 -1.39808e-19 -2.24211e-06 -1.09714e-20 -3.11269e-09)
(2.3163e-06 5.52234e-07 -2.84619e-20 -2.31383e-06 5.47132e-21 -2.46337e-09)
(2.33702e-06 -7.50282e-10 -1.87651e-20 -2.33703e-06 -1.2139e-21 1.12048e-11)
(1.89152e-06 1.53377e-06 6.94994e-20 -1.89037e-06 -2.44219e-23 -1.14695e-09)
(2.00507e-06 1.22368e-06 9.5986e-20 -2.00296e-06 8.41876e-21 -2.11719e-09)
(2.09245e-06 8.85555e-07 1.1138e-19 -2.08967e-06 9.89795e-21 -2.77595e-09)
(2.15188e-06 5.41736e-07 2.63288e-19 -2.15092e-06 1.64911e-20 -9.64322e-10)
(2.15781e-06 4.0389e-08 9.0162e-20 -2.15596e-06 7.7487e-21 -1.84266e-09)
(1.73415e-06 1.46577e-06 -5.60869e-20 -1.733e-06 -8.10001e-21 -1.14638e-09)
(1.85218e-06 1.1773e-06 5.61541e-21 -1.85052e-06 -4.79548e-21 -1.65441e-09)
(1.94016e-06 8.58563e-07 -5.63856e-20 -1.93765e-06 -6.78759e-21 -2.50386e-09)
(1.99176e-06 5.3392e-07 -1.07088e-19 -1.99166e-06 -1.47293e-20 -9.92333e-11)
(1.99023e-06 8.04998e-08 6.23784e-20 -1.98682e-06 2.81578e-21 -3.41045e-09)
(1.58363e-06 1.39264e-06 -7.51082e-20 -1.58253e-06 -4.40879e-21 -1.09431e-09)
(1.70292e-06 1.12687e-06 -1.41892e-19 -1.7015e-06 -1.05668e-20 -1.41672e-09)
(1.79056e-06 8.29781e-07 -2.16458e-20 -1.78817e-06 1.03368e-21 -2.39326e-09)
(1.83716e-06 5.27112e-07 -8.78227e-20 -1.83748e-06 -4.78325e-21 3.25125e-10)
(1.83317e-06 1.18204e-07 -2.82703e-21 -1.8285e-06 -3.5118e-21 -4.6638e-09)
(1.44095e-06 1.31637e-06 8.19188e-21 -1.43995e-06 4.62873e-21 -1.00288e-09)
(1.55883e-06 1.07384e-06 6.95885e-20 -1.55761e-06 7.79839e-21 -1.21557e-09)
(1.64521e-06 7.99933e-07 9.09383e-20 -1.6429e-06 6.69987e-21 -2.30571e-09)
(1.689e-06 5.2046e-07 -1.07056e-20 -1.68952e-06 2.34158e-21 5.18518e-10)
(1.6861e-06 1.52187e-07 -1.53029e-19 -1.68058e-06 -9.4945e-21 -5.52433e-09)
(1.30672e-06 1.23834e-06 1.23427e-19 -1.30578e-06 1.16639e-20 -9.46591e-10)
(1.42132e-06 1.01918e-06 -5.20742e-20 -1.42016e-06 -7.06835e-21 -1.15876e-09)
(1.50566e-06 7.69149e-07 -7.4056e-20 -1.5034e-06 -8.51078e-21 -2.26506e-09)
(1.54796e-06 5.13626e-07 7.35945e-20 -1.54859e-06 4.59604e-21 6.27801e-10)
(1.54825e-06 1.82705e-07 1.54183e-19 -1.54218e-06 1.43372e-20 -6.06839e-09)
(1.18166e-06 1.15969e-06 -1.87734e-21 -1.18072e-06 -2.10338e-21 -9.47613e-10)
(1.29139e-06 9.63067e-07 -8.91216e-20 -1.29033e-06 -6.76111e-21 -1.06098e-09)
(1.37298e-06 7.3698e-07 -2.05212e-20 -1.3708e-06 -2.20021e-21 -2.17603e-09)
(1.41452e-06 5.05581e-07 -6.48924e-20 -1.41525e-06 -5.51854e-21 7.25544e-10)
(1.4193e-06 2.09227e-07 -7.0576e-21 -1.41298e-06 -4.65221e-21 -6.31859e-09)
(9.39015e-07 1.2354e-06 -7.40754e-22 -9.3892e-07 -5.06089e-22 -9.51463e-11)
(1.06561e-06 1.08166e-06 1.8088e-20 -1.06493e-06 1.42228e-21 -6.74211e-10)
(1.16968e-06 9.06438e-07 2.68845e-20 -1.16879e-06 3.90141e-21 -8.89051e-10)
(1.24816e-06 7.03429e-07 -1.03629e-19 -1.24611e-06 -7.2319e-21 -2.05204e-09)
(1.28919e-06 4.95497e-07 8.93535e-20 -1.28999e-06 8.50307e-21 8.00776e-10)
(1.29881e-06 2.31136e-07 -1.49576e-19 -1.29248e-06 -1.09032e-20 -6.33161e-09)
(8.41125e-07 1.14002e-06 -1.77679e-20 -8.41051e-07 -1.768e-21 -7.46593e-11)
(9.58653e-07 1.00542e-06 -2.51534e-20 -9.58009e-07 -3.42152e-21 -6.43976e-10)
(1.05639e-06 8.50283e-07 -2.83998e-20 -1.0556e-06 -3.64827e-21 -7.89482e-10)
(1.13128e-06 6.69047e-07 1.33398e-19 -1.12942e-06 1.45501e-20 -1.85972e-09)
(1.17205e-06 4.83188e-07 -9.95269e-21 -1.17294e-06 -3.33759e-21 8.90058e-10)
(1.18644e-06 2.48083e-07 1.2896e-19 -1.18024e-06 1.24844e-20 -6.20612e-09)
(7.52437e-07 1.04912e-06 1.7448e-20 -7.5232e-07 2.99829e-21 -1.17407e-10)
(8.60447e-07 9.31644e-07 -4.54551e-20 -8.59843e-07 -3.87769e-21 -6.0384e-10)
(9.51483e-07 7.94985e-07 1.00596e-21 -9.50835e-07 1.09608e-21 -6.48875e-10)
(1.02261e-06 6.34277e-07 5.92989e-20 -1.0209e-06 2.97681e-21 -1.70502e-09)
(1.06305e-06 4.69089e-07 -9.35807e-20 -1.06399e-06 -6.71942e-21 9.43439e-10)
(1.08177e-06 2.60549e-07 -5.55457e-20 -1.07575e-06 -5.94453e-21 -6.0223e-09)
(6.72345e-07 9.62812e-07 6.23848e-20 -6.72282e-07 5.39463e-21 -6.29271e-11)
(7.71061e-07 8.60693e-07 3.23873e-20 -7.70553e-07 3.72612e-21 -5.08463e-10)
(8.55172e-07 7.4114e-07 7.1368e-20 -8.54634e-07 6.43723e-21 -5.37997e-10)
(9.22175e-07 5.99492e-07 -7.86948e-20 -9.20627e-07 -7.27739e-21 -1.54762e-09)
(9.62033e-07 4.53525e-07 1.35017e-19 -9.63012e-07 1.35192e-20 9.79816e-10)
(9.84515e-07 2.69107e-07 6.02929e-20 -9.78675e-07 6.08573e-21 -5.84045e-09)
(6.00245e-07 8.81485e-07 -7.24552e-20 -6.0019e-07 -8.26668e-21 -5.5757e-11)
(6.89902e-07 7.93023e-07 -1.21181e-20 -6.89474e-07 -2.01284e-21 -4.28415e-10)
(7.67235e-07 6.88867e-07 -8.40288e-20 -7.66785e-07 -9.86215e-21 -4.5041e-10)
(8.3002e-07 5.64727e-07 9.59402e-20 -8.28606e-07 1.02361e-20 -1.41419e-09)
(8.68957e-07 4.36526e-07 9.31906e-21 -8.69936e-07 -7.62871e-22 9.78715e-10)
(8.94483e-07 2.74089e-07 -3.36068e-20 -8.88848e-07 -4.75316e-21 -5.63482e-09)
(5.35433e-07 8.05364e-07 2.92057e-20 -5.35374e-07 4.04072e-21 -5.89932e-11)
(6.1657e-07 7.28955e-07 -3.01954e-20 -6.16165e-07 -2.82715e-21 -4.05743e-10)
(6.8731e-07 6.38562e-07 -1.57498e-20 -6.869e-07 -3.21181e-22 -4.09913e-10)
(7.45842e-07 5.30166e-07 -1.02518e-20 -7.44557e-07 -2.09574e-21 -1.28494e-09)
(7.83626e-07 4.18054e-07 -3.57088e-20 -7.8463e-07 -3.17713e-21 1.0046e-09)
(8.11495e-07 2.75536e-07 -1.06836e-19 -8.06101e-07 -9.41091e-21 -5.39386e-09)
(4.77408e-07 7.34485e-07 -6.76223e-21 -4.77358e-07 4.21617e-22 -4.91455e-11)
(5.50464e-07 6.68692e-07 8.02227e-21 -5.50124e-07 1.14804e-21 -3.40148e-10)
(6.14918e-07 5.90508e-07 2.84364e-20 -6.14573e-07 3.17492e-21 -3.4584e-10)
(6.69283e-07 4.96184e-07 -7.93438e-21 -6.68123e-07 -1.14664e-21 -1.15934e-09)
(7.05714e-07 3.98485e-07 2.36628e-20 -7.06757e-07 1.75342e-21 1.04289e-09)
(7.35231e-07 2.73776e-07 8.61212e-20 -7.3012e-07 9.48816e-21 -5.1112e-09)
(4.25545e-07 6.68811e-07 1.38912e-19 -4.25499e-07 1.52985e-20 -4.63474e-11)
(4.91173e-07 6.12323e-07 8.52153e-21 -4.90835e-07 1.26934e-21 -3.38158e-10)
(5.49629e-07 5.44912e-07 5.63307e-21 -5.49305e-07 2.03402e-22 -3.24335e-10)
(5.99825e-07 4.631e-07 -5.07497e-20 -5.988e-07 -4.24857e-21 -1.02473e-09)
(6.34725e-07 3.78267e-07 -8.62024e-20 -6.3582e-07 -8.70089e-21 1.09442e-09)
(6.65315e-07 2.69398e-07 -1.53976e-20 -6.6051e-07 -1.95599e-21 -4.8053e-09)
(3.79434e-07 6.08105e-07 -4.38194e-20 -3.79373e-07 -5.93116e-21 -6.05589e-11)
(4.38135e-07 5.5968e-07 1.86281e-20 -4.37854e-07 1.80861e-21 -2.80995e-10)
(4.90965e-07 5.01722e-07 -2.11127e-20 -4.9072e-07 -2.87041e-21 -2.44838e-10)
(5.37139e-07 4.31013e-07 1.00174e-19 -5.36248e-07 1.05352e-20 -8.91107e-10)
(5.70316e-07 3.57683e-07 7.06633e-20 -5.71448e-07 8.08178e-21 1.13258e-09)
(6.01419e-07 2.62885e-07 7.57909e-20 -5.96916e-07 7.20487e-21 -4.50319e-09)
(2.82928e-07 5.85059e-07 3.44536e-20 -2.82969e-07 3.71265e-21 4.05944e-11)
(3.38341e-07 5.52148e-07 5.37341e-20 -3.38347e-07 6.90119e-21 5.54032e-12)
(3.90856e-07 5.10741e-07 -1.66963e-20 -3.9063e-07 -2.20592e-21 -2.26192e-10)
(4.38484e-07 4.61021e-07 -3.88733e-20 -4.38314e-07 -4.05145e-21 -1.69082e-10)
(4.80803e-07 4.00032e-07 -6.67071e-20 -4.8006e-07 -7.83577e-21 -7.43008e-10)
(5.12096e-07 3.36864e-07 -2.08012e-20 -5.13283e-07 -2.37726e-21 1.18663e-09)
(5.4321e-07 2.54521e-07 -1.28916e-19 -5.39021e-07 -1.43413e-20 -4.1891e-09)
(2.52712e-07 5.28713e-07 -5.14459e-20 -2.52676e-07 -6.16956e-21 -3.56189e-11)
(3.01926e-07 5.00751e-07 3.8709e-20 -3.01844e-07 3.56541e-21 -8.2654e-11)
(3.48692e-07 4.65363e-07 -4.58109e-20 -3.48497e-07 -5.11225e-21 -1.94246e-10)
(3.91523e-07 4.22741e-07 -1.05791e-20 -3.91449e-07 -4.12505e-22 -7.37505e-11)
(4.30253e-07 3.70253e-07 2.2324e-20 -4.2967e-07 2.20902e-21 -5.83051e-10)
(4.59647e-07 3.15963e-07 4.66052e-20 -4.60892e-07 5.54076e-21 1.24469e-09)
(4.90363e-07 2.44553e-07 -1.76394e-20 -4.86488e-07 -5.18981e-22 -3.87493e-09)
(2.2597e-07 4.77434e-07 3.80253e-20 -2.25808e-07 5.36865e-21 -1.61678e-10)
(2.69512e-07 4.53534e-07 -7.28878e-20 -2.69374e-07 -8.70729e-21 -1.38253e-10)
(3.11111e-07 4.23285e-07 -6.69739e-21 -3.10955e-07 -6.96842e-22 -1.5581e-10)
(3.49632e-07 3.86838e-07 9.64559e-20 -3.49623e-07 1.05811e-20 -8.89113e-12)
(3.84986e-07 3.41767e-07 -9.54289e-20 -3.84535e-07 -1.06835e-20 -4.512e-10)
(4.12442e-07 2.95211e-07 4.52878e-20 -4.13744e-07 4.95456e-21 1.30219e-09)
(4.42427e-07 2.33291e-07 5.67322e-20 -4.38864e-07 5.51125e-21 -3.56307e-09)
(2.02241e-07 4.30661e-07 6.1678e-20 -2.01991e-07 7.31274e-21 -2.49774e-10)
(2.40762e-07 4.10244e-07 6.8361e-22 -2.40584e-07 5.5389e-22 -1.77802e-10)
(2.7773e-07 3.84421e-07 7.63816e-21 -2.77592e-07 1.09673e-21 -1.37865e-10)
(3.12288e-07 3.53297e-07 -1.13109e-19 -3.12317e-07 -1.33625e-20 2.86224e-11)
(3.44482e-07 3.14651e-07 -3.7882e-21 -3.44133e-07 -4.48945e-22 -3.48265e-10)
(3.70006e-07 2.74789e-07 7.98966e-20 -3.71344e-07 9.25959e-21 1.33776e-09)
(3.99e-07 2.21081e-07 -1.57646e-19 -3.95722e-07 -1.78652e-20 -3.27844e-09)
(1.81179e-07 3.8811e-07 1.54397e-20 -1.80855e-07 1.60804e-21 -3.2353e-10)
(2.15207e-07 3.70652e-07 -2.07444e-20 -2.14983e-07 -2.20779e-21 -2.23764e-10)
(2.4805e-07 3.48618e-07 -1.17649e-20 -2.47895e-07 -1.55871e-21 -1.54642e-10)
(2.79041e-07 3.22079e-07 3.14426e-20 -2.79044e-07 4.5222e-21 3.01982e-12)
(3.08289e-07 2.88982e-07 -5.64757e-20 -3.07978e-07 -6.5557e-21 -3.11202e-10)
(3.31855e-07 2.54915e-07 6.21685e-20 -3.33186e-07 6.87637e-21 1.33101e-09)
(3.59641e-07 2.08262e-07 -2.74537e-20 -3.56602e-07 -2.48022e-21 -3.03885e-09)
(1.62438e-07 3.49474e-07 8.29985e-21 -1.62074e-07 6.79538e-22 -3.63974e-10)
(1.92551e-07 3.34504e-07 4.49461e-20 -1.92257e-07 5.52788e-21 -2.94334e-10)
(2.21733e-07 3.157e-07 -4.04933e-21 -2.21487e-07 -3.45802e-22 -2.46138e-10)
(2.49464e-07 2.93062e-07 2.65956e-20 -2.49383e-07 2.39246e-21 -8.0575e-11)
(2.75927e-07 2.64725e-07 -7.70296e-21 -2.75614e-07 -1.01807e-21 -3.12812e-10)
(2.97596e-07 2.35665e-07 6.21331e-20 -2.98905e-07 7.11629e-21 1.30884e-09)
(3.24017e-07 1.95072e-07 -6.75313e-20 -3.21186e-07 -7.48924e-21 -2.83151e-09)
(1.45868e-07 3.14303e-07 -2.94948e-20 -1.45489e-07 -3.89458e-21 -3.7839e-10)
(1.72471e-07 3.01476e-07 1.66127e-20 -1.72153e-07 1.81122e-21 -3.1807e-10)
(1.98381e-07 2.85387e-07 2.1593e-20 -1.98097e-07 2.59974e-21 -2.83986e-10)
(2.23185e-07 2.66017e-07 -1.06217e-19 -2.2305e-07 -1.25496e-20 -1.34303e-10)
(2.47084e-07 2.41772e-07 -7.49968e-20 -2.46778e-07 -8.99945e-21 -3.06565e-10)
(2.66888e-07 2.17041e-07 5.01434e-20 -2.6818e-07 5.45327e-21 1.29117e-09)
(2.91807e-07 1.81631e-07 -6.43453e-21 -2.89199e-07 -6.54645e-22 -2.60795e-09)
(1.07168e-07 2.90671e-07 3.12002e-21 -1.06807e-07 5.87957e-22 -3.60393e-10)
(1.31129e-07 2.82155e-07 -3.54495e-20 -1.30771e-07 -4.04386e-21 -3.57631e-10)
(1.54672e-07 2.71156e-07 2.45328e-20 -1.54332e-07 2.69145e-21 -3.4004e-10)
(1.77652e-07 2.57377e-07 -3.77017e-20 -1.77343e-07 -4.84027e-21 -3.0954e-10)
(1.99795e-07 2.40814e-07 2.56216e-21 -1.99609e-07 6.40241e-22 -1.86124e-10)
(2.21328e-07 2.20056e-07 -1.4588e-20 -2.21011e-07 -1.18009e-21 -3.16848e-10)
(2.39329e-07 1.99026e-07 9.58963e-21 -2.4057e-07 7.68038e-22 1.24023e-09)
(2.62665e-07 1.68019e-07 -3.19164e-20 -2.60235e-07 -3.35621e-21 -2.42929e-09)
(9.69608e-08 2.60125e-07 2.15056e-20 -9.66663e-08 2.68915e-21 -2.94484e-10)
(1.18129e-07 2.52768e-07 5.83635e-20 -1.17805e-07 7.37309e-21 -3.23778e-10)
(1.38923e-07 2.43289e-07 -4.9903e-20 -1.38606e-07 -6.09482e-21 -3.16746e-10)
(1.59275e-07 2.31456e-07 -5.41293e-20 -1.58983e-07 -6.21095e-21 -2.92473e-10)
(1.79015e-07 2.17264e-07 -1.9315e-20 -1.78817e-07 -2.61215e-21 -1.97916e-10)
(1.98363e-07 1.99488e-07 5.69909e-20 -1.98066e-07 6.9199e-21 -2.97586e-10)
(2.14636e-07 1.8161e-07 -4.34258e-20 -2.15834e-07 -5.31138e-21 1.19745e-09)
(2.36292e-07 1.54315e-07 7.7212e-20 -2.34048e-07 9.17267e-21 -2.2435e-09)
(8.77888e-08 2.32318e-07 1.92972e-20 -8.74944e-08 2.51056e-21 -2.94354e-10)
(1.06487e-07 2.25897e-07 -2.66791e-20 -1.06158e-07 -3.56969e-21 -3.29222e-10)
(1.24869e-07 2.17678e-07 -3.37854e-21 -1.24539e-07 -3.37072e-22 -3.29417e-10)
(1.42889e-07 2.07494e-07 6.61541e-20 -1.42577e-07 8.47328e-21 -3.11699e-10)
(1.60463e-07 1.95293e-07 -3.90076e-20 -1.60224e-07 -5.05571e-21 -2.39431e-10)
(1.77783e-07 1.8006e-07 -1.34555e-20 -1.77469e-07 -1.45994e-21 -3.1451e-10)
(1.92416e-07 1.64807e-07 -4.1616e-20 -1.9353e-07 -4.67195e-21 1.11368e-09)
(2.12316e-07 1.40546e-07 8.55934e-21 -2.10185e-07 7.34081e-22 -2.13066e-09)
(7.9571e-08 2.07179e-07 3.60368e-20 -7.93236e-08 4.33728e-21 -2.47424e-10)
(9.61335e-08 2.01498e-07 -1.82124e-20 -9.58456e-08 -2.15568e-21 -2.8792e-10)
(1.12412e-07 1.94322e-07 9.70137e-21 -1.1213e-07 1.07779e-21 -2.81461e-10)
(1.28375e-07 1.85499e-07 4.73148e-20 -1.28133e-07 5.90222e-21 -2.41414e-10)
(1.44017e-07 1.74967e-07 -1.51792e-19 -1.4385e-07 -1.84452e-20 -1.67183e-10)
(1.59475e-07 1.61859e-07 1.07514e-19 -1.59289e-07 1.2796e-20 -1.86643e-10)
(1.72559e-07 1.48808e-07 4.33226e-20 -1.73764e-07 5.37958e-21 1.2047e-09)
(1.90688e-07 1.27071e-07 9.94667e-21 -1.8885e-07 1.01163e-21 -1.83782e-09)
(7.1826e-08 1.84323e-07 -4.07082e-20 -7.14561e-08 -5.33319e-21 -3.69875e-10)
(8.64922e-08 1.79163e-07 3.1899e-21 -8.60533e-08 4.53668e-22 -4.38897e-10)
(1.00902e-07 1.72768e-07 -1.79197e-20 -1.00458e-07 -2.14422e-21 -4.44838e-10)
(1.15031e-07 1.65035e-07 4.109e-20 -1.14634e-07 4.8996e-21 -3.97165e-10)
(1.28888e-07 1.55854e-07 2.76154e-20 -1.28583e-07 3.81293e-21 -3.04948e-10)
(1.4261e-07 1.44494e-07 -1.78988e-20 -1.42347e-07 -2.17944e-21 -2.63741e-10)
(1.5425e-07 1.3325e-07 -1.97755e-20 -1.55307e-07 -2.58389e-21 1.05653e-09)
(1.70616e-07 1.13436e-07 -3.24038e-20 -1.68811e-07 -3.81755e-21 -1.80472e-09)
(6.49523e-08 1.66038e-07 -2.53495e-20 -6.46686e-08 -3.13973e-21 -2.83711e-10)
(7.80754e-08 1.61465e-07 2.77825e-21 -7.76677e-08 4.26252e-22 -4.07729e-10)
(9.09856e-08 1.55862e-07 6.19468e-20 -9.05307e-08 7.57877e-21 -4.54889e-10)
(1.03631e-07 1.49148e-07 -1.5248e-22 -1.03214e-07 2.69426e-23 -4.16876e-10)
(1.16021e-07 1.41192e-07 -4.75321e-20 -1.15715e-07 -5.99053e-21 -3.0569e-10)
(1.28264e-07 1.31418e-07 9.70684e-20 -1.28056e-07 1.19945e-20 -2.08288e-10)
(1.38661e-07 1.217e-07 -1.83618e-20 -1.39682e-07 -2.35882e-21 1.02096e-09)
(1.53465e-07 1.03296e-07 6.07335e-20 -1.51763e-07 7.53731e-21 -1.70162e-09)
(6.04925e-08 1.50683e-07 -4.92648e-20 -6.02335e-08 -6.13942e-21 -2.59061e-10)
(7.23235e-08 1.46613e-07 5.29432e-20 -7.18919e-08 6.66898e-21 -4.31589e-10)
(8.39759e-08 1.41708e-07 -8.69926e-20 -8.34602e-08 -1.11332e-20 -5.157e-10)
(9.53287e-08 1.35909e-07 2.22148e-20 -9.48741e-08 2.78769e-21 -4.54511e-10)
(1.06468e-07 1.29083e-07 2.82517e-20 -1.06151e-07 3.57822e-21 -3.16343e-10)
(1.17418e-07 1.20721e-07 2.50697e-20 -1.17291e-07 2.6486e-21 -1.26267e-10)
(1.26563e-07 1.12345e-07 -7.83868e-20 -1.27694e-07 -9.27079e-21 1.13106e-09)
(1.39878e-07 9.53301e-08 4.10249e-20 -1.38443e-07 4.60527e-21 -1.43519e-09)
(4.57577e-08 1.38708e-07 1.00546e-20 -4.57395e-08 1.31714e-21 -1.81681e-11)
(5.65142e-08 1.35548e-07 2.78207e-20 -5.62974e-08 3.69257e-21 -2.1682e-10)
(6.72448e-08 1.31515e-07 -1.09147e-20 -6.67697e-08 -1.36091e-21 -4.7513e-10)
(7.78037e-08 1.26819e-07 -1.72445e-20 -7.71324e-08 -2.06021e-21 -6.71292e-10)
(8.80257e-08 1.21521e-07 4.60024e-20 -8.73224e-08 5.67871e-21 -7.0327e-10)
(9.79601e-08 1.15471e-07 -2.78515e-20 -9.73541e-08 -3.47457e-21 -6.05945e-10)
(1.07618e-07 1.0826e-07 -9.30295e-20 -1.07249e-07 -1.15835e-20 -3.69118e-10)
(1.15529e-07 1.01089e-07 1.07806e-19 -1.16399e-07 1.35349e-20 8.69935e-10)
(1.27222e-07 8.54934e-08 -5.89846e-20 -1.25619e-07 -7.44732e-21 -1.60334e-09)
(4.23456e-08 1.257e-07 2.83271e-21 -4.25892e-08 3.36191e-22 2.4368e-10)
(5.21356e-08 1.22375e-07 -8.50257e-21 -5.22299e-08 -1.33926e-21 9.42509e-11)
(6.19824e-08 1.1819e-07 6.13536e-20 -6.17983e-08 7.76013e-21 -1.84122e-10)
(7.1743e-08 1.13394e-07 -3.3709e-20 -7.12633e-08 -4.13338e-21 -4.79674e-10)
(8.11213e-08 1.0815e-07 -2.38092e-20 -8.05193e-08 -3.1732e-21 -6.01976e-10)
(9.01132e-08 1.02354e-07 -1.12475e-20 -8.95897e-08 -1.34123e-21 -5.23566e-10)
(9.86553e-08 9.57914e-08 7.88926e-20 -9.84706e-08 1.00005e-20 -1.84741e-10)
(1.05492e-07 8.94841e-08 -2.69105e-20 -1.06697e-07 -3.07723e-21 1.20491e-09)
(1.15561e-07 7.48989e-08 -5.30241e-20 -1.14676e-07 -6.87601e-21 -8.85792e-10)
(3.81908e-08 1.13759e-07 -7.02769e-22 -3.8248e-08 -8.14956e-23 5.71643e-11)
(4.68408e-08 1.10512e-07 -5.57519e-20 -4.674e-08 -7.21663e-21 -1.00831e-10)
(5.56739e-08 1.06423e-07 -4.80219e-20 -5.5217e-08 -6.11308e-21 -4.56901e-10)
(6.45557e-08 1.01713e-07 1.69614e-20 -6.36457e-08 2.23903e-21 -9.10079e-10)
(7.30915e-08 9.65863e-08 -1.30748e-20 -7.18924e-08 -1.74008e-21 -1.19909e-09)
(8.12199e-08 9.10208e-08 3.21064e-20 -7.99714e-08 4.27524e-21 -1.24844e-09)
(8.88431e-08 8.48979e-08 -6.42726e-20 -8.78781e-08 -8.70461e-21 -9.64966e-10)
(9.49074e-08 7.90306e-08 1.9927e-19 -9.52181e-08 2.53724e-20 3.10755e-10)
(1.03759e-07 6.46941e-08 -9.9057e-20 -1.02039e-07 -1.24321e-20 -1.71963e-09)
(3.48847e-08 1.02993e-07 -1.00273e-21 -3.56026e-08 -5.68729e-23 7.17893e-10)
(4.2598e-08 9.99684e-08 -5.21867e-20 -4.33e-08 -6.61593e-21 7.02027e-10)
(5.05854e-08 9.61067e-08 1.09527e-19 -5.10045e-08 1.4016e-20 4.1901e-10)
(5.87184e-08 9.15725e-08 6.92473e-21 -5.86754e-08 9.04045e-22 -4.30164e-11)
(6.65366e-08 8.65981e-08 -6.29529e-20 -6.61478e-08 -7.79051e-21 -3.88765e-10)
(7.38994e-08 8.12318e-08 7.33142e-20 -7.3404e-08 9.12924e-21 -4.95317e-10)
(8.06084e-08 7.55615e-08 -1.39956e-19 -8.04512e-08 -1.77559e-20 -1.57239e-10)
(8.5739e-08 7.03907e-08 1.285e-19 -8.70035e-08 1.5863e-20 1.26453e-09)
(9.34005e-08 5.71159e-08 -1.51408e-19 -9.30873e-08 -1.86849e-20 -3.13168e-10)
(2.99599e-08 9.08168e-08 1.31687e-20 -2.94278e-08 1.70042e-21 -5.32182e-10)
(3.64062e-08 8.80508e-08 3.69698e-20 -3.58071e-08 4.9309e-21 -5.99148e-10)
(4.32078e-08 8.45649e-08 -5.25042e-20 -4.22654e-08 -6.959e-21 -9.42392e-10)