/*--------------------------------*- C++ -*----------------------------------*\
| =========                 |                                                 |
| \\      /  F ield         | OpenFOAM: The Open Source CFD Toolbox           |
|  \\    /   O peration     | Version:  2306                                  |
|   \\  /    A nd           | Website:  www.openfoam.com                      |
|    \\/     M anipulation  |                                                 |
\*---------------------------------------------------------------------------*/
FoamFile
{
    version     2.0;
    format      ascii;
    arch        "LSB;label=32;scalar=64";
    class       volScalarField;
    location    "75";
    object      turbulenceProperties:k;
}
// * * * * * * * * * * * * * * * * * * * * * * * * * * * * * * * * * * * * * //

dimensions      [0 2 -2 0 0 0 0];

internalField   nonuniform List<scalar> 
1340
(
0.781759
2.27229
7.43306
6.69353
3.86255
3.86673
7.89795
4.54858
7.94559
10.7952
15.2141
7.48173
11.8846
14.5761
19.1936
9.88352
15.9204
17.7664
22.1247
13.4247
19.5215
20.8111
24.3114
18.5523
21.6507
23.6302
26.1941
24.1306
20.9954
25.7994
28.1233
29.0093
16.9797
26.4453
29.9283
32.7628
10.8305
24.569
31.0604
35.4216
5.04869
19.8723
30.6923
36.9749
1.52769
13.3363
27.9755
37.0911
0.199144
6.99235
22.6712
35.2352
0.00154063
2.57433
15.6155
30.9445
0.00542421
0.521793
8.61652
24.3266
0.000636943
0.0120407
3.43401
16.423
0
0.0134374
0.831476
9.02025
0
0.00365197
0.0959581
3.80642
0
4.2763e-05
0.00352537
1.16016
8.29262e-09
0
0.00888139
0.292785
2.21289e-08
0
0.00283366
0.0919662
3.70781e-07
0
0.000734252
0.0289106
4.66211e-06
5.16582e-09
0.000122311
0.00609093
1.22003e-05
4.40456e-08
3.64541e-08
4.11786e-05
1.70698e-05
1.3391e-07
4.99979e-10
1.8003e-06
1.69645e-05
6.39198e-06
2.24061e-08
0
1.51075e-05
1.4914e-05
3.89475e-07
0
1.40522e-05
1.78727e-05
3.67022e-06
7.81981e-08
1.41245e-05
1.65553e-05
1.44968e-05
7.01377e-07
1.45748e-05
1.49296e-05
1.92174e-05
9.03098e-06
1.48088e-05
1.42679e-05
1.83207e-05
1.67517e-05
1.47224e-05
1.41335e-05
1.64526e-05
1.84227e-05
1.44297e-05
1.39875e-05
1.51396e-05
1.72596e-05
1.49072e-05
1.40286e-05
1.36662e-05
1.42622e-05
1.56729e-05
1.43019e-05
1.35457e-05
1.31983e-05
1.35181e-05
1.43095e-05
1.36474e-05
1.29938e-05
1.26401e-05
1.27782e-05
1.31608e-05
1.29589e-05
1.23902e-05
1.20303e-05
1.20289e-05
1.21452e-05
1.22471e-05
1.17496e-05
1.13898e-05
1.12821e-05
1.12165e-05
1.15202e-05
1.10836e-05
1.07303e-05
1.05482e-05
1.03586e-05
1.07878e-05
1.04043e-05
1.00627e-05
9.83196e-06
9.56114e-06
1.00581e-05
9.72103e-06
9.39598e-06
9.13774e-06
8.8199e-06
9.34123e-06
9.04468e-06
8.73943e-06
8.46998e-06
8.13027e-06
8.64476e-06
8.38416e-06
8.10076e-06
7.83234e-06
7.48985e-06
7.97372e-06
7.74624e-06
7.48634e-06
7.22775e-06
6.89476e-06
7.33281e-06
7.13476e-06
6.89935e-06
6.65699e-06
6.34296e-06
6.87336e-06
6.72492e-06
6.55377e-06
6.34322e-06
6.12065e-06
5.83132e-06
6.27503e-06
6.15251e-06
6.00567e-06
5.81881e-06
5.61821e-06
5.35688e-06
5.71808e-06
5.61637e-06
5.49105e-06
5.32733e-06
5.1494e-06
4.91678e-06
5.20095e-06
5.11741e-06
5.01155e-06
4.86927e-06
4.71345e-06
4.50918e-06
4.72294e-06
4.65473e-06
4.56623e-06
4.44417e-06
4.30953e-06
4.13255e-06
4.28279e-06
4.22773e-06
4.15445e-06
4.05072e-06
3.93606e-06
3.78509e-06
3.87917e-06
3.83515e-06
3.77514e-06
3.68795e-06
3.59169e-06
3.46471e-06
3.51019e-06
3.47567e-06
3.42703e-06
3.3543e-06
3.27467e-06
3.16958e-06
3.17377e-06
3.14703e-06
3.10821e-06
3.04835e-06
2.9836e-06
2.89808e-06
2.87751e-06
2.86732e-06
2.84749e-06
2.81713e-06
2.76847e-06
2.71674e-06
2.64851e-06
2.59457e-06
2.58893e-06
2.57455e-06
2.55126e-06
2.51257e-06
2.47229e-06
2.41915e-06
2.33853e-06
2.33572e-06
2.32576e-06
2.30877e-06
2.27877e-06
2.24834e-06
2.20806e-06
2.10631e-06
2.10588e-06
2.09962e-06
2.08785e-06
2.06525e-06
2.04317e-06
2.01369e-06
1.89607e-06
1.89738e-06
1.89417e-06
1.88681e-06
1.87044e-06
1.85523e-06
1.8345e-06
1.70593e-06
1.70854e-06
1.70777e-06
1.70388e-06
1.69253e-06
1.68308e-06
1.66936e-06
1.53379e-06
1.53743e-06
1.53848e-06
1.53723e-06
1.53009e-06
1.52534e-06
1.51707e-06
1.37136e-06
1.37723e-06
1.38176e-06
1.38425e-06
1.38513e-06
1.38137e-06
1.38031e-06
1.37612e-06
1.22889e-06
1.23501e-06
1.24006e-06
1.2436e-06
1.24613e-06
1.24511e-06
1.2469e-06
1.24547e-06
1.09935e-06
1.1054e-06
1.11072e-06
1.11505e-06
1.11876e-06
1.11984e-06
1.12361e-06
1.1235e-06
9.8241e-07
9.88185e-07
9.93632e-07
9.98486e-07
1.0031e-06
1.00575e-06
1.01092e-06
1.01126e-06
8.75554e-07
8.80411e-07
8.85335e-07
8.90168e-07
8.95006e-07
8.98454e-07
9.04285e-07
9.0389e-07
7.89138e-07
7.93674e-07
7.98545e-07
8.03584e-07
8.08682e-07
8.12736e-07
8.18582e-07
8.16016e-07
7.18668e-07
7.23381e-07
7.2872e-07
7.3443e-07
7.40397e-07
7.45434e-07
7.51204e-07
7.4692e-07
6.46627e-07
6.49991e-07
6.53482e-07
6.57956e-07
6.6345e-07
6.69579e-07
6.75291e-07
6.81164e-07
6.75806e-07
5.8739e-07
5.88968e-07
5.90649e-07
5.93503e-07
5.97752e-07
6.03006e-07
6.08522e-07
6.14556e-07
6.08108e-07
5.31272e-07
5.31286e-07
5.3126e-07
5.32294e-07
5.34705e-07
5.38306e-07
5.42546e-07
5.47331e-07
5.38264e-07
4.81917e-07
4.8169e-07
4.81239e-07
4.81526e-07
4.82954e-07
4.85447e-07
4.88893e-07
4.93365e-07
4.84118e-07
4.22983e-07
4.21301e-07
4.19492e-07
4.184e-07
4.18416e-07
4.19394e-07
4.21436e-07
4.23448e-07
4.10034e-07
3.88387e-07
3.87342e-07
3.859e-07
3.84822e-07
3.84562e-07
3.85143e-07
3.86967e-07
3.90001e-07
3.78735e-07
3.12331e-07
3.08407e-07
3.04485e-07
3.01044e-07
2.98531e-07
2.96778e-07
2.96421e-07
2.95398e-07
2.79249e-07
3.24082e-07
3.22585e-07
3.20655e-07
3.18567e-07
3.16822e-07
3.15509e-07
3.1544e-07
3.17058e-07
3.03451e-07
2.10977e-07
2.05022e-07
1.98415e-07
1.91434e-07
1.84888e-07
1.78984e-07
1.76177e-07
1.75894e-07
1.66382e-07
3.53571e-07
3.46421e-07
3.45712e-07
3.44618e-07
3.43175e-07
3.4168e-07
3.40267e-07
3.40979e-07
3.45035e-07
3.26105e-07
3.03948e-07
3.0168e-07
2.98153e-07
2.93576e-07
2.88619e-07
2.83872e-07
2.80804e-07
2.85354e-07
2.97601e-07
3.06216e-07
6.33112e-07
5.41167e-07
5.42604e-07
5.43126e-07
5.42182e-07
5.4157e-07
5.41107e-07
5.43531e-07
5.41055e-07
4.41638e-07
22.9441
44.6792
51.2973
46.254
35.261
21.7391
10.7474
13.9325
23.564
31.4857
36.6768
39.269
39.423
37.0849
32.1069
24.6898
15.9219
7.91789
2.72685
0.611626
0.11292
0.0244086
0.00482079
0.000103674
5.76851e-06
0
0
0
2.74303e-07
5.85524e-06
1.50698e-05
1.79128e-05
1.69749e-05
1.53009e-05
1.38342e-05
1.2625e-05
1.15771e-05
1.0636e-05
9.77824e-06
8.99274e-06
8.27367e-06
7.61572e-06
7.01435e-06
6.46189e-06
5.95431e-06
5.48672e-06
5.05515e-06
4.65549e-06
4.28535e-06
3.9428e-06
3.62647e-06
3.33402e-06
3.06377e-06
2.8139e-06
2.58307e-06
2.36965e-06
2.17197e-06
1.98846e-06
1.81792e-06
1.65942e-06
1.51204e-06
1.37425e-06
1.24549e-06
1.12392e-06
1.01152e-06
9.02882e-07
8.1114e-07
7.3842e-07
6.6503e-07
5.97423e-07
5.23095e-07
4.70494e-07
3.87424e-07
3.64371e-07
2.47664e-07
2.92758e-07
1.29359e-07
3.12909e-07
2.88303e-07
4.26748e-07
3.626
17.2589
31.9439
38.7523
37.9172
32.1389
23.8558
15.4824
11.1729
14.4541
20.206
24.9066
27.6457
28.1503
26.2801
22.0374
15.8551
8.98592
3.46356
0.763326
0.112614
0.0194259
0.00356197
0.000116974
8.2752e-06
0
0
0
1.6473e-07
4.07187e-06
1.237e-05
1.54123e-05
1.48258e-05
1.34388e-05
1.21993e-05
1.11838e-05
1.03026e-05
9.50697e-06
8.7751e-06
8.10114e-06
7.48183e-06
6.91553e-06
6.39831e-06
5.92314e-06
5.48532e-06
5.08041e-06
4.70474e-06
4.35489e-06
4.0289e-06
3.72528e-06
3.4432e-06
3.18084e-06
2.9368e-06
2.70966e-06
2.4984e-06
2.30169e-06
2.11821e-06
1.94666e-06
1.78606e-06
1.63561e-06
1.49473e-06
1.36198e-06
1.23708e-06
1.11828e-06
1.00786e-06
9.00772e-07
8.08819e-07
7.34633e-07
6.59705e-07
5.92412e-07
5.16121e-07
4.64181e-07
3.76966e-07
3.57674e-07
2.29792e-07
2.89169e-07
8.97921e-08
3.1375e-07
2.68938e-07
0.172396
3.35962
11.7805
20.8107
26.3505
27.4672
24.7164
19.1581
12.2492
6.90109
8.78349
14.0229
18.3486
20.8425
21.2463
19.4801
15.6637
10.3732
4.93645
1.30907
0.168473
0.0177519
0.00270666
3.22669e-05
1.68323e-06
0
0
0
1.04407e-07
2.54266e-06
9.26095e-06
1.22325e-05
1.20199e-05
1.10101e-05
1.00869e-05
9.33807e-06
8.68871e-06
8.0946e-06
7.53697e-06
7.01428e-06
6.52733e-06
6.07881e-06
5.66628e-06
5.28399e-06
4.92743e-06
4.59345e-06
4.2798e-06
3.98487e-06
3.70751e-06
3.44716e-06
3.20353e-06
2.97545e-06
2.76185e-06
2.56169e-06
2.37418e-06
2.19832e-06
2.03306e-06
1.87731e-06
1.73035e-06
1.59152e-06
1.46035e-06
1.33555e-06
1.21725e-06
1.10382e-06
9.97638e-07
8.94139e-07
8.03786e-07
7.29412e-07
6.54876e-07
5.89363e-07
5.1299e-07
4.62354e-07
3.7436e-07
3.56147e-07
2.27046e-07
2.87156e-07
8.43221e-08
3.08749e-07
0.00474942
0.354211
3.28888
9.01805
14.8609
18.6937
19.7125
17.9834
14.0794
8.95796
4.57225
5.83727
9.98314
13.3819
15.2977
15.4974
13.9187
10.7144
6.45025
2.43794
0.422478
0.0319345
0.00198815
0.000439036
0
0
0
0
6.38679e-08
1.52084e-06
6.62925e-06
9.52931e-06
9.64182e-06
8.93556e-06
8.25751e-06
7.71502e-06
7.24865e-06
6.81637e-06
6.40264e-06
6.00802e-06
5.63677e-06
5.29356e-06
4.97651e-06
4.67962e-06
4.39748e-06
4.12777e-06
3.87033e-06
3.62546e-06
3.39288e-06
3.17268e-06
2.96508e-06
2.76944e-06
2.58505e-06
2.41105e-06
2.24677e-06
2.09152e-06
1.9444e-06
1.80463e-06
1.67166e-06
1.54474e-06
1.42365e-06
1.3073e-06
1.1961e-06
1.08853e-06
9.8709e-07
8.87603e-07
7.9926e-07
7.25508e-07
6.52154e-07
5.88786e-07
5.13077e-07
4.63787e-07
3.76355e-07
3.58036e-07
2.31735e-07
2.87601e-07
9.46553e-08
0.00565688
0.00665615
0.771711
3.59441
7.74785
11.5878
13.958
14.3741
12.8616
9.80172
5.8763
2.71768
4.50621
7.79883
10.316
11.6152
11.5245
10.0139
7.25895
3.80086
1.07149
0.117547
0.00443719
0.000731337
0
0
0
0
3.55882e-08
8.3354e-07
4.5299e-06
7.30999e-06
7.74526e-06
7.30175e-06
6.80903e-06
6.41434e-06
6.07786e-06
5.76225e-06
5.45539e-06
5.15943e-06
4.88016e-06
4.6218e-06
4.38216e-06
4.1548e-06
3.93413e-06
3.71839e-06
3.50905e-06
3.30781e-06
3.11494e-06
2.93065e-06
2.75535e-06
2.58886e-06
2.43078e-06
2.28041e-06
2.13713e-06
2.00038e-06
1.86949e-06
1.74391e-06
1.62323e-06
1.50677e-06
1.39444e-06
1.28528e-06
1.18016e-06
1.07751e-06
9.80065e-07
8.83842e-07
7.97047e-07
7.23889e-07
6.5172e-07
5.90349e-07
5.15209e-07
4.67121e-07
3.80404e-07
3.62179e-07
2.38559e-07
2.91121e-07
0.00041884
0.00309301
0.138771
1.34078
3.90302
6.95397
9.49003
10.8483
10.7513
9.2453
6.63732
3.49304
1.71476
4.0527
6.56842
8.31693
9.0631
8.69646
7.22221
4.79664
2.06645
0.414866
0.0280682
0.000376224
8.26309e-05
0
0
0
1.57693e-08
3.65373e-07
2.84595e-06
5.36439e-06
6.09146e-06
5.90686e-06
5.57945e-06
5.30537e-06
5.07206e-06
4.85041e-06
4.63244e-06
4.421e-06
4.22118e-06
4.03456e-06
3.85782e-06
3.6847e-06
3.51162e-06
3.33952e-06
3.17147e-06
3.00939e-06
2.85325e-06
2.70288e-06
2.55857e-06
2.42025e-06
2.28766e-06
2.16016e-06
2.03724e-06
1.91836e-06
1.80292e-06
1.69081e-06
1.58153e-06
1.47472e-06
1.37024e-06
1.26755e-06
1.16767e-06
1.06911e-06
9.74919e-07
8.81223e-07
7.95469e-07
7.2284e-07
6.51666e-07
5.91948e-07
5.17114e-07
4.70034e-07
3.83773e-07
3.65941e-07
0
0.0027432
0.0107488
0.387684
1.75753
3.93367
6.21805
7.95519
8.71375
8.31147
6.80793
4.48264
1.8864
1.6949
3.9349
5.77847
6.89409
7.16893
6.56239
5.10355
2.96375
0.984844
0.134672
0.00578654
1.86228e-05
1.47384e-06
0
0
3.73162e-09
8.51751e-08
1.64397e-06
3.82117e-06
4.74748e-06
4.77801e-06
4.57966e-06
4.39003e-06
4.22783e-06
4.07503e-06
3.92639e-06
3.78286e-06
3.64674e-06
3.51715e-06
3.38997e-06
3.25896e-06
3.12213e-06
2.98322e-06
2.84809e-06
2.71934e-06
2.59615e-06
2.47722e-06
2.36245e-06
2.25178e-06
2.14477e-06
2.04044e-06
1.93814e-06
1.83726e-06
1.7377e-06
1.6391e-06
1.5415e-06
1.44438e-06
1.34781e-06
1.25154e-06
1.15671e-06
1.06209e-06
9.7085e-07
8.79336e-07
7.94495e-07
7.22343e-07
6.51961e-07
5.9363e-07
5.18829e-07
4.72462e-07
0
0.000131806
0.000829435
0.052586
0.581005
1.89458
3.6966
5.46496
6.73626
7.18994
6.6796
5.25229
3.16421
1.01644
1.91856
3.81126
5.16284
5.81188
5.7257
4.92957
3.46745
1.64958
0.395187
0.0362121
0.00132681
0.000237713
0
0
0
4.2513e-08
8.73984e-07
2.78944e-06
3.85201e-06
4.02871e-06
3.89823e-06
3.74073e-06
3.60619e-06
3.48677e-06
3.37536e-06
3.27068e-06
3.17206e-06
3.07599e-06
2.9788e-06
2.87725e-06
2.77039e-06
2.66061e-06
2.55315e-06
2.45168e-06
2.35602e-06
2.26408e-06
2.17512e-06
2.08912e-06
2.00581e-06
1.92359e-06
1.84116e-06
1.75785e-06
1.67355e-06
1.58841e-06
1.50243e-06
1.41491e-06
1.32642e-06
1.2366e-06
1.14698e-06
1.05626e-06
9.67975e-07
8.78644e-07
7.94714e-07
7.22969e-07
6.53346e-07
5.06762e-08
0
0.0013284
0.00407772
0.111632
0.703217
1.85684
3.30387
4.68157
5.66135
5.99163
5.53144
4.29171
2.47895
0.703845
1.87846
3.49272
4.54532
4.91037
4.5999
3.67304
2.23406
0.817976
0.13724
0.00914381
0.000310596
6.9553e-05
0
0
1.79739e-08
4.03526e-07
2.15847e-06
3.39707e-06
3.6736e-06
3.5486e-06
3.36697e-06
3.21309e-06
3.08768e-06
2.98215e-06
2.88987e-06
2.80272e-06
2.71524e-06
2.62585e-06
2.53566e-06
2.4481e-06
2.36567e-06
2.28842e-06
2.21537e-06
2.14528e-06
2.07728e-06
2.01105e-06
1.94619e-06
1.88249e-06
1.81902e-06
1.75396e-06
1.68634e-06
1.61576e-06
1.54268e-06
1.46688e-06
1.38826e-06
1.30701e-06
1.22324e-06
1.13831e-06
1.05132e-06
9.65818e-07
8.78618e-07
4.36136e-07
0
8.94533e-05
0.000459119
0.0159754
0.224124
0.808424
1.73893
2.83588
3.87559
4.63767
4.9275
4.6055
3.63975
2.16249
0.635611
1.54504
2.94731
3.8418
4.08213
3.67546
2.68582
1.36266
0.377763
0.0468476
0.00265495
8.61346e-05
1.58637e-05
0
1.72616e-09
3.77545e-08
1.58978e-06
3.15967e-06
3.58148e-06
3.44035e-06
3.1962e-06
2.98801e-06
2.83015e-06
2.71199e-06
2.61732e-06
2.52934e-06
2.4388e-06
2.34382e-06
2.25009e-06
2.16522e-06
2.09592e-06
2.04348e-06
2.00072e-06
1.95987e-06
1.91733e-06
1.87361e-06
1.82908e-06
1.78347e-06
1.73522e-06
1.68386e-06
1.62872e-06
1.56972e-06
1.5064e-06
1.4391e-06
1.36723e-06
1.29183e-06
1.21267e-06
9.79479e-08
5.96455e-09
0.000204888
0.00071085
0.013933
0.103963
0.375052
0.877881
1.57361
2.36294
3.1175
3.69538
3.95295
3.76647
3.0767
1.94697
0.667737
1.1145
2.30461
3.09146
3.29199
2.86752
1.89616
0.798791
0.175701
0.0182028
0.000952548
0.000169155
0
0
3.85951e-08
7.69667e-07
2.66115e-06
3.41568e-06
3.3375e-06
3.06228e-06
2.81203e-06
2.62228e-06
2.48161e-06
2.37517e-06
2.28834e-06
2.20662e-06
2.12375e-06
2.03882e-06
1.95764e-06
1.88946e-06
1.8409e-06
1.81233e-06
1.79422e-06
1.77704e-06
1.7568e-06
1.73316e-06
1.70605e-06
1.67335e-06
1.63392e-06
1.58843e-06
1.53807e-06
2.2459e-06
5.16244e-05
0.00372198
0.0115107
0.0282249
0.0803182
0.217341
0.484056
0.890659
1.40678
1.97205
2.5074
2.9218
3.11686
2.99893
2.50832
1.66652
0.657708
0.792854
1.75372
2.41786
2.5782
2.15471
1.27742
0.454857
0.0846067
0.00797388
0.000295511
5.40632e-05
0
3.95394e-10
8.27939e-09
1.51049e-06
2.79886e-06
2.955e-06
2.75027e-06
2.51207e-06
2.31103e-06
2.15734e-06
2.0446e-06
1.96127e-06
1.89866e-06
1.85235e-06
1.81692e-06
1.78621e-06
1.75439e-06
1.72071e-06
1.69156e-06
1.67531e-06
1.66924e-06
0.000176821
0.005561
0.0115905
0.0136744
0.0185022
0.0467795
0.130699
0.299856
0.567401
0.921672
1.32925
1.74306
2.10947
2.37099
2.4674
2.33962
1.94601
1.29611
0.526038
0.644199
1.39826
1.91733
2.00137
1.57027
0.825978
0.252214
0.0411713
0.00370054
0.00010125
1.47692e-05
0
1.94607e-08
3.73516e-07
1.78183e-06
2.24966e-06
2.14982e-06
1.96866e-06
1.81616e-06
)
;

boundaryField
{
    inlet
    {
        type            calculated;
        value           nonuniform List<scalar> 
11
(
2.49947e-06
2.35475e-06
2.39705e-06
2.43268e-06
2.46036e-06
2.4809e-06
2.4968e-06
2.50972e-06
2.52686e-06
2.38762e-06
2.46435e-06
)
;
    }
    outlet
    {
        type            calculated;
        value           nonuniform List<scalar> 0();
    }
    walls
    {
        type            calculated;
        value           uniform 0;
    }
    frontAndBack
    {
        type            empty;
    }
    procBoundary6to2
    {
        type            processor;
        value           nonuniform List<scalar> 
13
(
4.65117
0.241044
0.000891275
0.000444139
0
0
0
2.36905e-08
7.6451e-07
8.24163e-06
1.92123e-06
3.72083e-10
2.45002e-05
)
;
    }
    procBoundary6to3
    {
        type            processor;
        value           uniform 0.0128242;
    }
    procBoundary6to5
    {
        type            processor;
        value           nonuniform List<scalar> 
86
(
1.99132
7.21915
11.5309
15.6541
18.8609
19.6157
16.528
10.353
4.2587
0.957902
0.044148
0.0175326
0.00322769
3.48746e-05
0
0
1.52423e-08
4.78874e-08
7.57291e-07
7.82214e-06
2.03533e-05
2.57908e-05
2.43117e-05
2.04827e-05
1.76163e-05
1.66424e-05
1.6809e-05
1.71156e-05
1.70939e-05
1.67923e-05
1.63806e-05
1.59326e-05
1.54471e-05
1.54471e-05
1.61868e-05
1.53636e-05
1.45332e-05
1.36981e-05
1.28631e-05
1.20343e-05
1.12169e-05
1.04178e-05
9.64286e-06
8.89791e-06
8.18573e-06
7.51054e-06
7.51054e-06
6.99476e-06
6.37282e-06
5.79608e-06
5.26277e-06
4.77137e-06
4.32041e-06
3.90798e-06
3.53154e-06
3.18907e-06
3.18907e-06
2.88006e-06
2.59426e-06
2.33584e-06
2.1023e-06
1.89136e-06
1.70062e-06
1.52807e-06
1.52807e-06
1.36408e-06
1.22189e-06
1.09271e-06
9.76437e-07
8.70778e-07
7.846e-07
7.13885e-07
7.13885e-07
6.43134e-07
5.85609e-07
5.30809e-07
4.81627e-07
4.2406e-07
3.89284e-07
3.15273e-07
3.27103e-07
2.13125e-07
2.13125e-07
3.33182e-07
3.13105e-07
4.91655e-07
)
;
    }
    procBoundary6to7
    {
        type            processor;
        value           nonuniform List<scalar> 
91
(
4.35279e-07
4.35279e-07
2.56646e-07
2.56646e-07
3.04301e-07
3.04301e-07
1.05065e-07
2.44178e-07
1.05065e-07
2.94784e-07
3.86414e-07
2.44178e-07
3.68891e-07
5.96204e-07
5.21426e-07
3.86414e-07
4.75407e-07
7.9554e-07
7.24236e-07
5.96204e-07
6.55295e-07
1.13152e-06
1.0474e-06
9.64229e-07
7.9554e-07
8.78723e-07
1.48225e-06
1.4213e-06
1.35445e-06
1.28308e-06
1.13152e-06
1.20692e-06
1.66467e-06
1.65675e-06
1.64496e-06
1.62774e-06
1.60136e-06
1.56569e-06
1.48225e-06
1.52155e-06
1.70291e-06
1.61726e-06
1.54952e-06
1.49718e-06
1.46694e-06
1.47691e-06
1.52481e-06
1.58143e-06
1.62347e-06
1.64072e-06
1.63708e-06
1.66467e-06
1.62841e-06
0.0135348
0.0152359
0.0418737
0.0469529
0.0243381
0.0741589
0.224637
0.452169
0.743412
1.07059
1.39754
1.68641
1.90174
2.01133
1.98448
1.79249
1.41699
0.873777
0.311933
0.631893
1.2103
1.56038
1.52771
1.08567
0.49377
0.127104
0.0180265
0.00148658
1.24151e-06
9.40274e-08
0
4.87502e-08
7.48145e-07
1.49752e-06
1.483e-06
1.35386e-06
1.70291e-06
1.28151e-06
)
;
    }
}


// ************************************************************************* //
