/*--------------------------------*- C++ -*----------------------------------*\
| =========                 |                                                 |
| \\      /  F ield         | OpenFOAM: The Open Source CFD Toolbox           |
|  \\    /   O peration     | Version:  2306                                  |
|   \\  /    A nd           | Website:  www.openfoam.com                      |
|    \\/     M anipulation  |                                                 |
\*---------------------------------------------------------------------------*/
FoamFile
{
    version     2.0;
    format      ascii;
    arch        "LSB;label=32;scalar=64";
    class       volVectorField;
    location    "75";
    object      U;
}
// * * * * * * * * * * * * * * * * * * * * * * * * * * * * * * * * * * * * * //

dimensions      [0 1 -1 0 0 0 0];

internalField   nonuniform List<vector> 
1340
(
(0.842365 -0.038753 -5.93863e-16)
(-4.42351 0.99204 1.2525e-15)
(-9.32899 1.53806 2.12731e-14)
(-8.02523 1.2102 -3.81931e-14)
(2.46531 -0.128943 -3.37895e-15)
(-3.40087 1.19054 1.7948e-15)
(-6.88945 1.5177 -6.18879e-15)
(-7.20337 0.62033 -1.0002e-14)
(4.17888 -0.150912 5.10388e-15)
(-1.27634 1.07641 -2.15187e-15)
(-4.45402 1.15274 -3.36959e-15)
(-6.38082 0.0360049 1.34741e-14)
(6.05415 -0.137626 -9.61662e-16)
(0.811173 0.97508 2.57483e-15)
(-2.26477 0.846916 5.47092e-15)
(-5.48889 -0.396173 -6.0568e-15)
(8.23139 -0.116182 1.2159e-16)
(2.93483 0.896587 3.45125e-16)
(-0.158923 0.617795 -3.76847e-16)
(-4.46849 -0.704665 6.94854e-15)
(10.7904 -0.0878739 -9.43124e-16)
(5.18669 0.820598 -2.58436e-15)
(1.92987 0.448707 -3.48626e-16)
(-3.2346 -0.917316 -1.86491e-15)
(13.7593 -0.0401356 1.665e-15)
(7.63846 0.749953 5.80659e-16)
(4.04216 0.320485 -4.56425e-16)
(-1.71889 -1.06664 -1.17639e-15)
(17.0626 0.0392378 -1.67029e-15)
(10.3509 0.69444 8.4329e-16)
(6.2513 0.225636 1.05725e-15)
(0.0736754 -1.18064 -3.37084e-15)
(20.4652 0.15563 6.20375e-16)
(13.3462 0.661947 -6.74695e-16)
(8.62752 0.155548 -3.18288e-15)
(2.1139 -1.27381 2.62156e-15)
(23.5963 0.302821 -3.18504e-16)
(16.5641 0.657281 6.60555e-16)
(11.2237 0.104792 1.06765e-15)
(4.38475 -1.35553 3.47696e-15)
(26.0758 0.462707 -2.23906e-16)
(19.8306 0.680863 -9.1232e-16)
(14.0561 0.0715424 3.69438e-16)
(6.88745 -1.43173 -1.5375e-15)
(27.6707 0.60974 -3.88316e-16)
(22.8766 0.727679 -6.57226e-16)
(17.0747 0.0566084 -2.7649e-16)
(9.62126 -1.50486 -3.65986e-15)
(28.3917 0.721814 1.40861e-15)
(25.4083 0.787045 3.28059e-17)
(20.1411 0.0614334 1.11818e-15)
(12.561 -1.57202 4.10078e-15)
(28.4686 0.788752 -2.05621e-15)
(27.2081 0.845123 1.1432e-15)
(23.0356 0.0864992 4.51825e-16)
(15.6314 -1.62574 -4.71092e-15)
(28.2374 0.813906 1.63741e-15)
(28.2123 0.888412 -5.71036e-16)
(25.5023 0.129804 -2.07755e-15)
(18.6896 -1.6553 5.14923e-15)
(27.9871 0.809647 -1.33325e-16)
(28.5397 0.907307 5.58183e-17)
(27.325 0.187036 2.19231e-15)
(21.53 -1.64906 -1.56882e-15)
(27.863 0.792207 -3.9014e-16)
(28.4427 0.899233 2.31994e-16)
(28.4034 0.251061 -1.65092e-16)
(23.9214 -1.59734 8.81736e-16)
(27.8699 0.777729 -1.79199e-16)
(28.2009 0.869771 2.32997e-16)
(28.8064 0.313276 -1.78816e-15)
(25.6763 -1.49442 -1.48468e-15)
(27.9434 0.77641 1.08159e-15)
(28.0019 0.830016 -5.47338e-16)
(28.7479 0.367232 -1.06749e-15)
(26.7379 -1.3406 -3.26001e-15)
(28.021 0.79005 -9.99287e-17)
(27.9069 0.793493 1.29419e-16)
(28.4869 0.410186 3.94359e-16)
(27.2165 -1.14472 4.40536e-16)
(28.0734 0.815122 4.4296e-17)
(27.8898 0.771018 5.41747e-16)
(28.2183 0.444535 1.71618e-15)
(27.3282 -0.924484 1.38794e-15)
(28.0999 0.847789 6.43759e-16)
(27.9011 0.766635 -5.57531e-16)
(28.0216 0.476248 -4.62396e-16)
(27.2814 -0.698872 6.40089e-16)
(28.1103 0.885899 -1.27364e-15)
(27.9083 0.778662 5.58164e-16)
(27.8957 0.511189 3.79043e-16)
(27.2054 -0.482483 -1.28441e-15)
(28.1123 0.929008 1.86728e-16)
(27.9016 0.803629 -3.0322e-16)
(27.8107 0.552961 -5.36178e-16)
(27.1491 -0.281823 8.53678e-16)
(28.1088 0.977162 2.11188e-16)
(27.8843 0.838474 8.07046e-16)
(27.742 0.60245 8.7182e-16)
(27.1153 -0.0976916 -8.38372e-16)
(28.0994 1.03066 3.99557e-16)
(27.861 0.881712 -3.99617e-16)
(27.6787 0.659067 -1.30204e-15)
(27.0931 0.0717972 8.27867e-16)
(28.0837 1.0893 -4.03688e-16)
(27.8344 0.932475 -1.23316e-15)
(27.619 0.721917 -8.08794e-17)
(27.0739 0.228915 -4.22575e-16)
(28.0616 1.15297 -3.66265e-16)
(27.8052 0.990368 6.96232e-16)
(27.5633 0.790445 -1.33892e-16)
(27.0548 0.375807 7.60935e-16)
(28.0335 1.22102 6.36245e-16)
(27.7732 1.05454 4.90228e-16)
(27.5119 0.864245 8.25346e-16)
(27.0355 0.514453 -5.03281e-16)
(27.9996 1.29299 -7.27986e-16)
(27.7383 1.12427 -5.44485e-16)
(27.4643 0.942842 -4.01798e-16)
(27.0167 0.646427 1.01853e-15)
(27.9606 1.36825 8.83546e-16)
(27.7008 1.19867 8.11734e-16)
(27.4199 1.02567 1.04076e-15)
(26.9988 0.773048 -1.64675e-15)
(27.9168 1.4463 -4.28821e-16)
(27.6608 1.27707 -5.47954e-16)
(27.378 1.11195 -6.12031e-16)
(26.9818 0.894887 6.54241e-16)
(27.8687 1.52646 -2.37334e-16)
(27.6187 1.35867 7.35294e-16)
(27.3379 1.20095 -2.34056e-16)
(26.9653 1.0124 -2.814e-16)
(28.0355 1.77811 9.55907e-16)
(27.8169 1.60827 3.80196e-16)
(27.5744 1.44269 -2.40524e-16)
(27.2992 1.29175 9.72073e-16)
(26.9492 1.12578 1.98486e-16)
(27.9697 1.861 -1.0662e-15)
(27.7618 1.69109 3.9435e-16)
(27.5284 1.52844 -9.40042e-16)
(27.2613 1.38371 -6.61869e-16)
(26.933 1.23533 -5.64635e-16)
(27.9004 1.94248 2.6089e-16)
(27.7037 1.77407 -4.63927e-16)
(27.4806 1.61505 2.409e-16)
(27.2237 1.47605 1.60194e-18)
(26.9164 1.34132 2.22393e-16)
(27.8283 2.02222 -1.53985e-16)
(27.6432 1.85667 4.58366e-17)
(27.4313 1.70183 6.25049e-16)
(27.1861 1.56821 3.48122e-16)
(26.899 1.44411 6.29164e-16)
(27.7539 2.09999 4.77646e-16)
(27.5807 1.93841 -7.62203e-17)
(27.3807 1.78818 -6.27756e-16)
(27.1482 1.65962 4.3379e-16)
(26.8808 1.54383 -2.33054e-16)
(27.678 2.1755 -6.93891e-16)
(27.5166 2.0188 1.63892e-16)
(27.3289 1.87356 6.11886e-16)
(27.11 1.74984 9.799e-17)
(26.8615 1.64064 4.65292e-17)
(27.601 2.24852 -3.19287e-16)
(27.4513 2.09742 -4.24735e-16)
(27.2761 1.9575 -4.59442e-16)
(27.0711 1.83839 -9.9995e-16)
(26.8408 1.73449 -2.76426e-16)
(27.5235 2.31884 2.81793e-16)
(27.3853 2.17391 -2.2641e-17)
(27.2226 2.03954 2.33928e-16)
(27.0315 1.92488 4.09151e-16)
(26.8187 1.82535 -1.95213e-16)
(27.4461 2.3863 3.46284e-16)
(27.319 2.24792 6.44299e-16)
(27.1685 2.11927 8.76253e-17)
(26.9912 2.00894 3.19241e-16)
(26.795 1.91311 -4.23143e-18)
(27.3691 2.45076 -3.7912e-17)
(27.2526 2.31918 -3.01303e-16)
(27.1141 2.19637 -3.77845e-16)
(26.9504 2.09028 3.41646e-17)
(26.7699 1.99773 4.87472e-16)
(27.2928 2.51214 -5.62657e-16)
(27.1865 2.38749 2.20865e-16)
(27.0595 2.27057 3.04337e-16)
(26.9089 2.16868 -2.90854e-16)
(26.7433 2.07915 -4.84395e-16)
(27.2177 2.57038 1.86531e-17)
(27.1209 2.45269 3.81149e-16)
(27.0049 2.34168 8.04807e-17)
(26.8668 2.24397 2.41161e-16)
(26.7153 2.15735 2.11353e-17)
(27.2153 2.74015 3.35732e-18)
(27.1441 2.62552 -7.54411e-17)
(27.0562 2.51473 -1.22269e-16)
(26.9505 2.40958 4.04868e-16)
(26.8242 2.31605 -3.32442e-16)
(26.6859 2.23231 4.74646e-16)
(27.1364 2.78467 8.68176e-17)
(27.0721 2.67759 1.03354e-16)
(26.9925 2.57356 1.15899e-16)
(26.8964 2.47421 -5.28601e-16)
(26.7812 2.38485 3.30054e-17)
(26.6552 2.30403 -4.04334e-16)
(27.0599 2.82639 -6.62137e-17)
(27.0019 2.7266 1.83934e-16)
(26.93 2.62919 1.34818e-18)
(26.8429 2.53553 -2.23011e-16)
(26.7382 2.45035 3.23342e-16)
(26.6235 2.3725 1.63634e-16)
(26.9859 2.86548 -2.39007e-16)
(26.9337 2.77267 -1.28169e-16)
(26.8688 2.68165 -2.83591e-16)
(26.7901 2.59356 3.06895e-16)
(26.695 2.51253 -4.82102e-16)
(26.591 2.43772 -1.77179e-16)
(26.9146 2.90206 2.81502e-16)
(26.8677 2.8159 4.75775e-17)
(26.8092 2.73102 3.25013e-16)
(26.7381 2.64833 -3.5061e-16)
(26.6519 2.57143 -2.38157e-17)
(26.5576 2.49973 1.19207e-16)
(26.846 2.93627 -1.13098e-16)
(26.8038 2.85642 1.05365e-16)
(26.7511 2.77741 5.07877e-17)
(26.687 2.69994 3.68638e-17)
(26.609 2.62711 1.23486e-16)
(26.5237 2.55858 3.2626e-16)
(26.7801 2.96825 1.90829e-17)
(26.7421 2.89435 -2.64032e-17)
(26.6947 2.82093 -1.02305e-16)
(26.6369 2.74849 3.11645e-17)
(26.5664 2.67967 -9.08492e-17)
(26.4893 2.61435 -2.69201e-16)
(26.7168 2.99814 -4.88922e-16)
(26.6826 2.92983 -2.8445e-17)
(26.64 2.86171 -1.6894e-17)
(26.588 2.7941 1.84059e-16)
(26.5243 2.72922 2.96873e-16)
(26.4546 2.66714 4.76679e-17)
(26.6562 3.02609 1.49378e-16)
(26.6254 2.96301 -5.88022e-17)
(26.587 2.89989 7.59639e-17)
(26.5402 2.8369 -3.31779e-16)
(26.4827 2.77589 -2.39696e-16)
(26.4198 2.71705 -2.27916e-16)
(26.6199 3.10989 -1.08138e-16)
(26.5981 3.05224 -1.72353e-16)
(26.5704 2.99407 5.50408e-17)
(26.5358 2.93566 1.2341e-16)
(26.4937 2.87707 2.18504e-16)
(26.4418 2.81982 6.20355e-17)
(26.385 2.76421 3.76602e-16)
(26.5623 3.12977 1.63902e-16)
(26.5425 3.07674 -1.14558e-16)
(26.5175 3.02314 1.4833e-16)
(26.4864 2.96917 3.98606e-17)
(26.4484 2.91477 -6.42989e-17)
(26.4015 2.86115 -1.53083e-16)
(26.3504 2.80876 4.77949e-17)
(26.5073 3.14842 -1.19468e-16)
(26.4893 3.09968 2.24041e-16)
(26.4667 3.05037 1.95079e-17)
(26.4387 3.00057 -2.95233e-16)
(26.4045 2.95015 2.92251e-16)
(26.3621 2.90006 -1.45822e-16)
(26.316 2.85084 -1.59147e-16)
(26.4548 3.16596 -1.82112e-16)
(26.4385 3.12121 -4.21775e-18)
(26.418 3.07589 -2.58254e-17)
(26.3927 3.03003 3.37092e-16)
(26.3619 2.98338 7.57214e-18)
(26.3236 2.9367 -2.43169e-16)
(26.2819 2.8906 4.28837e-16)
(26.4047 3.18248 -4.03541e-17)
(26.3899 3.14144 5.53197e-17)
(26.3713 3.09985 3.40007e-17)
(26.3485 3.05766 -9.17148e-17)
(26.3206 3.0146 1.59473e-16)
(26.286 2.9712 -1.85662e-16)
(26.2484 2.92815 7.04025e-17)
(26.3569 3.19807 -1.81769e-17)
(26.3434 3.16046 -1.20732e-16)
(26.3266 3.12234 1.38178e-17)
(26.3059 3.08361 -6.89168e-17)
(26.2807 3.04394 2.62302e-17)
(26.2494 3.0037 -1.77668e-16)
(26.2154 2.96363 1.71236e-16)
(26.3114 3.21282 7.89538e-17)
(26.299 3.17839 -4.19465e-17)
(26.2837 3.14349 -5.53544e-17)
(26.265 3.10799 2.81754e-16)
(26.2421 3.07154 2.03659e-16)
(26.2138 3.03433 -1.37911e-16)
(26.1831 2.99716 1.49033e-17)
(26.277 3.25799 -1.06149e-17)
(26.268 3.22682 9.19547e-17)
(26.2567 3.19534 -6.27356e-17)
(26.2427 3.16345 9.67022e-17)
(26.2257 3.13097 -1.028e-17)
(26.205 3.09754 3.68366e-17)
(26.1792 3.06324 -2.36923e-17)
(26.1515 3.02889 7.27942e-17)
(26.2351 3.26865 -5.27375e-17)
(26.2268 3.24014 -1.38976e-16)
(26.2164 3.21138 1.15798e-16)
(26.2036 3.18228 1.27322e-16)
(26.1881 3.15262 4.03913e-17)
(26.1692 3.12205 -1.49571e-16)
(26.1458 3.09053 1.11053e-16)
(26.1207 3.0589 -1.79526e-16)
(26.1954 3.27893 -4.22324e-17)
(26.1877 3.25288 6.17094e-17)
(26.178 3.22666 6.4692e-18)
(26.1663 3.20015 -1.55639e-16)
(26.1522 3.17313 9.24416e-17)
(26.135 3.14524 2.88962e-17)
(26.1137 3.11635 9.29332e-17)
(26.0909 3.08734 -2.31746e-17)
(26.1579 3.28876 -7.60196e-17)
(26.1506 3.26501 4.06853e-17)
(26.1417 3.24115 -2.27917e-17)
(26.131 3.21705 -1.06741e-16)
(26.118 3.19249 3.40473e-16)
(26.1023 3.16711 -2.41551e-16)
(26.0829 3.14071 -1.03977e-16)
(26.0622 3.1142 -2.64533e-17)
(26.1223 3.29833 8.78947e-17)
(26.1156 3.27673 -5.53046e-18)
(26.1073 3.25508 3.63258e-17)
(26.0974 3.23324 -8.81148e-17)
(26.0855 3.21099 -6.32261e-17)
(26.0712 3.188 3.97057e-17)
(26.0535 3.16396 5.00242e-17)
(26.0347 3.13985 6.57087e-17)
(26.0888 3.30727 5.06845e-17)
(26.0826 3.28765 -6.39177e-18)
(26.075 3.26804 -1.21463e-16)
(26.0659 3.24831 -2.05334e-18)
(26.0551 3.2282 9.80712e-17)
(26.042 3.20742 -2.00392e-16)
(26.0259 3.1856 4.40251e-17)
(26.0089 3.16374 -1.19658e-16)
(26.0607 3.31479 8.98631e-17)
(26.0547 3.29679 -9.69759e-17)
(26.0474 3.27887 1.56709e-16)
(26.0388 3.26089 -4.15855e-17)
(26.0286 3.24262 -5.04243e-17)
(26.0163 3.22372 -4.33629e-17)
(26.0014 3.20381 1.57543e-16)
(25.9857 3.18395 -6.82469e-17)
(26.0432 3.33801 -1.85015e-17)
(26.0384 3.3211 -5.02751e-17)
(26.0324 3.30439 1.76767e-17)
(26.0253 3.28784 2.88848e-17)
(26.0169 3.2713 -8.11539e-17)
(26.0069 3.25453 5.01528e-17)
(25.9951 3.23722 1.69871e-16)
(25.9808 3.21893 -2.06382e-16)
(25.966 3.20075 9.4495e-17)
(26.0211 3.34333 -4.91795e-18)
(26.0164 3.32765 1.50628e-17)
(26.0107 3.31222 -1.05127e-16)
(26.0038 3.29701 5.73737e-17)
(25.9957 3.28188 3.86329e-17)
(25.9861 3.26659 1.88972e-17)
(25.9747 3.25085 -1.42249e-16)
(25.9611 3.23415 5.38327e-17)
(25.947 3.21759 8.33316e-17)
(25.9988 3.34883 1.01671e-18)
(25.9944 3.33443 9.21802e-17)
(25.989 3.32032 7.74727e-17)
(25.9825 3.30647 -2.88569e-17)
(25.9748 3.29277 1.99701e-17)
(25.9656 3.27897 -5.32365e-17)
(25.9549 3.26481 1.09422e-16)
(25.9419 3.24979 -3.5818e-16)
(25.9287 3.23494 1.58055e-16)
(25.9766 3.35394 -1.81239e-19)
(25.9725 3.34067 8.20955e-17)
(25.9675 3.32773 -1.72269e-16)
(25.9614 3.3151 -1.08851e-17)
(25.9541 3.30269 9.76727e-17)
(25.9455 3.29026 -1.17339e-16)
(25.9354 3.27759 2.28476e-16)
(25.9233 3.26409 -2.22874e-16)
(25.9111 3.25078 2.26667e-16)
(25.9542 3.36015 -2.16581e-17)
(25.9503 3.34823 -5.70266e-17)
(25.9456 3.33666 7.81274e-17)
(25.94 3.32542 4.83813e-17)
(25.9333 3.31443 -2.30615e-16)
(25.9254 3.3035 1.53862e-16)
(25.916 3.2924 1.36581e-16)
(25.9047 3.28064 -5.84031e-17)
(25.8932 3.26923 -7.59308e-17)
(25.9331 3.36341 -1.09989e-17)
(25.9295 3.35233 -1.90076e-17)
(25.9252 3.34163 4.69463e-17)
(25.9201 3.33133 -3.60778e-18)
(25.9139 3.32136 -6.30672e-17)
(25.9065 3.31153 -8.83807e-17)
(25.8979 3.30165 1.32937e-16)
(25.8877 3.2911 -1.67518e-17)
(25.8777 3.28083 2.58809e-17)
(25.9102 3.3732 1.96313e-17)
(25.907 3.36384 -1.65117e-17)
(25.9032 3.35483 -7.18774e-17)
(25.8986 3.34616 -1.52302e-17)
(25.8932 3.3378 1.16102e-17)
(25.8867 3.32957 1.35093e-17)
(25.8789 3.32137 2.1241e-17)
(25.8693 3.31282 -2.74732e-17)
(25.8593 3.30488 4.72394e-17)
(25.8934 3.36713 -1.10556e-17)
(25.8905 3.35773 -3.49926e-17)
(25.8871 3.34882 -1.68993e-17)
(25.8829 3.34041 3.67825e-17)
(25.8779 3.33245 1.22601e-17)
(25.872 3.32476 -5.42475e-18)
(25.8651 3.31722 7.15427e-17)
(25.8575 3.30904 -3.57225e-17)
(25.8503 3.30132 -5.19598e-17)
(25.8669 3.3943 9.65689e-17)
(25.8645 3.38775 -3.55831e-17)
(25.8619 3.38143 1.07941e-17)
(25.8588 3.37538 -1.1984e-16)
(25.855 3.36957 -3.2424e-17)
(25.8504 3.3639 1.24828e-16)
(25.8447 3.35838 8.41105e-17)
(25.8367 3.35294 -1.04181e-16)
(25.8278 3.34823 1.41941e-17)
(25.8647 3.35871 2.64576e-17)
(25.8631 3.34936 6.58039e-18)
(25.8608 3.34082 3.94271e-18)
(25.8581 3.33301 5.95427e-17)
(25.8548 3.32588 -7.19237e-17)
(25.851 3.31938 8.74927e-17)
(25.8468 3.3133 -1.11392e-17)
(25.8421 3.30753 -9.65697e-17)
(25.8383 3.30084 -3.69785e-17)
(25.8354 3.29514 1.0085e-17)
(25.8214 3.45168 4.41724e-18)
(25.8204 3.44855 3.08147e-18)
(25.8194 3.44494 -3.85116e-18)
(25.8185 3.44143 -3.58869e-17)
(25.8173 3.43812 -2.6695e-17)
(25.8158 3.43492 1.52032e-17)
(25.8136 3.43181 -1.69058e-17)
(25.8103 3.42886 -1.71034e-17)
(25.8036 3.42681 2.59292e-17)
(25.795 3.42468 4.82724e-17)
(25.8662 3.27425 -1.99686e-18)
(25.8644 3.26442 -3.86389e-17)
(25.8633 3.25561 1.73162e-17)
(25.8628 3.24772 9.8297e-17)
(25.8619 3.24075 -1.7865e-16)
(25.8604 3.23461 5.22999e-17)
(25.8588 3.22897 1.79178e-16)
(25.8579 3.22371 -1.7125e-16)
(25.86 3.21768 2.76826e-17)
(25.8649 3.21366 -5.123e-18)
(18.3828 3.74916 1.00574e-17)
(12.5057 2.72708 -3.76384e-18)
(7.51226 1.8644 2.6526e-18)
(3.62373 1.17538 -5.99375e-18)
(0.805781 0.572969 5.9426e-18)
(-0.930866 0.0624119 -8.98576e-18)
(-1.58486 -0.346277 -3.38583e-18)
(-1.24165 -0.655799 4.07759e-18)
(-0.0861194 -0.878326 6.47481e-18)
(1.6782 -1.02996 1.80039e-17)
(3.88275 -1.12183 -5.07225e-18)
(6.41294 -1.16195 1.75211e-17)
(9.19203 -1.15349 -3.51411e-18)
(12.1549 -1.09829 4.09743e-18)
(15.2164 -0.999999 -1.88742e-17)
(18.2396 -0.869493 1.78469e-17)
(21.0206 -0.727943 2.9859e-17)
(23.3071 -0.601341 -1.36116e-17)
(24.8839 -0.50392 -3.9915e-17)
(25.7225 -0.425035 1.33875e-17)
(26.0428 -0.344334 3.40526e-18)
(26.1314 -0.251549 -6.30524e-18)
(26.1646 -0.147467 -7.51422e-18)
(26.2069 -0.0345171 3.20163e-17)
(26.2643 0.0831081 -4.09427e-17)
(26.3258 0.203269 2.3098e-17)
(26.3819 0.324255 -3.43504e-17)
(26.4301 0.445511 2.45483e-19)
(26.4705 0.566404 -3.39176e-17)
(26.5049 0.686255 -4.17866e-17)
(26.5339 0.804328 -1.39034e-17)
(26.5585 0.91975 -1.69354e-18)
(26.5789 1.03179 6.49305e-18)
(26.5956 1.14018 8.19088e-19)
(26.6086 1.24484 2.90097e-17)
(26.6183 1.34608 8.85119e-19)
(26.6248 1.44417 1.79361e-18)
(26.6283 1.53931 -1.91544e-17)
(26.629 1.63163 -2.53511e-18)
(26.6268 1.72113 2.29344e-18)
(26.6217 1.80785 -2.78495e-17)
(26.6138 1.89172 -1.75744e-16)
(26.6034 1.97283 1.08548e-17)
(26.5905 2.05115 2.10446e-17)
(26.5752 2.12671 -1.24967e-17)
(26.5577 2.19951 -3.8084e-18)
(26.5381 2.26956 1.14351e-16)
(26.5167 2.33681 -2.15187e-17)
(26.4937 2.40127 1.93559e-17)
(26.4692 2.46291 1.47684e-17)
(26.4433 2.52176 -5.42799e-17)
(26.4163 2.57786 1.22042e-16)
(26.3885 2.63129 5.93158e-18)
(26.36 2.6821 -1.74927e-17)
(26.3308 2.7304 -1.02177e-16)
(26.3013 2.77627 7.80042e-17)
(26.2716 2.81984 5.64637e-19)
(26.2418 2.86122 -1.14796e-16)
(26.2121 2.9005 -1.03984e-17)
(26.1825 2.93778 3.44754e-17)
(26.1533 2.97318 -2.02538e-16)
(26.1246 3.00682 4.97238e-17)
(26.0963 3.03874 -1.32581e-19)
(26.0689 3.06912 2.25965e-18)
(26.0423 3.09787 -1.49413e-16)
(26.0167 3.12541 7.46456e-17)
(25.9927 3.1511 -2.41436e-20)
(25.9709 3.17282 3.29774e-18)
(25.9523 3.19088 3.36847e-19)
(25.9344 3.209 -2.07131e-16)
(25.917 3.22779 -5.0723e-17)
(25.9005 3.24472 1.99769e-17)
(25.8833 3.26494 5.20993e-17)
(25.8693 3.27704 -1.06613e-19)
(25.851 3.30355 -4.79258e-20)
(25.8444 3.29917 3.15755e-19)
(25.8211 3.3497 3.59976e-17)
(25.8323 3.29429 2.50293e-18)
(25.7903 3.42778 -2.49627e-17)
(25.866 3.21684 2.36495e-20)
(23.8987 3.99112 -1.65905e-18)
(21.4837 3.69417 -5.55699e-19)
(17.9588 3.27258 4.95081e-18)
(14.3263 2.77913 -8.32041e-19)
(11.0969 2.2307 2.35675e-18)
(8.50163 1.66552 2.94975e-18)
(6.65638 1.1215 5.4704e-19)
(5.61983 0.627037 2.04715e-18)
(5.39747 0.201197 -1.50377e-17)
(5.92388 -0.143658 -9.88037e-18)
(7.0697 -0.406419 3.18613e-18)
(8.69608 -0.593982 1.66153e-18)
(10.6895 -0.71117 -4.62523e-18)
(12.9574 -0.760737 2.81032e-19)
(15.4116 -0.743323 -1.17758e-18)
(17.9438 -0.659819 1.15906e-18)
(20.4002 -0.517785 2.39013e-18)
(22.568 -0.340336 -1.5082e-18)
(24.2003 -0.164489 -6.32079e-18)
(25.1333 -0.0176527 -1.00497e-17)
(25.4869 0.100959 -1.15409e-17)
(25.5806 0.203593 3.13233e-18)
(25.6216 0.297803 -3.68703e-18)
(25.6777 0.387798 1.39116e-17)
(25.7543 0.474133 -1.84259e-17)
(25.8388 0.558725 8.34955e-18)
(25.921 0.642568 -9.58294e-18)
(25.9966 0.727462 -8.55791e-18)
(26.0653 0.814037 -1.33245e-17)
(26.1276 0.902207 -2.67579e-17)
(26.1839 0.991241 -9.60292e-18)
(26.2342 1.08029 1.546e-17)
(26.2787 1.1685 -3.51406e-17)
(26.3177 1.25569 6.33611e-19)
(26.3513 1.34162 2.57988e-17)
(26.3799 1.42649 1.85714e-17)
(26.4039 1.51026 -1.54875e-17)
(26.4235 1.59284 -2.75721e-17)
(26.439 1.67409 -2.19499e-18)
(26.4506 1.75377 5.62944e-17)
(26.4583 1.83177 -6.03431e-18)
(26.4623 1.90794 1.56172e-16)
(26.463 1.98226 1.00336e-17)
(26.4605 2.05466 3.52582e-17)
(26.455 2.12512 -1.19062e-17)
(26.4467 2.19357 -6.21307e-17)
(26.4358 2.25997 -1.03262e-16)
(26.4225 2.32421 -2.14013e-17)
(26.4071 2.38624 1.62781e-17)
(26.3898 2.44596 2.43108e-17)
(26.3706 2.50338 2.93439e-17)
(26.3499 2.55849 3.11112e-17)
(26.3278 2.6113 2.94584e-17)
(26.3046 2.66185 -6.71779e-18)
(26.2805 2.71018 -2.04481e-18)
(26.2555 2.75637 -1.61786e-16)
(26.23 2.80048 6.32937e-19)
(26.204 2.8426 9.55975e-17)
(26.1779 2.88278 4.41659e-18)
(26.1516 2.92109 -3.65555e-17)
(26.1254 2.95763 1.2417e-16)
(26.0993 2.9925 -9.58839e-17)
(26.0736 3.02572 1.8922e-16)
(26.0484 3.05744 2.76159e-18)
(26.024 3.08752 -4.22761e-17)
(26.0003 3.1164 1.59822e-18)
(25.9781 3.14339 -3.05171e-20)
(25.9577 3.16617 4.21033e-18)
(25.9403 3.18513 4.26241e-19)
(25.9237 3.20411 1.26753e-16)
(25.9074 3.22391 4.97955e-17)
(25.8922 3.24153 -2.01167e-17)
(25.8759 3.263 -5.2571e-17)
(25.863 3.27539 -4.9779e-17)
(25.8458 3.30355 -3.76221e-17)
(25.8398 3.29877 2.91844e-17)
(25.8183 3.35142 -3.62696e-17)
(25.8284 3.29511 -1.86206e-18)
(25.7907 3.43003 4.17213e-19)
(24.581 3.47222 -2.62576e-18)
(24.0905 3.4183 -2.99643e-19)
(22.4961 3.26541 1.15372e-18)
(20.1396 3.0219 -2.75317e-18)
(17.4963 2.70717 -7.90963e-18)
(14.9163 2.34352 -1.28281e-19)
(12.6427 1.95663 -3.66785e-18)
(10.8584 1.57269 -1.01567e-18)
(9.7038 1.21499 -1.75965e-18)
(9.26183 0.901302 1.38395e-17)
(9.52787 0.643289 -4.49133e-18)
(10.4074 0.44436 2.1455e-18)
(11.7712 0.301819 4.29523e-18)
(13.4989 0.212211 5.1073e-19)
(15.4859 0.172687 2.6344e-18)
(17.6306 0.180535 -1.25531e-17)
(19.8127 0.232319 3.09593e-18)
(21.8695 0.319966 9.92347e-18)
(23.5848 0.424127 3.02418e-17)
(24.7188 0.518171 1.29434e-17)
(25.2053 0.592054 2.31168e-17)
(25.3324 0.654193 4.66469e-18)
(25.3774 0.713632 -1.48818e-17)
(25.4332 0.774018 -4.53759e-17)
(25.5089 0.834084 3.25043e-17)
(25.5935 0.894292 1.39485e-17)
(25.6771 0.954792 5.03735e-18)
(25.7552 1.01669 8.43178e-18)
(25.8277 1.08022 -1.63053e-17)
(25.8949 1.145 8.35046e-18)
(25.9571 1.21032 -4.76781e-18)
(26.0141 1.27573 3.12081e-18)
(26.066 1.34103 1.18425e-18)
(26.1127 1.40657 3.88773e-19)
(26.1546 1.47249 1.22835e-17)
(26.1918 1.5391 -1.71864e-17)
(26.2246 1.6063 2.11312e-17)
(26.253 1.67393 -7.7846e-19)
(26.2773 1.74168 -1.6689e-18)
(26.2975 1.80923 -5.21894e-17)
(26.3137 1.87635 -2.94113e-17)
(26.326 1.94282 -1.13013e-16)
(26.3348 2.00857 8.39303e-18)
(26.3401 2.07343 2.47447e-17)
(26.3422 2.13733 7.0461e-18)
(26.3413 2.20011 -8.32454e-18)
(26.3375 2.26163 8.33349e-17)
(26.3311 2.32173 -1.92246e-17)
(26.3222 2.38026 2.09612e-17)
(26.3111 2.43712 -1.60538e-17)
(26.2979 2.49222 -1.17246e-17)
(26.2828 2.54551 -9.47131e-18)
(26.2661 2.59697 3.71215e-18)
(26.2479 2.64658 -9.50144e-17)
(26.2284 2.69434 -5.54377e-17)
(26.2078 2.7403 1.40857e-16)
(26.1863 2.78447 6.19818e-19)
(26.1641 2.8269 -1.88588e-16)
(26.1414 2.86761 -9.87745e-18)
(26.1184 2.90664 3.88522e-17)
(26.0952 2.94406 3.17774e-19)
(26.0719 2.97993 4.5373e-17)
(26.0488 3.01424 -3.17989e-16)
(26.0261 3.04714 -6.4912e-17)
(26.0039 3.07842 1.75573e-16)
(25.9823 3.10852 2.86998e-17)
(25.962 3.13671 1.0883e-17)
(25.9432 3.16047 4.65273e-18)
(25.9272 3.18027 4.7643e-19)
(25.912 3.20005 7.13541e-17)
(25.897 3.22077 1.45543e-16)
(25.8831 3.23901 -1.14138e-19)
(25.8682 3.2616 -5.29619e-17)
(25.8563 3.27428 8.75429e-17)
(25.8406 3.30391 3.74927e-17)
(25.8349 3.29888 1.10376e-16)
(25.8159 3.35331 1.1199e-17)
(25.8243 3.29648 -7.7075e-17)
(24.6389 3.02771 3.06673e-18)
(24.6886 3.02421 3.69604e-19)
(24.1739 2.98737 -9.21845e-18)
(22.9309 2.89343 3.07085e-18)
(21.1519 2.74124 2.8012e-18)
(19.1072 2.5367 1.42198e-19)
(17.0406 2.29208 2.7483e-18)
(15.159 2.02412 -3.94715e-19)
(13.6388 1.75128 1.88474e-18)
(12.6239 1.49172 -1.33752e-17)
(12.2063 1.26124 4.37459e-18)
(12.3998 1.07184 -2.04001e-18)
(13.1372 0.929277 8.27002e-18)
(14.312 0.833857 -9.52394e-18)
(15.8162 0.784366 -2.93941e-18)
(17.5487 0.778782 -9.77022e-18)
(19.4064 0.813495 -1.72397e-18)
(21.2657 0.881494 -2.06197e-18)
(22.963 0.968441 -2.72689e-17)
(24.279 1.04897 -1.32797e-17)
(24.9996 1.10131 -1.12695e-17)
(25.2257 1.12819 -3.24571e-17)
(25.2771 1.14646 3.16189e-17)
(25.3234 1.16726 -4.82987e-19)
(25.3918 1.19195 9.26089e-19)
(25.4713 1.22077 -1.00778e-17)
(25.5509 1.25343 -2.13915e-17)
(25.6257 1.29001 3.11768e-18)
(25.6949 1.32999 2.49576e-17)
(25.759 1.37241 -2.67384e-17)
(25.8185 1.41637 5.62022e-18)
(25.8735 1.46145 -1.05418e-18)
(25.9241 1.5077 -4.41255e-18)
(25.9704 1.55549 3.0388e-19)
(26.0128 1.60497 9.48994e-18)
(26.0514 1.65627 -5.66586e-18)
(26.0864 1.70919 -7.13889e-19)
(26.1179 1.76347 -1.30683e-17)
(26.1457 1.81874 -1.49036e-17)
(26.17 1.87469 1.13449e-18)
(26.1907 1.9311 9.1182e-18)
(26.2079 1.98778 2.07531e-17)
(26.2217 2.04468 6.8893e-18)
(26.2323 2.10164 9.38899e-18)
(26.2399 2.15853 -1.19288e-17)
(26.2445 2.21512 2.19252e-17)
(26.2463 2.27118 -8.0937e-18)
(26.2453 2.32651 -1.69873e-17)
(26.2419 2.38093 1.58352e-17)
(26.2361 2.43429 4.02099e-17)
(26.228 2.48647 -2.59648e-17)
(26.2178 2.53738 -8.70058e-18)
(26.2057 2.58694 -3.39955e-17)
(26.192 2.63512 8.24076e-17)
(26.1767 2.68187 5.14839e-17)
(26.1601 2.72718 -1.37222e-16)
(26.1424 2.77104 5.92606e-19)
(26.1237 2.81345 1.68557e-16)
(26.1043 2.85441 -4.36542e-17)
(26.0843 2.89392 -4.10738e-17)
(26.064 2.93201 -1.04102e-16)
(26.0435 2.96873 4.22488e-17)
(26.0229 3.004 2.99166e-16)
(26.0025 3.03795 1.10319e-16)
(25.9826 3.07032 -1.33444e-16)
(25.9631 3.10155 6.41386e-17)
(25.9447 3.13084 -4.72825e-17)
(25.9276 3.15554 5.01781e-18)
(25.9131 3.17615 5.22521e-19)
(25.8994 3.19669 -3.58707e-18)
(25.8859 3.21827 -1.46228e-16)
(25.8733 3.23707 -1.35235e-19)
(25.8599 3.26068 1.31533e-17)
(25.8492 3.2736 -8.60442e-17)
(25.8351 3.30456 1.68798e-16)
(25.8299 3.29929 -1.18147e-18)
(25.8131 3.35535 -5.86405e-20)
(24.7416 2.75473 -1.5592e-18)
(24.8386 2.75488 5.10306e-19)
(24.7431 2.75149 1.92074e-19)
(24.1523 2.71779 6.53957e-19)
(23.0448 2.64541 -3.41024e-18)
(21.5609 2.53391 3.7189e-18)
(19.8824 2.38774 -1.40908e-18)
(18.1887 2.21498 -4.06833e-19)
(16.6469 2.02596 3.32758e-18)
(15.409 1.83277 -7.72302e-18)
(14.6024 1.64836 -1.28121e-18)
(14.3082 1.4849 -1.3095e-17)
(14.5372 1.35211 -7.55406e-18)
(15.2321 1.2548 -1.10446e-18)
(16.3032 1.19385 2.19395e-18)
(17.6563 1.1688 9.64849e-18)
(19.1978 1.17885 1.35724e-19)
(20.8266 1.22191 -5.20294e-18)
(22.4186 1.29183 3.1799e-18)
(23.8091 1.37197 7.46505e-19)
(24.7682 1.43498 8.38895e-18)
(25.1854 1.46546 4.22959e-17)
(25.2804 1.47383 -1.09361e-17)
(25.3093 1.47814 1.98687e-18)
(25.3573 1.4854 -1.1443e-17)
(25.4221 1.49682 -2.51317e-19)
(25.4908 1.5121 2.99686e-20)
(25.5564 1.53095 1.03453e-19)
(25.6174 1.5528 9.84299e-18)
(25.6742 1.57699 -2.61316e-18)
(25.7271 1.60311 7.18114e-18)
(25.7766 1.63126 7.40861e-18)
(25.8228 1.66177 -3.77629e-18)
(25.8658 1.695 4.06694e-19)
(25.9057 1.73101 6.34549e-18)
(25.9427 1.7697 5.65997e-18)
(25.9769 1.8107 1.3313e-19)
(26.0082 1.85362 -4.27155e-18)
(26.0368 1.89807 1.70034e-17)
(26.0623 1.94375 -2.31145e-18)
(26.0849 1.99049 -4.29719e-18)
(26.1044 2.0382 1.00462e-17)
(26.1211 2.08684 1.46249e-17)
(26.1351 2.13628 2.34959e-17)
(26.1464 2.18632 -3.2823e-17)
(26.155 2.2367 4.44556e-18)
(26.1609 2.28715 -7.16797e-18)
(26.1643 2.33744 -1.52557e-17)
(26.1653 2.3874 1.44079e-17)
(26.1638 2.43686 -1.60744e-18)
(26.16 2.4857 -3.24619e-17)
(26.154 2.53379 -8.19111e-18)
(26.1461 2.58104 7.23515e-18)
(26.1364 2.62736 -5.73689e-18)
(26.1249 2.6727 -1.79183e-18)
(26.112 2.717 1.17872e-16)
(26.0978 2.76021 5.83479e-19)
(26.0824 2.8023 -8.82922e-17)
(26.0661 2.84323 2.00967e-19)
(26.0491 2.88298 -1.15802e-18)
(26.0316 2.92155 6.6874e-18)
(26.0137 2.95894 -2.71886e-18)
(25.9957 2.99502 -1.70482e-16)
(25.9777 3.0299 -6.00168e-17)
(25.96 3.06325 1.21031e-16)
(25.9427 3.09552 -6.24768e-17)
(25.9264 3.12583 3.62266e-17)
(25.911 3.15142 7.97219e-17)
(25.898 3.1728 -1.01648e-16)
(25.8858 3.19404 -1.8383e-16)
(25.8738 3.21643 -6.55041e-19)
(25.8627 3.23575 -1.59306e-19)
(25.8508 3.26029 -4.92587e-17)
(25.8415 3.27339 4.75705e-17)
(25.8289 3.30556 -3.32677e-18)
(25.8246 3.30001 -1.65671e-18)
(24.8807 2.60871 2.11681e-21)
(24.9323 2.60823 3.72025e-19)
(24.9601 2.60889 1.88775e-18)
(24.7027 2.59201 5.54208e-19)
(24.0305 2.55164 3.27377e-18)
(22.9805 2.48628 -2.74662e-18)
(21.665 2.39619 5.68723e-19)
(20.2211 2.28404 -3.21267e-19)
(18.7911 2.15471 9.28485e-18)
(17.5158 2.01521 1.49575e-17)
(16.5273 1.87451 -1.28749e-18)
(15.935 1.74242 8.62597e-19)
(15.801 1.62835 3.56812e-18)
(16.1196 1.5392 9.08997e-18)
(16.831 1.47799 1.74894e-18)
(17.8546 1.44497 -1.48618e-18)
(19.1072 1.43932 -1.7303e-18)
(20.5034 1.45986 9.74329e-19)
(21.9457 1.50481 2.66551e-18)
(23.3123 1.56811 7.86614e-18)
(24.4252 1.63174 1.88137e-18)
(25.0808 1.67259 -3.33754e-18)
(25.3034 1.6856 -1.29069e-17)
(25.3442 1.68615 3.60637e-17)
(25.3718 1.68708 -1.98376e-17)
(25.4185 1.69183 -8.20796e-19)
(25.4733 1.70008 1.51052e-18)
(25.5273 1.71111 -1.95669e-19)
(25.5777 1.72422 -9.06869e-18)
(25.6246 1.73897 -3.41879e-20)
(25.6687 1.75532 -1.60909e-17)
(25.7104 1.77369 8.02054e-19)
(25.7501 1.79459 9.31936e-18)
(25.7877 1.81835 2.21757e-19)
(25.8232 1.84499 3.79167e-18)
(25.8568 1.87436 3.44601e-18)
(25.8883 1.90612 -8.58678e-19)
(25.9178 1.93989 -5.39078e-18)
(25.9451 1.97538 -8.54253e-18)
(25.9702 2.01238 5.67331e-18)
(25.993 2.0509 4.73168e-18)
(26.0133 2.09088 1.29706e-17)
(26.0314 2.1323 -4.20533e-18)
(26.0473 2.17497 -1.41451e-17)
(26.0609 2.21869 -4.01804e-18)
(26.0721 2.26315 1.18117e-17)
(26.081 2.30811 -6.24151e-18)
(26.0876 2.35338 -1.35063e-17)
(26.0919 2.3988 1.29597e-17)
(26.0939 2.44421 2.18143e-17)
(26.0936 2.48949 2.84009e-17)
(26.0912 2.5345 -7.69393e-18)
(26.0868 2.57913 3.63569e-17)
(26.0805 2.6233 -5.52715e-18)
(26.0726 2.66691 -1.74667e-18)
(26.063 2.70989 -1.1442e-16)
(26.052 2.75216 5.81089e-19)
(26.0397 2.79364 6.89423e-17)
(26.0265 2.83429 4.05443e-17)
(26.0124 2.87406 -1.18166e-18)
(25.9976 2.91289 1.53085e-16)
(25.9825 2.95075 -2.8063e-18)
(25.967 2.98748 -1.79932e-19)
(25.9514 3.02314 -3.08797e-17)
(25.936 3.05735 -6.46298e-18)
(25.921 3.09054 -2.25068e-17)
(25.9068 3.12178 -4.02082e-20)
(25.8932 3.14819 -6.83122e-17)
(25.8818 3.17028 1.02484e-16)
(25.8712 3.19218 2.93881e-18)
(25.8608 3.21533 -9.64645e-17)
(25.8513 3.2351 3.24084e-17)
(25.8409 3.26049 8.68481e-17)
(25.8331 3.27372 -2.34562e-19)
(25.0344 2.53462 -6.49511e-19)
(25.0453 2.52936 3.5515e-19)
(25.0908 2.52425 4.99356e-19)
(25.0144 2.50919 4.93803e-19)
(24.6405 2.48245 1.98231e-19)
(23.925 2.44103 -5.44899e-20)
(22.9188 2.38103 4.87194e-19)
(21.7157 2.30144 -2.71621e-19)
(20.4292 2.20452 -4.5681e-19)
(19.1825 2.0951 -1.35475e-18)
(18.1028 1.98005 4.03824e-19)
(17.3119 1.8677 -7.66254e-19)
(16.9059 1.76664 1.3851e-18)
(16.9272 1.68439 -3.37745e-19)
(17.3498 1.62552 1.48326e-18)
(18.1046 1.59126 4.58937e-19)
(19.1118 1.58088 -2.67857e-18)
(20.2937 1.59269 8.17165e-19)
(21.5699 1.62484 2.20515e-18)
(22.8478 1.67497 -7.16675e-19)
(24.0031 1.73477 -1.65877e-18)
(24.8478 1.78543 -2.81542e-18)
(25.2582 1.81149 2.49392e-18)
(25.3682 1.81788 -1.99041e-18)
(25.3935 1.81912 2.4749e-18)
(25.4252 1.82245 -9.12477e-19)
(25.4683 1.82851 6.64301e-18)
(25.5129 1.83658 -5.1191e-18)
(25.5546 1.8461 -1.00956e-18)
(25.5931 1.85696 2.26139e-17)