/*--------------------------------*- C++ -*----------------------------------*\
| =========                 |                                                 |
| \\      /  F ield         | OpenFOAM: The Open Source CFD Toolbox           |
|  \\    /   O peration     | Version:  2306                                  |
|   \\  /    A nd           | Website:  www.openfoam.com                      |
|    \\/     M anipulation  |                                                 |
\*---------------------------------------------------------------------------*/
FoamFile
{
    version     2.0;
    format      ascii;
    arch        "LSB;label=32;scalar=64";
    class       volScalarField;
    location    "325";
    object      magR;
}
// * * * * * * * * * * * * * * * * * * * * * * * * * * * * * * * * * * * * * //

dimensions      [0 2 -2 0 0 0 0];

internalField   nonuniform List<scalar> 
1340
(
8.17122e-07
1.60835e-06
1.82071e-07
7.48126e-07
8.14592e-07
1.61071e-06
2.0131e-07
3.23704e-07
1.78407e-07
7.50945e-07
8.14861e-07
1.61144e-06
3.72387e-07
3.27822e-07
3.07559e-07
2.1115e-07
3.31203e-07
1.76247e-07
7.53987e-07
8.17085e-07
1.61132e-06
5.32406e-07
4.93438e-07
4.61556e-07
4.31881e-07
4.00952e-07
3.71812e-07
3.29432e-07
3.11126e-07
2.21705e-07
3.38423e-07
1.75386e-07
7.57147e-07
8.2062e-07
1.61084e-06
7.47127e-07
7.00447e-07
6.53841e-07
6.08416e-07
5.63871e-07
5.21983e-07
4.85646e-07
4.55957e-07
4.2813e-07
3.98984e-07
3.71419e-07
3.31422e-07
3.15124e-07
2.32817e-07
3.45195e-07
1.75709e-07
7.60154e-07
8.24931e-07
1.61011e-06
1.01677e-06
9.73193e-07
9.29792e-07
8.86863e-07
8.44505e-07
8.02573e-07
7.60649e-07
7.18375e-07
6.75722e-07
6.33047e-07
5.9138e-07
5.50283e-07
5.11476e-07
4.77844e-07
4.50363e-07
4.24405e-07
3.97107e-07
3.71145e-07
3.33742e-07
3.19487e-07
2.44372e-07
3.51404e-07
1.7712e-07
7.6295e-07
8.29598e-07
1.60883e-06
1.37051e-06
1.33911e-06
1.30685e-06
1.27382e-06
1.24016e-06
1.20593e-06
1.17123e-06
1.13613e-06
1.10066e-06
1.06475e-06
1.02832e-06
9.91329e-07
9.5382e-07
9.15944e-07
8.77976e-07
8.40176e-07
8.02627e-07
7.65209e-07
7.27572e-07
6.8945e-07
6.50844e-07
6.12125e-07
5.74237e-07
5.36611e-07
5.00945e-07
4.70062e-07
4.44784e-07
4.20706e-07
3.95303e-07
3.70981e-07
3.36376e-07
3.24178e-07
2.5628e-07
3.56928e-07
1.79541e-07
7.65431e-07
8.34012e-07
1.60738e-06
1.34364e-06
1.39943e-06
1.23598e-06
1.26659e-06
1.26798e-06
1.32587e-06
1.35676e-06
1.38721e-06
1.41378e-06
1.4389e-06
1.46199e-06
1.48295e-06
1.50124e-06
1.51695e-06
1.53064e-06
1.54155e-06
1.55005e-06
1.55623e-06
1.56018e-06
1.56205e-06
1.56189e-06
1.55982e-06
1.55607e-06
1.55077e-06
1.544e-06
1.5359e-06
1.52661e-06
1.51629e-06
1.50488e-06
1.49259e-06
1.47939e-06
1.46535e-06
1.45054e-06
1.43491e-06
1.41855e-06
1.40141e-06
1.38346e-06
1.36479e-06
1.34525e-06
1.32486e-06
1.30368e-06
1.28158e-06
1.25859e-06
1.23464e-06
1.20985e-06
1.18417e-06
1.15766e-06
1.13046e-06
1.10258e-06
1.07413e-06
1.0452e-06
1.01578e-06
9.85803e-07
9.55226e-07
9.23956e-07
8.9204e-07
8.59574e-07
8.26789e-07
7.93905e-07
7.60999e-07
7.27981e-07
6.94561e-07
6.60546e-07
6.25974e-07
5.91206e-07
5.57079e-07
5.22926e-07
4.90442e-07
4.62324e-07
4.39225e-07
4.1703e-07
3.93555e-07
3.7091e-07
3.39307e-07
3.29172e-07
2.68461e-07
3.61701e-07
1.82872e-07
7.67331e-07
8.37934e-07
1.60599e-06
1.38112e-06
1.1013e-06
1.00789e-06
1.10001e-06
1.12069e-06
1.1571e-06
1.17917e-06
1.20356e-06
1.22536e-06
1.24604e-06
1.2649e-06
1.28188e-06
1.29688e-06
1.3099e-06
1.32115e-06
1.33021e-06
1.3374e-06
1.34288e-06
1.34653e-06
1.34851e-06
1.34898e-06
1.34797e-06
1.34564e-06
1.34214e-06
1.33749e-06
1.33184e-06
1.32535e-06
1.31797e-06
1.30983e-06
1.30102e-06
1.2915e-06
1.28139e-06
1.27063e-06
1.2593e-06
1.24737e-06
1.23481e-06
1.22164e-06
1.20784e-06
1.19333e-06
1.1781e-06
1.16213e-06
1.14538e-06
1.12778e-06
1.10932e-06
1.09005e-06
1.06988e-06
1.04893e-06
1.02725e-06
1.0049e-06
9.81966e-07
9.58519e-07
9.34531e-07
9.09956e-07
8.84737e-07
8.58753e-07
8.32023e-07
8.04604e-07
7.76689e-07
7.48457e-07
7.19977e-07
6.91194e-07
6.61881e-07
6.31896e-07
6.013e-07
5.7043e-07
5.4002e-07
5.09305e-07
4.80016e-07
4.5465e-07
4.3368e-07
4.13364e-07
3.91841e-07
3.70923e-07
3.42512e-07
3.34444e-07
2.80813e-07
3.65677e-07
1.86886e-07
7.68988e-07
8.40908e-07
1.60524e-06
1.05471e-06
9.29036e-07
8.94575e-07
9.77796e-07
9.87366e-07
1.01266e-06
1.03065e-06
1.04996e-06
1.0675e-06
1.08389e-06
1.0986e-06
1.11215e-06
1.12403e-06
1.13436e-06
1.14321e-06
1.15052e-06
1.15631e-06
1.16085e-06
1.16396e-06
1.1657e-06
1.16639e-06
1.16598e-06
1.16457e-06
1.16215e-06
1.15902e-06
1.15515e-06
1.15056e-06
1.14537e-06
1.13964e-06
1.13339e-06
1.12666e-06
1.11949e-06
1.11185e-06
1.10378e-06
1.09529e-06
1.08633e-06
1.07688e-06
1.06692e-06
1.05643e-06
1.04531e-06
1.03357e-06
1.02115e-06
1.00795e-06
9.94031e-07
9.79317e-07
9.63777e-07
9.47544e-07
9.30595e-07
9.13026e-07
8.94917e-07
8.763e-07
8.57167e-07
8.3747e-07
8.17107e-07
7.95944e-07
7.73985e-07
7.51242e-07
7.27846e-07
7.03971e-07
6.79691e-07
6.54964e-07
6.2962e-07
6.03556e-07
5.76868e-07
5.49826e-07
5.23047e-07
4.9574e-07
4.69654e-07
4.46998e-07
4.28096e-07
4.09674e-07
3.90123e-07
3.70997e-07
3.45988e-07
3.39994e-07
2.93244e-07
3.68885e-07
1.91563e-07
7.69368e-07
8.43616e-07
1.60565e-06
8.98709e-07
8.30765e-07
8.04877e-07
8.65442e-07
8.7036e-07
8.90238e-07
9.04489e-07
9.19453e-07
9.32941e-07
9.45561e-07
9.56923e-07
9.67318e-07
9.76481e-07
9.84453e-07
9.91298e-07
9.97037e-07
1.00157e-06
1.00519e-06
1.00773e-06
1.00928e-06
1.01004e-06
1.00999e-06
1.00916e-06
1.00764e-06
1.00567e-06
1.00302e-06
9.99916e-07
9.96445e-07
9.92508e-07
9.88245e-07
9.83623e-07
9.78738e-07
9.7347e-07
9.67951e-07
9.62106e-07
9.55903e-07
9.49359e-07
9.42423e-07
9.35029e-07
9.2717e-07
9.18772e-07
9.09778e-07
9.00148e-07
8.89864e-07
8.78846e-07
8.67151e-07
8.54806e-07
8.41829e-07
8.28327e-07
8.14341e-07
7.99915e-07
7.85025e-07
7.6963e-07
7.53547e-07
7.36698e-07
7.19031e-07
7.00462e-07
6.8119e-07
6.61325e-07
6.40911e-07
6.19992e-07
5.98423e-07
5.76093e-07
5.53147e-07
5.29782e-07
5.06491e-07
4.82493e-07
4.59532e-07
4.39508e-07
4.22592e-07
4.06034e-07
3.88444e-07
3.71188e-07
3.4973e-07
3.45818e-07
3.0547e-07
3.71423e-07
1.95978e-07
7.69003e-07
8.4477e-07
1.60953e-06
7.95785e-07
7.36254e-07
7.11257e-07
7.57675e-07
7.61203e-07
7.76604e-07
7.8737e-07
7.98667e-07
8.08647e-07
8.18233e-07
8.26809e-07
8.34577e-07
8.41578e-07
8.47555e-07
8.52797e-07
8.57294e-07
8.60837e-07
8.63644e-07
8.65794e-07
8.67211e-07
8.68061e-07
8.68298e-07
8.68e-07
8.673e-07
8.66156e-07
8.64589e-07
8.6284e-07
8.60728e-07
8.5828e-07
8.55612e-07
8.52882e-07
8.49837e-07
8.46645e-07
8.43138e-07
8.39485e-07
8.35798e-07
8.31558e-07
8.27127e-07
8.22406e-07
8.1732e-07
8.11691e-07
8.05669e-07
7.99072e-07
7.91827e-07
7.84112e-07
7.75688e-07
7.66739e-07
7.57309e-07
7.47355e-07
7.37093e-07
7.26426e-07
7.15354e-07
7.03894e-07
6.91737e-07
6.7881e-07
6.65123e-07
6.50457e-07
6.34997e-07
6.18954e-07
6.02225e-07
5.84961e-07
5.67104e-07
5.48453e-07
5.29192e-07
5.09476e-07
4.89676e-07
4.6898e-07
4.49178e-07
4.31786e-07
4.16877e-07
4.02211e-07
3.86656e-07
3.71465e-07
3.53788e-07
3.52099e-07
3.1786e-07
3.73259e-07
2.04252e-07
7.6423e-07
8.4919e-07
1.61379e-06
6.80912e-07
6.2992e-07
6.07489e-07
6.43172e-07
6.44519e-07
6.5582e-07
6.62943e-07
6.70099e-07
6.77671e-07
6.83742e-07
6.89486e-07
6.95358e-07
6.99945e-07
7.039e-07
7.07908e-07
7.11353e-07
7.13499e-07
7.15993e-07
7.17744e-07
7.19035e-07
7.20142e-07
7.20485e-07
7.20947e-07
7.21115e-07
7.20737e-07
7.20383e-07
7.19892e-07
7.19178e-07
7.18344e-07
7.17189e-07
7.16338e-07
7.15294e-07
7.14012e-07
7.12449e-07
7.11251e-07
7.09814e-07
7.07915e-07
7.0593e-07
7.0385e-07
7.0146e-07
6.98529e-07
6.95511e-07
6.9169e-07
6.87566e-07
6.83128e-07
6.77839e-07
6.72346e-07
6.66517e-07
6.60098e-07
6.53671e-07
6.46874e-07
6.39686e-07
6.32354e-07
6.2425e-07
6.15381e-07
6.0582e-07
5.95312e-07
5.83851e-07
5.71861e-07
5.59184e-07
5.45937e-07
5.32158e-07
5.17599e-07
5.02472e-07
4.86817e-07
4.70868e-07
4.53876e-07
4.37643e-07
4.23136e-07
4.10415e-07
3.97908e-07
3.84718e-07
3.71983e-07
3.58863e-07
3.59183e-07
3.32435e-07
3.71758e-07
2.20329e-07
7.49755e-07
8.41346e-07
1.55953e-06
5.58959e-07
5.23065e-07
5.0644e-07
5.30581e-07
5.30624e-07
5.37984e-07
5.41647e-07
5.45977e-07
5.50771e-07
5.54025e-07
5.57702e-07
5.61462e-07
5.64053e-07
5.66476e-07
5.69432e-07
5.71635e-07
5.72949e-07
5.75132e-07
5.76249e-07
5.7766e-07
5.78941e-07
5.79269e-07
5.80349e-07
5.81317e-07
5.81522e-07
5.82181e-07
5.82571e-07
5.83024e-07
5.83618e-07
5.83848e-07
5.84274e-07
5.84901e-07
5.85137e-07
5.85366e-07
5.8609e-07
5.86291e-07
5.86451e-07
5.86565e-07
5.86608e-07
5.86321e-07
5.8584e-07
5.85087e-07
5.83784e-07
5.825e-07
5.80591e-07
5.78309e-07
5.75972e-07
5.73314e-07
5.70358e-07
5.67453e-07
5.64412e-07
5.61019e-07
5.57556e-07
5.53421e-07
5.48582e-07
5.4302e-07
5.36575e-07
5.29243e-07
5.21391e-07
5.12936e-07
5.03967e-07
4.94489e-07
4.84339e-07
4.73617e-07
4.62257e-07
4.50428e-07
4.37475e-07
4.25061e-07
4.13611e-07
4.03264e-07
3.93161e-07
3.82674e-07
3.72965e-07
3.65003e-07
3.6753e-07
3.47988e-07
3.69134e-07
2.379e-07
7.49102e-07
8.34434e-07
1.55729e-06
4.56442e-07
4.29997e-07
4.16464e-07
4.3351e-07
4.33075e-07
4.36935e-07
4.39217e-07
4.42414e-07
4.4404e-07
4.46502e-07
4.49108e-07
4.50858e-07
4.5251e-07
4.54313e-07
4.56384e-07
4.5745e-07
4.58991e-07
4.6049e-07
4.61285e-07
4.62879e-07
4.64161e-07
4.64742e-07
4.6609e-07
4.67305e-07
4.67997e-07
4.69481e-07
4.70424e-07
4.71485e-07
4.72943e-07
4.74139e-07
4.75333e-07
4.76988e-07
4.78236e-07
4.79643e-07
4.81428e-07
4.8277e-07
4.84218e-07
4.85729e-07
4.87069e-07
4.88179e-07
4.89315e-07
4.9005e-07
4.90676e-07
4.91197e-07
4.9117e-07
4.91206e-07
4.91185e-07
4.90965e-07
4.90764e-07
4.90597e-07
4.90536e-07
4.90229e-07
4.8975e-07
4.889e-07
4.87293e-07
4.85039e-07
4.82029e-07
4.78231e-07
4.74046e-07
4.69349e-07
4.64222e-07
4.58708e-07
4.526e-07
4.45884e-07
4.38534e-07
4.30564e-07
4.21455e-07
4.12672e-07
4.0413e-07
3.96133e-07
3.88516e-07
3.80864e-07
3.74569e-07
3.71807e-07
3.76808e-07
3.62818e-07
3.6807e-07
2.55426e-07
7.56077e-07
8.12873e-07
1.55681e-06
3.72107e-07
3.32712e-07
3.5009e-07
3.37043e-07
3.51817e-07
3.49927e-07
3.52254e-07
3.54195e-07
3.55987e-07
3.56863e-07
3.58477e-07
3.60278e-07
3.61524e-07
3.62564e-07
3.64094e-07
3.65702e-07
3.6638e-07
3.68011e-07
3.69252e-07
3.70267e-07
3.71891e-07
3.72998e-07
3.74328e-07
3.75696e-07
3.77139e-07
3.78561e-07
3.80275e-07
3.81848e-07
3.834e-07
3.85444e-07
3.87293e-07
3.89094e-07
3.91463e-07
3.93391e-07
3.95615e-07
3.98127e-07
4.00191e-07
4.02561e-07
4.04946e-07
4.07102e-07
4.09289e-07
4.11379e-07
4.13288e-07
4.1518e-07
4.16848e-07
4.18449e-07
4.20058e-07
4.21699e-07
4.23401e-07
4.25209e-07
4.27108e-07
4.29197e-07
4.31145e-07
4.32887e-07
4.34399e-07
4.35175e-07
4.35424e-07
4.35076e-07
4.34064e-07
4.32811e-07
4.31211e-07
4.29264e-07
4.27048e-07
4.2431e-07
4.20984e-07
4.1706e-07
4.12441e-07
4.0672e-07
4.01136e-07
3.95194e-07
3.89409e-07
3.84252e-07
3.79481e-07
3.76851e-07
3.79131e-07
3.86519e-07
3.76326e-07
3.68237e-07
2.76878e-07
7.6696e-07
7.85229e-07
1.55594e-06
3.01126e-07
2.68389e-07
2.81667e-07
2.70217e-07
2.82844e-07
2.80691e-07
2.8277e-07
2.8353e-07
2.84957e-07
2.86007e-07
2.86694e-07
2.88122e-07
2.89182e-07
2.9037e-07
2.91512e-07
2.92686e-07
2.93693e-07
2.95203e-07
2.96556e-07
2.97716e-07
2.99155e-07
3.00499e-07
3.02377e-07
3.03746e-07
3.05521e-07
3.07305e-07
3.09148e-07
3.11359e-07
3.13231e-07
3.15602e-07
3.17858e-07
3.2029e-07
3.2297e-07
3.25427e-07
3.282e-07
3.31134e-07
3.33874e-07
3.36699e-07
3.39727e-07
3.42562e-07
3.45444e-07
3.48335e-07
3.51053e-07
3.53883e-07
3.56625e-07
3.59439e-07
3.62301e-07
3.65258e-07
3.68482e-07
3.71853e-07
3.75292e-07
3.78964e-07
3.82573e-07
3.85934e-07
3.89173e-07
3.91752e-07
3.93891e-07
3.95624e-07
3.96876e-07
3.97996e-07
3.98903e-07
3.99584e-07
4.00047e-07
4.00103e-07
3.99606e-07
3.98541e-07
3.968e-07
3.94031e-07
3.91223e-07
3.87596e-07
3.83903e-07
3.81116e-07
3.79219e-07
3.80364e-07
3.87368e-07
3.96764e-07
3.88881e-07
3.7056e-07
3.05764e-07
7.81881e-07
7.52892e-07
1.55623e-06
2.4045e-07
2.14098e-07
2.23652e-07
2.142e-07
2.2458e-07
2.23086e-07
2.24667e-07
2.25413e-07
2.26864e-07
2.27329e-07
2.28347e-07
2.29808e-07
2.30648e-07
2.31966e-07
2.332e-07
2.34224e-07
2.35714e-07
2.37166e-07
2.38695e-07
2.39958e-07
2.41631e-07
2.43466e-07
2.45138e-07
2.46972e-07
2.4908e-07
2.50882e-07
2.53215e-07
2.55653e-07
2.5771e-07
2.60394e-07
2.62902e-07
2.65701e-07
2.68567e-07
2.71261e-07
2.74365e-07
2.7762e-07
2.80539e-07
2.83747e-07
2.87128e-07
2.903e-07
2.93578e-07
2.97055e-07
3.00267e-07
3.03681e-07
3.07298e-07
3.10829e-07
3.14631e-07
3.18538e-07
3.22781e-07
3.27161e-07
3.31632e-07
3.36393e-07
3.41025e-07
3.45499e-07
3.49923e-07
3.53812e-07
3.57389e-07
3.60759e-07
3.63841e-07
3.66888e-07
3.69803e-07
3.72634e-07
3.75319e-07
3.77636e-07
3.79512e-07
3.80861e-07
3.81566e-07
3.81344e-07
3.80882e-07
3.79301e-07
3.7765e-07
3.77264e-07
3.78324e-07
3.83348e-07
3.94569e-07
4.05048e-07
3.9769e-07
3.72619e-07
3.39156e-07
8.0045e-07
7.13117e-07
1.56082e-06
2.01863e-07
1.80929e-07
1.88917e-07
1.80686e-07
1.89576e-07
1.8821e-07
1.88977e-07
1.90135e-07
1.91005e-07
1.9131e-07
1.92381e-07
1.93493e-07
1.94251e-07
1.95177e-07
1.96436e-07
1.97338e-07
1.98764e-07
2.00086e-07
2.01215e-07
2.02557e-07
2.04251e-07
2.05959e-07
2.07331e-07
2.09063e-07
2.11332e-07
2.12936e-07
2.15122e-07
2.17458e-07
2.19587e-07
2.22063e-07
2.24622e-07
2.27315e-07
2.3013e-07
2.329e-07
2.36035e-07
2.39245e-07
2.42283e-07
2.45724e-07
2.49201e-07
2.52723e-07
2.5623e-07
2.60142e-07
2.63879e-07
2.67853e-07
2.72098e-07
2.76226e-07
2.80832e-07
2.85426e-07
2.90318e-07
2.95377e-07
3.00544e-07
3.05915e-07
3.11185e-07
3.16484e-07
3.21666e-07
3.26559e-07
3.31315e-07
3.35956e-07
3.40469e-07
3.45022e-07
3.49481e-07
3.53951e-07
3.58332e-07
3.62374e-07
3.66155e-07
3.69457e-07
3.72161e-07
3.74097e-07
3.75708e-07
3.76043e-07
3.76205e-07
3.77807e-07
3.81314e-07
3.89595e-07
4.03939e-07
4.1471e-07
4.07941e-07
3.83216e-07
3.88439e-07
8.29156e-07
6.76102e-07
1.58214e-06
1.64642e-07
1.46868e-07
1.53375e-07
1.46116e-07
1.55265e-07
1.53908e-07
1.55256e-07
1.56427e-07
1.56821e-07
1.57504e-07
1.58992e-07
1.60172e-07
1.61153e-07
1.62047e-07
1.6339e-07
1.64827e-07
1.66279e-07
1.67536e-07
1.68714e-07
1.70722e-07
1.72276e-07
1.73962e-07
1.75635e-07
1.77346e-07
1.79727e-07
1.81534e-07
1.83611e-07
1.85847e-07
1.88194e-07
1.90602e-07
1.92972e-07
1.95757e-07
1.98306e-07
2.01093e-07
2.04132e-07
2.07071e-07
2.10129e-07
2.13282e-07
2.16787e-07
2.20211e-07
2.23616e-07
2.27502e-07
2.31311e-07
2.35297e-07
2.39471e-07
2.43801e-07
2.48341e-07
2.52959e-07
2.57796e-07
2.62762e-07
2.67934e-07
2.73159e-07
2.78503e-07
2.8393e-07
2.89293e-07
2.94621e-07
2.99985e-07
3.05357e-07
3.1071e-07
3.16219e-07
3.21701e-07
3.27292e-07
3.32849e-07
3.38183e-07
3.43372e-07
3.48112e-07
3.52324e-07
3.55827e-07
3.5863e-07
3.60127e-07
3.62124e-07
3.66158e-07
3.72904e-07
3.85218e-07
4.0214e-07
4.1058e-07
4.0019e-07
3.77257e-07
4.207e-07
8.46945e-07
6.13372e-07
1.61924e-06
1.73642e-07
1.61337e-07
1.65995e-07
1.60758e-07
1.65306e-07
1.64331e-07
1.65429e-07
1.66006e-07
1.65845e-07
1.66297e-07
1.67263e-07
1.68056e-07
1.68552e-07
1.68883e-07
1.69773e-07
1.70713e-07
1.71511e-07
1.72278e-07
1.72953e-07
1.74403e-07
1.75418e-07
1.76358e-07
1.7758e-07
1.78857e-07
1.80471e-07
1.81878e-07
1.83509e-07
1.85163e-07
1.8711e-07
1.89138e-07
1.91134e-07
1.93623e-07
1.95919e-07
1.98635e-07
2.01504e-07
2.04492e-07
2.07671e-07
2.11003e-07
2.14809e-07
2.18485e-07
2.22485e-07
2.26719e-07
2.30985e-07
2.35393e-07
2.39947e-07
2.44606e-07
2.49173e-07
2.5394e-07
2.58706e-07
2.63571e-07
2.68698e-07
2.7391e-07
2.79439e-07
2.85097e-07
2.9094e-07
2.96858e-07
3.02831e-07
3.08817e-07
3.14662e-07
3.20572e-07
3.26397e-07
3.32316e-07
3.38254e-07
3.4412e-07
3.49931e-07
3.55421e-07
3.60595e-07
3.6535e-07
3.69951e-07
3.73346e-07
3.76138e-07
3.80213e-07
3.86517e-07
3.9792e-07
4.13287e-07
4.20209e-07
4.15183e-07
4.14317e-07
5.1062e-07
8.95367e-07
6.34116e-07
1.77994e-06
1.31609e-07
1.33161e-07
1.31673e-07
1.34766e-07
1.36233e-07
1.36774e-07
1.37623e-07
1.38244e-07
1.39169e-07
1.40139e-07
1.40739e-07
1.41678e-07
1.42616e-07
1.43595e-07
1.44546e-07
1.45464e-07
1.46588e-07
1.47646e-07
1.48731e-07
1.49955e-07
1.51065e-07
1.52371e-07
1.53593e-07
1.54911e-07
1.56346e-07
1.57818e-07
1.59314e-07
1.60827e-07
1.62543e-07
1.64205e-07
1.66003e-07
1.67897e-07
1.69782e-07
1.7189e-07
1.73981e-07
1.76255e-07
1.78577e-07
1.81003e-07
1.83563e-07
1.8609e-07
1.88798e-07
1.9149e-07
1.94188e-07
1.96889e-07
1.99653e-07
2.02342e-07
2.05044e-07
2.07878e-07
2.10767e-07
2.13907e-07
2.17259e-07
2.20897e-07
2.24862e-07
2.29008e-07
2.33439e-07
2.38003e-07
2.42773e-07
2.47675e-07
2.52692e-07
2.58032e-07
2.63542e-07
2.69339e-07
2.75297e-07
2.81328e-07
2.87365e-07
2.93089e-07
2.98482e-07
3.03285e-07
3.06001e-07
3.07116e-07
3.11117e-07
3.19431e-07
3.32413e-07
3.52146e-07
3.70597e-07
3.68296e-07
3.46896e-07
3.54171e-07
5.00013e-07
7.63849e-07
5.75942e-07
1.79282e-06
)
;

boundaryField
{
    inlet
    {
        type            calculated;
        value           nonuniform List<scalar> 
23
(
6.78361e-06
6.7496e-06
6.71661e-06
6.68457e-06
6.65282e-06
6.62059e-06
6.58697e-06
6.55126e-06
6.51254e-06
6.46998e-06
6.42248e-06
6.37041e-06
6.31061e-06
6.21682e-06
6.13844e-06
6.04323e-06
5.92492e-06
5.78081e-06
5.60757e-06
5.40443e-06
5.1628e-06
4.97891e-06
4.62671e-06
)
;
    }
    outlet
    {
        type            calculated;
        value           nonuniform List<scalar> 
82
(
1.0465e-07
1.04525e-07
1.06759e-07
1.08145e-07
1.09759e-07
1.10216e-07
1.11036e-07
1.11582e-07
1.12483e-07
1.13433e-07
1.13936e-07
1.14829e-07
1.15725e-07
1.16654e-07
1.17549e-07
1.18395e-07
1.19479e-07
1.20481e-07
1.21501e-07
1.22688e-07
1.23723e-07
1.24978e-07
1.26133e-07
1.27386e-07
1.28766e-07
1.30173e-07
1.31599e-07
1.33019e-07
1.34665e-07
1.36225e-07
1.37913e-07
1.39694e-07
1.41425e-07
1.43392e-07
1.45295e-07
1.47375e-07
1.49471e-07
1.51645e-07
1.5394e-07
1.56149e-07
1.58544e-07
1.60891e-07
1.63225e-07
1.65552e-07
1.67954e-07
1.70279e-07
1.7263e-07
1.75156e-07
1.7775e-07
1.80633e-07
1.83733e-07
1.8711e-07
1.90791e-07
1.94595e-07
1.9865e-07
2.0281e-07
2.07205e-07
2.1181e-07
2.16648e-07
2.21981e-07
2.27622e-07
2.33656e-07
2.39891e-07
2.46188e-07
2.52466e-07
2.58355e-07
2.63752e-07
2.68221e-07
2.69991e-07
2.70205e-07
2.74375e-07
2.84035e-07
2.99825e-07
3.23614e-07
3.45149e-07
3.41117e-07
3.09465e-07
3.03294e-07
4.48082e-07
7.34384e-07
4.68641e-07
1.62437e-06
)
;
    }
    walls
    {
        type            calculated;
        value           nonuniform List<scalar> 0();
    }
    frontAndBack
    {
        type            empty;
    }
    procBoundary3to2
    {
        type            processor;
        value           nonuniform List<scalar> 
88
(
8.23048e-07
1.60534e-06
1.87224e-07
7.44978e-07
7.44978e-07
1.92294e-07
3.16028e-07
3.16028e-07
3.73242e-07
3.26675e-07
3.04526e-07
3.04526e-07
5.42763e-07
5.01249e-07
4.67205e-07
4.3571e-07
4.03064e-07
4.03064e-07
7.75492e-07
7.24837e-07
6.74368e-07
6.25237e-07
5.77296e-07
5.77296e-07
1.08029e-06
1.0308e-06
9.81786e-07
9.33579e-07
8.86305e-07
8.39791e-07
7.9355e-07
7.9355e-07
1.51646e-06
1.47715e-06
1.43714e-06
1.39656e-06
1.35546e-06
1.31403e-06
1.27233e-06
1.23041e-06
1.18833e-06
1.14597e-06
1.10329e-06
1.0602e-06
1.0602e-06
1.03527e-06
1.54483e-06
1.62542e-06
1.47613e-06
1.52245e-06
1.56994e-06
1.60973e-06
1.64326e-06
1.6731e-06
1.6998e-06
1.72474e-06
1.74636e-06
1.76477e-06
1.78042e-06
1.79277e-06
1.80232e-06
1.80883e-06
1.81242e-06
1.81347e-06
1.81196e-06
1.80811e-06
1.8021e-06
1.79399e-06
1.7841e-06
1.77263e-06
1.75948e-06
1.74498e-06
1.72923e-06
1.71228e-06
1.69419e-06
1.675e-06
1.6549e-06
1.63375e-06
1.6116e-06
1.58863e-06
1.56462e-06
1.53973e-06
1.5139e-06
1.48707e-06
1.45937e-06
1.4307e-06
1.40107e-06
1.40107e-06
)
;
    }
    procBoundary3to6
    {
        type            processor;
        value           uniform 5.60595e-11;
    }
    procBoundary3to7
    {
        type            processor;
        value           nonuniform List<scalar> 
16
(
2.44203e-08
9.41028e-07
9.6734e-07
7.49255e-07
6.56254e-07
5.78507e-07
4.89529e-07
4.06749e-07
4.06749e-07
3.29457e-07
2.66366e-07
2.12271e-07
1.79151e-07
1.46511e-07
1.5828e-07
1.3527e-07
)
;
    }
}


// ************************************************************************* //
