/*--------------------------------*- C++ -*----------------------------------*\
| =========                 |                                                 |
| \\      /  F ield         | OpenFOAM: The Open Source CFD Toolbox           |
|  \\    /   O peration     | Version:  2306                                  |
|   \\  /    A nd           | Website:  www.openfoam.com                      |
|    \\/     M anipulation  |                                                 |
\*---------------------------------------------------------------------------*/
FoamFile
{
    version     2.0;
    format      ascii;
    arch        "LSB;label=32;scalar=64";
    class       volVectorField;
    location    "325";
    object      momentError;
}
// * * * * * * * * * * * * * * * * * * * * * * * * * * * * * * * * * * * * * //

dimensions      [0 1 -2 0 0 0 0];

internalField   nonuniform List<vector> 
1340
(
(-3.39265e-06 -3.16193e-06 6.04216e-16)
(-2.78765e-06 -1.00626e-05 -1.95222e-15)
(-3.77135e-06 -4.93433e-06 5.94323e-15)
(-3.96147e-06 -6.67643e-06 7.89967e-16)
(-3.69824e-06 -3.57901e-06 1.19902e-15)
(-2.41703e-06 -9.72457e-06 2.79443e-15)
(-3.78644e-06 -5.3973e-06 9.7586e-17)
(-3.76581e-06 -5.69873e-06 6.32761e-16)
(-4.18891e-06 -5.18933e-06 7.02459e-16)
(-3.93774e-06 -6.55463e-06 -3.92553e-16)
(-3.20464e-06 -3.32685e-06 -5.39299e-16)
(-2.12598e-06 -9.40289e-06 3.0568e-15)
(-4.40259e-06 -6.06034e-06 -1.32711e-15)
(-4.07797e-06 -5.7741e-06 2.76927e-15)
(-3.99098e-06 -5.71557e-06 8.46726e-18)
(-4.26131e-06 -5.64283e-06 1.68371e-18)
(-3.82169e-06 -5.70896e-06 1.20554e-15)
(-3.4791e-06 -4.91877e-06 -4.17128e-15)
(-3.40708e-06 -6.25839e-06 -2.20945e-15)
(-3.01129e-06 -2.9852e-06 1.56432e-17)
(-1.96062e-06 -9.09185e-06 -5.43808e-15)
(-5.40688e-06 -7.02738e-06 2.16835e-16)
(-5.35158e-06 -6.91597e-06 -2.65791e-16)
(-5.01698e-06 -6.68213e-06 1.83293e-16)
(-4.6703e-06 -6.45556e-06 1.12164e-15)
(-4.63909e-06 -6.34215e-06 -4.12161e-16)
(-5.05849e-06 -6.37413e-06 2.70066e-15)
(-4.66251e-06 -6.06584e-06 -8.21368e-16)
(-4.10599e-06 -5.77735e-06 -1.39455e-15)
(-3.47311e-06 -5.38121e-06 -1.75788e-17)
(-3.22421e-06 -5.43495e-06 -1.83138e-16)
(-3.27729e-06 -4.59981e-06 2.71593e-15)
(-3.19615e-06 -6.00723e-06 1.51738e-15)
(-2.84631e-06 -2.99313e-06 3.0387e-18)
(-1.76892e-06 -8.79092e-06 4.39438e-16)
(-6.13172e-06 -7.72538e-06 -9.60139e-16)
(-5.86213e-06 -7.58992e-06 2.2162e-16)
(-5.64667e-06 -7.42969e-06 3.47379e-16)
(-5.33473e-06 -7.25826e-06 1.1131e-15)
(-5.43319e-06 -7.2067e-06 1.02637e-15)
(-6.1235e-06 -7.32024e-06 -3.98628e-16)
(-6.30754e-06 -7.34773e-06 -6.26405e-16)
(-5.87572e-06 -7.06898e-06 -5.66783e-16)
(-5.48413e-06 -6.80029e-06 1.68767e-15)
(-4.82063e-06 -6.43171e-06 -1.1135e-16)
(-3.95609e-06 -6.03285e-06 -6.816e-16)
(-3.69094e-06 -5.7589e-06 8.58221e-16)
(-3.39072e-06 -5.47409e-06 -6.31191e-16)
(-3.20852e-06 -5.07259e-06 1.5171e-17)
(-3.03802e-06 -5.2073e-06 -1.63055e-16)
(-3.09209e-06 -4.54618e-06 6.20664e-16)
(-3.00017e-06 -5.83371e-06 7.21178e-16)
(-2.6871e-06 -2.92374e-06 2.62418e-17)
(-1.5768e-06 -8.48926e-06 -2.31095e-16)
(-7.22884e-06 -8.61815e-06 4.63446e-16)
(-6.94239e-06 -8.43815e-06 8.07232e-16)
(-6.66215e-06 -8.2123e-06 9.94162e-16)
(-6.39041e-06 -7.96017e-06 -2.5678e-16)
(-6.14453e-06 -7.68878e-06 7.71686e-16)
(-5.74525e-06 -7.47162e-06 -7.49376e-16)
(-5.97944e-06 -7.53655e-06 -2.2899e-15)
(-7.30319e-06 -7.96537e-06 -1.15923e-15)
(-6.95396e-06 -7.88947e-06 6.27376e-16)
(-6.60585e-06 -7.70957e-06 1.01974e-16)
(-6.28785e-06 -7.52053e-06 1.45326e-15)
(-5.55895e-06 -7.19901e-06 -2.24426e-16)
(-4.50713e-06 -6.80018e-06 -5.21516e-17)
(-4.58823e-06 -6.80501e-06 8.04862e-17)
(-4.33158e-06 -6.58171e-06 -5.61863e-17)
(-4.10133e-06 -6.36785e-06 -5.39991e-16)
(-3.80355e-06 -6.0297e-06 1.0757e-15)
(-3.60728e-06 -5.64535e-06 -9.6985e-16)
(-3.40054e-06 -5.40881e-06 1.2338e-16)
(-3.14701e-06 -5.23359e-06 1.72695e-15)
(-2.98547e-06 -5.00713e-06 -3.73586e-17)
(-2.84581e-06 -5.09816e-06 1.70598e-16)
(-2.9187e-06 -4.43497e-06 -1.40752e-15)
(-2.80845e-06 -5.64018e-06 -1.67646e-15)
(-2.53307e-06 -2.8531e-06 -2.11121e-17)
(-1.38553e-06 -8.19012e-06 6.30228e-16)
(-1.16132e-05 -8.70488e-06 -2.39439e-16)
(-1.09971e-05 -8.67591e-06 2.68142e-16)
(-1.04007e-05 -8.60442e-06 -1.10571e-16)
(-9.86117e-06 -8.53369e-06 -2.15868e-16)
(-9.35337e-06 -8.45628e-06 7.03337e-16)
(-8.90211e-06 -8.38726e-06 -5.63978e-16)
(-8.47873e-06 -8.31867e-06 9.9191e-17)
(-8.09847e-06 -8.25615e-06 6.16083e-16)
(-7.75502e-06 -8.18738e-06 -6.1474e-16)
(-7.48362e-06 -8.13367e-06 -1.8583e-15)
(-6.83116e-06 -8.02738e-06 3.37803e-17)
(-7.04934e-06 -8.25356e-06 -3.5446e-16)
(-9.46583e-06 -8.88375e-06 3.28172e-16)
(-9.0334e-06 -8.70938e-06 3.45037e-16)
(-8.64649e-06 -8.50792e-06 -1.00434e-16)
(-8.21672e-06 -8.23053e-06 -2.23453e-16)
(-7.83717e-06 -8.00697e-06 7.12643e-16)
(-7.42125e-06 -7.74806e-06 -2.74369e-16)
(-6.37919e-06 -7.43007e-06 -4.00507e-16)
(-4.79915e-06 -7.16822e-06 3.30291e-16)
(-4.64955e-06 -7.07936e-06 -1.0045e-15)
(-4.48925e-06 -6.9837e-06 6.39846e-16)
(-4.33525e-06 -6.8788e-06 -3.79414e-16)
(-4.09954e-06 -6.60152e-06 -5.21349e-16)
(-3.99778e-06 -6.23028e-06 2.87822e-16)
(-4.09399e-06 -6.23819e-06 2.01584e-16)
(-3.89546e-06 -6.07277e-06 4.20762e-16)
(-3.70258e-06 -5.90009e-06 -4.56552e-16)
(-3.47166e-06 -5.71039e-06 -7.81238e-16)
(-3.29351e-06 -5.54504e-06 2.68957e-16)
(-3.11834e-06 -5.32013e-06 4.30377e-17)
(-2.91047e-06 -5.13732e-06 -1.72238e-16)
(-2.76977e-06 -4.87723e-06 1.24179e-17)
(-2.65626e-06 -4.95213e-06 -1.38844e-16)
(-2.74871e-06 -4.32536e-06 2.83405e-15)
(-2.6256e-06 -5.44532e-06 -1.33369e-16)
(-2.37798e-06 -2.78419e-06 2.6819e-16)
(-1.1996e-06 -7.8956e-06 -9.54609e-17)
(-6.73271e-05 -3.62021e-05 -7.59033e-17)
(-6.69077e-05 -3.29819e-05 -2.39112e-17)
(-6.37028e-05 -3.13062e-05 -2.77019e-18)
(-6.05383e-05 -2.96057e-05 -2.61503e-17)
(-5.73439e-05 -2.80494e-05 -1.17659e-17)
(-5.42214e-05 -2.6553e-05 -8.89454e-18)
(-5.12338e-05 -2.51558e-05 2.48426e-17)
(-4.84488e-05 -2.3882e-05 6.72123e-17)
(-4.58487e-05 -2.26978e-05 -2.89458e-17)
(-4.34836e-05 -2.15937e-05 -5.41154e-17)
(-4.13196e-05 -2.05529e-05 2.53327e-17)
(-3.93803e-05 -1.95868e-05 -5.02907e-17)
(-3.7616e-05 -1.86834e-05 -6.09913e-17)
(-3.60478e-05 -1.78491e-05 -5.36874e-17)
(-3.46135e-05 -1.70683e-05 -1.08119e-16)
(-3.33384e-05 -1.63344e-05 -1.02443e-17)
(-3.2153e-05 -1.56441e-05 -8.98378e-17)
(-3.10904e-05 -1.49933e-05 -5.33955e-17)
(-3.00771e-05 -1.43853e-05 -1.20536e-16)
(-2.9151e-05 -1.38043e-05 -1.00106e-17)
(-2.8243e-05 -1.32505e-05 1.40527e-16)
(-2.73993e-05 -1.27278e-05 1.41597e-16)
(-2.65499e-05 -1.22455e-05 -8.45865e-17)
(-2.57512e-05 -1.17836e-05 5.85591e-17)
(-2.4932e-05 -1.13396e-05 1.26206e-16)
(-2.41555e-05 -1.09261e-05 1.14927e-17)
(-2.33544e-05 -1.05517e-05 -1.07162e-16)
(-2.25949e-05 -1.02035e-05 -7.39825e-18)
(-2.18064e-05 -9.86323e-06 2.56483e-17)
(-2.10543e-05 -9.54901e-06 -1.19019e-17)
(-2.02778e-05 -9.27504e-06 -9.52284e-17)
(-1.95339e-05 -9.02067e-06 8.13102e-17)
(-1.87612e-05 -8.77609e-06 -2.4099e-16)
(-1.80239e-05 -8.59073e-06 -9.33979e-17)
(-1.72665e-05 -8.40607e-06 1.70058e-16)
(-1.65349e-05 -8.25187e-06 3.13041e-17)
(-1.57921e-05 -8.10826e-06 2.104e-17)
(-1.50713e-05 -7.99148e-06 -3.2555e-17)
(-1.43374e-05 -7.87959e-06 4.52575e-17)
(-1.36631e-05 -7.73166e-06 2.55571e-16)
(-1.32093e-05 -7.6931e-06 -9.47148e-17)
(-1.13513e-05 -7.5393e-06 2.14453e-18)
(-1.05643e-05 -7.75508e-06 1.815e-17)
(-1.4563e-05 -8.74157e-06 -1.51015e-16)
(-1.4074e-05 -8.71877e-06 7.08174e-16)
(-1.35138e-05 -8.64714e-06 1.44946e-17)
(-1.29851e-05 -8.58992e-06 -6.5727e-16)
(-1.24511e-05 -8.53947e-06 5.98802e-16)
(-1.19541e-05 -8.49005e-06 3.82735e-16)
(-1.1443e-05 -8.439e-06 -7.98584e-17)
(-1.09679e-05 -8.38689e-06 9.911e-18)
(-1.0475e-05 -8.32647e-06 -6.37526e-16)
(-1.00633e-05 -8.25452e-06 -1.00421e-15)
(-9.69923e-06 -8.16564e-06 -6.10104e-17)
(-8.12932e-06 -7.85306e-06 -2.14394e-16)
(-5.63204e-06 -7.54866e-06 3.17237e-16)
(-5.45419e-06 -7.49492e-06 -7.38552e-17)
(-5.27429e-06 -7.35622e-06 -1.4383e-15)
(-5.10204e-06 -7.21933e-06 -4.97867e-17)
(-4.87861e-06 -7.0368e-06 4.51525e-16)
(-4.70371e-06 -6.90757e-06 2.13347e-16)
(-4.33764e-06 -6.626e-06 5.01287e-16)
(-4.24006e-06 -6.34616e-06 4.15991e-16)
(-4.08071e-06 -6.31037e-06 6.61534e-16)
(-3.93733e-06 -6.265e-06 1.12126e-15)
(-3.82123e-06 -6.21116e-06 2.59652e-17)
(-3.65444e-06 -6.10069e-06 1.34377e-16)
(-3.54903e-06 -6.01579e-06 -1.80617e-16)
(-3.64946e-06 -6.06161e-06 -1.64927e-16)
(-3.47582e-06 -5.91839e-06 8.42977e-16)
(-3.31951e-06 -5.77149e-06 -6.83957e-16)
(-3.14174e-06 -5.56804e-06 -4.30321e-17)
(-2.99449e-06 -5.3625e-06 -5.80694e-16)
(-2.84336e-06 -5.15523e-06 7.62786e-16)
(-2.67025e-06 -4.98539e-06 -3.18084e-16)
(-2.55556e-06 -4.74284e-06 4.24019e-17)
(-2.47227e-06 -4.79926e-06 8.8267e-17)
(-2.58246e-06 -4.21269e-06 -1.91267e-15)
(-2.44983e-06 -5.25045e-06 7.61514e-16)
(-2.22281e-06 -2.71676e-06 1.79991e-16)
(-1.01586e-06 -7.6036e-06 6.7256e-18)
(-7.25471e-05 -3.00498e-05 -1.368e-17)
(-7.53022e-05 -2.83877e-05 -9.7214e-18)
(-7.40267e-05 -2.68773e-05 8.61623e-18)
(-7.2112e-05 -2.54021e-05 -1.06483e-18)
(-6.97436e-05 -2.40388e-05 -1.19121e-17)
(-6.70869e-05 -2.27208e-05 3.79069e-17)
(-6.42445e-05 -2.14885e-05 1.29777e-17)
(-6.13249e-05 -2.03417e-05 -1.01033e-17)
(-5.83844e-05 -1.92798e-05 3.17941e-17)
(-5.55008e-05 -1.82799e-05 -4.03462e-18)
(-5.27044e-05 -1.73551e-05 3.44959e-17)
(-5.00386e-05 -1.64952e-05 5.52129e-17)
(-4.75133e-05 -1.57174e-05 -3.68586e-17)
(-4.51556e-05 -1.49951e-05 4.63794e-17)
(-4.29542e-05 -1.43492e-05 -2.80681e-17)
(-4.09266e-05 -1.37491e-05 -9.07899e-17)
(-3.90468e-05 -1.32161e-05 -6.60507e-18)
(-3.73281e-05 -1.27177e-05 2.18934e-17)
(-3.57373e-05 -1.22816e-05 1.85449e-17)
(-3.42825e-05 -1.18692e-05 -2.34438e-17)
(-3.29301e-05 -1.15025e-05 -1.04084e-17)
(-3.16893e-05 -1.11417e-05 -3.38899e-18)
(-3.05233e-05 -1.08268e-05 -2.54971e-17)
(-2.94461e-05 -1.0515e-05 -4.17484e-17)
(-2.84197e-05 -1.02311e-05 1.27006e-17)
(-2.74616e-05 -9.93735e-06 5.61302e-17)
(-2.65372e-05 -9.68623e-06 -4.90731e-17)
(-2.56715e-05 -9.43159e-06 4.72367e-17)
(-2.48262e-05 -9.20409e-06 -2.22842e-17)
(-2.40258e-05 -8.96385e-06 4.62023e-17)
(-2.32378e-05 -8.78133e-06 -1.09886e-16)
(-2.2495e-05 -8.59556e-06 -1.16799e-16)
(-2.17541e-05 -8.43529e-06 -8.71666e-18)
(-2.10504e-05 -8.27929e-06 -1.98071e-16)
(-2.03591e-05 -8.19705e-06 -2.37242e-17)
(-1.96902e-05 -8.09733e-06 8.08411e-17)
(-1.90267e-05 -8.03781e-06 3.98112e-17)
(-1.83804e-05 -7.95246e-06 3.12142e-17)
(-1.77255e-05 -7.89939e-06 6.15767e-17)
(-1.70451e-05 -7.81493e-06 1.89248e-16)
(-1.65546e-05 -7.70185e-06 -1.5809e-17)
(-1.62544e-05 -7.65639e-06 -1.31167e-16)
(-1.36987e-05 -7.35059e-06 1.17861e-16)
(-9.34585e-06 -6.89536e-06 -2.65803e-16)
(-8.86828e-06 -6.94008e-06 -4.51952e-16)
(-8.44847e-06 -6.91219e-06 2.55288e-17)
(-8.0497e-06 -6.91008e-06 1.98776e-16)
(-7.6713e-06 -6.91085e-06 -2.89549e-16)
(-7.3137e-06 -6.92306e-06 2.64927e-16)
(-6.96716e-06 -6.93213e-06 1.167e-16)
(-6.63972e-06 -6.94173e-06 2.15992e-16)
(-6.31582e-06 -6.94214e-06 4.97972e-16)
(-6.03299e-06 -6.92846e-06 5.4091e-16)
(-5.79553e-06 -6.90971e-06 -2.29382e-17)
(-5.40101e-06 -6.6921e-06 -4.92038e-17)
(-5.34895e-06 -6.40877e-06 1.66467e-16)
(-5.15846e-06 -6.40768e-06 1.84756e-16)
(-4.9284e-06 -6.36014e-06 1.12648e-15)
(-4.72078e-06 -6.28575e-06 1.56593e-17)
(-4.48655e-06 -6.20321e-06 -1.05777e-15)
(-4.27533e-06 -6.11554e-06 1.09747e-16)
(-3.96245e-06 -6.05166e-06 -5.13582e-16)
(-3.75499e-06 -6.06526e-06 -2.637e-16)
(-3.59849e-06 -6.02624e-06 9.41354e-19)
(-3.46472e-06 -5.98754e-06 -9.20704e-16)
(-3.36035e-06 -5.94592e-06 1.03948e-16)
(-3.24344e-06 -5.84201e-06 5.71427e-17)
(-3.14518e-06 -5.70294e-06 -1.02338e-17)
(-3.24511e-06 -5.79631e-06 1.32823e-16)
(-3.07839e-06 -5.67313e-06 -4.4068e-16)
(-2.95629e-06 -5.52709e-06 2.13102e-16)
(-2.8138e-06 -5.34514e-06 1.08511e-16)
(-2.69788e-06 -5.15844e-06 4.23e-17)
(-2.57758e-06 -4.97358e-06 -1.82673e-15)
(-2.43542e-06 -4.82039e-06 -5.39334e-16)
(-2.34802e-06 -4.59622e-06 -1.50459e-17)
(-2.29433e-06 -4.64341e-06 3.64624e-17)
(-2.42105e-06 -4.10285e-06 -1.43937e-15)
(-2.27866e-06 -5.0526e-06 4.97175e-16)
(-2.06654e-06 -2.64531e-06 -4.05508e-16)
(-8.34228e-07 -7.31464e-06 1.07397e-17)
(-6.41332e-05 -2.64641e-05 -1.24945e-17)
(-6.93102e-05 -2.61015e-05 -5.10795e-18)
(-7.05195e-05 -2.5277e-05 1.23614e-17)
(-7.07673e-05 -2.43071e-05 8.18636e-18)
(-7.02634e-05 -2.33293e-05 -3.79514e-18)
(-6.91264e-05 -2.23496e-05 -3.65751e-18)
(-6.74934e-05 -2.13932e-05 1.39279e-17)
(-6.54712e-05 -2.0447e-05 -1.00209e-17)
(-6.31673e-05 -1.95089e-05 -3.13414e-18)
(-6.0666e-05 -1.85951e-05 1.5489e-17)
(-5.80534e-05 -1.77162e-05 -1.89775e-18)
(-5.53749e-05 -1.68614e-05 2.28327e-17)
(-5.27026e-05 -1.60421e-05 2.06533e-17)
(-5.00592e-05 -1.52621e-05 -1.28002e-17)
(-4.74923e-05 -1.45313e-05 3.66173e-17)
(-4.50063e-05 -1.38422e-05 -1.04096e-17)
(-4.26338e-05 -1.32028e-05 -2.52542e-17)
(-4.03677e-05 -1.26084e-05 3.12099e-17)
(-3.82311e-05 -1.20652e-05 1.58742e-17)
(-3.62044e-05 -1.15627e-05 2.35003e-18)
(-3.4307e-05 -1.11085e-05 -9.74057e-18)
(-3.25129e-05 -1.06845e-05 -6.92591e-17)
(-3.08355e-05 -1.02942e-05 3.68194e-18)
(-2.92481e-05 -9.92718e-06 -3.64981e-17)
(-2.7761e-05 -9.5941e-06 -1.08977e-17)
(-2.63467e-05 -9.26893e-06 1.8527e-17)
(-2.50173e-05 -8.95731e-06 3.52151e-17)
(-2.3748e-05 -8.65435e-06 3.41014e-18)
(-2.25489e-05 -8.38087e-06 8.4211e-18)
(-2.13961e-05 -8.10656e-06 -1.09556e-17)
(-2.03044e-05 -7.8414e-06 2.80971e-17)
(-1.9258e-05 -7.59317e-06 -5.90605e-17)
(-1.82646e-05 -7.3861e-06 -1.41018e-17)
(-1.73107e-05 -7.1709e-06 3.87826e-17)
(-1.64103e-05 -7.00648e-06 -1.15781e-16)
(-1.55533e-05 -6.86225e-06 -6.01394e-17)
(-1.47374e-05 -6.75416e-06 2.07963e-17)
(-1.39649e-05 -6.65518e-06 -1.70315e-17)
(-1.32213e-05 -6.60619e-06 -3.33312e-17)
(-1.24755e-05 -6.54473e-06 -5.14383e-17)
(-1.18477e-05 -6.46917e-06 3.91629e-17)
(-1.13878e-05 -6.44259e-06 -4.01285e-17)
(-1.05702e-05 -6.22274e-06 -1.14856e-16)
(-1.0435e-05 -5.98706e-06 4.6489e-17)
(-9.90264e-06 -6.01879e-06 -2.38371e-16)
(-9.37477e-06 -6.01285e-06 3.17337e-19)
(-8.85667e-06 -6.00924e-06 1.47453e-17)
(-8.36795e-06 -6.00761e-06 1.70985e-16)
(-7.88937e-06 -6.01202e-06 -3.33649e-16)
(-7.44136e-06 -6.0155e-06 1.43964e-19)
(-7.00382e-06 -6.02175e-06 3.58367e-16)
(-6.59632e-06 -6.02802e-06 -1.1865e-16)
(-6.20884e-06 -6.02551e-06 4.96367e-16)
(-5.90501e-06 -6.03679e-06 2.98472e-17)
(-5.4179e-06 -6.02408e-06 -6.52518e-17)
(-5.09189e-06 -6.1065e-06 -6.43382e-17)
(-4.81814e-06 -6.09654e-06 -4.20485e-18)
(-4.57631e-06 -6.07951e-06 -6.34397e-16)
(-4.33103e-06 -6.03259e-06 2.19465e-16)
(-4.1043e-06 -5.97092e-06 6.07113e-16)
(-3.89202e-06 -5.90169e-06 -1.34399e-16)
(-3.62327e-06 -5.80411e-06 1.00799e-15)
(-3.41989e-06 -5.7349e-06 1.48836e-17)
(-3.23592e-06 -5.67825e-06 -1.84782e-16)
(-3.08565e-06 -5.64828e-06 -2.21813e-16)
(-2.97925e-06 -5.59696e-06 -2.70751e-16)
(-2.86575e-06 -5.50473e-06 5.21107e-16)
(-2.78856e-06 -5.41518e-06 1.23196e-16)
(-2.87033e-06 -5.5136e-06 2.62877e-16)
(-2.74006e-06 -5.40364e-06 -4.81923e-16)
(-2.62687e-06 -5.27053e-06 1.51524e-16)
(-2.52069e-06 -5.1089e-06 -1.12321e-16)
(-2.4279e-06 -4.93924e-06 -1.17109e-15)
(-2.32449e-06 -4.7802e-06 -3.83474e-16)
(-2.21093e-06 -4.64777e-06 1.39214e-16)
(-2.14763e-06 -4.44752e-06 9.83253e-18)
(-2.12333e-06 -4.4796e-06 1.81989e-16)
(-2.26262e-06 -3.98297e-06 2.68115e-16)
(-2.10898e-06 -4.85304e-06 -8.99811e-16)
(-1.90944e-06 -2.5759e-06 -2.02951e-16)
(-6.5074e-07 -7.02599e-06 -5.1377e-16)
(-4.8984e-05 -2.76256e-05 6.81461e-18)
(-5.59966e-05 -2.6596e-05 -2.02436e-18)
(-5.96649e-05 -2.53503e-05 -9.01032e-18)
(-6.22282e-05 -2.41835e-05 -2.64037e-18)
(-6.38889e-05 -2.31036e-05 5.94567e-18)
(-6.47202e-05 -2.20889e-05 -2.58413e-19)
(-6.48319e-05 -2.11441e-05 -4.50405e-18)
(-6.43321e-05 -2.02384e-05 1.85925e-18)
(-6.33178e-05 -1.93553e-05 -2.0162e-17)
(-6.18913e-05 -1.8505e-05 -1.31719e-17)
(-6.01439e-05 -1.76914e-05 -1.01669e-17)
(-5.81488e-05 -1.69063e-05 -1.96663e-18)
(-5.59831e-05 -1.61439e-05 2.68176e-17)
(-5.37051e-05 -1.54148e-05 -7.73051e-18)
(-5.13684e-05 -1.47219e-05 -3.10253e-17)
(-4.90134e-05 -1.40641e-05 1.47825e-17)
(-4.66754e-05 -1.3439e-05 -1.00241e-17)
(-4.43815e-05 -1.2854e-05 -4.74136e-17)
(-4.21549e-05 -1.23106e-05 -6.82492e-18)
(-4.00074e-05 -1.18033e-05 -5.62955e-19)
(-3.79534e-05 -1.13344e-05 4.05325e-17)
(-3.5994e-05 -1.09008e-05 5.26218e-17)
(-3.41348e-05 -1.05046e-05 5.02391e-18)
(-3.23728e-05 -1.01332e-05 1.90171e-17)
(-3.07082e-05 -9.79253e-06 -3.24757e-19)
(-2.9134e-05 -9.47122e-06 3.36148e-17)
(-2.76476e-05 -9.17169e-06 -1.49587e-17)
(-2.62399e-05 -8.87748e-06 -3.48666e-18)
(-2.49071e-05 -8.60303e-06 -2.17772e-18)
(-2.36404e-05 -8.33158e-06 7.36956e-18)
(-2.24391e-05 -8.07543e-06 -2.85282e-18)
(-2.12945e-05 -7.8103e-06 2.88873e-17)
(-2.02048e-05 -7.57052e-06 -3.89231e-19)
(-1.9166e-05 -7.33909e-06 8.22771e-19)
(-1.81752e-05 -7.10489e-06 2.12067e-17)
(-1.72252e-05 -6.87784e-06 7.08761e-17)
(-1.63141e-05 -6.69569e-06 -4.42197e-17)
(-1.54427e-05 -6.52202e-06 -2.93842e-18)
(-1.46094e-05 -6.38421e-06 4.89832e-17)
(-1.37787e-05 -6.26345e-06 4.60941e-18)
(-1.30177e-05 -6.14627e-06 -8.50703e-17)
(-1.24098e-05 -6.08416e-06 3.69129e-17)
(-1.1492e-05 -6.03347e-06 7.77382e-17)
(-1.07415e-05 -6.06756e-06 2.01328e-16)
(-1.01056e-05 -6.06281e-06 2.11868e-16)
(-9.50446e-06 -6.05825e-06 4.92847e-17)
(-8.92806e-06 -6.05291e-06 -7.55935e-18)
(-8.38169e-06 -6.03748e-06 -1.04045e-16)
(-7.85909e-06 -6.02409e-06 1.19926e-16)
(-7.3642e-06 -6.00451e-06 -5.44749e-17)
(-6.89543e-06 -5.9866e-06 -2.77392e-16)
(-6.45287e-06 -5.96352e-06 -1.76955e-16)
(-6.04127e-06 -5.93204e-06 -7.99268e-17)
(-5.70018e-06 -5.90489e-06 -4.79474e-17)
(-5.2726e-06 -5.83511e-06 4.23751e-17)
(-4.93567e-06 -5.79475e-06 -4.06224e-16)
(-4.61784e-06 -5.76761e-06 -1.9247e-16)
(-4.33161e-06 -5.7362e-06 -2.25994e-16)
(-4.06923e-06 -5.69282e-06 -5.52843e-16)
(-3.82067e-06 -5.64064e-06 1.254e-16)
(-3.60051e-06 -5.5812e-06 -1.40629e-16)
(-3.34455e-06 -5.49767e-06 -5.43873e-16)
(-3.13264e-06 -5.42168e-06 5.71151e-16)
(-2.94426e-06 -5.37149e-06 7.14591e-16)
(-2.78379e-06 -5.3137e-06 -1.12861e-16)
(-2.67689e-06 -5.26986e-06 -3.33012e-16)
(-2.55876e-06 -5.19205e-06 -7.9778e-18)
(-2.48662e-06 -5.11626e-06 -6.4641e-17)
(-2.57769e-06 -5.24417e-06 1.59078e-16)
(-2.44805e-06 -5.13339e-06 1.27665e-16)
(-2.35612e-06 -5.00918e-06 1.04702e-16)
(-2.26316e-06 -4.85386e-06 3.01844e-16)
(-2.17488e-06 -4.7166e-06 5.75345e-16)
(-2.08124e-06 -4.57942e-06 2.44271e-16)
(-1.99125e-06 -4.45924e-06 5.51253e-17)
(-1.9538e-06 -4.27776e-06 -1.39378e-16)
(-1.95245e-06 -4.30542e-06 -9.72188e-16)
(-2.10177e-06 -3.86301e-06 4.26311e-16)
(-1.93956e-06 -4.6469e-06 4.60157e-16)
(-1.75192e-06 -2.50263e-06 6.12624e-16)
(-4.70857e-07 -6.74097e-06 1.88963e-15)
(-3.05095e-05 -3.10905e-05 4.92309e-19)
(-3.81075e-05 -3.03466e-05 1.82288e-18)
(-4.34589e-05 -2.90888e-05 6.03295e-18)
(-4.78206e-05 -2.7835e-05 1.81913e-18)
(-5.13366e-05 -2.66076e-05 -3.24312e-18)
(-5.40142e-05 -2.54166e-05 -1.44217e-18)
(-5.59136e-05 -2.42725e-05 -2.46204e-19)
(-5.71021e-05 -2.31747e-05 -6.65896e-20)
(-5.76499e-05 -2.21278e-05 3.0345e-20)
(-5.76355e-05 -2.11206e-05 -8.03921e-18)
(-5.71426e-05 -2.01578e-05 9.68622e-18)
(-5.62403e-05 -1.92389e-05 -7.07832e-18)
(-5.50081e-05 -1.83672e-05 -1.72629e-17)
(-5.35104e-05 -1.75286e-05 -1.03256e-17)
(-5.18105e-05 -1.67256e-05 -3.77311e-18)
(-4.99627e-05 -1.59625e-05 3.27469e-18)
(-4.80155e-05 -1.52409e-05 1.41378e-18)
(-4.60098e-05 -1.45563e-05 -1.21945e-17)
(-4.3981e-05 -1.39112e-05 -1.80791e-17)
(-4.1955e-05 -1.33081e-05 -4.89615e-18)
(-3.99582e-05 -1.27477e-05 3.11717e-18)
(-3.80034e-05 -1.22276e-05 1.95907e-17)
(-3.61069e-05 -1.17487e-05 -2.73397e-17)
(-3.42757e-05 -1.13084e-05 6.02931e-18)
(-3.25185e-05 -1.0902e-05 -2.23607e-17)
(-3.08356e-05 -1.0524e-05 1.23682e-17)
(-2.92326e-05 -1.01746e-05 3.37596e-17)
(-2.77029e-05 -9.84465e-06 -2.59979e-17)
(-2.62468e-05 -9.52965e-06 -4.72268e-17)
(-2.48587e-05 -9.22361e-06 -1.33403e-17)
(-2.3543e-05 -8.93125e-06 9.92225e-17)
(-2.22924e-05 -8.64681e-06 6.59307e-17)
(-2.11004e-05 -8.36627e-06 5.49492e-17)
(-1.99652e-05 -8.08987e-06 -4.93651e-19)
(-1.88849e-05 -7.84553e-06 -5.80205e-17)
(-1.78487e-05 -7.60599e-06 -6.42648e-17)
(-1.68572e-05 -7.39481e-06 4.87835e-17)
(-1.591e-05 -7.19874e-06 -2.02088e-17)
(-1.50159e-05 -7.03624e-06 -6.40297e-17)
(-1.41375e-05 -6.87843e-06 4.9793e-17)
(-1.33115e-05 -6.72468e-06 -1.32385e-17)
(-1.26136e-05 -6.60909e-06 2.98235e-19)
(-1.17779e-05 -6.46983e-06 -3.83493e-17)
(-1.1066e-05 -6.37013e-06 3.23761e-18)
(-1.03703e-05 -6.30358e-06 -1.72688e-16)
(-9.71365e-06 -6.2327e-06 -1.14783e-16)
(-9.09062e-06 -6.17216e-06 -2.42493e-17)
(-8.5038e-06 -6.1071e-06 -2.30185e-16)
(-7.94654e-06 -6.04909e-06 -1.81454e-16)
(-7.4225e-06 -5.98674e-06 -5.94222e-17)
(-6.93039e-06 -5.93074e-06 -1.64005e-16)
(-6.46999e-06 -5.87209e-06 1.18359e-16)
(-6.03873e-06 -5.81032e-06 -3.20119e-16)
(-5.66843e-06 -5.75242e-06 -4.52554e-17)
(-5.2481e-06 -5.66696e-06 2.14061e-16)
(-4.89044e-06 -5.60107e-06 4.20002e-17)
(-4.56177e-06 -5.5495e-06 -1.03346e-16)
(-4.2618e-06 -5.50019e-06 9.20986e-16)
(-3.98513e-06 -5.44739e-06 5.36336e-17)
(-3.7267e-06 -5.39337e-06 -7.8864e-16)
(-3.4952e-06 -5.33618e-06 1.93124e-16)
(-3.24612e-06 -5.2612e-06 -6.62689e-16)
(-3.03021e-06 -5.1904e-06 -3.64887e-17)
(-2.83156e-06 -5.12242e-06 8.00524e-17)
(-2.66966e-06 -5.06481e-06 -1.72266e-15)
(-2.53081e-06 -4.99881e-06 4.28783e-17)
(-2.41998e-06 -4.92652e-06 7.87349e-17)
(-2.32346e-06 -4.86079e-06 -2.46922e-16)
(-2.40441e-06 -4.99915e-06 3.22995e-16)
(-2.27878e-06 -4.88716e-06 -2.28363e-17)
(-2.17801e-06 -4.76077e-06 1.06683e-16)
(-2.07882e-06 -4.63521e-06 -7.12204e-16)
(-1.98e-06 -4.50439e-06 -6.83271e-16)
(-1.89397e-06 -4.3798e-06 6.13244e-17)
(-1.8093e-06 -4.26783e-06 -5.03143e-17)
(-1.78354e-06 -4.11207e-06 1.24014e-16)
(-1.7926e-06 -4.12903e-06 -6.68457e-16)
(-1.95499e-06 -3.73351e-06 8.53239e-17)
(-1.76927e-06 -4.43531e-06 -6.87723e-16)
(-1.61716e-06 -2.43207e-06 -8.16019e-17)
(-2.66296e-07 -6.45318e-06 1.45433e-15)
(-1.14425e-05 -3.52942e-05 2.71373e-18)
(-1.76752e-05 -3.46532e-05 4.04595e-18)
(-2.29909e-05 -3.30186e-05 -1.01359e-18)
(-2.77026e-05 -3.13809e-05 1.98608e-18)
(-3.18604e-05 -2.97703e-05 1.753e-18)
(-3.54115e-05 -2.82137e-05 -1.57993e-17)
(-3.83528e-05 -2.67135e-05 -9.37546e-18)
(-4.06842e-05 -2.52856e-05 -3.43212e-18)
(-4.24254e-05 -2.3927e-05 -1.05439e-18)
(-4.36197e-05 -2.2647e-05 4.03055e-18)
(-4.42974e-05 -2.14341e-05 -9.1118e-18)
(-4.45168e-05 -2.0294e-05 1.2417e-17)
(-4.43295e-05 -1.92223e-05 2.13791e-18)
(-4.37911e-05 -1.82195e-05 7.6401e-18)
(-4.29542e-05 -1.72729e-05 1.90315e-17)
(-4.18785e-05 -1.63862e-05 1.71603e-17)
(-4.06061e-05 -1.55522e-05 1.49367e-17)
(-3.91844e-05 -1.47702e-05 5.83816e-18)
(-3.76584e-05 -1.40338e-05 2.60942e-17)
(-3.60568e-05 -1.33431e-05 -1.29594e-17)
(-3.4417e-05 -1.26964e-05 -3.83828e-17)
(-3.27601e-05 -1.2092e-05 -8.38797e-18)
(-3.11095e-05 -1.15267e-05 -2.42114e-18)
(-2.94863e-05 -1.09997e-05 -1.11177e-17)
(-2.79013e-05 -1.05098e-05 -8.53727e-18)
(-2.63633e-05 -1.00515e-05 -2.8479e-17)
(-2.48826e-05 -9.6244e-06 -5.44134e-18)
(-2.34633e-05 -9.22236e-06 -1.47153e-18)
(-2.21089e-05 -8.84452e-06 3.04926e-17)
(-2.08172e-05 -8.48366e-06 -9.34158e-18)
(-1.9591e-05 -8.14065e-06 1.04578e-17)
(-1.84293e-05 -7.80804e-06 3.18347e-17)
(-1.73265e-05 -7.48751e-06 2.61934e-17)
(-1.62787e-05 -7.17459e-06 6.96894e-17)
(-1.52862e-05 -6.87216e-06 5.22339e-18)
(-1.43418e-05 -6.57772e-06 -4.59042e-17)
(-1.34465e-05 -6.29776e-06 -6.54624e-17)
(-1.26009e-05 -6.03086e-06 2.13033e-17)
(-1.18089e-05 -5.80356e-06 5.94735e-17)
(-1.10422e-05 -5.58792e-06 -3.57528e-17)
(-1.03285e-05 -5.38377e-06 6.22451e-17)
(-9.67629e-06 -5.20322e-06 -1.07369e-17)
(-9.00375e-06 -5.03929e-06 2.29842e-17)
(-8.39031e-06 -4.89729e-06 -1.29038e-16)
(-7.81597e-06 -4.78104e-06 -3.72253e-17)
(-7.27851e-06 -4.66585e-06 3.37732e-17)
(-6.7745e-06 -4.56177e-06 -4.37079e-17)
(-6.3031e-06 -4.45842e-06 -4.89982e-17)
(-5.86024e-06 -4.36639e-06 7.65382e-17)
(-5.44692e-06 -4.27766e-06 3.90696e-18)
(-5.06169e-06 -4.19879e-06 1.43064e-16)
(-4.70257e-06 -4.12756e-06 2.3933e-16)
(-4.36921e-06 -4.06473e-06 2.83643e-17)
(-4.07023e-06 -4.01052e-06 7.1249e-17)
(-3.76079e-06 -3.95282e-06 1.27046e-17)
(-3.48453e-06 -3.9096e-06 1.92197e-16)
(-3.23014e-06 -3.87772e-06 4.33604e-17)
(-2.99832e-06 -3.85218e-06 -3.20757e-16)
(-2.7855e-06 -3.82872e-06 3.08808e-16)
(-2.58979e-06 -3.80669e-06 8.12586e-17)
(-2.41565e-06 -3.78523e-06 -5.96184e-17)
(-2.23916e-06 -3.75472e-06 4.76738e-16)
(-2.08616e-06 -3.72437e-06 -1.44175e-16)
(-1.94716e-06 -3.69762e-06 -1.21564e-16)
(-1.83135e-06 -3.66756e-06 8.46084e-16)
(-1.73961e-06 -3.63946e-06 -6.35442e-17)
(-1.6571e-06 -3.60994e-06 -3.78699e-16)
(-1.60471e-06 -3.59395e-06 -3.62443e-18)
(-1.69406e-06 -3.76692e-06 -1.35295e-16)
(-1.60119e-06 -3.69608e-06 -3.55666e-17)
(-1.52525e-06 -3.62477e-06 -8.64197e-17)
(-1.45379e-06 -3.54406e-06 4.53683e-16)
(-1.39229e-06 -3.47377e-06 4.7416e-16)
(-1.3327e-06 -3.40512e-06 2.05272e-16)
(-1.28798e-06 -3.34898e-06 1.70757e-16)
(-1.28866e-06 -3.27074e-06 -1.19529e-16)
(-1.3298e-06 -3.31097e-06 7.25614e-16)
(-1.50258e-06 -3.08419e-06 1.00232e-17)
(-1.3532e-06 -3.63361e-06 8.06812e-16)
(-1.2985e-06 -2.10586e-06 -4.10196e-16)
(-6.11441e-08 -5.59828e-06 -2.34456e-15)
(-7.76524e-07 -4.04624e-05 9.35721e-18)
(-4.44016e-06 -4.00894e-05 -3.35706e-18)
(-8.1649e-06 -3.84749e-05 -4.58697e-18)
(-1.1797e-05 -3.68118e-05 7.12408e-19)
(-1.53188e-05 -3.51446e-05 5.52658e-18)
(-1.86553e-05 -3.35037e-05 7.54968e-18)
(-2.17478e-05 -3.18932e-05 -4.12698e-18)
(-2.45453e-05 -3.03267e-05 4.11889e-19)
(-2.70054e-05 -2.88017e-05 9.2201e-18)
(-2.91101e-05 -2.73406e-05 5.19027e-18)
(-3.08375e-05 -2.5937e-05 -4.46979e-18)
(-3.21907e-05 -2.4596e-05 -9.47475e-18)
(-3.31759e-05 -2.33195e-05 5.92906e-19)
(-3.38141e-05 -2.21064e-05 5.09894e-20)
(-3.41228e-05 -2.09522e-05 -8.32177e-19)
(-3.41406e-05 -1.9858e-05 1.69158e-18)
(-3.38902e-05 -1.8823e-05 1.1559e-17)
(-3.34107e-05 -1.78388e-05 5.93291e-18)
(-3.27359e-05 -1.69089e-05 -1.27184e-17)
(-3.18945e-05 -1.60267e-05 2.07755e-17)
(-3.0927e-05 -1.51973e-05 1.41317e-17)
(-2.98565e-05 -1.44144e-05 -5.88206e-18)
(-2.87087e-05 -1.36779e-05 1.40598e-18)
(-2.75132e-05 -1.29866e-05 1.58472e-17)
(-2.62892e-05 -1.23435e-05 1.45183e-17)
(-2.50518e-05 -1.17404e-05 1.71288e-17)
(-2.38216e-05 -1.11801e-05 -1.3713e-17)
(-2.26048e-05 -1.06568e-05 -3.2112e-19)
(-2.14162e-05 -1.01697e-05 1.86136e-17)
(-2.02605e-05 -9.71349e-06 4.01128e-18)
(-1.91463e-05 -9.28835e-06 -2.61566e-17)
(-1.80735e-05 -8.88567e-06 -1.37086e-17)
(-1.70451e-05 -8.50244e-06 -6.89289e-18)
(-1.60568e-05 -8.13396e-06 2.14576e-17)
(-1.51161e-05 -7.78404e-06 4.21389e-17)
(-1.42161e-05 -7.44487e-06 4.28953e-17)
(-1.33625e-05 -7.12335e-06 3.06051e-17)
(-1.25509e-05 -6.80993e-06 -2.08092e-17)
(-1.17897e-05 -6.51886e-06 -6.5356e-17)
(-1.10504e-05 -6.24242e-06 2.87901e-17)
(-1.03434e-05 -5.97167e-06 7.80955e-18)
(-9.69361e-06 -5.71744e-06 2.60433e-17)
(-9.03888e-06 -5.47757e-06 -5.20168e-17)
(-8.43411e-06 -5.25779e-06 9.4898e-17)
(-7.86385e-06 -5.05689e-06 -3.50725e-17)
(-7.32686e-06 -4.87009e-06 1.09254e-16)
(-6.82007e-06 -4.70592e-06 3.56613e-17)
(-6.34205e-06 -4.55301e-06 -7.13804e-17)
(-5.88964e-06 -4.41814e-06 5.11664e-17)
(-5.46538e-06 -4.29655e-06 1.23681e-16)
(-5.06668e-06 -4.19252e-06 3.39074e-17)
(-4.69266e-06 -4.1006e-06 -4.31951e-17)
(-4.33778e-06 -4.02325e-06 2.29678e-16)
(-4.01862e-06 -3.95398e-06 4.77588e-17)
(-3.69231e-06 -3.88888e-06 -1.14445e-16)
(-3.39719e-06 -3.83339e-06 -2.93856e-16)
(-3.12384e-06 -3.79038e-06 -2.58204e-17)
(-2.87379e-06 -3.75174e-06 -1.99297e-17)
(-2.64306e-06 -3.72078e-06 -2.52909e-16)
(-2.43012e-06 -3.6914e-06 1.96158e-16)
(-2.24099e-06 -3.6669e-06 1.18719e-16)
(-2.05525e-06 -3.63751e-06 2.08481e-16)
(-1.89356e-06 -3.60925e-06 1.96517e-16)
(-1.74821e-06 -3.58273e-06 -4.36218e-16)
(-1.62744e-06 -3.55383e-06 5.38588e-16)
(-1.52375e-06 -3.52417e-06 3.46245e-16)
(-1.43444e-06 -3.49909e-06 2.2247e-17)
(-1.37559e-06 -3.48685e-06 1.15364e-16)
(-1.47947e-06 -3.67319e-06 -2.77003e-16)
(-1.37654e-06 -3.60618e-06 -5.95514e-17)
(-1.29807e-06 -3.53118e-06 -1.97495e-17)
(-1.22344e-06 -3.45833e-06 4.83175e-16)
(-1.15835e-06 -3.38425e-06 5.50352e-16)
(-1.1016e-06 -3.31752e-06 4.8497e-16)
(-1.06292e-06 -3.25536e-06 2.12778e-16)
(-1.07694e-06 -3.19323e-06 1.05046e-16)
(-1.13563e-06 -3.21001e-06 -7.47807e-16)
(-1.31311e-06 -3.02682e-06 1.65549e-16)
(-1.16517e-06 -3.48657e-06 7.20246e-16)
(-1.08151e-06 -2.0696e-06 -1.44857e-16)
(7.00104e-08 -5.38881e-06 -5.44551e-16)
(-4.36094e-06 -4.2386e-05 -2.26249e-18)
(-5.77887e-06 -4.2018e-05 3.94745e-18)
(-7.14649e-06 -4.03165e-05 1.72988e-18)
(-8.65357e-06 -3.85741e-05 4.83114e-19)
(-1.02839e-05 -3.68702e-05 5.45169e-19)
(-1.20157e-05 -3.52079e-05 1.37356e-18)
(-1.3806e-05 -3.35877e-05 5.04226e-18)
(-1.56099e-05 -3.20174e-05 -2.62954e-20)
(-1.73781e-05 -3.04986e-05 -7.03743e-18)
(-1.9062e-05 -2.90251e-05 -2.2593e-18)
(-2.0624e-05 -2.76077e-05 2.44859e-18)
(-2.20246e-05 -2.62398e-05 -3.44113e-18)
(-2.32386e-05 -2.49282e-05 -9.51821e-19)
(-2.42457e-05 -2.367e-05 -7.06318e-18)
(-2.50378e-05 -2.24673e-05 2.71589e-18)
(-2.56117e-05 -2.13203e-05 -1.72953e-18)
(-2.59663e-05 -2.02237e-05 -4.24308e-18)
(-2.61196e-05 -1.9181e-05 1.75899e-18)
(-2.60797e-05 -1.81892e-05 3.98997e-18)
(-2.5864e-05 -1.72435e-05 -1.17726e-17)
(-2.54954e-05 -1.63444e-05 -9.83381e-18)
(-2.4993e-05 -1.54938e-05 -2.55434e-18)
(-2.43735e-05 -1.46883e-05 -1.63259e-18)
(-2.36635e-05 -1.39277e-05 -1.16424e-17)
(-2.28794e-05 -1.32132e-05 -1.07116e-17)
(-2.20391e-05 -1.2542e-05 -9.58809e-18)
(-2.11624e-05 -1.19152e-05 3.01385e-17)
(-2.026e-05 -1.13309e-05 -5.75251e-19)
(-1.93468e-05 -1.07864e-05 -2.83192e-17)
(-1.84335e-05 -1.02795e-05 3.98434e-18)
(-1.75303e-05 -9.80979e-06 1.08315e-17)
(-1.66424e-05 -9.37096e-06 2.50481e-18)
(-1.57749e-05 -8.9584e-06 -7.97869e-18)
(-1.49301e-05 -8.56761e-06 -3.74571e-17)
(-1.41171e-05 -8.19687e-06 -7.49574e-18)
(-1.33337e-05 -7.8423e-06 1.94087e-17)
(-1.25871e-05 -7.50854e-06 2.01496e-17)
(-1.18742e-05 -7.18819e-06 5.49756e-18)
(-1.12001e-05 -6.88685e-06 -1.71899e-17)