/*--------------------------------*- C++ -*----------------------------------*\
| =========                 |                                                 |
| \\      /  F ield         | OpenFOAM: The Open Source CFD Toolbox           |
|  \\    /   O peration     | Version:  2306                                  |
|   \\  /    A nd           | Website:  www.openfoam.com                      |
|    \\/     M anipulation  |                                                 |
\*---------------------------------------------------------------------------*/
FoamFile
{
    version     2.0;
    format      ascii;
    arch        "LSB;label=32;scalar=64";
    class       surfaceScalarField;
    location    "325";
    object      phi;
}
// * * * * * * * * * * * * * * * * * * * * * * * * * * * * * * * * * * * * * //

dimensions      [0 3 -1 0 0 0 0];

oriented        oriented;

internalField   nonuniform List<scalar> 
2575
(
-0.582812
17.0053
18.6969
-0.606243
14.0163
-0.610565
15.4046
-0.612212
17.007
18.7068
-0.632196
11.5934
-0.634512
12.7458
-0.636193
14.0179
-0.640745
15.4092
-0.643066
17.0093
18.7168
-0.655157
8.71125
-0.65791
9.58427
-0.660622
10.5427
-0.663078
11.5959
-0.665619
12.7483
-0.667626
14.0199
-0.672466
15.414
-0.675467
17.0123
18.7269
-0.672597
7.76425
-0.675321
5.9471
-0.678122
6.54383
-0.681008
7.19831
-0.683926
7.92086
-0.686907
8.71423
-0.689896
9.58726
-0.69283
10.5457
-0.695521
11.5986
-0.698298
12.7511
-0.700654
14.0223
-0.705801
15.4192
-0.7095
17.016
18.737
-0.683579
5.93414
-0.688079
6.26273
-0.692507
6.6095
-0.69681
6.97514
-0.700995
7.36069
-0.705042
7.76829
-0.707937
5.94999
-0.710908
6.5468
-0.71395
7.20135
-0.717099
7.924
-0.720281
8.71741
-0.723512
9.59049
-0.726674
10.5488
-0.729609
11.6015
-0.73259
12.7541
-0.735363
14.0251
-0.740795
15.4246
-0.745202
17.0204
18.7473
-0.683206
4.07501
-0.688033
4.29996
-0.692875
4.53769
-0.697719
4.7884
-0.70257
5.05313
-0.70737
5.33266
-0.712148
5.62756
-0.716872
5.93886
-0.721541
6.2674
-0.726096
6.61406
-0.730569
6.97961
-0.73494
7.36506
-0.739215
7.77257
-0.742232
5.95301
-0.745373
6.54994
-0.748615
7.20459
-0.751952
7.92734
-0.755384
8.72085
-0.758815
9.59392
-0.762212
10.5522
-0.7654
11.6047
-0.76866
12.7573
-0.771807
14.0282
-0.777602
15.4304
-0.782774
17.0256
18.7577
-0.667229
2.14418
-0.670827
2.26211
-0.674546
2.38647
-0.678407
2.51763
-0.682396
2.65613
-0.686521
2.80239
-0.690751
2.95663
-0.695078
3.11956
-0.699523
3.29132
-0.704061
3.47282
-0.708683
3.6642
-0.713376
3.86639
-0.718129
4.07976
-0.722929
4.30476
-0.72778
4.54254
-0.732642
4.79326
-0.737503
5.05799
-0.742378
5.33754
-0.747251
5.63243
-0.752062
5.94367
-0.756837
6.27218
-0.76156
6.61878
-0.766191
6.98424
-0.77072
7.36959
-0.775169
7.77702
-0.778366
5.9562
-0.781672
6.55324
-0.785099
7.20802
-0.788625
7.93087
-0.792263
8.72448
-0.795961
9.59762
-0.799599
10.5559
-0.803045
11.6082
-0.806537
12.7608
-0.810078
14.0318
-0.816288
15.4366
-0.822164
17.0315
18.7683
-0.650453
0.216791
-0.650765
0.227256
-0.651118
0.239767
-0.651464
0.252943
-0.65184
0.266864
-0.652236
0.281538
-0.652664
0.297034
-0.653091
0.313338
-0.653553
0.330591
-0.65404
0.348754
-0.654554
0.367917
-0.655109
0.388156
-0.65567
0.409484
-0.656276
0.43199
-0.656917
0.455712
-0.657609
0.480765
-0.658316
0.507175
-0.659078
0.535031
-0.659886
0.564409
-0.660744
0.595424
-0.661653
0.628114
-0.662619
0.662607
-0.663656
0.699006
-0.664732
0.73736
-0.6659
0.77786
-0.667114
0.820547
-0.668416
0.865598
-0.669798
0.913076
-0.671264
0.963225
-0.672818
1.01616
-0.674466
1.07196
-0.676212
1.13062
-0.67806
1.19279
-0.680015
1.25834
-0.682094
1.32729
-0.684276
1.40025
-0.686577
1.477
-0.689003
1.55817
-0.691542
1.64364
-0.694238
1.73394
-0.697055
1.82918
-0.699994
1.92963
-0.703096
2.0356
-0.706311
2.14739
-0.709679
2.26548
-0.713187
2.38998
-0.716833
2.52128
-0.72063
2.65993
-0.724534
2.80629
-0.728583
2.96068
-0.732758
3.12373
-0.737066
3.29563
-0.741471
3.47722
-0.745964
3.6687
-0.750561
3.87098
-0.755252
4.08446
-0.759997
4.30951
-0.764787
4.54733
-0.769639
4.79811
-0.774541
5.06289
-0.779451
5.34245
-0.784353
5.63734
-0.789273
5.94859
-0.794133
6.27704
-0.798962
6.62361
-0.803734
6.98902
-0.808454
7.37431
-0.813068
7.78163
-0.816392
5.95953
-0.819861
6.55671
-0.82347
7.21163
-0.827231
7.93463
-0.831077
8.72833
-0.834952
9.60149
-0.838864
10.5598
-0.842654
11.6119
-0.84644
12.7646
-0.850536
14.0359
-0.856988
15.4431
-0.863546
17.038
18.7792
-0.697563
0.216888
-0.697846
0.227539
-0.698143
0.240064
-0.698467
0.253267
-0.698796
0.267193
-0.699141
0.281884
-0.699492
0.297386
-0.699887
0.313733
-0.700279
0.330982
-0.700717
0.349193
-0.701167
0.368366
-0.701629
0.388618
-0.702132
0.409986
-0.702663
0.432521
-0.703238
0.456287
-0.703822
0.481348
-0.704466
0.50782
-0.705123
0.535688
-0.705847
0.565133
-0.706602
0.596179
-0.707404
0.628916
-0.708243
0.663447
-0.709149
0.699911
-0.710123
0.738334
-0.711134
0.778871
-0.712222
0.821634
-0.71339
0.866766
-0.714619
0.914305
-0.715925
0.964531
-0.717312
1.01755
-0.718785
1.07343
-0.720349
1.13218
-0.722008
1.19445
-0.723767
1.2601
-0.725619
1.32914
-0.727592
1.40222
-0.72968
1.47908
-0.731886
1.56038
-0.734215
1.64597
-0.736671
1.7364
-0.739259
1.83177
-0.741993
1.93237
-0.744839
2.03844
-0.747837
2.15039
-0.750991
2.26864
-0.754276
2.39327
-0.757705
2.52471
-0.761264
2.66349
-0.764981
2.81001
-0.768838
2.96454
-0.772847
3.12774
-0.776961
3.29974
-0.781214
3.48147
-0.785599
3.67308
-0.790078
3.87546
-0.794641
4.08902
-0.799308
4.31417
-0.804055
4.55208
-0.808872
4.80293
-0.813748
5.06776
-0.818669
5.34737
-0.823634
5.6423
-0.828582
5.95354
-0.833551
6.28201
-0.838468
6.62853
-0.843365
6.99391
-0.848218
7.37916
-0.853029
7.78644
-0.85655
5.96305
-0.860147
6.56031
-0.86386
7.21534
-0.867793
7.93856
-0.871924
8.73246
-0.876177
9.60575
-0.880307
10.5639
-0.884135
11.6158
-0.888218
12.7687
-0.892712
14.0404
-0.89997
15.4503
-0.907048
17.0451
18.7906
-0.746461
0.216977
-0.746721
0.227799
-0.746969
0.240312
-0.747243
0.253541
-0.747531
0.267481
-0.747835
0.282187
-0.748154
0.297705
-0.748491
0.31407
-0.748846
0.331337
-0.749222
0.349568
-0.749618
0.368763
-0.750037
0.389037
-0.75048
0.410429
-0.750949
0.43299
-0.751447
0.456784
-0.751974
0.481875
-0.752533
0.508379
-0.753126
0.536282
-0.753756
0.565763
-0.754425
0.596849
-0.755137
0.629628
-0.755893
0.664203
-0.756698
0.700716
-0.757554
0.739191
-0.758465
0.779782
-0.759447
0.822617
-0.760466
0.867785
-0.761564
0.915403
-0.762733
0.965699
-0.763976
1.01879
-0.765298
1.07475
-0.766704
1.13359
-0.768198
1.19594
-0.769785
1.26169
-0.77147
1.33082
-0.773258
1.40401
-0.775154
1.48098
-0.777163
1.56239
-0.779289
1.6481
-0.781537
1.73864
-0.783912
1.83414
-0.786419
1.93487
-0.78906
2.04108
-0.79184
2.15317
-0.794763
2.27156
-0.79783
2.39633
-0.801045
2.52792
-0.804409
2.66685
-0.807921
2.81352
-0.811583
2.9682
-0.815391
3.13155
-0.819342
3.30369
-0.823431
3.48556
-0.827651
3.6773
-0.831995
3.87981
-0.836455
4.09348
-0.841023
4.31874
-0.845706
4.55676
-0.850467
4.80769
-0.855295
5.07259
-0.860206
5.35228
-0.865169
5.64726
-0.87021
5.95858
-0.875108
6.2869
-0.880242
6.63366
-0.885189
6.99886
-0.89013
7.3841
-0.895067
7.79138
-0.898704
5.96669
-0.902483
6.56409
-0.906448
7.2193
-0.910749
7.94286
-0.914905
8.73662
-0.919307
9.61015
-0.923687
10.5683
-0.927947
11.62
-0.93235
12.7731
-0.937313
14.0453
-0.944999
15.458
-0.952985
17.0531
18.8025
-0.797248
0.217049
-0.797467
0.228017
-0.797696
0.240541
-0.797937
0.253783
-0.798192
0.267735
-0.79846
0.282455
-0.798742
0.297987
-0.79904
0.314368
-0.799367
0.331665
-0.799687
0.349887
-0.800038
0.369114
-0.800422
0.389422
-0.800816
0.410823
-0.801233
0.433407
-0.801662
0.457213
-0.80213
0.482344
-0.802628
0.508876
-0.803169
0.536823
-0.803717
0.566312
-0.804314
0.597445
-0.804949
0.630263
-0.805638
0.664892
-0.806357
0.701435
-0.80711
0.739944
-0.807925
0.780597
-0.808794
0.823485
-0.80972
0.868711
-0.810705
0.916388
-0.811756
0.96675
-0.812874
1.01991
-0.814066
1.07594
-0.815334
1.13485
-0.816685
1.19729
-0.818122
1.26312
-0.81965
1.33235
-0.821287
1.40565
-0.823013
1.48271
-0.824846
1.56422
-0.826789
1.65004
-0.828837
1.74069
-0.831033
1.83634
-0.833329
1.93717
-0.835769
2.04352
-0.838359
2.15576
-0.841064
2.27426
-0.843926
2.39919
-0.846935
2.53093
-0.85011
2.67003
-0.853423
2.81684
-0.85689
2.97167
-0.860497
3.13516
-0.864268
3.30746
-0.868172
3.48947
-0.872275
3.6814
-0.876404
3.88394
-0.880761
4.09784
-0.885244
4.32323
-0.889748
4.56127
-0.894449
4.81239
-0.899353
5.0775
-0.904148
5.35708
-0.90909
5.65221
-0.914105
5.9636
-0.919307
6.29211
-0.924244
6.6386
-0.929343
7.00396
-0.934597
7.38935
-0.939695
7.79648
-0.943261
5.97025
-0.947187
6.56801
-0.951476
7.22359
-0.955672
7.94706
-0.960356
8.7413
-0.964845
9.61464
-0.969479
10.5729
-0.974018
11.6246
-0.978936
12.778
-0.984189
14.0506
-0.992638
15.4665
-1.0008
17.0612
18.8155
-0.850124
0.217111
-0.850317
0.22821
-0.85052
0.240744
-0.850734
0.253997
-0.85096
0.267961
-0.851198
0.282693
-0.851449
0.298238
-0.851714
0.314633
-0.851994
0.331945
-0.85229
0.350184
-0.852603
0.369427
-0.852922
0.38974
-0.853274
0.411174
-0.85366
0.433793
-0.854055
0.457608
-0.854474
0.482764
-0.85492
0.509322
-0.855394
0.537296
-0.855897
0.566815
-0.856433
0.597981
-0.857003
0.630833
-0.85761
0.665499
-0.858243
0.702068
-0.858945
0.740645
-0.859678
0.781331
-0.860408
0.824215
-0.861228
0.869531
-0.862156
0.917316
-0.863156
0.96775
-0.86418
1.02093
-0.865178
1.07694
-0.866365
1.13604
-0.867549
1.19848
-0.868945
1.26452
-0.870227
1.33363
-0.871705
1.40713
-0.873344
1.48435
-0.875057
1.56593
-0.876769
1.65175
-0.878671
1.74259
-0.880649
1.83832
-0.88279
1.93931
-0.885098
2.04583
-0.887471
2.15814
-0.889954
2.27675
-0.892689
2.40193
-0.895421
2.53367
-0.898413
2.67302
-0.901546
2.81997
-0.904794
2.97492
-0.908282
3.13865
-0.91183
3.31101
-0.915547
3.49318
-0.919443
3.6853
-0.923628
3.88812
-0.927677
4.10189
-0.932007
4.32756
-0.936617
4.56588
-0.941074
4.81685
-0.945797
5.08222
-0.950633
5.36191
-0.955566
5.65714
-0.960581
5.96861
-0.965663
6.29719
-0.970799
6.64373
-0.976126
7.00929
-0.981189
7.39442
-0.986421
7.80171
-0.990255
5.97409
-0.994324
6.57208
-0.998631
7.2279
-1.00318
7.9516
-1.00793
8.74606
-1.01281
9.61952
-1.01771
10.5778
-1.02268
11.6295
-1.02772
12.783
-1.03365
14.0565
-1.04301
15.4758
-1.05104
17.0693
18.83
-1.43813
0.217576
-1.43809
0.228168
-1.43798
0.240637
-1.43791
0.253918
-1.43786
0.267911
-1.43769
0.282528
-1.43766
0.298211
-1.43762
0.314586
-1.4374
0.331732
-1.43742
0.350205
-1.43724
0.369247
-1.43713
0.389625
-1.43704
0.411086
-1.43696
0.433707
-1.43675
0.457408
-1.43665
0.482663
-1.43663
0.509297
-1.4364
0.53707
-1.43635
0.566762
-1.43617
0.597799
-1.4361
0.630764
-1.43597
0.665373
-1.43578
0.701876
-1.43559
0.740457
-1.43553
0.781271
-1.43546
0.82414
-1.4354
0.869473
-1.43515
0.917066
-1.43498
0.967579
-1.43489
1.02085
-1.43489
1.07694
-1.43472
1.13587
-1.43479
1.19854
-1.43456
1.26429
-1.43458
1.33365
-1.43458
1.40713
-1.43445
1.48421
-1.43445
1.56593
-1.43445
1.65176
-1.43447
1.74261
-1.43451
1.83836
-1.43458
1.93938
-1.43468
2.04594
-1.43469
2.15815
-1.43489
2.27694
-1.43487
2.40191
-1.43504
2.53384
-1.435
2.67298
-1.43517
2.82014
-1.43514
2.97488
-1.43517
3.13868
-1.43514
3.31097
-1.43502
3.49307
-1.43482
3.6851
-1.43439
3.88769
-1.43401
4.1015
-1.43323
4.32678
-1.43234
4.56498
-1.43131
4.81583
-1.42986
5.08077
-1.42824
5.36029
-1.42628
5.65518
-1.42367
5.96599
-1.42065
6.29417
-1.41721
6.64029
-1.41304
7.00511
-1.40839
7.38977
-1.40295
7.79627
-1.3982
5.96935
-1.39283
6.56671
-1.38652
7.22158
-1.37924
7.94432
-1.37076
8.73758
-1.36096
9.60972
-1.34934
10.5662
-1.33569
11.6159
-1.32024
12.7676
-1.30367
14.0399
-1.2876
15.4597
-1.2694
17.0511
18.8092
-1.53728
0.21819
-1.5371
0.227985
-1.53692
0.240464
-1.5369
0.253893
-1.53662
0.267631
-1.53662
0.28253
-1.53637
0.297962
-1.53614
0.314353
-1.53606
0.33165
-1.53573
0.349876
-1.53555
0.36907
-1.5354
0.38947
-1.53513
0.41082
-1.53489
0.433466
-1.53467
0.457191
-1.53449
0.482476
-1.53406
0.508872
-1.53394
0.536944
-1.53358
0.566404
-1.53326
0.597476
-1.53284
0.630348
-1.5326
0.665134
-1.53227
0.701546
-1.53199
0.740177
-1.53163
0.780909
-1.53118
0.823697
-1.5308
0.86909
-1.53048
0.916746
-1.5301
0.967192
-1.52965
1.0204
-1.52927
1.07657
-1.52885
1.13545
-1.52838
1.19807
-1.528
1.26391
-1.52758
1.33324
-1.527
1.40655
-1.52667
1.48388
-1.52604
1.56531
-1.52568
1.6514
-1.52518
1.74211
-1.52468
1.83786
-1.5242
1.93889
-1.52345
2.04519
-1.52301
2.15771
-1.52247
2.2764
-1.52183
2.40127
-1.52124
2.53325
-1.52071
2.67245
-1.51995
2.81939
-1.51941
2.97433
-1.51851
3.13778
-1.51781
3.31028
-1.5169
3.49216
-1.51578
3.68398
-1.51471
3.88663
-1.51342
4.10021
-1.51205
4.32541
-1.5103
4.56324
-1.50846
4.81398
-1.50636
5.07867
-1.50399
5.35792
-1.50103
5.65222
-1.49789
5.96285
-1.49425
6.29054
-1.49011
6.63615
-1.48542
7.00043
-1.48003
7.38437
-1.47405
7.79029
-1.46894
5.96424
-1.4631
6.56087
-1.45635
7.21484
-1.44869
7.93666
-1.43971
8.72861
-1.42944
9.59945
-1.41707
10.5538
-1.40274
11.6016
-1.38678
12.7516
-1.36991
14.0231
-1.3532
15.443
-1.33443
17.0323
18.7871
-1.63839
0.218676
-1.63817
0.227762
-1.63809
0.240388
-1.63776
0.253558
-1.63771
0.267579
-1.6374
0.28222
-1.6371
0.297664
-1.63681
0.31407
-1.63668
0.331518
-1.63629
0.349487
-1.63606
0.368835
-1.63571
0.389119
-1.63551
0.410625
-1.63507
0.43302
-1.63478
0.456904
-1.63438
0.482078
-1.63401
0.508499
-1.63353
0.536464
-1.63308
0.565953
-1.63266
0.597057
-1.63228
0.629963
-1.63179
0.664652
-1.63135
0.701102
-1.63081
0.739638
-1.63018
0.780279
-1.6296
0.823115
-1.62907
0.868561
-1.62846
0.916134
-1.62777
0.966503
-1.62714
1.01977
-1.62645
1.07588
-1.62569
1.13469
-1.62501
1.19739
-1.62413
1.26304
-1.62334
1.33245
-1.62265
1.40586
-1.62164
1.48287
-1.62088
1.56454
-1.61995
1.65047
-1.61901
1.74117
-1.61806
1.8369
-1.61696
1.93779
-1.61614
2.04438
-1.61506
2.15663
-1.61387
2.2752
-1.61284
2.40024
-1.61157
2.53198
-1.61034
2.67122
-1.60902
2.81807
-1.60762
2.97293
-1.60614
3.1363
-1.60458
3.30872
-1.60294
3.49052
-1.60122
3.68226
-1.5993
3.8847
-1.59716
4.09807
-1.59494
4.32319
-1.59266
4.56095
-1.59002
4.81134
-1.58714
5.0758
-1.58388
5.35466
-1.58036
5.64869
-1.57655
5.95904
-1.57214
6.28614
-1.56727
6.63128
-1.56192
6.99507
-1.55591
7.37836
-1.54907
7.78346
-1.54359
5.95875
-1.53726
6.55453
-1.53007
7.20765
-1.52186
7.92844
-1.51252
8.71928
-1.50146
9.58838
-1.48865
10.541
-1.47384
11.5868
-1.45724
12.735
-1.44014
14.006
-1.42283
15.4257
-1.40364
17.0131
18.7637
-1.74201
1.74152
0.21917
0.231284
-1.7419
0.22765
-1.74166
0.240148
-1.74129
0.25319
-1.74107
0.26736
-1.74072
0.281874
-1.74053
0.297467
-1.7402
0.313748
-1.73976
0.331074
-1.7396
0.349331
-1.73919
0.36842
-1.73879
0.388721
-1.73827
0.410108
-1.73791
0.432658
-1.73743
0.456424
-1.73698
0.481622
-1.7364
0.507926
-1.73599
0.536055
-1.73547
0.565432
-1.73498
0.596564
-1.73438
0.629364
-1.73354
0.663809
-1.73301
0.70057
-1.73223
0.738866
-1.73164
0.779686
-1.73095
0.822425
-1.73003
0.867642
-1.7293
0.915402
-1.72848
0.965684
-1.72758
1.01887
-1.7266
1.0749
-1.72569
1.13377
-1.72456
1.19627
-1.72365
1.26212
-1.72254
1.33134
-1.72137
1.40469
-1.7203
1.48179
-1.71904
1.56328
-1.71774
1.64917
-1.71641
1.73984
-1.71507
1.83555
-1.7137
1.93643
-1.71205
2.04273
-1.71054
2.15511
-1.70889
2.27356
-1.70727
2.39861
-1.70553
2.53024
-1.70368
2.66937
-1.70173
2.81612
-1.69983
2.97103
-1.69783
3.1343
-1.69561
3.3065
-1.69331
3.48822
-1.6908
3.67975
-1.68821
3.88211
-1.68556
4.09542
-1.68256
4.3202
-1.67936
4.55776
-1.67596
4.80793
-1.6722
5.07204
-1.66837
5.35083
-1.66415
5.64448
-1.6594
5.95429
-1.65438
6.28112
-1.6488
6.62569
-1.64263
6.9889
-1.636
7.37174
-1.62876
7.77622
-1.62275
5.95274
-1.61593
6.54772
-1.60815
7.19988
-1.59938
7.91967
-1.58939
8.70928
-1.57785
9.57685
-1.56431
10.5275
-1.54875
11.5712
-1.5318
12.7181
-1.51423
13.9884
-1.4967
15.4082
-1.47746
16.9939
18.7389
-1.84841
1.84777
0.219813
0.231933
-1.84815
0.227382
-1.84775
0.239749
-1.84763
0.253078
-1.84712
0.266842
-1.84688
0.281643
-1.84653
0.297108
-1.84618
0.313401
-1.84585
0.33074
-1.84539
0.348872
-1.84494
0.367974
-1.84451
0.38829
-1.84395
0.409554
-1.84356
0.432261
-1.84304
0.455906
-1.8424
0.480985
-1.84192
0.507448
-1.84119
0.535322
-1.84062
0.564862
-1.83994
0.59588
-1.83914
0.628568
-1.83851
0.663181
-1.83764
0.699695
-1.83694
0.738164
-1.83599
0.778742
-1.83508
0.821518
-1.83422
0.866777
-1.83326
0.914441
-1.8322
0.96463
-1.8312
1.01787
-1.82997
1.07367
-1.82894
1.13274
-1.82769
1.19502
-1.82637
1.2608
-1.82498
1.32994
-1.82366
1.40338
-1.82214
1.48028
-1.82058
1.56172
-1.81896
1.64756
-1.81731
1.73819
-1.81548
1.83372
-1.81376
1.93472
-1.81189
2.04085
-1.80987
2.15309
-1.80784
2.27153
-1.80568
2.39645
-1.80354
2.52809
-1.80113
2.66697
-1.79876
2.81375
-1.79614
2.96841
-1.79342
3.13159
-1.79061
3.30369
-1.78771
3.48533
-1.7846
3.67663
-1.78141
3.87893
-1.77788
4.09188
-1.7743
4.31661
-1.77038
4.55384
-1.76641
4.80397
-1.76211
5.06774
-1.75731
5.34603
-1.7523
5.63947
-1.74693
5.94891
-1.74118
6.27537
-1.7349
6.61941
-1.72808
6.98208
-1.72056
7.36421
-1.71263
7.76829
-1.7061
5.94622
-1.6988
6.54042
-1.69059
7.19166
-1.68128
7.91036
-1.67063
8.69863
-1.65832
9.56454
-1.64425
10.5134
-1.62817
11.5551
-1.61053
12.7004
-1.59312
13.971
-1.57553
15.3906
-1.55587
16.9742
18.7132
-1.95763
1.95683
0.220608
0.232592
-1.9572
0.226958
-1.95693
0.239473
-1.95652
0.252671
-1.95626
0.266583
-1.95587
0.281254
-1.95536
0.296589
-1.95499
0.313033
-1.95449
0.330244
-1.95401
0.348388
-1.95354
0.367503
-1.95308
0.387834
-1.95264
0.409112
-1.95194
0.431556
-1.95139
0.455358
-1.95072
0.480314
-1.95007
0.506797
-1.94944
0.534692
-1.94869
0.564115
-1.94783
0.595016
-1.94713
0.627869
-1.94632
0.662369
-1.94539
0.698773
-1.94436
0.737132
-1.9435
0.777883
-1.9424
0.820414
-1.94133
0.865711
-1.94017
0.913276
-1.93905
0.963508
-1.93769
1.01651
-1.93652
1.0725
-1.93499
1.1312
-1.93365
1.19368
-1.9321
1.25924
-1.93061
1.32845
-1.92891
1.40168
-1.92714
1.47851
-1.92545
1.56003
-1.92357
1.64568
-1.92164
1.73626
-1.91953
1.83161
-1.91739
1.93257
-1.91508
2.03854
-1.91275
2.15076
-1.91041
2.2692
-1.90779
2.39383
-1.90517
2.52547
-1.90242
2.66422
-1.89956
2.81088
-1.89643
2.96529
-1.89335
3.1285
-1.89002
3.30036
-1.88646
3.48177
-1.88282
3.67299
-1.87882
3.87493
-1.87492
4.08798
-1.87053
4.31222
-1.8661
4.54941
-1.8612
4.79907
-1.85626
5.0628
-1.85085
5.34061
-1.84524
5.63387
-1.83915
5.94282
-1.83242
6.26864
-1.82548
6.61248
-1.8179
6.9745
-1.80996
7.35628
-1.80122
7.75954
-1.7942
5.93919
-1.7863
6.53252
-1.77752
7.18289
-1.76769
7.90053
-1.7564
8.68734
-1.7435
9.55164
-1.72864
10.4986
-1.71199
11.5385
-1.6943
12.6827
-1.67663
13.9533
-1.65891
15.3729
-1.6396
16.9549
18.6874
-2.06963
2.0691
0.22114
0.233411
-2.06934
0.226671
-2.06907
0.239194
-2.06865
0.252259
-2.06825
0.26618
-2.06786
0.280861
-2.06747
0.296205
-2.06696
0.312519
-2.06646
0.329741
-2.06596
0.347897
-2.06549
0.367025
-2.06488
0.387228
-2.06429
0.40852
-2.06371
0.430979
-2.06301
0.454656
-2.06232
0.479629
-2.06166
0.506131
-2.06087
0.533904
-2.05996
0.563206
-2.05921
0.594271
-2.05821
0.626865
-2.05737
0.661532
-2.05642
0.697821
-2.05536
0.736067
-2.05418
0.776709
-2.05318
0.819413
-2.05193
0.864463
-2.05058
0.911924
-2.04927
0.962197
-2.04786
1.0151
-2.04636
1.071
-2.0449
1.12975
-2.04322
1.192
-2.04159
1.25762
-2.03988
1.32675
-2.03796
1.39975
-2.03611
1.47666
-2.03391
1.55783
-2.03179
1.64356
-2.02962
1.73409
-2.02726
1.82925
-2.02472
1.93003
-2.02229
2.03611
-2.01969
2.14817
-2.0168
2.2663
-2.01389
2.39092
-2.01085
2.52243
-2.00767
2.66104
-2.00422
2.80743
-2.00079
2.96186
-1.99711
3.12482
-1.99319
3.29644
-1.98917
3.47775
-1.98508
3.6689
-1.98064
3.87048
-1.97585
4.08319
-1.97116
4.30754
-1.96601
4.54425
-1.96068
4.79374
-1.95488
5.05701
-1.94892
5.33465
-1.94249
5.62743
-1.93574
5.93607
-1.92852
6.26142
-1.92085
6.60481
-1.9127
6.96636
-1.9038
7.34737
-1.8946
7.75034
-1.88697
5.93156
-1.87849
6.52404
-1.86933
7.17373
-1.85885
7.89005
-1.84694
8.67543
-1.83333
9.53803
-1.81772
10.483
-1.80058
11.5213
-1.78254
12.6647
-1.76505
13.9358
-1.74794
15.3558
-1.72888
16.9359
18.6627
-2.18421
2.18354
0.221817
0.234094
-2.18391
0.226373
-2.18348
0.238762
-2.18306
0.251834
-2.18264
0.265764
-2.18209
0.280312
-2.1817
0.295808
-2.18131
0.312132
-2.18079
0.329224
-2.18014
0.347249
-2.17951
0.36639
-2.17889
0.386607
-2.17828
0.407913
-2.17755
0.430245
-2.17683
0.453938
-2.17613
0.478929
-2.17531
0.505307
-2.1745
0.5331
-2.17358
0.562281
-2.17267
0.593368
-2.1718
0.625987
-2.17066
0.660396
-2.16955
0.696712
-2.16847
0.734987
-2.16728
0.775519
-2.16598
0.818114
-2.16472
0.8632
-2.16335
0.910557
-2.16188
0.960729
-2.16046
1.01368
-2.1588
1.06934
-2.15718
1.12814
-2.15534
1.19015
-2.15356
1.25583
-2.15155
1.32474
-2.14961
1.39781
-2.14745
1.4745
-2.14523
1.55561
-2.14294
1.64128
-2.14032
1.73146
-2.13794
1.82687
-2.13522
1.92732
-2.13248
2.03337
-2.12942
2.14511
-2.12634
2.26322
-2.12325
2.38783
-2.11973
2.5189
-2.11635
2.65766
-2.1127
2.80378
-2.10878
2.95794
-2.10475
3.12079
-2.10047
3.29216
-2.0961
3.47338
-2.09122
3.66402
-2.08642
3.86568
-2.08128
4.07805
-2.07581
4.30207
-2.07017
4.53861
-2.06422
4.78778
-2.05795
5.05074
-2.05138
5.32808
-2.04436
5.62041
-2.03689
5.9286
-2.02913
6.25367
-2.02079
6.59646
-2.01187
6.95743
-2.00267
7.33818
-1.99248
7.74015
-1.98441
5.92348
-1.97569
6.51533
-1.96557
7.16361
-1.95447
7.87895
-1.94199
8.66295
-1.92773
9.52377
-1.91165
10.4669
-1.89387
11.5035
-1.87599
12.6468
-1.8588
13.9186
-1.84189
15.3389
-1.82395
16.9179
18.6425
-2.30356
2.30272
0.222657
0.23494
-2.30313
0.225941
-2.3027
0.238337
-2.30228
0.251417
-2.30188
0.265356
-2.30133
0.27977
-2.3008
0.295276
-2.30028
0.31161
-2.29963
0.32857
-2.29913
0.346749
-2.29849
0.365759
-2.29788
0.385988
-2.29713
0.407166
-2.2964
0.429512
-2.29568
0.45322
-2.29483
0.478084
-2.29401
0.50448
-2.29305
0.532148
-2.29212
0.561348
-2.29121
0.592456
-2.29003
0.624811
-2.28888
0.659244
-2.28775
0.695584
-2.28665
0.733886
-2.28529
0.774161
-2.28397
0.816787
-2.28253
0.861763
-2.28099
0.909012
-2.27948
0.959222
-2.27773
1.01193
-2.27602
1.06763
-2.27407
1.12619
-2.27218
1.18826
-2.27019
1.25385
-2.26799
1.32253
-2.2657
1.39552
-2.26334
1.47214
-2.26105
1.55332
-2.25842
1.63865
-2.25573
1.72878
-2.25286
1.82399
-2.24994
1.9244
-2.24685
2.03027
-2.24358
2.14185
-2.2403
2.25994
-2.23658
2.38411
-2.233
2.51533
-2.229
2.65366
-2.22501
2.79979
-2.22091
2.95384
-2.2164
3.11628
-2.2118
3.28756
-2.20683
3.46841
-2.2018
3.65898
-2.19642
3.86031
-2.19085
4.07249
-2.18512
4.29634
-2.17893
4.53242
-2.17244
4.78129
-2.16564
5.04395
-2.15855
5.32099
-2.15103
5.61289
-2.14307
5.92065
-2.13455
6.24515
-2.12562
6.58753
-2.11614
6.94795
-2.10597
7.32801
-2.09545
7.72963
-2.08704
5.91507
-2.07756
6.50584
-2.06715
7.1532
-2.05545
7.86726
-2.04204
8.64954
-2.02686
9.50859
-2.00981
10.4498
-1.99171
11.4854
-1.9732
12.6283
-1.95673
13.9022
-1.94145
15.3236
-1.92024
16.8967
18.6375
-2.42115
2.42032
-2.42069
-2.42024
-2.4198
-2.41923
-2.41881
-2.41826
-2.41757
-2.41704
-2.41638
-2.41573
-2.41495
-2.41418
-2.41344
-2.41256
-2.41171
-2.41073
-2.40978
-2.40884
-2.40765
-2.40662
-2.40548
-2.40423
-2.40287
-2.40154
-2.40011
-2.39857
-2.39707
-2.39534
-2.39365
-2.39187
-2.39
-2.38805
-2.38588
-2.38378
-2.38146
-2.37907
-2.37649
-2.37384
-2.37115
-2.36828
-2.36522
-2.36199
-2.35874
-2.35518
-2.35162
-2.34777
-2.34379
-2.33953
-2.33501
-2.33039
-2.32553
-2.32045
-2.31516
-2.30953
-2.30372
-2.29745
-2.29101
-2.28428
-2.27711
-2.26951
-2.26149
-2.25306
-2.24424
-2.23473
-2.22485
-2.21433
-2.20321
-2.19406
-2.18405
-2.17301
-2.16058
-2.14669
-2.13088
-2.11355
-2.09525
-2.07695
-2.06088
-2.04785
-2.01678
)
;

boundaryField
{
    inlet
    {
        type            calculated;
        value           nonuniform List<scalar> 
23
(
-0.59265
-0.622128
-0.65307
-0.685527
-0.71963
-0.755478
-0.793186
-0.832785
-0.874455
-0.918374
-0.96493
-1.01374
-1.06556
-1.2486
-1.31239
-1.38021
-1.45269
-1.53016
-1.61374
-1.70416
-1.80378
-1.91528
-2.04613
)
;
    }
    outlet
    {
        type            calculated;
        value           nonuniform List<scalar> 
82
(
0.223482
0.225486
0.235772
0.23789
0.250978
0.264783
0.279349
0.294722
0.310924
0.328038
0.346086
0.365109
0.38521
0.406403
0.428764
0.452348
0.47723
0.503503
0.531192
0.560415
0.591262
0.623786
0.658104
0.694332
0.732523
0.772833
0.815352
0.860225
0.907517
0.957486
1.01024
1.06585
1.12432
1.18631
1.25168
1.32042
1.3932
1.46976
1.55073
1.636
1.72609
1.82111
1.92135
2.02704
2.13859
2.25639
2.38055
2.51148
2.64968
2.79554
2.94932
3.11166
3.2827
3.46333
3.65369
3.85468
4.06667
4.29006
4.52599
4.77456
5.03678
5.31339
5.60487
5.91222
6.23632
6.57802
6.93807
7.31749
7.7185
5.90592
6.49584
7.14217
7.85483
8.63564
9.49278
10.4325
11.4671
12.61
13.8861
15.3105
16.8656
18.6669
)
;
    }
    walls
    {
        type            calculated;
        value           nonuniform List<scalar> 0();
    }
    frontAndBack
    {
        type            empty;
        value           nonuniform List<scalar> 0();
    }
    procBoundary3to2
    {
        type            processor;
        value           nonuniform List<scalar> 
88
(
-17.0043
-18.6871
-14.0149
0.581785
-15.4003
-11.5912
0.604893
-12.7434
-8.70846
-9.58152
0.629965
-10.54
-7.76039
-5.94437
-6.54103
-7.19542
0.65237
-7.91794
-5.92952
-6.25823
-6.60507
-6.97084
0.66874
-7.3565
-4.07022
-4.29513
-4.53285
-4.78355
-5.04828
-5.32786
0.678963
-5.62278
-2.1407
-2.25852
-2.38275
-2.51377
-2.65214
-2.79826
-2.95241
-3.11523
-3.28687
-3.46828
-3.65958
0.678418
-3.86169
-0.226944
-0.239414
-0.252597
-0.266488
-0.281143
-0.296606
-0.312912
-0.330128
-0.348267
-0.367403
-0.387601
-0.408922
-0.431383
-0.455071
-0.480073
-0.506468
-0.534268
-0.563601
-0.594567
-0.627205
-0.661642
-0.697968
-0.736284
-0.776692
-0.819333
-0.864296
-0.911694
-0.961759
-1.01461
-1.07031
-1.12887
-1.19094
-1.25638
-1.32521
-1.39807
-1.4747
-1.55575
-1.6411
-1.73124
-1.82636
-1.92669
0.663751
-2.03249
)
;
    }
    procBoundary3to6
    {
        type            processor;
        value           uniform -0.216644;
    }
    procBoundary3to7
    {
        type            processor;
        value           nonuniform List<scalar> 
16
(
0.650306
0.697467
0.746372
0.797176
0.850063
1.43767
1.53667
1.63791
-0.230649
1.74088
1.84712
1.95617
2.06828
2.18285
2.30187
2.41949
)
;
    }
}


// ************************************************************************* //
