/*--------------------------------*- C++ -*----------------------------------*\
| =========                 |                                                 |
| \\      /  F ield         | OpenFOAM: The Open Source CFD Toolbox           |
|  \\    /   O peration     | Version:  2306                                  |
|   \\  /    A nd           | Website:  www.openfoam.com                      |
|    \\/     M anipulation  |                                                 |
\*---------------------------------------------------------------------------*/
FoamFile
{
    version     2.0;
    format      ascii;
    arch        "LSB;label=32;scalar=64";
    class       volScalarField;
    location    "325";
    object      turbulenceProperties:nut;
}
// * * * * * * * * * * * * * * * * * * * * * * * * * * * * * * * * * * * * * //

dimensions      [0 2 -1 0 0 0 0];

internalField   nonuniform List<scalar> 
1340
(
6.14789e-06
6.12039e-06
6.12291e-06
6.124e-06
6.14983e-06
6.12067e-06
6.12946e-06
6.13102e-06
6.12343e-06
6.12589e-06
6.15187e-06
6.12087e-06
6.10904e-06
6.11372e-06
6.12194e-06
6.13076e-06
6.13172e-06
6.12399e-06
6.12798e-06
6.15399e-06
6.12096e-06
6.09884e-06
6.10255e-06
6.10477e-06
6.10623e-06
6.10755e-06
6.10982e-06
6.11484e-06
6.12341e-06
6.1321e-06
6.13242e-06
6.1246e-06
6.13027e-06
6.1562e-06
6.12094e-06
6.07726e-06
6.08103e-06
6.08547e-06
6.09025e-06
6.09504e-06
6.0997e-06
6.10336e-06
6.10548e-06
6.10688e-06
6.10822e-06
6.11067e-06
6.11606e-06
6.12497e-06
6.13348e-06
6.13312e-06
6.12526e-06
6.1328e-06
6.15848e-06
6.12077e-06
6.07939e-06
6.0767e-06
6.07434e-06
6.07264e-06
6.07198e-06
6.07274e-06
6.07478e-06
6.07779e-06
6.0817e-06
6.08625e-06
6.0911e-06
6.09593e-06
6.1006e-06
6.1042e-06
6.10622e-06
6.10756e-06
6.10893e-06
6.1116e-06
6.1174e-06
6.12664e-06
6.13491e-06
6.13382e-06
6.12599e-06
6.13557e-06
6.16084e-06
6.12045e-06
6.09754e-06
6.09643e-06
6.09534e-06
6.0943e-06
6.09328e-06
6.09227e-06
6.09119e-06
6.08997e-06
6.08848e-06
6.08665e-06
6.08443e-06
6.08186e-06
6.0791e-06
6.07641e-06
6.0741e-06
6.0725e-06
6.07201e-06
6.07298e-06
6.0752e-06
6.07838e-06
6.08243e-06
6.08709e-06
6.092e-06
6.09687e-06
6.10155e-06
6.10507e-06
6.10699e-06
6.10826e-06
6.10969e-06
6.11261e-06
6.11885e-06
6.12842e-06
6.13637e-06
6.13451e-06
6.12679e-06
6.13861e-06
6.16324e-06
6.11995e-06
5.74709e-06
7.75817e-06
6.95228e-06
6.03974e-06
5.99124e-06
6.12807e-06
6.1534e-06
6.15031e-06
6.14455e-06
6.1382e-06
6.13488e-06
6.13206e-06
6.12912e-06
6.1265e-06
6.12421e-06
6.1221e-06
6.12021e-06
6.11854e-06
6.11707e-06
6.11577e-06
6.11465e-06
6.11368e-06
6.11285e-06
6.11213e-06
6.11152e-06
6.11099e-06
6.1105e-06
6.11005e-06
6.10961e-06
6.10916e-06
6.10869e-06
6.1082e-06
6.10766e-06
6.10707e-06
6.10643e-06
6.10571e-06
6.10492e-06
6.10405e-06
6.10312e-06
6.10211e-06
6.10105e-06
6.09995e-06
6.09882e-06
6.09769e-06
6.09659e-06
6.09551e-06
6.09448e-06
6.09347e-06
6.09245e-06
6.09134e-06
6.09006e-06
6.0885e-06
6.08657e-06
6.08424e-06
6.08159e-06
6.07878e-06
6.0761e-06
6.07384e-06
6.07237e-06
6.07208e-06
6.07328e-06
6.07567e-06
6.07902e-06
6.08322e-06
6.08799e-06
6.09296e-06
6.09787e-06
6.10254e-06
6.10597e-06
6.10778e-06
6.109e-06
6.1105e-06
6.11372e-06
6.12043e-06
6.13031e-06
6.13786e-06
6.13518e-06
6.12769e-06
6.14194e-06
6.16567e-06
6.11925e-06
7.91971e-06
6.53794e-06
6.08093e-06
6.00812e-06
6.13161e-06
6.16031e-06
6.14975e-06
6.14327e-06
6.13802e-06
6.13462e-06
6.13214e-06
6.1295e-06
6.12703e-06
6.12484e-06
6.12285e-06
6.12104e-06
6.11943e-06
6.11799e-06
6.11672e-06
6.1156e-06
6.11463e-06
6.11379e-06
6.11307e-06
6.11244e-06
6.11189e-06
6.1114e-06
6.11094e-06
6.1105e-06
6.11006e-06
6.1096e-06
6.10912e-06
6.10861e-06
6.10805e-06
6.10743e-06
6.10675e-06
6.106e-06
6.10518e-06
6.10429e-06
6.10332e-06
6.10229e-06
6.10121e-06
6.1001e-06
6.09897e-06
6.09784e-06
6.09674e-06
6.09568e-06
6.09466e-06
6.09365e-06
6.09262e-06
6.09148e-06
6.09013e-06
6.08848e-06
6.08644e-06
6.08401e-06
6.08127e-06
6.07843e-06
6.07576e-06
6.07358e-06
6.07226e-06
6.07219e-06
6.07362e-06
6.0762e-06
6.07973e-06
6.08408e-06
6.08895e-06
6.09398e-06
6.09893e-06
6.10358e-06
6.10691e-06
6.10859e-06
6.10977e-06
6.11137e-06
6.11494e-06
6.12216e-06
6.13231e-06
6.13937e-06
6.13582e-06
6.1287e-06
6.14559e-06
6.1681e-06
6.11831e-06
6.32275e-06
6.05638e-06
6.0635e-06
6.13422e-06
6.1614e-06
6.14837e-06
6.14089e-06
6.13703e-06
6.13398e-06
6.13171e-06
6.12942e-06
6.12717e-06
6.12515e-06
6.12331e-06
6.12162e-06
6.1201e-06
6.11874e-06
6.11752e-06
6.11645e-06
6.1155e-06
6.11468e-06
6.11396e-06
6.11334e-06
6.11279e-06
6.11229e-06
6.11183e-06
6.11139e-06
6.11095e-06
6.1105e-06
6.11004e-06
6.10954e-06
6.10901e-06
6.10842e-06
6.10777e-06
6.10706e-06
6.10628e-06
6.10542e-06
6.1045e-06
6.10351e-06
6.10246e-06
6.10136e-06
6.10024e-06
6.09911e-06
6.09799e-06
6.0969e-06
6.09586e-06
6.09485e-06
6.09384e-06
6.09279e-06
6.0916e-06
6.09018e-06
6.08842e-06
6.08627e-06
6.08373e-06
6.08092e-06
6.07805e-06
6.07541e-06
6.07333e-06
6.07217e-06
6.07235e-06
6.07402e-06
6.07679e-06
6.08051e-06
6.08501e-06
6.08998e-06
6.09507e-06
6.10005e-06
6.10468e-06
6.10788e-06
6.10944e-06
6.11058e-06
6.11232e-06
6.11628e-06
6.12405e-06
6.13442e-06
6.1409e-06
6.13644e-06
6.12984e-06
6.14955e-06
6.1705e-06
6.11711e-06
6.01786e-06
6.114e-06
6.14274e-06
6.15579e-06
6.14564e-06
6.13811e-06
6.13542e-06
6.13302e-06
6.13095e-06
6.12897e-06
6.12699e-06
6.12518e-06
6.12352e-06
6.12199e-06
6.1206e-06
6.11934e-06
6.11821e-06
6.1172e-06
6.11631e-06
6.11552e-06
6.11483e-06
6.11422e-06
6.11367e-06
6.11318e-06
6.11272e-06
6.11228e-06
6.11185e-06
6.11141e-06
6.11096e-06
6.11048e-06
6.10996e-06
6.1094e-06
6.10878e-06
6.1081e-06
6.10736e-06
6.10654e-06
6.10565e-06
6.1047e-06
6.10368e-06
6.10261e-06
6.1015e-06
6.10037e-06
6.09925e-06
6.09814e-06
6.09707e-06
6.09604e-06
6.09504e-06
6.09403e-06
6.09294e-06
6.0917e-06
6.09019e-06
6.08832e-06
6.08604e-06
6.08339e-06
6.08051e-06
6.07763e-06
6.07504e-06
6.07307e-06
6.07211e-06
6.07258e-06
6.07448e-06
6.07746e-06
6.08137e-06
6.08602e-06
6.09109e-06
6.09624e-06
6.10124e-06
6.10582e-06
6.10887e-06
6.11031e-06
6.11144e-06
6.11336e-06
6.11777e-06
6.12611e-06
6.13665e-06
6.14242e-06
6.13703e-06
6.13113e-06
6.15386e-06
6.17281e-06
6.11563e-06
6.13188e-06
6.15154e-06
6.14787e-06
6.14106e-06
6.1353e-06
6.13343e-06
6.1317e-06
6.12987e-06
6.12816e-06
6.12648e-06
6.1249e-06
6.12345e-06
6.12211e-06
6.12087e-06
6.11974e-06
6.11873e-06
6.11781e-06
6.11699e-06
6.11626e-06
6.11561e-06
6.11503e-06
6.11451e-06
6.11403e-06
6.11358e-06
6.11315e-06
6.11273e-06
6.1123e-06
6.11186e-06
6.11139e-06
6.11089e-06
6.11035e-06
6.10976e-06
6.10911e-06
6.1084e-06
6.10761e-06
6.10676e-06
6.10584e-06
6.10486e-06
6.10382e-06
6.10273e-06
6.10161e-06
6.10049e-06
6.09937e-06
6.09828e-06
6.09723e-06
6.09622e-06
6.09523e-06
6.09421e-06
6.09309e-06
6.09177e-06
6.09016e-06
6.08817e-06
6.08576e-06
6.08301e-06
6.08006e-06
6.07718e-06
6.07466e-06
6.07283e-06
6.0721e-06
6.07286e-06
6.07501e-06
6.07821e-06
6.08231e-06
6.08711e-06
6.09227e-06
6.09747e-06
6.10249e-06
6.107e-06
6.1099e-06
6.11121e-06
6.11235e-06
6.1145e-06
6.11942e-06
6.12834e-06
6.13898e-06
6.14393e-06
6.13757e-06
6.13259e-06
6.15854e-06
6.175e-06
6.11377e-06
6.14648e-06
6.13898e-06
6.13477e-06
6.13196e-06
6.13061e-06
6.12939e-06
6.12793e-06
6.12655e-06
6.12524e-06
6.12399e-06
6.12283e-06
6.12175e-06
6.12075e-06
6.11984e-06
6.119e-06
6.11823e-06
6.11754e-06
6.11692e-06
6.11635e-06
6.11583e-06
6.11536e-06
6.11492e-06
6.11449e-06
6.11408e-06
6.11367e-06
6.11326e-06
6.11282e-06
6.11237e-06
6.11188e-06
6.11135e-06
6.11077e-06
6.11014e-06
6.10944e-06
6.10869e-06
6.10786e-06
6.10697e-06
6.10601e-06
6.105e-06
6.10394e-06
6.10284e-06
6.10172e-06
6.10061e-06
6.09952e-06
6.09846e-06
6.09744e-06
6.09645e-06
6.09546e-06
6.09441e-06
6.09323e-06
6.0918e-06
6.09004e-06
6.08788e-06
6.08531e-06
6.08244e-06
6.07944e-06
6.07659e-06
6.07419e-06
6.07258e-06
6.07217e-06
6.07331e-06
6.07576e-06
6.07922e-06
6.08356e-06
6.08853e-06
6.09379e-06
6.09904e-06
6.10406e-06
6.10845e-06
6.11112e-06
6.11229e-06
6.11347e-06
6.11596e-06
6.12154e-06
6.13113e-06
6.14174e-06
6.14558e-06
6.13813e-06
6.13453e-06
6.164e-06
6.17719e-06
6.11167e-06
6.13176e-06
6.1294e-06
6.12827e-06
6.12751e-06
6.12669e-06
6.12565e-06
6.12466e-06
6.12373e-06
6.12286e-06
6.12203e-06
6.12126e-06
6.12053e-06
6.11986e-06
6.11923e-06
6.11865e-06
6.11812e-06
6.11763e-06
6.11717e-06
6.11673e-06
6.11633e-06
6.11593e-06
6.11554e-06
6.11515e-06
6.11476e-06
6.11435e-06
6.11393e-06
6.11347e-06
6.11299e-06
6.11246e-06
6.11188e-06
6.11125e-06
6.11056e-06
6.10981e-06
6.109e-06
6.10812e-06
6.10718e-06
6.10618e-06
6.10514e-06
6.10406e-06
6.10296e-06
6.10186e-06
6.10078e-06
6.09972e-06
6.0987e-06
6.09771e-06
6.09674e-06
6.09573e-06
6.09462e-06
6.09333e-06
6.09174e-06
6.08977e-06
6.0874e-06
6.08464e-06
6.08165e-06
6.07863e-06
6.07586e-06
6.07364e-06
6.07235e-06
6.0724e-06
6.074e-06
6.07681e-06
6.08058e-06
6.08518e-06
6.09033e-06
6.09569e-06
6.10098e-06
6.10597e-06
6.11016e-06
6.11256e-06
6.11358e-06
6.11487e-06
6.11783e-06
6.12425e-06
6.13456e-06
6.14493e-06
6.1473e-06
6.13874e-06
6.13744e-06
6.17036e-06
6.1792e-06
6.10891e-06
6.12645e-06
6.12584e-06
6.12531e-06
6.12472e-06
6.12405e-06
6.12338e-06
6.12276e-06
6.12217e-06
6.12161e-06
6.12107e-06
6.12056e-06
6.12008e-06
6.11963e-06
6.1192e-06
6.11879e-06
6.1184e-06
6.11803e-06
6.11767e-06
6.11731e-06
6.11695e-06
6.1166e-06
6.11623e-06
6.11585e-06
6.11545e-06
6.11502e-06
6.11457e-06
6.11408e-06
6.11355e-06
6.11297e-06
6.11234e-06
6.11165e-06
6.1109e-06
6.1101e-06
6.10923e-06
6.1083e-06
6.10733e-06
6.1063e-06
6.10524e-06
6.10416e-06
6.10308e-06
6.102e-06
6.10095e-06
6.09994e-06
6.09896e-06
6.098e-06
6.09702e-06
6.09597e-06
6.09477e-06
6.09332e-06
6.09153e-06
6.08934e-06
6.08674e-06
6.08382e-06
6.08074e-06
6.07774e-06
6.0751e-06
6.07313e-06
6.07223e-06
6.07281e-06
6.07487e-06
6.07804e-06
6.08214e-06
6.08699e-06
6.09231e-06
6.09774e-06
6.10306e-06
6.10797e-06
6.11193e-06
6.11402e-06
6.11494e-06
6.11642e-06
6.11998e-06
6.12731e-06
6.13828e-06
6.14819e-06
6.14887e-06
6.13939e-06
6.1413e-06
6.17711e-06
6.18075e-06
6.10566e-06
6.12445e-06
6.12476e-06
6.12401e-06
6.12363e-06
6.1232e-06
6.12277e-06
6.12237e-06
6.12198e-06
6.1216e-06
6.12123e-06
6.12088e-06
6.12054e-06
6.1202e-06
6.11988e-06
6.11956e-06
6.11925e-06
6.11893e-06
6.11862e-06
6.1183e-06
6.11797e-06
6.11764e-06
6.11728e-06
6.11691e-06
6.11651e-06
6.11609e-06
6.11563e-06
6.11513e-06
6.11459e-06
6.11401e-06
6.11337e-06
6.11269e-06
6.11194e-06
6.11114e-06
6.11028e-06
6.10937e-06
6.10841e-06
6.1074e-06
6.10637e-06
6.10531e-06
6.10424e-06
6.10319e-06
6.10215e-06
6.10115e-06
6.10018e-06
6.09923e-06
6.09828e-06
6.09727e-06
6.09614e-06
6.0948e-06
6.09315e-06
6.09113e-06
6.0887e-06
6.0859e-06
6.08284e-06
6.07972e-06
6.07679e-06
6.07434e-06
6.07271e-06
6.0723e-06
6.07345e-06
6.07595e-06
6.07949e-06
6.0839e-06
6.089e-06
6.09445e-06
6.09996e-06
6.10527e-06
6.11006e-06
6.11372e-06
6.1155e-06
6.11637e-06
6.11816e-06
6.12246e-06
6.13078e-06
6.1423e-06
6.15146e-06
6.15023e-06
6.14019e-06
6.14624e-06
6.18419e-06
6.1817e-06
6.1019e-06
6.12354e-06
6.12386e-06
6.12326e-06
6.12301e-06
6.12274e-06
6.12248e-06
6.12222e-06
6.12196e-06
6.1217e-06
6.12144e-06
6.12119e-06
6.12093e-06
6.12067e-06
6.12041e-06
6.12014e-06
6.11986e-06
6.11958e-06
6.11928e-06
6.11897e-06
6.11864e-06
6.11829e-06
6.11791e-06
6.11751e-06
6.11708e-06
6.11662e-06
6.11611e-06
6.11556e-06
6.11497e-06
6.11433e-06
6.11364e-06
6.1129e-06
6.1121e-06
6.11125e-06
6.11035e-06
6.10941e-06
6.10843e-06
6.10741e-06
6.10638e-06
6.10534e-06
6.10431e-06
6.1033e-06
6.10232e-06
6.10137e-06
6.10044e-06
6.09951e-06
6.09853e-06
6.09746e-06
6.0962e-06
6.09467e-06
6.09279e-06
6.09051e-06
6.08784e-06
6.08485e-06
6.0817e-06
6.07861e-06
6.07582e-06
6.07363e-06
6.07242e-06
6.07261e-06
6.07433e-06
6.07726e-06
6.08117e-06
6.0859e-06
6.09121e-06
6.09678e-06
6.10233e-06
6.10762e-06
6.11223e-06
6.11553e-06
6.11702e-06
6.11791e-06
6.12014e-06
6.12532e-06
6.13469e-06
6.1466e-06
6.15466e-06
6.15134e-06
6.14124e-06
6.15236e-06
6.19151e-06
6.18188e-06
6.09764e-06
6.12348e-06
6.12369e-06
6.12331e-06
6.12314e-06
6.12296e-06
6.12277e-06
6.12258e-06
6.12239e-06
6.12218e-06
6.12197e-06
6.12176e-06
6.12153e-06
6.1213e-06
6.12105e-06
6.12079e-06
6.12052e-06
6.12022e-06
6.11991e-06
6.11958e-06
6.11923e-06
6.11885e-06
6.11844e-06
6.118e-06
6.11752e-06
6.117e-06
6.11645e-06
6.11585e-06
6.1152e-06
6.11451e-06
6.11376e-06
6.11297e-06
6.11213e-06
6.11125e-06
6.11033e-06
6.10937e-06
6.10839e-06
6.10739e-06
6.10638e-06
6.10538e-06
6.1044e-06
6.10345e-06
6.10252e-06
6.10161e-06
6.1007e-06
6.09976e-06
6.09872e-06
6.09752e-06
6.09608e-06
6.09432e-06
6.09218e-06
6.08964e-06
6.08675e-06
6.08362e-06
6.08044e-06
6.07743e-06
6.07485e-06
6.07303e-06
6.07235e-06
6.07321e-06
6.07547e-06
6.07884e-06
6.08312e-06
6.08814e-06
6.09364e-06
6.0993e-06
6.10488e-06
6.11009e-06
6.11445e-06
6.11736e-06
6.11858e-06
6.11962e-06
6.12245e-06
6.12867e-06
6.13909e-06
6.15114e-06
6.15771e-06
6.1522e-06
6.14272e-06
6.15976e-06
6.19891e-06
6.1811e-06
6.09263e-06
6.12388e-06
6.12403e-06
6.12375e-06
6.12361e-06
6.12346e-06
6.12331e-06
6.12314e-06
6.12296e-06
6.12277e-06
6.12258e-06
6.12236e-06
6.12214e-06
6.1219e-06
6.12164e-06
6.12136e-06
6.12107e-06
6.12075e-06
6.12041e-06
6.12005e-06
6.11965e-06
6.11923e-06
6.11877e-06
6.11828e-06
6.11776e-06
6.11719e-06
6.11658e-06
6.11593e-06
6.11523e-06
6.11449e-06
6.11371e-06
6.11289e-06
6.11202e-06
6.11112e-06
6.1102e-06
6.10925e-06
6.10829e-06
6.10732e-06
6.10637e-06
6.10543e-06
6.10451e-06
6.10362e-06
6.10274e-06
6.10186e-06
6.10094e-06
6.09994e-06
6.09879e-06
6.09741e-06
6.09574e-06
6.0937e-06
6.09128e-06
6.08849e-06
6.08541e-06
6.0822e-06
6.07906e-06
6.07621e-06
6.07394e-06
6.07259e-06
6.07258e-06
6.07411e-06
6.07689e-06
6.08068e-06
6.08532e-06
6.09061e-06
6.09627e-06
6.10201e-06
6.10758e-06
6.11266e-06
6.1167e-06
6.11917e-06
6.12018e-06
6.1215e-06
6.1251e-06
6.13251e-06
6.14394e-06
6.15584e-06
6.16051e-06
6.15278e-06
6.1447e-06
6.16837e-06
6.20618e-06
6.17912e-06
6.08789e-06
6.12447e-06
6.12461e-06
6.12435e-06
6.12422e-06
6.12407e-06
6.12391e-06
6.12374e-06
6.12356e-06
6.12336e-06
6.12315e-06
6.12292e-06
6.12267e-06
6.12241e-06
6.12212e-06
6.12182e-06
6.12149e-06
6.12114e-06
6.12076e-06
6.12035e-06
6.11992e-06
6.11945e-06
6.11895e-06
6.11841e-06
6.11783e-06
6.11722e-06
6.11657e-06
6.11588e-06
6.11515e-06
6.11438e-06
6.11357e-06
6.11274e-06
6.11187e-06
6.11098e-06
6.11008e-06
6.10916e-06
6.10824e-06
6.10733e-06
6.10644e-06
6.10556e-06
6.1047e-06
6.10384e-06
6.10298e-06
6.10207e-06
6.10109e-06
6.09996e-06
6.09862e-06
6.097e-06
6.09504e-06
6.09271e-06
6.09002e-06
6.08702e-06
6.08383e-06
6.08064e-06
6.07763e-06
6.07506e-06
6.07322e-06
6.07249e-06
6.07326e-06
6.07544e-06
6.07874e-06
6.08296e-06
6.08795e-06
6.09348e-06
6.09926e-06
6.10503e-06
6.11054e-06
6.1154e-06
6.11903e-06
6.12107e-06
6.12203e-06
6.12387e-06
6.12852e-06
6.13724e-06
6.1495e-06
6.1607e-06
6.16294e-06
6.15321e-06
6.14773e-06
6.17871e-06
6.21309e-06
6.17632e-06
6.08497e-06
6.1249e-06
6.12505e-06
6.12476e-06
6.12462e-06
6.12446e-06
6.12428e-06
6.1241e-06
6.1239e-06
6.12368e-06
6.12345e-06
6.12319e-06
6.12292e-06
6.12263e-06
6.12231e-06
6.12197e-06
6.12161e-06
6.12122e-06
6.1208e-06
6.12035e-06
6.11987e-06
6.11936e-06
6.11882e-06
6.11824e-06
6.11763e-06
6.11698e-06
6.11629e-06
6.11557e-06
6.11482e-06
6.11404e-06
6.11323e-06
6.11239e-06
6.11154e-06
6.11068e-06
6.10981e-06
6.10895e-06
6.10809e-06
6.10725e-06
6.10643e-06
6.10563e-06
6.10483e-06
6.10402e-06
6.10317e-06
6.10223e-06
6.10116e-06
6.09989e-06
6.09834e-06
6.09647e-06
6.09423e-06
6.09162e-06
6.08868e-06
6.08551e-06
6.08225e-06
6.07908e-06
6.07622e-06
6.07393e-06
6.07258e-06
6.07257e-06
6.07402e-06
6.07674e-06
6.08046e-06
6.08505e-06
6.09033e-06
6.09604e-06
6.10192e-06
6.10772e-06
6.11317e-06
6.1178e-06
6.12101e-06
6.12263e-06
6.12353e-06
6.12587e-06
6.13151e-06
6.14149e-06
6.15453e-06
6.16504e-06
6.16489e-06
6.15313e-06
6.15034e-06
6.18832e-06
6.21914e-06
6.17198e-06
6.08171e-06
6.12533e-06
6.12552e-06
6.12516e-06
6.12498e-06
6.12478e-06
6.12456e-06
6.12434e-06
6.12409e-06
6.12383e-06
6.12355e-06
6.12325e-06
6.12293e-06
6.12259e-06
6.12222e-06
6.12184e-06
6.12142e-06
6.12099e-06
6.12052e-06
6.12003e-06
6.11951e-06
6.11897e-06
6.1184e-06
6.11779e-06
6.11716e-06
6.11651e-06
6.11583e-06
6.11513e-06
6.11441e-06
6.11367e-06
6.11291e-06
6.11215e-06
6.11138e-06
6.11062e-06
6.10985e-06
6.10909e-06
6.10833e-06
6.10757e-06
6.1068e-06
6.10601e-06
6.10516e-06
6.10424e-06
6.10319e-06
6.10198e-06
6.10054e-06
6.09882e-06
6.0968e-06
6.09444e-06
6.09175e-06
6.0888e-06
6.08566e-06
6.08248e-06
6.0794e-06
6.07664e-06
6.07443e-06
6.07307e-06
6.07288e-06
6.07411e-06
6.07667e-06
6.08027e-06
6.08472e-06
6.08989e-06
6.09557e-06
6.1015e-06
6.10743e-06
6.11312e-06
6.11819e-06
6.12212e-06
6.12452e-06
6.12581e-06
6.12747e-06
6.13159e-06
6.13959e-06
6.15156e-06
6.16455e-06
6.1717e-06
6.16647e-06
6.15436e-06
6.1628e-06
6.20836e-06
6.22595e-06
6.16642e-06
6.08389e-06
)
;

boundaryField
{
    inlet
    {
        type            freestream;
        freestreamValue uniform 1e-05;
        value           uniform 1e-05;
    }
    outlet
    {
        type            freestream;
        freestreamValue uniform 1e-05;
        value           nonuniform List<scalar> 
82
(
6.12533e-06
6.12516e-06
6.12552e-06
6.12498e-06
6.12478e-06
6.12456e-06
6.12434e-06
6.12409e-06
6.12383e-06
6.12355e-06
6.12325e-06
6.12293e-06
6.12259e-06
6.12222e-06
6.12184e-06
6.12142e-06
6.12099e-06
6.12052e-06
6.12003e-06
6.11951e-06
6.11897e-06
6.1184e-06
6.11779e-06
6.11716e-06
6.11651e-06
6.11583e-06
6.11513e-06
6.11441e-06
6.11367e-06
6.11291e-06
6.11215e-06
6.11138e-06
6.11062e-06
6.10985e-06
6.10909e-06
6.10833e-06
6.10757e-06
6.1068e-06
6.10601e-06
6.10516e-06
6.10424e-06
6.10319e-06
6.10198e-06
6.10054e-06
6.09882e-06
6.0968e-06
6.09444e-06
6.09175e-06
6.0888e-06
6.08566e-06
6.08248e-06
6.0794e-06
6.07664e-06
6.07443e-06
6.07307e-06
6.07288e-06
6.07411e-06
6.07667e-06
6.08027e-06
6.08472e-06
6.08989e-06
6.09557e-06
6.1015e-06
6.10743e-06
6.11312e-06
6.11819e-06
6.12212e-06
6.12452e-06
6.12581e-06
6.12747e-06
6.13159e-06
6.13959e-06
6.15156e-06
6.16455e-06
6.1717e-06
6.16647e-06
6.15436e-06
6.1628e-06
6.20836e-06
6.22595e-06
6.16642e-06
6.08389e-06
)
;
    }
    walls
    {
        type            nutUSpaldingWallFunction;
        value           nonuniform List<scalar> 0();
    }
    frontAndBack
    {
        type            empty;
    }
    procBoundary3to2
    {
        type            processor;
        value           nonuniform List<scalar> 
88
(
6.14605e-06
6.12004e-06
6.12242e-06
6.12229e-06
6.12229e-06
6.12821e-06
6.13033e-06
6.13033e-06
6.10831e-06
6.11268e-06
6.12057e-06
6.12057e-06
6.09803e-06
6.10178e-06
6.10408e-06
6.10561e-06
6.10693e-06
6.10693e-06
6.07678e-06
6.08041e-06
6.08474e-06
6.08945e-06
6.09421e-06
6.09421e-06
6.07965e-06
6.07698e-06
6.07458e-06
6.07279e-06
6.07198e-06
6.07253e-06
6.0744e-06
6.0744e-06
6.09739e-06
6.09627e-06
6.09518e-06
6.09412e-06
6.0931e-06
6.09209e-06
6.09104e-06
6.08986e-06
6.08845e-06
6.08671e-06
6.08458e-06
6.0821e-06
6.0821e-06
3.43388e-06
7.97664e-06
7.20645e-06
6.04881e-06
6.01152e-06
6.11985e-06
6.14456e-06
6.15125e-06
6.14405e-06
6.13779e-06
6.13458e-06
6.13141e-06
6.12827e-06
6.12561e-06
6.12323e-06
6.12107e-06
6.11916e-06
6.11748e-06
6.116e-06
6.11472e-06
6.11362e-06
6.11267e-06
6.11187e-06
6.11118e-06
6.11059e-06
6.11008e-06
6.10961e-06
6.10916e-06
6.10872e-06
6.10826e-06
6.10779e-06
6.10727e-06
6.10671e-06
6.10609e-06
6.1054e-06
6.10464e-06
6.10381e-06
6.1029e-06
6.10192e-06
6.10088e-06
6.09979e-06
6.09867e-06
6.09867e-06
)
;
    }
    procBoundary3to6
    {
        type            processor;
        value           uniform 8.57935e-15;
    }
    procBoundary3to7
    {
        type            processor;
        value           nonuniform List<scalar> 
16
(
4.56057e-09
6.26246e-06
8.02408e-06
6.23048e-06
6.01594e-06
6.13444e-06
6.13894e-06
6.12769e-06
6.12769e-06
6.12552e-06
6.12404e-06
6.1239e-06
6.12419e-06
6.12475e-06
6.12521e-06
6.12571e-06
)
;
    }
}


// ************************************************************************* //
