/*--------------------------------*- C++ -*----------------------------------*\
| =========                 |                                                 |
| \\      /  F ield         | OpenFOAM: The Open Source CFD Toolbox           |
|  \\    /   O peration     | Version:  2306                                  |
|   \\  /    A nd           | Website:  www.openfoam.com                      |
|    \\/     M anipulation  |                                                 |
\*---------------------------------------------------------------------------*/
FoamFile
{
    version     2.0;
    format      ascii;
    arch        "LSB;label=32;scalar=64";
    class       volScalarField;
    location    "325";
    object      turbulenceProperties:I;
}
// * * * * * * * * * * * * * * * * * * * * * * * * * * * * * * * * * * * * * //

dimensions      [0 0 0 0 0 0 0];

internalField   nonuniform List<scalar> 
1340
(
2.65957e-05
3.72839e-05
1.25954e-05
2.55151e-05
2.65529e-05
3.72919e-05
1.32103e-05
1.67607e-05
1.24676e-05
2.55557e-05
2.65549e-05
3.72812e-05
1.79635e-05
1.68517e-05
1.63217e-05
1.35263e-05
1.69502e-05
1.23907e-05
2.55996e-05
2.65875e-05
3.72608e-05
2.14912e-05
2.06849e-05
2.0002e-05
1.9345e-05
1.86362e-05
1.79434e-05
1.68877e-05
1.64115e-05
1.38569e-05
1.71301e-05
1.23584e-05
2.56449e-05
2.664e-05
3.7236e-05
2.54832e-05
2.4666e-05
2.38236e-05
2.29742e-05
2.21111e-05
2.12686e-05
2.05109e-05
1.98712e-05
1.92525e-05
1.85831e-05
1.79273e-05
1.6933e-05
1.65117e-05
1.41962e-05
1.72965e-05
1.2367e-05
2.56869e-05
2.67038e-05
3.72081e-05
2.97552e-05
2.91048e-05
2.84423e-05
2.77716e-05
2.70936e-05
2.64055e-05
2.56994e-05
2.4968e-05
2.42086e-05
2.34254e-05
2.26357e-05
2.183e-05
2.10418e-05
2.03351e-05
1.97394e-05
1.91599e-05
1.85315e-05
1.79137e-05
1.6986e-05
1.66202e-05
1.45402e-05
1.74468e-05
1.24129e-05
2.57247e-05
2.67718e-05
3.71736e-05
3.45185e-05
3.4123e-05
3.37111e-05
3.32836e-05
3.28416e-05
3.23852e-05
3.19152e-05
3.14321e-05
3.09357e-05
3.04242e-05
2.98963e-05
2.93501e-05
2.87856e-05
2.82041e-05
2.76088e-05
2.70031e-05
2.63877e-05
2.57598e-05
2.51126e-05
2.44402e-05
2.37406e-05
2.30186e-05
2.22903e-05
2.15438e-05
2.08121e-05
2.0158e-05
1.96068e-05
1.90672e-05
1.84811e-05
1.79023e-05
1.70464e-05
1.6736e-05
1.48857e-05
1.75785e-05
1.24931e-05
2.57564e-05
2.68343e-05
3.71369e-05
3.40153e-05
3.46825e-05
3.26055e-05
3.30189e-05
3.30377e-05
3.37817e-05
3.4173e-05
3.45551e-05
3.48853e-05
3.5195e-05
3.54776e-05
3.57325e-05
3.59538e-05
3.61435e-05
3.63083e-05
3.64399e-05
3.65429e-05
3.66185e-05
3.6668e-05
3.66933e-05
3.66948e-05
3.66741e-05
3.66338e-05
3.65753e-05
3.64996e-05
3.64079e-05
3.6302e-05
3.61834e-05
3.60516e-05
3.59087e-05
3.57541e-05
3.55887e-05
3.5413e-05
3.52264e-05
3.50295e-05
3.48217e-05
3.46024e-05
3.43724e-05
3.41295e-05
3.38739e-05
3.36058e-05
3.33233e-05
3.30263e-05
3.27136e-05
3.2386e-05
3.20427e-05
3.16838e-05
3.13107e-05
3.09229e-05
3.05216e-05
3.01076e-05
2.96799e-05
2.92374e-05
2.87785e-05
2.83014e-05
2.78057e-05
2.72922e-05
2.67635e-05
2.62223e-05
2.56693e-05
2.51021e-05
2.45148e-05
2.39026e-05
2.32645e-05
2.26053e-05
2.19398e-05
2.12537e-05
2.05805e-05
1.99802e-05
1.94736e-05
1.89742e-05
1.84315e-05
1.78926e-05
1.71135e-05
1.68582e-05
1.52305e-05
1.76903e-05
1.26033e-05
2.57776e-05
2.68875e-05
3.71004e-05
3.44152e-05
3.07471e-05
2.94203e-05
3.0736e-05
3.10221e-05
3.15219e-05
3.18217e-05
3.21498e-05
3.24404e-05
3.2714e-05
3.29619e-05
3.31836e-05
3.33787e-05
3.35474e-05
3.3693e-05
3.38103e-05
3.39038e-05
3.39756e-05
3.40242e-05
3.4052e-05
3.40607e-05
3.4051e-05
3.40247e-05
3.39836e-05
3.39281e-05
3.38599e-05
3.37809e-05
3.36904e-05
3.359e-05
3.34806e-05
3.33619e-05
3.32349e-05
3.30991e-05
3.29552e-05
3.28028e-05
3.26411e-05
3.24706e-05
3.22904e-05
3.20997e-05
3.18979e-05
3.16845e-05
3.14588e-05
3.12193e-05
3.09657e-05
3.06983e-05
3.04154e-05
3.01183e-05
2.98072e-05
2.94823e-05
2.91448e-05
2.87951e-05
2.84325e-05
2.80557e-05
2.76633e-05
2.72528e-05
2.68238e-05
2.63764e-05
2.59127e-05
2.54351e-05
2.49437e-05
2.4437e-05
2.391e-05
2.33589e-05
2.27833e-05
2.2188e-05
2.1586e-05
2.09612e-05
2.0348e-05
1.98022e-05
1.93396e-05
1.88807e-05
1.83822e-05
1.78846e-05
1.71867e-05
1.69861e-05
1.55715e-05
1.77815e-05
1.2735e-05
2.57938e-05
2.6924e-05
3.70707e-05
3.00637e-05
2.82172e-05
2.76892e-05
2.89475e-05
2.90887e-05
2.94594e-05
2.97206e-05
2.99983e-05
3.02485e-05
3.04808e-05
3.06878e-05
3.08776e-05
3.10434e-05
3.11871e-05
3.131e-05
3.14116e-05
3.14923e-05
3.15561e-05
3.16004e-05
3.16262e-05
3.16379e-05
3.16347e-05
3.16182e-05
3.1588e-05
3.15482e-05
3.14983e-05
3.14387e-05
3.13707e-05
3.12953e-05
3.12125e-05
3.11229e-05
3.10271e-05
3.09244e-05
3.08154e-05
3.07e-05
3.05775e-05
3.04477e-05
3.031e-05
3.01639e-05
3.00081e-05
2.98423e-05
2.96657e-05
2.94763e-05
2.92749e-05
2.90601e-05
2.8831e-05
2.85894e-05
2.83344e-05
2.80672e-05
2.77887e-05
2.7499e-05
2.71976e-05
2.68834e-05
2.65544e-05
2.62078e-05
2.58431e-05
2.54597e-05
2.50589e-05
2.46431e-05
2.42126e-05
2.3766e-05
2.32995e-05
2.28099e-05
2.22978e-05
2.1767e-05
2.12289e-05
2.06662e-05
2.01144e-05
1.9623e-05
1.92036e-05
1.87859e-05
1.83323e-05
1.78776e-05
1.72659e-05
1.71194e-05
1.59066e-05
1.78532e-05
1.28869e-05
2.57876e-05
2.6955e-05
3.70532e-05
2.77301e-05
2.66589e-05
2.62403e-05
2.72094e-05
2.7287e-05
2.75973e-05
2.78178e-05
2.80476e-05
2.82532e-05
2.84444e-05
2.86156e-05
2.87715e-05
2.89085e-05
2.90274e-05
2.91294e-05
2.9215e-05
2.92829e-05
2.93372e-05
2.9376e-05
2.94002e-05
2.94132e-05
2.94145e-05
2.94045e-05
2.93844e-05
2.93579e-05
2.93215e-05
2.92785e-05
2.92302e-05
2.91749e-05
2.91148e-05
2.90493e-05
2.89798e-05
2.89045e-05
2.88253e-05
2.87409e-05
2.8651e-05
2.85557e-05
2.84541e-05
2.83452e-05
2.82287e-05
2.81034e-05
2.79683e-05
2.78226e-05
2.76658e-05
2.74965e-05
2.73153e-05
2.71223e-05
2.69175e-05
2.67024e-05
2.64774e-05
2.62429e-05
2.59983e-05
2.57426e-05
2.54725e-05
2.51863e-05
2.48824e-05
2.45588e-05
2.42181e-05
2.38617e-05
2.34895e-05
2.31017e-05
2.2695e-05
2.22661e-05
2.18169e-05
2.13502e-05
2.0875e-05
2.03741e-05
1.98835e-05
1.94458e-05
1.90684e-05
1.86916e-05
1.82829e-05
1.7873e-05
1.73507e-05
1.72579e-05
1.62285e-05
1.79079e-05
1.30273e-05
2.57677e-05
2.69597e-05
3.70742e-05
2.60721e-05
2.50766e-05
2.46476e-05
2.54393e-05
2.54988e-05
2.57558e-05
2.59341e-05
2.612e-05
2.62833e-05
2.64392e-05
2.65781e-05
2.67035e-05
2.68161e-05
2.69121e-05
2.69962e-05
2.70684e-05
2.71254e-05
2.71708e-05
2.7206e-05
2.72296e-05
2.72444e-05
2.72497e-05
2.72467e-05
2.72374e-05
2.72212e-05
2.71984e-05
2.71728e-05
2.71415e-05
2.71049e-05
2.70648e-05
2.70238e-05
2.69777e-05
2.69292e-05
2.68757e-05
2.68198e-05
2.67632e-05
2.66976e-05
2.66288e-05
2.65552e-05
2.64754e-05
2.63865e-05
2.62909e-05
2.61854e-05
2.60688e-05
2.59437e-05
2.58061e-05
2.56587e-05
2.55023e-05
2.53357e-05
2.51626e-05
2.4981e-05
2.47909e-05
2.45923e-05
2.43796e-05
2.41513e-05
2.3907e-05
2.36422e-05
2.33596e-05
2.30625e-05
2.27483e-05
2.24193e-05
2.20738e-05
2.17071e-05
2.13221e-05
2.09209e-05
2.05104e-05
2.00727e-05
1.9645e-05
1.92619e-05
1.89274e-05
1.85924e-05
1.82304e-05
1.78701e-05
1.74423e-05
1.7406e-05
1.65475e-05
1.79449e-05
1.32915e-05
2.56726e-05
2.70165e-05
3.70973e-05
2.40954e-05
2.31747e-05
2.27587e-05
2.34177e-05
2.34425e-05
2.36474e-05
2.37758e-05
2.39042e-05
2.40393e-05
2.41473e-05
2.4249e-05
2.43527e-05
2.44335e-05
2.45032e-05
2.45736e-05
2.46341e-05
2.46721e-05
2.47161e-05
2.47473e-05
2.47706e-05
2.47907e-05
2.47977e-05
2.48069e-05
2.4811e-05
2.48058e-05
2.48011e-05
2.47941e-05
2.47832e-05
2.47704e-05
2.47521e-05
2.4739e-05
2.47226e-05
2.47022e-05
2.46769e-05
2.46579e-05
2.46349e-05
2.46038e-05
2.45712e-05
2.45369e-05
2.44972e-05
2.4448e-05
2.43971e-05
2.43319e-05
2.42612e-05
2.41847e-05
2.40928e-05
2.39967e-05
2.38941e-05
2.37802e-05
2.36655e-05
2.35434e-05
2.34133e-05
2.32798e-05
2.3131e-05
2.2967e-05
2.27887e-05
2.2591e-05
2.23731e-05
2.21426e-05
2.1896e-05
2.16352e-05
2.13605e-05
2.10664e-05
2.07566e-05
2.04313e-05
2.00948e-05
1.973e-05
1.93755e-05
1.90533e-05
1.87662e-05
1.84795e-05
1.81722e-05
1.78709e-05
1.75563e-05
1.75706e-05
1.69143e-05
1.79002e-05
1.37949e-05
2.54116e-05
2.68766e-05
3.64453e-05
2.18109e-05
2.10983e-05
2.07606e-05
2.12497e-05
2.12508e-05
2.13979e-05
2.14709e-05
2.15569e-05
2.16516e-05
2.17158e-05
2.17882e-05
2.18619e-05
2.19127e-05
2.19602e-05
2.2018e-05
2.20611e-05
2.2087e-05
2.21296e-05
2.21518e-05
2.21796e-05
2.22049e-05
2.22119e-05
2.22334e-05
2.22528e-05
2.22576e-05
2.22711e-05
2.22795e-05
2.22892e-05
2.23016e-05
2.2307e-05
2.23163e-05
2.23294e-05
2.23351e-05
2.23407e-05
2.23558e-05
2.2361e-05
2.23654e-05
2.2369e-05
2.23713e-05
2.23673e-05
2.23596e-05
2.23468e-05
2.23234e-05
2.23004e-05
2.22653e-05
2.2223e-05
2.21795e-05
2.21296e-05
2.20738e-05
2.20187e-05
2.19608e-05
2.18958e-05
2.18293e-05
2.17493e-05
2.16551e-05
2.15462e-05
2.14191e-05
2.12733e-05
2.11158e-05
2.09447e-05
2.07615e-05
2.05661e-05
2.03548e-05
2.01294e-05
1.9888e-05
1.96336e-05
1.93512e-05
1.90771e-05
1.88207e-05
1.85858e-05
1.83535e-05
1.81093e-05
1.78809e-05
1.76934e-05
1.77622e-05
1.72954e-05
1.78269e-05
1.43234e-05
2.53824e-05
2.67468e-05
3.64023e-05
1.96938e-05
1.91143e-05
1.88113e-05
1.91925e-05
1.9183e-05
1.92685e-05
1.93189e-05
1.93893e-05
1.94251e-05
1.94791e-05
1.95361e-05
1.95744e-05
1.96105e-05
1.96499e-05
1.96949e-05
1.97183e-05
1.97518e-05
1.97845e-05
1.9802e-05
1.98366e-05
1.98645e-05
1.98774e-05
1.99067e-05
1.99332e-05
1.99485e-05
1.99807e-05
2.00014e-05
2.00246e-05
2.00562e-05
2.00822e-05
2.01082e-05
2.0144e-05
2.01711e-05
2.02016e-05
2.024e-05
2.02691e-05
2.03005e-05
2.03331e-05
2.03621e-05
2.03864e-05
2.04112e-05
2.04276e-05
2.04418e-05
2.04537e-05
2.04543e-05
2.04562e-05
2.04568e-05
2.04533e-05
2.04501e-05
2.04477e-05
2.04474e-05
2.0442e-05
2.04331e-05
2.04165e-05
2.03841e-05
2.03381e-05
2.02762e-05
2.01974e-05
2.01099e-05
2.00112e-05
1.99027e-05
1.97854e-05
1.96547e-05
1.951e-05
1.93506e-05
1.91763e-05
1.8975e-05
1.87792e-05
1.85867e-05
1.84044e-05
1.82291e-05
1.80514e-05
1.79051e-05
1.78444e-05
1.79729e-05
1.76492e-05
1.77905e-05
1.48296e-05
2.54804e-05
2.63772e-05
3.63788e-05
1.77688e-05
1.68013e-05
1.72347e-05
1.69106e-05
1.72773e-05
1.72309e-05
1.72882e-05
1.73359e-05
1.73798e-05
1.74014e-05
1.74408e-05
1.74847e-05
1.75151e-05
1.75404e-05
1.75776e-05
1.76165e-05
1.76331e-05
1.76725e-05
1.77025e-05
1.77271e-05
1.77662e-05
1.77929e-05
1.78248e-05
1.78577e-05
1.78923e-05
1.79263e-05
1.79672e-05
1.80047e-05
1.80416e-05
1.80901e-05
1.81339e-05
1.81764e-05
1.82322e-05
1.82775e-05
1.83296e-05
1.83883e-05
1.84365e-05
1.84916e-05
1.8547e-05
1.8597e-05
1.86476e-05
1.86959e-05
1.874e-05
1.87836e-05
1.8822e-05
1.88589e-05
1.88959e-05
1.89336e-05
1.89725e-05
1.90138e-05
1.9057e-05
1.91043e-05
1.91485e-05
1.91881e-05
1.92226e-05
1.92409e-05
1.92476e-05
1.92411e-05
1.922e-05
1.91935e-05
1.91592e-05
1.91172e-05
1.90694e-05
1.90099e-05
1.89373e-05
1.88513e-05
1.87494e-05
1.86221e-05
1.84973e-05
1.8363e-05
1.8231e-05
1.81128e-05
1.80032e-05
1.79449e-05
1.80054e-05
1.81902e-05
1.7963e-05
1.77828e-05
1.54265e-05
2.56407e-05
2.59015e-05
3.63474e-05
1.5974e-05
1.50803e-05
1.54489e-05
1.51317e-05
1.54812e-05
1.54222e-05
1.54793e-05
1.55001e-05
1.55392e-05
1.55678e-05
1.55866e-05
1.56254e-05
1.56542e-05
1.56864e-05
1.57173e-05
1.5749e-05
1.57762e-05
1.58168e-05
1.58531e-05
1.58842e-05
1.59227e-05
1.59586e-05
1.60085e-05
1.60448e-05
1.60918e-05
1.61389e-05
1.61874e-05
1.62454e-05
1.62943e-05
1.63561e-05
1.64147e-05
1.64776e-05
1.65467e-05
1.66098e-05
1.66807e-05
1.67554e-05
1.68249e-05
1.68963e-05
1.69725e-05
1.70436e-05
1.71156e-05
1.71875e-05
1.72549e-05
1.73248e-05
1.73922e-05
1.74612e-05
1.75311e-05
1.7603e-05
1.7681e-05
1.77622e-05
1.78447e-05
1.79324e-05
1.80183e-05
1.8098e-05
1.81747e-05
1.82358e-05
1.82866e-05
1.8328e-05
1.83581e-05
1.83852e-05
1.84074e-05
1.84246e-05
1.84369e-05
1.84402e-05
1.84311e-05
1.84092e-05
1.8372e-05
1.83113e-05
1.82498e-05
1.81685e-05
1.80848e-05
1.80223e-05
1.79811e-05
1.8013e-05
1.81854e-05
1.84161e-05
1.82474e-05
1.78259e-05
1.61964e-05
2.58636e-05
2.53381e-05
3.63266e-05
1.4265e-05
1.34604e-05
1.37574e-05
1.34637e-05
1.3786e-05
1.374e-05
1.37886e-05
1.38116e-05
1.38559e-05
1.38701e-05
1.39012e-05
1.39456e-05
1.39711e-05
1.4011e-05
1.40482e-05
1.4079e-05
1.41238e-05
1.41672e-05
1.42128e-05
1.42504e-05
1.43e-05
1.43543e-05
1.44035e-05
1.44573e-05
1.4519e-05
1.45714e-05
1.46391e-05
1.47095e-05
1.47686e-05
1.48454e-05
1.49168e-05
1.49961e-05
1.50768e-05
1.51524e-05
1.5239e-05
1.53292e-05
1.54098e-05
1.54978e-05
1.559e-05
1.56761e-05
1.57646e-05
1.58579e-05
1.59436e-05
1.60342e-05
1.61296e-05
1.62223e-05
1.63214e-05
1.64227e-05
1.6532e-05
1.6644e-05
1.67577e-05
1.6878e-05
1.69943e-05
1.71061e-05
1.7216e-05
1.73122e-05
1.74004e-05
1.74832e-05
1.75588e-05
1.76333e-05
1.77044e-05
1.77735e-05
1.78392e-05
1.78962e-05
1.79431e-05
1.79778e-05
1.79977e-05
1.79962e-05
1.79894e-05
1.79557e-05
1.79198e-05
1.7914e-05
1.79432e-05
1.80674e-05
1.83382e-05
1.85927e-05
1.84388e-05
1.78608e-05
1.70406e-05
2.614e-05
2.46329e-05
3.63516e-05
1.30628e-05
1.23669e-05
1.26368e-05
1.23585e-05
1.26588e-05
1.26131e-05
1.26388e-05
1.26774e-05
1.27063e-05
1.27165e-05
1.2752e-05
1.27888e-05
1.28137e-05
1.28442e-05
1.28856e-05
1.29151e-05
1.29616e-05
1.30046e-05
1.30412e-05
1.30846e-05
1.31391e-05
1.31939e-05
1.32378e-05
1.32929e-05
1.33648e-05
1.34154e-05
1.3484e-05
1.3557e-05
1.36232e-05
1.36997e-05
1.37784e-05
1.38607e-05
1.39462e-05
1.40299e-05
1.4124e-05
1.42197e-05
1.43097e-05
1.44109e-05
1.45125e-05
1.46148e-05
1.47158e-05
1.48277e-05
1.49339e-05
1.50459e-05
1.51647e-05
1.52793e-05
1.54062e-05
1.55317e-05
1.56643e-05
1.58003e-05
1.5938e-05
1.608e-05
1.62183e-05
1.63562e-05
1.64901e-05
1.66157e-05
1.6737e-05
1.68546e-05
1.69683e-05
1.70823e-05
1.71935e-05
1.73045e-05
1.7413e-05
1.7513e-05
1.76066e-05
1.76888e-05
1.77568e-05
1.78067e-05
1.78492e-05
1.78609e-05
1.78681e-05
1.79097e-05
1.7997e-05
1.81974e-05
1.85386e-05
1.87977e-05
1.86598e-05
1.8097e-05
1.82171e-05
2.6572e-05
2.39566e-05
3.65642e-05
1.17892e-05
1.11345e-05
1.13785e-05
1.11059e-05
1.14483e-05
1.13981e-05
1.14478e-05
1.14909e-05
1.15053e-05
1.15303e-05
1.15846e-05
1.16274e-05
1.16629e-05
1.16952e-05
1.17435e-05
1.17949e-05
1.18467e-05
1.18913e-05
1.1933e-05
1.20037e-05
1.20582e-05
1.21169e-05
1.2175e-05
1.2234e-05
1.23158e-05
1.23774e-05
1.2448e-05
1.25234e-05
1.26021e-05
1.26824e-05
1.27609e-05
1.28525e-05
1.29358e-05
1.30263e-05
1.31242e-05
1.32183e-05
1.33154e-05
1.34148e-05
1.35244e-05
1.36307e-05
1.37355e-05
1.38542e-05
1.39696e-05
1.40893e-05
1.42135e-05
1.43413e-05
1.4474e-05
1.46078e-05
1.47467e-05
1.4888e-05
1.50338e-05
1.51797e-05
1.53276e-05
1.54765e-05
1.56223e-05
1.57659e-05
1.59093e-05
1.60517e-05
1.61925e-05
1.63362e-05
1.64782e-05
1.66221e-05
1.67642e-05
1.69001e-05
1.70317e-05
1.71517e-05
1.72585e-05
1.73479e-05
1.74202e-05
1.74602e-05
1.75119e-05
1.76128e-05
1.7779e-05
1.80767e-05
1.84795e-05
1.86865e-05
1.84642e-05
1.79367e-05
1.89334e-05
2.68168e-05
2.27815e-05
3.69391e-05
1.21018e-05
1.16651e-05
1.18322e-05
1.1644e-05
1.18075e-05
1.17726e-05
1.18118e-05
1.18323e-05
1.18265e-05
1.18425e-05
1.18768e-05
1.19048e-05
1.19222e-05
1.19338e-05
1.19652e-05
1.19981e-05
1.2026e-05
1.20528e-05
1.20762e-05
1.21266e-05
1.21617e-05
1.21941e-05
1.22362e-05
1.22799e-05
1.23351e-05
1.23829e-05
1.24381e-05
1.24938e-05
1.25592e-05
1.26269e-05
1.26931e-05
1.27753e-05
1.28506e-05
1.29391e-05
1.3032e-05
1.3128e-05
1.32294e-05
1.33349e-05
1.34543e-05
1.35687e-05
1.3692e-05
1.38214e-05
1.39505e-05
1.40826e-05
1.42178e-05
1.43548e-05
1.44879e-05
1.46255e-05
1.47618e-05
1.48997e-05
1.50437e-05
1.51888e-05
1.53413e-05
1.54959e-05
1.5654e-05
1.58126e-05
1.59712e-05
1.61286e-05
1.62811e-05
1.64339e-05
1.65834e-05
1.67343e-05
1.68847e-05
1.70325e-05
1.71781e-05
1.73152e-05
1.74441e-05
1.75626e-05
1.7677e-05
1.77616e-05
1.78312e-05
1.79313e-05
1.80842e-05
1.83562e-05
1.8718e-05
1.88889e-05
1.87911e-05
1.87794e-05
2.08358e-05
2.75347e-05
2.31273e-05
3.86664e-05
1.05264e-05
1.05883e-05
1.05288e-05
1.06517e-05
1.07095e-05
1.07307e-05
1.07639e-05
1.0788e-05
1.0824e-05
1.08615e-05
1.08847e-05
1.09208e-05
1.09568e-05
1.09942e-05
1.10304e-05
1.10653e-05
1.11078e-05
1.11477e-05
1.11885e-05
1.12343e-05
1.12756e-05
1.13241e-05
1.13692e-05
1.14177e-05
1.14703e-05
1.15239e-05
1.15782e-05
1.16328e-05
1.16945e-05
1.17539e-05
1.18178e-05
1.18848e-05
1.1951e-05
1.20247e-05
1.20973e-05
1.21758e-05
1.22553e-05
1.23379e-05
1.24245e-05
1.25093e-05
1.25996e-05
1.26886e-05
1.27772e-05
1.28653e-05
1.29548e-05
1.30413e-05
1.31276e-05
1.32176e-05
1.33087e-05
1.34071e-05
1.35114e-05
1.36238e-05
1.37453e-05
1.38713e-05
1.40048e-05
1.4141e-05
1.42821e-05
1.44257e-05
1.45714e-05
1.4725e-05
1.48821e-05
1.50459e-05
1.52128e-05
1.53803e-05
1.55466e-05
1.57033e-05
1.58502e-05
1.59806e-05
1.60557e-05
1.60881e-05
1.61956e-05
1.64143e-05
1.67495e-05
1.72471e-05
1.77043e-05
1.76632e-05
1.71553e-05
1.73368e-05
2.05759e-05
2.5375e-05
2.19803e-05
3.86589e-05
)
;

boundaryField
{
    inlet
    {
        type            calculated;
        value           nonuniform List<scalar> 
23
(
7.5995e-05
7.57877e-05
7.5586e-05
7.53893e-05
7.51936e-05
7.49945e-05
7.47868e-05
7.45665e-05
7.43278e-05
7.40659e-05
7.37737e-05
7.34526e-05
7.30843e-05
7.25202e-05
7.20473e-05
7.14703e-05
7.0748e-05
6.98604e-05
6.87801e-05
6.74907e-05
6.5919e-05
6.46706e-05
6.22272e-05
)
;
    }
    outlet
    {
        type            calculated;
        value           nonuniform List<scalar> 
82
(
9.39367e-06
9.38812e-06
9.48793e-06
9.54923e-06
9.62028e-06
9.64025e-06
9.67603e-06
9.69978e-06
9.73881e-06
9.77979e-06
9.80143e-06
9.83976e-06
9.87803e-06
9.91753e-06
9.9555e-06
9.9912e-06
1.00368e-05
1.00787e-05
1.01212e-05
1.01704e-05
1.02132e-05
1.02648e-05
1.0312e-05
1.0363e-05
1.04188e-05
1.04755e-05
1.05326e-05
1.05891e-05
1.06542e-05
1.07156e-05
1.07816e-05
1.08507e-05
1.09175e-05
1.09929e-05
1.10654e-05
1.1144e-05
1.12227e-05
1.13037e-05
1.13885e-05
1.14696e-05
1.15568e-05
1.16417e-05
1.17254e-05
1.18083e-05
1.18932e-05
1.19748e-05
1.20567e-05
1.21442e-05
1.22334e-05
1.23318e-05
1.24368e-05
1.25502e-05
1.26728e-05
1.27983e-05
1.29307e-05
1.30653e-05
1.32061e-05
1.3352e-05
1.35037e-05
1.36691e-05
1.38421e-05
1.40249e-05
1.42118e-05
1.43984e-05
1.45826e-05
1.47538e-05
1.49098e-05
1.50388e-05
1.50918e-05
1.51008e-05
1.52195e-05
1.5488e-05
1.59163e-05
1.65413e-05
1.70922e-05
1.70057e-05
1.62131e-05
1.60566e-05
1.94884e-05
2.48938e-05
1.98228e-05
3.68165e-05
)
;
    }
    walls
    {
        type            calculated;
        value           nonuniform List<scalar> 0();
    }
    frontAndBack
    {
        type            empty;
    }
    procBoundary3to2
    {
        type            processor;
        value           nonuniform List<scalar> 
88
(
2.66927e-05
3.72679e-05
1.27723e-05
2.54684e-05
2.54684e-05
1.29137e-05
1.65639e-05
1.65639e-05
1.79899e-05
1.68271e-05
1.62453e-05
1.62453e-05
2.17101e-05
2.08576e-05
2.01327e-05
1.94384e-05
1.86923e-05
1.86923e-05
2.59827e-05
2.51101e-05
2.4211e-05
2.33042e-05
2.23856e-05
2.23856e-05
3.0707e-05
2.99878e-05
2.92582e-05
2.85227e-05
2.77828e-05
2.70354e-05
2.62718e-05
2.62718e-05
3.6369e-05
3.5896e-05
3.54073e-05
3.49041e-05
3.43863e-05
3.38555e-05
3.33121e-05
3.27561e-05
3.21879e-05
3.16049e-05
3.10062e-05
3.03897e-05
3.03897e-05
2.99263e-05
3.64859e-05
3.74365e-05
3.56932e-05
3.62496e-05
3.68092e-05
3.72729e-05
3.76598e-05
3.80015e-05
3.8305e-05
3.85866e-05
3.88298e-05
3.90361e-05
3.92115e-05
3.93501e-05
3.9458e-05
3.95326e-05
3.95754e-05
3.95909e-05
3.95785e-05
3.95408e-05
3.94796e-05
3.93954e-05
3.92916e-05
3.91701e-05
3.90297e-05
3.88737e-05
3.87032e-05
3.85183e-05
3.83197e-05
3.81073e-05
3.78832e-05
3.76455e-05
3.73946e-05
3.71321e-05
3.68552e-05
3.65654e-05
3.62618e-05
3.59431e-05
3.56105e-05
3.52625e-05
3.48985e-05
3.48985e-05
)
;
    }
    procBoundary3to6
    {
        type            processor;
        value           uniform 2.20567e-07;
    }
    procBoundary3to7
    {
        type            processor;
        value           nonuniform List<scalar> 
16
(
4.59726e-06
2.84253e-05
2.87693e-05
2.53159e-05
2.36761e-05
2.22086e-05
2.04104e-05
1.85901e-05
1.85901e-05
1.67188e-05
1.50233e-05
1.34028e-05
1.23059e-05
1.1121e-05
1.15542e-05
1.0672e-05
)
;
    }
}


// ************************************************************************* //
