/*--------------------------------*- C++ -*----------------------------------*\
| =========                 |                                                 |
| \\      /  F ield         | OpenFOAM: The Open Source CFD Toolbox           |
|  \\    /   O peration     | Version:  2306                                  |
|   \\  /    A nd           | Website:  www.openfoam.com                      |
|    \\/     M anipulation  |                                                 |
\*---------------------------------------------------------------------------*/
FoamFile
{
    version     2.0;
    format      ascii;
    arch        "LSB;label=32;scalar=64";
    class       volVectorField;
    location    "1000";
    object      momentError;
}
// * * * * * * * * * * * * * * * * * * * * * * * * * * * * * * * * * * * * * //

dimensions      [0 1 -2 0 0 0 0];

internalField   nonuniform List<vector> 
10720
(
(6.987e-05 -0.000198037 -6.95743e-15)
(6.05867e-05 -0.000233445 2.41135e-14)
(4.70179e-05 -0.00027145 -4.72326e-14)
(6.5287e-06 -0.00025138 1.778e-14)
(-1.52107e-05 -0.000257337 1.10239e-13)
(-3.32797e-05 -0.000254268 -1.75099e-13)
(-5.69101e-05 -0.000280376 8.99985e-14)
(-8.63517e-05 -0.000293441 -1.11069e-13)
(-0.000119583 -0.00029645 -2.5463e-13)
(-0.000144021 -0.000269107 3.44118e-13)
(-0.000153313 -0.000227844 1.24149e-13)
(-0.000155199 -0.000190266 -2.28811e-13)
(-0.000150693 -0.00016018 -3.34526e-13)
(-0.000146571 -0.000135965 -5.72036e-14)
(-0.000145463 -0.000118018 -1.39768e-13)
(-0.000157368 -0.000109784 -3.10395e-13)
(-0.000150052 -9.15705e-05 -1.46757e-13)
(-0.000133279 -5.45189e-05 8.32708e-13)
(4.40076e-06 1.42195e-05 4.23308e-13)
(7.7372e-06 -0.000130925 -5.95091e-13)
(0.000912463 0.000251806 1.05315e-13)
(0.000185598 0.000651474 1.53275e-13)
(0.00145072 0.00050946 -6.74747e-14)
(0.0221702 0.00384391 -1.51581e-13)
(0.0228621 0.00590844 3.5713e-14)
(-0.00291367 0.00209309 -2.34824e-15)
(-0.010645 -0.00156013 4.15485e-14)
(-0.00835252 -0.00317524 -1.64635e-14)
(-0.0030673 -0.0023225 4.39581e-14)
(0.00224107 -0.000822457 1.54492e-13)
(0.00307095 -8.94738e-05 3.03062e-14)
(0.00140628 6.64564e-05 -1.28626e-13)
(-0.000405993 0.000118905 -7.91816e-15)
(-0.000807632 0.000134012 -2.15711e-13)
(-0.000758305 0.000242308 -2.82317e-13)
(-0.000645275 0.00134354 1.15494e-13)
(0.001149 0.0115151 -1.13955e-14)
(0.0530377 0.0721116 -4.55477e-16)
(1.09113 -0.120127 -6.74697e-14)
(8.19824e-05 -0.000187915 -1.0766e-14)
(8.90063e-05 -0.00013113 2.65582e-14)
(9.56543e-05 -8.84105e-05 1.73222e-15)
(8.17239e-05 -3.84603e-05 3.61656e-14)
(7.89086e-05 -1.61018e-05 -3.28851e-14)
(2.08843e-05 6.09792e-05 -9.40224e-14)
(-1.06164e-06 8.27932e-05 -1.07345e-13)
(-8.52878e-05 0.000148335 2.99402e-14)
(-9.93837e-05 8.58236e-05 -7.52055e-14)
(-5.66503e-05 2.50665e-05 9.5795e-14)
(-1.66122e-05 -2.38611e-05 -6.00386e-14)
(3.17922e-05 -4.56054e-05 -1.46125e-13)
(4.92088e-05 -4.52252e-05 -1.64675e-13)
(5.75079e-05 -3.9751e-05 1.32091e-14)
(5.74942e-05 -3.21425e-05 1.33035e-13)
(5.33013e-05 -2.46923e-05 3.99406e-14)
(4.72602e-05 -1.85582e-05 -5.0307e-14)
(4.06314e-05 -1.35245e-05 -3.5475e-14)
(3.40199e-05 -1.00788e-05 -2.1818e-14)
(2.79732e-05 -7.12255e-06 3.904e-14)
(2.19158e-05 -5.58051e-06 1.72961e-14)
(1.66225e-05 -4.11447e-06 2.50514e-14)
(1.1613e-05 -4.60899e-06 -3.38378e-14)
(1.09871e-05 -5.60597e-06 -2.46551e-14)
(1.47571e-05 -5.87632e-06 1.81841e-14)
(1.97047e-05 -5.63889e-06 1.24074e-14)
(2.59332e-05 -4.36347e-06 6.93019e-15)
(3.18185e-05 -4.34131e-06 -1.46248e-15)
(3.15597e-05 -1.65453e-06 -2.84511e-16)
(2.25736e-05 -5.64777e-06 2.3061e-16)
(2.30562e-05 -1.88124e-06 -4.51363e-16)
(3.19495e-05 -1.40778e-06 -1.86753e-15)
(3.47063e-05 -5.7227e-07 -1.26035e-15)
(6.23009e-05 2.85841e-06 -3.83957e-15)
(7.15825e-05 4.81949e-06 -2.90601e-15)
(9.88899e-05 4.62696e-06 1.26138e-15)
(5.12541e-05 -2.10671e-05 -2.16473e-15)
(0.000349985 -0.000130679 -1.10575e-14)
(0.00215459 -0.00125352 -2.14939e-14)
(9.48969e-05 -0.00019115 -1.31424e-14)
(8.44731e-05 -0.000217475 5.88449e-15)
(6.77178e-05 -0.000244709 7.81389e-15)
(3.4005e-05 -0.000236053 -3.36621e-14)
(1.67256e-06 -0.000232951 2.10325e-14)
(-8.07433e-06 -0.000245463 8.03964e-14)
(-4.21846e-05 -0.000270078 1.03894e-13)
(-6.79363e-05 -0.000285399 1.00638e-13)
(-0.000100927 -0.000286118 -3.9878e-15)
(-0.000123482 -0.000260097 1.90681e-13)
(-0.000134575 -0.000221987 -2.0886e-13)
(-0.000134163 -0.000181285 -1.19528e-13)
(-0.000131827 -0.000144763 4.48618e-13)
(-0.000123243 -0.0001178 1.28259e-13)
(-0.000122624 -9.32115e-05 -1.19187e-13)
(-0.000136747 -6.77218e-05 -1.78005e-14)
(-8.02459e-05 -7.30784e-05 3.42058e-13)
(9.2458e-05 -0.000140105 -1.53339e-13)
(0.000244499 -0.000229574 -4.91943e-13)
(0.00499715 -0.000872732 1.88439e-13)
(-0.0109301 0.00214055 2.3544e-13)
(0.00392093 -0.00172294 4.67709e-14)
(0.0366298 0.00930191 -1.3086e-13)
(0.00885908 0.0109337 1.92532e-13)
(-0.0784163 -0.00614543 -4.19893e-14)
(-0.0640304 -0.0110657 -7.04627e-14)
(0.00347538 -0.00600297 -3.01912e-14)
(0.00684768 -0.00493926 5.59989e-15)
(-0.00437964 -0.00334281 -1.49987e-14)
(-0.00218442 -0.000816584 -1.58822e-14)
(-0.000138294 0.000531643 -2.03952e-14)
(-0.00012058 0.000560318 3.52778e-14)
(0.000365619 0.000290777 -1.88223e-13)
(-0.000324961 0.000248521 -2.24044e-13)
(-0.000847224 0.000239395 1.62302e-13)
(-0.00107232 0.00044202 -3.94953e-14)
(-0.00103088 0.0021797 3.30541e-14)
(-0.0311756 0.0141068 -1.41211e-14)
(-0.892111 0.108451 -3.85061e-14)
(0.000104689 -0.000165989 -4.63885e-15)
(0.000125739 -0.00012728 1.24099e-13)
(0.000131399 -8.56008e-05 -7.98398e-15)
(0.000130632 -4.39778e-05 -1.29076e-13)
(0.000113083 -3.56749e-06 -2.56851e-14)
(7.81545e-05 3.92821e-05 1.27347e-13)
(4.62821e-05 6.44595e-05 1.11416e-13)
(-7.17513e-06 8.06983e-05 5.95854e-14)
(-3.26646e-05 3.77059e-05 -8.25882e-14)
(-2.27837e-05 -3.77757e-06 -1.06483e-14)
(-7.88124e-07 -3.53664e-05 1.01897e-13)
(2.66056e-05 -4.6651e-05 -5.20992e-15)
(4.23783e-05 -4.6331e-05 1.22903e-14)
(5.07208e-05 -4.08044e-05 -2.47923e-14)
(5.24803e-05 -3.31756e-05 -3.25881e-14)
(4.98832e-05 -2.55362e-05 1.41526e-14)
(4.52306e-05 -1.89045e-05 1.7087e-14)
(3.94268e-05 -1.37851e-05 -5.80437e-14)
(3.35015e-05 -9.95516e-06 2.69297e-14)
(2.76012e-05 -7.32151e-06 1.78451e-14)
(2.2075e-05 -5.20282e-06 1.46789e-14)
(1.6872e-05 -4.04911e-06 3.19093e-14)
(1.28694e-05 -3.33636e-06 4.1782e-14)
(1.23063e-05 -4.79114e-06 1.76494e-14)
(1.57349e-05 -5.08754e-06 -1.51654e-14)
(2.03418e-05 -5.22491e-06 8.1609e-16)
(2.60765e-05 -4.69485e-06 -5.68208e-15)
(3.23964e-05 -3.85583e-06 -2.08585e-15)
(3.16953e-05 -2.12295e-06 3.93336e-16)
(2.65275e-05 7.00491e-07 -3.86159e-17)
(4.05346e-05 -4.09982e-06 2.82899e-16)
(4.64136e-05 -2.57548e-07 6.14061e-16)
(5.28604e-05 -1.54699e-07 1.84952e-15)
(5.37967e-05 3.64158e-06 2.35465e-15)
(8.13505e-05 1.20174e-05 7.65764e-16)
(5.77337e-05 7.61218e-06 -1.55107e-15)
(0.000166512 1.00713e-05 -6.6511e-17)
(0.000320011 7.45697e-06 3.77994e-15)
(0.00158042 0.000220827 9.20409e-15)
(7.39353e-05 -0.000173401 -5.07373e-15)
(6.67538e-05 -0.000187768 -8.20193e-16)
(4.73747e-05 -0.000201004 -5.83695e-15)
(1.48228e-05 -0.00020131 1.55514e-14)
(-5.44485e-06 -0.000200906 3.91319e-15)
(-2.01285e-05 -0.000221445 -3.37372e-14)
(-4.13877e-05 -0.000241219 -1.07609e-13)
(-6.64751e-05 -0.000257985 -9.54175e-14)
(-9.42449e-05 -0.000250693 -1.11322e-13)
(-0.000116067 -0.000227201 1.10097e-14)
(-0.000127498 -0.000193418 2.64052e-13)
(-0.000130603 -0.000160406 7.0621e-14)
(-0.000129537 -0.000131248 -9.9311e-14)
(-0.000128683 -0.000105898 -2.41054e-13)
(-0.000127432 -8.70626e-05 1.10245e-13)
(-0.00011298 -6.67191e-05 1.45922e-13)
(-0.000158594 3.20467e-05 -9.42423e-14)
(-0.00034261 0.000191391 -1.89374e-13)
(-0.00066442 0.00111774 3.17157e-13)
(-0.00400345 0.000717861 -9.48706e-14)
(0.00694792 -0.00988492 -1.19559e-13)
(0.000181111 -0.00234945 1.78543e-13)
(-0.0294594 -0.0138074 7.38944e-14)
(-0.0508375 -0.0108198 -3.36038e-15)
(-0.00433473 0.00206229 -3.30744e-14)
(0.040428 0.00911353 3.54557e-15)
(0.0382714 0.00222755 -3.05915e-14)
(0.0184917 -0.00186705 2.10649e-14)
(0.0370193 -0.000787467 -3.31639e-14)
(0.0166379 0.00172322 -7.21101e-14)
(-0.00351634 0.00181519 6.96095e-14)
(-0.00214989 0.00126218 3.08499e-14)
(-0.000748815 0.00087622 -1.21845e-13)
(-0.000360663 0.000522086 7.82247e-14)
(-0.000358855 0.000227873 1.65116e-14)
(-0.000446701 0.000180336 -3.61651e-14)
(-0.00191859 0.00105078 -9.98075e-14)
(-0.0154132 0.00184948 2.77773e-14)
(-0.112415 0.00977703 9.91239e-15)
(9.68919e-05 -0.000146498 2.9218e-14)
(0.000108602 -0.000119509 -2.76869e-14)
(0.000118031 -8.50265e-05 -9.83432e-14)
(0.000115156 -5.37284e-05 4.48519e-14)
(0.000101858 -1.95767e-05 2.05984e-14)
(8.18041e-05 1.05385e-05 -6.4571e-14)
(5.63862e-05 3.0597e-05 1.35491e-14)
(2.45404e-05 3.54691e-05 -1.17648e-13)
(4.94918e-06 9.97592e-06 -7.91933e-14)
(3.77917e-06 -1.43862e-05 -8.81237e-14)
(1.59572e-05 -3.26742e-05 9.75413e-14)
(3.15279e-05 -4.04236e-05 1.4533e-14)
(4.28895e-05 -4.09606e-05 -1.36542e-14)
(4.91382e-05 -3.71392e-05 -8.08998e-14)
(5.0491e-05 -3.12086e-05 -5.80885e-14)
(4.82653e-05 -2.46368e-05 3.78568e-14)
(4.41411e-05 -1.87333e-05 -2.13741e-14)
(3.89171e-05 -1.40015e-05 -4.39724e-14)
(3.33102e-05 -1.05405e-05 -4.00354e-15)
(2.76506e-05 -7.93654e-06 -4.02395e-14)
(2.22007e-05 -6.39107e-06 -4.30004e-14)
(1.7076e-05 -5.68066e-06 -8.43256e-14)
(1.30923e-05 -6.61203e-06 -6.39436e-14)
(1.23825e-05 -8.73276e-06 -1.79987e-14)
(1.53837e-05 -9.30641e-06 3.95039e-15)
(1.97814e-05 -8.68888e-06 -1.1475e-15)
(2.51017e-05 -7.32089e-06 -1.05286e-14)
(3.11832e-05 -5.72656e-06 4.47391e-15)
(3.08236e-05 -2.13979e-06 5.81765e-16)
(2.5509e-05 -5.09626e-06 -1.81331e-16)
(3.1456e-05 -2.53515e-06 -9.43696e-18)
(3.88877e-05 -5.66609e-07 -5.3414e-16)
(4.31222e-05 -2.83154e-06 -9.83096e-16)
(5.38309e-05 -7.38663e-06 -1.46472e-15)
(4.18986e-05 9.27244e-07 1.86775e-15)
(-2.17328e-05 6.48283e-05 3.81483e-17)
(9.18245e-05 4.70156e-05 1.4476e-14)
(0.000362706 4.46651e-06 8.74936e-15)
(0.00130503 0.000222369 -1.03383e-13)
(5.69506e-05 -0.000142954 7.92675e-15)
(4.46294e-05 -0.000169102 -2.34387e-15)
(3.09226e-05 -0.000175469 6.66036e-17)
(2.43577e-06 -0.000179581 -7.13005e-15)
(-9.98757e-06 -0.000185487 1.9958e-15)
(-2.70195e-05 -0.000205575 3.58143e-14)
(-4.56974e-05 -0.000228122 5.84657e-14)
(-6.93707e-05 -0.000233976 5.46315e-14)
(-9.33659e-05 -0.000225856 -1.33388e-13)
(-0.000111931 -0.000204741 -1.11642e-13)
(-0.000121366 -0.000174875 1.41518e-13)
(-0.000125423 -0.000145938 2.56582e-13)
(-0.00012489 -0.000119947 1.35702e-13)
(-0.000123648 -9.72105e-05 -4.72148e-13)
(-0.000118856 -8.0391e-05 -1.62162e-13)
(-0.000124861 -5.51979e-05 3.85911e-13)
(-0.000125319 -4.96659e-05 8.3927e-14)
(-9.38269e-05 -0.000107709 -1.2427e-13)
(-0.000164592 -0.000165178 -2.28419e-13)
(-0.000351485 -0.00169308 1.97905e-13)
(0.00242321 0.0044618 4.35909e-14)
(0.000386116 0.000117871 -2.22435e-13)
(0.00999968 0.00725624 1.6557e-13)
(0.0127328 0.00762502 -1.14159e-13)
(0.00386278 0.00367984 -3.71873e-14)
(-0.00366803 -0.00561003 3.56367e-14)
(-0.00381469 -0.00190921 -4.55804e-14)
(0.128215 -0.0123102 1.00782e-14)
(0.00583927 -0.0011078 1.36505e-14)
(-0.0601275 0.00893952 2.11183e-14)
(-0.0174234 -0.000651049 -9.04126e-15)
(-0.0234001 0.00189352 2.55558e-14)
(-0.0114805 0.000605212 2.07248e-13)
(-0.00290339 0.000429805 5.34678e-14)
(0.000315183 8.03901e-06 -7.58544e-14)
(0.000561449 -0.000114084 -1.16598e-13)
(-0.000115502 0.000281521 1.66346e-14)
(-0.00566816 -0.000393096 -2.82993e-14)
(-0.0330281 0.00919501 4.56567e-14)
(7.71852e-05 -0.000128036 1.88165e-14)
(8.98241e-05 -0.000111548 -3.68744e-14)
(9.95829e-05 -8.69507e-05 -4.04089e-15)
(9.70996e-05 -6.14344e-05 -3.37243e-14)
(9.04255e-05 -3.27877e-05 -2.08222e-14)
(7.64049e-05 -8.68912e-06 7.34768e-14)
(5.8386e-05 1.04166e-05 -1.8417e-13)
(3.53576e-05 1.28109e-05 1.69127e-13)
(2.41722e-05 -3.56227e-06 2.01465e-15)
(2.13433e-05 -1.82642e-05 -1.20416e-13)
(2.77578e-05 -3.04846e-05 -7.02475e-14)
(3.63715e-05 -3.66076e-05 -1.98383e-14)
(4.3808e-05 -3.78152e-05 5.95862e-14)
(4.79124e-05 -3.52896e-05 1.29282e-13)
(4.85504e-05 -3.04268e-05 2.11142e-14)
(4.63989e-05 -2.47186e-05 -4.73379e-14)
(4.27074e-05 -1.92937e-05 2.21984e-14)
(3.80345e-05 -1.47147e-05 5.00097e-14)
(3.28373e-05 -1.13377e-05 -3.67786e-15)
(2.74987e-05 -8.64434e-06 -7.78289e-15)
(2.22856e-05 -7.04534e-06 -2.14375e-14)
(1.74488e-05 -6.18722e-06 5.28071e-14)
(1.37478e-05 -6.91392e-06 3.09355e-14)
(1.30239e-05 -8.75162e-06 -1.07667e-14)
(1.55915e-05 -9.41935e-06 -1.69122e-14)
(1.97274e-05 -8.89971e-06 -6.96416e-15)
(2.49205e-05 -7.65497e-06 1.26256e-14)
(3.07625e-05 -6.23403e-06 -8.91386e-16)
(3.04913e-05 -2.76332e-06 -5.13497e-16)
(2.59741e-05 -3.14075e-06 2.01665e-16)
(3.06959e-05 -7.71957e-06 -3.97986e-17)
(3.9038e-05 -4.48923e-06 -3.66982e-17)
(5.31724e-05 2.68492e-05 2.74259e-16)
(0.000159212 0.00035122 5.11864e-16)
(0.000691895 0.00200847 -3.2328e-15)
(0.000942791 0.00290735 7.58395e-15)
(-0.000248147 -0.00164975 -1.28923e-14)
(0.000198932 -0.000277822 -2.99113e-14)
(0.0011747 0.000262954 -1.08681e-16)
(4.70946e-05 -0.000124766 -4.04107e-15)
(3.20781e-05 -0.000142826 4.77981e-15)
(1.58173e-05 -0.000155556 5.64944e-17)
(-4.13846e-06 -0.000162056 -4.1763e-15)
(-1.6456e-05 -0.000172438 -2.88316e-14)
(-3.01017e-05 -0.000192325 3.46357e-14)
(-5.02061e-05 -0.000207468 1.2634e-14)
(-7.20999e-05 -0.00020866 -7.01524e-14)
(-9.28099e-05 -0.000199076 -5.8231e-14)
(-0.000109155 -0.000179298 -1.21381e-13)
(-0.000117888 -0.000153129 1.74614e-14)
(-0.000121762 -0.000128336 -1.32355e-13)
(-0.000121589 -0.000105991 8.04609e-15)
(-0.00011949 -8.70117e-05 3.54352e-13)
(-0.000117793 -6.96554e-05 -2.34207e-13)
(-0.000116386 -5.22101e-05 -1.67665e-13)
(-0.000117536 -3.27911e-05 1.0158e-13)
(-0.000118213 -1.82442e-05 -1.31966e-13)
(-0.000166453 -3.9287e-05 8.4892e-14)
(-0.000176382 1.26559e-05 -1.4397e-13)
(-0.000253197 3.90915e-05 -1.61816e-13)
(-0.000646169 0.000160691 1.83267e-13)
(0.00272546 0.000936123 -4.05343e-14)
(0.00409559 0.0016877 8.96881e-14)
(0.00186926 0.000450291 5.67696e-14)
(-0.00709983 -0.00159344 6.31022e-15)
(0.00298398 -0.0060377 1.08822e-13)
(-0.0796446 0.00777246 -2.11386e-14)
(-0.00311853 -0.00264432 2.24999e-14)
(0.0124666 0.00144041 -5.58075e-14)
(0.0137309 0.0044396 -1.55454e-13)
(-0.0112442 -0.00178735 1.29788e-15)
(-0.0078945 6.54642e-05 1.40179e-13)
(-0.0052585 -2.74501e-05 -3.31496e-14)
(0.00079308 -0.000298608 -1.04849e-13)
(0.00184545 -0.000445152 1.18029e-13)
(0.00112997 -9.99376e-05 -3.96442e-14)
(-0.00296626 -0.000814756 -1.66218e-14)
(-0.019944 0.00960542 -5.30715e-16)
(5.62231e-05 -0.000113779 2.02826e-14)
(7.04754e-05 -0.000103698 1.43635e-14)
(7.68314e-05 -8.6715e-05 -3.19923e-14)
(7.98897e-05 -6.43194e-05 7.88749e-14)
(7.63498e-05 -4.10074e-05 1.86885e-13)
(6.92632e-05 -2.05927e-05 -6.87533e-14)
(5.75107e-05 -4.46016e-06 -7.24484e-14)
(4.22255e-05 -2.80546e-06 1.5044e-13)
(3.45113e-05 -1.2005e-05 1.26936e-13)
(3.23875e-05 -2.06153e-05 3.56481e-14)
(3.59323e-05 -2.83126e-05 -5.19379e-14)
(4.10931e-05 -3.27433e-05 5.9181e-14)
(4.55821e-05 -3.39429e-05 4.5428e-14)
(4.78951e-05 -3.2141e-05 -3.9819e-15)
(4.75561e-05 -2.82811e-05 -9.37211e-14)
(4.51604e-05 -2.3396e-05 3.96395e-15)
(4.16435e-05 -1.87189e-05 3.73007e-15)
(3.72781e-05 -1.46087e-05 2.0686e-16)
(3.24308e-05 -1.14171e-05 1.51383e-14)
(2.73404e-05 -8.85597e-06 -5.43059e-15)
(2.23557e-05 -7.45132e-06 1.23011e-14)
(1.77355e-05 -6.85132e-06 -2.67244e-14)
(1.41864e-05 -8.07409e-06 -1.53651e-14)
(1.33037e-05 -1.00963e-05 1.55018e-14)
(1.5448e-05 -1.11939e-05 2.09532e-14)
(1.93208e-05 -1.06411e-05 1.25528e-15)
(2.44522e-05 -9.15821e-06 -1.23697e-15)
(3.01751e-05 -6.93502e-06 -3.26002e-15)
(3.02103e-05 -2.9006e-06 6.54298e-16)
(2.60716e-05 -4.3757e-06 -1.04595e-16)
(3.07714e-05 -4.24409e-06 -5.30621e-16)
(3.95336e-05 1.06323e-06 -2.81108e-17)
(4.56956e-05 -4.91134e-05 7.8122e-17)
(4.81955e-05 -0.000544963 -6.93154e-17)
(-9.1925e-05 -0.00293479 -9.31036e-16)
(-0.000225046 -0.00387243 -6.95934e-16)
(1.64425e-05 0.00228303 1.03215e-14)
(0.000250133 0.000260083 -1.08856e-14)
(0.000973677 8.33162e-05 5.49108e-15)
(3.19978e-05 -0.000111382 1.93828e-15)
(2.15775e-05 -0.000122669 5.06791e-16)
(7.83688e-06 -0.000137252 3.1625e-15)
(-8.26684e-06 -0.00015155 -2.45879e-15)
(-1.93994e-05 -0.000162127 -1.08436e-15)
(-3.36256e-05 -0.000178555 1.63381e-14)
(-5.35306e-05 -0.000189115 7.60515e-15)
(-7.37859e-05 -0.000186501 4.04773e-14)
(-9.25529e-05 -0.000176835 6.79654e-14)
(-0.000106731 -0.000158253 -3.20433e-14)
(-0.000114609 -0.000135681 -7.79475e-15)
(-0.000118143 -0.000114577 7.50088e-14)
(-0.000118377 -9.54719e-05 -1.45507e-13)
(-0.000116041 -7.86416e-05 -2.89385e-13)
(-0.000113594 -6.29051e-05 1.75229e-13)
(-0.000109544 -4.89254e-05 2.68355e-13)
(-0.000108065 -3.60388e-05 -3.55849e-13)
(-0.000110776 -3.01041e-05 6.0668e-14)
(-0.000133318 -4.48801e-05 1.11899e-13)
(-0.000179337 -8.38479e-06 -1.12965e-13)
(-0.000215276 9.3997e-05 8.56212e-14)
(-0.000419395 6.1051e-05 -8.73354e-14)
(-0.000713066 0.000698992 -1.69253e-13)
(6.61607e-05 0.00219927 -5.03175e-14)
(0.00120325 0.00190658 -1.16204e-13)
(0.000448644 -0.00104978 5.63253e-14)
(-0.0117654 -0.00212116 -1.62121e-14)
(-0.011827 -0.000825795 -1.09036e-14)
(0.00377266 0.00124861 2.13875e-14)
(0.0371034 -0.00169746 4.25758e-14)
(-0.00887779 0.00319948 3.28554e-14)
(0.0104608 -0.000920524 -4.52716e-14)
(-0.00055841 -0.000539602 -1.16434e-13)
(-0.00201187 -0.000535953 -1.48664e-13)
(0.000254488 -0.000531909 3.37791e-14)
(0.00363879 -0.0010999 7.32756e-14)
(0.00277988 -0.000121496 8.46303e-14)
(-0.00222888 -0.00071855 3.84889e-14)
(-0.0170811 0.0102218 2.85613e-14)
(4.16131e-05 -0.000103438 8.59492e-15)
(5.14925e-05 -9.77898e-05 -2.0693e-14)
(5.86998e-05 -8.39513e-05 1.04909e-14)
(6.25113e-05 -6.49197e-05 -5.83379e-15)
(6.38362e-05 -4.57414e-05 4.6817e-15)
(6.25942e-05 -2.64373e-05 -7.8182e-14)
(5.55949e-05 -1.42977e-05 -2.9426e-14)
(4.59148e-05 -1.26227e-05 -3.50567e-14)
(4.08438e-05 -1.69238e-05 2.74177e-14)
(3.94147e-05 -2.18402e-05 1.35735e-13)
(4.16286e-05 -2.65149e-05 -3.0359e-14)
(4.49317e-05 -2.9619e-05 -5.88494e-14)
(4.74772e-05 -3.05219e-05 2.50168e-15)
(4.83183e-05 -2.9071e-05 -5.12986e-14)
(4.70588e-05 -2.58886e-05 1.70031e-14)
(4.42876e-05 -2.17047e-05 2.54112e-14)
(4.07849e-05 -1.76406e-05 3.93183e-14)
(3.66527e-05 -1.40088e-05 1.50491e-14)
(3.20603e-05 -1.10286e-05 -1.77031e-14)
(2.72082e-05 -8.68074e-06 2.27257e-14)
(2.24987e-05 -7.29544e-06 2.51828e-14)
(1.81279e-05 -6.92291e-06 1.82594e-14)
(1.48376e-05 -8.10479e-06 3.81567e-15)
(1.38155e-05 -1.00995e-05 -1.44099e-14)
(1.55774e-05 -1.12641e-05 1.18018e-14)
(1.90817e-05 -1.10345e-05 3.28036e-15)
(2.40675e-05 -9.55293e-06 -1.13711e-14)
(2.96012e-05 -7.39909e-06 1.22344e-15)
(2.99572e-05 -3.26335e-06 -1.18457e-16)
(2.63141e-05 -4.28774e-06 2.0561e-16)
(3.04968e-05 -5.87561e-06 6.67333e-16)
(3.78676e-05 -2.60465e-06 -1.60573e-16)
(3.73798e-05 1.2688e-05 -2.51369e-16)
(-1.33114e-06 0.000150124 5.63743e-16)
(-0.000239467 0.000918776 1.39658e-15)
(-0.000396538 0.000971736 -1.19015e-14)
(0.000469661 -0.000821446 3.46553e-15)
(0.000366446 -2.39125e-05 4.42003e-14)
(0.00126132 -0.000303315 3.10481e-14)
(1.69067e-05 -9.84784e-05 3.09102e-15)
(1.07538e-05 -0.000111387 5.82455e-16)
(2.10955e-06 -0.000125631 -1.12641e-15)
(-1.17379e-05 -0.000141642 4.16962e-15)
(-2.26482e-05 -0.000152706 -8.69018e-15)
(-3.68964e-05 -0.000164628 -1.09432e-15)
(-5.66853e-05 -0.000169162 2.35996e-14)
(-7.51291e-05 -0.000165255 -1.11468e-14)
(-9.22748e-05 -0.000155015 -3.96142e-14)
(-0.000105307 -0.000138308 2.65385e-14)
(-0.000112491 -0.000118585 -6.07786e-14)
(-0.000116384 -0.000100339 -1.50861e-13)
(-0.000116588 -8.40075e-05 1.06604e-13)
(-0.000114049 -6.89401e-05 3.77167e-13)
(-0.000110702 -5.49846e-05 -1.38922e-14)
(-0.000107453 -4.09601e-05 -4.01369e-13)
(-0.000105965 -2.8282e-05 3.32534e-13)
(-0.000110126 -1.83407e-05 2.3337e-13)
(-0.00012691 -1.1709e-05 1.24569e-13)
(-0.000156049 2.18334e-05 5.87364e-14)
(-0.000178311 6.42884e-05 -2.8842e-14)
(-0.00032555 7.49376e-05 1.61936e-13)
(-0.000433893 0.000529134 1.11968e-13)
(0.000539424 0.00152005 -1.01881e-14)
(0.00227513 0.00125042 2.14257e-13)
(0.0028345 -0.000869017 -6.5705e-14)
(0.00158734 -0.00294918 -7.65299e-15)
(-0.00214967 -0.00223021 5.6775e-15)
(-0.00291516 0.000303995 -2.01427e-14)
(-0.00189572 0.00201407 -2.08175e-14)
(0.00197282 0.00150574 -1.5256e-14)
(0.00365457 0.0001027 4.77744e-14)
(0.00155874 -0.000344151 -2.2775e-14)
(-0.000906633 -0.000449504 -1.27983e-13)
(-0.000264717 -0.000627816 -2.07552e-14)
(0.0233431 -0.00768979 -1.01836e-13)
(-0.00467249 0.0026732 -5.77994e-14)
(-0.00177857 -0.00111287 6.50734e-15)
(-0.0139722 0.00936318 -2.58421e-14)
(2.77697e-05 -9.43439e-05 -9.66505e-15)
(3.64377e-05 -9.0839e-05 1.21941e-14)
(4.51634e-05 -7.97912e-05 -2.61343e-14)
(5.12358e-05 -6.19133e-05 -3.94504e-15)
(5.49326e-05 -4.2952e-05 7.38143e-15)
(5.57727e-05 -2.89746e-05 1.10946e-14)
(5.18451e-05 -1.93816e-05 8.0639e-14)
(4.71217e-05 -1.82092e-05 -1.01462e-13)
(4.41547e-05 -1.99356e-05 -3.28009e-14)
(4.37927e-05 -2.24023e-05 -3.11479e-14)
(4.55486e-05 -2.50721e-05 1.17307e-13)
(4.78404e-05 -2.70717e-05 -4.64459e-14)
(4.92491e-05 -2.74523e-05 -4.56716e-15)
(4.89428e-05 -2.6084e-05 1.85391e-14)
(4.69355e-05 -2.31974e-05 1.77852e-14)
(4.37671e-05 -1.96494e-05 1.20879e-14)
(4.01974e-05 -1.62145e-05 -7.68257e-14)
(3.61528e-05 -1.31575e-05 -2.81418e-14)
(3.17377e-05 -1.05063e-05 3.58171e-14)
(2.70912e-05 -8.48541e-06 1.42873e-15)
(2.26301e-05 -7.20305e-06 3.63862e-14)
(1.85264e-05 -7.09628e-06 -1.03903e-14)
(1.54116e-05 -8.28624e-06 1.50663e-15)
(1.42913e-05 -1.0356e-05 2.42355e-14)
(1.56339e-05 -1.17374e-05 -2.03631e-14)
(1.88368e-05 -1.18821e-05 -6.9899e-15)
(2.35614e-05 -1.06705e-05 6.58227e-15)
(2.89718e-05 -8.27331e-06 2.19799e-15)
(2.95717e-05 -4.0576e-06 -1.1579e-18)
(2.6411e-05 -4.64135e-06 -2.57145e-16)
(3.01759e-05 -5.41869e-06 6.37744e-16)
(3.77943e-05 -1.54132e-06 7.498e-17)
(4.38727e-05 -2.38428e-06 -1.08084e-15)
(5.54956e-05 -8.40104e-06 5.42562e-17)
(7.86275e-05 -3.57369e-05 -3.16331e-15)
(0.000137709 9.43801e-05 7.24364e-15)
(0.000159292 0.000139294 -1.54395e-15)
(0.000222303 -2.04194e-06 -2.47775e-15)
(0.000704719 0.000384207 -4.22941e-14)
(1.12058e-05 -8.97924e-05 1.40114e-15)
(6.7863e-06 -0.000104779 1.51055e-15)
(-1.32846e-06 -0.000119484 -9.49552e-16)
(-1.45911e-05 -0.000133369 -1.91883e-15)
(-2.49713e-05 -0.000142675 -3.80278e-15)
(-4.01379e-05 -0.000152633 1.65054e-14)
(-5.82304e-05 -0.000154023 1.38751e-14)
(-7.54855e-05 -0.000147605 -5.19115e-14)
(-9.07685e-05 -0.000136952 2.17311e-14)
(-0.000102399 -0.000121912 1.11285e-13)
(-0.00010963 -0.00010434 4.63177e-14)
(-0.000113612 -8.91212e-05 2.13134e-14)
(-0.000114195 -7.49433e-05 -1.87882e-13)
(-0.000111652 -6.14605e-05 -4.29856e-13)
(-0.000107693 -4.85766e-05 -3.04037e-13)
(-0.000103655 -3.59938e-05 1.20067e-13)
(-9.99303e-05 -2.59535e-05 -7.38523e-14)
(-0.000102229 -1.56821e-05 -3.77116e-13)
(-0.000115267 -2.23469e-06 -1.94585e-13)
(-0.000134754 3.30879e-05 1.60889e-13)
(-0.000148123 6.92711e-05 1.6097e-13)
(-0.000237482 8.91766e-05 -9.33454e-14)
(-0.000267397 0.000427051 -3.83134e-14)
(0.000383631 0.00108055 2.39809e-15)
(0.00155858 0.000817406 -6.0965e-14)
(0.00178946 -0.000851294 6.32919e-14)
(0.000287798 -0.00237046 7.2196e-15)
(-0.00212408 -0.00196329 4.3206e-15)
(-0.00291867 1.09761e-05 -4.41477e-15)
(-0.00129933 0.00116363 5.21823e-14)
(-0.000140102 0.00095482 3.49636e-14)
(0.00111141 0.000265137 -3.44379e-15)
(0.00100737 -0.000183237 1.13108e-13)
(-0.000181235 -0.000157512 7.80678e-14)
(-0.00199509 0.00191834 -4.04551e-14)
(-0.0162096 0.00223922 6.94177e-14)
(-0.00361556 -0.00125665 5.85392e-14)
(-0.00132915 -0.00150655 -3.50436e-14)
(-0.00921797 0.00752562 -2.77286e-14)
(1.96138e-05 -8.47892e-05 7.39129e-15)
(2.92899e-05 -8.31395e-05 -1.20441e-14)
(3.87804e-05 -7.09567e-05 3.26935e-15)
(4.66976e-05 -5.52507e-05 6.10929e-14)
(4.94228e-05 -4.32003e-05 3.14461e-15)
(5.00851e-05 -2.97501e-05 1.01651e-13)
(4.80125e-05 -2.24549e-05 1.36656e-13)
(4.61934e-05 -2.18065e-05 -5.29997e-14)
(4.55637e-05 -2.15381e-05 -7.253e-14)
(4.61611e-05 -2.24735e-05 -5.54113e-14)
(4.80663e-05 -2.39248e-05 -1.02164e-13)
(4.99588e-05 -2.49539e-05 -5.52873e-15)
(5.0654e-05 -2.47898e-05 -4.30501e-14)
(4.96311e-05 -2.32152e-05 5.78123e-14)
(4.70144e-05 -2.05403e-05 1.93966e-14)
(4.353e-05 -1.74637e-05 -3.07512e-14)
(3.9862e-05 -1.46457e-05 -3.26307e-15)
(3.58373e-05 -1.20773e-05 -2.54406e-14)
(3.15087e-05 -9.80809e-06 2.79092e-15)
(2.70387e-05 -8.00994e-06 -1.77681e-14)
(2.27847e-05 -6.95811e-06 -3.338e-14)
(1.8975e-05 -6.94464e-06 1.47958e-14)
(1.6029e-05 -8.16403e-06 -2.76257e-14)
(1.48533e-05 -1.01358e-05 -1.00665e-14)
(1.58158e-05 -1.17265e-05 6.28577e-15)
(1.86853e-05 -1.21481e-05 3.97123e-15)
(2.30817e-05 -1.13427e-05 1.56324e-15)
(2.82916e-05 -8.92177e-06 -1.03509e-15)
(2.91329e-05 -4.85981e-06 -4.35145e-16)
(2.64877e-05 -4.75625e-06 -7.72645e-17)
(2.99553e-05 -5.57911e-06 -1.03053e-15)
(3.74785e-05 -2.34876e-06 5.53564e-16)
(4.43423e-05 -2.33402e-06 3.06439e-15)
(5.58402e-05 -2.71831e-06 5.12502e-17)
(7.14976e-05 1.26916e-05 2.49812e-15)
(7.65859e-05 4.70016e-05 -3.42307e-15)
(0.000110308 2.64943e-05 -6.4676e-15)
(0.000223627 5.51644e-05 3.78709e-15)
(0.000308407 0.000601206 -2.25905e-14)
(1.12159e-05 -8.15383e-05 2.41732e-15)
(5.42238e-06 -9.43921e-05 4.02436e-15)
(-1.31099e-06 -0.000114028 -1.76074e-16)
(-1.48107e-05 -0.000124336 2.08085e-19)
(-2.67322e-05 -0.000126861 -2.54027e-15)
(-4.11987e-05 -0.000138668 -6.73417e-15)
(-5.83629e-05 -0.000138175 -4.93855e-15)
(-7.44952e-05 -0.000133394 -5.23681e-14)
(-8.83379e-05 -0.000123581 -1.00714e-15)
(-9.86958e-05 -0.000108626 1.92803e-14)
(-0.000105591 -9.25994e-05 -2.32914e-14)
(-0.000111046 -7.87848e-05 1.41246e-13)
(-0.000111785 -6.65116e-05 1.49071e-13)
(-0.000109443 -5.42285e-05 2.6949e-14)
(-0.000105115 -4.21232e-05 2.76872e-13)
(-0.00010039 -3.0456e-05 -5.76107e-14)
(-9.66233e-05 -1.96363e-05 -7.29821e-16)
(-9.63913e-05 -8.73826e-06 2.14469e-13)
(-0.000104744 6.14239e-06 9.99262e-14)
(-0.000115811 3.65814e-05 -2.94234e-14)
(-0.000124086 7.42788e-05 -1.21911e-13)
(-0.000165478 0.000113191 -1.15865e-14)
(-0.000149605 0.000348409 -9.366e-14)
(0.000326721 0.000766134 -8.1038e-14)
(0.0011579 0.000513127 4.88754e-14)
(0.00129046 -0.000773524 -3.10923e-14)
(5.30393e-05 -0.00194709 -5.64889e-14)
(-0.00157435 -0.00163158 6.45118e-15)
(-0.00198628 -8.18728e-05 -3.11529e-15)
(-0.00109878 0.00092228 -3.83366e-15)
(-6.54502e-05 0.000735358 8.20605e-14)
(0.000548252 0.000190473 -2.93324e-14)
(0.00071357 -0.000185714 -3.90336e-14)
(0.000353974 -0.00028711 2.27056e-13)
(-0.00130385 9.47496e-05 3.7075e-14)
(-0.010477 0.00533156 -8.23529e-14)
(0.00613384 -0.003131 -1.57869e-14)
(0.013962 -0.0132899 2.60747e-14)
(-0.000382497 0.00897042 -4.96666e-15)
(1.88159e-05 -7.71536e-05 -1.31444e-14)
(2.69816e-05 -7.34532e-05 -3.10177e-14)
(3.67778e-05 -6.4015e-05 5.0689e-14)
(3.9147e-05 -5.31277e-05 9.71645e-14)
(4.43575e-05 -4.00592e-05 6.4319e-14)
(4.596e-05 -3.04133e-05 -1.65789e-13)
(4.54817e-05 -2.60783e-05 -1.14058e-13)
(4.45023e-05 -2.36681e-05 -3.87775e-14)
(4.53416e-05 -2.1971e-05 7.08573e-14)
(4.73011e-05 -2.20914e-05 7.3203e-14)
(4.9453e-05 -2.2812e-05 2.72944e-14)
(5.13141e-05 -2.31733e-05 2.50398e-14)
(5.16272e-05 -2.24479e-05 -2.67405e-14)
(5.01858e-05 -2.05253e-05 -8.73374e-14)
(4.71984e-05 -1.79182e-05 1.34148e-14)
(4.35353e-05 -1.52525e-05 2.70941e-14)
(3.975e-05 -1.29371e-05 1.84378e-14)
(3.57029e-05 -1.07973e-05 5.1086e-14)
(3.14067e-05 -8.91688e-06 -2.84807e-14)
(2.70733e-05 -7.32839e-06 -2.12613e-14)
(2.30256e-05 -6.51998e-06 -1.53181e-14)
(1.94482e-05 -6.61e-06 -3.15588e-15)
(1.66804e-05 -7.82791e-06 2.46383e-14)
(1.54124e-05 -9.72916e-06 1.6455e-14)
(1.60914e-05 -1.14638e-05 1.90876e-14)
(1.85777e-05 -1.2256e-05 6.47008e-15)
(2.26782e-05 -1.18249e-05 2.82508e-17)
(2.75649e-05 -9.69372e-06 2.21315e-15)
(2.86594e-05 -5.52688e-06 -3.08462e-16)
(2.64647e-05 -5.04358e-06 3.02125e-16)
(2.97327e-05 -5.49677e-06 -3.79827e-16)
(3.70825e-05 -2.29868e-06 3.18565e-17)
(4.44823e-05 -1.59515e-06 -1.76009e-15)
(5.64336e-05 -2.83194e-06 4.24009e-16)
(7.41045e-05 1.56671e-07 4.63062e-15)
(8.20304e-05 2.01994e-05 -1.09985e-15)
(0.000118618 1.78794e-05 8.89058e-16)
(0.000246837 3.4858e-05 -8.1433e-15)
(0.000657816 0.000195509 7.93273e-15)
(1.25626e-05 -7.51787e-05 -2.94634e-15)
(7.29016e-06 -8.70882e-05 1.78892e-16)
(8.8201e-07 -0.000104372 -1.65407e-15)
(-1.12258e-05 -0.000118049 -1.5231e-15)
(-2.57522e-05 -0.000118346 9.00194e-15)
(-4.03758e-05 -0.000116356 -2.93908e-15)
(-5.59873e-05 -0.000121644 2.92743e-14)
(-7.18344e-05 -0.000119459 2.04787e-14)
(-8.38215e-05 -0.000111326 5.1601e-15)
(-9.43955e-05 -9.91051e-05 -1.70687e-15)
(-0.000101324 -8.29138e-05 7.12004e-15)
(-0.000106639 -7.06164e-05 -3.14154e-14)
(-0.000109161 -5.97891e-05 -1.37085e-13)
(-0.000106607 -4.81793e-05 3.64127e-14)
(-0.000102354 -3.66304e-05 1.8814e-14)
(-9.68974e-05 -2.54473e-05 5.2527e-14)
(-9.21762e-05 -1.50888e-05 -4.53482e-16)
(-8.92234e-05 -4.94905e-06 -9.40643e-14)
(-9.41628e-05 1.1306e-05 -1.38998e-13)
(-9.96193e-05 3.96653e-05 -1.19687e-13)
(-0.00010189 7.52512e-05 -6.96971e-14)
(-0.000114768 0.000121413 -5.64247e-14)
(-6.85646e-05 0.00029715 1.91329e-14)
(0.000297241 0.000560089 6.72242e-14)
(0.00089683 0.000318011 -3.61852e-14)
(0.000961618 -0.000689252 -1.37662e-14)
(-1.05207e-05 -0.00160999 4.44586e-14)
(-0.00126436 -0.00134941 2.10505e-15)
(-0.00152648 -9.51338e-05 2.45309e-14)
(-0.000730241 0.000740679 -3.05758e-14)
(8.85145e-05 0.000612474 -1.01145e-13)
(0.000423149 0.000156089 -5.51586e-14)
(0.000433138 -0.00017071 3.49539e-14)
(0.000318336 -0.000285521 -1.50171e-14)
(2.35167e-05 -0.000236857 2.03703e-14)
(0.000487049 -0.000813836 3.04299e-14)
(1.69188e-05 0.00104531 5.38123e-15)
(-0.0102883 0.00512125 -1.68158e-14)
(-0.00336491 0.00638818 4.26025e-14)
(1.81262e-05 -6.97711e-05 -2.40515e-14)
(2.57145e-05 -6.66564e-05 1.5062e-14)
(3.23072e-05 -6.02476e-05 4.42747e-14)
(3.65888e-05 -4.91458e-05 1.4497e-14)
(3.90495e-05 -3.7535e-05 1.02134e-13)