/*--------------------------------*- C++ -*----------------------------------*\
| =========                 |                                                 |
| \\      /  F ield         | OpenFOAM: The Open Source CFD Toolbox           |
|  \\    /   O peration     | Version:  2306                                  |
|   \\  /    A nd           | Website:  www.openfoam.com                      |
|    \\/     M anipulation  |                                                 |
\*---------------------------------------------------------------------------*/
FoamFile
{
    version     2.0;
    format      ascii;
    arch        "LSB;label=32;scalar=64";
    class       volScalarField;
    location    "1000";
    object      turbulenceProperties:nut;
}
// * * * * * * * * * * * * * * * * * * * * * * * * * * * * * * * * * * * * * //

dimensions      [0 2 -1 0 0 0 0];

internalField   nonuniform List<scalar> 
10720
(
2.5808e-05
2.95347e-05
3.45224e-05
4.09851e-05
4.93089e-05
6.00253e-05
7.38547e-05
9.11589e-05
0.000112975
0.000140349
0.000175234
0.000220745
0.000281313
0.000364892
0.000485068
0.000663862
0.000945885
0.00139526
0.00221738
0.00358943
0.0069017
0.0127117
0.0339126
0.0760456
0.0937377
0.0946685
0.0957097
0.099239
0.102751
0.104485
0.104461
0.103212
0.100845
0.0974143
0.0927945
0.0869122
0.0784486
0.0683179
0.033256
2.25825e-05
1.98038e-05
1.70736e-05
1.45837e-05
1.22497e-05
1.01071e-05
8.24453e-06
6.96118e-06
8.09648e-06
1.07909e-05
1.54813e-05
2.3227e-05
3.55759e-05
5.4454e-05
8.13874e-05
0.000117945
0.000167178
0.000236276
0.000339383
0.000501811
0.000773254
0.00124196
0.00211757
0.00376989
0.00732809
0.0147229
0.0324777
0.0663216
0.0934696
0.105025
0.108433
0.109375
0.109471
0.108975
0.107974
0.106577
0.104431
0.101996
0.0924617
5.08548e-06
4.98033e-06
4.88546e-06
4.80683e-06
4.71662e-06
4.6338e-06
4.57245e-06
4.51875e-06
4.49564e-06
4.51593e-06
4.54347e-06
4.81844e-06
5.87876e-06
8.65251e-06
1.6411e-05
3.6806e-05
8.3885e-05
0.000162844
0.000315348
0.000588357
0.00131681
0.00282578
0.00708022
0.0204167
0.0394388
0.0632786
0.0925532
0.123703
0.148728
0.162668
0.167953
0.168776
0.167196
0.163851
0.159342
0.15384
0.148528
0.139508
0.139919
5.16908e-06
5.28233e-06
5.37884e-06
5.50984e-06
5.64412e-06
5.78001e-06
5.91115e-06
6.02175e-06
5.95913e-06
5.8177e-06
5.6246e-06
5.3903e-06
5.12406e-06
4.82943e-06
4.4957e-06
4.11974e-06
3.67667e-06
3.16244e-06
2.54828e-06
1.84351e-06
1.07405e-06
4.20529e-07
5.41005e-08
1.46912e-09
9.30722e-09
9.37208e-05
0.000539957
0.00415678
0.0141156
0.0287197
0.0437273
0.0550627
0.0618255
0.0656073
0.0680052
0.0699955
0.0717271
0.0752991
0.0784605
6.26616e-06
6.28349e-06
6.30147e-06
6.3208e-06
6.34449e-06
6.371e-06
6.40132e-06
6.43677e-06
6.47862e-06
6.52762e-06
6.58584e-06
6.65745e-06
6.73667e-06
6.88026e-06
6.88814e-06
6.4647e-06
5.01936e-06
3.83539e-06
5.49645e-08
0.000102155
3.45367e-05
0.000136082
0.000111006
0.000793835
0.00323169
0.00766951
0.0156427
0.0310842
0.0573767
0.0937379
0.132749
0.164464
0.184891
0.196746
0.203448
0.206331
0.207574
0.201482
0.210276
6.2529e-06
6.23387e-06
6.21932e-06
6.19774e-06
6.1792e-06
6.15928e-06
6.14154e-06
6.12751e-06
6.13229e-06
6.14725e-06
6.16688e-06
6.19086e-06
6.2202e-06
6.25305e-06
6.29008e-06
6.331e-06
6.37749e-06
6.43078e-06
6.49448e-06
6.57193e-06
6.67138e-06
6.79893e-06
6.98021e-06
7.17351e-06
7.43588e-06
7.15665e-06
7.24722e-06
2.48425e-06
8.36891e-05
0.000790355
0.00301747
0.00754201
0.0142528
0.0224361
0.0311581
0.0396022
0.0470025
0.0536721
0.0631654
6.08613e-06
6.08373e-06
6.08313e-06
6.0835e-06
6.08442e-06
6.08709e-06
6.09198e-06
6.09872e-06
6.10877e-06
6.12237e-06
6.14033e-06
6.16383e-06
6.19444e-06
6.23325e-06
6.28432e-06
6.34169e-06
6.24293e-06
5.82688e-06
3.97641e-06
1.23997e-06
4.86857e-18
3.13241e-06
1.22767e-06
0.000150643
0.000674469
0.00168868
0.00145644
0.00175418
0.00372877
0.0133438
0.0355125
0.072696
0.118789
0.161321
0.193225
0.215363
0.231946
0.239142
0.255238
6.0868e-06
6.08915e-06
6.09227e-06
6.09447e-06
6.09826e-06
6.1003e-06
6.10162e-06
6.10255e-06
6.1004e-06
6.09771e-06
6.09422e-06
6.09049e-06
6.08702e-06
6.08361e-06
6.08027e-06
6.07679e-06
6.07312e-06
6.06912e-06
6.06406e-06
6.05898e-06
6.05362e-06
6.04789e-06
6.04108e-06
6.03481e-06
6.02803e-06
6.03037e-06
6.0231e-06
6.08258e-06
5.99875e-06
5.95275e-06
5.2047e-06
4.15858e-06
0.000226551
0.00104739
0.00305684
0.00692179
0.0131129
0.0218348
0.0392219
6.11119e-06
6.11176e-06
6.11203e-06
6.11292e-06
6.11446e-06
6.11643e-06
6.1191e-06
6.12268e-06
6.12738e-06
6.13356e-06
6.14164e-06
6.15222e-06
6.1661e-06
6.18392e-06
6.20809e-06
6.23632e-06
6.28019e-06
6.32339e-06
6.49644e-06
6.3002e-06
3.48777e-06
3.85055e-07
8.86598e-09
1.73795e-10
0
0
0.000308197
0.000378754
0.000835028
0.000416502
0.00155474
0.00794942
0.0295634
0.0707164
0.124136
0.175066
0.217178
0.248035
0.27826
6.11124e-06
6.10986e-06
6.11056e-06
6.10951e-06
6.11039e-06
6.10918e-06
6.10707e-06
6.10518e-06
6.10411e-06
6.10387e-06
6.10385e-06
6.10376e-06
6.10411e-06
6.10464e-06
6.10561e-06
6.10684e-06
6.10839e-06
6.11023e-06
6.11242e-06
6.1149e-06
6.11766e-06
6.1207e-06
6.12414e-06
6.12794e-06
6.13287e-06
6.13716e-06
6.15041e-06
6.13005e-06
6.27274e-06
5.69504e-06
8.7086e-06
5.80811e-07
2.55663e-05
0.000245475
0.000716069
0.00164914
0.000736536
0.00164499
0.0136907
6.10507e-06
6.10485e-06
6.10514e-06
6.1054e-06
6.1055e-06
6.1059e-06
6.1065e-06
6.10727e-06
6.10849e-06
6.11018e-06
6.1125e-06
6.11572e-06
6.12008e-06
6.12599e-06
6.13411e-06
6.14495e-06
6.16045e-06
6.17579e-06
6.21064e-06
6.31096e-06
6.51915e-06
5.60585e-06
3.21419e-06
1.22021e-07
8.06329e-09
2.03739e-09
3.77964e-10
3.32303e-21
0
6.40522e-05
0.000345975
0.00181439
0.000377515
0.00875457
0.0380954
0.0933041
0.160402
0.223976
0.278306
6.1046e-06
6.10391e-06
6.10482e-06
6.1046e-06
6.1063e-06
6.10603e-06
6.10467e-06
6.10346e-06
6.10248e-06
6.10188e-06
6.10144e-06
6.10096e-06
6.10071e-06
6.10055e-06
6.10054e-06
6.10057e-06
6.10069e-06
6.10089e-06
6.10114e-06
6.10139e-06
6.10162e-06
6.10175e-06
6.10182e-06
6.10147e-06
6.1014e-06
6.10172e-06
6.10212e-06
6.10391e-06
6.10352e-06
6.11286e-06
6.0958e-06
6.1856e-06
5.45101e-06
3.42968e-06
2.5498e-12
3.0798e-09
0.000163768
0.000430336
0.00238066
6.10531e-06
6.10553e-06
6.10569e-06
6.10573e-06
6.10586e-06
6.10595e-06
6.10612e-06
6.10647e-06
6.10694e-06
6.10765e-06
6.10869e-06
6.11016e-06
6.11221e-06
6.11509e-06
6.11904e-06
6.12461e-06
6.13215e-06
6.14035e-06
6.14902e-06
6.15807e-06
6.26082e-06
6.51697e-06
6.61245e-06
5.56064e-06
3.24727e-06
1.24401e-06
2.24157e-07
1.88136e-18
3.76163e-09
4.13171e-11
0
0
5.59038e-05
0.00205754
0.00168412
0.021748
0.0782332
0.166187
0.252296
6.10484e-06
6.10378e-06
6.10417e-06
6.10385e-06
6.10551e-06
6.10544e-06
6.10424e-06
6.10309e-06
6.10219e-06
6.10169e-06
6.10132e-06
6.10113e-06
6.101e-06
6.10106e-06
6.10101e-06
6.10105e-06
6.10122e-06
6.10145e-06
6.10179e-06
6.1022e-06
6.10271e-06
6.10328e-06
6.10396e-06
6.10476e-06
6.10574e-06
6.10703e-06
6.1087e-06
6.11079e-06
6.11342e-06
6.11667e-06
6.12014e-06
6.12431e-06
6.17621e-06
5.87244e-06
5.32438e-06
1.16797e-06
1.09803e-08
1.69709e-11
6.03639e-05
6.10488e-06
6.10502e-06
6.10531e-06
6.10529e-06
6.10511e-06
6.10498e-06
6.10482e-06
6.10466e-06
6.10462e-06
6.10462e-06
6.10471e-06
6.10494e-06
6.10531e-06
6.1059e-06
6.10679e-06
6.10816e-06
6.11016e-06
6.11281e-06
6.11501e-06
6.11592e-06
6.12343e-06
6.15695e-06
6.26704e-06
6.5725e-06
6.70529e-06
6.43096e-06
5.65966e-06
3.78573e-06
1.93768e-06
2.1554e-08
7.50865e-09
1.25932e-11
0
0
0.000387293
0.00542346
0.0161592
0.0904551
0.200057
6.10429e-06
6.10315e-06
6.10315e-06
6.10273e-06
6.10435e-06
6.10449e-06
6.10359e-06
6.10255e-06
6.10175e-06
6.10128e-06
6.10097e-06
6.10081e-06
6.10074e-06
6.10083e-06
6.10091e-06
6.10103e-06
6.10109e-06
6.1011e-06
6.10119e-06
6.10128e-06
6.10141e-06
6.10155e-06
6.10172e-06
6.10187e-06
6.102e-06
6.10217e-06
6.1024e-06
6.10265e-06
6.10292e-06
6.10302e-06
6.10351e-06
6.10116e-06
6.11447e-06
6.08674e-06
6.29137e-06
5.58479e-06
2.99764e-06
1.77832e-08
5.77369e-07
6.10481e-06
6.10494e-06
6.10509e-06
6.1049e-06
6.10472e-06
6.10444e-06
6.10421e-06
6.10409e-06
6.10397e-06
6.10391e-06
6.10393e-06
6.10403e-06
6.10426e-06
6.10466e-06
6.10528e-06
6.10623e-06
6.10765e-06
6.10957e-06
6.11143e-06
6.11304e-06
6.11355e-06
6.11825e-06
6.11502e-06
6.15201e-06
6.30323e-06
6.54211e-06
6.87078e-06
7.19601e-06
7.10854e-06
5.05494e-06
2.89415e-06
6.12985e-09
2.95034e-09
0
0
0
0.00442591
0.0309816
0.132928
6.10424e-06
6.10298e-06
6.10263e-06
6.10205e-06
6.10358e-06
6.10384e-06
6.10314e-06
6.10218e-06
6.10149e-06
6.10105e-06
6.1008e-06
6.10067e-06
6.10061e-06
6.10069e-06
6.10078e-06
6.10093e-06
6.10106e-06
6.1012e-06
6.10129e-06
6.10129e-06
6.10137e-06
6.10148e-06
6.10164e-06
6.10183e-06
6.10205e-06
6.10239e-06
6.10289e-06
6.10356e-06
6.10442e-06
6.10548e-06
6.10683e-06
6.10828e-06
6.11064e-06
6.1093e-06
6.14484e-06
6.21149e-06
6.61299e-06
4.50376e-06
2.60959e-09
6.10473e-06
6.10474e-06
6.10475e-06
6.10447e-06
6.10417e-06
6.10388e-06
6.10358e-06
6.10335e-06
6.10314e-06
6.10296e-06
6.1028e-06
6.10269e-06
6.10261e-06
6.10255e-06
6.10253e-06
6.10252e-06
6.1026e-06
6.10268e-06
6.10291e-06
6.10351e-06
6.10426e-06
6.10742e-06
6.10938e-06
6.09795e-06
6.09256e-06
6.12626e-06
6.25404e-06
6.5256e-06
6.90428e-06
7.30677e-06
7.54983e-06
5.11317e-06
1.1521e-06
1.06572e-08
0
0
0
0.00871213
0.0716585
6.10423e-06
6.10296e-06
6.10231e-06
6.10153e-06
6.10293e-06
6.10328e-06
6.10272e-06
6.10185e-06
6.10125e-06
6.10086e-06
6.10071e-06
6.10054e-06
6.10046e-06
6.10051e-06
6.10058e-06
6.10074e-06
6.10091e-06
6.10109e-06
6.10124e-06
6.10139e-06
6.1015e-06
6.10158e-06
6.10157e-06
6.10159e-06
6.10163e-06
6.10173e-06
6.10192e-06
6.10219e-06
6.10252e-06
6.10295e-06
6.10337e-06
6.10409e-06
6.10374e-06
6.10935e-06
6.09187e-06
6.19291e-06
5.82554e-06
8.76174e-06
5.67609e-07
6.10461e-06
6.10447e-06
6.10434e-06
6.104e-06
6.10365e-06
6.10332e-06
6.10302e-06
6.10282e-06
6.10264e-06
6.1025e-06
6.1024e-06
6.10234e-06
6.10232e-06
6.10236e-06
6.10246e-06
6.10267e-06
6.10299e-06
6.10349e-06
6.10408e-06
6.10464e-06
6.10504e-06
6.10563e-06
6.10825e-06
6.10845e-06
6.09917e-06
6.08381e-06
6.07677e-06
6.11242e-06
6.21114e-06
6.46795e-06
6.88866e-06
7.64457e-06
7.14203e-06
2.98343e-06
1.5715e-08
0
0
0.000680569
0.0326249
6.10425e-06
6.103e-06
6.10214e-06
6.10119e-06
6.10245e-06
6.10283e-06
6.10236e-06
6.10157e-06
6.10105e-06
6.10072e-06
6.10056e-06
6.1004e-06
6.1003e-06
6.10031e-06
6.10037e-06
6.10051e-06
6.10067e-06
6.10087e-06
6.10105e-06
6.10123e-06
6.10138e-06
6.10153e-06
6.10164e-06
6.10173e-06
6.10178e-06
6.10185e-06
6.10199e-06
6.10223e-06
6.10255e-06
6.10299e-06
6.1035e-06
6.10436e-06
6.10434e-06
6.10886e-06
6.09364e-06
6.16481e-06
5.85582e-06
7.14993e-06
4.36761e-06
6.10443e-06
6.10414e-06
6.10391e-06
6.10353e-06
6.10315e-06
6.10282e-06
6.10253e-06
6.10233e-06
6.10214e-06
6.10201e-06
6.1019e-06
6.10182e-06
6.10175e-06
6.10173e-06
6.10172e-06
6.10176e-06
6.10184e-06
6.10197e-06
6.10219e-06
6.1026e-06
6.1032e-06
6.10381e-06
6.10501e-06
6.10738e-06
6.10829e-06
6.10439e-06
6.09336e-06
6.08102e-06
6.07213e-06
6.09961e-06
6.17574e-06
6.51845e-06
7.21497e-06
7.76347e-06
3.9912e-06
1.0528e-08
0
0.000278076
0.0128991
6.10423e-06
6.10306e-06
6.10205e-06
6.10095e-06
6.10207e-06
6.10244e-06
6.10204e-06
6.10131e-06
6.10085e-06
6.10056e-06
6.10041e-06
6.10027e-06
6.10014e-06
6.10012e-06
6.10013e-06
6.10024e-06
6.10039e-06
6.10058e-06
6.10077e-06
6.10098e-06
6.10119e-06
6.1014e-06
6.10158e-06
6.10174e-06
6.10189e-06
6.10197e-06
6.10201e-06
6.10209e-06
6.10225e-06
6.10248e-06
6.10278e-06
6.10322e-06
6.10347e-06
6.10505e-06
6.10161e-06
6.11927e-06
6.05963e-06
6.20416e-06
6.16169e-06
6.10419e-06
6.10377e-06
6.10347e-06
6.10308e-06
6.10271e-06
6.10237e-06
6.1021e-06
6.10192e-06
6.10176e-06
6.10166e-06
6.1016e-06
6.10155e-06
6.10153e-06
6.10152e-06
6.10154e-06
6.10161e-06
6.10171e-06
6.10189e-06
6.10214e-06
6.10246e-06
6.10286e-06
6.10332e-06
6.10388e-06
6.105e-06
6.10682e-06
6.10841e-06
6.10792e-06
6.104e-06
6.09499e-06
6.08257e-06
6.06632e-06
6.07683e-06
6.25761e-06
6.79651e-06
8.51485e-06
2.51472e-06
5.35272e-12
7.12135e-05
0.00427519
6.10416e-06
6.10311e-06
6.10201e-06
6.1008e-06
6.10176e-06
6.10211e-06
6.10175e-06
6.10109e-06
6.10067e-06
6.10039e-06
6.10023e-06
6.10009e-06
6.09995e-06
6.0999e-06
6.0999e-06
6.09998e-06
6.1001e-06
6.10029e-06
6.10049e-06
6.10074e-06
6.10097e-06
6.10122e-06
6.10144e-06
6.10164e-06
6.10184e-06
6.10198e-06
6.10204e-06
6.10208e-06
6.10216e-06
6.10232e-06
6.10255e-06
6.10287e-06
6.1033e-06
6.10368e-06
6.10475e-06
6.10285e-06
6.11692e-06
6.05231e-06
6.25715e-06
6.10389e-06
6.10339e-06
6.10305e-06
6.10267e-06
6.1023e-06
6.10196e-06
6.10173e-06
6.10158e-06
6.10146e-06
6.10141e-06
6.10138e-06
6.10135e-06
6.10135e-06
6.10135e-06
6.10136e-06
6.1014e-06
6.10147e-06
6.10157e-06
6.10172e-06
6.10195e-06
6.10227e-06
6.1027e-06
6.1032e-06
6.10384e-06
6.10489e-06
6.10643e-06
6.10819e-06
6.10954e-06
6.10974e-06
6.10659e-06
6.0986e-06
6.07344e-06
6.05575e-06
6.08816e-06
6.69261e-06
1.02552e-05
1.21494e-11
1.23277e-06
0.00108209
6.10402e-06
6.10312e-06
6.10199e-06
6.10069e-06
6.1015e-06
6.10183e-06
6.1015e-06
6.10089e-06
6.10049e-06
6.10022e-06
6.10005e-06
6.09993e-06
6.09977e-06
6.09969e-06
6.09967e-06
6.09974e-06
6.09986e-06
6.10003e-06
6.10023e-06
6.10047e-06
6.10072e-06
6.10099e-06
6.10124e-06
6.10147e-06
6.1017e-06
6.10189e-06
6.10202e-06
6.10208e-06
6.1021e-06
6.10217e-06
6.10231e-06
6.10251e-06
6.10282e-06
6.10303e-06
6.1041e-06
6.10209e-06
6.11258e-06
6.08119e-06
6.14636e-06
6.10356e-06
6.10303e-06
6.10266e-06
6.10229e-06
6.10193e-06
6.10161e-06
6.10142e-06
6.10132e-06
6.10126e-06
6.10124e-06
6.10125e-06
6.10126e-06
6.10128e-06
6.10131e-06
6.10134e-06
6.10139e-06
6.10145e-06
6.10155e-06
6.10167e-06
6.10186e-06
6.1021e-06
6.10241e-06
6.10281e-06
6.10331e-06
6.10399e-06
6.10497e-06
6.10634e-06
6.108e-06
6.10998e-06
6.11183e-06
6.11304e-06
6.11124e-06
6.08182e-06
6.11172e-06
5.6397e-06
9.24402e-06
2.65584e-06
2.59494e-10
5.79565e-05
6.10383e-06
6.10309e-06
6.10198e-06
6.10063e-06
6.10129e-06
6.10157e-06
6.10126e-06
6.1007e-06
6.10032e-06
6.10004e-06
6.09987e-06
6.09974e-06
6.09958e-06
6.0995e-06
6.09946e-06
6.09951e-06
6.09961e-06
6.09977e-06
6.09996e-06
6.10019e-06
6.10045e-06
6.10072e-06
6.101e-06
6.10126e-06
6.10152e-06
6.10174e-06
6.10192e-06
6.10204e-06
6.1021e-06
6.10212e-06
6.10219e-06
6.10232e-06
6.10253e-06
6.10276e-06
6.10326e-06
6.10312e-06
6.10556e-06
6.10203e-06
6.10726e-06
6.10324e-06
6.1027e-06
6.10231e-06
6.10194e-06
6.10161e-06
6.10134e-06
6.10119e-06
6.10114e-06
6.10114e-06
6.10117e-06
6.10121e-06
6.10126e-06
6.1013e-06
6.10135e-06
6.10139e-06
6.10144e-06
6.10149e-06
6.10156e-06
6.10166e-06
6.1018e-06
6.10199e-06
6.10224e-06
6.10256e-06
6.10297e-06
6.10351e-06
6.10425e-06
6.10525e-06
6.10651e-06
6.10802e-06
6.11007e-06
6.11189e-06
6.1189e-06
6.10296e-06
6.16839e-06
5.82096e-06
6.45424e-06
9.72474e-06
5.0747e-11
4.64904e-07
6.10361e-06
6.10301e-06
6.10194e-06
6.10058e-06
6.1011e-06
6.10133e-06
6.10104e-06
6.10053e-06
6.10015e-06
6.09986e-06
6.0997e-06
6.09957e-06
6.0994e-06
6.0993e-06
6.09926e-06
6.0993e-06
6.09939e-06
6.09953e-06
6.09972e-06
6.09995e-06
6.1002e-06
6.10048e-06
6.10076e-06
6.10104e-06
6.10133e-06
6.10158e-06
6.1018e-06
6.10196e-06
6.10208e-06
6.10213e-06
6.10215e-06
6.10221e-06
6.10234e-06
6.10251e-06
6.10278e-06
6.10315e-06
6.10337e-06
6.10572e-06
6.10267e-06
6.10292e-06
6.10239e-06
6.10197e-06
6.10162e-06
6.10134e-06
6.10112e-06
6.10104e-06
6.10104e-06
6.10108e-06
6.10115e-06
6.10123e-06
6.10129e-06
6.10135e-06
6.10141e-06
6.10146e-06
6.10151e-06
6.10157e-06
6.10164e-06
6.10172e-06
6.10184e-06
6.10199e-06
6.10219e-06
6.10245e-06
6.10278e-06
6.10323e-06
6.10383e-06
6.10464e-06
6.10567e-06
6.10685e-06
6.10841e-06
6.10964e-06
6.11428e-06
6.11261e-06
6.12557e-06
6.19354e-06
5.26896e-06
1.21097e-05
3.80243e-10
2.3079e-16
6.10336e-06
6.10291e-06
6.10189e-06
6.10054e-06
6.10093e-06
6.10111e-06
6.10084e-06
6.10035e-06
6.09997e-06
6.09969e-06
6.09952e-06
6.09938e-06
6.09922e-06
6.09912e-06
6.09908e-06
6.09911e-06
6.09919e-06
6.09932e-06
6.09949e-06
6.0997e-06
6.09995e-06
6.10023e-06
6.10053e-06
6.10083e-06
6.10112e-06
6.10139e-06
6.10163e-06
6.10183e-06
6.10199e-06
6.10209e-06
6.10214e-06
6.10216e-06
6.10223e-06
6.10234e-06
6.10252e-06
6.10284e-06
6.10296e-06
6.10489e-06
6.10357e-06
6.10263e-06
6.10209e-06
6.10166e-06
6.10135e-06
6.10111e-06
6.10095e-06
6.10094e-06
6.10099e-06
6.10107e-06
6.10117e-06
6.10126e-06
6.10135e-06
6.10143e-06
6.1015e-06
6.10156e-06
6.10162e-06
6.10167e-06
6.10174e-06
6.10181e-06
6.10191e-06
6.10203e-06
6.1022e-06
6.10242e-06
6.10269e-06
6.10306e-06
6.10357e-06
6.10425e-06
6.10512e-06
6.10616e-06
6.10739e-06
6.10881e-06
6.10976e-06
6.11848e-06
6.08358e-06
6.31256e-06
5.31032e-06
9.47616e-06
1.61058e-06
4.9508e-10
6.10309e-06
6.10277e-06
6.10183e-06
6.1005e-06
6.10078e-06
6.10091e-06
6.10065e-06
6.10019e-06
6.09981e-06
6.09952e-06
6.09934e-06
6.0992e-06
6.09905e-06
6.09895e-06
6.09891e-06
6.09893e-06
6.099e-06
6.09912e-06
6.09928e-06
6.09949e-06
6.09972e-06
6.1e-06
6.1003e-06
6.1006e-06
6.10091e-06
6.10119e-06
6.10145e-06
6.10168e-06
6.10187e-06
6.10201e-06
6.10212e-06
6.10216e-06
6.10218e-06
6.10224e-06
6.10236e-06
6.10257e-06
6.10278e-06
6.10404e-06
6.10381e-06
6.10234e-06
6.10182e-06
6.10138e-06
6.10112e-06
6.10094e-06
6.10085e-06
6.10089e-06
6.10098e-06
6.10109e-06
6.10121e-06
6.10132e-06
6.10142e-06
6.10151e-06
6.10159e-06
6.10165e-06
6.10171e-06
6.10177e-06
6.10183e-06
6.1019e-06
6.10198e-06
6.10209e-06
6.10223e-06
6.1024e-06
6.10263e-06
6.10295e-06
6.10338e-06
6.10396e-06
6.10471e-06
6.10564e-06
6.10666e-06
6.1083e-06
6.10779e-06
6.11859e-06
6.08115e-06
6.24472e-06
5.74374e-06
6.92799e-06
6.84057e-06
8.18778e-08
6.10282e-06
6.10261e-06
6.10174e-06
6.10046e-06
6.10063e-06
6.10072e-06
6.10046e-06
6.10002e-06
6.09964e-06
6.09936e-06
6.09918e-06
6.09902e-06
6.09888e-06
6.0988e-06
6.09876e-06
6.09878e-06
6.09884e-06
6.09895e-06
6.0991e-06
6.09929e-06
6.09952e-06
6.09979e-06
6.10008e-06
6.10038e-06
6.10069e-06
6.10098e-06
6.10125e-06
6.1015e-06
6.10172e-06
6.1019e-06
6.10204e-06
6.10214e-06
6.10218e-06
6.1022e-06
6.10227e-06
6.10241e-06
6.1026e-06
6.10358e-06
6.10356e-06
6.10208e-06
6.10157e-06
6.10113e-06
6.10093e-06
6.10081e-06
6.10079e-06
6.10088e-06
6.101e-06
6.10112e-06
6.10125e-06
6.10138e-06
6.10148e-06
6.10158e-06
6.10167e-06
6.10174e-06
6.10181e-06
6.10188e-06
6.10194e-06
6.10201e-06
6.10209e-06
6.10218e-06
6.1023e-06
6.10245e-06
6.10264e-06
6.1029e-06
6.10327e-06
6.10376e-06
6.1044e-06
6.10521e-06
6.1061e-06
6.10761e-06
6.10745e-06
6.11458e-06
6.09729e-06
6.15236e-06
6.07679e-06
5.87559e-06
8.49116e-06
1.67889e-06
6.10254e-06
6.10244e-06
6.10164e-06
6.10041e-06
6.10049e-06
6.10054e-06
6.10027e-06
6.09985e-06
6.09948e-06
6.0992e-06
6.09902e-06
6.09885e-06
6.09872e-06
6.09864e-06
6.09861e-06
6.09863e-06
6.09869e-06
6.09879e-06
6.09893e-06
6.09911e-06
6.09932e-06
6.09958e-06
6.09986e-06
6.10016e-06
6.10047e-06
6.10076e-06
6.10104e-06
6.1013e-06
6.10153e-06
6.10174e-06
6.10192e-06
6.10205e-06
6.10215e-06
6.10218e-06
6.10222e-06
6.1023e-06
6.10245e-06
6.1033e-06
6.10328e-06
6.10183e-06
6.10134e-06
6.10091e-06
6.10078e-06
6.10073e-06
6.10076e-06
6.10088e-06
6.10101e-06
6.10115e-06
6.1013e-06
6.10143e-06
6.10155e-06
6.10166e-06
6.10176e-06
6.10185e-06
6.10193e-06
6.102e-06
6.10207e-06
6.10214e-06
6.10222e-06
6.10231e-06
6.10242e-06
6.10255e-06
6.10271e-06
6.10293e-06
6.10324e-06
6.10366e-06
6.1042e-06
6.1049e-06
6.1057e-06
6.10689e-06
6.10755e-06
6.11042e-06
6.11e-06
6.104e-06
6.19493e-06
5.73223e-06
7.5765e-06
4.59199e-06
6.10228e-06
6.10225e-06
6.10152e-06
6.10035e-06
6.10035e-06
6.10035e-06
6.10009e-06
6.09968e-06
6.09933e-06
6.09906e-06
6.09885e-06
6.09869e-06
6.09857e-06
6.0985e-06
6.09848e-06
6.0985e-06
6.09856e-06
6.09865e-06
6.09877e-06
6.09894e-06
6.09913e-06
6.09937e-06
6.09964e-06
6.09993e-06
6.10023e-06
6.10052e-06
6.1008e-06
6.10107e-06
6.10132e-06
6.10155e-06
6.10176e-06
6.10193e-06
6.10206e-06
6.10215e-06
6.10216e-06
6.1022e-06
6.10231e-06
6.10304e-06
6.10303e-06
6.1016e-06
6.10114e-06
6.10074e-06
6.10068e-06
6.10068e-06
6.10074e-06
6.10088e-06
6.10103e-06
6.10119e-06
6.10134e-06
6.10149e-06
6.10162e-06
6.10174e-06
6.10185e-06
6.10195e-06
6.10204e-06
6.10211e-06
6.10219e-06
6.10227e-06
6.10235e-06
6.10243e-06
6.10253e-06
6.10266e-06
6.1028e-06
6.10299e-06
6.10326e-06
6.10362e-06
6.10409e-06
6.10469e-06
6.10542e-06
6.10634e-06
6.10747e-06
6.1081e-06
6.11389e-06
6.09439e-06
6.18556e-06
5.8916e-06
6.61627e-06
6.147e-06
6.10202e-06
6.10205e-06
6.10139e-06
6.10027e-06
6.10021e-06
6.10018e-06
6.09991e-06
6.09951e-06
6.09917e-06
6.09891e-06
6.0987e-06
6.09853e-06
6.09843e-06
6.09837e-06
6.09835e-06
6.09837e-06
6.09842e-06
6.0985e-06
6.09861e-06
6.09876e-06
6.09894e-06
6.09916e-06
6.09942e-06
6.0997e-06
6.1e-06
6.10028e-06
6.10056e-06
6.10084e-06
6.10111e-06
6.10136e-06
6.10159e-06
6.10179e-06
6.10196e-06
6.10209e-06
6.10215e-06
6.10218e-06
6.10224e-06
6.10285e-06
6.10284e-06
6.10138e-06
6.10096e-06
6.10061e-06
6.1006e-06
6.10065e-06
6.10073e-06
6.10089e-06
6.10106e-06
6.10122e-06
6.1014e-06
6.10155e-06
6.1017e-06
6.10183e-06
6.10195e-06
6.10205e-06
6.10215e-06
6.10224e-06
6.10232e-06
6.1024e-06
6.10249e-06
6.10258e-06
6.10267e-06
6.10279e-06
6.10292e-06
6.10309e-06
6.10332e-06
6.10363e-06
6.10404e-06
6.10457e-06
6.10523e-06
6.10598e-06
6.10716e-06
6.10736e-06
6.11264e-06
6.1003e-06
6.14616e-06
6.04415e-06
6.17128e-06
6.41496e-06
6.10178e-06
6.10185e-06
6.10125e-06
6.10019e-06
6.10007e-06
6.1e-06
6.09972e-06
6.09933e-06
6.099e-06
6.09875e-06
6.09854e-06
6.09839e-06
6.09829e-06
6.09824e-06
6.09822e-06
6.09824e-06
6.09828e-06
6.09835e-06
6.09845e-06
6.09859e-06
6.09875e-06
6.09896e-06
6.09921e-06
6.09948e-06
6.09976e-06
6.10004e-06
6.10032e-06
6.1006e-06
6.10088e-06
6.10114e-06
6.10139e-06
6.10162e-06
6.10182e-06
6.10198e-06
6.1021e-06
6.10214e-06
6.10218e-06
6.10268e-06
6.10269e-06
6.10119e-06
6.10081e-06
6.10051e-06
6.10055e-06
6.10062e-06
6.10072e-06
6.1009e-06
6.10108e-06
6.10126e-06
6.10145e-06
6.10161e-06
6.10177e-06
6.10191e-06
6.10204e-06
6.10215e-06
6.10226e-06
6.10236e-06
6.10245e-06
6.10254e-06
6.10263e-06
6.10272e-06
6.10282e-06
6.10293e-06
6.10305e-06
6.1032e-06
6.10341e-06
6.10368e-06
6.10404e-06
6.1045e-06
6.10509e-06
6.10576e-06
6.10678e-06
6.10728e-06
6.11034e-06
6.10685e-06
6.11948e-06
6.1138e-06
6.06172e-06
6.28503e-06
6.10155e-06
6.10164e-06
6.1011e-06
6.1001e-06
6.09992e-06
6.09982e-06
6.09953e-06
6.09915e-06
6.09883e-06
6.09858e-06
6.09838e-06
6.09824e-06
6.09815e-06
6.0981e-06
6.09808e-06
6.0981e-06
6.09813e-06
6.0982e-06
6.09829e-06
6.09841e-06
6.09857e-06
6.09876e-06
6.099e-06
6.09926e-06
6.09953e-06
6.0998e-06
6.10008e-06
6.10036e-06
6.10064e-06
6.10091e-06
6.10118e-06
6.10142e-06
6.10165e-06
6.10184e-06
6.10199e-06
6.10208e-06
6.10211e-06
6.10252e-06
6.10256e-06
6.10101e-06
6.10068e-06
6.10042e-06
6.1005e-06
6.10059e-06
6.10072e-06
6.10091e-06
6.10111e-06
6.1013e-06
6.1015e-06
6.10168e-06
6.10184e-06
6.10199e-06
6.10213e-06
6.10226e-06
6.10237e-06
6.10248e-06
6.10258e-06
6.10268e-06
6.10278e-06
6.10287e-06
6.10297e-06
6.10308e-06
6.1032e-06
6.10334e-06
6.10352e-06
6.10377e-06
6.10408e-06
6.10449e-06
6.10501e-06
6.10563e-06
6.10646e-06
6.10725e-06
6.10876e-06
6.10983e-06
6.10951e-06
6.12726e-06
6.07392e-06
6.16478e-06
6.10133e-06
6.10144e-06
6.10095e-06
6.09999e-06
6.09978e-06
6.09964e-06
6.09934e-06
6.09896e-06
6.09865e-06
6.09841e-06
6.09822e-06
6.09809e-06
6.098e-06
6.09795e-06
6.09794e-06
6.09795e-06
6.09798e-06
6.09804e-06
6.09812e-06
6.09824e-06
6.09838e-06
6.09857e-06
6.09879e-06
6.09904e-06
6.0993e-06
6.09956e-06
6.09983e-06
6.1001e-06
6.10038e-06
6.10067e-06
6.10094e-06
6.10121e-06
6.10146e-06
6.10168e-06
6.10186e-06
6.10199e-06
6.10201e-06
6.10233e-06
6.10242e-06
6.10085e-06
6.10055e-06
6.10034e-06
6.10045e-06
6.10056e-06
6.10071e-06
6.10093e-06
6.10113e-06
6.10134e-06
6.10155e-06
6.10174e-06
6.10191e-06
6.10207e-06
6.10222e-06
6.10236e-06
6.10249e-06
6.1026e-06
6.10271e-06
6.10282e-06
6.10293e-06
6.10303e-06
6.10313e-06
6.10325e-06
6.10336e-06
6.1035e-06
6.10366e-06
6.10388e-06
6.10416e-06
6.10452e-06
6.10498e-06
6.10555e-06
6.10626e-06
6.10713e-06
6.10802e-06
6.11017e-06
6.10824e-06
6.12154e-06
6.10046e-06
6.11763e-06
6.10112e-06
6.10124e-06
6.10078e-06
6.09988e-06
6.09962e-06
6.09945e-06
6.09915e-06
6.09877e-06
6.09846e-06
6.09823e-06
6.09805e-06
6.09792e-06
6.09784e-06
6.0978e-06
6.09778e-06
6.09779e-06
6.09783e-06
6.09788e-06
6.09796e-06
6.09807e-06
6.0982e-06
6.09837e-06
6.09858e-06
6.09882e-06
6.09906e-06
6.09932e-06
6.09958e-06
6.09985e-06
6.10013e-06
6.10042e-06
6.10071e-06
6.10099e-06
6.10125e-06
6.1015e-06
6.1017e-06
6.10189e-06
6.1019e-06
6.10214e-06
6.10226e-06
6.10069e-06
6.10043e-06
6.10026e-06
6.1004e-06
6.10054e-06
6.10071e-06
6.10094e-06
6.10116e-06
6.10138e-06
6.1016e-06
6.1018e-06
6.10198e-06
6.10216e-06
6.10232e-06
6.10246e-06
6.1026e-06
6.10273e-06
6.10285e-06
6.10296e-06
6.10308e-06
6.10319e-06
6.1033e-06
6.10342e-06
6.10354e-06
6.10367e-06
6.10383e-06
6.10403e-06
6.10428e-06
6.1046e-06
6.10501e-06
6.10552e-06
6.10614e-06
6.10697e-06
6.10774e-06
6.10956e-06
6.10918e-06
6.11513e-06
6.11321e-06
6.11081e-06
6.10092e-06
6.10103e-06
6.10061e-06
6.09975e-06
6.09946e-06
6.09926e-06
6.09894e-06
6.09857e-06
6.09827e-06
6.09805e-06
6.09787e-06
6.09775e-06
6.09767e-06
6.09764e-06
6.09762e-06
6.09763e-06
6.09766e-06
6.09772e-06
6.09779e-06
6.09789e-06
6.09801e-06
6.09817e-06
6.09837e-06
6.09859e-06
6.09883e-06
6.09907e-06
6.09932e-06
6.09959e-06
6.09987e-06
6.10016e-06
6.10045e-06
6.10074e-06
6.10102e-06
6.10129e-06
6.10152e-06
6.10173e-06
6.10181e-06
6.10197e-06
6.10213e-06
6.10054e-06
6.10032e-06
6.10019e-06
6.10036e-06
6.10052e-06
6.10071e-06
6.10095e-06
6.10119e-06
6.10142e-06
6.10165e-06
6.10186e-06
6.10205e-06
6.10224e-06
6.1024e-06
6.10256e-06
6.10271e-06
6.10284e-06
6.10298e-06
6.1031e-06
6.10322e-06
6.10334e-06
6.10346e-06
6.10359e-06
6.10371e-06
6.10384e-06
6.10399e-06
6.10418e-06
6.10441e-06
6.10471e-06
6.10508e-06
6.10554e-06
6.1061e-06
6.10684e-06
6.10762e-06
6.10896e-06
6.10978e-06
6.11208e-06
6.11531e-06
6.1143e-06
6.10072e-06
6.10084e-06
6.10044e-06
6.09961e-06
6.09929e-06
6.09906e-06
6.09874e-06
6.09837e-06
6.09807e-06
6.09785e-06
6.09768e-06
6.09757e-06
6.0975e-06
6.09746e-06
6.09745e-06
6.09746e-06
6.09749e-06
6.09754e-06
6.09761e-06
6.0977e-06
6.09782e-06
6.09797e-06
6.09815e-06
6.09836e-06
6.09859e-06
6.09882e-06
6.09906e-06
6.09932e-06
6.0996e-06
6.09988e-06
6.10018e-06
6.10048e-06
6.10077e-06
6.10105e-06
6.10131e-06
6.10154e-06
6.10169e-06
6.1018e-06
6.102e-06
6.10039e-06
6.10021e-06
6.10012e-06
6.10031e-06
6.10049e-06
6.1007e-06
6.10096e-06
6.10121e-06
6.10145e-06
6.1017e-06
6.10191e-06
6.10212e-06
6.10231e-06
6.10249e-06
6.10266e-06
6.10281e-06
6.10296e-06
6.1031e-06
6.10324e-06
6.10337e-06
6.1035e-06
6.10363e-06
6.10376e-06
6.10389e-06
6.10402e-06
6.10417e-06
6.10435e-06
6.10456e-06
6.10483e-06
6.10517e-06
6.10559e-06
6.10611e-06
6.10677e-06
6.10754e-06
6.10859e-06
6.10979e-06
6.11122e-06
6.11391e-06
6.11667e-06
6.10054e-06
6.10064e-06
6.10026e-06
6.09947e-06
6.09911e-06
6.09886e-06
6.09852e-06
6.09815e-06
6.09786e-06
6.09765e-06
6.09749e-06
6.09738e-06
6.09731e-06
6.09728e-06
6.09727e-06
6.09728e-06
6.09731e-06
6.09736e-06
6.09742e-06
6.09751e-06
6.09762e-06
6.09775e-06
6.09793e-06
6.09813e-06
6.09834e-06
6.09856e-06
6.09879e-06
6.09905e-06
6.09932e-06
6.0996e-06
6.0999e-06
6.1002e-06
6.1005e-06
6.1008e-06
6.10108e-06
6.10133e-06
6.10154e-06
6.10159e-06
6.10185e-06
6.10025e-06
6.1001e-06
6.10005e-06
6.10026e-06
6.10046e-06
6.10069e-06
6.10097e-06
6.10123e-06
6.10149e-06
6.10174e-06
6.10197e-06
6.10219e-06
6.10239e-06
6.10258e-06
6.10275e-06
6.10292e-06
6.10308e-06
6.10323e-06
6.10337e-06
6.10352e-06
6.10366e-06
6.10379e-06
6.10393e-06
6.10407e-06
6.1042e-06
6.10435e-06
6.10452e-06
6.10473e-06
6.10498e-06
6.10529e-06
6.10568e-06
6.10615e-06
6.10675e-06
6.10748e-06
6.10841e-06
6.10955e-06
6.11106e-06
6.11249e-06
6.11679e-06
6.10036e-06
6.10044e-06
6.10007e-06
6.09931e-06
6.09893e-06
6.09864e-06
6.0983e-06
6.09793e-06
6.09764e-06
6.09744e-06
6.09728e-06
6.09718e-06
6.09712e-06
6.09709e-06
6.09708e-06
6.09709e-06
6.09712e-06
6.09716e-06
6.09722e-06
6.0973e-06
6.0974e-06
6.09753e-06
6.09769e-06
6.09788e-06
6.09808e-06
6.09829e-06
6.09852e-06
6.09876e-06
6.09902e-06
6.0993e-06
6.0996e-06
6.0999e-06
6.10021e-06
6.10052e-06
6.10082e-06
6.10109e-06
6.10135e-06
6.10141e-06
6.10171e-06
6.1001e-06
6.09999e-06
6.09997e-06
6.10021e-06
6.10044e-06
6.10068e-06
6.10097e-06
6.10125e-06
6.10152e-06
6.10178e-06
6.10202e-06
6.10225e-06
6.10246e-06
6.10266e-06
6.10284e-06
6.10302e-06
6.10319e-06
6.10335e-06
6.10351e-06
6.10366e-06
6.10381e-06
6.10396e-06
6.10411e-06
6.10425e-06
6.10439e-06
6.10454e-06
6.10471e-06
6.10491e-06
6.10514e-06
6.10543e-06
6.10579e-06
6.10623e-06
6.10678e-06
6.10745e-06
6.10831e-06
6.10931e-06
6.11094e-06
6.11173e-06
6.116e-06
6.10018e-06
6.10024e-06
6.09988e-06
6.09914e-06
6.09873e-06
6.09842e-06
6.09807e-06
6.0977e-06
6.09742e-06
6.09722e-06
6.09706e-06
6.09696e-06
6.09691e-06
6.09688e-06
6.09687e-06
6.09688e-06
6.09691e-06
6.09695e-06
6.09701e-06
6.09708e-06
6.09718e-06
6.0973e-06
6.09745e-06
6.09762e-06
6.09781e-06
6.09801e-06
6.09823e-06
6.09846e-06
6.09871e-06
6.09899e-06
6.09928e-06
6.09959e-06
6.0999e-06
6.10022e-06
6.10054e-06
6.10083e-06
6.10111e-06
6.10123e-06
6.10159e-06
6.09996e-06
6.09988e-06
6.0999e-06
6.10016e-06
6.1004e-06
6.10067e-06
6.10097e-06
6.10126e-06
6.10155e-06
6.10182e-06
6.10207e-06
6.10231e-06
6.10253e-06
6.10274e-06
6.10293e-06
6.10312e-06
6.1033e-06
6.10347e-06
6.10364e-06
6.10381e-06
6.10396e-06
6.10412e-06
6.10428e-06
6.10443e-06
6.10458e-06
6.10474e-06
6.1049e-06
6.10509e-06
6.10532e-06
6.10559e-06
6.10593e-06
6.10633e-06
6.10684e-06
6.10746e-06
6.10827e-06
6.10915e-06
6.11075e-06
6.11136e-06
6.11521e-06
6.1e-06
6.10005e-06
6.09969e-06
6.09896e-06
6.09853e-06
6.0982e-06
6.09783e-06
6.09746e-06
6.09718e-06
6.09698e-06
6.09684e-06
6.09674e-06
6.09668e-06
6.09666e-06
6.09665e-06
6.09666e-06
6.09669e-06
6.09673e-06
6.09678e-06
6.09685e-06
6.09693e-06
6.09704e-06
6.09718e-06
6.09735e-06
6.09753e-06
6.09771e-06
6.09792e-06
6.09814e-06
6.09839e-06
6.09865e-06