# p  FACE_DATA 150
# x y z  p
0.29576437 -0.05 0.059999702 11790.689
0.28738431 -0.05 0.059968924 11824.16
0.27918472 -0.05 0.059906283 11863.72
0.27116186 -0.05 0.05981265 11903.737
0.26331203 -0.05 0.059689027 11945.521
0.25563166 -0.05 0.059536266 11989.02
0.24811723 -0.05 0.059355154 12034.035
0.24076528 -0.05 0.059146558 12080.21
0.23357246 -0.05 0.058911358 12127.652
0.22653546 -0.05 0.058650342 12176.467
0.21965107 -0.05 0.058364202 12226.56
0.21291613 -0.05 0.058053757 12277.457
0.20632755 -0.05 0.057719714 12329.762
0.19988233 -0.05 0.057362758 12382.09
0.19357748 -0.05 0.056983702 12435.225
0.18741014 -0.05 0.056583118 12489.186
0.18137746 -0.05 0.056161624 12544.05
0.17547671 -0.05 0.055719844 12601.456
0.16970518 -0.05 0.055258363 12661.36
0.1640602 -0.05 0.05477783 12722.59
0.15853921 -0.05 0.054278745 12785.778
0.15313967 -0.05 0.053761636 12850.152
0.14785914 -0.05 0.053226963 12916.696
0.14269518 -0.05 0.052675259 12983.717
0.13764543 -0.05 0.052106992 13052.777
0.13270762 -0.05 0.051522466 13123.09
0.12787949 -0.05 0.050922169 13194.525
0.12315884 -0.05 0.050306449 13267.935
0.11854353 -0.05 0.049675628 13342.575
0.11403148 -0.05 0.04903008 13418.201
0.10962066 -0.05 0.04837006 13493.339
0.10530908 -0.05 0.047695796 13568.138
0.10109483 -0.05 0.047007509 13646.608
0.096976017 -0.05 0.046305459 13730.309
0.092950808 -0.05 0.04558984 13816.798
0.08901745 -0.05 0.044860715 13904.726
0.085174232 -0.05 0.044118143 13993.418
0.081419479 -0.05 0.043362242 14083.416
0.077751578 -0.05 0.042593081 14176.598
0.074168981 -0.05 0.041810614 14274.908
0.070670198 -0.05 0.041014781 14378.229
0.06725379 -0.05 0.040205492 14486.309
0.06391837 -0.05 0.039382651 14604.556
0.060662655 -0.05 0.038545988 14737.029
0.057485397 -0.05 0.037695273 14880.11
0.054385413 -0.05 0.036830261 15031.698
0.051361621 -0.05 0.035950545 15189.909
0.048412992 -0.05 0.035055749 15357.993
0.045538629 -0.05 0.034145316 15538.315
0.042737712 -0.05 0.03321865 15726.148
0.040009498 -0.05 0.032275148 15919.173
0.037353406 -0.05 0.031314032 16123.473
0.034768993 -0.05 0.030334375 16341.59
0.032255944 -0.05 0.02933521 16574.685
0.029814132 -0.05 0.028315426 16821.115
0.027443661 -0.05 0.027273729 17083.179
0.025144824 -0.05 0.026208776 17366.079
0.022918276 -0.05 0.02511886 17677.092
0.020764984 -0.05 0.02400217 18025.005
0.018686283 -0.05 0.022856725 18424.448
0.016684024 -0.05 0.021680228 18877.937
0.01476059 -0.05 0.020470219 19385.977
0.012919252 -0.05 0.019223865 19961.334
0.011164249 -0.05 0.017938283 20607.815
0.0095007128 -0.05 0.016610449 21336.221
0.0079348886 -0.05 0.015236971 22173.616
0.006474941 -0.05 0.013814774 23137.33
0.0051312596 -0.05 0.012341958 24231.277
0.0039150106 -0.05 0.010816511 25456.603
0.0028396284 -0.05 0.009238845 26800.151
0.0019206554 -0.05 0.007613688 28230.56
0.0011720639 -0.05 0.0059475212 29740.404
0.0006061561 -0.05 0.004252283 31247.866
0.00023063831 -0.05 0.0025452878 32600.831
4.5460517e-05 -0.05 0.0008455405 33717.733
0.99536103 -0.05 0.00067021835 26378.986
0.98608198 -0.05 0.0020028877 26312.455
0.97680071 -0.05 0.0033200849 26213.001
0.96751731 -0.05 0.0046220425 26117.916
0.95823181 -0.05 0.0059090613 26019.033
0.94894428 -0.05 0.0071813587 25919.812
0.93965479 -0.05 0.0084391859 25819.609
0.93036339 -0.05 0.0096828487 25719.039
0.92107012 -0.05 0.010912491 25618.286
0.91177504 -0.05 0.012128333 25517.511
0.90247819 -0.05 0.013330648 25416.879
0.89317963 -0.05 0.014519511 25316.549
0.88387936 -0.05 0.015695054 25216.688
0.87457746 -0.05 0.016857552 25117.472
0.86527395 -0.05 0.01800713 25019.126
0.85596885 -0.05 0.019143875 24921.624
0.84666223 -0.05 0.020267984 24824.874
0.8373541 -0.05 0.021379502 24728.938
0.82804448 -0.05 0.022478516 24633.795
0.8187334 -0.05 0.023565119 24539.663
0.8094209 -0.05 0.024639397 24446.412
0.80010698 -0.05 0.025701394 24354.009
0.79079168 -0.05 0.026751168 24262.277
0.78147501 -0.05 0.027788748 24171.2
0.77215699 -0.05 0.028814138 24080.751
0.76283764 -0.05 0.029827333 23990.82
0.75351698 -0.05 0.030828337 23901.434
0.74419501 -0.05 0.03181713 23812.377
0.73487174 -0.05 0.032793639 23723.323
0.72554719 -0.05 0.033757832 23633.921
0.71622136 -0.05 0.034709535 23544.193
0.70689427 -0.05 0.03564879 23453.973
0.69756592 -0.05 0.036575541 23363.186
0.68823633 -0.05 0.037489546 23271.604
0.67890547 -0.05 0.03839067 23178.582
0.66957337 -0.05 0.039278803 23084.082
0.66024004 -0.05 0.040153805 22987.333
0.65090546 -0.05 0.04101549 22888.261
0.64156964 -0.05 0.041863622 22785.674
0.63223258 -0.05 0.042697993 22679.5
0.62289428 -0.05 0.043518409 22568.733
0.61355475 -0.05 0.04432459 22452.777
0.60421397 -0.05 0.045116235 22330.226
0.59487195 -0.05 0.045893096 22199.507
0.58552869 -0.05 0.046654869 22059.361
0.57618419 -0.05 0.047401205 21906.629
0.56683843 -0.05 0.048131797 21740.479
0.55749143 -0.05 0.04884624 21559.065
0.54814318 -0.05 0.049544113 21363.311
0.53879368 -0.05 0.050225066 21152.867
0.52944294 -0.05 0.050888717 20928.312
0.52009095 -0.05 0.051534504 20686.296
0.51073771 -0.05 0.052161963 20424.061
0.50138323 -0.05 0.052770675 20142.257
0.49202751 -0.05 0.05336005 19844.612
0.48267056 -0.05 0.053929509 19541.337
0.47331239 -0.05 0.054478508 19240.225
0.46395301 -0.05 0.055006444 18938.506
0.45459243 -0.05 0.05551264 18615.973
0.44523065 -0.05 0.055996468 18276.451
0.43586773 -0.05 0.056457197 17298.084
0.42650365 -0.05 0.05689408 15300.647
0.41713847 -0.05 0.057306403 13396.252
0.4077722 -0.05 0.057693321 12394.664
0.39840488 -0.05 0.058053993 11925.169
0.38903656 -0.05 0.058387504 11721.737
0.37966728 -0.05 0.058692934 11640.486
0.3702971 -0.05 0.058969274 11610.959
0.36092607 -0.05 0.059215505 11603.425
0.35155429 -0.05 0.059430617 11607.938
0.34218182 -0.05 0.059613395 11626.018
0.33280875 -0.05 0.059762648 11650.968
0.3234352 -0.05 0.059877122 11680.979
0.31406128 -0.05 0.059955444 11713.957
0.30468712 -0.05 0.059996221 11750.686
