/*--------------------------------*- C++ -*----------------------------------*\
| =========                 |                                                 |
| \\      /  F ield         | OpenFOAM: The Open Source CFD Toolbox           |
|  \\    /   O peration     | Version:  2306                                  |
|   \\  /    A nd           | Website:  www.openfoam.com                      |
|    \\/     M anipulation  |                                                 |
\*---------------------------------------------------------------------------*/
FoamFile
{
    version     2.0;
    format      ascii;
    arch        "LSB;label=32;scalar=64";
    class       volSymmTensorField;
    location    "875";
    object      turbulenceProperties:devReff;
}
// * * * * * * * * * * * * * * * * * * * * * * * * * * * * * * * * * * * * * //

dimensions      [0 2 -2 0 0 0 0];

internalField   nonuniform List<symmTensor> 
1340
(
(5.37937e-08 7.83548e-08 -1.08995e-19 -1.24337e-07 -1.41107e-20 7.05434e-08)
(-2.12354e-07 9.58358e-08 5.5125e-20 3.08588e-07 6.39378e-21 -9.62348e-08)
(-2.88e-09 -4.7349e-09 -2.14058e-19 -1.98821e-08 -2.67798e-20 2.27621e-08)
(-1.05849e-07 2.60438e-08 -3.34988e-20 1.49203e-07 -3.78754e-21 -4.33538e-08)
(4.76664e-08 8.19755e-08 1.61181e-20 -1.18998e-07 1.74041e-21 7.13317e-08)
(-2.10974e-07 9.49118e-08 -2.21446e-19 3.08908e-07 -2.50566e-20 -9.79341e-08)
(-4.07101e-08 -3.78713e-09 -0 3.57388e-08 -1.31777e-22 4.97136e-09)
(-5.34763e-08 -1.42764e-08 -7.23723e-20 6.4518e-08 -8.54497e-21 -1.10416e-08)
(-6.37933e-09 -3.73554e-09 2.03428e-19 -1.64374e-08 2.55177e-20 2.28167e-08)
(-1.06187e-07 2.46411e-08 1.02477e-19 1.49982e-07 1.21099e-20 -4.37957e-08)
(4.13803e-08 8.5114e-08 3.44226e-23 -1.1396e-07 2.0267e-22 7.25802e-08)
(-2.08347e-07 9.34515e-08 1.8243e-19 3.08737e-07 2.04866e-20 -1.00391e-07)
(-6.987e-08 1.85038e-08 -9.23559e-20 7.01167e-08 -1.10934e-20 -2.46747e-10)
(-6.2627e-08 1.35764e-08 1.90982e-21 6.18839e-08 4.69758e-22 7.43062e-10)
(-5.85372e-08 4.2767e-09 1.26071e-20 6.05592e-08 1.50354e-21 -2.02206e-09)
(-4.22643e-08 -6.70958e-09 -0 3.73652e-08 -2.65047e-23 4.89912e-09)
(-5.42717e-08 -1.7431e-08 -3.30459e-22 6.52289e-08 -5.7875e-23 -1.09572e-08)
(-9.89476e-09 -2.85393e-09 1.45744e-21 -1.29206e-08 2.50722e-22 2.28154e-08)
(-1.06485e-07 2.37291e-08 8.56847e-22 1.50706e-07 1.58426e-22 -4.42211e-08)
(3.56179e-08 8.79116e-08 7.54791e-24 -1.09481e-07 6.55835e-24 7.38629e-08)
(-2.05847e-07 9.09634e-08 9.84678e-22 3.08673e-07 1.81241e-22 -1.02826e-07)
(-1.00521e-07 2.47359e-08 6.55341e-21 1.00551e-07 1.03041e-21 -3.03722e-11)
(-9.33474e-08 2.21179e-08 2.78108e-20 9.33802e-08 3.36688e-21 -3.28235e-11)
(-8.74706e-08 2.01589e-08 2.82607e-20 8.74301e-08 2.85833e-21 4.04821e-11)
(-8.18298e-08 1.87679e-08 -9.8339e-20 8.18641e-08 -1.17814e-20 -3.43023e-11)
(-7.60824e-08 1.71262e-08 2.56715e-20 7.60192e-08 3.32418e-21 6.31391e-11)
(-7.06975e-08 1.45072e-08 -3.91729e-20 7.09317e-08 -4.82829e-21 -2.34144e-10)
(-6.36349e-08 9.80075e-09 2.53566e-22 6.29178e-08 3.61288e-22 7.17092e-10)
(-5.94168e-08 4.1746e-10 9.31706e-20 6.13772e-08 1.13277e-20 -1.96038e-09)
(-4.37458e-08 -9.75489e-09 -0 3.89545e-08 -1.89274e-22 4.79125e-09)
(-5.49878e-08 -2.04212e-08 5.3934e-21 6.57903e-08 3.70867e-22 -1.08025e-08)
(-1.33404e-08 -2.0456e-09 -1.85954e-19 -9.38554e-09 -2.3263e-20 2.27259e-08)
(-1.06878e-07 2.31771e-08 -9.35473e-20 1.51413e-07 -1.10696e-20 -4.45345e-08)
(3.05728e-08 9.04955e-08 -6.09911e-21 -1.05588e-07 -6.02339e-22 7.5015e-08)
(-2.03859e-07 8.73934e-08 2.40771e-20 3.08903e-07 2.73424e-21 -1.05044e-07)
(-1.43534e-07 2.30259e-08 5.43496e-20 1.43529e-07 5.65773e-21 5.70706e-12)
(-1.34269e-07 2.32866e-08 -5.01976e-20 1.34265e-07 -6.12775e-21 4.22275e-12)
(-1.25153e-07 2.27077e-08 -1.30757e-20 1.25142e-07 -1.63245e-21 1.09483e-11)
(-1.16344e-07 2.15941e-08 -8.11943e-20 1.16364e-07 -9.45931e-21 -1.98757e-11)
(-1.07805e-07 2.02351e-08 -1.8781e-20 1.07756e-07 -1.81908e-21 4.88828e-11)
(-9.97594e-08 1.86842e-08 1.31665e-20 9.97839e-08 1.64181e-21 -2.45495e-11)
(-9.29567e-08 1.65547e-08 6.71977e-21 9.29816e-08 7.39944e-22 -2.48596e-11)
(-8.73876e-08 1.50639e-08 1.38207e-22 8.73423e-08 6.77882e-23 4.53014e-11)
(-8.20241e-08 1.40977e-08 1.64511e-20 8.20527e-08 1.786e-21 -2.85576e-11)
(-7.65343e-08 1.28308e-08 -4.50506e-20 7.64723e-08 -5.18293e-21 6.199e-11)
(-7.13349e-08 1.04823e-08 8.55612e-20 7.15505e-08 1.02943e-20 -2.15644e-10)
(-6.44829e-08 5.94731e-09 -5.55051e-20 6.38009e-08 -7.18575e-21 6.82036e-10)
(-6.01427e-08 -3.48615e-09 -8.79579e-20 6.20192e-08 -1.05065e-20 -1.87652e-09)
(-4.5125e-08 -1.29063e-08 -0 4.04819e-08 1.92735e-22 4.64302e-09)
(-5.56135e-08 -2.32371e-08 -5.1327e-21 6.6193e-08 -3.35829e-22 -1.05796e-08)
(-1.66929e-08 -1.27875e-09 1.7651e-19 -5.84859e-09 2.20202e-20 2.25415e-08)
(-1.07323e-07 2.29256e-08 8.83913e-20 1.52058e-07 1.04046e-20 -4.47355e-08)
(2.60955e-08 9.28603e-08 5.80308e-21 -1.02159e-07 5.75351e-22 7.60634e-08)
(-2.02192e-07 8.28353e-08 -2.2655e-20 3.09347e-07 -2.55381e-21 -1.07156e-07)
(-1.97484e-07 -1.17636e-08 -5.87743e-21 1.97468e-07 -9.88495e-22 1.66711e-11)
(-1.89251e-07 -6.61488e-09 -3.17898e-20 1.89235e-07 -3.85975e-21 1.57567e-11)
(-1.80921e-07 -1.84744e-09 -5.67372e-20 1.80907e-07 -5.88758e-21 1.38677e-11)
(-1.72563e-07 2.61716e-09 2.00725e-20 1.72551e-07 2.58911e-21 1.13854e-11)
(-1.64204e-07 6.72269e-09 -5.17877e-21 1.64193e-07 -5.54497e-22 1.09018e-11)
(-1.55841e-07 1.02583e-08 2.59262e-20 1.55831e-07 3.36848e-21 9.42283e-12)
(-1.47443e-07 1.29695e-08 6.69692e-20 1.47434e-07 7.44957e-21 8.44586e-12)
(-1.39003e-07 1.46723e-08 3.69732e-22 1.38996e-07 -1.10704e-22 6.70774e-12)
(-1.3056e-07 1.53791e-08 3.956e-20 1.30554e-07 4.51275e-21 6.19366e-12)
(-1.22197e-07 1.5288e-08 -3.62579e-21 1.22185e-07 -5.81162e-22 1.18231e-11)
(-1.14073e-07 1.4697e-08 3.47333e-21 1.14092e-07 5.52962e-22 -1.86392e-11)
(-1.06143e-07 1.386e-08 3.5718e-20 1.06092e-07 4.09046e-21 5.0992e-11)
(-9.86244e-08 1.27784e-08 -1.23872e-20 9.86487e-08 -1.61429e-21 -2.43371e-11)
(-9.22358e-08 1.11067e-08 -6.22964e-21 9.22576e-08 -6.80441e-22 -2.17394e-11)
(-8.70083e-08 1.00583e-08 2.06695e-22 8.69628e-08 7.07645e-23 4.55092e-11)
(-8.19552e-08 9.4883e-09 -1.23353e-22 8.19815e-08 -1.00261e-23 -2.62805e-11)
(-7.67572e-08 8.56531e-09 -3.61221e-22 7.67011e-08 -2.12684e-22 5.6083e-11)
(-7.17657e-08 6.45592e-09 -4.66522e-20 7.19622e-08 -5.44008e-21 -1.96511e-10)
(-6.51533e-08 2.03737e-09 5.27883e-20 6.45176e-08 6.50101e-21 6.35677e-10)
(-6.07013e-08 -7.41785e-09 -3.51966e-22 6.24759e-08 -2.00815e-22 -1.77464e-09)
(-4.63855e-08 -1.61446e-08 -0 4.19312e-08 1.18696e-23 4.45431e-09)
(-5.61464e-08 -2.58642e-08 4.87305e-21 6.64383e-08 2.98013e-22 -1.02919e-08)
(-1.99575e-08 -5.36451e-10 -1.79913e-19 -2.30006e-09 -2.22419e-20 2.22575e-08)
(-1.078e-07 2.29477e-08 2.96235e-22 1.52635e-07 3.10479e-22 -4.48349e-08)
(2.20808e-08 9.49808e-08 -1.65046e-20 -9.91105e-08 -2.13023e-21 7.70297e-08)
(-2.00707e-07 7.73229e-08 -1.23906e-22 3.09875e-07 -9.04607e-24 -1.09168e-07)
(-2.3847e-07 -1.19133e-07 5.6407e-21 2.38453e-07 5.44353e-23 1.65825e-11)
(-2.36181e-07 -1.09825e-07 -3.55216e-20 2.36165e-07 -3.72102e-21 1.5947e-11)
(-2.33481e-07 -1.00514e-07 -7.10756e-22 2.3346e-07 7.93614e-22 2.0362e-11)
(-2.30379e-07 -9.12124e-08 3.22539e-20 2.30356e-07 2.91547e-21 2.26774e-11)
(-2.26878e-07 -8.19767e-08 -3.44358e-20 2.26857e-07 -3.90455e-21 2.0692e-11)
(-2.22973e-07 -7.28734e-08 6.28457e-21 2.22952e-07 1.10237e-21 2.10992e-11)
(-2.18666e-07 -6.39804e-08 2.43392e-21 2.18645e-07 1.22159e-22 2.08599e-11)
(-2.1395e-07 -5.54198e-08 -5.83991e-21 2.13929e-07 -2.27083e-22 2.09643e-11)
(-2.08824e-07 -4.73142e-08 4.08002e-20 2.08805e-07 4.96948e-21 1.86219e-11)
(-2.03282e-07 -3.97783e-08 5.7358e-20 2.03264e-07 5.78547e-21 1.78287e-11)
(-1.97338e-07 -3.28941e-08 4.2668e-21 1.97322e-07 6.21592e-23 1.63711e-11)
(-1.91023e-07 -2.66628e-08 1.508e-20 1.91007e-07 1.45821e-21 1.58285e-11)
(-1.84395e-07 -2.10072e-08 -1.6261e-20 1.84382e-07 -1.8975e-21 1.33797e-11)
(-1.77528e-07 -1.57894e-08 -1.8041e-22 1.77515e-07 7.56228e-22 1.26893e-11)
(-1.70503e-07 -1.0865e-08 8.55393e-20 1.70492e-07 9.41642e-21 1.15902e-11)
(-1.63382e-07 -6.18281e-09 1.17318e-22 1.63372e-07 -9.29216e-22 9.56173e-12)
(-1.56182e-07 -1.83392e-09 -4.86891e-20 1.56173e-07 -5.51506e-21 9.13701e-12)
(-1.48894e-07 1.95717e-09 -9.94762e-21 1.48886e-07 -1.07801e-21 7.92613e-12)
(-1.41488e-07 4.93231e-09 -4.57594e-20 1.41481e-07 -5.17026e-21 7.07477e-12)
(-1.33965e-07 6.93139e-09 -1.07599e-20 1.3396e-07 -9.66844e-22 5.39951e-12)
(-1.26369e-07 7.97837e-09 3.6689e-22 1.26364e-07 -1.38434e-22 5.1924e-12)
(-1.18789e-07 8.28533e-09 -5.6412e-20 1.18778e-07 -6.49706e-21 1.04703e-11)
(-1.11382e-07 8.1369e-09 -3.71466e-21 1.11402e-07 -2.30799e-22 -1.95205e-11)
(-1.04096e-07 7.74754e-09 -1.37225e-20 1.04045e-07 -1.58707e-21 5.05861e-11)
(-9.71411e-08 7.07489e-09 -1.0284e-22 9.71672e-08 6.17216e-23 -2.6146e-11)
(-9.12025e-08 5.82476e-09 5.93137e-21 9.12225e-08 4.77491e-22 -1.99797e-11)
(-8.63457e-08 5.18799e-09 -4.81111e-20 8.63017e-08 -5.53997e-21 4.40429e-11)
(-8.16314e-08 4.97925e-09 4.37368e-20 8.16565e-08 5.53719e-21 -2.50951e-11)
(-7.67543e-08 4.36338e-09 4.02292e-20 7.67061e-08 4.88405e-21 4.8272e-11)
(-7.19907e-08 2.45277e-09 7.31885e-20 7.21664e-08 8.40871e-21 -1.75713e-10)
(-6.56414e-08 -1.90935e-09 -8.51284e-20 6.50603e-08 -1.04683e-20 5.81122e-10)
(-6.10892e-08 -1.13624e-08 -1.45521e-22 6.27447e-08 1.9089e-22 -1.65554e-09)
(-4.75192e-08 -1.94492e-08 -0 4.32912e-08 -7.14062e-24 4.22802e-09)
(-5.65873e-08 -2.82863e-08 -4.59676e-21 6.6525e-08 -4.70005e-22 -9.93764e-09)
(-2.31307e-08 2.03388e-10 4.59484e-20 1.25764e-09 5.66601e-21 2.1873e-08)
(-1.08316e-07 2.3207e-08 1.97308e-20 1.5313e-07 2.31441e-21 -4.48142e-08)
(1.84887e-08 9.68618e-08 -1.93441e-20 -9.63503e-08 -2.52921e-21 7.78615e-08)
(-1.9952e-07 7.08363e-08 4.97996e-24 3.10552e-07 1.71593e-23 -1.11032e-07)
(-1.97088e-07 -1.4359e-07 3.86342e-21 2.32588e-07 5.11382e-22 -3.55003e-08)
(-1.76364e-07 -1.92845e-07 4.14081e-21 1.7445e-07 2.61656e-22 1.91405e-09)
(-1.57655e-07 -1.81092e-07 -2.21918e-22 1.433e-07 -1.03884e-22 1.43553e-08)
(-1.65875e-07 -1.81722e-07 8.90668e-22 1.69254e-07 1.21995e-22 -3.37893e-09)
(-1.59966e-07 -1.89479e-07 1.12532e-21 1.58674e-07 9.7389e-23 1.29186e-09)
(-1.62671e-07 -1.99983e-07 5.02552e-22 1.63168e-07 1.97981e-23 -4.96096e-10)
(-1.62048e-07 -2.08227e-07 2.64406e-22 1.6192e-07 -8.87489e-23 1.28077e-10)
(-1.62172e-07 -2.15514e-07 -3.95751e-21 1.62306e-07 -4.17819e-22 -1.33584e-10)
(-1.62024e-07 -2.22135e-07 -1.55857e-21 1.62016e-07 4.21436e-23 7.63264e-12)
(-1.62249e-07 -2.28003e-07 3.52436e-21 1.62308e-07 3.74003e-22 -5.93748e-11)
(-1.62585e-07 -2.33283e-07 -0 1.6262e-07 -9.93761e-23 -3.46049e-11)
(-1.63168e-07 -2.37834e-07 -1.87281e-22 1.63245e-07 1.6368e-22 -7.68331e-11)
(-1.63847e-07 -2.41699e-07 7.12564e-21 1.63892e-07 6.97762e-22 -4.41586e-11)
(-1.64702e-07 -2.44831e-07 2.1389e-22 1.64715e-07 3.10796e-23 -1.27734e-11)
(-1.65825e-07 -2.4727e-07 7.31178e-21 1.65904e-07 7.10829e-22 -7.85043e-11)
(-1.67018e-07 -2.49041e-07 4.43983e-22 1.67067e-07 -8.94552e-23 -4.89494e-11)
(-1.68399e-07 -2.5011e-07 1.4306e-21 1.6845e-07 2.39658e-22 -5.0397e-11)
(-1.69922e-07 -2.50537e-07 5.2714e-21 1.69964e-07 5.2465e-22 -4.22715e-11)
(-1.71599e-07 -2.50322e-07 2.54793e-21 1.71647e-07 2.83521e-22 -4.82729e-11)
(-1.73402e-07 -2.49518e-07 6.83568e-21 1.73454e-07 4.64745e-22 -5.17531e-11)
(-1.75321e-07 -2.4813e-07 -6.05075e-21 1.75376e-07 -9.18781e-22 -5.45402e-11)
(-1.77323e-07 -2.46209e-07 -8.69766e-21 1.7736e-07 -6.41489e-22 -3.72057e-11)
(-1.7944e-07 -2.43759e-07 2.90943e-21 1.79486e-07 4.18006e-22 -4.67414e-11)
(-1.81619e-07 -2.40843e-07 -2.08094e-21 1.81666e-07 -3.88749e-22 -4.75155e-11)
(-1.83851e-07 -2.37477e-07 -5.93561e-21 1.83898e-07 -6.48075e-22 -4.6852e-11)
(-1.86112e-07 -2.33693e-07 -5.06328e-21 1.8615e-07 -1.70607e-22 -3.84345e-11)
(-1.88404e-07 -2.29508e-07 1.00812e-20 1.88448e-07 1.01407e-21 -4.37632e-11)
(-1.90688e-07 -2.24979e-07 -3.40478e-21 1.90733e-07 -4.98139e-22 -4.44929e-11)
(-1.92945e-07 -2.20099e-07 1.2735e-21 1.92985e-07 1.03893e-22 -3.99115e-11)
(-1.95167e-07 -2.14904e-07 -4.41369e-21 1.95211e-07 -3.23379e-22 -4.40756e-11)
(-1.97321e-07 -2.09407e-07 6.97942e-21 1.97365e-07 8.40976e-22 -4.41236e-11)
(-1.99389e-07 -2.0363e-07 4.26577e-21 1.99434e-07 3.80579e-22 -4.46728e-11)
(-2.01346e-07 -1.97598e-07 5.0106e-21 2.01391e-07 6.34881e-22 -4.46992e-11)
(-2.03172e-07 -1.91308e-07 1.23053e-20 2.03218e-07 9.78033e-22 -4.54968e-11)
(-2.0484e-07 -1.84799e-07 -9.38785e-21 2.04884e-07 -1.22746e-21 -4.37699e-11)
(-2.06333e-07 -1.78067e-07 -5.1927e-21 2.06379e-07 -3.65823e-22 -4.60102e-11)
(-2.07614e-07 -1.71138e-07 4.39471e-22 2.07653e-07 3.45487e-23 -3.92737e-11)
(-2.0868e-07 -1.6402e-07 -6.02471e-21 2.08723e-07 -6.44664e-22 -4.31389e-11)
(-2.09485e-07 -1.56732e-07 -2.39746e-21 2.09518e-07 -3.04177e-22 -3.36206e-11)
(-2.10024e-07 -1.49272e-07 -9.55328e-21 2.10051e-07 -8.75473e-22 -2.69853e-11)
(-2.1028e-07 -1.41667e-07 3.3086e-21 2.10305e-07 5.43268e-22 -2.58109e-11)
(-2.10225e-07 -1.33914e-07 4.21081e-21 2.10246e-07 2.35531e-22 -2.05445e-11)
(-2.09848e-07 -1.26036e-07 -1.07207e-20 2.09861e-07 -1.04343e-21 -1.36214e-11)
(-2.09134e-07 -1.18023e-07 8.48941e-21 2.0914e-07 1.03307e-21 -5.46959e-12)
(-2.08082e-07 -1.09899e-07 -2.81374e-22 2.08086e-07 -1.71682e-22 -4.12651e-12)
(-2.06671e-07 -1.01681e-07 -8.12504e-27 2.0667e-07 -4.27466e-23 8.09756e-13)
(-2.04898e-07 -9.33963e-08 1.72804e-22 2.04892e-07 1.53747e-22 5.83274e-12)
(-2.0276e-07 -8.5092e-08 8.56535e-21 2.02754e-07 5.646e-22 5.68452e-12)
(-2.00237e-07 -7.68323e-08 -2.96117e-20 2.00228e-07 -3.21458e-21 8.81899e-12)
(-1.97323e-07 -6.871e-08 1.22168e-23 1.97311e-07 3.05701e-22 1.17688e-11)
(-1.94005e-07 -6.08387e-08 7.23285e-23 1.93994e-07 -1.09771e-22 1.06177e-11)
(-1.90265e-07 -5.33493e-08 -1.13228e-20 1.90254e-07 -1.19988e-21 1.10245e-11)
(-1.86097e-07 -4.63402e-08 4.26386e-22 1.86085e-07 1.85399e-22 1.19779e-11)
(-1.81509e-07 -3.9888e-08 -1.33334e-21 1.81498e-07 -1.24791e-22 1.05489e-11)
(-1.76526e-07 -3.39826e-08 4.37931e-23 1.76515e-07 -2.4816e-23 1.12456e-11)
(-1.71205e-07 -2.85376e-08 -6.31253e-21 1.71195e-07 -6.87357e-22 9.76653e-12)
(-1.65613e-07 -2.3416e-08 5.33976e-23 1.65604e-07 -2.29454e-22 9.40784e-12)
(-1.59822e-07 -1.84965e-08 -3.65293e-20 1.59813e-07 -4.00557e-21 8.8509e-12)
(-1.53881e-07 -1.37566e-08 9.17675e-24 1.53873e-07 5.44803e-22 7.57115e-12)
(-1.47798e-07 -9.31699e-09 4.09531e-20 1.47791e-07 4.55731e-21 7.30522e-12)
(-1.41558e-07 -5.41571e-09 -4.70061e-23 1.41551e-07 -1.63801e-23 6.24664e-12)
(-1.3513e-07 -2.30741e-09 4.37269e-20 1.35124e-07 4.91643e-21 5.7785e-12)
(-1.28519e-07 -1.32812e-10 -2.66436e-21 1.28515e-07 -7.38707e-22 4.4463e-12)
(-1.21775e-07 1.15161e-09 -3.63442e-20 1.21771e-07 -4.12777e-21 4.47056e-12)
(-1.14992e-07 1.76406e-09 -5.21045e-22 1.14983e-07 1.02753e-22 9.17223e-12)
(-1.08322e-07 1.97434e-09 -4.23634e-23 1.08342e-07 3.73552e-23 -1.94875e-11)
(-1.01701e-07 1.95294e-09 1.32717e-20 1.01651e-07 1.57917e-21 5.0371e-11)
(-9.53398e-08 1.62746e-09 1.1361e-20 9.53671e-08 1.2706e-21 -2.72446e-11)
(-8.98803e-08 7.56951e-10 1.10194e-22 8.98981e-08 -2.36078e-23 -1.77312e-11)
(-8.54176e-08 4.9738e-10 -3.34152e-22 8.53744e-08 -5.14172e-23 4.31429e-11)
(-8.10659e-08 6.10165e-10 2.18215e-22 8.10892e-08 -1.06882e-22 -2.32709e-11)
(-7.65329e-08 2.56928e-10 -3.81608e-20 7.64924e-08 -4.73367e-21 4.05291e-11)
(-7.2013e-08 -1.50367e-09 -5.90188e-20 7.21653e-08 -6.69532e-21 -1.52294e-10)
(-6.59456e-08 -5.87391e-09 8.40402e-20 6.54248e-08 1.03463e-20 5.20874e-10)
(-6.13071e-08 -1.53059e-08 4.04705e-20 6.28279e-08 4.66124e-21 -1.52081e-09)
(-4.85257e-08 -2.27964e-08 -0 4.45572e-08 -1.16429e-22 3.96851e-09)
(-5.69445e-08 -3.04895e-08 -1.33599e-20 6.64615e-08 -1.42199e-21 -9.51697e-09)
(-2.621e-08 9.80315e-10 1.19113e-19 4.82871e-09 1.45693e-20 2.13813e-08)
(-1.08884e-07 2.36448e-08 -9.16345e-20 1.53508e-07 -1.1272e-20 -4.46242e-08)
(1.53364e-08 9.85725e-08 4.82951e-21 -9.38466e-08 7.73503e-22 7.85101e-08)
(-1.98727e-07 6.3379e-08 4.87899e-24 3.11402e-07 -4.33905e-24 -1.12675e-07)
(-1.82899e-07 -1.60086e-07 -3.00611e-22 2.1634e-07 -1.98453e-23 -3.3441e-08)
(-1.35528e-07 -1.63841e-07 4.85486e-22 1.33655e-07 4.48214e-23 1.87315e-09)
(-1.22352e-07 -1.5707e-07 -5.60465e-22 1.114e-07 -6.86613e-23 1.09521e-08)
(-1.34901e-07 -1.66151e-07 -2.04942e-22 1.37513e-07 -7.41396e-24 -2.612e-09)
(-1.31814e-07 -1.7421e-07 1.55189e-24 1.30803e-07 6.41613e-24 1.01044e-09)
(-1.33146e-07 -1.81294e-07 4.45432e-25 1.33525e-07 -9.36064e-23 -3.78816e-10)
(-1.32412e-07 -1.87359e-07 -4.0007e-21 1.32291e-07 -3.45212e-22 1.21187e-10)
(-1.32538e-07 -1.93009e-07 1.61519e-21 1.32614e-07 2.49849e-22 -7.64122e-11)
(-1.32542e-07 -1.98166e-07 1.55447e-22 1.32547e-07 -8.52815e-23 -5.44929e-12)
(-1.32797e-07 -2.02814e-07 -2.56007e-21 1.32827e-07 -2.51763e-22 -3.03382e-11)
(-1.33172e-07 -2.06947e-07 -0 1.33194e-07 -5.42991e-23 -2.13368e-11)
(-1.3371e-07 -2.10522e-07 -4.87592e-21 1.33739e-07 -5.23618e-22 -2.95285e-11)
(-1.34382e-07 -2.13552e-07 -1.98366e-21 1.34406e-07 -8.12767e-23 -2.37884e-11)
(-1.35197e-07 -2.16034e-07 4.11647e-25 1.3521e-07 -6.27601e-23 -1.25434e-11)
(-1.36206e-07 -2.17971e-07 -4.99203e-21 1.36256e-07 -3.83683e-22 -4.98827e-11)
(-1.37294e-07 -2.19377e-07 4.54675e-21 1.37316e-07 6.51641e-22 -2.21584e-11)
(-1.38542e-07 -2.20245e-07 4.90062e-21 1.3856e-07 3.0403e-22 -1.75881e-11)
(-1.39951e-07 -2.20608e-07 -3.72684e-21 1.3999e-07 -5.21292e-22 -3.92565e-11)
(-1.41451e-07 -2.20491e-07 -3.02871e-21 1.41479e-07 -2.5585e-22 -2.76489e-11)
(-1.43084e-07 -2.19891e-07 -1.52509e-21 1.43114e-07 -9.43669e-23 -2.92939e-11)
(-1.44828e-07 -2.18849e-07 -8.50377e-22 1.44861e-07 9.88283e-23 -3.30391e-11)
(-1.46669e-07 -2.17378e-07 7.56533e-21 1.46702e-07 7.48255e-22 -3.27985e-11)
(-1.4859e-07 -2.15516e-07 5.21714e-24 1.48614e-07 -7.90607e-23 -2.41838e-11)
(-1.50608e-07 -2.13266e-07 3.28241e-21 1.50643e-07 3.96378e-22 -3.47891e-11)
(-1.52672e-07 -2.10675e-07 3.80973e-21 1.52698e-07 3.15121e-22 -2.63967e-11)
(-1.54796e-07 -2.07742e-07 4.84538e-22 1.54822e-07 -9.09275e-23 -2.62718e-11)
(-1.56962e-07 -2.04513e-07 -3.05522e-21 1.56992e-07 -3.27396e-22 -2.98763e-11)
(-1.59142e-07 -2.00987e-07 -1.63051e-21 1.59167e-07 -1.05507e-22 -2.46411e-11)
(-1.61332e-07 -1.97188e-07 4.12888e-24 1.61353e-07 4.37284e-23 -2.10682e-11)
(-1.63521e-07 -1.93128e-07 8.90267e-22 1.63543e-07 8.0099e-23 -2.21541e-11)
(-1.65681e-07 -1.88819e-07 2.33507e-23 1.657e-07 8.36262e-23 -1.8969e-11)
(-1.67803e-07 -1.84277e-07 6.11177e-21 1.67822e-07 6.15184e-22 -1.94204e-11)
(-1.69857e-07 -1.79515e-07 1.02637e-23 1.69869e-07 -9.42918e-23 -1.22265e-11)
(-1.71843e-07 -1.7453e-07 4.48359e-23 1.71857e-07 1.92686e-22 -1.45995e-11)
(-1.73726e-07 -1.69346e-07 1.05317e-20 1.73739e-07 1.10594e-21 -1.25815e-11)
(-1.75491e-07 -1.63957e-07 3.20566e-21 1.755e-07 6.98113e-23 -9.54359e-12)
(-1.77119e-07 -1.58381e-07 -5.85589e-21 1.77127e-07 -5.79987e-22 -7.99381e-12)
(-1.78591e-07 -1.52616e-07 3.79152e-21 1.786e-07 4.61404e-22 -9.38928e-12)
(-1.79882e-07 -1.46668e-07 -1.12503e-23 1.79891e-07 -1.21429e-22 -8.20148e-12)
(-1.80972e-07 -1.40547e-07 -4.51027e-21 1.80976e-07 -5.199e-22 -3.52578e-12)
(-1.81849e-07 -1.34245e-07 -3.99675e-21 1.81853e-07 -3.02964e-22 -3.08244e-12)
(-1.82494e-07 -1.27772e-07 3.60399e-21 1.825e-07 5.04626e-22 -5.59637e-12)
(-1.8288e-07 -1.21131e-07 5.78833e-21 1.8288e-07 5.71082e-22 -1.88107e-13)
(-1.83002e-07 -1.1431e-07 3.08215e-21 1.82999e-07 5.57791e-22 2.98783e-12)
(-1.82846e-07 -1.07338e-07 2.46056e-20 1.82844e-07 2.50693e-21 1.99594e-12)
(-1.82391e-07 -1.00206e-07 2.81565e-24 1.82384e-07 -3.094e-22 6.32034e-12)
(-1.81629e-07 -9.29561e-08 1.75718e-23 1.81621e-07 -7.03891e-23 7.73132e-12)
(-1.80544e-07 -8.56267e-08 -8.4746e-21 1.80535e-07 -6.67451e-22 8.95943e-12)
(-1.79115e-07 -7.82821e-08 1.85611e-20 1.79103e-07 2.01962e-21 1.14292e-11)
(-1.77324e-07 -7.10212e-08 3.14215e-22 1.77311e-07 -3.83729e-22 1.33779e-11)
(-1.75151e-07 -6.3951e-08 -2.25363e-20 1.75138e-07 -2.40033e-21 1.27864e-11)
(-1.72571e-07 -5.71925e-08 8.33305e-23 1.72557e-07 -3.41892e-23 1.38992e-11)
(-1.6957e-07 -5.08428e-08 -2.61147e-20 1.69555e-07 -2.78304e-21 1.54733e-11)
(-1.66156e-07 -4.49571e-08 1.2834e-21 1.66142e-07 4.39522e-22 1.37334e-11)
(-1.62347e-07 -3.95112e-08 8.529e-21 1.62332e-07 8.88445e-22 1.43455e-11)
(-1.58195e-07 -3.44099e-08 -5.01585e-21 1.58182e-07 -7.18135e-22 1.31592e-11)
(-1.53761e-07 -2.95223e-08 -1.44636e-20 1.53747e-07 -1.56098e-21 1.35643e-11)
(-1.49105e-07 -2.47448e-08 -3.20103e-22 1.49092e-07 3.45839e-23 1.2392e-11)
(-1.44262e-07 -2.00871e-08 8.57774e-24 1.44251e-07 -5.97682e-24 1.06874e-11)
(-1.39229e-07 -1.56953e-08 3.32706e-22 1.39219e-07 6.14834e-23 1.08692e-11)
(-1.33984e-07 -1.18174e-08 -3.16847e-23 1.33975e-07 -2.44486e-22 9.6717e-12)
(-1.28497e-07 -8.70022e-09 -4.15147e-20 1.28488e-07 -4.59939e-21 8.80446e-12)
(-1.22775e-07 -6.46359e-09 1.47773e-20 1.22768e-07 2.08945e-21 7.08291e-12)
(-1.16871e-07 -5.04128e-09 3.45143e-20 1.16864e-07 4.12871e-21 7.39118e-12)
(-1.10883e-07 -4.21585e-09 5.13542e-20 1.10872e-07 5.75095e-21 1.10778e-11)
(-1.04955e-07 -3.73161e-09 -1.16988e-22 1.04972e-07 -3.86216e-22 -1.71453e-11)
(-9.90095e-08 -3.46602e-09 -3.08736e-20 9.89574e-08 -3.63416e-21 5.21792e-11)
(-9.32587e-08 -3.5094e-09 -1.07676e-20 9.32854e-08 -1.20988e-21 -2.66603e-11)
(-8.82989e-08 -4.04548e-09 -1.99263e-20 8.8313e-08 -2.13606e-21 -1.40273e-11)
(-8.42466e-08 -3.96594e-09 3.10894e-20 8.42028e-08 3.72402e-21 4.38065e-11)
(-8.02761e-08 -3.57633e-09 -9.68158e-21 8.02966e-08 -1.14483e-21 -2.04463e-11)
(-7.61042e-08 -3.72044e-09 3.72501e-20 7.6071e-08 4.79474e-21 3.31341e-11)
(-7.18404e-08 -5.38619e-09 1.01951e-19 7.19678e-08 1.21855e-20 -1.27401e-10)
(-6.60667e-08 -9.83524e-09 4.64687e-20 6.56098e-08 5.28965e-21 4.5689e-10)
(-6.13583e-08 -1.92294e-08 1.64643e-22 6.27317e-08 -9.17417e-23 -1.37342e-09)
(-4.94056e-08 -2.61524e-08 -0 4.57312e-08 3.3139e-23 3.67441e-09)
(-5.72327e-08 -3.24649e-08 1.26428e-20 6.62561e-08 1.53445e-21 -9.02337e-09)
(-2.91966e-08 1.85129e-09 4.08872e-22 8.45276e-09 1.92853e-22 2.07438e-08)
(-1.09624e-07 2.41696e-08 8.69499e-20 1.53861e-07 1.05605e-20 -4.42371e-08)
(1.27268e-08 1.00211e-07 4.94238e-20 -9.15777e-08 6.25438e-21 7.88509e-08)
(-1.98633e-07 5.49239e-08 4.85305e-24 3.12571e-07 -4.41469e-23 -1.13939e-07)
(-1.36898e-07 -1.32821e-07 1.23889e-21 1.6239e-07 1.44938e-22 -2.54915e-08)
(-1.07797e-07 -1.46176e-07 1.3213e-21 1.05997e-07 1.08503e-22 1.79993e-09)
(-1.00469e-07 -1.4524e-07 -6.86831e-23 9.16287e-08 -5.31564e-23 8.83987e-09)
(-1.11558e-07 -1.53558e-07 -1.03012e-21 1.13682e-07 -9.94306e-23 -2.12474e-09)
(-1.08568e-07 -1.58803e-07 1.22151e-22 1.07793e-07 4.18882e-23 7.75268e-10)
(-1.09435e-07 -1.63823e-07 4.12229e-22 1.09765e-07 4.4352e-23 -3.29799e-10)
(-1.08987e-07 -1.68452e-07 -5.3224e-24 1.0896e-07 -1.10816e-23 2.65809e-11)
(-1.09129e-07 -1.72785e-07 1.5114e-24 1.09205e-07 -2.94678e-24 -7.59207e-11)
(-1.09288e-07 -1.76703e-07 -5.42643e-25 1.09364e-07 7.34222e-25 -7.61163e-11)
(-1.09563e-07 -1.80268e-07 -5.26193e-24 1.09634e-07 -3.36479e-24 -7.08689e-11)
(-1.09928e-07 -1.83391e-07 -0 1.09963e-07 2.55681e-24 -3.48966e-11)
(-1.10496e-07 -1.86101e-07 -8.38606e-24 1.10576e-07 -8.2709e-24 -8.05621e-11)
(-1.11132e-07 -1.88407e-07 5.30659e-25 1.11202e-07 -1.69832e-24 -7.01305e-11)
(-1.119e-07 -1.90279e-07 1.42274e-24 1.11969e-07 2.91585e-23 -6.86995e-11)
(-1.12792e-07 -1.91744e-07 1.16075e-21 1.1286e-07 8.95564e-23 -6.80962e-11)
(-1.13813e-07 -1.92782e-07 -9.67008e-22 1.13889e-07 -1.22099e-22 -7.58706e-11)
(-1.14915e-07 -1.93439e-07 9.49499e-24 1.14962e-07 2.99685e-23 -4.69577e-11)
(-1.16205e-07 -1.93677e-07 -1.02567e-23 1.16297e-07 5.8872e-24 -9.18379e-11)
(-1.1754e-07 -1.93576e-07 -9.26601e-24 1.17611e-07 1.64852e-23 -7.11488e-11)
(-1.1899e-07 -1.9308e-07 1.46757e-21 1.19052e-07 1.65874e-22 -6.19738e-11)
(-1.20553e-07 -1.92259e-07 7.92078e-22 1.20619e-07 4.61605e-23 -6.62088e-11)
(-1.22216e-07 -1.91099e-07 2.4976e-23 1.22295e-07 -9.14674e-24 -7.8912e-11)
(-1.23946e-07 -1.89646e-07 -8.35791e-25 1.24022e-07 3.44866e-24 -7.55775e-11)
(-1.2574e-07 -1.87893e-07 9.38509e-24 1.25798e-07 2.28293e-24 -5.89355e-11)
(-1.2763e-07 -1.85862e-07 6.89526e-24 1.27702e-07 -7.50951e-23 -7.23018e-11)
(-1.29563e-07 -1.83591e-07 -4.66975e-21 1.29634e-07 -4.62199e-22 -7.12014e-11)
(-1.31543e-07 -1.81068e-07 5.89227e-22 1.31611e-07 1.38466e-22 -6.84508e-11)
(-1.33559e-07 -1.78321e-07 -6.41083e-24 1.33623e-07 -1.29465e-23 -6.45631e-11)
(-1.35605e-07 -1.75355e-07 -6.22092e-23 1.3567e-07 -2.18844e-23 -6.47055e-11)
(-1.37666e-07 -1.72181e-07 -8.61096e-22 1.3773e-07 -9.14068e-23 -6.38003e-11)
(-1.39728e-07 -1.6881e-07 3.00072e-24 1.39789e-07 1.86266e-24 -6.15858e-11)
(-1.41781e-07 -1.6525e-07 2.30719e-23 1.41844e-07 6.2517e-23 -6.25086e-11)
(-1.43801e-07 -1.61508e-07 3.39425e-21 1.43855e-07 3.49647e-22 -5.43692e-11)
(-1.45789e-07 -1.57581e-07 5.5195e-24 1.45842e-07 -3.74263e-23 -5.31792e-11)
(-1.47724e-07 -1.5348e-07 3.06455e-23 1.47778e-07 -2.81476e-23 -5.39285e-11)
(-1.49582e-07 -1.4921e-07 -3.05904e-21 1.49631e-07 -2.26952e-22 -4.87593e-11)
(-1.51354e-07 -1.44766e-07 5.56005e-21 1.51399e-07 5.55843e-22 -4.50491e-11)
(-1.53023e-07 -1.4015e-07 -3.62846e-21 1.53066e-07 -4.46046e-22 -4.25228e-11)
(-1.54573e-07 -1.3536e-07 -2.23635e-24 1.54615e-07 9.9327e-23 -4.19615e-11)
(-1.55978e-07 -1.30395e-07 4.25914e-21 1.56014e-07 4.81148e-22 -3.53911e-11)
(-1.57233e-07 -1.25247e-07 3.78792e-21 1.57268e-07 3.28599e-22 -3.41264e-11)
(-1.58317e-07 -1.1992e-07 2.33532e-23 1.5835e-07 -3.69687e-23 -3.3419e-11)
(-1.59206e-07 -1.14396e-07 1.718e-23 1.59233e-07 -3.75198e-23 -2.68022e-11)
(-1.599e-07 -1.08679e-07 -2.82934e-21 1.59928e-07 -4.27287e-22 -2.82216e-11)
(-1.6037e-07 -1.02777e-07 -1.24999e-20 1.60396e-07 -1.25925e-21 -2.56145e-11)
(-1.60603e-07 -9.66826e-08 2.47636e-24 1.60623e-07 1.19277e-22 -2.00586e-11)
(-1.60587e-07 -9.04388e-08 1.55139e-23 1.60608e-07 2.62163e-23 -2.02041e-11)
(-1.60298e-07 -8.40758e-08 -7.29455e-23 1.60316e-07 -5.25363e-23 -1.78356e-11)
(-1.59711e-07 -7.76674e-08 -4.70226e-21 1.59726e-07 -5.10748e-22 -1.51813e-11)
(-1.58803e-07 -7.13009e-08 -2.95489e-22 1.58817e-07 2.40176e-23 -1.37202e-11)
(-1.57543e-07 -6.50863e-08 -1.73595e-22 1.57554e-07 5.23807e-23 -1.11539e-11)
(-1.55907e-07 -5.91279e-08 1.03513e-20 1.55916e-07 1.07042e-21 -9.23574e-12)
(-1.53878e-07 -5.35172e-08 -3.95605e-21 1.53886e-07 -5.16761e-22 -7.86562e-12)
(-1.51455e-07 -4.82872e-08 -1.46955e-23 1.51462e-07 -4.13197e-23 -7.20526e-12)
(-1.48656e-07 -4.33901e-08 -8.06262e-21 1.48661e-07 -7.85066e-22 -4.40301e-12)
(-1.4553e-07 -3.87327e-08 1.0295e-20 1.45534e-07 1.29098e-21 -4.38899e-12)
(-1.42127e-07 -3.41841e-08 1.36235e-20 1.4213e-07 1.65485e-21 -3.128e-12)
(-1.38494e-07 -2.96605e-08 3.70728e-20 1.38496e-07 3.99719e-21 -1.99051e-12)
(-1.34653e-07 -2.52035e-08 -1.02795e-22 1.34655e-07 -4.59456e-22 -1.93113e-12)
(-1.30592e-07 -2.09814e-08 -3.30692e-20 1.30592e-07 -3.6485e-21 -6.66155e-13)
(-1.26277e-07 -1.72453e-08 8.77631e-21 1.26277e-07 1.18539e-21 -6.8271e-13)
(-1.21679e-07 -1.42324e-08 -3.46244e-22 1.21679e-07 -2.1347e-22 -4.51334e-13)
(-1.16808e-07 -1.20391e-08 -1.85526e-20 1.16807e-07 -2.33794e-21 5.2034e-13)
(-1.11723e-07 -1.05688e-08 -4.77608e-20 1.11722e-07 -5.53186e-21 6.74299e-13)
(-1.06516e-07 -9.62357e-09 -4.39647e-20 1.06512e-07 -4.71644e-21 4.70818e-12)
(-1.01323e-07 -8.94352e-09 2.42346e-20 1.01342e-07 2.97965e-21 -1.96026e-11)
(-9.6055e-08 -8.47523e-09 -1.9705e-21 9.60065e-08 -3.02285e-22 4.84939e-11)
(-9.09278e-08 -8.2996e-09 1.02393e-20 9.09584e-08 1.17953e-21 -3.06428e-11)
(-8.64815e-08 -8.54479e-09 -2.87235e-21 8.64947e-08 -3.75833e-22 -1.31574e-11)
(-8.28506e-08 -8.16964e-09 1.15364e-22 8.28075e-08 3.34162e-23 4.31274e-11)
(-7.9278e-08 -7.55345e-09 2.39423e-23 7.92984e-08 -1.48389e-22 -2.03623e-11)
(-7.54792e-08 -7.54543e-09 -4.23621e-20 7.54541e-08 -5.17096e-21 2.51087e-11)
(-7.14801e-08 -9.17877e-09 -4.01514e-20 7.15829e-08 -4.65325e-21 -1.02761e-10)
(-6.60107e-08 -1.37782e-08 2.19781e-22 6.56207e-08 1.46897e-22 3.89957e-10)
(-6.12512e-08 -2.31242e-08 1.86436e-23 6.24655e-08 5.98205e-24 -1.21432e-09)
(-5.01693e-08 -2.94822e-08 -0 4.68194e-08 -1.75032e-23 3.34981e-09)
(-5.74746e-08 -3.42287e-08 -1.24317e-20 6.59151e-08 -1.53532e-21 -8.4405e-09)
(-3.20934e-08 2.93445e-09 1.56034e-22 1.21597e-08 -5.78171e-23 1.99336e-08)
(-1.10478e-07 2.46257e-08 -5.22388e-20 1.54014e-07 -6.35395e-21 -4.3536e-08)
(1.08411e-08 1.01994e-07 -4.69111e-20 -8.96955e-08 -5.95585e-21 7.88544e-08)
(-1.99116e-07 4.56751e-08 6.36899e-22 3.14017e-07 1.61125e-22 -1.14901e-07)
(-1.11669e-07 -1.21677e-07 -1.15857e-21 1.32673e-07 -1.17659e-22 -2.10036e-08)
(-8.91368e-08 -1.3573e-07 2.53167e-24 8.72099e-08 3.07744e-23 1.92691e-09)
(-8.36249e-08 -1.34502e-07 -3.00128e-25 7.62771e-08 2.41249e-23 7.34781e-09)
(-9.24508e-08 -1.40359e-07 9.81741e-22 9.40479e-08 9.33169e-23 -1.59718e-09)
(-8.99282e-08 -1.43918e-07 -1.15424e-22 8.91817e-08 -3.80482e-23 7.46482e-10)
(-9.07453e-08 -1.47707e-07 -3.91701e-22 9.08884e-08 -3.14477e-23 -1.43136e-10)
(-9.05054e-08 -1.51178e-07 -1.26011e-24 9.03685e-08 5.51183e-24 1.36847e-10)
(-9.07205e-08 -1.54402e-07 -8.58303e-26 9.06685e-08 4.4213e-24 5.19895e-11)
(-9.09182e-08 -1.57319e-07 3.9467e-22 9.08399e-08 8.30441e-23 7.8357e-11)
(-9.1254e-08 -1.59941e-07 2.38462e-21 9.11901e-08 2.3055e-22 6.38123e-11)
(-9.16474e-08 -1.62255e-07 -0 9.15584e-08 -1.57433e-23 8.89848e-11)
(-9.21898e-08 -1.64251e-07 1.28533e-21 9.21236e-08 9.09531e-23 6.6208e-11)
(-9.28078e-08 -1.65936e-07 -1.85518e-21 9.27382e-08 -2.35063e-22 6.95703e-11)
(-9.35235e-08 -1.67302e-07 -1.49034e-21 9.34469e-08 -7.60769e-23 7.6584e-11)
(-9.4353e-08 -1.6835e-07 2.31495e-21 9.42811e-08 2.7033e-22 7.19707e-11)
(-9.52876e-08 -1.69091e-07 9.29024e-22 9.52249e-08 5.21009e-23 6.27407e-11)
(-9.62888e-08 -1.69533e-07 1.97308e-24 9.62028e-08 4.95307e-23 8.59521e-11)
(-9.74353e-08 -1.6967e-07 3.39519e-21 9.73751e-08 3.93346e-22 6.01663e-11)
(-9.86453e-08 -1.69532e-07 2.74183e-21 9.858e-08 1.91403e-22 6.53857e-11)