/*--------------------------------*- C++ -*----------------------------------*\
| =========                 |                                                 |
| \\      /  F ield         | OpenFOAM: The Open Source CFD Toolbox           |
|  \\    /   O peration     | Version:  2306                                  |
|   \\  /    A nd           | Website:  www.openfoam.com                      |
|    \\/     M anipulation  |                                                 |
\*---------------------------------------------------------------------------*/
FoamFile
{
    version     2.0;
    format      ascii;
    arch        "LSB;label=32;scalar=64";
    class       volScalarField;
    location    "875";
    object      turbulenceProperties:epsilon;
}
// * * * * * * * * * * * * * * * * * * * * * * * * * * * * * * * * * * * * * //

dimensions      [0 2 -3 0 0 0 0];

internalField   nonuniform List<scalar> 
1340
(
3.77902e-10
1.46189e-09
1.88299e-11
3.1628e-10
3.75597e-10
1.46625e-09
2.28792e-11
5.91617e-11
1.80857e-11
3.18671e-10
3.75886e-10
1.46769e-09
7.82578e-11
6.06482e-11
5.33825e-11
2.51696e-11
6.19326e-11
1.76537e-11
3.21259e-10
3.77976e-10
1.4676e-09
1.59971e-10
1.37408e-10
1.20224e-10
1.05262e-10
9.07253e-11
7.80171e-11
6.12457e-11
5.4628e-11
2.77477e-11
6.46597e-11
1.74823e-11
3.23957e-10
3.81279e-10
1.46684e-09
3.15057e-10
2.76912e-10
2.41283e-10
2.08918e-10
1.79443e-10
1.5377e-10
1.33104e-10
1.17326e-10
1.03442e-10
8.98375e-11
7.7852e-11
6.19881e-11
5.60412e-11
3.05976e-11
6.72708e-11
1.75448e-11
3.26531e-10
3.85316e-10
1.46562e-09
5.83533e-10
5.34586e-10
4.87969e-10
4.4395e-10
4.02555e-10
3.63568e-10
3.26573e-10
2.91277e-10
2.57709e-10
2.26182e-10
1.97383e-10
1.70899e-10
1.47642e-10
1.28862e-10
1.14465e-10
1.0165e-10
8.89943e-11
7.7738e-11
6.28593e-11
5.76037e-11
3.3709e-11
6.97095e-11
1.7823e-11
3.28931e-10
3.89705e-10
1.46339e-09
1.06035e-09
1.01229e-09
9.64082e-10
9.15951e-10
8.68172e-10
8.20895e-10
7.74324e-10
7.286e-10
6.83811e-10
6.39908e-10
5.96876e-10
5.54702e-10
5.13523e-10
4.73549e-10
4.35104e-10
3.98445e-10
3.63624e-10
3.30507e-10
2.9879e-10
2.68293e-10
2.39083e-10
2.11479e-10
1.86106e-10
1.62513e-10
1.41626e-10
1.247e-10
1.11648e-10
9.98874e-11
8.81885e-11
7.76699e-11
6.38557e-11
5.93074e-11
3.70725e-11
7.19154e-11
1.83066e-11
3.31064e-10
3.93873e-10
1.46086e-09
1.02093e-09
1.0594e-09
8.59737e-10
9.1046e-10
9.10213e-10
9.94119e-10
1.04106e-09
1.08838e-09
1.13037e-09
1.17079e-09
1.2086e-09
1.24344e-09
1.27422e-09
1.30096e-09
1.32447e-09
1.34334e-09
1.35812e-09
1.36889e-09
1.37577e-09
1.37899e-09
1.37861e-09
1.37487e-09
1.3682e-09
1.35881e-09
1.34691e-09
1.33273e-09
1.31659e-09
1.29876e-09
1.27922e-09
1.25835e-09
1.23613e-09
1.21273e-09
1.18828e-09
1.16276e-09
1.13634e-09
1.10901e-09
1.08074e-09
1.05173e-09
1.02179e-09
9.91026e-10
9.59559e-10
9.2727e-10
8.94272e-10
8.60558e-10
8.26331e-10
7.91602e-10
7.56547e-10
7.21394e-10
6.86234e-10
6.5127e-10
6.16657e-10
5.8242e-10
5.48548e-10
5.15046e-10
4.81875e-10
4.49157e-10
4.17059e-10
3.85853e-10
3.55769e-10
3.26887e-10
2.99133e-10
2.72293e-10
2.46271e-10
2.21163e-10
1.97273e-10
1.75152e-10
1.54331e-10
1.3575e-10
1.20629e-10
1.08876e-10
9.81499e-11
8.74106e-11
7.76401e-11
6.49733e-11
6.11483e-11
4.06789e-11
7.38484e-11
1.89829e-11
3.32697e-10
3.97592e-10
1.45843e-09
1.0681e-09
6.81862e-10
5.75489e-10
6.86489e-10
7.11267e-10
7.57787e-10
7.87001e-10
8.19814e-10
8.49656e-10
8.7845e-10
9.0514e-10
9.29497e-10
9.51279e-10
9.7038e-10
9.87025e-10
1.00052e-09
1.01128e-09
1.01951e-09
1.02497e-09
1.02792e-09
1.02855e-09
1.02695e-09
1.02333e-09
1.01794e-09
1.01084e-09
1.00225e-09
9.92445e-10
9.81357e-10
9.6922e-10
9.56162e-10
9.4218e-10
9.27426e-10
9.11876e-10
8.9564e-10
8.78713e-10
8.61063e-10
8.42766e-10
8.23794e-10
8.04093e-10
7.83676e-10
7.62541e-10
7.40706e-10
7.18089e-10
6.94745e-10
6.70805e-10
6.46194e-10
6.21126e-10
5.95704e-10
5.70043e-10
5.44315e-10
5.18623e-10
4.92984e-10
4.67394e-10
4.41844e-10
4.16271e-10
3.90759e-10
3.6543e-10
3.40513e-10
3.16208e-10
2.926e-10
2.69668e-10
2.47275e-10
2.25374e-10
2.04073e-10
1.83653e-10
1.6459e-10
1.46396e-10
1.30041e-10
1.16658e-10
1.06144e-10
9.64323e-11
8.6651e-11
7.76456e-11
6.62063e-11
6.31225e-11
4.45066e-11
7.54779e-11
1.9814e-11
3.34118e-10
4.00417e-10
1.45715e-09
6.23609e-10
4.88196e-10
4.54467e-10
5.42214e-10
5.52496e-10
5.81012e-10
6.01781e-10
6.24418e-10
6.45316e-10
6.65162e-10
6.83207e-10
7.00048e-10
7.14978e-10
7.28073e-10
7.3937e-10
7.48758e-10
7.56218e-10
7.62087e-10
7.66092e-10
7.68309e-10
7.69151e-10
7.68539e-10
7.66617e-10
7.63373e-10
7.59203e-10
7.54084e-10
7.48047e-10
7.41264e-10
7.33812e-10
7.25739e-10
7.17095e-10
7.07958e-10
6.98281e-10
6.88147e-10
6.77566e-10
6.66485e-10
6.54913e-10
6.42833e-10
6.3022e-10
6.16998e-10
6.03193e-10
5.88771e-10
5.73624e-10
5.57873e-10
5.41464e-10
5.24402e-10
5.06872e-10
4.88889e-10
4.70593e-10
4.52102e-10
4.3348e-10
4.14751e-10
3.95906e-10
3.76885e-10
3.57614e-10
3.38153e-10
3.18573e-10
2.99038e-10
2.7974e-10
2.60775e-10
2.42141e-10
2.2376e-10
2.05613e-10
1.87827e-10
1.70626e-10
1.54407e-10
1.38703e-10
1.24487e-10
1.12765e-10
1.03429e-10
9.47184e-11
8.58928e-11
7.76767e-11
6.75565e-11
6.52344e-11
4.85323e-11
7.68044e-11
2.0805e-11
3.34425e-10
4.02985e-10
1.45796e-09
4.56463e-10
3.91216e-10
3.67926e-10
4.24916e-10
4.29667e-10
4.49432e-10
4.63864e-10
4.79235e-10
4.93284e-10
5.06604e-10
5.1874e-10
5.29958e-10
5.39936e-10
5.48681e-10
5.56236e-10
5.62597e-10
5.67638e-10
5.71658e-10
5.74475e-10
5.76158e-10
5.76962e-10
5.76841e-10
5.75828e-10
5.74033e-10
5.71731e-10
5.68667e-10
5.65102e-10
5.61136e-10
5.56666e-10
5.5185e-10
5.46659e-10
5.41203e-10
5.35356e-10
5.29267e-10
5.22862e-10
5.16113e-10
5.09044e-10
5.01607e-10
4.93743e-10
4.85453e-10
4.76679e-10
4.67374e-10
4.57515e-10
4.47104e-10
4.36086e-10
4.24543e-10
4.12529e-10
4.00087e-10
3.87346e-10
3.74367e-10
3.61214e-10
3.47885e-10
3.34372e-10
3.20541e-10
3.06365e-10
2.91846e-10
2.76966e-10
2.61934e-10
2.46878e-10
2.31869e-10
2.16976e-10
2.02137e-10
1.87329e-10
1.72699e-10
1.58414e-10
1.44787e-10
1.31389e-10
1.19179e-10
1.09018e-10
1.00787e-10
9.30431e-11
8.51555e-11
7.77565e-11
6.90255e-11
6.74874e-11
5.26615e-11
7.78611e-11
2.17599e-11
3.34073e-10
4.04047e-10
1.465e-09
3.58324e-10
3.07497e-10
2.87282e-10
3.25775e-10
3.28825e-10
3.42227e-10
3.51746e-10
3.61849e-10
3.70876e-10
3.7964e-10
3.87553e-10
3.94781e-10
4.0134e-10
4.06971e-10
4.11931e-10
4.162e-10
4.19565e-10
4.22226e-10
4.24257e-10
4.25577e-10
4.26344e-10
4.26513e-10
4.26159e-10
4.25415e-10
4.24238e-10
4.22654e-10
4.20898e-10
4.18794e-10
4.16373e-10
4.13747e-10
4.11073e-10
4.08107e-10
4.05012e-10
4.01633e-10
3.98131e-10
3.94615e-10
3.90597e-10
3.86421e-10
3.82e-10
3.77268e-10
3.72071e-10
3.66555e-10
3.6056e-10
3.54037e-10
3.47157e-10
3.39724e-10
3.31919e-10
3.23794e-10
3.15329e-10
3.06721e-10
2.979e-10
2.88883e-10
2.79698e-10
2.70118e-10
2.60115e-10
2.49731e-10
2.38838e-10
2.27618e-10
2.1626e-10
2.04724e-10
1.93151e-10
1.81534e-10
1.69785e-10
1.58066e-10
1.46503e-10
1.35334e-10
1.24133e-10
1.13869e-10
1.05221e-10
9.80792e-11
9.12991e-11
8.43731e-11
7.78724e-11
7.06357e-11
6.99604e-11
5.70183e-11
7.86289e-11
2.36175e-11
3.29913e-10
4.08259e-10
1.47289e-09
2.62451e-10
2.25008e-10
2.09455e-10
2.34696e-10
2.35744e-10
2.44092e-10
2.49433e-10
2.54838e-10
2.60602e-10
2.65259e-10
2.69691e-10
2.74251e-10
2.77825e-10
2.80915e-10
2.84058e-10
2.86766e-10
2.88437e-10
2.90394e-10
2.91756e-10
2.92746e-10
2.93591e-10
2.93815e-10
2.94138e-10
2.94225e-10
2.9387e-10
2.93536e-10
2.93094e-10
2.92472e-10
2.91757e-10
2.90783e-10
2.90059e-10
2.89181e-10
2.88117e-10
2.8683e-10
2.85841e-10
2.84663e-10
2.83119e-10
2.81512e-10
2.79835e-10
2.7792e-10
2.75587e-10
2.73195e-10
2.70188e-10
2.66961e-10
2.63513e-10
2.59437e-10
2.55238e-10
2.50822e-10
2.46006e-10
2.41231e-10
2.36234e-10
2.31009e-10
2.2574e-10
2.19989e-10
2.13781e-10
2.07189e-10
2.00062e-10
1.92431e-10
1.84606e-10
1.76509e-10
1.68241e-10
1.59852e-10
1.51221e-10
1.42508e-10
1.33762e-10
1.25138e-10
1.16266e-10
1.08096e-10
1.01048e-10
9.50623e-11
8.93561e-11
8.3529e-11
7.8089e-11
7.26761e-11
7.28024e-11
6.23646e-11
7.79942e-11
2.74589e-11
3.17526e-10
4.00827e-10
1.37589e-09
1.76834e-10
1.55021e-10
1.45429e-10
1.59606e-10
1.59694e-10
1.64185e-10
1.66461e-10
1.69152e-10
1.72144e-10
1.74188e-10
1.765e-10
1.78873e-10
1.80508e-10
1.82038e-10
1.8391e-10
1.85301e-10
1.86119e-10
1.87498e-10
1.88188e-10
1.89069e-10
1.89867e-10
1.90043e-10
1.90712e-10
1.9131e-10
1.91408e-10
1.91806e-10
1.92029e-10
1.92295e-10
1.92655e-10
1.92777e-10
1.93031e-10
1.93419e-10
1.93551e-10
1.9368e-10
1.94137e-10
1.94251e-10
1.94336e-10
1.94394e-10
1.94406e-10
1.942e-10
1.93868e-10
1.93357e-10
1.92484e-10
1.91625e-10
1.9036e-10
1.88856e-10
1.87323e-10
1.8559e-10
1.83674e-10
1.81801e-10
1.79852e-10
1.77693e-10
1.75503e-10
1.72907e-10
1.69895e-10
1.66466e-10
1.62535e-10
1.58122e-10
1.53462e-10
1.48522e-10
1.4337e-10
1.38024e-10
1.32412e-10
1.26611e-10
1.20606e-10
1.1451e-10
1.08016e-10
1.0197e-10
9.65498e-11
9.17785e-11
8.72364e-11
8.26436e-11
7.85013e-11
7.51832e-11
7.6224e-11
6.83344e-11
7.68937e-11
3.19934e-11
3.16965e-10
3.94408e-10
1.37235e-09
1.17974e-10
1.04781e-10
9.83379e-11
1.06532e-10
1.06348e-10
1.0827e-10
1.09424e-10
1.11038e-10
1.11871e-10
1.13124e-10
1.14453e-10
1.15349e-10
1.16194e-10
1.17114e-10
1.18171e-10
1.18711e-10
1.19493e-10
1.20255e-10
1.20649e-10
1.21458e-10
1.22106e-10
1.22387e-10
1.23071e-10
1.23687e-10
1.24027e-10
1.24788e-10
1.25265e-10
1.25806e-10
1.26561e-10
1.27179e-10
1.278e-10
1.2867e-10
1.29325e-10
1.30069e-10
1.31021e-10
1.31736e-10
1.32511e-10
1.33325e-10
1.34048e-10
1.34647e-10
1.35263e-10
1.35658e-10
1.35994e-10
1.36272e-10
1.36248e-10
1.36259e-10
1.36239e-10
1.3611e-10
1.35992e-10
1.35894e-10
1.35856e-10
1.35683e-10
1.35416e-10
1.34944e-10
1.34057e-10
1.32817e-10
1.31172e-10
1.29111e-10
1.26859e-10
1.24354e-10
1.21648e-10
1.18772e-10
1.15627e-10
1.12217e-10
1.08545e-10
1.04632e-10
1.00249e-10
9.61123e-11
9.21734e-11
8.85609e-11
8.51868e-11
8.18624e-11
7.91768e-11
7.80104e-11
8.01193e-11
7.42805e-11
7.64481e-11
3.68618e-11
3.22859e-10
3.74386e-10
1.37156e-09
7.85345e-11
6.28533e-11
6.9575e-11
6.45067e-11
7.02416e-11
6.94939e-11
7.04157e-11
7.11922e-11
7.19136e-11
7.22708e-11
7.29258e-11
7.36601e-11
7.41702e-11
7.45965e-11
7.52228e-11
7.58828e-11
7.61589e-11
7.68284e-11
7.7337e-11
7.77507e-11
7.84198e-11
7.8873e-11
7.94206e-11
7.99858e-11
8.05841e-11
8.11755e-11
8.18943e-11
8.25561e-11
8.32115e-11
8.4084e-11
8.4877e-11
8.56527e-11
8.66837e-11
8.7525e-11
8.85031e-11
8.96169e-11
9.05357e-11
9.15991e-11
9.26761e-11
9.36555e-11
9.46544e-11
9.56137e-11
9.64938e-11
9.73701e-11
9.81459e-11
9.88934e-11
9.96483e-11
1.00422e-10
1.01228e-10
1.0209e-10
1.02999e-10
1.04006e-10
1.0495e-10
1.05798e-10
1.06536e-10
1.06916e-10
1.07036e-10
1.06864e-10
1.06365e-10
1.05749e-10
1.04966e-10
1.04017e-10
1.02943e-10
1.01623e-10
1.00033e-10
9.81739e-11
9.60082e-11
9.3361e-11
9.0813e-11
8.81415e-11
8.55791e-11
8.33262e-11
8.12678e-11
8.01427e-11
8.11121e-11
8.42999e-11
7.99123e-11
7.65149e-11
4.32947e-11
3.32171e-10
3.49433e-10
1.36994e-09
5.1497e-11
4.09421e-11
4.51263e-11
4.1552e-11
4.54833e-11
4.47908e-11
4.54431e-11
4.56779e-11
4.61277e-11
4.64593e-11
4.66757e-11
4.71332e-11
4.74743e-11
4.78582e-11
4.82292e-11
4.86119e-11
4.89408e-11
4.94374e-11
4.98841e-11
5.0267e-11
5.07453e-11
5.1193e-11
5.1824e-11
5.22844e-11
5.28862e-11
5.34947e-11
5.41271e-11
5.48927e-11
5.5544e-11
5.63766e-11
5.71748e-11
5.80424e-11
5.9007e-11
5.98981e-11
6.0913e-11
6.19972e-11
6.30185e-11
6.40809e-11
6.52307e-11
6.63157e-11
6.74287e-11
6.85543e-11
6.96211e-11
7.07412e-11
7.18353e-11
7.29673e-11
7.41286e-11
7.53386e-11
7.66699e-11
7.80758e-11
7.95234e-11
8.1085e-11
8.26349e-11
8.4092e-11
8.5508e-11
8.66437e-11
8.75906e-11
8.83616e-11
8.89197e-11
8.94198e-11
8.98252e-11
9.01291e-11
9.03353e-11
9.03576e-11
9.01303e-11
8.96478e-11
8.88632e-11
8.7625e-11
8.63789e-11
8.47837e-11
8.3175e-11
8.19702e-11
8.11544e-11
8.16419e-11
8.46723e-11
8.88255e-11
8.53308e-11
7.74811e-11
5.2781e-11
3.45163e-10
3.21332e-10
1.37032e-09
3.2828e-11
2.60282e-11
2.84656e-11
2.61335e-11
2.87067e-11
2.83283e-11
2.87249e-11
2.89091e-11
2.92731e-11
2.93855e-11
2.96403e-11
3.00107e-11
3.02225e-11
3.05599e-11
3.08778e-11
3.1142e-11
3.15318e-11
3.1914e-11
3.23193e-11
3.26557e-11
3.31052e-11
3.36027e-11
3.40587e-11
3.45628e-11
3.51477e-11
3.56511e-11
3.63097e-11
3.70046e-11
3.75955e-11
3.83751e-11
3.91107e-11
3.99404e-11
4.07994e-11
4.16151e-11
4.25662e-11
4.35757e-11
4.44906e-11
4.5508e-11
4.65929e-11
4.76224e-11
4.86982e-11
4.98526e-11
5.09315e-11
5.2091e-11
5.33345e-11
5.45628e-11
5.59018e-11
5.72955e-11
5.8829e-11
6.04339e-11
6.20949e-11
6.38892e-11
6.56596e-11
6.73932e-11
6.91287e-11
7.06728e-11
7.21079e-11
7.34726e-11
7.47317e-11
7.59864e-11
7.71963e-11
7.83802e-11
7.95115e-11
8.04933e-11
8.12923e-11
8.18686e-11
8.21695e-11
8.20718e-11
8.18716e-11
8.11924e-11
8.04862e-11
8.032e-11
8.077e-11
8.29256e-11
8.78469e-11
9.25708e-11
8.92388e-11
7.83424e-11
6.49201e-11
3.61697e-10
2.88357e-10
1.37818e-09
2.30355e-11
1.84945e-11
2.02211e-11
1.85207e-11
2.039e-11
2.01078e-11
2.02767e-11
2.0527e-11
2.07152e-11
2.07802e-11
2.10102e-11
2.12493e-11
2.14119e-11
2.16117e-11
2.18859e-11
2.20825e-11
2.23973e-11
2.26913e-11
2.29433e-11
2.32456e-11
2.36312e-11
2.40234e-11
2.43407e-11
2.47445e-11
2.52798e-11
2.56615e-11
2.61866e-11
2.67543e-11
2.72765e-11
2.7891e-11
2.85334e-11
2.92176e-11
2.99417e-11
3.06632e-11
3.14903e-11
3.23488e-11
3.31722e-11
3.41172e-11
3.50858e-11
3.6081e-11
3.70858e-11
3.82231e-11
3.9326e-11
4.0516e-11
4.18074e-11
4.3083e-11
4.45294e-11
4.59963e-11
4.75848e-11
4.92566e-11
5.09942e-11
5.28326e-11
5.46684e-11
5.65457e-11
5.84121e-11
6.02017e-11
6.19672e-11
6.37144e-11
6.5436e-11
6.71961e-11
6.89426e-11
7.07152e-11
7.24744e-11
7.41166e-11
7.56685e-11
7.70373e-11
7.81667e-11
7.898e-11
7.96608e-11
7.98017e-11
7.98695e-11
8.05495e-11
8.20489e-11
8.56476e-11
9.20656e-11
9.70376e-11
9.38966e-11
8.28593e-11
8.51433e-11
3.88024e-10
2.59274e-10
1.41556e-09
1.52739e-11
1.21454e-11
1.32716e-11
1.2056e-11
1.36227e-11
1.33952e-11
1.36376e-11
1.38494e-11
1.39235e-11
1.40478e-11
1.43157e-11
1.45295e-11
1.47079e-11
1.48709e-11
1.5117e-11
1.53823e-11
1.56525e-11
1.58883e-11
1.61104e-11
1.64937e-11
1.67933e-11
1.71212e-11
1.74502e-11
1.77895e-11
1.82681e-11
1.86353e-11
1.90621e-11
1.95271e-11
2.00212e-11
2.05346e-11
2.10465e-11
2.16561e-11
2.22219e-11
2.28487e-11
2.35424e-11
2.42231e-11
2.49415e-11
2.56936e-11
2.65425e-11
2.73855e-11
2.82366e-11
2.92246e-11
3.02094e-11
3.12577e-11
3.2375e-11
3.35549e-11
3.48153e-11
3.61213e-11
3.75157e-11
3.8975e-11
4.05245e-11
4.21207e-11
4.37852e-11
4.55084e-11
4.72435e-11
4.89994e-11
5.07996e-11
5.26344e-11
5.44948e-11
5.64431e-11
5.84159e-11
6.04626e-11
6.25313e-11
6.45496e-11
6.65434e-11
6.83914e-11
7.00545e-11
7.14531e-11
7.25823e-11
7.31884e-11
7.40014e-11
7.56573e-11
7.84681e-11
8.37316e-11
9.12445e-11
9.51118e-11
9.03615e-11
8.03011e-11
9.98499e-11
4.04833e-10
2.13327e-10
1.48221e-09
1.69544e-11
1.46371e-11
1.54969e-11
1.45347e-11
1.53699e-11
1.5189e-11
1.53931e-11
1.55017e-11
1.54729e-11
1.55585e-11
1.57419e-11
1.58933e-11
1.59894e-11
1.60542e-11
1.62261e-11
1.64086e-11
1.65644e-11
1.67151e-11
1.68484e-11
1.71343e-11
1.73366e-11
1.75246e-11
1.77706e-11
1.80289e-11
1.83579e-11
1.8647e-11
1.8985e-11
1.93304e-11
1.97408e-11
2.01728e-11
2.06024e-11
2.11438e-11
2.16497e-11
2.22552e-11
2.29039e-11
2.35892e-11
2.43292e-11
2.51169e-11
2.60319e-11
2.6931e-11
2.79267e-11
2.90002e-11
3.01024e-11
3.12629e-11
3.24852e-11
3.37598e-11
3.50334e-11
3.6388e-11
3.77683e-11
3.92037e-11
4.07453e-11
4.23431e-11
4.40711e-11
4.58751e-11
4.77756e-11
4.97395e-11
5.17615e-11
5.38277e-11
5.58844e-11
5.80025e-11
6.01287e-11
6.23284e-11
6.45744e-11
6.6832e-11
6.91066e-11
7.12903e-11
7.33794e-11
7.5326e-11
7.72342e-11
7.86575e-11
7.98371e-11
8.1574e-11
8.42982e-11
8.93413e-11
9.63698e-11
9.96239e-11
9.72573e-11
9.68516e-11
1.47097e-10
4.5227e-10
2.27748e-10
1.78924e-09
9.79239e-12
1.00216e-11
9.79243e-12
1.02446e-11
1.04558e-11
1.05275e-11
1.06487e-11
1.07367e-11
1.08741e-11
1.10209e-11
1.11116e-11
1.12576e-11
1.14058e-11
1.15623e-11
1.17164e-11
1.18669e-11
1.20529e-11
1.223e-11
1.24131e-11
1.26216e-11
1.28125e-11
1.30385e-11
1.32522e-11
1.34844e-11
1.37391e-11
1.4003e-11
1.42736e-11
1.45496e-11
1.48655e-11
1.51748e-11
1.55123e-11
1.58717e-11
1.62332e-11
1.66421e-11
1.70523e-11
1.7504e-11
1.79708e-11
1.8465e-11
1.89936e-11
1.95226e-11
2.00971e-11
2.06766e-11
2.12657e-11
2.18636e-11
2.24843e-11
2.30966e-11
2.37201e-11
2.43831e-11
2.5068e-11
2.58231e-11
2.66412e-11
2.7543e-11
2.85425e-11
2.96063e-11
3.07642e-11
3.19798e-11
3.32753e-11
3.4633e-11
3.60507e-11
3.75905e-11
3.92129e-11
4.09567e-11
4.27879e-11
4.46823e-11
4.66192e-11
4.84939e-11
5.02941e-11
5.1925e-11
5.28587e-11
5.32429e-11
5.46378e-11
5.75951e-11
6.23676e-11
6.99863e-11
7.75065e-11
7.6547e-11
6.79213e-11
7.07945e-11
1.41029e-10
3.29285e-10
1.87275e-10
1.81599e-09
)
;

boundaryField
{
    inlet
    {
        type            calculated;
        value           nonuniform List<scalar> 
23
(
2.36904e-08
2.34545e-08
2.32273e-08
2.30077e-08
2.27909e-08
2.25717e-08
2.23439e-08
2.21031e-08
2.18431e-08
2.15587e-08
2.12431e-08
2.0899e-08
2.05086e-08
1.9907e-08
1.9411e-08
1.88132e-08
1.8082e-08
1.72109e-08
1.61918e-08
1.5034e-08
1.3713e-08
1.27338e-08
1.09906e-08
)
;
    }
    outlet
    {
        type            calculated;
        value           nonuniform List<scalar> 
82
(
6.22638e-12
6.20296e-12
6.47667e-12
6.62644e-12
6.81327e-12
6.8591e-12
6.95213e-12
7.01281e-12
7.12011e-12
7.23583e-12
7.29644e-12
7.40884e-12
7.52369e-12
7.64446e-12
7.76283e-12
7.87612e-12
8.02284e-12
8.16036e-12
8.30168e-12
8.46785e-12
8.61473e-12
8.79359e-12
8.96058e-12
9.14293e-12
9.34574e-12
9.55474e-12
9.7687e-12
9.98414e-12
1.02361e-11
1.04778e-11
1.07422e-11
1.10244e-11
1.13022e-11
1.16214e-11
1.19345e-11
1.2281e-11
1.26351e-11
1.30074e-11
1.3406e-11
1.37955e-11
1.42237e-11
1.46498e-11
1.50798e-11
1.55147e-11
1.59702e-11
1.64176e-11
1.6876e-11
1.73756e-11
1.78961e-11
1.84831e-11
1.91243e-11
1.98347e-11
2.06235e-11
2.14545e-11
2.2358e-11
2.33041e-11
2.43249e-11
2.54172e-11
2.65903e-11
2.79136e-11
2.93476e-11
3.09208e-11
3.25893e-11
3.43185e-11
3.60872e-11
3.77865e-11
3.93784e-11
4.07228e-11
4.1262e-11
4.13267e-11
4.26088e-11
4.5653e-11
5.08511e-11
5.92122e-11
6.73289e-11
6.57676e-11
5.41836e-11
5.20874e-11
1.13493e-10
3.04989e-10
1.23861e-10
1.49355e-09
)
;
    }
    walls
    {
        type            calculated;
        value           nonuniform List<scalar> 0();
    }
    frontAndBack
    {
        type            empty;
    }
    procBoundary3to2
    {
        type            processor;
        value           nonuniform List<scalar> 
88
(
3.83368e-10
1.4564e-09
1.99024e-11
3.13624e-10
3.13624e-10
2.08761e-11
5.63907e-11
5.63907e-11
7.86171e-11
6.02241e-11
5.23345e-11
5.23345e-11
1.66254e-10
1.41792e-10
1.23184e-10
1.07136e-10
9.1683e-11
9.1683e-11
3.3943e-10
2.9653e-10
2.56669e-10
2.20627e-10
1.88087e-10
1.88087e-10
6.58697e-10
5.99741e-10
5.4406e-10
4.91945e-10
4.43384e-10
3.98063e-10
3.5543e-10
3.5543e-10
1.29814e-09
1.2317e-09
1.16586e-09
1.10092e-09
1.03707e-09
9.74627e-10
9.13742e-10
8.54518e-10
7.97064e-10
7.41243e-10
6.87054e-10
6.34442e-10
6.34442e-10
5.81099e-10
1.34647e-09
1.48748e-09
1.23164e-09
1.31043e-09
1.39343e-09
1.46503e-09
1.52646e-09
1.5823e-09
1.6332e-09
1.68146e-09
1.72384e-09
1.76031e-09
1.79162e-09
1.81649e-09
1.83582e-09
1.84903e-09
1.85628e-09
1.85834e-09
1.85514e-09
1.84717e-09
1.8348e-09
1.81823e-09
1.79815e-09
1.77501e-09
1.74869e-09
1.71989e-09
1.68891e-09
1.65587e-09
1.621e-09
1.58441e-09
1.54654e-09
1.5072e-09
1.46656e-09
1.425e-09
1.3822e-09
1.33854e-09
1.29397e-09
1.24848e-09
1.20236e-09
1.15555e-09
1.10817e-09
1.10817e-09
)
;
    }
    procBoundary3to6
    {
        type            processor;
        value           uniform 3.71854e-22;
    }
    procBoundary3to7
    {
        type            processor;
        value           nonuniform List<scalar> 
16
(
1.06596e-13
5.08826e-10
5.21038e-10
3.18183e-10
2.44155e-10
1.89559e-10
1.35675e-10
9.37568e-11
9.37568e-11
6.16081e-11
4.02901e-11
2.55532e-11
1.81157e-11
1.208e-11
1.40856e-11
1.03327e-11
)
;
    }
}


// ************************************************************************* //
