# p  FACE_DATA 600
# x y z  p
0.29893883 -0.05 0.060006728 12899.699
0.29682219 -0.05 0.060005155 12906.761
0.29471691 -0.05 0.060001576 12915.728
0.29262294 -0.05 0.05999591 12924.585
0.29054021 -0.05 0.059988277 12932.89
0.28846868 -0.05 0.059978645 12942.579
0.28640827 -0.05 0.059967018 12951.174
0.28435895 -0.05 0.059953476 12960.609
0.28232063 -0.05 0.05993795 12970.252
0.28029328 -0.05 0.059920485 12979.721
0.27827682 -0.05 0.059901123 12989.267
0.27627121 -0.05 0.059879855 12999.183
0.27427639 -0.05 0.05985667 13009.304
0.2722923 -0.05 0.059831621 13019.171
0.27031889 -0.05 0.059804697 13029.767
0.26835611 -0.05 0.05977592 13039.725
0.26640388 -0.05 0.059745343 13050.087
0.26446217 -0.05 0.059712935 13060.678
0.26253092 -0.05 0.059678711 13071.401
0.26061007 -0.05 0.059642689 13082.36
0.25869957 -0.05 0.059604861 13093.519
0.25679937 -0.05 0.059565286 13104.259
0.25490941 -0.05 0.05952394 13115.958
0.25302965 -0.05 0.059480841 13126.777
0.25116001 -0.05 0.059436049 13138.14
0.24930047 -0.05 0.059389522 13149.712
0.24745095 -0.05 0.059341283 13161.452
0.24561142 -0.05 0.059291325 13173.688
0.24378182 -0.05 0.05923967 13185.57
0.24196209 -0.05 0.059186367 13197.454
0.24015219 -0.05 0.059131421 13209.397
0.23835206 -0.05 0.059074821 13221.627
0.23656166 -0.05 0.059016618 13233.491
0.23478094 -0.05 0.058956769 13246.834
0.23300984 -0.05 0.05889526 13259.219
0.23124831 -0.05 0.05883224 13271.204
0.22949632 -0.05 0.058767617 13284.899
0.22775381 -0.05 0.058701363 13297.738
0.22602071 -0.05 0.058633589 13310.551
0.22429701 -0.05 0.058564274 13323.552
0.22258262 -0.05 0.058493448 13336.324
0.22087753 -0.05 0.058421069 13350.441
0.21918166 -0.05 0.058347132 13363.694
0.21749499 -0.05 0.058271731 13376.956
0.21581745 -0.05 0.058194856 13390.381
0.21414901 -0.05 0.058116493 13404.212
0.21248962 -0.05 0.05803665 13418.117
0.21083923 -0.05 0.057955337 13432.236
0.20919779 -0.05 0.057872577 13446.135
0.20756526 -0.05 0.057788393 13460.258
0.20594158 -0.05 0.057702763 13474.791
0.20432673 -0.05 0.057615706 13489.035
0.20272065 -0.05 0.057527277 13503.14
0.20112329 -0.05 0.057437457 13517.883
0.19953461 -0.05 0.05734625 13532.588
0.19795458 -0.05 0.057253621 13548.184
0.19638314 -0.05 0.057159665 13561.869
0.19482023 -0.05 0.05706438 13577.537
0.19326584 -0.05 0.056967732 13592.023
0.19171991 -0.05 0.056869749 13607.693
0.19018239 -0.05 0.056770463 13622.098
0.18865324 -0.05 0.056669846 13638.541
0.18713243 -0.05 0.056567899 13653.413
0.18561991 -0.05 0.056464666 13669.75
0.18411563 -0.05 0.056360132 13685.133
0.18261956 -0.05 0.056254318 13701.458
0.18113166 -0.05 0.056147258 13716.267
0.17965186 -0.05 0.056038987 13732.36
0.17818015 -0.05 0.05592942 13748.866
0.17671648 -0.05 0.055818588 13765.145
0.1752608 -0.05 0.05570656 13780.993
0.17381309 -0.05 0.055593325 13797.689
0.17237329 -0.05 0.055478844 13814.362
0.17094135 -0.05 0.055363199 13830.396
0.16951726 -0.05 0.055246341 13848.103
0.16810097 -0.05 0.055128259 13864.615
0.16669242 -0.05 0.05500905 13881.254
0.16529159 -0.05 0.054888659 13898.741
0.16389844 -0.05 0.054767078 13915.814
0.16251292 -0.05 0.054644372 13932.554
0.161135 -0.05 0.054520532 13949.789
0.15976465 -0.05 0.054395554 13966.947
0.15840181 -0.05 0.054269449 13984.851
0.15704647 -0.05 0.054142171 14003.265
0.15569857 -0.05 0.05401378 14020.501
0.15435807 -0.05 0.053884336 14037.882
0.15302494 -0.05 0.053753791 14055.709
0.15169915 -0.05 0.053622161 14073.566
0.15038066 -0.05 0.053489407 14092.769
0.14906942 -0.05 0.053355551 14110.78
0.1477654 -0.05 0.053220679 14129.101
0.14646858 -0.05 0.053084715 14148.385
0.1451789 -0.05 0.052947683 14166.483
0.14389634 -0.05 0.052809659 14184.739
0.14262085 -0.05 0.05267058 14204.103
0.14135242 -0.05 0.052530426 14223.499
0.14009099 -0.05 0.052389231 14242.838
0.13883652 -0.05 0.052247036 14261.601
0.137589 -0.05 0.052103837 14280.97
0.13634838 -0.05 0.051959625 14299.661
0.13511461 -0.05 0.051814476 14318.645
0.1338877 -0.05 0.051668228 14340.604
0.13266759 -0.05 0.051520967 14358.394
0.13145422 -0.05 0.051372868 14377.643
0.13024759 -0.05 0.051223701 14399.322
0.12904768 -0.05 0.051073499 14419.186
0.12785442 -0.05 0.050922382 14439.264
0.12666779 -0.05 0.050770303 14459.96
0.12548777 -0.05 0.050617245 14481.087
0.12431431 -0.05 0.050463216 14501.631
0.12314738 -0.05 0.050308326 14520.888
0.12198694 -0.05 0.050152493 14543.244
0.12083299 -0.05 0.049995623 14564.956
0.11968547 -0.05 0.049837846 14585.727
0.11854435 -0.05 0.049679176 14606.91
0.11740961 -0.05 0.049519574 14628.427
0.11628122 -0.05 0.049359037 14650.14
0.11515913 -0.05 0.049197589 14671.663
0.11404333 -0.05 0.049035234 14693.447
0.11293377 -0.05 0.048871989 14714.916
0.11183042 -0.05 0.048707847 14736.951
0.11073327 -0.05 0.048542821 14758.832
0.10964229 -0.05 0.048376866 14782.493
0.10855744 -0.05 0.048209982 14805.047
0.10747868 -0.05 0.048042235 14827.932
0.106406 -0.05 0.04787359 14851.171
0.10533935 -0.05 0.047704062 14874.397
0.10427873 -0.05 0.047533647 14897.982
0.10322407 -0.05 0.047362394 14920.187
0.10217537 -0.05 0.04719032 14943.55
0.10113259 -0.05 0.047017348 14967.963
0.10009572 -0.05 0.046843455 14992.961
0.099064719 -0.05 0.046668685 15016.775
0.098039551 -0.05 0.046493118 15039.758
0.097020189 -0.05 0.046316733 15063.959
0.096006622 -0.05 0.046139442 15089.68
0.094998822 -0.05 0.045961241 15115.051
0.09399675 -0.05 0.045782217 15139.432
0.093000378 -0.05 0.045602371 15164.556
0.092009685 -0.05 0.045421665 15189.776
0.091024643 -0.05 0.045240119 15215.23
0.090045231 -0.05 0.045057701 15241.684
0.089071419 -0.05 0.044874428 15267.035
0.088103174 -0.05 0.044690349 15292.604
0.087140475 -0.05 0.044505439 15318.912
0.086183303 -0.05 0.044319663 15346.317
0.08523163 -0.05 0.044133032 15373.417
0.084285425 -0.05 0.043945577 15400.5
0.083344663 -0.05 0.043757308 15427.565
0.082409326 -0.05 0.043568191 15455.937
0.081479394 -0.05 0.04337819 15484.151
0.080554831 -0.05 0.043187382 15510.983
0.079635605 -0.05 0.042995792 15538.845
0.078721718 -0.05 0.042803304 15568.429
0.077813136 -0.05 0.042609969 15596.246
0.076909826 -0.05 0.042415818 15625.769
0.07601178 -0.05 0.042220793 15655.066
0.075118966 -0.05 0.042024933 15684.327
0.074231361 -0.05 0.041828237 15713.44
0.073348934 -0.05 0.04163074 15742.478
0.072471679 -0.05 0.041432371 15773.64
0.071599572 -0.05 0.041233139 15803.414
0.070732583 -0.05 0.041033074 15834.664
0.069870697 -0.05 0.040832148 15865.271
0.069013884 -0.05 0.040630397 15896.627
0.068162134 -0.05 0.040427777 15928.795
0.067315419 -0.05 0.040224307 15960.961
0.06647372 -0.05 0.040019973 15994.786
0.065637027 -0.05 0.039814748 16028.534
0.06480531 -0.05 0.039608654 16062.184
0.063978543 -0.05 0.039401719 16094.872
0.063156705 -0.05 0.039193946 16128.455
0.062339788 -0.05 0.038985286 16162.93
0.061527775 -0.05 0.038775725 16198.263
0.060720649 -0.05 0.038565255 16233.978
0.059918385 -0.05 0.038353894 16269.404
0.059120963 -0.05 0.03814165 16305.056
0.058328367 -0.05 0.037928504 16340.955
0.057540575 -0.05 0.037714473 16376.489
0.056757564 -0.05 0.037499567 16412.842
0.055979327 -0.05 0.037283751 16450.972
0.055205861 -0.05 0.03706696 16490.99
0.054437144 -0.05 0.036849222 16530.127
0.053673142 -0.05 0.036630582 16569.463
0.052913841 -0.05 0.036411033 16608.673
0.052159229 -0.05 0.036190552 16649.216
0.051409301 -0.05 0.035969101 16690.61
0.050664044 -0.05 0.035746666 16732.391
0.049923426 -0.05 0.035523297 16773.52
0.049187444 -0.05 0.035298949 16817.113
0.048456093 -0.05 0.035073588 16859.911
0.047729344 -0.05 0.034847258 16903.273
0.047007184 -0.05 0.034619944 16946.966
0.046289611 -0.05 0.034391604 16992.033
0.045576607 -0.05 0.034162252 17036.735
0.044868158 -0.05 0.033931882 17083.316
0.044164259 -0.05 0.033700465 17130.087
0.043464894 -0.05 0.033468005 17178.051
0.042770054 -0.05 0.033234487 17226.693
0.042079734 -0.05 0.032999885 17277.215
0.041393929 -0.05 0.032764174 17328.23
0.040712625 -0.05 0.032527361 17379.548
0.040035798 -0.05 0.032289471 17430.388
0.039363443 -0.05 0.032050489 17483.074
0.038695563 -0.05 0.031810365 17537.45
0.038032168 -0.05 0.031569045 17593.546
0.037373226 -0.05 0.031326581 17647.988
0.036718733 -0.05 0.03108296 17704.331
0.036068678 -0.05 0.030838173 17759.411
0.035423063 -0.05 0.030592193 17818.966
0.034781926 -0.05 0.030344893 17879.323
0.034145213 -0.05 0.030096392 17938.535
0.033512917 -0.05 0.029846677 18000.991
0.032885063 -0.05 0.029595666 18064.433
0.032261651 -0.05 0.029343341 18129.428
0.031642677 -0.05 0.029089693 18193.642
0.031028119 -0.05 0.028834753 18258.21
0.030417982 -0.05 0.028578493 18325.11
0.029812303 -0.05 0.028320809 18395.213
0.029211079 -0.05 0.0280617 18464.792
0.028614285 -0.05 0.027801211 18535.366
0.028021925 -0.05 0.027539318 18607.513
0.027434034 -0.05 0.027275938 18683.104
0.026850619 -0.05 0.027011044 18758.512
0.026271654 -0.05 0.026744689 18835.459
0.025697179 -0.05 0.02647678 18915.771
0.025127212 -0.05 0.026207275 18996.313
0.024561729 -0.05 0.025936225 19077.856
0.024000753 -0.05 0.025663583 19162.785
0.023444336 -0.05 0.025389243 19249.936
0.022892447 -0.05 0.025113275 19336.273
0.022345135 -0.05 0.024835581 19427.831
0.02180243 -0.05 0.024556113 19517.084
0.021264293 -0.05 0.024274957 19609.817
0.0207308 -0.05 0.023991978 19706.202
0.020201992 -0.05 0.023707108 19803.548
0.019677842 -0.05 0.023420417 19900.41
0.019158403 -0.05 0.023131824 20002.273
0.018643727 -0.05 0.022841258 20104.596
0.018133826 -0.05 0.022548716 20210.247
0.017628739 -0.05 0.022254151 20316.759
0.017128471 -0.05 0.021957583 20427.255
0.016633127 -0.05 0.021658866 20544.797
0.016142724 -0.05 0.021358 20664.103
0.015657283 -0.05 0.021054987 20791.471
0.015176888 -0.05 0.020749728 20923.982
0.014701579 -0.05 0.020442196 21062.018
0.014231398 -0.05 0.020132367 21203.713
0.013766434 -0.05 0.019820157 21351.061
0.013306742 -0.05 0.019505528 21500.087
0.012852374 -0.05 0.019188457 21654.747
0.012403439 -0.05 0.018868841 21812.874
0.01195997 -0.05 0.018546687 21974.438
0.011522076 -0.05 0.018221915 22141.262
0.011089809 -0.05 0.017894514 22311.469
0.0106633 -0.05 0.017564386 22491.088
0.010242659 -0.05 0.01723145 22671.872
0.009827894 -0.05 0.016895788 22857.871
0.0094192167 -0.05 0.016557218 23053.196
0.0090167438 -0.05 0.016215673 23250.32
0.0086204858 -0.05 0.015871238 23452.921
0.0082306648 -0.05 0.015523765 23666.092
0.0078474301 -0.05 0.015173187 23883.559
0.00747084 -0.05 0.014819531 24107.203
0.0071010571 -0.05 0.014462741 24337.997
0.0067383047 -0.05 0.014102727 24577.655
0.0063827544 -0.05 0.013739427 24821.296
0.0060345067 -0.05 0.013372862 25068.862
0.0056937565 -0.05 0.013003011 25323.267
0.0053606882 -0.05 0.012629837 25585.697
0.0050354824 -0.05 0.012253323 25857.667
0.0047183926 -0.05 0.01187344 26139.652
0.0044096379 -0.05 0.011490161 26430.191
0.0041094132 -0.05 0.011103483 26728.566
0.0038179536 -0.05 0.010713443 27034.033
0.0035354728 -0.05 0.01032007 27345.378
0.0032621919 -0.05 0.0099233916 27663.094
0.0029983702 -0.05 0.0095234712 27987.199
0.0027442429 -0.05 0.0091203468 28317.321
0.0025000604 -0.05 0.0087141009 28652.232
0.0022660754 -0.05 0.0083048554 28991.188
0.0020425146 -0.05 0.0078926699 29333.947
0.0018296563 -0.05 0.0074776735 29679.985
0.0016277487 -0.05 0.0070600557 30028.98
0.0014369745 -0.05 0.006639968 30379.02
0.0012575291 -0.05 0.0062175973 30728.069
0.0010896146 -0.05 0.0057931737 31074.794
0.00093341056 -0.05 0.0053669215 31417.38
0.00078906403 -0.05 0.0049390744 31754.16
0.00065670868 -0.05 0.0045099018 32084.03
0.00053653171 -0.05 0.0040796665 32406.419
0.00042862038 -0.05 0.003648665 32717.674
0.00033294635 -0.05 0.003217232 33016.601
0.00024951873 -0.05 0.002785685 33302.742
0.00017832254 -0.05 0.0023543467 33574.813
0.00011930806 -0.05 0.0019235435 33830.911
7.2389968e-05 -0.05 0.0014936046 34069.846
3.7448892e-05 -0.05 0.0010648563 34290.678
1.4332163e-05 -0.05 0.0006376208 34493.089
2.8544133e-06 -0.05 0.00021221054 34676.904
0.99884037 -0.05 0.00016828408 26731.697
0.99652103 -0.05 0.00050440213 26704.445
0.99420154 -0.05 0.0008395204 26656.978
0.99188191 -0.05 0.0011736208 26617.265
0.98956214 -0.05 0.0015067636 26575.964
0.98724223 -0.05 0.001838948 26536.28
0.9849222 -0.05 0.0021701636 26496.844
0.98260202 -0.05 0.0025004302 26457.947
0.98028169 -0.05 0.0028297328 26419.426
0.97796124 -0.05 0.0031580577 26381.198
0.97564065 -0.05 0.0034854377 26343.242
0.97331994 -0.05 0.0038118591 26305.534
0.97099908 -0.05 0.0041373159 26268.051
0.96867809 -0.05 0.0044618578 26230.719
0.96635696 -0.05 0.0047854478 26193.678
0.96403572 -0.05 0.0051081172 26156.672
0.96171435 -0.05 0.0054299032 26119.927
0.95939284 -0.05 0.0057507069 26083.402
0.95707121 -0.05 0.0060705875 26046.976
0.95474946 -0.05 0.0063895914 26010.752
0.95242757 -0.05 0.0067076389 25974.8
0.95010556 -0.05 0.0070248024 25938.833
0.94778344 -0.05 0.0073411105 25903.159
0.94546118 -0.05 0.0076564368 25867.755
0.94313881 -0.05 0.007970866 25832.397
0.94081631 -0.05 0.0082844406 25797.286
0.93849369 -0.05 0.0085971026 25762.39
0.93617096 -0.05 0.0089088655 25727.684
0.9338481 -0.05 0.0092197817 25693.075
0.93152513 -0.05 0.0095298292 25658.754
0.92920205 -0.05 0.00983897 25624.611
0.92687884 -0.05 0.010147248 25590.65
0.92455553 -0.05 0.01045465 25556.915
0.92223209 -0.05 0.010761189 25523.308
0.91990855 -0.05 0.011066875 25489.975
0.91758488 -0.05 0.011371653 25456.918
0.91526111 -0.05 0.011675608 25423.83
0.91293723 -0.05 0.011978761 25391.053
0.91061324 -0.05 0.012281 25358.584
0.90828913 -0.05 0.012582372 25326.185
0.90596492 -0.05 0.012882964 25293.898
0.90364059 -0.05 0.013182677 25262.098
0.90131615 -0.05 0.013481494 25230.341
0.89899162 -0.05 0.013779572 25198.541
0.89666698 -0.05 0.014076842 25167.196
0.89434222 -0.05 0.014373142 25136.225
0.89201737 -0.05 0.014668681 25104.911
0.88969241 -0.05 0.014963453 25074.202
0.88736734 -0.05 0.0152573 25043.649
0.88504217 -0.05 0.015550344 25013.142
0.8827169 -0.05 0.015842646 24982.707
0.88039152 -0.05 0.016134071 24952.844
0.87806604 -0.05 0.016424635 24922.868
0.87574046 -0.05 0.016714466 24893.08
0.87341478 -0.05 0.017003468 24863.577
0.871089 -0.05 0.017291665 24834.111
0.86876312 -0.05 0.017579058 24804.954
0.86643714 -0.05 0.017865646 24775.812
0.86411107 -0.05 0.018151445 24746.975
0.86178489 -0.05 0.018436407 24718.288
0.85945862 -0.05 0.018720606 24689.576
0.85713225 -0.05 0.019004019 24661.224
0.85480578 -0.05 0.019286574 24633.105
0.85247921 -0.05 0.019568355 24604.92
0.85015256 -0.05 0.019849418 24576.864
0.84782581 -0.05 0.020129657 24549.189
0.84549896 -0.05 0.020409081 24521.48
0.84317202 -0.05 0.020687756 24493.882
0.84084499 -0.05 0.020965643 24466.53
0.83851786 -0.05 0.021242672 24439.545
0.83619063 -0.05 0.021518954 24412.256
0.83386332 -0.05 0.021794529 24385.289
0.83153592 -0.05 0.022069294 24358.474
0.82920841 -0.05 0.022343258 24331.832
0.82688083 -0.05 0.02261648 24305.076
0.82455316 -0.05 0.022888925 24278.706
0.82222538 -0.05 0.023160547 24252.42
0.81989751 -0.05 0.023431389 24226.3
0.81756956 -0.05 0.023701494 24200.105
0.81524153 -0.05 0.023970846 24174.195
0.8129134 -0.05 0.024239417 24148.282
0.81058518 -0.05 0.02450723 24122.546
0.80825687 -0.05 0.024774258 24096.933
0.80592849 -0.05 0.02504053 24071.379
0.8036 -0.05 0.025306023 24046.031
0.80127144 -0.05 0.025570774 24020.525
0.79894279 -0.05 0.025834763 23995.431
0.79661404 -0.05 0.026097924 23970.37
0.79428522 -0.05 0.026360374 23945.183
0.79195631 -0.05 0.026622048 23920.463
0.78962731 -0.05 0.026882938 23895.53
0.78729823 -0.05 0.027143126 23870.76
0.78496906 -0.05 0.027402517 23846.218
0.78263981 -0.05 0.02766117 23821.419
0.78031048 -0.05 0.027919081 23797.042
0.77798106 -0.05 0.028176144 23772.809
0.77565155 -0.05 0.028432494 23748.27
0.77332196 -0.05 0.028688107 23724.163
0.77099228 -0.05 0.028942908 23700.021
0.76866253 -0.05 0.029196968 23675.898
0.7663327 -0.05 0.029450285 23651.846
0.76400278 -0.05 0.029702803 23628.047
0.76167277 -0.05 0.029954568 23604.061
0.75934268 -0.05 0.030205573 23580.45
0.75701251 -0.05 0.030455803 23556.658
0.75468227 -0.05 0.030705313 23532.986
0.75235193 -0.05 0.030954045 23509.419
0.75002152 -0.05 0.031202018 23485.837
0.74769103 -0.05 0.031449207 23462.505
0.74536045 -0.05 0.031695625 23439.045
0.7430298 -0.05 0.031941289 23415.753
0.74069906 -0.05 0.032186181 23392.424
0.73836824 -0.05 0.032430305 23369.276
0.73603734 -0.05 0.032673645 23346.167
0.73370637 -0.05 0.032916233 23322.976
0.73137531 -0.05 0.033158092 23299.77
0.72904417 -0.05 0.033399148 23276.935
0.72671295 -0.05 0.033639377 23254.062
0.72438166 -0.05 0.03387888 23230.992
0.72205028 -0.05 0.034117645 23208.116
0.71971882 -0.05 0.034355552 23185.59
0.71738729 -0.05 0.034592685 23162.655
0.71505567 -0.05 0.034829099 23139.984
0.71272397 -0.05 0.035064674 23117.469
0.71039219 -0.05 0.035299486 23094.693
0.70806035 -0.05 0.035533544 23072.186
0.70572841 -0.05 0.035766778 23049.678
0.70339641 -0.05 0.035999269 23026.991
0.70106433 -0.05 0.03623098 23004.524
0.69873216 -0.05 0.036461892 22981.923
0.69639992 -0.05 0.036691978 22959.621
0.69406759 -0.05 0.036921269 22937.058
0.69173519 -0.05 0.03714974 22915.018
0.68940271 -0.05 0.037377398 22892.566
0.68707015 -0.05 0.037604327 22870.173
0.68473752 -0.05 0.03783047 22847.726
0.68240481 -0.05 0.038055756 22825.653
0.68007201 -0.05 0.038280206 22803.35
0.67773914 -0.05 0.038503859 22781.243
0.67540619 -0.05 0.03872673 22758.857
0.67307317 -0.05 0.038948784 22736.819
0.67074007 -0.05 0.039170028 22714.413
0.66840689 -0.05 0.039390456 22692.406
0.66607364 -0.05 0.039610024 22670.208
0.6637403 -0.05 0.039828774 22648.221
0.66140688 -0.05 0.040046679 22626.133
0.6590734 -0.05 0.040263799 22603.88
0.65673983 -0.05 0.040480084 22581.872
0.65440618 -0.05 0.040695489 22559.829
0.65207246 -0.05 0.040910082 22537.643
0.64973866 -0.05 0.041123838 22515.576
0.64740478 -0.05 0.04133674 22493.386
0.64507083 -0.05 0.041548788 22471.346
0.6427368 -0.05 0.04175995 22449.304
0.64040268 -0.05 0.041970278 22427.105
0.6380685 -0.05 0.042179753 22405.039
0.63573424 -0.05 0.042388355 22382.866
0.63339989 -0.05 0.042596094 22360.771
0.63106547 -0.05 0.042802945 22338.624
0.62873097 -0.05 0.04300894 22316.349
0.6263964 -0.05 0.043214055 22294.186
0.62406174 -0.05 0.043418269 22271.945
0.62172702 -0.05 0.043621601 22249.647
0.61939221 -0.05 0.043824069 22227.156
0.61705733 -0.05 0.044025645 22204.807
0.61472237 -0.05 0.044226271 22182.496
0.61238733 -0.05 0.044426006 22159.917
0.61005222 -0.05 0.04462488 22137.263
0.60771702 -0.05 0.044822825 22114.68
0.60538174 -0.05 0.045019806 22092.109
0.6030464 -0.05 0.045215861 22069.348
0.60071097 -0.05 0.045411024 22046.457
0.59837546 -0.05 0.045605254 22023.567
0.59603988 -0.05 0.045798556 22000.408
0.59370423 -0.05 0.045990938 21977.173
0.59136849 -0.05 0.046182352 21953.863
0.58903267 -0.05 0.046372791 21930.468
0.58669678 -0.05 0.046562266 21906.871
0.5843608 -0.05 0.046750814 21882.978
0.58202475 -0.05 0.046938396 21859.086
0.57968862 -0.05 0.047124972 21834.991
0.57735242 -0.05 0.047310579 21810.591
0.57501614 -0.05 0.047495251 21785.798
0.57267978 -0.05 0.047678924 21760.992
0.57034334 -0.05 0.04786155 21735.891
0.56800683 -0.05 0.048043188 21710.412
0.56567024 -0.05 0.048223861 21684.501
0.56333356 -0.05 0.048403536 21658.353
0.56099681 -0.05 0.048582153 21631.954
0.55865998 -0.05 0.04875972 21605.127
0.55632308 -0.05 0.048936314 21577.679
0.55398609 -0.05 0.049111879 21550.031
0.55164903 -0.05 0.049286359 21521.794
0.54931189 -0.05 0.049459794 21493.081
0.54697467 -0.05 0.049632163 21463.811
0.54463737 -0.05 0.049803468 21433.946
0.5423 -0.05 0.049973719 21403.377
0.53996254 -0.05 0.050142913 21372.115
0.53762502 -0.05 0.050311035 21340.116
0.53528742 -0.05 0.050478054 21307.422
0.53294973 -0.05 0.050643972 21273.8
0.53061196 -0.05 0.050808824 21239.238
0.52827412 -0.05 0.050972558 21203.817
0.5259362 -0.05 0.051135143 21167.358
0.5235982 -0.05 0.051296612 21129.801
0.52126012 -0.05 0.051456922 21091.177
0.51892198 -0.05 0.051616121 21051.104
0.51658374 -0.05 0.051774162 21009.962
0.51424543 -0.05 0.051931036 20967.117
0.51190704 -0.05 0.05208678 20922.95
0.50956857 -0.05 0.052241321 20877.117
0.50723003 -0.05 0.052394685 20829.608
0.50489141 -0.05 0.052546885 20780.181
0.50255271 -0.05 0.05269791 20728.898
0.50021394 -0.05 0.052847701 20675.616
0.49787509 -0.05 0.052996281 20620.147
0.49553616 -0.05 0.053143654 20562.421
0.49319715 -0.05 0.053289801 20502.21
0.49085807 -0.05 0.053434697 20439.383
0.48851891 -0.05 0.05357832 20373.662
0.48617967 -0.05 0.053720679 20304.83
0.48384036 -0.05 0.053861795 20232.525
0.48150096 -0.05 0.054001669 20156.563
0.4791615 -0.05 0.054140241 20076.713
0.47682195 -0.05 0.054277501 19992.816
0.47448234 -0.05 0.054413462 19904.877
0.47214264 -0.05 0.054548109 19812.936
0.46980287 -0.05 0.054681459 19716.874
0.46746302 -0.05 0.054813494 19616.471
0.4651231 -0.05 0.054944177 19511.109
0.4627831 -0.05 0.055073496 19400.049
0.46044304 -0.05 0.055201437 19282.249
0.45810288 -0.05 0.055328007 19156.375
0.45576266 -0.05 0.055453195 19020.49
0.45342237 -0.05 0.055576996 18872.243
0.451082 -0.05 0.05569938 18708.682
0.44874156 -0.05 0.055820362 18526.759
0.44640104 -0.05 0.055939944 18322.65
0.44406046 -0.05 0.056058044 18090.696
0.4417198 -0.05 0.056174717 17821.178
0.43937906 -0.05 0.05628996 17505.825
0.43703826 -0.05 0.056403696 17135.456
0.43469738 -0.05 0.056515954 16701.72
0.43235643 -0.05 0.056626691 16202.069
0.43001541 -0.05 0.056735938 15648.78
0.42767432 -0.05 0.056843696 15076.6
0.42533317 -0.05 0.056949929 14531.086
0.42299193 -0.05 0.057054582 14056.996
0.42065064 -0.05 0.05715767 13675.055
0.41830927 -0.05 0.057259222 13388.601
0.41596783 -0.05 0.057359191 13183.628
0.41362633 -0.05 0.057457551 13042.864
0.41128476 -0.05 0.057554292 12947.41
0.40894313 -0.05 0.057649427 12883.625
0.40660142 -0.05 0.057742965 12840.478
0.40425966 -0.05 0.057834838 12811.98
0.40191783 -0.05 0.057925023 12791.835
0.39957593 -0.05 0.058013541 12777.876
0.39723398 -0.05 0.058100378 12767.284
0.39489196 -0.05 0.058185525 12759.768
0.39254988 -0.05 0.058268918 12754.003
0.39020774 -0.05 0.058350591 12749.169
0.38786553 -0.05 0.058430541 12745.475
0.38552326 -0.05 0.058508715 12742.755
0.38318094 -0.05 0.058585094 12740.595
0.38083857 -0.05 0.058659688 12738.82
0.37849613 -0.05 0.058732482 12737.621
0.37615364 -0.05 0.058803471 12737.014
0.37381109 -0.05 0.058872605 12736.979
0.37146848 -0.05 0.058939856 12737.024
0.36912583 -0.05 0.059005237 12737.554
0.36678312 -0.05 0.059068742 12738.193
0.36444037 -0.05 0.059130353 12739.415
0.36209757 -0.05 0.059190049 12740.754
0.35975471 -0.05 0.059247824 12742.7
0.35741181 -0.05 0.059303603 12745.393
0.35506885 -0.05 0.059357402 12747.852
0.35272586 -0.05 0.059409225 12750.936
0.35038283 -0.05 0.059459045 12753.91
0.34803975 -0.05 0.059506859 12757.512
0.34569662 -0.05 0.059552581 12761.642
0.34335347 -0.05 0.059596249 12765.266
0.34101027 -0.05 0.059637862 12769.831
0.33866703 -0.05 0.059677333 12774.655
0.33632377 -0.05 0.059714702 12779.514
0.33398046 -0.05 0.059749909 12785.327
0.33163713 -0.05 0.059782951 12790.553
0.32929376 -0.05 0.059813858 12796.45
0.32695037 -0.05 0.059842535 12802.929
0.32460696 -0.05 0.059868968 12809.557
0.32226351 -0.05 0.059893141 12816.593
0.31992004 -0.05 0.059915067 12823.287
0.31757656 -0.05 0.059934727 12830.705
0.31523306 -0.05 0.059952066 12838.259
0.31288954 -0.05 0.059967055 12846.408
0.31054601 -0.05 0.059979678 12854.359
0.30820247 -0.05 0.059989926 12862.672
0.30585891 -0.05 0.059997793 12870.755
0.30351535 -0.05 0.060003209 12880.145
0.30117178 -0.05 0.060006157 12889.737
