# p  FACE_DATA 600
# x y z  p
0.29893883 -0.05 0.060006728 12432.451
0.29682219 -0.05 0.060005155 12441.556
0.29471691 -0.05 0.060001576 12452.58
0.29262294 -0.05 0.05999591 12463.47
0.29054021 -0.05 0.059988277 12473.8
0.28846868 -0.05 0.059978645 12485.473
0.28640827 -0.05 0.059967018 12496.028
0.28435895 -0.05 0.059953476 12507.39
0.28232063 -0.05 0.05993795 12518.922
0.28029328 -0.05 0.059920485 12530.252
0.27827682 -0.05 0.059901123 12541.63
0.27627121 -0.05 0.059879855 12553.341
0.27427639 -0.05 0.05985667 12565.211
0.2722923 -0.05 0.059831621 12576.796
0.27031889 -0.05 0.059804697 12589.078
0.26835611 -0.05 0.05977592 12600.706
0.26640388 -0.05 0.059745343 12612.713
0.26446217 -0.05 0.059712935 12624.914
0.26253092 -0.05 0.059678711 12637.215
0.26061007 -0.05 0.059642689 12649.714
0.25869957 -0.05 0.059604861 12662.38
0.25679937 -0.05 0.059565286 12674.614
0.25490941 -0.05 0.05952394 12687.775
0.25302965 -0.05 0.059480841 12700.031
0.25116001 -0.05 0.059436049 12712.804
0.24930047 -0.05 0.059389522 12725.758
0.24745095 -0.05 0.059341283 12738.846
0.24561142 -0.05 0.059291325 12752.416
0.24378182 -0.05 0.05923967 12765.602
0.24196209 -0.05 0.059186367 12778.779
0.24015219 -0.05 0.059131421 12791.998
0.23835206 -0.05 0.059074821 12805.467
0.23656166 -0.05 0.059016618 12818.552
0.23478094 -0.05 0.058956769 12833.069
0.23300984 -0.05 0.05889526 12846.611
0.23124831 -0.05 0.05883224 12859.749
0.22949632 -0.05 0.058767617 12874.579
0.22775381 -0.05 0.058701363 12888.517
0.22602071 -0.05 0.058633589 12902.415
0.22429701 -0.05 0.058564274 12916.493
0.22258262 -0.05 0.058493448 12930.323
0.22087753 -0.05 0.058421069 12945.49
0.21918166 -0.05 0.058347132 12959.754
0.21749499 -0.05 0.058271731 12973.989
0.21581745 -0.05 0.058194856 12988.366
0.21414901 -0.05 0.058116493 13003.136
0.21248962 -0.05 0.05803665 13017.973
0.21083923 -0.05 0.057955337 13033.014
0.20919779 -0.05 0.057872577 13047.826
0.20756526 -0.05 0.057788393 13062.842
0.20594158 -0.05 0.057702763 13078.223
0.20432673 -0.05 0.057615706 13093.27
0.20272065 -0.05 0.057527277 13108.159
0.20112329 -0.05 0.057437457 13123.686
0.19953461 -0.05 0.05734625 13139.19
0.19795458 -0.05 0.057253621 13155.557
0.19638314 -0.05 0.057159665 13170.009
0.19482023 -0.05 0.05706438 13186.41
0.19326584 -0.05 0.056967732 13201.616
0.19171991 -0.05 0.056869749 13217.992
0.19018239 -0.05 0.056770463 13233.108
0.18865324 -0.05 0.056669846 13250.231
0.18713243 -0.05 0.056567899 13265.757
0.18561991 -0.05 0.056464666 13282.706
0.18411563 -0.05 0.056360132 13298.686
0.18261956 -0.05 0.056254318 13315.608
0.18113166 -0.05 0.056147258 13331.035
0.17965186 -0.05 0.056038987 13347.739
0.17818015 -0.05 0.05592942 13364.813
0.17671648 -0.05 0.055818588 13381.603
0.1752608 -0.05 0.05570656 13397.924
0.17381309 -0.05 0.055593325 13415.082
0.17237329 -0.05 0.055478844 13432.245
0.17094135 -0.05 0.055363199 13448.796
0.16951726 -0.05 0.055246341 13466.986
0.16810097 -0.05 0.055128259 13483.955
0.16669242 -0.05 0.05500905 13501.051
0.16529159 -0.05 0.054888659 13518.991
0.16389844 -0.05 0.054767078 13536.517
0.16251292 -0.05 0.054644372 13553.69
0.161135 -0.05 0.054520532 13571.312
0.15976465 -0.05 0.054395554 13588.818
0.15840181 -0.05 0.054269449 13607.049
0.15704647 -0.05 0.054142171 13625.784
0.15569857 -0.05 0.05401378 13643.366
0.15435807 -0.05 0.053884336 13661.111
0.15302494 -0.05 0.053753791 13679.29
0.15169915 -0.05 0.053622161 13697.451
0.15038066 -0.05 0.053489407 13716.868
0.14906942 -0.05 0.053355551 13735.053
0.1477654 -0.05 0.053220679 13753.585
0.14646858 -0.05 0.053084715 13773.13
0.1451789 -0.05 0.052947683 13791.525
0.14389634 -0.05 0.052809659 13810.064
0.14262085 -0.05 0.05267058 13829.669
0.14135242 -0.05 0.052530426 13849.279
0.14009099 -0.05 0.052389231 13868.831
0.13883652 -0.05 0.052247036 13887.82
0.137589 -0.05 0.052103837 13907.414
0.13634838 -0.05 0.051959625 13926.31
0.13511461 -0.05 0.051814476 13945.466
0.1338877 -0.05 0.051668228 13967.541
0.13266759 -0.05 0.051520967 13985.485
0.13145422 -0.05 0.051372868 14004.915
0.13024759 -0.05 0.051223701 14026.744
0.12904768 -0.05 0.051073499 14046.719
0.12785442 -0.05 0.050922382 14066.825
0.12666779 -0.05 0.050770303 14087.462
0.12548777 -0.05 0.050617245 14108.523
0.12431431 -0.05 0.050463216 14129.08
0.12314738 -0.05 0.050308326 14148.426
0.12198694 -0.05 0.050152493 14170.832
0.12083299 -0.05 0.049995623 14192.549
0.11968547 -0.05 0.049837846 14213.336
0.11854435 -0.05 0.049679176 14234.558
0.11740961 -0.05 0.049519574 14256.107
0.11628122 -0.05 0.049359037 14277.791
0.11515913 -0.05 0.049197589 14299.213
0.11404333 -0.05 0.049035234 14320.852
0.11293377 -0.05 0.048871989 14342.189
0.11183042 -0.05 0.048707847 14364.127
0.11073327 -0.05 0.048542821 14385.9
0.10964229 -0.05 0.048376866 14409.385
0.10855744 -0.05 0.048209982 14431.772
0.10747868 -0.05 0.048042235 14454.539
0.106406 -0.05 0.04787359 14477.576
0.10533935 -0.05 0.047704062 14500.447
0.10427873 -0.05 0.047533647 14523.637
0.10322407 -0.05 0.047362394 14545.566
0.10217537 -0.05 0.04719032 14568.761
0.10113259 -0.05 0.047017348 14593.002
0.10009572 -0.05 0.046843455 14617.76
0.099064719 -0.05 0.046668685 14641.299
0.098039551 -0.05 0.046493118 14664.01
0.097020189 -0.05 0.046316733 14687.937
0.096006622 -0.05 0.046139442 14713.344
0.094998822 -0.05 0.045961241 14738.356
0.09399675 -0.05 0.045782217 14762.356
0.093000378 -0.05 0.045602371 14787.096
0.092009685 -0.05 0.045421665 14811.935
0.091024643 -0.05 0.045240119 14837.01
0.090045231 -0.05 0.045057701 14863.085
0.089071419 -0.05 0.044874428 14888.065
0.088103174 -0.05 0.044690349 14913.195
0.087140475 -0.05 0.044505439 14938.898
0.086183303 -0.05 0.044319663 14965.549
0.08523163 -0.05 0.044133032 14991.911
0.084285425 -0.05 0.043945577 15018.409
0.083344663 -0.05 0.043757308 15045.01
0.082409326 -0.05 0.043568191 15072.929
0.081479394 -0.05 0.04337819 15100.685
0.080554831 -0.05 0.043187382 15127.074
0.079635605 -0.05 0.042995792 15154.503
0.078721718 -0.05 0.042803304 15183.564
0.077813136 -0.05 0.042609969 15210.771
0.076909826 -0.05 0.042415818 15239.645
0.07601178 -0.05 0.042220793 15268.324
0.075118966 -0.05 0.042024933 15296.963
0.074231361 -0.05 0.041828237 15325.358
0.073348934 -0.05 0.04163074 15353.628
0.072471679 -0.05 0.041432371 15384.046
0.071599572 -0.05 0.041233139 15413.066
0.070732583 -0.05 0.041033074 15443.476
0.069870697 -0.05 0.040832148 15473.148
0.069013884 -0.05 0.040630397 15503.536
0.068162134 -0.05 0.040427777 15534.682
0.067315419 -0.05 0.040224307 15565.744
0.06647372 -0.05 0.040019973 15598.524
0.065637027 -0.05 0.039814748 15631.406
0.06480531 -0.05 0.039608654 15664.312
0.063978543 -0.05 0.039401719 15696.238
0.063156705 -0.05 0.039193946 15728.956
0.062339788 -0.05 0.038985286 15762.47
0.061527775 -0.05 0.038775725 15796.826
0.060720649 -0.05 0.038565255 15831.638
0.059918385 -0.05 0.038353894 15866.237
0.059120963 -0.05 0.03814165 15901.03
0.058328367 -0.05 0.037928504 15935.869
0.057540575 -0.05 0.037714473 15970.154
0.056757564 -0.05 0.037499567 16005.151
0.055979327 -0.05 0.037283751 16041.73
0.055205861 -0.05 0.03706696 16079.997
0.054437144 -0.05 0.036849222 16117.37
0.053673142 -0.05 0.036630582 16155.152
0.052913841 -0.05 0.036411033 16193.079
0.052159229 -0.05 0.036190552 16232.508
0.051409301 -0.05 0.035969101 16272.809
0.050664044 -0.05 0.035746666 16313.45
0.049923426 -0.05 0.035523297 16353.379
0.049187444 -0.05 0.035298949 16395.677
0.048456093 -0.05 0.035073588 16437.08
0.047729344 -0.05 0.034847258 16479.059
0.047007184 -0.05 0.034619944 16521.441
0.046289611 -0.05 0.034391604 16565.026
0.045576607 -0.05 0.034162252 16607.831
0.044868158 -0.05 0.033931882 16652.378
0.044164259 -0.05 0.033700465 16697.168
0.043464894 -0.05 0.033468005 16743.334
0.042770054 -0.05 0.033234487 16790.432
0.042079734 -0.05 0.032999885 16839.673
0.041393929 -0.05 0.032764174 16889.722
0.040712625 -0.05 0.032527361 16940.413
0.040035798 -0.05 0.032289471 16990.734
0.039363443 -0.05 0.032050489 17042.553
0.038695563 -0.05 0.031810365 17095.447
0.038032168 -0.05 0.031569045 17149.844
0.037373226 -0.05 0.031326581 17202.825
0.036718733 -0.05 0.03108296 17257.699
0.036068678 -0.05 0.030838173 17311.198
0.035423063 -0.05 0.030592193 17368.7
0.034781926 -0.05 0.030344893 17426.596
0.034145213 -0.05 0.030096392 17482.964
0.033512917 -0.05 0.029846677 17542.614
0.032885063 -0.05 0.029595666 17603.691
0.032261651 -0.05 0.029343341 17666.779
0.031642677 -0.05 0.029089693 17729.19
0.031028119 -0.05 0.028834753 17791.601
0.030417982 -0.05 0.028578493 17856.035
0.029812303 -0.05 0.028320809 17923.593
0.029211079 -0.05 0.0280617 17990.554
0.028614285 -0.05 0.027801211 18058.445
0.028021925 -0.05 0.027539318 18127.81
0.027434034 -0.05 0.027275938 18200.593
0.026850619 -0.05 0.027011044 18273.255
0.026271654 -0.05 0.026744689 18347.578
0.025697179 -0.05 0.02647678 18425.293
0.025127212 -0.05 0.026207275 18503.082
0.024561729 -0.05 0.025936225 18581.634
0.024000753 -0.05 0.025663583 18663.397
0.023444336 -0.05 0.025389243 18747.514
0.022892447 -0.05 0.025113275 18831.319
0.022345135 -0.05 0.024835581 18920.695
0.02180243 -0.05 0.024556113 19007.188
0.021264293 -0.05 0.024274957 19096.657
0.0207308 -0.05 0.023991978 19190.074
0.020201992 -0.05 0.023707108 19284.631
0.019677842 -0.05 0.023420417 19378.602
0.019158403 -0.05 0.023131824 19477.241
0.018643727 -0.05 0.022841258 19576.194
0.018133826 -0.05 0.022548716 19678.325
0.017628739 -0.05 0.022254151 19781.203
0.017128471 -0.05 0.021957583 19887.721
0.016633127 -0.05 0.021658866 20000.989
0.016142724 -0.05 0.021358 20115.776
0.015657283 -0.05 0.021054987 20238.742
0.015176888 -0.05 0.020749728 20367.333
0.014701579 -0.05 0.020442196 20502.133
0.014231398 -0.05 0.020132367 20641.428
0.013766434 -0.05 0.019820157 20787.018
0.013306742 -0.05 0.019505528 20934.334
0.012852374 -0.05 0.019188457 21086.986
0.012403439 -0.05 0.018868841 21242.653
0.01195997 -0.05 0.018546687 21401.445
0.011522076 -0.05 0.018221915 21565.311
0.011089809 -0.05 0.017894514 21732.195
0.0106633 -0.05 0.017564386 21907.773
0.010242659 -0.05 0.01723145 22085.048
0.009827894 -0.05 0.016895788 22268.643
0.0094192167 -0.05 0.016557218 22462.878
0.0090167438 -0.05 0.016215673 22658.636
0.0086204858 -0.05 0.015871238 22859.437
0.0082306648 -0.05 0.015523765 23070.836
0.0078474301 -0.05 0.015173187 23286.091
0.00747084 -0.05 0.014819531 23507.351
0.0071010571 -0.05 0.014462741 23735.88
0.0067383047 -0.05 0.014102727 23974.413
0.0063827544 -0.05 0.013739427 24218.562
0.0060345067 -0.05 0.013372862 24467.721
0.0056937565 -0.05 0.013003011 24723.197
0.0053606882 -0.05 0.012629837 24984.963
0.0050354824 -0.05 0.012253323 25256.434
0.0047183926 -0.05 0.01187344 25537.6
0.0044096379 -0.05 0.011490161 25828.522
0.0041094132 -0.05 0.011103483 26128.276
0.0038179536 -0.05 0.010713443 26436.381
0.0035354728 -0.05 0.01032007 26751.772
0.0032621919 -0.05 0.0099233916 27074.009
0.0029983702 -0.05 0.0095234712 27402.933
0.0027442429 -0.05 0.0091203468 27738.605
0.0025000604 -0.05 0.0087141009 28080.206
0.0022660754 -0.05 0.0083048554 28426.909
0.0020425146 -0.05 0.0078926699 28778.55
0.0018296563 -0.05 0.0074776735 29134.344
0.0016277487 -0.05 0.0070600557 29492.496
0.0014369745 -0.05 0.006639968 29853.533
0.0012575291 -0.05 0.0062175973 30215.478
0.0010896146 -0.05 0.0057931737 30576.445
0.00093341056 -0.05 0.0053669215 30934.5
0.00078906403 -0.05 0.0049390744 31287.943
0.00065670868 -0.05 0.0045099018 31635.743
0.00053653171 -0.05 0.0040796665 31977.476
0.00042862038 -0.05 0.003648665 32309.105
0.00033294635 -0.05 0.003217232 32629.457
0.00024951873 -0.05 0.002785685 32938.198
0.00017832254 -0.05 0.0023543467 33233.961
0.00011930806 -0.05 0.0019235435 33514.648
7.2389968e-05 -0.05 0.0014936046 33778.961
3.7448892e-05 -0.05 0.0010648563 34026.059
1.4332163e-05 -0.05 0.0006376208 34255.932
2.8544133e-06 -0.05 0.00021221054 34467.805
0.99884037 -0.05 0.00016828408 26814.068
0.99652103 -0.05 0.00050440213 26785.812
0.99420154 -0.05 0.0008395204 26737.138
0.99188191 -0.05 0.0011736208 26696.554
0.98956214 -0.05 0.0015067636 26654.498
0.98724223 -0.05 0.001838948 26614.224
0.9849222 -0.05 0.0021701636 26574.31
0.98260202 -0.05 0.0025004302 26535.036
0.98028169 -0.05 0.0028297328 26496.231
0.97796124 -0.05 0.0031580577 26457.793
0.97564065 -0.05 0.0034854377 26419.701
0.97331994 -0.05 0.0038118591 26381.918
0.97099908 -0.05 0.0041373159 26344.422
0.96867809 -0.05 0.0044618578 26307.125
0.96635696 -0.05 0.0047854478 26270.175
0.96403572 -0.05 0.0051081172 26233.299
0.96171435 -0.05 0.0054299032 26196.734
0.95939284 -0.05 0.0057507069 26160.428
0.95707121 -0.05 0.0060705875 26124.259
0.95474946 -0.05 0.0063895914 26088.322
0.95242757 -0.05 0.0067076389 26052.696
0.95010556 -0.05 0.0070248024 26017.079
0.94778344 -0.05 0.0073411105 25981.787
0.94546118 -0.05 0.0076564368 25946.789
0.94313881 -0.05 0.007970866 25911.867
0.94081631 -0.05 0.0082844406 25877.21
0.93849369 -0.05 0.0085971026 25842.794
0.93617096 -0.05 0.0089088655 25808.584
0.9338481 -0.05 0.0092197817 25774.497
0.93152513 -0.05 0.0095298292 25740.71
0.92920205 -0.05 0.00983897 25707.124
0.92687884 -0.05 0.010147248 25673.732
0.92455553 -0.05 0.01045465 25640.588
0.92223209 -0.05 0.010761189 25607.582
0.91990855 -0.05 0.011066875 25574.865
0.91758488 -0.05 0.011371653 25542.437
0.91526111 -0.05 0.011675608 25509.996
0.91293723 -0.05 0.011978761 25477.873
0.91061324 -0.05 0.012281 25446.072
0.90828913 -0.05 0.012582372 25414.349
0.90596492 -0.05 0.012882964 25382.752
0.90364059 -0.05 0.013182677 25351.651
0.90131615 -0.05 0.013481494 25320.604
0.89899162 -0.05 0.013779572 25289.523
0.89666698 -0.05 0.014076842 25258.905
0.89434222 -0.05 0.014373142 25228.667
0.89201737 -0.05 0.014668681 25198.099
0.88969241 -0.05 0.014963453 25168.138
0.88736734 -0.05 0.0152573 25138.342
0.88504217 -0.05 0.015550344 25108.603
0.8827169 -0.05 0.015842646 25078.943
0.88039152 -0.05 0.016134071 25049.856
0.87806604 -0.05 0.016424635 25020.668
0.87574046 -0.05 0.016714466 24991.673
0.87341478 -0.05 0.017003468 24962.968
0.871089 -0.05 0.017291665 24934.308
0.86876312 -0.05 0.017579058 24905.962
0.86643714 -0.05 0.017865646 24877.638
0.86411107 -0.05 0.018151445 24849.624
0.86178489 -0.05 0.018436407 24821.764
0.85945862 -0.05 0.018720606 24793.89
0.85713225 -0.05 0.019004019 24766.377
0.85480578 -0.05 0.019286574 24739.103
0.85247921 -0.05 0.019568355 24711.771
0.85015256 -0.05 0.019849418 24684.575
0.84782581 -0.05 0.020129657 24657.759
0.84549896 -0.05 0.020409081 24630.92
0.84317202 -0.05 0.020687756 24604.198
0.84084499 -0.05 0.020965643 24577.726
0.83851786 -0.05 0.021242672 24551.62
0.83619063 -0.05 0.021518954 24525.228
0.83386332 -0.05 0.021794529 24499.156
0.83153592 -0.05 0.022069294 24473.244
0.82920841 -0.05 0.022343258 24447.506
0.82688083 -0.05 0.02261648 24421.668
0.82455316 -0.05 0.022888925 24396.208
0.82222538 -0.05 0.023160547 24370.842
0.81989751 -0.05 0.023431389 24345.64
0.81756956 -0.05 0.023701494 24320.377
0.81524153 -0.05 0.023970846 24295.396
0.8129134 -0.05 0.024239417 24270.427
0.81058518 -0.05 0.02450723 24245.632
0.80825687 -0.05 0.024774258 24220.97
0.80592849 -0.05 0.02504053 24196.368
0.8036 -0.05 0.025306023 24171.984
0.80127144 -0.05 0.025570774 24147.446
0.79894279 -0.05 0.025834763 24123.32
0.79661404 -0.05 0.026097924 24099.229
0.79428522 -0.05 0.026360374 24075.028
0.79195631 -0.05 0.026622048 24051.279
0.78962731 -0.05 0.026882938 24027.333
0.78729823 -0.05 0.027143126 24003.547
0.78496906 -0.05 0.027402517 23979.997
0.78263981 -0.05 0.02766117 23956.2
0.78031048 -0.05 0.027919081 23932.824
0.77798106 -0.05 0.028176144 23909.59
0.77565155 -0.05 0.028432494 23886.082
0.77332196 -0.05 0.028688107 23862.991
0.77099228 -0.05 0.028942908 23839.879
0.76866253 -0.05 0.029196968 23816.79
0.7663327 -0.05 0.029450285 23793.787
0.76400278 -0.05 0.029702803 23771.018
0.76167277 -0.05 0.029954568 23748.092
0.75934268 -0.05 0.030205573 23725.516
0.75701251 -0.05 0.030455803 23702.788
0.75468227 -0.05 0.030705313 23680.177
0.75235193 -0.05 0.030954045 23657.678
0.75002152 -0.05 0.031202018 23635.178
0.74769103 -0.05 0.031449207 23612.928
0.74536045 -0.05 0.031695625 23590.571
0.7430298 -0.05 0.031941289 23568.389
0.74069906 -0.05 0.032186181 23546.18
0.73836824 -0.05 0.032430305 23524.16
0.73603734 -0.05 0.032673645 23502.185
0.73370637 -0.05 0.032916233 23480.147
0.73137531 -0.05 0.033158092 23458.096
0.72904417 -0.05 0.033399148 23436.411
0.72671295 -0.05 0.033639377 23414.702
0.72438166 -0.05 0.03387888 23392.815
0.72205028 -0.05 0.034117645 23371.104
0.71971882 -0.05 0.034355552 23349.737
0.71738729 -0.05 0.034592685 23327.98
0.71505567 -0.05 0.034829099 23306.463
0.71272397 -0.05 0.035064674 23285.091
0.71039219 -0.05 0.035299486 23263.482
0.70806035 -0.05 0.035533544 23242.134
0.70572841 -0.05 0.035766778 23220.796
0.70339641 -0.05 0.035999269 23199.304
0.70106433 -0.05 0.03623098 23178.031
0.69873216 -0.05 0.036461892 23156.653
0.69639992 -0.05 0.036691978 23135.55
0.69406759 -0.05 0.036921269 23114.217
0.69173519 -0.05 0.03714974 23093.362
0.68940271 -0.05 0.037377398 23072.151
0.68707015 -0.05 0.037604327 23051.012
0.68473752 -0.05 0.03783047 23029.839
0.68240481 -0.05 0.038055756 23009.014
0.68007201 -0.05 0.038280206 22987.989
0.67773914 -0.05 0.038503859 22967.149
0.67540619 -0.05 0.03872673 22946.057
0.67307317 -0.05 0.038948784 22925.287
0.67074007 -0.05 0.039170028 22904.176
0.66840689 -0.05 0.039390456 22883.427
0.66607364 -0.05 0.039610024 22862.492
0.6637403 -0.05 0.039828774 22841.756
0.66140688 -0.05 0.040046679 22820.944
0.6590734 -0.05 0.040263799 22800.006
0.65673983 -0.05 0.040480084 22779.289
0.65440618 -0.05 0.040695489 22758.544
0.65207246 -0.05 0.040910082 22737.667
0.64973866 -0.05 0.041123838 22716.887
0.64740478 -0.05 0.04133674 22695.98
0.64507083 -0.05 0.041548788 22675.186
0.6427368 -0.05 0.04175995 22654.352
0.64040268 -0.05 0.041970278 22633.351
0.6380685 -0.05 0.042179753 22612.433
0.63573424 -0.05 0.042388355 22591.394
0.63339989 -0.05 0.042596094 22570.389
0.63106547 -0.05 0.042802945 22549.313
0.62873097 -0.05 0.04300894 22528.089
0.6263964 -0.05 0.043214055 22506.925
0.62406174 -0.05 0.043418269 22485.644
0.62172702 -0.05 0.043621601 22464.265
0.61939221 -0.05 0.043824069 22442.653
0.61705733 -0.05 0.044025645 22421.09
0.61472237 -0.05 0.044226271 22399.472
0.61238733 -0.05 0.044426006 22377.548
0.61005222 -0.05 0.04462488 22355.465
0.60771702 -0.05 0.044822825 22333.34
0.60538174 -0.05 0.045019806 22311.109
0.6030464 -0.05 0.045215861 22288.61
0.60071097 -0.05 0.045411024 22265.881
0.59837546 -0.05 0.045605254 22243.012
0.59603988 -0.05 0.045798556 22219.774
0.59370423 -0.05 0.045990938 22196.312
0.59136849 -0.05 0.046182352 22172.612
0.58903267 -0.05 0.046372791 22148.646
0.58669678 -0.05 0.046562266 22124.324
0.5843608 -0.05 0.046750814 22099.545
0.58202475 -0.05 0.046938396 22074.545
0.57968862 -0.05 0.047124972 22049.135
0.57735242 -0.05 0.047310579 22023.249
0.57501614 -0.05 0.047495251 21996.775
0.57267978 -0.05 0.047678924 21970.002
0.57034334 -0.05 0.04786155 21942.664
0.56800683 -0.05 0.048043188 21914.717
0.56567024 -0.05 0.048223861 21886.064
0.56333356 -0.05 0.048403536 21856.85
0.56099681 -0.05 0.048582153 21827.013
0.55865998 -0.05 0.04875972 21796.442
0.55632308 -0.05 0.048936314 21764.946
0.55398609 -0.05 0.049111879 21732.829
0.55164903 -0.05 0.049286359 21699.756
0.54931189 -0.05 0.049459794 21665.822
0.54697467 -0.05 0.049632163 21630.903
0.54463737 -0.05 0.049803468 21594.969
0.5423 -0.05 0.049973719 21557.886
0.53996254 -0.05 0.050142913 21519.661
0.53762502 -0.05 0.050311035 21480.204
0.53528742 -0.05 0.050478054 21439.547
0.53294973 -0.05 0.050643972 21397.504
0.53061196 -0.05 0.050808824 21354.068
0.52827412 -0.05 0.050972558 21309.205
0.5259362 -0.05 0.051135143 21262.799
0.5235982 -0.05 0.051296612 21214.756
0.52126012 -0.05 0.051456922 21165.099
0.51892198 -0.05 0.051616121 21113.561
0.51658374 -0.05 0.051774162 21060.367
0.51424543 -0.05 0.051931036 21005.087
0.51190704 -0.05 0.05208678 20947.949
0.50956857 -0.05 0.052241321 20888.696
0.50723003 -0.05 0.052394685 20827.343
0.50489141 -0.05 0.052546885 20763.729
0.50255271 -0.05 0.05269791 20697.874
0.50021394 -0.05 0.052847701 20629.575
0.49787509 -0.05 0.052996281 20558.74
0.49553616 -0.05 0.053143654 20485.397
0.49319715 -0.05 0.053289801 20409.468
0.49085807 -0.05 0.053434697 20330.899
0.48851891 -0.05 0.05357832 20249.611
0.48617967 -0.05 0.053720679 20165.52
0.48384036 -0.05 0.053861795 20078.552
0.48150096 -0.05 0.054001669 19988.64
0.4791615 -0.05 0.054140241 19895.73
0.47682195 -0.05 0.054277501 19799.769
0.47448234 -0.05 0.054413462 19700.81
0.47214264 -0.05 0.054548109 19598.806
0.46980287 -0.05 0.054681459 19493.667
0.46746302 -0.05 0.054813494 19385.297
0.4651231 -0.05 0.054944177 19273.44
0.4627831 -0.05 0.055073496 19157.922
0.46044304 -0.05 0.055201437 19038.568
0.45810288 -0.05 0.055328007 18915.153
0.45576266 -0.05 0.055453195 18787.438
0.45342237 -0.05 0.055576996 18655.071
0.451082 -0.05 0.05569938 18517.11
0.44874156 -0.05 0.055820362 18372.07
0.44640104 -0.05 0.055939944 18216.55
0.44406046 -0.05 0.056058044 18046.097
0.4417198 -0.05 0.056174717 17853.887
0.43937906 -0.05 0.05628996 17632.329
0.43703826 -0.05 0.056403696 17373.412
0.43469738 -0.05 0.056515954 17067.004
0.43235643 -0.05 0.056626691 16689.856
0.43001541 -0.05 0.056735938 16216.714
0.42767432 -0.05 0.056843696 15635.706
0.42533317 -0.05 0.056949929 14967.877
0.42299193 -0.05 0.057054582 14277.763
0.42065064 -0.05 0.05715767 13647.257
0.41830927 -0.05 0.057259222 13139.317
0.41596783 -0.05 0.057359191 12768.454
0.41362633 -0.05 0.057457551 12518.958
0.41128476 -0.05 0.057554292 12359.131
0.40894313 -0.05 0.057649427 12261.558
0.40660142 -0.05 0.057742965 12202.812
0.40425966 -0.05 0.057834838 12169.59
0.40191783 -0.05 0.057925023 12151.148
0.39957593 -0.05 0.058013541 12142.223
0.39723398 -0.05 0.058100378 12138.236
0.39489196 -0.05 0.058185525 12137.085
0.39254988 -0.05 0.058268918 12137.014
0.39020774 -0.05 0.058350591 12138.093
0.38786553 -0.05 0.058430541 12140.317
0.38552326 -0.05 0.058508715 12143.513
0.38318094 -0.05 0.058585094 12147.112
0.38083857 -0.05 0.058659688 12150.945
0.37849613 -0.05 0.058732482 12155.031
0.37615364 -0.05 0.058803471 12159.247
0.37381109 -0.05 0.058872605 12164.219
0.37146848 -0.05 0.058939856 12169.146
0.36912583 -0.05 0.059005237 12174.388
0.36678312 -0.05 0.059068742 12179.599
0.36444037 -0.05 0.059130353 12185.241
0.36209757 -0.05 0.059190049 12190.888
0.35975471 -0.05 0.059247824 12197.001
0.35741181 -0.05 0.059303603 12203.743
0.35506885 -0.05 0.059357402 12210.125
0.35272586 -0.05 0.059409225 12217.034
0.35038283 -0.05 0.059459045 12223.708
0.34803975 -0.05 0.059506859 12230.877
0.34569662 -0.05 0.059552581 12238.413
0.34335347 -0.05 0.059596249 12245.376
0.34101027 -0.05 0.059637862 12253.272
0.33866703 -0.05 0.059677333 12261.377
0.33632377 -0.05 0.059714702 12269.457
0.33398046 -0.05 0.059749909 12278.404
0.33163713 -0.05 0.059782951 12286.685
0.32929376 -0.05 0.059813858 12295.571
0.32695037 -0.05 0.059842535 12304.97
0.32460696 -0.05 0.059868968 12314.457
0.32226351 -0.05 0.059893141 12324.295
0.31992004 -0.05 0.059915067 12333.741
0.31757656 -0.05 0.059934727 12343.854
0.31523306 -0.05 0.059952066 12354.047
0.31288954 -0.05 0.059967055 12364.786
0.31054601 -0.05 0.059979678 12375.289
0.30820247 -0.05 0.059989926 12386.116
0.30585891 -0.05 0.059997793 12396.665
0.30351535 -0.05 0.060003209 12408.462
0.30117178 -0.05 0.060006157 12420.365
