/*--------------------------------*- C++ -*----------------------------------*\
| =========                 |                                                 |
| \\      /  F ield         | OpenFOAM: The Open Source CFD Toolbox           |
|  \\    /   O peration     | Version:  2306                                  |
|   \\  /    A nd           | Website:  www.openfoam.com                      |
|    \\/     M anipulation  |                                                 |
\*---------------------------------------------------------------------------*/
FoamFile
{
    version     2.0;
    format      ascii;
    arch        "LSB;label=32;scalar=64";
    class       volScalarField;
    location    "925";
    object      magR;
}
// * * * * * * * * * * * * * * * * * * * * * * * * * * * * * * * * * * * * * //

dimensions      [0 2 -2 0 0 0 0];

internalField   nonuniform List<scalar> 
1340
(
31.2637
24.7687
18.4844
6.84116
11.7093
10.4237
9.11428
10.5253
14.8934
12.9424
10.7212
12.0695
15.3166
14.4039
12.6079
13.5662
9.97419
12.3864
12.8389
14.2836
2.28004
6.36691
10.2635
13.6325
0.155256
1.04628
5.23282
10.9384
0.0105111
0.12885
1.18872
6.55527
0.00112555
0.040236
0.164995
2.60904
0
0
0.0574415
0.673041
0
0
0.00305808
0.171973
2.91871e-06
0
0.000986063
0.059824
4.46315e-05
6.55078e-08
0.00031262
0.0198801
9.46243e-05
1.02178e-07
3.11235e-05
0.00499216
8.71613e-05
4.39163e-05
4.27778e-07
0.00032968
7.01096e-05
8.42065e-05
1.7785e-07
2.20833e-05
6.12028e-05
9.21316e-05
4.70534e-07
4.42997e-10
5.95336e-05
7.80953e-05
2.9469e-05
5.93154e-07
5.99577e-05
6.37631e-05
5.98678e-05
7.09015e-06
5.95694e-05
5.62516e-05
6.43948e-05
3.00784e-05
5.79153e-05
5.32961e-05
5.79339e-05
4.69243e-05
5.55707e-05
5.17721e-05
5.1424e-05
5.08161e-05
5.30566e-05
5.01242e-05
4.71792e-05
4.83088e-05
5.05828e-05
4.80488e-05
4.43869e-05
4.44361e-05
4.81729e-05
4.57192e-05
4.21057e-05
4.09037e-05
4.57899e-05
4.33185e-05
3.98975e-05
3.78856e-05
4.34171e-05
4.09404e-05
3.76742e-05
3.52129e-05
4.1056e-05
3.86069e-05
3.54635e-05
3.27621e-05
3.87113e-05
3.63189e-05
3.32943e-05
3.04748e-05
3.63993e-05
3.40837e-05
3.11901e-05
2.83358e-05
3.41319e-05
3.19073e-05
2.91535e-05
2.63327e-05
3.19149e-05
2.97979e-05
2.71959e-05
2.44554e-05
2.97603e-05
2.77575e-05
2.53165e-05
2.26977e-05
2.93582e-05
2.76757e-05
2.57968e-05
2.3518e-05
2.10481e-05
2.72145e-05
2.56676e-05
2.39193e-05
2.18063e-05
1.95003e-05
2.51562e-05
2.37438e-05
2.21273e-05
2.01814e-05
1.80487e-05
2.31905e-05
2.19079e-05
2.04241e-05
1.86434e-05
1.6687e-05
2.13228e-05
2.01646e-05
1.88117e-05
1.71922e-05
1.54107e-05
1.95563e-05
1.85165e-05
1.72913e-05
1.58276e-05
1.42152e-05
1.78935e-05
1.69649e-05
1.58619e-05
1.45476e-05
1.30968e-05
1.63354e-05
1.55104e-05
1.45234e-05
1.33498e-05
1.20514e-05
1.48818e-05
1.41523e-05
1.32741e-05
1.22323e-05
1.10755e-05
1.35311e-05
1.2889e-05
1.21118e-05
1.11916e-05
1.01659e-05
1.2281e-05
1.17184e-05
1.10336e-05
1.02254e-05
9.31895e-06
1.11282e-05
1.06372e-05
1.00367e-05
9.32997e-06
8.532e-06
1.0416e-05
1.00689e-05
9.64173e-06
9.11737e-06
8.50196e-06
7.80192e-06
9.39868e-06
9.09855e-06
8.72822e-06
8.27193e-06
7.73811e-06
7.12573e-06
8.47132e-06
8.21221e-06
7.89209e-06
7.49636e-06
7.03499e-06
6.50063e-06
7.62821e-06
7.40495e-06
7.12884e-06
6.78654e-06
6.38893e-06
5.92379e-06
6.8636e-06
6.6714e-06
6.43373e-06
6.13845e-06
5.79657e-06
5.3926e-06
6.17175e-06
6.00647e-06
5.80211e-06
5.54779e-06
5.25447e-06
4.90429e-06
5.54687e-06
5.40481e-06
5.22935e-06
5.01065e-06
4.75933e-06
4.4562e-06
4.98355e-06
4.86143e-06
4.71082e-06
4.52295e-06
4.30787e-06
4.04585e-06
4.47646e-06
4.37143e-06
4.24221e-06
4.0809e-06
3.8969e-06
3.67069e-06
4.09264e-06
4.02055e-06
3.9302e-06
3.81926e-06
3.6808e-06
3.52338e-06
3.32828e-06
3.67352e-06
3.61113e-06
3.53327e-06
3.438e-06
3.31913e-06
3.1844e-06
3.01625e-06
3.29794e-06
3.24384e-06
3.17665e-06
3.09472e-06
2.99259e-06
2.87717e-06
2.73232e-06
2.96169e-06
2.91465e-06
2.85654e-06
2.78595e-06
2.69807e-06
2.59906e-06
2.47435e-06
2.66085e-06
2.61983e-06
2.56944e-06
2.50848e-06
2.43277e-06
2.34765e-06
2.24024e-06
2.39161e-06
2.35577e-06
2.31199e-06
2.25927e-06
2.1939e-06
2.12058e-06
2.02808e-06
2.15014e-06
2.11887e-06
2.08085e-06
2.03524e-06
1.97881e-06
1.91555e-06
1.83596e-06
1.95513e-06
1.93279e-06
1.90558e-06
1.87267e-06
1.8333e-06
1.78467e-06
1.73014e-06
1.66182e-06
1.75635e-06
1.73677e-06
1.71311e-06
1.68465e-06
1.65073e-06
1.60892e-06
1.56201e-06
1.50364e-06
1.57764e-06
1.5603e-06
1.53957e-06
1.51482e-06
1.48552e-06
1.44955e-06
1.40918e-06
1.35943e-06
1.41799e-06
1.40238e-06
1.38395e-06
1.3622e-06
1.33665e-06
1.30551e-06
1.27064e-06
1.22828e-06
1.27519e-06
1.26086e-06
1.24415e-06
1.2247e-06
1.20208e-06
1.17472e-06
1.14423e-06
1.1078e-06
1.15263e-06
1.13959e-06
1.12448e-06
1.107e-06
1.08682e-06
1.06242e-06
1.03532e-06
1.00325e-06
1.05489e-06
1.04292e-06
1.02917e-06
1.0134e-06
9.95206e-07
9.73137e-07
9.48658e-07
9.21324e-07
9.80538e-07
9.70814e-07
9.58858e-07
9.45516e-07
9.30635e-07
9.13695e-07
8.93417e-07
8.70626e-07
8.46301e-07
9.05791e-07
8.96201e-07
8.84401e-07
8.7129e-07
8.56822e-07
8.40521e-07
8.21393e-07
8.00426e-07
7.80155e-07
8.27461e-07
8.17587e-07
8.05786e-07
7.92819e-07
7.78692e-07
7.62932e-07
7.44431e-07
7.23194e-07
7.00909e-07
7.64265e-07
7.55281e-07
7.44392e-07
7.32198e-07
7.18737e-07
7.03813e-07
6.86913e-07
6.69577e-07
6.56282e-07
6.75687e-07
6.65656e-07
6.54309e-07
6.42143e-07
6.29141e-07
6.14677e-07
5.97269e-07
5.7541e-07
5.50874e-07
6.47368e-07
6.39047e-07
6.28983e-07
6.17577e-07
6.05123e-07
5.91941e-07
5.78741e-07
5.68876e-07
5.68231e-07
5.2361e-07
5.14044e-07
5.03601e-07
4.92354e-07
4.80107e-07
4.65782e-07
4.46572e-07
4.20306e-07
3.88585e-07
6.0088e-07
5.9504e-07
5.87516e-07
5.78285e-07
5.68323e-07
5.5908e-07
5.54806e-07
5.62283e-07
5.81441e-07
4.67541e-07
4.66814e-07
4.63447e-07
4.574e-07
4.49006e-07
4.3759e-07
4.219e-07
4.12683e-07
3.9614e-07
8.07737e-07
7.89275e-07
7.8963e-07
7.89761e-07
7.88812e-07
7.87642e-07
7.88799e-07
8.03596e-07
8.39826e-07
8.58483e-07
8.65739e-07
8.60626e-07
8.65761e-07
8.72043e-07
8.77377e-07
8.8213e-07
8.88817e-07
9.11109e-07
9.4874e-07
9.46708e-07
1.4653e-06
1.23818e-06
1.25567e-06
1.27063e-06
1.27953e-06
1.28975e-06
1.30338e-06
1.33018e-06
1.35337e-06
1.15709e-06
18.6555
8.56198
3.81073
11.0666
14.7787
15.5208
13.8417
9.99146
5.12915
1.55037
0.25838
0.0519156
0.0173115
0.0043886
0.000194002
1.07876e-05
0
9.5847e-08
1.98567e-06
2.11045e-05
3.8354e-05
4.34066e-05
4.16247e-05
3.81877e-05
3.50064e-05
3.2345e-05
3.00305e-05
2.79314e-05
2.59826e-05
2.41679e-05
2.24784e-05
2.09055e-05
1.94421e-05
1.80762e-05
1.67992e-05
1.56054e-05
1.44867e-05
1.34377e-05
1.2454e-05
1.15309e-05
1.06646e-05
9.85175e-06
9.09047e-06
8.37682e-06
7.70946e-06
7.08618e-06
6.50474e-06
5.96338e-06
5.46024e-06
4.99355e-06
4.5616e-06
4.16244e-06
3.79447e-06
3.45587e-06
3.1449e-06
2.85985e-06
2.59901e-06
2.36074e-06
2.14342e-06
1.94552e-06
1.76554e-06
1.60181e-06
1.45265e-06
1.31619e-06
1.19177e-06
1.0768e-06
9.76113e-07
8.98433e-07
8.24256e-07
7.64564e-07
6.79321e-07
6.50337e-07
5.22853e-07
5.79406e-07
3.45048e-07
6.10659e-07
3.54491e-07
8.57985e-07
8.80281e-07
1.08621e-06
13.5007
12.7722
6.12778
3.40936
8.50008
11.4889
11.8239
9.80311
6.10089
2.33493
0.378536
0.0273191
0.00686189
0.0024806
0.000198069
1.53339e-05
0
2.70628e-08
5.7384e-07
1.11395e-05
2.3492e-05
2.82269e-05
2.80127e-05
2.63242e-05
2.46272e-05
2.31848e-05
2.19088e-05
2.07155e-05
1.95711e-05
1.84728e-05
1.74224e-05
1.64202e-05
1.54664e-05
1.45565e-05
1.36878e-05
1.28594e-05
1.20677e-05
1.13118e-05
1.059e-05
9.90095e-06
9.24319e-06
8.61595e-06
8.01924e-06
7.45109e-06
6.91191e-06
6.40125e-06
5.91824e-06
5.46257e-06
5.03379e-06
4.63128e-06
4.25454e-06
3.90268e-06
3.57503e-06
3.2707e-06
2.98874e-06
2.72815e-06
2.4879e-06
2.26689e-06
2.064e-06
1.87814e-06
1.70819e-06
1.55282e-06
1.4107e-06
1.28019e-06
1.16082e-06
1.05023e-06
9.52574e-07
8.76893e-07
8.0338e-07
7.47035e-07
6.61386e-07
6.36992e-07
5.06838e-07
5.69507e-07
3.30683e-07
5.9944e-07
3.42238e-07
8.37007e-07
8.55413e-07
8.78897
10.6064
8.51228
3.74656
2.82736
7.03439
9.4645
9.54299
7.47379
4.12205
1.22025
0.111921
0.00476316
0.000700188
0.000231575
0
0
1.40901e-09
2.93863e-08
4.66592e-06
1.30125e-05
1.72054e-05
1.77674e-05
1.71073e-05
1.63624e-05
1.57582e-05
1.52437e-05
1.47531e-05
1.42542e-05
1.37418e-05
1.32176e-05
1.26852e-05
1.21491e-05
1.16101e-05
1.10706e-05
1.05336e-05
1.00004e-05
9.47427e-06
8.95639e-06
8.4488e-06
7.95283e-06
7.4702e-06
7.00261e-06
6.55001e-06
6.11431e-06
5.69622e-06
5.29604e-06
4.91446e-06
4.55178e-06
4.20821e-06
3.8839e-06
3.57857e-06
3.29217e-06
3.02426e-06
2.77441e-06
2.54208e-06
2.3266e-06
2.12729e-06
1.94333e-06
1.77395e-06
1.61833e-06
1.47541e-06
1.34415e-06
1.22311e-06
1.11191e-06
1.00856e-06
9.1649e-07
8.4523e-07
7.74383e-07
7.22877e-07
6.38954e-07
6.18951e-07
4.90413e-07
5.55094e-07
3.22826e-07
5.84592e-07
3.4036e-07
8.19187e-07
5.76384
7.85725
8.10183
6.01328
2.36348
2.36512
5.78811
7.77344
7.79223
5.94888
3.08114
0.813476
0.0625442
0.000427541
0.000141545
0
0
0
1.16488e-07
2.36929e-06
9.16326e-06
1.3623e-05
1.45831e-05
1.40395e-05
1.32932e-05
1.27077e-05
1.22558e-05
1.18599e-05
1.14801e-05
1.11045e-05
1.07286e-05
1.03512e-05
9.97212e-06
9.5895e-06
9.20303e-06
8.81342e-06
8.4214e-06
8.02888e-06
7.63683e-06
7.24711e-06
6.86123e-06
6.48102e-06
6.10811e-06
5.7433e-06
5.38855e-06
5.04478e-06
4.7128e-06
4.39371e-06
4.08795e-06
3.79617e-06
3.51882e-06
3.2559e-06
3.00774e-06
2.77414e-06
2.55498e-06
2.35004e-06
2.1589e-06
1.98115e-06
1.81626e-06
1.66365e-06
1.52277e-06
1.39278e-06
1.27291e-06
1.16189e-06
1.05939e-06
9.63763e-07
8.77791e-07
8.11828e-07
7.44421e-07
6.97932e-07
6.16119e-07
6.00409e-07
4.74154e-07
5.40678e-07
3.15725e-07
5.71018e-07
3.37422e-07
3.49919
5.45201
6.61037
6.36328
4.56222
1.71456
1.91555
4.68331
6.34516
6.39696
4.85658
2.46934
0.642929
0.0475135
0.00332539
0
0
0
4.64949e-10
9.46952e-09
4.81042e-06
1.05888e-05
1.21376e-05
1.18381e-05
1.12417e-05
1.07162e-05
1.03049e-05
9.95749e-06
9.62903e-06
9.30538e-06
8.98528e-06
8.66938e-06
8.35748e-06
8.0483e-06
7.74056e-06
7.43352e-06
7.12694e-06
6.82112e-06
6.5159e-06
6.21192e-06
5.90987e-06
5.61061e-06
5.31505e-06
5.02386e-06
4.73838e-06
4.4593e-06
4.1875e-06
3.92404e-06
3.66937e-06
3.42427e-06
3.18938e-06
2.96494e-06
2.75141e-06
2.5489e-06
2.35756e-06
2.17738e-06
2.00822e-06
1.8499e-06
1.70215e-06
1.5646e-06
1.43691e-06
1.31848e-06
1.20875e-06
1.10668e-06
1.01194e-06
9.23257e-07
8.42706e-07
7.8143e-07
7.17065e-07
6.74947e-07
5.94961e-07
5.83135e-07
4.58663e-07
5.27586e-07
3.07946e-07
5.60097e-07
1.74616
3.37932
4.81805
5.54135
5.19141
3.70221
1.41476
1.47565
3.78122
5.23501
5.35901
4.11244
2.12853
0.579402
0.0509577
0.00311798
6.15551e-07
0
0
8.41222e-10
1.43395e-08
4.84124e-06
8.98874e-06
9.2107e-06
8.62061e-06
8.25746e-06
8.01187e-06
7.80537e-06
7.61562e-06
7.42519e-06
7.22748e-06
7.02411e-06
6.81698e-06
6.60655e-06
6.39252e-06
6.17492e-06
5.95432e-06
5.73135e-06
5.50611e-06
5.27924e-06
5.05149e-06
4.82332e-06
4.59557e-06
4.36889e-06
4.14422e-06
3.92224e-06
3.70382e-06
3.48991e-06
3.28101e-06
3.07796e-06
2.88151e-06
2.69208e-06
2.51023e-06
2.33627e-06
2.17059e-06
2.01334e-06
1.86461e-06
1.72443e-06
1.59273e-06
1.46933e-06
1.35407e-06
1.24657e-06
1.14646e-06
1.0529e-06
9.65581e-07
8.83569e-07
8.08212e-07
7.51321e-07
6.89841e-07
6.51856e-07
5.73753e-07
5.65723e-07
4.42977e-07
5.14568e-07
0.577976
1.67554
3.02305
4.15777
4.69798
4.39006
3.18436
1.30853
1.05551
3.02902
4.34854
4.56157
3.58746
1.93187
0.574917
0.0646061
0.000179064
3.66284e-05
0
0
1.08825e-11
2.59463e-07
4.22369e-06
7.53447e-06
7.19234e-06
6.49826e-06
6.24006e-06
6.11307e-06
5.98539e-06
5.86106e-06
5.74053e-06
5.61717e-06
5.48951e-06
5.35797e-06
5.22167e-06
5.07973e-06
4.9322e-06
4.77946e-06
4.62166e-06
4.45945e-06
4.29345e-06
4.1242e-06
3.95261e-06
3.77933e-06
3.60518e-06
3.43099e-06
3.25754e-06
3.08573e-06
2.91616e-06
2.74966e-06
2.58699e-06
2.42868e-06
2.27536e-06
2.12745e-06
1.98544e-06
1.8496e-06
1.72018e-06
1.59734e-06
1.48115e-06
1.37157e-06
1.26858e-06
1.17197e-06
1.0815e-06
9.96576e-07
9.16832e-07
8.41683e-07
7.71728e-07
7.19403e-07
6.61008e-07
6.27297e-07
5.51365e-07
5.47288e-07
0.0767483
0.522878
1.45538
2.58935
3.55032
4.02927
3.81907
2.86392
1.31588
0.669697
2.3842
3.61152
3.91828
3.18973
1.80882
0.600272
0.080845
0.000642902
8.28663e-05
0
0
0
1.94794e-07
3.04639e-06
6.26287e-06
5.94041e-06
5.20004e-06
4.97696e-06
4.91032e-06
4.816e-06
4.71014e-06
4.6119e-06
4.51703e-06
4.42113e-06
4.32293e-06
4.22156e-06
4.11627e-06
4.00683e-06
3.89288e-06
3.77452e-06
3.65195e-06
3.52544e-06
3.39562e-06
3.26292e-06
3.12797e-06
2.9915e-06
2.85414e-06
2.71667e-06
2.57968e-06
2.44391e-06
2.31007e-06
2.17868e-06
2.05043e-06
1.92568e-06
1.805e-06
1.68873e-06
1.57717e-06
1.47057e-06
1.36906e-06
1.27273e-06
1.18162e-06
1.09566e-06
1.01472e-06
9.38388e-07
8.66249e-07
7.98057e-07
7.33656e-07
6.86067e-07
6.30939e-07
0.000661083
0.0561716
0.406725
1.17419
2.14519
3.00345
3.47872
3.38339
2.65013
1.37548
0.346025
1.82706
2.98631
3.38352
2.87136
1.72859
0.63428
0.101824
0.00213235
0.000152698
0
0
0
1.07563e-07
1.59293e-06
4.9168e-06
4.97239e-06
4.22602e-06
3.98848e-06
3.96979e-06
3.92255e-06
3.84329e-06
3.76511e-06
3.69171e-06
3.6181e-06
3.5421e-06
3.46316e-06
3.38118e-06
3.29572e-06
3.20665e-06
3.11394e-06
3.01768e-06
2.91818e-06
2.8157e-06
2.71064e-06
2.60348e-06
2.4947e-06
2.38493e-06
2.2746e-06
2.16436e-06
2.05481e-06
1.9464e-06
1.83979e-06
1.73531e-06
1.6335e-06
1.53473e-06
1.43932e-06
1.34755e-06
1.25962e-06
1.17563e-06
1.09571e-06
1.01986e-06
9.48044e-07
8.8002e-07
8.15285e-07
7.53941e-07
0.000163591
0.000254855
0.0310771
0.275976
0.88323
1.71782
2.50781
3.00364
3.02468
2.48887
1.44947
0.213318
1.3453
2.4488
2.92687
2.60459
1.66817
0.672708
0.127728
0.00503225
0.000223134
0
0
0
3.33906e-08
4.32741e-07
3.58665e-06
4.27284e-06
3.58408e-06
3.24878e-06
3.20866e-06
3.18851e-06
3.13624e-06
3.07832e-06
3.02385e-06
2.96936e-06
2.9124e-06
2.8526e-06
2.78973e-06
2.7236e-06
2.65412e-06
2.58132e-06
2.50538e-06
2.42651e-06
2.34496e-06
2.26107e-06
2.17522e-06
2.08791e-06
1.99946e-06
1.91038e-06
1.8212e-06
1.73229e-06
1.64421e-06
1.5573e-06
1.47202e-06
1.38874e-06
1.30776e-06
1.22939e-06
1.15383e-06
1.08121e-06
1.0117e-06
9.45335e-07
0
1.21886e-06
0.00101135
0.0125334
0.162494
0.615233
1.3212
2.05424
2.57712
2.70801
2.34915
1.51763
0.3806
0.929096
1.98122
2.52731
2.36994
1.6139
0.711451
0.157732
0.0097328
0.000318437
0
0
0
1.10009e-09
3.41461e-09
2.02445e-06
3.38107e-06
3.03262e-06
2.69922e-06
2.628e-06
2.61271e-06
2.57671e-06
2.53288e-06
2.49111e-06
2.44955e-06
2.40604e-06
2.36007e-06
2.31142e-06
2.25985e-06
2.20528e-06
2.14777e-06
2.08746e-06
2.0245e-06
1.95914e-06
1.89169e-06
1.82253e-06
1.75192e-06
1.68027e-06
1.60803e-06
1.5355e-06
1.46317e-06
1.39133e-06
1.32039e-06
1.25069e-06
1.18251e-06
6.76921e-15
0
0
0.000822223
0.00330327
0.080791
0.391415
0.966151
1.63828
2.18284
2.41262
2.2125
1.56815
0.589884
0.570197
1.56976
2.17004
2.15443
1.55935
0.747382
0.190656
0.0168478
0.000522012
1.55772e-07
0
0
3.33632e-12
9.0857e-08
1.33215e-06
2.63736e-06
2.54185e-06
2.25612e-06
2.17402e-06
2.16081e-06
2.13537e-06
2.10127e-06
2.06817e-06
2.03541e-06
2.00101e-06
1.96446e-06
1.9256e-06
1.88428e-06
1.84043e-06
1.79411e-06
1.74538e-06
1.69441e-06
1.64139e-06
1.58664e-06
1.53036e-06
1.47286e-06
7.88738e-11
1.0083e-11
0
0
0.000412756
0.000367591
0.0321512
0.222545
0.663116
1.26085
1.81336
2.1267
2.06789
1.59326
0.77206
0.267697
1.20536
1.84539
1.95074
1.50068
0.777998
0.225867
0.0248594
6.9074e-05
1.18978e-05
0
0
0
5.60164e-08
7.95751e-07
2.07475e-06
2.14546e-06
1.8966e-06
1.80785e-06
1.79734e-06
1.7801e-06
1.75275e-06
1.72564e-06
)
;

boundaryField
{
    inlet
    {
        type            calculated;
        value           nonuniform List<scalar> 
11
(
6.4831e-06
6.14554e-06
6.29284e-06
6.42959e-06
6.5509e-06
6.65867e-06
6.75956e-06
6.86082e-06
6.98062e-06
6.70934e-06
7.06961e-06
)
;
    }
    outlet
    {
        type            calculated;
        value           nonuniform List<scalar> 0();
    }
    walls
    {
        type            calculated;
        value           nonuniform List<scalar> 4(0.388658 0.298548 0.212483 0.0348692);
    }
    frontAndBack
    {
        type            empty;
    }
    procBoundary6to2
    {
        type            processor;
        value           nonuniform List<scalar> 
13
(
12.8593
7.7357
4.8795
2.93916
1.45341
0.488033
0.0703376
0.000724991
0.000323654
0
0
6.25517e-08
1.0381e-06
)
;
    }
    procBoundary6to3
    {
        type            processor;
        value           uniform 1.34575e-06;
    }
    procBoundary6to5
    {
        type            processor;
        value           nonuniform List<scalar> 
86
(
36.0561
13.5509
17.3836
15.5413
6.15652
0.243756
0.0264374
0.00401652
0
0
3.72453e-06
6.07924e-05
9.08103e-05
7.82914e-05
6.97744e-05
6.90925e-05
6.9415e-05
6.80551e-05
6.55474e-05
6.28601e-05
6.03626e-05
5.80162e-05
5.56956e-05
5.33297e-05
5.09114e-05
4.84571e-05
4.5985e-05
4.35132e-05
4.10551e-05
3.86204e-05
3.62219e-05
3.38717e-05
3.15803e-05
3.15803e-05
3.08855e-05
2.85953e-05
2.63995e-05
2.43049e-05
2.23169e-05
2.04394e-05
1.86747e-05
1.70238e-05
1.5486e-05
1.40595e-05
1.27416e-05
1.15286e-05
1.15286e-05
1.0692e-05
9.63651e-06
8.67611e-06
7.80447e-06
7.01529e-06
6.30224e-06
5.65924e-06
5.08037e-06
4.55993e-06
4.55993e-06
4.14916e-06
3.72269e-06
3.34085e-06
2.99927e-06
2.69388e-06
2.42067e-06
2.17566e-06
2.17566e-06
1.97312e-06
1.77228e-06
1.59191e-06
1.431e-06
1.28728e-06
1.16347e-06
1.06457e-06
1.06457e-06
9.89019e-07
9.14278e-07
8.36489e-07
7.7274e-07
6.8518e-07
6.56592e-07
5.31173e-07
6.12665e-07
4.60341e-07
4.60341e-07
7.45987e-07
8.61947e-07
1.113e-06
)
;
    }
    procBoundary6to7
    {
        type            processor;
        value           nonuniform List<scalar> 
91
(
1.08983e-06
1.08983e-06
8.27989e-07
8.27989e-07
8.03158e-07
8.03158e-07
3.34682e-07
2.99504e-07
3.34682e-07
5.49946e-07
4.26486e-07
2.99504e-07
5.00986e-07
6.01596e-07
5.28072e-07
4.26486e-07
5.28049e-07
6.95069e-07
6.52209e-07
6.01596e-07
6.00398e-07
8.82138e-07
8.22039e-07
7.6443e-07
6.95069e-07
7.09745e-07
1.11614e-06
1.05178e-06
9.89572e-07
9.2967e-07
8.82138e-07
8.72159e-07
1.4145e-06
1.35558e-06
1.29645e-06
1.2374e-06
1.17876e-06
1.12083e-06
1.11614e-06
1.06388e-06
1.69929e-06
1.67169e-06
1.64217e-06
1.61061e-06
1.57691e-06
1.54107e-06
1.50312e-06
1.46318e-06
1.42137e-06
1.37793e-06
1.33302e-06
1.4145e-06
1.28689e-06
2.46872e-08
1.50261e-09
0
0
4.73161e-05
9.81125e-05
0.00852947
0.108017
0.417666
0.924193
1.46489
1.84353
1.90852
1.58871
0.917199
0.0974502
0.882605
1.54741
1.75448
1.43526
0.801941
0.261228
0.0361204
0.000385253
4.3483e-05
0
0
0
3.14237e-08
4.29909e-07
1.63411e-06
1.82862e-06
1.60059e-06
1.49997e-06
1.49287e-06
1.48591e-06
1.69929e-06
1.46587e-06
)
;
    }
}


// ************************************************************************* //
