/*--------------------------------*- C++ -*----------------------------------*\
| =========                 |                                                 |
| \\      /  F ield         | OpenFOAM: The Open Source CFD Toolbox           |
|  \\    /   O peration     | Version:  2306                                  |
|   \\  /    A nd           | Website:  www.openfoam.com                      |
|    \\/     M anipulation  |                                                 |
\*---------------------------------------------------------------------------*/
FoamFile
{
    version     2.0;
    format      ascii;
    arch        "LSB;label=32;scalar=64";
    class       volScalarField;
    location    "925";
    object      p;
}
// * * * * * * * * * * * * * * * * * * * * * * * * * * * * * * * * * * * * * //

dimensions      [0 2 -2 0 0 0 0];

internalField   nonuniform List<scalar> 
1340
(
-90.0519
-51.5479
-6.90594
26.0645
-89.6841
-51.2595
-6.60492
25.7532
-89.2587
-50.9396
-6.35667
25.8727
-88.7784
-50.6407
-6.25746
26.0757
-88.1792
-50.3497
-6.29912
26.1358
-87.5269
-50.0879
-6.51197
26.0172
-86.8968
-49.9186
-6.93349
25.694
-86.2493
-49.8233
-7.54776
25.1148
-85.5675
-49.7398
-8.26037
24.2607
-84.8554
-49.6395
-9.01319
23.1814
-84.1213
-49.5181
-9.81485
21.9426
-83.374
-49.3939
-10.6817
20.5707
-82.6128
-49.2884
-11.6146
19.0713
-81.8344
-49.2086
-12.6106
17.4591
-81.0375
-49.15
-13.6668
15.7465
-80.2216
-49.1094
-14.7769
13.9397
-79.3864
-49.0845
-15.9325
12.0453
-78.5304
-49.0744
-17.1248
10.0741
-77.6525
-49.0773
-18.345
8.03814
-76.7508
-49.0904
-19.5845
5.95049
-75.8231
-49.1092
-20.8336
3.82542
-74.8673
-49.1293
-22.0824
1.6778
-73.8809
-49.1453
-23.3217
-0.478253
-72.8617
-49.1506
-24.5405
-2.62725
-71.8063
-49.1391
-25.7287
-4.75425
-70.713
-49.1029
-26.8756
-6.84403
-69.5785
-49.0352
-27.9723
-8.88136
-68.4009
-48.9294
-29.0079
-10.8524
-67.1779
-48.7764
-29.9739
-12.7439
-65.9077
-48.571
-30.8605
-14.5433
-64.5893
-48.306
-31.6604
-16.2399
-63.2225
-47.9759
-32.3662
-17.8239
-61.8064
-47.5761
-32.9715
-19.2862
-72.6886
-60.343
-47.1022
-33.4709
-20.6203
-70.2392
-58.8332
-46.5525
-33.8609
-21.8203
-67.7827
-57.2796
-45.9254
-34.1385
-22.8824
-65.3253
-55.6855
-45.2203
-34.3023
-23.8039
-62.8739
-54.0549
-44.4389
-34.3521
-24.5837
-60.4354
-52.3924
-43.5833
-34.2894
-25.2227
-58.0162
-50.7031
-42.6571
-34.1166
-25.7224
-55.623
-48.9928
-41.6649
-33.8378
-26.086
-53.2619
-47.2676
-40.6122
-33.4579
-26.3183
-50.939
-45.5336
-39.5051
-32.9829
-26.4244
-48.6595
-43.7971
-38.3504
-32.4196
-26.4111
-46.4284
-42.0644
-37.1554
-31.7757
-26.2855
-47.6376
-44.2499
-40.3416
-35.9271
-31.0592
-26.0558
-45.1496
-42.1279
-38.6345
-34.6732
-30.2785
-25.7304
-42.7567
-40.0656
-36.9484
-33.4009
-29.4421
-25.3182
-40.4589
-38.0653
-35.2885
-32.1172
-28.5583
-24.8282
-38.2556
-36.1292
-33.6589
-30.8287
-27.6357
-24.2695
-36.1457
-34.2584
-32.0636
-29.5417
-26.682
-23.6512
-34.1275
-32.454
-30.5061
-28.2618
-25.7051
-22.9818
-32.1991
-30.7161
-28.9889
-26.9943
-24.7118
-22.2697
-30.3579
-29.0445
-27.5144
-25.7436
-23.7089
-21.523
-29.5898
-28.6014
-27.4388
-26.0842
-24.5136
-22.7021
-20.749
-27.8024
-26.9266
-25.898
-24.6996
-23.3077
-21.6968
-19.9545
-26.1064
-25.3306
-24.4207
-23.361
-22.1286
-20.6976
-19.1457
-24.4972
-23.8101
-23.0056
-22.0689
-20.9785
-19.7087
-18.3284
-22.9702
-22.3618
-21.6507
-20.8233
-19.8591
-18.7334
-17.5073
-21.5211
-20.9825
-20.3541
-19.6236
-18.7716
-17.7746
-16.6869
-20.1453
-19.6687
-19.1138
-18.4692
-17.7169
-16.8346
-15.8709
-19.1985
-18.8386
-18.4172
-17.9274
-17.3589
-16.6952
-15.9153
-15.0626
-17.9156
-17.5969
-17.2245
-16.7926
-16.2918
-15.7068
-15.0181
-14.2646
-16.6979
-16.4159
-16.0874
-15.707
-15.2663
-14.7513
-14.144
-13.4792
-15.5411
-15.2922
-15.0029
-14.6683
-14.2812
-13.8285
-13.2938
-12.7083
-14.4403
-14.2213
-13.9671
-13.6737
-13.3343
-12.9373
-12.4674
-11.9529
-13.3926
-13.2007
-12.9782
-12.7215
-12.4248
-12.0775
-11.6658
-11.215
-12.5491
-12.376
-12.1755
-11.9443
-11.6773
-11.3648
-10.9942
-10.5888
-11.9861
-11.848
-11.6878
-11.5025
-11.2889
-11.0424
-10.7545
-10.4128
-10.0392
-11.2608
-11.1335
-10.9873
-10.8177
-10.6219
-10.3963
-10.1328
-9.8202
-9.4807
-10.5162
-10.3987
-10.2655
-10.1108
-9.93217
-9.72669
-9.48712
-9.20183
-8.88972
-9.77449
-9.66973
-9.55175
-9.4139
-9.25357
-9.06864
-8.85313
-8.5977
-8.32678
-8.98271
-8.88599
-8.77911
-8.65479
-8.51073
-8.34523
-8.15165
-7.91741
-7.65307
-8.27788
-8.20005
-8.11314
-8.00885
-7.88485
-7.7407
-7.57382
-7.38091
-7.19617
-7.33983
-7.26271
-7.18113
-7.08676
-6.97726
-6.85108
-6.69934
-6.50234
-6.24725
-6.894
-6.8521
-6.80275
-6.73668
-6.65244
-6.55268
-6.44381
-6.33867
-6.3024
-5.37806
-5.31684
-5.25801
-5.19329
-5.11947
-5.03185
-4.91074
-4.71465
-4.37548
-5.99124
-6.01827
-6.02081
-6.01676
-5.99989
-5.96666
-5.92491
-5.90361
-5.9545
-6.21284
-2.51571
-2.44829
-2.38988
-2.34775
-2.30931
-2.26772
-2.21451
-2.10465
-1.85692
-1.28995
-6.7658
-6.64699
-6.66821
-6.79425
-6.88712
-6.93174
-6.97483
-7.09102
-7.38646
-8.06385
106.908
106.178
105.233
104.001
102.274
99.86
96.541
92.1369
86.6746
80.5065
74.1511
67.9829
62.1213
56.5454
51.2156
46.1157
41.2453
36.6064
32.1969
28.0105
24.0374
20.2688
16.6955
13.3089
10.1016
7.06614
4.19555
1.48309
-1.07575
-3.48451
-5.74506
-7.85797
-9.82375
-11.6417
-13.3109
-14.8309
-16.2013
-17.4222
-18.4945
-19.4196
-20.1998
-20.8385
-21.3401
-21.7093
-21.9523
-22.0759
-22.0874
-21.9947
-21.8061
-21.5302
-21.1759
-20.7517
-20.2663
-19.7282
-19.1452
-18.5249
-17.8745
-17.2004
-16.5087
-15.8046
-15.093
-14.3781
-13.6635
-12.9523
-12.2474
-11.5504
-10.865
-10.2784
-9.75529
-9.2273
-8.65516
-8.13242
-7.45196
-7.07693
-6.04494
-6.30117
-4.11198
-6.40257
-0.929234
-8.53891
46.9938
46.4795
45.994
45.5455
45.1078
44.7196
44.4088
44.1472
43.8399
43.357
42.6152
41.6092
40.3452
38.8221
37.0572
35.083
32.9342
30.6427
28.238
25.7481
23.1993
20.6166
18.0222
15.4359
12.8756
10.3567
7.89427
5.50156
3.19023
0.969146
-1.15436
-3.17406
-5.08539
-6.88391
-8.5658
-10.1281
-11.568
-12.8835
-14.073
-15.1355
-16.0708
-16.8796
-17.5635
-18.1245
-18.5661
-18.8925
-19.1084
-19.2193
-19.2316
-19.152
-18.9878
-18.7462
-18.4349
-18.0614
-17.6333
-17.1578
-16.6418
-16.092
-15.5145
-14.915
-14.2989
-13.6706
-13.0346
-12.3944
-11.7536
-11.1143
-10.4803
-9.93435
-9.44479
-8.95136
-8.40893
-7.91955
-7.26326
-6.92006
-5.9121
-6.18248
-4.05558
-6.27263
-1.0256
29.2627
28.9674
28.6433
28.31
27.9311
27.4854
26.9696
26.3833
25.7276
25.0079
24.2376
23.4487
22.6697
21.9001
21.1243
20.3221
19.475
18.5689
17.5926
16.5381
15.4007
14.1794
12.8762
11.4967
10.0489
8.54314
6.99083
5.40392
3.79571
2.17975
0.569562
-1.02135
-2.5807
-4.09673
-5.55858
-6.95669
-8.28242
-9.52821
-10.6875
-11.7548
-12.7256
-13.5968
-14.366
-15.0319
-15.5943
-16.0541
-16.4132
-16.6742
-16.8407
-16.9173
-16.9089
-16.821
-16.6597
-16.4312
-16.1419
-15.7984
-15.407
-14.9739
-14.5052
-14.0066
-13.4834
-12.9405
-12.3825
-11.8134
-11.2372
-10.6565
-10.0751
-9.57113
-9.11654
-8.65808
-8.148
-7.69028
-7.06634
-6.74334
-5.78485
-6.03055
-4.03046
-6.084
27.8486
27.6594
27.4533
27.2386
27.0018
26.7245
26.3885
25.9758
25.465
24.8354
24.0765
23.2029
22.2566
21.2728
20.2641
19.2343
18.186
17.1226
16.0466
14.9589
13.8586
12.7437
11.612
10.4613
9.28952
8.09542
6.8787
5.63983
4.38118
3.1062
1.81984
0.528616
-0.760301
-2.03874
-3.29784
-4.52872
-5.72235
-6.87008
-7.96361
-8.99528
-9.95834
-10.8469
-11.6561
-12.3818
-13.0213
-13.5726
-14.0349
-14.4087
-14.695
-14.896
-15.0147
-15.0548
-15.0207
-14.917
-14.7491
-14.5224
-14.2426
-13.9154
-13.5463
-13.1407
-12.7041
-12.2412
-11.7568
-11.2552
-10.7406
-10.216
-9.68527
-9.22172
-8.79991
-8.37395
-7.89425
-7.46652
-6.87236
-6.57141
-5.65271
-5.89192
-3.97829
23.5998
23.3942
23.1839
22.9821
22.7814
22.5753
22.3554
22.1135
21.8418
21.5287
21.1591
20.7182
20.2022
19.6211
18.9825
18.2884
17.5399
16.7383
15.8859
14.9863
14.0435
13.0616
12.0447
10.9971
9.9231
8.82657
7.71134
6.58086
5.43873
4.28826
3.13286
1.97644
0.822948
-0.323126
-1.45667
-2.57223
-3.66383
-4.72523
-5.74989
-6.73132
-7.66323
-8.53967
-9.35509
-10.1045
-10.7838
-11.3895
-11.9191
-12.3712
-12.7449
-13.0406
-13.2593
-13.4031
-13.4745
-13.4769
-13.4143
-13.2908
-13.1111
-12.8802
-12.603
-12.2844
-11.9295
-11.543
-11.1296
-10.6936
-10.2392
-9.76995
-9.28948
-8.86597
-8.47678
-8.08318
-7.63391
-7.23652
-6.67137
-6.39534
-5.51048
-5.75632
18.9522
18.7743
18.5888
18.4096
18.2294
18.0455
17.8552
17.6528
17.4322
17.1883
16.9151
16.6047
16.2505
15.8536
15.4208
14.9562
14.4606
13.9333
13.372
12.7742
12.1384
11.4634
10.749
9.99502
9.20262
8.37346
7.51001
6.61529
5.69301
4.74719
3.7822
2.80284
1.81391
0.820411
-0.172403
-1.15927
-2.13473
-3.09328
-4.02918
-4.93674
-5.81029
-6.64425
-7.43322
-8.17203
-8.8561
-9.48122
-10.0438
-10.5412
-10.9711
-11.3323
-11.6245
-11.8478
-12.0034
-12.0931
-12.1194
-12.0853
-11.9943
-11.8502
-11.6573
-11.4198
-11.1423
-10.8289
-10.4843
-10.1125
-9.71778
-9.3038
-8.87395
-8.49105
-8.1354
-7.77518
-7.35775
-6.99172
-6.45725
-6.20691
15.8207
15.6741
15.5185
15.3654
15.2095
15.0496
14.8861
14.7164
14.5353
14.3377
14.1186
13.8723
13.5918
13.2727
12.9168
12.5312
12.1201
11.686
11.2304
10.7527
10.2517
9.72639
9.17596
8.59958
7.99647
7.36609
6.70816
6.02283
5.31074
4.57303
3.81142
3.02832
2.22659
1.40972
0.581697
-0.253081
-1.08982
-1.92353
-2.74886
-3.56043
-4.35276
-5.12043
-5.85804
-6.56031
-7.22238
-7.83962
-8.4078
-8.92328
-9.38293
-9.78435
-10.1258
-10.4063
-10.6256
-10.784
-10.8828
-10.9235
-10.9086
-10.8408
-10.7233
-10.5596
-10.3535
-10.1088
-9.82958
-9.51957
-9.18282
-8.82309
-8.44343
-8.10121
-7.77944
-7.45296
-7.06818
-6.73391
13.6168
13.4928
13.3595
13.2264
13.09
12.9498
12.8072
12.6623
12.5127
12.3548
12.1843
11.9973
11.7887
11.5525
11.2841
10.9837
10.6557
10.3035
9.92899
9.5339
9.11831
8.68126
8.22229
7.74138
7.23852
6.71373
6.16709
5.59883
5.00935
4.39918
3.76906
3.12011
2.45366
1.77146
1.07576
0.36915
-0.34525
-1.06394
-1.78295
-2.49802
-3.2046
-3.89797
-4.57326
-5.22554
-5.85001
-6.44201
-6.99708
-7.51115
-7.98051
-8.40202
-8.77304
-9.09155
-9.35621
-9.56623
-9.72161
-9.82291
-9.87129
-9.86848
-9.81668
-9.71851
-9.57695
-9.3952
-9.17669
-8.92488
-8.64337
-8.33588
-8.00503
-7.70274
-7.41444
11.8023
11.6971
11.5835
11.4687
11.3495
11.2257
11.0992
10.9708
10.8404
10.7065
10.5661
10.4162
10.2535
10.074
9.87293
9.64609
9.393
9.11654
8.81914
8.50232
8.16764
7.81506
7.44338
7.05178
6.63997
6.20777
5.75513
5.28213
4.7891
4.27649
3.74499
3.19555
2.62924
2.0474
1.4517
0.844003
0.226508
-0.398259
-1.02745
-1.65787
-2.28607
-2.90832
-3.52063
-4.11882
-4.69864
-5.25581
-5.78609
-6.28544
-6.74998
-7.17622
-7.56104
-7.90173
-8.1962
-8.44281
-8.64061
-8.78917
-8.88867
-8.93986
-8.94399
-8.90279
-8.81843
-8.6934
-8.53049
-8.33271
-8.10313
-7.84533
10.2867
10.1973
10.1011
10.0035
9.90103
9.79265
9.68042
9.56576
9.44913
9.33049
9.20891
9.0822
8.94761
8.80257
8.64389
8.46745
8.26956
8.04939
7.80904
7.55066
7.27575
6.98588
6.6813
6.36092
6.02381
5.66952
5.29776
4.90829
4.50098
4.07584
3.63303
3.17305
2.69646
2.20413
1.6972
1.17706
0.645343
0.104005
-0.444738
-0.998379
-1.55416
-2.10908
-2.65987
-3.20304
-3.73498
-4.25194
-4.75009
-5.22565
-5.67488
-6.09424
-6.48046
-6.83049
-7.14176
-7.41207
-7.63972
-7.82356
-7.96291
-8.05769
-8.10828
-8.11561
-8.08105
-8.00634
9.04435
8.96801
8.88592
8.80253
8.71521
8.62205
8.52376
8.42185
8.31735
8.21081
8.10239
7.99147
7.8764
7.75493
7.62483
7.48343
7.32713
7.15257
6.95852
6.74643
6.51824
6.27537
6.01939
5.75086
5.46891
5.17267
4.86171
4.53583
4.19486
3.83862
3.46707
3.08032
2.67859
2.26226
1.83197
1.38852
0.932963
0.466623
-0.00890203
-0.491757
-0.979829
-1.47075
-1.96189
-2.45035
-2.9331
-3.40691
-3.8684
-4.31417
-4.74074
-5.14474
-5.52291
-5.87213
-6.18957
-6.47268
-6.71934
-6.92779
-7.09676
8.0127
7.94718
7.87674
7.80496
7.72981
7.65006
7.56566
7.47666
7.38377
7.2881
7.1904
7.09094
6.98937
6.88448
6.77445
6.65734
6.53087
6.39196
6.23747
6.06591
5.87812
5.67579
5.46021
5.23286
4.9945
4.74447
4.4819
4.20633
3.91763
3.61565
3.30028
2.97155
2.62948
2.27428
1.9063
1.52603
1.13413
0.731476
0.319144
-0.101553
-0.529083
-0.961675
-1.3973
-1.83367
-2.26832
-2.69856
-3.12152
-3.53422
-3.93356
-4.31642
7.13796
7.0815
7.02085
6.95894
6.89402
6.82505
6.75235
6.67593
6.59519
6.51035
6.42253
6.33264
6.24107
6.14765
6.05159
5.95136
5.84529
5.73146
5.60724
5.46972
5.31722
5.15012
4.96981
4.77752
4.5746
4.362
4.13928
3.90552
3.66025
3.40331
3.13459
2.85402
2.56155
2.25722
1.94122
1.61383
1.27549
0.926762
)
;

boundaryField
{
    inlet
    {
        type            freestreamPressure;
        freestreamValue uniform 0;
        value           nonuniform List<scalar> 
11
(
-3.17463
-2.91865
-2.92959
-2.98655
-3.0289
-3.04997
-3.07037
-3.12301
-3.25493
-3.4148
-3.76574
)
;
    }
    outlet
    {
        type            freestreamPressure;
        freestreamValue nonuniform List<scalar> 0();
        value           nonuniform List<scalar> 0();
    }
    walls
    {
        type            zeroGradient;
    }
    frontAndBack
    {
        type            empty;
    }
    procBoundary6to2
    {
        type            processor;
        value           nonuniform List<scalar> 
13
(
106.548
47.3146
29.4179
27.9781
23.7475
19.0749
15.9263
13.71
11.883
10.3566
9.10523
8.06581
7.18428
)
;
    }
    procBoundary6to3
    {
        type            processor;
        value           uniform 6.38745;
    }
    procBoundary6to5
    {
        type            processor;
        value           nonuniform List<scalar> 
86
(
-127.665
-127.2
-126.641
-125.889
-124.868
-123.766
-122.648
-121.491
-120.291
-119.033
-117.719
-116.351
-114.929
-113.453
-111.921
-110.333
-108.688
-106.987
-105.227
-103.41
-101.536
-99.6059
-97.6196
-95.5783
-93.484
-91.3374
-89.1426
-86.9005
-84.6154
-82.2909
-79.9309
-77.5403
-75.1244
-75.1244
-83.8261
-80.4902
-77.1859
-73.923
-70.7101
-67.5558
-64.4675
-61.4519
-58.5149
-55.6614
-52.8954
-50.22
-50.22
-50.5095
-47.7093
-45.0354
-42.4853
-40.056
-37.7442
-35.5459
-33.457
-31.4731
-31.4731
-30.4184
-28.5384
-26.7601
-25.0777
-23.4857
-21.9786
-20.5512
-20.5512
-19.5012
-18.1846
-16.9364
-15.7521
-14.6264
-13.5561
-12.6973
-12.6973
-12.1037
-11.371
-10.6197
-9.86773
-9.07092
-8.34826
-7.41408
-6.92877
-5.44415
-5.44415
-5.90053
-2.55556
-6.35441
)
;
    }
    procBoundary6to7
    {
        type            processor;
        value           nonuniform List<scalar> 
91
(
-8.35232
-8.35232
-1.17343
-1.17343
-5.94135
-5.94135
-3.90478
-5.35802
-3.90478
-5.61016
-6.23165
-5.35802
-6.00672
-7.12129
-6.76924
-6.23165
-6.46651
-7.56139
-7.2978
-7.12129
-7.04222
-7.89361
-7.74532
-7.56398
-7.56139
-7.35293
-7.22544
-7.31351
-7.36113
-7.36895
-7.89361
-7.33801
-4.67974
-5.02046
-5.33571
-5.6228
-5.87934
-6.10322
-7.22544
-6.2927
0.568413
0.201381
-0.173216
-0.554065
-0.93962
-1.32811
-1.71757
-2.10584
-2.49052
-2.86911
-3.23893
-4.67974
-3.5972
6.33864
6.28625
6.2327
6.17657
6.11688
6.05374
5.9875
5.91802
5.84462
5.7671
5.68633
5.60336
5.51872
5.43247
5.34405
5.25226
5.15559
5.05247
4.94066
4.81749
4.68113
4.53154
4.36988
4.19729
4.01508
3.8243
3.62471
3.41546
3.19601
2.96619
2.72595
2.4752
2.21387
1.94202
1.65976
1.36735
0.568413
1.06513
)
;
    }
}


// ************************************************************************* //
