/*--------------------------------*- C++ -*----------------------------------*\
| =========                 |                                                 |
| \\      /  F ield         | OpenFOAM: The Open Source CFD Toolbox           |
|  \\    /   O peration     | Version:  2306                                  |
|   \\  /    A nd           | Website:  www.openfoam.com                      |
|    \\/     M anipulation  |                                                 |
\*---------------------------------------------------------------------------*/
FoamFile
{
    version     2.0;
    format      ascii;
    arch        "LSB;label=32;scalar=64";
    class       volScalarField;
    location    "425";
    object      nuTilda;
}
// * * * * * * * * * * * * * * * * * * * * * * * * * * * * * * * * * * * * * //

dimensions      [0 2 -1 0 0 0 0];

internalField   nonuniform List<scalar> 
1340
(
0.0869127
0.0784798
0.0690231
0.0538306
0.153838
0.148548
0.139892
0.147212
0.206321
0.20758
0.201627
0.212135
0.215345
0.231941
0.239193
0.255723
0.175025
0.217161
0.248051
0.278393
0.093216
0.160369
0.223972
0.278354
0.0214618
0.0782575
0.16616
0.252334
0.000845662
0.0170762
0.0902781
0.200108
0.000196441
0.00462744
0.0303363
0.133056
0
6.61843e-05
0.00305657
0.0730692
0
0
0.00141228
0.0333598
7.6898e-06
0
0.000286026
0.0130605
3.07927e-05
8.43724e-07
9.9815e-05
0.00434724
4.67519e-05
8.0442e-06
2.67181e-05
0.00111021
4.52004e-05
3.09206e-05
3.31705e-06
9.77087e-05
4.06656e-05
4.57581e-05
2.05447e-06
2.25056e-05
3.84442e-05
4.89939e-05
3.38137e-06
9.43778e-08
3.85249e-05
4.54814e-05
2.79744e-05
3.71819e-06
3.93842e-05
4.15345e-05
4.14046e-05
1.34252e-05
4.0016e-05
3.96391e-05
4.4063e-05
2.83333e-05
4.02349e-05
3.93651e-05
4.26219e-05
3.70397e-05
4.02179e-05
3.96697e-05
4.09964e-05
4.01593e-05
4.01454e-05
3.99564e-05
4.01933e-05
4.06392e-05
4.00961e-05
4.00857e-05
3.99897e-05
4.04017e-05
4.00777e-05
4.01106e-05
4.0012e-05
4.01805e-05
4.00754e-05
4.01e-05
4.00611e-05
4.00931e-05
4.00771e-05
4.00881e-05
4.00846e-05
4.00803e-05
4.00782e-05
4.00825e-05
4.00885e-05
4.00867e-05
4.00782e-05
4.00809e-05
4.00859e-05
4.0091e-05
4.00778e-05
4.00806e-05
4.00832e-05
4.00912e-05
4.00773e-05
4.00804e-05
4.00818e-05
4.00897e-05
4.00771e-05
4.008e-05
4.00811e-05
4.00883e-05
4.00769e-05
4.00797e-05
4.00807e-05
4.00872e-05
4.00755e-05
4.00769e-05
4.00794e-05
4.00804e-05
4.00863e-05
4.00756e-05
4.00769e-05
4.00793e-05
4.00801e-05
4.00857e-05
4.00758e-05
4.0077e-05
4.00792e-05
4.008e-05
4.00852e-05
4.0076e-05
4.00771e-05
4.00792e-05
4.00799e-05
4.00848e-05
4.00763e-05
4.00773e-05
4.00793e-05
4.00799e-05
4.00844e-05
4.00766e-05
4.00776e-05
4.00794e-05
4.008e-05
4.00842e-05
4.00769e-05
4.00779e-05
4.00796e-05
4.00801e-05
4.00841e-05
4.00773e-05
4.00782e-05
4.00799e-05
4.00804e-05
4.0084e-05
4.00776e-05
4.00785e-05
4.00801e-05
4.00806e-05
4.00841e-05
4.0078e-05
4.00789e-05
4.00804e-05
4.00809e-05
4.00842e-05
4.00784e-05
4.00792e-05
4.00807e-05
4.00812e-05
4.00843e-05
4.00787e-05
4.00796e-05
4.0081e-05
4.00815e-05
4.00845e-05
4.00781e-05
4.0079e-05
4.00799e-05
4.00813e-05
4.00819e-05
4.00847e-05
4.00783e-05
4.00792e-05
4.00801e-05
4.00815e-05
4.00822e-05
4.00848e-05
4.00784e-05
4.00794e-05
4.00803e-05
4.00817e-05
4.00824e-05
4.0085e-05
4.00785e-05
4.00795e-05
4.00805e-05
4.00818e-05
4.00826e-05
4.00851e-05
4.00785e-05
4.00795e-05
4.00805e-05
4.00819e-05
4.00827e-05
4.00852e-05
4.00783e-05
4.00793e-05
4.00804e-05
4.00818e-05
4.00827e-05
4.00852e-05
4.0078e-05
4.00791e-05
4.00802e-05
4.00816e-05
4.00826e-05
4.0085e-05
4.00776e-05
4.00787e-05
4.00798e-05
4.00813e-05
4.00824e-05
4.00847e-05
4.00769e-05
4.00781e-05
4.00793e-05
4.00808e-05
4.0082e-05
4.00843e-05
4.0075e-05
4.00761e-05
4.00773e-05
4.00786e-05
4.00801e-05
4.00814e-05
4.00837e-05
4.00739e-05
4.00751e-05
4.00763e-05
4.00776e-05
4.00792e-05
4.00806e-05
4.00829e-05
4.00726e-05
4.00738e-05
4.00751e-05
4.00765e-05
4.00781e-05
4.00796e-05
4.00819e-05
4.00711e-05
4.00724e-05
4.00737e-05
4.00751e-05
4.00768e-05
4.00783e-05
4.00806e-05
4.00694e-05
4.00707e-05
4.00721e-05
4.00735e-05
4.00752e-05
4.00768e-05
4.00791e-05
4.00674e-05
4.00687e-05
4.00701e-05
4.00717e-05
4.00734e-05
4.00751e-05
4.00774e-05
4.00649e-05
4.00663e-05
4.00678e-05
4.00694e-05
4.00712e-05
4.00731e-05
4.00754e-05
4.00602e-05
4.00617e-05
4.00632e-05
4.00649e-05
4.00666e-05
4.00685e-05
4.00705e-05
4.0073e-05
4.00561e-05
4.00577e-05
4.00593e-05
4.0061e-05
4.00629e-05
4.0065e-05
4.00671e-05
4.00698e-05
4.00515e-05
4.0053e-05
4.00546e-05
4.00564e-05
4.00583e-05
4.00605e-05
4.00628e-05
4.00656e-05
4.00466e-05
4.0048e-05
4.00496e-05
4.00513e-05
4.00532e-05
4.00553e-05
4.00577e-05
4.00606e-05
4.00416e-05
4.0043e-05
4.00445e-05
4.00461e-05
4.00478e-05
4.00499e-05
4.00522e-05
4.0055e-05
4.00367e-05
4.00381e-05
4.00395e-05
4.00411e-05
4.00427e-05
4.00447e-05
4.00468e-05
4.00494e-05
4.00321e-05
4.00335e-05
4.0035e-05
4.00365e-05
4.00383e-05
4.00402e-05
4.00423e-05
4.00447e-05
4.00261e-05
4.00273e-05
4.00287e-05
4.00302e-05
4.00318e-05
4.00335e-05
4.00355e-05
4.00376e-05
4.00401e-05
4.00211e-05
4.00222e-05
4.00235e-05
4.00248e-05
4.00263e-05
4.00279e-05
4.00298e-05
4.00319e-05
4.00344e-05
4.0016e-05
4.0017e-05
4.00181e-05
4.00192e-05
4.00205e-05
4.0022e-05
4.00236e-05
4.00255e-05
4.00278e-05
4.0011e-05
4.00118e-05
4.00127e-05
4.00137e-05
4.00148e-05
4.0016e-05
4.00175e-05
4.00191e-05
4.00212e-05
4.00066e-05
4.0007e-05
4.00075e-05
4.00081e-05
4.00088e-05
4.00097e-05
4.00108e-05
4.00121e-05
4.00137e-05
4.0007e-05
4.00068e-05
4.00066e-05
4.00064e-05
4.00064e-05
4.00065e-05
4.00068e-05
4.00073e-05
4.0008e-05
4.00122e-05
4.00119e-05
4.00116e-05
4.00112e-05
4.00108e-05
4.00104e-05
4.001e-05
4.00097e-05
4.00094e-05
4.00184e-05
4.00181e-05
4.00177e-05
4.00172e-05
4.00167e-05
4.00161e-05
4.00154e-05
4.00146e-05
4.00136e-05
4.00261e-05
4.00262e-05
4.00264e-05
4.00266e-05
4.00267e-05
4.00267e-05
4.00267e-05
4.00267e-05
4.00265e-05
4.00321e-05
4.00321e-05
4.0032e-05
4.00318e-05
4.00314e-05
4.0031e-05
4.00306e-05
4.00301e-05
4.00299e-05
4.00297e-05
4.00425e-05
4.00442e-05
4.0046e-05
4.0048e-05
4.005e-05
4.0052e-05
4.00541e-05
4.00563e-05
4.00589e-05
4.00614e-05
4.00602e-05
4.00605e-05
4.00607e-05
4.00608e-05
4.00608e-05
4.00607e-05
4.00609e-05
4.00614e-05
4.00623e-05
4.0063e-05
0.172963
0.215406
0.255589
0.300087
0.326423
0.329408
0.307337
0.258836
0.186572
0.105376
0.0438575
0.0154479
0.00480913
0.00111211
6.98712e-05
1.57745e-05
0
1.60111e-06
7.58383e-06
2.54972e-05
3.60632e-05
4.00533e-05
4.0762e-05
4.05054e-05
4.02276e-05
4.0108e-05
4.00854e-05
4.00916e-05
4.00973e-05
4.00979e-05
4.0096e-05
4.0094e-05
4.00924e-05
4.00911e-05
4.00901e-05
4.00892e-05
4.00884e-05
4.00877e-05
4.00872e-05
4.00868e-05
4.00864e-05
4.00862e-05
4.0086e-05
4.00859e-05
4.00859e-05
4.00859e-05
4.00859e-05
4.00858e-05
4.00858e-05
4.00858e-05
4.00857e-05
4.00857e-05
4.00855e-05
4.00851e-05
4.00846e-05
4.00839e-05
4.00829e-05
4.00817e-05
4.00803e-05
4.00786e-05
4.00766e-05
4.00742e-05
4.00712e-05
4.00671e-05
4.00621e-05
4.00564e-05
4.00507e-05
4.0046e-05
4.00414e-05
4.00357e-05
4.0029e-05
4.00221e-05
4.00145e-05
4.00084e-05
4.00092e-05
4.00133e-05
4.00263e-05
4.00295e-05
4.0063e-05
4.00634e-05
0.214
0.258741
0.28864
0.317023
0.34577
0.357746
0.345395
0.305909
0.23947
0.153064
0.0689583
0.0208317
0.00564846
0.00139823
0.000110712
2.51391e-05
0
1.12717e-06
5.30533e-06
2.36012e-05
3.53745e-05
3.99231e-05
4.08079e-05
4.05637e-05
4.02574e-05
4.01173e-05
4.00874e-05
4.00927e-05
4.0099e-05
4.00998e-05
4.00977e-05
4.00954e-05
4.00935e-05
4.00922e-05
4.00911e-05
4.00901e-05
4.00893e-05
4.00886e-05
4.00881e-05
4.00876e-05
4.00872e-05
4.0087e-05
4.00868e-05
4.00867e-05
4.00866e-05
4.00866e-05
4.00865e-05
4.00865e-05
4.00865e-05
4.00864e-05
4.00864e-05
4.00864e-05
4.00862e-05
4.00859e-05
4.00854e-05
4.00847e-05
4.00838e-05
4.00826e-05
4.00812e-05
4.00795e-05
4.00776e-05
4.00752e-05
4.00722e-05
4.00681e-05
4.00631e-05
4.00573e-05
4.00516e-05
4.00468e-05
4.00422e-05
4.00365e-05
4.00297e-05
4.00227e-05
4.00151e-05
4.00086e-05
4.00091e-05
4.00132e-05
4.00261e-05
4.00294e-05
4.00641e-05
0.217825
0.269175
0.303807
0.326781
0.347909
0.366384
0.368542
0.346297
0.296157
0.219081
0.124853
0.0438991
0.00721221
0.000807997
0.00018854
0
0
3.43141e-07
1.60531e-06
1.97952e-05
3.37933e-05
3.96363e-05
4.08813e-05
4.06518e-05
4.03019e-05
4.01307e-05
4.00881e-05
4.00913e-05
4.00987e-05
4.01006e-05
4.00988e-05
4.00965e-05
4.00945e-05
4.00931e-05
4.00921e-05
4.00912e-05
4.00903e-05
4.00896e-05
4.0089e-05
4.00886e-05
4.00882e-05
4.00879e-05
4.00877e-05
4.00876e-05
4.00875e-05
4.00875e-05
4.00875e-05
4.00874e-05
4.00874e-05
4.00873e-05
4.00873e-05
4.00873e-05
4.00872e-05
4.00869e-05
4.00864e-05
4.00857e-05
4.00848e-05
4.00837e-05
4.00822e-05
4.00806e-05
4.00786e-05
4.00763e-05
4.00732e-05
4.00692e-05
4.00642e-05
4.00584e-05
4.00525e-05
4.00477e-05
4.0043e-05
4.00373e-05
4.00305e-05
4.00234e-05
4.00156e-05
4.00088e-05
4.0009e-05
4.00131e-05
4.00259e-05
4.00293e-05
0.202675
0.25854
0.300419
0.328243
0.346529
0.362712
0.37481
0.371366
0.344271
0.289395
0.207425
0.110588
0.0326205
0.000724351
0.000167187
0
0
0
3.31529e-06
1.5284e-05
3.08377e-05
3.86366e-05
4.08506e-05
4.08145e-05
4.03909e-05
4.01528e-05
4.00883e-05
4.00888e-05
4.00978e-05
4.01013e-05
4.01002e-05
4.00978e-05
4.00958e-05
4.00944e-05
4.00933e-05
4.00924e-05
4.00915e-05
4.00908e-05
4.00902e-05
4.00897e-05
4.00893e-05
4.0089e-05
4.00888e-05
4.00886e-05
4.00886e-05
4.00885e-05
4.00885e-05
4.00885e-05
4.00885e-05
4.00884e-05
4.00884e-05
4.00884e-05
4.00883e-05
4.0088e-05
4.00875e-05
4.00868e-05
4.00859e-05
4.00848e-05
4.00834e-05
4.00817e-05
4.00797e-05
4.00774e-05
4.00744e-05
4.00703e-05
4.00653e-05
4.00594e-05
4.00535e-05
4.00486e-05
4.00439e-05
4.00381e-05
4.00312e-05
4.0024e-05
4.00162e-05
4.00091e-05
4.00089e-05
4.00131e-05
4.00257e-05
0.172727
0.232721
0.281671
0.317727
0.341535
0.356933
0.369877
0.378308
0.372113
0.343207
0.286818
0.203254
0.106178
0.0281621
0.00723232
0
0
0
2.36118e-07
1.09886e-06
2.4677e-05
3.74283e-05
4.08143e-05
4.09505e-05
4.05338e-05
4.02146e-05
4.00922e-05
4.00826e-05
4.00959e-05
4.01019e-05
4.01016e-05
4.00995e-05
4.00974e-05
4.00958e-05
4.00947e-05
4.00937e-05
4.00929e-05
4.00921e-05
4.00915e-05
4.00909e-05
4.00905e-05
4.00902e-05
4.009e-05
4.00898e-05
4.00897e-05
4.00897e-05
4.00896e-05
4.00896e-05
4.00896e-05
4.00895e-05
4.00895e-05
4.00895e-05
4.00894e-05
4.00891e-05
4.00887e-05
4.0088e-05
4.00871e-05
4.0086e-05
4.00845e-05
4.00829e-05
4.00809e-05
4.00786e-05
4.00756e-05
4.00716e-05
4.00665e-05
4.00605e-05
4.00546e-05
4.00496e-05
4.00448e-05
4.0039e-05
4.00321e-05
4.00247e-05
4.00169e-05
4.00094e-05
4.00088e-05
4.0013e-05
0.130226
0.193699
0.249329
0.294166
0.327084
0.348809
0.362598
0.373407
0.379797
0.372533
0.343488
0.287314
0.204092
0.106411
0.029779
0.00772797
1.05253e-05
0
0
3.71755e-07
1.57728e-06
2.93057e-05
4.07033e-05
4.16616e-05
4.07052e-05
4.02761e-05
4.01267e-05
4.00807e-05
4.0088e-05
4.01015e-05
4.0104e-05
4.01014e-05
4.00989e-05
4.00973e-05
4.00962e-05
4.00952e-05
4.00943e-05
4.00935e-05
4.00928e-05
4.00923e-05
4.00918e-05
4.00915e-05
4.00912e-05
4.0091e-05
4.00909e-05
4.00909e-05
4.00908e-05
4.00908e-05
4.00908e-05
4.00907e-05
4.00907e-05
4.00907e-05
4.00906e-05
4.00903e-05
4.00899e-05
4.00893e-05
4.00884e-05
4.00872e-05
4.00858e-05
4.00841e-05
4.00822e-05
4.00798e-05
4.00768e-05
4.00728e-05
4.00678e-05
4.00617e-05
4.00557e-05
4.00506e-05
4.00458e-05
4.00399e-05
4.0033e-05
4.00254e-05
4.00175e-05
4.00097e-05
0.0788975
0.142597
0.203892
0.257091
0.29996
0.331581
0.352553
0.365609
0.374977
0.380305
0.373019
0.344898
0.290128
0.208013
0.111282
0.0348939
0.000424271
0.000131442
0
0
4.76028e-08
7.57797e-06
3.11877e-05
4.2641e-05
4.2101e-05
4.04169e-05
4.00575e-05
4.00915e-05
4.00943e-05
4.00931e-05
4.01014e-05
4.01042e-05
4.01016e-05
4.00991e-05
4.00977e-05
4.00967e-05
4.00958e-05
4.0095e-05
4.00943e-05
4.00937e-05
4.00932e-05
4.00928e-05
4.00925e-05
4.00923e-05
4.00922e-05
4.00921e-05
4.00921e-05
4.00921e-05
4.00921e-05
4.0092e-05
4.0092e-05
4.00919e-05
4.00919e-05
4.00916e-05
4.00912e-05
4.00906e-05
4.00897e-05
4.00885e-05
4.00871e-05
4.00854e-05
4.00835e-05
4.00811e-05
4.00782e-05
4.00742e-05
4.00691e-05
4.0063e-05
4.00569e-05
4.00517e-05
4.00469e-05
4.00409e-05
4.00339e-05
4.00262e-05
0.0300029
0.0828684
0.1458
0.206056
0.258491
0.301006
0.332676
0.353885
0.366876
0.375297
0.380203
0.373594
0.347131
0.294516
0.21435
0.119945
0.0402701
0.00135109
0.000407938
0
0
0
7.24077e-06
2.9325e-05
4.32913e-05
4.26379e-05
4.02597e-05
3.98603e-05
4.00723e-05
4.0131e-05
4.01077e-05
4.01001e-05
4.01022e-05
4.01016e-05
4.00997e-05
4.00984e-05
4.00974e-05
4.00966e-05
4.00958e-05
4.00952e-05
4.00946e-05
4.00942e-05
4.00939e-05
4.00937e-05
4.00935e-05
4.00935e-05
4.00934e-05
4.00934e-05
4.00934e-05
4.00933e-05
4.00933e-05
4.00933e-05
4.00932e-05
4.0093e-05
4.00925e-05
4.00919e-05
4.00911e-05
4.00899e-05
4.00885e-05
4.00868e-05
4.00848e-05
4.00825e-05
4.00796e-05
4.00756e-05
4.00705e-05
4.00644e-05
4.00581e-05
4.00528e-05
4.0048e-05
0.0032254
0.0283134
0.079408
0.141512
0.201856
0.254871
0.298281
0.331048
0.353295
0.366773
0.374627
0.379521
0.374064
0.349803
0.299915
0.222867
0.129818
0.0472487
0.00386487
0.00108514
0
0
0
5.91756e-06
2.339e-05
4.25973e-05
4.35473e-05
4.04377e-05
3.96424e-05
3.99739e-05
4.01446e-05
4.01276e-05
4.01033e-05
4.01008e-05
4.01016e-05
4.01005e-05
4.00993e-05
4.00983e-05
4.00975e-05
4.00968e-05
4.00962e-05
4.00957e-05
4.00954e-05
4.00951e-05
4.00949e-05
4.00948e-05
4.00948e-05
4.00948e-05
4.00948e-05
4.00947e-05
4.00947e-05
4.00946e-05
4.00946e-05
4.00944e-05
4.0094e-05
4.00934e-05
4.00925e-05
4.00914e-05
4.009e-05
4.00883e-05
4.00863e-05
4.0084e-05
4.0081e-05
4.00771e-05
4.0072e-05
4.00658e-05
0.000426488
0.00168791
0.0227649
0.0700379
0.130998
0.192198
0.246861
0.292201
0.326956
0.35096
0.365521
0.373535
0.378506
0.374371
0.35262
0.306028
0.232467
0.140722
0.0557716
0.00777092
0.00211346
0
0
0
3.6002e-06
1.33925e-05
3.98758e-05
4.4492e-05
4.12649e-05
3.97219e-05
3.98714e-05
4.01185e-05
4.01372e-05
4.01081e-05
4.01008e-05
4.01017e-05
4.01013e-05
4.01002e-05
4.00993e-05
4.00985e-05
4.00978e-05
4.00973e-05
4.00969e-05
4.00966e-05
4.00964e-05
4.00963e-05
4.00962e-05
4.00962e-05
4.00962e-05
4.00962e-05
4.00961e-05
4.00961e-05
4.0096e-05
4.00958e-05
4.00955e-05
4.00949e-05
4.0094e-05
4.00929e-05
4.00915e-05
4.00898e-05
4.00878e-05
4.00855e-05
0
0.0003422
0.00139173
0.0167069
0.0570247
0.115601
0.177712
0.234748
0.282886
0.320449
0.34697
0.363402
0.372536
0.377547
0.374666
0.355522
0.31251
0.242444
0.152342
0.0655258
0.0128824
0.00345523
0
0
0
7.43793e-07
1.47124e-06
3.3209e-05
4.39393e-05
4.19174e-05
3.99474e-05
3.9836e-05
4.00864e-05
4.01386e-05
4.01128e-05
4.01025e-05
4.01028e-05
4.01024e-05
4.01011e-05
4.01002e-05
4.00995e-05
4.0099e-05
4.00986e-05
4.00982e-05
4.0098e-05
4.00978e-05
4.00978e-05
4.00977e-05
4.00977e-05
4.00977e-05
4.00976e-05
4.00976e-05
4.00975e-05
4.00974e-05
4.0097e-05
4.00964e-05
4.00956e-05
4.65726e-10
0
5.61807e-05
0.000181627
0.0103718
0.0427577
0.0968105
0.159081
0.218734
0.270331
0.31147
0.341297
0.360407
0.371139
0.376387
0.374801
0.35835
0.318996
0.252544
0.164426
0.0762123
0.0194151
0.00511017
1.37637e-05
0
0
4.75214e-08
7.3262e-06
2.93713e-05
4.25972e-05
4.22745e-05
4.01623e-05
3.98132e-05
4.00535e-05
4.01341e-05
4.01129e-05
4.01016e-05
4.01032e-05
4.01038e-05
4.01027e-05
4.01016e-05
4.01008e-05
4.01003e-05
4.00999e-05
4.00996e-05
4.00995e-05
4.00994e-05
4.00993e-05
4.00993e-05
4.00993e-05
5.51395e-08
6.22418e-08
0
1.7941e-06
0.00121916
0.00476081
0.0288175
0.0763299
0.137229
0.199185
0.254622
0.29997
0.333786
0.356202
0.369002
0.374759
0.374549
0.360853
0.325229
0.262542
0.176698
0.0878249
0.0254036
0.000515539
0.000173759
0
0
0
6.20307e-06
2.46669e-05
4.14418e-05
4.26973e-05
4.04068e-05
3.98017e-05
4.00366e-05
4.01489e-05
4.01237e-05
4.01026e-05
)
;

boundaryField
{
    inlet
    {
        type            freestream;
        freestreamValue uniform 4e-05;
        value           nonuniform List<scalar> 
11
(
4.00602e-05
4.00605e-05
4.00607e-05
4.00608e-05
4.00608e-05
4.00607e-05
4.00609e-05
4.00614e-05
4.00623e-05
4.0063e-05
4.00634e-05
)
;
    }
    outlet
    {
        type            freestream;
        freestreamValue nonuniform List<scalar> 0();
        value           nonuniform List<scalar> 0();
    }
    walls
    {
        type            fixedValue;
        value           uniform 0;
    }
    frontAndBack
    {
        type            empty;
    }
    procBoundary6to2
    {
        type            processor;
        value           nonuniform List<scalar> 
13
(
0.126619
0.149891
0.151242
0.135165
0.104389
0.0648446
0.025773
0.00295237
0.000807811
0
0
7.97804e-06
3.38109e-05
)
;
    }
    procBoundary6to3
    {
        type            processor;
        value           uniform 3.93727e-05;
    }
    procBoundary6to5
    {
        type            processor;
        value           nonuniform List<scalar> 
86
(
0.0927925
0.159338
0.203442
0.193209
0.12408
0.0380217
0.00163238
0.00039743
0
0
8.63262e-06
3.54334e-05
4.40361e-05
4.10838e-05
3.91777e-05
3.95194e-05
4.02263e-05
4.04477e-05
4.03258e-05
4.01568e-05
4.00675e-05
4.00497e-05
4.00606e-05
4.00728e-05
4.00783e-05
4.00789e-05
4.00778e-05
4.00767e-05
4.0076e-05
4.00757e-05
4.00755e-05
4.00754e-05
4.00754e-05
4.00754e-05
4.00742e-05
4.00744e-05
4.00746e-05
4.00749e-05
4.00752e-05
4.00756e-05
4.0076e-05
4.00764e-05
4.00767e-05
4.00771e-05
4.00775e-05
4.00778e-05
4.00778e-05
4.00773e-05
4.00775e-05
4.00776e-05
4.00776e-05
4.00776e-05
4.00774e-05
4.0077e-05
4.00765e-05
4.00758e-05
4.00758e-05
4.00739e-05
4.00728e-05
4.00715e-05
4.00699e-05
4.00682e-05
4.00661e-05
4.00635e-05
4.00635e-05
4.00589e-05
4.00547e-05
4.005e-05
4.00452e-05
4.00403e-05
4.00354e-05
4.00308e-05
4.00308e-05
4.00249e-05
4.00201e-05
4.00151e-05
4.00103e-05
4.00063e-05
4.00072e-05
4.00125e-05
4.00186e-05
4.00259e-05
4.00259e-05
4.00315e-05
4.00412e-05
4.00596e-05
)
;
    }
    procBoundary6to7
    {
        type            processor;
        value           nonuniform List<scalar> 
91
(
4.00638e-05
4.00638e-05
4.00652e-05
4.00652e-05
4.00292e-05
4.00292e-05
4.00255e-05
4.00087e-05
4.00255e-05
4.00129e-05
4.00182e-05
4.00087e-05
4.00101e-05
4.0042e-05
4.00349e-05
4.00182e-05
4.00271e-05
4.00594e-05
4.00541e-05
4.0042e-05
4.00492e-05
4.00826e-05
4.00787e-05
4.00736e-05
4.00594e-05
4.00673e-05
4.00945e-05
4.00931e-05
4.00914e-05
4.00894e-05
4.00826e-05
4.00871e-05
4.00992e-05
4.00992e-05
4.00991e-05
4.0099e-05
4.00986e-05
4.00981e-05
4.00945e-05
4.00973e-05
4.01021e-05
4.01035e-05
4.01032e-05
4.01027e-05
4.01023e-05
4.01018e-05
4.01014e-05
4.01012e-05
4.01011e-05
4.0101e-05
4.0101e-05
4.00992e-05
4.01009e-05
5.72495e-06
1.4731e-06
0
0
0.000159527
0.000470416
0.0161184
0.0552041
0.112678
0.176105
0.23553
0.285639
0.324097
0.350439
0.365838
0.372643
0.373775
0.36278
0.330926
0.272141
0.189034
0.0998347
0.0333411
0.00208765
0.000576304
0
0
0
4.98957e-06
1.96678e-05
4.02753e-05
4.33143e-05
4.07048e-05
3.96963e-05
3.99344e-05
4.01365e-05
4.01021e-05
4.01372e-05
)
;
    }
}


// ************************************************************************* //
