/*--------------------------------*- C++ -*----------------------------------*\
| =========                 |                                                 |
| \\      /  F ield         | OpenFOAM: The Open Source CFD Toolbox           |
|  \\    /   O peration     | Version:  2306                                  |
|   \\  /    A nd           | Website:  www.openfoam.com                      |
|    \\/     M anipulation  |                                                 |
\*---------------------------------------------------------------------------*/
FoamFile
{
    version     2.0;
    format      ascii;
    arch        "LSB;label=32;scalar=64";
    class       volScalarField;
    location    "425";
    object      turbulenceProperties:k;
}
// * * * * * * * * * * * * * * * * * * * * * * * * * * * * * * * * * * * * * //

dimensions      [0 2 -2 0 0 0 0];

internalField   nonuniform List<scalar> 
1340
(
25.4138
20.1341
15.0256
5.56076
9.51838
8.47326
7.40895
8.55705
12.1067
10.5206
8.71506
9.8113
12.4508
11.7087
10.2488
11.0281
8.10668
10.0685
10.4366
11.6113
1.85205
5.17484
8.34307
11.0822
0.126027
0.850196
4.25352
8.89208
0.00840274
0.104622
0.965262
5.32833
0.000902037
0.032572
0.131054
2.12228
0
0.000164368
0.0163244
0.557949
0
0
0.00515044
0.142953
2.53972e-06
0
0.000812437
0.0492218
3.87345e-05
2.96493e-08
0.00026462
0.0164166
8.19995e-05
2.57065e-06
2.80779e-05
0.00415439
7.50806e-05
3.57468e-05
4.15944e-07
0.000309532
6.02732e-05
7.20548e-05
1.51919e-07
2.2858e-05
5.27485e-05
7.89683e-05
3.94928e-07
3.71819e-10
5.12969e-05
6.70295e-05
2.55024e-05
5.32189e-07
5.16519e-05
5.4877e-05
5.15725e-05
6.42298e-06
5.13066e-05
4.84571e-05
5.53812e-05
2.61153e-05
4.9878e-05
4.59179e-05
4.9849e-05
4.05253e-05
4.78595e-05
4.45993e-05
4.42783e-05
4.37906e-05
4.56959e-05
4.31742e-05
4.06355e-05
4.16056e-05
4.35664e-05
4.13841e-05
3.82328e-05
3.82702e-05
4.14912e-05
3.93772e-05
3.62669e-05
3.52298e-05
3.94388e-05
3.73096e-05
3.43639e-05
3.2631e-05
3.73952e-05
3.52616e-05
3.24485e-05
3.03289e-05
3.53616e-05
3.32519e-05
3.05444e-05
2.82178e-05
3.33421e-05
3.12813e-05
2.86762e-05
2.62477e-05
3.13507e-05
2.93562e-05
2.68639e-05
2.44054e-05
2.93979e-05
2.74817e-05
2.51098e-05
2.26802e-05
2.74883e-05
2.56649e-05
2.34238e-05
2.10633e-05
2.56326e-05
2.39076e-05
2.18051e-05
1.95495e-05
2.52864e-05
2.38372e-05
2.22188e-05
2.0256e-05
1.81287e-05
2.344e-05
2.21076e-05
2.06017e-05
1.87818e-05
1.67956e-05
2.16672e-05
2.04506e-05
1.90583e-05
1.73822e-05
1.55453e-05
1.99741e-05
1.88694e-05
1.75913e-05
1.60575e-05
1.43726e-05
1.83655e-05
1.73679e-05
1.62026e-05
1.48076e-05
1.32732e-05
1.68439e-05
1.59483e-05
1.4893e-05
1.36324e-05
1.22436e-05
1.54117e-05
1.46119e-05
1.36619e-05
1.25299e-05
1.12803e-05
1.40697e-05
1.33591e-05
1.2509e-05
1.14983e-05
1.03799e-05
1.28177e-05
1.21894e-05
1.1433e-05
1.05357e-05
9.53934e-06
1.16544e-05
1.11013e-05
1.04319e-05
9.63939e-06
8.75592e-06
1.05777e-05
1.00931e-05
9.50327e-06
8.80715e-06
8.02643e-06
9.58475e-06
9.16187e-06
8.64465e-06
8.03593e-06
7.34863e-06
8.97133e-06
8.67235e-06
8.30445e-06
7.85281e-06
7.32276e-06
6.71981e-06
8.09512e-06
7.83661e-06
7.51765e-06
7.12463e-06
6.66486e-06
6.13741e-06
7.29637e-06
7.07321e-06
6.79748e-06
6.45664e-06
6.05925e-06
5.59901e-06
6.5702e-06
6.37791e-06
6.14009e-06
5.84527e-06
5.5028e-06
5.10218e-06
5.91164e-06
5.7461e-06
5.54138e-06
5.28706e-06
4.9926e-06
4.64466e-06
5.31575e-06
5.17339e-06
4.99737e-06
4.77832e-06
4.52569e-06
4.22407e-06
4.77754e-06
4.65518e-06
4.50405e-06
4.31569e-06
4.09922e-06
3.83813e-06
4.29235e-06
4.18717e-06
4.05744e-06
3.89562e-06
3.71037e-06
3.4847e-06
3.85559e-06
3.76513e-06
3.65382e-06
3.51489e-06
3.3564e-06
3.16157e-06
3.525e-06
3.46292e-06
3.38509e-06
3.28954e-06
3.17028e-06
3.0347e-06
2.86665e-06
3.16402e-06
3.11028e-06
3.04322e-06
2.96116e-06
2.85878e-06
2.74273e-06
2.5979e-06
2.84053e-06
2.79393e-06
2.73606e-06
2.66549e-06
2.57752e-06
2.47811e-06
2.35336e-06
2.55092e-06
2.5104e-06
2.46035e-06
2.39955e-06
2.32386e-06
2.23858e-06
2.13116e-06
2.29181e-06
2.25647e-06
2.21307e-06
2.16057e-06
2.09535e-06
2.02204e-06
1.92953e-06
2.05991e-06
2.02904e-06
1.99133e-06
1.94592e-06
1.88962e-06
1.82646e-06
1.74679e-06
1.85193e-06
1.82499e-06
1.79225e-06
1.75296e-06
1.70436e-06
1.64987e-06
1.58132e-06
1.68397e-06
1.66472e-06
1.64129e-06
1.61294e-06
1.57904e-06
1.53715e-06
1.49018e-06
1.43134e-06
1.51277e-06
1.4959e-06
1.47552e-06
1.451e-06
1.42179e-06
1.38578e-06
1.34537e-06
1.29509e-06
1.35884e-06
1.34391e-06
1.32605e-06
1.30473e-06
1.27949e-06
1.24851e-06
1.21374e-06
1.17089e-06
1.22133e-06
1.20789e-06
1.19202e-06
1.17328e-06
1.15128e-06
1.12445e-06
1.09442e-06
1.05793e-06
1.09834e-06
1.086e-06
1.07161e-06
1.05485e-06
1.03537e-06
1.0118e-06
9.85542e-07
9.54157e-07
9.92778e-07
9.81551e-07
9.68534e-07
9.5348e-07
9.36095e-07
9.15082e-07
8.91738e-07
8.6411e-07
9.086e-07
8.98284e-07
8.86447e-07
8.7286e-07
8.57188e-07
8.38179e-07
8.17094e-07
7.93549e-07
8.44558e-07
8.36183e-07
8.25884e-07
8.14392e-07
8.01574e-07
7.86982e-07
7.69517e-07
7.49885e-07
7.28933e-07
7.80179e-07
7.71919e-07
7.61754e-07
7.50461e-07
7.37999e-07
7.23959e-07
7.07483e-07
6.89422e-07
6.71961e-07
7.12713e-07
7.04208e-07
6.94043e-07
6.82875e-07
6.70706e-07
6.57131e-07
6.41195e-07
6.22902e-07
6.03708e-07
6.58282e-07
6.50544e-07
6.41165e-07
6.30661e-07
6.19068e-07
6.06213e-07
5.91656e-07
5.76725e-07
5.65271e-07
5.81991e-07
5.73351e-07
5.63577e-07
5.53099e-07
5.41899e-07
5.29441e-07
5.14449e-07
4.95622e-07
4.74493e-07
5.57602e-07
5.50437e-07
5.4177e-07
5.31947e-07
5.2122e-07
5.09868e-07
4.98501e-07
4.90012e-07
4.89458e-07
4.51034e-07
4.42796e-07
4.33802e-07
4.24118e-07
4.13573e-07
4.0124e-07
3.84708e-07
3.62115e-07
3.34836e-07
5.17638e-07
5.12619e-07
5.06146e-07
4.982e-07
4.89625e-07
4.81676e-07
4.78026e-07
4.8453e-07
5.01054e-07
4.03074e-07
4.0245e-07
3.99557e-07
3.94362e-07
3.87158e-07
3.77373e-07
3.63993e-07
3.5629e-07
3.42184e-07
6.96357e-07
6.80403e-07
6.80715e-07
6.80844e-07
6.80041e-07
6.79057e-07
6.80106e-07
6.93002e-07
7.24442e-07
7.40514e-07
7.46998e-07
7.42535e-07
7.46939e-07
7.52349e-07
7.5696e-07
7.611e-07
7.66955e-07
7.8644e-07
8.19227e-07
8.17417e-07
1.26412e-06
1.06793e-06
1.08314e-06
1.0961e-06
1.10375e-06
1.11257e-06
1.12442e-06
1.14781e-06
1.16828e-06
9.99063e-07
15.1655
6.96063
3.09888
8.99667
12.0143
12.6178
11.253
8.12279
4.16882
1.25682
0.211472
0.0425045
0.0141883
0.00360042
0.000173687
1.00481e-05
0
8.52302e-08
1.76568e-06
1.8271e-05
3.31038e-05
3.73933e-05
3.58428e-05
3.2886e-05
3.01497e-05
2.78587e-05
2.58655e-05
2.40574e-05
2.23787e-05
2.08157e-05
1.93605e-05
1.80058e-05
1.67454e-05
1.5569e-05
1.44692e-05
1.34409e-05
1.24774e-05
1.15739e-05
1.07266e-05
9.93161e-06
9.18542e-06
8.48534e-06
7.82965e-06
7.21498e-06
6.64017e-06
6.10334e-06
5.60255e-06
5.13627e-06
4.70291e-06
4.30096e-06
3.92891e-06
3.58511e-06
3.26819e-06
2.97655e-06
2.70871e-06
2.4632e-06
2.23854e-06
2.03331e-06
1.84613e-06
1.67569e-06
1.52067e-06
1.37965e-06
1.25118e-06
1.13364e-06
1.02649e-06
9.27459e-07
8.40741e-07
7.73836e-07
7.09946e-07
6.58536e-07
5.85112e-07
5.60158e-07
4.5035e-07
4.991e-07
2.97317e-07
5.26198e-07
3.06126e-07
7.39751e-07
7.59471e-07
9.37132e-07
10.9748
10.383
4.98201
2.77194
6.9099
9.33966
9.61219
7.96945
4.95932
1.89837
0.308581
0.0224452
0.00562491
0.00202662
0.000166793
1.36575e-05
0
2.41231e-08
5.11502e-07
9.64315e-06
2.02764e-05
2.43151e-05
2.41195e-05
2.2668e-05
2.12096e-05
1.99686e-05
1.88699e-05
1.78421e-05
1.68564e-05
1.59105e-05
1.50058e-05
1.41427e-05
1.33212e-05
1.25375e-05
1.17893e-05
1.10758e-05
1.03939e-05
9.74288e-06
9.12122e-06
8.52771e-06
7.96119e-06
7.42094e-06
6.907e-06
6.41764e-06
5.95325e-06
5.51341e-06
5.09739e-06
4.70493e-06
4.33561e-06
3.98893e-06
3.66444e-06
3.36139e-06
3.07918e-06
2.81706e-06
2.5742e-06
2.34976e-06
2.14283e-06
1.95248e-06
1.77773e-06
1.61765e-06
1.47127e-06
1.33745e-06
1.21504e-06
1.10264e-06
9.99822e-07
9.04574e-07
8.20463e-07
7.55279e-07
6.91963e-07
6.43433e-07
5.69666e-07
5.48655e-07
4.36565e-07
4.90552e-07
2.84939e-07
5.16443e-07
2.95305e-07
7.21345e-07
7.37459e-07
7.14458
8.62196
6.91974
3.04574
2.29828
5.71817
7.6937
7.75757
6.07548
3.35113
0.992487
0.0910599
0.00389559
0.000573035
0.000190027
0
0
1.3144e-09
2.74128e-08
4.03938e-06
1.12366e-05
1.48233e-05
1.52983e-05
1.47311e-05
1.40917e-05
1.35724e-05
1.31294e-05
1.27069e-05
1.22771e-05
1.18358e-05
1.13843e-05
1.09258e-05
1.0464e-05
9.99979e-06
9.53509e-06
9.07259e-06
8.61338e-06
8.16022e-06
7.71417e-06
7.27699e-06
6.84981e-06
6.43411e-06
6.03137e-06
5.64155e-06
5.26628e-06
4.90618e-06
4.5615e-06
4.23284e-06
3.92046e-06
3.62454e-06
3.34521e-06
3.08222e-06
2.83555e-06
2.6048e-06
2.3896e-06
2.1895e-06
2.00391e-06
1.83224e-06
1.67379e-06
1.52791e-06
1.39387e-06
1.27077e-06
1.15772e-06
1.05347e-06
9.57698e-07
8.68681e-07
7.89382e-07
7.28007e-07
6.66987e-07
6.22626e-07
5.50345e-07
5.33117e-07
4.22417e-07
4.78139e-07
2.78166e-07
5.03649e-07
2.93646e-07
7.05978e-07
4.68553
6.38721
6.58599
4.8882
1.92129
1.92262
4.70515
6.31902
6.33426
4.83593
2.505
0.661411
0.050869
0.000349661
0.000116325
0
0
0
1.01026e-07
2.05224e-06
7.91762e-06
1.17407e-05
1.25556e-05
1.20879e-05
1.14477e-05
1.09447e-05
1.05558e-05
1.02148e-05
9.88773e-06
9.5642e-06
9.24052e-06
8.91549e-06
8.58898e-06
8.25945e-06
7.92659e-06
7.59102e-06
7.25338e-06
6.91531e-06
6.57764e-06
6.24197e-06
5.90961e-06
5.58213e-06
5.26094e-06
4.94673e-06
4.64118e-06
4.34509e-06
4.05915e-06
3.78431e-06
3.52096e-06
3.26965e-06
3.03077e-06
2.80431e-06
2.59057e-06
2.38937e-06
2.2006e-06
2.02409e-06
1.85946e-06
1.70636e-06
1.56434e-06
1.4329e-06
1.31156e-06
1.19961e-06
1.09636e-06
1.00074e-06
9.12455e-07
8.30097e-07
7.5605e-07
6.99237e-07
6.4118e-07
6.0114e-07
5.30676e-07
5.17149e-07
4.08412e-07
4.65728e-07
2.72056e-07
4.9198e-07
2.91172e-07
2.84463
4.43205
5.37364
5.17273
3.70862
1.39375
1.55719
3.80709
5.158
5.20015
3.94809
2.00748
0.522705
0.038633
0.00270386
0
0
0
4.17105e-10
8.49503e-09
4.16184e-06
9.13041e-06
1.04505e-05
1.01919e-05
9.68034e-06
9.22926e-06
8.87559e-06
8.57644e-06
8.29351e-06
8.01471e-06
7.739e-06
7.46691e-06
7.1983e-06
6.93201e-06
6.66697e-06
6.40252e-06
6.13846e-06
5.87506e-06
5.61218e-06
5.35036e-06
5.09021e-06
4.83245e-06
4.57788e-06
4.32707e-06
4.08118e-06
3.84081e-06
3.60671e-06
3.37979e-06
3.16044e-06
2.94933e-06
2.74701e-06
2.55371e-06
2.36979e-06
2.19537e-06
2.03057e-06
1.87538e-06
1.72968e-06
1.59332e-06
1.46606e-06
1.34759e-06
1.23761e-06
1.13561e-06
1.0411e-06
9.5319e-07
8.71591e-07
7.95208e-07
7.25831e-07
6.73055e-07
6.17618e-07
5.81343e-07
5.12451e-07
5.02271e-07
3.9507e-07
4.54455e-07
2.65365e-07
4.82588e-07
1.41956
2.74717
3.91671
4.50466
4.22016
3.00956
1.15007
1.19956
3.07379
4.2556
4.35646
3.34315
1.73042
0.47106
0.0414326
0.00253497
5.35407e-07
0
0
7.33705e-10
1.24725e-08
4.18452e-06
7.73983e-06
7.92741e-06
7.4227e-06
7.11144e-06
6.9003e-06
6.72246e-06
6.55908e-06
6.39519e-06
6.225e-06
6.04988e-06
5.87148e-06
5.69024e-06
5.5059e-06
5.31848e-06
5.12849e-06
4.93644e-06
4.74244e-06
4.54704e-06
4.35088e-06
4.15435e-06
3.95819e-06
3.76294e-06
3.56944e-06
3.37824e-06
3.19011e-06
3.00587e-06
2.82594e-06
2.65105e-06
2.48185e-06
2.31869e-06
2.16206e-06
2.01222e-06
1.86953e-06
1.73408e-06
1.60599e-06
1.48525e-06
1.37181e-06
1.26554e-06
1.16626e-06
1.07367e-06
9.87445e-07
9.06866e-07
8.3166e-07
7.61025e-07
6.96121e-07
6.47122e-07
5.94169e-07
5.61455e-07
4.94186e-07
4.87273e-07
3.81561e-07
4.43243e-07
0.469882
1.36213
2.45753
3.37995
3.81909
3.56878
2.58866
1.06378
0.857974
2.46229
3.53499
3.70823
2.91642
1.57058
0.467436
0.052534
0.000145938
3.0165e-05
0
0
9.46594e-12
2.24642e-07
3.64862e-06
6.48155e-06
6.18916e-06
5.59599e-06
5.37492e-06
5.26613e-06
5.15597e-06
5.04836e-06
4.9443e-06
4.83804e-06
4.72812e-06
4.61485e-06
4.49746e-06
4.37521e-06
4.24814e-06
4.11658e-06
3.98067e-06
3.84095e-06
3.69798e-06
3.5522e-06
3.40441e-06
3.25516e-06
3.10516e-06
2.95512e-06
2.80573e-06
2.65775e-06
2.51169e-06
2.36828e-06
2.22818e-06
2.09182e-06
1.95977e-06
1.83237e-06
1.71006e-06
1.59306e-06
1.48159e-06
1.37579e-06
1.27571e-06
1.18133e-06
1.09263e-06
1.00942e-06
9.31501e-07
8.58354e-07
7.89672e-07
7.24947e-07
6.64697e-07
6.1963e-07
5.69335e-07
5.40301e-07
4.74902e-07
4.71395e-07
0.0623986
0.425078
1.18312
2.10495
2.88613
3.27549
3.10464
2.32822
1.06981
0.544297
1.93806
2.93583
3.1853
2.59314
1.4706
0.488079
0.0657461
0.000523705
6.74994e-05
0
0
0
1.68606e-07
2.63203e-06
5.38561e-06
5.11099e-06
4.47569e-06
4.28374e-06
4.22731e-06
4.14768e-06
4.05711e-06
3.9724e-06
3.89057e-06
3.80794e-06
3.72337e-06
3.63607e-06
3.54538e-06
3.45111e-06
3.35297e-06
3.25102e-06
3.14545e-06
3.03649e-06
2.92466e-06
2.81036e-06
2.69413e-06
2.57659e-06
2.45827e-06
2.33987e-06
2.22188e-06
2.10494e-06
1.98966e-06
1.8765e-06
1.76603e-06
1.65859e-06
1.55464e-06
1.4545e-06
1.35841e-06
1.2666e-06
1.17917e-06
1.0962e-06
1.01773e-06
9.4369e-07
8.7398e-07
8.08236e-07
7.46104e-07
6.87372e-07
6.31905e-07
5.90917e-07
5.43436e-07
0.000538392
0.0456668
0.330627
0.954507
1.74386
2.44156
2.82793
2.75047
2.15444
1.1183
0.281177
1.48512
2.42756
2.75057
2.33434
1.4054
0.515754
0.0828147
0.00173621
0.000124278
0
0
0
9.30492e-08
1.37683e-06
4.22832e-06
4.29777e-06
3.65732e-06
3.44114e-06
3.41955e-06
3.37781e-06
3.31004e-06
3.24297e-06
3.17974e-06
3.11631e-06
3.05084e-06
2.98285e-06
2.91224e-06
2.83863e-06
2.76191e-06
2.68205e-06
2.59915e-06
2.51344e-06
2.42517e-06
2.33468e-06
2.24238e-06
2.14868e-06
2.05414e-06
1.95911e-06
1.86416e-06
1.76981e-06
1.67643e-06
1.5846e-06
1.49462e-06
1.40693e-06
1.32186e-06
1.23968e-06
1.16065e-06
1.08491e-06
1.01257e-06
9.43735e-07
8.78406e-07
8.1655e-07
7.57963e-07
7.02208e-07
6.49374e-07
0.000132915
0.000206859
0.0251025
0.224287
0.717943
1.39642
2.03863
2.44172
2.45886
2.02334
1.17844
0.173469
1.09347
1.99058
2.37933
2.11746
1.35629
0.547014
0.103888
0.00409652
0.000181587
0
0
0
2.88623e-08
3.73956e-07
3.03819e-06
3.61957e-06
3.07872e-06
2.80354e-06
2.76573e-06
2.74639e-06
2.7011e-06
2.65134e-06
2.60448e-06
2.55754e-06
2.50847e-06
2.45696e-06
2.4028e-06
2.34585e-06
2.286e-06
2.2233e-06
2.15788e-06
2.08995e-06
2.01971e-06
1.94746e-06
1.87351e-06
1.79831e-06
1.72212e-06
1.6454e-06
1.56859e-06
1.49201e-06
1.41615e-06
1.3413e-06
1.26784e-06
1.19611e-06
1.12637e-06
1.05887e-06
9.93788e-07
9.31245e-07
8.71376e-07
8.14215e-07
0
9.378e-05
0.000288019
0.0106492
0.131902
0.500173
1.07404
1.66993
2.09499
2.20142
1.90974
1.23384
0.309544
0.755124
1.61046
2.0545
1.92669
1.31217
0.57852
0.128292
0.00792158
0.000259166
0
0
0
1.05142e-09
3.78198e-09
1.77114e-06
2.89964e-06
2.59767e-06
2.32317e-06
2.26457e-06
2.25054e-06
2.21923e-06
2.18153e-06
2.1456e-06
2.1098e-06
2.07232e-06
2.03272e-06
1.99082e-06
1.94641e-06
1.8994e-06
1.84987e-06
1.79792e-06
1.74369e-06
1.6874e-06
1.6293e-06
1.56974e-06
1.50892e-06
1.44721e-06
1.38498e-06
1.32252e-06
1.26022e-06
1.19835e-06
1.13725e-06
1.07721e-06
1.01849e-06
2.28698e-16
0
9.07544e-06
4.72592e-05
0.00276384
0.0658088
0.31823
0.785461
1.33181
1.77448
1.96128
1.79863
1.27488
0.479663
0.463384
1.27598
1.76405
1.75147
1.26781
0.607729
0.155066
0.0137098
0.000424891
1.37522e-07
0
0
3.69515e-12
7.94817e-08
1.16223e-06
2.26446e-06
2.18198e-06
1.94224e-06
1.87297e-06
1.86125e-06
1.83912e-06
1.80977e-06
1.78129e-06
1.75308e-06
1.72345e-06
1.69197e-06
1.6585e-06
1.62291e-06
1.58515e-06
1.54525e-06
1.50328e-06
1.45938e-06
1.41371e-06
1.36656e-06
1.31808e-06
1.26856e-06
2.66461e-12
2.22285e-12
0
8.40707e-09
0.000340918
0.000303188
0.0261678
0.180957
0.539106
1.025
1.47413
1.72885
1.68106
1.29526
0.627731
0.217506
0.979762
1.50013
1.58587
1.22009
0.63261
0.183695
0.0202264
5.67317e-05
9.80092e-06
0
0
0
4.87608e-08
6.91412e-07
1.78452e-06
1.84365e-06
1.63288e-06
1.55743e-06
1.54814e-06
1.53312e-06
1.50958e-06
1.48625e-06
)
;

boundaryField
{
    inlet
    {
        type            calculated;
        value           nonuniform List<scalar> 
11
(
5.59369e-06
5.30212e-06
5.42936e-06
5.54741e-06
5.65205e-06
5.74503e-06
5.83218e-06
5.91985e-06
6.02366e-06
5.7895e-06
6.09948e-06
)
;
    }
    outlet
    {
        type            calculated;
        value           nonuniform List<scalar> 0();
    }
    walls
    {
        type            calculated;
        value           uniform 0;
    }
    frontAndBack
    {
        type            empty;
    }
    procBoundary6to2
    {
        type            processor;
        value           nonuniform List<scalar> 
13
(
10.4545
6.28832
3.96657
2.38934
1.18158
0.396775
0.0571895
0.000589719
0.000263139
0
0
5.41904e-08
8.75828e-07
)
;
    }
    procBoundary6to3
    {
        type            processor;
        value           uniform 1.15772e-06;
    }
    procBoundary6to5
    {
        type            processor;
        value           nonuniform List<scalar> 
86
(
29.3091
11.0154
14.1316
12.6338
5.00208
0.197511
0.0210693
0.003201
0
0
3.25128e-06
5.28134e-05
7.81768e-05
6.73447e-05
6.0129e-05
5.94958e-05
5.97736e-05
5.86028e-05
5.64486e-05
5.41391e-05
5.19905e-05
4.997e-05
4.79711e-05
4.59332e-05
4.38502e-05
4.17363e-05
3.96071e-05
3.74781e-05
3.53609e-05
3.32639e-05
3.11981e-05
2.91739e-05
2.72003e-05
2.72003e-05
2.66019e-05
2.46293e-05
2.2738e-05
2.09339e-05
1.92216e-05
1.76045e-05
1.60846e-05
1.46627e-05
1.33381e-05
1.21095e-05
1.09744e-05
9.92964e-06
9.92964e-06
9.20904e-06
8.29996e-06
7.47276e-06
6.72202e-06
6.0423e-06
5.42814e-06
4.87432e-06
4.37574e-06
3.92749e-06
3.92749e-06
3.57369e-06
3.20637e-06
2.87749e-06
2.58329e-06
2.32026e-06
2.08494e-06
1.87392e-06
1.87392e-06
1.69946e-06
1.52648e-06
1.37113e-06
1.23254e-06
1.10875e-06
1.00212e-06
9.16935e-07
9.16935e-07
8.51864e-07
7.87489e-07
7.20489e-07
6.65583e-07
5.90167e-07
5.65551e-07
4.57538e-07
5.27801e-07
3.96845e-07
3.96845e-07
6.4306e-07
7.43606e-07
9.60316e-07
)
;
    }
    procBoundary6to7
    {
        type            processor;
        value           nonuniform List<scalar> 
91
(
9.39402e-07
9.39402e-07
7.13834e-07
7.13834e-07
6.92248e-07
6.92248e-07
2.88853e-07
2.58104e-07
2.88853e-07
4.7385e-07
3.67358e-07
2.58104e-07
4.31546e-07
5.18164e-07
4.5484e-07
3.67358e-07
4.54825e-07
5.98669e-07
5.61754e-07
5.18164e-07
5.1713e-07
7.59785e-07
7.08022e-07
6.58405e-07
5.98669e-07
6.11307e-07
9.61327e-07
9.05895e-07
8.52314e-07
8.00721e-07
7.59785e-07
7.51188e-07
1.2183e-06
1.16755e-06
1.11662e-06
1.06576e-06
1.01526e-06
9.65363e-07
9.61327e-07
9.16315e-07
1.46357e-06
1.4398e-06
1.41437e-06
1.38719e-06
1.35817e-06
1.3273e-06
1.29462e-06
1.26021e-06
1.22421e-06
1.18679e-06
1.14812e-06
1.2183e-06
1.10839e-06
1.71755e-08
1.0224e-09
0
0
3.99692e-05
8.26685e-05
0.00693934
0.0878289
0.339563
0.751329
1.19086
1.49866
1.5515
1.29155
0.745691
0.0792466
0.717401
1.25788
1.4263
1.16689
0.65206
0.212442
0.029384
0.000314196
3.54527e-05
0
0
0
2.72641e-08
3.72668e-07
1.40653e-06
1.57162e-06
1.378e-06
1.29219e-06
1.28589e-06
1.27974e-06
1.46357e-06
1.26247e-06
)
;
    }
}


// ************************************************************************* //
