/*--------------------------------*- C++ -*----------------------------------*\
| =========                 |                                                 |
| \\      /  F ield         | OpenFOAM: The Open Source CFD Toolbox           |
|  \\    /   O peration     | Version:  2306                                  |
|   \\  /    A nd           | Website:  www.openfoam.com                      |
|    \\/     M anipulation  |                                                 |
\*---------------------------------------------------------------------------*/
FoamFile
{
    version     2.0;
    format      ascii;
    arch        "LSB;label=32;scalar=64";
    class       volSymmTensorField;
    location    "425";
    object      turbulenceProperties:devReff;
}
// * * * * * * * * * * * * * * * * * * * * * * * * * * * * * * * * * * * * * //

dimensions      [0 2 -2 0 0 0 0];

internalField   nonuniform List<symmTensor> 
1340
(
(-2.4355 -7.22742 1.22002e-15 2.4245 1.14391e-15 0.0109965)
(-2.07505 -5.67582 -1.22458e-16 2.06184 -5.25288e-16 0.0132142)
(-1.60212 -4.21393 -1.54849e-15 1.60279 -2.10193e-17 -0.00067192)
(-0.759613 -1.48484 -3.64248e-16 0.762544 -3.32891e-15 -0.00293117)
(-0.781604 -2.74355 3.42269e-15 0.80207 -4.99313e-15 -0.020466)
(-0.730806 -2.43278 -1.50382e-15 0.74391 1.52316e-15 -0.0131037)
(-0.562013 -2.14572 3.25258e-15 0.594741 4.03374e-16 -0.0327281)
(-0.85098 -2.43446 5.79889e-15 0.75181 8.24934e-15 0.0991703)
(-0.878606 -3.52393 -1.43659e-14 0.881578 5.20417e-16 -0.00297262)
(-0.798658 -3.05375 4.95846e-15 0.797638 -1.62557e-15 0.00101967)
(-0.531926 -2.55829 5.14278e-15 0.547034 -1.52321e-15 -0.0151083)
(-0.844158 -2.82233 -1.01094e-14 0.826924 3.05705e-15 0.0172337)
(-0.792917 -3.65055 4.79323e-15 0.790378 4.8945e-15 0.00253891)
(-0.80127 -3.4207 -1.01674e-14 0.796554 -1.3013e-16 0.00471627)
(-0.574029 -3.01971 -1.30299e-14 0.584018 1.88261e-15 -0.00998941)
(-0.812925 -3.21035 9.22616e-15 0.785156 -3.48762e-15 0.0277687)
(-0.400651 -2.39886 -9.9592e-16 0.401353 4.27284e-16 -0.000701986)
(-0.585942 -2.9637 -1.75008e-15 0.581967 3.9849e-15 0.00397463)
(-0.525531 -3.08576 6.73599e-16 0.53602 2.43407e-16 -0.010489)
(-0.772351 -3.40055 -1.72702e-14 0.735093 4.32357e-15 0.0372577)
(-0.0171707 -0.555379 2.80706e-15 0.0187662 -1.6481e-15 -0.00159558)
(-0.202861 -1.53929 1.02182e-14 0.202065 -1.6274e-15 0.000795487)
(-0.331932 -2.48019 5.21477e-16 0.342185 -9.1584e-17 -0.0102533)
(-0.674063 -3.25899 3.62081e-15 0.637863 -3.42058e-15 0.0362001)
(0.0289965 0.0243138 -1.25199e-15 -0.0289558 3.17587e-16 -4.06283e-05)
(0.0319508 -0.253033 -1.31489e-15 -0.0326984 -8.04211e-16 0.000747595)
(-0.0703232 -1.27393 1.17092e-15 0.0779242 -2.66908e-16 -0.00760102)
(-0.47437 -2.62752 3.10511e-15 0.443959 -9.00496e-16 0.0304104)
(0.00132646 0.00217811 5.24173e-17 -0.00132421 1.27524e-18 -2.24564e-06)
(0.0230423 0.0211653 -4.14174e-16 -0.0233512 1.4026e-16 0.000308842)
(0.0620016 -0.283194 -1.86814e-15 -0.0588862 3.43134e-16 -0.00311539)
(-0.216733 -1.58499 9.84141e-15 0.193411 -5.70153e-16 0.0233218)
(0.000226816 0.00015862 -4.40075e-18 -0.000225896 -1.87005e-18 -9.2001e-07)
(0.00598939 0.00771573 9.08162e-17 -0.00606884 -7.74891e-18 7.94533e-05)
(0.0396436 0.00322158 1.87459e-15 -0.0386991 -2.2745e-16 -0.00094448)
(-0.0285434 -0.635948 -4.58204e-15 0.0125658 1.49637e-15 0.0159777)
(9.17637e-06 -3.19768e-06 1.04665e-19 -9.12588e-06 5.18442e-20 -5.0489e-08)
(3.63554e-05 1.19594e-05 -6.99865e-19 -3.70001e-05 1.03248e-19 6.44738e-07)
(0.00402573 0.00288823 -6.1828e-17 -0.00391708 2.68384e-18 -0.000108652)
(0.0324288 -0.162733 -3.52846e-15 -0.0413961 1.50718e-16 0.00896733)
(8.92119e-06 -3.75008e-06 7.08036e-20 -8.86785e-06 -1.03587e-20 -5.33424e-08)
(7.4939e-06 -5.22387e-06 2.38808e-19 -7.6279e-06 1.66128e-20 1.33994e-07)
(0.00148456 0.000530719 -1.0155e-17 -0.00143727 1.99947e-18 -4.72905e-05)
(0.0253997 -0.0325665 5.76781e-16 -0.0292437 -2.59579e-16 0.003844)
(9.05527e-06 -1.52183e-06 8.26349e-20 -9.01163e-06 -8.45519e-20 -4.36341e-08)
(7.63584e-06 -5.63394e-06 1.49057e-19 -7.74687e-06 -4.64298e-20 1.11033e-07)
(0.000242178 -7.49177e-05 1.31938e-18 -0.000233858 -2.32798e-19 -8.31997e-06)
(0.0105039 -0.00945794 6.08718e-16 -0.011846 -1.78626e-17 0.00134211)
(1.10173e-05 -4.96359e-07 -4.24082e-19 -1.09722e-05 1.18033e-19 -4.51061e-08)
(8.02841e-06 -3.65465e-06 -1.00275e-20 -8.13572e-06 -4.39515e-20 1.07307e-07)
(6.23164e-05 -4.04384e-05 -1.62161e-18 -6.02466e-05 1.26022e-19 -2.06979e-06)
(0.00315823 -0.00357208 -2.22257e-16 -0.00355229 2.19249e-17 0.000394056)
(1.77318e-05 -6.69579e-07 9.64399e-19 -1.76632e-05 -7.89199e-20 -6.86046e-08)
(8.06985e-06 -2.41888e-06 -2.50452e-19 -8.17354e-06 3.97604e-20 1.03691e-07)
(8.28333e-06 -5.18554e-06 -8.79992e-20 -8.03945e-06 2.50183e-20 -2.43881e-07)
(0.000717208 -0.000992721 6.46153e-17 -0.000803917 -6.09717e-18 8.67092e-05)
(1.62859e-05 -9.38274e-07 -7.13851e-19 -1.62264e-05 -7.42338e-20 -5.95889e-08)
(9.69491e-06 -2.64286e-06 1.5685e-19 -9.81146e-06 1.48849e-20 1.16554e-07)
(7.17531e-06 -3.81992e-06 3.38358e-19 -6.99197e-06 -3.90791e-20 -1.83337e-07)
(4.7108e-05 -6.89399e-05 -5.08652e-18 -5.23643e-05 5.64448e-19 5.25631e-06)
(1.35034e-05 -8.9029e-07 7.14734e-20 -1.34585e-05 9.8018e-20 -4.48943e-08)
(1.49024e-05 -4.32715e-06 -2.99876e-20 -1.5066e-05 -2.68364e-20 1.63548e-07)
(6.93612e-06 -3.41751e-06 -3.50431e-19 -6.78124e-06 1.95699e-20 -1.54883e-07)
(5.85971e-06 -8.32477e-06 1.81171e-19 -6.4441e-06 -3.70848e-20 5.84391e-07)
(1.21842e-05 -7.66666e-07 1.09876e-19 -1.21477e-05 -8.39392e-21 -3.6441e-08)
(1.62262e-05 -4.92997e-06 -9.71558e-20 -1.63877e-05 3.29568e-21 1.61478e-07)
(6.62882e-06 -3.31767e-06 2.04737e-20 -6.50005e-06 1.60858e-20 -1.28772e-07)
(5.17932e-06 -7.02486e-06 -1.22337e-19 -5.63558e-06 9.2246e-21 4.56265e-07)
(1.18359e-05 -6.6873e-07 3.53393e-20 -1.18046e-05 -5.03058e-20 -3.1328e-08)
(1.38378e-05 -4.20532e-06 -7.28973e-20 -1.39615e-05 2.86213e-20 1.23741e-07)
(7.3348e-06 -3.82989e-06 3.13975e-19 -7.21057e-06 -1.60264e-20 -1.24232e-07)
(4.88792e-06 -6.41432e-06 1.58989e-19 -5.2665e-06 -1.87438e-20 3.78577e-07)
(1.17667e-05 -5.88884e-07 -2.89734e-19 -1.17395e-05 1.74905e-20 -2.71973e-08)
(1.1642e-05 -3.4552e-06 1.62471e-19 -1.17348e-05 -8.85593e-21 9.28048e-08)
(1.01543e-05 -5.46725e-06 2.80854e-19 -1.00067e-05 -3.22434e-20 -1.47579e-07)
(4.64342e-06 -5.9709e-06 4.14829e-19 -4.95843e-06 -1.83576e-20 3.15008e-07)
(1.15911e-05 -5.05272e-07 3.08268e-20 -1.15682e-05 3.06118e-20 -2.29232e-08)
(1.05367e-05 -3.03391e-06 -3.69852e-20 -1.06114e-05 -1.8612e-20 7.47502e-08)
(1.06454e-05 -5.81055e-06 -9.62925e-20 -1.05158e-05 -1.86026e-20 -1.29544e-07)
(5.06558e-06 -6.40353e-06 -3.64663e-20 -5.36399e-06 1.17694e-20 2.98417e-07)
(1.12393e-05 -4.08839e-07 -9.70761e-21 -1.12203e-05 -1.91153e-20 -1.89628e-08)
(1.00504e-05 -2.80234e-06 -1.33291e-19 -1.01129e-05 2.06649e-20 6.24985e-08)
(9.66092e-06 -5.2814e-06 -4.57489e-19 -9.56382e-06 3.20262e-20 -9.71024e-08)
(5.96702e-06 -7.39006e-06 -2.59333e-19 -6.26985e-06 1.14664e-20 3.02823e-07)
(1.0788e-05 -3.03149e-07 -1.48607e-19 -1.0773e-05 3.59507e-20 -1.49724e-08)
(9.74868e-06 -2.62386e-06 1.39846e-19 -9.80109e-06 -7.49289e-21 5.24185e-08)
(8.71562e-06 -4.73708e-06 1.16709e-19 -8.64422e-06 4.05931e-21 -7.13973e-08)
(6.23699e-06 -7.53359e-06 -1.55039e-19 -6.50629e-06 4.24215e-21 2.69306e-07)
(1.03104e-05 -1.92775e-07 2.94757e-19 -1.02989e-05 -2.09822e-21 -1.14901e-08)
(9.42985e-06 -2.43665e-06 -1.4192e-19 -9.4736e-06 2.89887e-21 4.37477e-08)
(8.08928e-06 -4.34496e-06 -9.65765e-20 -8.03708e-06 4.43802e-21 -5.21995e-08)
(6.00505e-06 -7.03784e-06 3.4012e-19 -6.22415e-06 -1.23042e-20 2.19108e-07)
(9.83625e-06 -8.03082e-08 -4.20841e-20 -9.82745e-06 -2.98345e-20 -8.80002e-09)
(9.05255e-06 -2.23099e-06 7.48181e-20 -9.08827e-06 -6.5777e-21 3.57237e-08)
(7.65557e-06 -4.04094e-06 1.33499e-19 -7.61782e-06 -9.92424e-21 -3.77573e-08)
(5.654e-06 -6.40497e-06 -2.19331e-19 -5.82663e-06 9.16123e-21 1.72635e-07)
(9.36903e-06 3.26069e-08 -4.69517e-20 -9.36291e-06 -1.63739e-21 -6.12408e-09)
(8.6395e-06 -2.0139e-06 -1.92408e-19 -8.6681e-06 8.07039e-21 2.85955e-08)
(7.29337e-06 -3.7592e-06 -2.21747e-19 -7.26693e-06 1.39081e-20 -2.64312e-08)
(5.33571e-06 -5.81787e-06 2.46956e-19 -5.47051e-06 -6.62819e-21 1.348e-07)
(8.90387e-06 1.4466e-07 -8.93971e-20 -8.89977e-06 1.27884e-20 -4.10627e-09)
(8.21502e-06 -1.79486e-06 1.00557e-19 -8.23728e-06 2.32832e-20 2.22576e-08)
(6.94654e-06 -3.47377e-06 3.35784e-19 -6.92872e-06 -1.46698e-22 -1.78164e-08)
(5.06436e-06 -5.29495e-06 -2.41297e-19 -5.16812e-06 5.33897e-21 1.03767e-07)
(8.4389e-06 2.55572e-07 9.37255e-20 -8.43632e-06 9.17948e-21 -2.57826e-09)
(7.79213e-06 -1.57764e-06 2.83593e-19 -7.80943e-06 -1.98153e-20 1.72944e-08)
(6.60301e-06 -3.18057e-06 2.07815e-20 -6.59196e-06 -8.2146e-21 -1.10542e-08)
(4.82433e-06 -4.81649e-06 1.30242e-19 -4.90322e-06 -3.02038e-21 7.88884e-08)
(7.97455e-06 3.62173e-07 7.71854e-20 -7.97361e-06 -1.59257e-20 -9.38559e-10)
(7.37363e-06 -1.36601e-06 -1.64204e-19 -7.38698e-06 -1.73221e-20 1.33557e-08)
(6.26375e-06 -2.88587e-06 4.00865e-20 -6.25811e-06 -7.73426e-21 -5.63634e-09)
(4.60285e-06 -4.36978e-06 -2.4661e-19 -4.66253e-06 2.85731e-21 5.96804e-08)
(7.51214e-06 4.64811e-07 -1.37878e-19 -7.51198e-06 6.26715e-21 -1.62375e-10)
(6.9603e-06 -1.15928e-06 -1.10204e-19 -6.97007e-06 1.52796e-20 9.77643e-09)
(5.93127e-06 -2.5935e-06 -2.1423e-19 -5.92923e-06 4.37088e-21 -2.04466e-09)
(4.39308e-06 -3.94901e-06 1.59637e-19 -4.4376e-06 -3.95846e-21 4.45224e-08)
(7.05443e-06 5.61528e-07 1.53926e-19 -7.05486e-06 -2.72734e-21 4.24507e-10)
(6.55289e-06 -9.60942e-07 1.22139e-19 -6.55998e-06 -3.78551e-21 7.09761e-09)
(5.60686e-06 -2.30812e-06 1.04062e-19 -5.60761e-06 -1.94663e-21 7.51264e-10)
(4.19287e-06 -3.55218e-06 -3.57009e-19 -4.22618e-06 5.93906e-21 3.3308e-08)
(6.6036e-06 6.50749e-07 -1.82947e-19 -6.60478e-06 -4.68067e-21 1.18902e-09)
(6.15282e-06 -7.70764e-07 -1.84259e-19 -6.15781e-06 -7.12138e-22 4.98313e-09)
(5.29012e-06 -2.03169e-06 -2.69746e-19 -5.2923e-06 3.41926e-22 2.18556e-09)
(3.99968e-06 -3.17909e-06 5.68441e-19 -4.02421e-06 4.95478e-21 2.45214e-08)
(6.16111e-06 7.31801e-07 9.07374e-20 -6.16256e-06 1.34535e-20 1.45167e-09)
(5.76122e-06 -5.91407e-07 1.24949e-19 -5.76485e-06 1.52517e-21 3.63363e-09)
(4.98175e-06 -1.76662e-06 1.57922e-19 -4.9852e-06 1.1873e-20 3.44989e-09)
(3.81245e-06 -2.82816e-06 -2.28046e-19 -3.83017e-06 -8.80799e-21 1.77203e-08)
(5.72929e-06 8.03968e-07 4.77052e-20 -5.73094e-06 -7.37973e-21 1.64751e-09)
(5.3789e-06 -4.2326e-07 -1.69485e-19 -5.38115e-06 -5.44115e-21 2.24505e-09)
(4.68092e-06 -1.51522e-06 6.24172e-20 -4.68498e-06 -1.22823e-20 4.05715e-09)
(3.6297e-06 -2.49969e-06 9.54924e-20 -3.64248e-06 4.26558e-21 1.27791e-08)
(5.35103e-06 1.98544e-06 -1.85805e-19 -5.35251e-06 9.37452e-21 1.47802e-09)
(5.30985e-06 8.66262e-07 -7.58434e-20 -5.31167e-06 -8.66171e-21 1.8209e-09)
(5.00765e-06 -2.67288e-07 5.43729e-20 -5.00901e-06 1.5721e-20 1.36022e-09)
(4.38798e-06 -1.27825e-06 -2.58339e-19 -4.39208e-06 -1.21486e-21 4.09658e-09)
(3.45012e-06 -2.19302e-06 -6.55555e-20 -3.45889e-06 4.8979e-22 8.77329e-09)
(4.91959e-06 1.94659e-06 2.08257e-19 -4.92102e-06 1.39501e-20 1.4278e-09)
(4.9044e-06 9.18459e-07 -8.38592e-20 -4.90612e-06 5.18788e-21 1.71848e-09)
(4.64833e-06 -1.24724e-07 2.18028e-19 -4.64919e-06 6.25959e-22 8.54288e-10)
(4.10354e-06 -1.05734e-06 1.73111e-19 -4.10767e-06 1.15591e-20 4.13017e-09)
(3.27317e-06 -1.90762e-06 1.97792e-19 -3.27888e-06 5.88793e-21 5.70444e-09)
(4.50656e-06 1.89963e-06 -5.18682e-20 -4.50785e-06 -1.06705e-20 1.28234e-09)
(4.51466e-06 9.60092e-07 9.76568e-20 -4.51638e-06 6.07047e-21 1.72748e-09)
(4.30183e-06 4.18291e-09 -5.88281e-20 -4.30226e-06 -1.36969e-20 4.31657e-10)
(3.82772e-06 -8.53366e-07 -4.82116e-21 -3.83176e-06 -7.48483e-21 4.03519e-09)
(3.09844e-06 -1.64344e-06 -7.9508e-20 -3.10181e-06 -9.78499e-21 3.36557e-09)
(4.11354e-06 1.84521e-06 3.0235e-20 -4.11467e-06 -4.3208e-22 1.13166e-09)
(4.14173e-06 9.91233e-07 -1.3582e-20 -4.14342e-06 -3.1988e-21 1.68631e-09)
(3.96906e-06 1.19064e-07 -1.44683e-19 -3.96916e-06 1.92647e-21 1.0367e-10)
(3.56089e-06 -6.66753e-07 -9.22518e-20 -3.5647e-06 -6.44572e-21 3.80934e-09)
(2.92566e-06 -1.40017e-06 -2.10201e-19 -2.92711e-06 -4.79069e-21 1.45235e-09)
(3.74169e-06 1.78422e-06 -9.682e-20 -3.74277e-06 -7.74662e-22 1.08156e-09)
(3.78683e-06 1.01228e-06 1.96857e-20 -3.7884e-06 -8.24391e-22 1.56904e-09)
(3.65086e-06 2.19874e-07 1.43681e-19 -3.65075e-06 6.29627e-21 -1.03586e-10)
(3.30348e-06 -4.97721e-07 -1.20753e-19 -3.30701e-06 -3.21847e-21 3.52682e-09)
(2.75497e-06 -1.17734e-06 7.3679e-20 -2.75493e-06 5.91255e-21 -4.40808e-11)
(3.39179e-06 1.71757e-06 1.43795e-19 -3.3928e-06 1.37679e-20 1.00368e-09)
(3.45086e-06 1.02335e-06 -3.62085e-20 -3.45234e-06 1.66941e-21 1.48058e-09)
(3.34789e-06 3.06643e-07 -1.41423e-19 -3.34771e-06 -7.7358e-21 -1.83142e-10)
(3.05603e-06 -3.46231e-07 -2.82141e-20 -3.05933e-06 7.24947e-21 3.29597e-09)
(2.58665e-06 -9.74663e-07 -1.87831e-20 -2.58537e-06 -8.287e-22 -1.27808e-09)
(3.06437e-06 1.64632e-06 7.11163e-20 -3.06526e-06 -3.21556e-21 8.87525e-10)
(3.13436e-06 1.0252e-06 9.74607e-20 -3.13572e-06 6.56849e-21 1.36651e-09)
(3.06056e-06 3.79754e-07 1.12836e-19 -3.06028e-06 7.8719e-21 -2.80442e-10)
(2.81885e-06 -2.12059e-07 2.65094e-19 -2.82193e-06 1.07012e-20 3.08023e-09)
(2.42116e-06 -7.9142e-07 9.02714e-20 -2.41892e-06 6.42138e-21 -2.24397e-09)
(2.75969e-06 1.57139e-06 -5.73609e-20 -2.76048e-06 -7.8371e-21 7.90614e-10)
(2.83777e-06 1.01849e-06 5.59963e-21 -2.83906e-06 -6.30048e-21 1.28524e-09)
(2.78935e-06 4.39869e-07 -5.73625e-20 -2.78901e-06 -6.1884e-21 -3.45127e-10)
(2.59232e-06 -9.46473e-08 -1.08047e-19 -2.59517e-06 -1.38631e-20 2.85018e-09)
(2.2589e-06 -6.27282e-07 6.29769e-20 -2.25586e-06 1.61885e-21 -3.04736e-09)
(2.47761e-06 1.49383e-06 -7.69541e-20 -2.47832e-06 -2.33542e-21 7.13133e-10)
(2.56122e-06 1.00405e-06 -1.43838e-19 -2.56241e-06 -7.32155e-21 1.19103e-09)
(2.53447e-06 4.87527e-07 -2.14859e-20 -2.53412e-06 2.12819e-21 -3.50362e-10)
(2.37684e-06 6.70919e-09 -8.85083e-20 -2.37951e-06 -2.9001e-21 2.6775e-09)
(2.1006e-06 -4.81023e-07 -2.67412e-21 -2.09693e-06 -4.14466e-21 -3.66995e-09)
(2.21775e-06 1.41465e-06 8.87169e-21 -2.21839e-06 5.67941e-21 6.41286e-10)
(2.30464e-06 9.82749e-07 7.09513e-20 -2.30572e-06 7.02105e-21 1.07969e-09)
(2.29596e-06 5.23762e-07 9.1844e-20 -2.29559e-06 4.80514e-21 -3.73241e-10)
(2.17264e-06 9.28698e-08 -1.11372e-20 -2.17512e-06 3.17016e-21 2.48361e-09)
(1.94677e-06 -3.52258e-07 -1.54185e-19 -1.94264e-06 -6.68288e-21 -4.13296e-09)
(1.97955e-06 1.33475e-06 1.25103e-19 -1.98011e-06 9.51243e-21 5.63485e-10)
(2.06773e-06 9.55618e-07 -5.36622e-20 -2.0687e-06 -6.94461e-21 9.68789e-10)
(2.07378e-06 5.49422e-07 -7.48022e-20 -2.0734e-06 -7.76922e-21 -3.76698e-10)
(1.97998e-06 1.64794e-07 7.4759e-20 -1.98233e-06 3.06343e-21 2.3494e-09)
(1.79803e-06 -2.397e-07 1.55471e-19 -1.79349e-06 1.24956e-20 -4.53131e-09)
(1.7622e-06 1.25495e-06 -2.33741e-21 -1.76269e-06 -2.65538e-21 4.89355e-10)
(1.85e-06 9.23516e-07 -9.04855e-20 -1.85091e-06 -4.92123e-21 9.12115e-10)
(1.86775e-06 5.65582e-07 -2.06743e-20 -1.86737e-06 -2.016e-21 -3.83173e-10)
(1.79895e-06 2.23629e-07 -6.55992e-20 -1.80118e-06 -4.51944e-21 2.22925e-09)
(1.65496e-06 -1.42454e-07 -7.18157e-21 -1.65016e-06 -5.48222e-21 -4.79995e-09)
(1.42799e-06 1.43572e-06 -5.67828e-22 -1.42852e-06 -6.16359e-22 5.29141e-10)
(1.56477e-06 1.17607e-06 1.84778e-20 -1.56519e-06 1.07406e-21 4.17984e-10)
(1.65075e-06 8.87498e-07 2.70452e-20 -1.65156e-06 3.83134e-21 8.13528e-10)
(1.6775e-06 5.73305e-07 -1.04824e-19 -1.67711e-06 -5.09148e-21 -3.91728e-10)
(1.62958e-06 2.70504e-07 9.04235e-20 -1.63168e-06 7.39648e-21 2.09601e-09)
(1.51807e-06 -5.94212e-08 -1.51168e-19 -1.5131e-06 -8.47489e-21 -4.9711e-09)
(1.26044e-06 1.32283e-06 -1.78908e-20 -1.2609e-06 -1.45944e-21 4.60908e-10)
(1.38617e-06 1.09876e-06 -2.56183e-20 -1.38653e-06 -3.37088e-21 3.60259e-10)
(1.46925e-06 8.48456e-07 -2.84296e-20 -1.46997e-06 -3.46301e-21 7.22881e-10)
(1.50257e-06 5.73737e-07 1.35407e-19 -1.50219e-06 1.32954e-20 -3.86799e-10)
(1.47184e-06 3.06603e-07 -1.03125e-20 -1.47382e-06 -3.85748e-21 1.97635e-09)
(1.38778e-06 1.05287e-08 1.30312e-19 -1.38271e-06 1.11496e-20 -5.06638e-09)
(1.11031e-06 1.21635e-06 1.78591e-20 -1.1107e-06 3.16554e-21 3.90392e-10)
(1.22524e-06 1.02356e-06 -4.62279e-20 -1.22554e-06 -3.06106e-21 2.99229e-10)
(1.30456e-06 8.07195e-07 1.36419e-21 -1.30524e-06 1.441e-21 6.73906e-10)
(1.34242e-06 5.67876e-07 5.97722e-20 -1.34204e-06 1.4204e-21 -3.86461e-10)
(1.32557e-06 3.33132e-07 -9.48257e-20 -1.32745e-06 -5.04199e-21 1.87803e-09)
(1.26444e-06 6.85891e-08 -5.59701e-20 -1.25934e-06 -5.5249e-21 -5.09627e-09)
(9.76227e-07 1.11636e-06 6.33979e-20 -9.76565e-07 4.2822e-21 3.38488e-10)
(1.08076e-06 9.5099e-07 3.29302e-20 -1.08101e-06 3.46039e-21 2.46477e-10)
(1.1557e-06 7.64604e-07 7.20888e-20 -1.1563e-06 5.27981e-21 5.99091e-10)
(1.19637e-06 5.56793e-07 -7.96795e-20 -1.19598e-06 -6.15639e-21 -3.94854e-10)
(1.1905e-06 3.51261e-07 1.37009e-19 -1.19229e-06 1.21516e-20 1.78099e-09)
(1.1483e-06 1.15889e-07 6.06821e-20 -1.14322e-06 5.51368e-21 -5.08067e-09)
(8.56856e-07 1.0229e-06 -7.36215e-20 -8.57145e-07 -7.59078e-21 2.88176e-10)
(9.51489e-07 8.81396e-07 -1.2348e-20 -9.51696e-07 -2.10123e-21 2.07821e-10)
(1.02167e-06 7.2128e-07 -8.50434e-20 -1.02221e-06 -9.22843e-21 5.45383e-10)
(1.0637e-06 5.41462e-07 9.75271e-20 -1.06332e-06 9.34597e-21 -3.88241e-10)
(1.06632e-06 3.62159e-07 9.02986e-21 -1.06799e-06 -1.35194e-21 1.67349e-09)
(1.03953e-06 1.53581e-07 -3.41246e-20 -1.03453e-06 -4.80027e-21 -4.99851e-09)
(7.50892e-07 9.35866e-07 2.96814e-20 -7.51134e-07 3.99487e-21 2.42145e-10)
(8.36192e-07 8.15101e-07 -3.07503e-20 -8.3635e-07 -2.41037e-21 1.57726e-10)
(9.01363e-07 6.77935e-07 -1.583e-20 -9.01845e-07 2.43629e-22 4.82104e-10)
(9.43618e-07 5.2277e-07 -1.04905e-20 -9.43228e-07 -2.31329e-21 -3.90475e-10)
(9.52608e-07 3.66846e-07 -3.63021e-20 -9.5419e-07 -2.69929e-21 1.58178e-09)
(9.38158e-07 1.82773e-07 -1.07883e-19 -9.33285e-07 -7.99443e-21 -4.87268e-09)
(6.57056e-07 8.55105e-07 -6.9358e-21 -6.57265e-07 8.5531e-22 2.08537e-10)
(7.33662e-07 7.52239e-07 8.24188e-21 -7.33797e-07 1.1715e-21 1.35491e-10)
(7.93757e-07 6.35028e-07 2.88046e-20 -7.94199e-07 2.9283e-21 4.41546e-10)
(8.35331e-07 5.0152e-07 -8.08334e-21 -8.34944e-07 -1.18054e-21 -3.86693e-10)
(8.48906e-07 3.66381e-07 2.41112e-20 -8.50397e-07 1.31184e-21 1.4913e-09)
(8.44159e-07 2.04559e-07 8.7043e-20 -8.39433e-07 8.87256e-21 -4.72588e-09)
(5.74153e-07 7.80441e-07 1.4096e-19 -5.74327e-07 1.3865e-20 1.73737e-10)
(6.42702e-07 6.9299e-07 8.24032e-21 -6.42801e-07 1.2567e-21 9.86656e-11)
(6.9777e-07 5.93036e-07 5.53077e-21 -6.98154e-07 1.26711e-23 3.84085e-10)
(7.37978e-07 4.78441e-07 -5.15776e-20 -7.37599e-07 -3.39643e-21 -3.79253e-10)
(7.54698e-07 3.61662e-07 -8.71777e-20 -7.56096e-07 -7.74776e-21 1.39797e-09)
(7.57419e-07 2.19933e-07 -1.54164e-20 -7.52871e-07 -1.87836e-21 -4.54832e-09)
(5.01072e-07 7.11595e-07 -4.438e-20 -5.01217e-07 -5.83012e-21 1.45183e-10)
(5.62229e-07 6.37351e-07 1.8935e-20 -5.62305e-07 1.56177e-21 7.68389e-11)
(6.12396e-07 5.52284e-07 -2.12444e-20 -6.1275e-07 -2.81437e-21 3.53813e-10)
(6.50744e-07 4.54166e-07 1.01671e-19 -6.50369e-07 9.533e-21 -3.74902e-10)
(6.69418e-07 3.53527e-07 7.15102e-20 -6.70731e-07 7.60517e-21 1.31358e-09)
(6.77742e-07 2.29819e-07 7.64929e-20 -6.73394e-07 6.26925e-21 -4.34871e-09)
(3.76038e-07 7.01267e-07 3.50497e-20 -3.76122e-07 3.32842e-21 8.4547e-11)
(4.36762e-07 6.48281e-07 5.4357e-20 -4.36887e-07 6.66708e-21 1.25617e-10)
(4.91177e-07 5.85344e-07 -1.71857e-20 -4.91227e-07 -2.19808e-21 4.983e-11)
(5.36629e-07 5.1308e-07 -3.94794e-20 -5.36943e-07 -3.64635e-21 3.13552e-10)
(5.72797e-07 4.29219e-07 -6.75611e-20 -5.72429e-07 -7.42727e-21 -3.6802e-10)
(5.92492e-07 3.42717e-07 -2.11456e-20 -5.93722e-07 -2.24255e-21 1.23001e-09)
(6.04868e-07 2.35107e-07 -1.30356e-19 -6.00731e-07 -1.34139e-20 -4.13755e-09)
(3.26914e-07 6.35044e-07 -5.20375e-20 -3.2698e-07 -5.7568e-21 6.61089e-11)
(3.80262e-07 5.90202e-07 3.91875e-20 -3.80365e-07 2.92294e-21 1.02758e-10)
(4.28551e-07 5.36899e-07 -4.65428e-20 -4.28589e-07 -4.67531e-21 3.82766e-11)
(4.6957e-07 4.75587e-07 -1.05124e-20 -4.69852e-07 -2.06695e-23 2.81902e-10)
(5.03333e-07 4.0406e-07 2.2706e-20 -5.0298e-07 1.93809e-21 -3.52894e-10)
(5.23331e-07 3.29873e-07 4.71438e-20 -5.2448e-07 5.28744e-21 1.14904e-09)
(5.38492e-07 2.36561e-07 -1.78968e-20 -5.34578e-07 5.18754e-23 -3.9141e-09)
(2.83889e-07 5.74972e-07 3.84372e-20 -2.83944e-07 5.3519e-21 5.53836e-11)
(3.30709e-07 5.37039e-07 -7.39635e-20 -3.30796e-07 -8.1798e-21 8.69056e-11)
(3.73451e-07 4.91946e-07 -6.34827e-21 -3.73479e-07 -5.59947e-22 2.73116e-11)
(4.10324e-07 4.39979e-07 9.74385e-20 -4.1057e-07 9.57588e-21 2.45843e-10)
(4.41575e-07 3.7907e-07 -9.67371e-20 -4.41234e-07 -9.88875e-21 -3.41053e-10)
(4.61332e-07 3.15578e-07 4.61222e-20 -4.62398e-07 4.57832e-21 1.06613e-09)
(4.78265e-07 2.34892e-07 5.72349e-20 -4.74576e-07 4.77939e-21 -3.68941e-09)
(2.46242e-07 5.2057e-07 6.23624e-20 -2.46285e-07 6.7837e-21 4.36452e-11)
(2.87282e-07 4.88493e-07 5.72757e-22 -2.87353e-07 6.91292e-22 7.08559e-11)
(3.2505e-07 4.50361e-07 7.47897e-21 -3.25066e-07 1.06066e-21 1.6258e-11)
(3.5807e-07 4.06357e-07 -1.14542e-19 -3.58287e-07 -1.25555e-20 2.16653e-10)
(3.86795e-07 3.54546e-07 -3.42868e-21 -3.86468e-07 -3.85755e-22 -3.26653e-10)
(4.05915e-07 3.00295e-07 8.05978e-20 -4.06912e-07 8.65973e-21 9.96612e-10)
(4.23822e-07 2.30715e-07 -1.59527e-19 -4.20363e-07 -1.66948e-20 -3.45876e-09)
(2.13325e-07 4.71363e-07 1.55402e-20 -2.1336e-07 1.37778e-21 3.50218e-11)
(2.49261e-07 4.44244e-07 -2.10353e-20 -2.49323e-07 -1.95473e-21 6.27574e-11)
(2.82585e-07 4.12003e-07 -1.1794e-20 -2.82593e-07 -1.50929e-21 7.59447e-12)
(3.12054e-07 3.7477e-07 3.17794e-20 -3.12253e-07 4.55535e-21 1.98814e-10)
(3.38304e-07 3.30748e-07 -5.70848e-20 -3.37992e-07 -6.1093e-21 -3.11519e-10)
(3.56501e-07 2.84469e-07 6.29346e-20 -3.57424e-07 6.30526e-21 9.23874e-10)
(3.74762e-07 2.24604e-07 -2.78222e-20 -3.71528e-07 -2.06512e-21 -3.23422e-09)
(1.8456e-07 4.26859e-07 8.47464e-21 -1.84585e-07 5.1389e-22 2.55495e-11)
(2.15995e-07 4.03943e-07 4.54365e-20 -2.16047e-07 5.23694e-21 5.1991e-11)
(2.45353e-07 3.76701e-07 -4.1328e-21 -2.4535e-07 -2.55395e-22 -2.89641e-12)
(2.71575e-07 3.45224e-07 2.68461e-20 -2.71751e-07 1.92211e-21 1.75093e-10)
(2.95438e-07 3.07851e-07 -7.7401e-21 -2.95138e-07 -9.95385e-22 -3.00101e-10)
(3.12535e-07 2.68423e-07 6.27371e-20 -3.13394e-07 6.58904e-21 8.58124e-10)
(3.30689e-07 2.17032e-07 -6.83832e-20 -3.27676e-07 -6.87368e-21 -3.013e-09)
(1.59461e-07 3.86508e-07 -2.97056e-20 -1.59482e-07 -3.76017e-21 2.14528e-11)
(1.86939e-07 3.67165e-07 1.68979e-20 -1.86984e-07 1.62926e-21 4.47389e-11)
(2.12752e-07 3.44178e-07 2.15698e-20 -2.12748e-07 2.40444e-21 -3.59852e-12)
(2.36032e-07 3.17596e-07 -1.07559e-19 -2.3619e-07 -1.17015e-20 1.57776e-10)
(2.57612e-07 2.85923e-07 -7.55417e-20 -2.57332e-07 -8.43536e-21 -2.79494e-10)
(2.73503e-07 2.52391e-07 5.07849e-20 -2.74297e-07 4.92381e-21 7.94e-10)
(2.912e-07 2.08385e-07 -6.42423e-21 -2.88403e-07 -5.55084e-22 -2.79615e-09)
(1.12352e-07 3.63233e-07 3.16437e-21 -1.12371e-07 6.54678e-22 1.91742e-11)
(1.37601e-07 3.49767e-07 -3.57489e-20 -1.37616e-07 -3.63892e-21 1.45559e-11)
(1.61599e-07 3.33465e-07 2.47764e-20 -1.61632e-07 2.39424e-21 3.39251e-11)
(1.84261e-07 3.14102e-07 -3.81527e-20 -1.8425e-07 -4.65414e-21 -1.05662e-11)
(2.04867e-07 2.91701e-07 2.67479e-21 -2.05005e-07 7.6418e-22 1.37803e-10)
(2.24298e-07 2.64913e-07 -1.46844e-20 -2.2403e-07 -8.44877e-22 -2.67753e-10)
(2.38927e-07 2.3646e-07 9.63157e-21 -2.39659e-07 5.39521e-22 7.32129e-10)
(2.55915e-07 1.989e-07 -3.22666e-20 -2.53328e-07 -2.963e-21 -2.58676e-09)
(9.6647e-08 3.27616e-07 2.18006e-20 -9.66693e-08 2.54544e-21 2.23443e-11)
(1.18632e-07 3.16241e-07 5.87654e-20 -1.1865e-07 6.96067e-21 1.76077e-11)
(1.39571e-07 3.02501e-07 -5.06045e-20 -1.39607e-07 -5.7202e-21 3.57842e-11)
(1.59441e-07 2.86197e-07 -5.45605e-20 -1.59434e-07 -5.62506e-21 -7.15688e-12)
(1.77633e-07 2.67338e-07 -1.9306e-20 -1.77761e-07 -2.5393e-21 1.288e-10)
(1.95053e-07 2.44723e-07 5.75204e-20 -1.94807e-07 6.47041e-21 -2.45503e-10)
(2.08404e-07 2.20639e-07 -4.38666e-20 -2.09082e-07 -5.02306e-21 6.77344e-10)
(2.2449e-07 1.88701e-07 7.80547e-20 -2.22112e-07 8.57316e-21 -2.37889e-09)
(8.2967e-08 2.95408e-07 1.93663e-20 -8.29743e-08 2.38728e-21 7.31106e-12)
(1.02119e-07 2.85763e-07 -2.69751e-20 -1.02121e-07 -3.47169e-21 2.75749e-12)
(1.20391e-07 2.7415e-07 -3.21208e-21 -1.2041e-07 -2.46454e-22 1.91786e-11)
(1.37802e-07 2.60393e-07 6.67251e-20 -1.37783e-07 8.08797e-21 -1.98729e-11)
(1.53845e-07 2.44494e-07 -3.95468e-20 -1.53949e-07 -4.89705e-21 1.04398e-10)
(1.6941e-07 2.25397e-07 -1.35718e-20 -1.69175e-07 -1.28563e-21 -2.35083e-10)
(1.81533e-07 2.0501e-07 -4.19515e-20 -1.82142e-07 -4.19236e-21 6.09531e-10)
(1.96583e-07 1.77915e-07 8.68174e-21 -1.94399e-07 5.67767e-22 -2.18361e-09)
(7.1043e-08 2.66495e-07 3.63481e-20 -7.1071e-08 3.97648e-21 2.79892e-11)
(8.77324e-08 2.58268e-07 -1.84094e-20 -8.77538e-08 -1.96997e-21 2.14072e-11)
(1.03691e-07 2.48396e-07 9.90681e-21 -1.03723e-07 9.6941e-22 3.20417e-11)
(1.18945e-07 2.36737e-07 4.7438e-20 -1.18944e-07 5.51624e-21 -1.35926e-12)
(1.33082e-07 2.23284e-07 -1.53008e-19 -1.33191e-07 -1.71073e-20 1.08612e-10)
(1.46966e-07 2.07112e-07 1.0879e-19 -1.46762e-07 1.18202e-20 -2.03809e-10)
(1.57927e-07 1.89822e-07 4.35821e-20 -1.58495e-07 5.054e-21 5.67344e-10)
(1.71879e-07 1.66858e-07 1.00786e-20 -1.69913e-07 8.69545e-22 -1.96578e-09)
(6.04818e-08 2.40563e-07 -4.09926e-20 -6.04603e-08 -5.09691e-21 -2.14858e-11)
(7.50109e-08 2.33506e-07 3.26128e-21 -7.49974e-08 4.53643e-22 -1.35486e-11)
(8.89481e-08 2.25062e-07 -1.79832e-20 -8.89464e-08 -1.94406e-21 -1.75466e-12)
(1.02331e-07 2.1512e-07 4.14916e-20 -1.02295e-07 4.49097e-21 -3.60208e-11)
(1.14777e-07 2.03675e-07 2.77702e-20 -1.14849e-07 3.73332e-21 7.20527e-11)
(1.27149e-07 1.89904e-07 -1.81354e-20 -1.26934e-07 -2.03023e-21 -2.1529e-10)
(1.37042e-07 1.75153e-07 -1.99828e-20 -1.37522e-07 -2.49203e-21 4.7997e-10)
(1.49884e-07 1.55616e-07 -3.2681e-20 -1.48072e-07 -3.47498e-21 -1.8128e-09)
(5.13395e-08 2.18262e-07 -2.5642e-20 -5.13564e-08 -2.93186e-21 1.68721e-11)
(6.40143e-08 2.12235e-07 2.95508e-21 -6.4031e-08 4.58777e-22 1.66973e-11)
(7.62005e-08 2.05032e-07 6.23712e-20 -7.62228e-08 6.96676e-21 2.22728e-11)
(8.79663e-08 1.96552e-07 -3.33604e-22 -8.79428e-08 3.17148e-23 -2.34171e-11)
(9.89607e-08 1.86794e-07 -4.77447e-20 -9.90223e-08 -5.59566e-21 6.1647e-11)
(1.09969e-07 1.75024e-07 9.78847e-20 -1.09773e-07 1.11583e-20 -1.96189e-10)
(1.1891e-07 1.62368e-07 -1.85827e-20 -1.19318e-07 -2.26535e-21 4.08018e-10)
(1.30684e-07 1.45622e-07 6.12567e-20 -1.29038e-07 7.05858e-21 -1.64565e-09)
(4.48423e-08 2.00252e-07 -4.94784e-20 -4.49349e-08 -5.66605e-21 9.26437e-11)
(5.60566e-08 1.94973e-07 5.32391e-20 -5.61752e-08 6.20887e-21 1.18598e-10)
(6.68592e-08 1.88691e-07 -8.76462e-20 -6.70015e-08 -1.04816e-20 1.42349e-10)
(7.72891e-08 1.81328e-07 2.25596e-20 -7.7416e-08 2.63285e-21 1.26868e-10)
(8.7065e-08 1.72854e-07 2.84567e-20 -8.72901e-08 3.34527e-21 2.2502e-10)
(9.69223e-08 1.62597e-07 2.50581e-20 -9.69379e-08 2.18161e-21 1.5573e-11)
(1.04951e-07 1.51559e-07 -7.89226e-20 -1.05574e-07 -8.3643e-21 6.23779e-10)
(1.15908e-07 1.37172e-07 4.14097e-20 -1.14706e-07 4.04632e-21 -1.20116e-09)
(2.9059e-08 1.88564e-07 1.01175e-20 -2.88032e-08 1.25083e-21 -2.55741e-10)
(3.92877e-08 1.84759e-07 2.79662e-20 -3.91546e-08 3.52736e-21 -1.3313e-10)
(4.93156e-08 1.79927e-07 -1.10508e-20 -4.91925e-08 -1.25861e-21 -1.23102e-10)
(5.90076e-08 1.74251e-07 -1.72571e-20 -5.88611e-08 -1.84385e-21 -1.46513e-10)
(6.83596e-08 1.67689e-07 4.62841e-20 -6.81516e-08 5.22118e-21 -2.07953e-10)
(7.70988e-08 1.60194e-07 -2.82487e-20 -7.69445e-08 -3.2489e-21 -1.54264e-10)
(8.5953e-08 1.51167e-07 -9.34905e-20 -8.55649e-08 -1.06924e-20 -3.88116e-10)
(9.31567e-08 1.41404e-07 1.08635e-19 -9.32638e-08 1.25953e-20 1.07031e-10)
(1.03222e-07 1.28888e-07 -5.95544e-20 -1.01548e-07 -6.96204e-21 -1.67355e-09)
(2.53185e-08 1.74414e-07 2.84437e-21 -2.52945e-08 2.98677e-22 -2.40086e-11)
(3.44571e-08 1.70908e-07 -8.46959e-21 -3.46978e-08 -1.37802e-21 2.4067e-10)
(4.34961e-08 1.66437e-07 6.16746e-20 -4.38534e-08 7.19947e-21 3.57263e-10)
(5.23418e-08 1.61174e-07 -3.40363e-20 -5.27146e-08 -3.78683e-21 3.72831e-10)
(6.08712e-08 1.5512e-07 -2.39316e-20 -6.12209e-08 -3.02902e-21 3.49668e-10)
(6.88042e-08 1.48243e-07 -1.11704e-20 -6.92446e-08 -1.18318e-21 4.40394e-10)
(7.67831e-08 1.40062e-07 7.94028e-20 -7.7081e-08 9.30971e-21 2.97885e-10)
(8.32146e-08 1.31333e-07 -2.72368e-20 -8.40885e-08 -2.69101e-21 8.73956e-10)
(9.22992e-08 1.20672e-07 -5.31353e-20 -9.17806e-08 -6.44307e-21 -5.18661e-10)
(2.0767e-08 1.59717e-07 -7.57959e-22 -1.98738e-08 -7.85728e-23 -8.93241e-10)
(2.85588e-08 1.56561e-07 -5.61205e-20 -2.78782e-08 -6.78309e-21 -6.80607e-10)
(3.63518e-08 1.52588e-07 -4.81689e-20 -3.57226e-08 -5.65352e-21 -6.29238e-10)
(4.41041e-08 1.47926e-07 1.71117e-20 -4.33917e-08 2.13483e-21 -7.12438e-10)
(5.16172e-08 1.4259e-07 -1.31331e-20 -5.08019e-08 -1.65806e-21 -8.1535e-10)
(5.86426e-08 1.36532e-07 3.22367e-20 -5.78503e-08 4.07479e-21 -7.92228e-10)
(6.58415e-08 1.29258e-07 -6.44775e-20 -6.48274e-08 -8.36812e-21 -1.01414e-09)
(7.18388e-08 1.21195e-07 2.0051e-19 -7.11043e-08 2.36028e-20 -7.34535e-10)
(8.01822e-08 1.11083e-07 -9.98923e-20 -7.78481e-08 -1.15156e-20 -2.33414e-09)
(1.88181e-08 1.47471e-07 -1.13501e-21 -1.96228e-08 -2.58046e-23 8.04773e-10)
(2.58958e-08 1.44546e-07 -5.22704e-20 -2.71661e-08 -6.07938e-21 1.27037e-09)
(3.30326e-08 1.40838e-07 1.10166e-19 -3.45484e-08 1.30268e-20 1.51583e-09)
(4.01871e-08 1.36441e-07 6.71207e-21 -4.17462e-08 8.14096e-22 1.55916e-09)
(4.70577e-08 1.314e-07 -6.3175e-20 -4.86194e-08 -7.05402e-21 1.56167e-09)
(5.33796e-08 1.25734e-07 7.35976e-20 -5.50636e-08 8.31139e-21 1.68396e-09)
(5.95927e-08 1.19178e-07 -1.40689e-19 -6.13156e-08 -1.63989e-20 1.72291e-09)
(6.45387e-08 1.12401e-07 1.29208e-19 -6.70086e-08 1.43805e-20 2.46988e-09)
(7.17829e-08 1.04959e-07 -1.52421e-19 -7.35694e-08 -1.69641e-20 1.78646e-09)