/*--------------------------------*- C++ -*----------------------------------*\
| =========                 |                                                 |
| \\      /  F ield         | OpenFOAM: The Open Source CFD Toolbox           |
|  \\    /   O peration     | Version:  2306                                  |
|   \\  /    A nd           | Website:  www.openfoam.com                      |
|    \\/     M anipulation  |                                                 |
\*---------------------------------------------------------------------------*/
FoamFile
{
    version     2.0;
    format      ascii;
    arch        "LSB;label=32;scalar=64";
    class       volScalarField;
    location    "425";
    object      turbulenceProperties:nuEff;
}
// * * * * * * * * * * * * * * * * * * * * * * * * * * * * * * * * * * * * * //

dimensions      [0 2 -1 0 0 0 0];

internalField   nonuniform List<scalar> 
1340
(
0.0869227
0.0784898
0.0690331
0.0538406
0.153848
0.148558
0.139902
0.147222
0.206331
0.20759
0.201637
0.212145
0.215355
0.231951
0.239203
0.255733
0.175035
0.217171
0.248061
0.278403
0.093226
0.160379
0.223982
0.278364
0.0214718
0.0782675
0.16617
0.252344
0.000855162
0.0170862
0.0902881
0.200118
0.000197584
0.00463742
0.0303463
0.133066
1e-05
3.96186e-05
0.00306653
0.0730792
1e-05
1e-05
0.00142211
0.0333698
1.00098e-05
1e-05
0.000291717
0.0130705
1.23225e-05
1e-05
8.33985e-05
0.00435722
2.03835e-05
1.00117e-05
1.13518e-05
0.00111992
1.92706e-05
1.23591e-05
1.00003e-05
8.06149e-05
1.64322e-05
1.96624e-05
1e-05
1.06947e-05
1.52669e-05
2.21172e-05
1.00004e-05
1e-05
1.53067e-05
1.94668e-05
1.16124e-05
1.00005e-05
1.57421e-05
1.69281e-05
1.68524e-05
1.00902e-05
1.60762e-05
1.58755e-05
1.85004e-05
1.1693e-05
1.61947e-05
1.57322e-05
1.75806e-05
1.46051e-05
1.61855e-05
1.58917e-05
1.66182e-05
1.61537e-05
1.61461e-05
1.60442e-05
1.61721e-05
1.64174e-05
1.61195e-05
1.61138e-05
1.60621e-05
1.62861e-05
1.61095e-05
1.61273e-05
1.60741e-05
1.61652e-05
1.61082e-05
1.61215e-05
1.61005e-05
1.61178e-05
1.61092e-05
1.61151e-05
1.61132e-05
1.61109e-05
1.61098e-05
1.61121e-05
1.61153e-05
1.61143e-05
1.61098e-05
1.61112e-05
1.61139e-05
1.61167e-05
1.61096e-05
1.61111e-05
1.61125e-05
1.61168e-05
1.61093e-05
1.61109e-05
1.61117e-05
1.6116e-05
1.61092e-05
1.61108e-05
1.61114e-05
1.61152e-05
1.61091e-05
1.61106e-05
1.61111e-05
1.61146e-05
1.61083e-05
1.6109e-05
1.61104e-05
1.6111e-05
1.61142e-05
1.61084e-05
1.61091e-05
1.61104e-05
1.61108e-05
1.61138e-05
1.61085e-05
1.61091e-05
1.61103e-05
1.61107e-05
1.61135e-05
1.61086e-05
1.61092e-05
1.61103e-05
1.61107e-05
1.61133e-05
1.61087e-05
1.61093e-05
1.61104e-05
1.61107e-05
1.61131e-05
1.61089e-05
1.61094e-05
1.61104e-05
1.61107e-05
1.6113e-05
1.61091e-05
1.61096e-05
1.61105e-05
1.61108e-05
1.6113e-05
1.61093e-05
1.61098e-05
1.61107e-05
1.61109e-05
1.61129e-05
1.61095e-05
1.611e-05
1.61108e-05
1.61111e-05
1.61129e-05
1.61097e-05
1.61101e-05
1.6111e-05
1.61112e-05
1.6113e-05
1.61099e-05
1.61103e-05
1.61111e-05
1.61114e-05
1.61131e-05
1.611e-05
1.61105e-05
1.61113e-05
1.61116e-05
1.61132e-05
1.61097e-05
1.61102e-05
1.61107e-05
1.61114e-05
1.61117e-05
1.61133e-05
1.61098e-05
1.61103e-05
1.61108e-05
1.61116e-05
1.61119e-05
1.61134e-05
1.61099e-05
1.61104e-05
1.61109e-05
1.61117e-05
1.6112e-05
1.61135e-05
1.61099e-05
1.61105e-05
1.6111e-05
1.61117e-05
1.61121e-05
1.61135e-05
1.61099e-05
1.61105e-05
1.6111e-05
1.61118e-05
1.61122e-05
1.61136e-05
1.61098e-05
1.61104e-05
1.6111e-05
1.61117e-05
1.61122e-05
1.61135e-05
1.61097e-05
1.61103e-05
1.61108e-05
1.61116e-05
1.61122e-05
1.61135e-05
1.61094e-05
1.611e-05
1.61107e-05
1.61114e-05
1.6112e-05
1.61133e-05
1.61091e-05
1.61097e-05
1.61104e-05
1.61112e-05
1.61118e-05
1.61131e-05
1.6108e-05
1.61086e-05
1.61093e-05
1.611e-05
1.61108e-05
1.61115e-05
1.61127e-05
1.61074e-05
1.61081e-05
1.61088e-05
1.61095e-05
1.61103e-05
1.61111e-05
1.61123e-05
1.61068e-05
1.61074e-05
1.61081e-05
1.61089e-05
1.61097e-05
1.61105e-05
1.61118e-05
1.61059e-05
1.61066e-05
1.61073e-05
1.61081e-05
1.6109e-05
1.61098e-05
1.61111e-05
1.6105e-05
1.61057e-05
1.61065e-05
1.61072e-05
1.61082e-05
1.6109e-05
1.61103e-05
1.61039e-05
1.61047e-05
1.61054e-05
1.61062e-05
1.61072e-05
1.61081e-05
1.61093e-05
1.61026e-05
1.61034e-05
1.61042e-05
1.6105e-05
1.6106e-05
1.6107e-05
1.61083e-05
1.61001e-05
1.61009e-05
1.61017e-05
1.61026e-05
1.61035e-05
1.61045e-05
1.61056e-05
1.61069e-05
1.60979e-05
1.60987e-05
1.60996e-05
1.61005e-05
1.61015e-05
1.61026e-05
1.61038e-05
1.61052e-05
1.60953e-05
1.60962e-05
1.6097e-05
1.6098e-05
1.6099e-05
1.61002e-05
1.61015e-05
1.6103e-05
1.60927e-05
1.60935e-05
1.60943e-05
1.60953e-05
1.60963e-05
1.60974e-05
1.60987e-05
1.61003e-05
1.609e-05
1.60908e-05
1.60916e-05
1.60924e-05
1.60934e-05
1.60945e-05
1.60957e-05
1.60972e-05
1.60874e-05
1.60881e-05
1.60889e-05
1.60897e-05
1.60906e-05
1.60917e-05
1.60928e-05
1.60942e-05
1.60849e-05
1.60857e-05
1.60864e-05
1.60873e-05
1.60882e-05
1.60893e-05
1.60904e-05
1.60917e-05
1.60817e-05
1.60823e-05
1.60831e-05
1.60839e-05
1.60847e-05
1.60857e-05
1.60867e-05
1.60879e-05
1.60892e-05
1.6079e-05
1.60796e-05
1.60803e-05
1.6081e-05
1.60818e-05
1.60827e-05
1.60837e-05
1.60848e-05
1.60862e-05
1.60763e-05
1.60768e-05
1.60774e-05
1.6078e-05
1.60787e-05
1.60794e-05
1.60803e-05
1.60814e-05
1.60826e-05
1.60735e-05
1.6074e-05
1.60745e-05
1.6075e-05
1.60756e-05
1.60762e-05
1.6077e-05
1.60779e-05
1.6079e-05
1.60712e-05
1.60714e-05
1.60717e-05
1.6072e-05
1.60724e-05
1.60728e-05
1.60734e-05
1.60741e-05
1.6075e-05
1.60714e-05
1.60713e-05
1.60712e-05
1.60711e-05
1.60711e-05
1.60711e-05
1.60713e-05
1.60715e-05
1.6072e-05
1.60742e-05
1.6074e-05
1.60739e-05
1.60737e-05
1.60735e-05
1.60732e-05
1.6073e-05
1.60728e-05
1.60727e-05
1.60775e-05
1.60774e-05
1.60772e-05
1.60769e-05
1.60766e-05
1.60763e-05
1.60759e-05
1.60755e-05
1.60749e-05
1.60817e-05
1.60818e-05
1.60818e-05
1.60819e-05
1.6082e-05
1.6082e-05
1.6082e-05
1.6082e-05
1.60819e-05
1.60849e-05
1.60849e-05
1.60849e-05
1.60847e-05
1.60846e-05
1.60843e-05
1.60841e-05
1.60838e-05
1.60837e-05
1.60836e-05
1.60905e-05
1.60914e-05
1.60924e-05
1.60935e-05
1.60945e-05
1.60956e-05
1.60968e-05
1.60979e-05
1.60994e-05
1.61007e-05
1.61e-05
1.61002e-05
1.61003e-05
1.61004e-05
1.61004e-05
1.61004e-05
1.61004e-05
1.61007e-05
1.61012e-05
1.61016e-05
0.172973
0.215416
0.255599
0.300097
0.326433
0.329418
0.307347
0.258846
0.186582
0.105386
0.0438675
0.0154579
0.00481912
0.00112182
4.4096e-05
1.01711e-05
1e-05
1e-05
1.00092e-05
1.11286e-05
1.41783e-05
1.60963e-05
1.64861e-05
1.63432e-05
1.61908e-05
1.61259e-05
1.61136e-05
1.6117e-05
1.61201e-05
1.61204e-05
1.61194e-05
1.61183e-05
1.61174e-05
1.61168e-05
1.61162e-05
1.61157e-05
1.61153e-05
1.61149e-05
1.61146e-05
1.61144e-05
1.61142e-05
1.61141e-05
1.6114e-05
1.61139e-05
1.61139e-05
1.61139e-05
1.61139e-05
1.61139e-05
1.61139e-05
1.61139e-05
1.61138e-05
1.61138e-05
1.61137e-05
1.61135e-05
1.61132e-05
1.61128e-05
1.61123e-05
1.61117e-05
1.61109e-05
1.611e-05
1.61089e-05
1.61076e-05
1.6106e-05
1.61038e-05
1.61011e-05
1.6098e-05
1.60949e-05
1.60924e-05
1.60899e-05
1.60868e-05
1.60832e-05
1.60795e-05
1.60755e-05
1.60721e-05
1.60726e-05
1.60748e-05
1.60818e-05
1.60835e-05
1.61016e-05
1.61018e-05
0.21401
0.258751
0.28865
0.317033
0.34578
0.357756
0.345405
0.305919
0.23948
0.153074
0.0689683
0.0208417
0.00565845
0.00140805
9.76061e-05
1.10685e-05
1e-05
1e-05
1.00022e-05
1.08362e-05
1.38935e-05
1.60264e-05
1.65118e-05
1.63755e-05
1.6207e-05
1.61309e-05
1.61147e-05
1.61176e-05
1.6121e-05
1.61214e-05
1.61203e-05
1.6119e-05
1.6118e-05
1.61173e-05
1.61167e-05
1.61162e-05
1.61158e-05
1.61154e-05
1.61151e-05
1.61149e-05
1.61147e-05
1.61145e-05
1.61144e-05
1.61143e-05
1.61143e-05
1.61143e-05
1.61143e-05
1.61143e-05
1.61143e-05
1.61142e-05
1.61142e-05
1.61142e-05
1.61141e-05
1.61139e-05
1.61137e-05
1.61133e-05
1.61128e-05
1.61122e-05
1.61114e-05
1.61105e-05
1.61094e-05
1.61082e-05
1.61065e-05
1.61043e-05
1.61016e-05
1.60985e-05
1.60954e-05
1.60928e-05
1.60903e-05
1.60873e-05
1.60836e-05
1.60799e-05
1.60757e-05
1.60723e-05
1.60725e-05
1.60747e-05
1.60817e-05
1.60834e-05
1.61021e-05
0.217835
0.269185
0.303817
0.326791
0.347919
0.366394
0.368552
0.346307
0.296167
0.219091
0.124863
0.0439091
0.0072222
0.000817449
0.000188981
1e-05
1e-05
1e-05
1e-05
1.04199e-05
1.32891e-05
1.5874e-05
1.65531e-05
1.64245e-05
1.62313e-05
1.61382e-05
1.61151e-05
1.61168e-05
1.61209e-05
1.61219e-05
1.61209e-05
1.61196e-05
1.61186e-05
1.61178e-05
1.61173e-05
1.61168e-05
1.61163e-05
1.61159e-05
1.61156e-05
1.61154e-05
1.61152e-05
1.6115e-05
1.61149e-05
1.61148e-05
1.61148e-05
1.61148e-05
1.61148e-05
1.61148e-05
1.61147e-05
1.61147e-05
1.61147e-05
1.61147e-05
1.61146e-05
1.61145e-05
1.61142e-05
1.61138e-05
1.61134e-05
1.61127e-05
1.6112e-05
1.61111e-05
1.611e-05
1.61087e-05
1.61071e-05
1.61049e-05
1.61022e-05
1.60991e-05
1.60959e-05
1.60933e-05
1.60908e-05
1.60877e-05
1.6084e-05
1.60802e-05
1.6076e-05
1.60724e-05
1.60725e-05
1.60747e-05
1.60816e-05
1.60834e-05
0.202685
0.25855
0.300429
0.328253
0.346539
0.362722
0.37482
0.371376
0.344281
0.289405
0.207435
0.110598
0.0326305
0.000733669
0.000165293
1e-05
1e-05
1e-05
1.00003e-05
1.0151e-05
1.23354e-05
1.53621e-05
1.65358e-05
1.65155e-05
1.62801e-05
1.61501e-05
1.61152e-05
1.61155e-05
1.61204e-05
1.61222e-05
1.61217e-05
1.61204e-05
1.61193e-05
1.61185e-05
1.61179e-05
1.61174e-05
1.6117e-05
1.61166e-05
1.61163e-05
1.6116e-05
1.61158e-05
1.61156e-05
1.61155e-05
1.61154e-05
1.61154e-05
1.61153e-05
1.61153e-05
1.61153e-05
1.61153e-05
1.61153e-05
1.61153e-05
1.61153e-05
1.61152e-05
1.61151e-05
1.61148e-05
1.61144e-05
1.6114e-05
1.61133e-05
1.61126e-05
1.61117e-05
1.61106e-05
1.61093e-05
1.61077e-05
1.61055e-05
1.61028e-05
1.60996e-05
1.60965e-05
1.60938e-05
1.60913e-05
1.60881e-05
1.60844e-05
1.60805e-05
1.60764e-05
1.60725e-05
1.60724e-05
1.60747e-05
1.60814e-05
0.172737
0.232731
0.281681
0.317737
0.341545
0.356943
0.369887
0.378318
0.372123
0.343217
0.286828
0.203264
0.106188
0.0281721
0.00724232
1e-05
1e-05
1e-05
1e-05
1e-05
1.09943e-05
1.47825e-05
1.65154e-05
1.65923e-05
1.63589e-05
1.61837e-05
1.61173e-05
1.61121e-05
1.61193e-05
1.61226e-05
1.61224e-05
1.61213e-05
1.61201e-05
1.61193e-05
1.61187e-05
1.61182e-05
1.61177e-05
1.61173e-05
1.61169e-05
1.61167e-05
1.61164e-05
1.61163e-05
1.61161e-05
1.6116e-05
1.6116e-05
1.6116e-05
1.6116e-05
1.61159e-05
1.61159e-05
1.61159e-05
1.61159e-05
1.61159e-05
1.61158e-05
1.61157e-05
1.61154e-05
1.61151e-05
1.61146e-05
1.6114e-05
1.61132e-05
1.61123e-05
1.61112e-05
1.611e-05
1.61084e-05
1.61062e-05
1.61035e-05
1.61002e-05
1.6097e-05
1.60943e-05
1.60918e-05
1.60886e-05
1.60849e-05
1.60809e-05
1.60767e-05
1.60727e-05
1.60724e-05
1.60746e-05
0.130236
0.193709
0.249339
0.294176
0.327094
0.348819
0.362608
0.373417
0.379807
0.372543
0.343498
0.287324
0.204102
0.106421
0.029789
0.00773796
1.00342e-05
1e-05
1e-05
1e-05
1e-05
1.19254e-05
1.64532e-05
1.70024e-05
1.64542e-05
1.62173e-05
1.6136e-05
1.61111e-05
1.6115e-05
1.61223e-05
1.61237e-05
1.61223e-05
1.6121e-05
1.61201e-05
1.61195e-05
1.6119e-05
1.61185e-05
1.6118e-05
1.61177e-05
1.61174e-05
1.61171e-05
1.61169e-05
1.61168e-05
1.61167e-05
1.61166e-05
1.61166e-05
1.61166e-05
1.61166e-05
1.61166e-05
1.61165e-05
1.61165e-05
1.61165e-05
1.61165e-05
1.61163e-05
1.61161e-05
1.61157e-05
1.61153e-05
1.61146e-05
1.61139e-05
1.6113e-05
1.61119e-05
1.61106e-05
1.6109e-05
1.61069e-05
1.61041e-05
1.61009e-05
1.60976e-05
1.60949e-05
1.60923e-05
1.60891e-05
1.60854e-05
1.60813e-05
1.60771e-05
1.60729e-05
0.0789075
0.142607
0.203902
0.257101
0.29997
0.331591
0.352563
0.365619
0.374987
0.380315
0.373029
0.344908
0.290138
0.208023
0.111292
0.0349039
0.000432292
0.000123547
1e-05
1e-05
1e-05
1.00092e-05
1.24368e-05
1.75924e-05
1.72635e-05
1.62944e-05
1.60986e-05
1.6117e-05
1.61185e-05
1.61178e-05
1.61223e-05
1.61238e-05
1.61224e-05
1.6121e-05
1.61203e-05
1.61198e-05
1.61193e-05
1.61189e-05
1.61185e-05
1.61181e-05
1.61179e-05
1.61177e-05
1.61175e-05
1.61174e-05
1.61173e-05
1.61173e-05
1.61173e-05
1.61173e-05
1.61173e-05
1.61172e-05
1.61172e-05
1.61172e-05
1.61172e-05
1.6117e-05
1.61168e-05
1.61164e-05
1.6116e-05
1.61154e-05
1.61146e-05
1.61137e-05
1.61126e-05
1.61114e-05
1.61097e-05
1.61076e-05
1.61049e-05
1.61016e-05
1.60982e-05
1.60955e-05
1.60929e-05
1.60897e-05
1.60859e-05
1.60817e-05
0.0300129
0.0828784
0.14581
0.206066
0.258501
0.301016
0.332686
0.353895
0.366886
0.375307
0.380213
0.373604
0.347141
0.294526
0.21436
0.119955
0.0402801
0.00136089
0.000415798
1e-05
1e-05
1e-05
1.00077e-05
1.19302e-05
1.80001e-05
1.75905e-05
1.62083e-05
1.59928e-05
1.61066e-05
1.61383e-05
1.61257e-05
1.61216e-05
1.61227e-05
1.61224e-05
1.61214e-05
1.61207e-05
1.61202e-05
1.61197e-05
1.61193e-05
1.61189e-05
1.61187e-05
1.61184e-05
1.61183e-05
1.61181e-05
1.61181e-05
1.6118e-05
1.6118e-05
1.6118e-05
1.6118e-05
1.61179e-05
1.61179e-05
1.61179e-05
1.61179e-05
1.61177e-05
1.61175e-05
1.61172e-05
1.61167e-05
1.61161e-05
1.61153e-05
1.61144e-05
1.61134e-05
1.61121e-05
1.61105e-05
1.61084e-05
1.61056e-05
1.61023e-05
1.60989e-05
1.60961e-05
1.60935e-05
0.00323537
0.0283234
0.079418
0.141522
0.201866
0.254881
0.298291
0.331058
0.353305
0.366783
0.374637
0.379531
0.374074
0.349813
0.299925
0.222877
0.129828
0.0472587
0.00387485
0.00109483
1e-05
1e-05
1e-05
1.00034e-05
1.08074e-05
1.75654e-05
1.81641e-05
1.63059e-05
1.58772e-05
1.60536e-05
1.61457e-05
1.61365e-05
1.61233e-05
1.6122e-05
1.61224e-05
1.61218e-05
1.61211e-05
1.61206e-05
1.61202e-05
1.61198e-05
1.61195e-05
1.61192e-05
1.6119e-05
1.61189e-05
1.61188e-05
1.61188e-05
1.61187e-05
1.61187e-05
1.61187e-05
1.61187e-05
1.61187e-05
1.61186e-05
1.61186e-05
1.61185e-05
1.61183e-05
1.6118e-05
1.61175e-05
1.61169e-05
1.61161e-05
1.61152e-05
1.61141e-05
1.61129e-05
1.61113e-05
1.61092e-05
1.61064e-05
1.61031e-05
0.000434529
0.00169778
0.0227749
0.0700479
0.131008
0.192208
0.246871
0.292211
0.326966
0.35097
0.365531
0.373545
0.378516
0.374381
0.35263
0.306038
0.232477
0.140732
0.0557816
0.00778092
0.00212338
1e-05
1e-05
1e-05
1.00005e-05
1.00893e-05
1.60011e-05
1.87863e-05
1.67717e-05
1.59193e-05
1.59987e-05
1.61315e-05
1.61417e-05
1.61259e-05
1.6122e-05
1.61225e-05
1.61222e-05
1.61216e-05
1.61211e-05
1.61207e-05
1.61204e-05
1.61201e-05
1.61199e-05
1.61197e-05
1.61196e-05
1.61196e-05
1.61195e-05
1.61195e-05
1.61195e-05
1.61195e-05
1.61194e-05
1.61194e-05
1.61194e-05
1.61193e-05
1.61191e-05
1.61188e-05
1.61183e-05
1.61177e-05
1.6117e-05
1.6116e-05
1.6115e-05
1.61137e-05
1e-05
0.00034917
0.00140154
0.0167169
0.0570347
0.115611
0.177722
0.234758
0.282896
0.320459
0.34698
0.363412
0.372546
0.377557
0.374676
0.355532
0.31252
0.242454
0.152352
0.0655358
0.0128924
0.0034652
1e-05
1e-05
1e-05
1e-05
1e-05
1.30827e-05
1.8419e-05
1.71537e-05
1.60394e-05
1.59798e-05
1.61142e-05
1.61424e-05
1.61285e-05
1.61229e-05
1.6123e-05
1.61228e-05
1.61222e-05
1.61217e-05
1.61213e-05
1.6121e-05
1.61208e-05
1.61206e-05
1.61205e-05
1.61204e-05
1.61203e-05
1.61203e-05
1.61203e-05
1.61203e-05
1.61203e-05
1.61202e-05
1.61202e-05
1.61201e-05
1.61199e-05
1.61196e-05
1.61192e-05
1e-05
1e-05
2.86125e-05
0.000181389
0.0103818
0.0427677
0.0968205
0.159091
0.218744
0.270341
0.31148
0.341307
0.360417
0.371149
0.376397
0.374811
0.35836
0.319006
0.252554
0.164436
0.0762223
0.0194251
0.00512016
1.00995e-05
1e-05
1e-05
1e-05
1.0008e-05
1.19418e-05
1.75654e-05
1.73683e-05
1.61553e-05
1.59677e-05
1.60965e-05
1.614e-05
1.61285e-05
1.61224e-05
1.61233e-05
1.61236e-05
1.6123e-05
1.61224e-05
1.6122e-05
1.61217e-05
1.61215e-05
1.61214e-05
1.61213e-05
1.61212e-05
1.61212e-05
1.61212e-05
1.61212e-05
1e-05
1e-05
1e-05
1e-05
0.00122892
0.00477079
0.0288275
0.0763399
0.137239
0.199195
0.254632
0.29998
0.333796
0.356212
0.369012
0.374769
0.374559
0.360863
0.325239
0.262552
0.176708
0.0878349
0.0254136
0.000524196
0.000172662
1e-05
1e-05
1e-05
1.00041e-05
1.09928e-05
1.68741e-05
1.76272e-05
1.62888e-05
1.59616e-05
1.60873e-05
1.6148e-05
1.61344e-05
1.6123e-05
)
;

boundaryField
{
    inlet
    {
        type            calculated;
        value           nonuniform List<scalar> 
11
(
1.61e-05
1.61002e-05
1.61003e-05
1.61004e-05
1.61004e-05
1.61004e-05
1.61004e-05
1.61007e-05
1.61012e-05
1.61016e-05
1.61018e-05
)
;
    }
    outlet
    {
        type            calculated;
        value           nonuniform List<scalar> 0();
    }
    walls
    {
        type            calculated;
        value           nonuniform List<scalar> 4(0.00177417 0.00157476 0.00135097 0.000597954);
    }
    frontAndBack
    {
        type            empty;
    }
    procBoundary6to2
    {
        type            processor;
        value           nonuniform List<scalar> 
13
(
0.126629
0.149901
0.151252
0.135175
0.104399
0.0648546
0.025783
0.00296233
0.000817262
1e-05
1e-05
1.00113e-05
1.32955e-05
)
;
    }
    procBoundary6to3
    {
        type            processor;
        value           uniform 1.57362e-05;
    }
    procBoundary6to5
    {
        type            processor;
        value           nonuniform List<scalar> 
86
(
0.0928025
0.159348
0.203452
0.193219
0.12409
0.0380317
0.00164225
0.000405176
1e-05
1e-05
1.00155e-05
1.39174e-05
1.84827e-05
1.6668e-05
1.56355e-05
1.58126e-05
1.61901e-05
1.63114e-05
1.62444e-05
1.61523e-05
1.6104e-05
1.60944e-05
1.61003e-05
1.61068e-05
1.61098e-05
1.61102e-05
1.61096e-05
1.6109e-05
1.61086e-05
1.61084e-05
1.61083e-05
1.61083e-05
1.61083e-05
1.61083e-05
1.61076e-05
1.61077e-05
1.61078e-05
1.6108e-05
1.61082e-05
1.61084e-05
1.61086e-05
1.61088e-05
1.6109e-05
1.61092e-05
1.61094e-05
1.61096e-05
1.61096e-05
1.61093e-05
1.61094e-05
1.61095e-05
1.61095e-05
1.61094e-05
1.61093e-05
1.61091e-05
1.61089e-05
1.61085e-05
1.61085e-05
1.61075e-05
1.61068e-05
1.61061e-05
1.61053e-05
1.61044e-05
1.61032e-05
1.61019e-05
1.61019e-05
1.60993e-05
1.60971e-05
1.60946e-05
1.6092e-05
1.60893e-05
1.60867e-05
1.60842e-05
1.60842e-05
1.6081e-05
1.60784e-05
1.60758e-05
1.60732e-05
1.6071e-05
1.60715e-05
1.60743e-05
1.60776e-05
1.60816e-05
1.60816e-05
1.60846e-05
1.60898e-05
1.60997e-05
)
;
    }
    procBoundary6to7
    {
        type            processor;
        value           nonuniform List<scalar> 
91
(
1.6102e-05
1.6102e-05
1.61027e-05
1.61027e-05
1.60833e-05
1.60833e-05
1.60813e-05
1.60723e-05
1.60813e-05
1.60746e-05
1.60774e-05
1.60723e-05
1.60731e-05
1.60902e-05
1.60864e-05
1.60774e-05
1.60822e-05
1.60996e-05
1.60967e-05
1.60902e-05
1.60941e-05
1.61121e-05
1.611e-05
1.61073e-05
1.60996e-05
1.61039e-05
1.61186e-05
1.61178e-05
1.61169e-05
1.61158e-05
1.61121e-05
1.61146e-05
1.61211e-05
1.61211e-05
1.61211e-05
1.6121e-05
1.61208e-05
1.61205e-05
1.61186e-05
1.61201e-05
1.61227e-05
1.61235e-05
1.61233e-05
1.6123e-05
1.61228e-05
1.61225e-05
1.61223e-05
1.61222e-05
1.61221e-05
1.61221e-05
1.61221e-05
1.61211e-05
1.61221e-05
1.0003e-05
1e-05
1e-05
1e-05
0.000156602
0.000478804
0.0161284
0.0552141
0.112688
0.176115
0.23554
0.285649
0.324107
0.350449
0.365848
0.372653
0.373785
0.36279
0.330936
0.272151
0.189044
0.0998447
0.0333511
0.00209757
0.000585228
1e-05
1e-05
1e-05
1.00017e-05
1.04094e-05
1.62168e-05
1.80147e-05
1.6454e-05
1.59057e-05
1.60324e-05
1.61413e-05
1.61227e-05
1.61417e-05
)
;
    }
}


// ************************************************************************* //
