/*--------------------------------*- C++ -*----------------------------------*\
| =========                 |                                                 |
| \\      /  F ield         | OpenFOAM: The Open Source CFD Toolbox           |
|  \\    /   O peration     | Version:  2306                                  |
|   \\  /    A nd           | Website:  www.openfoam.com                      |
|    \\/     M anipulation  |                                                 |
\*---------------------------------------------------------------------------*/
FoamFile
{
    version     2.0;
    format      ascii;
    arch        "LSB;label=32;scalar=64";
    class       volScalarField;
    location    "425";
    object      turbulenceProperties:I;
}
// * * * * * * * * * * * * * * * * * * * * * * * * * * * * * * * * * * * * * //

dimensions      [0 0 0 0 0 0 0];

internalField   nonuniform List<scalar> 
1340
(
0.299229
0.307568
0.319848
0.527541
0.145249
0.154572
0.167389
0.330988
0.137361
0.144905
0.152921
0.257392
0.118669
0.130887
0.142674
0.21655
0.0834
0.105605
0.125442
0.183874
0.0366594
0.0678478
0.0992676
0.152737
0.00949861
0.0260572
0.0646055
0.119285
0.00252795
0.0091797
0.0293571
0.0831456
0.000843081
0.00525255
0.0107708
0.0491683
0
0.000377924
0.00386048
0.0245034
0
0
0.00219592
0.0123243
4.45804e-05
0
0.000874934
0.00723285
0.000174314
5.03586e-06
0.000498327
0.00417135
0.000254029
4.6886e-05
0.000161908
0.00209012
0.000243404
0.000174931
1.96756e-05
0.000567667
0.000218339
0.000248441
1.18808e-05
0.000153516
0.000204488
0.000260102
1.91413e-05
6.16445e-07
0.000201891
0.00023962
0.00015367
2.32274e-05
0.000202833
0.000216796
0.000218277
8.03796e-05
0.000202403
0.000203707
0.000225905
0.000161462
0.000199815
0.000198287
0.000214038
0.000200386
0.00019598
0.000195411
0.000201447
0.00020755
0.00019175
0.000192258
0.000192714
0.000201599
0.00018748
0.000188229
0.000186669
0.000192701
0.000183214
0.000183614
0.000181555
0.000184294
0.00017888
0.000178741
0.000176489
0.000176822
0.000174441
0.000173787
0.000171277
0.000169974
0.00016989
0.000168792
0.000165971
0.0001635
0.000165229
0.000163755
0.00016063
0.00015728
0.000160482
0.000158688
0.000155308
0.000151293
0.000155668
0.0001536
0.00015001
0.00014552
0.000150794
0.00014851
0.000144767
0.000139947
0.000145882
0.00014342
0.000139579
0.00013457
0.000142999
0.000140947
0.000138357
0.000134455
0.000129369
0.000138098
0.000136003
0.000133333
0.000129417
0.000124334
0.00013318
0.000131072
0.000128356
0.000124469
0.000119461
0.000128266
0.000126165
0.00012344
0.000119619
0.000114738
0.000123374
0.0001213
0.000118598
0.000114874
0.000110161
0.00011852
0.000116492
0.000113841
0.000110242
0.000105725
0.000113721
0.000111754
0.000109176
0.000105726
0.000101426
0.000108993
0.000107099
0.000104613
0.000101329
9.72593e-05
0.00010435
0.000102539
0.00010016
9.70549e-05
9.32214e-05
9.98054e-05
9.80837e-05
9.58232e-05
9.29042e-05
8.93106e-05
9.53702e-05
9.37436e-05
9.16074e-05
8.88802e-05
8.55223e-05
9.10538e-05
8.95254e-05
8.75186e-05
8.49828e-05
8.18567e-05
8.7966e-05
8.68654e-05
8.5435e-05
8.35593e-05
8.1212e-05
7.83112e-05
8.38382e-05
8.28116e-05
8.14789e-05
7.9733e-05
7.75691e-05
7.48841e-05
7.98521e-05
7.88968e-05
7.766e-05
7.60415e-05
7.4054e-05
7.15744e-05
7.6012e-05
7.51258e-05
7.39813e-05
7.24857e-05
7.06656e-05
6.83806e-05
7.2321e-05
7.15002e-05
7.04442e-05
6.90666e-05
6.74036e-05
6.53022e-05
6.87808e-05
6.80222e-05
6.70495e-05
6.57831e-05
6.4267e-05
6.23377e-05
6.5391e-05
6.4691e-05
6.37971e-05
6.26352e-05
6.12549e-05
5.94858e-05
6.21517e-05
6.15061e-05
6.06852e-05
5.96209e-05
5.83656e-05
5.67456e-05
5.90607e-05
5.84655e-05
5.77126e-05
5.67385e-05
5.55974e-05
5.41156e-05
5.6542e-05
5.61153e-05
5.55669e-05
5.48763e-05
5.39854e-05
5.29482e-05
5.15941e-05
5.37084e-05
5.33122e-05
5.28065e-05
5.21733e-05
5.13588e-05
5.04157e-05
4.91793e-05
5.10161e-05
5.06481e-05
5.01815e-05
4.96004e-05
4.88554e-05
4.79972e-05
4.6869e-05
4.84616e-05
4.8119e-05
4.76879e-05
4.71541e-05
4.6472e-05
4.56901e-05
4.46611e-05
4.60402e-05
4.57208e-05
4.53218e-05
4.48305e-05
4.42055e-05
4.34918e-05
4.25534e-05
4.37454e-05
4.34473e-05
4.30776e-05
4.26251e-05
4.20517e-05
4.13989e-05
4.05433e-05
4.15664e-05
4.12889e-05
4.09469e-05
4.05305e-05
4.00045e-05
3.9407e-05
3.86278e-05
3.96987e-05
3.94898e-05
3.92327e-05
3.89175e-05
3.85354e-05
3.80543e-05
3.75079e-05
3.68004e-05
3.7702e-05
3.75069e-05
3.72688e-05
3.69789e-05
3.66291e-05
3.61902e-05
3.56919e-05
3.50524e-05
3.58007e-05
3.56167e-05
3.53945e-05
3.51265e-05
3.48055e-05
3.44048e-05
3.39502e-05
3.33738e-05
3.40028e-05
3.38263e-05
3.36161e-05
3.33655e-05
3.30682e-05
3.27001e-05
3.22839e-05
3.17648e-05
3.23013e-05
3.21286e-05
3.19257e-05
3.16873e-05
3.14075e-05
3.10643e-05
3.06781e-05
3.02054e-05
3.07607e-05
3.0594e-05
3.03993e-05
3.01723e-05
2.99078e-05
2.95837e-05
2.92203e-05
2.87805e-05
2.94675e-05
2.93065e-05
2.91204e-05
2.89053e-05
2.86548e-05
2.83469e-05
2.80022e-05
2.761e-05
2.84361e-05
2.82999e-05
2.81312e-05
2.79417e-05
2.77288e-05
2.74844e-05
2.71881e-05
2.68516e-05
2.64864e-05
2.73616e-05
2.7221e-05
2.70465e-05
2.68515e-05
2.66347e-05
2.63882e-05
2.60955e-05
2.57715e-05
2.54541e-05
2.61817e-05
2.60291e-05
2.58453e-05
2.56419e-05
2.54186e-05
2.51671e-05
2.48682e-05
2.45207e-05
2.41497e-05
2.51906e-05
2.50457e-05
2.48687e-05
2.4669e-05
2.44466e-05
2.41978e-05
2.39127e-05
2.36176e-05
2.33904e-05
2.37133e-05
2.35397e-05
2.33417e-05
2.31277e-05
2.28969e-05
2.26374e-05
2.23206e-05
2.19157e-05
2.1451e-05
2.32359e-05
2.30889e-05
2.29096e-05
2.27046e-05
2.24788e-05
2.22375e-05
2.19937e-05
2.18119e-05
2.18055e-05
2.09229e-05
2.0733e-05
2.05236e-05
2.02958e-05
2.00449e-05
1.97472e-05
1.93402e-05
1.87691e-05
1.80543e-05
2.24327e-05
2.23259e-05
2.21871e-05
2.20153e-05
2.18286e-05
2.16546e-05
2.15767e-05
2.17269e-05
2.20971e-05
1.98242e-05
1.98097e-05
1.97394e-05
1.96118e-05
1.94332e-05
1.9188e-05
1.88475e-05
1.86523e-05
1.82865e-05
2.60572e-05
2.57584e-05
2.57667e-05
2.5772e-05
2.576e-05
2.57452e-05
2.57688e-05
2.60153e-05
2.65982e-05
2.68872e-05
2.70546e-05
2.69733e-05
2.70525e-05
2.71494e-05
2.72315e-05
2.73052e-05
2.74104e-05
2.77587e-05
2.8342e-05
2.83271e-05
3.50896e-05
3.22554e-05
3.24854e-05
3.26777e-05
3.27907e-05
3.2922e-05
3.30968e-05
3.34361e-05
3.37178e-05
3.11565e-05
0.250204
0.222794
0.152774
0.227045
0.219466
0.189346
0.153482
0.114831
0.0749249
0.0390043
0.0157105
0.00702236
0.00404384
0.00202423
0.000441227
0.000105347
0
9.57926e-06
4.33497e-05
0.000138678
0.000185676
0.000196337
0.000191294
0.000182393
0.000173881
0.000166456
0.000159768
0.000153518
0.000147557
0.000141853
0.000136394
0.00013117
0.00012617
0.00012137
0.000116753
0.00011231
0.000108022
0.000103879
9.98725e-05
9.59928e-05
9.22312e-05
8.85822e-05
8.50448e-05
8.16088e-05
7.82758e-05
7.5043e-05
7.19077e-05
6.88692e-05
6.59268e-05
6.308e-05
6.03288e-05
5.76718e-05
5.51098e-05
5.26416e-05
5.02669e-05
4.79848e-05
4.57944e-05
4.36945e-05
4.16835e-05
3.97602e-05
3.79225e-05
3.61658e-05
3.44833e-05
3.28641e-05
3.13104e-05
2.97976e-05
2.84035e-05
2.72775e-05
2.61503e-05
2.52083e-05
2.37832e-05
2.32914e-05
2.09042e-05
2.20241e-05
1.70171e-05
2.26472e-05
1.73006e-05
2.68725e-05
2.73113e-05
3.01652e-05
0.146522
0.166203
0.127229
0.0957517
0.141732
0.149124
0.135727
0.11156
0.0807931
0.0471473
0.0185252
0.00498219
0.00249655
0.00149494
0.000427009
0.00012164
0
5.07185e-06
2.32681e-05
0.000100652
0.000145403
0.000158629
0.000157403
0.000152036
0.000146538
0.000141691
0.000137271
0.000133044
0.00012891
0.000124864
0.000120915
0.000117067
0.000113325
0.000109678
0.000106118
0.000102645
9.92479e-05
9.59253e-05
9.26725e-05
8.94858e-05
8.63611e-05
8.32965e-05
8.02946e-05
7.7348e-05
7.44613e-05
7.16351e-05
6.88684e-05
6.61633e-05
6.35216e-05
6.09449e-05
5.84358e-05
5.5995e-05
5.3625e-05
5.13272e-05
4.9103e-05
4.69534e-05
4.48793e-05
4.28811e-05
4.09587e-05
3.91124e-05
3.73413e-05
3.56423e-05
3.40104e-05
3.24359e-05
3.09216e-05
2.94449e-05
2.80733e-05
2.69609e-05
2.58278e-05
2.49268e-05
2.3475e-05
2.30578e-05
2.0587e-05
2.18396e-05
1.6662e-05
2.24405e-05
1.6993e-05
2.6542e-05
2.69083e-05
0.103053
0.123804
0.12079
0.0844109
0.0734266
0.110792
0.11959
0.110629
0.0904814
0.0629942
0.0329211
0.00983865
0.00203676
0.000781495
0.000448872
0
0
1.17088e-06
5.3355e-06
6.46235e-05
0.000107536
0.000123222
0.000124882
0.00012225
0.000119277
0.000116773
0.000114572
0.00011244
0.000110256
0.000107999
0.000105673
0.000103288
0.00010086
9.83893e-05
9.5882e-05
9.33488e-05
9.07922e-05
8.82236e-05
8.56461e-05
8.30669e-05
8.04902e-05
7.79225e-05
7.53714e-05
7.28354e-05
7.03243e-05
6.78423e-05
6.53914e-05
6.29771e-05
6.06031e-05
5.82734e-05
5.5992e-05
5.37611e-05
5.15851e-05
4.94659e-05
4.74062e-05
4.54082e-05
4.34734e-05
4.16032e-05
3.97982e-05
3.80592e-05
3.63863e-05
3.4777e-05
3.3228e-05
3.17295e-05
3.02845e-05
2.88728e-05
2.75517e-05
2.64828e-05
2.53688e-05
2.45304e-05
2.30818e-05
2.27362e-05
2.02562e-05
2.15669e-05
1.64657e-05
2.21659e-05
1.69457e-05
2.62655e-05
0.0780092
0.0966469
0.104752
0.0955552
0.0619239
0.0618562
0.0934712
0.102295
0.0957674
0.0783721
0.0534825
0.0266213
0.00731098
0.000606425
0.000349654
0
0
0
1.02098e-05
4.59334e-05
9.00544e-05
0.000109453
0.000112971
0.000110633
0.000107455
0.000104864
0.000102784
0.000100913
9.90908e-05
9.72671e-05
9.5423e-05
9.35512e-05
9.165e-05
8.97097e-05
8.77265e-05
8.57014e-05
8.36351e-05
8.15342e-05
7.94007e-05
7.72412e-05
7.50607e-05
7.28666e-05
7.06656e-05
6.846e-05
6.62598e-05
6.40693e-05
6.18928e-05
5.97372e-05
5.76059e-05
5.55043e-05
5.34373e-05
5.14074e-05
4.94199e-05
4.74769e-05
4.55818e-05
4.37376e-05
4.19457e-05
4.02085e-05
3.85268e-05
3.69018e-05
3.53343e-05
3.38224e-05
3.23639e-05
3.09496e-05
2.95812e-05
2.82419e-05
2.69786e-05
2.59671e-05
2.48843e-05
2.41132e-05
2.26738e-05
2.24003e-05
1.99231e-05
2.12907e-05
1.62868e-05
2.19126e-05
1.6875e-05
0.0579436
0.0753815
0.0871721
0.0899455
0.0794628
0.0498999
0.0526537
0.0800882
0.0889622
0.084432
0.0695674
0.0473969
0.0235352
0.00634089
0.00167704
0
0
0
6.54713e-07
2.95047e-06
6.521e-05
9.64377e-05
0.00010301
0.000101564
9.88218e-05
9.6334e-05
9.43143e-05
9.25575e-05
9.08664e-05
8.91771e-05
8.7484e-05
8.579e-05
8.40944e-05
8.23905e-05
8.06713e-05
7.89322e-05
7.71706e-05
7.53867e-05
7.35781e-05
7.17463e-05
6.98933e-05
6.8022e-05
6.61359e-05
6.42371e-05
6.23321e-05
6.04239e-05
5.85169e-05
5.66173e-05
5.47277e-05
5.28537e-05
5.10006e-05
4.91711e-05
4.73703e-05
4.56013e-05
4.3868e-05
4.21734e-05
4.05202e-05
3.89106e-05
3.73467e-05
3.58298e-05
3.43613e-05
3.29404e-05
3.15658e-05
3.02294e-05
2.89319e-05
2.76596e-05
2.64489e-05
2.54893e-05
2.44341e-05
2.37227e-05
2.22894e-05
2.20832e-05
1.96006e-05
2.1037e-05
1.60884e-05
2.17073e-05
0.0395242
0.0565497
0.0700166
0.0782464
0.0789178
0.0689682
0.0434821
0.0443751
0.0694844
0.0786371
0.0758132
0.0632434
0.043696
0.0222338
0.00653213
0.00161403
2.34521e-05
0
0
8.64561e-07
3.56071e-06
6.51462e-05
8.84929e-05
8.94474e-05
8.64438e-05
8.45034e-05
8.31309e-05
8.19437e-05
8.08329e-05
7.97079e-05
7.85319e-05
7.7312e-05
7.60577e-05
7.47706e-05
7.34481e-05
7.20887e-05
7.06944e-05
6.92673e-05
6.78063e-05
6.63136e-05
6.47917e-05
6.32417e-05
6.1667e-05
6.00696e-05
5.8454e-05
5.68229e-05
5.51805e-05
5.35323e-05
5.18807e-05
5.0231e-05
4.85886e-05
4.69567e-05
4.53403e-05
4.37429e-05
4.21692e-05
4.06224e-05
3.91058e-05
3.76223e-05
3.61744e-05
3.4764e-05
3.33931e-05
3.20617e-05
3.07695e-05
2.95099e-05
2.82821e-05
2.70764e-05
2.59172e-05
2.50067e-05
2.39773e-05
2.33236e-05
2.18971e-05
2.17587e-05
1.92684e-05
2.07817e-05
0.0222284
0.0384887
0.053021
0.0641921
0.0707077
0.0708081
0.062118
0.0405334
0.0364342
0.0606571
0.0703368
0.0690732
0.0586404
0.041467
0.0220815
0.00732666
0.000385431
0.000175219
0
0
9.78545e-08
1.50607e-05
6.06401e-05
8.07435e-05
7.88219e-05
7.48733e-05
7.33037e-05
7.24819e-05
7.16431e-05
7.08144e-05
7.00031e-05
6.91689e-05
6.83007e-05
6.74e-05
6.64602e-05
6.54748e-05
6.44426e-05
6.33646e-05
6.22399e-05
6.1071e-05
5.98602e-05
5.86088e-05
5.73212e-05
5.59997e-05
5.46482e-05
5.32704e-05
5.18705e-05
5.04531e-05
4.90216e-05
4.75808e-05
4.61363e-05
4.46913e-05
4.32511e-05
4.18193e-05
4.04009e-05
3.89992e-05
3.76181e-05
3.62608e-05
3.49301e-05
3.36282e-05
3.23576e-05
3.1119e-05
2.99127e-05
2.87336e-05
2.75797e-05
2.64447e-05
2.53408e-05
2.44832e-05
2.34827e-05
2.28905e-05
2.14745e-05
2.14091e-05
0.00800326
0.0210412
0.0356357
0.0486091
0.0585432
0.0643611
0.064659
0.0575162
0.0396602
0.0283691
0.0528242
0.0632462
0.0634893
0.0550658
0.040054
0.0225301
0.00817521
0.000727614
0.000261216
0
0
0
1.30164e-05
5.1387e-05
7.34455e-05
7.14877e-05
6.68402e-05
6.53347e-05
6.48461e-05
6.41751e-05
6.34128e-05
6.26891e-05
6.19816e-05
6.12612e-05
6.05184e-05
5.97461e-05
5.89384e-05
5.80925e-05
5.72046e-05
5.62741e-05
5.53006e-05
5.42845e-05
5.32285e-05
5.2134e-05
5.10039e-05
4.98419e-05
4.86509e-05
4.74357e-05
4.61991e-05
4.49459e-05
4.3681e-05
4.24077e-05
4.11315e-05
3.98554e-05
3.85846e-05
3.73226e-05
3.60732e-05
3.48398e-05
3.36253e-05
3.24322e-05
3.1263e-05
3.0119e-05
2.9001e-05
2.79055e-05
2.68284e-05
2.57679e-05
2.47231e-05
2.39227e-05
2.29542e-05
0.000739933
0.00682184
0.0184673
0.0317868
0.0438171
0.053159
0.0588509
0.0597248
0.0542043
0.0397262
0.0200175
0.0455659
0.0569281
0.0586554
0.0521192
0.0391317
0.0231455
0.00915902
0.00132126
0.000353469
0
0
0
9.65155e-06
3.71003e-05
6.49704e-05
6.54549e-05
6.03375e-05
5.84844e-05
5.82574e-05
5.7857e-05
5.72294e-05
5.66021e-05
5.60026e-05
5.53959e-05
5.47655e-05
5.41064e-05
5.34171e-05
5.26932e-05
5.19325e-05
5.11336e-05
5.0296e-05
4.94204e-05
4.85074e-05
4.75589e-05
4.65768e-05
4.55637e-05
4.45234e-05
4.34578e-05
4.23714e-05
4.12682e-05
4.01513e-05
3.90258e-05
3.78945e-05
3.67621e-05
3.56323e-05
3.45086e-05
3.33946e-05
3.22931e-05
3.12064e-05
3.01373e-05
2.90873e-05
2.80575e-05
2.70462e-05
2.60471e-05
2.50629e-05
0.000366913
0.000457428
0.00504165
0.01514
0.0273801
0.0388406
0.0479842
0.0538778
0.0555193
0.0515875
0.0400642
0.0154786
0.0386243
0.0511327
0.054321
0.0495724
0.0384466
0.0238364
0.0102467
0.00202522
0.000426278
0
0
0
5.36696e-06
1.93065e-05
5.49972e-05
5.99926e-05
5.52953e-05
5.27336e-05
5.23439e-05
5.21271e-05
5.16616e-05
5.11493e-05
5.06604e-05
5.01667e-05
4.96478e-05
4.91001e-05
4.85207e-05
4.79072e-05
4.72578e-05
4.65716e-05
4.58488e-05
4.50901e-05
4.42963e-05
4.34688e-05
4.26097e-05
4.17222e-05
4.08075e-05
3.98694e-05
3.89115e-05
3.79364e-05
3.69486e-05
3.59509e-05
3.49473e-05
3.39415e-05
3.29368e-05
3.19367e-05
3.09438e-05
2.99603e-05
2.89891e-05
2.80315e-05
0
0.000307537
0.000538589
0.00327501
0.0115627
0.0227088
0.033762
0.0429349
0.0492253
0.0517263
0.0493101
0.0403549
0.0203945
0.0317608
0.0456816
0.0503132
0.0472576
0.0378416
0.024526
0.0113803
0.00281174
0.000508286
0
0
0
1.02305e-06
1.9392e-06
4.19434e-05
5.36394e-05
5.07431e-05
4.79618e-05
4.73277e-05
4.71551e-05
4.67997e-05
4.63738e-05
4.59634e-05
4.5551e-05
4.5117e-05
4.46562e-05
4.41658e-05
4.3643e-05
4.30857e-05
4.24936e-05
4.18669e-05
4.1206e-05
4.05119e-05
3.97862e-05
3.90316e-05
3.82492e-05
3.7442e-05
3.66134e-05
3.57655e-05
3.49024e-05
3.40266e-05
3.31417e-05
3.22513e-05
3.13583e-05
4.79491e-10
0
9.54999e-05
0.000217788
0.00166486
0.00813893
0.0180122
0.0286392
0.0379406
0.0447337
0.0481352
0.0471488
0.0404376
0.0250735
0.0246462
0.0404215
0.0464992
0.0450505
0.0372359
0.0251612
0.0125106
0.00369479
0.000649786
1.16976e-05
0
0
6.05858e-08
8.88103e-06
3.39452e-05
4.73611e-05
4.64697e-05
4.38226e-05
4.30142e-05
4.28593e-05
4.25833e-05
4.22213e-05
4.18666e-05
4.15123e-05
4.11383e-05
4.0739e-05
4.03123e-05
3.98557e-05
3.93678e-05
3.88482e-05
3.82967e-05
3.77137e-05
3.71003e-05
3.64588e-05
3.57901e-05
3.50964e-05
5.16722e-08
4.7197e-08
0
2.90229e-06
0.000584118
0.000550495
0.00511818
0.0135185
0.0235572
0.0329679
0.0403011
0.0446047
0.0449599
0.0402224
0.0283539
0.016738
0.0352276
0.0427816
0.0428716
0.0365758
0.0257031
0.0136209
0.00448439
0.000237125
9.86253e-05
0
0
0
6.95035e-06
2.61616e-05
4.20137e-05
4.26877e-05
4.0158e-05
3.92036e-05
3.90707e-05
3.88646e-05
3.85486e-05
3.82329e-05
)
;

boundaryField
{
    inlet
    {
        type            calculated;
        value           nonuniform List<scalar> 
11
(
7.40324e-05
7.20686e-05
7.29303e-05
7.37176e-05
7.44091e-05
7.50199e-05
7.55872e-05
7.61498e-05
7.67961e-05
7.52471e-05
7.72311e-05
)
;
    }
    outlet
    {
        type            calculated;
        value           nonuniform List<scalar> 0();
    }
    walls
    {
        type            calculated;
        value           uniform 0;
    }
    frontAndBack
    {
        type            empty;
    }
    procBoundary6to2
    {
        type            processor;
        value           nonuniform List<scalar> 
13
(
0.141768
0.0972034
0.0714772
0.0531343
0.0361995
0.0205157
0.00769226
0.000776904
0.000517611
0
0
7.38047e-06
2.96239e-05
)
;
    }
    procBoundary6to3
    {
        type            processor;
        value           uniform 3.40133e-05;
    }
    procBoundary6to5
    {
        type            processor;
        value           nonuniform List<scalar> 
86
(
0.296937
0.144814
0.135531
0.107728
0.0593099
0.0112794
0.00378918
0.00152002
0
0
4.85831e-05
0.000196045
0.000238993
0.000222255
0.000210406
0.00020969
0.000210587
0.000208934
0.000205483
0.000201667
0.00019806
0.000194616
0.000191131
0.000187479
0.000183634
0.000179611
0.000175428
0.000171107
0.000166661
0.000162098
0.000157434
0.000152685
0.000147867
0.000147867
0.000144743
0.000139832
0.000134895
0.000129949
0.000125014
0.000120109
0.000115252
0.00011046
0.000105748
0.000101131
9.66207e-05
9.22293e-05
9.22293e-05
8.87974e-05
8.46135e-05
8.05739e-05
7.66831e-05
7.29442e-05
6.93586e-05
6.5927e-05
6.26485e-05
5.9521e-05
5.9521e-05
5.68689e-05
5.40141e-05
5.13026e-05
4.87307e-05
4.62936e-05
4.39839e-05
4.17901e-05
4.17901e-05
3.98652e-05
3.78593e-05
3.59512e-05
3.41491e-05
3.24462e-05
3.08985e-05
2.95966e-05
2.95966e-05
2.85544e-05
2.74855e-05
2.63205e-05
2.53267e-05
2.38765e-05
2.33985e-05
2.10713e-05
2.265e-05
1.96694e-05
1.96694e-05
2.5041e-05
2.69934e-05
3.05918e-05
)
;
    }
    procBoundary6to7
    {
        type            processor;
        value           nonuniform List<scalar> 
91
(
3.02094e-05
3.02094e-05
2.64679e-05
2.64679e-05
2.60157e-05
2.60157e-05
1.6809e-05
1.58701e-05
1.6809e-05
2.1515e-05
1.89125e-05
1.58701e-05
2.05118e-05
2.24272e-05
2.10249e-05
1.89125e-05
2.10376e-05
2.40793e-05
2.33382e-05
2.24272e-05
2.24036e-05
2.7089e-05
2.61617e-05
2.52408e-05
2.40793e-05
2.43341e-05
3.0466e-05
2.95769e-05
2.86931e-05
2.78169e-05
2.7089e-05
2.69501e-05
3.43809e-05
3.36456e-05
3.28938e-05
3.21278e-05
3.13512e-05
3.05668e-05
3.0466e-05
2.97777e-05
3.79231e-05
3.75967e-05
3.7246e-05
3.68691e-05
3.64643e-05
3.60305e-05
3.55676e-05
3.50757e-05
3.45555e-05
3.40086e-05
3.34361e-05
3.43809e-05
3.28397e-05
4.1429e-06
1.01083e-06
0
0
0.00019977
0.000287089
0.00263025
0.00938241
0.0185818
0.0279861
0.0358406
0.0410295
0.0426434
0.0396675
0.0305671
0.0100189
0.029987
0.0390903
0.0406646
0.0358201
0.0261337
0.0146573
0.00540272
0.000557444
0.000187366
0
0
0
5.19358e-06
1.91944e-05
3.72774e-05
3.93914e-05
3.6873e-05
3.56943e-05
3.55948e-05
3.54968e-05
3.79231e-05
3.52436e-05
)
;
    }
}


// ************************************************************************* //
