/*--------------------------------*- C++ -*----------------------------------*\
| =========                 |                                                 |
| \\      /  F ield         | OpenFOAM: The Open Source CFD Toolbox           |
|  \\    /   O peration     | Version:  2306                                  |
|   \\  /    A nd           | Website:  www.openfoam.com                      |
|    \\/     M anipulation  |                                                 |
\*---------------------------------------------------------------------------*/
FoamFile
{
    version     2.0;
    format      ascii;
    arch        "LSB;label=32;scalar=64";
    class       volScalarField;
    location    "425";
    object      turbulenceProperties:L;
}
// * * * * * * * * * * * * * * * * * * * * * * * * * * * * * * * * * * * * * //

dimensions      [0 1 0 0 0 0 0];

internalField   nonuniform List<scalar> 
1340
(
0.0629532
0.0638647
0.0650202
0.083355
0.182075
0.186342
0.187666
0.18376
0.216522
0.233687
0.249392
0.247297
0.222846
0.24751
0.272824
0.281183
0.224465
0.249902
0.280369
0.298323
0.250111
0.25742
0.28314
0.305319
0.220752
0.30991
0.294186
0.308989
0.0336865
0.192774
0.335528
0.316546
0.0238893
0.0936241
0.305989
0.333505
0
0.0203941
0.0873545
0.357196
0
0
0.071857
0.322179
0.24763
0
0.0366431
0.214956
0.0353722
6.84952
0.0226706
0.123892
0.0244436
0.240719
0.0429982
0.0628957
0.025343
0.0367917
0.930017
0.0205471
0.0278492
0.02594
1.95479
0.0504281
0.0296867
0.0252466
0.945326
1.17061
0.0301051
0.0268581
0.0445539
0.776635
0.0300228
0.0292449
0.0301573
0.118814
0.0301495
0.0310063
0.0293602
0.0438848
0.0305893
0.0318415
0.0307823
0.0338729
0.0312268
0.0323209
0.0325151
0.0326421
0.0319536
0.0328635
0.0338875
0.0335178
0.0327225
0.0335736
0.0349246
0.034932
0.0335298
0.03442
0.0358599
0.0363939
0.0343911
0.0353602
0.0368423
0.0378099
0.0353184
0.0363719
0.0379155
0.0392178
0.0363199
0.0374545
0.0390797
0.0406587
0.0374036
0.0386162
0.0403324
0.0421573
0.0385732
0.0398622
0.0416705
0.0437196
0.0398337
0.0411993
0.0431014
0.0453518
0.0411941
0.0426326
0.0446255
0.0470601
0.0426592
0.0441716
0.0462523
0.0488482
0.0429502
0.0442366
0.0458195
0.0479882
0.0507262
0.0446097
0.0459345
0.0475838
0.049836
0.0527009
0.0463988
0.0477591
0.049473
0.0518034
0.0547791
0.0483253
0.0497199
0.0514946
0.0538979
0.0569702
0.0503973
0.0518246
0.053656
0.0561265
0.0592825
0.0526244
0.0540819
0.0559653
0.0584959
0.0617248
0.0550153
0.056501
0.0584327
0.0610152
0.0643063
0.0575793
0.0590909
0.061066
0.0636936
0.0670375
0.0603259
0.0618613
0.0638749
0.0665396
0.0699286
0.0632653
0.0648221
0.0668698
0.0695644
0.07299
0.0664071
0.0679828
0.0700608
0.072777
0.0762347
0.0697621
0.0713541
0.0734578
0.0761893
0.079673
0.0721077
0.0733402
0.0749472
0.0770725
0.0798132
0.0833174
0.0759099
0.0771519
0.0787717
0.0809154
0.0836599
0.087181
0.079957
0.0812087
0.0828395
0.0849981
0.0877411
0.0912765
0.0842599
0.0855208
0.0871614
0.0893327
0.0920706
0.0956174
0.0888292
0.0900999
0.0917492
0.0939302
0.0966607
0.100216
0.0936758
0.0949562
0.0966141
0.098804
0.101524
0.105087
0.0988116
0.100102
0.101768
0.103965
0.106675
0.110244
0.104247
0.105548
0.107222
0.109427
0.112125
0.1157
0.109993
0.111306
0.112989
0.115201
0.11789
0.121468
0.115034
0.116061
0.117388
0.119081
0.1213
0.123981
0.127563
0.121419
0.122464
0.123806
0.12551
0.127738
0.130413
0.133999
0.128146
0.129211
0.13057
0.132288
0.134527
0.137199
0.140789
0.135225
0.136312
0.137692
0.139426
0.141679
0.144352
0.147946
0.142664
0.143777
0.14518
0.146934
0.149204
0.151885
0.155484
0.15048
0.15162
0.15305
0.154826
0.157116
0.159809
0.163414
0.158704
0.159871
0.161326
0.163124
0.165434
0.168144
0.171751
0.166429
0.167389
0.16858
0.170056
0.171872
0.174199
0.176923
0.180524
0.175593
0.176581
0.177797
0.179293
0.181126
0.183465
0.186201
0.189781
0.185271
0.186298
0.187548
0.189075
0.190931
0.193287
0.196036
0.199592
0.195421
0.196505
0.19781
0.199384
0.201281
0.203669
0.206445
0.209976
0.20607
0.207238
0.208626
0.210277
0.212247
0.214705
0.217547
0.221097
0.216748
0.217984
0.219445
0.221171
0.223216
0.225765
0.228701
0.232329
0.226564
0.227862
0.229378
0.231157
0.233262
0.235892
0.238917
0.242437
0.234995
0.236169
0.237637
0.239309
0.241215
0.243442
0.24619
0.249392
0.252952
0.244496
0.245801
0.247436
0.249291
0.251388
0.253815
0.256754
0.260096
0.263455
0.255804
0.257345
0.259223
0.261335
0.263695
0.266406
0.269697
0.273629
0.277946
0.266168
0.267747
0.269698
0.271935
0.27447
0.277366
0.280758
0.284369
0.287237
0.283074
0.285199
0.287662
0.290374
0.29336
0.296792
0.301086
0.306751
0.313507
0.289199
0.291075
0.293394
0.29609
0.299121
0.302433
0.305862
0.3085
0.308675
0.321556
0.324533
0.32788
0.331602
0.335802
0.340924
0.348171
0.358868
0.373199
0.30016
0.301626
0.303548
0.305959
0.308626
0.311162
0.312347
0.310244
0.305085
0.340156
0.340419
0.34165
0.343892
0.347077
0.351548
0.35795
0.361799
0.369181
0.258798
0.261814
0.261754
0.261729
0.261884
0.262073
0.261871
0.259423
0.253731
0.250962
0.249876
0.250626
0.249887
0.248988
0.248229
0.247554
0.246608
0.243535
0.238613
0.238878
0.192089
0.20899
0.207518
0.206287
0.205571
0.204754
0.203673
0.201587
0.199814
0.216074
0.162179
0.298128
0.530161
0.365322
0.343875
0.338619
0.334542
0.33162
0.333664
0.343222
0.348247
0.273604
0.147425
0.0676768
0.0206181
0.0881783
0
2.9547
0.299033
0.0540555
0.0375151
0.035318
0.036121
0.0376905
0.0393439
0.0409214
0.0424673
0.0440347
0.0456568
0.04734
0.0490867
0.0508996
0.0527803
0.054738
0.0567801
0.0589119
0.0611442
0.0634858
0.0659455
0.068534
0.0712633
0.0741449
0.077187
0.0804077
0.0838157
0.0874241
0.0912478
0.0952996
0.0995937
0.104144
0.108963
0.114068
0.119471
0.125187
0.13123
0.137615
0.144355
0.151464
0.158957
0.166845
0.175142
0.183875
0.193084
0.202844
0.213168
0.224257
0.235537
0.245506
0.256313
0.266127
0.282328
0.288545
0.321801
0.305679
0.396046
0.297706
0.390317
0.251092
0.247824
0.223099
0.235877
0.293206
0.472198
0.695293
0.48031
0.427444
0.406794
0.395683
0.392654
0.40565
0.453285
0.50773
0.275006
0.113413
0.0315169
0.0628021
0
6.55346
0.663459
0.0763314
0.0479906
0.0437891
0.0440371
0.0454026
0.046911
0.0483352
0.0497201
0.0511325
0.0526068
0.0541481
0.0557563
0.0574323
0.0591765
0.0609978
0.0629036
0.064898
0.0669928
0.0691948
0.0715139
0.0739606
0.0765468
0.0792842
0.082181
0.0852566
0.0885194
0.0919826
0.0956625
0.0995725
0.103727
0.10814
0.112827
0.117803
0.123083
0.128682
0.134615
0.140897
0.147543
0.154568
0.161987
0.169812
0.178059
0.186753
0.195934
0.205677
0.215992
0.227077
0.23843
0.248504
0.259622
0.269233
0.286131
0.291554
0.326843
0.308331
0.404556
0.300505
0.397404
0.254275
0.251495
0.29757
0.334735
0.421718
0.683723
0.837981
0.55947
0.485165
0.454
0.438735
0.436997
0.45762
0.531204
0.421941
0.12325
0.0499587
0
0
6.79559
5.17078
0.126084
0.0647392
0.0560603
0.0553031
0.0563306
0.0575563
0.0586298
0.0596065
0.0605899
0.0616419
0.0627809
0.0640136
0.0653427
0.0667686
0.0683007
0.0699451
0.0717057
0.0735922
0.0756079
0.077763
0.0800648
0.0825235
0.0851476
0.0879445
0.0909321
0.0941162
0.097509
0.101126
0.104979
0.109081
0.113446
0.118088
0.123022
0.128262
0.133822
0.139718
0.145963
0.152572
0.15956
0.166941
0.174728
0.182936
0.191591
0.200726
0.210423
0.220691
0.231721
0.243079
0.253116
0.264439
0.273695
0.29111
0.295773
0.332271
0.312307
0.409451
0.304298
0.398524
0.257027
0.341893
0.373543
0.42745
0.542113
0.912876
0.955178
0.630948
0.539443
0.499484
0.480531
0.47855
0.496525
0.52812
0.141447
0.0566411
0
0
0
1.88695
0.197933
0.0782154
0.0629311
0.0610412
0.062206
0.0638684
0.0652921
0.0664769
0.0675774
0.0686871
0.0698396
0.0710522
0.0723354
0.0736973
0.0751529
0.0767145
0.0783916
0.0801953
0.0821321
0.0842138
0.0864484
0.0888461
0.091415
0.0941641
0.0971087
0.100254
0.103614
0.107201
0.111026
0.115103
0.119445
0.124063
0.128974
0.13419
0.139725
0.145595
0.15181
0.158388
0.16534
0.172682
0.180428
0.188589
0.197192
0.206267
0.215895
0.226097
0.237045
0.24838
0.258271
0.269708
0.278543
0.296456
0.300305
0.33792
0.316441
0.414024
0.307885
0.400214
0.373952
0.403647
0.443687
0.510109
0.647587
1.10399
1.08232
0.707976
0.598279
0.549563
0.527087
0.523822
0.536261
0.523185
0.507873
0
0
0
1.38217
10.392
0.114452
0.0713495
0.0669021
0.0677655
0.069473
0.0711091
0.0724972
0.0737496
0.0749986
0.0762927
0.0776397
0.0790414
0.0805023
0.0820338
0.0836483
0.0853582
0.0871747
0.0891073
0.0911703
0.0933743
0.0957306
0.0982505
0.100945
0.10383
0.106912
0.110206
0.113727
0.117483
0.121491
0.125764
0.130313
0.135155
0.140302
0.145769
0.151568
0.157715
0.164223
0.171105
0.178377
0.186052
0.194142
0.202673
0.211671
0.221215
0.231337
0.24219
0.253498
0.263247
0.274805
0.283246
0.301682
0.30472
0.343579
0.320342
0.41921
0.310867
0.399109
0.42673
0.460025
0.506093
0.581386
0.734186
1.23462
1.24492
0.791014
0.659407
0.600916
0.573783
0.566527
0.56613
0.534205
0.560464
0.462358
0
0
3.11195
7.53132
0.108748
0.0777217
0.0769706
0.079365
0.0810171
0.0822262
0.0833005
0.0843326
0.0854082
0.0865682
0.0878118
0.0891355
0.0905437
0.0920467
0.0936543
0.0953732
0.0972106
0.0991789
0.101287
0.103545
0.105966
0.10856
0.111341
0.114319
0.11751
0.120925
0.124576
0.128481
0.132651
0.137098
0.14184
0.146888
0.152258
0.157962
0.164015
0.17043
0.177221
0.184403
0.191989
0.199993
0.208437
0.217346
0.226795
0.236826
0.24757
0.258851
0.26847
0.280176
0.28822
0.307207
0.309374
0.349608
0.324368
0.420279
0.44614
0.474919
0.510624
0.56047
0.640913
0.800121
1.29437
1.47821
0.884977
0.724446
0.653999
0.620345
0.60608
0.59434
0.555902
0.128242
0.0876224
0
0
0.00478549
0.838638
0.114977
0.0853723
0.0872189
0.0913539
0.0931557
0.0941182
0.0951187
0.096127
0.0971346
0.098196
0.0993304
0.100542
0.101845
0.103258
0.104791
0.106452
0.108254
0.110205
0.112315
0.114597
0.117057
0.119711
0.122568
0.125641
0.128943
0.132484
0.136281
0.140347
0.144692
0.149334
0.154283
0.159556
0.165163
0.171121
0.177441
0.184137
0.191223
0.198714
0.206622
0.214969
0.223778
0.233117
0.243041
0.253656
0.2649
0.274362
0.286222
0.293808
0.313382
0.314542
0.438577
0.464113
0.489455
0.518602
0.555594
0.607304
0.689421
0.846877
1.29519
1.85749
0.997243
0.796165
0.710212
0.66783
0.645426
0.626912
0.573478
0.215581
0.181307
0
0
0
0.990035
0.137098
0.0938685
0.096139
0.10212
0.104316
0.105045
0.106058
0.107231
0.108367
0.109502
0.110683
0.111933
0.113268
0.114708
0.116263
0.117953
0.119788
0.121781
0.123947
0.126294
0.128837
0.131587
0.134555
0.137754
0.141197
0.144897
0.148868
0.15312
0.157669
0.162525
0.167707
0.173222
0.179086
0.185312
0.19191
0.198897
0.206287
0.214091
0.22233
0.231025
0.240236
0.250037
0.260497
0.271687
0.280949
0.292963
0.507579
0.483795
0.504272
0.528898
0.558156
0.595602
0.64768
0.728882
0.878901
1.26645
2.57976
1.13717
0.876658
0.77016
0.716779
0.68646
0.660057
0.599523
0.33869
0.355432
0
0
0
1.47278
0.202646
0.105684
0.10518
0.113006
0.116354
0.116776
0.117528
0.118721
0.119938
0.121124
0.122351
0.123656
0.125057
0.126564
0.128194
0.129963
0.131883
0.13397
0.136235
0.138692
0.141354
0.144234
0.147345
0.150698
0.154309
0.15819
0.162352
0.166812
0.171578
0.176667
0.182089
0.187857
0.193983
0.200479
0.207358
0.214637
0.222326
0.230444
0.239012
0.248076
0.257734
0.268011
0.13508
0.428529
0.524659
0.540008
0.564532
0.593896
0.631324
0.682816
0.761363
0.900932
1.2295
3.27484
1.32172
0.968905
0.834735
0.767931
0.728877
0.694755
0.631829
0.443338
0.572693
0
0
0
3.37489
0.492967
0.12387
0.115053
0.123386
0.128921
0.129827
0.130334
0.131426
0.132647
0.133834
0.135057
0.136371
0.137793
0.139337
0.141018
0.142852
0.144852
0.147031
0.149401
0.151977
0.154771
0.157795
0.161061
0.164585
0.168378
0.172452
0.176822
0.181496
0.186492
0.191818
0.197486
0.203507
0.209893
0.216657
0.223813
0.231373
0.239356
0
0.129032
0.299442
0.591161
0.573332
0.59686
0.626146
0.663318
0.713658
0.788635
0.916798
1.19461
2.44499
1.58647
1.07805
0.905697
0.822106
0.772834
0.731359
0.668009
0.528518
0.783712
0
0
0
4.89936
10.5867
0.163411
0.128248
0.134556
0.141671
0.143468
0.14397
0.144995
0.146236
0.147453
0.148698
0.150037
0.151491
0.153077
0.154813
0.156717
0.158801
0.161079
0.163564
0.16627
0.169209
0.172389
0.175829
0.179539
0.183527
0.187812
0.192398
0.197302
0.202533
0.2081
0.214014
5.68298e-10
0
0.0787514
0.096514
0.720389
0.608613
0.626645
0.65543
0.692095
0.741021
0.812112
0.929245
1.16554
1.95676
2.01898
1.21157
0.985193
0.880142
0.818991
0.770169
0.706701
0.605469
0.905245
0.802487
0
0
0.00116716
1.43318
0.206241
0.144415
0.146969
0.154995
0.15775
0.158303
0.159274
0.160555
0.16183
0.163127
0.164524
0.166047
0.167714
0.169542
0.17155
0.17375
0.176159
0.178789
0.181654
0.184761
0.188128
0.191765
0.000714714
0.000544562
0
8.31035
0.241104
0.998375
0.650492
0.655204
0.68246
0.718396
0.765769
0.833046
0.940039
1.14284
1.70064
2.93418
1.38171
1.07581
0.94303
0.867905
0.811208
0.748235
0.652236
0.24993
0.202778
0
0
0
1.9858
0.280838
0.162137
0.160102
0.169114
0.172991
0.17357
0.17445
0.175798
0.177166
)
;

boundaryField
{
    inlet
    {
        type            calculated;
        value           nonuniform List<scalar> 
11
(
0.0913162
0.0937935
0.092688
0.0916964
0.0908437
0.0901055
0.0894298
0.0887652
0.0879971
0.0897591
0.0874486
)
;
    }
    outlet
    {
        type            calculated;
        value           nonuniform List<scalar> 0();
    }
    walls
    {
        type            calculated;
        value           uniform 0;
    }
    frontAndBack
    {
        type            empty;
    }
    procBoundary6to2
    {
        type            processor;
        value           nonuniform List<scalar> 
13
(
0.142994
0.218261
0.277289
0.319297
0.350664
0.375899
0.393529
0.443933
0.181839
0
0
1.66338
0.231872
)
;
    }
    procBoundary6to3
    {
        type            processor;
        value           uniform 0.200533;
    }
    procBoundary6to5
    {
        type            processor;
        value           nonuniform List<scalar> 
86
(
0.0625866
0.175303
0.197612
0.198487
0.20258
0.312396
0.0410645
0.0256501
0
0
0.206727
0.0297324
0.0247089
0.0263703
0.0278199
0.0279782
0.0279423
0.0282313
0.0287585
0.0293569
0.029953
0.0305517
0.0311823
0.0318671
0.0326155
0.0334313
0.0343181
0.0352793
0.03632
0.0374474
0.0386673
0.0399863
0.0414115
0.0414115
0.0418746
0.0435192
0.045293
0.0472044
0.0492621
0.0514749
0.0538521
0.056403
0.0591373
0.0620649
0.0651956
0.0685398
0.0685398
0.0711708
0.0749672
0.0790076
0.0833028
0.0878635
0.0927008
0.0978254
0.103248
0.108981
0.108981
0.114248
0.120614
0.12732
0.134375
0.141786
0.149573
0.15777
0.15777
0.165669
0.174802
0.184438
0.19453
0.2051
0.215735
0.225531
0.225531
0.233984
0.243358
0.25442
0.264704
0.281107
0.287159
0.319263
0.297257
0.342814
0.342814
0.269308
0.250444
0.220389
)
;
    }
    procBoundary6to7
    {
        type            processor;
        value           nonuniform List<scalar> 
91
(
0.22283
0.22283
0.255624
0.255624
0.259564
0.259564
0.401817
0.425066
0.401817
0.31372
0.356303
0.425066
0.328735
0.300019
0.320219
0.356303
0.320221
0.279127
0.28815
0.300019
0.300322
0.24778
0.256676
0.26617
0.279127
0.27623
0.220285
0.226924
0.233948
0.241366
0.24778
0.249196
0.19568
0.199888
0.204395
0.209216
0.214356
0.219825
0.220285
0.225632
0.178534
0.180002
0.181613
0.183383
0.185332
0.187474
0.189826
0.192399
0.195208
0.198262
0.201573
0.19568
0.205154
3.45346
4.51079
0
0
0.0922204
0.188922
0.706531
0.680178
0.706072
0.741865
0.788105
0.851993
0.9501
1.12597
1.54696
4.83362
1.61138
1.18112
1.0118
0.919916
0.854803
0.790916
0.710221
0.430058
0.353425
0
0
0
2.95114
0.416196
0.182171
0.17378
0.184198
0.189888
0.190418
0.190937
0.178534
0.192238
)
;
    }
}


// ************************************************************************* //
