/*--------------------------------*- C++ -*----------------------------------*\
| =========                 |                                                 |
| \\      /  F ield         | OpenFOAM: The Open Source CFD Toolbox           |
|  \\    /   O peration     | Version:  2306                                  |
|   \\  /    A nd           | Website:  www.openfoam.com                      |
|    \\/     M anipulation  |                                                 |
\*---------------------------------------------------------------------------*/
FoamFile
{
    version     2.0;
    format      ascii;
    arch        "LSB;label=32;scalar=64";
    class       surfaceScalarField;
    location    "675";
    object      phi;
}
// * * * * * * * * * * * * * * * * * * * * * * * * * * * * * * * * * * * * * //

dimensions      [0 3 -1 0 0 0 0];

oriented        oriented;

internalField   nonuniform List<scalar> 
2568
(
0.00991955
-0.0318695
0.0388803
-0.0289608
0.0644586
-0.0255783
0.0864119
-0.0219534
0.105104
-0.0186924
0.120826
-0.0157218
0.133921
-0.0130947
0.145106
-0.0111857
0.154705
-0.00959878
0.163194
-0.00848858
0.170803
-0.00760946
0.177842
-0.00703908
0.18443
-0.00658806
0.190736
-0.00630548
0.196743
-0.00600706
0.202376
-0.00563326
0.206984
-0.00460734
0.210386
-0.00340195
0.212907
-0.00252161
0.214604
-0.0016971
0.215706
-0.00110134
0.216351
-0.000645563
0.216533
-0.000182077
0.216037
0.000496214
0.214777
0.00126044
0.212751
0.00202562
0.209999
0.00275189
0.00356215
-0.0156149
-0.0666214
0.015208
-0.0626924
0.043362
-0.0571148
0.0684117
-0.0506279
0.0901894
-0.0437311
0.109073
-0.0375761
0.125518
-0.0321668
0.139747
-0.0273235
0.152209
-0.0236481
0.163208
-0.0205973
0.173036
-0.0183166
0.182001
-0.0165747
0.19036
-0.0153981
0.198224
-0.0144518
0.205756
-0.0138375
0.213027
-0.0132781
0.219969
-0.0125752
0.226123
-0.0107621
0.231218
-0.00849673
0.235442
-0.00674567
0.238699
-0.00495395
0.240897
-0.00329932
0.241988
-0.00173615
0.242078
-0.000272014
0.241392
0.00118207
0.240115
0.00253716
0.238266
0.00387472
0.235842
0.00517595
0.00663861
-0.0074955
-0.0985183
0.0222859
-0.0924738
0.0495764
-0.0844053
0.0742819
-0.0753333
0.0960768
-0.0655261
0.115137
-0.0566363
0.131846
-0.0488755
0.14648
-0.0419579
0.159348
-0.0365155
0.170786
-0.0320362
0.181062
-0.0285921
0.190441
-0.0259534
0.19913
-0.0240879
0.207296
-0.0226174
0.215123
-0.021665
0.222626
-0.020781
0.229707
-0.0196562
0.236066
-0.0171205
0.241413
-0.0138435
0.24586
-0.0111932
0.249477
-0.00857051
0.252301
-0.00612368
0.254398
-0.00383256
0.255758
-0.0016325
0.25644
0.000500294
0.256406
0.00257129
0.255661
0.00461907
0.254134
0.00670314
0.00903314
-0.0303631
-0.131955
0.00144684
-0.130328
0.0308538
-0.121881
0.0576736
-0.111225
0.0820057
-0.0996654
0.103499
-0.0870189
0.122395
-0.0755326
0.139126
-0.0656064
0.153944
-0.0567767
0.167171
-0.0497424
0.179031
-0.0438954
0.189816
-0.0393776
0.199706
-0.0358433
0.208931
-0.0333124
0.217628
-0.0313147
0.225908
-0.0299455
0.233838
-0.0287104
0.241356
-0.027174
0.24814
-0.0239048
0.253942
-0.0196452
0.258822
-0.016074
0.262834
-0.0125824
0.266029
-0.00931889
0.26844
-0.00624269
0.270134
-0.00332695
0.271145
-0.000510515
0.271494
0.0022219
0.271176
0.00493711
0.270174
0.0077054
0.0108423
-0.0212468
-0.164999
0.0109646
-0.16254
0.0404107
-0.151327
0.0670977
-0.137912
0.0912162
-0.123784
0.112466
-0.108269
0.131192
-0.0942584
0.147894
-0.0823089
0.162793
-0.0716757
0.176206
-0.0631549
0.188394
-0.056084
0.199536
-0.0505192
0.209815
-0.0461222
0.219425
-0.0429229
0.228505
-0.0403947
0.237146
-0.0385866
0.245389
-0.0369528
0.253196
-0.034981
0.260291
-0.0310002
0.266411
-0.0257655
0.271589
-0.0212512
0.275863
-0.0168565
0.279286
-0.0127425
0.281881
-0.00883724
0.283681
-0.00512739
0.284731
-0.00156065
0.285098
0.00185559
0.284788
0.005247
0.283786
0.00870736
0.0125592
-0.0458915
-0.191896
-0.0119203
-0.19897
0.0210106
-0.19547
0.0508212
-0.181138
0.0776175
-0.164708
0.101688
-0.147855
0.122791
-0.129371
0.141332
-0.112799
0.157911
-0.0988878
0.172791
-0.0865563
0.186281
-0.0766448
0.198639
-0.0684415
0.210027
-0.0619069
0.22064
-0.0567356
0.230605
-0.0528883
0.240052
-0.0498414
0.249071
-0.0476054
0.257683
-0.0455648
0.265833
-0.0431316
0.273337
-0.0385041
0.279862
-0.0322904
0.285397
-0.0267855
0.290033
-0.0214927
0.293768
-0.0164775
0.296644
-0.0117136
0.298694
-0.00717748
0.299962
-0.00282828
0.300476
0.00134152
0.300245
0.00547804
0.299294
0.0096588
0.0143681
-0.0377397
-0.226003
-0.00252185
-0.234188
0.031395
-0.229387
0.0618759
-0.211618
0.0890314
-0.191864
0.113272
-0.172095
0.134328
-0.150427
0.152747
-0.131218
0.169206
-0.115347
0.184007
-0.101357
0.197487
-0.0901249
0.209931
-0.0808851
0.22151
-0.0734857
0.232365
-0.0675915
0.242632
-0.0631551
0.252403
-0.0596118
0.261747
-0.0569501
0.270679
-0.054497
0.279175
-0.0516268
0.286987
-0.0463168
0.293888
-0.0391911
0.299795
-0.0326923
0.304735
-0.0264326
0.308761
-0.0205036
0.31187
-0.0148231
0.314127
-0.00943367
0.315534
-0.00423534
0.316155
0.000720413
0.316004
0.00562841
0.315042
0.0106214
0.0161839
-0.0295087
-0.261547
0.0070771
-0.270773
0.0422147
-0.264525
0.0735847
-0.242988
0.101292
-0.219571
0.125842
-0.196644
0.146995
-0.17158
0.165357
-0.14958
0.181713
-0.131703
0.196409
-0.116054
0.209826
-0.103542
0.22231
-0.0933686
0.233975
-0.0851511
0.245005
-0.078621
0.255496
-0.0736464
0.265542
-0.069658
0.275173
-0.0665811
0.284433
-0.0637567
0.293257
-0.0604503
0.301438
-0.0544985
0.30871
-0.0464629
0.314986
-0.0389679
0.320281
-0.0317283
0.32463
-0.0248524
0.328022
-0.018215
0.330501
-0.0119125
0.332118
-0.0058521
0.332879
-4.07401e-05
0.332822
0.00568516
0.331912
0.0115321
0.0180495
-0.0585301
-0.0213309
-0.298746
0.016839
-0.308943
0.0534505
-0.301136
0.0858811
-0.275419
0.114322
-0.248012
0.139353
-0.221675
0.160721
-0.192949
0.179129
-0.167988
0.19543
-0.148005
0.210032
-0.130656
0.223369
-0.116879
0.235801
-0.1058
0.247516
-0.0968665
0.258648
-0.0897523
0.269303
-0.0843022
0.279574
-0.0799284
0.289493
-0.0765
0.299024
-0.0732882
0.308153
-0.0695795
0.316684
-0.0630293
0.324342
-0.0541208
0.330967
-0.0455927
0.336614
-0.0373753
0.341258
-0.0294965
0.344944
-0.0219011
0.347669
-0.0146374
0.349467
-0.00764995
0.350378
-0.000952174
0.3504
0.00566329
0.349529
0.0124033
0.0199164
-0.0130749
0.0269365
-0.348955
0.06509
-0.33929
0.0987686
-0.309098
0.128114
-0.277358
0.153794
-0.247355
0.175499
-0.214654
0.194022
-0.18651
0.210335
-0.164318
0.224864
-0.145186
0.23811
-0.130124
0.250482
-0.118173
0.262176
-0.10856
0.273348
-0.100925
0.284139
-0.0950929
0.294582
-0.0903717
0.304689
-0.0866067
0.3145
-0.0830999
0.323936
-0.0790153
0.332798
-0.0718907
0.340804
-0.0621271
0.347813
-0.0526018
0.353792
-0.0433543
0.358779
-0.0344837
0.362749
-0.0258708
0.365727
-0.0176153
0.367752
-0.00967448
0.368808
-0.00200863
0.368951
0.00551999
0.368138
0.0132168
0.0218018
0.0372716
0.0771964
-0.379215
0.112274
-0.344175
0.142693
-0.307777
0.169099
-0.273762
0.191281
-0.236836
0.210028
-0.205257
0.226423
-0.180713
0.240914
-0.159676
0.254079
-0.14329
0.266367
-0.130461
0.278012
-0.120205
0.2892
-0.112113
0.300031
-0.105923
0.310595
-0.100936
0.320913
-0.0969246
0.330952
-0.0931389
0.340646
-0.0887098
0.349838
-0.0810824
0.358195
-0.0704846
0.365557
-0.0599633
0.371903
-0.0497002
0.377211
-0.0397917
0.381495
-0.0301549
0.384733
-0.0208535
0.386956
-0.0118973
0.388205
-0.00325816
0.388455
0.00527057
0.387706
0.013966
0.0236959
0.0898336
0.126417
-0.380759
0.158018
-0.339378
0.185334
-0.301078
0.2081
-0.259601
0.22717
-0.224328
0.243682
-0.197225
0.258193
-0.174188
0.271299
-0.156395
0.283509
-0.142671
0.295072
-0.131768
0.306223
-0.123264
0.317091
-0.116792
0.327728
-0.111572
0.338173
-0.10737
0.348398
-0.103364
0.358371
-0.0986826
0.367865
-0.0905763
0.376562
-0.0791819
0.384278
-0.0676787
0.390963
-0.0563855
0.396618
-0.0454469
0.401186
-0.0347224
0.404708
-0.0243754
0.407167
-0.0143564
0.408585
-0.00467671
0.408981
0.0048754
0.408284
0.0146626
0.0255723
0.141256
0.174163
-0.372284
0.202493
-0.329408
0.225938
-0.283047
0.245418
-0.243807
0.262165
-0.213972
0.276746
-0.188769
0.289821
-0.16947
0.301957
-0.154807
0.313439
-0.14325
0.324526
-0.134351
0.335365
-0.127632
0.346048
-0.122255
0.356586
-0.117908
0.366986
-0.113764
0.377172
-0.108869
0.386961
-0.100366
0.395976
-0.0881966
0.404032
-0.0757344
0.411061
-0.0634152
0.417026
-0.0514112
0.421918
-0.0396147
0.425718
-0.0281755
0.428423
-0.0170616
0.430048
-0.00630163
0.430574
0.00434932
0.429969
0.0152678
0.0274426
0.191202
0.220645
-0.358851
0.244881
-0.307283
0.264843
-0.263769
0.281878
-0.231007
0.296575
-0.203466
0.309647
-0.182543
0.321737
-0.166897
0.333145
-0.154657
0.344137
-0.145343
0.354932
-0.138426
0.365623
-0.132946
0.376226
-0.12851
0.386743
-0.124281
0.397138
-0.119264
0.407184
-0.110412
0.416498
-0.09751
0.424876
-0.0841132
0.43224
-0.0707788
0.438546
-0.0577176
0.443752
-0.04482
0.447836
-0.03226
0.450785
-0.0200105
0.452603
-0.00811911
0.453288
0.00366455
0.452774
0.0157813
0.0292807
0.239779
-0.389564
0.264879
-0.332382
0.28545
-0.284341
0.302847
-0.248404
0.317726
-0.218344
0.330857
-0.195674
0.342901
-0.178941
0.354224
-0.165981
0.36515
-0.156269
0.375874
-0.14915
0.386528
-0.143599
0.397158
-0.139141
0.407786
-0.134909
0.41835
-0.129828
0.428626
-0.120689
0.438237
-0.107121
0.446919
-0.0927961
0.454604
-0.0784633
0.461221
-0.0643342
0.466738
-0.0503376
0.471099
-0.0366204
0.47431
-0.0232223
0.476357
-0.010166
0.477187
0.00283519
0.476792
0.0161758
0.0310687
0.259978
0.286076
-0.358481
0.307299
-0.305563
0.325119
-0.266224
0.340242
-0.233467
0.353462
-0.208894
0.365512
-0.190991
0.376768
-0.177237
0.387603
-0.167104
0.398248
-0.159795
0.408858
-0.154209
0.419484
-0.149767
0.430165
-0.14559
0.440875
-0.140537
0.451387
-0.131201
0.461246
-0.116979
0.47021
-0.10176
0.478199
-0.086452
0.485128
-0.0712635
0.490953
-0.056163
0.495615
-0.0412825
0.499086
-0.0266928
0.501333
-0.0124129
0.502358
0.00181012
0.502071
0.0164629
0.0327915
0.308431
-0.385634
0.330397
-0.327529
0.348737
-0.284565
0.364153
-0.248883
0.377512
-0.222254
0.389605
-0.203084
0.400826
-0.188457
0.411584
-0.177862
0.422142
-0.170353
0.432675
-0.164743
0.443286
-0.160378
0.454002
-0.156306
0.464827
-0.151362
0.475513
-0.141887
0.485602
-0.127069
0.494847
-0.111005
0.50312
-0.0947254
0.510361
-0.0785046
0.516475
-0.0622764
0.521426
-0.0462334
0.525157
-0.0304244
0.527652
-0.0149073
0.528845
0.000616751
0.52868
0.0166275
0.0344274
0.332073
0.35487
-0.350326
0.373775
-0.30347
0.389543
-0.26465
0.403098
-0.235809
0.415243
-0.215229
0.426467
-0.199681
0.437145
-0.18854
0.447615
-0.180823
0.458071
-0.175198
0.468636
-0.170943
0.479366
-0.167036
0.490286
-0.162281
0.501137
-0.152738
0.511442
-0.137374
0.520918
-0.120481
0.529454
-0.103262
0.536966
-0.0860163
0.543383
-0.068693
0.548606
-0.0514565
0.552614
-0.0344321
0.555324
-0.0176174
0.556724
-0.000783292
0.556722
0.0166291
0.0359985
0.380712
-0.374039
0.400251
-0.323009
0.416446
-0.280845
0.43024
-0.249603
0.442502
-0.227491
0.453726
-0.210905
0.464362
-0.199176
0.474748
-0.191208
0.485142
-0.185593
0.495634
-0.181436
0.50637
-0.177772
0.517348
-0.173259
0.528339
-0.163729
0.538834
-0.147869
0.548514
-0.130161
0.557313
-0.112061
0.565089
-0.0937928
0.571759
-0.0753629
0.577285
-0.0569822
0.581543
-0.0386901
0.584499
-0.0205737
0.586077
-0.00236125
0.586229
0.0164775
0.0374312
0.408017
-0.398699
0.428282
-0.343274
0.444941
-0.297504
0.459022
-0.263683
0.471445
-0.239914
0.482707
-0.222167
0.493326
-0.209795
0.50365
-0.201532
0.513946
-0.195889
0.524388
-0.191877
0.53508
-0.188464
0.54612
-0.184299
0.557229
-0.174838
0.567869
-0.158509
0.577759
-0.140051
0.58676
-0.121062
0.594779
-0.101812
0.601736
-0.0823195
0.607493
-0.0627389
0.612012
-0.0432087
0.615216
-0.0237783
0.617022
-0.00416674
0.617338
0.0161618
0.0387551
0.436893
0.457923
-0.364304
0.475108
-0.314689
0.489517
-0.278093
0.502127
-0.252524
0.513478
-0.233519
0.52407
-0.220386
0.534351
-0.211814
0.544579
-0.206116
0.554958
-0.202256
0.565635
-0.199141
0.57669
-0.195353
0.587891
-0.18604
0.598687
-0.169305
0.608724
-0.150088
0.617923
-0.13026
0.626174
-0.110064
0.633363
-0.0895081
0.639388
-0.0687645
0.64416
-0.0479805
0.647603
-0.0272212
0.649603
-0.00616703
0.650102
0.0156633
0.0399124
0.489225
-0.386174
0.506992
-0.332457
0.521808
-0.292909
0.534647
-0.265363
0.546107
-0.244979
0.556761
-0.231041
0.567
-0.222052
0.577153
-0.216269
0.587467
-0.21257
0.598097
-0.209771
0.609175
-0.206432
0.620473
-0.197337
0.631362
-0.180193
0.641545
-0.160272
0.650928
-0.139643
0.659375
-0.118511
0.666775
-0.0969088
0.673041
-0.07503
0.678048
-0.0529872
0.681714
-0.0308874
0.683955
-0.00840778
0.684634
0.0149837
0.04092
0.52232
0.540748
-0.350885
0.555962
-0.308123
0.569084
-0.278486
0.580695
-0.256589
0.591386
-0.241732
0.601625
-0.232291
0.611755
-0.226399
0.621994
-0.22281
0.632597
-0.220373
0.643702
-0.217538
0.655022
-0.208657
0.666019
-0.19119
0.676399
-0.170652
0.685796
-0.149039
0.694448
-0.127163
0.702111
-0.104572
0.708553
-0.0814722
0.713782
-0.0582157
0.717756
-0.0348614
0.720202
-0.0108536
0.721052
0.0141339
0.0417433
0.576374
-0.370013
0.592094
-0.323843
0.605532
-0.291924
0.617334
-0.268391
0.628124
-0.252522
0.638365
-0.242533
0.648492
-0.236526
0.658714
-0.233032
0.669216
-0.230875
0.680279
-0.228601
0.691778
-0.220156
0.702811
-0.202223
0.713202
-0.181043
0.722943
-0.158781
0.731633
-0.135853
0.739339
-0.112278
0.746134
-0.0882675
0.751597
-0.0636787
0.755563
-0.0388266
0.758242
-0.013533
0.759471
0.0129049
0.0424127
0.614034
-0.389901
0.630254
-0.340062
0.644131
-0.305801
0.656112
-0.280371
0.667059
-0.263469
0.677338
-0.252812
0.687337
-0.246524
0.697512
-0.243207
0.7081
-0.241463
0.719328
-0.239829
0.730653
-0.23148
0.741883
-0.213454
0.752294
-0.191454
0.762093
-0.16858
0.771009
-0.144768
0.778993
-0.120262
0.785739
-0.0950136
0.791436
-0.0693755
0.795781
-0.043172
0.798607
-0.0163583
0.799876
0.0116353
0.0427198
0.653875
0.67073
-0.356918
0.684842
-0.319913
0.697216
-0.292745
0.708232
-0.274485
0.71862
-0.263201
0.728705
-0.256609
0.738944
-0.253447
0.749509
-0.252027
0.760516
-0.250836
0.772107
-0.243072
0.7833
-0.224646
0.793825
-0.201979
0.803542
-0.178297
0.812539
-0.153765
0.820651
-0.128375
0.827697
-0.102059
0.833484
-0.0751629
0.838076
-0.0477641
0.841171
-0.019453
0.8426
0.0102059
0.0428492
0.7133
-0.37443
0.728026
-0.334639
0.740541
-0.30526
0.751826
-0.28577
0.762252
-0.273627
0.772549
-0.266906
0.782645
-0.263543
0.793063
-0.262445
0.804295
-0.262068
0.815806
-0.254583
0.827081
-0.235921
0.8377
-0.212598
0.847671
-0.188268
0.856728
-0.162822
0.864828
-0.136474
0.871903
-0.109134
0.87801
-0.0812701
0.882713
-0.0524668
0.885949
-0.0226886
0.887791
0.00836328
0.0429066
0.758335
-0.392554
0.773516
-0.349819
0.786494
-0.318238
0.79788
-0.297156
0.808558
-0.284305
0.818741
-0.27709
0.828954
-0.273755
0.839575
-0.273066
0.8507
-0.273193
0.862378
-0.266261
0.873707
-0.247251
0.884296
-0.223186
0.894145
-0.198117
0.90336
-0.172037
0.911664
-0.144778
0.918993
-0.116464
0.92491
-0.0871873
0.929834
-0.0573908
0.933453
-0.0263067
0.935342
0.00647387
0.042509
0.80598
0.82171
-0.365549
0.834972
-0.3315
0.846801
-0.308985
0.857548
-0.295052
0.867884
-0.287426
0.878088
-0.283959
0.888715
-0.283693
0.899966
-0.284444
0.911684
-0.27798
0.922972
-0.258538
0.933748
-0.233963
0.943702
-0.208071
0.952819
-0.181153
0.961063
-0.153022
0.968382
-0.123782
0.974826
-0.0936314
0.979709
-0.0622742
0.983455
-0.0300529
0.985639
0.00429043
0.0420149
0.87246
-0.381775
0.886343
-0.345383
0.898302
-0.320945
0.909245
-0.305995
0.919735
-0.297916
0.930186
-0.29441
0.940829
-0.294336
0.952119
-0.295734
0.963887
-0.289748
0.975343
-0.269994
0.986079
-0.244699
0.996008
-0.218
1.00525
-0.190394
1.01366
-0.161434
1.02107
-0.131191
1.02729
-0.0998486
1.03248
-0.067472
1.03622
-0.0337925
1.0387
0.00181178
0.0411696
0.926269
0.940378
-0.359491
0.952824
-0.333391
0.964093
-0.317264
0.97465
-0.308473
0.985157
-0.304917
0.995824
-0.305004
1.00727
-0.307176
1.01922
-0.301697
1.03073
-0.281507
1.04143
-0.255397
1.05156
-0.228135
1.0608
-0.199627
1.06911
-0.169753
1.07647
-0.13855
1.08293
-0.106309
1.08831
-0.0728454
1.09228
-0.0377663
1.0948
-0.000708666
0.0399674
0.997763
-0.374297
1.01038
-0.346009
1.0219
-0.328787
1.03277
-0.31934
1.04332
-0.315464
1.05427
-0.315955
1.06577
-0.318675
1.07779
-0.313718
1.08953
-0.293246
1.10028
-0.266153
1.11027
-0.238117
1.11948
-0.208844
1.12782
-0.178087
1.13548
-0.146209
1.14192
-0.112755
1.14721
-0.0781323
1.1514
-0.0419583
1.15421
-0.00351642
0.0386544
1.05817
-0.389547
1.07133
-0.35917
1.08311
-0.340562
1.09408
-0.330315
1.10496
-0.326341
1.11599
-0.326983
1.12767
-0.330356
1.1399
-0.325945
1.15158
-0.304927
1.16255
-0.277128
1.1725
-0.248063
1.1817
-0.218042
1.19016
-0.186549
1.19762
-0.153668
1.20415
-0.119288
1.20958
-0.0835652
1.21386
-0.0462361
1.21682
-0.00647951
0.0371088
1.12196
1.13568
-0.37289
1.14774
-0.352617
1.1592
-0.341776
1.17005
-0.337196
1.18127
-0.338204
1.19331
-0.342392
1.20553
-0.338164
1.21743
-0.316829
1.22837
-0.288068
1.23852
-0.258217
1.24782
-0.227341
1.25616
-0.194891
1.26353
-0.161038
1.27014
-0.125899
1.27559
-0.0890077
1.27994
-0.050586
1.28317
-0.00971312
0.0352084
1.20358
-0.386961
1.21604
-0.365079
1.22766
-0.3534
1.23899
-0.348525
1.25045
-0.349658
1.26245
-0.354397
1.27504
-0.350754
1.28707
-0.328854
1.29811
-0.299108
1.30836
-0.268472
1.31752
-0.236499
1.32586
-0.203229
1.3335
-0.168679
1.33993
-0.132332
1.3455
-0.0945704
1.34991
-0.0549976
1.35316
-0.0129607
0.0330855
1.27524
-0.401509
1.28827
-0.37811
1.30029
-0.365419
1.31175
-0.35999
1.32347
-0.361375
1.33573
-0.366662
1.34869
-0.363713
1.36088
-0.341037
1.37203
-0.310263
1.38215
-0.278594
1.39142
-0.245767
1.39988
-0.21169
1.4073
-0.176098
1.41379
-0.138826
1.41947
-0.100241
1.42405
-0.0595823
1.42742
-0.016334
0.0307486
1.35115
1.36455
-0.391502
1.37673
-0.377607
1.38875
-0.372003
1.40072
-0.373352
1.4134
-0.379334
1.42642
-0.376736
1.43885
-0.353468
1.45015
-0.321566
1.46052
-0.28896
1.46979
-0.255035
1.47825
-0.220155
1.48557
-0.183419
1.49224
-0.145497
1.49777
-0.105771
1.50228
-0.0640844
1.50589
-0.0199448
0.0283324
1.4451
-0.405469
1.45788
-0.390396
1.47007
-0.384191
1.48234
-0.385616
1.49532
-0.392322
1.50865
-0.39006
1.5214
-0.366225
1.53297
-0.333136
1.54324
-0.299228
1.55264
-0.264433
1.561
-0.228512
1.56847
-0.19089
1.57495
-0.151978
1.58057
-0.111396
1.58523
-0.0687403
1.58894
-0.0236592
1.5301
-0.419833
1.54335
-0.403646
1.55598
-0.396818
1.56857
-0.39821
1.58201
-0.405758
1.5958
-0.403846
1.60876
-0.379189
1.62039
-0.34477
1.63094
-0.309776
1.64037
-0.273862
1.64875
-0.236894
1.65626
-0.198395
1.66267
-0.158393
1.66827
-0.116992
1.67295
-0.0734201
-0.0273445
1.62002
1.63375
-0.417383
1.64674
-0.409808
1.65982
-0.411284
1.67346
-0.419401
1.68775
-0.418138
1.70105
-0.392491
1.71291
-0.356625
1.72364
-0.320511
1.73312
-0.283336
1.74154
-0.245318
1.74897
-0.205823
1.75557
-0.164992
1.76101
-0.122436
1.76571
-0.0781191
-0.0312363
1.72915
-0.431529
1.74263
-0.423291
1.75628
-0.424938
1.77046
-0.433579
1.7849
-0.432572
1.79871
-0.406308
1.81091
-0.368824
1.82173
-0.331329
1.83139
-0.293
1.83988
-0.2538
1.84736
-0.21331
1.85366
-0.171293
1.85933
-0.128101
1.86404
-0.0828336
-0.0350788
1.82995
-0.446441
1.84407
-0.437417
1.85804
-0.438902
1.87273
-0.448275
1.88783
-0.447675
1.90182
-0.420291
1.9144
-0.381404
1.92546
-0.34239
1.93522
-0.302758
1.94378
-0.262363
1.95122
-0.220747
1.95772
-0.1778
1.96324
-0.133621
1.96797
-0.0875637
-0.0389898
1.9365
1.95106
-0.451969
1.96553
-0.453379
1.98078
-0.463517
1.99649
-0.463385
2.01103
-0.434832
2.02391
-0.394281
2.0351
-0.353585
2.0451
-0.312758
2.05376
-0.271024
2.0613
-0.22828
2.06778
-0.18428
2.07328
-0.139129
2.07803
-0.0923119
-0.0428392
2.06411
-0.467217
2.0793
-0.468568
2.09503
-0.479243
2.1112
-0.479563
2.12636
-0.449992
2.13955
-0.407468
2.15116
-0.365195
2.16118
-0.32278
2.16997
-0.279816
2.17762
-0.235927
2.18409
-0.190749
2.18972
-0.14476
2.19437
-0.0969575
-0.0467469
2.18345
-0.483065
2.19922
-0.484342
2.21581
-0.49583
2.23262
-0.496374
2.24817
-0.465538
2.26185
-0.421148
2.27378
-0.37713
2.2841
-0.333102
2.29305
-0.288762
2.30071
-0.243592
2.30731
-0.19735
2.31271
-0.150155
2.31738
-0.101633
-0.0508389
2.30965
2.32605
-0.500742
2.34318
-0.512956
2.36079
-0.513984
2.37687
-0.481622
2.39106
-0.435333
2.40335
-0.389428
2.41401
-0.343754
2.42313
-0.297889
2.43084
-0.251297
2.43735
-0.203859
2.44302
-0.155826
2.4476
-0.106221
-0.0547437
2.46006
-0.518058
2.47784
-0.530736
2.49619
-0.532332
2.51308
-0.498517
2.52769
-0.449944
2.54039
-0.402121
2.55128
-0.354642
2.56062
-0.307233
2.56839
-0.259071
2.5752
-0.210666
2.58067
-0.161296
2.58543
-0.110981
-0.0585896
2.60134
-0.535913
2.62011
-0.54951
2.6392
-0.551413
2.65673
-0.516054
2.67191
-0.465119
2.68515
-0.415361
2.69643
-0.365929
2.7059
-0.316697
2.71402
-0.267189
2.72066
-0.217305
2.72631
-0.166955
2.73089
-0.115558
-0.0625086
2.75085
-0.554735
2.77035
-0.569009
2.79022
-0.571286
2.80863
-0.53446
2.82458
-0.481071
2.83803
-0.42881
2.84963
-0.377524
2.85949
-0.326562
2.86774
-0.275435
2.87448
-0.224048
2.88023
-0.172703
2.88488
-0.120215
-0.066385
2.90839
2.92906
-0.589679
2.94988
-0.592103
2.96902
-0.553596
2.98547
-0.497519
2.99968
-0.443022
3.01174
-0.389584
3.02179
-0.336615
3.0302
-0.28384
3.03732
-0.231173
3.04293
-0.178315
3.04756
-0.124845
-0.0702331
3.09655
-0.611159
3.11846
-0.614013
3.13844
-0.573582
3.15574
-0.514818
3.17048
-0.457758
3.18292
-0.402025
3.19344
-0.347139
3.20204
-0.292437
3.20908
-0.238211
3.21483
-0.184064
3.2197
-0.129718
-0.0740646
3.27352
-0.633738
3.29637
-0.636861
3.31735
-0.594566
3.33539
-0.532855
3.35083
-0.473197
3.36369
-0.414884
3.37447
-0.357924
3.38354
-0.301507
3.39077
-0.245441
3.39668
-0.189976
3.40133
-0.134361
3.46029
-0.657334
3.48432
-0.660888
3.50625
-0.616501
3.52518
-0.55178
3.54124
-0.489266
3.55481
-0.428448
3.56601
-0.369128
3.57522
-0.310712
3.58267
-0.252896
3.58865
-0.195957
-0.139169
3.65759
3.68284
-0.686135
3.7059
-0.639568
3.72565
-0.571527
3.74237
-0.505984
3.75655
-0.442632
3.76821
-0.380788
3.77771
-0.320211
3.78542
-0.260609
3.79163
-0.20216
-0.143916
3.89248
-0.712815
3.91667
-0.663757
3.93729
-0.59215
3.95495
-0.523646
3.96954
-0.457222
3.98182
-0.393069
3.99165
-0.330039
3.99966
-0.268613
4.00574
-0.208241
-0.148882
4.11354
-0.740542
4.13908
-0.689297
4.16084
-0.613906
4.17913
-0.541934
4.19467
-0.472764
4.20723
-0.405632
4.21756
-0.340361
4.22576
-0.276816
4.23225
-0.214733
-0.153845
4.34723
-0.770012
4.37374
-0.715801
4.39671
-0.636882
4.41603
-0.561247
4.43206
-0.488795
4.44532
-0.418896
4.45605
-0.351087
4.46449
-0.285255
4.47104
-0.22129
-0.158959
4.59361
-0.800902
4.62179
-0.743983
4.64563
-0.660725
4.6659
-0.581511
4.68271
-0.505611
4.69672
-0.4329
4.70776
-0.362133
4.7166
-0.294093
4.72339
-0.228074
-0.164134
4.85372
4.88322
-0.773488
4.90849
-0.68599
4.92976
-0.602781
4.9474
-0.523258
4.96182
-0.447313
4.9736
-0.373917
4.98263
-0.303118
4.9898
-0.235251
-0.169273
5.15931
-0.804514
5.18581
-0.712483
5.20813
-0.6251
5.22678
-0.541911
5.2419
-0.462432
5.25409
-0.386108
5.26359
-0.312623
5.27082
-0.242478
-0.174796
5.45061
-0.837276
5.47848
-0.740352
5.50203
-0.648653
5.52149
-0.561371
5.53749
-0.478432
5.55013
-0.398748
5.56016
-0.322651
5.5676
-0.249923
5.75807
-0.87165
5.78743
-0.769715
5.81213
-0.673355
5.83256
-0.581795
5.84923
-0.495107
5.86262
-0.412135
5.87296
-0.332991
-0.257878
6.08248
-0.907954
6.11333
-0.800569
6.13925
-0.699271
6.16084
-0.603384
6.17836
-0.512629
6.19229
-0.426062
6.20311
-0.343814
-0.266128
6.42481
-0.946135
6.45722
-0.832974
6.48452
-0.726572
6.50718
-0.626043
6.52559
-0.531044
6.54023
-0.440697
6.55157
-0.355159
-0.274592
6.78521
6.81962
-0.867384
6.84871
-0.755663
6.87251
-0.649841
6.89187
-0.550401
6.9065
-0.45533
6.91905
-0.367708
-0.283436
7.20301
-0.903968
7.23223
-0.784879
7.25781
-0.675421
7.27727
-0.569864
7.29436
-0.472417
7.30651
-0.379861
-0.291942
7.60546
-0.940516
7.63835
-0.817764
7.66379
-0.700859
7.68556
-0.591641
7.70237
-0.48922
7.71417
-0.391661
-0.302577
5.52911
-0.947624
5.53772
-0.826376
5.55048
-0.713621
5.56746
-0.608622
5.58616
-0.507919
5.60916
-0.414662
-0.328674
6.08484
-0.952693
6.09515
-0.836685
6.1095
-0.727971
6.12673
-0.625854
6.14815
-0.529336
6.17379
-0.440307
-0.356081
6.6967
-0.958433
6.70758
-0.847558
6.72369
-0.744088
6.74259
-0.644755
6.76687
-0.55361
6.79402
-0.467459
-0.386189
7.37107
-0.965045
7.38398
-0.86047
7.39946
-0.759567
7.42146
-0.666759
7.44748
-0.579624
7.47755
-0.497534
8.11304
-0.974001
8.12563
-0.87306
8.1445
-0.778438
8.16851
-0.690769
8.19643
-0.607544
-0.529416
8.92779
-0.981706
8.94277
-0.888042
8.96268
-0.798345
8.98887
-0.716964
9.02014
-0.638808
-0.565809
9.82657
9.84168
-0.903153
9.86407
-0.82073
9.89262
-0.745523
9.92613
-0.672315
-0.605596
10.8306
-0.91974
10.8543
-0.844471
10.8854
-0.776579
10.9225
-0.709466
-0.648913
11.916
-0.937915
11.9425
-0.870902
11.9748
-0.808868
12.0155
-0.750228
-0.695679
13.1068
-0.958056
13.1351
-0.899153
13.1729
-0.846716
13.2166
-0.7939
-0.747782
14.4137
-0.978491
14.4446
-0.930058
14.4824
-0.88447
14.5309
-0.842431
-0.803391
15.87
-1.00388
15.907
-0.966976
15.9531
-0.930585
16.0097
-0.899041
-0.867959
17.4905
17.5255
17.5737
17.6313
)
;

boundaryField
{
    inlet
    {
        type            calculated;
        value           nonuniform List<scalar> 5(-1.02866 -1.00206 -0.97875 -0.95663 -0.936419);
    }
    outlet
    {
        type            calculated;
        value           nonuniform List<scalar> 0();
    }
    walls
    {
        type            calculated;
        value           uniform 0;
    }
    frontAndBack
    {
        type            empty;
        value           nonuniform List<scalar> 0();
    }
    procBoundary1to0
    {
        type            processor;
        value           nonuniform List<scalar> 
94
(
-0.287834
0.0519627
-0.337634
0.0046158
-0.390842
-0.047958
-0.42109
-0.102964
-0.419051
-0.156818
-0.406667
-0.209066
-0.227935
-0.421606
-0.281279
-0.303755
-0.413952
-0.356999
-0.383357
-0.411137
-0.424455
-0.467355
-0.499507
-0.408988
-0.557246
-0.594146
-0.633144
-0.410631
-0.695788
-0.740212
-0.787105
-0.411429
-0.856234
-0.909323
-0.398721
-0.982958
-1.04292
-1.10619
-0.405317
-1.18951
-1.26069
-1.33587
-0.416798
-1.43113
-1.51574
-1.60499
-0.434857
-1.715
-1.81504
-1.92099
-0.46195
-2.04886
-2.1676
-2.29307
-0.499644
-2.44274
-2.58349
-2.73203
-2.88872
-0.574411
-3.07507
-3.25094
-3.43669
-3.63267
-0.682252
-3.8658
-4.08582
-4.31776
-4.56272
-4.82135
-0.833266
-5.12829
-5.41785
-5.72369
-6.04617
-6.38663
-6.746
-0.985346
-7.16643
-7.56891
-5.522
-6.07977
-6.69096
-7.36446
-8.10409
-8.92008
-9.81737
-0.990902
-10.814
-11.8979
-13.0867
-14.3933
-15.8447
-17.4657
)
;
    }
    procBoundary1to2
    {
        type            processor;
        value           nonuniform List<scalar> 
84
(
0.206437
0.232766
0.25174
0.268365
0.282069
0.297485
0.313226
0.330046
0.347662
0.366253
0.385811
0.406408
0.428099
0.450936
0.475004
0.500348
0.527045
0.555151
0.584796
0.616014
0.648945
0.683627
0.720228
0.758802
0.799569
0.842471
0.887734
0.93574
0.986133
1.03955
1.096
1.15552
1.21837
1.28507
1.35528
1.42976
1.5083
1.59155
0.0257234
1.67663
1.7696
1.86788
1.97189
2.08188
2.19828
2.32148
2.45151
2.58928
2.73481
2.88876
3.05141
3.22353
3.40516
-0.0778983
3.59346
3.79637
4.0107
4.23721
4.47616
4.72856
4.99494
5.27634
5.57329
-0.180482
5.88091
6.21136
6.56003
6.92789
7.31501
7.7248
5.63526
6.2012
6.82413
7.51177
-0.420407
8.22832
9.05653
9.96592
10.9658
12.0623
13.2687
14.5865
16.0743
17.6998
)
;
    }
    procBoundary1to5
    {
        type            processor;
        value           nonuniform List<scalar> 
13
(
0.02195
0.0343796
0.0478568
0.0393924
0.0995618
0.0627563
0.0542904
0.158996
0.0787918
0.071846
0.0650528
0.251538
0.0948256
)
;
    }
}


// ************************************************************************* //
