/*--------------------------------*- C++ -*----------------------------------*\
| =========                 |                                                 |
| \\      /  F ield         | OpenFOAM: The Open Source CFD Toolbox           |
|  \\    /   O peration     | Version:  2306                                  |
|   \\  /    A nd           | Website:  www.openfoam.com                      |
|    \\/     M anipulation  |                                                 |
\*---------------------------------------------------------------------------*/
FoamFile
{
    version     2.0;
    format      ascii;
    arch        "LSB;label=32;scalar=64";
    class       volScalarField;
    location    "325";
    object      magR;
}
// * * * * * * * * * * * * * * * * * * * * * * * * * * * * * * * * * * * * * //

dimensions      [0 2 -2 0 0 0 0];

internalField   nonuniform List<scalar> 
1340
(
59.2308
56.619
53.5774
43.8841
1.78068
1.96119
2.36369
3.28775
0.383848
0.528923
0.633093
1.0806
0.0142188
0.046653
0.117913
0.429239
0.00318418
0.00116453
0.00365503
0.0831975
5.38079e-07
0.00019507
0.000839292
0.00953122
1.60141e-05
1.5447e-06
0
0.00205223
2.27229e-05
1.608e-05
1.85826e-06
0
2.84411e-05
3.05136e-05
3.29218e-05
1.379e-06
2.39844e-05
2.36372e-05
4.00108e-05
1.88539e-05
2.42459e-05
2.41345e-05
3.43248e-05
4.31113e-05
2.24891e-05
2.27396e-05
2.92498e-05
4.68853e-05
2.16314e-05
2.19401e-05
2.69119e-05
4.2949e-05
2.04271e-05
2.06101e-05
2.49135e-05
3.86072e-05
1.93439e-05
1.94131e-05
2.30486e-05
3.4814e-05
1.81823e-05
1.81469e-05
2.11941e-05
3.1383e-05
1.70253e-05
1.68943e-05
1.94201e-05
2.82051e-05
1.58488e-05
1.56294e-05
1.77213e-05
2.52586e-05
1.46691e-05
1.43685e-05
1.60969e-05
2.25351e-05
1.34894e-05
1.31146e-05
1.45507e-05
2.00397e-05
1.23171e-05
1.18754e-05
1.30779e-05
1.77564e-05
1.11585e-05
1.06589e-05
1.16806e-05
1.5678e-05
1.00209e-05
9.47049e-06
1.03593e-05
1.3797e-05
8.91225e-06
8.3184e-06
9.11247e-06
1.2098e-05
7.83936e-06
7.20785e-06
7.94398e-06
1.05742e-05
6.81014e-06
6.14499e-06
6.85456e-06
9.21284e-06
5.83259e-06
5.13527e-06
5.84741e-06
8.00545e-06
4.91522e-06
4.18284e-06
4.92556e-06
6.94222e-06
4.06769e-06
3.29177e-06
4.09468e-06
6.01562e-06
3.30258e-06
2.46537e-06
3.36243e-06
5.2194e-06
2.6373e-06
1.70493e-06
2.74085e-06
4.54751e-06
2.09883e-06
1.01291e-06
2.24698e-06
3.99498e-06
1.72582e-06
3.92269e-07
1.9024e-06
3.55587e-06
1.55388e-06
1.88333e-07
1.72161e-06
3.22222e-06
1.57381e-06
6.67944e-07
1.69122e-06
2.98244e-06
1.71997e-06
1.09284e-06
1.76717e-06
2.82154e-06
1.91946e-06
1.4566e-06
1.8979e-06
2.72187e-06
2.12446e-06
1.76175e-06
2.04452e-06
2.6654e-06
2.92165e-06
2.3101e-06
2.01151e-06
2.18377e-06
2.63591e-06
2.96573e-06
2.46492e-06
2.20971e-06
2.30337e-06
2.62017e-06
2.99878e-06
2.58452e-06
2.36055e-06
2.39774e-06
2.60845e-06
3.01443e-06
2.66839e-06
2.46829e-06
2.46498e-06
2.59393e-06
3.00967e-06
2.71814e-06
2.53743e-06
2.50554e-06
2.57246e-06
2.98387e-06
2.73649e-06
2.57234e-06
2.52095e-06
2.54167e-06
2.93796e-06
2.72685e-06
2.57744e-06
2.51339e-06
2.50044e-06
2.87381e-06
2.69291e-06
2.55704e-06
2.48566e-06
2.44892e-06
2.79383e-06
2.63836e-06
2.51507e-06
2.44038e-06
2.38763e-06
2.70072e-06
2.56688e-06
2.45537e-06
2.38033e-06
2.31751e-06
2.59706e-06
2.48175e-06
2.38136e-06
2.30817e-06
2.23989e-06
2.48532e-06
2.38594e-06
2.29593e-06
2.22616e-06
2.15587e-06
2.36759e-06
2.28203e-06
2.20173e-06
2.13638e-06
2.06667e-06
2.24557e-06
2.17199e-06
2.10075e-06
2.0405e-06
1.97324e-06
2.18482e-06
2.12064e-06
2.0575e-06
1.99467e-06
1.93987e-06
1.87637e-06
2.04802e-06
1.99395e-06
1.93993e-06
1.88486e-06
1.83566e-06
1.7768e-06
1.91217e-06
1.86671e-06
1.82065e-06
1.7727e-06
1.72908e-06
1.67529e-06
1.77847e-06
1.74034e-06
1.70125e-06
1.65976e-06
1.62153e-06
1.57298e-06
1.64851e-06
1.61661e-06
1.58357e-06
1.54789e-06
1.51475e-06
1.47133e-06
1.52399e-06
1.49738e-06
1.46956e-06
1.43901e-06
1.41053e-06
1.37195e-06
1.40621e-06
1.38404e-06
1.36066e-06
1.3346e-06
1.3103e-06
1.27626e-06
1.2954e-06
1.27693e-06
1.25732e-06
1.23518e-06
1.21458e-06
1.18478e-06
1.19065e-06
1.17527e-06
1.15887e-06
1.14016e-06
1.12284e-06
1.09704e-06
1.1023e-06
1.09033e-06
1.07753e-06
1.06388e-06
1.0482e-06
1.03386e-06
1.01182e-06
1.00322e-06
9.93254e-07
9.82642e-07
9.71375e-07
9.58414e-07
9.46784e-07
9.28259e-07
9.07502e-07
8.99194e-07
8.90445e-07
8.81246e-07
8.70677e-07
8.61523e-07
8.46165e-07
8.16217e-07
8.09307e-07
8.02145e-07
7.94721e-07
7.86222e-07
7.79293e-07
7.66687e-07
7.30652e-07
7.24903e-07
7.19056e-07
7.13125e-07
7.06363e-07
7.013e-07
6.90933e-07
6.53168e-07
6.48332e-07
6.43542e-07
6.38873e-07
6.33641e-07
6.30212e-07
6.22006e-07
5.88823e-07
5.84493e-07
5.80324e-07
5.76419e-07
5.72147e-07
5.69805e-07
5.63427e-07
5.37052e-07
5.32935e-07
5.29051e-07
5.25477e-07
5.21636e-07
5.1979e-07
5.14404e-07
4.90481e-07
4.8645e-07
4.82677e-07
4.79256e-07
4.75667e-07
4.74076e-07
4.69437e-07
4.45564e-07
4.41646e-07
4.37979e-07
4.34723e-07
4.3137e-07
4.29961e-07
4.25937e-07
4.05341e-07
4.00781e-07
3.96648e-07
3.9291e-07
3.89742e-07
3.8675e-07
3.85978e-07
3.8418e-07
3.60381e-07
3.54922e-07
3.49801e-07
3.45076e-07
3.40898e-07
3.36967e-07
3.34361e-07
3.30129e-07
3.03738e-07
2.97958e-07
2.92968e-07
2.88824e-07
2.85795e-07
2.83944e-07
2.86415e-07
2.9219e-07
2.25038e-07
2.13841e-07
2.03614e-07
1.946e-07
1.86872e-07
1.80385e-07
1.75138e-07
1.67329e-07
1.80029e-07
1.76759e-07
1.75823e-07
1.77445e-07
1.82754e-07
1.923e-07
2.15061e-07
2.48589e-07
2.00606e-07
1.99527e-07
1.982e-07
1.96341e-07
1.94855e-07
2.0051e-07
2.35984e-07
2.74433e-07
5.40516e-07
5.60684e-07
5.78237e-07
5.94431e-07
6.13115e-07
6.40631e-07
7.08568e-07
7.65269e-07
1.01501e-06
1.01819e-06
1.02047e-06
1.02196e-06
1.02289e-06
1.02597e-06
1.04611e-06
9.96747e-07
1.94004e-06
1.94074e-06
1.9397e-06
1.93761e-06
1.9331e-06
1.93044e-06
1.91407e-06
1.77578e-06
12.8616
3.47207
0.920231
0.284577
0.049589
0.00301292
0.000596625
0
1.66433e-06
2.83546e-05
4.93316e-05
4.94238e-05
4.48279e-05
4.0499e-05
3.67302e-05
3.32926e-05
3.00864e-05
2.71055e-05
2.43528e-05
2.18167e-05
1.94931e-05
1.73734e-05
1.54483e-05
1.3709e-05
1.21438e-05
1.07437e-05
9.49811e-06
8.39675e-06
7.42988e-06
6.58796e-06
5.86178e-06
5.24227e-06
4.71994e-06
4.28563e-06
3.92952e-06
3.6412e-06
3.41013e-06
3.22566e-06
3.07759e-06
2.95671e-06
2.85498e-06
2.76569e-06
2.68376e-06
2.60523e-06
2.52733e-06
2.44834e-06
2.3672e-06
2.28337e-06
2.19691e-06
2.10782e-06
2.01646e-06
1.92304e-06
1.82777e-06
1.73094e-06
1.63296e-06
1.53464e-06
1.43718e-06
1.34199e-06
1.25028e-06
1.16247e-06
1.07808e-06
9.95952e-07
9.15277e-07
8.35913e-07
7.58991e-07
6.85423e-07
6.18548e-07
5.61482e-07
5.1358e-07
4.69428e-07
4.26375e-07
3.85894e-07
3.30502e-07
2.98773e-07
1.64206e-07
2.71163e-07
2.49798e-07
7.51975e-07
8.81413e-07
1.57799e-06
7.73771
2.50281
0.474512
0.0742305
0.00740523
1.36938e-06
7.40045e-08
1.59874e-07
3.0415e-06
2.35362e-05
2.88788e-05
2.80537e-05
2.63467e-05
2.48348e-05
2.34503e-05
2.20875e-05
2.07266e-05
1.93686e-05
1.80338e-05
1.67264e-05
1.54574e-05
1.42332e-05
1.30605e-05
1.19505e-05
1.09054e-05
9.92896e-06
9.02532e-06
8.19606e-06
7.44049e-06
6.75821e-06
6.14713e-06
5.60448e-06
5.12649e-06
4.70883e-06
4.34692e-06
4.03489e-06
3.7674e-06
3.53842e-06
3.34194e-06
3.17239e-06
3.02442e-06
2.89308e-06
2.77445e-06
2.66487e-06
2.56158e-06
2.46244e-06
2.36585e-06
2.27069e-06
2.17625e-06
2.08198e-06
1.98763e-06
1.89294e-06
1.79769e-06
1.70184e-06
1.60557e-06
1.50948e-06
1.41455e-06
1.32207e-06
1.23299e-06
1.14764e-06
1.06546e-06
9.85304e-07
9.0644e-07
8.28818e-07
7.53595e-07
6.8156e-07
6.15921e-07
5.5956e-07
5.12321e-07
4.68875e-07
4.26212e-07
3.86164e-07
3.30689e-07
3.00498e-07
1.62681e-07
2.84485e-07
2.18803e-07
7.55131e-07
8.74214e-07
1.61507e-06
4.88113
1.57951
0.213345
0.0137812
0.000525251
0.000109867
0
4.61283e-07
7.91098e-06
1.7647e-05
1.73665e-05
1.64664e-05
1.55575e-05
1.48102e-05
1.4126e-05
1.34622e-05
1.28196e-05
1.21935e-05
1.15813e-05
1.09915e-05
1.04173e-05
9.85978e-06
9.31551e-06
8.78918e-06
8.27907e-06
7.7837e-06
7.30579e-06
6.84725e-06
6.40825e-06
5.99124e-06
5.59763e-06
5.2288e-06
4.88594e-06
4.56958e-06
4.27996e-06
4.01626e-06
3.77772e-06
3.56261e-06
3.36898e-06
3.19449e-06
3.03681e-06
2.89328e-06
2.76166e-06
2.63962e-06
2.52519e-06
2.41677e-06
2.31288e-06
2.2125e-06
2.11474e-06
2.01888e-06
1.92442e-06
1.83084e-06
1.73773e-06
1.64478e-06
1.55205e-06
1.45994e-06
1.36927e-06
1.28113e-06
1.19632e-06
1.11498e-06
1.0365e-06
9.59757e-07
8.84082e-07
8.095e-07
7.3719e-07
6.67853e-07
6.04478e-07
5.49834e-07
5.04211e-07
4.62458e-07
4.21079e-07
3.82204e-07
3.27891e-07
2.9869e-07
1.64787e-07
2.90029e-07
2.04243e-07
7.48968e-07
8.56668e-07
1.61903e-06
2.94043
0.791582
0.057296
0.000556191
0.000124962
0
8.33166e-08
1.45837e-06
9.90943e-06
1.23162e-05
1.14333e-05
1.10049e-05
1.05825e-05
1.02256e-05
9.86625e-06
9.5011e-06
9.14082e-06
8.78356e-06
8.43106e-06
8.09011e-06
7.75582e-06
7.43296e-06
7.11916e-06
6.81416e-06
6.51899e-06
6.23216e-06
5.9528e-06
5.68134e-06
5.41713e-06
5.16042e-06
4.91134e-06
4.67017e-06
4.43795e-06
4.21494e-06
4.00194e-06
3.79971e-06
3.60847e-06
3.42849e-06
3.25976e-06
3.10179e-06
2.95417e-06
2.81613e-06
2.6866e-06
2.56472e-06
2.4495e-06
2.33999e-06
2.23523e-06
2.13457e-06
2.03724e-06
1.94263e-06
1.85022e-06
1.75937e-06
1.66962e-06
1.58059e-06
1.49216e-06
1.40468e-06
1.31882e-06
1.23549e-06
1.15535e-06
1.07842e-06
1.00401e-06
9.31062e-07
8.58966e-07
7.87783e-07
7.18723e-07
6.52408e-07
5.9166e-07
5.392e-07
4.95531e-07
4.55652e-07
4.15772e-07
3.78321e-07
3.25528e-07
2.97421e-07
1.69688e-07
2.94028e-07
1.97638e-07
7.41372e-07
8.34607e-07
1.60694e-06
1.45429
0.251581
0.00366757
0.000382268
0
1.66313e-08
3.12234e-07
5.30041e-06
9.16723e-06
8.95569e-06
8.46745e-06
8.32445e-06
8.16601e-06
8.0277e-06
7.87061e-06
7.70239e-06
7.52342e-06
7.33117e-06
7.13031e-06
6.92087e-06
6.70277e-06
6.47929e-06
6.25349e-06
6.02402e-06
5.79447e-06
5.56784e-06
5.3429e-06
5.12238e-06
4.90715e-06
4.69757e-06
4.49428e-06
4.29728e-06
4.10743e-06
3.92418e-06
3.74779e-06
3.57875e-06
3.4165e-06
3.26143e-06
3.11335e-06
2.97207e-06
2.83769e-06
2.70976e-06
2.58781e-06
2.47171e-06
2.36089e-06
2.25487e-06
2.15316e-06
2.05534e-06
1.96091e-06
1.86937e-06
1.78029e-06
1.69303e-06
1.60716e-06
1.52229e-06
1.43823e-06
1.35528e-06
1.27404e-06
1.19525e-06
1.11946e-06
1.04659e-06
9.75931e-07
9.06472e-07
8.37688e-07
7.6967e-07
7.03649e-07
6.40159e-07
5.81857e-07
5.31422e-07
4.89532e-07
4.51261e-07
4.12684e-07
3.76483e-07
3.25086e-07
2.98189e-07
1.76395e-07
3.00411e-07
1.9285e-07
7.41669e-07
8.23048e-07
1.60534e-06
0.488494
0.0337894
0.00128435
0
2.39935e-11
4.49227e-10
3.07508e-06
6.98518e-06
7.56729e-06
7.01711e-06
6.84284e-06
6.78194e-06
6.69787e-06
6.61431e-06
6.5157e-06
6.41083e-06
6.29522e-06
6.17031e-06
6.0397e-06
5.9014e-06
5.75682e-06
5.6063e-06
5.45203e-06
5.29253e-06
5.1298e-06
4.96538e-06
4.79795e-06
4.6302e-06
4.46247e-06
4.29546e-06
4.13031e-06
3.96744e-06
3.8082e-06
3.65259e-06
3.50123e-06
3.35486e-06
3.21313e-06
3.07666e-06
2.94516e-06
2.81865e-06
2.69731e-06
2.58065e-06
2.46852e-06
2.36096e-06
2.25746e-06
2.15792e-06
2.062e-06
1.96945e-06
1.87997e-06
1.79317e-06
1.70871e-06
1.62604e-06
1.54479e-06
1.46458e-06
1.38524e-06
1.30703e-06
1.2305e-06
1.1563e-06
1.08483e-06
1.01597e-06
9.49001e-07
8.82989e-07
8.17477e-07
7.5262e-07
6.89637e-07
6.28961e-07
5.7306e-07
5.24607e-07
4.84472e-07
4.47749e-07
4.10457e-07
3.75474e-07
3.25492e-07
2.99963e-07
1.84029e-07
3.08166e-07
1.87224e-07
7.44978e-07
0.0704597
0.000141323
6.04743e-05
0
9.92905e-08
1.71733e-06
5.09843e-06
5.88998e-06
5.55569e-06
5.32811e-06
5.32479e-06
5.31341e-06
5.28735e-06
5.2558e-06
5.21282e-06
5.1641e-06
5.10528e-06
5.03764e-06
4.96375e-06
4.88224e-06
4.79453e-06
4.70057e-06
4.60068e-06
4.49633e-06
4.38841e-06
4.27636e-06
4.16097e-06
4.044e-06
3.92478e-06
3.80428e-06
3.6831e-06
3.56137e-06
3.44005e-06
3.31939e-06
3.1998e-06
3.08188e-06
2.9658e-06
2.85222e-06
2.74103e-06
2.63265e-06
2.52732e-06
2.42479e-06
2.32537e-06
2.22898e-06
2.13541e-06
2.04483e-06
1.95696e-06
1.87174e-06
1.78901e-06
1.7085e-06
1.62998e-06
1.55301e-06
1.47727e-06
1.40244e-06
1.32842e-06
1.25544e-06
1.18399e-06
1.11468e-06
1.04778e-06
9.83153e-07
9.20085e-07
8.57731e-07
7.95698e-07
7.34212e-07
6.74475e-07
6.1679e-07
5.63444e-07
5.17138e-07
4.7892e-07
4.43861e-07
4.08e-07
3.74362e-07
3.25981e-07
3.0205e-07
1.92294e-07
3.16028e-07
0.000729337
0.000287795
0
4.65682e-08
8.53527e-07
3.86016e-06
4.62436e-06
4.38463e-06
4.18504e-06
4.17084e-06
4.20398e-06
4.2113e-06
4.21207e-06
4.20624e-06
4.19235e-06
4.17248e-06
4.14493e-06
4.11057e-06
4.07045e-06
4.02402e-06
3.97211e-06
3.91503e-06
3.85247e-06
3.7858e-06
3.71565e-06
3.64119e-06
3.56357e-06
3.4836e-06
3.40083e-06
3.31612e-06
3.22974e-06
3.14172e-06
3.05278e-06
2.96305e-06
2.87271e-06
2.78224e-06
2.69176e-06
2.60172e-06
2.51219e-06
2.42351e-06
2.33596e-06
2.24955e-06
2.16463e-06
2.08123e-06
1.9994e-06
1.91942e-06
1.84112e-06
1.76466e-06
1.68993e-06
1.61684e-06
1.54523e-06
1.4748e-06
1.40528e-06
1.33643e-06
1.26822e-06
1.20088e-06
1.13486e-06
1.07068e-06
1.00859e-06
9.48379e-07
8.89398e-07
8.30887e-07
7.72539e-07
7.1461e-07
6.58306e-07
6.03778e-07
5.53151e-07
5.09179e-07
4.73015e-07
4.3972e-07
4.05424e-07
3.73242e-07
3.26675e-07
3.04526e-07
0.000324486
0
1.46317e-08
2.58437e-07
3.13608e-06
3.7417e-06
3.54483e-06
3.37588e-06
3.36419e-06
3.41035e-06
3.442e-06
3.46028e-06
3.47418e-06
3.48129e-06
3.48209e-06
3.47666e-06
3.46481e-06
3.44748e-06
3.42463e-06
3.39631e-06
3.36296e-06
3.32522e-06
3.28345e-06
3.23735e-06
3.18813e-06
3.13581e-06
3.08046e-06
3.02263e-06
2.96248e-06
2.90042e-06
2.8364e-06
2.77068e-06
2.7039e-06
2.63564e-06
2.56638e-06
2.49646e-06
2.42574e-06
2.35462e-06
2.28319e-06
2.21158e-06
2.14002e-06
2.06869e-06
1.99765e-06
1.92712e-06
1.85721e-06
1.78816e-06
1.71993e-06
1.65274e-06
1.58659e-06
1.52147e-06
1.45731e-06
1.39386e-06
1.33099e-06
1.2685e-06
1.2064e-06
1.14493e-06
1.08452e-06
1.02562e-06
9.68426e-07
9.12742e-07
8.57948e-07
8.03388e-07
7.48844e-07
6.94595e-07
6.41836e-07
5.90565e-07
5.42763e-07
5.01249e-07
4.67205e-07
4.3571e-07
4.03064e-07
0
2.83388e-10
6.06299e-09
2.17559e-06
3.17582e-06
2.84856e-06
2.73847e-06
2.73131e-06
2.78138e-06
2.82575e-06
2.85559e-06
2.88038e-06
2.90067e-06
2.91494e-06
2.924e-06
2.92818e-06
2.92673e-06
2.92021e-06
2.909e-06
2.89308e-06
2.8728e-06
2.84846e-06
2.82055e-06
2.78893e-06
2.75438e-06
2.71711e-06
2.67698e-06
2.63464e-06
2.59022e-06
2.544e-06
2.49576e-06
2.44601e-06
2.39513e-06
2.34255e-06
2.28895e-06
2.23438e-06
2.17875e-06
2.1224e-06
2.06529e-06
2.00759e-06
1.94944e-06
1.8909e-06
1.83214e-06
1.77325e-06
1.71434e-06
1.65564e-06
1.59715e-06
1.53909e-06
1.4815e-06
1.42442e-06
1.36782e-06
1.31154e-06
1.25549e-06
1.19951e-06
1.14366e-06
1.08818e-06
1.03346e-06
9.79908e-07
9.27669e-07
8.76557e-07
8.26016e-07
7.75492e-07
7.24837e-07
6.74368e-07
6.25237e-07
5.77296e-07
0
7.68785e-08
1.58999e-06
2.62161e-06
2.33706e-06
2.20552e-06
2.23055e-06
2.2756e-06
2.32372e-06
2.3588e-06
2.3882e-06
2.41429e-06
2.43577e-06
2.45285e-06
2.46525e-06
2.47366e-06
2.4776e-06
2.47701e-06
2.4727e-06
2.46454e-06
2.45286e-06
2.43774e-06
2.41957e-06
2.3985e-06
2.37494e-06
2.34896e-06
2.32059e-06
2.29036e-06
2.25825e-06
2.22445e-06
2.18893e-06
2.15194e-06
2.11371e-06
2.07399e-06
2.03313e-06
1.99115e-06
1.94803e-06
1.904e-06
1.85896e-06
1.81307e-06
1.76644e-06
1.71906e-06
1.67109e-06
1.62258e-06
1.57364e-06
1.52446e-06
1.47505e-06
1.42563e-06
1.37625e-06
1.32696e-06
1.27778e-06
1.22859e-06
1.17932e-06
1.12986e-06
1.08029e-06
1.0308e-06
9.81786e-07
9.33579e-07
8.86305e-07
8.39791e-07
7.9355e-07
6.23834e-08
1.02925e-06
2.1327e-06
1.91826e-06
1.79917e-06
1.83114e-06
1.8816e-06
1.92484e-06
1.96165e-06
1.992e-06
2.01972e-06
2.04418e-06
2.06474e-06
2.08185e-06
2.09482e-06
2.10447e-06
2.11053e-06
2.11277e-06
2.11204e-06
2.10809e-06
2.10129e-06
2.09165e-06
2.07965e-06
2.06528e-06
2.04887e-06
2.03058e-06
2.01037e-06
1.98869e-06
1.96546e-06
1.94084e-06
1.91481e-06
1.88759e-06
1.8592e-06
1.82952e-06
1.79883e-06
1.76703e-06
1.73413e-06
1.70029e-06
1.66536e-06
1.62947e-06
1.59271e-06
1.55501e-06
1.51646e-06
1.47715e-06
1.43714e-06
1.39656e-06
1.35546e-06
1.31403e-06
1.27233e-06
1.23041e-06
1.18833e-06
1.14597e-06
1.10329e-06
1.0602e-06
1.03527e-06
1.54483e-06
1.62542e-06
1.47613e-06
1.52245e-06
1.56994e-06
1.60973e-06
1.64326e-06
1.6731e-06
1.6998e-06
1.72474e-06
1.74636e-06
1.76477e-06
1.78042e-06
1.79277e-06
1.80232e-06
1.80883e-06
1.81242e-06
1.81347e-06
1.81196e-06
1.80811e-06
1.8021e-06
1.79399e-06
1.7841e-06
1.77263e-06
1.75948e-06
1.74498e-06
1.72923e-06
1.71228e-06
1.69419e-06
1.675e-06
1.6549e-06
1.63375e-06
1.6116e-06
1.58863e-06
1.56462e-06
1.53973e-06
1.5139e-06
1.48707e-06
1.45937e-06
1.4307e-06
1.40107e-06
)
;

boundaryField
{
    inlet
    {
        type            calculated;
        value           nonuniform List<scalar> 
13
(
6.56545e-06
6.65334e-06
6.73054e-06
6.79987e-06
6.86672e-06
6.93505e-06
7.02375e-06
7.05076e-06
6.98853e-06
6.95215e-06
6.9003e-06
6.85486e-06
6.81813e-06
)
;
    }
    outlet
    {
        type            calculated;
        value           nonuniform List<scalar> 0();
    }
    walls
    {
        type            calculated;
        value           nonuniform List<scalar> 4(1.01143 0.960018 0.889588 0.707828);
    }
    frontAndBack
    {
        type            empty;
    }
    procBoundary2to1
    {
        type            processor;
        value           nonuniform List<scalar> 
84
(
61.0161
1.60998
0.250378
0.00264659
0.00160876
1.83772e-08
3.51604e-05
2.59968e-05
2.8176e-05
2.45746e-05
2.45512e-05
2.31753e-05
2.23658e-05
2.12856e-05
2.02725e-05
1.91999e-05
1.81195e-05
1.70172e-05
1.59036e-05
1.4784e-05
1.36643e-05
1.25515e-05
1.14537e-05
1.03796e-05
9.33791e-06
8.33783e-06
7.38936e-06
6.50303e-06
5.68956e-06
4.96102e-06
4.32951e-06
3.80643e-06
3.40093e-06
3.11551e-06
2.94259e-06
2.86294e-06
2.85032e-06
2.87757e-06
2.87757e-06
3.66377e-06
3.58604e-06
3.51606e-06
3.44574e-06
3.36972e-06
3.28499e-06
3.19029e-06
3.08564e-06
2.972e-06
2.85078e-06
2.72358e-06
2.59208e-06
2.4577e-06
2.32164e-06
2.32164e-06
2.24886e-06
2.10139e-06
1.95659e-06
1.81538e-06
1.67911e-06
1.54931e-06
1.42714e-06
1.31272e-06
1.20502e-06
1.20502e-06
1.11365e-06
1.01275e-06
9.15535e-07
8.23016e-07
7.36445e-07
6.58148e-07
5.93355e-07
5.4143e-07
4.94799e-07
4.49791e-07
4.49791e-07
4.10248e-07
3.66091e-07
3.10258e-07
2.36921e-07
1.85492e-07
2.02073e-07
5.17578e-07
1.01038e-06
1.93681e-06
)
;
    }
    procBoundary2to3
    {
        type            processor;
        value           nonuniform List<scalar> 
88
(
8.17122e-07
1.60835e-06
1.82071e-07
8.17122e-07
7.48126e-07
2.0131e-07
1.82071e-07
3.23704e-07
3.72387e-07
3.27822e-07
2.0131e-07
3.07559e-07
5.32406e-07
4.93438e-07
4.61556e-07
4.31881e-07
3.72387e-07
4.00952e-07
7.47127e-07
7.00447e-07
6.53841e-07
6.08416e-07
5.32406e-07
5.63871e-07
1.01677e-06
9.73193e-07
9.29792e-07
8.86863e-07
8.44505e-07
8.02573e-07
7.47127e-07
7.60649e-07
1.37051e-06
1.33911e-06
1.30685e-06
1.27382e-06
1.24016e-06
1.20593e-06
1.17123e-06
1.13613e-06
1.10066e-06
1.06475e-06
1.02832e-06
1.01677e-06
9.91329e-07
1.39943e-06
1.23598e-06
1.26659e-06
1.26798e-06
1.32587e-06
1.35676e-06
1.38721e-06
1.41378e-06
1.4389e-06
1.46199e-06
1.48295e-06
1.50124e-06
1.51695e-06
1.53064e-06
1.54155e-06
1.55005e-06
1.55623e-06
1.56018e-06
1.56205e-06
1.56189e-06
1.55982e-06
1.55607e-06
1.55077e-06
1.544e-06
1.5359e-06
1.52661e-06
1.51629e-06
1.50488e-06
1.49259e-06
1.47939e-06
1.46535e-06
1.45054e-06
1.43491e-06
1.41855e-06
1.40141e-06
1.38346e-06
1.36479e-06
1.34525e-06
1.32486e-06
1.30368e-06
1.28158e-06
1.37051e-06
1.25859e-06
)
;
    }
    procBoundary2to6
    {
        type            processor;
        value           nonuniform List<scalar> 
13
(
18.6602
13.5032
8.79053
5.76509
3.50023
1.74694
0.578397
0.0768569
0.000663813
0.00016414
0
4.81258e-15
5.60595e-11
)
;
    }
}


// ************************************************************************* //
