/*--------------------------------*- C++ -*----------------------------------*\
| =========                 |                                                 |
| \\      /  F ield         | OpenFOAM: The Open Source CFD Toolbox           |
|  \\    /   O peration     | Version:  2306                                  |
|   \\  /    A nd           | Website:  www.openfoam.com                      |
|    \\/     M anipulation  |                                                 |
\*---------------------------------------------------------------------------*/
FoamFile
{
    version     2.0;
    format      ascii;
    arch        "LSB;label=32;scalar=64";
    class       volScalarField;
    location    "325";
    object      turbulenceProperties:nut;
}
// * * * * * * * * * * * * * * * * * * * * * * * * * * * * * * * * * * * * * //

dimensions      [0 2 -1 0 0 0 0];

internalField   nonuniform List<scalar> 
1340
(
0.106574
0.104429
0.101994
0.0924607
0.0699933
0.0717251
0.0752971
0.0784581
0.0395997
0.0470001
0.0536699
0.0631624
0.00692087
0.0131115
0.021833
0.0392193
0.00164892
0.000736364
0.0016446
0.0136903
3.08248e-09
0.000163723
0.000430513
0.00239689
1.16883e-06
1.09865e-08
0
0.000572743
5.58515e-06
2.99919e-06
1.86764e-08
0
6.21488e-06
6.64443e-06
4.72521e-06
3.37155e-09
6.19437e-06
5.83796e-06
8.88963e-06
7.50399e-07
6.16529e-06
5.85994e-06
7.17729e-06
4.45445e-06
6.11947e-06
6.06118e-06
6.21364e-06
6.2124e-06
6.10293e-06
6.11737e-06
6.05494e-06
6.26828e-06
6.10215e-06
6.11276e-06
6.0821e-06
6.14991e-06
6.10317e-06
6.10564e-06
6.10232e-06
6.10822e-06
6.10321e-06
6.10343e-06
6.10584e-06
6.103e-06
6.10291e-06
6.10302e-06
6.10496e-06
6.1037e-06
6.10265e-06
6.10285e-06
6.1041e-06
6.10389e-06
6.10248e-06
6.10268e-06
6.10365e-06
6.10363e-06
6.10239e-06
6.10253e-06
6.10337e-06
6.10335e-06
6.10229e-06
6.10239e-06
6.10311e-06
6.10311e-06
6.10226e-06
6.10232e-06
6.10292e-06
6.10291e-06
6.10223e-06
6.10226e-06
6.10276e-06
6.10277e-06
6.10217e-06
6.10219e-06
6.1026e-06
6.10264e-06
6.10208e-06
6.10209e-06
6.10241e-06
6.1025e-06
6.10196e-06
6.10198e-06
6.10221e-06
6.10234e-06
6.1018e-06
6.10189e-06
6.10205e-06
6.10221e-06
6.10161e-06
6.10176e-06
6.10187e-06
6.10208e-06
6.1014e-06
6.10161e-06
6.10166e-06
6.10192e-06
6.10116e-06
6.10141e-06
6.10149e-06
6.10179e-06
6.10089e-06
6.10118e-06
6.1013e-06
6.10167e-06
6.10058e-06
6.1009e-06
6.10106e-06
6.10151e-06
6.10024e-06
6.10059e-06
6.10078e-06
6.1013e-06
6.09986e-06
6.10023e-06
6.10046e-06
6.10104e-06
6.09943e-06
6.09982e-06
6.10008e-06
6.10071e-06
6.09894e-06
6.09935e-06
6.09964e-06
6.10032e-06
6.0984e-06
6.09883e-06
6.09913e-06
6.09986e-06
6.0978e-06
6.09824e-06
6.09856e-06
6.09932e-06
6.09676e-06
6.09713e-06
6.09757e-06
6.09791e-06
6.0987e-06
6.09603e-06
6.09639e-06
6.09684e-06
6.09718e-06
6.09799e-06
6.09523e-06
6.09559e-06
6.09604e-06
6.09638e-06
6.0972e-06
6.09438e-06
6.09472e-06
6.09517e-06
6.09551e-06
6.09633e-06
6.09347e-06
6.09381e-06
6.09424e-06
6.09458e-06
6.0954e-06
6.09252e-06
6.09285e-06
6.09327e-06
6.0936e-06
6.0944e-06
6.09155e-06
6.09186e-06
6.09227e-06
6.0926e-06
6.09338e-06
6.09057e-06
6.09088e-06
6.09127e-06
6.09158e-06
6.09234e-06
6.08961e-06
6.0899e-06
6.09028e-06
6.09058e-06
6.0913e-06
6.08866e-06
6.08894e-06
6.08931e-06
6.0896e-06
6.09029e-06
6.08773e-06
6.088e-06
6.08836e-06
6.08865e-06
6.08931e-06
6.08678e-06
6.08705e-06
6.0874e-06
6.08768e-06
6.08832e-06
6.08578e-06
6.08604e-06
6.08638e-06
6.08666e-06
6.08729e-06
6.08464e-06
6.08489e-06
6.08523e-06
6.08551e-06
6.08612e-06
6.0831e-06
6.0833e-06
6.08354e-06
6.08386e-06
6.08413e-06
6.08475e-06
6.08151e-06
6.08169e-06
6.0819e-06
6.0822e-06
6.08246e-06
6.08307e-06
6.07964e-06
6.07979e-06
6.07997e-06
6.08024e-06
6.08048e-06
6.08106e-06
6.07758e-06
6.07769e-06
6.07783e-06
6.07805e-06
6.07825e-06
6.07878e-06
6.07548e-06
6.07555e-06
6.07565e-06
6.07582e-06
6.07597e-06
6.07642e-06
6.0736e-06
6.07364e-06
6.0737e-06
6.07381e-06
6.0739e-06
6.07425e-06
6.07222e-06
6.07223e-06
6.07226e-06
6.07233e-06
6.07236e-06
6.07258e-06
6.07164e-06
6.07164e-06
6.07165e-06
6.07166e-06
6.07166e-06
6.07174e-06
6.07221e-06
6.07225e-06
6.07227e-06
6.07227e-06
6.07228e-06
6.07222e-06
6.07365e-06
6.07375e-06
6.07383e-06
6.0739e-06
6.07392e-06
6.07396e-06
6.07381e-06
6.07593e-06
6.07609e-06
6.07623e-06
6.07635e-06
6.07641e-06
6.0765e-06
6.07635e-06
6.07893e-06
6.07917e-06
6.07938e-06
6.07956e-06
6.07969e-06
6.07984e-06
6.07973e-06
6.0825e-06
6.08282e-06
6.0831e-06
6.08335e-06
6.08355e-06
6.08378e-06
6.08374e-06
6.08639e-06
6.08677e-06
6.08712e-06
6.08744e-06
6.08772e-06
6.08803e-06
6.08809e-06
6.09033e-06
6.09077e-06
6.09117e-06
6.09156e-06
6.0919e-06
6.09228e-06
6.09242e-06
6.0936e-06
6.09409e-06
6.09456e-06
6.09502e-06
6.09545e-06
6.09592e-06
6.09618e-06
6.09586e-06
6.09639e-06
6.09691e-06
6.09743e-06
6.09795e-06
6.09852e-06
6.09893e-06
6.09762e-06
6.09816e-06
6.09869e-06
6.09924e-06
6.09979e-06
6.10041e-06
6.10092e-06
6.09898e-06
6.09952e-06
6.10007e-06
6.10063e-06
6.1012e-06
6.10185e-06
6.10241e-06
6.09967e-06
6.10025e-06
6.10083e-06
6.10141e-06
6.102e-06
6.10261e-06
6.10328e-06
6.10388e-06
6.10167e-06
6.10237e-06
6.10307e-06
6.10376e-06
6.10447e-06
6.10519e-06
6.10599e-06
6.10665e-06
6.10556e-06
6.10651e-06
6.10745e-06
6.10838e-06
6.10934e-06
6.11032e-06
6.11143e-06
6.11233e-06
6.11149e-06
6.11271e-06
6.11393e-06
6.11516e-06
6.11642e-06
6.11773e-06
6.11918e-06
6.12049e-06
6.11632e-06
6.11755e-06
6.11878e-06
6.12001e-06
6.12129e-06
6.12263e-06
6.12413e-06
6.12557e-06
6.11421e-06
6.11498e-06
6.11573e-06
6.11648e-06
6.11724e-06
6.11805e-06
6.11885e-06
6.11977e-06
6.10694e-06
6.10791e-06
6.10892e-06
6.10998e-06
6.1111e-06
6.11229e-06
6.11375e-06
6.11491e-06
6.11364e-06
6.11662e-06
6.11966e-06
6.12278e-06
6.12604e-06
6.12951e-06
6.13341e-06
6.13705e-06
6.11017e-06
6.11144e-06
6.11261e-06
6.11368e-06
6.11467e-06
6.11559e-06
6.11658e-06
6.11742e-06
0.126636
0.0830869
0.0542663
0.0293232
0.00863508
0.000748645
0.000166633
0
4.73773e-09
1.55473e-06
5.37658e-06
6.35361e-06
6.25141e-06
6.14036e-06
6.11146e-06
6.10909e-06
6.10933e-06
6.10868e-06
6.10772e-06
6.10685e-06
6.10611e-06
6.10548e-06
6.10496e-06
6.1045e-06
6.10409e-06
6.10371e-06
6.10339e-06
6.1031e-06
6.10282e-06
6.1026e-06
6.10239e-06
6.10216e-06
6.10189e-06
6.10157e-06
6.1012e-06
6.10077e-06
6.10027e-06
6.09969e-06
6.09903e-06
6.0983e-06
6.09748e-06
6.09658e-06
6.09562e-06
6.0946e-06
6.09356e-06
6.09251e-06
6.09146e-06
6.09045e-06
6.08945e-06
6.08846e-06
6.08742e-06
6.08624e-06
6.08483e-06
6.08311e-06
6.08106e-06
6.07875e-06
6.07636e-06
6.0742e-06
6.07258e-06
6.07181e-06
6.07235e-06
6.07398e-06
6.0766e-06
6.08006e-06
6.08414e-06
6.08854e-06
6.09292e-06
6.09672e-06
6.09948e-06
6.10145e-06
6.10293e-06
6.10443e-06
6.10734e-06
6.11327e-06
6.12167e-06
6.1265e-06
6.12033e-06
6.11595e-06
6.13947e-06
6.11822e-06
0.149924
0.0867256
0.0431753
0.0174836
0.00348713
1.00166e-08
3.19353e-11
1.57199e-10
6.18539e-08
3.80892e-06
6.15932e-06
6.35952e-06
6.20011e-06
6.12838e-06
6.11532e-06
6.11461e-06
6.11383e-06
6.11234e-06
6.11083e-06
6.10951e-06
6.10838e-06
6.10742e-06
6.10661e-06
6.1059e-06
6.10528e-06
6.10474e-06
6.10428e-06
6.10388e-06
6.10352e-06
6.10322e-06
6.10295e-06
6.10266e-06
6.10234e-06
6.10198e-06
6.10157e-06
6.1011e-06
6.10056e-06
6.09996e-06
6.09927e-06
6.0985e-06
6.09766e-06
6.09674e-06
6.09576e-06
6.09473e-06
6.09367e-06
6.09261e-06
6.09156e-06
6.09055e-06
6.08955e-06
6.08856e-06
6.0875e-06
6.0863e-06
6.08485e-06
6.08309e-06
6.08099e-06
6.07863e-06
6.07623e-06
6.07408e-06
6.0725e-06
6.07184e-06
6.07247e-06
6.07419e-06
6.0769e-06
6.08043e-06
6.08458e-06
6.08902e-06
6.09342e-06
6.09723e-06
6.09996e-06
6.10189e-06
6.10335e-06
6.10487e-06
6.10794e-06
6.11408e-06
6.12263e-06
6.12711e-06
6.12071e-06
6.11692e-06
6.14103e-06
6.11871e-06
0.151282
0.080831
0.0295091
0.00713942
0.000480034
9.35615e-05
0
3.72334e-09
1.171e-06
6.04698e-06
6.40097e-06
6.28303e-06
6.15619e-06
6.12297e-06
6.11936e-06
6.11862e-06
6.1169e-06
6.11486e-06
6.113e-06
6.11139e-06
6.11002e-06
6.10885e-06
6.10785e-06
6.10698e-06
6.10622e-06
6.10557e-06
6.10502e-06
6.10454e-06
6.10413e-06
6.10379e-06
6.10347e-06
6.10313e-06
6.10277e-06
6.10237e-06
6.10193e-06
6.10143e-06
6.10086e-06
6.10023e-06
6.09951e-06
6.09872e-06
6.09785e-06
6.09691e-06
6.0959e-06
6.09486e-06
6.09379e-06
6.09273e-06
6.09168e-06
6.09067e-06
6.08967e-06
6.08867e-06
6.0876e-06
6.08636e-06
6.08488e-06
6.08306e-06
6.0809e-06
6.0785e-06
6.07608e-06
6.07395e-06
6.07242e-06
6.07185e-06
6.0726e-06
6.07442e-06
6.07722e-06
6.08084e-06
6.08506e-06
6.08954e-06
6.09398e-06
6.09779e-06
6.10048e-06
6.10236e-06
6.10379e-06
6.10536e-06
6.10859e-06
6.11498e-06
6.12366e-06
6.12772e-06
6.12111e-06
6.11805e-06
6.14262e-06
6.11919e-06
0.135205
0.064245
0.0149517
0.000798617
0.000191544
0
2.96328e-10
9.52844e-08
4.33847e-06
6.91232e-06
6.32076e-06
6.20708e-06
6.13262e-06
6.12353e-06
6.12283e-06
6.12118e-06
6.11878e-06
6.11643e-06
6.11438e-06
6.11261e-06
6.1111e-06
6.10981e-06
6.1087e-06
6.10774e-06
6.10691e-06
6.10621e-06
6.10562e-06
6.1051e-06
6.10467e-06
6.1043e-06
6.10394e-06
6.10358e-06
6.10319e-06
6.10276e-06
6.10229e-06
6.10176e-06
6.10117e-06
6.1005e-06
6.09976e-06
6.09894e-06
6.09805e-06
6.09708e-06
6.09607e-06
6.09501e-06
6.09393e-06
6.09286e-06
6.09181e-06
6.0908e-06
6.0898e-06
6.08879e-06
6.0877e-06
6.08644e-06
6.0849e-06
6.08302e-06
6.08081e-06
6.07837e-06
6.07593e-06
6.07382e-06
6.07234e-06
6.07187e-06
6.07274e-06
6.07467e-06
6.07758e-06
6.08129e-06
6.08558e-06
6.09009e-06
6.09456e-06
6.09838e-06
6.10102e-06
6.10285e-06
6.10425e-06
6.10587e-06
6.10929e-06
6.11594e-06
6.12473e-06
6.12835e-06
6.12152e-06
6.11932e-06
6.14429e-06
6.11963e-06
0.104425
0.0387457
0.0029763
0.000732033
0
2.27568e-11
8.28053e-09
2.36315e-06
6.87021e-06
6.73566e-06
6.19474e-06
6.16249e-06
6.12529e-06
6.12674e-06
6.12537e-06
6.12281e-06
6.12001e-06
6.1175e-06
6.11534e-06
6.11347e-06
6.11188e-06
6.11051e-06
6.10934e-06
6.10832e-06
6.10746e-06
6.10674e-06
6.10612e-06
6.1056e-06
6.10516e-06
6.10477e-06
6.10439e-06
6.104e-06
6.10359e-06
6.10314e-06
6.10265e-06
6.10209e-06
6.10148e-06
6.10078e-06
6.10002e-06
6.09917e-06
6.09825e-06
6.09727e-06
6.09623e-06
6.09516e-06
6.09408e-06
6.093e-06
6.09196e-06
6.09094e-06
6.08994e-06
6.08892e-06
6.08781e-06
6.0865e-06
6.08491e-06
6.08297e-06
6.0807e-06
6.07822e-06
6.07577e-06
6.07368e-06
6.07227e-06
6.0719e-06
6.0729e-06
6.07495e-06
6.07796e-06
6.08177e-06
6.08613e-06
6.09068e-06
6.09518e-06
6.099e-06
6.10158e-06
6.10336e-06
6.10473e-06
6.10642e-06
6.11004e-06
6.11698e-06
6.12584e-06
6.12899e-06
6.12196e-06
6.12073e-06
6.14605e-06
6.12004e-06
0.0648752
0.0145764
0.00359026
0
7.4938e-17
2.69511e-14
1.2515e-06
6.1616e-06
7.22316e-06
6.34324e-06
6.1351e-06
6.14421e-06
6.12645e-06
6.12986e-06
6.12685e-06
6.12376e-06
6.1208e-06
6.11823e-06
6.11602e-06
6.11411e-06
6.11247e-06
6.11107e-06
6.10986e-06
6.10883e-06
6.10796e-06
6.10722e-06
6.1066e-06
6.10607e-06
6.10563e-06
6.10523e-06
6.10483e-06
6.10442e-06
6.10399e-06
6.10352e-06
6.103e-06
6.10243e-06
6.10178e-06
6.10107e-06
6.10027e-06
6.0994e-06
6.09846e-06
6.09745e-06
6.0964e-06
6.09532e-06
6.09423e-06
6.09315e-06
6.0921e-06
6.09109e-06
6.09009e-06
6.08906e-06
6.08792e-06
6.08657e-06
6.08492e-06
6.08291e-06
6.08057e-06
6.07805e-06
6.0756e-06
6.07354e-06
6.0722e-06
6.07195e-06
6.07308e-06
6.07525e-06
6.07837e-06
6.08228e-06
6.08672e-06
6.09131e-06
6.09584e-06
6.09965e-06
6.10217e-06
6.10389e-06
6.10524e-06
6.10701e-06
6.11085e-06
6.11809e-06
6.127e-06
6.12965e-06
6.12242e-06
6.12229e-06
0.0257943
0.000605956
0.000133563
0
2.3991e-09
6.91527e-07
5.71785e-06
7.4297e-06
6.63537e-06
6.13007e-06
6.13162e-06
6.13844e-06
6.13018e-06
6.13155e-06
6.1274e-06
6.12418e-06
6.12121e-06
6.11866e-06
6.11645e-06
6.11455e-06
6.11291e-06
6.1115e-06
6.11029e-06
6.10926e-06
6.1084e-06
6.10767e-06
6.10705e-06
6.10654e-06
6.10609e-06
6.10568e-06
6.10527e-06
6.10484e-06
6.10439e-06
6.1039e-06
6.10336e-06
6.10276e-06
6.10209e-06
6.10135e-06
6.10053e-06
6.09963e-06
6.09867e-06
6.09764e-06
6.09657e-06
6.09548e-06
6.09438e-06
6.0933e-06
6.09226e-06
6.09125e-06
6.09024e-06
6.0892e-06
6.08802e-06
6.08663e-06
6.08491e-06
6.08283e-06
6.08043e-06
6.07787e-06
6.07542e-06
6.0734e-06
6.07213e-06
6.07202e-06
6.07328e-06
6.07558e-06
6.07882e-06
6.08284e-06
6.08734e-06
6.09197e-06
6.09653e-06
6.10033e-06
6.10279e-06
6.10444e-06
6.10577e-06
6.10763e-06
6.11173e-06
6.11929e-06
6.12821e-06
6.13033e-06
0.00296176
0.00073301
0
9.94517e-10
2.9994e-07
5.60509e-06
7.70244e-06
6.85209e-06
6.19702e-06
6.09718e-06
6.14224e-06
6.13672e-06
6.13322e-06
6.13173e-06
6.12735e-06
6.12422e-06
6.12132e-06
6.11884e-06
6.11668e-06
6.11481e-06
6.1132e-06
6.11181e-06
6.11063e-06
6.10963e-06
6.10879e-06
6.10808e-06
6.10749e-06
6.10698e-06
6.10654e-06
6.10612e-06
6.10569e-06
6.10526e-06
6.10479e-06
6.10428e-06
6.10372e-06
6.10309e-06
6.1024e-06
6.10163e-06
6.10078e-06
6.09986e-06
6.09887e-06
6.09783e-06
6.09674e-06
6.09564e-06
6.09454e-06
6.09346e-06
6.09242e-06
6.09141e-06
6.0904e-06
6.08933e-06
6.08813e-06
6.08668e-06
6.08489e-06
6.08273e-06
6.08027e-06
6.07768e-06
6.07523e-06
6.07325e-06
6.07207e-06
6.07211e-06
6.07352e-06
6.07594e-06
6.07931e-06
6.08343e-06
6.088e-06
6.09267e-06
6.09726e-06
6.10104e-06
6.10342e-06
6.10502e-06
6.10633e-06
6.10831e-06
6.11268e-06
6.12057e-06
0.000809487
0
1.48e-10
4.88307e-08
5.84584e-06
8.00687e-06
7.00874e-06
6.2526e-06
6.08151e-06
6.12723e-06
6.14557e-06
6.13634e-06
6.13438e-06
6.13092e-06
6.12693e-06
6.12395e-06
6.12118e-06
6.11881e-06
6.11673e-06
6.11493e-06
6.11338e-06
6.11205e-06
6.11092e-06
6.10996e-06
6.10916e-06
6.10848e-06
6.10791e-06
6.10742e-06
6.10698e-06
6.10655e-06
6.10612e-06
6.10566e-06
6.10518e-06
6.10465e-06
6.10407e-06
6.10342e-06
6.1027e-06
6.1019e-06
6.10103e-06
6.10008e-06
6.09907e-06
6.09801e-06
6.09691e-06
6.0958e-06
6.09469e-06
6.09362e-06
6.09258e-06
6.09157e-06
6.09056e-06
6.08947e-06
6.08822e-06
6.08671e-06
6.08485e-06
6.08262e-06
6.08009e-06
6.07746e-06
6.07502e-06
6.07309e-06
6.07203e-06
6.07222e-06
6.07378e-06
6.07634e-06
6.07984e-06
6.08406e-06
6.0887e-06
6.09342e-06
6.09803e-06
6.10178e-06
6.10408e-06
6.10561e-06
6.10693e-06
0
1.21623e-13
4.08697e-11
4.65169e-06
8.7689e-06
7.02205e-06
6.27716e-06
6.0722e-06
6.11167e-06
6.14707e-06
6.14263e-06
6.13622e-06
6.13376e-06
6.12968e-06
6.12626e-06
6.12343e-06
6.12085e-06
6.11861e-06
6.11665e-06
6.11496e-06
6.11349e-06
6.11223e-06
6.11117e-06
6.11027e-06
6.10951e-06
6.10887e-06
6.10833e-06
6.10786e-06
6.10741e-06
6.10698e-06
6.10654e-06
6.10607e-06
6.10557e-06
6.10502e-06
6.10441e-06
6.10374e-06
6.10299e-06
6.10217e-06
6.10127e-06
6.1003e-06
6.09926e-06
6.09818e-06
6.09707e-06
6.09596e-06
6.09485e-06
6.09378e-06
6.09275e-06
6.09174e-06
6.09072e-06
6.08961e-06
6.08831e-06
6.08673e-06
6.08479e-06
6.08247e-06
6.07988e-06
6.07723e-06
6.07481e-06
6.07294e-06
6.07199e-06
6.07236e-06
6.07407e-06
6.07678e-06
6.08041e-06
6.08474e-06
6.08945e-06
6.09421e-06
0
1.41696e-08
3.65628e-06
9.29868e-06
7.12351e-06
6.19616e-06
6.07389e-06
6.10038e-06
6.14533e-06
6.14759e-06
6.13918e-06
6.13543e-06
6.13211e-06
6.12835e-06
6.12539e-06
6.12274e-06
6.12036e-06
6.11829e-06
6.11648e-06
6.1149e-06
6.11355e-06
6.11238e-06
6.1114e-06
6.11056e-06
6.10986e-06
6.10926e-06
6.10875e-06
6.10829e-06
6.10785e-06
6.10741e-06
6.10695e-06
6.10647e-06
6.10595e-06
6.10538e-06
6.10475e-06
6.10405e-06
6.10327e-06
6.10242e-06
6.1015e-06
6.1005e-06
6.09945e-06
6.09835e-06
6.09723e-06
6.09611e-06
6.09502e-06
6.09395e-06
6.09293e-06
6.09192e-06
6.09088e-06
6.08974e-06
6.08839e-06
6.08673e-06
6.0847e-06
6.0823e-06
6.07965e-06
6.07698e-06
6.07458e-06
6.07279e-06
6.07198e-06
6.07253e-06
6.0744e-06
1.1244e-08
2.90765e-06
8.68699e-06
7.27573e-06
6.08295e-06
6.05412e-06
6.10509e-06
6.14257e-06
6.15064e-06
6.14204e-06
6.13679e-06
6.13369e-06
6.13016e-06
6.127e-06
6.12435e-06
6.12193e-06
6.11978e-06
6.1179e-06
6.11625e-06
6.11481e-06
6.11358e-06
6.11252e-06
6.11162e-06
6.11086e-06
6.11022e-06
6.10967e-06
6.10918e-06
6.10873e-06
6.10828e-06
6.10784e-06
6.10737e-06
6.10687e-06
6.10633e-06
6.10574e-06
6.10508e-06
6.10435e-06
6.10355e-06
6.10267e-06
6.10171e-06
6.1007e-06
6.09962e-06
6.09852e-06
6.09739e-06
6.09627e-06
6.09518e-06
6.09412e-06
6.0931e-06
6.09209e-06
6.09104e-06
6.08986e-06
6.08845e-06
6.08671e-06
6.08458e-06
6.0821e-06
3.43388e-06
7.97664e-06
7.20645e-06
6.04881e-06
6.01152e-06
6.11985e-06
6.14456e-06
6.15125e-06
6.14405e-06
6.13779e-06
6.13458e-06
6.13141e-06
6.12827e-06
6.12561e-06
6.12323e-06
6.12107e-06
6.11916e-06
6.11748e-06
6.116e-06
6.11472e-06
6.11362e-06
6.11267e-06
6.11187e-06
6.11118e-06
6.11059e-06
6.11008e-06
6.10961e-06
6.10916e-06
6.10872e-06
6.10826e-06
6.10779e-06
6.10727e-06
6.10671e-06
6.10609e-06
6.1054e-06
6.10464e-06
6.10381e-06
6.1029e-06
6.10192e-06
6.10088e-06
6.09979e-06
6.09867e-06
)
;

boundaryField
{
    inlet
    {
        type            freestream;
        freestreamValue uniform 1e-05;
        value           uniform 1e-05;
    }
    outlet
    {
        type            freestream;
        freestreamValue nonuniform List<scalar> 0();
        value           nonuniform List<scalar> 0();
    }
    walls
    {
        type            nutUSpaldingWallFunction;
        value           nonuniform List<scalar> 4(0.00272748 0.00266321 0.00257241 0.00231608);
    }
    frontAndBack
    {
        type            empty;
    }
    procBoundary2to1
    {
        type            processor;
        value           nonuniform List<scalar> 
84
(
0.107971
0.0680028
0.0311558
0.00305633
0.000715952
2.62723e-12
5.32467e-06
6.29143e-06
6.14515e-06
6.09202e-06
6.09371e-06
6.10166e-06
6.1048e-06
6.10416e-06
6.10333e-06
6.10284e-06
6.10259e-06
6.10244e-06
6.10235e-06
6.10231e-06
6.10224e-06
6.10224e-06
6.10218e-06
6.10207e-06
6.10193e-06
6.10178e-06
6.10159e-06
6.10138e-06
6.10114e-06
6.10088e-06
6.10059e-06
6.10027e-06
6.09991e-06
6.09951e-06
6.09907e-06
6.09858e-06
6.09804e-06
6.09743e-06
6.09743e-06
6.09642e-06
6.09569e-06
6.0949e-06
6.09406e-06
6.09316e-06
6.09223e-06
6.09127e-06
6.0903e-06
6.08935e-06
6.08841e-06
6.08748e-06
6.08654e-06
6.08554e-06
6.08442e-06
6.08442e-06
6.08293e-06
6.08137e-06
6.07954e-06
6.07751e-06
6.07545e-06
6.07359e-06
6.07222e-06
6.07164e-06
6.07216e-06
6.07216e-06
6.07353e-06
6.07574e-06
6.07867e-06
6.08216e-06
6.08597e-06
6.08986e-06
6.09308e-06
6.09531e-06
6.09707e-06
6.09843e-06
6.09843e-06
6.09908e-06
6.10096e-06
6.1046e-06
6.11024e-06
6.11507e-06
6.11342e-06
6.106e-06
6.11071e-06
6.10878e-06
)
;
    }
    procBoundary2to3
    {
        type            processor;
        value           nonuniform List<scalar> 
88
(
6.14789e-06
6.12039e-06
6.12291e-06
6.14789e-06
6.124e-06
6.12946e-06
6.12291e-06
6.13102e-06
6.10904e-06
6.11372e-06
6.12946e-06
6.12194e-06
6.09884e-06
6.10255e-06
6.10477e-06
6.10623e-06
6.10904e-06
6.10755e-06
6.07726e-06
6.08103e-06
6.08547e-06
6.09025e-06
6.09884e-06
6.09504e-06
6.07939e-06
6.0767e-06
6.07434e-06
6.07264e-06
6.07198e-06
6.07274e-06
6.07726e-06
6.07478e-06
6.09754e-06
6.09643e-06
6.09534e-06
6.0943e-06
6.09328e-06
6.09227e-06
6.09119e-06
6.08997e-06
6.08848e-06
6.08665e-06
6.08443e-06
6.07939e-06
6.08186e-06
7.75817e-06
6.95228e-06
6.03974e-06
5.99124e-06
6.12807e-06
6.1534e-06
6.15031e-06
6.14455e-06
6.1382e-06
6.13488e-06
6.13206e-06
6.12912e-06
6.1265e-06
6.12421e-06
6.1221e-06
6.12021e-06
6.11854e-06
6.11707e-06
6.11577e-06
6.11465e-06
6.11368e-06
6.11285e-06
6.11213e-06
6.11152e-06
6.11099e-06
6.1105e-06
6.11005e-06
6.10961e-06
6.10916e-06
6.10869e-06
6.1082e-06
6.10766e-06
6.10707e-06
6.10643e-06
6.10571e-06
6.10492e-06
6.10405e-06
6.10312e-06
6.10211e-06
6.10105e-06
6.09995e-06
6.09754e-06
6.09882e-06
)
;
    }
    procBoundary2to6
    {
        type            processor;
        value           nonuniform List<scalar> 
13
(
0.173002
0.214051
0.217875
0.202719
0.172764
0.130258
0.0789242
0.0300222
0.00323418
0.000426521
0
4.36645e-23
8.57935e-15
)
;
    }
}


// ************************************************************************* //
