/*--------------------------------*- C++ -*----------------------------------*\
| =========                 |                                                 |
| \\      /  F ield         | OpenFOAM: The Open Source CFD Toolbox           |
|  \\    /   O peration     | Version:  2306                                  |
|   \\  /    A nd           | Website:  www.openfoam.com                      |
|    \\/     M anipulation  |                                                 |
\*---------------------------------------------------------------------------*/
FoamFile
{
    version     2.0;
    format      ascii;
    arch        "LSB;label=32;scalar=64";
    class       volScalarField;
    location    "325";
    object      turbulenceProperties:k;
}
// * * * * * * * * * * * * * * * * * * * * * * * * * * * * * * * * * * * * * //

dimensions      [0 2 -2 0 0 0 0];

internalField   nonuniform List<scalar> 
1340
(
48.1482
46.0251
43.5526
35.673
1.44793
1.59456
1.9218
2.67262
0.312028
0.429957
0.514638
0.878481
0.0115586
0.0379298
0.0958529
0.34899
0.00259161
0.000947157
0.0029713
0.0676581
4.65989e-07
0.0001601
0.000683562
0.00775141
1.38542e-05
1.33774e-06
0
0.00167081
1.95856e-05
1.38885e-05
1.60928e-06
0
2.44953e-05
2.6271e-05
2.83895e-05
1.19425e-06
2.06568e-05
2.03636e-05
3.43823e-05
1.63166e-05
2.08821e-05
2.07917e-05
2.95375e-05
3.71864e-05
1.93698e-05
1.95865e-05
2.51909e-05
4.03809e-05
1.86313e-05
1.8897e-05
2.31804e-05
3.69889e-05
1.7594e-05
1.77515e-05
2.14587e-05
3.32527e-05
1.66611e-05
1.67207e-05
1.9852e-05
2.99865e-05
1.56605e-05
1.56301e-05
1.82546e-05
2.70313e-05
1.4664e-05
1.45513e-05
1.67267e-05
2.42939e-05
1.36507e-05
1.34618e-05
1.52635e-05
2.17559e-05
1.26346e-05
1.23757e-05
1.38644e-05
1.941e-05
1.16185e-05
1.12958e-05
1.25327e-05
1.72607e-05
1.06088e-05
1.02284e-05
1.12641e-05
1.5294e-05
9.61089e-06
9.18059e-06
1.00606e-05
1.35038e-05
8.63112e-06
8.15704e-06
8.92256e-06
1.18836e-05
7.67621e-06
7.16472e-06
7.84865e-06
1.04202e-05
6.75211e-06
6.20819e-06
6.84222e-06
9.10774e-06
5.86564e-06
5.29274e-06
5.9039e-06
7.93513e-06
5.02367e-06
4.42306e-06
5.03643e-06
6.89519e-06
4.23353e-06
3.60273e-06
4.24243e-06
5.97941e-06
3.50354e-06
2.83524e-06
3.52679e-06
5.18132e-06
2.84454e-06
2.12345e-06
2.8961e-06
4.49552e-06
2.27154e-06
1.46848e-06
2.36072e-06
3.91682e-06
1.80774e-06
8.72434e-07
1.93535e-06
3.44092e-06
1.48647e-06
3.37874e-07
1.63856e-06
3.06271e-06
1.33837e-06
1.62226e-07
1.48284e-06
2.77533e-06
1.35554e-06
5.7531e-07
1.45667e-06
2.5688e-06
1.48143e-06
9.41278e-07
1.52208e-06
2.43022e-06
1.65325e-06
1.25459e-06
1.63468e-06
2.34438e-06
1.82982e-06
1.51741e-06
1.76097e-06
2.29574e-06
2.51645e-06
1.98972e-06
1.73254e-06
1.88091e-06
2.27034e-06
2.55443e-06
2.12307e-06
1.90326e-06
1.98392e-06
2.25679e-06
2.58289e-06
2.22608e-06
2.03318e-06
2.06521e-06
2.2467e-06
2.59638e-06
2.29833e-06
2.12597e-06
2.12312e-06
2.23419e-06
2.59228e-06
2.34118e-06
2.18552e-06
2.15806e-06
2.21569e-06
2.57005e-06
2.35698e-06
2.2156e-06
2.17134e-06
2.18918e-06
2.53052e-06
2.34868e-06
2.21999e-06
2.16482e-06
2.15367e-06
2.47527e-06
2.31945e-06
2.20242e-06
2.14094e-06
2.1093e-06
2.40638e-06
2.27247e-06
2.16628e-06
2.10194e-06
2.05651e-06
2.32619e-06
2.21091e-06
2.11486e-06
2.05022e-06
1.99611e-06
2.2369e-06
2.13758e-06
2.05111e-06
1.98807e-06
1.92926e-06
2.14066e-06
2.05506e-06
1.97753e-06
1.91743e-06
1.8569e-06
2.03925e-06
1.96556e-06
1.89639e-06
1.84011e-06
1.78007e-06
1.93416e-06
1.87078e-06
1.80942e-06
1.75753e-06
1.69959e-06
1.88184e-06
1.82656e-06
1.77217e-06
1.71806e-06
1.67085e-06
1.61616e-06
1.76401e-06
1.71744e-06
1.67091e-06
1.62348e-06
1.5811e-06
1.5304e-06
1.647e-06
1.60784e-06
1.56818e-06
1.52687e-06
1.4893e-06
1.44297e-06
1.53185e-06
1.499e-06
1.46533e-06
1.4296e-06
1.39667e-06
1.35485e-06
1.41991e-06
1.39243e-06
1.36398e-06
1.33324e-06
1.3047e-06
1.2673e-06
1.31266e-06
1.28974e-06
1.26578e-06
1.23946e-06
1.21493e-06
1.1817e-06
1.21121e-06
1.19211e-06
1.17198e-06
1.14953e-06
1.1286e-06
1.09928e-06
1.11577e-06
1.09986e-06
1.08297e-06
1.0639e-06
1.04616e-06
1.02049e-06
1.02554e-06
1.0123e-06
9.98171e-07
9.82052e-07
9.67141e-07
9.44914e-07
9.49444e-07
9.39136e-07
9.28111e-07
9.16349e-07
9.02847e-07
8.90492e-07
8.71515e-07
8.64104e-07
8.55518e-07
8.46377e-07
8.36673e-07
8.25509e-07
8.15491e-07
7.99536e-07
7.81655e-07
7.74499e-07
7.66963e-07
7.5904e-07
7.49937e-07
7.42052e-07
7.28824e-07
7.03027e-07
6.97076e-07
6.90906e-07
6.84512e-07
6.77191e-07
6.71223e-07
6.60366e-07
6.29326e-07
6.24374e-07
6.19337e-07
6.14229e-07
6.08405e-07
6.04044e-07
5.95114e-07
5.62585e-07
5.5842e-07
5.54294e-07
5.50272e-07
5.45766e-07
5.42812e-07
5.35744e-07
5.07163e-07
5.03433e-07
4.99841e-07
4.96478e-07
4.92799e-07
4.90781e-07
4.85287e-07
4.6257e-07
4.59024e-07
4.55679e-07
4.526e-07
4.49291e-07
4.47702e-07
4.43062e-07
4.22457e-07
4.18985e-07
4.15735e-07
4.12789e-07
4.09697e-07
4.08327e-07
4.04331e-07
3.83769e-07
3.80395e-07
3.77236e-07
3.74431e-07
3.71544e-07
3.7033e-07
3.66864e-07
3.49124e-07
3.45197e-07
3.41637e-07
3.38418e-07
3.35688e-07
3.33112e-07
3.32446e-07
3.30897e-07
3.104e-07
3.05698e-07
3.01287e-07
2.97217e-07
2.93618e-07
2.90232e-07
2.87987e-07
2.84342e-07
2.61612e-07
2.56633e-07
2.52335e-07
2.48765e-07
2.46157e-07
2.44563e-07
2.46691e-07
2.51667e-07
1.93826e-07
1.84183e-07
1.75376e-07
1.67613e-07
1.60958e-07
1.55375e-07
1.50866e-07
1.44152e-07
1.55083e-07
1.52274e-07
1.51476e-07
1.52882e-07
1.57464e-07
1.65706e-07
1.85348e-07
2.14263e-07
1.73039e-07
1.7214e-07
1.71027e-07
1.69459e-07
1.68231e-07
1.73203e-07
2.0391e-07
2.3706e-07
4.66224e-07
4.83592e-07
4.98708e-07
5.12667e-07
5.28801e-07
5.52634e-07
6.11371e-07
6.60219e-07
8.75713e-07
8.78444e-07
8.80406e-07
8.81735e-07
8.82654e-07
8.85635e-07
9.03523e-07
8.61006e-07
1.67294e-06
1.67351e-06
1.6726e-06
1.67085e-06
1.66711e-06
1.66519e-06
1.65163e-06
1.5323e-06
10.4562
2.82248
0.74818
0.231484
0.0403787
0.00245668
0.00048871
0
1.44134e-06
2.45218e-05
4.25241e-05
4.25686e-05
3.86127e-05
3.48865e-05
3.16403e-05
2.86787e-05
2.59164e-05
2.33483e-05
2.09769e-05
1.87922e-05
1.67906e-05
1.49646e-05
1.33064e-05
1.18081e-05
1.04599e-05
9.25388e-06
8.181e-06
7.23235e-06
6.39954e-06
5.67436e-06
5.04888e-06
4.51527e-06
4.06537e-06
3.69129e-06
3.38456e-06
3.13622e-06
2.9372e-06
2.77831e-06
2.65078e-06
2.54666e-06
2.45904e-06
2.38213e-06
2.31157e-06
2.24393e-06
2.17684e-06
2.1088e-06
2.03892e-06
1.96671e-06
1.89224e-06
1.81551e-06
1.73682e-06
1.65636e-06
1.5743e-06
1.4909e-06
1.40651e-06
1.32183e-06
1.23789e-06
1.1559e-06
1.0769e-06
1.00127e-06
9.28589e-07
8.57846e-07
7.88356e-07
7.19995e-07
6.53738e-07
5.9037e-07
5.32767e-07
4.83613e-07
4.42353e-07
4.04324e-07
3.67241e-07
3.32374e-07
2.84663e-07
2.57337e-07
1.4146e-07
2.33659e-07
2.15694e-07
6.48366e-07
7.6069e-07
1.36061e-06
6.28994
2.03466
0.38576
0.0604016
0.0060397
1.1859e-06
6.40898e-08
1.38455e-07
2.63387e-06
2.03142e-05
2.48752e-05
2.41597e-05
2.26921e-05
2.13908e-05
2.01982e-05
1.90243e-05
1.7852e-05
1.66823e-05
1.55326e-05
1.44065e-05
1.33136e-05
1.22591e-05
1.12491e-05
1.0293e-05
9.39286e-06
8.55189e-06
7.77358e-06
7.05934e-06
6.40856e-06
5.82091e-06
5.29458e-06
4.82719e-06
4.4155e-06
4.05576e-06
3.74404e-06
3.47529e-06
3.2449e-06
3.04768e-06
2.87846e-06
2.73242e-06
2.60497e-06
2.49185e-06
2.38967e-06
2.29529e-06
2.20633e-06
2.12094e-06
2.03775e-06
1.95578e-06
1.87445e-06
1.79325e-06
1.71198e-06
1.63043e-06
1.54839e-06
1.46583e-06
1.38292e-06
1.30016e-06
1.2184e-06
1.13874e-06
1.06202e-06
9.88499e-07
9.17711e-07
8.48672e-07
7.80742e-07
7.13883e-07
6.49089e-07
5.87041e-07
5.30503e-07
4.81957e-07
4.41268e-07
4.03846e-07
3.671e-07
3.32606e-07
2.84825e-07
2.58821e-07
1.40143e-07
2.45092e-07
1.88843e-07
6.50771e-07
7.53777e-07
1.39179e-06
3.96783
1.28397
0.173427
0.0112029
0.000427106
9.06462e-05
0
3.99482e-07
6.84369e-06
1.52013e-05
1.49554e-05
1.41818e-05
1.34006e-05
1.27573e-05
1.2168e-05
1.15962e-05
1.10426e-05
1.05032e-05
9.97579e-06
9.46769e-06
8.97299e-06
8.4927e-06
8.02382e-06
7.5704e-06
7.13098e-06
6.70427e-06
6.29261e-06
5.89764e-06
5.51951e-06
5.16033e-06
4.8213e-06
4.50362e-06
4.20831e-06
3.93583e-06
3.68637e-06
3.45924e-06
3.25379e-06
3.06852e-06
2.90174e-06
2.75145e-06
2.61564e-06
2.49202e-06
2.37866e-06
2.27354e-06
2.17498e-06
2.08161e-06
1.99212e-06
1.90567e-06
1.82146e-06
1.7389e-06
1.65754e-06
1.57694e-06
1.49674e-06
1.41669e-06
1.33682e-06
1.25749e-06
1.17939e-06
1.10348e-06
1.03043e-06
9.60371e-07
8.92767e-07
8.26667e-07
7.61485e-07
6.97242e-07
6.34958e-07
5.75235e-07
5.20647e-07
4.73579e-07
4.34282e-07
3.9832e-07
3.62679e-07
3.29195e-07
2.82415e-07
2.57263e-07
1.41955e-07
2.49864e-07
1.76303e-07
6.4545e-07
7.38662e-07
1.39524e-06
2.39025
0.643471
0.0465766
0.000452481
0.00010203
0
7.21543e-08
1.26288e-06
8.54865e-06
1.06018e-05
9.84651e-06
9.4784e-06
9.11504e-06
8.80765e-06
8.49804e-06
8.18346e-06
7.8731e-06
7.56536e-06
7.26172e-06
6.96805e-06
6.68012e-06
6.40203e-06
6.13176e-06
5.86908e-06
5.61484e-06
5.3678e-06
5.12719e-06
4.89338e-06
4.66582e-06
4.44472e-06
4.23018e-06
4.02246e-06
3.82244e-06
3.63037e-06
3.44691e-06
3.27272e-06
3.10801e-06
2.95299e-06
2.80767e-06
2.67161e-06
2.54446e-06
2.42557e-06
2.314e-06
2.20903e-06
2.10979e-06
2.01547e-06
1.92524e-06
1.83854e-06
1.75471e-06
1.67323e-06
1.59363e-06
1.51538e-06
1.43808e-06
1.3614e-06
1.28523e-06
1.20989e-06
1.13594e-06
1.06417e-06
9.95137e-07
9.28877e-07
8.64785e-07
8.01951e-07
7.39851e-07
6.78537e-07
6.19051e-07
5.61931e-07
5.09606e-07
4.64419e-07
4.26806e-07
3.92457e-07
3.58108e-07
3.25851e-07
2.80379e-07
2.56171e-07
1.46176e-07
2.53316e-07
1.70671e-07
6.38971e-07
7.19843e-07
1.38503e-06
1.18218
0.204508
0.00298134
0.000310765
0
1.44031e-08
2.704e-07
4.58028e-06
7.8907e-06
7.7095e-06
7.29255e-06
7.1696e-06
7.03337e-06
6.91425e-06
6.77897e-06
6.6341e-06
6.47998e-06
6.31441e-06
6.14142e-06
5.96103e-06
5.77318e-06
5.58069e-06
5.38621e-06
5.18856e-06
4.99084e-06
4.79563e-06
4.60189e-06
4.41195e-06
4.22657e-06
4.04606e-06
3.87096e-06
3.70129e-06
3.53777e-06
3.37993e-06
3.22801e-06
3.08241e-06
2.94267e-06
2.8091e-06
2.68156e-06
2.55988e-06
2.44414e-06
2.33395e-06
2.22892e-06
2.12892e-06
2.03347e-06
1.94216e-06
1.85455e-06
1.7703e-06
1.68897e-06
1.61013e-06
1.5334e-06
1.45824e-06
1.38428e-06
1.31119e-06
1.23879e-06
1.16734e-06
1.09736e-06
1.02951e-06
9.64225e-07
9.01462e-07
8.40599e-07
7.80771e-07
7.21523e-07
6.62936e-07
6.06068e-07
5.5138e-07
5.01162e-07
4.5772e-07
4.21639e-07
3.88675e-07
3.55448e-07
3.24267e-07
2.79998e-07
2.56832e-07
1.51953e-07
2.58816e-07
1.66589e-07
6.39256e-07
7.09983e-07
1.38373e-06
0.397093
0.0274677
0.00104404
0
2.0779e-11
3.89042e-10
2.65999e-06
6.01613e-06
6.51164e-06
6.0427e-06
5.89367e-06
5.84117e-06
5.76885e-06
5.69686e-06
5.61194e-06
5.52163e-06
5.42207e-06
5.31449e-06
5.202e-06
5.08289e-06
4.95837e-06
4.82873e-06
4.69585e-06
4.55848e-06
4.41832e-06
4.27671e-06
4.1325e-06
3.98802e-06
3.84355e-06
3.69971e-06
3.55747e-06
3.41719e-06
3.28003e-06
3.14601e-06
3.01564e-06
2.88957e-06
2.7675e-06
2.64996e-06
2.5367e-06
2.42774e-06
2.32323e-06
2.22274e-06
2.12617e-06
2.03352e-06
1.94438e-06
1.85865e-06
1.77603e-06
1.69632e-06
1.61925e-06
1.54449e-06
1.47175e-06
1.40054e-06
1.33056e-06
1.26148e-06
1.19314e-06
1.12578e-06
1.05987e-06
9.95956e-07
9.34398e-07
8.75086e-07
8.17404e-07
7.60544e-07
7.04114e-07
6.4825e-07
5.93999e-07
5.41735e-07
4.93585e-07
4.5185e-07
4.1728e-07
3.8565e-07
3.5353e-07
3.23398e-07
2.80348e-07
2.5836e-07
1.58528e-07
2.65494e-07
1.61766e-07
6.4211e-07
0.0572762
0.000114974
4.95436e-05
0
8.59879e-08
1.48629e-06
4.39277e-06
5.06742e-06
4.783e-06
4.58904e-06
4.58618e-06
4.57635e-06
4.55394e-06
4.52676e-06
4.48975e-06
4.4478e-06
4.39715e-06
4.3389e-06
4.27528e-06
4.20508e-06
4.12954e-06
4.04862e-06
3.96259e-06
3.87271e-06
3.77976e-06
3.68326e-06
3.58387e-06
3.48313e-06
3.38044e-06
3.27665e-06
3.17228e-06
3.06743e-06
2.96294e-06
2.85902e-06
2.75601e-06
2.65445e-06
2.55447e-06
2.45665e-06
2.36088e-06
2.26753e-06
2.17681e-06
2.0885e-06
2.00288e-06
1.91985e-06
1.83926e-06
1.76124e-06
1.68556e-06
1.61217e-06
1.54091e-06
1.47156e-06
1.40393e-06
1.33764e-06
1.27241e-06
1.20795e-06
1.1442e-06
1.08134e-06
1.01981e-06
9.60107e-07
9.0249e-07
8.46821e-07
7.92497e-07
7.38788e-07
6.85356e-07
6.32394e-07
5.80939e-07
5.31252e-07
4.85302e-07
4.45417e-07
4.12498e-07
3.82301e-07
3.51413e-07
3.2244e-07
2.80769e-07
2.60158e-07
1.65646e-07
2.72264e-07
0.000592882
0.000233996
0
4.03292e-08
7.38966e-07
3.32621e-06
3.97765e-06
3.77412e-06
3.60433e-06
3.5924e-06
3.6208e-06
3.62712e-06
3.6278e-06
3.62278e-06
3.61083e-06
3.59373e-06
3.57001e-06
3.54043e-06
3.50587e-06
3.46589e-06
3.42118e-06
3.37202e-06
3.31814e-06
3.26072e-06
3.20031e-06
3.13617e-06
3.06932e-06
3.00044e-06
2.92916e-06
2.85619e-06
2.7818e-06
2.70598e-06
2.62938e-06
2.5521e-06
2.47429e-06
2.39636e-06
2.31843e-06
2.24089e-06
2.16378e-06
2.0874e-06
2.01199e-06
1.93756e-06
1.86442e-06
1.79259e-06
1.72211e-06
1.65322e-06
1.58579e-06
1.51993e-06
1.45557e-06
1.39261e-06
1.33094e-06
1.27027e-06
1.2104e-06
1.1511e-06
1.09235e-06
1.03435e-06
9.77484e-07
9.22212e-07
8.68727e-07
8.16869e-07
7.66065e-07
7.15667e-07
6.65408e-07
6.1551e-07
5.67012e-07
5.20044e-07
4.76436e-07
4.38561e-07
4.07412e-07
3.78734e-07
3.49194e-07
3.21475e-07
2.81366e-07
2.62289e-07
0.000263786
0
1.26714e-08
2.23803e-07
2.70173e-06
3.2176e-06
3.05086e-06
2.90731e-06
2.89766e-06
2.9373e-06
2.96451e-06
2.98029e-06
2.99226e-06
2.99839e-06
2.9991e-06
2.99442e-06
2.98422e-06
2.96931e-06
2.94963e-06
2.92524e-06
2.89652e-06
2.86402e-06
2.82805e-06
2.78834e-06
2.74595e-06
2.70089e-06
2.65321e-06
2.6034e-06
2.5516e-06
2.49815e-06
2.44301e-06
2.3864e-06
2.32889e-06
2.2701e-06
2.21044e-06
2.15022e-06
2.08931e-06
2.02805e-06
1.96654e-06
1.90486e-06
1.84323e-06
1.78178e-06
1.7206e-06
1.65985e-06
1.59965e-06
1.54017e-06
1.4814e-06
1.42353e-06
1.36656e-06
1.31047e-06
1.25521e-06
1.20056e-06
1.14641e-06
1.09259e-06
1.0391e-06
9.86157e-07
9.34125e-07
8.83395e-07
8.34135e-07
7.86174e-07
7.38976e-07
6.91981e-07
6.44999e-07
5.98271e-07
5.52825e-07
5.08663e-07
4.67488e-07
4.3173e-07
4.02408e-07
3.7528e-07
3.47162e-07
0
2.45422e-10
5.2507e-09
1.8762e-06
2.72927e-06
2.45158e-06
2.35832e-06
2.35257e-06
2.3956e-06
2.43375e-06
2.45946e-06
2.48083e-06
2.4983e-06
2.51061e-06
2.51842e-06
2.52202e-06
2.52078e-06
2.51517e-06
2.50552e-06
2.49181e-06
2.47434e-06
2.45339e-06
2.42935e-06
2.40212e-06
2.37236e-06
2.34026e-06
2.3057e-06
2.26923e-06
2.23097e-06
2.19116e-06
2.14961e-06
2.10677e-06
2.06294e-06
2.01766e-06
1.97149e-06
1.92449e-06
1.87658e-06
1.82804e-06
1.77886e-06
1.72916e-06
1.67907e-06
1.62866e-06
1.57805e-06
1.52733e-06
1.47659e-06
1.42603e-06
1.37565e-06
1.32564e-06
1.27605e-06
1.22688e-06
1.17813e-06
1.12966e-06
1.08138e-06
1.03316e-06
9.85066e-07
9.3728e-07
8.90151e-07
8.44025e-07
7.9903e-07
7.55006e-07
7.11472e-07
6.67953e-07
6.24321e-07
5.80848e-07
5.38528e-07
4.97234e-07
0
6.65778e-08
1.37239e-06
2.25202e-06
2.01119e-06
1.89948e-06
1.92124e-06
1.96e-06
2.00137e-06
2.03158e-06
2.05692e-06
2.07939e-06
2.0979e-06
2.11261e-06
2.1233e-06
2.13055e-06
2.13395e-06
2.13344e-06
2.12974e-06
2.12271e-06
2.11265e-06
2.09963e-06
2.08399e-06
2.06584e-06
2.04554e-06
2.02317e-06
1.99873e-06
1.9727e-06
1.94504e-06
1.91593e-06
1.88533e-06
1.85348e-06
1.82055e-06
1.78634e-06
1.75115e-06
1.715e-06
1.67786e-06
1.63993e-06
1.60114e-06
1.56162e-06
1.52146e-06
1.48065e-06
1.43934e-06
1.39755e-06
1.3554e-06
1.31304e-06
1.27048e-06
1.22792e-06
1.18539e-06
1.14293e-06
1.10058e-06
1.05821e-06
1.01578e-06
9.73175e-07
9.30478e-07
8.87861e-07
8.45641e-07
8.04121e-07
7.63402e-07
7.23338e-07
6.83509e-07
5.4025e-08
8.88997e-07
1.83295e-06
1.65058e-06
1.54967e-06
1.57724e-06
1.62063e-06
1.65783e-06
1.68952e-06
1.71567e-06
1.73955e-06
1.76062e-06
1.77834e-06
1.79308e-06
1.80425e-06
1.81257e-06
1.81779e-06
1.81972e-06
1.8191e-06
1.8157e-06
1.80984e-06
1.80154e-06
1.7912e-06
1.77883e-06
1.7647e-06
1.74894e-06
1.73154e-06
1.71286e-06
1.69286e-06
1.67165e-06
1.64924e-06
1.62579e-06
1.60134e-06
1.57578e-06
1.54935e-06
1.52195e-06
1.49362e-06
1.46448e-06
1.43439e-06
1.40348e-06
1.37182e-06
1.33935e-06
1.30615e-06
1.27229e-06
1.23783e-06
1.20287e-06
1.16748e-06
1.13179e-06
1.09588e-06
1.05978e-06
1.02354e-06
9.87048e-07
9.50287e-07
9.13178e-07
8.93762e-07
1.32854e-06
1.39869e-06
1.27146e-06
1.3114e-06
1.35218e-06
1.38643e-06
1.41529e-06
1.44101e-06
1.46401e-06
1.48549e-06
1.50412e-06
1.51997e-06
1.53346e-06
1.5441e-06
1.55233e-06
1.55794e-06
1.56103e-06
1.56194e-06
1.56064e-06
1.55733e-06
1.55215e-06
1.54516e-06
1.53665e-06
1.52677e-06
1.51545e-06
1.50296e-06
1.4894e-06
1.47479e-06
1.45922e-06
1.44268e-06
1.42537e-06
1.40715e-06
1.38808e-06
1.3683e-06
1.34762e-06
1.32618e-06
1.30394e-06
1.28083e-06
1.25697e-06
1.23228e-06
1.20676e-06
)
;

boundaryField
{
    inlet
    {
        type            calculated;
        value           nonuniform List<scalar> 
13
(
5.62824e-06
5.70355e-06
5.76978e-06
5.82943e-06
5.88724e-06
5.94699e-06
6.02452e-06
6.04714e-06
5.99039e-06
5.95664e-06
5.91246e-06
5.87432e-06
5.84318e-06
)
;
    }
    outlet
    {
        type            calculated;
        value           nonuniform List<scalar> 0();
    }
    walls
    {
        type            calculated;
        value           uniform 0;
    }
    frontAndBack
    {
        type            empty;
    }
    procBoundary2to1
    {
        type            processor;
        value           nonuniform List<scalar> 
84
(
49.5995
1.30933
0.203542
0.00215602
0.00131228
1.59152e-08
3.03143e-05
2.23941e-05
2.42688e-05
2.11668e-05
2.11464e-05
1.99611e-05
1.92638e-05
1.83334e-05
1.74609e-05
1.65371e-05
1.56065e-05
1.46571e-05
1.36979e-05
1.27336e-05
1.17692e-05
1.08107e-05
9.86516e-06
8.94007e-06
8.04283e-06
7.18145e-06
6.36453e-06
5.60112e-06
4.90048e-06
4.27298e-06
3.72905e-06
3.27852e-06
2.92926e-06
2.68342e-06
2.53448e-06
2.46588e-06
2.45502e-06
2.47848e-06
2.47848e-06
3.15566e-06
3.0887e-06
3.02843e-06
2.96786e-06
2.9024e-06
2.82942e-06
2.74785e-06
2.65771e-06
2.55984e-06
2.45543e-06
2.34587e-06
2.23261e-06
2.11687e-06
1.99968e-06
1.99968e-06
1.93699e-06
1.80998e-06
1.68526e-06
1.56364e-06
1.44626e-06
1.33447e-06
1.22924e-06
1.13069e-06
1.03792e-06
1.03792e-06
9.59219e-07
8.72306e-07
7.88575e-07
7.08884e-07
6.34316e-07
5.66875e-07
5.11066e-07
4.66341e-07
4.26177e-07
3.8741e-07
3.8741e-07
3.53352e-07
3.15318e-07
2.67228e-07
2.04061e-07
1.5978e-07
1.74267e-07
4.46464e-07
8.71717e-07
1.67019e-06
)
;
    }
    procBoundary2to3
    {
        type            processor;
        value           nonuniform List<scalar> 
88
(
7.04907e-07
1.38634e-06
1.57346e-07
7.04907e-07
6.44824e-07
1.73409e-07
1.57346e-07
2.78873e-07
3.20738e-07
2.82354e-07
1.73409e-07
2.64901e-07
4.58567e-07
4.25002e-07
3.97542e-07
3.71982e-07
3.20738e-07
3.45342e-07
6.43521e-07
6.03312e-07
5.63167e-07
5.2404e-07
4.58567e-07
4.8567e-07
8.75772e-07
8.38238e-07
8.00857e-07
7.63882e-07
7.27399e-07
6.91281e-07
6.43521e-07
6.5517e-07
1.18044e-06
1.15339e-06
1.1256e-06
1.09716e-06
1.06817e-06
1.03869e-06
1.0088e-06
9.78571e-07
9.48022e-07
9.17088e-07
8.85719e-07
8.75772e-07
8.53856e-07
1.20367e-06
1.06383e-06
1.09098e-06
1.09222e-06
1.14196e-06
1.16854e-06
1.19477e-06
1.21766e-06
1.2393e-06
1.25919e-06
1.27725e-06
1.293e-06
1.30654e-06
1.31833e-06
1.32773e-06
1.33505e-06
1.34038e-06
1.34378e-06
1.3454e-06
1.34525e-06
1.34347e-06
1.34025e-06
1.33568e-06
1.32985e-06
1.32287e-06
1.31488e-06
1.30598e-06
1.29616e-06
1.28557e-06
1.2742e-06
1.26212e-06
1.24936e-06
1.2359e-06
1.2218e-06
1.20705e-06
1.19159e-06
1.17551e-06
1.15867e-06
1.14111e-06
1.12287e-06
1.10384e-06
1.18044e-06
1.08404e-06
)
;
    }
    procBoundary2to6
    {
        type            processor;
        value           nonuniform List<scalar> 
13
(
15.1689
10.9766
7.14576
4.68639
2.84531
1.42007
0.470176
0.0624773
0.000540477
0.000133515
0
4.16782e-15
4.8549e-11
)
;
    }
}


// ************************************************************************* //
