/*--------------------------------*- C++ -*----------------------------------*\
| =========                 |                                                 |
| \\      /  F ield         | OpenFOAM: The Open Source CFD Toolbox           |
|  \\    /   O peration     | Version:  2306                                  |
|   \\  /    A nd           | Website:  www.openfoam.com                      |
|    \\/     M anipulation  |                                                 |
\*---------------------------------------------------------------------------*/
FoamFile
{
    version     2.0;
    format      ascii;
    arch        "LSB;label=32;scalar=64";
    class       volScalarField;
    location    "325";
    object      turbulenceProperties:nuEff;
}
// * * * * * * * * * * * * * * * * * * * * * * * * * * * * * * * * * * * * * //

dimensions      [0 2 -1 0 0 0 0];

internalField   nonuniform List<scalar> 
1340
(
0.106584
0.104439
0.102004
0.0924707
0.0700033
0.0717351
0.0753071
0.0784681
0.0396097
0.0470101
0.0536799
0.0631724
0.00693087
0.0131215
0.021843
0.0392293
0.00165892
0.000746364
0.0016546
0.0137003
1.00031e-05
0.000173723
0.000440513
0.00240689
1.11688e-05
1.0011e-05
1e-05
0.000582743
1.55852e-05
1.29992e-05
1.00187e-05
1e-05
1.62149e-05
1.66444e-05
1.47252e-05
1.00034e-05
1.61944e-05
1.5838e-05
1.88896e-05
1.07504e-05
1.61653e-05
1.58599e-05
1.71773e-05
1.44545e-05
1.61195e-05
1.60612e-05
1.62136e-05
1.62124e-05
1.61029e-05
1.61174e-05
1.60549e-05
1.62683e-05
1.61021e-05
1.61128e-05
1.60821e-05
1.61499e-05
1.61032e-05
1.61056e-05
1.61023e-05
1.61082e-05
1.61032e-05
1.61034e-05
1.61058e-05
1.6103e-05
1.61029e-05
1.6103e-05
1.6105e-05
1.61037e-05
1.61026e-05
1.61029e-05
1.61041e-05
1.61039e-05
1.61025e-05
1.61027e-05
1.61036e-05
1.61036e-05
1.61024e-05
1.61025e-05
1.61034e-05
1.61033e-05
1.61023e-05
1.61024e-05
1.61031e-05
1.61031e-05
1.61023e-05
1.61023e-05
1.61029e-05
1.61029e-05
1.61022e-05
1.61023e-05
1.61028e-05
1.61028e-05
1.61022e-05
1.61022e-05
1.61026e-05
1.61026e-05
1.61021e-05
1.61021e-05
1.61024e-05
1.61025e-05
1.6102e-05
1.6102e-05
1.61022e-05
1.61023e-05
1.61018e-05
1.61019e-05
1.61021e-05
1.61022e-05
1.61016e-05
1.61018e-05
1.61019e-05
1.61021e-05
1.61014e-05
1.61016e-05
1.61017e-05
1.61019e-05
1.61012e-05
1.61014e-05
1.61015e-05
1.61018e-05
1.61009e-05
1.61012e-05
1.61013e-05
1.61017e-05
1.61006e-05
1.61009e-05
1.61011e-05
1.61015e-05
1.61002e-05
1.61006e-05
1.61008e-05
1.61013e-05
1.60999e-05
1.61002e-05
1.61005e-05
1.6101e-05
1.60994e-05
1.60998e-05
1.61001e-05
1.61007e-05
1.60989e-05
1.60994e-05
1.60996e-05
1.61003e-05
1.60984e-05
1.60988e-05
1.60991e-05
1.60999e-05
1.60978e-05
1.60982e-05
1.60986e-05
1.60993e-05
1.60968e-05
1.60971e-05
1.60976e-05
1.60979e-05
1.60987e-05
1.6096e-05
1.60964e-05
1.60968e-05
1.60972e-05
1.6098e-05
1.60952e-05
1.60956e-05
1.6096e-05
1.60964e-05
1.60972e-05
1.60944e-05
1.60947e-05
1.60952e-05
1.60955e-05
1.60963e-05
1.60935e-05
1.60938e-05
1.60942e-05
1.60946e-05
1.60954e-05
1.60925e-05
1.60928e-05
1.60933e-05
1.60936e-05
1.60944e-05
1.60916e-05
1.60919e-05
1.60923e-05
1.60926e-05
1.60934e-05
1.60906e-05
1.60909e-05
1.60913e-05
1.60916e-05
1.60923e-05
1.60896e-05
1.60899e-05
1.60903e-05
1.60906e-05
1.60913e-05
1.60887e-05
1.60889e-05
1.60893e-05
1.60896e-05
1.60903e-05
1.60877e-05
1.6088e-05
1.60884e-05
1.60886e-05
1.60893e-05
1.60868e-05
1.6087e-05
1.60874e-05
1.60877e-05
1.60883e-05
1.60858e-05
1.6086e-05
1.60864e-05
1.60867e-05
1.60873e-05
1.60846e-05
1.60849e-05
1.60852e-05
1.60855e-05
1.60861e-05
1.60831e-05
1.60833e-05
1.60835e-05
1.60839e-05
1.60841e-05
1.60847e-05
1.60815e-05
1.60817e-05
1.60819e-05
1.60822e-05
1.60825e-05
1.60831e-05
1.60796e-05
1.60798e-05
1.608e-05
1.60802e-05
1.60805e-05
1.60811e-05
1.60776e-05
1.60777e-05
1.60778e-05
1.60781e-05
1.60782e-05
1.60788e-05
1.60755e-05
1.60756e-05
1.60757e-05
1.60758e-05
1.6076e-05
1.60764e-05
1.60736e-05
1.60736e-05
1.60737e-05
1.60738e-05
1.60739e-05
1.60742e-05
1.60722e-05
1.60722e-05
1.60723e-05
1.60723e-05
1.60724e-05
1.60726e-05
1.60716e-05
1.60716e-05
1.60716e-05
1.60717e-05
1.60717e-05
1.60717e-05
1.60722e-05
1.60722e-05
1.60723e-05
1.60723e-05
1.60723e-05
1.60722e-05
1.60737e-05
1.60738e-05
1.60738e-05
1.60739e-05
1.60739e-05
1.6074e-05
1.60738e-05
1.60759e-05
1.60761e-05
1.60762e-05
1.60763e-05
1.60764e-05
1.60765e-05
1.60764e-05
1.60789e-05
1.60792e-05
1.60794e-05
1.60796e-05
1.60797e-05
1.60798e-05
1.60797e-05
1.60825e-05
1.60828e-05
1.60831e-05
1.60834e-05
1.60836e-05
1.60838e-05
1.60837e-05
1.60864e-05
1.60868e-05
1.60871e-05
1.60874e-05
1.60877e-05
1.6088e-05
1.60881e-05
1.60903e-05
1.60908e-05
1.60912e-05
1.60916e-05
1.60919e-05
1.60923e-05
1.60924e-05
1.60936e-05
1.60941e-05
1.60946e-05
1.6095e-05
1.60955e-05
1.60959e-05
1.60962e-05
1.60959e-05
1.60964e-05
1.60969e-05
1.60974e-05
1.60979e-05
1.60985e-05
1.60989e-05
1.60976e-05
1.60982e-05
1.60987e-05
1.60992e-05
1.60998e-05
1.61004e-05
1.61009e-05
1.6099e-05
1.60995e-05
1.61001e-05
1.61006e-05
1.61012e-05
1.61018e-05
1.61024e-05
1.60997e-05
1.61003e-05
1.61008e-05
1.61014e-05
1.6102e-05
1.61026e-05
1.61033e-05
1.61039e-05
1.61017e-05
1.61024e-05
1.61031e-05
1.61038e-05
1.61045e-05
1.61052e-05
1.6106e-05
1.61067e-05
1.61056e-05
1.61065e-05
1.61074e-05
1.61084e-05
1.61093e-05
1.61103e-05
1.61114e-05
1.61123e-05
1.61115e-05
1.61127e-05
1.61139e-05
1.61152e-05
1.61164e-05
1.61177e-05
1.61192e-05
1.61205e-05
1.61163e-05
1.61175e-05
1.61188e-05
1.612e-05
1.61213e-05
1.61226e-05
1.61241e-05
1.61256e-05
1.61142e-05
1.6115e-05
1.61157e-05
1.61165e-05
1.61172e-05
1.6118e-05
1.61188e-05
1.61198e-05
1.61069e-05
1.61079e-05
1.61089e-05
1.611e-05
1.61111e-05
1.61123e-05
1.61138e-05
1.61149e-05
1.61136e-05
1.61166e-05
1.61197e-05
1.61228e-05
1.6126e-05
1.61295e-05
1.61334e-05
1.61371e-05
1.61102e-05
1.61114e-05
1.61126e-05
1.61137e-05
1.61147e-05
1.61156e-05
1.61166e-05
1.61174e-05
0.126646
0.0830969
0.0542763
0.0293332
0.00864508
0.000758645
0.000176633
1e-05
1.00047e-05
1.15547e-05
1.53766e-05
1.63536e-05
1.62514e-05
1.61404e-05
1.61115e-05
1.61091e-05
1.61093e-05
1.61087e-05
1.61077e-05
1.61068e-05
1.61061e-05
1.61055e-05
1.6105e-05
1.61045e-05
1.61041e-05
1.61037e-05
1.61034e-05
1.61031e-05
1.61028e-05
1.61026e-05
1.61024e-05
1.61022e-05
1.61019e-05
1.61016e-05
1.61012e-05
1.61008e-05
1.61003e-05
1.60997e-05
1.6099e-05
1.60983e-05
1.60975e-05
1.60966e-05
1.60956e-05
1.60946e-05
1.60936e-05
1.60925e-05
1.60915e-05
1.60904e-05
1.60895e-05
1.60885e-05
1.60874e-05
1.60862e-05
1.60848e-05
1.60831e-05
1.60811e-05
1.60787e-05
1.60764e-05
1.60742e-05
1.60726e-05
1.60718e-05
1.60723e-05
1.6074e-05
1.60766e-05
1.60801e-05
1.60841e-05
1.60885e-05
1.60929e-05
1.60967e-05
1.60995e-05
1.61014e-05
1.61029e-05
1.61044e-05
1.61073e-05
1.61133e-05
1.61217e-05
1.61265e-05
1.61203e-05
1.6116e-05
1.61395e-05
1.61182e-05
0.149934
0.0867356
0.0431853
0.0174936
0.00349713
1.001e-05
1e-05
1.00002e-05
1.00619e-05
1.38089e-05
1.61593e-05
1.63595e-05
1.62001e-05
1.61284e-05
1.61153e-05
1.61146e-05
1.61138e-05
1.61123e-05
1.61108e-05
1.61095e-05
1.61084e-05
1.61074e-05
1.61066e-05
1.61059e-05
1.61053e-05
1.61047e-05
1.61043e-05
1.61039e-05
1.61035e-05
1.61032e-05
1.61029e-05
1.61027e-05
1.61023e-05
1.6102e-05
1.61016e-05
1.61011e-05
1.61006e-05
1.61e-05
1.60993e-05
1.60985e-05
1.60977e-05
1.60967e-05
1.60958e-05
1.60947e-05
1.60937e-05
1.60926e-05
1.60916e-05
1.60905e-05
1.60896e-05
1.60886e-05
1.60875e-05
1.60863e-05
1.60849e-05
1.60831e-05
1.6081e-05
1.60786e-05
1.60762e-05
1.60741e-05
1.60725e-05
1.60718e-05
1.60725e-05
1.60742e-05
1.60769e-05
1.60804e-05
1.60846e-05
1.6089e-05
1.60934e-05
1.60972e-05
1.61e-05
1.61019e-05
1.61033e-05
1.61049e-05
1.61079e-05
1.61141e-05
1.61226e-05
1.61271e-05
1.61207e-05
1.61169e-05
1.6141e-05
1.61187e-05
0.151292
0.080841
0.0295191
0.00714942
0.000490034
0.000103562
1e-05
1.00037e-05
1.1171e-05
1.6047e-05
1.6401e-05
1.6283e-05
1.61562e-05
1.6123e-05
1.61194e-05
1.61186e-05
1.61169e-05
1.61149e-05
1.6113e-05
1.61114e-05
1.611e-05
1.61088e-05
1.61078e-05
1.6107e-05
1.61062e-05
1.61056e-05
1.6105e-05
1.61045e-05
1.61041e-05
1.61038e-05
1.61035e-05
1.61031e-05
1.61028e-05
1.61024e-05
1.61019e-05
1.61014e-05
1.61009e-05
1.61002e-05
1.60995e-05
1.60987e-05
1.60978e-05
1.60969e-05
1.60959e-05
1.60949e-05
1.60938e-05
1.60927e-05
1.60917e-05
1.60907e-05
1.60897e-05
1.60887e-05
1.60876e-05
1.60864e-05
1.60849e-05
1.60831e-05
1.60809e-05
1.60785e-05
1.60761e-05
1.6074e-05
1.60724e-05
1.60719e-05
1.60726e-05
1.60744e-05
1.60772e-05
1.60808e-05
1.60851e-05
1.60895e-05
1.6094e-05
1.60978e-05
1.61005e-05
1.61024e-05
1.61038e-05
1.61054e-05
1.61086e-05
1.6115e-05
1.61237e-05
1.61277e-05
1.61211e-05
1.61181e-05
1.61426e-05
1.61192e-05
0.135215
0.064255
0.0149617
0.000808617
0.000201544
1e-05
1.00003e-05
1.00953e-05
1.43385e-05
1.69123e-05
1.63208e-05
1.62071e-05
1.61326e-05
1.61235e-05
1.61228e-05
1.61212e-05
1.61188e-05
1.61164e-05
1.61144e-05
1.61126e-05
1.61111e-05
1.61098e-05
1.61087e-05
1.61077e-05
1.61069e-05
1.61062e-05
1.61056e-05
1.61051e-05
1.61047e-05
1.61043e-05
1.61039e-05
1.61036e-05
1.61032e-05
1.61028e-05
1.61023e-05
1.61018e-05
1.61012e-05
1.61005e-05
1.60998e-05
1.60989e-05
1.6098e-05
1.60971e-05
1.60961e-05
1.6095e-05
1.60939e-05
1.60929e-05
1.60918e-05
1.60908e-05
1.60898e-05
1.60888e-05
1.60877e-05
1.60864e-05
1.60849e-05
1.6083e-05
1.60808e-05
1.60784e-05
1.60759e-05
1.60738e-05
1.60723e-05
1.60719e-05
1.60727e-05
1.60747e-05
1.60776e-05
1.60813e-05
1.60856e-05
1.60901e-05
1.60946e-05
1.60984e-05
1.6101e-05
1.61029e-05
1.61042e-05
1.61059e-05
1.61093e-05
1.61159e-05
1.61247e-05
1.61283e-05
1.61215e-05
1.61193e-05
1.61443e-05
1.61196e-05
0.104435
0.0387557
0.0029863
0.000742033
1e-05
1e-05
1.00083e-05
1.23632e-05
1.68702e-05
1.67357e-05
1.61947e-05
1.61625e-05
1.61253e-05
1.61267e-05
1.61254e-05
1.61228e-05
1.612e-05
1.61175e-05
1.61153e-05
1.61135e-05
1.61119e-05
1.61105e-05
1.61093e-05
1.61083e-05
1.61075e-05
1.61067e-05
1.61061e-05
1.61056e-05
1.61052e-05
1.61048e-05
1.61044e-05
1.6104e-05
1.61036e-05
1.61031e-05
1.61026e-05
1.61021e-05
1.61015e-05
1.61008e-05
1.61e-05
1.60992e-05
1.60983e-05
1.60973e-05
1.60962e-05
1.60952e-05
1.60941e-05
1.6093e-05
1.6092e-05
1.60909e-05
1.60899e-05
1.60889e-05
1.60878e-05
1.60865e-05
1.60849e-05
1.6083e-05
1.60807e-05
1.60782e-05
1.60758e-05
1.60737e-05
1.60723e-05
1.60719e-05
1.60729e-05
1.60749e-05
1.6078e-05
1.60818e-05
1.60861e-05
1.60907e-05
1.60952e-05
1.6099e-05
1.61016e-05
1.61034e-05
1.61047e-05
1.61064e-05
1.611e-05
1.6117e-05
1.61258e-05
1.6129e-05
1.6122e-05
1.61207e-05
1.6146e-05
1.612e-05
0.0648852
0.0145864
0.00360026
1e-05
1e-05
1e-05
1.12515e-05
1.61616e-05
1.72232e-05
1.63432e-05
1.61351e-05
1.61442e-05
1.61265e-05
1.61299e-05
1.61268e-05
1.61238e-05
1.61208e-05
1.61182e-05
1.6116e-05
1.61141e-05
1.61125e-05
1.61111e-05
1.61099e-05
1.61088e-05
1.6108e-05
1.61072e-05
1.61066e-05
1.61061e-05
1.61056e-05
1.61052e-05
1.61048e-05
1.61044e-05
1.6104e-05
1.61035e-05
1.6103e-05
1.61024e-05
1.61018e-05
1.61011e-05
1.61003e-05
1.60994e-05
1.60985e-05
1.60975e-05
1.60964e-05
1.60953e-05
1.60942e-05
1.60932e-05
1.60921e-05
1.60911e-05
1.60901e-05
1.60891e-05
1.60879e-05
1.60866e-05
1.60849e-05
1.60829e-05
1.60806e-05
1.60781e-05
1.60756e-05
1.60735e-05
1.60722e-05
1.6072e-05
1.60731e-05
1.60752e-05
1.60784e-05
1.60823e-05
1.60867e-05
1.60913e-05
1.60958e-05
1.60996e-05
1.61022e-05
1.61039e-05
1.61052e-05
1.6107e-05
1.61109e-05
1.61181e-05
1.6127e-05
1.61297e-05
1.61224e-05
1.61223e-05
0.0258043
0.000615956
0.000143563
1e-05
1.00024e-05
1.06915e-05
1.57179e-05
1.74297e-05
1.66354e-05
1.61301e-05
1.61316e-05
1.61384e-05
1.61302e-05
1.61315e-05
1.61274e-05
1.61242e-05
1.61212e-05
1.61187e-05
1.61165e-05
1.61145e-05
1.61129e-05
1.61115e-05
1.61103e-05
1.61093e-05
1.61084e-05
1.61077e-05
1.61071e-05
1.61065e-05
1.61061e-05
1.61057e-05
1.61053e-05
1.61048e-05
1.61044e-05
1.61039e-05
1.61034e-05
1.61028e-05
1.61021e-05
1.61013e-05
1.61005e-05
1.60996e-05
1.60987e-05
1.60976e-05
1.60966e-05
1.60955e-05
1.60944e-05
1.60933e-05
1.60923e-05
1.60912e-05
1.60902e-05
1.60892e-05
1.6088e-05
1.60866e-05
1.60849e-05
1.60828e-05
1.60804e-05
1.60779e-05
1.60754e-05
1.60734e-05
1.60721e-05
1.6072e-05
1.60733e-05
1.60756e-05
1.60788e-05
1.60828e-05
1.60873e-05
1.6092e-05
1.60965e-05
1.61003e-05
1.61028e-05
1.61044e-05
1.61058e-05
1.61076e-05
1.61117e-05
1.61193e-05
1.61282e-05
1.61303e-05
0.00297176
0.00074301
1e-05
1.0001e-05
1.02999e-05
1.56051e-05
1.77024e-05
1.68521e-05
1.6197e-05
1.60972e-05
1.61422e-05
1.61367e-05
1.61332e-05
1.61317e-05
1.61274e-05
1.61242e-05
1.61213e-05
1.61188e-05
1.61167e-05
1.61148e-05
1.61132e-05
1.61118e-05
1.61106e-05
1.61096e-05
1.61088e-05
1.61081e-05
1.61075e-05
1.6107e-05
1.61065e-05
1.61061e-05
1.61057e-05
1.61053e-05
1.61048e-05
1.61043e-05
1.61037e-05
1.61031e-05
1.61024e-05
1.61016e-05
1.61008e-05
1.60999e-05
1.60989e-05
1.60978e-05
1.60967e-05
1.60956e-05
1.60945e-05
1.60935e-05
1.60924e-05
1.60914e-05
1.60904e-05
1.60893e-05
1.60881e-05
1.60867e-05
1.60849e-05
1.60827e-05
1.60803e-05
1.60777e-05
1.60752e-05
1.60732e-05
1.60721e-05
1.60721e-05
1.60735e-05
1.60759e-05
1.60793e-05
1.60834e-05
1.6088e-05
1.60927e-05
1.60973e-05
1.6101e-05
1.61034e-05
1.6105e-05
1.61063e-05
1.61083e-05
1.61127e-05
1.61206e-05
0.000819487
1e-05
1.00001e-05
1.00488e-05
1.58458e-05
1.80069e-05
1.70087e-05
1.62526e-05
1.60815e-05
1.61272e-05
1.61456e-05
1.61363e-05
1.61344e-05
1.61309e-05
1.61269e-05
1.61239e-05
1.61212e-05
1.61188e-05
1.61167e-05
1.61149e-05
1.61134e-05
1.61121e-05
1.61109e-05
1.611e-05
1.61092e-05
1.61085e-05
1.61079e-05
1.61074e-05
1.6107e-05
1.61065e-05
1.61061e-05
1.61057e-05
1.61052e-05
1.61047e-05
1.61041e-05
1.61034e-05
1.61027e-05
1.61019e-05
1.6101e-05
1.61001e-05
1.60991e-05
1.6098e-05
1.60969e-05
1.60958e-05
1.60947e-05
1.60936e-05
1.60926e-05
1.60916e-05
1.60906e-05
1.60895e-05
1.60882e-05
1.60867e-05
1.60848e-05
1.60826e-05
1.60801e-05
1.60775e-05
1.6075e-05
1.60731e-05
1.6072e-05
1.60722e-05
1.60738e-05
1.60763e-05
1.60798e-05
1.60841e-05
1.60887e-05
1.60934e-05
1.6098e-05
1.61018e-05
1.61041e-05
1.61056e-05
1.61069e-05
1e-05
1e-05
1e-05
1.46517e-05
1.87689e-05
1.7022e-05
1.62772e-05
1.60722e-05
1.61117e-05
1.61471e-05
1.61426e-05
1.61362e-05
1.61338e-05
1.61297e-05
1.61263e-05
1.61234e-05
1.61208e-05
1.61186e-05
1.61167e-05
1.6115e-05
1.61135e-05
1.61122e-05
1.61112e-05
1.61103e-05
1.61095e-05
1.61089e-05
1.61083e-05
1.61079e-05
1.61074e-05
1.6107e-05
1.61065e-05
1.61061e-05
1.61056e-05
1.6105e-05
1.61044e-05
1.61037e-05
1.6103e-05
1.61022e-05
1.61013e-05
1.61003e-05
1.60993e-05
1.60982e-05
1.60971e-05
1.6096e-05
1.60949e-05
1.60938e-05
1.60928e-05
1.60917e-05
1.60907e-05
1.60896e-05
1.60883e-05
1.60867e-05
1.60848e-05
1.60825e-05
1.60799e-05
1.60772e-05
1.60748e-05
1.60729e-05
1.6072e-05
1.60724e-05
1.60741e-05
1.60768e-05
1.60804e-05
1.60847e-05
1.60895e-05
1.60942e-05
1e-05
1.00142e-05
1.36563e-05
1.92987e-05
1.71235e-05
1.61962e-05
1.60739e-05
1.61004e-05
1.61453e-05
1.61476e-05
1.61392e-05
1.61354e-05
1.61321e-05
1.61283e-05
1.61254e-05
1.61227e-05
1.61204e-05
1.61183e-05
1.61165e-05
1.61149e-05
1.61135e-05
1.61124e-05
1.61114e-05
1.61106e-05
1.61099e-05
1.61093e-05
1.61088e-05
1.61083e-05
1.61078e-05
1.61074e-05
1.6107e-05
1.61065e-05
1.6106e-05
1.61054e-05
1.61047e-05
1.6104e-05
1.61033e-05
1.61024e-05
1.61015e-05
1.61005e-05
1.60994e-05
1.60984e-05
1.60972e-05
1.60961e-05
1.6095e-05
1.6094e-05
1.60929e-05
1.60919e-05
1.60909e-05
1.60897e-05
1.60884e-05
1.60867e-05
1.60847e-05
1.60823e-05
1.60797e-05
1.6077e-05
1.60746e-05
1.60728e-05
1.6072e-05
1.60725e-05
1.60744e-05
1.00112e-05
1.29076e-05
1.8687e-05
1.72757e-05
1.6083e-05
1.60541e-05
1.61051e-05
1.61426e-05
1.61506e-05
1.6142e-05
1.61368e-05
1.61337e-05
1.61302e-05
1.6127e-05
1.61244e-05
1.61219e-05
1.61198e-05
1.61179e-05
1.61162e-05
1.61148e-05
1.61136e-05
1.61125e-05
1.61116e-05
1.61109e-05
1.61102e-05
1.61097e-05
1.61092e-05
1.61087e-05
1.61083e-05
1.61078e-05
1.61074e-05
1.61069e-05
1.61063e-05
1.61057e-05
1.61051e-05
1.61043e-05
1.61035e-05
1.61027e-05
1.61017e-05
1.61007e-05
1.60996e-05
1.60985e-05
1.60974e-05
1.60963e-05
1.60952e-05
1.60941e-05
1.60931e-05
1.60921e-05
1.6091e-05
1.60899e-05
1.60884e-05
1.60867e-05
1.60846e-05
1.60821e-05
1.34339e-05
1.79766e-05
1.72065e-05
1.60488e-05
1.60115e-05
1.61198e-05
1.61446e-05
1.61513e-05
1.6144e-05
1.61378e-05
1.61346e-05
1.61314e-05
1.61283e-05
1.61256e-05
1.61232e-05
1.61211e-05
1.61192e-05
1.61175e-05
1.6116e-05
1.61147e-05
1.61136e-05
1.61127e-05
1.61119e-05
1.61112e-05
1.61106e-05
1.61101e-05
1.61096e-05
1.61092e-05
1.61087e-05
1.61083e-05
1.61078e-05
1.61073e-05
1.61067e-05
1.61061e-05
1.61054e-05
1.61046e-05
1.61038e-05
1.61029e-05
1.61019e-05
1.61009e-05
1.60998e-05
1.60987e-05
)
;

boundaryField
{
    inlet
    {
        type            calculated;
        value           uniform 2e-05;
    }
    outlet
    {
        type            calculated;
        value           nonuniform List<scalar> 0();
    }
    walls
    {
        type            calculated;
        value           nonuniform List<scalar> 4(0.00273748 0.00267321 0.00258241 0.00232608);
    }
    frontAndBack
    {
        type            empty;
    }
    procBoundary2to1
    {
        type            processor;
        value           nonuniform List<scalar> 
84
(
0.107981
0.0680128
0.0311658
0.00306633
0.000725952
1e-05
1.53247e-05
1.62914e-05
1.61451e-05
1.6092e-05
1.60937e-05
1.61017e-05
1.61048e-05
1.61042e-05
1.61033e-05
1.61028e-05
1.61026e-05
1.61024e-05
1.61024e-05
1.61023e-05
1.61022e-05
1.61022e-05
1.61022e-05
1.61021e-05
1.61019e-05
1.61018e-05
1.61016e-05
1.61014e-05
1.61011e-05
1.61009e-05
1.61006e-05
1.61003e-05
1.60999e-05
1.60995e-05
1.60991e-05
1.60986e-05
1.6098e-05
1.60974e-05
1.60974e-05
1.60964e-05
1.60957e-05
1.60949e-05
1.60941e-05
1.60932e-05
1.60922e-05
1.60913e-05
1.60903e-05
1.60893e-05
1.60884e-05
1.60875e-05
1.60865e-05
1.60855e-05
1.60844e-05
1.60844e-05
1.60829e-05
1.60814e-05
1.60795e-05
1.60775e-05
1.60754e-05
1.60736e-05
1.60722e-05
1.60716e-05
1.60722e-05
1.60722e-05
1.60735e-05
1.60757e-05
1.60787e-05
1.60822e-05
1.6086e-05
1.60899e-05
1.60931e-05
1.60953e-05
1.60971e-05
1.60984e-05
1.60984e-05
1.60991e-05
1.6101e-05
1.61046e-05
1.61102e-05
1.61151e-05
1.61134e-05
1.6106e-05
1.61107e-05
1.61088e-05
)
;
    }
    procBoundary2to3
    {
        type            processor;
        value           nonuniform List<scalar> 
88
(
1.61479e-05
1.61204e-05
1.61229e-05
1.61479e-05
1.6124e-05
1.61295e-05
1.61229e-05
1.6131e-05
1.6109e-05
1.61137e-05
1.61295e-05
1.61219e-05
1.60988e-05
1.61026e-05
1.61048e-05
1.61062e-05
1.6109e-05
1.61076e-05
1.60773e-05
1.6081e-05
1.60855e-05
1.60902e-05
1.60988e-05
1.6095e-05
1.60794e-05
1.60767e-05
1.60743e-05
1.60726e-05
1.6072e-05
1.60727e-05
1.60773e-05
1.60748e-05
1.60975e-05
1.60964e-05
1.60953e-05
1.60943e-05
1.60933e-05
1.60923e-05
1.60912e-05
1.609e-05
1.60885e-05
1.60867e-05
1.60844e-05
1.60794e-05
1.60819e-05
1.77582e-05
1.69523e-05
1.60397e-05
1.59912e-05
1.61281e-05
1.61534e-05
1.61503e-05
1.61446e-05
1.61382e-05
1.61349e-05
1.61321e-05
1.61291e-05
1.61265e-05
1.61242e-05
1.61221e-05
1.61202e-05
1.61185e-05
1.61171e-05
1.61158e-05
1.61146e-05
1.61137e-05
1.61128e-05
1.61121e-05
1.61115e-05
1.6111e-05
1.61105e-05
1.61101e-05
1.61096e-05
1.61092e-05
1.61087e-05
1.61082e-05
1.61077e-05
1.61071e-05
1.61064e-05
1.61057e-05
1.61049e-05
1.61041e-05
1.61031e-05
1.61021e-05
1.61011e-05
1.60999e-05
1.60975e-05
1.60988e-05
)
;
    }
    procBoundary2to6
    {
        type            processor;
        value           nonuniform List<scalar> 
13
(
0.173012
0.214061
0.217885
0.202729
0.172774
0.130268
0.0789342
0.0300322
0.00324418
0.000436521
1e-05
1e-05
1e-05
)
;
    }
}


// ************************************************************************* //
