/*--------------------------------*- C++ -*----------------------------------*\
| =========                 |                                                 |
| \\      /  F ield         | OpenFOAM: The Open Source CFD Toolbox           |
|  \\    /   O peration     | Version:  2306                                  |
|   \\  /    A nd           | Website:  www.openfoam.com                      |
|    \\/     M anipulation  |                                                 |
\*---------------------------------------------------------------------------*/
FoamFile
{
    version     2.0;
    format      ascii;
    arch        "LSB;label=32;scalar=64";
    class       volSymmTensorField;
    location    "325";
    object      turbulenceProperties:devReff;
}
// * * * * * * * * * * * * * * * * * * * * * * * * * * * * * * * * * * * * * //

dimensions      [0 2 -2 0 0 0 0];

internalField   nonuniform List<symmTensor> 
1340
(
(-3.5375 14.0103 1.02454e-15 3.50224 1.64302e-16 0.0352618)
(-3.77516 13.2873 1.45048e-15 3.74307 2.66684e-16 0.0320868)
(-3.91938 12.47 -2.9038e-16 3.88939 -3.67402e-17 0.0299921)
(-3.6401 10.0662 -4.55457e-15 3.63353 -7.8419e-16 0.00657011)
(-0.108442 0.415535 -4.90945e-16 0.133597 -8.6166e-17 -0.0251547)
(-0.128778 0.45616 -1.22512e-15 0.151567 -5.15154e-16 -0.0227888)
(-0.147314 0.552294 -2.52511e-15 0.174159 -3.44186e-18 -0.0268456)
(-0.207622 0.775744 -2.03906e-15 0.197408 1.3584e-15 0.0102137)
(-0.0113379 0.0929697 2.15603e-16 0.010846 -1.74661e-17 0.000491896)
(-0.0190779 0.127599 -1.17293e-15 0.0190376 2.11014e-16 4.02352e-05)
(-0.00964154 0.154087 2.9471e-15 0.0104742 5.32914e-16 -0.000832643)
(-0.0374551 0.261179 4.63686e-15 0.0294739 9.5065e-16 0.00798123)
(0.000888156 0.00334778 -1.74444e-16 -0.000948352 -2.66349e-17 6.01959e-05)
(0.00157575 0.0112188 7.42841e-16 -0.00205601 1.09871e-16 0.00048026)
(0.00672011 0.0279033 -4.86084e-16 -0.00721092 -1.68273e-16 0.000490805)
(-0.00282409 0.104477 -3.29594e-16 -0.00195506 -1.41003e-15 0.00477916)
(0.000569092 -0.000463044 -9.07976e-18 -0.000661067 3.61162e-18 9.19748e-05)
(0.000259993 -9.31217e-05 -1.27189e-17 -0.000281043 -1.05878e-17 2.10509e-05)
(0.000883769 0.000200403 5.2828e-17 -0.000863321 3.77275e-18 -2.04488e-05)
(0.00383496 0.0196957 -2.90385e-16 -0.00520615 5.22533e-17 0.00137119)
(1.65366e-06 -2.29177e-06 2.53938e-19 -6.24282e-07 2.26352e-20 -1.02938e-06)
(4.45661e-05 -2.40218e-05 -8.39558e-18 -3.30269e-05 -1.65936e-19 -1.15392e-05)
(0.00021762 -2.29907e-05 -1.5567e-17 -0.000189842 -5.06622e-18 -2.77772e-05)
(0.000984238 0.00206151 6.96476e-18 -0.00115122 4.77238e-17 0.000166985)
(3.84991e-06 -2.259e-06 -2.27109e-19 -4.76804e-06 -2.86323e-20 9.18137e-07)
(3.907e-06 -1.11923e-06 3.42328e-19 -4.63455e-06 8.9474e-20 7.27553e-07)
(5.49924e-06 -8.92019e-08 5.15414e-21 -5.81659e-06 7.6649e-20 3.17346e-07)
(0.000274297 0.000395763 2.22452e-17 -0.000337922 1.97592e-18 6.36252e-05)
(3.10007e-06 -3.35957e-06 3.34332e-19 -2.23431e-06 5.93181e-20 -8.65759e-07)
(3.47415e-06 -1.55378e-06 -1.38032e-19 -2.9442e-06 -5.89114e-20 -5.29954e-07)
(4.36947e-06 8.67835e-08 2.84048e-20 -3.91521e-06 6.75916e-21 -4.54255e-07)
(3.94221e-06 6.23365e-06 4.27542e-21 -4.51821e-06 -1.23215e-19 5.76001e-07)
(4.35347e-06 -3.06532e-06 -1.3154e-20 -4.74369e-06 -1.47553e-20 3.90218e-07)
(5.38633e-06 -1.5448e-06 8.76912e-20 -5.84449e-06 9.56146e-20 4.58159e-07)
(6.65134e-06 4.9407e-07 6.51213e-20 -6.69971e-06 -6.67311e-20 4.83706e-08)
(3.77976e-06 5.95141e-06 -3.40595e-20 -4.48951e-06 3.64189e-20 7.09752e-07)
(3.58967e-06 -3.07841e-06 1.04247e-19 -3.35555e-06 1.37897e-20 -2.34126e-07)
(4.43604e-06 -1.45465e-06 5.86603e-19 -4.34597e-06 2.20626e-21 -9.00695e-08)
(7.58457e-06 6.90029e-07 -5.37928e-19 -7.26883e-06 4.80824e-20 -3.15745e-07)
(3.62159e-06 5.93579e-06 1.49147e-19 -4.21863e-06 6.99998e-20 5.97048e-07)
(3.70582e-06 -2.87063e-06 1.09091e-20 -3.75533e-06 -2.17868e-20 4.95078e-08)
(4.47918e-06 -1.25755e-06 -6.68311e-19 -4.61512e-06 -1.05141e-19 1.35947e-07)
(6.54473e-06 7.94761e-07 7.58166e-19 -6.42363e-06 1.16586e-19 -1.21096e-07)
(4.45094e-06 7.37406e-06 2.81271e-19 -5.17814e-06 -1.06688e-19 7.27198e-07)
(3.42109e-06 -2.76057e-06 -2.49199e-19 -3.35504e-06 -1.16806e-20 -6.60507e-08)
(4.24792e-06 -1.16929e-06 4.24201e-19 -4.2895e-06 6.24294e-20 4.15781e-08)
(5.67699e-06 8.47028e-07 -3.77405e-19 -5.53356e-06 -1.68164e-19 -1.43434e-07)
(4.51192e-06 7.61186e-06 -4.75097e-19 -5.21447e-06 -2.66074e-19 7.02545e-07)
(3.30205e-06 -2.61342e-06 2.87674e-19 -3.28989e-06 3.53402e-20 -1.21601e-08)
(4.0946e-06 -1.04533e-06 -5.92335e-19 -4.17185e-06 -7.87341e-20 7.7256e-08)
(5.20719e-06 9.26221e-07 -3.97507e-20 -5.10166e-06 6.34406e-20 -1.05532e-07)
(4.08509e-06 7.006e-06 -7.57561e-19 -4.69874e-06 8.32683e-20 6.13646e-07)
(3.1109e-06 -2.48786e-06 -2.11272e-19 -3.08188e-06 -3.92959e-20 -2.90172e-08)
(3.86466e-06 -9.41525e-07 3.87202e-19 -3.92269e-06 1.19579e-19 5.80297e-08)
(4.79113e-06 9.89691e-07 6.08456e-20 -4.69439e-06 5.22646e-20 -9.67366e-08)
(3.63542e-06 6.35999e-06 4.44307e-19 -4.15664e-06 1.51969e-19 5.21225e-07)
(2.94174e-06 -2.35505e-06 4.40511e-20 -2.92419e-06 1.95433e-20 -1.75487e-08)
(3.64873e-06 -8.40943e-07 1.68032e-19 -3.7089e-06 -3.6958e-20 6.0172e-08)
(4.39868e-06 1.03535e-06 3.18939e-19 -4.31976e-06 -2.06024e-20 -7.89153e-08)
(3.23611e-06 5.78136e-06 -2.18204e-19 -3.6794e-06 -1.39911e-19 4.43293e-07)
(2.75612e-06 -2.22528e-06 2.96354e-20 -2.73873e-06 1.97132e-23 -1.73856e-08)
(3.4201e-06 -7.5161e-07 -2.45467e-19 -3.47361e-06 -3.37405e-20 5.3508e-08)
(4.01394e-06 1.06191e-06 -4.2053e-19 -3.94736e-06 -1.08953e-19 -6.65777e-08)
(2.87031e-06 5.25177e-06 -2.48873e-19 -3.24466e-06 9.30915e-20 3.74353e-07)
(2.57005e-06 -2.095e-06 -1.16128e-20 -2.55686e-06 3.8743e-21 -1.31932e-08)
(3.19052e-06 -6.70123e-07 1.32375e-19 -3.24007e-06 4.98231e-21 4.95512e-08)
(3.64699e-06 1.07202e-06 -1.72609e-19 -3.5929e-06 5.7232e-20 -5.40844e-08)
(2.53184e-06 4.75722e-06 5.95419e-19 -2.84572e-06 4.425e-20 3.13887e-07)
(2.37882e-06 -1.96599e-06 1.08879e-19 -2.36797e-06 -6.68227e-21 -1.08476e-08)
(2.95713e-06 -5.96451e-07 -3.87636e-19 -3.0017e-06 -4.89061e-20 4.45739e-08)
(3.29729e-06 1.06792e-06 2.56774e-19 -3.254e-06 6.97146e-20 -4.32905e-08)
(2.21778e-06 4.29648e-06 -4.57078e-19 -2.47811e-06 -4.38273e-20 2.60332e-07)
(2.18561e-06 -1.83789e-06 -3.02099e-19 -2.17743e-06 -3.04878e-20 -8.18018e-09)
(2.72274e-06 -5.29726e-07 9.33371e-20 -2.76277e-06 6.49321e-20 4.00262e-08)
(2.96522e-06 1.05047e-06 1.91648e-19 -2.93107e-06 -2.47593e-20 -3.41522e-08)
(1.92775e-06 3.8681e-06 7.41143e-19 -2.14095e-06 9.23522e-20 2.13202e-07)
(1.99086e-06 -1.71152e-06 1.53062e-19 -1.98483e-06 3.24232e-20 -6.0298e-09)
(2.48836e-06 -4.69695e-07 3.01224e-19 -2.5238e-06 9.89866e-21 3.54482e-08)
(2.65129e-06 1.02169e-06 -1.85919e-19 -2.62529e-06 -5.07754e-20 -2.6002e-08)
(1.66213e-06 3.47275e-06 -4.44894e-19 -1.83545e-06 -1.29506e-19 1.7332e-07)
(1.79606e-06 -1.58695e-06 -4.12617e-20 -1.79197e-06 -1.28614e-20 -4.09191e-09)
(2.25559e-06 -4.15505e-07 -2.29826e-19 -2.28665e-06 -4.5434e-20 3.10559e-08)
(2.35466e-06 9.83578e-07 -1.09339e-19 -2.33532e-06 1.81588e-20 -1.9338e-08)
(1.41896e-06 3.10863e-06 8.45745e-20 -1.55796e-06 6.03559e-20 1.39003e-07)
(1.60247e-06 -1.46436e-06 1.21937e-20 -1.60006e-06 9.29062e-21 -2.4084e-09)
(2.02614e-06 -3.66506e-07 3.52006e-20 -2.05319e-06 2.14235e-20 2.70457e-08)
(2.07572e-06 9.37363e-07 1.29477e-19 -2.06197e-06 3.83358e-20 -1.37438e-08)
(1.19754e-06 2.77462e-06 5.03062e-21 -1.30769e-06 -2.13602e-20 1.10143e-07)
(1.41139e-06 -1.34416e-06 8.64178e-20 -1.41038e-06 4.44979e-21 -1.00297e-09)
(1.8013e-06 -3.21962e-07 8.28042e-21 -1.82459e-06 -6.28662e-21 2.32882e-08)
(1.81388e-06 8.85623e-07 1.75184e-19 -1.80469e-06 -1.9164e-20 -9.18808e-09)
(9.96722e-07 2.46985e-06 -1.25447e-19 -1.08305e-06 -6.43087e-21 8.63256e-08)
(1.22422e-06 -1.22667e-06 -6.88245e-20 -1.22436e-06 -9.33387e-21 1.43765e-10)
(1.58268e-06 -2.81473e-07 -6.21787e-20 -1.60262e-06 2.10942e-21 1.99387e-08)
(1.56888e-06 8.29215e-07 -3.4492e-19 -1.5631e-06 -4.19038e-20 -5.77164e-09)
(8.14996e-07 2.19204e-06 7.04561e-20 -8.81606e-07 2.48626e-20 6.66092e-08)
(1.04226e-06 -1.11202e-06 4.92709e-20 -1.04329e-06 1.65898e-21 1.02956e-09)
(1.37151e-06 -2.44182e-07 1.37772e-19 -1.38845e-06 1.94095e-20 1.69389e-08)
(1.34049e-06 7.70448e-07 1.29107e-19 -1.33739e-06 5.78418e-20 -3.10537e-09)
(6.51375e-07 1.94019e-06 7.39125e-20 -7.02289e-07 9.96317e-21 5.09139e-08)
(8.66877e-07 -1.00042e-06 -1.27773e-19 -8.68601e-07 -9.96786e-21 1.7249e-09)
(1.1691e-06 -2.09622e-07 -6.17048e-21 -1.18339e-06 -4.41211e-21 1.42934e-08)
(1.12828e-06 7.10692e-07 2.31957e-19 -1.12707e-06 2.62021e-21 -1.2115e-09)
(5.0417e-07 1.71243e-06 1.19145e-19 -5.42512e-07 -1.35651e-20 3.83414e-08)
(6.99271e-07 -8.92136e-07 1.09754e-19 -7.01505e-07 1.86273e-20 2.23436e-09)
(9.76604e-07 -1.77151e-07 8.89228e-20 -9.88625e-07 8.12011e-21 1.20211e-08)
(9.31941e-07 6.51444e-07 -1.75659e-19 -9.32047e-07 -2.60882e-20 1.06384e-10)
(3.72259e-07 1.50738e-06 -2.81912e-19 -4.00893e-07 -2.52464e-20 2.86338e-08)
(5.40571e-07 -7.87391e-07 5.94122e-21 -5.4316e-07 -5.71563e-21 2.58883e-09)
(7.94949e-07 -1.46416e-07 -2.86933e-20 -8.05014e-07 -1.32565e-20 1.00645e-08)
(7.51008e-07 5.93939e-07 1.29009e-19 -7.51904e-07 1.35674e-20 8.95571e-10)
(2.54189e-07 1.3234e-06 1.84148e-19 -2.75339e-07 2.41674e-20 2.11494e-08)
(3.91804e-07 -6.86367e-07 -7.7556e-21 -3.94578e-07 -2.43771e-21 2.77343e-09)
(6.25054e-07 -1.16822e-07 -8.50587e-20 -6.33457e-07 -1.05669e-20 8.40269e-09)
(5.85157e-07 5.39312e-07 -1.89778e-19 -5.86474e-07 -2.26693e-20 1.3175e-09)
(1.48815e-07 1.15905e-06 -2.2774e-19 -1.6436e-07 -3.67735e-20 1.55455e-08)
(2.53892e-07 -5.89292e-07 -2.47667e-20 -2.56745e-07 -3.45925e-21 2.85355e-09)
(4.67603e-07 -8.81133e-08 -5.94838e-20 -4.74683e-07 -2.32454e-21 7.07984e-09)
(4.33964e-07 4.88453e-07 9.21485e-20 -4.35426e-07 2.18632e-20 1.4611e-09)
(5.49718e-08 1.01302e-06 -2.14748e-20 -6.63802e-08 2.4925e-20 1.14084e-08)
(1.27501e-07 -4.96385e-07 -2.44286e-20 -1.30327e-07 -2.69878e-21 2.82632e-09)
(3.22988e-07 -6.00607e-08 -1.54928e-20 -3.28902e-07 5.54673e-21 5.91441e-09)
(2.97054e-07 4.42056e-07 8.34683e-21 -2.98503e-07 -2.92967e-21 1.44929e-09)
(-2.83357e-08 8.83906e-07 2.19984e-19 1.99017e-08 3.51407e-20 8.43393e-09)
(1.32098e-08 -4.07875e-07 -3.37202e-20 -1.59652e-08 -2.85172e-21 2.75545e-09)
(1.91662e-07 -3.2421e-08 8.0706e-20 -1.96636e-07 7.81023e-21 4.97388e-09)
(1.73918e-07 4.00579e-07 3.23553e-20 -1.75193e-07 -1.50718e-21 1.2749e-09)
(-1.02052e-07 7.70505e-07 2.2004e-19 9.57122e-08 1.76077e-22 6.33981e-09)
(-8.86491e-08 -3.24035e-07 -1.00075e-20 8.60172e-08 3.13688e-21 2.63195e-09)
(7.37469e-08 -5.16501e-09 -2.60068e-20 -7.79514e-08 -4.96511e-21 4.20443e-09)
(6.41509e-08 3.64255e-07 -7.73315e-20 -6.5207e-08 -9.6065e-21 1.05608e-09)
(-1.66927e-07 6.71611e-07 -1.91874e-19 1.62005e-07 -3.7278e-20 4.92172e-09)
(-1.77975e-07 -2.45084e-07 6.14661e-20 1.75501e-07 6.24767e-21 2.47441e-09)
(-3.07652e-08 2.17492e-08 3.60713e-20 2.71998e-08 -3.93386e-22 3.56543e-09)
(-3.27556e-08 3.33231e-07 5.41498e-22 3.1938e-08 8.64062e-21 8.1763e-10)
(-2.2362e-07 5.86078e-07 -1.38383e-19 2.1965e-07 -1.46802e-21 3.97053e-09)
(-2.54782e-07 -1.71245e-07 -1.30534e-20 2.52523e-07 -3.03461e-21 2.25826e-09)
(-1.22052e-07 4.82122e-08 -1.23221e-19 1.19013e-07 -1.11626e-20 3.03808e-09)
(-1.1731e-07 3.07373e-07 9.42359e-20 1.16718e-07 4.33999e-21 5.92228e-10)
(-2.72715e-07 5.12743e-07 6.62704e-20 2.69339e-07 7.80022e-21 3.37564e-09)
(-3.19337e-07 -1.02719e-07 2.10078e-20 3.17295e-07 1.88824e-21 2.04215e-09)
(-2.00441e-07 7.41327e-08 7.86781e-20 1.97846e-07 1.19677e-20 2.59535e-09)
(-1.90101e-07 2.86427e-07 -1.15962e-19 1.89722e-07 -1.3586e-20 3.79182e-10)
(-3.14706e-07 4.50512e-07 -1.24419e-19 3.11696e-07 -1.40238e-20 3.01033e-09)
(-3.72071e-07 -3.97048e-08 -1.97675e-20 3.70263e-07 -1.55961e-21 1.80752e-09)
(-2.66401e-07 9.9286e-08 -3.74712e-20 2.64169e-07 -6.80707e-21 2.23173e-09)
(-2.51706e-07 2.70052e-07 5.8029e-20 2.51494e-07 8.11742e-21 2.12316e-10)
(-3.50002e-07 3.98313e-07 3.72206e-20 3.47185e-07 1.55316e-20 2.81658e-09)
(-4.13571e-07 1.76845e-08 3.43794e-20 4.11995e-07 4.73749e-21 1.57667e-09)
(-3.20552e-07 1.23463e-07 9.31224e-21 3.18635e-07 9.19548e-22 1.91722e-09)
(-3.02788e-07 2.57753e-07 -7.37725e-20 3.02721e-07 -5.36579e-21 6.72739e-11)
(-3.79001e-07 3.55049e-07 1.72247e-19 3.76283e-07 1.49358e-20 2.718e-09)
(-5.67915e-07 3.32288e-08 -2.3419e-20 5.66575e-07 -2.32991e-22 1.34019e-09)
(-4.4457e-07 6.93235e-08 1.01875e-20 4.4322e-07 -3.68159e-21 1.34969e-09)
(-3.63603e-07 1.46371e-07 -4.37156e-20 3.61962e-07 6.24082e-22 1.64078e-09)
(-3.44018e-07 2.49018e-07 1.26022e-19 3.44058e-07 1.61157e-20 -3.96883e-11)
(-4.02046e-07 3.19697e-07 -2.43408e-20 3.99359e-07 -8.4394e-21 2.68741e-09)
(-5.69114e-07 9.72204e-08 6.33604e-20 5.67987e-07 6.9748e-21 1.12652e-09)
(-4.65915e-07 1.15212e-07 -1.02757e-19 4.64775e-07 -1.06972e-20 1.13963e-09)
(-3.96351e-07 1.67798e-07 1.57091e-19 3.94932e-07 1.49676e-20 1.41831e-09)
(-3.76101e-07 2.43272e-07 1.01354e-20 3.76216e-07 -8.31145e-21 -1.14632e-10)
(-4.19475e-07 2.91234e-07 7.93708e-21 4.16784e-07 1.71407e-21 2.69155e-09)
(-5.63521e-07 1.52125e-07 -1.77904e-20 5.62586e-07 -4.64783e-21 9.34787e-10)
(-4.78532e-07 1.55348e-07 2.01565e-20 4.77587e-07 7.40303e-21 9.45001e-10)
(-4.19698e-07 1.87442e-07 -8.72621e-20 4.18489e-07 -1.49989e-20 1.20904e-09)
(-3.998e-07 2.39902e-07 -1.44363e-19 3.99985e-07 -1.37013e-20 -1.84127e-10)
(-4.31653e-07 2.68666e-07 -4.63626e-21 4.28951e-07 -3.61936e-21 2.70183e-09)
(-5.52113e-07 1.98343e-07 -2.51201e-20 5.5135e-07 -9.93556e-22 7.63321e-10)
(-4.83406e-07 1.89852e-07 6.07596e-20 4.82635e-07 7.39326e-21 7.7093e-10)
(-4.34557e-07 2.05115e-07 -1.6863e-20 4.33521e-07 2.4918e-21 1.03593e-09)
(-4.15856e-07 2.38369e-07 5.31759e-20 4.16066e-07 1.07958e-20 -2.10374e-10)
(-4.38906e-07 2.51103e-07 -9.1562e-20 4.36173e-07 -6.77572e-21 2.73266e-09)
(-5.35852e-07 2.3637e-07 4.06684e-20 5.35237e-07 5.3112e-21 6.15649e-10)
(-4.81547e-07 2.18886e-07 5.00866e-20 4.80931e-07 3.20054e-21 6.16338e-10)
(-4.41902e-07 2.20632e-07 4.80806e-20 4.4102e-07 4.12404e-21 8.8205e-10)
(-4.25075e-07 2.38098e-07 1.50255e-20 4.25316e-07 1.81191e-21 -2.40644e-10)
(-4.41639e-07 2.37641e-07 8.89858e-20 4.38896e-07 1.31365e-20 2.74208e-09)
(-5.15679e-07 2.66777e-07 6.38492e-21 5.15191e-07 -5.39132e-22 4.8884e-10)
(-4.73961e-07 2.42669e-07 -1.3991e-20 4.73484e-07 -4.4428e-21 4.77584e-10)
(-4.42699e-07 2.33826e-07 -5.61105e-20 4.41955e-07 -6.41847e-21 7.43666e-10)
(-4.28232e-07 2.38595e-07 6.50028e-20 4.28495e-07 5.08763e-21 -2.63602e-10)
(-4.40241e-07 2.27499e-07 4.45807e-20 4.37501e-07 1.88268e-21 2.74018e-09)
(-4.92488e-07 2.90205e-07 -2.75446e-21 4.92103e-07 -1.01696e-22 3.85718e-10)
(-4.61623e-07 2.61523e-07 -6.13087e-20 4.6126e-07 -6.02477e-21 3.62969e-10)
(-4.37896e-07 2.44666e-07 3.9021e-20 4.37253e-07 5.15929e-21 6.42956e-10)
(-4.2609e-07 2.39429e-07 -4.75467e-20 4.26359e-07 -8.24804e-21 -2.69e-10)
(-4.35107e-07 2.19962e-07 -1.68408e-20 4.3237e-07 -5.21944e-21 2.7368e-09)
(-4.67089e-07 3.07328e-07 1.30478e-20 4.66791e-07 1.34454e-21 2.97668e-10)
(-4.45473e-07 2.75772e-07 1.24217e-20 4.45203e-07 4.26311e-21 2.69914e-10)
(-4.28435e-07 2.53098e-07 -2.33892e-20 4.27894e-07 -3.58853e-21 5.40997e-10)
(-4.19444e-07 2.40226e-07 -5.34145e-20 4.19727e-07 -2.95066e-21 -2.83835e-10)
(-4.267e-07 2.14381e-07 -9.81775e-20 4.23989e-07 -8.71739e-21 2.71045e-09)
(-4.40221e-07 3.18825e-07 -1.24732e-20 4.39998e-07 -1.33459e-21 2.2359e-10)
(-4.26377e-07 2.8578e-07 5.91591e-20 4.26188e-07 5.30435e-21 1.89515e-10)
(-4.15171e-07 2.5916e-07 -3.83011e-21 4.14714e-07 -3.99176e-24 4.574e-10)
(-4.09009e-07 2.40676e-07 6.0427e-20 4.09302e-07 8.29407e-21 -2.93516e-10)
(-4.15448e-07 2.10203e-07 6.1848e-20 4.12775e-07 6.88386e-21 2.67282e-09)
(-4.12546e-07 3.25389e-07 1.93774e-20 4.12374e-07 3.16062e-21 1.71348e-10)
(-4.05116e-07 2.9198e-07 -4.6193e-20 4.04989e-07 -7.71319e-21 1.27486e-10)
(-3.98927e-07 2.62945e-07 -7.0805e-21 3.9853e-07 -2.87192e-22 3.97233e-10)
(-3.9548e-07 2.40562e-07 2.2438e-20 3.95772e-07 2.47928e-21 -2.91845e-10)
(-4.01782e-07 2.06949e-07 -9.55383e-20 3.99149e-07 -1.14918e-20 2.63354e-09)
(-3.84618e-07 3.27641e-07 3.7488e-20 3.84493e-07 3.58336e-21 1.24283e-10)
(-3.82397e-07 2.94734e-07 -6.05441e-20 3.82323e-07 -5.83758e-21 7.39499e-11)
(-3.80442e-07 2.64537e-07 1.67502e-20 3.80106e-07 1.27722e-21 3.36493e-10)
(-3.79533e-07 2.39663e-07 6.41692e-20 3.79836e-07 7.10753e-21 -3.03737e-10)
(-3.86161e-07 2.04193e-07 1.02198e-20 3.83597e-07 2.63531e-21 2.56342e-09)
(-3.56891e-07 3.26211e-07 -2.13758e-20 3.56799e-07 -2.78688e-21 9.18005e-11)
(-3.58819e-07 2.94435e-07 2.72209e-21 3.5878e-07 2.02983e-21 3.90964e-11)
(-3.60358e-07 2.64052e-07 -3.56091e-20 3.6007e-07 -4.4299e-21 2.87677e-10)
(-3.61735e-07 2.37851e-07 2.35006e-20 3.62039e-07 1.84643e-23 -3.0389e-10)
(-3.6897e-07 2.016e-07 -2.3879e-20 3.66472e-07 -3.4556e-21 2.49776e-09)
(-3.29742e-07 3.21609e-07 2.14777e-20 3.29676e-07 2.71427e-21 6.6156e-11)
(-3.34893e-07 2.91433e-07 3.25433e-20 3.34883e-07 2.74694e-21 1.01967e-11)
(-3.39252e-07 2.61625e-07 -2.21185e-21 3.38999e-07 1.78395e-21 2.52902e-10)
(-3.42624e-07 2.35005e-07 -6.98995e-20 3.4293e-07 -9.3082e-21 -3.05985e-10)
(-3.50609e-07 1.9884e-07 -3.83701e-20 3.48191e-07 -3.61967e-21 2.41782e-09)
(-3.03454e-07 3.1429e-07 -8.35228e-21 3.03405e-07 -1.5092e-21 4.95438e-11)
(-3.11019e-07 2.86018e-07 -5.82713e-20 3.11034e-07 -7.48524e-21 -1.50751e-11)
(-3.17603e-07 2.57332e-07 7.86716e-20 3.17383e-07 9.60176e-21 2.20511e-10)
(-3.2266e-07 2.31014e-07 -5.88927e-20 3.22967e-07 -4.12515e-21 -3.07731e-10)
(-3.31421e-07 1.95636e-07 1.48989e-20 3.29092e-07 2.04282e-21 2.3282e-09)
(-2.66869e-07 3.3085e-07 5.03799e-21 2.66851e-07 1.64403e-22 1.83252e-11)
(-2.78222e-07 3.04661e-07 -1.18278e-20 2.78185e-07 -2.13206e-21 3.79085e-11)
(-2.87532e-07 2.7847e-07 -1.23661e-20 2.87561e-07 7.73346e-22 -2.91521e-11)
(-2.95801e-07 2.51298e-07 3.37065e-20 2.95603e-07 1.91433e-21 1.9868e-10)
(-3.02232e-07 2.25811e-07 7.80864e-20 3.02534e-07 1.07953e-20 -3.01978e-10)
(-3.11711e-07 1.91754e-07 -1.09026e-20 3.09483e-07 -1.80168e-21 2.22795e-09)
(-2.41849e-07 3.16674e-07 -1.31156e-20 2.41838e-07 -1.23309e-21 1.12153e-11)
(-2.54192e-07 2.9307e-07 -6.45809e-20 2.54167e-07 -7.30432e-21 2.5349e-11)
(-2.64692e-07 2.69035e-07 9.17123e-20 2.64731e-07 1.0338e-20 -3.86699e-11)
(-2.74169e-07 2.43629e-07 -4.59428e-20 2.73996e-07 -5.43477e-21 1.7335e-10)
(-2.8169e-07 2.19347e-07 5.98907e-20 2.81987e-07 5.52027e-21 -2.96889e-10)
(-2.91759e-07 1.8702e-07 -2.29426e-20 2.89645e-07 -2.21152e-21 2.11446e-09)
(-2.18602e-07 3.01054e-07 3.47241e-20 2.18595e-07 4.46284e-21 6.46402e-12)
(-2.31463e-07 2.79899e-07 1.53869e-20 2.31443e-07 2.50851e-21 2.04493e-11)
(-2.42697e-07 2.58016e-07 -4.62072e-20 2.4274e-07 -6.53831e-21 -4.30982e-11)
(-2.52978e-07 2.34524e-07 3.05184e-20 2.52823e-07 3.86259e-21 1.54921e-10)
(-2.61314e-07 2.11703e-07 -7.15461e-21 2.61591e-07 -1.94495e-21 -2.77191e-10)
(-2.7181e-07 1.81363e-07 1.7622e-20 2.69816e-07 2.32324e-21 1.99355e-09)
(-1.97104e-07 2.84432e-07 9.85138e-21 1.971e-07 4.12007e-22 4.39159e-12)
(-2.10116e-07 2.65564e-07 -1.06236e-20 2.10102e-07 -9.91007e-22 1.38591e-11)
(-2.21715e-07 2.45783e-07 1.14433e-20 2.21759e-07 2.14031e-21 -4.44377e-11)
(-2.32465e-07 2.24249e-07 -2.79967e-20 2.32326e-07 -3.1607e-21 1.39434e-10)
(-2.4137e-07 2.03034e-07 -1.91715e-20 2.41633e-07 -2.25801e-21 -2.638e-10)
(-2.52122e-07 1.74834e-07 -1.21457e-21 2.50262e-07 -1.02907e-22 1.85958e-09)
(-1.77336e-07 2.67304e-07 -3.78939e-20 1.77333e-07 -4.53184e-21 3.74355e-12)
(-1.9022e-07 2.50547e-07 4.30625e-20 1.9021e-07 5.79627e-21 1.02246e-11)
(-2.01892e-07 2.3277e-07 1.84283e-20 2.01938e-07 1.63053e-21 -4.61575e-11)
(-2.12837e-07 2.13182e-07 4.38722e-20 2.12713e-07 5.14076e-21 1.24144e-10)
(-2.22086e-07 1.93651e-07 -1.07647e-20 2.22329e-07 -8.09723e-22 -2.42745e-10)
(-2.32926e-07 1.67647e-07 2.38923e-20 2.31199e-07 2.25824e-21 1.7271e-09)
(-1.59276e-07 2.50162e-07 1.78369e-20 1.59275e-07 2.48234e-21 5.80109e-13)
(-1.71827e-07 2.35335e-07 4.7421e-20 1.71818e-07 5.09299e-21 8.60477e-12)
(-1.83343e-07 2.19445e-07 -4.05585e-20 1.83387e-07 -4.62103e-21 -4.38308e-11)
(-1.94258e-07 2.01741e-07 -3.62129e-20 1.94146e-07 -5.43225e-21 1.12616e-10)
(-2.03659e-07 1.83898e-07 1.53144e-20 2.03879e-07 1.82637e-21 -2.20604e-10)
(-2.14444e-07 1.60073e-07 -5.01067e-20 2.12852e-07 -5.48145e-21 1.59231e-09)
(-1.42874e-07 2.33394e-07 -6.89262e-21 1.42873e-07 -1.60163e-21 4.87666e-13)
(-1.54938e-07 2.20314e-07 -2.12568e-20 1.5493e-07 -2.47441e-21 8.10807e-12)
(-1.66129e-07 2.06172e-07 4.48645e-20 1.66171e-07 5.70542e-21 -4.15654e-11)
(-1.76844e-07 1.90255e-07 -6.42843e-20 1.76741e-07 -7.17462e-21 1.02831e-10)
(-1.8623e-07 1.74065e-07 -1.41784e-20 1.86434e-07 -1.86974e-21 -2.03489e-10)
(-1.96852e-07 1.52366e-07 6.55356e-20 1.95388e-07 7.69106e-21 1.46389e-09)
(-1.28028e-07 2.17161e-07 -7.24398e-20 1.2803e-07 -8.64764e-21 -1.98755e-12)
(-1.39501e-07 2.0565e-07 6.00091e-20 1.39495e-07 7.0128e-21 6.43459e-12)
(-1.50246e-07 1.93106e-07 -1.20718e-20 1.50285e-07 -1.55904e-21 -3.94097e-11)
(-1.60627e-07 1.78866e-07 1.28332e-20 1.60535e-07 2.2395e-21 9.2494e-11)
(-1.69862e-07 1.64267e-07 5.8672e-21 1.70048e-07 1.27027e-22 -1.85403e-10)
(-1.80231e-07 1.44618e-07 -4.97813e-20 1.78886e-07 -6.17605e-21 1.34481e-09)
(-1.14578e-07 2.01392e-07 2.27249e-20 1.14579e-07 3.21859e-21 -8.74787e-13)
(-1.25392e-07 1.91275e-07 -6.31314e-20 1.25387e-07 -8.12385e-21 5.61325e-12)
(-1.35607e-07 1.8018e-07 4.08464e-20 1.35643e-07 5.16609e-21 -3.61205e-11)
(-1.4556e-07 1.67494e-07 1.50174e-20 1.45476e-07 1.45878e-21 8.41475e-11)
(-1.54542e-07 1.5439e-07 -7.30852e-20 1.54712e-07 -8.89387e-21 -1.69856e-10)
(-1.64579e-07 1.36706e-07 3.30112e-20 1.63353e-07 4.45995e-21 1.22524e-09)
(-9.1777e-08 1.93878e-07 7.92818e-22 9.17754e-08 -3.72171e-22 1.54297e-12)
(-1.02326e-07 1.85868e-07 -1.49399e-20 1.02328e-07 -1.80944e-21 -1.29592e-12)
(-1.1245e-07 1.76982e-07 1.10503e-20 1.12443e-07 1.99695e-21 6.22811e-12)
(-1.22082e-07 1.67187e-07 1.32637e-20 1.22113e-07 1.25163e-21 -3.07226e-11)
(-1.31542e-07 1.55925e-07 -3.1414e-20 1.31465e-07 -3.56071e-21 7.73808e-11)
(-1.40202e-07 1.44213e-07 -1.45034e-20 1.4035e-07 -1.49015e-21 -1.48728e-10)
(-1.49819e-07 1.28397e-07 1.81095e-20 1.48708e-07 1.72897e-21 1.11038e-09)
(-8.13414e-08 1.77458e-07 -7.07165e-20 8.13413e-08 -8.80601e-21 2.41331e-14)
(-9.11092e-08 1.70449e-07 2.57986e-20 9.11126e-08 3.64603e-21 -3.38784e-12)
(-1.00533e-07 1.62645e-07 2.22583e-20 1.00531e-07 2.40772e-21 1.96203e-12)
(-1.09561e-07 1.54009e-07 -7.54534e-21 1.09593e-07 -1.29363e-21 -3.21469e-11)
(-1.1849e-07 1.44037e-07 4.4427e-20 1.18426e-07 5.9097e-21 6.40419e-11)
(-1.26786e-07 1.33599e-07 -4.56861e-20 1.26916e-07 -4.6674e-21 -1.29854e-10)
(-1.359e-07 1.19528e-07 -2.38569e-20 1.34921e-07 -3.21615e-21 9.78946e-10)
(-7.17988e-08 1.61318e-07 -1.88483e-21 7.17927e-08 3.04159e-22 6.03028e-12)
(-8.08106e-08 1.55176e-07 4.97558e-20 8.08057e-08 5.99306e-21 4.88308e-12)
(-8.95396e-08 1.48324e-07 -3.89304e-20 8.95302e-08 -4.99041e-21 9.42157e-12)
(-9.7961e-08 1.40717e-07 -4.51145e-20 9.79785e-08 -5.49105e-21 -1.74894e-11)
(-1.06329e-07 1.31906e-07 3.62968e-20 1.06266e-07 4.49084e-21 6.26829e-11)
(-1.14247e-07 1.22617e-07 9.52905e-20 1.14338e-07 1.17858e-20 -9.08486e-11)
(-1.22779e-07 1.10154e-07 -3.28786e-20 1.21921e-07 -4.31006e-21 8.57993e-10)
(-6.31257e-08 1.4571e-07 1.74941e-20 6.31357e-08 2.03321e-21 -9.96006e-12)
(-7.14155e-08 1.40323e-07 -2.23732e-21 7.14269e-08 -3.38175e-22 -1.13719e-11)
(-7.94762e-08 1.34302e-07 -4.1129e-21 7.94839e-08 -2.10221e-22 -7.77026e-12)
(-8.73029e-08 1.27597e-07 -2.26136e-21 8.73306e-08 -1.21305e-22 -2.76883e-11)
(-9.50999e-08 1.19815e-07 6.36367e-20 9.50655e-08 7.34421e-21 3.44913e-11)
(-1.02635e-07 1.11554e-07 -1.04172e-20 1.02708e-07 -1.85611e-21 -7.32789e-11)
(-1.10535e-07 1.00532e-07 -8.86354e-20 1.09831e-07 -1.04467e-20 7.03733e-10)
(-5.52241e-08 1.30974e-07 -3.62443e-20 5.52119e-08 -4.5386e-21 1.22043e-11)
(-6.28448e-08 1.26244e-07 4.35338e-20 6.28293e-08 5.32199e-21 1.55177e-11)
(-7.02689e-08 1.20953e-07 1.10975e-20 7.02536e-08 1.68746e-21 1.5357e-11)
(-7.75209e-08 1.15043e-07 -2.37265e-20 7.7522e-08 -3.19954e-21 -1.11698e-12)
(-8.47562e-08 1.08172e-07 -3.12163e-20 8.47111e-08 -3.82191e-21 4.50953e-11)
(-9.19054e-08 1.00815e-07 1.12808e-20 9.19151e-08 1.22064e-21 -9.7437e-12)
(-9.91644e-08 9.10539e-08 8.61019e-21 9.8555e-08 1.95328e-21 6.09376e-10)
(-4.82299e-08 1.17539e-07 1.57331e-20 4.8247e-08 1.89993e-21 -1.71303e-11)
(-5.5224e-08 1.13373e-07 -2.51369e-20 5.5236e-08 -3.33829e-21 -1.2024e-11)
(-6.20534e-08 1.08711e-07 6.46796e-20 6.20639e-08 7.75528e-21 -1.04899e-11)
(-6.87509e-08 1.03509e-07 -5.15462e-20 6.87751e-08 -6.22223e-21 -2.42142e-11)
(-7.54474e-08 9.74612e-08 7.22501e-20 7.54393e-08 8.89963e-21 8.16092e-12)
(-8.21757e-08 9.09494e-08 -3.94064e-20 8.21938e-08 -4.98516e-21 -1.81177e-11)
(-8.8854e-08 8.2358e-08 8.02096e-20 8.83914e-08 9.77984e-21 4.62555e-10)
(-4.28048e-08 1.06224e-07 -4.10614e-20 4.28198e-08 -5.52685e-21 -1.50115e-11)
(-4.92687e-08 1.02448e-07 -1.02849e-21 4.9287e-08 -2.7641e-23 -1.8366e-11)
(-5.56036e-08 9.82197e-08 -2.85725e-20 5.56227e-08 -3.67104e-21 -1.90633e-11)
(-6.18578e-08 9.34927e-08 -1.67173e-21 6.18819e-08 1.05248e-22 -2.41159e-11)
(-6.81079e-08 8.79985e-08 -1.24698e-20 6.81153e-08 -2.14643e-21 -7.39431e-12)
(-7.44995e-08 8.20395e-08 -2.06087e-20 7.45102e-08 -2.22743e-21 -1.07911e-11)
(-8.06709e-08 7.43422e-08 2.86902e-20 8.0337e-08 2.7376e-21 3.33826e-10)
(-3.84095e-08 9.7136e-08 -5.95032e-20 3.83953e-08 -7.21139e-21 1.41968e-11)
(-4.4438e-08 9.36427e-08 -9.13278e-21 4.4428e-08 -9.65458e-22 9.95983e-12)
(-5.03532e-08 8.97328e-08 3.44986e-20 5.03443e-08 4.379e-21 8.89432e-12)
(-5.62127e-08 8.5351e-08 4.73458e-23 5.62039e-08 -1.32301e-22 8.76376e-12)
(-6.20551e-08 8.02615e-08 -2.99343e-20 6.20392e-08 -3.9135e-21 1.58798e-11)
(-6.81184e-08 7.47092e-08 2.95909e-21 6.80772e-08 1.27726e-21 4.12451e-11)
(-7.38049e-08 6.76917e-08 -4.49842e-20 7.35117e-08 -6.07432e-21 2.93257e-10)
(-3.42918e-08 8.90134e-08 8.51442e-21 3.42898e-08 1.49287e-21 2.05483e-12)
(-3.9905e-08 8.57782e-08 2.60694e-20 3.98991e-08 3.25694e-21 5.85201e-12)
(-4.54243e-08 8.2152e-08 -2.02797e-20 4.54074e-08 -2.70103e-21 1.69703e-11)
(-5.08832e-08 7.80941e-08 -2.86007e-20 5.08652e-08 -3.76963e-21 1.79659e-11)
(-5.63368e-08 7.3379e-08 -5.4392e-20 5.63138e-08 -6.20974e-21 2.30901e-11)
(-6.20301e-08 6.82256e-08 1.15405e-19 6.19843e-08 1.38463e-20 4.57934e-11)
(-6.72844e-08 6.18097e-08 -7.70066e-20 6.70784e-08 -8.72139e-21 2.05957e-10)
(-3.03106e-08 8.11732e-08 2.43553e-20 3.03324e-08 3.08575e-21 -2.17705e-11)
(-3.55263e-08 7.81896e-08 -8.48816e-21 3.55577e-08 -1.25805e-21 -3.1381e-11)
(-4.06666e-08 7.48313e-08 7.80169e-21 4.06955e-08 1.0149e-21 -2.89494e-11)
(-4.57542e-08 7.10779e-08 -4.4823e-20 4.57864e-08 -5.56905e-21 -3.22066e-11)
(-5.08448e-08 6.67119e-08 6.79142e-20 5.08709e-08 8.58277e-21 -2.60677e-11)
(-5.61823e-08 6.19258e-08 -6.63612e-20 5.61753e-08 -8.48784e-21 6.95215e-12)
(-6.10171e-08 5.60882e-08 9.14017e-20 6.08765e-08 1.14354e-20 1.40641e-10)
(-2.14378e-08 7.58685e-08 3.31051e-20 2.13537e-08 4.2166e-21 8.41026e-11)
(-2.63301e-08 7.33737e-08 1.69851e-20 2.62404e-08 2.12666e-21 8.96937e-11)
(-3.11283e-08 7.05945e-08 -1.46093e-20 3.10397e-08 -1.92541e-21 8.85876e-11)
(-3.5859e-08 6.74906e-08 -1.31726e-20 3.57811e-08 -1.78622e-21 7.79456e-11)
(-4.0587e-08 6.40265e-08 -2.9176e-20 4.05232e-08 -3.34822e-21 6.38172e-11)
(-4.53385e-08 6.00152e-08 -2.90073e-20 4.531e-08 -3.72701e-21 2.84542e-11)
(-5.0359e-08 5.56517e-08 7.50663e-20 5.03635e-08 9.60292e-21 -4.40454e-12)
(-5.50084e-08 5.05091e-08 -4.21743e-20 5.50764e-08 -5.49132e-21 -6.80374e-11)
(-1.81053e-08 6.76763e-08 -1.66503e-20 1.82917e-08 -2.04636e-21 -1.86486e-10)
(-2.2577e-08 6.51942e-08 2.80707e-20 2.27305e-08 3.27808e-21 -1.53497e-10)
(-2.69548e-08 6.24317e-08 -2.91218e-20 2.70509e-08 -3.37595e-21 -9.6031e-11)
(-3.12363e-08 5.93785e-08 -2.57951e-20 3.12702e-08 -3.35557e-21 -3.38938e-11)
(-3.55156e-08 5.59868e-08 2.39643e-20 3.54642e-08 2.89558e-21 5.13598e-11)
(-3.98029e-08 5.21028e-08 4.78442e-20 3.96559e-08 6.43356e-21 1.46999e-10)
(-4.44342e-08 4.76301e-08 -8.71442e-21 4.40623e-08 -1.67141e-21 3.71939e-10)
(-4.8281e-08 4.26381e-08 2.20064e-20 4.76679e-08 3.02776e-21 6.13149e-10)
(-1.35129e-08 5.7511e-08 5.38059e-20 1.33623e-08 6.86866e-21 1.50582e-10)
(-1.76719e-08 5.51727e-08 -6.32494e-20 1.76815e-08 -8.24259e-21 -9.65913e-12)
(-2.18154e-08 5.25825e-08 7.33509e-20 2.1996e-08 9.43306e-21 -1.80615e-10)
(-2.59465e-08 4.97046e-08 -5.78796e-20 2.63112e-08 -7.22326e-21 -3.64707e-10)
(-3.01176e-08 4.65073e-08 -6.64339e-20 3.06773e-08 -8.50249e-21 -5.59702e-10)
(-3.4267e-08 4.29199e-08 9.55127e-20 3.51263e-08 1.20817e-20 -8.59361e-10)
(-3.86482e-08 3.93918e-08 -5.93409e-20 3.99679e-08 -7.53838e-21 -1.31971e-09)
(-4.30455e-08 3.56725e-08 4.67728e-20 4.51474e-08 5.74628e-21 -2.10193e-09)
(-8.17475e-09 4.30388e-08 8.04108e-21 7.36432e-09 7.7232e-22 8.10428e-10)
(-1.13825e-08 4.01112e-08 -5.6209e-20 1.01722e-08 -6.98289e-21 1.2103e-09)
(-1.44898e-08 3.70645e-08 3.66104e-20 1.28862e-08 4.29435e-21 1.6036e-09)
(-1.75515e-08 3.3884e-08 -9.86393e-21 1.5567e-08 -8.5638e-22 1.98451e-09)
(-2.07589e-08 3.04047e-08 -4.06736e-20 1.83334e-08 -4.84535e-21 2.4255e-09)
(-2.42008e-08 2.63513e-08 1.07683e-19 2.11706e-08 1.30543e-20 3.03013e-09)
(-2.86691e-08 2.0374e-08 -5.59583e-20 2.42695e-08 -6.53431e-21 4.3997e-09)
(-3.06124e-08 1.46187e-08 1.13092e-20 2.51866e-08 9.70779e-22 5.42589e-09)
(-5.72476e-09 3.32601e-08 -2.80911e-20 1.05607e-08 -3.50184e-21 -4.83597e-09)
(-9.93222e-09 3.08224e-08 -2.84949e-20 1.54905e-08 -3.41933e-21 -5.55825e-09)
(-1.41436e-08 2.80106e-08 -4.60939e-20 2.03497e-08 -5.988e-21 -6.20611e-09)
(-1.82298e-08 2.48298e-08 7.92908e-20 2.50683e-08 9.90934e-21 -6.83851e-09)
(-2.20833e-08 2.15337e-08 1.32788e-20 2.96694e-08 1.80105e-21 -7.58614e-09)
(-2.50108e-08 1.85269e-08 -2.57173e-20 3.40386e-08 -3.48228e-21 -9.02787e-09)
(-2.75147e-08 1.83003e-08 6.68496e-20 3.91361e-08 8.38856e-21 -1.16214e-08)