/*--------------------------------*- C++ -*----------------------------------*\
| =========                 |                                                 |
| \\      /  F ield         | OpenFOAM: The Open Source CFD Toolbox           |
|  \\    /   O peration     | Version:  2306                                  |
|   \\  /    A nd           | Website:  www.openfoam.com                      |
|    \\/     M anipulation  |                                                 |
\*---------------------------------------------------------------------------*/
FoamFile
{
    version     2.0;
    format      ascii;
    arch        "LSB;label=32;scalar=64";
    class       volSymmTensorField;
    location    "325";
    object      turbulenceProperties:R;
}
// * * * * * * * * * * * * * * * * * * * * * * * * * * * * * * * * * * * * * //

dimensions      [0 2 -2 0 0 0 0];

internalField   nonuniform List<symmTensor> 
1340
(
(28.5617 14.009 1.02445e-15 35.6007 1.64287e-16 32.1341)
(26.9086 13.286 1.45034e-15 34.4261 2.66658e-16 30.7155)
(25.1161 12.4688 -2.90351e-16 32.9241 -3.67366e-17 29.0651)
(20.1423 10.0651 -4.55407e-15 27.4152 -7.84105e-16 23.7886)
(0.85686 0.415476 -4.90875e-16 1.09887 -8.61537e-17 0.940136)
(0.934278 0.456097 -1.22495e-15 1.21458 -5.15083e-16 1.04025)
(1.13391 0.552221 -2.52478e-15 1.45534 -3.4414e-18 1.25436)
(1.57415 0.775646 -2.0388e-15 1.97913 1.35823e-15 1.79196)
(0.196683 0.0929462 2.15549e-16 0.218862 -1.74617e-17 0.20851)
(0.267564 0.127572 -1.17268e-15 0.305671 2.10969e-16 0.286678)
(0.333452 0.154058 2.94655e-15 0.353564 5.32815e-16 0.342259)
(0.548205 0.261137 4.63613e-15 0.615123 9.50499e-16 0.593634)
(0.00859263 0.00334295 -1.74192e-16 0.00675878 -2.65965e-17 0.00776587)
(0.0268611 0.0112103 7.42275e-16 0.0232321 1.09788e-16 0.0257664)
(0.0706189 0.0278906 -4.85862e-16 0.0566943 -1.68196e-16 0.0643925)
(0.229837 0.10445 -3.29509e-16 0.230705 -1.40967e-15 0.237438)
(0.0022934 -0.000460253 -9.02503e-18 0.00107066 3.58985e-18 0.00181916)
(0.000887947 -9.18741e-05 -1.25484e-17 0.00035416 -1.04459e-17 0.000652207)
(0.0028593 0.000199192 5.25087e-17 0.00112276 3.74995e-18 0.00196054)
(0.0489376 0.0196814 -2.90173e-16 0.039903 5.22152e-17 0.0464756)
(3.11169e-07 -7.06214e-10 7.82518e-23 3.10467e-07 6.97511e-24 3.10342e-07)
(0.000148734 -2.2639e-05 -7.91231e-18 7.56078e-05 -1.56384e-19 9.58586e-05)
(0.000668388 -2.24688e-05 -1.52137e-17 0.000270175 -4.95121e-18 0.000428561)
(0.00614775 0.00205295 6.93582e-18 0.00402116 4.75255e-17 0.00533389)
(9.63902e-06 -2.36407e-07 -2.37672e-20 8.73715e-06 -2.99639e-21 9.33221e-06)
(8.96112e-07 -1.22829e-09 3.75687e-22 8.86738e-07 9.81931e-23 8.92623e-07)
(0 -0 0 0 0 0)
(0.00138347 0.000388972 2.18635e-17 0.000781752 1.94201e-18 0.00117641)
(1.4168e-05 -1.20395e-06 1.19813e-19 1.22563e-05 2.12574e-20 1.27468e-05)
(1.00606e-05 -3.5849e-07 -3.18469e-20 8.57974e-06 -1.35921e-20 9.13676e-06)
(1.081e-06 1.61779e-10 5.29511e-23 1.06555e-06 1.26002e-23 1.072e-06)
(0 0 0 0 -0 0)
(1.79988e-05 -1.17489e-06 -5.04172e-21 1.4512e-05 -5.65546e-21 1.64798e-05)
(1.96642e-05 -6.1668e-07 3.50062e-20 1.51809e-05 3.81692e-20 1.76969e-05)
(2.10607e-05 1.58543e-07 2.08969e-20 1.67764e-05 -2.14135e-20 1.89418e-05)
(7.97438e-07 2.00587e-09 -1.14795e-23 7.94651e-07 1.22747e-23 7.96404e-07)
(1.51442e-05 -1.1775e-06 3.98745e-20 1.24877e-05 5.27458e-21 1.36816e-05)
(1.52109e-05 -5.36193e-07 2.16225e-19 1.19738e-05 8.13238e-22 1.35425e-05)
(2.64909e-05 3.24734e-07 -2.53154e-19 1.95007e-05 2.2628e-20 2.27729e-05)
(1.11305e-05 4.1433e-07 1.04107e-20 1.05833e-05 4.88612e-21 1.09194e-05)
(1.53348e-05 -1.09483e-06 4.16064e-21 1.24892e-05 -8.30928e-21 1.39403e-05)
(1.55161e-05 -4.64639e-07 -2.46928e-19 1.21559e-05 -3.88477e-20 1.39114e-05)
(2.24263e-05 3.3208e-07 3.16789e-19 1.70077e-05 4.87138e-20 1.96411e-05)
(2.61626e-05 2.27248e-06 8.66797e-20 2.31952e-05 -3.28781e-20 2.50151e-05)
(1.4212e-05 -1.048e-06 -9.4604e-20 1.16395e-05 -4.43433e-21 1.28882e-05)
(1.46608e-05 -4.41266e-07 1.60085e-19 1.14389e-05 2.35596e-20 1.30734e-05)
(1.89695e-05 3.24611e-07 -1.44635e-19 1.46733e-05 -6.44464e-20 1.6739e-05)
(2.86495e-05 2.91678e-06 -1.82052e-19 2.49225e-05 -1.01956e-19 2.71898e-05)
(1.36724e-05 -9.90475e-07 1.09027e-19 1.1174e-05 1.33938e-20 1.24163e-05)
(1.41521e-05 -3.96757e-07 -2.24821e-19 1.10146e-05 -2.98836e-20 1.26273e-05)
(1.74175e-05 3.49314e-07 -1.49915e-20 1.35296e-05 2.39259e-20 1.54138e-05)
(2.62333e-05 2.69946e-06 -2.91894e-19 2.28488e-05 3.20839e-20 2.48957e-05)
(1.29083e-05 -9.4281e-07 -8.00645e-20 1.05614e-05 -1.48918e-20 1.17184e-05)
(1.33005e-05 -3.5719e-07 1.46894e-19 1.03462e-05 4.53652e-20 1.18564e-05)
(1.61177e-05 3.74292e-07 2.30113e-20 1.25304e-05 1.9766e-20 1.42692e-05)
(2.35529e-05 2.42189e-06 1.69193e-19 2.05856e-05 5.78698e-20 2.2367e-05)
(1.22223e-05 -8.92572e-07 1.66956e-20 9.99909e-06 7.40701e-21 1.11007e-05)
(1.25304e-05 -3.18801e-07 6.37007e-20 9.74108e-06 -1.40108e-20 1.11699e-05)
(1.49016e-05 3.9237e-07 1.20869e-19 1.15976e-05 -7.80772e-21 1.32048e-05)
(2.12181e-05 2.19229e-06 -8.27427e-20 1.85958e-05 -5.30539e-20 2.01591e-05)
(1.14849e-05 -8.43393e-07 1.1232e-20 9.40237e-06 7.47142e-24 1.04338e-05)
(1.17163e-05 -2.84871e-07 -9.30353e-20 9.10351e-06 -1.27881e-20 1.04403e-05)
(1.36915e-05 4.02578e-07 -1.59426e-19 1.06733e-05 -4.13047e-20 1.21445e-05)
(1.91087e-05 1.99041e-06 -9.43221e-20 1.67911e-05 3.52815e-20 1.81627e-05)
(1.075e-05 -7.93993e-07 -4.40119e-21 8.80698e-06 1.46834e-21 9.77101e-06)
(1.091e-05 -2.53976e-07 5.01701e-20 8.47285e-06 1.88829e-21 9.71961e-06)
(1.25336e-05 4.06374e-07 -6.54314e-20 9.78918e-06 2.16951e-20 1.11307e-05)
(1.71556e-05 1.80311e-06 2.25679e-19 1.51174e-05 1.67719e-20 1.63149e-05)
(1.0002e-05 -7.45079e-07 4.12633e-20 8.20306e-06 -2.53247e-21 9.09637e-06)
(1.00952e-05 -2.2605e-07 -1.46911e-19 7.83689e-06 -1.8535e-20 8.9914e-06)
(1.14255e-05 4.04783e-07 9.73277e-20 8.94226e-06 2.64246e-20 1.01593e-05)
(1.53446e-05 1.6285e-06 -1.73247e-19 1.35647e-05 -1.66119e-20 1.46026e-05)
(9.25138e-06 -6.96521e-07 -1.14489e-19 7.59789e-06 -1.15542e-20 8.41998e-06)
(9.28238e-06 -2.00758e-07 3.53734e-20 7.20345e-06 2.46083e-20 8.26567e-06)
(1.03668e-05 3.98153e-07 7.2639e-20 8.13202e-06 -9.38434e-21 9.23002e-06)
(1.36707e-05 1.46609e-06 2.80909e-19 1.21286e-05 3.50035e-20 1.30208e-05)
(8.50017e-06 -6.48621e-07 5.80067e-20 6.99348e-06 1.22875e-20 7.7434e-06)
(8.47355e-06 -1.78005e-07 1.14158e-19 6.57405e-06 3.75139e-21 7.54395e-06)
(9.36e-06 3.87234e-07 -7.04654e-20 7.36011e-06 -1.92445e-20 8.34527e-06)
(1.21371e-05 1.31621e-06 -1.6862e-19 1.08115e-05 -4.90842e-20 1.15728e-05)
(7.7532e-06 -6.01408e-07 -1.56369e-20 6.39345e-06 -4.87408e-21 7.071e-06)
(7.67373e-06 -1.57466e-07 -8.7098e-20 5.95233e-06 -1.72183e-20 6.83068e-06)
(8.40181e-06 3.72778e-07 -4.14399e-20 6.6243e-06 6.88222e-21 7.50206e-06)
(1.07338e-05 1.17817e-06 3.20539e-20 9.6055e-06 2.2875e-20 1.02487e-05)
(7.01454e-06 -5.54947e-07 4.62104e-21 5.80089e-06 3.52086e-21 6.40635e-06)
(6.88824e-06 -1.38895e-07 1.334e-20 5.34229e-06 8.11891e-21 6.13064e-06)
(7.49376e-06 3.55255e-07 4.90712e-20 5.9256e-06 1.45291e-20 6.70187e-06)
(9.45638e-06 1.05157e-06 1.90658e-21 8.50692e-06 -8.09541e-21 9.04426e-06)
(6.28895e-06 -5.09392e-07 3.27496e-20 5.21959e-06 1.68633e-21 5.7537e-06)
(6.12066e-06 -1.22014e-07 3.13803e-21 4.74656e-06 -2.38244e-21 5.44685e-06)
(6.63581e-06 3.35641e-07 6.63926e-20 5.26442e-06 -7.26295e-21 5.94489e-06)
(8.30012e-06 9.36045e-07 -4.75432e-20 7.51191e-06 -2.43723e-21 7.95509e-06)
(5.58141e-06 -4.64864e-07 -2.60821e-20 4.65348e-06 -3.53722e-21 5.11753e-06)
(5.37626e-06 -1.06669e-07 -2.35637e-20 4.16914e-06 7.99401e-22 4.78404e-06)
(5.82701e-06 3.14258e-07 -1.30718e-19 4.64004e-06 -1.58808e-20 5.23025e-06)
(7.25565e-06 8.30746e-07 2.67017e-20 6.61267e-06 9.42251e-21 6.97202e-06)
(4.89638e-06 -4.21412e-07 1.86718e-20 4.10604e-06 6.28691e-22 4.5018e-06)
(4.65855e-06 -9.25359e-08 5.22103e-20 3.61262e-06 7.35547e-21 4.14522e-06)
(5.06949e-06 2.91981e-07 4.89281e-20 4.05465e-06 2.19206e-20 4.56031e-06)
(6.31868e-06 7.35289e-07 2.80112e-20 5.80567e-06 3.77582e-21 6.09112e-06)
(4.23894e-06 -3.79116e-07 -4.84205e-20 3.58126e-06 -3.7774e-21 3.91108e-06)
(3.97153e-06 -7.94381e-08 -2.33835e-21 3.08004e-06 -1.67201e-21 3.53391e-06)
(4.36352e-06 2.69329e-07 8.79043e-20 3.50881e-06 9.92974e-22 3.93547e-06)
(5.48116e-06 6.48964e-07 4.51527e-20 5.08449e-06 -5.14079e-21 5.30462e-06)
(3.6141e-06 -3.38076e-07 4.15913e-20 3.08327e-06 7.05885e-21 3.34996e-06)
(3.3188e-06 -6.71322e-08 3.36977e-20 2.57406e-06 3.07716e-21 2.95326e-06)
(3.71079e-06 2.46872e-07 -6.65678e-20 3.00441e-06 -9.88643e-21 3.35766e-06)
(4.73786e-06 5.71247e-07 -1.06835e-19 4.44487e-06 -9.56754e-21 4.60764e-06)
(3.0272e-06 -2.98377e-07 2.25139e-21 2.61653e-06 -2.1659e-21 2.82333e-06)
(2.70306e-06 -5.54842e-08 -1.08733e-20 2.09676e-06 -5.02353e-21 2.40563e-06)
(3.11289e-06 2.25076e-07 4.88886e-20 2.54335e-06 5.14143e-21 2.82863e-06)
(4.0826e-06 5.01519e-07 6.9785e-20 3.88193e-06 9.15852e-21 3.99429e-06)
(2.48416e-06 -2.60089e-07 -2.93888e-21 2.18617e-06 -9.23736e-22 2.33674e-06)
(2.12702e-06 -4.42691e-08 -3.22325e-20 1.65012e-06 -4.00425e-21 1.89335e-06)
(2.57294e-06 2.0437e-07 -7.19157e-20 2.12895e-06 -8.59043e-21 2.35169e-06)
(3.51061e-06 4.39229e-07 -8.63033e-20 3.39193e-06 -1.39355e-20 3.4601e-06)
(1.99257e-06 -2.23298e-07 -9.38478e-21 1.79908e-06 -1.3108e-21 1.89744e-06)
(1.59283e-06 -3.33893e-08 -2.25406e-20 1.23576e-06 -8.80851e-22 1.41832e-06)
(2.09518e-06 1.85094e-07 3.49187e-20 1.76573e-06 8.28481e-21 1.93129e-06)
(3.01785e-06 3.83885e-07 -8.13788e-21 2.97186e-06 9.44534e-21 3.00134e-06)
(1.56267e-06 -1.88088e-07 -9.2564e-21 1.46497e-06 -1.02261e-21 1.51543e-06)
(1.10137e-06 -2.27586e-08 -5.87066e-21 8.54354e-07 2.10181e-21 9.81225e-07)
(1.68638e-06 1.67509e-07 3.16288e-21 1.4607e-06 -1.11015e-21 1.57437e-06)
(2.60047e-06 3.34953e-07 8.33623e-20 2.61875e-06 1.33164e-20 2.61441e-06)
(1.21017e-06 -1.54546e-07 -1.27767e-20 1.19911e-06 -1.08053e-21 1.20621e-06)
(6.54246e-07 -1.22849e-08 3.05809e-20 5.07114e-07 2.95943e-21 5.83507e-07)
(1.35614e-06 1.51788e-07 1.22602e-20 1.22385e-06 -5.71105e-22 1.29072e-06)
(2.25528e-06 2.91975e-07 8.3382e-20 2.33022e-06 6.67227e-23 2.29635e-06)
(9.57391e-07 -1.22774e-07 -3.79174e-21 1.02357e-06 1.18854e-21 9.91977e-07)
(2.53192e-07 -1.95705e-09 -9.8541e-21 1.95713e-07 -1.8813e-21 2.26842e-07)
(1.11668e-06 1.38021e-07 -2.93019e-20 1.06766e-06 -3.64002e-21 1.09277e-06)
(1.97855e-06 2.54495e-07 -7.27073e-20 2.1032e-06 -1.41258e-20 2.04367e-06)
(8.24817e-07 -9.28565e-08 2.32881e-20 9.5874e-07 2.36709e-21 8.93185e-07)
(9.64941e-08 8.24058e-09 1.36671e-20 1.18457e-07 -1.4905e-22 1.09502e-07)
(9.76149e-07 1.26261e-07 2.05174e-22 1.00066e-06 3.27393e-21 9.8887e-07)
(1.76549e-06 2.22078e-07 -5.24362e-20 1.93345e-06 -5.56267e-22 1.85173e-06)
(8.07166e-07 -6.48778e-08 -4.94541e-21 9.99363e-07 -1.14969e-21 9.04548e-07)
(3.37298e-07 1.82664e-08 -4.66855e-20 4.28631e-07 -4.22922e-21 3.84691e-07)
(9.26666e-07 1.16459e-07 3.57046e-20 1.01534e-06 1.64436e-21 9.71337e-07)
(1.6092e-06 1.94283e-07 2.51105e-20 1.81459e-06 2.95558e-21 1.71381e-06)
(8.66641e-07 -3.89141e-08 7.95861e-21 1.10782e-06 7.15344e-22 9.88393e-07)
(5.5158e-07 2.80857e-08 2.98078e-20 7.02474e-07 4.53403e-21 6.28502e-07)
(9.42698e-07 1.08518e-07 -4.39345e-20 1.0866e-06 -5.14729e-21 1.01486e-06)
(1.50091e-06 1.70697e-07 -4.71415e-20 1.73825e-06 -5.31356e-21 1.62129e-06)
(9.61221e-07 -1.5041e-08 -7.48833e-21 1.24243e-06 -5.90814e-22 1.10285e-06)
(7.3547e-07 3.76132e-08 -1.41955e-20 9.36469e-07 -2.57877e-21 8.37238e-07)
(9.94429e-07 1.02309e-07 2.19842e-20 1.18507e-06 3.07527e-21 1.08987e-06)
(1.43031e-06 1.50911e-07 1.4102e-20 1.69446e-06 5.88454e-21 1.56399e-06)
(1.06322e-06 6.69885e-09 1.30228e-20 1.37594e-06 1.79455e-21 1.22048e-06)
(8.9018e-07 4.67697e-08 3.5276e-21 1.13231e-06 3.48338e-22 1.01234e-06)
(1.05927e-06 9.76435e-08 -2.79469e-20 1.28866e-06 -2.0327e-21 1.174e-06)
(1.38691e-06 1.34512e-07 6.52566e-20 1.67305e-06 5.65852e-21 1.53152e-06)
(1.46253e-06 1.25856e-08 -8.87012e-21 1.89223e-06 -8.82469e-23 1.67814e-06)
(1.15809e-06 2.62577e-08 3.85872e-21 1.49436e-06 -1.39448e-21 1.32699e-06)
(1.0173e-06 5.54436e-08 -1.6559e-20 1.29214e-06 2.36395e-22 1.15565e-06)
(1.12362e-06 9.43282e-08 4.77374e-20 1.38427e-06 6.10466e-21 1.25392e-06)
(1.36125e-06 1.21111e-07 -9.22108e-21 1.66485e-06 -3.19711e-21 1.51458e-06)
(1.48741e-06 3.68202e-08 2.39964e-20 1.91806e-06 2.64156e-21 1.70338e-06)
(1.23892e-06 4.36356e-08 -3.89184e-20 1.59141e-06 -4.05147e-21 1.41581e-06)
(1.11872e-06 6.35552e-08 5.94999e-20 1.41842e-06 5.66913e-21 1.26937e-06)
(1.18016e-06 9.2145e-08 3.839e-21 1.46511e-06 -3.14815e-21 1.32257e-06)
(1.34563e-06 1.10321e-07 3.0066e-21 1.66241e-06 6.49299e-22 1.50555e-06)
(1.50852e-06 5.76096e-08 -6.73718e-21 1.93498e-06 -1.76012e-21 1.72228e-06)
(1.30283e-06 5.8832e-08 7.63352e-21 1.66492e-06 2.80361e-21 1.48441e-06)
(1.1965e-06 7.09899e-08 -3.30487e-20 1.51395e-06 -5.68053e-21 1.35591e-06)
(1.22538e-06 9.08609e-08 -5.46765e-20 1.5283e-06 -5.18925e-21 1.37674e-06)
(1.3343e-06 1.01764e-07 -1.75609e-21 1.66027e-06 -1.37092e-21 1.49882e-06)
(1.52185e-06 7.51056e-08 -9.51209e-21 1.93969e-06 -3.76225e-22 1.73121e-06)
(1.34916e-06 7.18929e-08 2.30084e-20 1.71498e-06 2.79967e-21 1.53251e-06)
(1.25275e-06 7.76762e-08 -6.38596e-21 1.58149e-06 9.43633e-22 1.41771e-06)
(1.25792e-06 9.02724e-08 2.01382e-20 1.57298e-06 4.08847e-21 1.41533e-06)
(1.32323e-06 9.5103e-08 -3.46782e-20 1.65465e-06 -2.56624e-21 1.49049e-06)
(1.5253e-06 8.94967e-08 1.53983e-20 1.93084e-06 2.01098e-21 1.72842e-06)
(1.37845e-06 8.28797e-08 1.89649e-20 1.74289e-06 1.21186e-21 1.56102e-06)
(1.28969e-06 8.35445e-08 1.82062e-20 1.62401e-06 1.56161e-21 1.45735e-06)
(1.27774e-06 9.01612e-08 5.68975e-21 1.59976e-06 6.86121e-22 1.43862e-06)
(1.30988e-06 8.99955e-08 3.36993e-20 1.64334e-06 4.97486e-21 1.47817e-06)
(1.51814e-06 1.01e-07 2.41729e-21 1.90842e-06 -2.04112e-22 1.71355e-06)
(1.39188e-06 9.18759e-08 -5.29707e-21 1.75058e-06 -1.68207e-21 1.5715e-06)
(1.30945e-06 8.85317e-08 -2.12447e-20 1.6444e-06 -2.43017e-21 1.47735e-06)
(1.28541e-06 9.03403e-08 2.46123e-20 1.6098e-06 1.92636e-21 1.44746e-06)
(1.29275e-06 8.61461e-08 1.68812e-20 1.62512e-06 7.12908e-22 1.46049e-06)
(1.50058e-06 1.09859e-07 -1.04272e-21 1.8733e-06 -3.84975e-23 1.68716e-06)
(1.39103e-06 9.90041e-08 -2.32095e-20 1.74041e-06 -2.28079e-21 1.56592e-06)
(1.31421e-06 9.26264e-08 1.47727e-20 1.64553e-06 1.95322e-21 1.48024e-06)
(1.2819e-06 9.06468e-08 -1.8001e-20 1.60463e-06 -3.12268e-21 1.44311e-06)
(1.27104e-06 8.32835e-08 -6.37636e-21 1.59949e-06 -1.97622e-21 1.43682e-06)
(1.47338e-06 1.16329e-07 4.93883e-21 1.82687e-06 5.08932e-22 1.65029e-06)
(1.37767e-06 1.04388e-07 4.702e-21 1.71482e-06 1.61371e-21 1.5464e-06)
(1.3061e-06 9.58091e-08 -8.85386e-21 1.63026e-06 -1.35842e-21 1.46849e-06)
(1.26851e-06 9.09394e-08 -2.02205e-20 1.58618e-06 -1.11699e-21 1.42719e-06)
(1.24466e-06 8.11619e-08 -3.71687e-20 1.56671e-06 -3.30028e-21 1.40722e-06)
(1.43764e-06 1.20669e-07 -4.72086e-21 1.77078e-06 -5.05117e-22 1.60434e-06)
(1.3536e-06 1.08165e-07 2.23913e-20 1.67629e-06 2.00766e-21 1.51505e-06)
(1.28704e-06 9.80937e-08 -1.44972e-21 1.60116e-06 -1.51091e-24 1.44436e-06)
(1.24648e-06 9.11002e-08 2.28727e-20 1.55622e-06 3.13946e-21 1.40118e-06)
(1.21374e-06 7.95716e-08 2.34123e-20 1.52726e-06 2.60586e-21 1.37202e-06)
(1.39466e-06 1.23142e-07 7.33325e-21 1.70685e-06 1.19612e-21 1.55085e-06)
(1.32062e-06 1.10501e-07 -1.7482e-20 1.62721e-06 -2.9191e-21 1.47399e-06)
(1.25892e-06 9.95165e-08 -2.67975e-21 1.56074e-06 -1.08693e-22 1.41006e-06)
(1.21713e-06 9.10482e-08 8.49235e-21 1.51661e-06 9.3836e-22 1.36671e-06)
(1.17866e-06 7.83318e-08 -3.6162e-20 1.48182e-06 -4.34975e-21 1.33174e-06)
(1.34572e-06 1.23982e-07 1.41858e-20 1.63676e-06 1.35597e-21 1.49131e-06)
(1.28035e-06 1.11533e-07 -2.2911e-20 1.56973e-06 -2.20905e-21 1.42508e-06)
(1.22343e-06 1.00109e-07 6.33881e-21 1.51125e-06 4.83342e-22 1.36753e-06)
(1.18175e-06 9.06988e-08 2.42844e-20 1.46913e-06 2.6898e-21 1.32527e-06)
(1.14002e-06 7.72809e-08 3.86787e-21 1.43135e-06 9.97384e-22 1.28714e-06)
(1.29207e-06 1.23429e-07 -8.08799e-21 1.56211e-06 -1.05448e-21 1.42714e-06)
(1.23427e-06 1.11409e-07 1.02999e-21 1.5058e-06 7.68049e-22 1.37006e-06)
(1.182e-06 9.99161e-08 -1.34743e-20 1.4546e-06 -1.67626e-21 1.31846e-06)
(1.14141e-06 9.00043e-08 8.89278e-21 1.41529e-06 6.987e-24 1.27817e-06)
(1.0983e-06 7.62917e-08 -9.03656e-21 1.37662e-06 -1.30771e-21 1.23888e-06)
(1.23475e-06 1.21675e-07 8.12572e-21 1.48423e-06 1.0269e-21 1.35953e-06)
(1.18367e-06 1.10262e-07 1.23125e-20 1.43707e-06 1.03929e-21 1.31038e-06)
(1.1359e-06 9.89873e-08 -8.36868e-22 1.39252e-06 6.7497e-22 1.26436e-06)
(1.0971e-06 8.89181e-08 -2.64476e-20 1.35649e-06 -3.52192e-21 1.22663e-06)
(1.05404e-06 7.52392e-08 -1.45189e-20 1.31846e-06 -1.36965e-21 1.18763e-06)
(1.17464e-06 1.18893e-07 -3.15957e-21 1.40421e-06 -5.70913e-22 1.28946e-06)
(1.12953e-06 1.082e-07 -2.20439e-20 1.36485e-06 -2.83166e-21 1.24718e-06)
(1.08613e-06 9.73516e-08 2.97624e-20 1.32635e-06 3.63246e-21 1.20636e-06)
(1.04961e-06 8.73977e-08 -2.22804e-20 1.29387e-06 -1.56064e-21 1.17157e-06)
(1.00767e-06 7.40182e-08 5.63694e-21 1.25757e-06 7.72893e-22 1.13394e-06)
(1.15362e-06 1.25137e-07 1.90552e-21 1.35549e-06 6.21821e-23 1.25456e-06)
(1.11247e-06 1.15234e-07 -4.4737e-21 1.32293e-06 -8.06424e-22 1.21772e-06)
(1.07269e-06 1.0533e-07 -4.67742e-21 1.29022e-06 2.92515e-22 1.18144e-06)
(1.03348e-06 9.50554e-08 1.27498e-20 1.25719e-06 7.2411e-22 1.14545e-06)
(9.99575e-07 8.54172e-08 2.95377e-20 1.22834e-06 4.08354e-21 1.11379e-06)
(9.59522e-07 7.25392e-08 -4.12437e-21 1.19452e-06 -6.81561e-22 1.07828e-06)
(1.08455e-06 1.19756e-07 -4.95989e-21 1.26746e-06 -4.66313e-22 1.17601e-06)
(1.04883e-06 1.10832e-07 -2.44229e-20 1.24108e-06 -2.76231e-21 1.14497e-06)
(1.01384e-06 1.01744e-07 3.4684e-20 1.21406e-06 3.90966e-21 1.11393e-06)
(9.78628e-07 9.21391e-08 -1.73753e-20 1.18594e-06 -2.0554e-21 1.08238e-06)
(9.4753e-07 8.29579e-08 2.26509e-20 1.16072e-06 2.08779e-21 1.05395e-06)
(9.09915e-07 7.07362e-08 -8.67754e-21 1.12982e-06 -8.3646e-22 1.02107e-06)
(1.01535e-06 1.13827e-07 1.3129e-20 1.18065e-06 1.68738e-21 1.098e-06)
(9.84379e-07 1.0583e-07 5.81781e-21 1.1594e-06 9.48471e-22 1.0719e-06)
(9.53684e-07 9.75578e-08 -1.74713e-20 1.13723e-06 -2.47219e-21 1.04543e-06)
(9.2226e-07 8.86778e-08 1.15396e-20 1.11351e-06 1.46052e-21 1.01797e-06)
(8.94056e-07 8.00507e-08 -2.70536e-21 1.09178e-06 -7.35442e-22 9.92761e-07)
(8.59196e-07 6.85826e-08 6.66375e-21 1.06401e-06 8.78533e-22 9.62735e-07)
(9.46722e-07 1.0752e-07 3.72398e-21 1.09574e-06 1.55745e-22 1.02123e-06)
(9.19906e-07 1.00389e-07 -4.01593e-21 1.07876e-06 -3.7462e-22 9.99339e-07)
(8.93076e-07 9.29121e-08 4.32586e-21 1.06072e-06 8.0909e-22 9.76873e-07)
(8.65184e-07 8.47739e-08 -1.05837e-20 1.04089e-06 -1.19485e-21 9.53116e-07)
(8.39865e-07 7.67552e-08 -7.24761e-21 1.02246e-06 -8.53623e-22 9.31013e-07)
(8.07918e-07 6.6098e-08 -4.59184e-22 9.9785e-07 -3.89051e-23 9.03939e-07)
(8.79582e-07 1.01023e-07 -1.43214e-20 1.01362e-06 -1.71274e-21 9.46605e-07)
(8.56397e-07 9.4691e-08 1.62749e-20 1.00018e-06 2.19063e-21 9.28292e-07)
(8.33015e-07 8.79735e-08 6.96482e-21 9.85639e-07 6.16243e-22 9.09301e-07)
(8.08387e-07 8.05719e-08 1.65814e-20 9.69223e-07 1.94294e-21 8.88875e-07)
(7.85862e-07 7.31909e-08 -4.06856e-21 9.5383e-07 -3.06037e-22 8.69709e-07)
(7.56825e-07 6.33659e-08 9.03062e-21 9.32251e-07 8.5355e-22 8.45517e-07)
(8.14922e-07 9.45267e-08 6.7399e-21 9.3529e-07 9.3798e-22 8.75106e-07)
(7.94902e-07 8.89246e-08 1.79186e-20 9.24752e-07 1.92445e-21 8.59832e-07)
(7.74571e-07 8.29208e-08 -1.53257e-20 9.13146e-07 -1.74613e-21 8.43834e-07)
(7.52903e-07 7.62318e-08 -1.36838e-20 8.99669e-07 -2.05269e-21 8.2635e-07)
(7.32996e-07 6.94901e-08 5.7869e-21 8.86994e-07 6.90138e-22 8.0987e-07)
(7.06767e-07 6.04895e-08 -1.89347e-20 8.68236e-07 -2.07137e-21 7.88404e-07)
(7.53495e-07 8.81783e-08 -2.60409e-21 8.61453e-07 -6.0511e-22 8.07474e-07)
(7.36206e-07 8.32367e-08 -8.03099e-21 8.53277e-07 -9.34855e-22 7.94746e-07)
(7.18554e-07 7.78939e-08 1.69503e-20 8.441e-07 2.15557e-21 7.81303e-07)
(6.99541e-07 7.18808e-08 -2.42874e-20 8.33129e-07 -2.71066e-21 7.66393e-07)
(6.8204e-07 6.57642e-08 -5.35681e-21 8.22837e-07 -7.06415e-22 7.52323e-07)
(6.58478e-07 5.75673e-08 2.47608e-20 8.06675e-07 2.90585e-21 7.33406e-07)
(6.95478e-07 8.20405e-08 -2.73667e-20 7.92213e-07 -3.26696e-21 7.43844e-07)
(6.8054e-07 7.76916e-08 2.26706e-20 7.8594e-07 2.64934e-21 7.33244e-07)
(6.65221e-07 7.29526e-08 -4.56055e-21 7.78757e-07 -5.88983e-22 7.21966e-07)
(6.48584e-07 6.75731e-08 4.84821e-21 7.69914e-07 8.46053e-22 7.09301e-07)
(6.33267e-07 6.20578e-08 2.21655e-21 7.61681e-07 4.7989e-23 6.97369e-07)
(6.12235e-07 5.46353e-08 -1.88069e-20 7.47906e-07 -2.33325e-21 6.80832e-07)
(6.40407e-07 7.60874e-08 8.58565e-21 7.26984e-07 1.21601e-21 6.83695e-07)
(6.2749e-07 7.22656e-08 -2.38516e-20 7.22237e-07 -3.06927e-21 6.74867e-07)
(6.14214e-07 6.80739e-08 1.54322e-20 7.16695e-07 1.9518e-21 6.65434e-07)
(5.99707e-07 6.32808e-08 5.67374e-21 7.09664e-07 5.51144e-22 6.54733e-07)
(5.86373e-07 5.83303e-08 -2.76124e-20 7.03212e-07 -3.3602e-21 6.44696e-07)
(5.67764e-07 5.16488e-08 1.24719e-20 6.91659e-07 1.68501e-21 6.30406e-07)
(5.98283e-07 7.32596e-08 2.99577e-22 6.67641e-07 -1.4063e-22 6.32963e-07)
(5.87425e-07 7.02337e-08 -5.64532e-21 6.64757e-07 -6.83727e-22 6.2609e-07)
(5.7625e-07 6.68765e-08 4.17559e-21 6.6123e-07 7.5459e-22 6.18743e-07)
(5.64768e-07 6.31757e-08 5.012e-21 6.57043e-07 4.72956e-22 6.10888e-07)
(5.52192e-07 5.89199e-08 -1.18706e-20 6.51575e-07 -1.3455e-21 6.01927e-07)
(5.40683e-07 5.44945e-08 -5.48047e-21 6.46696e-07 -5.6309e-22 5.93605e-07)
(5.24398e-07 4.85175e-08 6.84305e-21 6.37203e-07 6.53327e-22 5.8143e-07)
(5.45326e-07 6.70707e-08 -2.67274e-20 6.06812e-07 -3.32825e-21 5.76069e-07)
(5.3591e-07 6.44226e-08 9.75079e-21 6.04782e-07 1.37805e-21 5.70344e-07)
(5.26254e-07 6.14738e-08 8.41283e-21 6.02248e-07 9.10029e-22 5.64252e-07)
(5.16371e-07 5.82106e-08 -2.8519e-21 5.99205e-07 -4.88953e-22 5.5777e-07)
(5.05554e-07 5.44419e-08 1.67921e-20 5.95101e-07 2.23369e-21 5.50364e-07)
(4.95739e-07 5.04968e-08 -1.72682e-20 5.91632e-07 -1.76416e-21 5.43612e-07)
(4.81658e-07 4.51777e-08 -9.01717e-21 5.8402e-07 -1.2156e-21 5.33394e-07)
(4.93959e-07 6.09894e-08 -7.12594e-22 5.48246e-07 1.14993e-22 5.21106e-07)
(4.8578e-07 5.86687e-08 1.88115e-20 5.46884e-07 2.26584e-21 5.16335e-07)
(4.77455e-07 5.60792e-08 -1.4719e-20 5.45159e-07 -1.8868e-21 5.11312e-07)
(4.68989e-07 5.32041e-08 -1.70574e-20 5.43072e-07 -2.07612e-21 5.0602e-07)
(4.59755e-07 4.98732e-08 1.37237e-20 5.40137e-07 1.69797e-21 4.99982e-07)
(4.51504e-07 4.63619e-08 3.60296e-20 5.37933e-07 4.45624e-21 4.94667e-07)
(4.3946e-07 4.1649e-08 -1.24314e-20 5.31981e-07 -1.62963e-21 4.86207e-07)
(4.4481e-07 5.51085e-08 6.61639e-21 4.92563e-07 7.68973e-22 4.68681e-07)
(4.37706e-07 5.30726e-08 -8.46197e-22 4.91732e-07 -1.27904e-22 4.64713e-07)
(4.30544e-07 5.07971e-08 -1.55562e-21 4.90667e-07 -7.95117e-23 4.60601e-07)
(4.2332e-07 4.82622e-08 -8.55335e-22 4.89373e-07 -4.58821e-23 4.56331e-07)
(4.1549e-07 4.53198e-08 2.40704e-20 4.87419e-07 2.77793e-21 4.51474e-07)
(4.0866e-07 4.21958e-08 -3.94037e-21 4.86332e-07 -7.02083e-22 4.47454e-07)
(3.98433e-07 3.80265e-08 -3.35267e-20 4.81788e-07 -3.95149e-21 4.4051e-07)
(3.98656e-07 4.95548e-08 -1.37133e-20 4.4044e-07 -1.71721e-21 4.19555e-07)
(3.92471e-07 4.77672e-08 1.64719e-20 4.40022e-07 2.01369e-21 4.16255e-07)
(3.86303e-07 4.57668e-08 4.19911e-21 4.39474e-07 6.38509e-22 4.12897e-07)
(3.80152e-07 4.35321e-08 -8.97802e-21 4.3882e-07 -1.2107e-21 4.09485e-07)
(3.73531e-07 4.09333e-08 -1.18125e-20 4.37659e-07 -1.44624e-21 4.0562e-07)
(3.67917e-07 3.81503e-08 4.2689e-21 4.37478e-07 4.61913e-22 4.02692e-07)
(3.59217e-07 3.44568e-08 3.25828e-21 4.34038e-07 7.39162e-22 3.96974e-07)
(3.56801e-07 4.44894e-08 5.95511e-21 3.93319e-07 7.1914e-22 3.7505e-07)
(3.51376e-07 4.29147e-08 -9.51495e-21 3.93188e-07 -1.26363e-21 3.72276e-07)
(3.46039e-07 4.11516e-08 2.44839e-20 3.93023e-07 2.93569e-21 3.69525e-07)
(3.40822e-07 3.91841e-08 -1.95131e-20 3.92883e-07 -2.35546e-21 3.66839e-07)
(3.35282e-07 3.68959e-08 2.73517e-20 3.92403e-07 3.36913e-21 3.63847e-07)
(3.30764e-07 3.4432e-08 -1.49186e-20 3.92992e-07 -1.8873e-21 3.61868e-07)
(3.23524e-07 3.11799e-08 3.03665e-20 3.90627e-07 3.70254e-21 3.57338e-07)
(3.21901e-07 4.02201e-08 -1.55473e-20 3.54321e-07 -2.09266e-21 3.38103e-07)
(3.16966e-07 3.87924e-08 -3.8944e-22 3.54285e-07 -1.04664e-23 3.35615e-07)
(3.12172e-07 3.7193e-08 -1.08196e-20 3.5429e-07 -1.39012e-21 3.3322e-07)
(3.0756e-07 3.54047e-08 -6.33065e-22 3.54419e-07 3.98565e-23 3.30976e-07)
(3.02739e-07 3.33256e-08 -4.7224e-21 3.54328e-07 -8.12867e-22 3.2853e-07)
(2.98972e-07 3.10704e-08 -7.80501e-21 3.55406e-07 -8.43584e-22 3.27183e-07)
(2.92972e-07 2.8156e-08 1.0866e-20 3.53951e-07 1.03682e-21 3.23651e-07)
(2.93833e-07 3.67876e-08 -2.25352e-20 3.22921e-07 -2.73111e-21 3.08385e-07)
(2.89185e-07 3.54665e-08 -3.45898e-21 3.22843e-07 -3.6566e-22 3.0602e-07)
(2.84714e-07 3.39875e-08 1.30668e-20 3.22854e-07 1.6586e-21 3.03789e-07)
(2.80441e-07 3.23295e-08 1.79338e-23 3.23023e-07 -5.01133e-23 3.01737e-07)
(2.76021e-07 3.04033e-08 -1.13392e-20 3.23028e-07 -1.48244e-21 2.99534e-07)
(2.72663e-07 2.83017e-08 1.12098e-21 3.24257e-07 4.83857e-22 2.98483e-07)
(2.67415e-07 2.56444e-08 -1.70418e-20 3.23224e-07 -2.3012e-21 2.95486e-07)
(2.68649e-07 3.37174e-08 3.22518e-21 2.94627e-07 5.65486e-22 2.81639e-07)
(2.64207e-07 3.24937e-08 9.87537e-21 2.94438e-07 1.23376e-21 2.79326e-07)
(2.59949e-07 3.11218e-08 -7.68258e-21 2.94359e-07 -1.02324e-21 2.77163e-07)
(2.55915e-07 2.95861e-08 -1.08354e-20 2.94463e-07 -1.42813e-21 2.752e-07)
(2.51787e-07 2.78014e-08 -2.06077e-20 2.94467e-07 -2.35271e-21 2.7314e-07)
(2.48715e-07 2.58505e-08 4.37267e-20 2.95704e-07 5.24632e-21 2.72235e-07)
(2.44059e-07 2.34208e-08 -2.91791e-20 2.94971e-07 -3.30468e-21 2.69632e-07)
(2.44363e-07 3.07519e-08 9.22683e-21 2.67337e-07 1.16901e-21 2.55838e-07)
(2.40137e-07 2.96232e-08 -3.21585e-21 2.67068e-07 -4.76628e-22 2.53585e-07)
(2.36083e-07 2.83524e-08 2.95594e-21 2.6691e-07 3.84528e-22 2.5148e-07)
(2.32284e-07 2.69319e-08 -1.69837e-20 2.6697e-07 -2.11015e-21 2.49609e-07)
(2.28429e-07 2.5279e-08 2.57346e-20 2.66972e-07 3.25226e-21 2.47686e-07)
(2.25596e-07 2.3467e-08 -2.51478e-20 2.68174e-07 -3.21649e-21 2.46889e-07)
(2.21452e-07 2.1256e-08 3.46389e-20 2.67646e-07 4.33372e-21 2.44629e-07)
(2.24627e-07 2.87442e-08 1.25425e-20 2.4084e-07 1.59754e-21 2.32781e-07)
(2.20155e-07 2.78007e-08 6.43552e-21 2.40073e-07 8.05774e-22 2.30165e-07)
(2.15963e-07 2.67493e-08 -5.53565e-21 2.39519e-07 -7.29564e-22 2.27791e-07)
(2.12023e-07 2.55746e-08 -4.99158e-21 2.39171e-07 -6.76864e-22 2.25641e-07)
(2.08411e-07 2.42634e-08 -1.10565e-20 2.39149e-07 -1.26884e-21 2.23816e-07)
(2.04892e-07 2.27447e-08 -1.09933e-20 2.39246e-07 -1.41247e-21 2.22085e-07)
(2.02544e-07 2.10925e-08 2.84508e-20 2.40719e-07 3.63959e-21 2.21629e-07)
(1.99748e-07 1.91445e-08 -1.59854e-20 2.41474e-07 -2.08138e-21 2.20572e-07)
(2.00072e-07 2.56457e-08 -6.30959e-21 2.13865e-07 -7.75463e-22 2.06862e-07)
(1.95242e-07 2.47069e-08 1.06381e-20 2.12413e-07 1.2423e-21 2.0374e-07)
(1.90642e-07 2.36616e-08 -1.10372e-20 2.1111e-07 -1.27949e-21 2.00821e-07)
(1.86305e-07 2.25061e-08 -9.77705e-21 2.09997e-07 -1.27185e-21 1.98132e-07)
(1.82283e-07 2.1222e-08 9.08378e-21 2.09188e-07 1.09758e-21 1.95765e-07)
(1.784e-07 1.97512e-08 1.81369e-20 2.08521e-07 2.43885e-21 1.93544e-07)
(1.75146e-07 1.80572e-08 -3.30375e-21 2.08696e-07 -6.33653e-22 1.92132e-07)
(1.71256e-07 1.61657e-08 8.34349e-21 2.07634e-07 1.14794e-21 1.89794e-07)
(1.69285e-07 2.18022e-08 2.03976e-20 1.79474e-07 2.60388e-21 1.74465e-07)
(1.64389e-07 2.09178e-08 -2.39799e-20 1.77793e-07 -3.12504e-21 1.71085e-07)
(1.59951e-07 1.99376e-08 2.78124e-20 1.76563e-07 3.57672e-21 1.68155e-07)
(1.56005e-07 1.88483e-08 -2.19483e-20 1.75821e-07 -2.7391e-21 1.65705e-07)
(1.52683e-07 1.76375e-08 -2.51945e-20 1.75739e-07 -3.2245e-21 1.63892e-07)
(1.50045e-07 1.62787e-08 3.6226e-20 1.76365e-07 4.58234e-21 1.62716e-07)
(1.49801e-07 1.49422e-08 -2.25094e-20 1.79621e-07 -2.85948e-21 1.6396e-07)
(1.51448e-07 1.35326e-08 1.77436e-20 1.84905e-07 2.17989e-21 1.6698e-07)
(1.26117e-07 1.63257e-08 3.05018e-21 1.32011e-07 2.9296e-22 1.29525e-07)
(1.1847e-07 1.52171e-08 -2.13241e-20 1.26648e-07 -2.64911e-21 1.23248e-07)
(1.11419e-07 1.4063e-08 1.38907e-20 1.21806e-07 1.62936e-21 1.17525e-07)
(1.05082e-07 1.28578e-08 -3.74303e-21 1.17649e-07 -3.24967e-22 1.12495e-07)
(9.94272e-08 1.1539e-08 -1.54362e-20 1.14263e-07 -1.83888e-21 1.08226e-07)
(9.43976e-08 1.0002e-08 4.08729e-20 1.11619e-07 4.95497e-21 1.04734e-07)
(8.9694e-08 7.7344e-09 -2.1243e-20 1.09791e-07 -2.48056e-21 1.02248e-07)
(8.44789e-08 5.5503e-09 4.29378e-21 1.05664e-07 3.68577e-22 9.81616e-08)
(1.01216e-07 1.26226e-08 -1.06609e-20 1.07397e-07 -1.32898e-21 1.01554e-07)
(9.77464e-08 1.16989e-08 -1.08155e-20 1.07396e-07 -1.29784e-21 9.94066e-08)
(9.56153e-08 1.0633e-08 -1.74975e-20 1.08709e-07 -2.27308e-21 9.86284e-08)
(9.50004e-08 9.4267e-09 3.0103e-20 1.11439e-07 3.76211e-21 9.93251e-08)
(9.6591e-08 8.17637e-09 5.042e-21 1.16242e-07 6.83863e-22 1.02096e-07)
(1.00973e-07 7.03565e-09 -9.76623e-21 1.23397e-07 -1.32241e-21 1.07042e-07)
(1.13115e-07 6.95067e-09 2.53902e-20 1.3843e-07 3.18607e-21 1.19151e-07)
(1.30622e-07 6.8149e-09 -3.82801e-20 1.6053e-07 -4.7483e-21 1.37375e-07)
(1.22648e-07 4.55828e-09 1.41024e-20 1.01756e-07 1.77354e-21 1.21673e-07)
(1.21507e-07 3.9307e-09 4.7558e-21 1.01339e-07 6.47761e-22 1.21435e-07)
(1.20193e-07 3.39297e-09 -2.08747e-20 1.00862e-07 -2.57199e-21 1.20999e-07)
(1.18407e-07 2.85132e-09 -1.43031e-20 1.00235e-07 -1.89008e-21 1.20276e-07)
(1.16425e-07 2.00559e-09 5.48961e-21 1.00083e-07 7.70557e-22 1.19954e-07)
(1.17648e-07 3.78075e-10 6.55019e-21 1.04436e-07 7.28391e-22 1.24323e-07)
(1.34812e-07 -3.89037e-09 -1.52677e-20 1.26093e-07 -1.93494e-21 1.46916e-07)
(1.56616e-07 -7.73204e-09 6.67887e-22 1.47332e-07 1.00161e-22 1.70173e-07)