/*--------------------------------*- C++ -*----------------------------------*\
| =========                 |                                                 |
| \\      /  F ield         | OpenFOAM: The Open Source CFD Toolbox           |
|  \\    /   O peration     | Version:  2306                                  |
|   \\  /    A nd           | Website:  www.openfoam.com                      |
|    \\/     M anipulation  |                                                 |
\*---------------------------------------------------------------------------*/
FoamFile
{
    version     2.0;
    format      ascii;
    arch        "LSB;label=32;scalar=64";
    class       volVectorField;
    location    "925";
    object      momentError;
}
// * * * * * * * * * * * * * * * * * * * * * * * * * * * * * * * * * * * * * //

dimensions      [0 1 -2 0 0 0 0];

internalField   nonuniform List<vector> 
1340
(
(1.68946e-07 -5.5025e-07 6.04177e-16)
(1.47199e-07 -7.46908e-07 -1.95205e-15)
(1.98655e-07 -6.21481e-07 5.9428e-15)
(1.97958e-07 -6.21835e-07 7.89902e-16)
(1.61872e-07 -5.36636e-07 1.19894e-15)
(2.35689e-07 -7.16492e-07 2.7942e-15)
(2.13083e-07 -7.19755e-07 9.75797e-17)
(2.10466e-07 -6.43162e-07 6.32711e-16)
(2.08008e-07 -6.04825e-07 7.02407e-16)
(2.12974e-07 -6.09786e-07 -3.9252e-16)
(1.51775e-07 -6.32429e-07 -5.39262e-16)
(2.44278e-07 -7.11724e-07 3.05654e-15)
(3.36958e-07 -1.11277e-06 -1.32701e-15)
(2.88263e-07 -9.63889e-07 2.76907e-15)
(2.33348e-07 -8.49536e-07 8.46653e-18)
(2.04279e-07 -6.99778e-07 1.68361e-18)
(2.39729e-07 -6.41192e-07 1.20545e-15)
(2.266e-07 -6.6518e-07 -4.17098e-15)
(2.18443e-07 -6.42093e-07 -2.20927e-15)
(1.73885e-07 -5.87468e-07 1.56423e-17)
(1.84503e-07 -6.99547e-07 -5.43762e-15)
(6.90691e-07 -1.71627e-06 2.16818e-16)
(6.12291e-07 -1.53485e-06 -2.65772e-16)
(5.43587e-07 -1.43235e-06 1.83281e-16)
(4.78142e-07 -1.3477e-06 1.12156e-15)
(4.03565e-07 -1.22911e-06 -4.1213e-16)
(3.36862e-07 -1.05635e-06 2.70046e-15)
(2.89238e-07 -9.19333e-07 -8.21308e-16)
(2.52593e-07 -8.25863e-07 -1.39445e-15)
(2.2385e-07 -7.75342e-07 -1.75778e-17)
(2.56693e-07 -6.81989e-07 -1.83122e-16)
(2.20569e-07 -6.12679e-07 2.71574e-15)
(2.04903e-07 -6.13411e-07 1.51725e-15)
(1.68298e-07 -5.93143e-07 3.03891e-18)
(1.63354e-07 -6.80562e-07 4.39401e-16)
(1.78471e-06 -1.80298e-06 -9.60058e-16)
(1.53825e-06 -1.8467e-06 2.21602e-16)
(1.27972e-06 -1.84072e-06 3.47353e-16)
(1.09213e-06 -1.83541e-06 1.11301e-15)
(9.04499e-07 -1.75869e-06 1.02628e-15)
(7.55679e-07 -1.59039e-06 -3.98597e-16)
(6.4882e-07 -1.44187e-06 -6.26357e-16)
(5.67406e-07 -1.34292e-06 -5.6674e-16)
(4.90511e-07 -1.24788e-06 1.68754e-15)
(4.29303e-07 -1.18066e-06 -1.11343e-16)
(3.94571e-07 -1.13226e-06 -6.81549e-16)
(3.41073e-07 -9.80107e-07 8.58159e-16)
(2.9145e-07 -8.43461e-07 -6.31143e-16)
(2.52424e-07 -7.16132e-07 1.51701e-17)
(2.40954e-07 -6.50313e-07 -1.63044e-16)
(2.24426e-07 -6.10361e-07 6.20619e-16)
(1.99407e-07 -6.10115e-07 7.2112e-16)
(1.63639e-07 -5.8306e-07 2.62398e-17)
(1.40038e-07 -6.58718e-07 -2.31074e-16)
(4.00353e-06 -1.39821e-06 4.63403e-16)
(3.66886e-06 -1.45759e-06 8.07159e-16)
(3.35991e-06 -1.44303e-06 9.94069e-16)
(3.07143e-06 -1.39998e-06 -2.56757e-16)
(2.78731e-06 -1.32721e-06 7.71618e-16)
(2.54271e-06 -1.33997e-06 -7.49313e-16)
(2.2477e-06 -1.39445e-06 -2.28971e-15)
(1.95431e-06 -1.39428e-06 -1.15913e-15)
(1.65724e-06 -1.53586e-06 6.27323e-16)
(1.41884e-06 -1.56837e-06 1.01966e-16)
(1.19385e-06 -1.57364e-06 1.45314e-15)
(1.02955e-06 -1.6002e-06 -2.24408e-16)
(9.15724e-07 -1.63705e-06 -5.2147e-17)
(7.85175e-07 -1.52471e-06 8.04801e-17)
(6.8693e-07 -1.43151e-06 -5.61819e-17)
(5.89848e-07 -1.34081e-06 -5.3995e-16)
(5.07723e-07 -1.19673e-06 1.07562e-15)
(4.23122e-07 -1.01141e-06 -9.69777e-16)
(3.62325e-07 -8.8464e-07 1.2337e-16)
(3.1159e-07 -7.80365e-07 1.72682e-15)
(2.73601e-07 -7.02074e-07 -3.73563e-17)
(2.51054e-07 -6.3889e-07 1.70588e-16)
(2.25937e-07 -5.94953e-07 -1.40742e-15)
(1.95352e-07 -5.99949e-07 -1.67633e-15)
(1.56219e-07 -5.73799e-07 -2.11107e-17)
(1.24199e-07 -6.34174e-07 6.30173e-16)
(7.49771e-06 1.2427e-06 -2.3941e-16)
(7.2424e-06 9.9069e-07 2.68111e-16)
(6.99981e-06 8.14145e-07 -1.10561e-16)
(6.72788e-06 6.38408e-07 -2.15841e-16)
(6.45609e-06 4.66801e-07 7.03259e-16)
(6.15848e-06 2.88447e-07 -5.63918e-16)
(5.86073e-06 1.08426e-07 9.91816e-17)
(5.5426e-06 -7.67761e-08 6.16018e-16)
(5.22509e-06 -2.54252e-07 -6.14679e-16)
(4.88348e-06 -4.30467e-07 -1.85811e-15)
(4.6133e-06 -6.1586e-07 3.37767e-17)
(4.35704e-06 -8.49446e-07 -3.54425e-16)
(3.82305e-06 -8.75935e-07 3.28142e-16)
(3.5051e-06 -9.66181e-07 3.45001e-16)
(3.18635e-06 -1.02586e-06 -1.00427e-16)
(2.93745e-06 -9.9234e-07 -2.23431e-16)
(2.67196e-06 -1.00219e-06 7.12579e-16)
(2.46303e-06 -9.69669e-07 -2.74344e-16)
(2.29179e-06 -1.09009e-06 -4.00471e-16)
(2.23591e-06 -1.42604e-06 3.30263e-16)
(1.94714e-06 -1.48331e-06 -1.00442e-15)
(1.68267e-06 -1.56023e-06 6.39794e-16)
(1.43784e-06 -1.59663e-06 -3.79384e-16)
(1.20912e-06 -1.52681e-06 -5.21307e-16)
(9.7605e-07 -1.35084e-06 2.87799e-16)
(8.4737e-07 -1.26928e-06 2.0157e-16)
(7.36256e-07 -1.21272e-06 4.2073e-16)
(6.42131e-07 -1.14519e-06 -4.56518e-16)
(5.49346e-07 -1.06081e-06 -7.8118e-16)
(4.7049e-07 -9.54807e-07 2.68938e-16)
(3.98993e-07 -8.39698e-07 4.30352e-17)
(3.39908e-07 -7.44308e-07 -1.72225e-16)
(2.9433e-07 -6.68738e-07 1.24171e-17)
(2.59832e-07 -6.19258e-07 -1.38834e-16)
(2.27907e-07 -5.8329e-07 2.83384e-15)
(1.91516e-07 -5.86636e-07 -1.33358e-16)
(1.49569e-07 -5.57569e-07 2.68173e-16)
(1.10804e-07 -6.08849e-07 -9.54525e-17)
(-6.60583e-06 1.76356e-05 -7.58893e-17)
(-3.17226e-06 1.99349e-05 -2.39068e-17)
(-1.9e-09 1.89971e-05 -2.76964e-18)
(2.89497e-06 1.8123e-05 -2.61455e-17)
(5.63209e-06 1.72347e-05 -1.17638e-17)
(8.16184e-06 1.63757e-05 -8.89277e-18)
(1.04465e-05 1.55183e-05 2.48382e-17)
(1.24329e-05 1.4641e-05 6.72001e-17)
(1.41512e-05 1.37773e-05 -2.89406e-17)
(1.55628e-05 1.29444e-05 -5.41057e-17)
(1.67117e-05 1.21638e-05 2.53284e-17)
(1.75716e-05 1.14193e-05 -5.02817e-17)
(1.82028e-05 1.07175e-05 -6.09804e-17)
(1.85852e-05 1.00505e-05 -5.36782e-17)
(1.87875e-05 9.42886e-06 -1.081e-16)
(1.87891e-05 8.85772e-06 -1.02428e-17)
(1.86628e-05 8.32966e-06 -8.98227e-17)
(1.83843e-05 7.8474e-06 -5.33862e-17)
(1.8029e-05 7.39941e-06 -1.20516e-16)
(1.75639e-05 7.00042e-06 -1.00084e-17)
(1.70663e-05 6.63843e-06 1.40505e-16)
(1.64929e-05 6.30607e-06 1.41573e-16)
(1.59198e-05 5.9863e-06 -8.45729e-17)
(1.52969e-05 5.70224e-06 5.85497e-17)
(1.47003e-05 5.4442e-06 1.26186e-16)
(1.40702e-05 5.19946e-06 1.14902e-17)
(1.34818e-05 4.95284e-06 -1.07145e-16)
(1.28728e-05 4.72548e-06 -7.39745e-18)
(1.23174e-05 4.52459e-06 2.56448e-17)
(1.17512e-05 4.33815e-06 -1.19007e-17)
(1.12431e-05 4.1466e-06 -9.52145e-17)
(1.07357e-05 3.9742e-06 8.12987e-17)
(1.02898e-05 3.82195e-06 -2.40957e-16)
(9.84511e-06 3.64272e-06 -9.3384e-17)
(9.46327e-06 3.48987e-06 1.70035e-16)
(9.091e-06 3.32919e-06 3.12994e-17)
(8.77026e-06 3.17639e-06 2.10377e-17)
(8.46058e-06 3.01053e-06 -3.25513e-17)
(8.18141e-06 2.85905e-06 4.52524e-17)
(7.92328e-06 2.72701e-06 2.55538e-16)
(7.62084e-06 2.55351e-06 -9.47034e-17)
(7.56302e-06 2.53229e-06 2.14517e-18)
(7.83834e-06 2.23319e-06 1.81471e-17)
(7.0575e-06 1.69162e-06 -1.50997e-16)
(6.67132e-06 1.44678e-06 7.08089e-16)
(6.37751e-06 1.28746e-06 1.44934e-17)
(6.07528e-06 1.12539e-06 -6.57196e-16)
(5.79812e-06 9.56418e-07 5.98736e-16)
(5.50592e-06 7.82182e-07 3.82694e-16)
(5.24071e-06 6.08338e-07 -7.98501e-17)
(4.95305e-06 4.27544e-07 9.91126e-18)
(4.69215e-06 2.49385e-07 -6.37459e-16)
(4.40927e-06 7.73483e-08 -1.0041e-15)
(4.10785e-06 -8.25249e-08 -6.10042e-17)
(4.00787e-06 -2.67348e-07 -2.14373e-16)
(4.17265e-06 -6.7418e-07 3.17205e-16)
(3.85414e-06 -7.9329e-07 -7.38465e-17)
(3.54393e-06 -8.81494e-07 -1.43817e-15)
(3.23905e-06 -9.43326e-07 -4.97839e-17)
(2.99662e-06 -9.48743e-07 4.51483e-16)
(2.72124e-06 -9.9053e-07 2.13327e-16)
(2.49782e-06 -9.75472e-07 5.01243e-16)
(2.194e-06 -9.4175e-07 4.15957e-16)
(1.98026e-06 -1.03529e-06 6.61478e-16)
(1.74535e-06 -1.12924e-06 1.12117e-15)
(1.50636e-06 -1.19776e-06 2.59625e-17)
(1.2766e-06 -1.20391e-06 1.34367e-16)
(1.07313e-06 -1.17872e-06 -1.80603e-16)
(9.31371e-07 -1.12064e-06 -1.64914e-16)
(8.20808e-07 -1.08607e-06 8.42911e-16)
(7.17129e-07 -1.04848e-06 -6.83904e-16)
(6.11966e-07 -9.69055e-07 -4.3027e-17)
(5.14619e-07 -8.70317e-07 -5.80651e-16)
(4.32042e-07 -7.74328e-07 7.62727e-16)
(3.65999e-07 -6.96673e-07 -3.1806e-16)
(3.13017e-07 -6.38721e-07 4.23993e-17)
(2.67743e-07 -5.95145e-07 8.82584e-17)
(2.28289e-07 -5.62731e-07 -1.91254e-15)
(1.86755e-07 -5.70485e-07 7.61452e-16)
(1.42633e-07 -5.41057e-07 1.7998e-16)
(1.00949e-07 -5.82322e-07 6.72516e-18)
(-1.73235e-05 2.06834e-05 -1.36773e-17)
(-1.70466e-05 2.18445e-05 -9.71953e-18)
(-1.56033e-05 2.10554e-05 8.6146e-18)
(-1.38362e-05 2.0254e-05 -1.06454e-18)
(-1.18366e-05 1.94498e-05 -1.19098e-17)
(-9.72302e-06 1.86947e-05 3.78997e-17)
(-7.55986e-06 1.79365e-05 1.29753e-17)
(-5.42379e-06 1.71728e-05 -1.01015e-17)
(-3.34571e-06 1.64061e-05 3.17881e-17)
(-1.38401e-06 1.5662e-05 -4.03382e-18)
(4.47628e-07 1.49324e-05 3.44896e-17)
(2.11144e-06 1.42242e-05 5.5203e-17)
(3.61078e-06 1.35204e-05 -3.68516e-17)
(4.92212e-06 1.28448e-05 4.63711e-17)
(6.06327e-06 1.21773e-05 -2.80629e-17)
(7.02023e-06 1.1547e-05 -9.07738e-17)
(7.8204e-06 1.09281e-05 -6.6038e-18)
(8.45494e-06 1.03487e-05 2.18897e-17)
(8.95809e-06 9.77717e-06 1.85419e-17)
(9.32153e-06 9.24807e-06 -2.34397e-17)
(9.58394e-06 8.73662e-06 -1.04072e-17)
(9.73568e-06 8.27263e-06 -3.38865e-18)
(9.81523e-06 7.81224e-06 -2.5493e-17)
(9.80852e-06 7.39379e-06 -4.1742e-17)
(9.75627e-06 6.99173e-06 1.26981e-17)
(9.64047e-06 6.63334e-06 5.61216e-17)
(9.49857e-06 6.26502e-06 -4.9065e-17)
(9.3069e-06 5.92905e-06 4.72292e-17)
(9.10549e-06 5.60016e-06 -2.22808e-17)
(8.869e-06 5.30998e-06 4.61953e-17)
(8.63443e-06 4.99644e-06 -1.09869e-16)
(8.36991e-06 4.71725e-06 -1.16781e-16)
(8.11814e-06 4.44627e-06 -8.71482e-18)
(7.84623e-06 4.20062e-06 -1.98043e-16)
(7.58584e-06 3.91568e-06 -2.3722e-17)
(7.31753e-06 3.67516e-06 8.08302e-17)
(7.06393e-06 3.42159e-06 3.98053e-17)
(6.80707e-06 3.21078e-06 3.12096e-17)
(6.56659e-06 2.99094e-06 6.15686e-17)
(6.32966e-06 2.80579e-06 1.89224e-16)
(6.11295e-06 2.62344e-06 -1.58071e-17)
(5.77824e-06 2.42483e-06 -1.31151e-16)
(5.79423e-06 2.50058e-06 1.17847e-16)
(6.62835e-06 2.50382e-06 -2.65772e-16)
(6.4443e-06 2.24654e-06 -4.51899e-16)
(6.2143e-06 1.98214e-06 2.55262e-17)
(5.98746e-06 1.71616e-06 1.98754e-16)
(5.75999e-06 1.46396e-06 -2.89518e-16)
(5.53059e-06 1.2109e-06 2.64896e-16)
(5.30229e-06 9.69527e-07 1.16688e-16)
(5.06708e-06 7.34459e-07 2.15969e-16)
(4.83441e-06 5.11747e-07 4.97921e-16)
(4.59066e-06 3.02609e-07 5.40855e-16)
(4.33886e-06 1.19592e-07 -2.29365e-17)
(3.99814e-06 1.557e-09 -4.91988e-17)
(3.59287e-06 -2.75557e-08 1.66451e-16)
(3.36364e-06 -1.73451e-07 1.84739e-16)
(3.16316e-06 -2.94514e-07 1.12638e-15)
(2.94377e-06 -3.86294e-07 1.56581e-17)
(2.75884e-06 -4.62321e-07 -1.05767e-15)
(2.5729e-06 -5.15267e-07 1.09739e-16)
(2.39482e-06 -5.97097e-07 -5.13536e-16)
(2.22662e-06 -6.93188e-07 -2.63678e-16)
(2.02147e-06 -7.79429e-07 9.39346e-19)
(1.80718e-06 -8.66431e-07 -9.20629e-16)
(1.58861e-06 -9.49691e-07 1.0394e-16)
(1.35744e-06 -9.82863e-07 5.71388e-17)
(1.16174e-06 -9.55135e-07 -1.02324e-17)
(1.01198e-06 -9.5086e-07 1.32812e-16)
(9.06428e-07 -9.428e-07 -4.40646e-16)
(7.83868e-07 -9.08265e-07 2.13086e-16)
(6.69135e-07 -8.5129e-07 1.085e-16)
(5.57678e-07 -7.77647e-07 4.22952e-17)
(4.62264e-07 -7.04558e-07 -1.82659e-15)
(3.89037e-07 -6.44418e-07 -5.39293e-16)
(3.26925e-07 -5.95425e-07 -1.50449e-17)
(2.72888e-07 -5.66362e-07 3.64595e-17)
(2.26378e-07 -5.43601e-07 -1.43926e-15)
(1.8221e-07 -5.49824e-07 4.97133e-16)
(1.35807e-07 -5.19709e-07 -4.05482e-16)
(9.29418e-08 -5.56291e-07 1.07391e-17)
(-1.31449e-05 1.9426e-05 -1.24918e-17)
(-1.49694e-05 1.95653e-05 -5.10686e-18)
(-1.55998e-05 1.835e-05 1.23589e-17)
(-1.57086e-05 1.73231e-05 8.18476e-18)
(-1.53927e-05 1.63964e-05 -3.7943e-18)
(-1.47227e-05 1.55376e-05 -3.65688e-18)
(-1.37805e-05 1.47277e-05 1.3925e-17)
(-1.26236e-05 1.39798e-05 -1.00189e-17)
(-1.13252e-05 1.32912e-05 -3.13362e-18)
(-9.93195e-06 1.2647e-05 1.54859e-17)
(-8.5045e-06 1.20361e-05 -1.89751e-18)
(-7.06973e-06 1.14674e-05 2.28283e-17)
(-5.6771e-06 1.09322e-05 2.06496e-17)
(-4.33744e-06 1.0426e-05 -1.27979e-17)
(-3.08644e-06 9.94064e-06 3.66104e-17)
(-1.92086e-06 9.48543e-06 -1.04073e-17)
(-8.66549e-07 9.05181e-06 -2.52494e-17)
(9.05715e-08 8.64368e-06 3.1204e-17)
(9.32161e-07 8.25213e-06 1.58712e-17)
(1.6802e-06 7.88618e-06 2.3496e-18)
(2.32053e-06 7.53601e-06 -9.73896e-18)
(2.8805e-06 7.21433e-06 -6.92466e-17)
(3.34781e-06 6.91118e-06 3.68128e-18)
(3.7512e-06 6.63444e-06 -3.64918e-17)
(4.07894e-06 6.36787e-06 -1.08958e-17)
(4.36102e-06 6.1324e-06 1.85239e-17)
(4.58449e-06 5.91456e-06 3.52093e-17)
(4.77574e-06 5.71733e-06 3.40934e-18)
(4.92173e-06 5.51582e-06 8.41979e-18)
(5.04799e-06 5.33808e-06 -1.09539e-17)
(5.14032e-06 5.17102e-06 2.80933e-17)
(5.21724e-06 5.00985e-06 -5.9051e-17)
(5.26673e-06 4.82589e-06 -1.40993e-17)
(5.30758e-06 4.67082e-06 3.87772e-17)
(5.32582e-06 4.48465e-06 -1.15763e-16)
(5.32678e-06 4.29677e-06 -6.01313e-17)
(5.31165e-06 4.09024e-06 2.07933e-17)
(5.28047e-06 3.88623e-06 -1.70292e-17)
(5.24144e-06 3.6497e-06 -3.33271e-17)
(5.19066e-06 3.42625e-06 -5.14318e-17)
(5.13472e-06 3.1891e-06 3.91576e-17)
(5.0239e-06 2.94763e-06 -4.01232e-17)
(4.77147e-06 2.72624e-06 -1.14841e-16)
(4.27618e-06 2.51533e-06 4.64847e-17)
(4.20736e-06 2.29837e-06 -2.38342e-16)
(4.14343e-06 2.08854e-06 3.17629e-19)
(4.08485e-06 1.87491e-06 1.47438e-17)
(4.01489e-06 1.67246e-06 1.70964e-16)
(3.94952e-06 1.47087e-06 -3.33611e-16)
(3.86745e-06 1.27754e-06 1.43882e-19)
(3.78797e-06 1.08692e-06 3.58326e-16)
(3.68892e-06 9.00168e-07 -1.18637e-16)
(3.59391e-06 7.20261e-07 4.96314e-16)
(3.46259e-06 5.47962e-07 2.98447e-17)
(3.35197e-06 3.88764e-07 -6.52453e-17)
(3.24287e-06 2.12165e-07 -6.43331e-17)
(3.1003e-06 7.86132e-08 -4.20674e-18)
(2.93879e-06 -4.66854e-08 -6.34336e-16)
(2.78698e-06 -1.51536e-07 2.19446e-16)
(2.62713e-06 -2.42028e-07 6.07057e-16)
(2.47535e-06 -3.16247e-07 -1.34387e-16)
(2.31782e-06 -3.84297e-07 1.0079e-15)
(2.15587e-06 -4.55133e-07 1.48844e-17)
(1.98913e-06 -5.2512e-07 -1.84765e-16)
(1.81276e-06 -6.21204e-07 -2.21795e-16)
(1.61688e-06 -6.93884e-07 -2.70729e-16)
(1.41445e-06 -7.37033e-07 5.21065e-16)
(1.21906e-06 -7.66467e-07 1.23186e-16)
(1.08892e-06 -7.69707e-07 2.62856e-16)
(9.57429e-07 -7.80479e-07 -4.81885e-16)
(8.37339e-07 -7.63117e-07 1.51513e-16)
(7.05638e-07 -7.24831e-07 -1.12311e-16)
(5.85256e-07 -6.68416e-07 -1.171e-15)
(4.88175e-07 -6.22044e-07 -3.83444e-16)
(4.06289e-07 -5.84935e-07 1.39203e-16)
(3.366e-07 -5.53193e-07 9.83188e-18)
(2.73249e-07 -5.31712e-07 1.81975e-16)
(2.22226e-07 -5.15147e-07 2.68096e-16)
(1.78093e-07 -5.27115e-07 -8.99735e-16)
(1.30036e-07 -4.99174e-07 -2.02938e-16)
(8.66056e-08 -5.30005e-07 -5.13723e-16)
(-2.11802e-06 1.31666e-05 6.81342e-18)
(-5.08083e-06 1.40132e-05 -2.02386e-18)
(-7.38892e-06 1.34629e-05 -9.00854e-18)
(-9.15174e-06 1.28798e-05 -2.63982e-18)
(-1.04462e-05 1.23188e-05 5.94452e-18)
(-1.1297e-05 1.17539e-05 -2.58431e-19)
(-1.17491e-05 1.1192e-05 -4.50325e-18)
(-1.18531e-05 1.0659e-05 1.85888e-18)
(-1.16607e-05 1.01654e-05 -2.0158e-17)
(-1.12258e-05 9.69489e-06 -1.31692e-17)
(-1.06006e-05 9.24165e-06 -1.0165e-17)
(-9.83135e-06 8.80767e-06 -1.96625e-18)
(-8.96275e-06 8.4011e-06 2.68124e-17)
(-8.03224e-06 8.00915e-06 -7.72909e-18)
(-7.07473e-06 7.6303e-06 -3.10193e-17)
(-6.11643e-06 7.2664e-06 1.478e-17)
(-5.1812e-06 6.92164e-06 -1.00221e-17)
(-4.2846e-06 6.59022e-06 -4.74048e-17)
(-3.44214e-06 6.27018e-06 -6.82354e-18)
(-2.65963e-06 5.96758e-06 -5.62885e-19)
(-1.9454e-06 5.68077e-06 4.05251e-17)
(-1.29823e-06 5.41106e-06 5.26123e-17)
(-7.21244e-07 5.15261e-06 5.02296e-18)
(-2.08256e-07 4.91598e-06 1.90138e-17)
(2.40518e-07 4.69163e-06 -3.24927e-19)
(6.33857e-07 4.48736e-06 3.36087e-17)
(9.73452e-07 4.29436e-06 -1.4956e-17)
(1.26981e-06 4.12558e-06 -3.48629e-18)
(1.52341e-06 3.96181e-06 -2.17749e-18)
(1.74396e-06 3.81808e-06 7.36819e-18)
(1.93274e-06 3.67948e-06 -2.85182e-18)
(2.10001e-06 3.56949e-06 2.88837e-17)
(2.24297e-06 3.45134e-06 -3.8865e-19)
(2.3689e-06 3.34378e-06 8.23059e-19)
(2.48012e-06 3.2586e-06 2.12033e-17)
(2.57894e-06 3.18417e-06 7.08657e-17)
(2.66613e-06 3.08344e-06 -4.42136e-17)
(2.74447e-06 2.98794e-06 -2.93842e-18)
(2.81763e-06 2.87737e-06 4.89767e-17)
(2.88534e-06 2.76162e-06 4.60833e-18)
(2.95293e-06 2.62057e-06 -8.50584e-17)
(2.98422e-06 2.46565e-06 3.69077e-17)
(3.03279e-06 2.31543e-06 7.7729e-17)
(3.14777e-06 2.16845e-06 2.01302e-16)
(3.18063e-06 2.00017e-06 2.11841e-16)
(3.20276e-06 1.83461e-06 4.92789e-17)
(3.21921e-06 1.66298e-06 -7.55832e-18)
(3.22584e-06 1.50353e-06 -1.04034e-16)
(3.22586e-06 1.34325e-06 1.19912e-16)
(3.2145e-06 1.19232e-06 -5.447e-17)
(3.19437e-06 1.04229e-06 -2.77361e-16)
(3.16207e-06 8.9866e-07 -1.76935e-16)
(3.11916e-06 7.57499e-07 -7.99192e-17)
(3.0505e-06 6.22732e-07 -4.79423e-17)
(2.96439e-06 4.98057e-07 4.23706e-17)
(2.87331e-06 3.77073e-07 -4.06184e-16)
(2.77829e-06 2.58729e-07 -1.92448e-16)
(2.67479e-06 1.47767e-07 -2.25972e-16)
(2.56005e-06 4.87724e-08 -5.52792e-16)
(2.44168e-06 -4.27051e-08 1.25389e-16)
(2.31506e-06 -1.20946e-07 -1.40617e-16)
(2.1854e-06 -1.93858e-07 -5.43824e-16)
(2.0547e-06 -2.60114e-07 5.71103e-16)
(1.91452e-06 -3.36268e-07 7.14526e-16)
(1.76834e-06 -4.01216e-07 -1.12853e-16)
(1.59147e-06 -4.76759e-07 -3.32984e-16)
(1.41998e-06 -5.26805e-07 -7.9774e-18)
(1.2377e-06 -5.64563e-07 -6.46353e-17)
(1.10096e-06 -5.97711e-07 1.59066e-16)
(9.80904e-07 -6.13087e-07 1.27655e-16)
(8.49042e-07 -6.09888e-07 1.04693e-16)
(7.21288e-07 -5.80208e-07 3.01819e-16)
(6.08035e-07 -5.60269e-07 5.75301e-16)
(5.11556e-07 -5.37861e-07 2.44253e-16)
(4.22433e-07 -5.15748e-07 5.51216e-17)
(3.4213e-07 -4.94819e-07 -1.39369e-16)
(2.75676e-07 -4.90259e-07 -9.72112e-16)
(2.20368e-07 -4.8882e-07 4.26281e-16)
(1.74551e-07 -5.00277e-07 4.60118e-16)
(1.24762e-07 -4.73288e-07 6.12582e-16)
(8.01349e-08 -5.03898e-07 1.88946e-15)
(1.04829e-05 5.06972e-06 4.9237e-19)
(7.69407e-06 5.60342e-06 1.82257e-18)
(4.64308e-06 5.25637e-06 6.03163e-18)
(1.92576e-06 4.93961e-06 1.81878e-18)
(-4.69357e-07 4.7159e-06 -3.24239e-18)
(-2.50659e-06 4.53123e-06 -1.44194e-18)
(-4.18093e-06 4.37994e-06 -2.4625e-19)
(-5.50014e-06 4.25573e-06 -6.65871e-20)
(-6.4833e-06 4.14787e-06 3.03972e-20)
(-7.1564e-06 4.05931e-06 -8.03745e-18)
(-7.55383e-06 3.97969e-06 9.6842e-18)
(-7.70953e-06 3.90097e-06 -7.0769e-18)
(-7.66192e-06 3.81828e-06 -1.72595e-17)
(-7.44583e-06 3.74066e-06 -1.03235e-17)
(-7.09781e-06 3.66362e-06 -3.77211e-18)
(-6.64873e-06 3.58198e-06 3.27422e-18)
(-6.12927e-06 3.49361e-06 1.4137e-18)
(-5.56266e-06 3.40437e-06 -1.21919e-17)
(-4.97347e-06 3.31186e-06 -1.80754e-17)
(-4.37693e-06 3.215e-06 -4.89521e-18)
(-3.79072e-06 3.11464e-06 3.11624e-18)
(-3.2224e-06 3.01354e-06 1.95867e-17)
(-2.684e-06 2.9098e-06 -2.73347e-17)
(-2.17704e-06 2.80656e-06 6.02817e-18)
(-1.70879e-06 2.70597e-06 -2.2357e-17)
(-1.27598e-06 2.61243e-06 1.23661e-17)
(-8.83452e-07 2.52199e-06 3.37535e-17)
(-5.24528e-07 2.4407e-06 -2.59936e-17)
(-2.02279e-07 2.36837e-06 -4.72188e-17)
(9.10879e-08 2.30888e-06 -1.33378e-17)
(3.53162e-07 2.25537e-06 9.92067e-17)
(5.9226e-07 2.21272e-06 6.59203e-17)
(8.07181e-07 2.17916e-06 5.49407e-17)
(1.00341e-06 2.15704e-06 -4.93267e-19)
(1.18013e-06 2.1173e-06 -5.80116e-17)
(1.34679e-06 2.08762e-06 -6.42554e-17)
(1.49848e-06 2.04425e-06 4.87759e-17)
(1.63895e-06 1.99645e-06 -2.02058e-17)
(1.76891e-06 1.9332e-06 -6.40211e-17)
(1.8956e-06 1.87978e-06 4.9786e-17)
(2.0137e-06 1.80439e-06 -1.32365e-17)
(2.10322e-06 1.71556e-06 2.98581e-19)
(2.17435e-06 1.63566e-06 -3.83452e-17)
(2.24291e-06 1.55635e-06 3.23615e-18)
(2.3218e-06 1.45665e-06 -1.72667e-16)
(2.39118e-06 1.36107e-06 -1.14767e-16)
(2.45192e-06 1.2584e-06 -2.42464e-17)
(2.50065e-06 1.16436e-06 -2.30157e-16)
(2.53931e-06 1.06529e-06 -1.81432e-16)
(2.56436e-06 9.73989e-07 -5.9415e-17)
(2.57808e-06 8.79056e-07 -1.63984e-16)
(2.57719e-06 7.8866e-07 1.18346e-16)
(2.56505e-06 6.95698e-07 -3.20084e-16)
(2.5294e-06 6.047e-07 -4.5249e-17)
(2.48225e-06 5.14468e-07 2.1404e-16)
(2.43099e-06 4.22585e-07 4.19959e-17)
(2.36736e-06 3.33363e-07 -1.03336e-16)
(2.29211e-06 2.44673e-07 9.20897e-16)
(2.20747e-06 1.61807e-07 5.36294e-17)
(2.11611e-06 8.13182e-08 -7.88565e-16)
(2.01568e-06 8.43343e-09 1.93107e-16)
(1.91084e-06 -5.89182e-08 -6.62628e-16)
(1.80321e-06 -1.2198e-07 -3.64858e-17)
(1.69325e-06 -1.78757e-07 8.00444e-17)
(1.56584e-06 -2.42565e-07 -1.72251e-15)
(1.43731e-06 -2.94251e-07 4.28747e-17)
(1.28034e-06 -3.44435e-07 7.87271e-17)
(1.14072e-06 -3.90479e-07 -2.46902e-16)
(1.01985e-06 -4.33515e-07 3.22968e-16)
(9.07053e-07 -4.53398e-07 -2.2835e-17)
(7.95368e-07 -4.53811e-07 1.06675e-16)
(6.86431e-07 -4.58338e-07 -7.12148e-16)
(5.92201e-07 -4.48537e-07 -6.83218e-16)
(4.9563e-07 -4.42083e-07 6.13202e-17)
(4.13596e-07 -4.33688e-07 -5.03105e-17)
(3.35297e-07 -4.33135e-07 1.24006e-16)
(2.73691e-07 -4.39006e-07 -6.68405e-16)
(2.14724e-07 -4.44499e-07 8.53179e-17)
(1.65562e-07 -4.6577e-07 -6.87665e-16)
(1.14217e-07 -4.42566e-07 -8.15958e-17)
(7.09061e-08 -4.71721e-07 1.4542e-15)
(1.91737e-05 -3.04531e-06 2.71323e-18)
(1.81013e-05 -2.73584e-06 4.04509e-18)
(1.58591e-05 -2.66534e-06 -1.0134e-18)
(1.35364e-05 -2.58666e-06 1.98564e-18)
(1.12012e-05 -2.41672e-06 1.75266e-18)
(8.93898e-06 -2.22273e-06 -1.57959e-17)
(6.81539e-06 -1.99689e-06 -9.37347e-18)
(4.87661e-06 -1.76129e-06 -3.43139e-18)
(3.15367e-06 -1.51961e-06 -1.05412e-18)
(1.66209e-06 -1.28076e-06 4.02974e-18)
(4.09687e-07 -1.04165e-06 -9.10994e-18)
(-6.11186e-07 -8.1634e-07 1.24144e-17)
(-1.41043e-06 -6.03866e-07 2.13749e-18)
(-2.00679e-06 -4.12184e-07 7.63861e-18)
(-2.41941e-06 -2.3387e-07 1.90276e-17)
(-2.67408e-06 -7.72029e-08 1.71568e-17)
(-2.79191e-06 6.1343e-08 1.49338e-17)
(-2.79745e-06 1.78762e-07 5.83704e-18)
(-2.71335e-06 2.81935e-07 2.60891e-17)
(-2.5595e-06 3.67622e-07 -1.29569e-17)
(-2.35489e-06 4.38818e-07 -3.83754e-17)
(-2.11536e-06 4.96128e-07 -8.38638e-18)
(-1.85458e-06 5.42553e-07 -2.42054e-18)
(-1.58436e-06 5.79973e-07 -1.11156e-17)
(-1.31356e-06 6.07809e-07 -8.53566e-18)
(-1.04836e-06 6.30573e-07 -2.84739e-17)
(-7.94782e-07 6.48025e-07 -5.44058e-18)
(-5.54964e-07 6.65399e-07 -1.47117e-18)
(-3.3237e-07 6.80543e-07 3.04876e-17)
(-1.25519e-07 6.98664e-07 -9.33999e-18)
(6.35173e-08 7.16856e-07 1.04557e-17)
(2.38048e-07 7.42395e-07 3.1829e-17)
(3.96304e-07 7.69189e-07 2.61892e-17)
(5.43765e-07 8.02386e-07 6.96782e-17)
(6.78398e-07 8.39296e-07 5.22293e-18)
(8.04062e-07 8.81601e-07 -4.58968e-17)
(9.19216e-07 9.243e-07 -6.54523e-17)
(1.02561e-06 9.63715e-07 2.13e-17)
(1.1224e-06 9.83248e-07 5.94646e-17)
(1.21488e-06 1.00021e-06 -3.5748e-17)
(1.3016e-06 1.00753e-06 6.22368e-17)
(1.37335e-06 1.00349e-06 -1.07358e-17)
(1.43614e-06 9.82999e-07 2.29812e-17)
(1.50159e-06 9.6384e-07 -1.29021e-16)
(1.55733e-06 9.3015e-07 -3.72189e-17)
(1.60432e-06 9.00194e-07 3.37694e-17)
(1.64382e-06 8.64465e-07 -4.3702e-17)
(1.67487e-06 8.33516e-07 -4.89912e-17)
(1.69923e-06 7.96365e-07 7.65291e-17)
(1.71491e-06 7.60646e-07 3.90735e-18)
(1.72515e-06 7.20817e-07 1.43048e-16)
(1.72677e-06 6.76846e-07 2.39303e-16)
(1.7235e-06 6.25952e-07 2.83632e-17)
(1.70751e-06 5.70485e-07 7.12401e-17)
(1.68663e-06 5.09099e-07 1.27021e-17)
(1.66294e-06 4.42541e-07 1.92177e-16)
(1.63294e-06 3.72939e-07 4.3355e-17)
(1.59544e-06 3.01889e-07 -3.20726e-16)
(1.55055e-06 2.30694e-07 3.08778e-16)
(1.49973e-06 1.61114e-07 8.12511e-17)
(1.4399e-06 9.51217e-08 -5.9611e-17)
(1.37696e-06 3.37571e-08 4.76696e-16)
(1.30801e-06 -2.28107e-08 -1.44164e-16)
(1.23657e-06 -7.623e-08 -1.21551e-16)
(1.1575e-06 -1.21902e-07 8.46013e-16)
(1.06806e-06 -1.65683e-07 -6.35407e-17)
(9.75425e-07 -2.07124e-07 -3.78665e-16)
(8.72944e-07 -2.55715e-07 -3.62419e-18)
(7.9804e-07 -2.92796e-07 -1.35285e-16)
(7.20438e-07 -3.20089e-07 -3.55639e-17)
(6.45272e-07 -3.3977e-07 -8.6412e-17)
(5.70413e-07 -3.46883e-07 4.53649e-16)
(4.96014e-07 -3.56234e-07 4.74124e-16)
(4.28317e-07 -3.60443e-07 2.05257e-16)
(3.61484e-07 -3.66168e-07 1.70744e-16)
(3.02688e-07 -3.72402e-07 -1.19521e-16)
(2.48356e-07 -3.91957e-07 7.25559e-16)
(1.97295e-07 -4.05475e-07 1.00231e-17)
(1.50195e-07 -4.31451e-07 8.06743e-16)
(9.91642e-08 -4.08669e-07 -4.10169e-16)
(6.11881e-08 -4.41127e-07 -2.34434e-15)
(1.65857e-05 -7.62775e-06 9.35514e-18)
(1.83549e-05 -7.57779e-06 -3.35633e-18)
(1.86684e-05 -7.51554e-06 -4.58597e-18)
(1.84398e-05 -7.3953e-06 7.12256e-19)
(1.77812e-05 -7.1702e-06 5.52537e-18)
(1.67871e-05 -6.9057e-06 7.54804e-18)
(1.55517e-05 -6.59929e-06 -4.12605e-18)
(1.41594e-05 -6.2659e-06 4.11808e-19)
(1.26833e-05 -5.91022e-06 9.21813e-18)
(1.11888e-05 -5.54685e-06 5.18915e-18)
(9.72566e-06 -5.17617e-06 -4.46883e-18)
(8.33317e-06 -4.80542e-06 -9.47273e-18)
(7.04249e-06 -4.43883e-06 5.92746e-19)
(5.87183e-06 -4.07802e-06 5.0987e-20)
(4.83226e-06 -3.72588e-06 -8.32084e-19)
(3.92893e-06 -3.38542e-06 1.6912e-18)
(3.16024e-06 -3.06201e-06 1.15566e-17)
(2.51959e-06 -2.75146e-06 5.93167e-18)
(1.99836e-06 -2.45962e-06 -1.27159e-17)
(1.58577e-06 -2.18372e-06 2.07713e-17)
(1.26847e-06 -1.92959e-06 1.41289e-17)
(1.03453e-06 -1.6926e-06 -5.88088e-18)
(8.69818e-07 -1.47484e-06 1.40577e-18)
(7.63522e-07 -1.27336e-06 1.58441e-17)
(7.02772e-07 -1.09304e-06 1.45155e-17)
(6.79133e-07 -9.27263e-07 1.71254e-17)
(6.81283e-07 -7.78707e-07 -1.37104e-17)
(7.04072e-07 -6.43364e-07 -3.20862e-19)
(7.38537e-07 -5.22115e-07 1.86099e-17)
(7.82507e-07 -4.11757e-07 4.01043e-18)
(8.2909e-07 -3.1397e-07 -2.61519e-17)
(8.78451e-07 -2.2246e-07 -1.37062e-17)
(9.25432e-07 -1.37902e-07 -6.89179e-18)
(9.72074e-07 -5.71283e-08 2.14534e-17)
(1.01442e-06 1.72269e-08 4.21318e-17)
(1.05596e-06 9.20723e-08 4.28885e-17)
(1.09176e-06 1.62949e-07 3.06004e-17)
(1.12596e-06 2.3452e-07 -2.08062e-17)
(1.15611e-06 2.99939e-07 -6.53465e-17)
(1.18991e-06 3.66012e-07 2.8786e-17)
(1.22439e-06 4.26593e-07 7.80788e-18)
(1.25496e-06 4.84294e-07 2.60392e-17)
(1.28551e-06 5.37057e-07 -5.20095e-17)
(1.31504e-06 5.8574e-07 9.48852e-17)
(1.34078e-06 6.25066e-07 -3.50677e-17)
(1.36247e-06 6.58184e-07 1.09239e-16)
(1.38205e-06 6.75637e-07 3.5658e-17)
(1.39756e-06 6.87796e-07 -7.13711e-17)
(1.41217e-06 6.88373e-07 5.11602e-17)
(1.42236e-06 6.81882e-07 1.23665e-16)
(1.43212e-06 6.6407e-07 3.39017e-17)
(1.43795e-06 6.41163e-07 -4.31893e-17)
(1.44302e-06 6.0555e-07 2.29649e-16)
(1.43998e-06 5.68048e-07 4.77538e-17)
(1.4379e-06 5.20839e-07 -1.14432e-16)
(1.43182e-06 4.71033e-07 -2.93825e-16)
(1.42035e-06 4.14122e-07 -2.58169e-17)
(1.40156e-06 3.57127e-07 -1.99263e-17)
(1.3766e-06 2.95165e-07 -2.52883e-16)
(1.34481e-06 2.3409e-07 1.96141e-16)
(1.30435e-06 1.724e-07 1.18707e-16)
(1.25972e-06 1.12622e-07 2.0846e-16)
(1.20802e-06 5.54085e-08 1.96499e-16)
(1.15238e-06 1.31812e-09 -4.3618e-16)
(1.08765e-06 -4.65677e-08 5.38539e-16)
(1.02011e-06 -8.92186e-08 3.46216e-16)
(9.44281e-07 -1.3546e-07 2.22446e-17)
(8.65384e-07 -1.82976e-07 1.15354e-16)
(7.87144e-07 -2.29755e-07 -2.7698e-16)
(7.26642e-07 -2.68659e-07 -5.95467e-17)
(6.59311e-07 -2.91437e-07 -1.9748e-17)
(5.93648e-07 -3.14222e-07 4.83136e-16)
(5.2778e-07 -3.28001e-07 5.50308e-16)
(4.63019e-07 -3.42377e-07 4.84933e-16)
(3.99783e-07 -3.53378e-07 2.12761e-16)
(3.41158e-07 -3.74138e-07 1.05039e-16)
(2.85141e-07 -3.98485e-07 -7.47748e-16)
(2.27237e-07 -4.18038e-07 1.65537e-16)
(1.72015e-07 -4.46097e-07 7.20185e-16)
(1.17003e-07 -4.31372e-07 -1.44847e-16)
(7.09181e-08 -4.55894e-07 -5.445e-16)
(1.76256e-06 -5.40156e-06 -2.26203e-18)
(5.15145e-06 -5.34334e-06 3.94658e-18)
(7.88244e-06 -5.39388e-06 1.72952e-18)
(9.99095e-06 -5.35809e-06 4.83009e-19)
(1.15665e-05 -5.27511e-06 5.45047e-19)
(1.26335e-05 -5.15911e-06 1.37325e-18)
(1.32462e-05 -5.01805e-06 5.04115e-18)
(1.34685e-05 -4.85756e-06 -2.62814e-20)
(1.33614e-05 -4.68208e-06 -7.03592e-18)
(1.29866e-05 -4.4892e-06 -2.25882e-18)
(1.24114e-05 -4.28479e-06 2.44806e-18)
(1.16874e-05 -4.06754e-06 -3.44037e-18)
(1.08672e-05 -3.84338e-06 -9.51575e-19)
(9.99332e-06 -3.61197e-06 -7.06164e-18)
(9.10366e-06 -3.3768e-06 2.71532e-18)
(8.22733e-06 -3.14023e-06 -1.72917e-18)
(7.3851e-06 -2.90409e-06 -4.2422e-18)
(6.59604e-06 -2.67102e-06 1.75858e-18)
(5.8693e-06 -2.44419e-06 3.98917e-18)
(5.21162e-06 -2.22189e-06 -1.17702e-17)
(4.62574e-06 -2.00634e-06 -9.83189e-18)
(4.11132e-06 -1.8015e-06 -2.55379e-18)
(3.66426e-06 -1.60752e-06 -1.63217e-18)
(3.28144e-06 -1.42247e-06 -1.16401e-17)
(2.95631e-06 -1.24946e-06 -1.07096e-17)
(2.68278e-06 -1.08808e-06 -9.58637e-18)
(2.45411e-06 -9.39312e-07 3.01326e-17)
(2.2642e-06 -8.02947e-07 -5.75227e-19)
(2.10637e-06 -6.78302e-07 -2.83138e-17)
(1.97569e-06 -5.65145e-07 3.98369e-18)
(1.86635e-06 -4.64586e-07 1.08294e-17)
(1.77473e-06 -3.73518e-07 2.50449e-18)
(1.69601e-06 -2.91775e-07 -7.97736e-18)
(1.62817e-06 -2.17276e-07 -3.74506e-17)
(1.56741e-06 -1.48935e-07 -7.49451e-18)
(1.51198e-06 -8.53085e-08 1.94051e-17)
(1.45882e-06 -2.81252e-08 2.01458e-17)
(1.4077e-06 2.56231e-08 5.49641e-18)
(1.35932e-06 7.49685e-08 -1.71866e-17)
(1.31848e-06 1.21091e-07 -4.9383e-17)
(1.28331e-06 1.61646e-07 5.45579e-18)
(1.2505e-06 2.00288e-07 -3.66596e-17)
(1.21882e-06 2.41062e-07 2.83333e-17)
(1.19164e-06 2.80636e-07 -2.08904e-17)
(1.16624e-06 3.1471e-07 6.71942e-17)
(1.1454e-06 3.4874e-07 -9.3438e-17)
(1.12622e-06 3.75763e-07 3.5335e-17)
(1.11027e-06 3.99813e-07 4.73165e-17)
(1.09571e-06 4.17055e-07 -9.7363e-17)
(1.08395e-06 4.32166e-07 -8.85114e-17)
(1.07254e-06 4.35861e-07 -5.54349e-17)
(1.06262e-06 4.37739e-07 -6.3114e-17)
(1.05308e-06 4.30106e-07 -2.77508e-18)
(1.04215e-06 4.20106e-07 -1.44489e-16)
(1.03238e-06 4.02934e-07 8.82565e-17)
(1.02286e-06 3.82075e-07 1.53867e-16)
(1.01231e-06 3.54797e-07 -1.39045e-16)
(9.98332e-07 3.24967e-07 9.87645e-17)
(9.83114e-07 2.90682e-07 2.69873e-16)
(9.63106e-07 2.54464e-07 4.7493e-17)
(9.409e-07 2.16393e-07 1.05055e-16)
(9.13537e-07 1.78003e-07 -1.83189e-16)
(8.85734e-07 1.40109e-07 -1.65729e-16)
(8.52897e-07 1.0209e-07 3.55163e-17)
(8.18987e-07 6.87823e-08 -5.61003e-16)