/*--------------------------------*- C++ -*----------------------------------*\
| =========                 |                                                 |
| \\      /  F ield         | OpenFOAM: The Open Source CFD Toolbox           |
|  \\    /   O peration     | Version:  2306                                  |
|   \\  /    A nd           | Website:  www.openfoam.com                      |
|    \\/     M anipulation  |                                                 |
\*---------------------------------------------------------------------------*/
FoamFile
{
    version     2.0;
    format      ascii;
    arch        "LSB;label=32;scalar=64";
    class       volScalarField;
    location    "675";
    object      p;
}
// * * * * * * * * * * * * * * * * * * * * * * * * * * * * * * * * * * * * * //

dimensions      [0 2 -2 0 0 0 0];

internalField   nonuniform List<scalar> 
1340
(
-8.35232
-1.17342
-8.061
-5.94135
-1.23464
-7.87211
-3.90478
-5.81933
-1.24938
-7.73221
-5.35801
-5.61015
-3.82413
-5.686
-1.26181
-7.57534
-6.23163
-6.0067
-5.19684
-5.45255
-3.73852
-5.53919
-1.273
-7.39845
-7.12126
-6.76922
-6.46649
-5.99715
-5.79722
-5.02778
-5.28638
-3.64533
-5.38552
-1.27322
-7.21728
-7.56136
-7.29777
-7.04219
-6.78167
-6.46213
-6.19048
-5.75441
-5.57912
-4.85069
-5.11246
-3.54322
-5.22687
-1.26037
-7.03641
-7.89357
-7.74528
-7.56395
-7.3529
-7.11363
-6.88722
-6.6634
-6.43463
-6.14721
-5.90603
-5.5034
-5.35233
-4.66536
-4.9304
-3.43222
-5.06201
-1.23672
-6.85326
-7.22539
-7.31346
-7.36108
-7.36891
-7.33797
-7.26974
-7.16608
-7.02894
-6.86129
-6.66404
-6.47299
-6.27967
-6.08151
-5.82548
-5.61397
-5.24466
-5.11721
-4.47199
-4.7401
-3.31264
-4.89015
-1.20372
-6.66559
-4.67969
-5.02041
-5.33566
-5.62276
-5.8793
-6.10318
-6.29266
-6.44643
-6.56356
-6.64362
-6.68657
-6.69285
-6.66326
-6.59913
-6.50177
-6.37381
-6.21552
-6.05763
-5.89325
-5.72424
-5.49859
-5.31562
-4.97919
-4.87454
-4.27105
-4.54192
-3.18478
-4.71135
-1.16174
-6.47338
0.568471
0.201437
-0.173162
-0.554013
-0.93957
-1.32806
-1.71752
-2.10579
-2.49048
-2.86907
-3.23889
-3.59716
-3.94109
-4.26782
-4.57461
-4.85875
-5.11777
-5.34937
-5.55153
-5.72257
-5.86114
-5.96629
-6.03749
-6.07458
-6.07782
-6.04799
-5.98582
-5.89356
-5.77086
-5.64365
-5.50637
-5.36476
-5.16814
-5.01234
-4.70803
-4.62514
-4.06309
-4.33628
-3.04894
-4.52576
-1.11174
-6.27673
6.33862
6.28623
6.23268
6.17655
6.11686
6.05373
5.98749
5.91801
5.84462
5.7671
5.68633
5.60336
5.51872
5.43247
5.34405
5.25226
5.1556
5.05248
4.94068
4.81751
4.68115
4.53156
4.36991
4.19733
4.01512
3.82435
3.62475
3.4155
3.19604
2.96623
2.72599
2.47524
2.21391
1.94206
1.6598
1.36739
1.06517
0.753664
0.433514
0.105528
-0.229324
-0.569869
-0.914742
-1.2624
-1.6111
-1.9589
-2.30371
-2.64326
-2.97516
-3.29692
-3.60597
-3.89974
-4.17568
-4.43134
-4.66436
-4.87261
-5.05418
-5.20743
-5.33105
-5.42407
-5.48591
-5.51632
-5.51561
-5.48397
-5.42326
-5.33255
-5.23332
-5.12107
-5.00489
-4.83568
-4.70545
-4.43221
-4.36983
-3.84864
-4.12347
-2.9055
-4.33317
-1.05469
-6.0745
5.69504
5.64965
5.60321
5.55456
5.50285
5.44811
5.39042
5.32981
5.26627
5.1994
5.12866
5.05441
4.97769
4.89927
4.8194
4.73771
4.65328
4.56484
4.47102
4.36992
4.25911
4.13665
4.00216
3.85653
3.70087
3.53643
3.36433
3.18453
2.99625
2.79892
2.59241
2.37662
2.15149
1.91698
1.6731
1.41996
1.15777
0.88684
0.607608
0.320635
0.0266129
-0.273586
-0.578924
-0.888206
-1.20006
-1.51292
-1.82506
-2.13459
-2.43948
-2.73757
-3.0266
-3.30423
-3.56812
-3.81593
-4.04538
-4.2543
-4.4407
-4.60276
-4.73894
-4.84796
-4.9289
-4.9811
-5.00447
-4.99872
-4.96535
-4.90292
-4.82877
-4.7393
-4.6464
-4.50278
-4.39627
-4.15281
-4.10944
-3.62852
-3.90372
-2.75534
-4.13298
-0.992391
-5.86475
5.13247
5.09303
5.05264
5.01035
4.96541
4.91785
4.8677
4.81482
4.75915
4.70081
4.63963
4.57499
4.50673
4.43567
4.36277
4.28844
4.21253
4.13435
4.05287
3.96687
3.87479
3.7745
3.6641
3.54293
3.41162
3.27114
3.12267
2.96734
2.80517
2.6354
2.45748
2.27126
2.07674
1.8739
1.66267
1.44307
1.2152
0.979243
0.735494
0.484333
0.22625
-0.0381184
-0.307989
-0.582452
-0.860438
-1.1407
-1.42184
-1.70231
-1.98041
-2.25429
-2.52201
-2.7815
-3.03063
-3.26727
-3.48926
-3.6945
-3.88099
-4.04687
-4.19045
-4.31026
-4.40511
-4.47405
-4.5167
-4.53232
-4.52207
-4.48414
-4.43208
-4.363
-4.29105
-4.17099
-4.08615
-3.87099
-3.8448
-3.40362
-3.67701
-2.59975
-3.92405
-0.926824
-5.64397
4.63363
4.5993
4.56411
4.52727
4.48815
4.44675
4.40311
4.35708
4.30851
4.25734
4.20365
4.14749
4.08835
4.02569
3.95988
3.89198
3.82269
3.75204
3.67951
3.60423
3.52515
3.44089
3.34948
3.2491
3.1392
3.02047
2.89372
2.75979
2.61973
2.47369
2.32081
2.16037
1.99229
1.81667
1.63355
1.44289
1.2447
1.03906
0.826178
0.606318
0.379834
0.147187
-0.0910329
-0.334132
-0.581277
-0.831489
-1.08365
-1.33649
-1.58862
-1.83849
-2.08443
-2.32465
-2.55727
-2.78037
-2.992
-3.19017
-3.37295
-3.53847
-3.68504
-3.81108
-3.91523
-3.99633
-4.05374
-4.08644
-4.09523
-4.078
-4.04499
-3.99388
-3.94042
-3.8418
-3.77623
-3.58816
-3.57621
-3.17563
-3.44247
-2.44162
-3.7025
-0.862673
-5.40623
4.1974
4.16762
4.13707
4.10511
4.0712
4.03532
3.99751
3.95765
3.91559
3.87127
3.82473
3.77611
3.72537
3.67161
3.61284
3.54743
3.47567
3.39927
3.32011
3.23968
3.15939
3.08089
3.00557
2.9329
2.85966
2.78091
2.69126
2.58618
2.46467
2.33122
2.19225
2.05031
1.9041
1.75161
1.59193
1.42517
1.25169
1.0717
0.885288
0.69253
0.493622
0.288894
0.078789
-0.136193
-0.355396
-0.578079
-0.803364
-1.0302
-1.25751
-1.48397
-1.70816
-1.92858
-2.14362
-2.35157
-2.55066
-2.73909
-2.91505
-3.07676
-3.22255
-3.35081
-3.46013
-3.54919
-3.61715
-3.66278
-3.68666
-3.68641
-3.66932
-3.63375
-3.59606
-3.51696
-3.46749
-3.30609
-3.30357
-2.94699
-3.19793
-2.28499
-3.46446
-0.807026
-5.14531
3.67299
3.64808
3.62248
3.59572
3.56735
3.53734
3.50569
3.47234
3.43717
3.40007
3.36086
3.31944
3.27573
3.22996
3.18258
3.13358
3.08216
3.02764
2.97049
2.91182
2.85219
2.79109
2.72755
2.66064
2.58925
2.51166
2.42647
2.33431
2.23648
2.13259
2.02165
1.90414
1.78127
1.65338
1.52011
1.38111
1.2362
1.08537
0.92872
0.766338
0.59835
0.424932
0.24636
0.0629505
-0.124832
-0.316468
-0.511327
-0.708642
-0.907569
-1.10711
-1.30615
-1.50347
-1.69776
-1.88756
-2.07134
-2.24753
-2.41448
-2.57055
-2.7141
-2.84355
-2.95741
-3.05428
-3.13309
-3.19246
-3.2325
-3.25103
-3.25118
-3.23361
-3.21245
-3.15738
-3.12277
-2.99722
-2.99691
-2.70316
-2.91867
-2.12896
-3.18977
-0.769692
-4.85344
3.13111
3.11144
3.0912
3.07004
3.04761
3.02389
2.99888
2.97254
2.94476
2.91545
2.88445
2.85175
2.81738
2.78167
2.74524
2.70885
2.67299
2.63716
2.59975
2.55902
2.5141
2.46465
2.4103
2.35036
2.28473
2.2143
2.14025
2.06344
1.98437
1.90287
1.81733
1.72572
1.6277
1.52454
1.41723
1.3056
1.18918
1.06766
0.941017
0.80928
0.672554
0.530894
0.384435
0.233355
0.0779008
-0.0815747
-0.244679
-0.410896
-0.579617
-0.750142
-0.921683
-1.09328
-1.26391
-1.43245
-1.59764
-1.75814
-1.91255
-2.0594
-2.19719
-2.3244
-2.43958
-2.54128
-2.6283
-2.69913
-2.75356
-2.78932
-2.8064
-2.80569
-2.80238
-2.76898
-2.7545
-2.65721
-2.67509
-2.42153
-2.64288
-1.91917
-2.95231
-0.656855
-4.6682
2.67221
2.65647
2.64026
2.62332
2.60536
2.58634
2.5663
2.54519
2.52293
2.49945
2.47466
2.44854
2.42098
2.3919
2.36126
2.32899
2.29513
2.25986
2.22325
2.18492
2.14397
2.09988
2.05317
2.00492
1.95595
1.90616
1.85495
1.80135
1.74378
1.6809
1.61258
1.53942
1.46155
1.37878
1.29148
1.20041
1.10571
1.00707
0.904151
0.79684
0.685178
0.569203
0.449007
0.324671
0.196325
0.0641802
-0.0715176
-0.210415
-0.35211
-0.496098
-0.64182
-0.788568
-0.935569
-1.08196
-1.22674
-1.36884
-1.50712
-1.64032
-1.76715
-1.88626
-1.99634
-2.09599
-2.18404
-2.25899
-2.32047
-2.36617
-2.39412
-2.40501
-2.41444
-2.39732
-2.3986
-2.3239
-2.35794
-2.13695
-2.36835
-1.697
-2.72106
-0.521889
-4.49422
2.24086
2.22784
2.21421
2.19977
2.18449
2.16837
2.1514
2.13351
2.11462
2.0947
2.0737
2.05155
2.02818
2.00355
1.97757
1.9502
1.92142
1.89125
1.85986
1.82732
1.79327
1.75689
1.7177
1.67625
1.63362
1.59043
1.54655
1.50123
1.4533
1.40139
1.34478
1.28376
1.21867
1.14932
1.07574
0.998606
0.918436
0.835104
0.748247
0.657669
0.563334
0.465319
0.363701
0.258559
0.150012
0.038207
-0.0766235
-0.194214
-0.314193
-0.436179
-0.559651
-0.684026
-0.808666
-0.932788
-1.05556
-1.17606
-1.29329
-1.40617
-1.51353
-1.61426
-1.70711
-1.79102
-1.86457
-1.92738
-1.97718
-2.0109
-2.02894
-2.04658
-2.04118
-2.05367
-1.99736
-2.04315
-1.85199
-2.08843
-1.47032
-2.4771
-0.38332
-4.28442
1.85248
1.84222
1.83147
1.82009
1.80806
1.79537
1.782
1.7679
1.75303
1.73734
1.7208
1.70336
1.68495
1.66556
1.64511
1.62355
1.60083
1.5769
1.55176
1.52546
1.49813
1.4698
1.43999
1.40795
1.37333
1.33678
1.29936
1.26165
1.22335
1.18366
1.14138
1.09547
1.04562
0.992124
0.934998
0.874145
0.81
0.743237
0.673994
0.601978
0.526885
0.44863
0.367249
0.282823
0.195434
0.105164
0.0121502
-0.0834252
-0.18132
-0.28125
-0.382856
-0.485706
-0.589318
-0.693113
-0.796441
-0.898589
-0.998753
-1.09607
-1.18958
-1.27836
-1.36134
-1.4376
-1.50589
-1.56585
-1.61534
-1.65088
-1.6725
-1.69465
-1.69706
-1.71694
-1.675
-1.72884
-1.56365
-1.80159
-1.23402
-2.21817
-0.233214
-4.04006
1.49517
1.48723
1.47893
1.47015
1.46086
1.45105
1.44073
1.42983
1.41834
1.40621
1.39342
1.37993
1.3657
1.35071
1.3349
1.31821
1.30061
1.28207
1.26252
1.24196
1.22039
1.19788
1.17454
1.15033
1.1247
1.0969
1.06682
1.03525
1.0032
0.971028
0.938282
0.904094
0.867378
0.827448
0.784302
0.738053
0.68862
0.636233
0.581548
0.524949
0.466269
0.405214
0.341642
0.27557
0.207077
0.136221
0.0630639
-0.0122908
-0.0897112
-0.168984
-0.249883
-0.332094
-0.415277
-0.499016
-0.58282
-0.666151
-0.748401
-0.828899
-0.906897
-0.981631
-1.05225
-1.118
-1.17781
-1.23142
-1.27689
-1.31085
-1.33292
-1.35629
-1.36294
-1.38669
-1.35518
-1.41362
-1.27008
-1.50656
-0.983894
-1.94197
-0.0626365
-3.75733
1.12113
1.11527
1.10914
1.10267
1.09582
1.0886
1.081
1.07298
1.06452
1.0556
1.0462
1.03629
1.02585
1.01485
1.00324
0.991014
0.978125
0.964547
0.950228
0.935147
0.919284
0.902639
0.885248
0.867188
0.848549
0.829179
0.808455
0.785739
0.761191
0.735777
0.710363
0.685097
0.659468
0.63263
0.603792
0.572594
0.538976
0.502784
0.464024
0.42318
0.380704
0.336489
0.290174
0.241572
0.190738
0.137834
0.0830073
0.0263611
-0.0320057
-0.0919521
-0.153298
-0.215818
-0.279256
-0.343311
-0.407632
-0.471824
-0.535447
-0.598019
-0.658987
-0.717782
-0.773759
-0.82638
-0.874756
-0.918766
-0.956745
-0.985932
-1.00549
-1.02698
-1.03447
-1.05867
-1.03375
-1.09328
-0.966861
-1.19828
-0.71539
-1.63895
0.130999
-3.39486
0.82081
0.816829
0.81266
0.80824
0.803562
0.798633
0.793432
0.787927
0.782124
0.776001
0.769531
0.762708
0.755514
0.74791
0.73988
0.731416
0.722484
0.713053
0.703102
0.692604
0.681522
0.669836
0.657551
0.644678
0.631266
0.617414
0.603146
0.588132
0.571648
0.553277
0.53353
0.513421
0.493459
0.473295
0.452098
0.429032
0.403764
0.376488
0.347385
0.316475
0.284273
0.251522
0.218419
0.184611
0.149656
0.113354
0.0757176
0.0368332
-0.0032179
-0.0443683
-0.0865332
-0.129595
-0.173396
-0.217755
-0.262439
-0.307185
-0.351694
-0.395646
-0.438651
-0.480329
-0.520224
-0.557992
-0.592956
-0.625137
-0.653164
-0.675333
-0.690149
-0.70736
-0.712921
-0.734799
-0.713005
-0.770785
-0.6568
-0.879798
-0.431373
-1.30537
0.340471
-2.90392
0.336788
0.334115
0.331317
0.328355
0.325223
0.321917
0.318426
0.314734
0.310837
0.306723
0.302366
0.297757
0.292891
0.287738
0.282273
0.276486
0.270351
0.263837
0.256921
0.249571
0.241747
0.233408
0.224518
0.215044
0.204946
0.194155
0.182511
0.169828
0.155954
0.140776
0.124855
0.110602
0.102496
0.105265
0.12121
0.148698
0.182221
0.213742
0.235249
0.241466
0.2315
0.208917
0.179999
0.150272
0.122134
0.0954461
0.0693199
0.0432135
0.0170576
-0.00903102
-0.0349751
-0.0607543
-0.0863603
-0.11177
-0.136932
-0.161774
-0.186203
-0.210113
-0.233353
-0.255774
-0.27717
-0.297423
-0.316114
-0.333438
-0.348322
-0.360502
-0.368
-0.378292
-0.379138
-0.395747
-0.374402
-0.425793
-0.324947
-0.523336
-0.135732
-0.874257
0.485232
-2.03261
0.302912
0.302906
0.302889
0.302867
0.302841
0.302809
0.30277
0.30273
0.302694
0.302659
0.302622
0.302589
0.302572
0.302573
0.302597
0.302655
0.302755
0.302919
0.303164
0.303515
0.304009
0.304666
0.305477
0.306379
0.307276
0.308225
0.309733
0.313137
0.320698
0.33482
0.356104
0.380935
0.400496
0.402938
0.377854
0.32077
0.235821
0.136056
0.0405287
-0.031967
-0.0706499
-0.0774589
-0.064619
-0.0463254
-0.0314
-0.021947
-0.0164834
-0.0132503
-0.0114935
-0.0111634
-0.0123087
-0.0148305
-0.0185247
-0.0231803
-0.0286077
-0.0346276
-0.0410666
-0.0477666
-0.054576
-0.0613716
-0.0680114
-0.0744649
-0.0804926
-0.0863876
-0.0914857
-0.0966478
-0.0988718
-0.103573
-0.101684
-0.11224
-0.095848
-0.132087
-0.0639139
-0.193482
0.0461828
-0.376172
0.390564
-0.878377
)
;

boundaryField
{
    inlet
    {
        type            freestreamPressure;
        freestreamValue uniform 0;
        value           nonuniform List<scalar> 
27
(
-3.68367
-3.55532
-3.47223
-3.4108
-3.34188
-3.26414
-3.1845
-3.105
-3.02448
-2.94195
-2.8574
-2.77087
-2.68184
-2.58946
-2.49217
-2.38734
-2.27225
-2.1434
-2.06161
-1.98476
-1.89201
-1.78395
-1.65888
-1.49854
-1.28145
-0.896631
-0.387255
)
;
    }
    outlet
    {
        type            freestreamPressure;
        freestreamValue uniform 0;
        value           nonuniform List<scalar> 
78
(
0.000904398
0.000904297
0.000904159
0.000903999
0.000903824
0.000903623
0.000903394
0.000903157
0.000902923
0.000902683
0.000902433
0.000902183
0.00090197
0.000901802
0.000901692
0.00090167
0.000901765
0.00090203
0.000902522
0.000903309
0.000904504
0.000906183
0.000908346
0.000910825
0.000913312
0.000915847
0.000919686
0.000928492
0.000948781
0.000987805
0.00104799
0.00111987
0.00117887
0.00119054
0.00112254
0.000958276
0.00070723
0.000408414
0.000121394
-9.53303e-05
-0.000209614
-0.000228801
-0.000190317
-0.000136256
-9.23348e-05
-6.45534e-05
-4.84978e-05
-3.89938e-05
-3.38294e-05
-3.28641e-05
-3.62446e-05
-4.36842e-05
-5.45886e-05
-6.83435e-05
-8.44013e-05
-0.000102245
-0.000121379
-0.000141351
-0.000161733
-0.000182177
-0.000202284
-0.000221978
-0.000240574
-0.000258942
-0.000275157
-0.00029157
-0.000299268
-0.000314402
-0.000310263
-0.000343196
-0.00029595
-0.000406493
-0.000201383
-0.000594648
0.000151708
-0.00111968
0.00141855
-0.00227726
)
;
    }
    walls
    {
        type            zeroGradient;
    }
    frontAndBack
    {
        type            empty;
    }
    procBoundary7to3
    {
        type            processor;
        value           nonuniform List<scalar> 
16
(
6.38743
5.73733
5.16923
4.66564
4.22518
3.69614
3.14941
2.68685
2.25349
2.25349
1.86243
1.50284
1.12678
0.824665
0.339364
0.302922
)
;
    }
    procBoundary7to6
    {
        type            processor;
        value           nonuniform List<scalar> 
91
(
-8.53891
-1.0256
-1.0256
-6.08399
-6.08399
-3.97828
-3.97828
-5.51047
-5.75631
-5.75631
-6.45723
-6.20689
-6.20689
-7.45293
-7.06816
-6.73389
-6.73389
-8.005
-7.70271
-7.41441
-7.41441
-8.53045
-8.33266
-8.10309
-7.84529
-7.84529
-8.05763
-8.10823
-8.11556
-8.081
-8.00629
-8.00629
-5.52285
-5.87207
-6.1895
-6.47262
-6.71928
-6.92774
-7.09671
-7.09671
0.31922
-0.101479
-0.529012
-0.961607
-1.39723
-1.83361
-2.26825
-2.6985
-3.12146
-3.53416
-3.9335
-4.31637
-4.31637
7.08148
7.02083
6.95892
6.89401
6.82503
6.75234
6.67593
6.59519
6.51035
6.42254
6.33265
6.24108
6.14767
6.05161
5.95138
5.84532
5.73149
5.60728
5.46977
5.31728
5.15018
4.96987
4.77758
4.57467
4.36207
4.13934
3.90558
3.66031
3.40337
3.13465
2.85409
2.56161
2.25728
1.94128
1.6139
1.27555
0.926821
0.926821
)
;
    }
}


// ************************************************************************* //
