# p  FACE_DATA 150
# x y z  p
0.29576437 -0.05 -0.059999701 21757.81
0.28738431 -0.05 -0.059968924 21754.163
0.27918472 -0.05 -0.059906283 21754.173
0.27116186 -0.05 -0.05981265 21757.26
0.26331203 -0.05 -0.059689027 21763.864
0.25563166 -0.05 -0.059536266 21774.374
0.24811723 -0.05 -0.059355154 21788.947
0.24076528 -0.05 -0.059146557 21807.411
0.23357246 -0.05 -0.058911358 21829.587
0.22653546 -0.05 -0.058650342 21855.772
0.21965107 -0.05 -0.058364201 21885.82
0.21291613 -0.05 -0.058053757 21919.26
0.20632755 -0.05 -0.057719714 21956.563
0.19988232 -0.05 -0.057362759 21996.708
0.19357748 -0.05 -0.056983702 22040.296
0.18741014 -0.05 -0.056583118 22087.977
0.18137746 -0.05 -0.056161624 22139.754
0.17547671 -0.05 -0.055719844 22195.906
0.16970518 -0.05 -0.055258362 22255.552
0.16406021 -0.05 -0.05477783 22318.618
0.15853921 -0.05 -0.054278745 22385.543
0.15313968 -0.05 -0.053761636 22456.072
0.14785914 -0.05 -0.053226963 22531.162
0.14269518 -0.05 -0.052675258 22609.925
0.13764543 -0.05 -0.052106992 22692.723
0.13270762 -0.05 -0.051522466 22777.721
0.12787949 -0.05 -0.050922169 22865.662
0.12315883 -0.05 -0.050306449 22958.607
0.11854353 -0.05 -0.049675629 23054.755
0.11403148 -0.05 -0.04903008 23154.288
0.10962066 -0.05 -0.04837006 23257.886
0.10530909 -0.05 -0.047695796 23365.501
0.10109483 -0.05 -0.047007509 23476.897
0.096976017 -0.05 -0.046305459 23592.001
0.092950808 -0.05 -0.04558984 23711.99
0.08901745 -0.05 -0.044860715 23838.279
0.085174232 -0.05 -0.044118143 23970.692
0.081419479 -0.05 -0.043362242 24109.8
0.077751578 -0.05 -0.042593081 24256.54
0.074168981 -0.05 -0.041810614 24409.964
0.070670198 -0.05 -0.041014781 24568.35
0.06725379 -0.05 -0.040205491 24731.912
0.06391837 -0.05 -0.039382651 24901.554
0.060662655 -0.05 -0.038545988 25079.501
0.057485397 -0.05 -0.037695273 25264.443
0.054385414 -0.05 -0.036830261 25457.825
0.051361622 -0.05 -0.035950545 25659.731
0.048412992 -0.05 -0.035055749 25871.261
0.045538629 -0.05 -0.034145316 26093.521
0.042737712 -0.05 -0.03321865 26326.346
0.040009498 -0.05 -0.032275149 26569.644
0.037353406 -0.05 -0.031314032 26824.611
0.034768993 -0.05 -0.030334375 27093.924
0.032255944 -0.05 -0.029335211 27381.198
0.029814132 -0.05 -0.028315426 27687.445
0.027443661 -0.05 -0.027273729 28012.026
0.025144824 -0.05 -0.026208776 28357.826
0.022918276 -0.05 -0.02511886 28727.002
0.020764984 -0.05 -0.02400217 29118.322
0.018686283 -0.05 -0.022856725 29536.486
0.016684024 -0.05 -0.021680228 29981.605
0.01476059 -0.05 -0.020470219 30456.119
0.012919251 -0.05 -0.019223865 30962.267
0.011164249 -0.05 -0.017938283 31500.889
0.0095007128 -0.05 -0.016610449 32076.507
0.0079348886 -0.05 -0.015236971 32692.441
0.006474941 -0.05 -0.013814774 33325.691
0.0051312596 -0.05 -0.012341958 33936.919
0.0039150106 -0.05 -0.010816511 34495.087
0.0028396284 -0.05 -0.009238845 35007.331
0.0019206554 -0.05 -0.007613688 35386.157
0.0011720639 -0.05 -0.0059475212 35561.307
0.0006061561 -0.05 -0.004252283 35510.357
0.00023063831 -0.05 -0.0025452878 35196.433
4.5460517e-05 -0.05 -0.0008455405 34585.892
0.99536103 -0.05 -0.00067021835 26331.05
0.98608197 -0.05 -0.0020028877 26134.688
0.97680071 -0.05 -0.0033200849 25939.393
0.96751731 -0.05 -0.0046220425 25774.469
0.95823181 -0.05 -0.0059090613 25622.252
0.94894428 -0.05 -0.0071813587 25484.455
0.93965479 -0.05 -0.0084391859 25357.078
0.93036339 -0.05 -0.0096828487 25238.869
0.92107013 -0.05 -0.010912491 25128.485
0.91177504 -0.05 -0.012128333 25024.787
0.9024782 -0.05 -0.013330648 24927.226
0.89317963 -0.05 -0.014519511 24835.182
0.88387936 -0.05 -0.015695054 24747.719
0.87457746 -0.05 -0.016857552 24664.139
0.86527394 -0.05 -0.01800713 24584.254
0.85596885 -0.05 -0.019143876 24507.447
0.84666223 -0.05 -0.020267984 24433.423
0.8373541 -0.05 -0.021379502 24362.164
0.82804448 -0.05 -0.022478516 24293.222
0.8187334 -0.05 -0.023565119 24226.536
0.8094209 -0.05 -0.024639397 24161.741
0.80010698 -0.05 -0.025701394 24098.882
0.79079168 -0.05 -0.026751168 24037.476
0.78147501 -0.05 -0.027788748 23977.71
0.77215699 -0.05 -0.028814138 23919.209
0.76283764 -0.05 -0.029827333 23862.164
0.75351698 -0.05 -0.030828337 23806.037
0.744195 -0.05 -0.03181713 23750.93
0.73487174 -0.05 -0.032793639 23696.394
0.72554719 -0.05 -0.033757832 23642.736
0.71622136 -0.05 -0.034709535 23589.946
0.70689427 -0.05 -0.03564879 23537.479
0.69756593 -0.05 -0.03657554 23485.88
0.68823632 -0.05 -0.037489546 23435.045
0.67890547 -0.05 -0.03839067 23384.737
0.66957337 -0.05 -0.039278803 23334.523
0.66024004 -0.05 -0.040153805 23284.471
0.65090546 -0.05 -0.04101549 23234.663
0.64156964 -0.05 -0.041863622 23185.364
0.63223258 -0.05 -0.042697993 23136.365
0.62289428 -0.05 -0.043518409 23087.764
0.61355475 -0.05 -0.044324591 23039.48
0.60421397 -0.05 -0.045116235 22991.555
0.59487195 -0.05 -0.045893096 22943.727
0.58552869 -0.05 -0.046654869 22896.273
0.57618419 -0.05 -0.047401205 22848.94
0.56683843 -0.05 -0.048131797 22801.851
0.55749143 -0.05 -0.04884624 22755.118
0.54814318 -0.05 -0.049544112 22708.688
0.53879368 -0.05 -0.050225066 22662.202
0.52944294 -0.05 -0.050888717 22615.968
0.52009095 -0.05 -0.051534504 22570.348
0.51073771 -0.05 -0.052161963 22524.724
0.50138323 -0.05 -0.052770676 22479.496
0.49202751 -0.05 -0.05336005 22435.019
0.48267056 -0.05 -0.053929509 22391.077
0.47331239 -0.05 -0.054478508 22347.621
0.46395301 -0.05 -0.055006444 22304.644
0.45459243 -0.05 -0.05551264 22262.025
0.44523066 -0.05 -0.055996468 22219.368
0.43586772 -0.05 -0.056457197 22177.543
0.42650365 -0.05 -0.056894081 22136.495
0.41713847 -0.05 -0.057306403 22096.748
0.4077722 -0.05 -0.057693321 22058.76
0.39840488 -0.05 -0.058053993 22021.098
0.38903655 -0.05 -0.058387504 21984.868
0.37966728 -0.05 -0.058692933 21949.794
0.3702971 -0.05 -0.058969274 21916.632
0.36092607 -0.05 -0.059215505 21885.378
0.35155428 -0.05 -0.059430617 21856.372
0.34218182 -0.05 -0.059613395 21829.92
0.33280876 -0.05 -0.059762649 21806.047
0.32343521 -0.05 -0.059877122 21786.113
0.31406128 -0.05 -0.059955444 21770.783
0.30468712 -0.05 -0.059996221 21761.969
