/*--------------------------------*- C++ -*----------------------------------*\
| =========                 |                                                 |
| \\      /  F ield         | OpenFOAM: The Open Source CFD Toolbox           |
|  \\    /   O peration     | Version:  2306                                  |
|   \\  /    A nd           | Website:  www.openfoam.com                      |
|    \\/     M anipulation  |                                                 |
\*---------------------------------------------------------------------------*/
FoamFile
{
    version     2.0;
    format      ascii;
    arch        "LSB;label=32;scalar=64";
    class       volScalarField;
    location    "525";
    object      magR;
}
// * * * * * * * * * * * * * * * * * * * * * * * * * * * * * * * * * * * * * //

dimensions      [0 2 -2 0 0 0 0];

internalField   nonuniform List<scalar> 
1340
(
1.08984e-06
8.27989e-07
1.10578e-06
8.03158e-07
8.01998e-07
1.10523e-06
3.34681e-07
7.92792e-07
7.84806e-07
1.10968e-06
2.99503e-07
5.49945e-07
3.31523e-07
7.84533e-07
7.70207e-07
1.11717e-06
4.26485e-07
5.00985e-07
2.90484e-07
5.39808e-07
3.28259e-07
7.77069e-07
7.58383e-07
1.12476e-06
6.01595e-07
5.28072e-07
5.28049e-07
4.09393e-07
4.87013e-07
2.81019e-07
5.29907e-07
3.25083e-07
7.7065e-07
7.49862e-07
1.13184e-06
6.95069e-07
6.52209e-07
6.00397e-07
5.75361e-07
5.04406e-07
5.08403e-07
3.9204e-07
4.72897e-07
2.71248e-07
5.20464e-07
3.21979e-07
7.6543e-07
7.44464e-07
1.1383e-06
8.82138e-07
8.22038e-07
7.64429e-07
7.09745e-07
6.56316e-07
6.18099e-07
5.69608e-07
5.48763e-07
4.80522e-07
4.88459e-07
3.74538e-07
4.58705e-07
2.61241e-07
5.11397e-07
3.18966e-07
7.61129e-07
7.41468e-07
1.1451e-06
1.11614e-06
1.05178e-06
9.89572e-07
9.2967e-07
8.72159e-07
8.17075e-07
7.64502e-07
7.13721e-07
6.65484e-07
6.17408e-07
5.8374e-07
5.38573e-07
5.21803e-07
4.56417e-07
4.68213e-07
3.56881e-07
4.44389e-07
2.51024e-07
5.02525e-07
3.16102e-07
7.57434e-07
7.40367e-07
1.15113e-06
1.41451e-06
1.35558e-06
1.29646e-06
1.2374e-06
1.17876e-06
1.12083e-06
1.06388e-06
1.00815e-06
9.53833e-07
9.01062e-07
8.4996e-07
8.00644e-07
7.53137e-07
7.07658e-07
6.63378e-07
6.21339e-07
5.78493e-07
5.49266e-07
5.07413e-07
4.94582e-07
4.32177e-07
4.47722e-07
3.39144e-07
4.29953e-07
2.4066e-07
4.9377e-07
3.13371e-07
7.54211e-07
7.41713e-07
1.15708e-06
1.69929e-06
1.67169e-06
1.64217e-06
1.61061e-06
1.57692e-06
1.54107e-06
1.50313e-06
1.46318e-06
1.42138e-06
1.37793e-06
1.33303e-06
1.2869e-06
1.23982e-06
1.19206e-06
1.1439e-06
1.09557e-06
1.04737e-06
9.99549e-07
9.52336e-07
9.05942e-07
8.60532e-07
8.16223e-07
7.73103e-07
7.31294e-07
6.90792e-07
6.51934e-07
6.13776e-07
5.77639e-07
5.39863e-07
5.14928e-07
4.76356e-07
4.67285e-07
4.0797e-07
4.27104e-07
3.21435e-07
4.15448e-07
2.30253e-07
4.85153e-07
3.10711e-07
7.51393e-07
7.4436e-07
1.16295e-06
1.18435e-08
7.4281e-10
0
0
4.74964e-05
9.87354e-05
0.00853173
0.10802
0.417669
0.924196
1.46489
1.84354
1.90853
1.58872
0.9172
0.09745
0.882613
1.54741
1.75449
1.43527
0.801948
0.261232
0.0361215
0.000385355
4.34933e-05
0
0
0
3.14233e-08
4.29904e-07
1.63412e-06
1.82863e-06
1.60059e-06
1.49997e-06
1.49287e-06
1.48591e-06
1.46587e-06
1.44384e-06
1.42243e-06
1.39994e-06
1.3757e-06
1.34974e-06
1.32201e-06
1.29244e-06
1.26108e-06
1.22804e-06
1.1935e-06
1.15764e-06
1.12063e-06
1.08267e-06
1.04402e-06
1.00491e-06
9.6553e-07
9.26126e-07
8.86908e-07
8.48073e-07
8.09798e-07
7.7223e-07
7.35443e-07
6.99495e-07
6.64506e-07
6.30426e-07
5.97692e-07
5.65251e-07
5.34682e-07
5.01775e-07
4.80954e-07
4.45611e-07
4.40089e-07
3.83935e-07
4.0646e-07
3.03887e-07
4.00876e-07
2.19882e-07
4.76501e-07
3.08211e-07
7.48805e-07
7.48508e-07
1.16877e-06
9.44329e-07
3.81762e-08
2.48138e-09
0
0
7.98208e-08
0.000620858
0.00110128
0.0433303
0.236944
0.636866
1.14074
1.56208
1.73235
1.55324
1.02411
0.258134
0.599184
1.2744
1.56475
1.36296
0.818099
0.296035
0.0472115
0.000901303
7.46073e-05
0
0
0
1.14884e-08
1.40625e-07
1.23522e-06
1.59635e-06
1.39202e-06
1.26166e-06
1.24358e-06
1.2411e-06
1.22655e-06
1.20872e-06
1.19172e-06
1.1738e-06
1.15388e-06
1.13221e-06
1.10904e-06
1.08438e-06
1.05824e-06
1.03074e-06
1.00205e-06
9.72318e-07
9.41727e-07
9.10487e-07
8.78799e-07
8.46825e-07
8.1478e-07
7.82834e-07
7.51159e-07
7.19897e-07
6.89164e-07
6.59019e-07
6.29468e-07
6.00625e-07
5.72381e-07
5.4527e-07
5.18115e-07
4.92754e-07
4.64486e-07
4.47572e-07
4.15381e-07
4.13174e-07
3.60247e-07
3.85927e-07
2.86592e-07
3.86288e-07
2.0957e-07
4.6791e-07
3.05634e-07
7.46313e-07
7.52753e-07
1.17496e-06
9.70907e-07
8.28773e-07
9.42673e-08
5.48531e-09
0
0
0
0.000189875
0.000311186
0.0126164
0.116989
0.405451
0.847043
1.28475
1.53947
1.48655
1.09301
0.43338
0.351763
1.02339
1.37995
1.28299
0.824944
0.326659
0.0601526
0.0020797
0.000108822
0
0
0
7.29927e-10
3.87273e-09
7.4452e-07
1.2892e-06
1.19436e-06
1.0652e-06
1.04036e-06
1.04222e-06
1.03135e-06
1.01399e-06
9.98152e-07
9.83245e-07
9.67029e-07
9.48971e-07
9.29419e-07
9.08613e-07
8.8666e-07
8.63673e-07
8.3976e-07
8.15104e-07
7.89883e-07
7.64278e-07
7.38441e-07
7.12545e-07
6.86737e-07
6.61168e-07
6.35946e-07
6.11178e-07
5.86864e-07
5.63013e-07
5.39695e-07
5.16733e-07
4.94772e-07
4.72499e-07
4.51954e-07
4.2812e-07
4.14881e-07
3.85787e-07
3.86619e-07
3.37003e-07
3.65508e-07
2.69645e-07
3.71735e-07
1.99399e-07
4.58965e-07
3.0291e-07
7.445e-07
7.57193e-07
1.1815e-06
7.52628e-07
8.35228e-07
7.58733e-07
1.80802e-07
9.86848e-09
0
0
0
2.26365e-06
0.000652538
0.00194041
0.0482819
0.23422
0.594428
1.02213
1.33918
1.39586
1.12684
0.573482
0.147803
0.800179
1.20605
1.19917
0.822294
0.352022
0.0732512
0.00365924
0.000150272
0
0
0
5.01547e-12
3.66145e-08
5.05946e-07
1.03245e-06
1.02414e-06
8.90597e-07
8.50534e-07
8.61072e-07
8.64996e-07
8.54115e-07
8.38915e-07
8.24588e-07
8.1044e-07
7.95186e-07
7.7854e-07
7.60783e-07
7.42164e-07
7.22785e-07
7.028e-07
6.82355e-07
6.61637e-07
6.40767e-07
6.19901e-07
5.99189e-07
5.78732e-07
5.58638e-07
5.38961e-07
5.1972e-07
5.00866e-07
4.82433e-07
4.64205e-07
4.46868e-07
4.29048e-07
4.12904e-07
3.9318e-07
3.83398e-07
3.5724e-07
3.60874e-07
3.14429e-07
3.45627e-07
2.53035e-07
3.5749e-07
1.88693e-07
4.50623e-07
2.99149e-07
7.42651e-07
7.62375e-07
1.19054e-06
6.57911e-07
6.5372e-07
7.34076e-07
6.6884e-07
3.14655e-07
1.68256e-08
3.56247e-12
0
0
0
0.000259425
0.000294552
0.0144096
0.114011
0.373692
0.758836
1.11886
1.28284
1.1455
0.708002
0.0967225
0.576875
1.02972
1.1152
0.824484
0.386752
0.092788
0.00607685
0.000137822
1.34336e-05
0
0
0
2.17643e-08
2.6241e-07
7.79777e-07
9.40988e-07
8.30418e-07
7.30038e-07
7.03479e-07
7.06847e-07
7.06282e-07
6.96889e-07
6.84189e-07
6.71367e-07
6.58306e-07
6.44443e-07
6.29674e-07
6.14225e-07
5.98338e-07
5.82071e-07
5.65632e-07
5.49141e-07
5.32715e-07
5.16512e-07
5.00598e-07
4.85091e-07
4.6997e-07
4.55309e-07
4.40999e-07
4.27028e-07
4.1319e-07
4.00122e-07
3.86435e-07
3.7446e-07
3.58658e-07
3.52138e-07
3.29014e-07
3.35085e-07
2.92217e-07
3.25331e-07
2.37185e-07
3.42374e-07
1.79452e-07
4.40854e-07
2.96408e-07
7.39585e-07
7.6706e-07
1.1962e-06
5.79427e-07
5.61927e-07
5.73641e-07
5.91954e-07
5.68398e-07
4.39837e-07
7.1163e-08
4.09679e-09
2.7558e-13
0
0
2.69218e-06
0.000410878
0.00130924
0.028088
0.140137
0.381977
0.706282
0.977535
1.05011
0.847569
0.401513
0.175682
0.668712
0.915475
0.821269
0.495078
0.181578
0.0339078
0.0011695
0.00012335
2.53866e-06
0
0
2.6585e-10
1.31148e-08
1.25974e-07
4.91059e-07
6.77997e-07
6.48229e-07
5.82366e-07
5.55471e-07
5.53226e-07
5.5172e-07
5.44395e-07
5.34177e-07
5.23606e-07
5.12828e-07
5.01577e-07
4.89888e-07
4.77843e-07
4.65718e-07
4.53633e-07
4.41706e-07
4.30013e-07
4.18664e-07
4.07767e-07
3.97283e-07
3.8728e-07
3.77603e-07
3.68259e-07
3.5897e-07
3.50366e-07
3.41046e-07
3.33349e-07
3.21957e-07
3.18588e-07
2.99305e-07
3.0713e-07
2.69564e-07
3.02471e-07
2.2263e-07
3.2284e-07
1.72458e-07
4.20254e-07
2.82436e-07
7.06326e-07
7.28658e-07
1.11109e-06
4.9041e-07
4.81458e-07
4.83859e-07
4.78539e-07
4.74982e-07
4.99138e-07
4.46455e-07
2.87152e-07
6.64247e-09
4.57304e-10
0
0
0
1.15347e-05
0.000380014
0.000963042
0.0211108
0.108654
0.304437
0.575875
0.806731
0.862362
0.672139
0.270351
0.220393
0.61152
0.752399
0.608794
0.328016
0.106815
0.0168986
0.000281439
6.05452e-05
0
0
0
9.29553e-11
1.05751e-08
1.20215e-07
3.90125e-07
5.10057e-07
4.78127e-07
4.31837e-07
4.16833e-07
4.16315e-07
4.13718e-07
4.06912e-07
3.98789e-07
3.90738e-07
3.8261e-07
3.74275e-07
3.6594e-07
3.57711e-07
3.49797e-07
3.4225e-07
3.35175e-07
3.28665e-07
3.22674e-07
3.1728e-07
3.12251e-07
3.07613e-07
3.02999e-07
2.98996e-07
2.94236e-07
2.90934e-07
2.84081e-07
2.84074e-07
2.68744e-07
2.78631e-07
2.46024e-07
2.79929e-07
2.06721e-07
3.05972e-07
1.64918e-07
4.09184e-07
2.83171e-07
7.03311e-07
7.45457e-07
1.12027e-06
4.07808e-07
4.02277e-07
4.0765e-07
4.03547e-07
3.93686e-07
3.90926e-07
4.02383e-07
4.15552e-07
3.36941e-07
1.23883e-07
6.61422e-09
1.28827e-12
0
0
0
1.1807e-05
0.000356828
0.000654323
0.0175729
0.0936119
0.265529
0.502718
0.695929
0.720367
0.518494
0.140004
0.28297
0.569923
0.609492
0.433135
0.201519
0.053816
0.00562335
9.97582e-05
9.16304e-06
0
0
0
9.98111e-11
1.23106e-08
1.51496e-07
3.33324e-07
3.68487e-07
3.32699e-07
3.08857e-07
3.04719e-07
3.04109e-07
3.00173e-07
2.94291e-07
2.88289e-07
2.82596e-07
2.77103e-07
2.71837e-07
2.67075e-07
2.62876e-07
2.59349e-07
2.56566e-07
2.545e-07
2.53154e-07
2.52298e-07
2.51919e-07
2.51566e-07
2.51743e-07
2.51111e-07
2.51775e-07
2.48941e-07
2.52017e-07
2.40302e-07
2.52144e-07
2.23893e-07
2.59075e-07
1.91286e-07
2.90971e-07
1.5612e-07
4.00558e-07
2.81297e-07
7.04494e-07
7.57815e-07
1.12837e-06
3.30455e-07
3.36692e-07
3.35107e-07
3.29122e-07
3.22777e-07
3.19407e-07
3.22808e-07
3.41926e-07
3.27743e-07
2.33495e-07
2.65003e-08
1.71357e-09
0
0
0
0
1.05141e-05
0.000340507
0.000665679
0.0170737
0.0889395
0.24734
0.457069
0.610161
0.593324
0.37029
0.0253309
0.333465
0.514484
0.472259
0.287777
0.109351
0.0216505
0.000990845
7.34272e-05
1.45007e-07
0
0
0
3.16591e-09
3.15704e-08
1.75601e-07
2.58479e-07
2.48359e-07
2.24294e-07
2.15878e-07
2.14946e-07
2.12944e-07
2.09117e-07
2.05175e-07
2.01749e-07
1.98852e-07
1.96676e-07
1.95268e-07
1.94743e-07
1.95156e-07
1.96462e-07
1.98604e-07
2.01312e-07
2.04554e-07
2.07801e-07
2.1148e-07
2.14255e-07
2.1813e-07
2.18545e-07
2.24057e-07
2.15498e-07
2.28806e-07
2.04473e-07
2.40465e-07
1.77702e-07
2.77624e-07
1.48256e-07
3.93545e-07
2.78676e-07
7.07496e-07
7.64442e-07
1.13581e-06
2.67103e-07
2.73479e-07
2.72814e-07
2.69373e-07
2.6625e-07
2.62556e-07
2.59263e-07
2.59765e-07
2.678e-07
2.82033e-07
2.49425e-07
1.14815e-07
6.44981e-09
1.29655e-12
0
0
0
0
1.12035e-05
0.000338027
0.000963233
0.019034
0.0920418
0.243289
0.427572
0.535879
0.471224
0.227515
0.101659
0.361617
0.443177
0.341988
0.170915
0.0491688
0.00591568
1.6062e-05
1.67624e-05
0
0
0
4.58107e-11
2.17389e-11
7.32267e-08
1.5107e-07
1.66409e-07
1.51095e-07
1.41805e-07
1.4028e-07
1.39731e-07
1.38206e-07
1.36705e-07
1.35981e-07
1.36277e-07
1.37584e-07
1.39972e-07
1.43479e-07
1.47971e-07
1.53345e-07
1.59261e-07
1.65643e-07
1.71954e-07
1.78532e-07
1.84068e-07
1.90433e-07
1.93371e-07
2.00637e-07
1.94804e-07
2.09054e-07
1.88294e-07
2.24472e-07
1.66678e-07
2.66093e-07
1.4243e-07
3.87802e-07
2.76004e-07
7.11997e-07
7.65385e-07
1.14445e-06
2.127e-07
2.18327e-07
2.18231e-07
2.16007e-07
2.14139e-07
2.11934e-07
2.10408e-07
2.07684e-07
2.05914e-07
2.08194e-07
2.21691e-07
2.2102e-07
1.67998e-07
2.20247e-08
1.58273e-09
2.1255e-14
0
0
0
0
1.40196e-05
0.000309312
0.00157432
0.0235797
0.10214
0.249329
0.405553
0.462454
0.348307
0.0926626
0.190533
0.361192
0.354481
0.22217
0.084929
0.0164951
0.000670487
6.9407e-05
3.67677e-07
0
0
1.8136e-14
2.42941e-09
2.26528e-08
7.52606e-08
9.65588e-08
9.01704e-08
8.15665e-08
7.89822e-08
7.92128e-08
8.00743e-08
8.17091e-08
8.47305e-08
8.92206e-08
9.4986e-08
1.01833e-07
1.09547e-07
1.17927e-07
1.26651e-07
1.35585e-07
1.44277e-07
1.5301e-07
1.60545e-07
1.68584e-07
1.73242e-07
1.81469e-07
1.77767e-07
1.92429e-07
1.74786e-07
2.10594e-07
1.57411e-07
2.55812e-07
1.37543e-07
3.82866e-07
2.72602e-07
7.16848e-07
7.58651e-07
1.1554e-06
1.79182e-07
1.8335e-07
1.84022e-07
1.82346e-07
1.80688e-07
1.79441e-07
1.78752e-07
1.77224e-07
1.75521e-07
1.7329e-07
1.73942e-07
1.78644e-07
1.91391e-07
1.66727e-07
1.00222e-07
2.82659e-10
4.57389e-11
0
0
0
0
0
1.69443e-05
0.000253124
0.00301612
0.0318675
0.119611
0.261749
0.382594
0.381442
0.22173
0.0343736
0.249666
0.326577
0.25307
0.122341
0.0324045
0.00314234
1.20936e-06
1.65222e-05
0
0
0
3.6166e-10
1.31522e-09
1.26639e-08
1.96045e-08
2.3955e-08
2.46172e-08
2.59493e-08
3.07581e-08
3.79013e-08
4.61168e-08
5.51493e-08
6.49178e-08
7.51992e-08
8.5742e-08
9.64166e-08
1.07001e-07
1.17485e-07
1.27528e-07
1.37454e-07
1.46113e-07
1.54943e-07
1.60571e-07
1.69031e-07
1.66952e-07
1.81416e-07
1.66702e-07
2.01272e-07
1.52958e-07
2.48931e-07
1.36676e-07
3.80196e-07
2.68514e-07
7.2292e-07
7.37714e-07
1.17836e-06
1.46392e-07
1.50764e-07
1.51169e-07
1.49608e-07
1.48197e-07
1.47876e-07
1.48092e-07
1.46275e-07
1.45865e-07
1.45262e-07
1.43593e-07
1.42673e-07
1.45743e-07
1.52223e-07
1.56823e-07
1.20482e-07
4.36581e-08
3.62273e-09
2.70369e-12
0
0
0
0
0
9.25594e-05
3.92605e-05
0.0061946
0.0454557
0.143802
0.274363
0.347938
0.283924
0.090417
0.135203
0.269841
0.257593
0.14999
0.0498187
0.00744822
0.000109989
4.63926e-05
0
0
0
7.85418e-12
1.83188e-09
9.70106e-09
4.28245e-08
3.57297e-08
2.55054e-08
2.76908e-08
3.56504e-08
4.51286e-08
5.45479e-08
6.38617e-08
7.33695e-08
8.30267e-08
9.27498e-08
1.02311e-07
1.11751e-07
1.20825e-07
1.29829e-07
1.37779e-07
1.45749e-07
1.50787e-07
1.5806e-07
1.56192e-07
1.6955e-07
1.56381e-07
1.89455e-07
1.43671e-07
2.38428e-07
1.28222e-07
3.73129e-07
2.58109e-07
7.2191e-07
6.99231e-07
1.21598e-06
1.5799e-07
1.60241e-07
1.60071e-07
1.5837e-07
1.56752e-07
1.55657e-07
1.55013e-07
1.53304e-07
1.52172e-07
1.50855e-07
1.48802e-07
1.46994e-07
1.45626e-07
1.45267e-07
1.47343e-07
1.54024e-07
1.41948e-07
1.01205e-07
2.71868e-08
2.76311e-09
3.33272e-12
0
0
0
0
9.4541e-07
0.000190603
0.000440308
0.012809
0.0675033
0.178383
0.294099
0.317509
0.196148
0.0323103
0.208207
0.262028
0.185932
0.0759767
0.0132907
0.00109221
5.96792e-05
3.69722e-05
7.43294e-06
2.12369e-07
0
4.07208e-11
4.22085e-11
5.34582e-08
1.01018e-07
9.45881e-08
8.21982e-08
8.02386e-08
8.44135e-08
9.03958e-08
9.68666e-08
1.03765e-07
1.11091e-07
1.18638e-07
1.26299e-07
1.33897e-07
1.41595e-07
1.4861e-07
1.55564e-07
1.60008e-07
1.66186e-07
1.64921e-07
1.76655e-07
1.65778e-07
1.95608e-07
1.54461e-07
2.43894e-07
1.36646e-07
3.80324e-07
2.44937e-07
7.35687e-07
6.3488e-07
1.34702e-06
1.35231e-07
1.36146e-07
1.36536e-07
1.37084e-07
1.37446e-07
1.37812e-07
1.38517e-07
1.39366e-07
1.40079e-07
1.40485e-07
1.40877e-07
1.41582e-07
1.42201e-07
1.42858e-07
1.43427e-07
1.46616e-07
1.52249e-07
1.56335e-07
1.4272e-07
1.07659e-07
2.8274e-08
2.5155e-09
0
0
0
0
0
6.85936e-06
0.000161556
0.000571864
0.0109273
0.0513304
0.12653
0.198311
0.203517
0.113254
0.0328181
0.145482
0.167199
0.112572
0.0471564
0.0121472
0.00162021
3.23463e-05
2.78834e-05
4.70065e-06
0
9.2884e-14
2.0614e-09
3.13176e-08
9.30436e-08
1.19629e-07
1.20321e-07
1.179e-07
1.18134e-07
1.19982e-07
1.2235e-07
1.24946e-07
1.277e-07
1.30552e-07
1.3343e-07
1.36502e-07
1.39286e-07
1.42237e-07
1.43032e-07
1.44847e-07
1.40728e-07
1.488e-07
1.36524e-07
1.63349e-07
1.19802e-07
2.08362e-07
9.15656e-08
3.39215e-07
2.02917e-07
6.69214e-07
6.33697e-07
1.32949e-06
)
;

boundaryField
{
    inlet
    {
        type            calculated;
        value           nonuniform List<scalar> 
27
(
7.07661e-06
7.08598e-06
7.10288e-06
7.12554e-06
7.14975e-06
7.17481e-06
7.20143e-06
7.22943e-06
7.25867e-06
7.28808e-06
7.31754e-06
7.34647e-06
7.37431e-06
7.40039e-06
7.42401e-06
7.44445e-06
7.46187e-06
7.42618e-06
7.43075e-06
7.4288e-06
7.4166e-06
7.39292e-06
7.35457e-06
7.30006e-06
7.22159e-06
7.14431e-06
6.98524e-06
)
;
    }
    outlet
    {
        type            calculated;
        value           nonuniform List<scalar> 
78
(
1.09555e-07
1.1084e-07
1.11501e-07
1.12358e-07
1.13e-07
1.13649e-07
1.14719e-07
1.15959e-07
1.17039e-07
1.17758e-07
1.18462e-07
1.19531e-07
1.20562e-07
1.21641e-07
1.22601e-07
1.25718e-07
1.30721e-07
1.34005e-07
1.22233e-07
9.32179e-08
2.53869e-08
2.36205e-09
0
0
0
0
0
6.89128e-06
0.00016114
0.000537573
0.0108215
0.0511245
0.126333
0.198397
0.204165
0.114449
0.0306298
0.143927
0.166273
0.112236
0.0471249
0.0121817
0.00164081
2.08239e-05
2.65808e-05
4.46883e-06
0
8.13622e-14
1.80225e-09
2.78793e-08
8.35885e-08
1.07669e-07
1.08131e-07
1.05604e-07
1.05279e-07
1.06205e-07
1.0742e-07
1.08695e-07
1.09991e-07
1.11304e-07
1.12579e-07
1.14091e-07
1.15282e-07
1.16922e-07
1.16138e-07
1.17363e-07
1.11196e-07
1.21141e-07
1.04064e-07
1.38707e-07
8.01908e-08
1.90753e-07
2.45163e-08
3.26189e-07
1.81791e-07
6.4617e-07
6.35013e-07
1.25705e-06
)
;
    }
    walls
    {
        type            calculated;
        value           nonuniform List<scalar> 0();
    }
    frontAndBack
    {
        type            empty;
    }
    procBoundary7to3
    {
        type            processor;
        value           nonuniform List<scalar> 
16
(
1.34784e-06
1.39121e-06
1.05742e-06
8.99933e-07
7.96551e-07
6.81531e-07
5.59664e-07
4.57334e-07
3.33811e-07
3.33811e-07
2.6926e-07
2.14642e-07
1.81022e-07
1.4678e-07
1.61047e-07
1.33148e-07
)
;
    }
    procBoundary7to6
    {
        type            processor;
        value           nonuniform List<scalar> 
91
(
1.08621e-06
8.55414e-07
8.55414e-07
8.19186e-07
8.19186e-07
3.37422e-07
3.37422e-07
3.07945e-07
5.60096e-07
5.60096e-07
4.42976e-07
5.14567e-07
5.14567e-07
6.27296e-07
5.51364e-07
5.47288e-07
5.47288e-07
7.33656e-07
6.86067e-07
6.30939e-07
6.30939e-07
9.48044e-07
8.8002e-07
8.15285e-07
7.53941e-07
7.53941e-07
1.22939e-06
1.15383e-06
1.08121e-06
1.0117e-06
9.45335e-07
9.45335e-07
1.60803e-06
1.53551e-06
1.46317e-06
1.39133e-06
1.32039e-06
1.25069e-06
1.18252e-06
1.18252e-06
2.00101e-06
1.96446e-06
1.92561e-06
1.88429e-06
1.84044e-06
1.79411e-06
1.74539e-06
1.69441e-06
1.64139e-06
1.58664e-06
1.53036e-06
1.47286e-06
1.47286e-06
9.33632e-13
0
0
0.000410638
0.000366548
0.0321588
0.222549
0.663122
1.26086
1.81337
2.12671
2.0679
1.59326
0.772059
0.267702
1.20537
1.8454
1.95075
1.5007
0.778012
0.225875
0.0248615
6.92013e-05
1.19142e-05
0
0
0
5.60117e-08
7.9569e-07
2.07471e-06
2.14545e-06
1.89659e-06
1.80784e-06
1.79734e-06
1.7801e-06
1.75275e-06
1.72564e-06
1.72564e-06
)
;
    }
}


// ************************************************************************* //
