/*--------------------------------*- C++ -*----------------------------------*\
| =========                 |                                                 |
| \\      /  F ield         | OpenFOAM: The Open Source CFD Toolbox           |
|  \\    /   O peration     | Version:  2306                                  |
|   \\  /    A nd           | Website:  www.openfoam.com                      |
|    \\/     M anipulation  |                                                 |
\*---------------------------------------------------------------------------*/
FoamFile
{
    version     2.0;
    format      ascii;
    arch        "LSB;label=32;scalar=64";
    class       volVectorField;
    location    "525";
    object      momentError;
}
// * * * * * * * * * * * * * * * * * * * * * * * * * * * * * * * * * * * * * //

dimensions      [0 1 -2 0 0 0 0];

internalField   nonuniform List<vector> 
1340
(
(7.69654e-09 -4.44721e-07 -7.3966e-16)
(-1.29173e-07 -8.8159e-07 -1.09297e-16)
(-8.52964e-08 -8.27246e-07 -7.61663e-16)
(-2.46729e-07 -7.07892e-07 3.80753e-15)
(-2.20618e-07 -7.76722e-07 -5.7467e-17)
(-1.08192e-07 -7.78071e-07 1.22431e-15)
(-2.66396e-07 -7.4514e-07 -8.4028e-16)
(-3.15111e-07 -7.1344e-07 3.98101e-15)
(-2.50709e-07 -7.89379e-07 3.27867e-16)
(-1.10193e-07 -7.73762e-07 -1.89476e-15)
(-2.69845e-07 -8.91411e-07 -1.92692e-15)
(-2.7029e-07 -8.1624e-07 -1.60866e-15)
(-3.00665e-07 -7.65545e-07 -1.14749e-15)
(-3.25645e-07 -7.32494e-07 -1.40693e-15)
(-2.45266e-07 -7.6363e-07 -3.27557e-16)
(-1.13006e-07 -7.61049e-07 -1.06214e-15)
(-3.67119e-07 -1.07446e-06 -6.14251e-16)
(-3.38882e-07 -9.53265e-07 4.86048e-17)
(-3.18191e-07 -8.95166e-07 -4.69366e-15)
(-3.12118e-07 -8.40327e-07 -2.57504e-15)
(-3.1049e-07 -7.96192e-07 1.25471e-15)
(-3.00322e-07 -7.41588e-07 -1.57593e-15)
(-2.39143e-07 -7.56583e-07 -8.4982e-16)
(-1.09144e-07 -7.46679e-07 2.66119e-15)
(-6.50383e-07 -1.58197e-06 -3.26927e-15)
(-5.54421e-07 -1.43154e-06 -4.2386e-15)
(-4.58373e-07 -1.25688e-06 -2.67329e-15)
(-4.05388e-07 -1.06256e-06 -6.48432e-18)
(-4.08183e-07 -9.52784e-07 -1.54763e-16)
(-3.62086e-07 -9.12889e-07 1.87984e-15)
(-3.33503e-07 -8.4859e-07 8.19418e-16)
(-2.99505e-07 -8.05892e-07 -2.128e-16)
(-2.85562e-07 -7.55314e-07 7.7583e-16)
(-2.23987e-07 -7.47031e-07 5.70436e-17)
(-1.02676e-07 -7.31909e-07 -6.44683e-16)
(-1.1471e-06 -1.89604e-06 -8.15338e-16)
(-9.97816e-07 -1.69901e-06 1.23717e-15)
(-8.49666e-07 -1.5824e-06 3.37315e-16)
(-7.29792e-07 -1.48157e-06 -3.97555e-16)
(-6.1756e-07 -1.367e-06 -1.53641e-15)
(-5.25843e-07 -1.21003e-06 -2.70425e-15)
(-4.57613e-07 -1.06891e-06 -5.42593e-16)
(-4.56321e-07 -9.50162e-07 1.41883e-16)
(-3.81541e-07 -8.90807e-07 1.9472e-15)
(-3.36826e-07 -8.52169e-07 4.49698e-16)
(-3.00248e-07 -8.13251e-07 -1.01403e-15)
(-2.68028e-07 -7.61982e-07 1.32279e-15)
(-2.07367e-07 -7.38687e-07 5.05534e-16)
(-9.47244e-08 -7.15763e-07 8.89295e-16)
(-2.55702e-06 -2.13207e-06 -1.04901e-15)
(-2.16436e-06 -2.04984e-06 2.93805e-16)
(-1.82246e-06 -1.97857e-06 1.17436e-16)
(-1.48615e-06 -1.85604e-06 -1.09921e-16)
(-1.23254e-06 -1.71611e-06 -4.53034e-16)
(-1.05924e-06 -1.57526e-06 2.17495e-15)
(-9.24212e-07 -1.46743e-06 2.67521e-16)
(-8.15338e-07 -1.39903e-06 9.03904e-16)
(-6.94086e-07 -1.28839e-06 -1.6144e-16)
(-5.97968e-07 -1.15432e-06 1.1992e-15)
(-5.25978e-07 -1.02387e-06 5.01632e-16)
(-4.70458e-07 -9.33661e-07 -1.66788e-16)
(-4.09756e-07 -8.756e-07 -1.35728e-15)
(-3.53604e-07 -8.38621e-07 -3.62276e-16)
(-3.01649e-07 -8.0815e-07 5.21649e-16)
(-2.56009e-07 -7.61604e-07 -8.03844e-16)
(-1.91633e-07 -7.26027e-07 1.34946e-16)
(-8.74073e-08 -6.9855e-07 2.69294e-16)
(-5.2686e-06 -1.13315e-06 -9.97546e-16)
(-4.74431e-06 -1.27361e-06 -1.9675e-16)
(-4.13085e-06 -1.43074e-06 1.45617e-16)
(-3.64299e-06 -1.57815e-06 1.44014e-15)
(-3.07539e-06 -1.64121e-06 -1.28854e-16)
(-2.63144e-06 -1.6732e-06 -8.38429e-16)
(-2.21936e-06 -1.73153e-06 1.59342e-15)
(-1.86913e-06 -1.66498e-06 5.30172e-16)
(-1.56348e-06 -1.62361e-06 1.0627e-16)
(-1.32168e-06 -1.53958e-06 3.03773e-16)
(-1.12461e-06 -1.4227e-06 -4.85129e-16)
(-1.00485e-06 -1.35355e-06 -6.72392e-17)
(-8.76083e-07 -1.28274e-06 -1.90684e-15)
(-7.56451e-07 -1.19515e-06 -2.87808e-16)
(-6.54394e-07 -1.08756e-06 2.2156e-16)
(-5.73293e-07 -9.8338e-07 -4.57895e-16)
(-5.05425e-07 -8.95724e-07 6.36167e-17)
(-4.34916e-07 -8.42112e-07 -4.45166e-16)
(-3.70013e-07 -8.18424e-07 -1.88451e-16)
(-3.06986e-07 -7.93314e-07 2.82905e-17)
(-2.48471e-07 -7.51623e-07 -1.03145e-15)
(-1.78916e-07 -7.10281e-07 -1.56648e-16)
(-8.13708e-08 -6.78734e-07 -1.50211e-15)
(-8.08289e-06 1.67511e-06 1.20356e-16)
(-7.68044e-06 1.22518e-06 -2.11501e-16)
(-7.24895e-06 8.20967e-07 5.66091e-17)
(-6.79708e-06 4.62135e-07 -1.62213e-16)
(-6.31561e-06 1.68631e-07 -6.50181e-16)
(-5.85246e-06 -1.21291e-07 2.20243e-16)
(-5.35117e-06 -3.19283e-07 1.53074e-16)
(-4.87655e-06 -5.15967e-07 -1.10359e-15)
(-4.38844e-06 -6.87914e-07 -2.67556e-16)
(-3.94284e-06 -8.80788e-07 -3.24899e-16)
(-3.47117e-06 -1.06204e-06 -4.48915e-16)
(-3.02338e-06 -1.16387e-06 -4.23373e-17)
(-2.64204e-06 -1.29028e-06 1.17022e-15)
(-2.24595e-06 -1.33679e-06 6.60825e-16)
(-1.90041e-06 -1.40042e-06 -2.06308e-16)
(-1.6227e-06 -1.38205e-06 2.76158e-16)
(-1.35822e-06 -1.33083e-06 2.98693e-17)
(-1.18827e-06 -1.26935e-06 -8.30246e-17)
(-1.051e-06 -1.22087e-06 -3.35758e-17)
(-9.26417e-07 -1.17166e-06 1.08005e-15)
(-8.02184e-07 -1.10144e-06 1.17889e-15)
(-6.98515e-07 -1.01126e-06 4.41822e-17)
(-6.11277e-07 -9.19947e-07 4.83603e-16)
(-5.32763e-07 -8.52762e-07 -7.66138e-17)
(-4.58283e-07 -8.06636e-07 9.60644e-16)
(-3.85577e-07 -7.8442e-07 6.34023e-16)
(-3.14373e-07 -7.67821e-07 1.15781e-16)
(-2.44008e-07 -7.33655e-07 2.16752e-16)
(-1.69475e-07 -6.87968e-07 1.02911e-15)
(-7.65939e-08 -6.56766e-07 4.72831e-16)
(-7.62063e-06 5.19272e-06 -1.74789e-17)
(-7.65825e-06 5.22781e-06 -1.89141e-18)
(-7.68605e-06 5.11604e-06 -2.1488e-18)
(-7.71927e-06 4.97839e-06 1.5879e-17)
(-7.73035e-06 4.78584e-06 2.53779e-17)
(-7.73071e-06 4.57463e-06 1.17419e-16)
(-7.70831e-06 4.27568e-06 2.50265e-17)
(-7.65863e-06 3.9608e-06 4.81411e-17)
(-7.57667e-06 3.59655e-06 5.10532e-18)
(-7.44968e-06 3.23312e-06 -2.01789e-16)
(-7.28956e-06 2.84771e-06 -7.92345e-17)
(-7.07933e-06 2.44171e-06 -2.45047e-16)
(-6.83208e-06 2.02926e-06 -2.00355e-16)
(-6.53891e-06 1.64745e-06 -3.52479e-16)
(-6.22253e-06 1.27802e-06 1.5283e-16)
(-5.87675e-06 9.71043e-07 -3.58786e-16)
(-5.5155e-06 6.60796e-07 -4.20526e-17)
(-5.15409e-06 4.11921e-07 4.86931e-16)
(-4.75582e-06 1.83441e-07 -1.47098e-16)
(-4.40889e-06 -2.60251e-08 6.30323e-16)
(-4.01053e-06 -2.42045e-07 -9.12698e-17)
(-3.68148e-06 -4.2e-07 -2.34198e-17)
(-3.27453e-06 -6.06033e-07 1.39105e-16)
(-2.94394e-06 -7.70307e-07 8.24741e-17)
(-2.57937e-06 -8.88254e-07 -4.60881e-16)
(-2.24435e-06 -1.00881e-06 -7.79455e-16)
(-1.93748e-06 -1.07589e-06 1.73665e-16)
(-1.647e-06 -1.13477e-06 -5.1528e-16)
(-1.41215e-06 -1.13832e-06 -1.48755e-16)
(-1.23134e-06 -1.10493e-06 3.54864e-17)
(-1.09043e-06 -1.08439e-06 3.79409e-17)
(-9.55428e-07 -1.04615e-06 8.91e-16)
(-8.31677e-07 -9.96345e-07 -3.64313e-16)
(-7.26288e-07 -9.33806e-07 5.19825e-16)
(-6.36728e-07 -8.62282e-07 -6.75746e-16)
(-5.5285e-07 -7.97534e-07 2.24061e-16)
(-4.7482e-07 -7.58135e-07 -6.80915e-16)
(-3.98304e-07 -7.47998e-07 1.04838e-15)
(-3.1965e-07 -7.35606e-07 9.38476e-16)
(-2.41113e-07 -7.0708e-07 -1.81501e-17)
(-1.62478e-07 -6.62677e-07 -1.36182e-16)
(-7.29358e-08 -6.32059e-07 8.3901e-17)
(2.98407e-05 -1.33104e-05 -1.75113e-17)
(9.17457e-06 -9.02417e-06 1.36806e-17)
(2.61495e-05 -3.90668e-06 -3.83339e-17)
(1.73735e-05 -4.50672e-06 -5.96987e-18)
(2.1671e-05 1.52774e-06 2.98045e-17)
(1.84016e-05 1.50648e-06 -1.79606e-17)
(1.53274e-05 1.41634e-06 -4.17206e-17)
(1.99001e-05 1.17691e-06 1.16902e-17)
(2.50978e-05 4.92978e-07 1.53999e-17)
(3.10284e-05 -4.6264e-07 -4.60343e-17)
(3.39833e-05 -1.95724e-06 -3.3848e-17)
(3.30632e-05 -3.2217e-06 -6.71946e-18)
(2.73775e-05 -4.33353e-06 -1.59015e-17)
(1.7965e-05 -5.18204e-06 4.95165e-17)
(6.27511e-06 -5.82105e-06 5.15882e-17)
(-5.36818e-06 -6.16835e-06 -8.08654e-17)
(-1.45138e-05 -5.96447e-06 -1.41932e-16)
(-1.94347e-05 -5.27247e-06 -2.56433e-17)
(-2.01584e-05 -4.46088e-06 3.23784e-17)
(-1.04626e-05 9.37274e-07 -2.36324e-17)
(9.24654e-05 3.18919e-05 2.10165e-17)
(-0.000119391 -1.79662e-05 -4.9294e-17)
(-0.000159285 -6.39418e-05 1.20928e-16)
(0.000169461 7.7844e-06 -9.94904e-17)
(1.28428e-05 2.74088e-07 -1.44327e-16)
(-2.06472e-05 -1.15375e-06 -1.32838e-17)
(-7.65629e-06 3.91118e-06 -1.71572e-18)
(-9.15195e-06 4.94273e-06 -8.08808e-17)
(-9.00307e-06 5.81673e-06 -8.39518e-18)
(-8.27462e-06 6.15335e-06 -3.1349e-17)
(-7.9823e-06 6.13361e-06 1.789e-17)
(-7.74096e-06 5.92004e-06 1.3752e-16)
(-7.59194e-06 5.74284e-06 1.38781e-17)
(-7.369e-06 5.59838e-06 6.30524e-17)
(-7.2393e-06 5.54861e-06 -3.02517e-17)
(-7.04805e-06 5.55255e-06 1.26864e-17)
(-6.98162e-06 5.39227e-06 2.63369e-17)
(-6.80585e-06 5.25534e-06 1.45749e-17)
(-6.72962e-06 5.24376e-06 -1.31353e-18)
(-6.6093e-06 5.04842e-06 2.02032e-21)
(-6.55583e-06 4.87395e-06 4.24934e-17)
(-6.45264e-06 4.64634e-06 2.75486e-17)
(-6.4089e-06 4.4089e-06 6.34619e-17)
(-6.31749e-06 4.12213e-06 2.43363e-17)
(-6.25846e-06 3.83781e-06 6.31874e-17)
(-6.15101e-06 3.53216e-06 -9.21218e-17)
(-6.05622e-06 3.22833e-06 -3.25708e-16)
(-5.91898e-06 2.90296e-06 2.58547e-16)
(-5.78192e-06 2.5789e-06 -3.07467e-17)
(-5.59599e-06 2.23005e-06 1.10971e-16)
(-5.39924e-06 1.90301e-06 1.04509e-16)
(-5.17327e-06 1.58215e-06 5.71884e-17)
(-4.92837e-06 1.28551e-06 1.22998e-16)
(-4.68601e-06 1.01132e-06 3.44953e-17)
(-4.40875e-06 7.56258e-07 -1.65817e-16)
(-4.16225e-06 5.36846e-07 -9.43848e-17)
(-3.88126e-06 3.22005e-07 2.33104e-16)
(-3.62516e-06 1.33043e-07 2.15769e-17)
(-3.33244e-06 -7.42312e-08 2.08542e-16)
(-3.07316e-06 -2.51585e-07 -5.03733e-17)
(-2.77273e-06 -4.17814e-07 -2.16203e-16)
(-2.4919e-06 -5.59123e-07 -6.23641e-16)
(-2.21298e-06 -6.78949e-07 -5.69417e-16)
(-1.94358e-06 -8.08686e-07 4.37382e-16)
(-1.69516e-06 -8.78268e-07 -3.18382e-16)
(-1.44804e-06 -9.2026e-07 1.54524e-16)
(-1.26918e-06 -9.24804e-07 -2.87175e-16)
(-1.11925e-06 -9.25199e-07 -2.06866e-16)
(-9.82579e-07 -9.15599e-07 -5.60377e-16)
(-8.59043e-07 -8.92678e-07 -5.06362e-16)
(-7.4615e-07 -8.47838e-07 -9.13006e-16)
(-6.49931e-07 -7.88548e-07 4.07658e-16)
(-5.63732e-07 -7.437e-07 -2.69263e-16)
(-4.82393e-07 -7.13543e-07 7.43556e-16)
(-4.038e-07 -7.01989e-07 2.62321e-16)
(-3.21624e-07 -6.96441e-07 -5.6114e-17)
(-2.38911e-07 -6.75418e-07 1.63642e-16)
(-1.5697e-07 -6.31618e-07 -2.78203e-16)
(-7.06445e-08 -6.05302e-07 -1.26746e-16)
(8.45893e-06 -5.12912e-06 1.54709e-17)
(4.00835e-06 -1.11214e-06 -1.68926e-17)
(2.27195e-06 2.7065e-06 -3.54635e-17)
(1.30967e-06 3.93251e-06 3.16295e-18)
(1.04858e-06 6.29699e-06 1.7777e-17)
(1.64676e-06 6.77485e-06 -6.07637e-18)
(2.24965e-06 6.79129e-06 -4.20717e-18)
(2.54017e-06 6.61602e-06 -8.26932e-18)
(9.37726e-06 7.23081e-06 -3.43187e-18)
(1.82197e-05 7.49177e-06 -1.66269e-17)
(2.22104e-05 6.31169e-06 -2.33102e-17)
(3.15807e-05 6.81544e-06 1.39822e-17)
(3.33804e-05 5.86937e-06 -8.29162e-18)
(3.16034e-05 5.46952e-06 -4.66521e-18)
(2.38781e-05 4.64491e-06 1.1708e-17)
(1.18886e-05 3.59579e-06 -4.29145e-17)
(-2.4868e-06 2.38509e-06 2.0843e-17)
(-1.59603e-05 1.3385e-06 3.46109e-17)
(-2.38558e-05 1.50604e-06 -4.0552e-17)
(-3.01654e-05 4.60917e-06 -4.16972e-17)
(-8.0269e-05 -2.95052e-06 -4.4243e-17)
(-0.000272134 -6.12957e-05 6.12842e-18)
(8.76483e-05 -6.26578e-07 3.62087e-17)
(0.000153266 3.69229e-05 -5.43694e-17)
(1.6051e-05 1.11082e-05 1.90515e-17)
(-9.8105e-06 5.84138e-06 -1.87379e-17)
(-2.59253e-06 6.30871e-06 2.28575e-18)
(-6.16205e-06 6.69168e-06 -3.8978e-17)
(-7.43733e-06 7.00529e-06 1.4002e-17)
(-7.00448e-06 7.1935e-06 -1.95518e-17)
(-6.60218e-06 7.09124e-06 5.31481e-17)
(-6.29049e-06 6.79907e-06 2.50436e-17)
(-6.11189e-06 6.41063e-06 -1.93733e-17)
(-5.95736e-06 6.07497e-06 -2.47821e-17)
(-5.83013e-06 5.82054e-06 -2.88766e-17)
(-5.67597e-06 5.6284e-06 1.78026e-17)
(-5.56351e-06 5.49713e-06 1.95999e-17)
(-5.39401e-06 5.35977e-06 7.70012e-19)
(-5.30126e-06 5.12701e-06 -1.74205e-17)
(-5.18546e-06 4.93627e-06 1.97771e-18)
(-5.10656e-06 4.70177e-06 -2.24249e-17)
(-5.01301e-06 4.47577e-06 -1.62045e-17)
(-4.94944e-06 4.21247e-06 -1.03032e-17)
(-4.86888e-06 3.96502e-06 -6.2185e-18)
(-4.80775e-06 3.68945e-06 -2.56688e-17)
(-4.72883e-06 3.42328e-06 -1.32878e-17)
(-4.66183e-06 3.1331e-06 1.08756e-16)
(-4.57616e-06 2.85336e-06 1.79285e-16)
(-4.4927e-06 2.55693e-06 1.10006e-16)
(-4.38882e-06 2.2787e-06 5.36179e-17)
(-4.27575e-06 1.98861e-06 -3.65401e-18)
(-4.14422e-06 1.71457e-06 4.34559e-17)
(-4.00024e-06 1.44479e-06 -6.80822e-18)
(-3.84582e-06 1.19321e-06 1.1227e-17)
(-3.68154e-06 9.57848e-07 8.73594e-17)
(-3.50989e-06 7.42726e-07 2.7708e-16)
(-3.33475e-06 5.52085e-07 -4.87216e-16)
(-3.14873e-06 3.5415e-07 7.24703e-17)
(-2.96604e-06 1.77559e-07 -1.72199e-16)
(-2.75257e-06 2.94023e-09 5.16968e-16)
(-2.54914e-06 -1.45749e-07 -4.47825e-19)
(-2.32586e-06 -2.96027e-07 4.14197e-16)
(-2.11962e-06 -4.37552e-07 6.97257e-16)
(-1.89691e-06 -5.46962e-07 -3.77793e-16)
(-1.6707e-06 -6.43546e-07 3.91955e-16)
(-1.45843e-06 -7.04987e-07 -2.33566e-16)
(-1.28809e-06 -7.38859e-07 -3.25896e-16)
(-1.14198e-06 -7.64922e-07 -1.76884e-16)
(-1.0084e-06 -7.73796e-07 1.11419e-16)
(-8.76764e-07 -7.71414e-07 8.70927e-16)
(-7.6193e-07 -7.52172e-07 9.3301e-16)
(-6.5698e-07 -7.2014e-07 -4.54331e-17)
(-5.6011e-07 -6.81386e-07 -3.11342e-16)
(-4.78322e-07 -6.58627e-07 -5.77933e-17)
(-4.01249e-07 -6.59382e-07 -1.41473e-15)
(-3.19423e-07 -6.55471e-07 1.53363e-17)
(-2.35776e-07 -6.38513e-07 -5.91431e-16)
(-1.52632e-07 -5.99187e-07 -1.24624e-16)
(-6.88966e-08 -5.76124e-07 1.81079e-16)
(-8.99859e-06 5.1002e-06 -8.97752e-18)
(-1.28408e-05 7.21034e-06 -8.12153e-18)
(-1.12013e-05 7.68723e-06 7.41555e-18)
(-1.02048e-05 8.17578e-06 -8.0755e-19)
(-9.39541e-06 9.85045e-06 -1.5842e-17)
(-7.78099e-06 1.07277e-05 1.07036e-17)
(-7.47891e-06 1.07717e-05 6.22121e-18)
(-9.03166e-06 1.0584e-05 -1.51458e-17)
(-1.12505e-05 1.19677e-05 5.96312e-18)
(2.90122e-05 1.53417e-06 -9.28714e-18)
(-1.7776e-05 6.0331e-06 9.16694e-18)
(2.39079e-05 1.22521e-05 -9.33218e-18)
(1.43091e-05 8.80243e-06 -2.78508e-17)
(2.93135e-05 1.14547e-05 3.89458e-18)
(2.91529e-05 1.12436e-05 1.10949e-17)
(2.56798e-05 1.10677e-05 -1.17604e-18)
(1.63576e-05 1.00935e-05 2.2333e-17)
(3.14987e-06 8.64818e-06 -5.00818e-17)
(-1.23909e-05 6.92294e-06 -2.77264e-17)
(-3.18359e-05 3.79015e-06 1.9945e-18)
(-4.06304e-05 -1.66368e-06 -1.53227e-18)
(7.02201e-05 1.60738e-05 2.21721e-17)
(-4.80638e-05 1.6499e-05 -7.51383e-17)
(-7.42574e-05 -2.22156e-06 1.3497e-16)
(-1.17284e-05 8.19676e-06 1.85147e-17)
(-9.70484e-06 6.58649e-06 1.35539e-17)
(-3.75993e-06 6.13383e-06 2.36728e-17)
(-2.44623e-06 6.52947e-06 4.78781e-17)
(-4.17546e-06 6.56555e-06 1.16048e-17)
(-4.78721e-06 6.68122e-06 2.33201e-17)
(-4.76326e-06 6.66756e-06 -1.57461e-17)
(-4.52666e-06 6.4886e-06 -5.03661e-17)
(-4.27002e-06 6.20162e-06 2.22761e-18)
(-4.12748e-06 5.91411e-06 1.27153e-17)
(-4.02535e-06 5.66398e-06 3.99001e-17)
(-3.96686e-06 5.47151e-06 -2.15388e-17)
(-3.87605e-06 5.2869e-06 2.1415e-18)
(-3.81753e-06 5.11754e-06 -2.09718e-17)
(-3.72819e-06 4.92083e-06 1.08621e-17)
(-3.6652e-06 4.70688e-06 -2.59165e-19)
(-3.59441e-06 4.46303e-06 -9.49184e-18)
(-3.54877e-06 4.21871e-06 -6.48537e-18)
(-3.49715e-06 3.95543e-06 3.95762e-19)
(-3.46523e-06 3.69937e-06 -8.84226e-18)
(-3.42879e-06 3.43241e-06 -5.07739e-18)
(-3.40635e-06 3.17898e-06 5.0752e-17)
(-3.37845e-06 2.91715e-06 2.68486e-17)
(-3.35604e-06 2.66652e-06 -6.16878e-17)
(-3.32608e-06 2.4116e-06 3.28601e-17)
(-3.29331e-06 2.16304e-06 1.40189e-17)
(-3.25065e-06 1.91572e-06 6.48507e-17)
(-3.19672e-06 1.68156e-06 -1.51639e-16)
(-3.13336e-06 1.45114e-06 9.97206e-18)
(-3.05512e-06 1.23018e-06 1.50198e-17)
(-2.96777e-06 1.02416e-06 7.30376e-17)
(-2.8679e-06 8.30524e-07 -8.39717e-17)
(-2.7621e-06 6.49552e-07 1.70395e-16)
(-2.64964e-06 4.79475e-07 6.88797e-17)
(-2.52005e-06 3.18103e-07 -1.00128e-16)
(-2.38926e-06 1.69785e-07 1.41105e-16)
(-2.23862e-06 1.84068e-08 3.42871e-17)
(-2.0973e-06 -1.17103e-07 5.54298e-16)
(-1.9289e-06 -2.42038e-07 -1.1721e-18)
(-1.76359e-06 -3.56663e-07 -3.2496e-16)
(-1.58603e-06 -4.46535e-07 5.01646e-16)
(-1.41176e-06 -5.25492e-07 3.67911e-18)
(-1.26656e-06 -5.67973e-07 -2.66857e-16)
(-1.13372e-06 -6.04201e-07 1.79632e-16)
(-1.0075e-06 -6.30929e-07 -5.4868e-17)
(-8.83055e-07 -6.52068e-07 3.90342e-16)
(-7.60945e-07 -6.52572e-07 2.13984e-17)
(-6.44667e-07 -6.28891e-07 -3.20058e-17)
(-5.4815e-07 -6.17968e-07 2.90362e-16)
(-4.64108e-07 -6.13657e-07 -1.81359e-18)
(-3.89264e-07 -6.12057e-07 -6.68018e-17)
(-3.12071e-07 -6.12246e-07 -1.09651e-16)
(-2.29664e-07 -6.00706e-07 -3.59853e-16)
(-1.47721e-07 -5.62866e-07 2.32559e-16)
(-6.68156e-08 -5.4581e-07 -3.41117e-16)
(-2.3026e-05 1.49141e-05 8.71042e-18)
(-2.34727e-05 1.53546e-05 4.41153e-18)
(-1.75731e-05 1.28941e-05 -1.27148e-17)
(-1.61145e-05 1.27331e-05 -1.3006e-17)
(-1.49816e-05 1.36315e-05 1.70482e-17)
(-1.35848e-05 1.40715e-05 -1.03029e-17)
(-1.35176e-05 1.38938e-05 6.75791e-18)
(-3.06933e-05 1.31278e-05 2.27005e-17)
(-0.000244316 1.18372e-05 -5.35331e-18)
(0.000176003 1.40239e-05 4.01525e-18)
(-1.08931e-05 -4.32317e-06 -2.04336e-18)
(7.77827e-05 2.76073e-05 3.06872e-18)
(-4.30053e-05 4.84313e-06 1.72367e-17)
(3.52713e-05 1.58165e-05 -6.90663e-18)
(1.86389e-05 1.32058e-05 -4.6723e-17)
(2.5654e-05 1.40294e-05 -1.85653e-17)
(2.32663e-05 1.37562e-05 -1.98422e-17)
(1.77221e-05 1.30762e-05 1.89736e-18)
(8.24262e-06 1.17537e-05 1.64513e-17)
(-2.39099e-06 1.00243e-05 -7.02441e-18)
(-9.45809e-06 9.73118e-06 2.5444e-17)
(-3.86453e-05 5.8015e-06 -4.14442e-17)
(-5.08283e-05 -6.18926e-06 7.03396e-17)
(-1.39524e-05 4.31884e-06 -6.2032e-17)
(6.36852e-06 9.34698e-06 -6.618e-17)
(-7.88509e-06 6.77392e-06 -2.12787e-17)
(-5.86031e-06 5.96955e-06 -7.6861e-18)
(-1.19731e-07 6.6335e-06 -6.1072e-18)
(-3.28705e-07 6.77574e-06 3.54612e-18)
(-1.49878e-06 6.75995e-06 -1.50714e-17)
(-2.32632e-06 6.61215e-06 -3.93142e-18)
(-2.68128e-06 6.34979e-06 3.74135e-17)
(-2.67834e-06 6.02043e-06 2.17179e-17)
(-2.54145e-06 5.68689e-06 5.66029e-18)
(-2.42318e-06 5.38235e-06 -7.04309e-17)
(-2.35959e-06 5.13333e-06 2.32037e-18)
(-2.33496e-06 4.92494e-06 -1.25418e-19)
(-2.31911e-06 4.73386e-06 2.11125e-18)
(-2.30503e-06 4.5239e-06 1.07958e-17)
(-2.29081e-06 4.30025e-06 2.22343e-18)
(-2.28046e-06 4.05387e-06 -7.26848e-18)
(-2.27563e-06 3.81203e-06 -6.64519e-18)
(-2.27829e-06 3.5597e-06 -1.5804e-17)
(-2.28633e-06 3.32158e-06 -3.74423e-18)
(-2.30163e-06 3.0756e-06 -2.92483e-18)
(-2.31991e-06 2.84048e-06 -1.62859e-17)
(-2.34239e-06 2.60236e-06 8.55923e-18)
(-2.36395e-06 2.37744e-06 -1.95195e-17)
(-2.38521e-06 2.15181e-06 -1.19923e-16)
(-2.40031e-06 1.94458e-06 8.39484e-17)
(-2.40923e-06 1.73933e-06 3.13534e-17)
(-2.40776e-06 1.54299e-06 -1.21248e-18)
(-2.39623e-06 1.35246e-06 1.51417e-17)
(-2.37236e-06 1.17287e-06 2.37728e-17)
(-2.3368e-06 9.97943e-07 -3.12961e-16)
(-2.29023e-06 8.3257e-07 -7.29798e-19)
(-2.23338e-06 6.77104e-07 5.12711e-17)
(-2.16715e-06 5.27476e-07 -2.57884e-17)
(-2.09213e-06 3.86099e-07 1.442e-16)
(-2.00782e-06 2.50037e-07 -6.93646e-16)
(-1.91855e-06 1.22324e-07 2.00748e-16)
(-1.81157e-06 -2.98327e-09 1.20474e-16)
(-1.70357e-06 -1.16381e-07 -8.051e-16)
(-1.57912e-06 -2.15917e-07 3.44081e-16)
(-1.44828e-06 -3.03515e-07 -3.097e-16)
(-1.31502e-06 -3.79748e-07 8.08278e-17)
(-1.19336e-06 -4.28237e-07 -1.95266e-16)
(-1.08397e-06 -4.66874e-07 2.04201e-16)
(-9.73601e-07 -5.02041e-07 1.47457e-16)
(-8.56683e-07 -5.27513e-07 -2.18764e-16)
(-7.38026e-07 -5.38053e-07 -3.43028e-16)
(-6.28405e-07 -5.47971e-07 -2.10689e-17)
(-5.35029e-07 -5.48042e-07 -4.79765e-16)
(-4.4823e-07 -5.53704e-07 -8.80592e-17)
(-3.74265e-07 -5.70109e-07 1.05398e-15)
(-2.99059e-07 -5.70651e-07 -2.66497e-16)
(-2.19523e-07 -5.60353e-07 8.22853e-16)
(-1.40277e-07 -5.27701e-07 -6.15642e-16)
(-6.2832e-08 -5.14467e-07 2.54883e-16)
(-2.97479e-05 2.40358e-05 -7.32053e-18)
(-2.66443e-05 2.24133e-05 1.28217e-18)
(-1.80481e-05 1.69687e-05 -1.95515e-18)
(-1.62672e-05 1.56313e-05 -5.7961e-18)
(-1.49973e-05 1.55071e-05 -1.81558e-17)
(-1.38159e-05 1.54643e-05 8.15819e-18)
(-1.25938e-05 1.50956e-05 2.43822e-18)
(-1.11272e-05 1.4225e-05 -1.87068e-17)
(1.54155e-05 1.40288e-05 3.65412e-18)
(-1.18183e-05 2.04817e-05 1.28885e-18)
(-1.31012e-05 1.2091e-05 2.86388e-18)
(-3.2316e-05 9.67902e-06 -1.32756e-18)
(1.14463e-06 8.35238e-06 -9.71546e-18)
(-1.2902e-05 8.62073e-06 -4.17634e-18)
(1.20874e-05 1.23673e-05 8.25369e-18)
(7.78244e-06 1.08319e-05 1.51338e-17)
(1.52124e-05 1.24959e-05 3.8165e-18)
(1.49816e-05 1.26147e-05 1.18448e-17)
(1.31422e-05 1.26786e-05 -2.26649e-17)
(7.79519e-06 1.22223e-05 6.807e-18)
(-1.72675e-06 1.09361e-05 1.30012e-17)
(-1.57458e-05 7.09918e-06 2.7392e-17)
(-2.32751e-05 5.0418e-06 -2.71622e-17)
(-1.49814e-05 7.14476e-06 -6.04788e-17)
(-6.28395e-06 8.76789e-06 4.2781e-17)
(-1.11872e-05 7.20249e-06 2.02243e-17)
(-1.03513e-05 5.88679e-06 1.94494e-18)
(-2.59626e-06 6.17372e-06 -2.86969e-18)
(7.9356e-07 6.50759e-06 4.90235e-18)
(1.25825e-06 6.59414e-06 1.61391e-17)
(7.60838e-07 6.49423e-06 -3.42451e-19)
(2.24896e-08 6.22038e-06 -2.45283e-17)
(-5.61557e-07 5.81423e-06 -3.44381e-17)
(-8.75185e-07 5.37431e-06 -2.31371e-17)
(-1.0038e-06 4.96332e-06 5.3194e-17)
(-1.02435e-06 4.63583e-06 1.6864e-17)
(-1.03689e-06 4.37108e-06 -8.39773e-18)
(-1.06701e-06 4.14933e-06 -1.29455e-18)
(-1.1072e-06 3.92758e-06 1.11951e-18)
(-1.15185e-06 3.70575e-06 -5.73252e-18)
(-1.19264e-06 3.47096e-06 -6.02655e-18)
(-1.23524e-06 3.23864e-06 3.9183e-18)
(-1.27856e-06 3.00294e-06 1.87035e-18)
(-1.327e-06 2.77854e-06 1.9084e-18)
(-1.37684e-06 2.55676e-06 -9.19826e-18)
(-1.42816e-06 2.35454e-06 -6.20169e-18)
(-1.47829e-06 2.15384e-06 5.53033e-17)
(-1.52595e-06 1.97198e-06 -8.4916e-18)
(-1.57068e-06 1.79389e-06 7.27723e-18)
(-1.61011e-06 1.62843e-06 -7.25694e-17)
(-1.64427e-06 1.46664e-06 -4.06185e-18)
(-1.6697e-06 1.31893e-06 -2.32856e-17)
(-1.68854e-06 1.17185e-06 7.35946e-17)
(-1.69793e-06 1.03005e-06 3.76509e-18)
(-1.69948e-06 8.93919e-07 -2.01336e-16)
(-1.69129e-06 7.61624e-07 9.98118e-17)
(-1.67469e-06 6.32953e-07 -1.07631e-17)
(-1.65015e-06 5.09051e-07 -1.4093e-16)
(-1.61633e-06 3.90589e-07 1.39824e-16)
(-1.57527e-06 2.7586e-07 1.96043e-16)
(-1.52434e-06 1.6588e-07 2.22766e-16)
(-1.46523e-06 6.01267e-08 -6.48493e-17)
(-1.39516e-06 -3.66382e-08 2.0168e-16)
(-1.31483e-06 -1.22268e-07 -3.05792e-16)
(-1.22645e-06 -1.98814e-07 3.08933e-17)
(-1.13001e-06 -2.70881e-07 -1.28284e-16)
(-1.04282e-06 -3.14967e-07 4.28135e-16)
(-9.55763e-07 -3.50812e-07 1.15585e-17)
(-8.72309e-07 -3.8021e-07 1.74915e-18)
(-7.81319e-07 -4.13534e-07 -3.62045e-16)
(-6.83597e-07 -4.37738e-07 1.26629e-16)
(-5.94763e-07 -4.48516e-07 8.95253e-17)
(-5.03565e-07 -4.72381e-07 5.12753e-16)
(-4.32083e-07 -4.9408e-07 1.15847e-16)
(-3.51815e-07 -5.14478e-07 -1.08904e-15)
(-2.7684e-07 -5.22785e-07 -2.84451e-16)
(-2.01919e-07 -5.18997e-07 -1.41964e-16)
(-1.27283e-07 -4.89173e-07 1.93983e-16)
(-5.6128e-08 -4.84451e-07 3.55135e-16)
(-2.42151e-05 2.36938e-05 -4.31917e-18)
(-1.9193e-05 2.21586e-05 -3.26214e-18)
(-1.05947e-05 1.6426e-05 9.26438e-18)
(-9.3536e-06 1.47227e-05 2.7699e-18)
(-8.32191e-06 1.38403e-05 -5.17844e-18)
(-7.51759e-06 1.33288e-05 -1.67398e-17)
(-6.93152e-06 1.29711e-05 -7.59538e-18)
(-6.8603e-06 1.23807e-05 1.33025e-17)
(-8.53295e-06 1.15796e-05 -8.5316e-18)
(-2.05461e-06 9.96589e-06 -1.11049e-17)
(-9.07728e-06 8.92806e-06 4.24126e-18)
(-0.000104865 8.374e-06 8.99521e-20)
(7.42622e-05 7.90925e-06 8.42732e-18)
(-1.52895e-05 1.83689e-07 -4.33743e-18)
(3.63037e-05 1.50477e-05 -1.51767e-18)
(-2.72431e-05 3.49479e-06 1.99294e-17)
(1.547e-05 9.92174e-06 3.48949e-17)
(2.49235e-06 8.17646e-06 -1.08187e-17)
(6.11009e-06 9.08396e-06 3.7796e-18)
(4.42109e-06 9.04736e-06 1.15128e-17)
(2.76299e-06 8.76213e-06 2.06499e-18)
(3.84882e-07 8.10343e-06 3.76957e-18)
(-3.28845e-06 7.51406e-06 5.94172e-18)
(-6.50955e-06 7.26349e-06 5.6812e-17)
(-7.17829e-06 6.99779e-06 2.01908e-17)
(-8.6261e-06 5.78078e-06 -4.37302e-19)
(-8.75772e-06 4.63279e-06 9.06411e-18)
(-5.18889e-06 4.21156e-06 1.20125e-18)
(-1.67672e-06 4.20527e-06 1.41976e-17)
(1.91871e-07 4.29398e-06 -1.93279e-18)
(9.47739e-07 4.35216e-06 -2.46188e-17)
(1.10074e-06 4.30531e-06 -2.72985e-17)
(9.27038e-07 4.11314e-06 1.81659e-17)
(7.55278e-07 3.88501e-06 8.53152e-18)
(2.20877e-07 3.59098e-06 -2.9168e-18)
(1.70379e-08 3.33164e-06 -3.0121e-18)
(-1.7982e-07 3.09247e-06 8.39917e-18)
(-2.82472e-07 2.9172e-06 8.84018e-18)
(-3.71278e-07 2.77525e-06 -8.44866e-18)
(-4.50303e-07 2.64409e-06 8.77144e-18)
(-5.22712e-07 2.49536e-06 1.29287e-17)
(-5.90568e-07 2.33889e-06 6.61338e-18)
(-6.52907e-07 2.17942e-06 -4.98335e-18)
(-7.09836e-07 2.03456e-06 -1.87432e-18)
(-7.6237e-07 1.89548e-06 -6.03618e-18)
(-8.10962e-07 1.76563e-06 1.63815e-17)
(-8.5694e-07 1.63552e-06 3.21879e-17)
(-8.98316e-07 1.5105e-06 -1.61325e-17)
(-9.38099e-07 1.38652e-06 1.66006e-17)
(-9.72924e-07 1.27423e-06 2.05188e-17)
(-1.00649e-06 1.16034e-06 2.91259e-17)
(-1.03476e-06 1.04782e-06 3.75308e-17)
(-1.06168e-06 9.35578e-07 -1.41501e-18)
(-1.08201e-06 8.28119e-07 2.11173e-17)
(-1.0993e-06 7.21933e-07 8.46177e-17)
(-1.10979e-06 6.19928e-07 -2.88201e-17)
(-1.11499e-06 5.19409e-07 -9.73921e-18)
(-1.11369e-06 4.20617e-07 1.52068e-16)
(-1.1059e-06 3.25085e-07 5.02326e-19)
(-1.09285e-06 2.32352e-07 1.22913e-16)
(-1.07135e-06 1.43408e-07 -3.3804e-16)
(-1.04477e-06 5.76129e-08 -1.05917e-16)
(-1.00792e-06 -2.05378e-08 -2.16655e-17)
(-9.65723e-07 -9.01755e-08 -2.08682e-16)
(-9.14809e-07 -1.52982e-07 9.67859e-17)
(-8.59343e-07 -2.12082e-07 6.35232e-17)
(-8.09033e-07 -2.54052e-07 -5.86201e-18)
(-7.52363e-07 -2.83502e-07 -1.60231e-16)
(-7.05657e-07 -3.16761e-07 -8.82206e-17)
(-6.43983e-07 -3.38453e-07 8.91906e-17)
(-5.80803e-07 -3.60223e-07 -5.30522e-17)
(-5.13918e-07 -3.86221e-07 -4.10586e-17)
(-4.51977e-07 -4.10297e-07 5.36244e-16)
(-3.83061e-07 -4.35913e-07 7.81872e-17)
(-3.15838e-07 -4.64465e-07 3.72235e-16)
(-2.4824e-07 -4.78356e-07 4.27185e-16)
(-1.82114e-07 -4.82782e-07 6.33054e-17)
(-1.17124e-07 -4.56846e-07 2.74044e-16)
(-5.3151e-08 -4.56535e-07 8.45758e-17)
(-7.67073e-06 2.16406e-05 -2.50625e-19)
(-2.52072e-06 1.99237e-05 -1.18084e-18)
(1.19185e-06 1.54865e-05 -1.29209e-18)
(1.32296e-06 1.3286e-05 -1.61018e-18)
(1.55581e-06 1.16305e-05 7.39525e-18)
(1.66722e-06 1.04123e-05 1.5058e-17)
(1.5937e-06 9.69903e-06 1.04077e-17)
(1.35781e-06 9.13984e-06 -4.59874e-18)
(1.24457e-06 8.54796e-06 5.16875e-18)
(1.59403e-06 7.92449e-06 1.59294e-17)
(7.09931e-07 6.84611e-06 -5.89828e-18)
(8.58577e-06 6.13032e-06 2.18752e-18)
(-1.45032e-06 7.80849e-06 6.86808e-18)
(-2.25658e-06 5.28643e-06 5.05417e-18)
(-5.45963e-06 3.63801e-06 6.2579e-19)
(-5.37982e-06 4.14817e-06 2.23278e-18)
(-2.10361e-06 4.13151e-06 -8.97073e-18)
(-2.07799e-06 4.0828e-06 9.39125e-18)
(-1.43439e-06 4.36113e-06 9.47045e-18)
(-2.13856e-06 4.60166e-06 -9.54495e-18)
(-2.25837e-06 4.91632e-06 -9.62218e-19)
(-2.24096e-06 5.12403e-06 3.41992e-18)
(-2.51369e-06 5.05807e-06 -9.63826e-18)
(-2.67568e-06 4.97556e-06 -3.93225e-17)
(-2.11541e-06 4.95827e-06 -3.34739e-17)
(-2.06864e-06 4.60966e-06 1.8859e-17)
(-2.55438e-06 4.00468e-06 -1.38618e-19)
(-1.97779e-06 3.49009e-06 3.41009e-18)
(-7.88299e-07 3.16011e-06 -2.71289e-17)
(-3.80119e-09 2.95753e-06 -3.44525e-17)
(2.22292e-07 2.80579e-06 -1.58421e-18)
(6.65972e-08 2.5148e-06 4.50896e-17)
(2.15508e-07 1.87762e-06 -1.78491e-17)
(3.64285e-06 2.75679e-06 -1.29396e-17)
(8.17437e-08 2.67235e-06 -2.48602e-18)
(1.31038e-06 2.65874e-06 6.13594e-18)
(7.16309e-07 2.3727e-06 -7.88413e-18)
(5.48525e-07 2.26289e-06 -4.54651e-19)
(2.95349e-07 2.16622e-06 5.01929e-18)
(1.44333e-07 2.10472e-06 -2.2659e-19)
(2.14227e-08 2.04204e-06 6.24799e-18)
(-8.43699e-08 1.97366e-06 -3.39807e-19)
(-1.73953e-07 1.88821e-06 3.30746e-18)
(-2.53379e-07 1.79149e-06 -4.77184e-19)
(-3.26241e-07 1.68266e-06 6.10642e-18)
(-3.92828e-07 1.57256e-06 -2.25817e-19)
(-4.55212e-07 1.45835e-06 -1.81359e-17)
(-5.11854e-07 1.35004e-06 -1.18374e-17)
(-5.65877e-07 1.23639e-06 -4.06735e-18)
(-6.15363e-07 1.12261e-06 2.26832e-17)
(-6.64554e-07 1.00506e-06 5.44994e-17)
(-7.08555e-07 8.98257e-07 -2.83241e-18)
(-7.51178e-07 7.9068e-07 -3.15022e-17)
(-7.87499e-07 6.91981e-07 2.11614e-17)
(-8.21757e-07 5.93944e-07 4.56234e-17)
(-8.49101e-07 5.00101e-07 -5.9167e-17)
(-8.73643e-07 4.05622e-07 9.77828e-17)
(-8.91149e-07 3.15713e-07 5.16389e-17)
(-9.03816e-07 2.27128e-07 1.26359e-17)
(-9.10085e-07 1.42496e-07 1.82647e-16)
(-9.09235e-07 6.12358e-08 7.42557e-17)
(-9.02337e-07 -1.50793e-08 -1.63555e-16)
(-8.85126e-07 -8.36757e-08 1.63333e-16)
(-8.63086e-07 -1.43813e-07 1.1108e-16)
(-8.30698e-07 -1.97035e-07 -1.69011e-16)
(-7.95644e-07 -2.4844e-07 2.13728e-17)
(-7.48706e-07 -2.78669e-07 -6.06062e-17)
(-7.16217e-07 -3.12835e-07 -1.39927e-16)
(-6.80901e-07 -3.28467e-07 -6.27121e-17)
(-6.33905e-07 -3.48401e-07 3.12417e-17)
(-5.88126e-07 -3.66655e-07 8.91004e-17)
(-5.28281e-07 -3.80192e-07 -9.96235e-17)
(-4.70554e-07 -4.04813e-07 -4.09935e-16)
(-4.03041e-07 -4.27844e-07 -1.06299e-16)
(-3.3689e-07 -4.52787e-07 1.96594e-16)
(-2.63517e-07 -4.66671e-07 -2.16238e-16)
(-1.94511e-07 -4.69082e-07 -3.47902e-16)
(-1.27834e-07 -4.37394e-07 -2.05655e-16)
(-6.18098e-08 -4.28257e-07 -3.34943e-16)
(7.62936e-06 1.16644e-05 1.08097e-18)
(9.78806e-06 1.11207e-05 5.43615e-18)
(7.97386e-06 9.71192e-06 -6.39444e-19)
(7.21724e-06 8.28622e-06 -2.31904e-18)
(6.71475e-06 7.00359e-06 -4.47256e-18)
(6.24053e-06 5.83921e-06 -5.83455e-18)
(5.72881e-06 5.07277e-06 -5.50399e-18)
(5.15841e-06 4.59774e-06 -4.19311e-18)
(4.56417e-06 4.29941e-06 -2.30858e-18)
(4.18369e-06 3.98833e-06 8.95914e-19)
(3.43501e-06 3.59608e-06 1.00328e-17)
(1.41347e-06 3.18425e-06 5.95321e-19)
(4.24162e-06 2.53796e-06 -5.61023e-19)
(1.86332e-06 2.02787e-06 -8.50927e-18)
(1.95915e-06 2.10437e-06 4.50353e-19)
(3.71705e-07 1.7362e-06 -1.84382e-18)
(8.0411e-07 1.7252e-06 -1.32338e-17)
(-2.78057e-07 1.60456e-06 -3.80941e-18)
(-8.08179e-07 1.63099e-06 -6.20756e-19)
(-2.33326e-06 1.65838e-06 6.34982e-18)
(-3.9884e-06 1.80684e-06 5.09662e-18)
(-5.39005e-06 1.99059e-06 -5.21099e-18)
(-6.04978e-06 2.18951e-06 -9.7097e-18)