/*--------------------------------*- C++ -*----------------------------------*\
| =========                 |                                                 |
| \\      /  F ield         | OpenFOAM: The Open Source CFD Toolbox           |
|  \\    /   O peration     | Version:  2306                                  |
|   \\  /    A nd           | Website:  www.openfoam.com                      |
|    \\/     M anipulation  |                                                 |
\*---------------------------------------------------------------------------*/
FoamFile
{
    version     2.0;
    format      ascii;
    arch        "LSB;label=32;scalar=64";
    class       volScalarField;
    location    "525";
    object      nuTilda;
}
// * * * * * * * * * * * * * * * * * * * * * * * * * * * * * * * * * * * * * //

dimensions      [0 2 -1 0 0 0 0];

internalField   nonuniform List<scalar> 
1340
(
4.00638e-05
4.00652e-05
4.00644e-05
4.00292e-05
4.00664e-05
4.00652e-05
4.00255e-05
4.0029e-05
4.00676e-05
4.00662e-05
4.00087e-05
4.00129e-05
4.00252e-05
4.00288e-05
4.00689e-05
4.00673e-05
4.00182e-05
4.00101e-05
4.00086e-05
4.00128e-05
4.0025e-05
4.00286e-05
4.00703e-05
4.00686e-05
4.0042e-05
4.00349e-05
4.00271e-05
4.0019e-05
4.00106e-05
4.00086e-05
4.00126e-05
4.00248e-05
4.00283e-05
4.00717e-05
4.00701e-05
4.00594e-05
4.00541e-05
4.00492e-05
4.00431e-05
4.0036e-05
4.0028e-05
4.00198e-05
4.00111e-05
4.00086e-05
4.00125e-05
4.00246e-05
4.0028e-05
4.00732e-05
4.00718e-05
4.00826e-05
4.00787e-05
4.00736e-05
4.00673e-05
4.00608e-05
4.00554e-05
4.00504e-05
4.00443e-05
4.00371e-05
4.0029e-05
4.00206e-05
4.00117e-05
4.00086e-05
4.00123e-05
4.00244e-05
4.00276e-05
4.00747e-05
4.00736e-05
4.00945e-05
4.00931e-05
4.00914e-05
4.00894e-05
4.00871e-05
4.00842e-05
4.00803e-05
4.00752e-05
4.00689e-05
4.00623e-05
4.00567e-05
4.00517e-05
4.00456e-05
4.00383e-05
4.003e-05
4.00216e-05
4.00123e-05
4.00086e-05
4.00121e-05
4.00242e-05
4.00271e-05
4.00762e-05
4.00756e-05
4.00992e-05
4.00992e-05
4.00991e-05
4.0099e-05
4.00986e-05
4.00981e-05
4.00973e-05
4.00962e-05
4.00948e-05
4.00931e-05
4.00911e-05
4.00888e-05
4.00859e-05
4.00821e-05
4.0077e-05
4.00706e-05
4.00639e-05
4.00582e-05
4.00531e-05
4.0047e-05
4.00396e-05
4.00312e-05
4.00225e-05
4.0013e-05
4.00087e-05
4.00119e-05
4.00239e-05
4.00266e-05
4.00778e-05
4.00779e-05
4.01021e-05
4.01035e-05
4.01032e-05
4.01027e-05
4.01023e-05
4.01018e-05
4.01014e-05
4.01012e-05
4.01011e-05
4.0101e-05
4.0101e-05
4.01009e-05
4.01009e-05
4.01008e-05
4.01008e-05
4.01007e-05
4.01004e-05
4.00998e-05
4.00991e-05
4.0098e-05
4.00966e-05
4.00949e-05
4.00929e-05
4.00906e-05
4.00877e-05
4.00839e-05
4.00789e-05
4.00725e-05
4.00656e-05
4.00597e-05
4.00546e-05
4.00484e-05
4.00409e-05
4.00324e-05
4.00236e-05
4.00138e-05
4.00089e-05
4.00116e-05
4.00237e-05
4.0026e-05
4.00794e-05
4.00803e-05
4.42369e-06
1.16853e-06
0
0
0.000155489
0.000456828
0.0161112
0.0551934
0.112663
0.176087
0.23551
0.285618
0.324075
0.350415
0.365813
0.372617
0.373749
0.362751
0.330895
0.272107
0.189
0.0998071
0.0333253
0.00208248
0.000574951
0
0
0
4.98471e-06
1.96536e-05
4.02862e-05
4.33259e-05
4.07066e-05
3.96946e-05
3.99336e-05
4.01365e-05
4.01373e-05
4.0112e-05
4.01081e-05
4.01074e-05
4.01048e-05
4.01034e-05
4.01034e-05
4.01033e-05
4.01031e-05
4.01029e-05
4.01028e-05
4.01027e-05
4.01027e-05
4.01026e-05
4.01026e-05
4.01025e-05
4.01024e-05
4.01022e-05
4.01017e-05
4.01009e-05
4.00998e-05
4.00985e-05
4.00968e-05
4.00948e-05
4.00924e-05
4.00896e-05
4.00858e-05
4.00808e-05
4.00744e-05
4.00674e-05
4.00614e-05
4.00562e-05
4.00499e-05
4.00424e-05
4.00337e-05
4.00247e-05
4.00147e-05
4.00091e-05
4.00114e-05
4.00234e-05
4.00254e-05
4.00809e-05
4.00829e-05
4.039e-05
8.52753e-06
2.23056e-06
0
0
4.79426e-06
0.00209061
0.00821521
0.0366839
0.0875625
0.150378
0.213178
0.268279
0.311929
0.342838
0.36158
0.370721
0.372993
0.36436
0.336087
0.281257
0.201221
0.11219
0.0400095
0.00369229
0.00102464
0
0
0
3.23711e-06
1.21636e-05
3.8165e-05
4.44129e-05
4.16123e-05
3.98423e-05
3.98599e-05
4.00985e-05
4.01203e-05
4.00945e-05
4.00998e-05
4.01097e-05
4.01095e-05
4.01061e-05
4.01047e-05
4.01047e-05
4.01048e-05
4.01047e-05
4.01046e-05
4.01045e-05
4.01045e-05
4.01044e-05
4.01044e-05
4.01043e-05
4.0104e-05
4.01036e-05
4.01028e-05
4.01018e-05
4.01004e-05
4.00987e-05
4.00967e-05
4.00944e-05
4.00916e-05
4.00879e-05
4.00829e-05
4.00764e-05
4.00693e-05
4.00632e-05
4.00578e-05
4.00516e-05
4.00439e-05
4.00351e-05
4.0026e-05
4.00156e-05
4.00094e-05
4.00111e-05
4.00231e-05
4.00248e-05
4.00824e-05
4.00856e-05
4.33678e-05
4.05089e-05
1.38356e-05
3.60121e-06
0
0
0
0.000625215
0.00229434
0.021216
0.0633324
0.122986
0.187862
0.247787
0.297032
0.333187
0.356237
0.368287
0.371875
0.36553
0.340763
0.289976
0.213179
0.124015
0.0476287
0.00672857
0.00181239
0
0
0
8.83112e-07
2.20628e-06
3.2314e-05
4.36781e-05
4.21683e-05
4.00204e-05
3.98662e-05
4.01837e-05
4.0214e-05
4.01224e-05
4.00873e-05
4.00985e-05
4.01094e-05
4.01099e-05
4.01074e-05
4.01064e-05
4.01064e-05
4.01065e-05
4.01065e-05
4.01064e-05
4.01064e-05
4.01063e-05
4.01062e-05
4.0106e-05
4.01056e-05
4.01049e-05
4.01039e-05
4.01025e-05
4.01008e-05
4.00988e-05
4.00965e-05
4.00937e-05
4.009e-05
4.00851e-05
4.00786e-05
4.00714e-05
4.0065e-05
4.00596e-05
4.00533e-05
4.00456e-05
4.00366e-05
4.00273e-05
4.00167e-05
4.00097e-05
4.00109e-05
4.00228e-05
4.00242e-05
4.00839e-05
4.00886e-05
4.03585e-05
4.30389e-05
4.0484e-05
2.03426e-05
5.28617e-06
0
0
0
2.55767e-05
0.00262518
0.0102354
0.0421247
0.0955613
0.160485
0.224648
0.279759
0.321736
0.34965
0.364945
0.369949
0.365757
0.34442
0.29776
0.224293
0.135228
0.0555157
0.0102192
0.00269909
0
0
0
7.62182e-08
7.30153e-06
2.93505e-05
4.31443e-05
4.28079e-05
3.98832e-05
3.926e-05
3.98409e-05
4.02104e-05
4.0209e-05
4.01251e-05
4.00952e-05
4.01019e-05
4.01096e-05
4.01103e-05
4.01089e-05
4.01084e-05
4.01084e-05
4.01085e-05
4.01084e-05
4.01084e-05
4.01083e-05
4.01081e-05
4.01077e-05
4.0107e-05
4.0106e-05
4.01047e-05
4.0103e-05
4.0101e-05
4.00987e-05
4.00959e-05
4.00923e-05
4.00874e-05
4.00809e-05
4.00735e-05
4.0067e-05
4.00615e-05
4.00551e-05
4.00474e-05
4.00382e-05
4.00287e-05
4.00178e-05
4.00102e-05
4.00106e-05
4.00224e-05
4.00235e-05
4.00852e-05
4.00916e-05
3.99243e-05
4.03204e-05
4.2444e-05
4.06845e-05
2.88586e-05
7.39121e-06
1.11633e-07
0
0
0
0.000949575
0.00357127
0.0244648
0.0682902
0.129657
0.196604
0.258183
0.30762
0.34215
0.362035
0.369473
0.367091
0.348903
0.306466
0.236547
0.148141
0.0650897
0.0135442
0.00395243
0.000132213
0
0
0
5.77399e-06
2.25475e-05
4.14449e-05
4.58532e-05
4.26595e-05
3.99634e-05
3.94813e-05
3.98859e-05
4.01587e-05
4.01774e-05
4.0126e-05
4.01039e-05
4.01065e-05
4.01112e-05
4.01116e-05
4.01108e-05
4.01105e-05
4.01105e-05
4.01105e-05
4.01104e-05
4.01103e-05
4.01099e-05
4.01093e-05
4.01083e-05
4.0107e-05
4.01054e-05
4.01033e-05
4.0101e-05
4.00982e-05
4.00946e-05
4.00898e-05
4.00834e-05
4.00759e-05
4.00692e-05
4.00635e-05
4.00571e-05
4.00493e-05
4.004e-05
4.00302e-05
4.00191e-05
4.00107e-05
4.00104e-05
4.00221e-05
4.00228e-05
4.00866e-05
4.00949e-05
4.01266e-05
4.00034e-05
4.02544e-05
4.12598e-05
4.10317e-05
3.694e-05
1.58336e-05
4.16229e-06
3.47804e-08
0
0
3.32176e-05
0.00247483
0.00948566
0.035254
0.080566
0.140514
0.205011
0.264248
0.311542
0.343841
0.361343
0.364861
0.354174
0.322604
0.265224
0.186307
0.10271
0.0405648
0.00590303
0.00197119
5.31335e-05
0
0
6.78813e-07
5.15319e-06
1.76048e-05
3.68956e-05
4.39888e-05
4.27337e-05
4.04067e-05
3.96531e-05
3.98716e-05
4.01219e-05
4.01638e-05
4.01263e-05
4.01074e-05
4.01096e-05
4.01136e-05
4.0114e-05
4.01133e-05
4.01131e-05
4.01131e-05
4.0113e-05
4.01127e-05
4.01121e-05
4.01112e-05
4.01099e-05
4.01083e-05
4.01063e-05
4.01039e-05
4.01011e-05
4.00976e-05
4.00929e-05
4.00865e-05
4.00788e-05
4.00719e-05
4.0066e-05
4.00595e-05
4.00516e-05
4.00421e-05
4.0032e-05
4.00206e-05
4.00115e-05
4.00102e-05
4.00217e-05
4.00222e-05
4.00878e-05
4.00984e-05
4.01311e-05
4.01268e-05
4.00267e-05
4.012e-05
4.05896e-05
4.20614e-05
4.00176e-05
3.32671e-05
5.61799e-06
1.56152e-06
0
0
0
7.65008e-05
0.00231276
0.00855877
0.0315885
0.0738203
0.131387
0.195283
0.255493
0.304478
0.33842
0.356341
0.358317
0.34249
0.302911
0.238037
0.158252
0.0823194
0.0297262
0.0026075
0.000953915
0
0
0
4.63542e-07
5.37684e-06
2.0081e-05
3.83304e-05
4.41693e-05
4.23391e-05
4.01497e-05
3.96771e-05
3.99727e-05
4.01643e-05
4.01598e-05
4.01202e-05
4.01106e-05
4.01152e-05
4.01176e-05
4.01172e-05
4.01166e-05
4.01164e-05
4.01161e-05
4.01156e-05
4.01147e-05
4.01135e-05
4.01119e-05
4.01099e-05
4.01074e-05
4.01046e-05
4.01011e-05
4.00965e-05
4.00901e-05
4.00823e-05
4.00751e-05
4.0069e-05
4.00623e-05
4.00543e-05
4.00446e-05
4.00342e-05
4.00224e-05
4.00125e-05
4.00099e-05
4.00213e-05
4.00215e-05
4.0089e-05
4.01021e-05
4.01104e-05
4.01206e-05
4.01111e-05
4.00722e-05
4.00523e-05
4.03969e-05
4.12768e-05
4.21274e-05
3.85922e-05
2.51271e-05
6.51124e-06
8.75437e-08
0
0
0
7.29049e-05
0.00202488
0.00741834
0.0294679
0.0707334
0.127817
0.191954
0.252952
0.302742
0.336809
0.352896
0.35075
0.32684
0.277281
0.206166
0.127505
0.0595728
0.0166619
0.00468983
0.000137472
0
0
0
5.57406e-07
6.9638e-06
2.7131e-05
4.19206e-05
4.37281e-05
4.11178e-05
3.97032e-05
3.9773e-05
4.00912e-05
4.01742e-05
4.0138e-05
4.01147e-05
4.01155e-05
4.01194e-05
4.01202e-05
4.01201e-05
4.01199e-05
4.01193e-05
4.01185e-05
4.01173e-05
4.01157e-05
4.01136e-05
4.01112e-05
4.01084e-05
4.01049e-05
4.01003e-05
4.0094e-05
4.00861e-05
4.00786e-05
4.00722e-05
4.00653e-05
4.00572e-05
4.00473e-05
4.00366e-05
4.00244e-05
4.00136e-05
4.00098e-05
4.00208e-05
4.00209e-05
4.009e-05
4.01058e-05
4.01069e-05
4.01118e-05
4.01101e-05
4.00927e-05
4.00414e-05
4.01837e-05
4.06423e-05
4.20258e-05
4.13516e-05
3.61543e-05
1.33642e-05
3.52542e-06
0
0
0
0
6.67266e-05
0.00201253
0.00739909
0.0295911
0.071237
0.128961
0.193894
0.255425
0.304718
0.33666
0.347864
0.33847
0.304601
0.245811
0.17058
0.094689
0.0376019
0.00637825
0.00190341
1.2938e-05
0
0
0
3.80126e-06
1.39629e-05
3.61078e-05
4.42108e-05
4.25102e-05
4.01682e-05
3.96796e-05
3.99879e-05
4.01678e-05
4.01604e-05
4.01291e-05
4.01228e-05
4.01242e-05
4.01237e-05
4.0123e-05
4.01228e-05
4.01224e-05
4.01213e-05
4.01197e-05
4.01176e-05
4.01151e-05
4.01123e-05
4.01088e-05
4.01043e-05
4.00981e-05
4.00901e-05
4.00824e-05
4.00756e-05
4.00685e-05
4.00603e-05
4.00502e-05
4.00391e-05
4.00266e-05
4.0015e-05
4.00098e-05
4.00202e-05
4.00202e-05
4.00908e-05
4.01096e-05
4.01042e-05
4.01054e-05
4.01073e-05
4.01112e-05
4.00945e-05
4.0071e-05
4.00315e-05
4.03489e-05
4.11096e-05
4.22394e-05
4.00121e-05
2.84513e-05
7.35033e-06
9.79941e-08
0
0
0
0
7.0279e-05
0.00225513
0.0083808
0.0320433
0.0754856
0.135
0.200997
0.26216
0.308918
0.335918
0.340343
0.321258
0.27631
0.208667
0.131525
0.0628995
0.0189873
0.000568903
0.000262485
0
0
0
4.97483e-07
4.05134e-07
2.78039e-05
4.22145e-05
4.35212e-05
4.08486e-05
3.97031e-05
3.9862e-05
4.01126e-05
4.01475e-05
4.01227e-05
4.0122e-05
4.01297e-05
4.01304e-05
4.01278e-05
4.01261e-05
4.01251e-05
4.01238e-05
4.01218e-05
4.01193e-05
4.01164e-05
4.01129e-05
4.01085e-05
4.01024e-05
4.00944e-05
4.00864e-05
4.00793e-05
4.0072e-05
4.00636e-05
4.00534e-05
4.00419e-05
4.0029e-05
4.00166e-05
4.00099e-05
4.00196e-05
4.00195e-05
4.00914e-05
4.01133e-05
4.01041e-05
4.01045e-05
4.01049e-05
4.01066e-05
4.01084e-05
4.01052e-05
4.00799e-05
4.00343e-05
4.011e-05
4.05109e-05
4.17906e-05
4.16635e-05
3.69217e-05
1.41305e-05
3.7403e-06
1.20823e-08
0
0
0
0
8.40719e-05
0.0025909
0.00965742
0.0367568
0.0836161
0.145891
0.212743
0.271992
0.314087
0.33337
0.328504
0.29751
0.240522
0.166081
0.0912029
0.0355531
0.00569752
0.00165804
2.12843e-05
0
0
1.19535e-08
4.90266e-06
1.891e-05
3.91079e-05
4.41614e-05
4.17941e-05
3.99709e-05
3.98887e-05
4.01744e-05
4.02103e-05
4.01378e-05
4.01109e-05
4.01219e-05
4.01317e-05
4.01324e-05
4.01301e-05
4.01281e-05
4.01262e-05
4.01237e-05
4.01208e-05
4.01173e-05
4.0113e-05
4.0107e-05
4.00991e-05
4.00909e-05
4.00834e-05
4.00757e-05
4.00672e-05
4.00568e-05
4.0045e-05
4.00316e-05
4.00185e-05
4.00101e-05
4.0019e-05
4.00187e-05
4.00916e-05
4.01169e-05
4.01047e-05
4.0105e-05
4.01054e-05
4.01057e-05
4.01068e-05
4.01081e-05
4.01101e-05
4.00937e-05
4.00644e-05
4.00085e-05
4.02554e-05
4.0916e-05
4.23519e-05
3.93931e-05
3.10292e-05
1.64782e-06
5.71679e-07
0
0
0
0
0
0.0001024
0.00338614
0.0127907
0.0445743
0.0963795
0.1618
0.228553
0.283695
0.318285
0.3272
0.310099
0.265293
0.197227
0.120708
0.0546749
0.014491
0.000882991
0.000282376
0
0
0
2.46768e-06
8.79753e-06
3.33942e-05
4.36651e-05
4.22952e-05
3.97378e-05
3.93993e-05
3.99777e-05
4.02606e-05
4.02229e-05
4.01465e-05
4.01257e-05
4.01306e-05
4.01341e-05
4.01332e-05
4.01309e-05
4.01283e-05
4.01253e-05
4.01218e-05
4.01175e-05
4.01117e-05
4.01039e-05
4.00955e-05
4.00877e-05
4.00796e-05
4.0071e-05
4.00603e-05
4.00482e-05
4.00344e-05
4.00206e-05
4.00106e-05
4.00184e-05
4.00179e-05
4.00918e-05
4.01204e-05
4.01058e-05
4.01061e-05
4.01064e-05
4.01068e-05
4.01071e-05
4.01075e-05
4.01093e-05
4.01106e-05
4.01084e-05
4.00813e-05
4.00368e-05
4.00493e-05
4.0527e-05
4.15374e-05
4.21544e-05
3.67183e-05
2.19416e-05
5.71471e-06
1.27465e-07
0
0
0
0
0
0.000572796
0.00184626
0.0186371
0.056444
0.114158
0.182313
0.246887
0.294776
0.317931
0.313729
0.280869
0.221251
0.145979
0.0740597
0.0255727
0.00322324
0.00074542
0
0
0
2.75572e-07
7.04585e-06
2.80741e-05
4.45192e-05
4.58767e-05
4.15815e-05
3.94455e-05
3.9521e-05
4.00074e-05
4.01858e-05
4.01728e-05
4.01437e-05
4.01366e-05
4.01369e-05
4.0136e-05
4.01336e-05
4.01305e-05
4.0127e-05
4.01227e-05
4.01171e-05
4.01093e-05
4.0101e-05
4.00928e-05
4.00843e-05
4.00753e-05
4.00645e-05
4.00522e-05
4.00378e-05
4.00234e-05
4.00116e-05
4.00176e-05
4.00169e-05
4.00908e-05
4.0124e-05
4.01067e-05
4.0107e-05
4.01073e-05
4.01077e-05
4.01081e-05
4.01084e-05
4.01088e-05
4.01098e-05
4.01116e-05
4.01134e-05
4.01009e-05
4.00644e-05
4.00085e-05
4.0238e-05
4.09284e-05
4.2353e-05
4.08625e-05
3.40882e-05
1.63817e-05
4.33506e-06
1.26179e-07
0
0
0
0
2.07868e-05
0.00152803
0.00563512
0.0284688
0.0743032
0.139091
0.210454
0.272567
0.312598
0.322592
0.30158
0.249456
0.173986
0.0943822
0.031021
0.00927902
0.00105613
0.000450647
0.00015144
3.01513e-05
0
1.14854e-06
1.03306e-06
3.1727e-05
4.40189e-05
4.38638e-05
4.1116e-05
3.99896e-05
3.99671e-05
4.01092e-05
4.01532e-05
4.01484e-05
4.01419e-05
4.01395e-05
4.01374e-05
4.01345e-05
4.01309e-05
4.01267e-05
4.01212e-05
4.01136e-05
4.01052e-05
4.00968e-05
4.00879e-05
4.00787e-05
4.00678e-05
4.00551e-05
4.00405e-05
4.00252e-05
4.00123e-05
4.00175e-05
4.00163e-05
4.00919e-05
4.01266e-05
4.01076e-05
4.01081e-05
4.01085e-05
4.01089e-05
4.01094e-05
4.01099e-05
4.01103e-05
4.01109e-05
4.01114e-05
4.01133e-05
4.01152e-05
4.01166e-05
4.00895e-05
4.00516e-05
4.00216e-05
4.04445e-05
4.13912e-05
4.23482e-05
4.04464e-05
3.37341e-05
1.53176e-05
3.7997e-06
0
0
0
0
0
6.71695e-05
0.00173117
0.00593913
0.027641
0.0690092
0.125971
0.188264
0.242907
0.278904
0.288041
0.26768
0.219477
0.153547
0.0889295
0.0431273
0.0174915
0.00558783
0.00105782
0.000239874
0
3.44506e-08
5.39858e-06
2.04395e-05
3.52566e-05
4.04781e-05
4.08077e-05
4.03234e-05
4.01368e-05
4.0134e-05
4.01497e-05
4.01519e-05
4.01495e-05
4.01468e-05
4.01438e-05
4.01402e-05
4.0136e-05
4.01306e-05
4.01234e-05
4.01151e-05
4.01064e-05
4.00967e-05
4.00868e-05
4.00754e-05
4.00625e-05
4.00468e-05
4.00309e-05
4.00148e-05
4.00174e-05
4.0015e-05
4.00869e-05
4.01332e-05
)
;

boundaryField
{
    inlet
    {
        type            freestream;
        freestreamValue uniform 4e-05;
        value           nonuniform List<scalar> 
27
(
4.00638e-05
4.00644e-05
4.00652e-05
4.00662e-05
4.00673e-05
4.00686e-05
4.00701e-05
4.00718e-05
4.00736e-05
4.00756e-05
4.00779e-05
4.00803e-05
4.00829e-05
4.00856e-05
4.00886e-05
4.00916e-05
4.00949e-05
4.00984e-05
4.01021e-05
4.01058e-05
4.01096e-05
4.01133e-05
4.01169e-05
4.01204e-05
4.0124e-05
4.01266e-05
4.01332e-05
)
;
    }
    outlet
    {
        type            freestream;
        freestreamValue uniform 4e-05;
        value           nonuniform List<scalar> 
78
(
4.01076e-05
4.01081e-05
4.01085e-05
4.01089e-05
4.01094e-05
4.01099e-05
4.01103e-05
4.01109e-05
4.01114e-05
4.01133e-05
4.01152e-05
4.01166e-05
4.00895e-05
4.00516e-05
4.00216e-05
4.04445e-05
4.13912e-05
4.23482e-05
4.04464e-05
3.37341e-05
1.53176e-05
3.7997e-06
0
0
0
0
0
6.71695e-05
0.00173117
0.00593913
0.027641
0.0690092
0.125971
0.188264
0.242907
0.278904
0.288041
0.26768
0.219477
0.153547
0.0889295
0.0431273
0.0174915
0.00558783
0.00105782
0.000239874
0
3.44506e-08
5.39858e-06
2.04395e-05
3.52566e-05
4.04781e-05
4.08077e-05
4.03234e-05
4.01368e-05
4.0134e-05
4.01497e-05
4.01519e-05
4.01495e-05
4.01468e-05
4.01438e-05
4.01402e-05
4.0136e-05
4.01306e-05
4.01234e-05
4.01151e-05
4.01064e-05
4.00967e-05
4.00868e-05
4.00754e-05
4.00625e-05
4.00468e-05
4.00309e-05
4.00148e-05
4.00174e-05
4.0015e-05
4.00869e-05
4.01332e-05
)
;
    }
    walls
    {
        type            fixedValue;
        value           nonuniform List<scalar> 0();
    }
    frontAndBack
    {
        type            empty;
    }
    procBoundary7to3
    {
        type            processor;
        value           nonuniform List<scalar> 
16
(
3.94355e-05
4.33034e-05
4.04928e-05
3.99078e-05
4.01143e-05
4.01426e-05
4.01173e-05
4.01084e-05
4.01054e-05
4.01054e-05
4.01039e-05
4.01037e-05
4.01044e-05
4.01055e-05
4.01063e-05
4.01073e-05
)
;
    }
    procBoundary7to6
    {
        type            processor;
        value           nonuniform List<scalar> 
91
(
4.00634e-05
4.00641e-05
4.00641e-05
4.00293e-05
4.00293e-05
4.00257e-05
4.00257e-05
4.00088e-05
4.0013e-05
4.0013e-05
4.00175e-05
4.00097e-05
4.00097e-05
4.00409e-05
4.00339e-05
4.00262e-05
4.00262e-05
4.00581e-05
4.00528e-05
4.0048e-05
4.0048e-05
4.0081e-05
4.00771e-05
4.0072e-05
4.00658e-05
4.00658e-05
4.00929e-05
4.00915e-05
4.00898e-05
4.00878e-05
4.00855e-05
4.00855e-05
4.00976e-05
4.00976e-05
4.00975e-05
4.00974e-05
4.0097e-05
4.00964e-05
4.00956e-05
4.00956e-05
4.01038e-05
4.01027e-05
4.01016e-05
4.01008e-05
4.01003e-05
4.00999e-05
4.00996e-05
4.00995e-05
4.00994e-05
4.00993e-05
4.00993e-05
4.00993e-05
4.00993e-05
3.75382e-08
0
0
0.00119365
0.00467784
0.02879
0.0763099
0.137211
0.199168
0.254604
0.299951
0.333765
0.356179
0.368979
0.374735
0.374524
0.360826
0.325199
0.26251
0.176666
0.0877993
0.0253897
0.000511606
0.000172722
0
0
0
6.18678e-06
2.46124e-05
4.14569e-05
4.27199e-05
4.04115e-05
3.97993e-05
4.00353e-05
4.01489e-05
4.01239e-05
4.01026e-05
4.01026e-05
)
;
    }
}


// ************************************************************************* //
