/*--------------------------------*- C++ -*----------------------------------*\
| =========                 |                                                 |
| \\      /  F ield         | OpenFOAM: The Open Source CFD Toolbox           |
|  \\    /   O peration     | Version:  2306                                  |
|   \\  /    A nd           | Website:  www.openfoam.com                      |
|    \\/     M anipulation  |                                                 |
\*---------------------------------------------------------------------------*/
FoamFile
{
    version     2.0;
    format      ascii;
    arch        "LSB;label=32;scalar=64";
    class       volSymmTensorField;
    location    "525";
    object      turbulenceProperties:devReff;
}
// * * * * * * * * * * * * * * * * * * * * * * * * * * * * * * * * * * * * * //

dimensions      [0 2 -2 0 0 0 0];

internalField   nonuniform List<symmTensor> 
1340
(
(1.51568e-07 3.94314e-08 -6.5253e-20 -2.16656e-07 -6.69224e-21 6.50879e-08)
(-1.07023e-07 -3.1301e-08 -6.43282e-20 1.62262e-07 -8.10173e-21 -5.52388e-08)
(1.5554e-07 4.35076e-08 3.39364e-20 -2.19593e-07 3.37365e-21 6.40528e-08)
(1.0221e-07 6.49887e-08 3.4538e-19 -1.47565e-07 3.8311e-20 4.53555e-08)
(-9.25693e-08 -3.37647e-08 8.53804e-23 1.52868e-07 -2.99037e-22 -6.02982e-08)
(1.43136e-07 5.17127e-08 -7.59518e-22 -2.14832e-07 1.79412e-22 7.16961e-08)
(-1.62352e-08 2.84922e-08 -1.75616e-19 4.88113e-08 -2.08148e-20 -3.25761e-08)
(9.9609e-08 6.07548e-08 5.64176e-21 -1.46633e-07 1.17725e-21 4.70242e-08)
(-8.39661e-08 -3.49506e-08 7.68616e-20 1.46637e-07 9.50336e-21 -6.26705e-08)
(1.37846e-07 5.57717e-08 -1.54177e-19 -2.13123e-07 -1.58505e-20 7.52768e-08)
(2.98855e-08 4.9059e-08 -4.19252e-19 -1.51924e-08 -4.85475e-20 -1.46931e-08)
(7.13494e-08 5.93794e-08 -2.29483e-19 -9.37005e-08 -2.54224e-20 2.23511e-08)
(-1.42973e-08 2.81719e-08 7.75136e-20 4.7217e-08 9.12894e-21 -3.29197e-08)
(9.9605e-08 5.57299e-08 -1.14383e-19 -1.46909e-07 -1.2715e-20 4.73038e-08)
(-7.94145e-08 -3.48022e-08 -3.23855e-19 1.42545e-07 -4.00646e-20 -6.31301e-08)
(1.3792e-07 5.75353e-08 1.48008e-19 -2.13981e-07 1.48771e-20 7.60611e-08)
(5.94312e-08 6.01893e-08 6.19689e-20 -5.33911e-08 7.13147e-21 -6.04008e-09)
(6.91775e-08 6.19025e-08 -1.65701e-20 -7.87268e-08 -1.96779e-21 9.54934e-09)
(3.04716e-08 4.65703e-08 1.6128e-21 -1.5553e-08 -2.95629e-22 -1.49185e-08)
(7.20502e-08 5.44423e-08 7.68301e-22 -9.45513e-08 -1.15869e-22 2.25011e-08)
(-1.25731e-08 2.78112e-08 5.4535e-20 4.57294e-08 6.55779e-21 -3.31563e-08)
(9.95121e-08 5.08401e-08 -5.77898e-21 -1.47123e-07 -8.98143e-22 4.7611e-08)
(-7.51758e-08 -3.46443e-08 1.95195e-22 1.38945e-07 -1.68191e-23 -6.37697e-08)
(1.37724e-07 5.91184e-08 -5.6202e-22 -2.14801e-07 1.33584e-22 7.70767e-08)
(9.5069e-08 6.72713e-08 -1.39452e-19 -9.6394e-08 -1.61978e-20 1.32505e-09)
(8.18308e-08 6.34801e-08 -1.77821e-19 -7.95629e-08 -2.02186e-20 -2.26795e-09)
(7.92502e-08 6.27939e-08 -2.22728e-19 -8.29865e-08 -2.48417e-20 3.73636e-09)
(5.91374e-08 5.58368e-08 -9.05326e-20 -5.29943e-08 -9.83401e-21 -6.1431e-09)
(6.94243e-08 5.70206e-08 1.0061e-20 -7.91538e-08 1.4787e-21 9.72942e-09)
(3.09e-08 4.40098e-08 1.70521e-19 -1.58167e-08 1.96321e-20 -1.50833e-08)
(7.23601e-08 4.96648e-08 3.53624e-20 -9.51027e-08 3.71622e-21 2.27427e-08)
(-1.07619e-08 2.72034e-08 -1.22266e-19 4.42428e-08 -1.42992e-20 -3.34809e-08)
(9.89004e-08 4.64133e-08 1.0973e-19 -1.4712e-07 1.20871e-20 4.82198e-08)
(-7.07626e-08 -3.48336e-08 1.81478e-22 1.35623e-07 -1.13085e-22 -6.48604e-08)
(1.36402e-07 6.05838e-08 2.78031e-22 -2.15181e-07 -6.18798e-23 7.8779e-08)
(1.20992e-07 6.04218e-08 -3.29546e-20 -1.2084e-07 -3.15421e-21 -1.52703e-10)
(1.10596e-07 6.16438e-08 1.63746e-19 -1.11118e-07 1.80378e-20 5.22303e-10)
(9.99469e-08 6.10951e-08 1.90363e-20 -9.9076e-08 1.88847e-21 -8.70903e-10)
(9.33358e-08 6.06384e-08 1.09703e-19 -9.47467e-08 1.20823e-20 1.41089e-09)
(8.04698e-08 5.76666e-08 4.4529e-22 -7.81605e-08 -3.36683e-22 -2.30924e-09)
(7.85428e-08 5.72262e-08 9.64234e-22 -8.23974e-08 -6.31034e-23 3.85457e-09)
(5.86273e-08 5.14841e-08 7.58643e-20 -5.2392e-08 8.51413e-21 -6.23525e-09)
(6.94023e-08 5.21824e-08 -9.58466e-21 -7.92874e-08 -1.18421e-21 9.88511e-09)
(3.12364e-08 4.13509e-08 -7.92469e-22 -1.59988e-08 2.03974e-22 -1.52376e-08)
(7.24707e-08 4.50341e-08 -1.61983e-22 -9.54523e-08 5.44595e-23 2.29816e-08)
(-9.01481e-09 2.63677e-08 3.50998e-22 4.28464e-08 -6.85453e-23 -3.38316e-08)
(9.82176e-08 4.23031e-08 -5.96617e-22 -1.47112e-07 1.57998e-22 4.8894e-08)
(-6.68494e-08 -3.5208e-08 2.79626e-19 1.32884e-07 3.49042e-20 -6.60347e-08)
(1.34995e-07 6.14709e-08 7.50858e-20 -2.15539e-07 7.63314e-21 8.05437e-08)
(1.68219e-07 3.34075e-08 -9.0633e-20 -1.68211e-07 -9.34993e-21 -7.88966e-12)
(1.54588e-07 4.0569e-08 6.70792e-20 -1.54591e-07 7.46113e-21 2.28486e-12)
(1.41391e-07 4.58672e-08 3.38681e-20 -1.41368e-07 3.36555e-21 -2.25284e-11)
(1.28823e-07 4.94551e-08 -1.25779e-20 -1.28871e-07 -1.48988e-21 4.73815e-11)
(1.16586e-07 5.21361e-08 1.82039e-22 -1.16413e-07 -2.15748e-23 -1.73149e-10)
(1.07136e-07 5.39833e-08 -6.18752e-22 -1.07672e-07 1.16205e-22 5.35377e-10)
(9.71145e-08 5.41168e-08 -6.97181e-23 -9.6206e-08 -2.83054e-22 -9.0849e-10)
(9.12169e-08 5.41805e-08 -1.1956e-19 -9.26674e-08 -1.32312e-20 1.45043e-09)
(7.88008e-08 5.19734e-08 -5.71172e-20 -7.6427e-08 -5.96845e-21 -2.3738e-09)
(7.75295e-08 5.17398e-08 7.15461e-20 -8.14577e-08 8.05526e-21 3.92826e-09)
(5.79218e-08 4.71482e-08 -7.2213e-20 -5.15897e-08 -8.26868e-21 -6.33204e-09)
(6.91485e-08 4.74001e-08 2.89896e-23 -7.91445e-08 -7.41394e-23 9.99597e-09)
(3.14577e-08 3.86173e-08 -1.54216e-19 -1.60789e-08 -1.77897e-20 -1.53788e-08)
(7.2446e-08 4.05253e-08 -3.19509e-20 -9.56183e-08 -3.37575e-21 2.31723e-08)
(-7.45827e-09 2.53668e-08 6.32656e-20 4.16132e-08 7.40974e-21 -3.4155e-08)
(9.76336e-08 3.83695e-08 -9.95011e-20 -1.47147e-07 -1.09858e-20 4.95138e-08)
(-6.3625e-08 -3.56387e-08 -2.36008e-19 1.3076e-07 -2.93373e-20 -6.71352e-08)
(1.34055e-07 6.16933e-08 -9.59624e-20 -2.16245e-07 -9.53813e-21 8.219e-08)
(2.13479e-07 -3.87807e-08 -8.44697e-20 -2.13454e-07 -8.56016e-21 -2.42481e-11)
(2.03146e-07 -2.3197e-08 -1.27383e-20 -2.03121e-07 -9.68476e-22 -2.46584e-11)
(1.9216e-07 -9.15745e-09 -1.3212e-20 -1.92134e-07 -1.33472e-21 -2.60514e-11)
(1.80707e-07 3.33768e-09 -2.05104e-20 -1.80682e-07 -1.98726e-21 -2.45664e-11)
(1.68959e-07 1.42759e-08 -4.02211e-21 -1.68937e-07 -1.46428e-22 -2.22981e-11)
(1.57101e-07 2.35744e-08 5.73315e-20 -1.57076e-07 6.13999e-21 -2.49315e-11)
(1.45337e-07 3.1159e-08 6.59896e-20 -1.45327e-07 6.89384e-21 -9.92307e-12)
(1.33773e-07 3.69827e-08 -1.36738e-22 -1.33731e-07 -8.95236e-23 -4.2194e-11)
(1.22663e-07 4.11554e-08 2.85212e-20 -1.22705e-07 3.13972e-21 4.18059e-11)
(1.11652e-07 4.43999e-08 1.83621e-20 -1.11454e-07 1.91366e-21 -1.98535e-10)
(1.03181e-07 4.67461e-08 -4.25134e-23 -1.03722e-07 -6.54289e-23 5.40289e-10)
(9.38345e-08 4.74745e-08 -4.58187e-24 -9.28893e-08 2.25107e-23 -9.452e-10)
(8.86716e-08 4.79806e-08 7.04125e-22 -9.0149e-08 -5.69945e-24 1.47739e-09)
(7.67809e-08 4.64709e-08 5.48417e-20 -7.43493e-08 5.8884e-21 -2.43167e-09)
(7.61699e-08 4.63985e-08 -6.81645e-20 -8.01518e-08 -7.62346e-21 3.98189e-09)
(5.69751e-08 4.28803e-08 6.87376e-20 -5.05625e-08 7.8398e-21 -6.41253e-09)
(6.86275e-08 4.27147e-08 2.2897e-24 -7.87035e-08 8.14465e-23 1.0076e-08)
(3.15206e-08 3.58476e-08 1.47343e-19 -1.60304e-08 1.68475e-20 -1.54902e-08)
(7.22493e-08 3.61476e-08 3.07989e-20 -9.55713e-08 3.14945e-21 2.3322e-08)
(-6.12773e-09 2.42356e-08 -6.01947e-20 4.05705e-08 -7.13908e-21 -3.44428e-08)
(9.70791e-08 3.45877e-08 2.46826e-22 -1.47171e-07 6.65621e-23 5.00921e-08)
(-6.09608e-08 -3.61286e-08 4.01475e-19 1.29137e-07 4.97558e-20 -6.81758e-08)
(1.33356e-07 6.12907e-08 4.13129e-22 -2.1704e-07 -1.71377e-22 8.36839e-08)
(2.13814e-07 -1.72825e-07 -1.85681e-20 -2.13849e-07 -1.82407e-21 3.52505e-11)
(2.14603e-07 -1.52861e-07 -4.23951e-20 -2.14626e-07 -3.904e-21 2.35941e-11)
(2.13925e-07 -1.33172e-07 1.96299e-20 -2.1394e-07 1.9041e-21 1.47745e-11)
(2.11817e-07 -1.13933e-07 -3.69962e-20 -2.11822e-07 -3.73414e-21 4.94172e-12)
(2.08348e-07 -9.533e-08 -1.2366e-20 -2.08346e-07 -8.98372e-22 -1.75094e-12)
(2.03605e-07 -7.7527e-08 4.53952e-20 -2.03597e-07 4.56573e-21 -7.86661e-12)
(1.977e-07 -6.06744e-08 4.72891e-21 -1.97687e-07 3.23871e-22 -1.26863e-11)
(1.90759e-07 -4.49019e-08 4.53988e-22 -1.90743e-07 -1.81027e-22 -1.64991e-11)
(1.82925e-07 -3.03092e-08 -1.39914e-20 -1.82906e-07 -1.48955e-21 -1.88129e-11)
(1.74342e-07 -1.69625e-08 -1.02757e-20 -1.74322e-07 -1.01291e-21 -2.02653e-11)
(1.65164e-07 -4.90075e-09 1.17491e-22 -1.65143e-07 1.14752e-23 -2.11264e-11)
(1.55544e-07 5.84457e-09 1.43732e-23 -1.55525e-07 -1.59127e-23 -1.88992e-11)
(1.4564e-07 1.51568e-08 -3.33845e-22 -1.45615e-07 2.96393e-23 -2.47958e-11)
(1.35658e-07 2.29319e-08 -1.06019e-20 -1.35652e-07 -1.00694e-21 -6.3533e-12)
(1.25683e-07 2.90742e-08 9.14218e-23 -1.25636e-07 -5.36165e-23 -4.68679e-11)
(1.16012e-07 3.36466e-08 -2.73497e-20 -1.16061e-07 -2.93295e-21 4.94899e-11)
(1.06237e-07 3.72954e-08 -1.75518e-20 -1.06027e-07 -1.83762e-21 -2.09764e-10)
(9.87616e-08 4.00138e-08 -4.05062e-23 -9.93148e-08 3.98639e-23 5.53214e-10)
(9.01265e-08 4.12424e-08 -4.38558e-24 -8.91607e-08 2.89558e-22 -9.65819e-10)
(8.571e-08 4.21114e-08 1.07928e-19 -8.7215e-08 1.20221e-20 1.50496e-09)
(7.44102e-08 4.12226e-08 2.82637e-20 -7.19405e-08 3.23774e-21 -2.46968e-09)
(7.44595e-08 4.12619e-08 1.11235e-19 -7.84855e-08 1.2241e-20 4.02595e-09)
(5.57765e-08 3.87292e-08 -6.55353e-20 -4.93119e-08 -7.5345e-21 -6.46462e-09)
(6.78287e-08 3.81675e-08 3.83053e-23 -7.79622e-08 -2.30329e-23 1.01336e-08)
(3.14078e-08 3.30747e-08 -1.00437e-19 -1.58411e-08 -1.12938e-20 -1.55667e-08)
(7.18639e-08 3.19191e-08 8.46902e-20 -9.53034e-08 9.66398e-21 2.34395e-08)
(-5.01286e-09 2.29942e-08 1.46365e-19 3.97069e-08 1.70335e-20 -3.46941e-08)
(9.65035e-08 3.09528e-08 -8.76432e-24 -1.47156e-07 -1.09945e-22 5.06527e-08)
(-5.88537e-08 -3.67106e-08 -2.60962e-22 1.281e-07 5.92074e-23 -6.9246e-08)
(1.32838e-07 6.03707e-08 2.15837e-20 -2.17988e-07 2.19591e-21 8.51508e-08)
(8.04286e-08 -3.20334e-07 1.57346e-20 -8.04834e-08 1.42346e-21 5.47352e-11)
(9.19321e-08 -3.11626e-07 5.9515e-22 -9.20018e-08 6.0033e-23 6.97336e-11)
(1.03193e-07 -3.0202e-07 9.76756e-22 -1.03274e-07 1.19021e-22 8.02763e-11)
(1.14111e-07 -2.91488e-07 4.67578e-20 -1.14198e-07 4.31195e-21 8.63588e-11)
(1.24579e-07 -2.80016e-07 2.10219e-20 -1.2467e-07 1.96251e-21 9.07812e-11)
(1.34486e-07 -2.67621e-07 3.31068e-20 -1.34576e-07 3.04492e-21 9.00331e-11)
(1.43723e-07 -2.54338e-07 1.03516e-20 -1.43808e-07 9.50523e-22 8.46175e-11)
(1.52194e-07 -2.40218e-07 1.8868e-20 -1.52278e-07 1.7088e-21 8.43424e-11)
(1.59781e-07 -2.25352e-07 -1.08786e-20 -1.59854e-07 -1.2583e-21 7.30553e-11)
(1.66408e-07 -2.09828e-07 -6.5265e-20 -1.66475e-07 -6.06892e-21 6.75984e-11)
(1.71981e-07 -1.93763e-07 1.2523e-20 -1.7204e-07 1.26021e-21 5.93629e-11)
(1.7643e-07 -1.77283e-07 -1.71949e-20 -1.7648e-07 -1.70153e-21 4.96026e-11)
(1.79706e-07 -1.60533e-07 8.30122e-23 -1.79747e-07 3.02017e-23 4.13912e-11)
(1.81768e-07 -1.4366e-07 1.16189e-22 -1.818e-07 -6.22114e-23 3.19344e-11)
(1.82605e-07 -1.26825e-07 -2.40257e-23 -1.82631e-07 9.76121e-24 2.57488e-11)
(1.82213e-07 -1.10185e-07 1.16706e-22 -1.8223e-07 -2.72616e-23 1.66375e-11)
(1.80625e-07 -9.38961e-08 4.09032e-23 -1.80635e-07 -3.30669e-23 1.03137e-11)
(1.77885e-07 -7.81151e-08 -1.5378e-22 -1.7789e-07 -4.87192e-23 4.73645e-12)
(1.74062e-07 -6.29905e-08 -2.36936e-20 -1.7406e-07 -2.1999e-21 -1.15551e-12)
(1.69242e-07 -4.86475e-08 4.79185e-20 -1.69238e-07 4.96366e-21 -4.66215e-12)
(1.63526e-07 -3.52067e-08 -3.97815e-21 -1.63518e-07 -5.75877e-22 -8.33878e-12)
(1.57027e-07 -2.27416e-08 9.90048e-21 -1.57017e-07 1.03193e-21 -1.05337e-11)
(1.49862e-07 -1.13165e-08 4.12331e-23 -1.49849e-07 -4.77631e-23 -1.28451e-11)
(1.42161e-07 -9.78205e-10 -6.333e-22 -1.42151e-07 -2.12981e-22 -1.06095e-11)
(1.34054e-07 8.13616e-09 -5.154e-20 -1.34035e-07 -5.60059e-21 -1.94737e-11)
(1.25741e-07 1.58983e-08 -5.03146e-20 -1.25743e-07 -5.12132e-21 2.2211e-12)
(1.17278e-07 2.21724e-08 3.64609e-20 -1.17231e-07 3.98484e-21 -4.67632e-11)
(1.08999e-07 2.69724e-08 -2.89121e-20 -1.0906e-07 -3.19627e-21 6.08455e-11)
(1.00444e-07 3.08753e-08 1.66963e-20 -1.00229e-07 1.85619e-21 -2.14816e-10)
(9.3961e-08 3.38411e-08 -1.27174e-22 -9.45271e-08 -3.20901e-23 5.66165e-10)
(8.60597e-08 3.54739e-08 -6.16974e-23 -8.50827e-08 -7.43098e-23 -9.77062e-10)
(8.2387e-08 3.66241e-08 -3.89226e-20 -8.39139e-08 -4.36232e-21 1.52691e-09)
(7.17295e-08 3.62769e-08 -7.65864e-20 -6.92369e-08 -8.62262e-21 -2.4926e-09)
(7.2429e-08 3.63772e-08 -1.06113e-19 -7.64851e-08 -1.15415e-20 4.05612e-09)
(5.43411e-08 3.47334e-08 2.84795e-20 -4.7848e-08 3.35004e-21 -6.49314e-09)
(6.67692e-08 3.37922e-08 1.55564e-20 -7.69343e-08 1.84462e-21 1.01651e-08)
(3.11255e-08 3.03293e-08 7.67449e-20 -1.55217e-08 8.72415e-21 -1.56038e-08)
(7.13111e-08 2.78478e-08 5.28052e-20 -9.48361e-08 5.88931e-21 2.3525e-08)
(-4.1084e-09 2.16621e-08 -1.90611e-22 3.90076e-08 -2.42668e-23 -3.48992e-08)
(9.59294e-08 2.74325e-08 -8.55328e-24 -1.47112e-07 -5.47214e-24 5.11823e-08)
(-5.72139e-08 -3.73435e-08 -1.03282e-22 1.27463e-07 -2.76758e-23 -7.0249e-08)
(1.32549e-07 5.89469e-08 -2.06137e-20 -2.191e-07 -2.05964e-21 8.65514e-08)
(-9.69388e-08 -6.08439e-08 -1.16953e-21 8.86675e-08 -4.86775e-23 8.27123e-09)
(-1.00215e-07 -2.49188e-08 1.80517e-22 9.29809e-08 -3.73778e-23 7.23444e-09)
(-9.98342e-08 -9.73152e-08 6.32465e-22 1.00826e-07 7.91645e-23 -9.91717e-10)
(-7.07138e-08 -4.00874e-07 -7.10218e-22 7.26484e-08 -2.55812e-23 -1.93461e-09)
(-5.96734e-07 -1.17341e-05 -1.198e-20 6.00316e-07 -2.09655e-21 -3.58261e-09)
(-4.28365e-06 -2.41795e-05 9.19483e-20 4.25192e-06 6.27195e-21 3.17256e-08)
(-0.000545876 0.0020092 1.90769e-18 0.000544885 2.86981e-19 9.90799e-07)
(-0.00451381 0.0259575 -6.6918e-18 0.00451723 -5.08122e-19 -3.41234e-06)
(-0.0163161 0.100549 3.84998e-18 0.0163263 -2.53295e-19 -1.0208e-05)
(-0.0366417 0.222396 3.0997e-17 0.0366409 2.82715e-18 7.50343e-07)
(-0.0607052 0.352061 7.15801e-18 0.0606945 1.06124e-18 1.0688e-05)
(-0.0810726 0.442225 2.49851e-17 0.0810637 2.91909e-18 8.93397e-06)
(-0.0905285 0.456554 -3.96156e-17 0.0905188 -1.59524e-18 9.7313e-06)
(-0.0840496 0.378223 -1.26494e-16 0.0840395 -1.28584e-17 1.01056e-05)
(-0.0605252 0.215338 4.05446e-17 0.0605227 -1.8879e-18 2.5252e-06)
(-0.023734 0.00120924 2.60701e-16 0.0237355 2.4036e-17 -1.5758e-06)
(0.0183325 -0.214464 3.57522e-17 -0.0183402 7.50295e-18 7.7418e-06)
(0.0546637 -0.373394 -5.22383e-17 -0.0546675 -4.66491e-18 3.84547e-06)
(0.0725536 -0.42168 7.84031e-18 -0.0725395 -1.05436e-18 -1.41391e-05)
(0.0648706 -0.343968 7.5464e-17 -0.0648499 7.49046e-18 -2.07632e-05)
(0.038479 -0.191758 -2.87625e-17 -0.0384705 -3.1616e-18 -8.4519e-06)
(0.0129945 -0.0623732 5.33984e-17 -0.0129944 5.61122e-18 -1.02983e-07)
(0.00175366 -0.00863524 -2.68753e-17 -0.00175349 -2.55844e-18 -1.72542e-07)
(6.13661e-06 -9.42238e-05 1.82018e-18 -6.1747e-06 1.35146e-19 3.80915e-08)
(-7.18864e-06 8.04531e-06 3.17097e-19 7.15973e-06 3.35625e-20 2.89144e-08)
(-8.68824e-08 -9.60972e-09 1.02874e-21 8.66912e-08 1.35893e-22 1.91271e-10)
(-2.66339e-08 -2.06223e-07 1.60204e-21 2.67295e-08 6.16771e-23 -9.55971e-11)
(-2.38686e-09 -2.58222e-07 1.21746e-20 2.47201e-09 1.13493e-21 -8.51502e-11)
(-2.04841e-09 -2.3334e-07 -7.88075e-22 2.0491e-09 -5.06843e-25 -6.95022e-13)
(-4.26773e-09 -2.1506e-07 3.93193e-21 4.24747e-09 4.02967e-22 2.02622e-11)
(-2.68637e-09 -3.16857e-07 -1.36452e-20 2.66596e-09 -1.11893e-21 2.04064e-11)
(6.01528e-09 -3.44231e-07 -2.18848e-20 -6.02274e-09 -2.10067e-21 7.45707e-12)
(1.44051e-08 -3.08446e-07 1.87316e-21 -1.44155e-08 1.08895e-22 1.03724e-11)
(2.25737e-08 -2.92269e-07 -8.39506e-21 -2.25851e-08 -8.14522e-22 1.14365e-11)
(3.17807e-08 -2.89063e-07 1.78682e-20 -3.17948e-08 1.63386e-21 1.41536e-11)
(4.14081e-08 -2.85694e-07 -5.58037e-21 -4.1426e-08 -4.3589e-22 1.79197e-11)
(5.09861e-08 -2.80181e-07 -1.55944e-20 -5.10086e-08 -1.44256e-21 2.24888e-11)
(6.05611e-08 -2.7398e-07 -1.39606e-20 -6.0587e-08 -1.33576e-21 2.59064e-11)
(7.01558e-08 -2.67395e-07 1.28895e-20 -7.01897e-08 1.19141e-21 3.39694e-11)
(7.96594e-08 -2.60152e-07 1.66465e-25 -7.96983e-08 -4.60063e-24 3.89926e-11)
(8.89768e-08 -2.52133e-07 -2.48317e-23 -8.9022e-08 3.40724e-23 4.51788e-11)
(9.80236e-08 -2.43326e-07 -1.55275e-23 -9.80729e-08 2.41349e-23 4.92704e-11)
(1.06718e-07 -2.33725e-07 -2.20624e-23 -1.06774e-07 1.66708e-23 5.52169e-11)
(1.14963e-07 -2.23337e-07 -1.17169e-23 -1.15017e-07 6.75241e-24 5.46311e-11)
(1.22676e-07 -2.12181e-07 -6.40857e-22 -1.22734e-07 -7.28627e-23 5.82838e-11)
(1.2976e-07 -2.00314e-07 -1.76038e-20 -1.29816e-07 -1.68097e-21 5.57838e-11)
(1.36141e-07 -1.87803e-07 1.12241e-22 -1.36194e-07 1.07933e-22 5.3413e-11)
(1.41737e-07 -1.74729e-07 4.96443e-20 -1.41787e-07 4.78689e-21 5.06473e-11)
(1.46473e-07 -1.61182e-07 6.17816e-23 -1.46519e-07 -1.00967e-22 4.56952e-11)
(1.50291e-07 -1.4727e-07 1.25833e-20 -1.50332e-07 1.20679e-21 4.0827e-11)
(1.53141e-07 -1.33114e-07 -3.20846e-21 -1.53175e-07 -3.20939e-22 3.41309e-11)
(1.5499e-07 -1.18841e-07 2.14781e-20 -1.55019e-07 2.15399e-21 2.92905e-11)
(1.55814e-07 -1.04578e-07 1.56342e-23 -1.55836e-07 -7.0483e-23 2.24942e-11)
(1.55615e-07 -9.04631e-08 5.28387e-24 -1.55632e-07 -2.28681e-23 1.69885e-11)
(1.54409e-07 -7.66326e-08 1.72668e-23 -1.54421e-07 8.68317e-23 1.23935e-11)
(1.52228e-07 -6.32232e-08 2.26613e-20 -1.52235e-07 2.10467e-21 6.69506e-12)
(1.49127e-07 -5.03569e-08 -5.0257e-20 -1.4913e-07 -5.12487e-21 2.48005e-12)
(1.45172e-07 -3.81509e-08 1.2702e-20 -1.45172e-07 1.46776e-21 -3.80751e-13)
(1.40442e-07 -2.66918e-08 -7.12265e-23 -1.40439e-07 -1.33465e-23 -3.32533e-12)
(1.35023e-07 -1.60485e-08 1.84438e-22 -1.35016e-07 -1.30284e-22 -7.03868e-12)
(1.29022e-07 -6.28194e-09 -2.83924e-20 -1.29018e-07 -3.00019e-21 -4.16587e-12)
(1.22536e-07 2.46329e-09 3.05116e-22 -1.2252e-07 4.19622e-23 -1.59819e-11)
(1.15756e-07 1.00421e-08 9.49555e-21 -1.15765e-07 8.90315e-22 9.01246e-12)
(1.08706e-07 1.6283e-08 -2.37065e-22 -1.08659e-07 3.1597e-23 -4.74649e-11)
(1.0175e-07 2.11581e-08 2.47432e-22 -1.0182e-07 -7.6188e-23 7.04548e-11)
(9.43772e-08 2.51747e-08 -1.59709e-20 -9.41576e-08 -1.81174e-21 -2.19532e-10)
(8.88641e-08 2.82711e-08 -3.66532e-20 -8.94381e-08 -4.00817e-21 5.74072e-10)
(8.17055e-08 3.02101e-08 -2.39193e-20 -8.07218e-08 -2.4971e-21 -9.83701e-10)
(7.87606e-08 3.15641e-08 1.19434e-20 -8.03006e-08 1.47882e-21 1.54004e-09)
(6.87812e-08 3.16741e-08 5.69099e-20 -6.62758e-08 6.29627e-21 -2.50531e-09)
(7.01129e-08 3.17858e-08 5.11005e-20 -7.41802e-08 5.44799e-21 4.06726e-09)
(5.26926e-08 3.09312e-08 -7.21103e-23 -4.61948e-08 -1.82967e-22 -6.49779e-09)
(6.54644e-08 2.96178e-08 -6.78602e-20 -7.56289e-08 -7.58929e-21 1.01645e-08)
(3.0663e-08 2.76459e-08 -1.46166e-22 -1.50563e-08 6.89e-23 -1.56067e-08)
(7.05969e-08 2.39342e-08 -5.10058e-20 -9.41528e-08 -5.52543e-21 2.35558e-08)
(-3.44398e-09 2.02757e-08 3.89157e-20 3.85e-08 4.61494e-21 -3.5056e-08)
(9.538e-08 2.39727e-08 -2.08493e-22 -1.47031e-07 -2.11984e-23 5.16512e-08)
(-5.60841e-08 -3.79846e-08 -1.60233e-19 1.27296e-07 -1.98382e-20 -7.12118e-08)
(1.32583e-07 5.70311e-08 1.96362e-20 -2.20406e-07 2.00187e-21 8.78229e-08)
(-1.25721e-07 -1.36805e-07 -2.5704e-24 1.14784e-07 -8.22933e-23 1.09369e-08)
(-8.01706e-08 -5.81437e-08 1.82818e-21 7.41581e-08 1.54573e-22 6.01253e-09)
(-8.9495e-08 -1.97217e-08 6.85255e-22 9.02127e-08 1.14949e-22 -7.17649e-10)
(-8.57751e-08 -4.75303e-08 -5.63421e-22 8.72985e-08 -2.49126e-23 -1.52343e-09)
(-6.10135e-08 -2.65847e-07 -5.75815e-22 6.10909e-08 -6.44624e-23 -7.74226e-11)
(-2.57425e-08 -6.40238e-07 2.81823e-24 2.56163e-08 -8.86085e-24 1.2618e-10)
(-7.30201e-06 -0.000151953 2.21564e-22 7.29427e-06 -5.67783e-21 7.74762e-09)
(-0.000152736 0.00022144 1.04077e-18 0.000152341 1.10233e-19 3.95446e-07)
(-0.0020163 0.0103756 -3.32716e-18 0.0020162 -3.48897e-19 1.06893e-07)
(-0.0095953 0.0569869 1.91628e-17 0.00960235 1.75618e-18 -7.05526e-06)
(-0.0255873 0.153199 -1.00623e-17 0.0255932 -4.40339e-19 -5.90334e-06)
(-0.0474002 0.274135 2.31375e-19 0.0473937 -7.99466e-19 6.57724e-06)
(-0.0683703 0.374771 5.58528e-17 0.0683601 5.18524e-18 1.02349e-05)
(-0.0810379 0.414634 -1.98556e-18 0.0810285 1.34949e-18 9.34605e-06)
(-0.0796131 0.370336 -6.30278e-17 0.0796042 -5.71167e-18 8.87947e-06)
(-0.0618268 0.241981 -1.13222e-18 0.0618235 1.59234e-19 3.25355e-06)
(-0.0301928 0.0552389 -7.20864e-17 0.0301938 -8.11965e-18 -9.51539e-07)
(0.00847277 -0.145879 8.03955e-17 -0.00847875 5.89945e-18 5.98665e-06)
(0.0442049 -0.307634 5.32732e-17 -0.0442098 5.58928e-18 4.91132e-06)
(0.0648622 -0.376051 3.58114e-17 -0.0648529 2.67353e-18 -9.30004e-06)
(0.062041 -0.326554 1.0034e-16 -0.0620224 1.18036e-17 -1.85962e-05)
(0.0396572 -0.195538 -1.39948e-16 -0.0396461 -1.37865e-17 -1.10746e-05)
(0.0149695 -0.0706309 7.57535e-17 -0.0149688 7.1743e-18 -7.22149e-07)
(0.0023927 -0.0112649 -3.08861e-17 -0.00239265 -2.63077e-18 -4.66626e-08)
(3.04155e-05 -0.000218281 2.54445e-21 -3.0456e-05 -2.68941e-20 4.04922e-08)
(-1.09702e-05 1.47482e-05 2.1275e-22 1.0928e-05 2.55413e-21 4.21827e-08)
(-8.85589e-08 5.88898e-08 -2.91976e-21 8.83385e-08 -2.35016e-22 2.20373e-10)
(-2.89851e-08 -1.45184e-07 -4.87327e-21 2.9045e-08 -4.82019e-22 -5.98233e-11)
(-5.53072e-10 -2.18385e-07 6.08629e-22 6.21004e-10 3.05426e-23 -6.79325e-11)
(1.37304e-09 -2.02243e-07 -1.22261e-21 -1.38088e-09 -1.15429e-22 7.83614e-12)
(-1.34614e-09 -1.76673e-07 5.18879e-22 1.31171e-09 3.63572e-24 3.4431e-11)
(2.55312e-10 -2.47215e-07 9.81694e-21 -3.0087e-10 9.27783e-22 4.55581e-11)
(8.33859e-09 -2.98422e-07 3.31012e-24 -8.38149e-09 -1.89903e-24 4.29031e-11)
(1.5413e-08 -2.65469e-07 1.49944e-20 -1.54535e-08 1.46193e-21 4.04325e-11)
(2.16695e-08 -2.45111e-07 -1.30723e-20 -2.17093e-08 -1.19162e-21 3.98058e-11)
(2.90662e-08 -2.40735e-07 3.43895e-21 -2.91099e-08 2.86339e-22 4.36889e-11)
(3.7104e-08 -2.38363e-07 -4.02515e-24 -3.71483e-08 -2.89739e-23 4.43003e-11)
(4.51225e-08 -2.34029e-07 1.72018e-20 -4.51629e-08 1.63595e-21 4.04063e-11)
(5.31063e-08 -2.2887e-07 -4.71265e-21 -5.31505e-08 -4.17141e-22 4.41528e-11)
(6.10989e-08 -2.23427e-07 6.09421e-21 -6.11401e-08 5.71379e-22 4.12123e-11)
(6.90291e-08 -2.17422e-07 3.19753e-21 -6.90712e-08 3.40012e-22 4.21294e-11)
(7.6793e-08 -2.10686e-07 -4.69931e-24 -7.68345e-08 2.98879e-23 4.14343e-11)
(8.43319e-08 -2.03241e-07 1.7368e-20 -8.43728e-08 1.69244e-21 4.08776e-11)
(9.15869e-08 -1.95117e-07 -3.26504e-24 -9.16272e-08 -3.52311e-24 4.02469e-11)
(9.8486e-08 -1.86323e-07 5.81993e-22 -9.85256e-08 9.98406e-23 3.96635e-11)
(1.04951e-07 -1.76874e-07 1.26326e-20 -1.04989e-07 1.21858e-21 3.82375e-11)
(1.1091e-07 -1.66818e-07 2.02451e-23 -1.10946e-07 -8.06469e-23 3.65127e-11)
(1.16293e-07 -1.56213e-07 -8.20892e-23 -1.16327e-07 1.00154e-22 3.37616e-11)
(1.21035e-07 -1.4512e-07 2.64827e-20 -1.21066e-07 2.60131e-21 3.10765e-11)
(1.25071e-07 -1.33622e-07 -1.19507e-20 -1.25099e-07 -1.25059e-21 2.75792e-11)
(1.28352e-07 -1.21812e-07 2.54969e-23 -1.28375e-07 -7.11819e-23 2.37465e-11)
(1.30832e-07 -1.0979e-07 -2.05364e-20 -1.30853e-07 -2.01705e-21 2.03119e-11)
(1.32477e-07 -9.76585e-08 1.32614e-23 -1.32492e-07 5.852e-23 1.49574e-11)
(1.3327e-07 -8.55321e-08 4.51319e-24 -1.33281e-07 4.29633e-23 1.11622e-11)
(1.33204e-07 -7.35276e-08 2.0989e-20 -1.33211e-07 2.16211e-21 7.23864e-12)
(1.32288e-07 -6.1763e-08 2.74695e-21 -1.32292e-07 2.77691e-22 3.55588e-12)
(1.30548e-07 -5.03564e-08 4.39304e-21 -1.30548e-07 3.58726e-22 -5.08513e-13)
(1.28025e-07 -3.94114e-08 -8.39356e-21 -1.28022e-07 -9.64114e-22 -2.92107e-12)
(1.24767e-07 -2.90215e-08 -2.27011e-20 -1.24762e-07 -2.13397e-21 -5.1098e-12)
(1.20835e-07 -1.9252e-08 6.76042e-20 -1.20827e-07 7.27031e-21 -8.85793e-12)
(1.1631e-07 -1.01762e-08 2.76589e-20 -1.16305e-07 2.83534e-21 -4.90322e-12)
(1.11259e-07 -1.92888e-09 4.67722e-20 -1.1124e-07 4.9892e-21 -1.89606e-11)
(1.05862e-07 5.32859e-09 5.41577e-20 -1.05872e-07 5.59111e-21 1.03836e-11)
(1.00108e-07 1.13965e-08 -4.19555e-20 -1.00055e-07 -4.50346e-21 -5.28624e-11)
(9.43866e-08 1.62159e-08 5.80531e-20 -9.44611e-08 6.35032e-21 7.45072e-11)
(8.81376e-08 2.02214e-08 -1.50384e-20 -8.79124e-08 -1.79854e-21 -2.25268e-10)
(8.35573e-08 2.33386e-08 -3.09115e-23 -8.4132e-08 7.42616e-23 5.74754e-10)
(7.71353e-08 2.54868e-08 1.25787e-20 -7.61488e-08 1.32624e-21 -9.86533e-10)
(7.48922e-08 2.6974e-08 -1.05304e-20 -7.64321e-08 -1.09313e-21 1.53994e-09)
(6.56124e-08 2.74584e-08 4.4701e-20 -6.31074e-08 5.08287e-21 -2.50502e-09)
(6.75559e-08 2.75241e-08 3.40197e-20 -7.16145e-08 3.75439e-21 4.05853e-09)
(5.08468e-08 2.73633e-08 -5.69198e-24 -4.43714e-08 5.21551e-24 -6.4754e-09)
(6.39512e-08 2.56655e-08 4.36519e-20 -7.40699e-08 4.85345e-21 1.01187e-08)
(3.00086e-08 2.50754e-08 9.79822e-24 -1.44592e-08 -2.28434e-22 -1.55494e-08)
(6.97811e-08 2.01622e-08 -1.47621e-19 -9.32989e-08 -1.66043e-20 2.35179e-08)
(-3.07382e-09 1.88921e-08 -3.7187e-20 3.81847e-08 -4.27622e-21 -3.51108e-08)
(9.49544e-08 2.05256e-08 -9.52455e-20 -1.46934e-07 -1.03344e-20 5.19794e-08)
(-5.5428e-08 -3.85237e-08 1.61421e-19 1.27415e-07 2.00059e-20 -7.19872e-08)
(1.33146e-07 5.46581e-08 -1.8742e-20 -2.22036e-07 -1.88471e-21 8.889e-08)
(-1.13823e-07 -1.46037e-07 -7.40103e-25 1.03869e-07 2.71556e-23 9.9537e-09)
(-1.04541e-07 -1.24284e-07 3.621e-24 9.63311e-08 2.37411e-23 8.20977e-09)
(-7.20039e-08 -5.68473e-08 -6.60752e-22 7.2605e-08 -8.73904e-23 -6.01165e-10)
(-7.48737e-08 -1.94833e-08 9.52001e-22 7.61885e-08 7.37484e-23 -1.31478e-09)
(-7.23059e-08 -1.62065e-08 1.75734e-22 7.23483e-08 5.07595e-23 -4.24298e-11)
(-5.57071e-08 -1.55508e-07 -7.83482e-22 5.55011e-08 -7.75821e-23 2.05941e-10)
(-2.24307e-08 -4.79831e-07 5.02053e-22 2.25868e-08 3.41496e-23 -1.56038e-10)
(-2.83084e-07 -4.70048e-05 2.28798e-22 2.97858e-07 4.57901e-22 -1.47742e-08)
(-1.86318e-05 -7.39135e-05 -2.50113e-22 1.85658e-05 6.33778e-22 6.5991e-08)
(-0.000715168 0.00299403 1.95619e-20 0.000714378 6.96447e-21 7.89779e-07)
(-0.00498951 0.0280945 -3.26135e-20 0.00499286 -1.21019e-19 -3.35461e-06)
(-0.0165842 0.0974829 1.44225e-17 0.0165931 1.4171e-18 -8.87517e-06)
(-0.0353508 0.20353 2.23226e-19 0.0353505 2.47093e-19 2.85188e-07)
(-0.0560378 0.30827 -1.31951e-18 0.0560291 -6.34803e-19 8.7707e-06)
(-0.0711956 0.368629 4.07139e-17 0.0711879 4.11064e-18 7.67288e-06)
(-0.0743054 0.354837 2.96979e-18 0.0742983 6.50133e-19 7.01463e-06)
(-0.0619834 0.259252 3.08584e-17 0.0619794 2.18016e-18 4.0133e-06)
(-0.0354026 0.0995847 5.81756e-17 0.0354016 6.00934e-18 1.01073e-06)
(-0.000254498 -0.0857856 3.12923e-20 0.000248045 1.16155e-18 6.45286e-06)
(0.0344116 -0.247194 -3.84692e-17 -0.0344205 -3.02258e-18 8.9231e-06)
(0.0571312 -0.331651 -4.40721e-17 -0.057131 -6.58744e-18 -2.18562e-07)
(0.0586106 -0.307353 1.74384e-16 -0.0586008 1.79187e-17 -9.83507e-06)
(0.0401932 -0.197131 -1.34165e-16 -0.0401867 -1.16747e-17 -6.46209e-06)
(0.0166395 -0.0779109 4.93555e-19 -0.0166397 -4.71924e-19 1.86206e-07)
(0.0031034 -0.0143404 -8.38872e-18 -0.0031035 -7.79093e-19 9.95188e-08)
(8.63966e-05 -0.00050052 -1.3922e-21 -8.64306e-05 -5.84728e-21 3.40135e-08)
(-1.60844e-05 2.13088e-05 -1.3264e-19 1.60373e-05 -1.28412e-20 4.7067e-08)
(-8.71795e-08 1.05223e-07 -4.06349e-24 8.70927e-08 1.62883e-23 8.68021e-11)
(-2.81594e-08 -9.37849e-08 -2.75593e-21 2.83487e-08 -2.63781e-22 -1.89354e-10)
(3.66638e-09 -1.81492e-07 -1.97437e-24 -3.47914e-09 -1.77316e-23 -1.87239e-10)
(5.63057e-09 -1.72556e-07 6.79424e-25 -5.56243e-09 -5.11702e-24 -6.81402e-11)
(6.4978e-10 -1.46761e-07 -1.31699e-22 -6.4295e-10 -8.05495e-24 -6.82997e-12)
(6.0592e-10 -1.72821e-07 -1.65917e-21 -5.9972e-10 -1.0583e-22 -6.20002e-12)
(7.81685e-09 -2.4202e-07 -2.09696e-20 -7.79765e-09 -2.06989e-21 -1.91968e-11)
(1.51149e-08 -2.26454e-07 1.34694e-20 -1.51031e-08 1.2428e-21 -1.17783e-11)
(2.04138e-08 -2.06252e-07 -3.29282e-21 -2.04207e-08 -2.8065e-22 6.96532e-12)
(2.63835e-08 -2.01118e-07 1.18268e-24 -2.64059e-08 -1.45356e-23 2.23874e-11)
(3.30737e-08 -1.99634e-07 -3.73e-21 -3.31075e-08 -3.42404e-22 3.3835e-11)
(3.97822e-08 -1.96172e-07 -7.21772e-21 -3.98228e-08 -7.03936e-22 4.05153e-11)
(4.63941e-08 -1.91486e-07 -5.03404e-25 -4.64404e-08 -8.95877e-24 4.62454e-11)
(5.30317e-08 -1.86649e-07 -7.50472e-24 -5.30811e-08 2.97392e-23 4.94504e-11)
(5.96685e-08 -1.81555e-07 1.07002e-20 -5.97236e-08 1.05636e-21 5.51048e-11)
(6.61837e-08 -1.7589e-07 -1.3588e-20 -6.62384e-08 -1.30077e-21 5.469e-11)
(7.25077e-08 -1.69565e-07 -3.32167e-21 -7.25635e-08 -3.13097e-22 5.5766e-11)
(7.85936e-08 -1.62626e-07 -4.56016e-24 -7.86505e-08 1.71292e-23 5.68935e-11)
(8.43874e-08 -1.5511e-07 -8.58021e-24 -8.44425e-08 9.95051e-24 5.50889e-11)
(8.98331e-08 -1.47042e-07 1.63744e-23 -8.98875e-08 -4.89107e-23 5.44198e-11)
(9.48668e-08 -1.38462e-07 -1.87593e-23 -9.49184e-08 -3.75871e-23 5.16207e-11)
(9.94308e-08 -1.29407e-07 -2.52645e-20 -9.9481e-08 -2.4031e-21 5.01638e-11)
(1.03465e-07 -1.19945e-07 3.10831e-20 -1.03511e-07 3.16277e-21 4.58872e-11)
(1.06922e-07 -1.10139e-07 2.93973e-21 -1.06965e-07 1.97798e-22 4.28164e-11)
(1.09753e-07 -1.00071e-07 1.82333e-23 -1.09794e-07 -7.02758e-24 4.01613e-11)
(1.11918e-07 -8.9824e-08 1.78323e-23 -1.11952e-07 -7.42668e-24 3.47797e-11)
(1.13389e-07 -7.94861e-08 3.82857e-24 -1.1342e-07 -8.15101e-23 3.1359e-11)
(1.14145e-07 -6.91564e-08 -2.01423e-20 -1.14172e-07 -2.01513e-21 2.69693e-11)
(1.14179e-07 -5.89384e-08 -2.65237e-21 -1.14201e-07 -1.93065e-22 2.24539e-11)
(1.13496e-07 -4.89303e-08 1.27685e-21 -1.13515e-07 1.95604e-22 1.82132e-11)
(1.12117e-07 -3.92351e-08 2.29621e-20 -1.12132e-07 2.4135e-21 1.49983e-11)
(1.10065e-07 -2.9932e-08 8.5916e-21 -1.10076e-07 5.41421e-22 1.10962e-11)
(1.0738e-07 -2.10902e-08 -9.18291e-20 -1.07386e-07 -9.66657e-21 6.23677e-12)
(1.04119e-07 -1.27831e-08 -1.61928e-20 -1.04129e-07 -1.43406e-21 1.00394e-11)
(1.00319e-07 -5.12679e-09 1.84197e-20 -1.0031e-07 1.79676e-21 -9.07627e-12)
(9.61547e-08 1.69613e-09 -8.87771e-20 -9.61785e-08 -9.40593e-21 2.37231e-11)
(9.15749e-08 7.48552e-09 3.15349e-20 -9.15291e-08 3.54186e-21 -4.58358e-11)
(8.69872e-08 1.21278e-08 -1.60612e-20 -8.70724e-08 -1.71177e-21 8.52212e-11)