/*--------------------------------*- C++ -*----------------------------------*\
| =========                 |                                                 |
| \\      /  F ield         | OpenFOAM: The Open Source CFD Toolbox           |
|  \\    /   O peration     | Version:  2306                                  |
|   \\  /    A nd           | Website:  www.openfoam.com                      |
|    \\/     M anipulation  |                                                 |
\*---------------------------------------------------------------------------*/
FoamFile
{
    version     2.0;
    format      ascii;
    arch        "LSB;label=32;scalar=64";
    class       volScalarField;
    location    "525";
    object      turbulenceProperties:nut;
}
// * * * * * * * * * * * * * * * * * * * * * * * * * * * * * * * * * * * * * //

dimensions      [0 2 -1 0 0 0 0];

internalField   nonuniform List<scalar> 
1340
(
6.10199e-06
6.10274e-06
6.10233e-06
6.08333e-06
6.10338e-06
6.10276e-06
6.08133e-06
6.08325e-06
6.10405e-06
6.10328e-06
6.07231e-06
6.07456e-06
6.08121e-06
6.08314e-06
6.10476e-06
6.10389e-06
6.07744e-06
6.07309e-06
6.07228e-06
6.07449e-06
6.0811e-06
6.08301e-06
6.1055e-06
6.10459e-06
6.09024e-06
6.08641e-06
6.08221e-06
6.07784e-06
6.07333e-06
6.07225e-06
6.07442e-06
6.08099e-06
6.08286e-06
6.10627e-06
6.10539e-06
6.09963e-06
6.09674e-06
6.0941e-06
6.09085e-06
6.08698e-06
6.0827e-06
6.07828e-06
6.0736e-06
6.07224e-06
6.07433e-06
6.08087e-06
6.08268e-06
6.10707e-06
6.10629e-06
6.11213e-06
6.11002e-06
6.10728e-06
6.10389e-06
6.10039e-06
6.09744e-06
6.09477e-06
6.09149e-06
6.08759e-06
6.08323e-06
6.07874e-06
6.07391e-06
6.07224e-06
6.07423e-06
6.08075e-06
6.08246e-06
6.10788e-06
6.10729e-06
6.11858e-06
6.11782e-06
6.1169e-06
6.11583e-06
6.11457e-06
6.11301e-06
6.11092e-06
6.10818e-06
6.10477e-06
6.10119e-06
6.09818e-06
6.09548e-06
6.09218e-06
6.08824e-06
6.0838e-06
6.07923e-06
6.07425e-06
6.07227e-06
6.07412e-06
6.08063e-06
6.08222e-06
6.10871e-06
6.10839e-06
6.12113e-06
6.12111e-06
6.12108e-06
6.121e-06
6.12082e-06
6.12052e-06
6.12009e-06
6.1195e-06
6.11874e-06
6.11782e-06
6.11674e-06
6.11549e-06
6.11393e-06
6.11186e-06
6.10913e-06
6.10569e-06
6.10205e-06
6.09897e-06
6.09623e-06
6.09291e-06
6.08893e-06
6.08441e-06
6.07976e-06
6.07463e-06
6.07232e-06
6.07401e-06
6.0805e-06
6.08195e-06
6.10955e-06
6.10959e-06
6.12266e-06
6.12345e-06
6.12326e-06
6.12302e-06
6.1228e-06
6.12252e-06
6.1223e-06
6.12218e-06
6.12212e-06
6.1221e-06
6.12208e-06
6.12206e-06
6.12203e-06
6.12201e-06
6.12198e-06
6.12191e-06
6.12175e-06
6.12146e-06
6.12104e-06
6.12046e-06
6.11971e-06
6.11879e-06
6.11771e-06
6.11645e-06
6.1149e-06
6.11285e-06
6.11013e-06
6.10667e-06
6.10296e-06
6.09981e-06
6.09703e-06
6.09369e-06
6.08966e-06
6.08506e-06
6.08033e-06
6.07505e-06
6.0724e-06
6.07388e-06
6.08036e-06
6.08164e-06
6.11039e-06
6.11089e-06
1.06969e-09
5.20925e-12
0
0
0.000141972
0.00045512
0.0161112
0.0551934
0.112663
0.176087
0.23551
0.285618
0.324075
0.350415
0.365813
0.372617
0.373749
0.362751
0.330895
0.272107
0.189
0.0998071
0.0333253
0.0020824
0.00057387
0
0
0
1.72439e-09
4.08204e-07
6.22274e-06
8.0221e-06
6.45506e-06
5.90481e-06
6.03198e-06
6.1413e-06
6.14176e-06
6.12805e-06
6.12592e-06
6.12557e-06
6.12416e-06
6.12341e-06
6.12337e-06
6.12336e-06
6.12322e-06
6.12309e-06
6.12304e-06
6.12303e-06
6.12301e-06
6.12298e-06
6.12296e-06
6.12293e-06
6.12287e-06
6.12272e-06
6.12245e-06
6.12204e-06
6.12147e-06
6.12072e-06
6.1198e-06
6.11872e-06
6.11746e-06
6.11593e-06
6.11389e-06
6.11119e-06
6.10772e-06
6.10393e-06
6.1007e-06
6.09788e-06
6.09452e-06
6.09045e-06
6.08577e-06
6.08094e-06
6.07552e-06
6.07251e-06
6.07375e-06
6.08021e-06
6.08131e-06
6.11122e-06
6.11229e-06
6.27963e-06
1.47491e-08
6.9162e-11
0
0
1.47563e-09
0.00209053
0.00821521
0.0366839
0.0875625
0.150378
0.213178
0.268279
0.311929
0.342838
0.36158
0.370721
0.372993
0.36436
0.336087
0.281257
0.201221
0.11219
0.0400095
0.00369226
0.0010243
0
0
0
3.06769e-10
6.08553e-08
5.1308e-06
8.73321e-06
6.97352e-06
5.98319e-06
5.99257e-06
6.12073e-06
6.13253e-06
6.1186e-06
6.12142e-06
6.12679e-06
6.12671e-06
6.12486e-06
6.12407e-06
6.12408e-06
6.12413e-06
6.12408e-06
6.12403e-06
6.12401e-06
6.12398e-06
6.12395e-06
6.12393e-06
6.12387e-06
6.12374e-06
6.12348e-06
6.12309e-06
6.12253e-06
6.12179e-06
6.12088e-06
6.11979e-06
6.11853e-06
6.117e-06
6.11499e-06
6.11231e-06
6.10883e-06
6.10497e-06
6.10165e-06
6.09878e-06
6.0954e-06
6.09129e-06
6.08652e-06
6.08159e-06
6.07603e-06
6.07266e-06
6.07362e-06
6.08006e-06
6.08097e-06
6.11204e-06
6.11378e-06
8.04885e-06
6.34515e-06
1.01627e-07
4.69855e-10
0
0
0
0.000624301
0.00229428
0.021216
0.0633324
0.122986
0.187862
0.247787
0.297032
0.333187
0.356237
0.368287
0.371875
0.36553
0.340763
0.289976
0.213179
0.124015
0.0476287
0.00672856
0.00181228
0
0
0
1.69937e-12
6.61989e-11
2.78396e-06
8.2486e-06
7.30408e-06
6.07859e-06
5.99595e-06
6.1669e-06
6.18338e-06
6.13368e-06
6.11467e-06
6.12072e-06
6.12664e-06
6.12689e-06
6.12557e-06
6.12502e-06
6.12503e-06
6.12509e-06
6.12507e-06
6.12503e-06
6.125e-06
6.12497e-06
6.12492e-06
6.12481e-06
6.12457e-06
6.12419e-06
6.12364e-06
6.12292e-06
6.12201e-06
6.12092e-06
6.11965e-06
6.11813e-06
6.11615e-06
6.1135e-06
6.11e-06
6.10608e-06
6.10267e-06
6.09974e-06
6.09633e-06
6.09218e-06
6.08733e-06
6.0823e-06
6.0766e-06
6.07286e-06
6.07348e-06
6.07989e-06
6.08063e-06
6.11283e-06
6.11537e-06
6.2623e-06
7.84032e-06
6.33137e-06
4.67474e-07
2.18078e-09
0
0
0
1.14226e-06
0.00262513
0.0102354
0.0421247
0.0955613
0.160485
0.224648
0.279759
0.321736
0.34965
0.364945
0.369949
0.365757
0.34442
0.29776
0.224293
0.135228
0.0555157
0.0102192
0.00269904
0
0
0
9.42888e-17
7.93249e-09
1.9366e-06
7.90677e-06
7.69581e-06
6.005e-06
5.67783e-06
5.98246e-06
6.18142e-06
6.18069e-06
6.13515e-06
6.11898e-06
6.12258e-06
6.12672e-06
6.12713e-06
6.12638e-06
6.12608e-06
6.12611e-06
6.12615e-06
6.12611e-06
6.12608e-06
6.12603e-06
6.12593e-06
6.12571e-06
6.12535e-06
6.12482e-06
6.1241e-06
6.12319e-06
6.1221e-06
6.12084e-06
6.11933e-06
6.11737e-06
6.11474e-06
6.11125e-06
6.10726e-06
6.10375e-06
6.10076e-06
6.09732e-06
6.09314e-06
6.0882e-06
6.08306e-06
6.07721e-06
6.0731e-06
6.07335e-06
6.07971e-06
6.08027e-06
6.11357e-06
6.11701e-06
6.02699e-06
6.24144e-06
7.47141e-06
6.4427e-06
1.81594e-06
8.32909e-09
4.3391e-16
0
0
0
0.000949179
0.00357125
0.0244648
0.0682902
0.129657
0.196604
0.258183
0.30762
0.34215
0.362035
0.369473
0.367091
0.348903
0.306466
0.236547
0.148141
0.0650897
0.0135442
0.0039524
0.000114484
0
0
0
3.10382e-09
6.9973e-07
6.87587e-06
9.73013e-06
7.60379e-06
6.04799e-06
5.79274e-06
6.00645e-06
6.15336e-06
6.16351e-06
6.13564e-06
6.12365e-06
6.12509e-06
6.12759e-06
6.12785e-06
6.1274e-06
6.12723e-06
6.12724e-06
6.12724e-06
6.1272e-06
6.1271e-06
6.1269e-06
6.12656e-06
6.12605e-06
6.12535e-06
6.12445e-06
6.12336e-06
6.12209e-06
6.12058e-06
6.11865e-06
6.11606e-06
6.11258e-06
6.10852e-06
6.10491e-06
6.10185e-06
6.09838e-06
6.09416e-06
6.08914e-06
6.08388e-06
6.07789e-06
6.07341e-06
6.07323e-06
6.07951e-06
6.07992e-06
6.11431e-06
6.11879e-06
6.13596e-06
6.06947e-06
6.20537e-06
6.76878e-06
6.6383e-06
4.56025e-06
1.73683e-07
8.3843e-10
4.08851e-18
0
0
3.08571e-06
0.00247478
0.00948566
0.035254
0.080566
0.140514
0.205011
0.264248
0.311542
0.343841
0.361343
0.364861
0.354174
0.322604
0.265224
0.186307
0.10271
0.0405648
0.00590302
0.0019711
1.56921e-05
0
0
5.93233e-13
1.96953e-09
2.64347e-07
4.54041e-06
8.45152e-06
7.64971e-06
6.2888e-06
5.88286e-06
5.99884e-06
6.13338e-06
6.15612e-06
6.13578e-06
6.12553e-06
6.12675e-06
6.1289e-06
6.12912e-06
6.12876e-06
6.12863e-06
6.12863e-06
6.12859e-06
6.12842e-06
6.1281e-06
6.12761e-06
6.12693e-06
6.12604e-06
6.12494e-06
6.12366e-06
6.12216e-06
6.12025e-06
6.1177e-06
6.11423e-06
6.1101e-06
6.10636e-06
6.10319e-06
6.09967e-06
6.09541e-06
6.09028e-06
6.08487e-06
6.07872e-06
6.07381e-06
6.07309e-06
6.0793e-06
6.07956e-06
6.11496e-06
6.12068e-06
6.1384e-06
6.13606e-06
6.08202e-06
6.13235e-06
6.38987e-06
7.23976e-06
6.07707e-06
3.10287e-06
2.78184e-09
1.66114e-11
0
0
0
4.2514e-05
0.00231269
0.00855876
0.0315885
0.0738203
0.131387
0.195283
0.255493
0.304478
0.33842
0.356341
0.358317
0.34249
0.302911
0.238037
0.158252
0.0823194
0.0297262
0.00260745
0.000953522
0
0
0
1.28998e-13
2.33423e-09
4.44273e-07
5.21115e-06
8.57073e-06
7.40746e-06
6.14847e-06
5.89557e-06
6.05293e-06
6.15636e-06
6.15394e-06
6.13248e-06
6.12726e-06
6.12975e-06
6.13108e-06
6.13088e-06
6.13056e-06
6.13042e-06
6.13026e-06
6.12998e-06
6.12953e-06
6.12886e-06
6.12798e-06
6.12688e-06
6.12558e-06
6.12406e-06
6.12217e-06
6.11966e-06
6.11622e-06
6.112e-06
6.1081e-06
6.10479e-06
6.10119e-06
6.09687e-06
6.09163e-06
6.08604e-06
6.0797e-06
6.07433e-06
6.07297e-06
6.07906e-06
6.07922e-06
6.11561e-06
6.12269e-06
6.12716e-06
6.13268e-06
6.12755e-06
6.10654e-06
6.0958e-06
6.28342e-06
6.7786e-06
7.27944e-06
5.34004e-06
1.06649e-06
5.01815e-09
1.64106e-16
0
0
0
3.78994e-05
0.00202479
0.00741833
0.0294679
0.0707334
0.127817
0.191954
0.252952
0.302742
0.336809
0.352896
0.35075
0.32684
0.277281
0.206166
0.127505
0.0595728
0.0166619
0.00468981
0.000120826
0
0
0
2.69718e-13
6.56449e-09
1.43386e-06
7.15563e-06
8.28108e-06
6.68739e-06
5.90937e-06
5.94632e-06
6.11678e-06
6.16178e-06
6.14213e-06
6.12949e-06
6.12995e-06
6.13205e-06
6.13251e-06
6.13242e-06
6.1323e-06
6.13202e-06
6.13155e-06
6.13089e-06
6.13002e-06
6.12892e-06
6.1276e-06
6.12607e-06
6.12419e-06
6.12172e-06
6.11831e-06
6.11404e-06
6.10999e-06
6.10651e-06
6.10282e-06
6.09844e-06
6.09309e-06
6.08731e-06
6.08078e-06
6.07496e-06
6.0729e-06
6.0788e-06
6.07888e-06
6.11617e-06
6.12471e-06
6.12531e-06
6.12793e-06
6.127e-06
6.1176e-06
6.08994e-06
6.1669e-06
6.41919e-06
7.21844e-06
6.82175e-06
4.21701e-06
8.85353e-08
4.31533e-10
0
0
0
0
3.02656e-05
0.00201244
0.00739908
0.0295911
0.071237
0.128961
0.193894
0.255425
0.304718
0.33666
0.347864
0.33847
0.304601
0.245811
0.17058
0.094689
0.0376019
0.00637824
0.00190331
7.78161e-08
0
0
0
5.83267e-10
1.054e-07
4.19724e-06
8.59831e-06
7.51193e-06
6.15849e-06
5.89688e-06
6.06113e-06
6.15828e-06
6.15428e-06
6.13731e-06
6.1339e-06
6.13465e-06
6.1344e-06
6.13398e-06
6.13389e-06
6.13365e-06
6.13307e-06
6.13219e-06
6.13107e-06
6.12974e-06
6.12819e-06
6.12631e-06
6.12388e-06
6.12053e-06
6.11622e-06
6.11202e-06
6.10837e-06
6.10456e-06
6.10012e-06
6.09467e-06
6.0887e-06
6.08195e-06
6.07571e-06
6.07288e-06
6.07851e-06
6.07851e-06
6.1166e-06
6.12673e-06
6.12384e-06
6.12449e-06
6.1255e-06
6.12763e-06
6.1186e-06
6.10586e-06
6.08458e-06
6.25704e-06
6.6827e-06
7.34697e-06
6.07411e-06
1.72008e-06
8.14651e-09
2.57647e-16
0
0
0
0
3.46016e-05
0.00225506
0.0083808
0.0320433
0.0754856
0.135
0.200997
0.26216
0.308918
0.335918
0.340343
0.321258
0.27631
0.208667
0.131525
0.0628995
0.0189873
0.0005678
0.000257391
0
0
0
1.71135e-13
7.52699e-14
1.57514e-06
7.33191e-06
8.14727e-06
6.53472e-06
5.90931e-06
5.99373e-06
6.12838e-06
6.14726e-06
6.13383e-06
6.13345e-06
6.13761e-06
6.13803e-06
6.1366e-06
6.13567e-06
6.13515e-06
6.13443e-06
6.13335e-06
6.132e-06
6.13042e-06
6.12854e-06
6.12616e-06
6.12287e-06
6.11855e-06
6.11422e-06
6.11038e-06
6.10642e-06
6.10191e-06
6.09636e-06
6.0902e-06
6.08324e-06
6.07658e-06
6.07293e-06
6.07819e-06
6.07813e-06
6.11691e-06
6.12873e-06
6.12376e-06
6.12397e-06
6.12423e-06
6.12513e-06
6.12609e-06
6.12435e-06
6.11071e-06
6.08608e-06
6.12696e-06
6.34628e-06
7.07852e-06
7.00358e-06
4.55207e-06
1.10521e-07
5.46746e-10
5.95429e-20
0
0
0
0
5.2469e-05
0.00259085
0.00965741
0.0367568
0.0836161
0.145891
0.212743
0.271992
0.314087
0.33337
0.328504
0.29751
0.240522
0.166081
0.0912029
0.0355531
0.00569751
0.00165791
5.58366e-07
0
0
5.70435e-20
1.61365e-09
3.50643e-07
5.59976e-06
8.56548e-06
7.08059e-06
6.052e-06
6.00796e-06
6.16188e-06
6.18137e-06
6.14201e-06
6.12744e-06
6.13341e-06
6.13872e-06
6.13907e-06
6.13784e-06
6.13676e-06
6.1357e-06
6.13439e-06
6.1328e-06
6.13091e-06
6.12856e-06
6.12535e-06
6.12105e-06
6.11661e-06
6.11258e-06
6.10844e-06
6.10385e-06
6.0982e-06
6.09186e-06
6.08466e-06
6.07761e-06
6.07309e-06
6.07785e-06
6.0777e-06
6.11703e-06
6.1307e-06
6.12409e-06
6.12428e-06
6.12447e-06
6.12463e-06
6.12521e-06
6.12591e-06
6.12701e-06
6.11817e-06
6.10234e-06
6.07219e-06
6.20595e-06
6.57275e-06
7.41521e-06
5.74677e-06
2.39052e-06
2.05998e-11
2.98425e-13
0
0
0
0
0
7.67995e-05
0.00338611
0.0127907
0.0445743
0.0963795
0.1618
0.228553
0.283695
0.318285
0.3272
0.310099
0.265293
0.197227
0.120708
0.0546749
0.014491
0.000882532
0.000277957
0
0
0
1.036e-10
1.67049e-08
3.14717e-06
8.2402e-06
7.3808e-06
5.92764e-06
5.74998e-06
6.05564e-06
6.20879e-06
6.18824e-06
6.14674e-06
6.13544e-06
6.1381e-06
6.14002e-06
6.13952e-06
6.13826e-06
6.13685e-06
6.13524e-06
6.13335e-06
6.13103e-06
6.12789e-06
6.12364e-06
6.11913e-06
6.1149e-06
6.11055e-06
6.10586e-06
6.10013e-06
6.09361e-06
6.08617e-06
6.07872e-06
6.07334e-06
6.07754e-06
6.07728e-06
6.11711e-06
6.13259e-06
6.12468e-06
6.12485e-06
6.12504e-06
6.1252e-06
6.12541e-06
6.12563e-06
6.12657e-06
6.12731e-06
6.12612e-06
6.11147e-06
6.08742e-06
6.0942e-06
6.35517e-06
6.9297e-06
7.29567e-06
4.46162e-06
6.29025e-07
2.97834e-09
7.3754e-16
0
0
0
0
0
0.000571708
0.00184616
0.0186371
0.056444
0.114158
0.182313
0.246887
0.294776
0.317931
0.313729
0.280869
0.221251
0.145979
0.0740597
0.0255727
0.00322321
0.000744777
0
0
0
1.61125e-14
6.87913e-09
1.63455e-06
8.80467e-06
9.74689e-06
6.9555e-06
5.77403e-06
5.8135e-06
6.07164e-06
6.16806e-06
6.16101e-06
6.14523e-06
6.14134e-06
6.14152e-06
6.14104e-06
6.13972e-06
6.13806e-06
6.13614e-06
6.13384e-06
6.13079e-06
6.12661e-06
6.12207e-06
6.11766e-06
6.11307e-06
6.10823e-06
6.1024e-06
6.09572e-06
6.08799e-06
6.08021e-06
6.07385e-06
6.0771e-06
6.07675e-06
6.11656e-06
6.13454e-06
6.12516e-06
6.12533e-06
6.12552e-06
6.12572e-06
6.12591e-06
6.1261e-06
6.12632e-06
6.12687e-06
6.12785e-06
6.12883e-06
6.12205e-06
6.1023e-06
6.07221e-06
6.19645e-06
6.57976e-06
7.41593e-06
6.54254e-06
3.39669e-06
1.98776e-07
9.86524e-10
7.08221e-16
0
0
0
0
5.08871e-07
0.00152788
0.00563511
0.0284688
0.0743032
0.139091
0.210454
0.272567
0.312598
0.322592
0.30158
0.249456
0.173986
0.0943822
0.031021
0.00927902
0.0010558
0.000448892
0.000137292
2.14487e-06
0
4.86197e-12
3.18214e-12
2.5991e-06
8.47133e-06
8.36955e-06
6.68638e-06
6.06203e-06
6.04998e-06
6.12655e-06
6.15035e-06
6.14776e-06
6.14424e-06
6.14293e-06
6.14181e-06
6.14023e-06
6.1383e-06
6.136e-06
6.13303e-06
6.12893e-06
6.12439e-06
6.11982e-06
6.11501e-06
6.11002e-06
6.10415e-06
6.09729e-06
6.08942e-06
6.08118e-06
6.07426e-06
6.07703e-06
6.07642e-06
6.11716e-06
6.13597e-06
6.12569e-06
6.12591e-06
6.12614e-06
6.12638e-06
6.12663e-06
6.1269e-06
6.12715e-06
6.12743e-06
6.12774e-06
6.12872e-06
6.12978e-06
6.13053e-06
6.11586e-06
6.0954e-06
6.07924e-06
6.30958e-06
6.84467e-06
7.41301e-06
6.31067e-06
3.26778e-06
1.52281e-07
5.82312e-10
0
0
0
0
0
3.07972e-05
0.00173105
0.00593912
0.027641
0.0690092
0.125971
0.188264
0.242907
0.278904
0.288041
0.26768
0.219477
0.153547
0.0889295
0.0431273
0.0174915
0.00558782
0.0010575
0.000233811
0
3.9356e-18
2.37221e-09
4.76282e-07
3.8461e-06
6.32811e-06
6.51168e-06
6.24312e-06
6.14148e-06
6.13993e-06
6.14848e-06
6.14968e-06
6.14834e-06
6.14689e-06
6.14528e-06
6.14334e-06
6.14102e-06
6.13813e-06
6.1342e-06
6.12975e-06
6.12502e-06
6.11978e-06
6.11443e-06
6.10828e-06
6.10127e-06
6.09282e-06
6.08429e-06
6.07561e-06
6.077e-06
6.07569e-06
6.11447e-06
6.13951e-06
)
;

boundaryField
{
    inlet
    {
        type            freestream;
        freestreamValue uniform 1e-05;
        value           nonuniform List<scalar> 
27
(
6.10199e-06
6.10233e-06
6.10276e-06
6.10328e-06
6.10389e-06
6.10459e-06
6.10539e-06
6.10629e-06
6.10729e-06
6.10839e-06
6.10959e-06
6.11089e-06
6.11229e-06
6.11378e-06
6.11537e-06
6.11701e-06
6.11879e-06
6.12068e-06
6.12269e-06
6.12471e-06
6.12673e-06
6.12873e-06
6.1307e-06
6.13259e-06
6.13454e-06
6.13597e-06
6.13951e-06
)
;
    }
    outlet
    {
        type            freestream;
        freestreamValue uniform 1e-05;
        value           nonuniform List<scalar> 
78
(
6.12569e-06
6.12591e-06
6.12614e-06
6.12638e-06
6.12663e-06
6.1269e-06
6.12715e-06
6.12743e-06
6.12774e-06
6.12872e-06
6.12978e-06
6.13053e-06
6.11586e-06
6.0954e-06
6.07924e-06
6.30958e-06
6.84467e-06
7.41301e-06
6.31067e-06
3.26778e-06
1.52281e-07
5.82312e-10
0
0
0
0
0
3.07972e-05
0.00173105
0.00593912
0.027641
0.0690092
0.125971
0.188264
0.242907
0.278904
0.288041
0.26768
0.219477
0.153547
0.0889295
0.0431273
0.0174915
0.00558782
0.0010575
0.000233811
0
3.9356e-18
2.37221e-09
4.76282e-07
3.8461e-06
6.32811e-06
6.51168e-06
6.24312e-06
6.14148e-06
6.13993e-06
6.14848e-06
6.14968e-06
6.14834e-06
6.14689e-06
6.14528e-06
6.14334e-06
6.14102e-06
6.13813e-06
6.1342e-06
6.12975e-06
6.12502e-06
6.11978e-06
6.11443e-06
6.10828e-06
6.10127e-06
6.09282e-06
6.08429e-06
6.07561e-06
6.077e-06
6.07569e-06
6.11447e-06
6.13951e-06
)
;
    }
    walls
    {
        type            nutUSpaldingWallFunction;
        value           nonuniform List<scalar> 0();
    }
    frontAndBack
    {
        type            empty;
    }
    procBoundary7to3
    {
        type            processor;
        value           nonuniform List<scalar> 
16
(
5.7688e-06
8.0078e-06
6.33625e-06
6.01817e-06
6.12931e-06
6.14459e-06
6.13089e-06
6.12609e-06
6.12449e-06
6.12449e-06
6.12368e-06
6.12355e-06
6.12392e-06
6.12452e-06
6.12499e-06
6.12548e-06
)
;
    }
    procBoundary7to6
    {
        type            processor;
        value           nonuniform List<scalar> 
91
(
6.10177e-06
6.10214e-06
6.10214e-06
6.08339e-06
6.08339e-06
6.08144e-06
6.08144e-06
6.07236e-06
6.07461e-06
6.07461e-06
6.07706e-06
6.07287e-06
6.07287e-06
6.08966e-06
6.08588e-06
6.08175e-06
6.08175e-06
6.09892e-06
6.09609e-06
6.09346e-06
6.09346e-06
6.1113e-06
6.10917e-06
6.10642e-06
6.10307e-06
6.10307e-06
6.11772e-06
6.11695e-06
6.11603e-06
6.11496e-06
6.11371e-06
6.11371e-06
6.12027e-06
6.12025e-06
6.12022e-06
6.12013e-06
6.11994e-06
6.11963e-06
6.11918e-06
6.11918e-06
6.12361e-06
6.123e-06
6.12242e-06
6.122e-06
6.1217e-06
6.12149e-06
6.12135e-06
6.12127e-06
6.12122e-06
6.12119e-06
6.12118e-06
6.12116e-06
6.12116e-06
5.5478e-18
0
0
0.0011934
0.00467783
0.02879
0.0763099
0.137211
0.199168
0.254604
0.299951
0.333765
0.356179
0.368979
0.374735
0.374524
0.360826
0.325199
0.26251
0.176666
0.0877993
0.0253897
0.000510242
0.000161504
0
0
0
4.0907e-09
9.84271e-07
6.88282e-06
7.64115e-06
6.29146e-06
5.9603e-06
6.08662e-06
6.14804e-06
6.13448e-06
6.12298e-06
6.12298e-06
)
;
    }
}


// ************************************************************************* //
