# p  FACE_DATA 150
# x y z  p
0.29576437 -0.05 0.059999701 95029.169
0.28738431 -0.05 0.059968924 94988.836
0.27918472 -0.05 0.059906283 94949.89
0.27116186 -0.05 0.05981265 94910.654
0.26331203 -0.05 0.059689027 94871.26
0.25563166 -0.05 0.059536266 94831.647
0.24811723 -0.05 0.059355154 94792.671
0.24076528 -0.05 0.059146557 94753.763
0.23357246 -0.05 0.058911358 94714.785
0.22653546 -0.05 0.058650341 94676.024
0.21965107 -0.05 0.058364202 94637.823
0.21291613 -0.05 0.058053757 94599.505
0.20632755 -0.05 0.057719714 94562.027
0.19988232 -0.05 0.057362758 94524.484
0.19357748 -0.05 0.056983702 94487.168
0.18741014 -0.05 0.056583118 94450.604
0.18137746 -0.05 0.056161624 94414.194
0.17547671 -0.05 0.055719844 94378.41
0.16970518 -0.05 0.055258362 94342.934
0.16406021 -0.05 0.05477783 94307.684
0.15853921 -0.05 0.054278745 94272.98
0.15313967 -0.05 0.053761636 94238.239
0.14785914 -0.05 0.053226963 94204.262
0.14269518 -0.05 0.052675259 94169.754
0.13764543 -0.05 0.052106992 94136.227
0.13270762 -0.05 0.051522466 94103.218
0.12787949 -0.05 0.050922169 94070.71
0.12315883 -0.05 0.050306449 94038.655
0.11854353 -0.05 0.049675628 94007.87
0.11403148 -0.05 0.04903008 93977.968
0.10962065 -0.05 0.04837006 93949.762
0.10530908 -0.05 0.047695796 93922.427
0.10109483 -0.05 0.047007509 93897.298
0.096976017 -0.05 0.046305459 93872.95
0.092950808 -0.05 0.04558984 93850.642
0.08901745 -0.05 0.044860715 93829.85
0.085174232 -0.05 0.044118143 93812.618
0.081419479 -0.05 0.043362243 93797.992
0.077751578 -0.05 0.042593081 93786.495
0.074168981 -0.05 0.041810614 93777.706
0.070670198 -0.05 0.041014781 93771.598
0.06725379 -0.05 0.040205491 93767.998
0.06391837 -0.05 0.039382651 93767.698
0.060662655 -0.05 0.038545988 93772.103
0.057485397 -0.05 0.037695273 93779.963
0.054385413 -0.05 0.036830261 93792.383
0.051361621 -0.05 0.035950545 93809.63
0.048412992 -0.05 0.035055749 93831.75
0.045538629 -0.05 0.034145316 93859.805
0.042737712 -0.05 0.03321865 93893.661
0.040009498 -0.05 0.032275149 93934.078
0.037353406 -0.05 0.031314032 93981.578
0.034768993 -0.05 0.030334375 94034.49
0.032255944 -0.05 0.02933521 94095.703
0.029814132 -0.05 0.028315426 94166.949
0.027443661 -0.05 0.027273729 94248.728
0.025144824 -0.05 0.026208776 94343.649
0.022918276 -0.05 0.02511886 94456.453
0.020764984 -0.05 0.02400217 94589.087
0.018686283 -0.05 0.022856725 94749.634
0.016684024 -0.05 0.021680228 94941.468
0.01476059 -0.05 0.020470219 95169.241
0.012919252 -0.05 0.019223865 95437.589
0.011164249 -0.05 0.017938283 95752.955
0.0095007128 -0.05 0.016610449 96138.745
0.0079348886 -0.05 0.015236971 96612.282
0.006474941 -0.05 0.013814774 97179.35
0.0051312596 -0.05 0.012341958 97854.811
0.0039150106 -0.05 0.010816511 98670.257
0.0028396284 -0.05 0.009238845 99629.184
0.0019206554 -0.05 0.007613688 100710.49
0.0011720639 -0.05 0.0059475212 101879.88
0.00060615611 -0.05 0.004252283 103076.84
0.00023063831 -0.05 0.0025452878 104242.43
4.5460517e-05 -0.05 0.0008455405 105262.27
0.99536103 -0.05 0.00067021835 100462.99
0.98608198 -0.05 0.0020028877 100285.28
0.97680071 -0.05 0.0033200849 100158.18
0.96751731 -0.05 0.0046220425 100069.47
0.95823181 -0.05 0.0059090613 99992.306
0.94894428 -0.05 0.0071813587 99924.286
0.93965479 -0.05 0.0084391859 99860.53
0.93036339 -0.05 0.0096828487 99796.941
0.92107012 -0.05 0.010912491 99735.382
0.91177504 -0.05 0.012128333 99671.782
0.90247819 -0.05 0.013330648 99608.349
0.89317963 -0.05 0.014519511 99541.781
0.88387936 -0.05 0.015695054 99475.909
0.87457746 -0.05 0.016857552 99407.572
0.86527394 -0.05 0.01800713 99340.515
0.85596885 -0.05 0.019143875 99269.851
0.84666223 -0.05 0.020267984 99199.942
0.8373541 -0.05 0.021379502 99125.257
0.82804448 -0.05 0.022478516 99045.323
0.8187334 -0.05 0.023565119 98956.257
0.8094209 -0.05 0.024639397 98852.473
0.80010698 -0.05 0.025701394 98733.026
0.79079168 -0.05 0.026751168 98590.929
0.78147501 -0.05 0.027788748 98434.501
0.77215699 -0.05 0.028814138 98253.743
0.76283764 -0.05 0.029827333 98061.396
0.75351698 -0.05 0.030828337 97854.918
0.74419501 -0.05 0.03181713 97646.823
0.73487174 -0.05 0.032793639 97438.674
0.72554719 -0.05 0.033757832 97237.834
0.71622136 -0.05 0.034709535 97049.913
0.70689427 -0.05 0.03564879 96870.043
0.69756592 -0.05 0.036575541 96711.043
0.68823633 -0.05 0.037489546 96565.561
0.67890547 -0.05 0.03839067 96441.052
0.66957337 -0.05 0.039278803 96325.626
0.66024004 -0.05 0.040153805 96231.529
0.65090546 -0.05 0.04101549 96148.265
0.64156964 -0.05 0.041863622 96080.378
0.63223258 -0.05 0.042697993 96015.583
0.62289428 -0.05 0.043518409 95966.146
0.61355475 -0.05 0.04432459 95922.188
0.60421397 -0.05 0.045116236 95887.47
0.59487195 -0.05 0.045893096 95853.878
0.58552869 -0.05 0.046654869 95828.065
0.57618419 -0.05 0.047401205 95804.332
0.56683843 -0.05 0.048131797 95783.971
0.55749143 -0.05 0.048846241 95763.205
0.54814318 -0.05 0.049544112 95745.822
0.53879368 -0.05 0.050225066 95728.832
0.52944294 -0.05 0.050888717 95712.805
0.52009095 -0.05 0.051534504 95696.209
0.51073771 -0.05 0.052161963 95680.148
0.50138323 -0.05 0.052770675 95663.584
0.49202751 -0.05 0.05336005 95646.439
0.48267057 -0.05 0.053929509 95627.995
0.47331239 -0.05 0.054478508 95609.148
0.46395301 -0.05 0.055006444 95589.349
0.45459243 -0.05 0.05551264 95568.614
0.44523065 -0.05 0.055996468 95546.281
0.43586772 -0.05 0.056457197 95523.243
0.42650365 -0.05 0.05689408 95498.951
0.41713847 -0.05 0.057306402 95473.282
0.4077722 -0.05 0.057693321 95446.22
0.39840488 -0.05 0.058053993 95418.053
0.38903656 -0.05 0.058387503 95388.826
0.37966728 -0.05 0.058692933 95358.223
0.3702971 -0.05 0.058969274 95326.572
0.36092607 -0.05 0.059215505 95293.597
0.35155429 -0.05 0.059430617 95259.194
0.34218182 -0.05 0.059613395 95223.502
0.33280876 -0.05 0.059762649 95186.447
0.3234352 -0.05 0.059877122 95148.613
0.31406128 -0.05 0.059955444 95108.685
0.30468712 -0.05 0.059996221 95067.189
