/*--------------------------------*- C++ -*----------------------------------*\
| =========                 |                                                 |
| \\      /  F ield         | OpenFOAM: The Open Source CFD Toolbox           |
|  \\    /   O peration     | Version:  2306                                  |
|   \\  /    A nd           | Website:  www.openfoam.com                      |
|    \\/     M anipulation  |                                                 |
\*---------------------------------------------------------------------------*/
FoamFile
{
    version     2.0;
    format      ascii;
    arch        "LSB;label=32;scalar=64";
    class       volScalarField;
    location    "750";
    object      magR;
}
// * * * * * * * * * * * * * * * * * * * * * * * * * * * * * * * * * * * * * //

dimensions      [0 2 -2 0 0 0 0];

internalField   nonuniform List<scalar> 
1340
(
0.023538
0.0274623
0.0324771
0.0392891
0.0473599
0.0576334
0.0707697
0.0870427
0.107706
0.134069
0.16813
0.213099
0.273425
0.356423
0.474563
0.647438
0.913674
1.32394
2.04424
3.16552
5.69247
9.51381
22.2732
43.4787
48.1806
46.094
45.2945
46.1246
47.1528
47.4139
46.7863
45.3895
43.1324
40.0444
36.0571
0.0200321
0.0171884
0.0140008
0.0112669
0.0086856
0.00635916
0.00448042
0.00360469
0.0035844
0.00354304
0.00344051
0.00328197
0.00309976
0.00288482
0.00264314
0.00240399
0.0021695
0.00194594
0.00179066
0.0017693
0.00194392
0.00252448
0.00397245
0.00759094
0.015912
0.0384743
0.0943336
0.279534
0.771783
2.37092
7.60634
14.8863
22.3847
29.4314
34.4275
35.4228
32.5012
27.6995
22.8383
18.8952
15.8728
13.5508
0.0035722
0.00352403
0.00342528
0.00327883
0.00307843
0.00281404
0.00241978
0.00240068
0.00234654
0.00226375
0.00217717
0.00208202
0.00198581
0.00189929
0.00182488
0.00176716
0.00172253
0.00169695
0.00169023
0.00170479
0.00170943
0.00166256
0.00139696
0.00126034
0.000416246
0.00777974
0.0154034
0.000735041
0.00844265
0.019481
0.220097
0.788608
2.019
4.56208
9.01333
14.8908
20.2074
22.8214
22.3123
20.0354
17.3832
0.00243863
0.00243561
0.00242913
0.00238587
0.00230911
0.00218026
0.00204215
0.00204636
0.00203608
0.00201912
0.00198413
0.00193205
0.00186712
0.00178607
0.00169343
0.00159096
0.00148086
0.00136465
0.00124346
0.00111949
0.000993841
0.000862434
0.00072801
0.000620062
0.000479728
0.000262326
3.39155e-05
9.70411e-05
0
0.00480956
0.0259758
0.0523997
0.073374
0.00175645
0.0419495
0.440326
1.95601
5.33186
9.9953
13.8704
15.5401
0.00202024
0.00198706
0.00193497
0.00187224
0.00179357
0.0015321
0.00152939
0.00151745
0.00149615
0.0014632
0.00141852
0.00136452
0.00130202
0.00123305
0.00116185
0.00109069
0.00102244
0.00096014
0.000905696
0.000860401
0.000822339
0.000782467
0.000730937
0.000683196
0.000609233
0.000482768
0.000290281
3.07499e-05
8.93368e-06
0
0
0
0.000949153
0.0272849
0.0119724
0.0352414
0.0652182
0.410744
2.39797
6.15488
0.00152813
0.00151732
0.0014958
0.00146134
0.00141275
0.0012558
0.00126116
0.00126065
0.00125615
0.00124381
0.00122381
0.00119703
0.0011624
0.00112064
0.00107288
0.00101954
0.000961856
0.00090121
0.000838671
0.000775347
0.000709717
0.00063825
0.000564578
0.00049687
0.000436096
0.000390583
0.000343864
0.000294686
0.00011435
1.48009e-05
7.66932e-06
3.43523e-06
2.07865e-07
0
0.00151363
0.00840782
0.0454005
0.0086844
0.111392
0.243544
0.00124442
0.0012287
0.00120582
0.00117563
0.00101587
0.00102033
0.00102104
0.00101846
0.00101034
0.000996296
0.000976651
0.000950828
0.000919056
0.000882212
0.000840925
0.000796229
0.000749502
0.000702073
0.000655049
0.000610001
0.000569168
0.000531107
0.000492248
0.000451971
0.000412443
0.000376009
0.000356116
0.000312741
0.000221015
0.00013487
5.14329e-05
2.57628e-06
4.31895e-06
3.73252e-07
0
0
0.00111836
0.0351649
0.0266187
0.00100752
0.000996227
0.000979796
0.000957167
0.000841976
0.000847724
0.000851137
0.000852513
0.000850179
0.000843802
0.000833637
0.000818938
0.0007997
0.000776334
0.000748805
0.000717648
0.000683474
0.000646845
0.000608411
0.000568959
0.000527995
0.000484458
0.00044034
0.000398722
0.00036174
0.000331313
0.000309062
0.00029509
0.000272739
0.000233466
0.000180395
0.000123197
7.40367e-05
5.88788e-06
3.52765e-06
1.30812e-07
0
0
0.00384219
0.00083334
0.000822932
0.000808981
0.000790464
0.000702354
0.000707889
0.000711922
0.00071444
0.000714348
0.000711283
0.000705316
0.000695788
0.000682615
0.000665919
0.000645646
0.000622083
0.000595645
0.000566758
0.000536049
0.000504011
0.000471376
0.000439414
0.000408228
0.000377807
0.000348678
0.000322044
0.000298171
0.000277315
0.000256904
0.000232651
0.000206156
0.000177132
0.000149662
0.000107335
6.96952e-05
2.628e-06
1.85701e-06
0
0
0.000694767
0.000685985
0.000674636
0.000607185
0.000606763
0.000604233
0.000599033
0.000591079
0.000580363
0.000566713
0.000550259
0.000531199
0.000509743
0.000486232
0.000461004
0.000434583
0.000406926
0.000378221
0.000349699
0.000322882
0.000298904
0.000277786
0.000257733
0.000236408
0.00021269
0.000188784
0.000167629
0.000150893
0.000136955
0.000122988
8.88808e-05
3.72273e-05
3.30362e-06
0
0.00051907
0.000516458
0.000511668
0.000504668
0.000495243
0.000483426
0.000469289
0.000452921
0.000434563
0.000414489
0.000393
0.000370586
0.000347752
0.00032495
0.000302913
0.000282235
0.000263129
0.000244495
0.000224279
0.000201556
0.000177957
0.000156743
0.000139727
0.000127345
0.000118081
0.000112495
9.84216e-05
5.71332e-05
3.7881e-06
0.000445229
0.000441028
0.000434876
0.000426753
0.000416651
0.000404594
0.000390696
0.00037512
0.000358099
0.000339984
0.000320904
0.000301279
0.000281974
0.000263652
0.000246477
0.000229676
0.000211638
0.000191433
0.00017012
0.000150197
0.000133382
0.000119895
0.000108908
0.00010176
9.83595e-05
9.47741e-05
6.18885e-05
0.000386121
0.000382244
0.000376747
0.000369577
0.000360693
0.000350163
0.000338081
0.000324583
0.00030997
0.000294464
0.000278362
0.00026219
0.000246433
0.000231201
0.000216014
0.00019979
0.000181822
0.000162853
0.000144798
0.000129151
0.000116035
0.000104833
9.54936e-05
8.89921e-05
8.65618e-05
9.12105e-05
0.000336765
0.00033322
0.000328294
0.000321925
0.000314117
0.000304911
0.000294379
0.000282752
0.000270178
0.000256831
0.000243106
0.000229487
0.00021607
0.000202519
0.000188067
0.000172175
0.000155376
0.000139169
0.00012486
0.000112654
0.000102115
9.29068e-05
8.51697e-05
7.9459e-05
7.82154e-05
0.000297185
0.000295075
0.000291816
0.00028734
0.000281615
0.00027466
0.000266518
0.000257313
0.000247213
0.00023633
0.000224877
0.000213271
0.000201596
0.000189617
0.000176814
0.000162794
0.000147937
0.000133412
0.000120345
0.000109038
9.92151e-05
9.06681e-05
8.31629e-05
7.75375e-05
6.97894e-05
0.00026165
0.00025963
0.000256592
0.000252512
0.000247361
0.000241156
0.000233956
0.000225921
0.00021709
0.000207578
0.00019773
0.000187642
0.00017716
0.000165906
0.000153601
0.000140523
0.000127574
0.000115697
0.000105251
9.60841e-05
8.81091e-05
8.10784e-05
7.5879e-05
6.90728e-05
0.000231176
0.000229237
0.000226415
0.000222676
0.000218013
0.000212449
0.000206108
0.000199012
0.000191205
0.000182931
0.000174299
0.000165213
0.000155401
0.000144657
0.000133193
0.000121704
0.000110971
0.000101367
9.28412e-05
8.53521e-05
7.88072e-05
7.35136e-05
6.93994e-05
0.00020602
0.000204895
0.000203034
0.000200396
0.000196965
0.000192731
0.000187783
0.000182134
0.000175789
0.00016889
0.000161569
0.000153768
0.000145281
0.000135958
0.000125958
0.000115818
0.000106178
9.74026e-05
8.95201e-05
8.25032e-05
7.64081e-05
7.10779e-05
6.80497e-05
0.000183208
0.000182081
0.000180299
0.000177838
0.000174682
0.00017087
0.000166423
0.000161318
0.00015562
0.000149471
0.000142837
0.000135556
0.000127515
0.000118837
0.000109935
0.000101331
9.33631e-05
8.61172e-05
7.95891e-05
7.38841e-05
6.88016e-05
6.55453e-05
0.000163906
0.000163327
0.000162204
0.000160503
0.000158203
0.000155306
0.000151849
0.000147792
0.000143139
0.000138021
0.000132429
0.000126234
0.000119346
0.000111858
0.000104086
9.64516e-05
8.92633e-05
8.26381e-05
7.66073e-05
7.12563e-05
6.65547e-05
6.28595e-05
0.000146522
0.000145899
0.000144787
0.000143163
0.000141013
0.000138376
0.000135193
0.000131439
0.000127223
0.000122554
0.000117328
0.000111468
0.000105043
9.82968e-05
9.1565e-05
8.51214e-05
7.9098e-05
7.35581e-05
6.85565e-05
6.42104e-05
6.03624e-05
0.000131471
0.000131221
0.000130565
0.000129477
0.000127929
0.000125951
0.000123487
0.000120499
0.000117065
0.000113203
0.000108836
0.000103889
9.84123e-05
9.25915e-05
8.66937e-05
8.09543e-05
7.55116e-05
7.04479e-05
6.58064e-05
6.17528e-05
5.8016e-05
0.000118018
0.000117707
0.000117032
0.000115962
0.000114513
0.000112643
0.000110303
0.00010754
0.00010438
0.000100764
9.6621e-05
9.1983e-05
8.69928e-05
8.18591e-05
7.67815e-05
7.18936e-05
6.72872e-05
6.30087e-05
5.92113e-05
5.56954e-05
0.000106136
0.000106086
0.000105728
0.000105036
0.000104014
0.000102627
0.00010083
9.86362e-05
9.60817e-05
9.31148e-05
8.9673e-05
8.57731e-05
8.15234e-05
7.70837e-05
7.26218e-05
6.826e-05
6.4093e-05
6.01703e-05
5.66195e-05
5.33296e-05
9.5449e-05
9.55902e-05
9.54747e-05
9.50782e-05
9.43921e-05
9.33986e-05
9.2046e-05
9.03294e-05
8.82883e-05
8.58831e-05
8.30513e-05
7.97981e-05
7.62037e-05
7.23907e-05
6.84946e-05
6.46273e-05
6.08785e-05
5.73e-05
5.39977e-05
5.09113e-05
8.61142e-05
8.61801e-05
8.60099e-05
8.55889e-05
8.4909e-05
8.39227e-05
8.26054e-05
8.1e-05
7.90718e-05
7.67625e-05
7.40688e-05
7.10496e-05
6.7798e-05
6.44197e-05
6.10121e-05
5.76582e-05
5.44108e-05
5.13523e-05
4.8457e-05
7.75627e-05
7.77611e-05
7.77616e-05
7.75485e-05
7.71166e-05
7.64243e-05
7.54396e-05
7.41972e-05
7.26715e-05
7.08078e-05
6.85969e-05
6.60797e-05
6.33253e-05
6.04161e-05
5.74324e-05
5.4448e-05
5.1515e-05
4.86996e-05
4.5985e-05
6.98471e-05
7.0138e-05
7.02664e-05
7.02132e-05
6.99768e-05
6.95178e-05
6.88049e-05
6.78619e-05
6.66725e-05
6.51871e-05
6.3389e-05
6.1307e-05
5.89901e-05
5.65007e-05
5.39051e-05
5.12657e-05
4.86262e-05
4.60487e-05
4.35132e-05
6.3243e-05
6.3463e-05
6.35303e-05
6.3443e-05
6.31685e-05
6.26739e-05
6.1979e-05
6.10677e-05
5.98968e-05
5.84487e-05
5.67407e-05
5.48063e-05
5.26906e-05
5.04457e-05
4.81242e-05
4.57632e-05
4.34098e-05
4.10551e-05
5.70082e-05
5.72917e-05
5.7447e-05
5.74728e-05
5.73412e-05
5.70216e-05
5.65262e-05
5.58432e-05
5.49343e-05
5.37807e-05
5.23908e-05
5.07869e-05
4.90008e-05
4.70711e-05
4.5039e-05
4.29366e-05
4.07999e-05
3.86203e-05
5.13725e-05
5.16965e-05
5.19146e-05
5.2024e-05
5.20017e-05
5.18201e-05
5.14847e-05
5.09859e-05
5.02922e-05
4.93842e-05
4.8263e-05
4.69427e-05
4.54442e-05
4.37949e-05
4.20262e-05
4.01617e-05
3.82301e-05
3.62219e-05
4.66278e-05
4.68889e-05
4.70578e-05
4.71172e-05
4.70412e-05
4.68316e-05
4.64807e-05
4.59621e-05
4.52562e-05
4.43608e-05
4.3282e-05
4.20323e-05
4.06301e-05
3.90976e-05
3.74524e-05
3.5713e-05
3.38717e-05
4.20402e-05
4.23269e-05
4.25359e-05
4.26543e-05
4.26588e-05
4.25464e-05
4.23123e-05
4.19338e-05
4.13934e-05
4.06851e-05
3.981e-05
3.87742e-05
3.75882e-05
3.62665e-05
3.48203e-05
3.32614e-05
3.15803e-05
3.78876e-05
3.81876e-05
3.84223e-05
3.85819e-05
3.86453e-05
3.86067e-05
3.84639e-05
3.81976e-05
3.77906e-05
3.72358e-05
3.6531e-05
3.56772e-05
3.46785e-05
3.35432e-05
3.2277e-05
3.08856e-05
3.44364e-05
3.46847e-05
3.48709e-05
3.49759e-05
3.49925e-05
3.49192e-05
3.47402e-05
3.44398e-05
3.40101e-05
3.34464e-05
3.27461e-05
3.19087e-05
3.0937e-05
2.98326e-05
2.85953e-05
3.1038e-05
3.12914e-05
3.14929e-05
3.1626e-05
3.16821e-05
3.16608e-05
3.15488e-05
3.13328e-05
3.10041e-05
3.05563e-05
2.99843e-05
2.92845e-05
2.84556e-05
2.74952e-05
2.63995e-05
2.79618e-05
2.82134e-05
2.84215e-05
2.85715e-05
2.86551e-05
2.86718e-05
2.86106e-05
2.846e-05
2.82117e-05
2.78582e-05
2.73926e-05
2.68095e-05
2.61043e-05
2.52717e-05
2.43049e-05
2.51792e-05
2.54246e-05
2.56324e-05
2.57907e-05
2.58918e-05
2.59347e-05
2.59112e-05
2.58109e-05
2.56259e-05
2.53483e-05
2.49707e-05
2.44858e-05
2.3887e-05
2.3167e-05
2.23169e-05
2.26637e-05
2.28987e-05
2.31015e-05
2.32619e-05
2.3373e-05
2.34336e-05
2.3437e-05
2.33746e-05
2.32388e-05
2.3022e-05
2.27162e-05
2.23135e-05
2.18058e-05
2.11844e-05
2.04394e-05
2.06132e-05
2.08078e-05
2.09658e-05
2.10811e-05
2.11522e-05
2.1174e-05
2.11393e-05
2.10415e-05
2.08728e-05
2.06254e-05
2.0291e-05
1.98609e-05
1.93258e-05
1.86747e-05
1.85473e-05
1.87311e-05
1.88832e-05
1.89979e-05
1.90743e-05
1.91083e-05
1.90938e-05
1.90246e-05
1.88937e-05
1.86934e-05
1.84156e-05
1.80513e-05
1.75911e-05
1.70238e-05
1.66807e-05
1.68523e-05
1.69964e-05
1.71077e-05
1.71856e-05
1.72268e-05
1.7226e-05
1.7178e-05
1.70766e-05
1.69142e-05
1.6683e-05
1.63745e-05
1.5979e-05
1.5486e-05
1.49961e-05
1.51548e-05
1.52892e-05
1.53949e-05
1.54712e-05
1.55157e-05
1.55242e-05
1.54918e-05
1.5413e-05
1.5281e-05
1.50882e-05
1.48266e-05
1.44871e-05
1.40595e-05
1.34765e-05
1.3622e-05
1.3746e-05
1.38448e-05
1.39176e-05
1.39629e-05
1.39771e-05
1.39558e-05
1.38943e-05
1.37864e-05
1.36251e-05
1.34031e-05
1.31118e-05
1.27416e-05
1.22394e-05
1.23528e-05
1.24438e-05
1.25119e-05
1.25559e-05
1.2573e-05
1.25596e-05
1.25112e-05
1.24225e-05
1.22871e-05
1.20984e-05
1.18485e-05
1.15286e-05
1.09934e-05
1.10961e-05
1.1179e-05
1.12416e-05
1.12832e-05
1.13014e-05
1.12933e-05
1.12549e-05
1.11813e-05
1.10671e-05
1.09064e-05
1.0692e-05
9.87154e-06
9.9639e-06
1.00386e-05
1.00954e-05
1.01337e-05
1.01518e-05
1.01471e-05
1.0116e-05
1.00545e-05
9.95785e-06
9.82058e-06
9.63651e-06
8.86211e-06
8.94469e-06
9.01144e-06
9.06231e-06
9.09702e-06
9.11413e-06
9.11143e-06
9.08591e-06
9.03403e-06
8.95172e-06
8.83422e-06
8.6761e-06
7.95465e-06
8.0281e-06
8.08733e-06
8.13239e-06
8.1633e-06
8.17887e-06
8.17723e-06
8.15585e-06
8.11168e-06
8.04123e-06
7.9404e-06
7.80447e-06
7.20444e-06
7.25666e-06
7.29627e-06
7.32338e-06
7.33711e-06
7.3359e-06
7.31763e-06
7.27966e-06
7.21901e-06
7.13223e-06
7.01529e-06
6.46489e-06
6.51067e-06
6.54517e-06
6.56866e-06
6.58049e-06
6.57932e-06
6.56336e-06
6.53041e-06
6.47793e-06
6.403e-06
6.30224e-06
5.80136e-06
5.84126e-06
5.87111e-06
5.89123e-06
5.90116e-06
5.89977e-06
5.88555e-06
5.8567e-06
5.81107e-06
5.74621e-06
5.65924e-06
5.20645e-06
5.24106e-06
5.26667e-06
5.2837e-06
5.29181e-06
5.29005e-06
5.27719e-06
5.25172e-06
5.21185e-06
5.15554e-06
5.08036e-06
4.67332e-06
4.70316e-06
4.72502e-06
4.73929e-06
4.74571e-06
4.74356e-06
4.73178e-06
4.70911e-06
4.6741e-06
4.62505e-06
4.55993e-06
4.19582e-06
4.22148e-06
4.24002e-06
4.25181e-06
4.2567e-06
4.25413e-06
4.24321e-06
4.22291e-06
4.19203e-06
4.14916e-06
3.76838e-06
3.79037e-06
3.80595e-06
3.81559e-06
3.81914e-06
3.81616e-06
3.80594e-06
3.78765e-06
3.76027e-06
3.72269e-06
3.40476e-06
3.41777e-06
3.42551e-06
3.42791e-06
3.42455e-06
3.41492e-06
3.39831e-06
3.37393e-06
3.34085e-06
3.06005e-06
3.07084e-06
3.07691e-06
3.07829e-06
3.07463e-06
3.0655e-06
3.05034e-06
3.02852e-06
2.99927e-06
2.75178e-06
2.76065e-06
2.76534e-06
2.76587e-06
2.76199e-06
2.75332e-06
2.73944e-06
2.71983e-06
2.69388e-06
2.47556e-06
2.48283e-06
2.48636e-06
2.48621e-06
2.4822e-06
2.47402e-06
2.46133e-06
2.44371e-06
2.42067e-06
2.22715e-06
2.23304e-06
2.23564e-06
2.23501e-06
2.231e-06
2.22337e-06
2.21183e-06
2.19606e-06
2.17566e-06
2.00312e-06
2.00783e-06
2.00965e-06
2.00865e-06
2.0047e-06
1.99762e-06
1.98717e-06
1.97312e-06
1.80156e-06
1.80525e-06
1.80636e-06
1.80499e-06
1.80105e-06
1.7944e-06
1.78487e-06
1.77227e-06
1.62126e-06
1.62401e-06
1.62445e-06
1.62268e-06
1.61865e-06
1.61225e-06
1.60338e-06
1.59191e-06
1.46299e-06
1.4628e-06
1.46061e-06
1.4564e-06
1.45012e-06
1.44167e-06
1.431e-06
1.31967e-06
1.31889e-06
1.31628e-06
1.31187e-06
1.30559e-06
1.29737e-06
1.28728e-06
1.19349e-06
1.19259e-06
1.19004e-06
1.18605e-06
1.18018e-06
1.17248e-06
1.16347e-06
1.0939e-06
1.09272e-06
1.08991e-06
1.08615e-06
1.08036e-06
1.07268e-06
1.06457e-06
1.01323e-06
1.01159e-06
1.00816e-06
1.0039e-06
9.97513e-07
9.89019e-07
9.37151e-07
9.35796e-07
9.32642e-07
9.28617e-07
9.22562e-07
9.14277e-07
8.62427e-07
8.60465e-07
8.5664e-07
8.51915e-07
8.45473e-07
8.36488e-07
7.93097e-07
7.92058e-07
7.89261e-07
7.85368e-07
7.80045e-07
7.7274e-07
7.18065e-07
7.14481e-07
7.09091e-07
7.02993e-07
6.95938e-07
6.8518e-07
6.69848e-07
6.70128e-07
6.68621e-07
6.64902e-07
6.60581e-07
6.56592e-07
5.69239e-07
5.61595e-07
5.55216e-07
5.47631e-07
5.31173e-07
6.02866e-07
6.06186e-07
6.02572e-07
6.01515e-07
6.12665e-07
4.74222e-07
4.75185e-07
4.82263e-07
4.79282e-07
4.60341e-07
7.19251e-07
7.39298e-07
7.37369e-07
7.45987e-07
7.84612e-07
8.04583e-07
8.28228e-07
8.61946e-07
1.14904e-06
1.2161e-06
1.17247e-06
1.113e-06
)
;

boundaryField
{
    inlet
    {
        type            calculated;
        value           nonuniform List<scalar> 4(5.07409e-06 5.39921e-06 5.46838e-06 5.53222e-06);
    }
    outlet
    {
        type            calculated;
        value           nonuniform List<scalar> 0();
    }
    walls
    {
        type            calculated;
        value           nonuniform List<scalar> 
42
(
1.33437
1.54944
1.79052
2.0177
2.23552
2.44246
2.61893
2.76266
2.87478
2.95048
2.99498
3.00654
2.97847
2.91164
2.80296
2.65287
2.4567
2.21319
1.91707
1.57125
1.18497
0.794283
0.465071
0.278495
0.21743
0.244792
0.308711
0.382974
0.449669
0.496937
0.523417
0.53309
0.522789
0.494765
0.449239
1.1282
0.922569
0.715088
0.505364
0.321069
0.171864
0.0724895
)
;
    }
    frontAndBack
    {
        type            empty;
    }
    procBoundary5to0
    {
        type            processor;
        value           nonuniform List<scalar> 4(0.000592105 0.000585158 0.000577506 0.000567969);
    }
    procBoundary5to1
    {
        type            processor;
        value           nonuniform List<scalar> 
13
(
0.00335175
0.00250372
0.00250372
0.00200263
0.00169056
0.00169056
0.0013439
0.00113689
0.00113689
0.000927814
0.000767263
0.000659565
0.000659565
)
;
    }
    procBoundary5to4
    {
        type            processor;
        value           nonuniform List<scalar> 
95
(
0.00059753
0.000602055
0.000605556
0.000605556
0.000518656
0.000519673
0.000519673
0.000448488
0.000447694
0.000447694
0.000388422
0.000388422
0.000338979
0.000338979
0.000298223
0.00026273
0.00026273
0.000232274
0.000232274
0.000206453
0.000183732
0.000183732
0.000163981
0.000146694
0.000146694
0.000131343
0.000117989
0.000117989
0.000105906
9.50753e-05
8.58355e-05
8.58355e-05
7.71896e-05
6.94104e-05
6.28889e-05
6.28889e-05
5.66136e-05
5.09568e-05
4.62793e-05
4.62793e-05
4.16805e-05
3.75277e-05
3.41325e-05
3.41325e-05
3.07377e-05
2.76705e-05
2.49007e-05
2.24005e-05
2.03911e-05
2.03911e-05
1.83394e-05
1.64881e-05
1.48189e-05
1.33147e-05
1.21071e-05
1.21071e-05
1.08737e-05
9.76399e-06
8.76592e-06
7.86897e-06
7.13951e-06
7.13951e-06
6.40775e-06
5.75125e-06
5.16262e-06
4.63513e-06
4.16264e-06
3.73959e-06
3.38599e-06
3.38599e-06
3.04408e-06
2.73827e-06
2.46416e-06
2.21755e-06
1.99513e-06
1.79494e-06
1.61586e-06
1.4611e-06
1.4611e-06
1.31853e-06
1.19264e-06
1.09333e-06
1.01301e-06
9.36686e-07
8.62497e-07
7.92407e-07
7.20054e-07
6.67482e-07
5.75404e-07
5.75404e-07
5.98026e-07
4.71276e-07
7.01481e-07
7.5484e-07
1.14672e-06
)
;
    }
    procBoundary5to6
    {
        type            processor;
        value           nonuniform List<scalar> 
86
(
31.2641
11.709
14.8928
15.3158
9.97349
2.28133
0.157022
0.0663654
0
0
0
3.04031e-06
4.65764e-05
9.34455e-05
8.75428e-05
6.99822e-05
6.11798e-05
5.95193e-05
5.99484e-05
5.95656e-05
5.79134e-05
5.55696e-05
5.30559e-05
5.05823e-05
4.81725e-05
4.57896e-05
4.34169e-05
4.10559e-05
3.87112e-05
3.63992e-05
3.41319e-05
3.19148e-05
2.97602e-05
2.93582e-05
2.93582e-05
2.72145e-05
2.51562e-05
2.31905e-05
2.13228e-05
1.95563e-05
1.78935e-05
1.63354e-05
1.48818e-05
1.35311e-05
1.2281e-05
1.11282e-05
1.0416e-05
1.0416e-05
9.39868e-06
8.47131e-06
7.62821e-06
6.8636e-06
6.17175e-06
5.54687e-06
4.98355e-06
4.47646e-06
4.09264e-06
4.09264e-06
3.67352e-06
3.29794e-06
2.96169e-06
2.66085e-06
2.39161e-06
2.15014e-06
1.95512e-06
1.95512e-06
1.75635e-06
1.57764e-06
1.41799e-06
1.27519e-06
1.15263e-06
1.05489e-06
9.80538e-07
9.80538e-07
9.0579e-07
8.27461e-07
7.64265e-07
6.75687e-07
6.47368e-07
5.2361e-07
6.0088e-07
4.67541e-07
8.07737e-07
8.07737e-07
8.65738e-07
1.46531e-06
)
;
    }
}


// ************************************************************************* //
