/*--------------------------------*- C++ -*----------------------------------*\
| =========                 |                                                 |
| \\      /  F ield         | OpenFOAM: The Open Source CFD Toolbox           |
|  \\    /   O peration     | Version:  2306                                  |
|   \\  /    A nd           | Website:  www.openfoam.com                      |
|    \\/     M anipulation  |                                                 |
\*---------------------------------------------------------------------------*/
FoamFile
{
    version     2.0;
    format      ascii;
    arch        "LSB;label=32;scalar=64";
    class       volSymmTensorField;
    location    "750";
    object      turbulenceProperties:R;
}
// * * * * * * * * * * * * * * * * * * * * * * * * * * * * * * * * * * * * * //

dimensions      [0 2 -2 0 0 0 0];

internalField   nonuniform List<symmTensor> 
1340
(
(0.0144987 0.00306874 -6.84736e-22 0.0120404 -1.6136e-20 0.0134172)
(0.0172866 0.00364567 -9.29582e-23 0.0136447 1.04863e-19 0.0155754)
(0.0210786 0.00423414 -2.14381e-20 0.0153257 -3.37288e-19 0.0184316)
(0.0262504 0.00499593 9.57184e-20 0.0176186 7.06455e-19 0.0222311)
(0.0326216 0.00571449 -1.87824e-19 0.0200522 -6.93568e-19 0.0266719)
(0.0409538 0.00622485 -1.47709e-19 0.0227818 -3.86291e-19 0.0323711)
(0.051733 0.00649515 2.87122e-19 0.0261171 1.10314e-18 0.0395674)
(0.0651914 0.00618101 -7.49143e-19 0.0300846 -2.03779e-18 0.0484255)
(0.0821902 0.0049164 -1.89717e-19 0.0351309 5.55269e-19 0.0596894)
(0.10357 0.00243289 5.72954e-19 0.0419321 1.17571e-18 0.0740118)
(0.130614 -0.00179553 1.4945e-18 0.0513613 5.46519e-19 0.0925367)
(0.165468 -0.00835549 -3.39844e-18 0.0647917 -3.1563e-18 0.117021)
(0.211089 -0.0181758 6.49696e-19 0.0840949 8.38587e-19 0.1499)
(0.272353 -0.032849 2.6147e-18 0.112291 1.23916e-18 0.195176)
(0.357552 -0.0550344 -3.9951e-18 0.154536 -6.24079e-18 0.259668)
(0.479504 -0.0890629 -4.30058e-18 0.21919 -2.54666e-18 0.354038)
(0.663283 -0.143542 1.90116e-17 0.322812 1.76039e-17 0.49944)
(0.940194 -0.230775 1.7732e-17 0.488981 3.35505e-17 0.723346)
(1.4174 -0.387142 -3.5229e-17 0.789752 -5.46085e-17 1.11644)
(2.14079 -0.639977 -1.37403e-18 1.27811 1.45138e-17 1.72766)
(3.7508 -1.21244 -2.71836e-17 2.39975 5.19718e-17 3.10433)
(6.10066 -2.11282 -1.24308e-17 4.18495 4.18509e-17 5.18196)
(13.8357 -5.12735 -1.43109e-16 10.2534 -6.41703e-16 12.1227)
(25.9907 -10.3106 3.31416e-16 21.0507 5.58831e-16 23.6459)
(27.639 -11.647 4.241e-17 24.5408 -7.1228e-16 26.1515)
(25.5062 -11.2287 3.6577e-16 24.4645 5.8122e-16 24.9681)
(24.4005 -11.0446 -8.18438e-17 24.7221 -7.84348e-17 24.5164)
(24.3312 -11.2278 2.74482e-16 25.6862 2.3054e-16 24.9714)
(24.4171 -11.4419 7.28991e-16 26.7063 1.20837e-15 25.5369)
(24.1232 -11.4548 4.00554e-16 27.275 1.99746e-15 25.6866)
(23.3969 -11.2406 -1.41145e-15 27.3109 -1.93136e-15 25.3565)
(22.3243 -10.8341 -4.74901e-16 26.8609 -7.26108e-16 24.6083)
(20.8811 -10.2206 -3.22512e-17 25.8533 -4.3679e-15 23.3896)
(19.0961 -9.41375 -2.58307e-15 24.2909 -7.29933e-15 21.7166)
(16.9511 -8.40546 1.00624e-15 22.1153 9.23151e-16 19.5545)
(0.0120301 0.00257345 1.65925e-21 0.0106522 3.85337e-20 0.0113951)
(0.0101308 0.00212441 -2.3732e-21 0.00934046 1.70649e-23 0.00982536)
(0.00808313 0.00164666 -1.23391e-20 0.00782729 -8.64903e-20 0.00799973)
(0.00638588 0.00123967 2.95488e-21 0.00644522 5.55273e-20 0.00644592)
(0.0048637 0.000879183 2.15763e-21 0.00505102 -1.00496e-20 0.00497246)
(0.00355262 0.000586709 -1.7019e-20 0.00372634 5.57118e-20 0.00363918)
(0.00253013 0.000377466 -9.14019e-20 0.00261695 7.35651e-20 0.0025572)
(0.00226707 -0.000155249 4.14166e-23 0.00189643 1.34947e-21 0.00205172)
(0.00222406 -0.000181973 9.65227e-21 0.00191883 2.33896e-20 0.00203798)
(0.00215863 -0.000204454 -8.83522e-21 0.0019412 -1.55767e-20 0.00201037)
(0.00205931 -0.00021172 -5.88762e-21 0.0019265 -1.67695e-20 0.00194814)
(0.00192972 -0.000206755 3.91872e-20 0.00187662 7.60562e-20 0.00185481)
(0.00178982 -0.00019331 1.50776e-20 0.00180978 2.33914e-20 0.00174787)
(0.00164015 -0.000173016 7.08532e-20 0.00171467 6.50922e-20 0.00162238)
(0.00148395 -0.000149084 -3.63229e-20 0.00159447 -6.98999e-21 0.00148233)
(0.00133653 -0.000125537 5.11405e-20 0.001468 3.54371e-20 0.00134398)
(0.00119891 -0.000104531 -1.82199e-21 0.00133681 7.77955e-23 0.00120848)
(0.00107268 -8.69447e-05 -6.96685e-20 0.00120611 -5.95212e-20 0.00107993)
(0.000987018 -7.80233e-05 9.33782e-20 0.00111434 1.16246e-19 0.00098911)
(0.000976209 -8.37159e-05 6.53833e-20 0.0011064 3.28555e-20 0.000969182)
(0.00107582 -0.000114017 -1.70905e-20 0.00122304 9.26958e-21 0.00104863)
(0.00141246 -0.000214135 -1.40971e-19 0.00159267 2.32055e-20 0.00132274)
(0.00229537 -0.000517886 3.75372e-19 0.00244933 4.29552e-19 0.00199398)
(0.00462296 -0.00138372 7.64323e-19 0.00434309 -8.35783e-19 0.00368223)
(0.0101275 -0.00334363 -4.16299e-18 0.00824201 -5.39581e-18 0.00776748)
(0.0250016 -0.00841373 4.90689e-19 0.018463 7.23922e-18 0.0193062)
(0.0614975 -0.0208087 7.25157e-18 0.0434135 -2.03664e-18 0.0486432)
(0.180876 -0.0622086 1.54068e-17 0.126601 6.10563e-18 0.147158)
(0.492145 -0.174177 -2.34962e-17 0.350636 -2.25e-17 0.412093)
(1.48011 -0.545504 7.42553e-17 1.09747 1.87421e-16 1.27709)
(4.62706 -1.78527 1.55742e-19 3.61989 -1.54824e-16 4.11931)
(8.81692 -3.54935 -2.73526e-16 7.29398 1.69786e-16 8.09103)
(12.9212 -5.39679 -9.72196e-17 11.2864 -6.60455e-16 12.1854)
(16.5533 -7.14808 1.18375e-18 15.2745 7.56865e-17 16.0218)
(18.8616 -8.39154 -2.94439e-16 18.3774 -4.44675e-16 18.7329)
(18.9012 -8.63396 -4.9353e-16 19.4262 -2.83224e-15 19.2628)
(16.9063 -7.89599 -1.66966e-16 18.2791 -3.54607e-15 17.6546)
(14.08 -6.69109 5.22907e-16 15.9338 4.89621e-15 15.0195)
(11.3785 -5.47762 -9.55166e-16 13.3931 -3.75649e-17 12.3586)
(9.25551 -4.49807 -7.18921e-15 11.254 1.34201e-15 10.2101)
(7.67114 -3.75333 8.77198e-15 9.56236 1.5951e-14 8.5723)
(6.4798 -3.18625 -1.48861e-15 8.23137 -8.63715e-16 7.31957)
(0.00227291 -0.000117567 3.19295e-21 0.00184999 7.89803e-21 0.00203578)
(0.00226157 -7.76371e-05 -4.39124e-21 0.00180466 -3.31924e-20 0.00200878)
(0.00221 -2.67194e-05 -6.52089e-21 0.0017391 -3.88994e-20 0.00195513)
(0.00211612 3.07932e-05 -2.5306e-21 0.00166073 5.87262e-20 0.00187426)
(0.00197222 8.48925e-05 6.95055e-22 0.00156958 1.5678e-20 0.00176326)
(0.00177352 0.0001278 1.38547e-20 0.00146038 -5.32127e-20 0.00161494)
(0.00151784 -0.000120502 6.64821e-22 0.00125059 9.19758e-22 0.00139946)
(0.00147803 -0.000143657 -1.0533e-20 0.00126633 -2.55916e-20 0.00139063)
(0.00140943 -0.000159865 -2.32742e-21 0.00127072 -1.17245e-21 0.0013616)
(0.0013199 -0.000165123 8.82558e-21 0.00126219 1.90636e-20 0.00131711)
(0.00122892 -0.000160346 -2.79862e-20 0.00125142 -5.69224e-20 0.00126979)
(0.0011352 -0.000144947 -3.19398e-20 0.00123354 -5.23477e-20 0.00121757)
(0.00104698 -0.000120401 -6.4951e-20 0.00120871 -9.60033e-20 0.00116503)
(0.000973122 -9.03613e-05 -5.24979e-21 0.00118112 -7.80402e-22 0.00111757)
(0.000915121 -5.71726e-05 -2.87273e-20 0.00115183 -6.8414e-20 0.0010768)
(0.000875398 -2.4135e-05 1.20772e-19 0.00112359 1.37431e-19 0.00104541)
(0.000850746 6.58751e-06 -1.98841e-20 0.00109582 2.70453e-20 0.001021)
(0.000842032 3.35378e-05 1.36416e-20 0.00107453 8.39388e-21 0.00100686)
(0.000846833 5.60694e-05 -9.40046e-20 0.00106212 -1.19644e-19 0.00100267)
(0.00086409 7.53376e-05 6.12837e-20 0.00106195 -5.68931e-21 0.00101023)
(0.000877784 8.91822e-05 1.77918e-20 0.00105537 5.5212e-20 0.0010109)
(0.000866381 9.37253e-05 2.10654e-20 0.00101735 1.01101e-20 0.000980275)
(0.00074616 7.23368e-05 -7.6666e-20 0.000843947 -4.4652e-20 0.000819782)
(0.000682225 6.29154e-05 5.86788e-20 0.000756158 4.3741e-20 0.00073711)
(0.000235621 7.58896e-06 2.27708e-21 0.000243627 2.9747e-23 0.000241401)
(0.00344832 0.00149605 -1.91935e-18 0.00492029 -2.88766e-19 0.0044663)
(0.0066289 0.00332872 5.05089e-18 0.00978093 -1.98365e-18 0.00868887)
(0.000398981 4.61285e-05 2.56864e-21 0.000442613 4.4042e-20 0.000425367)
(0.00324305 0.00152399 5.90615e-18 0.00599923 -8.72332e-18 0.0044861)
(0.0117963 -0.00459818 -2.24092e-18 0.00956649 -2.3946e-18 0.0103225)
(0.131153 -0.0524775 4.34078e-18 0.109202 1.53297e-17 0.11751)
(0.458997 -0.189938 -2.80486e-17 0.399861 7.6658e-18 0.423299)
(1.14724 -0.489739 1.47079e-17 1.04709 1.14206e-18 1.08816)
(2.53601 -1.11087 -1.42673e-17 2.41586 7.61734e-17 2.46511)
(4.90983 -2.19793 -4.39883e-16 4.86612 2.45965e-16 4.87778)
(7.94992 -3.62935 2.16852e-16 8.19278 3.52998e-16 8.06655)
(10.5638 -4.9129 1.5634e-15 11.3329 -5.86629e-16 10.9561)
(11.6759 -5.52311 -2.76449e-15 13.0449 2.16205e-15 12.382)
(11.1862 -5.36666 5.13865e-16 12.9814 9.32657e-15 12.1074)
(9.87471 -4.78692 -4.86915e-17 11.8324 -6.36725e-15 10.8662)
(8.45562 -4.12812 3.05749e-15 10.3838 -2.30069e-15 9.42192)
(0.0015522 -9.11044e-05 -1.3629e-21 0.00123878 -2.59439e-21 0.00140939)
(0.00156568 -5.92718e-05 -5.15643e-21 0.0012237 -7.29602e-21 0.00140584)
(0.0015711 -2.04301e-05 2.13536e-20 0.00121257 4.60391e-20 0.00140042)
(0.00154388 2.08073e-05 4.37932e-21 0.00119225 -5.18725e-21 0.00137349)
(0.00148458 6.12863e-05 3.01557e-21 0.00116497 -3.39741e-20 0.00132791)
(0.00138226 9.45469e-05 -9.39708e-21 0.0011207 2.42904e-20 0.00125262)
(0.00128851 -9.76977e-05 3.60022e-21 0.00106031 6.15888e-21 0.00116908)
(0.00127314 -0.000115777 -5.01347e-21 0.00108091 -9.03767e-21 0.00117113)
(0.00124326 -0.000131401 -2.27991e-21 0.00110008 -1.25637e-21 0.00116414)
(0.00120671 -0.000141543 2.70848e-20 0.00111814 3.96382e-20 0.00115342)
(0.00115892 -0.000144743 1.72144e-20 0.00112689 3.12031e-20 0.0011322)
(0.00110138 -0.000141115 2.18408e-20 0.00112596 4.19419e-20 0.00110097)
(0.00103936 -0.000131397 3.33735e-20 0.00111479 3.86112e-20 0.00106236)
(0.000972773 -0.000116712 -1.9162e-20 0.00108965 -2.97579e-20 0.00101448)
(0.000904794 -9.88104e-05 -6.86079e-20 0.00105273 -6.79745e-20 0.000959838)
(0.000836921 -7.97129e-05 8.92102e-20 0.00100427 5.02401e-20 0.000899698)
(0.000769938 -6.08834e-05 7.51611e-20 0.000946101 6.36552e-20 0.000835245)
(0.000703905 -4.35106e-05 9.75092e-20 0.000879742 4.67115e-20 0.000767497)
(0.000638515 -2.83866e-05 -1.60978e-19 0.000806703 -5.15547e-20 0.000697224)
(0.000573909 -1.58315e-05 -1.37488e-19 0.000729243 -9.23583e-20 0.000625763)
(0.000509962 -5.80837e-06 1.8285e-19 0.000648873 5.75125e-20 0.000553674)
(0.000443692 2.90187e-06 3.71852e-20 0.000563442 2.28992e-20 0.000479006)
(0.000377125 1.01756e-05 -2.7128e-20 0.000473941 2.79994e-21 0.000403668)
(0.000324518 1.61276e-05 -8.62691e-20 0.000400465 -5.65201e-20 0.000343907)
(0.000257508 1.63102e-05 1.54548e-20 0.000301967 -5.92959e-21 0.000268537)
(0.000146601 6.38688e-06 2.18331e-20 0.000157725 6.73623e-21 0.000149547)
(1.9523e-05 1.07802e-07 -4.08694e-22 1.96554e-05 -1.17555e-22 1.95642e-05)
(5.56902e-05 7.725e-07 1.18427e-21 5.6422e-05 1.69158e-22 5.59548e-05)
(0 0 -0 0 -0 0)
(0.00243658 0.00097975 -7.60679e-19 0.00290885 3.73075e-19 0.0026103)
(0.0134981 0.00627628 3.48408e-18 0.0149306 -1.11211e-18 0.0138144)
(0.0289044 0.0127483 -7.40395e-18 0.028486 9.82936e-18 0.0278168)
(0.0431539 0.0176027 1.52032e-19 0.0373518 -3.47163e-19 0.0388152)
(0.00120536 0.000345509 4.62203e-19 0.00074614 -1.64174e-19 0.000914736)
(0.0266735 -0.00951307 5.83596e-18 0.0192704 1.47685e-17 0.0222696)
(0.248498 -0.106967 2.64822e-17 0.229992 -1.19924e-16 0.237393)
(1.05971 -0.476995 -6.63073e-17 1.06253 -3.9525e-16 1.05782)
(2.81274 -1.29791 2.07558e-15 2.96894 5.51142e-16 2.88677)
(5.15325 -2.4232 2.96983e-15 5.68109 6.72361e-16 5.41585)
(7.00267 -3.3435 -1.64316e-15 8.02742 -2.23395e-15 7.52016)
(7.70616 -3.72213 -7.33249e-15 9.13107 1.42189e-15 8.42754)
(0.00128954 -7.51058e-05 -5.52712e-21 0.00103296 -1.12538e-20 0.00115766)
(0.00127903 -5.12169e-05 -1.90128e-21 0.00100504 7.68435e-21 0.00113892)
(0.00125241 -2.16722e-05 1.83045e-20 0.000970773 3.49006e-20 0.00111007)
(0.00121286 9.52561e-06 -7.83638e-21 0.000937747 -4.40089e-22 0.00107456)
(0.00115581 3.9981e-05 6.82799e-21 0.000903922 4.32683e-20 0.00102992)
(0.000964184 -7.43941e-05 -5.1339e-21 0.000794144 -7.64719e-21 0.00088088)
(0.000948036 -8.78633e-05 1.00848e-21 0.000806674 1.60685e-21 0.000879836)
(0.000922323 -9.91031e-05 6.11157e-21 0.000818488 6.63757e-21 0.000873156)
(0.000888686 -0.000105918 -3.75458e-20 0.000827165 -5.33656e-20 0.000861434)
(0.000847358 -0.000107502 -2.74899e-20 0.000830127 -3.2151e-20 0.000843039)
(0.000799173 -0.000103634 6.42542e-20 0.000826518 7.69153e-20 0.000817872)
(0.000747513 -9.45867e-05 -6.82382e-20 0.000815504 -8.4734e-20 0.000787526)
(0.00069433 -8.11871e-05 -3.08597e-20 0.000796209 -2.05295e-20 0.000752343)
(0.000641643 -6.45649e-05 -7.33983e-20 0.000769004 -5.49259e-20 0.000713452)
(0.000592379 -4.63118e-05 -1.36858e-20 0.000735704 -2.49033e-20 0.000673371)
(0.000547813 -2.77255e-05 9.19856e-21 0.000697763 -3.31923e-21 0.000633321)
(0.000509147 -1.00034e-05 -5.03838e-20 0.000657262 -6.68227e-20 0.000594941)
(0.00047737 5.89106e-06 1.64256e-19 0.000616748 1.12498e-19 0.000559946)
(0.000452673 1.93872e-05 -5.4163e-20 0.000578284 -9.47209e-21 0.000529347)
(0.000434921 3.04247e-05 -1.33057e-19 0.000543484 -5.81845e-20 0.000503893)
(0.000422111 3.85822e-05 8.84684e-20 0.000512411 1.77041e-21 0.000482205)
(0.000408383 4.36492e-05 -6.45692e-20 0.000480703 -3.7242e-20 0.000458904)
(0.000388192 4.55318e-05 8.81703e-22 0.00044253 4.71427e-20 0.000428482)
(0.000368671 4.66353e-05 -1.59176e-20 0.000407868 -1.25054e-20 0.000400165)
(0.000334568 4.30861e-05 -1.10715e-19 0.000358615 -7.64956e-20 0.000356247)
(0.000270314 3.08533e-05 6.45632e-20 0.000280902 6.26781e-20 0.000281399)
(0.000165475 1.19223e-05 6.23713e-22 0.000168002 -1.92285e-20 0.00016844)
(1.77409e-05 1.27003e-07 6.98396e-23 1.7757e-05 2.13699e-23 1.77616e-05)
(5.15756e-06 9.45539e-09 1.32214e-23 5.15771e-06 -5.92155e-25 5.1583e-06)
(0 0 -0 0 -0 0)
(0 0 0 0 0 0)
(0 0 -0 0 0 0)
(0.000557392 8.56063e-05 -1.36006e-20 0.000528827 -8.42385e-21 0.000543958)
(0.0160081 0.00653678 2.15057e-20 0.0135553 1.68502e-18 0.0147988)
(0.00713717 0.00283698 -8.26585e-18 0.00585127 6.82415e-19 0.00648577)
(0.021701 0.00819684 -1.03941e-17 0.0165393 1.73806e-18 0.0190551)
(0.0459017 0.0119904 2.76822e-17 0.0250133 -1.61565e-16 0.0351176)
(0.241327 -0.0984708 5.76017e-16 0.204692 -7.0679e-16 0.221767)
(1.27389 -0.584174 -2.9826e-15 1.32716 1.58973e-16 1.29754)
(3.15334 -1.48977 4.83424e-15 3.51948 1.81629e-15 3.33369)
(0.000973466 -5.79984e-05 3.27632e-21 0.000780253 1.33925e-21 0.000878656)
(0.000975238 -4.04187e-05 -1.18514e-20 0.00076659 -1.70412e-20 0.000871922)
(0.000967264 -1.88376e-05 1.5134e-21 0.000749905 7.7116e-21 0.000859506)
(0.000946607 4.46413e-06 6.463e-21 0.000731287 -2.15633e-20 0.000839416)
(0.000911514 2.7723e-05 -5.25595e-20 0.000710673 -7.55782e-20 0.000811421)
(0.000790889 -6.10369e-05 4.49952e-21 0.000651711 5.22684e-21 0.000720668)
(0.000783252 -7.19175e-05 -1.13148e-20 0.000665456 -1.36e-20 0.000723782)
(0.000768841 -8.14804e-05 -9.13694e-22 0.00067951 -1.89064e-21 0.000723263)
(0.000750132 -8.80968e-05 -4.71601e-21 0.000693159 -2.45938e-21 0.00072057)
(0.000725967 -9.09726e-05 3.73925e-20 0.000703296 4.30341e-20 0.000713342)
(0.000696862 -8.99693e-05 2.86742e-20 0.000709706 2.36586e-20 0.000701591)
(0.000664843 -8.51191e-05 3.64639e-22 0.00071121 1.1563e-20 0.000685969)
(0.000630415 -7.68323e-05 7.11428e-20 0.000706162 6.89332e-20 0.000665792)
(0.000594642 -6.58152e-05 -8.88552e-21 0.000694361 -1.18647e-21 0.000641438)
(0.000558768 -5.31294e-05 -2.4573e-20 0.000675782 -1.15384e-20 0.00061362)
(0.000523167 -3.97212e-05 4.82709e-20 0.000650568 1.80139e-20 0.000582541)
(0.000488366 -2.64974e-05 -6.49867e-20 0.000619627 -2.51869e-20 0.00054893)
(0.000454737 -1.4277e-05 -1.1472e-19 0.000584126 -8.96763e-20 0.000513598)
(0.000422333 -3.55648e-06 -4.79317e-20 0.000545256 1.23546e-20 0.000477153)
(0.000391158 5.36855e-06 2.069e-19 0.000504247 9.34419e-20 0.000440268)
(0.000359898 1.22824e-05 -1.49586e-19 0.00046063 -6.81808e-20 0.000402106)
(0.000326229 1.76145e-05 -3.5985e-20 0.000412333 3.12061e-20 0.000360969)
(0.000291751 2.13135e-05 6.72617e-20 0.000361964 4.38422e-20 0.00031891)
(0.000260291 2.37537e-05 -4.27155e-20 0.000315149 -3.46648e-22 0.000280502)
(0.000232261 2.49197e-05 -1.40532e-20 0.000272653 3.51843e-20 0.000246278)
(0.000211837 2.584e-05 2.02377e-20 0.000239976 -1.30009e-20 0.00022081)
(0.000190762 2.43789e-05 -1.44812e-19 0.00020649 1.40181e-20 0.000195003)
(0.000167617 1.99966e-05 1.1573e-21 0.000172389 -1.94178e-20 0.000168009)
(6.6242e-05 3.13938e-06 -1.25652e-20 6.58177e-05 1.26393e-21 6.58497e-05)
(8.5572e-06 5.08683e-08 5.50572e-23 8.53441e-06 1.61295e-23 8.54406e-06)
(4.43244e-06 1.32918e-08 -4.63765e-24 4.42357e-06 -1.95573e-23 4.42761e-06)
(1.98435e-06 2.6321e-09 -1.95723e-25 1.98236e-06 -1.83525e-26 1.98328e-06)
(1.20014e-07 9.26204e-12 1.54981e-27 1.20008e-07 3.80115e-29 1.20011e-07)
(0 0 0 0 -0 0)
(0.000930142 0.000266522 2.86849e-19 0.000758349 4.62182e-19 0.000841869)
(0.00517225 0.00194824 -5.68993e-19 0.00395743 1.17557e-18 0.00454827)
(0.0280075 0.0105437 -3.51895e-17 0.0212553 1.1433e-17 0.024549)
(0.00543952 0.00198144 -1.057e-17 0.00398513 -7.12481e-18 0.00470075)
(0.0740189 0.023509 -9.21986e-17 0.0467986 1.01895e-16 0.0602813)
(0.164272 -0.0499507 6.48707e-16 0.100016 -7.43672e-16 0.131663)
(0.000792765 -4.80001e-05 -4.92777e-21 0.000636441 -7.21169e-21 0.000714459)
(0.000789482 -3.41682e-05 1.75312e-21 0.00062175 4.84247e-22 0.00070534)
(0.000779552 -1.72546e-05 4.69967e-21 0.000605173 4.77318e-21 0.000692443)
(0.000761697 1.01201e-06 -4.23464e-21 0.000588401 -1.96851e-20 0.000675065)
(0.000639183 -4.98186e-05 -2.21411e-21 0.000527373 -2.08502e-21 0.00058339)
(0.00063308 -5.84617e-05 6.33372e-23 0.000538446 -5.61294e-22 0.000586105)
(0.000622173 -6.61051e-05 1.57117e-20 0.000550204 1.71349e-20 0.00058648)
(0.000607744 -7.14359e-05 6.15396e-22 0.000561572 -3.30742e-22 0.00058509)
(0.000589316 -7.38853e-05 -5.41819e-20 0.000570599 -5.75496e-20 0.000580517)
(0.000566912 -7.32728e-05 1.24508e-20 0.000576816 1.46755e-20 0.000572506)
(0.000541867 -6.95307e-05 1.21534e-20 0.000579186 7.52734e-21 0.000561339)
(0.000514739 -6.29108e-05 -2.81429e-20 0.000576524 -4.09755e-20 0.000546647)
(0.000486226 -5.38534e-05 -4.20517e-20 0.00056842 -2.48123e-20 0.000528532)
(0.000457397 -4.31086e-05 1.59571e-20 0.00055476 2.10121e-20 0.000507553)
(0.000428834 -3.13952e-05 -9.55828e-20 0.000535709 -7.90979e-20 0.000484046)
(0.000401135 -1.94432e-05 6.36612e-20 0.000511857 4.05278e-20 0.000458604)
(0.000374895 -7.98437e-06 1.29394e-19 0.000484176 7.33449e-20 0.000432034)
(0.000350508 2.47436e-06 1.66813e-19 0.000453806 6.28615e-20 0.00040509)
(0.000328181 1.15396e-05 -2.23184e-19 0.000421811 -1.67167e-19 0.000378412)
(0.000308308 1.89993e-05 1.20117e-19 0.000389576 9.18383e-20 0.000352926)
(0.000291584 2.46461e-05 1.28573e-19 0.000359141 2.97143e-20 0.000329747)
(0.000276633 2.82823e-05 8.20694e-20 0.000330357 -1.78889e-20 0.000307918)
(0.000261052 2.99876e-05 4.19474e-20 0.00030152 2.23728e-20 0.00028539)
(0.000244059 3.0061e-05 -5.50569e-21 0.00027262 3.07865e-20 0.000261885)
(0.000226598 2.91153e-05 4.21815e-20 0.000245135 -6.95749e-21 0.000238696)
(0.00021011 2.76651e-05 1.41969e-19 0.000220241 5.97798e-20 0.000217256)
(0.000202669 2.77693e-05 -6.45856e-20 0.000204996 -8.70497e-21 0.000205373)
(0.000182259 2.36285e-05 1.63387e-19 0.000176076 3.85038e-20 0.000180192)
(0.000131382 1.28922e-05 -1.70859e-20 0.000122527 6.65616e-22 0.000127442)
(8.06706e-05 5.11243e-06 -3.3605e-21 7.46449e-05 2.33886e-21 7.78328e-05)
(3.03298e-05 7.79543e-07 1.97709e-22 2.90191e-05 8.56331e-23 2.97006e-05)
(1.48948e-06 2.02496e-09 -2.37194e-24 1.48529e-06 1.00763e-24 1.48747e-06)
(2.49991e-06 5.88384e-09 -1.83493e-23 2.48699e-06 -1.0491e-23 2.49372e-06)
(2.15542e-07 4.52864e-11 -1.17694e-26 2.1545e-07 9.20385e-26 2.15498e-07)
(0 0 0 0 -0 0)
(0 0 0 0 0 0)
(0.00071927 0.000191005 -1.50673e-18 0.000523205 1.41555e-18 0.000621829)
(0.0226354 0.0077937 -1.63459e-17 0.0154814 1.0079e-17 0.0190539)
(0.0173204 0.00580821 -3.77903e-17 0.0115239 1.46876e-18 0.0144323)
(0.000641261 -3.95807e-05 7.01724e-22 0.000515588 2.30604e-21 0.000578728)
(0.000639596 -2.8712e-05 1.07061e-20 0.000504439 9.46092e-21 0.000572082)
(0.000633082 -1.5425e-05 -1.06858e-20 0.000491983 -3.84851e-21 0.000562747)
(0.00062013 -9.55769e-07 2.64168e-20 0.000479049 2.55193e-20 0.000549653)
(0.00052952 -4.1641e-05 -9.91238e-23 0.000437483 -2.88156e-22 0.000483398)
(0.000525891 -4.87229e-05 -6.95128e-22 0.000447646 -5.68921e-22 0.000486765)
(0.000518791 -5.50864e-05 -2.04959e-21 0.000458736 -1.82404e-21 0.000488655)
(0.000509194 -5.96903e-05 -1.13313e-20 0.000469902 -1.04507e-20 0.000489455)
(0.000496771 -6.20805e-05 1.40268e-20 0.000479658 1.56792e-20 0.000488101)
(0.000481442 -6.21175e-05 7.33362e-20 0.00048771 6.20524e-20 0.000484394)
(0.000464248 -5.97103e-05 -4.42356e-21 0.000493255 -1.20986e-20 0.000478533)
(0.000445452 -5.4997e-05 -3.2103e-20 0.000495208 -2.65645e-20 0.000470054)
(0.00042547 -4.82565e-05 8.48511e-20 0.000493164 7.80552e-20 0.000458941)
(0.00040504 -4.00251e-05 3.41582e-20 0.000486823 2.15904e-20 0.000445461)
(0.000384389 -3.08241e-05 -2.78238e-20 0.000475949 -4.74826e-21 0.000429565)
(0.000363879 -2.12083e-05 -1.03701e-19 0.000460787 -5.03436e-20 0.000411565)
(0.000343793 -1.17675e-05 -1.94567e-19 0.000441749 -1.48147e-19 0.000391822)
(0.000324236 -2.96069e-06 -2.24048e-19 0.000419389 -1.3384e-19 0.000370642)
(0.000305262 4.84012e-06 -1.26643e-20 0.000394398 5.11667e-20 0.000348401)
(0.000286928 1.13456e-05 1.11577e-20 0.000367624 -2.42149e-20 0.000325548)
(0.000268613 1.6404e-05 -1.68056e-19 0.000339114 -7.71534e-20 0.000301809)
(0.000249413 2.00382e-05 -1.09366e-19 0.000308415 -4.7112e-20 0.000276712)
(0.000230076 2.23339e-05 2.79029e-20 0.000277053 2.55597e-21 0.000251413)
(0.000211922 2.34525e-05 1.16241e-19 0.000247253 1.5641e-20 0.000227673)
(0.000195912 2.3626e-05 -4.88035e-20 0.000220557 -2.02166e-20 0.00020667)
(0.000183001 2.31923e-05 -3.03181e-20 0.000198269 -5.71205e-20 0.000189455)
(0.000174302 2.26885e-05 5.81419e-21 0.000181147 2.14774e-21 0.000176901)
(0.000170341 2.2588e-05 -5.64938e-20 0.000168745 -5.48098e-20 0.000169016)
(0.000161641 2.08037e-05 4.19281e-20 0.000151556 9.01313e-21 0.000156281)
(0.000141857 1.63553e-05 1.33463e-20 0.000126261 -9.55512e-21 0.000133813)
(0.000111411 1.04063e-05 4.90764e-22 9.59537e-05 -3.33822e-21 0.000103471)
(7.62328e-05 5.05304e-06 8.88863e-21 6.55941e-05 2.68168e-21 7.07981e-05)
(4.52843e-05 1.78452e-06 2.93113e-21 4.00726e-05 2.13772e-21 4.26449e-05)
(3.42028e-06 1.00802e-08 2.04877e-22 3.37844e-06 1.09382e-23 3.39922e-06)
(2.0453e-06 2.95138e-09 -3.67336e-23 2.02807e-06 4.19528e-23 2.03665e-06)
(7.5537e-08 3.9383e-12 1.36054e-25 7.55122e-08 -1.83447e-25 7.55246e-08)
(0 0 0 0 0 0)
(0 0 -0 0 0 0)
(0.0026232 0.000761563 4.83168e-18 0.00154305 -2.21072e-18 0.00208333)
(0.000530056 -3.33572e-05 -1.83622e-21 0.000426906 -2.82426e-21 0.000478562)
(0.000527993 -2.45763e-05 -5.78025e-21 0.000417098 -4.04186e-21 0.000472505)
(0.000522468 -1.38758e-05 8.98247e-21 0.000406499 3.38167e-21 0.000464599)
(0.000512101 -2.16585e-06 -3.71993e-20 0.000395672 -2.71692e-20 0.000453895)
(0.000441363 -3.50944e-05 -3.49997e-21 0.000365244 -2.55668e-21 0.000403278)
(0.000438826 -4.09188e-05 -1.10347e-20 0.000374073 -9.90376e-21 0.00040652)
(0.000433697 -4.61852e-05 -2.54099e-21 0.000383869 -2.54933e-21 0.000408801)
(0.000426601 -5.00467e-05 3.78307e-20 0.000393827 3.32019e-20 0.000410276)
(0.000417442 -5.2147e-05 -2.52655e-20 0.000402869 -2.24208e-20 0.000410236)
(0.000406033 -5.23732e-05 -2.66126e-20 0.000410763 -2.77081e-20 0.000408472)
(0.000393127 -5.06212e-05 -6.54641e-20 0.000416793 -4.75121e-20 0.000405069)
(0.000378888 -4.69685e-05 -4.48005e-20 0.000420065 -3.12236e-20 0.000399622)
(0.000363605 -4.15963e-05 4.94259e-20 0.000420209 3.22449e-20 0.000392069)
(0.00034778 -3.48862e-05 1.36659e-20 0.000416826 -6.42532e-22 0.000382516)
(0.000331611 -2.72159e-05 2.13422e-20 0.000409681 2.40712e-20 0.000370908)
(0.000315374 -1.90065e-05 1.92543e-19 0.000398823 1.17134e-19 0.000357413)
(0.000299324 -1.07389e-05 -6.58066e-20 0.000384459 -7.35967e-21 0.000342285)
(0.000283598 -2.80847e-06 1.4439e-19 0.000366953 1.24523e-19 0.000325755)
(0.000268348 4.43575e-06 1.92531e-20 0.000346866 1.48453e-20 0.000308193)
(0.00025359 1.06949e-05 -3.40689e-20 0.000324739 -1.66092e-20 0.000289889)
(0.000239432 1.58152e-05 1.02729e-19 0.000301297 7.07913e-20 0.000271271)
(0.000226203 1.96219e-05 3.9111e-20 0.000277728 2.84419e-20 0.00025301)
(0.000213602 2.20644e-05 1.87625e-20 0.000254512 -9.35113e-21 0.000235104)
(0.000201272 2.32386e-05 -6.85465e-20 0.000231972 -5.98533e-20 0.000217571)
(0.000189266 2.33818e-05 -7.96813e-22 0.000210647 1.52968e-21 0.000200723)
(0.000178162 2.28197e-05 -3.84403e-20 0.000191302 1.34707e-21 0.000185291)
(0.000168266 2.17632e-05 -5.63278e-20 0.000173908 -3.0932e-21 0.000171468)
(0.000159876 2.047e-05 1.49074e-20 0.000158399 1.92598e-20 0.000159421)
(0.000151533 1.88374e-05 -2.64743e-21 0.000143287 -1.64334e-20 0.000147636)
(0.000140396 1.64709e-05 -4.72026e-20 0.000126567 1.56573e-21 0.000133617)
(0.000126983 1.3732e-05 -4.74095e-21 0.000109559 1.75505e-21 0.000118303)
(0.000110827 1.06508e-05 1.49469e-21 9.24153e-05 -3.6053e-21 0.000101615)
(9.47055e-05 7.71947e-06 -1.00149e-20 7.70346e-05 1.76132e-21 8.58844e-05)
(6.76879e-05 3.80008e-06 9.15636e-21 5.5698e-05 -4.64379e-20 6.17093e-05)
(4.33731e-05 1.31559e-06 3.58476e-20 3.68985e-05 -6.96889e-21 4.01402e-05)
(1.52293e-06 1.05473e-09 -1.40584e-22 1.51161e-06 -6.13349e-24 1.51727e-06)
(1.07524e-06 -1.86022e-11 9.36522e-23 1.06904e-06 -5.19672e-23 1.07215e-06)
(0 -0 0 0 -0 0)
(0 0 -0 0 0 0)
(0.000441559 -2.83427e-05 2.25749e-21 0.000356259 2.98746e-21 0.000398999)
(0.000439808 -2.11778e-05 1.69841e-20 0.000347994 1.14942e-20 0.000393887)
(0.000435479 -1.24535e-05 -1.089e-20 0.000339212 -1.20956e-20 0.00038745)
(0.000354875 -4.43174e-05 1.58507e-20 0.000342419 1.3939e-20 0.000348652)
(0.000346591 -4.46837e-05 2.25068e-20 0.000350235 1.88421e-20 0.000348394)
(0.000337185 -4.34478e-05 9.51549e-20 0.000356731 7.31654e-20 0.000346946)
(0.000326761 -4.06557e-05 -1.61654e-20 0.000361186 -1.23737e-20 0.000343958)
(0.000315529 -3.64318e-05 3.32225e-20 0.000363296 1.5982e-20 0.000339378)
(0.000303845 -3.105e-05 -6.56992e-20 0.000362678 -3.8031e-20 0.000333222)
(0.000291818 -2.47917e-05 4.87322e-20 0.000359041 2.69501e-20 0.000325371)
(0.000279643 -1.79791e-05 -1.21692e-19 0.000352341 -9.51341e-20 0.000315903)
(0.000267482 -1.09845e-05 4.26723e-21 0.000342631 1.28798e-20 0.00030494)
(0.000255412 -4.13536e-06 1.9469e-20 0.000330087 -1.05198e-20 0.000292594)
(0.000243503 2.24575e-06 3.24865e-20 0.000315028 6.49906e-21 0.00027906)
(0.000231754 7.88657e-06 5.3001e-21 0.000297844 4.6132e-21 0.000264536)
(0.000220209 1.25917e-05 -3.9278e-20 0.000279102 -3.66518e-20 0.00024931)
(0.000208577 1.62193e-05 -7.57468e-20 0.00025902 -2.38716e-20 0.000233381)
(0.000196707 1.87463e-05 -6.51372e-20 0.000237954 -1.90532e-20 0.00021687)
(0.000184983 2.02283e-05 -4.75829e-20 0.000216913 1.30649e-20 0.000200503)
(0.000174027 2.08327e-05 -3.02081e-20 0.00019703 -3.20477e-21 0.000185145)
(0.000164333 2.07568e-05 -3.23791e-21 0.000179128 1.41019e-20 0.000171435)
(0.00015596 2.01496e-05 3.70177e-20 0.000163189 2.33798e-20 0.00015937)
(0.00014795 1.8967e-05 -2.64675e-21 0.000148109 -1.45866e-20 0.000147923)
(0.000138824 1.71354e-05 -1.9989e-20 0.000132695 -3.07954e-21 0.000135725)
(0.000127623 1.47514e-05 3.49793e-20 0.000116642 1.03412e-20 0.000122102)
(0.000115422 1.22821e-05 4.70628e-21 0.00010138 1.71421e-21 0.000108341)
(0.000104064 1.01227e-05 5.74757e-21 8.84062e-05 -5.92497e-21 9.61758e-05)
(9.49001e-05 8.37014e-06 4.1098e-21 7.82841e-05 -1.9988e-21 8.65689e-05)
(8.71805e-05 6.76599e-06 -1.01941e-19 6.99457e-05 3.42872e-20 7.85643e-05)
(7.91338e-05 5.03261e-06 -8.69337e-20 6.19475e-05 -2.50784e-20 7.05397e-05)
(5.66672e-05 2.16924e-06 4.40191e-20 4.54999e-05 9.03676e-20 5.10782e-05)
(2.26736e-05 2.09939e-07 -1.73683e-20 2.02668e-05 -2.10243e-20 2.14697e-05)
(1.91784e-06 -7.28937e-10 4.76612e-23 1.89681e-06 -1.30011e-22 1.90732e-06)
(0 -0 0 0 0 0)
(0.000289785 -3.73523e-05 -3.6015e-20 0.000306307 -2.92317e-20 0.000298067)
(0.000281944 -3.51503e-05 -4.32375e-20 0.000311144 -2.78286e-20 0.000296572)
(0.000273444 -3.17452e-05 -9.70695e-21 0.000314146 -1.20069e-20 0.00029382)
(0.000264558 -2.73406e-05 8.00778e-20 0.000314985 5.48906e-20 0.000289808)
(0.000255344 -2.2142e-05 -3.00139e-21 0.00031337 -1.20235e-20 0.000284401)
(0.000245938 -1.63924e-05 3.18174e-20 0.0003092 3.68425e-20 0.000277621)
(0.00023646 -1.0388e-05 3.96887e-21 0.000302434 1.04523e-20 0.000269511)
(0.000226959 -4.40073e-06 3.98675e-20 0.000293132 1.43866e-21 0.000260119)
(0.0002175 1.30356e-06 -2.61063e-20 0.000281497 -1.02663e-20 0.000249589)
(0.000208111 6.4732e-06 -3.01945e-20 0.000267816 -7.85049e-21 0.000238079)
(0.000198786 1.09118e-05 9.02768e-21 0.000252445 1.63625e-20 0.000225759)
(0.000189567 1.44756e-05 7.83634e-20 0.000235888 3.03491e-20 0.000212921)
(0.000180496 1.7073e-05 3.70923e-20 0.000218728 1.10694e-20 0.000199819)
(0.000171557 1.86989e-05 3.77081e-20 0.000201489 1.66405e-20 0.000186718)
(0.000162945 1.94655e-05 8.20714e-21 0.000184819 2.80306e-20 0.000174038)
(0.00015485 1.953e-05 3.02133e-20 0.000169195 4.1016e-21 0.000162136)
(0.000147393 1.90488e-05 -5.96787e-22 0.000154735 -8.62985e-21 0.00015114)
(0.000139973 1.80155e-05 -4.5438e-20 0.000140765 -1.09364e-20 0.000140434)
(0.00013129 1.63216e-05 4.75329e-22 0.000126233 7.6475e-21 0.000128826)
(0.000120518 1.40383e-05 -2.0113e-20 0.000110931 -1.224e-20 0.000115761)
(0.000108367 1.15556e-05 -3.43491e-21 9.60065e-05 -2.63183e-21 0.000102181)
(9.68446e-05 9.34995e-06 -1.81729e-20 8.31698e-05 3.83804e-22 8.99856e-05)
(8.7349e-05 7.57679e-06 -1.02338e-20 7.31014e-05 -8.39406e-21 8.02187e-05)
(8.04802e-05 6.20882e-06 1.05215e-19 6.5715e-05 7.71255e-21 7.31032e-05)
(7.54434e-05 5.0504e-06 4.10613e-20 6.00753e-05 2.6387e-20 6.77602e-05)