/*--------------------------------*- C++ -*----------------------------------*\
| =========                 |                                                 |
| \\      /  F ield         | OpenFOAM: The Open Source CFD Toolbox           |
|  \\    /   O peration     | Version:  2306                                  |
|   \\  /    A nd           | Website:  www.openfoam.com                      |
|    \\/     M anipulation  |                                                 |
\*---------------------------------------------------------------------------*/
FoamFile
{
    version     2.0;
    format      ascii;
    arch        "LSB;label=32;scalar=64";
    class       volScalarField;
    location    "625";
    object      turbulenceProperties:epsilon;
}
// * * * * * * * * * * * * * * * * * * * * * * * * * * * * * * * * * * * * * //

dimensions      [0 2 -3 0 0 0 0];

internalField   nonuniform List<scalar> 
1340
(
0.259337
0.340059
0.452944
0.623533
0.840156
1.1348
1.53073
2.0349
2.68401
3.51443
4.57783
5.96434
7.80216
10.2908
13.7709
18.7578
26.2361
37.3537
56.0414
83.0175
139.625
211.744
435.002
739.161
736.468
667.477
637.518
637.506
643.404
639.736
623.07
593.537
548.563
489.472
416.598
0.194103
0.147052
0.100346
0.0666541
0.0405371
0.0221683
0.011177
0.00736068
0.0072797
0.00711409
0.00670936
0.00610621
0.00544777
0.00471907
0.00396206
0.00327805
0.00267032
0.00214888
0.00181988
0.00177255
0.00210476
0.00330684
0.00670984
0.0165567
0.0442172
0.139003
0.449719
1.75205
6.24508
23.3911
83.5176
166.207
235.119
278.391
285.106
251.018
193.171
135.863
91.8938
63.4932
45.7216
34.2678
0.00722706
0.00703141
0.00664091
0.00608258
0.00535916
0.00447577
0.00330241
0.00325028
0.00310516
0.00288981
0.00267285
0.00244421
0.00222347
0.00203384
0.00187745
0.00176035
0.00167224
0.0016224
0.00160871
0.00163548
0.00164441
0.00154821
0.00119001
0.000880755
7.75966e-06
0.0162179
0.0043665
0.00626351
0.00011359
0.0324852
0.554526
2.59069
7.90146
20.0348
42.172
70.3799
91.4703
94.1578
80.0576
60.6659
44.1673
0.00335423
0.0033462
0.00332863
0.00321142
0.00300838
0.00268226
0.00235402
0.00236378
0.0023401
0.0023013
0.00222225
0.00210713
0.0019679
0.00180075
0.0016188
0.00142883
0.00123791
0.00105123
0.0008728
0.000707432
0.000557483
0.000419445
0.000301545
0.00021206
0.000121756
3.74138e-05
8.44338e-18
0.0002079
0.000100724
0.0111695
0.0369818
0.0537727
0.0482396
0.00078928
0.0164088
0.440454
3.20088
11.6269
25.0094
35.4664
37.1689
0.00230377
0.00222869
0.00211335
0.0019785
0.0018157
0.00132482
0.00132014
0.0012996
0.00126338
0.00120834
0.00113567
0.00105084
0.000956772
0.000858101
0.000761855
0.000671392
0.000589994
0.000520286
0.000462945
0.000417784
0.000381619
0.000345341
0.000303468
0.00026194
0.000207579
9.39591e-05
8.17104e-06
1.42034e-07
2.2117e-09
0
0
0
0.0022242
0.0305028
0.0884582
0.0130616
0.0159602
0.169584
2.42011
9.07883
0.00131797
0.00129939
0.00126279
0.00120527
0.00112645
0.000890099
0.000897706
0.000896982
0.000890587
0.000873176
0.000845325
0.000808729
0.000762612
0.000708804
0.000649674
0.00058667
0.000522167
0.000458395
0.000396983
0.000339297
0.000284287
0.000229909
0.000180052
0.000138744
0.0001072
8.49174e-05
5.84305e-05
2.93704e-05
8.26084e-07
4.28207e-08
1.25603e-08
1.53262e-09
2.15e-14
0
0
0.00323445
0.0338713
0.005502
0.0421665
0.0463792
0.000874042
0.000852091
0.000820657
0.000780079
0.000582461
0.000587588
0.000588408
0.000585434
0.000576144
0.000560235
0.000538358
0.000510266
0.000476733
0.000439275
0.000399121
0.00035782
0.000317053
0.000278194
0.000242176
0.00021001
0.000182834
0.000159207
0.000136757
0.000115158
9.65143e-05
8.20731e-05
6.80671e-05
4.65367e-05
2.18753e-05
8.00329e-06
7.50504e-07
7.29436e-12
4.48469e-09
3.63953e-11
0
0
0.000403285
0.0178983
0.0124777
0.000572936
0.000560162
0.000541835
0.000517097
0.000400124
0.000405605
0.000408878
0.0004102
0.000407957
0.000401861
0.000392238
0.000378527
0.000360952
0.000340167
0.00031647
0.000290682
0.000263657
0.000236154
0.000208924
0.000182707
0.000157344
0.00013247
0.000109443
8.9671e-05
7.39139e-05
6.23618e-05
5.44088e-05
4.86469e-05
4.0357e-05
2.94592e-05
1.76213e-05
8.11307e-06
2.85335e-06
1.97443e-08
3.81158e-09
2.35281e-12
0
0
0.0011841
0.000391959
0.000382231
0.000369382
0.000352666
0.000278424
0.00028283
0.000286062
0.000288089
0.000288015
0.000285549
0.000280779
0.000273244
0.000262995
0.000250288
0.00023528
0.00021842
0.00020025
0.000181297
0.000162183
0.000143375
0.000125409
0.000108978
9.40593e-05
8.05551e-05
6.85994e-05
5.85838e-05
5.04134e-05
4.35333e-05
3.69847e-05
3.00962e-05
2.36042e-05
1.74128e-05
1.25384e-05
6.61699e-06
2.71739e-06
2.05556e-09
9.21992e-10
0
0
0.000272443
0.000265599
0.000256885
0.000208084
0.000207795
0.000206066
0.000202535
0.000197192
0.000190107
0.00018127
0.000170897
0.000159263
0.000146657
0.00013344
0.000119952
0.000106597
9.34611e-05
8.07414e-05
6.90234e-05
5.88338e-05
5.04215e-05
4.36002e-05
3.7575e-05
3.15571e-05
2.54406e-05
1.99541e-05
1.5704e-05
1.27538e-05
1.05574e-05
8.5194e-06
4.49629e-06
7.33642e-07
3.42856e-09
0
0.000152072
0.000150546
0.000147767
0.000143751
0.000138432
0.000131905
0.000124303
0.000115783
0.000106587
9.69673e-05
8.71737e-05
7.75132e-05
6.82553e-05
5.95984e-05
5.17875e-05
4.4954e-05
3.90803e-05
3.37649e-05
2.84202e-05
2.29307e-05
1.7842e-05
1.38173e-05
1.09769e-05
9.12965e-06
7.85364e-06
7.09881e-06
5.43137e-06
1.82912e-06
4.57716e-09
0.000111884
0.000109782
0.000106741
0.000102791
9.7982e-05
9.23931e-05
8.61547e-05
7.9422e-05
7.23783e-05
6.52408e-05
5.81234e-05
5.12317e-05
4.48767e-05
3.92327e-05
3.42859e-05
2.9776e-05
2.52909e-05
2.06939e-05
1.63349e-05
1.27212e-05
1.00264e-05
8.10555e-06
6.69779e-06
5.84705e-06
5.43218e-06
4.99922e-06
2.09253e-06
8.41487e-05
8.24674e-05
8.01128e-05
7.70923e-05
7.34308e-05
6.92058e-05
6.45125e-05
5.94641e-05
5.423e-05
4.89403e-05
4.37341e-05
3.88002e-05
3.42765e-05
3.01691e-05
2.63354e-05
2.25305e-05
1.86632e-05
1.49719e-05
1.18321e-05
9.40855e-06
7.59348e-06
6.20247e-06
5.15342e-06
4.47346e-06
4.20898e-06
4.58383e-06
6.40112e-05
6.26707e-05
6.08313e-05
5.8494e-05
5.56912e-05
5.24745e-05
4.89121e-05
4.51245e-05
4.12005e-05
3.72304e-05
3.33575e-05
2.97247e-05
2.63502e-05
2.31481e-05
1.99622e-05
1.67324e-05
1.36277e-05
1.09323e-05
8.79752e-06
7.15935e-06
5.88267e-06
4.87319e-06
4.09911e-06
3.56658e-06
3.4492e-06
4.98488e-05
4.91436e-05
4.80639e-05
4.66008e-05
4.47623e-05
4.25787e-05
4.00918e-05
3.73702e-05
3.44939e-05
3.1524e-05
2.85424e-05
2.56721e-05
2.29382e-05
2.0293e-05
1.76447e-05
1.49578e-05
1.2353e-05
1.00468e-05
8.17434e-06
6.70916e-06
5.55368e-06
4.63868e-06
3.90528e-06
3.39579e-06
2.75323e-06
3.86405e-05
3.80464e-05
3.71612e-05
3.59886e-05
3.45354e-05
3.28246e-05
3.08938e-05
2.88081e-05
2.65999e-05
2.432e-05
2.2067e-05
1.98728e-05
1.77143e-05
1.55351e-05
1.33161e-05
1.11454e-05
9.18631e-06
7.55548e-06
6.25215e-06
5.20964e-06
4.38028e-06
3.71019e-06
3.24987e-06
2.69777e-06
3.0164e-05
2.96601e-05
2.89343e-05
2.79866e-05
2.68266e-05
2.54747e-05
2.39768e-05
2.23542e-05
2.06347e-05
1.88874e-05
1.7147e-05
1.54058e-05
1.36302e-05
1.18106e-05
1.00129e-05
8.36016e-06
6.95066e-06
5.79945e-06
4.86448e-06
4.11088e-06
3.50473e-06
3.05025e-06
2.71844e-06
2.39564e-05
2.36953e-05
2.32668e-05
2.26662e-05
2.18967e-05
2.09654e-05
1.99028e-05
1.87233e-05
1.74414e-05
1.60994e-05
1.47338e-05
1.33452e-05
1.19127e-05
1.04329e-05
8.95467e-06
7.57098e-06
6.36313e-06
5.3547e-06
4.52288e-06
3.84139e-06
3.29456e-06
2.85165e-06
2.61141e-06
1.89448e-05
1.87125e-05
1.8348e-05
1.78505e-05
1.72225e-05
1.6479e-05
1.56325e-05
1.46881e-05
1.36688e-05
1.26099e-05
1.15153e-05
1.03713e-05
9.17744e-06
7.97083e-06
6.8214e-06
5.79533e-06
4.91974e-06
4.18562e-06
3.57499e-06
3.08061e-06
2.6719e-06
2.42333e-06
1.51632e-05
1.50563e-05
1.48499e-05
1.454e-05
1.41263e-05
1.36137e-05
1.30144e-05
1.23282e-05
1.15642e-05
1.0752e-05
9.89833e-06
8.99394e-06
8.03922e-06
7.06203e-06
6.11482e-06
5.25068e-06
4.49714e-06
3.85427e-06
3.31219e-06
2.86551e-06
2.50007e-06
2.2297e-06
1.21174e-05
1.20145e-05
1.1832e-05
1.15681e-05
1.12233e-05
1.08074e-05
1.03159e-05
9.75092e-06
9.13542e-06
8.47715e-06
7.76962e-06
7.01287e-06
6.22778e-06
5.45351e-06
4.73211e-06
4.08948e-06
3.53113e-06
3.05379e-06
2.65257e-06
2.32694e-06
2.05652e-06
9.75571e-06
9.71874e-06
9.62182e-06
9.46206e-06
9.23718e-06
8.9537e-06
8.60686e-06
8.19527e-06
7.73484e-06
7.23294e-06
6.68559e-06
6.09169e-06
5.46633e-06
4.83882e-06
4.242e-06
3.69888e-06
3.2182e-06
2.80101e-06
2.44407e-06
2.1522e-06
1.89983e-06
7.8613e-06
7.82e-06
7.73053e-06
7.58977e-06
7.40136e-06
7.16157e-06
6.86704e-06
6.52732e-06
6.14941e-06
5.73067e-06
5.26915e-06
4.77543e-06
4.27133e-06
3.78207e-06
3.3274e-06
2.91721e-06
2.55533e-06
2.24069e-06
1.97872e-06
1.75083e-06
6.35806e-06
6.35207e-06
6.30933e-06
6.22701e-06
6.10638e-06
5.94462e-06
5.73821e-06
5.49124e-06
5.2105e-06
4.89367e-06
4.53858e-06
4.1524e-06
3.75112e-06
3.35367e-06
2.97664e-06
2.62979e-06
2.31849e-06
2.04337e-06
1.80931e-06
1.6052e-06
5.14212e-06
5.15734e-06
5.14489e-06
5.10224e-06
5.02886e-06
4.92356e-06
4.78198e-06
4.60528e-06
4.3995e-06
4.16306e-06
3.89304e-06
3.59403e-06
3.27754e-06
2.95774e-06
2.64792e-06
2.35734e-06
2.09176e-06
1.85307e-06
1.64564e-06
1.4629e-06
4.18551e-06
4.19192e-06
4.17538e-06
4.1346e-06
4.06916e-06
3.97517e-06
3.85136e-06
3.70311e-06
3.52891e-06
3.32579e-06
3.09647e-06
2.84917e-06
2.59435e-06
2.34224e-06
2.10098e-06
1.87633e-06
1.67092e-06
1.48835e-06
1.32525e-06
3.39551e-06
3.4129e-06
3.41294e-06
3.39426e-06
3.35656e-06
3.29655e-06
3.21215e-06
3.10722e-06
2.98074e-06
2.82982e-06
2.65586e-06
2.46452e-06
2.26334e-06
2.06015e-06
1.86168e-06
1.67322e-06
1.4978e-06
1.33856e-06
1.19349e-06
2.75356e-06
2.77655e-06
2.78672e-06
2.7825e-06
2.76379e-06
2.72765e-06
2.67199e-06
2.59925e-06
2.50894e-06
2.39839e-06
2.2679e-06
2.12137e-06
1.96405e-06
1.80177e-06
1.64003e-06
1.48335e-06
1.33453e-06
1.1968e-06
1.06863e-06
2.25748e-06
2.27321e-06
2.27803e-06
2.27177e-06
2.25216e-06
2.21703e-06
2.16813e-06
2.10484e-06
2.0249e-06
1.92817e-06
1.81712e-06
1.69533e-06
1.56697e-06
1.43628e-06
1.30712e-06
1.18201e-06
1.06356e-06
9.51308e-07
1.83431e-06
1.8526e-06
1.86265e-06
1.86432e-06
1.8558e-06
1.83517e-06
1.80342e-06
1.76009e-06
1.70327e-06
1.63248e-06
1.54919e-06
1.45579e-06
1.35518e-06
1.25055e-06
1.1449e-06
1.0405e-06
9.3952e-07
8.41822e-07
1.48956e-06
1.50841e-06
1.52117e-06
1.52758e-06
1.52627e-06
1.51563e-06
1.49607e-06
1.46722e-06
1.42756e-06
1.37648e-06
1.31469e-06
1.24374e-06
1.1656e-06
1.08252e-06
9.96852e-07
9.10361e-07
8.24895e-07
7.40507e-07
1.22712e-06
1.2409e-06
1.24986e-06
1.25301e-06
1.24897e-06
1.23787e-06
1.21938e-06
1.19232e-06
1.15598e-06
1.11069e-06
1.05732e-06
9.97147e-07
9.31722e-07
8.62759e-07
7.9168e-07
7.1985e-07
6.47534e-07
9.97529e-07
1.01118e-06
1.02119e-06
1.02688e-06
1.0271e-06
1.02169e-06
1.01048e-06
9.92481e-07
9.67064e-07
9.34251e-07
8.94494e-07
8.48549e-07
7.97432e-07
7.42337e-07
6.84311e-07
6.24411e-07
5.62887e-07
8.10196e-07
8.23076e-07
8.33225e-07
8.4016e-07
8.42926e-07
8.41242e-07
8.35026e-07
8.23503e-07
8.0605e-07
7.82556e-07
7.5321e-07
7.18411e-07
6.78751e-07
6.35039e-07
5.87999e-07
5.38393e-07
6.69314e-07
6.79003e-07
6.86311e-07
6.90452e-07
6.91104e-07
6.88213e-07
6.81172e-07
6.69443e-07
6.52841e-07
6.3138e-07
6.05215e-07
5.74657e-07
5.40191e-07
5.02309e-07
4.61508e-07
5.43729e-07
5.52644e-07
5.59782e-07
5.64525e-07
5.6653e-07
5.65765e-07
5.61771e-07
5.54104e-07
5.42538e-07
5.26978e-07
5.07432e-07
4.84022e-07
4.57008e-07
4.2668e-07
3.93351e-07
4.41293e-07
4.49268e-07
4.55921e-07
4.60743e-07
4.63445e-07
4.63983e-07
4.62004e-07
4.57155e-07
4.49211e-07
4.38023e-07
4.23505e-07
4.05665e-07
3.84605e-07
3.6046e-07
3.33407e-07
3.57833e-07
3.6484e-07
3.70829e-07
3.75421e-07
3.78371e-07
3.79627e-07
3.78936e-07
3.7601e-07
3.70638e-07
3.62652e-07
3.51926e-07
3.38391e-07
3.22041e-07
3.02919e-07
2.81096e-07
2.89907e-07
2.95949e-07
3.01212e-07
3.05409e-07
3.08335e-07
3.09935e-07
3.10026e-07
3.08375e-07
3.04803e-07
2.99141e-07
2.91247e-07
2.81011e-07
2.68368e-07
2.53291e-07
2.35789e-07
2.3982e-07
2.44368e-07
2.48094e-07
2.5083e-07
2.52525e-07
2.53044e-07
2.52217e-07
2.49888e-07
2.45897e-07
2.40101e-07
2.32378e-07
2.22632e-07
2.10795e-07
1.96832e-07
1.94157e-07
1.98024e-07
2.01253e-07
2.03706e-07
2.05348e-07
2.06081e-07
2.05767e-07
2.04278e-07
2.01476e-07
1.97227e-07
1.91407e-07
1.83911e-07
1.74651e-07
1.63568e-07
1.57045e-07
1.60292e-07
1.63045e-07
1.65187e-07
1.66695e-07
1.67494e-07
1.67479e-07
1.66547e-07
1.64585e-07
1.6147e-07
1.57086e-07
1.51329e-07
1.44108e-07
1.35352e-07
1.26925e-07
1.29626e-07
1.31935e-07
1.33765e-07
1.35094e-07
1.35874e-07
1.36022e-07
1.35455e-07
1.34079e-07
1.31792e-07
1.28487e-07
1.24071e-07
1.18455e-07
1.11565e-07
1.02506e-07
1.0473e-07
1.06647e-07
1.08184e-07
1.09326e-07
1.10038e-07
1.10261e-07
1.09926e-07
1.08958e-07
1.07272e-07
1.04778e-07
1.0139e-07
9.70313e-08
9.16298e-08
8.45492e-08
8.61231e-08
8.73971e-08
8.83566e-08
8.89791e-08
8.92215e-08
8.90309e-08
8.83465e-08
8.70977e-08
8.52095e-08
8.26116e-08
7.92339e-08
7.50136e-08
6.8211e-08
6.9492e-08
7.0534e-08
7.1326e-08
7.18544e-08
7.2087e-08
7.19831e-08
7.14937e-08
7.05623e-08
6.91286e-08
6.71349e-08
6.45211e-08
5.5e-08
5.6034e-08
5.68768e-08
5.75221e-08
5.79601e-08
5.81671e-08
5.81124e-08
5.77574e-08
5.70574e-08
5.59653e-08
5.44328e-08
5.24113e-08
4.43269e-08
4.51568e-08
4.58332e-08
4.6352e-08
4.67077e-08
4.68836e-08
4.68557e-08
4.65935e-08
4.60629e-08
4.52273e-08
4.40477e-08
4.24849e-08
3.57137e-08
3.63763e-08
3.6915e-08
3.73274e-08
3.76117e-08
3.77552e-08
3.774e-08
3.75429e-08
3.71373e-08
3.64949e-08
3.55854e-08
3.43774e-08
2.9295e-08
2.97212e-08
3.00465e-08
3.02701e-08
3.03837e-08
3.03736e-08
3.02224e-08
2.99096e-08
2.94132e-08
2.87103e-08
2.77765e-08
2.35894e-08
2.39246e-08
2.41788e-08
2.43526e-08
2.44403e-08
2.44317e-08
2.43132e-08
2.40696e-08
2.36843e-08
2.31395e-08
2.24169e-08
1.89957e-08
1.92578e-08
1.94551e-08
1.95887e-08
1.96547e-08
1.96454e-08
1.95508e-08
1.93595e-08
1.9059e-08
1.86359e-08
1.8076e-08
1.52996e-08
1.55036e-08
1.56555e-08
1.57569e-08
1.58052e-08
1.57947e-08
1.5718e-08
1.55665e-08
1.53311e-08
1.50016e-08
1.45672e-08
1.23267e-08
1.24846e-08
1.26009e-08
1.26771e-08
1.27115e-08
1.26999e-08
1.26369e-08
1.25161e-08
1.23307e-08
1.20732e-08
1.17356e-08
9.93649e-09
1.00584e-08
1.01469e-08
1.02034e-08
1.02268e-08
1.02144e-08
1.01621e-08
1.0065e-08
9.91834e-09
9.71649e-09
8.01509e-09
8.1089e-09
8.17571e-09
8.21712e-09
8.23242e-09
8.21956e-09
8.17559e-09
8.09714e-09
7.98051e-09
7.82175e-09
6.54293e-09
6.59305e-09
6.62291e-09
6.63218e-09
6.61919e-09
6.58197e-09
6.5181e-09
6.42489e-09
6.29951e-09
5.28518e-09
5.32249e-09
5.34356e-09
5.34832e-09
5.33562e-09
5.30395e-09
5.25163e-09
5.17673e-09
5.07722e-09
4.27397e-09
4.30157e-09
4.31618e-09
4.31783e-09
4.3057e-09
4.27871e-09
4.23568e-09
4.17523e-09
4.09593e-09
3.45903e-09
3.47936e-09
3.48927e-09
3.48884e-09
3.47758e-09
3.45469e-09
3.41933e-09
3.37053e-09
3.30727e-09
2.79968e-09
2.8145e-09
2.82106e-09
2.81946e-09
2.80934e-09
2.79015e-09
2.76125e-09
2.72201e-09
2.67168e-09
2.2648e-09
2.27546e-09
2.27958e-09
2.27729e-09
2.26834e-09
2.25233e-09
2.22884e-09
2.19741e-09
1.83197e-09
1.83947e-09
1.84174e-09
1.83893e-09
1.8309e-09
1.8174e-09
1.79815e-09
1.77285e-09
1.48365e-09
1.48868e-09
1.48949e-09
1.48624e-09
1.47885e-09
1.46718e-09
1.45108e-09
1.43038e-09
1.20812e-09
1.20781e-09
1.20419e-09
1.19726e-09
1.18695e-09
1.17315e-09
1.15585e-09
9.83025e-10
9.81863e-10
9.7798e-10
9.71438e-10
9.62155e-10
9.50076e-10
9.35344e-10
8.04039e-10
8.02828e-10
7.99388e-10
7.94041e-10
7.86199e-10
7.75966e-10
7.64085e-10
6.75458e-10
6.73996e-10
6.70533e-10
6.65917e-10
6.58835e-10
6.49497e-10
6.39712e-10
5.7952e-10
5.77636e-10
5.73727e-10
5.68885e-10
5.61671e-10
5.52144e-10
4.95761e-10
4.94328e-10
4.91e-10
4.86771e-10
4.80443e-10
4.71851e-10
4.19858e-10
4.1795e-10
4.14242e-10
4.09684e-10
4.0351e-10
3.94979e-10
3.5507e-10
3.54141e-10
3.51644e-10
3.48183e-10
3.43479e-10
3.37075e-10
2.91066e-10
2.88168e-10
2.83837e-10
2.78976e-10
2.73405e-10
2.65017e-10
2.53289e-10
2.53501e-10
2.52363e-10
2.49565e-10
2.46331e-10
2.4337e-10
1.82922e-10
1.78044e-10
1.74026e-10
1.69308e-10
1.59285e-10
2.05192e-10
2.07468e-10
2.05007e-10
2.04294e-10
2.11961e-10
1.27068e-10
1.27602e-10
1.31445e-10
1.2985e-10
1.19827e-10
2.92415e-10
3.08975e-10
3.07383e-10
3.14638e-10
3.48564e-10
3.66551e-10
3.88377e-10
4.20716e-10
7.47598e-10
8.37398e-10
7.78462e-10
7.01645e-10
)
;

boundaryField
{
    inlet
    {
        type            calculated;
        value           nonuniform List<scalar> 4(1.45826e-08 1.65112e-08 1.69374e-08 1.73354e-08);
    }
    outlet
    {
        type            calculated;
        value           nonuniform List<scalar> 0();
    }
    walls
    {
        type            calculated;
        value           uniform 0;
    }
    frontAndBack
    {
        type            empty;
    }
    procBoundary5to0
    {
        type            processor;
        value           nonuniform List<scalar> 4(0.000197876 0.00019326 0.00018824 0.000182074);
    }
    procBoundary5to1
    {
        type            processor;
        value           nonuniform List<scalar> 
13
(
0.00631145
0.00354115
0.00354115
0.00226319
0.00161311
0.00161311
0.00101935
0.000729507
0.000729507
0.000485865
0.000332265
0.000245536
0.000245536
)
;
    }
    procBoundary5to4
    {
        type            processor;
        value           nonuniform List<scalar> 
95
(
0.000201519
0.000204582
0.000206969
0.000206969
0.00015183
0.000152426
0.000152426
0.000113528
0.000113126
0.000113126
8.51547e-05
8.51547e-05
6.48555e-05
6.48555e-05
5.01979e-05
3.89602e-05
3.89602e-05
3.04512e-05
3.04512e-05
2.40572e-05
1.90533e-05
1.90533e-05
1.51771e-05
1.21458e-05
1.21458e-05
9.73676e-06
7.85747e-06
7.85747e-06
6.3305e-06
5.10194e-06
4.15847e-06
4.15847e-06
3.36292e-06
2.71924e-06
2.23227e-06
2.23227e-06
1.809e-06
1.46556e-06
1.20885e-06
1.20885e-06
9.80535e-07
7.94879e-07
6.57553e-07
6.57553e-07
5.33261e-07
4.32146e-07
3.4996e-07
2.83211e-07
2.3468e-07
2.3468e-07
1.89829e-07
1.53439e-07
1.23944e-07
1.0006e-07
8.2732e-08
8.2732e-08
6.67347e-08
5.38082e-08
4.337e-08
3.49486e-08
2.87695e-08
2.87695e-08
2.31743e-08
1.8669e-08
1.50431e-08
1.21261e-08
9.77994e-09
7.89311e-09
6.47104e-09
6.47104e-09
5.23018e-09
4.23212e-09
3.42726e-09
2.77562e-09
2.24676e-09
1.81853e-09
1.47379e-09
1.205e-09
1.205e-09
9.81332e-10
8.02899e-10
6.74754e-10
5.79259e-10
4.95269e-10
4.19927e-10
3.54453e-10
2.92681e-10
2.51502e-10
1.86902e-10
1.86902e-10
2.01905e-10
1.25476e-10
2.78134e-10
3.22646e-10
7.44693e-10
)
;
    }
    procBoundary5to6
    {
        type            processor;
        value           nonuniform List<scalar> 
86
(
334.405
26.5018
31.9671
32.3921
16.8985
1.65738
0.0333323
0.00382036
0.000189807
0
0
2.65709e-09
1.10989e-06
4.90433e-06
4.1967e-06
2.76944e-06
2.12078e-06
2.00645e-06
2.03218e-06
2.00308e-06
1.89232e-06
1.74228e-06
1.5885e-06
1.44401e-06
1.30976e-06
1.18339e-06
1.06392e-06
9.51346e-07
8.45785e-07
7.47774e-07
6.57518e-07
5.74873e-07
4.99873e-07
4.8646e-07
4.8646e-07
4.18012e-07
3.57173e-07
3.03534e-07
2.56612e-07
2.15854e-07
1.80707e-07
1.50607e-07
1.24995e-07
1.03336e-07
8.51244e-08
6.9893e-08
6.12331e-08
6.12331e-08
4.98561e-08
4.05029e-08
3.2842e-08
2.65882e-08
2.14982e-08
1.73652e-08
1.40173e-08
1.13098e-08
9.45355e-09
9.45355e-09
7.61648e-09
6.1387e-09
4.95076e-09
3.99609e-09
3.22833e-09
2.60936e-09
2.15751e-09
2.15751e-09
1.74114e-09
1.40484e-09
1.13491e-09
9.17856e-10
7.49909e-10
6.28134e-10
5.42714e-10
5.42714e-10
4.6313e-10
3.86499e-10
3.29721e-10
2.57726e-10
2.36578e-10
1.54789e-10
2.03878e-10
1.23618e-10
3.68954e-10
3.68954e-10
4.24562e-10
1.2158e-09
)
;
    }
}


// ************************************************************************* //
