/*--------------------------------*- C++ -*----------------------------------*\
| =========                 |                                                 |
| \\      /  F ield         | OpenFOAM: The Open Source CFD Toolbox           |
|  \\    /   O peration     | Version:  2306                                  |
|   \\  /    A nd           | Website:  www.openfoam.com                      |
|    \\/     M anipulation  |                                                 |
\*---------------------------------------------------------------------------*/
FoamFile
{
    version     2.0;
    format      ascii;
    arch        "LSB;label=32;scalar=64";
    class       volScalarField;
    location    "625";
    object      turbulenceProperties:nuEff;
}
// * * * * * * * * * * * * * * * * * * * * * * * * * * * * * * * * * * * * * //

dimensions      [0 2 -1 0 0 0 0];

internalField   nonuniform List<scalar> 
1340
(
3.5808e-05
3.95347e-05
4.45224e-05
5.09851e-05
5.93089e-05
7.00253e-05
8.38547e-05
0.000101159
0.000122975
0.000150349
0.000185234
0.000230745
0.000291313
0.000374892
0.000495068
0.000673862
0.000955885
0.00140526
0.00222738
0.00359943
0.0069117
0.0127217
0.0339226
0.0760556
0.0937476
0.0946786
0.0957196
0.0992468
0.102757
0.104493
0.104471
0.103223
0.100856
0.097424
0.0928039
3.25825e-05
2.98038e-05
2.70736e-05
2.45837e-05
2.22497e-05
2.01071e-05
1.82445e-05
1.50855e-05
1.49803e-05
1.48855e-05
1.48068e-05
1.47166e-05
1.46338e-05
1.45725e-05
1.45187e-05
1.44956e-05
1.45159e-05
1.45435e-05
1.48184e-05
1.58788e-05
1.86525e-05
2.6411e-05
4.68061e-05
9.3885e-05
0.000172844
0.000325348
0.000598357
0.00132681
0.00283578
0.0070902
0.0204267
0.0394493
0.0632911
0.0925727
0.12372
0.14873
0.162668
0.167959
0.168787
0.167209
0.163863
0.159352
1.51691e-05
1.52823e-05
1.53788e-05
1.55098e-05
1.56441e-05
1.578e-05
1.62662e-05
1.62835e-05
1.63015e-05
1.63208e-05
1.63445e-05
1.6371e-05
1.64013e-05
1.64368e-05
1.64786e-05
1.65276e-05
1.65858e-05
1.66575e-05
1.67367e-05
1.68803e-05
1.68881e-05
1.64647e-05
1.50194e-05
1.38354e-05
1.0055e-05
0.000112155
4.4539e-05
0.000146082
0.000120883
0.000804233
0.0032457
0.00771579
0.0157549
0.0310531
0.0572759
0.0936842
0.132733
0.16447
0.184907
0.196762
0.20346
1.62529e-05
1.62339e-05
1.62193e-05
1.61977e-05
1.61792e-05
1.61593e-05
1.60861e-05
1.60837e-05
1.60831e-05
1.60835e-05
1.60844e-05
1.60871e-05
1.6092e-05
1.60987e-05
1.61088e-05
1.61224e-05
1.61403e-05
1.61638e-05
1.61944e-05
1.62332e-05
1.62843e-05
1.63417e-05
1.62429e-05
1.58269e-05
1.39764e-05
1.124e-05
1e-05
1.31324e-05
1.1224e-05
0.000160736
0.000685309
0.00164709
0.00342155
0.000379438
0.00372533
0.0135532
0.035576
0.0727608
0.118832
0.161351
0.193241
1.60868e-05
1.60891e-05
1.60923e-05
1.60945e-05
1.60983e-05
1.61112e-05
1.61118e-05
1.6112e-05
1.61129e-05
1.61145e-05
1.61164e-05
1.61191e-05
1.61227e-05
1.61274e-05
1.61336e-05
1.61416e-05
1.61522e-05
1.61661e-05
1.61839e-05
1.62081e-05
1.62363e-05
1.62802e-05
1.63234e-05
1.64964e-05
1.63002e-05
1.34878e-05
1.03851e-05
1.00089e-05
1.00002e-05
1e-05
1e-05
1e-05
5.81851e-05
0.000828016
0.00305941
0.000893077
0.00808814
0.029576
0.0707519
0.124152
1.61112e-05
1.61099e-05
1.61106e-05
1.61095e-05
1.61104e-05
1.61051e-05
1.61048e-05
1.61051e-05
1.61054e-05
1.61055e-05
1.61059e-05
1.61065e-05
1.61073e-05
1.61085e-05
1.61102e-05
1.61125e-05
1.61157e-05
1.61201e-05
1.6126e-05
1.61341e-05
1.61449e-05
1.61604e-05
1.61758e-05
1.62106e-05
1.6311e-05
1.65192e-05
1.56059e-05
1.32133e-05
1.01219e-05
1.00083e-05
1.00028e-05
1.00004e-05
1e-05
1e-05
1e-05
0.000199544
0.00185372
0.000391945
0.00877902
0.0381048
1.61046e-05
1.61039e-05
1.61048e-05
1.61046e-05
1.61053e-05
1.61055e-05
1.61057e-05
1.61057e-05
1.61059e-05
1.61059e-05
1.61061e-05
1.61065e-05
1.61069e-05
1.61076e-05
1.61087e-05
1.61102e-05
1.61122e-05
1.61151e-05
1.6119e-05
1.61246e-05
1.61322e-05
1.61403e-05
1.6149e-05
1.61581e-05
1.62609e-05
1.65169e-05
1.66086e-05
1.55676e-05
1.33629e-05
1.16912e-05
1.02565e-05
1e-05
1.00037e-05
1.00001e-05
1e-05
1e-05
6.72332e-05
0.00207041
0.00167554
1.61048e-05
1.61038e-05
1.61042e-05
1.61038e-05
1.61049e-05
1.6105e-05
1.61053e-05
1.61053e-05
1.61051e-05
1.6105e-05
1.61048e-05
1.61047e-05
1.61046e-05
1.61046e-05
1.61047e-05
1.61049e-05
1.61053e-05
1.61059e-05
1.61068e-05
1.61082e-05
1.61102e-05
1.61128e-05
1.6115e-05
1.61159e-05
1.61234e-05
1.61568e-05
1.62655e-05
1.65768e-05
1.67417e-05
1.65519e-05
1.55507e-05
1.36982e-05
1.18596e-05
1.00264e-05
1.00071e-05
1e-05
1e-05
1e-05
0.0004133
1.61043e-05
1.61031e-05
1.61031e-05
1.61027e-05
1.61048e-05
1.61049e-05
1.61051e-05
1.61049e-05
1.61047e-05
1.61044e-05
1.61042e-05
1.61041e-05
1.6104e-05
1.61039e-05
1.61039e-05
1.6104e-05
1.61043e-05
1.61047e-05
1.61053e-05
1.61062e-05
1.61076e-05
1.61096e-05
1.61114e-05
1.6113e-05
1.61136e-05
1.61182e-05
1.61147e-05
1.61516e-05
1.63081e-05
1.65786e-05
1.69741e-05
1.70851e-05
1.6931e-05
1.49228e-05
1.27294e-05
1.00052e-05
1.00029e-05
1e-05
1e-05
1.61042e-05
1.6103e-05
1.61026e-05
1.61042e-05
1.61039e-05
1.61036e-05
1.61034e-05
1.61031e-05
1.6103e-05
1.61028e-05
1.61027e-05
1.61026e-05
1.61026e-05
1.61025e-05
1.61025e-05
1.61026e-05
1.61027e-05
1.61029e-05
1.61035e-05
1.61043e-05
1.61074e-05
1.61092e-05
1.60973e-05
1.60938e-05
1.61368e-05
1.6279e-05
1.65268e-05
1.68894e-05
1.72905e-05
1.74958e-05
1.50807e-05
1.11454e-05
1.00107e-05
1e-05
1.6103e-05
1.61028e-05
1.61026e-05
1.61025e-05
1.61024e-05
1.61023e-05
1.61023e-05
1.61024e-05
1.61025e-05
1.61027e-05
1.6103e-05
1.61035e-05
1.61041e-05
1.61046e-05
1.6105e-05
1.61056e-05
1.61082e-05
1.61083e-05
1.60993e-05
1.60855e-05
1.60814e-05
1.61174e-05
1.62114e-05
1.64633e-05
1.68725e-05
1.76232e-05
1.71352e-05
1.29866e-05
1.00152e-05
1.61021e-05
1.6102e-05
1.61019e-05
1.61018e-05
1.61018e-05
1.61017e-05
1.61017e-05
1.61018e-05
1.61018e-05
1.6102e-05
1.61022e-05
1.61026e-05
1.61032e-05
1.61038e-05
1.6105e-05
1.61073e-05
1.61082e-05
1.61046e-05
1.60948e-05
1.60828e-05
1.60727e-05
1.60995e-05
1.61727e-05
1.65098e-05
1.72045e-05
1.77487e-05
1.38669e-05
1.61017e-05
1.61016e-05
1.61015e-05
1.61015e-05
1.61015e-05
1.61015e-05
1.61016e-05
1.61017e-05
1.61019e-05
1.61021e-05
1.61025e-05
1.61029e-05
1.61033e-05
1.61039e-05
1.6105e-05
1.61068e-05
1.61084e-05
1.61082e-05
1.61046e-05
1.60954e-05
1.60828e-05
1.60665e-05
1.60748e-05
1.62518e-05
1.67885e-05
1.84588e-05
1.61014e-05
1.61014e-05
1.61013e-05
1.61013e-05
1.61014e-05
1.61014e-05
1.61015e-05
1.61016e-05
1.61017e-05
1.61019e-05
1.61023e-05
1.61027e-05
1.61032e-05
1.61038e-05
1.61049e-05
1.61064e-05
1.61083e-05
1.61097e-05
1.61099e-05
1.61066e-05
1.60989e-05
1.60736e-05
1.60536e-05
1.60829e-05
1.66784e-05
1.61012e-05
1.61013e-05
1.61013e-05
1.61013e-05
1.61013e-05
1.61014e-05
1.61015e-05
1.61015e-05
1.61017e-05
1.61019e-05
1.61021e-05
1.61024e-05
1.61028e-05
1.61033e-05
1.6104e-05
1.6105e-05
1.61064e-05
1.6108e-05
1.611e-05
1.61118e-05
1.61131e-05
1.61116e-05
1.60815e-05
1.61087e-05
1.56341e-05
1.61013e-05
1.61013e-05
1.61013e-05
1.61014e-05
1.61014e-05
1.61015e-05
1.61016e-05
1.61017e-05
1.61018e-05
1.6102e-05
1.61022e-05
1.61026e-05
1.6103e-05
1.61035e-05
1.61042e-05
1.61052e-05
1.61065e-05
1.6108e-05
1.611e-05
1.61118e-05
1.61191e-05
1.61032e-05
1.61673e-05
1.5818e-05
1.61014e-05
1.61014e-05
1.61015e-05
1.61015e-05
1.61016e-05
1.61016e-05
1.61017e-05
1.61018e-05
1.6102e-05
1.61022e-05
1.61024e-05
1.61028e-05
1.61032e-05
1.61038e-05
1.61046e-05
1.61057e-05
1.61069e-05
1.61084e-05
1.61096e-05
1.61143e-05
1.61128e-05
1.61255e-05
1.6192e-05
1.61014e-05
1.61015e-05
1.61016e-05
1.61016e-05
1.61017e-05
1.61017e-05
1.61018e-05
1.61019e-05
1.6102e-05
1.61022e-05
1.61024e-05
1.61027e-05
1.61031e-05
1.61036e-05
1.61042e-05
1.61051e-05
1.61062e-05
1.61074e-05
1.61088e-05
1.61097e-05
1.61186e-05
1.60837e-05
1.6312e-05
1.61016e-05
1.61016e-05
1.61017e-05
1.61018e-05
1.61018e-05
1.61019e-05
1.6102e-05
1.61021e-05
1.61022e-05
1.61024e-05
1.61026e-05
1.61029e-05
1.61034e-05
1.6104e-05
1.61047e-05
1.61056e-05
1.61067e-05
1.61083e-05
1.61078e-05
1.61186e-05
1.60813e-05
1.62446e-05
1.61017e-05
1.61017e-05
1.61018e-05
1.61019e-05
1.61019e-05
1.6102e-05
1.61021e-05
1.61022e-05
1.61023e-05
1.61025e-05
1.61026e-05
1.61029e-05
1.61033e-05
1.61038e-05
1.61044e-05
1.61052e-05
1.61061e-05
1.61076e-05
1.61074e-05
1.61146e-05
1.60973e-05
1.61524e-05
1.61018e-05
1.61019e-05
1.6102e-05
1.61021e-05
1.61021e-05
1.61022e-05
1.61023e-05
1.61024e-05
1.61026e-05
1.61027e-05
1.61029e-05
1.61032e-05
1.61037e-05
1.61042e-05
1.61049e-05
1.61057e-05
1.61069e-05
1.61075e-05
1.61104e-05
1.611e-05
1.6104e-05
1.61019e-05
1.6102e-05
1.61021e-05
1.61022e-05
1.61023e-05
1.61023e-05
1.61024e-05
1.61025e-05
1.61027e-05
1.61028e-05
1.6103e-05
1.61033e-05
1.61036e-05
1.61041e-05
1.61047e-05
1.61054e-05
1.61063e-05
1.61075e-05
1.61081e-05
1.61139e-05
1.60944e-05
1.61022e-05
1.61022e-05
1.61023e-05
1.61024e-05
1.61025e-05
1.61026e-05
1.61027e-05
1.61028e-05
1.61029e-05
1.61031e-05
1.61033e-05
1.61036e-05
1.6104e-05
1.61046e-05
1.61052e-05
1.6106e-05
1.61072e-05
1.61074e-05
1.61126e-05
1.61003e-05
1.61023e-05
1.61024e-05
1.61025e-05
1.61025e-05
1.61026e-05
1.61027e-05
1.61028e-05
1.61029e-05
1.6103e-05
1.61032e-05
1.61034e-05
1.61037e-05
1.6104e-05
1.61045e-05
1.61051e-05
1.61058e-05
1.61068e-05
1.61073e-05
1.61103e-05
1.61068e-05
1.61024e-05
1.61025e-05
1.61026e-05
1.61027e-05
1.61028e-05
1.61029e-05
1.6103e-05
1.61031e-05
1.61032e-05
1.61033e-05
1.61035e-05
1.61038e-05
1.61041e-05
1.61045e-05
1.6105e-05
1.61056e-05
1.61065e-05
1.61072e-05
1.61088e-05
1.61098e-05
1.61026e-05
1.61027e-05
1.61028e-05
1.61029e-05
1.6103e-05
1.61031e-05
1.61032e-05
1.61034e-05
1.61035e-05
1.61037e-05
1.61039e-05
1.61042e-05
1.61045e-05
1.6105e-05
1.61056e-05
1.61063e-05
1.61071e-05
1.6108e-05
1.61102e-05
1.61027e-05
1.61028e-05
1.6103e-05
1.61031e-05
1.61032e-05
1.61033e-05
1.61034e-05
1.61035e-05
1.61037e-05
1.61038e-05
1.6104e-05
1.61043e-05
1.61046e-05
1.6105e-05
1.61055e-05
1.61061e-05
1.6107e-05
1.61077e-05
1.61096e-05
1.61028e-05
1.6103e-05
1.61031e-05
1.61032e-05
1.61033e-05
1.61035e-05
1.61036e-05
1.61037e-05
1.61038e-05
1.6104e-05
1.61042e-05
1.61044e-05
1.61047e-05
1.61051e-05
1.61055e-05
1.61061e-05
1.61068e-05
1.61076e-05
1.6109e-05
1.61031e-05
1.61032e-05
1.61034e-05
1.61035e-05
1.61036e-05
1.61038e-05
1.61039e-05
1.6104e-05
1.61042e-05
1.61043e-05
1.61046e-05
1.61048e-05
1.61052e-05
1.61056e-05
1.61061e-05
1.61068e-05
1.61075e-05
1.61086e-05
1.61032e-05
1.61034e-05
1.61035e-05
1.61037e-05
1.61038e-05
1.61039e-05
1.61041e-05
1.61042e-05
1.61044e-05
1.61045e-05
1.61047e-05
1.6105e-05
1.61053e-05
1.61057e-05
1.61062e-05
1.61068e-05
1.61075e-05
1.61084e-05
1.61034e-05
1.61035e-05
1.61037e-05
1.61038e-05
1.6104e-05
1.61041e-05
1.61043e-05
1.61044e-05
1.61045e-05
1.61047e-05
1.61049e-05
1.61051e-05
1.61054e-05
1.61058e-05
1.61062e-05
1.61068e-05
1.61075e-05
1.61083e-05
1.61036e-05
1.61038e-05
1.6104e-05
1.61041e-05
1.61043e-05
1.61044e-05
1.61046e-05
1.61047e-05
1.61049e-05
1.61051e-05
1.61053e-05
1.61056e-05
1.61059e-05
1.61063e-05
1.61068e-05
1.61075e-05
1.61083e-05
1.61038e-05
1.61039e-05
1.61041e-05
1.61043e-05
1.61045e-05
1.61046e-05
1.61048e-05
1.61049e-05
1.61051e-05
1.61053e-05
1.61055e-05
1.61058e-05
1.61061e-05
1.61065e-05
1.61069e-05
1.61075e-05
1.61083e-05
1.61039e-05
1.61041e-05
1.61043e-05
1.61044e-05
1.61046e-05
1.61048e-05
1.6105e-05
1.61051e-05
1.61053e-05
1.61055e-05
1.61057e-05
1.6106e-05
1.61063e-05
1.61066e-05
1.61071e-05
1.61076e-05
1.61042e-05
1.61044e-05
1.61046e-05
1.61048e-05
1.6105e-05
1.61052e-05
1.61053e-05
1.61055e-05
1.61057e-05
1.61059e-05
1.61062e-05
1.61064e-05
1.61068e-05
1.61072e-05
1.61077e-05
1.61044e-05
1.61046e-05
1.61048e-05
1.6105e-05
1.61052e-05
1.61053e-05
1.61055e-05
1.61057e-05
1.61059e-05
1.61061e-05
1.61064e-05
1.61066e-05
1.6107e-05
1.61074e-05
1.61078e-05
1.61045e-05
1.61047e-05
1.61049e-05
1.61051e-05
1.61053e-05
1.61055e-05
1.61057e-05
1.61059e-05
1.61061e-05
1.61063e-05
1.61066e-05
1.61069e-05
1.61072e-05
1.61076e-05
1.6108e-05
1.61046e-05
1.61048e-05
1.61051e-05
1.61053e-05
1.61055e-05
1.61057e-05
1.61059e-05
1.61061e-05
1.61063e-05
1.61065e-05
1.61068e-05
1.61071e-05
1.61074e-05
1.61077e-05
1.61082e-05
1.61047e-05
1.6105e-05
1.61052e-05
1.61054e-05
1.61057e-05
1.61059e-05
1.61061e-05
1.61063e-05
1.61065e-05
1.61068e-05
1.6107e-05
1.61073e-05
1.61076e-05
1.6108e-05
1.61084e-05
1.61051e-05
1.61053e-05
1.61056e-05
1.61058e-05
1.61061e-05
1.61063e-05
1.61065e-05
1.61067e-05
1.6107e-05
1.61072e-05
1.61075e-05
1.61078e-05
1.61082e-05
1.61086e-05
1.61052e-05
1.61055e-05
1.61057e-05
1.6106e-05
1.61062e-05
1.61064e-05
1.61067e-05
1.61069e-05
1.61072e-05
1.61074e-05
1.61077e-05
1.6108e-05
1.61084e-05
1.61088e-05
1.61053e-05
1.61056e-05
1.61058e-05
1.61061e-05
1.61063e-05
1.61066e-05
1.61068e-05
1.61071e-05
1.61073e-05
1.61076e-05
1.61079e-05
1.61082e-05
1.61086e-05
1.6109e-05
1.61053e-05
1.61056e-05
1.61059e-05
1.61062e-05
1.61065e-05
1.61067e-05
1.6107e-05
1.61072e-05
1.61075e-05
1.61078e-05
1.61081e-05
1.61084e-05
1.61088e-05
1.61092e-05
1.61054e-05
1.61057e-05
1.6106e-05
1.61063e-05
1.61065e-05
1.61068e-05
1.61071e-05
1.61074e-05
1.61077e-05
1.6108e-05
1.61083e-05
1.61086e-05
1.6109e-05
1.61094e-05
1.61057e-05
1.6106e-05
1.61063e-05
1.61066e-05
1.61069e-05
1.61072e-05
1.61075e-05
1.61078e-05
1.61081e-05
1.61084e-05
1.61088e-05
1.61091e-05
1.61096e-05
1.61057e-05
1.6106e-05
1.61063e-05
1.61066e-05
1.61069e-05
1.61072e-05
1.61075e-05
1.61078e-05
1.61082e-05
1.61085e-05
1.61089e-05
1.61093e-05
1.61056e-05
1.6106e-05
1.61063e-05
1.61066e-05
1.61069e-05
1.61072e-05
1.61076e-05
1.61079e-05
1.61082e-05
1.61086e-05
1.6109e-05
1.61094e-05
1.61055e-05
1.61059e-05
1.61062e-05
1.61065e-05
1.61069e-05
1.61072e-05
1.61075e-05
1.61079e-05
1.61082e-05
1.61086e-05
1.6109e-05
1.61095e-05
1.61053e-05
1.61057e-05
1.61061e-05
1.61064e-05
1.61067e-05
1.61071e-05
1.61075e-05
1.61078e-05
1.61082e-05
1.61086e-05
1.6109e-05
1.61095e-05
1.61055e-05
1.61059e-05
1.61062e-05
1.61066e-05
1.61069e-05
1.61073e-05
1.61077e-05
1.61081e-05
1.61085e-05
1.6109e-05
1.61094e-05
1.61052e-05
1.61056e-05
1.6106e-05
1.61063e-05
1.61067e-05
1.61071e-05
1.61075e-05
1.61079e-05
1.61084e-05
1.61088e-05
1.61093e-05
1.61048e-05
1.61052e-05
1.61056e-05
1.6106e-05
1.61064e-05
1.61068e-05
1.61072e-05
1.61077e-05
1.61081e-05
1.61086e-05
1.61091e-05
1.61044e-05
1.61048e-05
1.61052e-05
1.61056e-05
1.6106e-05
1.61064e-05
1.61069e-05
1.61073e-05
1.61078e-05
1.61083e-05
1.61089e-05
1.61038e-05
1.61043e-05
1.61047e-05
1.61051e-05
1.61055e-05
1.6106e-05
1.61064e-05
1.61069e-05
1.61074e-05
1.61079e-05
1.61085e-05
1.61032e-05
1.61036e-05
1.61041e-05
1.61045e-05
1.61049e-05
1.61054e-05
1.61059e-05
1.61064e-05
1.61069e-05
1.61075e-05
1.61024e-05
1.61029e-05
1.61033e-05
1.61038e-05
1.61042e-05
1.61047e-05
1.61052e-05
1.61057e-05
1.61063e-05
1.61068e-05
1.6102e-05
1.61025e-05
1.6103e-05
1.61034e-05
1.61039e-05
1.61044e-05
1.6105e-05
1.61055e-05
1.61061e-05
1.61011e-05
1.61016e-05
1.6102e-05
1.61025e-05
1.6103e-05
1.61036e-05
1.61041e-05
1.61047e-05
1.61053e-05
1.61e-05
1.61005e-05
1.6101e-05
1.61015e-05
1.6102e-05
1.61026e-05
1.61031e-05
1.61037e-05
1.61044e-05
1.60987e-05
1.60992e-05
1.60997e-05
1.61002e-05
1.61008e-05
1.61014e-05
1.6102e-05
1.61026e-05
1.61032e-05
1.60971e-05
1.60976e-05
1.60981e-05
1.60987e-05
1.60993e-05
1.60999e-05
1.61005e-05
1.61012e-05
1.61019e-05
1.60952e-05
1.60957e-05
1.60962e-05
1.60967e-05
1.60973e-05
1.6098e-05
1.60986e-05
1.60993e-05
1.60929e-05
1.60934e-05
1.60939e-05
1.60945e-05
1.60951e-05
1.60957e-05
1.60964e-05
1.60971e-05
1.60906e-05
1.6091e-05
1.60915e-05
1.6092e-05
1.60926e-05
1.60932e-05
1.60939e-05
1.60946e-05
1.60886e-05
1.6089e-05
1.60895e-05
1.60901e-05
1.60907e-05
1.60913e-05
1.6092e-05
1.60861e-05
1.60865e-05
1.6087e-05
1.60875e-05
1.60881e-05
1.60887e-05
1.60893e-05
1.60835e-05
1.60839e-05
1.60844e-05
1.60849e-05
1.60855e-05
1.60861e-05
1.60867e-05
1.6081e-05
1.60814e-05
1.60818e-05
1.60824e-05
1.60829e-05
1.60835e-05
1.60842e-05
1.60786e-05
1.6079e-05
1.60794e-05
1.60799e-05
1.60805e-05
1.6081e-05
1.60763e-05
1.60766e-05
1.6077e-05
1.60774e-05
1.60779e-05
1.60784e-05
1.6074e-05
1.60743e-05
1.60746e-05
1.60749e-05
1.60754e-05
1.60758e-05
1.60718e-05
1.6072e-05
1.60722e-05
1.60725e-05
1.60728e-05
1.60732e-05
1.60706e-05
1.60706e-05
1.60707e-05
1.60708e-05
1.60709e-05
1.6071e-05
1.6072e-05
1.6072e-05
1.60719e-05
1.60718e-05
1.60716e-05
1.60715e-05
1.60747e-05
1.60747e-05
1.60746e-05
1.60744e-05
1.60743e-05
1.60778e-05
1.60778e-05
1.60778e-05
1.60776e-05
1.60776e-05
1.6081e-05
1.60812e-05
1.60813e-05
1.60815e-05
1.60816e-05
1.60844e-05
1.60847e-05
1.60847e-05
1.60846e-05
1.60869e-05
1.60877e-05
1.60887e-05
1.60898e-05
1.60983e-05
1.60989e-05
1.60995e-05
1.60997e-05
)
;

boundaryField
{
    inlet
    {
        type            calculated;
        value           nonuniform List<scalar> 4(1.60983e-05 1.60989e-05 1.60995e-05 1.60997e-05);
    }
    outlet
    {
        type            calculated;
        value           nonuniform List<scalar> 0();
    }
    walls
    {
        type            calculated;
        value           nonuniform List<scalar> 
42
(
0.00323601
0.0034624
0.00369873
0.00388635
0.00406219
0.00421684
0.0043373
0.00442983
0.00449689
0.00453662
0.00455633
0.00455453
0.00452588
0.00447256
0.00439034
0.00427716
0.00412653
0.00393205
0.00368028
0.0033599
0.0029542
0.00246302
0.0019332
0.0015344
0.0013709
0.00144237
0.00159959
0.00176279
0.0018956
0.00198348
0.00203072
0.0020475
0.00202932
0.00197919
0.00189442
0.00299579
0.00272396
0.00242518
0.00205551
0.00165354
0.00121845
0.000779903
)
;
    }
    frontAndBack
    {
        type            empty;
    }
    procBoundary5to0
    {
        type            processor;
        value           nonuniform List<scalar> 4(1.61047e-05 1.61042e-05 1.6103e-05 1.61023e-05);
    }
    procBoundary5to1
    {
        type            processor;
        value           nonuniform List<scalar> 
13
(
1.69612e-05
1.59112e-05
1.59112e-05
1.61415e-05
1.61003e-05
1.61003e-05
1.61092e-05
1.61063e-05
1.61063e-05
1.61055e-05
1.61043e-05
1.6102e-05
1.6102e-05
)
;
    }
    procBoundary5to4
    {
        type            processor;
        value           nonuniform List<scalar> 
95
(
1.61047e-05
1.61048e-05
1.61045e-05
1.61045e-05
1.61036e-05
1.61033e-05
1.61033e-05
1.61025e-05
1.61023e-05
1.61023e-05
1.61018e-05
1.61018e-05
1.61014e-05
1.61014e-05
1.61012e-05
1.61012e-05
1.61012e-05
1.61013e-05
1.61013e-05
1.61014e-05
1.61015e-05
1.61015e-05
1.61016e-05
1.61018e-05
1.61018e-05
1.61019e-05
1.61021e-05
1.61021e-05
1.61022e-05
1.61023e-05
1.61025e-05
1.61025e-05
1.61026e-05
1.61027e-05
1.6103e-05
1.6103e-05
1.61031e-05
1.61032e-05
1.61035e-05
1.61035e-05
1.61036e-05
1.61037e-05
1.6104e-05
1.6104e-05
1.61041e-05
1.61043e-05
1.61044e-05
1.61045e-05
1.61048e-05
1.61048e-05
1.61049e-05
1.6105e-05
1.6105e-05
1.61051e-05
1.61054e-05
1.61054e-05
1.61053e-05
1.61053e-05
1.61051e-05
1.61049e-05
1.61051e-05
1.61051e-05
1.61048e-05
1.61044e-05
1.61039e-05
1.61034e-05
1.61027e-05
1.6102e-05
1.61016e-05
1.61016e-05
1.61006e-05
1.60995e-05
1.60982e-05
1.60966e-05
1.60947e-05
1.60925e-05
1.60901e-05
1.60881e-05
1.60881e-05
1.60857e-05
1.60831e-05
1.60806e-05
1.60783e-05
1.6076e-05
1.60737e-05
1.60717e-05
1.60706e-05
1.60721e-05
1.60747e-05
1.60747e-05
1.60778e-05
1.60808e-05
1.60842e-05
1.6086e-05
1.60976e-05
)
;
    }
    procBoundary5to6
    {
        type            processor;
        value           nonuniform List<scalar> 
86
(
0.0869233
0.153851
0.20634
0.21537
0.175069
0.0932799
0.0215136
0.000869533
0.000201192
1e-05
1e-05
1.00097e-05
1.23031e-05
2.01999e-05
1.92232e-05
1.64514e-05
1.52675e-05
1.53095e-05
1.57433e-05
1.60766e-05
1.61949e-05
1.61856e-05
1.61462e-05
1.61195e-05
1.61095e-05
1.61082e-05
1.61092e-05
1.61098e-05
1.61098e-05
1.61095e-05
1.61093e-05
1.61092e-05
1.61091e-05
1.61083e-05
1.61083e-05
1.61084e-05
1.61085e-05
1.61086e-05
1.61087e-05
1.61089e-05
1.61091e-05
1.61093e-05
1.61095e-05
1.61097e-05
1.61099e-05
1.611e-05
1.61097e-05
1.61097e-05
1.61098e-05
1.61099e-05
1.61099e-05
1.61099e-05
1.61098e-05
1.61097e-05
1.61094e-05
1.61091e-05
1.6108e-05
1.6108e-05
1.61074e-05
1.61068e-05
1.61059e-05
1.6105e-05
1.61039e-05
1.61026e-05
1.61001e-05
1.61001e-05
1.60979e-05
1.60953e-05
1.60927e-05
1.609e-05
1.60874e-05
1.60849e-05
1.60817e-05
1.60817e-05
1.6079e-05
1.60763e-05
1.60735e-05
1.60712e-05
1.60714e-05
1.60742e-05
1.60775e-05
1.60817e-05
1.60849e-05
1.60849e-05
1.60905e-05
1.61e-05
)
;
    }
}


// ************************************************************************* //
