/*--------------------------------*- C++ -*----------------------------------*\
| =========                 |                                                 |
| \\      /  F ield         | OpenFOAM: The Open Source CFD Toolbox           |
|  \\    /   O peration     | Version:  2306                                  |
|   \\  /    A nd           | Website:  www.openfoam.com                      |
|    \\/     M anipulation  |                                                 |
\*---------------------------------------------------------------------------*/
FoamFile
{
    version     2.0;
    format      ascii;
    arch        "LSB;label=32;scalar=64";
    class       volScalarField;
    location    "725";
    object      div(phi);
}
// * * * * * * * * * * * * * * * * * * * * * * * * * * * * * * * * * * * * * //

dimensions      [0 0 -1 0 0 0 0];

internalField   nonuniform List<scalar> 
10720
(
-7.48564e-06
5.68017e-06
-4.13247e-06
3.33156e-06
-2.60912e-06
-7.58848e-07
-3.57202e-06
-2.08654e-06
-9.64212e-07
6.65799e-07
8.88774e-07
1.16352e-06
6.56656e-07
5.88196e-07
1.89751e-07
2.1472e-07
-1.37121e-07
-3.825e-08
-5.90863e-07
-4.62306e-07
-1.37612e-06
-1.61158e-06
-3.54835e-06
-4.90261e-06
-6.0612e-06
-5.34826e-06
-2.72703e-06
-1.74876e-06
-3.11732e-06
-1.56321e-06
1.15215e-05
-2.35222e-05
-3.43549e-06
-6.17702e-07
6.8896e-06
-2.82985e-05
-7.80103e-05
2.32175e-05
-6.23721e-05
5.74894e-06
-6.16661e-06
1.31185e-09
-1.24364e-06
-9.4739e-07
4.67333e-06
2.19199e-06
7.39929e-06
1.52603e-06
2.00607e-07
1.13204e-07
-4.31781e-07
-2.74935e-07
-5.89683e-07
-3.17768e-07
-4.9695e-07
-2.49633e-07
-5.37623e-07
-2.00094e-07
-6.18454e-07
-5.54236e-09
-3.33606e-07
1.05354e-06
1.63975e-06
1.80616e-06
1.76408e-06
1.25085e-06
1.19699e-06
-1.55758e-06
2.81933e-06
1.09924e-06
1.4803e-06
1.57694e-06
2.57692e-06
2.54012e-06
7.25351e-07
1.3949e-05
9.89382e-06
1.06816e-05
-3.57196e-06
1.58354e-06
-2.59773e-06
2.47952e-06
-2.79065e-06
-1.42588e-06
-2.84058e-06
-1.94228e-06
-2.41347e-07
7.76084e-07
9.67906e-07
1.05933e-06
6.19428e-07
5.81729e-07
1.85593e-07
2.12147e-07
-1.61181e-07
-1.67992e-07
-6.23702e-07
-5.74344e-07
-9.69095e-07
-7.20716e-07
-9.90788e-07
-9.78931e-07
-1.60171e-06
-1.70114e-06
-1.26854e-06
-8.34887e-07
-1.64166e-06
-1.21316e-06
5.83868e-06
-1.37763e-05
-3.84242e-06
-4.77749e-06
-1.8922e-06
-1.15455e-05
-7.10569e-05
-5.18605e-05
-8.32245e-05
1.17794e-07
-2.92547e-06
1.16358e-06
-6.24021e-07
2.55999e-06
8.12281e-07
5.54451e-06
1.34479e-06
4.63773e-07
2.36164e-07
-6.56804e-08
-2.33018e-07
-3.96212e-07
-6.1214e-07
-5.19255e-07
-6.22041e-07
-4.31667e-07
-5.75282e-07
-3.5633e-07
-5.35711e-07
-1.52671e-07
-2.31667e-07
7.2214e-07
1.10928e-06
1.54122e-06
1.48917e-06
1.47358e-06
1.09881e-06
-1.06691e-06
2.18708e-06
9.28907e-07
1.42214e-06
1.44026e-06
2.71891e-06
2.71934e-06
2.46339e-07
1.36712e-05
1.18272e-05
1.8364e-05
6.67425e-06
-4.33754e-06
4.33811e-06
-3.20113e-06
4.5772e-07
-2.97736e-06
-2.18985e-06
-9.26265e-07
2.6661e-07
6.86696e-07
1.24387e-06
8.67405e-07
8.87869e-07
4.84491e-07
4.52005e-07
2.02438e-07
1.33513e-07
-1.15728e-08
-2.10766e-07
-2.75857e-07
-6.56561e-07
-7.0979e-07
-1.45032e-06
-1.78888e-06
-2.74906e-06
-2.35986e-06
-2.77441e-06
-1.13747e-06
-2.11868e-06
-7.37711e-07
4.88776e-06
-1.18302e-05
-1.25205e-06
1.62533e-06
6.56786e-06
-1.8572e-05
-2.64439e-05
4.15715e-05
-1.26135e-05
-4.62322e-06
3.09803e-06
-4.53045e-07
2.6872e-06
1.0196e-06
1.81405e-06
1.38522e-06
1.4301e-07
2.71035e-09
8.31113e-08
-7.50361e-08
-7.75604e-08
-4.40127e-07
-3.83185e-07
-5.46649e-07
-3.61429e-07
-4.29298e-07
-3.5519e-07
-3.58783e-07
-3.86761e-07
-2.07475e-07
-1.48156e-07
6.50974e-07
1.20329e-06
1.59029e-06
1.46483e-06
1.47303e-06
9.93441e-07
-1.05456e-06
2.29722e-06
9.78521e-07
1.45699e-06
1.36626e-06
2.23443e-06
1.99187e-06
1.22183e-06
1.06497e-05
6.7913e-06
5.53728e-06
-3.13673e-06
2.80024e-06
-1.33817e-06
8.07918e-07
-2.351e-06
-1.91828e-06
-1.34542e-06
-4.40772e-07
3.6441e-07
9.31202e-07
1.06969e-06
8.55019e-07
8.12118e-07
4.43367e-07
4.81735e-07
9.48457e-08
1.06284e-07
-3.18974e-07
-4.1752e-07
-8.00207e-07
-8.25644e-07
-9.27505e-07
-7.34209e-07
-8.74349e-07
-1.07238e-06
-1.67331e-06
-1.67193e-06
-1.62232e-06
-1.78238e-06
-1.19058e-06
2.49547e-06
-8.96371e-06
-3.5587e-06
-4.19521e-06
-2.34353e-06
-7.74281e-06
-4.73137e-05
-3.33519e-05
-6.21137e-05
2.21589e-06
6.43395e-07
2.39337e-06
2.07748e-06
1.35251e-06
1.74946e-06
-1.38291e-07
-2.52153e-07
-5.30382e-08
-5.83329e-08
6.6984e-08
-1.34459e-07
-3.7932e-07
-5.21239e-07
-6.59212e-07
-5.33728e-07
-5.69405e-07
-4.22873e-07
-5.06365e-07
-3.40549e-07
-3.29512e-07
-6.85731e-08
3.04837e-07
8.28201e-07
1.09704e-06
1.40124e-06
1.43131e-06
1.21082e-06
-5.74308e-07
1.7484e-06
9.80173e-07
1.42024e-06
1.47319e-06
2.68794e-06
2.61379e-06
8.65915e-07
1.36161e-05
1.25023e-05
1.9644e-05
-1.27619e-06
2.20549e-07
2.03088e-07
-1.38718e-06
-1.31297e-06
-1.71344e-06
-8.66962e-07
-1.41013e-08
3.95115e-07
1.01597e-06
8.3263e-07
9.93324e-07
6.31918e-07
7.09199e-07
4.00297e-07
4.01681e-07
1.50321e-07
9.61608e-08
-1.0449e-07
-1.9828e-07
-3.77993e-07
-5.66546e-07
-8.87705e-07
-1.49345e-06
-2.1229e-06
-2.9023e-06
-2.79398e-06
-2.51506e-06
-1.91013e-06
-1.05036e-06
2.37462e-06
-8.19053e-06
-1.44645e-06
3.32638e-06
7.19409e-06
-1.91358e-05
-1.80783e-05
4.53296e-05
-3.15851e-06
1.80308e-06
1.51033e-06
2.85822e-06
1.06175e-06
1.16704e-06
4.00976e-07
-2.22713e-07
-4.12477e-07
-2.90268e-07
4.18823e-09
7.72438e-08
-1.4646e-07
-2.89089e-07
-6.17321e-07
-5.10128e-07
-6.12048e-07
-3.83464e-07
-4.80486e-07
-3.27383e-07
-4.20145e-07
-2.12834e-07
-2.05544e-07
3.81532e-07
6.92825e-07
1.28766e-06
1.32317e-06
1.54772e-06
1.02054e-06
-3.66985e-07
1.4332e-06
9.67892e-07
1.18436e-06
1.27331e-06
1.7646e-06
1.59712e-06
1.86785e-06
8.73721e-06
4.37686e-06
2.90442e-06
9.37231e-07
-6.77356e-08
-1.29846e-06
-3.04205e-07
-1.69512e-06
-9.01208e-07
-4.06356e-07
-2.18032e-08
6.30155e-07
7.70076e-07
8.22068e-07
7.59716e-07
5.8937e-07
6.29755e-07
3.35888e-07
3.40467e-07
-4.65702e-08
-9.90786e-08
-5.3496e-07
-5.88139e-07
-8.99641e-07
-7.0627e-07
-7.84955e-07
-5.28285e-07
-9.78458e-07
-1.34966e-06
-2.10753e-06
-2.1519e-06
-2.64215e-06
-1.69223e-06
5.75576e-07
-7.27817e-06
-4.03322e-06
-4.2409e-06
-2.3497e-06
-8.89683e-06
-3.99018e-05
-2.25928e-05
-4.8966e-05
1.00351e-06
2.33127e-06
2.18247e-06
1.09027e-06
1.85176e-06
1.47033e-07
-4.91993e-07
-4.08529e-07
-2.23136e-07
7.12899e-08
8.66101e-08
-4.47823e-08
-3.689e-07
-5.72753e-07
-6.7559e-07
-6.13475e-07
-4.99828e-07
-5.0788e-07
-4.22118e-07
-3.97664e-07
-2.76835e-07
-1.37038e-07
1.19124e-07
4.92057e-07
7.65926e-07
1.2065e-06
1.30758e-06
1.33939e-06
-2.08575e-07
1.42869e-06
1.08581e-06
1.34278e-06
1.39346e-06
2.36898e-06
2.2589e-06
1.5783e-06
1.17715e-05
1.19746e-05
1.84977e-05
2.11924e-06
-1.54056e-06
-7.89831e-08
-1.28574e-06
-7.41865e-07
-5.97833e-07
-2.59899e-07
1.20947e-07
5.43241e-07
5.81534e-07
7.37573e-07
5.40625e-07
7.12993e-07
5.08993e-07
5.92087e-07
3.24143e-07
2.906e-07
7.26318e-08
1.38377e-08
-1.01018e-07
-1.74595e-07
-2.46352e-07
-4.40289e-07
-7.53272e-07
-1.4312e-06
-2.0558e-06
-2.99788e-06
-2.33448e-06
-2.79034e-06
-7.66709e-07
8.01825e-07
-5.89364e-06
-5.71242e-07
4.09385e-06
8.43089e-06
-2.14227e-05
-1.67151e-05
4.90051e-05
-1.78273e-06
7.53791e-07
2.83757e-06
6.35903e-07
1.6685e-06
-2.95819e-07
1.98816e-07
-1.38526e-07
-4.42324e-07
-1.28596e-07
6.85988e-08
1.45227e-07
-2.55693e-08
-3.83109e-07
-5.46603e-07
-7.10592e-07
-5.35738e-07
-5.47952e-07
-3.96348e-07
-4.83219e-07
-2.91993e-07
-3.89692e-07
-7.62937e-08
-6.17893e-08
5.71224e-07
6.15238e-07
1.37278e-06
1.15769e-06
1.41994e-06
-3.83092e-07
1.2751e-06
7.27974e-07
1.10387e-06
9.45904e-07
1.45234e-06
1.03744e-06
1.91207e-06
5.299e-06
2.35884e-06
-1.85854e-07
-1.30516e-06
-7.75586e-07
-8.61531e-07
-7.6788e-07
-4.95073e-07
-3.63513e-07
-2.0521e-07
2.26015e-07
3.53176e-07
5.93291e-07
4.37412e-07
4.37375e-07
5.3757e-07
4.49994e-07
4.96707e-07
1.97905e-07
1.59548e-07
-2.31362e-07
-2.80386e-07
-6.40192e-07
-5.77331e-07
-7.26975e-07
-4.39865e-07
-5.22491e-07
-4.49852e-07
-1.16202e-06
-1.677e-06
-2.50979e-06
-2.95274e-06
-2.53217e-06
-6.95843e-07
-5.83908e-06
-4.26208e-06
-3.99508e-06
-2.26011e-06
-1.06092e-05
-3.66494e-05
-1.53921e-05
-3.82598e-05
1.8626e-06
4.85602e-07
1.91833e-06
-2.08197e-06
1.27273e-06
1.28696e-07
-1.89335e-07
-3.02841e-07
-4.14248e-08
1.65701e-07
2.02849e-07
-4.50611e-08
-3.14144e-07
-6.32027e-07
-6.36434e-07
-5.94815e-07
-4.89234e-07
-4.9712e-07
-4.20972e-07
-3.98992e-07
-2.55355e-07
-1.97644e-07
1.34852e-08
2.24666e-07
5.04655e-07
8.9164e-07
1.12375e-06
1.22435e-06
7.07363e-08
1.24147e-06
1.31205e-06
1.39492e-06
1.38197e-06
2.08752e-06
1.98576e-06
2.13675e-06
9.77306e-06
1.08284e-05
1.54127e-05
-1.96729e-07
-4.99718e-07
-1.10193e-06
-5.18285e-07
-4.99882e-07
-2.68551e-07
-7.27836e-08
2.7801e-08
3.56768e-07
2.46011e-07
3.05461e-07
4.31042e-07
3.78505e-07
6.12392e-07
4.30787e-07
4.72313e-07
1.99314e-07
2.00497e-07
3.03856e-09
6.74456e-08
-5.73005e-08
6.11631e-08
-1.02628e-07
-9.71498e-08
-7.38e-07
-1.00719e-06
-2.32296e-06
-2.09484e-06
-2.81794e-06
-8.59876e-07
-2.7561e-07
-3.13759e-06
-4.33174e-07
5.23252e-06
8.14853e-06
-2.07089e-05
-1.39694e-05
5.16049e-05
-1.03808e-06
-1.86084e-07
1.8348e-06
-1.47247e-06
2.9145e-06
-1.00517e-06
1.44908e-07
1.71817e-08
-1.00679e-08
-3.44052e-08
2.1576e-07
2.06974e-07
-1.3277e-08
-3.34817e-07
-5.90768e-07
-6.12837e-07
-5.74456e-07
-4.62524e-07
-5.0944e-07
-3.88612e-07
-4.37705e-07
-2.46105e-07
-2.97358e-07
-6.15346e-09
7.20836e-08
5.22045e-07
7.20134e-07
1.16742e-06
1.00097e-06
-1.41788e-08
7.83258e-07
1.01417e-06
8.05999e-07
8.81218e-07
9.87717e-07
7.78349e-07
1.97721e-06
3.15081e-06
3.9229e-07
-2.24269e-06
-9.61653e-07
-1.72214e-06
-9.72085e-07
-9.26041e-07
-3.71934e-07
-2.14997e-07
-1.25635e-07
1.07408e-07
-3.44466e-10
8.07413e-07
-9.34952e-08
1.95696e-07
3.3166e-07
4.63557e-07
3.6064e-07
3.4076e-07
7.85297e-08
-3.41695e-08
-2.95446e-07
-3.79997e-07
-5.06567e-07
-4.55907e-07
-3.62818e-07
-2.76091e-07
-2.50042e-07
-7.27109e-07
-1.23932e-06
-2.36773e-06
-2.91717e-06
-3.29307e-06
-1.2979e-06
-5.20709e-06
-4.5779e-06
-3.73031e-06
-2.16254e-06
-1.06465e-05
-2.93407e-05
-1.04677e-05
-2.97274e-05
1.20323e-06
3.75192e-08
2.03118e-06
-2.00251e-06
1.24478e-06
-6.12816e-08
1.24193e-07
-6.41979e-07
2.26637e-07
2.80973e-07
2.16149e-07
6.67878e-09
-3.67515e-07
-5.2312e-07
-5.97006e-07
-4.72085e-07
-5.07952e-07
-4.28722e-07
-4.84638e-07
-3.19172e-07
-3.2744e-07
-1.52736e-07
-1.39976e-07
1.2192e-07
2.06535e-07
6.43099e-07
7.45345e-07
1.01644e-06
1.56961e-07
1.17029e-06
1.43789e-06
1.57504e-06
1.47634e-06
1.8918e-06
1.84689e-06
2.64223e-06
8.19861e-06
9.6236e-06
1.23119e-05
-1.1136e-06
-5.5323e-07
-4.82559e-07
-1.27726e-07
-4.32508e-07
-1.96526e-07
-2.41811e-07
-3.1294e-07
1.09769e-06
-3.65051e-07
1.65332e-07
-1.20281e-07
3.04596e-07
3.39775e-07
5.21988e-07
3.33041e-07
3.79348e-07
1.05166e-07
2.13766e-07
-1.15326e-09
2.34578e-07
2.29696e-08
3.96258e-07
-4.31851e-08
2.58867e-07
-7.44579e-07
-6.81428e-07
-2.20482e-06
-1.60937e-06
-1.82927e-06
7.67611e-07
-2.12305e-06
6.78796e-07
5.2176e-06
7.53252e-06
-1.74405e-05
-1.1974e-05
5.02099e-05
-2.20143e-06
1.91002e-07
7.01504e-07
1.41873e-07
3.59349e-07
-9.63635e-07
6.59873e-07
-7.08227e-07
4.70992e-08
1.98848e-07
3.70611e-07
2.61197e-07
-2.95876e-08
-3.02037e-07
-5.1175e-07
-4.96733e-07
-4.75673e-07
-4.56145e-07
-4.62015e-07
-4.55443e-07
-3.68658e-07
-3.36103e-07
-2.30096e-07
-2.12355e-07
1.88991e-08
8.60411e-08
5.25359e-07
5.54581e-07
8.45365e-07
-1.31759e-07
7.2826e-07
8.3459e-07
1.0212e-06
6.14664e-07
8.27716e-07
4.56191e-07
1.69995e-06
1.18911e-06
-7.78406e-07
-2.899e-06
-2.8289e-07
-9.76151e-07
-2.6475e-07
-1.00307e-07
-2.07122e-08
-2.60312e-07
-4.02342e-07
5.45624e-07
-6.6973e-07
9.47836e-07
-3.61376e-07
-1.99165e-07
1.20406e-07
2.60207e-07
3.49939e-07
3.37757e-07
1.76406e-07
5.41475e-08
-1.7687e-07
-2.2675e-07
-3.74348e-07
-2.74844e-07
-2.90069e-07
-1.06941e-07
-1.62023e-07
-3.53807e-07
-8.59855e-07
-1.8433e-06
-2.63453e-06
-3.29615e-06
-1.70652e-06
-4.78671e-06
-5.1187e-06
-3.69444e-06
-2.15556e-06
-9.9465e-06
-2.19434e-05
-6.45918e-06
-2.24367e-05
2.81279e-07
2.45404e-07
2.19443e-07
-1.23259e-07
2.4593e-07
-3.55923e-07
2.84202e-07
-4.53848e-07
3.82158e-07
4.92094e-07
2.72849e-07
-3.73686e-08
-2.83713e-07
-4.46698e-07
-4.11041e-07
-4.42145e-07
-3.96046e-07
-5.04198e-07
-3.81688e-07
-4.02542e-07
-2.33686e-07
-2.68219e-07
-1.03042e-07
-8.78135e-08
1.2058e-07
2.74676e-07
5.00201e-07
5.91536e-07
2.72421e-07
9.50019e-07
1.5006e-06
1.65842e-06
1.68587e-06
1.8292e-06
1.76894e-06
2.91011e-06
6.87209e-06
8.2748e-06
9.63536e-06
-4.7874e-07
-3.4182e-07
-1.29092e-07
-5.74841e-08
-1.52244e-07
-1.4986e-07
-7.85763e-08
-4.20459e-07
1.45749e-06
-7.39438e-07
-1.88366e-07
-1.05037e-07
2.53691e-08
2.90873e-07
3.37002e-07
4.75884e-07
3.10132e-07
3.33493e-07
1.13019e-07
2.43133e-07
7.8598e-08
3.42341e-07
1.83831e-07
4.85779e-07
1.26717e-07
3.15334e-07
-4.89626e-07
-6.48261e-07
-1.51472e-06
-7.14586e-07
7.27008e-07
-4.57654e-07
1.11033e-06
5.71597e-06
6.7852e-06
-1.40577e-05
-9.9806e-06
4.54829e-05
-2.20875e-06
2.73666e-08
1.60193e-07
-3.16201e-08
9.43517e-08
-1.3142e-07
1.26432e-07
-7.38367e-07
2.5735e-07
3.25458e-07
3.85966e-07
1.9366e-07
-2.21659e-08
-2.87451e-07
-3.35075e-07
-3.97669e-07
-3.51856e-07
-4.46163e-07
-4.31464e-07
-4.52544e-07
-3.51796e-07
-3.30333e-07
-2.67491e-07
-2.40873e-07
-1.47345e-07
-6.18605e-08
1.46857e-07
2.32924e-07
3.6851e-07
-1.14244e-07
4.43572e-07
8.54514e-07
8.21807e-07
8.04111e-07
4.888e-07
3.62328e-07
1.41937e-06
5.09973e-08
-1.6225e-06
-3.26093e-06
-3.10238e-07
-3.15787e-07
-1.34381e-07
-1.21633e-08
-5.23909e-08
-2.71556e-07
-3.01871e-07
2.61793e-07
-2.32801e-07
6.78375e-07
-1.64554e-07
-1.14131e-07
-6.11773e-08
1.60945e-07
3.57404e-07
3.36002e-07
3.52892e-07
6.2684e-08
4.92784e-08
-2.28172e-07
-1.38542e-07
-3.11744e-07
-8.66858e-08
-2.06265e-07
5.48506e-08
-3.09546e-07
-3.56917e-07
-1.43564e-06
-1.82916e-06
-2.95409e-06
-1.64064e-06
-4.59181e-06
-5.15284e-06
-4.0079e-06
-1.90687e-06
-9.01171e-06
-1.54757e-05
-3.44641e-06
-1.65096e-05
-3.80092e-08
-1.43222e-09
4.7739e-08
-1.38451e-07
8.4227e-08
-1.35287e-07
-8.05688e-09
-3.64663e-07
4.16633e-07
2.85081e-07
1.70232e-07
-6.38197e-08
-2.29511e-07
-2.85443e-07
-3.21827e-07
-3.21006e-07
-4.40222e-07
-4.07919e-07
-4.34376e-07
-3.02357e-07
-3.16585e-07
-1.98513e-07
-2.19831e-07
-8.78471e-08
-7.50285e-08
1.33864e-07
1.71988e-07
3.48898e-07
1.80989e-07
8.26658e-07
1.26305e-06
1.71492e-06
1.74946e-06
1.94932e-06
1.75658e-06
3.09441e-06
5.70359e-06
6.94508e-06
7.37163e-06
-2.69137e-07
-2.73745e-07
-2.39953e-09
-6.44896e-08
-1.58734e-07
-1.55667e-07
-1.22153e-07
-2.1985e-07
1.82777e-07
8.64073e-08
-3.90526e-07
-9.263e-08
-3.7414e-08
1.47829e-07
3.76838e-07
4.70924e-07
4.41309e-07
3.23795e-07
2.54568e-07
1.59326e-07
2.09705e-07
1.76097e-07
3.48675e-07
2.84041e-07
4.93611e-07
2.81677e-07
4.03076e-07
-3.15141e-07
-1.12794e-07
-3.85559e-07
1.4571e-06
5.09679e-07
1.57312e-06
6.51846e-06
6.15548e-06
-1.09018e-05
-9.99701e-06
4.08229e-05
-2.93364e-06
-1.11831e-07
-3.70708e-08
-7.20737e-08
6.75089e-08
-1.05177e-07
4.13922e-08
-1.09456e-07
1.09373e-07
3.13503e-07
3.29982e-07
1.17008e-07
-7.67784e-08
-1.62373e-07
-2.68806e-07
-2.36124e-07
-3.64624e-07
-3.60336e-07
-4.59551e-07
-3.53577e-07
-3.71659e-07
-2.75986e-07
-3.0358e-07
-2.37921e-07
-2.44248e-07
-1.59628e-07
-9.94761e-08
-2.95345e-09
-8.2144e-10
-1.17019e-07
2.06688e-07
5.99483e-07
7.71817e-07
6.73983e-07
4.93991e-07
1.6536e-07
1.05966e-06
-8.50606e-07
-2.15692e-06
-2.8055e-06
-2.6853e-07
-1.67149e-07
-1.08164e-07
1.38727e-09
-5.47127e-08
-2.82757e-07
-2.80113e-07
1.67657e-07
-8.38558e-08
-1.16103e-07
1.8041e-07
-4.55086e-07
6.32519e-08
9.60076e-08
3.48305e-07
4.75982e-07
2.97655e-07
2.61772e-07
-2.69516e-08
4.9605e-09
-2.38491e-07
-8.60943e-08
-2.48631e-07
5.44014e-09
-1.34049e-07
2.10668e-08
-3.34361e-07
-7.10952e-07
-1.35198e-06
-1.98578e-06
-1.69222e-06
-3.91592e-06
-5.01603e-06
-3.94939e-06
-1.74037e-06
-7.66478e-06
-1.08063e-05
-1.34167e-06
-1.2535e-05
-1.13756e-07
-7.04763e-08
-6.52372e-09
-1.10863e-07
8.02573e-08
-8.12164e-08
1.50346e-08
1.07386e-08
1.01632e-07
1.86229e-07
4.52357e-08
-5.73417e-08
-1.25909e-07
-1.86639e-07
-2.27568e-07
-3.33225e-07
-3.73582e-07
-4.10692e-07
-3.33622e-07
-3.33455e-07
-2.38096e-07
-2.6313e-07
-1.65174e-07
-1.9613e-07
-6.45754e-08
-6.45666e-08
8.87756e-08
8.1299e-08
2.17414e-07
5.42791e-07
1.07568e-06
1.47771e-06
1.7951e-06
1.96823e-06
1.8324e-06
3.0334e-06
4.67704e-06
5.5807e-06
5.63894e-06
-2.08745e-07
-2.1185e-07
2.88711e-08
-6.3576e-08
-1.71642e-07
-1.43063e-07
-1.09464e-07
-2.64036e-07
1.88998e-07
1.2782e-07
-3.25356e-07
8.37957e-09
-3.19358e-07
1.1681e-07
4.01993e-07
4.47702e-07
4.63343e-07
2.83235e-07
2.60645e-07
1.28449e-07
1.72768e-07
1.29761e-07
2.62478e-07
2.63533e-07
4.47351e-07
4.29171e-07
6.18352e-07
2.41177e-07
5.773e-07
2.92193e-07
1.88682e-06
8.26235e-07
2.36168e-06
5.99453e-06
6.57215e-06
-8.22452e-06
-9.38642e-06
3.53346e-05
-3.04027e-06
-1.32733e-07
-7.95858e-08
-7.40564e-08
5.83854e-08
-7.15036e-08
6.40354e-08
-4.89433e-08
1.04872e-08
6.30089e-08
1.60932e-07
9.6333e-08
3.51311e-08
-1.27725e-07
-1.18305e-07
-2.59748e-07
-2.69139e-07
-4.01969e-07
-3.18274e-07
-3.61991e-07
-2.59205e-07
-2.96016e-07
-2.3056e-07
-2.70656e-07
-2.23766e-07
-2.4582e-07
-1.55418e-07
-1.89615e-07
-1.02586e-07
-2.18588e-07
1.06832e-07
2.42875e-07
6.25545e-07
4.91079e-07
4.5919e-07
-8.30807e-08
6.25512e-07
-1.37813e-06
-2.17641e-06
-2.53506e-06
-2.21878e-07
-1.15092e-07
-9.58811e-08
8.41491e-09
-7.19775e-08
-2.66941e-07
-2.68662e-07
1.49393e-07
-7.35514e-08
-7.33853e-08
1.30245e-07
-1.45411e-07
-7.24682e-08
2.39551e-07
3.12505e-07
3.84708e-07
3.2818e-07
1.27093e-07
9.98852e-08
-9.00525e-08
-8.0546e-08
-1.95925e-07
-1.06302e-07
-1.27191e-07
-7.51592e-09
-2.8145e-08
-1.11618e-07
-3.94151e-07
-8.11339e-07
-1.24381e-06
-1.55046e-06
-3.22305e-06
-4.40611e-06
-3.72175e-06
-1.49913e-06
-6.00454e-06
-6.72525e-06
-4.54191e-08
-9.43921e-06
-1.13664e-07
-8.16398e-08
-1.97013e-08
-8.80808e-08
7.88594e-08
-4.29894e-08
4.09957e-08
-3.9771e-08
7.94231e-10
6.07277e-08
1.1802e-07
-2.2188e-07
5.32872e-08
-9.19128e-08
-2.12506e-07
-2.94636e-07
-3.36907e-07
-3.09629e-07
-3.06434e-07
-2.39359e-07
-2.54311e-07
-1.82888e-07
-2.12853e-07
-1.27831e-07
-1.21574e-07
-5.33683e-08
-1.30946e-08
4.56089e-08
1.54108e-07
4.04047e-07
8.1489e-07
1.20968e-06
1.66458e-06
1.87344e-06
1.94813e-06
2.82182e-06
3.729e-06
4.39755e-06
4.17326e-06
-1.65553e-07
-1.75489e-07
4.53222e-08
-7.81778e-08
-1.61746e-07
-1.27132e-07
-8.97158e-08
-2.57778e-07
1.54849e-07
1.01219e-07
-1.27549e-07
-6.32961e-08
2.06156e-09
3.22712e-08
2.57309e-07
3.71376e-07
2.49027e-07
2.66201e-07
1.07007e-07
1.78592e-07
2.26893e-08
1.6731e-07
7.07867e-08
3.09125e-07
2.37494e-07
5.86702e-07
4.55624e-07
7.60361e-07
5.52161e-07
1.13752e-06
1.28415e-06
1.48865e-06
2.00143e-06
5.78303e-06
6.33697e-06
-6.048e-06
-9.21251e-06
3.06763e-05
-3.20868e-06
-1.20851e-07
-8.02074e-08
-6.3257e-08
5.4522e-08
-5.54454e-08
8.33897e-08
-5.06888e-08
1.34937e-08
-3.13188e-08
7.83487e-08
-2.04582e-07
2.80423e-07
1.98908e-08
-4.59779e-08
-1.39137e-07
-3.03368e-07
-2.44811e-07
-3.10199e-07
-2.11743e-07
-2.58125e-07
-1.81878e-07
-2.31513e-07
-1.82666e-07
-2.3062e-07
-1.56305e-07
-2.22326e-07
-1.26253e-07
-2.28095e-07
-9.91921e-08
-1.27064e-07
2.03464e-07
1.99331e-07
4.9409e-07
1.49754e-07
-4.7045e-08
3.42782e-07
-1.56607e-06
-2.17882e-06
-1.89669e-06
-1.7962e-07
-8.12865e-08
-9.4101e-08
6.00869e-09
-5.8807e-08
-2.52629e-07
-2.37741e-07
1.33459e-07
-1.08035e-07
-3.22301e-08
1.53192e-07
4.38821e-08
6.95431e-08
1.4818e-07
2.99983e-07
2.46418e-07
1.06772e-07
7.61156e-08
2.68623e-08
-3.14064e-08
-1.06805e-07
-1.49116e-07
-1.4403e-07
-1.09879e-07
-4.5145e-08
-8.4572e-09
-8.02041e-08
-1.90018e-07
-5.39525e-07
-7.64495e-07
-1.45979e-06
-2.49044e-06
-3.68313e-06
-3.15127e-06
-1.20954e-06
-4.32735e-06
-3.67739e-06
9.50005e-07
-7.27167e-06
-9.84834e-08
-6.59692e-08
-1.80416e-08
-6.9131e-08
8.3973e-08
-2.82926e-08
6.88478e-08
-7.08032e-08
1.1947e-08
-7.68095e-08
1.54904e-07
-2.67827e-07
2.07231e-07
3.44163e-08
-1.43305e-07
-2.14213e-07
-2.40009e-07
-2.32321e-07
-2.03608e-07
-2.05494e-07
-1.63018e-07
-1.81993e-07
-1.29845e-07
-8.98583e-08
-5.92627e-08
-3.40026e-08
7.85467e-09
4.22735e-08
1.62713e-07
2.99535e-07
6.60962e-07
9.23667e-07
1.47509e-06
1.65077e-06
1.98764e-06
2.39259e-06
2.919e-06
3.20388e-06
3.01314e-06
-1.32596e-07
-1.46804e-07
4.50451e-08
-6.95937e-08
-1.5187e-07
-1.09705e-07
-8.31158e-08
-2.59364e-07
1.26423e-07
1.46648e-07
-9.91288e-08
1.56125e-07
6.67969e-08
2.53451e-07
1.56064e-07
8.09585e-09
1.38111e-07
5.7183e-08
1.37901e-07
3.16944e-08
8.90707e-08
-1.27338e-08
1.14882e-07
7.46646e-08
2.79299e-07
3.07664e-07
5.4083e-07
5.43269e-07
7.72174e-07
9.06263e-07
1.18427e-06
1.17946e-06
1.97372e-06
4.63476e-06
6.06199e-06
-4.47004e-06
-8.8863e-06
2.52143e-05
-3.12044e-06
-9.89057e-08
-6.66261e-08
-4.77796e-08
5.68004e-08
-3.46042e-08
9.63014e-08
-3.61302e-08
3.04631e-08
-2.80444e-08
2.59567e-08
-2.07861e-07
3.63695e-07
2.72609e-08
3.04845e-08
-1.56857e-07
-1.41346e-07
-2.21446e-07
-1.42425e-07
-1.95849e-07
-1.17221e-07
-1.67873e-07
-1.12727e-07
-1.4123e-07
-7.67424e-08
-1.28449e-07
-9.03821e-08
-1.37909e-07
-1.04721e-07
-1.3281e-07
-5.56581e-08
2.28116e-08
1.29142e-07
2.1786e-07
8.12113e-08
-1.85393e-07
-1.93216e-07
-1.94717e-06
-1.83395e-06
-1.67508e-06
-1.45584e-07
-6.54065e-08
-8.55937e-08
1.45859e-08
-6.09424e-08
-2.26929e-07
-2.26621e-07
1.16501e-07
-8.76594e-08
-3.38109e-08
2.48586e-07
7.60877e-08
1.74105e-07
8.07264e-08
-2.61882e-08
5.21677e-07
-6.53552e-08
-1.9518e-08
1.0248e-08
-1.0211e-08
-1.11111e-07
-1.37548e-07
-1.73243e-07
-1.29779e-07
-9.23994e-08
-6.21783e-08
-1.02209e-07
-1.74996e-07
-4.17896e-07
-6.18203e-07
-1.29676e-06
-1.94981e-06
-2.94417e-06
-2.50725e-06
-9.62857e-07
-3.05732e-06
-1.59305e-06
1.60551e-06
-5.49388e-06
-7.91224e-08
-5.53612e-08
-1.1141e-08
-5.20064e-08
8.67536e-08
-1.72649e-08
8.81164e-08
-5.13447e-08
7.78811e-10
-5.25171e-08
1.37911e-07
-1.29115e-07
2.02125e-07
-3.62839e-08
-8.07897e-08
-1.4644e-07
-1.40562e-07
-1.39429e-07
-1.22682e-07
-1.11006e-07
-1.18579e-07
-9.33933e-08
-3.71972e-08
1.35163e-09
2.33538e-08
2.4178e-08
5.33088e-08
8.62816e-08
1.81795e-07
2.79037e-07
5.5444e-07
7.36409e-07
1.24433e-06
1.38892e-06
1.81555e-06
1.9187e-06
2.14272e-06
2.21451e-06
2.058e-06
-1.12474e-07
-1.25588e-07
4.57384e-08
-7.39562e-08
-1.31509e-07
-9.22673e-08
-7.40015e-08
-2.36518e-07
1.18994e-07
1.4703e-07
-3.35645e-08
1.57399e-07
1.0764e-07
-9.12672e-08
6.70523e-07
-4.25126e-07
-2.97368e-07
-9.80407e-08
8.58832e-09
5.92428e-08
-1.12145e-08
-6.73009e-09
-4.05778e-08
3.97737e-08
6.48062e-08
2.20238e-07
2.69868e-07
4.64709e-07
4.72771e-07
7.82512e-07
7.01506e-07
1.03952e-06
1.52741e-06
3.48072e-06
5.27711e-06
-3.58635e-06
-7.13427e-06
2.09476e-05
-3.21863e-06
-8.27807e-08
-5.30543e-08
-3.4864e-08
5.66621e-08
-2.72291e-08
1.04462e-07
-2.52554e-08
5.27917e-08
-3.65045e-08
-2.42069e-10
-2.51436e-08
4.08888e-08
1.0911e-07
-6.634e-08
-6.31522e-08
-1.43547e-07
-6.88567e-08
-1.27008e-07
-5.30471e-08
-1.00142e-07
-4.69358e-08
-4.71813e-08
2.11843e-08
1.19306e-08
1.20087e-08
-2.94635e-08
-2.9022e-08
-5.94785e-08
-2.52505e-08
-5.30757e-08
6.11846e-08
-9.33707e-10
1.64474e-07
-1.03252e-07
-2.77551e-07
-2.87876e-07
-1.78109e-06
-1.86184e-06
-1.23397e-06
-1.28293e-07
-5.44702e-08
-8.91579e-08
1.03404e-08
-4.54471e-08
-2.07308e-07
-1.94428e-07
1.08424e-07
-8.51395e-08
-1.50657e-08
2.44033e-07
9.77295e-08
-4.97304e-09
2.46391e-07
-4.37847e-07
3.30247e-07
-4.16336e-07
-3.49231e-07
-7.36805e-08
-4.7796e-08
-8.54711e-08
-1.7995e-07
-1.74505e-07
-2.00375e-07
-1.22685e-07
-1.69217e-07
-1.28133e-07
-2.71574e-07
-3.59891e-07
-6.31835e-07
-1.1008e-06
-1.57266e-06
-2.33843e-06
-1.88843e-06
-1.02745e-06
-2.10626e-06
-3.91917e-07
1.96774e-06
-4.23417e-06
-6.14897e-08
-3.96902e-08
-6.49513e-09
-4.00073e-08
8.62574e-08
-6.30769e-09
1.03076e-07
-4.09947e-08
-3.40409e-09
-3.13996e-08
4.60429e-08
5.8852e-08
-9.87987e-09
5.71229e-08
-6.99512e-08
-3.09621e-08
-1.64834e-07
-3.28436e-08
-6.08898e-08
-4.62374e-08
-3.5202e-08
1.81893e-08
6.51363e-08
1.11255e-07
8.84543e-08
8.75843e-08
9.1223e-08
1.396e-07
2.00923e-07
2.93289e-07
4.80742e-07
6.21695e-07
1.02881e-06
1.12767e-06
1.59285e-06
1.48016e-06
1.55954e-06
1.45299e-06
1.43712e-06
-9.13007e-08
-1.2355e-07
3.43205e-08
-6.73872e-08
-1.17723e-07
-7.67759e-08
-6.52998e-08
-2.18307e-07
1.09761e-07
1.55181e-07
-3.54937e-08
1.02735e-07
3.02328e-08
-2.81188e-07
2.67666e-07
-9.99514e-07
-4.35202e-07
-2.49e-07
-2.92858e-08
4.61495e-09
-2.85006e-08
-8.41232e-08
-8.99096e-08
-8.65058e-08
-3.31136e-08
1.66738e-08
1.26514e-07
1.88503e-07
3.02542e-07
4.21941e-07
4.46391e-07
7.10687e-07
1.06899e-06
2.57915e-06
3.81433e-06
-2.44901e-06
-4.71969e-06
1.56741e-05
-3.06131e-06
-7.20169e-08
-3.96414e-08
-2.42259e-08
5.4788e-08
-1.51365e-08
1.05871e-07
-1.01913e-08
6.26791e-08
-3.3882e-08
-7.75571e-09
-3.09196e-08
1.79417e-08
3.68214e-08
-1.2825e-08
-1.86439e-08
-2.23066e-07
-7.32009e-08
-4.36695e-08
-9.88897e-09
4.22222e-09
1.77189e-08
8.8904e-08
1.28774e-07
1.3174e-07
8.97866e-08
4.7769e-08
2.90776e-08
2.41829e-08
3.09073e-08
1.90297e-08
6.52922e-08
5.27962e-09
1.01791e-07
-1.60247e-07
-2.38458e-07
-4.12777e-07
-1.68117e-06
-1.51325e-06
-1.01086e-06
-1.24534e-07
-5.92469e-08
-8.52277e-08
1.19158e-08
-4.76883e-08
-1.80472e-07
-1.77987e-07
1.0395e-07
-6.77866e-08
-2.04697e-08
2.13318e-07
6.40662e-09
-1.2075e-07
-1.17456e-08
-7.18233e-07
-1.23876e-07
-8.75788e-07
-1.69162e-07
-7.03464e-08
-2.3202e-08
-1.30648e-07
-1.528e-07
-2.41059e-07
-1.84577e-07
-2.21804e-07
-1.70085e-07
-2.36703e-07
-2.69985e-07
-3.94902e-07
-5.94306e-07
-9.28526e-07
-1.31205e-06
-1.80149e-06
-1.45532e-06
-1.59319e-06
-1.62324e-06
-3.79073e-08
1.67883e-06
-3.26567e-06
-3.84549e-08
-3.42931e-08
-3.26905e-09
-3.11824e-08
8.18984e-08
-1.78005e-09
1.08771e-07
-3.57374e-08
-7.2452e-09
-2.43739e-08
5.51782e-08
2.11862e-08
-2.65217e-08
3.78182e-08
-2.65886e-07
-1.41148e-07
-1.47094e-07
2.42638e-08
-1.10013e-08
5.80969e-08
8.16368e-08
1.1663e-07
1.7362e-07
1.64851e-07
1.35448e-07
1.11121e-07
1.19955e-07
1.64876e-07
2.11057e-07
2.96876e-07
4.16225e-07
5.47033e-07
8.21532e-07
9.47937e-07
1.25981e-06
1.11686e-06
1.1169e-06
1.00635e-06
1.06083e-06
-6.78027e-08
-1.1927e-07
2.2968e-08
-7.32587e-08
-1.02725e-07
-6.37364e-08
-5.36006e-08
-1.88812e-07
1.00163e-07
1.3179e-07
-7.0532e-08
9.31641e-09
-1.03333e-07
-3.89945e-07
-1.33879e-07
-6.85218e-07
-2.00736e-07
-1.55474e-07
5.59382e-09
-1.97977e-08
-4.44553e-08
-1.26967e-07
-1.25282e-07
-1.56941e-07
-1.16381e-07
-1.03511e-07
-1.98624e-08
1.47633e-08
1.1557e-07
1.61383e-07
2.30953e-07
3.90899e-07
7.24304e-07
1.67523e-06
2.59001e-06
-1.70844e-06
-2.52711e-06
1.16554e-05
-2.95237e-06
-7.10652e-08
-2.13968e-08
-1.78026e-08
4.93022e-08
-1.37951e-08
1.03394e-07
-8.4076e-09
6.90313e-08
-2.73846e-08
3.16909e-09
-3.42941e-08
-5.67849e-09
8.72105e-08
-2.87037e-07
3.1888e-08
-3.67106e-07
3.40603e-08
-1.60821e-07
1.83604e-07
8.91401e-08
1.61127e-07
1.97081e-07
2.05379e-07
1.84552e-07
1.21182e-07
8.40035e-08
6.9395e-08
7.36994e-08
7.11728e-08
7.01085e-08
7.58539e-08
3.7015e-08
6.17541e-08
-1.25087e-07
-2.76246e-07
-3.2397e-07
-1.24366e-06
-1.26842e-06
-7.15085e-07
-2.07241e-07
-2.71483e-08
-8.05991e-08
1.91785e-09
-3.88975e-08
-1.62709e-07
-1.48357e-07
9.39121e-08
-6.28932e-08
-3.12608e-08
1.36276e-07
-6.7398e-08
-1.98069e-07
-1.32246e-07
-6.41266e-07
-5.41652e-08
-7.02094e-07
3.41223e-07
2.48579e-09
-4.00073e-08
-8.95406e-08
-1.86715e-07
-2.03275e-07
-2.28767e-07
-2.01927e-07
-2.17974e-07
-2.2802e-07
-2.87098e-07
-3.61032e-07
-5.4052e-07
-7.57159e-07
-1.07044e-06
-1.41672e-06
-9.69017e-07
-2.22468e-06
-1.24033e-06
-1.52814e-07
1.15822e-06
-2.55149e-06
4.08536e-08
-4.02447e-09
4.19253e-09
-2.49116e-08
7.55944e-08
2.00663e-09
1.08629e-07
-2.56908e-08
6.03588e-09
-1.67831e-08
5.71155e-08
7.00874e-08
-1.99159e-07
1.7307e-07
-7.52347e-07
3.49682e-08
-3.49936e-07
2.50839e-07
9.78959e-08
2.43059e-07
2.461e-07
2.34378e-07
2.1358e-07
1.79259e-07
1.27917e-07
1.10213e-07
1.22576e-07
1.6073e-07
2.00219e-07
2.73281e-07
3.51166e-07
4.68077e-07
6.49703e-07
7.57119e-07
9.90299e-07
8.54647e-07
8.73417e-07
7.91365e-07
8.96865e-07
6.54505e-08
-2.42049e-07
1.62481e-09
-6.82832e-08
-9.53462e-08
-5.47814e-08
-4.75969e-08
-1.70649e-07
8.63274e-08
9.65494e-08
-9.86519e-08
-5.42315e-08
-1.52692e-07
-4.1799e-07
-7.19442e-08
-6.2324e-07
3.22e-07
-4.68997e-07
-1.65187e-07
-6.90872e-08
-1.21386e-07
-1.14837e-07
-1.80432e-07
-1.50189e-07
-1.90421e-07
-1.34095e-07
-1.32147e-07
-6.13874e-08
-4.1795e-08
1.80084e-08
5.14098e-08
1.51756e-07
4.99249e-07
8.94781e-07
1.93577e-07
-1.17652e-06
-6.75082e-07
7.89133e-06
-2.66081e-06
-3.17677e-08
3.56602e-08
4.73727e-10
4.63763e-08
-8.26247e-09
9.69021e-08
-1.99081e-09
7.51545e-08
-1.50391e-08
1.82051e-08
-2.34127e-08
-3.25288e-08
1.4586e-07
-4.46389e-07
1.4353e-07
-3.93835e-07
1.74229e-08
1.30062e-07
2.05355e-07
3.72469e-07
2.91025e-07
2.38587e-07
2.26305e-07
1.65885e-07
1.16333e-07
8.64681e-08
8.51016e-08
9.05538e-08
9.34847e-08
9.09739e-08
8.50825e-08
5.75691e-08
4.95514e-08
-9.22946e-08
-2.22917e-07
-1.62923e-07
-8.2011e-07
-8.8472e-07
-4.62652e-07
-2.31355e-07
-1.1122e-08
-8.4583e-08
-2.03977e-09
-4.31638e-08
-1.42232e-07
-1.35479e-07
8.53546e-08
-6.12942e-08
-3.84767e-08
8.66679e-08
-1.00829e-07
-2.13682e-07
-1.43142e-07
-5.9186e-07
1.18724e-07
-4.20557e-07
2.53002e-07
-1.59891e-07
-2.83866e-07
-1.74688e-07
-2.0278e-07
-2.05782e-07
-2.15578e-07
-1.95178e-07
-1.98882e-07
-2.12394e-07
-2.48178e-07
-3.15346e-07
-4.38528e-07
-5.99918e-07
-8.22524e-07
-1.07634e-06
-1.27123e-06
-4.75545e-09
-1.57722e-06
-3.01215e-07
4.0101e-07
-1.90808e-06
9.45936e-08
4.85185e-08
1.79438e-08
-1.84634e-08
6.87242e-08
1.05109e-09
1.04689e-07
-2.16249e-08
1.85358e-08
-1.48147e-08
6.64499e-08
7.89173e-08
-9.68171e-08
-6.21658e-08
-4.73315e-07
-3.72943e-07
1.71655e-07
-4.11915e-09
4.45224e-07
3.13655e-07
2.34288e-07
2.49e-07
2.07035e-07
1.3837e-07
1.01552e-07
8.81215e-08
1.02782e-07
1.38223e-07
1.67743e-07
2.29497e-07
2.77312e-07
3.83708e-07
4.87691e-07
6.10101e-07
7.49639e-07
6.6987e-07
7.06985e-07
7.1709e-07
7.9818e-07