/*--------------------------------*- C++ -*----------------------------------*\
| =========                 |                                                 |
| \\      /  F ield         | OpenFOAM: The Open Source CFD Toolbox           |
|  \\    /   O peration     | Version:  2306                                  |
|   \\  /    A nd           | Website:  www.openfoam.com                      |
|    \\/     M anipulation  |                                                 |
\*---------------------------------------------------------------------------*/
FoamFile
{
    version     2.0;
    format      ascii;
    arch        "LSB;label=32;scalar=64";
    class       volScalarField;
    location    "275";
    object      div(phi);
}
// * * * * * * * * * * * * * * * * * * * * * * * * * * * * * * * * * * * * * //

dimensions      [0 0 -1 0 0 0 0];

internalField   nonuniform List<scalar> 
1340
(
-2.72248e-06
-1.90771e-06
-1.42677e-06
-1.18516e-06
-7.36986e-07
-4.74087e-07
-9.13798e-07
-3.42914e-07
-1.57833e-06
-6.96047e-07
-2.6625e-07
-1.50419e-07
-6.20825e-07
-8.2354e-07
5.66512e-07
-8.53789e-07
-2.3095e-07
-3.14207e-07
-4.17361e-07
-2.80304e-07
-2.66116e-07
-9.46611e-07
1.67894e-06
-6.12373e-07
-4.56421e-07
-1.00326e-07
-1.64669e-07
-5.73408e-07
-6.15141e-07
2.5324e-07
-6.6182e-07
5.30674e-07
-6.2902e-07
-2.4627e-08
-2.98722e-07
-3.77574e-07
-2.5235e-07
-2.54945e-07
-6.15143e-07
1.25556e-07
-1.49458e-08
-3.79819e-07
-3.96791e-07
-6.0934e-08
-1.368e-07
-5.47867e-07
-5.30187e-07
2.10662e-07
-3.6159e-07
-3.97799e-07
2.18906e-07
-5.42511e-07
2.32797e-08
-2.64463e-07
-3.64628e-07
-2.05784e-07
-1.98971e-07
-6.04512e-07
1.93588e-07
8.50865e-08
-6.72235e-07
-3.02764e-08
-2.77645e-07
-3.39143e-07
-2.10565e-08
-1.46935e-07
-4.90516e-07
-4.79029e-07
2.2347e-07
-2.92043e-07
-2.54155e-07
1.66356e-07
-2.87065e-07
-4.06208e-07
6.52514e-08
-2.65273e-07
-3.18013e-07
-1.64758e-07
-1.47437e-07
-5.39359e-07
1.77251e-07
8.83437e-08
-3.17481e-07
-1.41594e-07
-1.01961e-07
-2.11123e-07
-3.17753e-07
-1.50518e-08
-1.10836e-07
-4.4891e-07
-3.98971e-07
2.11604e-07
-2.89571e-07
-1.57319e-07
2.07796e-07
1.50696e-10
3.38414e-08
-3.74182e-07
6.50222e-08
-2.28022e-07
-2.86238e-07
-1.29007e-07
-1.29737e-07
-5.01348e-07
1.57934e-07
1.5508e-07
-2.35239e-07
1.69646e-07
3.47017e-08
2.48035e-07
-1.67868e-07
-2.71228e-07
1.35385e-08
-1.09475e-07
-3.92926e-07
-3.66077e-07
1.94639e-07
-2.35494e-07
-1.21628e-07
3.31895e-07
5.2637e-08
1.89922e-07
4.52533e-08
-2.80802e-07
7.72741e-08
-2.17776e-07
-2.39104e-07
-9.99735e-08
-1.09301e-07
-4.37616e-07
1.59419e-07
1.64971e-07
-1.2936e-07
1.85135e-07
1.00739e-07
-1.39925e-07
7.10594e-07
-1.37025e-07
-2.57233e-07
1.03843e-08
-7.86432e-08
-3.54218e-07
-3.01869e-07
1.80091e-07
-2.08501e-07
-8.13657e-08
3.25545e-07
8.29141e-08
-2.71113e-08
2.47941e-07
-6.04728e-07
-2.755e-07
6.21254e-08
-1.87525e-07
-2.09597e-07
-7.69814e-08
-9.64436e-08
-3.9297e-07
1.47905e-07
1.76131e-07
-1.19759e-07
1.11371e-07
2.58731e-09
-4.01524e-07
2.54774e-07
-1.18583e-07
-2.22292e-07
2.43859e-08
-7.98356e-08
-3.04549e-07
-2.73429e-07
1.70683e-07
-1.73287e-07
-7.92179e-08
2.75779e-07
-3.27051e-08
-1.79446e-07
-4.92782e-08
-9.94971e-07
-2.64953e-07
-2.13982e-07
6.14485e-08
-1.80536e-07
-1.75291e-07
-5.89487e-08
-7.80268e-08
-3.36795e-07
1.34947e-07
1.44232e-07
-1.6111e-07
-7.25735e-09
-1.57632e-07
-5.45831e-07
-1.37792e-07
-9.48397e-07
-6.93378e-08
-2.00146e-07
1.53533e-08
-6.041e-08
-2.72295e-07
-2.23206e-07
1.52364e-07
-1.57183e-07
-9.12445e-08
1.74445e-07
-1.24252e-07
-2.72309e-07
-1.6033e-07
-8.80279e-07
-1.14243e-08
-3.30881e-07
3.70349e-08
-1.5766e-07
-1.57354e-07
-4.75265e-08
-6.94925e-08
-3.02888e-07
1.14493e-07
1.01316e-07
-1.90866e-07
-8.60037e-08
-2.09528e-07
-5.59705e-07
-3.30916e-08
-8.22712e-07
3.7927e-07
-6.11381e-08
-1.90543e-07
1.60781e-08
-6.51976e-08
-2.34973e-07
-2.03924e-07
1.38764e-07
-1.45571e-07
-9.48391e-08
1.12277e-07
-1.59737e-07
-2.83055e-07
-1.61396e-07
-7.85981e-07
1.60409e-07
-5.61669e-07
-2.04083e-07
4.60333e-08
-1.4893e-07
-1.33777e-07
-3.74565e-08
-5.74767e-08
-2.62633e-07
9.9243e-08
7.41959e-08
-1.95922e-07
-1.03251e-07
-2.08209e-07
-5.04663e-07
4.12828e-08
-7.08143e-07
2.66418e-07
-1.65458e-07
-2.43078e-08
-1.59702e-07
1.02964e-08
-5.02254e-08
-2.09761e-07
-1.67126e-07
1.21023e-07
-1.33076e-07
-9.61333e-08
8.33253e-08
-1.6163e-07
-2.59318e-07
-1.21014e-07
-6.93966e-07
1.55532e-07
-6.91614e-07
1.46638e-07
-6.49947e-08
-7.8654e-08
4.46091e-08
-1.26851e-07
-1.19623e-07
-3.05966e-08
-5.115e-08
-2.37502e-07
8.41882e-08
5.92161e-08
-1.83182e-07
-1.03638e-07
-1.74927e-07
-4.43848e-07
7.31309e-08
-6.82349e-07
1.68036e-07
-5.88295e-07
2.01015e-08
-6.20352e-09
-1.32582e-07
1.4034e-08
-5.18212e-08
-1.8026e-07
-1.53386e-07
1.10661e-07
-1.2075e-07
-8.76306e-08
6.76081e-08
-1.4418e-07
-2.27196e-07
-8.08632e-08
-6.15835e-07
1.58783e-07
-6.36515e-07
2.52296e-07
-5.21408e-08
-5.97429e-08
4.57478e-08
-1.16212e-07
-1.00573e-07
-2.2558e-08
-4.14937e-08
-2.06128e-07
7.48145e-08
4.95777e-08
-1.6632e-07
-8.758e-08
-1.49265e-07
-3.80933e-07
6.84037e-08
-6.31828e-07
1.9675e-07
-4.81209e-07
8.70841e-08
1.39069e-08
-2.37603e-09
-1.16321e-07
1.0683e-08
-3.76242e-08
-1.59733e-07
-1.25071e-07
9.74185e-08
-1.08501e-07
-8.17177e-08
6.10563e-08
-1.26007e-07
-1.93934e-07
-5.68823e-08
-5.40109e-07
1.55173e-07
-5.45457e-07
2.31357e-08
-3.15701e-07
-4.86355e-08
-4.85109e-08
3.87339e-08
-9.75639e-08
-8.78092e-08
-1.69624e-08
-3.58399e-08
-1.86286e-07
6.54941e-08
4.43966e-08
-1.45755e-07
-7.45225e-08
-1.16197e-07
-3.33757e-07
1.01089e-07
-5.53529e-07
1.46583e-07
-4.51184e-07
2.15826e-07
1.92488e-08
-1.79277e-09
-9.98535e-08
1.44286e-08
-3.71527e-08
-1.36022e-07
-1.14478e-07
9.04828e-08
-9.68188e-08
-7.03855e-08
5.79989e-08
-1.02567e-07
-1.62184e-07
-2.3877e-08
-4.62736e-07
1.34749e-07
-5.25213e-07
1.96208e-07
-4.89369e-07
-4.36089e-08
-4.34917e-08
3.68157e-08
-8.82597e-08
-7.27063e-08
-1.03222e-08
-2.77025e-08
-1.61198e-07
6.0504e-08
4.14737e-08
-1.2707e-07
-5.4945e-08
-9.1278e-08
-2.78477e-07
9.19317e-08
-4.80278e-07
1.62066e-07
-5.00855e-07
1.34098e-07
7.51439e-09
-2.40844e-09
-8.81286e-08
1.19654e-08
-2.52936e-08
-1.19752e-07
-9.24035e-08
8.11564e-08
-8.56845e-08
-6.34209e-08
5.74188e-08
-8.447e-08
-1.32183e-07
-9.00801e-09
-3.95767e-07
1.42103e-07
-4.67641e-07
1.66753e-07
-3.57224e-07
-3.77607e-07
-4.0646e-08
-3.65357e-08
3.11559e-08
-7.33748e-08
-6.28098e-08
-6.20998e-09
-2.27907e-08
-1.45434e-07
5.43048e-08
3.90626e-08
-1.09574e-07
-4.35076e-08
-6.65093e-08
-2.40003e-07
1.14426e-07
-4.10626e-07
1.79074e-07
-3.75164e-07
-8.98207e-08
-2.20834e-07
1.16941e-08
-1.75555e-09
-7.5395e-08
1.48036e-08
-2.47101e-08
-1.01178e-07
-8.44395e-08
7.59214e-08
-7.61277e-08
-5.44902e-08
5.46791e-08
-6.69367e-08
-1.07883e-07
1.4295e-08
-3.41142e-07
1.50201e-07
-3.85529e-07
1.73012e-07
-3.50958e-07
-1.45666e-08
-3.42247e-08
-3.23005e-08
2.9806e-08
-6.58257e-08
-5.15435e-08
-1.50313e-09
-1.65226e-08
-1.25479e-07
4.98017e-08
3.61026e-08
-9.55986e-08
-2.9382e-08
-4.94353e-08
-1.99852e-07
1.11467e-07
-3.50774e-07
1.88115e-07
-3.74928e-07
2.10225e-07
-3.09186e-07
5.302e-09
-1.44394e-09
-6.59273e-08
1.26123e-08
-1.56952e-08
-8.85495e-08
-6.73359e-08
6.78714e-08
-6.71852e-08
-4.93654e-08
5.28674e-08
-5.39547e-08
-8.54451e-08
2.50694e-08
-2.94028e-07
1.61459e-07
-3.39923e-07
2.49746e-07
-3.22844e-07
2.84165e-07
-3.05237e-08
-2.64664e-08
2.56446e-08
-5.42898e-08
-4.424e-08
1.09077e-09
-1.29132e-08
-1.12409e-07
4.44382e-08
3.38798e-08
-8.11612e-08
-2.06683e-08
-3.04086e-08
-1.71444e-07
1.30334e-07
-3.05958e-07
2.02734e-07
-3.33217e-07
2.64901e-07
-1.7506e-07
2.44455e-07
9.26574e-09
-4.34214e-10
-5.59406e-08
1.43886e-08
-1.54362e-08
-7.41053e-08
-6.10503e-08
6.31992e-08
-5.8622e-08
-4.11152e-08
5.10189e-08
-3.90789e-08
-6.60982e-08
4.33801e-08
-2.53176e-07
1.62704e-07
-2.99299e-07
2.33972e-07
-2.52617e-07
1.45502e-07
-8.70273e-08
-2.47441e-08
-2.29627e-08
2.44939e-08
-4.82988e-08
-3.58827e-08
4.15226e-09
-8.18553e-09
-9.56027e-08
4.13993e-08
3.26601e-08
-6.79686e-08
-8.20634e-09
-1.66261e-08
-1.3967e-07
1.23814e-07
-2.63189e-07
1.84564e-07
-2.83373e-07
2.29345e-07
-1.59045e-07
2.60618e-07
5.16993e-09
2.87737e-11
-4.84192e-08
1.23741e-08
-8.77974e-09
-6.4116e-08
-4.74823e-08
5.6763e-08
-4.99301e-08
-3.50974e-08
5.07286e-08
-2.78156e-08
-4.81628e-08
4.82533e-08
-2.15199e-07
1.57184e-07
-2.54466e-07
2.19047e-07
-2.48303e-07
2.43281e-07
-1.75752e-07
-2.16917e-08
-1.84131e-08
2.12285e-08
-3.93687e-08
-3.0382e-08
5.7783e-09
-5.36521e-09
-8.4012e-08
3.78744e-08
3.1925e-08
-5.49594e-08
-1.38917e-09
-3.56907e-09
-1.17495e-07
1.28873e-07
-2.25908e-07
1.81322e-07
-2.50897e-07
2.3171e-07
-2.28925e-07
2.0799e-07
8.09011e-09
8.78183e-10
-4.06361e-08
1.338e-08
-8.62511e-09
-5.27446e-08
-4.22872e-08
5.27916e-08
-4.18893e-08
-2.73941e-08
4.87198e-08
-1.70136e-08
-3.51616e-08
5.61301e-08
-1.82963e-07
1.48046e-07
-2.20244e-07
1.90218e-07
-2.44445e-07
1.77622e-07
-1.74686e-07
2.48315e-07
-1.71827e-08
-1.5697e-08
2.012e-08
-3.45497e-08
-2.40835e-08
7.60123e-09
-1.87203e-09
-6.98758e-08
3.54907e-08
3.06715e-08
-4.4558e-08
5.84437e-09
3.02809e-09
-9.4825e-08
1.14507e-07
-1.92447e-07
1.52266e-07
-2.17853e-07
1.90671e-07
-2.13411e-07
1.45629e-07
-5.60442e-08
5.13645e-09
1.23648e-09
-3.47098e-08
1.15718e-08
-3.83735e-09
-4.48056e-08
-3.16924e-08
4.71608e-08
-3.45111e-08
-2.25303e-08
4.61492e-08
-1.1147e-08
-2.50906e-08
5.2104e-08
-1.54266e-07
1.30384e-07
-1.89551e-07
1.63899e-07
-2.20059e-07
1.77151e-07
-1.14989e-07
1.88766e-07
-1.48351e-08
-1.22665e-08
1.74167e-08
-2.76771e-08
-1.99543e-08
8.41476e-09
4.47567e-11
-6.00467e-08
3.21039e-08
2.87409e-08
-3.58032e-08
7.29597e-09
7.58744e-09
-8.04596e-08
1.07135e-07
-1.6501e-07
1.36666e-07
-1.92034e-07
1.61286e-07
-1.87398e-07
1.38422e-07
-6.00026e-08
7.15837e-09
1.81119e-09
-2.86768e-08
1.19355e-08
-3.80319e-09
-3.6e-08
-2.75958e-08
4.31235e-08
-2.82509e-08
-1.72574e-08
4.14165e-08
-6.57145e-09
-1.96646e-08
5.02995e-08
-1.30974e-07
1.13538e-07
-1.6521e-07
1.31561e-07
-1.93945e-07
1.42625e-07
-1.05397e-07
1.37415e-07
-1.14263e-08
-1.02153e-08
1.62638e-08
-2.38198e-08
-1.52847e-08
9.1879e-09
2.30547e-09
-4.88288e-08
2.92649e-08
2.59291e-08
-2.96707e-08
8.55151e-09
7.48618e-09
-6.60635e-08
8.82129e-08
-1.39228e-07
1.05885e-07
-1.66474e-07
1.24976e-07
-1.65713e-07
1.15794e-07
-1.3646e-07
4.91839e-09
2.01335e-09
-2.40392e-08
1.03089e-08
-5.38608e-10
-2.98411e-08
-1.97253e-08
3.78442e-08
-2.29814e-08
-1.45563e-08
3.61821e-08
-5.66294e-09
-1.58941e-08
4.10647e-08
-1.08853e-07
9.27209e-08
-1.37458e-07
1.05623e-07
-1.65289e-07
1.1832e-07
-1.6603e-07
1.39127e-07
-9.63224e-09
-7.68282e-09
1.39735e-08
-1.86071e-08
-1.22782e-08
9.31702e-09
3.30957e-09
-4.11482e-08
2.5486e-08
2.25563e-08
-2.49261e-08
6.26961e-09
6.55602e-09
-5.62873e-08
7.736e-08
-1.14283e-07
9.28887e-08
-1.36404e-07
1.04186e-07
-1.62978e-07
9.97639e-08
-1.50248e-07
1.65211e-07
6.25216e-09
2.33099e-09
-1.93991e-08
1.01848e-08
-6.28979e-10
-2.32845e-08
-1.68041e-08
3.36476e-08
-1.87421e-08
-1.16734e-08
3.00598e-08
-4.98006e-09
-1.41336e-08
3.67305e-08
-8.99827e-08
8.21347e-08
-1.11383e-07
9.05128e-08
-1.35276e-07
1.00111e-07
-1.32928e-07
6.11345e-08
-6.50127e-08
-7.14432e-09
-6.16272e-09
1.28041e-08
-1.55642e-08
-8.96827e-09
9.27649e-09
4.41364e-09
-3.27528e-08
2.2235e-08
1.90592e-08
-2.14493e-08
5.14568e-09
5.02269e-09
-4.63486e-08
6.53813e-08
-9.3545e-08
7.94206e-08
-1.0951e-07
9.0196e-08
-1.33207e-07
9.04518e-08
-7.92736e-08
8.07266e-08
4.5397e-09
2.42938e-09
-1.58349e-08
8.7686e-09
1.4878e-09
-1.87634e-08
-1.13465e-08
2.87614e-08
-1.50604e-08
-1.00852e-08
2.48809e-08
-5.0006e-09
-1.18849e-08
3.03141e-08
-7.51516e-08
6.97205e-08
-9.10307e-08
8.04765e-08
-1.09105e-07
9.05458e-08
-1.05975e-07
6.38195e-08
-5.5333e-08
-5.71965e-09
-4.32161e-09
1.09624e-08
-1.17037e-08
-6.83426e-09
8.8119e-09
4.65954e-09
-2.69463e-08
1.88993e-08
1.61244e-08
-1.78951e-08
3.7189e-09
4.2377e-09
-3.97483e-08
5.57025e-08
-7.9069e-08
6.99558e-08
-9.10382e-08
8.11055e-08
-1.07991e-07
7.82496e-08
-5.75938e-08
6.73771e-08
5.41147e-09
2.6847e-09
-1.23486e-08
8.33806e-09
1.27445e-09
-1.40126e-08
-9.35027e-09
2.5117e-08
-1.18843e-08
-7.71501e-09
2.07496e-08
-3.95082e-09
-1.02952e-08
2.59637e-08
-6.42521e-08
5.85117e-08
-7.91187e-08
6.86341e-08
-9.29997e-08
7.56208e-08
-7.80081e-08
5.32584e-08
-3.60357e-08
-3.73567e-09
-3.12733e-09
9.70863e-09
-9.35352e-09
-4.54525e-09
8.37436e-09
5.11315e-09
-2.0878e-08
1.64414e-08
1.38498e-08
-1.46884e-08
3.51931e-09
3.85646e-09
-3.3449e-08
4.47121e-08
-6.87677e-08
5.44685e-08
-8.07763e-08
6.30283e-08
-8.34043e-08
6.07922e-08
-1.22688e-08
5.46195e-08
4.26016e-09
2.65579e-09
-9.60836e-09
7.06631e-09
2.70197e-09
-1.07395e-08
-5.75914e-09
2.11675e-08
-9.57638e-09
-6.4153e-09
1.7932e-08
-3.14579e-09
-8.34049e-09
2.06009e-08
-5.35515e-08
4.38457e-08
-6.77395e-08
5.01255e-08
-7.61278e-08
5.46527e-08
-5.55794e-09
4.60916e-08
8.00938e-09
-2.61122e-09
-1.51354e-09
8.57368e-09
-6.451e-09
-2.61031e-09
8.19326e-09
4.67168e-09
-1.78965e-08
1.34731e-08
1.24256e-08
-1.20073e-08
2.94649e-09
3.21614e-09
-2.65761e-08
3.57872e-08
-5.37767e-08
4.16633e-08
-6.41328e-08
4.6088e-08
-1.23841e-08
4.13258e-08
-3.50846e-09
2.26059e-08
-1.47323e-08
5.21851e-09
2.12789e-09
-7.67193e-09
7.14054e-09
1.51158e-09
-9.01251e-09
-5.08849e-09
1.81385e-08
-7.79177e-09
-7.69729e-09
1.23881e-08
-2.71357e-09
-5.23051e-09
1.84294e-08
-3.93407e-08
3.82795e-08
-4.8716e-08
4.23642e-08
-2.57213e-08
2.39051e-08
-1.18807e-08
2.80393e-08
-4.67374e-08
2.20325e-08
-1.69568e-09
5.69302e-10
7.47332e-09
-6.58463e-09
-4.9879e-10
7.72393e-09
3.70945e-09
-1.55582e-08
8.17315e-09
9.92474e-09
-8.78308e-09
2.54835e-09
2.98335e-09
-1.84276e-08
3.15324e-08
-3.73333e-08
3.93676e-08
-3.58686e-08
2.81511e-08
-5.85219e-09
1.25173e-08
-5.82312e-08
2.54629e-08
-3.08077e-08
5.68624e-09
9.4919e-10
-7.77431e-09
8.35631e-09
1.01274e-09
-9.23972e-09
-4.22074e-09
1.45731e-08
-4.52259e-09
-7.54112e-09
7.22056e-09
-2.26335e-09
-2.72075e-09
1.56466e-08
-2.77154e-08
3.66293e-08
-3.50275e-08
4.36197e-08
-1.92921e-08
2.94997e-09
-3.90939e-08
3.6177e-08
-4.41178e-08
3.29956e-08
-1.78602e-09
1.13165e-09
7.53138e-09
-6.63778e-09
-9.11588e-10
7.12941e-09
4.0876e-09
-1.26317e-08
3.75628e-09
6.88233e-09
-6.61332e-09
1.96297e-09
3.49984e-09
-1.32502e-08
2.78778e-08
-2.78987e-08
3.92369e-08
-2.77178e-08
2.4683e-08
-7.97838e-09
1.72193e-08
-4.91693e-08
3.15265e-08
-2.31627e-08
4.86784e-09
1.63058e-09
-5.7533e-09
6.40717e-09
1.54124e-09
-5.82495e-09
-4.25023e-09
1.06047e-08
-3.10688e-09
-6.43786e-09
5.55952e-09
-1.66274e-09
-2.5084e-09
1.47163e-08
-2.1303e-08
3.32037e-08
-2.57519e-08
3.77677e-08
-1.01738e-08
9.58696e-09
-2.49046e-08
3.60143e-08
-2.58338e-08
2.98965e-08
-6.17983e-10
4.22921e-10
6.32015e-09
-4.28533e-09
-9.76114e-10
5.13364e-09
4.4627e-09
-8.32698e-09
2.55001e-09
5.22188e-09
-5.23336e-09
2.11025e-09
3.97868e-09
-1.07547e-08
2.4827e-08
-2.19681e-08
3.52436e-08
-1.91767e-08
2.01435e-08
-3.75734e-09
2.64619e-08
-2.65127e-08
2.9226e-08
-1.62831e-08
3.77357e-09
2.33071e-09
-3.72723e-09
4.70767e-09
2.47582e-09
-2.92092e-09
-2.31735e-09
8.33488e-09
-1.3187e-09
-4.13154e-09
5.65426e-09
-6.64199e-10
-1.82407e-09
1.30345e-08
-1.74035e-08
2.81665e-08
-2.0233e-08
2.93135e-08
-5.6431e-09
1.99286e-08
-7.48539e-09
3.77123e-08
-1.14245e-08
2.81426e-08
5.05608e-10
4.36763e-10
4.98222e-09
-1.9506e-09
-5.65965e-10
4.28698e-09
4.67856e-09
-4.71443e-09
2.77963e-09
5.12776e-09
-3.50415e-09
2.62201e-09
3.8611e-09
-9.02462e-09
2.03802e-08
-1.8135e-08
2.7197e-08
-1.32652e-08
2.23838e-08
5.97797e-09
3.29265e-08
-1.13454e-08
2.64675e-08
-1.9694e-08
3.5518e-09
2.68538e-09
-1.90747e-09
3.445e-09
2.80879e-09
-3.83766e-10
-8.77323e-10
6.97766e-09
4.28703e-10
-2.25541e-09
5.95795e-09
-2.74765e-11
-1.44534e-09
1.07218e-08
-1.45755e-08
2.1208e-08
-1.43942e-08
2.32992e-08
4.8568e-09
2.34032e-08
-8.15357e-09
2.71373e-08
-2.27737e-08
2.48454e-08
1.16119e-09
6.27003e-10
3.75079e-09
-2.35187e-10
3.97927e-10
3.42123e-09
4.74678e-09
-1.50244e-09
2.89141e-09
4.80191e-09
-2.38838e-09
2.38744e-09
3.25432e-09
-7.61244e-09
1.52966e-08
-1.27174e-08
1.92655e-08
2.33756e-09
1.96054e-08
-3.85713e-09
2.04725e-08
-2.44841e-08
1.70013e-08
-1.73118e-08
2.96451e-08
2.95107e-09
2.41563e-09
-2.5889e-10
2.26759e-09
2.94252e-09
1.51917e-09
1.02154e-09
5.71254e-09
1.67745e-09
-1.13713e-09
5.1563e-09
4.31961e-10
-1.05829e-09
8.32566e-09
-9.65572e-09
1.46323e-08
1.52617e-09
1.65852e-08
-7.94327e-10
1.50337e-08
-1.98002e-08
1.76075e-08
-1.15688e-08
1.47879e-08
-4.94902e-09
1.92812e-09
1.01282e-09
2.19071e-09
1.57244e-09
1.35734e-09
3.24464e-09
4.03451e-09
1.20138e-09
2.58613e-09
3.53747e-09
-3.80516e-10
2.48087e-09
3.50213e-09
-3.89073e-09
1.06534e-08
5.9562e-10
1.20472e-08
1.41089e-09
1.16604e-08
-1.20851e-08
1.32597e-08
-1.14535e-08
1.61966e-08
-1.65884e-09
2.11027e-08
1.25629e-09
1.81901e-09
1.5308e-09
2.12671e-09
3.26923e-09
2.14221e-09
2.62696e-09
4.45342e-09
1.77672e-09
1.37861e-09
4.5856e-09
3.25911e-09
1.37829e-09
6.50845e-09
7.44082e-10
8.10156e-09
3.09388e-09
7.92918e-09
-4.2762e-09
8.90257e-09
-3.80045e-09
1.45409e-08
3.66373e-09
1.45366e-08
1.73971e-09
2.76644e-09
1.74549e-09
2.03352e-09
2.67311e-09
2.00269e-09
2.94937e-09
3.90941e-09
2.17877e-09
2.97951e-09
3.33728e-09
3.84282e-09
2.93407e-09
3.37229e-09
1.55204e-09
4.59041e-09
3.29133e-09
4.29527e-09
8.97226e-10
4.92618e-09
2.36511e-09
8.08789e-09
6.18312e-09
1.11259e-08
6.64166e-09
7.50456e-09
8.94351e-10
7.04678e-10
7.3089e-10
7.71084e-10
1.00345e-09
1.2482e-09
1.02974e-09
1.39121e-09
1.11915e-09
9.66649e-10
1.61013e-09
1.00287e-09
8.42467e-10
1.3631e-09
1.33951e-09
1.3048e-09
1.20315e-09
1.52452e-09
2.15256e-09
2.3889e-09
4.02212e-09
5.11174e-09
5.27768e-09
4.0519e-09
2.14243e-09
)
;

boundaryField
{
    inlet
    {
        type            extrapolatedCalculated;
        value           nonuniform List<scalar> 
25
(
8.94351e-10
7.04678e-10
7.3089e-10
7.71084e-10
1.00345e-09
1.2482e-09
1.02974e-09
1.39121e-09
1.11915e-09
9.66649e-10
1.61013e-09
1.00287e-09
8.42467e-10
1.3631e-09
1.33951e-09
1.3048e-09
1.20315e-09
1.52452e-09
2.15256e-09
2.3889e-09
4.02212e-09
5.11174e-09
5.27768e-09
4.0519e-09
2.14243e-09
)
;
    }
    outlet
    {
        type            extrapolatedCalculated;
        value           nonuniform List<scalar> 0();
    }
    walls
    {
        type            extrapolatedCalculated;
        value           nonuniform List<scalar> 0();
    }
    frontAndBack
    {
        type            empty;
    }
    procBoundary4to0
    {
        type            processor;
        value           nonuniform List<scalar> 
72
(
-1.78293e-06
-1.91494e-06
-7.53416e-07
-9.58651e-07
-6.89624e-07
-6.81696e-07
-5.62862e-07
-5.04249e-07
-4.39025e-07
-4.5984e-07
-3.51353e-07
-3.37891e-07
-2.7015e-07
-3.18971e-07
-2.26953e-07
-2.31055e-07
-1.8882e-07
-1.9359e-07
-2.54282e-07
9.57029e-09
-2.70732e-07
-9.08132e-10
-9.08132e-10
-1.18437e-09
1.28403e-08
-4.75015e-08
1.66682e-08
-3.35638e-08
1.02167e-08
-4.47965e-08
5.63574e-09
-3.22129e-08
2.99915e-09
-3.6041e-08
2.11231e-09
-2.48013e-08
2.24456e-09
-2.59581e-08
2.31368e-09
-1.73446e-08
2.79211e-09
-1.78728e-08
2.83372e-09
-1.15769e-08
3.22679e-09
-1.18703e-08
3.15298e-09
-7.29296e-09
3.37331e-09
-7.48902e-09
3.22934e-09
-4.19654e-09
3.34211e-09
-4.18653e-09
3.2458e-09
-1.66571e-09
3.13296e-09
-9.45256e-10
2.58276e-09
6.10312e-10
2.77036e-09
2.3491e-10
3.06192e-09
8.86421e-10
3.14541e-09
1.04481e-09
3.27063e-09
1.38831e-09
1.91174e-09
2.9308e-09
6.60822e-10
1.14447e-09
)
;
    }
    procBoundary4to5
    {
        type            processor;
        value           nonuniform List<scalar> 
95
(
-1.05565e-06
-1.63235e-06
-1.04934e-06
-8.44252e-07
-8.44252e-07
-6.07042e-07
-6.61021e-07
-6.61021e-07
-7.59643e-07
-1.4023e-06
-1.4023e-06
-1.35428e-06
-1.35428e-06
-4.06536e-07
-9.28823e-07
-9.28823e-07
-9.53167e-07
-9.53167e-07
-6.31995e-07
-2.3675e-07
-2.3675e-07
-9.25211e-08
7.66376e-08
7.66376e-08
7.43541e-08
-1.03037e-07
-1.03037e-07
-5.56509e-07
2.34199e-07
-1.32037e-06
-1.32037e-06
-1.21017e-06
-2.45637e-07
-9.42085e-07
-9.42085e-07
-5.96116e-07
2.02851e-07
-8.08557e-07
-8.08557e-07
-7.30825e-07
1.07988e-07
-5.90662e-07
-5.90662e-07
-4.50864e-07
-5.0117e-09
-4.88673e-07
3.18445e-08
-4.73767e-07
-4.73767e-07
-3.01282e-07
-4.31561e-07
-3.89874e-07
1.81551e-07
-2.08102e-07
-2.08102e-07
-1.02956e-07
2.63579e-07
-7.46232e-08
3.28737e-07
-1.2878e-07
-1.2878e-07
-5.4502e-08
2.47123e-07
-1.94344e-08
1.45333e-07
-6.43508e-08
1.35183e-07
-1.95922e-07
-1.95922e-07
-1.20331e-07
4.95843e-08
-5.10216e-08
4.99884e-08
-3.91699e-08
4.21472e-08
-2.053e-09
2.7335e-08
2.7335e-08
1.40251e-08
-3.88766e-08
1.29478e-08
-2.37129e-08
2.54517e-08
-1.27072e-08
2.35853e-08
-7.39786e-09
2.48163e-08
-2.09278e-08
-2.09278e-08
-8.042e-09
1.93885e-08
6.38701e-09
1.9149e-08
8.97237e-09
6.00024e-09
)
;
    }
}


// ************************************************************************* //
