/*--------------------------------*- C++ -*----------------------------------*\
| =========                 |                                                 |
| \\      /  F ield         | OpenFOAM: The Open Source CFD Toolbox           |
|  \\    /   O peration     | Version:  2306                                  |
|   \\  /    A nd           | Website:  www.openfoam.com                      |
|    \\/     M anipulation  |                                                 |
\*---------------------------------------------------------------------------*/
FoamFile
{
    version     2.0;
    format      ascii;
    arch        "LSB;label=32;scalar=64";
    class       volScalarField;
    location    "275";
    object      magR;
}
// * * * * * * * * * * * * * * * * * * * * * * * * * * * * * * * * * * * * * //

dimensions      [0 2 -2 0 0 0 0];

internalField   nonuniform List<scalar> 
1340
(
0.000597616
0.000602141
0.000605643
0.000507868
0.000512423
0.000516269
0.000518733
0.000519749
0.000434501
0.000438946
0.000442904
0.000445876
0.000447809
0.000448556
0.000447762
0.000373765
0.000377992
0.000381886
0.000385057
0.00038748
0.00038904
0.000389412
0.000388483
0.000323083
0.000327044
0.000330785
0.000333996
0.000336688
0.000338733
0.000339863
0.000339993
0.000339033
0.000280448
0.00028413
0.000287651
0.000290794
0.000293591
0.000295888
0.000297484
0.000298311
0.000298273
0.000244348
0.000247739
0.000251019
0.000254042
0.000256826
0.000259238
0.000261111
0.000262387
0.000262983
0.000262775
0.000213595
0.000216695
0.000219734
0.000222595
0.000225298
0.000227728
0.000229742
0.000231285
0.000232292
0.000232656
0.000232315
0.000187254
0.000190075
0.000192881
0.000195553
0.000198141
0.00020052
0.000202579
0.000204271
0.000205543
0.000206297
0.00020649
0.000164578
0.000167149
0.000169719
0.000172207
0.000174648
0.000176943
0.00017898
0.000180738
0.000182161
0.000183169
0.000183719
0.000183766
0.00014498
0.000147316
0.000149666
0.000151966
0.000154254
0.00015643
0.000158412
0.000160173
0.000161667
0.000162829
0.000163625
0.000164012
0.000127978
0.000130095
0.00013224
0.000134357
0.000136486
0.000138531
0.000140428
0.000142154
0.000143666
0.000144912
0.000145863
0.000146482
0.000146723
0.000113175
0.000115095
0.000117044
0.00011899
0.000120959
0.000122869
0.000124665
0.000126327
0.00012782
0.000129097
0.000130136
0.000130907
0.000131369
0.000100248
0.000101986
0.000103757
0.000105541
0.000107354
0.000109128
0.000110813
0.000112396
0.000113842
0.000115116
0.000116197
0.000117063
0.000117675
0.000118013
8.89276e-05
9.04986e-05
9.21094e-05
9.37367e-05
9.54022e-05
9.70425e-05
9.86143e-05
0.000100105
0.000101489
0.000102732
0.000103821
0.000104733
0.000105442
0.000105928
7.8989e-05
8.04081e-05
8.18721e-05
8.33545e-05
8.48809e-05
8.63912e-05
8.78488e-05
8.92452e-05
9.05545e-05
9.17507e-05
9.28229e-05
9.37511e-05
9.45156e-05
9.50956e-05
7.02444e-05
7.1526e-05
7.28533e-05
7.42033e-05
7.55978e-05
7.69848e-05
7.833e-05
7.96308e-05
8.086e-05
8.19988e-05
8.30362e-05
8.39584e-05
8.47455e-05
8.53839e-05
8.58542e-05
6.25337e-05
6.36917e-05
6.48934e-05
6.61207e-05
6.73931e-05
6.86621e-05
6.99012e-05
7.11058e-05
7.22539e-05
7.33275e-05
7.43195e-05
7.52181e-05
7.6007e-05
7.6676e-05
7.72067e-05
5.5722e-05
5.67687e-05
5.78554e-05
5.897e-05
6.01294e-05
6.12878e-05
6.24264e-05
6.35367e-05
6.46035e-05
6.56087e-05
6.65484e-05
6.74105e-05
6.81857e-05
6.88624e-05
6.94262e-05
4.96954e-05
5.06396e-05
5.16226e-05
5.26334e-05
5.36873e-05
5.47443e-05
5.57863e-05
5.68072e-05
5.77932e-05
5.87295e-05
5.96118e-05
6.04325e-05
6.1182e-05
6.18515e-05
6.24299e-05
6.29035e-05
4.43547e-05
4.52057e-05
4.60944e-05
4.70107e-05
4.7967e-05
4.893e-05
4.98816e-05
5.08182e-05
5.17262e-05
5.25944e-05
5.34184e-05
5.41923e-05
5.49075e-05
5.55589e-05
5.61349e-05
5.6627e-05
3.96148e-05
4.03822e-05
4.11846e-05
4.20142e-05
4.2882e-05
4.37572e-05
4.46249e-05
4.54822e-05
4.6316e-05
4.71172e-05
4.78826e-05
4.86069e-05
4.92836e-05
4.99084e-05
5.04734e-05
5.09692e-05
3.47824e-05
3.54034e-05
3.60944e-05
3.68187e-05
3.75691e-05
3.83554e-05
3.91499e-05
3.99398e-05
4.07226e-05
4.1486e-05
4.22231e-05
4.29309e-05
4.36051e-05
4.42409e-05
4.48344e-05
4.53792e-05
4.58677e-05
4.62907e-05
3.10979e-05
3.16568e-05
3.22787e-05
3.29322e-05
3.36104e-05
3.43221e-05
3.50427e-05
3.57608e-05
3.6474e-05
3.71719e-05
3.7848e-05
3.85e-05
3.91245e-05
3.97177e-05
4.02764e-05
4.0796e-05
4.127e-05
4.1691e-05
2.78175e-05
2.83201e-05
2.88795e-05
2.9469e-05
3.00814e-05
3.07251e-05
3.13779e-05
3.20299e-05
3.26787e-05
3.33158e-05
3.3934e-05
3.45327e-05
3.51091e-05
3.56596e-05
3.61823e-05
3.6673e-05
3.71267e-05
3.75374e-05
2.48941e-05
2.53458e-05
2.58487e-05
2.63798e-05
2.69327e-05
2.75142e-05
2.8105e-05
2.86961e-05
2.9286e-05
2.98659e-05
3.04303e-05
3.09787e-05
3.15087e-05
3.20173e-05
3.25031e-05
3.29631e-05
3.33933e-05
3.37881e-05
3.41414e-05
2.22867e-05
2.26921e-05
2.3144e-05
2.36223e-05
2.4121e-05
2.46461e-05
2.51804e-05
2.57163e-05
2.62515e-05
2.67782e-05
2.72926e-05
2.77937e-05
2.82793e-05
2.87474e-05
2.91969e-05
2.96254e-05
3.00295e-05
3.04048e-05
3.0746e-05
1.99589e-05
2.03226e-05
2.07286e-05
2.11589e-05
2.16084e-05
2.20823e-05
2.25652e-05
2.30505e-05
2.35351e-05
2.40135e-05
2.44815e-05
2.49384e-05
2.53823e-05
2.58116e-05
2.62258e-05
2.66227e-05
2.69995e-05
2.73527e-05
2.76782e-05
1.78793e-05
1.82054e-05
1.85698e-05
1.89566e-05
1.93617e-05
1.97891e-05
2.02253e-05
2.06639e-05
2.1103e-05
2.1537e-05
2.19622e-05
2.23778e-05
2.27825e-05
2.31752e-05
2.35556e-05
2.39215e-05
2.42709e-05
2.46008e-05
2.49077e-05
1.60201e-05
1.63124e-05
1.66391e-05
1.69867e-05
1.73516e-05
1.77369e-05
1.81306e-05
1.85271e-05
1.89246e-05
1.93176e-05
1.97032e-05
2.00809e-05
2.04494e-05
2.08077e-05
2.11555e-05
2.14914e-05
2.18138e-05
2.21201e-05
2.24069e-05
1.4357e-05
1.46186e-05
1.49114e-05
1.52238e-05
1.55521e-05
1.58994e-05
1.62546e-05
1.66129e-05
1.69723e-05
1.73281e-05
1.76776e-05
1.80204e-05
1.83552e-05
1.86814e-05
1.89987e-05
1.9306e-05
1.96021e-05
1.98846e-05
2.01507e-05
2.03971e-05
1.28685e-05
1.31025e-05
1.33645e-05
1.36452e-05
1.39405e-05
1.42534e-05
1.45737e-05
1.48974e-05
1.52224e-05
1.55443e-05
1.58608e-05
1.61714e-05
1.64751e-05
1.67716e-05
1.70603e-05
1.73407e-05
1.76115e-05
1.78707e-05
1.81163e-05
1.83449e-05
1.15354e-05
1.17445e-05
1.1979e-05
1.22309e-05
1.24966e-05
1.27783e-05
1.30674e-05
1.33596e-05
1.36533e-05
1.39443e-05
1.42308e-05
1.4512e-05
1.47873e-05
1.50562e-05
1.53186e-05
1.55735e-05
1.58203e-05
1.60573e-05
1.62826e-05
1.64931e-05
1.03411e-05
1.05277e-05
1.07373e-05
1.09634e-05
1.12024e-05
1.14561e-05
1.17168e-05
1.19806e-05
1.2246e-05
1.25092e-05
1.27684e-05
1.3023e-05
1.32721e-05
1.35157e-05
1.37536e-05
1.3985e-05
1.42093e-05
1.44251e-05
1.46306e-05
1.48236e-05
9.27052e-06
9.4368e-06
9.62429e-06
9.82703e-06
1.0042e-05
1.02704e-05
1.05056e-05
1.07439e-05
1.09838e-05
1.12218e-05
1.14562e-05
1.16864e-05
1.19119e-05
1.21323e-05
1.23476e-05
1.25572e-05
1.27606e-05
1.29564e-05
1.31433e-05
1.3319e-05
8.31051e-06
8.45856e-06
8.62606e-06
8.80789e-06
9.00117e-06
9.20698e-06
9.41922e-06
9.63453e-06
9.85139e-06
1.00666e-05
1.02786e-05
1.04869e-05
1.06908e-05
1.08901e-05
1.10848e-05
1.12743e-05
1.14583e-05
1.16355e-05
1.18048e-05
1.19641e-05
1.2111e-05
7.44929e-06
7.58099e-06
7.73053e-06
7.89364e-06
8.06744e-06
8.25296e-06
8.44456e-06
8.63923e-06
8.83543e-06
9.03016e-06
9.22195e-06
9.41039e-06
9.5947e-06
9.77484e-06
9.95073e-06
1.01219e-05
1.0288e-05
1.04479e-05
1.06007e-05
1.07446e-05
1.08774e-05
6.67644e-06
6.79348e-06
6.92695e-06
7.07323e-06
7.22961e-06
7.39691e-06
7.57003e-06
7.74624e-06
7.92385e-06
8.10011e-06
8.27374e-06
8.44421e-06
8.61088e-06
8.77367e-06
8.93249e-06
9.08695e-06
9.23664e-06
9.38085e-06
9.51841e-06
9.64786e-06
9.76731e-06
5.98269e-06
6.08659e-06
6.20566e-06
6.33685e-06
6.47764e-06
6.62865e-06
6.78527e-06
6.94487e-06
7.10579e-06
7.26559e-06
7.42288e-06
7.57725e-06
7.72803e-06
7.87515e-06
8.01847e-06
8.15775e-06
8.29256e-06
8.42222e-06
8.5458e-06
8.66196e-06
8.76897e-06
5.35975e-06
5.4519e-06
5.55807e-06
5.67576e-06
5.80264e-06
5.93908e-06
6.08098e-06
6.22571e-06
6.37178e-06
6.5168e-06
6.65947e-06
6.79933e-06
6.93582e-06
7.06876e-06
7.19814e-06
7.32368e-06
7.44497e-06
7.56143e-06
7.67226e-06
7.77624e-06
7.87177e-06
4.80026e-06
4.88189e-06
4.97653e-06
5.0822e-06
5.1966e-06
5.32009e-06
5.44883e-06
5.58037e-06
5.71318e-06
5.84495e-06
5.97451e-06
6.10136e-06
6.22502e-06
6.34529e-06
6.46213e-06
6.57525e-06
6.68435e-06
6.78889e-06
6.88812e-06
6.98097e-06
7.06608e-06
7.14209e-06
4.29763e-06
4.36986e-06
4.45424e-06
4.54915e-06
4.65245e-06
4.7644e-06
4.88146e-06
5.00123e-06
5.1222e-06
5.24214e-06
5.36e-06
5.47524e-06
5.5874e-06
5.6963e-06
5.80186e-06
5.90384e-06
6.00199e-06
6.09576e-06
6.18449e-06
6.26727e-06
6.34289e-06
6.41012e-06
3.846e-06
3.90984e-06
3.98505e-06
4.07038e-06
4.16384e-06
4.26554e-06
4.37222e-06
4.4815e-06
4.5919e-06
4.70134e-06
4.80876e-06
4.91365e-06
5.01553e-06
5.11423e-06
5.20968e-06
5.30169e-06
5.38999e-06
5.47407e-06
5.55336e-06
5.62709e-06
5.69413e-06
5.75341e-06
3.44011e-06
3.49648e-06
3.56351e-06
3.64033e-06
3.72505e-06
3.81767e-06
3.91513e-06
4.01511e-06
4.11612e-06
4.21622e-06
4.31431e-06
4.40996e-06
4.50267e-06
4.59228e-06
4.6787e-06
4.76176e-06
4.84121e-06
4.91663e-06
4.9875e-06
5.05308e-06
5.11243e-06
5.16461e-06
3.07527e-06
3.12497e-06
3.18475e-06
3.25402e-06
3.331e-06
3.41556e-06
3.50488e-06
3.5966e-06
3.68928e-06
3.78104e-06
3.87086e-06
3.95827e-06
4.0428e-06
4.12428e-06
4.20265e-06
4.27773e-06
4.34929e-06
4.417e-06
4.48034e-06
4.53864e-06
4.5911e-06
4.63695e-06
2.7473e-06
2.79106e-06
2.84438e-06
2.90697e-06
2.9771e-06
3.05459e-06
3.13667e-06
3.22107e-06
3.30636e-06
3.39074e-06
3.4732e-06
3.55327e-06
3.63049e-06
3.70474e-06
3.77594e-06
3.84392e-06
3.90845e-06
3.96926e-06
4.02587e-06
4.07771e-06
4.12409e-06
4.1643e-06
2.45243e-06
2.4909e-06
2.5385e-06
2.59519e-06
2.65931e-06
2.73054e-06
2.80622e-06
2.88415e-06
2.96289e-06
3.0407e-06
3.11661e-06
3.19014e-06
3.26088e-06
3.32869e-06
3.39349e-06
3.45514e-06
3.51343e-06
3.56812e-06
3.61877e-06
3.66492e-06
3.7059e-06
3.74112e-06
2.1873e-06
2.22109e-06
2.26361e-06
2.31512e-06
2.37394e-06
2.43964e-06
2.50968e-06
2.58188e-06
2.6548e-06
2.72677e-06
2.79685e-06
2.86459e-06
2.92957e-06
2.99164e-06
3.05075e-06
3.10679e-06
3.1596e-06
3.20888e-06
3.25429e-06
3.29539e-06
3.33162e-06
3.36246e-06
3.3874e-06
1.94891e-06
1.97853e-06
2.01656e-06
2.06354e-06
2.1177e-06
2.17852e-06
2.2436e-06
2.31071e-06
2.37848e-06
2.44526e-06
2.51017e-06
2.57276e-06
2.63261e-06
2.68959e-06
2.74368e-06
2.79478e-06
2.84272e-06
2.88726e-06
2.92806e-06
2.96473e-06
2.99679e-06
3.02381e-06
3.04538e-06
1.73457e-06
1.76048e-06
1.79457e-06
1.83759e-06
1.88765e-06
1.94418e-06
2.00488e-06
2.06746e-06
2.13066e-06
2.19283e-06
2.25315e-06
2.31119e-06
2.36647e-06
2.41893e-06
2.46857e-06
2.51532e-06
2.55899e-06
2.59933e-06
2.63605e-06
2.6688e-06
2.69717e-06
2.72084e-06
2.73946e-06
1.54185e-06
1.56447e-06
1.5951e-06
1.63469e-06
1.68113e-06
1.73391e-06
1.79071e-06
1.84926e-06
1.90841e-06
1.96646e-06
2.02271e-06
2.07673e-06
2.12796e-06
2.17638e-06
2.22209e-06
2.26497e-06
2.30479e-06
2.34131e-06
2.37431e-06
2.4035e-06
2.42856e-06
2.44923e-06
2.46525e-06
1.3686e-06
1.3883e-06
1.41591e-06
1.45252e-06
1.49577e-06
1.54526e-06
1.5986e-06
1.65353e-06
1.70908e-06
1.7634e-06
1.81608e-06
1.86657e-06
1.91419e-06
1.95896e-06
2.00107e-06
2.04035e-06
2.07653e-06
2.10945e-06
2.13895e-06
2.16485e-06
2.18687e-06
2.20481e-06
2.21855e-06
1.21286e-06
1.23e-06
1.25499e-06
1.28901e-06
1.32943e-06
1.37608e-06
1.42626e-06
1.47797e-06
1.53033e-06
1.58121e-06
1.63084e-06
1.67828e-06
1.72245e-06
1.76369e-06
1.80233e-06
1.83812e-06
1.87081e-06
1.90031e-06
1.92658e-06
1.94948e-06
1.96877e-06
1.98432e-06
1.99604e-06
1.07293e-06
1.08783e-06
1.11054e-06
1.1423e-06
1.18021e-06
1.22439e-06
1.27159e-06
1.3205e-06
1.36994e-06
1.41759e-06
1.46493e-06
1.50965e-06
1.55017e-06
1.58769e-06
1.62293e-06
1.65546e-06
1.68494e-06
1.71141e-06
1.73491e-06
1.75527e-06
1.77227e-06
1.78579e-06
1.79578e-06
9.47322e-07
9.60288e-07
9.81017e-07
1.01077e-06
1.04643e-06
1.08842e-06
1.13267e-06
1.17925e-06
1.22581e-06
1.27028e-06
1.31613e-06
1.35825e-06
1.39473e-06
1.42854e-06
1.46084e-06
1.49068e-06
1.51756e-06
1.54164e-06
1.56295e-06
1.58126e-06
1.59637e-06
1.60816e-06
1.61664e-06
8.34646e-07
8.45938e-07
8.64976e-07
8.92954e-07
9.26682e-07
9.66682e-07
1.00788e-06
1.05281e-06
1.09588e-06
1.13721e-06
1.18239e-06
1.22152e-06
1.25378e-06
1.2847e-06
1.31509e-06
1.34305e-06
1.368e-06
1.39028e-06
1.40989e-06
1.42655e-06
1.44005e-06
1.45034e-06
1.45751e-06
1.46181e-06
7.33779e-07
7.43582e-07
7.61213e-07
7.87682e-07
8.19743e-07
8.57854e-07
8.96127e-07
9.40205e-07
9.77594e-07
1.01754e-06
1.06424e-06
1.0987e-06
1.12559e-06
1.15491e-06
1.18478e-06
1.2114e-06
1.23465e-06
1.25537e-06
1.27351e-06
1.28872e-06
1.30078e-06
1.30976e-06
1.31582e-06
1.31919e-06
6.4505e-07
6.53498e-07
6.69888e-07
6.94838e-07
7.25158e-07
7.60976e-07
7.96352e-07
8.39467e-07
8.67933e-07
9.09965e-07
9.61023e-07
9.89222e-07
1.00876e-06
1.0379e-06
1.06897e-06
1.09485e-06
1.11658e-06
1.13595e-06
1.15285e-06
1.16675e-06
1.17753e-06
1.18533e-06
1.19044e-06
1.19325e-06
5.73819e-07
5.80999e-07
5.9589e-07
6.18418e-07
6.45967e-07
6.77505e-07
7.08578e-07
7.47184e-07
7.64708e-07
8.08736e-07
8.62589e-07
8.85612e-07
9.01528e-07
9.3373e-07
9.6835e-07
9.95608e-07
1.0177e-06
1.03732e-06
1.0544e-06
1.06831e-06
1.07897e-06
1.08652e-06
1.09135e-06
1.0939e-06
5.17476e-07
5.23491e-07
5.36437e-07
5.55823e-07
5.79564e-07
6.05214e-07
6.30975e-07
6.60933e-07
6.7107e-07
7.09046e-07
7.61665e-07
7.83365e-07
8.02599e-07
8.38912e-07
8.7707e-07
9.07214e-07
9.31529e-07
9.52891e-07
9.71439e-07
9.86507e-07
9.9798e-07
1.00603e-06
1.01112e-06
1.01354e-06
4.65866e-07
4.70917e-07
4.82016e-07
4.98539e-07
5.18606e-07
5.38894e-07
5.59968e-07
5.81362e-07
5.87105e-07
6.15315e-07
6.63926e-07
6.86151e-07
7.1139e-07
7.5026e-07
7.90217e-07
8.22916e-07
8.49625e-07
8.72745e-07
8.92642e-07
9.08752e-07
9.20894e-07
9.29327e-07
9.34599e-07
9.37185e-07
4.15464e-07
4.19722e-07
4.29192e-07
4.43192e-07
4.59895e-07
4.75635e-07
4.92797e-07
5.06793e-07
5.09787e-07
5.29931e-07
5.74499e-07
5.9654e-07
6.27767e-07
6.68556e-07
7.09176e-07
7.43489e-07
7.72044e-07
7.96476e-07
8.17267e-07
8.3409e-07
8.46732e-07
8.55453e-07
8.60719e-07
8.62962e-07
3.67568e-07
3.71165e-07
3.79158e-07
3.90874e-07
4.0438e-07
4.16272e-07
4.29797e-07
4.37428e-07
4.38548e-07
4.51847e-07
4.92547e-07
5.13646e-07
5.50433e-07
5.93023e-07
6.33684e-07
6.68789e-07
6.98662e-07
7.24088e-07
7.45469e-07
7.62675e-07
7.75589e-07
7.84535e-07
7.90081e-07
7.9284e-07
3.22431e-07
3.25459e-07
3.3204e-07
3.41579e-07
3.51981e-07
3.60669e-07
3.70583e-07
3.73027e-07
3.72813e-07
3.8034e-07
4.17357e-07
4.37366e-07
4.78822e-07
5.22968e-07
5.63438e-07
5.98857e-07
6.29661e-07
6.55921e-07
6.77803e-07
6.95197e-07
7.0792e-07
7.16079e-07
7.20012e-07
7.20451e-07
2.8065e-07
2.83134e-07
2.882e-07
2.95398e-07
3.02626e-07
3.08543e-07
3.14666e-07
3.13469e-07
3.12114e-07
3.14946e-07
3.48111e-07
3.67402e-07
4.12454e-07
4.57981e-07
4.98372e-07
5.33928e-07
5.65355e-07
5.92257e-07
6.14654e-07
6.32674e-07
6.46466e-07
6.5643e-07
6.63319e-07
6.67861e-07
2.42647e-07
2.44599e-07
2.48012e-07
2.5251e-07
2.56314e-07
2.59364e-07
2.6121e-07
2.58225e-07
2.5531e-07
2.55186e-07
2.84565e-07
3.03899e-07
3.51306e-07
3.98043e-07
4.3861e-07
4.74436e-07
5.06517e-07
5.33785e-07
5.55546e-07
5.71693e-07
5.82202e-07
5.87034e-07
5.86469e-07
5.81922e-07
5.75728e-07
2.08401e-07
2.09895e-07
2.11632e-07
2.13188e-07
2.13347e-07
2.12917e-07
2.0983e-07
2.06583e-07
2.00267e-07
2.00913e-07
2.27411e-07
2.47292e-07
2.95999e-07
3.43853e-07
3.84485e-07
4.20479e-07
4.53963e-07
4.83977e-07
5.0958e-07
5.30757e-07
5.48103e-07
5.62843e-07
5.76532e-07
5.89195e-07
5.984e-07
1.78106e-07
1.79017e-07
1.78652e-07
1.76792e-07
1.73165e-07
1.68895e-07
1.61636e-07
1.59481e-07
1.47653e-07
1.57001e-07
1.79134e-07
1.97962e-07
2.47234e-07
2.96662e-07
3.37455e-07
3.72263e-07
4.03551e-07
4.30519e-07
4.52243e-07
4.6833e-07
4.781e-07
4.80999e-07
4.77868e-07
4.72915e-07
4.71579e-07
1.54068e-07
1.5364e-07
1.49416e-07
1.42119e-07
1.33357e-07
1.25001e-07
1.16699e-07
1.18137e-07
1.04632e-07
1.33064e-07
1.43917e-07
1.57125e-07
2.03905e-07
2.5412e-07
2.99154e-07
3.42763e-07
3.86408e-07
4.28348e-07
4.67657e-07
5.05243e-07
5.43257e-07
5.84448e-07
6.29391e-07
6.71658e-07
7.01992e-07
1.39828e-07
1.37396e-07
1.27771e-07
1.1245e-07
9.49522e-08
7.91789e-08
7.07172e-08
7.78645e-08
7.55966e-08
1.20766e-07
1.23256e-07
1.33834e-07
1.72004e-07
2.14735e-07
2.57625e-07
3.06696e-07
3.62289e-07
4.21082e-07
4.80502e-07
5.38746e-07
5.93758e-07
6.43717e-07
6.8792e-07
7.24931e-07
7.55465e-07
1.33242e-07
1.29493e-07
1.16306e-07
9.49785e-08
6.84952e-08
4.01846e-08
2.61117e-08
4.39629e-08
6.4498e-08
9.97085e-08
8.45963e-08
1.33204e-07
2.11729e-07
2.97234e-07
3.86479e-07
4.79269e-07
5.75571e-07
6.74319e-07
7.73252e-07
8.69611e-07
9.58996e-07
1.03553e-06
1.09196e-06
1.12507e-06
1.14758e-06
)
;

boundaryField
{
    inlet
    {
        type            calculated;
        value           nonuniform List<scalar> 
25
(
1.33934e-07
1.29914e-07
1.16308e-07
9.41767e-08
6.6018e-08
3.47337e-08
2.22596e-08
4.98492e-08
8.11303e-08
7.58327e-08
1.58174e-07
3.00416e-07
5.1389e-07
7.72364e-07
1.06713e-06
1.39451e-06
1.75284e-06
2.1389e-06
2.54796e-06
2.97315e-06
3.40469e-06
3.8272e-06
4.22197e-06
4.56796e-06
4.86006e-06
)
;
    }
    outlet
    {
        type            calculated;
        value           nonuniform List<scalar> 0();
    }
    walls
    {
        type            calculated;
        value           nonuniform List<scalar> 0();
    }
    frontAndBack
    {
        type            empty;
    }
    procBoundary4to0
    {
        type            processor;
        value           nonuniform List<scalar> 
72
(
0.00059219
0.000502787
0.000429768
0.000369407
0.000319104
0.000276841
0.000241078
0.000210631
0.000184574
0.000162165
0.000142806
0.000126018
0.000111409
9.86564e-05
8.74945e-05
7.76989e-05
6.90815e-05
6.14858e-05
5.4779e-05
4.88457e-05
4.35887e-05
3.89252e-05
3.89252e-05
3.41833e-05
3.05608e-05
2.73362e-05
2.44629e-05
2.19003e-05
1.96132e-05
1.75703e-05
1.57441e-05
1.41107e-05
1.26489e-05
1.134e-05
1.01674e-05
9.11631e-06
8.17381e-06
7.32835e-06
6.56966e-06
5.8886e-06
5.27703e-06
4.72768e-06
4.23411e-06
3.79057e-06
3.39188e-06
3.03345e-06
2.71117e-06
2.42134e-06
2.16068e-06
1.92623e-06
1.71537e-06
1.52572e-06
1.35515e-06
1.20176e-06
1.0639e-06
9.40108e-07
8.29008e-07
7.29461e-07
6.41724e-07
5.71029e-07
5.15016e-07
4.63751e-07
4.13673e-07
3.66061e-07
3.2112e-07
2.79411e-07
2.4134e-07
2.06884e-07
1.76133e-07
1.51296e-07
1.36206e-07
1.2926e-07
)
;
    }
    procBoundary4to5
    {
        type            processor;
        value           nonuniform List<scalar> 
95
(
0.000707986
0.00071202
0.000714538
0.000607271
0.000607271
0.000606849
0.000519146
0.000519146
0.000516533
0.000445296
0.000445296
0.00038618
0.00038618
0.000336819
0.000297234
0.000297234
0.000261694
0.000261694
0.000231217
0.000206057
0.000206057
0.000183241
0.000163937
0.000163937
0.000146551
0.000131497
0.000131497
0.000118041
0.000106158
9.54692e-05
9.54692e-05
8.61327e-05
7.75798e-05
6.98628e-05
6.98628e-05
6.32575e-05
5.70215e-05
5.13848e-05
5.13848e-05
4.66391e-05
4.20507e-05
3.78973e-05
3.78973e-05
3.44453e-05
3.10462e-05
2.79695e-05
2.51863e-05
2.26702e-05
2.26702e-05
2.06192e-05
1.85528e-05
1.66858e-05
1.50007e-05
1.34808e-05
1.34808e-05
1.22433e-05
1.0997e-05
9.87489e-06
8.86518e-06
7.95746e-06
7.95746e-06
7.20705e-06
6.46727e-06
5.80355e-06
5.20845e-06
4.67516e-06
4.1975e-06
3.76992e-06
3.76992e-06
3.40618e-06
3.06136e-06
2.75298e-06
2.47666e-06
2.22816e-06
2.00405e-06
1.80242e-06
1.62205e-06
1.62205e-06
1.46372e-06
1.32034e-06
1.1941e-06
1.09447e-06
1.01378e-06
9.37656e-07
8.62896e-07
7.93535e-07
7.18464e-07
6.70234e-07
6.70234e-07
5.69562e-07
6.03247e-07
4.74537e-07
7.1978e-07
7.85265e-07
1.1499e-06
)
;
    }
}


// ************************************************************************* //
