/*--------------------------------*- C++ -*----------------------------------*\
| =========                 |                                                 |
| \\      /  F ield         | OpenFOAM: The Open Source CFD Toolbox           |
|  \\    /   O peration     | Version:  2306                                  |
|   \\  /    A nd           | Website:  www.openfoam.com                      |
|    \\/     M anipulation  |                                                 |
\*---------------------------------------------------------------------------*/
FoamFile
{
    version     2.0;
    format      ascii;
    arch        "LSB;label=32;scalar=64";
    class       volScalarField;
    location    "275";
    object      p;
}
// * * * * * * * * * * * * * * * * * * * * * * * * * * * * * * * * * * * * * //

dimensions      [0 2 -2 0 0 0 0];

internalField   nonuniform List<scalar> 
1340
(
59.037
33.2331
4.72832
56.755
32.853
6.48429
-20.8828
-50.4093
54.0874
31.8568
7.36689
-17.963
-45.2873
-73.8235
-102.904
51.1971
30.4478
7.62199
-15.9059
-41.2748
-67.7409
-94.6799
-122.163
48.2014
28.7763
7.43734
-14.4835
-38.1046
-62.7167
-87.7279
-113.244
-138.885
45.1811
26.9473
6.94651
-13.5332
-35.5845
-58.5254
-81.7993
-105.528
-129.366
42.1919
25.037
6.2484
-12.9313
-33.5624
-54.991
-76.6912
-98.7953
-120.984
-143.092
39.2708
23.0989
5.41544
-12.5851
-31.925
-51.981
-72.2492
-92.8716
-113.554
-134.152
-154.653
36.4438
21.175
4.50058
-12.4216
-30.5854
-49.3873
-68.3501
-87.618
-106.918
-126.125
-145.246
33.7286
19.2903
3.54626
-12.3895
-29.4733
-47.1271
-64.8931
-82.9213
-100.953
-118.878
-136.719
-154.343
31.1362
17.4658
2.58045
-12.4459
-28.537
-45.1338
-61.802
-78.6902
-95.5543
-112.296
-128.951
-145.403
28.6724
15.7155
1.62651
-12.5601
-27.7335
-43.3561
-59.0122
-74.8498
-90.6374
-106.289
-121.845
-137.207
-152.325
26.3404
14.0477
0.700198
-12.707
-27.0305
-41.7508
-56.4721
-71.3375
-86.1312
-100.774
-115.313
-129.66
-143.78
24.1402
12.4688
-0.186314
-12.8701
-26.4019
-40.2852
-54.1395
-68.106
-81.9781
-95.6863
-109.281
-122.684
-135.872
-148.8
22.0709
10.9817
-1.0251
-13.0333
-25.8278
-38.9319
-51.9809
-65.1122
-78.1311
-90.9726
-103.69
-116.215
-128.531
-140.606
20.1301
9.58801
-1.81075
-13.1864
-25.2921
-37.6686
-49.9674
-62.3225
-74.5481
-86.5844
-98.4866
-110.194
-121.697
-132.972
18.3143
8.28727
-2.53982
-13.3223
-24.7827
-36.4789
-48.0775
-59.7089
-71.1955
-82.4833
-93.6266
-104.572
-115.317
-125.843
-136.089
16.6191
7.07859
-3.21011
-13.435
-24.2896
-35.3485
-46.2922
-57.2476
-68.0448
-78.6353
-89.072
-99.3078
-109.344
-119.169
-128.731
15.0405
5.95921
-3.82048
-13.5209
-23.8056
-34.2659
-44.5969
-54.9196
-65.0733
-75.0129
-84.7915
-94.365
-103.74
-112.909
-121.828
13.5732
4.92692
-4.37149
-13.5774
-23.3257
-33.2227
-42.9784
-52.7085
-62.2605
-71.5915
-80.7557
-89.7122
-98.4696
-107.025
-115.341
-123.367
12.2124
3.97867
-4.86425
-13.6029
-22.8446
-32.2116
-41.4262
-50.6004
-59.5884
-68.351
-76.9407
-85.3207
-93.5016
-101.483
-109.234
-116.711
10.9531
3.11083
-5.30005
-13.5969
-22.3602
-31.2272
-39.9329
-48.5846
-57.0441
-65.2741
-73.3267
-81.1681
-88.8099
-96.2553
-103.477
-110.439
16.2836
9.79007
2.31993
-5.68096
-13.5596
-21.8704
-30.2653
-38.4917
-46.6524
-54.6153
-62.3465
-69.8961
-77.2337
-84.3715
-91.3155
-98.042
-104.52
-110.697
14.9086
8.7183
1.60222
-6.0092
-13.4914
-21.3737
-29.3224
-37.0964
-44.7948
-52.2911
-59.5546
-66.6332
-73.4995
-80.1666
-86.6414
-92.9045
-98.9284
-104.668
13.6344
7.73287
0.953866
-6.28719
-13.3932
-20.8697
-28.396
-35.7433
-43.0054
-50.0631
-56.8874
-63.5245
-69.9494
-76.1763
-82.2129
-88.0426
-93.6419
-98.9715
12.4552
6.82883
0.371055
-6.51764
-13.2665
-20.358
-27.4847
-34.4286
-41.2798
-47.9243
-54.3359
-60.5592
-66.571
-72.3857
-78.0122
-83.4367
-88.6385
-93.5832
-98.2181
11.3654
6.00153
-0.150078
-6.70322
-13.1126
-19.8388
-26.5867
-33.1492
-39.6127
-45.8681
-51.8919
-57.7267
-63.3512
-68.7805
-74.024
-79.0695
-83.8995
-88.4838
-92.7751
10.3597
5.24635
-0.613283
-6.84683
-12.9335
-19.3128
-25.7018
-31.9036
-38.0006
-43.8895
-49.5482
-55.0184
-60.28
-65.3484
-70.2335
-74.9252
-79.4078
-83.655
-87.6245
9.4329
4.55887
-1.02221
-6.95104
-12.7308
-18.7805
-24.8292
-30.6895
-36.4402
-41.9835
-47.299
-52.4267
-57.3482
-62.0788
-66.6289
-70.9896
-75.1481
-79.0804
-82.749
8.58023
3.93459
-1.38039
-7.0187
-12.5066
-18.2428
-23.9686
-29.5055
-34.9292
-40.1466
-45.1391
-49.9449
-54.5474
-58.9621
-63.1988
-67.2505
-71.1062
-74.7447
-78.1323
7.79693
3.36958
-1.69142
-7.0526
-12.2625
-17.7009
-23.1201
-28.3508
-33.4652
-38.3751
-43.0632
-47.5669
-51.8704
-55.989
-59.9331
-63.6963
-67.2697
-70.6342
-73.7596
-76.6086
7.07853
2.85979
-1.95857
-7.0554
-12.0007
-17.1558
-22.2839
-27.2246
-32.0464
-36.6662
-41.068
-45.2876
-49.3105
-53.1521
-56.8225
-60.3166
-63.6267
-66.736
-69.6174
-72.2372
6.4207
2.40147
-2.18509
-7.0297
-11.723
-16.6087
-21.4603
-26.1261
-30.6715
-35.0173
-39.1495
-43.102
-46.862
-50.4441
-53.8589
-57.102
-60.1667
-63.0384
-65.693
-68.0999
5.81948
1.9909
-2.37402
-6.97806
-11.4311
-16.0606
-20.6499
-25.0552
-29.3388
-33.4262
-37.3043
-41.006
-44.5192
-47.8587
-51.0346
-54.0435
-56.88
-59.531
-61.9747
-64.184
5.27093
1.62473
-2.52843
-6.90278
-11.1271
-15.5128
-19.8528
-24.0112
-28.0474
-31.8908
-35.5297
-38.9956
-42.2776
-45.3899
-48.3428
-51.1334
-53.7575
-56.2033
-58.4516
-60.4777
4.77141
1.29967
-2.65114
-6.80624
-10.8128
-14.9663
-19.0697
-22.9941
-26.7962
-30.4093
-33.8229
-37.0671
-40.1324
-43.0322
-45.777
-48.3643
-50.791
-53.0464
-55.1134
-56.9702
-58.589
4.31742
1.01258
-2.74478
-6.69063
-10.4895
-14.4223
-18.3009
-22.0035
-25.5842
-28.98
-32.1814
-35.2175
-38.0794
-40.7806
-43.3312
-45.7293
-47.9725
-50.0514
-51.9507
-53.651
-55.1276
3.90569
0.760511
-2.81197
-6.55806
-10.1592
-13.8819
-17.547
-21.0395
-24.4107
-27.6013
-30.603
-33.4434
-36.115
-38.6305
-40.9998
-43.2218
-45.2945
-47.2099
-48.9544
-50.5105
-51.8562
3.53312
0.540669
-2.85506
-6.41052
-9.82315
-13.3461
-16.8085
-20.1018
-23.2748
-26.2718
-29.0855
-31.7423
-34.2353
-36.5773
-38.7776
-40.8358
-42.7504
-44.5145
-46.1159
-47.5392
-48.7647
3.19676
0.350411
-2.87636
-6.24983
-9.48291
-12.8158
-16.0857
-19.1902
-22.1758
-24.9901
-27.6268
-30.1112
-32.437
-34.6168
-36.6596
-38.5655
-40.3336
-41.9577
-43.4271
-44.7282
-45.8436
2.89381
0.187269
-2.87799
-6.07782
-9.13982
-12.2918
-15.3789
-18.3045
-21.113
-23.7551
-26.2251
-28.5475
-30.7167
-32.745
-34.6411
-36.4055
-38.0377
-39.5325
-40.8803
-42.0692
-43.0839
-43.9084
2.62169
0.0488759
-2.86197
-5.89608
-8.79511
-11.775
-14.6885
-17.4447
-20.0857
-22.5651
-24.8785
-27.0487
-29.0714
-30.9581
-32.7176
-34.3505
-35.8569
-37.2323
-38.4682
-39.5542
-40.4768
-41.2221
2.37792
-0.0669206
-2.83026
-5.70618
-8.44992
-11.2662
-14.0148
-16.6105
-19.093
-21.4191
-23.5849
-25.6125
-27.498
-29.2525
-30.8847
-32.3956
-33.7855
-35.0507
-36.1837
-37.1754
-38.0139
-38.6873
2.16019
-0.162224
-2.78453
-5.50952
-8.10537
-10.7659
-13.3581
-15.8016
-18.1344
-20.3159
-22.3428
-24.2364
-25.9934
-27.6246
-29.1384
-30.536
-31.8181
-32.9816
-34.0201
-34.9254
-35.6873
-36.2956
1.96633
-0.238957
-2.72648
-5.30746
-7.7624
-10.2749
-12.7186
-15.0179
-17.2091
-19.2541
-21.1504
-22.9182
-24.555
-26.071
-27.4746
-28.7671
-29.9495
-31.0192
-31.9709
-32.7971
-33.4893
-34.0386
1.79431
-0.29892
-2.65765
-5.10123
-7.42194
-9.79354
-12.0962
-14.2589
-16.3162
-18.2325
-20.0059
-21.6557
-23.1798
-24.5884
-25.8893
-27.0843
-28.1746
-29.1579
-30.0298
-30.7839
-31.4127
-31.9086
1.64223
-0.343806
-2.57948
-4.89192
-7.08475
-9.32241
-11.4911
-13.5244
-15.4551
-17.2499
-18.9076
-20.4467
-21.8654
-23.1736
-24.379
-25.4835
-26.4885
-27.3923
-28.1909
-28.8791
-29.4502
-29.898
1.50831
-0.37521
-2.49329
-4.68062
-6.75166
-8.86185
-10.9034
-12.814
-14.6249
-16.3051
-17.8538
-19.2889
-20.6089
-21.8234
-22.9399
-23.9605
-24.8866
-25.7171
-26.4486
-27.0765
-27.5953
-27.9997
-28.2887
1.39089
-0.394586
-2.40033
-4.46833
-6.42334
-8.41228
-10.333
-12.1273
-13.8249
-15.3968
-16.843
-18.1803
-19.4078
-20.5348
-21.5686
-22.5112
-23.3643
-24.1273
-24.7972
-25.3701
-25.8414
-26.2066
-26.4655
1.2884
-0.403333
-2.30175
-4.25593
-6.10039
-7.97396
-9.77991
-11.464
-13.0542
-14.5239
-15.8734
-17.1188
-18.2596
-19.3049
-20.2615
-21.1317
-21.9174
-22.618
-23.2314
-23.7541
-24.1822
-24.5122
-24.7443
1.1994
-0.402752
-2.19867
-4.04428
-5.78343
-7.54721
-9.24408
-10.8235
-12.3121
-13.6851
-14.9434
-16.1023
-17.1618
-18.1306
-19.0153
-19.8182
-20.5414
-21.1847
-21.7461
-22.223
-22.612
-22.9101
-23.1183
1.12256
-0.393997
-2.09205
-3.83413
-5.47297
-7.13229
-8.72544
-10.2056
-11.5977
-12.8793
-14.0514
-15.1288
-16.112
-17.0093
-17.8269
-18.5671
-19.2324
-19.8226
-20.3363
-20.7714
-21.1248
-21.3944
-21.5812
1.05667
-0.378086
-1.98277
-3.62606
-5.16931
-6.72918
-8.22369
-9.60956
-10.9101
-12.1052
-13.1958
-14.1963
-15.1078
-15.9381
-16.6929
-17.3747
-17.9861
-18.5274
-18.9973
-19.394
-19.7151
-19.959
-20.127
1.00044
-0.356154
-1.87179
-3.42086
-4.87306
-6.3381
-7.73868
-9.03496
-10.2483
-11.3615
-12.3749
-13.3027
-14.1471
-14.9147
-15.6105
-16.2377
-16.799
-17.2949
-17.7244
-18.0859
-18.3778
-18.5985
-18.7497
0.952638
-0.329667
-1.76053
-3.21995
-4.58528
-5.96012
-7.27104
-8.48184
-9.61184
-10.6476
-11.5865
-12.4453
-13.2272
-13.9362
-14.5765
-15.1524
-15.6671
-16.121
-16.5132
-16.8425
-17.1076
-17.3075
-17.4438
0.912338
-0.299332
-1.64963
-3.02387
-4.30665
-5.59585
-6.82128
-7.95073
-9.00099
-9.96384
-10.8295
-11.6214
-12.345
-12.9992
-13.5871
-14.1147
-14.586
-15.001
-15.3588
-15.6587
-15.8996
-16.0808
-16.204
-16.2746
0.879656
-0.264324
-1.53745
-2.83041
-4.03463
-5.24231
-6.38689
-7.43948
-8.41439
-9.30765
-10.1031
-10.8333
-11.5031
-12.1044
-12.6413
-13.1229
-13.5533
-13.9318
-14.2573
-14.5298
-14.7486
-14.9129
-15.0247
-15.0885
0.854171
-0.22484
-1.42337
-2.63835
-3.76693
-4.89616
-5.96304
-6.94292
-7.84644
-8.673
-9.40077
-10.0818
-10.7056
-11.2534
-11.7386
-12.1762
-12.5682
-12.9118
-13.2066
-13.4533
-13.6515
-13.8004
-13.9018
-13.96
0.835299
-0.192867
-1.33354
-2.48263
-3.54376
-4.59745
-5.57934
-6.47141
-7.27537
-8.01209
-8.61448
-9.28206
-9.91317
-10.4398
-10.9011
-11.324
-11.7051
-12.0379
-12.3228
-12.5616
-12.7537
-12.8986
-12.9975
-13.0548
0.820975
-0.165335
-1.2567
-2.34814
-3.34646
-4.32486
-5.21839
-6.01219
-6.69889
-7.32642
-7.76382
-8.45217
-9.12652
-9.65403
-10.1105
-10.5379
-10.9263
-11.2645
-11.5536
-11.7963
-11.9924
-12.1408
-12.2431
-12.3036
0.808363
-0.135679
-1.17727
-2.21066
-3.1463
-4.04974
-4.85706
-5.55503
-6.1313
-6.65271
-6.93671
-7.63259
-8.34097
-8.86707
-9.31476
-9.74225
-10.1349
-10.4766
-10.7684
-11.0141
-11.2134
-11.3652
-11.471
-11.5347
0.797237
-0.10453
-1.09623
-2.07189
-2.94543
-3.77479
-4.49861
-5.10312
-5.57647
-5.99069
-6.13877
-6.82695
-7.55582
-8.07898
-8.51602
-8.93914
-9.33262
-9.67585
-9.96892
-10.2163
-10.4182
-10.573
-10.6822
-10.7492
0.787685
-0.0722061
-1.01438
-1.93314
-2.74574
-3.50256
-4.14599
-4.65957
-5.0375
-5.34209
-5.37334
-6.03895
-6.77245
-7.28934
-7.71428
-8.12928
-8.5199
-8.86246
-9.15542
-9.40353
-9.60722
-9.76492
-9.87743
-9.94865
0.779629
-0.0393106
-0.933067
-1.79626
-2.54976
-3.23618
-3.8029
-4.22858
-4.51823
-4.70986
-4.64233
-5.27087
-5.99203
-6.49783
-6.9093
-7.31292
-7.69696
-8.03647
-8.32803
-8.57612
-8.7812
-8.9413
-9.05642
-9.13008
0.77294
-0.00716418
-0.854727
-1.6647
-2.36116
-2.97973
-3.47303
-3.81372
-4.02092
-4.09604
-3.94667
-4.52409
-5.21601
-5.70461
-6.10041
-6.48943
-6.86333
-7.19699
-7.48541
-7.73263
-7.9395
-8.10414
-8.22687
-8.31124
0.767241
0.022568
-0.782523
-1.54283
-2.18496
-2.73831
-3.15994
-3.41655
-3.54516
-3.5016
-3.28566
-3.79896
-4.44562
-4.90958
-5.28615
-5.65721
-6.01766
-6.34314
-6.62659
-6.87038
-7.07435
-7.2354
-7.35216
-7.42659
-7.46831
0.762209
0.0499044
-0.716569
-1.43193
-2.0241
-2.51712
-2.86962
-3.04435
-3.09866
-2.93423
-2.65883
-3.09482
-3.6821
-4.11291
-4.46514
-4.81316
-5.15511
-5.47012
-5.75184
-6.00191
-6.22014
-6.40467
-6.55579
-6.67581
-6.76613
0.758244
0.0760596
-0.654965
-1.33011
-1.87875
-2.32061
-2.61263
-2.71814
-2.70705
-2.41084
-2.06688
-2.41395
-2.92729
-3.31394
-3.63773
-3.95938
-4.27329
-4.55979
-4.81282
-5.03285
-5.21732
-5.35929
-5.45236
-5.49664
-5.51211
0.755911
0.0939112
-0.611123
-1.25339
-1.76439
-2.16019
-2.39494
-2.4411
-2.36018
-1.91125
-1.49994
-1.76472
-2.18792
-2.50868
-2.79346
-3.09647
-3.41121
-3.71931
-4.0138
-4.29467
-4.56284
-4.82039
-5.06811
-5.29901
-5.48569
0.752821
0.0824813
-0.6235
-1.25067
-1.72863
-2.06633
-2.21477
-2.16187
-1.94333
-1.32443
-0.915169
-1.14059
-1.48604
-1.72226
-1.90709
-2.08705
-2.26464
-2.4319
-2.58373
-2.71492
-2.8134
-2.85988
-2.84036
-2.76342
-2.69219
0.744212
0.0424307
-0.688731
-1.32142
-1.77633
-2.05132
-2.09313
-1.89772
-1.46972
-0.686024
-0.291495
-0.471454
-0.788033
-1.08594
-1.38686
-1.7015
-2.03262
-2.38183
-2.75398
-3.15792
-3.60587
-4.10408
-4.62938
-5.12237
-5.47732
)
;

boundaryField
{
    inlet
    {
        type            freestreamPressure;
        freestreamValue uniform 0;
        value           nonuniform List<scalar> 
25
(
0.740589
0.0422241
-0.685378
-1.31499
-1.76768
-2.04133
-2.08294
-1.88848
-1.46256
-0.682684
-0.125537
-0.20315
-0.339835
-0.468746
-0.599252
-0.736018
-0.880283
-1.03279
-1.19568
-1.37285
-1.56963
-1.78878
-2.02013
-2.23762
-2.39484
)
;
    }
    outlet
    {
        type            freestreamPressure;
        freestreamValue nonuniform List<scalar> 0();
        value           nonuniform List<scalar> 0();
    }
    walls
    {
        type            zeroGradient;
    }
    frontAndBack
    {
        type            empty;
    }
    procBoundary4to0
    {
        type            processor;
        value           nonuniform List<scalar> 
72
(
81.2549
77.3266
73.2158
69.0523
64.9222
60.8814
56.967
53.204
49.6064
46.1813
42.9323
39.8586
36.9584
34.2276
31.6611
29.2525
26.9959
24.8852
22.9133
21.0737
19.3599
17.7652
17.7652
22.3311
20.6799
19.1423
17.7118
16.382
15.1472
14.0014
12.9392
11.9555
11.0455
10.2042
9.4274
8.71077
8.05032
7.44222
6.88292
6.369
5.89722
5.46457
5.06823
4.70546
4.37377
4.07077
3.79423
3.54205
3.31229
3.1031
2.91278
2.73971
2.58244
2.43962
2.30987
2.19192
2.08473
1.98781
1.90064
1.83404
1.78012
1.7273
1.67572
1.6259
1.57845
1.5345
1.49482
1.45842
1.42521
1.40396
1.40968
1.43045
)
;
    }
    procBoundary4to5
    {
        type            processor;
        value           nonuniform List<scalar> 
95
(
60.6719
32.6729
1.70517
-24.9594
-24.9594
-56.9782
-81.2683
-81.2683
-112.737
-132.561
-132.561
-149.774
-149.774
-164.413
-153.113
-153.113
-165.085
-165.085
-174.879
-164.125
-164.125
-171.665
-161.588
-161.588
-167.124
-157.615
-157.615
-161.366
-152.354
-143.947
-143.947
-145.975
-137.96
-130.438
-130.438
-131.028
-123.848
-117.081
-117.081
-116.501
-110.059
-103.972
-103.972
-102.479
-96.7161
-91.265
-86.1074
-81.2271
-81.2271
-79.1331
-74.5526
-70.2207
-66.1241
-62.2508
-62.2508
-59.9394
-56.3535
-52.9679
-49.7718
-46.7552
-46.7552
-44.5329
-41.7821
-39.1893
-36.7452
-34.4413
-32.2692
-30.2209
-30.2209
-28.4685
-26.6245
-24.8849
-23.2428
-21.6917
-20.2252
-18.8373
-17.5222
-17.5222
-16.3011
-15.1126
-13.9824
-13.078
-12.3303
-11.5649
-10.7829
-9.98743
-9.1708
-8.36487
-8.36487
-7.48897
-6.83075
-5.51949
-5.61938
-2.66003
-5.69395
)
;
    }
}


// ************************************************************************* //
