/*--------------------------------*- C++ -*----------------------------------*\
| =========                 |                                                 |
| \\      /  F ield         | OpenFOAM: The Open Source CFD Toolbox           |
|  \\    /   O peration     | Version:  2306                                  |
|   \\  /    A nd           | Website:  www.openfoam.com                      |
|    \\/     M anipulation  |                                                 |
\*---------------------------------------------------------------------------*/
FoamFile
{
    version     2.0;
    format      ascii;
    arch        "LSB;label=32;scalar=64";
    class       surfaceScalarField;
    location    "275";
    object      phi;
}
// * * * * * * * * * * * * * * * * * * * * * * * * * * * * * * * * * * * * * //

dimensions      [0 3 -1 0 0 0 0];

oriented        oriented;

internalField   nonuniform List<scalar> 
2584
(
0.249733
-0.249965
0.284379
-0.27263
-0.243365
0.253596
-0.281976
0.290174
-0.309208
0.321979
-0.27517
0.353055
-0.267776
-0.256257
0.258178
-0.315748
0.296797
-0.347827
0.330208
-0.308581
0.3629
-0.300468
0.394776
-0.288133
0.423318
-0.258407
-0.235943
0.263264
-0.351383
0.304045
-0.388608
0.339313
-0.343848
0.373761
-0.334916
0.407281
-0.321653
0.437248
-0.288374
0.464814
-0.26351
-0.236903
0.268927
-0.388985
0.31201
-0.43169
0.349171
-0.38101
0.385406
-0.371152
0.420691
-0.356938
0.452209
-0.319892
0.481096
-0.292396
0.507407
-0.263215
-0.23212
0.275118
-0.428613
0.320617
-0.477189
0.359738
-0.420131
0.39791
-0.409323
0.435152
-0.39418
0.468204
-0.352944
0.498542
-0.322733
0.526217
-0.29089
-0.256633
0.28183
-0.470374
0.329847
-0.525207
0.371039
-0.461323
0.411334
-0.449617
0.450536
-0.433383
0.4853
-0.387708
0.5172
-0.354634
0.546178
-0.319867
0.571795
-0.282249
-0.250682
0.289013
-0.514468
0.339715
-0.575909
0.383146
-0.504754
0.425605
-0.492077
0.466847
-0.474625
0.503472
-0.424332
0.53699
-0.388152
0.567355
-0.350232
0.594211
-0.309105
0.618449
-0.274921
-0.241295
0.296808
-0.561005
0.350202
-0.629303
0.3961
-0.550652
0.440734
-0.53671
0.484251
-0.518142
0.522729
-0.462811
0.557968
-0.42339
0.58988
-0.382144
0.61805
-0.337275
0.64328
-0.300151
-0.263927
0.304992
-0.610016
0.361455
-0.685765
0.40967
-0.598867
0.456828
-0.583868
0.502616
-0.56393
0.543206
-0.503401
0.580181
-0.460365
0.613682
-0.415645
0.64319
-0.366783
0.669703
-0.326664
0.69327
-0.287494
-0.250378
0.313754
-0.661703
0.373273
-0.745284
0.424212
-0.649807
0.473817
-0.633473
0.522138
-0.612251
0.56475
-0.546014
0.603683
-0.499298
0.638885
-0.450847
0.669882
-0.39778
0.697576
-0.354358
0.7223
-0.312218
-0.272261
0.32309
-0.716244
0.385878
-0.808072
0.439513
-0.703442
0.491842
-0.685802
0.542681
-0.663089
0.587594
-0.590927
0.628537
-0.540241
0.665532
-0.487842
0.697954
-0.430203
0.727033
-0.383437
0.75282
-0.338005
0.775679
-0.29512
-0.256059
0.33293
-0.77373
0.39917
-0.874312
0.45573
-0.760002
0.510837
-0.740909
0.564432
-0.716685
0.611678
-0.638172
0.654811
-0.583374
0.693648
-0.52668
0.727764
-0.464318
0.758172
-0.413845
0.785195
-0.365028
0.809073
-0.318998
-0.277218
0.343393
-0.834394
0.413226
-0.944146
0.472768
-0.819544
0.530954
-0.799095
0.587369
-0.7731
0.637136
-0.687939
0.682419
-0.628657
0.723356
-0.567616
0.759112
-0.500074
0.791042
-0.445775
0.819302
-0.393288
0.844243
-0.343938
0.866386
-0.299361
-0.25555
0.354392
-0.898323
0.428051
-1.0178
0.490871
-0.882364
0.552089
-0.860313
0.611557
-0.832568
0.663959
-0.74034
0.711696
-0.676395
0.754599
-0.61052
0.792175
-0.53765
0.825636
-0.479236
0.855297
-0.42295
0.88139
-0.370031
0.904517
-0.322488
-0.275859
0.366041
-0.965706
0.443704
-1.09547
0.509932
-0.948591
0.574438
-0.924819
0.637122
-0.895252
0.692296
-0.795514
0.74246
-0.726559
0.787644
-0.655704
0.827112
-0.577119
0.862239
-0.514363
0.893261
-0.453972
0.920502
-0.397272
0.944667
-0.346653
-0.297025
0.378282
-1.03673
0.460172
-1.17736
0.529963
-1.01838
0.597963
-0.992819
0.663988
-0.961277
0.722099
-0.853625
0.774916
-0.779376
0.822438
-0.703225
0.863869
-0.61855
0.900753
-0.551247
0.933297
-0.486516
0.961846
-0.425821
0.987092
-0.371899
1.00917
-0.319102
-0.268793
0.391271
-1.11168
0.477599
-1.26369
0.551169
-1.09195
0.622826
-1.06448
0.692372
-1.03082
0.753553
-0.914806
0.80914
-0.834963
0.859147
-0.753231
0.902696
-0.662099
0.94138
-0.589931
0.975443
-0.520579
1.00541
-0.455791
1.03159
-0.39808
1.05486
-0.342368
-0.288831
0.404862
-1.19061
0.495941
-1.35477
0.573437
-1.16945
0.648953
-1.13999
0.722255
-1.10412
0.786622
-0.979173
0.845179
-0.89352
0.897737
-0.805789
0.943526
-0.707888
0.984095
-0.630501
1.01999
-0.556472
1.05107
-0.48687
1.07886
-0.425874
1.10279
-0.366294
-0.309802
0.419269
-1.27387
0.515244
-1.45074
0.596921
-1.25112
0.676488
-1.21956
0.753712
-1.18135
0.821559
-1.04702
0.883164
-0.955125
0.938452
-0.861078
0.986697
-0.756133
1.02935
-0.673154
1.06673
-0.593851
1.0997
-0.519838
1.12836
-0.454538
1.15357
-0.3915
1.1753
-0.331533
-0.272288
0.434414
-1.36164
0.535573
-1.5519
0.621695
-1.33725
0.705555
-1.30342
0.786886
-1.26268
0.858353
-1.11849
0.923208
-1.01998
0.981391
-0.91926
1.03187
-0.806607
1.07682
-0.718107
1.11618
-0.633216
1.15051
-0.554165
1.18073
-0.484759
1.20698
-0.417747
1.22973
-0.354288
-0.291843
0.45033
-1.45414
0.557011
-1.65858
0.647743
-1.42798
0.736101
-1.39178
0.821822
-1.3484
0.897071
-1.19374
0.965337
-1.08825
1.02654
-0.980459
1.07985
-0.859925
1.12685
-0.765107
1.16824
-0.674604
1.20426
-0.590185
1.23587
-0.51637
1.26335
-0.445224
1.28696
-0.377897
-0.312091
0.369595
-1.53632
0.467136
-1.55168
0.579579
-1.77102
0.6752
-1.5236
0.768313
-1.48489
0.858622
-1.43871
0.937853
-1.27297
1.00973
-1.16012
1.07423
-1.04496
1.13013
-0.91582
1.1797
-0.814676
1.22298
-0.717892
1.26077
-0.627975
1.29386
-0.549454
1.32257
-0.473941
1.34744
-0.402765
1.36843
-0.333075
-0.264579
0.382012
-1.63835
0.484828
-1.6545
0.603334
-1.88953
0.704134
-1.6244
0.802261
-1.58302
0.897407
-1.53386
0.980903
-1.35646
1.05659
-1.23581
1.12434
-1.11271
1.18317
-0.974649
1.23525
-0.866757
1.28083
-0.763469
1.32043
-0.667584
1.35514
-0.584163
1.38508
-0.503874
1.411
-0.428692
1.43292
-0.354994
-0.282876
0.395059
-1.74592
0.503446
-1.76288
0.628393
-2.01448
0.734615
-1.73062
0.837994
-1.6864
0.938261
-1.63412
1.02616
-1.44436
1.10589
-1.31554
1.17721
-1.18403
1.23922
-1.03666
1.29379
-0.921326
1.3416
-0.811275
1.38321
-0.709194
1.41959
-0.620546
1.45108
-0.53536
1.47793
-0.455542
1.50087
-0.37794
-0.301994
0.408782
-1.85928
0.523049
-1.87715
0.654741
-2.14617
0.766706
-1.84259
0.875652
-1.79534
0.981262
-1.73973
1.0739
-1.537
1.15768
-1.39932
1.23295
-1.25929
1.29798
-1.10169
1.35556
-0.978908
1.40582
-0.861534
1.44948
-0.75286
1.48744
-0.658506
1.52035
-0.568267
1.54875
-0.483943
1.57262
-0.401806
1.59233
-0.321703
-0.241844
0.423247
-1.97883
0.543673
-1.99758
0.682526
-2.28502
0.800525
-1.96059
0.915342
-1.91016
1.02661
-1.851
1.12406
-1.63445
1.2125
-1.48777
1.29168
-1.33847
1.36016
-1.17017
1.42046
-1.03921
1.47345
-0.914526
1.51929
-0.798695
1.55927
-0.698487
1.59368
-0.602685
1.62319
-0.513448
1.64818
-0.426795
1.66877
-0.342299
-0.258328
0.438443
-2.10487
0.565401
-2.12454
0.711735
-2.43136
0.836115
-2.08496
0.957091
-2.03114
1.07434
-1.96824
1.17714
-1.73725
1.27028
-1.58091
1.3534
-1.42159
1.42555
-1.24232
1.48916
-1.10282
1.54464
-0.970002
1.59265
-0.846708
1.63463
-0.740466
1.67068
-0.63873
1.70166
-0.54443
1.7276
-0.452742
1.74918
-0.363874
-0.275357
0.454462
-2.23771
0.588289
-2.25836
0.742596
-2.58566
0.873651
-2.21602
1.00116
-2.15864
1.12475
-2.09183
1.23301
-1.84551
1.33092
-1.67882
1.41855
-1.50923
1.49448
-1.31825
1.56138
-1.16971
1.61965
-1.02827
1.67028
-0.897339
1.7141
-0.784284
1.75214
-0.67677
1.7843
-0.576587
1.81158
-0.480023
1.83391
-0.386211
-0.293272
0.47129
-2.37777
0.612412
-2.39948
0.775023
-2.74828
0.913159
-2.35415
1.04757
-2.29305
1.17771
-2.22197
1.29179
-1.9596
1.39492
-1.78195
1.48728
-1.60158
1.56713
-1.3981
1.63743
-1.24001
1.69882
-1.08967
1.75175
-0.950263
1.79808
-0.830612
1.83762
-0.716311
1.87149
-0.61046
1.89992
-0.50845
1.9233
-0.409599
-0.311782
0.489031
-2.52544
0.637762
-2.54821
0.809211
-2.91973
0.954808
-2.49975
1.09638
-2.43463
1.23364
-2.35923
1.35363
-2.07959
1.46242
-1.89074
1.55952
-1.69869
1.64356
-1.48213
1.71759
-1.31404
1.78216
-1.15424
1.83797
-1.00607
1.88628
-0.878928
1.92803
-0.758056
1.96351
-0.645947
1.99318
-0.538119
2.01746
-0.433877
2.03671
-0.331034
-0.230635
0.507685
-2.68112
0.664506
-2.70504
0.845243
-3.10046
0.998699
-2.65321
1.14799
-2.58391
1.29248
-2.50372
1.41911
-2.20622
1.5336
-2.00524
1.6359
-1.80098
1.72436
-1.5706
1.8022
-1.39189
1.87
-1.22204
1.92868
-1.06475
1.97954
-0.929793
2.02314
-0.801651
2.06038
-0.683193
2.09153
-0.569264
2.11688
-0.459231
2.137
-0.351151
-0.245386
0.527363
-2.84528
0.692671
-2.87034
0.883186
-3.29098
1.04496
-2.81498
1.20227
-2.74123
1.35458
-2.65603
1.48786
-2.3395
1.60848
-2.12586
1.71628
-1.90877
1.80934
-1.66366
1.89128
-1.47382
1.96267
-1.29343
2.02427
-1.12635
2.07771
-0.983242
2.12353
-0.847466
2.16246
-0.722127
2.19495
-0.601749
2.22159
-0.485874
2.24237
-0.371925
-0.261002
0.54804
-3.01832
0.722351
-3.04465
0.923174
-3.4918
1.09372
-2.98552
1.25941
-2.90692
1.42001
-2.81662
1.56052
-2.48002
1.68759
-2.25294
1.80095
-2.02213
1.8991
-1.76181
1.98523
-1.55995
2.06028
-1.36848
2.12505
-1.19112
2.18123
-1.03942
2.22935
-0.895594
2.27007
-0.762843
2.30417
-0.635853
2.33188
-0.51358
2.35367
-0.393712
-0.277276
0.569837
-3.2008
0.753586
-3.2284
0.965326
-3.70354
1.145
-3.1652
1.31982
-3.08173
1.48897
-2.98578
1.63692
-2.62797
1.77072
-2.38673
1.89038
-2.14179
1.99351
-1.86494
2.08431
-1.65074
2.16314
-1.44731
2.23138
-1.25936
2.29032
-1.09836
2.34085
-0.946125
2.38372
-0.805713
2.41947
-0.671603
2.44836
-0.542469
2.47116
-0.416517
-0.293869
0.59278
-3.39318
0.786509
-3.42213
1.00976
-3.92679
1.19927
-3.35471
1.38342
-3.26588
1.56157
-3.16393
1.7177
-2.7841
1.85857
-2.5276
1.98438
-2.26761
2.09314
-1.97369
2.18861
-1.74621
2.27176
-1.53046
2.34337
-1.33098
2.40542
-1.16041
2.45843
-0.999129
2.50325
-0.85053
2.54069
-0.709049
2.57121
-0.572985
2.59481
-0.440117
2.61224
-0.311301
-0.186629
0.616971
-3.59602
0.821235
-3.6264
1.05654
-4.16209
1.25621
-3.55438
1.45037
-3.46004
1.63826
-3.35182
1.80252
-2.94836
1.95108
-2.67616
2.08378
-2.4003
2.19822
-2.08813
2.29882
-1.84681
2.38622
-1.61786
2.46142
-1.40617
2.52657
-1.22557
2.58239
-1.05495
2.62964
-0.89778
2.66877
-0.748173
2.70053
-0.604744
2.7253
-0.464889
2.74341
-0.329415
-0.198489
0.642439
-3.80992
0.857778
-3.84174
1.1059
-4.41021
1.31647
-3.76495
1.52095
-3.66453
1.71908
-3.54994
1.89221
-3.12149
2.0488
-2.83275
2.18826
-2.53977
2.30885
-2.20872
2.41472
-1.95268
2.50666
-1.70979
2.58595
-1.48546
2.65453
-1.29415
2.71299
-1.1134
2.76251
-0.947304
2.80375
-0.789415
2.83701
-0.638005
2.86274
-0.490614
2.88174
-0.34841
-0.210879
0.669256
-4.03545
0.896325
-4.06881
1.15791
-4.67179
1.37981
-3.98685
1.59553
-3.88025
1.80418
-3.75859
1.98676
-3.30407
2.15159
-2.99758
2.29874
-2.68692
2.42555
-2.33554
2.53706
-2.06419
2.63385
-1.80658
2.71726
-1.56887
2.78944
-1.36634
2.85088
-1.17484
2.903
-0.999426
2.94605
-0.832464
2.98089
-0.672845
3.00799
-0.517711
3.02767
-0.368092
-0.223764
0.697547
-4.27325
0.936967
-4.30823
1.21275
-4.94757
1.44669
-4.2208
1.67399
-4.10755
1.89403
-3.97863
2.0863
-3.49634
2.26004
-3.17131
2.4149
-2.84178
2.54867
-2.46932
2.66598
-2.18149
2.7681
-1.9087
2.85573
-1.65651
2.93148
-1.44209
2.99626
-1.23962
3.05076
-1.05392
3.09612
-0.877823
3.13275
-0.709477
3.1611
-0.546059
3.18143
-0.388427
-0.237071
0.727348
-4.52402
0.979788
-4.56067
1.27056
-5.23834
1.51717
-4.46741
1.75688
-4.34727
1.9887
-4.21045
2.19132
-3.69896
2.37433
-3.35432
2.53763
-3.00508
2.67853
-2.61022
2.80207
-2.30503
2.90924
-2.01587
3.00168
-1.74895
3.08144
-1.52185
3.14945
-1.30763
3.20685
-1.11132
3.25444
-0.925413
3.29279
-0.747822
3.32237
-0.575643
3.34383
-0.409888
3.35766
-0.250903
-0.104565
0.75872
-4.78844
1.02492
-4.82687
1.33142
-5.54484
1.59154
-4.72753
1.84414
-4.59987
2.0884
-4.45471
2.302
-3.91256
2.495
-3.54733
2.66708
-3.17716
2.81531
-2.75844
2.94549
-2.43522
3.05841
-2.12879
3.1556
-1.84614
3.23949
-1.60574
3.31107
-1.37921
3.3714
-1.17166
3.42143
-0.975442
3.46155
-0.787939
3.49257
-0.60666
3.51498
-0.432304
3.52943
-0.265346
-0.111682
0.791865
-5.06728
1.07251
-5.10751
1.39583
-5.86815
1.66988
-5.00159
1.93611
-4.8661
2.19381
-4.7124
2.41882
-4.13757
2.62213
-3.75064
2.80327
-3.35829
2.95954
-2.91471
3.09659
-2.57227
3.2156
-2.24779
3.31795
-1.94849
3.40623
-1.69403
3.48149
-1.45446
3.54496
-1.23513
3.59733
-1.02781
3.63949
-0.830103
3.67214
-0.639306
3.69557
-0.455738
3.71042
-0.280194
-0.119305
0.826744
-5.36134
1.12272
-5.4035
1.46352
-6.20895
1.75251
-5.29058
2.03334
-5.14694
2.30479
-4.98385
2.54207
-4.37485
2.7561
-3.96467
2.94715
-3.54934
3.11179
-3.07935
3.25613
-2.71662
3.38142
-2.37308
3.48916
-2.05623
3.58202
-1.78689
3.66108
-1.53353
3.7279
-1.30194
3.783
-1.08291
3.82732
-0.874426
3.86143
-0.673409
3.88594
-0.480254
3.90155
-0.295803
-0.126975
0.863536
-5.67143
1.17563
-5.71559
1.53499
-6.5683
1.83977
-5.59536
2.13566
-5.44283
2.4218
-5.26999
2.67193
-4.62498
2.89766
-4.1904
3.0988
-3.75048
3.27209
-3.25263
3.42431
-2.86883
3.55617
-2.50494
3.66956
-2.16962
3.76738
-1.88471
3.85075
-1.61689
3.92079
-1.37199
3.97877
-1.14089
4.02537
-0.921026
4.06109
-0.709129
4.08664
-0.505802
4.10307
-0.31224
-0.1349
0.902354
-5.99846
1.23145
-6.04468
1.61038
-6.94724
1.93167
-5.91664
2.24359
-5.75475
2.5452
-5.5716
2.80869
-4.88847
3.04659
-4.4283
3.25864
-3.96253
3.4414
-3.4354
3.60151
-3.02895
3.74052
-2.64395
3.85981
-2.28892
3.96284
-1.98774
4.05039
-1.70444
4.12427
-1.44587
4.1852
-1.20181
4.23411
-0.969943
4.27155
-0.746566
4.29858
-0.532829
4.31552
-0.329185
-0.143165
0.943254
-6.34333
1.29028
-6.39171
1.68984
-7.3468
2.0285
-6.2553
2.35742
-6.08367
2.67554
-5.88972
2.95327
-5.16621
3.20398
-4.67901
3.42736
-4.18591
3.6199
-3.62794
3.78863
-3.19768
3.93494
-2.79025
4.06064
-2.41463
4.16906
-2.09616
4.26126
-1.79664
4.3388
-1.52341
4.40295
-1.26596
4.45439
-1.02139
4.49382
-0.785994
4.52201
-0.561016
4.53978
-0.346957
-0.151589
0.986396
-6.70703
1.35237
-6.75769
1.77366
-7.76809
2.13079
-6.61243
2.47759
-6.43047
2.81275
-6.22488
3.10551
-5.45897
3.36973
-4.94323
3.60524
-4.42141
3.80802
-3.83072
3.98576
-3.37542
4.13982
-2.94431
4.27238
-2.54719
4.38637
-2.21016
4.48354
-1.8938
4.56521
-1.60508
4.63257
-1.33332
4.68653
-1.07534
4.72804
-0.82751
4.75757
-0.590543
4.7761
-0.365488
4.78514
-0.160627
0.0134981
1.03192
-7.09062
1.41786
-7.14363
1.86218
-8.21241
2.23865
-6.98889
2.60422
-6.79604
2.95755
-6.57821
3.26621
-5.76762
3.54473
-5.22176
3.79269
-4.66937
4.00631
-4.04434
4.19365
-3.56276
4.3561
-3.10676
4.49543
-2.68651
4.61566
-2.33039
4.71778
-1.99592
4.80386
-1.69116
4.8748
-1.40426
4.93148
-1.13202
4.97501
-0.871041
5.00604
-0.621572
5.02553
-0.384979
5.03473
-0.169827
0.0125012
1.07991
-7.49516
1.4869
-7.55061
1.95527
-8.68078
2.35243
-7.38606
2.73778
-7.1814
3.11033
-6.95076
3.43563
-6.09292
3.72902
-5.51515
3.99047
-4.93082
4.21578
-4.26965
4.41293
-3.75991
4.584
-3.27783
4.73085
-2.83336
4.85753
-2.45708
4.96506
-2.10344
5.05549
-1.78158
5.13008
-1.47885
5.18995
-1.1919
5.2356
-0.91669
5.2681
-0.654069
5.2886
-0.405478
5.29809
-0.179324
0.011502
1.13055
-7.92178
1.55983
-7.97989
2.05381
-9.17475
2.47236
-7.80461
2.87869
-7.58772
3.27139
-7.34347
3.61425
-6.43578
3.92358
-5.82447
4.19916
-5.2064
4.4363
-4.50679
4.6444
-3.96801
4.82451
-3.45795
4.97925
-2.9881
5.11234
-2.59017
5.2257
-2.2168
5.32094
-1.87683
5.39946
-1.55738
5.46223
-1.25467
5.51023
-0.964689
5.54447
-0.688309
5.56588
-0.426884
5.57594
-0.18939
0.0107308
1.18398
-8.37175
1.63663
-8.43254
2.15759
-9.69571
2.59888
-8.2459
3.02739
-8.01622
3.44131
-7.75739
3.80275
-6.79722
4.12887
-6.1506
4.41914
-5.49667
4.66915
-4.7568
4.88813
-4.18698
5.07791
-3.64772
5.24089
-3.15108
5.38131
-2.73059
5.50063
-2.33612
5.60084
-1.97703
5.68344
-1.63998
5.74958
-1.32081
5.80007
-1.01518
5.8361
-0.724341
5.85848
-0.449264
5.86898
-0.199892
0.00986729
1.2403
-8.84633
1.71761
-8.90985
2.267
-10.2451
2.73243
-8.71132
3.18406
-8.46786
3.62051
-8.19384
4.00146
-7.17817
4.34509
-6.49423
4.65107
-5.80265
4.9146
-5.02033
5.14542
-4.41781
5.34547
-3.84777
5.51707
-3.32268
5.66489
-2.87841
5.79044
-2.46166
5.89616
-2.08276
5.98301
-1.72682
6.05264
-1.39045
6.1058
-1.06833
6.1435
-0.762045
6.16702
-0.472784
6.17803
-0.210898
0.00910631
1.29996
-9.34696
1.80322
-9.41312
2.38248
-10.8244
2.87324
-9.20208
3.34959
-8.94421
3.80956
-8.65381
4.21127
-7.57988
4.57341
-6.85638
4.89586
-6.12509
5.17353
-5.298
5.41668
-4.66095
5.62739
-4.05849
5.80816
-3.50345
5.96388
-3.03413
6.09619
-2.59398
6.20728
-2.19384
6.29904
-1.81858
6.3721
-1.46351
6.42809
-1.12432
6.46778
-0.801735
6.49259
-0.497593
6.504
-0.222314
0.00826172
1.36252
-9.87485
1.8936
-9.94421
2.50436
-11.4351
3.02189
-9.71962
3.52384
-9.44615
4.00898
-9.13895
4.43231
-8.00321
4.8141
-7.23817
5.15406
-6.46505
5.44667
-5.59061
5.70287
-4.91716
5.9248
-4.28041
6.11538
-3.69403
6.27941
-3.19816
6.41876
-2.73333
6.5359
-2.31099
6.63221
-1.91489
6.70932
-1.54062
6.76824
-1.18324
6.80994
-0.843439
6.83597
-0.523624
6.84796
-0.234303
0.00754488
1.42878
-10.4317
1.98883
-10.5043
2.633
-12.0793
3.17867
-10.2653
3.70778
-9.97526
4.21948
-9.65065
4.6656
-8.44933
5.06796
-7.64053
5.42621
-6.8233
5.73456
-5.89896
6.00449
-5.18708
6.23839
-4.51431
6.43919
-3.89484
6.61201
-3.37098
6.75895
-2.88027
6.88225
-2.43429
6.98386
-2.0165
7.06504
-1.6218
7.12629
-1.24449
7.17105
-0.888199
7.19844
-0.551022
7.21052
-0.246376
7.21192
0.00614419
0.193486
1.4988
-11.019
2.08907
-11.0945
2.76852
-12.7587
3.34386
-10.8406
3.90217
-10.5336
4.44109
-10.1896
4.91164
-8.91988
5.33586
-8.06475
5.71351
-7.20095
6.03838
-6.22383
6.32296
-5.47166
6.56945
-4.76079
6.78112
-4.1065
6.96312
-3.55298
7.11781
-3.03497
7.24769
-2.56417
7.35445
-2.12325
7.44023
-1.70758
7.50575
-1.31001
7.55174
-0.934183
7.58022
-0.579503
7.59348
-0.259637
7.59364
0.00598023
0.1999
1.57237
-11.6384
2.19554
-11.7177
2.91173
-13.4749
3.51839
-11.4473
4.10693
-11.1221
4.67542
-10.7581
5.17139
-9.41584
5.6185
-8.51187
6.01663
-7.59908
6.35877
-6.56597
6.65871
-5.77161
6.91863
-5.02071
7.14147
-4.32934
7.33338
-3.74489
7.49662
-3.19821
7.63257
-2.70012
7.74556
-2.23623
7.83574
-1.79777
7.90499
-1.37926
7.95237
-0.981554
7.98237
-0.609511
7.99731
-0.274575
7.99814
0.00515533
0.209315
1.13496
-12.0887
1.6104
-12.1931
2.21128
-14.0758
2.79335
-12.0294
3.45518
-11.7839
4.22789
-11.5308
5.05942
-10.2474
5.99461
-9.44705
7.04642
-8.65089
8.62665
-8.1462
8.2372
-5.38216
7.84618
-4.6297
7.51033
-3.99348
7.21599
-3.45055
6.9598
-2.94202
6.73641
-2.47674
6.54055
-2.04037
6.37053
-1.62775
6.22383
-1.23255
6.10212
-0.859841
5.99968
-0.507077
5.91769
-0.192577
5.85476
0.0680843
0.254139
1.24425
-12.584
1.76684
-12.7157
2.42724
-14.7362
3.06689
-12.669
3.79392
-12.511
4.64233
-12.3792
5.55556
-11.1606
6.58186
-10.4733
7.7364
-9.80543
9.47004
-9.87985
9.04354
-4.95565
8.6152
-4.20136
8.24712
-3.62541
7.9262
-3.12963
7.64483
-2.66065
7.39946
-2.23136
7.18501
-1.82592
6.9983
-1.44104
6.83932
-1.07358
6.7032
-0.723721
6.59194
-0.395822
6.50288
-0.103521
6.43458
0.136391
0.305185
1.36353
-13.1287
1.93796
-13.2902
2.66426
-15.4625
3.36685
-13.3716
4.16571
-13.3098
5.09795
-13.3114
6.10037
-12.163
7.2271
-11.6001
8.49415
-11.0725
10.3973
-11.783
9.92905
-4.48745
9.46114
-3.73345
9.05799
-3.22226
8.70553
-2.77717
8.39794
-2.35306
8.12865
-1.96207
7.89372
-1.59099
7.68984
-1.23717
7.51426
-0.897999
7.36463
-0.574085
7.24295
-0.274148
7.14388
-0.0044448
7.06734
0.212927
0.358751
1.49437
-13.7278
2.12616
-13.9219
2.92407
-16.2604
3.69654
-14.1441
4.57412
-14.1874
5.59795
-14.3352
6.69889
-13.264
7.93628
-12.8375
9.3269
-12.4631
11.4152
-13.8713
10.9032
-3.97539
10.3909
-3.22119
9.94682
-2.77817
9.56055
-2.3909
9.22454
-2.01705
8.92804
-1.66557
8.67074
-1.33368
8.44654
-1.01297
8.2539
-0.705359
8.09165
-0.411836
7.95654
-0.139037
7.84846
0.103633
7.76732
0.294071
0.420308
1.63753
-14.3866
2.33258
-14.617
3.2095
-17.1373
4.05844
-14.993
5.0226
-15.1516
6.14731
-15.46
7.35667
-14.4733
8.71546
-14.1963
10.2429
-13.9905
12.536
-16.1643
11.9753
-3.4147
11.411
-2.65687
10.9272
-2.29442
10.5034
-1.9671
10.1316
-1.64522
9.80964
-1.34364
9.52537
-1.04941
9.28027
-0.76787
9.06871
-0.493796
8.89078
-0.23391
8.74183
0.00991105
8.62435
0.221116
8.53175
0.386672
0.484885
1.79451
-15.1112
2.55835
-15.3808
3.52294
-18.1019
4.45568
-15.9257
5.51531
-16.2112
6.7509
-16.6956
8.07975
-15.8022
9.57232
-15.6888
11.249
-15.6672
13.7674
-18.6827
13.1518
-2.79913
12.5341
-2.0392
12.0026
-1.7629
11.5373
-1.50176
11.1311
-1.23908
10.7751
-0.987577
10.4656
-0.739979
10.195
-0.497259
9.9627
-0.261465
9.76595
-0.0371614
9.60398
0.171878
9.47411
0.350995
9.3749
0.485874
0.55802
1.9667
-15.9082
2.80655
-16.2207
3.86656
-19.1619
4.89201
-16.9512
6.05663
-17.3758
7.41453
-18.0534
8.87438
-17.262
10.5149
-17.3293
12.3579
-17.5102
15.1255
-21.4503
14.4486
-2.12226
13.7705
-1.36107
13.1854
-1.17777
12.6746
-0.990943
12.229
-0.793515
11.8378
-0.596346
11.4958
-0.397984
11.2002
-0.2017
10.9464
-0.00764581
10.7302
0.178996
10.5522
0.349917
10.4095
0.493668
10.3008
0.594592
0.638615
2.15506
-16.7847
3.07855
-17.1442
4.2444
-20.3278
5.37162
-18.0784
6.65156
-18.6558
8.14419
-19.5461
9.74872
-18.8666
11.5513
-19.1319
13.5764
-19.5353
16.6205
-24.4945
15.8741
-1.37585
15.1283
-0.615311
14.4862
-0.535583
13.9243
-0.429059
13.435
-0.304196
13.006
-0.16737
12.6317
-0.0237051
12.3064
0.123628
12.0264
0.272305
11.7902
0.415246
11.5941
0.546031
11.4379
0.649822
11.3164
0.71609
11.229
0.72605
0.724947
2.36158
-17.7485
3.37724
-18.1598
4.65874
-21.6093
5.89823
-19.3179
7.30545
-20.063
8.94651
-21.1871
10.711
-20.6311
12.693
-21.1138
14.9201
-21.7624
18.2666
-27.841
17.4473
-0.556522
16.626
0.206002
15.9192
0.171207
15.3023
0.187835
14.7628
0.23531
14.2907
0.304705
13.879
0.387958
13.5204
0.482299
13.2135
0.579169
12.954
0.674756
12.7382
0.761809
12.5673
0.820739
12.4359
0.847472
12.3409
0.821087
0.795483
2.58781
-18.8085
3.70474
-19.2768
5.11415
-23.0187
6.47715
-20.6809
8.02477
-21.6106
9.82933
-22.9917
11.7698
-22.5715
13.9491
-23.2931
16.4005
-24.2138
20.0825
-31.523
19.179
0.347041
18.2736
1.11142
17.4948
0.949974
16.8146
0.868024
16.221
0.828942
15.703
0.822699
15.2498
0.841146
14.8564
0.875705
14.5187
0.916902
14.2319
0.961525
13.9961
0.997566
13.8058
1.01103
13.6595
0.993761
13.5531
0.927503
0.872508
2.83596
-19.9744
4.06442
-20.5052
5.61451
-24.5688
7.11349
-22.1799
8.81598
-23.3131
10.8018
-24.9775
12.9363
-24.706
15.3358
-25.6927
18.033
-26.911
22.0857
-35.5757
21.0883
1.34444
20.09
2.10979
19.2307
1.8092
18.4811
1.61763
17.8277
1.48233
17.2564
1.39399
16.7566
1.34101
16.3251
1.30722
15.9537
1.28828
15.6415
1.27368
15.3822
1.25691
15.1767
1.21648
15.021
1.14953
14.9073
1.04117
0.955447
3.10713
-21.2568
4.45865
-21.8567
6.16412
-26.2743
7.81357
-23.8293
9.68709
-25.1866
11.8721
-27.1625
14.2215
-27.0554
16.8625
-28.3337
19.8331
-29.8816
24.2937
-40.0363
23.1931
2.44511
22.0899
3.21297
21.1422
2.75685
20.3168
2.4431
19.5965
2.20264
18.964
2.02644
18.4157
1.88931
17.9377
1.78521
17.529
1.69703
17.1802
1.62243
16.8935
1.54366
16.6616
1.44832
16.4819
1.32925
16.3514
1.17163
1.05131
3.4038
4.89071
6.76782
8.58396
10.6467
13.0535
15.6419
18.5498
21.8203
26.7282
25.5141
24.2944
23.2469
22.332
21.5357
20.8411
20.2351
19.7125
19.2647
18.8906
18.5848
18.3464
18.166
18.0359
)
;

boundaryField
{
    inlet
    {
        type            calculated;
        value           nonuniform List<scalar> 
25
(
-22.6672
-23.3437
-28.1514
-25.6455
-27.2494
-29.5693
-29.6438
-31.2416
-33.1521
-44.9442
3.65918
4.43274
3.80438
3.35791
2.999
2.72103
2.4953
2.30782
2.14481
1.99656
1.84945
1.6867
1.5097
1.30171
1.14564
)
;
    }
    outlet
    {
        type            calculated;
        value           nonuniform List<scalar> 0();
    }
    walls
    {
        type            calculated;
        value           nonuniform List<scalar> 0();
    }
    frontAndBack
    {
        type            empty;
        value           nonuniform List<scalar> 0();
    }
    procBoundary4to0
    {
        type            processor;
        value           nonuniform List<scalar> 
72
(
-0.219304
-0.221586
-0.224406
-0.22763
-0.231325
-0.235489
-0.240069
-0.244919
-0.250271
-0.25598
-0.262067
-0.268549
-0.275444
-0.282728
-0.290462
-0.298659
-0.307259
-0.31632
-0.325937
-0.336008
-0.346642
-0.357827
1.43956
-0.272839
-0.279983
-0.287489
-0.295423
-0.30369
-0.312411
-0.321614
-0.331236
-0.341359
-0.352008
-0.363203
-0.374992
-0.387366
-0.400397
-0.414124
-0.428539
-0.443728
-0.459753
-0.476576
-0.494304
-0.513019
-0.532685
-0.553446
-0.575324
-0.598382
-0.622693
-0.648338
-0.675368
-0.703936
-0.734012
-0.765722
-0.799321
-0.834632
-0.871972
-0.911437
-0.952996
-0.684666
-0.748895
-0.818855
-0.895263
-0.97874
-1.06991
-1.16974
-1.27856
-1.39776
-1.52777
-1.67004
-1.82478
-1.99343
)
;
    }
    procBoundary4to5
    {
        type            processor;
        value           nonuniform List<scalar> 
95
(
0.219536
0.237984
0.213242
0.314502
0.2367
0.225969
0.383343
0.229865
0.209717
0.449545
0.211832
0.489886
0.208717
0.530809
0.550729
0.227585
0.594892
0.219706
0.640039
0.665912
0.22938
0.714268
0.744182
0.235659
0.796079
0.830232
0.236044
0.885892
0.924826
0.965833
0.249466
1.0285
1.0749
1.12376
0.253635
1.19395
1.24929
1.30721
0.246982
1.38602
1.45122
1.51999
0.225835
1.60834
1.68526
1.76621
1.85183
1.94181
0.216038
2.05131
2.15175
2.25798
2.36994
2.48776
0.175057
2.62381
2.75527
2.89413
3.04055
3.19474
0.0974753
3.36475
3.53654
3.71804
3.90922
4.111
4.32379
4.5482
-0.0144816
4.78612
5.03573
5.29909
5.57671
5.86985
6.17879
6.50485
6.84868
-0.185264
7.2037
7.58723
7.98872
5.80993
6.38353
7.01378
7.70576
8.46717
9.30177
10.2202
-0.661434
11.1655
12.2703
13.4761
14.8244
16.2556
17.9416
)
;
    }
}


// ************************************************************************* //
