/*--------------------------------*- C++ -*----------------------------------*\
| =========                 |                                                 |
| \\      /  F ield         | OpenFOAM: The Open Source CFD Toolbox           |
|  \\    /   O peration     | Version:  2306                                  |
|   \\  /    A nd           | Website:  www.openfoam.com                      |
|    \\/     M anipulation  |                                                 |
\*---------------------------------------------------------------------------*/
FoamFile
{
    version     2.0;
    format      ascii;
    arch        "LSB;label=32;scalar=64";
    class       volSymmTensorField;
    location    "275";
    object      turbulenceProperties:devReff;
}
// * * * * * * * * * * * * * * * * * * * * * * * * * * * * * * * * * * * * * //

dimensions      [0 2 -2 0 0 0 0];

internalField   nonuniform List<symmTensor> 
1340
(
(7.13477e-05 -9.17057e-05 3.42123e-21 -7.13959e-05 7.83504e-22 4.82304e-08)
(5.50503e-05 -0.000103347 5.46851e-20 -5.5013e-05 4.39814e-20 -3.72499e-08)
(3.63455e-05 -0.000112018 -2.21727e-20 -3.63489e-05 -1.6918e-20 3.394e-09)
(5.9914e-05 -7.84863e-05 1.57863e-20 -5.99607e-05 1.16964e-20 4.67077e-08)
(4.6212e-05 -8.82801e-05 -1.18463e-20 -4.62006e-05 -9.26959e-21 -1.13903e-08)
(3.05024e-05 -9.56397e-05 -3.49216e-20 -3.05286e-05 -2.38002e-20 2.6139e-08)
(1.37815e-05 -9.99221e-05 2.34297e-19 -1.38112e-05 1.70795e-19 2.97216e-08)
(-4.06776e-06 -0.000100987 -5.43337e-20 4.05663e-06 -4.22521e-20 1.11298e-08)
(5.0601e-05 -6.76505e-05 6.68183e-21 -5.06294e-05 5.20191e-21 2.84245e-08)
(3.89765e-05 -7.59397e-05 -2.66068e-20 -3.8961e-05 -1.74583e-20 -1.54865e-08)
(2.56595e-05 -8.22114e-05 -1.17731e-19 -2.56744e-05 -7.83603e-20 1.48899e-08)
(1.15048e-05 -8.59364e-05 -1.09177e-20 -1.15148e-05 -1.1412e-20 1.00634e-08)
(-3.62081e-06 -8.70048e-05 -1.69842e-20 3.62625e-06 -5.95548e-21 -5.44861e-09)
(-1.87299e-05 -8.51923e-05 1.52973e-19 1.87236e-05 9.75588e-20 6.26902e-09)
(-3.30494e-05 -8.0559e-05 2.20144e-20 3.30355e-05 2.39086e-20 1.38082e-08)
(4.29173e-05 -5.86482e-05 -1.49604e-20 -4.29382e-05 -8.01631e-21 2.08659e-08)
(3.29683e-05 -6.56969e-05 -8.91162e-20 -3.29573e-05 -5.62703e-20 -1.09336e-08)
(2.15896e-05 -7.10507e-05 3.55596e-20 -2.16037e-05 2.45604e-20 1.40048e-08)
(9.518e-06 -7.42698e-05 2.63708e-20 -9.5266e-06 1.6182e-20 8.60374e-09)
(-3.39533e-06 -7.5273e-05 1.07484e-19 3.39636e-06 6.67106e-20 -1.02762e-09)
(-1.63236e-05 -7.38725e-05 -1.55641e-19 1.63133e-05 -1.0571e-19 1.03319e-08)
(-2.86291e-05 -7.0109e-05 2.00219e-19 2.86135e-05 1.01521e-19 1.5579e-08)
(-3.99939e-05 -6.40934e-05 -5.1902e-19 3.99856e-05 -2.8809e-19 8.25893e-09)
(3.65429e-05 -5.10984e-05 2.55298e-20 -3.65588e-05 1.52561e-20 1.58641e-08)
(2.79657e-05 -5.71199e-05 2.30662e-20 -2.79555e-05 1.44589e-20 -1.01793e-08)
(1.81767e-05 -6.17009e-05 7.58823e-21 -1.81887e-05 6.03062e-21 1.19727e-08)
(7.81191e-06 -6.44774e-05 -1.2818e-20 -7.81585e-06 -8.18516e-21 3.93814e-09)
(-3.2791e-06 -6.53909e-05 9.67799e-20 3.28353e-06 5.14106e-20 -4.43051e-09)
(-1.43972e-05 -6.42794e-05 -8.30276e-20 1.4391e-05 -4.64545e-20 6.23317e-09)
(-2.50168e-05 -6.11754e-05 -2.59254e-19 2.50078e-05 -1.50111e-19 9.00672e-09)
(-3.48839e-05 -5.61658e-05 2.77058e-19 3.48819e-05 1.90894e-19 1.93956e-09)
(-4.35452e-05 -4.95083e-05 9.18483e-20 4.35342e-05 5.80575e-20 1.10334e-08)
(3.12154e-05 -4.47133e-05 -4.33541e-21 -3.12282e-05 -1.16953e-21 1.2741e-08)
(2.37775e-05 -4.98757e-05 -1.23836e-20 -2.37687e-05 -6.06807e-21 -8.73321e-09)
(1.53041e-05 -5.3801e-05 -4.98405e-20 -1.53158e-05 -2.69275e-20 1.16861e-08)
(6.34989e-06 -5.61908e-05 2.37027e-20 -6.35176e-06 1.04738e-20 1.87216e-09)
(-3.22484e-06 -5.70016e-05 -7.50773e-20 3.22855e-06 -4.49673e-20 -3.71156e-09)
(-1.2833e-05 -5.60913e-05 1.75312e-19 1.28263e-05 1.00651e-19 6.73834e-09)
(-2.20291e-05 -5.34935e-05 -9.98971e-21 2.20215e-05 1.73605e-20 7.56202e-09)
(-3.06074e-05 -4.92803e-05 9.67851e-20 3.06057e-05 1.91573e-20 1.64828e-09)
(-3.81979e-05 -4.36543e-05 7.59398e-20 3.81893e-05 1.93378e-20 8.59556e-09)
(2.6741e-05 -3.92739e-05 -5.321e-20 -2.67493e-05 -2.91941e-20 8.30578e-09)
(2.02574e-05 -4.37112e-05 8.14329e-20 -2.02501e-05 4.3157e-20 -7.36656e-09)
(1.28816e-05 -4.70819e-05 -6.08435e-20 -1.28922e-05 -3.06383e-20 1.05666e-08)
(5.11017e-06 -4.91371e-05 3.45494e-20 -5.10926e-06 1.27438e-20 -9.16533e-10)
(-3.19465e-06 -4.98413e-05 -2.02137e-19 3.19768e-06 -9.96138e-20 -3.02929e-09)
(-1.15328e-05 -4.90766e-05 1.10956e-19 1.1529e-05 5.00746e-20 3.82139e-09)
(-1.95244e-05 -4.68744e-05 2.74302e-19 1.95197e-05 1.28521e-19 4.64411e-09)
(-2.70038e-05 -4.32945e-05 -3.89538e-19 2.7003e-05 -1.99882e-19 8.85604e-10)
(-3.36615e-05 -3.85032e-05 -1.91166e-19 3.36566e-05 -8.45602e-20 4.94171e-09)
(-3.93073e-05 -3.26556e-05 1.60885e-19 3.93031e-05 6.56976e-20 4.19145e-09)
(2.29626e-05 -3.46096e-05 2.7128e-20 -2.29678e-05 1.30754e-20 5.126e-09)
(1.7284e-05 -3.84323e-05 1.411e-20 -1.72793e-05 8.01523e-21 -4.70037e-09)
(1.08348e-05 -4.13327e-05 4.01712e-20 -1.08433e-05 2.01825e-20 8.46238e-09)
(4.05999e-06 -4.30962e-05 -1.16343e-19 -4.05945e-06 -5.74415e-20 -5.41016e-10)
(-3.17537e-06 -4.36975e-05 2.19144e-19 3.17836e-06 1.09957e-19 -2.99256e-09)
(-1.04393e-05 -4.30379e-05 -4.14338e-19 1.04356e-05 -1.98085e-19 3.73416e-09)
(-1.74027e-05 -4.11491e-05 -1.71899e-19 1.73996e-05 -8.11042e-20 3.12872e-09)
(-2.39384e-05 -3.80777e-05 2.20012e-19 2.39378e-05 1.28539e-19 5.37156e-10)
(-2.97836e-05 -3.39658e-05 1.12784e-19 2.97787e-05 5.57885e-20 4.86865e-09)
(-3.47752e-05 -2.89451e-05 -1.04816e-19 3.4771e-05 -6.40892e-20 4.12946e-09)
(-3.87976e-05 -2.31485e-05 -2.93676e-20 3.87944e-05 -1.17988e-20 3.21256e-09)
(1.97614e-05 -3.05838e-05 -2.85205e-20 -1.97651e-05 -1.25322e-20 3.68289e-09)
(1.47651e-05 -3.38864e-05 -2.1683e-20 -1.4761e-05 -1.1297e-20 -4.09481e-09)
(9.10605e-06 -3.63856e-05 6.99484e-20 -9.11374e-06 3.30662e-20 7.68953e-09)
(3.1746e-06 -3.78958e-05 1.71695e-20 -3.17329e-06 8.78519e-21 -1.30532e-09)
(-3.15189e-06 -3.84026e-05 1.00931e-19 3.15442e-06 4.63702e-20 -2.52407e-09)
(-9.50013e-06 -3.78199e-05 5.86414e-19 9.49706e-06 2.85119e-19 3.06883e-09)
(-1.55877e-05 -3.61806e-05 1.01156e-19 1.55845e-05 4.62087e-20 3.21367e-09)
(-2.13088e-05 -3.3525e-05 9.82447e-20 2.1309e-05 2.90597e-20 -2.38929e-10)
(-2.64427e-05 -2.99759e-05 -7.98714e-20 2.64397e-05 -3.72844e-20 3.01549e-09)
(-3.08582e-05 -2.56378e-05 -6.98706e-20 3.08551e-05 -2.53993e-20 3.06452e-09)
(-3.44561e-05 -2.06225e-05 -6.05442e-20 3.44542e-05 -2.37136e-20 1.90002e-09)
(1.70356e-05 -2.70927e-05 2.32692e-20 -1.70385e-05 9.41741e-21 2.96484e-09)
(1.26252e-05 -2.99535e-05 7.51275e-20 -1.26209e-05 3.37111e-20 -4.24835e-09)
(7.64151e-06 -3.21068e-05 7.86635e-20 -7.64923e-06 3.52352e-20 7.72578e-09)
(2.43068e-06 -3.34004e-05 -1.17186e-19 -2.42843e-06 -5.49712e-20 -2.25299e-09)
(-3.1185e-06 -3.38198e-05 -1.96106e-19 3.12066e-06 -9.26014e-20 -2.15998e-09)
(-8.68286e-06 -3.32964e-05 -1.29705e-19 8.68056e-06 -7.37654e-20 2.30415e-09)
(-1.4018e-05 -3.18584e-05 -1.34974e-19 1.40161e-05 -5.7282e-20 1.96835e-09)
(-1.90382e-05 -2.95447e-05 -7.79304e-20 1.90386e-05 -4.15107e-20 -4.34325e-10)
(-2.35539e-05 -2.64602e-05 1.28974e-19 2.35512e-05 6.01481e-20 2.72531e-09)
(-2.7456e-05 -2.26937e-05 -5.89915e-21 2.7454e-05 -2.99827e-21 2.02226e-09)
(-3.06639e-05 -1.83358e-05 2.45714e-20 3.06617e-05 1.2514e-20 2.20356e-09)
(-3.30834e-05 -1.35144e-05 -6.71819e-20 3.30805e-05 -3.07155e-20 2.95887e-09)
(1.47069e-05 -2.4053e-05 -8.81769e-21 -1.47085e-05 -2.88219e-21 1.5524e-09)
(1.08023e-05 -2.65339e-05 -7.1665e-20 -1.07995e-05 -3.12765e-20 -2.81464e-09)
(6.39972e-06 -2.8392e-05 -8.16797e-20 -6.40633e-06 -3.66047e-20 6.61053e-09)
(1.80819e-06 -2.94971e-05 -1.6026e-20 -1.80608e-06 -4.09235e-21 -2.1135e-09)
(-3.07388e-06 -2.98394e-05 6.25935e-20 3.07595e-06 2.75346e-20 -2.06996e-09)
(-7.9645e-06 -2.93598e-05 -4.8967e-20 7.96204e-06 -1.95519e-20 2.46703e-09)
(-1.26519e-05 -2.80881e-05 2.28631e-19 1.26507e-05 1.01235e-19 1.18524e-09)
(-1.70629e-05 -2.60589e-05 -1.76104e-19 1.70633e-05 -7.23167e-20 -4.52198e-10)
(-2.10376e-05 -2.33636e-05 -2.33659e-20 2.10356e-05 -1.62132e-20 2.01935e-09)
(-2.44856e-05 -2.00781e-05 -6.43732e-20 2.44845e-05 -1.13788e-20 1.07522e-09)
(-2.73408e-05 -1.62776e-05 6.71991e-20 2.73403e-05 4.64844e-21 5.59968e-10)
(-2.95236e-05 -1.20684e-05 -1.21649e-19 2.95225e-05 -2.69815e-20 1.03998e-09)
(1.2713e-05 -2.13951e-05 -4.42613e-20 -1.27137e-05 -1.82005e-20 6.85714e-10)
(9.24661e-06 -2.35495e-05 3.88172e-20 -9.24397e-06 1.54274e-20 -2.63396e-09)
(5.34646e-06 -2.51538e-05 -1.33198e-20 -5.35283e-06 -5.11863e-21 6.36645e-09)
(1.28937e-06 -2.60963e-05 -2.95318e-20 -1.28692e-06 -1.05885e-20 -2.4482e-09)
(-3.01647e-06 -2.63701e-05 -9.81461e-20 3.01787e-06 -4.18709e-20 -1.39641e-09)
(-7.32555e-06 -2.59249e-05 -7.79339e-20 7.32341e-06 -2.87381e-20 2.13374e-09)
(-1.14517e-05 -2.47917e-05 1.00883e-19 1.14507e-05 3.98675e-20 9.75698e-10)
(-1.53351e-05 -2.30006e-05 5.06081e-20 1.53352e-05 2.60474e-20 -7.06294e-11)
(-1.88385e-05 -2.06322e-05 -8.17723e-20 1.88363e-05 -3.09476e-20 2.2407e-09)
(-2.18858e-05 -1.77532e-05 2.83415e-19 2.18844e-05 1.08849e-19 1.3166e-09)
(-2.44235e-05 -1.44256e-05 -3.58062e-19 2.44227e-05 -1.35299e-19 8.13403e-10)
(-2.63851e-05 -1.07375e-05 3.65691e-19 2.63834e-05 1.34174e-19 1.68906e-09)
(-2.77183e-05 -6.76926e-06 -3.16174e-19 2.77168e-05 -7.72981e-20 1.45368e-09)
(1.10001e-05 -1.90625e-05 -2.93217e-21 -1.10001e-05 -1.18493e-21 5.73615e-11)
(7.91553e-06 -2.09363e-05 -5.43621e-20 -7.91342e-06 -2.11647e-20 -2.11383e-09)
(4.45286e-06 -2.2321e-05 1.01706e-20 -4.45862e-06 4.79607e-21 5.76462e-09)
(8.60133e-07 -2.31239e-05 4.28537e-20 -8.57317e-07 1.79207e-20 -2.81552e-09)
(-2.9468e-06 -2.33373e-05 3.7522e-20 2.94803e-06 1.65956e-20 -1.22698e-09)
(-6.7517e-06 -2.29205e-05 1.26826e-19 6.74994e-06 5.4285e-20 1.76305e-09)
(-1.03897e-05 -2.19042e-05 1.98075e-19 1.03892e-05 6.88076e-20 5.72933e-10)
(-1.38132e-05 -2.03148e-05 8.79191e-20 1.38139e-05 2.68195e-20 -7.03433e-10)
(-1.69039e-05 -1.82245e-05 -1.12085e-19 1.69025e-05 -3.17286e-20 1.39276e-09)
(-1.95975e-05 -1.56909e-05 -4.67336e-21 1.95966e-05 -1.61852e-20 9.13148e-10)
(-2.18508e-05 -1.27667e-05 1.61394e-20 2.18501e-05 3.72957e-20 7.57488e-10)
(-2.36067e-05 -9.52841e-06 -8.92314e-20 2.36057e-05 -5.6825e-20 1.01055e-09)
(-2.48235e-05 -6.03723e-06 3.16658e-19 2.48221e-05 1.28448e-19 1.43154e-09)
(9.52604e-06 -1.70091e-05 1.19223e-20 -9.52551e-06 5.16614e-21 -5.24738e-10)
(6.77544e-06 -1.86401e-05 -9.21178e-20 -6.77383e-06 -3.392e-20 -1.60889e-09)
(3.69314e-06 -1.98362e-05 9.27255e-20 -3.69843e-06 3.4949e-20 5.287e-09)
(5.05733e-07 -2.05182e-05 -5.28579e-20 -5.03195e-07 -2.07144e-20 -2.53766e-09)
(-2.86696e-06 -2.0679e-05 -4.98106e-20 2.86792e-06 -1.9517e-20 -9.53761e-10)
(-6.23246e-06 -2.02863e-05 1.38086e-19 6.23099e-06 4.90749e-20 1.47003e-09)
(-9.44681e-06 -1.93685e-05 -1.82368e-19 9.44612e-06 -8.08599e-20 6.89958e-10)
(-1.24692e-05 -1.79513e-05 -5.38357e-20 1.24697e-05 -1.92223e-20 -4.64129e-10)
(-1.51974e-05 -1.60985e-05 2.8618e-19 1.51962e-05 9.74357e-20 1.16015e-09)
(-1.75784e-05 -1.38612e-05 -1.09061e-19 1.75781e-05 -4.11386e-20 3.30292e-10)
(-1.95769e-05 -1.1284e-05 3.77268e-19 1.9577e-05 1.12823e-19 -2.40048e-11)
(-2.11458e-05 -8.43124e-06 -2.03493e-19 2.11451e-05 -6.1053e-20 7.62926e-10)
(-2.22483e-05 -5.35473e-06 3.10892e-20 2.22479e-05 -3.29683e-20 4.20615e-10)
(-2.28514e-05 -2.11662e-06 4.68082e-20 2.2851e-05 1.3178e-20 3.75581e-10)
(8.25449e-06 -1.51965e-05 3.81034e-20 -8.25396e-06 1.40723e-20 -5.22687e-10)
(5.79727e-06 -1.66172e-05 -5.20133e-20 -5.79601e-06 -1.78977e-20 -1.26118e-09)
(3.04929e-06 -1.76506e-05 -1.23284e-20 -3.05368e-06 -5.32382e-21 4.38116e-09)
(2.15873e-07 -1.82276e-05 -8.66029e-20 -2.13908e-07 -3.24487e-20 -1.96484e-09)
(-2.7778e-06 -1.83435e-05 -1.33426e-19 2.7788e-06 -4.48024e-20 -1.00484e-09)
(-5.75976e-06 -1.79714e-05 1.27153e-19 5.75811e-06 3.76309e-20 1.6506e-09)
(-8.60323e-06 -1.71392e-05 -2.24134e-19 8.60288e-06 -7.47014e-20 3.46626e-10)
(-1.12748e-05 -1.58695e-05 -1.05112e-19 1.1275e-05 -3.70627e-20 -2.01116e-10)
(-1.3686e-05 -1.42204e-05 -2.91377e-19 1.36848e-05 -1.0448e-19 1.21165e-09)
(-1.57914e-05 -1.22371e-05 -7.9565e-20 1.57907e-05 -3.1591e-20 7.51265e-10)
(-1.75626e-05 -9.95871e-06 -3.80102e-19 1.75622e-05 -1.46213e-19 4.37921e-10)
(-1.89593e-05 -7.44039e-06 9.83213e-20 1.89586e-05 5.03133e-20 7.40283e-10)
(-1.99529e-05 -4.72473e-06 -5.26601e-19 1.99526e-05 -1.46575e-19 2.23379e-10)
(-2.05144e-05 -1.86246e-06 9.24577e-20 2.05145e-05 4.93429e-20 -1.26214e-10)
(7.15581e-06 -1.35925e-05 -2.75923e-20 -7.1551e-06 -9.33926e-21 -7.15863e-10)
(4.95694e-06 -1.48306e-05 5.64733e-20 -4.95586e-06 2.04954e-20 -1.08293e-09)
(2.50373e-06 -1.57232e-05 9.9944e-21 -2.50766e-06 2.89054e-21 3.93368e-09)
(-1.9599e-08 -1.62098e-05 -1.83133e-19 2.16828e-08 -6.1224e-20 -2.08383e-09)
(-2.68048e-06 -1.62875e-05 2.06301e-19 2.68143e-06 7.20375e-20 -9.49824e-10)
(-5.32644e-06 -1.59337e-05 -2.86762e-19 5.3252e-06 -1.03741e-19 1.23949e-09)
(-7.84581e-06 -1.51755e-05 2.48324e-19 7.84551e-06 9.06601e-20 3.00235e-10)
(-1.02098e-05 -1.4034e-05 -4.19533e-20 1.02103e-05 -1.03828e-20 -5.22789e-10)
(-1.23414e-05 -1.25619e-05 2.21324e-19 1.23404e-05 8.22372e-20 1.001e-09)
(-1.4203e-05 -1.0799e-05 -1.68208e-19 1.42029e-05 -5.68616e-20 1.41099e-10)
(-1.57719e-05 -8.77914e-06 -1.41921e-19 1.57718e-05 -1.50721e-20 1.09166e-10)
(-1.70146e-05 -6.54875e-06 2.45525e-19 1.70139e-05 8.20854e-20 7.15114e-10)
(-1.7906e-05 -4.14659e-06 4.25616e-19 1.79056e-05 1.52267e-19 4.46504e-10)
(-1.84219e-05 -1.61266e-06 2.91022e-19 1.84219e-05 7.22314e-20 -2.82203e-11)
(6.20506e-06 -1.217e-05 2.74794e-20 -6.20405e-06 9.09284e-21 -1.01232e-09)
(4.23441e-06 -1.32496e-05 -2.77356e-20 -4.23359e-06 -8.41724e-21 -8.1133e-10)
(2.04132e-06 -1.40196e-05 1.78489e-20 -2.04502e-06 6.03949e-21 3.70256e-09)
(-2.09501e-07 -1.44287e-05 1.26136e-20 2.11456e-07 7.06382e-21 -1.95434e-09)
(-2.57792e-06 -1.44735e-05 -1.39425e-19 2.57859e-06 -4.94616e-20 -6.71063e-10)
(-4.9287e-06 -1.41367e-05 -1.59739e-19 4.92743e-06 -4.74298e-20 1.27098e-09)
(-7.16333e-06 -1.34431e-05 -1.16076e-19 7.16313e-06 -3.95842e-20 2.03465e-10)
(-9.2569e-06 -1.24139e-05 -3.51612e-20 9.25718e-06 -4.56369e-21 -2.78573e-10)
(-1.11433e-05 -1.10948e-05 1.07295e-20 1.11423e-05 3.97626e-21 9.95638e-10)
(-1.27899e-05 -9.52321e-06 -2.70687e-21 1.27895e-05 5.69103e-21 4.14137e-10)
(-1.4178e-05 -7.72827e-06 2.72884e-19 1.41778e-05 8.67356e-20 2.26518e-10)
(-1.52805e-05 -5.75051e-06 5.07504e-20 1.52804e-05 -4.98117e-21 2.91776e-11)
(-1.60771e-05 -3.62148e-06 -1.01332e-19 1.60766e-05 -4.44447e-20 4.17816e-10)
(-1.65466e-05 -1.37546e-06 -7.56368e-20 1.65469e-05 -3.78318e-20 -3.21139e-10)
(-1.66689e-05 9.39886e-07 -4.11108e-19 1.66686e-05 -1.02559e-19 2.95507e-10)
(5.38142e-06 -1.09057e-05 3.70257e-20 -5.3804e-06 1.18474e-20 -1.01861e-09)
(3.61327e-06 -1.18475e-05 8.65462e-20 -3.61245e-06 2.83589e-20 -8.21346e-10)
(1.65013e-06 -1.25112e-05 -1.32161e-19 -1.65361e-06 -4.12302e-20 3.48705e-09)
(-3.59738e-07 -1.28534e-05 1.91657e-19 3.61673e-07 6.34113e-20 -1.93487e-09)
(-2.47067e-06 -1.28708e-05 3.22425e-20 2.47128e-06 1.2797e-20 -6.08533e-10)
(-4.56158e-06 -1.25494e-05 2.46495e-19 4.56029e-06 8.36461e-20 1.28745e-09)
(-6.54558e-06 -1.19137e-05 1.89397e-19 6.54568e-06 5.78784e-20 -9.53581e-11)
(-8.40106e-06 -1.09828e-05 1.47981e-19 8.40128e-06 5.07717e-20 -2.19302e-10)
(-1.00711e-05 -9.79815e-06 2.25979e-19 1.00705e-05 6.16795e-20 5.61031e-10)
(-1.15274e-05 -8.39371e-06 -9.89312e-20 1.15272e-05 -3.30188e-20 2.42614e-10)
(-1.27557e-05 -6.7943e-06 -1.19912e-19 1.27557e-05 -5.10817e-20 9.25383e-12)
(-1.3733e-05 -5.03584e-06 -1.58629e-19 1.37326e-05 -4.62732e-20 3.53233e-10)
(-1.44417e-05 -3.14588e-06 1.93622e-19 1.44417e-05 5.08864e-20 5.02645e-11)
(-1.48657e-05 -1.15285e-06 7.18848e-20 1.48659e-05 1.5462e-20 -1.75673e-10)
(-1.49865e-05 9.04164e-07 1.49684e-19 1.49861e-05 6.97357e-20 3.87584e-10)
(4.66698e-06 -9.77999e-06 -7.04597e-20 -4.666e-06 -2.15353e-20 -9.80783e-10)
(3.07899e-06 -1.06019e-05 -7.22081e-21 -3.07821e-06 -2.33863e-21 -7.83818e-10)
(1.31947e-06 -1.11733e-05 2.1836e-19 -1.32267e-06 6.87474e-20 3.20614e-09)
(-4.7719e-07 -1.14579e-05 -4.45622e-21 4.79022e-07 -2.96755e-21 -1.83237e-09)
(-2.36026e-06 -1.14525e-05 -9.68967e-20 2.36091e-06 -2.93043e-20 -6.49929e-10)
(-4.22247e-06 -1.11456e-05 -3.01521e-20 4.22131e-06 -1.6117e-20 1.15724e-09)
(-5.98548e-06 -1.05616e-05 -2.41773e-19 5.98553e-06 -7.80144e-20 -5.43549e-11)
(-7.6312e-06 -9.71729e-06 6.43545e-20 7.63133e-06 2.16778e-20 -1.30756e-10)
(-9.11037e-06 -8.65078e-06 -2.86777e-19 9.10984e-06 -8.72433e-20 5.2603e-10)
(-1.03988e-05 -7.39233e-06 6.38177e-20 1.03985e-05 1.61197e-20 2.93019e-10)
(-1.14845e-05 -5.96493e-06 -1.20898e-19 1.14843e-05 -2.86124e-20 1.82964e-10)
(-1.23486e-05 -4.399e-06 -2.38905e-20 1.23485e-05 -3.65717e-22 9.6264e-11)
(-1.29778e-05 -2.71841e-06 -2.50561e-19 1.29777e-05 -8.69181e-20 1.65971e-10)
(-1.33573e-05 -9.47714e-07 -1.30732e-19 1.33574e-05 -2.64814e-20 -7.8128e-11)
(-1.34718e-05 8.80147e-07 1.5515e-19 1.34718e-05 2.49771e-20 -2.55324e-11)
(4.04677e-06 -8.77649e-06 1.38014e-20 -4.04561e-06 4.28063e-21 -1.16122e-09)
(2.61921e-06 -9.49329e-06 -8.84583e-20 -2.61869e-06 -2.67033e-20 -5.12093e-10)
(1.04068e-06 -9.98481e-06 -1.4e-19 -1.0435e-06 -4.36666e-20 2.82362e-09)
(-5.67135e-07 -1.02198e-05 -2.92461e-20 5.68775e-07 -7.27985e-21 -1.64027e-09)
(-2.24871e-06 -1.01954e-05 1.3433e-19 2.24903e-06 4.04566e-20 -3.20504e-10)
(-3.90816e-06 -9.90284e-06 -1.5551e-19 3.90722e-06 -4.5672e-20 9.48147e-10)
(-5.47582e-06 -9.36517e-06 -1.51889e-20 5.47573e-06 5.10246e-21 9.26772e-11)
(-6.93672e-06 -8.59751e-06 2.79887e-19 6.9368e-06 7.57371e-20 -8.23211e-11)
(-8.24675e-06 -7.63572e-06 2.03112e-19 8.24608e-06 6.2343e-20 6.70288e-10)
(-9.38648e-06 -6.50594e-06 -2.51269e-19 9.38634e-06 -7.45806e-20 1.42361e-10)
(-1.03459e-05 -5.22925e-06 9.78228e-20 1.03456e-05 4.15957e-20 3.51698e-10)
(-1.11094e-05 -3.83221e-06 6.04241e-20 1.11093e-05 1.79434e-20 1.32118e-10)
(-1.16659e-05 -2.3363e-06 -1.90418e-19 1.16657e-05 -2.95483e-20 1.92232e-10)
(-1.20034e-05 -7.60617e-07 1.96478e-19 1.20036e-05 5.38179e-20 -1.73035e-10)
(-1.21092e-05 8.65688e-07 -1.69202e-19 1.2109e-05 -5.57997e-20 2.50761e-10)
(-1.19705e-05 2.51523e-06 1.51289e-19 1.19708e-05 4.60467e-20 -3.7005e-10)
(3.50806e-06 -7.88036e-06 6.66572e-21 -3.50696e-06 1.98e-21 -1.10492e-09)
(2.22359e-06 -8.50541e-06 1.84741e-21 -2.22312e-06 8.91077e-22 -4.69988e-10)
(8.06297e-07 -8.92754e-06 -4.52398e-20 -8.08878e-07 -1.27245e-20 2.58027e-09)
(-6.33376e-07 -9.12011e-06 3.88981e-20 6.34974e-07 1.21113e-20 -1.59781e-09)
(-2.13624e-06 -9.0801e-06 -9.66522e-20 2.13659e-06 -2.68724e-20 -3.51795e-10)
(-3.61625e-06 -8.80148e-06 2.07445e-19 3.6154e-06 6.24928e-20 8.4667e-10)
(-5.01113e-06 -8.30562e-06 1.33801e-19 5.01119e-06 3.00805e-20 -5.51981e-11)
(-6.30847e-06 -7.60674e-06 -4.67477e-19 6.30865e-06 -1.41152e-19 -1.80821e-10)
(-7.46931e-06 -6.7375e-06 4.84512e-20 7.46875e-06 1.9084e-20 5.61278e-10)
(-8.4775e-06 -5.72161e-06 1.81814e-20 8.47744e-06 1.05966e-20 5.76633e-11)
(-9.32482e-06 -4.57764e-06 2.40606e-19 9.32475e-06 5.91075e-20 7.08939e-11)
(-9.99837e-06 -3.32992e-06 1.57548e-19 9.99825e-06 2.71708e-20 1.13834e-10)
(-1.04892e-05 -1.99546e-06 2.88937e-19 1.04891e-05 8.68328e-20 6.77222e-11)
(-1.07875e-05 -5.9267e-07 -8.78326e-20 1.07877e-05 -2.63992e-20 -1.92474e-10)
(-1.08823e-05 8.54958e-07 -9.94749e-20 1.08823e-05 -1.67542e-20 -1.62357e-11)
(-1.07633e-05 2.32387e-06 2.21944e-19 1.07637e-05 4.39029e-20 -3.64136e-10)
(3.03988e-06 -7.07907e-06 1.98106e-20 -3.0388e-06 5.50037e-21 -1.08194e-09)
(1.88326e-06 -7.62409e-06 1.20423e-19 -1.88283e-06 3.41665e-20 -4.34688e-10)
(6.09845e-07 -7.98584e-06 8.06159e-21 -6.12192e-07 3.05884e-21 2.34681e-09)
(-6.80441e-07 -8.14203e-06 1.12354e-19 6.81884e-07 3.29474e-20 -1.44288e-09)
(-2.02457e-06 -8.08964e-06 2.26263e-20 2.02492e-06 5.6854e-21 -3.48475e-10)
(-3.3452e-06 -7.82438e-06 -1.05291e-19 3.34437e-06 -3.43637e-20 8.23928e-10)
(-4.58712e-06 -7.36652e-06 -2.29014e-19 4.58721e-06 -6.64441e-20 -9.06288e-11)
(-5.73952e-06 -6.72938e-06 -2.2653e-20 5.73976e-06 8.1191e-21 -2.44944e-10)
(-6.76852e-06 -5.94238e-06 1.88745e-19 6.76805e-06 5.3485e-20 4.61533e-10)
(-7.66e-06 -5.02754e-06 -1.04949e-19 7.65996e-06 -2.9794e-20 3.27683e-11)
(-8.40789e-06 -4.001e-06 -1.72404e-19 8.40781e-06 -5.49919e-20 7.69445e-11)
(-9.00124e-06 -2.88457e-06 -3.81083e-19 9.00111e-06 -9.99388e-20 1.28566e-10)
(-9.43285e-06 -1.69356e-06 2.10706e-19 9.43277e-06 4.72448e-20 7.8408e-11)
(-9.69493e-06 -4.42964e-07 2.24824e-19 9.69503e-06 4.54186e-20 -1.03729e-10)
(-9.7783e-06 8.46804e-07 -5.9021e-20 9.77833e-06 -1.35043e-20 -2.74778e-11)
(-9.67401e-06 2.15538e-06 -3.93688e-20 9.67417e-06 -7.43487e-21 -1.54678e-10)
(3.48932e-06 -5.79457e-06 -3.19803e-21 -3.48983e-06 -1.12047e-21 5.09324e-10)
(2.63279e-06 -6.36191e-06 6.9827e-21 -2.63172e-06 1.98816e-21 -1.07511e-09)
(1.59063e-06 -6.83679e-06 -7.0995e-20 -1.5903e-06 -1.97682e-20 -3.39072e-10)
(4.45723e-07 -7.14621e-06 -5.27306e-20 -4.47851e-07 -1.39254e-20 2.12742e-09)
(-7.11294e-07 -7.27127e-06 1.35193e-19 7.12613e-07 3.59374e-20 -1.31952e-09)
(-1.91412e-06 -7.20909e-06 -2.08054e-19 1.91438e-06 -5.66984e-20 -2.53572e-10)
(-3.09336e-06 -6.95678e-06 6.31178e-21 3.09255e-06 4.43387e-21 8.06512e-10)
(-4.19966e-06 -6.53359e-06 -5.42219e-20 4.19964e-06 -7.03798e-21 1.91366e-11)
(-5.22365e-06 -5.9519e-06 1.41655e-19 5.22371e-06 3.73844e-20 -6.64899e-11)
(-6.13567e-06 -5.23845e-06 1.11983e-19 6.13511e-06 2.66147e-20 5.61633e-10)
(-6.92378e-06 -4.4135e-06 1.3002e-19 6.92367e-06 3.71459e-20 1.13474e-10)
(-7.58336e-06 -3.49123e-06 7.43321e-21 7.58326e-06 6.66808e-22 9.82315e-11)
(-8.10517e-06 -2.49151e-06 1.15443e-20 8.10507e-06 1.53399e-20 9.99594e-11)
(-8.48381e-06 -1.42708e-06 -3.71701e-20 8.48385e-06 -1.84773e-20 -4.30442e-11)
(-8.71277e-06 -3.11125e-07 -2.58047e-19 8.71291e-06 -6.43093e-20 -1.426e-10)
(-8.78434e-06 8.3846e-07 -1.04485e-20 8.78439e-06 9.40705e-21 -5.49425e-11)
(-8.69096e-06 2.0045e-06 2.50168e-19 8.69121e-06 4.85979e-20 -2.48805e-10)
(-8.42711e-06 3.16384e-06 2.61957e-20 8.42713e-06 -4.96774e-21 -1.17617e-11)
(3.05266e-06 -5.22055e-06 9.00408e-21 -3.05315e-06 2.39221e-21 4.88987e-10)
(2.27873e-06 -5.71931e-06 -4.69904e-20 -2.27774e-06 -1.2388e-20 -9.8604e-10)
(1.33921e-06 -6.13282e-06 -5.76969e-20 -1.3389e-06 -1.51669e-20 -3.03798e-10)
(3.09353e-07 -6.39684e-06 4.54925e-20 -3.11269e-07 1.25772e-20 1.91555e-09)
(-7.28736e-07 -6.49539e-06 -9.01147e-20 7.29935e-07 -2.3962e-20 -1.19874e-09)
(-1.80558e-06 -6.42566e-06 1.39544e-19 1.80583e-06 3.98389e-20 -2.54463e-10)
(-2.85883e-06 -6.18615e-06 8.31194e-20 2.85815e-06 2.3476e-20 6.79137e-10)
(-3.84457e-06 -5.79485e-06 2.43234e-19 3.84469e-06 6.39023e-20 -1.24641e-10)
(-4.75467e-06 -5.26326e-06 -2.07206e-19 4.7547e-06 -5.77699e-20 -2.90229e-11)
(-5.56317e-06 -4.61575e-06 -1.37226e-20 5.56279e-06 -4.45975e-21 3.79728e-10)
(-6.25988e-06 -3.87092e-06 1.00062e-19 6.25974e-06 1.60508e-20 1.47005e-10)
(-6.84127e-06 -3.04115e-06 -2.11838e-19 6.8412e-06 -4.9112e-20 6.94719e-11)
(-7.29976e-06 -2.14447e-06 2.88242e-20 7.29951e-06 9.09745e-21 2.52871e-10)
(-7.63091e-06 -1.19236e-06 9.65991e-21 7.63076e-06 6.34821e-21 1.52574e-10)
(-7.8295e-06 -1.96085e-07 1.59236e-19 7.82967e-06 4.26902e-20 -1.76094e-10)
(-7.88962e-06 8.28911e-07 1.36786e-19 7.88961e-06 1.73105e-20 6.20681e-12)
(-7.80444e-06 1.86866e-06 -2.41274e-19 7.80471e-06 -5.8396e-20 -2.66717e-10)
(-7.56965e-06 2.90228e-06 -1.34233e-19 7.56974e-06 -1.42803e-20 -9.37309e-11)
(2.67037e-06 -4.70459e-06 -2.28962e-21 -2.67088e-06 -1.12977e-21 5.17852e-10)
(1.9708e-06 -5.14299e-06 4.3803e-21 -1.96986e-06 1.12672e-21 -9.44421e-10)
(1.12335e-06 -5.50282e-06 2.04086e-20 -1.12306e-06 5.80387e-21 -2.93048e-10)
(1.96664e-07 -5.72746e-06 1.52847e-19 -1.98408e-07 4.00042e-20 1.74468e-09)
(-7.35241e-07 -5.80346e-06 4.1758e-20 7.36357e-07 1.05664e-20 -1.11659e-09)
(-1.6997e-06 -5.72818e-06 5.94664e-20 1.69992e-06 1.27969e-20 -2.18974e-10)
(-2.64089e-06 -5.50102e-06 -3.43533e-20 2.64027e-06 -1.02608e-20 6.25474e-10)
(-3.51941e-06 -5.13909e-06 4.02403e-20 3.51951e-06 1.36415e-20 -1.03649e-10)
(-4.32828e-06 -4.6529e-06 9.92327e-21 4.32839e-06 5.16272e-21 -1.09362e-10)
(-5.04505e-06 -4.06477e-06 -6.46897e-20 5.04472e-06 -1.99343e-20 3.3301e-10)
(-5.66067e-06 -3.39147e-06 -1.90313e-19 5.66058e-06 -4.74826e-20 8.83696e-11)
(-6.17255e-06 -2.64461e-06 1.84596e-19 6.17255e-06 5.38902e-20 -1.54221e-12)
(-6.57466e-06 -1.83994e-06 -2.38885e-20 6.57467e-06 -3.97272e-21 -8.16193e-12)
(-6.86364e-06 -9.87408e-07 9.80773e-20 6.86363e-06 1.54084e-20 1.4011e-11)
(-7.03517e-06 -9.67141e-08 -1.31189e-19 7.03527e-06 -3.5967e-20 -1.01389e-10)
(-7.08423e-06 8.17875e-07 -2.73674e-19 7.0842e-06 -7.01059e-20 3.21248e-11)
(-7.0053e-06 1.74495e-06 1.6479e-19 7.00554e-06 4.68587e-20 -2.42756e-10)
(-6.79484e-06 2.66653e-06 3.21639e-19 6.79478e-06 6.54439e-20 5.51127e-11)
(2.33554e-06 -4.24049e-06 -4.57869e-21 -2.33604e-06 -8.46244e-22 5.03036e-10)
(1.70292e-06 -4.62573e-06 4.40542e-20 -1.70205e-06 1.11053e-20 -8.64902e-10)
(9.38248e-07 -4.93857e-06 3.60494e-20 -9.37972e-07 9.14414e-21 -2.76248e-10)
(1.04046e-07 -5.12905e-06 -7.22176e-20 -1.0567e-07 -1.86023e-20 1.62378e-09)
(-7.32827e-07 -5.18601e-06 -8.96746e-20 7.33869e-07 -2.3981e-20 -1.04178e-09)
(-1.5969e-06 -5.10678e-06 -1.97585e-19 1.59704e-06 -4.88376e-20 -1.39206e-10)
(-2.43821e-06 -4.89166e-06 -6.0348e-20 2.43758e-06 -1.04386e-20 6.24809e-10)
(-3.2213e-06 -4.55676e-06 4.86707e-19 3.22133e-06 1.19855e-19 -2.82269e-11)
(-3.9404e-06 -4.11181e-06 4.79517e-20 3.94043e-06 4.03077e-21 -3.13425e-11)
(-4.57559e-06 -3.57717e-06 -6.67011e-20 4.57524e-06 -1.72227e-20 3.58349e-10)
(-5.11934e-06 -2.96808e-06 -3.82845e-20 5.11928e-06 -1.57387e-21 6.56671e-11)
(-5.56991e-06 -2.29492e-06 1.10984e-19 5.56981e-06 1.80357e-20 9.94456e-11)
(-5.92214e-06 -1.57201e-06 9.56014e-20 5.92196e-06 1.9984e-20 1.79841e-10)
(-6.17333e-06 -8.08345e-07 -1.81471e-19 6.17329e-06 -4.81114e-20 3.26517e-11)
(-6.32032e-06 -1.23203e-08 6.7227e-20 6.32053e-06 1.79027e-20 -2.10566e-10)
(-6.35917e-06 8.04278e-07 -1.89349e-19 6.3592e-06 -3.0733e-20 -2.21935e-11)
(-6.28515e-06 1.63109e-06 -5.23551e-20 6.28543e-06 -5.65723e-21 -2.7856e-10)
(-6.09525e-06 2.45261e-06 -1.71632e-19 6.09529e-06 -3.26162e-20 -3.99724e-11)
(-5.78662e-06 3.25397e-06 1.60363e-19 5.78686e-06 4.40051e-21 -2.47131e-10)
(2.04222e-06 -3.82277e-06 -1.2017e-20 -2.04268e-06 -2.94492e-21 4.62605e-10)
(1.46995e-06 -4.16115e-06 -2.64832e-20 -1.46916e-06 -6.45719e-21 -7.97673e-10)
(7.79792e-07 -4.43286e-06 4.97951e-20 -7.79516e-07 1.22437e-20 -2.75443e-10)
(2.86575e-08 -4.59377e-06 5.18092e-20 -3.01143e-08 1.32406e-20 1.45674e-09)
(-7.23091e-07 -4.63467e-06 9.20382e-20 7.24063e-07 2.28959e-20 -9.72251e-10)
(-1.49742e-06 -4.55294e-06 1.97095e-19 1.49757e-06 5.07888e-20 -1.51594e-10)
(-2.24941e-06 -4.34967e-06 3.82287e-20 2.24889e-06 3.00647e-21 5.13086e-10)
(-2.94768e-06 -4.03979e-06 -1.36563e-19 2.94785e-06 -4.00703e-20 -1.65401e-10)
(-3.58694e-06 -3.63243e-06 -1.96795e-19 3.58696e-06 -4.87303e-20 -2.64846e-11)
(-4.14987e-06 -3.14584e-06 -7.66227e-20 4.14959e-06 -8.88295e-21 2.80855e-10)
(-4.62998e-06 -2.59453e-06 7.91818e-20 4.62988e-06 1.57607e-20 9.67713e-11)
(-5.02596e-06 -1.98776e-06 -2.46807e-19 5.02593e-06 -5.88281e-20 2.9793e-11)
(-5.33397e-06 -1.33781e-06 -3.08522e-22 5.33388e-06 -1.66234e-21 9.16338e-11)
(-5.55191e-06 -6.52969e-07 -1.55725e-19 5.55183e-06 -2.6993e-20 7.94008e-11)
(-5.67718e-06 5.9331e-08 -4.11961e-20 5.67724e-06 -1.53548e-20 -6.87165e-11)
(-5.70664e-06 7.88417e-07 3.52231e-20 5.70658e-06 1.24143e-20 6.00018e-11)
(-5.63634e-06 1.52592e-06 2.85582e-19 5.63656e-06 6.60114e-20 -2.19271e-10)
(-5.46399e-06 2.25829e-06 3.32958e-19 5.46403e-06 6.36754e-20 -3.31892e-11)
(-5.18729e-06 2.97237e-06 -2.17326e-19 5.18747e-06 -4.04003e-20 -1.83756e-10)
(1.78519e-06 -3.44651e-06 2.31368e-21 -1.78567e-06 3.27435e-22 4.83192e-10)
(1.26733e-06 -3.74366e-06 1.88747e-20 -1.26659e-06 4.54361e-21 -7.34309e-10)
(6.44276e-07 -3.97937e-06 -9.68057e-20 -6.44027e-07 -2.28193e-20 -2.49862e-10)
(-3.22512e-08 -4.11469e-06 6.45688e-20 3.08878e-08 1.43872e-20 1.36335e-09)
(-7.07703e-07 -4.1421e-06 -1.58635e-19 7.08591e-07 -3.7447e-20 -8.87463e-10)
(-1.40179e-06 -4.05908e-06 1.44422e-19 1.4019e-06 3.04868e-20 -1.08892e-10)
(-2.07418e-06 -3.86718e-06 -5.26449e-19 2.07369e-06 -1.26017e-19 4.86587e-10)
(-2.69681e-06 -3.58049e-06 3.13698e-20 2.69691e-06 1.18051e-20 -1.07415e-10)
(-3.26499e-06 -3.20726e-06 -5.97492e-20 3.26492e-06 -8.5645e-21 7.39812e-11)
(-3.76356e-06 -2.76459e-06 3.92622e-19 3.7633e-06 8.70822e-20 2.61111e-10)
(-4.18725e-06 -2.26524e-06 -1.17938e-19 4.18722e-06 -3.11654e-20 2.82683e-11)
(-4.5352e-06 -1.71766e-06 2.66009e-20 4.53507e-06 1.23556e-20 1.26319e-10)
(-4.80399e-06 -1.13309e-06 -2.09076e-21 4.80396e-06 2.94406e-21 3.31004e-11)
(-4.99236e-06 -5.18949e-07 1.09825e-19 4.99232e-06 3.01954e-20 3.93327e-11)
(-5.09831e-06 1.18572e-07 -2.21322e-19 5.09846e-06 -4.89744e-20 -1.49448e-10)
(-5.11937e-06 7.69935e-07 -9.94679e-20 5.11931e-06 -1.40699e-20 6.07014e-11)
(-5.05214e-06 1.42789e-06 1.26199e-19 5.05234e-06 1.62808e-20 -1.99565e-10)
(-4.895e-06 2.0805e-06 -1.46891e-19 4.89504e-06 -4.29914e-20 -4.34015e-11)
(-4.64588e-06 2.7169e-06 2.21113e-19 4.64605e-06 4.25637e-20 -1.70778e-10)
(1.55994e-06 -3.1074e-06 -5.79728e-21 -1.56041e-06 -1.28809e-21 4.75852e-10)
(1.09129e-06 -3.36825e-06 -5.07402e-20 -1.09057e-06 -1.17037e-20 -7.16663e-10)
(5.28702e-07 -3.57246e-06 5.73901e-20 -5.28465e-07 1.34862e-20 -2.37202e-10)
(-8.07857e-08 -3.68566e-06 -1.09254e-19 7.95341e-08 -2.51115e-20 1.25162e-09)
(-6.87725e-07 -3.70188e-06 2.01782e-19 6.88571e-07 4.72018e-20 -8.46081e-10)
(-1.31003e-06 -3.61852e-06 -2.43455e-20 1.31011e-06 -7.82087e-21 -8.47219e-11)
(-1.91126e-06 -3.43768e-06 4.18613e-20 1.9108e-06 1.49602e-20 4.6487e-10)
(-2.46626e-06 -3.17255e-06 3.39959e-20 2.46635e-06 8.86183e-21 -9.32372e-11)
(-2.97123e-06 -2.83066e-06 -6.59633e-20 2.97128e-06 -1.66308e-20 -4.63456e-11)