/*--------------------------------*- C++ -*----------------------------------*\
| =========                 |                                                 |
| \\      /  F ield         | OpenFOAM: The Open Source CFD Toolbox           |
|  \\    /   O peration     | Version:  2306                                  |
|   \\  /    A nd           | Website:  www.openfoam.com                      |
|    \\/     M anipulation  |                                                 |
\*---------------------------------------------------------------------------*/
FoamFile
{
    version     2.0;
    format      ascii;
    arch        "LSB;label=32;scalar=64";
    class       volScalarField;
    location    "275";
    object      turbulenceProperties:epsilon;
}
// * * * * * * * * * * * * * * * * * * * * * * * * * * * * * * * * * * * * * //

dimensions      [0 2 -3 0 0 0 0];

internalField   nonuniform List<scalar> 
1340
(
0.000201576
0.000204641
0.000207028
0.000145578
0.000148202
0.000150435
0.000151875
0.000152471
0.000106556
0.000108748
0.000110718
0.000112209
0.000113184
0.000113562
0.00011316
7.88488e-05
8.06423e-05
8.23125e-05
8.36853e-05
8.47418e-05
8.54257e-05
8.55894e-05
8.51813e-05
5.89149e-05
6.03688e-05
6.17578e-05
6.29625e-05
6.39817e-05
6.47616e-05
6.51942e-05
6.52442e-05
6.48763e-05
4.43918e-05
4.55652e-05
4.67017e-05
4.77279e-05
4.86504e-05
4.94147e-05
4.99494e-05
5.02274e-05
5.02145e-05
3.3699e-05
3.46409e-05
3.55641e-05
3.64261e-05
3.72288e-05
3.79316e-05
3.84814e-05
3.88586e-05
3.90353e-05
3.89735e-05
2.57504e-05
2.65032e-05
2.72518e-05
2.79662e-05
2.86494e-05
2.92708e-05
2.97909e-05
3.01923e-05
3.04557e-05
3.05513e-05
3.04618e-05
1.97907e-05
2.03915e-05
2.09982e-05
2.1584e-05
2.2159e-05
2.26943e-05
2.31628e-05
2.35515e-05
2.38455e-05
2.40208e-05
2.40659e-05
1.52878e-05
1.57693e-05
1.62578e-05
1.6738e-05
1.72159e-05
1.76713e-05
1.80806e-05
1.84376e-05
1.87289e-05
1.89367e-05
1.90506e-05
1.90603e-05
1.18636e-05
1.2249e-05
1.26429e-05
1.30345e-05
1.343e-05
1.38116e-05
1.41637e-05
1.44804e-05
1.47519e-05
1.49647e-05
1.51113e-05
1.51829e-05
9.24432e-06
9.55272e-06
9.8702e-06
1.01888e-05
1.05142e-05
1.08317e-05
1.11304e-05
1.14056e-05
1.16496e-05
1.18526e-05
1.20086e-05
1.21107e-05
1.21506e-05
7.22938e-06
7.47684e-06
7.73222e-06
7.99148e-06
8.25812e-06
8.52093e-06
8.7719e-06
9.00736e-06
9.2215e-06
9.40659e-06
9.55865e-06
9.67229e-06
9.74065e-06
5.67222e-06
5.8706e-06
6.07633e-06
6.28702e-06
6.50484e-06
6.7217e-06
6.93079e-06
7.13024e-06
7.3149e-06
7.47949e-06
7.62067e-06
7.73459e-06
7.81574e-06
7.86066e-06
4.4635e-06
4.62261e-06
4.78863e-06
4.95932e-06
5.13713e-06
5.31529e-06
5.48886e-06
5.65606e-06
5.81353e-06
5.95674e-06
6.08379e-06
6.1911e-06
6.27525e-06
6.33314e-06
3.52157e-06
3.64924e-06
3.78334e-06
3.92159e-06
4.06652e-06
4.21252e-06
4.35587e-06
4.49544e-06
4.6283e-06
4.75138e-06
4.86308e-06
4.96081e-06
5.04205e-06
5.10412e-06
2.78501e-06
2.88757e-06
2.99573e-06
3.10777e-06
3.22568e-06
3.34513e-06
3.46305e-06
3.57902e-06
3.69036e-06
3.79504e-06
3.89166e-06
3.97859e-06
4.05353e-06
4.11483e-06
4.16028e-06
2.20715e-06
2.28965e-06
2.37687e-06
2.46762e-06
2.5635e-06
2.66095e-06
2.75786e-06
2.85373e-06
2.94662e-06
3.03483e-06
3.1175e-06
3.19334e-06
3.26067e-06
3.31833e-06
3.36442e-06
1.7525e-06
1.81896e-06
1.88926e-06
1.96276e-06
2.04069e-06
2.12007e-06
2.19957e-06
2.27851e-06
2.35567e-06
2.42954e-06
2.49963e-06
2.56481e-06
2.62413e-06
2.67648e-06
2.72048e-06
1.39392e-06
1.44739e-06
1.50412e-06
1.5636e-06
1.62685e-06
1.69153e-06
1.75654e-06
1.82141e-06
1.88519e-06
1.94676e-06
2.0057e-06
2.0613e-06
2.11274e-06
2.15923e-06
2.1998e-06
2.2333e-06
1.11041e-06
1.15343e-06
1.19923e-06
1.24738e-06
1.29864e-06
1.3513e-06
1.40438e-06
1.45761e-06
1.51016e-06
1.56128e-06
1.61058e-06
1.65758e-06
1.70162e-06
1.74223e-06
1.77855e-06
1.80986e-06
8.85767e-07
9.20417e-07
9.57356e-07
9.96313e-07
1.03789e-06
1.08069e-06
1.12397e-06
1.16757e-06
1.21077e-06
1.25303e-06
1.29406e-06
1.33351e-06
1.37089e-06
1.40587e-06
1.43788e-06
1.46627e-06
6.82846e-07
7.07447e-07
7.35335e-07
7.65142e-07
7.96645e-07
8.3034e-07
8.65096e-07
9.00354e-07
9.35994e-07
9.71415e-07
1.00624e-06
1.04026e-06
1.07318e-06
1.10471e-06
1.13454e-06
1.16228e-06
1.18744e-06
1.20944e-06
5.45841e-07
5.65637e-07
5.88079e-07
6.12135e-07
6.37605e-07
6.64891e-07
6.93105e-07
7.218e-07
7.50875e-07
7.79885e-07
8.08511e-07
8.36607e-07
8.63967e-07
8.90363e-07
9.15588e-07
9.39364e-07
9.61315e-07
9.8103e-07
4.36759e-07
4.52684e-07
4.70745e-07
4.90157e-07
5.10739e-07
5.32832e-07
5.55711e-07
5.79048e-07
6.02743e-07
6.26471e-07
6.49934e-07
6.7307e-07
6.95725e-07
7.17716e-07
7.38907e-07
7.59084e-07
7.77984e-07
7.95291e-07
3.49783e-07
3.62591e-07
3.77124e-07
3.92779e-07
4.09415e-07
4.27286e-07
4.45831e-07
4.64782e-07
4.84086e-07
5.03446e-07
5.22651e-07
5.41661e-07
5.60351e-07
5.78587e-07
5.96276e-07
6.13272e-07
6.29386e-07
6.44353e-07
6.57898e-07
2.80347e-07
2.9064e-07
3.02332e-07
3.14955e-07
3.28394e-07
3.42846e-07
3.57873e-07
3.73265e-07
3.88965e-07
4.0473e-07
4.20425e-07
4.36006e-07
4.51372e-07
4.66439e-07
4.81141e-07
4.95367e-07
5.08971e-07
5.21772e-07
5.33548e-07
2.24844e-07
2.33113e-07
2.42518e-07
2.52691e-07
2.63542e-07
2.75229e-07
2.87397e-07
2.9989e-07
3.12633e-07
3.25471e-07
3.3828e-07
3.51025e-07
3.63631e-07
3.76034e-07
3.88201e-07
4.00039e-07
4.11441e-07
4.22277e-07
4.32385e-07
1.80429e-07
1.87072e-07
1.94635e-07
2.02826e-07
2.11589e-07
2.21033e-07
2.30883e-07
2.41006e-07
2.51357e-07
2.61801e-07
2.72241e-07
2.82639e-07
2.92956e-07
3.03141e-07
3.13174e-07
3.22978e-07
3.32481e-07
3.41583e-07
3.50158e-07
1.44855e-07
1.5019e-07
1.56267e-07
1.62863e-07
1.69935e-07
1.77566e-07
1.85536e-07
1.93738e-07
2.02142e-07
2.10624e-07
2.19115e-07
2.27596e-07
2.36025e-07
2.44369e-07
2.52607e-07
2.60691e-07
2.68572e-07
2.76167e-07
2.83375e-07
1.16342e-07
1.20621e-07
1.25499e-07
1.30813e-07
1.36516e-07
1.42681e-07
1.49126e-07
1.55773e-07
1.62585e-07
1.69473e-07
1.76379e-07
1.83285e-07
1.90159e-07
1.96977e-07
2.03725e-07
2.1037e-07
2.16872e-07
2.23167e-07
2.2918e-07
2.34817e-07
9.34683e-08
9.6898e-08
1.00813e-07
1.0509e-07
1.09689e-07
1.14668e-07
1.19879e-07
1.25263e-07
1.30788e-07
1.36378e-07
1.41988e-07
1.47603e-07
1.53199e-07
1.58761e-07
1.64276e-07
1.69719e-07
1.75061e-07
1.80252e-07
1.85239e-07
1.89943e-07
7.51064e-08
7.78535e-08
8.09928e-08
8.44355e-08
8.81429e-08
9.21617e-08
9.63783e-08
1.00736e-07
1.05214e-07
1.09748e-07
1.14303e-07
1.18865e-07
1.23418e-07
1.27947e-07
1.32444e-07
1.3689e-07
1.41262e-07
1.45527e-07
1.49638e-07
1.53533e-07
6.03587e-08
6.25565e-08
6.5073e-08
6.7842e-08
7.08317e-08
7.40759e-08
7.74851e-08
8.10145e-08
8.46425e-08
8.83207e-08
9.20182e-08
9.57237e-08
9.94214e-08
1.03105e-07
1.06766e-07
1.10388e-07
1.13957e-07
1.17445e-07
1.20815e-07
1.24022e-07
4.85084e-08
5.02641e-08
5.22811e-08
5.45069e-08
5.69173e-08
5.95365e-08
6.22938e-08
6.5152e-08
6.80933e-08
7.10764e-08
7.40763e-08
7.70834e-08
8.00868e-08
8.30775e-08
8.60527e-08
8.89991e-08
9.19045e-08
9.47471e-08
9.75002e-08
1.00124e-07
3.89821e-08
4.03833e-08
4.19985e-08
4.37876e-08
4.57303e-08
4.78454e-08
5.00765e-08
5.23919e-08
5.47769e-08
5.7196e-08
5.96305e-08
6.20718e-08
6.45094e-08
6.69366e-08
6.93512e-08
7.1743e-08
7.41026e-08
7.6413e-08
7.86522e-08
8.07894e-08
8.2786e-08
3.13213e-08
3.24385e-08
3.37308e-08
3.51692e-08
3.67348e-08
3.84437e-08
4.02493e-08
4.21263e-08
4.40613e-08
4.60249e-08
4.80006e-08
4.99821e-08
5.19592e-08
5.39285e-08
5.58867e-08
5.78262e-08
5.97386e-08
6.16109e-08
6.34257e-08
6.51587e-08
6.67792e-08
2.51594e-08
2.60492e-08
2.70827e-08
2.82386e-08
2.9501e-08
3.08821e-08
3.23445e-08
3.38677e-08
3.54385e-08
3.70326e-08
3.86371e-08
4.02455e-08
4.185e-08
4.34472e-08
4.50342e-08
4.66051e-08
4.81531e-08
4.96685e-08
5.11357e-08
5.2536e-08
5.38448e-08
2.02024e-08
2.09102e-08
2.17363e-08
2.26649e-08
2.36832e-08
2.48002e-08
2.5986e-08
2.72227e-08
2.84989e-08
2.97951e-08
3.1099e-08
3.24059e-08
3.37084e-08
3.50039e-08
3.62895e-08
3.75611e-08
3.88127e-08
4.00359e-08
4.12194e-08
4.23475e-08
4.34002e-08
1.62144e-08
1.67767e-08
1.74364e-08
1.81826e-08
1.90046e-08
1.99088e-08
2.08714e-08
2.18767e-08
2.29153e-08
2.39702e-08
2.50312e-08
2.60936e-08
2.71517e-08
2.82024e-08
2.92442e-08
3.02731e-08
3.12841e-08
3.22704e-08
3.32233e-08
3.41299e-08
3.49735e-08
1.30059e-08
1.3452e-08
1.39786e-08
1.45785e-08
1.52422e-08
1.59752e-08
1.67576e-08
1.75765e-08
1.8423e-08
1.92826e-08
2.01468e-08
2.10114e-08
2.18717e-08
2.2725e-08
2.35696e-08
2.44019e-08
2.52183e-08
2.60132e-08
2.67792e-08
2.7506e-08
2.81807e-08
2.87902e-08
1.04249e-08
1.07782e-08
1.11985e-08
1.16807e-08
1.22172e-08
1.28122e-08
1.34495e-08
1.41176e-08
1.48087e-08
1.55103e-08
1.62156e-08
1.69203e-08
1.76206e-08
1.83141e-08
1.89992e-08
1.96729e-08
2.03324e-08
2.09727e-08
2.15876e-08
2.21694e-08
2.27076e-08
2.31914e-08
8.34896e-09
8.62841e-09
8.96355e-09
9.35147e-09
9.7858e-09
1.02697e-08
1.07897e-08
1.13358e-08
1.19012e-08
1.24752e-08
1.30518e-08
1.36274e-08
1.41983e-08
1.47626e-08
1.53187e-08
1.58646e-08
1.63974e-08
1.6913e-08
1.74064e-08
1.78717e-08
1.83e-08
1.8683e-08
6.67972e-09
6.90041e-09
7.16751e-09
7.47983e-09
7.83205e-09
8.22631e-09
8.65168e-09
9.09918e-09
9.56276e-09
1.00335e-08
1.05058e-08
1.09767e-08
1.14431e-08
1.19031e-08
1.23553e-08
1.27978e-08
1.32284e-08
1.36438e-08
1.40399e-08
1.44116e-08
1.4752e-08
1.50547e-08
5.33805e-09
5.51197e-09
5.72483e-09
5.97658e-09
6.26266e-09
6.58468e-09
6.93354e-09
7.30115e-09
7.68228e-09
8.06916e-09
8.45708e-09
8.84335e-09
9.22504e-09
9.60064e-09
9.96896e-09
1.03283e-08
1.06767e-08
1.10117e-08
1.13298e-08
1.16265e-08
1.18969e-08
1.21356e-08
4.26018e-09
4.39696e-09
4.56657e-09
4.76974e-09
5.00262e-09
5.26644e-09
5.55324e-09
5.85612e-09
6.17034e-09
6.48928e-09
6.80874e-09
7.12627e-09
7.43938e-09
7.74676e-09
8.0474e-09
8.33974e-09
8.62211e-09
8.89245e-09
9.1479e-09
9.38498e-09
9.59968e-09
9.78777e-09
3.39476e-09
3.50211e-09
3.63723e-09
3.80149e-09
3.99162e-09
4.20831e-09
4.44482e-09
4.6951e-09
4.95496e-09
5.21862e-09
5.48241e-09
5.74415e-09
6.00172e-09
6.25394e-09
6.4998e-09
6.73807e-09
6.96736e-09
7.18594e-09
7.39139e-09
7.58107e-09
7.75154e-09
7.89957e-09
2.70044e-09
2.78451e-09
2.89214e-09
3.02524e-09
3.18093e-09
3.35941e-09
3.55508e-09
3.76255e-09
3.97809e-09
4.19669e-09
4.41517e-09
4.63162e-09
4.84414e-09
5.05157e-09
5.25318e-09
5.44794e-09
5.63471e-09
5.81182e-09
5.97747e-09
6.12941e-09
6.26489e-09
6.38142e-09
6.47643e-09
2.14389e-09
2.20955e-09
2.29531e-09
2.40348e-09
2.53131e-09
2.67878e-09
2.84122e-09
3.01373e-09
3.19309e-09
3.3749e-09
3.55645e-09
3.73603e-09
3.91187e-09
4.08302e-09
4.24891e-09
4.40864e-09
4.56118e-09
4.70521e-09
4.83912e-09
4.96107e-09
5.06894e-09
5.16075e-09
5.23463e-09
1.69825e-09
1.74936e-09
1.81776e-09
1.90596e-09
2.01122e-09
2.13348e-09
2.26877e-09
2.41262e-09
2.56237e-09
2.71409e-09
2.86546e-09
3.01498e-09
3.16093e-09
3.30262e-09
3.43957e-09
3.57108e-09
3.69613e-09
3.81357e-09
3.92207e-09
4.02013e-09
4.10606e-09
4.17841e-09
4.23579e-09
1.34186e-09
1.38151e-09
1.43614e-09
1.5083e-09
1.59521e-09
1.69694e-09
1.80996e-09
1.93025e-09
2.05569e-09
2.18265e-09
2.30932e-09
2.4343e-09
2.5559e-09
2.67353e-09
2.78701e-09
2.89561e-09
2.9983e-09
3.09407e-09
3.18191e-09
3.26063e-09
3.32897e-09
3.38585e-09
3.43029e-09
1.05724e-09
1.0879e-09
1.1316e-09
1.19087e-09
1.26283e-09
1.34779e-09
1.44244e-09
1.54327e-09
1.64871e-09
1.75517e-09
1.8616e-09
1.96656e-09
2.06817e-09
2.16605e-09
2.26017e-09
2.34977e-09
2.43385e-09
2.51162e-09
2.58236e-09
2.64526e-09
2.69934e-09
2.74383e-09
2.77812e-09
8.30324e-10
8.53947e-10
8.88997e-10
9.37843e-10
9.97588e-10
1.06883e-09
1.1482e-09
1.23297e-09
1.32188e-09
1.41124e-09
1.50122e-09
1.58982e-09
1.67461e-09
1.75576e-09
1.83353e-09
1.90708e-09
1.9755e-09
2.03829e-09
2.09505e-09
2.14514e-09
2.18781e-09
2.22249e-09
2.24883e-09
6.49788e-10
6.67956e-10
6.96135e-10
7.36516e-10
7.86216e-10
8.46172e-10
9.12681e-10
9.84241e-10
1.05932e-09
1.1343e-09
1.21132e-09
1.2864e-09
1.35638e-09
1.42283e-09
1.48671e-09
1.54689e-09
1.60247e-09
1.65323e-09
1.69893e-09
1.73904e-09
1.77289e-09
1.80003e-09
1.82024e-09
5.0655e-10
5.2051e-10
5.43223e-10
5.76675e-10
6.18085e-10
6.68682e-10
7.24152e-10
7.84944e-10
8.4815e-10
9.10802e-10
9.7774e-10
1.04132e-09
1.09801e-09
1.1519e-09
1.20456e-09
1.25428e-09
1.29993e-09
1.34151e-09
1.37885e-09
1.41135e-09
1.43845e-09
1.45976e-09
1.4752e-09
3.93219e-10
4.03929e-10
4.22313e-10
4.50075e-10
4.84717e-10
5.27465e-10
5.73385e-10
6.25649e-10
6.77888e-10
7.29978e-10
7.89139e-10
8.42225e-10
8.87303e-10
9.31615e-10
9.76209e-10
1.01816e-09
1.05634e-09
1.09103e-09
1.12203e-09
1.14869e-09
1.17054e-09
1.18733e-09
1.19909e-09
1.20618e-09
3.03921e-10
3.12095e-10
3.2707e-10
3.50212e-10
3.793e-10
4.15389e-10
4.53281e-10
4.98971e-10
5.39445e-10
5.84429e-10
6.39314e-10
6.81387e-10
7.15145e-10
7.5289e-10
7.92339e-10
8.28342e-10
8.60447e-10
8.89564e-10
9.15471e-10
9.37457e-10
9.55095e-10
9.68318e-10
9.77292e-10
9.82315e-10
2.34865e-10
2.41058e-10
2.533e-10
2.72519e-10
2.96822e-10
3.26868e-10
3.57967e-10
3.97777e-10
4.25213e-10
4.67395e-10
5.21319e-10
5.52364e-10
5.74398e-10
6.08062e-10
6.45013e-10
6.76626e-10
7.03755e-10
7.28381e-10
7.50221e-10
7.68421e-10
7.82675e-10
7.93089e-10
7.9993e-10
8.03717e-10
1.85859e-10
1.90539e-10
2.00431e-10
2.15872e-10
2.35534e-10
2.59095e-10
2.83406e-10
3.15131e-10
3.30087e-10
3.69192e-10
4.19999e-10
4.42719e-10
4.58777e-10
4.92137e-10
5.29309e-10
5.59529e-10
5.84632e-10
6.07393e-10
6.27568e-10
6.44232e-10
6.5715e-10
6.66382e-10
6.72315e-10
6.75455e-10
1.51153e-10
1.54687e-10
1.62432e-10
1.74384e-10
1.896e-10
2.06754e-10
2.24731e-10
2.46578e-10
2.54201e-10
2.83789e-10
3.27475e-10
3.46398e-10
3.63618e-10
3.97266e-10
4.34228e-10
4.64589e-10
4.89827e-10
5.12551e-10
5.32699e-10
5.49352e-10
5.62204e-10
5.71306e-10
5.77102e-10
5.79871e-10
1.22507e-10
1.25177e-10
1.31147e-10
1.40293e-10
1.51814e-10
1.63925e-10
1.76997e-10
1.90781e-10
1.94571e-10
2.13721e-10
2.48831e-10
2.65761e-10
2.85673e-10
3.17744e-10
3.5249e-10
3.82266e-10
4.07483e-10
4.29961e-10
4.4979e-10
4.66171e-10
4.78711e-10
4.87519e-10
4.93065e-10
4.95797e-10
9.74332e-11
9.94401e-11
1.03978e-10
1.10872e-10
1.19387e-10
1.277e-10
1.37082e-10
1.4498e-10
1.46699e-10
1.58526e-10
1.86321e-10
2.00881e-10
2.22462e-10
2.52309e-10
2.83901e-10
3.12039e-10
3.36467e-10
3.581e-10
3.7704e-10
3.92722e-10
4.04717e-10
4.13096e-10
4.18197e-10
4.20379e-10
7.62634e-11
7.77631e-11
8.11487e-11
8.62411e-11
9.23045e-11
9.78136e-11
1.04274e-10
1.0801e-10
1.08565e-10
1.15253e-10
1.36962e-10
1.48934e-10
1.71031e-10
1.9852e-10
2.26677e-10
2.52488e-10
2.75548e-10
2.95968e-10
3.13706e-10
3.28354e-10
3.39568e-10
3.47446e-10
3.52375e-10
3.5484e-10
5.86837e-11
5.97908e-11
6.22335e-11
6.58606e-11
6.99331e-11
7.34285e-11
7.75214e-11
7.85478e-11
7.84587e-11
8.16616e-11
9.83429e-11
1.07985e-10
1.29425e-10
1.54389e-10
1.79208e-10
2.02447e-10
2.23809e-10
2.42867e-10
2.59341e-10
2.72823e-10
2.829e-10
2.89459e-10
2.92647e-10
2.93004e-10
4.44607e-11
4.52511e-11
4.68851e-11
4.92564e-11
5.16966e-11
5.37383e-11
5.58926e-11
5.54684e-11
5.49908e-11
5.59948e-11
6.84198e-11
7.62002e-11
9.60334e-11
1.18402e-10
1.40208e-10
1.60927e-10
1.80428e-10
1.98008e-10
2.13267e-10
2.25955e-10
2.35913e-10
2.43242e-10
2.48374e-10
2.51788e-10
3.32353e-11
3.37721e-11
3.47211e-11
3.59921e-11
3.70849e-11
3.79729e-11
3.85156e-11
3.76407e-11
3.6796e-11
3.6761e-11
4.57219e-11
5.21356e-11
6.96693e-11
8.9438e-11
1.08597e-10
1.27062e-10
1.44826e-10
1.60839e-10
1.7422e-10
1.84494e-10
1.91339e-10
1.94529e-10
1.94156e-10
1.91159e-10
1.87113e-10
2.45161e-11
2.4869e-11
2.52821e-11
2.56553e-11
2.56939e-11
2.55904e-11
2.48541e-11
2.40911e-11
2.26406e-11
2.27868e-11
2.92008e-11
3.45219e-11
4.94594e-11
6.67427e-11
8.34481e-11
9.9803e-11
1.16331e-10
1.32222e-10
1.46582e-10
1.59019e-10
1.69584e-10
1.7883e-10
1.8764e-10
1.95979e-10
2.02157e-10
1.79066e-11
1.80901e-11
1.80166e-11
1.76434e-11
1.69269e-11
1.61025e-11
1.47483e-11
1.43578e-11
1.23071e-11
1.39145e-11
1.81189e-11
2.21226e-11
3.4505e-11
4.96796e-11
6.42814e-11
7.82261e-11
9.19284e-11
1.04627e-10
1.15455e-10
1.23821e-10
1.29051e-10
1.30636e-10
1.28963e-10
1.26329e-10
1.25638e-10
1.33994e-11
1.3325e-11
1.26024e-11
1.14017e-11
1.0039e-11
8.82053e-12
7.68788e-12
7.87853e-12
6.18075e-12
9.99512e-12
1.16943e-11
1.39368e-11
2.34702e-11
3.64529e-11
5.0518e-11
6.63227e-11
8.42944e-11
1.03596e-10
1.23497e-10
1.44169e-10
1.66712e-10
1.92994e-10
2.23863e-10
2.54973e-10
2.7854e-10
1.10369e-11
1.06564e-11
9.21577e-12
7.13823e-12
5.08958e-12
3.53907e-12
2.82306e-12
3.42254e-12
3.22786e-12
8.23295e-12
8.57603e-12
1.01126e-11
1.67006e-11
2.60331e-11
3.74819e-11
5.31358e-11
7.41667e-11
1.00221e-10
1.30541e-10
1.64159e-10
1.9947e-10
2.34547e-10
2.67963e-10
2.97616e-10
3.23181e-10
1.00219e-11
9.46585e-12
7.6362e-12
5.09252e-12
2.64857e-12
9.11642e-13
3.84901e-13
1.09109e-12
2.34835e-12
5.61435e-12
4.04263e-12
1.00459e-11
2.53806e-11
5.0015e-11
8.4561e-11
1.30046e-10
1.87564e-10
2.57456e-10
3.38568e-10
4.28254e-10
5.20891e-10
6.07447e-10
6.75507e-10
7.17019e-10
7.45812e-10
)
;

boundaryField
{
    inlet
    {
        type            calculated;
        value           nonuniform List<scalar> 
25
(
9.16005e-12
8.61856e-12
6.90823e-12
4.52967e-12
2.22593e-12
6.16065e-13
2.53482e-13
1.27209e-12
3.36632e-12
2.95427e-12
1.41748e-11
5.11638e-11
1.49672e-10
3.38037e-10
6.45231e-10
1.10179e-09
1.74069e-09
2.59184e-09
3.67793e-09
5.00787e-09
6.56714e-09
8.29815e-09
1.00981e-08
1.18201e-08
1.3379e-08
)
;
    }
    outlet
    {
        type            calculated;
        value           nonuniform List<scalar> 0();
    }
    walls
    {
        type            calculated;
        value           nonuniform List<scalar> 0();
    }
    frontAndBack
    {
        type            empty;
    }
    procBoundary4to0
    {
        type            processor;
        value           nonuniform List<scalar> 
72
(
0.000197932
0.00014268
0.000104247
7.70207e-05
5.74727e-05
4.32571e-05
3.28031e-05
2.50406e-05
1.92283e-05
1.48427e-05
1.15105e-05
8.96325e-06
7.00552e-06
5.49354e-06
4.32079e-06
3.40748e-06
2.69356e-06
2.1338e-06
1.69368e-06
1.34665e-06
1.07239e-06
8.55196e-07
8.55196e-07
6.59528e-07
5.27151e-07
4.21775e-07
3.3777e-07
2.70711e-07
2.17122e-07
1.74247e-07
1.39908e-07
1.12385e-07
9.0306e-08
7.25833e-08
5.83482e-08
4.69081e-08
3.77103e-08
3.03126e-08
2.43611e-08
1.95721e-08
1.57178e-08
1.26156e-08
1.0119e-08
8.11004e-09
6.49376e-09
5.19386e-09
4.14887e-09
3.30925e-09
2.63511e-09
2.0943e-09
1.66088e-09
1.31393e-09
1.03657e-09
8.1519e-10
6.38891e-10
4.98866e-10
3.87925e-10
3.00356e-10
2.3245e-10
1.84057e-10
1.4972e-10
1.21397e-10
9.65951e-11
7.56394e-11
5.82074e-11
4.4069e-11
3.28783e-11
2.41604e-11
1.75121e-11
1.29216e-11
1.04726e-11
9.43185e-12
)
;
    }
    procBoundary4to5
    {
        type            processor;
        value           nonuniform List<scalar> 
95
(
0.000282908
0.00028614
0.000288168
0.000208143
0.000208143
0.000207854
0.000152117
0.000152117
0.00015059
0.000111918
0.000111918
8.41747e-05
8.41747e-05
6.40315e-05
4.98652e-05
4.98652e-05
3.86535e-05
3.86535e-05
3.01745e-05
2.3965e-05
2.3965e-05
1.89517e-05
1.51689e-05
1.51689e-05
1.2122e-05
9.75957e-06
9.75957e-06
7.86447e-06
6.36069e-06
5.1443e-06
5.1443e-06
4.18732e-06
3.397e-06
2.75481e-06
2.75481e-06
2.25851e-06
1.83517e-06
1.49028e-06
1.49028e-06
1.22772e-06
9.98028e-07
8.10611e-07
8.10611e-07
6.69664e-07
5.44019e-07
4.41534e-07
3.58033e-07
2.90073e-07
2.90073e-07
2.39961e-07
1.94273e-07
1.57141e-07
1.27004e-07
1.02572e-07
1.02572e-07
8.46043e-08
6.82562e-08
5.50374e-08
4.43577e-08
3.5739e-08
3.5739e-08
2.93162e-08
2.36067e-08
1.901e-08
1.53113e-08
1.23364e-08
9.94445e-09
8.02165e-09
8.02165e-09
6.54842e-09
5.28969e-09
4.27769e-09
3.46211e-09
2.80222e-09
2.2669e-09
1.8337e-09
1.48508e-09
1.48508e-09
1.20932e-09
9.84018e-10
8.04865e-10
6.76167e-10
5.80138e-10
4.96295e-10
4.20314e-10
3.55463e-10
2.9139e-10
2.53581e-10
2.53581e-10
1.83129e-10
2.05452e-10
1.27237e-10
2.92845e-10
3.49144e-10
7.48722e-10
)
;
    }
}


// ************************************************************************* //
