/*--------------------------------*- C++ -*----------------------------------*\
| =========                 |                                                 |
| \\      /  F ield         | OpenFOAM: The Open Source CFD Toolbox           |
|  \\    /   O peration     | Version:  2306                                  |
|   \\  /    A nd           | Website:  www.openfoam.com                      |
|    \\/     M anipulation  |                                                 |
\*---------------------------------------------------------------------------*/
FoamFile
{
    version     2.0;
    format      ascii;
    arch        "LSB;label=32;scalar=64";
    class       volVectorField;
    location    "25";
    object      momentError;
}
// * * * * * * * * * * * * * * * * * * * * * * * * * * * * * * * * * * * * * //

dimensions      [0 1 -2 0 0 0 0];

internalField   nonuniform List<vector> 
1340
(
(-4.56454 -1.4951 -8.83922e-14)
(-5.40092 1.5477 -7.77945e-14)
(-5.87104 3.1595 6.13284e-14)
(-5.4032 1.87394 -3.33272e-14)
(-3.69917 0.763452 -7.55716e-14)
(-2.00426 0.450596 -7.43854e-14)
(-1.28472 0.919733 5.0349e-15)
(-1.90167 1.75879 4.65519e-14)
(-3.49588 2.45318 1.10922e-14)
(-5.32384 2.6301 -1.37541e-14)
(-6.60335 2.14603 -9.30151e-16)
(-6.8205 1.10042 -3.58882e-15)
(-5.85523 -0.211043 -2.20299e-16)
(-3.99733 -1.49917 -9.69793e-15)
(-1.69859 -2.45258 -1.51736e-14)
(0.504529 -2.95726 3.66391e-14)
(2.52306 -2.98157 3.39069e-14)
(4.27614 -2.63108 -3.39381e-14)
(5.56359 -1.89391 -4.77795e-14)
(6.24717 -0.829814 -3.17987e-14)
(6.23249 0.0840608 8.40098e-15)
(5.76996 0.838672 2.04734e-15)
(4.81102 1.50762 5.95754e-15)
(3.56698 2.01878 -6.25554e-15)
(2.58362 2.407 -2.21874e-14)
(1.49283 2.58873 7.48402e-15)
(0.679827 2.59017 -8.6829e-14)
(-0.0289212 2.44282 -1.10643e-13)
(-5.27326 -4.25314 3.67026e-14)
(-4.49565 -2.45193 1.67224e-13)
(-5.76102 -0.498233 7.30566e-15)
(-7.4902 -0.364852 -5.64647e-14)
(-7.50946 -0.967186 6.68052e-14)
(-5.94277 -1.27365 -7.06208e-15)
(-3.92424 -0.694527 9.16581e-15)
(-2.52997 0.621173 -9.32922e-15)
(-2.31881 2.04961 -1.04949e-14)
(-3.18617 2.84311 -1.90954e-15)
(-4.56708 2.53152 7.98574e-15)
(-5.74919 1.01224 -1.18468e-14)
(-6.1478 -1.38168 2.9432e-15)
(-5.53216 -4.07246 2.95676e-17)
(-4.00873 -6.42197 -2.39418e-15)
(-1.98184 -7.95212 -1.19552e-14)
(0.134679 -8.38578 -4.0486e-14)
(2.17406 -7.80045 -1.81052e-14)
(4.05392 -6.20147 2.04191e-14)
(5.41868 -4.01907 1.49696e-15)
(6.10043 -1.45876 2.90974e-14)
(6.12391 1.30811 1.33902e-14)
(5.51996 3.9794 -3.59506e-15)
(4.31675 5.95372 -1.85517e-15)
(3.18788 6.95791 1.17435e-14)
(2.22548 7.25509 1.17634e-14)
(1.50211 6.88866 1.71192e-14)
(0.838787 6.10348 5.77585e-14)
(0.575962 5.08527 3.48277e-14)
(-5.18766 -3.88667 3.11523e-14)
(-4.52109 -2.62569 -1.04659e-13)
(-5.0381 -1.24686 -9.02428e-14)
(-6.07962 -0.911545 -4.89127e-14)
(-6.44866 -1.17714 8.00909e-14)
(-5.82699 -1.35548 1.88939e-14)
(-4.63104 -0.982292 -1.80521e-14)
(-3.60101 -0.15352 -4.43402e-14)
(-3.29829 0.601412 -2.57542e-14)
(-3.80426 0.674976 1.4508e-14)
(-4.79814 -0.346963 -5.70541e-15)
(-5.74557 -2.47309 -1.12755e-14)
(-6.13099 -5.30568 1.74355e-15)
(-5.67305 -8.15933 -1.0561e-15)
(-4.39986 -10.3888 1.04233e-14)
(-2.60879 -11.4544 3.94852e-14)
(-0.649939 -11.188 5.11466e-14)
(1.32483 -9.60942 2.63226e-14)
(3.17433 -6.85595 -1.15528e-14)
(4.57161 -3.41618 1.14698e-14)
(5.30535 0.282043 3.38786e-14)
(5.43074 3.73837 -2.17629e-14)
(4.99524 6.62411 -4.52351e-15)
(4.00641 8.67533 1.32188e-15)
(2.89969 9.76927 -4.54425e-15)
(1.95908 10.0641 -1.05844e-14)
(1.11438 9.53975 -1.455e-14)
(0.439984 8.37774 -1.33358e-14)
(0.0469252 6.85271 -4.57228e-14)
(-6.48833 -4.35402 1.1205e-14)
(-5.81823 -3.92427 -1.24184e-13)
(-5.44172 -2.89224 1.2219e-13)
(-5.58393 -1.90195 -2.17507e-15)
(-5.96408 -1.40118 -7.9994e-14)
(-6.1581 -1.38186 -6.89691e-14)
(-5.77013 -1.46929 -1.26115e-14)
(-4.89552 -1.35955 1.60401e-14)
(-3.99911 -1.04104 7.18435e-14)
(-3.50814 -0.777582 1.1713e-14)
(-3.57466 -0.947856 -1.84717e-14)
(-4.08116 -1.85214 4.91277e-15)
(-4.67348 -3.51098 1.27641e-14)
(-4.94623 -5.6379 -3.47577e-15)
(-4.61307 -7.67369 3.27711e-15)
(-3.62906 -9.08054 2.349e-15)
(-2.17689 -9.38136 -2.18088e-14)
(-0.510557 -8.446 -2.06189e-14)
(1.23001 -6.37969 4.40885e-15)
(2.88457 -3.37627 2.99075e-14)
(4.16047 0.159361 1.01809e-14)
(4.83919 3.76876 -3.79822e-14)
(4.96924 6.99354 3.12919e-15)
(4.60232 9.59392 3.51579e-15)
(3.70331 11.3799 -2.26068e-15)
(2.64741 12.1052 -4.84737e-15)
(1.76795 11.9652 -2.52124e-15)
(0.993059 10.9727 1.0133e-14)
(0.380179 9.43323 2.44526e-14)
(0.0256264 7.56768 5.63408e-14)
(-6.35887 -3.9895 3.9336e-14)
(-5.87101 -3.66923 -7.08371e-14)
(-5.70417 -3.03874 1.77615e-14)
(-5.8437 -2.45695 1.3879e-13)
(-6.1258 -2.19484 1.68222e-15)
(-6.33103 -2.28518 -2.23509e-14)
(-6.12901 -2.50228 3.08706e-14)
(-5.4954 -2.6341 3.19456e-14)
(-4.71685 -2.60915 5.32481e-15)
(-4.08976 -2.48907 -4.87783e-14)
(-3.76959 -2.47747 -1.73481e-15)
(-3.78527 -2.81697 2.66685e-15)
(-3.95539 -3.58111 -2.05155e-15)
(-4.00397 -4.64815 4.40403e-15)
(-3.68631 -5.67811 -4.41214e-15)
(-2.90914 -6.30199 -1.19952e-15)
(-1.76 -6.15047 8.6011e-15)
(-0.397264 -5.14036 1.06095e-14)
(1.08118 -3.33926 -1.61112e-14)
(2.53767 -0.866361 -2.95777e-14)
(3.70862 2.01944 -7.22821e-15)
(4.38889 4.94387 5.61383e-15)
(4.59409 7.4949 1.24009e-14)
(4.34538 9.48766 -3.74752e-15)
(3.57735 10.7286 2.07301e-15)
(2.62576 11.0197 1.41677e-14)
(1.85669 10.8781 2.49018e-15)
(1.15215 9.97448 -4.48118e-14)
(0.566313 8.53283 -4.56988e-14)
(0.233255 6.89143 7.25248e-15)
(-6.01494 -3.54237 3.11174e-14)
(-5.96206 -3.57652 -6.85549e-14)
(-5.66681 -3.28471 -4.47351e-14)
(-5.59937 -2.82667 1.28679e-14)
(-5.68687 -2.40022 3.16901e-14)
(-5.88139 -2.22765 9.33133e-14)
(-6.03583 -2.31408 -1.63841e-14)
(-5.90323 -2.51574 -4.71573e-14)
(-5.44306 -2.71112 1.2526e-14)
(-4.82691 -2.82866 -3.3107e-14)
(-4.23124 -2.83639 5.20794e-15)
(-3.77257 -2.81794 1.17764e-14)
(-3.53872 -2.95967 1.57178e-14)
(-3.46788 -3.35682 4.40778e-15)
(-3.38779 -3.98185 -4.33424e-15)
(-3.10679 -4.64425 4.68286e-16)
(-2.51272 -5.08755 -2.98196e-15)
(-1.62511 -5.04963 -7.71071e-15)
(-0.517017 -4.42956 -1.24671e-15)
(0.749256 -3.24127 1.08337e-14)
(2.06871 -1.50655 -1.68566e-14)
(3.20333 0.60056 -2.01698e-15)
(3.9528 2.83429 2.56646e-14)
(4.29972 4.8507 -3.10787e-15)
(4.2243 6.5014 2.33602e-15)
(3.6488 7.5588 -2.79613e-15)
(2.86672 7.92803 -1.49556e-14)
(2.19969 7.9125 4.67168e-15)
(1.53569 7.25016 2.92845e-14)
(0.955474 6.18015 1.35284e-15)
(0.58212 4.9047 -1.50705e-14)
(-5.37965 -3.01765 -2.52595e-15)
(-5.33397 -3.03882 2.19734e-14)
(-5.27816 -2.84282 4.17989e-14)
(-5.30927 -2.51525 -8.82765e-14)
(-5.44712 -2.22271 -3.32222e-14)
(-5.61317 -2.15438 -1.17287e-14)
(-5.74545 -2.28218 7.8324e-14)
(-5.64662 -2.49115 -2.24701e-14)
(-5.30041 -2.73768 -1.42837e-14)
(-4.82231 -2.97226 8.30012e-15)
(-4.29656 -3.12877 8.60595e-15)
(-3.80195 -3.23234 8.38059e-15)
(-3.45072 -3.41603 -2.31915e-14)
(-3.24304 -3.75251 -9.26164e-15)
(-3.08386 -4.26056 9.17687e-15)
(-2.83527 -4.84096 -1.15483e-15)
(-2.38792 -5.32181 -1.60493e-15)
(-1.70622 -5.50614 5.82489e-15)
(-0.807049 -5.28575 -5.95441e-15)
(0.283784 -4.60362 -1.52416e-14)
(1.47587 -3.43958 2.20811e-14)
(2.568 -1.88586 1.01905e-14)
(3.37021 -0.114039 -1.53089e-14)
(3.84297 1.61854 -7.67931e-15)
(3.92613 3.17046 -6.44977e-16)
(3.52272 4.29982 3.3291e-15)
(2.87699 4.8078 -1.10169e-14)
(2.33221 5.08318 2.03752e-15)
(1.75327 4.85599 2.50478e-14)
(1.20681 4.23375 2.26079e-15)
(0.839616 3.40963 2.33102e-14)
(-4.67333 -2.46362 9.11152e-15)
(-4.62481 -2.46763 6.8473e-14)
(-4.65579 -2.3317 1.10475e-13)
(-4.85051 -2.11709 -1.18565e-14)
(-5.05024 -1.94117 -5.99186e-14)
(-5.24957 -1.93966 -3.4377e-14)
(-5.38384 -2.08975 -6.21085e-14)
(-5.31573 -2.2906 5.13796e-15)
(-5.05103 -2.54933 -2.29096e-14)
(-4.67892 -2.8412 3.81642e-14)
(-4.21874 -3.07942 1.08129e-14)
(-3.72229 -3.26127 -1.49741e-14)
(-3.29922 -3.46721 -5.3319e-15)
(-2.98212 -3.74027 -6.47331e-15)
(-2.73643 -4.11639 -3.76391e-16)
(-2.4752 -4.55615 1.19319e-15)
(-2.10404 -4.96272 -1.96729e-15)
(-1.55912 -5.18561 -5.20485e-16)
(-0.822156 -5.1199 1.00957e-14)
(0.10791 -4.6732 7.84408e-15)
(1.15471 -3.81952 -5.50943e-15)
(2.15576 -2.5759 -7.12509e-15)
(2.94276 -1.07024 -3.7352e-15)
(3.46121 0.510764 2.8333e-15)
(3.62513 2.0045 1.7234e-15)
(3.32715 3.22801 -1.70154e-16)
(2.77374 3.9691 1.62974e-14)
(2.28239 4.43347 -1.24571e-14)
(1.74998 4.38935 -5.34899e-14)
(1.22452 3.97129 -3.27863e-15)
(0.857278 3.31475 -1.39673e-14)
(-3.69499 -2.11006 1.08497e-13)
(-3.72531 -1.86787 6.04685e-14)
(-3.90967 -1.87001 -1.22511e-13)
(-4.02479 -1.89339 -6.66931e-14)
(-4.26925 -1.72479 -3.01182e-14)
(-4.56748 -1.61558 2.68189e-14)
(-4.81334 -1.68774 3.9619e-14)
(-4.97634 -1.84928 8.22814e-15)
(-4.94339 -2.04209 -9.24408e-15)
(-4.74549 -2.30402 -1.09082e-14)
(-4.46168 -2.63247 -5.06138e-14)
(-4.07448 -2.93991 4.32836e-15)
(-3.61218 -3.20637 1.25166e-14)
(-3.17217 -3.46451 5.59858e-15)
(-2.79429 -3.72871 1.62971e-14)
(-2.48664 -4.03458 -6.57551e-15)
(-2.20288 -4.37106 -4.66233e-15)
(-1.86639 -4.69564 2.69598e-15)
(-1.40767 -4.89989 -2.89168e-16)
(-0.786101 -4.88526 -5.76024e-15)
(0.0113048 -4.55978 -9.17506e-15)
(0.930517 -3.87861 -1.72137e-14)
(1.83673 -2.83673 -8.47813e-15)
(2.59186 -1.50137 -2.04471e-15)
(3.12841 -0.0353628 -5.10444e-15)
(3.34969 1.43322 5.22245e-16)
(3.13569 2.69783 -2.16492e-15)
(2.66067 3.564 2.97101e-15)
(2.2095 4.18735 -1.76202e-15)
(1.7163 4.41159 2.62408e-14)
(1.20605 4.21749 4.89161e-15)
(0.836517 3.77209 -4.93878e-14)
(-2.90519 -1.47663 1.16644e-13)
(-3.06309 -1.27309 1.35492e-14)
(-3.45712 -1.33506 -4.08675e-14)
(-3.72814 -1.41216 -7.71076e-14)
(-4.0331 -1.31136 -1.74738e-14)
(-4.33742 -1.41911 5.89791e-14)
(-4.53882 -1.60414 4.89587e-14)
(-4.54697 -1.78755 8.06781e-14)
(-4.4007 -2.03644 6.16083e-14)
(-4.17846 -2.36481 -1.07461e-14)
(-3.85483 -2.69978 -6.06964e-15)
(-3.43829 -3.01698 9.57239e-15)
(-3.01198 -3.32148 2.37199e-15)
(-2.61393 -3.5962 2.88986e-16)
(-2.27284 -3.87605 7.78609e-15)
(-1.97212 -4.16578 -3.07983e-15)
(-1.65766 -4.44977 -4.63595e-16)
(-1.266 -4.65732 -2.74431e-16)
(-0.74534 -4.70229 9.51699e-17)
(-0.0701148 -4.49598 -1.09024e-15)
(0.725008 -3.99019 4.63515e-15)
(1.535 -3.16388 8.78905e-15)
(2.25032 -2.0359 8.06607e-16)
(2.7978 -0.73724 3.51411e-15)
(3.06944 0.631907 -1.14804e-15)
(2.94248 1.86914 2.14075e-16)
(2.55409 2.78522 -1.45357e-15)
(2.16163 3.49848 -1.38049e-14)
(1.72414 3.88007 -2.08795e-14)
(1.24543 3.87138 1.93669e-14)
(0.884912 3.61549 5.32979e-14)
(-2.49169 -0.984023 2.73367e-14)
(-2.75927 -0.704733 7.3722e-14)
(-3.26605 -0.846049 -6.0508e-14)
(-3.56175 -1.09259 -2.18508e-14)
(-3.85609 -1.19245 -4.39927e-16)
(-4.09417 -1.38915 -6.27842e-14)
(-4.14532 -1.57586 -9.94509e-14)
(-4.0445 -1.81308 4.43006e-15)
(-3.86874 -2.11945 1.70118e-14)
(-3.59442 -2.44594 -1.09135e-14)
(-3.2257 -2.77339 -5.54719e-15)
(-2.83016 -3.0954 -1.56154e-14)
(-2.43612 -3.3759 1.38899e-14)
(-2.07872 -3.63897 8.89384e-15)
(-1.7617 -3.89699 1.73381e-15)
(-1.45515 -4.15674 3.47924e-15)
(-1.10681 -4.36624 -3.87651e-15)
(-0.664968 -4.45709 6.26247e-16)
(-0.0958235 -4.34802 1.67053e-14)
(0.580188 -4.00154 5.93072e-15)
(1.29186 -3.37059 4.57421e-15)
(1.95111 -2.4523 1.08195e-14)
(2.48777 -1.33322 1.09368e-15)
(2.78839 -0.102516 3.34666e-16)
(2.73258 1.06811 -8.47754e-16)
(2.42434 1.97537 6.71229e-16)
(2.08678 2.69037 3.49832e-15)
(1.7114 3.14899 4.55324e-15)
(1.27888 3.24722 2.63356e-14)
(0.946821 3.11727 -1.23733e-14)
(-2.39106 -0.51506 -5.91986e-14)
(-2.69782 -0.150345 4.65971e-14)
(-3.18944 -0.551015 3.89446e-14)
(-3.42095 -1.04035 7.7096e-14)
(-3.66378 -1.27697 4.79806e-14)
(-3.75728 -1.45171 -4.89408e-14)
(-3.69642 -1.66696 -3.55374e-14)
(-3.55733 -1.94022 2.84459e-14)
(-3.32322 -2.22984 4.10504e-15)
(-2.99934 -2.53742 2.38807e-15)
(-2.64061 -2.85283 -1.8429e-15)
(-2.26514 -3.12905 -2.55458e-14)
(-1.90508 -3.38019 -1.04095e-14)
(-1.577 -3.61597 -7.11313e-16)
(-1.27059 -3.84908 -3.50246e-15)
(-0.949483 -4.04434 3.84899e-15)
(-0.567228 -4.14917 -1.65388e-15)
(-0.0887729 -4.10174 -7.77835e-15)
(0.482368 -3.86465 -1.81251e-15)
(1.10045 -3.38484 -1.09005e-14)
(1.69987 -2.63579 -1.28854e-14)
(2.21327 -1.67514 -2.5937e-15)
(2.52792 -0.57295 2.59043e-15)
(2.52667 0.522213 9.99887e-16)
(2.2862 1.41485 5.96301e-16)
(1.9963 2.13446 -2.44265e-16)
(1.67703 2.63512 4.67312e-15)
(1.28799 2.79458 -1.60029e-14)
(0.983533 2.72975 -2.15008e-14)
(-2.46861 -0.099165 6.97207e-14)
(-2.75159 0.177137 2.15012e-14)
(-3.11136 -0.654327 -4.48754e-14)
(-3.28762 -1.19252 2.20387e-14)
(-3.38647 -1.41203 6.9873e-14)
(-3.3613 -1.59916 1.00452e-14)
(-3.25746 -1.82712 -4.03079e-14)
(-3.05669 -2.06384 1.60106e-14)
(-2.77141 -2.32677 8.36849e-15)
(-2.44926 -2.60833 -4.42002e-15)
(-2.09952 -2.86667 9.90364e-16)
(-1.74727 -3.10356 -1.66119e-14)
(-1.41514 -3.32442 7.45041e-16)
(-1.10713 -3.53368 5.33579e-16)
(-0.80237 -3.71069 -6.2759e-16)
(-0.463827 -3.81666 1.54586e-15)
(-0.0584061 -3.81313 -4.85903e-15)
(0.422897 -3.66299 -9.01757e-15)
(0.953747 -3.31114 7.30766e-15)
(1.48846 -2.71054 7.1934e-15)
(1.96646 -1.90083 -1.90597e-15)
(2.28005 -0.927149 -2.72441e-15)
(2.3217 0.0798908 1.48049e-15)
(2.14171 0.932212 -1.2729e-15)
(1.89525 1.63718 1.20691e-14)
(1.6276 2.1815 -1.121e-14)
(1.2811 2.41437 -1.41428e-14)
(1.00558 2.43514 5.10009e-14)
(-2.64049 0.0850788 -8.71486e-15)
(-2.77261 0.0580725 1.99098e-14)
(-3.01415 -1.00254 -8.30303e-15)
(-3.08687 -1.37351 -2.17943e-14)
(-3.06698 -1.57561 5.07059e-15)
(-2.98615 -1.76023 2.21854e-14)
(-2.81337 -1.94524 -2.18094e-14)
(-2.55663 -2.15472 4.96562e-15)
(-2.26383 -2.39293 1.23233e-14)
(-1.93936 -2.62136 1.0569e-14)
(-1.60194 -2.83996 7.436e-15)
(-1.27283 -3.04365 2.19715e-15)
(-0.964882 -3.23221 1.71152e-15)
(-0.669832 -3.38609 3.94413e-16)
(-0.363526 -3.48419 -1.23607e-15)
(-0.0151576 -3.50022 4.52642e-15)
(0.389233 -3.41195 7.46637e-15)
(0.841674 -3.15986 1.15791e-15)
(1.31225 -2.68924 2.74405e-15)
(1.74973 -2.0166 2.65764e-15)
(2.05273 -1.17541 1.29522e-15)
(2.12499 -0.271517 -7.49053e-16)
(1.99657 0.519574 -7.29684e-15)
(1.79109 1.19025 8.85726e-15)
(1.57237 1.73293 2.45868e-14)
(1.26928 2.00356 -2.74156e-14)
(1.02396 2.08659 -2.01854e-14)
(-2.70474 0.069486 -2.99109e-14)
(-2.78408 -0.501943 -3.53434e-14)
(-2.85106 -1.31981 -1.82908e-14)
(-2.82765 -1.57572 -8.49851e-15)
(-2.75758 -1.74365 -1.96813e-15)
(-2.60457 -1.87756 2.36662e-16)
(-2.36857 -2.028 -2.28751e-14)
(-2.09604 -2.21412 2.85456e-15)
(-1.79226 -2.40669 -7.13159e-15)
(-1.47315 -2.60217 -5.97189e-15)
(-1.15388 -2.78559 7.43269e-15)
(-0.848846 -2.95219 -1.9035e-15)
(-0.559691 -3.08177 -1.1086e-15)
(-0.27368 -3.16609 9.93011e-16)
(0.0333144 -3.19022 -4.27972e-15)
(0.377513 -3.14503 -5.15131e-16)
(0.761945 -2.96729 1.80158e-15)
(1.17145 -2.60221 -1.56196e-15)
(1.56262 -2.04874 -1.86381e-16)
(1.84623 -1.32922 1.02807e-15)
(1.93865 -0.53146 -1.57092e-15)
(1.8539 0.190715 5.32934e-15)
(1.68461 0.821739 -1.63176e-15)
(1.50573 1.34717 1.09516e-15)
(1.2454 1.63815 -6.39817e-15)
(1.03186 1.76187 -3.44632e-14)
(-2.56311 -0.234455 -1.20933e-14)
(-2.646 -0.169211 -3.98504e-14)
(-2.69383 -1.13881 -8.74554e-15)
(-2.64148 -1.54388 1.07246e-15)
(-2.5793 -1.74522 -1.84163e-14)
(-2.43577 -1.83965 2.67251e-14)
(-2.20881 -1.93899 2.86975e-14)
(-1.94929 -2.07543 -6.51699e-16)
(-1.6611 -2.23098 5.77348e-15)
(-1.35866 -2.40046 -3.09791e-15)
(-1.05283 -2.56367 3.12324e-15)
(-0.754053 -2.70847 5.07968e-15)
(-0.471297 -2.81596 -5.43396e-16)
(-0.199431 -2.88064 1.8135e-15)
(0.0768054 -2.90427 1.32807e-15)
(0.374178 -2.88315 -1.0951e-15)
(0.701508 -2.75912 -4.1433e-15)
(1.05575 -2.47267 -5.50544e-15)
(1.40115 -2.02107 2.8786e-15)
(1.66163 -1.41121 -2.51427e-16)
(1.76535 -0.720133 7.52965e-16)
(1.71562 -0.0699856 -8.62653e-16)
(1.58006 0.514094 -1.7381e-15)
(1.43464 1.00523 6.81713e-15)
(1.21725 1.30276 5.43742e-14)
(1.03251 1.45727 5.50786e-14)
(-2.60132 -0.280915 -2.99947e-14)
(-2.53498 -0.674767 7.54032e-16)
(-2.49704 -1.50835 2.63673e-14)
(-2.43938 -1.7471 1.81664e-14)
(-2.29527 -1.8312 -6.2974e-15)
(-2.07641 -1.88948 8.31006e-15)
(-1.82625 -1.98258 -4.71142e-15)
(-1.55077 -2.09903 -1.20567e-15)
(-1.26352 -2.23709 7.33827e-15)
(-0.971384 -2.37563 -4.14023e-15)
(-0.681811 -2.49809 3.90806e-15)
(-0.405315 -2.58611 8.06988e-16)
(-0.143427 -2.63383 -1.24226e-15)
(0.11256 -2.65199 1.33383e-15)
(0.375912 -2.64205 1.61093e-15)
(0.658068 -2.55527 1.94371e-15)
(0.963138 -2.33052 4.04217e-15)
(1.26429 -1.96223 -7.3846e-16)
(1.498 -1.45026 -2.59172e-15)
(1.60673 -0.857622 4.79949e-16)
(1.58385 -0.282738 -2.98276e-15)
(1.47818 0.250574 2.50493e-15)
(1.35955 0.700614 -6.7216e-15)
(1.18046 0.996904 -3.52645e-14)
(1.02435 1.17092 -2.67586e-14)
(-2.46614 -0.539472 -4.49565e-14)
(-2.43796 -0.443285 -2.42006e-14)
(-2.39934 -1.31178 1.03014e-14)
(-2.33101 -1.70747 -6.48576e-15)
(-2.18772 -1.83557 -1.90047e-14)
(-1.97221 -1.86712 -2.5111e-14)
(-1.72827 -1.92462 9.28614e-15)
(-1.46346 -2.00638 -7.25237e-15)
(-1.18795 -2.11284 -4.20549e-15)
(-0.905556 -2.22425 -4.74613e-15)
(-0.625149 -2.32456 -6.77963e-15)
(-0.35605 -2.39182 -2.17409e-16)
(-0.102957 -2.42461 -9.87486e-17)
(0.138214 -2.43415 -7.48675e-16)
(0.376272 -2.43079 -1.03317e-15)
(0.622754 -2.3629 -1.74985e-15)
(0.885902 -2.1822 1.3888e-15)
(1.14724 -1.87833 2.93989e-17)
(1.35445 -1.45264 -8.90891e-16)
(1.46254 -0.949011 1.06411e-15)
(1.45997 -0.447255 -5.05201e-16)
(1.38045 0.033616 -3.42865e-15)
(1.28461 0.439072 2.44732e-15)
(1.13999 0.723696 4.82488e-15)
(1.01057 0.907721 -2.12928e-14)
(-2.38618 -0.541236 -5.57812e-14)
(-2.28049 -0.959309 -1.19579e-14)
(-2.23489 -1.65913 5.90243e-15)
(-2.11734 -1.80112 2.21329e-14)
(-1.89364 -1.83312 7.73451e-15)
(-1.65727 -1.87787 -9.56835e-15)
(-1.40157 -1.93904 1.16922e-14)
(-1.13217 -2.01652 -1.59482e-16)
(-0.856529 -2.09924 5.70227e-15)
(-0.584476 -2.17693 1.68101e-15)
(-0.323808 -2.22629 -2.70409e-16)
(-0.0786443 -2.2447 4.1933e-16)
(0.152532 -2.24594 8.42542e-16)
(0.374145 -2.24521 9.41969e-16)
(0.594146 -2.19006 -2.51653e-17)
(0.82301 -2.04138 -1.27947e-15)
(1.04831 -1.79053 -6.6246e-16)
(1.23035 -1.43695 7.82525e-16)
(1.33403 -1.01447 -2.60662e-16)
(1.3465 -0.580139 5.97416e-15)
(1.28797 -0.154313 -4.99496e-15)
(1.20939 0.209588 -1.75026e-14)
(1.09469 0.477963 7.69038e-15)
(0.990472 0.666056 2.07104e-14)
(-2.22578 -0.541699 1.61111e-14)
(-2.20226 -0.806612 -7.72256e-16)
(-2.15903 -1.51601 1.38225e-14)
(-2.0253 -1.7234 -1.04386e-14)
(-1.82261 -1.80478 5.02335e-15)
(-1.60382 -1.85506 -4.97738e-15)
(-1.35618 -1.89787 2.3187e-15)
(-1.09056 -1.94643 5.08985e-15)
(-0.820941 -2.00123 -1.75109e-15)
(-0.556787 -2.05471 2.76853e-15)
(-0.304406 -2.08805 -8.30465e-16)
(-0.0662245 -2.09484 -6.08975e-16)
(0.15725 -2.09094 -1.07848e-15)
(0.366718 -2.08606 1.21654e-15)
(0.565983 -2.03711 2.77145e-15)
(0.767649 -1.90912 -3.9374e-16)
(0.963152 -1.69976 -1.46041e-16)
(1.12263 -1.40581 9.27563e-16)
(1.21986 -1.05404 -1.51898e-15)
(1.24214 -0.680912 1.51764e-15)
(1.20051 -0.307327 6.27669e-16)
(1.13676 0.01711 1.52164e-15)
(1.04957 0.262912 -6.1487e-15)
(0.966984 0.447625 -1.77438e-15)
(-2.08418 -0.660692 1.16119e-14)
(-2.08586 -0.549517 -3.28826e-15)
(-2.06201 -1.31823 1.19327e-16)
(-1.93835 -1.63666 4.36917e-15)
(-1.75577 -1.77456 -5.36175e-15)
(-1.55388 -1.82964 7.51392e-15)
(-1.31663 -1.85753 -1.00355e-15)
(-1.05818 -1.88434 1.66484e-15)
(-0.795763 -1.9166 -4.77803e-15)
(-0.539698 -1.95019 -6.61844e-16)
(-0.296002 -1.96828 1.61894e-15)
(-0.0650558 -1.96496 -1.53192e-17)
(0.152676 -1.95788 1.97837e-16)
(0.353352 -1.95182 -3.52858e-16)
(0.538283 -1.90681 -2.21265e-15)
(0.718835 -1.79441 -1.46699e-15)
(0.890188 -1.61671 9.96478e-16)
(1.02982 -1.37258 -1.75895e-16)
(1.11969 -1.07942 9.38231e-17)
(1.14793 -0.762437 -5.07896e-15)
(1.11902 -0.436903 6.39924e-15)
(1.06706 -0.149554 1.18753e-14)
(1.00308 0.0742478 -2.96004e-15)
(0.939009 0.250908 -8.63457e-15)
(-2.01655 -0.619642 -4.18311e-15)
(-1.95535 -0.859126 8.69762e-15)
(-1.83836 -1.53908 2.83089e-15)
(-1.69117 -1.71969 -1.07849e-14)
(-1.504 -1.79412 -9.60839e-15)
(-1.28099 -1.81327 -3.64609e-15)
(-1.03255 -1.82681 2.15098e-15)
(-0.777676 -1.84196 6.04763e-15)
(-0.529171 -1.86031 -2.65868e-15)
(-0.293112 -1.86734 -5.7394e-16)
(-0.0689002 -1.85867 7.84886e-16)
(0.143152 -1.8487 -1.67445e-16)
(0.335972 -1.84302 5.59619e-16)
(0.509622 -1.79948 -4.97634e-16)
(0.673866 -1.69797 -2.10751e-15)
(0.825878 -1.54334 5.01073e-16)
(0.948989 -1.33851 9.43544e-16)
(1.03106 -1.09295 1.14581e-15)
(1.06211 -0.82372 -3.84004e-16)
(1.04253 -0.540699 -2.87537e-15)
(1.00085 -0.286582 -5.84965e-15)
(0.957504 -0.0862488 -5.95944e-15)
(0.908387 0.0787843 6.23402e-15)
(-1.84421 -0.754018 -2.79607e-14)
(-1.86047 -0.664622 -1.34834e-14)
(-1.78102 -1.32237 -9.67552e-16)
(-1.62859 -1.61584 -4.01739e-16)
(-1.46008 -1.7484 -2.1585e-15)
(-1.25156 -1.7699 4.59079e-15)
(-1.01086 -1.77029 -2.39234e-16)
(-0.765013 -1.77414 -1.33124e-15)
(-0.52515 -1.781 -6.96603e-16)
(-0.295836 -1.77978 5.26957e-16)
(-0.0775494 -1.76732 3.84933e-16)
(0.128647 -1.75749 -3.42092e-16)
(0.315386 -1.75383 -7.74815e-16)
(0.480031 -1.71324 -4.77019e-16)
(0.632219 -1.62018 -9.3861e-16)
(0.769312 -1.48468 -4.7904e-16)
(0.878628 -1.30983 -6.6973e-17)
(0.953176 -1.1028 -1.66635e-16)
(0.985243 -0.873026 -1.60417e-15)
(0.972082 -0.628024 -2.68232e-15)
(0.937949 -0.402001 9.84401e-15)
(0.911422 -0.223833 1.21564e-14)
(0.874127 -0.0706614 -8.21408e-15)
(-1.76202 -0.751595 -7.10992e-16)
(-1.68018 -0.966194 4.63139e-15)
(-1.56452 -1.53795 8.70253e-15)
(-1.4364 -1.67824 -2.69411e-15)
(-1.23442 -1.70208 3.81155e-15)
(-1.00253 -1.70103 2.25377e-15)
(-0.762676 -1.70208 1.52913e-15)
(-0.527639 -1.70465 -1.71954e-16)
(-0.301427 -1.70095 -1.4028e-15)
(-0.0868396 -1.68797 -4.60432e-16)
(0.114043 -1.68241 -3.94553e-16)
(0.294386 -1.68227 -4.55708e-16)
(0.451074 -1.64636 1.99499e-15)
(0.592812 -1.55966 2.3071e-15)
(0.718237 -1.43863 -5.95002e-16)
(0.816474 -1.28695 2.8878e-16)
(0.88381 -1.10976 -6.71017e-16)
(0.915091 -0.911965 4.84533e-15)
(0.90657 -0.698475 -2.25336e-15)
(0.878613 -0.496214 -1.1545e-14)
(0.866534 -0.339474 2.86489e-15)
(0.838781 -0.199789 3.4298e-15)
(-1.63177 -0.751458 -2.63731e-15)
(-1.59815 -0.850239 -6.61677e-15)
(-1.51013 -1.39273 -1.33802e-14)
(-1.39813 -1.56362 4.02035e-15)
(-1.21294 -1.627 -3.04395e-15)
(-0.996815 -1.63762 1.11896e-15)
(-0.764252 -1.63907 -3.60877e-15)
(-0.52857 -1.63694 -2.45692e-15)
(-0.305984 -1.63077 3.43909e-15)
(-0.0971631 -1.61902 -1.29094e-15)
(0.0978842 -1.61741 -1.60823e-16)
(0.271769 -1.62299 1.0725e-15)
(0.422045 -1.59227 1.71105e-16)
(0.555685 -1.51275 -1.65141e-15)
(0.67113 -1.40285 -1.07971e-15)
(0.760377 -1.26959 -7.55453e-16)
(0.821605 -1.11581 1.33672e-16)
(0.851709 -0.944332 -3.09762e-15)
(0.84602 -0.757547 3.10939e-15)
(0.82287 -0.575033 9.57845e-15)
(0.821894 -0.438611 -1.72684e-15)
(0.801911 -0.312594 -6.89733e-15)
(-1.50477 -0.815971 2.38774e-15)
(-1.50984 -0.704758 7.0366e-15)
(-1.45011 -1.21568 4.15559e-15)
(-1.34985 -1.45298 -3.72196e-15)
(-1.19437 -1.55261 4.69982e-16)
(-0.992609 -1.57388 -4.72345e-15)
(-0.759711 -1.57271 4.492e-15)
(-0.5285 -1.57486 1.07273e-15)
(-0.308394 -1.56748 -5.73195e-16)
(-0.105062 -1.55902 1.20968e-15)
(0.0842107 -1.56177 3.77101e-17)
(0.251996 -1.57414 -9.73372e-18)
(0.395247 -1.54824 8.05218e-17)
(0.521317 -1.47546 -2.20118e-16)
(0.627913 -1.37516 1.03273e-16)
(0.708893 -1.25578 2.52172e-16)
(0.764242 -1.12001 4.18198e-16)
(0.79305 -0.969921 -1.67604e-16)
(0.789738 -0.80548 1.93135e-15)
(0.770665 -0.639867 7.48876e-15)
(0.777388 -0.52223 7.36901e-15)
(0.765431 -0.410347 1.02767e-14)
(-1.42688 -0.758118 -2.67509e-15)
(-1.3798 -0.87012 2.60989e-16)
(-1.29478 -1.34115 8.13945e-15)
(-1.17575 -1.46093 -3.52139e-15)
(-0.981293 -1.49281 -5.57275e-16)
(-0.755724 -1.50135 2.94794e-15)
(-0.525787 -1.50658 -7.09658e-16)
(-0.313304 -1.5066 -2.12467e-16)
(-0.111577 -1.50169 -1.37488e-16)
(0.0727743 -1.51005 2.71669e-16)
(0.234726 -1.52876 1.78634e-16)
(0.371133 -1.50838 -2.96774e-16)
(0.489402 -1.44144 1.62129e-16)
(0.587851 -1.34943 2.938e-16)
(0.661511 -1.2414 2.25192e-17)
(0.71164 -1.12025 2.21708e-16)
(0.73882 -0.987943 1.28282e-15)
(0.73746 -0.842659 -2.64437e-15)
(0.722126 -0.691954 -1.40563e-14)
(0.732066 -0.590679 -1.19003e-14)
(0.728349 -0.492341 -7.67761e-15)
(-1.30792 -0.70233 9.35921e-15)
(-1.30644 -0.735691 -1.03023e-15)
(-1.24764 -1.18289 -6.11436e-15)
(-1.14215 -1.32894 3.86835e-15)
(-0.957283 -1.39668 5.42832e-15)
(-0.74495 -1.42527 -1.86553e-15)
(-0.525684 -1.44295 2.59661e-16)
(-0.30949 -1.44907 4.26889e-16)
(-0.113542 -1.44749 -1.46557e-15)
(0.0672502 -1.46283 1.96905e-16)
(0.223262 -1.48714 -1.45326e-16)
(0.351706 -1.47143 -9.49119e-17)
(0.461128 -1.40904 -1.5509e-16)
(0.55074 -1.32323 3.59998e-16)
(0.617041 -1.22395 5.27349e-16)
(0.662218 -1.11463 -2.31296e-16)
(0.687755 -0.996752 5.4978e-16)
(0.688243 -0.86729 -2.21547e-15)
(0.67582 -0.730749 5.75595e-15)
(0.687737 -0.642915 8.8534e-15)
(0.691265 -0.557484 4.13464e-16)
(-1.21032 -0.702308 1.66997e-15)
(-1.23081 -0.571151 8.10238e-15)
(-1.19469 -1.00211 2.95884e-17)
(-1.08918 -1.19695 -9.25978e-15)
(-0.93052 -1.30819 -3.39675e-15)
(-0.728294 -1.35326 1.6149e-15)
(-0.510239 -1.3866 -1.31391e-15)
(-0.303671 -1.39477 -6.68371e-16)
(-0.108657 -1.39812 -1.7758e-16)
(0.0670933 -1.41816 -5.72772e-17)
(0.215443 -1.44566 -2.34058e-16)
(0.335252 -1.43159 2.23272e-16)
(0.43516 -1.37119 1.01654e-15)
(0.516061 -1.29017 2.27365e-16)
(0.57502 -1.19813 -5.28127e-16)
(0.615367 -1.09882 7.92515e-16)
(0.638925 -0.993145 -1.18726e-16)
(0.641251 -0.877239 3.09243e-15)
(0.631544 -0.754697 -6.00761e-15)
(0.64289 -0.677095 -1.14629e-14)
(0.65271 -0.602507 7.22339e-16)
(-1.15846 -0.625399 2.02954e-15)
(-1.14536 -0.664723 -4.57368e-15)
(-1.03908 -1.08861 1.17543e-15)
(-0.89571 -1.22534 8.27595e-16)
(-0.70553 -1.30128 -3.19888e-15)
(-0.497707 -1.3368 2.82197e-15)
(-0.29322 -1.35327 -4.149e-16)
(-0.101591 -1.35959 1.03474e-15)
(0.0699737 -1.37688 3.74991e-17)
(0.210748 -1.40285 -1.57702e-16)
(0.321494 -1.38725 -8.04012e-16)
(0.411629 -1.32628 -8.44386e-16)
(0.483658 -1.24802 -7.01768e-16)
(0.535381 -1.16173 2.56461e-16)
(0.57098 -1.07116 -9.93714e-16)
(0.592509 -0.976239 -1.36625e-16)
(0.59587 -0.872224 -9.15992e-16)
(0.58829 -0.762479 3.51144e-15)
(0.599303 -0.692752 9.11405e-15)
(0.614297 -0.628893 4.58237e-15)
(-1.06571 -0.666903 1.38443e-16)
(-1.08082 -0.590595 1.0083e-15)
(-0.993648 -0.946264 4.32712e-15)
(-0.866268 -1.13512 5.15505e-15)
(-0.68144 -1.25414 -2.73835e-16)
(-0.485142 -1.30955 -3.05185e-15)
(-0.285015 -1.32745 -1.13867e-17)
(-0.096564 -1.3277 -1.42371e-15)
(0.0681772 -1.33683 9.81759e-17)
(0.202959 -1.3559 -3.60222e-17)
(0.306091 -1.33523 7.03862e-17)
(0.388239 -1.27205 6.5084e-16)
(0.452396 -1.19484 7.41467e-16)
(0.497691 -1.11332 -2.1626e-16)
(0.528882 -1.03049 4.69383e-16)
(0.548226 -0.945498 2.85421e-16)
(0.552359 -0.852868 -4.00297e-16)
(0.546321 -0.755038 8.07652e-16)
(0.556421 -0.691639 -6.24595e-15)
(0.575148 -0.63771 -5.62758e-15)
(-1.00538 -0.675008 7.85287e-15)
(-0.959159 -0.734113 1.34573e-15)
(-0.807128 -1.08866 -3.05254e-15)
(-0.659153 -1.21959 -2.95333e-15)
(-0.473674 -1.27817 1.58317e-15)
(-0.28503 -1.29198 3.3447e-17)
(-0.104732 -1.28504 7.4003e-17)
(0.0566144 -1.29045 1.93062e-17)
(0.188299 -1.30198 1.0854e-16)
(0.287051 -1.27596 1.93104e-16)
(0.363668 -1.21083 -1.12308e-16)
(0.42184 -1.13444 -1.11639e-16)
(0.461964 -1.05694 3.85577e-16)
(0.489343 -0.981228 -3.639e-16)
(0.506515 -0.905065 3.91857e-16)
(0.511105 -0.823306 3.40695e-16)
(0.506404 -0.736727 -1.92557e-15)
(0.515767 -0.679244 3.44387e-15)
(0.537422 -0.635 2.38884e-15)
(-0.909136 -0.669626 -8.00113e-15)
(-0.877136 -0.701761 -3.03261e-15)
(-0.763566 -1.01025 4.11861e-16)
(-0.630797 -1.14339 1.99806e-15)
(-0.461877 -1.21828 1.90856e-15)
(-0.286646 -1.23791 5.13246e-16)
(-0.115977 -1.23586 -6.82274e-16)
(0.0410834 -1.23755 3.3162e-16)
(0.168335 -1.24468 -8.60789e-17)
(0.264534 -1.21575 -1.26761e-16)
(0.337321 -1.14889 3.56091e-17)
(0.391163 -1.073 -2.17238e-17)
(0.427394 -0.998563 -2.39812e-16)
(0.451869 -0.928681 -2.45134e-16)
(0.467246 -0.860166 -6.79558e-16)
(0.47229 -0.788429 1.7466e-15)
(0.468915 -0.712569 1.88417e-15)
(0.477237 -0.66023 8.17635e-16)
(0.500694 -0.625038 1.20049e-15)
(-0.842299 -0.695251 3.3712e-16)
(-0.809658 -0.66792 -1.51027e-15)
(-0.710887 -0.914824 1.49223e-15)
(-0.591884 -1.05983 5.73925e-16)
(-0.441824 -1.15035 1.32139e-15)
(-0.286079 -1.17936 7.78635e-16)
(-0.125587 -1.17993 -3.45733e-17)
(0.0232741 -1.18193 -5.95958e-16)
(0.147328 -1.18981 6.04181e-17)
(0.239714 -1.15951 1.42963e-16)
(0.309059 -1.09207 -1.49903e-16)
(0.360176 -1.01675 -1.52138e-16)
(0.39406 -0.944831 1.85548e-16)
(0.416679 -0.87937 4.06512e-16)
(0.431006 -0.817608 -2.6864e-16)
(0.436415 -0.754247 4.46753e-16)
(0.434244 -0.687948 -3.04731e-15)
(0.442063 -0.640259 -5.25657e-15)
(0.467265 -0.613599 5.53959e-15)
(-0.742288 -0.732001 -1.90212e-15)
(-0.679432 -0.770898 -3.16731e-15)
(-0.545555 -0.986898 1.81307e-15)
(-0.425757 -1.08379 5.27081e-16)
(-0.284234 -1.11882 -6.00838e-16)
(-0.135116 -1.12011 -3.30044e-16)
(0.00672037 -1.12577 2.53902e-16)
(0.122121 -1.13603 -1.09263e-16)
(0.210129 -1.10679 -2.21124e-16)
(0.278123 -1.0405 -5.25916e-17)
(0.328096 -0.966462 3.15074e-16)
(0.361184 -0.896931 4.20375e-17)
(0.383098 -0.835369 9.01428e-17)
(0.397104 -0.778942 9.0721e-16)
(0.403277 -0.722742 -2.10894e-15)
(0.402447 -0.66448 -4.87035e-16)
(0.409706 -0.620664 2.32358e-15)
(0.435547 -0.600983 -6.18005e-15)
(-0.676862 -0.721518 8.18391e-16)
(-0.621345 -0.744945 -2.15934e-15)
(-0.516769 -0.916911 -1.10252e-15)
(-0.413334 -1.0076 1.26912e-15)
(-0.28087 -1.0495 -3.83553e-16)
(-0.141457 -1.05744 -2.2999e-16)
(-0.0124898 -1.06845 -5.79402e-17)
(0.0970636 -1.08301 5.52151e-18)
(0.181233 -1.05707 7.86284e-17)
(0.247272 -0.993646 7.73252e-17)
(0.296561 -0.922085 -7.81576e-17)
(0.329401 -0.855188 1.73961e-16)
(0.351266 -0.797062 -2.81566e-17)
(0.365445 -0.744869 -1.05067e-15)
(0.372708 -0.694644 7.39343e-16)
(0.373127 -0.642763 2.93766e-15)
(0.380266 -0.601825 1.04989e-15)
(0.407031 -0.588471 2.35242e-15)
(-0.62891 -0.713975 3.38149e-15)
(-0.578024 -0.711811 2.58423e-15)
(-0.490042 -0.845585 -9.96044e-16)
(-0.396848 -0.932454 -8.51152e-17)