/*--------------------------------*- C++ -*----------------------------------*\
| =========                 |                                                 |
| \\      /  F ield         | OpenFOAM: The Open Source CFD Toolbox           |
|  \\    /   O peration     | Version:  2306                                  |
|   \\  /    A nd           | Website:  www.openfoam.com                      |
|    \\/     M anipulation  |                                                 |
\*---------------------------------------------------------------------------*/
FoamFile
{
    version     2.0;
    format      ascii;
    arch        "LSB;label=32;scalar=64";
    class       volScalarField;
    location    "25";
    object      p;
}
// * * * * * * * * * * * * * * * * * * * * * * * * * * * * * * * * * * * * * //

dimensions      [0 2 -2 0 0 0 0];

internalField   nonuniform List<scalar> 
1340
(
263.832
232.826
197.404
161.876
130.115
103.103
80.6477
61.8736
44.4174
27.0857
8.68112
-10.9687
-31.7118
-52.3707
-72.1742
-90.07
-104.986
-114.454
-117.543
-116.003
-110.757
-102.796
-93.94
-84.1636
-74.632
-65.9313
-58.2101
-51.017
279.059
260.701
235.862
206.598
175.767
146.234
119.486
95.903
75.0716
55.649
36.589
16.9998
-3.36408
-24.325
-44.988
-64.591
-82.2027
-96.7806
-106.335
-109.972
-109.174
-105.099
-98.5828
-91.0442
-82.2912
-73.4812
-65.2617
-57.8392
-50.7958
266.841
251.839
230.788
205.235
177.26
149.185
122.659
98.4484
76.5876
56.3958
37.0193
17.714
-1.88424
-21.7493
-41.323
-59.9585
-76.872
-91.119
-101.08
-105.779
-106.133
-103.16
-97.6086
-90.7744
-82.5564
-74.0699
-66.0171
-58.6103
-51.4665
258.645
252.897
240.786
223.3
201.636
177.34
152.158
127.463
104.122
82.4605
62.2445
42.9352
23.9721
4.97214
-14.1534
-33.0785
-51.281
-68.0872
-82.6056
-93.4262
-99.5111
-101.384
-99.9336
-95.8406
-90.2471
-83.0599
-75.2544
-67.5251
-60.1355
-52.7945
243.027
238.688
228.811
214.118
195.514
174.204
151.539
128.627
106.314
85.1006
65.0496
45.899
27.2586
8.77856
-9.70059
-28.0231
-45.7992
-62.4499
-77.1473
-88.6538
-95.9277
-99.1529
-99.0132
-96.0834
-91.3423
-84.7727
-77.2555
-69.5002
-61.8556
-54.149
226.409
228.041
224.795
216.682
204.289
188.317
169.729
149.603
128.794
108.031
87.8447
68.4418
49.7491
31.5366
13.5356
-4.42118
-22.2731
-39.7281
-56.2854
-71.1705
-83.2645
-91.5476
-95.9412
-96.9385
-95.0281
-91.0726
-85.1346
-78.0284
-70.4223
-62.7287
-54.8659
211.976
213.874
211.477
204.749
194.191
180.369
164.071
146.178
127.342
108.156
89.1168
70.4907
52.3359
34.5731
17.0315
-0.425429
-17.7861
-34.8333
-51.1365
-65.9922
-78.3989
-87.3876
-92.6904
-94.6323
-93.6081
-90.3648
-85.0333
-78.3479
-70.9205
-63.2125
-55.2351
198.45
200.525
198.784
193.176
184.114
172.078
157.739
141.84
124.883
107.334
89.6204
72.0085
54.6329
37.5161
20.5756
3.71613
-13.0681
-29.6147
-45.5575
-60.2638
-72.8294
-82.3404
-88.4061
-91.1956
-91.0171
-88.5092
-83.8313
-77.6661
-70.5535
-62.9863
-55.0456
180.713
185.758
187.947
186.73
182.02
174.195
163.646
150.963
136.79
121.533
105.549
89.1886
72.6822
56.1925
39.8071
23.5136
7.26914
-8.92556
-24.9404
-40.4673
-54.943
-67.5596
-77.4654
-84.1931
-87.7738
-88.4236
-86.6708
-82.7035
-77.1273
-70.4147
-63.0544
-55.1974
173.808
176.095
175.29
171.317
164.503
155.214
143.944
131.27
117.535
103.024
88.0115
72.6795
57.1829
41.6373
26.0829
10.5222
-5.02755
-20.4573
-35.5051
-49.681
-62.2568
-72.4442
-79.7259
-84.0218
-85.4563
-84.4592
-81.2121
-76.2605
-70.0228
-62.9552
-55.2596
164.914
164.454
161.072
155.095
146.862
136.806
125.442
113.059
99.896
86.1734
72.0209
57.5622
42.9182
28.1584
13.3226
-1.55028
-16.3581
-30.8796
-44.69
-57.1338
-67.4855
-75.2082
-80.1301
-82.2905
-82.0161
-79.4894
-75.1775
-69.4602
-62.7357
-55.2468
154.18
151.289
146.008
138.661
129.655
119.437
108.258
96.319
83.8033
70.7977
57.3922
43.6911
29.7754
15.7085
1.55226
-12.5929
-26.5411
-39.9225
-52.1512
-62.5577
-70.6056
-76.0518
-78.8624
-79.2741
-77.4412
-73.7636
-68.5906
-62.2531
-55.0135
141.975
137.27
130.674
122.574
113.364
103.259
92.4237
81.0174
69.0976
56.7238
43.9778
30.933
17.663
4.24594
-9.21529
-22.5585
-35.4625
-47.4039
-57.7697
-66.0373
-71.9151
-75.3051
-76.3561
-75.197
-72.1539
-67.5486
-61.6348
-54.6764
128.919
122.968
115.643
107.318
98.1634
88.3195
77.9227
67.0138
55.6292
43.8274
31.6634
19.208
6.54756
-6.21269
-18.9274
-31.3175
-42.9138
-53.1551
-61.5422
-67.7538
-71.6413
-73.2789
-72.7524
-70.3237
-66.2889
-60.8301
-54.1913
115.593
108.926
101.373
93.0577
84.0983
74.6145
64.6346
54.1816
43.2912
31.9983
20.3602
8.46295
-3.58867
-15.6624
-27.5123
-38.7156
-48.7565
-57.1708
-63.6213
-67.9244
-70.0812
-70.1438
-68.3062
-64.8405
-59.8553
-53.5648
108.56
102.489
95.5944
88.0144
79.8401
71.1745
62.04
52.4507
42.4263
31.9808
21.1539
10.0207
-1.32007
-12.7467
-24.04
-34.8137
-44.5967
-52.9582
-59.5618
-64.1974
-66.8102
-67.4091
-66.1308
-63.2129
-58.7071
-52.7905
96.3506
90.0212
83.0947
75.6129
67.6754
59.3054
50.5092
41.2954
31.6598
21.624
11.2448
0.610019
-10.1711
-20.8997
-31.2179
-40.6936
-48.9316
-55.6088
-60.496
-63.4933
-64.573
-63.8192
-61.4257
-57.4023
-51.8825
90.5047
84.6945
78.3315
71.4654
64.1815
56.5001
48.4262
39.9602
31.0875
21.8119
12.17
2.23241
-7.90648
-18.066
-27.9115
-37.0437
-45.1027
-51.7823
-56.8474
-60.1621
-61.6659
-61.3933
-59.4873
-55.9371
-50.8295
79.6159
73.747
67.441
60.7427
53.6788
46.26
38.4792
30.3163
21.7598
12.8274
3.5681
-5.94062
-15.5331
-24.8952
-33.6562
-41.4896
-48.1092
-53.2816
-56.8439
-58.7108
-58.8724
-57.4217
-54.3353
-49.6523
74.776
69.3596
63.5487
57.3753
50.8743
44.0524
36.8999
29.3922
21.5087
13.251
4.64794
-4.24205
-13.2707
-22.1446
-30.5157
-38.0858
-44.5931
-49.8085
-53.5562
-55.7253
-56.2713
-55.2384
-52.5953
-48.3383
70.1703
65.1579
59.7833
54.0966
48.1142
41.8376
35.2615
28.3566
21.0976
13.4739
5.49704
-2.79302
-11.2697
-19.6561
-27.6256
-34.904
-41.2541
-46.4549
-50.3255
-52.7358
-53.6143
-52.9643
-50.7439
-46.9106
61.1315
56.1535
50.9257
45.417
39.6369
33.5871
27.2367
20.5554
13.5246
6.14355
-1.56632
-9.50025
-17.4002
-24.9586
-31.9237
-38.0786
-43.2162
-47.154
-49.7511
-50.9118
-50.6069
-48.7806
-45.36
57.285
52.6798
47.8583
42.7863
37.4669
31.9001
26.0601
19.9123
13.4338
6.61455
-0.541486
-7.94785
-15.3685
-22.5124
-29.148
-35.0786
-40.1107
-44.0659
-46.7967
-48.1913
-48.1933
-46.7358
-43.7166
49.3642
44.904
40.2471
35.3489
30.2218
24.8467
19.1892
13.2226
6.93089
0.305167
-6.58731
-13.5326
-20.2581
-26.55
-32.2307
-37.1217
-41.0521
-43.8713
-45.4555
-45.7281
-44.6093
-41.9743
46.2023
42.0849
37.7968
33.2858
28.5618
23.6131
18.4061
12.9142
7.11466
0.991821
-5.40636
-11.8848
-18.1909
-24.1299
-29.542
-34.2636
-38.1327
-40.9988
-42.732
-43.2384
-42.4315
-40.1634
43.2055
39.3905
35.4362
31.2854
26.9368
22.3763
17.582
12.5269
7.18615
1.53824
-4.38196
-10.3993
-16.2843
-21.8616
-26.989
-31.5173
-35.2946
-38.173
-40.0184
-40.7255
-40.1987
-38.2765
36.8226
33.1605
29.3544
25.3494
21.1447
16.7311
12.0778
7.16579
1.96463
-3.49577
-9.0639
-14.5312
-19.7444
-24.5776
-28.896
-32.5574
-35.4177
-37.3423
-38.2171
-37.9406
-36.3422
34.3566
30.981
27.477
23.7912
19.9198
15.8504
11.5757
7.06208
2.28751
-2.73003
-7.85814
-12.912
-17.7592
-22.2908
-26.3852
-29.9102
-32.7265
-34.7009
-35.7146
-35.6549
-34.3566
32.0191
28.8773
25.6472
22.2592
18.6894
14.9549
11.0263
6.89323
2.52677
-2.06764
-6.77137
-11.4234
-15.9098
-20.1383
-24.0005
-27.3737
-30.1247
-32.1225
-33.2464
-33.3758
-32.3548
26.8591
23.8632
20.752
17.4849
14.0432
10.4476
6.67696
2.69718
-1.49342
-5.79229
-10.0566
-14.1899
-18.1159
-21.7389
-24.9464
-27.6119
-29.6091
-30.8162
-31.108
-30.3403
24.9301
22.1548
19.3015
16.2976
13.1534
9.87288
6.44691
2.82764
-0.987347
-4.91019
-8.80998
-12.6064
-16.2368
-19.6192
-22.6516
-25.2162
-27.1912
-28.4572
-28.889
-28.3516
20.553
17.916
15.1862
12.3232
9.34046
6.22188
2.93479
-0.539357
-4.11681
-7.67898
-11.157
-14.5014
-17.6436
-20.4929
-22.9415
-24.8743
-26.1764
-26.724
-26.3926
19.0619
16.6418
14.1587
11.5578
8.84057
6.01094
3.02258
-0.142063
-3.40465
-6.65738
-9.83959
-12.9129
-15.8206
-18.4846
-20.8073
-22.6826
-24.0006
-24.6434
-24.4943
17.6928
15.4645
13.2012
10.8424
8.38186
5.80931
3.08937
0.210597
-2.76469
-5.7333
-8.64169
-11.4593
-14.1408
-16.6195
-18.8092
-20.6127
-21.9278
-22.6433
-22.6526
14.3918
12.317
10.19
7.95943
5.61755
3.14894
0.526636
-2.1851
-4.89313
-7.54903
-10.1287
-12.5961
-14.8947
-16.9492
-18.6722
-19.9702
-20.7411
-20.8853
13.4201
11.5267
9.59837
7.57329
5.44814
3.1943
0.809202
-1.66015
-4.12733
-6.5491
-8.90718
-11.172
-13.2963
-15.2148
-16.8505
-18.1183
-18.9265
-19.1825
12.5608
10.8201
9.06118
7.22627
5.2849
3.23734
1.06421
-1.18042
-3.4227
-5.62824
-7.78112
-9.85694
-11.8156
-13.6016
-15.1475
-16.3781
-17.2098
-17.5602
10.1914
8.57386
6.90888
5.15261
3.27876
1.3039
-0.733197
-2.76994
-4.77721
-6.74149
-8.64137
-10.4431
-12.1003
-13.5549
-14.7411
-15.5832
-16.0039
9.6209
8.14393
6.63907
5.03565
3.33766
1.54191
-0.305581
-2.15869
-3.98666
-5.77887
-7.51618
-9.17091
-10.7049
-12.0698
-13.2074
-14.0507
9.11913
7.76791
6.39549
4.95811
3.41789
1.79193
0.103406
-1.58212
-3.24956
-4.88498
-6.47193
-7.98865
-9.40496
-10.6803
-11.7657
-12.6027
7.43977
6.19807
4.90984
3.53072
2.03887
0.505551
-1.03724
-2.558
-4.04802
-5.49557
-6.88335
-8.18765
-9.37553
-10.4073
-11.2326
7.15472
6.04102
4.89886
3.64419
2.29935
0.886652
-0.519478
-1.90377
-3.25932
-4.57689
-5.84426
-7.04208
-8.14502
-9.1207
-9.92754
6.93101
5.92644
4.89043
3.77664
2.54096
1.26015
-0.0209782
-1.27525
-2.50486
-3.70315
-4.85906
-5.958
-6.98069
-7.90135
-8.68695
5.83513
4.90478
3.89645
2.79585
1.62978
0.475239
-0.661755
-1.77605
-2.86708
-3.92329
-4.93328
-5.88196
-6.75003
-7.50914
5.75965
4.91996
4.03678
3.04786
2.00989
0.963766
-0.059407
-1.07295
-2.06536
-3.03467
-3.96621
-4.84859
-5.66704
-6.39704
5.70701
4.96083
4.17034
3.30994
2.37901
1.44746
0.518939
-0.393417
-1.30453
-2.19343
-3.05676
-3.88034
-4.64994
-5.34755
4.9973
4.3096
3.55407
2.74172
1.90073
1.07457
0.240256
-0.581869
-1.40411
-2.20375
-2.96984
-3.69151
-4.35539
5.03703
4.43591
3.78923
3.06613
2.32603
1.57638
0.837697
0.0788094
-0.671668
-1.40786
-2.11699
-2.79149
-3.42015
5.08364
4.566
3.99479
3.36448
2.70007
2.04119
1.35874
0.679516
-0.00436188
-0.673965
-1.3268
-1.95522
-2.54853
5.14216
4.68566
4.18624
3.62965
3.04483
2.4348
1.8298
1.21168
0.601129
-0.00982276
-0.608621
-1.19253
-1.75074
4.81035
4.36361
3.87537
3.34091
2.79757
2.24197
1.69445
1.13668
0.584992
0.0325338
-0.506255
-1.02618
4.93825
4.53429
4.0932
3.61749
3.11903
2.62592
2.12241
1.6239
1.11535
0.615038
0.118491
-0.361889
5.04564
4.68657
4.29792
3.87186
3.43285
2.97901
2.53092
2.07113
1.6178
1.15666
0.707449
5.14897
4.83186
4.49354
4.12907
3.73287
3.33289
2.92151
2.51646
2.09959
1.68956
1.27067
4.97378
4.68452
4.37355
4.03712
3.67752
3.31968
2.95019
2.58611
2.2036
1.82916
5.09877
4.86588
4.61394
4.32857
4.02406
3.70458
3.38782
3.04803
2.71299
2.37039
5.23037
5.04447
4.84323
4.60928
4.35015
4.08333
3.79251
3.5065
3.20335
2.90849
5.34275
5.20499
5.05006
4.86728
4.66099
4.42806
4.19535
3.93826
3.68661
3.42528
5.44846
5.34248
5.23451
5.10572
4.94247
4.76872
4.56457
4.36468
4.14857
3.932
5.46348
5.39463
5.31446
5.21083
5.06831
4.92368
4.75663
4.58921
4.40735
5.55778
5.53178
5.5
5.43116
5.34697
5.23213
5.11823
4.98823
4.84947
5.65176
5.64903
5.64225
5.61756
5.55728
5.49495
5.41405
5.33178
5.72331
5.73139
5.74224
5.72731
5.70625
5.66641
5.62986
5.5805
5.78257
5.77757
5.77611
5.77094
5.75072
5.74359
5.73382
5.72804
5.81577
5.77408
5.74572
5.71809
5.70511
5.70146
5.72185
5.74698
5.72975
5.65119
5.59724
5.56034
5.56027
5.59071
5.65145
5.67083
5.53697
5.43438
5.36897
5.34675
5.38411
5.46461
5.63462
5.46011
5.31698
5.21245
5.17027
5.19504
5.28671
5.63506
5.43452
5.25904
5.12532
5.05329
5.06417
5.14956
5.65431
5.44491
5.24866
5.08472
4.98749
4.97251
5.04505
5.69087
5.48852
5.28295
5.10163
4.97376
4.93172
4.97412
5.73483
5.5598
5.36546
5.17346
5.02527
4.94669
5.77315
5.64279
5.47624
5.29792
5.13722
5.03356
5.77106
5.6923
5.5772
5.42982
5.28301
5.16396
5.6855
5.62602
5.53579
5.4245
5.31854
5.59174
5.57753
5.54146
5.48374
5.41331
5.58459
5.57182
5.55043
5.51093
5.455
5.82986
5.85816
5.88528
5.90319
5.90534
4.59463
4.54
4.4883
4.43615
4.38415
8.79536
8.90563
8.9845
9.04052
9.06829
)
;

boundaryField
{
    inlet
    {
        type            freestreamPressure;
        freestreamValue uniform 0;
        value           nonuniform List<scalar> 5(4.97958 5.04143 5.08555 5.1168 5.13213);
    }
    outlet
    {
        type            freestreamPressure;
        freestreamValue nonuniform List<scalar> 0();
        value           nonuniform List<scalar> 0();
    }
    walls
    {
        type            zeroGradient;
    }
    frontAndBack
    {
        type            empty;
    }
    procBoundary1to0
    {
        type            processor;
        value           nonuniform List<scalar> 
94
(
168.978
168.978
162.572
162.572
154.373
154.373
144.456
144.456
133.114
133.114
120.965
120.965
113.443
101.903
101.903
95.6092
84.9729
84.9729
79.7284
74.7421
65.7778
65.7778
61.599
53.6273
53.6273
50.1618
46.8751
40.3576
40.3576
37.653
35.0677
29.767
29.767
27.6447
23.1266
23.1266
21.4476
19.899
16.4397
16.4397
15.3122
14.3029
11.7884
11.7884
11.0942
10.4637
8.66124
8.66124
8.267
7.92283
6.72843
6.72843
6.57234
6.42972
5.65177
5.65177
5.60818
5.58421
5.58638
5.22315
5.22315
5.30354
5.38065
5.43157
5.22963
5.22963
5.31721
5.39328
5.47819
5.53807
5.52206
5.52206
5.60079
5.66595
5.74305
5.80877
5.87733
5.8313
5.8313
5.82676
5.82902
5.84039
5.85726
5.86823
5.87714
5.86384
5.81317
5.71468
5.71468
5.59743
5.60407
5.81269
4.65836
8.64458
)
;
    }
    procBoundary1to2
    {
        type            processor;
        value           nonuniform List<scalar> 
84
(
-43.6089
-43.4115
-43.8696
-44.8354
-45.742
-46.2126
-46.3918
-46.1692
-46.3215
-46.4677
-46.5872
-46.5402
-46.4147
-46.1904
-45.8466
-45.3912
-44.8172
-44.1313
-43.3301
-42.418
-41.3961
-40.2701
-39.0477
-37.7351
-36.3416
-34.8685
-33.3293
-31.7282
-30.0867
-28.416
-26.7441
-25.0818
-23.4516
-21.8543
-20.303
-18.7938
-17.3372
-15.9321
-14.5336
-14.5336
-13.1324
-11.795
-10.5156
-9.28971
-8.12143
-7.00749
-5.94939
-4.94139
-3.98915
-3.096
-2.27176
-1.51854
-0.823372
0.257118
0.257118
0.86648
1.45343
2.04092
2.60728
3.16577
3.70064
4.21245
4.68396
5.2228
5.2228
5.51824
5.70274
5.77115
5.71676
5.57523
5.41837
5.29234
5.18081
5.09502
4.95492
4.95492
4.99938
5.09917
5.23748
5.34931
5.39154
5.89385
4.33659
9.0688
)
;
    }
    procBoundary1to5
    {
        type            processor;
        value           nonuniform List<scalar> 
13
(
287.208
287.208
288.981
274.467
274.467
257.937
241.771
241.771
220.674
206.484
193.205
193.205
173.127
)
;
    }
}


// ************************************************************************* //
