/*--------------------------------*- C++ -*----------------------------------*\
| =========                 |                                                 |
| \\      /  F ield         | OpenFOAM: The Open Source CFD Toolbox           |
|  \\    /   O peration     | Version:  2306                                  |
|   \\  /    A nd           | Website:  www.openfoam.com                      |
|    \\/     M anipulation  |                                                 |
\*---------------------------------------------------------------------------*/
FoamFile
{
    version     2.0;
    format      ascii;
    arch        "LSB;label=32;scalar=64";
    class       surfaceScalarField;
    location    "25";
    object      phi;
}
// * * * * * * * * * * * * * * * * * * * * * * * * * * * * * * * * * * * * * //

dimensions      [0 3 -1 0 0 0 0];

oriented        oriented;

internalField   nonuniform List<scalar> 
2568
(
0.092498
-0.0263618
0.115812
-0.0232521
0.13545
-0.019582
0.151433
-0.0159335
0.164391
-0.012905
0.174822
-0.0103829
0.183135
-0.00825349
0.190084
-0.00688862
0.195892
-0.00572896
0.201027
-0.00504345
0.205688
-0.00453021
0.21016
-0.00432137
0.214569
-0.0041859
0.219014
-0.00424046
0.223483
-0.004207
0.227594
-0.00420232
0.230662
-0.00330674
0.232566
-0.00217183
0.233839
-0.00143275
0.234591
-0.000801629
0.235031
-0.000470748
0.235418
7.38982e-05
0.234926
0.000232264
0.233853
0.00106325
0.232148
0.00177298
0.229815
0.00232273
0.226939
0.00275452
0.0032171
0.0682092
-0.0574898
0.0941873
-0.0522719
0.117427
-0.0464274
0.137757
-0.0398576
0.155066
-0.0331858
0.169796
-0.027579
0.182361
-0.0228856
0.192971
-0.0187937
0.202126
-0.0159689
0.210105
-0.0136143
0.21718
-0.0120156
0.223685
-0.0108924
0.229868
-0.0103399
0.235852
-0.00993771
0.241759
-0.00992415
0.247679
-0.0098847
0.253285
-0.00991093
0.258109
-0.00844593
0.26187
-0.00638987
0.264817
-0.00466457
0.266709
-0.00287787
0.267425
-0.00115343
0.26722
0.000713158
0.265701
0.00142438
0.263689
0.0031494
0.261333
0.00413461
0.258626
0.00503324
0.2556
0.00558988
0.00617545
0.072762
-0.0860361
0.0990235
-0.0784647
0.122584
-0.0699272
0.143382
-0.0606002
0.161271
-0.0510191
0.176494
-0.0427453
0.189486
-0.0358108
0.200579
-0.0298174
0.210109
-0.0254133
0.218452
-0.0218664
0.225871
-0.0193194
0.232648
-0.0175354
0.238989
-0.0165067
0.245079
-0.0158238
0.251098
-0.0157102
0.257038
-0.015625
0.262582
-0.0154264
0.267422
-0.013431
0.271298
-0.0104437
0.274431
-0.00797402
0.276897
-0.00549839
0.278726
-0.00314782
0.280241
-0.000581195
0.280693
0.000738179
0.280602
0.00306632
0.279896
0.00483085
0.278529
0.00625655
0.276492
0.00750213
0.00859853
0.0496943
-0.119336
0.0787195
-0.114993
0.105163
-0.10484
0.128836
-0.093542
0.149865
-0.0815664
0.168045
-0.0691391
0.183689
-0.0583156
0.197234
-0.049276
0.208982
-0.0414706
0.2193
-0.0356239
0.228394
-0.0308427
0.236618
-0.0274027
0.244138
-0.0248952
0.251211
-0.023372
0.257975
-0.0223563
0.264544
-0.0220111
0.270967
-0.021839
0.277025
-0.0214674
0.282381
-0.0190371
0.28681
-0.0152805
0.290465
-0.0120689
0.293405
-0.00880165
0.29567
-0.00563351
0.297559
-0.00236604
0.298429
-0.000556298
0.29873
0.00263977
0.298492
0.00497762
0.297617
0.00702783
0.296128
0.0087847
0.0104628
0.0560498
-0.150063
0.0858204
-0.144685
0.112746
-0.131702
0.136772
-0.117503
0.158125
-0.102861
0.176555
-0.0875017
0.192495
-0.0741814
0.206418
-0.063113
0.218565
-0.0535175
0.229307
-0.0462624
0.238937
-0.0403506
0.247638
-0.0359801
0.255625
-0.0327241
0.263114
-0.0306887
0.270262
-0.0292884
0.277144
-0.028683
0.283792
-0.0282804
0.29004
-0.0276492
0.295597
-0.0246088
0.30024
-0.0200653
0.304068
-0.0160418
0.307147
-0.0120824
0.309509
-0.00818051
0.311435
-0.004245
0.312295
-0.00149534
0.312519
0.00220074
0.312252
0.00522459
0.311402
0.00770733
0.310004
0.0100561
0.0121494
0.0310865
-0.178189
0.0630109
-0.181912
0.0937509
-0.175369
0.121362
-0.159237
0.145856
-0.141921
0.167544
-0.124478
0.186243
-0.106117
0.202388
-0.0902393
0.216564
-0.0771796
0.229056
-0.065891
0.240185
-0.0572567
0.250234
-0.0502557
0.259388
-0.0449735
0.267894
-0.0410388
0.275875
-0.038453
0.283486
-0.0366448
0.290814
-0.035748
0.297849
-0.0350901
0.304447
-0.0341594
0.310409
-0.0307046
0.315449
-0.0254326
0.319599
-0.0206678
0.323019
-0.0159636
0.325676
-0.0112347
0.327883
-0.00653825
0.329047
-0.00307872
0.329529
0.00149144
0.329425
0.00520942
0.328644
0.00838142
0.327265
0.0112486
0.0140005
0.0371768
-0.210513
0.0704539
-0.215147
0.102389
-0.207195
0.130898
-0.187659
0.156023
-0.166968
0.178167
-0.146537
0.197172
-0.12504
0.213546
-0.106516
0.227946
-0.0914708
0.240685
-0.0785113
0.252099
-0.0685408
0.262469
-0.0604961
0.272031
-0.0543857
0.280932
-0.0497824
0.289331
-0.0466612
0.297322
-0.0444488
0.304993
-0.0431968
0.312309
-0.0422495
0.319204
-0.0409065
0.325387
-0.036898
0.330718
-0.0307712
0.335121
-0.0252545
0.338722
-0.0196805
0.341543
-0.0143009
0.34385
-0.00875687
0.34513
-0.0043381
0.345662
0.000809875
0.345614
0.00523688
0.344908
0.00892216
0.343538
0.0125051
0.0158267
0.0435697
-0.244358
0.0783818
-0.249845
0.111671
-0.240427
0.141233
-0.217098
0.167137
-0.192774
0.189866
-0.169165
0.209225
-0.144301
0.225837
-0.123014
0.240431
-0.105946
0.253362
-0.0913051
0.264966
-0.0800055
0.275637
-0.0710095
0.285487
-0.0640663
0.294739
-0.0588339
0.303497
-0.0551974
0.311873
-0.0525733
0.319887
-0.0509607
0.327573
-0.0497035
0.334807
-0.04801
0.341376
-0.0434974
0.347067
-0.0366876
0.351814
-0.0304157
0.355731
-0.0240738
0.358841
-0.0178652
0.361391
-0.0114789
0.3629
-0.00622825
0.363645
-0.000238196
0.363722
0.00501959
0.363104
0.00945727
0.361772
0.0136866
0.0177741
0.0145756
0.0502335
-0.279875
0.0866961
-0.286234
0.121564
-0.275165
0.15234
-0.247789
0.179155
-0.219479
0.20256
-0.192478
0.222385
-0.164021
0.239283
-0.139808
0.254081
-0.120624
0.267175
-0.104276
0.278967
-0.0916669
0.28981
-0.0817122
0.299939
-0.0740469
0.309463
-0.0681878
0.318524
-0.0640863
0.327227
-0.0610831
0.335599
-0.0591639
0.343583
-0.0575102
0.351132
-0.0554554
0.358048
-0.0503326
0.364103
-0.0427689
0.36916
-0.0355339
0.37337
-0.0284249
0.376713
-0.0213347
0.37948
-0.0141834
0.381208
-0.00783998
0.382094
-0.00123707
0.382282
0.00483503
0.381718
0.00985992
0.380416
0.0148501
0.0197104
0.0571832
0.0955133
-0.324502
0.132016
-0.311587
0.16417
-0.279794
0.192033
-0.247258
0.216252
-0.216593
0.236615
-0.184272
0.25386
-0.156942
0.268894
-0.135536
0.282132
-0.117391
0.294069
-0.103466
0.30509
-0.0925915
0.315382
-0.0841688
0.325133
-0.077756
0.334482
-0.0732204
0.343467
-0.069851
0.352103
-0.0675605
0.360422
-0.0656245
0.368317
-0.063181
0.375577
-0.0575678
0.381987
-0.0492796
0.387406
-0.0412726
0.391911
-0.0333064
0.395552
-0.0254115
0.398546
-0.0173472
0.400507
-0.010155
0.401606
-0.00268759
0.401915
0.00433257
0.401466
0.0102305
0.400216
0.0159886
0.0217301
0.104769
0.143091
-0.349814
0.176718
-0.313295
0.205761
-0.276217
0.230892
-0.24164
0.251896
-0.20519
0.269546
-0.174488
0.284851
-0.150742
0.29828
-0.130706
0.31035
-0.115421
0.321482
-0.103592
0.331929
-0.0944747
0.341864
-0.0875347
0.3514
-0.0825938
0.360628
-0.0789209
0.369577
-0.0763503
0.378189
-0.0741032
0.386379
-0.071251
0.394003
-0.0651297
0.400772
-0.056009
0.406532
-0.0470805
0.411375
-0.0381879
0.415291
-0.0294191
0.418528
-0.0204737
0.420715
-0.0122079
0.42197
-0.0039969
0.422435
0.00386234
0.422059
0.0104625
0.420852
0.0170284
0.0237011
0.154847
0.190018
-0.348386
0.220328
-0.306447
0.246488
-0.267715
0.26822
-0.226831
0.286358
-0.192532
0.301982
-0.166271
0.315597
-0.144217
0.327797
-0.127514
0.339056
-0.114723
0.349598
-0.104879
0.359674
-0.0974452
0.369395
-0.0921465
0.378826
-0.0881558
0.388
-0.0853359
0.396877
-0.0827769
0.405408
-0.0796274
0.413377
-0.0730004
0.42051
-0.0631696
0.426633
-0.0533687
0.431798
-0.0436147
0.436037
-0.033964
0.439503
-0.0240971
0.441948
-0.0149468
0.443412
-0.00585266
0.444019
0.00300566
0.443769
0.0105932
0.442594
0.0181146
0.0257777
0.204169
0.235796
-0.338046
0.263041
-0.294901
0.285601
-0.249316
0.304299
-0.211164
0.320296
-0.182186
0.334162
-0.158004
0.346497
-0.139748
0.357849
-0.125971
0.368497
-0.115401
0.378681
-0.107501
0.38853
-0.101857
0.398131
-0.0976262
0.407506
-0.0945768
0.416644
-0.0917967
0.425463
-0.0883408
0.433782
-0.0812485
0.441268
-0.0706016
0.447752
-0.0598478
0.453261
-0.0491134
0.45779
-0.0385076
0.461528
-0.0277219
0.464222
-0.0175235
0.4659
-0.00756184
0.466689
0.00220897
0.466537
0.0105894
0.465429
0.0190116
0.0277406
0.252284
0.280647
-0.323234
0.304073
-0.272679
0.32338
-0.230408
0.33982
-0.198557
0.35395
-0.172059
0.366458
-0.152172
0.377937
-0.137355
0.388672
-0.126025
0.398911
-0.117622
0.408863
-0.11167
0.418612
-0.107231
0.428167
-0.103963
0.437523
-0.100986
0.44663
-0.0972785
0.455271
-0.0897693
0.463105
-0.0783696
0.469947
-0.0667428
0.4758
-0.0550713
0.480671
-0.0435537
0.484683
-0.0318299
0.487632
-0.0207305
0.489523
-0.0098007
0.490482
0.000924368
0.490463
0.010453
0.489417
0.0199267
0.0298584
0.299344
-0.352807
0.323664
-0.29696
0.343676
-0.250367
0.360591
-0.215423
0.375056
-0.186457
0.38775
-0.164799
0.399343
-0.148861
0.410143
-0.136737
0.420469
-0.127843
0.430494
-0.121592
0.440342
-0.11696
0.450046
-0.113559
0.459621
-0.110446
0.468984
-0.106551
0.477927
-0.0986245
0.486119
-0.0865053
0.493317
-0.073887
0.499514
-0.0612363
0.504708
-0.0486941
0.508995
-0.0360464
0.512198
-0.0238423
0.514326
-0.0119659
0.515504
-0.000275909
0.515594
0.0101965
0.514636
0.0206095
0.0317501
0.319169
0.344481
-0.322258
0.365207
-0.271056
0.382675
-0.232842
0.397481
-0.20121
0.410421
-0.177679
0.422135
-0.160508
0.433024
-0.147553
0.443398
-0.13813
0.453488
-0.131584
0.463424
-0.126777
0.473239
-0.123242
0.482976
-0.120027
0.492581
-0.116002
0.501856
-0.107741
0.510359
-0.0949036
0.517899
-0.08136
0.524439
-0.0677816
0.529967
-0.0542509
0.534544
-0.0406858
0.538032
-0.0274983
0.540402
-0.0146315
0.541762
-0.00195656
0.542018
0.00972465
0.541135
0.0213143
0.0338093
0.366554
-0.34862
0.388048
-0.292529
0.406093
-0.250849
0.421314
-0.216394
0.434491
-0.190804
0.446384
-0.172352
0.457356
-0.158455
0.467792
-0.148496
0.477927
-0.141625
0.487913
-0.136671
0.497848
-0.133066
0.507724
-0.129805
0.517548
-0.125722
0.527072
-0.117185
0.535897
-0.103648
0.543788
-0.0891962
0.55067
-0.0745912
0.556542
-0.0600794
0.561401
-0.0454781
0.565168
-0.031241
0.56779
-0.0172748
0.569385
-0.00362231
0.569779
0.00915609
0.568985
0.0217967
0.0355603
0.389965
0.412283
-0.314837
0.430944
-0.26951
0.446589
-0.232008
0.460067
-0.204246
0.472121
-0.184364
0.483214
-0.169498
0.493698
-0.158917
0.503875
-0.151724
0.513907
-0.146611
0.523914
-0.142956
0.533925
-0.139688
0.543955
-0.135596
0.553746
-0.126824
0.562876
-0.112627
0.57108
-0.0972845
0.578287
-0.0817144
0.584476
-0.0662202
0.589646
-0.0506485
0.593687
-0.0353741
0.596581
-0.020381
0.598376
-0.00569071
0.598954
0.00833287
0.598292
0.0222506
0.0375028
0.437948
-0.338081
0.457276
-0.288801
0.473393
-0.248107
0.487179
-0.218008
0.499453
-0.196598
0.510653
-0.180656
0.521208
-0.169405
0.531416
-0.161862
0.541522
-0.156621
0.551569
-0.152912
0.561704
-0.149715
0.571896
-0.145696
0.581945
-0.136779
0.591356
-0.121968
0.599856
-0.105702
0.607401
-0.0892094
0.613913
-0.0726656
0.619353
-0.0560766
0.623712
-0.039709
0.626857
-0.0235943
0.628891
-0.00778895
0.629624
0.00739601
0.629086
0.0224885
0.0390781
0.465122
-0.362359
0.485151
-0.308848
0.501785
-0.26471
0.515931
-0.232123
0.528446
-0.209081
0.539786
-0.191952
0.550431
-0.179996
0.560686
-0.172051
0.570798
-0.166652
0.580922
-0.162943
0.591134
-0.15981
0.601507
-0.15594
0.611768
-0.146889
0.62143
-0.131478
0.630237
-0.114365
0.638067
-0.0969188
0.644883
-0.0793862
0.650648
-0.0618027
0.655256
-0.0443397
0.658674
-0.0271522
0.660948
-0.0102587
0.661897
0.00621108
0.661498
0.0226795
0.0408116
0.493862
0.51467
-0.329592
0.531852
-0.28188
0.546396
-0.24664
0.559169
-0.221825
0.570684
-0.203417
0.581391
-0.190651
0.591707
-0.182289
0.601865
-0.176733
0.612033
-0.173013
0.622344
-0.17003
0.632841
-0.166337
0.643305
-0.15727
0.653231
-0.141316
0.662281
-0.123349
0.670402
-0.104973
0.677521
-0.0864732
0.683566
-0.0678307
0.688472
-0.0492684
0.692165
-0.0309002
0.694674
-0.0128613
0.69581
0.00490302
0.695574
0.0226337
0.0421803
0.545895
-0.351213
0.563665
-0.299608
0.578643
-0.261585
0.591717
-0.234854
0.603413
-0.215069
0.61426
-0.201441
0.624626
-0.192596
0.634808
-0.186845
0.645025
-0.183148
0.655392
-0.180306
0.666026
-0.176856
0.6767
-0.167811
0.686827
-0.151296
0.696127
-0.132507
0.704526
-0.113245
0.711921
-0.0937607
0.718236
-0.0740854
0.723426
-0.0544406
0.727378
-0.0349356
0.730114
-0.0157168
0.731488
0.0033293
0.731417
0.022532
0.0436625
0.578964
0.597355
-0.317996
0.612763
-0.276963
0.626165
-0.24821
0.638067
-0.226924
0.649027
-0.212339
0.659477
-0.202983
0.669732
-0.197018
0.679968
-0.193304
0.690419
-0.190661
0.701189
-0.187537
0.711995
-0.178522
0.722339
-0.161559
0.731955
-0.142048
0.740458
-0.121699
0.748149
-0.101421
0.754799
-0.0807411
0.760213
-0.05988
0.764424
-0.0392131
0.767483
-0.0188563
0.769068
0.00160036
0.769152
0.0222197
0.0448106
0.63298
-0.337031
0.648888
-0.292812
0.662627
-0.261891
0.674769
-0.239004
0.685879
-0.223408
0.6964
-0.213446
0.706734
-0.207289
0.717052
-0.203552
0.727503
-0.201028
0.738339
-0.198277
0.749447
-0.18951
0.759934
-0.171917
0.769662
-0.15165
0.778632
-0.130553
0.786444
-0.109138
0.793206
-0.0874406
0.799045
-0.065688
0.803535
-0.0437459
0.806586
-0.0219713
0.808416
-0.000375268
0.808884
0.0216242
0.0460352
0.670625
-0.356972
0.687039
-0.309161
0.701239
-0.276033
0.713584
-0.251316
0.724913
-0.234698
0.735535
-0.224024
0.745798
-0.217495
0.756156
-0.213826
0.766797
-0.211584
0.777924
-0.209306
0.788945
-0.20044
0.799758
-0.182642
0.809606
-0.161431
0.818735
-0.139638
0.826876
-0.117261
0.834009
-0.0945835
0.839851
-0.0715615
0.844631
-0.0485845
0.848097
-0.0255076
0.85009
-0.00246959
0.850582
0.020947
0.0467806
0.710474
0.727509
-0.326155
0.741965
-0.290438
0.754756
-0.264064
0.766169
-0.2461
0.77695
-0.234768
0.787366
-0.227881
0.797876
-0.224273
0.808582
-0.222213
0.819563
-0.220194
0.830979
-0.211752
0.841855
-0.193405
0.851929
-0.171403
0.86107
-0.148687
0.869391
-0.125508
0.876743
-0.101883
0.882968
-0.0777591
0.887893
-0.0535267
0.891646
-0.0292901
0.893934
-0.00485109
0.894577
0.0202065
0.0475484
0.770106
-0.343764
0.785195
-0.305442
0.798095
-0.276976
0.809841
-0.257798
0.820655
-0.245632
0.831374
-0.238531
0.841793
-0.234645
0.852435
-0.23276
0.863752
-0.231416
0.875185
-0.22309
0.886244
-0.204385
0.896526
-0.181625
0.906043
-0.158168
0.914526
-0.13398
0.921953
-0.10932
0.928283
-0.0841227
0.933608
-0.058899
0.937513
-0.0332526
0.939968
-0.00737575
0.941028
0.0189902
0.0481783
0.815189
-0.362058
0.830664
-0.32091
0.844107
-0.290312
0.855894
-0.269657
0.867082
-0.25673
0.87768
-0.24915
0.888293
-0.245179
0.899227
-0.243615
0.910514
-0.242623
0.922216
-0.234701
0.933439
-0.215523
0.943793
-0.191903
0.953286
-0.167595
0.962037
-0.142682
0.969775
-0.11702
0.976455
-0.090785
0.981643
-0.0640895
0.985828
-0.0374518
0.988702
-0.0103061
0.989799
0.017814
0.0484898
0.862844
0.878906
-0.336857
0.892572
-0.303973
0.904918
-0.281926
0.916119
-0.267987
0.926948
-0.259924
0.937595
-0.255777
0.948594
-0.254539
0.9601
-0.254039
0.971933
-0.246456
0.983203
-0.226728
0.993864
-0.202517
1.00357
-0.177277
1.01232
-0.151423
1.02009
-0.124802
1.02684
-0.0975645
1.03266
-0.0699471
1.03685
-0.0416856
1.03989
-0.0133951
1.04128
0.0162883
0.0486515
0.929704
-0.353225
0.943983
-0.318219
0.956421
-0.294362
0.967881
-0.279435
0.978878
-0.270946
0.989835
-0.266701
1.0009
-0.265577
1.0125
-0.265598
1.02447
-0.25837
1.03602
-0.238221
1.04674
-0.213185
1.05653
-0.187022
1.06551
-0.160377
1.07356
-0.132823
1.08049
-0.104491
1.08614
-0.0755947
1.09072
-0.0462746
1.09377
-0.0164706
1.09548
0.0145042
0.0485696
0.983536
0.998055
-0.332647
1.011
-0.307303
1.02277
-0.291283
1.03388
-0.282063
1.04488
-0.277763
1.05603
-0.276705
1.06785
-0.277409
1.08008
-0.270566
1.09178
-0.249882
1.10256
-0.223925
1.11266
-0.19711
1.12174
-0.169454
1.12979
-0.140878
1.13676
-0.111489
1.14275
-0.0816114
1.14757
-0.0511321
1.1509
-0.0198397
1.15266
0.0126335
0.0480749
1.05549
-0.347821
1.06858
-0.320402
1.08063
-0.303364
1.09204
-0.293529
1.10314
-0.28889
1.11459
-0.288204
1.12651
-0.289366
1.13888
-0.282933
1.15089
-0.26187
1.16182
-0.234831
1.17187
-0.207135
1.18104
-0.1786
1.1892
-0.149031
1.19659
-0.118865
1.20264
-0.0876656
1.20743
-0.0559256
1.21102
-0.0234524
1.2131
0.0105058
0.0475507
1.11594
-0.363482
1.12955
-0.334034
1.14189
-0.315656
1.1534
-0.305103
1.16485
-0.300375
1.17639
-0.299827
1.18855
-0.30156
1.20118
-0.295591
1.21321
-0.273889
1.22445
-0.246061
1.23456
-0.217227
1.2438
-0.187844
1.2522
-0.15743
1.25947
-0.126148
1.2657
-0.0939125
1.27071
-0.0609649
1.27444
-0.0272113
1.27669
0.0081635
0.0467535
1.17969
1.19394
-0.34817
1.20651
-0.328254
1.21858
-0.317151
1.23
-0.311853
1.24177
-0.311654
1.2543
-0.314176
1.26697
-0.308301
1.27929
-0.286216
1.29057
-0.257336
1.30098
-0.227622
1.31043
-0.197273
1.31879
-0.165782
1.32605
-0.133406
1.33245
-0.100299
1.33754
-0.0660536
1.34139
-0.031063
1.34395
0.00555668
0.0456543
1.26182
-0.362698
1.27484
-0.34123
1.28706
-0.329369
1.29899
-0.323802
1.31099
-0.323752
1.32353
-0.326767
1.33662
-0.321428
1.34911
-0.298717
1.36057
-0.268775
1.37115
-0.238197
1.38053
-0.206641
1.38898
-0.174228
1.39662
-0.141045
1.40291
-0.106599
1.4082
-0.0713509
1.41217
-0.0350535
1.41479
0.00288937
0.0442813
1.33348
-0.377749
1.34707
-0.354811
1.35972
-0.341951
1.37175
-0.335895
1.38406
-0.336078
1.39687
-0.339655
1.41038
-0.334969
1.42308
-0.311418
1.43471
-0.280397
1.44522
-0.2487
1.4548
-0.216199
1.46345
-0.182873
1.47094
-0.148523
1.47738
-0.113021
1.48286
-0.0768133
1.48706
-0.0392503
1.48985
8.6732e-05
0.0427291
1.40934
1.42336
-0.368704
1.43613
-0.354724
1.44878
-0.348512
1.46133
-0.348715
1.47459
-0.352956
1.48819
-0.348596
1.50118
-0.32442
1.51301
-0.29221
1.52384
-0.25951
1.53348
-0.22582
1.54221
-0.191596
1.54968
-0.155981
1.55638
-0.119711
1.56177
-0.0822094
1.56595
-0.0434306
1.56904
-0.00303138
0.0410246
1.50391
-0.38319
1.5173
-0.368066
1.53008
-0.361331
1.54296
-0.361616
1.55654
-0.366608
1.57048
-0.362552
1.58383
-0.337794
1.59597
-0.304346
1.60674
-0.270266
1.61657
-0.235632
1.62526
-0.200269
1.63295
-0.163659
1.63953
-0.126267
1.64509
-0.087756
1.64949
-0.0478173
1.65275
-0.0062752
1.5889
-0.398091
1.60274
-0.381896
1.61599
-0.374556
1.62916
-0.374877
1.64324
-0.380692
1.65765
-0.377024
1.67125
-0.351385
1.68348
-0.316579
1.69458
-0.281355
1.70449
-0.245525
1.71327
-0.209027
1.72107
-0.171439
1.72765
-0.132826
1.73326
-0.0933492
1.73775
-0.0523044
-0.00956282
1.67874
1.69312
-0.396192
1.70667
-0.388169
1.7204
-0.388563
1.73465
-0.395034
1.74964
-0.391965
1.76357
-0.365372
1.77606
-0.329066
1.78739
-0.292676
1.7974
-0.255518
1.80628
-0.217885
1.81406
-0.179198
1.82089
-0.139635
1.8264
-0.0988402
1.83098
-0.056865
-0.0130958
1.78843
-0.410872
1.80255
-0.402196
1.81679
-0.402878
1.83167
-0.40983
1.84673
-0.407108
1.86123
-0.379871
1.87409
-0.34193
1.88554
-0.304114
1.89578
-0.265738
1.90476
-0.226845
1.91266
-0.187067
1.91924
-0.146192
1.92505
-0.104623
1.92971
-0.0615148
-0.0166394
1.88918
-0.426351
1.90388
-0.416933
1.91853
-0.417415
1.93384
-0.425206
1.94965
-0.422881
1.96431
-0.394571
1.97759
-0.355199
1.9893
-0.315828
1.99966
-0.276097
2.00877
-0.235931
2.01666
-0.194937
2.02352
-0.15302
2.02923
-0.110315
2.03397
-0.0662323
-0.0202984
1.99559
2.01082
-0.432064
2.0259
-0.43253
2.04183
-0.441096
2.05822
-0.43933
2.07351
-0.409819
2.08707
-0.368808
2.09894
-0.327704
2.10958
-0.286739
2.11882
-0.245164
2.12686
-0.202951
2.13374
-0.159867
2.1395
-0.116049
2.14432
-0.0710303
-0.0239619
2.12377
-0.447884
2.13961
-0.448304
2.15596
-0.457509
2.1729
-0.456176
2.18876
-0.42574
2.20269
-0.382706
2.21497
-0.340043
2.22566
-0.297428
2.23506
-0.254573
2.24325
-0.211129
2.25016
-0.166755
2.2561
-0.121964
2.26087
-0.075779
-0.0277432
2.24297
-0.464342
2.25936
-0.464727
2.2767
-0.474705
2.29418
-0.473708
2.31051
-0.441971
2.32488
-0.397156
2.33755
-0.352695
2.34854
-0.308468
2.35813
-0.264156
2.36637
-0.219363
2.37346
-0.173822
2.3792
-0.127683
2.38406
-0.0806178
-0.0317852
2.36896
2.3861
-0.481715
2.40385
-0.492488
2.42225
-0.491964
2.43904
-0.45882
2.45402
-0.412058
2.46703
-0.365765
2.47842
-0.319816
2.4882
-0.273976
2.49651
-0.227674
2.50354
-0.180837
2.50962
-0.133748
2.51445
-0.0854303
-0.0357056
2.51987
-0.49968
2.53839
-0.510865
2.55743
-0.511042
2.57515
-0.476418
2.5905
-0.427452
2.604
-0.379177
2.6156
-0.331473
2.62564
-0.284015
2.63406
-0.236087
2.64143
-0.188206
2.64735
-0.139648
2.65241
-0.090477
-0.0396336
2.66097
-0.518199
2.68041
-0.530362
2.7003
-0.530818
2.71858
-0.494728
2.73459
-0.443363
2.74858
-0.393224
2.76065
-0.343509
2.77084
-0.294224
2.77964
-0.24488
2.78687
-0.195439
2.79302
-0.145795
2.79794
-0.0953921
-0.0437108
2.81019
-0.537753
2.83046
-0.550594
2.85107
-0.551458
2.87029
-0.513897
2.88702
-0.460135
2.9013
-0.407467
2.91368
-0.355937
2.92435
-0.304843
2.93328
-0.253857
2.94065
-0.202815
2.94693
-0.152082
2.95198
-0.100455
-0.0478114
2.96744
2.98893
-0.572073
3.01051
-0.573027
3.03042
-0.533832
3.04771
-0.477411
3.06273
-0.422559
3.07568
-0.3688
3.0865
-0.315725
3.09567
-0.262997
3.10345
-0.21064
3.10962
-0.158284
3.11471
-0.105555
-0.0519775
3.15614
-0.594403
3.17886
-0.595733
3.19966
-0.554655
3.21777
-0.495591
3.23341
-0.438123
3.24667
-0.38212
3.25806
-0.32704
3.2674
-0.272398
3.27515
-0.218391
3.2815
-0.164687
3.28689
-0.110985
-0.0562034
3.33282
-0.617783
3.35653
-0.61944
3.37836
-0.576528
3.39728
-0.514467
3.41353
-0.454452
3.4273
-0.39579
3.43889
-0.338687
3.4488
-0.282253
3.45674
-0.226398
3.46331
-0.17129
3.46853
-0.116241
3.51922
-0.642203
3.54415
-0.644383
3.56701
-0.599328
3.58675
-0.53429
3.60374
-0.471356
3.61815
-0.410257
3.63028
-0.350724
3.64029
-0.292317
3.64854
-0.234633
3.65521
-0.178018
-0.121718
3.71604
3.74234
-0.670589
3.76626
-0.6233
3.78693
-0.554902
3.8045
-0.48901
3.81966
-0.425329
3.8322
-0.363315
3.8426
-0.302674
3.85111
-0.243196
3.85808
-0.185001
-0.127166
3.95148
-0.698236
3.97661
-0.648401
3.99814
-0.576492
4.01679
-0.507623
4.03229
-0.440917
4.04556
-0.376537
4.05628
-0.313444
4.06514
-0.252085
4.07205
-0.191909
-0.132902
4.17192
-0.726985
4.19848
-0.674973
4.22127
-0.599269
4.24052
-0.526954
4.25708
-0.457471
4.2706
-0.390119
4.28188
-0.324748
4.291
-0.261241
4.29838
-0.199299
-0.138679
4.40496
-0.757462
4.43254
-0.702541
4.4566
-0.623323
4.47695
-0.547337
4.49401
-0.474576
4.5083
-0.404442
4.52
-0.336527
4.52942
-0.270685
4.53695
-0.206811
-0.14471
4.65061
-0.789424
4.67995
-0.731861
4.7049
-0.648263
4.72623
-0.568704
4.74412
-0.492499
4.75918
-0.419575
4.77129
-0.348673
4.78118
-0.280603
4.789
-0.214638
-0.150852
4.90993
4.9407
-0.762587
4.96703
-0.674649
4.98942
-0.5911
5.00816
-0.511313
5.02372
-0.43516
5.03664
-0.361637
5.04677
-0.290779
5.05508
-0.222923
-0.157067
5.21596
-0.794844
5.24357
-0.702288
5.26703
-0.614618
5.28688
-0.531197
5.3032
-0.451534
5.31658
-0.375073
5.32729
-0.301508
5.3357
-0.231349
-0.163732
5.50631
-0.828862
5.5354
-0.731409
5.56018
-0.63945
5.58088
-0.55196
5.59814
-0.468835
5.61203
-0.38901
5.62332
-0.312809
5.63201
-0.240055
5.81287
-0.864472
5.84348
-0.76207
5.86946
-0.665485
5.89119
-0.573728
5.90917
-0.486862
5.92386
-0.403735
5.93552
-0.324478
-0.249335
6.13641
-0.902058
6.16855
-0.794255
6.19578
-0.692764
6.21869
-0.5967
6.23755
-0.50577
6.25284
-0.419054
6.26501
-0.336693
-0.258957
6.47791
-0.941519
6.51165
-0.828047
6.54029
-0.721435
6.56428
-0.620736
6.58404
-0.525584
6.60005
-0.435112
6.61279
-0.349478
-0.268873
6.83754
6.8734
-0.86391
6.90378
-0.75184
6.92889
-0.645871
6.94959
-0.546349
6.96564
-0.451206
6.97964
-0.363545
-0.27924
7.25617
-0.901945
7.28669
-0.782363
7.3136
-0.672837
7.33448
-0.567249
7.35301
-0.469824
7.36667
-0.37725
-0.28933
7.65803
-0.93987
7.69228
-0.816671
7.71917
-0.699724
7.7424
-0.590574
7.76075
-0.488195
7.77408
-0.390662
-0.301607
5.56522
-0.947845
5.57475
-0.826211
5.58848
-0.713522
5.60657
-0.608644
5.62637
-0.508085
5.6506
-0.414911
-0.329038
6.1226
-0.953845
6.13391
-0.837575
6.14936
-0.728968
6.16769
-0.627069
6.19033
-0.530735
6.21725
-0.441877
-0.357812
6.73629
-0.960577
6.74827
-0.849566
6.76553
-0.746299
6.78565
-0.647213
6.81121
-0.556343
6.83971
-0.470432
-0.389367
7.41255
-0.968303
7.42666
-0.863728
7.44341
-0.763059
7.46671
-0.670594
7.4941
-0.583784
7.52566
-0.502015
8.15647
-0.978505
8.1704
-0.877673
8.19063
-0.783372
8.2161
-0.696088
8.24549
-0.613262
-0.535525
8.97316
-0.987627
8.98964
-0.894203
9.01111
-0.804841
9.03886
-0.723912
9.07178
-0.646205
-0.573703
9.87396
9.89077
-0.911031
9.91485
-0.828942
9.94516
-0.754227
9.98046
-0.681564
-0.615425
10.882
-0.929578
10.9077
-0.854627
10.9408
-0.787294
10.98
-0.720788
-0.660913
11.9703
-0.950108
11.9991
-0.883493
12.0338
-0.82205
12.0771
-0.764097
-0.710266
13.1645
-0.972943
13.1956
-0.914515
13.2362
-0.86273
13.2828
-0.810615
-0.765293
14.4774
-0.997025
14.5121
-0.949324
14.5539
-0.904462
14.6064
-0.863214
-0.824979
15.9335
-1.02532
15.9736
-0.989325
16.0229
-0.953756
16.0828
-0.923055
-0.892834
17.5513
17.5906
17.643
17.705
)
;

boundaryField
{
    inlet
    {
        type            calculated;
        value           nonuniform List<scalar> 5(-1.05424 -1.0286 -1.00625 -0.984989 -0.965588);
    }
    outlet
    {
        type            calculated;
        value           nonuniform List<scalar> 0();
    }
    walls
    {
        type            calculated;
        value           uniform 0;
    }
    frontAndBack
    {
        type            empty;
        value           nonuniform List<scalar> 0();
    }
    procBoundary1to0
    {
        type            processor;
        value           nonuniform List<scalar> 
94
(
-0.271958
-0.0197189
-0.317097
-0.0644104
-0.364582
-0.114439
-0.389904
-0.167154
-0.385064
-0.219059
-0.371024
-0.269648
-0.288037
-0.383845
-0.340126
-0.362273
-0.376289
-0.414677
-0.440821
-0.46838
-0.387728
-0.524216
-0.556222
-0.373803
-0.613805
-0.650655
-0.689548
-0.377727
-0.752346
-0.796744
-0.843596
-0.381122
-0.91308
-0.9662
-0.370566
-1.04029
-1.10017
-1.16344
-0.379726
-1.24725
-1.31835
-1.39351
-0.393604
-1.48932
-1.57386
-1.66305
-0.413664
-1.77363
-1.87354
-1.97937
-0.442436
-2.1078
-2.22639
-2.35165
-0.481509
-2.50186
-2.64233
-2.79064
-2.94709
-0.558221
-3.13387
-3.30934
-3.49471
-3.69019
-0.66796
-3.9237
-4.14316
-4.37437
-4.61864
-4.87646
-0.822866
-5.18367
-5.4724
-5.77731
-6.09895
-6.43855
-6.79719
-0.982005
-7.21821
-7.62022
-5.5573
-6.11667
-6.7296
-7.4049
-8.14632
-8.96416
-9.86322
-0.998396
-10.8635
-11.9499
-13.1416
-14.4533
-15.9052
-17.5223
)
;
    }
    procBoundary1to2
    {
        type            processor;
        value           nonuniform List<scalar> 
84
(
0.223319
0.252155
0.27366
0.293784
0.307909
0.325001
0.341309
0.359461
0.378098
0.397872
0.418486
0.440239
0.463065
0.48708
0.51233
0.538885
0.566791
0.596142
0.627035
0.65953
0.693731
0.729701
0.767581
0.807448
0.849487
0.893649
0.940141
0.989377
1.04094
1.09549
1.15303
1.21358
1.27741
1.34505
1.41612
1.49144
1.57074
1.6547
0.03911
1.74103
1.83454
1.93327
2.03766
2.148
2.26468
2.38813
2.5184
2.65636
2.80203
2.95609
3.11885
3.2911
3.47283
-0.0605262
3.66067
3.86352
4.07779
4.3042
4.54298
4.79518
5.06127
5.34239
5.63896
-0.170641
5.9448
6.27464
6.62268
6.98997
7.37671
7.78634
5.67797
6.246
6.87129
7.56141
-0.425165
8.27897
9.10984
10.0222
11.0254
12.1264
13.3377
14.6661
16.1506
17.7776
)
;
    }
    procBoundary1to5
    {
        type            processor;
        value           nonuniform List<scalar> 
13
(
-0.066052
0.0291453
-0.0397278
-0.0441165
0.0894507
-0.0196839
-0.0252074
0.147173
9.65161e-05
-0.00468892
-0.00961743
0.237142
0.0204323
)
;
    }
}


// ************************************************************************* //
