/*--------------------------------*- C++ -*----------------------------------*\
| =========                 |                                                 |
| \\      /  F ield         | OpenFOAM: The Open Source CFD Toolbox           |
|  \\    /   O peration     | Version:  2306                                  |
|   \\  /    A nd           | Website:  www.openfoam.com                      |
|    \\/     M anipulation  |                                                 |
\*---------------------------------------------------------------------------*/
FoamFile
{
    version     2.0;
    format      ascii;
    arch        "LSB;label=32;scalar=64";
    class       volSymmTensorField;
    location    "25";
    object      turbulenceProperties:devReff;
}
// * * * * * * * * * * * * * * * * * * * * * * * * * * * * * * * * * * * * * //

dimensions      [0 2 -2 0 0 0 0];

internalField   nonuniform List<symmTensor> 
1340
(
(0.0010782 0.000655482 1.21515e-19 -0.00108225 -1.3316e-19 4.05837e-06)
(0.00152271 0.000914904 1.17459e-19 -0.00154608 -3.08721e-20 2.33664e-05)
(0.00215824 0.00142525 -4.11288e-20 -0.00220574 -1.38229e-20 4.75015e-05)
(0.00307304 0.00233247 -4.48183e-20 -0.00314583 1.18024e-19 7.27917e-05)
(0.00436067 0.00383843 4.00738e-19 -0.00445374 -9.61704e-20 9.30785e-05)
(0.00605772 0.00619217 5.13863e-19 -0.00617452 -1.3027e-19 0.000116797)
(0.00816289 0.00963505 -2.75696e-19 -0.00831152 -3.80936e-20 0.000148629)
(0.0107162 0.0144117 3.78721e-19 -0.0109027 -1.80303e-19 0.000186553)
(0.0138608 0.0210911 5.45625e-19 -0.0141316 -1.38564e-19 0.000270727)
(0.0180458 0.0307461 -5.95903e-19 -0.0184552 2.98874e-19 0.00040943)
(0.0240208 0.0455513 8.16713e-19 -0.0246752 -1.69774e-19 0.00065441)
(0.0331486 0.0695743 4.48713e-19 -0.0341904 -1.88171e-20 0.00104171)
(0.0476177 0.110791 -2.4042e-18 -0.049293 7.16971e-19 0.00167527)
(0.0712901 0.184693 -7.16561e-18 -0.0739213 3.23677e-18 0.00263119)
(0.110378 0.322965 -1.68262e-18 -0.11448 1.67825e-18 0.00410231)
(0.173491 0.587408 1.02306e-17 -0.179694 -4.03736e-18 0.00620316)
(0.279901 1.14957 -3.29732e-17 -0.289698 4.02096e-18 0.00979693)
(0.420768 2.22793 8.29908e-18 -0.434537 3.89606e-17 0.0137693)
(0.642271 4.70988 -2.7306e-16 -0.659186 7.57686e-17 0.0169144)
(0.879769 10.2623 -1.30893e-16 -0.891172 -8.95914e-17 0.011403)
(0.57053 15.5137 1.09487e-16 -0.542693 -3.54856e-17 -0.0278364)
(-0.179585 17.9409 1.10578e-17 0.261268 4.61914e-18 -0.0816835)
(-0.99573 18.5326 4.01444e-17 1.11879 -9.55264e-17 -0.12306)
(-1.73441 18.465 -5.54568e-16 1.87256 4.42032e-17 -0.138146)
(-2.38348 18.1959 1.66189e-16 2.51415 8.02056e-17 -0.130678)
(-2.94294 17.8203 -2.39052e-15 3.04865 -5.03707e-16 -0.10571)
(-3.41594 17.3688 -4.12924e-15 3.4855 1.07347e-15 -0.0695528)
(-3.80948 16.8503 1.42562e-15 3.83407 4.35255e-16 -0.0245844)
(0.000114426 0.000391295 -4.23341e-20 -0.000120416 -6.46853e-20 5.99022e-06)
(-3.88914e-06 0.00037229 -2.03023e-19 5.70848e-06 1.07545e-19 -1.81934e-06)
(-9.41442e-05 0.000319418 8.06485e-20 0.000103984 4.13342e-20 -9.83985e-06)
(-0.000149939 0.000249868 -5.02144e-20 0.000166735 -2.10193e-20 -1.67963e-05)
(-0.000171072 0.000180988 -2.14758e-20 0.000194179 -3.12642e-20 -2.31068e-05)
(-0.000166031 0.000124866 -4.28119e-20 0.000194152 -1.14663e-20 -2.81213e-05)
(-0.000146805 8.49692e-05 -7.84317e-22 0.000177906 1.37041e-20 -3.11009e-05)
(-0.000122368 6.01567e-05 1.97553e-20 0.000154125 2.20772e-20 -3.17568e-05)
(-9.87092e-05 4.66183e-05 4.97129e-20 0.000128887 -4.43086e-21 -3.01776e-05)
(-7.8944e-05 3.96134e-05 -9.88606e-20 0.000105893 2.38527e-20 -2.6949e-05)
(-6.33158e-05 3.59365e-05 1.08718e-19 8.61796e-05 -2.21087e-20 -2.28638e-05)
(-5.15996e-05 3.35725e-05 -2.60833e-20 7.04351e-05 4.39265e-21 -1.88355e-05)
(-4.29463e-05 3.13095e-05 -5.60192e-20 5.85572e-05 9.79092e-21 -1.5611e-05)
(-3.66114e-05 2.8996e-05 -4.2552e-20 5.03664e-05 3.5511e-21 -1.37551e-05)
(-3.20907e-05 2.68043e-05 -9.99844e-20 4.55232e-05 -5.84314e-21 -1.34326e-05)
(-2.96219e-05 2.53359e-05 -1.18588e-19 4.43542e-05 2.32841e-22 -1.47324e-05)
(-2.90184e-05 2.48362e-05 -1.32145e-19 4.66767e-05 2.76378e-20 -1.76583e-05)
(-3.08188e-05 2.6776e-05 7.51966e-20 5.37039e-05 -2.71704e-20 -2.28851e-05)
(-0.000326253 0.000307373 -8.41857e-20 0.000612849 -1.77776e-19 -0.000286596)
(-0.00122755 0.00128469 2.12564e-18 0.00243693 -2.55337e-18 -0.00120938)
(-0.0106212 0.0122427 1.66534e-17 0.0217629 2.08555e-18 -0.0111418)
(-0.0403044 0.0526984 4.29785e-19 0.0837679 1.32918e-17 -0.0434635)
(-0.0808696 0.12533 -6.6216e-20 0.168317 -3.13777e-18 -0.0874478)
(-0.112896 0.211664 9.6175e-17 0.231765 4.27066e-17 -0.118869)
(-0.127833 0.29709 5.92479e-16 0.252241 -9.74773e-17 -0.124407)
(-0.126871 0.367429 3.45152e-16 0.232421 5.94717e-17 -0.10555)
(-0.117314 0.423044 2.29423e-15 0.190953 2.68482e-17 -0.0736385)
(-0.105888 0.467116 3.18592e-15 0.145106 -1.00851e-15 -0.039218)
(-0.0984731 0.506104 -8.20227e-16 0.106032 4.24254e-16 -0.0075592)
(0.000112324 0.000302092 5.2079e-20 -0.000116015 7.55039e-20 3.6901e-06)
(2.34917e-05 0.000292689 1.12465e-19 -2.76999e-05 3.78904e-20 4.20813e-06)
(-4.87713e-05 0.000255638 8.25776e-20 4.28448e-05 -7.70536e-20 5.92655e-06)
(-9.84228e-05 0.000202344 3.34368e-21 8.9685e-05 5.46707e-20 8.73784e-06)
(-0.000122954 0.000143909 -8.16514e-20 0.000110901 3.09808e-20 1.20532e-05)
(-0.000125807 9.0998e-05 9.9119e-21 0.000110807 2.57496e-20 1.49992e-05)
(-0.000114546 4.9408e-05 6.61821e-20 9.71809e-05 -4.9915e-20 1.73656e-05)
(-9.64522e-05 2.04939e-05 1.47406e-19 7.71844e-05 -6.30766e-20 1.92678e-05)
(-7.78225e-05 2.8358e-06 -1.98803e-20 5.74047e-05 2.96862e-21 2.04178e-05)
(-6.21401e-05 -7.2485e-06 -5.22121e-21 4.10953e-05 1.26493e-20 2.10448e-05)
(-5.07356e-05 -1.28633e-05 1.27051e-19 2.97362e-05 -4.71537e-20 2.09994e-05)
(-4.34148e-05 -1.65612e-05 8.97712e-21 2.31467e-05 -2.27997e-22 2.0268e-05)
(-3.9385e-05 -1.9847e-05 1.25215e-19 2.07119e-05 -2.78563e-20 1.8673e-05)
(-3.72414e-05 -2.34166e-05 1.29994e-19 2.0881e-05 -2.92038e-20 1.63604e-05)
(-3.59665e-05 -2.71723e-05 3.29139e-19 2.26223e-05 -6.11978e-20 1.33442e-05)
(-3.45964e-05 -3.11209e-05 3.82854e-19 2.46359e-05 -6.06723e-20 9.96052e-06)
(-3.22184e-05 -3.50982e-05 1.91049e-19 2.56694e-05 -6.41676e-20 6.54899e-06)
(-2.73157e-05 -3.82061e-05 3.48575e-20 2.34061e-05 1.00685e-20 3.90962e-06)
(-1.9737e-05 -3.78669e-05 -4.9399e-20 1.73971e-05 -3.1743e-20 2.33986e-06)
(-1.27184e-05 -3.65413e-05 2.19002e-19 1.07622e-05 5.45595e-20 1.95622e-06)
(-4.71476e-06 -2.32023e-05 -5.22759e-20 3.32836e-06 2.45212e-20 1.3864e-06)
(-6.82568e-06 -5.68997e-05 -1.16446e-19 4.69851e-06 -1.03419e-20 2.12717e-06)
(-6.72354e-05 -0.000382838 2.23824e-19 0.00011448 6.86694e-20 -4.7245e-05)
(-0.000476107 0.000186831 -5.0331e-18 0.00108305 1.33558e-18 -0.000606947)
(-0.0021387 0.00511494 -2.19206e-17 0.00465658 1.67735e-17 -0.00251788)
(-0.00567161 0.0187852 -1.04956e-16 0.0111322 -6.01172e-18 -0.00546062)
(-0.010318 0.0433923 -2.28952e-16 0.0176947 7.89329e-17 -0.00737664)
(-0.0144379 0.0783908 -5.19917e-16 0.0202962 8.33073e-17 -0.00585829)
(-0.0169788 0.119869 -1.1285e-15 0.0164376 -4.59156e-16 0.000541158)
(0.000169765 0.000207841 7.75394e-20 -0.000172154 -6.34971e-20 2.38918e-06)
(0.0001028 0.000230754 2.69799e-20 -0.000105578 9.54394e-21 2.77831e-06)
(3.53631e-05 0.000230663 -8.15733e-20 -3.8061e-05 -4.47725e-20 2.69793e-06)
(-2.28124e-05 0.000211046 -2.5308e-20 2.03528e-05 8.10836e-22 2.45954e-06)
(-6.70209e-05 0.000178219 1.6593e-19 6.48547e-05 -1.78537e-20 2.16621e-06)
(-9.46172e-05 0.000139156 3.74832e-20 9.29696e-05 -7.96339e-21 1.64759e-06)
(-0.000106394 0.000101172 6.78715e-20 0.000105753 -3.19185e-20 6.40685e-07)
(-0.000106183 6.92578e-05 -1.70023e-19 0.000107054 1.31377e-20 -8.71524e-07)
(-9.87981e-05 4.55121e-05 -1.40044e-19 0.000101601 4.13601e-20 -2.80269e-06)
(-8.87311e-05 2.98708e-05 3.403e-20 9.38534e-05 5.44184e-21 -5.1223e-06)
(-7.91476e-05 2.0238e-05 3.1221e-20 8.67056e-05 -8.16578e-21 -7.55796e-06)
(-7.16093e-05 1.43693e-05 -1.30029e-19 8.15922e-05 2.67896e-20 -9.98293e-06)
(-6.63163e-05 1.0216e-05 1.26041e-20 7.85178e-05 -3.05322e-21 -1.22015e-05)
(-6.2745e-05 6.3772e-06 -3.64591e-20 7.68463e-05 9.43905e-21 -1.41012e-05)
(-5.98709e-05 2.10465e-06 1.07081e-19 7.53619e-05 -1.16024e-20 -1.5491e-05)
(-5.68344e-05 -2.60179e-06 -1.29814e-19 7.31909e-05 4.03855e-20 -1.63565e-05)
(-5.29383e-05 -7.59912e-06 -2.05863e-19 6.95546e-05 6.27037e-20 -1.66162e-05)
(-4.76524e-05 -1.25453e-05 4.19324e-20 6.38852e-05 2.45456e-20 -1.62328e-05)
(-4.04991e-05 -1.66191e-05 7.59249e-20 5.56542e-05 2.40144e-20 -1.51551e-05)
(-3.23618e-05 -1.83688e-05 1.63486e-19 4.61687e-05 -1.12908e-20 -1.38069e-05)
(-2.44773e-05 -1.73741e-05 -1.73876e-19 3.68212e-05 5.55025e-20 -1.23439e-05)
(-1.7721e-05 -1.48628e-05 -1.91008e-20 2.83515e-05 -2.82449e-20 -1.06305e-05)
(-8.07686e-06 -7.70545e-06 1.16945e-20 1.37907e-05 -7.99072e-21 -5.71382e-06)
(-1.40886e-05 -1.53957e-05 -1.74401e-20 2.60259e-05 4.12164e-21 -1.19372e-05)
(-6.78786e-06 -9.8961e-06 -2.57815e-20 1.51082e-05 -4.75412e-20 -8.32037e-06)
(3.76537e-06 -1.80753e-06 -5.97834e-20 -1.18274e-06 -8.71758e-20 -2.58263e-06)
(8.35157e-05 6.72418e-05 1.31475e-18 -0.0001285 2.72037e-19 4.49844e-05)
(0.000368204 0.000416042 9.45647e-18 -0.00064229 4.47747e-18 0.000274085)
(0.00106439 0.00155648 4.92728e-17 -0.00197199 -2.075e-18 0.000907598)
(0.00235609 0.00463087 1.47357e-16 -0.00463022 -2.42086e-17 0.00227413)
(0.000142687 0.000159514 -1.5871e-19 -0.000144282 1.10063e-19 1.59533e-06)
(9.27556e-05 0.000180786 2.29992e-19 -9.46618e-05 1.51365e-20 1.90625e-06)
(4.12447e-05 0.000185269 -1.22537e-19 -4.32318e-05 -7.26958e-20 1.9871e-06)
(-5.075e-06 0.00017468 -5.18102e-20 2.92757e-06 1.71018e-20 2.14744e-06)
(-4.2245e-05 0.000152806 -2.85896e-20 3.97066e-05 -5.43989e-20 2.53837e-06)
(-6.77329e-05 0.000124244 -4.88084e-21 6.46401e-05 2.60237e-20 3.0928e-06)
(-8.12957e-05 9.41493e-05 -5.027e-20 7.76405e-05 -1.29341e-20 3.65521e-06)
(-8.48366e-05 6.66259e-05 -1.08228e-19 8.0749e-05 6.80536e-20 4.08765e-06)
(-8.137e-05 4.40016e-05 1.29056e-19 7.70713e-05 -9.69877e-21 4.29871e-06)
(-7.41324e-05 2.70592e-05 7.42011e-20 6.98725e-05 -2.35654e-20 4.25994e-06)
(-6.58203e-05 1.50492e-05 -1.45649e-20 6.17456e-05 -6.57898e-21 4.07474e-06)
(-5.80799e-05 6.61045e-06 4.19735e-20 5.41694e-05 -6.44288e-21 3.91053e-06)
(-5.15269e-05 2.41708e-07 -8.04264e-20 4.75897e-05 1.79463e-20 3.93713e-06)
(-4.60605e-05 -5.21252e-06 5.70473e-20 4.17855e-05 -1.00841e-20 4.27497e-06)
(-4.10859e-05 -1.04378e-05 -6.21792e-20 3.60549e-05 1.43388e-20 5.03095e-06)
(-3.59878e-05 -1.55771e-05 7.93979e-20 2.97884e-05 -1.6132e-20 6.19941e-06)
(-3.02019e-05 -2.05142e-05 7.69822e-20 2.24195e-05 -2.47202e-20 7.78242e-06)
(-2.33313e-05 -2.48912e-05 -2.7006e-20 1.36031e-05 -7.89051e-23 9.72825e-06)
(-1.50298e-05 -2.80531e-05 -1.70391e-19 2.98161e-06 2.65626e-20 1.20482e-05)
(-5.79356e-06 -2.89274e-05 -4.59845e-20 -8.74983e-06 4.76165e-20 1.45434e-05)
(3.02939e-06 -2.73674e-05 -1.67607e-20 -1.99807e-05 -5.8635e-20 1.69513e-05)
(1.06191e-05 -2.42198e-05 6.84768e-20 -2.98528e-05 -8.33995e-21 1.92337e-05)
(1.66491e-05 -2.02297e-05 -1.26293e-21 -3.79326e-05 3.83405e-21 2.12834e-05)
(2.04633e-05 -1.56665e-05 -1.90505e-21 -4.25737e-05 -3.07252e-21 2.21104e-05)
(2.74202e-05 -1.39528e-05 5.2107e-20 -5.41171e-05 1.32531e-20 2.66969e-05)
(1.61391e-05 -5.6232e-06 1.67794e-20 -3.08449e-05 2.39812e-21 1.47057e-05)
(8.9924e-05 -2.27418e-05 -6.45145e-19 -0.000168527 -1.30442e-19 7.86028e-05)
(1.25668e-05 -2.58587e-06 -2.34829e-19 -2.31343e-05 -1.14389e-20 1.05675e-05)
(0.000617784 -0.000120372 -2.5483e-18 -0.00110888 3.31187e-18 0.000491092)
(0.00108772 -0.000223309 3.01903e-18 -0.00188836 6.3795e-18 0.000800638)
(0.000150712 9.623e-05 -2.02568e-20 -0.00015179 4.92723e-20 1.07739e-06)
(0.000120049 0.000124499 1.32896e-19 -0.00012137 5.35867e-20 1.32153e-06)
(8.19816e-05 0.000143421 -8.12399e-20 -8.35468e-05 -7.84347e-20 1.56525e-06)
(4.19188e-05 0.000150016 -1.23178e-20 -4.35202e-05 5.82388e-20 1.60143e-06)
(4.67005e-06 0.0001451 -7.03022e-20 -6.31135e-06 1.33762e-20 1.6413e-06)
(-2.66491e-05 0.000131102 -1.28433e-19 2.49067e-05 1.41975e-20 1.74237e-06)
(-4.99382e-05 0.000111085 1.33174e-19 4.81203e-05 -1.50396e-20 1.81791e-06)
(-6.45889e-05 8.86249e-05 -5.20196e-20 6.2781e-05 2.7353e-20 1.80796e-06)
(-7.14424e-05 6.67988e-05 7.73589e-20 6.98005e-05 2.24763e-21 1.64187e-06)
(-7.22102e-05 4.76865e-05 2.19158e-20 7.09634e-05 -2.3257e-20 1.24681e-06)
(-6.90046e-05 3.23842e-05 -2.52189e-20 6.83504e-05 -7.10488e-21 6.54182e-07)
(-6.38973e-05 2.08308e-05 -8.59562e-20 6.39326e-05 2.22003e-20 -3.53244e-08)
(-5.83395e-05 1.23396e-05 -7.94296e-20 5.89921e-05 2.13464e-20 -6.52656e-07)
(-5.31139e-05 5.87919e-06 4.22887e-20 5.41579e-05 -8.37573e-21 -1.04406e-06)
(-4.84122e-05 5.07555e-07 -2.29367e-20 4.95015e-05 3.72415e-21 -1.08935e-06)
(-4.39882e-05 -4.43907e-06 -7.63004e-20 4.47087e-05 1.11319e-20 -7.20503e-07)
(-3.94474e-05 -9.18805e-06 -7.39172e-20 3.94097e-05 1.45154e-20 3.76611e-08)
(-3.43926e-05 -1.37273e-05 -5.574e-20 3.32613e-05 9.31171e-21 1.13128e-06)
(-2.85592e-05 -1.78138e-05 7.98545e-20 2.61105e-05 2.99157e-21 2.4487e-06)
(-2.18045e-05 -2.09543e-05 -3.73905e-20 1.79438e-05 -2.62033e-20 3.86073e-06)
(-1.45352e-05 -2.231e-05 -9.98626e-20 9.37932e-06 -1.73784e-20 5.15584e-06)
(-7.83493e-06 -2.16423e-05 1.48845e-19 1.77914e-06 -1.36267e-21 6.05579e-06)
(-2.47288e-06 -1.96047e-05 4.2887e-21 -4.01514e-06 2.33535e-20 6.48803e-06)
(1.23349e-06 -1.68251e-05 1.88142e-21 -7.62505e-06 2.71528e-21 6.39156e-06)
(3.31628e-06 -1.39175e-05 2.73083e-21 -8.91224e-06 -5.08591e-22 5.59596e-06)
(4.14636e-06 -1.11587e-05 -5.2583e-20 -8.28385e-06 7.60696e-21 4.13749e-06)
(3.83151e-06 -8.46099e-06 -2.32064e-20 -6.07898e-06 2.61983e-20 2.24747e-06)
(2.62033e-06 -5.9225e-06 1.4152e-19 -3.00767e-06 -6.67635e-20 3.87337e-07)
(1.434e-06 -4.56628e-06 9.75022e-20 -3.30514e-07 -7.60444e-20 -1.10349e-06)
(3.31944e-07 -2.98375e-06 -5.79343e-20 1.45697e-06 -3.34473e-20 -1.78891e-06)
(-2.63052e-07 -2.8408e-06 6.94119e-20 2.81377e-06 4.7075e-21 -2.55072e-06)
(0.000125184 7.52855e-05 3.91508e-22 -0.000125999 -1.91103e-20 8.14162e-07)
(0.000101696 9.89515e-05 -3.38204e-20 -0.000102722 1.14327e-20 1.02568e-06)
(7.22462e-05 0.000115557 7.58669e-20 -7.34755e-05 8.26958e-21 1.22929e-06)
(4.0649e-05 0.000122891 1.11744e-19 -4.19539e-05 1.52797e-20 1.30487e-06)
(1.05696e-05 0.000121289 6.45408e-20 -1.19617e-05 -9.73614e-21 1.392e-06)
(-1.56018e-05 0.000112311 -6.39159e-20 1.40418e-05 2.91611e-20 1.55999e-06)
(-3.60855e-05 9.80437e-05 -8.484e-20 3.43568e-05 -1.19488e-20 1.72865e-06)
(-5.01599e-05 8.09951e-05 8.71778e-20 4.82477e-05 1.11765e-20 1.91213e-06)
(-5.8126e-05 6.34507e-05 9.41318e-21 5.60515e-05 -3.0521e-20 2.07449e-06)
(-6.09072e-05 4.71363e-05 -3.82584e-22 5.87603e-05 -1.03108e-20 2.14695e-06)
(-5.98671e-05 3.3219e-05 -7.06355e-20 5.77552e-05 2.00678e-20 2.11189e-06)
(-5.65471e-05 2.20164e-05 5.96664e-20 5.45353e-05 1.40493e-21 2.01185e-06)
(-5.21876e-05 1.33126e-05 1.5716e-19 5.02619e-05 -1.96053e-20 1.92575e-06)
(-4.76444e-05 6.49069e-06 -8.25402e-20 4.57194e-05 1.32266e-20 1.925e-06)
(-4.33273e-05 8.67605e-07 -1.41018e-20 4.12539e-05 1.84761e-21 2.07345e-06)
(-3.92372e-05 -4.11708e-06 -1.06289e-19 3.68274e-05 1.49615e-20 2.40977e-06)
(-3.51643e-05 -8.73397e-06 -5.58874e-20 3.22535e-05 4.75307e-21 2.91076e-06)
(-3.0829e-05 -1.3022e-05 6.32763e-20 2.73236e-05 -1.45643e-20 3.50543e-06)
(-2.60023e-05 -1.68203e-05 -1.81397e-19 2.18945e-05 1.78968e-20 4.10782e-06)
(-2.05481e-05 -1.97665e-05 7.94974e-20 1.59241e-05 -1.00065e-20 4.62402e-06)
(-1.46888e-05 -2.12721e-05 1.08628e-19 9.71458e-06 -1.79231e-20 4.97425e-06)
(-9.25973e-06 -2.11084e-05 -5.54968e-20 4.30478e-06 3.11771e-20 4.95495e-06)
(-4.87027e-06 -1.97486e-05 -4.99784e-20 2.98563e-07 1.53046e-21 4.57171e-06)
(-1.80462e-06 -1.77225e-05 -9.87943e-21 -2.02302e-06 -1.94847e-21 3.82763e-06)
(2.9763e-08 -1.55665e-05 -6.90036e-22 -2.70175e-06 4.15783e-23 2.67198e-06)
(9.13207e-07 -1.3446e-05 3.38428e-21 -2.01567e-06 -1.50785e-20 1.10246e-06)
(7.29793e-07 -1.15215e-05 -7.24636e-20 1.36844e-07 -2.34524e-20 -8.66638e-07)
(-3.13732e-07 -1.01165e-05 1.7814e-19 3.30998e-06 1.22137e-19 -2.99625e-06)
(-1.70743e-06 -9.11378e-06 6.44645e-22 6.72035e-06 5.49253e-20 -5.01292e-06)
(-3.10331e-06 -8.82878e-06 1.23686e-19 1.00901e-05 -9.518e-21 -6.98681e-06)
(-3.86539e-06 -7.70911e-06 3.85405e-20 1.15192e-05 5.63076e-20 -7.65381e-06)
(0.000105063 5.98768e-05 -3.12793e-21 -0.000105635 1.33567e-20 5.71773e-07)
(8.66566e-05 7.97281e-05 -1.38437e-20 -8.74497e-05 -4.15385e-20 7.93146e-07)
(6.3466e-05 9.42504e-05 -2.24087e-19 -6.44346e-05 -3.12568e-20 9.68564e-07)
(3.82046e-05 0.000101685 6.68423e-20 -3.9239e-05 3.80733e-20 1.03445e-06)
(1.3673e-05 0.000102108 -1.3824e-20 -1.47824e-05 4.07722e-21 1.10939e-06)
(-8.24418e-06 9.65639e-05 1.23445e-19 7.00832e-06 3.97233e-21 1.23585e-06)
(-2.61133e-05 8.6497e-05 -3.60151e-20 2.47793e-05 3.15297e-20 1.33398e-06)
(-3.9264e-05 7.37102e-05 6.17753e-20 3.78383e-05 -1.80399e-20 1.42567e-06)
(-4.77357e-05 5.98869e-05 -7.74162e-20 4.62315e-05 2.15974e-20 1.50425e-06)
(-5.20195e-05 4.63818e-05 -8.17466e-20 5.05163e-05 2.14173e-20 1.5032e-06)
(-5.29561e-05 3.42458e-05 3.70569e-20 5.15605e-05 -2.33645e-21 1.39565e-06)
(-5.16141e-05 2.39689e-05 4.45907e-20 5.04211e-05 -1.03964e-20 1.19296e-06)
(-4.89504e-05 1.5614e-05 5.01662e-20 4.80145e-05 -2.25001e-20 9.35876e-07)
(-4.57331e-05 8.86818e-06 3.78583e-20 4.50567e-05 -1.23659e-21 6.76324e-07)
(-4.24152e-05 3.28549e-06 -3.94903e-20 4.19365e-05 8.0705e-21 4.78688e-07)
(-3.9131e-05 -1.58578e-06 1.70417e-19 3.874e-05 -2.37919e-20 3.90998e-07)
(-3.57867e-05 -6.02031e-06 -5.19405e-20 3.53612e-05 3.25734e-21 4.25582e-07)
(-3.21818e-05 -1.01107e-05 9.78565e-20 3.16397e-05 -4.11594e-21 5.42145e-07)
(-2.8129e-05 -1.37659e-05 1.12104e-19 2.74498e-05 -2.1191e-20 6.79218e-07)
(-2.35141e-05 -1.67174e-05 -2.12835e-21 2.2749e-05 1.8343e-20 7.65117e-07)
(-1.85125e-05 -1.8481e-05 -3.06523e-20 1.77878e-05 2.6497e-20 7.24652e-07)
(-1.3744e-05 -1.88053e-05 -2.87358e-20 1.33116e-05 -5.77048e-21 4.3248e-07)
(-9.76511e-06 -1.79869e-05 8.26257e-21 9.89384e-06 -3.60168e-21 -1.28734e-07)
(-6.85713e-06 -1.64683e-05 1.23953e-20 7.78762e-06 -2.19312e-21 -9.30484e-07)
(-4.99615e-06 -1.47053e-05 5.12055e-21 7.03142e-06 7.35858e-22 -2.03527e-06)
(-3.93314e-06 -1.28696e-05 1.62808e-20 7.34974e-06 2.24273e-21 -3.4166e-06)
(-3.81974e-06 -1.10277e-05 4.49568e-20 8.92335e-06 -2.48194e-20 -5.10361e-06)
(-4.42867e-06 -9.56788e-06 -3.27482e-19 1.1274e-05 2.09839e-20 -6.84536e-06)
(-5.31728e-06 -8.60684e-06 -1.11039e-19 1.37738e-05 -6.45592e-20 -8.45647e-06)
(-6.14109e-06 -8.12833e-06 -2.03697e-20 1.60057e-05 1.15754e-19 -9.86465e-06)
(-6.81089e-06 -7.86125e-06 -1.64181e-19 1.7763e-05 -6.97856e-21 -1.09521e-05)
(9.90276e-05 2.90454e-05 -9.13196e-20 -9.93994e-05 -3.72178e-20 3.71795e-07)
(8.88247e-05 4.8209e-05 -5.56522e-20 -8.92728e-05 -1.65241e-20 4.48082e-07)
(7.43002e-05 6.4951e-05 -3.11114e-20 -7.49059e-05 1.72618e-20 6.05758e-07)
(5.57286e-05 7.76918e-05 1.37821e-20 -5.64837e-05 6.19647e-20 7.55086e-07)
(3.52861e-05 8.48931e-05 8.94883e-20 -3.60951e-05 1.41445e-20 8.09053e-07)
(1.51369e-05 8.64901e-05 6.59365e-20 -1.60264e-05 -3.59114e-20 8.89566e-07)
(-3.27708e-06 8.32355e-05 -5.12665e-20 2.25564e-06 -2.36696e-20 1.02144e-06)
(-1.87419e-05 7.61389e-05 1.81937e-19 1.76264e-05 -2.51558e-20 1.11552e-06)
(-3.06641e-05 6.65276e-05 -9.43727e-21 2.94673e-05 -3.57335e-20 1.19673e-06)
(-3.89831e-05 5.56449e-05 1.50838e-19 3.76997e-05 -8.24153e-21 1.28342e-06)
(-4.39423e-05 4.45394e-05 8.37119e-20 4.26099e-05 -3.03397e-21 1.33245e-06)
(-4.6036e-05 3.40831e-05 -5.63876e-20 4.47047e-05 1.04779e-21 1.33131e-06)
(-4.59744e-05 2.47817e-05 6.05102e-21 4.46911e-05 -7.70472e-21 1.28327e-06)
(-4.44397e-05 1.68563e-05 -1.36828e-19 4.32392e-05 1.91889e-20 1.20044e-06)
(-4.20637e-05 1.02012e-05 4.19159e-21 4.09442e-05 -3.60115e-21 1.11949e-06)
(-3.92867e-05 4.55052e-06 9.16503e-20 3.81911e-05 -9.94385e-21 1.09563e-06)
(-3.63158e-05 -4.07851e-07 5.49591e-21 3.51447e-05 2.0004e-22 1.17114e-06)
(-3.3162e-05 -4.89738e-06 6.98273e-20 3.18015e-05 -9.99654e-21 1.36046e-06)
(-2.97003e-05 -9.02438e-06 -9.7145e-20 2.8056e-05 1.56044e-20 1.64427e-06)
(-2.57844e-05 -1.2712e-05 -6.73943e-20 2.38083e-05 1.46086e-20 1.97618e-06)
(-2.12992e-05 -1.57334e-05 -1.37329e-19 1.89809e-05 1.1862e-20 2.31838e-06)
(-1.63681e-05 -1.76867e-05 -9.58213e-20 1.37455e-05 -5.37053e-21 2.62255e-06)
(-1.14495e-05 -1.83242e-05 -7.7294e-21 8.62619e-06 -3.77924e-21 2.82328e-06)
(-7.05054e-06 -1.78163e-05 -3.7977e-20 4.16607e-06 -1.83096e-21 2.88447e-06)
(-3.44651e-06 -1.65188e-05 5.21546e-22 5.97759e-07 2.85222e-21 2.84875e-06)
(-6.74948e-07 -1.48274e-05 -4.8658e-21 -1.97318e-06 1.36473e-21 2.64812e-06)
(1.44757e-06 -1.28849e-05 -7.44056e-23 -3.75028e-06 4.8912e-21 2.30271e-06)
(2.82821e-06 -1.07961e-05 3.8415e-20 -4.66246e-06 2.27868e-20 1.83425e-06)
(3.41994e-06 -8.93144e-06 1.09462e-20 -4.6493e-06 -4.7413e-20 1.22936e-06)
(3.45596e-06 -7.42864e-06 2.47035e-19 -3.96229e-06 -9.49299e-21 5.06331e-07)
(3.24771e-06 -6.32446e-06 -4.08811e-19 -2.98231e-06 -1.17254e-19 -2.65406e-07)
(2.81861e-06 -5.50136e-06 4.58351e-20 -1.73902e-06 -8.35491e-20 -1.07959e-06)
(7.56024e-05 3.92945e-05 -1.56999e-19 -7.59847e-05 1.74043e-20 3.82265e-07)
(6.39274e-05 5.33832e-05 2.45953e-19 -6.44325e-05 8.79155e-20 5.05133e-07)
(4.8974e-05 6.45639e-05 1.49623e-19 -4.95503e-05 -1.3613e-20 5.76364e-07)
(3.22304e-05 7.14288e-05 9.02007e-20 -3.28461e-05 -2.09485e-20 6.1574e-07)
(1.55381e-05 7.37068e-05 -1.91931e-19 -1.62307e-05 -1.34728e-20 6.92632e-07)
(6.22621e-09 7.19951e-05 -1.18568e-19 -8.24583e-07 7.82041e-21 8.18357e-07)
(-1.33745e-05 6.70306e-05 -2.30216e-19 1.24706e-05 -4.62711e-21 9.03892e-07)
(-2.4059e-05 5.98087e-05 -2.27845e-19 2.3098e-05 3.50209e-20 9.60932e-07)
(-3.19474e-05 5.12768e-05 -7.89572e-20 3.09388e-05 -8.44353e-21 1.00856e-06)
(-3.71745e-05 4.2226e-05 3.60279e-20 3.61465e-05 -2.3352e-21 1.02798e-06)
(-4.00312e-05 3.3364e-05 -3.29324e-20 3.90131e-05 6.56902e-21 1.01811e-06)
(-4.09779e-05 2.5157e-05 -5.52653e-20 4.00029e-05 1.38671e-20 9.75024e-07)
(-4.04789e-05 1.78719e-05 6.06879e-20 3.95874e-05 -4.09701e-21 8.91452e-07)
(-3.90168e-05 1.15445e-05 -8.12189e-20 3.8234e-05 4.49111e-21 7.82882e-07)
(-3.69721e-05 6.06358e-06 5.22278e-21 3.62787e-05 -2.19411e-21 6.93444e-07)
(-3.458e-05 1.21381e-06 3.43466e-20 3.3912e-05 -5.39338e-21 6.68022e-07)
(-3.19043e-05 -3.17343e-06 7.81198e-20 3.11691e-05 -7.78142e-21 7.35155e-07)
(-2.8882e-05 -7.19356e-06 -4.02919e-20 2.79927e-05 2.77254e-21 8.89302e-07)
(-2.5404e-05 -1.0799e-05 -2.39757e-20 2.42959e-05 -8.99797e-21 1.10813e-06)
(-2.13916e-05 -1.38082e-05 -2.02657e-20 2.00393e-05 -1.68738e-20 1.35239e-06)
(-1.69312e-05 -1.58918e-05 7.3934e-20 1.53368e-05 -1.58278e-20 1.59436e-06)
(-1.24e-05 -1.68093e-05 -5.12491e-21 1.06308e-05 -1.02976e-20 1.76919e-06)
(-8.23471e-06 -1.66567e-05 2.49845e-20 6.38662e-06 -8.28747e-21 1.8481e-06)
(-4.73492e-06 -1.57114e-05 -4.83689e-21 2.89573e-06 -8.91789e-22 1.83919e-06)
(-1.95417e-06 -1.43259e-05 -2.96548e-21 2.54901e-07 -8.61115e-22 1.69927e-06)
(2.11461e-07 -1.26359e-05 -1.13601e-20 -1.62542e-06 -6.94293e-22 1.41396e-06)
(1.65307e-06 -1.07501e-05 -4.50247e-20 -2.63322e-06 1.79052e-21 9.8015e-07)
(2.42381e-06 -8.98142e-06 -1.07051e-19 -2.91589e-06 -1.31899e-20 4.92077e-07)
(2.76952e-06 -7.45805e-06 1.96027e-20 -2.78527e-06 4.36282e-20 1.5745e-08)
(2.96008e-06 -6.25745e-06 3.89566e-19 -2.56124e-06 -7.23494e-20 -3.98838e-07)
(2.99772e-06 -5.26296e-06 2.47412e-19 -2.24036e-06 1.20425e-19 -7.57365e-07)
(5.52939e-05 4.43455e-05 -2.12255e-19 -5.57232e-05 -5.53965e-20 4.29332e-07)
(4.30206e-05 5.39618e-05 -1.53563e-19 -4.35144e-05 1.62443e-22 4.93793e-07)
(2.92674e-05 6.03777e-05 1.37254e-19 -2.97436e-05 4.80948e-20 4.76227e-07)
(1.52991e-05 6.31257e-05 2.09586e-19 -1.58294e-05 1.97809e-21 5.30363e-07)
(2.13616e-06 6.24891e-05 3.556e-20 -2.77986e-06 -6.84867e-21 6.437e-07)
(-9.43032e-06 5.90524e-05 1.51984e-19 8.70329e-06 4.02828e-20 7.27023e-07)
(-1.89365e-05 5.36034e-05 1.74384e-19 1.81572e-05 2.46029e-20 7.79372e-07)
(-2.62476e-05 4.68948e-05 -8.12844e-20 2.54351e-05 -1.27142e-21 8.12497e-07)
(-3.14223e-05 3.95423e-05 5.44004e-20 3.05977e-05 -5.95417e-21 8.24551e-07)
(-3.46523e-05 3.20986e-05 -1.32953e-20 3.383e-05 4.08424e-21 8.22289e-07)
(-3.62472e-05 2.49406e-05 1.11683e-19 3.54394e-05 -9.38117e-21 8.07728e-07)
(-3.6493e-05 1.83501e-05 -6.27956e-20 3.5727e-05 7.15951e-21 7.66036e-07)
(-3.57373e-05 1.24292e-05 -1.18939e-19 3.50361e-05 2.15237e-20 7.01275e-07)
(-3.42886e-05 7.1732e-06 -4.24391e-20 3.36496e-05 5.33199e-21 6.39051e-07)
(-3.23667e-05 2.47238e-06 -1.05611e-19 3.17479e-05 1.2389e-20 6.18812e-07)
(-3.0071e-05 -1.79512e-06 -1.02609e-19 2.93972e-05 1.02071e-20 6.73819e-07)
(-2.73923e-05 -5.70993e-06 -9.57403e-20 2.65869e-05 5.39178e-21 8.05366e-07)
(-2.42643e-05 -9.23815e-06 1.99817e-19 2.32648e-05 -1.29714e-20 9.99458e-07)
(-2.06308e-05 -1.22201e-05 1.31122e-19 1.94074e-05 -8.85684e-21 1.2234e-06)
(-1.65625e-05 -1.43811e-05 2.41719e-20 1.51074e-05 1.05097e-20 1.45512e-06)
(-1.23691e-05 -1.55023e-05 9.37929e-20 1.07297e-05 5.5202e-21 1.63945e-06)
(-8.42801e-06 -1.56219e-05 1.70951e-20 6.68211e-06 8.10258e-21 1.7459e-06)
(-5.03446e-06 -1.49595e-05 5.12825e-21 3.26443e-06 -2.03824e-21 1.77003e-06)
(-2.26482e-06 -1.38221e-05 -7.44362e-22 5.85451e-07 -1.2076e-21 1.67937e-06)
(-6.14649e-08 -1.23414e-05 4.32957e-22 -1.39686e-06 -2.66575e-21 1.45833e-06)
(1.47371e-06 -1.06282e-05 2.19707e-20 -2.57327e-06 -6.76001e-21 1.09955e-06)
(2.35367e-06 -8.97695e-06 3.22239e-20 -3.01621e-06 -1.85534e-20 6.62538e-07)
(2.76302e-06 -7.51158e-06 6.20699e-20 -2.94727e-06 8.8856e-21 1.84251e-07)
(2.97799e-06 -6.33478e-06 1.03224e-19 -2.71916e-06 1.25382e-19 -2.58829e-07)
(3.04113e-06 -5.35231e-06 -4.81538e-19 -2.40872e-06 -5.47457e-21 -6.32403e-07)
(3.78991e-05 4.55427e-05 4.29909e-20 -3.83043e-05 1.85108e-20 4.05223e-07)
(2.64225e-05 5.11716e-05 8.39918e-20 -2.68588e-05 -4.08705e-20 4.3622e-07)
(1.47242e-05 5.41484e-05 -2.71978e-19 -1.51565e-05 -5.53354e-20 4.32281e-07)
(3.46896e-06 5.43766e-05 -2.08667e-19 -3.96598e-06 2.01585e-20 4.97014e-07)
(-6.55783e-06 5.20718e-05 7.96407e-20 5.99439e-06 -1.56454e-20 5.63441e-07)
(-1.49738e-05 4.79576e-05 1.93059e-19 1.43579e-05 -3.51137e-20 6.15973e-07)
(-2.16495e-05 4.26725e-05 -7.77225e-20 2.09996e-05 1.52094e-20 6.49847e-07)
(-2.66111e-05 3.67e-05 -2.29385e-20 2.59564e-05 2.04448e-22 6.5465e-07)
(-2.99843e-05 3.04791e-05 -6.80995e-21 2.93413e-05 -3.75872e-21 6.43023e-07)
(-3.19763e-05 2.43166e-05 -3.09637e-20 3.13465e-05 2.75311e-21 6.2984e-07)
(-3.27712e-05 1.84513e-05 1.01813e-19 3.21738e-05 -6.83589e-21 5.97338e-07)
(-3.26056e-05 1.30164e-05 1.57681e-19 3.20644e-05 -4.30819e-21 5.41191e-07)
(-3.17027e-05 8.07354e-06 2.09844e-20 3.12237e-05 7.23958e-22 4.78976e-07)
(-3.02522e-05 3.58589e-06 1.21105e-19 2.98134e-05 -8.81284e-21 4.38726e-07)
(-2.83666e-05 -5.13495e-07 4.63272e-20 2.7919e-05 -4.47065e-21 4.47517e-07)
(-2.6068e-05 -4.28954e-06 7.32484e-20 2.55493e-05 -7.60412e-21 5.18739e-07)
(-2.3322e-05 -7.71211e-06 -1.21098e-19 2.26732e-05 1.66923e-20 6.48822e-07)
(-2.00825e-05 -1.06517e-05 -1.08519e-20 1.92583e-05 1.47173e-20 8.24168e-07)
(-1.64192e-05 -1.28684e-05 -7.60374e-20 1.54027e-05 4.55715e-21 1.01647e-06)
(-1.25791e-05 -1.4163e-05 -9.76164e-20 1.13921e-05 6.69562e-21 1.18701e-06)
(-8.89558e-06 -1.45353e-05 -3.95587e-20 7.59917e-06 2.72466e-21 1.29641e-06)
(-5.64268e-06 -1.41476e-05 1.29484e-20 4.30348e-06 2.27207e-21 1.3392e-06)
(-2.92582e-06 -1.32569e-05 4.86265e-21 1.64739e-06 9.11076e-22 1.27843e-06)
(-7.16839e-07 -1.19899e-05 5.01181e-21 -3.87147e-07 -3.16611e-21 1.10399e-06)
(8.7104e-07 -1.04588e-05 -1.50301e-21 -1.6634e-06 6.12865e-21 7.92357e-07)
(1.83437e-06 -8.91751e-06 -5.8674e-21 -2.23198e-06 -1.39492e-20 3.97612e-07)
(2.30261e-06 -7.49022e-06 -2.03017e-20 -2.22868e-06 5.4519e-20 -7.39261e-08)
(2.52719e-06 -6.31509e-06 -2.24014e-19 -1.9747e-06 -6.43505e-20 -5.52494e-07)
(2.5627e-06 -5.33728e-06 3.73789e-20 -1.57288e-06 -1.11475e-19 -9.89824e-07)
(2.38328e-05 4.37725e-05 -2.85984e-19 -2.41909e-05 -5.78987e-20 3.58137e-07)
(1.3928e-05 4.64372e-05 6.35982e-20 -1.43489e-05 5.19317e-20 4.20934e-07)
(4.28302e-06 4.72713e-05 1.46097e-19 -4.67726e-06 4.84108e-21 3.94237e-07)
(-4.43052e-06 4.5916e-05 -2.09206e-19 3.98153e-06 -2.59702e-20 4.48987e-07)
(-1.1873e-05 4.28526e-05 -1.7647e-19 1.13795e-05 3.64636e-21 4.93543e-07)
(-1.79225e-05 3.86793e-05 1.26601e-19 1.73953e-05 1.35127e-21 5.27199e-07)
(-2.25827e-05 3.38253e-05 4.35439e-20 2.20529e-05 -3.64415e-21 5.29789e-07)
(-2.59315e-05 2.86383e-05 -9.95453e-20 2.54129e-05 5.87784e-21 5.18557e-07)
(-2.81289e-05 2.33617e-05 9.40273e-20 2.7624e-05 -5.61227e-21 5.04903e-07)
(-2.92865e-05 1.81996e-05 -5.23096e-20 2.88083e-05 -4.82944e-21 4.78243e-07)
(-2.95623e-05 1.32867e-05 1.68213e-19 2.91288e-05 -2.0223e-20 4.33462e-07)
(-2.91094e-05 8.71284e-06 5.19363e-20 2.87303e-05 -5.27889e-21 3.79104e-07)
(-2.80732e-05 4.48672e-06 -4.45107e-21 2.77377e-05 -1.15008e-21 3.35401e-07)
(-2.65551e-05 5.86001e-07 2.47954e-20 2.62286e-05 -2.36044e-21 3.26552e-07)
(-2.45955e-05 -3.02737e-06 -2.28238e-20 2.42259e-05 2.7628e-21 3.69593e-07)
(-2.21828e-05 -6.32344e-06 -1.74966e-20 2.17102e-05 -3.1562e-21 4.72591e-07)
(-1.92913e-05 -9.18941e-06 -1.46321e-19 1.86638e-05 2.51405e-21 6.27492e-07)
(-1.59778e-05 -1.1425e-05 1.16442e-20 1.51598e-05 -7.11274e-21 8.1804e-07)
(-1.24458e-05 -1.2847e-05 6.66513e-20 1.14359e-05 -1.20577e-20 1.00997e-06)
(-8.97709e-06 -1.34264e-05 -3.56287e-21 7.80864e-06 -6.51032e-21 1.16845e-06)
(-5.8256e-06 -1.32747e-05 -1.28628e-20 4.54393e-06 4.3214e-22 1.28167e-06)
(-3.10639e-06 -1.26035e-05 -5.36178e-21 1.78479e-06 2.31072e-22 1.32159e-06)
(-8.27723e-07 -1.15253e-05 2.17242e-20 -4.47184e-07 4.053e-21 1.27491e-06)
(9.13403e-07 -1.01441e-05 -1.17018e-20 -2.04113e-06 1.49463e-21 1.12773e-06)
(2.0918e-06 -8.69136e-06 1.03053e-19 -3.01219e-06 -1.72671e-20 9.20393e-07)
(2.78619e-06 -7.28789e-06 -2.45888e-19 -3.41659e-06 -1.91188e-20 6.30401e-07)