/*--------------------------------*- C++ -*----------------------------------*\
| =========                 |                                                 |
| \\      /  F ield         | OpenFOAM: The Open Source CFD Toolbox           |
|  \\    /   O peration     | Version:  2306                                  |
|   \\  /    A nd           | Website:  www.openfoam.com                      |
|    \\/     M anipulation  |                                                 |
\*---------------------------------------------------------------------------*/
FoamFile
{
    version     2.0;
    format      ascii;
    arch        "LSB;label=32;scalar=64";
    class       volScalarField;
    location    "25";
    object      turbulenceProperties:epsilon;
}
// * * * * * * * * * * * * * * * * * * * * * * * * * * * * * * * * * * * * * //

dimensions      [0 2 -3 0 0 0 0];

internalField   nonuniform List<scalar> 
1340
(
0.0250299
0.0467439
0.0870014
0.157232
0.270752
0.441441
0.684281
1.02116
1.49894
2.20613
3.31394
5.14627
8.3353
14.1195
25.0356
46.0426
90.7475
176.439
373.083
811.377
1222.76
1409.71
1451.49
1439.77
1411.5
1374.48
1331.17
1281.4
0.00247113
0.00203696
0.00163122
0.00126807
0.000954705
0.000694483
0.000488715
0.000333922
0.000222967
0.000147268
9.6157e-05
6.27821e-05
4.04565e-05
2.50765e-05
1.34524e-05
5.61687e-06
1.35688e-06
7.18735e-06
0.00226203
0.010651
0.109029
0.441468
0.888761
1.21488
1.37522
1.43121
1.48786
1.5883
1.75002
0.00156395
0.00129557
0.00101389
0.000750893
0.000522221
0.000343149
0.000215996
0.000132695
8.33609e-05
5.61717e-05
4.20607e-05
3.49924e-05
3.16433e-05
3.04032e-05
3.05205e-05
3.17255e-05
3.33631e-05
3.30473e-05
2.75284e-05
2.31163e-05
6.15501e-06
3.43324e-05
0.000135117
0.000309373
0.00403109
0.0189254
0.0514806
0.106381
0.184293
0.00108447
0.000959602
0.000816403
0.000673343
0.000540119
0.000421141
0.000321243
0.000241648
0.000181284
0.00013877
0.000110807
9.4121e-05
8.49377e-05
8.01038e-05
7.64838e-05
7.23022e-05
6.62642e-05
5.77694e-05
4.64593e-05
3.46511e-05
2.37494e-05
1.50612e-05
9.6567e-07
1.29291e-05
4.42087e-06
1.87811e-07
2.89591e-05
0.000295379
0.00134041
0.00427003
0.000689393
0.000620944
0.000540705
0.000457181
0.000374897
0.000296995
0.000227695
0.000169641
0.00012357
8.91978e-05
6.48684e-05
4.83409e-05
3.73049e-05
2.99166e-05
2.4766e-05
2.11295e-05
1.87128e-05
1.75783e-05
1.78973e-05
1.97007e-05
2.29023e-05
2.74252e-05
3.26722e-05
3.46733e-05
5.49858e-05
4.62387e-06
0.00023229
8.24441e-08
0.00110682
0.00146951
0.000481244
0.000450274
0.000410566
0.000364287
0.000315689
0.00026732
0.000220798
0.00017838
0.000141528
0.000110794
8.63102e-05
6.76429e-05
5.38104e-05
4.36149e-05
3.59177e-05
2.9748e-05
2.45278e-05
1.99848e-05
1.61302e-05
1.29824e-05
1.04837e-05
8.59217e-06
7.18201e-06
5.91094e-06
4.51651e-06
3.03224e-06
1.6041e-06
5.91966e-07
3.07051e-07
1.38493e-08
1.13556e-09
0.00032101
0.000302985
0.000279399
0.00025164
0.000222155
0.000192172
0.000162547
0.00013455
0.000109185
8.69982e-05
6.84424e-05
5.35731e-05
4.2063e-05
3.3384e-05
2.69365e-05
2.21097e-05
1.84447e-05
1.5616e-05
1.33975e-05
1.15567e-05
9.84654e-06
8.1976e-06
6.65592e-06
5.21025e-06
3.91069e-06
2.79378e-06
2.02871e-06
1.89834e-06
2.33837e-06
3.44292e-06
3.21784e-06
0.000219791
0.000208579
0.000194187
0.000177226
0.000159111
0.000140479
0.000121727
0.000103626
8.6788e-05
7.16102e-05
5.84929e-05
4.76067e-05
3.88656e-05
3.2043e-05
2.68013e-05
2.27411e-05
1.94982e-05
1.67895e-05
1.44189e-05
1.22199e-05
1.00692e-05
8.04735e-06
6.29824e-06
4.90035e-06
3.9273e-06
3.3592e-06
3.31824e-06
3.89064e-06
4.90793e-06
6.15251e-06
7.28898e-06
0.00015996
0.000153451
0.000146421
0.000137446
0.000126927
0.000115602
0.00010383
9.17461e-05
7.98096e-05
6.83905e-05
5.77727e-05
4.82505e-05
4.00043e-05
3.30688e-05
2.73868e-05
2.28184e-05
1.91645e-05
1.62213e-05
1.3801e-05
1.17624e-05
9.96687e-06
8.31697e-06
6.8126e-06
5.51268e-06
4.42973e-06
3.54434e-06
2.77561e-06
2.07796e-06
1.49742e-06
1.04798e-06
7.52809e-07
5.7671e-07
0.000109059
0.000104269
9.86812e-05
9.21862e-05
8.50765e-05
7.7584e-05
6.97602e-05
6.18762e-05
5.41711e-05
4.68259e-05
4.00648e-05
3.40366e-05
2.87923e-05
2.43463e-05
2.06475e-05
1.75962e-05
1.5062e-05
1.29132e-05
1.10384e-05
9.34765e-06
7.77125e-06
6.32896e-06
5.07746e-06
4.03628e-06
3.19698e-06
2.479e-06
1.8391e-06
1.3294e-06
9.54139e-07
7.10976e-07
5.41288e-07
7.5513e-05
7.15656e-05
6.75583e-05
6.32436e-05
5.85248e-05
5.34229e-05
4.81586e-05
4.29168e-05
3.78047e-05
3.29807e-05
2.85524e-05
2.45705e-05
2.1069e-05
1.80555e-05
1.54891e-05
1.33016e-05
1.14192e-05
9.7715e-06
8.29215e-06
6.92843e-06
5.6929e-06
4.61876e-06
3.72185e-06
2.99401e-06
2.3668e-06
1.80083e-06
1.3361e-06
9.7401e-07
7.30013e-07
5.58456e-07
5.27372e-05
4.97802e-05
4.71953e-05
4.44423e-05
4.11625e-05
3.76389e-05
3.40601e-05
3.05002e-05
2.70757e-05
2.38575e-05
2.08829e-05
1.81904e-05
1.57984e-05
1.36999e-05
1.18681e-05
1.02587e-05
8.82637e-06
7.51907e-06
6.30973e-06
5.20752e-06
4.24469e-06
3.4342e-06
2.77153e-06
2.20062e-06
1.68933e-06
1.26362e-06
9.22129e-07
6.8783e-07
5.27774e-07
3.72758e-05
3.52386e-05
3.37213e-05
3.18039e-05
2.94987e-05
2.70545e-05
2.45765e-05
2.21375e-05
1.97983e-05
1.75858e-05
1.5532e-05
1.36556e-05
1.19592e-05
1.04349e-05
9.06327e-06
7.8191e-06
6.67269e-06
5.60984e-06
4.64491e-06
3.80486e-06
3.10172e-06
2.53246e-06
2.04991e-06
1.62183e-06
1.26238e-06
9.57514e-07
7.28477e-07
5.54146e-07
2.67335e-05
2.54638e-05
2.45103e-05
2.31141e-05
2.1496e-05
1.97776e-05
1.80456e-05
1.63507e-05
1.47138e-05
1.31606e-05
1.17059e-05
1.03554e-05
9.10868e-06
7.96265e-06
6.90429e-06
5.91935e-06
4.99949e-06
4.1616e-06
3.42777e-06
2.80935e-06
2.30349e-06
1.87454e-06
1.49631e-06
1.17558e-06
9.02405e-07
6.93833e-07
5.38175e-07
1.94367e-05
1.88005e-05
1.80829e-05
1.70741e-05
1.5903e-05
1.46749e-05
1.34495e-05
1.22434e-05
1.10724e-05
9.94752e-06
8.87725e-06
7.8684e-06
6.92243e-06
6.0358e-06
5.19825e-06
4.41179e-06
3.69194e-06
3.05972e-06
2.52235e-06
2.08075e-06
1.7067e-06
1.37921e-06
1.10087e-06
8.63153e-07
6.72986e-07
5.28178e-07
1.51162e-05
1.44217e-05
1.41066e-05
1.35359e-05
1.27655e-05
1.19045e-05
1.10164e-05
1.0125e-05
9.24283e-06
8.37842e-06
7.53926e-06
6.73263e-06
5.96228e-06
5.22896e-06
4.52856e-06
3.86639e-06
3.25642e-06
2.71659e-06
2.2532e-06
1.86835e-06
1.54083e-06
1.25609e-06
1.01406e-06
8.08879e-07
6.39397e-07
5.09095e-07
1.11792e-05
1.09418e-05
1.06902e-05
1.02152e-05
9.62023e-06
8.97874e-06
8.32117e-06
7.65993e-06
7.0006e-06
6.35011e-06
5.71357e-06
5.0949e-06
4.49544e-06
3.91698e-06
3.36407e-06
2.85167e-06
2.39369e-06
1.99769e-06
1.66451e-06
1.3799e-06
1.1324e-06
9.22846e-07
7.46187e-07
5.96453e-07
4.79069e-07
8.80236e-06
8.47738e-06
8.40003e-06
8.14053e-06
7.74317e-06
7.28761e-06
6.80649e-06
6.31221e-06
5.81261e-06
5.31304e-06
4.81658e-06
4.32544e-06
3.84138e-06
3.36723e-06
2.9081e-06
2.48017e-06
2.09515e-06
1.75921e-06
1.4731e-06
1.22723e-06
1.01351e-06
8.33062e-07
6.81099e-07
5.49301e-07
4.43492e-07
6.63824e-06
6.57817e-06
6.46065e-06
6.21315e-06
5.90142e-06
5.55092e-06
5.18186e-06
4.80512e-06
4.4246e-06
4.0402e-06
3.65197e-06
3.26349e-06
2.87729e-06
2.50046e-06
2.14566e-06
1.82446e-06
1.54114e-06
1.29764e-06
1.08672e-06
9.03561e-07
7.48369e-07
6.17359e-07
5.01664e-07
4.06495e-07
5.23495e-06
5.15601e-06
5.12341e-06
4.99039e-06
4.77977e-06
4.5237e-06
4.24795e-06
3.96311e-06
3.67197e-06
3.37389e-06
3.06841e-06
2.75852e-06
2.44632e-06
2.1388e-06
1.84687e-06
1.58067e-06
1.34427e-06
1.13842e-06
9.58963e-07
8.03001e-07
6.70091e-07
5.56695e-07
4.54927e-07
3.6939e-07
4.15241e-06
4.03457e-06
4.06427e-06
4.00333e-06
3.86621e-06
3.68181e-06
3.4758e-06
3.25954e-06
3.03601e-06
2.80423e-06
2.56485e-06
2.31923e-06
2.06942e-06
1.8198e-06
1.5814e-06
1.36242e-06
1.1668e-06
9.94172e-07
8.42699e-07
7.10217e-07
5.96438e-07
4.98174e-07
4.0914e-07
3.33033e-07
3.18477e-06
3.18878e-06
3.19419e-06
3.11754e-06
2.98874e-06
2.83443e-06
2.67034e-06
2.49936e-06
2.32052e-06
2.13372e-06
1.94006e-06
1.74118e-06
1.54025e-06
1.34672e-06
1.1681e-06
1.00711e-06
8.63591e-07
7.3632e-07
6.24245e-07
5.27119e-07
4.42193e-07
3.64377e-07
2.96882e-07
2.56307e-06
2.49923e-06
2.5311e-06
2.50161e-06
2.41677e-06
2.30449e-06
2.18209e-06
2.05232e-06
1.91505e-06
1.76988e-06
1.61805e-06
1.45967e-06
1.29803e-06
1.14108e-06
9.95879e-07
8.64218e-07
7.45814e-07
6.39674e-07
5.45396e-07
4.62694e-07
3.89527e-07
3.2175e-07
2.62383e-07
1.985e-06
1.99726e-06
1.99736e-06
1.94525e-06
1.86864e-06
1.77945e-06
1.68206e-06
1.5773e-06
1.46469e-06
1.34496e-06
1.21835e-06
1.08814e-06
9.61362e-07
8.44113e-07
7.37567e-07
6.40737e-07
5.52962e-07
4.74058e-07
4.04163e-07
3.41542e-07
2.82755e-07
2.30583e-07
1.59065e-06
1.57799e-06
1.58842e-06
1.56437e-06
1.51495e-06
1.44977e-06
1.3769e-06
1.29639e-06
1.20805e-06
1.11234e-06
1.01104e-06
9.06654e-07
8.05286e-07
7.11538e-07
6.25911e-07
5.47328e-07
4.75306e-07
4.0961e-07
3.50791e-07
2.97525e-07
2.47137e-07
2.0179e-07
1.27755e-06
1.24518e-06
1.26584e-06
1.2579e-06
1.22486e-06
1.17803e-06
1.12347e-06
1.06126e-06
9.9076e-07
9.14078e-07
8.33538e-07
7.50909e-07
6.70835e-07
5.96613e-07
5.2825e-07
4.64728e-07
4.05731e-07
3.51171e-07
3.01803e-07
2.56617e-07
2.14012e-07
1.74831e-07
9.90646e-07
9.96567e-07
1.00294e-06
9.84293e-07
9.52805e-07
9.12589e-07
8.64249e-07
8.08325e-07
7.4819e-07
6.85124e-07
6.20551e-07
5.57566e-07
4.98838e-07
4.44241e-07
3.92864e-07
3.445e-07
2.99157e-07
2.57694e-07
2.19445e-07
1.83482e-07
1.4983e-07
7.9382e-07
7.8545e-07
7.94273e-07
7.88734e-07
7.70267e-07
7.41032e-07
7.03549e-07
6.60181e-07
6.13194e-07
5.64304e-07
5.13867e-07
4.64069e-07
4.17282e-07
3.73376e-07
3.31619e-07
2.91824e-07
2.54111e-07
2.19223e-07
1.86802e-07
1.56258e-07
1.27254e-07
6.36411e-07
6.16477e-07
6.30907e-07
6.33403e-07
6.23027e-07
6.0258e-07
5.7437e-07
5.40443e-07
5.04075e-07
4.66369e-07
4.26734e-07
3.87061e-07
3.49386e-07
3.13731e-07
2.79508e-07
2.46586e-07
2.15134e-07
1.85804e-07
1.58315e-07
1.32187e-07
1.072e-07
4.90473e-07
4.93778e-07
5.05314e-07
5.03313e-07
4.90043e-07
4.68433e-07
4.42426e-07
4.14646e-07
3.85598e-07
3.54407e-07
3.22546e-07
2.9194e-07
2.62789e-07
2.34631e-07
2.07359e-07
1.81111e-07
1.56466e-07
1.33191e-07
1.10826e-07
8.93314e-08
4.00422e-07
3.89673e-07
4.00566e-07
4.0343e-07
3.96114e-07
3.80625e-07
3.61097e-07
3.40089e-07
3.17459e-07
2.92844e-07
2.67235e-07
2.42362e-07
2.1849e-07
1.95319e-07
1.72739e-07
1.50927e-07
1.30303e-07
1.10677e-07
9.17256e-08
7.34983e-08
3.11902e-07
3.15281e-07
3.21817e-07
3.17848e-07
3.07113e-07
2.92606e-07
2.76475e-07
2.59117e-07
2.39765e-07
2.19214e-07
1.99014e-07
1.79542e-07
1.6061e-07
1.42093e-07
1.24149e-07
1.07053e-07
9.06907e-08
7.48506e-08
5.95793e-08
2.51669e-07
2.4945e-07
2.5363e-07
2.52405e-07
2.45724e-07
2.35237e-07
2.23091e-07
2.09706e-07
1.9435e-07
1.77778e-07
1.61392e-07
1.45648e-07
1.30362e-07
1.15412e-07
1.00841e-07
8.68729e-08
7.3447e-08
6.0396e-08
4.7753e-08
2.02206e-07
1.96748e-07
1.99806e-07
1.99954e-07
1.95814e-07
1.88006e-07
1.78644e-07
1.6822e-07
1.56061e-07
1.42709e-07
1.29541e-07
1.16988e-07
1.04843e-07
9.29378e-08
8.12574e-08
6.99543e-08
5.90255e-08
4.83487e-08
3.7917e-08
1.57049e-07
1.56187e-07
1.57618e-07
1.54829e-07
1.49079e-07
1.42069e-07
1.34004e-07
1.24316e-07
1.13695e-07
1.03279e-07
9.33727e-08
8.37938e-08
7.43602e-08
6.50491e-08
5.59308e-08
4.70438e-08
3.83484e-08
2.97756e-08
1.26022e-07
1.23397e-07
1.23314e-07
1.21499e-07
1.17881e-07
1.12688e-07
1.0636e-07
9.88194e-08
9.04797e-08
8.22681e-08
7.4453e-08
6.6879e-08
5.94016e-08
5.19675e-08
4.46056e-08
3.73788e-08
3.02896e-08
2.32275e-08
1.00477e-07
9.71928e-08
9.6724e-08
9.57845e-08
9.33283e-08
8.93908e-08
8.45145e-08
7.86285e-08
7.21206e-08
6.5683e-08
5.95001e-08
5.34753e-08
4.75066e-08
4.15376e-08
3.55644e-08
2.96718e-08
2.39313e-08
1.81762e-08
7.72776e-08
7.55352e-08
7.53056e-08
7.38119e-08
7.08432e-08
6.70352e-08
6.25713e-08
5.75812e-08
5.2517e-08
4.75641e-08
4.27032e-08
3.78786e-08
3.30527e-08
2.81998e-08
2.34262e-08
1.88003e-08
1.40524e-08
6.16318e-08
5.9775e-08
5.92217e-08
5.79729e-08
5.58379e-08
5.3149e-08
4.98672e-08
4.5986e-08
4.18778e-08
3.78188e-08
3.38405e-08
2.99201e-08
2.60309e-08
2.21338e-08
1.83458e-08
1.45858e-08
4.92347e-08
4.73462e-08
4.64599e-08
4.55163e-08
4.41066e-08
4.21775e-08
3.9653e-08
3.65011e-08
3.31331e-08
2.97907e-08
2.65648e-08
2.34337e-08
2.03635e-08
1.73101e-08
1.43298e-08
1.135e-08
3.78248e-08
3.63303e-08
3.5669e-08
3.47422e-08
3.33364e-08
3.13683e-08
2.88432e-08
2.60654e-08
2.33743e-08
2.08267e-08
1.8369e-08
1.59666e-08
1.35783e-08
1.1241e-08
8.90436e-09
3.01988e-08
2.88005e-08
2.80161e-08
2.72688e-08
2.63831e-08
2.49386e-08
2.28736e-08
2.06627e-08
1.85529e-08
1.65446e-08
1.45991e-08
1.26852e-08
1.07819e-08
8.91426e-09
7.05477e-09
2.41165e-08
2.29645e-08
2.21113e-08
2.16769e-08
2.1112e-08
1.99488e-08
1.83353e-08
1.66126e-08
1.49473e-08
1.33473e-08
1.17816e-08
1.02327e-08
8.69264e-09
7.17044e-09
5.67223e-09
1.85263e-08
1.76955e-08
1.72798e-08
1.68255e-08
1.59763e-08
1.4747e-08
1.34077e-08
1.20878e-08
1.08038e-08
9.54399e-09
8.29418e-09
7.04195e-09
5.80824e-09
4.60763e-09
1.5041e-08
1.42746e-08
1.37042e-08
1.32937e-08
1.27156e-08
1.18374e-08
1.07995e-08
9.74876e-09
8.7264e-09
7.719e-09
6.70458e-09
5.68991e-09
4.69685e-09
3.74208e-09
1.21421e-08
1.14911e-08
1.08215e-08
1.05189e-08
1.01956e-08
9.55835e-09
8.74357e-09
7.90532e-09
7.08324e-09
6.25847e-09
5.43661e-09
4.6199e-09
3.82788e-09
3.08035e-09
9.32462e-09
8.68297e-09
8.45546e-09
8.28594e-09
7.83094e-09
7.18266e-09
6.50624e-09
5.84022e-09
5.17144e-09
4.49063e-09
3.83158e-09
3.20087e-09
2.61039e-09
7.62038e-09
7.12748e-09
6.92774e-09
6.82922e-09
6.49685e-09
6.0132e-09
5.50846e-09
4.97074e-09
4.39275e-09
3.8291e-09
3.29643e-09
2.78737e-09
2.30875e-09
6.22649e-09
5.88172e-09
5.70333e-09
5.63855e-09
5.44919e-09
5.14823e-09
4.75295e-09
4.28297e-09
3.80496e-09
3.3494e-09
2.91702e-09
2.50066e-09
2.1049e-09
5.0768e-09
4.91034e-09
4.67443e-09
4.65886e-09
4.59576e-09
4.37422e-09
4.03609e-09
3.6555e-09
3.27558e-09
2.91595e-09
2.5727e-09
2.23914e-09
1.91907e-09
4.0429e-09
3.86982e-09
3.83296e-09
3.79523e-09
3.60864e-09
3.33256e-09
3.03399e-09
2.74619e-09
2.47227e-09
2.20979e-09
1.95676e-09
1.70438e-09
3.26686e-09
3.18906e-09
3.11581e-09
3.0555e-09
2.89805e-09
2.69244e-09
2.47425e-09
2.26e-09
2.05556e-09
1.85934e-09
1.68045e-09
1.48996e-09
2.67733e-09
2.6105e-09
2.52276e-09
2.46238e-09
2.35251e-09
2.20402e-09
2.03819e-09
1.87354e-09
1.71673e-09
1.57672e-09
1.44897e-09
2.20129e-09
2.19019e-09
2.09539e-09
2.04702e-09
1.96889e-09
1.85365e-09
1.72087e-09
1.58896e-09
1.46932e-09
1.3651e-09
1.26631e-09
1.85203e-09
1.80278e-09
1.73282e-09
1.67867e-09
1.59e-09
1.47909e-09
1.37307e-09
1.28792e-09
1.20945e-09
1.12857e-09
1.54131e-09
1.53575e-09
1.48232e-09
1.43703e-09
1.35957e-09
1.27221e-09
1.20011e-09
1.13354e-09
1.06119e-09
9.89609e-10
1.27796e-09
1.2916e-09
1.2473e-09
1.2064e-09
1.14788e-09
1.08941e-09
1.03134e-09
9.75901e-10
9.18543e-10
8.62314e-10
1.05285e-09
1.07935e-09
1.03507e-09
9.99807e-10
9.60268e-10
9.15946e-10
8.77305e-10
8.3503e-10
7.83685e-10
7.35365e-10
8.53005e-10
9.07324e-10
8.66819e-10
8.34963e-10
8.06642e-10
7.82631e-10
7.51647e-10
7.13641e-10
6.72931e-10
6.35071e-10
7.64306e-10
7.47168e-10
7.03109e-10
6.93162e-10
6.76317e-10
6.52956e-10
6.23864e-10
5.88146e-10
5.5384e-10
6.23071e-10
6.32017e-10
6.03665e-10
5.96471e-10
5.86594e-10
5.6843e-10
5.39746e-10
5.13495e-10
4.89211e-10
5.0428e-10
5.23561e-10
5.05242e-10
5.06935e-10
5.0091e-10
4.85569e-10
4.65119e-10
4.46334e-10
4.0019e-10
4.24201e-10
4.18873e-10
4.25148e-10
4.24712e-10
4.1566e-10
3.99246e-10
3.82024e-10
3.10342e-10
3.45357e-10
3.45169e-10
3.54408e-10
3.58098e-10
3.54271e-10
3.45013e-10
3.34451e-10
2.34608e-10
2.82427e-10
2.82976e-10
2.90727e-10
2.98818e-10
3.03411e-10
3.01042e-10
2.94745e-10
2.19297e-10
2.31555e-10
2.29102e-10
2.40877e-10
2.50107e-10
2.53221e-10
2.51884e-10
1.53488e-10
1.68356e-10
1.69009e-10
1.79867e-10
1.89339e-10
1.94665e-10
1.97105e-10
1.19289e-10
1.28117e-10
1.25133e-10
1.32418e-10
1.3963e-10
1.44779e-10
1.48964e-10
9.77916e-11
1.0508e-10
1.01669e-10
1.06067e-10
1.10677e-10
1.14114e-10
1.18137e-10
8.03091e-11
8.43713e-11
8.15542e-11
8.40303e-11
8.6332e-11
8.90995e-11
9.29098e-11
6.44153e-11
6.70147e-11
6.44132e-11
6.55649e-11
6.65665e-11
6.82432e-11
7.09704e-11
5.18357e-11
5.24693e-11
5.05409e-11
5.12481e-11
5.12433e-11
5.15848e-11
4.19076e-11
4.20969e-11
3.97663e-11
3.95094e-11
3.927e-11
3.93488e-11
3.26928e-11
3.31929e-11
3.03687e-11
2.91112e-11
2.89913e-11
2.93634e-11
2.43807e-11
2.24577e-11
2.03035e-11
2.05141e-11
2.16037e-11
1.0359e-11
1.0679e-11
1.04917e-11
1.17981e-11
1.40539e-11
2.8003e-12
2.28792e-12
2.30929e-12
3.4555e-12
5.31682e-12
5.43279e-11
6.71685e-11
7.82052e-11
8.88851e-11
9.91566e-11
2.47649e-10
2.49017e-10
2.50429e-10
2.50223e-10
2.49187e-10
1.17061e-09
1.16841e-09
1.16168e-09
1.14658e-09
1.12574e-09
)
;

boundaryField
{
    inlet
    {
        type            calculated;
        value           nonuniform List<scalar> 5(1.06185e-08 1.09605e-08 1.12397e-08 1.14572e-08 1.16134e-08);
    }
    outlet
    {
        type            calculated;
        value           nonuniform List<scalar> 0();
    }
    walls
    {
        type            calculated;
        value           uniform 0;
    }
    frontAndBack
    {
        type            empty;
    }
    procBoundary1to0
    {
        type            processor;
        value           nonuniform List<scalar> 
94
(
0.000113341
0.000113341
7.87872e-05
7.87872e-05
5.55217e-05
5.55217e-05
3.94373e-05
3.94373e-05
2.83237e-05
2.83237e-05
2.06063e-05
2.06063e-05
1.58664e-05
1.18101e-05
1.18101e-05
9.21397e-06
6.94438e-06
6.94438e-06
5.46217e-06
4.31766e-06
3.327e-06
3.327e-06
2.65003e-06
2.06147e-06
2.06147e-06
1.64667e-06
1.31773e-06
1.03332e-06
1.03332e-06
8.26037e-07
6.60824e-07
5.17137e-07
5.17137e-07
4.14076e-07
3.25599e-07
3.25599e-07
2.60182e-07
2.08003e-07
1.63951e-07
1.63951e-07
1.3021e-07
1.03227e-07
8.07988e-08
8.07988e-08
6.40357e-08
5.08827e-08
3.97745e-08
3.97745e-08
3.16561e-08
2.51139e-08
1.94469e-08
1.94469e-08
1.56125e-08
1.2621e-08
9.89637e-09
9.89637e-09
8.04822e-09
6.51318e-09
5.21286e-09
4.08931e-09
4.08931e-09
3.30996e-09
2.72126e-09
2.24362e-09
1.81383e-09
1.81383e-09
1.50498e-09
1.22941e-09
9.99358e-10
8.04279e-10
6.84396e-10
6.84396e-10
5.55032e-10
4.38855e-10
3.40704e-10
2.54629e-10
1.86071e-10
1.67708e-10
1.67708e-10
1.20213e-10
9.2994e-11
7.78568e-11
6.63617e-11
5.47315e-11
4.58522e-11
3.81836e-11
2.94262e-11
2.23154e-11
2.23154e-11
8.60486e-12
2.94957e-12
4.40678e-11
2.43942e-10
1.15999e-09
)
;
    }
    procBoundary1to2
    {
        type            processor;
        value           nonuniform List<scalar> 
84
(
1229.84
1.96588
0.278731
0.0114322
9.62696e-05
1.41765e-06
8.49536e-07
7.08301e-06
5.62466e-07
4.57452e-07
4.6139e-07
4.42164e-07
4.34218e-07
4.30209e-07
4.2482e-07
4.15532e-07
3.95123e-07
3.67529e-07
3.37113e-07
3.05574e-07
2.7476e-07
2.44039e-07
2.14834e-07
1.87855e-07
1.63829e-07
1.41539e-07
1.2088e-07
1.02032e-07
8.53005e-08
7.04633e-08
5.74657e-08
4.61539e-08
3.6622e-08
2.86985e-08
2.21455e-08
1.69043e-08
1.29185e-08
9.76274e-09
1.052e-08
1.052e-08
8.18567e-09
6.41274e-09
5.07548e-09
4.10147e-09
3.37296e-09
2.79373e-09
2.3521e-09
2.04778e-09
1.86382e-09
1.7497e-09
1.64063e-09
1.48427e-09
1.26124e-09
1.31982e-09
1.31982e-09
1.17503e-09
1.05328e-09
9.34501e-10
8.20791e-10
7.0425e-10
6.11775e-10
5.30117e-10
4.5197e-10
4.38937e-10
4.38937e-10
3.78369e-10
3.32813e-10
2.9434e-10
2.55993e-10
2.04148e-10
1.59482e-10
1.28961e-10
1.02187e-10
7.36326e-11
5.62417e-11
5.62417e-11
4.22632e-11
3.06288e-11
2.26888e-11
1.66136e-11
6.79152e-12
1.09776e-10
2.4666e-10
1.10073e-09
)
;
    }
    procBoundary1to5
    {
        type            processor;
        value           nonuniform List<scalar> 
13
(
0.0141351
0.0141351
0.00287388
0.00178198
0.00178198
0.00118909
0.000745196
0.000745196
0.000510341
0.000338134
0.000230049
0.000230049
0.000167033
)
;
    }
}


// ************************************************************************* //
