/*--------------------------------*- C++ -*----------------------------------*\
| =========                 |                                                 |
| \\      /  F ield         | OpenFOAM: The Open Source CFD Toolbox           |
|  \\    /   O peration     | Version:  2306                                  |
|   \\  /    A nd           | Website:  www.openfoam.com                      |
|    \\/     M anipulation  |                                                 |
\*---------------------------------------------------------------------------*/
FoamFile
{
    version     2.0;
    format      ascii;
    arch        "LSB;label=32;scalar=64";
    class       volSymmTensorField;
    location    "25";
    object      turbulenceProperties:R;
}
// * * * * * * * * * * * * * * * * * * * * * * * * * * * * * * * * * * * * * //

dimensions      [0 2 -2 0 0 0 0];

internalField   nonuniform List<symmTensor> 
1340
(
(0.00450126 0.000363781 6.74389e-20 0.00330225 -7.39014e-20 0.00390514)
(0.00639625 0.000575936 7.39409e-20 0.00446443 -1.94341e-20 0.0054524)
(0.0091686 0.00100424 -2.89797e-20 0.0060937 -9.7397e-21 0.00768136)
(0.0131441 0.00180703 -3.4722e-20 0.00832622 9.14367e-20 0.0108198)
(0.018705 0.00320103 3.34193e-19 0.0113543 -8.02006e-20 0.0151461)
(0.0262578 0.00544349 4.51734e-19 0.0155045 -1.14519e-19 0.0210352)
(0.0363231 0.00878313 -2.51319e-19 0.0213053 -3.47254e-20 0.0290174)
(0.0497382 0.0134691 3.53952e-19 0.0295333 -1.68511e-19 0.0398973)
(0.0682029 0.0200681 5.19161e-19 0.0415682 -1.31844e-19 0.0552719)
(0.0949136 0.0296523 -5.74703e-19 0.0597111 2.88241e-19 0.0779046)
(0.135755 0.0443929 7.95943e-19 0.088297 -1.65457e-19 0.112982)
(0.201583 0.0683556 4.40853e-19 0.135423 -1.84875e-20 0.170038)
(0.312848 0.109514 -2.37649e-18 0.217055 7.08707e-19 0.267436)
(0.508723 0.18336 -7.11388e-18 0.36456 3.2134e-18 0.44056)
(0.866716 0.321576 -1.67539e-18 0.642825 1.67104e-18 0.760898)
(1.53295 0.585967 1.02055e-17 1.18063 -4.02745e-18 1.36607)
(2.90817 1.14808 -3.29304e-17 2.33931 4.01576e-18 2.63842)
(5.45856 2.2264 8.29339e-18 4.60385 3.89339e-17 5.05184)
(11.2045 4.70832 -2.7297e-16 9.90351 7.57436e-17 10.5794)
(23.7659 10.2607 -1.30873e-16 21.9952 -8.95777e-17 22.8977)
(35.0641 15.5121 1.09476e-16 33.951 -3.5482e-17 34.4658)
(39.6896 17.9393 1.10568e-17 40.1304 4.61874e-18 39.7875)
(40.2535 18.5311 4.0141e-17 42.3678 -9.55184e-17 41.1261)
(39.4935 18.4635 -5.54522e-16 43.1002 4.41995e-17 41.0897)
(38.4156 18.1944 1.66175e-16 43.3128 8.01989e-17 40.6682)
(37.2117 17.8188 -2.39032e-15 43.2028 -5.03664e-16 40.0487)
(35.9334 17.3673 -4.12888e-15 42.8343 1.07338e-15 39.2795)
(34.5839 16.8489 1.4255e-15 42.2268 4.35217e-16 38.3685)
(0.0012437 0.000145443 -1.57354e-20 0.00115641 -2.40433e-20 0.00120339)
(0.00108894 0.000136238 -7.42956e-20 0.00109245 3.93555e-20 0.00108969)
(0.000941784 0.000114622 2.89405e-20 0.00101288 1.48327e-20 0.000972036)
(0.000807457 8.75792e-05 -1.76003e-20 0.000918452 -7.36731e-21 0.000854124)
(0.000687793 6.173e-05 -7.32481e-21 0.00081237 -1.06634e-20 0.00073826)
(0.000581464 4.12859e-05 -1.41554e-20 0.000700555 -3.79124e-21 0.000627062)
(0.000486982 2.71344e-05 -2.50467e-22 0.000590677 4.37632e-21 0.000523932)
(0.000403764 1.8491e-05 6.0724e-21 0.000488753 6.78611e-21 0.000431616)
(0.000331789 1.37032e-05 1.46128e-20 0.000398689 -1.30243e-21 0.000351933)
(0.000271389 1.10499e-05 -2.75765e-20 0.000322948 6.65355e-21 0.000285892)
(0.000220883 9.34624e-06 2.82749e-20 0.000259763 -5.74994e-21 0.000231404)
(0.000179965 7.93383e-06 -6.164e-21 0.000208804 1.03807e-21 0.000187708)
(0.000146119 6.36775e-06 -1.13932e-20 0.000166763 1.99128e-21 0.000151679)
(0.000117107 4.59884e-06 -6.74886e-21 0.000130902 5.63214e-22 0.000120733)
(8.85465e-05 2.6781e-06 -9.98975e-21 9.63011e-05 -5.83806e-22 9.04107e-05)
(6.03368e-05 1.14314e-06 -5.35061e-21 6.36746e-05 1.05057e-23 6.10087e-05)
(3.24664e-05 2.79311e-07 -1.48612e-21 3.33177e-05 3.10819e-22 3.25941e-05)
(6.90413e-05 1.05872e-06 2.97327e-21 7.23833e-05 -1.07432e-21 6.93549e-05)
(0.00132947 0.000278489 -7.62749e-20 0.00218033 -1.6107e-19 0.0013654)
(0.00506659 0.0012509 2.06973e-18 0.00863468 -2.48621e-18 0.00508428)
(0.0476593 0.0122039 1.66007e-17 0.0799409 2.07895e-18 0.0471403)
(0.191292 0.0526556 4.29435e-19 0.315263 1.3281e-17 0.188135)
(0.408057 0.125284 -6.61917e-20 0.657153 -3.13662e-18 0.401481)
(0.611461 0.211616 9.6153e-17 0.956043 4.26968e-17 0.60549)
(0.758701 0.297039 5.92376e-16 1.13871 -9.74605e-17 0.762126)
(0.847601 0.367374 3.451e-16 1.20684 5.94628e-17 0.868919)
(0.912779 0.422985 2.29391e-15 1.221 2.68445e-17 0.956449)
(0.976747 0.467053 3.1855e-15 1.22771 -1.00837e-15 1.04341)
(1.04907 0.506038 -8.20119e-16 1.25355 4.24198e-16 1.13997)
(0.000998987 0.00011567 1.99409e-20 0.000911557 2.89103e-20 0.000957392)
(0.000879129 0.000112259 4.31353e-20 0.000859495 1.45326e-20 0.000871733)
(0.000751022 9.82479e-05 3.17366e-20 0.000786232 -2.96136e-20 0.000772043)
(0.000624556 7.79571e-05 1.28822e-21 0.000697029 2.10629e-20 0.000665842)
(0.000504999 5.55901e-05 -3.15407e-20 0.000595333 1.19674e-20 0.00055715)
(0.000399158 3.52411e-05 3.83862e-21 0.000490792 9.97213e-21 0.000453688)
(0.000310884 1.91817e-05 2.56939e-20 0.000393083 -1.93785e-20 0.000362096)
(0.000241 7.97616e-06 5.73699e-20 0.000308578 -2.45492e-20 0.000286037)
(0.000190409 1.10675e-06 -7.75888e-21 0.000243185 1.15859e-21 0.00022875)
(0.000156917 -2.8378e-06 -2.04411e-21 0.000197334 4.95221e-21 0.000189484)
(0.000136911 -5.0545e-06 4.99236e-20 0.000168531 -1.85286e-20 0.000165098)
(0.000125942 -6.53559e-06 3.54266e-21 0.000152209 -8.99747e-23 0.000151073)
(0.000120447 -7.87298e-06 4.96705e-20 0.000144286 -1.10501e-20 0.000143477)
(0.000118529 -9.34732e-06 5.18902e-20 0.00014173 -1.16574e-20 0.000139926)
(0.000119206 -1.09316e-05 1.32414e-19 0.000142777 -2.46202e-20 0.000139044)
(0.000122266 -1.26433e-05 1.5554e-19 0.00014633 -2.4649e-20 0.000140368)
(0.000126582 -1.44459e-05 7.86328e-20 0.000150407 -2.64104e-20 0.000142538)
(0.000127846 -1.5918e-05 1.45228e-20 0.000148978 4.19488e-21 0.000140855)
(0.000118933 -1.549e-05 -2.02074e-20 0.000134123 -1.29849e-20 0.000127963)
(0.000111092 -1.57011e-05 9.41012e-20 0.000121181 2.34432e-20 0.000117397)
(5.9082e-05 -5.41861e-06 -1.22084e-20 6.09604e-05 5.72662e-21 6.05069e-05)
(0.000153546 -4.39844e-05 -9.00144e-20 0.000162455 -7.99445e-21 0.000160467)
(0.000808207 -0.000376257 2.19977e-19 0.000986799 6.74889e-20 0.000827854)
(0.00221026 0.000186042 -5.01184e-18 0.00376284 1.32994e-18 0.00207997)
(0.0138599 0.00510699 -2.18866e-17 0.0206447 1.67474e-17 0.0134813)
(0.0435142 0.0187707 -1.04875e-16 0.060305 -6.00707e-18 0.043725)
(0.093905 0.043372 -2.28845e-16 0.121905 7.8896e-17 0.096845)
(0.164999 0.0783653 -5.19747e-16 0.199722 8.32801e-17 0.173576)
(0.251914 0.119838 -1.12822e-15 0.285322 -4.5904e-16 0.269429)
(0.000860817 7.93287e-05 2.95952e-20 0.000730313 -2.42356e-20 0.000796932)
(0.000787983 8.79987e-05 1.02889e-20 0.000708518 3.6396e-21 0.00074984)
(0.000704122 8.78953e-05 -3.10839e-20 0.000676143 -1.70608e-20 0.000691675)
(0.000618529 8.03675e-05 -9.63743e-21 0.000634967 3.08771e-22 0.000628153)
(0.000536238 6.78322e-05 6.31548e-20 0.000586431 -6.79533e-21 0.000562571)
(0.00046003 5.29464e-05 1.42616e-20 0.000531403 -3.02992e-21 0.000496657)
(0.000392749 3.84845e-05 2.58173e-20 0.000473447 -1.21414e-20 0.000433464)
(0.000335354 2.63384e-05 -6.46589e-20 0.000416447 4.9962e-21 0.000375404)
(0.000287876 1.73035e-05 -5.32438e-20 0.000364066 1.57249e-20 0.000324373)
(0.000251005 1.13537e-05 1.29345e-20 0.000320404 2.0684e-21 0.000282784)
(0.000224351 7.69124e-06 1.18652e-20 0.000287382 -3.10331e-21 0.000251558)
(0.000207279 5.46083e-06 -4.94154e-20 0.0002655 1.0181e-20 0.000230699)
(0.000197554 3.88289e-06 4.79057e-21 0.000252603 -1.16046e-21 0.000218122)
(0.000192475 2.42449e-06 -1.3861e-20 0.000245545 3.58854e-21 0.000210968)
(0.000188614 8.00496e-07 4.07277e-20 0.00024005 -4.41292e-21 0.000205494)
(0.000183898 -9.90185e-07 -4.94043e-20 0.000233383 1.53698e-20 0.000199303)
(0.000176599 -2.89431e-06 -7.8408e-20 0.000223253 2.38823e-20 0.000190433)
(0.000165551 -4.78328e-06 1.59881e-20 0.000208078 9.35877e-21 0.000177531)
(0.000149313 -6.33803e-06 2.89555e-20 0.000185983 9.15838e-21 0.000158978)
(0.00012987 -7.05792e-06 6.28171e-20 0.000160044 -4.33832e-21 0.000137)
(0.000108431 -6.65407e-06 -6.65926e-20 0.000131907 2.12568e-20 0.000113078)
(8.7043e-05 -5.67528e-06 -7.29353e-21 0.000104635 -1.07851e-20 8.97504e-05)
(2.43117e-05 -5.77632e-07 8.76669e-22 2.5951e-05 -5.99017e-22 2.44888e-05)
(8.2599e-05 -1.04808e-05 -1.18725e-20 0.000109907 2.80585e-21 8.40635e-05)
(5.04695e-05 -7.27389e-06 -1.89501e-20 6.65637e-05 -3.4944e-20 4.93431e-05)
(1.58005e-05 -1.51636e-06 -5.01531e-20 1.16495e-05 -7.31331e-20 1.04751e-05)
(0.000390463 6.52728e-05 1.27625e-18 0.000184656 2.64072e-19 0.00035306)
(0.00206537 0.000411887 9.36202e-18 0.00106497 4.43275e-18 0.00197219)
(0.00673756 0.00155012 4.90712e-17 0.0037136 -2.06651e-18 0.00658141)
(0.0172774 0.00462212 1.47078e-16 0.0103043 -2.41629e-17 0.0171956)
(0.000689164 6.09146e-05 -6.06078e-20 0.000579577 4.20305e-20 0.000635284)
(0.00063775 6.90146e-05 8.7799e-20 0.000566204 5.77833e-21 0.000603068)
(0.000577817 7.07097e-05 -4.67676e-20 0.000545576 -2.77451e-20 0.000562834)
(0.000514906 6.66615e-05 -1.97718e-20 0.000517959 6.52637e-21 0.000517662)
(0.000451904 5.83134e-05 -1.09103e-20 0.000483179 -2.07596e-20 0.000468994)
(0.000390721 4.74164e-05 -1.86272e-21 0.00044124 9.93163e-21 0.000417751)
(0.000333719 3.5933e-05 -1.9186e-20 0.000394379 -4.93642e-21 0.000366142)
(0.000282453 2.54298e-05 -4.13084e-20 0.000345654 2.59747e-20 0.000316393)
(0.000237643 1.6796e-05 4.92623e-20 0.000298122 -3.70215e-21 0.000270344)
(0.000199992 1.03305e-05 2.8328e-20 0.000254969 -8.99664e-21 0.00022992)
(0.000169552 5.74652e-06 -5.56156e-21 0.000218263 -2.51217e-21 0.000196242)
(0.000145883 2.52468e-06 1.60306e-20 0.000188753 -2.46068e-21 0.000169558)
(0.000127957 9.23287e-08 -3.07217e-20 0.000165818 6.85523e-21 0.000149144)
(0.000114617 -1.99134e-06 2.17938e-20 0.000148177 -3.85243e-21 0.000133847)
(0.000104598 -3.98783e-06 -2.3756e-20 0.000134071 5.47822e-21 0.000122218)
(9.73635e-05 -5.95156e-06 3.03357e-20 0.000122495 -6.16356e-21 0.000113482)
(9.30263e-05 -7.83835e-06 2.94144e-20 0.000113133 -9.44543e-21 0.00010754)
(9.24312e-05 -9.51209e-06 -1.03203e-20 0.000106546 -3.01533e-23 0.000105065)
(9.65178e-05 -1.07237e-05 -6.51346e-20 0.000103403 1.0154e-20 0.000106869)
(0.000105077 -1.10617e-05 -1.75843e-20 0.000103946 1.82084e-20 0.000112854)
(0.000116844 -1.04765e-05 -6.41617e-21 0.000108036 -2.24461e-20 0.000122174)
(0.000130667 -9.28566e-06 2.62535e-20 0.000115151 -3.19747e-21 0.00013397)
(0.000144608 -7.7993e-06 -4.86905e-22 0.000123565 1.47817e-21 0.000146395)
(0.000149926 -5.84621e-06 -7.10899e-22 0.000126403 -1.14656e-21 0.000150541)
(0.00019358 -6.61955e-06 2.47208e-20 0.000154897 6.28758e-21 0.000193237)
(5.55755e-05 -4.7493e-07 1.41717e-21 5.16073e-05 2.02543e-22 5.54545e-05)
(0.000524046 -1.91956e-05 -5.44543e-19 0.000305897 -1.10102e-19 0.00051449)
(8.68813e-06 -9.5764e-09 -8.69657e-22 8.55592e-06 -4.23624e-23 8.68073e-06)
(0.00310261 -0.000118292 -2.50426e-18 0.00140579 3.25463e-18 0.00297811)
(0.0053236 -0.000221524 2.9949e-18 0.00237131 6.3285e-18 0.00503881)
(0.00058782 3.67433e-05 -7.73461e-21 0.000472316 1.88136e-20 0.000530685)
(0.000558751 4.75244e-05 5.07297e-20 0.000466595 2.04554e-20 0.00051343)
(0.000521073 5.47359e-05 -3.10048e-20 0.0004579 -2.99342e-20 0.000490383)
(0.000477349 5.72422e-05 -4.70017e-21 0.000444748 2.22224e-20 0.000461965)
(0.000431261 5.53592e-05 -2.6822e-20 0.000427071 5.10336e-21 0.000430105)
(0.000385043 5.00162e-05 -4.8998e-20 0.000404711 5.4164e-21 0.000395874)
(0.000340126 4.23789e-05 5.08058e-20 0.000377535 -5.73759e-21 0.000359871)
(0.000298198 3.38092e-05 -1.98448e-20 0.000346788 1.04348e-20 0.000323528)
(0.000260309 2.54821e-05 2.95105e-20 0.000314189 8.57414e-22 0.000288189)
(0.000226884 1.81913e-05 8.36035e-21 0.000281501 -8.87201e-21 0.000254906)
(0.00019824 1.23545e-05 -9.62092e-21 0.000250641 -2.71048e-21 0.000224815)
(0.000174425 7.9473e-06 -3.27938e-20 0.000223194 8.46981e-21 0.00019879)
(0.000155057 4.70788e-06 -3.03044e-20 0.000199822 8.14419e-21 0.000177066)
(0.000139372 2.24296e-06 1.61335e-20 0.000180297 -3.19542e-21 0.000159237)
(0.000126398 1.93616e-07 -8.74961e-21 0.000163749 1.42064e-21 0.00014445)
(0.000115061 -1.69304e-06 -2.91007e-20 0.000148889 4.24568e-21 0.000131563)
(0.000104671 -3.50339e-06 -2.81845e-20 0.000134739 5.53469e-21 0.000119726)
(9.49469e-05 -5.23303e-06 -2.12488e-20 0.000120738 3.54975e-21 0.000108489)
(8.61928e-05 -6.79031e-06 3.04392e-20 0.000107032 1.14034e-21 9.80124e-05)
(7.87807e-05 -7.98825e-06 -1.42541e-20 9.39336e-05 -9.98929e-21 8.85648e-05)
(7.27218e-05 -8.50769e-06 -3.80815e-20 8.18413e-05 -6.62707e-21 8.02307e-05)
(6.78646e-05 -8.2573e-06 5.67897e-20 7.15327e-05 -5.19909e-22 7.31644e-05)
(6.38357e-05 -7.48549e-06 1.63752e-21 6.32468e-05 8.91689e-21 6.72572e-05)
(5.92408e-05 -6.42969e-06 7.18981e-22 5.58555e-05 1.03764e-21 6.12119e-05)
(5.26389e-05 -5.31802e-06 1.04348e-21 4.79662e-05 -1.94338e-22 5.351e-05)
(4.36981e-05 -4.3038e-06 -2.02807e-20 3.89039e-05 2.93392e-21 4.36947e-05)
(3.2062e-05 -3.20397e-06 -8.7877e-21 2.83091e-05 9.92065e-21 3.14621e-05)
(1.94163e-05 -1.88964e-06 4.51535e-20 1.76207e-05 -2.13016e-20 1.87039e-05)
(1.37992e-05 -1.28282e-06 2.73915e-20 1.33034e-05 -2.13633e-20 1.30863e-05)
(3.22642e-06 -5.45384e-08 -1.05895e-21 3.24699e-06 -6.11364e-22 3.18766e-06)
(1.07976e-06 -3.77253e-09 9.21777e-23 1.08384e-06 6.25147e-24 1.07672e-06)
(0.000480862 2.8733e-05 1.4942e-22 0.000384998 -7.29351e-21 0.000433396)
(0.000459554 3.77573e-05 -1.2905e-20 0.000381554 4.36242e-21 0.000421141)
(0.000431605 4.40892e-05 2.89459e-20 0.000376007 3.15514e-21 0.000404509)
(0.000398951 4.68829e-05 4.26307e-20 0.000367438 5.82923e-21 0.000383942)
(0.000364312 4.62694e-05 2.46211e-20 0.000355717 -3.71416e-21 0.000360811)
(0.000329134 4.28446e-05 -2.43826e-20 0.000340442 1.11244e-20 0.000335681)
(0.000294412 3.74017e-05 -3.23647e-20 0.000321284 -4.55821e-21 0.000308837)
(0.00026125 3.08971e-05 3.32557e-20 0.000298789 4.26348e-21 0.000281114)
(0.000230404 2.42044e-05 3.59083e-21 0.000273959 -1.16428e-20 0.000253368)
(0.000202223 1.79822e-05 -1.45954e-22 0.000247875 -3.9335e-21 0.000226278)
(0.000177132 1.26748e-05 -2.69511e-20 0.000222011 7.65693e-21 0.000200781)
(0.000155344 8.40201e-06 2.27702e-20 0.000197736 5.36155e-22 0.000177692)
(0.000136851 5.08142e-06 5.99881e-20 0.000175956 -7.48339e-21 0.000157506)
(0.000121475 2.47798e-06 -3.15117e-20 0.000157119 5.04956e-21 0.000140399)
(0.000108911 3.31285e-07 -5.38459e-21 0.000141207 7.05489e-22 0.000126247)
(9.8676e-05 -1.57231e-06 -4.05914e-20 0.000127725 5.71377e-21 0.000114581)
(9.03824e-05 -3.33605e-06 -2.13469e-20 0.000116134 1.8155e-21 0.000104926)
(8.37444e-05 -4.97503e-06 2.41746e-20 0.000105961 -5.56428e-21 9.68618e-05)
(7.85409e-05 -6.42816e-06 -6.93238e-20 9.68455e-05 6.83954e-21 9.0048e-05)
(7.43194e-05 -7.55738e-06 3.03945e-20 8.82639e-05 -3.82583e-21 8.39435e-05)
(7.02334e-05 -8.13821e-06 4.15587e-20 7.95696e-05 -6.85698e-21 7.7756e-05)
(6.5666e-05 -8.08332e-06 -2.12522e-20 7.08604e-05 1.19391e-20 7.11094e-05)
(6.04989e-05 -7.57308e-06 -1.91655e-20 6.2481e-05 5.86891e-22 6.41196e-05)
(5.44877e-05 -6.80904e-06 -3.79571e-21 5.44038e-05 -7.48608e-22 5.66516e-05)
(4.78199e-05 -5.99476e-06 -2.65737e-22 4.67679e-05 1.60121e-23 4.88374e-05)
(4.07636e-05 -5.19477e-06 1.30749e-21 3.96321e-05 -5.82548e-21 4.08368e-05)
(3.47229e-05 -4.47619e-06 -2.81526e-20 3.44925e-05 -9.11139e-21 3.41026e-05)
(3.31929e-05 -3.93445e-06 6.92813e-20 3.46023e-05 4.75007e-20 3.21497e-05)
(3.63135e-05 -3.41903e-06 2.41838e-22 3.94752e-05 2.06052e-20 3.50735e-05)
(4.36741e-05 -3.32487e-06 4.65795e-20 4.86427e-05 -3.58443e-21 4.22116e-05)
(4.22334e-05 -2.23045e-06 1.11508e-20 4.66845e-05 1.62913e-20 4.11373e-05)
(0.000398436 2.28414e-05 -1.19322e-21 0.00031806 5.09523e-21 0.000358575)
(0.000382148 3.04092e-05 -5.28016e-21 0.000315742 -1.58432e-20 0.000349398)
(0.000361043 3.59468e-05 -8.54659e-20 0.000312262 -1.19212e-20 0.000337207)
(0.000336361 3.87815e-05 2.54927e-20 0.000306825 1.45207e-20 0.000322185)
(0.000310116 3.89433e-05 -5.27238e-21 0.000299264 1.55502e-21 0.000305325)
(0.00028335 3.68302e-05 4.70827e-20 0.000289167 1.51508e-21 0.000286966)
(0.000256728 3.29907e-05 -1.37364e-20 0.000276139 1.20257e-20 0.000267197)
(0.000231087 2.81122e-05 2.35604e-20 0.000260492 -6.88022e-21 0.000246605)
(0.00020698 2.28394e-05 -2.95246e-20 0.000242816 8.23672e-21 0.000225759)
(0.000184709 1.76897e-05 -3.11775e-20 0.000223815 8.16837e-21 0.000205122)
(0.000164669 1.30628e-05 1.4135e-20 0.000204535 -8.91219e-22 0.000185401)
(0.000147089 9.14435e-06 1.70117e-20 0.000186017 -3.96632e-21 0.000167236)
(0.000132015 5.95806e-06 1.91427e-20 0.000169016 -8.58569e-21 0.000151051)
(0.000119375 3.38463e-06 1.4449e-20 0.000154026 -4.71956e-22 0.000137088)
(0.000108948 1.25416e-06 -1.50745e-20 0.000141147 3.08072e-21 0.000125322)
(0.000100332 -6.05425e-07 6.50624e-20 0.000130062 -9.08339e-21 0.000115421)
(9.30721e-05 -2.2988e-06 -1.9833e-20 0.000120239 1.24379e-21 0.000106899)
(8.67558e-05 -3.86133e-06 3.73721e-20 0.00011113 -1.5719e-21 9.92533e-05)
(8.10432e-05 -5.25844e-06 4.28226e-20 0.000102274 -8.09476e-21 9.20476e-05)
(7.55152e-05 -6.38765e-06 -8.13234e-22 9.31921e-05 7.00878e-21 8.47922e-05)
(6.96284e-05 -7.06424e-06 -1.17166e-20 8.3504e-05 1.01283e-20 7.69817e-05)
(6.33168e-05 -7.19235e-06 -1.09904e-20 7.36645e-05 -2.207e-21 6.87388e-05)
(5.69279e-05 -6.88507e-06 3.16277e-21 6.4453e-05 -1.37866e-21 6.06165e-05)
(5.08848e-05 -6.31089e-06 4.75005e-21 5.64969e-05 -8.40433e-22 5.3156e-05)
(4.59898e-05 -5.64317e-06 1.96501e-21 5.06053e-05 2.82386e-22 4.7126e-05)
(4.27961e-05 -4.94693e-06 6.25816e-21 4.71331e-05 8.62079e-22 4.29947e-05)
(4.25674e-05 -4.24718e-06 1.73145e-20 4.74752e-05 -9.55888e-21 4.20729e-05)
(4.59777e-05 -3.69474e-06 -1.26461e-19 5.20415e-05 8.10319e-21 4.50445e-05)
(5.15062e-05 -3.3273e-06 -4.29262e-20 5.88866e-05 -2.49578e-20 5.02927e-05)
(5.75866e-05 -3.16435e-06 -7.9299e-21 6.62083e-05 4.50629e-20 5.6137e-05)
(6.26285e-05 -3.06491e-06 -6.401e-20 7.22092e-05 -2.72077e-21 6.10139e-05)
(0.000343489 1.10795e-05 -3.48343e-20 0.000267798 -1.41969e-20 0.000305857)
(0.000333297 1.83817e-05 -2.12198e-20 0.00026539 -6.3005e-21 0.000299599)
(0.000320815 2.47617e-05 -1.18608e-20 0.000263932 6.58084e-21 0.00029272)
(0.000304628 2.96193e-05 5.25432e-21 0.000261848 2.36235e-20 0.00028367)
(0.000285775 3.23657e-05 3.41176e-20 0.000258561 5.39264e-21 0.000272631)
(0.000265662 3.2977e-05 2.51403e-20 0.00025378 -1.36923e-20 0.00026023)
(0.000245053 3.17391e-05 -1.95488e-20 0.000247163 -9.02562e-21 0.000246693)
(0.000224381 2.90341e-05 6.93782e-20 0.000238249 -9.59266e-21 0.000231953)
(0.000204249 2.53677e-05 -3.59854e-21 0.000227178 -1.36256e-20 0.000216398)
(0.000185033 2.1217e-05 5.75134e-20 0.000214271 -3.14243e-21 0.000200386)
(0.00016697 1.69828e-05 3.19193e-20 0.000199973 -1.15685e-21 0.000184234)
(0.000150348 1.29973e-05 -2.15029e-20 0.000184951 3.99567e-22 0.000168411)
(0.000135349 9.45205e-06 2.30793e-21 0.00016993 -2.93867e-21 0.000153374)
(0.000122048 6.43071e-06 -5.22002e-20 0.000155498 7.32062e-21 0.00013946)
(0.000110446 3.89283e-06 1.59953e-21 0.000142123 -1.37422e-21 0.000126925)
(0.000100471 1.73699e-06 3.4984e-20 0.000130045 -3.79568e-21 0.000115885)
(9.19534e-05 -1.55725e-07 2.09844e-21 0.000119238 7.63791e-23 0.000106267)
(8.46904e-05 -1.87045e-06 2.66691e-20 0.000109502 -3.81797e-21 9.78755e-05)
(7.84532e-05 -3.44774e-06 -3.7114e-20 0.000100519 5.96163e-21 9.04283e-05)
(7.3049e-05 -4.8583e-06 -2.57569e-20 9.20025e-05 5.58318e-21 8.36586e-05)
(6.81707e-05 -6.01557e-06 -5.2507e-20 8.35716e-05 4.53538e-21 7.72008e-05)
(6.34512e-05 -6.76611e-06 -3.66567e-20 7.49713e-05 -2.05451e-21 7.07161e-05)
(5.87112e-05 -7.01528e-06 -2.95914e-21 6.6397e-05 -1.44685e-21 6.41754e-05)
(5.40556e-05 -6.82784e-06 -1.45541e-20 5.83542e-05 -7.01687e-22 5.7863e-05)
(4.95567e-05 -6.33898e-06 2.0014e-22 5.11087e-05 1.09452e-21 5.19725e-05)
(4.52532e-05 -5.69923e-06 -1.87027e-21 4.47542e-05 5.24561e-22 4.65305e-05)
(4.08345e-05 -4.96223e-06 -2.8655e-23 3.88327e-05 1.88369e-21 4.11638e-05)
(3.59425e-05 -4.16714e-06 1.48277e-20 3.30512e-05 8.79539e-21 3.55588e-05)
(3.09095e-05 -3.45647e-06 4.23617e-21 2.77867e-05 -1.83488e-20 3.00617e-05)
(2.60935e-05 -2.88323e-06 9.58801e-20 2.32143e-05 -3.68445e-21 2.49487e-05)
(2.22457e-05 -2.46428e-06 -1.5929e-19 1.98182e-05 -4.56872e-20 2.08768e-05)
(1.94727e-05 -2.16031e-06 1.79989e-20 1.7683e-05 -3.28087e-20 1.79419e-05)
(0.000281241 1.49764e-05 -5.9837e-20 0.000223467 6.63332e-21 0.000252572)
(0.000271181 2.03426e-05 9.37245e-20 0.000222267 3.35017e-20 0.000247013)
(0.000258778 2.46025e-05 5.7015e-20 0.000221234 -5.18734e-21 0.000240336)
(0.000244362 2.72206e-05 3.43743e-20 0.000219563 -7.98318e-21 0.000232314)
(0.000228874 2.80929e-05 -7.31532e-20 0.000216765 -5.13508e-21 0.000223215)
(0.000212911 2.7445e-05 -4.51986e-20 0.000212594 2.98119e-21 0.00021322)
(0.000196789 2.55547e-05 -8.77674e-20 0.000206642 -1.76404e-21 0.000202233)
(0.000180966 2.28009e-05 -8.68613e-20 0.000198943 1.3351e-20 0.000190504)
(0.000165727 1.95471e-05 -3.00991e-20 0.0001897 -3.21874e-21 0.00017829)
(0.000151234 1.60967e-05 1.37339e-20 0.000179184 -8.90182e-22 0.000165797)
(0.000137738 1.27193e-05 -1.25548e-20 0.000167872 2.5043e-21 0.000153387)
(0.000125396 9.59199e-06 -2.10718e-20 0.000156273 5.28731e-21 0.000141392)
(0.000114265 6.81586e-06 2.31447e-20 0.0001448 -1.56249e-21 0.000130042)
(0.000104385 4.40402e-06 -3.09837e-20 0.000133855 1.71328e-21 0.000119568)
(9.57279e-05 2.31392e-06 1.99306e-21 0.000123681 -8.37291e-22 0.000110101)
(8.81964e-05 4.63363e-07 1.31116e-20 0.000114343 -2.05888e-21 0.000101652)
(8.16287e-05 -1.21187e-06 2.98325e-20 0.000105715 -2.97158e-21 9.4093e-05)
(7.58298e-05 -2.74814e-06 -1.53926e-20 9.75575e-05 1.05919e-21 8.72033e-05)
(7.06023e-05 -4.12724e-06 -9.16317e-21 8.95969e-05 -3.43889e-21 8.07348e-05)
(6.57264e-05 -5.27972e-06 -7.74881e-21 8.1568e-05 -6.45187e-21 7.44228e-05)
(6.09096e-05 -6.07977e-06 2.82852e-20 7.32545e-05 -6.0553e-21 6.7997e-05)
(5.60664e-05 -6.43552e-06 -1.96209e-21 6.48839e-05 -3.94248e-21 6.14912e-05)
(5.13153e-05 -6.38323e-06 9.57461e-21 5.69185e-05 -3.17594e-21 5.51793e-05)
(4.67504e-05 -6.02819e-06 -1.85584e-21 4.96781e-05 -3.42165e-22 4.92727e-05)
(4.24738e-05 -5.50456e-06 -1.13945e-21 4.33226e-05 -3.30874e-22 4.38776e-05)
(3.81451e-05 -4.86346e-06 -4.37242e-21 3.74381e-05 -2.67228e-22 3.8608e-05)
(3.34236e-05 -4.14556e-06 -1.73629e-20 3.17707e-05 6.9048e-22 3.31641e-05)
(2.88128e-05 -3.47113e-06 -4.13731e-20 2.67491e-05 -5.09763e-21 2.80662e-05)
(2.46904e-05 -2.88977e-06 7.59547e-21 2.25381e-05 1.69046e-20 2.36234e-05)
(2.15387e-05 -2.43234e-06 1.51429e-19 1.93925e-05 -2.8123e-20 2.0233e-05)
(1.89585e-05 -2.051e-06 9.64175e-20 1.69172e-05 4.69302e-20 1.74951e-05)
(0.000231108 1.68924e-05 -8.08538e-20 0.000188819 -2.1102e-20 0.000210209)
(0.000220867 2.0553e-05 -5.84892e-20 0.000187907 6.18713e-23 0.000204669)
(0.000209821 2.29971e-05 5.22783e-20 0.000187345 1.83187e-20 0.000198855)
(0.000198054 2.40487e-05 7.98452e-20 0.000186195 7.53585e-22 0.000192427)
(0.00018573 2.38123e-05 1.35506e-20 0.000183856 -2.60978e-21 0.000185161)
(0.000173078 2.25066e-05 5.79257e-20 0.000179989 1.5353e-20 0.000176949)
(0.000160525 2.04307e-05 6.64654e-20 0.000174663 9.37726e-21 0.000168039)
(0.000148346 1.78731e-05 -3.09802e-20 0.000168044 -4.84581e-22 0.00015866)
(0.000136645 1.50704e-05 2.07332e-20 0.000160282 -2.26927e-21 0.000148934)
(0.000125608 1.22338e-05 -5.06725e-21 0.000151708 1.55663e-21 0.000139128)
(0.000115343 9.50668e-06 4.25704e-20 0.000142668 -3.57585e-21 0.000129468)
(0.000105903 6.99597e-06 -2.39408e-20 0.000133437 2.72956e-21 0.000120108)
(9.73222e-05 4.74e-06 -4.53586e-20 0.000124312 8.20824e-21 0.000111218)
(8.96299e-05 2.73652e-06 -1.61902e-20 0.000115548 2.03411e-21 0.000102955)
(8.27797e-05 9.43564e-07 -4.03056e-20 0.000107249 4.72818e-21 9.53684e-05)
(7.6678e-05 -6.85387e-07 -3.91769e-20 9.93833e-05 3.89713e-21 8.84166e-05)
(7.1221e-05 -2.18107e-06 -3.65707e-20 9.18399e-05 2.05955e-21 8.19919e-05)
(6.62892e-05 -3.53046e-06 7.63623e-20 8.4453e-05 -4.95715e-21 7.5944e-05)
(6.17199e-05 -4.67245e-06 5.01356e-20 7.70288e-05 -3.38647e-21 7.0076e-05)
(5.72914e-05 -5.50202e-06 9.24789e-21 6.94079e-05 4.02089e-21 6.41847e-05)
(5.29412e-05 -5.93553e-06 3.59114e-20 6.17852e-05 2.11357e-21 5.83048e-05)
(4.87224e-05 -5.98707e-06 6.55164e-21 5.45133e-05 3.1053e-21 5.26216e-05)
(4.47053e-05 -5.73997e-06 1.96771e-21 4.78896e-05 -7.82074e-22 4.73162e-05)
(4.09598e-05 -5.31106e-06 -2.86017e-22 4.2055e-05 -4.64012e-22 4.24753e-05)
(3.71687e-05 -4.75003e-06 1.66639e-22 3.66548e-05 -1.02601e-21 3.77537e-05)
(3.30115e-05 -4.09854e-06 8.47253e-21 3.14509e-05 -2.60686e-21 3.28672e-05)
(2.8856e-05 -3.46961e-06 1.24546e-20 2.67805e-05 -7.17092e-21 2.82024e-05)
(2.49327e-05 -2.91096e-06 2.40539e-20 2.27198e-05 3.44344e-21 2.39334e-05)
(2.1817e-05 -2.4627e-06 4.01293e-20 1.96022e-05 4.87433e-20 2.05586e-05)
(1.92568e-05 -2.08773e-06 -1.87829e-19 1.7131e-05 -2.13542e-21 1.78239e-05)
(0.000189962 1.73403e-05 1.63687e-20 0.000160948 7.04793e-21 0.000175687)
(0.000180599 1.94813e-05 3.19761e-20 0.000160315 -1.55596e-20 0.000170706)
(0.00017166 2.0617e-05 -1.03556e-19 0.000160283 -2.1069e-20 0.000166218)
(0.00016246 2.07107e-05 -7.94759e-20 0.000159628 7.67787e-21 0.000161328)
(0.000152581 1.98388e-05 3.03422e-20 0.000157363 -5.96072e-21 0.000155294)
(0.000142588 1.8274e-05 7.35641e-20 0.000153764 -1.33799e-20 0.000148528)
(0.000132818 1.62607e-05 -2.96167e-20 0.00014907 5.79564e-21 0.000141315)
(0.000123352 1.39846e-05 -8.74076e-21 0.000143383 7.79053e-23 0.000133741)
(0.000114349 1.16142e-05 -2.59496e-21 0.000136955 -1.43227e-21 0.00012602)
(0.000105878 9.26652e-06 -1.17996e-20 0.000130009 1.04915e-21 0.000118304)
(9.79685e-05 7.03249e-06 3.88047e-20 0.000122721 -2.60541e-21 0.000110686)
(9.06625e-05 4.96227e-06 6.01132e-20 0.000115317 -1.64242e-21 0.000103299)
(8.3986e-05 3.07892e-06 8.00258e-21 0.000107984 2.76088e-22 9.62587e-05)
(7.79271e-05 1.36806e-06 4.62031e-20 0.000100843 -3.3622e-21 8.9636e-05)
(7.24462e-05 -1.95993e-07 1.76823e-20 9.39295e-05 -1.70637e-21 8.34441e-05)
(6.74675e-05 -1.63804e-06 2.79713e-20 8.71785e-05 -2.90378e-21 7.76202e-05)
(6.29041e-05 -2.94651e-06 -4.62669e-20 8.04772e-05 6.37751e-21 7.20625e-05)
(5.86069e-05 -4.07182e-06 -4.14836e-21 7.36457e-05 5.626e-21 6.65988e-05)
(5.444e-05 -4.9222e-06 -2.90846e-20 6.66121e-05 1.74313e-21 6.11093e-05)
(5.03482e-05 -5.42143e-06 -3.73663e-20 5.9524e-05 2.563e-21 5.56177e-05)
(4.63958e-05 -5.56891e-06 -1.51562e-20 5.27154e-05 1.0439e-21 5.03006e-05)
(4.26341e-05 -5.42619e-06 4.96624e-21 4.64488e-05 8.71434e-22 4.53119e-05)
(3.91219e-05 -5.09098e-06 1.86737e-21 4.08781e-05 3.49875e-22 4.07365e-05)
(3.55868e-05 -4.61115e-06 1.92747e-21 3.57136e-05 -1.21764e-21 3.62871e-05)
(3.17578e-05 -4.02905e-06 -5.79006e-22 3.07814e-05 2.36094e-21 3.17275e-05)
(2.78851e-05 -3.44202e-06 -2.26473e-21 2.63155e-05 -5.38419e-21 2.73305e-05)
(2.4108e-05 -2.89794e-06 -7.85465e-21 2.23548e-05 2.10932e-20 2.31885e-05)
(2.10333e-05 -2.45025e-06 -8.6917e-20 1.92866e-05 -2.49679e-20 1.98384e-05)
(1.85643e-05 -2.078e-06 1.4553e-20 1.69541e-05 -4.34014e-20 1.71811e-05)
(0.000156644 1.6659e-05 -1.0884e-19 0.000138367 -2.20352e-20 0.00014771)
(0.000148785 1.76722e-05 2.4203e-20 0.000138024 1.97632e-20 0.000143645)
(0.000141992 1.7994e-05 5.56121e-20 0.000138581 1.84277e-21 0.000140512)
(0.000134627 1.74849e-05 -7.96657e-20 0.00013783 -9.88948e-21 0.000136485)
(0.000126759 1.6323e-05 -6.72193e-20 0.000135616 1.38893e-21 0.000131469)
(0.000118897 1.47354e-05 4.82302e-20 0.000132352 5.14785e-22 0.000125926)
(0.000111226 1.28868e-05 1.65894e-20 0.000128231 -1.38835e-21 0.000120031)
(0.000103848 1.09108e-05 -3.79252e-20 0.00012341 2.23936e-21 0.000113925)
(9.68345e-05 8.90071e-06 3.58241e-20 0.000118076 -2.13826e-21 0.000107744)
(9.0205e-05 6.93468e-06 -1.99318e-20 0.000112341 -1.84019e-21 0.000101546)
(8.39952e-05 5.06368e-06 6.41074e-20 0.000106363 -7.70714e-21 9.54269e-05)
(7.82257e-05 3.3215e-06 1.97991e-20 0.000100275 -2.01241e-21 8.94672e-05)
(7.2885e-05 1.71107e-06 -1.69747e-21 9.41692e-05 -4.38597e-22 8.37189e-05)
(6.79511e-05 2.2358e-07 9.46029e-21 8.80899e-05 -9.00591e-22 7.82074e-05)
(6.33822e-05 -1.15562e-06 -8.71241e-21 8.20186e-05 1.05463e-21 7.2912e-05)
(5.91202e-05 -2.41509e-06 -6.68242e-21 7.58841e-05 -1.20544e-21 6.77729e-05)
(5.50695e-05 -3.51164e-06 -5.59152e-20 6.95737e-05 9.60722e-22 6.26813e-05)
(5.1144e-05 -4.36869e-06 4.45253e-21 6.30504e-05 -2.71977e-21 5.75664e-05)
(4.73354e-05 -4.91605e-06 2.55049e-20 5.64741e-05 -4.61401e-21 5.24845e-05)
(4.37146e-05 -5.14224e-06 -1.36456e-21 5.01435e-05 -2.49341e-21 4.76003e-05)
(4.03408e-05 -5.08926e-06 -4.93135e-21 4.43163e-05 1.65674e-22 4.30656e-05)
(3.7278e-05 -4.83762e-06 -2.05802e-21 3.91554e-05 8.86924e-23 3.89776e-05)
(3.42942e-05 -4.42978e-06 8.34974e-21 3.44404e-05 1.55778e-21 3.51023e-05)
(3.11393e-05 -3.90499e-06 -4.50463e-21 3.0002e-05 5.75363e-22 3.12218e-05)
(2.797e-05 -3.35187e-06 3.9743e-20 2.60016e-05 -6.65914e-21 2.75183e-05)
(2.47348e-05 -2.81673e-06 -9.50342e-20 2.23375e-05 -7.3893e-21 2.39016e-05)
(2.18749e-05 -2.35618e-06 1.51189e-19 1.92829e-05 2.0316e-20 2.07513e-05)
(1.93097e-05 -1.96175e-06 7.04696e-20 1.67006e-05 -2.28697e-21 1.79882e-05)
(0.000129938 1.5281e-05 5.84047e-21 0.000119886 2.42854e-21 0.0001251)
(0.000123782 1.55856e-05 -3.78684e-20 0.000120006 -6.83104e-21 0.000122123)
(0.000118587 1.53741e-05 3.35903e-21 0.000120601 1.27052e-20 0.000119809)
(0.000112622 1.45491e-05 3.77498e-20 0.000119637 1.98469e-21 0.000116365)
(0.000106401 1.33125e-05 -4.71177e-20 0.000117564 -3.48831e-21 0.000112237)
(0.000100182 1.1812e-05 1.17773e-20 0.000114637 -3.01313e-22 0.000107665)