/*--------------------------------*- C++ -*----------------------------------*\
| =========                 |                                                 |
| \\      /  F ield         | OpenFOAM: The Open Source CFD Toolbox           |
|  \\    /   O peration     | Version:  2306                                  |
|   \\  /    A nd           | Website:  www.openfoam.com                      |
|    \\/     M anipulation  |                                                 |
\*---------------------------------------------------------------------------*/
FoamFile
{
    version     2.0;
    format      ascii;
    arch        "LSB;label=32;scalar=64";
    class       volScalarField;
    location    "25";
    object      turbulenceProperties:I;
}
// * * * * * * * * * * * * * * * * * * * * * * * * * * * * * * * * * * * * * //

dimensions      [0 0 0 0 0 0 0];

internalField   nonuniform List<scalar> 
1340
(
0.0068605
0.00619997
0.00607828
0.00629204
0.00675274
0.00741874
0.00827978
0.00934228
0.0106565
0.0123083
0.0144426
0.0172701
0.0211168
0.0264445
0.0339552
0.0445549
0.0608853
0.0833898
0.1202
0.176837
0.217533
0.234657
0.239725
0.241396
0.242372
0.243142
0.243721
0.24432
0.00459595
0.00342002
0.00262096
0.00208075
0.00170033
0.00141953
0.00120269
0.00102919
0.000886647
0.000768142
0.000667124
0.000581312
0.000506134
0.000437787
0.000367625
0.000293366
0.000208654
0.000298887
0.0014136
0.00274312
0.00831188
0.01655
0.0241227
0.0295779
0.033054
0.0350519
0.0364639
0.0378411
0.0394723
0.00337866
0.00277588
0.00224065
0.00181234
0.00147425
0.00120794
0.000997487
0.000831096
0.000704418
0.000612615
0.00055001
0.00050871
0.000481404
0.000463167
0.000451119
0.000443926
0.000439045
0.000429079
0.000403146
0.00038169
0.000272124
0.000439998
0.00102991
0.00180459
0.00441605
0.00777712
0.0113867
0.0150492
0.0185937
0.00278907
0.00256931
0.00224838
0.00192132
0.00163198
0.00139009
0.00119339
0.00103457
0.00090691
0.000806909
0.000731068
0.000676356
0.000637654
0.000609296
0.000584957
0.000560963
0.000534597
0.000504104
0.000467116
0.000426416
0.000382737
0.000338225
0.000173184
0.000331801
0.000256967
0.000122838
0.000609592
0.0014356
0.00263751
0.00430753
0.00215917
0.00204433
0.00185954
0.00164944
0.00144354
0.00125579
0.00109137
0.000949862
0.000829185
0.00072793
0.000644459
0.000576991
0.000523071
0.000480017
0.000444838
0.000415978
0.000393239
0.000377962
0.000371608
0.000373865
0.000382851
0.000396467
0.000411405
0.00041572
0.000467576
0.000256489
0.000739607
0.000103127
0.00176141
0.00231194
0.00175456
0.00174451
0.00167731
0.00156345
0.00142532
0.00128131
0.00114311
0.00101729
0.000905781
0.000808521
0.00072512
0.000654781
0.0005961
0.000547104
0.000505422
0.000468459
0.000434372
0.000402177
0.000372151
0.000344939
0.00032101
0.000300981
0.000284634
0.000269006
0.000250221
0.000225946
0.000192709
0.000150468
0.000128238
6.31874e-05
3.68338e-05
0.00145841
0.00145321
0.00141129
0.00133705
0.00124277
0.00113934
0.00103515
0.00093583
0.000843913
0.000760299
0.000685646
0.000620048
0.00056318
0.000514464
0.000473035
0.000437619
0.000407128
0.000380732
0.000357844
0.000337539
0.000318346
0.00029957
0.000281136
0.000262279
0.000242788
0.000222579
0.000205457
0.000202463
0.00021397
0.000236822
0.00023432
0.00124029
0.00123726
0.00120974
0.00115948
0.00109352
0.00101855
0.000940263
0.000863231
0.00078985
0.000721414
0.000659014
0.000603189
0.000554041
0.000511421
0.000474774
0.000443096
0.000415216
0.000390062
0.000366779
0.00034445
0.000322089
0.000299872
0.000278674
0.000259409
0.000243932
0.000233765
0.000232874
0.000242664
0.00025797
0.000274225
0.000287886
0.0010623
0.00107249
0.00107095
0.00105231
0.00101728
0.000970074
0.000914863
0.000855414
0.000795196
0.000736175
0.000679616
0.000626579
0.000577685
0.000533251
0.00049341
0.000458025
0.000426669
0.000398768
0.000373665
0.000350819
0.000329512
0.000309084
0.000289464
0.000271138
0.000254309
0.000238917
0.000223852
0.00020796
0.000191786
0.000175898
0.000162634
0.000153078
0.000939875
0.000938539
0.000925834
0.00090118
0.000866903
0.000825806
0.000780411
0.000733316
0.000686121
0.000639906
0.000595694
0.000554116
0.000515533
0.00048024
0.000448288
0.000419494
0.00039344
0.000369589
0.000347395
0.000326325
0.000305816
0.000285931
0.000267152
0.000249774
0.000233941
0.000218531
0.000202439
0.00018674
0.000172276
0.000160698
0.000150974
0.000831703
0.000821678
0.000804163
0.000779514
0.000748867
0.000713959
0.00067689
0.000639024
0.000601214
0.000564336
0.000528923
0.000495315
0.000463826
0.000434678
0.000407856
0.000383158
0.000360295
0.000338921
0.000318636
0.000299021
0.00028017
0.000262429
0.000246093
0.000231286
0.000216993
0.000202187
0.00018764
0.000173714
0.000162225
0.000152554
0.000735899
0.000721612
0.000703867
0.000681693
0.000654927
0.000625669
0.000595233
0.000564327
0.000533714
0.000503812
0.000474897
0.000447286
0.000421206
0.000396754
0.000373902
0.000352468
0.000332209
0.000312755
0.000293877
0.000275647
0.000258436
0.000242505
0.000228001
0.000214045
0.000199779
0.000185691
0.000171877
0.000160262
0.000150779
0.000652523
0.000637449
0.000621675
0.000601947
0.000579053
0.000554563
0.000529306
0.000503867
0.000478641
0.000453848
0.000429763
0.000406588
0.00038443
0.000363326
0.000343207
0.000323922
0.000305237
0.000287026
0.000269456
0.000252908
0.0002377
0.000224052
0.000211264
0.000198581
0.000186336
0.000174072
0.000163054
0.000153027
0.000581082
0.000567318
0.0005536
0.000536263
0.000516822
0.000496207
0.000475101
0.00045387
0.000432695
0.000411812
0.000391375
0.000371487
0.000352205
0.000333556
0.00031545
0.000297766
0.000280424
0.000263646
0.000247782
0.000233144
0.000219922
0.000207566
0.00019545
0.000183742
0.000172087
0.000161559
0.000152317
0.000520044
0.000509163
0.000496816
0.000481776
0.000465079
0.000447579
0.000429736
0.000411704
0.000393639
0.000375655
0.000357854
0.00034034
0.000323161
0.000306297
0.000289637
0.000273218
0.000257269
0.000242168
0.000228161
0.000215494
0.000203718
0.000192338
0.000181453
0.000170772
0.000160825
0.00015202
0.000479643
0.000468847
0.000460306
0.000449085
0.00043577
0.000421334
0.000406314
0.000390932
0.000375315
0.000359546
0.000343712
0.000327912
0.000312205
0.000296605
0.000281059
0.000265653
0.000250625
0.000236326
0.000222982
0.000210832
0.000199524
0.000188718
0.00017847
0.000168618
0.000159281
0.000151051
0.00043335
0.000426199
0.00041842
0.000408084
0.000396244
0.000383611
0.000370496
0.000357029
0.000343262
0.000329271
0.000315126
0.00030088
0.000286545
0.00027214
0.000257747
0.000243646
0.00023014
0.000217481
0.000205853
0.000195018
0.000184701
0.000175012
0.000165848
0.000157041
0.0001492
0.000402502
0.000394819
0.000389567
0.000381878
0.000372314
0.000361773
0.00035063
0.000339031
0.000327056
0.000314762
0.000302187
0.000289358
0.000276282
0.000262992
0.000249581
0.000236386
0.000223692
0.000211724
0.000200638
0.000190274
0.000180439
0.000171279
0.000162699
0.000154346
0.000146775
0.000367008
0.00036259
0.000357112
0.00034962
0.000340981
0.000331533
0.000321547
0.000311159
0.000300411
0.000289286
0.000277765
0.000265883
0.000253666
0.000241262
0.000228967
0.000217091
0.000205812
0.000195303
0.000185431
0.0001761
0.000167424
0.000159338
0.000151386
0.000144037
0.000341996
0.000337744
0.000334018
0.000328455
0.000321412
0.000313391
0.000304794
0.000295775
0.000286359
0.000276512
0.000266198
0.000255443
0.000244267
0.000232832
0.000221429
0.000210362
0.00019981
0.000189889
0.000180539
0.000171723
0.000163523
0.00015585
0.000148226
0.00014105
0.00031938
0.000314638
0.000312554
0.000308545
0.000302896
0.000296139
0.000288738
0.000280888
0.000272623
0.000263893
0.000254683
0.000244987
0.000234828
0.000224319
0.000213793
0.000203525
0.000193703
0.000184386
0.000175576
0.000167247
0.000159474
0.00015215
0.000144837
0.000137859
0.00029391
0.000291774
0.000289523
0.000285264
0.000279659
0.000273275
0.000266443
0.0002592
0.000251495
0.000243291
0.000234578
0.00022537
0.000215761
0.000206074
0.000196596
0.000187478
0.000178773
0.000170485
0.000162621
0.000155245
0.000148236
0.000141183
0.000134362
0.000276001
0.000272402
0.000271281
0.000268376
0.000263859
0.000258441
0.000252551
0.000246233
0.000239455
0.000232168
0.000224368
0.000216021
0.000207235
0.00019832
0.000189583
0.000181146
0.000173046
0.000165279
0.000157871
0.000150862
0.000144146
0.000137326
0.000130673
0.000255266
0.000253985
0.000252212
0.000248685
0.000244248
0.00023924
0.000233768
0.000227828
0.000221364
0.000214354
0.000206765
0.000198718
0.000190527
0.000182502
0.000174746
0.00016725
0.000160009
0.000153046
0.000146414
0.00014
0.000133413
0.000126905
0.000239824
0.000237936
0.000236836
0.00023436
0.000230828
0.000226564
0.000221835
0.000216607
0.000210829
0.000204467
0.000197555
0.0001902
0.00018272
0.000175394
0.000168291
0.000161383
0.000154663
0.00014813
0.00014186
0.000135745
0.000129433
0.000123115
0.000225529
0.000222895
0.000222557
0.000220876
0.000218007
0.000214412
0.000210321
0.000205698
0.000200466
0.000194672
0.000188394
0.000181721
0.000174942
0.000168294
0.000161814
0.000155456
0.00014921
0.000143073
0.000137132
0.000131285
0.000125276
0.000119137
0.000209293
0.000208544
0.000207757
0.000205601
0.000202679
0.000199168
0.000195059
0.000190331
0.000185122
0.000179475
0.000173476
0.000167354
0.000161324
0.000155408
0.000149548
0.000143729
0.000137946
0.000132293
0.000126687
0.000120942
0.00011497
0.000196928
0.000195512
0.000195119
0.00019378
0.000191566
0.00018858
0.000184933
0.000180725
0.00017606
0.000171025
0.000165646
0.000160107
0.00015462
0.000149196
0.000143777
0.000138341
0.000132885
0.000127491
0.000122098
0.000116554
0.000110693
0.000185371
0.000183143
0.000183415
0.000182751
0.00018109
0.000178612
0.00017544
0.00017168
0.000167537
0.000163076
0.000158244
0.000153214
0.00014819
0.000143187
0.000138146
0.000133043
0.00012788
0.00012273
0.000117531
0.000112128
0.000106351
0.00017218
0.0001718
0.000172082
0.000171142
0.000169171
0.000166383
0.000163071
0.00015943
0.000155485
0.000151143
0.000146552
0.00014192
0.000137279
0.00013257
0.000127768
0.000122867
0.000117939
0.000112914
0.000107618
0.000101895
0.000162952
0.000161278
0.000161791
0.000161429
0.000159987
0.000157641
0.000154764
0.000151586
0.000148065
0.000144149
0.000139945
0.000135663
0.000131338
0.000126924
0.000122386
0.000117728
0.000113001
0.000108127
0.000102945
9.7306e-05
0.000151962
0.000151864
0.000152094
0.000151028
0.000149093
0.000146607
0.000143793
0.000140675
0.000137139
0.000133277
0.000129298
0.000125258
0.000121117
0.000116835
0.000112414
0.000107882
0.000103166
9.8113e-05
9.25684e-05
0.0001435
0.000142749
0.00014288
0.000142206
0.000140712
0.000138599
0.000136134
0.000133352
0.000130121
0.000126537
0.00012282
0.000119045
0.000115171
0.000111156
0.000106978
0.000102657
9.81253e-05
9.32298e-05
8.7801e-05
0.00013539
0.000134097
0.000134224
0.000133827
0.000132671
0.00013083
0.000128626
0.000126115
0.000123152
0.00011981
0.000116341
0.000112835
0.000109241
0.000105501
0.000101579
9.74765e-05
9.3135e-05
8.8401e-05
8.3073e-05
0.000126364
0.000125862
0.000125794
0.000124848
0.000123253
0.000121317
0.000119052
0.000116308
0.000113208
0.00011
0.000106759
0.000103433
9.99521e-05
9.62739e-05
9.2374e-05
8.81984e-05
8.36143e-05
7.83708e-05
0.000119253
0.000118347
0.000118029
0.00011727
0.000116033
0.000114342
0.000112273
0.000109774
0.000106925
0.000103963
0.000100966
9.78795e-05
9.46362e-05
9.11793e-05
8.74647e-05
8.34425e-05
7.899e-05
7.38005e-05
0.000112378
0.000111209
0.000110824
0.000110283
0.00010927
0.000107767
0.000105901
0.000103621
0.000101017
9.82981e-05
9.5523e-05
9.26476e-05
8.96102e-05
8.6347e-05
8.27939e-05
7.89092e-05
7.46132e-05
6.954e-05
0.000104759
0.000103953
0.000103645
0.000102875
0.000101544
9.9841e-05
9.7808e-05
9.54649e-05
9.29633e-05
9.03662e-05
8.76521e-05
8.47711e-05
8.16636e-05
7.82493e-05
7.45069e-05
7.03667e-05
6.53181e-05
9.87697e-05
9.78383e-05
9.74185e-05
9.66886e-05
9.5549e-05
9.41155e-05
9.23501e-05
9.02156e-05
8.78479e-05
8.53598e-05
8.27522e-05
7.99898e-05
7.70193e-05
7.37509e-05
7.01935e-05
6.61416e-05
9.3172e-05
9.21118e-05
9.15156e-05
9.08699e-05
8.99585e-05
8.8737e-05
8.71424e-05
8.51165e-05
8.28409e-05
8.04305e-05
7.79285e-05
7.53042e-05
7.25032e-05
6.9435e-05
6.60742e-05
6.22057e-05
8.69131e-05
8.59062e-05
8.53644e-05
8.46372e-05
8.35802e-05
8.21185e-05
8.02091e-05
7.79998e-05
7.57017e-05
7.33522e-05
7.08971e-05
6.82799e-05
6.54096e-05
6.22527e-05
5.86139e-05
8.20015e-05
8.09216e-05
8.02409e-05
7.95604e-05
7.87481e-05
7.74765e-05
7.56468e-05
7.35755e-05
7.14491e-05
6.92634e-05
6.69686e-05
6.45043e-05
6.17955e-05
5.88018e-05
5.53565e-05
7.73791e-05
7.63407e-05
7.5518e-05
7.50268e-05
7.43978e-05
7.3206e-05
7.15315e-05
6.96417e-05
6.76801e-05
6.56469e-05
6.3491e-05
6.11602e-05
5.85938e-05
5.57307e-05
5.24643e-05
7.22332e-05
7.13222e-05
7.07998e-05
7.02156e-05
6.91896e-05
6.76942e-05
6.5977e-05
6.41645e-05
6.22644e-05
6.02435e-05
5.80513e-05
5.56166e-05
5.29047e-05
4.98435e-05
6.8458e-05
6.74943e-05
6.67262e-05
6.61254e-05
6.52916e-05
6.40286e-05
6.24705e-05
6.07854e-05
5.90189e-05
5.71326e-05
5.50554e-05
5.27487e-05
5.01929e-05
4.73441e-05
6.47914e-05
6.38411e-05
6.28204e-05
6.22976e-05
6.17267e-05
6.06495e-05
5.92233e-05
5.76587e-05
5.60062e-05
5.42097e-05
5.22481e-05
5.00822e-05
4.77059e-05
4.51148e-05
6.05085e-05
5.93821e-05
5.89232e-05
5.85526e-05
5.76558e-05
5.63467e-05
5.48924e-05
5.33517e-05
5.16757e-05
4.98078e-05
4.77978e-05
4.56286e-05
4.32985e-05
5.74534e-05
5.64529e-05
5.59977e-05
5.5736e-05
5.49808e-05
5.38621e-05
5.2627e-05
5.12238e-05
4.95964e-05
4.78559e-05
4.60329e-05
4.40819e-05
4.19973e-05
5.45517e-05
5.374e-05
5.32813e-05
5.30775e-05
5.25718e-05
5.17736e-05
5.06905e-05
4.93278e-05
4.78298e-05
4.62704e-05
4.46419e-05
4.29013e-05
4.10409e-05
5.17706e-05
5.13067e-05
5.064e-05
5.05545e-05
5.03355e-05
4.96681e-05
4.86277e-05
4.73861e-05
4.60516e-05
4.46803e-05
4.32525e-05
4.17275e-05
4.01016e-05
4.88144e-05
4.82508e-05
4.80983e-05
4.79392e-05
4.72962e-05
4.63205e-05
4.52015e-05
4.4044e-05
4.28569e-05
4.16262e-05
4.03357e-05
3.8924e-05
4.62286e-05
4.5922e-05
4.56239e-05
4.53673e-05
4.47354e-05
4.38827e-05
4.29269e-05
4.19267e-05
4.09051e-05
3.98525e-05
3.88179e-05
3.76288e-05
4.39356e-05
4.36339e-05
4.32352e-05
4.29454e-05
4.24277e-05
4.17096e-05
4.08686e-05
3.99829e-05
3.90841e-05
3.82268e-05
3.73924e-05
4.1792e-05
4.17171e-05
4.1235e-05
4.09707e-05
4.05478e-05
3.99131e-05
3.91492e-05
3.83465e-05
3.75729e-05
3.6857e-05
3.61395e-05
3.9964e-05
3.9676e-05
3.92646e-05
3.89314e-05
3.83824e-05
3.76694e-05
3.69492e-05
3.63356e-05
3.57408e-05
3.50987e-05
3.81333e-05
3.80822e-05
3.77286e-05
3.74174e-05
3.68816e-05
3.62523e-05
3.57044e-05
3.51742e-05
3.45737e-05
3.39493e-05
3.63538e-05
3.64361e-05
3.61042e-05
3.57878e-05
3.53277e-05
3.48497e-05
3.43553e-05
3.38626e-05
3.33312e-05
3.27857e-05
3.46026e-05
3.48063e-05
3.44308e-05
3.41198e-05
3.3762e-05
3.33488e-05
3.29735e-05
3.25498e-05
3.20176e-05
3.14918e-05
3.27997e-05
3.32992e-05
3.29106e-05
3.25925e-05
3.22996e-05
3.2042e-05
3.17042e-05
3.12789e-05
3.08055e-05
3.03447e-05
3.18749e-05
3.16861e-05
3.11989e-05
3.10767e-05
3.08734e-05
3.05896e-05
3.02283e-05
2.97707e-05
2.93108e-05
3.02633e-05
3.03643e-05
3.00098e-05
2.99104e-05
2.9775e-05
2.95297e-05
2.91373e-05
2.87631e-05
2.84029e-05
2.86823e-05
2.89466e-05
2.86832e-05
2.8699e-05
2.8604e-05
2.83722e-05
2.80579e-05
2.77587e-05
2.70512e-05
2.74431e-05
2.73507e-05
2.74456e-05
2.74306e-05
2.72745e-05
2.6992e-05
2.66863e-05
2.53675e-05
2.605e-05
2.60413e-05
2.62077e-05
2.62688e-05
2.6191e-05
2.60104e-05
2.58007e-05
2.36387e-05
2.47563e-05
2.47635e-05
2.4926e-05
2.50917e-05
2.51811e-05
2.5125e-05
2.49854e-05
2.32248e-05
2.35384e-05
2.34709e-05
2.37612e-05
2.39797e-05
2.4048e-05
2.40101e-05
2.12319e-05
2.1724e-05
2.17401e-05
2.20757e-05
2.23552e-05
2.25054e-05
2.25703e-05
1.99285e-05
2.02832e-05
2.01592e-05
2.0441e-05
2.07084e-05
2.08917e-05
2.10362e-05
1.89581e-05
1.92978e-05
1.91345e-05
1.93331e-05
1.95346e-05
1.96799e-05
1.98467e-05
1.80427e-05
1.82629e-05
1.81041e-05
1.82351e-05
1.83538e-05
1.84947e-05
1.86853e-05
1.70707e-05
1.72372e-05
1.70634e-05
1.71346e-05
1.71951e-05
1.72981e-05
1.74645e-05
1.61641e-05
1.62108e-05
1.60563e-05
1.61082e-05
1.61035e-05
1.61262e-05
1.53235e-05
1.53389e-05
1.51194e-05
1.50915e-05
1.50648e-05
1.50686e-05
1.43973e-05
1.44509e-05
1.41314e-05
1.39802e-05
1.39627e-05
1.4004e-05
1.33756e-05
1.31027e-05
1.27748e-05
1.28057e-05
1.29698e-05
1.0798e-05
1.08801e-05
1.08312e-05
1.11524e-05
1.16494e-05
7.78725e-06
7.4034e-06
7.42022e-06
8.20609e-06
9.13835e-06
1.63496e-05
1.724e-05
1.79076e-05
1.84886e-05
1.89991e-05
2.38694e-05
2.3899e-05
2.39293e-05
2.39205e-05
2.38915e-05
3.51973e-05
3.51773e-05
3.51218e-05
3.50012e-05
3.4834e-05
)
;

boundaryField
{
    inlet
    {
        type            calculated;
        value           nonuniform List<scalar> 5(6.21205e-05 6.26122e-05 6.30035e-05 6.33017e-05 6.35109e-05);
    }
    outlet
    {
        type            calculated;
        value           nonuniform List<scalar> 0();
    }
    walls
    {
        type            calculated;
        value           uniform 0;
    }
    frontAndBack
    {
        type            empty;
    }
    procBoundary1to0
    {
        type            processor;
        value           nonuniform List<scalar> 
94
(
0.00093232
0.00093232
0.000832655
0.000832655
0.000743743
0.000743743
0.000664107
0.000664107
0.0005939
0.0005939
0.000532879
0.000532879
0.000489517
0.000443495
0.000443495
0.000410479
0.000374383
0.000374383
0.000348298
0.000324706
0.000299191
0.000299191
0.000280049
0.00025927
0.00025927
0.000243249
0.000228424
0.00021253
0.00021253
0.000199767
0.000187866
0.000175126
0.000175126
0.000164885
0.000154097
0.000154097
0.000145124
0.000136715
0.000128051
0.000128051
0.000120506
0.000113373
0.000106139
0.000106139
9.98963e-05
9.40927e-05
8.81452e-05
8.81452e-05
8.30868e-05
7.82621e-05
7.31981e-05
7.31981e-05
6.91713e-05
6.54819e-05
6.14703e-05
6.14703e-05
5.82893e-05
5.52069e-05
5.21461e-05
4.89845e-05
4.89845e-05
4.64067e-05
4.4138e-05
4.20113e-05
3.97754e-05
3.97754e-05
3.79229e-05
3.6017e-05
3.41661e-05
3.23305e-05
3.10158e-05
3.10158e-05
2.94085e-05
2.77092e-05
2.599e-05
2.41479e-05
2.23122e-05
2.17232e-05
2.17232e-05
1.99779e-05
1.87297e-05
1.79115e-05
1.72055e-05
1.63918e-05
1.56777e-05
1.49721e-05
1.40239e-05
1.30834e-05
1.30834e-05
1.03088e-05
7.88915e-06
1.5516e-05
2.37824e-05
3.51188e-05
)
;
    }
    procBoundary1to2
    {
        type            processor;
        value           nonuniform List<scalar> 
84
(
0.245066
0.0413568
0.0218387
0.00654962
0.000695507
0.000191646
0.0001727
0.000287827
0.000153267
0.000145805
0.000146463
0.000145236
0.000144923
0.000144935
0.000144835
0.000144398
0.000142957
0.000140754
0.000138106
0.000135108
0.000131912
0.000128399
0.000124702
0.000120907
0.000117149
0.00011324
0.000109143
0.000104882
0.000100542
9.60877e-05
9.15306e-05
8.68486e-05
8.21479e-05
7.74511e-05
7.27335e-05
6.81091e-05
6.37889e-05
5.95686e-05
6.08496e-05
6.08496e-05
5.72278e-05
5.39052e-05
5.08977e-05
4.83012e-05
4.6032e-05
4.39416e-05
4.21117e-05
4.06928e-05
3.97564e-05
3.91389e-05
3.85151e-05
3.75598e-05
3.60559e-05
3.64944e-05
3.64944e-05
3.54376e-05
3.44686e-05
3.344e-05
3.23597e-05
3.1132e-05
3.00435e-05
2.89751e-05
2.78317e-05
2.76306e-05
2.76306e-05
2.66117e-05
2.57598e-05
2.49691e-05
2.41008e-05
2.27639e-05
2.13934e-05
2.02824e-05
1.91315e-05
1.76228e-05
1.64747e-05
1.64747e-05
1.53366e-05
1.41493e-05
1.31269e-05
1.21449e-05
9.71362e-06
1.94859e-05
2.38264e-05
3.46309e-05
)
;
    }
    procBoundary1to5
    {
        type            processor;
        value           nonuniform List<scalar> 
13
(
0.00868423
0.00868423
0.00590306
0.00385542
0.00385542
0.00283489
0.00217988
0.00217988
0.00172449
0.00143862
0.00122618
0.00122618
0.00104367
)
;
    }
}


// ************************************************************************* //
