/*--------------------------------*- C++ -*----------------------------------*\
| =========                 |                                                 |
| \\      /  F ield         | OpenFOAM: The Open Source CFD Toolbox           |
|  \\    /   O peration     | Version:  2306                                  |
|   \\  /    A nd           | Website:  www.openfoam.com                      |
|    \\/     M anipulation  |                                                 |
\*---------------------------------------------------------------------------*/
FoamFile
{
    version     2.0;
    format      ascii;
    arch        "LSB;label=32;scalar=64";
    class       volScalarField;
    location    "125";
    object      div(phi);
}
// * * * * * * * * * * * * * * * * * * * * * * * * * * * * * * * * * * * * * //

dimensions      [0 0 -1 0 0 0 0];

internalField   nonuniform List<scalar> 
1340
(
1.02535e-05
1.36943e-05
3.71047e-06
3.84438e-06
-7.22654e-07
8.62418e-06
4.4273e-06
-4.85703e-06
7.65536e-06
2.6122e-06
-2.44659e-07
2.80682e-06
-4.70924e-06
2.62812e-06
-2.84196e-07
9.12075e-06
3.28508e-06
-1.61832e-06
-1.04972e-06
-4.12544e-06
1.48081e-06
-3.36239e-06
7.9515e-06
2.4266e-06
1.44412e-06
6.43312e-07
3.04679e-06
1.07938e-07
-1.65904e-06
-8.88584e-07
9.64431e-07
-3.81075e-06
3.48669e-06
-3.09422e-08
8.80251e-06
1.16547e-06
1.12307e-06
1.52154e-07
1.97135e-07
1.2019e-06
3.18664e-07
-4.26854e-07
3.66444e-07
-3.72184e-07
-3.33137e-06
1.65456e-06
-2.6632e-06
8.01688e-06
2.30918e-06
-2.32602e-06
4.4419e-06
-1.20991e-07
3.68551e-08
1.37616e-06
1.12198e-06
-2.05989e-07
2.71883e-07
3.06479e-07
6.38678e-07
7.21128e-07
-8.05096e-07
-1.02808e-06
1.03965e-06
-3.43828e-06
4.25854e-06
2.15274e-07
8.21719e-06
-9.35001e-06
8.14485e-06
-7.62062e-06
5.58083e-06
-2.51504e-06
3.67343e-06
-1.27263e-06
6.72186e-07
6.03352e-07
1.68361e-06
8.12848e-07
-3.85217e-07
-2.5621e-07
8.29322e-07
6.52648e-07
-1.55405e-07
4.07042e-07
6.5998e-08
-2.99718e-06
2.0119e-06
-2.15487e-06
7.96121e-06
2.16657e-06
8.24052e-06
1.25914e-06
9.18635e-06
5.5753e-06
3.97079e-06
6.15881e-06
4.65855e-06
-9.90943e-07
1.5665e-06
-1.28771e-07
-3.61818e-07
3.54109e-06
-2.0122e-06
2.1704e-06
-1.95011e-06
1.50489e-06
8.84513e-07
3.53519e-07
-4.32992e-07
7.86619e-08
3.23407e-07
5.17665e-07
9.12417e-07
-1.30889e-07
-1.15516e-06
1.06408e-06
-3.06861e-06
4.54716e-06
4.12394e-07
6.97913e-06
2.41894e-05
2.45964e-05
5.03857e-06
2.20217e-05
3.06608e-06
1.94015e-05
2.22915e-06
1.66901e-05
4.93577e-07
1.36814e-05
-1.27406e-06
1.30056e-05
-3.79484e-06
1.13708e-05
-3.65775e-06
1.13807e-05
-3.30972e-06
9.88992e-06
-1.58063e-06
5.37117e-06
-1.13075e-06
1.21006e-06
2.25307e-06
-1.14415e-06
2.96283e-06
-3.19133e-06
2.1823e-06
-9.52257e-07
1.04003e-06
-1.16151e-07
-6.81141e-07
-4.77044e-08
2.17183e-07
7.57205e-07
2.37738e-07
3.00499e-07
4.38693e-07
-2.64364e-06
2.16314e-06
-1.75543e-06
7.41198e-06
1.92236e-06
-0.000321776
-0.000909929
-9.7242e-05
-0.000581875
0.000120444
-0.000384298
0.000204494
-0.000266296
0.000207976
-0.000194106
0.000197363
-0.000144298
0.000163736
-0.000106126
0.000144174
-7.49851e-05
0.000114213
-5.19015e-05
9.73816e-05
-3.2901e-05
7.39293e-05
-1.64406e-05
5.90206e-05
-1.21163e-06
4.39494e-05
1.02306e-05
3.48419e-05
1.7609e-05
2.44079e-05
1.96502e-05
1.49795e-05
1.98597e-05
9.53753e-06
1.97805e-05
3.83878e-06
2.17115e-05
3.79695e-06
2.13566e-05
3.86806e-06
2.09753e-05
4.96458e-06
1.94772e-05
5.19582e-06
1.66364e-05
3.7557e-06
1.25996e-05
2.41588e-06
9.33743e-06
1.08186e-06
7.41883e-06
1.18639e-06
5.82097e-06
1.91377e-06
5.49026e-06
2.53085e-06
4.90728e-06
2.32301e-06
2.05802e-06
2.31316e-06
7.29684e-07
2.4392e-06
-1.62501e-06
2.47407e-06
-1.07832e-06
5.20531e-07
3.12925e-08
-9.12848e-07
-5.77125e-08
-5.50956e-07
1.13905e-07
5.32583e-08
8.17103e-07
3.09485e-07
-1.12105e-06
1.21115e-06
-2.65092e-06
4.82093e-06
5.83402e-07
5.83035e-06
0.000950953
-8.96383e-05
0.000374122
-0.000123842
0.000342987
-0.00014049
0.000307892
-0.000143978
0.000262919
-0.000136477
0.000227509
-0.000118119
0.000185018
-9.48291e-05
0.000162704
-6.8154e-05
0.000130165
-4.32656e-05
0.000114237
-2.09649e-05
8.90008e-05
-3.07512e-06
7.35369e-05
1.2864e-05
5.43004e-05
2.58642e-05
4.2628e-05
3.48806e-05
3.04469e-05
3.53849e-05
1.74009e-05
2.93826e-05
5.18459e-06
2.49559e-05
3.01762e-07
2.31007e-05
1.27783e-06
2.33959e-05
3.04944e-06
2.3099e-05
5.71612e-06
2.08455e-05
5.50604e-06
1.62676e-05
3.28847e-06
1.27923e-05
1.64373e-06
9.45917e-06
1.39668e-06
6.98983e-06
1.2824e-06
6.10386e-06
2.09703e-06
4.93868e-06
3.24858e-06
4.40366e-06
3.29932e-06
2.88551e-06
2.81266e-06
1.87809e-06
9.61671e-07
1.75358e-06
4.57589e-07
4.8156e-07
1.31969e-07
-3.29777e-07
2.41455e-08
-4.50127e-07
-3.76528e-07
-4.90319e-07
1.14461e-07
2.16066e-07
2.81473e-07
5.90671e-07
-2.40453e-06
2.61622e-06
-1.33219e-06
6.81069e-06
1.67668e-06
0.00144812
-0.000154182
0.000378991
-0.000107328
0.000375733
-5.32016e-05
0.000352224
-2.19213e-05
0.000312038
-1.05311e-05
0.000247425
-1.09814e-05
0.000198133
-7.57498e-06
0.00014953
-1.44159e-06
0.000123691
8.66636e-06
9.5097e-05
1.83145e-05
8.02972e-05
2.72678e-05
6.15447e-05
3.39262e-05
4.97111e-05
4.05614e-05
3.70766e-05
4.62133e-05
2.89994e-05
4.92875e-05
1.91577e-05
4.59262e-05
1.23342e-05
3.76566e-05
6.92237e-06
2.98846e-05
2.0556e-06
2.33833e-05
2.27096e-06
1.89071e-05
1.19836e-06
1.59545e-05
8.98559e-07
1.43396e-05
1.53649e-06
1.15279e-05
1.49843e-06
9.34337e-06
7.87341e-07
8.07964e-06
1.67153e-06
6.23434e-06
2.38096e-06
5.44387e-06
2.84142e-06
4.52622e-06
3.42103e-06
3.21624e-06
2.74406e-06
1.96602e-06
1.66339e-06
1.23941e-06
9.65999e-07
6.04446e-07
3.69127e-07
-4.71728e-08
3.52815e-07
-3.19269e-08
-4.60754e-07
-9.16988e-07
-5.16524e-07
1.2585e-06
-4.18771e-08
-1.13272e-06
1.47252e-06
-2.28599e-06
4.71305e-06
7.15004e-07
4.4823e-06
0.00204672
0.000171117
0.000471445
7.18126e-05
0.000363518
4.81466e-05
0.000302264
4.82614e-05
0.000256797
4.55134e-05
0.000207398
2.84745e-05
0.000163055
1.17556e-05
0.000119701
2.13266e-06
9.76641e-05
2.23029e-06
7.39179e-05
8.1216e-06
6.40732e-05
1.7337e-05
4.93087e-05
2.57159e-05
4.07327e-05
3.32509e-05
2.95521e-05
3.94231e-05
2.05013e-05
4.14541e-05
1.47563e-05
3.58195e-05
3.42704e-07
2.61589e-05
-5.7183e-06
1.87928e-05
-6.88341e-06
1.56442e-05
-5.96676e-06
1.50299e-05
-1.48919e-06
1.41726e-05
1.18619e-06
1.10203e-05
5.21945e-07
9.45015e-06
9.977e-08
8.51085e-06
1.43899e-06
7.33585e-06
1.54841e-06
7.18818e-06
2.19128e-06
5.97714e-06
3.02447e-06
4.71076e-06
2.85941e-06
3.36631e-06
2.36541e-06
2.00639e-06
1.46344e-06
1.1858e-06
7.64219e-07
1.0867e-06
7.12462e-08
6.17638e-07
4.28007e-07
6.52576e-07
-1.32095e-06
-1.11515e-06
1.38433e-06
-5.99509e-07
6.13764e-07
2.90778e-07
-2.3378e-06
2.78907e-06
-9.66727e-07
5.68617e-06
1.31902e-06
0.00204037
0.000339039
0.000892853
0.000164527
0.000689753
8.56212e-05
0.000557227
6.78827e-05
0.000443622
7.01215e-05
0.000363689
7.34726e-05
0.000280824
5.98793e-05
0.000212337
4.31375e-05
0.000148173
3.19367e-05
0.000112586
2.94115e-05
7.93899e-05
3.15211e-05
6.06424e-05
3.64508e-05
4.07823e-05
3.98529e-05
2.71294e-05
4.06899e-05
1.62856e-05
3.98052e-05
7.1317e-06
3.61141e-05
2.9664e-06
2.696e-05
-5.09851e-06
1.53504e-05
-9.84786e-06
6.2449e-06
-1.08293e-05
1.0577e-06
-9.37566e-06
-7.44253e-07
-7.7928e-06
1.61808e-06
-4.01138e-06
3.98e-06
-5.9778e-07
5.72116e-06
9.48591e-09
7.23419e-06
1.74605e-06
6.53141e-06
2.35052e-06
5.49937e-06
2.38542e-06
4.0691e-06
2.76816e-06
2.40443e-06
2.52818e-06
9.58716e-07
2.10024e-06
-7.07356e-10
1.76685e-06
1.00097e-08
1.09728e-06
-2.7393e-07
1.94451e-06
-6.81398e-07
-9.57787e-07
1.15952e-06
-9.87556e-07
1.62574e-06
-2.14983e-07
-2.03027e-06
1.41457e-06
-2.13034e-06
4.4085e-06
6.62219e-07
3.41595e-06
-0.00107505
-0.000814592
-0.000414594
-0.00060954
-0.000171703
-0.00043442
-4.0777e-05
-0.000312875
2.44776e-05
-0.000227867
4.89469e-05
-0.000169076
5.48358e-05
-0.000133543
5.59458e-05
-0.000111161
5.03027e-05
-9.43983e-05
4.83303e-05
-7.81676e-05
3.95465e-05
-6.27635e-05
3.76669e-05
-4.78599e-05
3.00455e-05
-3.46681e-05
2.75396e-05
-2.19269e-05
2.11839e-05
-1.05137e-05
1.74152e-05
-1.04093e-06
1.27047e-05
4.74976e-06
9.24925e-06
6.70742e-06
4.83557e-06
5.7458e-06
2.67119e-06
4.80738e-06
-3.26816e-07
5.25316e-06
3.70716e-07
5.21564e-06
9.71659e-08
6.09102e-06
-2.12422e-06
7.46506e-06
-4.00406e-07
7.84204e-06
-1.26473e-06
8.16553e-06
-1.4216e-06
7.66564e-06
-5.18039e-07
6.43416e-06
-4.98202e-07
4.75907e-06
-2.26554e-07
3.03981e-06
-4.52161e-08
1.6889e-06
3.10738e-07
1.31862e-06
-9.04469e-08
1.08177e-06
7.7857e-07
-3.92176e-07
1.02443e-06
-5.75014e-07
1.21499e-06
4.57088e-07
-1.77355e-06
9.09024e-07
-2.61155e-06
2.86242e-06
-7.31484e-07
4.61487e-06
9.0786e-07
0.000301895
6.96662e-05
0.000207577
-3.67616e-05
0.000152699
-8.27901e-05
0.000117914
-0.000104328
9.49755e-05
-0.000110374
7.77686e-05
-0.000105883
6.97499e-05
-9.41918e-05
6.25131e-05
-8.16391e-05
6.08615e-05
-7.20852e-05
5.64967e-05
-6.32065e-05
5.02263e-05
-5.52466e-05
4.55584e-05
-4.84559e-05
3.85097e-05
-4.22313e-05
3.61089e-05
-3.52228e-05
2.88265e-05
-2.74013e-05
2.54045e-05
-1.84177e-05
1.82924e-05
-1.04204e-05
1.38795e-05
-3.33285e-06
8.66361e-06
1.71036e-06
4.24864e-06
3.42161e-06
2.10012e-06
1.66594e-06
-3.08505e-06
4.27209e-07
-5.31627e-06
4.93082e-08
-4.08385e-06
4.86124e-07
-5.43338e-06
2.41635e-06
-3.57935e-06
3.96033e-06
-2.23864e-06
4.58197e-06
-2.23223e-06
4.42121e-06
-1.35327e-06
3.60024e-06
-7.80129e-07
2.49267e-06
-1.73678e-07
1.35839e-06
6.10247e-07
8.78291e-07
4.25932e-07
6.94264e-07
1.38259e-06
-2.21209e-08
1.5379e-06
-5.29424e-07
1.95708e-06
-1.71476e-06
1.12304e-06
-2.49944e-06
1.71865e-06
-1.84044e-06
4.08072e-06
4.19125e-07
2.43897e-06
0.000187328
-8.90774e-05
0.000390534
3.80947e-05
0.000439473
5.34072e-05
0.000371179
2.71939e-05
0.000294418
-4.39669e-07
0.000224203
-2.17709e-05
0.000174549
-3.40499e-05
0.000137251
-3.79553e-05
0.000113452
-3.55472e-05
9.45263e-05
-3.26617e-05
8.1293e-05
-2.84824e-05
6.47866e-05
-2.32177e-05
5.46198e-05
-1.55017e-05
4.31548e-05
-7.51306e-06
3.72789e-05
7.20923e-08
2.95504e-05
5.49764e-06
2.41782e-05
9.47588e-06
1.79306e-05
1.18126e-05
1.28603e-05
1.2275e-05
8.65541e-06
1.07517e-05
4.62266e-06
7.92408e-06
3.14231e-06
3.55782e-06
4.68802e-07
-2.91059e-07
-3.4993e-06
-1.76445e-06
-4.2707e-06
-1.3289e-06
-4.86924e-06
1.44794e-07
-4.71057e-06
1.70346e-06
-3.33465e-06
2.90556e-06
-2.79853e-06
3.52264e-06
-2.34753e-06
3.76743e-06
-2.19293e-06
3.67843e-06
-1.85088e-06
3.36129e-06
-2.08656e-06
3.403e-06
-2.34404e-06
3.7788e-06
-1.86919e-06
2.61444e-06
-1.34245e-06
1.17266e-06
-1.60474e-06
8.34865e-07
-2.16282e-06
2.91366e-06
-7.3555e-07
3.74199e-06
5.58136e-07
-0.0013107
-0.000746753
-0.000303518
-0.000571042
-0.000104252
-0.000426275
1.63144e-05
-0.000320946
8.12087e-05
-0.00024579
0.000110219
-0.000189303
0.000123817
-0.000143776
0.000123023
-0.000105058
0.000118558
-7.21058e-05
0.00010784
-4.86214e-05
9.82026e-05
-3.31883e-05
8.14618e-05
-2.32428e-05
6.61204e-05
-1.4764e-05
5.03876e-05
-8.0174e-06
4.04145e-05
-3.68347e-06
3.03693e-05
-1.93567e-06
2.33049e-05
-1.17641e-06
1.60803e-05
-1.14336e-06
1.19944e-05
-1.87043e-06
7.47474e-06
-3.08082e-06
5.39923e-06
-2.50276e-06
2.34257e-06
-3.81092e-07
2.53338e-06
6.1459e-07
7.55781e-07
7.05457e-07
-7.71409e-07
4.68149e-07
-1.03809e-06
2.72336e-07
-1.64131e-06
8.17366e-07
-1.30947e-06
1.63514e-06
-9.50259e-07
2.06345e-06
-7.19423e-07
2.00173e-06
-6.0757e-07
1.57013e-06
-4.3837e-07
1.41351e-06
-6.69415e-07
1.83608e-06
-5.37504e-07
1.00344e-06
-3.54145e-07
4.8295e-07
-6.78304e-07
4.18824e-07
-1.748e-06
1.85392e-06
-1.80869e-06
3.75588e-06
2.34653e-07
1.7529e-06
-0.000539454
-0.000243314
-0.000256517
-0.000270574
-0.000186586
-0.00024622
-0.000100094
-0.000205331
-4.04415e-05
-0.000167131
3.42239e-06
-0.000133094
2.67099e-05
-0.000105324
4.07437e-05
-8.35803e-05
4.28559e-05
-6.79205e-05
4.32519e-05
-5.7556e-05
3.97331e-05
-5.29547e-05
3.65896e-05
-5.07303e-05
3.21004e-05
-4.66607e-05
2.72613e-05
-4.09509e-05
2.35848e-05
-3.58748e-05
2.01413e-05
-3.19549e-05
1.85746e-05
-2.78535e-05
1.61491e-05
-2.32448e-05
1.49592e-05
-1.83819e-05
1.26961e-05
-1.40131e-05
1.10542e-05
-1.01775e-05
8.81421e-06
-7.94838e-06
6.188e-06
-5.91547e-06
3.41785e-06
-4.37771e-06
2.37137e-06
-2.78694e-06
5.3382e-07
-1.42044e-06
1.25239e-07
-1.61919e-07
-3.5279e-07
5.18446e-07
-7.34619e-07
9.708e-07
-9.09244e-07
9.91583e-07
-8.51576e-07
8.40907e-07
-7.07427e-07
1.00196e-06
-6.58348e-07
1.02065e-06
-5.26932e-07
1.52263e-07
4.73328e-08
-4.01443e-07
4.06879e-07
-9.69815e-07
1.17159e-06
-2.14087e-06
3.20435e-06
-6.65307e-07
3.10336e-06
1.38123e-07
-0.00281239
-0.000540543
-0.000501752
-0.000352473
-0.000250582
-0.000238436
-0.000128173
-0.000180624
-5.49731e-05
-0.000146915
-1.90253e-05
-0.000125035
6.28713e-06
-0.00010757
1.77426e-05
-9.39772e-05
2.8098e-05
-8.33358e-05
3.1039e-05
-7.5528e-05
3.3961e-05
-6.88271e-05
3.47169e-05
-6.33752e-05
3.402e-05
-5.70616e-05
3.20991e-05
-4.82183e-05
2.79045e-05
-3.94818e-05
2.44931e-05
-3.29104e-05
2.04478e-05
-2.84912e-05
1.82329e-05
-2.44881e-05
1.49119e-05
-2.05357e-05
1.33802e-05
-1.65328e-05
1.08824e-05
-1.27991e-05
9.28373e-06
-9.0003e-06
7.25213e-06
-6.59725e-06
5.5141e-06
-5.07567e-06
2.92891e-06
-4.20602e-06
1.51251e-06
-3.2222e-06
1.13892e-07
-2.07776e-06
-5.40261e-07
-8.50631e-07
-7.96149e-07
6.79061e-08
-8.63615e-07
5.4308e-07
-7.93727e-07
6.24073e-07
-6.66856e-07
9.75869e-07
-6.32423e-07
1.12931e-06
-6.09645e-07
6.03682e-07
-1.76252e-07
3.70416e-07
-2.78136e-07
9.24778e-07
-1.54694e-06
2.64434e-06
-1.65057e-06
3.53648e-06
-2.52268e-07
5.95225e-07
-0.000106353
-0.000335063
-0.000466764
-0.000333025
-0.000384613
-0.0002687
-0.000287568
-0.000204768
-0.000191213
-0.000154662
-0.000130636
-0.000121748
-8.38225e-05
-9.99858e-05
-5.81938e-05
-8.71544e-05
-3.69592e-05
-7.89355e-05
-2.61381e-05
-7.4412e-05
-1.58062e-05
-7.04386e-05
-1.05421e-05
-6.67692e-05
-4.64513e-06
-6.19295e-05
-4.86907e-07
-5.55954e-05
4.29099e-06
-4.75333e-05
7.22448e-06
-4.06722e-05
8.76362e-06
-3.54739e-05
1.01929e-05
-3.1366e-05
1.0399e-05
-2.69266e-05
1.15528e-05
-2.23086e-05
1.06474e-05
-1.80747e-05
1.11304e-05
-1.35187e-05
8.92233e-06
-8.54607e-06
7.99295e-06
-4.23728e-06
6.00948e-06
-1.34722e-06
4.0951e-06
9.5728e-08
2.42572e-06
4.34231e-07
9.8512e-07
4.00394e-07
4.54965e-08
4.48258e-07
-4.11554e-07
6.03285e-07
-4.88563e-07
6.94527e-07
-3.97467e-07
9.14583e-07
-3.36303e-07
1.0763e-06
-1.92899e-07
4.62989e-07
4.04628e-07
8.06183e-08
1.07931e-06
-4.38904e-07
2.2168e-06
-2.11225e-06
3.20733e-06
-5.3244e-07
1.626e-06
2.67144e-07
-0.000476685
0.000399191
0.000137181
0.000316853
8.40126e-05
0.000216427
2.04284e-05
0.000128183
-2.39654e-05
6.35566e-05
-5.3988e-05
1.98694e-05
-6.39561e-05
-8.80855e-06
-6.91052e-05
-2.8672e-05
-6.47404e-05
-4.13601e-05
-6.03581e-05
-4.92583e-05
-4.96976e-05
-5.23043e-05
-4.1192e-05
-5.22279e-05
-2.94144e-05
-4.86865e-05
-2.08017e-05
-4.39065e-05
-1.07799e-05
-3.81445e-05
-3.57434e-06
-3.23191e-05
2.20334e-06
-2.72977e-05
5.56909e-06
-2.36098e-05
7.6338e-06
-2.02744e-05
9.45981e-06
-1.68009e-05
9.52446e-06
-1.34891e-05
1.00865e-05
-9.83656e-06
8.69551e-06
-6.23205e-06
7.74725e-06
-3.23652e-06
5.27141e-06
-1.42435e-06
3.41487e-06
-6.92752e-07
1.56399e-06
-5.94889e-07
3.70747e-07
-4.87637e-07
-1.97732e-07
-2.05729e-07
-3.21221e-07
1.93315e-07
-1.94849e-07
5.38287e-07
-5.94678e-08
8.19422e-07
-1.18971e-07
1.13724e-06
-9.25727e-08
1.18331e-06
4.18514e-07
1.29178e-06
4.90351e-07
1.7667e-06
-1.60273e-06
2.43924e-06
-3.00766e-07
2.3524e-06
1.05901e-06
5.47577e-07
0.000498124
0.000189166
-3.40221e-06
5.68984e-05
-8.75038e-05
-1.21899e-05
-0.000102975
-4.37131e-05
-0.000102569
-5.82844e-05
-8.58942e-05
-6.44004e-05
-7.33773e-05
-6.79809e-05
-5.92885e-05
-6.85874e-05
-4.85553e-05
-6.62113e-05
-3.64503e-05
-6.0915e-05
-2.6897e-05
-5.40828e-05
-1.87082e-05
-4.66548e-05
-1.25846e-05
-3.89951e-05
-7.91684e-06
-3.19323e-05
-4.08808e-06
-2.58015e-05
-1.12032e-06
-2.05045e-05
1.19746e-06
-1.57058e-05
2.51869e-06
-1.23361e-05
3.46528e-06
-9.90888e-06
3.61977e-06
-8.17128e-06
4.07096e-06
-6.48407e-06
3.46966e-06
-5.12668e-06
3.28043e-06
-3.42221e-06
2.39833e-06
-1.73637e-06
1.84594e-06
-3.98716e-07
1.06873e-06
3.31827e-07
5.23297e-07
5.61482e-07
1.64532e-07
5.61137e-07
1.32119e-07
6.32177e-07
3.11237e-07
8.39298e-07
4.9264e-07
1.06995e-06
5.54018e-07
1.0895e-06
4.63351e-07
1.36916e-06
8.12869e-07
1.10599e-06
1.06093e-06
8.10462e-07
1.21089e-06
-4.08044e-07
1.50859e-06
1.3573e-07
1.94854e-06
1.23454e-06
7.31109e-07
1.88734e-07
-2.56527e-05
0.000339712
7.59956e-05
0.000276181
5.44285e-05
0.000231791
4.03811e-05
0.000197795
3.31632e-05
0.000172812
3.16966e-05
0.00015515
3.29927e-05
0.000142915
3.75974e-05
0.000134638
3.96434e-05
0.000127498
4.05181e-05
0.000119633
3.76978e-05
0.000109907
3.27886e-05
9.84108e-05
2.5855e-05
8.59448e-05
1.73214e-05
7.31931e-05
9.11386e-06
6.0777e-05
1.29839e-06
4.86545e-05
-5.35275e-06
3.6874e-05
-9.50881e-06
2.6771e-05
-1.19787e-05
1.91351e-05
-1.14332e-05
1.34578e-05
-1.03904e-05
8.72611e-06
-7.46628e-06
5.40404e-06
-4.776e-06
3.45389e-06
-1.8699e-06
2.79872e-06
3.89542e-07
2.668e-06
2.08741e-06
2.64044e-06
3.05455e-06
2.45695e-06
3.39673e-06
2.16644e-06
3.19001e-06
1.85882e-06
2.64472e-06
1.58782e-06
2.01011e-06
1.36287e-06
1.41908e-06
9.40895e-07
1.15264e-06
1.15587e-06
1.07431e-06
8.18235e-07
6.0634e-07
6.33922e-07
3.40327e-07
5.93507e-07
2.38492e-07
7.66916e-07
5.81861e-07
3.40176e-07
1.15313e-07
0
)
;

boundaryField
{
    inlet
    {
        type            extrapolatedCalculated;
        value           nonuniform List<scalar> 
27
(
1.02535e-05
3.71047e-06
8.62418e-06
2.6122e-06
9.12075e-06
2.4266e-06
8.80251e-06
2.30918e-06
8.21719e-06
2.16657e-06
6.97913e-06
1.92236e-06
5.83035e-06
1.67668e-06
4.4823e-06
1.31902e-06
3.41595e-06
9.0786e-07
2.43897e-06
5.58136e-07
1.7529e-06
1.38123e-07
5.95225e-07
2.67144e-07
5.47577e-07
1.88734e-07
0
)
;
    }
    outlet
    {
        type            extrapolatedCalculated;
        value           nonuniform List<scalar> 
78
(
-2.56527e-05
0.000339712
7.59956e-05
0.000276181
5.44285e-05
0.000231791
4.03811e-05
0.000197795
3.31632e-05
0.000172812
3.16966e-05
0.00015515
3.29927e-05
0.000142915
3.75974e-05
0.000134638
3.96434e-05
0.000127498
4.05181e-05
0.000119633
3.76978e-05
0.000109907
3.27886e-05
9.84108e-05
2.5855e-05
8.59448e-05
1.73214e-05
7.31931e-05
9.11386e-06
6.0777e-05
1.29839e-06
4.86545e-05
-5.35275e-06
3.6874e-05
-9.50881e-06
2.6771e-05
-1.19787e-05
1.91351e-05
-1.14332e-05
1.34578e-05
-1.03904e-05
8.72611e-06
-7.46628e-06
5.40404e-06
-4.776e-06
3.45389e-06
-1.8699e-06
2.79872e-06
3.89542e-07
2.668e-06
2.08741e-06
2.64044e-06
3.05455e-06
2.45695e-06
3.39673e-06
2.16644e-06
3.19001e-06
1.85882e-06
2.64472e-06
1.58782e-06
2.01011e-06
1.36287e-06
1.41908e-06
9.40895e-07
1.15264e-06
1.15587e-06
1.07431e-06
8.18235e-07
6.0634e-07
6.33922e-07
3.40327e-07
5.93507e-07
2.38492e-07
7.66916e-07
5.81861e-07
3.40176e-07
1.15313e-07
0
)
;
    }
    walls
    {
        type            extrapolatedCalculated;
        value           nonuniform List<scalar> 0();
    }
    frontAndBack
    {
        type            empty;
    }
    procBoundary7to3
    {
        type            processor;
        value           nonuniform List<scalar> 
16
(
-0.00219385
5.57095e-05
0.000575559
0.00154335
0.00136729
-0.00110778
0.000447552
-0.000881573
-0.00081371
-0.00081371
-7.82363e-05
-0.000530624
-0.000298692
0.000513016
0.000318747
0.000562615
)
;
    }
    procBoundary7to6
    {
        type            processor;
        value           nonuniform List<scalar> 
91
(
1.10443e-05
-2.55775e-06
-2.55775e-06
-1.01711e-05
-1.01711e-05
-9.41328e-06
-9.41328e-06
-2.61489e-06
-8.60565e-06
-8.60565e-06
-1.64088e-06
-3.00153e-06
-3.00153e-06
9.23973e-07
2.38563e-06
-1.62799e-06
-1.62799e-06
1.99495e-06
3.96048e-07
2.33736e-07
2.33736e-07
5.95669e-06
-6.91099e-07
7.59751e-07
1.13316e-06
1.13316e-06
1.31625e-05
-6.14306e-06
5.92477e-06
-5.71841e-06
6.77145e-06
6.77145e-06
2.79248e-06
7.04018e-06
5.70794e-06
2.71442e-06
1.00254e-05
-6.3584e-06
1.59131e-05
1.59131e-05
1.13772e-05
1.67273e-05
9.10495e-06
1.40183e-05
7.06371e-06
1.15777e-05
5.62651e-06
8.93062e-06
4.57003e-06
7.03069e-06
1.90191e-06
7.45036e-06
7.45036e-06
9.02923e-05
0.000787073
2.23158e-06
0.00059388
-8.62707e-05
0.000440281
-0.000120207
0.000327415
-0.000120441
0.000263564
-0.000104927
0.000204843
-8.41007e-05
0.000172014
-6.41551e-05
0.000138169
-4.88343e-05
0.000118834
-3.57695e-05
9.83662e-05
-2.23953e-05
8.82103e-05
-9.44657e-06
7.99171e-05
1.44305e-06
7.67216e-05
9.78594e-06
6.45047e-05
1.52599e-05
5.51061e-05
1.8004e-05
4.27836e-05
1.96222e-05
2.89789e-05
2.5154e-05
1.44232e-05
2.62704e-05
2.62704e-05
)
;
    }
}


// ************************************************************************* //
