/*--------------------------------*- C++ -*----------------------------------*\
| =========                 |                                                 |
| \\      /  F ield         | OpenFOAM: The Open Source CFD Toolbox           |
|  \\    /   O peration     | Version:  2306                                  |
|   \\  /    A nd           | Website:  www.openfoam.com                      |
|    \\/     M anipulation  |                                                 |
\*---------------------------------------------------------------------------*/
FoamFile
{
    version     2.0;
    format      ascii;
    arch        "LSB;label=32;scalar=64";
    class       volScalarField;
    location    "125";
    object      magR;
}
// * * * * * * * * * * * * * * * * * * * * * * * * * * * * * * * * * * * * * //

dimensions      [0 2 -2 0 0 0 0];

internalField   nonuniform List<scalar> 
1340
(
8.40769e-07
5.86898e-07
8.49971e-07
5.83941e-07
5.65632e-07
8.45662e-07
2.01083e-07
5.77348e-07
5.50829e-07
8.46138e-07
2.32875e-07
4.14206e-07
1.98701e-07
5.72733e-07
5.38155e-07
8.49564e-07
3.65187e-07
4.03352e-07
2.27131e-07
4.08839e-07
1.96182e-07
5.68448e-07
5.2788e-07
8.52875e-07
5.42702e-07
4.73105e-07
4.53884e-07
3.54096e-07
3.94852e-07
2.21086e-07
4.03326e-07
1.94071e-07
5.64463e-07
5.2042e-07
8.55577e-07
6.76131e-07
6.1948e-07
5.61739e-07
5.24136e-07
4.5687e-07
4.40793e-07
3.42818e-07
3.86035e-07
2.14932e-07
3.97806e-07
1.92284e-07
5.60927e-07
5.15542e-07
8.57706e-07
9.52447e-07
8.68185e-07
7.90171e-07
7.16141e-07
6.48219e-07
5.94709e-07
5.39423e-07
5.05049e-07
4.40229e-07
4.27233e-07
3.31251e-07
3.76888e-07
2.08592e-07
3.92188e-07
1.90675e-07
5.57679e-07
5.12683e-07
8.59926e-07
1.36719e-06
1.26602e-06
1.16897e-06
1.07642e-06
9.88189e-07
9.04962e-07
8.26102e-07
7.53091e-07
6.83812e-07
6.19868e-07
5.69462e-07
5.16588e-07
4.85304e-07
4.2306e-07
4.13052e-07
3.19299e-07
3.67313e-07
2.01955e-07
3.863e-07
1.89203e-07
5.54478e-07
5.11412e-07
8.61413e-07
2.03653e-06
1.92155e-06
1.80911e-06
1.69933e-06
1.59204e-06
1.48786e-06
1.38676e-06
1.28907e-06
1.19494e-06
1.1047e-06
1.01839e-06
9.36036e-07
8.58132e-07
7.84334e-07
7.1601e-07
6.51213e-07
5.91198e-07
5.43818e-07
4.93321e-07
4.64969e-07
4.05405e-07
3.98274e-07
3.07023e-07
3.57271e-07
1.95053e-07
3.80085e-07
1.87869e-07
5.51231e-07
5.12068e-07
8.6263e-07
3.39762e-06
3.16681e-06
3.16895e-06
3.09214e-06
2.9338e-06
2.77501e-06
2.6387e-06
2.51249e-06
2.38845e-06
2.26668e-06
2.14838e-06
2.03335e-06
1.92108e-06
1.81149e-06
1.70489e-06
1.60111e-06
1.50018e-06
1.40225e-06
1.30747e-06
1.21583e-06
1.12778e-06
1.04325e-06
9.62506e-07
8.85304e-07
8.12271e-07
7.43114e-07
6.79127e-07
6.18603e-07
5.62385e-07
5.17977e-07
4.69788e-07
4.44173e-07
3.87394e-07
3.82978e-07
2.94477e-07
3.46781e-07
1.87952e-07
3.7354e-07
1.8663e-07
5.47895e-07
5.13805e-07
8.63563e-07
6.45545e-05
0.000179682
0.00237571
0.0056439
0.00992655
0.0851707
0.305866
0.746555
1.43687
2.34607
3.39327
4.46057
5.40139
6.05118
6.24756
5.86445
4.85145
3.26858
1.30168
0.769216
2.58608
3.81232
4.18298
3.6492
2.4689
1.18002
0.322336
0.0286374
0.000520008
2.91958e-06
0
0
0
5.30179e-09
1.44366e-08
2.70367e-06
4.82517e-06
4.44147e-06
3.42366e-06
2.96251e-06
2.89817e-06
2.84906e-06
2.71268e-06
2.55405e-06
2.414e-06
2.28768e-06
2.16585e-06
2.04744e-06
1.93329e-06
1.82315e-06
1.71656e-06
1.61353e-06
1.51383e-06
1.41741e-06
1.32422e-06
1.23429e-06
1.14759e-06
1.0645e-06
9.84865e-07
9.08868e-07
8.36231e-07
7.67561e-07
7.02637e-07
6.42669e-07
5.86108e-07
5.33589e-07
4.92069e-07
4.46143e-07
4.23044e-07
3.69101e-07
3.67218e-07
2.81744e-07
3.35808e-07
1.80664e-07
3.66563e-07
1.85512e-07
5.44392e-07
5.16708e-07
8.64218e-07
0
5.4184e-08
2.44885e-05
5.77267e-05
0.00157826
0.00310578
0.0121502
0.0888755
0.306591
0.742123
1.42549
2.32056
3.33633
4.34454
5.19123
5.70939
5.74433
5.19051
4.03275
2.3765
0.454998
1.44668
2.9545
3.76919
3.71726
2.88503
1.66508
0.620197
0.110574
0.000648432
6.48685e-05
0
0
0
3.24193e-11
8.75901e-08
1.02315e-06
3.85685e-06
4.5018e-06
3.51629e-06
2.83281e-06
2.66681e-06
2.62345e-06
2.50802e-06
2.35272e-06
2.20998e-06
2.08455e-06
1.96608e-06
1.85122e-06
1.74069e-06
1.63494e-06
1.53365e-06
1.43642e-06
1.34295e-06
1.25318e-06
1.16688e-06
1.08412e-06
1.00501e-06
9.29455e-07
8.5749e-07
7.88835e-07
7.24083e-07
6.62945e-07
6.06657e-07
5.53749e-07
5.04815e-07
4.66102e-07
4.22382e-07
4.01563e-07
3.50525e-07
3.50977e-07
2.68741e-07
3.2434e-07
1.73125e-07
3.59193e-07
1.84291e-07
5.40649e-07
5.19749e-07
8.64896e-07
0
0
0
7.32317e-09
7.10333e-06
1.03736e-07
0.00107964
0.00143931
0.0139825
0.090175
0.305388
0.738982
1.4207
2.30647
3.29194
4.23539
4.97426
5.34154
5.19583
4.46131
3.16816
1.47307
0.37734
2.01739
3.15598
3.5315
3.08942
2.06631
0.957347
0.243626
0.0176704
0.000327627
0
0
0
0
2.04319e-08
1.87175e-07
2.7496e-06
4.22471e-06
3.58458e-06
2.75094e-06
2.45268e-06
2.40656e-06
2.32189e-06
2.1728e-06
2.02296e-06
1.8947e-06
1.77948e-06
1.66947e-06
1.56362e-06
1.46266e-06
1.36666e-06
1.27512e-06
1.18775e-06
1.10426e-06
1.0246e-06
9.48791e-07
8.76645e-07
8.08162e-07
7.4307e-07
6.81785e-07
6.24131e-07
5.71171e-07
5.21636e-07
4.76179e-07
4.40225e-07
3.98665e-07
3.79879e-07
3.31816e-07
3.34356e-07
2.55601e-07
3.12498e-07
1.65434e-07
3.51309e-07
1.82918e-07
5.37123e-07
5.22943e-07
8.65588e-07
2.21945e-08
1.49345e-11
0
0
0
4.89897e-12
4.98065e-06
0.000248525
0.000800354
0.000722476
0.0150795
0.0908903
0.30676
0.745221
1.43424
2.31815
3.27486
4.14565
4.7583
4.94916
4.59886
3.67399
2.26016
0.572872
1.12421
2.46647
3.1815
3.1109
2.35015
1.28393
0.429027
0.0600956
0.00293386
1.09579e-05
0
0
0
4.57424e-10
1.13165e-07
1.43446e-06
3.68074e-06
3.62844e-06
2.75177e-06
2.23884e-06
2.12899e-06
2.09909e-06
1.99897e-06
1.85893e-06
1.72638e-06
1.61043e-06
1.5041e-06
1.40323e-06
1.3073e-06
1.21638e-06
1.13026e-06
1.04852e-06
9.70938e-07
8.97489e-07
8.2791e-07
7.62188e-07
6.99949e-07
6.41539e-07
5.86789e-07
5.36692e-07
4.90078e-07
4.47831e-07
4.14486e-07
3.74902e-07
3.57884e-07
3.12654e-07
3.1725e-07
2.41849e-07
3.00217e-07
1.56709e-07
3.43418e-07
1.8044e-07
5.33284e-07
5.26563e-07
8.67663e-07
7.37585e-07
2.38451e-07
1.49811e-08
1.56508e-11
3.63203e-13
0
0
0
3.99833e-06
0.000213362
0.000657314
0.000729504
0.0157107
0.0908927
0.306313
0.746105
1.43607
2.31045
3.23024
4.01919
4.49591
4.50603
3.96079
2.8772
1.39914
0.273293
1.69993
2.68519
2.96677
2.51296
1.58197
0.655228
0.131929
0.0030742
3.62869e-05
0
0
0
0
2.56021e-08
2.13848e-07
2.48557e-06
3.56328e-06
3.08092e-06
2.36444e-06
1.97077e-06
1.84243e-06
1.77082e-06
1.66805e-06
1.54839e-06
1.4352e-06
1.33286e-06
1.23805e-06
1.14875e-06
1.06454e-06
9.85168e-07
9.10371e-07
8.39928e-07
7.73588e-07
7.11283e-07
6.52514e-07
5.97628e-07
5.46322e-07
4.99606e-07
4.56366e-07
4.1779e-07
3.87575e-07
3.50323e-07
3.35305e-07
2.93084e-07
2.99823e-07
2.28119e-07
2.87719e-07
1.48706e-07
3.34929e-07
1.78827e-07
5.28784e-07
5.29775e-07
8.67092e-07
3.31345e-06
2.82222e-06
1.69299e-06
7.34973e-07
1.45438e-08
1.10818e-09
8.40482e-12
0
0
0
2.10105e-06
0.000142537
0.000451721
0.000814713
0.00948413
0.0596592
0.215426
0.559266
1.1384
1.91438
2.76053
3.49698
3.93699
3.92836
3.39109
2.35996
0.994842
0.486483
1.70642
2.43883
2.49887
1.93888
1.08527
0.382533
0.066854
0.00525619
2.96562e-05
0
0
0
4.06034e-10
5.93965e-09
6.25393e-10
1.39457e-06
2.47192e-06
2.49103e-06
2.02604e-06
1.69155e-06
1.5488e-06
1.46501e-06
1.36913e-06
1.26509e-06
1.16732e-06
1.07843e-06
9.9614e-07
9.19089e-07
8.46983e-07
7.79552e-07
7.1657e-07
6.5776e-07
6.02685e-07
5.51501e-07
5.03877e-07
4.60756e-07
4.21045e-07
3.86579e-07
3.59706e-07
3.25264e-07
3.119e-07
2.73764e-07
2.81361e-07
2.16067e-07
2.72998e-07
1.44843e-07
3.20041e-07
1.7274e-07
5.04954e-07
5.04401e-07
8.05207e-07
5.69464e-06
5.13566e-06
4.18967e-06
3.57363e-06
2.6969e-06
1.51669e-06
4.1935e-07
2.56565e-08
2.33289e-11
3.4933e-13
0
0
8.60133e-07
1.48846e-05
0.000210421
0.000499881
0.000950688
0.0178724
0.0933664
0.302086
0.718992
1.35579
2.12367
2.85221
3.34331
3.42849
3.01495
2.12496
0.907985
0.407683
1.49799
2.12323
2.12423
1.58262
0.835906
0.271385
0.0418987
0.00334892
3.58777e-05
0
0
0
8.96789e-13
2.59131e-09
4.41052e-10
1.1766e-06
2.26035e-06
2.11042e-06
1.64967e-06
1.39756e-06
1.29331e-06
1.21148e-06
1.11818e-06
1.0255e-06
9.41121e-07
8.64273e-07
7.93199e-07
7.27203e-07
6.66047e-07
6.09407e-07
5.56809e-07
5.08237e-07
4.63354e-07
4.2298e-07
3.86076e-07
3.55281e-07
3.31398e-07
2.99692e-07
2.87336e-07
2.53293e-07
2.61567e-07
2.02841e-07
2.58118e-07
1.40624e-07
3.09432e-07
1.77038e-07
4.99617e-07
5.16172e-07
8.07948e-07
7.26593e-06
6.35774e-06
5.08824e-06
4.55654e-06
4.1123e-06
3.58245e-06
2.89436e-06
1.89953e-06
8.27233e-07
1.08378e-08
9.18043e-10
3.3566e-12
0
0
0
2.16706e-06
2.87299e-05
0.000381755
0.000695099
0.00369188
0.0397008
0.171039
0.482974
1.01924
1.71954
2.41947
2.91109
3.01654
2.64018
1.80998
0.682651
0.508349
1.45208
1.9163
1.79022
1.22256
0.57302
0.154278
0.015068
0.00108629
1.11399e-05
0
0
0
6.79179e-13
1.71749e-08
1.57876e-07
1.34797e-06
1.91379e-06
1.5862e-06
1.2663e-06
1.13212e-06
1.0574e-06
9.76636e-07
8.9199e-07
8.13496e-07
7.42525e-07
6.77622e-07
6.17931e-07
5.6304e-07
5.12526e-07
4.66195e-07
4.23712e-07
3.85747e-07
3.51331e-07
3.23915e-07
3.03023e-07
2.74e-07
2.62491e-07
2.32152e-07
2.41315e-07
1.88649e-07
2.4332e-07
1.34839e-07
2.99881e-07
1.79026e-07
4.96888e-07
5.24942e-07
8.101e-07
6.66673e-06
6.08694e-06
4.97909e-06
4.38991e-06
3.92556e-06
3.50852e-06
3.09976e-06
2.57941e-06
1.87811e-06
9.70258e-07
8.14083e-08
5.22608e-09
2.42017e-12
0
0
0
0
8.7937e-06
0.000168596
0.000378671
0.000389253
0.0179304
0.107616
0.356523
0.826582
1.47311
2.13207
2.58671
2.65502
2.25253
1.4275
0.361116
0.707169
1.47048
1.72759
1.44927
0.864841
0.332452
0.0667032
0.00201574
0.000159261
0
0
0
0
2.59978e-10
5.61633e-08
7.48152e-07
1.61757e-06
1.51606e-06
1.17367e-06
9.96076e-07
9.14811e-07
8.43032e-07
7.67306e-07
6.95712e-07
6.30999e-07
5.72354e-07
5.18903e-07
4.70106e-07
4.25679e-07
3.85238e-07
3.49383e-07
3.17082e-07
2.92752e-07
2.74773e-07
2.48376e-07
2.37527e-07
2.10602e-07
2.20605e-07
1.73791e-07
2.28297e-07
1.28411e-07
2.9079e-07
1.8011e-07
4.95202e-07
5.29789e-07
8.11488e-07
6.67125e-06
6.1257e-06
5.04449e-06
4.43718e-06
3.9423e-06
3.49998e-06
3.10026e-06
2.74273e-06
2.40231e-06
2.02406e-06
1.50928e-06
7.89889e-07
4.78813e-08
3.18651e-09
1.00449e-12
0
0
0
0
1.19546e-06
3.75326e-05
0.000632694
0.000864325
0.0094511
0.0791265
0.297143
0.732585
1.34225
1.95157
2.33562
2.31863
1.84191
0.9922
0.0725104
0.937179
1.47783
1.49987
1.08186
0.527224
0.146429
0.0155342
0.00108437
5.49009e-06
0
0
0
0
2.23455e-08
2.67557e-07
1.20906e-06
1.35434e-06
1.07336e-06
8.78686e-07
7.87544e-07
7.19648e-07
6.51673e-07
5.87379e-07
5.29258e-07
4.76885e-07
4.29479e-07
3.86663e-07
3.47998e-07
3.13998e-07
2.83518e-07
2.61981e-07
2.46801e-07
2.23031e-07
2.12768e-07
1.88991e-07
1.99751e-07
1.58672e-07
2.13184e-07
1.21944e-07
2.8187e-07
1.80728e-07
4.94241e-07
5.30665e-07
8.13333e-07
6.3692e-06
5.78431e-06
4.74489e-06
4.17082e-06
3.70888e-06
3.29172e-06
2.90626e-06
2.55707e-06
2.24263e-06
1.96462e-06
1.70468e-06
1.43297e-06
1.05958e-06
5.15298e-07
1.61787e-08
1.19342e-09
7.04454e-13
0
0
0
0
0
2.35476e-05
0.000498968
0.000865081
0.00676271
0.0711223
0.284486
0.713764
1.29891
1.84465
2.12088
1.97458
1.39263
0.515335
0.426655
1.13956
1.41342
1.19839
0.697587
0.249501
0.0432828
0.000666425
6.29029e-05
0
0
0
0
2.24179e-09
1.33117e-08
7.63233e-07
1.15748e-06
9.57198e-07
7.70353e-07
6.77123e-07
6.11387e-07
5.48386e-07
4.89971e-07
4.37885e-07
3.91346e-07
3.49639e-07
3.12314e-07
2.79794e-07
2.50823e-07
2.31733e-07
2.19235e-07
1.98066e-07
1.88405e-07
1.67518e-07
1.7893e-07
1.43327e-07
1.97964e-07
1.15167e-07
2.73004e-07
1.80298e-07
4.93341e-07
5.26095e-07
8.16455e-07
5.84477e-06
5.28587e-06
4.31486e-06
3.7795e-06
3.36082e-06
2.98822e-06
2.64493e-06
2.33025e-06
2.04254e-06
1.78313e-06
1.55245e-06
1.35009e-06
1.16477e-06
9.6328e-07
6.78563e-07
3.14336e-07
8.91424e-09
6.72896e-10
7.54774e-13
0
0
0
0
0
1.66939e-05
0.000482495
0.000843869
0.0075962
0.0796068
0.312506
0.757723
1.31856
1.77292
1.89921
1.58986
0.899057
0.0611325
0.780073
1.24044
1.2224
0.823442
0.353804
0.0780379
0.00459003
0.000313614
0
0
0
0
2.35788e-11
3.80694e-08
5.25381e-07
9.40495e-07
8.13642e-07
6.4626e-07
5.64495e-07
5.08881e-07
4.53289e-07
4.00784e-07
3.54413e-07
3.13666e-07
2.77581e-07
2.46378e-07
2.18713e-07
2.01817e-07
1.91902e-07
1.73332e-07
1.64419e-07
1.46261e-07
1.58433e-07
1.28025e-07
1.83213e-07
1.08375e-07
2.64779e-07
1.77937e-07
4.92982e-07
5.11588e-07
8.27142e-07
5.19226e-06
4.70075e-06
3.85014e-06
3.38123e-06
3.01148e-06
2.6831e-06
2.38092e-06
2.10415e-06
1.84747e-06
1.61191e-06
1.39953e-06
1.21072e-06
1.04254e-06
8.93716e-07
7.52386e-07
5.93059e-07
3.95613e-07
1.79859e-07
7.77879e-09
6.11226e-10
6.41688e-13
0
0
0
0
0
1.75104e-05
0.000625497
0.000910403
0.0124307
0.106884
0.381973
0.852689
1.36648
1.67901
1.60316
1.10987
0.341178
0.462818
1.02791
1.16273
0.877234
0.426028
0.111755
0.0115962
0.000708315
0
0
0
0
0
2.49919e-08
3.29082e-07
8.41657e-07
7.52742e-07
5.55967e-07
4.60037e-07
4.09198e-07
3.62378e-07
3.16729e-07
2.75941e-07
2.40568e-07
2.10612e-07
1.84368e-07
1.69767e-07
1.62578e-07
1.46767e-07
1.39e-07
1.23501e-07
1.36485e-07
1.10447e-07
1.66486e-07
9.77622e-08
2.53959e-07
1.70592e-07
4.88325e-07
4.83817e-07
8.46841e-07
4.76408e-06
4.3106e-06
3.5311e-06
3.09922e-06
2.75797e-06
2.45479e-06
2.17835e-06
1.92647e-06
1.69508e-06
1.48284e-06
1.28876e-06
1.11268e-06
9.52246e-07
8.06273e-07
6.75281e-07
5.60495e-07
4.60086e-07
3.59443e-07
2.45996e-07
1.21259e-07
6.26672e-09
5.4303e-10
1.69491e-12
0
0
0
0
0
3.25036e-05
1.91123e-05
0.000505187
0.0253318
0.164137
0.510965
1.02719
1.49565
1.65095
1.35202
0.667526
0.228375
0.893454
1.17864
0.985587
0.526528
0.154332
0.0123479
0.000715102
5.22119e-05
1.63734e-05
3.71919e-06
0
0
3.15313e-09
1.89821e-08
4.97748e-07
6.42511e-07
4.98724e-07
3.89999e-07
3.313e-07
2.88083e-07
2.49057e-07
2.14152e-07
1.84449e-07
1.58562e-07
1.45225e-07
1.39912e-07
1.25888e-07
1.18915e-07
1.05087e-07
1.19758e-07
9.60703e-08
1.56405e-07
8.6252e-08
2.52244e-07
1.52051e-07
4.94533e-07
4.35868e-07
9.26904e-07
3.808e-06
3.42164e-06
2.78847e-06
2.43586e-06
2.15961e-06
1.91628e-06
1.69722e-06
1.49985e-06
1.32191e-06
1.16047e-06
1.0126e-06
8.77755e-07
7.56295e-07
6.46922e-07
5.48672e-07
4.60627e-07
3.82959e-07
3.15939e-07
2.55723e-07
1.92413e-07
1.19561e-07
5.12813e-08
5.15955e-09
3.02815e-10
0
0
0
0
0
3.51995e-09
4.68565e-05
2.29778e-05
0.000788035
0.0233771
0.134418
0.394643
0.766555
1.0893
1.16939
0.906584
0.360609
0.275643
0.744373
0.859356
0.635373
0.300889
0.0883189
0.0154213
0.001551
8.65898e-05
1.95929e-05
0
0
4.24153e-11
5.04713e-12
2.08439e-07
3.61724e-07
3.41954e-07
2.81977e-07
2.34081e-07
1.96481e-07
1.64565e-07
1.37518e-07
1.13565e-07
1.02487e-07
1.00969e-07
8.98707e-08
8.35256e-08
7.00038e-08
8.58582e-08
6.03505e-08
1.25357e-07
4.55774e-08
2.20828e-07
1.18472e-07
4.4693e-07
4.26777e-07
9.01452e-07
)
;

boundaryField
{
    inlet
    {
        type            calculated;
        value           nonuniform List<scalar> 
27
(
5.17558e-06
5.16281e-06
5.15466e-06
5.15092e-06
5.14888e-06
5.14773e-06
5.14782e-06
5.14895e-06
5.15101e-06
5.15317e-06
5.15531e-06
5.15693e-06
5.15759e-06
5.15676e-06
5.15392e-06
5.14851e-06
5.14071e-06
5.09587e-06
5.0777e-06
5.05461e-06
5.02419e-06
4.98561e-06
4.93689e-06
4.87713e-06
4.80113e-06
4.72786e-06
4.58662e-06
)
;
    }
    outlet
    {
        type            calculated;
        value           nonuniform List<scalar> 
78
(
3.87268e-06
3.4851e-06
2.85105e-06
2.49766e-06
2.22065e-06
1.97655e-06
1.75669e-06
1.55852e-06
1.37983e-06
1.21771e-06
1.06914e-06
9.33367e-07
8.10652e-07
6.99747e-07
5.99855e-07
5.10185e-07
4.30904e-07
3.62168e-07
2.99504e-07
2.30858e-07
1.46409e-07
6.11177e-08
4.87229e-09
1.72792e-10
0
0
0
0
0
3.45729e-09
4.64813e-05
2.28583e-05
0.000599751
0.0230267
0.133646
0.393598
0.76613
1.09103
1.17478
0.916212
0.373266
0.260366
0.731463
0.850729
0.631299
0.299725
0.0881474
0.0153874
0.0015235
8.20551e-05
1.87688e-05
0
0
4.00816e-11
4.70094e-12
1.91354e-07
3.27448e-07
3.0527e-07
2.48252e-07
2.03289e-07
1.68395e-07
1.39283e-07
1.15102e-07
9.40041e-08
8.55911e-08
8.61691e-08
7.65056e-08
7.19619e-08
5.95216e-08
7.70192e-08
5.00698e-08
1.17115e-07
3.33354e-08
2.10803e-07
1.17096e-07
4.28588e-07
4.2898e-07
8.54418e-07
)
;
    }
    walls
    {
        type            calculated;
        value           nonuniform List<scalar> 0();
    }
    frontAndBack
    {
        type            empty;
    }
    procBoundary7to3
    {
        type            processor;
        value           nonuniform List<scalar> 
16
(
6.35259e-08
0
3.64131e-11
3.74205e-07
5.9845e-07
2.97752e-06
5.5053e-06
7.31755e-06
7.58363e-06
7.58363e-06
7.73258e-06
7.45448e-06
6.87088e-06
6.10165e-06
5.60397e-06
4.50558e-06
)
;
    }
    procBoundary7to6
    {
        type            processor;
        value           nonuniform List<scalar> 
91
(
8.31357e-07
6.09811e-07
6.09811e-07
5.94887e-07
5.94887e-07
2.02225e-07
2.02225e-07
2.37797e-07
4.19319e-07
4.19319e-07
3.75701e-07
4.11325e-07
4.11325e-07
5.60735e-07
4.88947e-07
4.66513e-07
4.66513e-07
7.03729e-07
6.43873e-07
5.83663e-07
5.83663e-07
1.00041e-06
9.10373e-07
8.27087e-07
7.48131e-07
7.48131e-07
1.45e-06
1.34069e-06
1.23587e-06
1.13628e-06
1.04154e-06
1.04154e-06
2.17133e-06
2.04809e-06
1.9273e-06
1.8091e-06
1.6936e-06
1.58118e-06
1.47236e-06
1.47236e-06
3.48814e-06
3.48846e-06
3.36463e-06
3.19047e-06
3.03544e-06
2.90175e-06
2.77351e-06
2.64536e-06
2.5186e-06
2.39446e-06
2.27287e-06
2.15364e-06
2.15364e-06
0.00364846
0.00950611
0.0101076
0.0766673
0.297802
0.743875
1.44475
2.37389
3.45713
4.58366
5.61199
6.37984
6.72081
6.49541
5.62629
4.13594
2.16877
0.0769517
2.08818
3.67857
4.46871
4.29714
3.28474
1.88036
0.700062
0.125155
0.000646686
0.000134401
0
0
0
1.38099e-10
8.8998e-08
9.68282e-07
4.24086e-06
5.35663e-06
4.29658e-06
4.29658e-06
)
;
    }
}


// ************************************************************************* //
