/*--------------------------------*- C++ -*----------------------------------*\
| =========                 |                                                 |
| \\      /  F ield         | OpenFOAM: The Open Source CFD Toolbox           |
|  \\    /   O peration     | Version:  2306                                  |
|   \\  /    A nd           | Website:  www.openfoam.com                      |
|    \\/     M anipulation  |                                                 |
\*---------------------------------------------------------------------------*/
FoamFile
{
    version     2.0;
    format      ascii;
    arch        "LSB;label=32;scalar=64";
    class       volScalarField;
    location    "125";
    object      p;
}
// * * * * * * * * * * * * * * * * * * * * * * * * * * * * * * * * * * * * * //

dimensions      [0 2 -2 0 0 0 0];

internalField   nonuniform List<scalar> 
1340
(
-6.12857
-1.11828
-5.9288
-4.57119
-1.16939
-5.79094
-3.31417
-4.47882
-1.18385
-5.68422
-4.54104
-4.56244
-3.24786
-4.37703
-1.19288
-5.5658
-5.32935
-5.05243
-4.40489
-4.43498
-3.17543
-4.26531
-1.19823
-5.43361
-6.16648
-5.84035
-5.53595
-5.12514
-4.87283
-4.26012
-4.29869
-3.09572
-4.14655
-1.1949
-5.2963
-6.61057
-6.3572
-6.11328
-5.86069
-5.5654
-5.29078
-4.91088
-4.68334
-4.1062
-4.15407
-3.00684
-4.0222
-1.18022
-5.15749
-6.94842
-6.80312
-6.62845
-6.42541
-6.19896
-5.98126
-5.76771
-5.54545
-5.2808
-5.03557
-4.68677
-4.48418
-3.94307
-4.00028
-2.90925
-3.89067
-1.1564
-5.01506
-6.36446
-6.43529
-6.47043
-6.46905
-6.43329
-6.3636
-6.26164
-6.12956
-5.96847
-5.78286
-5.59941
-5.41528
-5.22253
-4.98798
-4.77165
-4.45403
-4.27594
-3.77114
-3.83811
-2.80269
-3.75253
-1.12354
-4.86875
-4.09517
-4.39001
-4.66309
-4.91211
-5.13458
-5.32835
-5.49196
-5.62405
-5.72331
-5.78956
-5.82266
-5.82285
-5.79111
-5.7276
-5.63465
-5.51251
-5.36521
-5.21427
-5.05831
-4.894
-4.68886
-4.50068
-4.21386
-4.05984
-3.59137
-3.6677
-2.68827
-3.6072
-1.0832
-4.71795
0.39261
0.0980392
-0.205264
-0.516001
-0.83319
-1.15501
-1.4801
-1.80619
-2.13149
-2.45328
-2.76951
-3.07714
-3.37403
-3.65685
-3.92366
-4.17113
-4.39763
-4.60013
-4.77751
-4.92725
-5.04865
-5.14028
-5.20185
-5.23312
-5.23395
-5.20493
-5.14688
-5.06056
-4.94873
-4.82827
-4.69907
-4.56188
-4.38512
-4.2241
-3.96761
-3.83689
-3.40441
-3.49025
-2.56587
-3.45591
-1.03521
-4.56363
5.09887
5.04748
4.99424
4.93773
4.8798
4.81969
4.75814
4.69474
4.63032
4.56277
4.49209
4.41656
4.33714
4.25249
4.16387
4.0706
3.97479
3.87649
3.77779
3.67854
3.58016
3.48161
3.3815
3.27534
3.15975
3.0326
2.8949
2.74702
2.58734
2.41391
2.22878
2.03496
1.83275
1.62078
1.39858
1.16682
0.925785
0.67577
0.416892
0.149935
-0.124671
-0.40578
-0.692568
-0.983507
-1.27741
-1.5723
-1.86657
-2.15794
-2.44447
-2.72357
-2.9931
-3.25044
-3.49338
-3.71936
-3.92637
-4.1121
-4.27476
-4.4127
-4.52456
-4.60949
-4.66656
-4.6957
-4.69631
-4.6697
-4.6154
-4.53607
-4.44385
-4.33967
-4.22809
-4.07842
-3.94346
-3.71643
-3.6082
-3.21136
-3.30597
-2.43686
-3.29802
-0.981551
-4.40453
4.68091
4.64021
4.59598
4.54775
4.49847
4.44705
4.39275
4.3356
4.27796
4.21973
4.16105
4.10004
4.03717
3.97135
3.90362
3.83264
3.75949
3.68341
3.60621
3.52765
3.44911
3.36976
3.28996
3.20748
3.11957
3.02146
2.91034
2.78559
2.64875
2.50007
2.33867
2.16577
1.98474
1.79695
1.60087
1.3956
1.18125
0.958589
0.727671
0.489056
0.242941
-0.00967717
-0.268199
-0.531383
-0.798366
-1.06756
-1.33777
-1.60705
-1.87388
-2.13605
-2.39174
-2.63859
-2.87469
-3.09762
-3.30542
-3.49584
-3.66698
-3.81703
-3.94443
-4.04792
-4.12632
-4.17899
-4.20542
-4.20599
-4.18022
-4.13009
-4.06357
-3.98257
-3.89476
-3.77073
-3.66028
-3.46176
-3.37498
-3.01315
-3.11614
-2.30169
-3.1346
-0.922796
-4.2403
4.29838
4.26865
4.2353
4.19759
4.15893
4.11819
4.07376
4.02472
3.97322
3.92044
3.86823
3.81658
3.7662
3.71615
3.66677
3.61707
3.56734
3.51618
3.46368
3.40891
3.35245
3.29349
3.23207
3.16709
3.09794
3.02211
2.93627
2.83679
2.7224
2.59433
2.45438
2.30305
2.14121
1.97213
1.7973
1.61544
1.42464
1.22515
1.01756
0.802649
0.58056
0.352022
0.1175
-0.121998
-0.365856
-0.612779
-0.861832
-1.11141
-1.36027
-1.60649
-1.84861
-2.08453
-2.31255
-2.53049
-2.73654
-2.92852
-3.1046
-3.26287
-3.40164
-3.51941
-3.6148
-3.68694
-3.73499
-3.75892
-3.75794
-3.73366
-3.69025
-3.63029
-3.56424
-3.464
-3.37644
-3.20509
-3.13846
-2.81124
-2.92089
-2.1625
-2.96451
-0.861685
-4.06833
3.95026
3.93138
3.90862
3.88109
3.85256
3.82258
3.78938
3.75161
3.71035
3.66619
3.62044
3.57393
3.52859
3.48522
3.44458
3.40591
3.36935
3.33408
3.29988
3.26478
3.22788
3.18785
3.14475
3.0977
3.04626
2.98914
2.92479
2.84983
2.76078
2.65585
2.53643
2.40567
2.26547
2.11655
1.96059
1.79931
1.6311
1.45389
1.26756
1.07391
0.873736
0.667469
0.455112
0.237314
0.014664
-0.211807
-0.441298
-0.672464
-0.904295
-1.13514
-1.3637
-1.58815
-1.80701
-2.01829
-2.22039
-2.41123
-2.58909
-2.75201
-2.89837
-3.02648
-3.13487
-3.22246
-3.28814
-3.3316
-3.3518
-3.3499
-3.3269
-3.28574
-3.23917
-3.16064
-3.09382
-2.94849
-2.89974
-2.60716
-2.72088
-2.0209
-2.78676
-0.80076
-3.88557
3.66712
3.65932
3.64732
3.63005
3.61209
3.59337
3.57246
3.54765
3.51986
3.48905
3.45597
3.42031
3.38336
3.34602
3.31008
3.27537
3.24123
3.20524
3.16646
3.1238
3.07738
3.0261
2.96999
2.90934
2.8459
2.78142
2.71826
2.65835
2.60205
2.54637
2.48608
2.41573
2.3298
2.22275
2.09072
1.93824
1.77786
1.61863
1.45865
1.29165
1.11471
0.92916
0.737198
0.539981
0.337845
0.131167
-0.0793952
-0.292708
-0.507787
-0.723192
-0.937803
-1.15004
-1.35856
-1.56157
-1.75761
-1.9448
-2.12151
-2.28588
-2.43629
-2.57108
-2.68867
-2.78791
-2.86736
-2.92665
-2.96441
-2.98155
-2.97608
-2.95146
-2.92177
-2.86288
-2.81436
-2.69376
-2.65965
-2.40326
-2.51469
-1.88066
-2.59823
-0.745965
-3.6875
3.33055
3.33431
3.33251
3.32398
3.31395
3.30385
3.29232
3.27752
3.25959
3.23854
3.21477
3.18775
3.15767
3.12453
3.08973
3.05465
3.02172
2.99196
2.96556
2.94026
2.91484
2.88844
2.86216
2.83537
2.80753
2.77696
2.74299
2.70423
2.66098
2.61258
2.55748
2.49115
2.41013
2.3141
2.20646
2.08912
1.96127
1.82257
1.67637
1.52476
1.36763
1.20419
1.03472
0.859475
0.678891
0.493278
0.303279
0.109746
-0.0865433
-0.284486
-0.48313
-0.681096
-0.877361
-1.07026
-1.25864
-1.44065
-1.61502
-1.77978
-1.9336
-2.07459
-2.20143
-2.31251
-2.40659
-2.48261
-2.53943
-2.57718
-2.59079
-2.58476
-2.57305
-2.53732
-2.50688
-2.41731
-2.39422
-2.18594
-2.28439
-1.73864
-2.38563
-0.703162
-3.46947
3.05883
3.07467
3.08428
3.08659
3.08701
3.08755
3.08696
3.08349
3.07697
3.06756
3.05568
3.04105
3.02375
3.0035
2.98102
2.95688
2.93274
2.91019
2.89157
2.878
2.86989
2.86549
2.86372
2.86341
2.86433
2.86392
2.85902
2.84527
2.82024
2.7817
2.7302
2.66629
2.59128
2.50532
2.41054
2.30876
2.19973
2.07931
1.94597
1.80342
1.65729
1.5085
1.35552
1.19702
1.0332
0.86458
0.691851
0.515561
0.336363
0.154946
-0.0280422
-0.211582
-0.394884
-0.576704
-0.755997
-0.931231
-1.10127
-1.26441
-1.4194
-1.56449
-1.69835
-1.81937
-1.92617
-2.01753
-2.09203
-2.14965
-2.18208
-2.194
-2.20137
-2.18761
-2.17859
-2.11586
-2.11332
-1.94039
-2.05128
-1.55933
-2.19402
-0.609768
-3.32133
2.70391
2.72901
2.74848
2.76037
2.76999
2.77969
2.78887
2.79587
2.80051
2.80283
2.80346
2.80222
2.79917
2.79371
2.78589
2.77525
2.76204
2.7461
2.72801
2.70811
2.68792
2.66866
2.65171
2.63644
2.62239
2.60891
2.59661
2.5849
2.57273
2.55824
2.54029
2.51735
2.48862
2.45199
2.40386
2.3399
2.25913
2.16392
2.05773
1.94204
1.81883
1.69058
1.5583
1.42073
1.27728
1.12822
0.974521
0.816847
0.655802
0.49184
0.325524
0.157591
-0.0112492
-0.179942
-0.347597
-0.512932
-0.674958
-0.832155
-0.983454
-1.12718
-1.26224
-1.38688
-1.50002
-1.60005
-1.68583
-1.75675
-1.80285
-1.82802
-1.85011
-1.85343
-1.86194
-1.82092
-1.83692
-1.69312
-1.81894
-1.37071
-2.00597
-0.500245
-3.18111
2.34502
2.36737
2.3872
2.40342
2.41818
2.43206
2.44484
2.45561
2.46462
2.47173
2.47745
2.48136
2.48351
2.48319
2.48037
2.47452
2.46604
2.45473
2.4412
2.42542
2.40839
2.39102
2.37524
2.36166
2.3499
2.33815
2.32641
2.31507
2.30491
2.29495
2.28398
2.26981
2.25102
2.22551
2.19087
2.14327
2.08105
2.00544
1.91963
1.8247
1.72119
1.61067
1.49533
1.37517
1.24984
1.11935
0.984465
0.845609
0.703278
0.557742
0.409551
0.259341
0.107925
-0.0437356
-0.194707
-0.343862
-0.49016
-0.632286
-0.769125
-0.89924
-1.02149
-1.13431
-1.23669
-1.3269
-1.4049
-1.45882
-1.49284
-1.52445
-1.54027
-1.56118
-1.53769
-1.56741
-1.4497
-1.58543
-1.18075
-1.80999
-0.388198
-3.01793
1.97618
2.00175
2.02608
2.0476
2.06717
2.08569
2.10324
2.11933
2.13372
2.14626
2.15718
2.1664
2.17393
2.17937
2.18253
2.1831
2.18141
2.17757
2.17197
2.16442
2.15491
2.14318
2.12978
2.11554
2.10199
2.08932
2.0769
2.06343
2.04972
2.037
2.02624
2.01609
2.00509
1.99065
1.97157
1.94566
1.91057
1.86305
1.80303
1.73187
1.6515
1.56209
1.46572
1.36469
1.26028
1.15176
1.03915
0.922406
0.802039
0.678124
0.551184
0.421627
0.290202
0.157616
0.0247262
-0.107573
-0.238366
-0.366569
-0.491164
-0.610901
-0.724741
-0.83127
-0.929555
-1.01796
-1.09641
-1.15283
-1.19069
-1.2271
-1.25026
-1.27891
-1.26791
-1.30702
-1.21043
-1.35255
-0.986902
-1.60655
-0.268574
-2.8328
1.55613
1.58546
1.61229
1.63594
1.65776
1.67887
1.69935
1.71892
1.73724
1.75414
1.76952
1.78327
1.79536
1.80563
1.81406
1.82062
1.8256
1.82914
1.83139
1.83199
1.8306
1.82665
1.82018
1.81124
1.8006
1.78889
1.77739
1.76612
1.75478
1.74279
1.73149
1.72181
1.71406
1.70624
1.69669
1.68333
1.66516
1.63977
1.60472
1.55795
1.50051
1.43354
1.35837
1.27636
1.19043
1.10156
1.00966
0.913895
0.814422
0.711339
0.605176
0.496327
0.385485
0.273208
0.160223
0.0471831
-0.0651817
-0.176004
-0.28444
-0.389425
-0.490081
-0.585195
-0.673971
-0.754956
-0.828121
-0.881955
-0.919217
-0.955905
-0.981784
-1.0136
-1.01046
-1.0545
-0.974547
-1.11874
-0.787539
-1.39317
-0.136217
-2.6226
1.17877
1.20618
1.23248
1.2565
1.27853
1.29948
1.31948
1.33876
1.35701
1.37413
1.38971
1.40372
1.41611
1.42712
1.43687
1.44549
1.45293
1.45919
1.46412
1.46744
1.4688
1.46776
1.46427
1.45839
1.45052
1.4408
1.42968
1.41773
1.40621
1.39535
1.38494
1.37454
1.36527
1.35741
1.35068
1.34337
1.33443
1.32264
1.30731
1.28599
1.25686
1.21868
1.17219
1.11757
1.05647
0.990563
0.921072
0.847112
0.768392
0.685088
0.598215
0.50858
0.417008
0.324129
0.230527
0.13682
0.0435836
-0.0484233
-0.138545
-0.225911
-0.309873
-0.389489
-0.464199
-0.53285
-0.595579
-0.642257
-0.674813
-0.707586
-0.731742
-0.762397
-0.762429
-0.807308
-0.738778
-0.881672
-0.578827
-1.16476
0.0113821
-2.36076
0.844373
0.86994
0.894007
0.916121
0.936768
0.956781
0.975969
0.994563
1.01244
1.02984
1.04621
1.06135
1.07485
1.08714
1.09853
1.10954
1.11989
1.12934
1.13736
1.14378
1.14831
1.15095
1.15159
1.15036
1.14741
1.14293
1.13699
1.12957
1.1211
1.11255
1.10499
1.09808
1.09087
1.08304
1.0757
1.06896
1.06217
1.05344
1.04156
1.02501
1.00243
0.972327
0.93542
0.892538
0.844466
0.791692
0.736729
0.680857
0.623603
0.563655
0.500857
0.435728
0.368951
0.301034
0.232269
0.16306
0.0937827
0.0250877
-0.0424875
-0.108213
-0.171567
-0.23183
-0.288614
-0.341034
-0.389401
-0.425474
-0.450303
-0.475994
-0.495092
-0.521208
-0.520851
-0.563177
-0.502199
-0.639708
-0.36145
-0.916442
0.170429
-2.01324
0.426107
0.444672
0.462074
0.477875
0.492573
0.50671
0.52016
0.532855
0.544524
0.555119
0.564446
0.572524
0.579385
0.58526
0.590316
0.594563
0.59765
0.599062
0.598428
0.595629
0.590802
0.584009
0.575216
0.564185
0.550803
0.534984
0.516745
0.495904
0.472263
0.445509
0.415678
0.383117
0.347985
0.31014
0.271886
0.240264
0.2257
0.237083
0.278595
0.349485
0.443985
0.549304
0.645852
0.713305
0.739013
0.721826
0.67098
0.602173
0.53067
0.464073
0.402407
0.343709
0.286845
0.231974
0.179239
0.128847
0.0806801
0.034906
-0.00850806
-0.0493591
-0.0876989
-0.123341
-0.156419
-0.186542
-0.214421
-0.234821
-0.247446
-0.261607
-0.270973
-0.287822
-0.282298
-0.316596
-0.260154
-0.381014
-0.139923
-0.609728
0.287932
-1.41543
0.173098
0.191011
0.208135
0.224392
0.24013
0.25588
0.271376
0.286501
0.30082
0.314603
0.328009
0.341576
0.355222
0.368995
0.38244
0.395534
0.407939
0.419857
0.431185
0.442402
0.453592
0.465256
0.477199
0.489622
0.502133
0.515129
0.528525
0.542971
0.558432
0.57595
0.5968
0.624963
0.665347
0.723395
0.798438
0.88114
0.951954
0.988867
0.971652
0.888603
0.737772
0.532615
0.301462
0.0848177
-0.0778256
-0.160974
-0.16675
-0.123141
-0.0670244
-0.0216111
0.00811531
0.0269387
0.0393216
0.0471124
0.0503859
0.0494436
0.0448442
0.0375222
0.0282464
0.0177594
0.00656745
-0.00484417
-0.016246
-0.0272132
-0.0382691
-0.0464266
-0.0502381
-0.0559164
-0.0588754
-0.068408
-0.0628305
-0.0866363
-0.0492164
-0.129072
0.018482
-0.252221
0.253275
-0.610224
)
;

boundaryField
{
    inlet
    {
        type            freestreamPressure;
        freestreamValue uniform 0;
        value           nonuniform List<scalar> 
27
(
-2.68481
-2.59718
-2.53672
-2.48994
-2.43805
-2.38013
-2.31999
-2.25919
-2.19681
-2.13274
-2.0667
-1.99911
-1.92941
-1.85747
-1.78212
-1.70202
-1.61521
-1.51963
-1.45466
-1.39314
-1.32154
-1.24031
-1.14809
-1.03325
-0.880902
-0.619134
-0.266791
)
;
    }
    outlet
    {
        type            freestreamPressure;
        freestreamValue uniform 0;
        value           nonuniform List<scalar> 
78
(
0.000666003
0.000734987
0.000801095
0.000863943
0.000924862
0.000985861
0.00104589
0.00110452
0.0011601
0.00121366
0.00126582
0.00131858
0.00137162
0.0014251
0.0014773
0.00152814
0.00157633
0.00162265
0.00166671
0.00171035
0.00175386
0.00179915
0.00184542
0.00189347
0.00194183
0.0019921
0.00204401
0.00210011
0.0021601
0.00222756
0.00230646
0.00241093
0.00255907
0.00277246
0.00305147
0.00336587
0.00364689
0.00381238
0.00377881
0.00348755
0.00291627
0.00211142
0.00119187
0.000331659
-0.000305399
-0.000622925
-0.000638988
-0.000468666
-0.000254278
-8.23374e-05
2.96765e-05
0.000100305
0.000146489
0.000175296
0.000187151
0.000183316
0.000165974
0.000138664
0.000104271
6.5557e-05
2.43807e-05
-1.74934e-05
-5.92551e-05
-9.93918e-05
-0.000139848
-0.000169758
-0.000183803
-0.000204669
-0.000215819
-0.000250842
-0.000231266
-0.000318267
-0.000182766
-0.00047336
7.03944e-05
-0.000907885
0.0010205
-0.00202616
)
;
    }
    walls
    {
        type            zeroGradient;
    }
    frontAndBack
    {
        type            empty;
    }
    procBoundary7to3
    {
        type            processor;
        value           nonuniform List<scalar> 
16
(
5.14506
4.71648
4.32344
3.96495
3.67108
3.32426
3.0401
2.67643
2.31781
2.31781
1.94588
1.52326
1.1475
0.815835
0.404609
0.153861
)
;
    }
    procBoundary7to6
    {
        type            processor;
        value           nonuniform List<scalar> 
91
(
-6.24848
-1.00903
-1.00903
-4.67403
-4.67403
-3.37313
-3.37313
-4.66841
-4.68057
-4.68057
-5.52369
-5.2221
-5.2221
-6.46213
-6.10497
-5.77091
-5.77091
-7.01517
-6.7251
-6.45005
-6.45005
-7.5409
-7.34878
-7.12782
-6.87984
-6.87984
-7.14683
-7.18309
-7.17957
-7.13852
-7.06039
-7.06039
-4.89785
-5.2007
-5.47599
-5.72119
-5.93398
-6.1131
-6.25631
-6.25631
0.10631
-0.234756
-0.584499
-0.941216
-1.30312
-1.66802
-2.03374
-2.3977
-2.75735
-3.1098
-3.45227
-3.78162
-3.78162
5.87179
5.80263
5.73131
5.65942
5.58356
5.50257
5.41576
5.32461
5.22765
5.12549
5.01677
4.9031
4.78371
4.66088
4.53463
4.40792
4.28102
4.15624
4.03311
3.91275
3.79283
3.67098
3.5423
3.40491
3.25816
3.10395
2.94068
2.7652
2.5759
2.3757
2.16588
1.94566
1.7136
1.4703
1.21637
0.952112
0.677473
0.677473
)
;
    }
}


// ************************************************************************* //
