/*--------------------------------*- C++ -*----------------------------------*\
| =========                 |                                                 |
| \\      /  F ield         | OpenFOAM: The Open Source CFD Toolbox           |
|  \\    /   O peration     | Version:  2306                                  |
|   \\  /    A nd           | Website:  www.openfoam.com                      |
|    \\/     M anipulation  |                                                 |
\*---------------------------------------------------------------------------*/
FoamFile
{
    version     2.0;
    format      ascii;
    arch        "LSB;label=32;scalar=64";
    class       volScalarField;
    location    "125";
    object      turbulenceProperties:I;
}
// * * * * * * * * * * * * * * * * * * * * * * * * * * * * * * * * * * * * * //

dimensions      [0 0 0 0 0 0 0];

internalField   nonuniform List<scalar> 
1340
(
2.66076e-05
2.23011e-05
2.676e-05
2.22166e-05
2.18942e-05
2.67011e-05
1.30505e-05
2.20959e-05
2.16066e-05
2.67156e-05
1.40173e-05
1.87014e-05
1.2975e-05
2.20121e-05
2.13569e-05
2.67759e-05
1.75397e-05
1.84414e-05
1.38466e-05
1.85842e-05
1.28946e-05
2.19345e-05
2.11527e-05
2.68346e-05
2.13672e-05
1.99567e-05
1.95537e-05
1.72772e-05
1.82516e-05
1.36646e-05
1.8463e-05
1.28274e-05
2.18624e-05
2.10038e-05
2.68838e-05
2.38437e-05
2.28285e-05
2.17438e-05
2.1009e-05
1.96201e-05
1.92774e-05
1.70058e-05
1.80524e-05
1.34767e-05
1.83408e-05
1.27707e-05
2.1799e-05
2.09066e-05
2.6924e-05
2.83086e-05
2.70276e-05
2.57864e-05
2.45516e-05
2.33619e-05
2.2381e-05
2.13194e-05
2.06334e-05
1.92682e-05
1.89864e-05
1.67225e-05
1.7843e-05
1.32801e-05
1.82156e-05
1.27197e-05
2.17409e-05
2.08502e-05
2.69656e-05
3.39953e-05
3.26995e-05
3.14103e-05
3.01331e-05
2.8866e-05
2.76201e-05
2.63875e-05
2.51944e-05
2.40086e-05
2.28605e-05
2.19141e-05
2.0875e-05
2.02364e-05
1.88976e-05
1.86766e-05
1.64241e-05
1.76208e-05
1.3071e-05
1.80833e-05
1.26733e-05
2.16837e-05
2.08263e-05
2.69956e-05
4.1764e-05
4.05291e-05
3.92903e-05
3.80478e-05
3.6799e-05
3.55499e-05
3.42994e-05
3.3051e-05
3.18061e-05
3.0569e-05
2.93407e-05
2.81219e-05
2.69209e-05
2.57339e-05
2.45858e-05
2.34465e-05
2.23405e-05
2.14281e-05
2.04109e-05
1.98182e-05
1.85078e-05
1.83473e-05
1.61114e-05
1.73843e-05
1.28496e-05
1.79422e-05
1.26314e-05
2.16254e-05
2.08418e-05
2.70213e-05
5.48487e-05
5.2881e-05
5.28121e-05
5.20901e-05
5.06716e-05
4.92182e-05
4.79331e-05
4.67142e-05
4.54914e-05
4.4265e-05
4.30461e-05
4.18327e-05
4.06198e-05
3.94059e-05
3.81938e-05
3.69813e-05
3.57683e-05
3.45558e-05
3.33452e-05
3.21362e-05
3.09343e-05
2.97386e-05
2.85534e-05
2.73754e-05
2.62152e-05
2.50695e-05
2.39628e-05
2.28682e-05
2.18036e-05
2.09255e-05
1.99293e-05
1.938e-05
1.81006e-05
1.79993e-05
1.57849e-05
1.71332e-05
1.26174e-05
1.77921e-05
1.25925e-05
2.15652e-05
2.08794e-05
2.70426e-05
0.00022296
0.000370972
0.00134796
0.00207652
0.00275346
0.00807226
0.0153379
0.0240869
0.0336934
0.0435567
0.053178
0.0620992
0.0698033
0.0756384
0.0787726
0.0781924
0.072692
0.0607006
0.0386971
0.0297858
0.0541591
0.0646289
0.0660893
0.0600581
0.0480908
0.0325123
0.0167408
0.0049561
0.000667268
5.06091e-05
0
0
0
2.18868e-06
3.60565e-06
4.91959e-05
6.54249e-05
6.26996e-05
5.50389e-05
5.11464e-05
5.05097e-05
5.0003e-05
4.8726e-05
4.72207e-05
4.5851e-05
4.45809e-05
4.33267e-05
4.20781e-05
4.0844e-05
3.96223e-05
3.84086e-05
3.72033e-05
3.60038e-05
3.48097e-05
3.36203e-05
3.24358e-05
3.1256e-05
3.00859e-05
2.89239e-05
2.77733e-05
2.66303e-05
2.55055e-05
2.4397e-05
2.33283e-05
2.22751e-05
2.12518e-05
2.04076e-05
1.94321e-05
1.89232e-05
1.76764e-05
1.76327e-05
1.54459e-05
1.6866e-05
1.23744e-05
1.76303e-05
1.25576e-05
2.15016e-05
2.09408e-05
2.70595e-05
0
6.63898e-06
0.000137813
0.000210101
0.00109644
0.00153744
0.00304105
0.00823447
0.0153419
0.0240086
0.0335771
0.0433818
0.0528596
0.0615002
0.0687363
0.0738527
0.0759513
0.0739473
0.0665447
0.0518558
0.0228489
0.0406375
0.0573636
0.063471
0.0614147
0.0526327
0.0389964
0.0233552
0.00975679
0.000744686
0.000235686
0
0
0
1.71189e-07
8.88191e-06
3.03021e-05
5.856e-05
6.30884e-05
5.57507e-05
5.0009e-05
4.84541e-05
4.79841e-05
4.68522e-05
4.53222e-05
4.38728e-05
4.25589e-05
4.12844e-05
4.00163e-05
3.87625e-05
3.75289e-05
3.63131e-05
3.51116e-05
3.39213e-05
3.2742e-05
3.15714e-05
3.04107e-05
2.92623e-05
2.81254e-05
2.70015e-05
2.58871e-05
2.4793e-05
2.37162e-05
2.26817e-05
2.16661e-05
2.06838e-05
1.98735e-05
1.89179e-05
1.84458e-05
1.72339e-05
1.72458e-05
1.50911e-05
1.65814e-05
1.21174e-05
1.74573e-05
1.25192e-05
2.14329e-05
2.1005e-05
2.70767e-05
0
0
0
2.43841e-06
7.53554e-05
9.17204e-06
0.000906159
0.00104598
0.00326073
0.00829283
0.0153155
0.0239779
0.0335748
0.04336
0.052694
0.0610015
0.067654
0.0718684
0.0726766
0.0689233
0.0591896
0.0408496
0.0207383
0.0476197
0.0585941
0.0605417
0.0551088
0.0438855
0.0292216
0.0145302
0.00388873
0.000529203
0
0
0
0
4.28992e-06
1.29631e-05
4.95085e-05
6.11122e-05
5.62562e-05
4.92687e-05
4.64671e-05
4.59566e-05
4.50764e-05
4.35515e-05
4.1974e-05
4.05748e-05
3.92776e-05
3.80032e-05
3.67412e-05
3.55007e-05
3.42844e-05
3.30876e-05
3.19079e-05
3.07428e-05
2.95924e-05
2.84583e-05
2.7339e-05
2.62358e-05
2.51455e-05
2.40767e-05
2.30284e-05
2.20236e-05
2.10422e-05
2.01008e-05
1.93249e-05
1.83889e-05
1.79498e-05
1.67754e-05
1.68397e-05
1.47233e-05
1.62817e-05
1.18491e-05
1.72697e-05
1.24753e-05
2.13683e-05
2.10721e-05
2.70942e-05
4.24712e-06
1.10166e-07
0
0
0
6.30862e-08
6.32616e-05
0.000435113
0.00078052
0.000741497
0.00338833
0.00833294
0.0153695
0.0241243
0.0338252
0.0436294
0.0528076
0.0607045
0.0666141
0.0696736
0.068842
0.0628888
0.0501351
0.0254481
0.0355899
0.0520977
0.0579758
0.0558659
0.0472516
0.0340868
0.0193591
0.0071782
0.00158235
9.68076e-05
0
0
0
6.41861e-07
1.00779e-05
3.58021e-05
5.70608e-05
5.65565e-05
4.92503e-05
4.43916e-05
4.32274e-05
4.28569e-05
4.17668e-05
4.02306e-05
3.87267e-05
3.73631e-05
3.6071e-05
3.48059e-05
3.35636e-05
3.23468e-05
3.11547e-05
2.99836e-05
2.88322e-05
2.77017e-05
2.65901e-05
2.54988e-05
2.44235e-05
2.33722e-05
2.23443e-05
2.13625e-05
2.04083e-05
1.95046e-05
1.87616e-05
1.78416e-05
1.74308e-05
1.62911e-05
1.64102e-05
1.43272e-05
1.59642e-05
1.15363e-05
1.70797e-05
1.23932e-05
2.12972e-05
2.11474e-05
2.71333e-05
2.44737e-05
1.39309e-05
3.49257e-06
1.12898e-07
1.72003e-08
0
0
0
5.68278e-05
0.000403741
0.000708377
0.000746186
0.00346413
0.00834828
0.0153917
0.0242037
0.0339629
0.043746
0.0527277
0.0601501
0.0652075
0.0669592
0.0642989
0.0559023
0.0394929
0.0175197
0.043403
0.0536582
0.055078
0.0493342
0.0381381
0.0240426
0.0106531
0.00161858
0.000176176
0
0
0
0
4.79249e-06
1.3828e-05
4.69598e-05
5.59967e-05
5.20296e-05
4.55745e-05
4.15758e-05
4.01472e-05
3.93053e-05
3.81011e-05
3.66687e-05
3.52661e-05
3.39514e-05
3.26904e-05
3.14609e-05
3.02601e-05
2.90869e-05
2.79402e-05
2.68191e-05
2.5722e-05
2.46503e-05
2.35978e-05
2.25732e-05
2.15738e-05
2.06237e-05
1.97052e-05
1.88493e-05
1.81517e-05
1.72552e-05
1.68797e-05
1.57798e-05
1.59595e-05
1.39197e-05
1.56339e-05
1.12414e-05
1.68723e-05
1.23402e-05
2.12128e-05
2.12144e-05
2.71321e-05
5.18475e-05
4.78856e-05
3.7139e-05
2.45034e-05
3.44888e-06
9.52209e-07
8.29406e-08
0
0
0
4.14011e-05
0.000330882
0.00058884
0.000790692
0.00269862
0.00677936
0.0129313
0.0209784
0.0302493
0.039807
0.048701
0.0560334
0.0609147
0.0623783
0.0593119
0.0504115
0.0331046
0.0231919
0.0430654
0.0505743
0.0499717
0.0428766
0.0313226
0.0182702
0.00756297
0.00211379
0.000158811
0
0
0
6.0363e-07
2.30441e-06
7.46548e-07
3.51636e-05
4.66345e-05
4.67264e-05
4.21197e-05
3.84583e-05
3.67574e-05
3.57047e-05
3.44774e-05
3.31076e-05
3.17719e-05
3.05101e-05
2.92975e-05
2.81187e-05
2.69726e-05
2.58584e-05
2.47757e-05
2.3723e-05
2.26958e-05
2.17001e-05
2.07331e-05
1.98187e-05
1.89392e-05
1.81424e-05
1.74967e-05
1.66354e-05
1.62881e-05
1.5258e-05
1.54672e-05
1.35525e-05
1.52344e-05
1.1098e-05
1.64984e-05
1.21317e-05
2.07352e-05
2.07041e-05
2.61533e-05
6.81422e-05
6.47377e-05
5.84899e-05
5.40498e-05
4.70028e-05
3.53032e-05
1.85851e-05
4.59871e-06
1.38702e-07
1.69761e-08
0
0
2.66302e-05
0.000108233
0.000403471
0.000621622
0.000857182
0.0037191
0.00852087
0.0154048
0.0239724
0.0333442
0.0424519
0.0502363
0.0556881
0.0577956
0.0554682
0.0474548
0.0313831
0.0210722
0.0400558
0.0468555
0.0457692
0.0385159
0.027369
0.0153445
0.00597713
0.00168516
0.000174416
0
0
0
2.83172e-08
1.51947e-06
6.25899e-07
3.22478e-05
4.45037e-05
4.29434e-05
3.79586e-05
3.4911e-05
3.3545e-05
3.24291e-05
3.11236e-05
2.97781e-05
2.85016e-05
2.72904e-05
2.61239e-05
2.49954e-05
2.39052e-05
2.28521e-05
2.18313e-05
2.08467e-05
1.98958e-05
1.90016e-05
1.81473e-05
1.74031e-05
1.68039e-05
1.59769e-05
1.56417e-05
1.46836e-05
1.49201e-05
1.31369e-05
1.48193e-05
1.09394e-05
1.62281e-05
1.2285e-05
2.06312e-05
2.09489e-05
2.62039e-05
7.71855e-05
7.22444e-05
6.46598e-05
6.12112e-05
5.81701e-05
5.43172e-05
4.88616e-05
3.96408e-05
2.61981e-05
3.0007e-06
8.73545e-07
5.28308e-08
0
0
0
4.23754e-05
0.000150076
0.000545233
0.00073534
0.00169473
0.00556505
0.0115946
0.0196258
0.028843
0.038075
0.0460926
0.0517537
0.0539874
0.0516817
0.0435866
0.0270568
0.0233661
0.0391058
0.0440914
0.0416071
0.0335502
0.0225004
0.0115148
0.00357466
0.000958164
9.70815e-05
0
0
0
2.45901e-08
3.90398e-06
1.1819e-05
3.44245e-05
4.08739e-05
3.7191e-05
3.3216e-05
3.13761e-05
3.02889e-05
2.90798e-05
2.77662e-05
2.64942e-05
2.52923e-05
2.41439e-05
2.30403e-05
2.19794e-05
2.09581e-05
1.9978e-05
1.9037e-05
1.81564e-05
1.73211e-05
1.6626e-05
1.60767e-05
1.52843e-05
1.49572e-05
1.40639e-05
1.4337e-05
1.26742e-05
1.43937e-05
1.07161e-05
1.59809e-05
1.23569e-05
2.05798e-05
2.11307e-05
2.62434e-05
7.41838e-05
7.0928e-05
6.41819e-05
6.02916e-05
5.70352e-05
5.39381e-05
5.07156e-05
4.62913e-05
3.95439e-05
2.84681e-05
8.25478e-06
2.09196e-06
4.50256e-08
0
0
0
0
8.47466e-05
0.000363593
0.000544474
0.000551836
0.00374747
0.00920749
0.0168666
0.0259642
0.035215
0.0432336
0.0487484
0.0506058
0.0476689
0.0386026
0.0195837
0.0273526
0.0389556
0.0413674
0.0369791
0.0279106
0.0169961
0.00753174
0.00130376
0.000366239
0
0
0
0
4.79973e-07
7.04436e-06
2.56572e-05
3.75664e-05
3.63193e-05
3.19517e-05
2.94146e-05
2.81604e-05
2.70066e-05
2.57431e-05
2.44936e-05
2.33096e-05
2.21849e-05
2.11104e-05
2.00817e-05
1.90993e-05
1.81607e-05
1.72876e-05
1.64628e-05
1.58133e-05
1.53158e-05
1.45584e-05
1.42342e-05
1.34007e-05
1.37134e-05
1.21695e-05
1.39473e-05
1.04614e-05
1.57417e-05
1.23974e-05
2.05498e-05
2.12327e-05
2.62705e-05
7.44073e-05
7.13436e-05
6.47757e-05
6.07807e-05
5.73166e-05
5.40274e-05
5.08665e-05
4.78578e-05
4.48018e-05
4.11406e-05
3.55583e-05
2.57666e-05
6.35131e-06
1.63875e-06
2.90993e-08
0
0
0
0
3.17072e-05
0.000172364
0.000705794
0.000824315
0.00272641
0.00790788
0.0154172
0.0244718
0.0336616
0.041438
0.0464192
0.0473797
0.0431366
0.0321314
0.00873157
0.0312084
0.0385735
0.037998
0.0315015
0.0215343
0.0111863
0.00361768
0.00095399
6.80915e-05
0
0
0
0
4.43915e-06
1.53391e-05
3.24818e-05
3.4296e-05
3.05254e-05
2.76061e-05
2.61123e-05
2.49387e-05
2.37127e-05
2.24964e-05
2.13402e-05
2.02444e-05
1.9201e-05
1.82094e-05
1.72669e-05
1.63948e-05
1.55729e-05
1.49648e-05
1.45207e-05
1.38007e-05
1.34769e-05
1.26991e-05
1.30538e-05
1.16322e-05
1.34824e-05
1.01981e-05
1.55031e-05
1.24217e-05
2.05348e-05
2.12553e-05
2.63055e-05
7.28765e-05
6.949e-05
6.29685e-05
5.90632e-05
5.57202e-05
5.25143e-05
4.93624e-05
4.63179e-05
4.33896e-05
4.06208e-05
3.7846e-05
3.47095e-05
2.98725e-05
2.08683e-05
3.70135e-06
1.0054e-06
2.44291e-08
0
0
0
0
0
0.000137287
0.000628208
0.00082638
0.0023105
0.00751015
0.0151141
0.0242155
0.033225
0.0404567
0.0444374
0.0438978
0.0375807
0.023117
0.0210427
0.0340225
0.0371582
0.0334099
0.0249148
0.0146432
0.00603883
0.000746681
0.000229312
0
0
0
0
1.40458e-06
3.41838e-06
2.58159e-05
3.16825e-05
2.87977e-05
2.58262e-05
2.41949e-05
2.29717e-05
2.17403e-05
2.05365e-05
1.94027e-05
1.83326e-05
1.73196e-05
1.63617e-05
1.54802e-05
1.46516e-05
1.40785e-05
1.36899e-05
1.30094e-05
1.26857e-05
1.19597e-05
1.23586e-05
1.1059e-05
1.29963e-05
9.91407e-06
1.52619e-05
1.24102e-05
2.05212e-05
2.11691e-05
2.6362e-05
6.99538e-05
6.65605e-05
6.0164e-05
5.63311e-05
5.314e-05
5.01261e-05
4.71753e-05
4.42946e-05
4.14825e-05
3.87696e-05
3.61836e-05
3.3749e-05
3.13517e-05
2.8519e-05
2.39587e-05
1.63329e-05
2.7528e-06
7.56389e-07
2.53342e-08
0
0
0
0
0
0.000116244
0.000618821
0.000817496
0.00245265
0.00796065
0.0158843
0.0250511
0.033661
0.0399281
0.0423402
0.0396046
0.0302571
0.00793692
0.028193
0.0349863
0.0339559
0.0272154
0.0174912
0.00811273
0.00195704
0.000511005
0
0
0
0
1.43867e-07
5.77401e-06
2.14065e-05
2.85402e-05
2.65265e-05
2.36358e-05
2.2075e-05
2.09433e-05
1.97534e-05
1.85638e-05
1.74479e-05
1.64066e-05
1.54275e-05
1.45291e-05
1.36844e-05
1.31414e-05
1.28112e-05
1.21731e-05
1.18538e-05
1.11782e-05
1.16325e-05
1.04551e-05
1.25065e-05
9.62058e-06
1.50346e-05
1.23323e-05
2.05187e-05
2.08812e-05
2.65399e-05
6.60336e-05
6.28603e-05
5.69121e-05
5.33535e-05
5.03693e-05
4.75595e-05
4.48152e-05
4.21423e-05
3.94993e-05
3.69048e-05
3.43961e-05
3.19989e-05
2.96987e-05
2.75004e-05
2.52344e-05
2.24103e-05
1.83208e-05
1.23715e-05
2.57482e-06
7.21803e-07
2.33882e-08
0
0
0
0
0
0.000119051
0.000705268
0.000849887
0.00314115
0.00924283
0.0176245
0.0267249
0.0345277
0.0391922
0.0392097
0.0332518
0.0186274
0.0216709
0.0318946
0.0332263
0.0281855
0.0192349
0.00971284
0.00310816
0.000767004
0
0
0
0
0
4.67273e-06
1.69306e-05
2.69636e-05
2.54763e-05
2.19005e-05
1.99136e-05
1.87681e-05
1.7651e-05
1.64937e-05
1.53884e-05
1.43628e-05
1.34342e-05
1.25656e-05
1.20546e-05
1.17939e-05
1.12036e-05
1.09013e-05
1.0274e-05
1.07994e-05
9.71348e-06
1.19254e-05
9.14053e-06
1.47289e-05
1.20789e-05
2.04279e-05
2.03122e-05
2.68665e-05
6.33311e-05
6.02678e-05
5.4567e-05
5.11385e-05
4.82564e-05
4.55405e-05
4.29119e-05
4.03656e-05
3.78735e-05
3.54315e-05
3.30388e-05
3.07052e-05
2.84107e-05
2.61469e-05
2.39319e-05
2.18048e-05
1.9756e-05
1.74667e-05
1.4463e-05
1.01688e-05
2.31339e-06
6.81014e-07
3.80474e-08
0
0
0
0
0
0.000161376
0.000124064
0.000633596
0.00448995
0.0114868
0.0204941
0.0295795
0.0365272
0.0393558
0.036431
0.0259857
0.0152498
0.0298732
0.0336275
0.0299867
0.0214041
0.0113922
0.00319495
0.000767389
0.000207518
0.000116249
5.60245e-05
0
0
1.6577e-06
4.06365e-06
2.07501e-05
2.35098e-05
2.07152e-05
1.83185e-05
1.68767e-05
1.57298e-05
1.46195e-05
1.35516e-05
1.25729e-05
1.16541e-05
1.11506e-05
1.09425e-05
1.03778e-05
1.00848e-05
9.47906e-06
1.01182e-05
9.06147e-06
1.15614e-05
8.58859e-06
1.46819e-05
1.14068e-05
2.05596e-05
1.92801e-05
2.81166e-05
5.6709e-05
5.37738e-05
4.85581e-05
4.53961e-05
4.27549e-05
4.02837e-05
3.79196e-05
3.56539e-05
3.34786e-05
3.13734e-05
2.93113e-05
2.72942e-05
2.53391e-05
2.34386e-05
2.15881e-05
1.97823e-05
1.80388e-05
1.63847e-05
1.47404e-05
1.27881e-05
1.00886e-05
6.61646e-06
2.10046e-06
5.08876e-07
0
0
0
0
0
1.73373e-06
0.00019367
0.000135684
0.000792246
0.00431836
0.0104065
0.0180198
0.0255301
0.0310763
0.0329232
0.0295526
0.0188576
0.0165011
0.0268362
0.0283013
0.0238148
0.0160803
0.00860108
0.00357105
0.00112991
0.000266767
0.000126812
0
0
1.91992e-07
6.6175e-08
1.34302e-05
1.76492e-05
1.71422e-05
1.55617e-05
1.41743e-05
1.29818e-05
1.18773e-05
1.08548e-05
9.86219e-06
9.36734e-06
9.29638e-06
8.76934e-06
8.45348e-06
7.73801e-06
8.57011e-06
7.18323e-06
1.03554e-05
6.24419e-06
1.37452e-05
1.0068e-05
1.95611e-05
1.90713e-05
2.77849e-05
)
;

boundaryField
{
    inlet
    {
        type            calculated;
        value           nonuniform List<scalar> 
27
(
6.61825e-05
6.61115e-05
6.60699e-05
6.60548e-05
6.60502e-05
6.60518e-05
6.60614e-05
6.60776e-05
6.60998e-05
6.61226e-05
6.61452e-05
6.61644e-05
6.61775e-05
6.6181e-05
6.61718e-05
6.61463e-05
6.61064e-05
6.58272e-05
6.5717e-05
6.55736e-05
6.53829e-05
6.5139e-05
6.4829e-05
6.44456e-05
6.39597e-05
6.34863e-05
6.25996e-05
)
;
    }
    outlet
    {
        type            calculated;
        value           nonuniform List<scalar> 
78
(
5.71892e-05
5.42708e-05
4.91003e-05
4.59687e-05
4.33553e-05
4.09126e-05
3.85785e-05
3.63448e-05
3.42045e-05
3.21381e-05
3.01187e-05
2.81457e-05
2.6234e-05
2.43767e-05
2.25725e-05
2.08192e-05
1.91347e-05
1.75426e-05
1.59526e-05
1.40078e-05
1.11637e-05
7.22264e-06
2.04114e-06
3.84401e-07
0
0
0
0
0
1.71823e-06
0.000192903
0.00013533
0.000697948
0.00428891
0.0103803
0.0180002
0.0255262
0.0311014
0.0329956
0.0297026
0.0191787
0.0160389
0.0265996
0.0281568
0.0237379
0.0160495
0.00859288
0.00356701
0.00111982
0.000259721
0.000124114
0
0
1.8663e-07
6.38634e-08
1.28677e-05
1.67921e-05
1.61967e-05
1.46015e-05
1.32092e-05
1.20182e-05
1.09268e-05
9.9306e-06
8.97261e-06
8.56054e-06
8.58853e-06
8.09166e-06
7.84811e-06
7.1371e-06
8.12059e-06
6.5453e-06
1.0014e-05
5.33706e-06
1.34353e-05
1.00051e-05
1.91632e-05
1.91233e-05
2.70648e-05
)
;
    }
    walls
    {
        type            calculated;
        value           nonuniform List<scalar> 0();
    }
    frontAndBack
    {
        type            empty;
    }
    procBoundary7to3
    {
        type            processor;
        value           nonuniform List<scalar> 
16
(
7.20609e-06
0
1.72072e-07
1.74389e-05
2.20143e-05
4.91364e-05
6.69725e-05
7.74134e-05
7.90759e-05
7.90759e-05
8.00623e-05
7.87984e-05
7.58082e-05
7.15512e-05
6.86591e-05
6.16649e-05
)
;
    }
    procBoundary7to6
    {
        type            processor;
        value           nonuniform List<scalar> 
91
(
2.64643e-05
2.27355e-05
2.27355e-05
2.24181e-05
2.24181e-05
1.30851e-05
1.30851e-05
1.41614e-05
1.88123e-05
1.88123e-05
1.77847e-05
1.86173e-05
1.86173e-05
2.17088e-05
2.02793e-05
1.98162e-05
1.98162e-05
2.43094e-05
2.32597e-05
2.2152e-05
2.2152e-05
2.89846e-05
2.7652e-05
2.63606e-05
2.50755e-05
2.50755e-05
3.49638e-05
3.36082e-05
3.22589e-05
3.09257e-05
2.96047e-05
2.96047e-05
4.3059e-05
4.17798e-05
4.04939e-05
3.92011e-05
3.79016e-05
3.65983e-05
3.52961e-05
3.52961e-05
5.54966e-05
5.54077e-05
5.43367e-05
5.28409e-05
5.14726e-05
5.02596e-05
4.90729e-05
4.78657e-05
4.66482e-05
4.5431e-05
4.42129e-05
4.29917e-05
4.29917e-05
0.00167624
0.00270393
0.00278697
0.00767941
0.0151674
0.0240797
0.0338081
0.0438015
0.0536053
0.0628012
0.0709119
0.0773389
0.0813144
0.0818974
0.0779584
0.0681039
0.0499442
0.00945097
0.0489989
0.064133
0.0691737
0.0660608
0.0561827
0.0414652
0.0248348
0.0103911
0.000744548
0.000339661
0
0
0
3.5385e-07
8.96623e-06
2.95249e-05
6.15146e-05
6.89121e-05
6.17086e-05
6.17086e-05
)
;
    }
}


// ************************************************************************* //
