/*--------------------------------*- C++ -*----------------------------------*\
| =========                 |                                                 |
| \\      /  F ield         | OpenFOAM: The Open Source CFD Toolbox           |
|  \\    /   O peration     | Version:  2306                                  |
|   \\  /    A nd           | Website:  www.openfoam.com                      |
|    \\/     M anipulation  |                                                 |
\*---------------------------------------------------------------------------*/
FoamFile
{
    version     2.0;
    format      ascii;
    arch        "LSB;label=32;scalar=64";
    class       volScalarField;
    location    "125";
    object      turbulenceProperties:L;
}
// * * * * * * * * * * * * * * * * * * * * * * * * * * * * * * * * * * * * * //

dimensions      [0 1 0 0 0 0 0];

internalField   nonuniform List<scalar> 
1340
(
0.253685
0.303592
0.252314
0.304404
0.309205
0.252936
0.518182
0.306128
0.313304
0.252854
0.482084
0.361494
0.52125
0.307355
0.316957
0.252342
0.385051
0.366375
0.488135
0.363857
0.524561
0.308508
0.320013
0.25185
0.315874
0.338308
0.345393
0.391035
0.370297
0.494757
0.366333
0.527379
0.309591
0.322283
0.251448
0.282999
0.295655
0.310478
0.321421
0.344266
0.350485
0.397415
0.374501
0.50178
0.368864
0.529796
0.310561
0.323789
0.251132
0.238444
0.249747
0.261785
0.274982
0.289028
0.30175
0.316835
0.327438
0.350713
0.356003
0.404293
0.379018
0.509339
0.371494
0.531999
0.31146
0.324679
0.250804
0.199022
0.20682
0.215233
0.224294
0.234093
0.24462
0.25603
0.268153
0.281408
0.295565
0.308367
0.323763
0.334033
0.35776
0.362063
0.41179
0.383926
0.51763
0.374313
0.53404
0.312353
0.325073
0.250584
0.163083
0.167889
0.173025
0.178524
0.184439
0.190785
0.197615
0.204964
0.212883
0.221406
0.230597
0.240526
0.251207
0.262759
0.275009
0.288365
0.302647
0.315554
0.33131
0.34126
0.365467
0.36872
0.419941
0.389284
0.526696
0.377359
0.53591
0.313268
0.324857
0.250403
0.126107
0.130561
0.13071
0.132451
0.135947
0.139736
0.143287
0.146843
0.150606
0.154594
0.158789
0.163216
0.167914
0.172915
0.178236
0.183919
0.190003
0.196523
0.20352
0.211049
0.219131
0.227834
0.237197
0.247322
0.258201
0.269948
0.282379
0.295869
0.310303
0.32333
0.339507
0.349158
0.373866
0.376011
0.428793
0.395127
0.536542
0.380648
0.537668
0.314216
0.324302
0.250265
0.0903443
0.146821
0.565499
1.25928
2.28485
1.50722
1.32489
1.2667
1.2564
1.27151
1.30362
1.35036
1.41329
1.49777
1.61474
1.78599
2.06097
2.5841
4.1379
5.34625
2.84346
2.21821
1.91778
1.73822
1.61258
1.50482
1.3746
1.13351
2.50947
0.228734
0
0
0
11.1024
6.22211
0.141979
0.108954
0.112744
0.125965
0.134982
0.136591
0.137949
0.141392
0.145666
0.14981
0.153889
0.158156
0.16266
0.167389
0.172367
0.177635
0.183215
0.189149
0.195473
0.202232
0.209468
0.217233
0.225551
0.234491
0.244097
0.254476
0.265615
0.277615
0.290278
0.303961
0.318567
0.331733
0.348388
0.357771
0.383019
0.383995
0.438375
0.40153
0.547242
0.384251
0.539273
0.315222
0.323386
0.250168
0
2.47212
0.0904793
0.11225
0.584912
1.5215
1.91559
1.40866
1.29693
1.27252
1.28382
1.31462
1.35919
1.41706
1.49164
1.59081
1.72962
1.93887
2.29364
3.05318
6.99869
3.86992
2.6095
2.14709
1.90068
1.74317
1.62302
1.50298
1.34595
0.44954
0.955342
0
0
0
0.0244437
1.6567
0.26309
0.119431
0.113186
0.125011
0.138098
0.14233
0.143703
0.147048
0.151776
0.156568
0.161208
0.165995
0.171064
0.176406
0.182017
0.187928
0.19418
0.200821
0.207886
0.215434
0.223504
0.232131
0.24138
0.251304
0.262011
0.273474
0.285806
0.29877
0.312716
0.32752
0.340849
0.358053
0.367216
0.393037
0.392779
0.448853
0.408567
0.559015
0.388171
0.541047
0.316307
0.322438
0.250068
0
0
0
8.87516
0.0961629
1.51351
0.604753
2.03064
1.68253
1.35755
1.29407
1.29565
1.32476
1.36915
1.42513
1.49409
1.58163
1.69887
1.8669
2.1312
2.61575
3.88691
7.63513
3.22385
2.44388
2.09199
1.88731
1.74511
1.62107
1.4625
1.13774
2.48516
0
0
0
0
4.87247
0.902495
0.140038
0.116825
0.124813
0.140303
0.148365
0.14998
0.152854
0.157975
0.163655
0.169083
0.174475
0.180133
0.186126
0.192437
0.199076
0.206095
0.213537
0.221459
0.229905
0.238911
0.248546
0.258861
0.269959
0.281831
0.294559
0.307912
0.322199
0.337225
0.350724
0.368551
0.377551
0.403966
0.402424
0.460245
0.416235
0.571845
0.392501
0.54307
0.317341
0.321452
0.249966
3.73835
0.00764296
0
0
0
0.00143594
0.108863
0.30821
0.612684
2.66604
1.56261
1.34327
1.31339
1.33509
1.37871
1.43467
1.50118
1.58173
1.68464
1.82563
2.03543
2.38644
3.11601
6.20966
4.36619
2.83716
2.31504
2.04412
1.87209
1.73793
1.59442
1.38171
1.72284
0.470384
0
0
0
1.27622
1.30805
0.203632
0.123934
0.125398
0.140768
0.155227
0.159237
0.160628
0.164722
0.170766
0.177149
0.1834
0.189772
0.196473
0.203549
0.211014
0.218902
0.227272
0.236174
0.245646
0.255757
0.266554
0.278151
0.290537
0.303788
0.317649
0.332411
0.347735
0.36145
0.380051
0.38898
0.416161
0.413131
0.473149
0.424663
0.587532
0.396985
0.54679
0.318481
0.320351
0.249668
0.275081
0.599128
4.51085
0.0081993
2.89869e-05
0
0
0
0.118689
0.312648
0.631036
2.57771
1.52072
1.36263
1.35562
1.39214
1.447
1.5127
1.58933
1.6826
1.80416
1.9759
2.24385
2.73054
3.96769
8.90878
3.47865
2.61304
2.23209
2.01272
1.85749
1.71161
1.49067
0.778841
3.44035
0
0
0
0
3.95314
0.7828
0.147335
0.128035
0.135805
0.151917
0.165565
0.171257
0.174873
0.180264
0.187076
0.194281
0.201592
0.209165
0.21714
0.22556
0.234467
0.243905
0.253925
0.264586
0.275929
0.288085
0.301022
0.314839
0.329228
0.344471
0.36002
0.373788
0.393158
0.401864
0.429831
0.424967
0.487179
0.433788
0.603121
0.401983
0.549256
0.319831
0.319379
0.249748
0.128143
0.138361
0.179653
0.300116
5.13357
4.28489
0.00322678
0
0
0
0.16052
0.303423
0.593058
1.93576
1.60961
1.42976
1.4198
1.45858
1.518
1.58996
1.67448
1.77802
1.91377
2.10727
2.41553
2.99772
4.66227
6.57941
3.38919
2.63585
2.28176
2.06972
1.91024
1.74579
1.54187
1.59373
1.53508
0
0
0
1.07046
9.64074
2.00186
0.200475
0.149434
0.150101
0.164309
0.178841
0.186837
0.192251
0.198944
0.206947
0.215415
0.224109
0.233179
0.242753
0.25287
0.263577
0.274913
0.286937
0.299759
0.313359
0.327832
0.342828
0.358629
0.374272
0.387999
0.408022
0.416669
0.444739
0.438688
0.500581
0.445329
0.611116
0.411224
0.558835
0.327283
0.327301
0.259159
0.0976717
0.102956
0.114132
0.123314
0.141376
0.193132
0.451133
3.47168
0.0149213
2.7342e-05
0
0
0.273841
0.115374
0.357871
0.733743
2.45965
1.57763
1.49617
1.5209
1.57873
1.65328
1.74187
1.85001
1.99119
2.19173
2.51007
3.11055
4.81736
7.09675
3.56489
2.76901
2.3985
2.17597
2.00673
1.81992
1.55984
1.59296
0.795791
0
0
0
0.000112464
9.43675
1.20684
0.218591
0.157471
0.163143
0.181743
0.196705
0.204523
0.21146
0.220134
0.229838
0.239901
0.250335
0.261306
0.272902
0.285152
0.298106
0.311865
0.326426
0.341868
0.357811
0.374519
0.390411
0.404231
0.425073
0.434114
0.462361
0.454984
0.51664
0.457984
0.620194
0.418207
0.55202
0.329015
0.323541
0.258708
0.0864243
0.0924149
0.103359
0.109324
0.115204
0.123378
0.136718
0.169277
0.279313
6.33939
3.37829
0.000814379
0
0
0
0.158324
0.12673
0.450861
1.10326
2.02626
1.61284
1.59575
1.64554
1.72063
1.81337
1.92825
2.07986
2.2976
2.64943
3.33428
5.49373
6.27228
3.55148
2.82053
2.46637
2.24552
2.06735
1.84347
1.40709
1.59035
0.37491
0
0
0
7.41232e-05
4.66004
0.874013
0.200162
0.1715
0.186326
0.206775
0.21852
0.226275
0.235537
0.246446
0.258037
0.270078
0.282713
0.296049
0.31014
0.325061
0.340828
0.357504
0.374682
0.392603
0.408877
0.422734
0.444556
0.454193
0.482954
0.473691
0.535716
0.471704
0.633338
0.424811
0.548969
0.329912
0.32083
0.258363
0.0902461
0.094455
0.104453
0.111282
0.117769
0.124699
0.132759
0.145134
0.169419
0.244354
1.38655
8.65636
0.000498594
0
0
0
0
0.0977588
0.26979
0.499829
3.86241
1.78724
1.68354
1.71883
1.7935
1.89205
2.01732
2.18615
2.43515
2.85196
3.72387
7.4588
5.22378
3.42481
2.81623
2.49893
2.28462
2.08552
1.8304
0.958265
1.23384
0
0
0
0
0.552274
1.84555
0.279503
0.185394
0.192063
0.215279
0.232991
0.243209
0.253485
0.265715
0.279029
0.292975
0.307613
0.323064
0.339413
0.356682
0.374933
0.393699
0.413263
0.430089
0.443933
0.466924
0.477464
0.507059
0.495426
0.558144
0.486974
0.648977
0.431397
0.547341
0.330472
0.319363
0.258146
0.0902248
0.0941617
0.103767
0.110645
0.117394
0.124621
0.132482
0.140969
0.15074
0.164027
0.189041
0.267997
1.91195
8.86877
0.000133321
0
0
0
0
0.231621
0.130974
0.562364
1.67906
2.008
1.77552
1.79666
1.87333
1.98018
2.12103
2.31666
2.61658
3.15034
4.4327
16.3751
4.41969
3.25973
2.77986
2.5031
2.28986
2.03868
1.60514
1.73429
0.27622
0
0
0
0
3.57443
0.553001
0.211756
0.203632
0.225783
0.248208
0.262112
0.274324
0.288314
0.30367
0.319898
0.337
0.355106
0.374247
0.394486
0.415291
0.43704
0.454646
0.468415
0.492739
0.504477
0.535262
0.520641
0.584123
0.503936
0.665942
0.438167
0.546429
0.330793
0.3191
0.257859
0.0923393
0.0968999
0.106991
0.11412
0.121019
0.12846
0.136718
0.145774
0.15571
0.166483
0.178867
0.194967
0.225622
0.334603
3.90244
4.54757
7.82991e-05
0
0
0
0
0
0.113018
0.486707
1.25705
2.19881
1.85945
1.87608
1.9596
2.08006
2.24427
2.48214
2.86765
3.62549
6.09052
6.61971
3.85782
3.09897
2.72671
2.47883
2.24693
1.9495
0.815361
0.975519
0
0
0
0
8.21237
4.88518
0.267403
0.219562
0.239544
0.265256
0.282724
0.297632
0.314289
0.332478
0.351687
0.372007
0.393566
0.416414
0.439943
0.464652
0.483407
0.496991
0.522868
0.5361
0.568527
0.550094
0.614587
0.522945
0.68523
0.445222
0.547098
0.331095
0.32048
0.257375
0.0963863
0.101357
0.112185
0.11987
0.127118
0.134811
0.143292
0.152659
0.163057
0.174526
0.187088
0.200744
0.2163
0.237636
0.281845
0.432545
5.28801
2.17712
8.68366e-05
0
0
0
0
0
0.106458
0.493171
1.27758
2.23857
1.92555
1.95578
2.05392
2.19602
2.39634
2.70228
3.24211
4.51314
17.421
4.74901
3.47738
2.9634
2.66446
2.42409
2.11381
1.43744
1.60965
0
0
0
0
0.0151617
2.19193
0.328355
0.242219
0.259745
0.289501
0.309576
0.326243
0.345724
0.36763
0.390912
0.41552
0.441699
0.468829
0.497591
0.517995
0.531203
0.558924
0.573866
0.60843
0.58459
0.650265
0.543584
0.706338
0.452083
0.550722
0.331223
0.32499
0.25573
0.102253
0.107468
0.118749
0.126717
0.134272
0.142252
0.151009
0.160633
0.171427
0.183523
0.196952
0.21176
0.228247
0.246694
0.269123
0.30266
0.369156
0.573577
5.10336
1.89605
6.80712e-05
0
0
0
0
0
0.110193
0.584226
1.73105
2.1869
1.98599
2.04351
2.16548
2.34175
2.60208
3.03309
3.91273
7.24452
6.15844
3.90658
3.21211
2.85908
2.61013
2.34047
1.99141
2.01311
0
0
0
0
0
2.91749
0.433947
0.257083
0.272263
0.312457
0.342756
0.363634
0.386608
0.413547
0.443026
0.474463
0.507075
0.541954
0.564771
0.577117
0.607393
0.624123
0.662106
0.629827
0.700075
0.570224
0.743633
0.461603
0.562451
0.332801
0.334183
0.252758
0.106742
0.112217
0.123987
0.132345
0.140294
0.148705
0.157858
0.16786
0.178949
0.191325
0.205222
0.220859
0.238734
0.259454
0.283575
0.311481
0.344127
0.388651
0.468198
0.699554
5.44263
1.60408
0.000292212
0
0
0
0
0
0.141384
0.118082
3.91578
2.13026
2.04843
2.13713
2.2882
2.5091
2.85668
3.50128
5.22168
8.94138
4.33548
3.37103
2.92629
2.62172
2.30791
1.59322
2.41199
1.44854
0.783825
0.195257
0
0
8.51459
3.29893
0.329153
0.295888
0.331805
0.372795
0.404169
0.433534
0.466321
0.502881
0.541843
0.584386
0.610617
0.622096
0.655816
0.674755
0.717745
0.672355
0.750592
0.588317
0.791594
0.463204
0.595753
0.330765
0.352163
0.241665
0.11937
0.125929
0.139495
0.149249
0.158507
0.168268
0.178795
0.190194
0.202588
0.216217
0.231463
0.248603
0.267816
0.289562
0.314413
0.343162
0.376445
0.414753
0.461511
0.531559
0.671342
1.05505
4.58304
0.686357
0
0
0
0
0
9.81464
0.204111
0.154342
3.15269
2.15291
2.12327
2.23268
2.40931
2.67199
3.09967
3.93838
6.60701
7.60485
4.39235
3.54487
3.13345
2.85387
2.65682
2.54463
2.31321
1.10003
0.504657
0
0
0.0365774
0.00150156
0.535932
0.386279
0.398901
0.438627
0.481033
0.524987
0.573642
0.627505
0.69048
0.726809
0.732234
0.776099
0.804973
0.879209
0.793887
0.946806
0.657012
1.08845
0.494984
0.675088
0.347905
0.355939
0.245019
)
;

boundaryField
{
    inlet
    {
        type            calculated;
        value           nonuniform List<scalar> 
27
(
0.102207
0.102333
0.102413
0.102449
0.102469
0.10248
0.102479
0.102468
0.102447
0.102425
0.102404
0.102388
0.102381
0.102389
0.102417
0.102472
0.102549
0.102999
0.103182
0.103418
0.103731
0.104132
0.104646
0.105287
0.106119
0.106946
0.108577
)
;
    }
    outlet
    {
        type            calculated;
        value           nonuniform List<scalar> 
78
(
0.118369
0.124777
0.137956
0.147391
0.156313
0.165682
0.175743
0.186579
0.198289
0.211072
0.225258
0.241082
0.258681
0.278419
0.300702
0.326071
0.354886
0.387377
0.426442
0.485283
0.606713
0.966698
4.66336
0.299163
0
0
0
0
0
9.77628
0.204922
0.154748
3.57868
2.16771
2.1286
2.23501
2.40941
2.66931
3.09197
3.91702
6.49363
7.82064
4.42971
3.56198
3.14292
2.85896
2.65913
2.54737
2.33393
1.12982
0.515606
0
0
0.033601
0.00134976
0.55934
0.405985
0.422178
0.467458
0.516162
0.567061
0.623513
0.685865
0.758879
0.795239
0.792521
0.841015
0.866978
0.953091
0.837775
1.03885
0.679389
1.27249
0.50639
0.679329
0.355124
0.35497
0.251535
)
;
    }
    walls
    {
        type            calculated;
        value           nonuniform List<scalar> 0();
    }
    frontAndBack
    {
        type            empty;
    }
    procBoundary7to3
    {
        type            processor;
        value           nonuniform List<scalar> 
16
(
2.44471
0
0.0290966
0.479357
0.300216
0.13515
0.0992715
0.0861064
0.0846078
0.0846078
0.0837988
0.0853489
0.0888954
0.0943241
0.098417
0.109741
)
;
    }
    procBoundary7to6
    {
        type            processor;
        value           nonuniform List<scalar> 
91
(
0.255007
0.297837
0.297837
0.301605
0.301605
0.516768
0.516768
0.477076
0.359286
0.359286
0.379625
0.362807
0.362807
0.310753
0.332782
0.340686
0.340686
0.277394
0.290001
0.30459
0.30459
0.232658
0.243891
0.255876
0.269038
0.269038
0.193255
0.200978
0.209326
0.218306
0.228018
0.228018
0.157938
0.162618
0.167634
0.173022
0.178822
0.185068
0.191784
0.191784
0.12448
0.124672
0.126982
0.130344
0.133599
0.13664
0.139765
0.143108
0.14666
0.15041
0.154377
0.15859
0.15859
0.514578
1.08246
2.45143
1.67642
1.38315
1.28022
1.24389
1.24101
1.25942
1.29459
1.34633
1.41796
1.51738
1.6605
1.88182
2.27143
3.1881
16.9061
3.19058
2.30711
1.93666
1.72943
1.59396
1.49063
1.38918
1.25725
0.419106
0.740113
0
0
0
0.214711
1.69647
0.280765
0.113549
0.104153
0.113419
0.113419
)
;
    }
}


// ************************************************************************* //
