/*--------------------------------*- C++ -*----------------------------------*\
| =========                 |                                                 |
| \\      /  F ield         | OpenFOAM: The Open Source CFD Toolbox           |
|  \\    /   O peration     | Version:  2306                                  |
|   \\  /    A nd           | Website:  www.openfoam.com                      |
|    \\/     M anipulation  |                                                 |
\*---------------------------------------------------------------------------*/
FoamFile
{
    version     2.0;
    format      ascii;
    arch        "LSB;label=32;scalar=64";
    class       volVectorField;
    location    "125";
    object      U;
}
// * * * * * * * * * * * * * * * * * * * * * * * * * * * * * * * * * * * * * //

dimensions      [0 1 -1 0 0 0 0];

internalField   nonuniform List<vector> 
1340
(
(25.9621 2.90137 7.70661e-17)
(25.833 3.31139 1.4645e-17)
(25.9542 2.90228 -4.18477e-17)
(25.8928 3.05835 -3.38977e-16)
(25.8356 3.31105 2.20344e-19)
(25.9475 2.90257 -3.57276e-19)
(25.8771 3.18831 1.30343e-16)
(25.888 3.05541 -3.44567e-18)
(25.8369 3.31074 -2.06954e-17)
(25.9417 2.90241 1.94982e-16)
(25.9044 3.12807 4.43218e-16)
(25.8973 3.09569 2.45301e-16)
(25.8745 3.18697 -6.00992e-17)
(25.8829 3.05267 1.20555e-16)
(25.8378 3.31032 9.19449e-17)
(25.9358 2.90203 -1.95432e-16)
(25.9252 3.08648 -7.72678e-17)
(25.9141 3.08779 2.03267e-17)
(25.8988 3.12562 -6.83553e-18)
(25.8917 3.09245 -2.9763e-18)
(25.8716 3.18556 -4.31266e-17)
(25.8777 3.05017 7.9901e-18)
(25.8383 3.30973 7.3832e-20)
(25.9298 2.90149 -3.90828e-19)
(25.9494 3.03099 2.13797e-16)
(25.9387 3.04897 2.61094e-16)
(25.9284 3.06125 3.09111e-16)
(25.9167 3.08351 1.18638e-16)
(25.9066 3.08452 -1.25565e-17)
(25.8928 3.12331 -1.89704e-16)
(25.8858 3.08947 -4.1558e-17)
(25.8685 3.1841 9.68547e-17)
(25.8723 3.04791 -1.14948e-16)
(25.8383 3.30901 -5.84344e-19)
(25.9237 2.90077 -4.00001e-19)
(25.9623 2.97616 5.81579e-17)
(25.9537 2.99594 -2.63564e-16)
(25.9454 3.01262 -2.97491e-17)
(25.9366 3.02819 -1.66024e-16)
(25.9273 3.04621 -3.98983e-18)
(25.9182 3.05831 -6.96021e-18)
(25.9078 3.08089 -9.70479e-17)
(25.8987 3.08161 1.17666e-17)
(25.8865 3.12116 -7.89512e-19)
(25.8797 3.08679 -2.00252e-18)
(25.8649 3.18262 -2.45199e-18)
(25.8668 3.04589 4.89921e-18)
(25.8378 3.30818 -9.0737e-17)
(25.9177 2.89989 -1.04564e-16)
(25.9654 2.87325 1.62709e-16)
(25.9621 2.90061 -1.26254e-16)
(25.9575 2.92666 -6.01291e-17)
(25.9516 2.95161 2.01086e-17)
(25.945 2.97497 -5.3965e-20)
(25.9379 2.99435 7.81585e-18)
(25.931 3.01079 8.45322e-19)
(25.9235 3.02609 1.77525e-16)
(25.9155 3.04404 7.60876e-17)
(25.9076 3.0559 -1.03817e-16)
(25.8986 3.07867 9.49977e-17)
(25.8904 3.0791 -4.06436e-19)
(25.8799 3.11921 1.666e-16)
(25.8732 3.08443 3.33334e-17)
(25.8609 3.18116 -5.40823e-17)
(25.8611 3.04412 1.13443e-16)
(25.8367 3.30726 7.75189e-17)
(25.9117 2.89893 1.37167e-16)
(25.9195 2.73499 1.4626e-16)
(25.9274 2.76447 2.41097e-17)
(25.9334 2.79355 2.32436e-17)
(25.9374 2.82207 2.85254e-17)
(25.9396 2.84993 7.14733e-18)
(25.9401 2.87695 -1.07572e-16)
(25.9388 2.90309 -1.11096e-16)
(25.9362 2.92811 2.24346e-18)
(25.9322 2.95218 -4.88247e-17)
(25.9274 2.97483 -2.91495e-17)
(25.922 2.9937 7.87533e-18)
(25.9163 3.00979 8.55576e-19)
(25.9102 3.02474 -6.21808e-18)
(25.9034 3.04251 -8.4098e-17)
(25.8967 3.05406 8.89066e-17)
(25.889 3.0769 -8.72894e-17)
(25.8819 3.07703 -4.22195e-19)
(25.8729 3.11751 -1.67869e-16)
(25.8665 3.08243 -3.75865e-17)
(25.8566 3.17973 4.83938e-17)
(25.8553 3.04263 1.40281e-18)
(25.8352 3.30626 -1.35209e-16)
(25.9057 2.89793 -1.43546e-18)
(25.7653 2.56306 1.71955e-17)
(25.7877 2.58831 5.10182e-17)
(25.8085 2.61421 -2.52395e-17)
(25.8275 2.64066 5.03801e-17)
(25.8448 2.66753 1.78469e-17)
(25.8602 2.69472 -6.77765e-17)
(25.8737 2.72208 -7.40497e-18)
(25.8853 2.74949 -7.66245e-18)
(25.8949 2.77679 2.20951e-17)
(25.9027 2.80385 1.49959e-17)
(25.9087 2.83053 -8.90533e-18)
(25.9128 2.85672 -3.3137e-19)
(25.9151 2.88223 -2.29816e-18)
(25.9158 2.90704 2.5785e-17)
(25.915 2.9309 2.20973e-18)
(25.9129 2.95397 4.34481e-17)
(25.9098 2.97577 2.89341e-17)
(25.9059 2.99402 7.88041e-18)
(25.9016 3.00968 8.6005e-19)
(25.8966 3.02417 -1.57342e-16)
(25.8912 3.04166 -4.29884e-17)
(25.8856 3.05284 -1.53751e-16)
(25.8793 3.07561 8.51258e-17)
(25.8731 3.07543 -4.3558e-19)
(25.8656 3.11609 1.07192e-16)
(25.8596 3.08082 -9.62064e-17)
(25.852 3.17838 -1.22934e-16)
(25.8493 3.04144 1.465e-18)
(25.8333 3.30521 2.805e-18)
(25.8997 2.89695 -3.29087e-17)
(25.3582 2.38108 1.38957e-18)
(25.3939 2.39509 -3.33792e-19)
(25.4287 2.40968 -3.74031e-19)
(25.4627 2.42494 -6.65813e-18)
(25.496 2.4409 -4.71239e-18)
(25.5283 2.45761 -1.16036e-17)
(25.5598 2.47508 -4.1794e-18)
(25.5903 2.49333 -9.36054e-18)
(25.6197 2.51238 6.77833e-18)
(25.648 2.53222 4.46022e-17)
(25.6752 2.55284 -1.43548e-17)
(25.701 2.57423 1.49921e-17)
(25.7255 2.59634 -4.82561e-18)
(25.7485 2.61912 -4.00249e-18)
(25.7701 2.64251 1.88622e-18)
(25.79 2.66644 -3.59476e-18)
(25.8083 2.69083 -1.21632e-18)
(25.8248 2.71557 4.41319e-18)
(25.8396 2.74057 3.14476e-17)
(25.8527 2.76571 -7.24184e-17)
(25.8639 2.79085 3.69263e-18)
(25.8733 2.81588 -1.72175e-17)
(25.8809 2.84067 -8.48271e-18)
(25.8867 2.86512 5.25679e-19)
(25.8908 2.88906 7.55732e-17)
(25.8933 2.91244 8.38834e-17)
(25.8942 2.93503 -5.2842e-17)
(25.8938 2.95698 4.08079e-17)
(25.8923 2.97782 -2.46236e-17)
(25.8898 2.99535 7.83338e-18)
(25.8867 3.01048 8.58984e-19)
(25.883 3.02444 5.6819e-17)
(25.8787 3.04153 9.96549e-17)
(25.8743 3.05227 1.38027e-16)
(25.8693 3.07483 -3.55617e-17)
(25.864 3.07434 -1.91752e-17)
(25.8581 3.11497 -8.84743e-17)
(25.8524 3.07961 -5.6289e-17)
(25.847 3.17713 2.43607e-18)
(25.8432 3.04057 1.5236e-18)
(25.831 3.30412 3.22343e-18)
(25.8937 2.89607 2.98709e-17)
(26.4861 2.3423 -9.29452e-19)
(26.501 2.34226 2.36295e-19)
(26.516 2.34197 6.73859e-19)
(26.5302 2.34125 -5.84134e-19)
(26.5345 2.33934 -6.2601e-19)
(26.512 2.33516 1.50703e-18)
(26.4421 2.32708 8.22287e-19)
(26.3056 2.31315 -7.29765e-19)
(26.0894 2.29181 1.71569e-19)
(25.7882 2.26205 1.0817e-18)
(25.4033 2.2233 1.67238e-19)
(24.9422 2.17549 4.76727e-19)
(24.4184 2.11927 -5.97277e-19)
(23.8529 2.05624 -1.98006e-18)
(23.274 1.98917 6.22076e-19)
(22.718 1.92212 4.02415e-18)
(22.2282 1.86045 5.60402e-19)
(21.851 1.81061 -8.16073e-19)
(21.6312 1.77953 1.61965e-19)
(21.6036 1.77363 1.74618e-18)
(21.7845 1.79734 -9.7878e-19)
(22.163 1.8516 3.57435e-18)
(22.6994 1.93288 -5.64107e-18)
(23.3268 2.0327 6.45634e-18)
(23.9573 2.13788 4.34297e-18)
(24.4947 2.23226 8.78085e-19)
(24.8598 2.30082 1.4483e-18)
(25.0273 2.33642 1.14605e-17)
(25.0484 2.34524 -7.1391e-19)
(25.0212 2.3435 3.38929e-18)
(25.0198 2.34519 -7.15491e-18)
(25.0587 2.35444 -9.5872e-18)
(25.1147 2.36819 8.21272e-19)
(25.1658 2.38221 -3.40925e-18)
(25.2067 2.39479 6.30746e-18)
(25.2429 2.40659 -1.65159e-18)
(25.2792 2.41872 -3.70837e-18)
(25.3161 2.4316 -2.56085e-18)
(25.3527 2.4451 1.62837e-18)
(25.3882 2.45905 -2.54125e-19)
(25.4227 2.47345 2.11036e-18)
(25.4562 2.48839 1.12608e-18)
(25.4889 2.50389 8.11784e-19)
(25.5206 2.52 6.52225e-19)
(25.5513 2.53673 1.45553e-18)
(25.581 2.55411 6.19113e-18)
(25.6096 2.57213 -4.967e-18)
(25.6371 2.59081 -3.02933e-17)
(25.6633 2.61012 -1.44004e-18)
(25.6883 2.63008 -1.33129e-17)
(25.7119 2.65062 -1.01454e-18)
(25.7341 2.67172 -1.72272e-17)
(25.7548 2.69334 -3.25815e-18)
(25.774 2.7154 -1.10876e-18)
(25.7916 2.73783 4.04611e-18)
(25.8075 2.76056 -3.0349e-17)
(25.8218 2.78349 6.36678e-17)
(25.8343 2.80651 -1.88455e-17)
(25.8451 2.82952 -1.05489e-18)
(25.8542 2.85241 -8.02444e-18)
(25.8616 2.87508 3.91404e-17)
(25.8672 2.89736 -1.03427e-17)
(25.8713 2.91924 -1.33031e-17)
(25.8738 2.94047 7.34098e-18)
(25.8749 2.9612 -6.41241e-18)
(25.875 2.98098 2.44152e-17)
(25.8739 2.99769 5.70491e-17)
(25.8719 3.0122 3.27549e-17)
(25.8694 3.02555 -1.52966e-17)
(25.8663 3.04215 -8.16064e-17)
(25.863 3.05238 -7.1342e-17)
(25.8591 3.0746 1.27927e-18)
(25.8548 3.0738 8.02448e-17)
(25.8503 3.11419 -2.15425e-18)
(25.8451 3.07885 6.08467e-17)
(25.8418 3.176 -2.90627e-17)
(25.837 3.04005 1.57984e-18)
(25.8283 3.30302 5.63671e-17)
(25.8877 2.89534 -3.07268e-17)
(26.5224 2.4143 3.37826e-20)
(26.5315 2.41491 1.33113e-18)
(26.54 2.41537 5.72724e-19)
(26.5506 2.41599 -3.9522e-19)
(26.5636 2.41636 -4.10357e-19)
(26.5749 2.41627 -3.79733e-20)
(26.5737 2.41524 -3.37368e-20)
(26.5424 2.41175 9.6097e-19)
(26.4597 2.40364 -6.32092e-19)
(26.3062 2.38888 1.35319e-18)
(26.0693 2.36595 -3.93247e-19)
(25.7444 2.3338 -1.80515e-20)
(25.3345 2.29189 1.19978e-18)
(24.849 2.24029 7.29391e-20)
(24.3041 2.17998 -1.00429e-18)
(23.7238 2.11307 -1.72162e-19)
(23.1403 2.04297 -1.10047e-18)
(22.5944 1.9745 1.31121e-18)
(22.133 1.91383 8.78164e-19)
(21.8049 1.86814 6.36411e-19)
(21.6541 1.8447 2.24646e-18)
(21.71 1.84963 -4.50643e-18)
(21.9777 1.88618 4.5295e-18)
(22.4326 1.95327 -5.40156e-18)
(23.0199 2.04482 -1.13078e-20)
(23.6595 2.14966 -9.92486e-22)
(24.2549 2.25228 -2.43117e-18)
(24.7127 2.3359 -4.27868e-18)
(24.9755 2.38833 5.93115e-19)
(25.0572 2.40907 -1.1186e-18)
(25.0419 2.41083 3.09704e-19)
(25.0245 2.41047 5.42446e-18)
(25.0473 2.41691 3.3608e-20)
(25.0992 2.4296 6.62159e-18)
(25.1539 2.44408 -5.32589e-18)
(25.1991 2.4574 1.20665e-18)
(25.2371 2.46951 -4.90532e-19)
(25.2735 2.48156 4.43088e-18)
(25.3104 2.49423 -3.98807e-19)
(25.3471 2.50749 8.44342e-19)
(25.3827 2.52113 2.29348e-18)
(25.4171 2.53512 1.01986e-18)
(25.4504 2.54951 3.33111e-19)
(25.4827 2.56436 5.8374e-19)
(25.514 2.5797 9.58417e-19)
(25.5442 2.59555 -5.91523e-18)
(25.5733 2.61193 -4.41855e-18)
(25.6013 2.62884 4.59975e-18)
(25.628 2.64628 -1.43077e-17)
(25.6535 2.66426 5.05479e-18)
(25.6777 2.68275 -3.75857e-18)
(25.7006 2.70174 2.02807e-17)
(25.722 2.7212 -2.94162e-18)
(25.742 2.74108 -1.00559e-18)
(25.7605 2.76132 -1.65099e-17)
(25.7774 2.78188 -2.4938e-18)
(25.7927 2.80268 -1.15413e-17)
(25.8064 2.82362 9.45955e-18)
(25.8184 2.84463 2.62409e-17)
(25.8288 2.86561 -9.16728e-17)
(25.8375 2.88647 -4.03407e-17)
(25.8446 2.90707 -7.0837e-17)
(25.85 2.92738 -7.0892e-17)
(25.854 2.94719 6.32692e-17)
(25.8566 2.96662 -8.41004e-17)
(25.858 2.98524 2.01482e-17)
(25.8581 3.00105 3.23922e-18)
(25.8573 3.01486 -1.77511e-17)
(25.8558 3.02753 1.48352e-17)
(25.8538 3.04353 -5.87355e-17)
(25.8515 3.0532 -4.45344e-17)
(25.8489 3.07494 1.28855e-18)
(25.8455 3.07381 -5.44392e-17)
(25.8424 3.11377 -2.19618e-18)
(25.8376 3.07855 1.61684e-16)
(25.8362 3.17502 3.41755e-17)
(25.8307 3.03991 1.06459e-16)
(25.8253 3.30191 -5.17312e-17)
(25.8817 2.89484 2.75028e-17)
(26.5365 2.48532 2.90525e-20)
(26.5417 2.48658 -5.25692e-20)
(26.5456 2.48755 -4.0084e-19)
(26.5499 2.48882 6.96096e-19)
(26.5561 2.49 1.7521e-19)
(26.5654 2.49116 -5.9721e-19)
(26.5769 2.49261 3.37628e-19)
(26.5855 2.49405 -1.17309e-21)
(26.5795 2.49427 1.507e-20)
(26.5403 2.49143 -9.57981e-20)
(26.446 2.48336 2.39706e-20)
(26.2766 2.4679 7.02707e-19)
(26.0196 2.44331 -1.88247e-20)
(25.6716 2.40848 7.34403e-20)
(25.2372 2.363 8.19904e-19)
(24.7283 2.30728 -1.07582e-19)
(24.1646 2.24275 5.44333e-19)
(23.5738 2.17216 9.09562e-19)
(22.9932 2.09973 -2.08324e-20)
(22.4682 2.03118 -6.72626e-19)
(22.0494 1.97357 -8.29681e-19)
(21.7866 1.93468 3.87679e-18)
(21.7205 1.92183 -4.17243e-18)
(21.8714 1.94026 4.01201e-20)
(22.2305 1.99129 -1.2523e-18)
(22.7564 2.07122 -2.64541e-21)
(23.3789 2.17097 -5.70198e-19)
(24.0051 2.27642 8.29995e-21)
(24.5349 2.37038 -2.41703e-18)
(24.8879 2.43737 1.64616e-21)
(25.0428 2.47083 -1.25616e-19)
(25.0581 2.47843 -9.9251e-20)
(25.0351 2.47728 -1.14257e-18)
(25.0422 2.48067 -9.43376e-18)
(25.0865 2.49143 6.025e-18)
(25.1428 2.50576 -1.47026e-18)
(25.192 2.51963 -4.33775e-19)
(25.2322 2.53197 -7.8272e-19)
(25.2691 2.54371 -2.00618e-18)
(25.306 2.55584 2.76618e-19)
(25.3429 2.56854 1.97359e-18)
(25.3787 2.58163 2.47625e-18)
(25.4132 2.59499 1.27985e-18)
(25.4463 2.60863 4.60244e-19)
(25.4784 2.62264 9.99593e-19)
(25.5093 2.63704 -8.71769e-19)
(25.5391 2.65187 -3.89144e-18)
(25.5677 2.66712 4.05727e-18)
(25.595 2.68282 1.17364e-17)
(25.6211 2.69896 -1.69803e-17)
(25.646 2.71554 -4.84831e-18)
(25.6694 2.73255 1.36397e-18)
(25.6916 2.74997 -2.63497e-18)
(25.7123 2.76778 -9.0489e-19)
(25.7315 2.78595 2.33654e-17)
(25.7493 2.80442 3.21476e-18)
(25.7655 2.82315 -6.80928e-18)
(25.7802 2.84207 -2.50027e-17)
(25.7933 2.86111 -1.38665e-17)
(25.8048 2.88018 1.07083e-16)
(25.8147 2.89923 1.86354e-17)
(25.823 2.91811 -2.41158e-17)
(25.8297 2.93681 1.18092e-16)
(25.8349 2.95513 -3.85394e-17)
(25.8388 2.97319 2.20723e-17)
(25.8415 2.99057 -2.35528e-17)
(25.8428 3.00542 6.77365e-17)
(25.843 3.01846 -2.41286e-17)
(25.8425 3.03038 -1.16626e-17)
(25.8415 3.04569 -9.31029e-18)
(25.8402 3.05475 4.47502e-17)
(25.8386 3.07588 1.28835e-18)
(25.8361 3.07442 4.499e-17)
(25.8344 3.11375 -2.22153e-18)
(25.8299 3.07874 -2.04469e-16)
(25.8305 3.17422 2.69979e-18)
(25.8242 3.04021 -1.02854e-16)
(25.822 3.30082 6.58424e-17)
(25.8754 2.89463 -1.6971e-18)
(26.5305 2.55345 2.36994e-20)
(26.5314 2.55534 -4.26978e-20)
(26.5318 2.5568 1.07278e-18)
(26.5322 2.55867 -8.22402e-19)
(26.533 2.56046 3.30401e-20)
(26.5352 2.56217 5.08398e-19)
(26.5401 2.56424 -1.3562e-18)
(26.5484 2.56691 -2.47001e-21)
(26.5587 2.56989 1.21722e-20)
(26.5652 2.57252 -7.90852e-20)
(26.5552 2.57363 2.02979e-20)
(26.5093 2.57134 -8.42791e-19)
(26.4042 2.56323 6.12766e-20)
(26.2192 2.54679 1.01121e-18)
(25.9419 2.52012 1.59036e-18)
(25.5697 2.48211 -9.48404e-20)
(25.1097 2.43253 5.75283e-19)
(24.5772 2.37215 -1.19276e-18)
(23.996 2.30301 5.42157e-19)
(23.3995 2.22875 -3.05712e-20)
(22.8306 2.15462 -1.23656e-18)
(22.3398 2.08743 2.45635e-19)
(21.9809 2.0351 9.00393e-20)
(21.8029 2.00584 4.57905e-18)
(21.8395 2.00656 2.39934e-18)
(22.0976 2.04093 8.90629e-19)
(22.5502 2.10766 5.43849e-19)
(23.1373 2.19981 -2.00969e-20)
(23.7722 2.30486 1.71578e-18)
(24.3526 2.40593 9.63672e-19)
(24.7831 2.4854 -2.00722e-20)
(25.0128 2.5318 -5.32295e-18)
(25.0703 2.54704 1.14769e-18)
(25.0504 2.5462 9.86083e-18)
(25.0429 2.54586 2.18331e-18)
(25.0766 2.55308 1.51118e-18)
(25.1328 2.56601 -3.34027e-19)
(25.1867 2.5801 1.81016e-18)
(25.2303 2.59286 -1.88203e-18)
(25.2679 2.60445 2.2699e-19)
(25.3045 2.61589 1.64123e-18)
(25.3412 2.62774 -8.0081e-19)
(25.3771 2.64 2.63271e-18)
(25.4117 2.65253 4.8688e-19)
(25.4448 2.6653 8.23635e-19)
(25.4766 2.67835 -5.86464e-19)
(25.5071 2.69171 -3.35021e-18)
(25.5364 2.70541 4.00808e-18)
(25.5645 2.71946 6.67631e-19)
(25.5912 2.73388 7.09426e-18)
(25.6167 2.74866 -4.27189e-18)
(25.6408 2.76381 4.90329e-18)
(25.6635 2.77933 -5.74867e-18)
(25.6849 2.79519 -8.04705e-19)
(25.7049 2.81138 3.2604e-17)
(25.7234 2.82786 -1.44151e-17)
(25.7404 2.84461 -6.89618e-19)
(25.7559 2.86156 3.69401e-17)
(25.7699 2.87867 -1.95257e-17)
(25.7824 2.89587 -2.1903e-17)
(25.7933 2.91311 -6.9987e-17)
(25.8026 2.93027 1.0885e-18)
(25.8104 2.94734 -7.92323e-18)
(25.8168 2.96414 1.31037e-17)
(25.8218 2.98078 8.97122e-18)
(25.8256 2.99686 1.94427e-17)
(25.8279 3.01069 -6.11434e-17)
(25.829 3.02292 -3.86063e-18)
(25.8294 3.03404 -1.04995e-17)
(25.8294 3.04857 5.76329e-17)
(25.8289 3.05699 -9.30306e-18)
(25.8284 3.07738 1.27833e-18)
(25.8267 3.07561 -4.67073e-18)
(25.8263 3.11409 1.80635e-17)
(25.8222 3.07945 1.2732e-16)
(25.8247 3.17356 5.96271e-17)
(25.8176 3.04098 1.78669e-18)
(25.8187 3.29969 3.46752e-17)
(25.8689 2.89484 -5.26173e-17)
(26.506 2.61896 1.91814e-20)
(26.5023 2.62118 -3.4504e-20)
(26.4989 2.62292 -2.07875e-20)
(26.4959 2.62521 9.72588e-19)
(26.4931 2.62744 2.68185e-20)
(26.4909 2.6295 -4.65541e-19)
(26.4897 2.63175 1.20343e-18)
(26.4906 2.63449 -2.01989e-21)
(26.4946 2.63771 9.98996e-21)
(26.5024 2.64131 -6.55766e-20)
(26.512 2.64508 1.71702e-20)
(26.5171 2.64845 7.63619e-19)
(26.5042 2.65018 -9.98745e-20)
(26.4529 2.64824 -7.68566e-19)
(26.3388 2.64005 -1.57084e-18)
(26.1404 2.62305 -9.44107e-20)
(25.8449 2.59531 -6.08339e-19)
(25.4509 2.55579 1.22579e-18)
(24.9675 2.50439 -6.11606e-19)
(24.4141 2.44216 -3.10017e-20)
(23.8199 2.37165 -6.70589e-19)
(23.2243 2.2972 -1.05631e-18)
(22.6766 2.22491 2.03049e-18)
(22.2322 2.16233 -3.48748e-18)
(21.9467 2.11786 -3.21212e-18)
(21.8658 2.09956 -7.21467e-19)
(22.0128 2.11322 -4.46441e-19)
(22.3773 2.1604 -1.74587e-20)
(22.9126 2.23705 -3.04513e-18)
(23.5392 2.33327 -1.15321e-18)
(24.1555 2.43396 2.34657e-18)
(24.6562 2.52138 9.07265e-18)
(24.9664 2.58096 6.18013e-22)
(25.0822 2.60879 -7.33092e-18)
(25.0801 2.61469 -1.13844e-17)
(25.0601 2.61451 -1.65717e-18)
(25.076 2.61843 1.80403e-18)
(25.1245 2.62795 -3.16617e-18)
(25.1809 2.64025 3.66593e-18)
(25.2296 2.65268 -1.07207e-18)
(25.27 2.66428 1.32823e-18)
(25.3069 2.67532 -4.50304e-18)
(25.343 2.68633 -1.89236e-18)
(25.3786 2.69755 3.46757e-18)
(25.4131 2.70903 -1.42099e-18)
(25.446 2.72075 -5.2044e-19)
(25.4775 2.73268 -1.86151e-18)
(25.5077 2.74487 2.72109e-18)
(25.5365 2.7573 -2.47495e-18)
(25.5639 2.77003 -1.19538e-18)
(25.59 2.78306 7.77236e-19)
(25.6147 2.79639 -2.62279e-18)
(25.6381 2.81004 -6.01161e-18)
(25.6601 2.82399 -7.04947e-19)
(25.6806 2.83824 -1.54075e-18)
(25.6998 2.85277 3.2305e-18)
(25.7175 2.86756 -5.10965e-18)
(25.7337 2.88256 -2.9863e-17)
(25.7485 2.89775 -2.43114e-18)
(25.7617 2.91307 1.07576e-18)
(25.7735 2.92847 6.55092e-17)
(25.7837 2.94388 1.00538e-18)
(25.7924 2.95927 -3.68071e-18)
(25.7997 2.9745 5.27044e-17)
(25.8057 2.98965 -2.47892e-17)
(25.8105 3.00437 -1.86053e-18)
(25.8137 3.01712 2.89314e-18)
(25.8156 3.02844 7.6492e-18)
(25.8169 3.03871 1.33813e-17)
(25.8177 3.05237 -3.13372e-18)
(25.818 3.06011 -2.89559e-18)
(25.8185 3.07961 -1.90976e-17)
(25.8173 3.07755 -1.1869e-16)
(25.8183 3.11492 -4.09927e-17)
(25.8142 3.08082 -3.46894e-18)
(25.819 3.17313 -3.01972e-17)
(25.8106 3.04234 1.90726e-18)
(25.8156 3.29864 -8.90509e-17)
(25.8617 2.89527 7.953e-19)
(26.4604 2.69528 2.73705e-19)
(26.4516 2.69715 -2.56004e-19)
(26.4442 2.69848 -2.41164e-19)
(26.4376 2.70068 -1.11804e-19)
(26.4315 2.70303 7.51171e-19)
(26.4259 2.70513 5.48288e-19)
(26.421 2.70727 -4.55334e-19)
(26.4169 2.70975 -2.68606e-19)
(26.4142 2.71263 1.14093e-18)
(26.4138 2.71589 -2.81052e-19)
(26.4164 2.71953 7.48773e-20)
(26.4226 2.72358 -6.82531e-19)
(26.4308 2.72791 1.42076e-19)
(26.4354 2.732 6.68984e-19)
(26.4251 2.73472 -4.37592e-19)
(26.3816 2.73419 -2.57783e-18)
(26.2816 2.7279 -7.67863e-19)
(26.102 2.71318 3.38671e-19)
(25.8264 2.68786 -5.93519e-19)
(25.4497 2.65072 -3.10396e-19)
(24.9796 2.6016 3.5231e-19)
(24.4362 2.54148 -7.5356e-19)
(23.8511 2.47295 -1.43168e-18)
(23.2672 2.40053 -9.0098e-19)
(22.7368 2.3306 1.04646e-18)
(22.3181 2.27106 -1.28885e-18)
(22.0675 2.23045 9.67176e-19)
(22.0283 2.21652 -1.36896e-18)
(22.2177 2.23426 2.59556e-18)
(22.6167 2.28399 -3.52464e-19)
(23.1674 2.3602 3.91604e-18)
(23.781 2.45169 -5.04443e-18)
(24.3515 2.54286 1.7852e-18)
(24.783 2.61747 4.78292e-18)
(25.0261 2.66478 8.95556e-18)
(25.1059 2.68532 -4.05808e-18)
(25.1026 2.68981 -1.95676e-18)
(25.0958 2.69094 1.42033e-19)
(25.1195 2.69575 -9.78091e-19)
(25.1667 2.70491 -4.77241e-18)
(25.2189 2.71618 -8.54414e-18)
(25.2653 2.72744 4.73994e-18)
(25.3053 2.73793 -7.50691e-19)
(25.3419 2.74791 4.87982e-19)
(25.3772 2.75788 4.0128e-19)
(25.4114 2.76804 1.01607e-18)
(25.4444 2.7784 -2.07289e-19)
(25.4757 2.78893 2.29841e-18)
(25.5056 2.79962 -6.82109e-19)
(25.5339 2.8105 -1.64854e-18)
(25.5609 2.82159 -6.41485e-18)
(25.5864 2.83292 1.3161e-18)
(25.6105 2.84449 4.4991e-18)
(25.6331 2.85633 -6.94157e-18)
(25.6544 2.86843 -1.23597e-17)
(25.6743 2.88078 8.94649e-18)
(25.6927 2.89338 -5.60576e-18)
(25.7097 2.90621 5.02098e-18)
(25.7252 2.91924 -5.34819e-18)
(25.7393 2.93244 -5.19413e-17)
(25.752 2.94579 6.56907e-18)
(25.7631 2.95921 3.17609e-17)
(25.7729 2.9727 -1.28995e-17)
(25.7812 2.98613 -3.58246e-18)
(25.7881 2.9996 1.68477e-17)
(25.794 3.01275 -1.70235e-17)
(25.7982 3.02428 -2.83056e-18)
(25.801 3.03456 4.00249e-17)
(25.8031 3.04389 2.68888e-18)
(25.8049 3.05652 -1.00821e-17)
(25.806 3.06358 9.09984e-18)
(25.8076 3.08195 4.1852e-17)
(25.8072 3.07979 3.0865e-17)
(25.8095 3.11562 3.23982e-17)
(25.8057 3.08259 -6.49455e-17)
(25.8126 3.17234 -3.0993e-17)
(25.8035 3.04439 2.49796e-18)
(25.8118 3.29687 5.49404e-17)
(25.8551 2.89685 -1.20311e-17)
(26.3865 2.77812 1.00849e-19)
(26.3728 2.7802 1.81539e-20)
(26.3616 2.78157 1.42797e-19)
(26.3514 2.78386 -1.98235e-19)
(26.342 2.78636 -7.99557e-19)
(26.3332 2.7886 -6.14065e-19)
(26.3251 2.7908 -9.32368e-20)
(26.3178 2.79326 1.78345e-19)
(26.3114 2.79605 -1.32335e-18)
(26.3061 2.7991 1.90568e-19)
(26.3022 2.8024 7.41488e-20)
(26.3005 2.80598 -2.21618e-19)
(26.3019 2.80995 -7.57889e-19)
(26.3073 2.81435 -1.55302e-19)
(26.3166 2.81905 1.5562e-19)
(26.3267 2.82363 9.58077e-19)
(26.3297 2.82716 1.31252e-19)
(26.3105 2.82804 -1.40604e-18)
(26.2472 2.82398 1.04302e-18)
(26.1142 2.81233 2.75653e-19)
(25.8888 2.79061 4.14334e-19)
(25.5584 2.75707 1.3378e-18)
(25.1249 2.71105 2.94129e-18)
(24.6056 2.65337 2.23851e-18)
(24.0323 2.58659 -7.34011e-20)
(23.45 2.5155 -7.3579e-19)
(22.9142 2.44684 4.42089e-19)
(22.4869 2.38884 4.46197e-19)
(22.228 2.35016 2.44881e-18)
(22.1831 2.33837 3.9135e-18)
(22.3697 2.35796 -6.51392e-18)
(22.7663 2.40839 7.67659e-19)
(23.3103 2.48309 1.35144e-18)
(23.907 2.56982 -3.08871e-18)
(24.4483 2.65282 -5.71503e-18)
(24.8444 2.7175 5.5628e-18)
(25.0592 2.7561 1.46208e-19)
(25.1279 2.77156 1.40181e-19)
(25.1288 2.77453 -4.42802e-19)
(25.1303 2.77554 5.10648e-18)
(25.1586 2.77991 -7.57677e-19)
(25.2059 2.78785 -3.77289e-18)
(25.2561 2.79734 -1.35885e-18)
(25.3006 2.80662 -5.42703e-18)
(25.3394 2.81525 -5.21699e-18)
(25.3751 2.82353 -1.82692e-20)
(25.4092 2.83183 -8.04323e-19)
(25.4421 2.84029 -1.43272e-18)
(25.4734 2.84888 -1.53354e-18)
(25.503 2.8576 1.7954e-18)
(25.531 2.86644 2.42835e-18)
(25.5574 2.87546 6.88325e-19)
(25.5824 2.88468 -1.79178e-18)
(25.6059 2.89411 5.12973e-18)
(25.6279 2.90377 -5.31895e-19)
(25.6484 2.91367 4.62994e-18)
(25.6676 2.9238 -2.23999e-17)
(25.6853 2.93416 -1.06359e-17)
(25.7016 2.94475 7.80558e-18)
(25.7165 2.95555 8.61605e-18)
(25.73 2.96655 -1.85298e-17)
(25.7421 2.97769 -2.60616e-19)
(25.7527 2.98899 -3.41577e-17)
(25.762 3.00035 -5.3577e-18)
(25.77 3.01185 2.06183e-17)
(25.7768 3.02317 1.15031e-17)
(25.782 3.03326 2.74655e-17)
(25.7857 3.04232 -2.04646e-17)
(25.7887 3.05053 2.78409e-17)
(25.7914 3.06193 -8.37573e-18)
(25.7934 3.06818 -4.90634e-17)
(25.796 3.08521 -2.57534e-17)
(25.7965 3.08288 5.08983e-17)
(25.8 3.11694 -4.10207e-17)
(25.797 3.08502 5.69174e-17)
(25.8052 3.17195 9.61157e-17)
(25.7968 3.04701 6.22518e-17)
(25.8067 3.29546 -4.36321e-17)
(25.8501 2.899 1.01667e-16)
(26.3059 2.85194 -2.28998e-19)
(26.2889 2.8539 -5.95186e-20)
(26.2752 2.85494 1.03077e-19)
(26.2628 2.85699 2.47105e-19)
(26.2511 2.85937 4.72958e-19)
(26.2402 2.86155 2.97391e-19)
(26.23 2.86365 3.45312e-19)
(26.2206 2.86593 1.40339e-19)
(26.2121 2.86847 4.96467e-19)
(26.2046 2.87122 -9.07784e-19)
(26.198 2.87412 4.00851e-20)
(26.1926 2.87715 -1.84825e-19)
(26.1886 2.88036 7.47065e-19)
(26.1868 2.88386 3.10511e-19)
(26.1883 2.88773 -3.03561e-19)
(26.1942 2.89206 5.04903e-19)
(26.2053 2.89683 1.48053e-18)
(26.2204 2.90174 -3.78526e-19)
(26.2337 2.90612 -3.05277e-19)
(26.2327 2.90864 -1.28151e-18)
(26.1965 2.90719 -7.6711e-20)
(26.0976 2.89892 -7.00276e-19)
(25.9082 2.8808 -5.81139e-19)
(25.6091 2.85043 -7.23413e-19)
(25.1976 2.80672 -1.61438e-18)
(24.69 2.75044 2.70127e-18)
(24.1204 2.6844 -9.34648e-20)
(23.5381 2.61377 -8.88001e-20)
(23.0043 2.54579 -4.37147e-18)
(22.5857 2.48917 -3.11104e-18)
(22.3456 2.4529 6.28586e-19)
(22.3294 2.44454 8.68763e-19)
(22.5496 2.46798 -4.39928e-18)
(22.9747 2.52145 -1.87345e-18)
(23.5303 2.59679 5.91606e-19)
(24.1126 2.68043 5.68751e-19)
(24.6127 2.75636 2.67678e-18)
(24.9532 2.81147 1.10615e-18)
(25.119 2.84092 3.17884e-19)
(25.1614 2.84998 -2.00982e-18)
(25.1601 2.84991 -7.28521e-19)
(25.171 2.85016 4.05911e-18)
(25.2072 2.8544 -1.90703e-18)
(25.2559 2.86163 -1.44575e-19)
(25.3032 2.86956 3.83951e-18)
(25.3443 2.8769 -4.3931e-18)
(25.3805 2.88362 -1.25481e-18)
(25.4144 2.89014 -9.84647e-20)
(25.4468 2.89671 -2.08699e-19)
(25.4776 2.90341 -5.08848e-18)
(25.5066 2.91019 -2.09071e-18)
(25.5339 2.9171 -6.19399e-20)
(25.5596 2.92414 -1.18918e-18)
(25.5837 2.93135 -6.08991e-20)
(25.6063 2.93875 -1.50566e-18)
(25.6274 2.94637 6.95257e-19)
(25.647 2.95421 1.09248e-17)
(25.6652 2.96227 1.98346e-17)
(25.682 2.97058 3.93621e-19)
(25.6974 2.97912 -5.38432e-18)
(25.7114 2.98789 6.46647e-19)
(25.724 2.99686 -3.31279e-17)
(25.7353 3.00607 2.18475e-17)
(25.7452 3.01541 -1.81755e-18)
(25.7539 3.02499 -1.57933e-17)
(25.7614 3.0345 -7.63571e-18)
(25.7673 3.04314 1.22138e-17)
(25.7717 3.05097 -7.31929e-18)
(25.7754 3.05805 -9.41949e-18)
(25.7788 3.06818 -7.19565e-19)
(25.7815 3.07358 -4.04649e-18)
(25.7848 3.08921 6.85402e-18)
(25.7861 3.08665 -1.362e-17)
(25.7905 3.11891 2.32861e-18)
(25.7885 3.088 3.53326e-18)
(25.7975 3.17214 -5.25397e-17)
(25.7903 3.05011 -1.03034e-16)
(25.8009 3.29474 3.51824e-17)
(25.8453 2.90191 -5.82787e-17)
(26.2081 2.92165 -4.14912e-20)
(26.1914 2.92375 -2.00215e-19)
(26.1774 2.92502 2.88558e-20)
(26.1646 2.92665 -8.33241e-20)
(26.1526 2.92845 2.8616e-20)
(26.1413 2.93022 -4.05301e-19)
(26.1308 2.93205 1.43736e-20)
(26.1212 2.93405 8.65985e-20)
(26.1125 2.93624 3.82969e-19)
(26.1047 2.93858 3.94334e-20)
(26.0979 2.94103 4.98788e-19)
(26.092 2.94357 -6.65987e-19)
(26.0874 2.94626 -2.33226e-19)
(26.0842 2.94919 2.53941e-19)
(26.0829 2.95245 -2.82593e-19)
(26.0848 2.95615 -6.17255e-19)
(26.0912 2.96036 1.0429e-18)
(26.1034 2.96512 -1.07075e-18)
(26.1215 2.97025 8.40334e-19)
(26.1415 2.97523 1.85039e-19)
(26.1528 2.97887 2.36732e-19)
(26.1351 2.97908 -9.53275e-19)
(26.0591 2.9728 2.99867e-19)
(25.8924 2.95659 2.24517e-18)
(25.6106 2.92759 -5.05509e-19)
(25.2078 2.88451 -1.649e-18)
(24.7015 2.82814 6.63254e-19)
(24.1301 2.7617 2.76691e-19)
(23.5498 2.69098 -1.31356e-18)
(23.0287 2.62403 2.00285e-18)
(22.6392 2.5703 -1.8298e-18)
(22.446 2.53921 2.45319e-18)
(22.4898 2.53798 1.99958e-18)
(22.7711 2.56922 -1.21943e-18)
(23.242 2.62895 -1.62705e-18)
(23.8123 2.70657 -1.06309e-18)
(24.3696 2.78672 -3.40826e-18)
(24.8103 2.85339 -1.48097e-18)
(25.0768 2.89588 -1.14143e-18)
(25.1827 2.91363 1.62809e-18)
(25.1984 2.91568 -2.77297e-18)
(25.1996 2.91368 1.22085e-18)
(25.223 2.9146 4.25481e-18)
(25.2662 2.91934 2.79045e-18)
(25.3138 2.92572 8.6958e-18)
(25.3564 2.93179 1.34047e-18)
(25.3932 2.93711 -7.64071e-19)
(25.4266 2.94202 -6.40978e-19)
(25.4581 2.94689 4.3171e-18)
(25.488 2.95184 -1.24227e-18)
(25.5161 2.95689 1.19803e-18)
(25.5424 2.96203 -4.47704e-20)
(25.5669 2.96728 -9.64132e-19)
(25.5899 2.97268 -7.44085e-20)
(25.6113 2.97824 -2.47098e-18)
(25.6311 2.98401 -3.27367e-18)
(25.6495 2.98998 -3.87779e-18)
(25.6665 2.99619 -3.24638e-18)
(25.6821 3.00264 -5.02226e-18)
(25.6963 3.00935 -6.18568e-18)
(25.7092 3.0163 1.46443e-17)
(25.7208 3.02352 -4.38346e-18)
(25.7311 3.03094 -2.99926e-18)
(25.7401 3.03869 1.80531e-18)
(25.748 3.04645 -7.17775e-19)
(25.7544 3.05367 -1.25559e-17)
(25.7593 3.06028 -7.55218e-18)
(25.7635 3.06624 -1.85853e-17)
(25.7674 3.07509 -2.21553e-17)
(25.7705 3.07963 1.8679e-17)
(25.7743 3.09385 4.72815e-17)
(25.7763 3.09103 -1.51205e-17)
(25.7812 3.12147 1.94886e-19)
(25.7801 3.09153 -4.83044e-17)
(25.7897 3.17289 3.52822e-19)
(25.7837 3.05374 2.30711e-17)
(25.7949 3.29462 3.01856e-18)
(25.8398 2.90582 -1.60563e-16)
(26.1299 2.98499 6.22288e-20)
(26.1134 2.98698 1.09449e-19)
(26.0994 2.98801 -1.21614e-19)
(26.0865 2.98924 -1.67981e-19)
(26.0743 2.99066 -1.11309e-19)
(26.0628 2.99211 1.03004e-19)
(26.0521 2.99356 7.17347e-20)
(26.0421 2.99507 -1.98291e-19)
(26.033 2.99672 -3.43978e-19)
(26.0247 2.9985 1.69759e-19)
(26.0172 3.00039 -1.63897e-19)
(26.0107 3.00236 4.43107e-19)
(26.0051 3.00443 -1.59264e-19)
(26.0004 3.00663 7.14074e-21)
(25.9968 3.00904 -1.31438e-19)
(25.9945 3.01171 1.46385e-19)
(25.9939 3.01467 -3.07601e-19)
(25.9961 3.01797 2.97705e-19)
(26.0027 3.02169 -1.75069e-19)
(26.0153 3.02594 -4.1454e-19)
(26.035 3.03073 1.7055e-19)
(26.0593 3.03567 7.36734e-20)
(26.0787 3.03966 3.50142e-19)
(26.0728 3.04056 -9.49207e-19)
(26.0097 3.03508 -1.85811e-19)
(25.8526 3.01942 1.76352e-18)
(25.5732 2.99033 1.00241e-18)
(25.165 2.94635 6.41596e-19)
(24.6492 2.8885 1.31413e-18)
(24.072 2.82076 6.74964e-21)
(23.4985 2.74998 2.27894e-18)
(23.0049 2.68535 -8.84489e-19)
(22.6684 2.63722 2.06187e-18)
(22.5517 2.61508 1.00421e-18)
(22.6841 2.62504 1.89852e-18)
(23.0465 2.66719 1.18148e-18)
(23.5686 2.73435 3.77305e-18)
(24.1434 2.81293 5.1863e-19)
(24.6537 2.88612 4.39245e-18)
(25.0102 2.93935 3.5336e-18)
(25.1879 2.9665 -1.15719e-18)
(25.2362 2.9728 8.11283e-19)
(25.2377 2.97015 -5.63884e-18)
(25.2502 2.96827 -1.65571e-19)
(25.2859 2.97035 -4.4512e-18)
(25.3318 2.97491 1.45758e-18)
(25.375 2.97971 2.86723e-18)
(25.4121 2.98379 4.62383e-18)
(25.4449 2.98734 -1.52336e-18)
(25.4752 2.99074 2.1966e-18)
(25.5038 2.99418 -1.8972e-18)
(25.5305 2.99768 -2.61022e-19)
(25.5554 3.00123 1.59472e-18)
(25.5786 3.00488 -1.04166e-19)
(25.6 3.00864 3.72509e-19)
(25.6199 3.01257 2.621e-19)
(25.6383 3.01668 -4.51527e-18)
(25.6552 3.02101 -3.15303e-20)
(25.6707 3.02557 -3.77132e-19)
(25.6849 3.0304 3.99121e-18)
(25.6978 3.03549 -1.00287e-17)
(25.7093 3.04088 7.99359e-18)
(25.7196 3.04652 -6.04923e-18)
(25.7287 3.05255 -1.56515e-17)
(25.7367 3.05866 -9.27391e-18)
(25.7433 3.06452 8.34185e-18)
(25.7484 3.06997 1.04087e-17)
(25.7529 3.07484 2.04236e-18)
(25.7571 3.08246 2.58749e-17)
(25.7605 3.08613 -8.19223e-19)
(25.7646 3.09897 -3.39333e-17)
(25.7669 3.09587 -1.71889e-17)
(25.7722 3.12452 -1.35452e-17)
(25.7718 3.09553 3.20959e-17)
(25.7819 3.17414 -1.2556e-18)
(25.7769 3.05791 6.57969e-17)
(25.7886 3.295 -4.75047e-19)
(25.8336 2.91088 1.54208e-16)
(26.0607 3.04067 -2.78583e-20)
(26.045 3.04195 -1.18739e-19)
(26.0319 3.0426 -1.1836e-22)
(26.0198 3.04356 9.56375e-20)
(26.0084 3.04471 -4.64098e-20)
(25.9977 3.04586 8.46008e-20)
(25.9875 3.04698 -1.59787e-19)
(25.978 3.04809 -1.27087e-19)
(25.9692 3.04926 3.01011e-19)
(25.9611 3.0505 -3.05731e-19)
(25.9537 3.05184 -7.23378e-20)
(25.947 3.05327 -5.30493e-20)
(25.9411 3.0548 4.2834e-19)
(25.936 3.05645 1.29652e-19)