# p  FACE_DATA 300
# x y z  p
0.29787915 -0.05 -0.060005454 21751.227
0.29366024 -0.05 -0.059998184 21747.368
0.28948669 -0.05 -0.059982824 21745.052
0.28535801 -0.05 -0.05995956 21743.649
0.28127374 -0.05 -0.05992843 21743.285
0.27723341 -0.05 -0.059889544 21743.284
0.27323659 -0.05 -0.059843056 21744.304
0.2692828 -0.05 -0.059789027 21746.356
0.26537161 -0.05 -0.059727601 21748.977
0.26150257 -0.05 -0.05965892 21752.522
0.25767524 -0.05 -0.059583046 21757.184
0.2538892 -0.05 -0.059500074 21762.865
0.25014401 -0.05 -0.059410118 21769.558
0.24643926 -0.05 -0.059313284 21777.275
0.24277452 -0.05 -0.059209673 21785.969
0.23914938 -0.05 -0.059099387 21795.594
0.23556343 -0.05 -0.058982537 21805.931
0.23201627 -0.05 -0.058859254 21817.158
0.2285075 -0.05 -0.058729541 21830.001
0.22503671 -0.05 -0.058593532 21843.01
0.22160352 -0.05 -0.058451379 21857.24
0.21820754 -0.05 -0.058303115 21872.306
0.21484838 -0.05 -0.058148846 21888.354
0.21152567 -0.05 -0.05798866 21905.312
0.20823903 -0.05 -0.057822651 21923.268
0.20498809 -0.05 -0.057650874 21942.309
0.20177248 -0.05 -0.057473468 21961.779
0.19859184 -0.05 -0.057290478 21982.767
0.1954458 -0.05 -0.057101994 22003.755
0.19233402 -0.05 -0.056908168 22025.841
0.18925614 -0.05 -0.056708999 22049.214
0.18621181 -0.05 -0.056504562 22073.756
0.18320071 -0.05 -0.056294919 22099.373
0.18022246 -0.05 -0.056080229 22125.094
0.17727675 -0.05 -0.055860526 22152.578
0.17436324 -0.05 -0.05563585 22180.116
0.1714816 -0.05 -0.055406376 22208.623
0.16863151 -0.05 -0.055172052 22238.985
0.16581265 -0.05 -0.054932944 22269.787
0.16302469 -0.05 -0.054689208 22301.367
0.16026732 -0.05 -0.054440898 22333.765
0.15754024 -0.05 -0.054188056 22367.261
0.15484313 -0.05 -0.053930725 22401.662
0.15217569 -0.05 -0.053668978 22436.9
0.14953762 -0.05 -0.053402888 22473.29
0.14692863 -0.05 -0.053132457 22511.204
0.14434842 -0.05 -0.052857799 22548.98
0.14179669 -0.05 -0.052579044 22587.837
0.13927317 -0.05 -0.05229612 22628.53
0.13677758 -0.05 -0.052009061 22670.082
0.13430961 -0.05 -0.051717985 22712.331
0.13186901 -0.05 -0.051422993 22754.899
0.1294555 -0.05 -0.051124081 22799.295
0.12706881 -0.05 -0.050821224 22844.858
0.12470868 -0.05 -0.050514504 22891.287
0.12237483 -0.05 -0.05020403 22938.003
0.120067 -0.05 -0.049889836 22986.263
0.11778495 -0.05 -0.049571874 23035.667
0.11552842 -0.05 -0.049250263 23085.393
0.11329715 -0.05 -0.048924992 23136.938
0.1110909 -0.05 -0.048596121 23188.54
0.10890943 -0.05 -0.048263656 23242.883
0.10675251 -0.05 -0.047927554 23297.693
0.10461987 -0.05 -0.047587958 23353.135
0.1025113 -0.05 -0.047244937 23409.069
0.10042655 -0.05 -0.046898432 23466.935
0.098365405 -0.05 -0.046548446 23525.159
0.096327639 -0.05 -0.046195043 23584.92
0.094313028 -0.05 -0.045838237 23645.793
0.092321357 -0.05 -0.045478019 23708.784
0.090352417 -0.05 -0.04511438 23772.457
0.088405979 -0.05 -0.044747421 23836.941
0.086481845 -0.05 -0.044377096 23903.353
0.084579815 -0.05 -0.044003384 23970.534
0.082699669 -0.05 -0.043626384 24038.866
0.080841229 -0.05 -0.043246005 24109.687
0.0790043 -0.05 -0.042862236 24180.889
0.077188665 -0.05 -0.0424752 24253.309
0.07539416 -0.05 -0.042084789 24328.149
0.073620599 -0.05 -0.041690997 24403.594
0.071867788 -0.05 -0.041293877 24480.486
0.070135557 -0.05 -0.040893385 24558.854
0.068423742 -0.05 -0.040489457 24639.529
0.066732169 -0.05 -0.040082112 24721.355
0.065060663 -0.05 -0.039671361 24805.469
0.063409062 -0.05 -0.039257174 24890.989
0.061777219 -0.05 -0.038839488 24978.541
0.060164984 -0.05 -0.038418265 25066.836
0.058572196 -0.05 -0.037993513 25157.516
0.056998721 -0.05 -0.037565159 25250.407
0.055444419 -0.05 -0.03713316 25345.348
0.053909142 -0.05 -0.036697516 25441.753
0.052392764 -0.05 -0.036258171 25540.733
0.050895177 -0.05 -0.035815009 25641.877
0.049416244 -0.05 -0.035368033 25744.742
0.047955856 -0.05 -0.034917167 25850.415
0.046513915 -0.05 -0.034462309 25958.154
0.045090302 -0.05 -0.034003445 26068.233
0.043684931 -0.05 -0.033540468 26181.898
0.042297731 -0.05 -0.03307324 26299.015
0.040928604 -0.05 -0.032601735 26418.957
0.039577476 -0.05 -0.032125845 26542.809
0.038244292 -0.05 -0.03164545 26670.217
0.036928981 -0.05 -0.031160474 26801.415
0.0356315 -0.05 -0.030670795 26936.297
0.03435181 -0.05 -0.030176299 27075.889
0.033089918 -0.05 -0.029676761 27220.746
0.031845783 -0.05 -0.029172106 27368.104
0.030619394 -0.05 -0.028662209 27520.283
0.029410776 -0.05 -0.028146878 27676.185
0.028219949 -0.05 -0.027625962 27837.033
0.027046957 -0.05 -0.027099267 28002.336
0.025891857 -0.05 -0.026566614 28173.072
0.02475474 -0.05 -0.026027768 28349.145
0.023635681 -0.05 -0.025482558 28530.892
0.022534817 -0.05 -0.024930718 28718.955
0.021452274 -0.05 -0.024372036 28912.029
0.020388213 -0.05 -0.023806274 29110.775
0.019342865 -0.05 -0.023233111 29315.129
0.018316468 -0.05 -0.022652259 29526.376
0.017309264 -0.05 -0.02206346 29745.782
0.016321577 -0.05 -0.021466368 29974.047
0.015353757 -0.05 -0.020860644 30209.82
0.014406156 -0.05 -0.020245997 30453.684
0.013479274 -0.05 -0.019622013 30705.831
0.012573638 -0.05 -0.018988322 30965.83
0.0116898 -0.05 -0.018344552 31233.486
0.010828378 -0.05 -0.017690314 31508.499
0.0099901248 -0.05 -0.017025149 31791.648
0.0091759198 -0.05 -0.016348644 32082.013
0.008386597 -0.05 -0.0156605 32378.496
0.0076231725 -0.05 -0.014960218 32682.773
0.0068867853 -0.05 -0.014247452 32991.166
0.0061787359 -0.05 -0.013521943 33302.316
0.0055003792 -0.05 -0.012783302 33612.697
0.0048530826 -0.05 -0.012031363 33919.062
0.0042385571 -0.05 -0.011266143 34217.828
0.0036585397 -0.05 -0.010487553 34503.713
0.0031148318 -0.05 -0.0096957287 34767.771
0.0026094399 -0.05 -0.0088912322 34998.754
0.0021442246 -0.05 -0.0080745628 35192.473
0.0017210465 -0.05 -0.0072465895 35351.19
0.0013418093 -0.05 -0.0064087151 35458.576
0.0010080919 -0.05 -0.0055623679 35502.26
0.00072127228 -0.05 -0.0047092571 35481.556
0.00048251081 -0.05 -0.0038515496 35390.645
0.00029236329 -0.05 -0.0029916286 35225.744
0.0001508317 -0.05 -0.0021320102 34994.6
5.7495879e-05 -0.05 -0.0012752716 34686.69
1.1394864e-05 -0.05 -0.00042397109 34296.686
0.99768066 -0.05 -0.00033611804 26474.653
0.99304169 -0.05 -0.0010063364 26360.863
0.98840215 -0.05 -0.0016726212 26239.145
0.98376207 -0.05 -0.0023350721 26135.809
0.97912144 -0.05 -0.0029936636 26037.551
0.97448026 -0.05 -0.00364841 25946.425
0.96983855 -0.05 -0.0042993733 25860.19
0.96519632 -0.05 -0.0049465845 25778.664
0.96055357 -0.05 -0.0055900577 25701.132
0.95591031 -0.05 -0.0062298653 25627.067
0.95126654 -0.05 -0.0068660327 25556.344
0.94662228 -0.05 -0.0074985225 25488.651
0.94197752 -0.05 -0.0081274235 25423.517
0.9373323 -0.05 -0.008752761 25360.994
0.93268659 -0.05 -0.0093745713 25300.568
0.92804042 -0.05 -0.0099928964 25242.397
0.92339379 -0.05 -0.010607714 25186.259
0.91874669 -0.05 -0.011219031 25132.058
0.91409915 -0.05 -0.011826962 25079.246
0.90945116 -0.05 -0.012431486 25028.403
0.90480273 -0.05 -0.013032571 24978.803
0.90015387 -0.05 -0.013630361 24930.528
0.89550457 -0.05 -0.014224739 24883.92
0.89085486 -0.05 -0.014815813 24837.946
0.88620473 -0.05 -0.01540363 24793.556
0.88155418 -0.05 -0.0159881 24750.091
0.87690323 -0.05 -0.016569356 24707.527
0.87225187 -0.05 -0.017147383 24666.02
0.86760011 -0.05 -0.017722168 24625.437
0.86294795 -0.05 -0.018293719 24585.79
0.85829541 -0.05 -0.018862095 24546.782
0.85364248 -0.05 -0.01942729 24508.754
0.84898916 -0.05 -0.01998931 24471.245
0.84433547 -0.05 -0.020548224 24434.544
0.8396814 -0.05 -0.021103928 24398.818
0.83502695 -0.05 -0.021656533 24363.209
0.83037214 -0.05 -0.022206072 24328.519
0.82571696 -0.05 -0.022752481 24294.286
0.82106143 -0.05 -0.023295768 24260.902
0.81640553 -0.05 -0.023835961 24227.732
0.81174927 -0.05 -0.024373126 24195.067
0.80709266 -0.05 -0.024907211 24162.823
0.80243571 -0.05 -0.025438235 24130.994
0.7977784 -0.05 -0.025966147 24099.875
0.79312074 -0.05 -0.026490982 24068.843
0.78846275 -0.05 -0.027012845 24038.018
0.78380442 -0.05 -0.027531686 24007.706
0.77914575 -0.05 -0.028047403 23977.997
0.77448674 -0.05 -0.028560079 23948.206
0.76982739 -0.05 -0.029069752 23918.975
0.76516771 -0.05 -0.02957633 23890.129
0.7605077 -0.05 -0.030079852 23861.461
0.75584737 -0.05 -0.030580367 23832.91
0.75118671 -0.05 -0.03107785 23804.719
0.74652573 -0.05 -0.031572241 23776.915
0.74186441 -0.05 -0.032063551 23749.347
0.73720278 -0.05 -0.032551782 23722.038
0.73254083 -0.05 -0.03303698 23694.674
0.72787854 -0.05 -0.033519069 23667.882
0.72321595 -0.05 -0.033998064 23640.807
0.71855304 -0.05 -0.034473962 23614.439
0.71388981 -0.05 -0.034946671 23588.119
0.70922626 -0.05 -0.035416302 23561.674
0.7045624 -0.05 -0.03588285 23535.336
0.69989823 -0.05 -0.036346252 23509.146
0.69523375 -0.05 -0.036806454 23483.332
0.69056894 -0.05 -0.037263403 23457.731
0.68590382 -0.05 -0.037717206 23431.818
0.68123839 -0.05 -0.038167801 23406.507
0.67657265 -0.05 -0.038615123 23380.968
0.67190661 -0.05 -0.039059237 23355.596
0.66724025 -0.05 -0.039500049 23330.571
0.66257357 -0.05 -0.039937521 23305.638
0.6579066 -0.05 -0.040371712 23280.525
0.65323931 -0.05 -0.040802591 23255.616
0.64857171 -0.05 -0.041230085 23230.808
0.6439038 -0.05 -0.041654149 23206.239
0.63923558 -0.05 -0.042074786 23181.532
0.63456705 -0.05 -0.042492 23156.951
0.62989821 -0.05 -0.042905734 23132.424
0.62522906 -0.05 -0.043315943 23108
0.62055961 -0.05 -0.043722625 23083.446
0.61588983 -0.05 -0.044125719 23059.164
0.61121975 -0.05 -0.044525219 23034.609
0.60654937 -0.05 -0.044921074 23010.522
0.60187867 -0.05 -0.045313219 22986.234
0.59720766 -0.05 -0.045701683 22961.994
0.59253634 -0.05 -0.046086399 22937.853
0.58786471 -0.05 -0.046467288 22913.943
0.58319277 -0.05 -0.046844345 22889.909
0.57852051 -0.05 -0.047217535 22866.116
0.57384795 -0.05 -0.047586814 22842.158
0.56917507 -0.05 -0.047952124 22818.44
0.56450189 -0.05 -0.048313436 22794.47
0.55982839 -0.05 -0.048670677 22770.959
0.55515457 -0.05 -0.04902381 22747.121
0.55048045 -0.05 -0.04937281 22723.702
0.54580601 -0.05 -0.04971755 22700.313
0.54113126 -0.05 -0.050058049 22676.698
0.5364562 -0.05 -0.050394263 22653.114
0.53178083 -0.05 -0.050726133 22629.422
0.52710515 -0.05 -0.05105357 22606.123
0.52242915 -0.05 -0.051376464 22582.981
0.51775284 -0.05 -0.051694815 22559.787
0.51307623 -0.05 -0.052008601 22536.657
0.5083993 -0.05 -0.052317709 22513.805
0.50372205 -0.05 -0.052622098 22490.781
0.4990445 -0.05 -0.052921702 22468.051
0.49436664 -0.05 -0.053216428 22445.284
0.48968848 -0.05 -0.053506199 22422.862
0.48501001 -0.05 -0.053790938 22400.415
0.48033122 -0.05 -0.054070627 22378.103
0.47565213 -0.05 -0.05434516 22356.047
0.47097274 -0.05 -0.05461447 22333.921
0.46629305 -0.05 -0.054878504 22311.917
0.46161306 -0.05 -0.055137129 22290.221
0.45693277 -0.05 -0.055390258 22268.66
0.45225217 -0.05 -0.05563783 22247.271
0.44757129 -0.05 -0.055879797 22225.847
0.44289011 -0.05 -0.056116052 22204.915
0.43820865 -0.05 -0.056346461 22184.289
0.43352689 -0.05 -0.056570934 22163.925
0.42884486 -0.05 -0.056789429 22143.391
0.42416254 -0.05 -0.057001839 22123.263
0.41947994 -0.05 -0.057208045 22103.255
0.41479707 -0.05 -0.057407955 22083.764
0.41011393 -0.05 -0.057601449 22064.545
0.40543053 -0.05 -0.057788457 22045.58
0.40074687 -0.05 -0.057968847 22027.068
0.39606296 -0.05 -0.058142512 22008.723
0.3913788 -0.05 -0.05830933 21990.87
0.38669439 -0.05 -0.058469176 21973.28
0.38200975 -0.05 -0.058621944 21956.183
0.37732488 -0.05 -0.058767528 21939.461
0.37263978 -0.05 -0.058905769 21923.603
0.36795448 -0.05 -0.059036525 21908.052
0.36326896 -0.05 -0.059159726 21892.95
0.35858325 -0.05 -0.059275201 21878.516
0.35389735 -0.05 -0.059382803 21864.42
0.34921128 -0.05 -0.05948244 21850.694
0.34452504 -0.05 -0.059573923 21837.9
0.33983865 -0.05 -0.059657063 21825.833
0.33515211 -0.05 -0.059731741 21814.388
0.33046544 -0.05 -0.059797856 21803.374
0.32577866 -0.05 -0.059855197 21793.47
0.32109177 -0.05 -0.059903556 21784.145
0.31640481 -0.05 -0.059942821 21775.393
0.31171777 -0.05 -0.059972784 21766.996
0.30703069 -0.05 -0.059993273 21759.091
0.30234356 -0.05 -0.060004087 21754
