# Force and moment coefficients
# dragDir       : (1.00000000e+00 0.00000000e+00 0.00000000e+00)
# sideDir       : (0.00000000e+00 1.00000000e+00 0.00000000e+00)
# liftDir       : (0.00000000e+00 0.00000000e+00 1.00000000e+00)
# rollAxis      : (1.00000000e+00 0.00000000e+00 0.00000000e+00)
# pitchAxis     : (0.00000000e+00 1.00000000e+00 0.00000000e+00)
# yawAxis       : (0.00000000e+00 0.00000000e+00 1.00000000e+00)
# magUInf       : 2.22360000e+02
# lRef          : 1.00000000e+00
# Aref          : 1.00000000e-01
# CofR          : (2.50000000e-01 0.00000000e+00 0.00000000e+00)
#
# Time          	Cd              	Cd(f)           	Cd(r)           	Cl              	Cl(f)           	Cl(r)           	CmPitch         	CmRoll          	CmYaw           	Cs              	Cs(f)           	Cs(r)           
2e-05           	1.72247059e-01	7.00111904e-02	1.02235868e-01	3.22246779e-01	7.00226433e-02	2.52224136e-01	-9.11007463e-02	-1.61123390e-02	8.61235294e-03	2.57336610e-21	8.61235294e-03	-8.61235294e-03
4e-05           	2.07303224e-01	8.89919510e-02	1.18311273e-01	2.93193216e-01	7.62913376e-02	2.16901879e-01	-7.03052706e-02	-1.46596608e-02	1.03651612e-02	2.99767030e-21	1.03651612e-02	-1.03651612e-02
6e-05           	2.07427202e-01	8.98083302e-02	1.17618872e-01	2.78105413e-01	7.63655824e-02	2.01739830e-01	-6.26871240e-02	-1.39052706e-02	1.03713601e-02	2.73649645e-21	1.03713601e-02	-1.03713601e-02
8e-05           	2.01098024e-01	8.71086594e-02	1.13989365e-01	2.68807058e-01	7.48049676e-02	1.94002090e-01	-5.95985612e-02	-1.34403529e-02	1.00549012e-02	2.49203027e-21	1.00549012e-02	-1.00549012e-02
0.0001          	1.95489939e-01	8.42790467e-02	1.11210893e-01	2.69318458e-01	7.42658974e-02	1.95052561e-01	-6.03933318e-02	-1.34659229e-02	9.77449696e-03	2.27227994e-21	9.77449696e-03	-9.77449696e-03
0.00012         	1.90486802e-01	8.18752252e-02	1.08611577e-01	2.67363515e-01	7.39613417e-02	1.93402173e-01	-5.97204158e-02	-1.33681758e-02	9.52434010e-03	2.08559106e-21	9.52434010e-03	-9.52434010e-03
0.00014         	1.85685169e-01	7.95427061e-02	1.06142463e-01	2.65997568e-01	7.35933877e-02	1.92404180e-01	-5.94053962e-02	-1.32998784e-02	9.28425845e-03	1.94528029e-21	9.28425845e-03	-9.28425845e-03
0.00016         	1.80518562e-01	7.70415764e-02	1.03476986e-01	2.64354092e-01	7.31455696e-02	1.91208522e-01	-5.90314763e-02	-1.32177046e-02	9.02592810e-03	1.82413400e-21	9.02592810e-03	-9.02592810e-03
0.00018         	1.74966196e-01	7.43422920e-02	1.00623904e-01	2.62816122e-01	7.26276786e-02	1.90188443e-01	-5.87803824e-02	-1.31408061e-02	8.74830981e-03	1.72313938e-21	8.74830981e-03	-8.74830981e-03
0.0002          	1.69567957e-01	7.17186468e-02	9.78493100e-02	2.61306632e-01	7.21360898e-02	1.89170542e-01	-5.85172263e-02	-1.30653316e-02	8.47839784e-03	1.62683634e-21	8.47839784e-03	-8.47839784e-03
0.00022         	1.64544735e-01	6.92755914e-02	9.52691438e-02	2.59935524e-01	7.17485323e-02	1.88186992e-01	-5.82192297e-02	-1.29967762e-02	8.22723676e-03	1.52343778e-21	8.22723676e-03	-8.22723676e-03
0.00024         	1.59838944e-01	6.69956859e-02	9.28432577e-02	2.58475718e-01	7.13397436e-02	1.87135974e-01	-5.78981153e-02	-1.29237859e-02	7.99194718e-03	1.42221684e-21	7.99194718e-03	-7.99194718e-03
0.00026         	1.55297115e-01	6.47966028e-02	9.05005126e-02	2.57039098e-01	7.09435432e-02	1.86095555e-01	-5.75760057e-02	-1.28519549e-02	7.76485577e-03	1.32291486e-21	7.76485577e-03	-7.76485577e-03
0.00028         	1.51019462e-01	6.27329547e-02	8.82865077e-02	2.55535530e-01	7.05278212e-02	1.85007709e-01	-5.72399438e-02	-1.27767765e-02	7.55097312e-03	1.22190040e-21	7.55097312e-03	-7.55097312e-03
0.0003          	1.47335689e-01	6.09650868e-02	8.63706021e-02	2.54055153e-01	7.01488678e-02	1.83906285e-01	-5.68787085e-02	-1.27027576e-02	7.36678444e-03	1.12816891e-21	7.36678444e-03	-7.36678444e-03
0.00032         	1.43880438e-01	5.93120791e-02	8.45683589e-02	2.52562798e-01	6.98064509e-02	1.82756347e-01	-5.64749480e-02	-1.26281399e-02	7.19402190e-03	1.01855974e-21	7.19402190e-03	-7.19402190e-03
0.00034         	1.40715726e-01	5.78008333e-02	8.29148924e-02	2.51140591e-01	6.95057857e-02	1.81634806e-01	-5.60645099e-02	-1.25570296e-02	7.03578628e-03	9.26777139e-22	7.03578628e-03	-7.03578628e-03
0.00036         	1.37743977e-01	5.63813401e-02	8.13626368e-02	2.49812967e-01	6.92631431e-02	1.80549824e-01	-5.56433406e-02	-1.24906484e-02	6.88719885e-03	8.34882226e-22	6.88719885e-03	-6.88719885e-03
0.00038         	1.34820615e-01	5.49840879e-02	7.98365273e-02	2.48524393e-01	6.90612673e-02	1.79463126e-01	-5.52009293e-02	-1.24262197e-02	6.74103076e-03	7.40511982e-22	6.74103076e-03	-6.74103076e-03
0.0004          	1.31989417e-01	5.36348103e-02	7.83546063e-02	2.47197960e-01	6.88187427e-02	1.78379217e-01	-5.47802373e-02	-1.23598980e-02	6.59947083e-03	6.57862161e-22	6.59947083e-03	-6.59947083e-03
0.00042         	1.29272673e-01	5.23427674e-02	7.69299059e-02	2.45871385e-01	6.85748874e-02	1.77296497e-01	-5.43608050e-02	-1.22935692e-02	6.46363367e-03	5.76602527e-22	6.46363367e-03	-6.46363367e-03
0.00044         	1.26659788e-01	5.11060599e-02	7.55537283e-02	2.44476684e-01	6.83223735e-02	1.76154311e-01	-5.39159687e-02	-1.22238342e-02	6.33298941e-03	4.93716799e-22	6.33298941e-03	-6.33298941e-03
0.00046         	1.24172495e-01	4.99341250e-02	7.42383699e-02	2.43042449e-01	6.80799280e-02	1.74962521e-01	-5.34412964e-02	-1.21521224e-02	6.20862474e-03	4.11068055e-22	6.20862474e-03	-6.20862474e-03
0.00048         	1.21829124e-01	4.88341283e-02	7.29949960e-02	2.41608678e-01	6.78708961e-02	1.73737782e-01	-5.29334428e-02	-1.20804339e-02	6.09145621e-03	3.31144332e-22	6.09145621e-03	-6.09145621e-03
0.0005          	1.19632384e-01	4.78057548e-02	7.18266291e-02	2.40208742e-01	6.77110207e-02	1.72497722e-01	-5.23933505e-02	-1.20104371e-02	5.98161920e-03	2.52863362e-22	5.98161920e-03	-5.98161920e-03
0.00052         	1.17573638e-01	4.68442914e-02	7.07293465e-02	2.38850551e-01	6.76043651e-02	1.71246186e-01	-5.18209103e-02	-1.19425275e-02	5.87868189e-03	1.82693185e-22	5.87868189e-03	-5.87868189e-03
0.00054         	1.15639386e-01	4.59428947e-02	6.96964912e-02	2.37535965e-01	6.75434787e-02	1.69992486e-01	-5.12245037e-02	-1.18767982e-02	5.78196929e-03	1.12380873e-22	5.78196929e-03	-5.78196929e-03
0.00056         	1.13819063e-01	4.50967569e-02	6.87223059e-02	2.36255490e-01	6.75136100e-02	1.68741880e-01	-5.06141352e-02	-1.18127745e-02	5.69095314e-03	4.94957035e-23	5.69095314e-03	-5.69095314e-03
0.00058         	1.12100906e-01	4.43003313e-02	6.78005745e-02	2.35002432e-01	6.74971588e-02	1.67505273e-01	-5.00040572e-02	-1.17501216e-02	5.60504529e-03	-9.04051858e-24	5.60504529e-03	-5.60504529e-03
0.0006          	1.10471050e-01	4.35476496e-02	6.69234002e-02	2.33757507e-01	6.74801239e-02	1.66277383e-01	-4.93986295e-02	-1.16878753e-02	5.52355249e-03	-6.32883604e-23	5.52355249e-03	-5.52355249e-03
0.00062         	1.08911643e-01	4.28305999e-02	6.60810431e-02	2.32504432e-01	6.74526416e-02	1.65051791e-01	-4.87995745e-02	-1.16252216e-02	5.44558215e-03	-1.14242841e-22	5.44558215e-03	-5.44558215e-03
0.00064         	1.07404028e-01	4.21402055e-02	6.52638229e-02	2.31236174e-01	6.74125477e-02	1.63823626e-01	-4.82055393e-02	-1.15618087e-02	5.37020142e-03	-1.61028394e-22	5.37020142e-03	-5.37020142e-03
0.00066         	1.05941775e-01	4.14734648e-02	6.44683100e-02	2.29948452e-01	6.73585389e-02	1.62589913e-01	-4.76156871e-02	-1.14974226e-02	5.29708874e-03	-2.08096470e-22	5.29708874e-03	-5.29708874e-03
0.00068         	1.04514478e-01	4.08250103e-02	6.36894680e-02	2.28644577e-01	6.72990053e-02	1.61345571e-01	-4.70232831e-02	-1.14322288e-02	5.22572391e-03	-2.52948657e-22	5.22572391e-03	-5.22572391e-03
0.0007          	1.03123800e-01	4.01949419e-02	6.29288576e-02	2.27339156e-01	6.72425611e-02	1.60096595e-01	-4.64270171e-02	-1.13669578e-02	5.15618998e-03	-2.95857549e-22	5.15618998e-03	-5.15618998e-03
0.00072         	1.01772445e-01	3.95836450e-02	6.21888000e-02	2.26051550e-01	6.72003964e-02	1.58851153e-01	-4.58253785e-02	-1.13025775e-02	5.08862225e-03	-3.37496828e-22	5.08862225e-03	-5.08862225e-03
0.00074         	1.00465537e-01	3.89932058e-02	6.14723316e-02	2.24791258e-01	6.71790370e-02	1.57612221e-01	-4.52165921e-02	-1.12395629e-02	5.02327687e-03	-3.80618190e-22	5.02327687e-03	-5.02327687e-03
0.00076         	9.92013670e-02	3.84218306e-02	6.07795364e-02	2.23577058e-01	6.71906976e-02	1.56386361e-01	-4.45978315e-02	-1.11788529e-02	4.96006835e-03	-4.25219570e-22	4.96006835e-03	-4.96006835e-03
0.00078         	9.79809602e-02	3.78689245e-02	6.01120357e-02	2.22431112e-01	6.72445214e-02	1.55186591e-01	-4.39710346e-02	-1.11215556e-02	4.89904801e-03	-4.70885887e-22	4.89904801e-03	-4.89904801e-03
0.0008          	9.68059621e-02	3.73352409e-02	5.94707212e-02	2.21354803e-01	6.73412748e-02	1.54013528e-01	-4.33361267e-02	-1.10677401e-02	4.84029811e-03	-5.20565957e-22	4.84029811e-03	-4.84029811e-03
0.00082         	9.56754797e-02	3.68203273e-02	5.88551524e-02	2.20348251e-01	6.74799365e-02	1.52868315e-01	-4.26941890e-02	-1.10174126e-02	4.78377399e-03	-5.74045259e-22	4.78377399e-03	-4.78377399e-03
0.00084         	9.45920208e-02	3.63254262e-02	5.82665947e-02	2.19411685e-01	6.76546882e-02	1.51756997e-01	-4.20511542e-02	-1.09705842e-02	4.72960104e-03	-6.27561979e-22	4.72960104e-03	-4.72960104e-03
0.00086         	9.35556216e-02	3.58512400e-02	5.77043816e-02	2.18531416e-01	6.78567125e-02	1.50674703e-01	-4.14089954e-02	-1.09265708e-02	4.67778108e-03	-6.89001439e-22	4.67778108e-03	-4.67778108e-03
0.00088         	9.25650607e-02	3.53979700e-02	5.71670906e-02	2.17691206e-01	6.80775653e-02	1.49613640e-01	-4.07680376e-02	-1.08845603e-02	4.62825303e-03	-7.51743788e-22	4.62825303e-03	-4.62825303e-03
0.0009          	9.16193739e-02	3.49655424e-02	5.66538316e-02	2.16882892e-01	6.83068391e-02	1.48576053e-01	-4.01346069e-02	-1.08441446e-02	4.58096870e-03	-8.16045826e-22	4.58096870e-03	-4.58096870e-03
0.00092         	9.07116577e-02	3.45516765e-02	5.61599812e-02	2.16083046e-01	6.85339017e-02	1.47549145e-01	-3.95076215e-02	-1.08041523e-02	4.53558288e-03	-8.85469799e-22	4.53558288e-03	-4.53558288e-03
0.00094         	8.98367374e-02	3.41545072e-02	5.56822302e-02	2.15277231e-01	6.87502715e-02	1.46526959e-01	-3.88883438e-02	-1.07638615e-02	4.49183687e-03	-9.55832620e-22	4.49183687e-03	-4.49183687e-03
0.00096         	8.89908636e-02	3.37721187e-02	5.52187449e-02	2.14466263e-01	6.89536380e-02	1.45512625e-01	-3.82794934e-02	-1.07233131e-02	4.44954318e-03	-1.02826137e-21	4.44954318e-03	-4.44954318e-03
0.00098         	8.81713441e-02	3.34031354e-02	5.47682087e-02	2.13650733e-01	6.91443242e-02	1.44506409e-01	-3.76810425e-02	-1.06825367e-02	4.40856720e-03	-1.10097077e-21	4.40856720e-03	-4.40856720e-03
0.001           	8.73775700e-02	3.30470918e-02	5.43304782e-02	2.12833863e-01	6.93255876e-02	1.43508276e-01	-3.70913441e-02	-1.06416932e-02	4.36887850e-03	-1.17392848e-21	4.36887850e-03	-4.36887850e-03
0.00102         	8.66110672e-02	3.27042999e-02	5.39067673e-02	2.12024675e-01	6.95027751e-02	1.42521900e-01	-3.65095623e-02	-1.06012337e-02	4.33055336e-03	-1.24747389e-21	4.33055336e-03	-4.33055336e-03
0.00104         	8.58743431e-02	3.23753656e-02	5.34989775e-02	2.11236119e-01	6.96834493e-02	1.41552670e-01	-3.59346102e-02	-1.05618059e-02	4.29371716e-03	-1.32022151e-21	4.29371716e-03	-4.29371716e-03
0.00106         	8.51694132e-02	3.20608711e-02	5.31085421e-02	2.10476710e-01	6.98729617e-02	1.40603749e-01	-3.53653935e-02	-1.05238355e-02	4.25847066e-03	-1.39344834e-21	4.25847066e-03	-4.25847066e-03
0.00108         	8.44967509e-02	3.17606946e-02	5.27360563e-02	2.09753617e-01	7.00753934e-02	1.39678224e-01	-3.48014153e-02	-1.04876809e-02	4.22483754e-03	-1.46643332e-21	4.22483754e-03	-4.22483754e-03
0.0011          	8.38550974e-02	3.14739637e-02	5.23811337e-02	2.09071700e-01	7.02941560e-02	1.38777544e-01	-3.42416941e-02	-1.04535850e-02	4.19275487e-03	-1.53979232e-21	4.19275487e-03	-4.19275487e-03
0.00112         	8.32410526e-02	3.11987844e-02	5.20422682e-02	2.08434837e-01	7.05311728e-02	1.37903664e-01	-3.36862459e-02	-1.04217419e-02	4.16205263e-03	-1.61304344e-21	4.16205263e-03	-4.16205263e-03
0.00114         	8.26495548e-02	3.09326256e-02	5.17169292e-02	2.07843035e-01	7.07869260e-02	1.37056109e-01	-3.31345916e-02	-1.03921518e-02	4.13247774e-03	-1.68864715e-21	4.13247774e-03	-4.13247774e-03
0.00116         	8.20754351e-02	3.06730006e-02	5.14024345e-02	2.07294338e-01	7.10605682e-02	1.36233770e-01	-3.25866009e-02	-1.03647169e-02	4.10377175e-03	-1.76413611e-21	4.10377175e-03	-4.10377175e-03
0.00118         	8.15148720e-02	3.04181314e-02	5.10967406e-02	2.06786091e-01	7.13505493e-02	1.35435542e-01	-3.20424963e-02	-1.03393046e-02	4.07574360e-03	-1.84006869e-21	4.07574360e-03	-4.07574360e-03
0.0012          	8.09664504e-02	3.01675347e-02	5.07989157e-02	2.06313810e-01	7.16542645e-02	1.34659546e-01	-3.15026407e-02	-1.03156905e-02	4.04832252e-03	-1.91614115e-21	4.04832252e-03	-4.04832252e-03
0.00122         	8.04309790e-02	2.99219780e-02	5.05090010e-02	2.05870231e-01	7.19673926e-02	1.33902838e-01	-3.09677228e-02	-1.02935115e-02	4.02154895e-03	-1.99382819e-21	4.02154895e-03	-4.02154895e-03
0.00124         	7.99112046e-02	2.96832832e-02	5.02279214e-02	2.05446382e-01	7.22847519e-02	1.33161630e-01	-3.04384389e-02	-1.02723191e-02	3.99556023e-03	-2.07121678e-21	3.99556023e-03	-3.99556023e-03
0.00126         	7.94103274e-02	2.94534824e-02	4.99568449e-02	2.05033625e-01	7.26019936e-02	1.32431632e-01	-2.99148190e-02	-1.02516813e-02	3.97051637e-03	-2.15089723e-21	3.97051637e-03	-3.97051637e-03
0.00128         	7.89312416e-02	2.92341730e-02	4.96970686e-02	2.04628955e-01	7.29169450e-02	1.31712010e-01	-2.93975326e-02	-1.02314478e-02	3.94656208e-03	-2.23115441e-21	3.94656208e-03	-3.94656208e-03
0.0013          	7.84758427e-02	2.90263213e-02	4.94495214e-02	2.04232001e-01	7.32276271e-02	1.31004374e-01	-2.88883732e-02	-1.02116000e-02	3.92379214e-03	-2.30923552e-21	3.92379214e-03	-3.92379214e-03
0.00132         	7.80444797e-02	2.88303481e-02	4.92141316e-02	2.03837834e-01	7.35327030e-02	1.30305131e-01	-2.83862142e-02	-1.01918917e-02	3.90222399e-03	-2.38699640e-21	3.90222399e-03	-3.90222399e-03
0.00134         	7.76363836e-02	2.86460027e-02	4.89903809e-02	2.03443781e-01	7.38301234e-02	1.29613658e-01	-2.78917673e-02	-1.01721891e-02	3.88181918e-03	-2.46394776e-21	3.88181918e-03	-3.88181918e-03
0.00136         	7.72492050e-02	2.84720682e-02	4.87771368e-02	2.03050685e-01	7.41198405e-02	1.28930845e-01	-2.74055021e-02	-1.01525343e-02	3.86246025e-03	-2.54046259e-21	3.86246025e-03	-3.86246025e-03
0.00138         	7.68796168e-02	2.83067574e-02	4.85728594e-02	2.02661020e-01	7.44025350e-02	1.28258485e-01	-2.69279750e-02	-1.01330510e-02	3.84398084e-03	-2.61479874e-21	3.84398084e-03	-3.84398084e-03
0.0014          	7.65239963e-02	2.81481160e-02	4.83758803e-02	2.02277642e-01	7.46792346e-02	1.27598408e-01	-2.64595866e-02	-1.01138821e-02	3.82619981e-03	-2.68698187e-21	3.82619981e-03	-3.82619981e-03
0.00142         	7.61788334e-02	2.79942080e-02	4.81846254e-02	2.01904173e-01	7.49511960e-02	1.26952977e-01	-2.60008907e-02	-1.00952087e-02	3.80894167e-03	-2.75648067e-21	3.80894167e-03	-3.80894167e-03
0.00144         	7.58414289e-02	2.78434632e-02	4.79979657e-02	2.01545024e-01	7.52200520e-02	1.26324972e-01	-2.55524600e-02	-1.00772512e-02	3.79207144e-03	-2.82293273e-21	3.79207144e-03	-3.79207144e-03
0.00146         	7.55064891e-02	2.76933618e-02	4.78131273e-02	2.01197655e-01	7.54892759e-02	1.25708379e-01	-2.51095515e-02	-1.00598827e-02	3.77532446e-03	-2.89037078e-21	3.77532446e-03	-3.77532446e-03
0.00148         	7.51852075e-02	2.75487582e-02	4.76364493e-02	2.00876911e-01	7.57532000e-02	1.25123711e-01	-2.46852554e-02	-1.00438455e-02	3.75926038e-03	-2.95063750e-21	3.75926038e-03	-3.75926038e-03
0.0015          	7.48662887e-02	2.74040056e-02	4.74622831e-02	2.00582775e-01	7.60192332e-02	1.24563542e-01	-2.42721544e-02	-1.00291388e-02	3.74331443e-03	-3.00669699e-21	3.74331443e-03	-3.74331443e-03
0.00152         	7.45496839e-02	2.72591959e-02	4.72904881e-02	2.00312922e-01	7.62904680e-02	1.24022454e-01	-2.38659930e-02	-1.00156461e-02	3.72748420e-03	-3.06013819e-21	3.72748420e-03	-3.72748420e-03
0.00154         	7.42490497e-02	2.71207319e-02	4.71283178e-02	2.00075859e-01	7.65578891e-02	1.23517970e-01	-2.34800405e-02	-1.00037930e-02	3.71245249e-03	-3.11143012e-21	3.71245249e-03	-3.71245249e-03
0.00156         	7.39519990e-02	2.69825173e-02	4.69694818e-02	1.99869645e-01	7.68320019e-02	1.23037643e-01	-2.31028205e-02	-9.99348224e-03	3.69759995e-03	-3.15754458e-21	3.69759995e-03	-3.69759995e-03
0.00158         	7.36710765e-02	2.68506839e-02	4.68203926e-02	1.99697087e-01	7.71021913e-02	1.22594895e-01	-2.27463521e-02	-9.98485434e-03	3.68355383e-03	-3.20147771e-21	3.68355383e-03	-3.68355383e-03
0.0016          	7.33950270e-02	2.67196042e-02	4.66754228e-02	1.99558187e-01	7.73787708e-02	1.22179416e-01	-2.24003226e-02	-9.97790934e-03	3.66975135e-03	-3.23976829e-21	3.66975135e-03	-3.66975135e-03
0.00162         	7.31351125e-02	2.65951034e-02	4.65400091e-02	1.99449057e-01	7.76497808e-02	1.21799276e-01	-2.20747476e-02	-9.97245283e-03	3.65675562e-03	-3.27893625e-21	3.65675562e-03	-3.65675562e-03
0.00164         	7.28783597e-02	2.64704966e-02	4.64078631e-02	1.99373666e-01	7.79265108e-02	1.21447155e-01	-2.17603220e-02	-9.96868328e-03	3.64391799e-03	-3.31115654e-21	3.64391799e-03	-3.64391799e-03
0.00166         	7.26351968e-02	2.63513010e-02	4.62838958e-02	1.99325948e-01	7.81976134e-02	1.21128335e-01	-2.14653607e-02	-9.96629741e-03	3.63175984e-03	-3.34653820e-21	3.63175984e-03	-3.63175984e-03
0.00168         	7.23916938e-02	2.62302653e-02	4.61614285e-02	1.99311632e-01	7.84740654e-02	1.20837566e-01	-2.11817504e-02	-9.96558158e-03	3.61958469e-03	-3.37611276e-21	3.61958469e-03	-3.61958469e-03
0.0017          	7.21559943e-02	2.61118194e-02	4.60441749e-02	1.99323555e-01	7.87482136e-02	1.20575342e-01	-2.09135640e-02	-9.96617776e-03	3.60779971e-03	-3.40527571e-21	3.60779971e-03	-3.60779971e-03
0.00172         	7.19221541e-02	2.59929862e-02	4.59291678e-02	1.99361816e-01	7.90217107e-02	1.20340106e-01	-2.06591975e-02	-9.96809082e-03	3.59610770e-03	-3.43271979e-21	3.59610770e-03	-3.59610770e-03
0.00174         	7.16883931e-02	2.58730114e-02	4.58153818e-02	1.99423704e-01	7.92944563e-02	1.20129247e-01	-2.04173955e-02	-9.97118518e-03	3.58441966e-03	-3.45989868e-21	3.58441966e-03	-3.58441966e-03
0.00176         	7.14530154e-02	2.57511368e-02	4.57018786e-02	1.99507417e-01	7.95668647e-02	1.19940553e-01	-2.01868439e-02	-9.97537087e-03	3.57265077e-03	-3.48416871e-21	3.57265077e-03	-3.57265077e-03
0.00178         	7.12149452e-02	2.56269510e-02	4.55879942e-02	1.99610431e-01	7.98387390e-02	1.19771692e-01	-1.99664767e-02	-9.98052157e-03	3.56074726e-03	-3.50830583e-21	3.56074726e-03	-3.56074726e-03
0.0018          	7.09731100e-02	2.55000477e-02	4.54730623e-02	1.99730147e-01	8.01099138e-02	1.19620233e-01	-1.97551596e-02	-9.98650733e-03	3.54865550e-03	-3.53197416e-21	3.54865550e-03	-3.54865550e-03
0.00182         	7.07268351e-02	2.53702344e-02	4.53566007e-02	1.99863662e-01	8.03802580e-02	1.19483404e-01	-1.95515732e-02	-9.99318311e-03	3.53634175e-03	-3.55463917e-21	3.53634175e-03	-3.53634175e-03
0.00184         	7.04756247e-02	2.52373859e-02	4.52382388e-02	2.00008529e-01	8.06492659e-02	1.19359263e-01	-1.93549983e-02	-1.00004264e-02	3.52378123e-03	-3.57891749e-21	3.52378123e-03	-3.52378123e-03
0.00186         	7.02205490e-02	2.51022775e-02	4.51182715e-02	2.00159941e-01	8.09151970e-02	1.19244744e-01	-1.91647733e-02	-1.00079970e-02	3.51102745e-03	-3.60355446e-21	3.51102745e-03	-3.51102745e-03
0.00188         	6.99588892e-02	2.49634667e-02	4.49954225e-02	2.00319558e-01	8.11800623e-02	1.19139495e-01	-1.89797165e-02	-1.00159779e-02	3.49794446e-03	-3.62584162e-21	3.49794446e-03	-3.49794446e-03
0.0019          	6.96930569e-02	2.48223682e-02	4.48706887e-02	2.00483204e-01	8.14422376e-02	1.19040967e-01	-1.87993646e-02	-1.00241602e-02	3.48465285e-03	-3.65167286e-21	3.48465285e-03	-3.48465285e-03
0.00192         	6.94244591e-02	2.46798194e-02	4.47446397e-02	2.00648203e-01	8.17010189e-02	1.18947184e-01	-1.86230827e-02	-1.00324102e-02	3.47122295e-03	-3.67724952e-21	3.47122295e-03	-3.47122295e-03
0.00194         	6.91526737e-02	2.45357695e-02	4.46169042e-02	2.00811347e-01	8.19569812e-02	1.18854366e-01	-1.84486923e-02	-1.00405674e-02	3.45763368e-03	-3.70365418e-21	3.45763368e-03	-3.45763368e-03
0.00196         	6.88809838e-02	2.43917341e-02	4.44892497e-02	2.00975156e-01	8.22096605e-02	1.18765496e-01	-1.82779177e-02	-1.00487578e-02	3.44404919e-03	-3.73114391e-21	3.44404919e-03	-3.44404919e-03
0.00198         	6.86112667e-02	2.42485839e-02	4.43626827e-02	2.01140988e-01	8.24592421e-02	1.18681746e-01	-1.81112518e-02	-1.00570494e-02	3.43056333e-03	-3.75894531e-21	3.43056333e-03	-3.43056333e-03
0.002           	6.83446797e-02	2.41069323e-02	4.42377473e-02	2.01308150e-01	8.27059224e-02	1.18602228e-01	-1.79481526e-02	-1.00654075e-02	3.41723398e-03	-3.78668436e-21	3.41723398e-03	-3.41723398e-03
0.00202         	6.80823130e-02	2.39673299e-02	4.41149831e-02	2.01476531e-01	8.29502154e-02	1.18526316e-01	-1.77880503e-02	-1.00738266e-02	3.40411565e-03	-3.81556715e-21	3.40411565e-03	-3.40411565e-03
0.00204         	6.78249282e-02	2.38301335e-02	4.39947947e-02	2.01646612e-01	8.31926793e-02	1.18453933e-01	-1.76306269e-02	-1.00823306e-02	3.39124641e-03	-3.84550094e-21	3.39124641e-03	-3.39124641e-03
0.00206         	6.75727525e-02	2.36954424e-02	4.38773102e-02	2.01818678e-01	8.34336480e-02	1.18385030e-01	-1.74756910e-02	-1.00909339e-02	3.37863763e-03	-3.87567113e-21	3.37863763e-03	-3.37863763e-03
0.00208         	6.73255563e-02	2.35631384e-02	4.37624179e-02	2.01992795e-01	8.36731286e-02	1.18319666e-01	-1.73232686e-02	-1.00996397e-02	3.36627781e-03	-3.90692381e-21	3.36627781e-03	-3.36627781e-03
0.0021          	6.70826642e-02	2.34328653e-02	4.36497989e-02	2.02169335e-01	8.39112658e-02	1.18258070e-01	-1.71734019e-02	-1.01084668e-02	3.35413321e-03	-3.93967989e-21	3.35413321e-03	-3.35413321e-03
0.00212         	6.68417721e-02	2.33033033e-02	4.35384688e-02	2.02351655e-01	8.41490683e-02	1.18202587e-01	-1.70267591e-02	-1.01175827e-02	3.34208861e-03	-3.97060873e-21	3.34208861e-03	-3.34208861e-03
0.00214         	6.66053782e-02	2.31759551e-02	4.34294231e-02	2.02534680e-01	8.43845330e-02	1.18150147e-01	-1.68828070e-02	-1.01267340e-02	3.33026891e-03	-4.00341012e-21	3.33026891e-03	-3.33026891e-03
0.00216         	6.63695923e-02	2.30486949e-02	4.33208974e-02	2.02722025e-01	8.46188994e-02	1.18103126e-01	-1.67421132e-02	-1.01361013e-02	3.31847961e-03	-4.03609249e-21	3.31847961e-03	-3.31847961e-03
0.00218         	6.61334919e-02	2.29210312e-02	4.32124607e-02	2.02914294e-01	8.48523165e-02	1.18061978e-01	-1.66048307e-02	-1.01457147e-02	3.30667460e-03	-4.06850290e-21	3.30667460e-03	-3.30667460e-03
0.0022          	6.58961804e-02	2.27924881e-02	4.31036923e-02	2.03112042e-01	8.50848790e-02	1.18027163e-01	-1.64711419e-02	-1.01556021e-02	3.29480902e-03	-4.10242981e-21	3.29480902e-03	-3.29480902e-03
0.00222         	6.56571124e-02	2.26627813e-02	4.29943311e-02	2.03315498e-01	8.53165903e-02	1.17998907e-01	-1.63411586e-02	-1.01657749e-02	3.28285562e-03	-4.13533125e-21	3.28285562e-03	-3.28285562e-03
0.00224         	6.54158027e-02	2.25316654e-02	4.28841374e-02	2.03524720e-01	8.55474771e-02	1.17977243e-01	-1.62148829e-02	-1.01762360e-02	3.27079014e-03	-4.16770344e-21	3.27079014e-03	-3.27079014e-03
0.00226         	6.51719128e-02	2.23989457e-02	4.27729672e-02	2.03740215e-01	8.57775663e-02	1.17962649e-01	-1.60925412e-02	-1.01870108e-02	3.25859564e-03	-4.20136345e-21	3.25859564e-03	-3.25859564e-03
0.00228         	6.49251843e-02	2.22644670e-02	4.26607173e-02	2.03962502e-01	8.60068678e-02	1.17955635e-01	-1.59743833e-02	-1.01981251e-02	3.24625922e-03	-4.23499929e-21	3.24625922e-03	-3.24625922e-03
0.0023          	6.46754743e-02	2.21281577e-02	4.25473167e-02	2.04191590e-01	8.62354894e-02	1.17956101e-01	-1.58603056e-02	-1.02095795e-02	3.23377372e-03	-4.26868961e-21	3.23377372e-03	-3.23377372e-03
0.00232         	6.44226556e-02	2.19899878e-02	4.24326678e-02	2.04426799e-01	8.64634603e-02	1.17963339e-01	-1.57499393e-02	-1.02213400e-02	3.22113278e-03	-4.30185540e-21	3.22113278e-03	-3.22113278e-03
0.00234         	6.41669462e-02	2.18500853e-02	4.23168609e-02	2.04667756e-01	8.66907997e-02	1.17976956e-01	-1.56430782e-02	-1.02333878e-02	3.20834731e-03	-4.33702930e-21	3.20834731e-03	-3.20834731e-03
0.00236         	6.39087692e-02	2.17086727e-02	4.22000965e-02	2.04914239e-01	8.69177148e-02	1.17996524e-01	-1.55394046e-02	-1.02457119e-02	3.19543846e-03	-4.37113719e-21	3.19543846e-03	-3.19543846e-03
0.00238         	6.36489302e-02	2.15661529e-02	4.20827773e-02	2.05166244e-01	8.71443854e-02	1.18021859e-01	-1.54387367e-02	-1.02583122e-02	3.18244651e-03	-4.40481353e-21	3.18244651e-03	-3.18244651e-03
0.0024          	6.33885148e-02	2.14230838e-02	4.19654311e-02	2.05423473e-01	8.73710719e-02	1.18052401e-01	-1.53406645e-02	-1.02711736e-02	3.16942574e-03	-4.43945870e-21	3.16942574e-03	-3.16942574e-03
0.00242         	6.31289632e-02	2.12801835e-02	4.18487797e-02	2.05685962e-01	8.75980334e-02	1.18087928e-01	-1.52449473e-02	-1.02842981e-02	3.15644816e-03	-4.47348296e-21	3.15644816e-03	-3.15644816e-03
0.00244         	6.28721763e-02	2.11384283e-02	4.17337481e-02	2.05953198e-01	8.78252071e-02	1.18127991e-01	-1.51513918e-02	-1.02976599e-02	3.14360882e-03	-4.50748890e-21	3.14360882e-03	-3.14360882e-03
0.00246         	6.26181596e-02	2.09978122e-02	4.16203474e-02	2.06225353e-01	8.80533608e-02	1.18171992e-01	-1.50593156e-02	-1.03112676e-02	3.13090798e-03	-4.54146802e-21	3.13090798e-03	-3.13090798e-03
0.00248         	6.23686949e-02	2.08592527e-02	4.15094422e-02	2.06501894e-01	8.82822767e-02	1.18219618e-01	-1.49686705e-02	-1.03250947e-02	3.11843475e-03	-4.57523559e-21	3.11843475e-03	-3.11843475e-03
0.0025          	6.21248537e-02	2.07233580e-02	4.14014958e-02	2.06781378e-01	8.85117399e-02	1.18269638e-01	-1.48789491e-02	-1.03390689e-02	3.10624269e-03	-4.60871888e-21	3.10624269e-03	-3.10624269e-03
0.00252         	6.18864807e-02	2.05900886e-02	4.12963921e-02	2.07063035e-01	8.87417442e-02	1.18321291e-01	-1.47897734e-02	-1.03531518e-02	3.09432404e-03	-4.64212271e-21	3.09432404e-03	-3.09432404e-03
0.00254         	6.16530929e-02	2.04592020e-02	4.11938908e-02	2.07346888e-01	8.89722067e-02	1.18374681e-01	-1.47012373e-02	-1.03673444e-02	3.08265464e-03	-4.67524892e-21	3.08265464e-03	-3.08265464e-03
0.00256         	6.14236210e-02	2.03302477e-02	4.10933733e-02	2.07631256e-01	8.92026635e-02	1.18428593e-01	-1.46129645e-02	-1.03815628e-02	3.07118105e-03	-4.70675046e-21	3.07118105e-03	-3.07118105e-03
0.00258         	6.11979274e-02	2.02031424e-02	4.09947850e-02	2.07916426e-01	8.94333903e-02	1.18483036e-01	-1.45248229e-02	-1.03958213e-02	3.05989637e-03	-4.73927233e-21	3.05989637e-03	-3.05989637e-03
0.0026          	6.09744879e-02	2.00771685e-02	4.08973194e-02	2.08201509e-01	8.96640002e-02	1.18537508e-01	-1.44367541e-02	-1.04100754e-02	3.04872440e-03	-4.77063879e-21	3.04872440e-03	-3.04872440e-03
0.00262         	6.07528406e-02	1.99521775e-02	4.08006631e-02	2.08484856e-01	8.98937487e-02	1.18591108e-01	-1.43486794e-02	-1.04242428e-02	3.03764203e-03	-4.80157432e-21	3.03764203e-03	-3.03764203e-03
0.00264         	6.05323010e-02	1.98278312e-02	4.07044698e-02	2.08766385e-01	9.01225313e-02	1.18643854e-01	-1.42606614e-02	-1.04383193e-02	3.02661505e-03	-4.83077483e-21	3.02661505e-03	-3.02661505e-03
0.00266         	6.03122794e-02	1.97038697e-02	4.06084097e-02	2.09045400e-01	9.03500437e-02	1.18695356e-01	-1.41726563e-02	-1.04522700e-02	3.01561397e-03	-4.85997569e-21	3.01561397e-03	-3.01561397e-03
0.00268         	6.00917091e-02	1.95797386e-02	4.05119706e-02	2.09322320e-01	9.05763606e-02	1.18745959e-01	-1.40847993e-02	-1.04661160e-02	3.00458546e-03	-4.88830782e-21	3.00458546e-03	-3.00458546e-03
0.0027          	5.98702981e-02	1.94553027e-02	4.04149954e-02	2.09596927e-01	9.08013372e-02	1.18795590e-01	-1.39971264e-02	-1.04798464e-02	2.99351491e-03	-4.91636565e-21	2.99351491e-03	-2.99351491e-03
0.00272         	5.96477342e-02	1.93304271e-02	4.03173072e-02	2.09868801e-01	9.10247867e-02	1.18844014e-01	-1.39096139e-02	-1.04934401e-02	2.98238671e-03	-4.94212573e-21	2.98238671e-03	-2.98238671e-03
0.00274         	5.94237360e-02	1.92049568e-02	4.02187792e-02	2.10138223e-01	9.12466430e-02	1.18891580e-01	-1.38224687e-02	-1.05069112e-02	2.97118680e-03	-4.96797995e-21	2.97118680e-03	-2.97118680e-03
0.00276         	5.91980396e-02	1.90787491e-02	4.01192905e-02	2.10405414e-01	9.14669293e-02	1.18938485e-01	-1.37357778e-02	-1.05202707e-02	2.95990198e-03	-4.99281531e-21	2.95990198e-03	-2.95990198e-03
0.00278         	5.89704228e-02	1.89516491e-02	4.00187737e-02	2.10671246e-01	9.16857420e-02	1.18985504e-01	-1.36498810e-02	-1.05335623e-02	2.94852114e-03	-5.01801145e-21	2.94852114e-03	-2.94852114e-03
0.0028          	5.87407393e-02	1.88235645e-02	3.99171748e-02	2.10936103e-01	9.19032113e-02	1.19032892e-01	-1.35648402e-02	-1.05468051e-02	2.93703697e-03	-5.04218479e-21	2.93703697e-03	-2.93703697e-03
0.00282         	5.85089194e-02	1.86944510e-02	3.98144684e-02	2.11200175e-01	9.21193931e-02	1.19080782e-01	-1.34806943e-02	-1.05600087e-02	2.92544597e-03	-5.06504126e-21	2.92544597e-03	-2.92544597e-03
0.00284         	5.82750121e-02	1.85642987e-02	3.97107134e-02	2.11464147e-01	9.23344849e-02	1.19129662e-01	-1.33975885e-02	-1.05732073e-02	2.91375060e-03	-5.08780238e-21	2.91375060e-03	-2.91375060e-03
0.00286         	5.80392365e-02	1.84331931e-02	3.96060434e-02	2.11728503e-01	9.25485586e-02	1.19179944e-01	-1.33156929e-02	-1.05864251e-02	2.90196182e-03	-5.10955242e-21	2.90196182e-03	-2.90196182e-03
0.00288         	5.78019306e-02	1.83012811e-02	3.95006495e-02	2.11993684e-01	9.27617518e-02	1.19231932e-01	-1.32350901e-02	-1.05996842e-02	2.89009653e-03	-5.13023301e-21	2.89009653e-03	-2.89009653e-03
0.0029          	5.75635694e-02	1.81687847e-02	3.93947847e-02	2.12260000e-01	9.29742047e-02	1.19285795e-01	-1.31557952e-02	-1.06130000e-02	2.87817847e-03	-5.15092251e-21	2.87817847e-03	-2.87817847e-03