/*--------------------------------*- C++ -*----------------------------------*\
| =========                 |                                                 |
| \\      /  F ield         | OpenFOAM: The Open Source CFD Toolbox           |
|  \\    /   O peration     | Version:  2306                                  |
|   \\  /    A nd           | Website:  www.openfoam.com                      |
|    \\/     M anipulation  |                                                 |
\*---------------------------------------------------------------------------*/
FoamFile
{
    version     2.0;
    format      ascii;
    arch        "LSB;label=32;scalar=64";
    class       volScalarField;
    location    "675";
    object      magR;
}
// * * * * * * * * * * * * * * * * * * * * * * * * * * * * * * * * * * * * * //

dimensions      [0 2 -2 0 0 0 0];

internalField   nonuniform List<scalar> 
1340
(
8.17022e-07
1.6082e-06
1.82046e-07
7.4807e-07
8.14492e-07
1.61056e-06
2.01322e-07
3.23699e-07
1.78385e-07
7.50889e-07
8.14761e-07
1.61128e-06
3.72367e-07
3.27809e-07
3.0755e-07
2.11163e-07
3.31198e-07
1.76226e-07
7.53929e-07
8.16984e-07
1.61117e-06
5.32375e-07
4.93409e-07
4.6153e-07
4.31857e-07
4.00931e-07
3.71794e-07
3.2942e-07
3.11119e-07
2.21718e-07
3.38417e-07
1.75368e-07
7.57089e-07
8.20518e-07
1.61069e-06
7.47085e-07
7.00407e-07
6.53803e-07
6.08382e-07
5.63841e-07
5.21956e-07
4.85621e-07
4.55934e-07
4.28108e-07
3.98965e-07
3.71402e-07
3.31412e-07
3.15119e-07
2.3283e-07
3.45189e-07
1.75694e-07
7.60094e-07
8.24828e-07
1.60995e-06
1.01674e-06
9.7316e-07
9.29756e-07
8.86826e-07
8.44467e-07
8.02535e-07
7.60612e-07
7.18339e-07
6.75686e-07
6.33014e-07
5.9135e-07
5.50255e-07
5.1145e-07
4.77821e-07
4.50341e-07
4.24386e-07
3.9709e-07
3.7113e-07
3.33734e-07
3.19483e-07
2.44386e-07
3.51397e-07
1.77107e-07
7.62889e-07
8.29494e-07
1.60867e-06
1.37063e-06
1.33921e-06
1.30692e-06
1.27388e-06
1.24021e-06
1.20597e-06
1.17125e-06
1.13614e-06
1.10067e-06
1.06474e-06
1.02831e-06
9.91313e-07
9.53802e-07
9.1592e-07
8.77949e-07
8.40147e-07
8.02596e-07
7.65177e-07
7.2754e-07
6.89416e-07
6.50811e-07
6.12095e-07
5.7421e-07
5.36586e-07
5.00923e-07
4.70042e-07
4.44766e-07
4.2069e-07
3.95288e-07
3.70969e-07
3.3637e-07
3.24175e-07
2.56292e-07
3.5692e-07
1.7953e-07
7.65368e-07
8.33906e-07
1.60722e-06
1.34783e-06
1.39965e-06
1.23399e-06
1.26976e-06
1.2705e-06
1.32783e-06
1.35869e-06
1.38918e-06
1.41572e-06
1.44075e-06
1.46376e-06
1.48465e-06
1.50287e-06
1.51851e-06
1.53213e-06
1.54297e-06
1.5514e-06
1.55751e-06
1.5614e-06
1.5632e-06
1.56297e-06
1.56083e-06
1.55703e-06
1.55167e-06
1.54485e-06
1.53669e-06
1.52735e-06
1.51697e-06
1.50551e-06
1.49318e-06
1.47993e-06
1.46585e-06
1.451e-06
1.43533e-06
1.41893e-06
1.40176e-06
1.38378e-06
1.36507e-06
1.3455e-06
1.32509e-06
1.30388e-06
1.28175e-06
1.25873e-06
1.23477e-06
1.20997e-06
1.18427e-06
1.15774e-06
1.13052e-06
1.10263e-06
1.07417e-06
1.04523e-06
1.0158e-06
9.85811e-07
9.55227e-07
9.2395e-07
8.92026e-07
8.59556e-07
8.26768e-07
7.93881e-07
7.60974e-07
7.27954e-07
6.94533e-07
6.60517e-07
6.25947e-07
5.91181e-07
5.57057e-07
5.22905e-07
4.90424e-07
4.62307e-07
4.39209e-07
4.17016e-07
3.93542e-07
3.70899e-07
3.39302e-07
3.29169e-07
2.68473e-07
3.61692e-07
1.82863e-07
7.67266e-07
8.37826e-07
1.60582e-06
1.3912e-06
1.10273e-06
1.0088e-06
1.1025e-06
1.12317e-06
1.15928e-06
1.18131e-06
1.20567e-06
1.22742e-06
1.24802e-06
1.2668e-06
1.2837e-06
1.29862e-06
1.31156e-06
1.32273e-06
1.33171e-06
1.33882e-06
1.34423e-06
1.3478e-06
1.34971e-06
1.35011e-06
1.34903e-06
1.34664e-06
1.34307e-06
1.33837e-06
1.33266e-06
1.32612e-06
1.31868e-06
1.31049e-06
1.30163e-06
1.29207e-06
1.28191e-06
1.27111e-06
1.25974e-06
1.24778e-06
1.23518e-06
1.22198e-06
1.20814e-06
1.19361e-06
1.17835e-06
1.16235e-06
1.14558e-06
1.12795e-06
1.10946e-06
1.09018e-06
1.06999e-06
1.04903e-06
1.02733e-06
1.00496e-06
9.82015e-07
9.58555e-07
9.34557e-07
9.09973e-07
8.84747e-07
8.58755e-07
8.32018e-07
8.04595e-07
7.76676e-07
7.48442e-07
7.1996e-07
6.91174e-07
6.61859e-07
6.31874e-07
6.01278e-07
5.70409e-07
5.40001e-07
5.09287e-07
4.8e-07
4.54635e-07
4.33666e-07
4.13352e-07
3.91829e-07
3.70913e-07
3.42508e-07
3.34443e-07
2.80824e-07
3.65668e-07
1.86878e-07
7.68922e-07
8.40799e-07
1.60508e-06
1.05741e-06
9.29805e-07
8.96588e-07
9.80119e-07
9.8964e-07
1.01483e-06
1.03282e-06
1.0521e-06
1.06959e-06
1.08593e-06
1.10056e-06
1.11404e-06
1.12584e-06
1.13609e-06
1.14485e-06
1.15208e-06
1.15778e-06
1.16225e-06
1.16528e-06
1.16694e-06
1.16757e-06
1.16708e-06
1.16561e-06
1.16312e-06
1.15993e-06
1.156e-06
1.15135e-06
1.14611e-06
1.14033e-06
1.13403e-06
1.12725e-06
1.12004e-06
1.11235e-06
1.10424e-06
1.09571e-06
1.08671e-06
1.07723e-06
1.06725e-06
1.05672e-06
1.04557e-06
1.0338e-06
1.02136e-06
1.00814e-06
9.94194e-07
9.7946e-07
9.63901e-07
9.4765e-07
9.30685e-07
9.131e-07
8.94978e-07
8.76348e-07
8.57204e-07
8.37498e-07
8.17126e-07
7.95955e-07
7.73989e-07
7.51242e-07
7.27841e-07
7.03962e-07
6.7968e-07
6.54949e-07
6.29603e-07
6.03538e-07
5.7685e-07
5.49809e-07
5.23031e-07
4.95725e-07
4.6964e-07
4.46986e-07
4.28084e-07
4.09663e-07
3.90112e-07
3.70988e-07
3.45984e-07
3.39993e-07
2.93253e-07
3.68875e-07
1.91556e-07
7.69299e-07
8.43505e-07
1.60549e-06
8.99925e-07
8.31809e-07
8.06731e-07
8.67444e-07
8.7237e-07
8.9225e-07
9.06532e-07
9.215e-07
9.34969e-07
9.47552e-07
9.58865e-07
9.69202e-07
9.78299e-07
9.86199e-07
9.92968e-07
9.98629e-07
1.00309e-06
1.00663e-06
1.00909e-06
1.01056e-06
1.01125e-06
1.01113e-06
1.01023e-06
1.00865e-06
1.00661e-06
1.0039e-06
1.00074e-06
9.97211e-07
9.93222e-07
9.88907e-07
9.84237e-07
9.79305e-07
9.73993e-07
9.68432e-07
9.62548e-07
9.56309e-07
9.49731e-07
9.42763e-07
9.35337e-07
9.27447e-07
9.19022e-07
9.10004e-07
9.00349e-07
8.90042e-07
8.79003e-07
8.67288e-07
8.54925e-07
8.4193e-07
8.28413e-07
8.14412e-07
7.99973e-07
7.85071e-07
7.69666e-07
7.53575e-07
7.36718e-07
7.19043e-07
7.00469e-07
6.81192e-07
6.61322e-07
6.40905e-07
6.19983e-07
5.98411e-07
5.7608e-07
5.53133e-07
5.29768e-07
5.06478e-07
4.82481e-07
4.59521e-07
4.39498e-07
4.22582e-07
4.06024e-07
3.88435e-07
3.7118e-07
3.49727e-07
3.45817e-07
3.05478e-07
3.71412e-07
1.95972e-07
7.68933e-07
8.44656e-07
1.60937e-06
7.96542e-07
7.37361e-07
7.12786e-07
7.59274e-07
7.62879e-07
7.78336e-07
7.89163e-07
8.00494e-07
8.10487e-07
8.20067e-07
8.28622e-07
8.36357e-07
8.43314e-07
8.49238e-07
8.5442e-07
8.58854e-07
8.6233e-07
8.65067e-07
8.67149e-07
8.68497e-07
8.69277e-07
8.69446e-07
8.6908e-07
8.68314e-07
8.67106e-07
8.65479e-07
8.63671e-07
8.61504e-07
8.59002e-07
8.56282e-07
8.53503e-07
8.50411e-07
8.47175e-07
8.43626e-07
8.39935e-07
8.36211e-07
8.31937e-07
8.27472e-07
8.22719e-07
8.17602e-07
8.11947e-07
8.05901e-07
7.9928e-07
7.92012e-07
7.84274e-07
7.7583e-07
7.66863e-07
7.57415e-07
7.47445e-07
7.37169e-07
7.26489e-07
7.15405e-07
7.03934e-07
6.9177e-07
6.78834e-07
6.65141e-07
6.50469e-07
6.35003e-07
6.18955e-07
6.02223e-07
5.84955e-07
5.67096e-07
5.48443e-07
5.29182e-07
5.09465e-07
4.89666e-07
4.68969e-07
4.49168e-07
4.31777e-07
4.16868e-07
4.02202e-07
3.86647e-07
3.71458e-07
3.53785e-07
3.52098e-07
3.17866e-07
3.73246e-07
2.04246e-07
7.64159e-07
8.49074e-07
1.61363e-06
6.81522e-07
6.30838e-07
6.08635e-07
6.44351e-07
6.458e-07
6.57173e-07
6.6437e-07
6.71582e-07
6.7919e-07
6.85286e-07
6.91039e-07
6.96906e-07
7.01478e-07
7.05408e-07
7.0938e-07
7.12784e-07
7.14884e-07
7.17325e-07
7.19022e-07
7.20254e-07
7.21302e-07
7.21584e-07
7.21985e-07
7.22093e-07
7.21657e-07
7.21246e-07
7.20701e-07
7.19933e-07
7.19048e-07
7.17844e-07
7.16944e-07
7.15855e-07
7.14531e-07
7.12929e-07
7.11694e-07
7.10221e-07
7.08288e-07
7.06271e-07
7.04159e-07
7.01741e-07
6.98785e-07
6.95743e-07
6.91899e-07
6.87751e-07
6.83292e-07
6.77983e-07
6.72471e-07
6.66626e-07
6.60192e-07
6.5375e-07
6.4694e-07
6.39741e-07
6.324e-07
6.24287e-07
6.15411e-07
6.05843e-07
5.95329e-07
5.83862e-07
5.71867e-07
5.59186e-07
5.45935e-07
5.32154e-07
5.17593e-07
5.02465e-07
4.86809e-07
4.7086e-07
4.53868e-07
4.37635e-07
4.23129e-07
4.10407e-07
3.979e-07
3.8471e-07
3.71976e-07
3.5886e-07
3.59181e-07
3.32438e-07
3.71744e-07
2.20323e-07
7.49683e-07
8.41231e-07
1.55937e-06
5.59655e-07
5.23934e-07
5.07397e-07
5.31525e-07
5.31627e-07
5.39029e-07
5.42743e-07
5.47116e-07
5.51944e-07
5.55231e-07
5.58929e-07
5.62702e-07
5.65299e-07
5.6772e-07
5.70664e-07
5.72848e-07
5.74139e-07
5.76289e-07
5.77371e-07
5.78741e-07
5.79978e-07
5.80262e-07
5.81293e-07
5.82213e-07
5.8237e-07
5.82981e-07
5.83324e-07
5.8373e-07
5.84278e-07
5.84464e-07
5.84848e-07
5.85434e-07
5.85633e-07
5.85825e-07
5.86515e-07
5.86683e-07
5.8681e-07
5.86894e-07
5.86909e-07
5.86596e-07
5.86091e-07
5.85315e-07
5.8399e-07
5.82683e-07
5.80754e-07
5.78453e-07
5.76098e-07
5.73424e-07
5.70453e-07
5.67535e-07
5.64482e-07
5.61079e-07
5.57606e-07
5.53463e-07
5.48617e-07
5.43048e-07
5.36596e-07
5.29259e-07
5.21402e-07
5.12943e-07
5.0397e-07
4.94489e-07
4.84337e-07
4.73614e-07
4.62253e-07
4.50423e-07
4.3747e-07
4.25055e-07
4.13606e-07
4.03257e-07
3.93154e-07
3.82667e-07
3.72959e-07
3.65001e-07
3.67528e-07
3.47988e-07
3.69119e-07
2.37893e-07
7.49027e-07
8.34317e-07
1.55714e-06
4.57325e-07
4.31015e-07
4.17497e-07
4.34483e-07
4.34052e-07
4.37909e-07
4.40195e-07
4.43397e-07
4.45034e-07
4.47504e-07
4.50117e-07
4.51875e-07
4.53531e-07
4.55332e-07
4.57397e-07
4.58456e-07
4.59981e-07
4.61462e-07
4.62235e-07
4.638e-07
4.65052e-07
4.65602e-07
4.66914e-07
4.68093e-07
4.68747e-07
4.70191e-07
4.71097e-07
4.72119e-07
4.73538e-07
4.74697e-07
4.75856e-07
4.77476e-07
4.78691e-07
4.80066e-07
4.81819e-07
4.83131e-07
4.8455e-07
4.86034e-07
4.8735e-07
4.88436e-07
4.8955e-07
4.90263e-07
4.90868e-07
4.91368e-07
4.91323e-07
4.91341e-07
4.91304e-07
4.91069e-07
4.90854e-07
4.90675e-07
4.90604e-07
4.90287e-07
4.898e-07
4.88942e-07
4.87328e-07
4.85068e-07
4.82052e-07
4.78249e-07
4.74059e-07
4.69358e-07
4.64227e-07
4.5871e-07
4.526e-07
4.45882e-07
4.38531e-07
4.30561e-07
4.2145e-07
4.12667e-07
4.04125e-07
3.96127e-07
3.88509e-07
3.80856e-07
3.74563e-07
3.71803e-07
3.76804e-07
3.62815e-07
3.68053e-07
2.55417e-07
7.55999e-07
8.12757e-07
1.55666e-06
3.73133e-07
3.33802e-07
3.51262e-07
3.3822e-07
3.52908e-07
3.51e-07
3.53289e-07
3.552e-07
3.56964e-07
3.5782e-07
3.59412e-07
3.61195e-07
3.62426e-07
3.63454e-07
3.64968e-07
3.66562e-07
3.67228e-07
3.68842e-07
3.70066e-07
3.71061e-07
3.72663e-07
3.73748e-07
3.75052e-07
3.76394e-07
3.77808e-07
3.79201e-07
3.80884e-07
3.82427e-07
3.83948e-07
3.85961e-07
3.87781e-07
3.89553e-07
3.91893e-07
3.93793e-07
3.95989e-07
3.98473e-07
4.00512e-07
4.02857e-07
4.05219e-07
4.07354e-07
4.0952e-07
4.1159e-07
4.13479e-07
4.15351e-07
4.17001e-07
4.18585e-07
4.20178e-07
4.21805e-07
4.23494e-07
4.2529e-07
4.27178e-07
4.29258e-07
4.31198e-07
4.32933e-07
4.34438e-07
4.35208e-07
4.35451e-07
4.35097e-07
4.3408e-07
4.32823e-07
4.31219e-07
4.29269e-07
4.27051e-07
4.2431e-07
4.20983e-07
4.17058e-07
4.12437e-07
4.06716e-07
4.01131e-07
3.95188e-07
3.89402e-07
3.84244e-07
3.79472e-07
3.76844e-07
3.79126e-07
3.86513e-07
3.76319e-07
3.68218e-07
2.76867e-07
7.66877e-07
7.85115e-07
1.55579e-06
3.01993e-07
2.69252e-07
2.8275e-07
2.71346e-07
2.83914e-07
2.81756e-07
2.83804e-07
2.84534e-07
2.85925e-07
2.8694e-07
2.87595e-07
2.88987e-07
2.90018e-07
2.91175e-07
2.92291e-07
2.9344e-07
2.94424e-07
2.95909e-07
2.97241e-07
2.98379e-07
2.99796e-07
3.01118e-07
3.02972e-07
3.04319e-07
3.0607e-07
3.0783e-07
3.09649e-07
3.11836e-07
3.13685e-07
3.16031e-07
3.18264e-07
3.20673e-07
3.23329e-07
3.25764e-07
3.28513e-07
3.31426e-07
3.34145e-07
3.36951e-07
3.3996e-07
3.42776e-07
3.45641e-07
3.48513e-07
3.51214e-07
3.54027e-07
3.56754e-07
3.59553e-07
3.62402e-07
3.65346e-07
3.68559e-07
3.71921e-07
3.75351e-07
3.79016e-07
3.82618e-07
3.85974e-07
3.89207e-07
3.91781e-07
3.93913e-07
3.95642e-07
3.9689e-07
3.98006e-07
3.9891e-07
3.99587e-07
4.00048e-07
4.00103e-07
3.99604e-07
3.98538e-07
3.96795e-07
3.94025e-07
3.91217e-07
3.87589e-07
3.83895e-07
3.81107e-07
3.7921e-07
3.80356e-07
3.87361e-07
3.96755e-07
3.88869e-07
3.7054e-07
3.05748e-07
7.81793e-07
7.52779e-07
1.55609e-06
2.41026e-07
2.14634e-07
2.24446e-07
2.1507e-07
2.25444e-07
2.23973e-07
2.25554e-07
2.2629e-07
2.27721e-07
2.28165e-07
2.29156e-07
2.30584e-07
2.31395e-07
2.32681e-07
2.33885e-07
2.3488e-07
2.36342e-07
2.37766e-07
2.39269e-07
2.40509e-07
2.42158e-07
2.43971e-07
2.45621e-07
2.47434e-07
2.4952e-07
2.51303e-07
2.53616e-07
2.56034e-07
2.58073e-07
2.60737e-07
2.63227e-07
2.66006e-07
2.68853e-07
2.7153e-07
2.74616e-07
2.77854e-07
2.80757e-07
2.8395e-07
2.87315e-07
2.90472e-07
2.93735e-07
2.97196e-07
3.00394e-07
3.03794e-07
3.07398e-07
3.10917e-07
3.14708e-07
3.18606e-07
3.2284e-07
3.27213e-07
3.31677e-07
3.36433e-07
3.4106e-07
3.4553e-07
3.49949e-07
3.53833e-07
3.57406e-07
3.60772e-07
3.63851e-07
3.66894e-07
3.69806e-07
3.72635e-07
3.75319e-07
3.77634e-07
3.79508e-07
3.80856e-07
3.8156e-07
3.81337e-07
3.80875e-07
3.79293e-07
3.7764e-07
3.77253e-07
3.78314e-07
3.83338e-07
3.9456e-07
4.05037e-07
3.97675e-07
3.72596e-07
3.39135e-07
8.00356e-07
7.13008e-07
1.56067e-06
2.01975e-07
1.81018e-07
1.89211e-07
1.81069e-07
1.89994e-07
1.88676e-07
1.89472e-07
1.90645e-07
1.91524e-07
1.91831e-07
1.92895e-07
1.93995e-07
1.9474e-07
1.9565e-07
1.96889e-07
1.97773e-07
1.99178e-07
2.00482e-07
2.01592e-07
2.02917e-07
2.04593e-07
2.06284e-07
2.07643e-07
2.09359e-07
2.11613e-07
2.13205e-07
2.15377e-07
2.17701e-07
2.19817e-07
2.22281e-07
2.24828e-07
2.27509e-07
2.30312e-07
2.33072e-07
2.36196e-07
2.39395e-07
2.42423e-07
2.45853e-07
2.49319e-07
2.52831e-07
2.56328e-07
2.60228e-07
2.63956e-07
2.6792e-07
2.72156e-07
2.76276e-07
2.80875e-07
2.85463e-07
2.9035e-07
2.95405e-07
3.00568e-07
3.05936e-07
3.11204e-07
3.165e-07
3.21679e-07
3.26568e-07
3.31321e-07
3.3596e-07
3.4047e-07
3.45021e-07
3.49479e-07
3.53947e-07
3.58327e-07
3.62369e-07
3.66148e-07
3.6945e-07
3.72153e-07
3.74087e-07
3.75698e-07
3.76031e-07
3.76192e-07
3.77793e-07
3.813e-07
3.89583e-07
4.03928e-07
4.14696e-07
4.07922e-07
3.8319e-07
3.88411e-07
8.29054e-07
6.75995e-07
1.58199e-06
1.64559e-07
1.46778e-07
1.53377e-07
1.46167e-07
1.55358e-07
1.54043e-07
1.55423e-07
1.56619e-07
1.57034e-07
1.57731e-07
1.59227e-07
1.60411e-07
1.61394e-07
1.62286e-07
1.63625e-07
1.65055e-07
1.665e-07
1.6775e-07
1.68919e-07
1.70917e-07
1.72464e-07
1.7414e-07
1.75806e-07
1.77508e-07
1.79881e-07
1.81681e-07
1.83751e-07
1.8598e-07
1.8832e-07
1.90721e-07
1.93084e-07
1.95862e-07
1.98405e-07
2.01185e-07
2.04218e-07
2.0715e-07
2.10201e-07
2.13347e-07
2.16844e-07
2.20262e-07
2.23659e-07
2.27539e-07
2.31342e-07
2.35322e-07
2.3949e-07
2.43815e-07
2.48352e-07
2.52967e-07
2.57803e-07
2.62768e-07
2.67939e-07
2.73163e-07
2.78507e-07
2.83933e-07
2.89293e-07
2.94619e-07
2.99982e-07
3.05353e-07
3.10704e-07
3.16212e-07
3.21694e-07
3.27285e-07
3.32842e-07
3.38175e-07
3.43363e-07
3.48103e-07
3.52314e-07
3.55816e-07
3.58619e-07
3.60114e-07
3.6211e-07
3.66143e-07
3.72891e-07
3.85205e-07
4.02126e-07
4.10562e-07
4.00167e-07
3.77229e-07
4.20665e-07
8.46836e-07
6.13266e-07
1.61909e-06
1.73329e-07
1.61048e-07
1.65715e-07
1.60488e-07
1.65036e-07
1.64063e-07
1.65161e-07
1.65742e-07
1.65587e-07
1.66042e-07
1.67016e-07
1.67816e-07
1.6832e-07
1.68659e-07
1.69558e-07
1.70507e-07
1.71313e-07
1.72089e-07
1.72772e-07
1.74231e-07
1.75254e-07
1.76201e-07
1.77432e-07
1.78716e-07
1.80338e-07
1.81752e-07
1.8339e-07
1.85051e-07
1.87004e-07
1.89039e-07
1.91041e-07
1.93535e-07
1.95836e-07
1.98556e-07
2.01429e-07
2.04421e-07
2.07603e-07
2.10937e-07
2.14746e-07
2.18423e-07
2.22425e-07
2.2666e-07
2.30928e-07
2.35337e-07
2.39894e-07
2.44555e-07
2.49125e-07
2.53895e-07
2.58665e-07
2.63534e-07
2.68664e-07
2.7388e-07
2.79411e-07
2.85071e-07
2.90915e-07
2.96834e-07
3.02807e-07
3.08794e-07
3.1464e-07
3.2055e-07
3.26377e-07
3.32298e-07
3.38236e-07
3.44103e-07
3.49915e-07
3.55405e-07
3.60579e-07
3.65333e-07
3.69934e-07
3.73328e-07
3.76119e-07
3.80193e-07
3.86499e-07
3.97905e-07
4.13271e-07
4.2019e-07
4.15158e-07
4.14286e-07
5.10574e-07
8.95249e-07
6.33996e-07
1.77977e-06
1.31596e-07
1.33153e-07
1.31599e-07
1.34617e-07
1.36014e-07
1.36495e-07
1.37292e-07
1.3787e-07
1.38761e-07
1.39704e-07
1.40287e-07
1.41213e-07
1.42145e-07
1.43121e-07
1.44075e-07
1.45e-07
1.46134e-07
1.47205e-07
1.48303e-07
1.49543e-07
1.5067e-07
1.51992e-07
1.53231e-07
1.54566e-07
1.56018e-07
1.57507e-07
1.59019e-07
1.60548e-07
1.62279e-07
1.63956e-07
1.65768e-07
1.67675e-07
1.69572e-07
1.71693e-07
1.73794e-07
1.76079e-07
1.78411e-07
1.80846e-07
1.83415e-07
1.8595e-07
1.88666e-07
1.91365e-07
1.94072e-07
1.9678e-07
1.99552e-07
2.0225e-07
2.0496e-07
2.07803e-07
2.107e-07
2.13848e-07
2.17208e-07
2.20852e-07
2.24822e-07
2.28972e-07
2.33406e-07
2.37973e-07
2.42746e-07
2.47651e-07
2.52671e-07
2.58013e-07
2.63526e-07
2.69326e-07
2.75285e-07
2.81318e-07
2.87355e-07
2.93079e-07
2.98472e-07
3.03274e-07
3.05991e-07
3.07104e-07
3.11105e-07
3.1942e-07
3.32403e-07
3.52136e-07
3.70583e-07
3.68276e-07
3.46871e-07
3.54141e-07
4.99956e-07
7.63736e-07
5.75806e-07
1.79265e-06
)
;

boundaryField
{
    inlet
    {
        type            calculated;
        value           nonuniform List<scalar> 
23
(
6.78296e-06
6.74895e-06
6.71595e-06
6.68391e-06
6.65215e-06
6.61992e-06
6.58629e-06
6.55059e-06
6.51186e-06
6.4693e-06
6.42179e-06
6.36972e-06
6.30993e-06
6.21614e-06
6.13776e-06
6.04256e-06
5.92426e-06
5.78016e-06
5.60693e-06
5.40381e-06
5.1622e-06
4.97834e-06
4.62616e-06
)
;
    }
    outlet
    {
        type            calculated;
        value           nonuniform List<scalar> 
82
(
1.04718e-07
1.0452e-07
1.06833e-07
1.0805e-07
1.09582e-07
1.09967e-07
1.10726e-07
1.11222e-07
1.12083e-07
1.13001e-07
1.13483e-07
1.14361e-07
1.1525e-07
1.16176e-07
1.17076e-07
1.17929e-07
1.19024e-07
1.2004e-07
1.21075e-07
1.2228e-07
1.23334e-07
1.24606e-07
1.25782e-07
1.27053e-07
1.28451e-07
1.29877e-07
1.3132e-07
1.32758e-07
1.3442e-07
1.35995e-07
1.37697e-07
1.39492e-07
1.41236e-07
1.43214e-07
1.45129e-07
1.47218e-07
1.49324e-07
1.51507e-07
1.53809e-07
1.56027e-07
1.58429e-07
1.60783e-07
1.63124e-07
1.65459e-07
1.67868e-07
1.70202e-07
1.72561e-07
1.75095e-07
1.77698e-07
1.80589e-07
1.83696e-07
1.87079e-07
1.90764e-07
1.94572e-07
1.9863e-07
2.02792e-07
2.0719e-07
2.11797e-07
2.16638e-07
2.21973e-07
2.27616e-07
2.33651e-07
2.39888e-07
2.46185e-07
2.52464e-07
2.58353e-07
2.63748e-07
2.68216e-07
2.69986e-07
2.70199e-07
2.74368e-07
2.84028e-07
2.99818e-07
3.23606e-07
3.45135e-07
3.41096e-07
3.0944e-07
3.03267e-07
4.48031e-07
7.34272e-07
4.68518e-07
1.62421e-06
)
;
    }
    walls
    {
        type            calculated;
        value           nonuniform List<scalar> 0();
    }
    frontAndBack
    {
        type            empty;
    }
    procBoundary3to2
    {
        type            processor;
        value           nonuniform List<scalar> 
88
(
8.22949e-07
1.6052e-06
1.87196e-07
7.44923e-07
7.44923e-07
1.92304e-07
3.16022e-07
3.16022e-07
3.7322e-07
3.2666e-07
3.04515e-07
3.04515e-07
5.42729e-07
5.01217e-07
4.67176e-07
4.35684e-07
4.03041e-07
4.03041e-07
7.75443e-07
7.24791e-07
6.74325e-07
6.25198e-07
5.77261e-07
5.77261e-07
1.08024e-06
1.03076e-06
9.8174e-07
9.33533e-07
8.86258e-07
8.39744e-07
7.93505e-07
7.93505e-07
1.51654e-06
1.47722e-06
1.43719e-06
1.39659e-06
1.35549e-06
1.31404e-06
1.27233e-06
1.23041e-06
1.18832e-06
1.14595e-06
1.10326e-06
1.06017e-06
1.06017e-06
1.03708e-06
1.54501e-06
1.62883e-06
1.47812e-06
1.52407e-06
1.57155e-06
1.61149e-06
1.64502e-06
1.67477e-06
1.7014e-06
1.72629e-06
1.74787e-06
1.76622e-06
1.78182e-06
1.79411e-06
1.80361e-06
1.81006e-06
1.81358e-06
1.81458e-06
1.813e-06
1.80909e-06
1.80302e-06
1.79485e-06
1.78491e-06
1.77339e-06
1.76018e-06
1.74563e-06
1.72983e-06
1.71283e-06
1.6947e-06
1.67546e-06
1.65532e-06
1.63413e-06
1.61195e-06
1.58894e-06
1.5649e-06
1.53998e-06
1.51412e-06
1.48726e-06
1.45953e-06
1.43084e-06
1.4012e-06
1.4012e-06
)
;
    }
    procBoundary3to6
    {
        type            processor;
        value           uniform 7.39018e-08;
    }
    procBoundary3to7
    {
        type            processor;
        value           nonuniform List<scalar> 
16
(
1.18419e-08
9.44316e-07
9.70897e-07
7.52619e-07
6.579e-07
5.79416e-07
4.90399e-07
4.07798e-07
4.07798e-07
3.30447e-07
2.67096e-07
2.12693e-07
1.79178e-07
1.4639e-07
1.57991e-07
1.35234e-07
)
;
    }
}


// ************************************************************************* //
