/*--------------------------------*- C++ -*----------------------------------*\
| =========                 |                                                 |
| \\      /  F ield         | OpenFOAM: The Open Source CFD Toolbox           |
|  \\    /   O peration     | Version:  2306                                  |
|   \\  /    A nd           | Website:  www.openfoam.com                      |
|    \\/     M anipulation  |                                                 |
\*---------------------------------------------------------------------------*/
FoamFile
{
    version     2.0;
    format      ascii;
    arch        "LSB;label=32;scalar=64";
    class       volScalarField;
    location    "675";
    object      turbulenceProperties:epsilon;
}
// * * * * * * * * * * * * * * * * * * * * * * * * * * * * * * * * * * * * * //

dimensions      [0 2 -3 0 0 0 0];

internalField   nonuniform List<scalar> 
1340
(
3.77902e-10
1.46189e-09
1.88299e-11
3.1628e-10
3.75597e-10
1.46625e-09
2.28792e-11
5.91618e-11
1.80857e-11
3.18671e-10
3.75885e-10
1.46769e-09
7.82579e-11
6.06483e-11
5.33826e-11
2.51697e-11
6.19327e-11
1.76537e-11
3.21259e-10
3.77976e-10
1.4676e-09
1.59971e-10
1.37409e-10
1.20225e-10
1.05262e-10
9.07255e-11
7.80172e-11
6.12458e-11
5.46281e-11
2.77477e-11
6.46598e-11
1.74823e-11
3.23956e-10
3.81279e-10
1.46684e-09
3.15058e-10
2.76913e-10
2.41284e-10
2.08919e-10
1.79443e-10
1.5377e-10
1.33105e-10
1.17327e-10
1.03442e-10
8.98377e-11
7.78522e-11
6.19882e-11
5.60413e-11
3.05977e-11
6.72709e-11
1.75448e-11
3.2653e-10
3.85316e-10
1.46562e-09
5.83537e-10
5.34589e-10
4.87972e-10
4.43953e-10
4.02557e-10
3.6357e-10
3.26574e-10
2.91279e-10
2.5771e-10
2.26182e-10
1.97384e-10
1.709e-10
1.47642e-10
1.28862e-10
1.14466e-10
1.01651e-10
8.89945e-11
7.77381e-11
6.28595e-11
5.76039e-11
3.37091e-11
6.97097e-11
1.7823e-11
3.28931e-10
3.89705e-10
1.46339e-09
1.06035e-09
1.01229e-09
9.64085e-10
9.15955e-10
8.68177e-10
8.209e-10
7.74329e-10
7.28606e-10
6.83817e-10
6.39912e-10
5.9688e-10
5.54707e-10
5.13527e-10
4.73552e-10
4.35107e-10
3.98448e-10
3.63626e-10
3.30509e-10
2.98792e-10
2.68294e-10
2.39084e-10
2.1148e-10
1.86107e-10
1.62514e-10
1.41626e-10
1.247e-10
1.11649e-10
9.98877e-11
8.81887e-11
7.767e-11
6.38558e-11
5.93075e-11
3.70726e-11
7.19155e-11
1.83066e-11
3.31064e-10
3.93873e-10
1.46086e-09
1.02712e-09
1.09487e-09
8.55786e-10
9.10235e-10
9.11517e-10
9.95023e-10
1.04169e-09
1.08897e-09
1.13101e-09
1.1714e-09
1.20914e-09
1.24391e-09
1.27464e-09
1.30133e-09
1.32479e-09
1.34361e-09
1.35836e-09
1.36909e-09
1.37593e-09
1.37912e-09
1.37872e-09
1.37496e-09
1.36827e-09
1.35887e-09
1.34696e-09
1.33276e-09
1.31662e-09
1.29879e-09
1.27924e-09
1.25837e-09
1.23614e-09
1.21274e-09
1.18829e-09
1.16277e-09
1.13635e-09
1.10902e-09
1.08075e-09
1.05174e-09
1.0218e-09
9.91035e-10
9.59568e-10
9.27278e-10
8.94279e-10
8.60567e-10
8.2634e-10
7.91611e-10
7.56556e-10
7.21402e-10
6.86242e-10
6.51277e-10
6.16664e-10
5.82427e-10
5.48554e-10
5.15051e-10
4.8188e-10
4.49161e-10
4.17063e-10
3.85856e-10
3.55772e-10
3.2689e-10
2.99135e-10
2.72295e-10
2.46272e-10
2.21164e-10
1.97274e-10
1.75153e-10
1.54331e-10
1.35751e-10
1.2063e-10
1.08876e-10
9.81502e-11
8.74108e-11
7.76403e-11
6.49734e-11
6.11484e-11
4.0679e-11
7.38485e-11
1.89829e-11
3.32696e-10
3.97592e-10
1.45843e-09
1.0799e-09
6.8485e-10
5.74521e-10
6.86349e-10
7.11914e-10
7.5833e-10
7.87467e-10
8.20307e-10
8.50183e-10
8.78976e-10
9.05646e-10
9.29977e-10
9.51731e-10
9.708e-10
9.87412e-10
1.00087e-09
1.0116e-09
1.0198e-09
1.02523e-09
1.02814e-09
1.02875e-09
1.02712e-09
1.02348e-09
1.01808e-09
1.01095e-09
1.00235e-09
9.92536e-10
9.81436e-10
9.69291e-10
9.56224e-10
9.42235e-10
9.27475e-10
9.1192e-10
8.9568e-10
8.78749e-10
8.61096e-10
8.42795e-10
8.23821e-10
8.04118e-10
7.83698e-10
7.62562e-10
7.40726e-10
7.18107e-10
6.94762e-10
6.7082e-10
6.46207e-10
6.21139e-10
5.95715e-10
5.70054e-10
5.44324e-10
5.18632e-10
4.92992e-10
4.67401e-10
4.4185e-10
4.16276e-10
3.90764e-10
3.65434e-10
3.40517e-10
3.16211e-10
2.92602e-10
2.6967e-10
2.47277e-10
2.25375e-10
2.04074e-10
1.83654e-10
1.64591e-10
1.46397e-10
1.30041e-10
1.16658e-10
1.06145e-10
9.64326e-11
8.66512e-11
7.76458e-11
6.62064e-11
6.31226e-11
4.45067e-11
7.5478e-11
1.9814e-11
3.34118e-10
4.00417e-10
1.45715e-09
6.30523e-10
4.88101e-10
4.53825e-10
5.42113e-10
5.52627e-10
5.81159e-10
6.01962e-10
6.24664e-10
6.45615e-10
6.65492e-10
6.83554e-10
7.00403e-10
7.15334e-10
7.28424e-10
7.39709e-10
7.49082e-10
7.56524e-10
7.62373e-10
7.66357e-10
7.68552e-10
7.69374e-10
7.68742e-10
7.66802e-10
7.63539e-10
7.59354e-10
7.5422e-10
7.48169e-10
7.41373e-10
7.3391e-10
7.25827e-10
7.17175e-10
7.0803e-10
6.98346e-10
6.88206e-10
6.77619e-10
6.66532e-10
6.54956e-10
6.42872e-10
6.30255e-10
6.17029e-10
6.03221e-10
5.88797e-10
5.73647e-10
5.57893e-10
5.41482e-10
5.24419e-10
5.06887e-10
4.88902e-10
4.70605e-10
4.52113e-10
4.33489e-10
4.14759e-10
3.95913e-10
3.76891e-10
3.57619e-10
3.38158e-10
3.18577e-10
2.99042e-10
2.79743e-10
2.60777e-10
2.42143e-10
2.23762e-10
2.05615e-10
1.87828e-10
1.70627e-10
1.54408e-10
1.38703e-10
1.24487e-10
1.12765e-10
1.03429e-10
9.47187e-11
8.5893e-11
7.76769e-11
6.75566e-11
6.52345e-11
4.85324e-11
7.68045e-11
2.0805e-11
3.34424e-10
4.02985e-10
1.45796e-09
4.57384e-10
3.9052e-10
3.67275e-10
4.24591e-10
4.29449e-10
4.49262e-10
4.63766e-10
4.79213e-10
4.93328e-10
5.06701e-10
5.18878e-10
5.3013e-10
5.40133e-10
5.48895e-10
5.5646e-10
5.62826e-10
5.67866e-10
5.71881e-10
5.74691e-10
5.76364e-10
5.77158e-10
5.77024e-10
5.75999e-10
5.74192e-10
5.71877e-10
5.68802e-10
5.65225e-10
5.61249e-10
5.56769e-10
5.51944e-10
5.46744e-10
5.4128e-10
5.35425e-10
5.2933e-10
5.22919e-10
5.16164e-10
5.0909e-10
5.01649e-10
4.9378e-10
4.85487e-10
4.76709e-10
4.67402e-10
4.57539e-10
4.47125e-10
4.36105e-10
4.2456e-10
4.12544e-10
4.00101e-10
3.87358e-10
3.74378e-10
3.61223e-10
3.47893e-10
3.34378e-10
3.20546e-10
3.0637e-10
2.9185e-10
2.7697e-10
2.61938e-10
2.4688e-10
2.31872e-10
2.16978e-10
2.02139e-10
1.8733e-10
1.727e-10
1.58414e-10
1.44788e-10
1.3139e-10
1.1918e-10
1.09018e-10
1.00787e-10
9.30433e-11
8.51557e-11
7.77566e-11
6.90257e-11
6.74875e-11
5.26616e-11
7.78612e-11
2.17599e-11
3.34073e-10
4.04046e-10
1.465e-09
3.58145e-10
3.06808e-10
2.86707e-10
3.25324e-10
3.28431e-10
3.41878e-10
3.51458e-10
3.61626e-10
3.70714e-10
3.79533e-10
3.87496e-10
3.94767e-10
4.01364e-10
4.07025e-10
4.1201e-10
4.16299e-10
4.19677e-10
4.22348e-10
4.24384e-10
4.25706e-10
4.26472e-10
4.26639e-10
4.26281e-10
4.25531e-10
4.24349e-10
4.22758e-10
4.20995e-10
4.18885e-10
4.16457e-10
4.13825e-10
4.11144e-10
4.08172e-10
4.05072e-10
4.01687e-10
3.98181e-10
3.9466e-10
3.90637e-10
3.86458e-10
3.82032e-10
3.77297e-10
3.72097e-10
3.66579e-10
3.60582e-10
3.54055e-10
3.47173e-10
3.39739e-10
3.31932e-10
3.23806e-10
3.15339e-10
3.06729e-10
2.97908e-10
2.8889e-10
2.79704e-10
2.70123e-10
2.60119e-10
2.49734e-10
2.38841e-10
2.27621e-10
2.16262e-10
2.04726e-10
1.93152e-10
1.81536e-10
1.69786e-10
1.58067e-10
1.46504e-10
1.35335e-10
1.24133e-10
1.1387e-10
1.05221e-10
9.80795e-11
9.12994e-11
8.43732e-11
7.78726e-11
7.06358e-11
6.99605e-11
5.70184e-11
7.8629e-11
2.36175e-11
3.29912e-10
4.08259e-10
1.47289e-09
2.62159e-10
2.24576e-10
2.09055e-10
2.34307e-10
2.35363e-10
2.43728e-10
2.49097e-10
2.54536e-10
2.60337e-10
2.65033e-10
2.69503e-10
2.741e-10
2.77709e-10
2.80831e-10
2.84004e-10
2.86737e-10
2.8843e-10
2.90404e-10
2.9178e-10
2.92782e-10
2.93635e-10
2.93865e-10
2.94192e-10
2.94281e-10
2.93927e-10
2.93592e-10
2.93149e-10
2.92525e-10
2.91808e-10
2.90832e-10
2.90104e-10
2.89224e-10
2.88156e-10
2.86866e-10
2.85874e-10
2.84694e-10
2.83147e-10
2.81538e-10
2.79859e-10
2.77941e-10
2.75606e-10
2.73213e-10
2.70203e-10
2.66975e-10
2.63525e-10
2.59448e-10
2.55248e-10
2.50831e-10
2.46013e-10
2.41238e-10
2.3624e-10
2.31014e-10
2.25745e-10
2.19993e-10
2.13784e-10
2.07192e-10
2.00065e-10
1.92433e-10
1.84608e-10
1.76511e-10
1.68243e-10
1.59853e-10
1.51222e-10
1.42508e-10
1.33763e-10
1.25138e-10
1.16267e-10
1.08097e-10
1.01048e-10
9.50626e-11
8.93563e-11
8.35292e-11
7.80891e-11
7.26762e-11
7.28025e-11
6.23647e-11
7.79943e-11
2.74589e-11
3.17526e-10
4.00827e-10
1.37589e-09
1.76789e-10
1.54917e-10
1.45296e-10
1.5944e-10
1.59501e-10
1.63975e-10
1.66243e-10
1.68933e-10
1.71929e-10
1.73983e-10
1.76309e-10
1.78698e-10
1.80352e-10
1.81901e-10
1.83792e-10
1.85203e-10
1.86039e-10
1.87435e-10
1.8814e-10
1.89034e-10
1.89843e-10
1.9003e-10
1.90706e-10
1.91311e-10
1.91414e-10
1.91816e-10
1.92042e-10
1.9231e-10
1.92672e-10
1.92795e-10
1.93049e-10
1.93437e-10
1.93569e-10
1.93697e-10
1.94154e-10
1.94266e-10
1.94351e-10
1.94408e-10
1.94419e-10
1.94212e-10
1.93879e-10
1.93367e-10
1.92493e-10
1.91634e-10
1.90368e-10
1.88863e-10
1.8733e-10
1.85596e-10
1.83679e-10
1.81806e-10
1.79856e-10
1.77696e-10
1.75506e-10
1.7291e-10
1.69897e-10
1.66468e-10
1.62537e-10
1.58124e-10
1.53464e-10
1.48524e-10
1.43371e-10
1.38025e-10
1.32413e-10
1.26611e-10
1.20607e-10
1.1451e-10
1.08016e-10
1.01971e-10
9.655e-11
9.17787e-11
8.72366e-11
8.26438e-11
7.85014e-11
7.51832e-11
7.62241e-11
6.83344e-11
7.68938e-11
3.19934e-11
3.16965e-10
3.94408e-10
1.37235e-09
1.18048e-10
1.04842e-10
9.83712e-11
1.06537e-10
1.06326e-10
1.08224e-10
1.09357e-10
1.10954e-10
1.11776e-10
1.1302e-10
1.14344e-10
1.15239e-10
1.16086e-10
1.1701e-10
1.18074e-10
1.18621e-10
1.19412e-10
1.20182e-10
1.20586e-10
1.21404e-10
1.2206e-10
1.2235e-10
1.2304e-10
1.23662e-10
1.24009e-10
1.24774e-10
1.25255e-10
1.258e-10
1.26557e-10
1.27178e-10
1.278e-10
1.28673e-10
1.29329e-10
1.30073e-10
1.31026e-10
1.31741e-10
1.32516e-10
1.3333e-10
1.34053e-10
1.34653e-10
1.35268e-10
1.35663e-10
1.35998e-10
1.36277e-10
1.36252e-10
1.36262e-10
1.36243e-10
1.36113e-10
1.35995e-10
1.35897e-10
1.35859e-10
1.35685e-10
1.35418e-10
1.34946e-10
1.34058e-10
1.32819e-10
1.31174e-10
1.29112e-10
1.2686e-10
1.24355e-10
1.21649e-10
1.18773e-10
1.15627e-10
1.12218e-10
1.08545e-10
1.04633e-10
1.00249e-10
9.61125e-11
9.21736e-11
8.85611e-11
8.51869e-11
8.18626e-11
7.91769e-11
7.80104e-11
8.01193e-11
7.42805e-11
7.64481e-11
3.68618e-11
3.22858e-10
3.74386e-10
1.37156e-09
7.85844e-11
6.28836e-11
6.96333e-11
6.45601e-11
7.0288e-11
6.95301e-11
7.04402e-11
7.12043e-11
7.19133e-11
7.22589e-11
7.29034e-11
7.36287e-11
7.41316e-11
7.45526e-11
7.51754e-11
7.58335e-11
7.61093e-11
7.67798e-11
7.72904e-11
7.77069e-11
7.83794e-11
7.88364e-11
7.93879e-11
7.9957e-11
8.05591e-11
8.11542e-11
8.18764e-11
8.25413e-11
8.31995e-11
8.40744e-11
8.48696e-11
8.56472e-11
8.66797e-11
8.75224e-11
8.85016e-11
8.96162e-11
9.05357e-11
9.15997e-11
9.26772e-11
9.3657e-11
9.46562e-11
9.56157e-11
9.64958e-11
9.73721e-11
9.81478e-11
9.88953e-11
9.96501e-11
1.00423e-10
1.0123e-10
1.02091e-10
1.03001e-10
1.04007e-10
1.04951e-10
1.05799e-10
1.06537e-10
1.06917e-10
1.07037e-10
1.06864e-10
1.06366e-10
1.0575e-10
1.04966e-10
1.04017e-10
1.02943e-10
1.01624e-10
1.00033e-10
9.81742e-11
9.60084e-11
9.33612e-11
9.08132e-11
8.81417e-11
8.55792e-11
8.33263e-11
8.12679e-11
8.01427e-11
8.11122e-11
8.43e-11
7.99123e-11
7.65149e-11
4.32946e-11
3.32171e-10
3.49433e-10
1.36994e-09
5.14749e-11
4.09148e-11
4.51193e-11
4.1554e-11
4.54919e-11
4.4803e-11
4.54566e-11
4.56909e-11
4.61385e-11
4.64668e-11
4.66792e-11
4.71324e-11
4.74691e-11
4.7849e-11
4.82164e-11
4.85962e-11
4.89228e-11
4.94178e-11
4.98635e-11
5.02462e-11
5.07247e-11
5.11732e-11
5.18052e-11
5.2267e-11
5.28703e-11
5.34803e-11
5.41145e-11
5.48817e-11
5.55345e-11
5.63686e-11
5.71683e-11
5.80371e-11
5.90027e-11
5.98948e-11
6.09105e-11
6.19954e-11
6.30173e-11
6.40803e-11
6.52304e-11
6.63159e-11
6.74291e-11
6.85549e-11
6.96218e-11
7.0742e-11
7.18361e-11
7.29681e-11
7.41294e-11
7.53394e-11
7.66707e-11
7.80765e-11
7.9524e-11
8.10857e-11
8.26355e-11
8.40925e-11
8.55085e-11
8.66442e-11
8.7591e-11
8.83619e-11
8.892e-11
8.94201e-11
8.98255e-11
9.01293e-11
9.03354e-11
9.03577e-11
9.01304e-11
8.96479e-11
8.88633e-11
8.7625e-11
8.63789e-11
8.47837e-11
8.3175e-11
8.19703e-11
8.11544e-11
8.16419e-11
8.46724e-11
8.88256e-11
8.53308e-11
7.74811e-11
5.27809e-11
3.45163e-10
3.21332e-10
1.37032e-09
3.27887e-11
2.59991e-11
2.84303e-11
2.61049e-11
2.86836e-11
2.83106e-11
2.87117e-11
2.88995e-11
2.92662e-11
2.93804e-11
2.96361e-11
3.00069e-11
3.02184e-11
3.05551e-11
3.08722e-11
3.11354e-11
3.15242e-11
3.19055e-11
3.23101e-11
3.26459e-11
3.30952e-11
3.35926e-11
3.40486e-11
3.45531e-11
3.51384e-11
3.56424e-11
3.63016e-11
3.69972e-11
3.75888e-11
3.83692e-11
3.91055e-11
3.99359e-11
4.07956e-11
4.1612e-11
4.25635e-11
4.35735e-11
4.44889e-11
4.55066e-11
4.65919e-11
4.76217e-11
4.86977e-11
4.98523e-11
5.09312e-11
5.20908e-11
5.33344e-11
5.45628e-11
5.59018e-11
5.72954e-11
5.8829e-11
6.04339e-11
6.20949e-11
6.38892e-11
6.56597e-11
6.73932e-11
6.91288e-11
7.06728e-11
7.21079e-11
7.34726e-11
7.47317e-11
7.59864e-11
7.71962e-11
7.83801e-11
7.95114e-11
8.04933e-11
8.12922e-11
8.18685e-11
8.21695e-11
8.20718e-11
8.18716e-11
8.11924e-11
8.04861e-11
8.032e-11
8.07699e-11
8.29256e-11
8.78469e-11
9.25708e-11
8.92388e-11
7.83424e-11
6.492e-11
3.61697e-10
2.88357e-10
1.37818e-09
2.30236e-11
1.84927e-11
2.02045e-11
1.85034e-11
2.03722e-11
2.00906e-11
2.02605e-11
2.05121e-11
2.07016e-11
2.0768e-11
2.09992e-11
2.12394e-11
2.14027e-11
2.16032e-11
2.18778e-11
2.20747e-11
2.23897e-11
2.26838e-11
2.29357e-11
2.32381e-11
2.36237e-11
2.40159e-11
2.43333e-11
2.47373e-11
2.52728e-11
2.56547e-11
2.61801e-11
2.67481e-11
2.72708e-11
2.78857e-11
2.85285e-11
2.9213e-11
2.99376e-11
3.06594e-11
3.14869e-11
3.23458e-11
3.31695e-11
3.41148e-11
3.50837e-11
3.60791e-11
3.70842e-11
3.82216e-11
3.93246e-11
4.05147e-11
4.18063e-11
4.3082e-11
4.45284e-11
4.59954e-11
4.7584e-11
4.92558e-11
5.09935e-11
5.28319e-11
5.46678e-11
5.65452e-11
5.84116e-11
6.02012e-11
6.19668e-11
6.37139e-11
6.54356e-11
6.71958e-11
6.89423e-11
7.07149e-11
7.24742e-11
7.41164e-11
7.56683e-11
7.70372e-11
7.81665e-11
7.89799e-11
7.96607e-11
7.98016e-11
7.98694e-11
8.05494e-11
8.20488e-11
8.56476e-11
9.20656e-11
9.70375e-11
9.38965e-11
8.28592e-11
8.51432e-11
3.88024e-10
2.59274e-10
1.41556e-09
1.52837e-11
1.21584e-11
1.32763e-11
1.20574e-11
1.36214e-11
1.33919e-11
1.36329e-11
1.38436e-11
1.3917e-11
1.40408e-11
1.43085e-11
1.45222e-11
1.47006e-11
1.48637e-11
1.51098e-11
1.53753e-11
1.56456e-11
1.58815e-11
1.61037e-11
1.6487e-11
1.67867e-11
1.71147e-11
1.74438e-11
1.77832e-11
1.82619e-11
1.86293e-11
1.90563e-11
1.95214e-11
2.00157e-11
2.05294e-11
2.10415e-11
2.16514e-11
2.22174e-11
2.28445e-11
2.35385e-11
2.42194e-11
2.49381e-11
2.56904e-11
2.65396e-11
2.73828e-11
2.82341e-11
2.92223e-11
3.02073e-11
3.12558e-11
3.23731e-11
3.35531e-11
3.48137e-11
3.61198e-11
3.75144e-11
3.89737e-11
4.05233e-11
4.21197e-11
4.37842e-11
4.55075e-11
4.72427e-11
4.89987e-11
5.07988e-11
5.26337e-11
5.44942e-11
5.64426e-11
5.84154e-11
6.04621e-11
6.25309e-11
6.45493e-11
6.65431e-11
6.83911e-11
7.00542e-11
7.14529e-11
7.25821e-11
7.31882e-11
7.40012e-11
7.56572e-11
7.8468e-11
8.37315e-11
9.12444e-11
9.51117e-11
9.03614e-11
8.0301e-11
9.98498e-11
4.04833e-10
2.13327e-10
1.48221e-09
1.69552e-11
1.46376e-11
1.54981e-11
1.45361e-11
1.53715e-11
1.51908e-11
1.53948e-11
1.55033e-11
1.54743e-11
1.55597e-11
1.57428e-11
1.58939e-11
1.59896e-11
1.60541e-11
1.62257e-11
1.64079e-11
1.65635e-11
1.67139e-11
1.68469e-11
1.71326e-11
1.73346e-11
1.75225e-11
1.77682e-11
1.80264e-11
1.83551e-11
1.86441e-11
1.89819e-11
1.93272e-11
1.97375e-11
2.01695e-11
2.0599e-11
2.11404e-11
2.16463e-11
2.22518e-11
2.29005e-11
2.35859e-11
2.43259e-11
2.51137e-11
2.60289e-11
2.69281e-11
2.79238e-11
2.89975e-11
3.00998e-11
3.12604e-11
3.24828e-11
3.37575e-11
3.50312e-11
3.6386e-11
3.77664e-11
3.92019e-11
4.07436e-11
4.23415e-11
4.40697e-11
4.58737e-11
4.77744e-11
4.97384e-11
5.17604e-11
5.38267e-11
5.58834e-11
5.80016e-11
6.01279e-11
6.23278e-11
6.45738e-11
6.68315e-11
6.91061e-11
7.12898e-11
7.3379e-11
7.53256e-11
7.72339e-11
7.86572e-11
7.98369e-11
8.15738e-11
8.4298e-11
8.93412e-11
9.63697e-11
9.96238e-11
9.72572e-11
9.68515e-11
1.47097e-10
4.5227e-10
2.27748e-10
1.78924e-09
9.77347e-12
1.00061e-11
9.77383e-12
1.02275e-11
1.0441e-11
1.05149e-11
1.06382e-11
1.07281e-11
1.08672e-11
1.10155e-11
1.11076e-11
1.12548e-11
1.1404e-11
1.15613e-11
1.17161e-11
1.18671e-11
1.20535e-11
1.22309e-11
1.24143e-11
1.26229e-11
1.28139e-11
1.30399e-11
1.32536e-11
1.34858e-11
1.37404e-11
1.40042e-11
1.42746e-11
1.45505e-11
1.48662e-11
1.51753e-11
1.55127e-11
1.58719e-11
1.62333e-11
1.6642e-11
1.70521e-11
1.75036e-11
1.79703e-11
1.84645e-11
1.8993e-11
1.95218e-11
2.00963e-11
2.06758e-11
2.12648e-11
2.18627e-11
2.24834e-11
2.30957e-11
2.37192e-11
2.43822e-11
2.50671e-11
2.58223e-11
2.66404e-11
2.75422e-11
2.85417e-11
2.96056e-11
3.07635e-11
3.19791e-11
3.32747e-11
3.46324e-11
3.60502e-11
3.75899e-11
3.92124e-11
4.09562e-11
4.27875e-11
4.46819e-11
4.66188e-11
4.84936e-11
5.02938e-11
5.19248e-11
5.28585e-11
5.32427e-11
5.46376e-11
5.75949e-11
6.23675e-11
6.99862e-11
7.75064e-11
7.65469e-11
6.79212e-11
7.07944e-11
1.41029e-10
3.29285e-10
1.87275e-10
1.81599e-09
)
;

boundaryField
{
    inlet
    {
        type            calculated;
        value           nonuniform List<scalar> 
23
(
2.36904e-08
2.34545e-08
2.32273e-08
2.30077e-08
2.27909e-08
2.25717e-08
2.23439e-08
2.21031e-08
2.18431e-08
2.15587e-08
2.12431e-08
2.0899e-08
2.05086e-08
1.9907e-08
1.9411e-08
1.88131e-08
1.8082e-08
1.72109e-08
1.61918e-08
1.5034e-08
1.3713e-08
1.27338e-08
1.09906e-08
)
;
    }
    outlet
    {
        type            calculated;
        value           nonuniform List<scalar> 
82
(
6.20715e-12
6.18409e-12
6.46056e-12
6.60898e-12
6.79805e-12
6.84603e-12
6.94103e-12
7.00366e-12
7.11266e-12
7.2299e-12
7.29188e-12
7.40543e-12
7.52128e-12
7.64287e-12
7.76193e-12
7.87579e-12
8.02295e-12
8.16082e-12
8.30241e-12
8.46877e-12
8.61579e-12
8.79473e-12
8.96174e-12
9.14408e-12
9.34685e-12
9.55577e-12
9.76964e-12
9.98497e-12
1.02368e-11
1.04784e-11
1.07427e-11
1.10248e-11
1.13024e-11
1.16216e-11
1.19345e-11
1.22809e-11
1.26349e-11
1.30071e-11
1.34056e-11
1.37951e-11
1.42233e-11
1.46494e-11
1.50793e-11
1.55142e-11
1.59697e-11
1.6417e-11
1.68755e-11
1.7375e-11
1.78956e-11
1.84826e-11
1.91238e-11
1.98342e-11
2.0623e-11
2.1454e-11
2.23575e-11
2.33037e-11
2.43245e-11
2.54168e-11
2.65899e-11
2.79132e-11
2.93473e-11
3.09205e-11
3.2589e-11
3.43182e-11
3.6087e-11
3.77863e-11
3.93782e-11
4.07226e-11
4.12619e-11
4.13266e-11
4.26086e-11
4.56529e-11
5.08509e-11
5.92121e-11
6.73288e-11
6.57675e-11
5.41835e-11
5.20873e-11
1.13493e-10
3.04988e-10
1.23861e-10
1.49355e-09
)
;
    }
    walls
    {
        type            calculated;
        value           nonuniform List<scalar> 0();
    }
    frontAndBack
    {
        type            empty;
    }
    procBoundary3to2
    {
        type            processor;
        value           nonuniform List<scalar> 
88
(
3.83368e-10
1.4564e-09
1.99024e-11
3.13624e-10
3.13624e-10
2.08761e-11
5.63908e-11
5.63908e-11
7.86172e-11
6.02241e-11
5.23345e-11
5.23345e-11
1.66255e-10
1.41792e-10
1.23185e-10
1.07136e-10
9.16831e-11
9.16831e-11
3.39431e-10
2.96531e-10
2.5667e-10
2.20628e-10
1.88088e-10
1.88088e-10
6.587e-10
5.99744e-10
5.44063e-10
4.91947e-10
4.43386e-10
3.98065e-10
3.55432e-10
3.55432e-10
1.29814e-09
1.23169e-09
1.16585e-09
1.10092e-09
1.03708e-09
9.74629e-10
9.13745e-10
8.54521e-10
7.97068e-10
7.41247e-10
6.87058e-10
6.34446e-10
6.34446e-10
6.07722e-10
1.33206e-09
1.48801e-09
1.23346e-09
1.31158e-09
1.39388e-09
1.46544e-09
1.52701e-09
1.5828e-09
1.63359e-09
1.68176e-09
1.72408e-09
1.7605e-09
1.79176e-09
1.81658e-09
1.83588e-09
1.84906e-09
1.85628e-09
1.85833e-09
1.85512e-09
1.84713e-09
1.83476e-09
1.81818e-09
1.7981e-09
1.77496e-09
1.74864e-09
1.71984e-09
1.68886e-09
1.65583e-09
1.62096e-09
1.58437e-09
1.54651e-09
1.50717e-09
1.46654e-09
1.42498e-09
1.38218e-09
1.33852e-09
1.29396e-09
1.24847e-09
1.20235e-09
1.15555e-09
1.10817e-09
1.10817e-09
)
;
    }
    procBoundary3to6
    {
        type            processor;
        value           uniform 1.79676e-12;
    }
    procBoundary3to7
    {
        type            processor;
        value           nonuniform List<scalar> 
16
(
3.32645e-14
5.02905e-10
5.25647e-10
3.19472e-10
2.44392e-10
1.89463e-10
1.35717e-10
9.38523e-11
9.38523e-11
6.16261e-11
4.02622e-11
2.55311e-11
1.81188e-11
1.20942e-11
1.40873e-11
1.03215e-11
)
;
    }
}


// ************************************************************************* //
