/*--------------------------------*- C++ -*----------------------------------*\
| =========                 |                                                 |
| \\      /  F ield         | OpenFOAM: The Open Source CFD Toolbox           |
|  \\    /   O peration     | Version:  2306                                  |
|   \\  /    A nd           | Website:  www.openfoam.com                      |
|    \\/     M anipulation  |                                                 |
\*---------------------------------------------------------------------------*/
FoamFile
{
    version     2.0;
    format      ascii;
    arch        "LSB;label=32;scalar=64";
    class       volSymmTensorField;
    location    "600";
    object      turbulenceProperties:devReff;
}
// * * * * * * * * * * * * * * * * * * * * * * * * * * * * * * * * * * * * * //

dimensions      [0 2 -2 0 0 0 0];

internalField   nonuniform List<symmTensor> 
1340
(
(0.00163714 0.0042578 -9.50054e-22 -0.00177373 -2.23883e-20 0.000136594)
(0.00238853 0.00488004 -1.24433e-22 -0.00248647 1.40368e-19 9.79406e-05)
(0.00361106 0.00546063 -2.7648e-20 -0.00380828 -4.34988e-19 0.000197225)
(0.00524593 0.00621489 1.19073e-19 -0.00549191 8.78824e-19 0.00024598)
(0.00742492 0.00687341 -2.25916e-19 -0.00769357 -8.34226e-19 0.000268644)
(0.010404 0.00726188 -1.72317e-19 -0.0107954 -4.50646e-19 0.000391443)
(0.014299 0.0073746 3.25999e-19 -0.0147853 1.25251e-18 0.000486258)
(0.0191877 0.00685906 -8.31323e-19 -0.0197702 -2.26133e-18 0.000582586)
(0.0252391 0.00535157 -2.0651e-19 -0.0259856 6.04419e-19 0.000746565)
(0.0325645 0.00260624 6.13778e-19 -0.033465 1.25948e-18 0.000900456)
(0.0413422 -0.00189799 1.57979e-18 -0.0424337 5.77707e-19 0.00109149)
(0.0519596 -0.008734 -3.5524e-18 -0.0532775 -3.29928e-18 0.00131783)
(0.0649577 -0.0188219 6.72791e-19 -0.0665509 8.68397e-19 0.00159319)
(0.081247 -0.0337493 2.68636e-18 -0.0832018 1.27312e-18 0.00195483)
(0.102368 -0.056169 -4.07746e-18 -0.104834 -6.36945e-18 0.00246626)
(0.13053 -0.0904045 -4.36536e-18 -0.133705 -2.58502e-18 0.00317454)
(0.169882 -0.14506 1.92126e-17 -0.174189 1.779e-17 0.00430664)
(0.224283 -0.232429 1.78591e-17 -0.230164 3.3791e-17 0.00588053)
(0.310933 -0.388888 -3.53878e-17 -0.319548 -5.48548e-17 0.00861517)
(0.426452 -0.64176 -1.37786e-18 -0.438627 1.45543e-17 0.0121748)
(0.666807 -1.2142 -2.7223e-17 -0.686202 5.20471e-17 0.0193947)
(0.945549 -2.11448 -1.24406e-17 -0.971667 4.18838e-17 0.0261182)
(1.76559 -5.12887 -1.43151e-16 -1.81775 -6.41893e-16 0.0521597)
(2.42861 -10.312 3.3146e-16 -2.51206 5.58905e-16 0.083446)
(1.52872 -11.6482 4.24145e-17 -1.56981 -7.12356e-16 0.0410944)
(0.526697 -11.2299 3.65808e-16 -0.515187 5.81281e-16 -0.0115104)
(-0.145879 -11.0458 -8.18524e-17 0.175795 -7.8443e-17 -0.0299158)
(-0.665125 -11.229 2.7451e-16 0.689999 2.30564e-16 -0.0248733)
(-1.13647 -11.443 7.29062e-16 1.15295 1.20848e-15 -0.0164793)
(-1.5719 -11.4559 4.00593e-16 1.58025 1.99765e-15 -0.00834804)
(-1.95806 -11.2416 -1.41159e-15 1.95633 -1.93154e-15 0.00173506)
(-2.27379 -10.8352 -4.74947e-16 2.2633 -7.26178e-16 0.0104958)
(-2.49385 -10.2216 -3.22544e-17 2.4789 -4.36834e-15 0.0149463)
(-2.60537 -9.41471 -2.58333e-15 2.59 -7.30008e-15 0.015376)
(-2.58948 -8.40637 1.00635e-15 2.57527 9.2325e-16 0.0142066)
(0.000968053 0.00371303 2.394e-21 -0.00101994 5.55972e-20 5.18856e-05)
(0.000549691 0.00319714 -3.57156e-21 -0.000639717 2.56826e-23 9.00255e-05)
(0.000179308 0.0026111 -1.9566e-20 -0.000226375 -1.37148e-19 4.70668e-05)
(-6.70789e-05 0.00208971 4.98104e-21 3.29508e-05 9.36021e-20 3.41281e-05)
(-0.00017926 0.0015969 3.91899e-21 0.000160973 -1.82536e-20 1.82876e-05)
(-0.000172607 0.0011672 -3.38577e-20 0.000173003 1.10833e-19 -3.95918e-07)
(-8.40107e-05 0.000835305 -2.02266e-19 0.000108119 1.62794e-19 -2.4108e-05)
(0.000579433 -0.000460528 1.22857e-22 -0.00052005 4.00306e-21 -5.93829e-05)
(0.000492605 -0.000547355 2.90331e-20 -0.000425489 7.03537e-20 -6.7116e-05)
(0.000371416 -0.000622949 -2.692e-20 -0.000291097 -4.74605e-20 -8.03189e-05)
(0.000250519 -0.000652178 -1.81361e-20 -0.00015859 -5.16564e-20 -9.1929e-05)
(0.00013315 -0.00064511 1.2227e-19 -3.25565e-05 2.37308e-19 -0.000100593)
(2.3141e-05 -0.000610486 4.76159e-20 8.61802e-05 7.38713e-20 -0.000109321)
(-6.029e-05 -0.000551403 2.2581e-19 0.000177198 2.07449e-19 -0.000116908)
(-0.000116636 -0.000479008 -1.16705e-19 0.000238471 -2.24588e-20 -0.000121835)
(-0.000149303 -0.000404777 1.64896e-19 0.000274582 1.14263e-19 -0.000125279)
(-0.000158012 -0.000336002 -5.85657e-21 0.000285259 2.50065e-22 -0.000127247)
(-0.000150112 -0.000278307 -2.23006e-19 0.000277009 -1.90525e-19 -0.000126896)
(-0.000132662 -0.00023995 2.87171e-19 0.00025889 3.57498e-19 -0.000126228)
(-0.000110888 -0.00022612 1.76603e-19 0.000240754 8.87439e-20 -0.000129866)
(-8.62533e-05 -0.00024579 -3.68424e-20 0.000231115 1.99827e-20 -0.000144862)
(-4.85444e-05 -0.000344618 -2.26871e-19 0.000241474 3.73458e-20 -0.00019293)
(6.24958e-05 -0.000658598 4.77363e-19 0.000258287 5.46264e-19 -0.000320782)
(0.000455362 -0.00154865 8.55427e-19 0.000142133 -9.35404e-19 -0.000597495)
(0.00150215 -0.00354909 -4.4188e-18 -0.000499231 -5.72738e-18 -0.00100292)
(0.00420734 -0.00868052 5.06248e-19 -0.00253863 7.46877e-18 -0.00166871)
(0.0104879 -0.0211622 7.37477e-18 -0.00790328 -2.07125e-18 -0.00258467)
(0.0295525 -0.0626792 1.55234e-17 -0.0251324 6.15182e-18 -0.00442015)
(0.0741147 -0.174792 -2.35792e-17 -0.067894 -2.25794e-17 -0.00622066)
(0.195493 -0.546271 7.43597e-17 -0.187684 1.87685e-16 -0.00780849)
(0.505216 -1.78614 1.55817e-19 -0.502441 -1.54899e-16 -0.00277476)
(0.749797 -3.55025 -2.73595e-16 -0.773521 1.69829e-16 0.0237246)
(0.790305 -5.39764 -9.7235e-17 -0.844707 -6.6056e-16 0.0544013)
(0.60353 -7.14885 1.18387e-18 -0.675465 7.56947e-17 0.0719351)
(0.204327 -8.39222 -2.94462e-16 -0.279942 -4.44711e-16 0.075615)
(-0.295506 -8.63455 -4.93564e-16 0.22946 -2.83243e-15 0.0660463)
(-0.707046 -7.89647 -1.66977e-16 0.665798 -3.54629e-15 0.0412487)
(-0.931194 -6.69149 5.22939e-16 0.922787 4.8965e-15 0.00840683)
(-0.998262 -5.47794 -9.55222e-16 1.01642 -3.75671e-17 -0.0181586)
(-0.984417 -4.49834 -7.18964e-15 1.01421 1.34209e-15 -0.0297892)
(-0.930848 -3.75356 8.77251e-15 0.960489 1.5952e-14 -0.0296405)
(-0.863835 -3.18645 -1.4887e-15 0.887848 -8.63769e-16 -0.0240127)
(0.000645655 -0.00034501 9.36998e-21 -0.000595427 2.31774e-20 -5.02283e-05)
(0.000684421 -0.000224612 -1.27043e-20 -0.00063747 -9.60292e-20 -4.69503e-05)
(0.000691694 -7.63945e-05 -1.86441e-20 -0.000654664 -1.11219e-19 -3.70304e-05)
(0.000654249 8.66809e-05 -7.12347e-21 -0.000627664 1.65311e-19 -2.65843e-05)
(0.000565078 0.000235301 1.92652e-21 -0.000550957 4.34555e-20 -1.41215e-05)
(0.000429276 0.000348908 3.78248e-20 -0.000425619 -1.45276e-19 -3.65735e-06)
(0.000333681 -0.000312808 1.72579e-21 -0.000360069 2.38758e-21 2.63878e-05)
(0.00025836 -0.000372282 -2.7296e-20 -0.000290235 -6.63199e-20 3.1875e-05)
(0.00016085 -0.000413559 -6.02087e-21 -0.000197977 -3.03305e-21 3.71263e-05)
(5.20705e-05 -0.000426362 2.27883e-20 -9.69438e-05 4.92238e-20 4.48733e-05)
(-5.44257e-05 -0.000413077 -7.20971e-20 3.54566e-06 -1.46642e-19 5.088e-05)
(-0.000154783 -0.000372457 -8.20729e-20 9.7908e-05 -1.34513e-19 5.68754e-05)
(-0.000238945 -0.000308489 -1.66416e-19 0.000175434 -2.45978e-19 6.35111e-05)
(-0.0003 -0.000230744 -1.34057e-20 0.000231133 -1.99282e-21 6.88671e-05)
(-0.000337765 -0.000145421 -7.30691e-20 0.000264305 -1.74014e-19 7.34608e-05)
(-0.000352964 -6.11087e-05 3.05788e-19 0.000275454 3.47969e-19 7.75099e-05)
(-0.000348657 1.65901e-05 -5.00763e-20 0.000268535 6.81113e-20 8.01225e-05)
(-0.000331379 8.39144e-05 3.41323e-20 0.000250344 2.10021e-20 8.10342e-05)
(-0.000307335 0.000139295 -2.33538e-19 0.00022752 -2.97234e-19 7.9815e-05)
(-0.000281359 0.000184856 1.50372e-19 0.000204138 -1.39599e-20 7.72213e-05)
(-0.000253977 0.000218701 4.36307e-20 0.000181522 1.35396e-19 7.24553e-05)
(-0.00022401 0.00023781 5.34493e-20 0.000159037 2.56524e-20 6.49736e-05)
(-0.000179239 0.000226922 -2.40503e-19 0.000127521 -1.40075e-19 5.17178e-05)
(-0.00015264 0.00022365 2.0859e-19 0.000110176 1.55489e-19 4.2464e-05)
(-0.000102344 0.000169004 5.07099e-20 7.59573e-05 6.62456e-22 2.63867e-05)
(-0.000915043 0.00164937 -2.11606e-18 0.000707781 -3.1836e-19 0.000207262)
(-0.00180548 0.00345928 5.249e-18 0.00147019 -2.06145e-18 0.000335291)
(-6.63553e-05 0.000131149 7.30293e-21 5.76939e-05 1.25216e-19 8.66136e-06)
(-0.00134212 0.00153433 5.94622e-18 0.00143276 -8.78251e-18 -9.06381e-05)
(0.00125809 -0.00468587 -2.28365e-18 -0.00101426 -2.44026e-18 -0.000243833)
(0.0119055 -0.0526586 4.35576e-18 -0.0101212 1.53826e-17 -0.00178425)
(0.0316541 -0.190194 -2.80864e-17 -0.0275622 7.67614e-18 -0.00409196)
(0.0531114 -0.490054 1.47174e-17 -0.0471018 1.1428e-18 -0.00600963)
(0.0637035 -1.11123 -1.42719e-17 -0.0564861 7.6198e-17 -0.0072174)
(0.0252601 -2.19831 -4.3996e-16 -0.0184634 2.46008e-16 -0.00679678)
(-0.119844 -3.62974 2.16875e-16 0.123044 3.53036e-16 -0.00320042)
(-0.387152 -4.91327 1.56352e-15 0.381975 -5.86673e-16 0.00517623)
(-0.691731 -5.52345 -2.76466e-15 0.677329 2.16218e-15 0.0144015)
(-0.905512 -5.36695 5.13893e-16 0.889785 9.32707e-15 0.015727)
(-0.983096 -4.78716 -4.86939e-17 0.974703 -6.36758e-15 0.00839281)
(-0.964874 -4.12832 3.05764e-15 0.963402 -2.3008e-15 0.00147121)
(0.000395295 -0.000236804 -3.54253e-21 -0.000419381 -6.74349e-21 2.40862e-05)
(0.000435596 -0.000154352 -1.34281e-20 -0.000454967 -1.89999e-20 1.93711e-05)
(0.000460048 -5.32795e-05 5.56879e-20 -0.000474973 1.20065e-19 1.49256e-05)
(0.000454763 5.43796e-05 1.14453e-20 -0.000464206 -1.35568e-20 9.44313e-06)
(0.000415687 0.000160468 7.89578e-21 -0.000421152 -8.89555e-20 5.46419e-06)
(0.000342125 0.00024805 -2.46539e-20 -0.000344106 6.37276e-20 1.98095e-06)
(0.00030628 -0.000258223 9.51568e-21 -0.000296876 1.62784e-20 -9.40394e-06)
(0.000259298 -0.000306082 -1.32542e-20 -0.000248912 -2.38931e-20 -1.03863e-05)
(0.000195911 -0.00034741 -6.02783e-21 -0.000182639 -3.32171e-21 -1.32724e-05)
(0.000125024 -0.000374211 7.16065e-20 -0.000109146 1.04795e-19 -1.5878e-05)
(5.17748e-05 -0.000382635 4.5507e-20 -3.28945e-05 8.24868e-20 -1.88803e-05)
(-2.12931e-05 -0.000372943 5.77213e-20 4.3669e-05 1.10845e-19 -2.23759e-05)
(-8.66745e-05 -0.000347085 8.81562e-20 0.000112589 1.01992e-19 -2.59149e-05)
(-0.000139539 -0.000308085 -5.05818e-20 0.000168994 -7.85516e-20 -2.94547e-05)
(-0.000178415 -0.000260562 -1.80919e-19 0.00021168 -1.79248e-19 -3.32644e-05)
(-0.000202004 -0.000209912 2.34922e-19 0.000238693 1.323e-19 -3.66891e-05)
(-0.000211574 -0.000160037 1.97567e-19 0.000251484 1.67323e-19 -3.99103e-05)
(-0.000209291 -0.000114101 2.55705e-19 0.00025182 1.22495e-19 -4.25287e-05)
(-0.000197728 -7.42123e-05 -4.20853e-19 0.000241973 -1.34782e-19 -4.42449e-05)
(-0.000179863 -4.12308e-05 -3.58068e-19 0.000224681 -2.40533e-19 -4.48182e-05)
(-0.000157739 -1.50509e-05 4.7381e-19 0.000202211 1.49029e-19 -4.44719e-05)
(-0.000133134 7.4744e-06 9.57785e-20 0.000175307 5.89818e-20 -4.21734e-05)
(-0.000107455 2.65911e-05 -7.08913e-20 0.000145547 7.31687e-21 -3.80917e-05)
(-8.50134e-05 4.31436e-05 -2.30782e-19 0.000118158 -1.51199e-19 -3.31442e-05)
(-6.20234e-05 5.46946e-05 5.18258e-20 8.70631e-05 -1.98842e-20 -2.50397e-05)
(-4.30377e-05 5.86063e-05 2.00342e-19 5.90414e-05 6.18119e-20 -1.60038e-05)
(-3.80954e-05 7.09258e-05 -2.6889e-19 4.90742e-05 -7.73424e-20 -1.09788e-05)
(-4.03757e-05 9.39041e-05 1.43958e-19 4.85872e-05 2.05626e-20 -8.21148e-06)
(-3.74296e-05 0.000112358 -4.38603e-20 4.34993e-05 -9.51018e-21 -6.06974e-06)
(-0.000240973 0.0010964 -8.51249e-19 0.000287537 4.17495e-19 -4.65646e-05)
(-0.000592588 0.00638009 3.5417e-18 0.000863646 -1.13051e-18 -0.000271058)
(0.000505185 0.0128293 -7.45095e-18 8.4118e-05 9.89175e-18 -0.000589303)
(0.00339033 0.0176551 1.52485e-19 -0.00242904 -3.48196e-19 -0.000961285)
(0.000262261 0.000362534 4.84979e-19 -0.000219583 -1.72263e-19 -4.26787e-05)
(0.00394708 -0.00954074 5.85292e-18 -0.00347752 1.48115e-17 -0.000469569)
(0.00987787 -0.107047 2.65021e-17 -0.00864259 -1.20014e-16 -0.00123528)
(-0.000312156 -0.477129 -6.6326e-17 0.0025154 -3.95361e-16 -0.00220324)
(-0.0767574 -1.29809 2.07586e-15 0.0794703 5.51218e-16 -0.00271285)
(-0.263505 -2.4234 2.97008e-15 0.264383 6.72418e-16 -0.000878379)
(-0.514111 -3.34371 -1.64326e-15 0.510701 -2.23409e-15 0.00341001)
(-0.715465 -3.72233 -7.33287e-15 0.709512 1.42197e-15 0.00595255)
(0.000342224 -0.000198497 -1.46076e-20 -0.000335899 -2.97426e-20 -6.32501e-06)
(0.000364714 -0.000135329 -5.0237e-21 -0.000359228 2.03041e-20 -5.48569e-06)
(0.000373312 -5.72455e-05 4.83501e-20 -0.000370622 9.21873e-20 -2.69014e-06)
(0.00036393 2.51556e-05 -2.06946e-20 -0.00036261 -1.1622e-21 -1.32004e-06)
(0.000332411 0.000105542 1.80246e-20 -0.000332513 1.1422e-19 1.02043e-07)
(0.000222634 -0.000196128 -1.35347e-20 -0.000225649 -2.01606e-20 3.01562e-06)
(0.000184148 -0.000231624 2.65854e-21 -0.000188508 4.23597e-21 4.35983e-06)
(0.000134444 -0.000261248 1.61108e-20 -0.000139278 1.74974e-20 4.83418e-06)
(7.79987e-05 -0.000279187 -9.89662e-20 -8.41632e-05 -1.40665e-19 6.16454e-06)
(1.8932e-05 -0.000283319 -7.24487e-20 -2.64808e-05 -8.47329e-20 7.54883e-06)
(-4.04423e-05 -0.00027307 1.69306e-19 3.16123e-05 2.02667e-19 8.8299e-06)
(-9.4835e-05 -0.000249163 -1.79755e-19 8.42688e-05 -2.23209e-19 1.05662e-05)
(-0.000140347 -0.000213788 -8.1262e-20 0.000127929 -5.40597e-20 1.24181e-05)
(-0.00017474 -0.000169936 -1.93186e-19 0.000160477 -1.44566e-19 1.42627e-05)
(-0.00019668 -0.000121817 -3.59989e-20 0.000180319 -6.55051e-20 1.63605e-05)
(-0.000206279 -7.2869e-05 2.41759e-20 0.000187824 -8.7237e-21 1.84546e-05)
(-0.000204704 -2.62633e-05 -1.32279e-19 0.000184162 -1.75438e-19 2.05423e-05)
(-0.000193971 1.5445e-05 4.30642e-19 0.000171446 2.94944e-19 2.25255e-05)
(-0.000176466 5.07379e-05 -1.41749e-19 0.000152269 -2.47893e-20 2.41963e-05)
(-0.000154503 7.9433e-05 -3.47387e-19 0.000128934 -1.51908e-19 2.55693e-05)
(-0.00013052 0.000100452 2.30334e-19 0.000104582 4.60939e-21 2.59376e-05)
(-0.000106131 0.000113137 -1.6736e-19 8.13169e-05 -9.65295e-20 2.48146e-05)
(-8.17563e-05 0.000118016 2.28533e-21 5.90845e-05 1.22192e-19 2.26718e-05)
(-5.96943e-05 0.000118141 -4.03239e-20 3.96049e-05 -3.16797e-20 2.00894e-05)
(-3.92402e-05 0.000110923 -2.8503e-19 2.26672e-05 -1.96934e-19 1.6573e-05)
(-2.21812e-05 9.47314e-05 1.98234e-19 1.03272e-05 1.92446e-19 1.18539e-05)
(-1.15775e-05 7.54071e-05 3.94492e-21 4.40439e-06 -1.21618e-19 7.17314e-06)
(-6.7667e-06 6.98846e-05 3.843e-20 2.12946e-06 1.1759e-20 4.63724e-06)
(-2.5207e-06 7.98493e-05 1.11652e-19 -1.22059e-06 -5.00065e-21 3.74129e-06)
(3.77666e-06 8.70003e-05 -3.764e-20 -6.75268e-06 -1.19923e-20 2.97603e-06)
(9.48224e-06 8.92176e-05 1.26741e-19 -1.15764e-05 2.02571e-20 2.09411e-06)
(1.27791e-05 8.91716e-05 -6.92975e-21 -1.40014e-05 1.58595e-22 1.2223e-06)
(2.84584e-05 0.000174022 -2.76477e-20 -2.96081e-05 -1.71242e-20 1.14968e-06)
(0.00123655 0.00662167 2.1785e-20 -0.00124809 1.70691e-18 1.15404e-05)
(0.000662668 0.00291122 -8.48215e-18 -0.000656885 7.00272e-19 -5.78247e-06)
(0.00261902 0.00824869 -1.04599e-17 -0.00257534 1.74905e-18 -4.36746e-05)
(0.0105707 0.0120054 2.77168e-17 -0.0103438 -1.61767e-16 -0.00022692)
(0.0187385 -0.0985041 5.76212e-16 -0.0179096 -7.07029e-16 -0.000828822)
(-0.0256463 -0.584256 -2.98302e-15 0.0276364 1.58995e-16 -0.0019901)
(-0.182179 -1.48989 4.83463e-15 0.183993 1.81644e-15 -0.00181323)
(0.000253108 -0.000152903 8.63746e-21 -0.000256266 3.53071e-21 3.15745e-06)
(0.000274184 -0.000106572 -3.12486e-20 -0.000275956 -4.49325e-20 1.77281e-06)
(0.000285724 -4.96654e-05 3.99008e-21 -0.000287343 2.03317e-20 1.61918e-06)
(0.000283464 1.1771e-05 1.70416e-20 -0.000284288 -5.68581e-20 8.2369e-07)
(0.000264476 7.30933e-05 -1.38576e-19 -0.000265053 -1.99266e-19 5.76422e-07)
(0.00018413 -0.000161014 1.18696e-20 -0.000183018 1.37883e-20 -1.11164e-06)
(0.000155879 -0.000189721 -2.9849e-20 -0.000154872 -3.58774e-20 -1.00703e-06)
(0.000118627 -0.000214942 -2.41029e-21 -0.000117023 -4.98743e-21 -1.60468e-06)
(7.60892e-05 -0.00023239 -1.24403e-20 -7.41975e-05 -6.48758e-21 -1.89168e-06)
(3.1036e-05 -0.000239974 9.86365e-20 -2.87668e-05 1.13518e-19 -2.26912e-06)
(-1.54507e-05 -0.000237317 7.56357e-20 1.84274e-05 6.24058e-20 -2.97673e-06)
(-5.93402e-05 -0.00022451 9.61771e-22 6.29578e-05 3.04985e-20 -3.61757e-06)
(-9.76928e-05 -0.000202637 1.87631e-19 0.000102082 1.81804e-19 -4.38914e-06)
(-0.00012879 -0.000173559 -2.34317e-20 0.000134176 -3.12881e-21 -5.38569e-06)
(-0.000151049 -0.000140082 -6.47896e-20 0.000157472 -3.04222e-20 -6.42343e-06)
(-0.000164113 -0.000104705 1.27242e-19 0.000171715 4.74845e-20 -7.60199e-06)
(-0.000168495 -6.98242e-05 -1.71248e-19 0.000177395 -6.63708e-20 -8.90003e-06)
(-0.000165282 -3.76052e-05 -3.02169e-19 0.000175526 -2.36204e-19 -1.02437e-05)
(-0.000155964 -9.36204e-06 -1.26175e-19 0.000167619 3.25223e-20 -1.16554e-05)
(-0.000142207 1.41205e-05 5.44194e-19 0.000155243 2.45774e-19 -1.30364e-05)
(-0.000125184 3.22702e-05 -3.93015e-19 0.000139473 -1.79134e-19 -1.42894e-05)
(-0.000105668 4.62071e-05 -9.43973e-20 0.000120204 8.18612e-20 -1.4536e-05)
(-8.50573e-05 5.5854e-05 1.76266e-19 9.89421e-05 1.14893e-19 -1.38848e-05)
(-6.51582e-05 6.1853e-05 -1.11228e-19 7.76877e-05 -9.02648e-22 -1.25295e-05)
(-4.6858e-05 6.4385e-05 -3.63092e-20 5.75021e-05 9.09057e-20 -1.06441e-05)
(-3.11319e-05 6.50287e-05 5.093e-20 3.96823e-05 -3.27179e-20 -8.55036e-06)
(-1.70988e-05 6.26246e-05 -3.71993e-19 2.33036e-05 3.60098e-20 -6.20476e-06)
(-4.99314e-06 5.80188e-05 3.35783e-21 8.85091e-06 -5.63396e-20 -3.85777e-06)
(3.63376e-06 4.19112e-05 -1.67747e-19 -2.03056e-06 1.68736e-20 -1.6032e-06)
(9.17461e-06 3.89727e-05 4.2182e-20 -8.28343e-06 1.23576e-20 -8.91187e-07)
(1.2997e-05 3.7831e-05 -1.31996e-20 -1.22506e-05 -5.56638e-20 -7.46426e-07)
(1.44821e-05 3.72374e-05 -2.76898e-21 -1.37623e-05 -2.59641e-22 -7.19858e-07)
(1.47276e-05 3.89804e-05 6.52256e-21 -1.41594e-05 1.59976e-22 -5.6821e-07)
(1.50905e-05 4.3319e-05 6.65331e-20 -1.47212e-05 -2.26519e-20 -3.69273e-07)
(0.000102737 0.000315864 3.39953e-19 -0.00010086 5.47746e-19 -1.87756e-06)
(0.000630347 0.0020036 -5.85162e-19 -0.000618988 1.20897e-18 -1.1359e-05)
(0.00342222 0.0106014 -3.53822e-17 -0.00336697 1.14956e-17 -5.52484e-05)
(0.000749632 0.00203178 -1.08386e-17 -0.000741719 -7.30585e-18 -7.913e-06)
(0.0136683 0.0235359 -9.23039e-17 -0.0135832 1.02011e-16 -8.50671e-05)
(0.0322967 -0.0499638 6.48878e-16 -0.0319758 -7.43868e-16 -0.00032087)
(0.000206326 -0.000126629 -1.3e-20 -0.000206073 -1.90252e-20 -2.53123e-07)
(0.000221507 -9.01459e-05 4.62526e-21 -0.000221021 1.27759e-21 -4.85378e-07)
(0.000229939 -4.55186e-05 1.2398e-20 -0.000230081 1.25919e-20 1.41687e-07)
(0.000228572 2.66979e-06 -1.11714e-20 -0.0002286 -5.19315e-20 2.77035e-08)
(0.000147374 -0.000131417 -5.84064e-21 -0.000147571 -5.50012e-21 1.97341e-07)
(0.000124516 -0.000154214 1.67075e-22 -0.000125117 -1.48062e-21 6.01323e-07)
(9.46633e-05 -0.000174373 4.14445e-20 -9.51769e-05 4.51987e-20 5.13589e-07)
(6.05168e-05 -0.000188434 1.62329e-21 -6.12772e-05 -8.72433e-22 7.60305e-07)
(2.4193e-05 -0.000194893 -1.42919e-19 -2.51765e-05 -1.51803e-19 9.83458e-07)
(-1.36277e-05 -0.000193275 3.28421e-20 1.24981e-05 3.87103e-20 1.12959e-06)
(-4.9933e-05 -0.000183401 3.2057e-20 4.85041e-05 1.98549e-20 1.42896e-06)
(-8.23753e-05 -0.000165934 -7.42299e-20 8.05892e-05 -1.08077e-19 1.78609e-06)
(-0.000109456 -0.000142037 -1.10911e-19 0.00010733 -6.5442e-20 2.12523e-06)
(-0.000129683 -0.00011369 4.20834e-20 0.000127091 5.54151e-20 2.59282e-06)
(-0.000142474 -8.27895e-05 -2.52053e-19 0.000139355 -2.08582e-19 3.11979e-06)
(-0.000147819 -5.12644e-05 1.6785e-19 0.000144114 1.06856e-19 3.70469e-06)
(-0.000146232 -2.10474e-05 3.41091e-19 0.00014184 1.93342e-19 4.39243e-06)
(-0.000138686 6.52067e-06 4.39601e-19 0.000133533 1.65659e-19 5.15302e-06)
(-0.000126322 3.03982e-05 -5.8792e-19 0.000120323 -4.40357e-19 5.99969e-06)
(-0.000110476 5.00204e-05 3.16238e-19 0.000103483 2.41787e-19 6.99278e-06)
(-9.2708e-05 6.48378e-05 3.38245e-19 8.50177e-05 7.81712e-20 7.69031e-06)
(-7.44864e-05 7.43454e-05 2.15735e-19 6.67368e-05 -4.70243e-20 7.7496e-06)
(-5.67357e-05 7.87595e-05 1.10171e-19 4.95509e-05 5.876e-20 7.18482e-06)
(-4.0545e-05 7.88283e-05 -1.44375e-20 3.43474e-05 8.07308e-20 6.19764e-06)
(-2.6613e-05 7.588e-05 1.09933e-19 2.16983e-05 -1.81326e-20 4.91471e-06)
(-1.48527e-05 7.13464e-05 3.66128e-19 1.12749e-05 1.54168e-19 3.57783e-06)
(-4.10357e-06 6.79359e-05 -1.58005e-19 1.59063e-06 -2.12962e-20 2.51294e-06)
(6.94157e-06 5.96374e-05 4.12384e-19 -8.66605e-06 9.71824e-20 1.72447e-06)
(1.44032e-05 4.35362e-05 -5.76979e-20 -1.55008e-05 2.24774e-21 1.09763e-06)
(1.70502e-05 2.95031e-05 -1.93929e-20 -1.77234e-05 1.34972e-20 6.73276e-07)
(1.61929e-05 1.95207e-05 4.95088e-21 -1.66297e-05 2.14436e-21 4.36829e-07)
(1.53596e-05 1.50592e-05 -1.76395e-20 -1.57618e-05 7.49349e-21 4.02211e-07)
(1.478e-05 1.36595e-05 -4.25983e-20 -1.52057e-05 -2.4355e-20 4.25782e-07)
(1.44154e-05 1.44362e-05 -3.75177e-21 -1.48056e-05 2.93395e-20 3.90235e-07)
(1.44373e-05 1.75884e-05 2.66402e-21 -1.47417e-05 -2.09961e-20 3.04402e-07)
(1.49822e-05 2.34833e-05 1.54795e-19 -1.51717e-05 1.21803e-19 1.89516e-07)
(0.000113946 0.00022246 -1.75486e-18 -0.000114406 1.64866e-18 4.59481e-07)
(0.00359592 0.00783158 -1.64254e-17 -0.0035929 1.0128e-17 -3.0218e-06)
(0.00291212 0.00584285 -3.80157e-17 -0.0029189 1.47752e-18 6.78234e-06)
(0.000165499 -0.000104416 1.85118e-21 -0.000166032 6.08345e-21 5.33872e-07)
(0.000178239 -7.57516e-05 2.82461e-20 -0.000178351 2.4961e-20 1.12873e-07)
(0.000185937 -4.06947e-05 -2.81916e-20 -0.000186314 -1.01532e-20 3.76933e-07)
(0.000186051 -2.52162e-06 6.96957e-20 -0.000186163 6.73277e-20 1.12432e-07)
(0.000121489 -0.00010985 -2.61492e-22 -0.000121307 -7.60166e-22 -1.821e-07)
(0.000103208 -0.000128531 -1.83374e-21 -0.000103203 -1.50081e-21 -5.20025e-09)
(7.93067e-05 -0.000145313 -5.40665e-21 -7.91153e-05 -4.81166e-21 -1.9138e-07)
(5.19065e-05 -0.000157459 -2.98911e-20 -5.17434e-05 -2.75683e-20 -1.63093e-07)
(2.26716e-05 -0.000163767 3.70022e-20 -2.24708e-05 4.13613e-20 -2.00814e-07)
(-8.10814e-06 -0.000163866 1.93461e-19 8.42785e-06 1.63695e-19 -3.19703e-07)
(-3.80686e-05 -0.000157519 -1.16696e-20 3.84529e-05 -3.19167e-20 -3.84283e-07)
(-6.53869e-05 -0.000145087 -8.46907e-20 6.58719e-05 -7.00796e-20 -4.84969e-07)
(-8.89604e-05 -0.000127306 2.23846e-19 8.96221e-05 2.05918e-19 -6.61714e-07)
(-0.000107463 -0.00010559 9.01128e-20 0.000108291 5.69578e-20 -8.27909e-07)
(-0.000120241 -8.13165e-05 -7.34013e-20 0.000121302 -1.25263e-20 -1.06157e-06)
(-0.000127148 -5.59479e-05 -2.73565e-19 0.000128498 -1.32807e-19 -1.35041e-06)
(-0.000128365 -3.10416e-05 -5.13251e-19 0.000130033 -3.908e-19 -1.66791e-06)
(-0.000124465 -7.80958e-06 -5.90985e-19 0.000126524 -3.53037e-19 -2.05906e-06)
(-0.000116292 1.27659e-05 -3.34023e-20 0.000118805 1.34953e-19 -2.51232e-06)
(-0.000104885 2.99201e-05 2.94246e-20 0.000107924 -6.38584e-20 -3.03917e-06)
(-9.11359e-05 4.32509e-05 -4.43098e-19 9.47478e-05 -2.03423e-19 -3.61195e-06)
(-7.58294e-05 5.28199e-05 -2.88285e-19 7.96995e-05 -1.24185e-19 -3.87011e-06)
(-6.00108e-05 5.88587e-05 7.35352e-20 6.37899e-05 6.73598e-21 -3.77907e-06)
(-4.48518e-05 6.17757e-05 3.06187e-19 4.82135e-05 4.11995e-20 -3.36172e-06)
(-3.10887e-05 6.22394e-05 -1.28566e-19 3.38364e-05 -5.32577e-20 -2.74769e-06)
(-1.90771e-05 6.11043e-05 -7.98786e-20 2.11492e-05 -1.50494e-19 -2.07212e-06)
(-8.21985e-06 5.92432e-05 1.51817e-20 9.65362e-06 5.60807e-21 -1.43377e-06)
(2.44315e-06 5.66808e-05 -1.41762e-19 -1.56146e-06 -1.37536e-19 -8.81689e-07)
(1.25287e-05 5.06279e-05 1.02036e-19 -1.20136e-05 2.19343e-20 -5.1508e-07)
(1.94509e-05 4.03689e-05 3.29421e-20 -1.90451e-05 -2.35845e-20 -4.0587e-07)
(2.12753e-05 2.83891e-05 1.33884e-21 -2.08918e-05 -9.10689e-21 -3.83489e-07)
(1.90695e-05 1.79847e-05 3.16364e-20 -1.87957e-05 9.54463e-21 -2.738e-07)
(1.5928e-05 1.0861e-05 1.78395e-20 -1.57918e-05 1.30106e-20 -1.36146e-07)
(1.28278e-05 6.16705e-06 1.25344e-19 -1.27687e-05 6.69196e-21 -5.90689e-08)
(1.23143e-05 4.21535e-06 -5.24652e-20 -1.22836e-05 5.99196e-20 -3.07001e-08)
(1.19299e-05 3.79397e-06 1.31068e-19 -1.19303e-05 -1.76725e-19 3.61793e-10)
(1.19099e-05 5.78723e-06 3.15072e-19 -1.19363e-05 1.93563e-19 2.63838e-08)
(1.26015e-05 1.12028e-05 -6.68096e-21 -1.26048e-05 1.51862e-19 3.30051e-09)
(0.000554011 0.000781314 4.95699e-18 -0.000554152 -2.26806e-18 1.41551e-07)
(0.000135994 -8.80028e-05 -4.84431e-21 -0.000136137 -7.45095e-21 1.42797e-07)
(0.000146334 -6.48445e-05 -1.52512e-20 -0.000146262 -1.06645e-20 -7.19905e-08)
(0.00015289 -3.66114e-05 2.37002e-20 -0.000153094 8.92252e-21 2.03452e-07)
(0.000153599 -5.71485e-06 -9.81545e-20 -0.000153614 -7.1689e-20 1.5376e-08)
(0.000100425 -9.25808e-05 -9.23309e-21 -0.00010038 -6.74464e-21 -4.49088e-08)
(8.53481e-05 -0.000107944 -2.91098e-20 -8.54719e-05 -2.61263e-20 1.23828e-07)
(6.57063e-05 -0.000121836 -6.70308e-21 -6.57377e-05 -6.72507e-21 3.13575e-08)
(4.31743e-05 -0.000132025 9.97984e-20 -4.32836e-05 8.75875e-20 1.09299e-07)
(1.91523e-05 -0.000137568 -6.66524e-20 -1.92932e-05 -5.91477e-20 1.40899e-07)
(-6.30395e-06 -0.000138169 -7.02081e-20 6.17365e-06 -7.30983e-20 1.30304e-07)
(-3.13131e-05 -0.00013355 -1.72708e-19 3.11215e-05 -1.25347e-19 1.91561e-07)
(-5.44465e-05 -0.000123915 -1.18195e-19 5.41893e-05 -8.23756e-20 2.57251e-07)
(-7.48102e-05 -0.000109743 1.30399e-19 7.45257e-05 8.5071e-20 2.84416e-07)
(-9.12692e-05 -9.20399e-05 3.60547e-20 9.08953e-05 -1.69519e-21 3.73938e-07)
(-0.000103215 -7.18033e-05 5.63068e-20 0.000102756 6.35068e-20 4.59409e-07)
(-0.000110356 -5.01441e-05 5.07978e-19 0.000109803 3.09031e-19 5.53421e-07)
(-0.000112647 -2.83315e-05 -1.73611e-19 0.000111955 -1.94163e-20 6.9175e-07)
(-0.00011037 -7.40901e-06 3.80914e-19 0.000109528 3.28503e-19 8.42271e-07)
(-0.000104077 1.17012e-05 5.07883e-20 0.000103048 3.91608e-20 1.02957e-06)
(-9.4471e-05 2.82096e-05 -8.98627e-20 9.31966e-05 -4.38097e-20 1.27445e-06)
(-8.2374e-05 4.17092e-05 2.70926e-19 8.078e-05 1.86697e-19 1.59407e-06)
(-6.88487e-05 5.17387e-05 1.03127e-19 6.70113e-05 7.4995e-20 1.83742e-06)
(-5.48456e-05 5.81688e-05 4.94639e-20 5.30049e-05 -2.46525e-20 1.84073e-06)
(-4.12928e-05 6.12506e-05 -1.8067e-19 3.96238e-05 -1.57757e-19 1.66905e-06)
(-2.88463e-05 6.16182e-05 -2.09985e-21 2.74998e-05 4.03117e-21 1.34651e-06)
(-1.78078e-05 6.01479e-05 -1.01321e-19 1.68259e-05 3.5506e-21 9.81962e-07)
(-7.79063e-06 5.75135e-05 -1.48858e-19 7.12002e-06 -8.17441e-21 6.70608e-07)
(1.6938e-06 5.3847e-05 3.92144e-20 -2.19e-06 5.06635e-20 4.96201e-07)
(1.0426e-05 4.85269e-05 -6.82004e-21 -1.08152e-05 -4.23339e-20 3.8924e-07)
(1.71895e-05 4.12144e-05 -1.18113e-19 -1.74149e-05 3.91787e-21 2.25356e-07)
(2.10448e-05 3.32117e-05 -1.14663e-20 -2.10962e-05 4.24471e-21 5.14491e-08)
(2.20626e-05 2.5521e-05 3.5815e-21 -2.20537e-05 -8.63885e-21 -8.91787e-09)
(2.15246e-05 1.88161e-05 -2.4411e-20 -2.15479e-05 4.29318e-21 2.33572e-08)
(1.8315e-05 1.16202e-05 2.7999e-20 -1.83485e-05 -1.42001e-19 3.3425e-08)
(1.50562e-05 6.12129e-06 1.66795e-19 -1.50696e-05 -3.24255e-20 1.33967e-08)
(1.12081e-05 2.08825e-06 -2.7834e-19 -1.12122e-05 -1.21436e-20 4.06715e-09)
(1.05717e-05 -6.34961e-08 3.1967e-19 -1.05864e-05 -1.77384e-19 1.46792e-08)
(1.01748e-05 -8.88972e-07 3.11958e-19 -1.01918e-05 -4.22954e-21 1.69857e-08)
(1.02514e-05 1.12454e-06 -3.70709e-19 -1.02814e-05 5.51521e-20 3.00771e-08)
(0.000112439 -7.47738e-05 5.95573e-21 -0.000112598 7.88154e-21 1.58454e-07)
(0.000121139 -5.58784e-05 4.48132e-20 -0.000121115 3.0328e-20 -2.3821e-08)
(0.000126915 -3.28602e-05 -2.87348e-20 -0.000127098 -3.1916e-20 1.82746e-07)
(1.64274e-05 -0.000116919 4.18178e-20 -1.64346e-05 3.67742e-20 7.24188e-09)
(-4.79076e-06 -0.000117889 5.93797e-20 4.82396e-06 4.97112e-20 -3.31942e-08)
(-2.57744e-05 -0.000114632 2.51055e-19 2.57944e-05 1.93038e-19 -1.99821e-08)
(-4.54007e-05 -0.000107268 -4.26514e-20 4.54279e-05 -3.26473e-20 -2.72472e-08)
(-6.29851e-05 -9.61254e-05 8.76576e-20 6.30457e-05 4.21686e-20 -6.05723e-08)
(-7.75824e-05 -8.19269e-05 -1.73351e-19 7.76522e-05 -1.00347e-19 -6.9815e-08)
(-8.86353e-05 -6.54151e-05 1.28584e-19 8.87378e-05 7.11104e-20 -1.02545e-07)
(-9.58333e-05 -4.744e-05 -3.21099e-19 9.59894e-05 -2.51023e-19 -1.56098e-07)
(-9.90439e-05 -2.89843e-05 1.12597e-20 9.92487e-05 3.39853e-20 -2.04782e-07)
(-9.83848e-05 -1.09118e-05 5.1372e-20 9.86573e-05 -2.77582e-20 -2.72412e-07)
(-9.41839e-05 5.92578e-06 8.5721e-20 9.4546e-05 1.71488e-20 -3.62053e-07)
(-8.69634e-05 2.081e-05 1.39852e-20 8.74265e-05 1.21727e-20 -4.63096e-07)
(-7.73946e-05 3.3225e-05 -1.03641e-19 7.80017e-05 -9.67112e-20 -6.07154e-07)
(-6.61827e-05 4.27966e-05 -1.99867e-19 6.69167e-05 -6.29882e-20 -7.34056e-07)
(-5.40122e-05 4.94635e-05 -1.71869e-19 5.4822e-05 -5.02734e-20 -8.09731e-07)
(-4.17315e-05 5.33709e-05 -1.25544e-19 4.25134e-05 3.44708e-20 -7.81962e-07)
(-3.00041e-05 5.49562e-05 -7.96884e-20 3.0678e-05 -8.45413e-21 -6.73956e-07)
(-1.92481e-05 5.47397e-05 -8.53902e-21 1.97679e-05 3.71897e-20 -5.19821e-07)
(-9.35673e-06 5.31664e-05 9.76744e-20 9.71755e-06 6.16897e-20 -3.60823e-07)
(-1.16318e-07 5.01393e-05 -6.99669e-21 3.03475e-07 -3.85597e-20 -1.87157e-07)
(8.12566e-06 4.52658e-05 -5.28041e-20 -8.06573e-06 -8.13507e-21 -5.99365e-08)
(1.44349e-05 3.87116e-05 9.17948e-20 -1.43814e-05 2.71382e-20 -5.34785e-08)
(1.81779e-05 3.17092e-05 1.21504e-20 -1.8074e-05 4.42567e-21 -1.03889e-07)
(1.97845e-05 2.55178e-05 1.44888e-20 -1.96853e-05 -1.49359e-20 -9.9246e-08)
(2.03468e-05 2.04799e-05 1.00558e-20 -2.0309e-05 -4.89063e-21 -3.77855e-08)
(2.0481e-05 1.60814e-05 -2.42295e-19 -2.04829e-05 8.14939e-20 1.84543e-09)
(2.01243e-05 1.17854e-05 -2.03582e-19 -2.01227e-05 -5.87289e-20 -1.54705e-09)
(1.66314e-05 6.45923e-06 1.31073e-19 -1.66208e-05 2.69083e-19 -1.05762e-08)
(1.16458e-05 2.03134e-06 -1.68053e-19 -1.16426e-05 -2.03428e-19 -3.18983e-09)
(9.82876e-06 -6.81075e-07 4.45317e-20 -9.82217e-06 -1.21474e-19 -6.59242e-09)
(9.20161e-06 -2.85147e-06 1.96476e-19 -9.22081e-06 4.276e-20 1.92029e-08)