/*--------------------------------*- C++ -*----------------------------------*\
| =========                 |                                                 |
| \\      /  F ield         | OpenFOAM: The Open Source CFD Toolbox           |
|  \\    /   O peration     | Version:  2306                                  |
|   \\  /    A nd           | Website:  www.openfoam.com                      |
|    \\/     M anipulation  |                                                 |
\*---------------------------------------------------------------------------*/
FoamFile
{
    version     2.0;
    format      ascii;
    arch        "LSB;label=32;scalar=64";
    class       volScalarField;
    location    "675";
    object      turbulenceProperties:k;
}
// * * * * * * * * * * * * * * * * * * * * * * * * * * * * * * * * * * * * * //

dimensions      [0 2 -2 0 0 0 0];

internalField   nonuniform List<scalar> 
1340
(
48.1503
46.0271
43.5545
35.6748
1.44803
1.59465
1.9219
2.67276
0.312044
0.42997
0.514681
0.878572
0.011511
0.0379042
0.095922
0.349097
0.000490818
0.00134004
0.00315364
0.0677461
6.42847e-05
0.00022997
0.00072222
0.00777224
7.12159e-06
1.25937e-06
0
0.0016752
1.85584e-05
1.35999e-05
1.62646e-06
0
2.45068e-05
2.63365e-05
2.87429e-05
1.20846e-06
2.06301e-05
2.03329e-05
3.44226e-05
1.65044e-05
2.08834e-05
2.07919e-05
2.95553e-05
3.72293e-05
1.93716e-05
1.95871e-05
2.51947e-05
4.03954e-05
1.86335e-05
1.88984e-05
2.31817e-05
3.69935e-05
1.75962e-05
1.7753e-05
2.14594e-05
3.32537e-05
1.66632e-05
1.67221e-05
1.98526e-05
2.99864e-05
1.56626e-05
1.56314e-05
1.82551e-05
2.70307e-05
1.4666e-05
1.45525e-05
1.67271e-05
2.42933e-05
1.36526e-05
1.3463e-05
1.52638e-05
2.17552e-05
1.26364e-05
1.23769e-05
1.38647e-05
1.94093e-05
1.16203e-05
1.12969e-05
1.25329e-05
1.72599e-05
1.06105e-05
1.02294e-05
1.12642e-05
1.52932e-05
9.61253e-06
9.1816e-06
1.00607e-05
1.3503e-05
8.63271e-06
8.158e-06
8.92259e-06
1.18827e-05
7.67775e-06
7.16564e-06
7.84862e-06
1.04193e-05
6.75361e-06
6.20908e-06
6.84215e-06
9.1069e-06
5.86708e-06
5.29358e-06
5.90377e-06
7.93429e-06
5.02505e-06
4.42385e-06
5.03625e-06
6.89435e-06
4.23487e-06
3.60348e-06
4.24219e-06
5.97858e-06
3.50484e-06
2.83596e-06
3.52647e-06
5.18048e-06
2.8458e-06
2.12413e-06
2.89568e-06
4.49467e-06
2.27272e-06
1.46911e-06
2.3602e-06
3.91596e-06
1.80881e-06
8.73007e-07
1.9347e-06
3.44007e-06
1.48735e-06
3.38321e-07
1.63779e-06
3.06187e-06
1.33896e-06
1.6142e-07
1.482e-06
2.77451e-06
1.3558e-06
5.74699e-07
1.45584e-06
2.56802e-06
1.48144e-06
9.40726e-07
1.52131e-06
2.42949e-06
1.65311e-06
1.25408e-06
1.63399e-06
2.34371e-06
1.82959e-06
1.51694e-06
1.76036e-06
2.29513e-06
2.51627e-06
1.98944e-06
1.7321e-06
1.88037e-06
2.2698e-06
2.55419e-06
2.12276e-06
1.90283e-06
1.98343e-06
2.2563e-06
2.58262e-06
2.22576e-06
2.03278e-06
2.06477e-06
2.24625e-06
2.59609e-06
2.29801e-06
2.1256e-06
2.12272e-06
2.23379e-06
2.59199e-06
2.34086e-06
2.18518e-06
2.1577e-06
2.21533e-06
2.56976e-06
2.35667e-06
2.21527e-06
2.171e-06
2.18884e-06
2.53023e-06
2.34839e-06
2.21969e-06
2.16451e-06
2.15337e-06
2.47499e-06
2.31917e-06
2.20214e-06
2.14066e-06
2.10902e-06
2.40611e-06
2.27221e-06
2.16601e-06
2.10168e-06
2.05625e-06
2.32593e-06
2.21065e-06
2.11461e-06
2.04998e-06
1.99587e-06
2.23666e-06
2.13735e-06
2.05088e-06
1.98785e-06
1.92904e-06
2.14043e-06
2.05484e-06
1.97731e-06
1.91723e-06
1.8567e-06
2.03904e-06
1.96535e-06
1.89619e-06
1.83992e-06
1.77988e-06
1.93396e-06
1.87059e-06
1.80923e-06
1.75735e-06
1.69942e-06
1.88165e-06
1.82638e-06
1.77199e-06
1.71788e-06
1.67068e-06
1.616e-06
1.76384e-06
1.71727e-06
1.67074e-06
1.62331e-06
1.58094e-06
1.53025e-06
1.64684e-06
1.60768e-06
1.56802e-06
1.52672e-06
1.48915e-06
1.44283e-06
1.53169e-06
1.49885e-06
1.46519e-06
1.42945e-06
1.39653e-06
1.35472e-06
1.41977e-06
1.39229e-06
1.36384e-06
1.33311e-06
1.30457e-06
1.26717e-06
1.31253e-06
1.28962e-06
1.26565e-06
1.23934e-06
1.21481e-06
1.18159e-06
1.21109e-06
1.192e-06
1.17186e-06
1.14942e-06
1.12849e-06
1.09918e-06
1.11566e-06
1.09975e-06
1.08287e-06
1.0638e-06
1.04606e-06
1.02039e-06
1.02544e-06
1.0122e-06
9.98075e-07
9.81959e-07
9.67051e-07
9.44826e-07
9.4935e-07
9.39045e-07
9.2802e-07
9.1626e-07
9.02762e-07
8.90409e-07
8.71433e-07
8.64018e-07
8.55433e-07
8.46294e-07
8.36591e-07
8.2543e-07
8.15415e-07
7.9946e-07
7.81577e-07
7.74422e-07
7.66887e-07
7.58967e-07
7.49865e-07
7.41982e-07
7.28755e-07
7.02956e-07
6.97006e-07
6.90838e-07
6.84446e-07
6.77127e-07
6.71161e-07
6.60304e-07
6.29262e-07
6.24311e-07
6.19276e-07
6.14169e-07
6.08347e-07
6.03988e-07
5.95059e-07
5.62526e-07
5.58363e-07
5.54238e-07
5.50218e-07
5.45714e-07
5.42762e-07
5.35695e-07
5.07106e-07
5.03378e-07
4.99788e-07
4.96426e-07
4.92749e-07
4.90734e-07
4.8524e-07
4.62516e-07
4.58971e-07
4.55627e-07
4.52551e-07
4.49244e-07
4.47657e-07
4.43018e-07
4.22408e-07
4.18938e-07
4.1569e-07
4.12745e-07
4.09656e-07
4.08288e-07
4.04291e-07
3.83725e-07
3.80352e-07
3.77195e-07
3.74392e-07
3.71507e-07
3.70295e-07
3.66829e-07
3.49082e-07
3.45156e-07
3.41597e-07
3.3838e-07
3.35653e-07
3.33078e-07
3.32415e-07
3.30866e-07
3.10361e-07
3.0566e-07
3.01251e-07
2.97183e-07
2.93586e-07
2.90203e-07
2.87961e-07
2.84317e-07
2.61576e-07
2.56599e-07
2.52302e-07
2.48735e-07
2.46129e-07
2.44538e-07
2.46668e-07
2.51644e-07
1.93795e-07
1.84154e-07
1.75349e-07
1.67589e-07
1.60939e-07
1.5536e-07
1.50858e-07
1.44148e-07
1.55056e-07
1.5225e-07
1.51456e-07
1.52865e-07
1.57451e-07
1.65695e-07
1.85336e-07
2.14248e-07
1.73002e-07
1.72105e-07
1.70992e-07
1.69424e-07
1.68198e-07
1.73173e-07
2.03884e-07
2.37035e-07
4.66191e-07
4.83558e-07
4.98673e-07
5.12631e-07
5.28764e-07
5.52593e-07
6.11321e-07
6.60162e-07
8.7563e-07
8.7836e-07
8.8032e-07
8.81648e-07
8.82565e-07
8.85546e-07
9.03434e-07
8.60921e-07
1.6728e-06
1.67337e-06
1.67247e-06
1.67071e-06
1.66696e-06
1.66505e-06
1.65149e-06
1.53216e-06
10.4545
2.82211
0.748144
0.231642
0.0405096
0.00239526
0.000475769
0
1.4447e-06
2.4571e-05
4.25356e-05
4.25734e-05
3.86139e-05
3.48862e-05
3.16394e-05
2.86776e-05
2.59152e-05
2.33472e-05
2.09757e-05
1.8791e-05
1.67894e-05
1.49634e-05
1.33052e-05
1.1807e-05
1.04588e-05
9.25283e-06
8.17999e-06
7.23138e-06
6.39861e-06
5.67346e-06
5.04802e-06
4.51445e-06
4.0646e-06
3.69056e-06
3.38388e-06
3.13559e-06
2.93661e-06
2.77778e-06
2.6503e-06
2.54622e-06
2.45863e-06
2.38176e-06
2.31123e-06
2.24363e-06
2.17656e-06
2.10854e-06
2.03868e-06
1.96649e-06
1.89204e-06
1.81533e-06
1.73665e-06
1.65619e-06
1.57415e-06
1.49076e-06
1.40638e-06
1.32171e-06
1.23777e-06
1.15579e-06
1.0768e-06
1.00118e-06
9.28503e-07
8.57766e-07
7.88282e-07
7.19928e-07
6.53677e-07
5.90316e-07
5.32718e-07
4.83567e-07
4.42309e-07
4.04285e-07
3.67206e-07
3.32342e-07
2.84638e-07
2.57314e-07
1.41458e-07
2.33645e-07
2.1567e-07
6.48314e-07
7.60608e-07
1.36048e-06
6.2884
2.03416
0.385575
0.0604217
0.00615836
0.000358496
5.98852e-05
1.39669e-07
2.65679e-06
2.03336e-05
2.48801e-05
2.41612e-05
2.26925e-05
2.13907e-05
2.01979e-05
1.90238e-05
1.78515e-05
1.66817e-05
1.55319e-05
1.44058e-05
1.33128e-05
1.22583e-05
1.12483e-05
1.02922e-05
9.39205e-06
8.5511e-06
7.77281e-06
7.05859e-06
6.40783e-06
5.8202e-06
5.2939e-06
4.82654e-06
4.41488e-06
4.05518e-06
3.74349e-06
3.47478e-06
3.24442e-06
3.04724e-06
2.87805e-06
2.73203e-06
2.60461e-06
2.49152e-06
2.38937e-06
2.29501e-06
2.20607e-06
2.12071e-06
2.03753e-06
1.95558e-06
1.87426e-06
1.79307e-06
1.71182e-06
1.63027e-06
1.54824e-06
1.4657e-06
1.38279e-06
1.30004e-06
1.21828e-06
1.13863e-06
1.06192e-06
9.88409e-07
9.17629e-07
8.48595e-07
7.80671e-07
7.13817e-07
6.4903e-07
5.86988e-07
5.30455e-07
4.81911e-07
4.41225e-07
4.03808e-07
3.67066e-07
3.32575e-07
2.848e-07
2.58798e-07
1.40142e-07
2.4508e-07
1.88815e-07
6.50722e-07
7.53689e-07
1.39167e-06
3.96663
1.28349
0.173296
0.0111928
0.000444767
7.40258e-05
6.16779e-06
4.03047e-07
6.84875e-06
1.51933e-05
1.49583e-05
1.41827e-05
1.3401e-05
1.27575e-05
1.21681e-05
1.15962e-05
1.10426e-05
1.05031e-05
9.97561e-06
9.46746e-06
8.9727e-06
8.49236e-06
8.02345e-06
7.57e-06
7.13055e-06
6.70382e-06
6.29215e-06
5.89718e-06
5.51904e-06
5.15986e-06
4.82084e-06
4.50317e-06
4.20788e-06
3.93541e-06
3.68597e-06
3.45886e-06
3.25342e-06
3.06818e-06
2.90142e-06
2.75114e-06
2.61535e-06
2.49175e-06
2.37841e-06
2.2733e-06
2.17476e-06
2.0814e-06
1.99193e-06
1.90549e-06
1.82129e-06
1.73874e-06
1.65739e-06
1.5768e-06
1.49661e-06
1.41657e-06
1.3367e-06
1.25738e-06
1.17929e-06
1.10338e-06
1.03034e-06
9.60287e-07
8.92689e-07
8.26594e-07
7.61417e-07
6.97181e-07
6.34902e-07
5.75185e-07
5.20601e-07
4.73536e-07
4.34241e-07
3.98283e-07
3.62647e-07
3.29166e-07
2.82392e-07
2.57243e-07
1.41955e-07
2.49854e-07
1.76275e-07
6.45403e-07
7.38574e-07
1.39512e-06
2.38935
0.643097
0.0465216
0.000451647
0.000102017
1.8697e-08
8.58181e-08
1.5256e-06
8.62586e-06
1.0592e-05
9.84606e-06
9.47864e-06
9.11492e-06
8.80748e-06
8.49785e-06
8.18326e-06
7.87289e-06
7.56514e-06
7.26149e-06
6.96781e-06
6.67987e-06
6.40178e-06
6.1315e-06
5.8688e-06
5.61456e-06
5.36752e-06
5.1269e-06
4.89309e-06
4.66552e-06
4.44442e-06
4.22989e-06
4.02217e-06
3.82215e-06
3.63008e-06
3.44663e-06
3.27245e-06
3.10775e-06
2.95274e-06
2.80742e-06
2.67137e-06
2.54424e-06
2.42536e-06
2.3138e-06
2.20884e-06
2.10961e-06
2.0153e-06
1.92508e-06
1.83838e-06
1.75457e-06
1.67309e-06
1.5935e-06
1.51526e-06
1.43796e-06
1.36128e-06
1.28513e-06
1.20979e-06
1.13584e-06
1.06408e-06
9.95053e-07
9.28798e-07
8.64712e-07
8.01883e-07
7.39787e-07
6.78479e-07
6.18999e-07
5.61883e-07
5.09563e-07
4.64379e-07
4.26768e-07
3.92423e-07
3.58078e-07
3.25824e-07
2.80358e-07
2.56154e-07
1.46178e-07
2.53308e-07
1.70644e-07
6.38924e-07
7.19757e-07
1.3849e-06
1.18154
0.204311
0.00297324
0.000310203
0
1.10812e-08
2.02811e-07
4.60936e-06
7.92956e-06
7.7102e-06
7.29194e-06
7.17013e-06
7.03371e-06
6.9145e-06
6.77917e-06
6.63425e-06
6.48008e-06
6.31447e-06
6.14144e-06
5.96102e-06
5.77314e-06
5.58062e-06
5.38611e-06
5.18845e-06
4.99071e-06
4.79549e-06
4.60174e-06
4.41179e-06
4.2264e-06
4.04588e-06
3.87078e-06
3.7011e-06
3.53758e-06
3.37975e-06
3.22782e-06
3.08223e-06
2.94248e-06
2.80892e-06
2.68139e-06
2.5597e-06
2.44397e-06
2.33379e-06
2.22876e-06
2.12877e-06
2.03332e-06
1.94202e-06
1.85441e-06
1.77017e-06
1.68884e-06
1.61001e-06
1.53328e-06
1.45813e-06
1.38418e-06
1.31108e-06
1.23869e-06
1.16725e-06
1.09728e-06
1.02943e-06
9.64146e-07
9.01388e-07
8.40531e-07
7.80707e-07
7.21463e-07
6.62881e-07
6.06018e-07
5.51336e-07
5.01122e-07
4.57682e-07
4.21603e-07
3.88643e-07
3.5542e-07
3.24242e-07
2.79979e-07
2.56817e-07
1.51958e-07
2.58809e-07
1.66564e-07
6.39209e-07
7.09898e-07
1.3836e-06
0.396742
0.0274167
0.00104356
0
4.87204e-10
9.12127e-09
2.62141e-06
6.03046e-06
6.51783e-06
6.04449e-06
5.89393e-06
5.84201e-06
5.76963e-06
5.69757e-06
5.61259e-06
5.52223e-06
5.42261e-06
5.31497e-06
5.20243e-06
5.08326e-06
4.95869e-06
4.82899e-06
4.69607e-06
4.55865e-06
4.41845e-06
4.2768e-06
4.13256e-06
3.98805e-06
3.84356e-06
3.69969e-06
3.55743e-06
3.41713e-06
3.27996e-06
3.14593e-06
3.01555e-06
2.88948e-06
2.76739e-06
2.64985e-06
2.53659e-06
2.42762e-06
2.32311e-06
2.22263e-06
2.12605e-06
2.03341e-06
1.94427e-06
1.85854e-06
1.77592e-06
1.69621e-06
1.61914e-06
1.54439e-06
1.47165e-06
1.40044e-06
1.33047e-06
1.26139e-06
1.19305e-06
1.1257e-06
1.05979e-06
9.9588e-07
9.34325e-07
8.75018e-07
8.1734e-07
7.60484e-07
7.04058e-07
6.48198e-07
5.93952e-07
5.41694e-07
4.93547e-07
4.51814e-07
4.17247e-07
3.85621e-07
3.53504e-07
3.23375e-07
2.80331e-07
2.58347e-07
1.58535e-07
2.65488e-07
1.61743e-07
6.42062e-07
0.0571796
0.000113754
4.90666e-05
0
8.8157e-08
1.52326e-06
4.3947e-06
5.07958e-06
4.78664e-06
4.59015e-06
4.58699e-06
4.57732e-06
4.5549e-06
4.52766e-06
4.49061e-06
4.44861e-06
4.3979e-06
4.3396e-06
4.27592e-06
4.20567e-06
4.13007e-06
4.0491e-06
3.96301e-06
3.87309e-06
3.78009e-06
3.68354e-06
3.58411e-06
3.48332e-06
3.3806e-06
3.27678e-06
3.17237e-06
3.0675e-06
2.96299e-06
2.85904e-06
2.75602e-06
2.65444e-06
2.55444e-06
2.4566e-06
2.36083e-06
2.26747e-06
2.17675e-06
2.08843e-06
2.0028e-06
1.91977e-06
1.83918e-06
1.76116e-06
1.68547e-06
1.61208e-06
1.54082e-06
1.47148e-06
1.40385e-06
1.33756e-06
1.27233e-06
1.20787e-06
1.14412e-06
1.08126e-06
1.01974e-06
9.60037e-07
9.02424e-07
8.46758e-07
7.92438e-07
7.38732e-07
6.85304e-07
6.32346e-07
5.80896e-07
5.31213e-07
4.85267e-07
4.45384e-07
4.12467e-07
3.82274e-07
3.51389e-07
3.22419e-07
2.80754e-07
2.60146e-07
1.65654e-07
2.72259e-07
0.000589378
0.00023324
0
4.12605e-08
7.56434e-07
3.29484e-06
3.971e-06
3.77709e-06
3.6068e-06
3.59346e-06
3.62183e-06
3.62821e-06
3.62886e-06
3.62379e-06
3.61179e-06
3.59464e-06
3.57086e-06
3.54123e-06
3.50662e-06
3.46657e-06
3.42182e-06
3.3726e-06
3.31867e-06
3.26119e-06
3.20073e-06
3.13655e-06
3.06965e-06
3.00074e-06
2.92941e-06
2.85641e-06
2.78198e-06
2.70613e-06
2.62951e-06
2.5522e-06
2.47436e-06
2.39642e-06
2.31847e-06
2.2409e-06
2.16378e-06
2.08739e-06
2.01196e-06
1.93753e-06
1.86438e-06
1.79254e-06
1.72206e-06
1.65317e-06
1.58573e-06
1.51986e-06
1.4555e-06
1.39254e-06
1.33087e-06
1.2702e-06
1.21033e-06
1.15103e-06
1.09228e-06
1.03428e-06
9.77419e-07
9.2215e-07
8.68667e-07
8.16812e-07
7.66011e-07
7.15615e-07
6.6536e-07
6.15466e-07
5.66972e-07
5.20008e-07
4.76404e-07
4.38531e-07
4.07384e-07
3.78709e-07
3.49173e-07
3.21456e-07
2.81353e-07
2.6228e-07
0.000263067
0
1.26878e-08
2.24206e-07
2.70431e-06
3.22104e-06
3.05065e-06
2.9092e-06
2.89936e-06
2.93845e-06
2.96564e-06
2.98144e-06
2.99338e-06
2.99947e-06
3.00013e-06
2.99541e-06
2.98516e-06
2.97019e-06
2.95045e-06
2.92601e-06
2.89723e-06
2.86467e-06
2.82864e-06
2.78888e-06
2.74644e-06
2.70134e-06
2.65361e-06
2.60376e-06
2.55191e-06
2.49843e-06
2.44325e-06
2.38661e-06
2.32907e-06
2.27025e-06
2.21057e-06
2.15032e-06
2.08939e-06
2.02811e-06
1.96658e-06
1.90489e-06
1.84324e-06
1.78179e-06
1.72059e-06
1.65984e-06
1.59962e-06
1.54014e-06
1.48136e-06
1.42349e-06
1.36652e-06
1.31042e-06
1.25515e-06
1.20051e-06
1.14636e-06
1.09254e-06
1.03904e-06
9.861e-07
9.3407e-07
8.83341e-07
8.34083e-07
7.86123e-07
7.38927e-07
6.91935e-07
6.44955e-07
5.98231e-07
5.52789e-07
5.0863e-07
4.67459e-07
4.31703e-07
4.02382e-07
3.75258e-07
3.47142e-07
0
2.34493e-10
5.017e-09
1.87856e-06
2.73158e-06
2.45114e-06
2.35903e-06
2.35415e-06
2.39701e-06
2.43494e-06
2.46063e-06
2.482e-06
2.49945e-06
2.51172e-06
2.51949e-06
2.52305e-06
2.52176e-06
2.5161e-06
2.5064e-06
2.49264e-06
2.47511e-06
2.4541e-06
2.43001e-06
2.40272e-06
2.37291e-06
2.34076e-06
2.30615e-06
2.26964e-06
2.23134e-06
2.19149e-06
2.14991e-06
2.10702e-06
2.06317e-06
2.01786e-06
1.97166e-06
1.92463e-06
1.8767e-06
1.82814e-06
1.77894e-06
1.72922e-06
1.67912e-06
1.62869e-06
1.57807e-06
1.52734e-06
1.47659e-06
1.42602e-06
1.37564e-06
1.32562e-06
1.27602e-06
1.22684e-06
1.17809e-06
1.12961e-06
1.08133e-06
1.03312e-06
9.85019e-07
9.37232e-07
8.90103e-07
8.43978e-07
7.98984e-07
7.54961e-07
7.11429e-07
6.67911e-07
6.24281e-07
5.80811e-07
5.38495e-07
4.97204e-07
0
6.66776e-08
1.37428e-06
2.25308e-06
2.01244e-06
1.90015e-06
1.92229e-06
1.96143e-06
2.00269e-06
2.0328e-06
2.05812e-06
2.08058e-06
2.09907e-06
2.11374e-06
2.12439e-06
2.1316e-06
2.13495e-06
2.1344e-06
2.13064e-06
2.12357e-06
2.11345e-06
2.10038e-06
2.08468e-06
2.06648e-06
2.04614e-06
2.02372e-06
1.99923e-06
1.97316e-06
1.94545e-06
1.9163e-06
1.88567e-06
1.85378e-06
1.82082e-06
1.78657e-06
1.75136e-06
1.71518e-06
1.67801e-06
1.64007e-06
1.60125e-06
1.56171e-06
1.52153e-06
1.48071e-06
1.43938e-06
1.39759e-06
1.35542e-06
1.31306e-06
1.27049e-06
1.22791e-06
1.18538e-06
1.14292e-06
1.10056e-06
1.05818e-06
1.01574e-06
9.73139e-07
9.3044e-07
8.87822e-07
8.45601e-07
8.0408e-07
7.63362e-07
7.23298e-07
6.8347e-07
5.42326e-08
8.927e-07
1.83524e-06
1.65186e-06
1.55093e-06
1.57831e-06
1.62195e-06
1.65926e-06
1.69086e-06
1.71695e-06
1.74081e-06
1.76185e-06
1.77954e-06
1.79424e-06
1.80537e-06
1.81364e-06
1.81882e-06
1.8207e-06
1.82003e-06
1.81657e-06
1.81066e-06
1.80231e-06
1.79192e-06
1.7795e-06
1.76532e-06
1.74952e-06
1.73207e-06
1.71335e-06
1.69331e-06
1.67206e-06
1.64961e-06
1.62612e-06
1.60164e-06
1.57605e-06
1.54959e-06
1.52217e-06
1.49381e-06
1.46464e-06
1.43453e-06
1.4036e-06
1.37193e-06
1.33944e-06
1.30622e-06
1.27235e-06
1.23787e-06
1.20291e-06
1.1675e-06
1.13181e-06
1.09588e-06
1.05977e-06
1.02352e-06
9.8703e-07
9.50264e-07
9.13152e-07
8.95315e-07
1.32872e-06
1.40161e-06
1.27317e-06
1.3128e-06
1.35358e-06
1.38794e-06
1.41681e-06
1.44245e-06
1.46539e-06
1.48683e-06
1.50542e-06
1.52123e-06
1.53467e-06
1.54526e-06
1.55344e-06
1.559e-06
1.56204e-06
1.56289e-06
1.56154e-06
1.55817e-06
1.55294e-06
1.54591e-06
1.53735e-06
1.52742e-06
1.51605e-06
1.50352e-06
1.48991e-06
1.47527e-06
1.45965e-06
1.44308e-06
1.42574e-06
1.40748e-06
1.38838e-06
1.36857e-06
1.34786e-06
1.3264e-06
1.30413e-06
1.281e-06
1.25711e-06
1.2324e-06
1.20687e-06
)
;

boundaryField
{
    inlet
    {
        type            calculated;
        value           nonuniform List<scalar> 
13
(
5.62781e-06
5.70311e-06
5.76931e-06
5.82895e-06
5.88675e-06
5.94649e-06
6.024e-06
6.04661e-06
5.98985e-06
5.95609e-06
5.91191e-06
5.87377e-06
5.84262e-06
)
;
    }
    outlet
    {
        type            calculated;
        value           nonuniform List<scalar> 0();
    }
    walls
    {
        type            calculated;
        value           uniform 0;
    }
    frontAndBack
    {
        type            empty;
    }
    procBoundary2to1
    {
        type            processor;
        value           nonuniform List<scalar> 
84
(
49.6017
1.30944
0.203563
0.00214568
0.000150505
1.44368e-05
2.36914e-05
2.22145e-05
2.42625e-05
2.11636e-05
2.11489e-05
1.99636e-05
1.92663e-05
1.83359e-05
1.74633e-05
1.65394e-05
1.56088e-05
1.46592e-05
1.37e-05
1.27356e-05
1.17712e-05
1.08126e-05
9.86697e-06
8.94181e-06
8.04449e-06
7.18303e-06
6.36601e-06
5.60251e-06
4.90177e-06
4.27417e-06
3.7301e-06
3.27941e-06
2.92997e-06
2.68395e-06
2.53481e-06
2.46603e-06
2.45502e-06
2.47837e-06
2.47837e-06
3.15551e-06
3.0885e-06
3.02819e-06
2.9676e-06
2.90212e-06
2.82913e-06
2.74757e-06
2.65744e-06
2.55957e-06
2.45518e-06
2.34563e-06
2.23238e-06
2.11666e-06
1.99948e-06
1.99948e-06
1.9368e-06
1.8098e-06
1.6851e-06
1.56348e-06
1.44612e-06
1.33434e-06
1.22912e-06
1.13058e-06
1.03782e-06
1.03782e-06
9.59124e-07
8.72219e-07
7.88495e-07
7.08812e-07
6.34251e-07
5.66816e-07
5.11008e-07
4.66286e-07
4.26127e-07
3.87365e-07
3.87365e-07
3.53309e-07
3.15279e-07
2.67191e-07
2.04029e-07
1.59751e-07
1.74231e-07
4.46433e-07
8.71637e-07
1.67006e-06
)
;
    }
    procBoundary2to3
    {
        type            processor;
        value           nonuniform List<scalar> 
88
(
7.04821e-07
1.38621e-06
1.57324e-07
7.04821e-07
6.44776e-07
1.73419e-07
1.57324e-07
2.78868e-07
3.20721e-07
2.82342e-07
1.73419e-07
2.64894e-07
4.58541e-07
4.24978e-07
3.97519e-07
3.71962e-07
3.20721e-07
3.45324e-07
6.43485e-07
6.03278e-07
5.63135e-07
5.2401e-07
4.58541e-07
4.85644e-07
8.75746e-07
8.3821e-07
8.00827e-07
7.6385e-07
7.27366e-07
6.91248e-07
6.43485e-07
6.55138e-07
1.18054e-06
1.15348e-06
1.12567e-06
1.09721e-06
1.06821e-06
1.03872e-06
1.00882e-06
9.78582e-07
9.48025e-07
9.17084e-07
8.85709e-07
8.75746e-07
8.53842e-07
1.20388e-06
1.06216e-06
1.09371e-06
1.0944e-06
1.14365e-06
1.1702e-06
1.19646e-06
1.21933e-06
1.24089e-06
1.26072e-06
1.27871e-06
1.29441e-06
1.30788e-06
1.31961e-06
1.32895e-06
1.33622e-06
1.34148e-06
1.34483e-06
1.34639e-06
1.34619e-06
1.34435e-06
1.34107e-06
1.33645e-06
1.33058e-06
1.32355e-06
1.31551e-06
1.30657e-06
1.2967e-06
1.28608e-06
1.27467e-06
1.26254e-06
1.24975e-06
1.23626e-06
1.22213e-06
1.20734e-06
1.19186e-06
1.17575e-06
1.15889e-06
1.14131e-06
1.12304e-06
1.10398e-06
1.18054e-06
1.08416e-06
)
;
    }
    procBoundary2to6
    {
        type            processor;
        value           nonuniform List<scalar> 
13
(
15.1654
10.9747
7.14452
4.68547
2.84454
1.41947
0.469837
0.0623881
0.000538157
0.000132492
0
0
6.4e-08
)
;
    }
}


// ************************************************************************* //
