/*--------------------------------*- C++ -*----------------------------------*\
| =========                 |                                                 |
| \\      /  F ield         | OpenFOAM: The Open Source CFD Toolbox           |
|  \\    /   O peration     | Version:  2306                                  |
|   \\  /    A nd           | Website:  www.openfoam.com                      |
|    \\/     M anipulation  |                                                 |
\*---------------------------------------------------------------------------*/
FoamFile
{
    version     2.0;
    format      ascii;
    arch        "LSB;label=32;scalar=64";
    class       volVectorField;
    location    "675";
    object      U;
}
// * * * * * * * * * * * * * * * * * * * * * * * * * * * * * * * * * * * * * //

dimensions      [0 1 -1 0 0 0 0];

internalField   nonuniform List<vector> 
1340
(
(23.0077 2.62726 2.3069e-16)
(22.3174 2.92666 8.27153e-16)
(21.3672 3.13422 2.1846e-15)
(18.7647 3.31188 2.34025e-15)
(24.6045 3.18328 -1.08864e-16)
(24.0359 3.42892 -6.36381e-16)
(23.4731 3.64811 -2.27502e-15)
(21.4975 3.71659 -2.4233e-15)
(25.2954 3.0392 1.03719e-16)
(24.7698 3.37351 -9.25145e-16)
(24.1693 3.6261 4.34731e-15)
(22.3696 3.7274 1.07067e-14)
(25.5776 3.25126 -5.66012e-16)
(25.1463 3.52021 2.55102e-15)
(24.6142 3.69601 -1.98933e-15)
(22.9849 3.75933 -2.10555e-15)
(25.5242 3.00274 -1.74909e-16)
(25.1357 3.32902 -8.60459e-16)
(24.6771 3.54902 2.8519e-15)
(23.3014 3.66104 -3.12208e-15)
(25.4952 3.16967 6.63913e-16)
(25.1127 3.44509 -2.52936e-15)
(24.6513 3.59202 -3.30237e-15)
(23.4323 3.62885 1.09392e-15)
(25.4658 3.01 -6.03761e-16)
(25.0933 3.29801 1.83118e-15)
(24.6336 3.46062 1.9109e-16)
(23.5071 3.50383 5.68767e-15)
(25.4316 3.05764 6.69019e-16)
(25.0689 3.32356 -6.18613e-16)
(24.6199 3.44653 2.69398e-16)
(23.5732 3.43477 -3.06734e-16)
(25.4025 2.99155 -2.03483e-17)
(25.0509 3.25235 3.2306e-16)
(24.6141 3.37065 3.29529e-16)
(23.6447 3.34526 -4.17617e-16)
(25.3701 2.98013 2.61485e-16)
(25.0304 3.22632 2.11291e-15)
(24.6075 3.32285 -2.56796e-15)
(23.7158 3.2676 2.00383e-15)
(25.339 2.9429 2.71229e-17)
(25.012 3.17916 -2.46672e-15)
(24.6034 3.26444 4.19395e-15)
(23.7858 3.19128 2.17691e-15)
(25.3071 2.91656 -5.99602e-16)
(24.9937 3.14018 1.60291e-15)
(24.6008 3.21113 -2.35908e-15)
(23.854 3.11932 -4.08621e-15)
(25.2754 2.88509 7.52163e-16)
(24.9762 3.09711 -2.32339e-15)
(24.6 3.15697 -2.10089e-16)
(23.9203 3.0508 -5.57448e-15)
(25.2435 2.85556 -5.71817e-16)
(24.9593 3.05542 1.58584e-15)
(24.6007 3.10461 4.17902e-16)
(23.9846 2.98617 3.55236e-15)
(25.2117 2.82523 1.41834e-16)
(24.943 3.01315 6.86542e-16)
(24.6029 3.05321 1.76127e-15)
(24.0466 2.92552 -1.78959e-15)
(25.18 2.79544 8.34277e-17)
(24.9274 2.97138 -1.05962e-15)
(24.6064 3.00333 -2.50307e-15)
(24.1063 2.86874 -1.5611e-15)
(25.1485 2.76591 -1.98539e-17)
(24.9124 2.93006 5.54451e-16)
(24.6113 2.95501 -8.80895e-16)
(24.1636 2.816 4.3002e-15)
(25.1174 2.737 3.64273e-16)
(24.8981 2.88951 -1.70852e-15)
(24.6174 2.90841 1.51728e-15)
(24.2183 2.76716 -3.23342e-15)
(25.0868 2.70887 -1.0734e-15)
(24.8845 2.84999 4.58479e-16)
(24.6244 2.86374 1.14393e-15)
(24.2705 2.7223 5.15567e-15)
(25.0568 2.68173 5.70519e-16)
(24.8716 2.81172 1.34449e-15)
(24.6324 2.82114 -1.18245e-15)
(24.3201 2.68134 -3.16022e-15)
(25.0274 2.65582 -1.69664e-16)
(24.8594 2.775 -1.09912e-15)
(24.6411 2.78074 -5.83458e-16)
(24.3672 2.64416 6.49114e-16)
(24.999 2.63133 5.03035e-17)
(24.848 2.74004 1.82132e-16)
(24.6505 2.74274 7.79924e-16)
(24.4117 2.61076 -9.91755e-18)
(24.9715 2.60851 3.66036e-16)
(24.8373 2.70711 3.76011e-17)
(24.6604 2.70723 9.79908e-16)
(24.4537 2.58092 -8.32917e-16)
(24.9451 2.58755 -2.99184e-16)
(24.8274 2.67641 -3.3215e-16)
(24.6707 2.6744 -2.02866e-15)
(24.4934 2.55463 5.1741e-16)
(24.92 2.56867 2.3215e-16)
(24.8183 2.64816 7.10649e-16)
(24.6812 2.64433 8.02686e-16)
(24.5306 2.53172 4.58715e-16)
(24.8963 2.55204 -5.9683e-16)
(24.8101 2.62255 -4.34082e-18)
(24.6919 2.61717 1.36751e-15)
(24.5656 2.51206 6.96481e-16)
(24.8742 2.53786 5.41466e-16)
(24.8028 2.59976 4.4758e-16)
(24.7027 2.593 -1.09288e-15)
(24.5984 2.49555 -1.77085e-15)
(24.8537 2.52624 1.69999e-17)
(24.7965 2.57992 -1.48628e-16)
(24.7135 2.5719 7.87024e-16)
(24.6292 2.48206 1.15165e-15)
(24.8351 2.51732 -3.33312e-17)
(24.7911 2.56316 -4.8108e-16)
(24.7243 2.55393 -1.15734e-15)
(24.658 2.47148 -1.41227e-15)
(24.8184 2.51119 -1.4427e-16)
(24.7868 2.54954 -3.19315e-16)
(24.735 2.53914 5.69739e-16)
(24.6849 2.46371 -9.27856e-17)
(24.8037 2.50791 -1.33061e-16)
(24.7836 2.53914 -8.01543e-17)
(24.7458 2.52754 6.44689e-17)
(24.7102 2.45865 1.37239e-15)
(24.7913 2.50749 -1.71093e-16)
(24.7816 2.53195 4.63624e-16)
(24.7565 2.51912 1.98438e-16)
(24.7339 2.45621 1.30265e-15)
(24.7811 2.50991 -5.67025e-17)
(24.7808 2.52797 -1.58776e-16)
(24.7673 2.51385 -4.90429e-16)
(24.7562 2.45631 -1.19531e-15)
(24.7733 2.51513 3.39609e-16)
(24.7814 2.52715 2.02122e-16)
(24.7783 2.51167 -2.6713e-18)
(24.7772 2.45885 -8.23106e-16)
(24.768 2.52305 -7.65821e-17)
(24.7834 2.5294 -7.15164e-16)
(24.7893 2.5125 5.89671e-16)
(24.7972 2.46375 3.98633e-16)
(24.7651 2.53355 1.22656e-16)
(24.7868 2.5346 4.59144e-16)
(24.8007 2.51623 -7.37044e-16)
(24.8162 2.47092 -7.31119e-16)
(24.7648 2.54648 -1.20285e-16)
(24.7917 2.54262 -2.18401e-16)
(24.8125 2.52273 3.68676e-16)
(24.8345 2.48026 2.45188e-16)
(24.7669 2.56166 2.05897e-16)
(24.7982 2.55327 4.86675e-17)
(24.8247 2.53184 -4.43895e-16)
(24.8522 2.49168 1.03432e-15)
(24.7298 2.58574 -1.27673e-16)
(24.7717 2.57887 5.47168e-17)
(24.8063 2.56636 -2.45223e-16)
(24.8375 2.5434 7.9126e-16)
(24.8695 2.50505 -1.69558e-16)
(24.7362 2.60982 3.5968e-16)
(24.7789 2.5979 -6.02496e-16)
(24.8161 2.58167 9.64567e-16)
(24.8509 2.55721 3.81282e-17)
(24.8866 2.52024 4.27957e-17)
(24.7456 2.63484 -1.06527e-16)
(24.7885 2.6185 1.20033e-16)
(24.8274 2.59896 -5.52814e-16)
(24.8651 2.57307 -8.89567e-16)
(24.9035 2.53713 -2.32385e-17)
(24.7578 2.66056 -1.40522e-16)
(24.8004 2.64043 3.65076e-16)
(24.8405 2.618 -1.01463e-16)
(24.8801 2.59076 3.34958e-16)
(24.9206 2.55557 -5.36373e-16)
(24.7727 2.68677 2.41833e-16)
(24.8146 2.66345 2.92492e-16)
(24.8551 2.63853 2.86989e-16)
(24.896 2.61006 9.69538e-17)
(24.9378 2.57539 5.27138e-16)
(24.7901 2.71325 3.34049e-17)
(24.8309 2.6873 -9.77033e-17)
(24.8713 2.6603 -3.35499e-16)
(24.9128 2.63074 4.06577e-16)
(24.9553 2.59644 2.44199e-16)
(24.8098 2.73981 -2.47979e-17)
(24.8492 2.71177 -3.56422e-16)
(24.889 2.68305 2.35467e-16)
(24.9306 2.65257 -3.03912e-16)
(24.9732 2.61853 -1.03666e-16)
(24.8315 2.76626 7.97342e-17)
(24.8694 2.73661 7.52802e-17)
(24.9082 2.70656 -1.44942e-16)
(24.9493 2.67533 -3.24115e-16)
(24.9916 2.6415 -5.63486e-16)
(24.8551 2.79243 -6.19789e-17)
(24.8912 2.76162 3.39321e-16)
(24.9287 2.73059 -2.87092e-17)
(24.969 2.69879 3.76859e-16)
(25.0106 2.66517 3.4825e-16)
(24.8804 2.81818 1.05128e-16)
(24.9145 2.78662 -2.71786e-16)
(24.9506 2.75492 -3.32664e-17)
(24.9897 2.72275 1.31485e-16)
(25.0301 2.68935 -5.45527e-16)
(24.9071 2.84338 2.01475e-16)
(24.9392 2.81142 -3.39942e-16)
(24.9736 2.77937 1.06742e-16)
(25.0113 2.74701 3.83705e-16)
(25.0504 2.71389 5.75756e-17)
(24.935 2.86792 -1.1417e-16)
(24.9651 2.83588 2.05029e-17)
(24.9977 2.80374 -1.99538e-16)
(25.0337 2.77138 1.35169e-16)
(25.0712 2.73862 -1.34348e-16)
(24.9639 2.89172 1.1472e-16)
(24.9921 2.85986 1.75487e-16)
(25.0227 2.82787 -1.14842e-17)
(25.057 2.79569 -4.13846e-16)
(25.0928 2.76337 -1.95795e-16)
(24.9937 2.9147 -4.95878e-17)
(25.0198 2.88326 -3.11388e-16)
(25.0486 2.85163 4.37826e-16)
(25.081 2.81979 -3.39031e-16)
(25.1149 2.788 8.81016e-17)
(25.0021 2.96767 2.06392e-17)
(25.0241 2.9368 -6.30076e-17)
(25.0483 2.90597 -5.80906e-17)
(25.0751 2.87489 1.85764e-16)
(25.1056 2.84355 4.49013e-16)
(25.1376 2.81239 -5.65728e-17)
(25.0347 2.988 -6.32606e-17)
(25.0548 2.95799 -3.11527e-16)
(25.0772 2.92793 4.72481e-16)
(25.1021 2.89755 -2.53553e-16)
(25.1307 2.86683 3.34809e-16)
(25.1607 2.83639 -1.24338e-16)
(25.0673 3.00727 1.60819e-16)
(25.0857 2.97822 7.19776e-17)
(25.1063 2.94906 -2.36329e-16)
(25.1294 2.91951 1.60223e-16)
(25.156 2.88953 -4.6846e-17)
(25.1842 2.8599 9.1027e-17)
(25.0997 3.02548 4.45286e-17)
(25.1165 2.99749 -5.11528e-17)
(25.1354 2.96931 5.50614e-17)
(25.1568 2.94069 -1.48767e-16)
(25.1815 2.91157 -1.07651e-16)
(25.2077 2.88282 -6.51267e-18)
(25.1316 3.04264 -1.64293e-16)
(25.1469 3.01577 2.02653e-16)
(25.1643 2.98866 8.62865e-17)
(25.184 2.96105 2.17475e-16)
(25.2069 2.93285 -6.01451e-17)
(25.2313 2.90505 1.16722e-16)
(25.1629 3.05879 7.71829e-17)
(25.1769 3.03307 2.0591e-16)
(25.1928 3.00708 -2.00199e-16)
(25.2109 2.98054 -1.81492e-16)
(25.2321 2.95333 8.0546e-17)
(25.2547 2.92654 -2.36373e-16)
(25.1936 3.07396 -3.37699e-17)
(25.2063 3.04942 -9.58119e-17)
(25.2208 3.02457 2.04951e-16)
(25.2374 2.99915 -3.17944e-16)
(25.257 2.97298 -6.37397e-17)
(25.2779 2.94724 3.03058e-16)
(25.2235 3.08819 -2.9511e-16)
(25.2351 3.06484 2.57495e-16)
(25.2483 3.04115 -5.95795e-17)
(25.2636 3.01686 5.9757e-17)
(25.2816 2.99178 2.8373e-17)
(25.3008 2.96712 -2.2918e-16)
(25.2527 3.10154 8.99178e-17)
(25.2632 3.07936 -2.64703e-16)
(25.2753 3.05684 1.83713e-16)
(25.2892 3.0337 6.1692e-17)
(25.3058 3.00972 -3.56159e-16)
(25.3235 2.98616 1.52561e-16)
(25.2726 3.1349 3.30932e-18)
(25.2809 3.11402 -5.79687e-17)
(25.2905 3.093 5.06544e-17)
(25.3015 3.07163 5.48187e-17)
(25.3142 3.04965 -1.43408e-16)
(25.3294 3.02678 -6.31515e-17)
(25.3457 3.00434 7.8116e-17)
(25.3005 3.14541 -2.60019e-16)
(25.3081 3.12566 1.03299e-16)
(25.3168 3.10578 8.81903e-17)
(25.3268 3.08555 -3.20857e-17)
(25.3384 3.0647 1.98753e-16)
(25.3524 3.04296 -2.14637e-16)
(25.3673 3.02164 -9.94534e-17)
(25.327 3.15513 -3.62641e-18)
(25.3339 3.13648 1.85968e-16)
(25.3417 3.1177 -1.55295e-16)
(25.3509 3.09859 -1.83917e-16)
(25.3615 3.07887 1.61459e-16)
(25.3742 3.05824 4.39242e-16)
(25.388 3.03805 -1.37979e-16)
(25.3518 3.16406 6.46141e-17)
(25.358 3.14646 -7.89664e-18)
(25.3652 3.12876 -1.28168e-17)
(25.3734 3.11074 -7.3425e-18)
(25.3831 3.09212 2.64505e-16)
(25.3948 3.07259 -6.02078e-17)
(25.4074 3.05352 -3.53006e-16)
(25.3748 3.17225 -1.2303e-16)
(25.3804 3.15567 1.56122e-16)
(25.3869 3.13901 3.90163e-17)
(25.3944 3.12204 -9.65107e-17)
(25.4032 3.10451 -1.2501e-16)
(25.4139 3.08607 5.00691e-17)
(25.4255 3.0681 3.31717e-17)
(25.396 3.17964 5.13938e-17)
(25.401 3.16405 -8.80186e-17)
(25.4068 3.14839 2.31769e-16)
(25.4136 3.13245 -1.97296e-16)
(25.4217 3.11598 2.8619e-16)
(25.4314 3.0986 -1.74346e-16)
(25.4421 3.08171 3.01457e-16)
(25.4124 3.18535 -1.3468e-16)
(25.417 3.17057 -4.8896e-18)
(25.4224 3.15575 -9.92959e-17)
(25.4287 3.14068 -6.3809e-18)
(25.4362 3.1251 -5.29885e-17)
(25.4453 3.10866 -8.8144e-17)
(25.4553 3.09274 9.98169e-17)
(25.4251 3.18982 -1.90799e-16)
(25.4294 3.17572 -2.79853e-17)
(25.4344 3.16161 1.19538e-16)
(25.4404 3.14728 -1.62883e-18)
(25.4474 3.13247 -1.14749e-16)
(25.456 3.11684 1.34775e-17)
(25.4655 3.10177 -1.6197e-16)
(25.4376 3.19417 3.01296e-17)
(25.4416 3.18078 8.37171e-17)
(25.4463 3.16739 -7.0745e-17)
(25.4518 3.15382 -1.02276e-16)
(25.4585 3.13983 -1.99825e-16)
(25.4666 3.12505 4.81727e-16)
(25.4755 3.11086 -2.77386e-16)
(25.4499 3.19837 7.58716e-17)
(25.4535 3.18568 -2.87942e-17)
(25.4579 3.17303 2.39214e-17)
(25.463 3.16023 -1.52176e-16)
(25.4692 3.14704 2.4987e-16)
(25.4768 3.13313 -2.7342e-16)
(25.4851 3.11984 3.19016e-16)
(25.4591 3.21448 1.00711e-16)
(25.4618 3.20237 4.99596e-17)
(25.4651 3.19042 -4.68829e-17)
(25.4691 3.17854 -4.39711e-17)
(25.4738 3.16654 -9.69776e-17)
(25.4796 3.1542 -1.03913e-16)
(25.4866 3.14119 3.03428e-16)
(25.4944 3.12879 -1.48496e-16)
(25.4708 3.21737 -4.92423e-17)
(25.4732 3.20593 8.4011e-17)
(25.4761 3.1947 -8.88085e-17)
(25.4797 3.18357 -8.00653e-17)
(25.484 3.17239 8.10938e-17)
(25.4893 3.16094 1.65125e-16)
(25.4958 3.1489 -3.55354e-17)
(25.5031 3.13765 7.06801e-17)
(25.4813 3.22026 1.57848e-16)
(25.4833 3.20953 -1.86973e-16)
(25.4858 3.19899 2.19097e-16)
(25.4889 3.18856 -1.79517e-16)
(25.4926 3.17808 -2.10026e-16)
(25.4972 3.16735 3.23615e-16)
(25.503 3.15604 -2.28344e-16)
(25.5094 3.14519 1.50353e-16)
(25.4888 3.22134 2.25757e-17)
(25.4903 3.2115 -1.62931e-16)
(25.4923 3.20197 1.07699e-16)
(25.4948 3.19266 -2.99998e-17)
(25.4979 3.18341 -1.23568e-16)
(25.5019 3.17408 3.55768e-16)
(25.5071 3.16446 -2.12302e-16)
(25.5136 3.15628 3.63362e-17)
(25.4899 3.2214 -8.08959e-17)
(25.4903 3.21136 -8.18866e-17)
(25.4913 3.20155 -1.31281e-16)
(25.4928 3.19193 2.3421e-16)
(25.4949 3.18235 4.0128e-17)
(25.4977 3.17255 -8.34273e-17)
(25.5008 3.1621 2.45052e-16)
(25.5038 3.151 -3.14482e-16)
(25.4875 3.22809 1.02737e-16)
(25.4874 3.22108 3.3389e-17)
(25.4876 3.21442 -1.52681e-16)
(25.4883 3.20802 -1.04705e-16)
(25.4895 3.20178 4.46195e-17)
(25.4917 3.19584 5.45186e-17)
(25.4963 3.19044 -1.35483e-16)
(25.5042 3.18887 1.26027e-17)
(25.474 3.18395 -1.37194e-16)
(25.4738 3.1728 1.0859e-16)
(25.4743 3.16216 9.62739e-17)
(25.4756 3.15197 -7.45046e-17)
(25.4772 3.14207 3.17985e-16)
(25.4784 3.13181 -4.425e-16)
(25.4767 3.12016 1.76978e-16)
(25.4713 3.10467 -2.71132e-16)
(25.5135 3.32263 1.55022e-16)
(25.514 3.32101 -1.21048e-16)
(25.5146 3.31944 1.02546e-17)
(25.5155 3.31797 6.46734e-17)
(25.5175 3.31681 -8.57852e-17)
(25.5222 3.31667 -1.50898e-16)
(25.5353 3.31901 1.71767e-16)
(25.556 3.32805 -4.08452e-17)
(25.561 2.95964 1.19463e-16)
(25.5662 2.94725 1.45706e-16)
(25.572 2.93546 -1.16669e-16)
(25.5782 2.92405 -3.10904e-16)
(25.5829 2.91252 4.16211e-16)
(25.5845 2.90072 -3.53772e-16)
(25.5743 2.88746 8.5912e-16)
(25.5555 2.8789 -5.40324e-16)
(18.5689 1.4054 7.99012e-19)
(21.2065 1.31007 1.57481e-17)
(22.13 1.37836 7.78321e-19)
(22.637 1.47274 -3.53999e-19)
(22.9055 1.53875 1.38325e-18)
(23.0337 1.62205 9.55798e-19)
(23.1262 1.6791 -2.07576e-20)
(23.2179 1.75227 1.89142e-19)
(23.3128 1.81078 2.35592e-19)
(23.4069 1.86928 0)
(23.4994 1.9224 -2.1136e-17)
(23.5898 1.97121 3.29329e-19)
(23.678 2.01587 -1.11912e-19)
(23.7635 2.05635 -1.142e-19)
(23.8462 2.09288 6.77242e-20)
(23.926 2.12555 2.87939e-17)
(24.0025 2.15476 4.73136e-17)
(24.0756 2.18049 -6.84068e-21)
(24.1453 2.20325 2.35691e-21)
(24.2115 2.22326 1.48879e-20)
(24.2741 2.24085 -5.08965e-20)
(24.3332 2.25639 9.55999e-21)
(24.3887 2.27018 1.01894e-19)
(24.4408 2.28259 5.4322e-20)
(24.4896 2.29393 2.98722e-19)
(24.535 2.30451 -4.11471e-20)
(24.5774 2.31462 5.34096e-19)
(24.6168 2.32451 3.78439e-19)
(24.6534 2.33442 3.92284e-20)
(24.6875 2.34456 2.71655e-19)
(24.719 2.35512 -6.95564e-19)
(24.7484 2.36623 -8.42124e-17)
(24.7757 2.37805 -3.27898e-17)
(24.8012 2.39067 2.1238e-18)
(24.825 2.40419 -2.10529e-18)
(24.8473 2.41867 -1.59965e-18)
(24.8684 2.43416 3.04297e-18)
(24.8884 2.45069 6.19588e-19)
(24.9076 2.46827 5.25448e-19)
(24.9261 2.4869 -2.2501e-18)
(24.944 2.50654 -1.17485e-16)
(24.9616 2.52715 2.54925e-18)
(24.979 2.54867 -3.15057e-17)
(24.9964 2.57102 -9.02e-17)
(25.0139 2.59411 2.43396e-18)
(25.0315 2.61783 -7.71641e-17)
(25.0495 2.64207 1.60141e-18)
(25.0678 2.66671 1.44531e-18)
(25.0866 2.69163 1.36148e-16)
(25.1059 2.71669 3.07114e-19)
(25.1258 2.74177 1.87787e-18)
(25.1462 2.76676 -2.18882e-16)
(25.167 2.79152 -5.61982e-19)
(25.1884 2.81595 1.36335e-17)
(25.21 2.83994 -7.70534e-20)
(25.2317 2.86338 -3.37876e-19)
(25.2535 2.88619 -1.46181e-18)
(25.2752 2.90831 5.52342e-17)
(25.2968 2.92967 1.26015e-17)
(25.3182 2.95025 1.28894e-16)
(25.3394 2.97002 2.35522e-16)
(25.3603 2.98896 1.49183e-16)
(25.3806 3.00702 5.51846e-17)
(25.4 3.0242 2.1568e-19)
(25.4184 3.04045 2.53248e-18)
(25.4354 3.05581 5.83753e-17)
(25.451 3.07018 -4.9284e-17)
(25.4635 3.08189 -1.14171e-18)
(25.4732 3.09149 2.22336e-18)
(25.4827 3.10121 -1.40908e-16)
(25.4918 3.11083 -1.42471e-16)
(25.5005 3.12042 8.8718e-19)
(25.5087 3.13007 1.00513e-16)
(25.5143 3.138 -1.28066e-16)
(25.5181 3.1507 0)
(25.5065 3.14404 -2.04669e-17)
(25.5085 3.1873 -1.25285e-17)
(25.4708 3.09596 2.55873e-16)
(25.5653 3.33312 -5.8923e-18)
(25.5533 2.87747 -2.84372e-16)
(21.0242 1.29207 -5.19879e-18)
(22.8579 1.28531 -4.90072e-18)
(23.5991 1.35064 8.57739e-18)
(23.8826 1.38795 -3.8698e-18)
(23.9868 1.41704 2.81375e-17)
(24.0145 1.44664 1.29039e-17)
(24.0333 1.47388 -3.21672e-19)
(24.0573 1.50765 3.3936e-18)
(24.0846 1.53941 5.14018e-18)
(24.1135 1.57508 0)
(24.1435 1.61135 2.40132e-17)
(24.1746 1.64892 1.37617e-17)
(24.2066 1.68745 -6.47757e-18)
(24.2396 1.72657 -1.00562e-17)
(24.2734 1.76598 3.75659e-17)
(24.3077 1.80542 -3.73536e-17)
(24.3425 1.8446 -4.71653e-17)
(24.3777 1.88321 4.58723e-18)
(24.4129 1.92099 3.22389e-17)
(24.4482 1.95775 6.32462e-18)
(24.4832 1.99326 -5.65251e-18)
(24.5178 2.02744 1.9308e-17)
(24.5519 2.0601 -9.78702e-18)
(24.5853 2.09124 1.1951e-18)
(24.6179 2.12084 4.51828e-18)
(24.6495 2.14893 -1.21282e-17)
(24.6801 2.17558 4.38288e-18)
(24.7095 2.20092 2.40687e-18)
(24.7377 2.22508 1.98615e-19)
(24.7647 2.24822 1.12111e-18)
(24.7904 2.27051 -2.39046e-18)
(24.815 2.29213 8.33472e-17)
(24.8383 2.31327 9.92164e-17)
(24.8604 2.33408 4.71631e-18)
(24.8815 2.35476 -5.02851e-17)
(24.9016 2.37543 -2.77364e-17)
(24.9208 2.39623 3.19482e-17)
(24.9392 2.41727 9.54843e-19)
(24.9569 2.43865 9.79134e-18)
(24.974 2.46043 -5.2695e-17)
(24.9907 2.48266 3.35365e-17)
(25.0071 2.50538 1.04819e-16)
(25.0233 2.52858 3.09553e-17)
(25.0394 2.55225 9.47697e-17)
(25.0555 2.57637 1.27786e-16)
(25.0718 2.60088 6.75938e-17)
(25.0883 2.62572 7.56009e-17)
(25.1051 2.65082 -9.20161e-17)
(25.1223 2.6761 -1.31092e-16)
(25.14 2.70145 -8.94642e-17)
(25.1581 2.72679 2.18699e-18)
(25.1767 2.75201 1.52859e-16)
(25.1959 2.77702 1.18427e-17)
(25.2154 2.80171 -2.95568e-17)
(25.2352 2.82599 -9.10658e-20)
(25.2553 2.84976 -9.95389e-17)
(25.2753 2.87293 7.7603e-18)
(25.2954 2.89545 -1.08323e-16)
(25.3154 2.91725 -2.44091e-16)
(25.3353 2.93831 -2.69083e-17)
(25.3551 2.95858 -2.31449e-16)
(25.3746 2.97804 1.24601e-17)
(25.3936 2.99665 -8.06198e-19)
(25.4119 3.01438 3.06636e-16)
(25.4291 3.03119 3.73119e-17)
(25.4451 3.04711 -6.38111e-17)
(25.4597 3.06204 4.72734e-17)
(25.4714 3.07425 -5.88857e-17)
(25.4805 3.08427 6.57605e-17)
(25.4894 3.09444 1.40113e-16)
(25.4979 3.10453 1.39286e-16)
(25.506 3.1146 1.08307e-18)
(25.5136 3.12482 -1.02242e-16)
(25.5186 3.13313 1.24806e-16)
(25.5214 3.14676 0)
(25.5097 3.13977 2.13412e-17)
(25.5093 3.18539 1.46799e-18)
(25.4764 3.09231 -3.4627e-16)
(25.5628 3.33348 5.72614e-18)
(25.5668 2.88114 2.82559e-16)
(22.7087 1.3804 4.46724e-18)
(23.9196 1.42422 9.27137e-18)
(24.4581 1.47447 1.1235e-18)
(24.5988 1.50445 -1.13142e-18)
(24.6273 1.53444 -5.61735e-18)
(24.6288 1.56142 4.27965e-18)
(24.633 1.58928 -1.14692e-19)
(24.64 1.61684 3.0848e-18)
(24.6475 1.64356 1.84717e-17)
(24.6548 1.67062 0)
(24.6621 1.69686 -9.48539e-18)
(24.6695 1.72316 7.04236e-18)
(24.677 1.74922 -3.55317e-18)
(24.6847 1.77519 -1.53011e-17)
(24.6928 1.80111 -1.91796e-17)
(24.7013 1.82712 7.91416e-18)
(24.7102 1.85317 3.41235e-17)
(24.7197 1.87944 2.55853e-17)
(24.7298 1.9058 -3.76474e-17)
(24.7405 1.93236 5.38573e-18)
(24.7518 1.95905 -6.4331e-17)
(24.7638 1.9859 -2.75884e-17)
(24.7765 2.01278 5.53688e-18)
(24.7898 2.03967 -1.64914e-17)
(24.8036 2.06651 4.84883e-18)
(24.818 2.09322 1.59266e-17)
(24.8329 2.1197 5.05179e-17)
(24.8481 2.14593 2.81519e-18)
(24.8635 2.17184 2.36598e-19)
(24.8792 2.1974 -8.19032e-18)
(24.8949 2.22261 -3.75779e-17)
(24.9106 2.24745 1.42317e-17)
(24.9263 2.27197 -1.88699e-18)
(24.9418 2.2962 5.8285e-17)
(24.9571 2.32021 4.06741e-17)
(24.9723 2.34404 -4.71747e-17)
(24.9872 2.36777 -2.07748e-17)
(25.0018 2.39148 1.10116e-18)
(25.0163 2.41524 -7.42067e-17)
(25.0306 2.43909 2.97796e-18)
(25.0447 2.4631 -4.71595e-17)
(25.0588 2.48731 -9.71659e-17)
(25.0728 2.51174 -3.15013e-17)
(25.0869 2.5364 -5.57436e-17)
(25.101 2.56129 -2.89878e-18)
(25.1154 2.5864 -5.15261e-18)
(25.13 2.61169 -8.18257e-17)
(25.145 2.63712 5.87241e-18)
(25.1603 2.66264 2.34305e-18)
(25.1761 2.68817 1.56805e-16)
(25.1924 2.71366 -3.27351e-17)
(25.2092 2.73901 -1.14033e-16)
(25.2265 2.76414 1.71479e-16)
(25.2441 2.78898 2.62203e-17)
(25.2621 2.81343 7.61641e-17)
(25.2804 2.8374 1.69495e-16)
(25.2987 2.86081 -2.09865e-18)
(25.317 2.88361 1.04768e-16)
(25.3354 2.90574 4.43256e-18)
(25.3537 2.92715 -4.35618e-19)
(25.372 2.94782 1.82501e-18)
(25.3901 2.96771 -7.74581e-19)
(25.4078 2.98677 -8.38218e-19)
(25.4247 3.00498 -2.89203e-16)
(25.4407 3.02228 -3.07265e-17)
(25.4556 3.03871 -3.26689e-18)
(25.4692 3.05415 -4.77014e-17)
(25.4801 3.06681 -4.94039e-19)
(25.4885 3.07722 -5.98527e-17)
(25.4966 3.08781 -1.7189e-16)
(25.5045 3.09835 -1.37966e-16)
(25.512 3.10888 -8.20238e-17)
(25.5189 3.11964 -6.23108e-17)
(25.5233 3.12836 -1.77022e-18)
(25.5249 3.14276 0)
(25.5135 3.13583 -5.34727e-17)
(25.5098 3.18291 4.29012e-16)
(25.4837 3.08983 3.43107e-16)
(25.559 3.33259 -5.28168e-18)
(25.5831 2.88506 -9.09965e-19)
(23.7064 1.48729 -5.07341e-19)
(24.4897 1.52423 -6.3094e-18)
(24.8112 1.551 1.48958e-18)
(24.852 1.56954 -2.95424e-19)
(24.8512 1.58945 8.22177e-18)
(24.8504 1.60875 1.08343e-18)
(24.8541 1.63013 -2.92704e-20)
(24.8591 1.65149 1.72314e-19)
(24.864 1.67379 -9.30094e-19)
(24.8689 1.6966 0)
(24.8737 1.71971 1.28186e-18)
(24.8786 1.74335 2.11961e-18)
(24.8834 1.76719 -1.12623e-18)
(24.8883 1.79128 -9.897e-19)
(24.8932 1.81552 2.27898e-17)
(24.8982 1.83985 9.64385e-18)
(24.9032 1.86419 -3.58839e-18)
(24.9084 1.88857 -9.88266e-19)
(24.9136 1.91288 2.29406e-17)
(24.919 1.93717 2.64532e-18)
(24.9246 1.9614 4.09906e-18)
(24.9304 1.98559 2.30707e-17)
(24.9365 2.00975 4.95815e-17)
(24.9429 2.0339 -1.28558e-17)
(24.9496 2.05804 3.26928e-18)
(24.9567 2.08221 -8.74873e-19)
(24.9642 2.10641 -4.10466e-17)
(24.9721 2.13065 2.23262e-18)
(24.9803 2.15494 1.96629e-19)
(24.989 2.17927 2.06913e-18)
(24.998 2.20364 5.1111e-19)
(25.0073 2.22804 -1.60774e-18)
(25.017 2.25246 -2.33683e-17)
(25.0269 2.27691 -1.60141e-17)
(25.0371 2.30136 -7.11932e-17)
(25.0475 2.32584 1.52118e-18)
(25.0581 2.35034 1.24658e-16)
(25.0688 2.37489 1.13499e-18)
(25.0797 2.39949 6.63732e-17)
(25.0907 2.42416 -1.83116e-17)
(25.1018 2.44893 6.85044e-17)
(25.1131 2.47381 9.2748e-17)
(25.1246 2.49881 -2.46434e-17)
(25.1362 2.52394 6.3114e-18)
(25.1482 2.5492 -4.07934e-17)
(25.1603 2.57457 -5.25412e-18)
(25.1729 2.60004 2.50653e-18)
(25.1858 2.62558 5.9533e-18)
(25.1991 2.65115 2.37007e-18)
(25.213 2.6767 -2.57481e-18)
(25.2273 2.70218 3.74826e-18)
(25.2422 2.72752 3.43259e-18)
(25.2575 2.75265 -1.63134e-19)
(25.2733 2.77751 -1.62707e-18)
(25.2895 2.802 -1.11233e-16)
(25.3059 2.82605 -1.629e-16)
(25.3224 2.84959 -8.13846e-17)
(25.3391 2.87256 -1.57999e-18)
(25.3558 2.89491 2.17218e-16)
(25.3725 2.91659 -4.42165e-19)
(25.3893 2.93757 2.15701e-16)
(25.406 2.9578 -7.8868e-19)
(25.4223 2.97724 -8.54933e-19)
(25.438 2.99585 -8.00013e-20)
(25.4528 3.01359 3.38482e-18)
(25.4665 3.03047 -3.35146e-18)
(25.479 3.04639 -2.17348e-19)
(25.489 3.05947 -5.09141e-19)
(25.4967 3.07025 3.01917e-18)
(25.5042 3.08125 2.67949e-18)
(25.5114 3.09222 4.94666e-19)
(25.5183 3.1032 2.47272e-18)
(25.5245 3.11447 -3.15263e-19)
(25.5283 3.12363 -1.88499e-18)
(25.5287 3.13871 0)
(25.5174 3.13206 1.32726e-18)
(25.5109 3.18021 -1.67198e-17)
(25.4905 3.08778 -9.1259e-17)
(25.5576 3.33156 -1.7901e-19)
(25.5967 2.88812 -6.42835e-19)
(24.4637 1.62829 -6.13886e-18)
(24.9201 1.65006 9.6875e-19)
(25.0503 1.66465 1.2152e-18)
(25.0396 1.67555 -3.235e-19)
(25.035 1.68734 7.16831e-18)
(25.0348 1.69961 1.66021e-17)
(25.0368 1.71298 -9.33052e-18)
(25.0386 1.72662 8.84303e-19)
(25.0401 1.74115 -1.3998e-18)
(25.0415 1.75624 0)
(25.0427 1.77204 1.56054e-17)
(25.0439 1.78856 2.18681e-17)
(25.045 1.80575 -8.65758e-18)
(25.0461 1.82366 -9.36377e-18)
(25.0473 1.84226 2.99923e-19)
(25.0486 1.86149 -1.13155e-18)
(25.05 1.88137 -4.54106e-19)
(25.0515 1.90182 -9.56724e-19)
(25.0531 1.9228 -3.44869e-17)
(25.055 1.94427 3.53283e-18)
(25.0571 1.96617 3.13301e-18)
(25.0594 1.98843 -1.27896e-17)
(25.0619 2.011 -2.30426e-18)
(25.0647 2.03384 4.04532e-18)
(25.0678 2.05688 2.74274e-17)
(25.0712 2.0801 7.00245e-18)
(25.0749 2.10346 3.85988e-17)
(25.0789 2.12694 2.30126e-17)
(25.0833 2.15052 2.88182e-17)
(25.0879 2.17419 1.7038e-17)
(25.0929 2.19795 5.60433e-17)
(25.0983 2.22179 -2.50925e-17)
(25.1039 2.24572 -2.72966e-17)
(25.1099 2.26974 3.43151e-17)
(25.1162 2.29384 -9.77363e-18)
(25.1229 2.31805 2.02014e-17)
(25.1298 2.34235 -2.96419e-18)
(25.1371 2.36676 -4.0604e-17)
(25.1447 2.39127 1.52455e-17)
(25.1526 2.4159 1.30445e-17)
(25.1608 2.44063 -3.70463e-17)
(25.1692 2.46548 -8.78732e-17)
(25.1781 2.49043 5.47783e-17)
(25.1872 2.5155 6.49645e-18)
(25.1967 2.54067 -6.91624e-17)
(25.2066 2.56592 -5.4084e-18)
(25.2169 2.59124 1.98793e-18)
(25.2277 2.61661 4.85872e-17)
(25.2389 2.64199 5.59025e-17)
(25.2507 2.66734 4.79921e-17)
(25.2631 2.69262 7.24516e-19)
(25.276 2.71778 2.33997e-16)
(25.2894 2.74275 -1.68362e-19)
(25.3033 2.76747 -2.61554e-17)
(25.3176 2.79187 1.04821e-16)
(25.3322 2.81587 4.30375e-17)
(25.3469 2.83942 -1.15608e-16)
(25.3618 2.86244 -1.64726e-18)
(25.3769 2.88489 1.02175e-17)
(25.3921 2.90673 2.28557e-17)
(25.4073 2.92791 -4.34415e-18)
(25.4225 2.9484 -1.26051e-17)
(25.4375 2.96814 -2.11206e-16)
(25.4518 2.98709 2.67167e-16)
(25.4653 3.00518 1.42926e-16)
(25.4779 3.02247 -3.56967e-18)
(25.4894 3.03881 -2.32125e-19)
(25.4985 3.05228 -1.00378e-16)
(25.5055 3.0634 3.23697e-18)
(25.5123 3.07478 3.74596e-17)
(25.5188 3.08617 5.33141e-19)
(25.525 3.09759 2.23806e-16)
(25.5305 3.10936 -3.42084e-19)
(25.5337 3.11898 -1.21159e-16)
(25.5329 3.13466 0)
(25.5215 3.12842 -1.82406e-17)
(25.5127 3.17742 1.24766e-17)
(25.497 3.08601 8.87867e-17)
(25.5582 3.33048 1.4194e-19)
(25.6092 2.8908 -6.14812e-19)
(25.0074 1.75843 -4.23979e-19)
(25.2073 1.76842 8.62135e-19)
(25.2209 1.77771 -8.54289e-19)
(25.2053 1.78553 -5.88004e-19)
(25.2053 1.79458 -3.09256e-19)
(25.2061 1.80406 -1.31015e-17)
(25.2072 1.81402 1.67089e-17)
(25.2075 1.82433 -1.35255e-18)
(25.2075 1.83515 -1.03728e-17)
(25.2071 1.84637 0)
(25.2064 1.85808 -5.98537e-18)
(25.2054 1.87027 -7.02381e-19)
(25.2041 1.88295 -8.10822e-20)
(25.2026 1.89617 -2.21145e-18)
(25.2008 1.90992 -2.07314e-19)
(25.199 1.92422 -7.84627e-18)
(25.197 1.93911 -2.03306e-18)
(25.195 1.95457 -1.42426e-17)
(25.193 1.97063 2.279e-19)
(25.191 1.98729 3.73013e-19)
(25.1892 2.00455 3.89986e-17)
(25.1875 2.02241 2.68945e-19)
(25.186 2.04084 -2.22603e-17)
(25.1847 2.05985 2.71476e-17)
(25.1837 2.07938 -1.45107e-18)
(25.1831 2.09942 -1.82322e-17)
(25.1828 2.11993 -8.25671e-19)
(25.1829 2.14086 -4.1774e-19)
(25.1833 2.1622 -1.79936e-17)
(25.1842 2.18388 -1.3073e-17)
(25.1854 2.20589 -5.4203e-17)
(25.1871 2.22818 2.17525e-17)
(25.1892 2.25072 2.76145e-18)
(25.1917 2.27351 -5.27629e-17)
(25.1946 2.29651 1.06157e-17)
(25.1979 2.31971 -1.69628e-17)
(25.2017 2.3431 -2.94519e-18)
(25.2058 2.36667 4.23802e-17)
(25.2104 2.39041 -1.32568e-17)
(25.2153 2.41432 -1.24945e-17)
(25.2207 2.43839 -1.05453e-17)
(25.2265 2.46263 8.32357e-17)
(25.2327 2.487 -2.02342e-19)
(25.2393 2.5115 3.48126e-17)
(25.2464 2.53614 3.31238e-18)
(25.254 2.56087 -5.52682e-18)
(25.2621 2.5857 -4.52804e-17)
(25.2707 2.61058 -3.58385e-17)
(25.2798 2.6355 -5.05455e-17)
(25.2896 2.66041 -1.81971e-16)
(25.2999 2.68528 6.65615e-17)
(25.3108 2.71006 -8.07642e-17)
(25.3223 2.73469 -1.4238e-16)
(25.3343 2.75911 -6.6104e-19)
(25.3467 2.78326 -6.95119e-17)
(25.3594 2.80706 -3.67064e-17)
(25.3724 2.83047 1.16254e-16)
(25.3856 2.85341 -1.72689e-18)
(25.399 2.87584 -1.47095e-17)
(25.4125 2.89772 -2.36975e-17)
(25.4263 2.91901 -4.59699e-18)
(25.44 2.93965 -5.21286e-19)
(25.4535 2.95959 2.08477e-16)
(25.4665 2.97879 -2.80799e-16)
(25.4787 2.99718 -1.34958e-16)
(25.49 3.0148 -3.83549e-18)
(25.5004 3.0315 4.29909e-17)
(25.5086 3.04532 1.51026e-16)
(25.5149 3.05675 3.49801e-18)
(25.5209 3.06849 2.40716e-18)
(25.5268 3.08026 2.07187e-18)
(25.5323 3.0921 -1.3922e-16)
(25.5371 3.10435 5.74459e-17)
(25.5395 3.11442 1.16542e-16)
(25.5375 3.13065 0)
(25.526 3.12495 5.35298e-17)
(25.5149 3.17455 -3.99538e-16)
(25.5038 3.0846 -1.33493e-18)
(25.3149 1.87087 -3.04578e-19)
(25.3519 1.87391 5.86371e-19)
(25.3339 1.88062 5.40108e-19)
(25.3299 1.88663 -2.297e-19)
(25.3319 1.89379 -1.99342e-19)
(25.3326 1.90109 9.46315e-19)
(25.333 1.9088 -1.15936e-18)
(25.3328 1.91684 2.79162e-19)
(25.3322 1.92529 4.51212e-19)
(25.3313 1.9341 0)
(25.3301 1.94333 2.06782e-19)
(25.3285 1.95298 -4.74944e-19)
(25.3265 1.96305 -5.55228e-20)
(25.3243 1.97357 5.07466e-19)
(25.3217 1.98453 -1.46248e-19)
(25.3189 1.99595 1.00587e-19)
(25.3159 2.00786 -1.48541e-18)
(25.3127 2.02023 1.09228e-18)
(25.3093 2.0331 1.73115e-19)
(25.3058 2.04647 3.64364e-18)
(25.3022 2.06034 -1.58429e-18)
(25.2986 2.07475 1.64849e-17)
(25.295 2.08968 -1.12753e-17)
(25.2915 2.10515 5.7503e-19)
(25.2882 2.12115 -2.5021e-20)
(25.285 2.13772 5.39209e-19)
(25.282 2.15481 -7.28429e-19)
(25.2793 2.17244 -3.73695e-19)
(25.2769 2.1906 -9.65332e-19)
(25.2748 2.20928 1.68491e-18)
(25.2731 2.22845 4.26052e-19)
(25.2718 2.2481 -1.3728e-18)
(25.271 2.2682 2.59552e-18)
(25.2705 2.28873 5.50277e-17)
(25.2705 2.30966 4.65329e-19)
(25.271 2.33096 1.42542e-18)
(25.2719 2.35261 -2.83731e-18)
(25.2733 2.37458 1.10533e-18)
(25.2752 2.39686 8.86979e-19)
(25.2775 2.41942 1.98946e-19)
(25.2803 2.44224 1.35365e-18)
(25.2836 2.4653 -1.86001e-18)
(25.2874 2.48859 -2.00472e-19)
(25.2917 2.51209 4.62953e-18)
(25.2965 2.53577 3.30538e-18)
(25.3019 2.55961 -5.53275e-18)
(25.3078 2.5836 5.66179e-18)
(25.3143 2.60769 6.32281e-18)
(25.3214 2.63187 2.52787e-18)
(25.3291 2.65609 4.41751e-18)
(25.3374 2.68032 8.48712e-19)
(25.3464 2.70451 -3.73599e-18)
(25.356 2.72861 6.87683e-18)
(25.3661 2.75255 -6.762e-19)
(25.3767 2.77628 -3.78864e-17)
(25.3876 2.79974 3.94931e-17)
(25.3988 2.82286 6.73755e-19)
(25.4102 2.84558 -1.78773e-18)
(25.4219 2.86787 -2.42398e-18)
(25.4339 2.88967 2.09764e-17)
(25.4461 2.91095 -1.82299e-16)
(25.4583 2.93164 1.03858e-17)
(25.4704 2.95169 -1.01209e-18)
(25.482 2.97104 3.41491e-19)
(25.4929 2.98965 4.07882e-18)
(25.503 3.00753 -4.07361e-18)
(25.5122 3.02453 -1.38028e-18)
(25.5194 3.03864 -1.90986e-18)
(25.5249 3.05035 3.74045e-18)
(25.5302 3.06241 -3.02742e-17)
(25.5353 3.07454 -8.66585e-19)
(25.5401 3.08677 -2.09675e-16)
(25.5441 3.09946 1.80159e-16)
(25.5458 3.11 -1.16782e-16)