/*--------------------------------*- C++ -*----------------------------------*\
| =========                 |                                                 |
| \\      /  F ield         | OpenFOAM: The Open Source CFD Toolbox           |
|  \\    /   O peration     | Version:  2306                                  |
|   \\  /    A nd           | Website:  www.openfoam.com                      |
|    \\/     M anipulation  |                                                 |
\*---------------------------------------------------------------------------*/
FoamFile
{
    version     2.0;
    format      ascii;
    arch        "LSB;label=32;scalar=64";
    class       volSymmTensorField;
    location    "100";
    object      turbulenceProperties:devReff;
}
// * * * * * * * * * * * * * * * * * * * * * * * * * * * * * * * * * * * * * //

dimensions      [0 2 -2 0 0 0 0];

internalField   nonuniform List<symmTensor> 
10720
(
(0.00137017 0.00277287 -2.96062e-21 -0.00145173 -1.72414e-20 8.15594e-05)
(0.00188067 0.00319142 1.64166e-20 -0.00193681 1.07278e-19 5.61455e-05)
(0.00271379 0.0035815 -4.96587e-20 -0.00283664 -3.00601e-19 0.000122846)
(0.00384848 0.00409863 1.11223e-19 -0.00400449 5.87443e-19 0.000156011)
(0.00538716 0.00456941 -1.51804e-19 -0.00556034 -5.3678e-19 0.000173188)
(0.00753247 0.00486981 -1.4602e-19 -0.00779289 -3.44357e-19 0.000260422)
(0.0104133 0.00499413 3.01596e-19 -0.0107437 8.89776e-19 0.0003304)
(0.014129 0.00467597 -6.81144e-19 -0.0145339 -1.60692e-18 0.000404937)
(0.018837 0.00361079 -1.52542e-19 -0.0193692 3.48758e-19 0.00053224)
(0.0246294 0.00157063 5.28268e-19 -0.0252836 9.50979e-19 0.000654214)
(0.0315742 -0.00188985 1.23033e-18 -0.0323827 5.38737e-19 0.000808542)
(0.0399421 -0.00726329 -2.75843e-18 -0.0409447 -2.498e-18 0.00100266)
(0.0502322 -0.0152904 4.95186e-19 -0.0514722 6.32307e-19 0.00124004)
(0.0630933 -0.0271701 2.14404e-18 -0.0646316 1.05093e-18 0.00153834)
(0.0794698 -0.0448736 -3.35442e-18 -0.0814165 -4.79378e-18 0.00194669)
(0.101193 -0.0718814 -3.74089e-18 -0.103694 -1.98537e-18 0.00250102)
(0.13018 -0.113892 1.40201e-17 -0.133556 1.25309e-17 0.00337566)
(0.171899 -0.18273 1.67201e-17 -0.176585 2.34771e-17 0.0046861)
(0.228481 -0.294229 -2.58701e-17 -0.235251 -3.53917e-17 0.0067702)
(0.323055 -0.503938 -4.43689e-18 -0.333364 9.39195e-18 0.0103091)
(0.441693 -0.841559 -2.03192e-17 -0.457186 2.86349e-17 0.0154929)
(0.707526 -1.66668 1.71548e-17 -0.733951 1.97602e-17 0.0264247)
(0.982535 -2.96066 -9.89737e-17 -1.02325 -2.03774e-16 0.0407129)
(1.78109 -7.42473 1.50237e-16 -1.87317 2.22041e-16 0.0920791)
(1.89223 -12.6372 1.66784e-17 -2.01539 -4.43437e-16 0.123157)
(0.98932 -14.1682 4.25714e-16 -1.06682 3.94386e-16 0.077496)
(0.0684114 -13.7787 -4.99561e-17 -0.0974462 -6.30679e-17 0.0290348)
(-0.617993 -13.2537 2.37844e-16 0.608899 1.78814e-16 0.00909403)
(-1.16546 -12.8569 7.21528e-16 1.15911 9.41597e-16 0.00634699)
(-1.61315 -12.3794 5.26941e-16 1.60519 1.55008e-15 0.00795539)
(-1.94814 -11.6663 -1.31915e-15 1.93681 -1.46778e-15 0.0113304)
(-2.16347 -10.7167 -4.95171e-16 2.14738 -5.31197e-16 0.0160945)
(-2.2498 -9.55936 2.65513e-16 2.23036 -3.24192e-15 0.0194407)
(-2.18858 -8.21218 -2.08136e-15 2.1703 -5.04815e-15 0.0182826)
(-1.95211 -6.60917 6.69375e-16 1.93522 5.86148e-16 0.0168906)
(-1.59112 -4.97027 8.00054e-16 1.58128 5.02897e-16 0.00984155)
(-1.08206 -3.15148 5.75345e-17 1.0699 -1.76754e-16 0.0121609)
(-0.658086 -1.88147 -5.04844e-16 0.66243 1.02045e-15 -0.0043445)
(-0.147597 -0.103767 -2.99145e-16 0.159165 -1.33197e-15 -0.0115675)
(0.000924654 0.00241772 8.79947e-21 -0.000950744 3.72812e-20 2.609e-05)
(0.000648881 0.00207332 -7.91559e-21 -0.000697564 -1.63758e-20 4.86829e-05)
(0.000410114 0.00169632 -6.19164e-20 -0.00043256 -7.67239e-20 2.24462e-05)
(0.000259583 0.00136074 5.87411e-20 -0.000272682 4.04161e-20 1.30989e-05)
(0.000200382 0.00104474 -2.02446e-20 -0.000191619 4.2322e-20 -8.76304e-06)
(0.000221738 0.000783058 -5.91739e-20 -0.000185082 2.22824e-19 -3.66559e-05)
(0.000303835 0.000629584 -7.15567e-20 -0.000261486 5.38067e-20 -4.23491e-05)
(0.000477046 0.000633211 1.71481e-19 -0.000456162 -1.54112e-19 -2.08847e-05)
(0.000744349 0.000746928 1.75909e-19 -0.000743562 -7.00459e-20 -7.86327e-07)
(0.00113036 0.00101704 -9.55455e-20 -0.00114222 7.05529e-21 1.18628e-05)
(0.00168473 0.00153992 -4.58418e-20 -0.00170891 1.56804e-19 2.41859e-05)
(0.00248606 0.00246282 3.06678e-19 -0.00252578 3.28114e-20 3.97201e-05)
(0.00361318 0.00400047 4.98754e-19 -0.00367714 -9.55762e-20 6.39632e-05)
(0.00512525 0.00640336 -1.05431e-19 -0.00522204 -1.93824e-19 9.67941e-05)
(0.00705735 0.00990213 8.31724e-20 -0.00718648 -1.86709e-19 0.000129129)
(0.00944747 0.0148644 2.16067e-19 -0.00962294 -9.50961e-20 0.000175468)
(0.0125211 0.0219426 -3.54853e-19 -0.0127475 5.92018e-19 0.000226413)
(0.016688 0.0324637 8.2745e-19 -0.0169881 1.50279e-19 0.000300071)
(0.0227533 0.0489405 3.85656e-19 -0.0231544 -9.62908e-19 0.000401153)
(0.031831 0.0758737 -1.72802e-18 -0.0324088 -9.64557e-20 0.000577763)
(0.0462833 0.122763 -5.63531e-18 -0.0471542 -9.50841e-19 0.000870911)
(0.0687859 0.205673 -3.39689e-18 -0.070216 -3.9761e-19 0.00143004)
(0.106987 0.368733 7.95854e-18 -0.109583 -1.28774e-18 0.00259614)
(0.163183 0.677613 -1.33264e-17 -0.16841 1.83971e-18 0.00522649)
(0.261697 1.38483 5.55174e-18 -0.273098 6.05068e-19 0.0114011)
(0.390113 2.80151 -1.71444e-16 -0.413545 1.71504e-17 0.0234324)
(0.584004 6.37901 -1.01122e-16 -0.639524 -6.55277e-18 0.0555203)
(0.537881 11.8204 8.32477e-17 -0.638986 -9.0884e-18 0.101105)
(0.011395 15.4742 1.01516e-17 -0.128909 1.31775e-18 0.117514)
(-0.708398 16.8363 5.56046e-17 0.60282 -3.46918e-17 0.105578)
(-1.41287 17.1391 -4.99372e-16 1.3258 1.86875e-17 0.0870681)
(-2.05802 17.0988 1.62028e-16 1.98679 4.84659e-17 0.0712296)
(-2.63596 16.8895 -2.18821e-15 2.57687 -3.14121e-16 0.0590914)
(-3.14011 16.5477 -3.88608e-15 3.09035 4.67139e-16 0.0497558)
(-3.57162 16.0952 1.27634e-15 3.52873 2.8769e-16 0.0428895)
(-3.94002 15.5645 1.19276e-15 3.90234 3.33518e-17 0.0376725)
(-4.23513 14.851 1.66846e-15 4.20049 1.67953e-16 0.0346364)
(-4.47346 14.1417 -3.22192e-16 4.4436 -7.61317e-17 0.0298606)
(-4.06201 11.1784 -5.0945e-15 4.05986 -9.05137e-16 0.00214573)
(0.000553094 -0.000367259 3.97838e-22 -0.000512495 2.10239e-21 -4.05989e-05)
(0.000481611 -0.000458377 2.26223e-20 -0.000433435 6.02598e-20 -4.81759e-05)
(0.000376448 -0.000539941 -1.76937e-20 -0.000316479 -3.38712e-20 -5.99692e-05)
(0.000265712 -0.000580521 -2.47518e-20 -0.000195076 -5.15852e-20 -7.06366e-05)
(0.000154324 -0.000587293 1.09745e-19 -7.5036e-05 1.99216e-19 -7.92879e-05)
(4.67053e-05 -0.00056605 4.25618e-20 4.14109e-05 6.70852e-20 -8.81162e-05)
(-3.89366e-05 -0.000518936 1.96935e-19 0.000134853 1.88015e-19 -9.59164e-05)
(-0.000100411 -0.000456234 -9.26072e-20 0.000201884 -2.18913e-20 -0.000101472)
(-0.000139735 -0.000388382 1.39889e-19 0.000245426 1.04329e-19 -0.000105691)
(-0.000156086 -0.00032283 1.02959e-21 0.000264422 1.36712e-21 -0.000108336)
(-0.000156108 -0.000264731 -2.03021e-19 0.000265432 -1.72839e-19 -0.000109324)
(-0.000145379 -0.000217611 2.59652e-19 0.000255076 3.06853e-19 -0.000109696)
(-0.000127388 -0.000182699 1.49104e-19 0.000236147 7.75136e-20 -0.000108759)
(-0.000107795 -0.000164928 -2.54364e-20 0.000216213 1.2467e-20 -0.000108418)
(-9.0957e-05 -0.000173694 -1.27286e-19 0.000207418 1.72927e-20 -0.000116461)
(-7.56255e-05 -0.000233292 2.17341e-19 0.00022316 2.32468e-19 -0.000147534)
(-4.2143e-05 -0.000471138 3.15278e-19 0.000298523 -3.56354e-19 -0.00025638)
(0.00014226 -0.00125603 -2.29555e-18 0.000397745 -2.60066e-18 -0.000540005)
(0.000795472 -0.00315384 4.52851e-19 0.000197498 3.52054e-18 -0.00099297)
(0.00270095 -0.00829933 4.25975e-18 -0.000898294 -1.12014e-18 -0.00180265)
(0.00728835 -0.0209683 7.62926e-18 -0.00433307 3.28991e-18 -0.00295529)
(0.0221689 -0.0660529 -1.4419e-17 -0.0164901 -9.7733e-18 -0.00567883)
(0.0527707 -0.176544 3.91303e-17 -0.044084 6.16218e-17 -0.00868664)
(0.141594 -0.573466 8.54863e-19 -0.125842 -4.61664e-17 -0.015752)
(0.289981 -1.50591 -1.44371e-16 -0.268736 5.66422e-17 -0.0212458)
(0.37714 -2.67779 -8.75508e-17 -0.365454 -2.87729e-16 -0.0116863)
(0.354761 -3.92433 -4.13447e-18 -0.361909 3.86458e-17 0.00714765)
(0.199638 -5.03555 -2.03402e-16 -0.221494 -2.36054e-16 0.0218563)
(-0.06972 -5.70485 -3.9192e-16 0.0436248 -1.68491e-15 0.0260952)
(-0.365938 -5.67929 -1.65418e-16 0.346721 -2.22943e-15 0.0192175)
(-0.583796 -5.09251 3.96539e-16 0.579512 3.23063e-15 0.00428475)
(-0.685073 -4.33057 -6.61246e-16 0.698057 -6.69049e-17 -0.0129837)
(-0.698778 -3.65115 -6.12933e-15 0.722731 1.01729e-15 -0.0239533)
(-0.661135 -3.11892 6.71966e-15 0.686558 1.02805e-14 -0.0254224)
(-0.608617 -2.70869 -1.1469e-15 0.628042 -5.6266e-16 -0.0194254)
(-0.512278 -2.3264 2.77692e-15 0.529621 -2.4841e-15 -0.0173435)
(-0.441211 -1.93537 -1.07e-15 0.451942 5.55961e-16 -0.0107309)
(-0.273008 -1.35345 8.94111e-16 0.306078 -3.18656e-15 -0.0330699)
(-0.872882 -1.8946 3.40988e-15 0.718855 6.90072e-15 0.154027)
(0.000602452 -0.000252401 9.32716e-21 -0.00057051 9.64139e-21 -3.19417e-05)
(0.000623898 -0.000134379 -1.29818e-20 -0.000596929 -1.05915e-19 -2.69697e-05)
(0.000613779 5.91209e-06 -2.32778e-20 -0.000596994 -4.43819e-20 -1.67853e-05)
(0.000558194 0.000154141 -1.19766e-20 -0.000551582 1.77626e-19 -6.61131e-06)
(0.000453925 0.000280904 2.10069e-20 -0.000456398 3.75773e-21 2.47262e-06)
(0.000322464 0.00036182 2.77057e-20 -0.00032975 -2.24294e-19 7.28603e-06)
(0.000195904 0.000394132 -3.69954e-20 -0.000207693 -1.91739e-19 1.17884e-05)
(7.25495e-05 0.000389678 -2.84722e-19 -8.32594e-05 9.87461e-20 1.07099e-05)
(-3.79919e-05 0.000347225 5.60345e-20 3.44012e-05 1.20315e-19 3.59076e-06)
(-0.000112601 0.000279616 -2.91024e-20 0.000118082 -6.89121e-20 -5.48055e-06)
(-0.000147282 0.000209174 -4.94164e-20 0.00016036 -5.3651e-20 -1.3078e-05)
(-0.000153782 0.000149497 -5.07978e-20 0.000172054 -4.63437e-20 -1.82719e-05)
(-0.000144398 0.000103957 -5.85998e-21 0.000165823 1.71845e-20 -2.14251e-05)
(-0.000127177 7.21879e-05 2.96081e-20 0.000150175 6.47817e-20 -2.29989e-05)
(-0.000107867 5.18262e-05 5.88225e-20 0.00013117 1.09893e-20 -2.33037e-05)
(-8.99138e-05 3.92844e-05 -9.74266e-20 0.000112604 8.4718e-21 -2.26898e-05)
(-7.4271e-05 3.19237e-05 9.6343e-20 9.57712e-05 -4.2666e-21 -2.15002e-05)
(-6.1336e-05 2.77616e-05 -1.69332e-20 8.13489e-05 -1.54266e-20 -2.00129e-05)
(-5.08444e-05 2.52348e-05 -4.32213e-20 6.92243e-05 3.76849e-20 -1.83798e-05)
(-4.24285e-05 2.35019e-05 -3.24003e-20 5.9224e-05 1.96465e-20 -1.67955e-05)
(-3.57491e-05 2.20634e-05 -7.68315e-20 5.11674e-05 4.53135e-20 -1.54183e-05)
(-3.09409e-05 2.09182e-05 -9.98326e-20 4.55052e-05 3.14044e-20 -1.45643e-05)
(-2.79397e-05 2.02315e-05 -1.31431e-19 4.25529e-05 1.61426e-20 -1.46132e-05)
(-2.59578e-05 2.04807e-05 6.26948e-20 4.16117e-05 -4.14986e-21 -1.56539e-05)
(-3.4137e-05 3.21106e-05 -7.48075e-21 5.83489e-05 -1.13271e-21 -2.42119e-05)
(-0.000426428 0.000498065 1.01374e-18 0.00077353 -2.00154e-19 -0.000347101)
(-0.00240792 0.00337495 5.65055e-18 0.00456312 -8.79396e-20 -0.0021552)
(-0.0132812 0.0223034 1.25875e-18 0.0258297 1.72444e-18 -0.0125485)
(-0.0331087 0.0698046 -6.30345e-19 0.0649386 -6.33101e-19 -0.0318298)
(-0.0515285 0.139599 6.6403e-17 0.0994614 1.33717e-17 -0.0479329)
(-0.0638814 0.216759 4.82498e-16 0.11703 -3.31958e-17 -0.0531485)
(-0.0720479 0.2849 2.89652e-16 0.121154 2.7788e-17 -0.0491059)
(-0.0801822 0.338489 2.0281e-15 0.121805 6.31684e-17 -0.0416231)
(-0.0906062 0.381137 2.88105e-15 0.125362 -4.4323e-16 -0.0347553)
(-0.104271 0.416977 -7.01205e-16 0.134003 1.64121e-16 -0.0297323)
(-0.119594 0.451092 -5.68139e-16 0.14654 2.25141e-17 -0.0269459)
(-0.141173 0.481801 -1.46429e-15 0.166207 4.84932e-17 -0.0250338)
(-0.157382 0.561464 -2.72614e-15 0.186206 -3.76417e-16 -0.0288234)
(-0.21259 0.714908 -1.89585e-15 0.213528 3.83665e-16 -0.000937526)
(0.000352769 -0.000241716 2.81173e-21 -0.000368898 5.66029e-21 1.61293e-05)
(0.000291205 -0.000303658 -3.04793e-20 -0.000311782 -5.25182e-20 2.05764e-05)
(0.000207888 -0.000352237 -4.31692e-21 -0.000232985 -8.49184e-21 2.50975e-05)
(0.000111984 -0.000376328 2.81738e-20 -0.00014342 4.33779e-20 3.14364e-05)
(1.47126e-05 -0.000376451 -6.81457e-20 -5.14917e-05 -1.16183e-19 3.67791e-05)
(-8.00265e-05 -0.000350965 -7.22669e-20 3.76985e-05 -1.13302e-19 4.2328e-05)
(-0.00016236 -0.000302313 -1.54639e-19 0.000113914 -2.12635e-19 4.84455e-05)
(-0.000225339 -0.000238532 -1.00666e-20 0.000171695 -4.25914e-21 5.36439e-05)
(-0.000267839 -0.000165294 -8.14289e-20 0.000209498 -1.50727e-19 5.83407e-05)
(-0.000289376 -9.05185e-05 2.78812e-19 0.000226737 2.99288e-19 6.26385e-05)
(-0.000292371 -1.99839e-05 -3.52188e-20 0.000226468 5.73332e-20 6.5903e-05)
(-0.000280821 4.29697e-05 3.82516e-20 0.000212346 2.06525e-20 6.84755e-05)
(-0.00025862 9.62797e-05 -2.17788e-19 0.000188343 -2.57903e-19 7.02767e-05)
(-0.000231159 0.000139451 1.28484e-19 0.000160552 -8.17552e-21 7.06065e-05)
(-0.000202769 0.00017367 4.19505e-20 0.000133692 1.15439e-19 6.90764e-05)
(-0.000178061 0.000202111 5.44542e-20 0.000111219 2.39341e-20 6.68419e-05)
(-0.000150295 0.000214998 -2.48694e-19 8.98746e-05 -1.40611e-19 6.04201e-05)
(-0.000124391 0.000217214 2.14463e-19 7.21873e-05 1.59128e-19 5.22042e-05)
(-8.10671e-05 0.000169157 5.26691e-20 4.64999e-05 7.83943e-23 3.45672e-05)
(-6.08734e-05 0.000147771 -1.81683e-19 3.55379e-05 -2.70006e-20 2.53355e-05)
(-0.000714956 0.0019776 2.50784e-18 0.000436318 -9.73432e-19 0.000278637)
(-0.000364675 0.00114131 4.26311e-20 0.000236812 6.48542e-19 0.000127862)
(-0.000227433 0.000868505 3.03562e-19 0.000153375 -4.54687e-19 7.4058e-05)
(-0.000947168 0.00847577 -7.66731e-18 0.000379641 -7.81164e-18 0.000567528)
(0.000552022 -0.000857215 7.83888e-19 -0.000533005 1.88766e-18 -1.90172e-05)
(0.0051545 -0.0195769 -8.31606e-18 -0.00465273 1.36017e-18 -0.000501769)
(0.0147739 -0.093404 5.78428e-18 -0.0131435 2.79967e-19 -0.00163041)
(0.026411 -0.298305 -3.94507e-18 -0.0231377 3.10658e-17 -0.00327335)
(0.0271154 -0.761575 -2.33551e-16 -0.0222935 1.1056e-16 -0.00482191)
(-0.0153111 -1.57276 9.21529e-17 0.0202477 1.79702e-16 -0.00493655)
(-0.13715 -2.58627 1.07005e-15 0.138966 -3.37512e-16 -0.00181665)
(-0.322779 -3.38231 -1.95176e-15 0.318184 1.33019e-15 0.00459453)
(-0.488953 -3.64873 3.22985e-16 0.479839 5.72583e-15 0.00911405)
(-0.560139 -3.46401 3.26097e-17 0.553558 -3.85877e-15 0.0065808)
(-0.548511 -3.10593 2.52131e-15 0.544617 -1.33676e-15 0.00389468)
(-0.443622 -2.69833 -1.04506e-14 0.444892 6.09602e-16 -0.00126953)
(-0.378211 -2.3357 3.20391e-15 0.379563 -6.49898e-16 -0.00135168)
(-0.205301 -1.70452 3.38529e-15 0.229347 1.35609e-15 -0.0240457)
(-0.909385 -2.12923 -4.77437e-15 0.904329 2.1334e-15 0.00505617)
(0.000399396 -0.000165842 -5.84808e-21 -0.000413376 -1.06451e-20 1.39807e-05)
(0.000426265 -8.64745e-05 -1.37342e-20 -0.000436444 1.65461e-21 1.01789e-05)
(0.000435085 8.78629e-06 8.10031e-20 -0.000442523 1.10142e-19 7.43803e-06)
(0.000414815 0.000107097 6.48164e-21 -0.000418416 -5.52217e-20 3.60139e-06)
(0.000360505 0.000198407 4.3038e-21 -0.000361446 -8.51342e-20 9.40739e-07)
(0.000278067 0.00026535 -3.18002e-20 -0.000277956 9.64581e-20 -1.10974e-07)
(0.000182654 0.000303011 6.9282e-20 -0.000183832 1.48249e-19 1.17752e-06)
(8.55232e-05 0.000311977 1.43645e-19 -8.66163e-05 9.45476e-20 1.09307e-06)
(-4.57382e-07 0.000288189 7.37461e-20 -4.94461e-07 -9.99655e-20 9.51843e-07)
(-6.28107e-05 0.000240914 6.01121e-20 6.07483e-05 6.2412e-20 2.06237e-06)
(-9.83006e-05 0.000185178 -8.30228e-20 9.42382e-05 2.62694e-20 4.0624e-06)
(-0.000112046 0.000132425 -1.58312e-21 0.000105752 4.97508e-20 6.29397e-06)
(-0.000111209 8.78616e-05 3.33494e-20 0.000102722 -5.87764e-20 8.48711e-06)
(-0.000101588 5.32328e-05 1.30688e-19 9.10797e-05 -7.41716e-20 1.05082e-05)
(-8.83091e-05 2.84357e-05 -4.22719e-21 7.63302e-05 -5.26683e-21 1.19789e-05)
(-7.46505e-05 1.1362e-05 -9.9606e-21 6.15654e-05 3.58597e-20 1.30851e-05)
(-6.23189e-05 1.20756e-07 1.02512e-19 4.85539e-05 -7.71774e-20 1.37649e-05)
(-5.19558e-05 -7.1722e-06 1.12063e-20 3.78126e-05 7.17799e-21 1.41433e-05)
(-4.37715e-05 -1.19871e-05 1.08076e-19 2.9566e-05 -1.46509e-20 1.42055e-05)
(-3.73001e-05 -1.55367e-05 1.12883e-19 2.31276e-05 4.48627e-21 1.41724e-05)
(-3.21309e-05 -1.84785e-05 2.87563e-19 1.81002e-05 -4.3428e-20 1.40307e-05)
(-2.76207e-05 -2.14739e-05 3.56338e-19 1.3662e-05 -5.46398e-20 1.39587e-05)
(-2.29412e-05 -2.48778e-05 1.9964e-19 8.93561e-06 -8.05175e-21 1.40056e-05)
(-1.65662e-05 -2.81745e-05 4.31314e-20 1.94715e-06 -4.37031e-21 1.4619e-05)
(-8.49414e-06 -2.95034e-05 -5.00827e-20 -7.23987e-06 7.20689e-21 1.5734e-05)
(-5.83423e-07 -2.80035e-05 1.93866e-19 -1.61135e-05 -6.80083e-21 1.66969e-05)
(5.90873e-06 -2.46436e-05 -5.35257e-20 -2.34071e-05 6.89773e-21 1.74984e-05)
(8.24577e-06 -1.59906e-05 -3.39928e-20 -2.24379e-05 -1.02648e-22 1.41921e-05)
(0.000153373 -0.000171615 6.78929e-20 -0.000361998 6.01668e-21 0.000208625)
(0.000807162 -0.000364381 -2.34823e-18 -0.00177929 2.26819e-19 0.000972128)
(0.00202159 0.000995081 -1.27072e-17 -0.00434917 4.46351e-18 0.00232758)
(0.00270692 0.00736968 -7.24148e-17 -0.00607948 -3.16396e-18 0.00337256)
(0.00140331 0.0219276 -1.70981e-16 -0.00472644 3.19553e-17 0.00332313)
(-0.00264774 0.0457711 -4.10986e-16 0.000370643 3.29827e-17 0.0022771)
(-0.00956447 0.0776145 -9.69706e-16 0.00865486 -2.52889e-16 0.000909619)
(-0.0176451 0.113994 2.31381e-16 0.0179163 1.06211e-16 -0.00027119)
(-0.028553 0.152267 -1.19588e-15 0.0292888 -4.13932e-16 -0.000735815)
(-0.0206341 0.176734 3.36447e-15 0.0226654 5.15611e-16 -0.00203125)
(-0.0562221 0.276744 5.12419e-15 0.0513506 9.60281e-16 0.0048715)
(0.000297811 -0.000198336 8.46626e-21 -0.000292926 1.18592e-20 -4.88594e-06)
(0.000259523 -0.000247297 -1.03349e-20 -0.000253808 -1.80904e-20 -5.71557e-06)
(0.00020586 -0.000291499 -5.26535e-21 -0.000197954 -8.98181e-21 -7.90684e-06)
(0.000143433 -0.000322908 6.05357e-20 -0.000133404 8.51837e-20 -1.00289e-05)
(7.68876e-05 -0.00033787 4.37609e-20 -6.44411e-05 6.9903e-20 -1.24465e-05)
(8.66246e-06 -0.000336081 6.19584e-20 6.64919e-06 9.09578e-20 -1.53117e-05)
(-5.43061e-05 -0.000318471 8.36376e-20 7.26278e-05 9.19411e-20 -1.83217e-05)
(-0.000107085 -0.000287484 -4.30363e-20 0.000128503 -6.18184e-20 -2.14175e-05)
(-0.000147808 -0.000247101 -1.68762e-19 0.000172606 -1.59943e-19 -2.47973e-05)
(-0.000174681 -0.000202211 2.02049e-19 0.000202607 1.16917e-19 -2.79265e-05)
(-0.000188445 -0.000156666 1.80003e-19 0.000219422 1.48797e-19 -3.09766e-05)
(-0.000191013 -0.000113731 2.36401e-19 0.000224797 1.17549e-19 -3.37833e-05)
(-0.000184619 -7.57061e-05 -3.70523e-19 0.000220931 -1.2693e-19 -3.63116e-05)
(-0.000171432 -4.35225e-05 -3.37249e-19 0.000209691 -2.19122e-19 -3.82596e-05)
(-0.000153719 -1.76736e-05 4.27348e-19 0.000193167 1.38098e-19 -3.94478e-05)
(-0.000132989 1.64454e-06 9.30119e-20 0.000172931 5.34631e-20 -3.99415e-05)
(-0.000110269 1.7416e-05 -6.34933e-20 0.000148846 6.56623e-21 -3.85769e-05)
(-8.70057e-05 2.99081e-05 -2.20337e-19 0.000122827 -1.39839e-19 -3.58213e-05)
(-6.46369e-05 4.01588e-05 5.14007e-20 9.57479e-05 -2.01591e-20 -3.1111e-05)
(-4.30993e-05 4.5714e-05 2.29842e-19 6.66932e-05 7.07361e-20 -2.35939e-05)
(-2.71898e-05 4.76336e-05 -2.71415e-19 4.25963e-05 -7.73432e-20 -1.54065e-05)
(-2.20478e-05 5.80981e-05 1.32374e-19 3.31447e-05 1.76301e-20 -1.10969e-05)
(-2.2819e-05 8.48503e-05 -4.35271e-20 3.20825e-05 -9.67683e-21 -9.2635e-06)
(-1.61078e-05 9.15695e-05 -8.34028e-20 2.21967e-05 3.96479e-20 -6.0889e-06)
(-5.58681e-05 0.000665639 3.62451e-19 8.80492e-05 -1.09975e-19 -3.21811e-05)
(1.66473e-05 0.00468159 -2.16646e-18 0.000180434 2.77365e-18 -0.000197081)
(0.000959407 0.0113661 3.35809e-20 -0.000509173 -1.24728e-19 -0.000450234)
(3.31894e-05 0.000189325 6.72993e-20 -2.56176e-05 -2.24232e-20 -7.57175e-06)
(0.000948621 0.00235685 1.36922e-18 -0.00081525 2.91464e-18 -0.000133371)
(0.00600044 -0.00692168 9.25511e-18 -0.00537697 -4.30741e-17 -0.000623473)
(0.0122964 -0.119217 -3.6615e-17 -0.0109393 -1.71598e-16 -0.00135707)
(-0.00372769 -0.525668 1.20968e-15 0.00561703 2.68447e-16 -0.00188935)
(-0.0885007 -1.33751 2.03305e-15 0.089074 3.39406e-16 -0.000573239)
(-0.242314 -2.25497 -1.10482e-15 0.239256 -1.23873e-15 0.0030576)
(-0.380243 -2.82273 -5.60582e-15 0.373 8.51542e-16 0.00724252)
(-0.385522 -2.92938 3.35403e-15 0.381065 2.19906e-15 0.00445732)
(-0.365213 -2.8097 -6.95783e-15 0.359899 3.89615e-16 0.00531432)
(-0.191081 -2.17974 -7.75433e-15 0.206024 1.72126e-15 -0.0149425)
(-0.729035 -2.56352 5.42151e-15 0.726793 -2.87713e-15 0.00224181)
(0.000324921 -0.000139767 -1.4709e-20 -0.00032233 -2.46198e-20 -2.59054e-06)
(0.000339554 -7.93098e-05 -8.37054e-21 -0.000337598 3.2491e-20 -1.95669e-06)
(0.000340185 -6.7985e-06 4.69978e-20 -0.000340335 6.41093e-20 1.50314e-07)
(0.000322859 6.76244e-05 -3.2249e-20 -0.0003232 1.08482e-20 3.41479e-07)
(0.000284475 0.000137251 1.67615e-20 -0.000284616 9.6567e-20 1.40984e-07)
(0.000227942 0.000192323 7.15986e-20 -0.000227834 -4.60479e-20 -1.07987e-07)
(0.000160323 0.000228281 4.78715e-20 -0.000160766 -3.80664e-21 4.42559e-07)
(8.79951e-05 0.000241349 -1.19593e-19 -8.88672e-05 -6.55664e-20 8.72115e-07)
(2.09744e-05 0.000230782 -5.34531e-20 -2.19937e-05 5.36747e-21 1.01935e-06)
(-3.22999e-05 0.00020285 1.51074e-19 3.14495e-05 2.16722e-20 8.50404e-07)
(-6.82197e-05 0.000166321 5.06266e-20 6.80223e-05 -6.87344e-21 1.97355e-07)
(-8.80763e-05 0.000128854 7.27865e-20 8.88984e-05 -4.04874e-20 -8.22165e-07)
(-9.55421e-05 9.50518e-05 -1.42054e-19 9.75085e-05 -3.49041e-20 -1.96637e-06)
(-9.45281e-05 6.71514e-05 -1.43262e-19 9.76514e-05 3.4926e-20 -3.1233e-06)
(-8.85954e-05 4.5925e-05 2.25996e-20 9.2887e-05 2.3907e-20 -4.29158e-06)
(-8.05646e-05 3.04904e-05 3.94711e-20 8.58513e-05 -1.13408e-20 -5.28668e-06)
(-7.2204e-05 1.97024e-05 -1.19618e-19 7.83135e-05 6.37911e-21 -6.10942e-06)
(-6.44435e-05 1.22717e-05 2.65882e-21 7.11761e-05 -1.22038e-20 -6.73261e-06)
(-5.77542e-05 7.03914e-06 -4.06803e-20 6.49528e-05 -1.52733e-21 -7.19858e-06)
(-5.21025e-05 2.98664e-06 9.6732e-20 5.9567e-05 -3.75975e-20 -7.46446e-06)
(-4.73307e-05 -4.93259e-07 -1.09366e-19 5.49587e-05 -8.56357e-21 -7.62792e-06)
(-4.30859e-05 -3.91439e-06 -2.04863e-19 5.07898e-05 4.45913e-21 -7.70395e-06)
(-3.88451e-05 -7.55517e-06 1.97714e-20 4.65981e-05 -1.39398e-20 -7.75298e-06)
(-3.38531e-05 -1.10707e-05 5.95564e-20 4.15995e-05 -1.35606e-20 -7.74642e-06)
(-2.83475e-05 -1.31847e-05 1.59576e-19 3.62767e-05 -1.24202e-20 -7.92925e-06)
(-2.35544e-05 -1.36366e-05 -1.55913e-19 3.20371e-05 1.23196e-20 -8.4827e-06)
(-1.98042e-05 -1.322e-05 -2.35019e-20 2.89086e-05 -2.90574e-21 -9.10442e-06)
(-1.70626e-05 -1.26142e-05 1.61243e-20 2.67795e-05 -3.22129e-21 -9.71684e-06)
(-1.35872e-05 -1.101e-05 -7.4438e-21 2.28662e-05 6.13377e-22 -9.27898e-06)
(-1.29825e-05 -1.17123e-05 -1.23908e-20 2.3337e-05 -8.03369e-21 -1.03544e-05)
(-5.22529e-06 -5.52956e-06 -1.11649e-20 1.00591e-05 -6.24815e-21 -4.83384e-06)
(-3.97803e-06 -5.22035e-06 5.04477e-20 8.46152e-06 3.55363e-21 -4.48349e-06)
(-3.84494e-05 -6.62651e-05 3.09e-18 0.000103682 7.13068e-19 -6.52329e-05)
(9.72382e-06 2.16745e-05 2.63092e-17 0.000113049 3.98681e-19 -0.000122773)
(0.000261913 0.000985548 9.99279e-17 -0.000204221 -2.97021e-18 -5.76913e-05)
(0.00080397 0.00435611 -2.06293e-16 -0.0010065 -1.70554e-17 0.000202534)
(0.000932249 0.0132681 8.58629e-16 -0.00167313 1.13543e-16 0.00074088)
(0.00505739 0.0288002 -5.65089e-16 -0.00559757 -8.4927e-17 0.000540178)
(-0.00885092 0.109555 -5.14867e-16 0.00423536 -6.81448e-16 0.00461556)
(0.000225072 -0.000151292 -1.37691e-20 -0.000226546 -1.5623e-20 1.47433e-06)
(0.000194117 -0.000187814 1.97757e-21 -0.000196503 1.12039e-21 2.38642e-06)
(0.00015232 -0.000220339 1.69293e-20 -0.000155067 1.98231e-20 2.74661e-06)
(0.00010311 -0.000242891 -9.7096e-20 -0.000106769 -1.11627e-19 3.65945e-06)
(5.00575e-05 -0.000253203 -7.15045e-20 -5.47767e-05 -8.23901e-20 4.71919e-06)
(-4.84852e-06 -0.000250501 1.59755e-19 -8.75297e-07 1.73001e-19 5.72381e-06)
(-5.6684e-05 -0.00023475 -1.65058e-19 4.96119e-05 -1.83606e-19 7.07212e-06)
(-0.000101617 -0.000207546 -6.93963e-20 9.30598e-05 -5.22659e-20 8.55708e-06)
(-0.000137283 -0.000171429 -1.74378e-19 0.000127225 -1.28943e-19 1.00586e-05)
(-0.000161974 -0.00013003 -3.8572e-20 0.000150178 -5.74783e-20 1.17966e-05)
(-0.000175431 -8.65916e-05 2.29979e-20 0.000161879 -5.54428e-21 1.35517e-05)
(-0.000178422 -4.41031e-05 -1.31959e-19 0.000163082 -1.53921e-19 1.53397e-05)
(-0.000172398 -4.93911e-06 3.94916e-19 0.000155229 2.63203e-19 1.71692e-05)
(-0.00015919 2.93121e-05 -1.21049e-19 0.000140205 -2.05787e-20 1.89853e-05)
(-0.00014072 5.75995e-05 -3.21117e-19 0.000120059 -1.41548e-19 2.06617e-05)
(-0.000119038 7.98245e-05 2.07399e-19 9.68345e-05 8.72929e-21 2.22038e-05)
(-9.62258e-05 9.56053e-05 -1.54421e-19 7.3213e-05 -8.59305e-20 2.30127e-05)
(-7.39962e-05 0.000104375 2.83389e-21 5.14986e-05 1.08495e-19 2.24976e-05)
(-5.27605e-05 0.000106875 -3.61992e-20 3.17959e-05 -2.80712e-20 2.09646e-05)
(-3.32599e-05 0.000103973 -2.70193e-19 1.45271e-05 -1.79554e-19 1.87329e-05)
(-1.56386e-05 9.20173e-05 1.9614e-19 5.60149e-07 1.85181e-19 1.50784e-05)
(-2.9973e-06 7.01269e-05 4.15729e-21 -7.07704e-06 -1.21022e-19 1.00743e-05)
(2.91019e-06 5.42382e-05 3.80363e-20 -9.27352e-06 1.15587e-20 6.36332e-06)
(6.33799e-06 5.25261e-05 1.02895e-19 -1.10973e-05 -3.63677e-21 4.75936e-06)
(9.7189e-06 5.56506e-05 -3.49366e-20 -1.3596e-05 -1.10634e-20 3.87711e-06)
(1.26777e-05 5.82831e-05 1.16629e-19 -1.57751e-05 1.84921e-20 3.09738e-06)
(1.44964e-05 6.06143e-05 -5.87616e-21 -1.68246e-05 1.94077e-22 2.32817e-06)
(1.54171e-05 6.3951e-05 -1.30397e-20 -1.70444e-05 -7.80879e-21 1.6273e-06)
(0.000275531 0.00114458 1.39033e-20 -0.000292801 3.21587e-19 1.72702e-05)
(0.00206282 0.00808775 -2.48039e-17 -0.00212311 1.86657e-18 6.02883e-05)
(0.00713817 0.0234109 -2.65547e-17 -0.00719986 4.07073e-18 6.16911e-05)
(0.00515484 0.00986257 1.10944e-17 -0.00514775 -5.74714e-17 -7.08631e-06)
(0.018153 -0.0303714 3.45198e-16 -0.0180047 -3.44897e-16 -0.000148358)
(0.00830344 -0.400797 -2.14048e-15 -0.00784353 1.28355e-16 -0.000459911)
(-0.0905897 -1.32147 3.73143e-15 0.0890344 9.47434e-16 0.00155533)
(-0.207904 -2.32094 -8.35208e-16 0.206273 1.62671e-16 0.00163102)
(-0.291899 -2.90872 -1.88928e-15 0.287024 1.2665e-15 0.00487483)
(-0.167438 -2.56621 4.30673e-17 0.181234 -1.318e-15 -0.0137961)
(-0.484276 -3.02357 -1.21355e-14 0.462916 4.06228e-15 0.0213599)
(0.000247739 -0.000108389 9.49742e-21 -0.00024937 -8.84181e-22 1.63132e-06)
(0.000261412 -6.36124e-05 -3.36804e-20 -0.000262204 -3.36226e-20 7.92562e-07)
(0.000264977 -9.99711e-06 -1.61952e-21 -0.000266042 1.85898e-20 1.06458e-06)
(0.000254707 4.59308e-05 2.50156e-20 -0.00025498 -7.54138e-20 2.7303e-07)
(0.000228848 9.93336e-05 -1.68755e-19 -0.000228591 -1.76522e-19 -2.57306e-07)
(0.000188925 0.000143711 -1.62172e-19 -0.000188555 1.03386e-19 -3.70775e-07)
(0.000139176 0.000175365 2.16478e-19 -0.000139217 6.81903e-20 4.07551e-08)
(8.46132e-05 0.000190498 -8.93384e-20 -8.4788e-05 -1.3836e-19 1.74828e-07)
(3.22852e-05 0.000188156 -7.18091e-20 -3.2488e-05 2.13427e-20 2.0284e-07)
(-1.1804e-05 0.000171798 -4.56013e-20 1.15262e-05 -8.16507e-20 2.77764e-07)
(-4.40896e-05 0.000146657 9.38854e-21 4.37383e-05 3.01307e-20 3.51309e-07)
(-6.42464e-05 0.000118212 -4.50349e-20 6.37642e-05 -3.44599e-20 4.82197e-07)
(-7.41071e-05 9.04893e-05 -9.54798e-20 7.33693e-05 9.32634e-20 7.37742e-07)
(-7.61939e-05 6.59014e-05 1.07178e-19 7.50982e-05 2.39936e-20 1.09569e-06)
(-7.30864e-05 4.57396e-05 7.51636e-20 7.15886e-05 -3.0304e-20 1.49781e-06)
(-6.7162e-05 3.00397e-05 -1.5368e-20 6.52149e-05 -2.08774e-20 1.94711e-06)
(-6.01319e-05 1.82741e-05 4.41443e-20 5.77199e-05 2.88988e-21 2.41198e-06)
(-5.30965e-05 9.61569e-06 -7.28058e-20 5.02416e-05 1.76168e-20 2.85496e-06)
(-4.66781e-05 3.23104e-06 5.15495e-20 4.34434e-05 -4.88274e-21 3.23465e-06)
(-4.10565e-05 -1.68451e-06 -6.2829e-20 3.74981e-05 -1.33101e-20 3.5584e-06)
(-3.6179e-05 -5.72551e-06 6.72022e-20 3.23794e-05 -2.53376e-21 3.79963e-06)
(-3.1763e-05 -9.35782e-06 7.97692e-20 2.77836e-05 3.48522e-21 3.97942e-06)
(-2.73586e-05 -1.28216e-05 -1.24694e-20 2.32602e-05 5.042e-21 4.09833e-06)
(-2.22941e-05 -1.58897e-05 -1.57525e-19 1.80293e-05 9.57524e-21 4.26483e-06)
(-1.65829e-05 -1.76878e-05 -5.31555e-20 1.21142e-05 -1.61722e-21 4.46866e-06)
(-1.11306e-05 -1.794e-05 -1.66562e-20 6.50164e-06 2.41259e-23 4.62894e-06)
(-6.39735e-06 -1.72846e-05 6.35615e-20 1.47216e-06 -2.68703e-21 4.92519e-06)
(-2.34588e-06 -1.61128e-05 1.14084e-21 -2.99899e-06 8.73468e-22 5.34487e-06)
(1.05889e-06 -1.48431e-05 -2.93617e-21 -6.8878e-06 -8.34327e-22 5.82891e-06)
(3.56767e-06 -1.26186e-05 3.99455e-20 -9.34057e-06 3.44089e-21 5.77291e-06)
(6.50572e-06 -1.39989e-05 3.35396e-20 -1.34701e-05 1.90497e-21 6.96442e-06)
(3.77001e-06 -6.31953e-06 -9.2881e-20 -6.87227e-06 -1.01637e-20 3.10226e-06)
(2.45127e-05 -3.6144e-05 -1.45477e-18 -4.03221e-05 -8.48956e-20 1.58094e-05)
(3.63937e-06 -4.99334e-06 -4.35431e-20 -5.38481e-06 2.56667e-20 1.74544e-06)
(0.00029334 -0.000376621 2.26959e-18 -0.000388094 2.48789e-18 9.47542e-05)
(3.38515e-06 -3.61358e-06 -5.25136e-20 -3.91284e-06 -5.52599e-20 5.27684e-07)
(0.000301109 -0.000193221 -1.95131e-17 -0.000319261 3.34028e-18 1.81515e-05)
(0.000757013 -1.56454e-05 5.33882e-17 -0.000707734 7.25961e-18 -4.92784e-05)
(0.00286318 0.0160747 -2.91155e-16 -0.00384231 -7.96217e-18 0.000979126)
(0.000182557 -0.000123513 1.25264e-20 -0.000182071 1.16465e-20 -4.85624e-07)
(0.000159701 -0.000152755 -2.96255e-20 -0.000159301 -2.78833e-20 -4.00864e-07)
(0.000128386 -0.000179663 -1.31861e-21 -0.000127613 -5.8349e-21 -7.73633e-07)
(9.13111e-05 -0.000199861 -8.63241e-21 -9.03004e-05 -1.02894e-20 -1.01072e-06)
(5.09379e-05 -0.000211328 9.11645e-20 -4.96796e-05 9.35036e-20 -1.25825e-06)
(8.20047e-06 -0.000213544 6.74928e-20 -6.44827e-06 5.79983e-20 -1.7522e-06)
(-3.32474e-05 -0.000206086 5.2495e-21 3.54659e-05 2.12989e-20 -2.21851e-06)
(-7.05503e-05 -0.000189704 1.74668e-19 7.33382e-05 1.57298e-19 -2.78793e-06)