/*--------------------------------*- C++ -*----------------------------------*\
| =========                 |                                                 |
| \\      /  F ield         | OpenFOAM: The Open Source CFD Toolbox           |
|  \\    /   O peration     | Version:  2306                                  |
|   \\  /    A nd           | Website:  www.openfoam.com                      |
|    \\/     M anipulation  |                                                 |
\*---------------------------------------------------------------------------*/
FoamFile
{
    version     2.0;
    format      ascii;
    arch        "LSB;label=32;scalar=64";
    class       volScalarField;
    location    "100";
    object      turbulenceProperties:k;
}
// * * * * * * * * * * * * * * * * * * * * * * * * * * * * * * * * * * * * * //

dimensions      [0 2 -2 0 0 0 0];

internalField   nonuniform List<scalar> 
10720
(
0.0140388
0.016506
0.0196817
0.0239674
0.029085
0.035611
0.0439665
0.0543474
0.0675298
0.0843275
0.105864
0.134253
0.172764
0.225941
0.300856
0.410485
0.573923
0.83472
1.24196
1.99826
3.17435
6.04786
10.4158
25.4863
42.6242
47.3485
45.9255
44.222
43.027
41.6078
39.4192
36.434
32.7244
28.3185
22.9609
17.3885
11.0987
6.64528
0.619754
0.0118397
0.0100458
0.00809638
0.00642566
0.00489801
0.00369152
0.00311958
0.00360808
0.00488671
0.00700116
0.0101401
0.0146113
0.0208647
0.0295259
0.0414547
0.0581945
0.0824317
0.118966
0.176598
0.270636
0.433566
0.719213
1.27645
2.32073
4.69686
9.42976
21.3578
39.4483
51.5794
56.1609
57.309
57.3893
56.9605
56.1235
54.9358
53.4982
51.4567
49.4221
39.6396
0.00281759
0.00281578
0.00279011
0.00272001
0.00260977
0.00247698
0.00231618
0.00213275
0.00194671
0.00175934
0.00157954
0.00142253
0.00128354
0.00120788
0.00129193
0.00164312
0.00267159
0.00530776
0.0114611
0.0290429
0.0729999
0.229762
0.609961
1.96226
5.10411
9.00925
13.1334
16.7982
19.0159
18.967
17.0842
14.6173
12.3987
10.6363
9.26108
7.94659
6.62045
4.61615
6.89259
0.00278219
0.00273011
0.00264841
0.00252595
0.00235287
0.00214907
0.00195892
0.00175462
0.00153438
0.00132283
0.00113106
0.00096042
0.000809244
0.000676269
0.000561735
0.000465453
0.000384044
0.000315624
0.000255478
0.00019994
0.000143716
8.69226e-05
3.69946e-05
1.18863e-05
0.000277471
0.00306435
0.0192606
0.116919
0.325664
0.580605
0.826621
1.03222
1.19552
1.33166
1.45296
1.57326
1.69015
1.96224
2.48629
0.00193094
0.00190528
0.00185369
0.00177878
0.00169839
0.00160845
0.00151478
0.00142833
0.00135194
0.00129034
0.00124321
0.00120977
0.00118725
0.00117798
0.00118117
0.00120728
0.00117097
0.00109635
0.00058425
8.17069e-06
0.00701366
0.00425163
0.00317799
0.0283333
0.003315
0.0670359
0.314433
0.997254
2.53923
5.24202
8.63223
11.324
12.2684
11.6943
10.5116
9.11503
7.88701
5.72866
7.71408
0.00195001
0.00195286
0.00194732
0.00190764
0.0018263
0.00170356
0.00156914
0.00143421
0.00127751
0.00110305
0.000926392
0.000762291
0.000617523
0.00049428
0.000395638
0.000319646
0.000263666
0.000223806
0.000196878
0.000179289
0.000168582
0.000163509
0.000163242
0.000166563
0.000170968
0.000172851
0.000173369
0.000116909
0.0014346
0.00655516
0.0160594
0.0331649
0.0756045
0.153017
0.260455
0.384486
0.516541
0.593499
0.939912
0.00157499
0.00157784
0.00157022
0.00155634
0.00152999
0.00149104
0.00144263
0.00138282
0.00131444
0.0012389
0.00115793
0.00107425
0.000989938
0.000904174
0.000817816
0.000730582
0.000636416
0.000540871
0.000444131
0.000322709
0.000158849
2.38476e-06
0.000244148
0
0.00251845
0.0153608
0.0377706
0.000853754
0.0083137
0.0299731
0.399116
1.75193
4.46766
7.55873
9.49196
9.84733
9.44294
7.29595
8.88261
0.00156049
0.00153963
0.00150701
0.00146162
0.00139933
0.00132092
0.0012362
0.00113843
0.0010264
0.000909193
0.000795695
0.000691966
0.000599775
0.000519281
0.000451026
0.000393785
0.000346696
0.00030826
0.000277487
0.000252407
0.000231994
0.000214677
0.000198826
0.000181489
0.000163218
0.000148241
0.000136744
0.000129814
0.000110949
0.000122357
2.81446e-05
4.34906e-05
0.000449023
0.000637022
0.00337891
0.0148461
0.0445625
0.0976229
0.36647
0.00120388
0.0012001
0.00118985
0.00117196
0.00114547
0.00110999
0.00106694
0.00101684
0.00096133
0.000903309
0.000844797
0.000788158
0.000735387
0.000688073
0.000647092
0.000613863
0.000587639
0.000561673
0.00053054
0.000492338
0.000416963
0.000275033
0.000116244
1.62489e-05
4.5375e-06
0
0
5.11288e-05
0.00386988
0.0276296
0.0814252
0.0369838
0.117755
1.33602
4.41467
7.76673
9.74322
8.57369
10.2017
0.00120122
0.00119366
0.00117725
0.00114733
0.00110486
0.00105109
0.000991942
0.000923563
0.000845724
0.00076272
0.000678073
0.000595401
0.000517024
0.000444416
0.00037921
0.000322224
0.000273765
0.000233608
0.000201315
0.000175805
0.000156081
0.000140841
0.000128694
0.000117301
0.000105289
9.38605e-05
8.52238e-05
7.98329e-05
7.87439e-05
7.26177e-05
9.29244e-05
7.72712e-07
0.000205725
3.19968e-06
0.00173845
7.52669e-06
0.00120923
0.00243892
0.0549119
0.000975518
0.000978236
0.000977061
0.000972251
0.000962067
0.000946276
0.000925314
0.000898631
0.000866732
0.000830454
0.000790155
0.000746742
0.000701136
0.000654046
0.000606246
0.00055874
0.000510456
0.000458051
0.000404077
0.000353629
0.000307469
0.000272435
0.00022723
0.00016751
5.65491e-05
8.15398e-06
4.28667e-06
1.43825e-06
0
0
0
0.0127895
0.0163543
0.0622971
0.505118
3.45309
7.88533
9.02557
11.4982
0.000968089
0.000957888
0.00094226
0.000917586
0.00088593
0.000848246
0.000806154
0.000756946
0.000701143
0.000641386
0.000579826
0.00051902
0.000460925
0.000406761
0.000357644
0.000314334
0.000277035
0.000245537
0.000219411
0.000197897
0.000180125
0.000164986
0.000151229
0.000137057
0.000121656
0.000106551
9.32169e-05
8.20276e-05
7.26637e-05
6.48683e-05
5.79948e-05
5.07688e-05
3.89242e-05
2.00079e-05
1.44975e-06
1.6547e-06
0.000205953
0.000577283
0.00417303
0.000790697
0.000793356
0.000793511
0.000790724
0.000784092
0.000773145
0.000757954
0.000738137
0.000713837
0.000685628
0.000653962
0.000619611
0.000583557
0.000546603
0.000509719
0.000473729
0.000439659
0.000409259
0.000381041
0.000352478
0.000322466
0.000292681
0.000269608
0.000244724
0.000202125
0.000142357
8.59149e-05
2.45658e-05
4.80476e-06
1.26346e-06
0
0
0.00225534
0.0232924
0.023591
0.536815
4.40482
8.09766
12.3626
0.000784354
0.000776198
0.000764211
0.000745044
0.000721399
0.00069426
0.000663387
0.000627345
0.000586926
0.000543475
0.000498107
0.000452288
0.000407269
0.000363931
0.000323178
0.000285793
0.000252226
0.000222704
0.000197262
0.000175626
0.000157367
0.000141813
0.000128061
0.00011478
0.000101118
8.78424e-05
7.60824e-05
6.62795e-05
5.82576e-05
5.1881e-05
4.72639e-05
4.43652e-05
4.20115e-05
3.83783e-05
3.22091e-05
1.81989e-05
1.78361e-06
1.04865e-08
0.000960437
0.000652209
0.000656017
0.000658318
0.000658635
0.000656498
0.000651392
0.000643382
0.000632042
0.000617322
0.000599523
0.000578624
0.000555009
0.00052913
0.000501334
0.00047214
0.000441995
0.000411514
0.000380127
0.000347152
0.000314126
0.000282959
0.000254934
0.000232249
0.0002146
0.000199553
0.000179331
0.000154261
0.000118524
8.24055e-05
2.42995e-05
3.97146e-06
9.86038e-08
0
0
0.00695339
0.0240653
1.44203
5.82431
12.2782
0.000645576
0.000637984
0.000627931
0.000612663
0.000594667
0.00057454
0.000551493
0.000524645
0.000494877
0.000462854
0.000429099
0.000394604
0.000360206
0.000326533
0.00029429
0.000264195
0.000236702
0.000212141
0.000190634
0.000172038
0.000156003
0.000141976
0.000129196
0.00011664
0.000103689
9.0933e-05
7.92599e-05
6.89969e-05
5.99647e-05
5.19691e-05
4.49934e-05
3.88933e-05
3.35599e-05
2.89921e-05
2.53953e-05
2.06548e-05
1.72352e-05
1.37527e-07
7.60357e-11
0.000542284
0.000546311
0.000549399
0.000550899
0.000550685
0.000548339
0.000543718
0.000536474
0.000526522
0.000513943
0.000498695
0.000480951
0.000460992
0.000439108
0.000415748
0.000391366
0.000366316
0.000341258
0.000316851
0.000293025
0.000269672
0.000246996
0.000225756
0.000206487
0.00018878
0.000171387
0.000154125
0.000138383
0.000123838
9.86805e-05
7.21777e-05
2.0709e-06
5.21509e-07
0
0
0.0132162
0.233375
3.16755
10.9437
0.000536213
0.000529608
0.000521357
0.000509234
0.000495415
0.000480081
0.000462565
0.000442308
0.000420058
0.000396185
0.000370914
0.000344818
0.000318422
0.000292119
0.000266378
0.00024173
0.000218611
0.000197339
0.000178124
0.000160997
0.000145819
0.000132248
0.000119765
0.000107671
9.55204e-05
8.3652e-05
7.27725e-05
6.32224e-05
5.49224e-05
4.7712e-05
4.15703e-05
3.65804e-05
3.26487e-05
2.97175e-05
2.77089e-05
2.7235e-05
2.62964e-05
3.54472e-05
1.7658e-06
0.000455072
0.000459232
0.000462741
0.000465136
0.000466327
0.000465985
0.00046405
0.000460136
0.000454134
0.000446082
0.000435856
0.000423526
0.000409209
0.000393042
0.000375274
0.000356177
0.000336059
0.000315287
0.000293666
0.000271453
0.000249554
0.000228824
0.000209847
0.000192532
0.000175813
0.000158868
0.000142023
0.000127284
0.000116066
0.000108067
0.000101588
7.95602e-05
9.58472e-06
4.97462e-07
0
0.000524477
0.0200059
1.19679
8.55167
0.000449525
0.000443833
0.000437026
0.000427302
0.000416514
0.000404568
0.00039097
0.000375495
0.000358673
0.000340652
0.000321561
0.000301745
0.000281482
0.000260985
0.000240599
0.000220715
0.000201672
0.000183798
0.000167299
0.000152284
0.000138708
0.000126351
0.000114833
0.000103671
9.25169e-05
8.1609e-05
7.14874e-05
6.24448e-05
5.44279e-05
4.72927e-05
4.09962e-05
3.55298e-05
3.08247e-05
2.69468e-05
2.38162e-05
2.23734e-05
2.02765e-05
2.94643e-05
2.18152e-05
0.000384687
0.000388627
0.000392199
0.000394933
0.000396812
0.000397662
0.000397301
0.000395389
0.000391899
0.000386757
0.000379786
0.000371034
0.000360533
0.000348315
0.000334536
0.000319408
0.000303136
0.000286055
0.000268421
0.00025053
0.000232686
0.000215292
0.000198707
0.000183011
0.000167594
0.00015175
0.000135671
0.000120709
0.000108127
9.93229e-05
9.28397e-05
9.48968e-05
8.30464e-05
7.46105e-06
6.97565e-09
0
0.00696969
0.242653
5.74169
0.000379848
0.000375058
0.000369496
0.000361619
0.000353026
0.000343519
0.000332774
0.000320771
0.000307888
0.000294174
0.00027962
0.000264473
0.000248876
0.000232923
0.000216807
0.000200799
0.000185149
0.000170111
0.000155907
0.000142659
0.000130383
0.000118972
0.000108192
9.77254e-05
8.73504e-05
7.72394e-05
6.77972e-05
5.92978e-05
5.17415e-05
4.50374e-05
3.9159e-05
3.41411e-05
2.99715e-05
2.66662e-05
2.41333e-05
2.29877e-05
2.18471e-05
2.59063e-05
3.48647e-05
0.000327502
0.000331037
0.000334486
0.000337318
0.000339576
0.000341134
0.00034179
0.000341298
0.000339628
0.00033659
0.000332151
0.000326188
0.000318749
0.00030983
0.000299472
0.000287789
0.000274938
0.000261167
0.000246643
0.000231426
0.000215895
0.000200639
0.000186002
0.000172036
0.000158289
0.000144192
0.000129827
0.000116134
0.000104093
9.43307e-05
8.64172e-05
8.15903e-05
8.97672e-05
6.91023e-05
2.75553e-06
0
0
0.0519939
3.23946
0.000323381
0.000319359
0.000314789
0.000308321
0.00030137
0.000293648
0.000285018
0.000275593
0.000265596
0.000255026
0.000243843
0.000232196
0.000220149
0.000207705
0.000194993
0.000182174
0.000169405
0.000156888
0.000144797
0.000133278
0.000122395
0.0001121
0.000102241
9.26157e-05
8.31154e-05
7.38556e-05
6.51478e-05
5.72241e-05
5.01141e-05
4.37512e-05
3.81093e-05
3.3199e-05
2.9005e-05
2.55604e-05
2.28171e-05
2.13316e-05
2.00549e-05
2.2713e-05
3.22744e-05
0.000280626
0.000283677
0.000286875
0.000289636
0.000292018
0.000293919
0.000295176
0.000295585
0.000295052
0.000293485
0.000290747
0.000286831
0.000281611
0.000275115
0.000267355
0.000258367
0.000248247
0.000237148
0.000225301
0.0002128
0.000199867
0.000186932
0.000174242
0.000161864
0.000149537
0.000136898
0.000124034
0.00011168
0.000100712
9.13306e-05
8.37421e-05
7.66289e-05
7.29368e-05
9.03945e-05
3.84297e-05
3.6538e-08
0
0.00840322
1.48596
0.000277149
0.00027372
0.0002699
0.000264513
0.000258807
0.000252497
0.000245502
0.000237977
0.000230131
0.000221909
0.000213246
0.000204215
0.000194858
0.000185149
0.000175112
0.000164857
0.000154477
0.000144113
0.000133896
0.000123949
0.00011435
0.000105094
9.61032e-05
8.72753e-05
7.85636e-05
7.00696e-05
6.20284e-05
5.46445e-05
4.79717e-05
4.19748e-05
3.66402e-05
3.19926e-05
2.80446e-05
2.48201e-05
2.22628e-05
2.08313e-05
1.95828e-05
2.14581e-05
2.87449e-05
0.000241862
0.00024447
0.000247368
0.000249964
0.000252327
0.000254382
0.000255955
0.000256899
0.000257114
0.000256549
0.000255055
0.000252581
0.000249048
0.000244431
0.000238737
0.000231954
0.000224112
0.000215308
0.000205755
0.000195473
0.000184624
0.000173587
0.0001626
0.000151732
0.000140804
0.000129565
0.000118102
0.000106998
9.70273e-05
8.84241e-05
8.11889e-05
7.54712e-05
6.67399e-05
7.53121e-05
7.69152e-05
1.22061e-06
0
0.00340682
0.519505
0.000238849
0.000235838
0.000232552
0.000228045
0.000223327
0.000218148
0.000212451
0.000206423
0.000200185
0.000193728
0.000186958
0.000179922
0.000172624
0.000165013
0.000157094
0.000148905
0.00014049
0.000131948
0.000123372
0.000114857
0.000106467
9.82322e-05
9.01239e-05
8.21121e-05
7.41924e-05
6.64519e-05
5.90785e-05
5.22455e-05
4.60185e-05
4.03855e-05
3.53398e-05
3.09077e-05
2.70974e-05
2.39343e-05
2.13736e-05
1.98293e-05
1.84465e-05
1.97658e-05
2.55981e-05
0.000209436
0.000211722
0.000214334
0.00021672
0.000218982
0.000221057
0.000222767
0.00022401
0.000224704
0.000224776
0.000224143
0.000222676
0.000220406
0.000217188
0.000213053
0.000207989
0.000201988
0.000195079
0.000187437
0.000179089
0.000170135
0.000160851
0.000151451
0.000141995
0.000132375
0.000122425
0.000112235
0.000102272
9.31769e-05
8.53223e-05
7.83812e-05
7.34852e-05
6.67322e-05
6.17636e-05
8.69513e-05
1.35227e-05
9.94062e-09
0.000873077
0.105382
0.000206728
0.000204003
0.000201121
0.000197344
0.000193431
0.000189175
0.000184534
0.000179689
0.000174727
0.000169593
0.000164313
0.000158786
0.00015306
0.000147078
0.000140814
0.00013428
0.00012748
0.000120461
0.00011329
0.000106035
9.87605e-05
9.15003e-05
8.42517e-05
7.70123e-05
6.98298e-05
6.27939e-05
5.6052e-05
4.97467e-05
4.39539e-05
3.86786e-05
3.39265e-05
2.97277e-05
2.61007e-05
2.30709e-05
2.05954e-05
1.90211e-05
1.75885e-05
1.83156e-05
2.28602e-05
0.000181984
0.000184085
0.00018645
0.000188635
0.000190774
0.000192795
0.000194546
0.000195945
0.000196928
0.000197424
0.000197371
0.000196636
0.000195224
0.000193089
0.000190155
0.000186438
0.000181909
0.00017656
0.000170505
0.000163783
0.00015644
0.000148671
0.000140684
0.000132538
0.000124146
0.000115405
0.000106401
9.75192e-05
8.92658e-05
8.20655e-05
7.56192e-05
7.0609e-05
6.65314e-05
5.7502e-05
7.3194e-05
4.95999e-05
4.65406e-08
0
0.0289492
0.000179495
0.000176993
0.000174464
0.000171296
0.000168042
0.000164536
0.000160754
0.000156852
0.000152877
0.000148845
0.000144667
0.000140336
0.000135834
0.000131113
0.000126152
0.000120925
0.00011543
0.00010968
0.000103712
9.75713e-05
9.13045e-05
8.49469e-05
7.85106e-05
7.20263e-05
6.55584e-05
5.91962e-05
5.30588e-05
4.72694e-05
4.19052e-05
3.69854e-05
3.2524e-05
2.85538e-05
2.50947e-05
2.21709e-05
1.97448e-05
1.8111e-05
1.66053e-05
1.68405e-05
2.03179e-05
0.000158521
0.00016051
0.000162676
0.000164694
0.000166704
0.000168645
0.000170384
0.000171857
0.000172998
0.000173765
0.000174085
0.000173914
0.000173115
0.000171759
0.000169747
0.000167054
0.000163676
0.000159586
0.000154831
0.000149474
0.000143513
0.000137075
0.000130351
0.000123397
0.000116146
0.000108526
0.00010062
9.2747e-05
8.53155e-05
7.87053e-05
7.28587e-05
6.76922e-05
6.46779e-05
5.73311e-05
5.91206e-05
7.42547e-05
4.70608e-07
0
0.000820026
0.00015624
0.000153972
0.000151762
0.000149095
0.00014637
0.000143467
0.000140377
0.000137229
0.000134052
0.000130846
0.000127557
0.000124177
0.000120614
0.000116885
0.000112946
0.000108773
0.000104335
9.9639e-05
9.46904e-05
8.95201e-05
8.41555e-05
7.86237e-05
7.29455e-05
6.71699e-05
6.1374e-05
5.56404e-05
5.0074e-05
4.47803e-05
3.98314e-05
3.52596e-05
3.1085e-05
2.73433e-05
2.40582e-05
2.12534e-05
1.88935e-05
1.72248e-05
1.56662e-05
1.54736e-05
1.79876e-05
0.000138366
0.000140239
0.00014224
0.000144121
0.000146005
0.000147863
0.000149557
0.000151049
0.000152285
0.000153224
0.000153805
0.00015399
0.000153706
0.000152891
0.000151585
0.000149677
0.000147199
0.000144115
0.000140429
0.000136203
0.000131408
0.000126115
0.000120498
0.000114609
0.000108395
0.000101803
9.49064e-05
8.7966e-05
8.13253e-05
7.52844e-05
6.99871e-05
6.50141e-05
6.19049e-05
5.74261e-05
5.12435e-05
7.70858e-05
3.36599e-06
2.339e-09
0
0.000136317
0.000134311
0.000132398
0.000130129
0.000127824
0.000125393
0.000122852
0.000120296
0.000117749
0.00011518
0.000112607
0.000109947
0.000107149
0.000104196
0.000101069
9.77338e-05
9.4156e-05
9.03263e-05
8.62392e-05
8.1902e-05
7.7335e-05
7.25588e-05
6.75897e-05
6.24729e-05
5.72953e-05
5.21518e-05
4.71265e-05
4.23066e-05
3.77615e-05
3.35293e-05
2.96373e-05
2.61207e-05
2.30071e-05
2.03176e-05
1.80188e-05
1.63157e-05
1.47066e-05
1.41623e-05
1.58492e-05
0.000121033
0.000122745
0.000124597
0.000126344
0.000128115
0.000129873
0.000131511
0.000132986
0.000134265
0.000135307
0.000136065
0.000136489
0.000136575
0.000136184
0.000135395
0.000134111
0.000132327
0.00013004
0.000127225
0.000123929
0.000120104
0.000115791
0.000111139
0.000106195
0.000100915
9.52549e-05
8.92796e-05
8.3198e-05
7.73026e-05
7.18281e-05
6.69926e-05
6.24552e-05
5.89642e-05
5.65098e-05
4.75229e-05
7.02992e-05
2.37422e-05
2.04108e-08
0
0.000119242
0.0001175
0.000115847
0.000113898
0.000111921
0.000109859
0.000107745
0.000105652
0.000103591
0.00010154
9.94835e-05
9.73983e-05
9.52144e-05
9.28701e-05
9.03895e-05
8.77272e-05
8.4847e-05
8.17295e-05
7.83634e-05
7.47447e-05
7.08753e-05
6.67662e-05
6.24351e-05
5.79321e-05
5.3342e-05
4.87487e-05
4.42288e-05
3.98567e-05
3.56985e-05
3.17943e-05
2.81775e-05
2.48822e-05
2.19371e-05
1.93648e-05
1.7133e-05
1.54082e-05
1.376e-05
1.29237e-05
1.38942e-05
0.000106131
0.000107648
0.00010934
0.000110953
0.0001126
0.000114252
0.000115809
0.000117246
0.000118529
0.000119624
0.000120489
0.000121093
0.00012141
0.000121386
0.000120961
0.000120172
0.00011893
0.000117266
0.000115149
0.000112613
0.000109599
0.000106122
0.000102298
9.81796e-05
9.37284e-05
8.89068e-05
8.37655e-05
7.84709e-05
7.32679e-05
6.83515e-05
6.39239e-05
5.98662e-05
5.61693e-05
5.46673e-05
4.576e-05
6.12652e-05
4.2466e-05
4.48545e-08
0
0.000104591
0.000103084
0.000101645
9.99606e-05
9.82444e-05
9.64785e-05
9.46978e-05
9.29622e-05
9.12772e-05
8.9625e-05
8.79743e-05
8.63256e-05
8.46066e-05
8.27655e-05
8.07974e-05
7.86696e-05
7.63531e-05
7.38223e-05
7.1055e-05
6.80426e-05
6.47813e-05
6.12705e-05
5.75191e-05
5.35771e-05
4.95253e-05
4.54396e-05
4.13899e-05
3.74411e-05
3.36519e-05
3.00649e-05
2.67151e-05
2.36369e-05
2.08566e-05
1.84024e-05
1.6239e-05
1.45013e-05
1.28246e-05
1.17531e-05
1.21298e-05
9.33016e-05
9.4624e-05
9.61464e-05
9.76193e-05
9.91334e-05
0.000100666
0.000102128
0.000103503
0.000104758
0.000105866
0.000106793
0.000107509
0.000107985
0.000108206
0.000108082
0.000107652
0.000106849
0.000105674
0.000104119
0.000102206
9.98648e-05
9.70944e-05
9.39816e-05
9.0579e-05
8.68574e-05
8.2779e-05
7.83844e-05
7.38046e-05
6.92404e-05
6.48621e-05
6.08234e-05
5.71939e-05
5.35451e-05
5.22862e-05
4.4676e-05
5.31187e-05
5.36799e-05
1.50032e-07
0
9.19763e-05
9.06597e-05
8.93951e-05
8.7932e-05
8.64348e-05
8.49115e-05
8.33987e-05
8.19454e-05
8.05541e-05
7.92104e-05
7.78721e-05
7.65516e-05
7.51938e-05
7.37466e-05
7.21818e-05
7.04812e-05
6.86174e-05
6.65651e-05
6.42981e-05
6.18006e-05
5.90595e-05
5.60746e-05
5.28472e-05
4.9416e-05
4.58519e-05
4.22331e-05
3.86206e-05
3.50692e-05
3.16301e-05
2.83468e-05
2.52544e-05
2.23872e-05
1.97714e-05
1.74351e-05
1.5343e-05
1.36029e-05
1.19093e-05
1.06498e-05
1.05337e-05
8.22115e-05
8.33667e-05
8.47289e-05
8.60558e-05
8.74365e-05
8.88426e-05
9.01985e-05
9.14938e-05
9.26989e-05
9.37885e-05
9.47339e-05
9.55099e-05
9.60972e-05
9.64665e-05
9.65898e-05
9.64123e-05
9.59618e-05
9.51738e-05
9.40642e-05
9.26489e-05
9.08654e-05
8.86907e-05
8.61844e-05
8.33987e-05
8.03152e-05
7.68936e-05
7.31621e-05
6.92261e-05
6.5246e-05
6.13731e-05
5.7717e-05
5.44512e-05
5.10185e-05
4.96837e-05
4.36494e-05
4.64809e-05
5.76706e-05
3.60224e-07
4.57695e-10
8.10525e-05
7.98852e-05
7.87646e-05
7.74892e-05
7.61853e-05
7.48698e-05
7.35786e-05
7.2352e-05
7.11925e-05
7.00853e-05
6.90045e-05
6.79266e-05
6.68437e-05
6.57089e-05
6.44511e-05
6.30912e-05
6.15917e-05
5.99261e-05
5.80705e-05
5.60054e-05
5.37147e-05
5.11867e-05
4.84202e-05
4.54465e-05
4.23315e-05
3.91422e-05
3.59324e-05
3.27502e-05
2.96407e-05
2.66456e-05
2.38005e-05
2.11379e-05
1.86849e-05
1.64656e-05
1.44469e-05
1.2713e-05
1.10119e-05
9.61372e-06
9.09923e-06
7.25687e-05
7.35974e-05
7.48138e-05
7.60048e-05
7.72558e-05
7.85362e-05
7.97845e-05
8.09889e-05
8.21282e-05
8.31764e-05
8.41129e-05
8.49133e-05
8.55644e-05
8.60337e-05
8.63161e-05
8.63454e-05
8.61446e-05
8.56652e-05
8.49062e-05
8.38861e-05
8.25621e-05
8.08849e-05
7.88918e-05
7.66362e-05
7.41053e-05
7.12582e-05
6.81124e-05
6.47528e-05
6.13045e-05
5.79007e-05
5.4619e-05
5.1667e-05
4.85273e-05
4.70158e-05
4.25152e-05
4.13233e-05
5.69479e-05
9.26707e-06
1.308e-08
7.1534e-05
7.04911e-05
6.94976e-05
6.83821e-05
6.72481e-05
6.6113e-05
6.50068e-05
6.39685e-05
6.29969e-05
6.20789e-05
6.11945e-05
6.03132e-05
5.94415e-05
5.85276e-05
5.75317e-05
5.64368e-05
5.52254e-05
5.38733e-05
5.23549e-05
5.06496e-05
4.87401e-05
4.6609e-05
4.4249e-05
4.16852e-05
3.89735e-05
3.61744e-05
3.3332e-05
3.04914e-05
2.76911e-05
2.49693e-05
2.2361e-05
1.98958e-05
1.76014e-05
1.54979e-05
1.35565e-05
1.18398e-05
1.01403e-05
8.64344e-06
7.8171e-06
6.41388e-05
6.50724e-05
6.61647e-05
6.72355e-05
6.83639e-05
6.95284e-05
7.06705e-05
7.17838e-05
7.28467e-05
7.38408e-05
7.47451e-05
7.55435e-05
7.62194e-05
7.67543e-05
7.71328e-05
7.73205e-05
7.7302e-05
7.70594e-05
7.65751e-05
7.58667e-05
7.49081e-05
7.36414e-05
7.20796e-05
7.02753e-05
6.82174e-05
6.58686e-05
6.32378e-05
6.03916e-05
5.74254e-05
5.44542e-05
5.15356e-05
4.88673e-05
4.60458e-05
4.43395e-05
4.12084e-05
3.73619e-05
5.21972e-05
2.1425e-05
3.36392e-08
6.32035e-05
6.22756e-05
6.13963e-05
6.04177e-05
5.94298e-05
5.8449e-05
5.74999e-05
5.66168e-05
5.57988e-05
5.50339e-05
5.43044e-05
5.35877e-05
5.28721e-05
5.21342e-05
5.13421e-05
5.04498e-05
4.94716e-05
4.83726e-05
4.71298e-05
4.57245e-05
4.41362e-05
4.23447e-05
4.03383e-05
3.81352e-05
3.57827e-05
3.33331e-05
3.08284e-05
2.83025e-05
2.57902e-05
2.33262e-05
2.09425e-05
1.86673e-05
1.65271e-05
1.45387e-05
1.26769e-05
1.09869e-05
9.30135e-06
7.73665e-06
6.67616e-06
5.67434e-05
5.75984e-05
5.85841e-05
5.95503e-05
6.05697e-05
6.16281e-05
6.26714e-05
6.36958e-05
6.46828e-05
6.56143e-05
6.64762e-05
6.72531e-05
6.79321e-05
6.84997e-05
6.89378e-05
6.92275e-05
6.9342e-05
6.92902e-05
6.9017e-05
6.8551e-05
6.78844e-05
6.6951e-05
6.57489e-05
6.43238e-05
6.26705e-05
6.07516e-05
5.85685e-05
5.61723e-05
5.36366e-05
5.10561e-05
4.84803e-05
4.60738e-05
4.35696e-05
4.17034e-05
3.96431e-05
3.45554e-05
4.58297e-05
3.21222e-05
3.00078e-07
5.58991e-05
5.50779e-05
5.43011e-05
5.34394e-05
5.25755e-05
5.17241e-05
5.09078e-05
5.0155e-05
4.9463e-05
4.88229e-05
4.82174e-05
4.76279e-05
4.70385e-05
4.64391e-05
4.57966e-05
4.50784e-05
4.42842e-05
4.33868e-05
4.23687e-05
4.12084e-05
3.98869e-05
3.83828e-05
3.66826e-05
3.47968e-05
3.27656e-05
3.06301e-05
2.84301e-05
2.61918e-05
2.3946e-05
2.17228e-05
1.95514e-05
1.74583e-05
1.54676e-05
1.35938e-05
1.18143e-05
1.016e-05
8.49906e-06
6.89561e-06
5.66872e-06
5.02456e-05
5.10277e-05
5.19185e-05
5.27902e-05
5.37137e-05
5.4676e-05
5.56294e-05
5.65692e-05
5.74826e-05
5.83503e-05
5.91633e-05
5.99077e-05
6.05746e-05
6.11513e-05
6.16234e-05
6.19864e-05
6.21949e-05
6.2269e-05
6.2164e-05
6.18882e-05
6.14487e-05
6.07853e-05
5.98803e-05
5.87744e-05
5.74627e-05
5.5911e-05
5.41147e-05
5.21119e-05
4.99592e-05
4.77307e-05
4.54709e-05
4.33068e-05
4.10997e-05
3.91472e-05
3.77504e-05
3.2708e-05
3.9126e-05
3.82814e-05
2.09316e-06
4.94897e-05
4.87655e-05
4.80781e-05
4.7317e-05
4.6558e-05
4.58153e-05
4.51094e-05
4.44631e-05
4.3875e-05
4.33359e-05
4.28312e-05
4.23434e-05
4.1854e-05
4.13648e-05
4.08427e-05
4.02638e-05
3.96127e-05
3.8876e-05
3.80394e-05
3.7081e-05
3.59816e-05
3.47199e-05
3.32806e-05
3.16702e-05
2.99203e-05
2.80668e-05
2.61398e-05
2.41637e-05
2.2163e-05
2.01636e-05
1.81928e-05
1.62733e-05
1.44266e-05
1.26664e-05
1.0972e-05
9.36263e-06
7.73612e-06
6.12064e-06
4.78182e-06
4.45349e-05
4.52424e-05
4.6046e-05
4.68325e-05
4.767e-05
4.85455e-05
4.94154e-05
5.02781e-05
5.11195e-05
5.19249e-05
5.26859e-05
5.33917e-05
5.40359e-05
5.4607e-05
5.50959e-05
5.54938e-05
5.57761e-05
5.59364e-05
5.5955e-05
5.5823e-05
5.5556e-05
5.51038e-05
5.44401e-05
5.35958e-05
5.25694e-05
5.1329e-05
4.98664e-05
4.82079e-05
4.63953e-05
4.44855e-05
4.25177e-05
4.05809e-05
3.86394e-05
3.67043e-05
3.55766e-05
3.14281e-05
3.32965e-05
3.86738e-05
1.01248e-05
4.38611e-05
4.32223e-05
4.26119e-05
4.19377e-05
4.1268e-05
4.06165e-05
4.00022e-05
3.94447e-05
3.89413e-05
3.84837e-05
3.80596e-05
3.76522e-05
3.72494e-05
3.68413e-05
3.64131e-05
3.59482e-05
3.54055e-05
3.48025e-05
3.41122e-05
3.33186e-05
3.24046e-05
3.13488e-05
3.01328e-05
2.87609e-05
2.72566e-05
2.56505e-05
2.39673e-05
2.22271e-05
2.04496e-05
1.86577e-05
1.68739e-05
1.5119e-05
1.34112e-05
1.17633e-05
1.01567e-05
8.6015e-06
7.01805e-06
5.4117e-06
4.00763e-06
3.9514e-05
4.01473e-05
4.08678e-05
4.15769e-05
4.23366e-05
4.31331e-05
4.39251e-05
4.47152e-05
4.54877e-05
4.62327e-05
4.69409e-05
4.76049e-05
4.82184e-05
4.87744e-05
4.92643e-05
4.96792e-05
5.00041e-05
5.02236e-05
5.03413e-05
5.03168e-05
5.01812e-05
4.98935e-05
4.94237e-05
4.87921e-05
4.80009e-05
4.70216e-05
4.58406e-05
4.44771e-05
4.29608e-05
4.13336e-05
3.96314e-05
3.79111e-05
3.61953e-05
3.4372e-05
3.32445e-05
3.02616e-05
2.89851e-05
3.5427e-05
1.95162e-05
3.891e-05
3.83448e-05
3.78016e-05
3.72033e-05
3.66105e-05
3.60373e-05
3.54992e-05
3.50147e-05
3.45805e-05
3.41888e-05
3.38291e-05
3.34864e-05
3.31498e-05
3.28105e-05
3.24583e-05
3.20708e-05
3.16262e-05
3.11291e-05
3.05581e-05
2.99016e-05
2.91407e-05
2.82565e-05
2.72292e-05
2.60606e-05
2.47695e-05
2.33802e-05
2.19133e-05
2.0385e-05
1.88106e-05
1.72094e-05
1.56e-05
1.40006e-05
1.24261e-05
1.08886e-05
9.37197e-06
7.87823e-06
6.34758e-06
4.76889e-06
3.33975e-06
3.50891e-05
3.56567e-05
3.63001e-05
3.69392e-05
3.76265e-05
3.83484e-05
3.90689e-05
3.97896e-05
4.04968e-05
4.11822e-05
4.18387e-05
4.24586e-05
4.30392e-05
4.35727e-05
4.40536e-05
4.44727e-05
4.48274e-05
4.50843e-05
4.52605e-05
4.53227e-05
4.52868e-05
4.51263e-05
4.48092e-05
4.43524e-05
4.37545e-05
4.29908e-05
4.2047e-05
4.09348e-05
3.96745e-05
3.82952e-05
3.68283e-05
3.5311e-05
3.37868e-05
3.21337e-05
3.08936e-05
2.89051e-05
2.61529e-05
3.06163e-05
2.43847e-05
3.45467e-05
3.40448e-05
3.35607e-05
3.30284e-05
3.25027e-05
3.19971e-05
3.15237e-05
3.11e-05
3.07224e-05
3.03846e-05
3.00773e-05
2.97853e-05
2.95023e-05
2.92146e-05
2.89227e-05
2.85997e-05
2.8237e-05
2.78226e-05
2.73496e-05
2.6804e-05
2.61703e-05
2.5428e-05
2.45591e-05
2.35639e-05
2.24564e-05
2.12575e-05
1.99818e-05
1.86428e-05
1.72521e-05
1.58249e-05
1.4377e-05
1.29235e-05
1.14764e-05
1.00467e-05
8.62194e-06
7.19696e-06
5.72733e-06
4.19217e-06
2.77005e-06
3.11818e-05
3.16917e-05
3.22661e-05
3.28422e-05
3.34631e-05
3.41155e-05
3.47692e-05
3.54244e-05
3.60705e-05
3.66987e-05
3.73044e-05
3.78804e-05
3.84245e-05
3.89307e-05
3.93946e-05
3.98086e-05
4.01693e-05
4.0458e-05
4.06714e-05
4.07941e-05
4.08313e-05
4.07647e-05
4.05659e-05
4.02461e-05
3.98044e-05
3.92184e-05
3.84733e-05
3.75747e-05
3.65356e-05
3.53755e-05
3.41185e-05
3.27895e-05
3.1429e-05
2.99687e-05
2.86259e-05
2.7271e-05
2.43351e-05
2.59592e-05
2.48696e-05
3.06943e-05
3.02472e-05
2.98162e-05
2.93415e-05
2.88748e-05
2.84272e-05
2.80093e-05
2.76367e-05
2.73064e-05
2.70123e-05
2.67462e-05
2.64967e-05
2.62563e-05
2.60136e-05
2.57637e-05
2.54938e-05
2.51973e-05
2.4847e-05
2.44538e-05
2.39997e-05
2.34708e-05
2.28464e-05
2.21112e-05
2.12643e-05
2.03161e-05
1.92818e-05
1.81743e-05
1.70029e-05
1.57769e-05
1.45077e-05
1.32083e-05
1.18911e-05
1.05653e-05
9.24081e-06
7.9087e-06
6.55896e-06
5.15923e-06
3.68264e-06
2.29577e-06
2.77261e-05
2.81853e-05
2.8698e-05
2.92174e-05
2.97776e-05
3.03667e-05
3.09579e-05
3.15526e-05
3.21409e-05
3.27148e-05
3.3271e-05
3.38031e-05
3.43094e-05
3.47856e-05
3.5227e-05
3.56299e-05
3.59873e-05
3.62884e-05
3.65248e-05
3.66968e-05
3.67868e-05
3.67876e-05
3.6678e-05
3.64652e-05
3.61469e-05
3.57042e-05
3.51219e-05
3.44012e-05
3.35501e-05
3.25807e-05
3.15093e-05
3.03551e-05
2.91395e-05
2.78588e-05
2.6499e-05
2.54123e-05
2.29652e-05
2.23424e-05
2.28243e-05
2.72884e-05
2.68898e-05
2.65057e-05
2.60823e-05
2.56668e-05
2.52694e-05
2.48993e-05
2.457e-05
2.4279e-05
2.40211e-05
2.37895e-05
2.35732e-05
2.33651e-05
2.31621e-05
2.29448e-05
2.27181e-05
2.24634e-05
2.21757e-05
2.18469e-05
2.14678e-05
2.10241e-05
2.04981e-05
1.98752e-05
1.91536e-05
1.83419e-05
1.74506e-05
1.64902e-05
1.5467e-05
1.43878e-05
1.32616e-05
1.20984e-05
1.09085e-05
9.69809e-06
8.47668e-06
7.23762e-06
5.96847e-06
4.64527e-06
3.23987e-06
1.91147e-06
2.46647e-05
2.50788e-05
2.55388e-05
2.6006e-05
2.65109e-05
2.70422e-05
2.75762e-05
2.81147e-05
2.86492e-05
2.91718e-05
2.96806e-05
3.01699e-05
3.06384e-05
3.1083e-05
3.14995e-05
3.18848e-05
3.22323e-05
3.25402e-05
3.27891e-05
3.29872e-05
3.31189e-05
3.317e-05
3.31264e-05
3.29962e-05
3.27762e-05
3.2449e-05
3.1999e-05
3.14253e-05
3.07315e-05
2.99242e-05
2.90135e-05
2.80151e-05
2.69344e-05
2.58027e-05
2.45151e-05
2.34613e-05
2.16515e-05
1.98691e-05
2.00186e-05
2.42737e-05
2.39189e-05
2.35764e-05
2.31984e-05
2.28277e-05
2.24739e-05
2.21448e-05
2.18526e-05
2.15948e-05
2.13666e-05
2.11625e-05
2.09734e-05
2.07934e-05
2.06166e-05
2.04311e-05
2.02339e-05
2.002e-05
1.97826e-05
1.9501e-05
1.9184e-05
1.8811e-05
1.83673e-05
1.78395e-05
1.72247e-05
1.65291e-05
1.57611e-05
1.49281e-05
1.4035e-05
1.30865e-05
1.20893e-05
1.10506e-05
9.97837e-06
8.87737e-06
7.75627e-06
6.60968e-06
5.42509e-06
4.185e-06
2.86258e-06
1.61672e-06
2.19526e-05
2.23239e-05
2.2737e-05
2.31578e-05
2.36126e-05
2.40913e-05
2.45734e-05
2.50605e-05
2.55446e-05
2.60196e-05
2.64837e-05
2.69317e-05
2.7363e-05
2.7775e-05
2.81644e-05
2.85288e-05
2.88635e-05
2.91654e-05
2.94246e-05
2.96338e-05
2.97902e-05
2.98764e-05
2.9881e-05
2.98128e-05
2.96694e-05
2.94337e-05
2.90911e-05
2.86387e-05
2.8077e-05