# p  FACE_DATA 300
# x y z  p
0.29787915 -0.05 -0.060005454 21769.625
0.29366024 -0.05 -0.059998184 21765.836
0.28948669 -0.05 -0.059982824 21763.58
0.28535801 -0.05 -0.05995956 21762.228
0.28127374 -0.05 -0.05992843 21761.892
0.27723341 -0.05 -0.059889544 21761.941
0.27323659 -0.05 -0.059843056 21763.018
0.2692828 -0.05 -0.059789027 21765.131
0.26537161 -0.05 -0.059727601 21767.82
0.26150257 -0.05 -0.05965892 21771.437
0.25767524 -0.05 -0.059583046 21776.173
0.2538892 -0.05 -0.059500074 21781.93
0.25014401 -0.05 -0.059410118 21788.702
0.24643926 -0.05 -0.059313284 21796.501
0.24277452 -0.05 -0.059209673 21805.276
0.23914938 -0.05 -0.059099387 21814.982
0.23556343 -0.05 -0.058982537 21825.401
0.23201627 -0.05 -0.058859254 21836.713
0.2285075 -0.05 -0.058729541 21849.644
0.22503671 -0.05 -0.058593532 21862.744
0.22160352 -0.05 -0.058451379 21877.068
0.21820754 -0.05 -0.058303115 21892.226
0.21484838 -0.05 -0.058148846 21908.365
0.21152567 -0.05 -0.05798866 21925.416
0.20823903 -0.05 -0.057822651 21943.469
0.20498809 -0.05 -0.057650874 21962.604
0.20177248 -0.05 -0.057473468 21982.168
0.19859184 -0.05 -0.057290478 22003.249
0.1954458 -0.05 -0.057101994 22024.335
0.19233402 -0.05 -0.056908168 22046.53
0.18925614 -0.05 -0.056708999 22070.012
0.18621181 -0.05 -0.056504562 22094.655
0.18320071 -0.05 -0.056294919 22120.369
0.18022246 -0.05 -0.056080229 22146.186
0.17727675 -0.05 -0.055860526 22173.766
0.17436324 -0.05 -0.05563585 22201.403
0.1714816 -0.05 -0.055406376 22230.01
0.16863151 -0.05 -0.055172052 22260.47
0.16581265 -0.05 -0.054932944 22291.369
0.16302469 -0.05 -0.054689208 22323.045
0.16026732 -0.05 -0.054440898 22355.539
0.15754024 -0.05 -0.054188056 22389.126
0.15484313 -0.05 -0.053930725 22423.614
0.15217569 -0.05 -0.053668978 22458.948
0.14953762 -0.05 -0.053402888 22495.429
0.14692863 -0.05 -0.053132457 22533.434
0.14434842 -0.05 -0.052857799 22571.302
0.14179669 -0.05 -0.052579044 22610.246
0.13927317 -0.05 -0.05229612 22651.024
0.13677758 -0.05 -0.052009061 22692.662
0.13430961 -0.05 -0.051717985 22734.986
0.13186901 -0.05 -0.051422993 22777.634
0.1294555 -0.05 -0.051124081 22822.11
0.12706881 -0.05 -0.050821224 22867.749
0.12470868 -0.05 -0.050514504 22914.249
0.12237483 -0.05 -0.05020403 22961.038
0.120067 -0.05 -0.049889836 23009.369
0.11778495 -0.05 -0.049571874 23058.844
0.11552842 -0.05 -0.049250263 23108.639
0.11329715 -0.05 -0.048924992 23160.251
0.1110909 -0.05 -0.048596121 23211.919
0.10890943 -0.05 -0.048263656 23266.322
0.10675251 -0.05 -0.047927554 23321.195
0.10461987 -0.05 -0.047587958 23376.7
0.1025113 -0.05 -0.047244937 23432.692
0.10042655 -0.05 -0.046898432 23490.606
0.098365405 -0.05 -0.046548446 23548.884
0.096327639 -0.05 -0.046195043 23608.709
0.094313028 -0.05 -0.045838237 23669.653
0.092321357 -0.05 -0.045478019 23732.701
0.090352417 -0.05 -0.04511438 23796.419
0.088405979 -0.05 -0.044747421 23860.95
0.086481845 -0.05 -0.044377096 23927.411
0.084579815 -0.05 -0.044003384 23994.643
0.082699669 -0.05 -0.043626384 24063.021
0.080841229 -0.05 -0.043246005 24133.879
0.0790043 -0.05 -0.042862236 24205.123
0.077188665 -0.05 -0.0424752 24277.592
0.07539416 -0.05 -0.042084789 24352.474
0.073620599 -0.05 -0.041690997 24427.959
0.071867788 -0.05 -0.041293877 24504.885
0.070135557 -0.05 -0.040893385 24583.286
0.068423742 -0.05 -0.040489457 24664.006
0.066732169 -0.05 -0.040082112 24745.881
0.065060663 -0.05 -0.039671361 24830.026
0.063409062 -0.05 -0.039257174 24915.572
0.061777219 -0.05 -0.038839488 25003.141
0.060164984 -0.05 -0.038418265 25091.462
0.058572196 -0.05 -0.037993513 25182.182
0.056998721 -0.05 -0.037565159 25275.102
0.055444419 -0.05 -0.03713316 25370.069
0.053909142 -0.05 -0.036697516 25466.491
0.052392764 -0.05 -0.036258171 25565.488
0.050895177 -0.05 -0.035815009 25666.654
0.049416244 -0.05 -0.035368033 25769.534
0.047955856 -0.05 -0.034917167 25875.223
0.046513915 -0.05 -0.034462309 25982.977
0.045090302 -0.05 -0.034003445 26093.067
0.043684931 -0.05 -0.033540468 26206.741
0.042297731 -0.05 -0.03307324 26323.864
0.040928604 -0.05 -0.032601735 26443.805
0.039577476 -0.05 -0.032125845 26567.653
0.038244292 -0.05 -0.03164545 26695.072
0.036928981 -0.05 -0.031160474 26826.262
0.0356315 -0.05 -0.030670795 26961.144
0.03435181 -0.05 -0.030176299 27100.732
0.033089918 -0.05 -0.029676761 27245.524
0.031845783 -0.05 -0.029172106 27392.836
0.030619394 -0.05 -0.028662209 27544.952
0.029410776 -0.05 -0.028146878 27700.785
0.028219949 -0.05 -0.027625962 27861.551
0.027046957 -0.05 -0.027099267 28026.765
0.025891857 -0.05 -0.026566614 28197.403
0.02475474 -0.05 -0.026027768 28373.375
0.023635681 -0.05 -0.025482558 28555.018
0.022534817 -0.05 -0.024930718 28742.96
0.021452274 -0.05 -0.024372036 28935.878
0.020388213 -0.05 -0.023806274 29134.408
0.019342865 -0.05 -0.023233111 29338.524
0.018316468 -0.05 -0.022652259 29549.554
0.017309264 -0.05 -0.02206346 29768.791
0.016321577 -0.05 -0.021466368 29996.81
0.015353757 -0.05 -0.020860644 30232.29
0.014406156 -0.05 -0.020245997 30475.828
0.013479274 -0.05 -0.019622013 30727.611
0.012573638 -0.05 -0.018988322 30987.2
0.0116898 -0.05 -0.018344552 31254.39
0.010828378 -0.05 -0.017690314 31528.885
0.0099901248 -0.05 -0.017025149 31811.476
0.0091759198 -0.05 -0.016348644 32101.225
0.008386597 -0.05 -0.0156605 32396.938
0.0076231725 -0.05 -0.014960218 32700.506
0.0068867853 -0.05 -0.014247452 33008.024
0.0061787359 -0.05 -0.013521943 33318.173
0.0055003792 -0.05 -0.012783302 33627.441
0.0048530826 -0.05 -0.012031363 33932.584
0.0042385571 -0.05 -0.011266143 34229.997
0.0036585397 -0.05 -0.010487553 34514.324
0.0031148318 -0.05 -0.0096957287 34776.534
0.0026094399 -0.05 -0.0088912322 35005.548
0.0021442246 -0.05 -0.0080745628 35197.594
0.0017210465 -0.05 -0.0072465895 35354.255
0.0013418093 -0.05 -0.0064087151 35459.27
0.0010080919 -0.05 -0.0055623679 35500.624
0.00072127228 -0.05 -0.0047092571 35477.602
0.00048251081 -0.05 -0.0038515496 35384.126
0.00029236329 -0.05 -0.0029916286 35216.878
0.0001508317 -0.05 -0.0021320102 34983.561
5.7495879e-05 -0.05 -0.0012752716 34672.938
1.1394864e-05 -0.05 -0.00042397109 34280.201
0.99768066 -0.05 -0.00033611804 26477.143
0.99304169 -0.05 -0.0010063364 26363.284
0.98840215 -0.05 -0.0016726212 26241.522
0.98376207 -0.05 -0.0023350721 26138.169
0.97912144 -0.05 -0.0029936636 26039.908
0.97448026 -0.05 -0.00364841 25948.793
0.96983855 -0.05 -0.0042993733 25862.578
0.96519632 -0.05 -0.0049465845 25781.078
0.96055357 -0.05 -0.0055900577 25703.578
0.95591031 -0.05 -0.0062298653 25629.549
0.95126654 -0.05 -0.0068660327 25558.866
0.94662228 -0.05 -0.0074985225 25491.215
0.94197752 -0.05 -0.0081274235 25426.128
0.9373323 -0.05 -0.008752761 25363.656
0.93268659 -0.05 -0.0093745713 25303.285
0.92804042 -0.05 -0.0099928964 25245.172
0.92339379 -0.05 -0.010607714 25189.093
0.91874669 -0.05 -0.011219031 25134.953
0.91409915 -0.05 -0.011826962 25082.201
0.90945116 -0.05 -0.012431486 25031.419
0.90480273 -0.05 -0.013032571 24981.883
0.90015387 -0.05 -0.013630361 24933.668
0.89550457 -0.05 -0.014224739 24887.123
0.89085486 -0.05 -0.014815813 24841.213
0.88620473 -0.05 -0.01540363 24796.891
0.88155418 -0.05 -0.0159881 24753.495
0.87690323 -0.05 -0.016569356 24711.002
0.87225187 -0.05 -0.017147383 24669.567
0.86760011 -0.05 -0.017722168 24629.057
0.86294795 -0.05 -0.018293719 24589.484
0.85829541 -0.05 -0.018862095 24550.551
0.85364248 -0.05 -0.01942729 24512.599
0.84898916 -0.05 -0.01998931 24475.168
0.84433547 -0.05 -0.020548224 24438.547
0.8396814 -0.05 -0.021103928 24402.902
0.83502695 -0.05 -0.021656533 24367.374
0.83037214 -0.05 -0.022206072 24332.766
0.82571696 -0.05 -0.022752481 24298.616
0.82106143 -0.05 -0.023295768 24265.317
0.81640553 -0.05 -0.023835961 24232.23
0.81174927 -0.05 -0.024373126 24199.648
0.80709266 -0.05 -0.024907211 24167.485
0.80243571 -0.05 -0.025438235 24135.739
0.7977784 -0.05 -0.025966147 24104.707
0.79312074 -0.05 -0.026490982 24073.763
0.78846275 -0.05 -0.027012845 24043.027
0.78380442 -0.05 -0.027531686 24012.805
0.77914575 -0.05 -0.028047403 23983.188
0.77448674 -0.05 -0.028560079 23953.489
0.76982739 -0.05 -0.029069752 23924.352
0.76516771 -0.05 -0.02957633 23895.599
0.7605077 -0.05 -0.030079852 23867.025
0.75584737 -0.05 -0.030580367 23838.569
0.75118671 -0.05 -0.03107785 23810.473
0.74652573 -0.05 -0.031572241 23782.764
0.74186441 -0.05 -0.032063551 23755.291
0.73720278 -0.05 -0.032551782 23728.075
0.73254083 -0.05 -0.03303698 23700.802
0.72787854 -0.05 -0.033519069 23674.1
0.72321595 -0.05 -0.033998064 23647.118
0.71855304 -0.05 -0.034473962 23620.841
0.71388981 -0.05 -0.034946671 23594.611
0.70922626 -0.05 -0.035416302 23568.258
0.7045624 -0.05 -0.03588285 23542.01
0.69989823 -0.05 -0.036346252 23515.912
0.69523375 -0.05 -0.036806454 23490.191
0.69056894 -0.05 -0.037263403 23464.683
0.68590382 -0.05 -0.037717206 23438.864
0.68123839 -0.05 -0.038167801 23413.649
0.67657265 -0.05 -0.038615123 23388.208
0.67190661 -0.05 -0.039059237 23362.936
0.66724025 -0.05 -0.039500049 23338.012
0.66257357 -0.05 -0.039937521 23313.183
0.6579066 -0.05 -0.040371712 23288.176
0.65323931 -0.05 -0.040802591 23263.374
0.64857171 -0.05 -0.041230085 23238.675
0.6439038 -0.05 -0.041654149 23214.218
0.63923558 -0.05 -0.042074786 23189.628
0.63456705 -0.05 -0.042492 23165.169
0.62989821 -0.05 -0.042905734 23140.766
0.62522906 -0.05 -0.043315943 23116.468
0.62055961 -0.05 -0.043722625 23092.044
0.61588983 -0.05 -0.044125719 23067.896
0.61121975 -0.05 -0.044525219 23043.48
0.60654937 -0.05 -0.044921074 23019.538
0.60187867 -0.05 -0.045313219 22995.398
0.59720766 -0.05 -0.045701683 22971.312
0.59253634 -0.05 -0.046086399 22947.327
0.58786471 -0.05 -0.046467288 22923.577
0.58319277 -0.05 -0.046844345 22899.706
0.57852051 -0.05 -0.047217535 22876.079
0.57384795 -0.05 -0.047586814 22852.288
0.56917507 -0.05 -0.047952124 22828.74
0.56450189 -0.05 -0.048313436 22804.945
0.55982839 -0.05 -0.048670677 22781.614
0.55515457 -0.05 -0.04902381 22757.96
0.55048045 -0.05 -0.04937281 22734.726
0.54580601 -0.05 -0.04971755 22711.521
0.54113126 -0.05 -0.050058049 22688.094
0.5364562 -0.05 -0.050394263 22664.7
0.53178083 -0.05 -0.050726133 22641.201
0.52710515 -0.05 -0.05105357 22618.096
0.52242915 -0.05 -0.051376464 22595.147
0.51775284 -0.05 -0.051694815 22572.147
0.51307623 -0.05 -0.052008601 22549.213
0.5083993 -0.05 -0.052317709 22526.556
0.50372205 -0.05 -0.052622098 22503.726
0.4990445 -0.05 -0.052921702 22481.188
0.49436664 -0.05 -0.053216428 22458.611
0.48968848 -0.05 -0.053506199 22436.381
0.48501001 -0.05 -0.053790938 22414.125
0.48033122 -0.05 -0.054070627 22392.004
0.47565213 -0.05 -0.05434516 22370.136
0.47097274 -0.05 -0.05461447 22348.195
0.46629305 -0.05 -0.054878504 22326.375
0.46161306 -0.05 -0.055137129 22304.863
0.45693277 -0.05 -0.055390258 22283.485
0.45225217 -0.05 -0.05563783 22262.278
0.44757129 -0.05 -0.055879797 22241.035
0.44289011 -0.05 -0.056116052 22220.279
0.43820865 -0.05 -0.056346461 22199.822
0.43352689 -0.05 -0.056570934 22179.621
0.42884486 -0.05 -0.056789429 22159.248
0.42416254 -0.05 -0.057001839 22139.282
0.41947994 -0.05 -0.057208045 22119.433
0.41479707 -0.05 -0.057407955 22100.093
0.41011393 -0.05 -0.057601449 22081.017
0.40543053 -0.05 -0.057788457 22062.192
0.40074687 -0.05 -0.057968847 22043.811
0.39606296 -0.05 -0.058142512 22025.592
0.3913788 -0.05 -0.05830933 22007.858
0.38669439 -0.05 -0.058469176 21990.383
0.38200975 -0.05 -0.058621944 21973.393
0.37732488 -0.05 -0.058767528 21956.772
0.37263978 -0.05 -0.058905769 21941.005
0.36795448 -0.05 -0.059036525 21925.54
0.36326896 -0.05 -0.059159726 21910.517
0.35858325 -0.05 -0.059275201 21896.156
0.35389735 -0.05 -0.059382803 21882.128
0.34921128 -0.05 -0.05948244 21868.467
0.34452504 -0.05 -0.059573923 21855.737
0.33983865 -0.05 -0.059657063 21843.731
0.33515211 -0.05 -0.059731741 21832.341
0.33046544 -0.05 -0.059797856 21821.38
0.32577866 -0.05 -0.059855197 21811.53
0.32109177 -0.05 -0.059903556 21802.262
0.31640481 -0.05 -0.059942821 21793.563
0.31171777 -0.05 -0.059972784 21785.213
0.30703069 -0.05 -0.059993273 21777.357
0.30234356 -0.05 -0.060004087 21772.341
