/*--------------------------------*- C++ -*----------------------------------*\
| =========                 |                                                 |
| \\      /  F ield         | OpenFOAM: The Open Source CFD Toolbox           |
|  \\    /   O peration     | Version:  2306                                  |
|   \\  /    A nd           | Website:  www.openfoam.com                      |
|    \\/     M anipulation  |                                                 |
\*---------------------------------------------------------------------------*/
FoamFile
{
    version     2.0;
    format      ascii;
    arch        "LSB;label=32;scalar=64";
    class       volScalarField;
    location    "275";
    object      magR;
}
// * * * * * * * * * * * * * * * * * * * * * * * * * * * * * * * * * * * * * //

dimensions      [0 2 -2 0 0 0 0];

internalField   nonuniform List<scalar> 
1340
(
1.09071e-06
8.2874e-07
1.10668e-06
8.03854e-07
8.02731e-07
1.10613e-06
3.35035e-07
7.93479e-07
7.85527e-07
1.11058e-06
2.99719e-07
5.50394e-07
3.31875e-07
7.85212e-07
7.70919e-07
1.11807e-06
4.2675e-07
5.01346e-07
2.90695e-07
5.40248e-07
3.2861e-07
7.77741e-07
7.59088e-07
1.12567e-06
6.01948e-07
5.28382e-07
5.28391e-07
4.09647e-07
4.87364e-07
2.81226e-07
5.30338e-07
3.25432e-07
7.71316e-07
7.50561e-07
1.13276e-06
6.95427e-07
6.52562e-07
6.00729e-07
5.75699e-07
5.04702e-07
5.08732e-07
3.92283e-07
4.73238e-07
2.7145e-07
5.20888e-07
3.22326e-07
7.66092e-07
7.45159e-07
1.13923e-06
8.82511e-07
8.22406e-07
7.64788e-07
7.10097e-07
6.56655e-07
6.18434e-07
5.69924e-07
5.49086e-07
4.80803e-07
4.88776e-07
3.7477e-07
4.59037e-07
2.61438e-07
5.11814e-07
3.19312e-07
7.61789e-07
7.42161e-07
1.14604e-06
1.11651e-06
1.05214e-06
9.89923e-07
9.30017e-07
8.72504e-07
8.17418e-07
7.64842e-07
7.14056e-07
6.65814e-07
6.17727e-07
5.84058e-07
5.38872e-07
5.22112e-07
4.56684e-07
4.68518e-07
3.57102e-07
4.44711e-07
2.51215e-07
5.02937e-07
3.16447e-07
7.58092e-07
7.4106e-07
1.15207e-06
1.41504e-06
1.35606e-06
1.29688e-06
1.23779e-06
1.17913e-06
1.12118e-06
1.06422e-06
1.00847e-06
9.54151e-07
9.01377e-07
8.50273e-07
8.00957e-07
7.5345e-07
7.07973e-07
6.63689e-07
6.21648e-07
5.78793e-07
5.49567e-07
5.07696e-07
4.94877e-07
4.32432e-07
4.48016e-07
3.39355e-07
4.30267e-07
2.40847e-07
4.94176e-07
3.13715e-07
7.54869e-07
7.42407e-07
1.15804e-06
1.70281e-06
1.67468e-06
1.6447e-06
1.61275e-06
1.57873e-06
1.5426e-06
1.50443e-06
1.46429e-06
1.42231e-06
1.37873e-06
1.33371e-06
1.28748e-06
1.24033e-06
1.1925e-06
1.14429e-06
1.09593e-06
1.0477e-06
9.99857e-07
9.5263e-07
9.06228e-07
8.60814e-07
8.16504e-07
7.73384e-07
7.31577e-07
6.91079e-07
6.52224e-07
6.14065e-07
5.77928e-07
5.40144e-07
5.15213e-07
4.76624e-07
4.67567e-07
4.08212e-07
4.27387e-07
3.21636e-07
4.15753e-07
2.30435e-07
4.85555e-07
3.11054e-07
7.52051e-07
7.45057e-07
1.16392e-06
1.4724e-08
8.84526e-10
0
0
3.17609e-05
6.04847e-05
0.00787717
0.104048
0.408629
0.911863
1.45189
1.83074
1.89524
1.5742
0.90214
0.0942733
0.889599
1.54411
1.73826
1.40985
0.778578
0.249362
0.0339682
0.000297861
3.46246e-05
0
0
0
3.50331e-08
4.82042e-07
1.65907e-06
1.83162e-06
1.6069e-06
1.50926e-06
1.50056e-06
1.49156e-06
1.47047e-06
1.44779e-06
1.42576e-06
1.40273e-06
1.37806e-06
1.35172e-06
1.32367e-06
1.29383e-06
1.26225e-06
1.22902e-06
1.19432e-06
1.15833e-06
1.12121e-06
1.08317e-06
1.04445e-06
1.00528e-06
9.65858e-07
9.26423e-07
8.87184e-07
8.48333e-07
8.10051e-07
7.72479e-07
7.35693e-07
6.99748e-07
6.64763e-07
6.30687e-07
5.97959e-07
5.65519e-07
5.34953e-07
5.0204e-07
4.81224e-07
4.45865e-07
4.40359e-07
3.84165e-07
4.06732e-07
3.04079e-07
4.01174e-07
2.2006e-07
4.76899e-07
3.08552e-07
7.49463e-07
7.49208e-07
1.16974e-06
9.67434e-07
2.65346e-08
1.72324e-09
0
0
2.80231e-08
0.000595276
0.000932992
0.0411153
0.230093
0.625748
1.1281
1.54972
1.7201
1.54022
1.01036
0.245986
0.606843
1.27327
1.55163
1.34022
0.794957
0.282292
0.0438928
0.000741064
6.36521e-05
0
0
0
1.406e-08
1.76145e-07
1.26478e-06
1.59271e-06
1.39129e-06
1.26818e-06
1.2508e-06
1.24662e-06
1.23097e-06
1.21251e-06
1.19491e-06
1.17641e-06
1.15602e-06
1.13399e-06
1.11053e-06
1.08563e-06
1.05927e-06
1.03159e-06
1.00275e-06
9.72903e-07
9.42215e-07
9.10898e-07
8.79149e-07
8.47129e-07
8.15051e-07
7.83082e-07
7.51391e-07
7.20121e-07
6.89386e-07
6.59242e-07
6.29695e-07
6.00858e-07
5.7262e-07
5.45517e-07
5.18364e-07
4.93009e-07
4.64736e-07
4.47828e-07
4.15622e-07
4.13432e-07
3.60466e-07
3.8619e-07
2.86775e-07
3.86579e-07
2.09743e-07
4.68305e-07
3.05973e-07
7.46973e-07
7.53457e-07
1.17594e-06
9.97103e-07
8.48535e-07
8.50574e-08
4.94137e-09
0
0
0
0.000168059
0.000290143
0.0115588
0.112123
0.395609
0.834559
1.27229
1.52769
1.47465
1.08051
0.421546
0.359752
1.02408
1.36968
1.26277
0.802927
0.312876
0.0562058
0.00179993
9.81763e-05
0
0
0
1.80603e-09
1.52304e-08
7.99879e-07
1.30186e-06
1.19508e-06
1.07047e-06
1.04712e-06
1.04743e-06
1.03524e-06
1.01734e-06
1.00112e-06
9.85732e-07
9.6904e-07
9.50597e-07
9.30752e-07
9.09709e-07
8.87557e-07
8.64405e-07
8.40359e-07
8.15596e-07
7.90288e-07
7.64616e-07
7.38729e-07
7.12797e-07
6.86963e-07
6.61378e-07
6.36147e-07
6.11376e-07
5.87065e-07
5.63219e-07
5.39908e-07
5.16953e-07
4.95001e-07
4.72732e-07
4.52194e-07
4.28356e-07
4.15125e-07
3.86016e-07
3.86866e-07
3.37212e-07
3.65762e-07
2.69821e-07
3.72019e-07
1.99568e-07
4.59356e-07
3.03248e-07
7.45162e-07
7.579e-07
1.1825e-06
7.8451e-07
8.59616e-07
7.74895e-07
2.00262e-07
1.0828e-08
0
0
0
1.71209e-06
0.000679336
0.00182169
0.0459023
0.227041
0.583075
1.00971
1.32754
1.38476
1.11549
0.562396
0.155294
0.802351
1.19833
1.18133
0.801089
0.337621
0.0685498
0.00320742
0.000139685
0
0
0
1.96828e-11
3.93787e-08
5.45174e-07
1.05087e-06
1.02588e-06
8.94588e-07
8.57495e-07
8.67203e-07
8.69142e-07
8.57049e-07
8.41355e-07
8.26723e-07
8.12245e-07
7.96661e-07
7.79732e-07
7.61744e-07
7.4294e-07
7.23413e-07
7.0331e-07
6.82769e-07
6.61975e-07
6.41049e-07
6.20143e-07
5.99402e-07
5.78927e-07
5.58823e-07
5.39142e-07
5.19904e-07
5.01055e-07
4.8263e-07
4.64411e-07
4.47083e-07
4.29269e-07
4.13132e-07
3.93405e-07
3.83631e-07
3.5746e-07
3.61113e-07
3.1463e-07
3.45874e-07
2.53204e-07
3.57769e-07
1.8886e-07
4.51012e-07
2.99485e-07
7.43316e-07
7.63086e-07
1.19155e-06
6.93725e-07
6.84051e-07
7.56538e-07
6.93076e-07
3.41617e-07
1.81662e-08
4.00348e-12
0
0
0
0.000258975
0.000323991
0.0134721
0.109612
0.364539
0.746951
1.10702
1.27197
1.13504
0.697804
0.0900357
0.580197
1.02441
1.1
0.804567
0.371748
0.0870666
0.00534664
0.000138659
1.11251e-05
0
0
0
2.43395e-08
2.96901e-07
8.09234e-07
9.46075e-07
8.2961e-07
7.3282e-07
7.08749e-07
7.11873e-07
7.09934e-07
6.9944e-07
6.86146e-07
6.72983e-07
6.59642e-07
6.45523e-07
6.30536e-07
6.14913e-07
5.98891e-07
5.82516e-07
5.65991e-07
5.49434e-07
5.32961e-07
5.16724e-07
5.00788e-07
4.85268e-07
4.70141e-07
4.55481e-07
4.41176e-07
4.27212e-07
4.13382e-07
4.00324e-07
3.86643e-07
3.74676e-07
3.58871e-07
3.52359e-07
3.29223e-07
3.35313e-07
2.92409e-07
3.25567e-07
2.37347e-07
3.42644e-07
1.79615e-07
4.41238e-07
2.96742e-07
7.40251e-07
7.67775e-07
1.19722e-06
6.18462e-07
5.9555e-07
5.99384e-07
6.15073e-07
5.93814e-07
4.62477e-07
8.30032e-08
4.66888e-09
3.00366e-13
0
0
2.60345e-06
0.000405607
0.00114605
0.0266118
0.13543
0.373384
0.695426
0.966572
1.03997
0.838202
0.393436
0.180107
0.667273
0.905635
0.805087
0.479643
0.173031
0.0314908
0.000983772
0.000110954
1.62954e-06
0
0
3.02126e-10
1.52127e-08
1.51806e-07
5.1905e-07
6.87823e-07
6.4753e-07
5.81958e-07
5.57455e-07
5.56208e-07
5.54322e-07
5.46347e-07
5.35686e-07
5.24835e-07
5.13828e-07
5.02377e-07
4.90521e-07
4.78345e-07
4.66117e-07
4.53953e-07
4.41968e-07
4.30234e-07
4.18855e-07
4.0794e-07
3.97447e-07
3.87442e-07
3.77767e-07
3.68429e-07
3.59148e-07
3.50553e-07
3.41239e-07
3.33551e-07
3.22156e-07
3.18795e-07
2.99502e-07
3.07345e-07
2.69746e-07
3.02694e-07
2.22785e-07
3.23096e-07
1.72613e-07
4.20621e-07
2.82751e-07
7.06962e-07
7.29334e-07
1.11203e-06
5.30588e-07
5.16252e-07
5.10695e-07
5.02881e-07
4.98353e-07
5.23078e-07
4.70497e-07
3.09623e-07
7.4792e-09
4.87105e-10
0
0
0
1.08107e-05
0.000371623
0.000836346
0.0199343
0.10483
0.29716
0.566233
0.796638
0.852975
0.663861
0.263946
0.222884
0.607715
0.741411
0.594252
0.31633
0.101303
0.0155867
0.000214605
5.05777e-05
0
0
0
1.12596e-10
1.20532e-08
1.3954e-07
4.16113e-07
5.2552e-07
4.82151e-07
4.33979e-07
4.19403e-07
4.18872e-07
4.15727e-07
4.08407e-07
3.99953e-07
3.9167e-07
3.83353e-07
3.74862e-07
3.66402e-07
3.58075e-07
3.50087e-07
3.42487e-07
3.35375e-07
3.28841e-07
3.22836e-07
3.17437e-07
3.12408e-07
3.07776e-07
3.03169e-07
2.99174e-07
2.9442e-07
2.91127e-07
2.84272e-07
2.84273e-07
2.68933e-07
2.78837e-07
2.462e-07
2.80144e-07
2.0687e-07
3.06221e-07
1.6507e-07
4.09547e-07
2.83484e-07
7.0395e-07
7.46149e-07
1.12123e-06
4.47084e-07
4.3648e-07
4.34144e-07
4.27867e-07
4.16989e-07
4.13691e-07
4.2477e-07
4.39049e-07
3.59358e-07
1.26465e-07
6.52863e-09
1.37623e-12
0
0
0
1.08938e-05
0.000344948
0.000557502
0.0165551
0.0902403
0.258993
0.493892
0.686572
0.711725
0.51124
0.135263
0.283154
0.563747
0.597853
0.420696
0.193239
0.0506485
0.00508336
8.28616e-05
7.78165e-06
0
0
0
2.84294e-10
6.21688e-10
1.62507e-07
3.44828e-07
3.7552e-07
3.35131e-07
3.11137e-07
3.07068e-07
3.06083e-07
3.01666e-07
2.95429e-07
2.89177e-07
2.83289e-07
2.77639e-07
2.72254e-07
2.67403e-07
2.63139e-07
2.59566e-07
2.56752e-07
2.54669e-07
2.53315e-07
2.52458e-07
2.52083e-07
2.51736e-07
2.51922e-07
2.51296e-07
2.51968e-07
2.49131e-07
2.52213e-07
2.4049e-07
2.52347e-07
2.24066e-07
2.59286e-07
1.91432e-07
2.91217e-07
1.56268e-07
4.0092e-07
2.81607e-07
7.0514e-07
7.58519e-07
1.12934e-06
3.61368e-07
3.65483e-07
3.59513e-07
3.5226e-07
3.45122e-07
3.41136e-07
3.43887e-07
3.64059e-07
3.48372e-07
2.47973e-07
3.06136e-08
1.8469e-09
0
0
0
0
9.5074e-06
0.000328347
0.000567951
0.016098
0.0857515
0.241217
0.448869
0.601557
0.585574
0.364315
0.0239041
0.331163
0.506466
0.460963
0.27793
0.10407
0.020133
0.000850979
6.62405e-05
0
0
0
4.85542e-13
4.14832e-09
4.36084e-08
1.93816e-07
2.67356e-07
2.52739e-07
2.26726e-07
2.1805e-07
2.16741e-07
2.14303e-07
2.10161e-07
2.06e-07
2.02394e-07
1.99349e-07
1.9706e-07
1.95571e-07
1.94991e-07
1.95367e-07
1.96651e-07
1.98781e-07
2.01486e-07
2.04731e-07
2.07982e-07
2.11669e-07
2.14448e-07
2.18329e-07
2.1874e-07
2.24257e-07
2.15688e-07
2.2901e-07
2.04648e-07
2.40676e-07
1.77849e-07
2.77869e-07
1.48401e-07
3.93908e-07
2.78982e-07
7.0815e-07
7.65153e-07
1.13679e-06
2.9486e-07
2.99905e-07
2.95866e-07
2.91469e-07
2.87704e-07
2.8353e-07
2.79529e-07
2.79595e-07
2.87823e-07
3.02556e-07
2.67959e-07
1.27585e-07
6.88654e-09
1.41125e-12
0
0
0
0
1.0117e-05
0.000328328
0.000843309
0.0179278
0.0886785
0.237116
0.41962
0.527854
0.464434
0.223094
0.102131
0.357006
0.434109
0.331937
0.163888
0.0463311
0.00545145
0.000128798
6.04077e-06
0
0
0
6.87185e-11
4.56105e-11
7.78108e-08
1.59444e-07
1.70343e-07
1.53822e-07
1.44144e-07
1.42201e-07
1.41124e-07
1.3921e-07
1.37475e-07
1.36586e-07
1.36749e-07
1.37955e-07
1.40272e-07
1.43734e-07
1.48199e-07
1.53557e-07
1.59466e-07
1.65848e-07
1.72159e-07
1.78741e-07
1.84278e-07
1.90646e-07
1.93578e-07
2.00845e-07
1.95001e-07
2.09263e-07
1.88473e-07
2.24685e-07
1.66827e-07
2.66338e-07
1.42574e-07
3.88167e-07
2.76306e-07
7.12662e-07
7.66097e-07
1.14545e-06
2.38063e-07
2.42344e-07
2.39055e-07
2.35915e-07
2.33527e-07
2.30986e-07
2.28984e-07
2.25773e-07
2.23573e-07
2.25886e-07
2.39724e-07
2.39856e-07
1.83321e-07
2.64776e-08
1.7259e-09
6.37e-14
0
0
0
0
1.28988e-05
0.00032854
0.00154914
0.0225149
0.098844
0.243414
0.398144
0.45529
0.342815
0.0901522
0.188691
0.354672
0.345281
0.214208
0.0807367
0.0150879
0.00053154
5.78923e-05
1.95791e-07
0
0
3.8719e-14
2.73182e-09
2.60835e-08
8.03648e-08
9.97132e-08
9.20137e-08
8.33203e-08
8.06653e-08
8.05672e-08
8.1058e-08
8.24299e-08
8.52844e-08
8.96595e-08
9.53438e-08
1.02137e-07
1.09818e-07
1.1818e-07
1.26894e-07
1.35823e-07
1.44512e-07
1.53245e-07
1.60777e-07
1.68815e-07
1.73463e-07
1.81688e-07
1.77974e-07
1.92644e-07
1.74973e-07
2.1081e-07
1.57565e-07
2.56059e-07
1.37686e-07
3.83235e-07
2.729e-07
7.17523e-07
7.59358e-07
1.15641e-06
1.98531e-07
2.01786e-07
1.9985e-07
1.97382e-07
1.9528e-07
1.93711e-07
1.92628e-07
1.90782e-07
1.88694e-07
1.86084e-07
1.86488e-07
1.91384e-07
2.0515e-07
1.80275e-07
1.08745e-07
8.92796e-10
1.0598e-10
0
0
0
0
0
3.21799e-05
2.37744e-05
0.00292537
0.0306394
0.116088
0.255937
0.375777
0.375359
0.217855
0.0345655
0.245559
0.31889
0.244837
0.116882
0.0303912
0.00284442
3.6138e-07
1.24287e-05
0
0
0
5.08073e-10
2.13139e-09
1.32223e-08
2.19557e-08
2.66911e-08
2.64919e-08
2.74139e-08
3.18689e-08
3.86964e-08
4.6691e-08
5.55978e-08
6.5299e-08
7.55405e-08
8.60577e-08
9.6716e-08
1.07289e-07
1.17766e-07
1.27803e-07
1.37723e-07
1.46374e-07
1.55199e-07
1.60814e-07
1.69268e-07
1.67175e-07
1.81643e-07
1.669e-07
2.01497e-07
1.53121e-07
2.49184e-07
1.36824e-07
3.8057e-07
2.68807e-07
7.23607e-07
7.38402e-07
1.1794e-06
1.60239e-07
1.63845e-07
1.62226e-07
1.60054e-07
1.58255e-07
1.57642e-07
1.5746e-07
1.55439e-07
1.54722e-07
1.5378e-07
1.51809e-07
1.50582e-07
1.53586e-07
1.60675e-07
1.66399e-07
1.28819e-07
4.79717e-08
3.67056e-09
2.80433e-12
0
0
0
0
2.29201e-08
9.14761e-05
4.20695e-05
0.00584482
0.0437736
0.13989
0.268589
0.341855
0.279245
0.0885589
0.133139
0.263911
0.249906
0.143887
0.047071
0.0068695
9.15226e-05
4.01135e-05
0
0
0
2.71432e-11
2.7809e-11
8.27581e-09
3.97105e-08
3.21908e-08
2.36598e-08
2.68279e-08
3.52614e-08
4.49799e-08
5.45373e-08
6.39467e-08
7.35254e-08
8.32315e-08
9.29856e-08
1.02565e-07
1.12015e-07
1.21093e-07
1.30098e-07
1.38043e-07
1.46009e-07
1.51034e-07
1.58301e-07
1.56418e-07
1.69779e-07
1.5658e-07
1.89681e-07
1.43834e-07
2.38681e-07
1.28366e-07
3.73504e-07
2.58393e-07
7.22602e-07
6.99886e-07
1.21706e-06
1.58991e-07
1.60992e-07
1.6029e-07
1.58412e-07
1.56691e-07
1.55495e-07
1.5471e-07
1.52899e-07
1.51654e-07
1.50234e-07
1.48052e-07
1.46088e-07
1.44553e-07
1.4396e-07
1.46123e-07
1.53137e-07
1.42833e-07
1.01784e-07
2.84375e-08
2.82781e-09
3.45481e-12
0
0
0
0
8.78627e-07
0.000184323
0.000385692
0.0121626
0.0652054
0.173835
0.288133
0.311953
0.192819
0.0317298
0.203674
0.254657
0.179016
0.0721592
0.0122756
0.00100443
5.63931e-05
3.41302e-05
6.65697e-06
1.65962e-07
3.60093e-14
3.16845e-11
6.58221e-12
5.2118e-08
9.97767e-08
9.20401e-08
8.06735e-08
7.94527e-08
8.40676e-08
9.02807e-08
9.68947e-08
1.03896e-07
1.11295e-07
1.18889e-07
1.26578e-07
1.34189e-07
1.41893e-07
1.48907e-07
1.55857e-07
1.60289e-07
1.6646e-07
1.65181e-07
1.76914e-07
1.66009e-07
1.95859e-07
1.54653e-07
2.44165e-07
1.36812e-07
3.80712e-07
2.45218e-07
7.36397e-07
6.35481e-07
1.34824e-06
1.22944e-07
1.2394e-07
1.25408e-07
1.26293e-07
1.26817e-07
1.27294e-07
1.28104e-07
1.29071e-07
1.29882e-07
1.30376e-07
1.30851e-07
1.31647e-07
1.32393e-07
1.33116e-07
1.33739e-07
1.36736e-07
1.42139e-07
1.46726e-07
1.3537e-07
1.02889e-07
2.86673e-08
2.57777e-09
0
0
0
0
0
6.24018e-06
0.000156838
0.000514141
0.010403
0.0496423
0.123324
0.194129
0.19964
0.111161
0.0319144
0.141446
0.161592
0.107902
0.0447598
0.0114139
0.00151015
2.83926e-05
2.4199e-05
4.03706e-06
0
1.44073e-14
2.11609e-09
3.30576e-08
9.33281e-08
1.18204e-07
1.18759e-07
1.16811e-07
1.17476e-07
1.19609e-07
1.22167e-07
1.249e-07
1.27754e-07
1.30678e-07
1.33603e-07
1.36706e-07
1.39507e-07
1.42468e-07
1.43261e-07
1.45077e-07
1.40948e-07
1.49022e-07
1.36718e-07
1.63567e-07
1.19959e-07
2.08603e-07
9.16947e-08
3.39569e-07
2.03167e-07
6.69867e-07
6.34311e-07
1.3307e-06
)
;

boundaryField
{
    inlet
    {
        type            calculated;
        value           nonuniform List<scalar> 
27
(
7.08284e-06
7.09224e-06
7.10919e-06
7.1319e-06
7.15616e-06
7.18128e-06
7.20795e-06
7.236e-06
7.2653e-06
7.29477e-06
7.32428e-06
7.35328e-06
7.38117e-06
7.40731e-06
7.43098e-06
7.45147e-06
7.46895e-06
7.43326e-06
7.43787e-06
7.43596e-06
7.42378e-06
7.40012e-06
7.36177e-06
7.30725e-06
7.22874e-06
7.15142e-06
6.99226e-06
)
;
    }
    outlet
    {
        type            calculated;
        value           nonuniform List<scalar> 
78
(
9.52619e-08
9.66789e-08
9.85862e-08
9.98538e-08
1.00704e-07
1.01505e-07
1.02733e-07
1.04159e-07
1.05394e-07
1.06247e-07
1.07083e-07
1.08306e-07
1.09536e-07
1.10749e-07
1.11828e-07
1.14827e-07
1.19708e-07
1.23615e-07
1.14164e-07
8.76337e-08
2.53401e-08
2.40186e-09
0
0
0
0
0
6.26908e-06
0.000156534
0.000481086
0.0103002
0.0494404
0.123128
0.194209
0.200269
0.112326
0.0297752
0.139934
0.160697
0.10758
0.0447294
0.0114461
0.00152936
1.83295e-05
2.30347e-05
3.8295e-06
0
1.2505e-14
1.83721e-09
2.92938e-08
8.35462e-08
1.06065e-07
1.06449e-07
1.04394e-07
1.04491e-07
1.05702e-07
1.07112e-07
1.08533e-07
1.09939e-07
1.11332e-07
1.12663e-07
1.14214e-07
1.15428e-07
1.17085e-07
1.16304e-07
1.17534e-07
1.11358e-07
1.21312e-07
1.04202e-07
1.38886e-07
8.02868e-08
1.9097e-07
2.45753e-08
3.2653e-07
1.8201e-07
6.46803e-07
6.3563e-07
1.25819e-06
)
;
    }
    walls
    {
        type            calculated;
        value           nonuniform List<scalar> 0();
    }
    frontAndBack
    {
        type            empty;
    }
    procBoundary7to3
    {
        type            processor;
        value           nonuniform List<scalar> 
16
(
1.29994e-06
1.42149e-06
1.08051e-06
9.28285e-07
8.28163e-07
7.15366e-07
5.95245e-07
4.92558e-07
3.67953e-07
3.67953e-07
3.00081e-07
2.42805e-07
2.02606e-07
1.62646e-07
1.62612e-07
1.1993e-07
)
;
    }
    procBoundary7to6
    {
        type            processor;
        value           nonuniform List<scalar> 
91
(
1.08708e-06
8.56184e-07
8.56184e-07
8.19895e-07
8.19895e-07
3.37777e-07
3.37777e-07
3.08166e-07
5.60554e-07
5.60554e-07
4.43253e-07
5.14939e-07
5.14939e-07
6.27664e-07
5.5169e-07
5.47642e-07
5.47642e-07
7.34035e-07
6.86438e-07
6.31288e-07
6.31288e-07
9.48448e-07
8.80415e-07
8.15669e-07
7.54315e-07
7.54315e-07
1.2298e-06
1.15423e-06
1.0816e-06
1.01208e-06
9.45713e-07
9.45713e-07
1.60859e-06
1.53601e-06
1.46364e-06
1.39177e-06
1.3208e-06
1.25108e-06
1.18289e-06
1.18289e-06
2.00415e-06
1.96716e-06
1.92791e-06
1.88624e-06
1.84211e-06
1.79554e-06
1.74662e-06
1.69547e-06
1.6423e-06
1.58743e-06
1.53105e-06
1.47346e-06
1.47346e-06
1.14755e-12
0
3.44391e-09
0.000397959
0.000363817
0.0306261
0.216653
0.652545
1.24813
1.80039
2.11345
2.05338
1.57709
0.755647
0.279555
1.21149
1.83967
1.93126
1.47274
0.754105
0.214856
0.0227193
0.000265388
3.50414e-05
0
0
0
6.05753e-08
8.63886e-07
2.1114e-06
2.15232e-06
1.90497e-06
1.81697e-06
1.80461e-06
1.78578e-06
1.75757e-06
1.72978e-06
1.72978e-06
)
;
    }
}


// ************************************************************************* //
