/*--------------------------------*- C++ -*----------------------------------*\
| =========                 |                                                 |
| \\      /  F ield         | OpenFOAM: The Open Source CFD Toolbox           |
|  \\    /   O peration     | Version:  2306                                  |
|   \\  /    A nd           | Website:  www.openfoam.com                      |
|    \\/     M anipulation  |                                                 |
\*---------------------------------------------------------------------------*/
FoamFile
{
    version     2.0;
    format      ascii;
    arch        "LSB;label=32;scalar=64";
    class       volScalarField;
    location    "275";
    object      nut;
}
// * * * * * * * * * * * * * * * * * * * * * * * * * * * * * * * * * * * * * //

dimensions      [0 2 -1 0 0 0 0];

internalField   nonuniform List<scalar> 
1340
(
6.10204e-06
6.1028e-06
6.10237e-06
6.08337e-06
6.10343e-06
6.1028e-06
6.08137e-06
6.08329e-06
6.10411e-06
6.10332e-06
6.07232e-06
6.07458e-06
6.08125e-06
6.08318e-06
6.10481e-06
6.10394e-06
6.07742e-06
6.07307e-06
6.07228e-06
6.07452e-06
6.08114e-06
6.08305e-06
6.10556e-06
6.10464e-06
6.09023e-06
6.0864e-06
6.0822e-06
6.07783e-06
6.07332e-06
6.07225e-06
6.07444e-06
6.08102e-06
6.0829e-06
6.10633e-06
6.10544e-06
6.09963e-06
6.09674e-06
6.09409e-06
6.09084e-06
6.08697e-06
6.08269e-06
6.07826e-06
6.07359e-06
6.07224e-06
6.07435e-06
6.08091e-06
6.08272e-06
6.10713e-06
6.10634e-06
6.11214e-06
6.11003e-06
6.10728e-06
6.1039e-06
6.10039e-06
6.09744e-06
6.09476e-06
6.09148e-06
6.08758e-06
6.08322e-06
6.07872e-06
6.07389e-06
6.07224e-06
6.07425e-06
6.08079e-06
6.0825e-06
6.10795e-06
6.10734e-06
6.11859e-06
6.11783e-06
6.11691e-06
6.11584e-06
6.11458e-06
6.11302e-06
6.11092e-06
6.10818e-06
6.10477e-06
6.10119e-06
6.09818e-06
6.09547e-06
6.09217e-06
6.08823e-06
6.08378e-06
6.07922e-06
6.07424e-06
6.07227e-06
6.07415e-06
6.08067e-06
6.08226e-06
6.10878e-06
6.10844e-06
6.12109e-06
6.12107e-06
6.12105e-06
6.12098e-06
6.12081e-06
6.12052e-06
6.12009e-06
6.1195e-06
6.11875e-06
6.11783e-06
6.11675e-06
6.11549e-06
6.11394e-06
6.11186e-06
6.10913e-06
6.10569e-06
6.10205e-06
6.09897e-06
6.09623e-06
6.0929e-06
6.08892e-06
6.08439e-06
6.07974e-06
6.07462e-06
6.07231e-06
6.07403e-06
6.08054e-06
6.08199e-06
6.10962e-06
6.10964e-06
6.12222e-06
6.12303e-06
6.12294e-06
6.12274e-06
6.12254e-06
6.1223e-06
6.12212e-06
6.12204e-06
6.12201e-06
6.122e-06
6.122e-06
6.122e-06
6.12198e-06
6.12197e-06
6.12195e-06
6.12189e-06
6.12173e-06
6.12146e-06
6.12104e-06
6.12046e-06
6.11971e-06
6.11879e-06
6.11771e-06
6.11646e-06
6.11491e-06
6.11286e-06
6.11014e-06
6.10668e-06
6.10296e-06
6.0998e-06
6.09703e-06
6.09368e-06
6.08965e-06
6.08505e-06
6.08031e-06
6.07504e-06
6.07239e-06
6.0739e-06
6.0804e-06
6.08168e-06
6.11046e-06
6.11095e-06
1.58328e-09
7.23614e-12
0
0
8.62403e-05
0.000265527
0.0154026
0.0537221
0.110529
0.173529
0.232687
0.282587
0.320852
0.347023
0.362302
0.369019
0.370092
0.358927
0.326819
0.26788
0.185082
0.0968929
0.0322526
0.0017007
0.000472792
0
0
0
2.11734e-09
5.0465e-07
6.30672e-06
7.94155e-06
6.43124e-06
5.91746e-06
6.04077e-06
6.14164e-06
6.14063e-06
6.1275e-06
6.12539e-06
6.125e-06
6.12377e-06
6.12317e-06
6.12317e-06
6.12317e-06
6.12304e-06
6.12295e-06
6.12292e-06
6.12293e-06
6.12294e-06
6.12292e-06
6.12291e-06
6.12289e-06
6.12284e-06
6.1227e-06
6.12244e-06
6.12203e-06
6.12146e-06
6.12072e-06
6.11981e-06
6.11873e-06
6.11747e-06
6.11593e-06
6.1139e-06
6.1112e-06
6.10772e-06
6.10393e-06
6.1007e-06
6.09787e-06
6.09451e-06
6.09044e-06
6.08575e-06
6.08092e-06
6.0755e-06
6.0725e-06
6.07377e-06
6.08025e-06
6.08135e-06
6.1113e-06
6.11234e-06
6.2098e-06
6.78887e-09
3.27648e-11
0
0
1.81006e-10
0.00196487
0.00770912
0.0354296
0.0855193
0.147777
0.210238
0.265107
0.308557
0.339283
0.357867
0.366901
0.369119
0.36034
0.33184
0.276862
0.196971
0.108652
0.0382158
0.00319375
0.000893365
0
0
0
4.53014e-10
9.37787e-08
5.27193e-06
8.56217e-06
6.87627e-06
5.97499e-06
6.00071e-06
6.122e-06
6.13151e-06
6.11866e-06
6.1216e-06
6.12639e-06
6.12611e-06
6.12441e-06
6.12381e-06
6.1239e-06
6.12397e-06
6.12394e-06
6.12391e-06
6.12391e-06
6.12391e-06
6.1239e-06
6.12388e-06
6.12384e-06
6.12371e-06
6.12347e-06
6.12308e-06
6.12252e-06
6.12179e-06
6.12088e-06
6.11979e-06
6.11853e-06
6.11701e-06
6.115e-06
6.11232e-06
6.10883e-06
6.10497e-06
6.10165e-06
6.09878e-06
6.09539e-06
6.09128e-06
6.0865e-06
6.08158e-06
6.07601e-06
6.07265e-06
6.07364e-06
6.0801e-06
6.08101e-06
6.11211e-06
6.11383e-06
7.89178e-06
6.23963e-06
7.8935e-08
3.72051e-10
0
0
0
0.000546462
0.00198516
0.0200786
0.0613215
0.120267
0.184734
0.244422
0.293483
0.329462
0.352346
0.364279
0.36781
0.361331
0.336347
0.285387
0.208769
0.120467
0.0456349
0.0060978
0.00164513
0
0
0
1.02327e-11
1.00358e-09
3.13015e-06
8.24499e-06
7.20198e-06
6.05794e-06
6.00378e-06
6.16737e-06
6.17855e-06
6.1312e-06
6.11488e-06
6.12133e-06
6.1267e-06
6.1266e-06
6.12526e-06
6.12479e-06
6.12487e-06
6.12496e-06
6.12496e-06
6.12494e-06
6.12493e-06
6.12492e-06
6.12488e-06
6.12477e-06
6.12455e-06
6.12417e-06
6.12363e-06
6.12291e-06
6.122e-06
6.12092e-06
6.11966e-06
6.11814e-06
6.11616e-06
6.1135e-06
6.11001e-06
6.10608e-06
6.10266e-06
6.09974e-06
6.09632e-06
6.09217e-06
6.08731e-06
6.08228e-06
6.07657e-06
6.07285e-06
6.0735e-06
6.07993e-06
6.08067e-06
6.1129e-06
6.11542e-06
6.21942e-06
7.68304e-06
6.21964e-06
5.411e-07
2.52486e-09
0
0
0
6.50545e-07
0.0026573
0.0104315
0.0407485
0.0931273
0.157338
0.221129
0.276028
0.317836
0.345595
0.360773
0.365719
0.3614
0.339849
0.292965
0.219598
0.131369
0.0531984
0.00936302
0.00247276
0
0
0
1.42972e-15
9.00285e-09
2.18418e-06
7.98506e-06
7.57981e-06
5.96804e-06
5.69614e-06
6.00033e-06
6.18268e-06
6.17513e-06
6.13125e-06
6.11781e-06
6.12249e-06
6.12665e-06
6.12691e-06
6.12616e-06
6.12591e-06
6.12599e-06
6.12604e-06
6.12603e-06
6.12601e-06
6.12598e-06
6.12588e-06
6.12568e-06
6.12532e-06
6.1248e-06
6.12409e-06
6.12319e-06
6.1221e-06
6.12084e-06
6.11933e-06
6.11737e-06
6.11475e-06
6.11125e-06
6.10726e-06
6.10374e-06
6.10076e-06
6.09731e-06
6.09313e-06
6.08819e-06
6.08304e-06
6.07719e-06
6.07309e-06
6.07337e-06
6.07975e-06
6.08031e-06
6.11364e-06
6.11707e-06
6.01241e-06
6.20876e-06
7.37556e-06
6.45821e-06
1.9921e-06
9.15604e-09
5.44878e-16
0
0
0
0.000933738
0.00349482
0.0235836
0.0663042
0.12671
0.193044
0.254286
0.303523
0.337905
0.357684
0.365017
0.362533
0.34414
0.301481
0.231622
0.143959
0.062384
0.0124044
0.0036505
9.49939e-05
0
0
0
3.82127e-09
8.7233e-07
7.1803e-06
9.60974e-06
7.4564e-06
6.00534e-06
5.80599e-06
6.02718e-06
6.16221e-06
6.16374e-06
6.13406e-06
6.12287e-06
6.1249e-06
6.12747e-06
6.12767e-06
6.12722e-06
6.12708e-06
6.12713e-06
6.12716e-06
6.12713e-06
6.12705e-06
6.12686e-06
6.12653e-06
6.12603e-06
6.12533e-06
6.12444e-06
6.12335e-06
6.12209e-06
6.12058e-06
6.11865e-06
6.11606e-06
6.11258e-06
6.10852e-06
6.10491e-06
6.10184e-06
6.09837e-06
6.09415e-06
6.08912e-06
6.08386e-06
6.07787e-06
6.07339e-06
6.07324e-06
6.07955e-06
6.07996e-06
6.11438e-06
6.11885e-06
6.12922e-06
6.06117e-06
6.18986e-06
6.72731e-06
6.67345e-06
4.63927e-06
2.17656e-07
1.04443e-09
4.736e-18
0
0
2.84655e-06
0.00235985
0.00903459
0.0340246
0.0783592
0.137414
0.20127
0.260109
0.307165
0.339306
0.356692
0.360124
0.349271
0.317499
0.260098
0.181675
0.0992472
0.0385898
0.00520136
0.00177378
7.57558e-06
0
0
7.43807e-13
2.59391e-09
3.73324e-07
4.91308e-06
8.48137e-06
7.49345e-06
6.18792e-06
5.85145e-06
5.99985e-06
6.13731e-06
6.15606e-06
6.13445e-06
6.12483e-06
6.12659e-06
6.12884e-06
6.12901e-06
6.12864e-06
6.12852e-06
6.12854e-06
6.12852e-06
6.12837e-06
6.12807e-06
6.12759e-06
6.12691e-06
6.12603e-06
6.12494e-06
6.12366e-06
6.12216e-06
6.12025e-06
6.1177e-06
6.11423e-06
6.1101e-06
6.10635e-06
6.10318e-06
6.09966e-06
6.09539e-06
6.09027e-06
6.08485e-06
6.0787e-06
6.0738e-06
6.0731e-06
6.07934e-06
6.07959e-06
6.11504e-06
6.12075e-06
6.13327e-06
6.12943e-06
6.07724e-06
6.12327e-06
6.37064e-06
7.21695e-06
6.12898e-06
3.26221e-06
3.22221e-09
1.88271e-11
0
0
0
3.78461e-05
0.00218822
0.00807404
0.0303843
0.0716693
0.128301
0.191462
0.251182
0.299867
0.333631
0.351415
0.353257
0.337232
0.297511
0.232831
0.15383
0.0792481
0.0281033
0.00209117
0.000807823
0
0
0
1.82997e-13
2.95575e-09
5.79268e-07
5.71171e-06
8.82908e-06
7.37371e-06
6.1079e-06
5.88796e-06
6.05881e-06
6.15928e-06
6.15315e-06
6.13122e-06
6.12664e-06
6.1295e-06
6.13095e-06
6.13078e-06
6.13048e-06
6.13034e-06
6.1302e-06
6.12993e-06
6.12949e-06
6.12884e-06
6.12797e-06
6.12687e-06
6.12558e-06
6.12406e-06
6.12217e-06
6.11966e-06
6.11622e-06
6.112e-06
6.1081e-06
6.10479e-06
6.10118e-06
6.09686e-06
6.09162e-06
6.08602e-06
6.07968e-06
6.07432e-06
6.07298e-06
6.0791e-06
6.07926e-06
6.11569e-06
6.12275e-06
6.12226e-06
6.12705e-06
6.12164e-06
6.1021e-06
6.08868e-06
6.27183e-06
6.74942e-06
7.27502e-06
5.42182e-06
9.89959e-07
4.65755e-09
1.94933e-16
0
0
0
3.27476e-05
0.00189771
0.00692304
0.0282587
0.0685652
0.124667
0.188003
0.248451
0.297901
0.331755
0.347654
0.345316
0.321213
0.271665
0.201034
0.123455
0.0570147
0.0154834
0.00437272
0.000102192
0
0
0
2.11633e-12
1.62185e-11
1.58307e-06
7.35697e-06
8.33797e-06
6.63375e-06
5.89044e-06
5.9501e-06
6.12223e-06
6.16312e-06
6.14192e-06
6.12934e-06
6.12981e-06
6.13185e-06
6.13235e-06
6.13233e-06
6.13223e-06
6.13196e-06
6.1315e-06
6.13086e-06
6.13e-06
6.12891e-06
6.1276e-06
6.12607e-06
6.12419e-06
6.12172e-06
6.11831e-06
6.11404e-06
6.10998e-06
6.10651e-06
6.10281e-06
6.09843e-06
6.09308e-06
6.08729e-06
6.08075e-06
6.07494e-06
6.0729e-06
6.07884e-06
6.07892e-06
6.11625e-06
6.12478e-06
6.11991e-06
6.12204e-06
6.12121e-06
6.11199e-06
6.08473e-06
6.15716e-06
6.394e-06
7.19766e-06
6.78483e-06
4.16832e-06
1.0507e-07
5.09815e-10
0
0
0
0
2.50873e-05
0.00187995
0.0068825
0.0283391
0.0689897
0.12569
0.189783
0.250732
0.299649
0.331328
0.342292
0.332679
0.298701
0.240147
0.165718
0.0911854
0.0356558
0.00567081
0.00171462
0
0
0
9.75168e-18
9.65186e-10
1.91833e-07
4.82544e-06
8.78662e-06
7.52481e-06
6.13805e-06
5.89747e-06
6.0638e-06
6.15676e-06
6.15231e-06
6.13679e-06
6.13401e-06
6.13463e-06
6.13424e-06
6.13386e-06
6.13382e-06
6.13361e-06
6.13303e-06
6.13216e-06
6.13105e-06
6.12973e-06
6.12818e-06
6.12631e-06
6.12388e-06
6.12053e-06
6.11622e-06
6.11202e-06
6.10837e-06
6.10455e-06
6.10011e-06
6.09465e-06
6.08868e-06
6.08193e-06
6.07569e-06
6.07288e-06
6.07854e-06
6.07855e-06
6.11668e-06
6.12681e-06
6.1183e-06
6.11867e-06
6.11939e-06
6.12138e-06
6.11247e-06
6.10016e-06
6.07639e-06
6.2398e-06
6.66256e-06
7.31186e-06
6.06076e-06
1.83634e-06
8.70913e-09
3.29619e-16
0
0
0
0
2.86579e-05
0.00211466
0.00783383
0.0305703
0.0729592
0.131405
0.196553
0.257137
0.303512
0.330227
0.334419
0.315155
0.27026
0.203153
0.127154
0.0601377
0.017919
0.00491138
8.21714e-05
0
0
0
3.66362e-13
3.14772e-13
1.65774e-06
7.61459e-06
8.10791e-06
6.51837e-06
5.92537e-06
6.01231e-06
6.13294e-06
6.1447e-06
6.13189e-06
6.13309e-06
6.13761e-06
6.1379e-06
6.13645e-06
6.13558e-06
6.1351e-06
6.13439e-06
6.13333e-06
6.13198e-06
6.13041e-06
6.12854e-06
6.12616e-06
6.12287e-06
6.11855e-06
6.11422e-06
6.11038e-06
6.10641e-06
6.1019e-06
6.09635e-06
6.09018e-06
6.08321e-06
6.07656e-06
6.07293e-06
6.07823e-06
6.07816e-06
6.11699e-06
6.1288e-06
6.11799e-06
6.11797e-06
6.11797e-06
6.11863e-06
6.11936e-06
6.11757e-06
6.10431e-06
6.07822e-06
6.11663e-06
6.33893e-06
7.04167e-06
7.01879e-06
4.61521e-06
1.4117e-07
6.91579e-10
5.98599e-19
0
0
0
0
4.5229e-05
0.00263602
0.0099179
0.035438
0.0810663
0.142151
0.208059
0.266672
0.30835
0.327326
0.32223
0.291162
0.234485
0.161002
0.0876502
0.0331146
0.00466654
0.00139354
1.70506e-07
0
0
2.38551e-19
1.91594e-09
4.25553e-07
5.76585e-06
8.40536e-06
6.92913e-06
6.01223e-06
6.02035e-06
6.17506e-06
6.18349e-06
6.1404e-06
6.12676e-06
6.13346e-06
6.13873e-06
6.13896e-06
6.13774e-06
6.1367e-06
6.13567e-06
6.13436e-06
6.13278e-06
6.1309e-06
6.12856e-06
6.12534e-06
6.12104e-06
6.11661e-06
6.11257e-06
6.10843e-06
6.10384e-06
6.09819e-06
6.09184e-06
6.08463e-06
6.07759e-06
6.07308e-06
6.07788e-06
6.07774e-06
6.11711e-06
6.13077e-06
6.11814e-06
6.11808e-06
6.11804e-06
6.11797e-06
6.1183e-06
6.11874e-06
6.11968e-06
6.11096e-06
6.09429e-06
6.06589e-06
6.19551e-06
6.55316e-06
7.38678e-06
5.82367e-06
2.49473e-06
2.07083e-10
1.81934e-12
0
0
0
0
0
0.000163982
0.000295335
0.012742
0.0431404
0.0935822
0.157791
0.223573
0.278053
0.312197
0.320809
0.303524
0.258856
0.191452
0.116274
0.0520178
0.0134269
0.00065298
0.000212795
0
0
0
1.80488e-10
3.23235e-08
3.60554e-06
8.52044e-06
7.31263e-06
5.85404e-06
5.7398e-06
6.0651e-06
6.21321e-06
6.18732e-06
6.14546e-06
6.13514e-06
6.13814e-06
6.14e-06
6.13945e-06
6.1382e-06
6.13681e-06
6.13522e-06
6.13334e-06
6.13102e-06
6.12789e-06
6.12363e-06
6.11913e-06
6.11489e-06
6.11054e-06
6.10585e-06
6.10011e-06
6.09359e-06
6.08614e-06
6.0787e-06
6.07334e-06
6.07757e-06
6.07731e-06
6.1172e-06
6.13267e-06
6.11858e-06
6.1185e-06
6.11846e-06
6.11839e-06
6.11836e-06
6.11833e-06
6.11898e-06
6.11953e-06
6.11813e-06
6.10333e-06
6.08026e-06
6.08496e-06
6.33838e-06
6.9029e-06
7.2894e-06
4.55801e-06
7.30949e-07
3.45493e-09
9.05498e-16
0
0
0
0
2.87409e-10
0.000552805
0.00176754
0.0178743
0.0545676
0.110957
0.177888
0.241528
0.288781
0.311507
0.307036
0.274164
0.215015
0.140898
0.0707984
0.0240572
0.00283526
0.000654872
0
0
0
1.81907e-13
1.41682e-12
1.81087e-06
9.38002e-06
9.77086e-06
6.90341e-06
5.74592e-06
5.81953e-06
6.07973e-06
6.16992e-06
6.16026e-06
6.14464e-06
6.14119e-06
6.14148e-06
6.14099e-06
6.13967e-06
6.13802e-06
6.13612e-06
6.13382e-06
6.13078e-06
6.1266e-06
6.12206e-06
6.11765e-06
6.11306e-06
6.10822e-06
6.10238e-06
6.0957e-06
6.08797e-06
6.08018e-06
6.07384e-06
6.07713e-06
6.07678e-06
6.11665e-06
6.13462e-06
6.11896e-06
6.11889e-06
6.11884e-06
6.11881e-06
6.11877e-06
6.11871e-06
6.11867e-06
6.11895e-06
6.1197e-06
6.12029e-06
6.11355e-06
6.09384e-06
6.06414e-06
6.18084e-06
6.55805e-06
7.36427e-06
6.5957e-06
3.50699e-06
2.43551e-07
1.19928e-09
8.49115e-16
0
0
0
0
4.28869e-07
0.00143327
0.00526629
0.0273024
0.0719028
0.135292
0.205402
0.266569
0.30596
0.315569
0.294397
0.242578
0.168193
0.0903985
0.0290583
0.00873686
0.0010048
0.000423765
0.00012576
1.48203e-06
1.39622e-18
3.32101e-12
8.70657e-14
2.6662e-06
8.76532e-06
8.29836e-06
6.63565e-06
6.04633e-06
6.05165e-06
6.12892e-06
6.15067e-06
6.14746e-06
6.14405e-06
6.14285e-06
6.14176e-06
6.1402e-06
6.13827e-06
6.13598e-06
6.13302e-06
6.12892e-06
6.12438e-06
6.11981e-06
6.115e-06
6.11001e-06
6.10413e-06
6.09727e-06
6.08939e-06
6.08115e-06
6.07424e-06
6.07705e-06
6.07646e-06
6.11725e-06
6.13605e-06
6.1193e-06
6.11927e-06
6.11927e-06
6.11928e-06
6.1193e-06
6.11932e-06
6.11932e-06
6.11933e-06
6.11938e-06
6.12007e-06
6.12082e-06
6.12125e-06
6.1069e-06
6.08594e-06
6.06935e-06
6.28867e-06
6.80452e-06
7.38377e-06
6.37189e-06
3.39164e-06
1.82311e-07
6.98142e-10
0
0
0
0
0
2.56537e-05
0.00162467
0.00554256
0.0265222
0.0668139
0.122541
0.183655
0.237302
0.272516
0.281112
0.260587
0.212849
0.148123
0.0852331
0.0410457
0.0165244
0.00522513
0.000959698
0.000210413
0
1.07681e-19
2.74059e-09
5.65118e-07
4.05079e-06
6.39532e-06
6.50306e-06
6.23187e-06
6.13836e-06
6.13985e-06
6.14852e-06
6.14953e-06
6.14819e-06
6.14679e-06
6.14521e-06
6.14329e-06
6.14099e-06
6.13811e-06
6.13419e-06
6.12973e-06
6.12501e-06
6.11977e-06
6.11441e-06
6.10826e-06
6.10125e-06
6.09279e-06
6.08426e-06
6.0756e-06
6.07701e-06
6.07572e-06
6.11456e-06
6.1396e-06
)
;

boundaryField
{
    inlet
    {
        type            freestream;
        freestreamValue uniform 1e-05;
        value           nonuniform List<scalar> 
27
(
6.10204e-06
6.10237e-06
6.1028e-06
6.10332e-06
6.10394e-06
6.10464e-06
6.10544e-06
6.10634e-06
6.10734e-06
6.10844e-06
6.10964e-06
6.11095e-06
6.11234e-06
6.11383e-06
6.11542e-06
6.11707e-06
6.11885e-06
6.12075e-06
6.12275e-06
6.12478e-06
6.12681e-06
6.1288e-06
6.13077e-06
6.13267e-06
6.13462e-06
6.13605e-06
6.1396e-06
)
;
    }
    outlet
    {
        type            freestream;
        freestreamValue uniform 1e-05;
        value           nonuniform List<scalar> 
78
(
6.1193e-06
6.11927e-06
6.11927e-06
6.11928e-06
6.1193e-06
6.11932e-06
6.11932e-06
6.11933e-06
6.11938e-06
6.12007e-06
6.12082e-06
6.12125e-06
6.1069e-06
6.08594e-06
6.06935e-06
6.28867e-06
6.80452e-06
7.38377e-06
6.37189e-06
3.39164e-06
1.82311e-07
6.98142e-10
0
0
0
0
0
2.56537e-05
0.00162467
0.00554256
0.0265222
0.0668139
0.122541
0.183655
0.237302
0.272516
0.281112
0.260587
0.212849
0.148123
0.0852331
0.0410457
0.0165244
0.00522513
0.000959698
0.000210413
0
1.07681e-19
2.74059e-09
5.65118e-07
4.05079e-06
6.39532e-06
6.50306e-06
6.23187e-06
6.13836e-06
6.13985e-06
6.14852e-06
6.14953e-06
6.14819e-06
6.14679e-06
6.14521e-06
6.14329e-06
6.14099e-06
6.13811e-06
6.13419e-06
6.12973e-06
6.12501e-06
6.11977e-06
6.11441e-06
6.10826e-06
6.10125e-06
6.09279e-06
6.08426e-06
6.0756e-06
6.07701e-06
6.07572e-06
6.11456e-06
6.1396e-06
)
;
    }
    walls
    {
        type            nutUSpaldingWallFunction;
        value           nonuniform List<scalar> 0();
    }
    frontAndBack
    {
        type            empty;
    }
    procBoundary7to3
    {
        type            processor;
        value           nonuniform List<scalar> 
16
(
5.22662e-06
8.02749e-06
6.28927e-06
6.00853e-06
6.12391e-06
6.14062e-06
6.12678e-06
6.12157e-06
6.11943e-06
6.11943e-06
6.11841e-06
6.11806e-06
6.11826e-06
6.11873e-06
6.11909e-06
6.11939e-06
)
;
    }
    procBoundary7to6
    {
        type            processor;
        value           nonuniform List<scalar> 
91
(
6.10181e-06
6.1022e-06
6.1022e-06
6.08343e-06
6.08343e-06
6.08148e-06
6.08148e-06
6.07237e-06
6.07464e-06
6.07464e-06
6.07704e-06
6.07286e-06
6.07286e-06
6.08965e-06
6.08586e-06
6.08174e-06
6.08174e-06
6.09892e-06
6.09608e-06
6.09346e-06
6.09346e-06
6.1113e-06
6.10918e-06
6.10643e-06
6.10308e-06
6.10308e-06
6.11772e-06
6.11696e-06
6.11604e-06
6.11497e-06
6.11372e-06
6.11372e-06
6.12023e-06
6.12022e-06
6.1202e-06
6.12012e-06
6.11993e-06
6.11963e-06
6.11918e-06
6.11918e-06
6.12316e-06
6.12265e-06
6.12212e-06
6.12175e-06
6.12149e-06
6.12132e-06
6.12121e-06
6.12114e-06
6.12111e-06
6.12111e-06
6.12111e-06
6.12111e-06
6.12111e-06
8.21216e-18
0
3.63336e-12
0.00114364
0.00445654
0.0279223
0.0747358
0.13512
0.19676
0.251974
0.297123
0.330746
0.352994
0.365692
0.371431
0.371137
0.357236
0.321322
0.25846
0.17292
0.0850691
0.023929
0.00206953
0.000517125
0
0
0
4.73179e-09
1.14216e-06
7.02357e-06
7.60349e-06
6.28513e-06
5.96873e-06
6.08992e-06
6.1472e-06
6.13362e-06
6.12254e-06
6.12254e-06
)
;
    }
}


// ************************************************************************* //
