/*--------------------------------*- C++ -*----------------------------------*\
| =========                 |                                                 |
| \\      /  F ield         | OpenFOAM: The Open Source CFD Toolbox           |
|  \\    /   O peration     | Version:  2306                                  |
|   \\  /    A nd           | Website:  www.openfoam.com                      |
|    \\/     M anipulation  |                                                 |
\*---------------------------------------------------------------------------*/
FoamFile
{
    version     2.0;
    format      ascii;
    arch        "LSB;label=32;scalar=64";
    class       volScalarField;
    location    "275";
    object      turbulenceProperties:nuEff;
}
// * * * * * * * * * * * * * * * * * * * * * * * * * * * * * * * * * * * * * //

dimensions      [0 2 -1 0 0 0 0];

internalField   nonuniform List<scalar> 
1340
(
1.6102e-05
1.61028e-05
1.61024e-05
1.60834e-05
1.61034e-05
1.61028e-05
1.60814e-05
1.60833e-05
1.61041e-05
1.61033e-05
1.60723e-05
1.60746e-05
1.60813e-05
1.60832e-05
1.61048e-05
1.61039e-05
1.60774e-05
1.60731e-05
1.60723e-05
1.60745e-05
1.60811e-05
1.60831e-05
1.61056e-05
1.61046e-05
1.60902e-05
1.60864e-05
1.60822e-05
1.60778e-05
1.60733e-05
1.60723e-05
1.60744e-05
1.6081e-05
1.60829e-05
1.61063e-05
1.61054e-05
1.60996e-05
1.60967e-05
1.60941e-05
1.60908e-05
1.6087e-05
1.60827e-05
1.60783e-05
1.60736e-05
1.60722e-05
1.60744e-05
1.60809e-05
1.60827e-05
1.61071e-05
1.61063e-05
1.61121e-05
1.611e-05
1.61073e-05
1.61039e-05
1.61004e-05
1.60974e-05
1.60948e-05
1.60915e-05
1.60876e-05
1.60832e-05
1.60787e-05
1.60739e-05
1.60722e-05
1.60743e-05
1.60808e-05
1.60825e-05
1.61079e-05
1.61073e-05
1.61186e-05
1.61178e-05
1.61169e-05
1.61158e-05
1.61146e-05
1.6113e-05
1.61109e-05
1.61082e-05
1.61048e-05
1.61012e-05
1.60982e-05
1.60955e-05
1.60922e-05
1.60882e-05
1.60838e-05
1.60792e-05
1.60742e-05
1.60723e-05
1.60741e-05
1.60807e-05
1.60823e-05
1.61088e-05
1.61084e-05
1.61211e-05
1.61211e-05
1.61211e-05
1.6121e-05
1.61208e-05
1.61205e-05
1.61201e-05
1.61195e-05
1.61187e-05
1.61178e-05
1.61168e-05
1.61155e-05
1.61139e-05
1.61119e-05
1.61091e-05
1.61057e-05
1.6102e-05
1.6099e-05
1.60962e-05
1.60929e-05
1.60889e-05
1.60844e-05
1.60797e-05
1.60746e-05
1.60723e-05
1.6074e-05
1.60805e-05
1.6082e-05
1.61096e-05
1.61096e-05
1.61222e-05
1.6123e-05
1.61229e-05
1.61227e-05
1.61225e-05
1.61223e-05
1.61221e-05
1.6122e-05
1.6122e-05
1.6122e-05
1.6122e-05
1.6122e-05
1.6122e-05
1.6122e-05
1.6122e-05
1.61219e-05
1.61217e-05
1.61215e-05
1.6121e-05
1.61205e-05
1.61197e-05
1.61188e-05
1.61177e-05
1.61165e-05
1.61149e-05
1.61129e-05
1.61101e-05
1.61067e-05
1.6103e-05
1.60998e-05
1.6097e-05
1.60937e-05
1.60897e-05
1.6085e-05
1.60803e-05
1.6075e-05
1.60724e-05
1.60739e-05
1.60804e-05
1.60817e-05
1.61105e-05
1.61109e-05
1.00016e-05
1e-05
1e-05
1e-05
9.62403e-05
0.000275527
0.0154126
0.0537321
0.110539
0.173539
0.232697
0.282597
0.320862
0.347033
0.362312
0.369029
0.370102
0.358937
0.326829
0.26789
0.185092
0.0969029
0.0322626
0.0017107
0.000482792
1e-05
1e-05
1e-05
1.00021e-05
1.05046e-05
1.63067e-05
1.79415e-05
1.64312e-05
1.59175e-05
1.60408e-05
1.61416e-05
1.61406e-05
1.61275e-05
1.61254e-05
1.6125e-05
1.61238e-05
1.61232e-05
1.61232e-05
1.61232e-05
1.6123e-05
1.61229e-05
1.61229e-05
1.61229e-05
1.61229e-05
1.61229e-05
1.61229e-05
1.61229e-05
1.61228e-05
1.61227e-05
1.61224e-05
1.6122e-05
1.61215e-05
1.61207e-05
1.61198e-05
1.61187e-05
1.61175e-05
1.61159e-05
1.61139e-05
1.61112e-05
1.61077e-05
1.61039e-05
1.61007e-05
1.60979e-05
1.60945e-05
1.60904e-05
1.60857e-05
1.60809e-05
1.60755e-05
1.60725e-05
1.60738e-05
1.60803e-05
1.60814e-05
1.61113e-05
1.61123e-05
1.62098e-05
1.00068e-05
1e-05
1e-05
1e-05
1.00002e-05
0.00197487
0.00771912
0.0354396
0.0855293
0.147787
0.210248
0.265117
0.308567
0.339293
0.357877
0.366911
0.369129
0.36035
0.33185
0.276872
0.196981
0.108662
0.0382258
0.00320375
0.000903365
1e-05
1e-05
1e-05
1.00005e-05
1.00938e-05
1.52719e-05
1.85622e-05
1.68763e-05
1.5975e-05
1.60007e-05
1.6122e-05
1.61315e-05
1.61187e-05
1.61216e-05
1.61264e-05
1.61261e-05
1.61244e-05
1.61238e-05
1.61239e-05
1.6124e-05
1.61239e-05
1.61239e-05
1.61239e-05
1.61239e-05
1.61239e-05
1.61239e-05
1.61238e-05
1.61237e-05
1.61235e-05
1.61231e-05
1.61225e-05
1.61218e-05
1.61209e-05
1.61198e-05
1.61185e-05
1.6117e-05
1.6115e-05
1.61123e-05
1.61088e-05
1.6105e-05
1.61016e-05
1.60988e-05
1.60954e-05
1.60913e-05
1.60865e-05
1.60816e-05
1.6076e-05
1.60727e-05
1.60736e-05
1.60801e-05
1.6081e-05
1.61121e-05
1.61138e-05
1.78918e-05
1.62396e-05
1.00789e-05
1.00004e-05
1e-05
1e-05
1e-05
0.000556462
0.00199516
0.0200886
0.0613315
0.120277
0.184744
0.244432
0.293493
0.329472
0.352356
0.364289
0.36782
0.361341
0.336357
0.285397
0.208779
0.120477
0.0456449
0.0061078
0.00165513
1e-05
1e-05
1e-05
1e-05
1.0001e-05
1.31301e-05
1.8245e-05
1.7202e-05
1.60579e-05
1.60038e-05
1.61674e-05
1.61785e-05
1.61312e-05
1.61149e-05
1.61213e-05
1.61267e-05
1.61266e-05
1.61253e-05
1.61248e-05
1.61249e-05
1.6125e-05
1.6125e-05
1.61249e-05
1.61249e-05
1.61249e-05
1.61249e-05
1.61248e-05
1.61245e-05
1.61242e-05
1.61236e-05
1.61229e-05
1.6122e-05
1.61209e-05
1.61197e-05
1.61181e-05
1.61162e-05
1.61135e-05
1.611e-05
1.61061e-05
1.61027e-05
1.60997e-05
1.60963e-05
1.60922e-05
1.60873e-05
1.60823e-05
1.60766e-05
1.60728e-05
1.60735e-05
1.60799e-05
1.60807e-05
1.61129e-05
1.61154e-05
1.62194e-05
1.7683e-05
1.62196e-05
1.05411e-05
1.00025e-05
1e-05
1e-05
1e-05
1.06505e-05
0.0026673
0.0104415
0.0407585
0.0931373
0.157348
0.221139
0.276038
0.317846
0.345605
0.360783
0.365729
0.36141
0.339859
0.292975
0.219608
0.131379
0.0532084
0.00937302
0.00248276
1e-05
1e-05
1e-05
1e-05
1.0009e-05
1.21842e-05
1.79851e-05
1.75798e-05
1.5968e-05
1.56961e-05
1.60003e-05
1.61827e-05
1.61751e-05
1.61313e-05
1.61178e-05
1.61225e-05
1.61267e-05
1.61269e-05
1.61262e-05
1.61259e-05
1.6126e-05
1.6126e-05
1.6126e-05
1.6126e-05
1.6126e-05
1.61259e-05
1.61257e-05
1.61253e-05
1.61248e-05
1.61241e-05
1.61232e-05
1.61221e-05
1.61208e-05
1.61193e-05
1.61174e-05
1.61147e-05
1.61113e-05
1.61073e-05
1.61037e-05
1.61008e-05
1.60973e-05
1.60931e-05
1.60882e-05
1.6083e-05
1.60772e-05
1.60731e-05
1.60734e-05
1.60797e-05
1.60803e-05
1.61136e-05
1.61171e-05
1.60124e-05
1.62088e-05
1.73756e-05
1.64582e-05
1.19921e-05
1.00092e-05
1e-05
1e-05
1e-05
1e-05
0.000943738
0.00350482
0.0235936
0.0663142
0.12672
0.193054
0.254296
0.303533
0.337915
0.357694
0.365027
0.362543
0.34415
0.301491
0.231632
0.143969
0.062394
0.0124144
0.0036605
0.000104994
1e-05
1e-05
1e-05
1.00038e-05
1.08723e-05
1.71803e-05
1.96097e-05
1.74564e-05
1.60053e-05
1.5806e-05
1.60272e-05
1.61622e-05
1.61637e-05
1.61341e-05
1.61229e-05
1.61249e-05
1.61275e-05
1.61277e-05
1.61272e-05
1.61271e-05
1.61271e-05
1.61272e-05
1.61271e-05
1.6127e-05
1.61269e-05
1.61265e-05
1.6126e-05
1.61253e-05
1.61244e-05
1.61234e-05
1.61221e-05
1.61206e-05
1.61187e-05
1.61161e-05
1.61126e-05
1.61085e-05
1.61049e-05
1.61018e-05
1.60984e-05
1.60941e-05
1.60891e-05
1.60839e-05
1.60779e-05
1.60734e-05
1.60732e-05
1.60796e-05
1.608e-05
1.61144e-05
1.61189e-05
1.61292e-05
1.60612e-05
1.61899e-05
1.67273e-05
1.66734e-05
1.46393e-05
1.02177e-05
1.0001e-05
1e-05
1e-05
1e-05
1.28466e-05
0.00236985
0.00904459
0.0340346
0.0783692
0.137424
0.20128
0.260119
0.307175
0.339316
0.356702
0.360134
0.349281
0.317509
0.260108
0.181685
0.0992572
0.0385998
0.00521136
0.00178378
1.75756e-05
1e-05
1e-05
1e-05
1.00026e-05
1.03733e-05
1.49131e-05
1.84814e-05
1.74935e-05
1.61879e-05
1.58514e-05
1.59998e-05
1.61373e-05
1.61561e-05
1.61344e-05
1.61248e-05
1.61266e-05
1.61288e-05
1.6129e-05
1.61286e-05
1.61285e-05
1.61285e-05
1.61285e-05
1.61284e-05
1.61281e-05
1.61276e-05
1.61269e-05
1.6126e-05
1.61249e-05
1.61237e-05
1.61222e-05
1.61203e-05
1.61177e-05
1.61142e-05
1.61101e-05
1.61064e-05
1.61032e-05
1.60997e-05
1.60954e-05
1.60903e-05
1.60848e-05
1.60787e-05
1.60738e-05
1.60731e-05
1.60793e-05
1.60796e-05
1.6115e-05
1.61207e-05
1.61333e-05
1.61294e-05
1.60772e-05
1.61233e-05
1.63706e-05
1.7217e-05
1.6129e-05
1.32622e-05
1.00032e-05
1e-05
1e-05
1e-05
1e-05
4.78461e-05
0.00219822
0.00808404
0.0303943
0.0716793
0.128311
0.191472
0.251192
0.299877
0.333641
0.351425
0.353267
0.337242
0.297521
0.232841
0.15384
0.0792581
0.0281133
0.00210117
0.000817823
1e-05
1e-05
1e-05
1e-05
1.0003e-05
1.05793e-05
1.57117e-05
1.88291e-05
1.73737e-05
1.61079e-05
1.5888e-05
1.60588e-05
1.61593e-05
1.61531e-05
1.61312e-05
1.61266e-05
1.61295e-05
1.61309e-05
1.61308e-05
1.61305e-05
1.61303e-05
1.61302e-05
1.61299e-05
1.61295e-05
1.61288e-05
1.6128e-05
1.61269e-05
1.61256e-05
1.61241e-05
1.61222e-05
1.61197e-05
1.61162e-05
1.6112e-05
1.61081e-05
1.61048e-05
1.61012e-05
1.60969e-05
1.60916e-05
1.6086e-05
1.60797e-05
1.60743e-05
1.6073e-05
1.60791e-05
1.60793e-05
1.61157e-05
1.61228e-05
1.61223e-05
1.6127e-05
1.61216e-05
1.61021e-05
1.60887e-05
1.62718e-05
1.67494e-05
1.7275e-05
1.54218e-05
1.099e-05
1.00047e-05
1e-05
1e-05
1e-05
1e-05
4.27476e-05
0.00190771
0.00693304
0.0282687
0.0685752
0.124677
0.188013
0.248461
0.297911
0.331765
0.347664
0.345326
0.321223
0.271675
0.201044
0.123465
0.0570247
0.0154934
0.00438272
0.000112192
1e-05
1e-05
1e-05
1e-05
1e-05
1.15831e-05
1.7357e-05
1.8338e-05
1.66337e-05
1.58904e-05
1.59501e-05
1.61222e-05
1.61631e-05
1.61419e-05
1.61293e-05
1.61298e-05
1.61319e-05
1.61323e-05
1.61323e-05
1.61322e-05
1.6132e-05
1.61315e-05
1.61309e-05
1.613e-05
1.61289e-05
1.61276e-05
1.61261e-05
1.61242e-05
1.61217e-05
1.61183e-05
1.6114e-05
1.611e-05
1.61065e-05
1.61028e-05
1.60984e-05
1.60931e-05
1.60873e-05
1.60808e-05
1.60749e-05
1.60729e-05
1.60788e-05
1.60789e-05
1.61162e-05
1.61248e-05
1.61199e-05
1.6122e-05
1.61212e-05
1.6112e-05
1.60847e-05
1.61572e-05
1.6394e-05
1.71977e-05
1.67848e-05
1.41683e-05
1.01051e-05
1.00005e-05
1e-05
1e-05
1e-05
1e-05
3.50873e-05
0.00188995
0.0068925
0.0283491
0.0689997
0.1257
0.189793
0.250742
0.299659
0.331338
0.342302
0.332689
0.298711
0.240157
0.165728
0.0911954
0.0356658
0.00568081
0.00172462
1e-05
1e-05
1e-05
1e-05
1.0001e-05
1.01918e-05
1.48254e-05
1.87866e-05
1.75248e-05
1.6138e-05
1.58975e-05
1.60638e-05
1.61568e-05
1.61523e-05
1.61368e-05
1.6134e-05
1.61346e-05
1.61342e-05
1.61339e-05
1.61338e-05
1.61336e-05
1.6133e-05
1.61322e-05
1.61311e-05
1.61297e-05
1.61282e-05
1.61263e-05
1.61239e-05
1.61205e-05
1.61162e-05
1.6112e-05
1.61084e-05
1.61045e-05
1.61001e-05
1.60947e-05
1.60887e-05
1.60819e-05
1.60757e-05
1.60729e-05
1.60785e-05
1.60786e-05
1.61167e-05
1.61268e-05
1.61183e-05
1.61187e-05
1.61194e-05
1.61214e-05
1.61125e-05
1.61002e-05
1.60764e-05
1.62398e-05
1.66626e-05
1.73119e-05
1.60608e-05
1.18363e-05
1.00087e-05
1e-05
1e-05
1e-05
1e-05
1e-05
3.86579e-05
0.00212466
0.00784383
0.0305803
0.0729692
0.131415
0.196563
0.257147
0.303522
0.330237
0.334429
0.315165
0.27027
0.203163
0.127164
0.0601477
0.017929
0.00492138
9.21714e-05
1e-05
1e-05
1e-05
1e-05
1e-05
1.16577e-05
1.76146e-05
1.81079e-05
1.65184e-05
1.59254e-05
1.60123e-05
1.61329e-05
1.61447e-05
1.61319e-05
1.61331e-05
1.61376e-05
1.61379e-05
1.61364e-05
1.61356e-05
1.61351e-05
1.61344e-05
1.61333e-05
1.6132e-05
1.61304e-05
1.61285e-05
1.61262e-05
1.61229e-05
1.61185e-05
1.61142e-05
1.61104e-05
1.61064e-05
1.61019e-05
1.60963e-05
1.60902e-05
1.60832e-05
1.60766e-05
1.60729e-05
1.60782e-05
1.60782e-05
1.6117e-05
1.61288e-05
1.6118e-05
1.6118e-05
1.6118e-05
1.61186e-05
1.61194e-05
1.61176e-05
1.61043e-05
1.60782e-05
1.61166e-05
1.63389e-05
1.70417e-05
1.70188e-05
1.46152e-05
1.01412e-05
1.00007e-05
1e-05
1e-05
1e-05
1e-05
1e-05
5.5229e-05
0.00264602
0.0099279
0.035448
0.0810763
0.142161
0.208069
0.266682
0.30836
0.327336
0.32224
0.291172
0.234495
0.161012
0.0876602
0.0331246
0.00467654
0.00140354
1.01705e-05
1e-05
1e-05
1e-05
1.00019e-05
1.04256e-05
1.57659e-05
1.84054e-05
1.69291e-05
1.60122e-05
1.60203e-05
1.61751e-05
1.61835e-05
1.61404e-05
1.61268e-05
1.61335e-05
1.61387e-05
1.6139e-05
1.61377e-05
1.61367e-05
1.61357e-05
1.61344e-05
1.61328e-05
1.61309e-05
1.61286e-05
1.61253e-05
1.6121e-05
1.61166e-05
1.61126e-05
1.61084e-05
1.61038e-05
1.60982e-05
1.60918e-05
1.60846e-05
1.60776e-05
1.60731e-05
1.60779e-05
1.60777e-05
1.61171e-05
1.61308e-05
1.61181e-05
1.61181e-05
1.6118e-05
1.6118e-05
1.61183e-05
1.61187e-05
1.61197e-05
1.6111e-05
1.60943e-05
1.60659e-05
1.61955e-05
1.65532e-05
1.73868e-05
1.58237e-05
1.24947e-05
1.00002e-05
1e-05
1e-05
1e-05
1e-05
1e-05
1e-05
0.000173982
0.000305335
0.012752
0.0431504
0.0935922
0.157801
0.223583
0.278063
0.312207
0.320819
0.303534
0.258866
0.191462
0.116284
0.0520278
0.0134369
0.00066298
0.000222795
1e-05
1e-05
1e-05
1.00002e-05
1.00323e-05
1.36055e-05
1.85204e-05
1.73126e-05
1.5854e-05
1.57398e-05
1.60651e-05
1.62132e-05
1.61873e-05
1.61455e-05
1.61351e-05
1.61381e-05
1.614e-05
1.61394e-05
1.61382e-05
1.61368e-05
1.61352e-05
1.61333e-05
1.6131e-05
1.61279e-05
1.61236e-05
1.61191e-05
1.61149e-05
1.61105e-05
1.61058e-05
1.61001e-05
1.60936e-05
1.60861e-05
1.60787e-05
1.60733e-05
1.60776e-05
1.60773e-05
1.61172e-05
1.61327e-05
1.61186e-05
1.61185e-05
1.61185e-05
1.61184e-05
1.61184e-05
1.61183e-05
1.6119e-05
1.61195e-05
1.61181e-05
1.61033e-05
1.60803e-05
1.6085e-05
1.63384e-05
1.69029e-05
1.72894e-05
1.4558e-05
1.07309e-05
1.00035e-05
1e-05
1e-05
1e-05
1e-05
1e-05
1.00003e-05
0.000562805
0.00177754
0.0178843
0.0545776
0.110967
0.177898
0.241538
0.288791
0.311517
0.307046
0.274174
0.215025
0.140908
0.0708084
0.0240672
0.00284526
0.000664872
1e-05
1e-05
1e-05
1e-05
1e-05
1.18109e-05
1.938e-05
1.97709e-05
1.69034e-05
1.57459e-05
1.58195e-05
1.60797e-05
1.61699e-05
1.61603e-05
1.61446e-05
1.61412e-05
1.61415e-05
1.6141e-05
1.61397e-05
1.6138e-05
1.61361e-05
1.61338e-05
1.61308e-05
1.61266e-05
1.61221e-05
1.61176e-05
1.61131e-05
1.61082e-05
1.61024e-05
1.60957e-05
1.6088e-05
1.60802e-05
1.60738e-05
1.60771e-05
1.60768e-05
1.61166e-05
1.61346e-05
1.6119e-05
1.61189e-05
1.61188e-05
1.61188e-05
1.61188e-05
1.61187e-05
1.61187e-05
1.6119e-05
1.61197e-05
1.61203e-05
1.61136e-05
1.60938e-05
1.60641e-05
1.61808e-05
1.6558e-05
1.73643e-05
1.65957e-05
1.3507e-05
1.02436e-05
1.00012e-05
1e-05
1e-05
1e-05
1e-05
1e-05
1.04289e-05
0.00144327
0.00527629
0.0273124
0.0719128
0.135302
0.205412
0.266579
0.30597
0.315579
0.294407
0.242588
0.168203
0.0904085
0.0290683
0.00874686
0.0010148
0.000433765
0.00013576
1.1482e-05
1e-05
1e-05
1e-05
1.26662e-05
1.87653e-05
1.82984e-05
1.66357e-05
1.60463e-05
1.60516e-05
1.61289e-05
1.61507e-05
1.61475e-05
1.61441e-05
1.61429e-05
1.61418e-05
1.61402e-05
1.61383e-05
1.6136e-05
1.6133e-05
1.61289e-05
1.61244e-05
1.61198e-05
1.6115e-05
1.611e-05
1.61041e-05
1.60973e-05
1.60894e-05
1.60812e-05
1.60742e-05
1.60771e-05
1.60765e-05
1.61173e-05
1.61361e-05
1.61193e-05
1.61193e-05
1.61193e-05
1.61193e-05
1.61193e-05
1.61193e-05
1.61193e-05
1.61193e-05
1.61194e-05
1.61201e-05
1.61208e-05
1.61213e-05
1.61069e-05
1.60859e-05
1.60693e-05
1.62887e-05
1.68045e-05
1.73838e-05
1.63719e-05
1.33916e-05
1.01823e-05
1.00007e-05
1e-05
1e-05
1e-05
1e-05
1e-05
3.56537e-05
0.00163467
0.00555256
0.0265322
0.0668239
0.122551
0.183665
0.237312
0.272526
0.281122
0.260597
0.212859
0.148133
0.0852431
0.0410557
0.0165344
0.00523513
0.000969698
0.000220413
1e-05
1e-05
1.00027e-05
1.05651e-05
1.40508e-05
1.63953e-05
1.65031e-05
1.62319e-05
1.61384e-05
1.61399e-05
1.61485e-05
1.61495e-05
1.61482e-05
1.61468e-05
1.61452e-05
1.61433e-05
1.6141e-05
1.61381e-05
1.61342e-05
1.61297e-05
1.6125e-05
1.61198e-05
1.61144e-05
1.61083e-05
1.61013e-05
1.60928e-05
1.60843e-05
1.60756e-05
1.6077e-05
1.60757e-05
1.61146e-05
1.61396e-05
)
;

boundaryField
{
    inlet
    {
        type            calculated;
        value           nonuniform List<scalar> 
27
(
1.6102e-05
1.61024e-05
1.61028e-05
1.61033e-05
1.61039e-05
1.61046e-05
1.61054e-05
1.61063e-05
1.61073e-05
1.61084e-05
1.61096e-05
1.61109e-05
1.61123e-05
1.61138e-05
1.61154e-05
1.61171e-05
1.61189e-05
1.61207e-05
1.61228e-05
1.61248e-05
1.61268e-05
1.61288e-05
1.61308e-05
1.61327e-05
1.61346e-05
1.61361e-05
1.61396e-05
)
;
    }
    outlet
    {
        type            calculated;
        value           nonuniform List<scalar> 
78
(
1.61193e-05
1.61193e-05
1.61193e-05
1.61193e-05
1.61193e-05
1.61193e-05
1.61193e-05
1.61193e-05
1.61194e-05
1.61201e-05
1.61208e-05
1.61213e-05
1.61069e-05
1.60859e-05
1.60693e-05
1.62887e-05
1.68045e-05
1.73838e-05
1.63719e-05
1.33916e-05
1.01823e-05
1.00007e-05
1e-05
1e-05
1e-05
1e-05
1e-05
3.56537e-05
0.00163467
0.00555256
0.0265322
0.0668239
0.122551
0.183665
0.237312
0.272526
0.281122
0.260597
0.212859
0.148133
0.0852431
0.0410557
0.0165344
0.00523513
0.000969698
0.000220413
1e-05
1e-05
1.00027e-05
1.05651e-05
1.40508e-05
1.63953e-05
1.65031e-05
1.62319e-05
1.61384e-05
1.61399e-05
1.61485e-05
1.61495e-05
1.61482e-05
1.61468e-05
1.61452e-05
1.61433e-05
1.6141e-05
1.61381e-05
1.61342e-05
1.61297e-05
1.6125e-05
1.61198e-05
1.61144e-05
1.61083e-05
1.61013e-05
1.60928e-05
1.60843e-05
1.60756e-05
1.6077e-05
1.60757e-05
1.61146e-05
1.61396e-05
)
;
    }
    walls
    {
        type            calculated;
        value           nonuniform List<scalar> 0();
    }
    frontAndBack
    {
        type            empty;
    }
    procBoundary7to3
    {
        type            processor;
        value           nonuniform List<scalar> 
16
(
1.52266e-05
1.80275e-05
1.62893e-05
1.60085e-05
1.61239e-05
1.61406e-05
1.61268e-05
1.61216e-05
1.61194e-05
1.61194e-05
1.61184e-05
1.61181e-05
1.61183e-05
1.61187e-05
1.61191e-05
1.61194e-05
)
;
    }
    procBoundary7to6
    {
        type            processor;
        value           nonuniform List<scalar> 
91
(
1.61018e-05
1.61022e-05
1.61022e-05
1.60834e-05
1.60834e-05
1.60815e-05
1.60815e-05
1.60724e-05
1.60746e-05
1.60746e-05
1.6077e-05
1.60729e-05
1.60729e-05
1.60897e-05
1.60859e-05
1.60817e-05
1.60817e-05
1.60989e-05
1.60961e-05
1.60935e-05
1.60935e-05
1.61113e-05
1.61092e-05
1.61064e-05
1.61031e-05
1.61031e-05
1.61177e-05
1.6117e-05
1.6116e-05
1.6115e-05
1.61137e-05
1.61137e-05
1.61202e-05
1.61202e-05
1.61202e-05
1.61201e-05
1.61199e-05
1.61196e-05
1.61192e-05
1.61192e-05
1.61232e-05
1.61226e-05
1.61221e-05
1.61217e-05
1.61215e-05
1.61213e-05
1.61212e-05
1.61211e-05
1.61211e-05
1.61211e-05
1.61211e-05
1.61211e-05
1.61211e-05
1e-05
1e-05
1e-05
0.00115364
0.00446654
0.0279323
0.0747458
0.13513
0.19677
0.251984
0.297133
0.330756
0.353004
0.365702
0.371441
0.371147
0.357246
0.321332
0.25847
0.17293
0.0850791
0.023939
0.00207953
0.000527125
1e-05
1e-05
1e-05
1.00047e-05
1.11422e-05
1.70236e-05
1.76035e-05
1.62851e-05
1.59687e-05
1.60899e-05
1.61472e-05
1.61336e-05
1.61225e-05
1.61225e-05
)
;
    }
}


// ************************************************************************* //
