/*--------------------------------*- C++ -*----------------------------------*\
| =========                 |                                                 |
| \\      /  F ield         | OpenFOAM: The Open Source CFD Toolbox           |
|  \\    /   O peration     | Version:  2306                                  |
|   \\  /    A nd           | Website:  www.openfoam.com                      |
|    \\/     M anipulation  |                                                 |
\*---------------------------------------------------------------------------*/
FoamFile
{
    version     2.0;
    format      ascii;
    arch        "LSB;label=32;scalar=64";
    class       volScalarField;
    location    "275";
    object      turbulenceProperties:L;
}
// * * * * * * * * * * * * * * * * * * * * * * * * * * * * * * * * * * * * * //

dimensions      [0 1 0 0 0 0 0];

internalField   nonuniform List<scalar> 
1340
(
0.22274
0.255507
0.221133
0.25945
0.25958
0.221167
0.401604
0.261132
0.262388
0.220714
0.424912
0.313591
0.403494
0.2625
0.264853
0.219974
0.356191
0.328616
0.431445
0.316519
0.405479
0.263754
0.266899
0.219229
0.299931
0.320125
0.320117
0.36355
0.333296
0.438637
0.319459
0.407436
0.264845
0.2684
0.218539
0.279055
0.288071
0.300239
0.306693
0.327549
0.326243
0.371508
0.338232
0.446452
0.32234
0.409375
0.265742
0.269361
0.217915
0.247728
0.256618
0.266107
0.276161
0.287176
0.295913
0.308247
0.314037
0.335591
0.332837
0.380089
0.343423
0.454904
0.325181
0.411283
0.266487
0.269895
0.217264
0.220249
0.226885
0.233906
0.241321
0.249146
0.257403
0.266101
0.275399
0.285198
0.296087
0.304498
0.317004
0.322048
0.344339
0.339956
0.389376
0.348909
0.464049
0.328034
0.413123
0.267131
0.270088
0.216691
0.195643
0.199852
0.204361
0.209182
0.214322
0.219791
0.225596
0.231746
0.238252
0.245126
0.252384
0.260037
0.268108
0.276583
0.285658
0.295156
0.305884
0.313908
0.326593
0.330791
0.353864
0.347648
0.399426
0.354716
0.473912
0.330925
0.4149
0.267697
0.269837
0.216131
0.178347
0.17984
0.181471
0.18326
0.185224
0.18738
0.189742
0.192325
0.195142
0.198203
0.20152
0.205106
0.208968
0.213118
0.217561
0.22231
0.227368
0.232744
0.238443
0.244471
0.250837
0.257552
0.264633
0.272088
0.279946
0.288162
0.296977
0.306117
0.316639
0.324206
0.337071
0.340316
0.364211
0.355939
0.410279
0.360853
0.484478
0.333847
0.416655
0.268194
0.269352
0.215582
4.30138
3.16868
0
0
0.0787136
0.140685
0.702849
0.67451
0.70027
0.735971
0.78209
0.845848
0.9439
1.12016
1.54485
4.86752
1.58915
1.16982
1.00393
0.913704
0.849505
0.785833
0.70873
0.39912
0.326458
0
0
0
2.73055
0.385012
0.180804
0.173512
0.183806
0.189313
0.189935
0.190572
0.191933
0.193422
0.194909
0.196502
0.198253
0.200174
0.202284
0.204603
0.207147
0.209929
0.212956
0.216239
0.21979
0.223616
0.227723
0.232117
0.236807
0.241794
0.247083
0.252677
0.258578
0.264791
0.271329
0.27821
0.285436
0.293043
0.300954
0.309462
0.318177
0.328436
0.33546
0.348505
0.350672
0.375437
0.364865
0.421955
0.36735
0.495742
0.336859
0.418326
0.268653
0.268601
0.215043
0.236683
2.71004
6.50734
0
0
4.13531
0.326172
1.02216
0.707649
0.722048
0.756587
0.80166
0.862477
0.952822
1.10719
1.4419
2.99604
1.91903
1.29332
1.07892
0.968565
0.894715
0.828213
0.738753
0.475151
0.453717
0
0
0
5.11942
0.767362
0.206504
0.186812
0.197925
0.206561
0.208008
0.208441
0.209768
0.211349
0.212902
0.214574
0.216458
0.218549
0.220844
0.223363
0.226126
0.229139
0.23241
0.235949
0.23976
0.243847
0.248211
0.252858
0.257786
0.262995
0.268483
0.27425
0.280296
0.286632
0.293278
0.300232
0.307544
0.315089
0.323233
0.331436
0.341364
0.347744
0.360962
0.361912
0.387582
0.374444
0.434497
0.374219
0.507761
0.339933
0.420073
0.269098
0.267841
0.214475
0.235093
0.252751
1.12672
7.56958
0
0
0
0.171076
0.472022
0.756363
0.741683
0.774405
0.818977
0.877605
0.961653
1.09879
1.3728
2.27229
2.48356
1.44607
1.16394
1.02855
0.943583
0.872239
0.779577
0.582102
0.672485
0
0
0
7.09357
4.47758
0.261531
0.206201
0.213905
0.224889
0.227343
0.227434
0.228778
0.230744
0.232593
0.234406
0.236421
0.238703
0.241233
0.244007
0.247033
0.25032
0.253876
0.257701
0.261794
0.266153
0.270776
0.275657
0.280792
0.286172
0.291791
0.297642
0.303742
0.310104
0.316726
0.32368
0.330777
0.338475
0.346072
0.355566
0.361183
0.374549
0.374132
0.400723
0.384758
0.447936
0.38147
0.520517
0.343225
0.421949
0.269422
0.267054
0.21388
0.262842
0.252883
0.264471
0.593181
4.66932
0
0
0
0.199292
0.412914
0.989831
0.770277
0.791549
0.834498
0.891253
0.970245
1.09388
1.32522
1.94835
3.75857
1.63403
1.25733
1.09165
0.993668
0.915657
0.822902
0.669563
0.847362
0
0
0
0.0115638
2.15388
0.321748
0.229134
0.23135
0.245933
0.251003
0.249812
0.249687
0.251436
0.253731
0.255954
0.25823
0.260747
0.263562
0.266655
0.270008
0.273628
0.277512
0.281655
0.286044
0.290675
0.295534
0.300604
0.305873
0.311326
0.316956
0.322766
0.328779
0.334995
0.3415
0.348053
0.355198
0.362063
0.371025
0.375717
0.389223
0.387244
0.414855
0.395666
0.462398
0.388993
0.535044
0.346386
0.424591
0.269757
0.266148
0.213067
0.279314
0.281471
0.269095
0.279905
0.40853
3.14044
0.0010608
0
0
0
0.235089
0.786349
0.822899
0.811082
0.849947
0.904613
0.978809
1.08995
1.28452
1.73415
4.92673
1.92758
1.37706
1.16417
1.04581
0.95624
0.85625
0.687049
1.25555
0.141174
0
0
0
3.03497
0.465884
0.259915
0.244191
0.257086
0.271757
0.276169
0.275746
0.276249
0.278315
0.280969
0.283692
0.286549
0.289668
0.29309
0.29679
0.300733
0.304931
0.30935
0.313977
0.318792
0.323761
0.328872
0.334089
0.33942
0.344838
0.350382
0.356061
0.361966
0.367819
0.374266
0.380192
0.388468
0.392035
0.405572
0.401866
0.430329
0.407819
0.477592
0.397485
0.548618
0.3502
0.426547
0.270313
0.265333
0.212561
0.295937
0.301506
0.300676
0.297469
0.302674
0.341424
1.0144
6.86317
2.17998e-05
0
0
0.145454
0.474566
1.08083
0.844713
0.862355
0.910766
0.977479
1.0715
1.21987
1.50096
2.30309
3.43669
1.73167
1.3512
1.174
1.0624
0.966295
0.880713
0.671621
0.682036
0.183559
0
0
0.689421
3.98792
0.707579
0.322257
0.28412
0.291054
0.305142
0.311437
0.311927
0.3126
0.314894
0.317988
0.321248
0.324672
0.328354
0.332299
0.336501
0.340886
0.345423
0.350074
0.354816
0.359602
0.364381
0.369158
0.373893
0.378649
0.383416
0.388336
0.393065
0.398389
0.402949
0.410007
0.412157
0.425219
0.419754
0.448043
0.422947
0.492952
0.409331
0.559625
0.358675
0.436941
0.276597
0.272223
0.220546
0.319509
0.32391
0.325612
0.328183
0.329973
0.323345
0.339296
0.419811
5.27953
1.37689
0
0
0
0.0929237
0.459735
1.13071
0.871569
0.896487
0.953209
1.03048
1.13975
1.31496
1.65837
2.77023
3.03043
1.75199
1.39935
1.22323
1.1077
1.00839
0.911663
0.578147
0.460333
0
0
0
0.15806
4.3682
0.705847
0.360332
0.32581
0.337072
0.353257
0.35909
0.359511
0.360992
0.364205
0.368006
0.37187
0.375886
0.380121
0.384484
0.388929
0.39334
0.39768
0.401874
0.405846
0.409602
0.413069
0.416378
0.419498
0.422671
0.42548
0.428898
0.431311
0.436474
0.436467
0.448736
0.440689
0.468978
0.439639
0.511556
0.420455
0.572221
0.363483
0.436347
0.277176
0.269131
0.21963
0.348057
0.352265
0.353206
0.355764
0.360357
0.362028
0.357989
0.353042
0.387498
0.70604
5.31471
0.000213804
0
0
0
0.0885316
0.413835
1.18748
0.889486
0.924393
0.99211
1.08343
1.21437
1.43011
1.87913
3.82834
2.6282
1.73262
1.42295
1.25527
1.1374
1.02602
0.879516
1.94549
0.177025
0
0
0
0.629246
1.94698
0.60091
0.398539
0.384159
0.402821
0.416911
0.41974
0.420652
0.42378
0.428198
0.432782
0.437258
0.441687
0.446034
0.450061
0.453693
0.456804
0.459299
0.461173
0.462402
0.463184
0.463526
0.463843
0.463669
0.464242
0.463618
0.466242
0.463378
0.474531
0.463243
0.491595
0.456981
0.531778
0.431149
0.588071
0.367368
0.437785
0.276939
0.266927
0.21884
0.387136
0.384955
0.388137
0.3921
0.396097
0.398504
0.39726
0.38754
0.395362
0.466662
1.81175
6.04884
0
0
0
0
0.0884391
0.4202
1.16962
0.904594
0.954149
1.03645
1.14723
1.30925
1.5859
2.22317
8.96631
2.3413
1.69986
1.43251
1.27308
1.14476
1.01772
0.787298
0.853272
0
0
0
4.48042e-05
7.034
1.41826
0.527341
0.456645
0.465945
0.488775
0.498014
0.499779
0.502772
0.507695
0.512768
0.517309
0.521246
0.524263
0.526253
0.527036
0.526528
0.524806
0.521985
0.518468
0.514341
0.510303
0.505837
0.502546
0.498054
0.497578
0.491413
0.501071
0.486273
0.514388
0.474319
0.551706
0.441382
0.603419
0.370621
0.43983
0.276349
0.265768
0.218126
0.428574
0.424957
0.427848
0.431066
0.433864
0.437027
0.440108
0.44031
0.434719
0.425364
0.449485
0.671674
4.85035
0.000222015
0
0
0
0
0.0885655
0.472668
1.09253
0.924675
0.992257
1.09291
1.22887
1.43337
1.80371
2.83153
4.23804
2.13618
1.66125
1.42807
1.27207
1.13152
0.982902
1.75268
0.175429
0
0
0
0.0754065
0.0407847
0.865537
0.586908
0.569517
0.594249
0.612543
0.61688
0.61948
0.623747
0.627643
0.629683
0.629318
0.626564
0.621365
0.613837
0.604523
0.593883
0.582777
0.571456
0.560882
0.550457
0.542122
0.532986
0.528928
0.519265
0.526979
0.5087
0.536005
0.490908
0.569634
0.450835
0.615599
0.373351
0.441947
0.275474
0.265603
0.217306
0.476962
0.472732
0.475972
0.47913
0.481574
0.484213
0.486303
0.489704
0.492172
0.490045
0.477191
0.477005
0.542279
1.88094
5.68849
2.12906e-06
0
0
0
0
0.0905585
0.589
1.02053
0.956504
1.04428
1.16689
1.33543
1.60061
2.13288
4.41515
3.0043
1.98004
1.61615
1.40886
1.24931
1.09184
0.81975
0.741852
0.679094
0
0
1.00894e-06
6.51167
1.67899
0.819828
0.745709
0.769666
0.805758
0.818918
0.819848
0.817389
0.810442
0.79674
0.777093
0.753606
0.728132
0.702218
0.676931
0.653284
0.631452
0.612177
0.59448
0.580388
0.566399
0.558752
0.545953
0.551611
0.530188
0.556299
0.506806
0.586136
0.459794
0.626416
0.375745
0.444689
0.274541
0.266775
0.216282
0.522287
0.518059
0.520562
0.523805
0.526618
0.528746
0.530232
0.532774
0.535684
0.539374
0.539032
0.532844
0.516766
0.547586
0.715568
3.06117
0.144308
0
0
0
0
0
0.124656
0.24846
0.954114
0.998153
1.11238
1.26319
1.47709
1.83805
2.70894
6.98839
2.48067
1.85648
1.56702
1.3774
1.20846
1.0196
4.40337
0.252388
0
0
0
1.44569
4.92917
2.00589
1.58475
1.42858
1.42505
1.40068
1.30114
1.18207
1.07642
0.986524
0.910408
0.846544
0.793192
0.748247
0.710443
0.678122
0.650958
0.62708
0.608268
0.590721
0.580311
0.565629
0.569149
0.546007
0.569593
0.518388
0.594578
0.466099
0.628396
0.377064
0.448052
0.273392
0.27053
0.214184
0.581341
0.57491
0.57777
0.581676
0.584972
0.586107
0.586447
0.590247
0.59161
0.593387
0.597179
0.599616
0.594272
0.582452
0.573475
0.646905
1.17666
6.26744
0.000621902
0
0
0
0
4.30413
0.234557
1.10373
0.946883
1.05629
1.20148
1.39013
1.67301
2.21324
4.2394
3.40793
2.1614
1.74194
1.50434
1.3216
1.17553
1.20029
0.419269
0
0
0
0.018726
0.0194188
2.57154
1.18851
1.32308
1.51314
1.41577
1.23643
1.09622
0.996133
0.920049
0.858071
0.806536
0.763102
0.726618
0.695308
0.668749
0.645195
0.626354
0.609028
0.598805
0.584893
0.588394
0.564762
0.588067
0.534287
0.613485
0.476235
0.648779
0.380606
0.456995
0.273584
0.27787
0.210862
0.583616
0.579979
0.581248
0.584681
0.587881
0.590138
0.591633
0.595124
0.597564
0.600381
0.604772
0.60878
0.611943
0.613447
0.609793
0.59802
0.616872
0.730636
1.70749
6.81003
0.00085038
0
0
0
0
0.289928
0.427603
1.08602
1.00263
1.1404
1.31418
1.54975
1.93294
2.8219
7.17481
2.64192
1.94682
1.60996
1.36291
1.06219
1.11647
0.542081
0.29508
0.2217
0.59734
9.04897e-07
0.0236155
0.00223632
1.03007
0.747271
0.775606
0.820815
0.825207
0.802275
0.774406
0.747586
0.721966
0.697564
0.674927
0.654114
0.635296
0.617811
0.603085
0.589483
0.581271
0.570388
0.572582
0.553265
0.571128
0.525806
0.591642
0.470882
0.628538
0.377028
0.469189
0.271062
0.291684
0.200401
0.663644
0.660972
0.657093
0.654788
0.653433
0.652208
0.650142
0.6477
0.645676
0.644452
0.643282
0.641333
0.639492
0.637707
0.636182
0.629664
0.61893
0.610972
0.633022
0.727317
1.75658
6.94783
0
0
0
0
0
0.109731
0.525442
0.989967
1.05314
1.21449
1.41322
1.68815
2.15095
3.31031
6.37288
2.80615
2.14444
1.82625
1.63161
1.55598
1.72214
3.97127
0.790416
0.438312
0
2.29008e-07
5.87443
1.45119
0.760831
0.677516
0.67623
0.681116
0.678958
0.672883
0.665822
0.658502
0.651102
0.643773
0.636683
0.629411
0.623055
0.616538
0.61482
0.610944
0.619824
0.602767
0.629319
0.575292
0.671812
0.509345
0.767984
0.399153
0.515659
0.284177
0.29199
0.201691
)
;

boundaryField
{
    inlet
    {
        type            calculated;
        value           nonuniform List<scalar> 
27
(
0.0873732
0.0873155
0.0872097
0.08707
0.0869222
0.08677
0.0866091
0.0864409
0.0862663
0.0860918
0.0859182
0.0857487
0.0855866
0.0854357
0.0852998
0.0851829
0.0850834
0.0852871
0.0852606
0.085272
0.0853426
0.0854798
0.0857031
0.0860241
0.0864917
0.0869648
0.087947
)
;
    }
    outlet
    {
        type            calculated;
        value           nonuniform List<scalar> 
78
(
0.753126
0.747597
0.740359
0.735659
0.732555
0.729668
0.725302
0.720329
0.716105
0.713233
0.710451
0.706435
0.70243
0.698535
0.695127
0.686511
0.673793
0.664944
0.688664
0.787676
1.86689
6.78477
0
0
0
0
0
0.109477
0.525893
1.02154
1.05798
1.21669
1.41409
1.68756
2.14732
3.2929
6.59183
2.82064
2.15004
1.82873
1.63198
1.55366
1.71126
4.88181
0.809906
0.449973
0
1.85184e-07
5.4877
1.54083
0.804096
0.715213
0.714239
0.720462
0.719882
0.715744
0.711026
0.706343
0.701789
0.697357
0.693192
0.688429
0.684759
0.679846
0.682077
0.678428
0.69694
0.667653
0.720362
0.623886
0.8205
0.532002
1.48001
0.406845
0.544906
0.289074
0.291637
0.207305
)
;
    }
    walls
    {
        type            calculated;
        value           nonuniform List<scalar> 0();
    }
    frontAndBack
    {
        type            empty;
    }
    procBoundary7to3
    {
        type            processor;
        value           nonuniform List<scalar> 
16
(
0.203667
0.197047
0.224012
0.241446
0.255724
0.275164
0.301641
0.331593
0.383657
0.383657
0.424831
0.472282
0.517009
0.577025
0.577085
0.671931
)
;
    }
    procBoundary7to6
    {
        type            processor;
        value           nonuniform List<scalar> 
91
(
0.223009
0.251382
0.251382
0.256915
0.256915
0.400002
0.400002
0.419059
0.310739
0.310739
0.349499
0.324251
0.324251
0.293722
0.313289
0.31444
0.31444
0.271616
0.280872
0.292881
0.292881
0.238961
0.24802
0.257673
0.267944
0.267944
0.209858
0.216619
0.223772
0.231329
0.239308
0.239308
0.183495
0.18778
0.192367
0.197271
0.202501
0.208067
0.21398
0.21398
0.164394
0.165932
0.167613
0.169453
0.171471
0.17368
0.176096
0.178733
0.181603
0.184715
0.188085
0.191725
0.191725
0.000162792
0
11.232
0.232232
0.946259
0.646188
0.650279
0.677435
0.71328
0.760548
0.827739
0.934788
1.13839
1.70376
2.84509
1.36561
1.06669
0.936425
0.862547
0.80646
0.743277
0.642953
0.514518
0.354673
0
0
0
1.88296
0.267018
0.160781
0.159744
0.168718
0.172566
0.173225
0.17417
0.175554
0.176952
0.176952
)
;
    }
}


// ************************************************************************* //
