/*--------------------------------*- C++ -*----------------------------------*\
| =========                 |                                                 |
| \\      /  F ield         | OpenFOAM: The Open Source CFD Toolbox           |
|  \\    /   O peration     | Version:  2306                                  |
|   \\  /    A nd           | Website:  www.openfoam.com                      |
|    \\/     M anipulation  |                                                 |
\*---------------------------------------------------------------------------*/
FoamFile
{
    version     2.0;
    format      ascii;
    arch        "LSB;label=32;scalar=64";
    class       volSymmTensorField;
    location    "275";
    object      turbulenceProperties:R;
}
// * * * * * * * * * * * * * * * * * * * * * * * * * * * * * * * * * * * * * //

dimensions      [0 2 -2 0 0 0 0];

internalField   nonuniform List<symmTensor> 
1340
(
(6.84258e-07 1.49611e-08 -2.47286e-20 5.44606e-07 -2.53533e-21 6.5146e-07)
(4.35725e-07 -1.1875e-08 -2.43799e-20 5.37875e-07 -3.07023e-21 4.5537e-07)
(6.94911e-07 1.65079e-08 1.28613e-20 5.52634e-07 1.27811e-21 6.60214e-07)
(5.00591e-07 2.46064e-08 1.30638e-19 4.0604e-07 1.44876e-20 4.79072e-07)
(4.26375e-07 -1.28105e-08 3.23783e-23 5.19485e-07 -1.1343e-22 4.3862e-07)
(6.90011e-07 1.96207e-08 -2.88096e-22 5.54239e-07 6.80545e-23 6.62916e-07)
(1.86621e-07 1.07831e-08 -6.64118e-20 2.11256e-07 -7.87029e-21 1.80442e-07)
(4.93677e-07 2.30035e-08 2.1335e-21 4.00464e-07 4.45322e-22 4.73774e-07)
(4.19816e-07 -1.32613e-08 2.91338e-20 5.07306e-07 3.60179e-21 4.27898e-07)
(6.9062e-07 2.1161e-08 -5.84352e-20 5.57496e-07 -6.00565e-21 6.66889e-07)
(1.83484e-07 1.85518e-08 -1.584e-19 1.6646e-07 -1.83389e-20 1.66637e-07)
(3.43139e-07 2.24619e-08 -8.67223e-20 2.80724e-07 -9.60513e-21 3.24614e-07)
(1.85552e-07 1.0662e-08 2.93127e-20 2.0885e-07 3.45171e-21 1.7851e-07)
(4.88936e-07 2.1101e-08 -4.32636e-20 3.95621e-07 -4.80817e-21 4.6914e-07)
(4.13173e-07 -1.3206e-08 -1.22764e-19 4.9739e-07 -1.51857e-20 4.19354e-07)
(6.94962e-07 2.1831e-08 5.6101e-20 5.61475e-07 5.6371e-21 6.71498e-07)
(2.67529e-07 2.27747e-08 2.3425e-20 2.24873e-07 2.69532e-21 2.42773e-07)
(3.14056e-07 2.34129e-08 -6.2609e-21 2.58143e-07 -7.43408e-22 2.91518e-07)
(1.78529e-07 1.76112e-08 6.09757e-22 1.61148e-07 -1.11762e-22 1.61375e-07)
(3.37582e-07 2.05947e-08 2.90557e-22 2.7458e-07 -4.38153e-23 3.18848e-07)
(1.84339e-07 1.05257e-08 2.06227e-20 2.06422e-07 2.47952e-21 1.76555e-07)
(4.84618e-07 1.92497e-08 -2.1856e-21 3.91258e-07 -3.39703e-22 4.64975e-07)
(4.08008e-07 -1.3147e-08 7.40353e-23 4.89259e-07 -6.37204e-24 4.12339e-07)
(6.99267e-07 2.24329e-08 -2.13222e-22 5.65533e-07 5.06808e-23 6.76261e-07)
(3.81642e-07 2.54905e-08 -5.27833e-20 3.09148e-07 -6.13002e-21 3.46148e-07)
(3.34376e-07 2.40442e-08 -6.72802e-20 2.73294e-07 -7.64854e-21 3.02546e-07)
(3.33397e-07 2.3774e-08 -8.42351e-20 2.72016e-07 -9.39318e-21 3.04828e-07)
(2.57599e-07 2.11296e-08 -3.42238e-20 2.15202e-07 -3.7167e-21 2.32913e-07)
(3.06122e-07 2.15678e-08 3.8016e-21 2.49953e-07 5.58739e-22 2.83558e-07)
(1.73259e-07 1.66435e-08 6.4425e-20 1.55616e-07 7.41596e-21 1.55881e-07)
(3.32013e-07 1.87878e-08 1.33633e-20 2.68686e-07 1.40398e-21 3.13254e-07)
(1.83212e-07 1.02959e-08 -4.62352e-20 2.04047e-07 -5.40642e-21 1.7462e-07)
(4.80709e-07 1.75737e-08 4.15025e-20 3.87583e-07 4.57055e-21 4.61528e-07)
(4.04815e-07 -1.32199e-08 6.88405e-23 4.83137e-07 -4.29007e-23 4.07058e-07)
(7.02865e-07 2.29906e-08 1.05489e-22 5.69478e-07 -2.34774e-23 6.81005e-07)
(4.45174e-07 2.29222e-08 -1.24855e-20 3.53523e-07 -1.19464e-21 3.99262e-07)
(4.16609e-07 2.3377e-08 6.20202e-20 3.32606e-07 6.83062e-21 3.74905e-07)
(3.82802e-07 2.31616e-08 7.20824e-21 3.07418e-07 7.14868e-22 3.44615e-07)
(3.65916e-07 2.29803e-08 4.15259e-20 2.94697e-07 4.57258e-21 3.31108e-07)
(3.20265e-07 2.18449e-08 1.68601e-22 2.60226e-07 -1.27481e-22 2.88933e-07)
(3.21843e-07 2.16684e-08 3.6494e-22 2.60949e-07 -2.38763e-23 2.93585e-07)
(2.47437e-07 1.94844e-08 2.86801e-20 2.05459e-07 3.2181e-21 2.22908e-07)
(2.98005e-07 1.97393e-08 -3.6217e-21 2.41792e-07 -4.47419e-22 2.75507e-07)
(1.67779e-07 1.56385e-08 -2.99617e-22 1.49939e-07 7.71193e-23 1.50215e-07)
(3.26633e-07 1.70365e-08 -6.12604e-23 2.63132e-07 2.05983e-23 3.07923e-07)
(1.82103e-07 9.97981e-09 1.3282e-22 2.01748e-07 -2.59347e-23 1.72717e-07)
(4.77464e-07 1.60176e-08 -2.25834e-22 3.84601e-07 5.97941e-23 4.58796e-07)
(4.03226e-07 -1.3363e-08 1.06023e-19 4.7903e-07 1.3233e-20 4.03539e-07)
(7.06075e-07 2.33293e-08 2.84673e-20 5.73073e-07 2.89298e-21 6.85416e-07)
(5.70574e-07 1.2706e-08 -3.4382e-20 4.42906e-07 -3.54607e-21 5.06736e-07)
(5.30877e-07 1.54188e-08 2.54414e-20 4.13576e-07 2.82932e-21 4.72228e-07)
(4.92772e-07 1.74225e-08 1.28417e-20 3.85525e-07 1.27574e-21 4.39136e-07)
(4.56586e-07 1.87754e-08 -4.76745e-21 3.58879e-07 -5.6464e-22 4.07759e-07)
(4.21244e-07 1.97832e-08 6.90239e-23 3.32933e-07 -8.17895e-24 3.7699e-07)
(3.95705e-07 2.04758e-08 -2.34533e-22 3.14312e-07 4.40415e-23 3.55313e-07)
(3.64043e-07 2.05195e-08 -2.64188e-23 2.90813e-07 -1.07267e-22 3.26911e-07)
(3.49835e-07 2.05361e-08 -4.52602e-20 2.802e-07 -5.00775e-21 3.15842e-07)
(3.05913e-07 1.96911e-08 -2.16134e-20 2.47157e-07 -2.2579e-21 2.75186e-07)
(3.10002e-07 1.95934e-08 2.70613e-20 2.49844e-07 3.04621e-21 2.82154e-07)
(2.37116e-07 1.78455e-08 -2.7301e-20 1.95706e-07 -3.12552e-21 2.12816e-07)
(2.89757e-07 1.79318e-08 1.09621e-23 2.33691e-07 -2.80355e-23 2.67396e-07)
(1.62119e-07 1.46054e-08 -5.82645e-20 1.44166e-07 -6.71998e-21 1.44418e-07)
(3.21418e-07 1.53313e-08 -1.20739e-20 2.57863e-07 -1.27532e-21 3.02789e-07)
(1.80974e-07 9.60122e-09 2.39234e-20 1.99563e-07 2.80149e-21 1.70877e-07)
(4.74783e-07 1.45283e-08 -3.76322e-20 3.8213e-07 -4.15396e-21 4.56572e-07)
(4.02753e-07 -1.35275e-08 -8.94921e-20 4.76535e-07 -1.11233e-20 4.01425e-07)
(7.09659e-07 2.3416e-08 -3.63861e-20 5.76732e-07 -3.61527e-21 6.89979e-07)
(7.22165e-07 -1.46929e-08 -3.2065e-20 5.60037e-07 -3.24868e-21 6.41087e-07)
(6.81275e-07 -8.77548e-09 -4.83516e-21 5.27009e-07 -3.67385e-22 6.04127e-07)
(6.41372e-07 -3.44529e-09 -5.0145e-21 4.95464e-07 -5.06455e-22 5.68403e-07)
(6.02617e-07 1.29745e-09 -7.78375e-21 4.65423e-07 -7.53935e-22 5.34006e-07)
(5.65125e-07 5.448e-09 -1.52619e-21 4.36867e-07 -5.54441e-23 5.00983e-07)
(5.28984e-07 8.97471e-09 2.1751e-20 4.09749e-07 2.32897e-21 4.69352e-07)
(4.9432e-07 1.18492e-08 2.50303e-20 3.84032e-07 2.61424e-21 4.3917e-07)
(4.60757e-07 1.40535e-08 -5.1887e-23 3.59286e-07 -3.39771e-23 4.09997e-07)
(4.28827e-07 1.56295e-08 1.08115e-20 3.35785e-07 1.18994e-21 3.8233e-07)
(3.97025e-07 1.68521e-08 6.95796e-21 3.12456e-07 7.24961e-22 3.54627e-07)
(3.74471e-07 1.77346e-08 -1.61102e-23 2.96066e-07 -2.48102e-23 3.35576e-07)
(3.44973e-07 1.80044e-08 -1.7358e-24 2.74236e-07 8.52849e-24 3.09067e-07)
(3.33384e-07 1.81893e-08 2.6676e-22 2.65661e-07 -2.15519e-24 3.00363e-07)
(2.91301e-07 1.76091e-08 2.07538e-20 2.34092e-07 2.22784e-21 2.61314e-07)
(2.97858e-07 1.75732e-08 -2.57838e-20 2.38703e-07 -2.88305e-21 2.70542e-07)
(2.26615e-07 1.62321e-08 2.59884e-20 1.85949e-07 2.96354e-21 2.02641e-07)
(2.81336e-07 1.61609e-08 8.65602e-25 2.25632e-07 3.07999e-23 2.59202e-07)
(1.5628e-07 1.35587e-08 5.5668e-20 1.3832e-07 6.36403e-21 1.38512e-07)
(3.1625e-07 1.36758e-08 1.16386e-20 2.52788e-07 1.18979e-21 2.97752e-07)
(1.79844e-07 9.17337e-09 -2.27619e-20 1.97534e-07 -2.69915e-21 1.69135e-07)
(4.72461e-07 1.30966e-08 9.34268e-23 3.80011e-07 2.51841e-23 4.54679e-07)
(4.03154e-07 -1.37146e-08 1.52249e-19 4.75315e-07 1.88666e-20 4.0042e-07)
(7.12888e-07 2.32658e-08 1.56796e-22 5.79909e-07 -6.5034e-23 6.94038e-07)
(8.93746e-07 -6.56192e-08 -7.05034e-21 7.31261e-07 -6.92413e-22 8.12523e-07)
(8.60175e-07 -5.80335e-08 -1.60974e-20 6.97104e-07 -1.48182e-21 7.78653e-07)
(8.25938e-07 -5.05526e-08 7.45344e-21 6.63391e-07 7.22793e-22 7.44673e-07)
(7.91202e-07 -4.32438e-08 -1.40473e-20 6.30268e-07 -1.41751e-21 7.10738e-07)
(7.56198e-07 -3.61764e-08 -4.69521e-21 5.97909e-07 -3.40848e-22 6.77052e-07)
(7.21117e-07 -2.94132e-08 1.72356e-20 5.66442e-07 1.73308e-21 6.43775e-07)
(6.86161e-07 -2.30115e-08 1.79536e-21 5.35984e-07 1.22853e-22 6.11065e-07)
(6.51513e-07 -1.70206e-08 1.72497e-22 5.06621e-07 -6.87772e-23 5.79057e-07)
(6.17339e-07 -1.14784e-08 -5.31125e-21 4.78411e-07 -5.6533e-22 5.47864e-07)
(5.8377e-07 -6.4103e-09 -3.90037e-21 4.51376e-07 -3.8436e-22 5.17561e-07)
(5.50934e-07 -1.83114e-09 4.46197e-23 4.25526e-07 4.36882e-24 4.88218e-07)
(5.18957e-07 2.24712e-09 5.45829e-24 4.00869e-07 -6.04151e-24 4.59902e-07)
(4.8791e-07 5.78005e-09 -1.26772e-22 3.77362e-07 1.12589e-23 4.32622e-07)
(4.57998e-07 8.72794e-09 -4.02189e-21 3.55042e-07 -3.81867e-22 4.06517e-07)
(4.28772e-07 1.10543e-08 3.47007e-23 3.33429e-07 -2.03526e-23 3.81074e-07)
(4.00949e-07 1.2783e-08 -1.03685e-20 3.12939e-07 -1.11165e-21 3.56972e-07)
(3.7262e-07 1.416e-08 -6.65151e-21 2.92152e-07 -6.96219e-22 3.32267e-07)
(3.52994e-07 1.51844e-08 -1.53511e-23 2.77927e-07 1.5107e-23 3.15776e-07)
(3.2567e-07 1.56444e-08 -1.66159e-24 2.57744e-07 1.09747e-22 2.91158e-07)
(3.16627e-07 1.59674e-08 4.08629e-20 2.51131e-07 4.55078e-21 2.84735e-07)
(2.7648e-07 1.56232e-08 1.06965e-20 2.21075e-07 1.22512e-21 2.47374e-07)
(2.8544e-07 1.56303e-08 4.20781e-20 2.27559e-07 4.62955e-21 2.58787e-07)
(2.15974e-07 1.46628e-08 -2.4779e-20 1.76231e-07 -2.84831e-21 1.92432e-07)
(2.72743e-07 1.44422e-08 1.44865e-23 2.17618e-07 -8.71042e-24 2.50931e-07)
(1.5029e-07 1.25107e-08 -3.79466e-20 1.32444e-07 -4.26613e-21 1.32536e-07)
(3.11077e-07 1.20766e-08 3.20028e-20 2.47862e-07 3.65112e-21 2.92769e-07)
(1.78709e-07 8.7038e-09 5.53456e-20 1.95649e-07 6.43985e-21 1.67482e-07)
(4.70403e-07 1.17204e-08 -3.31678e-24 3.78178e-07 -4.1612e-23 4.53051e-07)
(4.04749e-07 -1.39366e-08 -9.90295e-23 4.75722e-07 2.24645e-23 4.00808e-07)
(7.16144e-07 2.29195e-08 8.18577e-21 5.82985e-07 8.32532e-22 6.98045e-07)
(1.00844e-06 -1.21875e-07 5.97489e-21 9.47038e-07 5.40337e-22 9.77767e-07)
(9.96638e-07 -1.18538e-07 2.26025e-22 9.26522e-07 2.27512e-23 9.61619e-07)
(9.83689e-07 -1.14855e-07 3.70937e-22 9.05043e-07 4.53094e-23 9.44411e-07)
(9.69478e-07 -1.10824e-07 1.77565e-20 8.82562e-07 1.63697e-21 9.26068e-07)
(9.53904e-07 -1.0644e-07 7.98306e-21 8.59058e-07 7.44978e-22 9.06532e-07)
(9.36915e-07 -1.0171e-07 1.2572e-20 8.34566e-07 1.15587e-21 8.85791e-07)
(9.18494e-07 -9.66465e-08 3.93087e-21 8.09149e-07 3.60791e-22 8.63869e-07)
(8.98654e-07 -9.12688e-08 7.1648e-21 7.8289e-07 6.48622e-22 8.4082e-07)
(8.77428e-07 -8.56104e-08 -4.13097e-21 7.5592e-07 -4.77883e-22 8.16715e-07)
(8.54912e-07 -7.97044e-08 -2.47833e-20 7.28384e-07 -2.30378e-21 7.91686e-07)
(8.31174e-07 -7.35946e-08 4.75547e-21 7.00425e-07 4.78502e-22 7.65833e-07)
(8.06317e-07 -6.73289e-08 -6.52947e-21 6.72202e-07 -6.45975e-22 7.39288e-07)
(7.80482e-07 -6.09612e-08 3.15596e-23 6.4389e-07 1.15008e-23 7.1221e-07)
(7.53797e-07 -5.45482e-08 4.41678e-23 6.1565e-07 -2.36363e-23 6.84742e-07)
(7.26431e-07 -4.81505e-08 -9.12726e-24 5.87657e-07 3.70561e-24 6.57059e-07)
(6.98507e-07 -4.18272e-08 4.43599e-23 5.60042e-07 -1.03573e-23 6.29284e-07)
(6.7021e-07 -3.56379e-08 1.55463e-23 5.3296e-07 -1.2563e-23 6.01591e-07)
(6.41693e-07 -2.96418e-08 -5.84443e-23 5.06535e-07 -1.85262e-23 5.74117e-07)
(6.13118e-07 -2.38954e-08 -8.99638e-21 4.80877e-07 -8.34992e-22 5.46997e-07)
(5.84639e-07 -1.84465e-08 1.81934e-20 4.56071e-07 1.88414e-21 5.20352e-07)
(5.56385e-07 -1.33409e-08 -1.51026e-21 4.32172e-07 -2.18646e-22 4.94274e-07)
(5.28468e-07 -8.60665e-09 3.75834e-21 4.09206e-07 3.91644e-22 4.68831e-07)
(5.00981e-07 -4.26831e-09 1.5657e-23 3.87176e-07 -1.81361e-23 4.44071e-07)
(4.74045e-07 -3.43706e-10 -2.40375e-22 3.66102e-07 -8.08727e-23 4.20067e-07)
(4.47705e-07 3.11502e-09 -1.95574e-20 3.45938e-07 -2.12476e-21 3.9681e-07)
(4.22229e-07 6.05898e-09 -1.90884e-20 3.26785e-07 -1.9424e-21 3.74508e-07)
(3.97094e-07 8.43639e-09 1.38288e-20 3.08118e-07 1.51104e-21 3.52579e-07)
(3.7319e-07 1.02526e-08 -1.09618e-20 2.90484e-07 -1.2116e-21 3.31872e-07)
(3.48236e-07 1.17269e-08 6.32789e-21 2.72154e-07 7.0336e-22 3.10072e-07)
(3.31452e-07 1.28459e-08 -4.82159e-23 2.60012e-07 -1.21743e-23 2.96054e-07)
(3.0629e-07 1.34597e-08 -2.33871e-23 2.41444e-07 -2.81693e-23 2.73311e-07)
(2.99689e-07 1.389e-08 -1.47378e-20 2.36696e-07 -1.65144e-21 2.69061e-07)
(2.6156e-07 1.37517e-08 -2.89868e-20 2.08189e-07 -3.26289e-21 2.33458e-07)
(2.72829e-07 1.37825e-08 -4.01432e-20 2.16468e-07 -4.36522e-21 2.46953e-07)
(2.05259e-07 1.31521e-08 1.07688e-20 1.6661e-07 1.26654e-21 1.82247e-07)
(2.64011e-07 1.27884e-08 5.87902e-21 2.09672e-07 6.97003e-22 2.4261e-07)
(1.44211e-07 1.14732e-08 2.89956e-20 1.26592e-07 3.29552e-21 1.26549e-07)
(3.05921e-07 1.0537e-08 1.99537e-20 2.43092e-07 2.22492e-21 2.87854e-07)
(1.77533e-07 8.19992e-09 -7.21249e-23 1.93866e-07 -9.18712e-24 1.65886e-07)
(4.68577e-07 1.03877e-08 -3.23683e-24 3.76588e-07 -2.07286e-24 4.51643e-07)
(4.06911e-07 -1.41779e-08 -3.91956e-23 4.77026e-07 -1.05122e-23 4.01967e-07)
(7.19439e-07 2.23821e-08 -7.81894e-21 5.8595e-07 -7.80956e-22 7.0198e-07)
(8.48552e-09 -1.02529e-11 -1.8516e-25 8.515e-09 -7.69992e-27 8.50222e-09)
(5.10608e-10 -1.99197e-14 1.3063e-28 5.10749e-10 -2.70544e-29 5.10686e-10)
(0 -0 0 0 0 0)
(0 -0 -0 0 -0 0)
(1.71629e-05 -6.7012e-06 -6.79877e-21 1.78385e-05 -1.18989e-21 1.74975e-05)
(3.04362e-05 -1.44e-05 5.24956e-20 3.51953e-05 3.57768e-21 3.28421e-05)
(0.00375409 0.00185086 1.82284e-18 0.00478268 2.74291e-19 0.00426982)
(0.0520189 0.024995 -6.51305e-18 0.0607577 -4.94172e-19 0.0563835)
(0.205458 0.0983594 3.77733e-18 0.237447 -2.50503e-19 0.221437)
(0.457991 0.219412 3.05501e-17 0.530336 2.78497e-18 0.494164)
(0.726653 0.348921 7.0731e-18 0.846981 1.04967e-18 0.786833)
(0.911637 0.439143 2.47215e-17 1.07261 2.88917e-18 0.992138)
(0.937216 0.453367 -3.92251e-17 1.11694 -1.57079e-18 1.02709)
(0.769831 0.374758 -1.25267e-16 0.936367 -1.27316e-17 0.853114)
(0.42923 0.211758 4.01565e-17 0.548557 -1.88914e-18 0.488897)
(0.0281762 -0.00187264 2.58216e-16 0.0740038 2.37952e-17 0.051088)
(0.50101 -0.216118 3.54129e-17 0.463179 7.44151e-18 0.482107)
(0.891549 -0.372555 -5.1695e-17 0.782035 -4.61315e-18 0.836799)
(1.01399 -0.417752 7.75021e-18 0.870051 -1.04508e-18 0.941998)
(0.827785 -0.337859 7.43301e-17 0.700315 7.37618e-18 0.764018)
(0.459284 -0.186161 -2.81767e-17 0.384592 -3.09647e-18 0.421924)
(0.147528 -0.0595352 5.18456e-17 0.122744 5.44658e-18 0.135136)
(0.0200505 -0.00811934 -2.60033e-17 0.0167661 -2.47416e-18 0.0184083)
(0.000165432 -7.25238e-05 1.47933e-18 0.000157379 1.09761e-19 0.000161449)
(1.3039e-05 6.18957e-06 2.56748e-19 2.44769e-05 2.7166e-20 1.87912e-05)
(0 -0 0 0 0 0)
(0 -0 0 0 0 0)
(0 -0 0 0 0 0)
(2.0226e-08 -4.97002e-11 -1.6683e-25 2.02266e-08 -1.10335e-28 2.02263e-08)
(2.77999e-07 -1.05088e-08 1.90638e-22 2.78349e-07 1.95282e-23 2.78176e-07)
(9.51836e-07 -1.24183e-07 -5.30456e-21 9.53121e-07 -4.34856e-22 9.5249e-07)
(1.0532e-06 -1.52748e-07 -9.64352e-21 1.04701e-06 -9.25266e-22 1.05011e-06)
(9.28365e-07 -1.21251e-07 7.32092e-22 9.16494e-07 4.25599e-23 9.22436e-07)
(8.75403e-07 -1.09275e-07 -3.12339e-21 8.58116e-07 -3.02899e-22 8.66765e-07)
(8.7387e-07 -1.09376e-07 6.73262e-21 8.49478e-07 6.15403e-22 8.61681e-07)
(8.72388e-07 -1.09095e-07 -2.12328e-21 8.40479e-07 -1.65867e-22 8.56443e-07)
(8.63896e-07 -1.06911e-07 -5.9324e-21 8.24751e-07 -5.48601e-22 8.44336e-07)
(8.54472e-07 -1.04363e-07 -5.30406e-21 8.0814e-07 -5.07247e-22 8.3132e-07)
(8.45445e-07 -1.01793e-07 4.89606e-21 7.91865e-07 4.52433e-22 8.18674e-07)
(8.35818e-07 -9.89978e-08 6.81474e-26 7.75048e-07 -1.78332e-24 8.05455e-07)
(8.25173e-07 -9.59068e-08 -9.47961e-24 7.57357e-07 1.29448e-23 7.9129e-07)
(8.13475e-07 -9.25287e-08 -5.92003e-24 7.38811e-07 9.17232e-24 7.76171e-07)
(8.00659e-07 -8.88589e-08 -8.39851e-24 7.19409e-07 6.33562e-24 7.60065e-07)
(7.8665e-07 -8.48936e-08 -4.46107e-24 6.99154e-07 2.56445e-24 7.42933e-07)
(7.71436e-07 -8.06393e-08 -2.43399e-22 6.78097e-07 -2.7697e-23 7.248e-07)
(7.55039e-07 -7.61174e-08 -6.68532e-21 6.56333e-07 -6.38172e-22 7.05718e-07)
(7.37534e-07 -7.13535e-08 4.26964e-23 6.33993e-07 4.11159e-23 6.85794e-07)
(7.18989e-07 -6.63781e-08 1.88533e-20 6.11209e-07 1.81736e-21 6.65128e-07)
(6.99469e-07 -6.1225e-08 2.35023e-23 5.88102e-07 -3.84225e-23 6.43812e-07)
(6.79073e-07 -5.5934e-08 4.77876e-21 5.64816e-07 4.58166e-22 6.21967e-07)
(6.57917e-07 -5.05516e-08 -1.21847e-21 5.41505e-07 -1.21836e-22 5.9973e-07)
(6.36128e-07 -4.51259e-08 8.1567e-21 5.1832e-07 8.17797e-22 5.77241e-07)
(6.138e-07 -3.97045e-08 5.94096e-24 4.95375e-07 -2.67989e-23 5.546e-07)
(5.91078e-07 -3.43401e-08 2.00774e-24 4.72813e-07 -8.68793e-24 5.31955e-07)
(5.68085e-07 -2.90839e-08 6.57085e-24 4.50745e-07 3.30016e-23 5.09422e-07)
(5.44945e-07 -2.39882e-08 8.60534e-21 4.29273e-07 7.9892e-22 4.87113e-07)
(5.21781e-07 -1.90993e-08 -1.90833e-20 4.08476e-07 -1.94549e-21 4.6513e-07)
(4.987e-07 -1.44619e-08 4.82275e-21 3.88411e-07 5.57226e-22 4.43555e-07)
(4.75775e-07 -1.01089e-08 -2.70686e-23 3.69093e-07 -5.07308e-24 4.22432e-07)
(4.53071e-07 -6.06665e-09 7.00757e-23 3.50519e-07 -4.94936e-23 4.01791e-07)
(4.30697e-07 -2.35832e-09 -1.07766e-20 3.32716e-07 -1.13848e-21 3.81704e-07)
(4.08661e-07 9.61088e-10 1.15883e-22 3.15626e-07 1.59505e-23 3.62134e-07)
(3.87286e-07 3.83637e-09 3.60291e-21 2.99408e-07 3.37692e-22 3.43352e-07)
(3.65972e-07 6.20216e-09 -8.9992e-23 2.8349e-07 1.1987e-23 3.24704e-07)
(3.45768e-07 8.04787e-09 9.38948e-23 2.68548e-07 -2.89081e-23 3.07198e-07)
(3.2406e-07 9.56627e-09 -6.05359e-21 2.52571e-07 -6.86595e-22 2.88191e-07)
(3.10007e-07 1.07354e-08 -1.38884e-20 2.4242e-07 -1.51842e-21 2.7654e-07)
(2.86981e-07 1.1466e-08 -9.0607e-21 2.25431e-07 -9.45654e-22 2.55646e-07)
(2.82696e-07 1.19741e-08 4.52266e-21 2.22438e-07 5.59929e-22 2.53443e-07)
(2.46638e-07 1.20097e-08 2.15414e-20 1.955e-07 2.38274e-21 2.19645e-07)
(2.60095e-07 1.20455e-08 1.93332e-20 2.05478e-07 2.06066e-21 2.35097e-07)
(1.94556e-07 1.17145e-08 -2.72878e-23 1.57152e-07 -6.92428e-23 1.72164e-07)
(2.55148e-07 1.12104e-08 -2.56469e-20 2.01793e-07 -2.86766e-21 2.34239e-07)
(1.38086e-07 1.04592e-08 -5.52664e-23 1.20816e-07 2.60533e-23 1.20597e-07)
(3.00683e-07 9.05705e-09 -1.92737e-20 2.38383e-07 -2.08739e-21 2.82898e-07)
(1.76356e-07 7.67553e-09 1.47149e-20 1.92245e-07 1.74474e-21 1.64398e-07)
(4.66892e-07 9.07796e-09 -7.89113e-23 3.75144e-07 -8.02096e-24 4.50344e-07)
(4.09739e-07 -1.44224e-08 -6.07798e-20 4.79368e-07 -7.52423e-21 4.04e-07)
(7.22824e-07 2.1658e-08 7.44923e-21 5.88806e-07 7.59176e-22 7.05831e-07)
(5.07373e-07 -5.48767e-08 -9.81384e-25 5.99404e-07 -3.1394e-23 5.59637e-07)
(1.52651e-08 -4.18518e-11 1.23938e-24 1.53701e-08 1.0475e-25 1.53237e-08)
(9.94618e-10 -7.23067e-14 2.24534e-27 9.95209e-10 3.7658e-28 9.9491e-10)
(0 -0 -0 0 -0 0)
(0 -0 -0 0 -0 0)
(1.61787e-08 -1.16153e-11 5.10502e-29 1.61796e-08 -1.60375e-28 1.61791e-08)
(0.000316046 -0.000145017 2.05888e-22 0.000329145 -5.31757e-21 0.000322603)
(0.000365419 0.000179344 9.75581e-19 0.000645446 1.03323e-19 0.000505978)
(0.0203531 0.00983952 -3.21302e-18 0.0242098 -3.37082e-19 0.0222817)
(0.115353 0.0553286 1.87167e-17 0.134041 1.71454e-18 0.124687)
(0.313948 0.15051 -9.88963e-18 0.364279 -4.30887e-19 0.339104)
(0.564467 0.271084 2.28847e-19 0.658226 -7.91194e-19 0.611356)
(0.772018 0.371792 5.51961e-17 0.90764 5.12158e-18 0.839845)
(0.851735 0.411694 -1.97078e-18 1.0126 1.3398e-18 0.932179)
(0.755769 0.367226 -6.23745e-17 0.913602 -5.64884e-18 0.834698)
(0.486498 0.238713 -1.12568e-18 0.608588 1.57204e-19 0.547548)
(0.103887 0.0522781 -7.13465e-17 0.162727 -8.03671e-18 0.133306)
(0.337926 -0.147711 7.95906e-17 0.319798 5.83318e-18 0.328871)
(0.734399 -0.307321 5.27047e-17 0.645638 5.52902e-18 0.690026)
(0.905288 -0.372868 3.5369e-17 0.776461 2.63757e-18 0.840859)
(0.787338 -0.321088 9.88231e-17 0.665284 1.16251e-17 0.726284)
(0.469342 -0.189997 -1.37048e-16 0.392286 -1.34959e-17 0.430799)
(0.167248 -0.0673475 7.3375e-17 0.138716 6.94531e-18 0.152981)
(0.0260055 -0.0104716 -2.94954e-17 0.0215682 -2.51085e-18 0.0237866)
(0.000425602 -0.000179117 2.23275e-21 0.00037757 -2.32085e-20 0.000401637)
(2.5121e-05 1.23793e-05 1.82914e-22 4.38358e-05 2.20484e-21 3.45319e-05)
(0 0 -0 0 -0 0)
(0 -0 -0 0 -0 0)
(0 -0 0 0 0 0)
(8.11761e-09 -9.22643e-12 -5.53827e-26 8.11743e-09 -5.22655e-27 8.11752e-09)
(1.01681e-07 -1.66112e-09 4.83672e-24 1.01695e-07 3.41448e-26 1.01689e-07)
(7.27169e-07 -8.69522e-08 3.4204e-21 7.26334e-07 3.23128e-22 7.26775e-07)
(9.16935e-07 -1.37523e-07 1.50794e-24 9.08376e-07 -8.54307e-25 9.12684e-07)
(8.04914e-07 -1.08276e-07 6.0744e-21 7.91797e-07 5.92e-22 7.9838e-07)
(7.36606e-07 -9.21539e-08 -4.88677e-21 7.19934e-07 -4.45313e-22 7.28292e-07)
(7.29385e-07 -9.07694e-08 1.29036e-21 7.07153e-07 1.07427e-22 7.18294e-07)
(7.30077e-07 -9.0895e-08 -1.51041e-24 7.01517e-07 -1.09712e-23 7.15823e-07)
(7.24122e-07 -8.92573e-08 6.53792e-21 6.8949e-07 6.21547e-22 7.06829e-07)
(7.16521e-07 -8.71345e-08 -1.78896e-21 6.75908e-07 -1.58313e-22 6.9624e-07)
(7.09437e-07 -8.50487e-08 2.31409e-21 6.62777e-07 2.16906e-22 6.86131e-07)
(7.0182e-07 -8.27673e-08 1.2147e-21 6.49141e-07 1.29113e-22 6.75505e-07)
(6.93048e-07 -8.01721e-08 -1.78477e-24 6.34497e-07 1.13855e-23 6.63797e-07)
(6.83248e-07 -7.73039e-08 6.59662e-21 6.19002e-07 6.42612e-22 6.51148e-07)
(6.72524e-07 -7.4192e-08 -1.24447e-24 6.02788e-07 -1.37318e-24 6.37679e-07)
(6.60837e-07 -7.0834e-08 2.21039e-22 5.85875e-07 3.79423e-23 6.23379e-07)
(6.48148e-07 -6.72299e-08 4.79796e-21 5.68289e-07 4.62682e-22 6.08241e-07)
(6.34513e-07 -6.33967e-08 7.6998e-24 5.5014e-07 -3.06601e-23 5.92347e-07)
(6.19996e-07 -5.93571e-08 -3.123e-23 5.31545e-07 3.80932e-23 5.7579e-07)
(6.04652e-07 -5.51346e-08 1.00583e-20 5.12609e-07 9.87691e-22 5.58648e-07)
(5.88561e-07 -5.07595e-08 -4.53893e-21 4.9346e-07 -4.749e-22 5.41027e-07)
(5.71821e-07 -4.62672e-08 9.69429e-24 4.74237e-07 -2.70533e-23 5.23043e-07)
(5.5453e-07 -4.16953e-08 -7.79988e-21 4.55069e-07 -7.65869e-22 5.04811e-07)
(5.36766e-07 -3.70828e-08 5.04016e-24 4.36063e-07 2.22643e-23 4.86424e-07)
(5.18645e-07 -3.24729e-08 1.71518e-24 4.17348e-07 1.6345e-23 4.68003e-07)
(5.0026e-07 -2.79096e-08 7.97142e-21 3.99021e-07 8.20934e-22 4.49645e-07)
(4.81712e-07 -2.3438e-08 1.0432e-21 3.81178e-07 1.05418e-22 4.31447e-07)
(4.63092e-07 -1.91028e-08 1.66833e-21 3.6389e-07 1.36164e-22 4.13491e-07)
(4.44481e-07 -1.49436e-08 -3.18725e-21 3.47207e-07 -3.66051e-22 3.95842e-07)
(4.2593e-07 -1.0996e-08 -8.61939e-21 3.31142e-07 -8.09934e-22 3.78533e-07)
(4.07465e-07 -7.28488e-09 2.56658e-20 3.15677e-07 2.75957e-21 3.61566e-07)
(3.89182e-07 -3.83818e-09 1.04993e-20 3.00843e-07 1.076e-21 3.4501e-07)
(3.71043e-07 -7.07066e-10 1.7752e-20 2.8656e-07 1.89318e-21 3.28791e-07)
(3.53423e-07 2.047e-09 2.05508e-20 2.73044e-07 2.12103e-21 3.1324e-07)
(3.35638e-07 4.34799e-09 -1.59162e-20 2.59673e-07 -1.70804e-21 2.97625e-07)
(3.18895e-07 6.17352e-09 2.20152e-20 2.4725e-07 2.40769e-21 2.83115e-07)
(3.00278e-07 7.68859e-09 -5.70068e-21 2.33515e-07 -6.81694e-22 2.66768e-07)
(2.88823e-07 8.86637e-09 -1.17239e-23 2.25251e-07 2.81619e-23 2.57364e-07)
(2.67887e-07 9.67675e-09 4.76531e-21 2.09795e-07 5.02302e-22 2.3828e-07)
(2.65772e-07 1.0236e-08 -3.98792e-21 2.08439e-07 -4.13861e-22 2.37981e-07)
(2.31833e-07 1.04141e-08 1.69214e-20 1.83089e-07 1.92374e-21 2.06037e-07)
(2.47334e-07 1.04331e-08 1.28717e-20 1.94651e-07 1.4202e-21 2.23298e-07)
(1.83924e-07 1.03654e-08 -2.15348e-24 1.47905e-07 1.97271e-24 1.62237e-07)
(2.46198e-07 9.71636e-09 1.64986e-20 1.94e-07 1.834e-21 2.25842e-07)
(1.3192e-07 9.48776e-09 3.7037e-24 1.15123e-07 -8.63756e-23 1.147e-07)
(2.95442e-07 7.63061e-09 -5.57806e-20 2.33773e-07 -6.27284e-21 2.77951e-07)
(1.75021e-07 7.15215e-09 -1.4061e-20 1.90651e-07 -1.61662e-21 1.62903e-07)
(4.65307e-07 7.7731e-09 -3.60172e-20 3.73759e-07 -3.90694e-21 4.49044e-07)
(4.1244e-07 -1.46281e-08 6.12355e-20 4.8187e-07 7.58848e-21 4.06157e-07)
(7.26619e-07 2.07603e-08 -7.11108e-21 5.91747e-07 -7.14838e-22 7.09815e-07)
(5.2177e-07 -6.74816e-08 -3.24486e-25 6.17294e-07 1.18747e-23 5.76031e-07)
(4.47145e-07 -4.99103e-08 1.38374e-24 5.24106e-07 9.06467e-24 4.90309e-07)
(4.85398e-08 -4.6946e-10 -5.16352e-24 4.96735e-08 -6.82777e-25 4.90995e-08)
(2.85011e-09 -8.23172e-13 3.542e-26 2.85575e-09 2.74274e-27 2.85285e-09)
(0 -0 0 0 0 0)
(0 -0 -0 0 -0 0)
(0 -0 0 0 0 0)
(9.08858e-05 -4.09313e-05 1.97178e-22 9.13112e-05 3.9448e-22 9.10781e-05)
(0.000141768 -6.90491e-05 -2.13937e-22 0.000172651 5.47368e-22 0.000157293)
(0.0055977 0.00273903 1.82946e-20 0.00692961 6.57481e-21 0.00626483)
(0.0559615 0.0269181 -3.14132e-20 0.0655668 -1.17508e-19 0.0607593)
(0.198189 0.0951051 1.41054e-17 0.230604 1.38544e-18 0.214383)
(0.41743 0.200518 2.2004e-19 0.487112 2.43756e-19 0.452271)
(0.634004 0.30527 -1.30654e-18 0.744969 -6.28137e-19 0.6895)
(0.757274 0.3658 4.02282e-17 0.898518 4.06056e-18 0.827908)
(0.725472 0.35199 2.94478e-18 0.872825 6.44327e-19 0.799159)
(0.524278 0.256277 3.05214e-17 0.646834 2.15267e-18 0.585562)
(0.193766 0.0967749 5.75442e-17 0.263128 5.94287e-18 0.228449)
(0.195293 -0.0877312 2.50941e-20 0.194619 1.15144e-18 0.194966)
(0.589631 -0.247324 -3.80532e-17 0.520318 -2.98767e-18 0.554988)
(0.799079 -0.329154 -4.35305e-17 0.685458 -6.50911e-18 0.742268)
(0.742057 -0.302492 1.71708e-16 0.626619 1.76394e-17 0.684323)
(0.47425 -0.191861 -1.31442e-16 0.396013 -1.14312e-17 0.435122)
(0.185486 -0.0746191 4.69913e-19 0.153627 -4.60629e-19 0.169557)
(0.0333534 -0.0133978 -8.03594e-18 0.0275656 -7.45999e-19 0.0304595)
(0.0010487 -0.000432783 -1.22166e-21 0.000902132 -5.29331e-21 0.000975463)
(3.87431e-05 1.90952e-05 -1.19732e-19 6.76247e-05 -1.15869e-20 5.32467e-05)
(0 0 -0 0 0 0)
(0 -0 -0 0 -0 0)
(0 -0 -0 0 -0 0)
(1.04272e-09 -1.78023e-13 7.13124e-31 1.0427e-09 -5.23579e-30 1.04271e-09)
(8.7934e-09 -1.48759e-11 -1.32181e-26 8.79317e-09 -8.08467e-28 8.79329e-09)
(4.60815e-07 -4.27991e-08 -4.06238e-22 4.60159e-07 -2.59185e-23 4.60485e-07)
(7.50161e-07 -1.10435e-07 -9.47422e-21 7.42236e-07 -9.34818e-22 7.46186e-07)
(6.92184e-07 -9.49966e-08 5.60593e-21 6.78987e-07 5.17091e-22 6.85579e-07)
(6.226e-07 -7.82175e-08 -1.24063e-21 6.06784e-07 -1.05723e-22 6.14697e-07)
(6.11398e-07 -7.59068e-08 4.53022e-25 5.91215e-07 -5.45732e-24 6.0132e-07)
(6.14192e-07 -7.65172e-08 -1.42294e-21 5.88611e-07 -1.3059e-22 6.01422e-07)
(6.09736e-07 -7.51921e-08 -2.75561e-21 5.79052e-07 -2.68654e-22 5.94418e-07)
(6.01904e-07 -7.30098e-08 -1.97929e-25 5.66371e-07 -3.3914e-24 5.84165e-07)
(5.95075e-07 -7.10205e-08 -2.86627e-24 5.54589e-07 1.13059e-23 5.74861e-07)
(5.88758e-07 -6.90971e-08 4.06307e-21 5.43229e-07 4.00965e-22 5.66026e-07)
(5.81646e-07 -6.69485e-08 -5.16228e-21 5.31166e-07 -4.94051e-22 5.56438e-07)
(5.73449e-07 -6.45178e-08 -1.26191e-21 5.18185e-07 -1.18879e-22 5.45849e-07)
(5.64354e-07 -6.18517e-08 -1.73667e-24 5.0449e-07 6.51423e-24 5.34455e-07)
(5.54464e-07 -5.89763e-08 -3.27292e-24 4.90216e-07 3.78883e-24 5.22372e-07)
(5.43807e-07 -5.58973e-08 6.23003e-24 4.75434e-07 -1.85806e-23 5.09652e-07)
(5.32421e-07 -5.2626e-08 -7.13697e-24 4.60234e-07 -1.43313e-23 4.96357e-07)
(5.20343e-07 -4.91762e-08 -9.59666e-21 4.44698e-07 -9.12461e-22 4.8255e-07)
(5.07653e-07 -4.5573e-08 1.18068e-20 4.28952e-07 1.20108e-21 4.68329e-07)
(4.9443e-07 -4.1841e-08 1.11665e-21 4.13112e-07 7.50465e-23 4.53796e-07)
(4.80762e-07 -3.80103e-08 6.93546e-24 3.973e-07 -2.67816e-24 4.39054e-07)
(4.66717e-07 -3.4113e-08 6.78126e-24 3.81618e-07 -2.81894e-24 4.24188e-07)
(4.52383e-07 -3.01817e-08 1.45527e-24 3.66174e-07 -3.09943e-23 4.09297e-07)
(4.37834e-07 -2.62541e-08 -7.65073e-21 3.51058e-07 -7.65199e-22 3.94461e-07)
(4.23153e-07 -2.23693e-08 -1.00741e-21 3.36359e-07 -7.32697e-23 3.79769e-07)
(4.08402e-07 -1.85648e-08 4.84942e-22 3.22137e-07 7.43145e-23 3.6528e-07)
(3.93651e-07 -1.48797e-08 8.72027e-21 3.08444e-07 9.16353e-22 3.51056e-07)
(3.78907e-07 -1.13443e-08 3.26256e-21 2.9527e-07 2.05379e-22 3.37095e-07)
(3.64189e-07 -7.98496e-09 -3.48669e-20 2.82605e-07 -3.66942e-21 3.23401e-07)
(3.4956e-07 -4.82953e-09 -6.14749e-21 2.70464e-07 -5.44163e-22 3.10018e-07)
(3.3493e-07 -1.92221e-09 6.9918e-21 2.5874e-07 6.81784e-22 2.9683e-07)
(3.20737e-07 6.67561e-10 -3.36917e-20 2.47713e-07 -3.56876e-21 2.84238e-07)
(3.06202e-07 2.86358e-09 1.19646e-20 2.36701e-07 1.34356e-21 2.71426e-07)
(2.92657e-07 4.62272e-09 -6.09158e-21 2.26612e-07 -6.49074e-22 2.59683e-07)
(2.76988e-07 6.09702e-09 6.48354e-21 2.15023e-07 6.67673e-22 2.4588e-07)
(2.67979e-07 7.24245e-09 -2.01688e-20 2.08535e-07 -2.20392e-21 2.38587e-07)
(2.49097e-07 8.10251e-09 7.43637e-21 1.94582e-07 8.77497e-22 2.21283e-07)
(2.4898e-07 8.68131e-09 3.80661e-21 1.94723e-07 4.02596e-22 2.22725e-07)
(2.17213e-07 8.97756e-09 3.3361e-21 1.70996e-07 3.60232e-22 1.92691e-07)
(2.34556e-07 8.95308e-09 -1.44125e-20 1.83979e-07 -1.59527e-21 2.11557e-07)
(1.73425e-07 9.12272e-09 -2.06756e-24 1.38914e-07 9.70462e-25 1.52525e-07)
(2.37202e-07 8.30282e-09 -1.57071e-20 1.8631e-07 -1.73595e-21 2.17449e-07)
(1.25764e-07 8.5828e-09 -8.69867e-24 1.09553e-07 1.06804e-22 1.08912e-07)
(2.89955e-07 6.2398e-09 7.06269e-20 2.29045e-07 7.83489e-21 2.72754e-07)
(1.73483e-07 6.67299e-09 -1.91195e-23 1.89033e-07 -3.89908e-23 1.61369e-07)
(4.64199e-07 6.4396e-09 3.44334e-20 3.72716e-07 3.69232e-21 4.4809e-07)
(4.15047e-07 -1.4749e-08 -7.43378e-20 4.84617e-07 -9.19514e-21 4.08485e-07)
(7.30813e-07 1.96964e-08 5.9485e-23 5.94774e-07 4.08788e-24 7.1392e-07)
(4.17886e-07 -4.91595e-08 -2.12345e-25 4.80117e-07 -9.2664e-24 4.53301e-07)
(4.5241e-07 -5.87169e-08 4.70588e-25 5.30201e-07 -2.31337e-23 4.96243e-07)
(4.08986e-07 -4.49564e-08 1.04492e-21 4.81073e-07 1.14989e-22 4.44657e-07)
(1.12333e-07 -3.13403e-09 -7.0622e-23 1.18846e-07 -5.31983e-24 1.15508e-07)
(6.23603e-09 -6.41985e-12 -9.35437e-29 6.26702e-09 -9.16712e-27 6.25154e-09)
(0 -0 0 0 0 0)
(0 -0 -0 0 -0 0)
(0 -0 0 0 -0 0)
(9.88306e-07 -4.23389e-08 1.81371e-27 9.87443e-07 1.45199e-25 9.87864e-07)
(0.00036416 -0.000165619 7.85456e-23 0.000372103 7.32739e-22 0.000368192)
(0.000805085 0.000405334 -1.05874e-21 0.00116875 1.40971e-20 0.000987842)
(0.0227416 0.0109888 -4.51166e-18 0.0270095 -4.34835e-19 0.0248762)