/*--------------------------------*- C++ -*----------------------------------*\
| =========                 |                                                 |
| \\      /  F ield         | OpenFOAM: The Open Source CFD Toolbox           |
|  \\    /   O peration     | Version:  2306                                  |
|   \\  /    A nd           | Website:  www.openfoam.com                      |
|    \\/     M anipulation  |                                                 |
\*---------------------------------------------------------------------------*/
FoamFile
{
    version     2.0;
    format      ascii;
    arch        "LSB;label=32;scalar=64";
    class       volScalarField;
    location    "275";
    object      turbulenceProperties:I;
}
// * * * * * * * * * * * * * * * * * * * * * * * * * * * * * * * * * * * * * //

dimensions      [0 0 0 0 0 0 0];

internalField   nonuniform List<scalar> 
1340
(
3.02214e-05
2.64799e-05
3.04529e-05
2.60269e-05
2.60607e-05
3.04579e-05
1.68178e-05
2.58656e-05
2.57796e-05
3.05288e-05
1.58758e-05
2.15238e-05
1.67406e-05
2.57373e-05
2.55379e-05
3.06402e-05
1.89183e-05
2.05191e-05
1.56389e-05
2.133e-05
1.66604e-05
2.56216e-05
2.53409e-05
3.07533e-05
2.24337e-05
2.1031e-05
2.10443e-05
1.85415e-05
2.02373e-05
1.53861e-05
2.11392e-05
1.65823e-05
2.55228e-05
2.51985e-05
3.08596e-05
2.40854e-05
2.33444e-05
2.24096e-05
2.19497e-05
2.05633e-05
2.06574e-05
1.81507e-05
1.99483e-05
1.51206e-05
2.0956e-05
1.6506e-05
2.54435e-05
2.51086e-05
3.09572e-05
2.70945e-05
2.61673e-05
2.52466e-05
2.434e-05
2.34191e-05
2.2739e-05
2.18392e-05
2.1447e-05
2.00796e-05
2.02565e-05
1.77473e-05
1.96534e-05
1.48435e-05
2.07787e-05
1.64319e-05
2.53794e-05
2.50595e-05
3.10591e-05
3.04706e-05
2.95816e-05
2.86979e-05
2.78218e-05
2.69552e-05
2.60991e-05
2.52556e-05
2.44132e-05
2.35852e-05
2.27288e-05
2.21109e-05
2.12475e-05
2.0924e-05
1.95784e-05
1.98406e-05
1.73304e-05
1.9351e-05
1.4555e-05
2.0604e-05
1.63615e-05
2.53252e-05
2.50428e-05
3.11504e-05
3.4387e-05
3.36511e-05
3.28989e-05
3.21326e-05
3.13558e-05
3.05712e-05
2.9782e-05
2.89909e-05
2.82003e-05
2.74121e-05
2.66279e-05
2.58499e-05
2.50785e-05
2.43179e-05
2.3554e-05
2.28052e-05
2.20148e-05
2.14607e-05
2.06349e-05
2.03813e-05
1.90603e-05
1.941e-05
1.69008e-05
1.9041e-05
1.42562e-05
2.04301e-05
1.62944e-05
2.52789e-05
2.50678e-05
3.12406e-05
3.79625e-05
3.76304e-05
3.72748e-05
3.68936e-05
3.64851e-05
3.60483e-05
3.55828e-05
3.50888e-05
3.45667e-05
3.40182e-05
3.34444e-05
3.2847e-05
3.22283e-05
3.15904e-05
3.09364e-05
3.0268e-05
2.95886e-05
2.89007e-05
2.8207e-05
2.75101e-05
2.68121e-05
2.61146e-05
2.54187e-05
2.47265e-05
2.40378e-05
2.33589e-05
2.26727e-05
2.20036e-05
2.12805e-05
2.07913e-05
2.00045e-05
1.98211e-05
1.85276e-05
1.89661e-05
1.64601e-05
1.8724e-05
1.39494e-05
2.02576e-05
1.6229e-05
2.52393e-05
2.51152e-05
3.13296e-05
3.56948e-06
8.74908e-07
0
0
0.000161884
0.000221546
0.00252637
0.00920585
0.0183748
0.0277919
0.0356744
0.0408822
0.042493
0.0394855
0.0303129
0.00985123
0.030098
0.0390296
0.0404501
0.0354773
0.0257349
0.0143142
0.00523732
0.000489411
0.000166986
0
0
0
5.47886e-06
2.03109e-05
3.75712e-05
3.94366e-05
3.6949e-05
3.58043e-05
3.56866e-05
3.55651e-05
3.52997e-05
3.50132e-05
3.47323e-05
3.44371e-05
3.41192e-05
3.37779e-05
3.34119e-05
3.30198e-05
3.26011e-05
3.21564e-05
3.16871e-05
3.11944e-05
3.06798e-05
3.01449e-05
2.95922e-05
2.90242e-05
2.84427e-05
2.78505e-05
2.725e-05
2.66437e-05
2.60339e-05
2.54226e-05
2.48108e-05
2.41992e-05
2.35898e-05
2.29817e-05
2.23828e-05
2.17734e-05
2.11837e-05
2.05288e-05
2.01054e-05
1.93587e-05
1.92456e-05
1.79821e-05
1.85103e-05
1.60109e-05
1.83997e-05
1.36367e-05
2.00828e-05
1.61677e-05
2.52037e-05
2.51881e-05
3.14177e-05
2.88198e-05
4.78611e-06
1.21973e-06
0
0
4.91737e-06
0.000693865
0.000868199
0.00577049
0.0137193
0.0228522
0.0311457
0.0371952
0.0399993
0.0385989
0.0317455
0.0157845
0.0247321
0.0353662
0.0382241
0.0346409
0.026046
0.0152432
0.0059524
0.000771287
0.000226158
0
0
0
3.46891e-06
1.22736e-05
3.28024e-05
3.67486e-05
3.43605e-05
3.28079e-05
3.2572e-05
3.25058e-05
3.22907e-05
3.20373e-05
3.17933e-05
3.15353e-05
3.125e-05
3.094e-05
3.06076e-05
3.02519e-05
2.9872e-05
2.94692e-05
2.90449e-05
2.86004e-05
2.81374e-05
2.76583e-05
2.71652e-05
2.66601e-05
2.61455e-05
2.56237e-05
2.5097e-05
2.45675e-05
2.40369e-05
2.35059e-05
2.29746e-05
2.24448e-05
2.19146e-05
2.13941e-05
2.08601e-05
2.03494e-05
1.97634e-05
1.94063e-05
1.87007e-05
1.86573e-05
1.74269e-05
1.80448e-05
1.5555e-05
1.80688e-05
1.33181e-05
1.99077e-05
1.61041e-05
2.51696e-05
2.52627e-05
3.15108e-05
2.92078e-05
2.69624e-05
8.55989e-06
2.06329e-06
0
0
0
0.000368426
0.000483675
0.00305347
0.00953962
0.0180569
0.026562
0.0333587
0.0372756
0.0373466
0.0324973
0.020498
0.0189435
0.0316443
0.0359151
0.0336735
0.0262213
0.0160653
0.00673643
0.00120126
0.000280625
0
0
0
1.24263e-06
3.60751e-06
2.60996e-05
3.32159e-05
3.18303e-05
3.01321e-05
2.97945e-05
2.9789e-05
2.96068e-05
2.9342e-05
2.9099e-05
2.8866e-05
2.8612e-05
2.83299e-05
2.80242e-05
2.76974e-05
2.73501e-05
2.69833e-05
2.6598e-05
2.61964e-05
2.57805e-05
2.53526e-05
2.49148e-05
2.44694e-05
2.40184e-05
2.35644e-05
2.31089e-05
2.26537e-05
2.21989e-05
2.17444e-05
2.12916e-05
2.08369e-05
2.03934e-05
1.99338e-05
1.95009e-05
1.89852e-05
1.86948e-05
1.80319e-05
1.8057e-05
1.68633e-05
1.75689e-05
1.50944e-05
1.77322e-05
1.2996e-05
1.97233e-05
1.60364e-05
2.5147e-05
2.53407e-05
3.16088e-05
2.59027e-05
2.70972e-05
2.57426e-05
1.31197e-05
3.0515e-06
0
0
0
3.83427e-05
0.000739595
0.00121059
0.00608634
0.0136102
0.0220395
0.0294451
0.0343904
0.0358107
0.0327
0.0234907
0.0123806
0.0279388
0.0335852
0.0326073
0.0262316
0.0167061
0.00744071
0.00160273
0.000334496
0
0
0
1.29671e-07
5.79829e-06
2.15482e-05
2.98362e-05
2.94781e-05
2.75399e-05
2.696e-05
2.71024e-05
2.71242e-05
2.69284e-05
2.66747e-05
2.64352e-05
2.6196e-05
2.59369e-05
2.56533e-05
2.53493e-05
2.50284e-05
2.46914e-05
2.43404e-05
2.39772e-05
2.36047e-05
2.32245e-05
2.28392e-05
2.24511e-05
2.20622e-05
2.16742e-05
2.12885e-05
2.09052e-05
2.05236e-05
2.01443e-05
1.97628e-05
1.93937e-05
1.90071e-05
1.86508e-05
1.82046e-05
1.79814e-05
1.73612e-05
1.74543e-05
1.62965e-05
1.70921e-05
1.46283e-05
1.7396e-05
1.26474e-05
1.955e-05
1.59406e-05
2.51238e-05
2.54307e-05
3.17403e-05
2.43407e-05
2.4168e-05
2.54032e-05
2.43236e-05
1.71101e-05
3.94927e-06
5.86302e-08
0
0
0
0.000456437
0.000510125
0.00329079
0.00941877
0.017314
0.0251061
0.0310857
0.0339572
0.0326589
0.0259564
0.00937744
0.0237055
0.0310634
0.0315245
0.026347
0.0175565
0.00838775
0.00206765
0.000332883
9.50859e-05
0
0
0
4.5571e-06
1.59064e-05
2.61834e-05
2.82777e-05
2.64987e-05
2.49154e-05
2.45001e-05
2.45468e-05
2.4507e-05
2.43201e-05
2.40831e-05
2.3846e-05
2.36034e-05
2.33445e-05
2.30671e-05
2.2775e-05
2.2472e-05
2.21586e-05
2.18384e-05
2.15134e-05
2.11856e-05
2.08581e-05
2.05322e-05
2.02104e-05
1.98923e-05
1.95798e-05
1.92706e-05
1.89645e-05
1.86571e-05
1.83627e-05
1.80494e-05
1.77716e-05
1.73968e-05
1.7242e-05
1.66698e-05
1.68274e-05
1.57177e-05
1.65901e-05
1.41686e-05
1.70311e-05
1.23385e-05
1.9344e-05
1.58714e-05
2.50808e-05
2.55122e-05
3.18282e-05
2.29608e-05
2.25318e-05
2.26025e-05
2.28909e-05
2.24921e-05
1.98666e-05
8.43319e-06
2.00033e-06
1.60451e-08
0
0
4.71536e-05
0.000570594
0.000958821
0.00462622
0.0104828
0.017559
0.0242812
0.0291018
0.030721
0.0280122
0.0193864
0.0131402
0.0250978
0.028776
0.0265799
0.020105
0.0118893
0.00502785
0.000886131
0.000297695
3.71503e-05
0
0
5.07618e-07
3.6011e-06
1.13717e-05
2.09816e-05
2.41135e-05
2.34027e-05
2.21949e-05
2.17223e-05
2.16931e-05
2.16514e-05
2.14913e-05
2.12773e-05
2.10572e-05
2.08318e-05
2.0595e-05
2.03475e-05
2.00904e-05
1.98293e-05
1.95665e-05
1.93045e-05
1.90448e-05
1.879e-05
1.85428e-05
1.83024e-05
1.80707e-05
1.78443e-05
1.76236e-05
1.74019e-05
1.71947e-05
1.69675e-05
1.67784e-05
1.64928e-05
1.64098e-05
1.59084e-05
1.61189e-05
1.5104e-05
1.60045e-05
1.37333e-05
1.65454e-05
1.21004e-05
1.88941e-05
1.54982e-05
2.45196e-05
2.48708e-05
3.06868e-05
2.12473e-05
2.09581e-05
2.0845e-05
2.06843e-05
2.05885e-05
2.10853e-05
2.00064e-05
1.62497e-05
2.52933e-06
6.45507e-07
0
0
0
9.48032e-05
0.000545555
0.000818121
0.00399876
0.00920798
0.0156314
0.0218491
0.0263256
0.0276958
0.0247853
0.015764
0.0144912
0.0237219
0.025788
0.0226471
0.01623
0.00906629
0.00353212
0.000413657
0.000200924
0
0
0
3.0975e-07
3.20415e-06
1.08978e-05
1.87741e-05
2.10688e-05
2.01906e-05
1.91635e-05
1.88385e-05
1.88229e-05
1.87491e-05
1.85811e-05
1.83857e-05
1.81923e-05
1.79961e-05
1.77938e-05
1.75902e-05
1.73876e-05
1.71913e-05
1.70027e-05
1.68245e-05
1.66594e-05
1.65065e-05
1.63682e-05
1.62387e-05
1.6119e-05
1.59994e-05
1.58956e-05
1.57711e-05
1.56854e-05
1.55025e-05
1.55053e-05
1.50837e-05
1.5362e-05
1.44376e-05
1.54048e-05
1.32403e-05
1.6115e-05
1.18389e-05
1.86515e-05
1.55247e-05
2.44762e-05
2.5163e-05
3.0823e-05
1.94884e-05
1.92557e-05
1.92038e-05
1.90644e-05
1.88204e-05
1.87441e-05
1.89894e-05
1.93014e-05
1.74757e-05
1.03875e-05
2.36124e-06
3.42843e-08
0
0
0
9.52008e-05
0.000524954
0.000667059
0.00363908
0.0085315
0.0145733
0.0203771
0.0243984
0.0252382
0.0216692
0.0112213
0.0162076
0.0226369
0.0229365
0.0188961
0.0126084
0.00638828
0.00201413
0.000256928
7.93037e-05
0
0
0
4.92008e-07
7.27469e-07
1.1752e-05
1.70748e-05
1.78101e-05
1.68357e-05
1.62257e-05
1.61175e-05
1.60892e-05
1.59712e-05
1.58042e-05
1.5635e-05
1.5474e-05
1.5318e-05
1.51679e-05
1.50315e-05
1.49107e-05
1.48089e-05
1.47284e-05
1.46688e-05
1.46303e-05
1.46063e-05
1.45965e-05
1.45879e-05
1.45951e-05
1.45791e-05
1.4601e-05
1.45212e-05
1.46132e-05
1.42716e-05
1.46219e-05
1.37805e-05
1.48277e-05
1.27428e-05
1.57224e-05
1.15247e-05
1.84614e-05
1.54794e-05
2.45048e-05
2.53781e-05
3.09421e-05
1.75083e-05
1.76074e-05
1.74628e-05
1.72857e-05
1.71096e-05
1.70098e-05
1.70764e-05
1.7564e-05
1.71842e-05
1.45143e-05
5.10917e-06
1.255e-06
0
0
0
0
8.90593e-05
0.000511591
0.000672521
0.00358491
0.00831066
0.0140592
0.0194237
0.0228312
0.0228655
0.0182389
0.00469221
0.0173924
0.021256
0.0199497
0.0152352
0.00920088
0.00401546
0.000823179
0.000229688
0
0
0
2.033e-08
1.87887e-06
6.0908e-06
1.28134e-05
1.50237e-05
1.46142e-05
1.38492e-05
1.35825e-05
1.35401e-05
1.34627e-05
1.33315e-05
1.31985e-05
1.30822e-05
1.29831e-05
1.29083e-05
1.28594e-05
1.28405e-05
1.28532e-05
1.28959e-05
1.29663e-05
1.30551e-05
1.3161e-05
1.32666e-05
1.33854e-05
1.3475e-05
1.35986e-05
1.36139e-05
1.37867e-05
1.35227e-05
1.39365e-05
1.31765e-05
1.42926e-05
1.22883e-05
1.53648e-05
1.12364e-05
1.83065e-05
1.54132e-05
2.4565e-05
2.54965e-05
3.10524e-05
1.5805e-05
1.59395e-05
1.58317e-05
1.57134e-05
1.56116e-05
1.54979e-05
1.53882e-05
1.53888e-05
1.56106e-05
1.60007e-05
1.50659e-05
1.04152e-05
2.4218e-06
3.467e-08
0
0
0
0
9.16819e-05
0.000511081
0.000818758
0.00378093
0.00845083
0.013947
0.0187981
0.0214023
0.0203539
0.0142345
0.00964575
0.0179127
0.0194918
0.0167712
0.0116109
0.00610927
0.00208478
0.000320088
6.99896e-05
0
0
0
2.41792e-07
1.96972e-07
8.12922e-06
1.16067e-05
1.19943e-05
1.14053e-05
1.10434e-05
1.09682e-05
1.0926e-05
1.08516e-05
1.07839e-05
1.07491e-05
1.07558e-05
1.08034e-05
1.08942e-05
1.10284e-05
1.11991e-05
1.14007e-05
1.16191e-05
1.18506e-05
1.20755e-05
1.23059e-05
1.24971e-05
1.27134e-05
1.28131e-05
1.30536e-05
1.28641e-05
1.33285e-05
1.26511e-05
1.38161e-05
1.1907e-05
1.50493e-05
1.10188e-05
1.81799e-05
1.53455e-05
2.46513e-05
2.55208e-05
3.118e-05
1.41925e-05
1.43194e-05
1.42218e-05
1.4128e-05
1.40563e-05
1.39795e-05
1.39188e-05
1.3821e-05
1.37532e-05
1.38228e-05
1.42355e-05
1.42395e-05
1.24615e-05
4.74549e-06
1.21167e-06
7.3615e-09
0
0
0
0
0.00010295
0.000510783
0.00110891
0.00423629
0.00892756
0.0141518
0.0183458
0.0199057
0.0174834
0.00902204
0.0130307
0.0176985
0.0172127
0.0133507
0.00809471
0.0034732
0.000650138
0.000214601
1.28936e-05
0
0
5.73882e-09
1.52425e-06
4.70893e-06
8.24607e-06
9.1753e-06
8.81955e-06
8.39602e-06
8.26136e-06
8.25605e-06
8.28145e-06
8.35175e-06
8.49562e-06
8.71132e-06
8.98383e-06
9.29913e-06
9.64337e-06
1.00048e-05
1.03683e-05
1.07283e-05
1.10678e-05
1.13992e-05
1.1678e-05
1.19686e-05
1.21346e-05
1.24211e-05
1.22953e-05
1.27942e-05
1.21952e-05
1.33889e-05
1.15771e-05
1.47627e-05
1.08333e-05
1.80716e-05
1.52572e-05
2.47443e-05
2.54178e-05
3.13406e-05
1.29533e-05
1.3059e-05
1.29962e-05
1.29157e-05
1.28467e-05
1.2795e-05
1.27591e-05
1.26979e-05
1.26282e-05
1.25407e-05
1.25536e-05
1.27154e-05
1.31601e-05
1.23446e-05
9.60171e-06
8.71009e-07
3.00103e-07
0
0
0
0
0
0.000160293
0.000137368
0.00152322
0.00494374
0.00968944
0.0145476
0.0178735
0.0181091
0.0139323
0.00556593
0.0147598
0.0166239
0.0143521
0.00978114
0.00494031
0.00150465
1.69502e-05
9.96036e-05
0
0
0
6.5724e-07
1.34616e-06
3.34765e-06
4.30508e-06
4.74934e-06
4.73476e-06
4.81697e-06
5.19327e-06
5.72265e-06
6.28665e-06
6.86085e-06
7.43615e-06
7.99893e-06
8.53865e-06
9.05318e-06
9.53659e-06
9.99292e-06
1.04118e-05
1.08103e-05
1.11469e-05
1.14803e-05
1.16886e-05
1.19942e-05
1.19216e-05
1.2429e-05
1.19159e-05
1.30956e-05
1.14179e-05
1.45695e-05
1.08041e-05
1.8016e-05
1.51494e-05
2.4858e-05
2.50751e-05
3.16632e-05
1.16293e-05
1.17594e-05
1.17012e-05
1.16226e-05
1.15571e-05
1.15347e-05
1.15281e-05
1.14539e-05
1.14274e-05
1.13927e-05
1.13196e-05
1.12738e-05
1.13844e-05
1.16414e-05
1.18451e-05
1.04342e-05
6.3784e-06
1.76498e-06
4.87875e-08
0
0
0
0
4.40556e-06
0.000269348
0.000182487
0.0021526
0.00591453
0.010661
0.0149525
0.0171038
0.0156457
0.0088698
0.0108644
0.0151654
0.0145602
0.0108928
0.00616201
0.00233991
0.000269658
0.000178665
0
0
0
1.51919e-07
1.53763e-07
2.6505e-06
5.78767e-06
5.21061e-06
4.4728e-06
4.76561e-06
5.46393e-06
6.17112e-06
6.79574e-06
7.35965e-06
7.89279e-06
8.39889e-06
8.87885e-06
9.32661e-06
9.74863e-06
1.01379e-05
1.05103e-05
1.08289e-05
1.11395e-05
1.13322e-05
1.1604e-05
1.15367e-05
1.20216e-05
1.15468e-05
1.27118e-05
1.10712e-05
1.42662e-05
1.04696e-05
1.78569e-05
1.486e-05
2.48529e-05
2.44224e-05
3.21896e-05
1.15791e-05
1.16517e-05
1.16263e-05
1.15581e-05
1.14952e-05
1.14512e-05
1.14223e-05
1.13554e-05
1.13091e-05
1.12561e-05
1.11742e-05
1.11e-05
1.10417e-05
1.10186e-05
1.10994e-05
1.13589e-05
1.09737e-05
9.27598e-06
4.91036e-06
1.54866e-06
5.4134e-08
0
0
0
0
2.7253e-05
0.000382032
0.000552324
0.00310685
0.00723335
0.0119284
0.0155619
0.0164147
0.0130365
0.00530541
0.0133734
0.0147776
0.0122088
0.00765009
0.00312874
0.000892054
0.000211431
0.000164761
7.3162e-05
1.18693e-05
5.53313e-09
1.64129e-07
7.48118e-08
6.64953e-06
9.17763e-06
8.81745e-06
8.26186e-06
8.20229e-06
8.43836e-06
8.74571e-06
9.06183e-06
9.38522e-06
9.71546e-06
1.00435e-05
1.03653e-05
1.06748e-05
1.09795e-05
1.12503e-05
1.15127e-05
1.16782e-05
1.19035e-05
1.18598e-05
1.22762e-05
1.1894e-05
1.2922e-05
1.14849e-05
1.44343e-05
1.08115e-05
1.80337e-05
1.448e-05
2.50954e-05
2.32745e-05
3.39013e-05
1.01733e-05
1.02145e-05
1.02749e-05
1.03111e-05
1.03326e-05
1.03521e-05
1.03851e-05
1.04243e-05
1.04571e-05
1.04771e-05
1.04963e-05
1.05283e-05
1.05583e-05
1.05874e-05
1.06124e-05
1.07299e-05
1.09377e-05
1.11104e-05
1.06765e-05
9.31979e-06
4.92659e-06
1.47751e-06
0
0
0
0
0
7.18721e-05
0.000352217
0.000637488
0.00287266
0.00630777
0.0100304
0.0127281
0.0130534
0.00981753
0.00527067
0.0110436
0.0116895
0.00944352
0.00602312
0.00302278
0.00109661
0.000150313
0.00013883
5.68062e-05
0
3.49948e-09
1.34132e-06
5.30087e-06
8.89411e-06
1.00011e-05
1.00258e-05
9.94628e-06
9.97694e-06
1.00692e-05
1.01785e-05
1.02941e-05
1.04137e-05
1.05349e-05
1.0655e-05
1.0781e-05
1.08939e-05
1.10122e-05
1.1046e-05
1.11187e-05
1.09614e-05
1.1274e-05
1.08e-05
1.18173e-05
1.01198e-05
1.33529e-05
8.85247e-06
1.70474e-05
1.31799e-05
2.39662e-05
2.32424e-05
3.37846e-05
)
;

boundaryField
{
    inlet
    {
        type            calculated;
        value           nonuniform List<scalar> 
27
(
7.73087e-05
7.73768e-05
7.74847e-05
7.7621e-05
7.77655e-05
7.7915e-05
7.8073e-05
7.82381e-05
7.84097e-05
7.8582e-05
7.87542e-05
7.89235e-05
7.90867e-05
7.92407e-05
7.93817e-05
7.95062e-05
7.96166e-05
7.94425e-05
7.94794e-05
7.94801e-05
7.94274e-05
7.93149e-05
7.91265e-05
7.88531e-05
7.8464e-05
7.80774e-05
7.73331e-05
)
;
    }
    outlet
    {
        type            calculated;
        value           nonuniform List<scalar> 
78
(
8.964e-06
9.03038e-06
9.11879e-06
9.17715e-06
9.21612e-06
9.25269e-06
9.30848e-06
9.37288e-06
9.42829e-06
9.46638e-06
9.50361e-06
9.55778e-06
9.61201e-06
9.66516e-06
9.71223e-06
9.84111e-06
1.00469e-05
1.02084e-05
9.81361e-06
8.60521e-06
4.63202e-06
1.42623e-06
0
0
0
0
0
7.20396e-05
0.000351922
0.000617801
0.00285954
0.00629638
0.0100239
0.0127318
0.0130742
0.00986826
0.00509497
0.0109857
0.0116581
0.00943033
0.00602168
0.00302729
0.00110359
0.000122278
0.000135491
5.53347e-05
0
3.2603e-09
1.24982e-06
4.99003e-06
8.41519e-06
9.47373e-06
9.49206e-06
9.40284e-06
9.40949e-06
9.46594e-06
9.53112e-06
9.59658e-06
9.66118e-06
9.72502e-06
9.78599e-06
9.85631e-06
9.91184e-06
9.98625e-06
9.95629e-06
1.00122e-05
9.74796e-06
1.01779e-05
9.43438e-06
1.08965e-05
8.28465e-06
1.2784e-05
4.5811e-06
1.67249e-05
1.24723e-05
2.35599e-05
2.32705e-05
3.28693e-05
)
;
    }
    walls
    {
        type            calculated;
        value           nonuniform List<scalar> 0();
    }
    frontAndBack
    {
        type            empty;
    }
    procBoundary7to3
    {
        type            processor;
        value           nonuniform List<scalar> 
16
(
3.34625e-05
3.49104e-05
3.04271e-05
2.81806e-05
2.65951e-05
2.46955e-05
2.25059e-05
2.04563e-05
1.76672e-05
1.76672e-05
1.59444e-05
1.43332e-05
1.30856e-05
1.17164e-05
1.17101e-05
1.00477e-05
)
;
    }
    procBoundary7to6
    {
        type            processor;
        value           nonuniform List<scalar> 
91
(
3.01773e-05
2.69205e-05
2.69205e-05
2.62768e-05
2.62768e-05
1.68839e-05
1.68839e-05
1.60942e-05
2.17162e-05
2.17162e-05
1.92744e-05
2.07892e-05
2.07892e-05
2.28971e-05
2.14807e-05
2.1416e-05
2.1416e-05
2.47294e-05
2.3929e-05
2.29604e-05
2.29604e-05
2.80633e-05
2.70521e-05
2.6053e-05
2.5069e-05
2.5069e-05
3.19416e-05
3.09488e-05
2.99654e-05
2.89943e-05
2.80368e-05
2.80368e-05
3.66193e-05
3.5771e-05
3.49076e-05
3.40315e-05
3.31465e-05
3.22559e-05
3.1363e-05
3.1363e-05
4.11705e-05
4.07668e-05
4.03361e-05
3.98762e-05
3.93854e-05
3.88634e-05
3.83099e-05
3.77251e-05
3.71103e-05
3.64675e-05
3.57978e-05
3.51033e-05
3.51033e-05
3.15565e-08
0
1.72857e-06
0.000568975
0.000543659
0.0049917
0.0133343
0.0233629
0.0327943
0.0401508
0.0444623
0.0448013
0.0400172
0.0280473
0.0171058
0.0353052
0.0426914
0.0426274
0.0362083
0.0252905
0.0132789
0.00428516
0.000462457
0.000168171
0
0
0
7.20938e-06
2.72e-05
4.23971e-05
4.27789e-05
4.02522e-05
3.93011e-05
3.91492e-05
3.89272e-05
3.86021e-05
3.82792e-05
3.82792e-05
)
;
    }
}


// ************************************************************************* //
