/*--------------------------------*- C++ -*----------------------------------*\
| =========                 |                                                 |
| \\      /  F ield         | OpenFOAM: The Open Source CFD Toolbox           |
|  \\    /   O peration     | Version:  2306                                  |
|   \\  /    A nd           | Website:  www.openfoam.com                      |
|    \\/     M anipulation  |                                                 |
\*---------------------------------------------------------------------------*/
FoamFile
{
    version     2.0;
    format      ascii;
    arch        "LSB;label=32;scalar=64";
    class       volScalarField;
    location    "0.013";
    object      alphat;
}
// * * * * * * * * * * * * * * * * * * * * * * * * * * * * * * * * * * * * * //

dimensions      [1 -1 -1 0 0 0 0];

internalField   nonuniform List<scalar> 
20000
(
0.00043998411
0.0010859952
0.0014237189
0.0015127819
0.0012942425
0.00062517057
1.2647038e-05
1.0632496e-08
8.8735131e-09
8.7640317e-09
8.7650106e-09
8.7186881e-09
8.7082165e-09
8.6871324e-09
8.6780277e-09
8.6679678e-09
8.6626543e-09
8.6591858e-09
8.6586551e-09
8.6604495e-09
8.6645745e-09
8.6707296e-09
8.6784245e-09
8.6869964e-09
8.6955783e-09
8.7031841e-09
8.7089932e-09
8.7122733e-09
8.7126277e-09
8.7102248e-09
8.7054104e-09
8.6986797e-09
8.6906331e-09
8.6818667e-09
8.6726454e-09
8.6632719e-09
8.653809e-09
8.6446809e-09
8.6362944e-09
8.628556e-09
8.6212219e-09
8.6140737e-09
8.6079774e-09
8.6022082e-09
8.5961926e-09
8.5921626e-09
8.5902831e-09
8.5896407e-09
8.5851243e-09
8.5807869e-09
0.00043707701
0.0010713685
0.0013951929
0.0014682905
0.0012344342
0.00054415315
5.0979082e-06
9.8814481e-09
8.8713251e-09
8.7626276e-09
8.7652609e-09
8.7195448e-09
8.709799e-09
8.6894171e-09
8.6808933e-09
8.6714302e-09
8.6666451e-09
8.6636971e-09
8.6636319e-09
8.6658557e-09
8.6703484e-09
8.6767874e-09
8.6846513e-09
8.6932449e-09
8.7016744e-09
8.7089419e-09
8.714265e-09
8.7168981e-09
8.7164953e-09
8.7133957e-09
8.7078768e-09
8.7005874e-09
8.6920284e-09
8.6828761e-09
8.6733329e-09
8.6637052e-09
8.654075e-09
8.6448252e-09
8.6363477e-09
8.6285861e-09
8.6212447e-09
8.6140965e-09
8.6080844e-09
8.6022266e-09
8.5960118e-09
8.5920754e-09
8.5904741e-09
8.5897892e-09
8.5850682e-09
8.5807996e-09
0.0004345127
0.0010578286
0.0013677919
0.0014233234
0.00117208
0.00046339368
1.87569e-06
9.4295398e-09
8.8695734e-09
8.7617098e-09
8.7649714e-09
8.7205896e-09
8.7115128e-09
8.691907e-09
8.6839709e-09
8.675148e-09
8.6709259e-09
8.6685281e-09
8.6689785e-09
8.6716898e-09
8.6766133e-09
8.6834077e-09
8.691512e-09
8.7001985e-09
8.7085341e-09
8.7155075e-09
8.7203644e-09
8.7223131e-09
8.7211607e-09
8.7172729e-09
8.7110196e-09
8.7030633e-09
8.6939583e-09
8.68434e-09
8.6744302e-09
8.6644989e-09
8.6546427e-09
8.6452294e-09
8.6366317e-09
8.6288099e-09
8.6214303e-09
8.6142526e-09
8.6083155e-09
8.6023526e-09
8.5959408e-09
8.5922421e-09
8.5907298e-09
8.5899913e-09
8.585016e-09
8.5808087e-09
0.00043197483
0.0010444551
0.0013411723
0.001380543
0.0011085617
0.00038828839
6.9642238e-07
9.1616881e-09
8.8685596e-09
8.7612549e-09
8.7654964e-09
8.7221339e-09
8.7137168e-09
8.694891e-09
8.6875267e-09
8.6793426e-09
8.6756642e-09
8.6738217e-09
8.6747715e-09
8.6779504e-09
8.6832791e-09
8.6903909e-09
8.6986863e-09
8.7074001e-09
8.7155627e-09
8.7221639e-09
8.7264584e-09
8.7276373e-09
8.7256886e-09
8.7209742e-09
8.713957e-09
8.7053362e-09
8.6956841e-09
8.6856153e-09
8.6753459e-09
8.6651259e-09
8.6550699e-09
8.645513e-09
8.6368047e-09
8.6289295e-09
8.621523e-09
8.6143299e-09
8.6084548e-09
8.6023953e-09
8.5958787e-09
8.5922778e-09
8.5908671e-09
8.5901343e-09
8.584993e-09
8.5808208e-09
0.00042948198
0.0010310014
0.0013144991
0.0013361814
0.001042422
0.00031781741
2.7163531e-07
9.0024348e-09
8.868978e-09
8.7613387e-09
8.7662848e-09
8.724123e-09
8.7163483e-09
8.6983077e-09
8.6915134e-09
8.6839666e-09
8.6808462e-09
8.6795556e-09
8.6810199e-09
8.6846773e-09
8.6904213e-09
8.6978523e-09
8.7063338e-09
8.715055e-09
8.7230118e-09
8.7292048e-09
8.7328659e-09
8.7332244e-09
8.7304284e-09
8.7248369e-09
8.7170185e-09
8.7077011e-09
8.6974825e-09
8.6869487e-09
8.6763096e-09
8.665791e-09
8.6555285e-09
8.6458279e-09
8.6370062e-09
8.6290702e-09
8.6216316e-09
8.6144242e-09
8.6085977e-09
8.6024362e-09
8.5958817e-09
8.5923513e-09
8.5909706e-09
8.5902491e-09
8.5849949e-09
8.5808377e-09
0.00042700643
0.001017364
0.0012867554
0.0012915555
0.00097364604
0.0002522641
1.1687368e-07
8.9069462e-09
8.8692364e-09
8.7619374e-09
8.7676208e-09
8.7265871e-09
8.7194317e-09
8.702186e-09
8.6959513e-09
8.6890503e-09
8.6864809e-09
8.6857591e-09
8.6877341e-09
8.6918693e-09
8.6980211e-09
8.705758e-09
8.7144e-09
8.7230882e-09
8.7307868e-09
8.7365142e-09
8.7394554e-09
8.7389488e-09
8.7352401e-09
8.7287325e-09
8.7200821e-09
8.7100491e-09
8.6992509e-09
8.6882451e-09
8.677227e-09
8.6664056e-09
8.6559439e-09
8.6461102e-09
8.6371807e-09
8.6291852e-09
8.6217178e-09
8.6145034e-09
8.6087136e-09
8.6024484e-09
8.5959122e-09
8.5923925e-09
8.5910608e-09
8.5903364e-09
8.5850358e-09
8.5808548e-09
0.00042462367
0.0010039713
0.0012593416
0.0012468397
0.00090199124
0.0001932337
5.7390402e-08
8.8488138e-09
8.8711115e-09
8.763064e-09
8.7693996e-09
8.7295182e-09
8.7229638e-09
8.7065223e-09
8.7008493e-09
8.6945936e-09
8.6925877e-09
8.6924276e-09
8.6949246e-09
8.6995425e-09
8.7061018e-09
8.7141347e-09
8.7229143e-09
8.7315296e-09
8.7389199e-09
8.7441168e-09
8.7462474e-09
8.744829e-09
8.7401418e-09
8.7326747e-09
8.7231614e-09
8.7123943e-09
8.7010078e-09
8.6895283e-09
8.6781288e-09
8.6669992e-09
8.6563346e-09
8.6463717e-09
8.6373384e-09
8.629284e-09
8.6217914e-09
8.6145774e-09
8.6088156e-09
8.6024443e-09
8.5959619e-09
8.5924756e-09
8.5911479e-09
8.5903906e-09
8.5850796e-09
8.5808681e-09
0.00042231092
0.00099051301
0.0012318207
0.0012021178
0.00082772496
0.00013799802
3.2359595e-08
8.8139964e-09
8.8681388e-09
8.7646737e-09
8.7716928e-09
8.7329225e-09
8.7269518e-09
8.7113283e-09
8.7062122e-09
8.7006124e-09
8.6991662e-09
8.6995854e-09
8.7026036e-09
8.7077034e-09
8.7146637e-09
8.722977e-09
8.7318646e-09
8.7403621e-09
8.7473929e-09
8.7519795e-09
8.7532176e-09
8.7508378e-09
8.7451126e-09
8.7366479e-09
8.7262451e-09
8.7147278e-09
8.7027423e-09
8.6907831e-09
8.678994e-09
8.6675521e-09
8.656689e-09
8.6466058e-09
8.6374714e-09
8.6293573e-09
8.6218419e-09
8.6146384e-09
8.6088993e-09
8.6024219e-09
8.5960123e-09
8.5925841e-09
8.5912305e-09
8.5904128e-09
8.5850946e-09
8.5808706e-09
0.00042005127
0.0009768179
0.0012038365
0.0011568824
0.00075114958
8.8607889e-05
2.0995498e-08
8.793042e-09
8.8694403e-09
8.766816e-09
8.774436e-09
8.7368063e-09
8.7314025e-09
8.7166073e-09
8.7120527e-09
8.7071103e-09
8.7062373e-09
8.7072313e-09
8.7107818e-09
8.7163673e-09
8.7237245e-09
8.7323023e-09
8.7412642e-09
8.7495941e-09
8.7562061e-09
8.7600863e-09
8.7603667e-09
8.7569511e-09
8.7501316e-09
8.740629e-09
8.7293116e-09
8.7170316e-09
8.7044433e-09
8.6920064e-09
8.6798287e-09
8.668071e-09
8.657008e-09
8.6468115e-09
8.6375815e-09
8.6294064e-09
8.6218686e-09
8.614684e-09
8.6089632e-09
8.6023713e-09
8.5960585e-09
8.5927022e-09
8.5913127e-09
8.5904138e-09
8.5850843e-09
8.58086e-09
0.00041779919
0.00096277459
0.0011746541
0.0011087524
0.00067305721
4.8822261e-05
1.5448152e-08
8.7809994e-09
8.8701695e-09
8.769469e-09
8.7775529e-09
8.741169e-09
8.7363217e-09
8.7223682e-09
8.7183738e-09
8.7141017e-09
8.713802e-09
8.7153894e-09
8.7194714e-09
8.7255404e-09
8.733285e-09
8.7421057e-09
8.7511022e-09
8.7592108e-09
8.7653397e-09
8.7684136e-09
8.7676798e-09
8.7631492e-09
8.7551866e-09
8.7446123e-09
8.7323601e-09
8.7193067e-09
8.7061094e-09
8.6931917e-09
8.68062e-09
8.6685441e-09
8.6572866e-09
8.646988e-09
8.6376676e-09
8.6294299e-09
8.6218722e-09
8.6147144e-09
8.6090075e-09
8.6022927e-09
8.5960944e-09
8.5928167e-09
8.591401e-09
8.590404e-09
8.5850559e-09
8.5808343e-09
0.00041559567
0.00094862496
0.0011445869
0.0010613846
0.00059478766
2.2664094e-05
1.2592889e-08
8.7745396e-09
8.871446e-09
8.7726311e-09
8.7809474e-09
8.7460026e-09
8.741716e-09
8.7286178e-09
8.7251926e-09
8.7215948e-09
8.7218834e-09
8.7240606e-09
8.728685e-09
8.7352393e-09
8.7433626e-09
8.7524026e-09
8.7613885e-09
8.7692191e-09
8.7747838e-09
8.7769441e-09
8.7751325e-09
8.7694044e-09
8.7602449e-09
8.7485639e-09
8.7353583e-09
8.7215266e-09
8.7077237e-09
8.6943328e-09
8.6813721e-09
8.6689764e-09
8.6575237e-09
8.6471323e-09
8.637729e-09
8.6294267e-09
8.62185e-09
8.614728e-09
8.6090331e-09
8.6022024e-09
8.5961223e-09
8.5929228e-09
8.5914924e-09
8.5903891e-09
8.5850105e-09
8.5807904e-09
0.00041343744
0.00093455292
0.0011147695
0.0010139348
0.00051709404
9.0643843e-06
1.1047775e-08
8.7716509e-09
8.8730632e-09
8.7763068e-09
8.784742e-09
8.7513256e-09
8.747604e-09
8.7353747e-09
8.7325194e-09
8.7296082e-09
8.7304862e-09
8.733271e-09
8.7384355e-09
8.7454699e-09
8.7539575e-09
8.7631861e-09
8.7721116e-09
8.7796062e-09
8.7845085e-09
8.7856594e-09
8.7827017e-09
8.7757023e-09
8.7652992e-09
8.7524846e-09
8.7383123e-09
8.7236975e-09
8.7092876e-09
8.6954232e-09
8.6820713e-09
8.6693568e-09
8.6577163e-09
8.6472436e-09
8.6377649e-09
8.6293959e-09
8.6218002e-09
8.614723e-09
8.6090396e-09
8.6020961e-09
8.5961435e-09
8.5930211e-09
8.5915902e-09
8.5903739e-09
8.5849483e-09
8.5807252e-09
0.00041131522
0.00092054631
0.0010853419
0.00096554337
0.00044112174
3.2986532e-06
1.0190305e-08
8.7711441e-09
8.8752482e-09
8.7805538e-09
8.7893081e-09
8.7571748e-09
8.7540042e-09
8.7426527e-09
8.740374e-09
8.7381518e-09
8.7396344e-09
8.7430231e-09
8.7487368e-09
8.7562496e-09
8.7650858e-09
8.7744684e-09
8.7832766e-09
8.7903678e-09
8.794488e-09
8.7945569e-09
8.7903517e-09
8.7820111e-09
8.7703151e-09
8.7563395e-09
8.74119e-09
8.7257938e-09
8.7107851e-09
8.6964577e-09
8.6827217e-09
8.6696899e-09
8.657862e-09
8.6473168e-09
8.6377739e-09
8.6293401e-09
8.6217246e-09
8.6146975e-09
8.6090282e-09
8.601971e-09
8.5961565e-09
8.5931139e-09
8.5916905e-09
8.5903605e-09
8.584879e-09
8.5806438e-09
0.00040913278
0.00090607617
0.0010549313
0.00091538279
0.00036922967
1.1674272e-06
9.7091574e-09
8.7723416e-09
8.8783373e-09
8.7853868e-09
8.7948672e-09
8.7635901e-09
8.7609345e-09
8.7504695e-09
8.7487677e-09
8.7472462e-09
8.7493375e-09
8.7533456e-09
8.759602e-09
8.7675832e-09
8.7767464e-09
8.7862394e-09
8.79487e-09
8.8014804e-09
8.8046982e-09
8.803609e-09
8.798059e-09
8.7883143e-09
8.7752846e-09
8.7601292e-09
8.7439976e-09
8.7278219e-09
8.7122179e-09
8.6974299e-09
8.6833109e-09
8.6699655e-09
8.6579568e-09
8.6473515e-09
8.6377581e-09
8.6292642e-09
8.6216285e-09
8.6146538e-09
8.6089967e-09
8.6018275e-09
8.5961628e-09
8.5932048e-09
8.5917941e-09
8.5903482e-09
8.5848061e-09
8.5805545e-09
0.00040689136
0.00089130873
0.0010237574
0.00086289533
0.00030167255
4.246942e-07
9.4381745e-09
8.7747644e-09
8.8815797e-09
8.7908187e-09
8.8010011e-09
8.7705778e-09
8.7684073e-09
8.7588368e-09
8.7577201e-09
8.7569067e-09
8.759622e-09
8.7642383e-09
8.7710466e-09
8.7794873e-09
8.7889563e-09
8.7985062e-09
8.8069008e-09
8.8129257e-09
8.8151195e-09
8.8127841e-09
8.8057866e-09
8.7945705e-09
8.7801649e-09
8.7638109e-09
8.7466956e-09
8.729751e-09
8.7135677e-09
8.6983355e-09
8.6838442e-09
8.6701862e-09
8.6579993e-09
8.6473484e-09
8.6377201e-09
8.6291672e-09
8.6215087e-09
8.6145968e-09
8.6089405e-09
8.6016673e-09
8.5961637e-09
8.5932956e-09
8.5919024e-09
8.590337e-09
8.5847278e-09
8.5804569e-09
0.0004046106
0.00087638305
0.0009918713
0.00080887095
0.00023792671
1.6825043e-07
9.2821123e-09
8.7782043e-09
8.885375e-09
8.7968401e-09
8.807063e-09
8.7781223e-09
8.7764397e-09
8.7677733e-09
8.7672447e-09
8.7671543e-09
8.7704833e-09
8.7757224e-09
8.7830783e-09
8.7919676e-09
8.8017074e-09
8.8112624e-09
8.8193493e-09
8.8246724e-09
8.825724e-09
8.8220506e-09
8.8135139e-09
8.8007677e-09
8.784955e-09
8.7673934e-09
8.7492983e-09
8.7315932e-09
8.7148385e-09
8.6991679e-09
8.6843081e-09
8.6703435e-09
8.6579961e-09
8.6473123e-09
8.6376544e-09
8.6290304e-09
8.621351e-09
8.6145255e-09
8.6088363e-09
8.6014944e-09
8.5961621e-09
8.5933882e-09
8.5920164e-09
8.5903264e-09
8.5846435e-09
8.5803495e-09
0.00040233185
0.0008615727
0.00095938207
0.00075297286
0.00017823756
7.5934516e-08
9.1916883e-09
8.7824923e-09
8.8895531e-09
8.8034734e-09
8.8128542e-09
8.7862074e-09
8.7850518e-09
8.7772867e-09
8.7773609e-09
8.7779834e-09
8.7819436e-09
8.7878111e-09
8.7957154e-09
8.8050409e-09
8.8150131e-09
8.8245125e-09
8.8322081e-09
8.8366859e-09
8.8365076e-09
8.8313619e-09
8.8211997e-09
8.8068631e-09
8.789612e-09
8.770835e-09
8.7517681e-09
8.7333198e-09
8.7160142e-09
8.6999238e-09
8.6847069e-09
8.6704459e-09
8.6579478e-09
8.6472214e-09
8.6375414e-09
8.6288668e-09
8.6211752e-09
8.6144244e-09
8.6087033e-09
8.6013132e-09
8.5961599e-09
8.5934831e-09
8.5921358e-09
8.5903152e-09
8.5845522e-09
8.580232e-09
0.00040017252
0.00084727545
0.00092710912
0.00069408607
0.00012521733
3.9994517e-08
9.1389974e-09
8.7876336e-09
8.8944978e-09
8.8107219e-09
8.8194596e-09
8.7948487e-09
8.7942386e-09
8.7873898e-09
8.7880655e-09
8.7894219e-09
8.7940207e-09
8.8005191e-09
8.808969e-09
8.8187075e-09
8.8288667e-09
8.8382408e-09
8.8454513e-09
8.8489385e-09
8.8474278e-09
8.8406889e-09
8.828821e-09
8.8128447e-09
8.7941358e-09
8.7741455e-09
8.7541198e-09
8.7349432e-09
8.7170989e-09
8.7005963e-09
8.6850289e-09
8.6704928e-09
8.6578322e-09
8.6470812e-09
8.6374016e-09
8.6286856e-09
8.620981e-09
8.6142953e-09
8.6085448e-09
8.6011309e-09
8.5961586e-09
8.5935795e-09
8.5922595e-09
8.5903016e-09
8.5844529e-09
8.5801043e-09
0.00039814409
0.00083347322
0.00089857598
0.00063241558
7.8210263e-05
2.4448568e-08
9.1084726e-09
8.7934715e-09
8.8998414e-09
8.8185856e-09
8.8280904e-09
8.8041074e-09
8.804015e-09
8.7980878e-09
8.799387e-09
8.8014758e-09
8.8067293e-09
8.8138657e-09
8.8228573e-09
8.8329843e-09
8.843278e-09
8.8524512e-09
8.8590599e-09
8.8613957e-09
8.8584493e-09
8.8499832e-09
8.8363265e-09
8.8186603e-09
8.798475e-09
8.7772749e-09
8.7563089e-09
8.7364305e-09
8.7180748e-09
8.7011815e-09
8.6852815e-09
8.6704825e-09
8.6576627e-09
8.6469073e-09
8.6372285e-09
8.6284774e-09
8.6207663e-09
8.6141553e-09
8.6083408e-09
8.6009532e-09
8.5961577e-09
8.5936756e-09
8.5923852e-09
8.5902824e-09
8.5843443e-09
8.5799664e-09
0.00039614439
0.0008192654
0.00086738615
0.00056759492
4.1909274e-05
1.7186921e-08
9.0913634e-09
8.8000009e-09
8.9056993e-09
8.8270679e-09
8.8376728e-09
8.8140137e-09
8.8143861e-09
8.8094e-09
8.8113277e-09
8.8141765e-09
8.8200915e-09
8.8278672e-09
8.8373888e-09
8.8478695e-09
8.8582376e-09
8.8671274e-09
8.8729876e-09
8.8740301e-09
8.8695255e-09
8.8592166e-09
8.8436975e-09
8.8243062e-09
8.8026393e-09
8.7802435e-09
8.7583587e-09
8.7377995e-09
8.7189473e-09
8.7016729e-09
8.6854599e-09
8.6703843e-09
8.6574501e-09
8.6466858e-09
8.6370189e-09
8.6282441e-09
8.6205348e-09
8.6139987e-09
8.6080856e-09
8.600778e-09
8.5961543e-09
8.593769e-09
8.5925105e-09
8.5902544e-09
8.5842255e-09
8.5798189e-09
0.00039431073
0.00080528408
0.0008369278
0.00050091038
1.9036935e-05
1.3556538e-08
9.0824028e-09
8.8071944e-09
8.9121675e-09
8.8361876e-09
8.846954e-09
8.8245342e-09
8.8253837e-09
8.8213449e-09
8.8239284e-09
8.8275343e-09
8.8341252e-09
8.8425428e-09
8.8525816e-09
8.8633752e-09
8.87375e-09
8.8822526e-09
8.8871967e-09
8.8868261e-09
8.8805981e-09
8.8683365e-09
8.8508819e-09
8.8297316e-09
8.8065798e-09
8.7830045e-09
8.7602284e-09
8.7390203e-09
8.7197007e-09
8.7020706e-09
8.6855699e-09
8.6702242e-09
8.6571817e-09
8.6464201e-09
8.6367716e-09
8.6279831e-09
8.6202858e-09
8.6138241e-09
8.6077862e-09
8.600594e-09
8.5961447e-09
8.5938579e-09
8.592634e-09
8.5902215e-09
8.5840956e-09
8.5796631e-09
0.00039257132
0.00079125205
0.0008056482
0.00043328236
7.5048335e-06
1.164705e-08
9.0784779e-09
8.8151034e-09
8.9192183e-09
8.8459473e-09
8.8558386e-09
8.8356623e-09
8.8370347e-09
8.8339572e-09
8.8372e-09
8.8415845e-09
8.8488543e-09
8.8579085e-09
8.8684409e-09
8.8794964e-09
8.8897978e-09
8.897798e-09
8.9016466e-09
8.8997316e-09
8.8916271e-09
8.8773108e-09
8.8578619e-09
8.8349344e-09
8.8103081e-09
8.7855793e-09
8.7619418e-09
8.7401108e-09
8.7203408e-09
8.7023761e-09
8.6855793e-09
8.6700085e-09
8.6568667e-09
8.6461114e-09
8.636486e-09
8.6276944e-09
8.6200192e-09
8.613628e-09
8.6074466e-09
8.6003941e-09
8.596126e-09
8.5939409e-09
8.5927558e-09
8.5901859e-09
8.583954e-09
8.5795005e-09
0.00039078269
0.00077588075
0.0007734976
0.0003670073
2.7316872e-06
1.0609887e-08
9.0776508e-09
8.8237906e-09
8.9269393e-09
8.8563956e-09
8.8653586e-09
8.847427e-09
8.8493747e-09
8.8472571e-09
8.8511806e-09
8.8563373e-09
8.8642969e-09
8.8739849e-09
8.8849821e-09
8.8962446e-09
8.9063781e-09
8.9137406e-09
8.9162917e-09
8.9127031e-09
8.902551e-09
8.8860763e-09
8.8645762e-09
8.8398554e-09
8.8137668e-09
8.7879136e-09
8.7634527e-09
8.7410369e-09
8.7208529e-09
8.7025917e-09
8.6854854e-09
8.6697281e-09
8.6565015e-09
8.6457589e-09
8.636162e-09
8.6273772e-09
8.6197326e-09
8.6134071e-09
8.6070713e-09
8.6001748e-09
8.5960957e-09
8.5940182e-09
8.5928772e-09
8.5901403e-09
8.5837998e-09
8.5793321e-09
0.0003888664
0.00075936966
0.00073987698
0.00030460155
9.7804496e-07
1.0029621e-08
9.0789811e-09
8.8332699e-09
8.9353247e-09
8.867571e-09
8.8764739e-09
8.8598993e-09
8.8624192e-09
8.8612707e-09
8.8658787e-09
8.8718276e-09
8.880478e-09
8.8907838e-09
8.9022102e-09
8.9136072e-09
8.9234771e-09
8.9300163e-09
8.9311032e-09
8.9256729e-09
8.9133297e-09
8.8946059e-09
8.8710164e-09
8.8445042e-09
8.8169805e-09
8.7900409e-09
8.7647933e-09
8.7418198e-09
8.7212517e-09
8.7026973e-09
8.6853292e-09
8.6693863e-09
8.6560907e-09
8.6453646e-09
8.6358001e-09
8.6270324e-09
8.6194242e-09
8.6131567e-09
8.6066657e-09
8.5999366e-09
8.5960488e-09
8.5940905e-09
8.593e-09
8.5900785e-09
8.5836328e-09
8.5791577e-09
0.00038671077
0.00074118089
0.00070343791
0.00024477349
3.6451384e-07
9.7015385e-09
9.0824682e-09
8.8435757e-09
8.9444281e-09
8.8795048e-09
8.8890688e-09
8.8731302e-09
8.8761868e-09
8.8760116e-09
8.8813294e-09
8.8880663e-09
8.8974162e-09
8.9083246e-09
8.9201374e-09
8.9315888e-09
8.941072e-09
8.9465812e-09
8.9460507e-09
8.938572e-09
8.923897e-09
8.9028366e-09
8.877124e-09
8.8488262e-09
8.8198975e-09
8.7919125e-09
8.7659199e-09
8.7424324e-09
8.721528e-09
8.7026596e-09
8.6850894e-09
8.6689834e-09
8.6556333e-09
8.6449284e-09
8.6354013e-09
8.6266616e-09
8.6190923e-09
8.6128717e-09
8.6062338e-09
8.5996837e-09
8.5959918e-09
8.5941594e-09
8.5931263e-09
8.5900007e-09
8.5834524e-09
8.5789774e-09
0.00038422501
0.00072102245
0.00066046664
0.00018781618
1.4981482e-07
9.5170081e-09
9.0874351e-09
8.8546893e-09
8.954233e-09
8.8921888e-09
8.9022779e-09
8.8871232e-09
8.8906947e-09
8.8915087e-09
8.8975456e-09
8.9050926e-09
8.915133e-09
8.9266198e-09
8.9387586e-09
8.9501726e-09
8.959124e-09
8.9633822e-09
8.9610665e-09
8.9513437e-09
8.9342091e-09
8.9107432e-09
8.8828938e-09
8.852835e-09
8.8225458e-09
8.793562e-09
8.7668624e-09
8.7429065e-09
8.7216633e-09
8.7025345e-09
8.6847669e-09
8.6685239e-09
8.655134e-09
8.6444513e-09
8.6349663e-09
8.6262677e-09
8.6187384e-09
8.6125481e-09
8.6057804e-09
8.5994232e-09
8.5959309e-09
8.5942262e-09
8.5932561e-09
8.5899042e-09
8.583258e-09
8.5787914e-09
0.00038149208
0.00069967068
0.00061265384
0.00013522285
7.0604174e-08
9.4132957e-09
9.0926355e-09
8.8666348e-09
8.9647847e-09
8.9056251e-09
8.9154611e-09
8.9018496e-09
8.9059723e-09
8.9077815e-09
8.9145671e-09
8.9229178e-09
8.9336515e-09
8.9456865e-09
8.9580845e-09
8.9693557e-09
8.9775951e-09
8.9803722e-09
8.9760807e-09
8.9639178e-09
8.9441886e-09
8.9182541e-09
8.8882593e-09
8.8564681e-09
8.8248652e-09
8.7949308e-09
8.7675807e-09
8.7432143e-09
8.7216186e-09
8.7022994e-09
8.6843596e-09
8.6680076e-09
8.6545928e-09
8.6439336e-09
8.6344956e-09
8.6258541e-09
8.6183663e-09
8.6121846e-09
8.6053077e-09
8.5991628e-09
8.5958673e-09
8.5942911e-09
8.5933876e-09
8.5897857e-09
8.5830494e-09
8.5786011e-09
0.00037856035
0.00067745474
0.00056015222
9.0261631e-05
3.8764405e-08
9.3558055e-09
9.0985594e-09
8.879513e-09
8.9760684e-09
8.9198032e-09
8.9286767e-09
8.9172955e-09
8.9220392e-09
8.9248614e-09
8.9324093e-09
8.9415821e-09
8.9529928e-09
8.9655304e-09
8.9781065e-09
8.9891115e-09
8.9964104e-09
8.9975057e-09
8.991013e-09
8.9762334e-09
8.9537987e-09
8.9253562e-09
8.8932314e-09
8.8597561e-09
8.8268964e-09
8.7960655e-09
8.7681301e-09
8.7433341e-09
8.721479e-09
8.7019541e-09
8.6838721e-09
8.6674415e-09
8.6540148e-09
8.6433758e-09
8.6339892e-09
8.6254244e-09
8.6179837e-09
8.6117845e-09
8.6048195e-09
8.5989114e-09
8.5958056e-09
8.5943536e-09
8.5935166e-09
8.5896412e-09
8.5828262e-09
8.5784081e-09
0.0003753551
0.00065436525
0.00050753822
5.3265552e-05
2.4529163e-08
9.3252493e-09
9.105253e-09
8.8934493e-09
8.9881243e-09
8.934752e-09
8.9430259e-09
8.9335049e-09
8.9389317e-09
8.9427761e-09
8.9511163e-09
8.9611023e-09
8.9731779e-09
8.986165e-09
8.9988254e-09
9.0094108e-09
9.0155116e-09
9.0147297e-09
9.0057722e-09
8.9882083e-09
8.9629625e-09
8.931982e-09
8.8977503e-09
8.8626418e-09
8.8285816e-09
8.796927e-09
8.7684692e-09
8.7432602e-09
8.7211842e-09
8.7014914e-09
8.6833013e-09
8.6668247e-09
8.6534009e-09
8.6427794e-09
8.6334466e-09
8.62498e-09
8.617599e-09
8.6113552e-09
8.6043204e-09
8.5986768e-09
8.5957521e-09
8.594414e-09
8.5936371e-09
8.5894659e-09
8.5825886e-09
8.5782142e-09
0.00037176413
0.00062884091
0.00045424429
2.6987386e-05
1.7667295e-08
9.3108721e-09
9.1127689e-09
8.9089357e-09
9.0009191e-09
8.9505172e-09
8.9590576e-09
8.9505792e-09
8.9566799e-09
8.9615672e-09
8.9707138e-09
8.9815209e-09
8.9942247e-09
9.0075888e-09
9.0202215e-09
9.0302026e-09
9.0348301e-09
9.0319561e-09
9.0202875e-09
8.9997817e-09
8.9716473e-09
8.9381256e-09
8.9018334e-09
8.8651565e-09
8.8299687e-09
8.797581e-09
8.7685646e-09
8.7430602e-09
8.7207538e-09
8.7009179e-09
8.6826545e-09
8.6661651e-09
8.6527555e-09
8.6421457e-09
8.6328671e-09
8.6245206e-09
8.6172194e-09
8.6109049e-09
8.6038196e-09
8.5984703e-09
8.5957133e-09
8.5944717e-09
8.5937402e-09
8.5892546e-09
8.5823372e-09
8.5780215e-09
0.00036840378
0.00060501898
0.00039955355
1.182542e-05
1.4204618e-08
9.3063424e-09
9.1211723e-09
8.9268457e-09
9.0145062e-09
8.9671558e-09
8.976347e-09
8.9685872e-09
8.9753332e-09
8.9812739e-09
8.9912502e-09
9.0028472e-09
9.0161496e-09
9.0298065e-09
9.0422866e-09
9.0514237e-09
9.0543095e-09
9.0490819e-09
9.0344733e-09
9.0108587e-09
8.9797702e-09
8.9437143e-09
8.9054112e-09
8.8672332e-09
8.8310139e-09
8.797935e-09
8.768448e-09
8.7426611e-09
8.7201696e-09
8.7002211e-09
8.6819242e-09
8.6654597e-09
8.6520802e-09
8.6414781e-09
8.6322506e-09
8.624042e-09
8.6168467e-09
8.6104382e-09
8.6033274e-09
8.5983016e-09
8.5956972e-09
8.5945243e-09
8.5938199e-09
8.5890009e-09
8.5820734e-09
8.577832e-09
0.0003652338
0.00058164913
0.00034411521
4.6473568e-06
1.2307805e-08
9.3078574e-09
9.1304816e-09
8.9459706e-09
9.0289848e-09
8.9847161e-09
8.994095e-09
8.9875303e-09
8.9949325e-09
9.0019431e-09
9.0127336e-09
9.0251151e-09
9.0389584e-09
9.0528127e-09
9.0649761e-09
9.0729833e-09
9.0738881e-09
9.0660071e-09
9.0482412e-09
9.0213896e-09
8.9873132e-09
8.9487594e-09
8.9085158e-09
8.8689323e-09
8.8317915e-09
8.7980055e-09
8.7681581e-09
8.7421068e-09
8.7194467e-09
8.6994136e-09
8.6811219e-09
8.6647159e-09
8.651377e-09
8.6407795e-09
8.6315983e-09
8.623538e-09
8.616474e-09
8.609945e-09
8.6028565e-09
8.5981821e-09
8.5957156e-09
8.5945726e-09
8.5938555e-09
8.5886992e-09
8.581799e-09
8.5776474e-09
0.0003623151
0.0005575027
0.00028849038
1.7230515e-06
1.1254547e-08
9.3133835e-09
9.140747e-09
8.9661357e-09
9.0444384e-09
9.0032118e-09
9.0120478e-09
9.0073925e-09
9.015527e-09
9.0235873e-09
9.0352073e-09
9.0483443e-09
9.0626625e-09
9.0766018e-09
9.0882482e-09
9.0948125e-09
9.0934715e-09
9.0826207e-09
9.0614908e-09
9.0312836e-09
8.9942019e-09
8.9531955e-09
8.9110903e-09
8.8702196e-09
8.832175e-09
8.7978478e-09
8.7676384e-09
8.7413686e-09
8.7185667e-09
8.6984794e-09
8.6802361e-09
8.6639284e-09
8.6506465e-09
8.6400542e-09
8.630913e-09
8.6230008e-09
8.6160858e-09
8.6094039e-09
8.6024179e-09
8.5980944e-09
8.5957789e-09
8.5946273e-09
8.5938559e-09
8.5883446e-09
8.5815164e-09
8.5774688e-09
0.00035987303
0.00053253305
0.00023343208
6.3773371e-07
1.0663879e-08
9.3214936e-09
9.1519366e-09
8.9873201e-09
9.0608181e-09
9.0226576e-09
9.0309008e-09
9.0282117e-09
9.0371383e-09
9.0462606e-09
9.0587048e-09
9.0725526e-09
9.0872641e-09
9.1011443e-09
9.112034e-09
9.1168136e-09
9.1129472e-09
9.0988235e-09
9.0741398e-09
9.0404984e-09
9.0004272e-09
8.9570409e-09
8.9131911e-09
8.8711616e-09
8.8322474e-09
8.7974576e-09
8.7669424e-09
8.7404726e-09
8.7175473e-09
8.6974345e-09
8.6792803e-09
8.6631022e-09
8.6498868e-09
8.6393048e-09
8.6302006e-09
8.6224243e-09
8.6156594e-09
8.6088083e-09
8.6019957e-09
8.5980114e-09
8.5958771e-09
8.5947169e-09
8.5938371e-09
8.5879346e-09
8.5812271e-09
8.5772973e-09
0.00035809934
0.00050748687
0.00018031412
2.5205194e-07
1.032418e-08
9.3314546e-09
9.164068e-09
9.0095717e-09
9.0781709e-09
9.0431034e-09
9.0515926e-09
9.050097e-09
9.0598204e-09
9.0699876e-09
9.0832511e-09
9.0977585e-09
9.1127643e-09
9.1264188e-09
9.1362415e-09
9.1389106e-09
9.1321836e-09
9.1144934e-09
9.0860832e-09
9.0489406e-09
9.0059107e-09
8.9602308e-09
8.9147756e-09
8.8715974e-09
8.8320208e-09
8.7967936e-09
8.7660282e-09
8.7393942e-09
8.7163676e-09
8.6962576e-09
8.6782382e-09
8.6622295e-09
8.6490954e-09
8.6385334e-09
8.629468e-09
8.621806e-09
8.6151722e-09
8.6081548e-09
8.6015705e-09
8.5979001e-09
8.5959645e-09
8.5948627e-09
8.5937959e-09
8.5874704e-09
8.5809322e-09
8.5771337e-09
0.00035677104
0.00047991722
0.00013016055
1.1161778e-07
1.012312e-08
9.3430235e-09
9.1772113e-09
9.0328604e-09
9.0964643e-09
9.0646122e-09
9.0736772e-09
9.0731104e-09
9.0835938e-09
9.0948184e-09
9.1088755e-09
9.1239711e-09
9.139148e-09
9.1523613e-09
9.1607511e-09
9.1610168e-09
9.1510374e-09
9.1295234e-09
9.0972484e-09
9.056586e-09
9.0106642e-09
8.962823e-09
8.9159057e-09
8.8716601e-09
8.8314986e-09
8.7959221e-09
8.764941e-09
8.7381628e-09
8.7150516e-09
8.6949716e-09
8.6771257e-09
8.6613124e-09
8.6482659e-09
8.6377381e-09
8.6287225e-09
8.6211495e-09
8.614605e-09
8.6074351e-09
8.6011337e-09
8.5977589e-09
8.5960364e-09
8.5950328e-09
8.5937326e-09
8.5869595e-09
8.5806308e-09
8.5769787e-09
0.00035564306
0.00044779499
8.5132561e-05
5.7028607e-08
1.0001588e-08
9.356081e-09
9.1914091e-09
9.0570132e-09
9.1158748e-09
9.0872236e-09
9.0964428e-09
9.0972441e-09
9.1085221e-09
9.1207757e-09
9.1356001e-09
9.1511977e-09
9.1663989e-09
9.1789065e-09
9.1854645e-09
9.1829821e-09
9.1693745e-09
9.1437804e-09
9.1075314e-09
9.0633517e-09
9.0146293e-09
8.9647842e-09
8.9164079e-09
8.8713385e-09
8.8306565e-09
8.794795e-09
8.7636497e-09
8.7367569e-09
8.7135787e-09
8.6935531e-09
8.675924e-09
8.6603418e-09
8.6473927e-09
8.6369143e-09
8.6279691e-09
8.6204643e-09
8.6139479e-09
8.6066464e-09
8.6006897e-09
8.5976035e-09
8.596104e-09
8.5952044e-09
8.5935814e-09
8.5864116e-09
8.5803241e-09
8.5768328e-09
0.00035458504
0.00041190287
4.9797846e-05
3.3958158e-08
9.9261779e-09
9.3705978e-09
9.2067062e-09
9.0821577e-09
9.1365712e-09
9.1109183e-09
9.120053e-09
9.1225138e-09
9.1346325e-09
9.1479125e-09
9.16345e-09
9.1794369e-09
9.1944736e-09
9.2059462e-09
9.2102614e-09
9.2046522e-09
9.187057e-09
9.157164e-09
9.1168745e-09
9.0692288e-09
9.0178493e-09
8.9661632e-09
8.9164626e-09
8.8706573e-09
8.829559e-09
8.7934706e-09
8.7621942e-09
8.7352049e-09
8.7119754e-09
8.6920284e-09
8.6746493e-09
8.659318e-09
8.6464675e-09
8.6360536e-09
8.627208e-09
8.6197615e-09
8.613198e-09
8.6057999e-09
8.6002539e-09
8.5974614e-09
8.5961688e-09
8.5953701e-09
8.5933333e-09
8.5858352e-09
8.5800153e-09
8.5766969e-09
0.00035324462
0.00037140904
2.5941239e-05
2.3198043e-08
9.8780435e-09
9.3865791e-09
9.2230934e-09
9.1085872e-09
9.1586007e-09
9.1356881e-09
9.1450416e-09
9.1490191e-09
9.1619949e-09
9.1762543e-09
9.1924397e-09
9.2086844e-09
9.2233203e-09
9.2333329e-09
9.2350439e-09
9.2258451e-09
9.2039171e-09
9.169554e-09
9.1251723e-09
9.0741468e-09
9.0202846e-09
8.9667644e-09
8.9160218e-09
8.8695759e-09
8.8281488e-09
8.7919055e-09
8.760546e-09
8.733488e-09
8.7102227e-09
8.6903739e-09
8.6732813e-09
8.6582318e-09
8.6454855e-09
8.6351462e-09
8.6264327e-09
8.6190497e-09
8.6123567e-09
8.6049293e-09
8.5998429e-09
8.5973396e-09
8.5962331e-09
8.5955364e-09
8.5929684e-09
8.5852409e-09
8.5797072e-09
8.5765705e-09
0.00035116954
0.00032616723
1.1965532e-05
1.7740918e-08
9.8463417e-09
9.4041144e-09
9.2405236e-09
9.1364568e-09
9.1817793e-09
9.1616965e-09
9.1712689e-09
9.176851e-09
9.190649e-09
9.2058486e-09
9.2225818e-09
9.2389064e-09
9.2528451e-09
9.2609338e-09
9.2596379e-09
9.2463845e-09
9.2198264e-09
9.1808506e-09
9.1323986e-09
9.0781415e-09
9.0219815e-09
8.9668102e-09
8.9151329e-09
8.8681741e-09
8.8265029e-09
8.790157e-09
8.7587447e-09
8.7316365e-09
8.7083525e-09
8.6886216e-09
8.6718372e-09
8.6570835e-09
8.6444428e-09
8.634184e-09
8.6256309e-09
8.6183261e-09
8.6114219e-09
8.6040915e-09
8.5994714e-09
8.5972544e-09
8.5962993e-09
8.5956841e-09
8.592463e-09
8.5846419e-09
8.5794005e-09
8.5764501e-09
0.00034798768
0.00027125708
5.1631282e-06
1.4832197e-08
9.8250237e-09
9.4229679e-09
9.2590763e-09
9.1657513e-09
9.2063173e-09
9.189053e-09
9.1991197e-09
9.2060324e-09
9.2206598e-09
9.2367094e-09
9.2538719e-09
9.2700607e-09
9.2829303e-09
9.2885995e-09
9.2838458e-09
9.2660846e-09
9.2346157e-09
9.1909356e-09
9.1384779e-09
9.0811789e-09
9.022742e-09
8.9662472e-09
8.9137612e-09
8.866399e-09
8.8245724e-09
8.7881883e-09
8.7567658e-09
8.7296342e-09
8.7063491e-09
8.6867518e-09
8.6702988e-09
8.6558649e-09
8.6433404e-09
8.6331629e-09
8.6247875e-09
8.6175769e-09
8.6104053e-09
8.603333e-09
8.5991631e-09
8.5971983e-09
8.5963598e-09
8.5957955e-09
8.5918088e-09
8.5840522e-09
8.5790954e-09
8.5763335e-09
0.00034501266
0.0002253464
2.2960433e-06
1.320352e-08
9.8105706e-09
9.4431962e-09
9.2789149e-09
9.1966448e-09
9.2323363e-09
9.2178192e-09
9.228369e-09
9.2366347e-09
9.2520489e-09
9.2688675e-09
9.2862916e-09
9.3020757e-09
9.3133859e-09
9.3161952e-09
9.3074388e-09
9.2847646e-09
9.248159e-09
9.1997446e-09
9.1434241e-09
9.0832896e-09
9.0228034e-09
8.9651246e-09
8.911989e-09
8.8643367e-09
8.8224282e-09
8.7860496e-09
8.7546422e-09
8.7275084e-09
8.7042452e-09
8.6847989e-09
8.6686834e-09
8.6545769e-09
8.6421827e-09
8.6320875e-09
8.6238894e-09
8.6167771e-09
8.6093448e-09
8.6026546e-09
8.5989301e-09
8.5971998e-09
8.5964105e-09
8.5958e-09
8.5910205e-09