/*--------------------------------*- C++ -*----------------------------------*\
| =========                 |                                                 |
| \\      /  F ield         | OpenFOAM: The Open Source CFD Toolbox           |
|  \\    /   O peration     | Version:  2306                                  |
|   \\  /    A nd           | Website:  www.openfoam.com                      |
|    \\/     M anipulation  |                                                 |
\*---------------------------------------------------------------------------*/
FoamFile
{
    version     2.0;
    format      ascii;
    arch        "LSB;label=32;scalar=64";
    class       volScalarField;
    location    "0.013";
    object      Ma;
}
// * * * * * * * * * * * * * * * * * * * * * * * * * * * * * * * * * * * * * //

dimensions      [0 0 0 0 0 0 0];

internalField   nonuniform List<scalar> 
20000
(
0.1870445
0.22305349
0.24619882
0.26578138
0.28320468
0.29754088
0.30214244
0.30203889
0.30157511
0.30128197
0.30079678
0.30035343
0.29977784
0.29916871
0.29844247
0.29763617
0.29670992
0.2956735
0.29451301
0.29323577
0.29185144
0.29038504
0.28887772
0.28738718
0.28598824
0.28476289
0.28378804
0.28311737
0.28278856
0.28278317
0.28306594
0.28357473
0.28425011
0.28502527
0.28585445
0.28669399
0.28751101
0.28826918
0.28894478
0.28952748
0.2900138
0.29041763
0.29072159
0.2909606
0.29119171
0.29134842
0.29136096
0.29139522
0.2915288
0.29162525
0.18731854
0.22350091
0.24678128
0.26647657
0.28393301
0.29788357
0.30179445
0.30163735
0.30116381
0.30086708
0.3003712
0.29991857
0.29932838
0.29870448
0.29796046
0.29713335
0.29618387
0.29512135
0.29393308
0.29262698
0.29121472
0.2897239
0.28819912
0.28670232
0.28531236
0.28411439
0.28318317
0.28257415
0.28231947
0.28238736
0.28274147
0.28331346
0.28404136
0.28485822
0.28571906
0.28658327
0.28742039
0.28819326
0.28888038
0.28947262
0.28996787
0.2903794
0.29068784
0.29093446
0.29117859
0.29131992
0.29134425
0.29138616
0.29152115
0.29162133
0.18763831
0.22400942
0.24742962
0.26723936
0.2847346
0.29820316
0.30138098
0.30120911
0.30072296
0.30041955
0.29991127
0.29944693
0.29884202
0.29820134
0.29743824
0.29658896
0.29561496
0.29452504
0.29330772
0.29197159
0.29053062
0.28901508
0.28747348
0.2859722
0.28459461
0.28342852
0.28254665
0.28200771
0.28183163
0.28198003
0.28241079
0.28305093
0.28383477
0.28469622
0.28559075
0.28648084
0.28733709
0.28812399
0.28882188
0.2894228
0.28992583
0.29034397
0.2906568
0.29091139
0.29116612
0.29130677
0.29133081
0.29137764
0.29151458
0.29161794
0.18793422
0.22448822
0.24804475
0.26796165
0.28549799
0.29841825
0.30086892
0.30074212
0.30024426
0.29993467
0.299414
0.29893779
0.29831753
0.29765944
0.29687639
0.296004
0.29500451
0.29388614
0.29263885
0.29127197
0.28980197
0.28826205
0.28670492
0.28520169
0.28384038
0.28271065
0.28188442
0.2814227
0.28132905
0.2815631
0.28207398
0.28278461
0.28362622
0.28453335
0.2854622
0.28637848
0.28725422
0.28805526
0.28876392
0.28937353
0.28988434
0.29030894
0.29062614
0.2908896
0.29115139
0.29128739
0.29131809
0.29136894
0.29150796
0.29161417
0.1882225
0.22496088
0.24865231
0.26867094
0.28624667
0.2985453
0.30035658
0.30023741
0.29972741
0.29941097
0.2988775
0.29838875
0.29775269
0.29707639
0.29627262
0.2953761
0.29435001
0.29320206
0.29192366
0.29052515
0.28902566
0.28746168
0.28589041
0.2843881
0.28304749
0.28195907
0.28119612
0.28081845
0.28081245
0.28113764
0.28173267
0.28251669
0.28341803
0.28437202
0.28533617
0.28627922
0.28717441
0.28798932
0.28870838
0.28932631
0.28984455
0.29027518
0.29059666
0.29086933
0.29113622
0.29127172
0.29130586
0.29136043
0.29150162
0.29161027
0.18849729
0.22541874
0.24924586
0.26935778
0.28696404
0.29857191
0.29982055
0.29969175
0.29916989
0.29884662
0.29830033
0.29779874
0.29714652
0.29645135
0.29562608
0.2947044
0.2936506
0.29247186
0.29116127
0.28973028
0.288201
0.28661348
0.28502981
0.28353175
0.28221667
0.28117504
0.28048393
0.28019574
0.28028391
0.28070506
0.2813879
0.28224775
0.28321044
0.28421226
0.28521224
0.28618228
0.28709719
0.28792595
0.28865502
0.28928088
0.28980615
0.29024242
0.29056812
0.29085011
0.29112027
0.29125493
0.29129453
0.29135218
0.2914955
0.29160624
0.18875589
0.22586226
0.24982632
0.27002259
0.28764301
0.29849785
0.2992346
0.29910663
0.29857258
0.29824203
0.29768262
0.2971675
0.2964985
0.29578351
0.29493574
0.29398772
0.29290495
0.29169419
0.29035022
0.2888859
0.28732656
0.28571618
0.28412216
0.28263214
0.28134774
0.28035934
0.27974929
0.27955561
0.27974507
0.28026686
0.28104101
0.28197894
0.28300441
0.28405481
0.2850911
0.28608831
0.28702281
0.28786522
0.28860418
0.28923764
0.28976948
0.29021087
0.2905406
0.29083161
0.29110415
0.2912386
0.29128368
0.29134429
0.29148967
0.29160214
0.18899965
0.2262948
0.25039936
0.27067194
0.28827425
0.29832716
0.29861129
0.29848273
0.29793614
0.29759761
0.29702439
0.29649478
0.29580809
0.2950721
0.29420068
0.29322499
0.2921119
0.2908677
0.28948916
0.2879907
0.28640115
0.28476884
0.28316693
0.28168924
0.28044086
0.27951351
0.27899354
0.27889996
0.27919758
0.27982458
0.28069326
0.28171124
0.28280063
0.28390018
0.28497309
0.28599755
0.28695155
0.2878073
0.28855564
0.28919643
0.28973477
0.29018071
0.29051419
0.29081379
0.29108795
0.29122282
0.29127298
0.29133679
0.29148409
0.29159803
0.18923088
0.22671858
0.25096853
0.27131204
0.28884877
0.29802834
0.29794856
0.29782039
0.29726039
0.29691288
0.29632506
0.29577982
0.29507446
0.29431622
0.29341984
0.29241502
0.29127009
0.28999104
0.28857663
0.28704322
0.28542345
0.28377041
0.28216353
0.28070297
0.27949643
0.27863942
0.27821752
0.27823095
0.27864324
0.2793799
0.28034605
0.28144574
0.28259994
0.28374898
0.28485863
0.28591029
0.2868836
0.28775237
0.28850971
0.28915734
0.28970165
0.29015183
0.29048909
0.2907973
0.29107192
0.29120729
0.29126244
0.29132959
0.29147871
0.29159395
0.1894498
0.22713202
0.25153321
0.27194608
0.28935494
0.29760792
0.29724662
0.29711779
0.29654402
0.29618679
0.29558372
0.29502182
0.29429677
0.29351489
0.29259212
0.29155654
0.29037816
0.28906266
0.28761113
0.28604204
0.28439219
0.28271995
0.28111159
0.27967352
0.27851539
0.27773918
0.27742216
0.27755102
0.278084
0.27893455
0.28000076
0.28118353
0.28240311
0.28360178
0.28474815
0.28582683
0.28681915
0.2877005
0.2884664
0.2891205
0.28967042
0.29012425
0.29046504
0.29078232
0.29105643
0.29119212
0.29125202
0.29132259
0.29147345
0.29158987
0.18965338
0.22753302
0.2520926
0.2725745
0.2897717
0.29706703
0.29650517
0.29637495
0.29578693
0.29541912
0.29479999
0.29422011
0.29347406
0.29266694
0.29171613
0.29064808
0.28943449
0.288081
0.28659102
0.28498559
0.28330603
0.28161652
0.28001071
0.27860093
0.27749895
0.27681474
0.27660928
0.27686246
0.27752196
0.27849035
0.2796589
0.28092573
0.28221099
0.28345915
0.28464203
0.28574745
0.28675836
0.28765184
0.28842583
0.28908602
0.28964112
0.29009806
0.29044223
0.29076836
0.29104135
0.29117741
0.29124154
0.29131575
0.29146841
0.29158589
0.1898495
0.22792699
0.25264763
0.2732059
0.29008747
0.29640859
0.29572585
0.29559241
0.29498909
0.29460925
0.29397278
0.29337329
0.29260479
0.29177071
0.29079019
0.28968788
0.28843737
0.28704424
0.28551461
0.28387233
0.28216367
0.28045932
0.27886067
0.27748533
0.27644903
0.27586777
0.27578142
0.27616754
0.27695926
0.27804909
0.27932183
0.28067341
0.28202433
0.2833217
0.28454072
0.28567243
0.2867014
0.28760648
0.28838811
0.28905398
0.28961387
0.29007331
0.29042057
0.29075533
0.29102687
0.2911632
0.2912311
0.29130899
0.29146382
0.29158228
0.19003536
0.22830941
0.25319318
0.27384316
0.29028812
0.29562318
0.29490525
0.2947672
0.29414754
0.29375436
0.29309958
0.29247906
0.29168681
0.29082424
0.28981237
0.28867409
0.28738487
0.28595057
0.2843801
0.28270061
0.2809638
0.27924759
0.27766134
0.27632732
0.27536811
0.27489944
0.27494155
0.27546878
0.2763982
0.27761268
0.27899108
0.28042767
0.28184394
0.28318995
0.28444456
0.28560198
0.28664845
0.2875646
0.28835332
0.28902431
0.28958857
0.29005008
0.29040004
0.29074341
0.29101298
0.29114941
0.29122065
0.29130227
0.29145938
0.29157909
0.19019849
0.22866766
0.25371647
0.27447739
0.29037036
0.29473492
0.2940384
0.29389526
0.29325898
0.29285165
0.29217791
0.29153521
0.29071811
0.28982554
0.28878075
0.28760472
0.28627505
0.28479799
0.28318563
0.28146878
0.27970518
0.27798075
0.27641285
0.27512805
0.27425869
0.27391136
0.27409281
0.27476881
0.27584112
0.27718301
0.27866807
0.28018957
0.28167057
0.28306447
0.28435396
0.28553642
0.28659978
0.28752629
0.28832137
0.28899678
0.28956494
0.29002826
0.29038071
0.29073264
0.29099968
0.29113598
0.29121021
0.29129564
0.29145528
0.2915763
0.19034737
0.22900722
0.25421629
0.27510552
0.29032707
0.29388355
0.29312365
0.29297504
0.29232181
0.29189943
0.29120611
0.29054001
0.28969682
0.28877272
0.28769332
0.28647778
0.28510585
0.28358457
0.2819293
0.28017515
0.27838657
0.27665823
0.27511522
0.27388904
0.27312319
0.2729062
0.27323825
0.27407049
0.27529046
0.27676204
0.27835429
0.27996019
0.28150499
0.28294577
0.28426925
0.28547604
0.28655548
0.28749138
0.28829207
0.28897149
0.28954309
0.29000762
0.29036305
0.29072298
0.29098694
0.29112285
0.29119975
0.2912891
0.2914515
0.29157399
0.1904832
0.22932647
0.25468782
0.2757219
0.29014685
0.29296276
0.29216073
0.29200571
0.29133505
0.29089644
0.29018262
0.28949172
0.28862114
0.28766389
0.28654817
0.28529127
0.28387531
0.28230825
0.28060919
0.27881807
0.2770069
0.27527963
0.27376868
0.27261271
0.2719638
0.27188735
0.27238097
0.2733767
0.27474859
0.27635159
0.27805106
0.27974047
0.28134785
0.28283433
0.28419082
0.28542109
0.28651528
0.2874596
0.28826561
0.28894924
0.28952383
0.28998822
0.29034755
0.29071435
0.2909747
0.29110997
0.29118925
0.29128268
0.29144808
0.29157217
0.19060645
0.22962524
0.25512528
0.27631586
0.28982702
0.29198408
0.29114816
0.29098571
0.29029688
0.2898408
0.28910568
0.28838865
0.28748936
0.28649734
0.28534345
0.28404327
0.28258132
0.28096692
0.27922326
0.27739584
0.27556512
0.27384468
0.27237396
0.27130219
0.27078215
0.27085876
0.27152434
0.2726905
0.27421802
0.27595359
0.2777598
0.2795314
0.28119984
0.28273061
0.28411902
0.28537151
0.28647904
0.2874316
0.28824283
0.28893016
0.28950706
0.28997082
0.29033398
0.29070657
0.29096289
0.29109732
0.29117874
0.29127642
0.29144506
0.29157086
0.19071522
0.22990595
0.25552911
0.27687615
0.28936594
0.29094726
0.29008344
0.28991294
0.28920586
0.28873136
0.28797419
0.28722968
0.2863002
0.2852715
0.28407735
0.28273165
0.28122163
0.2795583
0.27776942
0.27590685
0.27406037
0.27235341
0.2709325
0.26996057
0.26958068
0.26982451
0.27067192
0.27201497
0.27370116
0.27556981
0.27748174
0.27933384
0.28106154
0.28263506
0.28405415
0.28532716
0.28644783
0.2874082
0.28822356
0.28891344
0.28949207
0.28995581
0.29032217
0.29069947
0.29095148
0.29108494
0.29116827
0.29127041
0.29144249
0.29157007
0.19079873
0.23016721
0.25590225
0.27738516
0.28876316
0.28985526
0.28896791
0.28878862
0.28806275
0.28756845
0.28678801
0.28601413
0.28505241
0.28398469
0.28274778
0.28135416
0.27979381
0.27807999
0.27624547
0.27434944
0.27249179
0.27080584
0.26944614
0.26859088
0.26836317
0.26878861
0.2698275
0.2713533
0.27320049
0.27520208
0.2772182
0.27914868
0.28093353
0.2825481
0.28399629
0.28528838
0.28642216
0.28738861
0.28820708
0.28889911
0.28947902
0.2899425
0.29031267
0.2906929
0.2909405
0.29107286
0.29115791
0.29126473
0.2914404
0.29156979
0.19086098
0.23041284
0.25626296
0.27783639
0.28799597
0.2887144
0.28780426
0.28761427
0.28686832
0.286352
0.28554631
0.28474054
0.28374411
0.28263465
0.28135225
0.27990805
0.27829516
0.27652941
0.27464921
0.27272207
0.27085873
0.26920221
0.26791796
0.26719599
0.2671341
0.26775524
0.26899491
0.27070855
0.27271829
0.27485198
0.27697019
0.27897658
0.28081632
0.2824701
0.28394538
0.28525631
0.28640097
0.28737233
0.28819365
0.28888744
0.28946805
0.28993072
0.29030588
0.29068688
0.29093002
0.29106114
0.29114774
0.29125946
0.29143883
0.29157
0.19090126
0.23064831
0.25662007
0.2782035
0.28699839
0.28752461
0.2865912
0.28638835
0.28562062
0.28507973
0.28424659
0.28340623
0.28237238
0.28121841
0.2798877
0.2783904
0.27672278
0.27490384
0.27297839
0.27102331
0.26916071
0.26754347
0.26635192
0.26577815
0.2658987
0.26672889
0.26817816
0.27008391
0.2722569
0.27452115
0.27673882
0.27881826
0.2807104
0.28240124
0.28390151
0.28523088
0.28638412
0.28735987
0.2881834
0.2888784
0.28945912
0.28992084
0.29030175
0.29068165
0.29092014
0.29104984
0.29113782
0.29125459
0.29143782
0.29157066
0.19090741
0.23086452
0.25698205
0.27846631
0.28583877
0.28628263
0.28532459
0.28510653
0.28431544
0.28374756
0.28288487
0.2820074
0.28093367
0.27973252
0.27835086
0.27679794
0.27507358
0.27320051
0.27123079
0.26925188
0.26739762
0.26583136
0.26475186
0.26434092
0.26466234
0.26571433
0.26738123
0.2694824
0.27181845
0.27421098
0.27652497
0.27867429
0.28061616
0.28234149
0.28386573
0.28521112
0.28637202
0.28735119
0.28817632
0.28887198
0.28945221
0.28991294
0.29030015
0.29067744
0.29091095
0.29103898
0.29112815
0.29125008
0.2914374
0.29157176
0.1908609
0.23105085
0.25735017
0.27860737
0.28449896
0.28498084
0.28399773
0.2837628
0.28294736
0.2823506
0.28145683
0.28054014
0.27942428
0.27817352
0.27673828
0.27512739
0.27334438
0.27141653
0.26940422
0.26740656
0.26556945
0.26406833
0.26312155
0.26288953
0.26343027
0.26471651
0.26660822
0.26890707
0.27140506
0.27392287
0.2763295
0.27854527
0.28053388
0.28229079
0.28383893
0.28519724
0.28636463
0.28734631
0.28817242
0.28886817
0.28944729
0.28990705
0.29030092
0.29067436
0.29090244
0.29102853
0.29111872
0.29124605
0.29143761
0.29157327
0.19075349
0.23119079
0.25771414
0.27861491
0.28316718
0.28361414
0.28260578
0.28235271
0.2815124
0.28088523
0.27995897
0.27900109
0.27784091
0.27653803
0.27504662
0.27337529
0.27153188
0.26954902
0.2674966
0.26548636
0.2636765
0.2622583
0.26146466
0.26142999
0.26220811
0.26374049
0.26586302
0.26836068
0.27101849
0.27365783
0.27615302
0.27843164
0.28046343
0.28224985
0.28381991
0.28518946
0.28636192
0.2873452
0.28817171
0.28886692
0.28944431
0.28990317
0.29030385
0.29067241
0.29089465
0.29101847
0.29110947
0.29124269
0.29143847
0.29157518
0.19058821
0.23128282
0.2580764
0.27847255
0.28178767
0.28218056
0.28114681
0.28087415
0.28000831
0.27934903
0.27838876
0.27738749
0.2761805
0.27482279
0.27327235
0.27153816
0.26963267
0.26759503
0.26550592
0.2634905
0.26171998
0.26040613
0.25978464
0.25996918
0.26100187
0.26279146
0.26514961
0.26784599
0.27066052
0.27341698
0.27599632
0.27833364
0.28040453
0.28222012
0.28380811
0.28518775
0.28636386
0.28734786
0.28817415
0.28886819
0.28944323
0.28990124
0.29030875
0.29067146
0.29088755
0.29100872
0.29110038
0.29124006
0.29144003
0.29157751
0.1903637
0.23131785
0.25842552
0.27816686
0.28030933
0.28067956
0.27962005
0.27932619
0.27843376
0.27774024
0.27674387
0.27569657
0.27443991
0.27302433
0.27141183
0.26961218
0.26764318
0.26555166
0.26343041
0.26141869
0.25970216
0.25851665
0.25808667
0.2585141
0.25981783
0.26187455
0.2644717
0.2673654
0.27033254
0.27320111
0.27585985
0.27825083
0.28035795
0.2822009
0.28380415
0.28519206
0.2863704
0.28735426
0.28817972
0.28887193
0.289444
0.2899012
0.29031539
0.29067136
0.29088097
0.29099924
0.29109146
0.29123824
0.29144229
0.29158023
0.19010341
0.23131366
0.25875657
0.27768988
0.27875462
0.27911173
0.27802524
0.2777077
0.27678695
0.27605648
0.27502153
0.27392517
0.2726156
0.27113882
0.26946098
0.26759334
0.26555967
0.26341595
0.26126834
0.25927087
0.25762625
0.25659471
0.25637788
0.2570718
0.25866254
0.26099494
0.26383294
0.26692125
0.27003596
0.27301117
0.27574371
0.27818283
0.28032565
0.2821909
0.28380798
0.28520231
0.28638148
0.28736437
0.28818838
0.2888781
0.28944657
0.28990299
0.29032356
0.2906719
0.29087472
0.29099002
0.29108277
0.29123734
0.2914453
0.29158331
0.18981819
0.23127909
0.25905567
0.27694249
0.27712268
0.27747404
0.27635943
0.27601572
0.27506495
0.27429471
0.27321842
0.27206969
0.27070363
0.269162
0.26741541
0.26547723
0.26337824
0.26118505
0.25901824
0.25704756
0.25549744
0.25464518
0.25466638
0.25564984
0.25754258
0.26015754
0.26323655
0.26651534
0.26977178
0.27284754
0.27564704
0.27813121
0.28030655
0.28219056
0.28381953
0.28521838
0.28639702
0.28737814
0.2882001
0.28888664
0.28945089
0.28990655
0.2903331
0.29067286
0.29086866
0.29098106
0.29107444
0.29123751
0.29144907
0.2915867
0.18950991
0.23122039
0.25930015
0.27593582
0.27541654
0.27576392
0.27462008
0.2742476
0.27326481
0.27245161
0.27133079
0.27012591
0.26869934
0.26708897
0.26527011
0.26325914
0.26109488
0.25885615
0.25667898
0.25475041
0.25332185
0.25267332
0.25296123
0.25425625
0.25646466
0.2593672
0.26268558
0.26614952
0.26954116
0.27271005
0.27556982
0.27809789
0.28029894
0.28220001
0.28383866
0.28524014
0.28641695
0.28739554
0.28821481
0.2888975
0.28945694
0.28991188
0.29034379
0.29067398
0.29086262
0.29097241
0.29106666
0.29123888
0.2914536
0.29159036
0.18919408
0.23114456
0.25946663
0.27468892
0.2736376
0.27397936
0.27280471
0.27240014
0.27138286
0.27052291
0.26935378
0.26808858
0.26659724
0.26491415
0.26301966
0.26093405
0.25870554
0.25642673
0.25425006
0.25238247
0.25110575
0.25068674
0.2512717
0.25289937
0.25543535
0.25862833
0.26218269
0.26582531
0.26934445
0.27259773
0.27551455
0.27808054
0.28030339
0.28221909
0.28386521
0.28526746
0.28644119
0.28741651
0.28823243
0.28891061
0.28946473
0.28991911
0.29035538
0.29067489
0.29085642
0.29096413
0.29105964
0.29124164
0.29145888
0.29159422
0.18888877
0.23105571
0.25951517
0.27319202
0.27178317
0.2721162
0.27090878
0.27046821
0.26941338
0.26850254
0.26728113
0.26595139
0.26439106
0.26263145
0.26065827
0.25849688
0.25620627
0.25389443
0.25173151
0.24994835
0.24885565
0.24869515
0.24960731
0.2515878
0.2544611
0.25794517
0.26173039
0.26554407
0.26918105
0.27251121
0.27548197
0.27807756
0.28031999
0.28224765
0.28389899
0.28530018
0.28646967
0.287441
0.28825289
0.28892593
0.28947432
0.28992858
0.29036752
0.29067516
0.29084986
0.29095632
0.29105372
0.29124597
0.29146486
0.29159823
0.18857829
0.23096994
0.25941656
0.27143854
0.26984675
0.27016698
0.26892455
0.26844381
0.26734857
0.266383
0.26510566
0.26370747
0.26207424
0.26023452
0.25818003
0.25594241
0.25359324
0.25125727
0.24912437
0.24745512
0.24657799
0.24670972
0.24797835
0.25033014
0.25354794
0.25732137
0.26133069
0.26530583
0.26904985
0.27245342
0.27546885
0.27808987
0.28034844
0.28228541
0.28393975
0.28533813
0.2865023
0.28746894
0.28827609
0.28894337
0.28948584
0.28994091
0.2903798
0.29067447
0.2908427
0.29094904
0.29104916
0.29125205
0.2914715
0.29160233
0.18823816
0.23089171
0.25913588
0.26946514
0.26781573
0.2681203
0.26684216
0.2663182
0.26518052
0.26415704
0.26282049
0.26135015
0.25964008
0.25771688
0.25557877
0.25326542
0.25086278
0.24851389
0.24643121
0.24491076
0.24428086
0.24474258
0.24639555
0.24913495
0.25270167
0.25676042
0.26098514
0.26510979
0.26895307
0.27242352
0.27547434
0.27811721
0.28038853
0.28233215
0.28398727
0.28538116
0.28653902
0.28750027
0.28830191
0.28896287
0.28949949
0.28995689
0.29039186
0.29067293
0.29083481
0.29094204
0.29104605
0.29126001
0.29147872
0.29160649
0.18784835
0.23082675
0.25865788
0.26749109
0.26568327
0.26596961
0.26465557
0.2640856
0.26290343
0.26181862
0.26041923
0.25887274
0.25708179
0.25507168
0.25284812
0.25046072
0.24801152
0.24566377
0.24365652
0.2423236
0.24197563
0.24280618
0.24487001
0.24801052
0.25192755
0.25626515
0.26069394
0.26495556
0.26889357
0.27241782
0.27549911
0.27815913
0.28043987
0.28238753
0.28404126
0.28542907
0.28657974
0.28753492
0.28833025
0.28898435
0.28951546
0.2899768
0.29040379
0.29067116
0.29082648
0.29093477
0.29104424
0.29126995
0.29148645
0.29161066
0.18738784
0.23078378
0.25796277
0.26540816
0.263448
0.2637126
0.26236118
0.26174139
0.26051183
0.25936158
0.25789518
0.2562682
0.25439207
0.2522918
0.24998162
0.24752316
0.24503646
0.24270736
0.24080739
0.23970245
0.23967592
0.24091365
0.24341301
0.24696483
0.25123048
0.25583766
0.26045654
0.26484667
0.26886815
0.27243634
0.27554257
0.27821529
0.28050216
0.28245125
0.28410146
0.28548171
0.28662439
0.28757282
0.28836101
0.28900772
0.28953389
0.29000032
0.29041604
0.29066982
0.29081854
0.29092688
0.29104342
0.29128187
0.29149462
0.29161482
0.18682515
0.23076709
0.2570194
0.26317411
0.26110472
0.26134386
0.25995318
0.25927922
0.25799901
0.25677884
0.25524091
0.25352889
0.25156325
0.24936969
0.24697256
0.24444776
0.24193521
0.23964683
0.23789373
0.2370566
0.23739737
0.23907891
0.24203566
0.24600528
0.25061444
0.25547855
0.26027302
0.26478447
0.26887309
0.27247905
0.27560407
0.27828513
0.28057493
0.28252291
0.28416755
0.2855389
0.28667288
0.28761388
0.28839411
0.28903294
0.28955488
0.29002714
0.29042882
0.29066911
0.29081132
0.29091876
0.29104407
0.29129563
0.2915032
0.29161893
0.18613853
0.2307645
0.25580788
0.26080193
0.25864618
0.25885643
0.25742457
0.25669179
0.25535743
0.25406273
0.2524485
0.25064665
0.24858694
0.24629735
0.24381406
0.24122967
0.2387063
0.23648652
0.23492624
0.23439895
0.23515641
0.23731642
0.2407489
0.24513876
0.25008248
0.25518763
0.26014746
0.2647641
0.26890925
0.27254512
0.27568304
0.27836821
0.28065783
0.28260219
0.28423929
0.28560048
0.2867251
0.287658
0.28842947
0.28905996
0.28957854
0.29005685
0.29044194
0.29066876
0.29080453
0.290911
0.2910473
0.29131102
0.29151212
0.29162297
0.18533049
0.23075236
0.25431151
0.25829369
0.2560659
0.25624309
0.2547682
0.2539717
0.2525796
0.25120546
0.24950962
0.24761257
0.24545402
0.24306604
0.24049896
0.23786438
0.2353496
0.23323377
0.23191627
0.23174667
0.23297006
0.23564092
0.23956315
0.24437113
0.2496361
0.25496539
0.26008005
0.26478271
0.26897578
0.27263359
0.2757787
0.27846392
0.28075033
0.28268864
0.28431634
0.28566627
0.28678095
0.28770509
0.28846704
0.28908883
0.28960525
0.2900888
0.29045493
0.29066826
0.29079802
0.29090397
0.29105379
0.29132778
0.29152128
0.29162694
0.18440324
0.23068727
0.25252029
0.25564975
0.25335691
0.2534971
0.25197794
0.25111253
0.24965822
0.24819864
0.24641462
0.24441621
0.24215399
0.23966643
0.23702007
0.23434799
0.23186675
0.22990024
0.22887592
0.22911954
0.23085661
0.23406721
0.23848823
0.24370706
0.2492757
0.25481651
0.26006519
0.26484121
0.26907159
0.27274363
0.27589041
0.27857178
0.28085207
0.28278197
0.28439848
0.28573615
0.28684028
0.28775498
0.28850676
0.28911974
0.28963577
0.29012182
0.29046723
0.29066728
0.2907917
0.29089782
0.29106405
0.29134561
0.29153057
0.29163082
0.18338403
0.2305193
0.25041877
0.25287316
0.250517
0.25061476
0.24904869
0.24810695
0.24658359
0.24503075
0.24315101
0.24104501
0.23867523
0.23608867
0.23337045
0.23067791
0.22826239
0.22649971
0.22582089
0.22653932
0.22883508
0.23260974
0.23753264
0.24314933
0.24900227
0.25474047
0.26010036
0.26493782
0.26919528
0.2728741
0.2760173
0.27869114
0.2809625
0.2828817
0.2844854
0.28580994
0.28690297
0.2878075
0.28854858
0.28915298
0.28967127
0.29015424
0.29047831
0.29066573
0.29078564
0.29089273
0.29107863
0.29136411
0.29153991
0.29163461
0.18233285
0.23021383
0.24794418
0.24996544
0.24754219
0.24758715
0.24596802
0.24494013
0.24333972
0.24168585
0.23970357
0.23748498
0.23500545
0.23232307
0.22954389
0.2268535
0.22454494
0.22304679
0.22277266
0.22402857
0.22692512
0.23128227
0.2367034
0.24269939
0.24882117
0.2547308
0.26018583
0.2650711
0.26934564
0.27302407
0.27615871
0.2788215
0.28108125
0.28298756
0.28457691
0.28588754
0.28696885
0.28786246
0.28859241
0.28918896
0.28971221
0.29018479
0.29048763
0.29066343
0.29078017
0.29088988
0.29109769
0.29138287
0.29154925
0.29163832
0.18134214
0.22975626
0.24481068
0.24690228
0.24440782
0.24438899
0.24271224
0.24159041
0.23990726
0.23814673
0.2360568
0.23372214
0.23113261
0.22836026
0.22553515
0.22287648
0.22072808
0.21955793
0.2197568
0.22161153
0.2251464
0.23009719
0.23600547
0.24235918
0.24873161
0.254785
0.26031928
0.26523914
0.26952112
0.27319238
0.27631379
0.27896223
0.2812078
0.28309914
0.28467277
0.2859688
0.28703777
0.28791964
0.2886382
0.28922806
0.2897578
0.29021323
0.29049493
0.29066035
0.29077572
0.29089046
0.2911209
0.29140155
0.29155851
0.29164195
0.18031933
0.22910424
0.24158244
0.24364626
0.24108255
0.24099453
0.23926019
0.23803986
0.23627007
0.23439828
0.23219624
0.2297429
0.22704484
0.22419159
0.22134075
0.21875233
0.21682945
0.21605356
0.2168021
0.21931379
0.22351812
0.22906504
0.23544215
0.24213486
0.24872623
0.25490267
0.26049873
0.26544024
0.26972041
0.27337808
0.27648186
0.27911286
0.28134182
0.28321623
0.28477283
0.28605362
0.28710959
0.28797888
0.28868587
0.28927066
0.28980676
0.29023967
0.2905008
0.29065741
0.29077243
0.2908939
0.29114744
0.29142003
0.29156764
0.29164552
0.17919693
0.22820756
0.23833261
0.24018766
0.23755635
0.23739333
0.23560075
0.23427654
0.23241487
0.23042606
0.22810703
0.22553316
0.22273027
0.21980907
0.21695979
0.21449161
0.21286881
0.21256146
0.2139392
0.21716167
0.222058
0.22819405
0.23501672
0.24202569
0.24880213
0.25508081
0.26072154
0.26567227
0.26994193
0.27358
0.27666209
0.27927277
0.28148285
0.2833385
0.28487691
0.28614188
0.28718418
0.28804002
0.28873547
0.28931735
0.28985768
0.29026434
0.29050629
0.29065567
0.29076988
0.29089941
0.29117613
0.29143827
0.29157655
0.29164899
0.17793796
0.22705101
0.23476146
0.2365247
0.23382471
0.23357687
0.23172215
0.2302866
0.22832629
0.22621352
0.22377254
0.22107785
0.21817684
0.21520596
0.21239465
0.21011166
0.20886847
0.20911589
0.2112009
0.21518151
0.22078169
0.22749034
0.23473655
0.24202348
0.24895821
0.25531665
0.26098535
0.26593345
0.27018435
0.27379724
0.27685384
0.27944153
0.28163061
0.28346582
0.28498494
0.28623349
0.28726142
0.28810298
0.28878715
0.28936908
0.28990883
0.2902875
0.29051201
0.29065499
0.29076751
0.29090707
0.29120607
0.29145613
0.29158515
0.29165236
0.17653452
0.22563523
0.2309587
0.23264415
0.22987502
0.22952959
0.22760661
0.22605079
0.22398511
0.22174161
0.2191745
0.21636109
0.21337299
0.21037762
0.20765274
0.20563579
0.20485672
0.2057558
0.20862199
0.2133984
0.21970225
0.22695959
0.23460137
0.24212475
0.24919071
0.25560673
0.2612874
0.26622166
0.27044615
0.2740287
0.27705636
0.2796186
0.28178473
0.28359801
0.2850968
0.28632831
0.28734118
0.28816775
0.28884123
0.28942704
0.28995802
0.29030895
0.29051781
0.2906549
0.29076593
0.29091881
0.29123663
0.29147332
0.29159339
0.29165562
0.17493491
0.22384136
0.22690223
0.22853052
0.22569065
0.22523121
0.22323289
0.22154586
0.21936859
0.2169894
0.21429348
0.2113667
0.20830799
0.20532314
0.20274848
0.20109094
0.20087189
0.20252341
0.20623809
0.21183518
0.21883013
0.22661091
0.23460237
0.2423276
0.24949581
0.25594788
0.26162523
0.26653514
0.2707261
0.27427354
0.27726907
0.27980359
0.28194501
0.28373502
0.28521251
0.28642626
0.28742332
0.28823435
0.28889824
0.28949104
0.29000382
0.29032811
0.29052306
0.29065572
0.29076758
0.29093709
0.29126714
0.29148971
0.29160126
0.29165875
0.17312991
0.22156677
0.22258737
0.2241523
0.22124436
0.22064712
0.21857742
0.21674921
0.21445248
0.21193417
0.20910914
0.20607818
0.2029729
0.20004666
0.19770617
0.19650866
0.19696181
0.19946416
0.20408425
0.21051178
0.21817466
0.22644487
0.23473517
0.24262724
0.24986898
0.25633636
0.26199603
0.26687183
0.27102274
0.27453077
0.27749128
0.27999604
0.28211119
0.28387679
0.28533205
0.28652723
0.28750766
0.28830287
0.28895886
0.28955908
0.29004592
0.29034455
0.29052771
0.29065794
0.29077282
0.29096331
0.29129694
0.29150531
0.29160877
0.29166172
0.17108595
0.21885935
0.21797834
0.21945426
0.21650171
0.21574566
0.21360311
0.21163922
0.20921155
0.20655041
0.20359923
0.20047947
0.19736233
0.19456012
0.19255799
0.19193111
0.19318101
0.19662591
0.20219321
0.20944509
0.21774777
0.22645235
0.23499698
0.24301846
0.25030579
0.25676882
0.2623974
0.26723009
0.27133497
0.27479964
0.27772249
0.28019564
0.28228313
0.28402331
0.28545548
0.28663118
0.28759403
0.28837352
0.28902421
0.28962856
0.2900841
0.29035859
0.29053205
0.29066119
0.29077976
0.29099721
0.29132576
0.29152024
0.29161591
0.29166452
0.16873794
0.21563426
0.21305453
0.21441827
0.21143721
0.21051509
0.20828716
0.20618314
0.20361512
0.20080905
0.19774016
0.19455614
0.19147706
0.18888651
0.18734274
0.18741523
0.18958881
0.19405667
0.20059436
0.20865009
0.21755119
0.22662799
0.23538167
0.2434953
0.25080139
0.2572416
0.26282668
0.26760805
0.27166151
0.27507929
0.27796215
0.280402
0.28246063
0.28417456
0.28558288
0.28673807
0.28768229
0.28844666
0.28909575
0.28969658
0.29011822
0.29037087
0.29053628
0.29066496
0.29078909
0.29103595
0.29135368
0.29153448
0.29162262
0.29166713
0.16608568
0.2118354
0.20780736
0.20903072
0.20602634
0.20492757
0.2026075
0.20033824
0.19762674
0.1946795
0.19150916
0.18829804
0.18532694
0.18306293
0.18210958
0.18303033
0.18624909
0.19180286
0.19931395
0.20814323
0.21757586
0.22696796
0.23588227
0.24405181
0.25135126
0.25775149
0.26328171
0.26800427
0.2720014
0.27536911
0.27820984
0.28061489
0.28264359
0.28433051
0.28571431
0.28684798
0.28777247
0.28852287
0.28917459
0.28976039
0.2901484
0.29038213
0.29054118
0.29066911
0.29080197
0.29107654
0.29138057
0.29154791
0.29162887
0.29166956
0.16321323
0.20730163
0.20221478
0.20326253
0.2002411
0.19895676
0.1965142
0.1940646
0.19120853
0.18813135
0.18488656
0.1817028
0.17893551
0.17713811
0.17692612
0.17885517
0.18322779
0.18990803
0.19837686
0.20792764
0.21781556
0.22746426
0.23649086
0.24468152
0.25195056
0.25829505
0.26376008
0.26841712
0.27235359
0.27566841
0.27846515
0.28083407
0.28283187
0.28449108
0.28584983
0.28696097
0.28786474
0.28860291
0.28925949
0.28981906
0.29017517
0.29039307
0.29054741
0.29067481
0.29081836
0.29111757
0.29140604
0.29156039
0.29163465
0.29167181
0.16032082
0.20175994
0.19623422
0.19707572
0.19402352
0.1925316
0.18992677
0.1873221
0.18432292
0.18113503
0.1778578
0.17477973
0.17234524
0.17117344
0.17188144
0.1749755
0.18059103
0.18841275
0.19780507
0.20799437
0.218265
0.22810753
0.23719933
0.24537825
0.25259494
0.25886936
0.2642599
0.26884538
0.27271727
0.27597668
0.27872776
0.28105935
0.28302535
0.28465612
0.28598941
0.28707715
0.2879595
0.28868765
0.28934771
0.28987317
0.29019931
0.29040416
0.29055515
0.29068259
0.29083815
0.29115823
0.29142979
0.29157189
0.29163999
0.2916739
0.15741238
0.19526455
0.18979368
0.19041798
0.18733769
0.18555812
0.1828276
0.18006009
0.17693082
0.1736645
0.1704181
0.16755565
0.16561735
0.1652546
0.16708028
0.17148281
0.17840289
0.18735526
0.19760236
0.20833655
0.21891357