/*--------------------------------*- C++ -*----------------------------------*\
| =========                 |                                                 |
| \\      /  F ield         | OpenFOAM: The Open Source CFD Toolbox           |
|  \\    /   O peration     | Version:  2306                                  |
|   \\  /    A nd           | Website:  www.openfoam.com                      |
|    \\/     M anipulation  |                                                 |
\*---------------------------------------------------------------------------*/
FoamFile
{
    version     2.0;
    format      ascii;
    arch        "LSB;label=32;scalar=64";
    class       volScalarField;
    location    "0.013";
    object      nut;
}
// * * * * * * * * * * * * * * * * * * * * * * * * * * * * * * * * * * * * * //

dimensions      [0 2 -1 0 0 0 0];

internalField   nonuniform List<scalar> 
20000
(
0.00037884444
0.00093536455
0.0012263066
0.0013027347
0.0011137604
0.000537071
1.0851569e-05
9.1222508e-09
7.6133757e-09
7.5191736e-09
7.5199441e-09
7.4797516e-09
7.4703289e-09
7.451494e-09
7.4428237e-09
7.4330288e-09
7.4270991e-09
7.4224294e-09
7.420021e-09
7.4192897e-09
7.4203063e-09
7.4228371e-09
7.426571e-09
7.4310519e-09
7.4357124e-09
7.4398759e-09
7.4430142e-09
7.4446007e-09
7.4443831e-09
7.4424339e-09
7.4390122e-09
7.4343847e-09
7.4289741e-09
7.4231321e-09
7.4170455e-09
7.4108569e-09
7.4045741e-09
7.3985024e-09
7.3929434e-09
7.3877755e-09
7.3827814e-09
7.3778574e-09
7.3735818e-09
7.36955e-09
7.3655217e-09
7.362792e-09
7.3613431e-09
7.3605855e-09
7.3576241e-09
7.354783e-09
0.00037628875
0.00092263856
0.0012015639
0.001264219
0.0010620896
0.00046734443
4.3735978e-06
8.4769284e-09
7.6106102e-09
7.5170561e-09
7.5192204e-09
7.4795182e-09
7.4706904e-09
7.4524212e-09
7.4442105e-09
7.4348826e-09
7.4293571e-09
7.425081e-09
7.4230147e-09
7.4225941e-09
7.4238718e-09
7.4266011e-09
7.4304516e-09
7.4349483e-09
7.4395098e-09
7.4434554e-09
7.4462819e-09
7.4474609e-09
7.4467548e-09
7.4443759e-09
7.4405011e-09
7.4355357e-09
7.4297945e-09
7.4237141e-09
7.4174206e-09
7.4110734e-09
7.4046864e-09
7.3985345e-09
7.3929134e-09
7.3877388e-09
7.382751e-09
7.3778362e-09
7.3736313e-09
7.3695392e-09
7.3653638e-09
7.3626966e-09
7.3614705e-09
7.360709e-09
7.3575842e-09
7.3548021e-09
0.00037402634
0.00091084069
0.0011777751
0.0012252765
0.0010082126
0.0003978661
1.6089621e-06
8.0882314e-09
7.6081367e-09
7.515287e-09
7.5179691e-09
7.4793872e-09
7.4711029e-09
7.453464e-09
7.4457172e-09
7.4368918e-09
7.4317989e-09
7.4279374e-09
7.4262539e-09
7.4261916e-09
7.427782e-09
7.4307694e-09
7.434796e-09
7.4393697e-09
7.4438836e-09
7.447651e-09
7.4501873e-09
7.4509328e-09
7.4497495e-09
7.4468652e-09
7.4425196e-09
7.4371232e-09
7.4310283e-09
7.4246417e-09
7.418107e-09
7.4115625e-09
7.4050286e-09
7.3987638e-09
7.3930588e-09
7.3878485e-09
7.382844e-09
7.3779147e-09
7.3737709e-09
7.3696155e-09
7.3652908e-09
7.3627835e-09
7.3616293e-09
7.3608746e-09
7.3575456e-09
7.354816e-09
0.0003717782
0.00089917288
0.0011546506
0.0011882152
0.00095334449
0.00033328466
5.9730431e-07
7.8574235e-09
7.6062226e-09
7.5138346e-09
7.5173327e-09
7.4795971e-09
7.4718465e-09
7.4548389e-09
7.4475401e-09
7.4392144e-09
7.4345339e-09
7.4310913e-09
7.4297741e-09
7.4300516e-09
7.4319324e-09
7.4351469e-09
7.4393116e-09
7.4439135e-09
7.4483234e-09
7.4518575e-09
7.4540393e-09
7.4542963e-09
7.4526061e-09
7.4491973e-09
7.4443648e-09
7.4385466e-09
7.4321013e-09
7.4254239e-09
7.418655e-09
7.4119257e-09
7.4052654e-09
7.398904e-09
7.3931217e-09
7.38788e-09
7.3828666e-09
7.3779333e-09
7.3738405e-09
7.3696297e-09
7.3652243e-09
7.3627776e-09
7.3617007e-09
7.3609877e-09
7.357533e-09
7.3548332e-09
0.00036956631
0.00088743085
0.0011314754
0.0011497919
0.00089622628
0.00027271733
2.3293961e-07
7.7197e-09
7.6054454e-09
7.5127577e-09
7.5168361e-09
7.4801035e-09
7.4728718e-09
7.4564994e-09
7.4496461e-09
7.4418165e-09
7.4375601e-09
7.4345293e-09
7.4335905e-09
7.4342158e-09
7.4363956e-09
7.4398397e-09
7.4441416e-09
7.4487607e-09
7.4530472e-09
7.4563269e-09
7.4581081e-09
7.4578444e-09
7.4556142e-09
7.4516463e-09
7.4463023e-09
7.440039e-09
7.4332305e-09
7.4262525e-09
7.4192433e-09
7.4123219e-09
7.4055296e-09
7.3990711e-09
7.3932089e-09
7.3879294e-09
7.3829028e-09
7.3779653e-09
7.3739129e-09
7.3696449e-09
7.3652083e-09
7.362799e-09
7.3617485e-09
7.3610755e-09
7.3575411e-09
7.3548537e-09
0.00036735959
0.00087551597
0.0011073682
0.0011111388
0.00083685216
0.00021640388
1.0020913e-07
7.6366085e-09
7.6044455e-09
7.5120355e-09
7.5167223e-09
7.4809296e-09
7.4741957e-09
7.4584656e-09
7.4520464e-09
7.444719e-09
7.4408769e-09
7.4382726e-09
7.4377057e-09
7.4386765e-09
7.4411484e-09
7.4448121e-09
7.4492335e-09
7.4538432e-09
7.4579724e-09
7.4609607e-09
7.4622872e-09
7.4614734e-09
7.4586632e-09
7.4541126e-09
7.4482381e-09
7.4415183e-09
7.4343381e-09
7.4270544e-09
7.4197979e-09
7.412682e-09
7.4057646e-09
7.3992175e-09
7.3932788e-09
7.3879612e-09
7.3829232e-09
7.3779865e-09
7.3739651e-09
7.3696387e-09
7.3652136e-09
7.3627991e-09
7.3617892e-09
7.3611399e-09
7.3575829e-09
7.3548744e-09
0.00036523706
0.00086381812
0.0010835509
0.0010724186
0.0007750215
0.00016571724
4.9199524e-08
7.5854773e-09
7.604747e-09
7.5116827e-09
7.5169026e-09
7.4820695e-09
7.4758157e-09
7.460734e-09
7.4547492e-09
7.4479205e-09
7.4445024e-09
7.442314e-09
7.4421277e-09
7.4434475e-09
7.4462114e-09
7.4500885e-09
7.4546148e-09
7.4591893e-09
7.4631289e-09
7.465784e-09
7.4665964e-09
7.4652022e-09
7.4617693e-09
7.4566071e-09
7.4501821e-09
7.442994e-09
7.4354377e-09
7.427849e-09
7.420345e-09
7.4130306e-09
7.4059848e-09
7.399352e-09
7.3933394e-09
7.3879834e-09
7.3829357e-09
7.3780044e-09
7.3740073e-09
7.3696198e-09
7.3652322e-09
7.3628315e-09
7.3618291e-09
7.3611766e-09
7.3576271e-09
7.3548917e-09
0.00036316521
0.0008520495
0.0010596334
0.001033695
0.00071096913
0.00011831345
2.7736196e-08
7.5542736e-09
7.6008125e-09
7.511661e-09
7.5174389e-09
7.483528e-09
7.4777371e-09
7.4633132e-09
7.4577556e-09
7.4514329e-09
7.4484315e-09
7.4466737e-09
7.4468639e-09
7.4485301e-09
7.4515803e-09
7.4556599e-09
7.4602715e-09
7.464782e-09
7.4684992e-09
7.4707712e-09
7.4710175e-09
7.469012e-09
7.4649193e-09
7.4591222e-09
7.4521303e-09
7.4444635e-09
7.4365235e-09
7.4286248e-09
7.4208669e-09
7.4133513e-09
7.4061813e-09
7.3994701e-09
7.393385e-09
7.3879891e-09
7.3829331e-09
7.3780139e-09
7.3740365e-09
7.3695867e-09
7.36525e-09
7.3628842e-09
7.3618664e-09
7.3611873e-09
7.3576466e-09
7.3548997e-09
0.00036113953
0.00084007768
0.0010353216
0.00099454338
0.00064496392
7.5947404e-05
1.799242e-08
7.5348747e-09
7.600458e-09
7.5120112e-09
7.5182731e-09
7.4853078e-09
7.4799633e-09
7.4662039e-09
7.4610756e-09
7.4552565e-09
7.4526817e-09
7.4513458e-09
7.451921e-09
7.4539363e-09
7.4572702e-09
7.4615419e-09
7.4662169e-09
7.4706316e-09
7.4740876e-09
7.4759143e-09
7.4755524e-09
7.472887e-09
7.4680981e-09
7.4616397e-09
7.4540648e-09
7.4459115e-09
7.4375865e-09
7.4293808e-09
7.4213707e-09
7.4136512e-09
7.4063553e-09
7.3995707e-09
7.3934169e-09
7.3879793e-09
7.3829149e-09
7.3780133e-09
7.3740522e-09
7.3695344e-09
7.3652638e-09
7.3629447e-09
7.3619039e-09
7.3611806e-09
7.357644e-09
7.3548966e-09
0.00035911375
0.00082779701
0.0010099723
0.00095290699
0.00057768984
4.1834852e-05
1.3235909e-08
7.523032e-09
7.599523e-09
7.5127089e-09
7.5193384e-09
7.4874076e-09
7.4824986e-09
7.4694128e-09
7.4647088e-09
7.4594022e-09
7.4572494e-09
7.4563506e-09
7.4573066e-09
7.4596675e-09
7.4632776e-09
7.4677266e-09
7.4724393e-09
7.4767236e-09
7.4798779e-09
7.481197e-09
7.4801902e-09
7.4768164e-09
7.4713012e-09
7.464161e-09
7.4559904e-09
7.4473434e-09
7.4386284e-09
7.430112e-09
7.4218451e-09
7.41392e-09
7.4065028e-09
7.3996536e-09
7.3934348e-09
7.3879531e-09
7.3828814e-09
7.3780027e-09
7.3740547e-09
7.3694635e-09
7.3652702e-09
7.3630032e-09
7.3619464e-09
7.3611649e-09
7.3576252e-09
7.3548805e-09
0.00035712843
0.00081542248
0.00098386406
0.00091194009
0.00051030724
1.941517e-05
1.0787281e-08
7.5158919e-09
7.5989747e-09
7.5137595e-09
7.5205539e-09
7.4898204e-09
7.485347e-09
7.4729429e-09
7.4686682e-09
7.4638732e-09
7.4621532e-09
7.4616835e-09
7.4630286e-09
7.4657365e-09
7.4696171e-09
7.4742283e-09
7.4789491e-09
7.483067e-09
7.4858664e-09
7.486609e-09
7.4849157e-09
7.4807796e-09
7.4745027e-09
7.4666577e-09
7.4578794e-09
7.4487363e-09
7.439635e-09
7.4308151e-09
7.4222961e-09
7.4141636e-09
7.4066234e-09
7.3997162e-09
7.3934378e-09
7.3879099e-09
7.3828307e-09
7.3779809e-09
7.3740447e-09
7.3693852e-09
7.3652715e-09
7.3630566e-09
7.3619918e-09
7.3611449e-09
7.3575916e-09
7.3548492e-09
0.000355178
0.0008031107
0.00095796974
0.00087091185
0.00044346631
7.7629397e-06
9.4616368e-09
7.511736e-09
7.598633e-09
7.5151608e-09
7.5220211e-09
7.492558e-09
7.4885206e-09
7.4768069e-09
7.4729579e-09
7.4686828e-09
7.467392e-09
7.4673657e-09
7.4690948e-09
7.4721443e-09
7.4762847e-09
7.4810377e-09
7.4857344e-09
7.4896486e-09
7.4920318e-09
7.4921373e-09
7.4897146e-09
7.4847705e-09
7.4777031e-09
7.469137e-09
7.4597431e-09
7.4501003e-09
7.4406104e-09
7.4314852e-09
7.4227113e-09
7.4143721e-09
7.4067147e-09
7.3997584e-09
7.3934258e-09
7.3878492e-09
7.3827617e-09
7.3779466e-09
7.3740216e-09
7.3692967e-09
7.3652687e-09
7.363105e-09
7.3620416e-09
7.3611249e-09
7.3575448e-09
7.3548012e-09
0.00035325343
0.00079084723
0.00093240815
0.000829085
0.00037815186
2.8242964e-06
8.7252535e-09
7.5095243e-09
7.5986828e-09
7.5169566e-09
7.524051e-09
7.4956464e-09
7.4920307e-09
7.4810122e-09
7.4775925e-09
7.4738353e-09
7.4729844e-09
7.4733938e-09
7.4755141e-09
7.4789044e-09
7.4832943e-09
7.4881669e-09
7.4928023e-09
7.4964701e-09
7.498359e-09
7.4977815e-09
7.4945634e-09
7.4887657e-09
7.4808756e-09
7.4715705e-09
7.461554e-09
7.4514131e-09
7.4415414e-09
7.4321194e-09
7.4230967e-09
7.4145512e-09
7.4067752e-09
7.3997758e-09
7.3933976e-09
7.3877728e-09
7.3826753e-09
7.3778984e-09
7.3739864e-09
7.3691961e-09
7.3652607e-09
7.36315e-09
7.3620931e-09
7.3611063e-09
7.357493e-09
7.3547414e-09
0.00035127169
0.00077818058
0.00090599982
0.0007857467
0.00031638646
9.9928305e-07
8.311246e-09
7.5086773e-09
7.5994061e-09
7.5191522e-09
7.5268292e-09
7.4991162e-09
7.4958889e-09
7.4855708e-09
7.4825767e-09
7.4793449e-09
7.4789331e-09
7.4797911e-09
7.4822942e-09
7.4860167e-09
7.490641e-09
7.4956047e-09
7.5001397e-09
7.5035126e-09
7.5048313e-09
7.5035225e-09
7.4994487e-09
7.4927585e-09
7.4840211e-09
7.4739659e-09
7.463324e-09
7.4526855e-09
7.4424324e-09
7.4327133e-09
7.4234408e-09
7.4146914e-09
7.4068021e-09
7.3997687e-09
7.3933547e-09
7.387684e-09
7.3825752e-09
7.3778377e-09
7.3739372e-09
7.3690837e-09
7.3652486e-09
7.3631938e-09
7.362147e-09
7.3610886e-09
7.3574396e-09
7.3546768e-09
0.00034923947
0.00076526024
0.00087894271
0.00074042676
0.00025838688
3.6342667e-07
8.0771965e-09
7.5087781e-09
7.6001604e-09
7.5217599e-09
7.5299954e-09
7.5029698e-09
7.5001029e-09
7.4904885e-09
7.4879245e-09
7.4852204e-09
7.4852601e-09
7.4865524e-09
7.4894458e-09
7.493494e-09
7.4983401e-09
7.5033585e-09
7.507758e-09
7.5107654e-09
7.511439e-09
7.5093399e-09
7.5043442e-09
7.4967175e-09
7.4871043e-09
7.4762864e-09
7.4650182e-09
7.4538901e-09
7.4432681e-09
7.4332646e-09
7.4237509e-09
7.4147972e-09
7.4067944e-09
7.3997362e-09
7.3932983e-09
7.3875823e-09
7.3824592e-09
7.3777678e-09
7.3738719e-09
7.3689605e-09
7.3652332e-09
7.3632377e-09
7.3622041e-09
7.3610719e-09
7.3573829e-09
7.3546077e-09
0.00034716745
0.000752199
0.00085127448
0.00069379885
0.00020370013
1.4393983e-07
7.9414893e-09
7.5096532e-09
7.6012851e-09
7.5247663e-09
7.532993e-09
7.5071909e-09
7.5046829e-09
7.4957786e-09
7.4936432e-09
7.491479e-09
7.4919556e-09
7.4936928e-09
7.4969714e-09
7.5013372e-09
7.506381e-09
7.5114209e-09
7.5156382e-09
7.5182079e-09
7.5181612e-09
7.5152144e-09
7.5092396e-09
7.5006402e-09
7.4901329e-09
7.4785474e-09
7.4666556e-09
7.4550423e-09
7.4440545e-09
7.4337684e-09
7.4240147e-09
7.4148609e-09
7.4067562e-09
7.3996821e-09
7.3932246e-09
7.3874558e-09
7.3823189e-09
7.3776883e-09
7.3737749e-09
7.3688291e-09
7.3652164e-09
7.363283e-09
7.3622651e-09
7.3610558e-09
7.3573226e-09
7.3545326e-09
0.00034509401
0.00073923579
0.0008230979
0.00064558427
0.00015253285
6.4944329e-08
7.8618897e-09
7.5111454e-09
7.6026295e-09
7.5281879e-09
7.535648e-09
7.5117609e-09
7.5096445e-09
7.501444e-09
7.4997483e-09
7.4981091e-09
7.4990351e-09
7.50122e-09
7.5048839e-09
7.5095599e-09
7.514776e-09
7.5197988e-09
7.52378e-09
7.5258194e-09
7.5249973e-09
7.5211151e-09
7.5141056e-09
7.5044943e-09
7.4930717e-09
7.4807132e-09
7.468203e-09
7.4561165e-09
7.4447781e-09
7.4342236e-09
7.4242384e-09
7.4148901e-09
7.4066876e-09
7.3995908e-09
7.3931208e-09
7.3873131e-09
7.3821671e-09
7.37759e-09
7.3736597e-09
7.3686923e-09
7.3651993e-09
7.3633298e-09
7.3623298e-09
7.3610396e-09
7.3572581e-09
7.3544515e-09
0.00034311577
0.00072670806
0.00079511105
0.00059482652
0.00010711348
3.419567e-08
7.8144852e-09
7.5132599e-09
7.6045188e-09
7.5320243e-09
7.5388891e-09
7.5166944e-09
7.5149808e-09
7.5074947e-09
7.5062315e-09
7.5051335e-09
7.5065106e-09
7.5091424e-09
7.5131887e-09
7.5181583e-09
7.523517e-09
7.5284776e-09
7.532163e-09
7.5335812e-09
7.5319176e-09
7.5270258e-09
7.518932e-09
7.5082787e-09
7.4959298e-09
7.4828005e-09
7.4696803e-09
7.4571289e-09
7.4454452e-09
7.4346248e-09
7.4244113e-09
7.4148828e-09
7.4065754e-09
7.399468e-09
7.3930001e-09
7.3871601e-09
7.3820039e-09
7.3774741e-09
7.3735285e-09
7.3685548e-09
7.365183e-09
7.3633779e-09
7.3623974e-09
7.3610221e-09
7.3571886e-09
7.3543641e-09
0.00034124949
0.000714608
0.00077034656
0.00054171661
6.6874783e-05
2.0897264e-08
7.7859595e-09
7.5158694e-09
7.6066482e-09
7.5362828e-09
7.5437522e-09
7.5220419e-09
7.5207044e-09
7.5139314e-09
7.5131165e-09
7.5125509e-09
7.5143899e-09
7.5174728e-09
7.5218991e-09
7.5271463e-09
7.5326139e-09
7.5374635e-09
7.5407782e-09
7.5414717e-09
7.5389014e-09
7.5329119e-09
7.52368e-09
7.5119515e-09
7.4986633e-09
7.4847647e-09
7.4710466e-09
7.4580492e-09
7.4460404e-09
7.4349705e-09
7.4245413e-09
7.4148394e-09
7.4064283e-09
7.3993216e-09
7.3928576e-09
7.3869907e-09
7.3818284e-09
7.3773523e-09
7.3733696e-09
7.3684202e-09
7.365167e-09
7.363426e-09
7.3624665e-09
7.3610013e-09
7.3571135e-09
7.3542706e-09
0.00033940327
0.0007021593
0.00074331463
0.00048594455
3.5820454e-05
1.4685681e-08
7.7688207e-09
7.5189745e-09
7.6091145e-09
7.5409624e-09
7.5493176e-09
7.5278281e-09
7.5268149e-09
7.5207673e-09
7.5203971e-09
7.5203857e-09
7.5226879e-09
7.5262207e-09
7.5310177e-09
7.536519e-09
7.5420562e-09
7.5467418e-09
7.5495928e-09
7.5494723e-09
7.5459185e-09
7.5387594e-09
7.5283442e-09
7.5155194e-09
7.5012899e-09
7.4866318e-09
7.4723294e-09
7.4588976e-09
7.446571e-09
7.4352554e-09
7.4246222e-09
7.4147392e-09
7.4062524e-09
7.3991435e-09
7.392691e-09
7.3868059e-09
7.3816433e-09
7.3772215e-09
7.3731791e-09
7.3682875e-09
7.3651495e-09
7.3634725e-09
7.3625356e-09
7.360975e-09
7.357032e-09
7.3541712e-09
0.00033769537
0.00068990345
0.0007169233
0.00042862453
1.6264588e-05
1.1579764e-08
7.7585538e-09
7.522543e-09
7.6119969e-09
7.5460767e-09
7.5545092e-09
7.5340173e-09
7.5333344e-09
7.5280108e-09
7.5281057e-09
7.5286391e-09
7.5314143e-09
7.5353985e-09
7.5405581e-09
7.546287e-09
7.5518508e-09
7.5563048e-09
7.5585864e-09
7.5575733e-09
7.5529312e-09
7.5445312e-09
7.5328853e-09
7.5189417e-09
7.5037677e-09
7.4883597e-09
7.4734909e-09
7.459647e-09
7.4470236e-09
7.4354807e-09
7.4246607e-09
7.4145987e-09
7.4060395e-09
7.3989355e-09
7.3924997e-09
7.3866039e-09
7.3814478e-09
7.377081e-09
7.3729623e-09
7.3681492e-09
7.3651281e-09
7.3635164e-09
7.3626038e-09
7.3609459e-09
7.3569436e-09
7.3540667e-09
0.00033606363
0.0006776041
0.00068984036
0.00037054985
6.4093649e-06
9.9452563e-09
7.7524884e-09
7.5266135e-09
7.6152598e-09
7.5516154e-09
7.5592374e-09
7.5405963e-09
7.540277e-09
7.5356863e-09
7.5362429e-09
7.5373381e-09
7.540585e-09
7.545015e-09
7.5505205e-09
7.556443e-09
7.5619819e-09
7.5661303e-09
7.5677302e-09
7.5657402e-09
7.5599158e-09
7.5502118e-09
7.5372995e-09
7.5222271e-09
7.5061164e-09
7.4899757e-09
7.4745589e-09
7.4603175e-09
7.4474056e-09
7.4356468e-09
7.4246339e-09
7.4144228e-09
7.405797e-09
7.398699e-09
7.392283e-09
7.3863846e-09
7.3812418e-09
7.3769283e-09
7.3727219e-09
7.3680007e-09
7.365101e-09
7.3635566e-09
7.3626711e-09
7.3609152e-09
7.3568478e-09
7.3539582e-09
0.00033438656
0.0006641564
0.00066202349
0.00031369022
2.3320411e-06
9.0563417e-09
7.7489428e-09
7.531219e-09
7.6189666e-09
7.5576126e-09
7.5643747e-09
7.5475819e-09
7.5476685e-09
7.5438045e-09
7.5448385e-09
7.5464836e-09
7.5502099e-09
7.5550843e-09
7.5609162e-09
7.5669986e-09
7.5724499e-09
7.5762086e-09
7.5769946e-09
7.5739489e-09
7.5668294e-09
7.5557544e-09
7.5415385e-09
7.5253254e-09
7.5082846e-09
7.491429e-09
7.4754895e-09
7.4608777e-09
7.4477038e-09
7.435756e-09
7.4245413e-09
7.4142055e-09
7.4055212e-09
7.3984333e-09
7.3920411e-09
7.3861471e-09
7.3810228e-09
7.3767604e-09
7.3724603e-09
7.3678398e-09
7.3650665e-09
7.3635933e-09
7.3627383e-09
7.3608784e-09
7.3567441e-09
7.3538464e-09
0.00033259625
0.00064973397
0.00063296047
0.00026019714
8.3462173e-07
8.557786e-09
7.7471131e-09
7.536372e-09
7.6231064e-09
7.5640932e-09
7.5707356e-09
7.5550306e-09
7.5555156e-09
7.5523829e-09
7.5538912e-09
7.5561021e-09
7.5603056e-09
7.5656112e-09
7.5717459e-09
7.5779401e-09
7.5832428e-09
7.5864939e-09
7.5863615e-09
7.582154e-09
7.5736501e-09
7.5611485e-09
7.5456067e-09
7.5282557e-09
7.5103031e-09
7.4927573e-09
7.4763174e-09
7.4613506e-09
7.4479315e-09
7.4357945e-09
7.424409e-09
7.4139495e-09
7.4052165e-09
7.3981403e-09
7.3917743e-09
7.3858921e-09
7.3807893e-09
7.3765732e-09
7.3721806e-09
7.3676668e-09
7.3650214e-09
7.363627e-09
7.3628067e-09
7.3608314e-09
7.3566325e-09
7.3537311e-09
0.00033059601
0.00063387559
0.00060149834
0.00020896553
3.1094059e-07
8.274556e-09
7.7469882e-09
7.542093e-09
7.627723e-09
7.5710835e-09
7.5782171e-09
7.5629815e-09
7.563831e-09
7.5614272e-09
7.5634284e-09
7.5661951e-09
7.5708829e-09
7.5766094e-09
7.5830203e-09
7.5892742e-09
7.5943499e-09
7.5969622e-09
7.5958115e-09
7.5903123e-09
7.5803326e-09
7.566348e-09
7.5494578e-09
7.5309715e-09
7.5121249e-09
7.4939143e-09
7.4770018e-09
7.4617102e-09
7.4480786e-09
7.4357407e-09
7.4242241e-09
7.4136543e-09
7.4048814e-09
7.3978196e-09
7.3914837e-09
7.3856208e-09
7.3805396e-09
7.3763618e-09
7.3718844e-09
7.3674843e-09
7.3649699e-09
7.3636586e-09
7.3628775e-09
7.3607743e-09
7.3565124e-09
7.3536122e-09
0.00032830889
0.0006163374
0.00056446747
0.00016024366
1.2774343e-07
8.1138085e-09
7.7479992e-09
7.5483739e-09
7.6328023e-09
7.578573e-09
7.5860779e-09
7.5714334e-09
7.5726226e-09
7.5709571e-09
7.5734523e-09
7.576793e-09
7.5819547e-09
7.5880849e-09
7.5947314e-09
7.6009861e-09
7.605742e-09
7.6075758e-09
7.6053016e-09
7.5983881e-09
7.5868537e-09
7.5713447e-09
7.5530993e-09
7.5334948e-09
7.5137839e-09
7.4949378e-09
7.4775753e-09
7.4619855e-09
7.4481354e-09
7.4356322e-09
7.4239869e-09
7.4133243e-09
7.4045203e-09
7.3974724e-09
7.3911698e-09
7.3853356e-09
7.3802749e-09
7.3761223e-09
7.3715737e-09
7.3672975e-09
7.3649162e-09
7.3636891e-09
7.3629509e-09
7.3607055e-09
7.3563836e-09
7.3534899e-09
0.00032580976
0.00059778914
0.00052332497
0.00011530204
6.0176778e-08
8.0219388e-09
7.7490789e-09
7.5552279e-09
7.6383795e-09
7.5865608e-09
7.593767e-09
7.5803562e-09
7.5819112e-09
7.5809825e-09
7.5839936e-09
7.5878965e-09
7.5935354e-09
7.6000499e-09
7.6068894e-09
7.6130776e-09
7.6173981e-09
7.6183076e-09
7.6147874e-09
7.6063356e-09
7.5931579e-09
7.5760833e-09
7.5564758e-09
7.5357698e-09
7.5152228e-09
7.4957721e-09
7.4779971e-09
7.4621476e-09
7.4480748e-09
7.4354529e-09
7.4236958e-09
7.4129581e-09
7.4041325e-09
7.3970988e-09
7.390833e-09
7.3850394e-09
7.3799983e-09
7.3758534e-09
7.3712488e-09
7.3671114e-09
7.3648609e-09
7.3637184e-09
7.3630255e-09
7.3606227e-09
7.3562459e-09
7.3533651e-09
0.00032313378
0.00057850919
0.00047820449
7.6918138e-05
3.30248e-08
7.9693799e-09
7.7506383e-09
7.5627378e-09
7.644436e-09
7.5950313e-09
7.6013316e-09
7.5897333e-09
7.5917063e-09
7.5915246e-09
7.5950562e-09
7.5995362e-09
7.6056379e-09
7.6125053e-09
7.6194847e-09
7.6255268e-09
7.6292678e-09
7.6291262e-09
7.6242181e-09
7.6141185e-09
7.5992289e-09
7.5805659e-09
7.5596079e-09
7.5378326e-09
7.5164868e-09
7.4964652e-09
7.4783172e-09
7.4621905e-09
7.4479581e-09
7.4352042e-09
7.423355e-09
7.4125623e-09
7.4037224e-09
7.3966995e-09
7.3904734e-09
7.3847348e-09
7.3797165e-09
7.3755577e-09
7.3709116e-09
7.3669325e-09
7.364807e-09
7.3637465e-09
7.3630987e-09
7.3605236e-09
7.356099e-09
7.3532388e-09
0.00032022503
0.00055849696
0.00043302735
4.536421e-05
2.0887783e-08
7.9396705e-09
7.7527183e-09
7.5710065e-09
7.6510043e-09
7.6040067e-09
7.6097026e-09
7.5995947e-09
7.6020325e-09
7.6025979e-09
7.6066718e-09
7.6117164e-09
7.6182748e-09
7.6254611e-09
7.6325206e-09
7.6383189e-09
7.6413163e-09
7.6399989e-09
7.633535e-09
7.6216815e-09
7.6050115e-09
7.5847399e-09
7.5624448e-09
7.5396313e-09
7.5175214e-09
7.4969751e-09
7.4784948e-09
7.4621096e-09
7.4477378e-09
7.4348793e-09
7.4229608e-09
7.4121346e-09
7.4032904e-09
7.3962757e-09
7.3900903e-09
7.3844232e-09
7.3794367e-09
7.3752418e-09
7.370565e-09
7.3667658e-09
7.3647583e-09
7.3637733e-09
7.3631668e-09
7.3604049e-09
7.3559431e-09
7.3531121e-09
0.00031698127
0.00053641839
0.00038730979
2.2970635e-05
1.5037461e-08
7.9236149e-09
7.7553566e-09
7.5804482e-09
7.6580485e-09
7.6135165e-09
7.6193394e-09
7.6100184e-09
7.6129047e-09
7.6142295e-09
7.6188517e-09
7.6244694e-09
7.6314566e-09
7.6389133e-09
7.6459804e-09
7.6514176e-09
7.6534967e-09
7.6508698e-09
7.6426944e-09
7.6289906e-09
7.6104933e-09
7.5886133e-09
7.5650125e-09
7.5412033e-09
7.5183758e-09
7.4973628e-09
7.4785209e-09
7.461951e-09
7.4474327e-09
7.4344853e-09
7.4225204e-09
7.4116823e-09
7.4028405e-09
7.3958287e-09
7.3896831e-09
7.3841039e-09
7.3791652e-09
7.3749137e-09
7.3702155e-09
7.3666187e-09
7.3647192e-09
7.3637986e-09
7.3632238e-09
7.3602633e-09
7.3557786e-09
7.3529863e-09
0.00031393215
0.00051581077
0.00034045129
1.0059575e-05
1.208431e-08
7.9158125e-09
7.7586045e-09
7.5917951e-09
7.6656053e-09
7.6235997e-09
7.6298668e-09
7.6210506e-09
7.6243556e-09
7.6264422e-09
7.6316322e-09
7.6377939e-09
7.6451936e-09
7.6528658e-09
7.6598629e-09
7.6647835e-09
7.6657779e-09
7.6616706e-09
7.6516435e-09
7.6359787e-09
7.6156113e-09
7.5921257e-09
7.5672489e-09
7.5424854e-09
7.5190005e-09
7.4975438e-09
7.4784101e-09
7.4616583e-09
7.4470253e-09
7.4340097e-09
7.4220254e-09
7.4112015e-09
7.4023735e-09
7.3953613e-09
7.3892513e-09
7.3837732e-09
7.378904e-09
7.3745792e-09
7.3698709e-09
7.3664969e-09
7.3646946e-09
7.3638208e-09
7.363266e-09
7.3600947e-09
7.3556062e-09
7.3528627e-09
0.00031103865
0.00049560203
0.0002930098
3.9511327e-06
1.0465312e-08
7.9129977e-09
7.7624579e-09
7.6040004e-09
7.6737404e-09
7.634281e-09
7.6405935e-09
7.6326826e-09
7.6364088e-09
7.6392702e-09
7.645009e-09
7.6517133e-09
7.6594862e-09
7.6673127e-09
7.6741336e-09
7.6783585e-09
7.678116e-09
7.6723412e-09
7.6603263e-09
7.6426218e-09
7.6203653e-09
7.5952992e-09
7.5691926e-09
7.5435365e-09
7.5194648e-09
7.4975547e-09
7.4781909e-09
7.4612702e-09
7.4465312e-09
7.4334654e-09
7.4214871e-09
7.4106989e-09
7.4018915e-09
7.3948761e-09
7.3887959e-09
7.3834256e-09
7.378648e-09
7.3742336e-09
7.3695404e-09
7.3664066e-09
7.3646924e-09
7.3638406e-09
7.36328e-09
7.3598955e-09
7.3554273e-09
7.3527426e-09
0.00030835728
0.00047474943
0.00024547038
1.4640956e-06
9.5646548e-09
7.9134105e-09
7.7669386e-09
7.6168983e-09
7.6825139e-09
7.6455626e-09
7.6512953e-09
7.6448902e-09
7.6490995e-09
7.6527103e-09
7.6590107e-09
7.6662382e-09
7.6743422e-09
7.682253e-09
7.6887695e-09
7.6921017e-09
7.6904526e-09
7.6828099e-09
7.6686775e-09
7.6488556e-09
7.6246979e-09
7.5980784e-09
7.5707904e-09
7.5443147e-09
7.5196625e-09
7.4974182e-09
7.4778184e-09
7.460759e-09
7.4459321e-09
7.4328363e-09
7.4208932e-09
7.4101689e-09
7.4013948e-09
7.3943767e-09
7.3883191e-09
7.3830543e-09
7.3783848e-09
7.3738638e-09
7.3692322e-09
7.3663358e-09
7.3647193e-09
7.3638647e-09
7.3632717e-09
7.3596627e-09
7.3552433e-09
7.3526264e-09
0.00030607214
0.00045320677
0.0001984752
5.4156939e-07
9.057656e-09
7.9158316e-09
7.7720171e-09
7.630468e-09
7.6918777e-09
7.657449e-09
7.6625542e-09
7.6576977e-09
7.6624327e-09
7.6668024e-09
7.673659e-09
7.6813782e-09
7.6897614e-09
7.6976632e-09
7.7037237e-09
7.7059471e-09
7.7027161e-09
7.6930162e-09
7.6766482e-09
7.6546622e-09
7.6286155e-09
7.6004909e-09
7.5720974e-09
7.5448858e-09
7.5196835e-09
7.4971371e-09
7.47734e-09
7.4601505e-09
7.4452459e-09
7.4321386e-09
7.4202571e-09
7.4096162e-09
7.400882e-09
7.3938653e-09
7.3878257e-09
7.3826538e-09
7.3780964e-09
7.3734636e-09
7.368936e-09
7.3662661e-09
7.3647691e-09
7.3639114e-09
7.3632512e-09
7.3593945e-09
7.3550553e-09
7.352515e-09
0.00030434978
0.00043161556
0.00015319652
2.1392002e-07
8.764078e-09
7.9196395e-09
7.7777056e-09
7.6447428e-09
7.7018649e-09
7.6699743e-09
7.6751577e-09
7.6711866e-09
7.6764482e-09
7.6815555e-09
7.688967e-09
7.6971452e-09
7.7057452e-09
7.7135328e-09
7.7189406e-09
7.7198491e-09
7.7148242e-09
7.7028803e-09
7.6841685e-09
7.659972e-09
7.632054e-09
7.6024765e-09
7.5730637e-09
7.5451192e-09
7.5195014e-09
7.4966725e-09
7.4767148e-09
7.4594196e-09
7.4444512e-09
7.4313505e-09
7.4195619e-09
7.4090332e-09
7.4003509e-09
7.3933436e-09
7.3873211e-09
7.3822222e-09
7.3777643e-09
7.3730285e-09
7.3686392e-09
7.3661763e-09
7.3648128e-09
7.3639943e-09
7.3632164e-09
7.3590918e-09
7.3548637e-09
7.3524088e-09
0.00030299642
0.00040789197
0.000110501
9.4672839e-08
8.5882463e-09
7.9246137e-09
7.7840523e-09
7.6596876e-09
7.7124371e-09
7.6831814e-09
7.6887156e-09
7.6854004e-09
7.6911494e-09
7.6970063e-09
7.7049536e-09
7.7135431e-09
7.7222812e-09
7.7298168e-09
7.7343428e-09
7.7337497e-09
7.7266868e-09
7.712338e-09
7.6911978e-09
7.6647809e-09
7.6350362e-09
7.6040914e-09
7.5737527e-09
7.545136e-09
7.5191381e-09
7.496085e-09
7.4759857e-09
7.458595e-09
7.443572e-09
7.4304949e-09
7.4188234e-09
7.4084224e-09
7.3997962e-09
7.3928098e-09
7.3868117e-09
7.3817625e-09
7.3773733e-09
7.3725497e-09
7.3683359e-09
7.3660659e-09
7.3648471e-09
7.364093e-09
7.3631678e-09
7.3587593e-09
7.3546682e-09
7.3523083e-09
0.0003018085
0.00038032159
7.221872e-05
4.8340594e-08
8.479854e-09
7.930647e-09
7.7910853e-09
7.6751447e-09
7.7237341e-09
7.6970937e-09
7.7026144e-09
7.7003206e-09
7.7065843e-09
7.7131618e-09
7.7216303e-09
7.7305765e-09
7.7393607e-09
7.7464765e-09
7.749869e-09
7.7475555e-09
7.7382188e-09
7.7213009e-09
7.6976641e-09
7.6690262e-09
7.6375107e-09
7.605296e-09
7.5740285e-09
7.544891e-09
7.5185621e-09
7.4953262e-09
7.4751203e-09
7.4576537e-09
7.4425864e-09
7.4295474e-09
7.4180226e-09
7.4077754e-09
7.3992133e-09
7.3922597e-09
7.3863015e-09
7.3812834e-09
7.3769166e-09
7.372023e-09
7.3680288e-09
7.3659459e-09
7.3648788e-09
7.364193e-09
7.3630628e-09
7.3584034e-09
7.3544695e-09
7.352214e-09
0.0003006714
0.00034957484
4.2211379e-05
2.8765987e-08
8.4104512e-09
7.9376985e-09
7.7988287e-09
7.6912118e-09
7.7358885e-09
7.7116855e-09
7.7169838e-09
7.7159514e-09
7.7227612e-09
7.7300605e-09
7.739013e-09
7.7482426e-09
7.7569526e-09
7.7634405e-09
7.765441e-09
7.7611687e-09
7.7493353e-09
7.7297107e-09
7.7035393e-09
7.6727149e-09
7.6395214e-09
7.6061427e-09
7.5740411e-09
7.5444307e-09
7.5178352e-09
7.4944512e-09
7.4741567e-09
7.4566235e-09
7.4415206e-09
7.4285342e-09
7.4171757e-09
7.4070934e-09
7.3985952e-09
7.391686e-09
7.3857903e-09
7.3807951e-09
7.3763939e-09
7.3714551e-09
7.3677285e-09
7.3658349e-09
7.3649084e-09
7.3642895e-09
7.3628959e-09
7.3580295e-09
7.3542697e-09
7.3521266e-09
0.00029929003
0.00031495959
2.1972154e-05
1.963782e-08
8.3640098e-09
7.9457667e-09
7.8072731e-09
7.7081352e-09
7.7489363e-09
7.7269424e-09
7.7322646e-09
7.7323631e-09
7.7397305e-09
7.7477114e-09
7.7571083e-09
7.7665396e-09
7.7750249e-09
7.7806197e-09
7.7809963e-09
7.7744775e-09
7.7599243e-09
7.7374904e-09
7.7087455e-09
7.6757876e-09
7.6410238e-09
7.6064799e-09
7.5737189e-09
7.5437022e-09
7.5168974e-09
7.493414e-09
7.4730646e-09
7.4554834e-09
7.4403532e-09
7.42743e-09
7.4162625e-09
7.4063681e-09
7.3979382e-09
7.39108e-09
7.3852725e-09
7.3803062e-09
7.3758112e-09
7.3708687e-09
7.3674458e-09
7.3657381e-09
7.3649366e-09
7.3643869e-09
7.3626542e-09
7.3576443e-09
7.3540705e-09
7.3520458e-09
0.00029728052
0.00027636426
1.0126772e-05
1.5007687e-08
8.3313258e-09
7.9549412e-09
7.8163828e-09
7.7260412e-09
7.7627086e-09
7.742985e-09
7.74832e-09
7.7496163e-09
7.7575085e-09
7.7661487e-09
7.7759247e-09
7.7854426e-09
7.7935168e-09
7.7979264e-09
7.7964255e-09
7.7873693e-09
7.7699125e-09
7.7445805e-09
7.7132784e-09
7.6782824e-09
7.6420682e-09
7.6064841e-09
7.5731257e-09
7.5427825e-09
7.5158207e-09
7.4922688e-09
7.4718813e-09
7.4542627e-09
7.4391154e-09
7.4262658e-09
7.4153002e-09
7.4056009e-09
7.397239e-09
7.3904344e-09
7.3847376e-09
7.3798163e-09
7.3751722e-09
7.3703035e-09
7.3671914e-09
7.3656662e-09
7.3649645e-09
7.3644725e-09
7.3623225e-09
7.3572565e-09
7.3538724e-09
7.3519689e-09
0.00029433531
0.00022964155
4.3663057e-06
1.2538096e-08
8.3072782e-09
7.965008e-09
7.8261991e-09
7.7448846e-09
7.7773531e-09
7.7598797e-09
7.7654532e-09
7.7677123e-09
7.776141e-09
7.7853741e-09
7.7954579e-09
7.8049262e-09
7.8123562e-09
7.8152673e-09
7.8116057e-09
7.7997263e-09
7.7791877e-09
7.7509004e-09
7.7170789e-09
7.6801632e-09
7.6425067e-09
7.6060851e-09
7.5722133e-09
7.5416132e-09
7.5145526e-09
7.490976e-09
7.4705803e-09
7.4529427e-09
7.437788e-09
7.4250198e-09
7.4142708e-09
7.4047849e-09
7.3964987e-09
7.3897455e-09
7.3841726e-09
7.3793156e-09
7.3744888e-09
7.3697931e-09
7.3669814e-09
7.3656156e-09
7.364988e-09
7.3645339e-09
7.3618956e-09
7.3568749e-09
7.3536753e-09
7.3518942e-09
0.00029155949
0.00019060304
1.940253e-06
1.1152924e-08
8.2887712e-09
7.9759387e-09
7.836802e-09
7.7647701e-09
7.7929418e-09
7.7776556e-09
7.7834567e-09
7.7866985e-09
7.7956335e-09
7.8054132e-09
7.8156948e-09
7.8249438e-09
7.8314206e-09
7.8325569e-09
7.8263935e-09
7.8114379e-09
7.7876777e-09
7.7564176e-09
7.7201692e-09
7.681467e-09
7.6425206e-09
7.6053452e-09
7.5710604e-09
7.5402745e-09
7.5131594e-09
7.4895828e-09
7.469193e-09
7.4515493e-09
7.4364024e-09
7.4237244e-09
7.4131917e-09
7.4039222e-09
7.395721e-09
7.3890168e-09
7.3835662e-09
7.378785e-09
7.3737872e-09
7.3693402e-09
7.3668238e-09
7.3656053e-09
7.3650057e-09
7.3645253e-09
7.361383e-09