/*--------------------------------*- C++ -*----------------------------------*\
| =========                 |                                                 |
| \\      /  F ield         | OpenFOAM: The Open Source CFD Toolbox           |
|  \\    /   O peration     | Version:  2306                                  |
|   \\  /    A nd           | Website:  www.openfoam.com                      |
|    \\/     M anipulation  |                                                 |
\*---------------------------------------------------------------------------*/
FoamFile
{
    version     2.0;
    format      ascii;
    arch        "LSB;label=32;scalar=64";
    class       volScalarField;
    location    "0.013";
    object      rho;
}
// * * * * * * * * * * * * * * * * * * * * * * * * * * * * * * * * * * * * * //

dimensions      [1 -3 0 0 0 0 0];

internalField   nonuniform List<scalar> 
20000
(
1.1613846
1.1610395
1.1609812
1.1612356
1.1620475
1.1640371
1.1654571
1.1655562
1.1655163
1.1655578
1.1655686
1.1656387
1.1657072
1.1658243
1.1659591
1.1661421
1.1663577
1.1666242
1.1669314
1.1672882
1.1676842
1.1681153
1.1685641
1.169013
1.1694345
1.1698023
1.1700896
1.1702808
1.1703626
1.1703463
1.1702374
1.1700605
1.1698295
1.1695692
1.1692857
1.1689973
1.1687112
1.1684366
1.1681808
1.1679505
1.1677472
1.1675576
1.1674079
1.1672637
1.1670854
1.1669707
1.1669451
1.1669779
1.1668338
1.1666948
1.1615468
1.1612007
1.1611475
1.161421
1.1622694
1.1643514
1.1656097
1.1656873
1.1656523
1.1656994
1.1657141
1.1657896
1.1658627
1.1659858
1.1661268
1.166317
1.1665404
1.1668152
1.1671312
1.1674969
1.1679011
1.168339
1.1687918
1.1692408
1.169657
1.1700133
1.1702841
1.1704523
1.1705092
1.1704669
1.1703347
1.1701359
1.1698881
1.1696135
1.1693193
1.1690216
1.1687294
1.168451
1.1681927
1.1679604
1.167755
1.1675641
1.1674145
1.1672679
1.1670858
1.166974
1.1669508
1.1669785
1.1668325
1.1666935
1.1617168
1.1613761
1.1613354
1.1616345
1.1625326
1.1646976
1.1657763
1.1658346
1.165801
1.1658517
1.1658696
1.1659497
1.1660277
1.1661567
1.1663041
1.1665018
1.1667331
1.1670168
1.1673421
1.167717
1.1681298
1.1685745
1.1690317
1.1694806
1.1698912
1.1702358
1.1704893
1.1706337
1.170665
1.1705963
1.1704396
1.1702191
1.1699536
1.1696645
1.169359
1.1690516
1.1687521
1.1684694
1.1682082
1.1679733
1.1677655
1.1675728
1.1674238
1.1672729
1.1670878
1.1669828
1.1669604
1.1669797
1.1668315
1.1666925
1.1619154
1.1615732
1.1615396
1.1618627
1.1628133
1.1650353
1.1659423
1.1659914
1.1659611
1.1660165
1.1660381
1.1661235
1.1662066
1.1663419
1.1664961
1.1667015
1.1669412
1.1672339
1.1675687
1.1679529
1.1683743
1.1688257
1.1692865
1.1697342
1.1701375
1.1704684
1.170702
1.1708197
1.1708238
1.1707267
1.1705441
1.1703007
1.1700169
1.1697131
1.169396
1.1690789
1.1687724
1.1684856
1.1682216
1.1679845
1.1677744
1.1675804
1.1674317
1.1672765
1.1670899
1.1669886
1.1669677
1.1669812
1.1668304
1.1666914
1.1621243
1.1617822
1.1617567
1.1621072
1.1631236
1.165373
1.166119
1.1661638
1.1661352
1.1661948
1.16622
1.1663105
1.1663987
1.1665404
1.1667015
1.1669149
1.1671632
1.1674654
1.1678098
1.1682036
1.1686335
1.1690914
1.1695551
1.1700007
1.1703953
1.1707111
1.1709224
1.1710119
1.1709871
1.1708603
1.1706506
1.1703838
1.1700811
1.1697621
1.1694332
1.1691061
1.1687926
1.1685018
1.1682351
1.1679958
1.1677834
1.1675881
1.1674396
1.1672796
1.1670928
1.1669952
1.1669742
1.1669829
1.1668294
1.1666905
1.1623663
1.1620165
1.1619942
1.162371
1.1634624
1.1657097
1.1662978
1.1663484
1.1663226
1.1663866
1.1664154
1.1665111
1.1666047
1.1667529
1.1669213
1.1671428
1.1674002
1.1677119
1.1680664
1.1684699
1.1689084
1.1693724
1.1698385
1.1702806
1.1706649
1.1709637
1.1711497
1.1712095
1.1711536
1.1709955
1.1707577
1.1704667
1.1701446
1.1698103
1.1694695
1.1691322
1.1688117
1.1685168
1.1682477
1.1680063
1.1677919
1.1675954
1.167447
1.1672823
1.1670961
1.1670008
1.16698
1.1669845
1.1668283
1.1666895
1.1625974
1.1622485
1.1622358
1.1626427
1.1638274
1.1660446
1.1664829
1.1665467
1.1665229
1.1665913
1.1666241
1.1667251
1.1668243
1.1669793
1.1671552
1.1673854
1.1676519
1.1679738
1.1683385
1.1687518
1.1691989
1.1696686
1.1701362
1.1705735
1.1709459
1.1712255
1.1713834
1.1714122
1.171323
1.1711325
1.1708655
1.1705497
1.1702079
1.169858
1.1695048
1.1691573
1.1688297
1.1685309
1.1682594
1.1680162
1.1677999
1.1676026
1.1674542
1.1672847
1.1670999
1.167007
1.1669855
1.1669861
1.1668272
1.1666886
1.1628617
1.1625064
1.162497
1.1629327
1.1642207
1.1663764
1.1666919
1.1667563
1.1667356
1.166809
1.1668459
1.1669526
1.1670579
1.16722
1.1674038
1.1676429
1.1679192
1.1682512
1.1686266
1.1690499
1.1695054
1.1699806
1.1704486
1.1708797
1.1712384
1.1714961
1.1716232
1.1716192
1.1714946
1.1712702
1.1709732
1.1706321
1.1702703
1.1699047
1.1695391
1.1691814
1.1688465
1.1685439
1.1682702
1.1680252
1.1678071
1.1676094
1.1674609
1.1672869
1.167104
1.1670133
1.1669908
1.1669874
1.1668262
1.1666876
1.1631274
1.1627709
1.1627658
1.1632297
1.1646381
1.1667007
1.166908
1.1669792
1.1669613
1.1670398
1.1670813
1.167194
1.1673055
1.1674751
1.1676671
1.1679156
1.168202
1.1685448
1.168931
1.1693643
1.1698281
1.170308
1.1707755
1.1711987
1.1715418
1.1717746
1.1718688
1.1718297
1.171668
1.1714086
1.1710807
1.1707138
1.1703317
1.1699503
1.1695722
1.169204
1.1688621
1.1685558
1.16828
1.1680334
1.1678136
1.1676157
1.1674671
1.1672883
1.167108
1.1670198
1.166996
1.1669886
1.1668252
1.1666867
1.1634174
1.1630564
1.1630558
1.1635474
1.165084
1.1670236
1.1671395
1.1672155
1.1672008
1.1672845
1.1673305
1.1674493
1.1675674
1.1677448
1.1679456
1.1682038
1.1685008
1.1688546
1.1692521
1.1696956
1.1701675
1.1706515
1.1711172
1.1715306
1.171856
1.1720603
1.1721199
1.1720428
1.1718423
1.1715466
1.1711871
1.1707942
1.1703918
1.1699947
1.169604
1.1692255
1.1688764
1.1685666
1.1682889
1.1680407
1.1678194
1.1676215
1.1674727
1.1672889
1.1671119
1.1670261
1.1670013
1.1669898
1.1668243
1.1666858
1.1637149
1.1633539
1.1633588
1.1638754
1.1655482
1.1673395
1.1673831
1.1674648
1.167453
1.1675422
1.1675932
1.1677186
1.1678438
1.1680295
1.1682394
1.1685079
1.1688159
1.1691813
1.1695902
1.1700439
1.1705235
1.1710109
1.1714732
1.171875
1.1721801
1.1723524
1.1723756
1.1722581
1.1720171
1.1716841
1.1712925
1.1708733
1.1704504
1.1700376
1.1696343
1.1692454
1.1688894
1.1685762
1.1682967
1.1680471
1.1678244
1.1676268
1.1674778
1.167289
1.1671155
1.167032
1.1670065
1.1669909
1.1668235
1.1666848
1.1640289
1.1636664
1.1636792
1.1642221
1.1660278
1.1676484
1.1676389
1.1677262
1.1677184
1.1678136
1.1678699
1.1680024
1.1681351
1.1683296
1.1685492
1.1688283
1.169148
1.169525
1.1699457
1.1704097
1.1708968
1.1713864
1.1718438
1.1722321
1.1725135
1.1726506
1.172635
1.1724745
1.1721914
1.1718201
1.1713959
1.1709504
1.1705071
1.1700788
1.1696631
1.1692638
1.168901
1.1685846
1.1683035
1.1680525
1.1678286
1.1676315
1.1674823
1.1672886
1.1671188
1.1670377
1.1670119
1.166992
1.1668224
1.1666835
1.164363
1.1640002
1.1640202
1.1645891
1.1665201
1.1679557
1.1679094
1.1680026
1.1679982
1.1680996
1.1681617
1.1683015
1.1684421
1.1686457
1.1688754
1.1691657
1.1694972
1.1698866
1.1703191
1.1707931
1.1712871
1.1717779
1.1722285
1.1726009
1.172855
1.1729545
1.1728971
1.1726914
1.1723648
1.1719543
1.1714973
1.1710254
1.1705619
1.1701181
1.16969
1.1692805
1.1689111
1.1685917
1.1683091
1.168057
1.167832
1.1676357
1.1674863
1.1672876
1.1671218
1.1670432
1.1670174
1.1669931
1.1668212
1.1666819
1.1647189
1.1643521
1.1643835
1.1649846
1.1670211
1.1682648
1.1681952
1.1682939
1.1682936
1.1684013
1.1684691
1.1686164
1.1687652
1.1689783
1.1692186
1.1695204
1.1698644
1.170266
1.1707107
1.1711947
1.171695
1.1721855
1.1726275
1.1729814
1.173204
1.1732635
1.1731608
1.1729077
1.1725361
1.1720858
1.1715956
1.1710976
1.1706143
1.1701554
1.1697151
1.1692955
1.1689197
1.1685975
1.1683138
1.1680608
1.1678348
1.1676394
1.1674898
1.1672859
1.1671246
1.1670486
1.1670229
1.1669943
1.1668198
1.16668
1.1650784
1.1647132
1.1647601
1.1654027
1.1675227
1.1685829
1.1684963
1.1686008
1.1686042
1.1687183
1.1687924
1.1689475
1.1691049
1.1693279
1.1695791
1.169893
1.1702495
1.1706641
1.1711209
1.1716146
1.1721203
1.1726091
1.17304
1.1733725
1.1735594
1.1735764
1.1734252
1.1731228
1.172705
1.1722145
1.1716911
1.1711671
1.1706642
1.1701905
1.1697381
1.1693086
1.1689267
1.1686022
1.1683176
1.1680638
1.167837
1.1676427
1.1674925
1.1672837
1.1671272
1.1670539
1.1670286
1.1669954
1.1668181
1.1666777
1.1654624
1.1650947
1.1651604
1.165858
1.1680243
1.1688942
1.1688125
1.1689227
1.1689306
1.1690516
1.169132
1.1692952
1.1694618
1.1696948
1.1699576
1.1702835
1.1706534
1.1710811
1.1715502
1.1720534
1.1725634
1.1730487
1.1734665
1.1737734
1.1739206
1.1738921
1.1736893
1.1733355
1.1728704
1.1723391
1.1717828
1.1712332
1.1707113
1.1702231
1.169759
1.1693198
1.1689322
1.1686059
1.1683203
1.1680652
1.1678378
1.1676456
1.1674938
1.167281
1.1671296
1.1670593
1.1670344
1.1669965
1.1668162
1.166675
1.1658616
1.1654911
1.1655747
1.1663433
1.1685192
1.1692247
1.1691449
1.1692614
1.1692735
1.1694014
1.1694886
1.1696601
1.1698359
1.1700796
1.1703541
1.1706929
1.1710765
1.1715176
1.1719989
1.1725109
1.1730241
1.1735038
1.1739057
1.1741826
1.1742871
1.1742091
1.173952
1.1735452
1.1730319
1.1724597
1.1718707
1.171296
1.1707554
1.1702532
1.1697775
1.169329
1.1689365
1.1686081
1.1683214
1.1680657
1.167838
1.1676475
1.167494
1.1672781
1.167132
1.1670648
1.1670403
1.1669976
1.1668141
1.1666719
1.1662901
1.165909
1.1660121
1.1668714
1.1690156
1.1695784
1.1694945
1.1696166
1.1696332
1.1697681
1.169862
1.1700421
1.1702277
1.1704823
1.1707693
1.1711213
1.1715191
1.1719739
1.1724674
1.1729877
1.1735026
1.1739745
1.1743574
1.1745992
1.1746581
1.1745262
1.1742121
1.1737503
1.1731881
1.1725751
1.1719537
1.1713547
1.1707962
1.1702805
1.1697936
1.1693365
1.1689386
1.1686085
1.1683216
1.1680653
1.1678375
1.1676483
1.1674933
1.1672751
1.1671344
1.1670703
1.1670464
1.1669985
1.1668116
1.1666684
1.1667243
1.1663362
1.1664568
1.1674288
1.1695031
1.1699411
1.1698587
1.1699873
1.1700083
1.1701506
1.1702519
1.1704411
1.170637
1.1709034
1.1712033
1.1715695
1.1719819
1.1724506
1.1729561
1.1734838
1.1739986
1.1744602
1.1748204
1.1750221
1.1750319
1.1748423
1.1744687
1.1739506
1.1733391
1.1726855
1.1720324
1.1714096
1.1708337
1.1703048
1.1698071
1.1693419
1.168939
1.1686081
1.1683207
1.1680639
1.1678362
1.1676486
1.1674908
1.1672723
1.1671368
1.1670757
1.1670525
1.1669992
1.1668087
1.1666645
1.167179
1.16678
1.1669166
1.168024
1.1699817
1.1703183
1.1702372
1.1703725
1.1703989
1.1705493
1.1706585
1.1708575
1.1710645
1.1713433
1.1716572
1.1720378
1.1724654
1.1729482
1.1734654
1.1739995
1.1745123
1.174961
1.1752935
1.1754504
1.175407
1.1751558
1.1747201
1.1741445
1.1734834
1.1727895
1.1721055
1.1714599
1.1708674
1.170326
1.1698184
1.1693445
1.168938
1.1686063
1.1683187
1.1680616
1.1678341
1.1676481
1.1674863
1.1672696
1.1671391
1.167081
1.1670586
1.1669995
1.1668055
1.1666602
1.1676522
1.1672417
1.1673882
1.1686461
1.170453
1.1707093
1.1706309
1.1707735
1.1708055
1.1709645
1.1710826
1.171292
1.171511
1.1718029
1.1721313
1.1725272
1.1729703
1.1734672
1.1739955
1.1745346
1.1750431
1.1754757
1.175775
1.1758836
1.1757817
1.1754655
1.1749657
1.1743317
1.1736211
1.1728876
1.1721736
1.1715059
1.1708974
1.1703441
1.1698272
1.169345
1.1689354
1.1686033
1.1683154
1.1680582
1.1678313
1.1676467
1.16748
1.1672665
1.1671412
1.1670861
1.1670646
1.1669997
1.1668019
1.1666556
1.1681458
1.1677203
1.1678763
1.1692957
1.1709169
1.1711161
1.1710405
1.1711912
1.1712297
1.171398
1.1715254
1.1717458
1.1719775
1.172283
1.1726267
1.1730381
1.1734971
1.1740081
1.174547
1.1750895
1.175591
1.1760038
1.1762637
1.17632
1.1761542
1.1757698
1.1752036
1.1745105
1.1737505
1.1729784
1.1722353
1.1715468
1.1709233
1.170359
1.1698327
1.1693437
1.1689311
1.1685989
1.1683111
1.1680538
1.1678278
1.1676443
1.167472
1.1672629
1.167143
1.167091
1.1670704
1.1669997
1.1667978
1.1666507
1.1686555
1.1682199
1.1683839
1.1699673
1.1713718
1.1715423
1.1714696
1.1716285
1.1716732
1.171851
1.1719883
1.1722201
1.1724647
1.1727845
1.1731438
1.1735714
1.1740464
1.1745713
1.1751198
1.1756636
1.1761554
1.1765437
1.1767584
1.1767578
1.1765233
1.1760674
1.1754334
1.1746808
1.1738722
1.1730624
1.1722915
1.1715829
1.1709452
1.1703708
1.1698346
1.1693401
1.1689254
1.1685932
1.1683055
1.1680484
1.1678236
1.1676409
1.1674626
1.1672587
1.1671443
1.1670957
1.1670763
1.1669994
1.1667933
1.1666455
1.1691846
1.1687394
1.168915
1.1706568
1.1718422
1.1719879
1.171918
1.1720852
1.172137
1.1723244
1.1724718
1.1727152
1.1729734
1.1733079
1.1736837
1.1741275
1.1746189
1.1751574
1.1757143
1.1762573
1.1767363
1.177094
1.1772578
1.1771949
1.1768869
1.1763565
1.1756532
1.1748411
1.1739846
1.1731383
1.172341
1.1716136
1.1709629
1.1703789
1.1698344
1.1693344
1.168918
1.1685862
1.1682987
1.168042
1.1678188
1.1676366
1.1674518
1.1672537
1.1671451
1.1671002
1.1670821
1.1669984
1.1667883
1.1666401
1.1697381
1.1692845
1.1694761
1.1713582
1.1722941
1.1724543
1.172387
1.1725625
1.172621
1.1728182
1.1729763
1.1732318
1.1735041
1.173854
1.1742465
1.1747075
1.1752151
1.1757666
1.1763304
1.17687
1.1773321
1.1776525
1.177761
1.177629
1.1772435
1.1766359
1.1758625
1.1749913
1.1740882
1.173207
1.1723844
1.1716392
1.1709769
1.1703823
1.1698313
1.1693266
1.1689091
1.1685779
1.1682906
1.1680347
1.1678133
1.1676314
1.1674402
1.1672483
1.1671455
1.1671045
1.167088
1.1669969
1.1667828
1.1666345
1.1703156
1.1698502
1.1700703
1.1720662
1.172779
1.1729397
1.1728751
1.1730592
1.1731252
1.1733329
1.173502
1.1737702
1.1740576
1.1744233
1.1748335
1.1753116
1.1758357
1.1763996
1.1769684
1.1775015
1.1779421
1.1782179
1.1782658
1.1780582
1.1775908
1.1769036
1.1760594
1.1751299
1.1741815
1.1732668
1.1724205
1.1716595
1.1709861
1.1703826
1.1698252
1.1693167
1.1688987
1.1685682
1.1682814
1.1680265
1.1678072
1.1676254
1.1674279
1.1672426
1.1671458
1.1671088
1.167094
1.1669947
1.1667768
1.1666286
1.1709044
1.1704306
1.1706949
1.1727707
1.1732794
1.173444
1.1733827
1.1735761
1.1736501
1.1738685
1.1740499
1.1743313
1.1746342
1.1750168
1.175445
1.1759409
1.1764812
1.1770563
1.1776278
1.1781511
1.1785645
1.1787883
1.1787697
1.1784804
1.1779274
1.1771589
1.176244
1.1752573
1.1742653
1.1733189
1.1724504
1.1716753
1.1709897
1.1703792
1.1698162
1.1693048
1.1688868
1.1685573
1.168271
1.1680174
1.1678006
1.1676187
1.1674152
1.1672367
1.1671459
1.1671129
1.1671001
1.1669917
1.1667703
1.1666225
1.1715282
1.1710354
1.1713655
1.1734765
1.1737968
1.1739691
1.173911
1.1741136
1.1741963
1.1744261
1.1746201
1.1749155
1.175235
1.1756349
1.1760821
1.1765958
1.1771521
1.1777372
1.1783089
1.1788184
1.1791971
1.1793625
1.1792702
1.1788933
1.1782509
1.1773997
1.1764144
1.1753718
1.174338
1.1733617
1.1724737
1.1716847
1.1709893
1.1703719
1.1698042
1.1692909
1.1688735
1.1685449
1.1682593
1.1680073
1.1677933
1.1676113
1.1674023
1.1672309
1.1671461
1.167117
1.167106
1.1669878
1.1667633
1.1666163
1.1721604
1.1716541
1.1720697
1.1741757
1.1743306
1.1745134
1.1744594
1.174672
1.174764
1.1750058
1.1752136
1.1755239
1.1758608
1.176279
1.1767454
1.1772775
1.1778491
1.1784422
1.179011
1.1795018
1.1798375
1.1799386
1.1797643
1.1792947
1.17856
1.1776254
1.1765706
1.1754742
1.1744006
1.1733968
1.1724912
1.1716875
1.1709843
1.1703608
1.1697895
1.1692751
1.1688588
1.1685313
1.1682464
1.1679964
1.1677855
1.1676031
1.1673895
1.1672255
1.1671465
1.1671209
1.1671116
1.1669828
1.1667557
1.16661
1.1728268
1.1722956
1.172819
1.1748646
1.1748855
1.1750788
1.175029
1.1752518
1.1753541
1.1756088
1.1758313
1.1761574
1.1765128
1.17695
1.1774365
1.1779864
1.1785725
1.1791715
1.1797338
1.1801999
1.180484
1.1805136
1.1802497
1.1796818
1.1788523
1.1778339
1.176711
1.1755626
1.1744516
1.1734234
1.1724998
1.1716856
1.1709745
1.1703457
1.1697717
1.1692575
1.1688426
1.1685162
1.1682324
1.1679847
1.167777
1.167594
1.1673769
1.1672208
1.1671475
1.1671248
1.1671165
1.1669765
1.1667476
1.1666038
1.173514
1.1729476
1.1735997
1.1755388
1.1754596
1.1756648
1.1756202
1.1758544
1.175968
1.1762364
1.1764749
1.1768177
1.1771924
1.1776492
1.1781556
1.1787235
1.1793226
1.1799249
1.1804763
1.1809105
1.1811338
1.1810847
1.1807232
1.1800529
1.1791266
1.1780251
1.176836
1.1756381
1.1744931
1.1734423
1.1725016
1.171678
1.1709601
1.1703268
1.1697513
1.1692382
1.1688251
1.1684998
1.1682172
1.1679722
1.1677678
1.1675837
1.1673647
1.1672172
1.1671492
1.1671284
1.1671207
1.1669688
1.1667391
1.1665976
1.1742393
1.1736214
1.1744154
1.1762088
1.1760571
1.1762745
1.1762359
1.1764821
1.1766081
1.1768909
1.1771461
1.1775061
1.1779009
1.1783774
1.1789043
1.1794895
1.1800998
1.1807022
1.1812377
1.1816306
1.1817858
1.1816481
1.1811822
1.1804051
1.1793809
1.1781971
1.176944
1.1756995
1.174524
1.17345
1.1724972
1.1716647
1.1709407
1.1703039
1.1697281
1.1692171
1.1688062
1.168482
1.1682009
1.1679589
1.1677578
1.1675715
1.1673532
1.1672152
1.167152
1.1671318
1.1671233
1.1669594
1.1667302
1.1665916
1.1749847
1.1743093
1.1752554
1.1768709
1.176681
1.1769115
1.176879
1.1771374
1.1772759
1.1775735
1.177846
1.1782239
1.178639
1.1791361
1.1796833
1.1802848
1.1809041
1.1815026
1.182016
1.1823573
1.1824365
1.1822004
1.1816237
1.1807366
1.1796142
1.17835
1.1770357
1.1757489
1.1745441
1.1734503
1.1724861
1.171646
1.1709168
1.1702773
1.1697023
1.1691945
1.168786
1.1684628
1.1681836
1.1679449
1.1677469
1.1675567
1.1673425
1.1672146
1.1671564
1.1671354
1.1671246
1.1669481
1.1667209
1.1665857
1.1757785
1.1750333
1.1761272
1.177566
1.1773332
1.177576
1.1775497
1.1778203
1.1779722
1.178285
1.1785758
1.1789721
1.1794085
1.1799261
1.1804935
1.18111
1.1817355
1.1823256
1.182809
1.183088
1.1830823
1.1827381
1.1820445
1.1810447
1.1798245
1.1784819
1.1771099
1.1757847
1.1745504
1.1734423
1.1724681
1.1716215
1.1708878
1.1702465
1.1696738
1.1691702
1.1687643
1.1684423
1.1681652
1.1679302
1.1677347
1.1675393
1.1673321
1.1672143
1.1671618
1.1671402
1.1671254
1.1669349
1.1667114
1.16658
1.1766046
1.1757845
1.1770119
1.1782531
1.178011
1.1782676
1.1782483
1.1785317
1.1786978
1.1790265
1.1793364
1.1797519
1.1802099
1.1807488
1.1813357
1.1819653
1.1825935
1.1831698
1.1836134
1.1838198
1.1837189
1.1832578
1.182442
1.1813282
1.1800114
1.1785937
1.177169
1.1758061
1.1745487
1.1734264
1.1724438
1.1715917
1.1708543
1.1702123
1.1696429
1.1691444
1.1687413
1.1684204
1.1681458
1.1679147
1.1677213
1.1675195
1.1673214
1.1672135
1.1671667
1.1671468
1.1671253
1.1669199
1.1667017
1.1665746
1.1774761
1.1765792
1.1779129
1.1789841
1.1787179
1.1789879
1.1789761
1.1792727
1.1794539
1.1797993
1.1801291
1.1805644
1.181045
1.1816047
1.1822103
1.1828509
1.1834778
1.1840334
1.1844253
1.1845505
1.1843417
1.1837556
1.182813
1.1815845
1.1801731
1.1786843
1.1772111
1.1758118
1.174536
1.1734021
1.1724128
1.1715562
1.1708158
1.170174
1.1696094
1.169117
1.1687168
1.1683972
1.1681254
1.1678985
1.1677063
1.1674977
1.1673102
1.1672118
1.1671711
1.1671543
1.1671244
1.1669032
1.1666918
1.1665695
1.1783732
1.1774114
1.1788157
1.179725
1.1794529
1.1797374
1.1797341
1.1800446
1.1802419
1.1806045
1.1809552
1.1814111
1.1819143
1.1824951
1.183118
1.1837665
1.1843871
1.1849138
1.1852413
1.1852748
1.1849464
1.184228
1.1831552
1.1818126
1.1803099
1.1787555
1.1772345
1.1758074
1.174514
1.1733705
1.1723757
1.1715155
1.1707729
1.1701323
1.1695737
1.1690881
1.1686908
1.1683727
1.1681041
1.1678815
1.1676895
1.1674742
1.1672986
1.1672097
1.1671752
1.1671618
1.1671205
1.1668851
1.1666816
1.1665646
1.1793108
1.1782967
1.1797256
1.1804969
1.1802194
1.1805182
1.1805242
1.1808487
1.1810629
1.1814432
1.1818158
1.1822928
1.1828195
1.1834206
1.1840593
1.1847121
1.1853203
1.1858075
1.1860577
1.1859879
1.1855284
1.184671
1.1834657
1.1820104
1.1804207
1.1788055
1.1772398
1.1757888
1.1744816
1.1733308
1.1723321
1.1714692
1.1707252
1.1700866
1.1695354
1.1690575
1.1686634
1.1683469
1.1680819
1.1678635
1.1676706
1.1674493
1.167287
1.167208
1.1671793
1.167169
1.1671132
1.1668661
1.1666713
1.16656
1.1802753
1.1792276
1.1806416
1.1812942
1.1810177
1.1813308
1.1813463
1.1816849
1.1819171
1.1823161
1.1827119
1.1832113
1.1837615
1.1843826
1.1850343
1.1856869
1.1862753
1.1867092
1.1868716
1.1866836
1.1860834
1.1850811
1.1837428
1.182178
1.1805073
1.1788323
1.1772317
1.175759
1.1744405
1.1732844
1.1722829
1.1714181
1.1706733
1.1700378
1.1694949
1.1690253
1.1686345
1.16832
1.1680588
1.1678445
1.1676488
1.167424
1.167276
1.1672068
1.1671836
1.1671761
1.167102
1.1668464
1.166661
1.1665556
1.1812733
1.1802077
1.1815741
1.1821221
1.1818457
1.1821727
1.1821995
1.1825535
1.1828061
1.1832254
1.1836461
1.1841684
1.1847424
1.1853815
1.1860431
1.1866899
1.187249
1.1876149
1.1876773
1.1873566
1.1866062
1.1854549
1.1839841
1.1823141
1.180568
1.1788377
1.1772065
1.1757165
1.1743898
1.1732303
1.1722275
1.1713615
1.1706167
1.1699853
1.1694519
1.1689914
1.168604
1.1682918
1.1680348
1.1678239
1.1676232
1.1673999
1.1672659
1.1672066
1.1671881
1.1671826
1.1670859
1.1668265
1.1666507
1.1665515
1.1822832
1.1812195
1.1824935
1.1829705
1.1827007
1.1830456
1.1830872
1.1834587
1.183734
1.1841747
1.1846211
1.1851665
1.1857629
1.1864182
1.1870851
1.1877192
1.1882369
1.1885198
1.1884683
1.1880012
1.1870925
1.1857894
1.1841887
1.18242
1.1805998
1.1788255
1.1771672
1.1756635
1.1743311
1.17317
1.1721667
1.1713003
1.1705562
1.1699298
1.1694068
1.1689556
1.1685719
1.1682626
1.16801
1.1678016
1.1675935
1.1673778
1.1672573
1.167207
1.1671926
1.167188
1.1670647
1.1668069
1.1666405
1.1665475
1.1833354
1.1822812
1.1833732
1.1838617
1.1835977
1.1839605
1.184018
1.1844066
1.1847049
1.1851668
1.1856389
1.1862068
1.1868245
1.1874922
1.1881595
1.1887722
1.1892333
1.1894194
1.1892373
1.1886115
1.1875375
1.1860816
1.1843554
1.1824941
1.1806057
1.1787926
1.1771124
1.1755987
1.1742634
1.1731027
1.1721002
1.1712341
1.1704914
1.1698709
1.1693591
1.1689179
1.1685382
1.1682322
1.1679843
1.1677772
1.1675608
1.1673575
1.1672507
1.1672089
1.1671967
1.16719
1.1670389
1.1667878
1.1666304
1.1665435
1.1844228
1.1833881
1.18434
1.1847994
1.1845416
1.1849205
1.1849937
1.1853983
1.18572
1.186203
1.1867008
1.1872905
1.187927
1.1886037
1.1892644
1.1898448
1.1902319
1.1903073
1.189977
1.1891814
1.1879372
1.1863302
1.184485
1.1825329
1.1805893
1.1787421
1.1770446
1.1755244
1.1741887
1.1730296
1.1720286
1.1711635
1.1704232
1.1698093
1.1693092
1.1688781
1.168503
1.1682009
1.1679576
1.1677503
1.1675259
1.1673386
1.1672455
1.1672115
1.1672003
1.1671902
1.1670096
1.1667692
1.1666204
1.1665397
1.185568
1.1845479
1.1853557
1.185781
1.1855291
1.1859235
1.1860136
1.1864342
1.1867801
1.1872845
1.1878079
1.1884182
1.1890711
1.1897512
1.1903975
1.1909317
1.191227
1.1911752
1.1906802
1.1897049
1.1882875
1.1865331
1.1845756
1.1825401
1.1805477
1.1786728
1.1769629
1.1754397
1.1741058
1.1729501
1.1719517
1.1710883
1.170351
1.1697447
1.1692568
1.1688361
1.1684662
1.1681685
1.1679298
1.1677204
1.1674899
1.1673208
1.1672407
1.1672132
1.1672041
1.1671898
1.1669788
1.1667507
1.1666107
1.1665359
1.1867394
1.1857385
1.1863632
1.1868038
1.1865597
1.1869706
1.1870791
1.1875157
1.1878868
1.188413
1.1889616
1.1895911
1.1902559
1.1909337
1.191555
1.1920252
1.1922126
1.1920137
1.1913396
1.1901765
1.1885861
1.1866905
1.1846232
1.1825192
1.180484
1.1785874
1.1768695
1.1753465
1.1740166
1.1728653
1.1718702
1.1710092
1.1702759
1.1696778
1.169202
1.1687919
1.1684278
1.1681352
1.1679006
1.1676865
1.1674541
1.1673037
1.1672357
1.1672142
1.1672081
1.1671885
1.1669477
1.1667325
1.1666013
1.1665322
1.1879613
1.1869678
1.1874218
1.1878736
1.187636
1.1880632
1.1881927
1.1886454
1.1890422
1.18959
1.1901633
1.1908087
1.1914812
1.1921486
1.1927317
1.1931176
1.1931802
1.1928136
1.1919471
1.1905909
1.1888303
1.1868006
1.1846322
1.1824675
1.1803975
1.178485
1.1767635
1.1752438
1.1739201
1.1727747
1.1717838
1.1709261
1.1701977
1.1696084
1.1691446
1.1687452
1.168388
1.1681011
1.1678696
1.1676477
1.1674205
1.1672874
1.1672305
1.1672147
1.1672108
1.1671832
1.166917
1.1667149
1.1665924
1.1665287
1.1892105
1.1882138
1.1885072
1.1889844
1.188757
1.1892024
1.1893566
1.1898264
1.1902487
1.1908171
1.1914132
1.1920716
1.1927453
1.1933922
1.1939203
1.1942011
1.194119
1.1935657
1.1924956
1.1909444
1.1890194
1.1868583
1.1846061
1.1823883
1.180291
1.1783685
1.1766475
1.1751339
1.1738179
1.1726794
1.1716933
1.1708397
1.1701171
1.1695371
1.1690849
1.1686962
1.1683468
1.1680663
1.1678364
1.1676045
1.16739
1.1672731
1.167226
1.1672145
1.1672113
1.1671699
1.1668877
1.1666983
1.1665838
1.1665252
1.1905048
1.1894938
1.1896418
1.190148
1.1899316
1.1903913
1.1905716
1.1910597
1.1915079
1.1920953
1.1927119
1.1933785
1.1940457
1.1946592
1.1951105
1.1952678
1.1950169
1.1942599
1.192978
1.1912329
1.189151
1.1868688
1.1845422
1.1822813
1.1801641
1.178237
1.1765205
1.1750157
1.1737094
1.1725788
1.1715984
1.1707499
1.1700343
1.169464
1.1690227
1.1686448
1.1683043
1.1680307
1.1678006
1.1675589
1.1673623
1.1672615
1.1672229
1.1672142
1.167211
1.1671457
1.1668602
1.1666825
1.1665756
1.166522
1.1918494
1.1908246
1.1908323
1.1913671
1.1911657
1.1916366
1.1918387
1.1923442
1.1928202
1.1934257
1.194059
1.1947281
1.1953783
1.1959418
1.1962925
1.1963055
1.1958622
1.1948871
1.1933889
1.1914551
1.1892191
1.1868356
1.1844442
1.1821494
1.1800197
1.1780933
1.1763848
1.174891
1.1735957
1.172474
1.1714999
1.1706575
1.1699498
1.1693896
1.1689582
1.1685912
1.1682607
1.1679942
1.1677614
1.167513
1.1673374
1.1672522
1.1672217
1.1672142
1.1672099
1.1671106
1.1668343
1.1666671
1.1665677
1.1665189
1.193251
1.1921967
1.1920839
1.192646
1.1924604
1.192942
1.1931671
1.1936855
1.194188
1.1948093
1.1954543
1.1961174
1.1967372
1.1972293
1.197456
1.1972997
1.1966426
1.1954379
1.1937231
1.1916073
1.18923
1.1867562
1.1843122
1.1819928
1.1798574
1.1779366
1.1762395
1.1747592
1.1734764
1.1723645
1.1713978
1.1705626
1.1698641
1.169314
1.1688915
1.1685354
1.168216
1.1679565
1.1677178
1.1674693
1.1673154
1.1672448
1.1672212
1.1672152
1.167207
1.1670695
1.1668088
1.1666523
1.1665603
1.1665161
1.1946962
1.1936047
1.1933911
1.1939799
1.193816
1.1943041
1.1945573
1.1950876
1.1956131
1.1962459
1.1968953
1.1975416
1.1981139
1.1985077
1.1985891
1.1982348
1.1973463
1.195905
1.1939774
1.191683
1.1891862
1.1866345
1.1841495
1.1818147
1.1796802
1.1777695
1.1760869
1.1746218
1.1733526
1.1722512
1.1712926
1.1704659
1.1697776
1.1692375
1.1688229
1.1684777
1.1681705
1.1679169
1.1676686
1.1674303
1.1672964
1.1672388
1.1672212
1.167218
1.1672021
1.1670272
1.1667836
1.1666382
1.1665535
1.1665134
1.1961974
1.1950444
1.1947595
1.195367
1.1952304
1.1957248
1.1960085
1.1965507
1.1970957
1.1977337
1.198378
1.1989933
1.1994958
1.1997645
1.1996734
1.199096
1.1979611
1.196281
1.1941458
1.1916896
1.1890859
1.1864711
1.1839567
1.1816152
1.1794877
1.1775914
1.175926
1.1744781
1.1732237
1.172134
1.1711846
1.1703676
1.1696907
1.1691603
1.1687525
1.1684185
1.1681242
1.1678749
1.1676162
1.1673954
1.16728
1.167234
1.1672213
1.1672198
1.1671954
1.1669854
1.1667595
1.166625
1.1665472
1.1665109
1.1977625
1.1965119
1.1961915
1.19681
1.1967111
1.1972127
1.1975232
1.1980733
1.1986336
1.1992693
1.1998959
1.2004618
1.2008662
1.2009851
1.20069
1.1998679
1.1984771
1.1965603
1.1942223
1.1916282
1.1889334
1.1862699
1.1837373
1.1813974
1.1792826
1.1774045
1.1757589
1.1743296
1.1730909
1.1720133
1.1710741
1.1702682
1.1696036
1.1690826
1.1686807
1.1683581
1.1680773
1.1678298
1.167563
1.1673638
1.1672658
1.16723
1.1672209
1.1672205
1.167187
1.1669456
1.1667368
1.1666128
1.1665414
1.1665087
1.1993957
1.1980231
1.1976949
1.1983138
1.1982652
1.1987707
1.1991078
1.199659
1.2002242
1.2008464
1.201439
1.2019321
1.2022081
1.202148
1.2016195
1.200535
1.1988838
1.1967341
1.1942157
1.1914977
1.1887297
1.1860321
1.1834922
1.1811613
1.1790646
1.1772083
1.1755848
1.1741756
1.1729536
1.1718893
1.1709616
1.1701683
1.1695169
1.1690043
1.1686079
1.168297
1.1680295
1.1677808
1.1675112
1.167335
1.1672531
1.1672259
1.1672193
1.1672201
1.1671759
1.1669087
1.1667159
1.1666016
1.1665359
1.1665066
1.201086
1.1995855
1.1992894
1.1999115
1.1998895
1.2003906
1.2007522
1.2013006
1.2018607
1.2024554
1.2029934
1.2033833
1.2035026
1.2032296
1.202443
1.2010842
1.1991735
1.1967997
1.1941247
1.1913032
1.1884795
1.1857618
1.1832248
1.1809102
1.1788363
1.1770048
1.1754053
1.1740174
1.1728128
1.1717624
1.1708473
1.1700679
1.1694303
1.1689252
1.1685343
1.1682354
1.1679804
1.1677265
1.1674633
1.1673088
1.1672409
1.1672203
1.1672155
1.1672169
1.1671568
1.1668755
1.1666969
1.166591
1.1665308
1.1665049
1.2028288
1.2012027
1.2009531
1.201571
1.2015913
1.2020825
1.2024575
1.2029931
1.203534
1.2040826
1.2045391
1.2047931
1.204724
1.2042054
1.2031403
1.201501
1.1993335
1.1967639
1.1939493
1.1910463
1.1881845
1.1854602
1.1829358
1.180644
1.1785972
1.1767933
1.1752197
1.1738543
1.172668
1.1716326
1.1707316
1.1699676
1.169344
1.1688453
1.1684605
1.1681737
1.1679292
1.1676672
1.1674205
1.167285
1.1672286
1.1672124
1.1672088
1.1672082
1.1671233
1.1668458
1.1666786
1.1665808
1.1665262
1.1665033
1.2046274
1.2028901
1.2026875
1.2032843
1.2033518
1.2038306
1.2042131
1.2047252
1.2052298
1.2057081
1.2060501
1.206136
1.2058424
1.2050514
1.2036945
1.2017744
1.1993674
1.1966236
1.1936957
1.1907323
1.18785
1.1851318
1.1826285
1.1803653
1.1783494
1.1765757
1.1750294
1.1736873
1.1725199
1.1715002
1.1706147
1.1698671
1.1692575
1.1687642
1.1683865
1.1681118
1.1678748
1.1676055
1.1673814
1.1672635
1.1672159
1.1672022
1.1671991
1.1671928
1.1670786
1.1668163
1.1666607
1.1665713
1.1665219
1.166502
1.2064709
1.2046383
1.2044971
1.2050614
1.2051706
1.2056316
1.2060094
1.2064833
1.2069289
1.2073063
1.2074959
1.2073799
1.2068269
1.2057418
1.204086
1.2018903
1.1992745
1.196381
1.1933658
1.190364
1.1874778
1.1847773
1.1823032
1.180074
1.1780925
1.1763512
1.1748337
1.173516
1.1723683
1.1713654
1.1704969
1.1697667
1.1691704
1.1686816
1.1683125
1.1680496
1.1678156
1.1675434
1.1673449
1.1672432
1.1672023
1.1671898
1.1671872
1.1671738
1.1670287
1.1667867
1.1666438
1.1665625
1.1665181
1.1665008
1.2083472
1.2064457
1.2063696
1.2068933
1.2070362
1.2074708
1.207831
1.2082471
1.2086042
1.2088425
1.2088445
1.2084859
1.2076463
1.2062535
1.2042989
1.2018572
1.1990551
1.1960432
1.1929669
1.1899478
1.1870731
1.184401
1.1819632
1.1797725
1.1778284
1.1761213
1.1746338
1.173341
1.1722137
1.1712284
1.1703781
1.1696659
1.1690817
1.1685975
1.1682384
1.1679863
1.1677499
1.1674828
1.1673098
1.1672228
1.1671875
1.1671759