/*--------------------------------*- C++ -*----------------------------------*\
| =========                 |                                                 |
| \\      /  F ield         | OpenFOAM: The Open Source CFD Toolbox           |
|  \\    /   O peration     | Version:  2306                                  |
|   \\  /    A nd           | Website:  www.openfoam.com                      |
|    \\/     M anipulation  |                                                 |
\*---------------------------------------------------------------------------*/
FoamFile
{
    version     2.0;
    format      ascii;
    arch        "LSB;label=32;scalar=64";
    class       volScalarField;
    location    "0.013";
    object      yPlus;
}
// * * * * * * * * * * * * * * * * * * * * * * * * * * * * * * * * * * * * * //

dimensions      [0 0 0 0 0 0 0];

internalField   uniform 0;

boundaryField
{
    upper
    {
        type            calculated;
        value           nonuniform List<scalar> 
150
(
52.825954
52.789712
52.784059
52.779933
52.787246
52.803578
52.829255
52.863894
52.907509
52.959802
53.020098
53.089892
53.17004
53.257616
53.355522
53.463268
53.579048
53.704424
53.838579
53.984336
54.139796
54.303119
54.475649
54.654223
54.839599
55.024712
55.211145
55.400936
55.591422
55.786671
55.987646
56.196516
56.41268
56.637579
56.872943
57.116613
57.366906
57.629224
57.90534
58.193979
58.492751
58.80524
59.13244
59.484154
59.854644
60.251933
60.664281
61.095255
61.53075
61.961262
62.379988
62.775949
63.150689
63.512452
63.887352
64.281227
64.666829
65.086116
65.547301
66.148614
66.948238
68.053915
69.672002
71.967986
74.663231
77.503563
80.343631
82.954022
85.157103
86.74506
87.510726
87.21279
85.451452
81.766323
76.219038
16.568036
21.635638
23.059688
24.766663
26.103989
27.315848
28.378664
29.336025
30.201209
30.990634
31.715714
32.384156
33.001977
33.576077
34.11157
34.612621
35.084251
35.529323
35.951758
36.355022
36.741288
37.11185
37.468153
37.812418
38.146673
38.474749
38.806026
39.156516
39.564306
39.860597
40.14308
40.420217
40.695545
40.966672
41.23465
41.498943
41.761471
42.022089
42.281044
42.537418
42.793071
43.04725
43.300372
43.552973
43.807581
44.063484
44.32127
44.579478
44.838516
45.099218
45.362731
45.626876
45.891821
46.159167
46.429433
46.703134
46.981142
47.260769
47.541228
47.824353
48.111734
48.40184
48.696107
48.993318
49.295353
49.604092
49.920571
50.24314
50.571209
50.905322
51.242005
51.578011
51.917836
52.270957
52.640764
)
;
    }
    lower
    {
        type            calculated;
        value           nonuniform List<scalar> 
150
(
58.017503
57.753329
57.513763
57.279574
57.055056
56.838418
56.629718
56.427976
56.233883
56.047335
55.867718
55.695841
55.531721
55.371394
55.217102
55.069101
54.926587
54.789399
54.654475
54.522203
54.392391
54.261398
54.125828
53.981654
53.831342
53.67342
53.512597
53.351915
53.191004
53.033256
52.882576
52.735088
52.584912
52.42626
52.254976
52.063843
51.8472
51.604961
51.338249
51.053602
50.764266
50.491969
50.214992
49.920869
49.596689
49.244856
48.851149
48.415064
47.93082
47.382471
46.77051
46.11696
45.46922
44.829172
44.151313
43.381392
42.465006
41.375107
40.067934
38.51511
36.664667
34.457588
31.76217
28.273751
23.716696
17.385363
11.028496
5.0073932
15.153436
25.288776
36.584821
48.504971
60.084499
71.072794
80.33484
38.444828
41.722658
42.774111
43.872551
44.674291
45.364214
45.945568
46.451505
46.898683
47.297397
47.659259
47.98794
48.2899
48.569627
48.831292
49.074707
49.305622
49.524224
49.731823
49.929112
50.118633
50.3015
50.477972
50.648257
50.813831
50.975603
51.133654
51.288818
51.440532
51.587777
51.731229
51.871491
52.011705
52.150578
52.286363
52.420457
52.554223
52.687702
52.820943
52.952951
53.086074
53.219875
53.354697
53.490667
53.628612
53.765245
53.904097
54.043515
54.183225
54.322541
54.46059
54.593935
54.723795
54.856734
54.995326
55.137606
55.283176
55.430497
55.579375
55.729778
55.882471
56.036084
56.191321
56.346054
56.501327
56.656324
56.810873
56.964771
57.118841
57.275726
57.434234
57.590919
57.746875
57.904335
58.064209
)
;
    }
    inlet
    {
        type            calculated;
        value           uniform 0;
    }
    outlet
    {
        type            calculated;
        value           uniform 0;
    }
    back
    {
        type            empty;
    }
    front
    {
        type            empty;
    }
}


// ************************************************************************* //
