# p  FACE_DATA 600
# x y z  p
0.29893883 -0.05 -0.060006728 21706.252
0.29682219 -0.05 -0.060005155 21702.475
0.29471691 -0.05 -0.060001576 21700.169
0.29262294 -0.05 -0.05999591 21698.056
0.29054021 -0.05 -0.059988277 21695.435
0.28846868 -0.05 -0.059978645 21694.16
0.28640827 -0.05 -0.059967019 21692.029
0.28435895 -0.05 -0.059953476 21690.652
0.28232063 -0.05 -0.05993795 21689.629
0.28029328 -0.05 -0.059920485 21688.558
0.27827682 -0.05 -0.059901123 21687.704
0.27627121 -0.05 -0.059879855 21687.326
0.27427639 -0.05 -0.05985667 21687.226
0.2722923 -0.05 -0.059831621 21687.069
0.27031889 -0.05 -0.059804697 21687.601
0.26835611 -0.05 -0.05977592 21687.732
0.26640388 -0.05 -0.059745343 21688.222
0.26446217 -0.05 -0.059712935 21689.008
0.26253092 -0.05 -0.059678711 21689.997
0.26061007 -0.05 -0.059642689 21691.318
0.25869958 -0.05 -0.059604861 21692.978
0.25679938 -0.05 -0.059565286 21694.392
0.25490942 -0.05 -0.05952394 21696.841
0.25302965 -0.05 -0.059480842 21698.667
0.25116001 -0.05 -0.059436049 21700.972
0.24930047 -0.05 -0.059389521 21703.569
0.24745095 -0.05 -0.059341283 21706.425
0.24561141 -0.05 -0.059291325 21709.932
0.24378182 -0.05 -0.05923967 21713.34
0.24196209 -0.05 -0.059186367 21716.872
0.24015219 -0.05 -0.059131421 21720.57
0.23835206 -0.05 -0.059074821 21724.591
0.23656166 -0.05 -0.059016618 21728.354
0.23478094 -0.05 -0.058956769 21733.582
0.23300984 -0.05 -0.05889526 21738.147
0.23124831 -0.05 -0.05883224 21742.29
0.22949632 -0.05 -0.058767617 21748.119
0.22775381 -0.05 -0.058701363 21753.512
0.22602072 -0.05 -0.058633589 21758.96
0.22429701 -0.05 -0.058564274 21764.648
0.22258262 -0.05 -0.058493448 21770.227
0.22087752 -0.05 -0.058421069 21777.206
0.21918166 -0.05 -0.058347133 21783.716
0.21749499 -0.05 -0.058271732 21790.283
0.21581745 -0.05 -0.058194856 21797.048
0.21414901 -0.05 -0.058116493 21804.249
0.21248962 -0.05 -0.058036649 21811.672
0.21083923 -0.05 -0.057955337 21819.448
0.20919779 -0.05 -0.057872577 21827.189
0.20756526 -0.05 -0.057788393 21835.272
0.20594158 -0.05 -0.057702763 21843.907
0.20432674 -0.05 -0.057615707 21852.399
0.20272065 -0.05 -0.057527278 21860.762
0.20112329 -0.05 -0.057437457 21869.76
0.19953461 -0.05 -0.05734625 21878.964
0.19795458 -0.05 -0.057253621 21889.211
0.19638314 -0.05 -0.057159665 21897.966
0.19482023 -0.05 -0.05706438 21908.465
0.19326583 -0.05 -0.056967732 21918.167
0.19171991 -0.05 -0.05686975 21928.907
0.19018239 -0.05 -0.056770463 21938.702
0.18865324 -0.05 -0.056669846 21950.342
0.18713243 -0.05 -0.056567899 21960.916
0.18561991 -0.05 -0.056464666 21972.862
0.18411564 -0.05 -0.056360132 21984.292
0.18261956 -0.05 -0.056254317 21996.635
0.18113166 -0.05 -0.056147258 22007.788
0.17965186 -0.05 -0.056038987 22020.031
0.17818015 -0.05 -0.05592942 22032.879
0.17671648 -0.05 -0.055818588 22045.675
0.1752608 -0.05 -0.05570656 22058.163
0.17381308 -0.05 -0.055593324 22071.483
0.17237329 -0.05 -0.055478844 22084.981
0.17094135 -0.05 -0.055363199 22098.04
0.16951726 -0.05 -0.055246341 22112.76
0.16810096 -0.05 -0.055128258 22126.701
0.16669242 -0.05 -0.05500905 22140.812
0.16529159 -0.05 -0.054888659 22155.901
0.16389844 -0.05 -0.054767078 22170.896
0.16251293 -0.05 -0.054644372 22185.708
0.16113501 -0.05 -0.054520532 22200.99
0.15976465 -0.05 -0.054395554 22216.273
0.15840181 -0.05 -0.054269449 22232.354
0.15704647 -0.05 -0.054142171 22249.207
0.15569856 -0.05 -0.05401378 22265.252
0.15435807 -0.05 -0.053884336 22281.405
0.15302494 -0.05 -0.053753791 22298.002
0.15169915 -0.05 -0.053622161 22314.68
0.15038066 -0.05 -0.053489407 22332.781
0.14906942 -0.05 -0.053355551 22350.102
0.1477654 -0.05 -0.053220679 22367.753
0.14646858 -0.05 -0.053084715 22386.559
0.1451789 -0.05 -0.052947683 22404.545
0.14389634 -0.05 -0.052809659 22422.627
0.14262085 -0.05 -0.05267058 22441.844
0.14135242 -0.05 -0.052530426 22461.367
0.14009099 -0.05 -0.052389231 22481.083
0.13883653 -0.05 -0.052247037 22500.435
0.137589 -0.05 -0.052103837 22520.459
0.13634838 -0.05 -0.051959625 22539.985
0.13511461 -0.05 -0.051814476 22559.721
0.1338877 -0.05 -0.051668228 22582.435
0.13266759 -0.05 -0.051520967 22601.765
0.13145422 -0.05 -0.051372868 22621.993
0.13024759 -0.05 -0.051223701 22644.665
0.12904768 -0.05 -0.051073498 22666.073
0.12785442 -0.05 -0.050922382 22687.659
0.12666779 -0.05 -0.050770304 22709.942
0.12548777 -0.05 -0.050617245 22732.881
0.12431431 -0.05 -0.050463216 22755.478
0.12314738 -0.05 -0.050308326 22776.827
0.12198694 -0.05 -0.050152493 22800.991
0.12083298 -0.05 -0.049995623 22825.055
0.11968546 -0.05 -0.049837846 22848.469
0.11854435 -0.05 -0.049679177 22872.351
0.11740961 -0.05 -0.049519574 22896.734
0.11628121 -0.05 -0.049359037 22921.541
0.11515913 -0.05 -0.049197589 22946.385
0.11404333 -0.05 -0.049035234 22971.58
0.11293377 -0.05 -0.048871989 22996.528
0.11183042 -0.05 -0.048707847 23021.941
0.11073327 -0.05 -0.048542821 23047.178
0.10964229 -0.05 -0.048376866 23074.098
0.10855744 -0.05 -0.048209982 23100.36
0.10747868 -0.05 -0.048042235 23127.038
0.106406 -0.05 -0.04787359 23154.275
0.10533935 -0.05 -0.047704062 23181.713
0.10427873 -0.05 -0.047533647 23209.65
0.10322407 -0.05 -0.047362394 23236.444
0.10217536 -0.05 -0.04719032 23264.179
0.10113259 -0.05 -0.047017348 23293.115
0.10009572 -0.05 -0.046843455 23322.956
0.099064719 -0.05 -0.046668685 23352.019
0.098039551 -0.05 -0.046493118 23380.233
0.097020189 -0.05 -0.046316733 23409.351
0.096006622 -0.05 -0.046139442 23440.027
0.094998822 -0.05 -0.045961241 23470.728
0.09399675 -0.05 -0.045782217 23500.7
0.093000378 -0.05 -0.045602371 23531.379
0.092009685 -0.05 -0.045421665 23562.331
0.091024643 -0.05 -0.045240119 23593.632
0.090045231 -0.05 -0.045057701 23626.058
0.089071419 -0.05 -0.044874427 23657.853
0.088103174 -0.05 -0.044690349 23689.84
0.087140475 -0.05 -0.044505439 23722.348
0.086183302 -0.05 -0.044319662 23755.674
0.08523163 -0.05 -0.044133032 23788.836
0.084285425 -0.05 -0.043945577 23822.153
0.083344663 -0.05 -0.043757308 23855.716
0.082409325 -0.05 -0.043568191 23890.645
0.081479395 -0.05 -0.04337819 23925.802
0.080554831 -0.05 -0.043187382 23959.946
0.079635606 -0.05 -0.042995792 23994.894
0.078721718 -0.05 -0.042803304 24031.436
0.077813136 -0.05 -0.042609969 24066.842
0.076909826 -0.05 -0.042415818 24103.767
0.07601178 -0.05 -0.042220793 24140.891
0.075118966 -0.05 -0.042024932 24178.195
0.074231361 -0.05 -0.041828237 24215.438
0.073348935 -0.05 -0.04163074 24252.611
0.07247168 -0.05 -0.041432371 24291.57
0.071599572 -0.05 -0.041233139 24329.655
0.070732584 -0.05 -0.041033074 24368.921
0.069870697 -0.05 -0.040832148 24407.843
0.069013884 -0.05 -0.040630397 24447.424
0.068162134 -0.05 -0.040427777 24487.74
0.067315419 -0.05 -0.040224307 24528.053
0.06647372 -0.05 -0.040019973 24569.755
0.065637027 -0.05 -0.039814748 24611.81
0.06480531 -0.05 -0.039608654 24654.213
0.063978543 -0.05 -0.039401719 24696.123
0.063156706 -0.05 -0.039193946 24738.671
0.062339788 -0.05 -0.038985285 24781.814
0.061527775 -0.05 -0.038775725 24825.652
0.060720649 -0.05 -0.038565255 24870.176
0.059918385 -0.05 -0.038353894 24914.978
0.059120963 -0.05 -0.03814165 24960.397
0.058328367 -0.05 -0.037928504 25006.252
0.057540574 -0.05 -0.037714473 25051.824
0.056757564 -0.05 -0.037499568 25097.852
0.055979326 -0.05 -0.037283751 25145.164
0.055205861 -0.05 -0.03706696 25194.095
0.054437143 -0.05 -0.036849222 25242.692
0.053673142 -0.05 -0.036630582 25291.578
0.052913841 -0.05 -0.036411033 25340.454
0.052159229 -0.05 -0.036190552 25390.577
0.051409301 -0.05 -0.035969101 25441.773
0.050664044 -0.05 -0.035746666 25493.588
0.049923426 -0.05 -0.035523297 25544.877
0.049187444 -0.05 -0.035298949 25598.156
0.048456093 -0.05 -0.035073588 25651.039
0.047729343 -0.05 -0.034847258 25704.424
0.047007184 -0.05 -0.034619944 25758.345
0.046289611 -0.05 -0.034391604 25813.699
0.045576607 -0.05 -0.034162251 25868.968
0.044868158 -0.05 -0.033931882 25925.637
0.044164259 -0.05 -0.033700464 25982.459
0.043464894 -0.05 -0.033468005 26040.101
0.042770054 -0.05 -0.033234488 26098.273
0.042079734 -0.05 -0.032999885 26157.965
0.041393929 -0.05 -0.032764174 26218.311
0.040712625 -0.05 -0.032527361 26279.181
0.040035798 -0.05 -0.032289471 26339.822
0.039363443 -0.05 -0.032050489 26401.799
0.038695563 -0.05 -0.031810365 26465.169
0.038032168 -0.05 -0.031569045 26530.287
0.037373226 -0.05 -0.031326581 26594.702
0.036718733 -0.05 -0.03108296 26660.785
0.036068678 -0.05 -0.030838173 26726.269
0.035423063 -0.05 -0.030592193 26794.946
0.034781926 -0.05 -0.030344894 26864.57
0.034145213 -0.05 -0.030096392 26933.356
0.033512917 -0.05 -0.029846677 27004.155
0.032885063 -0.05 -0.029595666 27076.014
0.032261651 -0.05 -0.029343341 27149.601
0.031642676 -0.05 -0.029089692 27223.33
0.031028119 -0.05 -0.028834753 27297.467
0.030417981 -0.05 -0.028578493 27373.285
0.029812303 -0.05 -0.028320809 27451.671
0.029211079 -0.05 -0.028061701 27530.098
0.028614285 -0.05 -0.027801211 27609.106
0.028021925 -0.05 -0.027539318 27689.043
0.027434034 -0.05 -0.027275938 27771.414
0.02685062 -0.05 -0.027011044 27854.015
0.026271654 -0.05 -0.026744689 27937.672
0.025697179 -0.05 -0.02647678 28023.74
0.025127212 -0.05 -0.026207275 28110.269
0.024561729 -0.05 -0.025936225 28197.44
0.024000753 -0.05 -0.025663583 28286.777
0.023444337 -0.05 -0.025389243 28377.984
0.022892447 -0.05 -0.025113275 28469.536
0.022345135 -0.05 -0.024835581 28565.344
0.02180243 -0.05 -0.024556113 28660.792
0.021264293 -0.05 -0.024274957 28758.589
0.020730799 -0.05 -0.023991978 28859.403
0.020201992 -0.05 -0.023707109 28961.913
0.019677841 -0.05 -0.023420417 29064.965
0.019158403 -0.05 -0.023131824 29171.404
0.018643727 -0.05 -0.022841258 29278.874
0.018133826 -0.05 -0.022548716 29388.636
0.017628739 -0.05 -0.022254151 29499.164
0.017128472 -0.05 -0.021957583 29611.6
0.016633127 -0.05 -0.021658866 29727.507
0.016142724 -0.05 -0.021358 29843.674
0.015657283 -0.05 -0.021054987 29962.699
0.015176888 -0.05 -0.020749728 30083.141
0.014701579 -0.05 -0.020442197 30205.576
0.014231398 -0.05 -0.020132368 30329.512
0.013766434 -0.05 -0.019820157 30456.502
0.013306742 -0.05 -0.019505528 30584.566
0.012852374 -0.05 -0.019188457 30715.564
0.012403438 -0.05 -0.018868841 30848.547
0.01195997 -0.05 -0.018546687 30983.255
0.011522076 -0.05 -0.018221915 31120.517
0.011089809 -0.05 -0.017894515 31259.003
0.0106633 -0.05 -0.017564386 31401.179
0.010242659 -0.05 -0.017231451 31543.846
0.009827894 -0.05 -0.016895788 31688.079
0.0094192167 -0.05 -0.016557218 31835.465
0.0090167438 -0.05 -0.016215673 31982.853
0.0086204858 -0.05 -0.015871238 32132.522
0.0082306648 -0.05 -0.015523765 32285.508
0.0078474301 -0.05 -0.015173186 32439.128
0.00747084 -0.05 -0.014819531 32593.654
0.0071010571 -0.05 -0.014462741 32749.255
0.0067383047 -0.05 -0.014102728 32906.57
0.0063827544 -0.05 -0.013739427 33064.689
0.0060345067 -0.05 -0.013372862 33222.931
0.0056937565 -0.05 -0.013003011 33381.15
0.0053606882 -0.05 -0.012629837 33538.539
0.0050354824 -0.05 -0.012253323 33695.002
0.0047183926 -0.05 -0.01187344 33850.277
0.0044096379 -0.05 -0.011490161 34003.65
0.0041094132 -0.05 -0.011103483 34154.424
0.0038179536 -0.05 -0.010713443 34301.883
0.0035354728 -0.05 -0.01032007 34445.172
0.0032621919 -0.05 -0.0099233916 34583.497
0.0029983702 -0.05 -0.0095234712 34715.958
0.0027442429 -0.05 -0.0091203468 34841.688
0.0025000604 -0.05 -0.0087141009 34959.692
0.0022660754 -0.05 -0.0083048554 35069.029
0.0020425146 -0.05 -0.0078926699 35168.715
0.0018296563 -0.05 -0.0074776735 35257.045
0.0016277487 -0.05 -0.0070600556 35331.493
0.0014369745 -0.05 -0.006639968 35391.523
0.0012575291 -0.05 -0.0062175973 35440.043
0.0010896146 -0.05 -0.0057931737 35473.789
0.00093341057 -0.05 -0.0053669215 35490.042
0.00078906403 -0.05 -0.0049390744 35488.97
0.00065670868 -0.05 -0.0045099017 35470.201
0.00053653171 -0.05 -0.0040796665 35433.318
0.00042862038 -0.05 -0.003648665 35379.444
0.00033294635 -0.05 -0.003217232 35306.485
0.00024951873 -0.05 -0.002785685 35211.863
0.00017832255 -0.05 -0.0023543467 35097.176
0.00011930806 -0.05 -0.0019235435 34962.517
7.2389968e-05 -0.05 -0.0014936046 34807.769
3.7448893e-05 -0.05 -0.0010648563 34633.726
1.4332163e-05 -0.05 -0.0006376208 34441.715
2.8544133e-06 -0.05 -0.00021221054 34232.158
0.99884037 -0.05 -0.00016828408 26621.589
0.99652103 -0.05 -0.00050440213 26558.999
0.99420154 -0.05 -0.00083952039 26484.339
0.99188191 -0.05 -0.0011736208 26422.301
0.98956214 -0.05 -0.0015067636 26361.844
0.98724224 -0.05 -0.001838948 26305.379
0.9849222 -0.05 -0.0021701637 26251.21
0.98260201 -0.05 -0.0025004302 26199.206
0.9802817 -0.05 -0.0028297328 26149.242
0.97796124 -0.05 -0.0031580577 26100.883
0.97564065 -0.05 -0.0034854377 26054.093
0.97331994 -0.05 -0.0038118591 26008.741
0.97099908 -0.05 -0.0041373159 25964.738
0.96867808 -0.05 -0.0044618578 25921.786
0.96635697 -0.05 -0.0047854478 25880.264
0.96403572 -0.05 -0.0051081172 25839.367
0.96171435 -0.05 -0.0054299032 25799.712
0.95939284 -0.05 -0.0057507069 25761.136
0.95707121 -0.05 -0.0060705875 25723.245
0.95474946 -0.05 -0.0063895914 25686.269
0.95242757 -0.05 -0.0067076389 25650.358
0.95010556 -0.05 -0.0070248024 25614.7
0.94778343 -0.05 -0.0073411104 25580.085
0.94546118 -0.05 -0.0076564368 25546.411
0.9431388 -0.05 -0.0079708659 25513.053
0.94081631 -0.05 -0.0082844406 25480.497
0.93849369 -0.05 -0.0085971026 25448.635
0.93617096 -0.05 -0.0089088655 25417.351
0.93384811 -0.05 -0.0092197818 25386.41
0.93152514 -0.05 -0.0095298292 25356.251
0.92920204 -0.05 -0.00983897 25326.589
0.92687884 -0.05 -0.010147248 25297.392
0.92455553 -0.05 -0.01045465 25268.76
0.92223209 -0.05 -0.01076119 25240.456
0.91990855 -0.05 -0.011066875 25212.787
0.91758488 -0.05 -0.011371653 25185.727
0.91526111 -0.05 -0.011675608 25158.575
0.91293723 -0.05 -0.011978761 25132.1
0.91061324 -0.05 -0.012281 25106.267
0.90828913 -0.05 -0.012582372 25080.539
0.90596492 -0.05 -0.012882964 25055.02
0.90364059 -0.05 -0.013182677 25030.493
0.90131615 -0.05 -0.013481494 25005.962
0.89899162 -0.05 -0.013779572 24981.281
0.89666698 -0.05 -0.014076841 24957.5
0.89434223 -0.05 -0.014373142 24934.415
0.89201737 -0.05 -0.01466868 24910.52
0.88969241 -0.05 -0.014963453 24887.811
0.88736734 -0.05 -0.0152573 24865.314
0.88504217 -0.05 -0.015550344 24842.808
0.88271689 -0.05 -0.015842646 24820.37
0.88039152 -0.05 -0.016134071 24799.002
0.87806604 -0.05 -0.016424635 24777.29
0.87574046 -0.05 -0.016714466 24755.849
0.87341478 -0.05 -0.017003468 24734.874
0.871089 -0.05 -0.017291665 24713.869
0.86876312 -0.05 -0.017579058 24693.362
0.86643714 -0.05 -0.017865646 24672.796
0.86411107 -0.05 -0.018151445 24652.712
0.86178489 -0.05 -0.018436407 24632.815
0.85945862 -0.05 -0.018720606 24612.779
0.85713225 -0.05 -0.019004019 24593.356
0.85480578 -0.05 -0.019286574 24574.258
0.85247922 -0.05 -0.019568356 24554.923
0.85015256 -0.05 -0.019849417 24535.731
0.84782581 -0.05 -0.020129657 24517.155
0.84549896 -0.05 -0.020409081 24498.401
0.84317202 -0.05 -0.020687756 24479.783
0.84084499 -0.05 -0.020965643 24461.541
0.83851785 -0.05 -0.021242672 24443.868
0.83619063 -0.05 -0.021518954 24425.518
0.83386332 -0.05 -0.021794529 24407.682
0.83153592 -0.05 -0.022069294 24390.029
0.82920841 -0.05 -0.022343258 24372.587
0.82688083 -0.05 -0.02261648 24354.857
0.82455315 -0.05 -0.022888925 24337.765
0.82222538 -0.05 -0.023160547 24320.738
0.81989751 -0.05 -0.023431389 24303.914
0.81756957 -0.05 -0.023701495 24286.867
0.81524153 -0.05 -0.023970846 24270.251
0.8129134 -0.05 -0.024239417 24253.548
0.81058518 -0.05 -0.02450723 24237.091
0.80825687 -0.05 -0.024774259 24220.772
0.80592849 -0.05 -0.02504053 24204.475
0.8036 -0.05 -0.025306023 24188.453
0.80127144 -0.05 -0.025570775 24172.097
0.79894279 -0.05 -0.025834763 24156.394
0.79661404 -0.05 -0.026097924 24140.673
0.79428522 -0.05 -0.026360374 24124.661
0.79195631 -0.05 -0.026622048 24109.394
0.78962731 -0.05 -0.026882938 24093.672
0.78729823 -0.05 -0.027143126 24078.16
0.78496906 -0.05 -0.027402516 24062.955
0.78263981 -0.05 -0.02766117 24047.26
0.78031048 -0.05 -0.027919081 24032.242
0.77798106 -0.05 -0.028176144 24017.401
0.77565155 -0.05 -0.028432494 24001.974
0.77332196 -0.05 -0.028688107 23987.251
0.77099228 -0.05 -0.028942907 23972.402
0.76866253 -0.05 -0.029196968 23957.536
0.7663327 -0.05 -0.029450285 23942.744
0.76400278 -0.05 -0.029702803 23928.333
0.76167277 -0.05 -0.029954568 23913.554
0.75934268 -0.05 -0.030205572 23899.346
0.75701251 -0.05 -0.030455803 23884.751
0.75468227 -0.05 -0.030705313 23870.306
0.75235194 -0.05 -0.030954045 23855.982
0.75002152 -0.05 -0.031202018 23841.6
0.74769103 -0.05 -0.031449207 23827.578
0.74536045 -0.05 -0.031695625 23813.301
0.74302979 -0.05 -0.031941289 23799.263
0.74069906 -0.05 -0.032186181 23785.142
0.73836824 -0.05 -0.032430305 23771.276
0.73603734 -0.05 -0.032673645 23757.426
0.73370637 -0.05 -0.032916233 23743.384
0.73137531 -0.05 -0.033158092 23729.309
0.72904417 -0.05 -0.033399148 23715.825
0.72671295 -0.05 -0.033639378 23702.217
0.72438166 -0.05 -0.03387888 23688.218
0.72205028 -0.05 -0.034117645 23674.541
0.71971882 -0.05 -0.034355552 23661.413
0.71738728 -0.05 -0.034592685 23647.538
0.71505567 -0.05 -0.034829099 23634.072
0.71272397 -0.05 -0.035064674 23620.858
0.71039219 -0.05 -0.035299486 23607.153
0.70806035 -0.05 -0.035533544 23593.914
0.70572841 -0.05 -0.035766778 23580.63
0.70339641 -0.05 -0.035999269 23567.012
0.70106432 -0.05 -0.03623098 23553.749
0.69873216 -0.05 -0.036461891 23540.264
0.69639992 -0.05 -0.036691978 23527.272
0.69406759 -0.05 -0.036921269 23513.844
0.69173519 -0.05 -0.037149739 23501.259
0.68940271 -0.05 -0.037377398 23487.914
0.68707015 -0.05 -0.037604327 23474.65
0.68473751 -0.05 -0.037830471 23461.339
0.68240481 -0.05 -0.038055756 23448.677
0.68007201 -0.05 -0.038280206 23435.612
0.67773914 -0.05 -0.038503859 23422.859
0.67540619 -0.05 -0.03872673 23409.597
0.67307317 -0.05 -0.038948784 23396.921
0.67074007 -0.05 -0.039170028 23383.578
0.66840689 -0.05 -0.039390456 23370.945
0.66607364 -0.05 -0.039610024 23357.963
0.6637403 -0.05 -0.039828774 23345.316
0.66140688 -0.05 -0.040046678 23332.486
0.65907339 -0.05 -0.040263799 23319.371
0.65673983 -0.05 -0.040480085 23306.746
0.65440619 -0.05 -0.040695489 23294.052
0.65207246 -0.05 -0.040910082 23281.116
0.64973866 -0.05 -0.041123838 23268.427
0.64740479 -0.05 -0.04133674 23255.566
0.64507083 -0.05 -0.041548788 23243.007
0.6427368 -0.05 -0.04175995 23230.473
0.64040268 -0.05 -0.041970278 23217.656
0.6380685 -0.05 -0.042179754 23205.128
0.63573424 -0.05 -0.042388356 23192.424
0.63339989 -0.05 -0.042596094 23179.903
0.63106547 -0.05 -0.042802945 23167.325
0.62873098 -0.05 -0.043008941 23154.582
0.6263964 -0.05 -0.043214055 23142.122
0.62406175 -0.05 -0.043418269 23129.588
0.62172701 -0.05 -0.043621601 23117.014
0.61939221 -0.05 -0.043824069 23104.193
0.61705733 -0.05 -0.044025645 23091.751
0.61472237 -0.05 -0.044226271 23079.471
0.61238733 -0.05 -0.044426006 23066.736
0.61005222 -0.05 -0.04462488 23054.004
0.60771702 -0.05 -0.044822825 23041.574
0.60538174 -0.05 -0.045019806 23029.332
0.6030464 -0.05 -0.045215861 23016.882
0.60071097 -0.05 -0.045411024 23004.372
0.59837546 -0.05 -0.045605254 22992.048
0.59603988 -0.05 -0.045798556 22979.409
0.59370422 -0.05 -0.045990938 22966.893
0.59136849 -0.05 -0.046182352 22954.531
0.58903267 -0.05 -0.046372791 22942.261
0.58669678 -0.05 -0.046562266 22929.881
0.5843608 -0.05 -0.046750814 22917.232
0.58202475 -0.05 -0.046938396 22905.012
0.57968862 -0.05 -0.047124972 22892.763
0.57735242 -0.05 -0.047310578 22880.32
0.57501614 -0.05 -0.04749525 22867.575
0.57267978 -0.05 -0.047678924 22855.459
0.57034334 -0.05 -0.04786155 22843.309
0.56800682 -0.05 -0.048043188 22830.958
0.56567024 -0.05 -0.048223861 22818.366
0.56333356 -0.05 -0.048403536 22806.069
0.56099681 -0.05 -0.048582153 22794.049
0.55865998 -0.05 -0.04875972 22781.89
0.55632308 -0.05 -0.048936314 22769.207
0.55398609 -0.05 -0.049111879 22757.134
0.55164903 -0.05 -0.049286359 22744.855
0.54931189 -0.05 -0.049459794 22732.679
0.54697467 -0.05 -0.049632163 22720.57
0.54463737 -0.05 -0.049803468 22708.441
0.5423 -0.05 -0.049973718 22696.194
0.53996254 -0.05 -0.050142913 22683.905
0.53762502 -0.05 -0.050311035 22671.675
0.53528741 -0.05 -0.050478054 22659.648
0.53294972 -0.05 -0.050643972 22647.422
0.53061196 -0.05 -0.050808824 22635.027
0.52827412 -0.05 -0.050972558 22623.023
0.5259362 -0.05 -0.051135143 22610.952
0.5235982 -0.05 -0.051296612 22598.909
0.52126012 -0.05 -0.051456922 22587.122
0.51892198 -0.05 -0.051616121 22574.773
0.51658374 -0.05 -0.051774162 22563.216
0.51424543 -0.05 -0.051931037 22550.882
0.51190704 -0.05 -0.05208678 22539.063
0.50956857 -0.05 -0.052241321 22527.213
0.50723003 -0.05 -0.052394685 22515.321
0.50489141 -0.05 -0.052546885 22503.222
0.50255271 -0.05 -0.05269791 22491.257
0.50021394 -0.05 -0.052847701 22479.592
0.49787509 -0.05 -0.052996281 22467.594
0.49553616 -0.05 -0.053143654 22455.79
0.49319715 -0.05 -0.053289801 22443.809
0.49085807 -0.05 -0.053434697 22432.265
0.48851891 -0.05 -0.05357832 22420.679
0.48617967 -0.05 -0.053720679 22409.238
0.48384035 -0.05 -0.053861795 22397.391
0.48150097 -0.05 -0.054001669 22385.708
0.4791615 -0.05 -0.054140241 22374.182
0.47682195 -0.05 -0.054277501 22362.738
0.47448234 -0.05 -0.054413462 22351.249
0.47214264 -0.05 -0.054548109 22339.88
0.46980287 -0.05 -0.054681459 22328.127
0.46746302 -0.05 -0.054813494 22316.676
0.4651231 -0.05 -0.054944178 22305.131
0.46278311 -0.05 -0.055073496 22293.897
0.46044304 -0.05 -0.055201437 22282.573
0.45810288 -0.05 -0.055328007 22271.382
0.45576266 -0.05 -0.055453195 22260.139
0.45342237 -0.05 -0.055576996 22249.037
0.451082 -0.05 -0.05569938 22238.041
0.44874156 -0.05 -0.055820362 22226.796
0.44640104 -0.05 -0.055939944 22215.753
0.44406046 -0.05 -0.056058045 22205.145
0.44171979 -0.05 -0.056174717 22193.741
0.43937906 -0.05 -0.05628996 22182.969
0.43703826 -0.05 -0.056403696 22172.08
0.43469738 -0.05 -0.056515954 22161.362
0.43235643 -0.05 -0.056626691 22150.896
0.43001541 -0.05 -0.056735938 22139.949
0.42767432 -0.05 -0.056843696 22129.249
0.42533316 -0.05 -0.056949929 22118.487
0.42299193 -0.05 -0.057054582 22108.419
0.42065064 -0.05 -0.05715767 22097.765
0.41830927 -0.05 -0.057259223 22087.433
0.41596783 -0.05 -0.057359191 22077.048
0.41362634 -0.05 -0.057457551 22067.102
0.41128476 -0.05 -0.057554292 22056.949
0.40894313 -0.05 -0.057649427 22046.844
0.40660142 -0.05 -0.057742965 22036.443
0.40425966 -0.05 -0.057834838 22026.846
0.40191783 -0.05 -0.057925023 22016.844
0.39957593 -0.05 -0.058013541 22007.213
0.39723398 -0.05 -0.058100379 21997.209
0.39489196 -0.05 -0.058185525 21987.714
0.39254988 -0.05 -0.058268918 21978.314
0.39020774 -0.05 -0.05835059 21968.707
0.38786553 -0.05 -0.058430541 21959.265
0.38552326 -0.05 -0.058508715 21950.163
0.38318094 -0.05 -0.058585094 21941.134
0.38083857 -0.05 -0.058659688 21932.094
0.37849613 -0.05 -0.058732482 21923.079
0.37615364 -0.05 -0.058803471 21914.014
0.37381109 -0.05 -0.058872605 21905.531
0.37146848 -0.05 -0.058939856 21897.012
0.36912583 -0.05 -0.059005237 21888.672
0.36678312 -0.05 -0.059068742 21880.203
0.36444037 -0.05 -0.059130354 21871.95
0.36209757 -0.05 -0.059190049 21863.565
0.35975471 -0.05 -0.059247824 21855.448
0.35741181 -0.05 -0.059303603 21847.902
0.35506886 -0.05 -0.059357402 21840.035
0.35272586 -0.05 -0.059409225 21832.575
0.35038283 -0.05 -0.059459044 21824.87
0.34803975 -0.05 -0.059506859 21817.565
0.34569662 -0.05 -0.059552581 21810.746
0.34335347 -0.05 -0.059596249 21803.366
0.34101027 -0.05 -0.059637862 21796.618
0.33866703 -0.05 -0.059677333 21790.044
0.33632377 -0.05 -0.059714702 21783.371
0.33398046 -0.05 -0.059749909 21777.464
0.33163712 -0.05 -0.059782951 21770.93
0.32929376 -0.05 -0.059813858 21764.768
0.32695037 -0.05 -0.059842535 21759.091
0.32460696 -0.05 -0.059868969 21753.557
0.32226351 -0.05 -0.059893141 21748.403
0.31992004 -0.05 -0.059915067 21742.89
0.31757656 -0.05 -0.059934727 21737.896
0.31523306 -0.05 -0.059952066 21733.022
0.31288954 -0.05 -0.059967055 21728.74
0.31054601 -0.05 -0.059979678 21724.385
0.30820246 -0.05 -0.059989926 21720.224
0.30585891 -0.05 -0.059997792 21715.524
0.30351535 -0.05 -0.060003209 21711.655
0.30117179 -0.05 -0.060006157 21708.226
