/*--------------------------------*- C++ -*----------------------------------*\
| =========                 |                                                 |
| \\      /  F ield         | OpenFOAM: The Open Source CFD Toolbox           |
|  \\    /   O peration     | Version:  2306                                  |
|   \\  /    A nd           | Website:  www.openfoam.com                      |
|    \\/     M anipulation  |                                                 |
\*---------------------------------------------------------------------------*/
FoamFile
{
    version     2.0;
    format      ascii;
    arch        "LSB;label=32;scalar=64";
    class       volVectorField;
    location    "875";
    object      momentError;
}
// * * * * * * * * * * * * * * * * * * * * * * * * * * * * * * * * * * * * * //

dimensions      [0 1 -2 0 0 0 0];

internalField   nonuniform List<vector> 
1340
(
(1.40605e-07 -3.19472e-07 -7.3966e-16)
(9.69329e-08 -7.63308e-07 -1.09297e-16)
(4.31144e-08 -8.4511e-07 -7.61663e-16)
(8.41163e-09 -6.6237e-07 3.80753e-15)
(-2.95919e-08 -7.74096e-07 -5.74671e-17)
(-6.36647e-09 -8.85735e-07 1.22431e-15)
(-6.23246e-08 -6.77554e-07 -8.4028e-16)
(-1.14352e-07 -7.15925e-07 3.98101e-15)
(-9.53068e-08 -8.55242e-07 3.27867e-16)
(-3.30645e-08 -9.29909e-07 -1.89476e-15)
(-2.82932e-08 -7.39646e-07 -1.92692e-15)
(-7.5777e-08 -6.95463e-07 -1.60866e-15)
(-1.38172e-07 -7.00837e-07 -1.14749e-15)
(-1.68673e-07 -7.56139e-07 -1.40694e-15)
(-1.1868e-07 -8.58202e-07 -3.27557e-16)
(-5.66723e-08 -9.43017e-07 -1.06214e-15)
(1.5609e-08 -9.27963e-07 -6.14252e-16)
(-2.83444e-08 -8.02307e-07 4.86049e-17)
(-7.82412e-08 -7.4506e-07 -4.69367e-15)
(-1.33618e-07 -7.1692e-07 -2.57504e-15)
(-1.75953e-07 -7.2818e-07 1.25471e-15)
(-1.79099e-07 -7.60749e-07 -1.57593e-15)
(-1.39812e-07 -8.58894e-07 -8.49819e-16)
(-7.15926e-08 -9.37868e-07 2.66119e-15)
(1.08651e-08 -1.54289e-06 -3.26928e-15)
(2.20065e-08 -1.35968e-06 -4.23861e-15)
(3.48293e-08 -1.15701e-06 -2.67329e-15)
(3.74219e-09 -9.3569e-07 -6.48423e-18)
(-8.24444e-08 -8.14893e-07 -1.54763e-16)
(-1.14761e-07 -7.72156e-07 1.87985e-15)
(-1.61446e-07 -7.25568e-07 8.19419e-16)
(-1.83881e-07 -7.27448e-07 -2.128e-16)
(-1.91964e-07 -7.61399e-07 7.7583e-16)
(-1.50869e-07 -8.44026e-07 5.70442e-17)
(-8.09805e-08 -9.21556e-07 -6.44683e-16)
(-2.29713e-07 -1.967e-06 -8.15341e-16)
(-1.68645e-07 -1.74816e-06 1.23717e-15)
(-9.43094e-08 -1.60943e-06 3.37316e-16)
(-5.04252e-08 -1.48093e-06 -3.97557e-16)
(-1.96081e-08 -1.33152e-06 -1.53642e-15)
(-1.14633e-08 -1.14132e-06 -2.70425e-15)
(-2.77411e-08 -9.71234e-07 -5.42594e-16)
(-1.15588e-07 -8.34261e-07 1.41883e-16)
(-1.26772e-07 -7.62255e-07 1.9472e-15)
(-1.6522e-07 -7.34202e-07 4.49698e-16)
(-1.94568e-07 -7.28963e-07 -1.01403e-15)
(-1.9439e-07 -7.5422e-07 1.32279e-15)
(-1.568e-07 -8.24726e-07 5.05533e-16)
(-8.53218e-08 -8.9728e-07 8.89295e-16)
(-1.25406e-06 -2.38153e-06 -1.04901e-15)
(-9.7524e-07 -2.26164e-06 2.93805e-16)
(-7.42516e-07 -2.15798e-06 1.17436e-16)
(-5.03973e-07 -2.00216e-06 -1.09922e-16)
(-3.46076e-07 -1.82749e-06 -4.53035e-16)
(-2.49983e-07 -1.66305e-06 2.17496e-15)
(-1.83041e-07 -1.53099e-06 2.67521e-16)
(-1.42465e-07 -1.43749e-06 9.03907e-16)
(-9.53228e-08 -1.2917e-06 -1.6144e-16)
(-7.89047e-08 -1.12202e-06 1.1992e-15)
(-9.04108e-08 -9.56973e-07 5.01633e-16)
(-1.20739e-07 -8.45179e-07 -1.66788e-16)
(-1.49207e-07 -7.69211e-07 -1.35728e-15)
(-1.79222e-07 -7.34292e-07 -3.62276e-16)
(-2.00071e-07 -7.25889e-07 5.21649e-16)
(-1.95176e-07 -7.44267e-07 -8.03844e-16)
(-1.58478e-07 -8.00539e-07 1.34946e-16)
(-8.68976e-08 -8.69838e-07 2.69294e-16)
(-3.59833e-06 -1.53659e-06 -9.97548e-16)
(-3.19061e-06 -1.67502e-06 -1.9675e-16)
(-2.67875e-06 -1.82016e-06 1.45618e-16)
(-2.29537e-06 -1.94448e-06 1.44014e-15)
(-1.81935e-06 -1.97415e-06 -1.28854e-16)
(-1.46963e-06 -1.96608e-06 -8.38431e-16)
(-1.14667e-06 -1.98672e-06 1.59343e-15)
(-8.84544e-07 -1.88218e-06 5.30174e-16)
(-6.62351e-07 -1.80531e-06 1.0627e-16)
(-5.00804e-07 -1.68562e-06 3.03773e-16)
(-3.68831e-07 -1.54365e-06 -4.8513e-16)
(-3.09175e-07 -1.45156e-06 -6.72395e-17)
(-2.38661e-07 -1.35406e-06 -1.90684e-15)
(-1.82522e-07 -1.23328e-06 -2.87808e-16)
(-1.50594e-07 -1.09125e-06 2.21561e-16)
(-1.45341e-07 -9.5181e-07 -4.57896e-16)
(-1.57676e-07 -8.39559e-07 6.36168e-17)
(-1.7338e-07 -7.64583e-07 -4.45166e-16)
(-1.93725e-07 -7.36929e-07 -1.88451e-16)
(-2.06135e-07 -7.21554e-07 2.82907e-17)
(-1.95372e-07 -7.31397e-07 -1.03145e-15)
(-1.58182e-07 -7.76465e-07 -1.56648e-16)
(-8.6383e-08 -8.39885e-07 -1.50211e-15)
(-6.03317e-06 1.45735e-06 1.20356e-16)
(-5.74545e-06 9.33426e-07 -2.11501e-16)
(-5.42551e-06 4.77597e-07 5.6609e-17)
(-5.08464e-06 8.45709e-08 -1.62213e-16)
(-4.70833e-06 -2.30062e-07 -6.50182e-16)
(-4.34946e-06 -5.34321e-07 2.20243e-16)
(-3.9396e-06 -7.3903e-07 1.53074e-16)
(-3.55615e-06 -9.37039e-07 -1.10359e-15)
(-3.14365e-06 -1.10501e-06 -2.67557e-16)
(-2.77324e-06 -1.28607e-06 -3.24899e-16)
(-2.36799e-06 -1.44448e-06 -4.48915e-16)
(-1.9857e-06 -1.51175e-06 -4.23373e-17)
(-1.66863e-06 -1.6046e-06 1.17022e-15)
(-1.33737e-06 -1.61253e-06 6.60825e-16)
(-1.05512e-06 -1.64354e-06 -2.06309e-16)
(-8.41799e-07 -1.58842e-06 2.76159e-16)
(-6.39313e-07 -1.49903e-06 2.98694e-17)
(-5.21864e-07 -1.41343e-06 -8.30253e-17)
(-4.30984e-07 -1.34261e-06 -3.35759e-17)
(-3.51711e-07 -1.26917e-06 1.08006e-15)
(-2.77296e-07 -1.1691e-06 1.17889e-15)
(-2.30906e-07 -1.0473e-06 4.4182e-17)
(-2.08268e-07 -9.2202e-07 4.83604e-16)
(-2.00138e-07 -8.31468e-07 -7.66138e-17)
(-2.04025e-07 -7.63208e-07 9.60645e-16)
(-2.11026e-07 -7.31278e-07 6.34023e-16)
(-2.14454e-07 -7.13924e-07 1.15781e-16)
(-1.95628e-07 -7.17856e-07 2.16752e-16)
(-1.56933e-07 -7.50018e-07 1.02911e-15)
(-8.42576e-08 -8.1004e-07 4.72831e-16)
(-1.66247e-06 6.44915e-06 -1.74786e-17)
(-2.34112e-06 6.33767e-06 -1.89148e-18)
(-2.95146e-06 6.07696e-06 -2.14881e-18)
(-3.51323e-06 5.79009e-06 1.58796e-17)
(-3.9967e-06 5.44569e-06 2.53782e-17)
(-4.41607e-06 5.08526e-06 1.17419e-16)
(-4.76019e-06 4.63873e-06 2.50266e-17)
(-5.02878e-06 4.18463e-06 4.81412e-17)
(-5.22104e-06 3.69141e-06 5.10537e-18)
(-5.32927e-06 3.21453e-06 -2.0179e-16)
(-5.37006e-06 2.73001e-06 -7.92346e-17)
(-5.33078e-06 2.24282e-06 -2.45047e-16)
(-5.23191e-06 1.76592e-06 -2.00355e-16)
(-5.06761e-06 1.33329e-06 -3.52479e-16)
(-4.86517e-06 9.24953e-07 1.5283e-16)
(-4.62221e-06 5.93413e-07 -3.58786e-16)
(-4.35239e-06 2.65054e-07 -4.20525e-17)
(-4.07349e-06 9.82619e-09 4.86931e-16)
(-3.74475e-06 -2.21608e-07 -1.47098e-16)
(-3.46092e-06 -4.29813e-07 6.30324e-16)
(-3.11227e-06 -6.38939e-07 -9.12697e-17)
(-2.83076e-06 -8.05197e-07 -2.34197e-17)
(-2.46033e-06 -9.70241e-07 1.39106e-16)
(-2.16996e-06 -1.10769e-06 8.24741e-17)
(-1.8419e-06 -1.19304e-06 -4.60881e-16)
(-1.54468e-06 -1.28141e-06 -7.79456e-16)
(-1.27542e-06 -1.31695e-06 1.73665e-16)
(-1.02414e-06 -1.34612e-06 -5.15281e-16)
(-8.3053e-07 -1.31536e-06 -1.48756e-16)
(-6.84071e-07 -1.25825e-06 3.54858e-17)
(-5.7404e-07 -1.21764e-06 3.79407e-17)
(-4.68641e-07 -1.15768e-06 8.91001e-16)
(-3.79758e-07 -1.08322e-06 -3.64313e-16)
(-3.17017e-07 -9.95212e-07 5.19826e-16)
(-2.77542e-07 -8.94227e-07 -6.75746e-16)
(-2.50474e-07 -8.0806e-07 2.24061e-16)
(-2.38731e-07 -7.47879e-07 -6.80915e-16)
(-2.32519e-07 -7.26708e-07 1.04838e-15)
(-2.23244e-07 -7.04561e-07 9.38475e-16)
(-1.96518e-07 -7.01636e-07 -1.81502e-17)
(-1.55304e-07 -7.25381e-07 -1.36182e-16)
(-8.08192e-08 -7.79834e-07 8.39009e-17)
(-8.75791e-06 1.38065e-05 -1.75113e-17)
(1.35878e-06 9.607e-06 1.36802e-17)
(-7.57349e-07 7.82519e-06 -3.83349e-17)
(-9.21215e-06 5.81707e-06 -5.97128e-18)
(1.26904e-06 3.46977e-06 2.98053e-17)
(-3.89296e-06 1.01118e-06 -1.79599e-17)
(8.84862e-07 2.37116e-06 -4.17215e-17)
(-1.22821e-05 2.66833e-06 1.16899e-17)
(-2.39388e-05 3.38358e-06 1.54e-17)
(-3.41518e-05 4.01688e-06 -4.60344e-17)
(-3.99802e-05 4.50406e-06 -3.3848e-17)
(-3.98304e-05 5.27179e-06 -6.71947e-18)
(-3.38932e-05 6.09237e-06 -1.59018e-17)
(-2.25718e-05 7.04336e-06 4.95164e-17)
(-7.5035e-06 8.05855e-06 5.15887e-17)
(8.83301e-06 9.02384e-06 -8.08652e-17)
(2.34843e-05 9.84883e-06 -1.41932e-16)
(3.33756e-05 1.02377e-05 -2.56435e-17)
(2.89119e-05 8.87473e-06 3.23785e-17)
(-4.36854e-05 -7.34556e-06 -2.36325e-17)
(-0.000187957 -4.69667e-05 2.10198e-17)
(0.000573394 7.47212e-05 -4.92336e-17)
(-2.38054e-05 6.15353e-05 1.21363e-16)
(-0.000223485 -1.85313e-05 -9.95995e-17)
(-3.41463e-06 8.12331e-06 -1.44287e-16)
(1.67915e-05 6.24476e-06 -1.32732e-17)
(5.87702e-06 1.71063e-06 -1.71527e-18)
(7.35721e-06 1.1567e-06 -8.0881e-17)
(7.02883e-06 9.40159e-07 -8.39535e-18)
(5.8653e-06 1.0832e-06 -3.1349e-17)
(4.85084e-06 1.49437e-06 1.78899e-17)
(4.0383e-06 1.92568e-06 1.3752e-16)
(3.22158e-06 2.36738e-06 1.38781e-17)
(2.51735e-06 2.70893e-06 6.30521e-17)
(1.74194e-06 3.02758e-06 -3.02513e-17)
(1.06666e-06 3.34036e-06 1.26863e-17)
(3.06603e-07 3.46385e-06 2.63365e-17)
(-2.96399e-07 3.60389e-06 1.45746e-17)
(-9.48978e-07 3.85357e-06 -1.31345e-18)
(-1.50658e-06 3.8882e-06 2.01029e-21)
(-2.08087e-06 3.90677e-06 4.24937e-17)
(-2.54952e-06 3.83725e-06 2.75487e-17)
(-3.02393e-06 3.72489e-06 6.34618e-17)
(-3.39346e-06 3.5333e-06 2.43364e-17)
(-3.74092e-06 3.31983e-06 6.31875e-17)
(-3.98677e-06 3.06484e-06 -9.21219e-17)
(-4.19619e-06 2.79629e-06 -3.25708e-16)
(-4.31767e-06 2.49467e-06 2.58547e-16)
(-4.39735e-06 2.18515e-06 -3.07467e-17)
(-4.39246e-06 1.84133e-06 1.10971e-16)
(-4.34678e-06 1.51761e-06 1.04509e-16)
(-4.24814e-06 1.19706e-06 5.71884e-17)
(-4.10699e-06 8.99741e-07 1.22998e-16)
(-3.95317e-06 6.29057e-07 3.44954e-17)
(-3.74404e-06 3.79709e-07 -1.65818e-16)
(-3.55676e-06 1.69017e-07 -9.43848e-17)
(-3.31636e-06 -3.62489e-08 2.33104e-16)
(-3.09442e-06 -2.12929e-07 2.1577e-17)
(-2.82223e-06 -4.08163e-07 2.08542e-16)
(-2.58027e-06 -5.66867e-07 -5.03728e-17)
(-2.29131e-06 -7.11116e-07 -2.16203e-16)
(-2.02147e-06 -8.25802e-07 -6.2364e-16)
(-1.75314e-06 -9.1825e-07 -5.69417e-16)
(-1.4964e-06 -1.02642e-06 4.37381e-16)
(-1.26353e-06 -1.07185e-06 -3.18382e-16)
(-1.0315e-06 -1.08471e-06 1.54524e-16)
(-8.67478e-07 -1.06881e-06 -2.87175e-16)
(-7.31309e-07 -1.0521e-06 -2.06866e-16)
(-6.08551e-07 -1.02666e-06 -5.60378e-16)
(-5.04143e-07 -9.86415e-07 -5.06362e-16)
(-4.16629e-07 -9.22709e-07 -9.13006e-16)
(-3.53367e-07 -8.39522e-07 4.07658e-16)
(-3.07935e-07 -7.79624e-07 -2.69263e-16)
(-2.77033e-07 -7.33395e-07 7.43556e-16)
(-2.556e-07 -7.10346e-07 2.62321e-16)
(-2.3346e-07 -6.89932e-07 -5.61142e-17)
(-1.99467e-07 -6.84388e-07 1.63641e-16)
(-1.53484e-07 -6.9819e-07 -2.78202e-16)
(-7.76147e-08 -7.50338e-07 -1.26746e-16)
(8.40107e-06 6.28778e-07 1.54708e-17)
(1.34444e-05 -2.76783e-07 -1.68926e-17)
(8.7472e-06 9.83696e-07 -3.54634e-17)
(6.05091e-06 -6.73412e-07 3.16285e-18)
(4.88207e-06 -2.83855e-06 1.77768e-17)
(4.48845e-06 -3.65191e-06 -6.07676e-18)
(4.28313e-06 -3.60857e-06 -4.20723e-18)
(3.5268e-06 -2.95773e-06 -8.26918e-18)
(-1.8435e-06 -2.18682e-06 -3.43197e-18)
(-1.2216e-05 -2.16864e-06 -1.66267e-17)
(-2.82575e-05 -3.71559e-06 -2.33101e-17)
(-3.32016e-05 -3.29995e-06 1.39822e-17)
(-3.66324e-05 -4.02808e-06 -8.29155e-18)
(-3.31233e-05 -3.79981e-06 -4.66544e-18)
(-2.49558e-05 -3.37481e-06 1.17078e-17)
(-1.21935e-05 -2.47465e-06 -4.29143e-17)
(3.1537e-06 -1.25052e-06 2.08431e-17)
(1.82498e-05 3.47785e-08 3.46108e-17)
(2.79703e-05 1.09959e-07 -4.0552e-17)
(2.92161e-05 -3.05075e-06 -4.16969e-17)
(0.000126942 1.93903e-05 -4.42393e-17)
(0.00018528 6.23424e-05 6.10743e-18)
(-2.28922e-05 -4.97492e-06 3.61393e-17)
(-0.000139904 -2.60269e-05 -5.42708e-17)
(-2.06822e-05 -9.48968e-06 1.90338e-17)
(8.62488e-06 -2.23303e-06 -1.87371e-17)
(-1.10972e-06 -3.14169e-06 2.28598e-18)
(2.33528e-06 -3.16125e-06 -3.8978e-17)
(3.80937e-06 -2.94637e-06 1.40022e-17)
(3.62584e-06 -2.54001e-06 -1.95518e-17)
(3.20718e-06 -1.9256e-06 5.3148e-17)
(2.73587e-06 -1.2358e-06 2.50435e-17)
(2.26284e-06 -6.15893e-07 -1.93733e-17)
(1.85612e-06 -7.79023e-08 -2.47819e-17)
(1.43858e-06 3.73064e-07 -2.88765e-17)
(1.03219e-06 7.64026e-07 1.78024e-17)
(5.69969e-07 1.15123e-06 1.95996e-17)
(1.65993e-07 1.50542e-06 7.70032e-19)
(-3.07654e-07 1.74606e-06 -1.74201e-17)
(-7.41395e-07 2.00065e-06 1.97773e-18)
(-1.18872e-06 2.17231e-06 -2.24247e-17)
(-1.59357e-06 2.31184e-06 -1.62045e-17)
(-1.99654e-06 2.37056e-06 -1.03028e-17)
(-2.34587e-06 2.40633e-06 -6.21829e-18)
(-2.67528e-06 2.37479e-06 -2.56687e-17)
(-2.9457e-06 2.31835e-06 -1.3288e-17)
(-3.18682e-06 2.20495e-06 1.08756e-16)
(-3.36794e-06 2.07275e-06 1.79285e-16)
(-3.51198e-06 1.89541e-06 1.10006e-16)
(-3.59824e-06 1.71128e-06 5.36178e-17)
(-3.64239e-06 1.4919e-06 -3.65416e-18)
(-3.63959e-06 1.27145e-06 4.34559e-17)
(-3.59768e-06 1.04216e-06 -6.80825e-18)
(-3.52328e-06 8.22734e-07 1.1227e-17)
(-3.41946e-06 6.1579e-07 8.73593e-17)
(-3.29146e-06 4.24689e-07 2.7708e-16)
(-3.14464e-06 2.56674e-07 -4.87215e-16)
(-2.97399e-06 7.71518e-08 7.24702e-17)
(-2.79558e-06 -8.23565e-08 -1.72198e-16)
(-2.5774e-06 -2.39823e-07 5.16968e-16)
(-2.36492e-06 -3.68949e-07 -4.47825e-19)
(-2.12906e-06 -4.98997e-07 4.14198e-16)
(-1.91161e-06 -6.22205e-07 6.97256e-16)
(-1.67854e-06 -7.16012e-07 -3.77793e-16)
(-1.4426e-06 -7.96661e-07 3.91955e-16)
(-1.2235e-06 -8.35493e-07 -2.33566e-16)
(-1.04915e-06 -8.5355e-07 -3.25897e-16)
(-9.01442e-07 -8.68312e-07 -1.76884e-16)
(-7.66258e-07 -8.67536e-07 1.11419e-16)
(-6.36542e-07 -8.54967e-07 8.70927e-16)
(-5.3027e-07 -8.25565e-07 9.3301e-16)
(-4.39507e-07 -7.78893e-07 -4.54332e-17)
(-3.64648e-07 -7.31544e-07 -3.11342e-16)
(-3.15499e-07 -6.99025e-07 -5.77932e-17)
(-2.80044e-07 -6.93053e-07 -1.41473e-15)
(-2.45788e-07 -6.71899e-07 1.53361e-17)
(-2.04329e-07 -6.62857e-07 -5.91431e-16)
(-1.52913e-07 -6.71751e-07 -1.24624e-16)
(-7.46959e-08 -7.19824e-07 1.81079e-16)
(2.12364e-05 -1.01431e-05 -8.97744e-18)
(2.11982e-05 -8.30827e-06 -8.12143e-18)
(1.57864e-05 -3.57389e-06 7.41549e-18)
(1.30314e-05 -4.24531e-06 -8.07616e-19)
(1.13683e-05 -4.66981e-06 -1.5842e-17)
(9.32842e-06 -5.22524e-06 1.07036e-17)
(8.7199e-06 -5.06472e-06 6.22128e-18)
(7.86663e-06 -4.11565e-06 -1.51457e-17)
(5.33959e-06 -1.41722e-06 5.96303e-18)
(3.72056e-05 -1.14731e-05 -9.28695e-18)
(-2.6281e-05 -7.69635e-06 9.16696e-18)
(-4.01018e-06 -2.79035e-06 -9.33206e-18)
(-2.98279e-05 -7.55397e-06 -2.78505e-17)
(-2.43517e-05 -5.88467e-06 3.89455e-18)
(-2.54836e-05 -6.47809e-06 1.10949e-17)
(-2.04075e-05 -6.1304e-06 -1.17581e-18)
(-1.20178e-05 -5.49449e-06 2.2333e-17)
(-4.3876e-07 -4.39025e-06 -5.00815e-17)
(1.2642e-05 -3.08677e-06 -2.77263e-17)
(2.42471e-05 -9.19187e-07 1.99447e-18)
(3.2532e-05 5.75073e-06 -1.53238e-18)
(-2.07722e-05 -5.46476e-06 2.21688e-17)
(4.85668e-05 -4.96663e-06 -7.51322e-17)
(4.8629e-05 3.10096e-07 1.3495e-16)
(4.72521e-06 -5.16677e-06 1.8515e-17)
(7.80282e-06 -2.55046e-06 1.35535e-17)
(1.56277e-06 -1.98229e-06 2.36728e-17)
(-1.00725e-06 -2.44417e-06 4.78781e-17)
(1.87512e-07 -2.34983e-06 1.16048e-17)
(7.84953e-07 -2.14211e-06 2.332e-17)
(1.04887e-06 -1.7882e-06 -1.57461e-17)
(1.01516e-06 -1.34739e-06 -5.03659e-17)
(8.55799e-07 -9.14461e-07 2.22761e-18)
(6.41072e-07 -5.29242e-07 1.2715e-17)
(4.62507e-07 -2.18577e-07 3.98998e-17)
(2.60064e-07 5.10997e-08 -2.15386e-17)
(7.40902e-08 2.8507e-07 2.14143e-18)
(-1.76032e-07 5.33896e-07 -2.09714e-17)
(-4.15001e-07 7.67908e-07 1.08618e-17)
(-6.91305e-07 9.89494e-07 -2.59083e-19)
(-9.57919e-07 1.16866e-06 -9.4917e-18)
(-1.24492e-06 1.32473e-06 -6.48499e-18)
(-1.51419e-06 1.43449e-06 3.96024e-19)
(-1.78905e-06 1.52371e-06 -8.84245e-18)
(-2.03954e-06 1.57379e-06 -5.07734e-18)
(-2.28215e-06 1.60874e-06 5.07522e-17)
(-2.49435e-06 1.60521e-06 2.68484e-17)
(-2.68518e-06 1.58151e-06 -6.16876e-17)
(-2.84077e-06 1.52104e-06 3.28603e-17)
(-2.96524e-06 1.43356e-06 1.4019e-17)
(-3.05389e-06 1.31607e-06 6.48506e-17)
(-3.10549e-06 1.18463e-06 -1.51639e-16)
(-3.12594e-06 1.03443e-06 9.97197e-18)
(-3.10957e-06 8.76462e-07 1.50197e-17)
(-3.06694e-06 7.225e-07 7.30378e-17)
(-2.99473e-06 5.71377e-07 -8.39717e-17)
(-2.90263e-06 4.25774e-07 1.70395e-16)
(-2.79075e-06 2.84205e-07 6.88797e-17)
(-2.65026e-06 1.45227e-07 -1.00128e-16)
(-2.50012e-06 1.6032e-08 1.41105e-16)
(-2.32371e-06 -1.18734e-07 3.42871e-17)
(-2.15444e-06 -2.38823e-07 5.54297e-16)
(-1.95646e-06 -3.51548e-07 -1.17211e-18)
(-1.76216e-06 -4.58316e-07 -3.2496e-16)
(-1.55704e-06 -5.39733e-07 5.01645e-16)
(-1.35755e-06 -6.04381e-07 3.67913e-18)
(-1.19465e-06 -6.35654e-07 -2.66857e-16)
(-1.04697e-06 -6.66094e-07 1.79632e-16)
(-9.05314e-07 -6.89889e-07 -5.48681e-17)
(-7.68519e-07 -7.09687e-07 3.90341e-16)
(-6.37071e-07 -7.08513e-07 2.13984e-17)
(-5.16175e-07 -6.77831e-07 -3.20058e-17)
(-4.24093e-07 -6.69158e-07 2.90362e-16)
(-3.54167e-07 -6.651e-07 -1.81349e-18)
(-3.03949e-07 -6.61847e-07 -6.68019e-17)
(-2.59911e-07 -6.46716e-07 -1.09651e-16)
(-2.10146e-07 -6.38972e-07 -3.59852e-16)
(-1.52785e-07 -6.4084e-07 2.32558e-16)
(-7.20727e-08 -6.88953e-07 -3.41117e-16)
(2.52053e-05 -1.60203e-05 8.71032e-18)
(2.18863e-05 -1.26789e-05 4.4115e-18)
(1.46898e-05 -6.08671e-06 -1.27146e-17)
(1.30429e-05 -5.76976e-06 -1.30058e-17)
(1.1587e-05 -5.26392e-06 1.7048e-17)
(9.7348e-06 -5.24338e-06 -1.03027e-17)
(6.85003e-06 -5.06757e-06 6.7578e-18)
(-1.12335e-05 -4.48253e-06 2.27002e-17)
(-0.000223469 -3.87434e-06 -5.35326e-18)
(0.000197571 -5.82408e-08 4.01526e-18)
(5.92591e-06 -1.77407e-05 -2.04333e-18)
(8.28684e-05 1.36691e-05 3.06867e-18)
(-5.32458e-05 -1.04539e-05 1.72366e-17)
(1.07835e-05 -1.09145e-06 -6.90638e-18)
(-1.59699e-05 -5.16405e-06 -4.67224e-17)
(-1.32878e-05 -5.35222e-06 -1.8565e-17)
(-1.30118e-05 -5.851e-06 -1.9842e-17)
(-8.36938e-06 -5.68595e-06 1.89732e-18)
(-1.27737e-06 -4.94656e-06 1.64512e-17)
(5.59804e-06 -3.74346e-06 -7.02439e-18)
(9.54029e-06 -3.02534e-06 2.54437e-17)
(3.19391e-05 -1.04282e-07 -4.14436e-17)
(5.10922e-05 9.22541e-06 7.03393e-17)
(1.20575e-05 1.50513e-08 -6.20313e-17)
(-1.09815e-05 -5.1312e-06 -6.61773e-17)
(6.63321e-06 -1.84144e-06 -2.12777e-17)
(5.08666e-06 -1.04193e-06 -7.68609e-18)
(-6.34714e-07 -1.71288e-06 -6.10718e-18)
(-1.37436e-06 -1.91631e-06 3.5462e-18)
(-1.03721e-06 -1.85473e-06 -1.50713e-17)
(-6.28086e-07 -1.60673e-06 -3.93151e-18)
(-3.01328e-07 -1.20804e-06 3.74129e-17)
(-1.64597e-07 -7.77966e-07 2.17176e-17)
(-1.78876e-07 -4.17085e-07 5.66048e-18)
(-2.72662e-07 -1.73152e-07 -7.04297e-17)
(-3.88515e-07 -1.36478e-08 2.32043e-18)
(-5.08869e-07 1.13452e-07 -1.25531e-19)
(-6.35116e-07 2.47892e-07 2.11127e-18)
(-7.76579e-07 3.90122e-07 1.07954e-17)
(-9.33619e-07 5.38741e-07 2.22335e-18)
(-1.10138e-06 6.69953e-07 -7.26829e-18)
(-1.27625e-06 7.94233e-07 -6.64487e-18)
(-1.45509e-06 8.915e-07 -1.58041e-17)
(-1.63417e-06 9.84524e-07 -3.74419e-18)
(-1.81244e-06 1.05227e-06 -2.92464e-18)
(-1.98456e-06 1.11149e-06 -1.62863e-17)
(-2.14927e-06 1.14723e-06 8.55857e-18)
(-2.30007e-06 1.17158e-06 -1.95194e-17)
(-2.43526e-06 1.16778e-06 -1.19923e-16)
(-2.54858e-06 1.1522e-06 8.39485e-17)
(-2.6394e-06 1.10739e-06 3.13533e-17)
(-2.70415e-06 1.04162e-06 -1.21252e-18)
(-2.74343e-06 9.56159e-07 1.51416e-17)
(-2.75585e-06 8.60928e-07 2.37728e-17)
(-2.74321e-06 7.54635e-07 -3.12961e-16)
(-2.7075e-06 6.45816e-07 -7.29759e-19)
(-2.64979e-06 5.36679e-07 5.12709e-17)
(-2.57234e-06 4.23777e-07 -2.57886e-17)
(-2.47613e-06 3.09977e-07 1.442e-16)
(-2.36268e-06 1.946e-07 -6.93645e-16)
(-2.23844e-06 8.27913e-08 2.00748e-16)
(-2.09245e-06 -3.12938e-08 1.20474e-16)
(-1.94399e-06 -1.37921e-07 -8.05099e-16)
(-1.77825e-06 -2.36142e-07 3.44081e-16)
(-1.60733e-06 -3.23152e-07 -3.097e-16)
(-1.43606e-06 -3.92952e-07 8.08278e-17)
(-1.28554e-06 -4.35522e-07 -1.95266e-16)
(-1.15129e-06 -4.73689e-07 2.04201e-16)
(-1.01455e-06 -5.12631e-07 1.47457e-16)
(-8.70868e-07 -5.42385e-07 -2.18764e-16)
(-7.27441e-07 -5.58916e-07 -3.43027e-16)
(-5.98e-07 -5.74294e-07 -2.10689e-17)
(-4.92168e-07 -5.86272e-07 -4.79764e-16)
(-4.00783e-07 -6.0226e-07 -8.80589e-17)
(-3.33835e-07 -6.27298e-07 1.05398e-15)
(-2.75541e-07 -6.16693e-07 -2.66497e-16)
(-2.16279e-07 -6.08653e-07 8.22853e-16)
(-1.52301e-07 -6.09946e-07 -6.1564e-16)
(-6.86247e-08 -6.56295e-07 2.54883e-16)
(1.91392e-05 -1.58933e-05 -7.32045e-18)
(1.40998e-05 -1.23447e-05 1.28216e-18)
(8.10078e-06 -6.22869e-06 -1.95512e-18)
(7.32483e-06 -5.68886e-06 -5.79601e-18)
(6.68292e-06 -4.64308e-06 -1.81556e-17)
(5.89829e-06 -4.24387e-06 8.15807e-18)
(4.82838e-06 -4.03819e-06 2.43819e-18)
(4.27681e-06 -3.62724e-06 -1.87065e-17)
(3.04593e-05 -1.90424e-06 3.65407e-18)
(4.8987e-06 6.62647e-06 1.28883e-18)
(5.35736e-06 -6.40256e-08 2.86383e-18)
(-1.53056e-05 -1.54005e-06 -1.32753e-18)
(1.1827e-05 -2.84349e-06 -9.71535e-18)
(-1.1672e-05 -3.29345e-06 -4.17641e-18)
(3.84686e-06 -6.98796e-07 8.25349e-18)
(-7.90625e-06 -3.568e-06 1.51335e-17)
(-4.89757e-06 -3.16312e-06 3.81649e-18)
(-5.64508e-06 -3.8945e-06 1.18447e-17)
(-3.29762e-06 -3.96491e-06 -2.26648e-17)
(5.17282e-07 -3.81417e-06 6.80686e-18)
(6.95013e-06 -2.9096e-06 1.3001e-17)
(1.9229e-05 4.76768e-07 2.73917e-17)
(2.22575e-05 2.01466e-06 -2.71618e-17)
(9.26971e-06 -1.65285e-06 -6.04753e-17)
(1.79664e-07 -3.38265e-06 4.27808e-17)
(6.59987e-06 -1.94349e-06 2.02237e-17)
(7.73591e-06 -7.04202e-07 1.9449e-18)
(1.81457e-06 -1.00281e-06 -2.86963e-18)
(-6.63562e-07 -1.33182e-06 4.90219e-18)
(-1.31847e-06 -1.4073e-06 1.61389e-17)
(-1.47221e-06 -1.28047e-06 -3.42517e-19)
(-1.34518e-06 -9.64507e-07 -2.45279e-17)
(-1.1222e-06 -5.71685e-07 -3.44375e-17)
(-9.28914e-07 -2.03276e-07 -2.31368e-17)
(-8.54179e-07 4.95612e-08 5.3193e-17)
(-8.50194e-07 1.88904e-07 1.68635e-17)
(-8.98138e-07 2.4583e-07 -8.3976e-18)
(-9.70453e-07 2.85911e-07 -1.29452e-18)
(-1.05386e-06 3.35249e-07 1.11949e-18)
(-1.14668e-06 4.13447e-07 -5.73234e-18)
(-1.24387e-06 4.97581e-07 -6.0262e-18)
(-1.34776e-06 5.79112e-07 3.91757e-18)
(-1.45388e-06 6.41778e-07 1.87025e-18)
(-1.56382e-06 6.96025e-07 1.90892e-18)
(-1.67297e-06 7.38309e-07 -9.19836e-18)
(-1.7804e-06 7.87034e-07 -6.20215e-18)
(-1.88304e-06 8.24249e-07 5.53042e-17)
(-1.97843e-06 8.64151e-07 -8.49107e-18)
(-2.06497e-06 8.87955e-07 7.27706e-18)
(-2.13964e-06 9.00467e-07 -7.25698e-17)
(-2.20215e-06 8.912e-07 -4.06233e-18)
(-2.24884e-06 8.70855e-07 -2.32857e-17)
(-2.28185e-06 8.28148e-07 7.35949e-17)
(-2.29808e-06 7.71232e-07 3.76499e-18)
(-2.29924e-06 7.05505e-07 -2.01337e-16)
(-2.28392e-06 6.32234e-07 9.98121e-17)
(-2.25346e-06 5.5258e-07 -1.07634e-17)
(-2.20856e-06 4.6838e-07 -1.4093e-16)
(-2.14731e-06 3.79752e-07 1.39824e-16)
(-2.07274e-06 2.87149e-07 1.96042e-16)
(-1.98313e-06 1.92843e-07 2.22766e-16)
(-1.88188e-06 9.71214e-08 -6.48491e-17)
(-1.76744e-06 5.06015e-09 2.0168e-16)
(-1.64185e-06 -8.2284e-08 -3.05791e-16)
(-1.50827e-06 -1.62028e-07 3.08933e-17)
(-1.3682e-06 -2.32454e-07 -1.28284e-16)
(-1.24714e-06 -2.73092e-07 4.28134e-16)
(-1.13042e-06 -3.11752e-07 1.15585e-17)
(-1.01429e-06 -3.46218e-07 1.74912e-18)
(-8.8992e-07 -3.87934e-07 -3.62044e-16)
(-7.61455e-07 -4.24818e-07 1.26629e-16)
(-6.43958e-07 -4.46258e-07 8.95251e-17)
(-5.2946e-07 -4.90244e-07 5.12752e-16)
(-4.419e-07 -5.31389e-07 1.15847e-16)
(-3.53513e-07 -5.67416e-07 -1.08904e-15)
(-2.80929e-07 -5.714e-07 -2.84451e-16)
(-2.15198e-07 -5.71615e-07 -1.41964e-16)
(-1.46725e-07 -5.71624e-07 1.93982e-16)
(-6.40353e-08 -6.22974e-07 3.55134e-16)
(5.44607e-06 -8.59578e-06 -4.31915e-18)
(1.7478e-06 -6.19183e-06 -3.26212e-18)
(-4.41938e-07 -2.03619e-06 9.26425e-18)
(-2.07695e-07 -1.88565e-06 2.76988e-18)
(-1.00685e-07 -9.07605e-07 -5.17838e-18)
(-4.05549e-09 -3.90389e-07 -1.67396e-17)
(-5.20969e-08 -1.80538e-07 -7.59529e-18)
(-7.01662e-07 -8.97817e-08 1.33023e-17)
(-2.93519e-06 1.80474e-07 -8.53148e-18)
(3.75081e-06 -1.869e-08 -1.11048e-17)
(-2.01985e-06 4.32546e-07 4.24118e-18)
(-9.6287e-05 1.14405e-06 8.99631e-20)
(8.31711e-05 1.50851e-06 8.42716e-18)
(-8.11551e-06 -5.88023e-06 -4.33737e-18)
(4.02505e-05 8.87997e-06 -1.51773e-18)
(-2.67204e-05 -3.16633e-06 1.9929e-17)
(1.33163e-05 2.43994e-06 3.48946e-17)
(-1.32375e-06 -3.19982e-07 -1.08186e-17)
(1.86456e-06 -3.68603e-07 3.77947e-18)
(1.45449e-06 -9.50685e-07 1.15127e-17)
(2.7312e-06 -9.48176e-07 2.06499e-18)
(3.6442e-06 -7.35296e-07 3.76949e-18)
(5.54512e-06 -7.6879e-07 5.94187e-18)
(6.69207e-06 -1.11997e-06 5.68111e-17)
(5.43917e-06 -1.42297e-06 2.01902e-17)
(5.84649e-06 -7.59005e-07 -4.37324e-19)
(5.83337e-06 -9.93972e-08 9.06402e-18)
(3.10008e-06 -3.22686e-08 1.20121e-18)
(7.72002e-07 -2.21417e-07 1.41974e-17)
(-1.88865e-07 -3.62278e-07 -1.93275e-18)
(-6.23091e-07 -3.83896e-07 -2.46183e-17)
(-9.42403e-07 -2.88632e-07 -2.72981e-17)
(-1.10889e-06 -1.04701e-07 1.81656e-17)
(-9.66182e-07 1.81887e-07 8.53136e-18)
(-1.09519e-06 3.97025e-07 -2.91673e-18)
(-9.59629e-07 5.32512e-07 -3.01203e-18)
(-9.41608e-07 5.51642e-07 8.39897e-18)
(-9.33975e-07 5.27347e-07 8.83994e-18)
(-9.54028e-07 4.99817e-07 -8.44839e-18)
(-9.88403e-07 5.00711e-07 8.77113e-18)
(-1.03511e-06 5.16294e-07 1.2928e-17)
(-1.0865e-06 5.42129e-07 6.61294e-18)
(-1.13844e-06 5.6644e-07 -4.98342e-18)
(-1.18793e-06 5.9637e-07 -1.87399e-18)
(-1.23467e-06 6.22904e-07 -6.03646e-18)
(-1.27887e-06 6.51232e-07 1.63821e-17)
(-1.3224e-06 6.74033e-07 3.21887e-17)
(-1.36279e-06 6.95288e-07 -1.61326e-17)
(-1.40285e-06 7.08946e-07 1.66008e-17)
(-1.43815e-06 7.23005e-07 2.0519e-17)
(-1.47258e-06 7.21362e-07 2.91263e-17)
(-1.50134e-06 7.05429e-07 3.75312e-17)
(-1.52801e-06 6.75291e-07 -1.41514e-18)
(-1.54637e-06 6.37368e-07 2.11174e-17)
(-1.56014e-06 5.90956e-07 8.46178e-17)
(-1.56505e-06 5.4127e-07 -2.88199e-17)
(-1.56251e-06 4.86323e-07 -9.73971e-18)
(-1.55087e-06 4.26354e-07 1.52068e-16)
(-1.52972e-06 3.6217e-07 5.02457e-19)
(-1.49994e-06 2.94008e-07 1.22913e-16)
(-1.45817e-06 2.23004e-07 -3.3804e-16)
(-1.40865e-06 1.49153e-07 -1.05917e-16)
(-1.34618e-06 7.71149e-08 -2.16657e-17)
(-1.2767e-06 6.91411e-09 -2.08682e-16)
(-1.19664e-06 -5.9618e-08 9.67858e-17)
(-1.1116e-06 -1.19665e-07 6.35231e-17)
(-1.04132e-06 -1.57627e-07 -5.86191e-18)
(-9.61414e-07 -1.91565e-07 -1.60231e-16)
(-8.89725e-07 -2.3171e-07 -8.82205e-17)
(-8.02664e-07 -2.6311e-07 8.91904e-17)
(-7.13595e-07 -2.99132e-07 -5.30521e-17)
(-6.20896e-07 -3.41242e-07 -4.10585e-17)
(-5.35791e-07 -3.89228e-07 5.36243e-16)
(-4.43629e-07 -4.39938e-07 7.8187e-17)
(-3.58569e-07 -4.93027e-07 3.72234e-16)
(-2.80644e-07 -5.13439e-07 4.27184e-16)
(-2.12126e-07 -5.25781e-07 6.33053e-17)
(-1.44589e-07 -5.2852e-07 2.74043e-16)
(-6.36738e-08 -5.86181e-07 8.45759e-17)
(-6.51327e-06 6.35608e-07 -2.50658e-19)
(-7.23542e-06 1.86987e-06 -1.18086e-18)
(-5.1138e-06 2.91215e-06 -1.29209e-18)
(-4.25355e-06 2.2161e-06 -1.61018e-18)
(-3.6195e-06 2.6462e-06 7.39521e-18)
(-3.03842e-06 2.98938e-06 1.50579e-17)
(-2.51575e-06 3.21477e-06 1.04076e-17)
(-2.15347e-06 3.17842e-06 -4.59869e-18)
(-1.8267e-06 2.99549e-06 5.16872e-18)
(-1.12225e-06 2.92358e-06 1.59292e-17)
(-1.34614e-06 2.61571e-06 -5.89826e-18)
(7.86549e-06 2.7764e-06 2.18749e-18)
(-3.50125e-07 5.24624e-06 6.86802e-18)
(3.83997e-07 3.26781e-06 5.05417e-18)
(-2.19217e-06 1.87753e-06 6.25809e-19)
(-2.29124e-06 2.40235e-06 2.23274e-18)
(7.09834e-07 2.19608e-06 -8.97062e-18)
(9.36205e-07 1.74498e-06 9.3912e-18)
(2.15062e-06 1.40674e-06 9.47041e-18)
(1.91093e-06 9.07463e-07 -9.54495e-18)
(1.84472e-06 5.06085e-07 -9.62159e-19)
(1.97006e-06 2.46088e-07 3.41999e-18)
(2.64401e-06 2.57537e-07 -9.63819e-18)
(3.11228e-06 1.9999e-07 -3.93222e-17)
(2.65337e-06 2.38076e-08 -3.34736e-17)
(2.42865e-06 8.73271e-08 1.88589e-17)
(2.52626e-06 3.3624e-07 -1.38559e-19)
(1.5982e-06 4.83883e-07 3.41001e-18)
(3.30391e-07 4.99162e-07 -2.71287e-17)
(-3.48789e-07 4.77803e-07 -3.44521e-17)
(-6.24298e-07 4.2287e-07 -1.58416e-18)
(-1.03817e-06 1.93504e-07 4.50889e-17)
(-1.34137e-06 -3.50663e-07 -1.78488e-17)
(1.58606e-06 6.8717e-07 -1.29394e-17)
(-2.17385e-06 8.22562e-07 -2.48592e-18)
(-7.79664e-07 1.08573e-06 6.13582e-18)
(-1.19688e-06 9.87496e-07 -7.88392e-18)
(-1.087e-06 9.09518e-07 -4.54611e-19)
(-1.05212e-06 7.89178e-07 5.01912e-18)
(-1.04286e-06 7.03871e-07 -2.26588e-19)
(-1.04888e-06 6.50973e-07 6.24761e-18)
(-1.0598e-06 6.37272e-07 -3.39591e-19)
(-1.07752e-06 6.41859e-07 3.30728e-18)
(-1.09646e-06 6.5073e-07 -4.77698e-19)
(-1.11682e-06 6.52161e-07 6.10606e-18)
(-1.13635e-06 6.53441e-07 -2.25822e-19)
(-1.1582e-06 6.53338e-07 -1.81364e-17)
(-1.17974e-06 6.62349e-07 -1.18377e-17)
(-1.20479e-06 6.66341e-07 -4.06762e-18)
(-1.22967e-06 6.65782e-07 2.26838e-17)
(-1.25898e-06 6.53269e-07 5.45004e-17)
(-1.28567e-06 6.40797e-07 -2.8322e-18)
(-1.31391e-06 6.15807e-07 -3.15026e-17)
(-1.33683e-06 5.89261e-07 2.11616e-17)
(-1.35921e-06 5.54789e-07 4.56235e-17)
(-1.37489e-06 5.17698e-07 -5.91673e-17)
(-1.3887e-06 4.73954e-07 9.77833e-17)
(-1.39472e-06 4.28475e-07 5.16396e-17)
(-1.39521e-06 3.76516e-07 1.26361e-17)
(-1.38686e-06 3.20183e-07 1.82647e-16)
(-1.36931e-06 2.58521e-07 7.42556e-17)
(-1.34288e-06 1.93568e-07 -1.63555e-16)
(-1.30373e-06 1.28117e-07 1.63334e-16)
(-1.25716e-06 6.24941e-08 1.1108e-16)
(-1.19781e-06 -1.40628e-09 -1.69011e-16)
(-1.13456e-06 -6.10893e-08 2.13727e-17)
(-1.06368e-06 -9.42738e-08 -6.06061e-17)
(-1.0095e-06 -1.37032e-07 -1.39927e-16)
(-9.50037e-07 -1.64071e-07 -6.27121e-17)
(-8.76475e-07 -2.00469e-07 3.12416e-17)
(-8.02861e-07 -2.41602e-07 8.91002e-17)
(-7.1299e-07 -2.81081e-07 -9.96232e-17)
(-6.23975e-07 -3.40042e-07 -4.09934e-16)
(-5.23421e-07 -4.01404e-07 -1.06299e-16)
(-4.28277e-07 -4.63388e-07 1.96594e-16)
(-3.31311e-07 -4.93538e-07 -2.16237e-16)
(-2.48133e-07 -5.0666e-07 -3.47902e-16)
(-1.66759e-07 -5.01851e-07 -2.05654e-16)
(-7.57094e-08 -5.49657e-07 -3.34943e-16)
(-5.96925e-06 4.58147e-06 1.08095e-18)
(-3.9048e-06 5.1251e-06 5.43615e-18)
(-1.21563e-06 4.57436e-06 -6.3945e-19)
(-6.12965e-07 3.44485e-06 -2.31905e-18)
(-1.21682e-07 3.17068e-06 -4.47256e-18)
(2.89948e-07 3.11582e-06 -5.83455e-18)
(6.20504e-07 3.26465e-06 -5.50397e-18)
(8.60676e-07 3.31844e-06 -4.1931e-18)
(9.86066e-07 3.17381e-06 -2.3086e-18)
(1.15474e-06 2.8533e-06 8.95906e-19)
(8.08228e-07 2.52434e-06 1.00327e-17)
(-7.56463e-07 2.35943e-06 5.95339e-19)
(2.80536e-06 2.07693e-06 -5.6102e-19)
(1.39932e-06 1.89337e-06 -8.50926e-18)
(2.36705e-06 2.13705e-06 4.50371e-19)
(1.23477e-06 1.75245e-06 -1.84378e-18)
(1.79634e-06 1.59751e-06 -1.32338e-17)
(1.00495e-06 1.26966e-06 -3.8094e-18)
(1.43324e-06 1.04763e-06 -6.20768e-19)
(1.56669e-06 7.62597e-07 6.34979e-18)