/*--------------------------------*- C++ -*----------------------------------*\
| =========                 |                                                 |
| \\      /  F ield         | OpenFOAM: The Open Source CFD Toolbox           |
|  \\    /   O peration     | Version:  2306                                  |
|   \\  /    A nd           | Website:  www.openfoam.com                      |
|    \\/     M anipulation  |                                                 |
\*---------------------------------------------------------------------------*/
FoamFile
{
    version     2.0;
    format      ascii;
    arch        "LSB;label=32;scalar=64";
    class       volSymmTensorField;
    location    "875";
    object      turbulenceProperties:devReff;
}
// * * * * * * * * * * * * * * * * * * * * * * * * * * * * * * * * * * * * * //

dimensions      [0 2 -2 0 0 0 0];

internalField   nonuniform List<symmTensor> 
1340
(
(1.51568e-07 3.94314e-08 -6.5253e-20 -2.16656e-07 -6.69224e-21 6.50879e-08)
(-1.07023e-07 -3.1301e-08 -6.43282e-20 1.62262e-07 -8.10173e-21 -5.52388e-08)
(1.5554e-07 4.35076e-08 3.39364e-20 -2.19593e-07 3.37365e-21 6.40528e-08)
(1.0221e-07 6.49887e-08 3.4538e-19 -1.47565e-07 3.8311e-20 4.53554e-08)
(-9.25693e-08 -3.37647e-08 8.53804e-23 1.52867e-07 -2.99037e-22 -6.02982e-08)
(1.43136e-07 5.17128e-08 -7.59518e-22 -2.14832e-07 1.79412e-22 7.16961e-08)
(-1.62352e-08 2.84923e-08 -1.75616e-19 4.88113e-08 -2.08148e-20 -3.25761e-08)
(9.96091e-08 6.07549e-08 5.64176e-21 -1.46633e-07 1.17725e-21 4.70242e-08)
(-8.39661e-08 -3.49506e-08 7.68616e-20 1.46637e-07 9.50336e-21 -6.26705e-08)
(1.37846e-07 5.57718e-08 -1.54177e-19 -2.13123e-07 -1.58505e-20 7.52768e-08)
(2.98855e-08 4.90591e-08 -4.19252e-19 -1.51924e-08 -4.85475e-20 -1.46931e-08)
(7.13494e-08 5.93795e-08 -2.29483e-19 -9.37005e-08 -2.54224e-20 2.23511e-08)
(-1.42973e-08 2.81719e-08 7.75136e-20 4.7217e-08 9.12894e-21 -3.29198e-08)
(9.96051e-08 5.57299e-08 -1.14383e-19 -1.46909e-07 -1.2715e-20 4.73038e-08)
(-7.94144e-08 -3.48022e-08 -3.23855e-19 1.42545e-07 -4.00646e-20 -6.31301e-08)
(1.3792e-07 5.75353e-08 1.48008e-19 -2.13981e-07 1.48771e-20 7.60611e-08)
(5.94312e-08 6.01895e-08 6.19689e-20 -5.33911e-08 7.13147e-21 -6.04007e-09)
(6.91775e-08 6.19027e-08 -1.65701e-20 -7.87269e-08 -1.96779e-21 9.54933e-09)
(3.04716e-08 4.65705e-08 1.61281e-21 -1.55531e-08 -2.9563e-22 -1.49185e-08)
(7.20502e-08 5.44425e-08 7.68301e-22 -9.45513e-08 -1.15869e-22 2.25011e-08)
(-1.25731e-08 2.78112e-08 5.4535e-20 4.57293e-08 6.55779e-21 -3.31563e-08)
(9.95122e-08 5.08401e-08 -5.77898e-21 -1.47123e-07 -8.98143e-22 4.7611e-08)
(-7.51757e-08 -3.46443e-08 1.95195e-22 1.38945e-07 -1.68189e-23 -6.37697e-08)
(1.37724e-07 5.91185e-08 -5.6202e-22 -2.14801e-07 1.33584e-22 7.70767e-08)
(9.5069e-08 6.72715e-08 -1.39452e-19 -9.6394e-08 -1.61978e-20 1.32503e-09)
(8.18308e-08 6.34802e-08 -1.77821e-19 -7.95629e-08 -2.02186e-20 -2.26796e-09)
(7.92502e-08 6.27941e-08 -2.22728e-19 -8.29865e-08 -2.48417e-20 3.73636e-09)
(5.91374e-08 5.58369e-08 -9.05326e-20 -5.29943e-08 -9.83401e-21 -6.1431e-09)
(6.94244e-08 5.70207e-08 1.0061e-20 -7.91538e-08 1.4787e-21 9.72941e-09)
(3.09001e-08 4.401e-08 1.70521e-19 -1.58167e-08 1.96321e-20 -1.50833e-08)
(7.23601e-08 4.96649e-08 3.53624e-20 -9.51028e-08 3.71622e-21 2.27426e-08)
(-1.07618e-08 2.72034e-08 -1.22266e-19 4.42427e-08 -1.42992e-20 -3.34809e-08)
(9.89005e-08 4.64133e-08 1.0973e-19 -1.4712e-07 1.20871e-20 4.82198e-08)
(-7.07625e-08 -3.48336e-08 1.81477e-22 1.35623e-07 -1.13085e-22 -6.48604e-08)
(1.36402e-07 6.05839e-08 2.78031e-22 -2.15181e-07 -6.18798e-23 7.87789e-08)
(1.20992e-07 6.04219e-08 -3.29546e-20 -1.2084e-07 -3.15421e-21 -1.52771e-10)
(1.10596e-07 6.16439e-08 1.63746e-19 -1.11118e-07 1.80378e-20 5.22244e-10)
(9.99469e-08 6.10952e-08 1.90363e-20 -9.9076e-08 1.88847e-21 -8.70956e-10)
(9.33359e-08 6.06385e-08 1.09703e-19 -9.47467e-08 1.20823e-20 1.41085e-09)
(8.04698e-08 5.76667e-08 4.45291e-22 -7.81605e-08 -3.36684e-22 -2.30927e-09)
(7.85428e-08 5.72264e-08 9.64236e-22 -8.23974e-08 -6.31037e-23 3.85455e-09)
(5.86273e-08 5.14842e-08 7.58643e-20 -5.23921e-08 8.51413e-21 -6.23526e-09)
(6.94023e-08 5.21825e-08 -9.58466e-21 -7.92874e-08 -1.18421e-21 9.88509e-09)
(3.12364e-08 4.1351e-08 -7.9247e-22 -1.59988e-08 2.03974e-22 -1.52376e-08)
(7.24707e-08 4.50342e-08 -1.61983e-22 -9.54523e-08 5.44595e-23 2.29816e-08)
(-9.01478e-09 2.63678e-08 3.50998e-22 4.28464e-08 -6.85453e-23 -3.38316e-08)
(9.82177e-08 4.23032e-08 -5.96617e-22 -1.47112e-07 1.57998e-22 4.8894e-08)
(-6.68493e-08 -3.5208e-08 2.79626e-19 1.32884e-07 3.49042e-20 -6.60347e-08)
(1.34996e-07 6.14709e-08 7.50858e-20 -2.15539e-07 7.63314e-21 8.05437e-08)
(1.68219e-07 3.34076e-08 -9.0633e-20 -1.68211e-07 -9.34993e-21 -8.02481e-12)
(1.54588e-07 4.05691e-08 6.70792e-20 -1.54591e-07 7.46113e-21 2.1627e-12)
(1.41391e-07 4.58673e-08 3.38681e-20 -1.41368e-07 3.36555e-21 -2.2641e-11)
(1.28823e-07 4.94552e-08 -1.25779e-20 -1.2887e-07 -1.48988e-21 4.72841e-11)
(1.16586e-07 5.21362e-08 1.8204e-22 -1.16413e-07 -2.1575e-23 -1.73231e-10)
(1.07136e-07 5.39834e-08 -6.18753e-22 -1.07672e-07 1.16206e-22 5.35305e-10)
(9.71145e-08 5.41169e-08 -6.97182e-23 -9.6206e-08 -2.83054e-22 -9.08558e-10)
(9.1217e-08 5.41806e-08 -1.1956e-19 -9.26674e-08 -1.32312e-20 1.45037e-09)
(7.88009e-08 5.19735e-08 -5.71172e-20 -7.64271e-08 -5.96845e-21 -2.37384e-09)
(7.75295e-08 5.17399e-08 7.15461e-20 -8.14578e-08 8.05526e-21 3.92823e-09)
(5.79218e-08 4.71483e-08 -7.2213e-20 -5.15897e-08 -8.26868e-21 -6.33206e-09)
(6.91485e-08 4.74002e-08 2.89897e-23 -7.91445e-08 -7.41393e-23 9.99595e-09)
(3.14578e-08 3.86173e-08 -1.54216e-19 -1.6079e-08 -1.77897e-20 -1.53788e-08)
(7.24461e-08 4.05254e-08 -3.19509e-20 -9.56183e-08 -3.37575e-21 2.31723e-08)
(-7.45824e-09 2.53669e-08 6.32656e-20 4.16132e-08 7.40974e-21 -3.4155e-08)
(9.76336e-08 3.83695e-08 -9.95011e-20 -1.47147e-07 -1.09858e-20 4.95138e-08)
(-6.3625e-08 -3.56387e-08 -2.36008e-19 1.3076e-07 -2.93373e-20 -6.71352e-08)
(1.34055e-07 6.16934e-08 -9.59624e-20 -2.16245e-07 -9.53813e-21 8.219e-08)
(2.13478e-07 -3.87808e-08 -8.44697e-20 -2.13454e-07 -8.56016e-21 -2.44715e-11)
(2.03146e-07 -2.3197e-08 -1.27383e-20 -2.03121e-07 -9.68476e-22 -2.4871e-11)
(1.9216e-07 -9.15743e-09 -1.3212e-20 -1.92133e-07 -1.33472e-21 -2.62501e-11)
(1.80706e-07 3.33773e-09 -2.05104e-20 -1.80682e-07 -1.98726e-21 -2.47478e-11)
(1.68959e-07 1.4276e-08 -4.02211e-21 -1.68937e-07 -1.46428e-22 -2.24598e-11)
(1.57101e-07 2.35745e-08 5.73315e-20 -1.57076e-07 6.13999e-21 -2.50789e-11)
(1.45337e-07 3.11591e-08 6.59896e-20 -1.45327e-07 6.89384e-21 -1.00574e-11)
(1.33773e-07 3.69828e-08 -1.36739e-22 -1.33731e-07 -8.95236e-23 -4.23172e-11)
(1.22663e-07 4.11554e-08 2.85212e-20 -1.22704e-07 3.13972e-21 4.16965e-11)
(1.11652e-07 4.44e-08 1.83621e-20 -1.11454e-07 1.91366e-21 -1.98628e-10)
(1.03182e-07 4.67462e-08 -4.25134e-23 -1.03722e-07 -6.5429e-23 5.40206e-10)
(9.38345e-08 4.74745e-08 -4.58187e-24 -9.28892e-08 2.2511e-23 -9.4528e-10)
(8.86717e-08 4.79807e-08 7.04126e-22 -9.0149e-08 -5.69938e-24 1.47732e-09)
(7.6781e-08 4.6471e-08 5.48417e-20 -7.43493e-08 5.8884e-21 -2.43173e-09)
(7.617e-08 4.63986e-08 -6.81645e-20 -8.01518e-08 -7.62346e-21 3.98184e-09)
(5.69751e-08 4.28804e-08 6.87376e-20 -5.05625e-08 7.8398e-21 -6.41257e-09)
(6.86275e-08 4.27147e-08 2.2897e-24 -7.87035e-08 8.14465e-23 1.0076e-08)
(3.15206e-08 3.58477e-08 1.47343e-19 -1.60304e-08 1.68475e-20 -1.54902e-08)
(7.22493e-08 3.61476e-08 3.07989e-20 -9.55713e-08 3.14945e-21 2.3322e-08)
(-6.1277e-09 2.42357e-08 -6.01947e-20 4.05705e-08 -7.13908e-21 -3.44428e-08)
(9.70792e-08 3.45877e-08 2.46826e-22 -1.47171e-07 6.65618e-23 5.00921e-08)
(-6.09608e-08 -3.61286e-08 4.01475e-19 1.29137e-07 4.97558e-20 -6.81758e-08)
(1.33356e-07 6.12907e-08 4.13129e-22 -2.1704e-07 -1.71377e-22 8.36839e-08)
(2.13812e-07 -1.72825e-07 -1.85681e-20 -2.13847e-07 -1.82407e-21 3.50766e-11)
(2.14601e-07 -1.52862e-07 -4.23951e-20 -2.14624e-07 -3.904e-21 2.33927e-11)
(2.13924e-07 -1.33172e-07 1.96299e-20 -2.13938e-07 1.9041e-21 1.45621e-11)
(2.11816e-07 -1.13933e-07 -3.69962e-20 -2.1182e-07 -3.73414e-21 4.72723e-12)
(2.08347e-07 -9.53299e-08 -1.2366e-20 -2.08345e-07 -8.98373e-22 -1.96156e-12)
(2.03604e-07 -7.75269e-08 4.53952e-20 -2.03596e-07 4.56574e-21 -8.07207e-12)
(1.97699e-07 -6.06743e-08 4.72891e-21 -1.97686e-07 3.23871e-22 -1.28854e-11)
(1.90759e-07 -4.49018e-08 4.53988e-22 -1.90742e-07 -1.81027e-22 -1.66984e-11)
(1.82924e-07 -3.0309e-08 -1.39914e-20 -1.82905e-07 -1.48955e-21 -1.90063e-11)
(1.74342e-07 -1.69624e-08 -1.02757e-20 -1.74322e-07 -1.01291e-21 -2.04534e-11)
(1.65164e-07 -4.90065e-09 1.17491e-22 -1.65142e-07 1.14752e-23 -2.13013e-11)
(1.55544e-07 5.84467e-09 1.43732e-23 -1.55525e-07 -1.59128e-23 -1.90604e-11)
(1.4564e-07 1.51569e-08 -3.33846e-22 -1.45615e-07 2.96392e-23 -2.49447e-11)
(1.35658e-07 2.2932e-08 -1.06019e-20 -1.35652e-07 -1.00694e-21 -6.49126e-12)
(1.25683e-07 2.90743e-08 9.14218e-23 -1.25636e-07 -5.36164e-23 -4.69955e-11)
(1.16012e-07 3.36467e-08 -2.73497e-20 -1.16061e-07 -2.93295e-21 4.93759e-11)
(1.06237e-07 3.72955e-08 -1.75518e-20 -1.06027e-07 -1.83762e-21 -2.09862e-10)
(9.87617e-08 4.00138e-08 -4.05063e-23 -9.93148e-08 3.9864e-23 5.53124e-10)
(9.01266e-08 4.12424e-08 -4.38559e-24 -8.91607e-08 2.89559e-22 -9.65908e-10)
(8.57101e-08 4.21114e-08 1.07928e-19 -8.7215e-08 1.20221e-20 1.50488e-09)
(7.44103e-08 4.12226e-08 2.82637e-20 -7.19405e-08 3.23774e-21 -2.46975e-09)
(7.44596e-08 4.12619e-08 1.11235e-19 -7.84855e-08 1.2241e-20 4.02589e-09)
(5.57766e-08 3.87292e-08 -6.55353e-20 -4.93119e-08 -7.5345e-21 -6.46467e-09)
(6.78287e-08 3.81675e-08 3.83053e-23 -7.79623e-08 -2.30328e-23 1.01335e-08)
(3.14078e-08 3.30747e-08 -1.00437e-19 -1.58411e-08 -1.12938e-20 -1.55667e-08)
(7.18639e-08 3.19191e-08 8.46902e-20 -9.53034e-08 9.66398e-21 2.34395e-08)
(-5.01284e-09 2.29942e-08 1.46365e-19 3.97069e-08 1.70335e-20 -3.4694e-08)
(9.65035e-08 3.09528e-08 -8.76433e-24 -1.47156e-07 -1.09945e-22 5.06527e-08)
(-5.88537e-08 -3.67107e-08 -2.60962e-22 1.281e-07 5.92072e-23 -6.9246e-08)
(1.32838e-07 6.03707e-08 2.15837e-20 -2.17988e-07 2.19591e-21 8.51508e-08)
(8.04198e-08 -3.20337e-07 1.57346e-20 -8.04751e-08 1.42347e-21 5.52967e-11)
(9.19238e-08 -3.11627e-07 5.9515e-22 -9.19941e-08 6.00329e-23 7.02781e-11)
(1.03186e-07 -3.0202e-07 9.76756e-22 -1.03267e-07 1.19022e-22 8.07829e-11)
(1.14104e-07 -2.91488e-07 4.67578e-20 -1.14191e-07 4.31196e-21 8.68158e-11)
(1.24573e-07 -2.80016e-07 2.10219e-20 -1.24664e-07 1.96251e-21 9.1182e-11)
(1.3448e-07 -2.67621e-07 3.31068e-20 -1.3457e-07 3.04492e-21 9.03722e-11)
(1.43718e-07 -2.54338e-07 1.03516e-20 -1.43803e-07 9.50524e-22 8.48939e-11)
(1.52189e-07 -2.40217e-07 1.8868e-20 -1.52274e-07 1.7088e-21 8.4557e-11)
(1.59777e-07 -2.25351e-07 -1.08786e-20 -1.5985e-07 -1.25831e-21 7.32098e-11)
(1.66404e-07 -2.09827e-07 -6.5265e-20 -1.66472e-07 -6.06892e-21 6.76924e-11)
(1.71978e-07 -1.93762e-07 1.2523e-20 -1.72037e-07 1.26021e-21 5.93961e-11)
(1.76428e-07 -1.77283e-07 -1.71949e-20 -1.76477e-07 -1.70154e-21 4.95779e-11)
(1.79703e-07 -1.60532e-07 8.30118e-23 -1.79745e-07 3.02018e-23 4.13135e-11)
(1.81766e-07 -1.4366e-07 1.16189e-22 -1.81798e-07 -6.22113e-23 3.18166e-11)
(1.82603e-07 -1.26825e-07 -2.40256e-23 -1.82629e-07 9.76122e-24 2.56094e-11)
(1.82212e-07 -1.10184e-07 1.16706e-22 -1.82228e-07 -2.72615e-23 1.64874e-11)
(1.80624e-07 -9.38956e-08 4.09032e-23 -1.80634e-07 -3.3067e-23 1.01582e-11)
(1.77884e-07 -7.81146e-08 -1.5378e-22 -1.77889e-07 -4.87192e-23 4.58154e-12)
(1.74061e-07 -6.29901e-08 -2.36936e-20 -1.7406e-07 -2.1999e-21 -1.31117e-12)
(1.69242e-07 -4.86472e-08 4.79185e-20 -1.69237e-07 4.96366e-21 -4.82137e-12)
(1.63526e-07 -3.52064e-08 -3.97815e-21 -1.63517e-07 -5.75877e-22 -8.4998e-12)
(1.57027e-07 -2.27414e-08 9.90048e-21 -1.57016e-07 1.03193e-21 -1.06948e-11)
(1.49862e-07 -1.13163e-08 4.1233e-23 -1.49849e-07 -4.77631e-23 -1.30005e-11)
(1.42161e-07 -9.78045e-10 -6.333e-22 -1.4215e-07 -2.12981e-22 -1.07566e-11)
(1.34054e-07 8.13629e-09 -5.154e-20 -1.34034e-07 -5.60059e-21 -1.96133e-11)
(1.25741e-07 1.58984e-08 -5.03146e-20 -1.25743e-07 -5.12132e-21 2.08907e-12)
(1.17278e-07 2.21725e-08 3.64609e-20 -1.17231e-07 3.98484e-21 -4.68876e-11)
(1.08999e-07 2.69724e-08 -2.89121e-20 -1.0906e-07 -3.19627e-21 6.07327e-11)
(1.00444e-07 3.08753e-08 1.66963e-20 -1.00229e-07 1.85619e-21 -2.14915e-10)
(9.39611e-08 3.38411e-08 -1.27174e-22 -9.45271e-08 -3.20901e-23 5.66074e-10)
(8.60598e-08 3.5474e-08 -6.16974e-23 -8.50826e-08 -7.43097e-23 -9.77153e-10)
(8.23871e-08 3.66241e-08 -3.89226e-20 -8.39139e-08 -4.36232e-21 1.52682e-09)
(7.17296e-08 3.62769e-08 -7.65864e-20 -6.92369e-08 -8.62262e-21 -2.49268e-09)
(7.24291e-08 3.63772e-08 -1.06113e-19 -7.64851e-08 -1.15415e-20 4.05605e-09)
(5.43412e-08 3.47334e-08 2.84795e-20 -4.7848e-08 3.35004e-21 -6.49319e-09)
(6.67692e-08 3.37923e-08 1.55564e-20 -7.69343e-08 1.84462e-21 1.0165e-08)
(3.11256e-08 3.03293e-08 7.67449e-20 -1.55217e-08 8.72415e-21 -1.56038e-08)
(7.13111e-08 2.78479e-08 5.28052e-20 -9.48361e-08 5.88931e-21 2.3525e-08)
(-4.10837e-09 2.16621e-08 -1.90611e-22 3.90075e-08 -2.42668e-23 -3.48992e-08)
(9.59295e-08 2.74325e-08 -8.55328e-24 -1.47112e-07 -5.47214e-24 5.11824e-08)
(-5.72139e-08 -3.73435e-08 -1.03282e-22 1.27463e-07 -2.76759e-23 -7.0249e-08)
(1.32549e-07 5.89469e-08 -2.06137e-20 -2.191e-07 -2.05964e-21 8.65514e-08)
(-9.69552e-08 -6.08634e-08 -1.16976e-21 8.86992e-08 -4.86879e-23 8.25604e-09)
(-1.00213e-07 -2.49501e-08 1.80518e-22 9.29966e-08 -3.73779e-23 7.21683e-09)
(-9.9827e-08 -9.73152e-08 6.32465e-22 1.00825e-07 7.91646e-23 -9.98351e-10)
(-7.06999e-08 -4.00866e-07 -7.10218e-22 7.2629e-08 -2.55812e-23 -1.92906e-09)
(-6.1285e-07 -1.20572e-05 -1.23094e-20 6.16438e-07 -2.15423e-21 -3.58716e-09)
(-4.39366e-06 -2.48123e-05 9.43382e-20 4.36085e-06 6.43499e-21 3.28104e-08)
(-0.000545868 0.00200912 1.90788e-18 0.000544869 2.87012e-19 9.99046e-07)
(-0.00451351 0.0259562 -6.69174e-18 0.0045169 -5.0812e-19 -3.385e-06)
(-0.0163153 0.100545 3.84994e-18 0.0163254 -2.5329e-19 -1.0148e-05)
(-0.0366403 0.222391 3.09968e-17 0.0366395 2.82715e-18 8.2903e-07)
(-0.0607036 0.352056 7.15798e-18 0.0606928 1.06124e-18 1.07537e-05)
(-0.0810711 0.442222 2.4985e-17 0.0810621 2.91909e-18 8.97034e-06)
(-0.0905275 0.456554 -3.96155e-17 0.0905177 -1.59528e-18 9.74697e-06)
(-0.0840494 0.378227 -1.26493e-16 0.0840393 -1.28584e-17 1.01169e-05)
(-0.0605262 0.215345 4.05446e-17 0.0605236 -1.88784e-18 2.54085e-06)
(-0.023736 0.00121923 2.60701e-16 0.0237375 2.40361e-17 -1.55796e-06)
(0.0183299 -0.214454 3.57522e-17 -0.0183376 7.50295e-18 7.76192e-06)
(0.0546613 -0.373388 -5.22384e-17 -0.0546652 -4.66496e-18 3.8983e-06)
(0.0725524 -0.42168 7.84033e-18 -0.0725383 -1.05435e-18 -1.40977e-05)
(0.0648711 -0.343973 7.54658e-17 -0.0648495 7.49069e-18 -2.15768e-05)
(0.0384858 -0.191794 -2.87681e-17 -0.0384762 -3.16255e-18 -9.59204e-06)
(0.0130198 -0.0625021 5.35028e-17 -0.0130205 5.62266e-18 6.5089e-07)
(0.00169705 -0.00835689 -2.60039e-17 -0.00169705 -2.47553e-18 9.2472e-10)
(3.34376e-06 -5.13131e-05 9.91766e-19 -3.35984e-06 7.36323e-20 1.6076e-08)
(-4.44268e-06 4.97385e-06 1.95956e-19 4.42563e-06 2.07416e-20 1.70504e-08)
(-8.68952e-08 -9.62073e-09 1.02874e-21 8.67092e-08 1.35897e-22 1.85945e-10)
(-2.66514e-08 -2.06204e-07 1.60204e-21 2.6751e-08 6.16778e-23 -9.96015e-11)
(-2.40212e-09 -2.5821e-07 1.21746e-20 2.48851e-09 1.13493e-21 -8.63896e-11)
(-2.0613e-09 -2.33336e-07 -7.8808e-22 2.06204e-09 -5.06994e-25 -7.39562e-13)
(-4.27958e-09 -2.15077e-07 3.93228e-21 4.25908e-09 4.03004e-22 2.05055e-11)
(-2.69756e-09 -3.16272e-07 -1.362e-20 2.67707e-09 -1.11688e-21 2.04831e-11)
(5.99905e-09 -3.44271e-07 -2.18874e-20 -6.00612e-09 -2.10092e-21 7.06507e-12)
(1.43927e-08 -3.08492e-07 1.87345e-21 -1.44024e-08 1.08912e-22 9.72986e-12)
(2.25622e-08 -2.92289e-07 -8.39568e-21 -2.2573e-08 -8.14584e-22 1.08178e-11)
(3.177e-08 -2.89075e-07 1.7869e-20 -3.17837e-08 1.63393e-21 1.37186e-11)
(4.13979e-08 -2.85699e-07 -5.58048e-21 -4.14157e-08 -4.359e-22 1.77069e-11)
(5.09766e-08 -2.80182e-07 -1.55945e-20 -5.0999e-08 -1.44257e-21 2.24414e-11)
(6.05523e-08 -2.7398e-07 -1.39607e-20 -6.05783e-08 -1.33576e-21 2.59698e-11)
(7.01478e-08 -2.67394e-07 1.28895e-20 -7.01819e-08 1.19141e-21 3.41026e-11)
(7.96521e-08 -2.60151e-07 1.66387e-25 -7.96912e-08 -4.60074e-24 3.91659e-11)
(8.89703e-08 -2.52131e-07 -2.48309e-23 -8.90156e-08 3.40724e-23 4.53762e-11)
(9.80177e-08 -2.43324e-07 -1.55271e-23 -9.80672e-08 2.41347e-23 4.94809e-11)
(1.06713e-07 -2.33723e-07 -2.2062e-23 -1.06769e-07 1.66706e-23 5.5428e-11)
(1.14958e-07 -2.23335e-07 -1.17168e-23 -1.15013e-07 6.75236e-24 5.48328e-11)
(1.22671e-07 -2.1218e-07 -6.40857e-22 -1.2273e-07 -7.28631e-23 5.84683e-11)
(1.29757e-07 -2.00312e-07 -1.76038e-20 -1.29813e-07 -1.68097e-21 5.59434e-11)
(1.36138e-07 -1.87801e-07 1.1224e-22 -1.36191e-07 1.07934e-22 5.35389e-11)
(1.41734e-07 -1.74727e-07 4.96443e-20 -1.41785e-07 4.7869e-21 5.07314e-11)
(1.46471e-07 -1.61181e-07 6.17815e-23 -1.46517e-07 -1.00967e-22 4.5733e-11)
(1.50289e-07 -1.47268e-07 1.25833e-20 -1.5033e-07 1.2068e-21 4.08192e-11)
(1.53139e-07 -1.33113e-07 -3.20846e-21 -1.53173e-07 -3.20939e-22 3.40853e-11)
(1.54988e-07 -1.1884e-07 2.14781e-20 -1.55017e-07 2.15399e-21 2.92201e-11)
(1.55812e-07 -1.04577e-07 1.5634e-23 -1.55835e-07 -7.04829e-23 2.24105e-11)
(1.55614e-07 -9.04622e-08 5.28382e-24 -1.55631e-07 -2.28681e-23 1.68959e-11)
(1.54408e-07 -7.66318e-08 1.7267e-23 -1.5442e-07 8.68316e-23 1.22982e-11)
(1.52228e-07 -6.32226e-08 2.26613e-20 -1.52234e-07 2.10467e-21 6.59527e-12)
(1.49127e-07 -5.03564e-08 -5.0257e-20 -1.49129e-07 -5.12487e-21 2.37364e-12)
(1.45172e-07 -3.81504e-08 1.2702e-20 -1.45172e-07 1.46776e-21 -4.95281e-13)
(1.40442e-07 -2.66915e-08 -7.12265e-23 -1.40438e-07 -1.33464e-23 -3.44559e-12)
(1.35023e-07 -1.60483e-08 1.84438e-22 -1.35016e-07 -1.30284e-22 -7.16039e-12)
(1.29022e-07 -6.28171e-09 -2.83924e-20 -1.29018e-07 -3.00019e-21 -4.28554e-12)
(1.22536e-07 2.46347e-09 3.05115e-22 -1.2252e-07 4.19621e-23 -1.60991e-11)
(1.15756e-07 1.00423e-08 9.49555e-21 -1.15765e-07 8.90315e-22 8.89745e-12)
(1.08706e-07 1.62831e-08 -2.37065e-22 -1.08659e-07 3.15971e-23 -4.75768e-11)
(1.0175e-07 2.11582e-08 2.47432e-22 -1.0182e-07 -7.61879e-23 7.03516e-11)
(9.43772e-08 2.51748e-08 -1.59709e-20 -9.41576e-08 -1.81174e-21 -2.19622e-10)
(8.88642e-08 2.82711e-08 -3.66532e-20 -8.94381e-08 -4.00817e-21 5.73988e-10)
(8.17056e-08 3.02102e-08 -2.39193e-20 -8.07218e-08 -2.4971e-21 -9.83787e-10)
(7.87607e-08 3.15641e-08 1.19434e-20 -8.03006e-08 1.47882e-21 1.53996e-09)
(6.87812e-08 3.16741e-08 5.69099e-20 -6.62759e-08 6.29627e-21 -2.50539e-09)
(7.0113e-08 3.17858e-08 5.11005e-20 -7.41802e-08 5.44799e-21 4.06719e-09)
(5.26927e-08 3.09312e-08 -7.21104e-23 -4.61948e-08 -1.82967e-22 -6.49785e-09)
(6.54645e-08 2.96179e-08 -6.78602e-20 -7.56289e-08 -7.58929e-21 1.01644e-08)
(3.06631e-08 2.76459e-08 -1.46166e-22 -1.50563e-08 6.89e-23 -1.56067e-08)
(7.0597e-08 2.39342e-08 -5.10058e-20 -9.41528e-08 -5.52543e-21 2.35558e-08)
(-3.44395e-09 2.02758e-08 3.89157e-20 3.84999e-08 4.61494e-21 -3.5056e-08)
(9.538e-08 2.39727e-08 -2.08493e-22 -1.47031e-07 -2.11983e-23 5.16512e-08)
(-5.60841e-08 -3.79846e-08 -1.60233e-19 1.27296e-07 -1.98382e-20 -7.12118e-08)
(1.32583e-07 5.70311e-08 1.96362e-20 -2.20406e-07 2.00187e-21 8.78229e-08)
(-1.2627e-07 -1.37427e-07 -2.58134e-24 1.153e-07 -8.26434e-23 1.09696e-08)
(-8.01032e-08 -5.81293e-08 1.82637e-21 7.41077e-08 1.54421e-22 5.99551e-09)
(-8.95046e-08 -1.97577e-08 6.85251e-22 9.02303e-08 1.14948e-22 -7.2569e-10)
(-8.57809e-08 -4.75478e-08 -5.6342e-22 8.73058e-08 -2.49131e-23 -1.52484e-09)
(-6.10143e-08 -2.65845e-07 -5.75815e-22 6.10876e-08 -6.44625e-23 -7.32911e-11)
(-2.57393e-08 -6.40249e-07 2.81834e-24 2.5606e-08 -8.86078e-24 1.33293e-10)
(-7.30093e-06 -0.00015198 2.21592e-22 7.29188e-06 -5.67852e-21 9.05154e-09)
(-0.000152742 0.000221396 1.0409e-18 0.000152343 1.10248e-19 3.99072e-07)
(-0.00201619 0.0103751 -3.32711e-18 0.00201607 -3.48893e-19 1.1874e-07)
(-0.00959496 0.0569856 1.91627e-17 0.00960199 1.75618e-18 -7.03304e-06)
(-0.0255866 0.153197 -1.00623e-17 0.0255925 -4.40349e-19 -5.88259e-06)
(-0.0473993 0.274133 2.31371e-19 0.0473927 -7.99457e-19 6.57734e-06)
(-0.0683692 0.374769 5.58528e-17 0.068359 5.18527e-18 1.02109e-05)
(-0.0810368 0.414632 -1.98553e-18 0.0810275 1.34947e-18 9.31326e-06)
(-0.0796125 0.370337 -6.30277e-17 0.0796037 -5.7117e-18 8.85544e-06)
(-0.0618269 0.241984 -1.13222e-18 0.0618237 1.59221e-19 3.24579e-06)
(-0.0301938 0.0552437 -7.20863e-17 0.0301947 -8.1197e-18 -9.45446e-07)
(0.00847107 -0.145874 8.03954e-17 -0.00847705 5.89952e-18 5.98437e-06)
(0.0442028 -0.307629 5.32733e-17 -0.0442076 5.58932e-18 4.7387e-06)
(0.0648603 -0.37605 3.58117e-17 -0.0648505 2.67356e-18 -9.85112e-06)
(0.0620405 -0.326565 1.00342e-16 -0.0620226 1.18037e-17 -1.78875e-05)
(0.0396477 -0.195498 -1.39915e-16 -0.0396379 -1.37832e-17 -9.79054e-06)
(0.0149478 -0.0705257 7.56421e-17 -0.0149467 7.16374e-18 -1.03509e-06)
(0.00237593 -0.0111859 -3.06708e-17 -0.00237571 -2.61248e-18 -2.15451e-07)
(2.92296e-05 -0.00020982 2.44545e-21 -2.92654e-05 -2.58434e-20 3.58217e-08)
(-1.06211e-05 1.42694e-05 2.05977e-22 1.05807e-05 2.47282e-21 4.0401e-08)
(-8.85677e-08 5.88749e-08 -2.91976e-21 8.83516e-08 -2.35017e-22 2.16145e-10)
(-2.89962e-08 -1.45178e-07 -4.87327e-21 2.9058e-08 -4.82021e-22 -6.18042e-11)
(-5.64106e-10 -2.18375e-07 6.08629e-22 6.32283e-10 3.05427e-23 -6.81773e-11)
(1.36299e-09 -2.02233e-07 -1.2226e-21 -1.37129e-09 -1.15429e-22 8.30246e-12)
(-1.35428e-09 -1.76556e-07 5.18556e-22 1.31939e-09 3.63389e-24 3.48884e-11)
(2.42178e-10 -2.46384e-07 9.78421e-21 -2.87793e-10 9.24692e-22 4.56145e-11)
(8.31516e-09 -2.98088e-07 3.30656e-24 -8.35764e-09 -1.89669e-24 4.24753e-11)
(1.53943e-08 -2.65351e-07 1.4988e-20 -1.54341e-08 1.46132e-21 3.97809e-11)
(2.16562e-08 -2.45076e-07 -1.30707e-20 -2.16954e-08 -1.19148e-21 3.92144e-11)
(2.90557e-08 -2.40722e-07 3.43884e-21 -2.90989e-08 2.86331e-22 4.32503e-11)
(3.7095e-08 -2.38357e-07 -4.02548e-24 -3.7139e-08 -2.89731e-23 4.40106e-11)
(4.51146e-08 -2.34024e-07 1.72018e-20 -4.51548e-08 1.63595e-21 4.0227e-11)
(5.30992e-08 -2.28866e-07 -4.71265e-21 -5.31433e-08 -4.17142e-22 4.40463e-11)
(6.10926e-08 -2.23423e-07 6.09421e-21 -6.11338e-08 5.7138e-22 4.11521e-11)
(6.90234e-08 -2.17418e-07 3.19753e-21 -6.90656e-08 3.40012e-22 4.211e-11)
(7.6788e-08 -2.10682e-07 -4.69892e-24 -7.68295e-08 2.9888e-23 4.14552e-11)
(8.43275e-08 -2.03237e-07 1.7368e-20 -8.43684e-08 1.69244e-21 4.09354e-11)
(9.1583e-08 -1.95114e-07 -3.26494e-24 -9.16233e-08 -3.52352e-24 4.0334e-11)
(9.84825e-08 -1.8632e-07 5.81993e-22 -9.85223e-08 9.98406e-23 3.9771e-11)
(1.04948e-07 -1.76871e-07 1.26326e-20 -1.04986e-07 1.21858e-21 3.83551e-11)
(1.10907e-07 -1.66815e-07 2.02446e-23 -1.10944e-07 -8.06465e-23 3.6628e-11)
(1.16291e-07 -1.5621e-07 -8.20887e-23 -1.16325e-07 1.00154e-22 3.38621e-11)
(1.21033e-07 -1.45118e-07 2.64827e-20 -1.21064e-07 2.60131e-21 3.11518e-11)
(1.2507e-07 -1.3362e-07 -1.19507e-20 -1.25097e-07 -1.25059e-21 2.7625e-11)
(1.2835e-07 -1.2181e-07 2.54966e-23 -1.28374e-07 -7.11816e-23 2.3764e-11)
(1.30831e-07 -1.09788e-07 -2.05364e-20 -1.30851e-07 -2.01705e-21 2.03092e-11)
(1.32476e-07 -9.76571e-08 1.32613e-23 -1.32491e-07 5.852e-23 1.49422e-11)
(1.33269e-07 -8.55309e-08 4.51315e-24 -1.3328e-07 4.29634e-23 1.11389e-11)
(1.33203e-07 -7.35266e-08 2.0989e-20 -1.3321e-07 2.16211e-21 7.21077e-12)
(1.32288e-07 -6.17622e-08 2.74695e-21 -1.32291e-07 2.77691e-22 3.52304e-12)
(1.30548e-07 -5.03557e-08 4.39304e-21 -1.30547e-07 3.58726e-22 -5.50609e-13)
(1.28024e-07 -3.94108e-08 -8.39356e-21 -1.28021e-07 -9.64115e-22 -2.97515e-12)
(1.24767e-07 -2.90211e-08 -2.27011e-20 -1.24762e-07 -2.13397e-21 -5.17515e-12)
(1.20835e-07 -1.92516e-08 6.76042e-20 -1.20826e-07 7.27031e-21 -8.93103e-12)
(1.1631e-07 -1.01759e-08 2.76589e-20 -1.16305e-07 2.83534e-21 -4.981e-12)
(1.11259e-07 -1.92862e-09 4.67722e-20 -1.1124e-07 4.98921e-21 -1.90425e-11)
(1.05862e-07 5.32878e-09 5.41577e-20 -1.05872e-07 5.59111e-21 1.02983e-11)
(1.00108e-07 1.13967e-08 -4.19555e-20 -1.00055e-07 -4.50346e-21 -5.295e-11)
(9.43866e-08 1.62161e-08 5.80531e-20 -9.4461e-08 6.35032e-21 7.44241e-11)
(8.81377e-08 2.02215e-08 -1.50384e-20 -8.79123e-08 -1.79854e-21 -2.25342e-10)
(8.35573e-08 2.33387e-08 -3.09113e-23 -8.4132e-08 7.42615e-23 5.74684e-10)
(7.71354e-08 2.54868e-08 1.25787e-20 -7.61488e-08 1.32624e-21 -9.86606e-10)
(7.48922e-08 2.6974e-08 -1.05304e-20 -7.64321e-08 -1.09313e-21 1.53987e-09)
(6.56125e-08 2.74584e-08 4.4701e-20 -6.31074e-08 5.08287e-21 -2.50509e-09)
(6.7556e-08 2.75241e-08 3.40197e-20 -7.16145e-08 3.75439e-21 4.05846e-09)
(5.08469e-08 2.73634e-08 -5.69199e-24 -4.43714e-08 5.21551e-24 -6.47546e-09)
(6.39513e-08 2.56655e-08 4.36519e-20 -7.40699e-08 4.85345e-21 1.01187e-08)
(3.00086e-08 2.50754e-08 9.79823e-24 -1.44592e-08 -2.28433e-22 -1.55494e-08)
(6.97811e-08 2.01622e-08 -1.47621e-19 -9.3299e-08 -1.66043e-20 2.35179e-08)
(-3.07379e-09 1.88921e-08 -3.7187e-20 3.81846e-08 -4.27622e-21 -3.51108e-08)
(9.49545e-08 2.05256e-08 -9.52455e-20 -1.46934e-07 -1.03344e-20 5.19794e-08)
(-5.5428e-08 -3.85237e-08 1.61421e-19 1.27415e-07 2.00059e-20 -7.19872e-08)
(1.33146e-07 5.46581e-08 -1.8742e-20 -2.22036e-07 -1.88471e-21 8.889e-08)
(-1.13358e-07 -1.45497e-07 -7.37017e-25 1.03457e-07 2.70367e-23 9.90173e-09)
(-1.04064e-07 -1.23758e-07 3.60348e-24 9.59057e-08 2.36242e-23 8.158e-09)
(-7.17321e-08 -5.66517e-08 -6.58059e-22 7.23378e-08 -8.70343e-23 -6.05683e-10)
(-7.48924e-08 -1.95059e-08 9.51983e-22 7.62126e-08 7.37478e-23 -1.32025e-09)
(-7.23208e-08 -1.62113e-08 1.75734e-22 7.23633e-08 5.07592e-23 -4.24916e-11)
(-5.57177e-08 -1.55493e-07 -7.83481e-22 5.55068e-08 -7.75823e-23 2.10818e-10)
(-2.24391e-08 -4.79813e-07 5.02053e-22 2.25891e-08 3.41499e-23 -1.49974e-10)
(-2.83521e-07 -4.70123e-05 2.28833e-22 2.98027e-07 4.5796e-22 -1.4506e-08)
(-1.86355e-05 -7.39316e-05 -2.50156e-22 1.8569e-05 6.33909e-22 6.64509e-08)
(-0.000715163 0.00299396 1.95618e-20 0.000714372 6.964e-21 7.90857e-07)
(-0.00498949 0.0280945 -3.26134e-20 0.00499284 -1.21017e-19 -3.35552e-06)
(-0.0165841 0.0974833 1.44226e-17 0.016593 1.41711e-18 -8.88306e-06)
(-0.0353505 0.203531 2.23224e-19 0.0353503 2.47086e-19 2.62383e-07)
(-0.0560373 0.30827 -1.31949e-18 0.0560286 -6.3479e-19 8.73208e-06)
(-0.0711949 0.368628 4.07139e-17 0.0711873 4.11068e-18 7.62975e-06)
(-0.0743046 0.354836 2.96976e-18 0.0742977 6.50109e-19 6.98046e-06)
(-0.061983 0.259251 3.08584e-17 0.061979 2.18019e-18 3.99257e-06)
(-0.0354027 0.0995851 5.81756e-17 0.0354017 6.00937e-18 9.88053e-07)
(-0.000255291 -0.0857844 3.12997e-20 0.000248904 1.16154e-18 6.3867e-06)
(0.0344103 -0.247193 -3.84692e-17 -0.0344192 -3.02261e-18 8.917e-06)
(0.05713 -0.331651 -4.40721e-17 -0.05713 -6.58744e-18 9.13435e-08)
(0.0586104 -0.307355 1.74384e-16 -0.0586005 1.79187e-17 -9.87644e-06)
(0.0402022 -0.197178 -1.34196e-16 -0.0401956 -1.16775e-17 -6.59477e-06)
(0.0166334 -0.0778846 4.93383e-19 -0.0166336 -4.71771e-19 1.61747e-07)
(0.00310216 -0.0143353 -8.38577e-18 -0.00310223 -7.78821e-19 7.25229e-08)
(8.64025e-05 -0.000500616 -1.39234e-21 -8.64345e-05 -5.84788e-21 3.19666e-08)
(-1.60867e-05 2.1306e-05 -1.32655e-19 1.60399e-05 -1.28426e-20 4.67929e-08)
(-8.71832e-08 1.05216e-07 -4.06347e-24 8.70976e-08 1.62882e-23 8.55969e-11)
(-2.81641e-08 -9.37818e-08 -2.75593e-21 2.83536e-08 -2.63781e-22 -1.89436e-10)
(3.66034e-09 -1.81482e-07 -1.97435e-24 -3.47378e-09 -1.77316e-23 -1.86568e-10)
(5.62407e-09 -1.72545e-07 6.79139e-25 -5.55676e-09 -5.1168e-24 -6.73104e-11)
(6.43464e-10 -1.46752e-07 -1.31699e-22 -6.37189e-10 -8.05496e-24 -6.27459e-12)
(5.97704e-10 -1.72631e-07 -1.65743e-21 -5.91702e-10 -1.0572e-22 -6.00262e-12)
(7.80193e-09 -2.41861e-07 -2.09567e-20 -7.78247e-09 -2.06862e-21 -1.94531e-11)
(1.51014e-08 -2.26376e-07 1.34653e-20 -1.50892e-08 1.24242e-21 -1.22051e-11)
(2.04043e-08 -2.06224e-07 -3.29251e-21 -2.04109e-08 -2.80624e-22 6.62723e-12)
(2.63759e-08 -2.01105e-07 1.1823e-24 -2.63981e-08 -1.45349e-23 2.21823e-11)
(3.30672e-08 -1.99626e-07 -3.72996e-21 -3.3101e-08 -3.42401e-22 3.37302e-11)
(3.97766e-08 -1.96166e-07 -7.21769e-21 -3.98171e-08 -7.03935e-22 4.04653e-11)
(4.63891e-08 -1.91481e-07 -5.0332e-25 -4.64354e-08 -8.95854e-24 4.62178e-11)
(5.30273e-08 -1.86644e-07 -7.50403e-24 -5.30767e-08 2.97389e-23 4.94389e-11)
(5.96646e-08 -1.81551e-07 1.07002e-20 -5.97197e-08 1.05636e-21 5.51173e-11)
(6.61803e-08 -1.75885e-07 -1.3588e-20 -6.6235e-08 -1.30077e-21 5.47343e-11)
(7.25047e-08 -1.69561e-07 -3.32167e-21 -7.25605e-08 -3.13097e-22 5.58431e-11)
(7.8591e-08 -1.62622e-07 -4.56e-24 -7.8648e-08 1.71291e-23 5.70003e-11)
(8.43851e-08 -1.55106e-07 -8.58047e-24 -8.44403e-08 9.95054e-24 5.52184e-11)
(8.9831e-08 -1.47039e-07 1.6374e-23 -8.98856e-08 -4.89101e-23 5.45615e-11)
(9.48651e-08 -1.38459e-07 -1.8759e-23 -9.49168e-08 -3.75876e-23 5.1763e-11)
(9.94293e-08 -1.29405e-07 -2.52645e-20 -9.94796e-08 -2.4031e-21 5.0295e-11)
(1.03464e-07 -1.19942e-07 3.10831e-20 -1.0351e-07 3.16277e-21 4.60001e-11)
(1.06921e-07 -1.10137e-07 2.93973e-21 -1.06964e-07 1.97798e-22 4.29088e-11)
(1.09752e-07 -1.00069e-07 1.82333e-23 -1.09793e-07 -7.02765e-24 4.02373e-11)
(1.11917e-07 -8.98224e-08 1.78322e-23 -1.11952e-07 -7.4266e-24 3.48439e-11)
(1.13388e-07 -7.94847e-08 3.82853e-24 -1.13419e-07 -8.15099e-23 3.14151e-11)
(1.14144e-07 -6.91552e-08 -2.01423e-20 -1.14171e-07 -2.01513e-21 2.70194e-11)
(1.14178e-07 -5.89373e-08 -2.65237e-21 -1.14201e-07 -1.93065e-22 2.24973e-11)
(1.13496e-07 -4.89295e-08 1.27685e-21 -1.13514e-07 1.95604e-22 1.82455e-11)
(1.12117e-07 -3.92344e-08 2.29621e-20 -1.12132e-07 2.4135e-21 1.50154e-11)
(1.10065e-07 -2.99314e-08 8.5916e-21 -1.10076e-07 5.41422e-22 1.10972e-11)
(1.0738e-07 -2.10897e-08 -9.18291e-20 -1.07386e-07 -9.66658e-21 6.22356e-12)
(1.04119e-07 -1.27827e-08 -1.61928e-20 -1.04129e-07 -1.43406e-21 1.00146e-11)
(1.00319e-07 -5.12646e-09 1.84197e-20 -1.0031e-07 1.79676e-21 -9.11165e-12)
(9.61547e-08 1.69639e-09 -8.87771e-20 -9.61784e-08 -9.40594e-21 2.3678e-11)
(9.15749e-08 7.48572e-09 3.15349e-20 -9.1529e-08 3.54186e-21 -4.5889e-11)
(8.69872e-08 1.2128e-08 -1.60612e-20 -8.70724e-08 -1.71177e-21 8.51669e-11)