/*--------------------------------*- C++ -*----------------------------------*\
| =========                 |                                                 |
| \\      /  F ield         | OpenFOAM: The Open Source CFD Toolbox           |
|  \\    /   O peration     | Version:  2306                                  |
|   \\  /    A nd           | Website:  www.openfoam.com                      |
|    \\/     M anipulation  |                                                 |
\*---------------------------------------------------------------------------*/
FoamFile
{
    version     2.0;
    format      ascii;
    arch        "LSB;label=32;scalar=64";
    class       volVectorField;
    location    "875";
    object      U;
}
// * * * * * * * * * * * * * * * * * * * * * * * * * * * * * * * * * * * * * //

dimensions      [0 1 -1 0 0 0 0];

internalField   nonuniform List<vector> 
1340
(
(26.0616 2.65164 1.04454e-16)
(25.8628 3.22883 1.52709e-17)
(26.0517 2.64885 -5.67219e-17)
(25.9546 2.86823 -4.39588e-16)
(25.8668 3.22694 2.55401e-19)
(26.0436 2.64518 -4.78253e-19)
(25.9262 3.06463 1.53384e-16)
(25.949 2.86114 -4.40794e-18)
(25.8694 3.22507 -2.1848e-17)
(26.0369 2.64094 2.64091e-16)
(25.9664 2.9893 5.22305e-16)
(25.9588 2.93009 3.01114e-16)
(25.9242 3.06084 -7.0722e-17)
(25.9432 2.85429 1.56277e-16)
(25.8714 3.22301 9.7381e-17)
(26.0301 2.63649 -2.64707e-16)
(26.0008 2.94307 -9.02785e-17)
(25.9845 2.93386 2.41348e-17)
(25.9612 2.98374 -8.02729e-18)
(25.953 2.92293 -3.64839e-18)
(25.9219 3.05687 -5.07275e-17)
(25.937 2.84775 1.03613e-17)
(25.8731 3.2207 3.85262e-19)
(26.0228 2.63188 -5.17055e-19)
(26.0471 2.88786 2.4666e-16)
(26.0293 2.90472 3.02266e-16)
(26.0121 2.91213 3.60707e-16)
(25.9927 2.93653 1.38647e-16)
(25.9772 2.92673 -1.4918e-17)
(25.9555 2.97822 -2.23601e-16)
(25.9469 2.91605 -5.09909e-17)
(25.9193 3.05276 1.13983e-16)
(25.9307 2.84151 -1.49047e-16)
(25.8742 3.21816 -4.05334e-19)
(26.0155 2.62708 -5.2231e-19)
(26.0826 2.83673 6.63189e-17)
(26.0659 2.85357 -3.02454e-16)
(26.0508 2.86839 -3.42525e-17)
(26.0352 2.88097 -1.91976e-16)
(26.0185 2.89802 -4.43215e-18)
(26.0024 2.90519 -7.78988e-18)
(25.9843 2.93023 -1.13692e-16)
(25.9695 2.91989 1.40109e-17)
(25.9496 2.97276 -9.01833e-19)
(25.9405 2.90946 -2.38622e-18)
(25.9162 3.04852 -2.80055e-18)
(25.9243 2.83555 6.18404e-18)
(25.8746 3.21544 -9.67954e-17)
(26.0083 2.62209 -1.42154e-16)
(26.1293 2.74232 1.84707e-16)
(26.1149 2.76623 -1.43099e-16)
(26.0995 2.78904 -6.84827e-17)
(26.0832 2.81067 2.30904e-17)
(26.0665 2.83118 -5.84151e-20)
(26.0512 2.84765 8.5066e-18)
(26.0373 2.86231 9.23279e-19)
(26.0228 2.87464 2.05976e-16)
(26.0074 2.89179 8.89207e-17)
(25.9924 2.89868 -1.21403e-16)
(25.9756 2.92422 1.11405e-16)
(25.9614 2.91339 -4.60496e-19)
(25.9432 2.9674 1.9724e-16)
(25.9338 2.90319 4.1195e-17)
(25.9127 3.0442 -6.36859e-17)
(25.9177 2.82989 1.47186e-16)
(25.8744 3.21255 8.29453e-17)
(26.0012 2.617 1.86655e-16)
(26.1462 2.61782 1.65464e-16)
(26.1415 2.64344 2.71677e-17)
(26.1351 2.66874 2.63701e-17)
(26.1271 2.69358 3.30006e-17)
(26.1174 2.71782 8.13373e-18)
(26.1062 2.74134 -1.22083e-16)
(26.0936 2.76404 -1.27282e-16)
(26.0799 2.78584 2.39396e-18)
(26.0653 2.80663 -5.59869e-17)
(26.0502 2.82651 -3.36264e-17)
(26.0363 2.84251 8.52102e-18)
(26.0236 2.85692 9.28982e-19)
(26.0103 2.86894 -6.78038e-18)
(25.996 2.88606 -9.77302e-17)
(25.982 2.89264 1.04912e-16)
(25.9665 2.91854 -1.02845e-16)
(25.953 2.90727 -4.75138e-19)
(25.9366 2.96217 -1.9868e-16)
(25.9268 2.89728 -4.61835e-17)
(25.9088 3.03981 5.7295e-17)
(25.9109 2.82456 1.73288e-18)
(25.8736 3.20949 -1.44835e-16)
(25.994 2.61187 -1.82851e-18)
(26.096 2.47229 1.99188e-17)
(26.1031 2.4928 5.80786e-17)
(26.109 2.51405 -2.87561e-17)
(26.1135 2.53596 5.74391e-17)
(26.1165 2.55841 2.03598e-17)
(26.118 2.58127 -7.73653e-17)
(26.1179 2.60442 -8.45779e-18)
(26.1161 2.62772 -7.98976e-18)
(26.1128 2.65103 2.53475e-17)
(26.1078 2.67421 1.73801e-17)
(26.1013 2.69713 -9.33695e-18)
(26.0932 2.71967 -3.48165e-19)
(26.0836 2.74168 -2.42079e-18)
(26.0727 2.76307 2.88417e-17)
(26.0606 2.78376 2.34264e-18)
(26.0475 2.8036 5.02478e-17)
(26.0339 2.82273 3.33969e-17)
(26.0213 2.83817 8.48148e-18)
(26.0097 2.85225 9.29071e-19)
(25.9974 2.86387 -1.83992e-16)
(25.9843 2.88088 -5.01724e-17)
(25.9713 2.88711 -1.81333e-16)
(25.9571 2.91322 1.00459e-16)
(25.9443 2.90157 -4.88035e-19)
(25.9295 2.95712 1.27728e-16)
(25.9195 2.89175 -1.19057e-16)
(25.9044 3.03538 -1.45584e-16)
(25.904 2.81958 1.7974e-18)
(25.8723 3.20628 2.92112e-18)
(25.9867 2.60678 -4.48954e-17)
(25.9397 2.36141 2.03918e-18)
(25.951 2.36829 -2.55314e-19)
(25.9624 2.37595 -3.22378e-19)
(25.9739 2.38445 -7.16813e-18)
(25.9854 2.39381 -5.3099e-18)
(25.9968 2.40408 -1.30283e-17)
(26.008 2.41528 -4.82597e-18)
(26.0189 2.42742 -1.08544e-17)
(26.0294 2.44053 7.80693e-18)
(26.0395 2.45458 5.18833e-17)
(26.0489 2.46959 -1.58934e-17)
(26.0576 2.48551 1.74409e-17)
(26.0654 2.50231 -4.84294e-18)
(26.0723 2.51995 -4.03592e-18)
(26.0781 2.53836 1.91003e-18)
(26.0828 2.55746 -3.65386e-18)
(26.0862 2.57716 -1.24053e-18)
(26.0882 2.59738 4.51608e-18)
(26.0888 2.61798 3.6698e-17)
(26.088 2.63888 -8.35872e-17)
(26.0857 2.65993 4.58059e-18)
(26.082 2.68102 -1.96911e-17)
(26.0767 2.70202 -8.81272e-18)
(26.0699 2.72281 6.52022e-19)
(26.0617 2.74326 8.83729e-17)
(26.0522 2.76327 9.69337e-17)
(26.0415 2.78276 -6.19165e-17)
(26.0299 2.80155 4.79627e-17)
(26.0177 2.81984 -2.8798e-17)
(26.0063 2.83464 8.39131e-18)
(25.9957 2.84831 9.23812e-19)
(25.9845 2.85948 6.66388e-17)
(25.9725 2.87627 1.17992e-16)
(25.9604 2.88212 1.64091e-16)
(25.9475 2.9083 -4.22161e-17)
(25.9354 2.89632 -2.31229e-17)
(25.9222 2.95226 -1.05224e-16)
(25.912 2.88663 -7.02353e-17)
(25.8997 3.03094 2.70582e-18)
(25.8969 2.81496 1.86167e-18)
(25.8704 3.20295 3.39495e-18)
(25.9794 2.60178 4.10424e-17)
(25.7173 2.3973 -1.13691e-18)
(25.7164 2.3971 2.85849e-19)
(25.7149 2.39651 8.3543e-19)
(25.7168 2.39595 -7.56476e-19)
(25.7284 2.39589 -8.61805e-19)
(25.7475 2.39607 2.23859e-18)
(25.7482 2.39479 1.30379e-18)
(25.6796 2.38875 -1.20124e-18)
(25.4948 2.37445 2.86554e-19)
(25.1793 2.34995 1.85959e-18)
(24.7524 2.31533 2.92789e-19)
(24.2556 2.27258 8.58926e-19)
(23.7454 2.2255 -1.08999e-18)
(23.2906 2.17961 -3.8025e-18)
(22.9667 2.14184 1.22982e-18)
(22.8435 2.11965 8.09824e-18)
(22.9647 2.11923 1.13336e-18)
(23.3282 2.14311 -1.54022e-18)
(23.8797 2.18869 3.66106e-19)
(24.5203 2.24789 3.46787e-18)
(25.1231 2.30806 -1.93901e-18)
(25.5674 2.35531 7.01763e-18)
(25.7962 2.38109 -1.07473e-17)
(25.8529 2.38778 1.15904e-17)
(25.8371 2.38556 7.25217e-18)
(25.8219 2.38308 1.2963e-18)
(25.825 2.38309 1.84424e-18)
(25.8371 2.38467 1.45445e-17)
(25.8488 2.38653 -1.00422e-18)
(25.8581 2.38832 4.10315e-18)
(25.8665 2.39021 -8.48831e-18)
(25.8748 2.3924 -1.13126e-17)
(25.8833 2.39496 9.64064e-19)
(25.892 2.3979 -3.9766e-18)
(25.9007 2.40129 7.29356e-18)
(25.9097 2.40515 -1.88604e-18)
(25.9189 2.40953 -4.15445e-18)
(25.9283 2.41449 -2.71339e-18)
(25.9379 2.42006 1.54541e-18)
(25.9476 2.42629 -1.79017e-19)
(25.9575 2.43322 1.60025e-18)
(25.9673 2.44088 9.03201e-19)
(25.9772 2.44932 6.80562e-19)
(25.987 2.45856 5.66164e-19)
(25.9966 2.46862 1.38093e-18)
(26.0059 2.47954 8.2513e-18)
(26.0148 2.4913 -4.6239e-18)
(26.0233 2.50393 -3.71915e-17)
(26.0313 2.5174 -1.37941e-18)
(26.0385 2.53171 -1.52945e-17)
(26.045 2.54681 -3.51553e-19)
(26.0506 2.56267 -2.13829e-17)
(26.0551 2.57923 -3.23404e-18)
(26.0587 2.59643 -1.10738e-18)
(26.061 2.61419 4.06548e-18)
(26.0621 2.63242 -3.55649e-17)
(26.0619 2.65103 7.55438e-17)
(26.0604 2.66991 -2.19734e-17)
(26.0576 2.68896 -1.08113e-18)
(26.0533 2.70806 -8.26176e-18)
(26.0477 2.7271 4.63569e-17)
(26.0407 2.74597 -1.07429e-17)
(26.0324 2.76455 -1.56815e-17)
(26.023 2.78278 7.69741e-18)
(26.0126 2.80047 -6.75855e-18)
(26.0016 2.81783 2.85763e-17)
(25.9914 2.83192 6.66687e-17)
(25.9818 2.84511 3.8757e-17)
(25.9715 2.85578 -1.82247e-17)
(25.9605 2.87224 -9.61937e-17)
(25.9494 2.8777 -8.46324e-17)
(25.9376 2.90379 1.40476e-18)
(25.9261 2.89154 9.73798e-17)
(25.9145 2.94762 -2.39327e-18)
(25.9042 2.88195 7.55084e-17)
(25.8945 3.02651 -3.49339e-17)
(25.8896 2.81075 1.92941e-18)
(25.8681 3.19951 6.05707e-17)
(25.972 2.59697 -4.21308e-17)
(25.7431 2.44881 5.11397e-20)
(25.7431 2.44869 1.62984e-18)
(25.7423 2.44825 7.2268e-19)
(25.7407 2.44764 -4.74092e-19)
(25.7411 2.44719 -4.96535e-19)
(25.7493 2.44716 -6.42548e-20)
(25.7678 2.44752 -6.02168e-20)
(25.7813 2.44726 1.37312e-18)
(25.7485 2.44366 -9.35671e-19)
(25.6186 2.43309 2.02933e-18)
(25.3622 2.41281 -6.0635e-19)
(24.9858 2.38211 -4.00713e-20)
(24.5232 2.34238 2.00016e-18)
(24.0267 2.29696 1.88084e-19)
(23.5623 2.25102 -1.7706e-18)
(23.2044 2.21127 -4.61049e-19)
(23.0259 2.18524 -2.03285e-18)
(23.0792 2.17963 2.55809e-18)
(23.3749 2.19799 1.64155e-18)
(23.8717 2.2389 1.05802e-18)
(24.4801 2.29534 4.05106e-18)
(25.0778 2.35534 -8.14031e-18)
(25.5399 2.40483 8.19132e-18)
(25.7953 2.4339 -9.48718e-18)
(25.8702 2.44302 -1.53602e-19)
(25.8582 2.44151 -6.70841e-20)
(25.8387 2.43869 -3.49796e-18)
(25.8376 2.43827 -5.82332e-18)
(25.8478 2.43967 5.6502e-19)
(25.8587 2.44149 -1.31764e-18)
(25.8672 2.44322 7.0479e-19)
(25.8744 2.445 6.06185e-18)
(25.8816 2.44704 -1.4576e-20)
(25.8888 2.44943 6.73736e-18)
(25.8962 2.45217 -5.5542e-18)
(25.9038 2.45528 1.24866e-18)
(25.9115 2.45883 -1.45947e-19)
(25.9194 2.46284 4.00089e-18)
(25.9275 2.46736 -4.9222e-19)
(25.9357 2.47243 5.30202e-19)
(25.944 2.47808 1.34485e-18)
(25.9525 2.48435 7.0996e-19)
(25.961 2.49128 -1.65474e-18)
(25.9694 2.4989 4.57712e-19)
(25.9777 2.50723 6.91156e-19)
(25.9859 2.51631 -7.26679e-18)
(25.9938 2.52613 -3.8598e-18)
(26.0013 2.53673 4.11815e-18)
(26.0084 2.54809 -1.88709e-17)
(26.015 2.56022 7.42617e-18)
(26.0209 2.5731 -3.54911e-18)
(26.0261 2.5867 2.432e-17)
(26.0304 2.60099 -2.84581e-18)
(26.0339 2.61591 -9.82591e-19)
(26.0363 2.63143 -2.1489e-17)
(26.0377 2.64746 -3.17264e-18)
(26.0379 2.66393 -1.25979e-17)
(26.0369 2.68075 1.15775e-17)
(26.0347 2.69784 3.20499e-17)
(26.0313 2.71509 -1.09407e-16)
(26.0265 2.73241 -4.7697e-17)
(26.0205 2.7497 -8.34333e-17)
(26.0133 2.76682 -8.51588e-17)
(26.0049 2.78376 7.46137e-17)
(25.9957 2.80029 -9.9602e-17)
(25.9858 2.81667 2.40577e-17)
(25.9766 2.82999 3.45135e-18)
(25.9679 2.84264 -2.10221e-17)
(25.9585 2.85276 1.76066e-17)
(25.9484 2.86882 -7.01038e-17)
(25.9382 2.87386 -5.3388e-17)
(25.9275 2.89972 1.41535e-18)
(25.9167 2.88726 -6.60319e-17)
(25.9066 2.94324 -2.44374e-18)
(25.8961 2.87774 2.02789e-16)
(25.889 3.02212 4.06266e-17)
(25.8821 2.80698 1.40381e-16)
(25.8653 3.19597 -5.56748e-17)
(25.9643 2.59243 3.80278e-17)
(25.765 2.49585 4.2732e-20)
(25.7653 2.49579 -7.89251e-20)
(25.7654 2.49547 -4.69789e-19)
(25.7648 2.49501 8.51469e-19)
(25.7633 2.49454 2.30368e-19)
(25.7625 2.49415 -7.31582e-19)
(25.7675 2.49405 3.94109e-19)
(25.7832 2.49444 -2.9517e-21)
(25.8029 2.49481 2.73918e-20)
(25.7965 2.49314 -1.80812e-19)
(25.7149 2.48595 4.65738e-20)
(25.5172 2.4699 9.54803e-19)
(25.1944 2.44336 -3.95986e-20)
(24.7705 2.40699 1.65229e-19)
(24.2927 2.3636 1.29612e-18)
(23.8237 2.31796 -2.91044e-19)
(23.4371 2.27657 9.54798e-19)
(23.2082 2.24699 1.54404e-18)
(23.1968 2.23636 -7.95937e-20)
(23.426 2.24919 -1.26639e-18)
(23.8672 2.28521 -1.54994e-18)
(24.4412 2.33849 6.58944e-18)
(25.0301 2.39773 -6.87532e-18)
(25.5067 2.44883 3.24019e-19)
(25.7876 2.48077 -2.03064e-18)
(25.8822 2.49221 -6.01905e-20)
(25.8762 2.4915 -7.14565e-19)
(25.854 2.48848 -6.67775e-20)
(25.8491 2.48775 -2.89037e-18)
(25.8573 2.4891 -3.65553e-21)
(25.8672 2.49098 1.74473e-19)
(25.8748 2.49266 -1.52795e-19)
(25.8808 2.49429 -1.08084e-18)
(25.8868 2.49614 -8.83626e-18)
(25.8931 2.49833 5.39364e-18)
(25.8994 2.50085 -1.25542e-18)
(25.9059 2.50372 -8.30112e-20)
(25.9124 2.50697 -8.4344e-19)
(25.9192 2.51063 -1.4362e-18)
(25.9261 2.51475 1.33858e-19)
(25.9332 2.51935 1.09572e-18)
(25.9403 2.52448 7.14502e-19)
(25.9475 2.53017 2.41849e-18)
(25.9547 2.53643 8.21728e-19)
(25.9619 2.54332 7.56678e-19)
(25.9689 2.55084 -6.90891e-19)
(25.9758 2.55902 -3.20493e-18)
(25.9824 2.56789 3.45216e-18)
(25.9886 2.57744 1.65099e-17)
(25.9944 2.58768 -2.32132e-17)
(25.9997 2.59861 -5.20748e-18)
(26.0044 2.61022 1.2694e-18)
(26.0084 2.62248 -2.49046e-18)
(26.0117 2.63537 -8.66963e-19)
(26.014 2.64884 2.81668e-17)
(26.0155 2.66285 3.88116e-18)
(26.0159 2.67733 -7.0833e-18)
(26.0153 2.69223 -3.10777e-17)
(26.0135 2.70746 -1.61691e-17)
(26.0106 2.72293 1.31819e-16)
(26.0066 2.73858 2.30195e-17)
(26.0014 2.7543 -2.91847e-17)
(25.995 2.76999 1.42373e-16)
(25.9876 2.78562 -4.69595e-17)
(25.9793 2.80095 2.64203e-17)
(25.9704 2.8163 -2.81718e-17)
(25.962 2.82882 8.15832e-17)
(25.9541 2.84087 -2.91661e-17)
(25.9455 2.85041 -1.41865e-17)
(25.9364 2.86599 -1.1449e-17)
(25.9269 2.8706 5.44035e-17)
(25.9173 2.89611 1.41887e-18)
(25.9071 2.8835 5.54458e-17)
(25.8984 2.93912 -2.47998e-18)
(25.8878 2.87403 -2.57349e-16)
(25.8832 3.01777 3.01811e-18)
(25.8744 2.80372 -1.35954e-16)
(25.8622 3.19232 7.08756e-17)
(25.9563 2.58824 -2.18707e-18)
(25.784 2.53888 3.57832e-20)
(25.7843 2.53884 -6.61368e-20)
(25.7845 2.5386 1.28454e-18)
(25.7846 2.53826 -9.68478e-19)
(25.7843 2.53792 5.52023e-20)
(25.783 2.53756 6.00584e-19)
(25.7815 2.53718 -1.61545e-18)
(25.7838 2.53701 -4.54997e-21)
(25.7956 2.53734 2.33469e-20)
(25.8164 2.53802 -1.58645e-19)
(25.8271 2.53771 4.24308e-20)
(25.7853 2.53342 -1.08323e-18)
(25.643 2.52146 5.94134e-20)
(25.376 2.49926 1.34816e-18)
(24.9951 2.4665 2.08368e-18)
(24.5405 2.42526 -2.51801e-19)
(24.0719 2.37991 8.44066e-19)
(23.662 2.33676 -1.81744e-18)
(23.3882 2.30348 7.831e-19)
(23.3171 2.28776 -1.11591e-19)
(23.4831 2.29508 -1.9723e-18)
(23.8705 2.32643 2.69228e-19)
(24.4095 2.37692 3.25964e-19)
(24.9874 2.43585 6.88555e-18)
(25.4751 2.48898 3.48021e-18)
(25.7784 2.52409 1.23057e-18)
(25.891 2.53793 7.90109e-19)
(25.8903 2.53768 -5.81344e-20)
(25.8649 2.53374 2.06901e-18)
(25.8564 2.53199 1.03388e-18)
(25.8637 2.53298 1.66139e-19)
(25.874 2.535 -4.82074e-18)
(25.8813 2.53689 1.02107e-18)
(25.8863 2.53852 8.36161e-18)
(25.891 2.54021 1.39737e-18)
(25.8962 2.5422 1.22889e-18)
(25.9017 2.54451 -3.43552e-20)
(25.9072 2.54716 1.11113e-18)
(25.9128 2.55014 -1.11139e-18)
(25.9186 2.55348 9.58273e-20)
(25.9244 2.55723 8.15276e-19)
(25.9304 2.56141 2.63559e-19)
(25.9365 2.56607 4.76272e-19)
(25.9426 2.57121 -1.55669e-19)
(25.9487 2.57689 6.86616e-19)
(25.9547 2.58311 1.98021e-18)
(25.9605 2.5899 -2.6393e-18)
(25.9662 2.59729 4.0858e-18)
(25.9716 2.60528 2.47547e-18)
(25.9767 2.6139 1.14103e-17)
(25.9813 2.62314 -5.13492e-18)
(25.9854 2.633 6.82831e-18)
(25.989 2.64347 -7.22847e-18)
(25.9919 2.65454 -7.60006e-19)
(25.9941 2.66618 4.40716e-17)
(25.9954 2.67835 -1.97244e-17)
(25.9959 2.69102 7.85686e-19)
(25.9954 2.70412 4.77482e-17)
(25.9939 2.71761 -2.44097e-17)
(25.9915 2.73141 -2.51223e-17)
(25.9879 2.74545 -8.79599e-17)
(25.9833 2.75966 1.12052e-18)
(25.9776 2.77392 -8.94835e-18)
(25.971 2.78826 1.52391e-17)
(25.9635 2.80239 1.10995e-17)
(25.9554 2.81668 2.38128e-17)
(25.9478 2.82837 -7.45246e-17)
(25.9406 2.83979 -5.02487e-18)
(25.9327 2.84873 -1.3086e-17)
(25.9244 2.86375 7.02408e-17)
(25.9156 2.86794 -1.09851e-17)
(25.9069 2.89295 1.41433e-18)
(25.8973 2.8803 -5.2854e-18)
(25.89 2.93527 2.23247e-17)
(25.8791 2.87087 1.61041e-16)
(25.8771 3.01345 7.20358e-17)
(25.8663 2.80105 2.24124e-18)
(25.8589 3.1885 3.74876e-17)
(25.9478 2.58455 -7.29677e-17)
(25.8007 2.57844 3.05493e-20)
(25.801 2.57841 -5.65253e-20)
(25.8012 2.57822 -3.49753e-20)
(25.8015 2.57795 1.14236e-18)
(25.8016 2.57769 4.73486e-20)
(25.8015 2.57743 -5.44777e-19)
(25.8004 2.57711 1.39166e-18)
(25.7987 2.57675 -3.91992e-21)
(25.7989 2.57652 2.01475e-20)
(25.8066 2.57668 -1.37656e-19)
(25.8249 2.57732 3.75609e-20)
(25.8444 2.57771 8.45471e-19)
(25.833 2.57568 -1.35167e-19)
(25.7431 2.56789 -8.49386e-19)
(25.5372 2.55127 -1.89189e-18)
(25.2092 2.52439 -2.29759e-19)
(24.7871 2.48807 -7.55213e-19)
(24.3248 2.44552 1.59163e-18)
(23.8937 2.40225 -8.80418e-19)
(23.5731 2.36555 -9.13323e-20)
(23.4371 2.34333 -9.10565e-19)
(23.5328 2.3421 -1.58136e-18)
(23.8598 2.36456 2.98375e-18)
(24.3608 2.40781 -4.97636e-18)
(24.9288 2.46292 -4.51647e-18)
(25.4331 2.51663 -1.04571e-18)
(25.7679 2.55614 -5.62293e-19)
(25.9078 2.57582 -5.41224e-20)
(25.9162 2.57982 -3.64185e-18)
(25.8842 2.57713 -1.31212e-18)
(25.8655 2.57449 2.49653e-18)
(25.8673 2.57411 8.4685e-18)
(25.8772 2.57536 -2.76126e-20)
(25.8856 2.57712 -5.93832e-18)
(25.8908 2.57881 -8.66707e-18)
(25.8947 2.58045 -1.1796e-18)
(25.8987 2.58224 1.3838e-18)
(25.9032 2.58429 -2.17064e-18)
(25.9079 2.58665 2.24604e-18)
(25.9127 2.58933 -5.83976e-19)
(25.9175 2.59235 5.88828e-19)
(25.9225 2.59573 -1.35949e-18)
(25.9275 2.59949 2.82665e-19)
(25.9326 2.60368 -4.58336e-20)
(25.9376 2.60831 1.6247e-18)
(25.9427 2.61341 -3.42045e-18)
(25.9476 2.61901 -1.15742e-17)
(25.9524 2.62512 2.82005e-18)
(25.957 2.63176 -3.98669e-18)
(25.9613 2.63895 -1.02684e-18)
(25.9652 2.6467 3.38986e-18)
(25.9688 2.65502 -4.73754e-18)
(25.9718 2.6639 -9.26272e-18)
(25.9743 2.67334 -6.63775e-19)
(25.9762 2.68332 -2.23586e-19)
(25.9773 2.69382 3.13789e-18)
(25.9777 2.70481 -5.02902e-18)
(25.9772 2.71626 -3.97222e-17)
(25.9759 2.72811 -3.29347e-18)
(25.9737 2.74033 3.983e-18)
(25.9705 2.75284 8.37247e-17)
(25.9663 2.76559 1.04161e-18)
(25.9612 2.77849 -3.84702e-18)
(25.9551 2.79154 6.59308e-17)
(25.9482 2.80449 -3.09066e-17)
(25.9409 2.81771 -1.99319e-18)
(25.9339 2.82856 3.13052e-18)
(25.9274 2.83932 9.12497e-18)
(25.9201 2.84765 1.62258e-17)
(25.9125 2.86205 -3.44816e-18)
(25.9043 2.86585 -3.22912e-18)
(25.8966 2.8902 -2.37358e-17)
(25.8872 2.87764 -1.4767e-16)
(25.8815 2.93165 -5.0105e-17)
(25.8701 2.86832 -4.16424e-18)
(25.8711 3.00915 -3.67054e-17)
(25.8575 2.79902 2.43711e-18)
(25.8559 3.18465 -9.66372e-17)
(25.9382 2.58109 1.0539e-18)
(25.8192 2.62361 3.13694e-19)
(25.8196 2.62359 -3.01857e-19)
(25.8199 2.62344 -2.76283e-19)
(25.8201 2.62322 -1.33389e-19)
(25.8204 2.62301 8.28784e-19)
(25.8206 2.62281 5.92533e-19)
(25.8206 2.62258 -5.17193e-19)
(25.8201 2.62232 -2.8592e-19)
(25.8189 2.62201 1.21031e-18)
(25.818 2.62172 -3.66288e-19)
(25.8208 2.62167 9.84802e-20)
(25.8313 2.62203 -7.76616e-19)
(25.8482 2.62262 1.25604e-19)
(25.8559 2.62232 7.59044e-19)
(25.8216 2.61879 -4.67849e-19)
(25.7055 2.609 -2.73509e-18)
(25.4801 2.59043 -7.50762e-19)
(25.1464 2.56219 3.02351e-19)
(24.7364 2.52566 -6.75422e-19)
(24.3078 2.48465 -4.02762e-19)
(23.9346 2.44526 5.00492e-19)
(23.6945 2.41501 -9.51451e-19)
(23.651 2.40128 -1.79825e-18)
(23.832 2.40907 -1.01371e-18)
(24.2131 2.43875 1.42949e-18)
(24.7151 2.48481 -1.64657e-18)
(25.2222 2.53652 1.27225e-18)
(25.6212 2.58141 -1.66372e-18)
(25.8506 2.61064 3.18589e-18)
(25.927 2.62315 -3.40327e-19)
(25.9186 2.62459 3.82818e-18)
(25.8917 2.62209 -4.93337e-18)
(25.8782 2.62018 1.40197e-18)
(25.8795 2.6201 3.67319e-18)
(25.8866 2.62127 6.3918e-18)
(25.893 2.62283 -2.41962e-18)
(25.8973 2.62436 -1.04883e-18)
(25.9005 2.62589 5.53272e-20)
(25.9037 2.62756 -5.50018e-19)
(25.9073 2.62948 -2.26262e-18)
(25.911 2.63171 -3.71886e-18)
(25.9149 2.63423 1.62677e-18)
(25.9188 2.63706 -8.44121e-20)
(25.9227 2.64023 8.54941e-19)
(25.9267 2.64376 -4.91349e-19)
(25.9307 2.64767 -6.51485e-19)
(25.9346 2.652 3.08429e-18)
(25.9384 2.65676 2.47881e-18)
(25.942 2.66197 -2.23275e-18)
(25.9454 2.66765 -5.41957e-18)
(25.9486 2.67381 -1.69933e-17)
(25.9514 2.68047 1.48143e-18)
(25.9538 2.68763 9.49495e-18)
(25.9558 2.6953 -1.31659e-17)
(25.9572 2.70348 -1.82213e-17)
(25.9581 2.71215 1.25066e-17)
(25.9583 2.7213 -5.38279e-18)
(25.9578 2.73091 6.72927e-18)
(25.9565 2.74095 -8.13525e-18)
(25.9545 2.75139 -6.95038e-17)
(25.9516 2.76217 1.03068e-17)
(25.9478 2.77327 4.28493e-17)
(25.9432 2.78458 -1.60244e-17)
(25.9377 2.79616 -3.78509e-18)
(25.9315 2.80773 2.1376e-17)
(25.9249 2.81971 -2.14106e-17)
(25.9186 2.8296 -4.23718e-18)
(25.9128 2.83954 5.05329e-17)
(25.9062 2.84722 3.13747e-18)
(25.8994 2.86078 -1.21689e-17)
(25.8917 2.86428 1.19135e-17)
(25.8852 2.88761 5.19252e-17)
(25.8762 2.87552 3.81984e-17)
(25.8722 2.92787 4.04185e-17)
(25.8602 2.86649 -8.31549e-17)
(25.8642 3.00432 -3.82048e-17)
(25.8484 2.7981 3.2078e-18)
(25.8519 3.1797 5.98535e-17)
(25.9292 2.57916 -1.69063e-17)
(25.8385 2.67099 1.00168e-19)
(25.8388 2.67095 1.62719e-20)
(25.8391 2.67081 1.50792e-19)
(25.8394 2.67062 -2.0633e-19)
(25.8397 2.67044 -8.44761e-19)
(25.8399 2.67026 -6.50851e-19)
(25.8401 2.67007 -8.90985e-20)
(25.8403 2.66986 1.94527e-19)
(25.8403 2.66963 -1.3754e-18)
(25.8395 2.66936 1.43818e-19)
(25.838 2.66907 8.36242e-20)
(25.8373 2.66885 -2.16296e-19)
(25.8414 2.66886 -7.51464e-19)
(25.8539 2.66919 -1.3653e-19)
(25.8725 2.66944 1.60939e-19)
(25.8816 2.6684 9.74463e-19)
(25.8507 2.66387 2.27684e-19)
(25.7426 2.65316 -1.34037e-18)
(25.5302 2.63408 9.42448e-19)
(25.2126 2.60601 2.21657e-19)
(24.8213 2.57064 4.31645e-19)
(24.4148 2.53215 1.34989e-18)
(24.0693 2.49689 3.11054e-18)
(23.8623 2.47225 2.51188e-18)
(23.8523 2.46483 -1.09975e-19)
(24.0578 2.47817 -6.60793e-19)
(24.4422 2.51078 4.12895e-19)
(24.9176 2.55565 5.55317e-19)
(25.3704 2.60201 2.2874e-18)
(25.7053 2.63938 3.74118e-18)
(25.8844 2.66197 -6.21328e-18)
(25.9362 2.67064 8.11605e-19)
(25.9231 2.67081 8.7838e-19)
(25.8987 2.66831 -2.45378e-18)
(25.8869 2.66662 -4.05742e-18)
(25.8878 2.66661 3.62281e-18)
(25.8935 2.66766 2.80169e-19)
(25.8985 2.66899 4.35734e-20)
(25.9016 2.67026 -1.8857e-19)
(25.9038 2.67152 2.41325e-18)
(25.906 2.67294 -2.2698e-19)
(25.9086 2.67461 -1.32707e-18)
(25.9113 2.67653 -3.81227e-19)
(25.9141 2.67872 -8.97355e-19)
(25.917 2.68119 -6.90237e-19)
(25.9198 2.68396 2.21173e-19)
(25.9226 2.68706 2.20979e-19)
(25.9253 2.6905 2.70955e-18)
(25.9279 2.6943 1.46679e-18)
(25.9304 2.6985 -1.63048e-18)
(25.9326 2.70309 2.88642e-18)
(25.9346 2.7081 -2.74464e-18)
(25.9363 2.71355 -8.66881e-19)
(25.9376 2.71945 1.0786e-17)
(25.9385 2.7258 8.85732e-20)
(25.9389 2.7326 8.77956e-18)
(25.9388 2.73985 -3.85174e-17)
(25.9381 2.74756 -1.92879e-17)
(25.9368 2.75569 1.15463e-17)
(25.9348 2.76425 1.33131e-17)
(25.9321 2.7732 -2.54352e-17)
(25.9287 2.78251 1.98141e-18)
(25.9245 2.79212 -4.75069e-17)
(25.9195 2.80209 -6.32961e-18)
(25.9139 2.81215 2.80196e-17)
(25.9079 2.82274 1.51332e-17)
(25.9023 2.83156 3.52382e-17)
(25.8971 2.84057 -2.59271e-17)
(25.8912 2.84753 3.58169e-17)
(25.8851 2.86011 -1.03382e-17)
(25.8782 2.86329 -6.21344e-17)
(25.8726 2.88542 -3.25593e-17)
(25.8644 2.87389 6.45909e-17)
(25.8615 2.92435 -5.11494e-17)
(25.8501 2.86512 7.3584e-17)
(25.8557 2.99967 1.18636e-16)
(25.84 2.79773 8.40024e-17)
(25.8459 3.17508 -4.66288e-17)
(25.9225 2.5779 1.42875e-16)
(25.855 2.71127 -2.43507e-19)
(25.8553 2.71121 -6.26168e-20)
(25.8555 2.71108 1.01097e-19)
(25.8558 2.7109 2.51375e-19)
(25.8561 2.71073 4.78398e-19)
(25.8563 2.71056 2.96161e-19)
(25.8565 2.71039 3.38135e-19)
(25.8568 2.71019 1.35743e-19)
(25.857 2.70999 4.8318e-19)
(25.8571 2.70977 -8.76663e-19)
(25.8568 2.70952 4.01119e-20)
(25.8556 2.70924 -1.59326e-19)
(25.8542 2.70894 6.94846e-19)
(25.8548 2.70876 2.91075e-19)
(25.8618 2.70886 -2.67093e-19)
(25.8784 2.7093 4.40145e-19)
(25.9007 2.70964 1.337e-18)
(25.9122 2.70863 -2.93603e-19)
(25.8822 2.70407 -3.04642e-19)
(25.7739 2.69326 -1.06359e-18)
(25.561 2.67401 -5.38634e-20)
(25.2443 2.64585 -6.0377e-19)
(24.8592 2.61081 -5.63728e-19)
(24.4697 2.57359 -6.37183e-19)
(24.1555 2.541 -1.42948e-18)
(23.9933 2.5205 2.52702e-18)
(24.0331 2.51815 -1.21583e-19)
(24.278 2.53617 -6.2877e-20)
(24.6743 2.57135 -4.08952e-18)
(25.125 2.61543 -2.87525e-18)
(25.5228 2.65768 6.46344e-19)
(25.7928 2.68909 7.39948e-19)
(25.9199 2.70601 -3.49552e-18)
(25.9434 2.71083 -1.31903e-18)
(25.9225 2.70927 4.45627e-19)
(25.9004 2.70653 2.98475e-19)
(25.8921 2.70518 1.53251e-18)
(25.8942 2.70542 5.17043e-19)
(25.8991 2.70641 1.65186e-19)
(25.9025 2.70747 -8.34164e-19)
(25.9043 2.70843 -2.04143e-19)
(25.9055 2.70942 1.37696e-18)
(25.907 2.7106 -5.58386e-19)
(25.9088 2.71201 -7.23661e-20)
(25.9107 2.71366 3.65444e-19)
(25.9125 2.71554 -3.23973e-19)
(25.9143 2.71767 -9.8547e-20)
(25.916 2.72008 3.03667e-20)
(25.9177 2.72278 -8.08901e-19)
(25.9193 2.72579 5.63409e-18)
(25.9206 2.72913 5.83712e-18)
(25.9218 2.73284 5.72386e-18)
(25.9227 2.7369 -5.00271e-18)
(25.9233 2.74135 4.8442e-18)
(25.9236 2.7462 -4.1197e-18)
(25.9235 2.75145 4.76218e-18)
(25.9229 2.75713 2.34284e-17)
(25.9218 2.76322 3.87464e-17)
(25.9202 2.76973 8.46421e-19)
(25.9181 2.77667 -8.15361e-18)
(25.9153 2.784 1.63538e-18)
(25.912 2.79174 -4.93414e-17)
(25.9079 2.79982 3.06834e-17)
(25.9032 2.80832 -1.68667e-18)
(25.8979 2.81699 -2.08122e-17)
(25.8923 2.82627 -1.01021e-17)
(25.8871 2.83407 1.6761e-17)
(25.8824 2.84219 -9.69576e-18)
(25.877 2.84844 -1.19221e-17)
(25.8715 2.86007 -6.71241e-19)
(25.8652 2.86291 -5.62516e-18)
(25.8603 2.88384 8.51946e-18)
(25.8527 2.87282 -1.73369e-17)
(25.8507 2.92139 2.93023e-18)
(25.8401 2.86426 5.08645e-18)
(25.8466 2.99557 -6.50236e-17)
(25.8319 2.79785 -1.40169e-16)
(25.8388 3.17127 3.75016e-17)
(25.916 2.57763 -8.19221e-17)
(25.8703 2.74547 -4.1991e-20)
(25.8705 2.74533 -2.03381e-19)
(25.8707 2.74516 2.58269e-20)
(25.8709 2.745 -8.4476e-20)
(25.8711 2.74483 2.34183e-20)
(25.8713 2.74466 -3.86745e-19)
(25.8715 2.74448 1.04336e-20)
(25.8717 2.74428 7.3833e-20)
(25.8719 2.74408 3.5392e-19)
(25.8721 2.74386 3.58305e-20)
(25.8721 2.74362 4.50447e-19)
(25.8715 2.74334 -5.89964e-19)
(25.8702 2.74303 -2.01683e-19)
(25.8692 2.74275 2.27011e-19)
(25.8715 2.74265 -2.56768e-19)
(25.8814 2.74293 -5.30218e-19)
(25.9013 2.74361 8.80326e-19)
(25.9261 2.7442 -8.78348e-19)
(25.9378 2.7433 6.92496e-19)
(25.9044 2.73856 1.49867e-19)
(25.7887 2.72716 1.69515e-19)
(25.5668 2.70697 -7.36707e-19)
(25.2443 2.67783 2.28749e-19)
(24.8634 2.64241 1.71785e-18)
(24.4954 2.6062 -4.32086e-19)
(24.2229 2.57662 -1.32938e-18)
(24.1178 2.56114 5.6002e-19)
(24.2169 2.56489 2.72979e-19)
(24.5035 2.5883 -1.07288e-18)
(24.9076 2.62621 1.67411e-18)
(25.3271 2.66913 -1.41454e-18)
(25.6655 2.70662 1.85008e-18)
(25.8694 2.73145 1.44859e-18)
(25.9456 2.74235 -7.75494e-19)
(25.9436 2.74343 -1.00711e-18)
(25.918 2.74058 -5.86918e-19)
(25.9004 2.73804 -1.71998e-18)
(25.8965 2.73726 -6.51962e-19)
(25.8998 2.73774 -4.31258e-19)
(25.9034 2.73857 6.46514e-19)
(25.9051 2.7393 -9.39163e-19)
(25.9057 2.73997 3.58844e-19)
(25.9062 2.74072 1.04727e-18)
(25.907 2.74167 5.14991e-19)
(25.908 2.74284 1.03739e-18)
(25.9089 2.7442 -6.72115e-20)
(25.9098 2.74579 1.88127e-20)
(25.9106 2.74761 -2.50023e-19)
(25.9113 2.74969 -2.66264e-18)
(25.9119 2.75203 -1.20221e-19)
(25.9122 2.75467 -1.52977e-18)
(25.9124 2.75761 -4.85872e-19)
(25.9123 2.76089 -3.12208e-18)
(25.9119 2.76451 2.85409e-18)
(25.9111 2.76849 -7.99561e-18)
(25.91 2.77285 -8.97501e-18)
(25.9085 2.77759 -5.25566e-18)
(25.9065 2.78274 -7.86813e-18)
(25.904 2.78829 -1.03552e-17)
(25.901 2.79424 -1.10194e-17)
(25.8974 2.80061 2.45122e-17)
(25.8933 2.80734 -7.53745e-18)
(25.8887 2.81453 -3.70177e-18)
(25.8835 2.82196 3.34927e-18)
(25.878 2.83005 -9.93445e-19)
(25.873 2.8369 -1.7045e-17)
(25.8686 2.84419 -1.06643e-17)
(25.8635 2.84978 -2.51645e-17)
(25.8584 2.86048 -2.96377e-17)
(25.8525 2.86301 2.45106e-17)
(25.8481 2.88276 6.2062e-17)
(25.8411 2.87224 -1.98493e-17)
(25.8397 2.91894 2.48524e-19)
(25.8299 2.86389 -6.36973e-17)
(25.837 2.992 4.53272e-19)
(25.8234 2.79855 3.10368e-17)
(25.8312 3.16814 2.90996e-18)
(25.9085 2.57871 -2.28255e-16)
(25.8841 2.77432 6.3627e-20)
(25.8842 2.77418 1.09668e-19)
(25.8844 2.77401 -1.20314e-19)
(25.8845 2.77384 -1.62473e-19)
(25.8847 2.77366 -1.07431e-19)
(25.8848 2.77349 9.90286e-20)
(25.885 2.7733 6.37426e-20)
(25.8851 2.7731 -1.8285e-19)
(25.8853 2.77288 -3.06823e-19)
(25.8854 2.77267 1.46993e-19)
(25.8856 2.77244 -1.44509e-19)
(25.8857 2.77219 3.81959e-19)
(25.8855 2.77191 -1.26764e-19)
(25.8846 2.7716 7.08597e-21)
(25.8832 2.77126 -1.1183e-19)
(25.8827 2.771 1.19792e-19)
(25.8865 2.771 -2.50621e-19)
(25.8989 2.77147 2.50413e-19)
(25.9216 2.77239 -1.37866e-19)
(25.9481 2.77314 -3.07863e-19)
(25.9577 2.77213 1.09611e-19)
(25.9164 2.76679 4.69103e-20)
(25.7871 2.75418 2.37779e-19)
(25.5494 2.73234 -6.58812e-19)
(25.2174 2.70173 -1.46975e-19)
(24.8429 2.66595 1.21863e-18)
(24.5043 2.63143 6.87593e-19)
(24.2849 2.60607 4.88028e-19)
(24.2477 2.59697 9.94932e-19)
(24.4109 2.60776 1.05804e-20)
(24.7369 2.63667 1.69054e-18)
(25.1405 2.67653 -6.46402e-19)
(25.5186 2.71693 1.38376e-18)
(25.7897 2.74828 6.74757e-19)
(25.926 2.76577 1.1332e-18)
(25.9564 2.77085 6.62645e-19)
(25.9366 2.76898 1.92679e-18)
(25.9119 2.76566 2.63812e-19)
(25.9007 2.76376 1.83163e-18)
(25.9007 2.76352 1.31651e-18)
(25.904 2.76406 -3.79901e-19)
(25.9059 2.76463 2.42184e-19)
(25.9062 2.76507 -1.43657e-18)
(25.9059 2.76552 -1.9944e-20)
(25.9058 2.76612 -6.07904e-19)
(25.9059 2.7669 1.34736e-19)
(25.906 2.76785 4.94801e-20)
(25.906 2.76898 -4.92258e-19)
(25.9059 2.77031 4.1468e-19)
(25.9056 2.77186 -1.38417e-18)
(25.9052 2.77365 1.48631e-18)
(25.9046 2.7757 1.07635e-19)
(25.9038 2.77803 -3.92545e-18)
(25.9027 2.78065 -1.61942e-18)
(25.9013 2.78359 -4.15123e-18)
(25.8995 2.78687 3.5402e-18)
(25.8974 2.7905 -1.66648e-17)
(25.8949 2.7945 -2.83829e-18)
(25.892 2.79888 -3.01862e-18)
(25.8886 2.80366 8.27868e-18)
(25.8848 2.80885 -1.86053e-17)
(25.8805 2.81443 1.3524e-17)
(25.8756 2.82047 -9.43026e-18)
(25.8704 2.8268 -2.40639e-17)
(25.8649 2.83383 -1.40597e-17)
(25.86 2.83984 1.23906e-17)
(25.8556 2.84636 1.45033e-17)
(25.8507 2.85137 2.50364e-18)
(25.8458 2.86119 3.53641e-17)
(25.8402 2.86346 -1.07159e-18)
(25.836 2.88207 -4.46497e-17)
(25.8296 2.87208 -2.32014e-17)
(25.8285 2.91693 -1.76644e-17)
(25.8194 2.86399 4.29645e-17)
(25.827 2.98893 -1.57087e-18)
(25.8144 2.79988 9.10551e-17)
(25.8229 3.16554 -8.03155e-19)
(25.8996 2.58134 2.19538e-16)
(25.8981 2.79816 -2.88e-20)
(25.8982 2.79801 -1.19969e-19)
(25.8983 2.79785 -1.17062e-22)
(25.8983 2.79768 9.28549e-20)
(25.8984 2.7975 -4.41682e-20)
(25.8985 2.79732 7.92597e-20)
(25.8986 2.79712 -1.46999e-19)
(25.8986 2.79692 -1.13282e-19)
(25.8987 2.7967 2.65869e-19)
(25.8988 2.79648 -2.64698e-19)
(25.8988 2.79624 -6.04906e-20)
(25.8989 2.796 -4.66045e-20)
(25.899 2.79574 3.53617e-19)