/*--------------------------------*- C++ -*----------------------------------*\
| =========                 |                                                 |
| \\      /  F ield         | OpenFOAM: The Open Source CFD Toolbox           |
|  \\    /   O peration     | Version:  2306                                  |
|   \\  /    A nd           | Website:  www.openfoam.com                      |
|    \\/     M anipulation  |                                                 |
\*---------------------------------------------------------------------------*/
FoamFile
{
    version     2.0;
    format      ascii;
    arch        "LSB;label=32;scalar=64";
    class       volSymmTensorField;
    location    "200";
    object      turbulenceProperties:devReff;
}
// * * * * * * * * * * * * * * * * * * * * * * * * * * * * * * * * * * * * * //

dimensions      [0 2 -2 0 0 0 0];

internalField   nonuniform List<symmTensor> 
10720
(
(0.00162288 0.00419555 -1.00775e-21 -0.0017575 -2.21263e-20 0.000134622)
(0.00236391 0.00480891 3.61183e-22 -0.00246045 1.3874e-19 9.6541e-05)
(0.00356975 0.00538146 -2.81823e-20 -0.00376426 -4.29073e-19 0.000194518)
(0.00518309 0.00612572 1.18395e-19 -0.00542578 8.66455e-19 0.000242687)
(0.00733473 0.00677659 -2.22954e-19 -0.00759992 -8.22065e-19 0.000265188)
(0.0102785 0.00716199 -1.70836e-19 -0.0106651 -4.45577e-19 0.000386573)
(0.0141311 0.00727602 3.2365e-19 -0.0146116 1.23706e-18 0.000480487)
(0.0189709 0.00676968 -8.23598e-19 -0.0195469 -2.23431e-18 0.000576035)
(0.0249655 0.0052812 -2.04235e-19 -0.0257042 5.95779e-19 0.000738631)
(0.0322256 0.00256626 6.0877e-19 -0.0331168 1.24636e-18 0.000891165)
(0.0409176 -0.00189506 1.56436e-18 -0.0419987 5.72874e-19 0.00108105)
(0.0514398 -0.00867138 -3.5186e-18 -0.0527465 -3.26497e-18 0.0013067)
(0.0643133 -0.0186691 6.65809e-19 -0.065893 8.60292e-19 0.0015797)
(0.0804402 -0.0334606 2.66243e-18 -0.0823791 1.26223e-18 0.00193887)
(0.101309 -0.0556587 -4.04208e-18 -0.103754 -6.3046e-18 0.00244511)
(0.129195 -0.0895962 -4.33313e-18 -0.132343 -2.55326e-18 0.003148)
(0.167843 -0.143532 1.89599e-17 -0.172107 1.75477e-17 0.00426466)
(0.222042 -0.230538 1.78381e-17 -0.227882 3.3342e-17 0.00584001)
(0.305617 -0.383223 -3.48297e-17 -0.314125 -5.36969e-17 0.00850795)
(0.423491 -0.639643 -1.5923e-18 -0.435668 1.44154e-17 0.0121772)
(0.647138 -1.1846 -2.67849e-17 -0.66622 5.01238e-17 0.0190825)
(0.94396 -2.12508 -8.96793e-18 -0.970611 4.03364e-17 0.0266518)
(1.68523 -4.92521 -1.41113e-16 -1.73619 -5.84355e-16 0.0509605)
(2.42908 -10.3431 3.18722e-16 -2.51592 5.2813e-16 0.0868472)
(1.59546 -12.0863 3.92553e-17 -1.64343 -6.94922e-16 0.0479751)
(0.571141 -11.7651 3.78657e-16 -0.564049 5.62923e-16 -0.00709129)
(-0.13482 -11.5397 -7.83708e-17 0.162068 -7.7526e-17 -0.0272484)
(-0.678238 -11.6714 2.73884e-16 0.701441 2.26474e-16 -0.0232029)
(-1.168 -11.8496 7.41569e-16 1.18325 1.19136e-15 -0.0152407)
(-1.61748 -11.8303 4.26532e-16 1.62511 1.97375e-15 -0.00763492)
(-2.01205 -11.5769 -1.43234e-15 2.01021 -1.91025e-15 0.00183913)
(-2.33202 -11.1293 -4.9235e-16 2.32158 -7.18157e-16 0.0104454)
(-2.55533 -10.4824 1.94489e-18 2.54012 -4.394e-15 0.0152061)
(-2.66943 -9.64918 -2.61494e-15 2.65354 -7.23526e-15 0.0158964)
(-2.65562 -8.61987 1.0042e-15 2.64091 9.16992e-16 0.0147117)
(-2.50313 -7.42256 1.25276e-15 2.49166 1.15497e-15 0.0114704)
(-2.14439 -5.85918 -1.24344e-16 2.13084 -5.32172e-16 0.0135574)
(-1.64992 -4.3253 -1.57466e-15 1.64742 -2.31274e-17 0.00250077)
(-0.506204 -1.00217 -1.88082e-16 0.506951 -1.98366e-15 -0.000747136)
(0.000963432 0.00365943 2.57805e-21 -0.00101458 5.482e-20 5.11505e-05)
(0.000551053 0.00315112 -3.6826e-21 -0.0006397 -4.56928e-22 8.86466e-05)
(0.000186028 0.00257392 -2.07593e-20 -0.00023233 -1.34818e-19 4.63026e-05)
(-5.65474e-05 0.00206021 6.45892e-21 2.29298e-05 9.17988e-20 3.36176e-05)
(-0.00016663 0.00157463 3.54261e-21 0.000148703 -1.69021e-20 1.79264e-05)
(-0.000159447 0.00115097 -3.52045e-20 0.000160503 1.13777e-19 -1.05545e-06)
(-7.16234e-05 0.000824125 -2.01107e-19 9.65457e-05 1.61793e-19 -2.49223e-05)
(6.5051e-05 0.00063031 1.39527e-19 -2.76786e-05 -5.54842e-20 -3.73724e-05)
(0.000242465 0.000621264 2.27335e-19 -0.000217114 -1.15276e-19 -2.53517e-05)
(0.000485097 0.000746496 -1.51492e-19 -0.00048221 3.73914e-20 -2.88729e-06)
(0.000830244 0.00103615 -3.90491e-20 -0.000840878 1.81809e-19 1.06338e-05)
(0.0013303 0.0015839 2.49838e-19 -0.00134846 1.01854e-19 1.81535e-05)
(0.0020571 0.00255608 4.59612e-19 -0.00208779 -7.19232e-20 3.06969e-05)
(0.00310033 0.00418652 -1.03053e-20 -0.00315241 -2.57224e-19 5.20836e-05)
(0.00453143 0.00671899 -7.67402e-20 -0.00460731 -1.73806e-19 7.58799e-05)
(0.00637251 0.0104443 3.11967e-20 -0.00648243 -5.91383e-20 0.000109923)
(0.00873119 0.0157862 -2.00874e-19 -0.00887848 6.68973e-19 0.000147293)
(0.0118589 0.0236437 7.45022e-19 -0.0120591 2.73525e-19 0.000200176)
(0.0163094 0.0357825 3.29613e-19 -0.0165804 -1.2149e-18 0.00027105)
(0.022914 0.0555186 -1.33122e-18 -0.0233084 -3.42089e-19 0.000394419)
(0.0332797 0.0894929 -4.47482e-18 -0.0338767 -2.01331e-18 0.000596981)
(0.0495747 0.149996 -3.3651e-18 -0.050564 -8.90199e-19 0.000989308)
(0.0765424 0.266594 6.28158e-18 -0.0783394 -5.9301e-19 0.00179706)
(0.117517 0.492815 -7.59498e-18 -0.121191 1.22302e-18 0.00367395)
(0.185465 0.991067 4.11731e-18 -0.193403 -7.13739e-18 0.00793785)
(0.281028 2.03945 -1.27716e-16 -0.297581 2.8508e-18 0.0165525)
(0.415299 4.58929 -7.91644e-17 -0.454257 1.21052e-17 0.0389586)
(0.424931 9.45029 6.64986e-17 -0.505875 6.79256e-19 0.0809442)
(0.0081362 13.3615 8.74061e-18 -0.112636 -1.04025e-19 0.1045)
(-0.631173 15.0153 6.28939e-17 0.532711 -6.93331e-20 0.0984618)
(-1.27198 15.448 -4.38748e-16 1.18967 -4.60313e-18 0.0823087)
(-1.85892 15.4655 1.57692e-16 1.79153 2.12988e-17 0.0673931)
(-2.38445 15.3014 -1.89548e-15 2.3286 -1.55204e-16 0.0558459)
(-2.8413 14.9991 -3.46899e-15 2.79436 -2.30885e-16 0.046948)
(-3.22751 14.5744 1.06234e-15 3.18715 1.1e-16 0.0403677)
(-3.54718 14.0488 1.02762e-15 3.51189 1.63839e-16 0.0352953)
(-3.78497 13.3222 1.45431e-15 3.75286 2.669e-16 0.0321119)
(-3.92847 12.5005 -2.91305e-16 3.89843 -3.66327e-17 0.0300444)
(-3.64926 10.0903 -4.56555e-15 3.64277 -7.85429e-16 0.00649306)
(0.000578647 -0.000457654 1.29456e-22 -0.000519793 3.9612e-21 -5.88547e-05)
(0.000492279 -0.000544575 2.8857e-20 -0.000425696 7.00509e-20 -6.65829e-05)
(0.000371606 -0.000620318 -2.66784e-20 -0.000291861 -4.71107e-20 -7.97447e-05)
(0.000251044 -0.000649876 -1.82609e-20 -0.000159709 -5.15915e-20 -9.13347e-05)
(0.000133893 -0.000643225 1.21882e-19 -3.38912e-05 2.36258e-19 -0.000100002)
(2.40016e-05 -0.00060901 4.7485e-20 8.47323e-05 7.3683e-20 -0.000108734)
(-5.94615e-05 -0.000550305 2.25006e-19 0.000175789 2.06829e-19 -0.000116328)
(-0.000115939 -0.00047823 -1.16049e-19 0.000237214 -2.24169e-20 -0.000121275)
(-0.000148793 -0.000404214 1.64248e-19 0.00027354 1.13938e-19 -0.000124747)
(-0.000157739 -0.000335563 -5.80107e-21 0.000284456 2.42285e-22 -0.000126718)
(-0.000150128 -0.000277806 -2.22391e-19 0.000276605 -1.89972e-19 -0.000126477)
(-0.00013286 -0.000238734 2.85999e-19 0.00025859 3.55758e-19 -0.000125729)
(-0.000111191 -0.00022377 1.75105e-19 0.000240091 8.79676e-20 -0.0001289)
(-8.70488e-05 -0.000241301 -3.63966e-20 0.000229974 1.95751e-20 -0.000142925)
(-5.1377e-05 -0.000333384 -2.20452e-19 0.000239484 3.64124e-20 -0.000188107)
(5.04702e-05 -0.000630077 4.61372e-19 0.000260035 5.27317e-19 -0.000310505)
(0.00041228 -0.00147269 8.20013e-19 0.000165188 -9.02286e-19 -0.000577468)
(0.00139842 -0.00340258 -4.31227e-18 -0.000416289 -5.56439e-18 -0.000982135)
(0.00388858 -0.00819638 5.06458e-19 -0.00226947 7.17017e-18 -0.00161911)
(0.00985101 -0.020232 7.22031e-18 -0.00729269 -2.03855e-18 -0.00255832)
(0.0267719 -0.0576965 1.46367e-17 -0.0225096 5.86399e-18 -0.00426228)
(0.0691187 -0.165443 -2.3158e-17 -0.0628286 -2.15454e-17 -0.00629012)
(0.175313 -0.496616 7.04832e-17 -0.167373 1.70258e-16 -0.00794002)
(0.456665 -1.63447 1.98466e-19 -0.451942 -1.40166e-16 -0.00472373)
(0.68894 -3.29289 -2.58973e-16 -0.7076 1.53131e-16 0.0186601)
(0.735453 -5.0445 -9.82247e-17 -0.783691 -6.05841e-16 0.0482387)
(0.571313 -6.72121 2.02048e-19 -0.637863 7.06195e-17 0.0665494)
(0.206768 -7.96295 -2.84674e-16 -0.277798 -4.15618e-16 0.0710299)
(-0.264662 -8.30081 -4.86811e-16 0.202047 -2.69276e-15 0.062615)
(-0.668909 -7.68501 -1.69444e-16 0.628832 -3.39549e-15 0.0400771)
(-0.898799 -6.55637 5.14409e-16 0.889374 4.73404e-15 0.00942486)
(-0.972947 -5.37882 -9.36625e-16 0.989566 -5.81507e-17 -0.0166181)
(-0.963292 -4.41625 -7.16363e-15 0.992619 1.32495e-15 -0.0293268)
(-0.912545 -3.68327 8.66981e-15 0.942764 1.54609e-14 -0.0302192)
(-0.848091 -3.12718 -1.47068e-15 0.872918 -8.10233e-16 -0.0248272)
(-0.769366 -2.69476 3.40763e-15 0.790284 -4.96845e-15 -0.020918)
(-0.720412 -2.39209 -1.50365e-15 0.734171 1.51495e-15 -0.0137587)
(-0.559358 -2.11704 3.27543e-15 0.594142 4.09413e-16 -0.0347841)
(-0.766789 -2.21641 5.4277e-15 0.680944 7.33756e-15 0.0858445)
(0.000644385 -0.000342186 9.36168e-21 -0.000594677 2.28293e-20 -4.97081e-05)
(0.000682647 -0.000221881 -1.27104e-20 -0.000636266 -9.6185e-20 -4.63815e-05)
(0.000689435 -7.39387e-05 -1.87462e-20 -0.000652969 -1.0948e-19 -3.64651e-05)
(0.000651536 8.8658e-05 -7.19275e-21 -0.000625529 1.654e-19 -2.60072e-05)
(0.000561949 0.000236774 2.32511e-21 -0.000548402 4.23794e-20 -1.35465e-05)
(0.000425958 0.000349608 3.8531e-20 -0.000422745 -1.47981e-19 -3.21351e-06)
(0.000268648 0.000405801 6.87606e-20 -0.00027227 -2.25223e-19 3.62193e-06)
(0.000129707 0.000406527 -3.19444e-19 -0.000138906 9.25703e-21 9.19963e-06)
(2.12159e-05 0.000373543 4.69302e-20 -3.16009e-05 2.14302e-19 1.03851e-05)
(-6.7835e-05 0.000315282 1.10175e-22 6.19339e-05 -1.27075e-19 5.90109e-06)
(-0.00012251 0.000242541 -8.2057e-20 0.000124281 -7.80511e-20 -1.77064e-06)
(-0.000142018 0.000175867 -5.97126e-20 0.000150605 -8.36706e-20 -8.58746e-06)
(-0.00014003 0.000123819 -1.10233e-20 0.000153038 1.86315e-20 -1.30082e-05)
(-0.000127497 8.62263e-05 3.72826e-20 0.000142944 9.99071e-20 -1.54465e-05)
(-0.000110885 6.06519e-05 6.45564e-20 0.000127501 2.459e-20 -1.66168e-05)
(-9.39995e-05 4.39014e-05 -9.22719e-20 0.000110895 -4.32859e-21 -1.68952e-05)
(-7.84933e-05 3.33873e-05 8.30795e-20 9.50238e-05 8.19522e-21 -1.65305e-05)
(-6.52172e-05 2.6944e-05 -1.0038e-20 8.09669e-05 -2.85172e-20 -1.57496e-05)
(-5.41817e-05 2.28538e-05 -3.40551e-20 6.8922e-05 5.33749e-20 -1.47403e-05)
(-4.51569e-05 2.01164e-05 -2.59442e-20 5.88586e-05 2.78517e-20 -1.37017e-05)
(-3.78919e-05 1.81029e-05 -6.23716e-20 5.06833e-05 6.91669e-20 -1.27913e-05)
(-3.25894e-05 1.66511e-05 -8.76357e-20 4.48881e-05 4.49858e-20 -1.22987e-05)
(-2.91277e-05 1.57121e-05 -1.25982e-19 4.16759e-05 1.09641e-20 -1.25482e-05)
(-2.68221e-05 1.57025e-05 5.62852e-20 4.05158e-05 5.12374e-21 -1.36937e-05)
(-2.45767e-05 1.74907e-05 -4.02709e-21 3.97137e-05 5.35161e-21 -1.5137e-05)
(-0.000240639 0.000221043 5.39985e-19 0.000414463 1.36082e-19 -0.000173825)
(-0.00122766 0.00140556 2.76987e-18 0.00222566 -1.94743e-19 -0.000997993)
(-0.00881861 0.0123148 1.09885e-18 0.0165506 -4.31572e-19 -0.007732)
(-0.0264688 0.0467622 -7.58644e-19 0.0504654 9.44793e-20 -0.0239967)
(-0.0451757 0.104061 5.0119e-17 0.0854837 2.17318e-18 -0.040308)
(-0.0581805 0.172423 4.05223e-16 0.105682 9.2228e-18 -0.0475019)
(-0.0661964 0.237205 2.40874e-16 0.111561 1.33279e-17 -0.0453651)
(-0.073283 0.291427 1.77038e-15 0.112362 1.20682e-16 -0.0390791)
(-0.0823125 0.336999 2.55494e-15 0.115127 1.64107e-16 -0.032814)
(-0.0945398 0.377425 -5.73189e-16 0.122567 -9.54069e-17 -0.0280269)
(-0.108891 0.417634 -4.92744e-16 0.134104 -8.57458e-17 -0.0252132)
(-0.129298 0.458301 -1.22955e-15 0.152135 -5.14333e-16 -0.0228366)
(-0.147867 0.55508 -2.53319e-15 0.174824 -4.39613e-18 -0.0269577)
(-0.208544 0.781061 -2.04761e-15 0.197992 1.36499e-15 0.0105516)
(0.000334148 -0.000310485 1.75055e-21 -0.000360181 2.46227e-21 2.60333e-05)
(0.000259274 -0.000369978 -2.73484e-20 -0.000290758 -6.58946e-20 3.14835e-05)
(0.000162252 -0.000411428 -5.96404e-21 -0.00019896 -3.15788e-21 3.67082e-05)
(5.39342e-05 -0.000424543 2.28767e-20 -9.83382e-05 4.90093e-20 4.44041e-05)
(-5.21992e-05 -0.000411652 -7.1908e-20 1.80536e-06 -1.45736e-19 5.03938e-05)
(-0.000152296 -0.000371498 -8.17609e-20 9.59196e-05 -1.33843e-19 5.6376e-05)
(-0.000236312 -0.000308025 -1.65903e-19 0.00017332 -2.44857e-19 6.29919e-05)
(-0.000297341 -0.000230755 -1.32712e-20 0.000229 -2.03049e-21 6.83413e-05)
(-0.000335181 -0.000145868 -7.31253e-20 0.000262244 -1.73222e-19 7.29371e-05)
(-0.000350496 -6.1932e-05 3.04784e-19 0.000273501 3.4639e-19 7.69954e-05)
(-0.000346382 1.54356e-05 -4.97875e-20 0.000266743 6.78239e-20 7.96389e-05)
(-0.00032907 8.25809e-05 3.4236e-20 0.000248399 2.0908e-20 8.06709e-05)
(-0.000304967 0.000137799 -2.32727e-19 0.000225384 -2.95982e-19 7.95826e-05)
(-0.000278778 0.000183108 1.49757e-19 0.000201728 -1.38937e-20 7.70493e-05)
(-0.000251728 0.000217354 4.34731e-20 0.000179168 1.35089e-19 7.25594e-05)
(-0.00022115 0.000235991 5.3239e-20 0.000156129 2.54622e-20 6.50209e-05)
(-0.000179068 0.000228464 -2.42662e-19 0.000126488 -1.41276e-19 5.25804e-05)
(-0.000157082 0.000232708 2.17299e-19 0.000112391 1.62183e-19 4.46903e-05)
(-9.69371e-05 0.000162602 4.85711e-20 7.12126e-05 4.72465e-22 2.57246e-05)
(-8.36838e-05 0.000154196 -1.96152e-19 6.4015e-05 -2.92765e-20 1.96689e-05)
(-0.00168939 0.00333934 4.95133e-18 0.00135981 -1.95864e-18 0.000329575)
(-8.84162e-05 0.000183719 9.35288e-21 7.59109e-05 1.6375e-19 1.25054e-05)
(-1.20005e-05 2.15991e-05 3.99411e-20 1.20527e-05 -5.95217e-20 -5.22085e-08)
(0.000825691 -0.00301945 -1.81097e-18 -0.000650096 -1.93825e-18 -0.000175595)
(0.00930928 -0.040418 3.90546e-18 -0.00782643 1.32046e-17 -0.00148285)
(0.0260033 -0.153695 -2.488e-17 -0.0223904 6.42032e-18 -0.00361292)
(0.0447115 -0.406853 1.3213e-17 -0.0391606 9.55877e-19 -0.00555085)
(0.0546195 -0.938634 -1.22708e-17 -0.047714 6.80881e-17 -0.00690543)
(0.0233237 -1.89867 -4.01998e-16 -0.0165016 2.21691e-16 -0.00682208)
(-0.102424 -3.21854 1.94116e-16 0.106273 3.242e-16 -0.00384847)
(-0.344819 -4.47867 1.48338e-15 0.341223 -5.50122e-16 0.00359547)
(-0.635333 -5.16407 -2.6435e-15 0.622696 2.0716e-15 0.0126365)
(-0.852103 -5.11331 5.13451e-16 0.836828 8.97026e-15 0.0152751)
(-0.93964 -4.60911 -5.10626e-17 0.930392 -6.15809e-15 0.00924812)
(-0.929948 -3.99172 2.99369e-15 0.927644 -2.27314e-15 0.0023039)
(-0.851122 -3.41202 -1.41119e-14 0.853695 5.44417e-16 -0.00257216)
(-0.775212 -2.95941 4.88507e-15 0.774396 -1.62119e-15 0.00081583)
(-0.521054 -2.48769 5.08181e-15 0.536133 -1.5297e-15 -0.0150791)
(-0.8156 -2.74043 -1.00983e-14 0.797985 2.90786e-15 0.017615)
(0.000395295 -0.000234533 -3.59315e-21 -0.000419036 -6.83661e-21 2.37405e-05)
(0.000435183 -0.000152218 -1.34422e-20 -0.000454227 -1.84521e-20 1.90445e-05)
(0.000459166 -5.13707e-05 5.62776e-20 -0.000473815 1.19652e-19 1.46491e-05)
(0.000453496 5.5966e-05 1.13387e-20 -0.000462726 -1.45857e-20 9.2293e-06)
(0.000414049 0.000161634 7.82166e-21 -0.000419359 -8.86911e-20 5.31093e-06)
(0.000340103 0.000248638 -2.5086e-20 -0.000341978 6.50382e-20 1.87493e-06)
(0.000242149 0.000302913 2.53523e-20 -0.000241814 1.45171e-19 -3.34475e-07)
(0.000139388 0.000319437 1.57752e-19 -0.000140151 1.66665e-19 7.62411e-07)
(4.67183e-05 0.000308625 5.44895e-20 -4.81348e-05 -1.32467e-19 1.41649e-06)
(-2.93656e-05 0.000272901 1.16509e-19 2.83094e-05 6.98448e-20 1.05625e-06)
(-7.90553e-05 0.000220298 -8.34392e-20 7.76769e-05 2.15759e-20 1.37847e-06)
(-0.000102817 0.000165994 -1.17359e-20 0.000100233 6.99722e-20 2.58388e-06)
(-0.000108694 0.00011852 6.05842e-21 0.000104531 -6.32929e-20 4.16322e-06)
(-0.000103948 8.02778e-05 1.13792e-19 9.80812e-05 -7.96042e-20 5.86707e-06)
(-9.38312e-05 5.14543e-05 8.20122e-21 8.65469e-05 -1.232e-20 7.28427e-06)
(-8.17841e-05 3.05648e-05 -1.25908e-20 7.33137e-05 5.18856e-20 8.47033e-06)
(-6.99666e-05 1.60345e-05 8.16991e-20 6.06443e-05 -9.53158e-20 9.32228e-06)
(-5.94877e-05 6.01961e-06 1.31328e-20 4.95495e-05 1.14712e-20 9.93815e-06)
(-5.08275e-05 -9.9184e-07 9.39216e-20 4.05476e-05 -6.75401e-21 1.02798e-05)
(-4.37234e-05 -6.26575e-06 1.00328e-19 3.31973e-05 2.19599e-20 1.05262e-05)
(-3.78858e-05 -1.05462e-05 2.566e-19 2.72258e-05 -3.40355e-20 1.066e-05)
(-3.27579e-05 -1.45609e-05 3.31621e-19 2.19151e-05 -5.01927e-20 1.08428e-05)
(-2.76049e-05 -1.87558e-05 1.96912e-19 1.64712e-05 1.64767e-20 1.11337e-05)
(-2.09465e-05 -2.26797e-05 4.52816e-20 9.03315e-06 -9.16159e-21 1.19133e-05)
(-1.28217e-05 -2.48428e-05 -4.86588e-20 -4.25794e-07 2.31413e-20 1.32475e-05)
(-4.68364e-06 -2.40987e-05 1.8174e-19 -9.61371e-06 -2.90361e-20 1.42973e-05)
(2.2822e-06 -2.2526e-05 -4.8943e-20 -1.81736e-05 -4.52041e-21 1.58914e-05)
(5.52941e-06 -1.37752e-05 -3.13489e-20 -1.77104e-05 6.3314e-22 1.2181e-05)
(5.87225e-05 -7.5773e-05 2.87446e-20 -0.000149618 -8.4158e-22 9.08952e-05)
(0.000490521 -0.000274809 -1.4677e-18 -0.00113282 -5.22154e-20 0.000642304)
(0.0014681 0.000456911 -8.77477e-18 -0.00325742 -3.07224e-20 0.00178932)
(0.00232748 0.00480877 -5.5432e-17 -0.00524645 -3.20353e-18 0.00291897)
(0.0018491 0.0157232 -1.35542e-16 -0.00506784 -4.10859e-18 0.00321875)
(-0.000735779 0.0347738 -3.36639e-16 -0.00185021 -2.25193e-17 0.00258599)
(-0.00562583 0.0615623 -8.60326e-16 0.00409572 -7.82518e-17 0.0015301)
(-0.0114606 0.0938669 2.16757e-16 0.0109734 -1.67016e-17 0.000487247)
(-0.0192472 0.128629 -1.1783e-15 0.0192227 2.09397e-16 2.44668e-05)
(-0.00963323 0.155072 2.96004e-15 0.0104742 5.35152e-16 -0.000840987)
(-0.0376787 0.263334 4.6537e-15 0.0296236 9.54281e-16 0.00805509)
(0.000305903 -0.000256318 9.48279e-21 -0.000296666 1.6151e-20 -9.23618e-06)
(0.000259193 -0.000304193 -1.31755e-20 -0.000248981 -2.37297e-20 -1.02125e-05)
(0.000196122 -0.000345582 -5.99905e-21 -0.000183047 -3.45342e-21 -1.30751e-05)
(0.000125513 -0.000372498 7.12962e-20 -0.000109848 1.04223e-19 -1.56656e-05)
(5.2495e-05 -0.000381107 4.54403e-20 -3.38492e-05 8.21075e-20 -1.86458e-05)
(-2.03943e-05 -0.000371649 5.77427e-20 4.25145e-05 1.10297e-19 -2.21202e-05)
(-8.5671e-05 -0.000346039 8.79799e-20 0.000111314 1.01653e-19 -2.5643e-05)
(-0.000138502 -0.000307289 -5.03745e-20 0.000167671 -7.81321e-20 -2.9169e-05)
(-0.000177408 -0.000259998 -1.80456e-19 0.000210373 -1.7862e-19 -3.29654e-05)
(-0.000201071 -0.000209545 2.34058e-19 0.000237451 1.31841e-19 -3.63803e-05)
(-0.000210762 -0.000159832 1.97017e-19 0.000250363 1.66771e-19 -3.96011e-05)
(-0.00020865 -0.000114029 2.55044e-19 0.000250899 1.22176e-19 -4.2249e-05)
(-0.000197263 -7.42453e-05 -4.19574e-19 0.000241289 -1.34415e-19 -4.4026e-05)
(-0.000179564 -4.13048e-05 -3.57214e-19 0.000224222 -2.39796e-19 -4.46576e-05)
(-0.000157618 -1.5227e-05 4.7259e-19 0.000202016 1.48573e-19 -4.43973e-05)
(-0.000133073 7.09363e-06 9.55317e-20 0.000175257 5.87528e-20 -4.21839e-05)
(-0.000107685 2.60488e-05 -7.09449e-20 0.000145986 7.34469e-21 -3.83013e-05)
(-8.50898e-05 4.23641e-05 -2.30932e-19 0.000118542 -1.51325e-19 -3.34519e-05)
(-6.04656e-05 5.25387e-05 5.10154e-20 8.53309e-05 -1.95665e-20 -2.48654e-05)
(-4.3068e-05 5.83714e-05 2.04313e-19 5.9684e-05 6.30417e-20 -1.6616e-05)
(-3.65408e-05 6.87627e-05 -2.67722e-19 4.77317e-05 -7.6965e-20 -1.11909e-05)
(-3.84705e-05 9.15688e-05 1.44241e-19 4.6927e-05 2.04058e-20 -8.45645e-06)
(-3.55436e-05 0.000109982 -4.37408e-20 4.17552e-05 -9.48036e-21 -6.2116e-06)
(-0.000158061 0.000747063 -5.80737e-19 0.000190086 2.87205e-19 -3.2025e-05)
(-0.000499056 0.00563199 3.06117e-18 0.000730633 -9.8307e-19 -0.000231576)
(0.0004228 0.0120171 -6.58124e-18 9.13646e-05 8.78916e-18 -0.000514164)
(9.9404e-06 6.02429e-05 4.84012e-22 -7.09266e-06 -1.032e-21 -2.84773e-06)
(0.000181557 0.000400007 3.37237e-19 -0.000152045 -1.20248e-19 -2.95116e-05)
(0.00335716 -0.00423916 4.9678e-18 -0.00296538 1.23013e-17 -0.000391779)
(0.00912959 -0.0733209 2.16353e-17 -0.00807742 -1.02178e-16 -0.00105218)
(0.00345583 -0.363964 -5.85702e-17 -0.00153138 -3.43535e-16 -0.00192446)
(-0.0574652 -1.06027 1.86206e-15 0.0599476 4.92485e-16 -0.00248244)
(-0.220093 -2.09071 2.75153e-15 0.22129 6.25187e-16 -0.00119723)
(-0.454948 -3.0144 -1.57111e-15 0.452415 -2.12193e-15 0.00253226)
(-0.658568 -3.46208 -7.00721e-15 0.653084 1.38041e-15 0.005484)
(-0.748037 -3.45606 4.64188e-15 0.745202 4.73436e-15 0.00283476)
(-0.765644 -3.268 -9.88286e-15 0.761015 -1.30085e-16 0.00462904)
(-0.556913 -2.90657 -1.27569e-14 0.566516 1.84564e-15 -0.00960365)
(-0.783283 -3.09877 9.12801e-15 0.755471 -3.42951e-15 0.0278119)
(0.000341576 -0.000196642 -1.46012e-20 -0.000335396 -2.95841e-20 -6.18027e-06)
(0.000363826 -0.000133572 -5.10712e-21 -0.000358476 2.05969e-20 -5.35043e-06)
(0.000372186 -5.56835e-05 4.82985e-20 -0.000369609 9.13762e-20 -2.57668e-06)
(0.000362595 2.64577e-05 -2.09699e-20 -0.000361365 -8.42976e-22 -1.23006e-06)
(0.000330909 0.000106525 1.79571e-20 -0.000331051 1.13684e-19 1.41762e-07)
(0.000276927 0.000174992 5.55799e-20 -0.000277188 -1.67814e-20 2.60719e-07)
(0.000207282 0.00022301 5.94272e-20 -0.000207041 -1.63455e-21 -2.41195e-07)
(0.00013269 0.000246153 -1.47173e-19 -0.000132758 -8.88036e-20 6.71974e-08)
(6.08485e-05 0.000246307 -7.96914e-20 -6.16516e-05 6.9825e-21 8.03135e-07)
(-1.43945e-06 0.000225705 1.34044e-19 3.10414e-07 5.91375e-20 1.12903e-06)
(-4.66399e-05 0.000191278 6.19746e-20 4.56716e-05 -5.17549e-21 9.68241e-07)
(-7.40209e-05 0.000152796 7.38002e-20 7.35466e-05 -4.54299e-20 4.74274e-07)
(-8.71393e-05 0.000116694 -1.14808e-19 8.74374e-05 -7.36014e-20 -2.98128e-07)
(-9.03494e-05 8.58472e-05 -1.41402e-19 9.15181e-05 2.6929e-20 -1.16871e-06)
(-8.73332e-05 6.13129e-05 1.31764e-20 8.94081e-05 3.69947e-20 -2.07486e-06)
(-8.10409e-05 4.26591e-05 4.36081e-20 8.39255e-05 -1.29676e-20 -2.88465e-06)
(-7.35243e-05 2.90384e-05 -1.07712e-19 7.7141e-05 -8.09633e-21 -3.61668e-06)
(-6.60448e-05 1.92621e-05 -3.9426e-21 7.02635e-05 -1.69775e-20 -4.2187e-06)
(-5.92928e-05 1.2166e-05 -4.12298e-20 6.40037e-05 -7.90026e-21 -4.71086e-06)
(-5.33952e-05 6.69863e-06 8.69243e-20 5.84404e-05 -4.96233e-20 -5.04526e-06)
(-4.82989e-05 2.18443e-06 -9.47673e-20 5.36044e-05 -3.22045e-20 -5.30549e-06)
(-4.37258e-05 -1.95187e-06 -1.96529e-19 4.92227e-05 -2.25171e-20 -5.49686e-06)
(-3.92073e-05 -6.05086e-06 9.1429e-21 4.48762e-05 -2.94017e-20 -5.66887e-06)
(-3.40291e-05 -9.86522e-06 5.05334e-20 3.98095e-05 -2.83149e-20 -5.78039e-06)
(-2.84002e-05 -1.22593e-05 1.52702e-19 3.44568e-05 -1.06841e-20 -6.05656e-06)
(-2.34484e-05 -1.29999e-05 -1.43199e-19 3.01095e-05 -7.86777e-21 -6.66112e-06)
(-1.95422e-05 -1.28563e-05 -2.4567e-20 2.68871e-05 7.45068e-21 -7.34496e-06)
(-1.65297e-05 -1.23442e-05 1.48233e-20 2.45246e-05 1.21508e-21 -7.99492e-06)
(-1.36648e-05 -1.13969e-05 -6.84006e-21 2.18833e-05 -2.59463e-22 -8.21854e-06)
(-1.09335e-05 -1.02353e-05 -1.00238e-20 1.88467e-05 3.74668e-22 -7.91319e-06)
(-7.29253e-06 -7.97782e-06 -1.56817e-20 1.35328e-05 -9.37943e-22 -6.24027e-06)
(-4.13777e-06 -5.63931e-06 4.55812e-20 8.48197e-06 1.34124e-21 -4.3442e-06)
(-3.05128e-05 -5.73598e-05 2.0464e-18 7.81478e-05 1.37192e-19 -4.7635e-05)
(4.68238e-07 -4.18895e-05 1.90889e-17 0.00011001 1.7595e-18 -0.000110478)
(0.000240533 0.000622904 7.94972e-17 -0.000140316 1.0361e-17 -0.000100217)
(0.00089118 0.00340441 -1.75397e-16 -0.000951339 -2.6684e-17 6.016e-05)
(0.00159051 0.0114161 7.50437e-16 -0.00207846 1.10907e-16 0.000487949)
(0.00679939 0.0282955 -4.90424e-16 -0.00729702 -1.69564e-16 0.000497628)
(-0.00285835 0.105558 -3.31168e-16 -0.00196438 -1.41898e-15 0.00482273)
(0.000222709 -0.000194736 -1.35332e-20 -0.000225659 -2.00296e-20 2.95034e-06)
(0.000184459 -0.000230256 2.6416e-21 -0.00018874 4.15638e-21 4.28041e-06)
(0.000135004 -0.000259955 1.61205e-20 -0.000139753 1.75317e-20 4.74905e-06)
(7.87898e-05 -0.000278025 -9.88557e-20 -8.48512e-05 -1.39844e-19 6.06146e-06)
(1.99236e-05 -0.000282344 -7.23751e-20 -2.73595e-05 -8.4574e-20 7.43593e-06)
(-3.92968e-05 -0.000272326 1.68953e-19 3.05899e-05 2.01759e-19 8.70696e-06)
(-9.35928e-05 -0.00024867 -1.79277e-19 8.31647e-05 -2.22101e-19 1.0428e-05)
(-0.000139067 -0.000213553 -8.09492e-20 0.0001268 -5.39551e-20 1.22667e-05)
(-0.000173479 -0.000169952 -1.92634e-19 0.00015938 -1.44054e-19 1.4099e-05)
(-0.000195486 -0.000122058 -3.59574e-20 0.000179302 -6.52681e-20 1.6184e-05)
(-0.000205193 -7.33047e-05 2.4129e-20 0.000186928 -8.66591e-21 1.82645e-05)
(-0.000203753 -2.6847e-05 -1.32063e-19 0.000183408 -1.74803e-19 2.0345e-05)
(-0.000193154 1.4773e-05 4.295e-19 0.00017082 2.93936e-19 2.23336e-05)
(-0.000175774 5.00211e-05 -1.4132e-19 0.00015175 -2.46652e-20 2.40241e-05)
(-0.0001539 7.86691e-05 -3.46467e-19 0.000128487 -1.51428e-19 2.5413e-05)
(-0.000129992 9.9802e-05 2.29726e-19 0.000104118 4.51805e-21 2.58738e-05)
(-0.000105625 0.000112579 -1.66869e-19 8.08097e-05 -9.62039e-20 2.48153e-05)
(-8.14668e-05 0.000117834 2.23268e-21 5.86869e-05 1.22193e-19 2.27798e-05)
(-5.93087e-05 0.000117988 -4.03075e-20 3.90766e-05 -3.16525e-20 2.02321e-05)
(-3.86158e-05 0.000110515 -2.83301e-19 2.18961e-05 -1.9587e-19 1.67197e-05)
(-2.16179e-05 9.54516e-05 1.99838e-19 9.41342e-06 1.94409e-19 1.22045e-05)
(-1.02082e-05 7.2519e-05 3.90847e-21 3.04197e-06 -1.18608e-19 7.16622e-06)
(-5.47353e-06 6.78662e-05 3.8365e-20 7.10859e-07 1.17528e-20 4.76267e-06)
(-1.18855e-06 7.68941e-05 1.11149e-19 -2.67349e-06 -5.04414e-21 3.86204e-06)
(4.85047e-06 8.3466e-05 -3.7483e-20 -7.95463e-06 -1.20215e-20 3.10416e-06)
(1.02193e-05 8.55804e-05 1.2618e-19 -1.24468e-05 2.02412e-20 2.22752e-06)
(1.32739e-05 8.57893e-05 -6.95871e-21 -1.46373e-05 1.64109e-22 1.36349e-06)
(1.93047e-05 0.000111761 -1.82352e-20 -2.02376e-05 -1.13971e-20 9.32877e-07)
(0.00104088 0.00539239 7.21515e-21 -0.00105698 1.41575e-18 1.61004e-05)
(0.00034341 0.00149814 -4.3068e-18 -0.000341791 3.56118e-19 -1.61969e-06)
(0.00153063 0.00502716 -5.88845e-18 -0.00150906 9.94074e-19 -2.15748e-05)
(0.0085328 0.0136501 2.06811e-17 -0.00837387 -1.22779e-16 -0.000158929)
(0.0190238 -0.0549257 4.70732e-16 -0.018393 -5.86452e-16 -0.000630852)
(-0.0102397 -0.432574 -2.57009e-15 0.0118776 1.34783e-16 -0.00163789)
(-0.140897 -1.22876 4.37292e-15 0.142704 1.6655e-15 -0.00180728)
(-0.345646 -2.11786 -9.14734e-16 0.346645 4.10546e-16 -0.000998661)
(-0.534384 -2.72742 -1.62419e-15 0.530874 3.84459e-15 0.00351009)
(-0.497377 -2.91379 6.73587e-16 0.507289 2.49157e-16 -0.00991219)
(-0.737584 -3.24729 -1.68695e-14 0.701241 4.25698e-15 0.0363425)
(0.000252936 -0.000151519 8.65392e-21 -0.000256031 3.41282e-21 3.0946e-06)
(0.000273777 -0.00010524 -3.12951e-20 -0.000275503 -4.45995e-20 1.72589e-06)
(0.000285072 -4.84388e-05 3.85287e-21 -0.000286662 2.0277e-20 1.58979e-06)
(0.000282579 1.28345e-05 1.7238e-20 -0.00028339 -5.72916e-20 8.10543e-07)
(0.000263381 7.39271e-05 -1.39219e-19 -0.000263941 -1.98622e-19 5.59807e-07)
(0.000226831 0.000128051 -1.42563e-19 -0.000226808 7.4068e-20 -2.34594e-08)
(0.000177083 0.000168784 1.99079e-19 -0.000176758 1.02289e-19 -3.25109e-07)
(0.000121507 0.00019226 -6.47035e-20 -0.000121401 -1.85683e-19 -1.05493e-07)
(6.56964e-05 0.000198502 -8.73125e-20 -6.5871e-05 2.48112e-20 1.74612e-07)
(1.51458e-05 0.000188412 -5.94369e-20 -1.54759e-05 -1.0329e-19 3.30136e-07)
(-2.42425e-05 0.000166429 2.06445e-20 2.39417e-05 3.16215e-20 3.00752e-07)
(-5.0865e-05 0.000138775 -3.94557e-20 5.05845e-05 -5.09167e-20 2.80472e-07)
(-6.60898e-05 0.000110395 -8.15766e-20 6.57518e-05 1.08739e-19 3.37993e-07)
(-7.24573e-05 8.42511e-05 8.66847e-20 7.19755e-05 4.97721e-20 4.81747e-07)
(-7.25688e-05 6.19611e-05 7.32208e-20 7.18751e-05 -3.35572e-20 6.93769e-07)
(-6.88546e-05 4.39302e-05 -1.50472e-20 6.78759e-05 -2.98674e-20 9.78735e-07)
(-6.31614e-05 2.99316e-05 4.37009e-20 6.18695e-05 9.54069e-21 1.2919e-06)
(-5.68262e-05 1.92931e-05 -6.49383e-20 5.52137e-05 1.65694e-20 1.61249e-06)
(-5.06611e-05 1.12311e-05 4.59758e-20 4.8751e-05 -1.30328e-21 1.91007e-06)
(-4.50044e-05 4.94703e-06 -6.03893e-20 4.28179e-05 -2.77999e-20 2.18652e-06)
(-3.992e-05 -1.80693e-07 5.8416e-20 3.75073e-05 4.67823e-21 2.41273e-06)
(-3.52233e-05 -4.65692e-06 7.80577e-20 3.26199e-05 1.67414e-20 2.60343e-06)
(-3.05398e-05 -8.76911e-06 -5.60211e-21 2.77861e-05 7.11307e-21 2.75372e-06)
(-2.52698e-05 -1.23593e-05 -1.46445e-19 2.23162e-05 2.80018e-22 2.95357e-06)
(-1.94241e-05 -1.46359e-05 -5.43739e-20 1.62385e-05 -2.2781e-20 3.18562e-06)
(-1.38398e-05 -1.53447e-05 -1.60423e-20 1.04665e-05 2.42156e-20 3.37328e-06)
(-8.95819e-06 -1.50809e-05 5.93922e-20 5.2793e-06 6.71186e-22 3.67889e-06)
(-4.74546e-06 -1.42455e-05 2.11995e-21 6.42401e-07 -4.63143e-22 4.10306e-06)
(-1.17059e-06 -1.3181e-05 -3.35239e-21 -3.42319e-06 2.68577e-22 4.59378e-06)
(1.69299e-06 -1.13202e-05 3.75803e-20 -6.43361e-06 2.22898e-22 4.74062e-06)
(4.44845e-06 -1.19047e-05 3.34385e-20 -1.01578e-05 1.09097e-21 5.70933e-06)
(3.23685e-06 -5.82949e-06 -8.96275e-20 -6.12998e-06 -5.02595e-21 2.89313e-06)
(1.22204e-05 -1.77273e-05 -7.82905e-19 -2.04067e-05 -6.05325e-20 8.18633e-06)
(8.75312e-05 -0.000109996 -1.07273e-18 -0.000129975 -1.23132e-19 4.24434e-05)
(0.000246999 -0.000269549 2.07851e-18 -0.000326484 3.97094e-20 7.94846e-05)
(0.000253048 -0.000205897 -4.02965e-18 -0.000293421 1.56465e-18 4.03734e-05)
(0.000441937 -0.000157178 -2.1598e-17 -0.000477191 -1.78679e-17 3.52536e-05)
(0.00090734 0.000209871 5.41075e-17 -0.000885994 3.86923e-18 -2.13461e-05)
(0.003878 0.0200457 -2.93572e-16 -0.00527452 5.28902e-17 0.00139652)
(0.000184054 -0.00015985 1.18791e-20 -0.000182969 1.37214e-20 -1.08451e-06)
(0.000155966 -0.000188571 -2.98278e-20 -0.000154988 -3.56521e-20 -9.7836e-07)
(0.000118898 -0.000213836 -2.38442e-21 -0.00011733 -5.00386e-21 -1.56794e-06)
(7.65269e-05 -0.000231358 -1.23458e-20 -7.46728e-05 -6.56513e-21 -1.85416e-06)
(3.16213e-05 -0.000239055 9.84135e-20 -2.93964e-05 1.12956e-19 -2.22489e-06)
(-1.47451e-05 -0.00023654 7.54072e-20 1.76694e-05 6.22462e-20 -2.92426e-06)
(-5.85528e-05 -0.000223889 1.05234e-21 6.21117e-05 3.02837e-20 -3.55884e-06)
(-9.6864e-05 -0.00020218 1.8722e-19 0.000101187 1.81091e-19 -4.3226e-06)
(-0.000127959 -0.000173262 -2.32951e-20 0.000133269 -3.0643e-21 -5.30989e-06)