/*--------------------------------*- C++ -*----------------------------------*\
| =========                 |                                                 |
| \\      /  F ield         | OpenFOAM: The Open Source CFD Toolbox           |
|  \\    /   O peration     | Version:  2306                                  |
|   \\  /    A nd           | Website:  www.openfoam.com                      |
|    \\/     M anipulation  |                                                 |
\*---------------------------------------------------------------------------*/
FoamFile
{
    version     2.0;
    format      ascii;
    arch        "LSB;label=32;scalar=64";
    class       volSymmTensorField;
    location    "200";
    object      turbulenceProperties:R;
}
// * * * * * * * * * * * * * * * * * * * * * * * * * * * * * * * * * * * * * //

dimensions      [0 2 -2 0 0 0 0];

internalField   nonuniform List<symmTensor> 
10720
(
(0.0143232 0.00301373 -7.23884e-22 0.011895 -1.58936e-20 0.0132542)
(0.0170793 0.00358179 2.69017e-22 0.013486 1.03336e-19 0.0153905)
(0.0208287 0.00416191 -2.17956e-20 0.0151567 -3.31836e-19 0.0182183)
(0.0259426 0.00491338 9.49637e-20 0.0174333 6.94976e-19 0.0219799)
(0.0322453 0.00562373 -1.85024e-19 0.0198514 -6.82212e-19 0.0263785)
(0.0404911 0.0061302 -1.46224e-19 0.0225647 -3.81385e-19 0.0320242)
(0.0511633 0.00640093 2.84724e-19 0.0258776 1.08828e-18 0.0391545)
(0.0644942 0.00609501 -7.41517e-19 0.0298152 -2.01163e-18 0.0479326)
(0.0813345 0.0048484 -1.87498e-19 0.0348173 5.46954e-19 0.059093)
(0.102517 0.00239429 5.67976e-19 0.0415535 1.16284e-18 0.0732826)
(0.129287 -0.00179199 1.47927e-18 0.0508802 5.41716e-19 0.0916168)
(0.163817 -0.00829281 -3.36499e-18 0.0641794 -3.12243e-18 0.115873)
(0.208996 -0.0180235 6.42784e-19 0.0832922 8.30542e-19 0.148432)
(0.269656 -0.0325614 2.59088e-18 0.111213 1.2283e-18 0.193264)
(0.353886 -0.0545252 -3.95977e-18 0.152999 -6.17621e-18 0.257035)
(0.474697 -0.0882557 -4.26829e-18 0.217072 -2.51506e-18 0.350536)
(0.655566 -0.142015 1.87595e-17 0.319209 1.73622e-17 0.493717)
(0.93144 -0.228883 1.77101e-17 0.484746 3.31027e-17 0.71679)
(1.39479 -0.381475 -3.46708e-17 0.777877 -5.34519e-17 1.09904)
(2.13025 -0.637854 -1.58785e-18 1.27349 1.43751e-17 1.72008)
(3.65222 -1.18284 -2.6745e-17 2.34083 5.00491e-17 3.02511)
(6.11931 -2.1234 -8.96085e-18 4.20625 4.03046e-17 5.20273)
(13.2687 -4.92368 -1.41069e-16 9.84832 -5.84173e-16 11.6349)
(26.0595 -10.3417 3.18679e-16 21.1152 5.2806e-16 23.7176)
(28.6914 -12.085 3.92511e-17 25.4529 -6.94849e-16 27.1441)
(26.7434 -11.7639 3.78618e-16 25.6083 5.62865e-16 26.1652)
(25.5086 -11.5385 -7.83627e-17 25.8055 -7.7518e-17 25.6162)
(25.3011 -11.6703 2.73857e-16 26.6807 2.26451e-16 25.9561)
(25.2913 -11.8485 7.41497e-16 27.6424 1.19125e-15 26.444)
(24.9156 -11.8292 4.26491e-16 28.1578 1.97356e-15 26.5252)
(24.0975 -11.5758 -1.43221e-15 28.1193 -1.91007e-15 26.1112)
(22.9323 -11.1282 -4.92303e-16 27.5855 -7.18088e-16 25.2746)
(21.415 -10.4814 1.9447e-18 26.51 -4.39356e-15 23.9853)
(19.572 -9.6482 -2.61467e-15 24.8944 -7.23453e-15 22.257)
(17.3815 -8.61895 1.0041e-15 22.6775 9.16894e-16 20.0515)
(14.8984 -7.42172 1.25262e-15 19.8926 1.15484e-15 17.4127)
(11.7141 -5.85844 -1.24328e-16 15.9888 -5.32105e-16 13.8717)
(8.6352 -4.32468 -1.57444e-15 11.9321 -2.3124e-17 10.2874)
(1.9886 -1.00187 -1.88027e-16 3.00145 -1.98307e-15 2.4939)
(0.0118846 0.00252697 1.78024e-21 0.0105187 3.78552e-20 0.0112546)
(0.0100069 0.00208535 -2.43708e-21 0.00921893 -3.02386e-22 0.00970093)
(0.00798306 0.00161591 -1.30327e-20 0.00772041 -8.4639e-20 0.00789534)
(0.0063047 0.00121595 3.8121e-21 0.00635161 5.41804e-20 0.00635792)
(0.00479947 0.000861827 1.93895e-21 0.00497205 -9.25088e-21 0.00490048)
(0.00350303 0.000574502 -1.75722e-20 0.00366273 5.67914e-20 0.00358209)
(0.00249522 0.000369154 -9.00827e-20 0.00257055 7.24725e-20 0.00251614)
(0.00192763 0.000255798 5.66241e-20 0.00188999 -2.25171e-20 0.00188606)
(0.00212968 0.000277557 1.01565e-19 0.00192436 -5.15009e-20 0.00201003)
(0.00300015 0.000388296 -7.87996e-20 0.002497 1.94494e-20 0.00274632)
(0.00458152 0.000631345 -2.37933e-20 0.00356328 1.10779e-19 0.00408212)
(0.00703235 0.00111003 1.75091e-19 0.00515502 7.13812e-20 0.00611277)
(0.0106488 0.00199903 3.59449e-19 0.00740722 -5.6249e-20 0.00906403)
(0.0158618 0.00354152 -8.71764e-21 0.0105724 -2.17594e-19 0.0132832)
(0.0231845 0.00598867 -6.83989e-20 0.015039 -1.54914e-19 0.0192132)
(0.0333599 0.00963302 2.87735e-20 0.0215035 -5.45447e-20 0.0275838)
(0.0477259 0.0149005 -1.89604e-19 0.0311042 6.3144e-19 0.0396236)
(0.0688159 0.0226893 7.14951e-19 0.0458633 2.62485e-19 0.0576278)
(0.101368 0.0347648 3.20238e-19 0.069414 -1.18034e-18 0.0857862)
(0.15376 0.054441 -1.30538e-18 0.108434 -3.35449e-19 0.131677)
(0.242691 0.0883586 -4.4181e-18 0.176386 -1.98779e-18 0.210423)
(0.397858 0.148807 -3.33842e-18 0.298513 -8.83141e-19 0.349658)
(0.690274 0.265351 6.25231e-18 0.536114 -5.90246e-19 0.615877)
(1.24113 0.491522 -7.57505e-18 1.00305 1.21981e-18 1.12758)
(2.42459 0.98973 4.11176e-18 2.04623 -7.12776e-18 2.2473)
(4.85559 2.03808 -1.2763e-16 4.27737 2.84888e-18 4.59129)
(10.657 4.58789 -7.91403e-17 9.78767 1.21015e-17 10.2807)
(21.4495 9.44887 6.64886e-17 20.5189 6.79155e-19 21.1056)
(29.6994 13.36 8.73968e-18 29.5787 -1.04014e-19 29.7958)
(32.7597 15.0139 6.28879e-17 33.9234 -6.93265e-20 33.4892)
(33.1638 15.4466 -4.38708e-16 35.6253 -4.6027e-18 34.518)
(32.7451 15.4641 1.57677e-16 36.3952 2.12969e-17 34.6712)
(32.017 15.3 -1.8953e-15 36.7296 -1.5519e-16 34.4571)
(31.0706 14.9977 -3.46867e-15 36.7058 -2.30864e-16 33.9586)
(29.9326 14.5731 1.06224e-15 36.3467 1.0999e-16 33.2002)
(28.6401 14.0475 1.02752e-15 35.6985 1.63823e-16 32.2223)
(26.9794 13.3209 1.45417e-15 34.5165 2.66875e-16 30.7961)
(25.1776 12.4993 -2.91276e-16 33.0037 -3.66291e-17 29.1357)
(20.1905 10.0893 -4.56506e-15 27.4817 -7.85344e-16 23.8458)
(0.0022608 -0.000154411 4.36782e-23 0.00189018 1.3365e-21 0.0020457)
(0.00221817 -0.000181211 9.60237e-21 0.00191271 2.33099e-20 0.0020322)
(0.00215305 -0.000203779 -8.76406e-21 0.00193509 -1.54762e-20 0.00200477)
(0.00205416 -0.000211168 -5.93363e-21 0.00192069 -1.67639e-20 0.00194291)
(0.00192516 -0.000206342 3.90987e-20 0.00187134 7.579e-20 0.00185013)
(0.00178576 -0.000193017 1.50497e-20 0.001805 2.33528e-20 0.00174369)
(0.00163657 -0.000172815 7.06598e-20 0.00171045 6.49514e-20 0.00161871)
(0.00148085 -0.000148948 -3.61443e-20 0.00159084 -6.98188e-21 0.00147919)
(0.00133382 -0.000125431 5.09677e-20 0.00146488 3.5356e-20 0.00134129)
(0.00119638 -0.0001044 -1.80483e-21 0.00133396 7.53797e-23 0.00120603)
(0.00107067 -8.6821e-05 -6.95024e-20 0.00120403 -5.93707e-20 0.00107806)
(0.000982563 -7.73406e-05 9.26526e-20 0.00110938 1.15252e-19 0.000984873)
(0.000966863 -8.20015e-05 6.41681e-20 0.00109559 3.22361e-20 0.000960373)
(0.00105921 -0.000110288 -1.66353e-20 0.00120411 8.94695e-21 0.00103367)
(0.00137708 -0.000203937 -1.34855e-19 0.001555 2.22742e-20 0.00129344)
(0.00221745 -0.000490928 3.59481e-19 0.00238073 4.10862e-19 0.00193619)
(0.00441409 -0.00131013 7.29496e-19 0.00419428 -8.02687e-19 0.0035336)
(0.00967733 -0.0032007 -4.05642e-18 0.00797028 -5.23425e-18 0.00743801)
(0.0234727 -0.00793501 4.90308e-19 0.017511 6.94153e-18 0.0181406)
(0.058465 -0.0198866 7.09704e-18 0.041614 -2.00374e-18 0.0462676)
(0.165601 -0.0572377 1.45203e-17 0.116712 5.81736e-18 0.134814)
(0.463797 -0.164844 -2.30742e-17 0.332328 -2.14674e-17 0.388661)
(1.34102 -0.495868 7.03771e-17 0.998851 1.70001e-16 1.15804)
(4.22434 -1.63362 1.98363e-19 3.31621 -1.40093e-16 3.76319)
(8.16726 -3.29201 -2.58904e-16 6.7711 1.5309e-16 7.49716)
(12.071 -5.04366 -9.82084e-17 10.5521 -6.05741e-16 11.3839)
(15.5675 -6.72045 2.02025e-19 14.3585 7.06115e-17 15.0628)
(17.9105 -7.96228 -2.8465e-16 17.4259 -4.15582e-16 17.7747)
(18.1888 -8.30023 -4.86777e-16 18.6555 -2.69258e-15 18.516)
(16.4691 -7.68453 -1.69434e-16 17.7668 -3.39528e-15 17.1781)
(13.805 -6.55597 5.14378e-16 15.593 4.73375e-15 14.7131)
(11.1767 -5.37849 -9.36568e-16 13.1391 -5.81471e-17 12.133)
(9.08825 -4.41598 -7.16319e-15 11.044 1.32487e-15 10.0222)
(7.52823 -3.68304 8.66927e-15 9.38343 1.54599e-14 8.41051)
(6.35956 -3.12698 -1.47058e-15 8.08046 -8.10181e-16 7.18277)
(5.46472 -2.69458 3.40741e-15 7.02427 -4.96812e-15 6.21312)
(4.83547 -2.39193 -1.50355e-15 6.28995 1.51484e-15 5.54207)
(4.31771 -2.11689 3.27519e-15 5.47112 4.09384e-16 4.84224)
(4.42216 -2.21624 5.4273e-15 5.86978 7.33702e-15 5.27473)
(0.00226643 -0.000116701 3.19275e-21 0.00184386 7.78579e-21 0.00202972)
(0.00225475 -7.67524e-05 -4.39675e-21 0.00179851 -3.3272e-20 0.00200256)
(0.00220313 -2.58804e-05 -6.56163e-21 0.00173326 -3.83207e-20 0.00194905)
(0.00210934 3.15189e-05 -2.55711e-21 0.00165533 5.88017e-20 0.00186847)
(0.00196552 8.54866e-05 8.39473e-22 0.00156464 1.53009e-20 0.00175774)
(0.001767 0.000128157 1.41244e-20 0.00145589 -5.42458e-20 0.00160968)
(0.00153365 0.000150905 2.55701e-20 0.0013325 -8.3754e-20 0.00143509)
(0.00131164 0.00015299 -1.20218e-19 0.00121056 3.48373e-21 0.00126629)
(0.00111093 0.000139533 1.75303e-20 0.0010912 8.00503e-20 0.00110688)
(0.000919145 0.000115926 4.05099e-23 0.000966859 -4.67239e-20 0.000946256)
(0.000749513 8.725e-05 -2.95187e-20 0.000838292 -2.80776e-20 0.000792947)
(0.000613773 6.15393e-05 -2.08947e-20 0.000716168 -2.9278e-20 0.000660463)
(0.000506023 4.1907e-05 -3.73088e-21 0.000605213 6.30589e-21 0.000549014)
(0.000418456 2.80502e-05 1.21284e-20 0.000506433 3.25007e-20 0.000454907)
(0.0003463 1.87892e-05 1.99987e-20 0.000420149 7.61768e-21 0.000375503)
(0.000286466 1.27943e-05 -2.6891e-20 0.000346179 -1.26149e-21 0.000308937)
(0.000236135 8.96472e-06 2.23075e-20 0.000282726 2.20048e-21 0.000252773)
(0.000193633 6.46567e-06 -2.4088e-21 0.000228713 -6.84317e-21 0.000205504)
(0.000156287 4.63469e-06 -6.9063e-21 0.000181252 1.08243e-20 0.000164285)
(0.000121872 3.12596e-06 -4.03157e-21 0.000138035 4.32798e-21 0.00012676)
(8.72178e-05 1.75121e-06 -6.0336e-21 9.57862e-05 6.69097e-21 8.96459e-05)
(5.23919e-05 6.688e-07 -3.51993e-21 5.55038e-05 1.80688e-21 5.32068e-05)
(1.84744e-05 8.41992e-08 -6.75121e-22 1.88538e-05 5.87553e-23 1.85633e-05)
(3.03131e-06 2.28962e-09 8.20708e-24 3.04113e-06 7.47104e-25 3.03323e-06)
(9.09463e-06 2.24175e-08 -5.16142e-24 9.17702e-06 6.85903e-24 9.10672e-06)
(0.000870717 0.000200222 4.8912e-19 0.00146411 1.23264e-19 0.000931238)
(0.00465855 0.00138064 2.72076e-18 0.00805065 -1.9129e-19 0.00488415)
(0.0380781 0.0122857 1.09626e-18 0.0633875 -4.30554e-19 0.0391621)
(0.129978 0.0467294 -7.58113e-19 0.206858 9.44131e-20 0.132448)
(0.259044 0.104025 5.01017e-17 0.389658 2.17243e-18 0.26391)
(0.394537 0.172384 4.05131e-16 0.558362 9.2207e-18 0.405213)
(0.516576 0.237162 2.40831e-16 0.694302 1.33255e-17 0.537404)
(0.618661 0.29138 1.7701e-15 0.804276 1.20662e-16 0.652859)
(0.705565 0.336948 2.55455e-15 0.902974 1.64082e-16 0.755056)
(0.783056 0.37737 -5.73105e-16 1.00013 -9.53929e-17 0.849559)
(0.861185 0.417575 -4.92674e-16 1.10415 -8.57336e-17 0.944851)
(0.938659 0.458237 -1.22938e-15 1.22005 -5.14262e-16 1.04511)
(1.13968 0.555006 -2.53286e-15 1.46233 -4.39555e-18 1.26058)
(1.58511 0.780962 -2.04735e-15 1.99159 1.36482e-15 1.80417)
(0.00151348 -0.000119481 6.73647e-22 0.00124629 9.4753e-22 0.00139491)
(0.00147356 -0.000142614 -1.05418e-20 0.00126155 -2.54001e-20 0.00138576)
(0.001405 -0.000158867 -2.30293e-21 0.00126553 -1.21937e-21 0.00135653)
(0.00131554 -0.000164237 8.85002e-21 0.00125664 1.89596e-20 0.00131186)
(0.00122456 -0.000159613 -2.78814e-20 0.0012455 -5.65074e-20 0.00126434)
(0.00113076 -0.000144408 -3.17819e-20 0.00122724 -5.20272e-20 0.00121187)
(0.00104235 -0.000120078 -6.46744e-20 0.00120203 -9.54533e-20 0.00115902)
(0.000968229 -9.02554e-05 -5.19077e-21 0.0011741 -7.94187e-22 0.00111126)
(0.000909935 -5.72756e-05 -2.87129e-20 0.00114452 -6.80161e-20 0.00107018)
(0.000869856 -2.44276e-05 1.20215e-19 0.00111598 1.36625e-19 0.00103847)
(0.000844955 6.12049e-06 -1.97416e-20 0.00108807 2.68934e-20 0.00101388)
(0.000835558 3.29547e-05 1.36622e-20 0.001066 8.34354e-21 0.000999069)
(0.000839814 5.53793e-05 -9.3529e-20 0.00105295 -1.1895e-19 0.000994358)
(0.000856172 7.44687e-05 6.09054e-20 0.00105159 -5.65049e-21 0.00100088)
(0.000871617 8.86822e-05 1.77374e-20 0.00104743 5.51176e-20 0.00100393)
(0.000858102 9.27401e-05 2.09219e-20 0.00100637 1.00062e-20 0.000970562)
(0.000754077 7.46381e-05 -7.92766e-20 0.000853901 -4.61542e-20 0.000829755)
(0.000727879 7.25281e-05 6.77257e-20 0.000811866 5.05476e-20 0.000790765)
(9.67448e-05 1.26704e-06 3.78479e-22 9.80551e-05 3.68158e-24 9.77006e-05)
(2.23481e-07 7.2973e-12 -9.2829e-27 2.23488e-07 -1.38551e-27 2.23486e-07)
(0.00640646 0.00320601 4.75364e-18 0.00933392 -1.88044e-18 0.00834482)
(0.000578975 9.26681e-05 4.7176e-21 0.000661862 8.25956e-20 0.00062988)
(1.45834e-05 2.19665e-07 4.06205e-22 1.4828e-05 -6.05342e-22 1.47049e-05)
(0.00759741 -0.00294834 -1.76832e-18 0.00615637 -1.8926e-18 0.0066197)
(0.100855 -0.0402576 3.88996e-18 0.0837877 1.31522e-17 0.0901061)
(0.371401 -0.153462 -2.48422e-17 0.32308 6.41058e-18 0.341829)
(0.953125 -0.406562 1.32035e-17 0.869313 9.55193e-19 0.902898)
(2.14293 -0.938298 -1.22664e-17 2.04063 6.80637e-17 2.08143)
(4.24207 -1.89831 -4.01921e-16 4.20225 2.21648e-16 4.21193)
(7.05283 -3.21816 1.94093e-16 7.26151 3.24162e-16 7.1514)
(9.63616 -4.47831 1.48326e-15 10.3221 -5.50078e-16 9.98454)
(10.9246 -5.16374 -2.64333e-15 12.1825 2.07147e-15 11.5725)
(10.6642 -5.11303 5.13422e-16 12.3531 8.96975e-15 11.5316)
(9.511 -4.60887 -5.10599e-17 11.3809 -6.15777e-15 10.4598)
(8.17708 -3.99152 2.99354e-15 10.0346 -2.27302e-15 9.10929)
(6.96382 -3.41184 -1.41112e-14 8.66856 5.4439e-16 7.81233)
(6.02261 -2.95926 4.88482e-15 7.57214 -1.62111e-15 6.7986)
(5.13053 -2.48757 5.08155e-15 6.18767 -1.52962e-15 5.63648)
(5.53267 -2.74029 -1.00978e-14 7.14618 2.90772e-15 6.36584)
(0.00154782 -9.01396e-05 -1.38098e-21 0.00123484 -2.62756e-21 0.00140502)
(0.0015613 -5.83956e-05 -5.15684e-21 0.00122009 -7.07883e-21 0.00140165)
(0.00156662 -1.96797e-05 2.15596e-20 0.0012092 4.58377e-20 0.00139633)
(0.00153946 2.13951e-05 4.33466e-21 0.0011892 -5.57594e-21 0.00136962)
(0.00148006 6.16783e-05 2.98469e-21 0.00116203 -3.38439e-20 0.00132409)
(0.0013772 9.46902e-05 -9.55362e-21 0.00111744 2.47688e-20 0.00124839)
(0.00123767 0.000115151 9.63753e-21 0.00105369 5.5186e-20 0.00114549)
(0.00108288 0.000121254 5.98805e-20 0.000976769 6.3264e-20 0.00103026)
(0.000940247 0.000117221 2.06959e-20 0.00090422 -5.03131e-20 0.000923041)
(0.000799867 0.00010382 4.43234e-20 0.000821808 2.6571e-20 0.00081144)
(0.00066125 8.39797e-05 -3.18079e-20 0.000720998 8.22496e-21 0.000691912)
(0.000536471 6.34313e-05 -4.48464e-21 0.000614062 2.67384e-20 0.000576747)
(0.00043063 4.5422e-05 2.32184e-21 0.000512346 -2.42565e-20 0.000473881)
(0.000343168 3.08653e-05 4.37508e-20 0.000420845 -3.06063e-20 0.00038539)
(0.000273348 1.98548e-05 3.16462e-21 0.000342951 -4.75396e-21 0.000312366)
(0.000218525 1.18408e-05 -4.87769e-21 0.000278611 2.01006e-20 0.00025349)
(0.000176788 6.23951e-06 3.17915e-20 0.000227613 -3.70902e-20 0.000207642)
(0.000145752 2.35425e-06 5.1362e-21 0.000188397 4.48636e-21 0.000172905)
(0.000123602 -3.90223e-07 3.69519e-20 0.000159552 -2.65725e-21 0.000147643)
(0.000108047 -2.48282e-06 3.97553e-20 0.000138527 8.70164e-21 0.000129544)
(9.76965e-05 -4.21675e-06 1.02597e-19 0.00012373 -1.36086e-20 0.000117107)
(9.15039e-05 -5.88804e-06 1.34099e-19 0.000113612 -2.02966e-20 0.000109135)
(8.90132e-05 -7.70298e-06 8.08717e-20 0.000107115 6.76697e-21 0.000104923)
(8.92636e-05 -9.46461e-06 1.88967e-20 0.000101775 -3.82328e-21 0.000102977)
(9.25321e-05 -1.0582e-05 -2.07267e-20 9.78123e-05 9.85722e-21 0.000103637)
(9.54781e-05 -1.0037e-05 7.56941e-20 9.34248e-05 -1.20934e-20 0.000103384)
(0.000104531 -9.44151e-06 -2.05139e-20 9.59573e-05 -1.89468e-21 0.000110235)
(6.2316e-05 -2.70903e-06 -6.16509e-21 5.77456e-05 1.24514e-22 6.36241e-05)
(0.000490269 -6.79805e-05 2.57886e-20 0.000303354 -7.55032e-22 0.000519133)
(0.00331594 -0.000271432 -1.44967e-18 0.00171254 -5.15739e-20 0.00346586)
(0.00944808 0.00045542 -8.74613e-18 0.00473799 -3.06222e-20 0.00976826)
(0.0190263 0.00480246 -5.53593e-17 0.0114623 -3.19933e-18 0.019617)
(0.0391716 0.0157122 -1.35448e-16 0.0322595 -4.10573e-18 0.0405403)
(0.0769943 0.0347584 -3.3649e-16 0.0758803 -2.25094e-17 0.0803146)
(0.131658 0.0615427 -8.60051e-16 0.141376 -7.82269e-17 0.138812)
(0.198573 0.0938433 2.16703e-16 0.221001 -1.66974e-17 0.210518)
(0.269716 0.128602 -1.17805e-15 0.308178 2.09352e-16 0.288984)
(0.335643 0.155043 2.95949e-15 0.355747 5.35052e-16 0.344433)
(0.552791 0.263293 4.65296e-15 0.620083 9.54131e-16 0.598518)
(0.0012838 -9.69169e-05 3.58555e-21 0.00105596 6.10688e-21 0.00116464)
(0.00126853 -0.000114993 -4.98068e-21 0.00107643 -8.97042e-21 0.00116669)
(0.0012388 -0.000130633 -2.26769e-21 0.00109547 -1.30542e-21 0.00115972)
(0.00120237 -0.000140814 2.69519e-20 0.0011134 3.9399e-20 0.001149)
(0.00115477 -0.000144083 1.71794e-20 0.00112212 3.1042e-20 0.00112787)
(0.00109743 -0.000140546 2.18365e-20 0.00112122 4.17111e-20 0.00109678)
(0.00103562 -0.000130927 3.3288e-20 0.00111015 3.84614e-20 0.00105833)
(0.000969274 -0.000116345 -1.90727e-20 0.0010852 -2.95822e-20 0.00101067)
(0.000901545 -9.854e-05 -6.83932e-20 0.00104852 -6.76974e-20 0.000956289)
(0.000833931 -7.95268e-05 8.88301e-20 0.00100036 5.00364e-20 0.000896434)
(0.00076726 -6.07693e-05 7.49073e-20 0.000942583 6.34073e-20 0.000832337)
(0.000701691 -4.34566e-05 9.71975e-20 0.000876825 4.65615e-20 0.000765106)
(0.000636852 -2.8381e-05 -1.60386e-19 0.000804493 -5.13815e-20 0.000695429)
(0.000572751 -1.58498e-05 -1.37073e-19 0.000727694 -9.20164e-20 0.000624518)
(0.000509456 -5.87263e-06 1.82265e-19 0.000648158 5.73007e-20 0.000553123)
(0.000443442 2.74977e-06 3.70319e-20 0.000562963 2.27749e-20 0.000478674)
(0.000378153 9.99637e-06 -2.72255e-20 0.000475501 2.81857e-21 0.000404779)
(0.000325035 1.59058e-05 -8.67043e-20 0.000401489 -5.68154e-20 0.000344423)
(0.000248258 1.50258e-05 1.45901e-20 0.000289955 -5.59591e-21 0.00025844)
(0.000157955 7.52132e-06 2.63263e-20 0.000171195 8.12309e-21 0.000161363)
(1.39756e-07 5.64538e-12 -2.19798e-26 1.39763e-07 -6.31878e-27 1.39758e-07)
(6.51864e-05 1.09551e-06 1.72567e-21 6.6208e-05 2.4413e-22 6.55454e-05)
(2.91535e-06 1.9502e-09 -7.75611e-25 2.91672e-06 -1.68106e-25 2.91587e-06)
(0.00181709 0.000631075 -4.90573e-19 0.00211118 2.42614e-19 0.00192356)
(0.0119077 0.00552635 3.00375e-18 0.0131143 -9.6463e-19 0.0121702)
(0.0269943 0.0119318 -6.53452e-18 0.0266652 8.72677e-18 0.026064)
(4.28205e-05 8.50705e-07 6.83485e-24 4.258e-05 -1.45732e-23 4.264e-05)
(0.00113206 0.000373058 3.14517e-19 0.000820936 -1.12146e-19 0.000935214)
(0.0151282 -0.00422442 4.95053e-18 0.00882763 1.22585e-17 0.0113923)
(0.173067 -0.0732558 2.16161e-17 0.155875 -1.02087e-16 0.162894)
(0.812046 -0.363846 -5.85512e-17 0.807061 -3.43423e-16 0.806668)
(2.30195 -1.0601 1.86177e-15 2.41935 4.92409e-16 2.35693)
(4.45134 -2.09052 2.75128e-15 4.89268 6.25129e-16 4.67022)
(6.31875 -3.0142 -1.57101e-15 7.22605 -2.12179e-15 6.7762)
(7.17139 -3.46189 -7.00683e-15 8.48297 1.38033e-15 7.83541)
(7.10894 -3.4559 4.64166e-15 8.6021 4.73413e-15 7.85977)
(6.69177 -3.26785 -9.88242e-15 8.21836 -1.30079e-16 7.462)
(6.02147 -2.90645 -1.27564e-14 7.14485 1.84556e-15 6.56875)
(6.31229 -3.09864 9.12764e-15 7.85098 -3.42937e-15 7.12335)
(0.00128481 -7.43575e-05 -5.52125e-21 0.00102882 -1.11868e-20 0.00115331)
(0.00127436 -5.05219e-05 -1.93171e-21 0.00100116 7.79051e-21 0.00113473)
(0.00124793 -2.1068e-05 1.82739e-20 0.000967267 3.45725e-20 0.00110614)
(0.00120861 1.00128e-05 -7.93602e-21 0.000934627 -3.19022e-22 0.00107092)
(0.00115175 4.03308e-05 6.79863e-21 0.000901129 4.3041e-20 0.00102652)
(0.00107232 6.62676e-05 2.10475e-20 0.000862486 -6.35495e-21 0.000967552)
(0.00097717 8.44632e-05 2.25076e-20 0.000820249 -6.19074e-22 0.000898572)
(0.000875937 9.32385e-05 -5.57467e-20 0.000775389 -3.36373e-20 0.000825701)
(0.000772377 9.32762e-05 -3.01791e-20 0.000725986 2.64427e-21 0.000749637)
(0.000665793 8.54508e-05 5.07483e-20 0.000666455 2.23891e-20 0.000666765)
(0.000563203 7.23908e-05 2.34548e-20 0.000598139 -1.95871e-21 0.000581221)
(0.000472831 5.78052e-05 2.79198e-20 0.000528658 -1.71869e-20 0.000501013)
(0.000397152 4.41323e-05 -4.34187e-20 0.000463175 -2.78351e-20 0.000429994)
(0.000334938 3.24555e-05 -5.34586e-20 0.000403695 1.01808e-20 0.000368654)
(0.000284525 2.31725e-05 4.97987e-21 0.000351322 1.39817e-20 0.000316747)
(0.000243689 1.6117e-05 1.64755e-20 0.000306015 -4.89929e-21 0.000273217)
(0.000210978 1.0967e-05 -4.06796e-20 0.00026788 -3.05775e-21 0.00023738)
(0.000184844 7.27179e-06 -1.4884e-21 0.000236303 -6.4093e-21 0.000208185)
(0.000164157 4.59062e-06 -1.55573e-20 0.00021068 -2.98102e-21 0.000184752)
(0.000147466 2.52638e-06 3.27834e-20 0.000189644 -1.87153e-20 0.000165701)
(0.000134018 8.23428e-07 -3.57228e-20 0.00017243 -1.21396e-20 0.000150224)
(0.000122829 -7.35353e-07 -7.40411e-20 0.000157847 -8.48315e-21 0.000137232)
(0.000112954 -2.27809e-06 3.44222e-21 0.000144611 -1.10695e-20 0.000125581)
(0.000102713 -3.71189e-06 1.90137e-20 0.000130496 -1.06538e-20 0.000113342)
(9.2296e-05 -4.60959e-06 5.74172e-20 0.000115931 -4.0173e-21 0.000100697)
(8.37367e-05 -4.88962e-06 -5.3861e-20 0.000103881 -2.95928e-21 9.00509e-05)
(7.73347e-05 -4.83138e-06 -9.23226e-21 9.47827e-05 2.79995e-21 8.19184e-05)
(7.2816e-05 -4.67111e-06 5.60924e-21 8.83512e-05 4.59793e-22 7.60456e-05)
(6.68608e-05 -4.26152e-06 -2.55762e-21 8.01529e-05 -9.7018e-23 6.88973e-05)
(5.96362e-05 -3.85828e-06 -3.77853e-21 7.0862e-05 1.41234e-22 6.07747e-05)
(4.34567e-05 -2.61701e-06 -5.14416e-21 5.02882e-05 -3.07679e-22 4.38019e-05)
(2.79141e-05 -1.60204e-06 1.29489e-20 3.14992e-05 3.81027e-22 2.78555e-05)
(0.000201703 -5.49693e-05 1.96112e-18 0.000305835 1.31475e-19 0.000185294)
(0.000395679 -4.14977e-05 1.89103e-17 0.000504196 1.74305e-18 0.000285771)
(0.00172047 0.000620885 7.92395e-17 0.00134085 1.03274e-17 0.00138082)
(0.00871867 0.00339952 -1.75144e-16 0.0068788 -2.66456e-17 0.00788885)
(0.0273158 0.0114074 7.4987e-16 0.0236496 1.10823e-16 0.026214)
(0.0715884 0.0282827 -4.90201e-16 0.0574984 -1.69486e-16 0.0652895)
(0.232209 0.105531 -3.31084e-16 0.233103 -1.41862e-15 0.239888)
(0.000961427 -7.3821e-05 -5.13021e-21 0.000791458 -7.59287e-21 0.00087812)
(0.00094534 -8.72907e-05 1.00144e-21 0.000803859 1.5757e-21 0.000877034)
(0.000919705 -9.85521e-05 6.11148e-21 0.000815542 6.64647e-21 0.000870324)
(0.000886154 -0.000105412 -3.74807e-20 0.00082411 -5.30212e-20 0.000858579)
(0.000844949 -0.000107066 -2.74449e-20 0.000827019 -3.20708e-20 0.000840214)
(0.000796884 -0.000103287 6.40802e-20 0.00082339 7.65227e-20 0.00081509)
(0.000745324 -9.43394e-05 -6.80133e-20 0.000812382 -8.42598e-20 0.000784787)
(0.000692222 -8.10449e-05 -3.07208e-20 0.000793121 -2.04764e-20 0.000749654)
(0.000639594 -6.45274e-05 -7.31395e-20 0.000765974 -5.46944e-20 0.000710814)
(0.000590354 -4.63707e-05 -1.36605e-20 0.000732739 -2.47959e-20 0.000670769)
(0.000545792 -2.78709e-05 9.17402e-21 0.000694879 -3.29484e-21 0.000630752)
(0.000507096 -1.02179e-05 -5.02627e-20 0.000654449 -6.65297e-20 0.000592387)
(0.000475233 5.63013e-06 1.63687e-19 0.000613947 1.12022e-19 0.000557357)
(0.000450451 1.90964e-05 -5.39515e-20 0.000575489 -9.41638e-21 0.000526727)
(0.000432548 3.01035e-05 -1.32579e-19 0.000540606 -5.79453e-20 0.000501164)
(0.000419902 3.82999e-05 8.81592e-20 0.000509744 1.73384e-21 0.000479717)
(0.000406322 4.33633e-05 -6.42747e-20 0.000478133 -3.70558e-20 0.000456565)
(0.000387518 4.55018e-05 8.62152e-22 0.000441639 4.71847e-20 0.000427773)
(0.000367975 4.6517e-05 -1.58914e-20 0.000406764 -1.24791e-20 0.000399334)
(0.000332885 4.26606e-05 -1.09358e-19 0.000356243 -7.5609e-20 0.000354245)
(0.000273882 3.17294e-05 6.64288e-20 0.000284197 6.46242e-20 0.000285125)
(0.000149241 9.82542e-06 5.29549e-22 0.000151036 -1.607e-20 0.000151595)
(4.4646e-09 8.26803e-15 4.67395e-30 4.4646e-09 1.43182e-30 4.4646e-09)
(4.54191e-06 7.60825e-09 1.09975e-23 4.54176e-06 -4.9909e-25 4.54241e-06)
(0 0 0 0 0 0)
(0 0 0 0 0 0)
(2.83752e-06 2.60558e-09 -2.11349e-25 2.83667e-06 4.9843e-27 2.83716e-06)
(0.000293618 2.61351e-05 -4.26429e-21 0.000284371 -2.66519e-21 0.000289322)
(0.013055 0.00530906 7.10365e-21 0.0109895 1.39387e-18 0.012046)
(0.00366857 0.00142327 -4.09156e-18 0.00301761 3.38321e-19 0.00334078)
(0.0130593 0.00497146 -5.82321e-18 0.0100533 9.8306e-19 0.0115243)
(0.0441428 0.0136275 2.06469e-17 0.0272642 -1.22576e-16 0.0354655)
(0.147923 -0.0549031 4.70539e-16 0.110522 -5.86211e-16 0.128277)
(0.95121 -0.432503 -2.56967e-15 0.973324 1.34761e-16 0.959811)
(2.60759 -1.22865 4.37252e-15 2.89116 1.66535e-15 2.74666)
(4.42289 -2.11773 -9.14677e-16 5.11514 4.1052e-16 4.76752)
(5.64077 -2.72729 -1.62411e-15 6.70598 3.8444e-15 6.17864)
(6.07305 -2.91367 6.73558e-16 7.07768 2.49147e-16 6.5605)
(6.65432 -3.24717 -1.68689e-14 8.0931 4.25681e-15 7.42822)
(0.000970593 -5.74366e-05 3.28047e-21 0.000777657 1.29371e-21 0.000875885)
(0.000972292 -3.98886e-05 -1.18616e-20 0.000764101 -1.69043e-20 0.000869177)
(0.000964276 -1.83609e-05 1.46045e-21 0.000747557 7.6861e-21 0.000856821)
(0.000943595 4.86453e-06 6.53354e-21 0.000729082 -2.17146e-20 0.000836799)
(0.000908452 2.80229e-05 -5.27726e-20 0.000708565 -7.52899e-20 0.000808827)
(0.000855114 4.85341e-05 -5.40344e-20 0.000683176 2.80733e-20 0.000769132)
(0.000789102 6.3958e-05 7.54379e-20 0.00065502 3.87609e-20 0.000721877)
(0.000717485 7.28393e-05 -2.45135e-20 0.000625458 -7.03476e-20 0.000671412)
(0.000642322 7.51974e-05 -3.3076e-20 0.000592481 9.39905e-21 0.000617501)
(0.000563869 7.13748e-05 -2.25161e-20 0.000552268 -3.91285e-20 0.000558256)
(0.000487332 6.30484e-05 7.82078e-21 0.000505585 1.19792e-20 0.000496629)
(0.000416992 5.25742e-05 -1.49475e-20 0.000455426 -1.92895e-20 0.000436369)
(0.000354612 4.18257e-05 -3.09071e-20 0.000404563 4.11982e-20 0.00037978)
(0.000300202 3.19232e-05 3.28453e-20 0.000354928 1.88589e-20 0.000327839)
(0.0002535 2.34803e-05 2.77471e-20 0.000308237 -1.27165e-20 0.000281263)
(0.000213902 1.66498e-05 -5.70297e-21 0.000265724 -1.13199e-20 0.00024037)
(0.000180814 1.13462e-05 1.65658e-20 0.000228209 3.6166e-21 0.000205246)
(0.00015357 7.3149e-06 -2.46211e-20 0.00019605 6.28225e-21 0.000175727)
(0.000131522 4.25921e-06 1.74356e-20 0.000169222 -4.94247e-22 0.000151459)
(0.000113798 1.87656e-06 -2.29076e-20 0.000147112 -1.05454e-20 0.000131699)
(9.96991e-05 -6.85619e-08 2.21653e-20 0.000129078 1.7751e-21 0.000115762)
(8.8426e-05 -1.76757e-06 2.96274e-20 0.000114176 6.35432e-21 0.000102783)
(7.91887e-05 -3.32955e-06 -2.12707e-21 0.000101334 2.70077e-21 9.18299e-05)
(7.06867e-05 -4.69455e-06 -5.56254e-20 8.87617e-05 1.06361e-22 8.1407e-05)
(6.22264e-05 -5.56209e-06 -2.06637e-20 7.57793e-05 -8.65748e-21 7.08188e-05)
(5.44818e-05 -5.83396e-06 -6.09919e-21 6.37229e-05 9.20663e-21 6.10261e-05)
(4.85129e-05 -5.74153e-06 2.26115e-20 5.39334e-05 2.55531e-22 5.33241e-05)
(4.47306e-05 -5.41171e-06 8.05348e-22 4.67774e-05 -1.75943e-22 4.8092e-05)
(4.37638e-05 -5.08156e-06 -1.29242e-21 4.28954e-05 1.03543e-22 4.59861e-05)
(4.14233e-05 -4.09878e-06 1.3607e-20 3.84809e-05 8.07063e-23 4.25268e-05)
(5.22966e-05 -5.57182e-06 1.56504e-20 4.54604e-05 5.1061e-22 5.28868e-05)
(1.13086e-05 -2.88403e-07 -4.43416e-21 1.08452e-05 -2.4865e-22 1.12916e-05)
(8.70184e-05 -1.28659e-05 -5.68207e-19 6.33387e-05 -4.39326e-20 8.40906e-05)
(0.000446669 -0.000105744 -1.03127e-18 0.000237571 -1.18373e-19 0.000403324)
(0.00114578 -0.000265936 2.05066e-18 0.000579979 3.91772e-20 0.000980507)
(0.00101169 -0.000203099 -3.97489e-18 0.000472648 1.54339e-18 0.000801906)
(0.0015157 -0.000155935 -2.14272e-17 0.000603839 -1.77266e-17 0.00111223)
(0.00293766 0.000208631 5.37878e-17 0.00115493 3.84637e-18 0.00201446)
(0.0497705 0.0200312 -2.9336e-16 0.0406246 5.2852e-17 0.0472908)
(0.000788331 -6.05629e-05 4.50067e-21 0.000649276 5.19866e-21 0.000718187)
(0.000780727 -7.14426e-05 -1.13007e-20 0.000662918 -1.35073e-20 0.000721267)
(0.000766382 -8.1019e-05 -9.03418e-22 0.000676879 -1.89588e-21 0.000720739)
(0.000747717 -8.76615e-05 -4.67782e-21 0.000690428 -2.48753e-21 0.000718019)
(0.000723632 -9.05794e-05 3.72895e-20 0.000700512 4.27998e-20 0.000710807)
(0.00069461 -8.96308e-05 2.85736e-20 0.000706892 2.35866e-20 0.000699089)
(0.00066267 -8.48426e-05 3.98783e-22 0.000708396 1.1476e-20 0.00068351)
(0.000628331 -7.6622e-05 7.09527e-20 0.000703388 6.863e-20 0.000663402)
(0.000592651 -6.56711e-05 -8.82952e-21 0.000691664 -1.16146e-21 0.000639138)
(0.000556874 -5.3046e-05 -2.44924e-20 0.000673196 -1.15071e-20 0.000611431)
(0.00052138 -3.96901e-05 4.81186e-20 0.000648128 1.7966e-20 0.000580484)
(0.000486691 -2.65068e-05 -6.4757e-20 0.000617357 -2.50952e-20 0.000547021)
(0.000453186 -1.43134e-05 -1.14427e-19 0.000582051 -8.93443e-20 0.000511854)
(0.000420921 -3.61091e-06 -4.78207e-20 0.000543391 1.22764e-20 0.000475586)
(0.000389907 5.30906e-06 2.06361e-19 0.000502616 9.31288e-20 0.000438901)
(0.000358968 1.22188e-05 -1.49188e-19 0.000459432 -6.79578e-20 0.0004011)
(0.000325626 1.75387e-05 -3.5896e-20 0.000411562 3.1147e-20 0.000360309)
(0.000291522 2.12568e-05 6.71356e-20 0.000361719 4.37442e-20 0.000318661)
(0.00025985 2.36408e-05 -4.25354e-20 0.000314566 -3.10197e-22 0.00027997)
(0.000231574 2.4745e-05 -1.39605e-20 0.00027173 3.50189e-20 0.00024544)
(0.000212054 2.58967e-05 2.02521e-20 0.000240218 -1.31149e-20 0.000220927)
(0.000188216 2.38205e-05 -1.41905e-19 0.000203485 1.39628e-20 0.000192191)
(0.0001568 1.77602e-05 1.06943e-21 0.000160909 -1.74923e-20 0.000156973)
(5.88425e-05 2.54527e-06 -1.0446e-20 5.84619e-05 1.06023e-21 5.84896e-05)
(7.84391e-06 4.43098e-08 4.99193e-23 7.82287e-06 1.46534e-23 7.8316e-06)
(3.69925e-06 9.66816e-09 -3.54231e-24 3.69239e-06 -1.50548e-23 3.69548e-06)
(2.02915e-06 2.89469e-09 -2.29708e-25 2.02679e-06 -2.20173e-26 2.02787e-06)
(6.94788e-08 3.29252e-12 5.95052e-28 6.94762e-08 1.65649e-29 6.94774e-08)
(0 0 0 0 0 0)
(0.000286768 3.88162e-05 4.4761e-20 0.000260079 7.3138e-20 0.000273027)