/*--------------------------------*- C++ -*----------------------------------*\
| =========                 |                                                 |
| \\      /  F ield         | OpenFOAM: The Open Source CFD Toolbox           |
|  \\    /   O peration     | Version:  2306                                  |
|   \\  /    A nd           | Website:  www.openfoam.com                      |
|    \\/     M anipulation  |                                                 |
\*---------------------------------------------------------------------------*/
FoamFile
{
    version     2.0;
    format      ascii;
    arch        "LSB;label=32;scalar=64";
    class       volScalarField;
    location    "200";
    object      turbulenceProperties:L;
}
// * * * * * * * * * * * * * * * * * * * * * * * * * * * * * * * * * * * * * //

dimensions      [0 1 0 0 0 0 0];

internalField   nonuniform List<scalar> 
10720
(
0.00179522
0.00171844
0.001651
0.00158637
0.00154754
0.00152642
0.00152725
0.00155462
0.00161053
0.00169786
0.001822
0.00198924
0.00220572
0.00248586
0.00285131
0.00333418
0.00399105
0.00489221
0.00622974
0.00813694
0.0115125
0.0165768
0.0280939
0.0458294
0.0543319
0.0562676
0.0572692
0.0587313
0.060143
0.0610506
0.0614891
0.0616978
0.0618469
0.0620084
0.0622451
0.0625952
0.0634403
0.0642458
0.0636824
0.00188998
0.00198947
0.00215064
0.00234519
0.00261883
0.00301021
0.00354038
0.00405506
0.00395785
0.0034596
0.00295479
0.00258856
0.00236914
0.00228193
0.00231162
0.00244661
0.00268359
0.00303111
0.00351287
0.00416828
0.00507357
0.0063189
0.00812544
0.0106891
0.0147437
0.0207055
0.0305795
0.0434235
0.0513258
0.054304
0.0551844
0.0555219
0.055731
0.0558748
0.0559827
0.056085
0.056209
0.0564348
0.0565566
0.00387305
0.00388351
0.00390585
0.00396337
0.00405768
0.00417509
0.00432769
0.00452103
0.00474028
0.0049896
0.00526706
0.00549665
0.00555064
0.00537867
0.0050332
0.00480189
0.00497888
0.00554869
0.00652712
0.00778619
0.00997595
0.0130569
0.0183118
0.0294569
0.0407495
0.0532541
0.0678899
0.0840125
0.0998682
0.114288
0.127859
0.141437
0.154106
0.164891
0.173608
0.180282
0.184443
0.185354
0.179055
0.00389105
0.00391837
0.00397511
0.00406393
0.00419551
0.00438999
0.00465476
0.0049613
0.00530754
0.00573474
0.00625233
0.00683545
0.00748257
0.00820793
0.00902586
0.00995016
0.0110155
0.0122642
0.0138367
0.0160434
0.0198742
0.0282447
0.0605683
0.234241
0.103111
0.010663
0.0216139
0.0582702
0.107537
0.156303
0.194669
0.215796
0.222224
0.220914
0.216917
0.212326
0.207346
0.198238
0.17513
0.00474084
0.00476052
0.00481594
0.00490412
0.00500181
0.00511624
0.00524041
0.00536038
0.00547069
0.0055617
0.00563549
0.00568183
0.00569691
0.00567904
0.00566603
0.00574351
0.00617506
0.00631766
0.0253096
2.35514
0.00819362
0.0072264
0.0631343
0.015074
0.0247265
0.0333839
0.0436308
0.0575834
0.0756507
0.096346
0.117419
0.137177
0.156041
0.175152
0.194458
0.213093
0.23006
0.245458
0.241128
0.00472193
0.00472426
0.0047302
0.00477232
0.00485087
0.00499308
0.00521044
0.00549495
0.0058063
0.00619275
0.00670766
0.00735095
0.00811713
0.00901312
0.0100285
0.0111561
0.0123567
0.0135784
0.0147347
0.015774
0.016633
0.0172727
0.0176612
0.0178872
0.0179111
0.017938
0.0174042
0.0229116
0.015848
0.0450742
0.101913
0.175582
0.22154
0.241338
0.251936
0.258672
0.261594
0.273153
0.245736
0.00515916
0.0051538
0.0051668
0.00518855
0.0052341
0.00530418
0.00539563
0.00551669
0.00566555
0.00584514
0.00605835
0.00631022
0.00660922
0.00696421
0.00738865
0.00793156
0.00861329
0.00933076
0.010822
0.0144535
2.77972
0.0293128
0.310891
0.00592211
0.0140423
0.0255841
0.0356532
0.0146629
0.0787043
0.0829168
0.102228
0.125744
0.149849
0.172659
0.195038
0.218534
0.242617
0.267463
0.274896
0.00518698
0.00522995
0.00529954
0.00538721
0.00550389
0.00566931
0.00588231
0.00613682
0.00644181
0.00683116
0.00731651
0.00787927
0.00850237
0.00917814
0.00989525
0.0106463
0.0114115
0.0121738
0.01291
0.0136192
0.0142905
0.0149383
0.015601
0.0164037
0.0173737
0.0183256
0.0191586
0.0198302
0.0207786
0.0220812
0.0259959
0.0327028
0.0463432
0.158878
0.23825
0.234114
0.245846
0.257616
0.242238
0.00595468
0.00596009
0.00598368
0.00602632
0.00609393
0.00618933
0.00631088
0.00646093
0.0066396
0.00684068
0.00706108
0.00729398
0.00752841
0.00775305
0.00795698
0.00813903
0.00834488
0.00862024
0.00892616
0.00946128
0.0104992
0.0149978
25.2618
0.200975
0
0
0.294691
0.0104469
0.0173416
0.0102527
0.0247795
0.0952358
0.202046
0.18529
0.200435
0.22086
0.244891
0.274196
0.291353
0.00596246
0.00598364
0.0060265
0.00609713
0.00620136
0.00635848
0.00656273
0.00680524
0.00709666
0.00746417
0.00791377
0.0084426
0.00905021
0.00974189
0.0105196
0.0113829
0.0123236
0.0133259
0.0143634
0.0154151
0.0164555
0.0174788
0.0185086
0.0196819
0.0211378
0.0228166
0.0244756
0.0258526
0.0265341
0.0275742
0.0252232
0.0606299
0.0234927
0.0397969
0.0731459
0.0784646
0.114005
0.111173
0.192372
0.00657822
0.00656434
0.00656574
0.00657767
0.00661027
0.00666412
0.00673834
0.00683803
0.00696428
0.00711759
0.00730137
0.00751699
0.00776559
0.0080496
0.00837129
0.00874731
0.00922109
0.00979927
0.010453
0.0111683
0.0117929
0.0126462
0.0139948
0.0257865
0.112367
0.196554
0.307287
3.88808
0
0.0107911
0.0122088
0.0306446
0.0653357
0.0862524
0.333813
0.253244
0.254424
0.277348
0.29785
0.00660819
0.00665017
0.00671266
0.00679812
0.0069132
0.00707357
0.00727216
0.0075053
0.00778685
0.00813781
0.00856111
0.00905534
0.00961862
0.010251
0.0109495
0.0117061
0.0125091
0.0133419
0.014185
0.0150242
0.0158516
0.016679
0.0175457
0.0185586
0.019823
0.0213048
0.0229114
0.0245774
0.0262956
0.0280368
0.0298409
0.0318288
0.0354962
0.0425379
0.743034
0.0486663
0.0650363
0.0608696
0.0995159
0.00731328
0.00729739
0.0072949
0.00730431
0.00733359
0.00738509
0.00745899
0.00755955
0.00768906
0.00784794
0.00803825
0.00826075
0.00851437
0.00879743
0.00910786
0.00943883
0.00977238
0.0101159
0.0105047
0.0109638
0.011476
0.0119689
0.0123911
0.0133917
0.0160099
0.0223108
0.0361873
0.489309
0.229006
0.740349
0
0
0
0.0393624
0.0273784
0.173452
0.321139
0.290664
0.301791
0.00734354
0.00738497
0.00744645
0.00753392
0.00765254
0.00781289
0.00800516
0.00823222
0.00850648
0.00884065
0.00923792
0.00969937
0.0102263
0.010822
0.0114873
0.0122205
0.0130175
0.0138693
0.0147629
0.0156879
0.0166363
0.0176144
0.0186547
0.0198507
0.0213139
0.0230496
0.0249861
0.0270586
0.0292418
0.0314624
0.0334946
0.035047
0.0361012
0.0379389
0.0441551
0.191997
0.331192
3.13669
0.0223573
0.00803346
0.00800633
0.00799033
0.00798401
0.0079949
0.00802498
0.00807373
0.00814583
0.00824317
0.00836624
0.00851853
0.00870135
0.00891604
0.00916476
0.00944947
0.00977107
0.0101413
0.0105849
0.0111005
0.0116679
0.0122559
0.0128003
0.0132408
0.0136151
0.0142555
0.0154817
0.0174169
0.0209004
0.0275444
0.0842755
0.208252
0.873586
0
0
0.017749
0.0750735
0.149959
0.339943
0.310451
0.0080749
0.00812562
0.00819511
0.00829056
0.00841529
0.00857756
0.00876576
0.00898855
0.00925637
0.0095755
0.0099509
0.010384
0.0108771
0.0114342
0.0120569
0.0127428
0.0134887
0.0142857
0.0151219
0.0159879
0.0168792
0.0178034
0.0187919
0.0199207
0.0212777
0.0228718
0.0246563
0.0265999
0.0287246
0.0310622
0.0336063
0.0363686
0.0393715
0.0426292
0.0454151
0.0476229
0.0553026
0.291431
0.056598
0.00879574
0.00876143
0.00873655
0.00872123
0.00872173
0.00874037
0.00877719
0.00883702
0.0089218
0.00903284
0.0091734
0.00934533
0.00955023
0.00979031
0.0100665
0.010381
0.0107339
0.0111175
0.0115341
0.01199
0.012484
0.0129984
0.0135055
0.0140055
0.0145924
0.0153934
0.016428
0.0176351
0.0191104
0.0218773
0.0262227
0.0899493
0.280706
0
0
0
0.080604
0.250536
0.328048
0.00884356
0.00889985
0.00897416
0.00907627
0.00920571
0.0093691
0.00955541
0.00977541
0.0100372
0.0103433
0.010699
0.0111064
0.0115686
0.0120906
0.0126754
0.0133235
0.0140338
0.0148024
0.0156227
0.0164887
0.0173989
0.0183622
0.0194086
0.0206014
0.0220177
0.0236819
0.0255607
0.0276238
0.0298812
0.0323462
0.0349819
0.0376594
0.0401737
0.0422644
0.0436523
0.0434921
0.0419643
0.0410019
0.464947
0.00957984
0.0095364
0.00950043
0.00947292
0.00946021
0.0094634
0.00948311
0.00952409
0.00958782
0.00967575
0.00979141
0.00993649
0.0101129
0.0103232
0.0105694
0.0108543
0.0111788
0.0115513
0.0119808
0.0124605
0.0129716
0.0134913
0.0140052
0.0145432
0.0151924
0.016035
0.0170668
0.018157
0.0191567
0.0201363
0.021162
0.0236416
0.0342165
0.19718
14.3752
0
0
0.127589
0.345143
0.00963654
0.00970005
0.00978088
0.0098908
0.0100257
0.0101899
0.0103763
0.010595
0.010851
0.0111458
0.0114843
0.0118685
0.0123027
0.0127929
0.0133422
0.0139524
0.014625
0.0153571
0.0161456
0.0169866
0.01788
0.0188353
0.019879
0.0210623
0.0224508
0.0240693
0.0258952
0.0279066
0.0301183
0.0325589
0.0352296
0.0380982
0.0411202
0.0440804
0.0467036
0.0473123
0.0476324
0.0373335
0.0670093
0.0103969
0.0103448
0.0102986
0.0102602
0.0102356
0.0102255
0.0102315
0.0102573
0.010305
0.0103761
0.0104741
0.0106012
0.0107594
0.0109518
0.0111804
0.0114476
0.011756
0.012106
0.0124974
0.0129295
0.0133947
0.0138835
0.0143892
0.0149361
0.0155984
0.0164562
0.0175193
0.0186886
0.0198171
0.0208027
0.021683
0.0222366
0.0235643
0.0278878
1.61686
0.329482
0
0.0464494
0.292026
0.010462
0.0105324
0.0106192
0.0107368
0.0108775
0.0110428
0.0112306
0.011449
0.0116997
0.0119844
0.0123078
0.0126719
0.0130808
0.0135411
0.0140573
0.0146326
0.01527
0.0159702
0.0167318
0.0175545
0.0184414
0.0194029
0.0204635
0.0216677
0.023071
0.0247007
0.0265467
0.0285932
0.0308522
0.0333452
0.0360637
0.0389448
0.041862
0.0445425
0.0467095
0.0470242
0.0471474
0.0397824
0.0356445
0.0112458
0.0111842
0.0111273
0.0110775
0.0110404
0.0110165
0.0110072
0.0110169
0.0110474
0.0110999
0.0111777
0.0112834
0.0114191
0.0115877
0.0117917
0.0120336
0.0123161
0.0126397
0.0130102
0.0134284
0.0138837
0.0143641
0.0148655
0.0154094
0.0160587
0.0168861
0.0179103
0.0190616
0.0202328
0.021348
0.0224271
0.0232712
0.0238622
0.0239443
0.028664
0.218421
0
0.0319632
0.187996
0.0113195
0.0113977
0.0114908
0.0116163
0.011763
0.0119305
0.0121205
0.0123394
0.0125856
0.0128618
0.013172
0.0135179
0.013904
0.0143377
0.0148235
0.0153658
0.01597
0.0166381
0.0173724
0.0181739
0.0190469
0.0200028
0.0210657
0.0222741
0.0236726
0.0252889
0.0271205
0.0291576
0.0314121
0.0339057
0.0366405
0.0395734
0.042625
0.0455672
0.0480782
0.048822
0.0486053
0.0429367
0.0340161
0.0121301
0.012059
0.0119912
0.0119299
0.0118806
0.0118433
0.0118194
0.0118137
0.0118277
0.011863
0.0119229
0.0120092
0.0121249
0.0122731
0.012456
0.0126763
0.0129371
0.0132386
0.0135832
0.013972
0.0143995
0.0148581
0.0153476
0.0158866
0.0165258
0.0173257
0.0183058
0.0194109
0.0205522
0.0216794
0.0228031
0.0238994
0.02483
0.0252968
0.0246122
0.0319571
0.932055
0.0211412
0.105418
0.0122124
0.0122987
0.0123987
0.0125319
0.0126848
0.0128556
0.0130485
0.0132684
0.0135114
0.0137798
0.0140785
0.0144086
0.0147746
0.0151836
0.015642
0.0161545
0.0167276
0.0173653
0.0180721
0.0188521
0.0197116
0.0206631
0.0217297
0.0229445
0.0243461
0.0259611
0.0277947
0.0298429
0.032118
0.034641
0.0374142
0.0403921
0.0434793
0.0464369
0.0489327
0.0497705
0.0494812
0.0447471
0.0354828
0.0130514
0.0129707
0.0128916
0.0128186
0.0127568
0.0127055
0.0126671
0.0126459
0.0126435
0.0126611
0.0127029
0.0127701
0.0128651
0.0129916
0.0131519
0.0133488
0.0135854
0.0138622
0.0141816
0.0145469
0.0149548
0.0153971
0.0158748
0.016405
0.01703
0.0178017
0.0187392
0.0197986
0.020901
0.0220019
0.0231011
0.0242076
0.025273
0.0262239
0.0265041
0.0243931
0.162399
0.0716125
0.0511403
0.013143
0.0132375
0.0133453
0.0134863
0.0136454
0.0138207
0.0140177
0.0142386
0.0144791
0.0147417
0.0150302
0.0153462
0.0156941
0.0160815
0.0165143
0.0169991
0.0175435
0.0181527
0.0188329
0.0195906
0.0204349
0.021379
0.0224448
0.0236609
0.0250606
0.0266707
0.0285
0.0305506
0.0328358
0.0353766
0.0381793
0.0412055
0.0443757
0.0474695
0.0501568
0.0512158
0.0510548
0.0465191
0.0374099
0.0140125
0.0139219
0.0138312
0.0137465
0.0136719
0.0136065
0.0135536
0.0135171
0.0134983
0.0134991
0.0135226
0.0135709
0.0136461
0.0137518
0.0138908
0.0140655
0.0142786
0.0145322
0.0148267
0.0151657
0.0155499
0.0159718
0.0164338
0.0169516
0.0175604
0.0183041
0.0192016
0.0202185
0.0212867
0.0223617
0.0234376
0.0245082
0.0255687
0.0264842
0.0278284
0.0256403
0.031164
5.61799
0.025734
0.0141141
0.0142171
0.014333
0.0144824
0.014648
0.0148287
0.0150303
0.015253
0.0154918
0.0157497
0.016029
0.0163332
0.0166654
0.0170332
0.0174436
0.017903
0.0184203
0.0190028
0.0196581
0.0203945
0.0212223
0.0221559
0.0232175
0.0244351
0.0258361
0.0274441
0.029273
0.0313307
0.0336324
0.0361999
0.0390425
0.0421265
0.0453759
0.0485735
0.0513936
0.0526287
0.0526052
0.0483735
0.0393981
0.0150161
0.0149151
0.0148125
0.0147157
0.0146277
0.0145482
0.0144803
0.0144283
0.0143931
0.0143768
0.0143823
0.0144121
0.0144681
0.014553
0.0146702
0.0148221
0.0150116
0.0152413
0.0155108
0.0158246
0.0161856
0.0165877
0.017033
0.0175355
0.0181256
0.0188406
0.0196984
0.0206728
0.0217065
0.0227565
0.0238135
0.0248619
0.0258997
0.0267786
0.0279155
0.02816
0.0254519
0.627408
0
0.0151279
0.0152403
0.0153647
0.0155228
0.0156952
0.0158823
0.0160894
0.0163144
0.0165528
0.0168064
0.0170792
0.0173721
0.0176903
0.0180413
0.0184312
0.0188684
0.0193614
0.019919
0.0205503
0.0212654
0.0220765
0.022999
0.0240555
0.0252708
0.0266701
0.0282757
0.0301047
0.0321694
0.0344875
0.0370823
0.0399671
0.0431152
0.0464609
0.0497998
0.0528134
0.0542872
0.0544148
0.050455
0.0415048
0.0160651
0.0159531
0.0158383
0.0157287
0.0156272
0.0155331
0.0154501
0.0153822
0.0153309
0.0152976
0.0152856
0.0152965
0.0153333
0.0153978
0.0154933
0.015623
0.0157894
0.0159953
0.0162403
0.0165289
0.0168652
0.017246
0.0176725
0.018157
0.0187259
0.0194116
0.0202304
0.0211627
0.0221608
0.0231846
0.0242217
0.0252564
0.0262707
0.0271968
0.02794
0.0296266
0.0255946
0.114078
17.4063
0.0161871
0.0163093
0.0164431
0.0166103
0.0167899
0.0169845
0.0171978
0.0174258
0.0176644
0.0179155
0.0181826
0.018466
0.0187729
0.0191087
0.0194809
0.0198976
0.0203687
0.020903
0.0215117
0.0222059
0.0229996
0.0239102
0.0249601
0.0261728
0.0275703
0.0291753
0.0310061
0.0330796
0.0354171
0.0380437
0.0409773
0.0441993
0.0476533
0.0511465
0.0543687
0.0561042
0.0564007
0.0527184
0.0437901
0.0171622
0.0170386
0.0169115
0.0167882
0.0166731
0.0165638
0.0164654
0.0163815
0.0163136
0.0162631
0.0162333
0.0162256
0.0162428
0.0162877
0.0163617
0.0164693
0.0166125
0.0167945
0.0170152
0.0172785
0.0175897
0.0179486
0.0183548
0.0188191
0.019365
0.0200205
0.0208007
0.0216914
0.0226529
0.0236487
0.0246635
0.0256842
0.0266793
0.0276407
0.0282834
0.0298431
0.027502
0.0355605
0.518345
0.0172948
0.0174273
0.017571
0.0177479
0.0179353
0.0181383
0.0183585
0.0185904
0.0188302
0.0190803
0.0193423
0.0196189
0.0199152
0.0202385
0.0205952
0.0209941
0.0214453
0.0219586
0.022546
0.0232207
0.0239973
0.0248941
0.0259348
0.0271441
0.0285422
0.0301472
0.0319806
0.0340641
0.0364227
0.0390843
0.0420723
0.0453778
0.0489561
0.0526305
0.0561033
0.0581498
0.0586426
0.0551975
0.0462839
0.0183101
0.0181751
0.0180344
0.0178977
0.0177678
0.0176432
0.0175285
0.0174286
0.0173436
0.0172759
0.0172282
0.0172025
0.0172
0.0172252
0.0172783
0.0173635
0.0174837
0.0176416
0.0178382
0.0180764
0.0183621
0.0186981
0.0190824
0.0195244
0.0200453
0.0206701
0.0214123
0.0222616
0.0231859
0.0241522
0.0251432
0.0261465
0.0271296
0.0280854
0.0288182
0.0298242
0.0296901
0.0291996
0.0780001
0.018454
0.0185973
0.0187516
0.0189385
0.0191348
0.0193469
0.0195749
0.0198114
0.0200536
0.0203033
0.0205623
0.0208337
0.021121
0.0214341
0.0217776
0.0221605
0.0225939
0.0230884
0.0236564
0.024312
0.0250722
0.0259566
0.0269896
0.028194
0.0295896
0.0311951
0.0330331
0.0351293
0.0375122
0.0402139
0.0432638
0.046665
0.0503852
0.0542683
0.0580323
0.0604395
0.0611633
0.0579265
0.0490127
0.0195121
0.0193651
0.0192106
0.0190594
0.0189146
0.0187738
0.0186429
0.018526
0.0184239
0.0183386
0.0182731
0.0182286
0.018207
0.0182114
0.0182442
0.0183069
0.0184043
0.0185383
0.0187114
0.0189245
0.0191843
0.0194961
0.0198574
0.0202757
0.0207702
0.0213633
0.0220676
0.022876
0.0237624
0.0246978
0.0256643
0.0266476
0.0276221
0.0285564
0.0293967
0.0300647
0.0310572
0.0294099
0.0387464
0.0196678
0.0198227
0.0199881
0.0201854
0.020392
0.0206138
0.0208502
0.0210928
0.0213384
0.021589
0.0218467
0.0221137
0.0223945
0.0226983
0.0230304
0.0234
0.023818
0.0242956
0.0248464
0.0254851
0.0262293
0.0271004
0.0281246
0.0293246
0.0307188
0.0323265
0.0341714
0.0362824
0.0386927
0.0414395
0.0445595
0.0480695
0.0519524
0.0560784
0.0601863
0.0630212
0.0640204
0.0609387
0.0519891
0.0207716
0.0206117
0.020443
0.0202769
0.0201164
0.019959
0.0198112
0.019677
0.0195572
0.019454
0.0193702
0.019307
0.0192663
0.0192503
0.0192625
0.0193036
0.0193779
0.0194884
0.0196374
0.0198248
0.0200586
0.0203453
0.0206823
0.0210755
0.0215423
0.0221032
0.0227697
0.0235375
0.0243857
0.0252889
0.0262295
0.0271917
0.0281569
0.0290762
0.029973
0.0305718
0.0317034
0.0309789
0.032759
0.0209395
0.0211066
0.0212837
0.021492
0.02171
0.0219426
0.0221882
0.0224376
0.0226878
0.0229405
0.0231985
0.0234627
0.0237393
0.0240349
0.0243581
0.0247167
0.0251217
0.0255847
0.0261197
0.0267427
0.0274729
0.0283317
0.0293463
0.0305415
0.0319364
0.0335481
0.0354014
0.0375299
0.0399716
0.0427697
0.0459697
0.0496045
0.0536751
0.0580859
0.0626011
0.0659458
0.0672776
0.0642922
0.055247
0.022092
0.0219187
0.0217348
0.0215534
0.0213764
0.0212018
0.0210365
0.0208844
0.0207465
0.0206251
0.0205229
0.0204408
0.0203806
0.0203448
0.0203352
0.0203554
0.0204063
0.0204929
0.0206176
0.0207801
0.0209879
0.0212485
0.0215602
0.0219274
0.0223652
0.022893
0.023522
0.0242494
0.0250589
0.025929
0.0268424
0.0277831
0.0287358
0.02965
0.0305622
0.031228
0.0321779
0.0325788
0.0323676
0.0222725
0.0224529
0.0226423
0.0228624
0.0230926
0.0233367
0.0235925
0.0238499
0.024106
0.0243625
0.0246214
0.0248847
0.0251587
0.0254484
0.0257653
0.0261146
0.0265085
0.0269592
0.0274809
0.0280902
0.0288067
0.0296545
0.0306614
0.031853
0.0332479
0.0348642
0.0367288
0.0388782
0.0413564
0.0442133
0.0475046
0.0512812
0.0555687
0.0603133
0.0653154
0.0692779
0.0710121
0.0680436
0.0588125
0.0234769
0.0232896
0.02309
0.0228924
0.0226981
0.0225057
0.022322
0.0221517
0.0219951
0.021855
0.0217338
0.0216326
0.0215526
0.0214967
0.0214657
0.0214643
0.0214928
0.0215554
0.0216558
0.0217935
0.0219752
0.0222088
0.0224943
0.0228343
0.0232423
0.0237366
0.0243281
0.0250154
0.025786
0.0266218
0.027507
0.0284257
0.0293641
0.0302782
0.0311912
0.0319499
0.0327651
0.0338041
0.0334304
0.0236706
0.0238648
0.0240674
0.0243001
0.0245435
0.0248001
0.0250673
0.0253337
0.0255968
0.0258584
0.0261202
0.026385
0.0266565
0.0269443
0.0272544
0.0275974
0.0279831
0.0284235
0.028934
0.0295315
0.0302363
0.0310737
0.0320735
0.033262
0.0346587
0.0362815
0.0381609
0.0403355
0.0428551
0.0457778
0.0491717
0.053109
0.0576462
0.0627818
0.0683684
0.0730919
0.0753323
0.0722696
0.0627127
0.0249301
0.0247281
0.0245122
0.0242973
0.0240854
0.0238742
0.0236717
0.0234823
0.0233068
0.0231474
0.023007
0.0228861
0.0227864
0.0227099
0.0226579
0.0226342
0.0226401
0.0226788
0.0227547
0.0228676
0.0230229
0.0232287
0.0234874
0.0237993
0.024177
0.0246376
0.0251917
0.0258391
0.0265708
0.0273716
0.0282275
0.0291233
0.0300467
0.0309612
0.0318773
0.0327106
0.0335076
0.0347793
0.0348406
0.0251379
0.025346
0.0255627
0.0258089
0.0260664
0.0263366
0.0266163
0.0268933
0.0271649
0.027433
0.0276991
0.0279659
0.028238
0.0285249
0.0288313
0.0291706
0.0295498
0.029982
0.030483
0.0310701
0.0317647
0.0325933
0.0335874
0.0347747
0.0361756
0.037809
0.0397047
0.0419083
0.044475
0.0474714
0.0509806
0.0550998
0.0599225
0.065515
0.0718082
0.077484
0.0803716
0.0770765
0.0669946
0.0264556
0.0262384
0.0260054
0.0257721
0.0255418
0.0253112
0.025089
0.02488
0.0246846
0.0245055
0.0243453
0.0242044
0.0240845
0.0239872
0.0239142
0.023868
0.0238515
0.0238657
0.0239167
0.0240048
0.0241333
0.0243112
0.0245427
0.0248263
0.0251728
0.0255992
0.0261159
0.0267239
0.0274167
0.0281823
0.0290082
0.0298805
0.0307886
0.031702
0.032627
0.0335135
0.034367
0.0357113
0.0362627
0.0266782
0.0269008
0.0271326
0.027393
0.0276656
0.0279507
0.0282438
0.0285325
0.0288141
0.0290902
0.0293624
0.0296334
0.0299089
0.0301955
0.0305012
0.0308375
0.0312121
0.0316382
0.0321316
0.0327113
0.0333985
0.0342209
0.0352109
0.0363984
0.0378042
0.0394502
0.0413662
0.0436035
0.046223
0.0493028
0.0529418
0.0572657
0.0624151
0.0685428
0.075697
0.0825895
0.0863292
0.0825777
0.0716867
0.0280578
0.0278243
0.0275734
0.0273214
0.0270716
0.0268208
0.0265781
0.0263489
0.0261328
0.0259334
0.0257528
0.0255916
0.0254508
0.0253326
0.0252382
0.0251689
0.0251297
0.0251202
0.0251458
0.025209
0.0253108
0.0254603
0.0256637
0.025918
0.0262332
0.0266254
0.0271052
0.0276741
0.0283279
0.0290579
0.0298533
0.0307018
0.0315941
0.0325069
0.0334436
0.0343742
0.03531
0.0367076
0.0376547
0.0282954
0.0285334
0.0287814
0.0290567
0.0293454
0.0296466
0.0299543
0.0302563
0.0305493
0.030835
0.0311148
0.0313917
0.0316719
0.0319608
0.0322682
0.0326016
0.0329744
0.0333976
0.0338866
0.0344607
0.0351425
0.0359607
0.0369494
0.0381395
0.0395535
0.0412133
0.043154
0.0454293
0.0481084
0.0512814
0.0550645
0.0596176
0.0651408
0.0718939
0.0801004
0.0885796
0.0934817
0.0889308
0.0768307
0.029741
0.0294904
0.0292206
0.0289492
0.0286791
0.0284071
0.0281434
0.0278927
0.0276555
0.0274349
0.0272334
0.0270512
0.0268893
0.0267497
0.0266332
0.0265416
0.0264787
0.0264456
0.026446
0.0264839
0.0265592
0.0266803
0.0268549
0.0270797
0.0273633
0.0277213
0.0281642
0.0286944
0.0293096
0.0300034
0.0307677
0.0315922
0.0324686
0.0333796
0.0343309
0.0353028
0.0363221
0.0377933
0.0390566
0.0299942
0.0302483
0.0305134
0.0308048
0.0311105
0.0314292
0.0317527
0.0320689
0.0323748
0.0326719
0.0329613
0.033246
0.033532
0.0338255
0.0341363
0.0344698
0.0348442
0.0352659
0.0357527
0.0363236
0.0370016
0.0378167
0.0388056
0.04
0.0414247
0.0431024
0.0450713
0.04739
0.0501361
0.0534109
0.0573534
0.062161
0.068104
0.0755819
0.0850764
0.0956708
0.102236
0.0963281
0.0824517
0.0315096
0.0312415
0.0309517
0.0306601
0.0303687
0.0300745
0.0297889
0.0295159
0.0292569
0.0290144
0.0287913
0.0285875
0.0284043
0.0282426
0.0281039
0.0279899
0.0279029
0.0278464
0.0278205
0.0278325
0.0278808
0.0279736
0.028119
0.0283145
0.0285665
0.0288904
0.0292968
0.0297889
0.0303659
0.0310241
0.0317569
0.0325567
0.0334181
0.0343264
0.0352927
0.036306
0.0374059
0.0389657
0.0404996
0.0317796
0.0320504
0.0323332
0.0326418
0.0329657
0.0333025
0.0336435
0.0339755
0.0342958
0.034606
0.0349067
0.0352012
0.0354952
0.0357957
0.0361101
0.0364485
0.0368246
0.0372472
0.0377333
0.0383027
0.0389798
0.039795
0.0407867
0.0419885
0.0434266
0.0451258
0.0471273
0.0494943
0.0523133
0.0556988
0.0598139
0.0648986
0.0713057
0.0796113
0.0906731
0.104145
0.113235
0.10502
0.0885762
0.033369
0.0330821
0.0327719
0.0324588
0.0321454
0.0318282
0.0315195
0.0312236
0.0309418
0.0306768
0.0304313
0.0302054
0.0299997
0.0298157
0.0296541
0.0295171
0.0294054
0.0293248
0.0292739
0.0292593
0.0292807
0.029345
0.0294612
0.0296264
0.0298471
0.0301374
0.030508
0.0309625
0.0315018
0.0321245
0.0328262
0.0336012
0.0344467
0.035354
0.0363345
0.0373917
0.0385699
0.0402246
0.0420021
0.0336568
0.0339446
0.034246
0.0345732
0.034916
0.035272
0.0356318
0.035981
0.0363174
0.0366421
0.0369559
0.037262
0.0375659
0.0378759
0.0381962
0.0385416
0.038919
0.0393452
0.0398336
0.0404044
0.0410827
0.0419007
0.042898
0.0441101
0.0455654
0.0472889
0.0493263
0.051746
0.0546432
0.0581476
0.0624461
0.0678281
0.0747401
0.0839753
0.0969194
0.114368
0.127567
0.115286
0.0951989
0.0353245
0.0350178
0.0346863
0.0343507
0.034014
0.0336731
0.0333401
0.0330204
0.0327147
0.0324264
0.0321576
0.0319088
0.0316803
0.0314735
0.0312887
0.0311282
0.0309928
0.0308864
0.0308106
0.0307694
0.0307638
0.0308
0.0308866
0.031022
0.0312113
0.0314682
0.0318032
0.0322208
0.0327231
0.0333105
0.0339811
0.0347318
0.0355618
0.0364672
0.0374632
0.0385633
0.0398191
0.0415683
0.0435684
0.0356307
0.0359364
0.0362569
0.0366041
0.0369667
0.037343
0.0377227
0.0380908
0.0384447
0.0387859
0.0391147
0.0394338
0.0397494
0.0400698
0.0404001
0.0407529
0.0411345
0.0415673
0.04206
0.0426343
0.043316
0.0441393
0.0451449
0.0463698
0.047844
0.0495959
0.0516725
0.0541493
0.0571295
0.0607587
0.0652498
0.0709426
0.0783901
0.0886365
0.10378
0.126766
0.147262
0.127384
0.102257
0.0373814
0.0370541
0.0367002
0.0363411
0.0359803
0.0356142
0.0352562
0.0349116
0.034581
0.0342684
0.0339758
0.0337032
0.0334513
0.0332211
0.0330128
0.0328279
0.0326682
0.0325364
0.0324359
0.0323668
0.0323341
0.032342
0.0323989
0.0325043
0.0326629
0.0328871
0.0331872
0.0335689
0.0340352
0.034588
0.035228
0.0359542
0.0367692
0.037673
0.0386848
0.0398262
0.0411596
0.0430051
0.0452049
0.0377067
0.0380313
0.0383717
0.0387396
0.0391232
0.039521
0.0399218
0.0403101
0.0406832
0.0410426
0.0413876
0.0417224
0.0420522
0.0423836
0.0427263
0.043086
0.0434802
0.0439166
0.0444158
0.0449962
0.0456843
0.0465149
0.0475315
0.0487728
0.0502687
0.052051
0.0541695
0.0567058
0.0597725
0.0635292
0.0682167
0.0742237
0.0822164
0.0935141
0.111103
0.141655
0.176797
0.14133
0.109604
0.0395458
0.0391967
0.0388195
0.038436
0.0380499
0.0376577
0.0372736
0.036903
0.0365465
0.0362087
0.0358913
0.0355942
0.0353181
0.0350636
0.034831
0.0346216
0.0344374
0.0342792
0.0341528
0.034057
0.0339964
0.0339759
0.0340035
0.0340794
0.0342076
0.0343996
0.0346658
0.0350123
0.0354434
0.0359627
0.0365728
0.0372754
0.0380754
0.0389782
0.0400057
0.0411891
0.0425966
0.0445354
0.0469183
0.0398911
0.0402351
0.0405963
0.0409858
0.0413914
0.0418117
0.0422348
0.0426446
0.0430383
0.0434174
0.0437811
0.0441325
0.0444779
0.0448239
0.045179
0.0455512
0.0459548
0.0463975
0.0469077
0.0474962
0.0481924
0.0490327
0.0500618
0.0513205
0.0528409
0.0546553
0.0568183
0.059416
0.0625697
0.0664528
0.0713316
0.0776444
0.086162
0.0984763
0.118537
0.1586
0.228611
0.156413
0.116978
0.0418237
0.0414522
0.0410506
0.0406414
0.0402289
0.0398094
0.0393979
0.0390001
0.0386169
0.0382526
0.0379094
0.0375871
0.037286
0.0370066
0.0367493
0.0365148
0.0363049
0.0361211
0.035967
0.0358454
0.0357574
0.0357089
0.0357073
0.0357541
0.0358523
0.036013
0.0362461
0.0365584
0.0369552
0.0374417
0.0380225
0.0387019
0.0394877
0.0403894
0.041433
0.042657
0.0441395
0.0461683
0.0487121
0.0421899
0.0425537
0.0429369
0.043349
0.0437773
0.044221
0.0446677
0.0451
0.0455157
0.045916
0.0462997
0.04667
0.0470329
0.047395
0.047764
0.048151
0.0485642
0.0490204
0.0495399
0.0501378
0.0508439
0.0516948
0.0527377
0.0540158
0.0555622
0.0574114
0.0596201
0.0622788
0.0655163
0.0695201
0.0745767
0.0811662
0.0901475
0.103332
0.125493
0.174908
0.363686
0.170341
0.124014
0.0442218
0.0438269
0.0433999
0.0429638
0.0425238
0.0420757
0.0416357
0.0412094
0.0407982
0.0404062
0.0400364
0.0396878
0.0393608
0.0390558
0.0387729
0.0385129
0.0382771
0.0380674
0.0378865
0.0377391
0.0376222
0.0375454
0.037515
0.0375332
0.0376021
0.0377321
0.0379334
0.038213
0.0385769
0.0390318
0.0395844
0.0402414
0.0410135
0.0419144
0.0429739
0.0442375
0.0457914
0.0479105
0.0505964
0.0446097
0.0449942
0.0453998
0.0458355
0.0462872
0.0467553
0.0472262
0.0476826
0.0481216
0.0485444
0.04895
0.0493405
0.049722
0.0501022
0.0504874
0.0508894
0.0513156
0.0517867
0.052313
0.0529225
0.0536393
0.0545034
0.0555639
0.0568643
0.0584384
0.0603217
0.0625738
0.0652903
0.0686056
0.0727173
0.0779271
0.0847434
0.094082
0.10787
0.131257
0.184849
0.583998
0.179241
0.130281
0.046747
0.0463278
0.0458745
0.0454104
0.0449413
0.0444636
0.0439937
0.0435379
0.0430971
0.0426766
0.0422788
0.0419029
0.041549
0.0412177
0.0409087
0.0406225
0.04036
0.0401241
0.039915
0.0397405
0.0395971
0.0394915
0.0394324
0.0394224
0.0394628
0.0395634
0.0397343
0.0399825
0.0403151
0.0407399
0.0412656
0.0419015
0.0426605
0.043561
0.0446359
0.0459386
0.0475599
0.0497644
0.0525778
0.0471576
0.0475636
0.0479924
0.0484521
0.0489282
0.0494212
0.0499173
0.0503987
0.0508618
0.0513084
0.051737
0.0521492
0.0525518
0.0529507
0.0533534
0.0537711
0.0542134
0.0546968
0.0552324
0.0558579
0.0565882
0.0574668
0.0585438
0.0598657
0.0614667
0.0633829
0.0656758
0.068444
0.0718261
0.0760247
0.0813521
0.088325
0.0978703
0.111891
0.135244
0.184527
0.289127
0.180673
0.135385
0.0494068
0.0489625
0.0484816
0.0479884
0.0474891
0.0469802
0.0464789
0.0459918
0.0455203
0.0450703
0.0446434
0.044239
0.0438576
0.043499
0.0431629
0.0428498
0.0425606
0.0422973
0.0420615
0.041858
0.0416883
0.0415546
0.0414672
0.0414299
0.0414428
0.0415151
0.0416564
0.0418744
0.0421771
0.0425735
0.0430738
0.0436895
0.0444366
0.045337
0.0464278
0.0477666
0.0494535
0.051738
0.0546631
0.0498411
0.0502692
0.0507217
0.0512063
0.0517071
0.0522256
0.0527477
0.0532544
0.0537427
0.0542141
0.0546668
0.0551021
0.0555261
0.0559454
0.0563673
0.0568016
0.0572607
0.0577559
0.0583096
0.0589469
0.0596899
0.0605826
0.0616762
0.0630184
0.0646447
0.066591
0.0689201
0.0717315
0.075165
0.0794254
0.084823
0.0918644
0.101434
0.115259
0.1373
0.177152
0.224358
0.176398
0.139126
0.0522091
0.0517388
0.0512292
0.0507056
0.0501747
0.049633
0.0490989
0.048579
0.048076
0.0475945
0.0471372
0.0467033
0.046293
0.0459064
0.0455424
0.0452017
0.0448853
0.0445947
0.0443314
0.0441005
0.0439032
0.0437414
0.0436267
0.0435625
0.0435487
0.0435939
0.0437073
0.0438969
0.0441713
0.0445409
0.0450172
0.0456141
0.0463502
0.0472509
0.0483573
0.0497311
0.0514797
0.0538386
0.0568615
0.0526678
0.053119
0.0535958
0.0541054
0.0546314
0.055176
0.0557243
0.056257
0.0567709
0.0572678
0.0577451
0.0582044
0.0586516
0.0590918
0.059533
0.0599854
0.0604621
0.0609718
0.0615423
0.0621872
0.0629449
0.0638514
0.0649612
0.066324
0.0679736
0.0699467
0.0723048
0.075147
0.0786121
0.0829014
0.088312
0.0953209
0.104721
0.117942
0.13776
0.168022
0.193818
0.169898
0.141576
0.0551628
0.0546652
0.0541257
0.0535707
0.0530064
0.0524305
0.0518619
0.051308
0.0507712
0.0502568
0.0497677
0.0493033
0.0488633
0.0484474
0.0480546
0.0476857
0.0473413
0.0470228
0.0467319
0.0464735
0.0462484
0.0460595
0.0459183
0.0458281
0.0457888
0.0458081
0.0458951
0.046058
0.0463061
0.0466506
0.0471045
0.0476841
0.0484102
0.0493116
0.0504326
0.0518397
0.0536459
0.0560735
0.0591813
0.0556462
0.0561213
0.056623
0.0571578
0.0577092
0.0582798
0.0588545
0.0594131
0.059953
0.060476
0.0609787
0.0614622
0.0619325
0.0623948
0.0628563
0.063327
0.06382