# p  FACE_DATA 150
# x y z  p
0.29576437 -0.05 0.059999702 11837.679
0.28738431 -0.05 0.059968924 11871.096
0.27918472 -0.05 0.059906283 11910.61
0.27116186 -0.05 0.05981265 11950.567
0.26331203 -0.05 0.059689027 11992.273
0.25563166 -0.05 0.059536266 12035.68
0.24811723 -0.05 0.059355154 12080.591
0.24076528 -0.05 0.059146558 12126.651
0.23357246 -0.05 0.058911358 12173.993
0.22653546 -0.05 0.058650342 12222.762
0.21965107 -0.05 0.058364202 12272.906
0.21291613 -0.05 0.058053757 12323.967
0.20632755 -0.05 0.057719714 12376.527
0.19988233 -0.05 0.057362758 12429.14
0.19357748 -0.05 0.056983702 12482.504
0.18741014 -0.05 0.056583118 12536.535
0.18137746 -0.05 0.056161624 12591.294
0.17547671 -0.05 0.055719844 12648.458
0.16970518 -0.05 0.055258363 12708.086
0.1640602 -0.05 0.05477783 12769.142
0.15853921 -0.05 0.054278745 12832.276
0.15313967 -0.05 0.053761636 12896.714
0.14785914 -0.05 0.053226963 12963.279
0.14269518 -0.05 0.052675259 13030.367
0.13764543 -0.05 0.052106992 13099.495
0.13270762 -0.05 0.051522466 13169.878
0.12787949 -0.05 0.050922169 13241.396
0.12315884 -0.05 0.050306449 13314.914
0.11854353 -0.05 0.049675628 13389.656
0.11403148 -0.05 0.04903008 13465.295
0.10962066 -0.05 0.04837006 13540.361
0.10530908 -0.05 0.047695796 13615.206
0.10109483 -0.05 0.047007509 13693.807
0.096976017 -0.05 0.046305459 13777.571
0.092950808 -0.05 0.04558984 13864.126
0.08901745 -0.05 0.044860715 13952.125
0.085174232 -0.05 0.044118143 14040.908
0.081419479 -0.05 0.043362242 14130.949
0.077751578 -0.05 0.042593081 14224.134
0.074168981 -0.05 0.041810614 14322.373
0.070670198 -0.05 0.041014781 14425.659
0.06725379 -0.05 0.040205492 14534.128
0.06391837 -0.05 0.039382651 14652.896
0.060662655 -0.05 0.038545988 14785.635
0.057485397 -0.05 0.037695273 14928.539
0.054385413 -0.05 0.036830261 15079.94
0.051361621 -0.05 0.035950545 15238.512
0.048412992 -0.05 0.035055749 15407.614
0.045538629 -0.05 0.034145316 15588.516
0.042737712 -0.05 0.03321865 15776.154
0.040009498 -0.05 0.032275148 15969.286
0.037353406 -0.05 0.031314032 16173.819
0.034768993 -0.05 0.030334375 16392.341
0.032255944 -0.05 0.02933521 16625.614
0.029814132 -0.05 0.028315426 16872.201
0.027443661 -0.05 0.027273729 17134.57
0.025144824 -0.05 0.026208776 17417.764
0.022918276 -0.05 0.02511886 17729.126
0.020764984 -0.05 0.02400217 18077.384
0.018686283 -0.05 0.022856725 18477.062
0.016684024 -0.05 0.021680228 18930.574
0.01476059 -0.05 0.020470219 19438.63
0.012919252 -0.05 0.019223865 20013.848
0.011164249 -0.05 0.017938283 20660.051
0.0095007128 -0.05 0.016610449 21388.303
0.0079348886 -0.05 0.015236971 22225.608
0.006474941 -0.05 0.013814774 23189.516
0.0051312596 -0.05 0.012341958 24283
0.0039150106 -0.05 0.010816511 25506.8
0.0028396284 -0.05 0.009238845 26848.597
0.0019206554 -0.05 0.007613688 28276.565
0.0011720639 -0.05 0.0059475212 29783.497
0.0006061561 -0.05 0.004252283 31286.294
0.00023063831 -0.05 0.0025452878 32633.344
4.5460517e-05 -0.05 0.0008455405 33744.062
0.99536103 -0.05 0.00067021835 26485.654
0.98608198 -0.05 0.0020028877 26403.454
0.97680071 -0.05 0.0033200849 26290.278
0.96751731 -0.05 0.0046220425 26182.917
0.95823181 -0.05 0.0059090613 26072.726
0.94894428 -0.05 0.0071813587 25963.138
0.93965479 -0.05 0.0084391859 25853.406
0.93036339 -0.05 0.0096828487 25744.089
0.92107012 -0.05 0.010912491 25635.352
0.91177504 -0.05 0.012128333 25527.306
0.90247819 -0.05 0.013330648 25420.124
0.89317963 -0.05 0.014519511 25313.987
0.88387936 -0.05 0.015695054 25209.002
0.87457746 -0.05 0.016857552 25105.227
0.86527395 -0.05 0.01800713 25002.75
0.85596885 -0.05 0.019143875 24901.415
0.84666223 -0.05 0.020267984 24801.26
0.8373541 -0.05 0.021379502 24702.447
0.82804448 -0.05 0.022478516 24604.868
0.8187334 -0.05 0.023565119 24508.434
0.8094209 -0.05 0.024639397 24412.976
0.80010698 -0.05 0.025701394 24318.633
0.79079168 -0.05 0.026751168 24225.32
0.78147501 -0.05 0.027788748 24133.081
0.77215699 -0.05 0.028814138 24041.706
0.76283764 -0.05 0.029827333 23951.304
0.75351698 -0.05 0.030828337 23861.495
0.74419501 -0.05 0.03181713 23772.006
0.73487174 -0.05 0.032793639 23682.57
0.72554719 -0.05 0.033757832 23593.373
0.71622136 -0.05 0.034709535 23504.365
0.70689427 -0.05 0.03564879 23414.993
0.69756592 -0.05 0.036575541 23325.168
0.68823633 -0.05 0.037489546 23234.589
0.67890547 -0.05 0.03839067 23143.011
0.66957337 -0.05 0.039278803 23050.017
0.66024004 -0.05 0.040153805 22955.105
0.65090546 -0.05 0.04101549 22857.629
0.64156964 -0.05 0.041863622 22756.993
0.63223258 -0.05 0.042697993 22652.397
0.62289428 -0.05 0.043518409 22542.878
0.61355475 -0.05 0.04432459 22427.494
0.60421397 -0.05 0.045116235 22305.574
0.59487195 -0.05 0.045893096 22175.878
0.58552869 -0.05 0.046654869 22035.867
0.57618419 -0.05 0.047401205 21882.763
0.56683843 -0.05 0.048131797 21715.03
0.55749143 -0.05 0.04884624 21531.951
0.54814318 -0.05 0.049544113 21334.561
0.53879368 -0.05 0.050225066 21123.938
0.52944294 -0.05 0.050888717 20899.055
0.52009095 -0.05 0.051534504 20656.277
0.51073771 -0.05 0.052161963 20391.954
0.50138323 -0.05 0.052770675 20104.834
0.49202751 -0.05 0.05336005 19800.101
0.48267056 -0.05 0.053929509 19489.132
0.47331239 -0.05 0.054478508 19176.922
0.46395301 -0.05 0.055006444 18860.269
0.45459243 -0.05 0.05551264 18536.771
0.44523065 -0.05 0.055996468 18105.002
0.43586773 -0.05 0.056457197 16781.236
0.42650365 -0.05 0.05689408 14652.289
0.41713847 -0.05 0.057306403 13035.184
0.4077722 -0.05 0.057693321 12217.78
0.39840488 -0.05 0.058053993 11867.971
0.38903656 -0.05 0.058387504 11724.18
0.37966728 -0.05 0.058692934 11667.077
0.3702971 -0.05 0.058969274 11647.559
0.36092607 -0.05 0.059215505 11643.487
0.35155429 -0.05 0.059430617 11652.929
0.34218182 -0.05 0.059613395 11672.706
0.33280875 -0.05 0.059762648 11698.237
0.3234352 -0.05 0.059877122 11728.245
0.31406128 -0.05 0.059955444 11761.152
0.30468712 -0.05 0.059996221 11797.74
