# p  FACE_DATA 150
# x y z  p
0.29576437 -0.05 0.059999701 95961.034
0.28738431 -0.05 0.059968924 95875.811
0.27918472 -0.05 0.059906283 95792.598
0.27116186 -0.05 0.05981265 95709.14
0.26331203 -0.05 0.059689027 95625.885
0.25563166 -0.05 0.059536266 95542.574
0.24811723 -0.05 0.059355154 95459.472
0.24076528 -0.05 0.059146557 95376.179
0.23357246 -0.05 0.058911358 95292.757
0.22653546 -0.05 0.058650341 95209.248
0.21965107 -0.05 0.058364202 95125.547
0.21291613 -0.05 0.058053757 95040.917
0.20632755 -0.05 0.057719714 94956.499
0.19988232 -0.05 0.057362758 94871.42
0.19357748 -0.05 0.056983702 94785.863
0.18741014 -0.05 0.056583118 94700.381
0.18137746 -0.05 0.056161624 94614.405
0.17547671 -0.05 0.055719844 94528.217
0.16970518 -0.05 0.055258362 94441.161
0.16406021 -0.05 0.05477783 94353.24
0.15853921 -0.05 0.054278745 94265.082
0.15313967 -0.05 0.053761636 94175.933
0.14785914 -0.05 0.053226963 94086.265
0.14269518 -0.05 0.052675259 93994.826
0.13764543 -0.05 0.052106992 93903.346
0.13270762 -0.05 0.051522466 93811.168
0.12787949 -0.05 0.050922169 93717.536
0.12315883 -0.05 0.050306449 93623.018
0.11854353 -0.05 0.049675628 93527.044
0.11403148 -0.05 0.04903008 93429.576
0.10962065 -0.05 0.04837006 93330.736
0.10530908 -0.05 0.047695796 93230.341
0.10109483 -0.05 0.047007509 93128.318
0.096976017 -0.05 0.046305459 93024.058
0.092950808 -0.05 0.04558984 92917.998
0.08901745 -0.05 0.044860715 92810.576
0.085174232 -0.05 0.044118143 92700.807
0.081419479 -0.05 0.043362243 92587.625
0.077751578 -0.05 0.042593081 92471.246
0.074168981 -0.05 0.041810614 92352.05
0.070670198 -0.05 0.041014781 92230.096
0.06725379 -0.05 0.040205491 92105.986
0.06391837 -0.05 0.039382651 91979.17
0.060662655 -0.05 0.038545988 91850.338
0.057485397 -0.05 0.037695273 91717.225
0.054385413 -0.05 0.036830261 91581.365
0.051361621 -0.05 0.035950545 91442.292
0.048412992 -0.05 0.035055749 91300.517
0.045538629 -0.05 0.034145316 91156.379
0.042737712 -0.05 0.03321865 91008.427
0.040009498 -0.05 0.032275149 90855.76
0.037353406 -0.05 0.031314032 90699.064
0.034768993 -0.05 0.030334375 90536.913
0.032255944 -0.05 0.02933521 90367.362
0.029814132 -0.05 0.028315426 90193.794
0.027443661 -0.05 0.027273729 90018.541
0.025144824 -0.05 0.026208776 89839.369
0.022918276 -0.05 0.02511886 89659.494
0.020764984 -0.05 0.02400217 89475.568
0.018686283 -0.05 0.022856725 89297.43
0.016684024 -0.05 0.021680228 89134.072
0.01476059 -0.05 0.020470219 89001.442
0.012919252 -0.05 0.019223865 88916.496
0.011164249 -0.05 0.017938283 88875.743
0.0095007128 -0.05 0.016610449 88883.863
0.0079348886 -0.05 0.015236971 88960.819
0.006474941 -0.05 0.013814774 89160.747
0.0051312596 -0.05 0.012341958 89532.029
0.0039150106 -0.05 0.010816511 90121.181
0.0028396284 -0.05 0.009238845 90962.203
0.0019206554 -0.05 0.007613688 92060.984
0.0011720639 -0.05 0.0059475212 93482.158
0.00060615611 -0.05 0.004252283 95162.108
0.00023063831 -0.05 0.0025452878 96972.92
4.5460517e-05 -0.05 0.0008455405 98789.161
0.99536103 -0.05 0.00067021835 101181.26
0.98608198 -0.05 0.0020028877 101089.07
0.97680071 -0.05 0.0033200849 100963.18
0.96751731 -0.05 0.0046220425 100853.37
0.95823181 -0.05 0.0059090613 100745.39
0.94894428 -0.05 0.0071813587 100643.39
0.93965479 -0.05 0.0084391859 100545.61
0.93036339 -0.05 0.0096828487 100452.09
0.92107012 -0.05 0.010912491 100362.5
0.91177504 -0.05 0.012128333 100276.34
0.90247819 -0.05 0.013330648 100193.46
0.89317963 -0.05 0.014519511 100113.65
0.88387936 -0.05 0.015695054 100036.75
0.87457746 -0.05 0.016857552 99962.349
0.86527394 -0.05 0.01800713 99890.475
0.85596885 -0.05 0.019143875 99820.598
0.84666223 -0.05 0.020267984 99752.728
0.8373541 -0.05 0.021379502 99686.621
0.82804448 -0.05 0.022478516 99622.015
0.8187334 -0.05 0.023565119 99558.607
0.8094209 -0.05 0.024639397 99496.468
0.80010698 -0.05 0.025701394 99435.495
0.79079168 -0.05 0.026751168 99375.503
0.78147501 -0.05 0.027788748 99316.244
0.77215699 -0.05 0.028814138 99257.934
0.76283764 -0.05 0.029827333 99200.322
0.75351698 -0.05 0.030828337 99143.306
0.74419501 -0.05 0.03181713 99086.803
0.73487174 -0.05 0.032793639 99031
0.72554719 -0.05 0.033757832 98975.616
0.71622136 -0.05 0.034709535 98920.762
0.70689427 -0.05 0.03564879 98865.41
0.69756592 -0.05 0.036575541 98810.414
0.68823633 -0.05 0.037489546 98755.396
0.67890547 -0.05 0.03839067 98700.625
0.66957337 -0.05 0.039278803 98645.575
0.66024004 -0.05 0.040153805 98590.698
0.65090546 -0.05 0.04101549 98535.61
0.64156964 -0.05 0.041863622 98480.636
0.63223258 -0.05 0.042697993 98425.162
0.62289428 -0.05 0.043518409 98369.747
0.61355475 -0.05 0.04432459 98314.046
0.60421397 -0.05 0.045116236 98258.317
0.59487195 -0.05 0.045893096 98201.841
0.58552869 -0.05 0.046654869 98145.031
0.57618419 -0.05 0.047401205 98087.497
0.56683843 -0.05 0.048131797 98029.525
0.55749143 -0.05 0.048846241 97970.839
0.54814318 -0.05 0.049544112 97911.871
0.53879368 -0.05 0.050225066 97852.078
0.52944294 -0.05 0.050888717 97791.78
0.52009095 -0.05 0.051534504 97730.937
0.51073771 -0.05 0.052161963 97669.604
0.50138323 -0.05 0.052770675 97607.538
0.49202751 -0.05 0.05336005 97544.82
0.48267057 -0.05 0.053929509 97480.687
0.47331239 -0.05 0.054478508 97415.667
0.46395301 -0.05 0.055006444 97349.652
0.45459243 -0.05 0.05551264 97282.873
0.44523065 -0.05 0.055996468 97214.756
0.43586772 -0.05 0.056457197 97146.135
0.42650365 -0.05 0.05689408 97076.419
0.41713847 -0.05 0.057306402 97005.875
0.4077722 -0.05 0.057693321 96934.004
0.39840488 -0.05 0.058053993 96861.041
0.38903656 -0.05 0.058387503 96786.406
0.37966728 -0.05 0.058692933 96710.23
0.3702971 -0.05 0.058969274 96632.585
0.36092607 -0.05 0.059215505 96553.522
0.35155429 -0.05 0.059430617 96472.895
0.34218182 -0.05 0.059613395 96391.528
0.33280876 -0.05 0.059762649 96308.652
0.3234352 -0.05 0.059877122 96224.147
0.31406128 -0.05 0.059955444 96135.427
0.30468712 -0.05 0.059996221 96044.496
