/*--------------------------------*- C++ -*----------------------------------*\
| =========                 |                                                 |
| \\      /  F ield         | OpenFOAM: The Open Source CFD Toolbox           |
|  \\    /   O peration     | Version:  2306                                  |
|   \\  /    A nd           | Website:  www.openfoam.com                      |
|    \\/     M anipulation  |                                                 |
\*---------------------------------------------------------------------------*/
FoamFile
{
    version     2.0;
    format      ascii;
    arch        "LSB;label=32;scalar=64";
    class       volScalarField;
    location    "325";
    object      p;
}
// * * * * * * * * * * * * * * * * * * * * * * * * * * * * * * * * * * * * * //

dimensions      [0 2 -2 0 0 0 0];

internalField   nonuniform List<scalar> 
10720
(
-62.3599
-133.652
-217.507
-300.149
-376.512
-454.301
-523.316
-581.258
-631.591
-670.973
-700.956
-723.036
-738.341
-747.596
-750.978
-747.837
-739.083
-723.663
-703.005
-677.172
-649.525
-623.124
-600.53
-573.572
-533.328
-482.241
-429.857
-384.255
-345.007
-308.085
-271.589
-235.425
-199.637
-163.853
-127.671
-90.0569
-51.5516
-6.90789
26.058
9.01494
74.0636
143.411
208.157
263.487
305.415
330.169
338.462
336.068
323.171
302.146
278.604
255.06
232.277
210.896
190.783
171.994
154.097
136.822
119.677
102.612
85.3167
67.8828
50.7227
35.7039
23.8671
14.1518
6.26957
0.405475
-3.47511
-5.62047
-6.17887
-5.233
-2.78912
1.16145
6.9722
15.217
29.1388
52.8254
43.155
-11.004
-71.6806
-136.124
-202.346
-270.124
-335.904
-397.609
-454.556
-504.986
-548.692
-585.678
-615.853
-639.211
-655.572
-664.634
-667.148
-662.998
-653.237
-638.413
-621.175
-603.887
-587.626
-565.221
-528.461
-479.403
-428.25
-383.187
-344.126
-307.282
-270.813
-234.687
-198.971
-163.282
-127.207
-89.6892
-51.2632
-6.60691
25.7466
91.8897
138.345
184.685
229.383
268.776
300.25
320.667
329.367
327.946
317.262
300.082
279.887
258.626
237.24
216.436
196.462
177.448
159.213
141.559
124.157
106.907
89.6047
72.3313
55.5119
40.6192
28.58
18.7118
10.6002
4.20922
-0.360964
-3.12325
-4.17215
-3.61121
-1.47322
2.24057
7.87442
15.9865
29.8296
52.5854
56.9387
8.27802
-46.5124
-107.007
-169.727
-234.012
-298.296
-359.92
-417.3
-469.438
-515.082
-553.678
-584.919
-608.998
-626.149
-636.789
-640.946
-638.684
-630.65
-617.569
-601.302
-583.883
-566.47
-544.591
-511.41
-467.302
-420.397
-377.86
-340.208
-304.39
-268.769
-233.288
-197.992
-162.556
-126.648
-89.2638
-50.9433
-6.35868
25.866
100.85
143.511
185.944
226.119
260.825
288.443
306.868
315.792
315.956
308.023
294.073
276.459
256.963
236.751
216.637
197.053
178.202
160.047
142.446
125.156
108.043
90.9677
73.9923
57.4994
42.6515
30.3521
20.2303
11.931
5.44019
0.845453
-1.9167
-3.00413
-2.5348
-0.52297
3.06208
8.58244
16.6062
30.3149
52.1891
79.5569
38.7653
-7.83422
-59.0802
-112.882
-169.17
-226.281
-282.453
-336.363
-386.855
-432.806
-473.488
-508.437
-537.502
-560.558
-577.73
-588.565
-593.022
-591.414
-584.356
-573.136
-559.303
-543.691
-523.43
-493.588
-454.119
-411.238
-371.154
-334.919
-300.217
-265.585
-230.931
-196.31
-161.413
-125.896
-88.7836
-50.6445
-6.25947
26.069
116.095
151.185
186.382
220.339
250.063
274.288
291.202
300.32
301.888
296.369
285.358
270.6
253.556
235.325
216.696
198.154
179.971
162.235
144.888
127.785
110.827
93.9374
77.1893
60.9412
46.1523
33.6724
23.3343
14.8145
8.06952
3.16098
0.0327934
-1.41949
-1.27178
0.481161
3.87414
9.25864
17.1837
30.7193
51.7447
85.6875
49.3687
7.68353
-38.492
-87.1038
-138.563
-191.496
-244.292
-295.939
-345.281
-391.171
-432.8
-469.487
-500.736
-526.245
-545.705
-558.866
-565.733
-566.544
-561.921
-552.883
-540.719
-526.071
-506.898
-479.385
-443.183
-403.184
-364.888
-329.704
-295.88
-262.09
-228.193
-194.23
-159.901
-124.875
-88.1844
-50.3535
-6.30111
26.1292
118.301
149.454
180.786
211.011
237.487
259.341
275.178
284.417
287.086
283.607
275.131
262.971
248.272
231.993
214.886
197.459
180.047
162.83
145.841
129.023
112.319
95.7
79.2503
63.3014
48.6454
36.0557
25.5239
16.7931
9.82465
4.68637
1.35164
-0.26515
-0.245945
1.39894
4.69754
9.99518
17.8282
31.1545
51.2916
89.4844
57.3297
20.2301
-20.8337
-64.0767
-110.199
-157.92
-205.958
-253.576
-299.713
-343.403
-383.877
-420.398
-452.369
-479.362
-501.001
-517.168
-527.666
-532.502
-532.039
-526.953
-518.14
-506.001
-489.06
-464.407
-431.619
-394.656
-358.395
-324.467
-291.595
-258.623
-225.431
-192.088
-158.311
-123.773
-87.5322
-50.0917
-6.51395
26.0108
118.36
145.84
173.678
200.732
224.558
244.515
259.469
268.741
272.24
270.381
264.008
254.137
241.661
227.379
211.966
195.902
179.539
163.106
146.706
130.351
114.035
97.7709
81.6617
66.022
51.527
38.8796
28.1921
19.2848
12.124
6.77394
3.2206
1.38057
1.17681
2.606
5.71014
10.8395
18.5173
31.5746
50.799
89.4074
60.3876
26.8167
-10.3753
-49.4638
-91.3823
-134.995
-179.18
-223.442
-266.846
-308.549
-347.868
-384.052
-416.454
-444.556
-467.906
-486.096
-498.86
-506.05
-507.945
-505.09
-498.188
-487.557
-472.191
-449.907
-420.205
-386.145
-351.927
-319.291
-287.389
-255.245
-222.743
-189.971
-156.704
-122.655
-86.9021
-49.9224
-6.93548
25.6879
115.495
140.242
165.44
190.029
211.769
230.204
244.405
253.629
257.741
257.15
252.5
244.585
234.108
221.715
207.982
193.334
178.113
162.574
146.866
131.062
115.204
99.3475
83.6148
68.307
54.0098
41.362
30.56
21.4993
14.1571
8.59701
4.81948
2.75961
2.35224
3.60285
6.55799
11.5615
19.1137
31.8975
50.2319
87.7305
61.389
30.853
-2.94655
-38.3739
-76.4874
-116.241
-156.658
-197.415
-237.714
-276.828
-314.186
-349.099
-380.928
-409.117
-433.154
-452.576
-467.146
-476.66
-481.185
-481.019
-476.594
-468.068
-454.711
-434.924
-408.243
-377.046
-344.933
-313.697
-282.864
-251.639
-219.912
-187.781
-155.055
-121.498
-86.2547
-49.8272
-7.54984
25.1092
111.446
133.894
156.879
179.419
199.424
216.597
230.122
239.227
243.788
244.177
240.914
234.644
225.922
215.267
203.157
189.95
175.956
161.431
146.547
131.418
116.127
100.763
85.4671
70.5299
56.476
43.8885
33.0209
23.8408
16.3436
10.5953
6.61208
4.34509
3.73729
4.79793
7.57976
12.4218
19.8039
32.2464
49.6629
84.8372
60.7171
32.7235
1.76118
-30.5906
-65.4545
-101.885
-139
-176.621
-214.051
-250.685
-286.062
-319.558
-350.577
-378.571
-403.001
-423.375
-439.325
-450.565
-456.99
-458.766
-456.187
-449.345
-437.717
-420.137
-396.184
-367.67
-337.632
-307.835
-278.111
-247.839
-216.926
-185.477
-153.335
-120.298
-85.573
-49.7437
-8.26261
24.2555
106.584
127.138
148.285
169.107
187.648
203.752
216.66
225.6
230.474
231.617
229.468
224.562
217.355
208.259
197.664
185.86
173.114
159.662
145.681
131.308
116.657
101.846
87.031
72.4967
58.7225
46.2451
35.3553
26.0853
18.4536
12.531
8.34837
5.874
5.06282
5.93198
8.54112
13.2224
20.4303
32.5135
49.0342
81.2914
59.0782
33.2793
4.77963
-24.9032
-56.9169
-90.3816
-124.503
-159.202
-193.868
-228.006
-261.245
-293.036
-322.857
-350.183
-374.473
-395.22
-412.017
-424.559
-432.633
-436.244
-435.522
-430.454
-420.64
-405.231
-383.87
-357.942
-329.984
-301.685
-273.12
-243.84
-213.776
-183.043
-151.522
-119.041
-84.8609
-49.6436
-9.0156
23.1765
101.354
120.292
139.87
159.219
176.503
191.673
204.014
212.755
217.835
219.555
218.295
214.514
208.597
200.876
191.666
181.196
169.684
157.335
144.316
130.771
116.834
102.64
88.3598
74.2708
60.8203
48.5081
37.6473
28.3256
20.5883
14.5138
10.1476
7.47677
6.46773
7.14407
9.57279
14.0772
21.0849
32.7615
48.3752
77.36
56.7927
32.8955
6.53153
-20.8309
-50.3526
-81.207
-112.671
-144.725
-176.841
-208.614
-239.761
-269.8
-298.278
-324.718
-348.607
-369.439
-386.78
-400.267
-409.613
-414.677
-415.487
-411.975
-403.824
-390.412
-371.441
-347.953
-322.038
-295.267
-267.901
-239.647
-210.467
-180.486
-149.616
-117.726
-84.1269
-49.5223
-9.8174
21.938
95.9681
113.517
131.737
149.81
165.998
180.338
192.148
200.673
205.875
208.031
207.478
204.622
199.795
193.271
185.308
176.078
165.755
154.504
142.475
129.806
116.637
103.115
89.4141
75.8076
62.7206
50.6225
39.838
30.5009
22.685
16.4787
11.9426
9.08188
7.8774
8.36005
10.6049
14.9247
21.7179
32.9614
47.6807
73.2466
54.1222
31.896
7.41058
-17.9149
-45.2348
-73.7665
-102.843
-132.496
-162.255
-191.792
-220.893
-249.145
-276.167
-301.528
-324.753
-345.359
-362.9
-376.986
-387.301
-393.581
-395.758
-393.706
-387.149
-375.626
-358.888
-337.71
-313.799
-288.582
-262.454
-235.264
-207.003
-177.807
-147.625
-116.358
-83.3795
-49.3982
-10.6843
20.5664
90.5837
106.92
123.951
140.896
156.121
169.712
181.02
189.318
194.576
197.058
197.067
194.969
191.058
185.567
178.711
170.617
161.414
151.236
140.201
128.437
116.078
103.273
90.1942
77.1096
64.4268
52.5915
41.9326
32.6201
24.757
18.4438
13.7559
10.7172
9.3236
9.61299
11.6687
15.7913
22.3488
33.1257
46.9558
69.0806
51.2293
30.4841
7.66256
-15.8612
-41.2258
-67.6878
-94.6228
-122.102
-149.71
-177.164
-204.318
-230.818
-256.345
-280.527
-302.931
-323.105
-340.609
-355.027
-366.034
-373.27
-376.59
-375.825
-370.729
-360.946
-346.267
-327.258
-305.293
-281.642
-256.783
-230.688
-203.381
-175.006
-145.545
-114.937
-82.6184
-49.2928
-11.6174
19.0674
85.2906
100.562
116.535
132.476
146.842
159.751
170.585
178.648
183.913
186.634
187.088
185.608
182.465
177.862
171.977
164.908
156.748
147.595
137.541
126.69
115.166
103.11
90.6901
78.1637
65.9234
54.3956
43.9091
34.6615
26.7829
20.3881
15.5669
12.362
10.7855
10.8826
12.7454
16.661
22.9657
33.2502
46.2027
64.9485
48.2313
28.8101
7.47513
-14.4418
-38.0589
-62.6671
-87.6745
-113.187
-138.824
-164.349
-189.664
-214.469
-238.499
-261.442
-282.911
-302.481
-319.738
-334.254
-345.701
-353.675
-357.948
-358.323
-354.565
-346.388
-333.61
-316.631
-296.546
-274.459
-250.894
-225.92
-199.598
-172.08
-143.376
-113.46
-81.8401
-49.213
-12.6134
17.4553
80.1519
94.4723
109.502
124.537
138.131
150.413
160.796
168.622
173.856
176.748
177.552
176.577
174.074
170.229
165.193
159.041
151.837
143.65
134.544
124.598
113.919
102.635
90.9025
78.9664
67.2042
56.0265
45.758
36.6163
28.7559
22.3069
17.3737
14.017
12.266
12.1732
13.8396
17.5374
23.5709
33.3387
45.4256
60.9058
45.2089
26.9788
6.98183
-13.4941
-35.5418
-58.4789
-81.7492
-105.475
-129.309
-153.053
-176.647
-199.836
-222.407
-244.092
-264.552
-283.402
-300.254
-314.688
-326.368
-334.876
-339.917
-341.271
-338.711
-331.998
-320.96
-305.872
-287.587
-267.049
-244.794
-220.965
-195.657
-169.027
-141.115
-111.929
-81.0431
-49.1544
-13.6698
15.7429
75.2046
88.6701
102.846
117.063
129.952
141.653
151.61
159.196
164.371
167.379
168.457
167.893
165.926
162.726
158.427
153.089
146.753
139.464
131.26
122.196
112.359
101.858
90.8345
79.5147
68.2621
57.4732
47.4657
38.4704
30.6626
24.1881
19.1652
15.6726
13.7564
13.4771
14.9444
18.4148
24.1601
33.3913
44.6283
56.9898
42.2179
25.0666
6.2815
-12.8947
-33.5223
-54.9473
-76.6441
-98.7449
-120.93
-143.035
-165.026
-186.686
-207.845
-228.28
-247.694
-265.744
-282.07
-296.271
-308.005
-316.871
-322.514
-324.695
-323.196
-317.803
-308.353
-295.016
-278.447
-259.433
-238.493
-215.828
-191.557
-165.848
-138.762
-110.34
-80.2272
-49.1139
-14.7799
13.9364
70.4696
83.1616
96.5605
110.029
122.272
133.434
142.988
150.332
155.427
158.509
159.799
159.568
158.047
155.395
151.735
147.114
141.559
135.095
127.739
119.525
110.514
100.796
90.4918
79.8093
69.0945
58.729
49.0223
40.2127
32.4926
26.022
20.9337
17.3227
15.2524
14.7913
16.0575
19.2914
24.7324
33.4108
43.8145
53.2254
39.2952
23.1266
5.44654
-12.5507
-31.8872
-51.9398
-72.2048
-92.8241
-113.503
-134.098
-154.597
-174.82
-194.629
-213.841
-232.201
-249.401
-265.115
-278.966
-290.609
-299.675
-305.768
-308.633
-308.056
-303.843
-295.831
-284.107
-269.159
-251.631
-232.005
-210.514
-187.304
-162.544
-136.317
-108.695
-79.392
-49.0889
-15.9356
12.0421
65.9574
77.946
90.6333
103.414
115.062
125.718
134.888
141.993
146.991
150.112
151.565
151.604
150.455
148.269
145.16
141.168
136.311
130.599
124.033
116.624
108.413
99.4676
89.8863
79.8545
69.6994
59.7877
50.4183
41.8321
34.2342
27.798
22.6693
18.9588
16.7467
16.11
17.174
20.1633
25.2856
33.399
42.9885
49.6265
36.4667
21.2011
4.52986
-12.3892
-30.5498
-49.3485
-68.3083
-87.5731
-106.871
-126.075
-145.193
-164.07
-182.599
-200.63
-217.941
-234.267
-249.307
-262.717
-274.156
-283.285
-289.692
-293.106
-293.318
-290.147
-283.43
-273.184
-259.76
-243.67
-225.345
-205.035
-182.901
-159.115
-133.781
-106.994
-78.536
-49.0789
-17.128
10.0711
61.6721
73.0159
85.0479
97.1941
108.289
118.47
127.274
134.143
139.033
142.167
143.742
144.001
143.161
141.37
138.735
135.293
131.057
126.025
120.185
113.533
106.088
97.8963
89.0327
79.658
70.0788
60.6461
51.6461
43.3186
35.8768
29.5056
24.3624
20.5728
18.2327
17.4278
18.2895
21.0274
25.8179
33.3586
42.155
46.2002
33.7502
19.3149
3.57388
-12.3589
-29.4397
-47.0905
-64.8536
-82.8789
-100.908
-118.83
-136.669
-154.29
-171.611
-188.508
-204.794
-220.237
-234.568
-247.47
-258.617
-267.693
-274.296
-278.137
-279.01
-276.748
-271.185
-262.286
-250.284
-235.575
-218.531
-199.401
-178.355
-155.567
-131.153
-105.234
-77.6581
-49.0818
-18.3483
8.03526
57.613
68.3624
79.7881
91.346
101.923
111.659
120.114
126.751
131.523
134.648
136.314
136.749
136.168
134.712
132.485
129.524
125.836
121.416
116.241
110.292
103.572
96.1065
87.9466
79.2291
70.2373
61.3032
52.7004
44.6636
37.4104
31.1343
26.0034
22.1559
19.7026
18.7384
19.3992
21.88
26.3278
33.292
41.3185
42.9501
31.1566
17.489
2.60657
-12.417
-28.5052
-45.0991
-61.7645
-78.6501
-95.5116
-112.251
-128.904
-145.353
-161.536
-177.356
-192.651
-207.218
-220.821
-233.168
-243.957
-252.886
-259.581
-263.737
-265.153
-263.673
-259.132
-251.45
-240.768
-227.376
-211.582
-193.624
-173.674
-151.902
-128.436
-103.417
-76.7564
-49.0949
-19.5878
5.94772
53.7761
63.9757
74.8383
85.8481
95.9404
105.254
113.377
119.785
124.434
127.535
129.265
129.842
129.476
128.304
126.429
123.886
120.683
116.809
112.237
106.937
100.898
94.1251
86.6492
78.5818
70.1812
61.7601
53.5773
45.8598
38.8257
32.6743
27.5822
23.699
21.1487
20.0354
20.4976
22.7175
26.8139
33.202
40.4835
39.8754
28.6917
15.7374
1.65123
-12.5327
-27.7033
-43.3232
-58.9767
-74.8118
-90.5969
-106.246
-121.8
-137.16
-152.276
-167.073
-181.415
-195.124
-207.992
-219.756
-230.136
-238.843
-245.541
-249.913
-251.763
-250.947
-247.303
-240.715
-231.248
-219.102
-204.522
-187.722
-168.867
-148.126
-125.633
-101.543
-75.8286
-49.1137
-20.837
3.82274
50.1567
59.8443
70.1816
80.6786
90.3156
99.2306
107.035
113.222
117.744
120.806
122.579
123.27
123.083
122.153
120.58
118.401
115.624
112.237
108.209
103.503
98.0966
91.9794
85.1619
77.7309
69.9194
62.02
54.2752
46.9017
40.1147
34.1161
29.0892
25.1929
22.5626
21.3115
21.5791
23.5359
27.2748
33.0913
39.6545
36.9743
26.3587
14.0685
0.723646
-12.681
-27.0018
-41.7196
-56.4383
-71.3013
-86.0927
-100.733
-115.27
-129.615
-143.733
-157.567
-170.997
-183.874
-196.013
-207.178
-217.111
-225.539
-232.166
-236.667
-238.852
-238.592
-235.726
-230.115
-221.761
-210.785
-197.374
-181.71
-163.947
-144.246
-122.745
-99.6127
-74.8728
-49.1338
-22.0858
1.67521
46.7468
55.9568
65.802
75.8177
85.0257
93.5634
101.063
107.033
111.426
114.441
116.24
117.021
116.983
116.258
114.946
113.083
110.681
107.726
104.187
100.022
95.1994
89.6966
83.5065
76.6928
69.4635
62.0891
54.7948
47.7855
41.2703
35.451
30.5149
26.6283
23.9359
22.5593
22.6381
24.3315
27.7092
32.9626
38.8361
34.2427
24.1575
12.4885
-0.16405
-12.8454
-26.3746
-40.2556
-54.1075
-68.0717
-81.9415
-95.6477
-109.24
-122.641
-135.827
-148.754
-161.319
-173.395
-184.818
-195.379
-204.842
-212.95
-219.44
-223.996
-226.431
-226.626
-224.428
-219.682
-212.339
-202.456
-190.163
-175.607
-158.927
-140.271
-119.778
-97.6262
-73.8864
-49.1497
-23.3251
-0.480783
43.5381
52.3023
61.6854
71.2473
80.0506
88.2301
95.4381
101.197
105.459
108.42
110.231
111.083
111.169
110.621
109.532
107.945
105.871
103.298
100.196
96.5206
92.2342
87.3033
81.7064
75.4865
68.8265
61.9747
55.1386
48.509
42.2869
36.6713
31.8505
27.996
25.2601
23.7714
23.6683
25.1002
28.1161
32.8184
38.0323
31.6754
22.0873
11.0005
-1.00393
-13.0098
-25.8019
-38.9037
-51.9504
-65.0795
-78.0963
-90.9359
-103.652
-116.174
-128.489
-140.562
-152.309
-163.618
-174.346
-184.305
-193.286
-201.043
-207.347
-211.893
-214.502
-215.061
-213.431
-209.445
-203.016
-194.148
-182.916
-169.435
-153.821
-136.209
-116.737
-95.5848
-72.8671
-49.155
-24.5439
-2.62972
40.5229
48.8679
57.8167
66.9509
75.3712
83.2093
90.1373
95.6909
99.8239
102.725
104.538
105.444
105.634
105.235
104.339
102.992
101.206
98.9715
96.2587
93.0248
89.2271
84.825
79.7849
74.1311
68.0231
61.6863
55.3106
49.0722
43.1608
37.7701
33.0876
29.2872
26.5264
24.9399
24.6637
25.8381
28.4945
32.6611
37.2472
29.266
20.1457
9.60585
-1.7906
-13.164
-25.2674
-37.6417
-49.9384
-62.2914
-74.515
-86.5494
-98.4498
-110.155
-121.657
-132.93
-143.904
-154.483
-164.539
-173.909
-182.399
-189.788
-195.865
-200.35
-203.065
-203.91
-202.756
-199.433
-193.824
-185.89
-175.66
-163.213
-148.645
-132.072
-113.626
-93.4904
-71.8116
-49.1435
-25.7321
-4.75669
37.6924
45.6435
54.182
62.9112
70.9682
78.4813
85.1413
90.4968
94.5014
97.3376
99.1438
100.093
100.368
100.097
99.3685
98.2298
96.6958
94.7598
92.3934
89.5555
86.2013
82.2849
77.7636
72.646
67.0684
61.2352
55.3175
49.4763
43.8894
38.7423
34.2188
30.4934
27.7264
26.0569
25.618
26.5412
28.8432
32.4929
36.4841
27.0088
18.3292
8.30426
-2.52062
-13.301
-24.7592
-36.4533
-48.0498
-59.6792
-71.164
-82.4499
-93.5915
-104.535
-115.278
-125.803
-136.048
-145.933
-155.347
-164.141
-172.144
-179.151
-184.973
-189.353
-192.119
-193.179
-192.419
-189.668
-184.789
-177.71
-168.421
-156.966
-143.415
-127.87
-110.453
-91.3437
-70.7183
-49.1072
-26.879
-6.84644
35.0382
42.6174
50.7679
59.1129
66.8252
74.0288
80.431
85.5952
89.4733
92.2425
94.0348
95.0151
95.3629
95.2
94.6167
93.6596
92.3465
90.6733
88.6146
86.1311
83.1776
79.7047
75.6637
71.0495
65.9786
60.6331
55.1668
49.7248
44.4718
39.5833
35.2375
31.6067
28.8521
27.1151
26.5248
27.2054
29.1613
32.3156
35.7461
24.8975
16.6332
7.09479
-3.1918
-13.4146
-24.2672
-35.324
-46.2658
-57.2193
-68.0147
-78.6035
-89.0385
-99.2727
-109.307
-119.131
-128.692
-137.92
-146.719
-154.957
-162.48
-169.102
-174.647
-178.888
-181.656
-182.871
-182.431
-180.172
-175.941
-169.639
-161.226
-150.715
-138.152
-123.617
-107.224
-89.1487
-69.5837
-49.0394
-27.9757
-8.88374
32.5512
39.7791
47.5623
55.5429
62.9268
69.8355
75.9903
80.969
84.723
87.4238
89.1968
90.1999
90.6071
90.5376
90.08
89.2815
88.1623
86.7207
84.9344
82.7668
80.1736
77.1043
73.5055
69.3619
64.7704
59.8934
54.8674
49.8225
44.9087
40.2906
36.1383
32.6202
29.8956
28.1068
27.3783
27.8268
29.4479
32.1306
35.0356
22.925
15.054
5.97466
-3.803
-13.5015
-23.7842
-34.2425
-44.5717
-54.8925
-65.0445
-74.9825
-84.7596
-94.3316
-103.706
-112.873
-121.79
-130.399
-138.614
-146.316
-153.371
-159.608
-164.862
-168.939
-171.67
-172.987
-172.804
-170.962
-167.301
-161.702
-154.102
-144.484
-132.871
-119.326
-103.948
-86.9065
-68.406
-48.9337
-29.0113
-10.8548
30.223
37.1184
44.5534
52.1873
59.2586
65.8859
71.803
76.6023
80.2349
82.8664
84.6164
85.6351
86.092
86.1026
85.7539
85.094
84.1445
82.9068
81.3616
79.475
77.2048
74.5013
71.3076
67.6002
63.4598
59.0294
54.4295
49.7753
45.2024
40.8627
36.9173
33.5276
30.8499
29.0252
28.1725
28.4016
29.7016
31.9391
34.3544
21.0848
13.5861
4.94168
-4.3548
-13.5588
-23.3052
-33.2004
-42.9543
-52.6827
-62.233
-71.5625
-80.7253
-89.6803
-98.4364
-106.991
-115.305
-123.33
-130.99
-138.182
-144.781
-150.636
-155.594
-159.485
-162.15
-163.526
-163.544
-162.052
-158.889
-153.925
-147.073
-138.296
-127.594
-115.011
-100.635
-84.6212
-67.183
-48.7806
-29.9772
-12.7463
28.0457
34.6256
41.7298
49.0334
55.8067
62.165
67.8543
72.4802
75.9943
78.5564
80.2802
81.3088
81.8069
81.8866
81.6323
81.0934
80.293
79.2347
77.9025
76.2656
74.2847
71.9107
69.0861
65.7814
62.0623
58.0547
53.8639
49.5908
45.3565
41.3
37.5712
34.324
31.7087
29.8637
28.9017
28.9261
29.9217
31.7417
33.7036
19.3705
12.2247
3.99278
-4.84829
-13.5851
-22.8251
-32.1902
-41.4032
-50.5757
-59.5622
-68.3232
-76.9116
-85.2903
-93.4698
-101.45
-109.2
-116.676
-123.812
-130.516
-136.677
-142.159
-146.82
-150.512
-153.084
-154.483
-154.654
-153.455
-150.725
-146.327
-140.162
-132.171
-122.338
-110.687
-97.2919
-82.2967
-65.9126
-48.5751
-30.8638
-14.5456
26.011
32.2911
39.0809
46.0701
52.5587
58.6596
64.1303
68.5887
71.9876
74.4804
76.1757
77.2098
77.7414
77.8808
77.709
77.2761
76.6067
75.706
74.5617
73.1464
71.4233
69.3454
66.856
63.921
60.5933
56.9832
53.1821
49.2772
45.376
41.6037
38.0988
35.0054
32.4668
30.6164
29.561
29.3968
30.1067
31.5386
33.0833
17.7754
10.9648
3.12432
-5.28477
-13.5799
-22.3415
-31.2068
-39.9108
-48.561
-57.019
-65.2476
-73.2988
-81.139
-88.7796
-96.2238
-103.444
-110.405
-117.047
-123.288
-129.029
-134.148
-138.513
-141.997
-144.458
-145.852
-146.134
-145.177
-142.821
-138.929
-133.39
-126.133
-117.123
-106.369
-93.9303
-79.9365
-64.5941
-48.31
-31.6636
-16.2422
24.1114
30.1066
36.5968
43.286
49.5026
55.3573
60.6175
64.9151
68.2019
70.6263
72.291
73.3265
73.8862
74.0766
73.9769
73.6368
73.0825
72.3207
71.3421
70.123
68.6294
66.817
64.6305
62.0331
59.0671
55.8283
52.3954
48.8436
45.2667
41.7768
38.4997
35.5691
33.1197
31.2785
30.1457
29.8105
30.2554
31.3295
32.4934
16.2933
9.8013
2.33284
-5.66633
-13.5434
-21.8525
-30.2458
-38.4706
-46.6299
-54.5913
-62.3212
-69.8695
-77.2058
-84.3425
-91.2854
-98.0109
-104.488
-110.664
-116.467
-121.808
-126.577
-130.652
-133.923
-136.26
-137.625
-137.984
-137.224
-135.191
-131.747
-126.777
-120.199
-111.966
-102.071
-90.5595
-77.5457
-63.2271
-47.9798
-32.3694
-17.8262
22.3394
28.0636
34.2682
40.6706
46.6274
52.2461
57.3044
61.4468
64.6247
66.9816
68.6149
69.649
70.2315
70.4657
70.4287
70.1704
69.7169
69.0775
68.2451
67.1993
65.9095
64.3342
62.4207
60.1306
57.4968
54.6027
51.5158
48.2996
45.0358
41.8231
38.7751
36.0138
33.6642
31.8457
30.6519
30.1642
30.3665
31.1139
31.9326
14.9179
8.72905
1.61458
-5.99519
-13.4759
-21.3565
-29.3036
-37.0762
-44.7732
-52.2681
-59.5304
-66.6078
-73.4728
-80.1389
-86.6126
-92.8747
-98.8977
-104.637
-110.027
-114.987
-119.42
-123.213
-126.27
-128.474
-129.792
-130.201
-129.599
-127.842
-124.794
-120.34
-114.39
-106.885
-97.808
-87.1898
-75.1296
-61.8109
-47.58
-32.9747
-19.2885
20.6878
26.1538
32.0858
38.2143
43.9225
49.3152
54.1797
58.1721
61.2448
63.5355
65.1365
66.1661
66.767
67.0394
67.0572
66.8704
66.5058
65.9737
65.2703
64.3776
63.2685
61.9047
60.2362
58.2244
55.8946
53.3187
50.5544
47.6551
44.6908
41.748
38.9273
36.3394
34.0984
32.3149
31.0761
30.4552
30.4385
30.8907
31.3993
13.6433
7.74316
0.965712
-6.27377
-13.3783
-20.8532
-28.3781
-35.724
-42.9847
-50.0411
-56.8642
-63.5002
-69.9239
-76.1497
-82.1854
-88.0141
-93.6125
-98.9413
-103.941
-108.542
-112.653
-116.174
-119.02
-121.084
-122.342
-122.779
-122.303
-120.781
-118.083
-114.094
-108.72
-101.896
-93.5937
-83.8317
-72.6937
-60.3474
-47.106
-33.474
-20.6226
19.1499
24.3697
30.0414
35.908
41.3781
46.5542
51.2321
55.0802
58.051
60.2765
61.8448
62.868
63.4836
63.7886
63.8545
63.7305
63.4439
63.0067
62.4166
61.659
60.7098
59.534
58.0848
56.3242
54.2713
51.9876
49.5223
46.9201
44.2402
41.5572
38.9599
36.5469
34.4214
32.6843
31.416
30.6815
30.4701
30.6584
30.8912
12.4638
6.8387
0.382412
-6.50477
-13.2521
-20.3422
-27.4675
-34.41
-41.2599
-47.9032
-54.3136
-60.5358
-66.5466
-72.3603
-77.9859
-83.4094
-88.6104
-93.5543
-98.1884
-102.449
-106.255
-109.515
-112.153
-114.077
-115.265
-115.711
-115.335
-114.013
-111.622
-108.05
-103.205
-97.014
-89.4416
-80.4956
-70.2441
-58.8375
-46.5561
-33.864
-21.8226
17.719
22.7038
28.1269
33.7428
38.985
43.9532
48.4519
52.161
55.0329
57.1947
58.7301
59.745
60.3723
60.7055
60.8134
60.7444
60.5264
60.1725
59.6821
59.0435
58.2354
57.2265
55.9731
54.4383
52.6364
50.6199
48.4303
46.1044
43.6923
41.2577
38.8776
36.639
34.6338
32.9529
31.6696
30.8412
30.4598
30.4152
30.4051
11.3736
6.01099
-0.139185
-6.69087
-13.0989
-19.8237
-26.5703
-33.1314
-39.5937
-45.8479
-51.8705
-57.7043
-63.3279
-68.7562
-73.9987
-79.0434
-83.8726
-88.4561
-92.7467
-96.687
-100.204
-103.216
-105.653
-107.436
-108.549
-108.99
-108.69
-107.538
-105.417
-102.22
-97.8558
-92.2517
-85.3639
-77.1911
-67.7874
-57.2837
-45.929
-34.1414
-22.8846
16.3889
21.1494
26.3346
31.7106
36.7344
41.5031
45.8293
49.4042
52.1807
54.2804
55.7828
56.788
57.4241
57.7811
57.9257
57.9051
57.7477
57.4668
57.064
56.5301
55.8464
54.9851
53.906
52.574
50.9986
49.2251
47.2881
45.2179
43.0562
40.8568
38.6858
36.6189
34.7371
33.1208
31.8363
30.9333
30.4065
30.1594
29.938
10.3675
5.25543
-0.602831
-6.83498
-12.9203
-19.2983
-25.686
-31.8865
-37.9824
-43.8701
-49.5277
-54.997
-60.2576
-65.3251
-70.2094
-74.9002
-79.3821
-83.6286
-87.5974
-91.2372
-94.4817
-97.257
-99.5014
-101.146
-102.18
-102.605
-102.365
-101.356
-99.4708
-96.6097
-92.6841
-87.6206
-81.3716
-73.928
-65.3298
-55.6895
-45.2238
-34.3052
-23.8061
15.1538
19.6999
24.6575
29.8037
34.6181
39.1951
43.3555
46.8012
49.4852
51.5241
52.9934
53.9878
54.6304
55.0079
55.1843
55.2062
55.1016
54.8849
54.5592
54.1171
53.543
52.8121
51.8877
50.7367
49.3652
47.8115
46.1049
44.2699
42.3407
40.3623
38.3909
36.4914
34.7341
33.1895
31.9162
30.957
30.3089
29.8885
29.486
9.44041
4.56758
-1.01218
-6.93966
-12.7181
-18.7666
-24.814
-30.6731
-36.4227
-41.965
-47.2794
-52.4062
-57.3268
-62.0565
-66.6058
-70.9657
-75.1234
-79.0551
-82.723
-86.0808
-89.0695
-91.6215
-93.6822
-95.1931
-96.1452
-96.5483
-96.3518
-95.4638
-93.7859
-91.2252
-87.6973
-83.1305
-77.4751
-70.7148
-62.8782
-54.0588
-44.4422
-34.3549
-24.5859
14.0077
18.3489
23.0884
28.0145
32.6281
37.0212
41.0219
44.343
46.9374
48.9172
50.3534
51.3359
51.9828
52.3775
52.5816
52.6406
52.5824
52.422
52.1637
51.8022
51.3245
50.7083
49.9209
48.9312
47.7424
46.387
44.8894
43.2693
41.5546
39.7824
37.9998
36.2619
34.6287
33.1611
31.9102
30.9124
30.1662
29.6006
29.0454
8.58744
3.94295
-1.37076
-7.00777
-12.4944
-18.2294
-23.9541
-29.4898
-34.9124
-40.1288
-45.1203
-49.9253
-54.5269
-58.9407
-63.1767
-67.2277
-71.0827
-74.7205
-78.1074
-81.2017
-83.9502
-86.2924
-88.179
-89.561
-90.4327
-90.808
-90.6438
-89.8583
-88.3618
-86.0692
-82.9013
-78.7896
-73.683
-67.5603
-60.4395
-52.3961
-43.5865
-34.2921
-25.2249
12.9453
17.0905
21.6213
26.3362
30.7572
34.9734
38.8205
42.0212
44.529
46.4511
47.8544
48.8241
49.4733
49.8824
50.1104
50.2018
50.1842
50.073
49.8737
49.5828
49.1894
48.6742
48.0078
47.1613
46.1356
44.9582
43.6493
42.2247
40.7065
39.1253
37.5201
35.9366
34.4257
33.0389
31.8202
30.8
29.9776
29.2934
28.6122
7.80385
3.37761
-1.68217
-7.04211
-12.2508
-17.688
-23.1061
-28.3357
-33.4491
-38.358
-43.0452
-47.548
-51.8507
-55.9685
-59.9119
-63.6745
-67.2472
-70.611
-73.7358
-76.5843
-79.1082
-81.2538
-82.9766
-84.2359
-85.0291
-85.373
-85.2322
-84.5336
-83.1964
-81.143
-78.3004
-74.6036
-70.0025
-64.4719
-58.0202
-50.7067
-42.6603
-34.1193
-25.7246
11.9613
15.9191
20.25
24.7623
28.9984
33.0447
36.7437
39.8282
42.2522
44.1178
45.4884
46.4445
47.0942
47.5151
47.7636
47.8832
47.9011
47.8327
47.6849
47.4557
47.136
46.7094
46.1496
45.4297
44.5492
43.531
42.3918
41.1438
39.8048
38.3994
36.9593
35.5224
34.1306
32.8272
31.649
30.621
29.7428
28.9649
28.1824
7.08518
2.8675
-1.94968
-7.04532
-11.9895
-17.1435
-22.2704
-27.2101
-32.0309
-36.6498
-41.0508
-45.2695
-49.2917
-53.1325
-56.8022
-60.2956
-63.6051
-66.7138
-69.5947
-72.214
-74.5289
-76.4906
-78.0602
-79.2033
-79.921
-80.2323
-80.1078
-79.4829
-78.2857
-76.4456
-73.8964
-70.5774
-66.4399
-61.456
-55.6268
-48.9963
-41.668
-33.8404
-26.0881
11.0511
14.8292
18.9686
23.2866
27.3451
31.2279
34.7843
37.7567
40.0994
41.9098
43.248
44.1896
44.8383
45.2687
45.5347
45.6784
45.727
45.6961
45.5932
45.4175
45.1622
44.813
44.3466
43.7388
42.987
42.1105
41.123
40.034
38.8575
37.6128
36.3256
35.0265
33.7498
32.5307
31.3999
30.3771
29.462
28.6131
27.7523
6.42709
2.40888
-2.17655
-7.02002
-11.7122
-16.5968
-21.4474
-26.1123
-30.6567
-35.0016
-39.133
-43.0847
-46.8439
-50.4253
-53.8395
-57.0819
-60.146
-63.0172
-65.6712
-68.0776
-70.198
-71.9886
-73.4154
-74.4498
-75.0957
-75.3739
-75.2606
-74.6986
-73.6244
-71.9748
-69.6898
-66.7135
-62.9997
-58.5188
-53.2656
-47.2709
-40.6151
-33.4604
-26.3203
10.2096
13.816
17.7716
21.9032
25.7911
29.5166
32.9355
35.7996
38.0634
39.82
41.1258
42.0522
42.6986
43.1362
43.4168
43.5814
43.6566
43.6581
43.594
43.4649
43.2655
42.9837
42.5992
42.0897
41.4518
40.701
39.8487
38.9022
37.8721
36.7736
35.6269
34.4565
33.2898
32.1551
31.077
30.0708
29.1355
28.2364
27.3181
5.82561
1.99802
-2.36581
-6.96875
-11.4207
-16.0492
-20.6375
-25.0419
-29.3246
-33.4111
-37.2884
-40.9894
-44.5019
-47.8407
-51.016
-54.0243
-56.8603
-59.5107
-61.9539
-64.1628
-66.1025
-67.7345
-69.0286
-69.9619
-70.5401
-70.7858
-70.6799
-70.1722
-69.2063
-67.7267
-65.6793
-63.0134
-59.6852
-55.6651
-50.9425
-45.5367
-39.5079
-32.9853
-26.4264
9.43257
12.8744
16.6538
20.6065
24.3305
27.9046
31.191
33.9502
36.1375
37.8414
39.1151
40.0256
40.6683
41.1111
41.4038
41.5862
41.6842
41.7136
41.683
41.5942
41.4433
41.22
40.9069
40.4837
39.946
39.3064
38.574
37.7545
36.8557
35.8894
34.8712
33.8202
32.7579
31.7064
30.685
29.705
28.7643
27.8337
26.8767
5.27683
1.63158
-2.52054
-6.89383
-11.1172
-15.5019
-19.8409
-23.9984
-28.0337
-31.8764
-35.5145
-38.9796
-42.2611
-45.3727
-48.3249
-51.115
-53.7386
-56.1839
-58.4317
-60.4574
-62.23
-63.7155
-64.887
-65.7267
-66.2419
-66.4563
-66.355
-65.8944
-65.0245
-63.6965
-61.8626
-59.4769
-56.4988
-52.8989
-48.6628
-43.8001
-38.3531
-32.422
-26.413
8.71574
11.9999
15.6104
19.3911
22.9575
26.3859
29.5444
32.2023
34.3152
35.9675
37.2093
38.1034
38.7409
39.1872
39.4897
39.687
39.8044
39.8577
39.8559
39.8018
39.6926
39.5202
39.2692
38.9213
38.4715
37.9297
37.3034
36.5966
35.8151
34.9677
34.0662
33.1252
32.1612
31.1911
30.2291
29.283
28.3498
27.4041
26.4252
4.77708
1.30626
-2.64355
-6.79764
-10.8032
-14.9558
-19.0582
-22.9818
-26.7831
-30.3954
-33.8083
-37.0519
-40.1165
-43.0157
-45.76
-48.3467
-50.7729
-53.0278
-55.0944
-56.9507
-58.5692
-59.9193
-60.9779
-61.7312
-62.1882
-62.3733
-62.2751
-61.8554
-61.0707
-59.878
-58.2358
-56.1026
-53.4414
-50.2234
-46.4315
-42.0673
-37.158
-31.778
-26.2874
8.0551
11.1881
14.6366
18.2523
21.6672
24.9553
27.9903
30.5501
32.5906
34.1924
35.4023
36.2794