/*--------------------------------*- C++ -*----------------------------------*\
| =========                 |                                                 |
| \\      /  F ield         | OpenFOAM: The Open Source CFD Toolbox           |
|  \\    /   O peration     | Version:  2306                                  |
|   \\  /    A nd           | Website:  www.openfoam.com                      |
|    \\/     M anipulation  |                                                 |
\*---------------------------------------------------------------------------*/
FoamFile
{
    version     2.0;
    format      ascii;
    arch        "LSB;label=32;scalar=64";
    class       volScalarField;
    location    "325";
    object      turbulenceProperties:nuEff;
}
// * * * * * * * * * * * * * * * * * * * * * * * * * * * * * * * * * * * * * //

dimensions      [0 2 -1 0 0 0 0];

internalField   nonuniform List<scalar> 
10720
(
3.58129e-05
3.95402e-05
4.45286e-05
5.09922e-05
5.93171e-05
7.00348e-05
8.38656e-05
0.000101171
0.00012299
0.000150366
0.000185255
0.000230771
0.000291345
0.000374935
0.000495128
0.000673945
0.000956027
0.00140545
0.00222788
0.00359983
0.00691461
0.012723
0.0339488
0.0760732
0.0937336
0.0946559
0.0957018
0.0992342
0.102747
0.104483
0.104462
0.103216
0.10085
0.0974192
0.0927996
0.0869194
0.0784861
0.0690297
0.0538317
3.25867e-05
2.98076e-05
2.7077e-05
2.45867e-05
2.22524e-05
2.01095e-05
1.82467e-05
1.69634e-05
1.80967e-05
2.07898e-05
2.54791e-05
3.32232e-05
4.55702e-05
6.44457e-05
9.13762e-05
0.00012793
0.000177159
0.00024625
0.000349345
0.000511752
0.000783156
0.0012518
0.00212727
0.00377937
0.0073369
0.0147307
0.0324821
0.0663242
0.0934742
0.105032
0.10844
0.109382
0.109478
0.108982
0.107981
0.106584
0.104439
0.102004
0.0924707
1.50853e-05
1.49802e-05
1.48853e-05
1.48067e-05
1.47165e-05
1.46337e-05
1.45723e-05
1.45186e-05
1.44956e-05
1.45159e-05
1.45434e-05
1.48189e-05
1.58804e-05
1.86565e-05
2.64218e-05
4.68309e-05
9.39354e-05
0.00017291
0.000325518
0.00059855
0.00132783
0.00283684
0.00709691
0.0204438
0.0394757
0.0633297
0.0926256
0.123781
0.148787
0.162714
0.168
0.168827
0.167246
0.163898
0.159385
0.15388
0.148586
0.139925
0.147245
1.51689e-05
1.52822e-05
1.53787e-05
1.55097e-05
1.5644e-05
1.57799e-05
1.5911e-05
1.60215e-05
1.5959e-05
1.58177e-05
1.56247e-05
1.53904e-05
1.51242e-05
1.48295e-05
1.44958e-05
1.41198e-05
1.36768e-05
1.31625e-05
1.25483e-05
1.18436e-05
1.10741e-05
1.04206e-05
1.00541e-05
1.00015e-05
1.00093e-05
0.000103679
0.000549726
0.00416558
0.0141232
0.0287266
0.0437341
0.0550697
0.0618328
0.0656148
0.0680128
0.0700033
0.0717351
0.0753071
0.0784681
1.62663e-05
1.62836e-05
1.63016e-05
1.63209e-05
1.63446e-05
1.63711e-05
1.64015e-05
1.64369e-05
1.64788e-05
1.65278e-05
1.6586e-05
1.66577e-05
1.67369e-05
1.68806e-05
1.68882e-05
1.64642e-05
1.50183e-05
1.3834e-05
1.00548e-05
0.000112203
4.46509e-05
0.000146334
0.000121008
0.000806362
0.00325213
0.00772801
0.0157763
0.0310905
0.057336
0.0937659
0.132825
0.164557
0.184985
0.196834
0.203528
0.206403
0.207652
0.201689
0.212193
1.6253e-05
1.6234e-05
1.62194e-05
1.61978e-05
1.61793e-05
1.61594e-05
1.61416e-05
1.61276e-05
1.61324e-05
1.61473e-05
1.61669e-05
1.61909e-05
1.62203e-05
1.62531e-05
1.62902e-05
1.63311e-05
1.63776e-05
1.64309e-05
1.64946e-05
1.6572e-05
1.66715e-05
1.67991e-05
1.69803e-05
1.71737e-05
1.74361e-05
1.71569e-05
1.72477e-05
1.24848e-05
9.36311e-05
0.000800141
0.00302688
0.00755093
0.0142612
0.0224441
0.0311658
0.0396097
0.0470101
0.0536799
0.0631724
1.60862e-05
1.60838e-05
1.60832e-05
1.60836e-05
1.60845e-05
1.60871e-05
1.6092e-05
1.60988e-05
1.61088e-05
1.61224e-05
1.61404e-05
1.61639e-05
1.61945e-05
1.62333e-05
1.62844e-05
1.63418e-05
1.62428e-05
1.58262e-05
1.39746e-05
1.12372e-05
1e-05
1.31449e-05
1.12277e-05
0.000161231
0.000686656
0.00164969
0.00342633
0.000383962
0.00373653
0.0135797
0.0356293
0.0728457
0.118937
0.161457
0.19334
0.215462
0.232044
0.239281
0.255802
1.60869e-05
1.60892e-05
1.60923e-05
1.60945e-05
1.60983e-05
1.61003e-05
1.61017e-05
1.61026e-05
1.61005e-05
1.60978e-05
1.60943e-05
1.60905e-05
1.60871e-05
1.60837e-05
1.60803e-05
1.60768e-05
1.60732e-05
1.60692e-05
1.60641e-05
1.6059e-05
1.60537e-05
1.60479e-05
1.60411e-05
1.60348e-05
1.60281e-05
1.60304e-05
1.60231e-05
1.60825e-05
1.59992e-05
1.59509e-05
1.52105e-05
1.41629e-05
0.000236498
0.00105718
0.00306633
0.00693087
0.0131215
0.021843
0.0392293
1.61113e-05
1.61118e-05
1.61121e-05
1.6113e-05
1.61145e-05
1.61165e-05
1.61192e-05
1.61227e-05
1.61275e-05
1.61336e-05
1.61417e-05
1.61523e-05
1.61662e-05
1.6184e-05
1.62082e-05
1.62364e-05
1.62803e-05
1.63235e-05
1.64967e-05
1.63001e-05
1.34853e-05
1.03829e-05
1.00088e-05
1.00002e-05
1e-05
1e-05
1e-05
5.94657e-05
0.000830486
0.00306559
0.000901391
0.00811144
0.0296309
0.0708457
0.124269
0.175188
0.217296
0.248163
0.278492
1.61113e-05
1.61099e-05
1.61106e-05
1.61096e-05
1.61105e-05
1.61092e-05
1.61071e-05
1.61052e-05
1.61042e-05
1.61039e-05
1.61039e-05
1.61038e-05
1.61042e-05
1.61047e-05
1.61057e-05
1.61069e-05
1.61084e-05
1.61103e-05
1.61125e-05
1.6115e-05
1.61177e-05
1.61207e-05
1.61242e-05
1.6128e-05
1.61329e-05
1.61372e-05
1.61504e-05
1.61301e-05
1.62727e-05
1.56953e-05
1.87071e-05
1.05818e-05
3.55537e-05
0.000255424
0.000725952
0.00165892
0.000746364
0.0016546
0.0137003
1.61051e-05
1.61049e-05
1.61052e-05
1.61055e-05
1.61055e-05
1.6106e-05
1.61065e-05
1.61073e-05
1.61085e-05
1.61102e-05
1.61125e-05
1.61158e-05
1.61201e-05
1.6126e-05
1.61341e-05
1.6145e-05
1.61605e-05
1.61758e-05
1.62107e-05
1.63111e-05
1.65195e-05
1.5604e-05
1.32107e-05
1.01201e-05
1.00083e-05
1.00028e-05
1.00004e-05
1e-05
1e-05
1e-05
0.000201558
0.00185927
0.000401358
0.00880943
0.038178
0.0933944
0.160533
0.22411
0.278471
1.61047e-05
1.6104e-05
1.61049e-05
1.61047e-05
1.61064e-05
1.61061e-05
1.61047e-05
1.61035e-05
1.61025e-05
1.61019e-05
1.61015e-05
1.6101e-05
1.61008e-05
1.61006e-05
1.61006e-05
1.61006e-05
1.61007e-05
1.61009e-05
1.61012e-05
1.61014e-05
1.61017e-05
1.61018e-05
1.61019e-05
1.61015e-05
1.61014e-05
1.61018e-05
1.61022e-05
1.6104e-05
1.61036e-05
1.61129e-05
1.60958e-05
1.61857e-05
1.54513e-05
1.3431e-05
1e-05
1.00031e-05
0.000173723
0.000440513
0.00240689
1.61054e-05
1.61056e-05
1.61057e-05
1.61058e-05
1.61059e-05
1.6106e-05
1.61062e-05
1.61065e-05
1.6107e-05
1.61077e-05
1.61087e-05
1.61102e-05
1.61123e-05
1.61151e-05
1.61191e-05
1.61247e-05
1.61322e-05
1.61404e-05
1.61491e-05
1.61582e-05
1.62611e-05
1.65174e-05
1.66091e-05
1.55643e-05
1.33563e-05
1.16849e-05
1.02528e-05
1e-05
1.00037e-05
1e-05
1e-05
1e-05
7.00611e-05
0.00207785
0.00169332
0.0215714
0.0784062
0.166317
0.25247
1.61049e-05
1.61038e-05
1.61042e-05
1.61039e-05
1.61056e-05
1.61055e-05
1.61043e-05
1.61031e-05
1.61023e-05
1.61017e-05
1.61014e-05
1.61012e-05
1.61011e-05
1.61011e-05
1.61011e-05
1.61011e-05
1.61013e-05
1.61015e-05
1.61018e-05
1.61022e-05
1.61028e-05
1.61033e-05
1.6104e-05
1.61048e-05
1.61058e-05
1.61071e-05
1.61087e-05
1.61108e-05
1.61134e-05
1.61167e-05
1.61202e-05
1.61243e-05
1.61762e-05
1.58726e-05
1.53247e-05
1.11688e-05
1.0011e-05
1e-05
0.000582743
1.61049e-05
1.61051e-05
1.61054e-05
1.61053e-05
1.61052e-05
1.6105e-05
1.61049e-05
1.61047e-05
1.61047e-05
1.61047e-05
1.61047e-05
1.6105e-05
1.61054e-05
1.61059e-05
1.61068e-05
1.61082e-05
1.61102e-05
1.61128e-05
1.6115e-05
1.6116e-05
1.61235e-05
1.61569e-05
1.62657e-05
1.65777e-05
1.67415e-05
1.655e-05
1.5545e-05
1.36903e-05
1.18538e-05
1.00255e-05
1.00071e-05
1e-05
1e-05
1e-05
0.000417742
0.00088167
0.0171628
0.0904898
0.20027
1.61043e-05
1.61032e-05
1.61032e-05
1.61028e-05
1.61044e-05
1.61045e-05
1.61036e-05
1.61026e-05
1.61018e-05
1.61013e-05
1.6101e-05
1.61009e-05
1.61008e-05
1.61009e-05
1.6101e-05
1.61011e-05
1.61011e-05
1.61012e-05
1.61012e-05
1.61013e-05
1.61015e-05
1.61016e-05
1.61018e-05
1.61019e-05
1.6102e-05
1.61022e-05
1.61024e-05
1.61027e-05
1.6103e-05
1.6103e-05
1.61035e-05
1.61012e-05
1.61145e-05
1.60868e-05
1.62914e-05
1.55852e-05
1.29992e-05
1.00187e-05
1e-05
1.61049e-05
1.6105e-05
1.61051e-05
1.61049e-05
1.61048e-05
1.61045e-05
1.61043e-05
1.61041e-05
1.6104e-05
1.6104e-05
1.6104e-05
1.61041e-05
1.61043e-05
1.61047e-05
1.61053e-05
1.61063e-05
1.61077e-05
1.61096e-05
1.61115e-05
1.61131e-05
1.61136e-05
1.61183e-05
1.61147e-05
1.61518e-05
1.63088e-05
1.65794e-05
1.69752e-05
1.70845e-05
1.69293e-05
1.49151e-05
1.27209e-05
1.00049e-05
1.00029e-05
1e-05
1e-05
0.000204231
0.00467147
0.0311253
0.133126
1.61043e-05
1.6103e-05
1.61027e-05
1.61021e-05
1.61036e-05
1.61039e-05
1.61032e-05
1.61022e-05
1.61015e-05
1.61011e-05
1.61008e-05
1.61007e-05
1.61007e-05
1.61007e-05
1.61008e-05
1.6101e-05
1.61011e-05
1.61012e-05
1.61013e-05
1.61013e-05
1.61014e-05
1.61015e-05
1.61017e-05
1.61019e-05
1.61021e-05
1.61024e-05
1.61029e-05
1.61036e-05
1.61045e-05
1.61055e-05
1.61069e-05
1.61083e-05
1.61107e-05
1.61094e-05
1.61451e-05
1.62149e-05
1.66444e-05
1.47252e-05
1.00034e-05
1.61048e-05
1.61048e-05
1.61048e-05
1.61045e-05
1.61042e-05
1.61039e-05
1.61036e-05
1.61034e-05
1.61032e-05
1.6103e-05
1.61029e-05
1.61027e-05
1.61027e-05
1.61026e-05
1.61026e-05
1.61026e-05
1.61026e-05
1.61027e-05
1.6103e-05
1.61036e-05
1.61043e-05
1.61075e-05
1.61093e-05
1.60974e-05
1.6094e-05
1.61371e-05
1.62796e-05
1.65277e-05
1.68904e-05
1.7292e-05
1.74952e-05
1.50739e-05
1.11332e-05
1.00106e-05
1e-05
1e-05
1e-05
0.00875622
0.0718016
1.61043e-05
1.6103e-05
1.61024e-05
1.61016e-05
1.6103e-05
1.61033e-05
1.61028e-05
1.61019e-05
1.61013e-05
1.61009e-05
1.61007e-05
1.61006e-05
1.61005e-05
1.61006e-05
1.61006e-05
1.61008e-05
1.61009e-05
1.61011e-05
1.61013e-05
1.61014e-05
1.61016e-05
1.61016e-05
1.61016e-05
1.61017e-05
1.61017e-05
1.61018e-05
1.6102e-05
1.61022e-05
1.61026e-05
1.6103e-05
1.61034e-05
1.61041e-05
1.61038e-05
1.61094e-05
1.6092e-05
1.61944e-05
1.5838e-05
1.88896e-05
1.07504e-05
1.61047e-05
1.61045e-05
1.61044e-05
1.6104e-05
1.61037e-05
1.61034e-05
1.61031e-05
1.61029e-05
1.61027e-05
1.61025e-05
1.61025e-05
1.61024e-05
1.61024e-05
1.61024e-05
1.61025e-05
1.61027e-05
1.61031e-05
1.61036e-05
1.61041e-05
1.61047e-05
1.61051e-05
1.61057e-05
1.61083e-05
1.61084e-05
1.60993e-05
1.60856e-05
1.60816e-05
1.61176e-05
1.62118e-05
1.64645e-05
1.68739e-05
1.76266e-05
1.71317e-05
1.29703e-05
1.00152e-05
1e-05
1e-05
0.000692223
0.032714
1.61043e-05
1.6103e-05
1.61022e-05
1.61012e-05
1.61025e-05
1.61029e-05
1.61024e-05
1.61016e-05
1.61011e-05
1.61008e-05
1.61006e-05
1.61004e-05
1.61003e-05
1.61003e-05
1.61004e-05
1.61005e-05
1.61007e-05
1.61009e-05
1.61011e-05
1.61013e-05
1.61014e-05
1.61016e-05
1.61017e-05
1.61018e-05
1.61018e-05
1.61019e-05
1.61021e-05
1.61023e-05
1.61026e-05
1.61031e-05
1.61036e-05
1.61044e-05
1.61044e-05
1.61089e-05
1.60937e-05
1.61653e-05
1.58599e-05
1.71773e-05
1.44545e-05
1.61045e-05
1.61042e-05
1.61039e-05
1.61036e-05
1.61032e-05
1.61029e-05
1.61026e-05
1.61024e-05
1.61022e-05
1.61021e-05
1.6102e-05
1.61019e-05
1.61018e-05
1.61018e-05
1.61018e-05
1.61018e-05
1.61019e-05
1.6102e-05
1.61023e-05
1.61027e-05
1.61033e-05
1.61039e-05
1.61051e-05
1.61074e-05
1.61083e-05
1.61047e-05
1.60949e-05
1.60829e-05
1.60728e-05
1.60997e-05
1.61732e-05
1.6511e-05
1.7208e-05
1.77472e-05
1.38504e-05
1.00096e-05
1e-05
0.00028894
0.0129474
1.61043e-05
1.61031e-05
1.61021e-05
1.6101e-05
1.61021e-05
1.61025e-05
1.61021e-05
1.61014e-05
1.61009e-05
1.61006e-05
1.61004e-05
1.61003e-05
1.61002e-05
1.61002e-05
1.61002e-05
1.61003e-05
1.61004e-05
1.61006e-05
1.61008e-05
1.6101e-05
1.61012e-05
1.61015e-05
1.61016e-05
1.61018e-05
1.6102e-05
1.6102e-05
1.61021e-05
1.61022e-05
1.61023e-05
1.61025e-05
1.61028e-05
1.61033e-05
1.61035e-05
1.61051e-05
1.61017e-05
1.61195e-05
1.60612e-05
1.62136e-05
1.62124e-05
1.61042e-05
1.61038e-05
1.61035e-05
1.61031e-05
1.61027e-05
1.61024e-05
1.61021e-05
1.6102e-05
1.61018e-05
1.61017e-05
1.61016e-05
1.61016e-05
1.61016e-05
1.61016e-05
1.61016e-05
1.61017e-05
1.61018e-05
1.6102e-05
1.61022e-05
1.61025e-05
1.61029e-05
1.61034e-05
1.6104e-05
1.61051e-05
1.61069e-05
1.61085e-05
1.61084e-05
1.61047e-05
1.60955e-05
1.60829e-05
1.60666e-05
1.6075e-05
1.62527e-05
1.67917e-05
1.84575e-05
1.22901e-05
1e-05
8.16949e-05
0.00430104
1.61042e-05
1.61031e-05
1.61021e-05
1.61008e-05
1.61018e-05
1.61022e-05
1.61018e-05
1.61011e-05
1.61007e-05
1.61004e-05
1.61003e-05
1.61001e-05
1.61e-05
1.60999e-05
1.60999e-05
1.61e-05
1.61001e-05
1.61003e-05
1.61005e-05
1.61008e-05
1.6101e-05
1.61013e-05
1.61015e-05
1.61017e-05
1.61019e-05
1.61021e-05
1.61021e-05
1.61022e-05
1.61022e-05
1.61024e-05
1.61026e-05
1.61029e-05
1.61034e-05
1.61037e-05
1.61048e-05
1.61029e-05
1.61174e-05
1.60549e-05
1.62683e-05
1.61039e-05
1.61034e-05
1.61031e-05
1.61027e-05
1.61023e-05
1.6102e-05
1.61018e-05
1.61016e-05
1.61015e-05
1.61015e-05
1.61014e-05
1.61014e-05
1.61014e-05
1.61014e-05
1.61014e-05
1.61015e-05
1.61015e-05
1.61016e-05
1.61018e-05
1.6102e-05
1.61023e-05
1.61028e-05
1.61033e-05
1.61039e-05
1.6105e-05
1.61065e-05
1.61084e-05
1.61098e-05
1.611e-05
1.61067e-05
1.60991e-05
1.60737e-05
1.60535e-05
1.60836e-05
1.66819e-05
2.01951e-05
1e-05
1.12576e-05
0.00109777
1.61041e-05
1.61032e-05
1.6102e-05
1.61007e-05
1.61015e-05
1.61019e-05
1.61015e-05
1.61009e-05
1.61005e-05
1.61003e-05
1.61001e-05
1.61e-05
1.60998e-05
1.60997e-05
1.60997e-05
1.60998e-05
1.60999e-05
1.61001e-05
1.61003e-05
1.61005e-05
1.61008e-05
1.6101e-05
1.61013e-05
1.61015e-05
1.61018e-05
1.6102e-05
1.61021e-05
1.61022e-05
1.61022e-05
1.61022e-05
1.61024e-05
1.61026e-05
1.61029e-05
1.61031e-05
1.61042e-05
1.61021e-05
1.61128e-05
1.60821e-05
1.61499e-05
1.61036e-05
1.61031e-05
1.61027e-05
1.61023e-05
1.6102e-05
1.61016e-05
1.61015e-05
1.61014e-05
1.61013e-05
1.61013e-05
1.61013e-05
1.61013e-05
1.61013e-05
1.61014e-05
1.61014e-05
1.61015e-05
1.61015e-05
1.61016e-05
1.61017e-05
1.61019e-05
1.61022e-05
1.61025e-05
1.61029e-05
1.61034e-05
1.61041e-05
1.61051e-05
1.61065e-05
1.61082e-05
1.61101e-05
1.61119e-05
1.61133e-05
1.61118e-05
1.60817e-05
1.61086e-05
1.56345e-05
1.92301e-05
1.26361e-05
1.00003e-05
7.03906e-05
1.61039e-05
1.61031e-05
1.6102e-05
1.61007e-05
1.61013e-05
1.61016e-05
1.61013e-05
1.61007e-05
1.61004e-05
1.61001e-05
1.60999e-05
1.60998e-05
1.60996e-05
1.60995e-05
1.60995e-05
1.60996e-05
1.60997e-05
1.60998e-05
1.61e-05
1.61002e-05
1.61005e-05
1.61008e-05
1.61011e-05
1.61013e-05
1.61016e-05
1.61018e-05
1.6102e-05
1.61021e-05
1.61022e-05
1.61022e-05
1.61023e-05
1.61024e-05
1.61026e-05
1.61028e-05
1.61033e-05
1.61032e-05
1.61056e-05
1.61023e-05
1.61082e-05
1.61033e-05
1.61027e-05
1.61023e-05
1.6102e-05
1.61016e-05
1.61014e-05
1.61012e-05
1.61012e-05
1.61012e-05
1.61012e-05
1.61013e-05
1.61013e-05
1.61014e-05
1.61014e-05
1.61014e-05
1.61015e-05
1.61015e-05
1.61016e-05
1.61017e-05
1.61019e-05
1.61021e-05
1.61023e-05
1.61026e-05
1.61031e-05
1.61036e-05
1.61043e-05
1.61054e-05
1.61066e-05
1.61082e-05
1.61102e-05
1.6112e-05
1.61193e-05
1.61034e-05
1.61675e-05
1.58173e-05
1.64556e-05
1.97187e-05
1e-05
1.05039e-05
1.61036e-05
1.6103e-05
1.6102e-05
1.61006e-05
1.61011e-05
1.61014e-05
1.61011e-05
1.61006e-05
1.61002e-05
1.60999e-05
1.60997e-05
1.60996e-05
1.60994e-05
1.60993e-05
1.60993e-05
1.60993e-05
1.60994e-05
1.60996e-05
1.60998e-05
1.61e-05
1.61003e-05
1.61005e-05
1.61008e-05
1.61011e-05
1.61014e-05
1.61017e-05
1.61019e-05
1.6102e-05
1.61022e-05
1.61022e-05
1.61022e-05
1.61023e-05
1.61024e-05
1.61026e-05
1.61028e-05
1.61032e-05
1.61034e-05
1.61058e-05
1.6103e-05
1.6103e-05
1.61024e-05
1.6102e-05
1.61017e-05
1.61014e-05
1.61012e-05
1.61011e-05
1.61011e-05
1.61011e-05
1.61012e-05
1.61013e-05
1.61013e-05
1.61014e-05
1.61015e-05
1.61015e-05
1.61016e-05
1.61016e-05
1.61017e-05
1.61018e-05
1.61019e-05
1.61021e-05
1.61023e-05
1.61025e-05
1.61029e-05
1.61033e-05
1.61039e-05
1.61047e-05
1.61058e-05
1.6107e-05
1.61085e-05
1.61097e-05
1.61144e-05
1.6113e-05
1.61258e-05
1.61917e-05
1.52677e-05
2.21252e-05
1.00004e-05
1e-05
1.61034e-05
1.61029e-05
1.61019e-05
1.61006e-05
1.6101e-05
1.61012e-05
1.61009e-05
1.61004e-05
1.61e-05
1.60997e-05
1.60995e-05
1.60994e-05
1.60993e-05
1.60992e-05
1.60991e-05
1.60992e-05
1.60992e-05
1.60994e-05
1.60995e-05
1.60998e-05
1.61e-05
1.61003e-05
1.61006e-05
1.61009e-05
1.61012e-05
1.61015e-05
1.61017e-05
1.61019e-05
1.61021e-05
1.61022e-05
1.61022e-05
1.61023e-05
1.61023e-05
1.61024e-05
1.61026e-05
1.61029e-05
1.6103e-05
1.6105e-05
1.61037e-05
1.61027e-05
1.61021e-05
1.61017e-05
1.61014e-05
1.61011e-05
1.6101e-05
1.6101e-05
1.6101e-05
1.61011e-05
1.61012e-05
1.61013e-05
1.61014e-05
1.61015e-05
1.61015e-05
1.61016e-05
1.61017e-05
1.61017e-05
1.61018e-05
1.61019e-05
1.6102e-05
1.61021e-05
1.61023e-05
1.61025e-05
1.61028e-05
1.61031e-05
1.61037e-05
1.61043e-05
1.61052e-05
1.61063e-05
1.61075e-05
1.61089e-05
1.61099e-05
1.61187e-05
1.6084e-05
1.63124e-05
1.53084e-05
1.94883e-05
1.15997e-05
1.00005e-05
1.61031e-05
1.61028e-05
1.61019e-05
1.61005e-05
1.61008e-05
1.61009e-05
1.61007e-05
1.61002e-05
1.60998e-05
1.60996e-05
1.60994e-05
1.60992e-05
1.60991e-05
1.6099e-05
1.60989e-05
1.6099e-05
1.6099e-05
1.60992e-05
1.60993e-05
1.60995e-05
1.60998e-05
1.61001e-05
1.61004e-05
1.61007e-05
1.6101e-05
1.61013e-05
1.61015e-05
1.61017e-05
1.61019e-05
1.61021e-05
1.61022e-05
1.61023e-05
1.61023e-05
1.61023e-05
1.61024e-05
1.61026e-05
1.61029e-05
1.61041e-05
1.61039e-05
1.61024e-05
1.61019e-05
1.61014e-05
1.61011e-05
1.6101e-05
1.61009e-05
1.61009e-05
1.6101e-05
1.61011e-05
1.61013e-05
1.61014e-05
1.61015e-05
1.61016e-05
1.61016e-05
1.61017e-05
1.61018e-05
1.61018e-05
1.61019e-05
1.6102e-05
1.6102e-05
1.61021e-05
1.61023e-05
1.61025e-05
1.61027e-05
1.6103e-05
1.61035e-05
1.61041e-05
1.61048e-05
1.61057e-05
1.61068e-05
1.61084e-05
1.61079e-05
1.61187e-05
1.60814e-05
1.62451e-05
1.57425e-05
1.69328e-05
1.68358e-05
1.00814e-05
1.61028e-05
1.61026e-05
1.61018e-05
1.61005e-05
1.61007e-05
1.61008e-05
1.61005e-05
1.61001e-05
1.60997e-05
1.60994e-05
1.60992e-05
1.60991e-05
1.60989e-05
1.60988e-05
1.60988e-05
1.60988e-05
1.60989e-05
1.6099e-05
1.60991e-05
1.60993e-05
1.60996e-05
1.60998e-05
1.61001e-05
1.61004e-05
1.61008e-05
1.6101e-05
1.61013e-05
1.61016e-05
1.61018e-05
1.6102e-05
1.61021e-05
1.61022e-05
1.61023e-05
1.61023e-05
1.61024e-05
1.61025e-05
1.61027e-05
1.61036e-05
1.61036e-05
1.61021e-05
1.61016e-05
1.61012e-05
1.6101e-05
1.61008e-05
1.61008e-05
1.61009e-05
1.6101e-05
1.61012e-05
1.61013e-05
1.61014e-05
1.61015e-05
1.61016e-05
1.61017e-05
1.61018e-05
1.61019e-05
1.61019e-05
1.6102e-05
1.61021e-05
1.61021e-05
1.61022e-05
1.61024e-05
1.61025e-05
1.61027e-05
1.6103e-05
1.61033e-05
1.61038e-05
1.61045e-05
1.61053e-05
1.61062e-05
1.61077e-05
1.61076e-05
1.61147e-05
1.60975e-05
1.61527e-05
1.60764e-05
1.58767e-05
1.8494e-05
1.16739e-05
1.61026e-05
1.61025e-05
1.61017e-05
1.61004e-05
1.61005e-05
1.61006e-05
1.61003e-05
1.60999e-05
1.60995e-05
1.60992e-05
1.60991e-05
1.60989e-05
1.60988e-05
1.60987e-05
1.60986e-05
1.60987e-05
1.60987e-05
1.60988e-05
1.6099e-05
1.60992e-05
1.60994e-05
1.60996e-05
1.60999e-05
1.61002e-05
1.61005e-05
1.61008e-05
1.61011e-05
1.61014e-05
1.61016e-05
1.61018e-05
1.6102e-05
1.61021e-05
1.61022e-05
1.61023e-05
1.61023e-05
1.61024e-05
1.61025e-05
1.61034e-05
1.61033e-05
1.61019e-05
1.61014e-05
1.61009e-05
1.61008e-05
1.61008e-05
1.61008e-05
1.61009e-05
1.6101e-05
1.61012e-05
1.61013e-05
1.61015e-05
1.61016e-05
1.61017e-05
1.61018e-05
1.61019e-05
1.6102e-05
1.6102e-05
1.61021e-05
1.61022e-05
1.61023e-05
1.61024e-05
1.61025e-05
1.61026e-05
1.61028e-05
1.6103e-05
1.61033e-05
1.61037e-05
1.61043e-05
1.6105e-05
1.61058e-05
1.6107e-05
1.61077e-05
1.61105e-05
1.61101e-05
1.61043e-05
1.61951e-05
1.57322e-05
1.75797e-05
1.45887e-05
1.61023e-05
1.61023e-05
1.61016e-05
1.61004e-05
1.61004e-05
1.61004e-05
1.61001e-05
1.60997e-05
1.60994e-05
1.60991e-05
1.60989e-05
1.60987e-05
1.60986e-05
1.60985e-05
1.60985e-05
1.60985e-05
1.60986e-05
1.60987e-05
1.60988e-05
1.6099e-05
1.60992e-05
1.60994e-05
1.60997e-05
1.61e-05
1.61003e-05
1.61006e-05
1.61009e-05
1.61011e-05
1.61014e-05
1.61016e-05
1.61018e-05
1.6102e-05
1.61021e-05
1.61022e-05
1.61022e-05
1.61023e-05
1.61024e-05
1.61031e-05
1.61031e-05
1.61016e-05
1.61012e-05
1.61008e-05
1.61007e-05
1.61007e-05
1.61008e-05
1.61009e-05
1.61011e-05
1.61012e-05
1.61014e-05
1.61015e-05
1.61017e-05
1.61018e-05
1.61019e-05
1.6102e-05
1.61021e-05
1.61022e-05
1.61022e-05
1.61023e-05
1.61024e-05
1.61025e-05
1.61026e-05
1.61027e-05
1.61029e-05
1.61031e-05
1.61033e-05
1.61037e-05
1.61042e-05
1.61048e-05
1.61055e-05
1.61064e-05
1.61076e-05
1.61082e-05
1.6114e-05
1.60946e-05
1.61858e-05
1.58915e-05
1.66179e-05
1.61464e-05
1.61021e-05
1.61021e-05
1.61014e-05
1.61003e-05
1.61002e-05
1.61002e-05
1.60999e-05
1.60995e-05
1.60992e-05
1.60989e-05
1.60987e-05
1.60986e-05
1.60985e-05
1.60984e-05
1.60984e-05
1.60984e-05
1.60985e-05
1.60985e-05
1.60987e-05
1.60988e-05
1.6099e-05
1.60992e-05
1.60995e-05
1.60998e-05
1.61e-05
1.61003e-05
1.61006e-05
1.61009e-05
1.61012e-05
1.61014e-05
1.61017e-05
1.61019e-05
1.6102e-05
1.61022e-05
1.61022e-05
1.61023e-05
1.61023e-05
1.61029e-05
1.61029e-05
1.61014e-05
1.6101e-05
1.61006e-05
1.61006e-05
1.61007e-05
1.61008e-05
1.61009e-05
1.61011e-05
1.61013e-05
1.61014e-05
1.61016e-05
1.61017e-05
1.61019e-05
1.6102e-05
1.61021e-05
1.61022e-05
1.61023e-05
1.61024e-05
1.61025e-05
1.61025e-05
1.61026e-05
1.61027e-05
1.61028e-05
1.6103e-05
1.61031e-05
1.61034e-05
1.61037e-05
1.61041e-05
1.61047e-05
1.61053e-05
1.61061e-05
1.61073e-05
1.61075e-05
1.61128e-05
1.61004e-05
1.61464e-05
1.60442e-05
1.61719e-05
1.64155e-05
1.61018e-05
1.61019e-05
1.61013e-05
1.61002e-05
1.61001e-05
1.61e-05
1.60997e-05
1.60994e-05
1.6099e-05
1.60988e-05
1.60986e-05
1.60984e-05
1.60983e-05
1.60983e-05
1.60983e-05
1.60983e-05
1.60983e-05
1.60984e-05
1.60985e-05
1.60986e-05
1.60988e-05
1.6099e-05
1.60993e-05
1.60995e-05
1.60998e-05
1.61001e-05
1.61004e-05
1.61007e-05
1.61009e-05
1.61012e-05
1.61015e-05
1.61017e-05
1.61019e-05
1.61021e-05
1.61022e-05
1.61022e-05
1.61023e-05
1.61028e-05
1.61028e-05
1.61012e-05
1.61008e-05
1.61005e-05
1.61006e-05
1.61006e-05
1.61008e-05
1.61009e-05
1.61011e-05
1.61013e-05
1.61015e-05
1.61016e-05
1.61018e-05
1.61019e-05
1.61021e-05
1.61022e-05
1.61023e-05
1.61024e-05
1.61025e-05
1.61026e-05
1.61027e-05
1.61028e-05
1.61029e-05
1.6103e-05
1.61031e-05
1.61033e-05
1.61035e-05
1.61038e-05
1.61041e-05
1.61046e-05
1.61052e-05
1.61059e-05
1.61069e-05
1.61074e-05
1.61105e-05
1.6107e-05
1.61197e-05
1.61139e-05
1.6062e-05
1.62856e-05
1.61016e-05
1.61017e-05
1.61011e-05
1.61001e-05
1.61e-05
1.60998e-05
1.60996e-05
1.60992e-05
1.60989e-05
1.60986e-05
1.60984e-05
1.60983e-05
1.60982e-05
1.60981e-05
1.60981e-05
1.60981e-05
1.60982e-05
1.60982e-05
1.60983e-05
1.60985e-05
1.60986e-05
1.60988e-05
1.6099e-05
1.60993e-05
1.60996e-05
1.60999e-05
1.61001e-05
1.61004e-05
1.61007e-05
1.6101e-05
1.61012e-05
1.61015e-05
1.61017e-05
1.61019e-05
1.61021e-05
1.61022e-05
1.61022e-05
1.61026e-05
1.61026e-05
1.6101e-05
1.61007e-05
1.61004e-05
1.61005e-05
1.61006e-05
1.61007e-05
1.61009e-05
1.61011e-05
1.61013e-05
1.61015e-05
1.61017e-05
1.61019e-05
1.6102e-05
1.61022e-05
1.61023e-05
1.61024e-05
1.61025e-05
1.61026e-05
1.61027e-05
1.61028e-05
1.61029e-05
1.6103e-05
1.61031e-05
1.61033e-05
1.61034e-05
1.61036e-05
1.61038e-05
1.61042e-05
1.61046e-05
1.61051e-05
1.61057e-05
1.61066e-05
1.61074e-05
1.61089e-05
1.611e-05
1.61097e-05
1.61274e-05
1.60741e-05
1.61652e-05
1.61014e-05
1.61015e-05
1.6101e-05
1.61e-05
1.60998e-05
1.60997e-05
1.60994e-05
1.6099e-05
1.60987e-05
1.60984e-05
1.60983e-05
1.60981e-05
1.6098e-05
1.6098e-05
1.6098e-05
1.6098e-05
1.6098e-05
1.60981e-05
1.60982e-05
1.60983e-05
1.60984e-05
1.60986e-05
1.60988e-05
1.60991e-05
1.60993e-05
1.60996e-05
1.60999e-05
1.61002e-05
1.61004e-05
1.61007e-05
1.6101e-05
1.61013e-05
1.61015e-05
1.61017e-05
1.61019e-05
1.61021e-05
1.61021e-05
1.61024e-05
1.61025e-05
1.61009e-05
1.61006e-05
1.61004e-05
1.61005e-05
1.61006e-05
1.61007e-05
1.6101e-05
1.61012e-05
1.61014e-05
1.61016e-05
1.61018e-05
1.61019e-05
1.61021e-05
1.61023e-05
1.61024e-05
1.61025e-05
1.61026e-05
1.61028e-05
1.61029e-05
1.6103e-05
1.61031e-05
1.61032e-05
1.61033e-05
1.61034e-05
1.61036e-05
1.61037e-05
1.61039e-05
1.61042e-05
1.61046e-05
1.61051e-05
1.61056e-05
1.61063e-05
1.61072e-05
1.61081e-05
1.61103e-05
1.61084e-05
1.61217e-05
1.61006e-05
1.61179e-05
1.61011e-05
1.61013e-05
1.61008e-05
1.60999e-05
1.60996e-05
1.60995e-05
1.60992e-05
1.60988e-05
1.60985e-05
1.60983e-05
1.60981e-05
1.6098e-05
1.60979e-05
1.60978e-05
1.60978e-05
1.60978e-05
1.60979e-05
1.60979e-05
1.6098e-05
1.60981e-05
1.60982e-05
1.60984e-05
1.60986e-05
1.60989e-05
1.60991e-05
1.60994e-05
1.60996e-05
1.60999e-05
1.61002e-05
1.61005e-05
1.61008e-05
1.6101e-05
1.61013e-05
1.61016e-05
1.61018e-05
1.6102e-05
1.6102e-05
1.61022e-05
1.61023e-05
1.61007e-05
1.61005e-05
1.61003e-05
1.61004e-05
1.61006e-05
1.61007e-05
1.6101e-05
1.61012e-05
1.61014e-05
1.61016e-05
1.61018e-05
1.6102e-05
1.61022e-05
1.61023e-05
1.61025e-05
1.61026e-05
1.61028e-05
1.61029e-05
1.6103e-05
1.61031e-05
1.61032e-05
1.61033e-05
1.61035e-05
1.61036e-05
1.61037e-05
1.61039e-05
1.61041e-05
1.61043e-05
1.61047e-05
1.61051e-05
1.61056e-05
1.61062e-05
1.61071e-05
1.61078e-05
1.61097e-05
1.61093e-05
1.61153e-05
1.61134e-05
1.6111e-05
1.61009e-05
1.61011e-05
1.61006e-05
1.60998e-05
1.60995e-05
1.60993e-05
1.6099e-05
1.60986e-05
1.60983e-05
1.60981e-05
1.60979e-05
1.60978e-05
1.60977e-05
1.60977e-05
1.60977e-05
1.60977e-05
1.60977e-05
1.60977e-05
1.60978e-05
1.60979e-05
1.6098e-05
1.60982e-05
1.60984e-05
1.60986e-05
1.60989e-05
1.60991e-05
1.60994e-05
1.60996e-05
1.60999e-05
1.61002e-05
1.61005e-05
1.61008e-05
1.61011e-05
1.61014e-05
1.61016e-05
1.61018e-05
1.61019e-05
1.61021e-05
1.61022e-05
1.61006e-05
1.61003e-05
1.61002e-05
1.61004e-05
1.61005e-05
1.61007e-05
1.6101e-05
1.61012e-05
1.61014e-05
1.61017e-05
1.61019e-05
1.61021e-05
1.61023e-05
1.61024e-05
1.61026e-05
1.61027e-05
1.61029e-05
1.6103e-05
1.61031e-05
1.61033e-05
1.61034e-05
1.61035e-05
1.61036e-05
1.61038e-05
1.61039e-05
1.6104e-05
1.61042e-05
1.61045e-05
1.61048e-05
1.61051e-05
1.61056e-05
1.61062e-05
1.61069e-05
1.61077e-05
1.61091e-05
1.61099e-05
1.61122e-05
1.61155e-05
1.61145e-05
1.61007e-05
1.61009e-05
1.61005e-05
1.60996e-05
1.60993e-05
1.60991e-05
1.60988e-05
1.60984e-05
1.60981e-05
1.60979e-05
1.60977e-05
1.60976e-05
1.60975e-05
1.60975e-05
1.60975e-05
1.60975e-05
1.60975e-05
1.60976e-05
1.60976e-05
1.60977e-05
1.60979e-05
1.6098e-05
1.60982e-05
1.60984e-05
1.60986e-05
1.60989e-05
1.60991e-05
1.60994e-05
1.60996e-05
1.60999e-05
1.61002e-05
1.61005e-05
1.61008e-05
1.61011e-05
1.61014e-05
1.61016e-05
1.61018e-05
1.61019e-05
1.61021e-05
1.61004e-05
1.61002e-05
1.61001e-05
1.61003e-05
1.61005e-05
1.61007e-05
1.6101e-05
1.61012e-05
1.61015e-05
1.61017e-05
1.61019e-05
1.61021e-05
1.61023e-05
1.61025e-05
1.61027e-05
1.61028e-05
1.6103e-05
1.61031e-05
1.61033e-05
1.61034e-05
1.61035e-05
1.61037e-05
1.61038e-05
1.61039e-05
1.61041e-05
1.61042e-05
1.61044e-05
1.61046e-05
1.61049e-05
1.61052e-05
1.61057e-05
1.61062e-05
1.61069e-05
1.61076e-05
1.61087e-05
1.61099e-05
1.61114e-05
1.61141e-05
1.61169e-05
1.61006e-05
1.61007e-05
1.61003e-05
1.60995e-05
1.60991e-05
1.60989e-05
1.60985e-05
1.60982e-05
1.60979e-05
1.60977e-05
1.60975e-05
1.60974e-05
1.60973e-05
1.60973e-05
1.60973e-05
1.60973e-05
1.60973e-05
1.60974e-05
1.60975e-05
1.60975e-05
1.60977e-05
1.60978e-05
1.6098e-05
1.60982e-05
1.60984e-05
1.60986e-05
1.60988e-05
1.60991e-05
1.60994e-05
1.60996e-05
1.60999e-05
1.61003e-05
1.61006e-05
1.61009e-05
1.61011e-05
1.61014e-05
1.61016e-05
1.61017e-05
1.61019e-05
1.61003e-05
1.61001e-05
1.61001e-05
1.61003e-05
1.61005e-05
1.61007e-05
1.6101e-05
1.61013e-05
1.61015e-05
1.61018e-05
1.6102e-05
1.61022e-05
1.61024e-05
1.61026e-05
1.61028e-05
1.61029e-05
1.61031e-05
1.61033e-05
1.61034e-05
1.61036e-05
1.61037e-05
1.61038e-05
1.6104e-05
1.61041e-05
1.61042e-05
1.61044e-05
1.61046e-05
1.61048e-05
1.6105e-05
1.61054e-05
1.61057e-05
1.61062e-05
1.61068e-05
1.61076e-05
1.61085e-05
1.61097e-05
1.61112e-05
1.61126e-05
1.6117e-05
1.61004e-05
1.61005e-05
1.61001e-05
1.60993e-05
1.60989e-05
1.60987e-05
1.60983e-05
1.6098e-05
1.60977e-05
1.60975e-05
1.60973e-05
1.60972e-05
1.60971e-05
1.60971e-05
1.60971e-05
1.60971e-05
1.60971e-05
1.60972e-05
1.60973e-05
1.60973e-05
1.60974e-05
1.60976e-05
1.60977e-05
1.60979e-05
1.60981e-05
1.60983e-05
1.60986e-05
1.60988e-05
1.60991e-05
1.60993e-05
1.60996e-05
1.61e-05
1.61003e-05
1.61006e-05
1.61009e-05
1.61012e-05
1.61014e-05
1.61015e-05
1.61018e-05
1.61001e-05
1.61e-05
1.61e-05
1.61002e-05
1.61005e-05
1.61007e-05
1.6101e-05
1.61013e-05
1.61015e-05
1.61018e-05
1.6102e-05
1.61023e-05
1.61025e-05
1.61027e-05
1.61029e-05
1.6103e-05
1.61032e-05
1.61034e-05
1.61035e-05
1.61037e-05
1.61038e-05
1.6104e-05
1.61041e-05
1.61043e-05
1.61044e-05
1.61046e-05
1.61048e-05
1.6105e-05
1.61052e-05
1.61055e-05
1.61059e-05
1.61063e-05
1.61069e-05
1.61075e-05
1.61084e-05
1.61094e-05
1.61111e-05
1.61119e-05
1.61162e-05
1.61002e-05
1.61003e-05
1.60999e-05
1.60992e-05
1.60988e-05
1.60984e-05
1.60981e-05
1.60977e-05
1.60974e-05
1.60972e-05
1.60971e-05
1.6097e-05
1.60969e-05
1.60969e-05
1.60969e-05
1.60969e-05
1.60969e-05
1.6097e-05
1.6097e-05
1.60971e-05
1.60972e-05
1.60973e-05
1.60975e-05
1.60977e-05
1.60979e-05
1.6098e-05
1.60983e-05
1.60985e-05
1.60988e-05
1.6099e-05
1.60993e-05
1.60996e-05
1.61e-05
1.61003e-05
1.61006e-05
1.61009e-05
1.61012e-05
1.61013e-05
1.61017e-05
1.61e-05
1.60999e-05
1.60999e-05
1.61002e-05
1.61004e-05
1.61007e-05
1.6101e-05
1.61013e-05
1.61016e-05
1.61018e-05
1.61021e-05
1.61023e-05
1.61026e-05
1.61028e-05
1.6103e-05
1.61031e-05
1.61033e-05
1.61035e-05
1.61037e-05
1.61038e-05
1.6104e-05
1.61042e-05
1.61043e-05
1.61045e-05
1.61046e-05
1.61048e-05
1.61049e-05
1.61051e-05
1.61054e-05
1.61056e-05
1.6106e-05
1.61064e-05
1.61069e-05
1.61075e-05
1.61084e-05
1.61092e-05
1.61109e-05
1.61115e-05
1.61154e-05
1.61e-05
1.61001e-05
1.60997e-05
1.6099e-05
1.60985e-05
1.60982e-05
1.60978e-05
1.60975e-05
1.60972e-05
1.6097e-05
1.60969e-05
1.60968e-05
1.60967e-05
1.60967e-05
1.60967e-05
1.60967e-05
1.60967e-05
1.60968e-05
1.60968e-05
1.60969e-05
1.6097e-05
1.60971e-05
1.60972e-05
1.60974e-05
1.60976e-05
1.60978e-05
1.6098e-05
1.60982e-05
1.60984e-05
1.60987e-05