/*--------------------------------*- C++ -*----------------------------------*\
| =========                 |                                                 |
| \\      /  F ield         | OpenFOAM: The Open Source CFD Toolbox           |
|  \\    /   O peration     | Version:  2306                                  |
|   \\  /    A nd           | Website:  www.openfoam.com                      |
|    \\/     M anipulation  |                                                 |
\*---------------------------------------------------------------------------*/
FoamFile
{
    version     2.0;
    format      ascii;
    arch        "LSB;label=32;scalar=64";
    class       volScalarField;
    location    "325";
    object      turbulenceProperties:epsilon;
}
// * * * * * * * * * * * * * * * * * * * * * * * * * * * * * * * * * * * * * //

dimensions      [0 2 -3 0 0 0 0];

internalField   nonuniform List<scalar> 
10720
(
0.25943
0.340176
0.453092
0.623727
0.840402
1.13511
1.53113
2.0354
2.68463
3.51519
4.5788
5.96556
7.8037
10.2928
13.7735
18.7612
26.2411
37.3595
56.0539
83.0228
139.668
211.716
435.172
738.945
735.896
666.883
636.987
637.033
642.981
639.363
622.751
593.269
548.342
489.292
416.454
334.293
232.363
147.14
25.8287
0.194175
0.147109
0.100388
0.0666834
0.0405563
0.0221798
0.0111829
0.00631384
0.00685106
0.0122527
0.0258858
0.0542196
0.107152
0.197663
0.340104
0.553625
0.870245
1.35272
2.12153
3.40167
5.6459
9.71261
17.6419
33.2253
67.6544
140.828
318.921
663.168
944.945
1066.84
1100.1
1101.67
1088.06
1062.31
1025.32
978.859
912.813
836.887
619.348
0.0073614
0.00728037
0.00711473
0.00670994
0.0061067
0.00544819
0.00471941
0.00396233
0.00327825
0.0026705
0.002149
0.00182015
0.0017731
0.00210577
0.0033091
0.00671514
0.0165719
0.0442592
0.139174
0.450212
1.75481
6.25245
23.4303
83.6375
166.402
235.357
278.641
285.318
251.156
193.243
135.9
91.9172
63.5092
45.7327
34.2756
26.5071
21.7535
17.6599
22.3866
0.00722777
0.00703214
0.00664162
0.00608322
0.00535975
0.00447628
0.0035415
0.00273967
0.00209112
0.00153427
0.00108419
0.000757394
0.000526745
0.000363738
0.000249053
0.000169137
0.000113324
7.46816e-05
4.72835e-05
2.75714e-05
1.31809e-05
4.21855e-06
4.01285e-07
6.83986e-09
5.55826e-08
0.000986274
0.0060629
0.0512683
0.170732
0.319736
0.466625
0.615311
0.773778
0.946678
1.13445
1.34788
1.59522
2.20724
4.09685
0.00330274
0.00325063
0.00310551
0.00289016
0.00267321
0.00244457
0.00222383
0.0020342
0.00187781
0.00176071
0.0016726
0.00162279
0.00160913
0.00163596
0.00164482
0.00154847
0.00119002
0.000880585
7.73477e-06
0.0162244
0.00437738
0.00626368
0.000111547
0.0327323
0.557221
2.60048
7.92637
20.0884
42.2651
70.5025
91.5888
94.2427
80.1077
60.6945
44.1852
31.979
24.0032
16.9571
20.4254
0.00335455
0.00334652
0.00332894
0.00321171
0.00300866
0.00268256
0.00226347
0.00182832
0.00146541
0.00113395
0.000824689
0.00057205
0.000385022
0.000253549
0.000165627
0.000108248
7.19607e-05
4.93613e-05
3.55903e-05
2.70834e-05
2.18942e-05
1.88174e-05
1.72181e-05
1.63642e-05
1.63045e-05
1.61179e-05
1.82295e-05
6.37726e-06
0.000167469
0.000992085
0.00208815
0.00364196
0.00958927
0.0265185
0.0598384
0.110638
0.176996
0.222067
0.549817
0.00235432
0.00236408
0.0023404
0.00230159
0.00222253
0.0021074
0.00196815
0.00180098
0.00161899
0.00142899
0.00123805
0.00105134
0.00087287
0.000707475
0.0005575
0.000419442
0.000301533
0.000212047
0.000121731
3.73416e-05
8.31953e-21
0.000208955
0.000101121
0.0112058
0.0370373
0.0537818
0.0481518
0.000791428
0.0166109
0.443166
3.21397
11.6606
25.0598
35.5143
37.2018
32.412
26.6107
19.7689
21.4087
0.00230406
0.00222897
0.0021136
0.00197873
0.00181591
0.0016133
0.0013919
0.00117426
0.000967315
0.000765406
0.000581521
0.00043203
0.000318401
0.000234356
0.000173362
0.0001293
9.78845e-05
7.55241e-05
5.96725e-05
4.81449e-05
3.96883e-05
3.3216e-05
2.7905e-05
2.28185e-05
1.81252e-05
1.46345e-05
1.22452e-05
1.06576e-05
8.88582e-06
6.8338e-06
3.86466e-06
1.53268e-06
2.28574e-05
1.51734e-05
6.84406e-05
0.00086869
0.00493765
0.0189369
0.139746
0.00132496
0.00132028
0.00129974
0.00126351
0.00120847
0.00113579
0.00105096
0.000956882
0.000858203
0.000761948
0.000671478
0.000590073
0.000520361
0.000463016
0.000417856
0.000381683
0.000345391
0.000303501
0.000261966
0.000207583
9.38976e-05
8.12332e-06
1.4189e-07
2.17638e-09
0
0
0
0.00227799
0.030605
0.0886149
0.0131639
0.0158997
0.170925
2.42979
9.10075
16.9231
21.0255
19.7713
21.8018
0.00131811
0.00129953
0.00126292
0.0012054
0.00112657
0.00101946
0.000898323
0.000776778
0.000656915
0.000536901
0.000424884
0.000327945
0.00024832
0.000184968
0.000136064
9.92706e-05
7.22654e-05
5.28606e-05
3.91628e-05
2.95125e-05
2.27159e-05
1.78314e-05
1.4166e-05
1.10626e-05
8.30145e-06
6.10312e-06
4.59786e-06
3.68269e-06
3.31161e-06
2.8324e-06
4.16971e-06
2.07688e-07
8.52688e-06
5.13121e-05
0.000108132
0.000183281
5.47742e-05
0.000241552
0.0150466
0.000890204
0.000897812
0.000897088
0.000890694
0.000873281
0.000845427
0.000808826
0.000762704
0.000708889
0.000649751
0.000586739
0.000522227
0.000458447
0.000397026
0.000339332
0.000284311
0.000229923
0.00018006
0.000138749
0.000107205
8.49259e-05
5.84188e-05
2.9357e-05
8.12863e-07
4.26986e-08
1.25211e-08
1.50979e-09
1.66579e-14
0
0
0.00327156
0.0339988
0.00563606
0.0422086
0.0467853
1.66373
7.53012
13.9993
19.8658
0.000874145
0.000852189
0.00082075
0.000780166
0.00072959
0.000665687
0.000595765
0.000525054
0.000453236
0.000379985
0.000310186
0.00024774
0.000194548
0.000150765
0.000115791
8.86033e-05
6.79211e-05
5.24581e-05
4.10293e-05
3.25785e-05
2.62699e-05
2.14137e-05
1.74702e-05
1.39444e-05
1.07034e-05
8.01553e-06
5.98778e-06
4.5177e-06
3.44425e-06
2.6625e-06
2.07265e-06
1.5996e-06
1.0048e-06
4.12113e-07
3.78124e-14
7.83649e-11
6.59855e-06
4.86254e-05
0.00112801
0.000582526
0.000587654
0.000588474
0.000585501
0.00057621
0.000560298
0.000538419
0.000510323
0.000476787
0.000439324
0.000399165
0.000357859
0.000317088
0.000278225
0.000242202
0.000210034
0.000182856
0.000159225
0.000136771
0.000115167
9.6524e-05
8.20852e-05
6.80794e-05
4.65151e-05
2.18351e-05
7.97386e-06
7.38838e-07
5.64615e-12
4.46198e-09
3.50628e-11
0
0
0.000421545
0.017983
0.0126103
0.0333093
0.417862
4.90964
14.1133
0.000573001
0.000560225
0.000541896
0.000517155
0.00048592
0.000447268
0.000405744
0.000362787
0.000318262
0.000272786
0.000228765
0.000188201
0.000152273
0.000121398
9.56092e-05
7.46383e-05
5.79599e-05
4.49703e-05
3.50216e-05
2.74535e-05
2.16972e-05
1.72535e-05
1.37034e-05
1.06768e-05
8.02426e-06
5.85973e-06
4.23743e-06
3.07537e-06
2.24973e-06
1.67416e-06
1.29909e-06
1.08061e-06
9.63154e-07
8.36211e-07
7.003e-07
1.36881e-07
7.56132e-10
0
0.00021892
0.000400171
0.000405653
0.000408925
0.000410249
0.000408005
0.000401908
0.000392284
0.000378571
0.000360994
0.000340207
0.000316507
0.000290715
0.000263687
0.00023618
0.000208947
0.000182726
0.000157359
0.000132481
0.000109451
8.96782e-05
7.39214e-05
6.23717e-05
5.44214e-05
4.86651e-05
4.03649e-05
2.94561e-05
1.76055e-05
8.09582e-06
2.84429e-06
1.90047e-08
3.79225e-09
2.20077e-12
0
0
0.00119928
0.00387737
0.0289148
0.466785
6.39502
0.000392005
0.000382275
0.000369424
0.000352707
0.000332303
0.000307864
0.000282232
0.000255269
0.000226993
0.000198192
0.000169905
0.000143259
0.00011897
9.74049e-05
7.87749e-05
6.31228e-05
5.02611e-05
3.99342e-05
3.17911e-05
2.54277e-05
2.04526e-05
1.65108e-05
1.32884e-05
1.05115e-05
8.06642e-06
6.03459e-06
4.46235e-06
3.28948e-06
2.41513e-06
1.76302e-06
1.28421e-06
9.34487e-07
6.79356e-07
4.93708e-07
3.81319e-07
2.92211e-07
1.45601e-07
1.1682e-09
0
0.000278457
0.000282863
0.000286095
0.000288123
0.000288049
0.000285583
0.000280812
0.000273276
0.000263026
0.000250316
0.000235307
0.000218445
0.000200272
0.000181317
0.0001622
0.00014339
0.000125422
0.000108989
9.40691e-05
8.05637e-05
6.86076e-05
5.85925e-05
5.04229e-05
4.35451e-05
3.69975e-05
3.01065e-05
2.36124e-05
1.74136e-05
1.25366e-05
6.60669e-06
2.70851e-06
1.92183e-09
9.08902e-10
0
0
0.000193082
0.0104029
0.0261182
1.52571
0.000272475
0.000265631
0.000256915
0.000245565
0.000232071
0.000216288
0.0001999
0.0001825
0.000164183
0.000145571
0.000127136
0.000109465
9.29735e-05
7.79139e-05
6.44885e-05
5.2818e-05
4.28989e-05
3.4649e-05
2.79144e-05
2.24846e-05
1.81254e-05
1.45999e-05
1.16869e-05
9.19703e-06
7.0413e-06
5.25462e-06
3.86639e-06
2.82974e-06
2.06277e-06
1.4988e-06
1.09266e-06
8.11027e-07
6.24409e-07
5.08759e-07
4.48045e-07
4.56347e-07
5.24094e-07
6.14244e-07
5.20478e-10
0.000197899
0.000201543
0.000204607
0.000206993
0.000208109
0.00020782
0.000206091
0.000202559
0.000197216
0.00019013
0.000181291
0.000170917
0.000159281
0.000146674
0.000133455
0.000119965
0.000106609
9.34706e-05
8.07494e-05
6.90305e-05
5.88408e-05
5.04292e-05
4.36087e-05
3.75837e-05
3.15658e-05
2.54484e-05
1.99608e-05
1.57093e-05
1.27582e-05
1.05611e-05
8.51951e-06
4.49027e-06
7.25157e-07
3.40413e-09
0
0
0
0.0112702
0.188498
0.000193283
0.000188262
0.000182096
0.000174151
0.000164985
0.000154585
0.000143774
0.000132263
0.000120204
0.000107964
9.57714e-05
8.39419e-05
7.26896e-05
6.21621e-05
5.25308e-05
4.39178e-05
3.63699e-05
2.99052e-05
2.4468e-05
1.99602e-05
1.62498e-05
1.31854e-05
1.06169e-05
8.41564e-06
6.51125e-06
4.92233e-06
3.66872e-06
2.71543e-06
1.99765e-06
1.45957e-06
1.06219e-06
7.74617e-07
5.69301e-07
4.3012e-07
3.40884e-07
3.24551e-07
3.15719e-07
8.86813e-07
1.82753e-07
0.000142655
0.000145553
0.000148175
0.000150408
0.000151848
0.000152444
0.000152091
0.000150564
0.000147785
0.000143769
0.000138448
0.00013192
0.000124317
0.000115796
0.000106599
9.69782e-05
8.71834e-05
7.75217e-05
6.82629e-05
5.96053e-05
5.17942e-05
4.4961e-05
3.90877e-05
3.37723e-05
2.8427e-05
2.29366e-05
1.78465e-05
1.38209e-05
1.09799e-05
9.1331e-06
7.85662e-06
7.10299e-06
5.42907e-06
1.81854e-06
4.55272e-09
0
0
0.000409006
0.0270288
0.000139146
0.000135458
0.000131069
0.000125427
0.000119078
0.000112092
0.000104783
9.70071e-05
8.89415e-05
8.07744e-05
7.25991e-05
6.45957e-05
5.68778e-05
4.95216e-05
4.26299e-05
3.63039e-05
3.06027e-05
2.55706e-05
2.1215e-05
1.75008e-05
1.4361e-05
1.17109e-05
9.45733e-06
7.51637e-06
5.84116e-06
4.43991e-06
3.32311e-06
2.46494e-06
1.81494e-06
1.32702e-06
9.67338e-07
7.0922e-07
5.29623e-07
4.12082e-07
3.40225e-07
3.31702e-07
3.29116e-07
6.60975e-07
1.05348e-06
0.000104228
0.000106536
0.000108727
0.000110697
0.000112188
0.000113163
0.000113541
0.00011314
0.000111898
0.000109796
0.000106754
0.000102803
9.79938e-05
9.24041e-05
8.61648e-05
7.94313e-05
7.23867e-05
6.52484e-05
5.81302e-05
5.12379e-05
4.48828e-05
3.92389e-05
3.42923e-05
2.97825e-05
2.52968e-05
2.06989e-05
1.63388e-05
1.2724e-05
1.00286e-05
8.10749e-06
6.69955e-06
5.84915e-06
5.43567e-06
4.99872e-06
2.08326e-06
2.63985e-09
0
0.000102687
0.00826805
0.000101544
9.87844e-05
9.56097e-05
9.15494e-05
8.70765e-05
8.22814e-05
7.72436e-05
7.19015e-05
6.6424e-05
6.08888e-05
5.53439e-05
4.98836e-05
4.45599e-05
3.94002e-05
3.44768e-05
2.98547e-05
2.55798e-05
2.1705e-05
1.82545e-05
1.5234e-05
1.262e-05
1.03681e-05
8.42183e-06
6.73108e-06
5.27015e-06
4.04134e-06
3.05081e-06
2.27955e-06
1.6889e-06
1.24134e-06
9.07778e-07
6.65191e-07
4.92724e-07
3.7627e-07
3.03147e-07
2.85438e-07
2.91911e-07
4.82635e-07
1.24018e-06
7.70058e-05
7.88335e-05
8.06265e-05
8.22964e-05
8.3669e-05
8.47254e-05
8.54093e-05
8.5573e-05
8.51652e-05
8.41592e-05
8.24777e-05
8.01227e-05
7.71017e-05
7.34397e-05
6.92142e-05
6.45203e-05
5.94712e-05
5.42366e-05
4.89464e-05
4.37398e-05
3.88056e-05
3.4282e-05
3.01747e-05
2.6341e-05
2.25356e-05
1.86676e-05
1.49753e-05
1.18347e-05
9.41048e-06
7.59498e-06
6.2037e-06
5.15434e-06
4.4747e-06
4.21146e-06
4.58336e-06
1.10322e-06
4.7361e-13
3.05481e-05
0.00275341
7.49538e-05
7.28716e-05
7.05411e-05
6.75916e-05
6.43965e-05
6.104e-05
5.75095e-05
5.37849e-05
5.00107e-05
4.6214e-05
4.24104e-05
3.86479e-05
3.49507e-05
3.13272e-05
2.78077e-05
2.44375e-05
2.1251e-05
1.82913e-05
1.55874e-05
1.31575e-05
1.10026e-05
9.10568e-06
7.43955e-06
5.97924e-06
4.71169e-06
3.63962e-06
2.7661e-06
2.07778e-06
1.5456e-06
1.13947e-06
8.35064e-07
6.12845e-07
4.55e-07
3.48687e-07
2.82334e-07
2.641e-07
2.71673e-07
4.0887e-07
1.04039e-06
5.74611e-05
5.89029e-05
6.03564e-05
6.17452e-05
6.29497e-05
6.39687e-05
6.47485e-05
6.51812e-05
6.52313e-05
6.48636e-05
6.40193e-05
6.26787e-05
6.0839e-05
5.85013e-05
5.56981e-05
5.2481e-05
4.89182e-05
4.51302e-05
4.12058e-05
3.72354e-05
3.33623e-05
2.97295e-05
2.6355e-05
2.31528e-05
1.99666e-05
1.67362e-05
1.36307e-05
1.09347e-05
8.79933e-06
7.16074e-06
5.88377e-06
4.87401e-06
4.09961e-06
3.56734e-06
3.45123e-06
4.90214e-06
1.01592e-12
5.25462e-07
0.000685516
5.58773e-05
5.42993e-05
5.25621e-05
5.03995e-05
4.80913e-05
4.56981e-05
4.31832e-05
4.05595e-05
3.79234e-05
3.52856e-05
3.26472e-05
3.00351e-05
2.74533e-05
2.48959e-05
2.23815e-05
1.99308e-05
1.75649e-05
1.53182e-05
1.32175e-05
1.12834e-05
9.52607e-06
7.9467e-06
6.53647e-06
5.288e-06
4.19744e-06
3.26795e-06
2.50267e-06
1.89216e-06
1.41501e-06
1.04772e-06
7.70171e-07
5.65878e-07
4.19313e-07
3.19285e-07
2.55722e-07
2.35512e-07
2.39739e-07
3.50359e-07
8.41151e-07
4.32481e-05
4.43824e-05
4.55555e-05
4.66918e-05
4.77177e-05
4.86401e-05
4.94043e-05
4.9939e-05
5.02171e-05
5.02043e-05
4.98552e-05
4.915e-05
4.80701e-05
4.66067e-05
4.4768e-05
4.25841e-05
4.00969e-05
3.73751e-05
3.44985e-05
3.15283e-05
2.85466e-05
2.56763e-05
2.29423e-05
2.0297e-05
1.76485e-05
1.4961e-05
1.23556e-05
1.00489e-05
8.176e-06
6.71046e-06
5.5547e-06
4.63949e-06
3.90582e-06
3.39606e-06
2.75358e-06
4.19988e-06
1.07467e-06
3.74893e-11
3.79231e-05
4.20173e-05
4.08136e-05
3.95072e-05
3.79036e-05
3.62188e-05
3.44854e-05
3.26721e-05
3.08015e-05
2.89395e-05
2.70861e-05
2.52386e-05
2.34077e-05
2.1592e-05
1.97814e-05
1.79802e-05
1.62006e-05
1.44521e-05
1.27563e-05
1.11348e-05
9.60748e-06
8.18989e-06
6.89015e-06
5.70954e-06
4.64974e-06
3.71642e-06
2.91546e-06
2.24915e-06
1.71111e-06
1.28604e-06
9.55926e-07
7.04519e-07
5.18142e-07
3.83624e-07
2.91252e-07
2.3196e-07
2.11196e-07
2.12709e-07
2.9984e-07
6.84111e-07
3.2796e-05
3.36916e-05
3.46333e-05
3.55563e-05
3.6418e-05
3.72206e-05
3.79233e-05
3.84731e-05
3.88503e-05
3.9027e-05
3.89653e-05
3.86455e-05
3.80514e-05
3.7166e-05
3.59932e-05
3.45399e-05
3.28289e-05
3.08979e-05
2.8812e-05
2.66036e-05
2.43236e-05
2.20705e-05
1.98763e-05
1.77177e-05
1.55382e-05
1.33189e-05
1.11477e-05
9.18816e-06
7.55697e-06
6.25333e-06
5.21056e-06
4.38101e-06
3.71075e-06
3.25026e-06
2.69758e-06
2.77129e-06
3.8967e-06
4.9228e-12
2.49773e-07
3.18389e-05
3.09107e-05
2.99213e-05
2.87215e-05
2.74802e-05
2.62076e-05
2.4884e-05
2.35359e-05
2.22055e-05
2.08895e-05
1.95826e-05
1.82905e-05
1.70063e-05
1.57175e-05
1.44255e-05
1.31313e-05
1.18412e-05
1.05671e-05
9.32419e-06
8.12858e-06
6.99483e-06
5.93474e-06
4.95529e-06
4.06518e-06
3.27348e-06
2.58788e-06
2.01123e-06
1.54e-06
1.16359e-06
8.685e-07
6.41846e-07
4.72449e-07
3.49183e-07
2.63709e-07
2.08064e-07
1.86593e-07
1.85867e-07
2.53527e-07
5.55921e-07
2.5035e-05
2.57445e-05
2.64971e-05
2.72456e-05
2.79597e-05
2.86429e-05
2.92641e-05
2.97842e-05
3.01856e-05
3.0449e-05
3.05446e-05
3.04552e-05
3.0168e-05
2.9664e-05
2.89381e-05
2.79903e-05
2.68302e-05
2.54782e-05
2.39801e-05
2.23574e-05
2.06378e-05
1.88905e-05
1.715e-05
1.54087e-05
1.36329e-05
1.1813e-05
1.00149e-05
8.3618e-06
6.95199e-06
5.80052e-06
4.86532e-06
4.11153e-06
3.50524e-06
3.05067e-06
2.71848e-06
2.12087e-06
4.57005e-06
4.12697e-11
6.11252e-18
2.42901e-05
2.3571e-05
2.28131e-05
2.19089e-05
2.09859e-05
2.00405e-05
1.90643e-05
1.80833e-05
1.7123e-05
1.61789e-05
1.52464e-05
1.43258e-05
1.34104e-05
1.24895e-05
1.15592e-05
1.06186e-05
9.66763e-06
8.71408e-06
7.76641e-06
6.83709e-06
5.93825e-06
5.0811e-06
4.27562e-06
3.53364e-06
2.867e-06
2.28368e-06
1.78785e-06
1.37782e-06
1.04656e-06
7.84339e-07
5.81149e-07
4.27996e-07
3.15678e-07
2.37109e-07
1.85308e-07
1.63601e-07
1.61095e-07
2.12863e-07
4.4903e-07
1.92238e-05
1.9786e-05
2.03866e-05
2.09932e-05
2.15788e-05
2.21537e-05
2.2689e-05
2.31574e-05
2.3546e-05
2.384e-05
2.40153e-05
2.40604e-05
2.39596e-05
2.36985e-05
2.327e-05
2.26693e-05
2.18997e-05
2.09683e-05
1.99056e-05
1.87261e-05
1.74441e-05
1.6102e-05
1.47364e-05
1.33477e-05
1.1915e-05
1.04349e-05
8.95643e-06
7.57243e-06
6.36432e-06
5.35565e-06
4.52364e-06
3.84198e-06
3.29501e-06
2.852e-06
2.61168e-06
2.00603e-06
3.36491e-06
4.70852e-07
7.49462e-11
1.86414e-05
1.80819e-05
1.74973e-05
1.68104e-05
1.61187e-05
1.54089e-05
1.46823e-05
1.39612e-05
1.3261e-05
1.25771e-05
1.19055e-05
1.1245e-05
1.05884e-05
9.92612e-06
9.25411e-06
8.56887e-06
7.86832e-06
7.15603e-06
6.43678e-06
5.71838e-06
5.01094e-06
4.32459e-06
3.66868e-06
3.05488e-06
2.49649e-06
2.00359e-06
1.58012e-06
1.22568e-06
9.36006e-07
7.04353e-07
5.23187e-07
3.85391e-07
2.83496e-07
2.11529e-07
1.63447e-07
1.41773e-07
1.37875e-07
1.7725e-07
3.6011e-07
1.48391e-05
1.5284e-05
1.57654e-05
1.62538e-05
1.67339e-05
1.72117e-05
1.7667e-05
1.80762e-05
1.84331e-05
1.87244e-05
1.89322e-05
1.90462e-05
1.90559e-05
1.89474e-05
1.87151e-05
1.83505e-05
1.7853e-05
1.7225e-05
1.64814e-05
1.56348e-05
1.46903e-05
1.3671e-05
1.26121e-05
1.15174e-05
1.03733e-05
9.17919e-06
7.97235e-06
6.82267e-06
5.79638e-06
4.92059e-06
4.18631e-06
3.57553e-06
3.08103e-06
2.67219e-06
2.42363e-06
2.03188e-06
2.28566e-06
2.01275e-06
2.00854e-08
1.43817e-05
1.39443e-05
1.34908e-05
1.29661e-05
1.24423e-05
1.19055e-05
1.13599e-05
1.08253e-05
1.03098e-05
9.81011e-06
9.32221e-06
8.84404e-06
8.36976e-06
7.89078e-06
7.40299e-06
6.90272e-06
6.38645e-06
5.85496e-06
5.3108e-06
4.75894e-06
4.20563e-06
3.65914e-06
3.12833e-06
2.62505e-06
2.16178e-06
1.74806e-06
1.3885e-06
1.08395e-06
8.32162e-07
6.28692e-07
4.68043e-07
3.447e-07
2.52735e-07
1.8714e-07
1.42755e-07
1.21452e-07
1.16526e-07
1.46246e-07
2.86637e-07
1.15076e-05
1.18606e-05
1.22459e-05
1.26397e-05
1.30312e-05
1.34265e-05
1.38081e-05
1.41601e-05
1.44768e-05
1.47482e-05
1.4961e-05
1.51076e-05
1.51792e-05
1.51653e-05
1.50584e-05
1.48519e-05
1.45421e-05
1.41283e-05
1.36157e-05
1.30163e-05
1.23301e-05
1.1566e-05
1.07538e-05
9.90008e-06
8.99558e-06
8.04072e-06
7.06334e-06
6.11594e-06
5.25161e-06
4.49791e-06
3.85489e-06
3.31267e-06
2.86588e-06
2.50033e-06
2.22993e-06
2.00302e-06
1.78794e-06
2.30457e-06
4.93529e-07
1.11475e-05
1.0804e-05
1.04506e-05
1.0048e-05
9.64694e-06
9.23833e-06
8.82583e-06
8.42554e-06
8.04277e-06
7.67432e-06
7.31681e-06
6.96803e-06
6.62274e-06
6.27447e-06
5.91891e-06
5.55232e-06
5.17137e-06
4.77527e-06
4.36436e-06
3.9416e-06
3.51153e-06
3.07981e-06
2.65352e-06
2.24347e-06
1.86142e-06
1.51624e-06
1.21285e-06
9.52849e-07
7.35377e-07
5.57729e-07
4.16073e-07
3.06242e-07
2.23645e-07
1.64129e-07
1.23363e-07
1.02703e-07
9.70764e-08
1.195e-07
2.26671e-07
8.96093e-06
9.2419e-06
9.5502e-06
9.86759e-06
1.01861e-05
1.05115e-05
1.08289e-05
1.11275e-05
1.14027e-05
1.16466e-05
1.18495e-05
1.20056e-05
1.21077e-05
1.21475e-05
1.21191e-05
1.20162e-05
1.18337e-05
1.15697e-05
1.1225e-05
1.08091e-05
1.03175e-05
9.75249e-06
9.13694e-06
8.47862e-06
7.77101e-06
7.01414e-06
6.22891e-06
5.45448e-06
4.73293e-06
4.09015e-06
3.53168e-06
3.05422e-06
2.6529e-06
2.32718e-06
2.05669e-06
1.89239e-06
1.60566e-06
1.87831e-06
1.24666e-06
8.67682e-06
8.40598e-06
8.12966e-06
7.81893e-06
7.50971e-06
7.19622e-06
6.88229e-06
6.58047e-06
6.29387e-06
6.01987e-06
5.75536e-06
5.49857e-06
5.24557e-06
4.99057e-06
4.73016e-06
4.4606e-06
4.17872e-06
3.88337e-06
3.57384e-06
3.25118e-06
2.91794e-06
2.57868e-06
2.23886e-06
1.90711e-06
1.59373e-06
1.30749e-06
1.05316e-06
8.32588e-07
6.459e-07
4.91695e-07
3.67465e-07
2.70169e-07
1.96352e-07
1.4261e-07
1.05384e-07
8.56281e-08
7.95966e-08
9.65323e-08
1.77959e-07
7.00364e-06
7.22742e-06
7.47481e-06
7.73012e-06
7.9893e-06
8.25587e-06
8.51862e-06
8.76953e-06
9.00494e-06
9.21903e-06
9.4041e-06
9.55614e-06
9.66978e-06
9.73815e-06
9.7571e-06
9.72016e-06
9.62322e-06
9.46346e-06
9.23857e-06
8.95507e-06
8.6082e-06
8.19659e-06
7.73612e-06
7.23417e-06
6.68675e-06
6.09277e-06
5.4673e-06
4.83966e-06
4.24272e-06
3.69948e-06
3.21869e-06
2.8014e-06
2.44437e-06
2.15242e-06
1.89997e-06
1.74237e-06
1.51415e-06
1.48873e-06
1.45678e-06
6.77927e-06
6.56465e-06
6.34776e-06
6.10674e-06
5.86695e-06
5.62508e-06
5.38462e-06
5.15521e-06
4.93881e-06
4.7331e-06
4.53613e-06
4.34582e-06
4.1588e-06
3.9707e-06
3.77867e-06
3.57973e-06
3.37073e-06
3.15012e-06
2.91689e-06
2.67114e-06
2.41425e-06
2.14883e-06
1.87911e-06
1.6122e-06
1.35705e-06
1.12124e-06
9.09224e-07
7.23187e-07
5.63838e-07
4.30728e-07
3.22368e-07
2.36642e-07
1.70994e-07
1.22708e-07
8.89182e-08
7.02763e-08
6.41243e-08
7.7007e-08
1.38737e-07
5.49202e-06
5.67064e-06
5.86896e-06
6.07462e-06
6.28524e-06
6.503e-06
6.71981e-06
6.92885e-06
7.12826e-06
7.31287e-06
7.47743e-06
7.6186e-06
7.73251e-06
7.81367e-06
7.85861e-06
7.86246e-06
7.82115e-06
7.73168e-06
7.59092e-06
7.4025e-06
7.1627e-06
6.86814e-06
6.5284e-06
6.15045e-06
5.73166e-06
5.27006e-06
4.77625e-06
4.27206e-06
3.7827e-06
3.32792e-06
2.91764e-06
2.55568e-06
2.24096e-06
1.97891e-06
1.75096e-06
1.58858e-06
1.41839e-06
1.25588e-06
1.31506e-06
5.31445e-06
5.14408e-06
4.97313e-06
4.78521e-06
4.59825e-06
4.41073e-06
4.22522e-06
4.04975e-06
3.88516e-06
3.7296e-06
3.5814e-06
3.43911e-06
3.29979e-06
3.16026e-06
3.01801e-06
2.87028e-06
2.71469e-06
2.54972e-06
2.37393e-06
2.18693e-06
1.98931e-06
1.78258e-06
1.56963e-06
1.35613e-06
1.14945e-06
9.56265e-07
7.80451e-07
6.24409e-07
4.89184e-07
3.74943e-07
2.80941e-07
2.05793e-07
1.47694e-07
1.04528e-07
7.4044e-08
5.66783e-08
5.06228e-08
6.05704e-08
1.07442e-07
4.31956e-06
4.46222e-06
4.62127e-06
4.78724e-06
4.95788e-06
5.13563e-06
5.31375e-06
5.48727e-06
5.65444e-06
5.81187e-06
5.95506e-06
6.08208e-06
6.18938e-06
6.27353e-06
6.33143e-06
6.359e-06
6.35303e-06
6.31028e-06
6.22797e-06
6.10733e-06
5.94556e-06
5.73914e-06
5.49215e-06
5.21137e-06
4.8945e-06
4.53936e-06
4.15311e-06
3.75175e-06
3.35422e-06
2.9771e-06
2.63017e-06
2.3188e-06
2.04361e-06
1.80949e-06
1.60532e-06
1.44407e-06
1.30297e-06
1.11214e-06
1.11343e-06
4.17845e-06
4.04333e-06
3.908e-06
3.7609e-06
3.61449e-06
3.46832e-06
3.32448e-06
3.18919e-06
3.06305e-06
2.94446e-06
2.83227e-06
2.7251e-06
2.62064e-06
2.51619e-06
2.40989e-06
2.29971e-06
2.18349e-06
2.05978e-06
1.92717e-06
1.78501e-06
1.63333e-06
1.47281e-06
1.30537e-06
1.13531e-06
9.6866e-07
8.11055e-07
6.66164e-07
5.35993e-07
4.21868e-07
3.24356e-07
2.43234e-07
1.77689e-07
1.2653e-07
8.81424e-08
6.08085e-08
4.48307e-08
3.90554e-08
4.68674e-08
8.26097e-08
3.40647e-06
3.52053e-06
3.64816e-06
3.78221e-06
3.92041e-06
4.0653e-06
4.21126e-06
4.35457e-06
4.4941e-06
4.62694e-06
4.74999e-06
4.86167e-06
4.95939e-06
5.04063e-06
5.1027e-06
5.14289e-06
5.15813e-06
5.14567e-06
5.10302e-06
5.02965e-06
4.92434e-06
4.78275e-06
4.60603e-06
4.40023e-06
4.16376e-06
3.8937e-06
3.59463e-06
3.27808e-06
2.95822e-06
2.64833e-06
2.35768e-06
2.09204e-06
1.85329e-06
1.6458e-06
1.46301e-06
1.30981e-06
1.17963e-06
1.0007e-06
9.43979e-07
3.29414e-06
3.18674e-06
3.07929e-06
2.96376e-06
2.84868e-06
2.73412e-06
2.62211e-06
2.51727e-06
2.4199e-06
2.32888e-06
2.24321e-06
2.16172e-06
2.08263e-06
2.00403e-06
1.92425e-06
1.84153e-06
1.75427e-06
1.6612e-06
1.56104e-06
1.45287e-06
1.3365e-06
1.21213e-06
1.08095e-06
9.46094e-07
8.1242e-07
6.84474e-07
5.65587e-07
4.57534e-07
3.61719e-07
2.78895e-07
2.09238e-07
1.52361e-07
1.07535e-07
7.35757e-08
4.92153e-08
3.46866e-08
2.93233e-08
3.56185e-08
6.31106e-08
2.69274e-06
2.78416e-06
2.88668e-06
2.9948e-06
3.10681e-06
3.22469e-06
3.3441e-06
3.46198e-06
3.57792e-06
3.68924e-06
3.7939e-06
3.8905e-06
3.97741e-06
4.05234e-06
4.11364e-06
4.1591e-06
4.18616e-06
4.19256e-06
4.17602e-06
4.13525e-06
4.06981e-06
3.97581e-06
3.85198e-06
3.70372e-06
3.52949e-06
3.32634e-06
3.09698e-06
2.84963e-06
2.59476e-06
2.34259e-06
2.10128e-06
1.87657e-06
1.67111e-06
1.4885e-06
1.32535e-06
1.18344e-06
1.05903e-06
8.98388e-07
8.09984e-07
2.60336e-06
2.51775e-06
2.43218e-06
2.34121e-06
2.25044e-06
2.16029e-06
2.07269e-06
1.99093e-06
1.91535e-06
1.84498e-06
1.77911e-06
1.71672e-06
1.65644e-06
1.59675e-06
1.5364e-06
1.47402e-06
1.40821e-06
1.33788e-06
1.26202e-06
1.17973e-06
1.09051e-06
9.9425e-07
8.91627e-07
7.84984e-07
6.78112e-07
5.74797e-07
4.77664e-07
3.88429e-07
3.08383e-07
2.38392e-07
1.78888e-07
1.29778e-07
9.0684e-08
6.08053e-08
3.9238e-08
2.61766e-08
2.13129e-08
2.65192e-08
4.7906e-08
2.13313e-06
2.20646e-06
2.28893e-06
2.37611e-06
2.46683e-06
2.56269e-06
2.66011e-06
2.75698e-06
2.85283e-06
2.94569e-06
3.03389e-06
3.11653e-06
3.19236e-06
3.25969e-06
3.31734e-06
3.36343e-06
3.39603e-06
3.41343e-06
3.41347e-06
3.39479e-06
3.35709e-06
3.29709e-06
3.21267e-06
3.10772e-06
2.98123e-06
2.83028e-06
2.65629e-06
2.46491e-06
2.26369e-06
2.06045e-06
1.86194e-06
1.67343e-06
1.49797e-06
1.33869e-06
1.19357e-06
1.06396e-06
9.45974e-07
8.01011e-07
6.9975e-07
2.06195e-06
1.99364e-06
1.92533e-06
1.85348e-06
1.78167e-06
1.71044e-06
1.64164e-06
1.57765e-06
1.51864e-06
1.46387e-06
1.41282e-06
1.36472e-06
1.31845e-06
1.27283e-06
1.22683e-06
1.17944e-06
1.12956e-06
1.0763e-06
1.01866e-06
9.55885e-07
8.87467e-07
8.13084e-07
7.32979e-07
6.48909e-07
5.63744e-07
4.80566e-07
4.01539e-07
3.28138e-07
2.61548e-07
2.02686e-07
1.52081e-07
1.09874e-07
7.59468e-08
4.97953e-08
3.08187e-08
1.9201e-08
1.48843e-08
1.92987e-08
3.61721e-08
1.69313e-06
1.75193e-06
1.81837e-06
1.88864e-06
1.96211e-06
2.04002e-06
2.11938e-06
2.19885e-06
2.27777e-06
2.35491e-06
2.42876e-06
2.49883e-06
2.564e-06
2.62332e-06
2.67566e-06
2.71966e-06
2.75399e-06
2.77699e-06
2.78716e-06
2.78294e-06
2.76424e-06
2.7281e-06
2.67242e-06
2.59967e-06
2.50935e-06
2.39878e-06
2.26826e-06
2.1217e-06
1.96435e-06
1.80204e-06
1.64026e-06
1.48354e-06
1.33468e-06
1.19691e-06
1.06871e-06
9.51387e-07
8.41225e-07
7.09764e-07
6.05726e-07
1.6363e-06
1.58177e-06
1.5272e-06
1.47026e-06
1.41332e-06
1.35694e-06
1.30264e-06
1.25232e-06
1.206e-06
1.16313e-06
1.12332e-06
1.08595e-06
1.05015e-06
1.01505e-06
9.79821e-07
9.43621e-07
9.0561e-07
8.65031e-07
8.2111e-07
7.73147e-07
7.20596e-07
6.63104e-07
6.00673e-07
5.34513e-07
4.66846e-07
4.00092e-07
3.36021e-07
2.7589e-07
2.20745e-07
1.71466e-07
1.28633e-07
9.2532e-08
6.32343e-08
4.0465e-08
2.38689e-08
1.3636e-08
9.87519e-09
1.36934e-08
2.72019e-08
1.34621e-06
1.39345e-06
1.4469e-06
1.50362e-06
1.56308e-06
1.6263e-06
1.69096e-06
1.75595e-06
1.8208e-06
1.88456e-06
1.94612e-06
2.00504e-06
2.06063e-06
2.11207e-06
2.15855e-06
2.19912e-06
2.23262e-06
2.25783e-06
2.27357e-06
2.27839e-06
2.27214e-06
2.25252e-06
2.21738e-06
2.16848e-06
2.10518e-06
2.02522e-06
1.92847e-06
1.81741e-06
1.69559e-06
1.56719e-06
1.43648e-06
1.30729e-06
1.18214e-06
1.06367e-06
9.51379e-07
8.45823e-07
7.44475e-07
6.256e-07
5.24097e-07
1.30076e-06
1.25725e-06
1.21361e-06
1.16832e-06
1.1231e-06
1.07839e-06
1.0354e-06
9.95667e-07
9.59145e-07
9.25431e-07
8.94212e-07
8.64993e-07
8.37124e-07
8.09898e-07
7.8273e-07
7.5492e-07
7.25793e-07
6.94759e-07
6.6117e-07
6.24429e-07
5.84044e-07
5.39581e-07
4.90939e-07
4.38944e-07
3.85262e-07
3.31853e-07
2.80082e-07
2.31005e-07
1.85521e-07
1.44432e-07
1.08342e-07
7.76033e-08
5.24215e-08
3.26981e-08
1.82709e-08
9.33892e-09
6.11593e-09
9.46328e-09
2.0425e-08
1.07202e-06
1.11003e-06
1.15303e-06
1.19881e-06
1.24694e-06
1.29819e-06
1.35084e-06
1.40389e-06
1.4571e-06
1.50964e-06
1.56075e-06
1.61003e-06
1.65703e-06
1.70106e-06
1.74166e-06
1.77797e-06
1.80929e-06
1.8346e-06
1.85289e-06
1.86295e-06
1.86463e-06
1.8561e-06
1.83546e-06
1.80371e-06
1.76038e-06
1.70354e-06
1.63274e-06
1.54943e-06
1.45601e-06
1.35538e-06
1.25072e-06
1.14505e-06
1.04062e-06
9.39611e-07
8.41885e-07
7.47809e-07
6.55663e-07
5.49028e-07
4.53109e-07
1.03568e-06
1.00091e-06
9.66012e-07
9.29894e-07
8.93937e-07
8.58395e-07
8.24284e-07
7.9279e-07
7.63888e-07
7.37231e-07
7.12607e-07
6.89666e-07
6.67852e-07
6.46602e-07
6.25502e-07
6.03996e-07
5.81564e-07
5.57745e-07
5.31977e-07
5.03749e-07
4.72639e-07
4.38223e-07
4.00325e-07
3.59509e-07
3.17029e-07
2.74367e-07
2.32659e-07
1.92727e-07
1.5535e-07
1.21229e-07
9.09486e-08
6.48973e-08
4.33551e-08
2.63615e-08
1.38914e-08
6.15614e-09
3.43059e-09
6.3813e-09
1.5376e-08
8.54897e-07
8.85454e-07
9.20091e-07
9.57015e-07
9.95957e-07
1.03752e-06
1.0803e-06
1.12357e-06
1.16716e-06
1.21035e-06
1.25259e-06
1.29361e-06
1.33305e-06
1.37043e-06
1.4054e-06
1.4374e-06
1.46579e-06
1.4898e-06
1.50865e-06
1.52141e-06
1.52783e-06
1.52652e-06
1.51587e-06
1.49631e-06
1.46746e-06
1.42779e-06
1.3767e-06
1.31489e-06
1.24393e-06
1.16577e-06
1.08267e-06
9.96978e-07
9.10463e-07
8.24974e-07
7.40564e-07
6.57551e-07
5.74606e-07
4.79674e-07
3.91317e-07
8.25801e-07
7.97985e-07
7.70063e-07
7.41243e-07
7.12587e-07
6.84292e-07
6.57173e-07
6.3214e-07
6.09185e-07
5.88029e-07
5.68547e-07
5.50393e-07
5.33202e-07
5.16568e-07
5.00107e-07
4.83389e-07
4.66022e-07
4.47635e-07
4.27786e-07
4.06042e-07
3.82032e-07
3.55385e-07
3.2585e-07
2.93805e-07
2.60226e-07
2.26228e-07
1.9271e-07
1.60321e-07
1.29709e-07
1.01488e-07
7.61862e-08
5.42105e-08
3.58697e-08
2.13022e-08
1.05799e-08
3.92575e-09
1.64065e-09
4.24008e-09
1.16721e-08
6.826e-07
7.07191e-07
7.35068e-07
7.64862e-07
7.96353e-07
8.30036e-07
8.64779e-07
9.00025e-07
9.35652e-07
9.71062e-07
1.00588e-06
1.03988e-06
1.0728e-06
1.10432e-06
1.13415e-06
1.16188e-06
1.18704e-06
1.20904e-06
1.22732e-06
1.2411e-06
1.25006e-06
1.25321e-06
1.24917e-06
1.23806e-06
1.21958e-06
1.19251e-06
1.15616e-06
1.11086e-06
1.05748e-06
9.9729e-07
9.31848e-07
8.62867e-07
7.91769e-07
7.1992e-07
6.47584e-07
5.74904e-07
5.01144e-07
4.17424e-07
3.37514e-07
6.59292e-07
6.37042e-07
6.14677e-07
5.9166e-07
5.68803e-07
5.4625e-07
5.24647e-07
5.04715e-07
4.86434e-07
4.69587e-07
4.54087e-07
4.39695e-07
4.26095e-07
4.12975e-07
4.00055e-07
3.87005e-07
3.7351e-07
3.59266e-07
3.43916e-07
3.27131e-07
3.08571e-07
2.87893e-07
2.64865e-07
2.39725e-07
2.13191e-07
1.86147e-07
1.59263e-07
1.33066e-07
1.08079e-07
8.48268e-08
6.37768e-08
4.5317e-08
2.97762e-08
1.73512e-08
8.17787e-09
2.48632e-09
5.79093e-10
2.84972e-09
9.00807e-09
5.45639e-07
5.65427e-07
5.87859e-07
6.11905e-07
6.37364e-07
6.6464e-07
6.92843e-07
7.21529e-07
7.50593e-07
7.79594e-07
8.08211e-07
8.36299e-07
8.63651e-07
8.9004e-07
9.1526e-07
9.39031e-07
9.60979e-07
9.80692e-07
9.9769e-07
1.01134e-06
1.02136e-06
1.02705e-06
1.02727e-06
1.02186e-06
1.01064e-06
9.92637e-07
9.67214e-07
9.34393e-07
8.94626e-07
8.48669e-07