/*--------------------------------*- C++ -*----------------------------------*\
| =========                 |                                                 |
| \\      /  F ield         | OpenFOAM: The Open Source CFD Toolbox           |
|  \\    /   O peration     | Version:  2306                                  |
|   \\  /    A nd           | Website:  www.openfoam.com                      |
|    \\/     M anipulation  |                                                 |
\*---------------------------------------------------------------------------*/
FoamFile
{
    version     2.0;
    format      ascii;
    arch        "LSB;label=32;scalar=64";
    class       volScalarField;
    location    "175";
    object      div(phi);
}
// * * * * * * * * * * * * * * * * * * * * * * * * * * * * * * * * * * * * * //

dimensions      [0 0 -1 0 0 0 0];

internalField   nonuniform List<scalar> 
1340
(
-1.52685e-07
-7.15241e-07
-6.91283e-08
-1.50872e-07
-6.45648e-09
-1.09452e-07
-3.96401e-07
1.17319e-07
1.69868e-07
1.72362e-07
-2.11032e-07
-3.80652e-07
-2.90393e-07
-1.30612e-07
-4.03542e-07
8.16255e-08
2.45508e-07
3.60354e-08
-1.17487e-07
-9.80474e-08
-1.2992e-07
-2.68962e-07
-1.80088e-07
1.3727e-07
2.82381e-07
-2.1667e-07
-5.85284e-08
-1.22746e-07
8.38268e-08
2.0826e-08
-2.93952e-09
1.01041e-07
8.69215e-08
-2.55859e-07
-3.67462e-07
7.44367e-07
1.54799e-07
-8.59211e-08
3.14345e-07
-1.67559e-07
-5.67442e-08
-2.74731e-08
1.25493e-07
5.6539e-08
5.96392e-08
-1.15951e-07
-5.22657e-08
-1.4675e-07
3.96298e-08
1.77145e-07
4.3763e-08
-1.67024e-07
-1.48988e-07
-1.37104e-07
-3.86416e-07
3.72567e-07
-6.99318e-07
-2.3108e-07
-3.25318e-07
-2.15769e-07
1.31523e-07
2.65717e-07
7.15666e-08
9.56978e-08
6.75711e-08
6.179e-08
-1.4414e-07
-1.60148e-08
1.74216e-07
1.88778e-07
-7.51084e-08
-9.29261e-08
-1.61262e-07
3.01144e-08
3.16709e-08
6.0618e-10
4.28001e-08
3.29052e-08
-2.73607e-07
-3.28671e-07
2.4492e-06
-1.00957e-06
7.57124e-07
-9.06072e-07
7.13144e-07
-8.28534e-07
6.02843e-07
-7.38014e-07
6.37141e-07
-6.62235e-07
6.29762e-07
-7.28654e-07
5.6216e-07
-6.44001e-07
4.02832e-07
-6.44755e-07
3.08123e-07
-2.7792e-07
2.89608e-07
4.64587e-08
6.23376e-08
1.28381e-07
2.42785e-07
2.55434e-09
-2.58872e-07
1.42768e-07
1.15821e-07
8.98854e-08
5.34709e-09
-1.41528e-07
-6.98203e-08
-1.15119e-07
1.12291e-08
1.22801e-07
2.86688e-08
-1.8926e-07
-1.77205e-07
-1.28459e-07
-0.000171958
-8.50626e-05
-5.41697e-05
-5.91531e-05
-2.80409e-05
-4.16605e-05
-1.09698e-05
-3.02129e-05
-1.84832e-06
-2.28793e-05
3.28375e-06
-1.78988e-05
5.70145e-06
-1.43758e-05
6.06895e-06
-1.17542e-05
5.88633e-06
-9.63864e-06
4.48559e-06
-7.93073e-06
3.39935e-06
-6.44256e-06
1.7622e-06
-5.21927e-06
6.93621e-07
-4.17087e-06
-3.52762e-07
-3.33049e-06
-9.84346e-07
-2.64774e-06
-1.24918e-06
-2.17285e-06
-1.11184e-06
-1.84721e-06
-6.29418e-07
-1.64778e-06
-2.46246e-07
-1.57741e-06
1.63073e-07
-1.53935e-06
2.12638e-07
-1.40567e-06
2.34749e-07
-1.17269e-06
1.76103e-07
-9.76076e-07
2.44564e-07
-7.85246e-07
2.63108e-07
-6.04739e-07
2.455e-07
-4.53209e-07
2.14656e-07
-3.19882e-07
1.19141e-07
-2.46825e-07
7.14796e-08
-1.85042e-07
-2.32546e-08
-1.24183e-07
5.49617e-08
5.47864e-08
4.27888e-08
6.50378e-08
2.471e-07
2.47359e-07
-3.07309e-07
8.68373e-08
-2.97454e-07
2.79541e-07
8.20106e-08
-5.51644e-08
-1.18572e-07
-1.58994e-07
-6.47363e-09
3.33545e-08
-5.78255e-09
-6.91672e-09
-8.84071e-09
-2.64458e-07
-2.88346e-07
0.00012428
3.67728e-05
3.44321e-05
1.7155e-05
1.73093e-05
6.61867e-06
9.02502e-06
1.48612e-06
4.93675e-06
-1.02956e-06
3.01679e-06
-2.28943e-06
1.85293e-06
-2.95667e-06
1.21281e-06
-3.28478e-06
7.62043e-07
-3.40991e-06
4.9448e-07
-3.35692e-06
3.59511e-07
-3.16381e-06
2.88234e-07
-2.85187e-06
3.49992e-07
-2.46296e-06
3.25099e-07
-2.06354e-06
3.62636e-07
-1.65418e-06
2.4026e-07
-1.2105e-06
2.63436e-07
-8.04763e-07
3.52326e-07
-6.02682e-07
4.49219e-07
-5.98351e-07
4.73341e-07
-6.86714e-07
4.53344e-07
-8.02711e-07
3.84493e-07
-7.99028e-07
3.47287e-07
-7.54221e-07
3.06499e-07
-6.19184e-07
2.71095e-07
-5.1135e-07
2.10117e-07
-3.6772e-07
1.36753e-07
-2.72758e-07
6.16896e-08
-1.70777e-07
-3.78128e-09
-1.0968e-07
-4.26094e-08
-5.42295e-08
-3.04286e-08
3.73495e-08
-8.47787e-09
9.03454e-08
2.93109e-07
-1.85255e-07
1.67625e-07
-6.10237e-07
3.29138e-07
3.06836e-08
1.106e-07
-4.4483e-08
-1.32499e-07
-8.3573e-08
-7.91553e-08
-1.48597e-08
8.63358e-08
1.18613e-08
-2.13527e-07
-1.87806e-07
-1.2034e-07
-7.72525e-05
-4.35053e-05
-4.27122e-05
-4.17651e-05
-3.31829e-05
-3.32541e-05
-2.24077e-05
-2.48296e-05
-1.25344e-05
-1.8093e-05
-6.2629e-06
-1.34433e-05
-2.17815e-06
-1.02173e-05
1.65217e-07
-7.95465e-06
1.50931e-06
-6.27346e-06
2.30447e-06
-4.93233e-06
2.59755e-06
-3.83106e-06
2.73753e-06
-2.88079e-06
2.54666e-06
-2.08815e-06
2.31284e-06
-1.41374e-06
1.93778e-06
-8.93297e-07
1.57492e-06
-5.65651e-07
1.26397e-06
-4.28353e-07
1.16628e-06
-3.69688e-07
1.06727e-06
-4.0099e-07
1.04365e-06
-4.52498e-07
9.21834e-07
-5.0972e-07
7.85164e-07
-5.46168e-07
6.38237e-07
-5.57718e-07
5.09621e-07
-5.30105e-07
3.88673e-07
-4.68811e-07
2.69761e-07
-3.88477e-07
1.62538e-07
-2.94888e-07
6.83618e-08
-2.03996e-07
4.1124e-09
-1.20993e-07
-3.47339e-08
-5.26292e-08
-4.75132e-08
4.64599e-09
-4.23189e-08
1.25792e-07
-5.46774e-08
1.35098e-07
-4.43282e-07
5.96386e-08
-5.99839e-08
2.16168e-07
1.02222e-07
-5.70193e-08
-2.12788e-07
-8.33306e-08
-4.28403e-08
4.92562e-08
-9.56534e-09
-5.04808e-08
-4.6888e-08
-2.54632e-07
-2.36833e-07
-0.000126673
-9.82206e-05
-6.58371e-05
-6.63994e-05
-2.99066e-05
-4.32224e-05
-9.29085e-06
-2.83003e-05
1.14479e-06
-1.85363e-05
6.37742e-06
-1.19014e-05
7.57314e-06
-7.33566e-06
7.82675e-06
-4.07904e-06
6.56941e-06
-1.88762e-06
5.53958e-06
-4.35426e-07
4.1273e-06
4.00848e-07
3.07588e-06
7.89325e-07
2.13516e-06
8.7464e-07
1.42163e-06
7.41671e-07
9.89403e-07
5.12177e-07
6.32457e-07
2.45156e-07
4.9194e-07
3.82538e-08
5.33191e-07
-1.38867e-07
6.49433e-07
-2.80571e-07
7.97126e-07
-3.99475e-07
8.50888e-07
-4.91121e-07
8.06006e-07
-5.7215e-07
6.92247e-07
-5.98653e-07
5.582e-07
-5.76742e-07
4.31804e-07
-5.18557e-07
3.0312e-07
-4.3084e-07
1.86006e-07
-3.34813e-07
8.75469e-08
-2.39944e-07
2.08937e-08
-1.5088e-07
-1.11617e-08
-7.83673e-08
-2.20164e-08
-3.81687e-08
-1.78409e-08
-2.806e-08
4.56318e-08
-2.02749e-07
-7.50356e-08
-8.68804e-08
1.91278e-07
1.85905e-07
8.54215e-08
-3.37122e-07
-2.21869e-08
-1.49624e-07
3.84583e-08
-1.07078e-07
1.1187e-07
1.47929e-08
-2.09378e-07
-2.03805e-07
-1.21846e-07
0.000256941
0.000147456
0.000127691
0.000119392
9.26454e-05
8.97145e-05
5.7813e-05
6.50718e-05
3.45704e-05
4.7727e-05
1.87726e-05
3.56591e-05
9.50422e-06
2.74227e-05
4.12549e-06
2.14569e-05
9.23627e-07
1.69322e-05
-5.9749e-07
1.33232e-05
-1.67917e-06
1.03167e-05
-1.85616e-06
7.83221e-06
-2.14158e-06
5.70934e-06
-1.74746e-06
3.99215e-06
-1.61249e-06
2.54109e-06
-1.08428e-06
1.42223e-06
-7.88603e-07
5.29816e-07
-3.72872e-07
-4.38924e-08
8.14367e-08
-4.10254e-07
3.54364e-07
-6.10117e-07
5.88429e-07
-7.33668e-07
5.90555e-07
-7.84244e-07
5.33172e-07
-7.50077e-07
5.05733e-07
-6.63898e-07
4.31311e-07
-5.42277e-07
3.50376e-07
-4.20158e-07
2.28424e-07
-3.12407e-07
1.00231e-07
-2.03013e-07
-1.9876e-09
-8.69822e-08
-6.82343e-08
2.11797e-08
-1.14942e-07
9.40289e-08
-1.51774e-07
1.10751e-07
-1.78327e-07
8.8614e-10
-1.48282e-07
1.08175e-07
1.32113e-07
2.28175e-07
-3.67055e-07
5.99162e-08
-2.94703e-07
7.90508e-08
-2.22012e-07
1.69721e-07
-7.75138e-09
-4.1141e-08
-7.28289e-08
-2.10307e-07
-1.84701e-07
0.000383511
0.000219682
0.000201955
0.000169848
0.000144516
0.000126122
9.02175e-05
9.20045e-05
5.46152e-05
6.86861e-05
2.96697e-05
5.24896e-05
1.48155e-05
4.12064e-05
5.84103e-06
3.27345e-05
4.21688e-07
2.59889e-05
-2.10036e-06
2.04319e-05
-3.80849e-06
1.56715e-05
-3.89995e-06
1.17262e-05
-4.16081e-06
8.35869e-06
-3.41362e-06
5.68616e-06
-3.13505e-06
3.45555e-06
-2.23645e-06
1.78752e-06
-1.80652e-06
4.46314e-07
-1.04397e-06
-4.58306e-07
-6.05257e-07
-1.10947e-06
-1.01439e-07
-1.4473e-06
2.27758e-07
-1.59052e-06
4.31005e-07
-1.52846e-06
8.25848e-07
-1.35919e-06
1.01717e-06
-1.19281e-06
1.1439e-06
-1.03581e-06
1.08338e-06
-9.26277e-07
8.81399e-07
-8.16648e-07
6.6515e-07
-6.80892e-07
4.93047e-07
-5.21541e-07
3.63551e-07
-3.60356e-07
2.53883e-07
-2.20308e-07
1.26849e-07
-1.21784e-07
-1.44388e-08
-1.41175e-07
9.20934e-09
7.76599e-08
2.99698e-07
-3.42544e-07
1.89603e-07
-4.06265e-07
1.51423e-07
-3.05085e-07
1.74079e-07
-1.1024e-07
1.00001e-07
2.42233e-08
-1.69643e-07
-1.8117e-07
-9.91794e-08
0.000135814
-1.461e-05
-4.42266e-05
-4.23149e-05
-6.18513e-05
-4.44704e-05
-5.14276e-05
-3.61298e-05
-3.83e-05
-2.74456e-05
-2.58483e-05
-2.05401e-05
-1.76984e-05
-1.58318e-05
-1.16769e-05
-1.25258e-05
-8.05089e-06
-1.02279e-05
-5.11142e-06
-8.50533e-06
-3.36721e-06
-7.22991e-06
-1.66377e-06
-6.23119e-06
-7.51183e-07
-5.47114e-06
2.84765e-07
-4.88555e-06
7.12033e-07
-4.45997e-06
1.1866e-06
-4.13727e-06
1.26731e-06
-3.87086e-06
1.4171e-06
-3.62468e-06
1.37949e-06
-3.36694e-06
1.345e-06
-3.08749e-06
1.29058e-06
-2.73852e-06
1.15966e-06
-2.33964e-06
1.35922e-06
-1.8974e-06
1.32258e-06
-1.5242e-06
1.41332e-06
-1.22934e-06
1.23591e-06
-1.03614e-06
1.00607e-06
-8.88299e-07
7.64121e-07
-7.50179e-07
5.73418e-07
-5.99788e-07
4.28875e-07
-4.43621e-07
3.15765e-07
-3.04629e-07
1.85878e-07
-2.0206e-07
2.72445e-08
-1.68782e-07
5.62326e-08
1.70352e-07
-2.71763e-07
3.44901e-07
-3.68735e-07
2.51406e-07
-3.39492e-07
2.11503e-07
-2.57186e-07
1.83002e-07
3.02385e-08
-3.68284e-08
-9.66547e-08
-1.68849e-07
-1.23455e-07
-0.000432703
-0.000180963
-0.000181209
-0.000133674
-0.000119323
-9.82661e-05
-8.08692e-05
-7.57355e-05
-5.32983e-05
-6.03992e-05
-3.62687e-05
-4.97446e-05
-2.32163e-05
-4.14119e-05
-1.48257e-05
-3.48129e-05
-7.96375e-06
-2.91652e-05
-3.57638e-06
-2.44942e-05
1.25838e-07
-2.04859e-05
2.31632e-06
-1.72275e-05
4.03548e-06
-1.451e-05
4.871e-06
-1.2336e-05
5.27344e-06
-1.05402e-05
5.31394e-06
-9.06808e-06
4.94971e-06
-7.80102e-06
4.59498e-06
-6.67451e-06
3.96756e-06
-5.6637e-06
3.53368e-06
-4.74432e-06
2.89205e-06
-3.92861e-06
2.47963e-06
-3.15754e-06
1.97979e-06
-2.46618e-06
1.9466e-06
-1.86117e-06
1.72751e-06
-1.44151e-06
1.59181e-06
-1.14419e-06
1.31308e-06
-9.63551e-07
9.93528e-07
-8.11428e-07
7.26498e-07
-6.55291e-07
5.2927e-07
-4.95912e-07
3.7992e-07
-3.52003e-07
2.40287e-07
-2.33355e-07
7.52497e-08
-2.05115e-07
1.00771e-07
-1.63677e-07
1.11823e-07
-1.03446e-07
2.85864e-07
-2.61305e-07
3.09691e-07
-3.29493e-07
2.13818e-07
-7.0916e-08
1.10528e-07
-4.01349e-08
-1.18345e-07
-1.55179e-07
-8.18669e-08
-0.000696444
-0.000191098
-0.000159154
-0.000112484
-9.92456e-05
-4.97092e-05
-6.39444e-05
-1.98013e-05
-4.5881e-05
-3.80421e-06
-3.57166e-05
3.39999e-06
-2.94755e-05
8.29343e-06
-2.50113e-05
1.02049e-05
-2.1817e-05
1.14836e-05
-1.92529e-05
1.13992e-05
-1.72047e-05
1.1374e-05
-1.54538e-05
1.06501e-05
-1.40259e-05
9.98068e-06
-1.2783e-05
9.04203e-06
-1.16917e-05
8.0953e-06
-1.06555e-05
7.18752e-06
-9.62009e-06
6.26081e-06
-8.58608e-06
5.5142e-06
-7.53565e-06
4.6985e-06
-6.52491e-06
4.12929e-06
-5.53877e-06
3.38353e-06
-4.63633e-06
2.93867e-06
-3.74936e-06
2.28049e-06
-2.90026e-06
2.18754e-06
-2.08655e-06
1.91884e-06
-1.47991e-06
1.83569e-06
-1.07598e-06
1.5405e-06
-8.71976e-07
1.2144e-06
-7.65851e-07
8.85252e-07
-6.71816e-07
6.25318e-07
-5.50764e-07
4.24948e-07
-4.10395e-07
2.76114e-07
-2.83036e-07
1.12312e-07
-2.3612e-07
1.19535e-07
-1.831e-07
3.85318e-08
2.33405e-07
-1.79505e-07
3.63205e-07
-2.4705e-07
2.4442e-07
-1.71168e-07
2.05281e-07
-7.43248e-08
7.06699e-09
-9.345e-08
-1.23935e-07
-8.6992e-08
0.000307169
1.03925e-05
2.40092e-05
3.23513e-05
1.73112e-06
1.03701e-05
-8.88892e-06
4.43652e-06
-1.23478e-05
2.75382e-06
-1.34873e-05
3.98001e-06
-1.36909e-05
4.37215e-06
-1.37522e-05
5.7184e-06
-1.35135e-05
6.01597e-06
-1.32242e-05
6.85959e-06
-1.26891e-05
6.86268e-06
-1.20848e-05
7.31392e-06
-1.13742e-05
7.14858e-06
-1.07147e-05
7.0334e-06
-1.00171e-05
6.61369e-06
-9.2795e-06
6.2066e-06
-8.51833e-06
5.74906e-06
-7.73039e-06
5.09882e-06
-6.94069e-06
4.60278e-06
-6.09333e-06
3.92655e-06
-5.25677e-06
3.49127e-06
-4.40818e-06
2.8777e-06
-3.6238e-06
2.45442e-06
-2.85723e-06
1.99443e-06
-2.20753e-06
1.90665e-06
-1.67538e-06
1.62879e-06
-1.332e-06
1.47315e-06
-1.09578e-06
1.17211e-06
-9.3786e-07
8.81211e-07
-7.79067e-07
6.44871e-07
-6.13595e-07
4.62813e-07
-4.52536e-07
3.16966e-07
-3.02595e-07
1.61659e-07
-2.26787e-07
1.84043e-07
-2.00478e-07
1.30089e-07
-1.47144e-07
1.30365e-07
-4.71769e-08
2.5654e-07
-1.5169e-07
2.59814e-07
-1.40853e-07
1.19321e-07
-3.62091e-08
-9.29606e-08
-1.22589e-07
-5.72852e-08
-0.000409814
-3.68638e-05
-8.45833e-05
-4.79077e-05
-5.1465e-05
-1.51292e-05
-3.49614e-05
-1.68397e-06
-2.76062e-05
3.18458e-06
-2.36994e-05
5.46329e-06
-2.06849e-05
6.43854e-06
-1.79015e-05
7.70622e-06
-1.52674e-05
8.1973e-06
-1.3047e-05
8.6454e-06
-1.11771e-05
8.46715e-06
-9.70163e-06
8.33939e-06
-8.4871e-06
7.78098e-06
-7.54187e-06
7.36016e-06
-6.79067e-06
6.6941e-06
-6.25029e-06
5.98696e-06
-5.78704e-06
5.26752e-06
-5.34526e-06
4.5702e-06
-4.8802e-06
3.97258e-06
-4.39874e-06
3.38681e-06
-3.90926e-06
2.95629e-06
-3.42702e-06
2.43349e-06
-2.962e-06
2.12961e-06
-2.47458e-06
1.6692e-06
-1.9385e-06
1.67496e-06
-1.37863e-06
1.61159e-06
-9.64315e-07
1.62016e-06
-7.14081e-07
1.43948e-06
-6.15251e-07
1.16733e-06
-5.81838e-07
8.52933e-07
-5.25029e-07
5.91009e-07
-4.1447e-07
4.02423e-07
-2.83572e-07
2.43732e-07
-2.07799e-07
2.48885e-07
-1.82789e-07
1.81492e-07
-1.3518e-07
5.13463e-08
2.04752e-07
-6.89394e-08
2.51423e-07
-1.22222e-07
1.69776e-07
-1.07963e-08
-1.47951e-08
-9.12787e-08
-9.24542e-08
-5.54738e-08
0.000245823
-3.71407e-05
8.03582e-06
4.67305e-05
-6.96861e-06
2.71329e-05
-1.46789e-05
1.84516e-05
-1.63638e-05
1.47258e-05
-1.5646e-05
1.25067e-05
-1.42373e-05
1.13268e-05
-1.28765e-05
1.0107e-05
-1.18848e-05
8.7934e-06
-1.10876e-05
7.59441e-06
-1.02799e-05
6.77912e-06
-9.46988e-06
6.07863e-06
-8.66967e-06
5.44374e-06
-7.90351e-06
4.9407e-06
-7.12403e-06
4.39259e-06
-6.33797e-06
3.97374e-06
-5.50696e-06
3.64556e-06
-4.73586e-06
3.3531e-06
-4.0521e-06
2.98683e-06
-3.48585e-06
2.67248e-06
-2.98314e-06
2.33501e-06
-2.56241e-06
2.07392e-06
-2.18314e-06
1.77718e-06
-1.85426e-06
1.51039e-06
-1.54291e-06
1.29686e-06
-1.29171e-06
1.30553e-06
-1.09066e-06
1.17946e-06
-9.50455e-07
1.15297e-06
-8.18763e-07
9.78352e-07
-6.83407e-07
7.97754e-07
-5.20588e-07
6.41084e-07
-3.66564e-07
4.92006e-07
-2.24756e-07
3.33146e-07
-1.40042e-07
3.31222e-07
-1.27758e-07
2.93482e-07
-1.35099e-07
1.00904e-07
-2.02799e-08
9.63831e-08
-2.83787e-09
1.69347e-07
-2.14514e-09
7.54867e-08
-4.3969e-08
-7.97356e-08
-8.2745e-08
-3.90449e-08
-0.000289809
7.26849e-05
-6.60115e-05
-1.41827e-05
-4.61089e-05
2.87292e-06
-3.16766e-05
1.014e-05
-2.27795e-05
1.11304e-05
-1.6892e-05
1.13844e-05
-1.23578e-05
9.73281e-06
-8.75059e-06
8.87119e-06
-5.55438e-06
7.61578e-06
-3.00821e-06
6.88706e-06
-1.07839e-06
5.8485e-06
2.22783e-07
5.06703e-06
1.04385e-06
4.4055e-06
1.47494e-06
3.76394e-06
1.57197e-06
3.42174e-06
1.43601e-06
2.96396e-06
1.07404e-06
2.69038e-06
6.65461e-07
2.31193e-06
2.43332e-07
2.10556e-06
-9.44471e-08
1.81051e-06
-3.80189e-07
1.62838e-06
-5.84847e-07
1.40406e-06
-7.41765e-07
1.19948e-06
-8.29683e-07
1.04392e-06
-8.42547e-07
8.79103e-07
-7.36085e-07
1.03006e-06
-5.17178e-07
1.27103e-06
-3.25274e-07
1.48253e-06
-1.98321e-07
1.47303e-06
-1.53383e-07
1.29819e-06
-1.53612e-07
9.93979e-07
-1.2376e-07
7.31408e-07
-6.338e-08
5.10276e-07
-3.8958e-08
4.37821e-07
-6.9959e-08
3.86529e-07
-9.63383e-08
1.54368e-07
-6.32974e-09
5.75764e-08
1.55319e-07
-9.18531e-09
1.27172e-07
-2.75515e-10
-3.33757e-08
-4.44126e-08
-5.4227e-08
-2.61151e-08
0.00040652
0.000124871
3.81332e-05
7.65957e-05
8.72616e-06
4.4157e-05
-2.34775e-06
2.9632e-05
-4.22053e-06
2.34967e-05
-2.99703e-06
1.86168e-05
-1.43e-06
1.54796e-05
2.17273e-08
1.20252e-05
9.29262e-07
9.64044e-06
1.51514e-06
7.06679e-06
1.72601e-06
5.37737e-06
1.82649e-06
3.84368e-06
1.77601e-06
2.90245e-06
1.69711e-06
2.16934e-06
1.57318e-06
1.72071e-06
1.44739e-06
1.47428e-06
1.31598e-06
1.27728e-06
1.16683e-06
1.27262e-06
1.01348e-06
1.19096e-06
8.25352e-07
1.25314e-06
6.46202e-07
1.22627e-06
4.59106e-07
1.3643e-06
3.11149e-07
1.41009e-06
1.81301e-07
1.60851e-06
1.07053e-07
1.65424e-06
5.30351e-08
1.86517e-06
1.8904e-08
2.02101e-06
-1.5528e-09
1.91848e-06
-1.59002e-08
1.82589e-06
2.22599e-08
1.51538e-06
7.31987e-08
1.24982e-06
1.26186e-07
9.913e-07
1.46513e-07
7.10935e-07
1.17014e-07
5.45314e-07
5.69233e-08
5.30573e-07
3.51734e-08
2.77358e-07
1.95095e-08
1.28675e-07
-5.46298e-09
1.01748e-07
3.77924e-08
1.64458e-08
1.01831e-08
-2.7909e-08
-2.98604e-08
-7.54007e-09
6.38938e-05
5.10948e-05
4.13609e-05
3.15648e-05
3.55397e-05
2.29788e-05
3.19129e-05
1.57987e-05
2.90944e-05
1.14807e-05
2.68366e-05
6.62012e-06
2.44803e-05
3.59903e-06
2.2304e-05
6.9527e-07
2.00393e-05
-9.69364e-07
1.7856e-05
-2.19365e-06
1.57086e-05
-2.69703e-06
1.3685e-05
-2.4799e-06
1.19102e-05
-2.0695e-06
1.03581e-05
-6.9429e-07
9.116e-06
3.02298e-07
7.97716e-06
2.06742e-06
7.05584e-06
3.11147e-06
6.14762e-06
4.62684e-06
5.3954e-06
5.36305e-06
4.64898e-06
6.16214e-06
4.03779e-06
6.37396e-06
3.47697e-06
6.3961e-06
3.03214e-06
6.14259e-06
2.65708e-06
5.64508e-06
2.37026e-06
5.14483e-06
2.13395e-06
4.4225e-06
1.97578e-06
4.07285e-06
1.8658e-06
3.71591e-06
1.70304e-06
3.26849e-06
1.44789e-06
2.68297e-06
1.11425e-06
1.954e-06
7.69841e-07
1.28093e-06
4.89993e-07
7.76297e-07
2.63975e-07
4.83676e-07
1.49693e-07
4.53083e-07
9.58268e-08
1.87158e-07
3.39204e-08
5.92619e-08
3.64502e-08
4.27435e-08
2.74596e-08
2.27086e-08
-2.56103e-09
-1.08218e-08
-6.09861e-09
0
)
;

boundaryField
{
    inlet
    {
        type            extrapolatedCalculated;
        value           nonuniform List<scalar> 
23
(
-7.15241e-07
-1.09452e-07
-3.80652e-07
-1.2992e-07
-3.67462e-07
-1.37104e-07
-3.28671e-07
-1.28459e-07
-2.88346e-07
-1.2034e-07
-2.36833e-07
-1.21846e-07
-1.84701e-07
-9.91794e-08
-1.23455e-07
-8.18669e-08
-8.6992e-08
-5.72852e-08
-5.54738e-08
-3.90449e-08
-2.61151e-08
-7.54007e-09
0
)
;
    }
    outlet
    {
        type            extrapolatedCalculated;
        value           nonuniform List<scalar> 
82
(
6.38938e-05
4.13609e-05
5.10948e-05
3.15648e-05
3.55397e-05
2.29788e-05
3.19129e-05
1.57987e-05
2.90944e-05
1.14807e-05
2.68366e-05
6.62012e-06
2.44803e-05
3.59903e-06
2.2304e-05
6.9527e-07
2.00393e-05
-9.69364e-07
1.7856e-05
-2.19365e-06
1.57086e-05
-2.69703e-06
1.3685e-05
-2.4799e-06
1.19102e-05
-2.0695e-06
1.03581e-05
-6.9429e-07
9.116e-06
3.02298e-07
7.97716e-06
2.06742e-06
7.05584e-06
3.11147e-06
6.14762e-06
4.62684e-06
5.3954e-06
5.36305e-06
4.64898e-06
6.16214e-06
4.03779e-06
6.37396e-06
3.47697e-06
6.3961e-06
3.03214e-06
6.14259e-06
2.65708e-06
5.64508e-06
2.37026e-06
5.14483e-06
2.13395e-06
4.4225e-06
1.97578e-06
4.07285e-06
1.8658e-06
3.71591e-06
1.70304e-06
3.26849e-06
1.44789e-06
2.68297e-06
1.11425e-06
1.954e-06
7.69841e-07
1.28093e-06
4.89993e-07
7.76297e-07
2.63975e-07
4.83676e-07
1.49693e-07
4.53083e-07
9.58268e-08
1.87158e-07
3.39204e-08
5.92619e-08
3.64502e-08
4.27435e-08
2.74596e-08
2.27086e-08
-2.56103e-09
-1.08218e-08
-6.09861e-09
0
)
;
    }
    walls
    {
        type            extrapolatedCalculated;
        value           nonuniform List<scalar> 0();
    }
    frontAndBack
    {
        type            empty;
    }
    procBoundary3to2
    {
        type            processor;
        value           nonuniform List<scalar> 
88
(
1.16391e-07
5.40933e-09
3.54835e-07
4.26405e-07
4.26405e-07
2.42954e-07
3.36185e-07
3.36185e-07
6.85357e-08
-9.56818e-08
3.43223e-07
3.43223e-07
-2.71282e-08
7.30084e-08
1.29762e-08
-4.67296e-08
2.48439e-07
2.48439e-07
-4.79767e-07
1.23665e-08
1.65897e-07
-1.45958e-07
2.18786e-07
2.18786e-07
-1.96959e-08
-2.96262e-07
-2.23619e-07
-2.67821e-07
-6.2994e-07
4.66182e-07
-5.76792e-07
-5.76792e-07
7.28425e-07
-5.43287e-07
5.81339e-07
-4.26654e-07
3.45306e-07
-2.93281e-07
2.10532e-07
-1.2917e-07
4.90499e-08
3.88625e-08
1.32045e-09
1.4226e-08
1.4226e-08
1.43649e-05
9.92275e-06
3.17938e-07
7.3734e-06
-2.8777e-06
5.35826e-06
-4.39431e-06
3.95546e-06
-4.59702e-06
2.85538e-06
-4.40699e-06
1.87719e-06
-3.22734e-06
1.07487e-06
-2.27844e-06
3.17978e-07
-6.32682e-07
-1.70147e-07
5.26396e-07
-5.22296e-07
1.98831e-06
-6.0735e-07
2.92184e-06
-5.92819e-07
3.63546e-06
-4.66169e-07
3.90801e-06
-3.46932e-07
3.7239e-06
-1.67246e-07
3.7723e-06
-1.29342e-08
3.74834e-06
-7.40426e-08
3.33155e-06
-2.84761e-07
2.86063e-06
-6.47264e-07
1.94858e-06
-9.30455e-07
2.09814e-06
-2.48132e-06
-2.48132e-06
)
;
    }
    procBoundary3to6
    {
        type            processor;
        value           uniform 1.38538e-05;
    }
    procBoundary3to7
    {
        type            processor;
        value           nonuniform List<scalar> 
16
(
-0.000144801
0.000111442
-6.46781e-05
-0.000103357
0.000171234
0.000279901
0.00018323
-0.000320891
-0.000320891
-0.000665726
0.000269477
-0.000333971
0.000122685
-0.000209027
0.000328043
5.99908e-05
)
;
    }
}


// ************************************************************************* //
