/*--------------------------------*- C++ -*----------------------------------*\
| =========                 |                                                 |
| \\      /  F ield         | OpenFOAM: The Open Source CFD Toolbox           |
|  \\    /   O peration     | Version:  2306                                  |
|   \\  /    A nd           | Website:  www.openfoam.com                      |
|    \\/     M anipulation  |                                                 |
\*---------------------------------------------------------------------------*/
FoamFile
{
    version     2.0;
    format      ascii;
    arch        "LSB;label=32;scalar=64";
    class       volScalarField;
    location    "175";
    object      turbulenceProperties:epsilon;
}
// * * * * * * * * * * * * * * * * * * * * * * * * * * * * * * * * * * * * * //

dimensions      [0 2 -3 0 0 0 0];

internalField   nonuniform List<scalar> 
1340
(
3.61885e-10
1.41008e-09
1.7986e-11
3.06549e-10
3.59613e-10
1.41382e-09
2.29993e-11
5.82649e-11
1.7314e-11
3.08807e-10
3.59844e-10
1.41477e-09
7.64179e-11
5.94021e-11
5.24543e-11
2.5333e-11
6.10164e-11
1.69406e-11
3.11235e-10
3.61809e-10
1.41427e-09
1.56216e-10
1.34153e-10
1.17356e-10
1.02789e-10
8.86537e-11
7.63024e-11
6.00983e-11
5.37709e-11
2.79233e-11
6.37042e-11
1.68379e-11
3.13762e-10
3.64921e-10
1.41314e-09
3.08176e-10
2.707e-10
2.35806e-10
2.04171e-10
1.75386e-10
1.50351e-10
1.30144e-10
1.14711e-10
1.01173e-10
8.78875e-11
7.61871e-11
6.0889e-11
5.52353e-11
3.07966e-11
6.62797e-11
1.69609e-11
3.16148e-10
3.68716e-10
1.41159e-09
5.76584e-10
5.27307e-10
4.80616e-10
4.36698e-10
3.95432e-10
3.56622e-10
3.20015e-10
2.85305e-10
2.52258e-10
2.21356e-10
1.93187e-10
1.67219e-10
1.44428e-10
1.26079e-10
1.12011e-10
9.95096e-11
8.71523e-11
7.618e-11
6.18339e-11
5.68525e-11
3.39097e-11
6.86678e-11
1.72863e-11
3.18342e-10
3.72826e-10
1.4091e-09
1.09845e-09
1.04233e-09
9.87419e-10
9.33491e-10
8.80741e-10
8.2927e-10
7.79209e-10
7.30605e-10
6.83492e-10
6.37707e-10
5.93113e-10
5.50004e-10
5.08606e-10
4.68215e-10
4.29501e-10
3.92755e-10
3.57925e-10
3.24862e-10
2.93209e-10
2.62896e-10
2.34183e-10
2.07145e-10
1.82328e-10
1.592e-10
1.38761e-10
1.22197e-10
1.09423e-10
9.79191e-11
8.64718e-11
7.62007e-11
6.28823e-11
5.85871e-11
3.72482e-11
7.0806e-11
1.78035e-11
3.2026e-10
3.76703e-10
1.40635e-09
6.39927e-09
7.72386e-09
5.56111e-09
4.79652e-09
4.53093e-09
4.39282e-09
4.19623e-09
4.00379e-09
3.8191e-09
3.65023e-09
3.49426e-09
3.34691e-09
3.20623e-09
3.07155e-09
2.9435e-09
2.82046e-09
2.70215e-09
2.58823e-09
2.47839e-09
2.37312e-09
2.27303e-09
2.17876e-09
2.09029e-09
2.00679e-09
1.92709e-09
1.8504e-09
1.77678e-09
1.70669e-09
1.64008e-09
1.57703e-09
1.51694e-09
1.45946e-09
1.40435e-09
1.35132e-09
1.30034e-09
1.25118e-09
1.20365e-09
1.15765e-09
1.11258e-09
1.06839e-09
1.02496e-09
9.80418e-10
9.36736e-10
8.97546e-10
8.57954e-10
8.16719e-10
7.76118e-10
7.36157e-10
6.96935e-10
6.58575e-10
6.21136e-10
5.84592e-10
5.48915e-10
5.13975e-10
4.79373e-10
4.45499e-10
4.12955e-10
3.81482e-10
3.5123e-10
3.22242e-10
2.94449e-10
2.67623e-10
2.41783e-10
2.17037e-10
1.93582e-10
1.71891e-10
1.51434e-10
1.33212e-10
1.18381e-10
1.06846e-10
9.63182e-11
8.57867e-11
7.62334e-11
6.40315e-11
6.04396e-11
4.08067e-11
7.26596e-11
1.84995e-11
3.21678e-10
3.80124e-10
1.40374e-09
6.89771e-09
5.57456e-09
4.67472e-09
4.48578e-09
4.25552e-09
4.02444e-09
3.78569e-09
3.5704e-09
3.37343e-09
3.19392e-09
3.02755e-09
2.87222e-09
2.72692e-09
2.59077e-09
2.46308e-09
2.34238e-09
2.22819e-09
2.12037e-09
2.01866e-09
1.92339e-09
1.83489e-09
1.75271e-09
1.67605e-09
1.60386e-09
1.53532e-09
1.4702e-09
1.40884e-09
1.35117e-09
1.29722e-09
1.24661e-09
1.1988e-09
1.15354e-09
1.11054e-09
1.06968e-09
1.03084e-09
9.93777e-10
9.5833e-10
9.24129e-10
8.90745e-10
8.58016e-10
8.2611e-10
7.94563e-10
7.62432e-10
7.31118e-10
7.01122e-10
6.70822e-10
6.40824e-10
6.11057e-10
5.81692e-10
5.52827e-10
5.24481e-10
4.96624e-10
4.6928e-10
4.42326e-10
4.15441e-10
3.88964e-10
3.63071e-10
3.37733e-10
3.13085e-10
2.89205e-10
2.66086e-10
2.43587e-10
2.21748e-10
2.00664e-10
1.80541e-10
1.61784e-10
1.4386e-10
1.27781e-10
1.1463e-10
1.04278e-10
9.47137e-11
8.51023e-11
7.62912e-11
6.52887e-11
6.24166e-11
4.45694e-11
7.42031e-11
1.93412e-11
3.22881e-10
3.82661e-10
1.40228e-09
5.05729e-09
4.76742e-09
4.40791e-09
4.20736e-09
3.91811e-09
3.65943e-09
3.41712e-09
3.19898e-09
2.99901e-09
2.81545e-09
2.64541e-09
2.48845e-09
2.34299e-09
2.20789e-09
2.08225e-09
1.96505e-09
1.85587e-09
1.7546e-09
1.66108e-09
1.57481e-09
1.4957e-09
1.42255e-09
1.35442e-09
1.29037e-09
1.23032e-09
1.17423e-09
1.12205e-09
1.07379e-09
1.02908e-09
9.87459e-10
9.48548e-10
9.12122e-10
8.77927e-10
8.45893e-10
8.15896e-10
7.87645e-10
7.60829e-10
7.35093e-10
7.10088e-10
6.85601e-10
6.62026e-10
6.39367e-10
6.16377e-10
5.93738e-10
5.71618e-10
5.49373e-10
5.27282e-10
5.05281e-10
4.83536e-10
4.62082e-10
4.4091e-10
4.20009e-10
3.99402e-10
3.78952e-10
3.58401e-10
3.37951e-10
3.17672e-10
2.97552e-10
2.77759e-10
2.58387e-10
2.39449e-10
2.20874e-10
2.02693e-10
1.85015e-10
1.68e-10
1.51987e-10
1.36474e-10
1.22472e-10
1.10931e-10
1.01708e-10
9.30991e-11
8.44092e-11
7.63688e-11
6.66572e-11
6.45239e-11
4.85128e-11
7.54402e-11
2.03344e-11
3.23003e-10
3.8492e-10
1.40286e-09
4.3576e-09
4.32115e-09
3.98782e-09
3.73201e-09
3.45146e-09
3.20822e-09
2.98293e-09
2.77811e-09
2.58964e-09
2.41631e-09
2.25662e-09
2.10952e-09
1.97374e-09
1.84831e-09
1.73248e-09
1.62572e-09
1.52753e-09
1.43774e-09
1.35573e-09
1.28068e-09
1.21187e-09
1.14822e-09
1.08896e-09
1.03377e-09
9.82737e-10
9.35581e-10
8.92285e-10
8.52652e-10
8.16057e-10
7.82241e-10
7.50842e-10
7.21785e-10
6.94788e-10
6.69902e-10
6.4685e-10
6.25344e-10
6.05032e-10
5.85595e-10
5.66766e-10
5.4855e-10
5.31304e-10
5.15016e-10
4.98501e-10
4.81942e-10
4.65654e-10
4.49349e-10
4.33129e-10
4.16985e-10
4.0104e-10
3.85277e-10
3.69698e-10
3.54284e-10
3.39053e-10
3.2382e-10
3.0841e-10
2.92884e-10
2.77217e-10
2.6149e-10
2.45834e-10
2.30325e-10
2.15043e-10
1.99948e-10
1.85035e-10
1.70428e-10
1.56236e-10
1.4273e-10
1.29453e-10
1.17398e-10
1.07371e-10
9.92077e-11
9.15221e-11
8.37382e-11
7.64986e-11
6.81485e-11
6.67756e-11
5.25577e-11
7.64147e-11
2.12987e-11
3.22488e-10
3.85688e-10
1.40948e-09
4.01189e-09
3.93444e-09
3.57507e-09
3.29335e-09
3.02022e-09
2.78176e-09
2.56447e-09
2.36843e-09
2.19012e-09
2.02817e-09
1.8806e-09
1.74594e-09
1.62308e-09
1.51083e-09
1.40851e-09
1.31564e-09
1.23118e-09
1.15452e-09
1.08487e-09
1.02114e-09
9.62607e-10
9.08533e-10
8.58547e-10
8.12651e-10
7.70623e-10
7.3225e-10
6.97444e-10
6.65623e-10
6.36366e-10
6.09462e-10
5.84845e-10
5.62249e-10
5.4161e-10
5.22751e-10
5.05484e-10
4.89714e-10
4.74556e-10
4.60168e-10
4.46408e-10
4.33394e-10
4.21232e-10
4.09897e-10
3.9826e-10
3.86383e-10
3.74846e-10
3.63203e-10
3.51646e-10
3.40218e-10
3.28867e-10
3.17719e-10
3.06668e-10
2.9572e-10
2.8493e-10
2.74036e-10
2.62886e-10
2.51525e-10
2.39821e-10
2.27866e-10
2.15858e-10
2.03778e-10
1.91775e-10
1.79871e-10
1.67972e-10
1.56215e-10
1.44674e-10
1.33558e-10
1.22421e-10
1.12265e-10
1.03714e-10
9.66018e-11
8.98458e-11
8.29981e-11
7.66448e-11
6.97599e-11
6.9222e-11
5.679e-11
7.70885e-11
2.31311e-11
3.18305e-10
3.8948e-10
1.4169e-09
3.94914e-09
3.86082e-09
3.44376e-09
3.10556e-09
2.79371e-09
2.52357e-09
2.28427e-09
2.07234e-09
1.88506e-09
1.71917e-09
1.57092e-09
1.44006e-09
1.32286e-09
1.2184e-09
1.12537e-09
1.04262e-09
9.6783e-10
9.00932e-10
8.40635e-10
7.85614e-10
7.35945e-10
6.90351e-10
6.49282e-10
6.12213e-10
5.78551e-10
5.48244e-10
5.20932e-10
4.96039e-10
4.73468e-10
4.52761e-10
4.34301e-10
4.17655e-10
4.02621e-10
3.88937e-10
3.76848e-10
3.6564e-10
3.54861e-10
3.44809e-10
3.35535e-10
3.27053e-10
3.19146e-10
3.11813e-10
3.03985e-10
2.96236e-10
2.88813e-10
2.81124e-10
2.73697e-10
2.6642e-10
2.59087e-10
2.52055e-10
2.45073e-10
2.38126e-10
2.31415e-10
2.24462e-10
2.17196e-10
2.09665e-10
2.01716e-10
1.93327e-10
1.84822e-10
1.76146e-10
1.67422e-10
1.58711e-10
1.49883e-10
1.4107e-10
1.32276e-10
1.23639e-10
1.14776e-10
1.06665e-10
9.9675e-11
9.36799e-11
8.79637e-11
8.21894e-11
7.68859e-11
7.17849e-11
7.20225e-11
6.19579e-11
7.63979e-11
2.69047e-11
3.06201e-10
3.82227e-10
1.32357e-09
3.96936e-09
3.8911e-09
3.45487e-09
3.0745e-09
2.72899e-09
2.42893e-09
2.1632e-09
1.93062e-09
1.72679e-09
1.54816e-09
1.39131e-09
1.25483e-09
1.13429e-09
1.02883e-09
9.36252e-10
8.54876e-10
7.82195e-10
7.18483e-10
6.61493e-10
6.10876e-10
5.6612e-10
5.25801e-10
4.90386e-10
4.59062e-10
4.30752e-10
4.05688e-10
3.83224e-10
3.63039e-10
3.45151e-10
3.28963e-10
3.14755e-10
3.02295e-10
2.91106e-10
2.81021e-10
2.72266e-10
2.63926e-10
2.56285e-10
2.49386e-10
2.43313e-10
2.37814e-10
2.32778e-10
2.27895e-10
2.22843e-10
2.18165e-10
2.13507e-10
2.08908e-10
2.04624e-10
2.00426e-10
1.96314e-10
1.92461e-10
1.88767e-10
1.85106e-10
1.81636e-10
1.7794e-10
1.73933e-10
1.69588e-10
1.64823e-10
1.59631e-10
1.54271e-10
1.48729e-10
1.43098e-10
1.37397e-10
1.3154e-10
1.25577e-10
1.19459e-10
1.13286e-10
1.06745e-10
1.00712e-10
9.53045e-11
9.04797e-11
8.58952e-11
8.13317e-11
7.73169e-11
7.42696e-11
7.53891e-11
6.77219e-11
7.52438e-11
3.13485e-11
3.05354e-10
3.75891e-10
1.32031e-09
3.62425e-09
3.55775e-09
3.1854e-09
2.83885e-09
2.52451e-09
2.24545e-09
1.99562e-09
1.77527e-09
1.57962e-09
1.40669e-09
1.25522e-09
1.12131e-09
1.00354e-09
9.00064e-10
8.09406e-10
7.29383e-10
6.58947e-10
5.9742e-10
5.42864e-10
4.9542e-10
4.53731e-10
4.16843e-10
3.84677e-10
3.56428e-10
3.31204e-10
3.09264e-10
2.89706e-10
2.72392e-10
2.57388e-10
2.44098e-10
2.32467e-10
2.22454e-10
2.13454e-10
2.05414e-10
1.98426e-10
1.91909e-10
1.86197e-10
1.81262e-10
1.76958e-10
1.73039e-10
1.69491e-10
1.65992e-10
1.62724e-10
1.59751e-10
1.56807e-10
1.54173e-10
1.51792e-10
1.49547e-10
1.47522e-10
1.45722e-10
1.44189e-10
1.42741e-10
1.41367e-10
1.3991e-10
1.38112e-10
1.36014e-10
1.3357e-10
1.30763e-10
1.2784e-10
1.24762e-10
1.21599e-10
1.18373e-10
1.14972e-10
1.11372e-10
1.07553e-10
1.03529e-10
9.90661e-11
9.49099e-11
9.09484e-11
8.72524e-11
8.38182e-11
8.0513e-11
7.79525e-11
7.70175e-11
7.91618e-11
7.34036e-11
7.46916e-11
3.60972e-11
3.10694e-10
3.56505e-10
1.31988e-09
3.07665e-09
2.54386e-09
2.9086e-09
2.64697e-09
2.3695e-09
2.12383e-09
1.89939e-09
1.69786e-09
1.51622e-09
1.35331e-09
1.20712e-09
1.07723e-09
9.61109e-10
8.58041e-10
7.66593e-10
6.85974e-10
6.14431e-10
5.51544e-10
4.96408e-10
4.47729e-10
4.05352e-10
3.68008e-10
3.35298e-10
3.06704e-10
2.81534e-10
2.59534e-10
2.40279e-10
2.23441e-10
2.08686e-10
1.96007e-10
1.849e-10
1.75156e-10
1.66821e-10
1.59297e-10
1.52699e-10
1.47028e-10
1.41894e-10
1.37582e-10
1.33911e-10
1.30624e-10
1.27691e-10
1.24995e-10
1.22505e-10
1.20328e-10
1.18351e-10
1.16611e-10
1.15134e-10
1.13898e-10
1.12903e-10
1.12143e-10
1.11626e-10
1.11392e-10
1.11273e-10
1.11178e-10
1.1105e-10
1.10613e-10
1.09951e-10
1.09043e-10
1.07862e-10
1.06635e-10
1.05335e-10
1.03974e-10
1.02579e-10
1.01013e-10
9.92282e-11
9.72099e-11
9.4917e-11
9.21721e-11
8.95813e-11
8.68588e-11
8.41947e-11
8.1876e-11
7.98346e-11
7.88338e-11
7.99909e-11
8.31583e-11
7.87198e-11
7.4613e-11
4.23399e-11
3.19297e-10
3.3242e-10
1.31872e-09
2.46112e-09
2.02284e-09
2.33143e-09
2.11339e-09
1.88659e-09
1.69094e-09
1.51403e-09
1.35585e-09
1.21354e-09
1.08588e-09
9.70975e-10
8.67994e-10
7.75857e-10
6.93348e-10
6.1996e-10
5.54436e-10
4.96398e-10
4.44946e-10
3.99603e-10
3.59406e-10
3.24057e-10
2.92884e-10
2.65607e-10
2.4157e-10
2.2049e-10
2.02145e-10
1.86052e-10
1.72176e-10
1.59973e-10
1.49439e-10
1.40232e-10
1.32178e-10
1.25233e-10
1.19034e-10
1.13756e-10
1.0926e-10
1.05374e-10
1.0206e-10
9.92692e-11
9.67369e-11
9.44902e-11
9.25246e-11
9.08037e-11
8.93983e-11
8.82265e-11
8.73119e-11
8.66478e-11
8.62192e-11
8.60804e-11
8.61881e-11
8.65133e-11
8.71076e-11
8.78138e-11
8.85047e-11
8.91902e-11
8.9628e-11
8.98983e-11
9.0029e-11
8.9997e-11
8.99774e-11
8.99487e-11
8.99083e-11
8.98426e-11
8.96469e-11
8.92391e-11
8.86041e-11
8.76917e-11
8.63484e-11
8.50443e-11
8.33775e-11
8.16589e-11
8.03911e-11
7.95978e-11
8.02079e-11
8.33761e-11
8.74412e-11
8.37778e-11
7.53988e-11
5.15173e-11
3.31404e-10
3.05376e-10
1.31954e-09
2.2537e-09
1.88133e-09
2.06775e-09
1.82726e-09
1.59459e-09
1.40284e-09
1.23709e-09
1.09397e-09
9.69812e-10
8.61084e-10
7.65606e-10
6.81622e-10
6.07426e-10
5.41676e-10
4.83623e-10
4.32013e-10
3.86437e-10
3.46092e-10
3.10362e-10
2.78755e-10
2.50827e-10
2.26305e-10
2.04651e-10
1.85622e-10
1.69e-10
1.54392e-10
1.41673e-10
1.30637e-10
1.20839e-10
1.12401e-10
1.04981e-10
9.8546e-11
9.29888e-11
8.81322e-11
8.4087e-11
8.07094e-11
7.77397e-11
7.52292e-11
7.30874e-11
7.11282e-11
6.94612e-11
6.81229e-11
6.69891e-11
6.61377e-11
6.55832e-11
6.52036e-11
6.51087e-11
6.5233e-11
6.56406e-11
6.62814e-11
6.71215e-11
6.82121e-11
6.93554e-11
7.04992e-11
7.16562e-11
7.26394e-11
7.35301e-11
7.43795e-11
7.51718e-11
7.60246e-11
7.69085e-11
7.78342e-11
7.87606e-11
7.95713e-11
8.02211e-11
8.06685e-11
8.08552e-11
8.06559e-11
8.03918e-11
7.96304e-11
7.88154e-11
7.85964e-11
7.90772e-11
8.13461e-11
8.63423e-11
9.09019e-11
8.73134e-11
7.60749e-11
6.32217e-11
3.46854e-10
2.73707e-10
1.32764e-09
2.40819e-09
2.00084e-09
2.13855e-09
1.8314e-09
1.53888e-09
1.30868e-09
1.1165e-09
9.57808e-10
8.25907e-10
7.15231e-10
6.2209e-10
5.43173e-10
4.75908e-10
4.18244e-10
3.68648e-10
3.25799e-10
2.88667e-10
2.5645e-10
2.28284e-10
2.03759e-10
1.82415e-10
1.6378e-10
1.47474e-10
1.33227e-10
1.20896e-10
1.10069e-10
1.00635e-10
9.24695e-11
8.5271e-11
7.90835e-11
7.37054e-11
6.91201e-11
6.52115e-11
6.19023e-11
5.9178e-11
5.6913e-11
5.49214e-11
5.32914e-11
5.189e-11
5.07247e-11
4.97909e-11
4.91833e-11
4.87582e-11
4.85736e-11
4.86482e-11
4.88553e-11
4.93614e-11
5.00257e-11
5.09315e-11
5.20444e-11
5.33246e-11
5.47704e-11
5.62417e-11
5.7754e-11
5.92474e-11
6.06613e-11
6.20592e-11
6.34606e-11
6.48775e-11
6.63868e-11
6.79425e-11
6.95689e-11
7.12122e-11
7.27538e-11
7.42107e-11
7.54954e-11
7.65432e-11
7.72741e-11
7.78986e-11
7.79565e-11
7.79266e-11
7.85766e-11
8.01275e-11
8.3838e-11
9.02785e-11
9.50198e-11
9.15626e-11
8.03241e-11
8.27155e-11
3.71662e-10
2.4578e-10
1.36416e-09
2.96106e-09
2.36781e-09
2.59018e-09
2.17445e-09
1.77907e-09
1.46966e-09
1.21497e-09
1.00887e-09
8.41229e-10
7.04722e-10
5.93426e-10
5.02302e-10
4.27305e-10
3.65349e-10
3.13955e-10
2.71119e-10
2.35199e-10
2.0496e-10
1.79336e-10
1.577e-10
1.39263e-10
1.23462e-10
1.09988e-10
9.83616e-11
8.84641e-11
7.98751e-11
7.24759e-11
6.61335e-11
6.06863e-11
5.60447e-11
5.20634e-11
4.87673e-11
4.59557e-11
4.36166e-11
4.17026e-11
4.00544e-11
3.86623e-11
3.74949e-11
3.6587e-11
3.5873e-11
3.53451e-11
3.5112e-11
3.50321e-11
3.5147e-11
3.54491e-11
3.59311e-11
3.66065e-11
3.74344e-11
3.84539e-11
3.96224e-11
4.0943e-11
4.23388e-11
4.37998e-11
4.53063e-11
4.68107e-11
4.83324e-11
4.99043e-11
5.15365e-11
5.32332e-11
5.50627e-11
5.69596e-11
5.89555e-11
6.09842e-11
6.29636e-11
6.49136e-11
6.6719e-11
6.83292e-11
6.96618e-11
7.07489e-11
7.12903e-11
7.20269e-11
7.36715e-11
7.6536e-11
8.18683e-11
8.93014e-11
9.28635e-11
8.78173e-11
7.77044e-11
9.67551e-11
3.87167e-10
2.01519e-10
1.42884e-09
3.61394e-09
2.69333e-09
3.2253e-09
2.73097e-09
2.22736e-09
1.82447e-09
1.48539e-09
1.20839e-09
9.81654e-10
7.96961e-10
6.48181e-10
5.27913e-10
4.31272e-10
3.53314e-10
2.90671e-10
2.4034e-10
1.99611e-10
1.66768e-10
1.40061e-10
1.18443e-10
1.00886e-10
8.63655e-11
7.45832e-11
6.48923e-11
5.69546e-11
5.03651e-11
4.49903e-11
4.05763e-11
3.69734e-11
3.4088e-11
3.17173e-11
2.98951e-11
2.8428e-11
2.73327e-11
2.65372e-11
2.59497e-11
2.55988e-11
2.54286e-11
2.55103e-11
2.57136e-11
2.61199e-11
2.67143e-11
2.74324e-11
2.82981e-11
2.93015e-11
3.04448e-11
3.16624e-11
3.30257e-11
3.44741e-11
3.60167e-11
3.76777e-11
3.93873e-11
4.11954e-11
4.3043e-11
4.49499e-11
4.68995e-11
4.88986e-11
5.09553e-11
5.30321e-11
5.52014e-11
5.74057e-11
5.96895e-11
6.20109e-11
6.43276e-11
6.66439e-11
6.88584e-11
7.09557e-11
7.28884e-11
7.47912e-11
7.6162e-11
7.72885e-11
7.90579e-11
8.18916e-11
8.70628e-11
9.4056e-11
9.70495e-11
9.43915e-11
9.37993e-11
1.4231e-10
4.32216e-10
2.14371e-10
1.72402e-09
3.09734e-09
2.15137e-09
2.9339e-09
2.60042e-09
2.22062e-09
1.89316e-09
1.59769e-09
1.33999e-09
1.11604e-09
9.23888e-10
7.61405e-10
6.24422e-10
5.10522e-10
4.16014e-10
3.38414e-10
2.74984e-10
2.23276e-10
1.81473e-10
1.4762e-10
1.20426e-10
9.86493e-11
8.1101e-11
6.71751e-11
5.60472e-11
4.72311e-11
4.02158e-11
3.4688e-11
3.03139e-11
2.68874e-11
2.42277e-11
2.21487e-11
2.05814e-11
1.93908e-11
1.85463e-11
1.79541e-11
1.75749e-11
1.73795e-11
1.73261e-11
1.74164e-11
1.75909e-11
1.78864e-11
1.8259e-11
1.8706e-11
1.92239e-11
1.98193e-11
2.04643e-11
2.11575e-11
2.19237e-11
2.2728e-11
2.36036e-11
2.45285e-11
2.551e-11
2.65591e-11
2.76451e-11
2.88059e-11
3.00221e-11
3.1328e-11
3.2719e-11
3.41967e-11
3.58149e-11
3.75243e-11
3.93466e-11
4.12417e-11
4.31841e-11
4.51547e-11
4.70472e-11
4.88324e-11
5.04244e-11
5.13669e-11
5.17544e-11
5.31234e-11
5.61055e-11
6.09367e-11
6.85177e-11
7.57551e-11
7.44389e-11
6.57386e-11
6.85145e-11
1.35768e-10
3.13428e-10
1.74127e-10
1.74904e-09
)
;

boundaryField
{
    inlet
    {
        type            calculated;
        value           nonuniform List<scalar> 
23
(
2.28311e-08
2.25965e-08
2.23704e-08
2.2152e-08
2.19364e-08
2.17188e-08
2.14933e-08
2.12553e-08
2.09991e-08
2.07196e-08
2.04104e-08
2.00741e-08
1.96935e-08
1.91105e-08
1.86286e-08
1.8049e-08
1.73419e-08
1.65009e-08
1.55187e-08
1.44044e-08
1.31349e-08
1.21947e-08
1.05227e-08
)
;
    }
    outlet
    {
        type            calculated;
        value           nonuniform List<scalar> 
82
(
3.13546e-09
2.97111e-09
2.18258e-09
2.6351e-09
2.25238e-09
1.92217e-09
1.62402e-09
1.36379e-09
1.13742e-09
9.42993e-10
7.78399e-10
6.39464e-10
5.23765e-10
4.27603e-10
3.4849e-10
2.83689e-10
2.30734e-10
1.87804e-10
1.52928e-10
1.24812e-10
1.02209e-10
8.3907e-11
6.93057e-11
5.7564e-11
4.81932e-11
4.06749e-11
3.46887e-11
2.98964e-11
2.6084e-11
2.30707e-11
2.06593e-11
1.87819e-11
1.72978e-11
1.61718e-11
1.53098e-11
1.46674e-11
1.42172e-11
1.39134e-11
1.37597e-11
1.36956e-11
1.37558e-11
1.38973e-11
1.41151e-11
1.4407e-11
1.47797e-11
1.52071e-11
1.56872e-11
1.6245e-11
1.68427e-11
1.75081e-11
1.82136e-11
1.89606e-11
1.97556e-11
2.0568e-11
2.14367e-11
2.23498e-11
2.33499e-11
2.44459e-11
2.56481e-11
2.70163e-11
2.85007e-11
3.0114e-11
3.18081e-11
3.35495e-11
3.53193e-11
3.70072e-11
3.85572e-11
3.98372e-11
4.03634e-11
4.042e-11
4.16645e-11
4.4711e-11
4.99239e-11
5.81751e-11
6.592e-11
6.39481e-11
5.23587e-11
5.03963e-11
1.09308e-10
2.90019e-10
1.14277e-10
1.43784e-09
)
;
    }
    walls
    {
        type            calculated;
        value           nonuniform List<scalar> 0();
    }
    frontAndBack
    {
        type            empty;
    }
    procBoundary3to2
    {
        type            processor;
        value           nonuniform List<scalar> 
88
(
3.67207e-10
1.40525e-09
1.89782e-11
3.03998e-10
3.03998e-10
2.0934e-11
5.54971e-11
5.54971e-11
7.66134e-11
5.88513e-11
5.13072e-11
5.13072e-11
1.62081e-10
1.38157e-10
1.20009e-10
1.04428e-10
8.94387e-11
8.94387e-11
3.314e-10
2.8937e-10
2.50427e-10
2.15277e-10
1.83575e-10
1.83575e-10
6.48671e-10
5.8982e-10
5.34449e-10
4.82755e-10
4.34603e-10
3.89721e-10
3.47739e-10
3.47739e-10
1.33045e-09
1.25663e-09
1.18437e-09
1.1139e-09
1.04531e-09
9.78876e-10
9.1469e-10
8.52778e-10
7.93186e-10
7.35694e-10
6.80357e-10
6.27419e-10
6.27419e-10
5.15232e-09
7.55705e-09
6.0124e-09
4.99752e-09
4.81245e-09
4.68521e-09
4.54673e-09
4.39177e-09
4.23723e-09
4.09213e-09
3.95588e-09
3.8232e-09
3.6924e-09
3.56458e-09
3.43861e-09
3.31563e-09
3.19479e-09
3.07577e-09
2.95901e-09
2.84494e-09
2.73493e-09
2.63002e-09
2.53013e-09
2.43452e-09
2.3422e-09
2.25206e-09
2.16478e-09
2.08088e-09
2.00044e-09
1.92322e-09
1.84868e-09
1.77675e-09
1.70694e-09
1.63911e-09
1.57338e-09
1.50924e-09
1.44686e-09
1.38585e-09
1.32568e-09
1.26605e-09
1.20791e-09
1.15305e-09
1.15305e-09
)
;
    }
    procBoundary3to6
    {
        type            processor;
        value           uniform 7.17043e-11;
    }
    procBoundary3to7
    {
        type            processor;
        value           nonuniform List<scalar> 
16
(
2.3157e-10
5.55226e-09
5.53843e-09
4.23074e-09
3.84115e-09
3.88811e-09
3.8867e-09
3.53223e-09
3.53223e-09
2.16607e-09
1.73769e-09
1.62037e-09
1.69207e-09
1.92088e-09
2.04592e-09
1.56273e-09
)
;
    }
}


// ************************************************************************* //
