/*--------------------------------*- C++ -*----------------------------------*\
| =========                 |                                                 |
| \\      /  F ield         | OpenFOAM: The Open Source CFD Toolbox           |
|  \\    /   O peration     | Version:  2306                                  |
|   \\  /    A nd           | Website:  www.openfoam.com                      |
|    \\/     M anipulation  |                                                 |
\*---------------------------------------------------------------------------*/
FoamFile
{
    version     2.0;
    format      ascii;
    arch        "LSB;label=32;scalar=64";
    class       volScalarField;
    location    "175";
    object      turbulenceProperties:nuEff;
}
// * * * * * * * * * * * * * * * * * * * * * * * * * * * * * * * * * * * * * //

dimensions      [0 2 -1 0 0 0 0];

internalField   nonuniform List<scalar> 
1340
(
1.61464e-05
1.61192e-05
1.61222e-05
1.61231e-05
1.61482e-05
1.61194e-05
1.61291e-05
1.61305e-05
1.61227e-05
1.61249e-05
1.61502e-05
1.61196e-05
1.61092e-05
1.61138e-05
1.61218e-05
1.61304e-05
1.61311e-05
1.61233e-05
1.6127e-05
1.61523e-05
1.61197e-05
1.60999e-05
1.61034e-05
1.61055e-05
1.61067e-05
1.61079e-05
1.611e-05
1.61149e-05
1.61233e-05
1.61317e-05
1.61318e-05
1.61238e-05
1.61292e-05
1.61544e-05
1.61196e-05
1.60793e-05
1.60829e-05
1.60871e-05
1.60917e-05
1.60963e-05
1.61008e-05
1.61043e-05
1.61062e-05
1.61074e-05
1.61086e-05
1.61109e-05
1.61161e-05
1.61249e-05
1.61331e-05
1.61325e-05
1.61245e-05
1.61317e-05
1.61566e-05
1.61194e-05
1.60749e-05
1.60733e-05
1.60727e-05
1.60729e-05
1.60737e-05
1.6075e-05
1.6077e-05
1.60799e-05
1.60837e-05
1.6088e-05
1.60927e-05
1.60973e-05
1.61018e-05
1.61052e-05
1.6107e-05
1.61081e-05
1.61093e-05
1.61118e-05
1.61175e-05
1.61265e-05
1.61345e-05
1.61332e-05
1.61252e-05
1.61344e-05
1.61589e-05
1.61191e-05
1.60846e-05
1.60844e-05
1.60842e-05
1.60839e-05
1.60836e-05
1.60833e-05
1.60829e-05
1.60823e-05
1.60814e-05
1.60801e-05
1.60785e-05
1.60765e-05
1.60745e-05
1.60731e-05
1.60727e-05
1.60732e-05
1.6074e-05
1.60755e-05
1.60776e-05
1.60806e-05
1.60845e-05
1.60889e-05
1.60936e-05
1.60983e-05
1.61028e-05
1.61061e-05
1.61078e-05
1.61089e-05
1.61101e-05
1.61129e-05
1.6119e-05
1.61283e-05
1.6136e-05
1.61339e-05
1.61259e-05
1.61374e-05
1.61612e-05
1.61186e-05
1.70573e-05
1.83613e-05
1.67494e-05
1.60285e-05
1.60589e-05
1.61618e-05
1.61907e-05
1.61908e-05
1.61815e-05
1.6174e-05
1.61695e-05
1.6165e-05
1.61602e-05
1.61556e-05
1.61511e-05
1.61466e-05
1.61422e-05
1.61379e-05
1.61336e-05
1.61295e-05
1.61255e-05
1.61218e-05
1.61183e-05
1.61151e-05
1.6112e-05
1.6109e-05
1.61061e-05
1.61034e-05
1.61009e-05
1.60986e-05
1.60965e-05
1.60945e-05
1.60927e-05
1.60911e-05
1.60897e-05
1.60884e-05
1.60874e-05
1.60865e-05
1.60858e-05
1.60852e-05
1.60847e-05
1.60844e-05
1.60843e-05
1.60842e-05
1.6084e-05
1.60838e-05
1.60836e-05
1.60834e-05
1.60831e-05
1.60826e-05
1.6082e-05
1.60811e-05
1.60797e-05
1.6078e-05
1.6076e-05
1.60742e-05
1.6073e-05
1.60729e-05
1.60734e-05
1.60744e-05
1.60759e-05
1.60782e-05
1.60814e-05
1.60854e-05
1.60899e-05
1.60947e-05
1.60994e-05
1.61038e-05
1.61071e-05
1.61086e-05
1.61096e-05
1.6111e-05
1.6114e-05
1.61206e-05
1.61302e-05
1.61375e-05
1.61345e-05
1.61268e-05
1.61406e-05
1.61635e-05
1.61178e-05
1.7927e-05
1.65242e-05
1.60522e-05
1.60887e-05
1.61879e-05
1.6211e-05
1.62044e-05
1.61943e-05
1.61861e-05
1.61808e-05
1.61758e-05
1.61705e-05
1.61653e-05
1.61603e-05
1.61553e-05
1.61503e-05
1.61455e-05
1.61407e-05
1.61362e-05
1.61318e-05
1.61276e-05
1.61237e-05
1.61201e-05
1.61166e-05
1.61133e-05
1.61101e-05
1.6107e-05
1.61042e-05
1.61016e-05
1.60992e-05
1.6097e-05
1.60949e-05
1.6093e-05
1.60913e-05
1.60898e-05
1.60885e-05
1.60874e-05
1.60864e-05
1.60856e-05
1.60849e-05
1.60844e-05
1.6084e-05
1.60838e-05
1.60837e-05
1.60836e-05
1.60835e-05
1.60833e-05
1.60831e-05
1.60828e-05
1.60824e-05
1.60817e-05
1.60807e-05
1.60793e-05
1.60775e-05
1.60755e-05
1.60738e-05
1.6073e-05
1.60731e-05
1.60737e-05
1.60748e-05
1.60764e-05
1.60789e-05
1.60822e-05
1.60864e-05
1.6091e-05
1.60958e-05
1.61005e-05
1.61049e-05
1.6108e-05
1.61095e-05
1.61104e-05
1.61119e-05
1.61153e-05
1.61223e-05
1.61322e-05
1.6139e-05
1.61351e-05
1.61278e-05
1.61442e-05
1.61658e-05
1.61169e-05
1.63255e-05
1.60843e-05
1.61461e-05
1.62146e-05
1.62284e-05
1.62176e-05
1.6207e-05
1.61988e-05
1.61927e-05
1.61872e-05
1.61814e-05
1.61756e-05
1.61699e-05
1.61643e-05
1.61588e-05
1.61535e-05
1.61482e-05
1.61432e-05
1.61383e-05
1.61338e-05
1.61295e-05
1.61254e-05
1.61216e-05
1.61179e-05
1.61144e-05
1.6111e-05
1.61078e-05
1.61049e-05
1.61022e-05
1.60997e-05
1.60974e-05
1.60952e-05
1.60932e-05
1.60915e-05
1.60899e-05
1.60886e-05
1.60874e-05
1.60864e-05
1.60855e-05
1.60847e-05
1.6084e-05
1.60836e-05
1.60834e-05
1.60833e-05
1.60832e-05
1.60831e-05
1.6083e-05
1.60829e-05
1.60826e-05
1.60821e-05
1.60814e-05
1.60803e-05
1.60788e-05
1.6077e-05
1.6075e-05
1.60735e-05
1.6073e-05
1.60733e-05
1.60741e-05
1.60752e-05
1.6077e-05
1.60796e-05
1.60831e-05
1.60874e-05
1.60921e-05
1.6097e-05
1.61017e-05
1.61061e-05
1.61091e-05
1.61104e-05
1.61113e-05
1.61128e-05
1.61166e-05
1.61242e-05
1.61343e-05
1.61405e-05
1.61357e-05
1.61289e-05
1.6148e-05
1.61681e-05
1.61157e-05
1.61203e-05
1.62068e-05
1.6241e-05
1.62415e-05
1.62295e-05
1.62193e-05
1.62116e-05
1.62049e-05
1.61987e-05
1.61924e-05
1.6186e-05
1.61798e-05
1.61736e-05
1.61676e-05
1.61617e-05
1.6156e-05
1.61505e-05
1.61453e-05
1.61403e-05
1.61356e-05
1.61312e-05
1.61269e-05
1.61229e-05
1.6119e-05
1.61153e-05
1.61118e-05
1.61085e-05
1.61055e-05
1.61027e-05
1.61001e-05
1.60977e-05
1.60954e-05
1.60934e-05
1.60916e-05
1.609e-05
1.60886e-05
1.60874e-05
1.60863e-05
1.60853e-05
1.60844e-05
1.60837e-05
1.60832e-05
1.6083e-05
1.60828e-05
1.60828e-05
1.60828e-05
1.60827e-05
1.60826e-05
1.60823e-05
1.60818e-05
1.6081e-05
1.60799e-05
1.60783e-05
1.60764e-05
1.60746e-05
1.60734e-05
1.60732e-05
1.60736e-05
1.60744e-05
1.60757e-05
1.60777e-05
1.60804e-05
1.60841e-05
1.60885e-05
1.60933e-05
1.60982e-05
1.6103e-05
1.61073e-05
1.61101e-05
1.61113e-05
1.61122e-05
1.61139e-05
1.61182e-05
1.61263e-05
1.61366e-05
1.6142e-05
1.61363e-05
1.61301e-05
1.61522e-05
1.61703e-05
1.61142e-05
1.6249e-05
1.62638e-05
1.62531e-05
1.62413e-05
1.62318e-05
1.62245e-05
1.62175e-05
1.62105e-05
1.62036e-05
1.61968e-05
1.619e-05
1.61833e-05
1.61768e-05
1.61705e-05
1.61643e-05
1.61584e-05
1.61528e-05
1.61474e-05
1.61423e-05
1.61375e-05
1.61328e-05
1.61284e-05
1.61241e-05
1.612e-05
1.61162e-05
1.61126e-05
1.61093e-05
1.61062e-05
1.61033e-05
1.61006e-05
1.6098e-05
1.60957e-05
1.60937e-05
1.60918e-05
1.60902e-05
1.60887e-05
1.60874e-05
1.60862e-05
1.60852e-05
1.60842e-05
1.60835e-05
1.60829e-05
1.60826e-05
1.60824e-05
1.60824e-05
1.60824e-05
1.60824e-05
1.60823e-05
1.6082e-05
1.60815e-05
1.60806e-05
1.60794e-05
1.60777e-05
1.60758e-05
1.60742e-05
1.60733e-05
1.60734e-05
1.60739e-05
1.60749e-05
1.60763e-05
1.60784e-05
1.60814e-05
1.60852e-05
1.60897e-05
1.60946e-05
1.60995e-05
1.61043e-05
1.61086e-05
1.61112e-05
1.61122e-05
1.61131e-05
1.61151e-05
1.61198e-05
1.61285e-05
1.61389e-05
1.61435e-05
1.61368e-05
1.61315e-05
1.61567e-05
1.61724e-05
1.61123e-05
1.62793e-05
1.62661e-05
1.62558e-05
1.62468e-05
1.62389e-05
1.62313e-05
1.62235e-05
1.62157e-05
1.62082e-05
1.62007e-05
1.61935e-05
1.61865e-05
1.61796e-05
1.61731e-05
1.61667e-05
1.61607e-05
1.61549e-05
1.61494e-05
1.61441e-05
1.6139e-05
1.61341e-05
1.61294e-05
1.6125e-05
1.61208e-05
1.61169e-05
1.61132e-05
1.61098e-05
1.61066e-05
1.61036e-05
1.61008e-05
1.60983e-05
1.60959e-05
1.60938e-05
1.60919e-05
1.60903e-05
1.60888e-05
1.60874e-05
1.60861e-05
1.6085e-05
1.6084e-05
1.60832e-05
1.60826e-05
1.60822e-05
1.60819e-05
1.60819e-05
1.6082e-05
1.60821e-05
1.6082e-05
1.60816e-05
1.6081e-05
1.60801e-05
1.60787e-05
1.60769e-05
1.60751e-05
1.60738e-05
1.60734e-05
1.60737e-05
1.60744e-05
1.60755e-05
1.60771e-05
1.60794e-05
1.60826e-05
1.60866e-05
1.60913e-05
1.60963e-05
1.61012e-05
1.6106e-05
1.61101e-05
1.61125e-05
1.61134e-05
1.61143e-05
1.61166e-05
1.6122e-05
1.61313e-05
1.61416e-05
1.61451e-05
1.61373e-05
1.61334e-05
1.6162e-05
1.61744e-05
1.61102e-05
1.62808e-05
1.62725e-05
1.62635e-05
1.62547e-05
1.62465e-05
1.6238e-05
1.62294e-05
1.62211e-05
1.62131e-05
1.62052e-05
1.61976e-05
1.61902e-05
1.61831e-05
1.61763e-05
1.61697e-05
1.61633e-05
1.61573e-05
1.61514e-05
1.61458e-05
1.61404e-05
1.61353e-05
1.61305e-05
1.61259e-05
1.61216e-05
1.61176e-05
1.61138e-05
1.61103e-05
1.6107e-05
1.61039e-05
1.61011e-05
1.60985e-05
1.60961e-05
1.6094e-05
1.60921e-05
1.60904e-05
1.60887e-05
1.60873e-05
1.60859e-05
1.60847e-05
1.60837e-05
1.60828e-05
1.60822e-05
1.60817e-05
1.60814e-05
1.60814e-05
1.60816e-05
1.60817e-05
1.60815e-05
1.60811e-05
1.60804e-05
1.60793e-05
1.60777e-05
1.6076e-05
1.60745e-05
1.60737e-05
1.60737e-05
1.60742e-05
1.60751e-05
1.60763e-05
1.60781e-05
1.60806e-05
1.60841e-05
1.60884e-05
1.60933e-05
1.60983e-05
1.61033e-05
1.6108e-05
1.61119e-05
1.6114e-05
1.61147e-05
1.61158e-05
1.61185e-05
1.61247e-05
1.61348e-05
1.61448e-05
1.61468e-05
1.61379e-05
1.61362e-05
1.61682e-05
1.61763e-05
1.61074e-05
1.62839e-05
1.62763e-05
1.62671e-05
1.62587e-05
1.62504e-05
1.62417e-05
1.62332e-05
1.62249e-05
1.62168e-05
1.62088e-05
1.62011e-05
1.61935e-05
1.61862e-05
1.61791e-05
1.61723e-05
1.61657e-05
1.61593e-05
1.61532e-05
1.61473e-05
1.61418e-05
1.61365e-05
1.61315e-05
1.61269e-05
1.61224e-05
1.61183e-05
1.61144e-05
1.61108e-05
1.61074e-05
1.61042e-05
1.61014e-05
1.60988e-05
1.60964e-05
1.60942e-05
1.60922e-05
1.60904e-05
1.60887e-05
1.60872e-05
1.60858e-05
1.60845e-05
1.60834e-05
1.60825e-05
1.60817e-05
1.60811e-05
1.60809e-05
1.6081e-05
1.60811e-05
1.60812e-05
1.6081e-05
1.60805e-05
1.60796e-05
1.60783e-05
1.60767e-05
1.60751e-05
1.60741e-05
1.60738e-05
1.60741e-05
1.60748e-05
1.60758e-05
1.60772e-05
1.60793e-05
1.60821e-05
1.60859e-05
1.60904e-05
1.60954e-05
1.61005e-05
1.61055e-05
1.61101e-05
1.61137e-05
1.61155e-05
1.61161e-05
1.61174e-05
1.61207e-05
1.61278e-05
1.61385e-05
1.6148e-05
1.61483e-05
1.61385e-05
1.614e-05
1.61747e-05
1.61777e-05
1.61042e-05
1.62833e-05
1.62881e-05
1.62746e-05
1.62664e-05
1.62586e-05
1.62505e-05
1.62423e-05
1.62342e-05
1.62263e-05
1.62183e-05
1.62105e-05
1.62029e-05
1.61953e-05
1.6188e-05
1.61808e-05
1.61739e-05
1.61672e-05
1.61607e-05
1.61545e-05
1.61486e-05
1.61429e-05
1.61376e-05
1.61325e-05
1.61277e-05
1.61232e-05
1.61189e-05
1.6115e-05
1.61113e-05
1.61079e-05
1.61047e-05
1.61018e-05
1.60992e-05
1.60967e-05
1.60944e-05
1.60924e-05
1.60904e-05
1.60887e-05
1.60871e-05
1.60857e-05
1.60844e-05
1.60832e-05
1.60821e-05
1.60813e-05
1.60806e-05
1.60804e-05
1.60804e-05
1.60806e-05
1.60806e-05
1.60803e-05
1.60797e-05
1.60786e-05
1.60772e-05
1.60757e-05
1.60745e-05
1.6074e-05
1.60742e-05
1.60748e-05
1.60756e-05
1.60767e-05
1.60783e-05
1.60807e-05
1.60838e-05
1.60879e-05
1.60926e-05
1.60977e-05
1.61028e-05
1.61078e-05
1.61123e-05
1.61156e-05
1.6117e-05
1.61176e-05
1.61192e-05
1.61232e-05
1.61313e-05
1.61425e-05
1.61513e-05
1.61496e-05
1.61392e-05
1.61448e-05
1.61816e-05
1.61785e-05
1.61005e-05
1.62814e-05
1.62874e-05
1.62723e-05
1.62645e-05
1.62566e-05
1.62486e-05
1.62407e-05
1.6233e-05
1.62253e-05
1.62176e-05
1.621e-05
1.62026e-05
1.61952e-05
1.61881e-05
1.6181e-05
1.61742e-05
1.61676e-05
1.61612e-05
1.61551e-05
1.61492e-05
1.61436e-05
1.61383e-05
1.61332e-05
1.61284e-05
1.61238e-05
1.61196e-05
1.61156e-05
1.61119e-05
1.61084e-05
1.61053e-05
1.61023e-05
1.60996e-05
1.6097e-05
1.60947e-05
1.60925e-05
1.60905e-05
1.60887e-05
1.60871e-05
1.60856e-05
1.60842e-05
1.60829e-05
1.60817e-05
1.60808e-05
1.60801e-05
1.60798e-05
1.60799e-05
1.608e-05
1.60799e-05
1.60795e-05
1.60786e-05
1.60775e-05
1.60761e-05
1.60749e-05
1.60743e-05
1.60743e-05
1.60748e-05
1.60755e-05
1.60765e-05
1.60778e-05
1.60796e-05
1.60823e-05
1.60858e-05
1.60901e-05
1.6095e-05
1.61002e-05
1.61054e-05
1.61103e-05
1.61146e-05
1.61175e-05
1.61186e-05
1.61192e-05
1.61212e-05
1.61262e-05
1.61353e-05
1.61468e-05
1.61544e-05
1.61506e-05
1.61402e-05
1.61508e-05
1.61886e-05
1.61785e-05
1.60963e-05
1.62841e-05
1.62914e-05
1.62739e-05
1.62651e-05
1.62562e-05
1.62477e-05
1.62395e-05
1.62315e-05
1.62236e-05
1.6216e-05
1.62085e-05
1.62011e-05
1.6194e-05
1.6187e-05
1.61802e-05
1.61736e-05
1.61672e-05
1.6161e-05
1.6155e-05
1.61492e-05
1.61437e-05
1.61385e-05
1.61335e-05
1.61287e-05
1.61243e-05
1.61201e-05
1.61161e-05
1.61124e-05
1.6109e-05
1.61057e-05
1.61027e-05
1.60999e-05
1.60972e-05
1.60948e-05
1.60926e-05
1.60906e-05
1.60888e-05
1.60871e-05
1.60855e-05
1.6084e-05
1.60826e-05
1.60813e-05
1.60803e-05
1.60796e-05
1.60792e-05
1.60792e-05
1.60792e-05
1.6079e-05
1.60784e-05
1.60775e-05
1.60764e-05
1.60753e-05
1.60747e-05
1.60746e-05
1.60749e-05
1.60756e-05
1.60765e-05
1.60776e-05
1.6079e-05
1.60812e-05
1.60841e-05
1.6088e-05
1.60926e-05
1.60976e-05
1.61029e-05
1.61081e-05
1.61129e-05
1.61169e-05
1.61194e-05
1.61202e-05
1.6121e-05
1.61236e-05
1.61296e-05
1.61397e-05
1.61513e-05
1.61574e-05
1.61514e-05
1.61416e-05
1.6158e-05
1.61957e-05
1.61776e-05
1.60913e-05
1.62928e-05
1.63007e-05
1.62809e-05
1.62705e-05
1.62604e-05
1.62507e-05
1.62414e-05
1.62326e-05
1.62241e-05
1.62159e-05
1.6208e-05
1.62005e-05
1.61932e-05
1.61862e-05
1.61794e-05
1.61728e-05
1.61665e-05
1.61604e-05
1.61546e-05
1.6149e-05
1.61436e-05
1.61385e-05
1.61336e-05
1.61289e-05
1.61246e-05
1.61204e-05
1.61165e-05
1.61128e-05
1.61093e-05
1.6106e-05
1.61029e-05
1.61001e-05
1.60974e-05
1.6095e-05
1.60928e-05
1.60907e-05
1.60888e-05
1.6087e-05
1.60853e-05
1.60837e-05
1.60822e-05
1.60808e-05
1.60798e-05
1.6079e-05
1.60786e-05
1.60784e-05
1.60783e-05
1.6078e-05
1.60773e-05
1.60764e-05
1.60755e-05
1.6075e-05
1.60749e-05
1.60752e-05
1.60758e-05
1.60766e-05
1.60775e-05
1.60788e-05
1.60805e-05
1.6083e-05
1.60863e-05
1.60905e-05
1.60953e-05
1.61005e-05
1.61058e-05
1.61109e-05
1.61156e-05
1.61192e-05
1.61213e-05
1.61219e-05
1.61229e-05
1.61263e-05
1.61335e-05
1.61446e-05
1.6156e-05
1.61601e-05
1.61519e-05
1.61435e-05
1.61663e-05
1.62026e-05
1.61755e-05
1.60868e-05
1.63046e-05
1.63129e-05
1.62919e-05
1.62804e-05
1.6269e-05
1.62581e-05
1.62476e-05
1.62377e-05
1.62281e-05
1.62191e-05
1.62105e-05
1.62023e-05
1.61945e-05
1.61871e-05
1.618e-05
1.61733e-05
1.61668e-05
1.61607e-05
1.61548e-05
1.61492e-05
1.61438e-05
1.61387e-05
1.61339e-05
1.61292e-05
1.61248e-05
1.61207e-05
1.61167e-05
1.6113e-05
1.61095e-05
1.61062e-05
1.61031e-05
1.61003e-05
1.60976e-05
1.60952e-05
1.60929e-05
1.60908e-05
1.60887e-05
1.60868e-05
1.6085e-05
1.60832e-05
1.60817e-05
1.60803e-05
1.60792e-05
1.60784e-05
1.60779e-05
1.60776e-05
1.60774e-05
1.60769e-05
1.60763e-05
1.60757e-05
1.60753e-05
1.60752e-05
1.60755e-05
1.60761e-05
1.60769e-05
1.60777e-05
1.60788e-05
1.60803e-05
1.60823e-05
1.60852e-05
1.60889e-05
1.60933e-05
1.60984e-05
1.61037e-05
1.6109e-05
1.6114e-05
1.61185e-05
1.61217e-05
1.61232e-05
1.61238e-05
1.61254e-05
1.61298e-05
1.61382e-05
1.61501e-05
1.61608e-05
1.61624e-05
1.61523e-05
1.61464e-05
1.61764e-05
1.62092e-05
1.61726e-05
1.60841e-05
1.63145e-05
1.6322e-05
1.63033e-05
1.62921e-05
1.62808e-05
1.62696e-05
1.62585e-05
1.62476e-05
1.62372e-05
1.62271e-05
1.62174e-05
1.62083e-05
1.61995e-05
1.61913e-05
1.61834e-05
1.6176e-05
1.6169e-05
1.61624e-05
1.61561e-05
1.61502e-05
1.61446e-05
1.61393e-05
1.61343e-05
1.61295e-05
1.61251e-05
1.61208e-05
1.61169e-05
1.61131e-05
1.61096e-05
1.61064e-05
1.61033e-05
1.61005e-05
1.60978e-05
1.60953e-05
1.60929e-05
1.60907e-05
1.60885e-05
1.60865e-05
1.60846e-05
1.60828e-05
1.60812e-05
1.60798e-05
1.60786e-05
1.60778e-05
1.60772e-05
1.60768e-05
1.60764e-05
1.6076e-05
1.60757e-05
1.60754e-05
1.60755e-05
1.60758e-05
1.60764e-05
1.60771e-05
1.60779e-05
1.60788e-05
1.608e-05
1.60817e-05
1.6084e-05
1.60872e-05
1.60912e-05
1.6096e-05
1.61011e-05
1.61065e-05
1.61118e-05
1.61168e-05
1.6121e-05
1.61237e-05
1.61249e-05
1.61254e-05
1.61274e-05
1.61328e-05
1.61425e-05
1.61551e-05
1.6165e-05
1.61643e-05
1.61521e-05
1.61489e-05
1.61857e-05
1.62149e-05
1.61682e-05
1.60811e-05
1.63043e-05
1.63099e-05
1.6297e-05
1.62893e-05
1.6281e-05
1.62724e-05
1.62635e-05
1.62544e-05
1.62452e-05
1.6236e-05
1.62269e-05
1.62179e-05
1.62091e-05
1.62005e-05
1.61923e-05
1.61844e-05
1.61768e-05
1.61695e-05
1.61626e-05
1.61561e-05
1.61499e-05
1.6144e-05
1.61385e-05
1.61333e-05
1.61284e-05
1.61238e-05
1.61195e-05
1.61155e-05
1.61116e-05
1.61081e-05
1.61047e-05
1.61015e-05
1.60985e-05
1.60957e-05
1.60931e-05
1.60906e-05
1.60882e-05
1.6086e-05
1.6084e-05
1.60821e-05
1.60805e-05
1.60792e-05
1.60781e-05
1.60773e-05
1.60768e-05
1.60766e-05
1.60764e-05
1.60763e-05
1.60764e-05
1.60767e-05
1.60771e-05
1.60777e-05
1.60785e-05
1.60793e-05
1.60802e-05
1.60814e-05
1.6083e-05
1.60852e-05
1.60882e-05
1.6092e-05
1.60965e-05
1.61016e-05
1.61069e-05
1.61123e-05
1.61175e-05
1.6122e-05
1.61255e-05
1.61273e-05
1.61282e-05
1.61294e-05
1.61333e-05
1.6141e-05
1.61526e-05
1.6165e-05
1.61715e-05
1.61656e-05
1.61531e-05
1.6161e-05
1.62049e-05
1.62211e-05
1.61627e-05
1.60836e-05
)
;

boundaryField
{
    inlet
    {
        type            calculated;
        value           uniform 2e-05;
    }
    outlet
    {
        type            calculated;
        value           nonuniform List<scalar> 
82
(
1.63043e-05
1.6297e-05
1.63099e-05
1.62893e-05
1.6281e-05
1.62724e-05
1.62635e-05
1.62544e-05
1.62452e-05
1.6236e-05
1.62269e-05
1.62179e-05
1.62091e-05
1.62005e-05
1.61923e-05
1.61844e-05
1.61768e-05
1.61695e-05
1.61626e-05
1.61561e-05
1.61499e-05
1.6144e-05
1.61385e-05
1.61333e-05
1.61284e-05
1.61238e-05
1.61195e-05
1.61155e-05
1.61116e-05
1.61081e-05
1.61047e-05
1.61015e-05
1.60985e-05
1.60957e-05
1.60931e-05
1.60906e-05
1.60882e-05
1.6086e-05
1.6084e-05
1.60821e-05
1.60805e-05
1.60792e-05
1.60781e-05
1.60773e-05
1.60768e-05
1.60766e-05
1.60764e-05
1.60763e-05
1.60764e-05
1.60767e-05
1.60771e-05
1.60777e-05
1.60785e-05
1.60793e-05
1.60802e-05
1.60814e-05
1.6083e-05
1.60852e-05
1.60882e-05
1.6092e-05
1.60965e-05
1.61016e-05
1.61069e-05
1.61123e-05
1.61175e-05
1.6122e-05
1.61255e-05
1.61273e-05
1.61282e-05
1.61294e-05
1.61333e-05
1.6141e-05
1.61526e-05
1.6165e-05
1.61715e-05
1.61656e-05
1.61531e-05
1.6161e-05
1.62049e-05
1.62211e-05
1.61627e-05
1.60836e-05
)
;
    }
    walls
    {
        type            calculated;
        value           nonuniform List<scalar> 0();
    }
    frontAndBack
    {
        type            empty;
    }
    procBoundary3to2
    {
        type            processor;
        value           nonuniform List<scalar> 
88
(
1.61446e-05
1.61189e-05
1.61217e-05
1.61214e-05
1.61214e-05
1.61279e-05
1.61298e-05
1.61298e-05
1.61085e-05
1.61127e-05
1.61204e-05
1.61204e-05
1.6099e-05
1.61026e-05
1.61047e-05
1.61061e-05
1.61072e-05
1.61072e-05
1.60787e-05
1.60822e-05
1.60863e-05
1.60908e-05
1.60954e-05
1.60954e-05
1.60753e-05
1.60735e-05
1.60726e-05
1.60727e-05
1.60734e-05
1.60746e-05
1.60765e-05
1.60765e-05
1.60851e-05
1.60849e-05
1.60846e-05
1.60843e-05
1.6084e-05
1.60836e-05
1.60832e-05
1.60825e-05
1.60817e-05
1.60805e-05
1.60789e-05
1.6077e-05
1.6077e-05
1.54068e-05
1.85401e-05
1.6894e-05
1.60809e-05
1.60604e-05
1.61337e-05
1.61707e-05
1.61771e-05
1.61685e-05
1.61621e-05
1.61582e-05
1.61541e-05
1.61499e-05
1.61458e-05
1.61419e-05
1.61379e-05
1.61341e-05
1.61303e-05
1.61265e-05
1.61229e-05
1.61194e-05
1.61161e-05
1.6113e-05
1.61102e-05
1.61074e-05
1.61048e-05
1.61023e-05
1.61e-05
1.60978e-05
1.60958e-05
1.6094e-05
1.60923e-05
1.60908e-05
1.60895e-05
1.60884e-05
1.60874e-05
1.60866e-05
1.6086e-05
1.60855e-05
1.60852e-05
1.6085e-05
1.60849e-05
1.60849e-05
)
;
    }
    procBoundary3to6
    {
        type            processor;
        value           uniform 1.0118e-05;
    }
    procBoundary3to7
    {
        type            processor;
        value           nonuniform List<scalar> 
16
(
1.04257e-05
1.71673e-05
1.74077e-05
1.62601e-05
1.61781e-05
1.62787e-05
1.62951e-05
1.62919e-05
1.62919e-05
1.62983e-05
1.62939e-05
1.62989e-05
1.63102e-05
1.63228e-05
1.63301e-05
1.63152e-05
)
;
    }
}


// ************************************************************************* //
