/*--------------------------------*- C++ -*----------------------------------*\
| =========                 |                                                 |
| \\      /  F ield         | OpenFOAM: The Open Source CFD Toolbox           |
|  \\    /   O peration     | Version:  2306                                  |
|   \\  /    A nd           | Website:  www.openfoam.com                      |
|    \\/     M anipulation  |                                                 |
\*---------------------------------------------------------------------------*/
FoamFile
{
    version     2.0;
    format      ascii;
    arch        "LSB;label=32;scalar=64";
    class       volSymmTensorField;
    location    "175";
    object      turbulenceProperties:devReff;
}
// * * * * * * * * * * * * * * * * * * * * * * * * * * * * * * * * * * * * * //

dimensions      [0 2 -2 0 0 0 0];

internalField   nonuniform List<symmTensor> 
1340
(
(5.21566e-08 7.65456e-08 -1.09006e-19 -1.21455e-07 -1.413e-20 6.92981e-08)
(-2.0902e-07 9.24136e-08 5.51055e-20 3.03661e-07 6.41577e-21 -9.46408e-08)
(-3.55864e-09 -5.36723e-09 -2.14074e-19 -1.87288e-08 -2.68306e-20 2.22875e-08)
(-1.04539e-07 2.49771e-08 -3.34971e-20 1.47067e-07 -3.80271e-21 -4.25282e-08)
(4.61273e-08 8.00881e-08 1.61238e-20 -1.1619e-07 1.74965e-21 7.00628e-08)
(-2.0761e-07 9.14985e-08 -2.21448e-19 3.03913e-07 -2.51676e-20 -9.63031e-08)
(-4.0645e-08 -5.02613e-09 -0 3.58052e-08 -1.29617e-22 4.83975e-09)
(-5.29831e-08 -1.51391e-08 -7.23877e-20 6.37705e-08 -8.57226e-21 -1.07874e-08)
(-6.99813e-09 -4.36535e-09 2.0348e-19 -1.5338e-08 2.55707e-20 2.23361e-08)
(-1.04852e-07 2.36183e-08 1.02499e-19 1.47809e-07 1.21517e-20 -4.29568e-08)
(3.99601e-08 8.31551e-08 3.3806e-23 -1.11233e-07 1.99106e-22 7.12725e-08)
(-2.0498e-07 9.00535e-08 1.82467e-19 3.03685e-07 2.05858e-20 -9.87053e-08)
(-6.95071e-08 1.64858e-08 -9.23957e-20 6.97256e-08 -1.11244e-20 -2.18485e-10)
(-6.23147e-08 1.17799e-08 1.92081e-21 6.15867e-08 4.67951e-22 7.27959e-10)
(-5.81425e-08 2.75513e-09 1.2617e-20 6.00975e-08 1.50884e-21 -1.95496e-09)
(-4.21532e-08 -7.90843e-09 -0 3.73804e-08 -2.60662e-23 4.77272e-09)
(-5.3751e-08 -1.82289e-08 -3.25134e-22 6.44515e-08 -5.70912e-23 -1.07005e-08)
(-1.04368e-08 -3.48336e-09 1.4347e-21 -1.18871e-08 2.47146e-22 2.23239e-08)
(-1.05124e-07 2.27458e-08 8.42461e-22 1.48493e-07 1.55901e-22 -4.33692e-08)
(3.42946e-08 8.58816e-08 7.32844e-24 -1.06819e-07 6.36046e-24 7.2524e-08)
(-2.02471e-07 8.75944e-08 9.67939e-22 3.03559e-07 1.78209e-22 -1.01088e-07)
(-9.99608e-08 2.17379e-08 6.55899e-21 9.99866e-08 1.02841e-21 -2.58007e-11)
(-9.28126e-08 1.92708e-08 2.78242e-20 9.28347e-08 3.37495e-21 -2.20554e-11)
(-8.69522e-08 1.74913e-08 2.82722e-20 8.68936e-08 2.87616e-21 5.85766e-11)
(-8.13416e-08 1.6366e-08 -9.83745e-20 8.13545e-08 -1.18124e-20 -1.29028e-11)
(-7.56336e-08 1.49604e-08 2.56767e-20 7.55532e-08 3.32788e-21 8.04325e-11)
(-7.02739e-08 1.25486e-08 -3.91716e-20 7.04789e-08 -4.83752e-21 -2.04933e-10)
(-6.327e-08 8.04074e-09 2.49432e-22 6.25631e-08 3.55415e-22 7.06966e-10)
(-5.8972e-08 -1.06415e-09 9.31876e-20 6.08628e-08 1.13561e-20 -1.89075e-09)
(-4.35668e-08 -1.09152e-08 -0 3.89041e-08 -1.86131e-22 4.66279e-09)
(-5.44357e-08 -2.11473e-08 5.39423e-21 6.49819e-08 3.76981e-22 -1.05462e-08)
(-1.38279e-08 -2.67338e-09 -1.8598e-19 -8.4088e-09 -2.33106e-20 2.22367e-08)
(-1.05499e-07 2.22214e-08 -9.35573e-20 1.49164e-07 -1.1107e-20 -4.36646e-08)
(2.93375e-08 8.83905e-08 -6.09943e-21 -1.02985e-07 -6.06711e-22 7.36476e-08)
(-2.00461e-07 8.40676e-08 2.40757e-20 3.03719e-07 2.74633e-21 -1.03257e-07)
(-1.42579e-07 1.85031e-08 5.43854e-20 1.42558e-07 5.68757e-21 2.01046e-11)
(-1.33373e-07 1.91174e-08 -5.02279e-20 1.33359e-07 -6.13874e-21 1.36644e-11)
(-1.24318e-07 1.88863e-08 -1.30835e-20 1.24298e-07 -1.63503e-21 2.02388e-11)
(-1.15567e-07 1.81163e-08 -8.12388e-20 1.1558e-07 -9.4874e-21 -1.23319e-11)
(-1.07087e-07 1.7084e-08 -1.87838e-20 1.07032e-07 -1.83151e-21 5.41607e-11)
(-9.91074e-08 1.57853e-08 1.31711e-20 9.91321e-08 1.64452e-21 -2.47022e-11)
(-9.23411e-08 1.37835e-08 6.71982e-21 9.23607e-08 7.42912e-22 -1.96577e-11)
(-8.67954e-08 1.24704e-08 1.35909e-22 8.67395e-08 6.67628e-23 5.59111e-11)
(-8.14704e-08 1.17612e-08 1.64651e-20 8.14842e-08 1.79524e-21 -1.37643e-11)
(-7.60092e-08 1.07126e-08 -4.5068e-20 7.59371e-08 -5.20152e-21 7.21476e-11)
(-7.08136e-08 8.57557e-09 8.55877e-20 7.10152e-08 1.03218e-20 -2.01578e-10)
(-6.4034e-08 4.24347e-09 -5.55174e-20 6.33708e-08 -7.19517e-21 6.63114e-10)
(-5.96383e-08 -4.90838e-09 -8.7987e-20 6.14495e-08 -1.05382e-20 -1.81112e-09)
(-4.48994e-08 -1.40193e-08 -0 4.03763e-08 1.89546e-22 4.52311e-09)
(-5.50424e-08 -2.38959e-08 -5.13372e-21 6.53608e-08 -3.42252e-22 -1.03184e-08)
(-1.71229e-08 -1.90539e-09 1.76545e-19 -4.9323e-09 2.20685e-20 2.20552e-08)
(-1.0592e-07 2.19886e-08 8.84128e-20 1.4977e-07 1.04429e-20 -4.38504e-08)
(2.49458e-08 9.06774e-08 5.80326e-21 -9.96135e-08 5.79318e-22 7.46677e-08)
(-1.98766e-07 7.95657e-08 -2.26584e-20 3.04086e-07 -2.5661e-21 -1.05321e-07)
(-1.95771e-07 -1.88308e-08 -5.88083e-21 1.95749e-07 -9.82743e-22 2.21051e-11)
(-1.8762e-07 -1.3234e-08 -3.18076e-20 1.87606e-07 -3.86288e-21 1.43901e-11)
(-1.79389e-07 -8.04432e-09 -5.67643e-20 1.79375e-07 -5.91549e-21 1.4015e-11)
(-1.71137e-07 -3.17376e-09 2.00872e-20 1.71125e-07 2.58897e-21 1.25234e-11)
(-1.62872e-07 1.30922e-09 -5.18355e-21 1.62857e-07 -5.56651e-22 1.48853e-11)
(-1.54587e-07 5.21978e-09 2.59443e-20 1.5457e-07 3.36944e-21 1.649e-11)
(-1.46276e-07 8.32007e-09 6.70087e-20 1.46264e-07 7.47643e-21 1.21233e-11)
(-1.37946e-07 1.03277e-08 3.63045e-22 1.37931e-07 -1.07961e-22 1.48828e-11)
(-1.29568e-07 1.1325e-08 3.95906e-20 1.29557e-07 4.52849e-21 1.04558e-11)
(-1.21274e-07 1.15806e-08 -3.63177e-21 1.21259e-07 -5.79955e-22 1.53373e-11)
(-1.13221e-07 1.13118e-08 3.48272e-21 1.13236e-07 5.52155e-22 -1.58246e-11)
(-1.05333e-07 1.07724e-08 3.57367e-20 1.05283e-07 4.1048e-21 4.99142e-11)
(-9.78444e-08 9.94858e-09 -1.23942e-20 9.78868e-08 -1.61589e-21 -4.2382e-11)
(-9.14973e-08 8.42098e-09 -6.23251e-21 9.15336e-08 -6.83501e-22 -3.62424e-11)
(-8.63079e-08 7.55154e-09 2.03095e-22 8.62723e-08 6.96372e-23 3.56199e-11)
(-8.13031e-08 7.23812e-09 -1.21327e-22 8.13361e-08 -1.00883e-23 -3.29919e-11)
(-7.61483e-08 6.52804e-09 -3.55063e-22 7.60967e-08 -2.09121e-22 5.16616e-11)
(-7.11851e-08 4.61726e-09 -4.66677e-20 7.13688e-08 -5.45881e-21 -1.83717e-10)
(-6.46444e-08 3.90692e-10 5.28014e-20 6.40258e-08 6.51595e-21 6.18671e-10)
(-6.01482e-08 -8.78071e-09 -3.46119e-22 6.18573e-08 -1.97419e-22 -1.70901e-09)
(-4.61051e-08 -1.72051e-08 -0 4.17661e-08 1.16793e-23 4.33901e-09)
(-5.55489e-08 -2.64564e-08 4.87414e-21 6.55806e-08 3.04265e-22 -1.00317e-08)
(-2.03221e-08 -1.16104e-09 -1.79955e-19 -1.45068e-09 -2.22961e-20 2.17728e-08)
(-1.06366e-07 2.20231e-08 2.91313e-22 1.50304e-07 3.05556e-22 -4.3938e-08)
(2.10157e-08 9.27187e-08 -1.65067e-20 -9.66213e-08 -2.13362e-21 7.56056e-08)
(-1.97247e-07 7.41239e-08 -1.21763e-22 3.04533e-07 -8.81819e-24 -1.07286e-07)
(-2.35804e-07 -1.34382e-07 5.64279e-21 2.35758e-07 7.10948e-23 4.54202e-11)
(-2.33536e-07 -1.23926e-07 -3.55441e-20 2.33503e-07 -3.73182e-21 3.26946e-11)
(-2.30854e-07 -1.1369e-07 -7.10422e-22 2.30806e-07 7.69139e-22 4.80029e-11)
(-2.27798e-07 -1.03505e-07 3.22735e-20 2.27743e-07 2.93855e-21 5.48395e-11)
(-2.2437e-07 -9.34176e-08 -3.44541e-20 2.24316e-07 -3.90802e-21 5.3845e-11)
(-2.20541e-07 -8.35395e-08 6.28239e-21 2.2049e-07 1.09235e-21 5.16854e-11)
(-2.16307e-07 -7.39723e-08 2.43539e-21 2.16259e-07 1.26471e-22 4.76511e-11)
(-2.11666e-07 -6.47994e-08 -5.84016e-21 2.11623e-07 -2.38134e-22 4.27138e-11)
(-2.06627e-07 -5.61026e-08 4.0822e-20 2.06591e-07 4.9692e-21 3.53715e-11)
(-2.01169e-07 -4.80092e-08 5.73841e-20 2.01134e-07 5.81465e-21 3.49172e-11)
(-1.95297e-07 -4.05524e-08 4.26879e-21 1.95265e-07 7.33898e-23 3.20259e-11)
(-1.89091e-07 -3.37448e-08 1.50871e-20 1.89075e-07 1.46754e-21 1.67083e-11)
(-1.8262e-07 -2.77537e-08 -1.62698e-20 1.82604e-07 -1.90061e-21 1.65573e-11)
(-1.75833e-07 -2.22379e-08 -1.76633e-22 1.75823e-07 7.39629e-22 9.46655e-12)
(-1.68909e-07 -1.68754e-08 8.55984e-20 1.68899e-07 9.44995e-21 9.81562e-12)
(-1.61894e-07 -1.17904e-08 1.15024e-22 1.61888e-07 -9.09422e-22 5.13526e-12)
(-1.54793e-07 -7.07263e-09 -4.87227e-20 1.54789e-07 -5.5325e-21 4.26647e-12)
(-1.47592e-07 -2.93939e-09 -9.9582e-21 1.47585e-07 -1.08329e-21 7.32711e-12)
(-1.40236e-07 3.75049e-10 -4.57959e-20 1.40233e-07 -5.18878e-21 2.31493e-12)
(-1.32743e-07 2.70175e-09 -1.07677e-20 1.32761e-07 -9.75905e-22 -1.77774e-11)
(-1.25235e-07 4.06853e-09 3.59957e-22 1.25249e-07 -1.35739e-22 -1.46899e-11)
(-1.17742e-07 4.7101e-09 -5.64451e-20 1.17752e-07 -6.5188e-21 -1.02674e-11)
(-1.10418e-07 4.8744e-09 -3.71683e-21 1.10458e-07 -2.36371e-22 -3.9749e-11)
(-1.03194e-07 4.7718e-09 -1.37317e-20 1.03157e-07 -1.59253e-21 3.68765e-11)
(-9.63025e-08 4.33724e-09 -1.00979e-22 9.63394e-08 6.06309e-23 -3.69542e-11)
(-9.04038e-08 3.21971e-09 5.93436e-21 9.04304e-08 4.83716e-22 -2.66146e-11)
(-8.55879e-08 2.75807e-09 -4.81302e-20 8.55471e-08 -5.55981e-21 4.08145e-11)
(-8.09215e-08 2.80326e-09 4.37529e-20 8.09509e-08 5.54653e-21 -2.93795e-11)
(-7.60855e-08 2.39713e-09 4.02401e-20 7.60425e-08 4.89637e-21 4.29154e-11)
(-7.13474e-08 6.80345e-10 7.32105e-20 7.15152e-08 8.43992e-21 -1.67848e-10)
(-6.50645e-08 -3.49617e-09 -8.51504e-20 6.45043e-08 -1.04933e-20 5.60292e-10)
(-6.04776e-08 -1.26628e-08 -1.43024e-22 6.20739e-08 1.8767e-22 -1.59634e-09)
(-4.71741e-08 -2.0451e-08 -0 4.30616e-08 -7.01333e-24 4.11251e-09)
(-5.59563e-08 -2.88088e-08 -4.5987e-21 6.56403e-08 -4.73261e-22 -9.68401e-09)
(-2.34243e-08 -4.16293e-10 4.59735e-20 2.03529e-09 5.68197e-21 2.13891e-08)
(-1.06845e-07 2.22899e-08 1.97276e-20 1.50754e-07 2.32222e-21 -4.39089e-08)
(1.75079e-08 9.45199e-08 -1.93445e-20 -9.39178e-08 -2.53242e-21 7.64099e-08)
(-1.96019e-07 6.77242e-08 4.89117e-24 3.05124e-07 1.69341e-23 -1.09105e-07)
(-2.12947e-07 -5.9781e-07 4.21377e-21 2.51807e-07 5.47686e-22 -3.88601e-08)
(-1.8434e-07 -6.746e-07 4.37301e-21 1.82738e-07 2.84063e-22 1.60171e-09)
(-1.55388e-07 -5.84084e-07 -2.20798e-22 1.42206e-07 -9.83523e-23 1.31815e-08)
(-1.63829e-07 -5.4314e-07 8.94133e-22 1.67167e-07 1.20232e-22 -3.33771e-09)
(-1.58891e-07 -5.28276e-07 1.13637e-21 1.57771e-07 9.88668e-23 1.11968e-09)
(-1.60997e-07 -5.17248e-07 5.06401e-22 1.61564e-07 2.15117e-23 -5.66568e-10)
(-1.60248e-07 -5.04388e-07 2.66102e-22 1.60202e-07 -8.26881e-23 4.60769e-11)
(-1.60248e-07 -4.91447e-07 -3.98722e-21 1.60451e-07 -4.18517e-22 -2.03635e-10)
(-1.59939e-07 -4.78973e-07 -1.56977e-21 1.60003e-07 3.16288e-23 -6.39117e-11)
(-1.60035e-07 -4.67091e-07 3.54863e-21 1.60164e-07 3.74509e-22 -1.29276e-10)
(-1.60254e-07 -4.55781e-07 -0 1.60355e-07 -9.46014e-23 -1.01024e-10)
(-1.60739e-07 -4.44717e-07 -1.8868e-22 1.60878e-07 1.55154e-22 -1.3911e-10)
(-1.61346e-07 -4.33852e-07 7.16987e-21 1.61446e-07 7.01792e-22 -1.00199e-10)
(-1.62151e-07 -4.23099e-07 2.15171e-22 1.62214e-07 3.09112e-23 -6.29149e-11)
(-1.63234e-07 -4.12468e-07 7.35275e-21 1.6335e-07 7.14999e-22 -1.15233e-10)
(-1.64398e-07 -4.01953e-07 4.46575e-22 1.64467e-07 -8.30348e-23 -6.94734e-11)
(-1.65761e-07 -3.9146e-07 1.43788e-21 1.65811e-07 2.3553e-22 -5.00878e-11)
(-1.6728e-07 -3.80991e-07 5.29667e-21 1.67297e-07 5.26889e-22 -1.73126e-11)
(-1.68964e-07 -3.70505e-07 2.55895e-21 1.68959e-07 2.8335e-22 5.40517e-12)
(-1.70777e-07 -3.60067e-07 6.86461e-21 1.70742e-07 4.77227e-22 3.50993e-11)
(-1.72695e-07 -3.49746e-07 -6.07474e-21 1.7263e-07 -9.07158e-22 6.51511e-11)
(-1.7467e-07 -3.39646e-07 -8.72803e-21 1.74557e-07 -6.54629e-22 1.12593e-10)
(-1.76732e-07 -3.29752e-07 2.9188e-21 1.76603e-07 4.13166e-22 1.28548e-10)
(-1.78841e-07 -3.2003e-07 -2.08709e-21 1.78693e-07 -3.81883e-22 1.47807e-10)
(-1.81012e-07 -3.10355e-07 -5.9522e-21 1.80853e-07 -6.48203e-22 1.58684e-10)
(-1.83235e-07 -3.00655e-07 -5.07592e-21 1.83067e-07 -1.86212e-22 1.67848e-10)
(-1.8551e-07 -2.90923e-07 1.01043e-20 1.85356e-07 1.01715e-21 1.54258e-10)
(-1.87786e-07 -2.81251e-07 -3.4124e-21 1.87647e-07 -4.92726e-22 1.38515e-10)
(-1.90031e-07 -2.71663e-07 1.27592e-21 1.89909e-07 1.05155e-22 1.2202e-10)
(-1.92234e-07 -2.62182e-07 -4.42114e-21 1.92139e-07 -3.29403e-22 9.48967e-11)
(-1.94368e-07 -2.5277e-07 6.99002e-21 1.94297e-07 8.377e-22 7.03362e-11)
(-1.96418e-07 -2.434e-07 4.27297e-21 1.96371e-07 3.84064e-22 4.67814e-11)
(-1.98362e-07 -2.34064e-07 5.01578e-21 1.98336e-07 6.31626e-22 2.57745e-11)
(-2.00181e-07 -2.24743e-07 1.23176e-20 2.00174e-07 9.91563e-22 7.12531e-12)
(-2.01848e-07 -2.15465e-07 -9.3952e-21 2.01853e-07 -1.22026e-21 -5.70119e-12)
(-2.03339e-07 -2.06221e-07 -5.19661e-21 2.03359e-07 -3.73288e-22 -2.04387e-11)
(-2.04611e-07 -1.9704e-07 4.39173e-22 2.04635e-07 3.4879e-23 -2.38932e-11)
(-2.05662e-07 -1.87909e-07 -6.02878e-21 2.05697e-07 -6.45531e-22 -3.5067e-11)
(-2.0646e-07 -1.78783e-07 -2.3992e-21 2.0649e-07 -3.03263e-22 -3.00022e-11)
(-2.07017e-07 -1.69623e-07 -9.558e-21 2.07047e-07 -8.81499e-22 -2.99154e-11)
(-2.073e-07 -1.60458e-07 3.30998e-21 2.07317e-07 5.37738e-22 -1.65279e-11)
(-2.07248e-07 -1.50948e-07 4.21321e-21 2.07253e-07 2.43005e-22 -5.12454e-12)
(-2.06966e-07 -1.41311e-07 -1.07261e-20 2.06993e-07 -1.04902e-21 -2.71151e-11)
(-2.06426e-07 -1.32547e-07 8.49362e-21 2.06433e-07 1.0314e-21 -7.19851e-12)
(-2.05384e-07 -1.23873e-07 -2.73668e-22 2.05387e-07 -1.67551e-22 -2.3795e-12)
(-2.04014e-07 -1.14647e-07 3.75084e-26 2.04002e-07 -4.17337e-23 1.26026e-11)
(-2.02308e-07 -1.05438e-07 1.68401e-22 2.02287e-07 1.50169e-22 2.08602e-11)
(-2.0025e-07 -9.62659e-08 8.5738e-21 2.00226e-07 5.7693e-22 2.42702e-11)
(-1.97808e-07 -8.72377e-08 -2.96266e-20 1.9778e-07 -3.223e-21 2.82534e-11)
(-1.94969e-07 -7.84495e-08 1.1928e-23 1.94939e-07 2.9743e-22 3.00128e-11)
(-1.91733e-07 -6.99681e-08 7.05139e-23 1.91707e-07 -1.06827e-22 2.6422e-11)
(-1.88088e-07 -6.18895e-08 -1.1334e-20 1.88066e-07 -1.20477e-21 2.23419e-11)
(-1.84023e-07 -5.43279e-08 4.16454e-22 1.84006e-07 1.81547e-22 1.77346e-11)
(-1.79531e-07 -4.73776e-08 -1.33441e-21 1.7951e-07 -1.25682e-22 2.19853e-11)
(-1.74571e-07 -4.10067e-08 4.28805e-23 1.74558e-07 -2.41422e-23 1.2902e-11)
(-1.6925e-07 -3.51531e-08 -6.31432e-21 1.6927e-07 -6.89812e-22 -2.0273e-11)
(-1.63773e-07 -2.96388e-08 5.20689e-23 1.63791e-07 -2.24672e-22 -1.71125e-11)
(-1.58108e-07 -2.42954e-08 -3.65634e-20 1.58129e-07 -4.02181e-21 -2.07163e-11)
(-1.52284e-07 -1.91652e-08 9.08273e-24 1.5231e-07 5.33403e-22 -2.55094e-11)
(-1.46308e-07 -1.4364e-08 4.09909e-20 1.46334e-07 4.57527e-21 -2.64404e-11)
(-1.40159e-07 -1.01279e-08 -4.60389e-23 1.40183e-07 -1.58328e-23 -2.35922e-11)
(-1.338e-07 -6.69055e-09 4.37598e-20 1.33815e-07 4.93504e-21 -1.46842e-11)
(-1.27261e-07 -4.20886e-09 -2.66401e-21 1.27268e-07 -7.30664e-22 -6.86154e-12)
(-1.20601e-07 -2.62279e-09 -3.63645e-20 1.20604e-07 -4.14245e-21 -2.4758e-12)
(-1.13903e-07 -1.69269e-09 -5.11584e-22 1.13902e-07 1.00064e-22 1.16967e-12)
(-1.07312e-07 -1.18164e-09 -4.18145e-23 1.0734e-07 3.62074e-23 -2.86565e-11)
(-1.00751e-07 -9.25126e-10 1.32771e-20 1.00706e-07 1.58355e-21 4.49728e-11)
(-9.4447e-08 -1.02409e-09 1.13654e-20 9.44797e-08 1.27592e-21 -3.26904e-11)
(-8.90207e-08 -1.76975e-09 1.08276e-22 8.90419e-08 -2.29936e-23 -2.12316e-11)
(-8.4597e-08 -1.85643e-09 -3.28368e-22 8.45545e-08 -5.07685e-23 4.24611e-11)
(-8.02906e-08 -1.49591e-09 2.14433e-22 8.03187e-08 -1.04981e-22 -2.80995e-11)
(-7.57963e-08 -1.64486e-09 -3.81739e-20 7.57646e-08 -4.74404e-21 3.16927e-11)
(-7.12996e-08 -3.21373e-09 -5.90352e-20 7.14521e-08 -6.72236e-21 -1.5241e-10)
(-6.52951e-08 -7.39839e-09 8.4072e-20 6.48019e-08 1.03724e-20 4.93233e-10)
(-6.06321e-08 -1.65388e-08 4.04804e-20 6.2104e-08 4.67917e-21 -1.47187e-09)
(-4.81129e-08 -2.37313e-08 -0 4.42616e-08 -1.14437e-22 3.85125e-09)
(-5.62771e-08 -3.09391e-08 -1.33613e-20 6.5551e-08 -1.42987e-21 -9.27396e-09)
(-2.64287e-08 3.68266e-10 1.19133e-19 5.53084e-09 1.46078e-20 2.08979e-08)
(-1.07369e-07 2.2732e-08 -9.16433e-20 1.51084e-07 -1.1303e-20 -4.37152e-08)
(1.44381e-08 9.61493e-08 4.83239e-21 -9.14711e-08 7.72033e-22 7.7033e-08)
(-1.95175e-07 6.03717e-08 4.78898e-24 3.05881e-07 -4.24325e-24 -1.10706e-07)
(-1.76742e-07 -6.32209e-07 -3.0281e-22 2.08439e-07 -2.04397e-23 -3.16967e-08)
(-1.31027e-07 -5.92019e-07 4.88913e-22 1.28338e-07 4.54183e-23 2.68889e-09)
(-1.18589e-07 -5.48469e-07 -5.62887e-22 1.07797e-07 -6.80182e-23 1.07917e-08)
(-1.31291e-07 -5.32171e-07 -2.07166e-22 1.33316e-07 -8.22316e-24 -2.02563e-09)
(-1.28389e-07 -5.17445e-07 1.48892e-24 1.27075e-07 6.159e-24 1.31473e-09)
(-1.29707e-07 -5.01551e-07 4.31175e-25 1.29769e-07 -8.87852e-23 -6.18488e-11)
(-1.29115e-07 -4.85701e-07 -4.03517e-21 1.28776e-07 -3.50634e-22 3.3908e-10)
(-1.29274e-07 -4.70712e-07 1.62873e-21 1.29194e-07 2.4633e-22 7.96187e-11)
(-1.29323e-07 -4.56607e-07 1.56794e-22 1.29244e-07 -8.02334e-23 7.84655e-11)
(-1.2963e-07 -4.43241e-07 -2.5798e-21 1.29644e-07 -2.53589e-22 -1.43343e-11)
(-1.30059e-07 -4.30438e-07 -0 1.30128e-07 -5.16851e-23 -6.98379e-11)
(-1.30661e-07 -4.18066e-07 -4.90999e-21 1.30802e-07 -5.24887e-22 -1.41469e-10)
(-1.31404e-07 -4.06092e-07 -1.99752e-21 1.31598e-07 -8.7974e-23 -1.93342e-10)
(-1.32295e-07 -3.94475e-07 3.94776e-25 1.32529e-07 -5.97274e-23 -2.34231e-10)
(-1.33379e-07 -3.83163e-07 -5.02266e-21 1.3369e-07 -3.91988e-22 -3.11531e-10)
(-1.34542e-07 -3.7211e-07 4.57254e-21 1.34857e-07 6.44759e-22 -3.14708e-10)
(-1.35868e-07 -3.61249e-07 4.92676e-21 1.36197e-07 3.15555e-22 -3.29671e-10)
(-1.37349e-07 -3.50586e-07 -3.74607e-21 1.37706e-07 -5.16192e-22 -3.57384e-10)
(-1.38908e-07 -3.40156e-07 -3.04316e-21 1.39246e-07 -2.59756e-22 -3.38041e-10)
(-1.40571e-07 -3.29991e-07 -1.53233e-21 1.40889e-07 -9.76055e-23 -3.18218e-10)
(-1.42308e-07 -3.20166e-07 -8.53125e-22 1.42598e-07 8.99013e-23 -2.90615e-10)
(-1.44103e-07 -3.10672e-07 7.59456e-21 1.44355e-07 7.52189e-22 -2.51142e-10)
(-1.45954e-07 -3.01453e-07 4.96838e-24 1.46152e-07 -7.54533e-23 -1.98082e-10)
(-1.47897e-07 -2.92389e-07 3.29306e-21 1.48059e-07 3.94857e-22 -1.621e-10)
(-1.499e-07 -2.83421e-07 3.82143e-21 1.50011e-07 3.19535e-22 -1.11102e-10)
(-1.51982e-07 -2.74514e-07 4.85955e-22 1.52056e-07 -8.47831e-23 -7.42474e-11)
(-1.54116e-07 -2.65727e-07 -3.06354e-21 1.54164e-07 -3.27559e-22 -4.81581e-11)
(-1.56267e-07 -2.57091e-07 -1.63356e-21 1.56289e-07 -1.08744e-22 -2.18889e-11)
(-1.58427e-07 -2.48625e-07 3.97885e-24 1.58432e-07 4.19422e-23 -5.48959e-12)
(-1.60586e-07 -2.403e-07 8.92219e-22 1.60586e-07 8.0696e-23 -6.95734e-13)
(-1.62724e-07 -2.32073e-07 2.25283e-23 1.62721e-07 8.04792e-23 2.7994e-12)
(-1.64833e-07 -2.23921e-07 6.11921e-21 1.64833e-07 6.17729e-22 -7.92623e-13)
(-1.66884e-07 -2.15834e-07 9.96107e-24 1.66883e-07 -9.03997e-23 8.9616e-13)
(-1.68876e-07 -2.078e-07 4.33233e-23 1.68884e-07 1.85928e-22 -7.58747e-12)
(-1.70769e-07 -1.99846e-07 1.05422e-20 1.70781e-07 1.10813e-21 -1.19803e-11)
(-1.72541e-07 -1.91959e-07 3.20849e-21 1.72558e-07 8.03653e-23 -1.68179e-11)
(-1.74173e-07 -1.8414e-07 -5.85937e-21 1.74198e-07 -5.82563e-22 -2.50735e-11)
(-1.75653e-07 -1.76346e-07 3.79429e-21 1.75689e-07 4.59892e-22 -3.63623e-11)
(-1.76965e-07 -1.68518e-07 -1.09197e-23 1.77006e-07 -1.17348e-22 -4.10671e-11)
(-1.78106e-07 -1.60622e-07 -4.51098e-21 1.78152e-07 -5.19479e-22 -4.56964e-11)
(-1.79081e-07 -1.52682e-07 -3.99872e-21 1.79136e-07 -3.08006e-22 -5.53847e-11)
(-1.79799e-07 -1.44718e-07 3.60518e-21 1.79833e-07 5.01628e-22 -3.35593e-11)
(-1.80056e-07 -1.36743e-07 5.79255e-21 1.8008e-07 5.73942e-22 -2.42624e-11)
(-1.80013e-07 -1.28873e-07 3.08219e-21 1.80073e-07 5.51932e-22 -5.96391e-11)
(-1.79935e-07 -1.20947e-07 2.46167e-20 1.79978e-07 2.51727e-21 -4.30151e-11)
(-1.79577e-07 -1.12812e-07 2.77267e-24 1.79614e-07 -3.00163e-22 -3.63212e-11)
(-1.78923e-07 -1.04644e-07 1.73138e-23 1.78957e-07 -6.77771e-23 -3.43098e-11)
(-1.77943e-07 -9.64642e-08 -8.47972e-21 1.77972e-07 -6.77243e-22 -2.92922e-11)
(-1.7661e-07 -8.83763e-08 1.85737e-20 1.76634e-07 2.02517e-21 -2.41205e-11)
(-1.74907e-07 -8.0465e-08 3.14321e-22 1.74928e-07 -3.72373e-22 -2.05407e-11)
(-1.72828e-07 -7.27889e-08 -2.25474e-20 1.72847e-07 -2.4093e-21 -1.94869e-11)
(-1.70349e-07 -6.54429e-08 8.56327e-23 1.70366e-07 -3.29092e-23 -1.70268e-11)
(-1.67459e-07 -5.85433e-08 -2.61279e-20 1.67476e-07 -2.79372e-21 -1.6794e-11)
(-1.64142e-07 -5.218e-08 1.28415e-21 1.64154e-07 4.32608e-22 -1.18806e-11)
(-1.60387e-07 -4.62938e-08 8.53225e-21 1.60384e-07 8.92847e-22 2.6841e-12)
(-1.56302e-07 -4.07983e-08 -5.01655e-21 1.56288e-07 -7.16153e-22 1.42184e-11)
(-1.51977e-07 -3.55351e-08 -1.44706e-20 1.51956e-07 -1.56765e-21 2.06403e-11)
(-1.47436e-07 -3.0363e-08 -3.12988e-22 1.47418e-07 3.36311e-23 1.72005e-11)
(-1.42698e-07 -2.53335e-08 8.48835e-24 1.42685e-07 -5.73871e-24 1.30288e-11)
(-1.37757e-07 -2.05925e-08 3.25788e-22 1.37747e-07 6.04087e-23 9.90911e-12)
(-1.32589e-07 -1.63894e-08 -3.09736e-23 1.32582e-07 -2.39438e-22 7.09685e-12)
(-1.27162e-07 -1.29499e-08 -4.15494e-20 1.27153e-07 -4.61928e-21 8.62725e-12)
(-1.21501e-07 -1.04118e-08 1.4786e-20 1.21492e-07 2.08751e-21 9.06128e-12)
(-1.15668e-07 -8.69515e-09 3.45358e-20 1.15658e-07 4.1393e-21 9.38351e-12)
(-1.09754e-07 -7.56189e-09 5.13815e-20 1.09743e-07 5.77402e-21 1.10525e-11)
(-1.03895e-07 -6.78879e-09 -1.14937e-22 1.03915e-07 -3.79258e-22 -1.97435e-11)
(-9.80053e-08 -6.25692e-09 -3.08905e-20 9.79535e-08 -3.64562e-21 5.17894e-11)
(-9.23054e-08 -6.08341e-09 -1.07728e-20 9.23362e-08 -1.21495e-21 -3.08312e-11)
(-8.73751e-08 -6.49717e-09 -1.99351e-20 8.73916e-08 -2.14733e-21 -1.65214e-11)
(-8.33598e-08 -6.2455e-09 3.11017e-20 8.33166e-08 3.73455e-21 4.32012e-11)
(-7.94336e-08 -5.61443e-09 -9.68509e-21 7.94609e-08 -1.1484e-21 -2.72968e-11)
(-7.52996e-08 -5.55962e-09 3.72622e-20 7.52781e-08 4.80208e-21 2.14595e-11)
(-7.10597e-08 -7.03588e-09 1.01983e-19 7.11928e-08 1.22226e-20 -1.33023e-10)
(-6.53463e-08 -1.12971e-08 4.64757e-20 6.49209e-08 5.31076e-21 4.25391e-10)
(-6.06235e-08 -2.03925e-08 1.61943e-22 6.19573e-08 -8.98919e-23 -1.3338e-09)
(-4.89277e-08 -2.7015e-08 -0 4.53708e-08 3.25903e-23 3.55687e-09)
(-5.65296e-08 -3.28397e-08 1.26454e-20 6.53226e-08 1.53876e-21 -8.79304e-09)
(-2.934e-08 1.24766e-09 4.02471e-22 9.07647e-09 1.8991e-22 2.02636e-08)
(-1.08059e-07 2.32594e-08 8.69641e-20 1.51388e-07 1.05933e-20 -4.33285e-08)
(1.19046e-08 9.77032e-08 4.94246e-20 -8.92585e-08 6.26603e-21 7.73539e-08)
(-1.95014e-07 5.20409e-08 4.76037e-24 3.06948e-07 -4.34453e-23 -1.11934e-07)
(-1.27222e-07 -5.60619e-07 1.251e-21 1.54129e-07 1.44861e-22 -2.69065e-08)
(-9.86443e-08 -5.56777e-07 1.33283e-21 9.79295e-08 1.112e-22 7.14754e-10)
(-9.27448e-08 -5.35441e-07 -6.93669e-23 8.55851e-08 -5.06608e-23 7.15974e-09)
(-1.03801e-07 -5.19046e-07 -1.04086e-21 1.07013e-07 -1.00663e-22 -3.21228e-09)
(-1.01147e-07 -5.00855e-07 1.23288e-22 1.01342e-07 4.04431e-23 -1.94963e-10)
(-1.02242e-07 -4.8313e-07 4.16167e-22 1.03274e-07 4.47805e-23 -1.0316e-09)
(-1.02028e-07 -4.66326e-07 -5.02808e-24 1.02531e-07 -1.07407e-23 -5.03182e-10)
(-1.02345e-07 -4.50474e-07 1.43885e-24 1.02765e-07 -2.89762e-24 -4.20703e-10)
(-1.02703e-07 -4.35403e-07 -5.07986e-25 1.02986e-07 6.69277e-25 -2.83125e-10)
(-1.03179e-07 -4.2105e-07 -4.98591e-24 1.03344e-07 -3.3408e-24 -1.65402e-10)
(-1.03756e-07 -4.07268e-07 -0 1.03804e-07 2.49922e-24 -4.83337e-11)
(-1.04546e-07 -3.94035e-07 -7.96533e-24 1.04585e-07 -8.21984e-24 -3.86942e-11)
(-1.05414e-07 -3.81325e-07 4.89555e-25 1.05411e-07 -1.50635e-24 3.33274e-12)
(-1.06426e-07 -3.6906e-07 1.34646e-24 1.06411e-07 2.78607e-23 1.4678e-11)
(-1.07566e-07 -3.57209e-07 1.16858e-21 1.07556e-07 9.15397e-23 1.09946e-11)
(-1.08842e-07 -3.45711e-07 -9.73085e-22 1.08856e-07 -1.21497e-22 -1.39408e-11)
(-1.10195e-07 -3.34588e-07 9.06531e-24 1.10205e-07 2.89742e-23 -9.72747e-12)
(-1.11722e-07 -3.23815e-07 -9.76768e-24 1.11805e-07 5.69317e-24 -8.30226e-11)
(-1.13262e-07 -3.13492e-07 -8.83605e-24 1.1335e-07 1.53559e-23 -8.83304e-11)
(-1.14879e-07 -3.03573e-07 1.4741e-21 1.14982e-07 1.66155e-22 -1.02577e-10)
(-1.16565e-07 -2.9409e-07 7.95474e-22 1.16688e-07 4.78672e-23 -1.23085e-10)
(-1.18319e-07 -2.84949e-07 2.3848e-23 1.18464e-07 -8.46254e-24 -1.45135e-10)
(-1.20121e-07 -2.76083e-07 -8.10086e-25 1.20264e-07 3.28906e-24 -1.42749e-10)
(-1.21982e-07 -2.67393e-07 8.96907e-24 1.22103e-07 2.23356e-24 -1.21524e-10)
(-1.2394e-07 -2.58862e-07 6.58577e-24 1.24066e-07 -7.17382e-23 -1.25943e-10)
(-1.25939e-07 -2.50532e-07 -4.68203e-21 1.26052e-07 -4.65048e-22 -1.13765e-10)
(-1.27975e-07 -2.42418e-07 5.90866e-22 1.28075e-07 1.35404e-22 -1.0031e-10)
(-1.30036e-07 -2.34548e-07 -6.18889e-24 1.30123e-07 -1.25931e-23 -8.74626e-11)
(-1.32119e-07 -2.26893e-07 -6.2335e-23 1.32201e-07 -2.12481e-23 -8.18406e-11)
(-1.34215e-07 -2.19411e-07 -8.62518e-22 1.34294e-07 -9.17673e-23 -7.8699e-11)
(-1.36317e-07 -2.12066e-07 2.93038e-24 1.36395e-07 1.79585e-24 -7.72262e-11)
(-1.38417e-07 -2.04839e-07 2.22904e-23 1.38498e-07 6.05324e-23 -8.08031e-11)
(-1.40489e-07 -1.97724e-07 3.39769e-21 1.40567e-07 3.51039e-22 -7.76494e-11)
(-1.42531e-07 -1.90718e-07 5.40132e-24 1.42613e-07 -3.54954e-23 -8.24513e-11)
(-1.44514e-07 -1.83837e-07 2.95192e-23 1.44603e-07 -2.69285e-23 -8.93069e-11)
(-1.46412e-07 -1.77067e-07 -3.0616e-21 1.46503e-07 -2.31306e-22 -9.06147e-11)
(-1.48222e-07 -1.70363e-07 5.5639e-21 1.48318e-07 5.58245e-22 -9.57089e-11)
(-1.49938e-07 -1.63669e-07 -3.63061e-21 1.50042e-07 -4.44796e-22 -1.03982e-10)
(-1.51552e-07 -1.56924e-07 -2.19416e-24 1.51662e-07 9.56693e-23 -1.10422e-10)
(-1.53048e-07 -1.50098e-07 4.26087e-21 1.53157e-07 4.81152e-22 -1.09078e-10)
(-1.54421e-07 -1.43268e-07 3.79041e-21 1.54542e-07 3.32221e-22 -1.21712e-10)
(-1.55575e-07 -1.36566e-07 2.26158e-23 1.55689e-07 -3.55626e-23 -1.1401e-10)
(-1.56426e-07 -1.29801e-07 1.65892e-23 1.56509e-07 -3.64963e-23 -8.30191e-11)
(-1.5712e-07 -1.22946e-07 -2.83248e-21 1.57186e-07 -4.2421e-22 -6.55034e-11)
(-1.57673e-07 -1.1602e-07 -1.25079e-20 1.57724e-07 -1.26604e-21 -5.00963e-11)
(-1.57994e-07 -1.08951e-07 2.43725e-24 1.5803e-07 1.15458e-22 -3.65967e-11)
(-1.58072e-07 -1.01811e-07 1.5278e-23 1.58101e-07 2.60881e-23 -2.90863e-11)
(-1.57873e-07 -9.46293e-08 -7.10692e-23 1.57893e-07 -5.14125e-23 -2.00651e-11)
(-1.57367e-07 -8.75079e-08 -4.70604e-21 1.5738e-07 -5.12665e-22 -1.28361e-11)
(-1.56536e-07 -8.0507e-08 -2.95651e-22 1.56544e-07 2.24505e-23 -8.29977e-12)
(-1.55359e-07 -7.36907e-08 -1.69097e-22 1.55363e-07 5.05499e-23 -3.66933e-12)
(-1.53812e-07 -6.71493e-08 1.03558e-20 1.53811e-07 1.07591e-21 2.36362e-13)
(-1.51874e-07 -6.10029e-08 -3.95427e-21 1.51873e-07 -5.1555e-22 3.366e-13)
(-1.49524e-07 -5.53208e-08 -1.42687e-23 1.49522e-07 -4.03242e-23 2.11869e-12)
(-1.46775e-07 -4.9999e-08 -8.06704e-21 1.46764e-07 -7.90495e-22 1.12238e-11)
(-1.43711e-07 -4.49454e-08 1.03019e-20 1.43696e-07 1.29138e-21 1.50848e-11)
(-1.40397e-07 -4.00241e-08 1.36339e-20 1.4038e-07 1.65704e-21 1.66755e-11)
(-1.36858e-07 -3.51176e-08 3.70951e-20 1.36841e-07 4.01545e-21 1.67096e-11)
(-1.33103e-07 -3.03026e-08 -1.00327e-22 1.33087e-07 -4.48981e-22 1.53162e-11)
(-1.29116e-07 -2.57448e-08 -3.30919e-20 1.29103e-07 -3.66382e-21 1.27388e-11)
(-1.24864e-07 -2.16961e-08 8.78243e-21 1.24855e-07 1.18499e-21 8.84115e-12)
(-1.20318e-07 -1.83708e-08 -3.39137e-22 1.2031e-07 -2.09255e-22 7.69821e-12)
(-1.15499e-07 -1.58771e-08 -1.85677e-20 1.15493e-07 -2.34138e-21 5.91458e-12)
(-1.10477e-07 -1.41116e-08 -4.7795e-20 1.10473e-07 -5.55135e-21 3.85467e-12)
(-1.05337e-07 -1.28633e-08 -4.39871e-20 1.05332e-07 -4.74124e-21 5.12079e-12)
(-1.00206e-07 -1.19027e-08 2.4248e-20 1.00229e-07 2.98584e-21 -2.22989e-11)
(-9.49914e-08 -1.11783e-08 -1.96953e-21 9.49436e-08 -3.01493e-22 4.7796e-11)
(-8.99129e-08 -1.07952e-08 1.02447e-20 8.9948e-08 1.18407e-21 -3.50385e-11)
(-8.54951e-08 -1.09205e-08 -2.87362e-21 8.55107e-08 -3.76276e-22 -1.56178e-11)
(-8.19006e-08 -1.03752e-08 1.13289e-22 8.1858e-08 3.27946e-23 4.26282e-11)
(-7.83721e-08 -9.52336e-09 2.34775e-23 7.83996e-08 -1.45773e-22 -2.75021e-11)
(-7.46105e-08 -9.32235e-09 -4.2376e-20 7.45976e-08 -5.18443e-21 1.29527e-11)
(-7.06367e-08 -1.07688e-08 -4.01678e-20 7.07476e-08 -4.67099e-21 -1.1089e-10)
(-6.52254e-08 -1.51767e-08 2.16156e-22 6.48675e-08 1.44775e-22 3.57844e-10)
(-6.04619e-08 -2.42157e-08 1.84033e-23 6.16437e-08 6.13622e-24 -1.18185e-09)
(-4.96303e-08 -3.02673e-08 -0 4.63958e-08 -1.71914e-23 3.23449e-09)
(-5.67382e-08 -3.45262e-08 -1.24276e-20 6.49627e-08 -1.53854e-21 -8.22453e-09)
(-3.2163e-08 2.33774e-09 1.53672e-22 1.27025e-08 -5.64407e-23 1.94605e-08)
(-1.08858e-07 2.37203e-08 -5.22477e-20 1.51492e-07 -6.37375e-21 -4.26338e-08)
(1.00848e-08 9.93948e-08 -4.69144e-20 -8.74282e-08 -5.96717e-21 7.73434e-08)
(-1.9542e-07 4.29332e-08 6.254e-22 3.08285e-07 1.58366e-22 -1.12865e-07)
(-9.6794e-08 -5.27916e-07 -1.1746e-21 1.20309e-07 -1.18993e-22 -2.35149e-08)
(-7.37105e-08 -5.31815e-07 2.16793e-24 7.32042e-08 2.95112e-23 5.0633e-10)
(-6.91552e-08 -5.11023e-07 -2.51075e-25 6.34854e-08 2.28321e-23 5.66981e-09)
(-7.7966e-08 -4.92215e-07 9.92398e-22 8.05404e-08 9.46156e-23 -2.57438e-09)
(-7.60999e-08 -4.73494e-07 -1.16718e-22 7.62439e-08 -3.66543e-23 -1.44056e-10)
(-7.74104e-08 -4.55875e-07 -3.9579e-22 7.82223e-08 -3.21661e-23 -8.11964e-10)
(-7.77314e-08 -4.39146e-07 -1.06607e-24 7.81403e-08 4.96279e-24 -4.0892e-10)
(-7.84885e-08 -4.23234e-07 -7.32622e-26 7.88507e-08 4.12277e-24 -3.62217e-10)
(-7.92371e-08 -4.08034e-07 3.9825e-22 7.94647e-08 8.10405e-23 -2.2759e-10)
(-8.01062e-08 -3.93495e-07 2.40503e-21 8.02406e-08 2.33341e-22 -1.34382e-10)
(-8.10295e-08 -3.7958e-07 -0 8.10454e-08 -1.48114e-23 -1.58599e-11)
(-8.20952e-08 -3.66236e-07 1.29532e-21 8.20527e-08 9.39398e-23 4.25232e-11)
(-8.32268e-08 -3.53434e-07 -1.86873e-21 8.31094e-08 -2.34004e-22 1.17467e-10)
(-8.44456e-08 -3.41131e-07 -1.50047e-21 8.42588e-08 -8.12769e-23 1.86808e-10)
(-8.57675e-08 -3.29302e-07 2.32987e-21 8.55345e-08 2.70254e-22 2.3305e-10)
(-8.71784e-08 -3.17948e-07 9.34568e-22 8.69149e-08 5.51319e-23 2.63442e-10)
(-8.86326e-08 -3.07084e-07 1.80903e-24 8.83179e-08 4.73712e-23 3.14688e-10)
(-9.01975e-08 -2.96714e-07 3.4131e-21 8.98881e-08 3.93352e-22 3.09341e-10)
(-9.17863e-08 -2.86858e-07 2.75531e-21 9.14578e-08 1.97548e-22 3.2854e-10)