/*--------------------------------*- C++ -*----------------------------------*\
| =========                 |                                                 |
| \\      /  F ield         | OpenFOAM: The Open Source CFD Toolbox           |
|  \\    /   O peration     | Version:  2306                                  |
|   \\  /    A nd           | Website:  www.openfoam.com                      |
|    \\/     M anipulation  |                                                 |
\*---------------------------------------------------------------------------*/
FoamFile
{
    version     2.0;
    format      ascii;
    arch        "LSB;label=32;scalar=64";
    class       volScalarField;
    location    "175";
    object      turbulenceProperties:k;
}
// * * * * * * * * * * * * * * * * * * * * * * * * * * * * * * * * * * * * * //

dimensions      [0 2 -2 0 0 0 0];

internalField   nonuniform List<scalar> 
1340
(
6.89721e-07
1.36142e-06
1.53758e-07
6.3478e-07
6.87555e-07
1.36323e-06
1.73874e-07
2.76746e-07
1.50859e-07
6.37114e-07
6.87777e-07
1.36368e-06
3.16929e-07
2.79427e-07
2.62581e-07
1.82482e-07
2.83205e-07
1.49224e-07
6.39617e-07
6.89655e-07
1.36344e-06
4.53127e-07
4.19914e-07
3.92747e-07
3.67566e-07
3.41359e-07
3.16689e-07
2.8106e-07
2.65856e-07
1.91585e-07
2.89376e-07
1.4877e-07
6.4221e-07
6.92616e-07
1.3629e-06
6.3642e-07
5.96473e-07
5.56707e-07
5.18023e-07
4.80123e-07
4.4454e-07
4.13593e-07
3.88297e-07
3.64665e-07
3.39881e-07
3.1645e-07
2.82903e-07
2.69452e-07
2.01201e-07
2.95168e-07
1.49313e-07
6.44649e-07
6.96211e-07
1.36215e-06
8.70508e-07
8.32477e-07
7.94766e-07
7.57584e-07
7.20903e-07
6.84613e-07
6.48526e-07
6.1235e-07
5.75797e-07
5.3938e-07
5.03897e-07
4.68812e-07
4.35697e-07
4.07082e-07
3.83701e-07
3.61656e-07
3.38457e-07
3.16436e-07
2.8509e-07
2.73369e-07
2.11126e-07
3.00439e-07
1.50739e-07
6.46885e-07
7.00083e-07
1.36095e-06
1.20154e-06
1.17044e-06
1.13919e-06
1.10765e-06
1.0759e-06
1.04399e-06
1.01198e-06
9.79913e-07
9.4779e-07
9.15494e-07
8.82902e-07
8.50208e-07
8.17584e-07
7.84446e-07
7.51315e-07
7.18458e-07
6.85862e-07
6.53418e-07
6.20771e-07
5.8781e-07
5.54785e-07
5.2178e-07
4.89531e-07
4.57434e-07
4.27064e-07
4.00767e-07
3.79243e-07
3.58754e-07
3.37133e-07
3.1648e-07
2.87498e-07
2.77509e-07
2.21276e-07
3.05081e-07
1.52977e-07
6.48833e-07
7.03717e-07
1.35962e-06
2.90552e-06
3.20339e-06
2.70673e-06
2.51059e-06
2.4402e-06
2.40309e-06
2.34881e-06
2.29432e-06
2.24075e-06
2.19062e-06
2.14329e-06
2.0976e-06
2.05303e-06
2.00943e-06
1.96709e-06
1.92552e-06
1.88469e-06
1.84452e-06
1.80495e-06
1.76619e-06
1.72853e-06
1.6923e-06
1.65757e-06
1.62412e-06
1.59154e-06
1.55954e-06
1.5282e-06
1.49774e-06
1.46822e-06
1.43971e-06
1.41201e-06
1.385e-06
1.3586e-06
1.3327e-06
1.30731e-06
1.28236e-06
1.25777e-06
1.23349e-06
1.20925e-06
1.18499e-06
1.16065e-06
1.13515e-06
1.10957e-06
1.08612e-06
1.06189e-06
1.03606e-06
1.00998e-06
9.83631e-07
9.57068e-07
9.30356e-07
9.03523e-07
8.7654e-07
8.4937e-07
8.21892e-07
7.93741e-07
7.65182e-07
7.36702e-07
7.08072e-07
6.79417e-07
6.50777e-07
6.22081e-07
5.93069e-07
5.63714e-07
5.34091e-07
5.0441e-07
4.75314e-07
4.46137e-07
4.18439e-07
3.94461e-07
3.7475e-07
3.5581e-07
3.35795e-07
3.16548e-07
2.90113e-07
2.81863e-07
2.31605e-07
3.09049e-07
1.55939e-07
6.50272e-07
7.06907e-07
1.35835e-06
3.02336e-06
2.70879e-06
2.47859e-06
2.42812e-06
2.36533e-06
2.3003e-06
2.231e-06
2.1666e-06
2.10596e-06
2.04915e-06
1.99505e-06
1.94318e-06
1.89338e-06
1.84549e-06
1.79942e-06
1.75477e-06
1.71145e-06
1.66951e-06
1.62897e-06
1.59005e-06
1.55303e-06
1.51785e-06
1.48427e-06
1.45195e-06
1.42058e-06
1.39012e-06
1.36079e-06
1.33265e-06
1.30577e-06
1.28004e-06
1.25525e-06
1.23132e-06
1.20815e-06
1.18571e-06
1.16398e-06
1.14286e-06
1.12229e-06
1.10209e-06
1.08199e-06
1.06193e-06
1.042e-06
1.02191e-06
1.00103e-06
9.80259e-07
9.59939e-07
9.38968e-07
9.17733e-07
8.96164e-07
8.74366e-07
8.52395e-07
8.30254e-07
8.07902e-07
7.85344e-07
7.62455e-07
7.38919e-07
7.14983e-07
6.90774e-07
6.66234e-07
6.41464e-07
6.16516e-07
5.91362e-07
5.65811e-07
5.39853e-07
5.1355e-07
4.87125e-07
4.61129e-07
4.34838e-07
4.09821e-07
3.88161e-07
3.70221e-07
3.52834e-07
3.34454e-07
3.16668e-07
2.92948e-07
2.86437e-07
2.42048e-07
3.12314e-07
1.59447e-07
6.5149e-07
7.09265e-07
1.35764e-06
2.57913e-06
2.50316e-06
2.40716e-06
2.35201e-06
2.26977e-06
2.19353e-06
2.11963e-06
2.05083e-06
1.98568e-06
1.92393e-06
1.86491e-06
1.80872e-06
1.75505e-06
1.70368e-06
1.65449e-06
1.60724e-06
1.56193e-06
1.51871e-06
1.47767e-06
1.43878e-06
1.40217e-06
1.36744e-06
1.33429e-06
1.30234e-06
1.27168e-06
1.24234e-06
1.21442e-06
1.18801e-06
1.16301e-06
1.13924e-06
1.11657e-06
1.09492e-06
1.07419e-06
1.05441e-06
1.03554e-06
1.01746e-06
9.99984e-07
9.82924e-07
9.66061e-07
9.49257e-07
9.32792e-07
9.16689e-07
9.00057e-07
8.83374e-07
8.66762e-07
8.49729e-07
8.32469e-07
8.14917e-07
7.97188e-07
7.79302e-07
7.61238e-07
7.42975e-07
7.24518e-07
7.05725e-07
6.8632e-07
6.6645e-07
6.46145e-07
6.25349e-07
6.04192e-07
5.82744e-07
5.60983e-07
5.38786e-07
5.16138e-07
4.93121e-07
4.69902e-07
4.4695e-07
4.2353e-07
4.01217e-07
3.81848e-07
3.65631e-07
3.49814e-07
3.3309e-07
3.1683e-07
2.96004e-07
2.91233e-07
2.5253e-07
3.14907e-07
1.6349e-07
6.51618e-07
7.11357e-07
1.35792e-06
2.39329e-06
2.38358e-06
2.28992e-06
2.21526e-06
2.13033e-06
2.05386e-06
1.9804e-06
1.91118e-06
1.8452e-06
1.78236e-06
1.72244e-06
1.66534e-06
1.61084e-06
1.5588e-06
1.50915e-06
1.4619e-06
1.41705e-06
1.37476e-06
1.33497e-06
1.29748e-06
1.26213e-06
1.22854e-06
1.19641e-06
1.16568e-06
1.13654e-06
1.10893e-06
1.08297e-06
1.05864e-06
1.03567e-06
1.01398e-06
9.93414e-07
9.74e-07
9.55608e-07
9.38335e-07
9.22047e-07
9.06587e-07
8.91741e-07
8.77299e-07
8.63078e-07
8.49094e-07
8.35639e-07
8.2273e-07
8.09431e-07
7.95873e-07
7.82309e-07
7.68491e-07
7.54493e-07
7.40299e-07
7.26006e-07
7.11595e-07
6.97058e-07
6.82371e-07
6.6754e-07
6.5237e-07
6.36657e-07
6.20423e-07
6.03601e-07
5.8623e-07
5.68411e-07
5.5019e-07
5.31626e-07
5.1263e-07
4.93145e-07
4.73283e-07
4.53152e-07
4.33126e-07
4.12492e-07
3.9282e-07
3.75672e-07
3.61108e-07
3.46839e-07
3.31763e-07
3.171e-07
2.99297e-07
2.96272e-07
2.62847e-07
3.16935e-07
1.67322e-07
6.51102e-07
7.1207e-07
1.36112e-06
2.29685e-06
2.27463e-06
2.16823e-06
2.081e-06
1.99281e-06
1.9125e-06
1.83627e-06
1.76466e-06
1.69692e-06
1.63295e-06
1.57241e-06
1.51505e-06
1.46076e-06
1.40933e-06
1.36076e-06
1.31512e-06
1.27219e-06
1.23194e-06
1.19419e-06
1.15858e-06
1.12487e-06
1.09281e-06
1.06232e-06
1.03353e-06
1.00644e-06
9.8106e-07
9.57455e-07
9.35353e-07
9.14562e-07
8.95017e-07
8.76752e-07
8.59645e-07
8.43717e-07
8.28896e-07
8.15089e-07
8.02272e-07
7.89757e-07
7.77691e-07
7.65974e-07
7.54725e-07
7.4406e-07
7.3398e-07
7.23485e-07
7.12616e-07
7.01896e-07
6.90909e-07
6.79828e-07
6.6869e-07
6.5744e-07
6.462e-07
6.34862e-07
6.23426e-07
6.11945e-07
6.00131e-07
5.87794e-07
5.74951e-07
5.61416e-07
5.47243e-07
5.3263e-07
5.17512e-07
5.02042e-07
4.86212e-07
4.69857e-07
4.5312e-07
4.36063e-07
4.18979e-07
4.01133e-07
3.84137e-07
3.69219e-07
3.56335e-07
3.43649e-07
3.30295e-07
3.17404e-07
3.02816e-07
3.01651e-07
2.73226e-07
3.18329e-07
1.74372e-07
6.4687e-07
7.15563e-07
1.36469e-06
2.27893e-06
2.25326e-06
2.12804e-06
2.02082e-06
1.91665e-06
1.8216e-06
1.73307e-06
1.65069e-06
1.57432e-06
1.50344e-06
1.43713e-06
1.37596e-06
1.31877e-06
1.26561e-06
1.21633e-06
1.17074e-06
1.12796e-06
1.08827e-06
1.05121e-06
1.01622e-06
9.83564e-07
9.52603e-07
9.23827e-07
8.97062e-07
8.72046e-07
8.48894e-07
8.27474e-07
8.07458e-07
7.8887e-07
7.71423e-07
7.5553e-07
7.40907e-07
7.27448e-07
7.14977e-07
7.03776e-07
6.9323e-07
6.82934e-07
6.7319e-07
6.64075e-07
6.55626e-07
6.47651e-07
6.40167e-07
6.32081e-07
6.23971e-07
6.16104e-07
6.07848e-07
5.99765e-07
5.91738e-07
5.83538e-07
5.75563e-07
5.67535e-07
5.59432e-07
5.51491e-07
5.43141e-07
5.34277e-07
5.24932e-07
5.14885e-07
5.04066e-07
4.92855e-07
4.81149e-07
4.69083e-07
4.5672e-07
4.43839e-07
4.30595e-07
4.16962e-07
4.03122e-07
3.88406e-07
3.74435e-07
3.61959e-07
3.50905e-07
3.40031e-07
3.28682e-07
3.17903e-07
3.07181e-07
3.07694e-07
2.85388e-07
3.16901e-07
1.88059e-07
6.34456e-07
7.08871e-07
1.31898e-06
2.28477e-06
2.2621e-06
2.1315e-06
2.01071e-06
1.89434e-06
1.78714e-06
1.68653e-06
1.59326e-06
1.50679e-06
1.42671e-06
1.35249e-06
1.28443e-06
1.22117e-06
1.163e-06
1.10943e-06
1.06011e-06
1.01404e-06
9.71851e-07
9.32503e-07
8.96108e-07
8.6265e-07
8.31358e-07
8.02867e-07
7.76796e-07
7.52459e-07
7.30235e-07
7.09726e-07
6.90778e-07
6.73542e-07
6.57555e-07
6.43195e-07
6.30334e-07
6.18556e-07
6.07746e-07
5.98202e-07
5.88967e-07
5.80378e-07
5.72512e-07
5.65498e-07
5.59069e-07
5.53117e-07
5.47284e-07
5.41185e-07
5.35474e-07
5.29727e-07
5.2399e-07
5.18589e-07
5.13242e-07
5.0795e-07
5.0294e-07
4.98089e-07
4.93235e-07
4.88588e-07
4.83591e-07
4.78114e-07
4.72105e-07
4.65425e-07
4.58037e-07
4.50282e-07
4.42121e-07
4.33672e-07
4.24948e-07
4.15795e-07
4.06264e-07
3.96248e-07
3.85876e-07
3.74573e-07
3.63836e-07
3.53935e-07
3.4486e-07
3.3601e-07
3.26964e-07
3.18795e-07
3.12454e-07
3.14805e-07
2.98368e-07
3.14498e-07
2.02997e-07
6.33585e-07
7.02974e-07
1.31735e-06
2.1832e-06
2.16305e-06
2.0467e-06
1.93213e-06
1.822e-06
1.71833e-06
1.6199e-06
1.52783e-06
1.44116e-06
1.35997e-06
1.28465e-06
1.21418e-06
1.14864e-06
1.0878e-06
1.03155e-06
9.79217e-07
9.30727e-07
8.86202e-07
8.44762e-07
8.06997e-07
7.72291e-07
7.40226e-07
7.11088e-07
6.84476e-07
6.59808e-07
6.37575e-07
6.17083e-07
5.98356e-07
5.8164e-07
5.66422e-07
5.52761e-07
5.40723e-07
5.29671e-07
5.19599e-07
5.10683e-07
5.02225e-07
4.94693e-07
4.88092e-07
4.82262e-07
4.76891e-07
4.71976e-07
4.67077e-07
4.62456e-07
4.58212e-07
4.53971e-07
4.50141e-07
4.46653e-07
4.43337e-07
4.40325e-07
4.3763e-07
4.35321e-07
4.33129e-07
4.31038e-07
4.2881e-07
4.26047e-07
4.22797e-07
4.18983e-07
4.14558e-07
4.09899e-07
4.04936e-07
3.99771e-07
3.94435e-07
3.8873e-07
3.82598e-07
3.75984e-07
3.68886e-07
3.6085e-07
3.53201e-07
3.45752e-07
3.38655e-07
3.31924e-07
3.25315e-07
3.20104e-07
3.18184e-07
3.22587e-07
3.10633e-07
3.13342e-07
2.17831e-07
6.39108e-07
6.84609e-07
1.31713e-06
2.01151e-06
1.82908e-06
1.95578e-06
1.86572e-06
1.7652e-06
1.67117e-06
1.58038e-06
1.49417e-06
1.41197e-06
1.33394e-06
1.25982e-06
1.19009e-06
1.12411e-06
1.06211e-06
1.00391e-06
9.49644e-07
8.98749e-07
8.51506e-07
8.07817e-07
7.6718e-07
7.29965e-07
6.95522e-07
6.63887e-07
6.34944e-07
6.08329e-07
5.84073e-07
5.61986e-07
5.41934e-07
5.23732e-07
5.0757e-07
4.92978e-07
4.7981e-07
4.68253e-07
4.57571e-07
4.47992e-07
4.39593e-07
4.3185e-07
4.25237e-07
4.19524e-07
4.14342e-07
4.09663e-07
4.05315e-07
4.01257e-07
3.97676e-07
3.94395e-07
3.91485e-07
3.88997e-07
3.86905e-07
3.8521e-07
3.83911e-07
3.83024e-07
3.82622e-07
3.82416e-07
3.82254e-07
3.82033e-07
3.8128e-07
3.80139e-07
3.78566e-07
3.7651e-07
3.74364e-07
3.72076e-07
3.69667e-07
3.6718e-07
3.6437e-07
3.61138e-07
3.5745e-07
3.53211e-07
3.48069e-07
3.43144e-07
3.3789e-07
3.32668e-07
3.28056e-07
3.23943e-07
3.2191e-07
3.24269e-07
3.30631e-07
3.21686e-07
3.13178e-07
2.35919e-07
6.47902e-07
6.61079e-07
1.31654e-06
1.79907e-06
1.63105e-06
1.751e-06
1.66709e-06
1.57508e-06
1.49116e-06
1.41098e-06
1.33522e-06
1.26319e-06
1.19489e-06
1.12989e-06
1.06828e-06
1.00998e-06
9.54756e-07
9.02804e-07
8.53754e-07
8.07825e-07
7.64807e-07
7.24784e-07
6.87357e-07
6.52676e-07
6.20484e-07
5.9088e-07
5.63505e-07
5.38354e-07
5.15468e-07
4.94521e-07
4.7572e-07
4.58549e-07
4.43193e-07
4.29321e-07
4.16809e-07
4.05709e-07
3.9554e-07
3.8667e-07
3.7895e-07
3.72149e-07
3.6625e-07
3.61207e-07
3.56569e-07
3.52403e-07
3.48718e-07
3.45459e-07
3.42775e-07
3.40521e-07
3.38752e-07
3.37461e-07
3.36625e-07
3.36354e-07
3.36564e-07
3.37198e-07
3.38353e-07
3.39721e-07
3.41055e-07
3.42373e-07
3.43213e-07
3.4373e-07
3.43981e-07
3.4392e-07
3.43883e-07
3.4383e-07
3.43755e-07
3.43631e-07
3.43259e-07
3.4248e-07
3.41262e-07
3.39503e-07
3.36895e-07
3.34343e-07
3.3105e-07
3.27621e-07
3.25069e-07
3.23464e-07
3.24705e-07
3.31062e-07
3.3904e-07
3.31861e-07
3.14823e-07
2.60236e-07
6.60078e-07
6.33618e-07
1.31694e-06
1.7216e-06
1.57298e-06
1.64902e-06
1.55014e-06
1.44807e-06
1.3582e-06
1.27542e-06
1.19936e-06
1.12924e-06
1.06404e-06
1.00331e-06
9.46667e-07
8.93649e-07
8.43889e-07
7.97378e-07
7.53625e-07
7.12757e-07
6.74518e-07
6.38746e-07
6.05343e-07
5.74214e-07
5.45419e-07
5.18664e-07
4.93959e-07
4.71321e-07
4.50488e-07
4.3153e-07
4.1438e-07
3.98535e-07
3.84368e-07
3.71461e-07
3.59896e-07
3.496e-07
3.40347e-07
3.32443e-07
3.25697e-07
3.19648e-07
3.14444e-07
3.09934e-07
3.05751e-07
3.02146e-07
2.99221e-07
2.9672e-07
2.94828e-07
2.9359e-07
2.92739e-07
2.92526e-07
2.92805e-07
2.93718e-07
2.95147e-07
2.97012e-07
2.99414e-07
3.01913e-07
3.04392e-07
3.0688e-07
3.08978e-07
3.10867e-07
3.12658e-07
3.1432e-07
3.16099e-07
3.17932e-07
3.19842e-07
3.21742e-07
3.23396e-07
3.24716e-07
3.25623e-07
3.26002e-07
3.25602e-07
3.25069e-07
3.23527e-07
3.21867e-07
3.21421e-07
3.22406e-07
3.27003e-07
3.36902e-07
3.45686e-07
3.38791e-07
3.16232e-07
2.8829e-07
6.75297e-07
5.99863e-07
1.32097e-06
1.77965e-06
1.6222e-06
1.67703e-06
1.55191e-06
1.42256e-06
1.31183e-06
1.21166e-06
1.12224e-06
1.04209e-06
9.69748e-07
9.04392e-07
8.45073e-07
7.91009e-07
7.41532e-07
6.96172e-07
6.54456e-07
6.16028e-07
5.80629e-07
5.47812e-07
5.17545e-07
4.89684e-07
4.63996e-07
4.40288e-07
4.18479e-07
3.98639e-07
3.80368e-07
3.637e-07
3.4863e-07
3.34784e-07
3.22407e-07
3.1125e-07
3.01411e-07
2.92764e-07
2.85238e-07
2.7889e-07
2.735e-07
2.68671e-07
2.64654e-07
2.6115e-07
2.582e-07
2.55812e-07
2.54246e-07
2.53145e-07
2.52664e-07
2.52858e-07
2.53396e-07
2.54705e-07
2.56413e-07
2.58724e-07
2.61535e-07
2.64731e-07
2.68296e-07
2.71876e-07
2.75507e-07
2.79047e-07
2.82357e-07
2.85592e-07
2.88799e-07
2.92006e-07
2.95384e-07
2.98827e-07
3.02384e-07
3.05937e-07
3.09233e-07
3.12316e-07
3.15011e-07
3.17191e-07
3.18704e-07
3.1999e-07
3.20109e-07
3.20048e-07
3.21382e-07
3.24542e-07
3.31977e-07
3.44498e-07
3.53431e-07
3.46937e-07
3.24944e-07
3.29758e-07
6.99038e-07
5.68436e-07
1.339e-06
1.97344e-06
1.76473e-06
1.84568e-06
1.69105e-06
1.52957e-06
1.39019e-06
1.26398e-06
1.15178e-06
1.05172e-06
9.62602e-07
8.83314e-07
8.12659e-07
7.49531e-07
6.93058e-07
6.42457e-07
5.97017e-07
5.56058e-07
5.19078e-07
4.85542e-07
4.55309e-07
4.27863e-07
4.02856e-07
3.80236e-07
3.59575e-07
3.41002e-07
3.24024e-07
3.08649e-07
2.94833e-07
2.82429e-07
2.71412e-07
2.61593e-07
2.53176e-07
2.45768e-07
2.39431e-07
2.34118e-07
2.29444e-07
2.25421e-07
2.21991e-07
2.19286e-07
2.17136e-07
2.15531e-07
2.14819e-07
2.14574e-07
2.14925e-07
2.15847e-07
2.17309e-07
2.19342e-07
2.21809e-07
2.24808e-07
2.28198e-07
2.3197e-07
2.35891e-07
2.39926e-07
2.44018e-07
2.48036e-07
2.52036e-07
2.56102e-07
2.60257e-07
2.64507e-07
2.69015e-07
2.73611e-07
2.78366e-07
2.83116e-07
2.87677e-07
2.921e-07
2.96136e-07
2.9969e-07
3.026e-07
3.04953e-07
3.06118e-07
3.07696e-07
3.11191e-07
3.17187e-07
3.28056e-07
3.42631e-07
3.49399e-07
3.39768e-07
3.19603e-07
3.56653e-07
7.13477e-07
5.14711e-07
1.37037e-06
2.1802e-06
1.88216e-06
2.0596e-06
1.89517e-06
1.7115e-06
1.54897e-06
1.39761e-06
1.26055e-06
1.13613e-06
1.02367e-06
9.23177e-07
8.33128e-07
7.53009e-07
6.81552e-07
6.18179e-07
5.6211e-07
5.12266e-07
4.68226e-07
4.29095e-07
3.94589e-07
3.64169e-07
3.36941e-07
3.13113e-07
2.92061e-07
2.73614e-07
2.57298e-07
2.4318e-07
2.30942e-07
2.20449e-07
2.11671e-07
2.04177e-07
1.98225e-07
1.93299e-07
1.89538e-07
1.86759e-07
1.84679e-07
1.83426e-07
1.82814e-07
1.83107e-07
1.83835e-07
1.85281e-07
1.87377e-07
1.89879e-07
1.92851e-07
1.9624e-07
2.00032e-07
2.03993e-07
2.08338e-07
2.12857e-07
2.17567e-07
2.22528e-07
2.2752e-07
2.32684e-07
2.37845e-07
2.43057e-07
2.48272e-07
2.53509e-07
2.58786e-07
2.64008e-07
2.69355e-07
2.74682e-07
2.80094e-07
2.85491e-07
2.90777e-07
2.95968e-07
3.00848e-07
3.05397e-07
3.0953e-07
3.13545e-07
3.16405e-07
3.18737e-07
3.22368e-07
3.28099e-07
3.38307e-07
3.51637e-07
3.57188e-07
3.52256e-07
3.51148e-07
4.32546e-07
7.53851e-07
5.30868e-07
1.50528e-06
2.01834e-06
1.68214e-06
1.96434e-06
1.84931e-06
1.70891e-06
1.57786e-06
1.44949e-06
1.32744e-06
1.21142e-06
1.1022e-06
1.00058e-06
9.061e-07
8.19291e-07
7.3957e-07
6.67027e-07
6.01267e-07
5.41788e-07
4.88438e-07
4.40525e-07
3.97882e-07
3.60112e-07
3.26512e-07
2.97158e-07
2.71429e-07
2.49167e-07
2.29917e-07
2.13531e-07
1.99613e-07
1.87992e-07
1.78451e-07
1.70622e-07
1.64474e-07
1.59645e-07
1.56129e-07
1.53616e-07
1.51984e-07
1.51136e-07
1.50904e-07
1.51295e-07
1.52051e-07
1.53323e-07
1.54911e-07
1.56796e-07
1.58951e-07
1.61394e-07
1.63999e-07
1.66753e-07
1.69746e-07
1.72831e-07
1.76129e-07
1.79547e-07
1.83104e-07
1.86832e-07
1.90613e-07
1.94574e-07
1.9864e-07
2.02914e-07
2.07371e-07
2.12003e-07
2.16962e-07
2.22081e-07
2.27412e-07
2.32825e-07
2.38247e-07
2.43624e-07
2.48679e-07
2.53354e-07
2.57452e-07
2.59847e-07
2.60826e-07
2.64255e-07
2.71573e-07
2.83029e-07
3.00125e-07
3.15581e-07
3.12825e-07
2.9397e-07
3.00116e-07
4.225e-07
6.41961e-07
4.78446e-07
1.51617e-06
)
;

boundaryField
{
    inlet
    {
        type            calculated;
        value           nonuniform List<scalar> 
23
(
5.70673e-06
5.67733e-06
5.64886e-06
5.62121e-06
5.5938e-06
5.56599e-06
5.53701e-06
5.50627e-06
5.47298e-06
5.43645e-06
5.39573e-06
5.35109e-06
5.30012e-06
5.22108e-06
5.15483e-06
5.074e-06
4.97361e-06
4.85152e-06
4.70492e-06
4.53285e-06
4.3285e-06
4.17071e-06
3.87426e-06
)
;
    }
    outlet
    {
        type            calculated;
        value           nonuniform List<scalar> 
82
(
2.03072e-06
1.97676e-06
1.69429e-06
1.8616e-06
1.72109e-06
1.58991e-06
1.46139e-06
1.33917e-06
1.22297e-06
1.11354e-06
1.01168e-06
9.16949e-07
8.29849e-07
7.498e-07
6.76884e-07
6.1071e-07
5.50762e-07
4.96886e-07
4.48376e-07
4.05064e-07
3.66552e-07
3.32113e-07
3.01834e-07
2.75077e-07
2.51692e-07
2.31226e-07
2.13533e-07
1.98233e-07
1.85162e-07
1.74138e-07
1.64785e-07
1.57119e-07
1.50783e-07
1.45792e-07
1.41853e-07
1.38845e-07
1.36696e-07
1.35228e-07
1.34478e-07
1.34164e-07
1.34458e-07
1.35148e-07
1.36203e-07
1.37604e-07
1.39372e-07
1.41373e-07
1.43587e-07
1.46117e-07
1.48781e-07
1.51692e-07
1.54718e-07
1.57859e-07
1.61135e-07
1.64415e-07
1.67851e-07
1.71389e-07
1.75182e-07
1.79247e-07
1.83602e-07
1.88437e-07
1.93545e-07
1.9895e-07
2.04471e-07
2.09995e-07
2.15464e-07
2.20554e-07
2.25127e-07
2.28834e-07
2.3034e-07
2.30502e-07
2.34025e-07
2.42433e-07
2.56181e-07
2.76547e-07
2.94384e-07
2.89945e-07
2.62354e-07
2.57393e-07
3.791e-07
6.17522e-07
3.87595e-07
1.37468e-06
)
;
    }
    walls
    {
        type            calculated;
        value           nonuniform List<scalar> 0();
    }
    frontAndBack
    {
        type            empty;
    }
    procBoundary3to2
    {
        type            processor;
        value           nonuniform List<scalar> 
88
(
6.94773e-07
1.35909e-06
1.57943e-07
6.32131e-07
6.32131e-07
1.65883e-07
2.70092e-07
2.70092e-07
3.17333e-07
2.78128e-07
2.59693e-07
2.59693e-07
4.61554e-07
4.26133e-07
3.97161e-07
3.70484e-07
3.42867e-07
3.42867e-07
6.59964e-07
6.16698e-07
5.73707e-07
5.31925e-07
4.91203e-07
4.91203e-07
9.23324e-07
8.80441e-07
8.38095e-07
7.96532e-07
7.55765e-07
7.15679e-07
6.76035e-07
6.76035e-07
1.32235e-06
1.28514e-06
1.24765e-06
1.20996e-06
1.17211e-06
1.13426e-06
1.09644e-06
1.05868e-06
1.02102e-06
9.83317e-07
9.45611e-07
9.08075e-07
9.08075e-07
2.60033e-06
3.17036e-06
2.81529e-06
2.56285e-06
2.51487e-06
2.48167e-06
2.44486e-06
2.40286e-06
2.36018e-06
2.31939e-06
2.28043e-06
2.24185e-06
2.20315e-06
2.16467e-06
2.12607e-06
2.08769e-06
2.04928e-06
2.01073e-06
1.97219e-06
1.93379e-06
1.89602e-06
1.85929e-06
1.82363e-06
1.78884e-06
1.75459e-06
1.72048e-06
1.68681e-06
1.65379e-06
1.62151e-06
1.5899e-06
1.55878e-06
1.52815e-06
1.49782e-06
1.46776e-06
1.43803e-06
1.40841e-06
1.379e-06
1.3496e-06
1.31998e-06
1.28995e-06
1.25999e-06
1.23104e-06
1.23104e-06
)
;
    }
    procBoundary3to6
    {
        type            processor;
        value           uniform 3.56813e-07;
    }
    procBoundary3to7
    {
        type            processor;
        value           nonuniform List<scalar> 
16
(
5.97175e-07
2.70711e-06
2.70534e-06
2.35871e-06
2.24719e-06
2.26126e-06
2.26091e-06
2.15533e-06
2.15533e-06
1.68784e-06
1.51174e-06
1.45983e-06
1.49181e-06
1.58951e-06
1.64045e-06
1.43367e-06
)
;
    }
}


// ************************************************************************* //
