/*--------------------------------*- C++ -*----------------------------------*\
| =========                 |                                                 |
| \\      /  F ield         | OpenFOAM: The Open Source CFD Toolbox           |
|  \\    /   O peration     | Version:  2306                                  |
|   \\  /    A nd           | Website:  www.openfoam.com                      |
|    \\/     M anipulation  |                                                 |
\*---------------------------------------------------------------------------*/
FoamFile
{
    version     2.0;
    format      ascii;
    arch        "LSB;label=32;scalar=64";
    class       volScalarField;
    location    "175";
    object      turbulenceProperties:I;
}
// * * * * * * * * * * * * * * * * * * * * * * * * * * * * * * * * * * * * * //

dimensions      [0 0 0 0 0 0 0];

internalField   nonuniform List<scalar> 
1340
(
2.63018e-05
3.69393e-05
1.24476e-05
2.53083e-05
2.62583e-05
3.69444e-05
1.32242e-05
1.6692e-05
1.23283e-05
2.53474e-05
2.62594e-05
3.69312e-05
1.78504e-05
1.67588e-05
1.62452e-05
1.35447e-05
1.68823e-05
1.22595e-05
2.53894e-05
2.62909e-05
3.69086e-05
2.13539e-05
2.05521e-05
1.98731e-05
1.92226e-05
1.85219e-05
1.78376e-05
1.68024e-05
1.63416e-05
1.38752e-05
1.70616e-05
1.22389e-05
2.54326e-05
2.6342e-05
3.68818e-05
2.5327e-05
2.4512e-05
2.3674e-05
2.28306e-05
2.19742e-05
2.11395e-05
2.03869e-05
1.97512e-05
1.91384e-05
1.84744e-05
1.78243e-05
1.68518e-05
1.64469e-05
1.42156e-05
1.72275e-05
1.22588e-05
2.54722e-05
2.64038e-05
3.68521e-05
2.96398e-05
2.89805e-05
2.83116e-05
2.76362e-05
2.69533e-05
2.62602e-05
2.55527e-05
2.48236e-05
2.40655e-05
2.32866e-05
2.25027e-05
2.17009e-05
2.09167e-05
2.02155e-05
1.96246e-05
1.90507e-05
1.84279e-05
1.78169e-05
1.69108e-05
1.65607e-05
1.45581e-05
1.73763e-05
1.23145e-05
2.5507e-05
2.64695e-05
3.68159e-05
3.47754e-05
3.43265e-05
3.38688e-05
3.33995e-05
3.29196e-05
3.24293e-05
3.19293e-05
3.14195e-05
3.08997e-05
3.03676e-05
2.98204e-05
2.92608e-05
2.86912e-05
2.81007e-05
2.74975e-05
2.68858e-05
2.62647e-05
2.56315e-05
2.49783e-05
2.43014e-05
2.36044e-05
2.28873e-05
2.2165e-05
2.14228e-05
2.06967e-05
2.00474e-05
1.95004e-05
1.89652e-05
1.83837e-05
1.78108e-05
1.69756e-05
1.668e-05
1.48995e-05
1.75053e-05
1.24025e-05
2.55356e-05
2.65294e-05
3.67779e-05
5.35505e-05
5.62383e-05
5.17037e-05
4.98034e-05
4.91084e-05
4.87419e-05
4.81965e-05
4.76425e-05
4.70914e-05
4.65701e-05
4.60727e-05
4.55875e-05
4.51092e-05
4.46363e-05
4.41721e-05
4.37117e-05
4.32545e-05
4.27998e-05
4.2347e-05
4.18986e-05
4.14582e-05
4.10301e-05
4.06156e-05
4.02124e-05
3.98155e-05
3.94218e-05
3.90321e-05
3.86496e-05
3.8275e-05
3.79098e-05
3.75513e-05
3.71983e-05
3.68497e-05
3.65043e-05
3.61624e-05
3.58228e-05
3.54845e-05
3.51472e-05
3.48065e-05
3.44618e-05
3.41119e-05
3.37407e-05
3.33635e-05
3.30137e-05
3.26478e-05
3.22522e-05
3.18471e-05
3.14319e-05
3.10069e-05
3.05728e-05
3.01298e-05
2.9677e-05
2.92134e-05
2.87364e-05
2.82389e-05
2.77248e-05
2.72023e-05
2.66664e-05
2.61188e-05
2.55595e-05
2.49864e-05
2.43934e-05
2.37786e-05
2.3142e-05
2.24867e-05
2.18259e-05
2.11431e-05
2.04745e-05
1.98781e-05
1.93744e-05
1.88778e-05
1.83386e-05
1.78049e-05
1.70458e-05
1.68042e-05
1.52385e-05
1.76136e-05
1.25185e-05
2.55535e-05
2.65796e-05
3.67403e-05
5.45629e-05
5.16556e-05
4.94204e-05
4.89229e-05
4.82946e-05
4.76344e-05
4.69195e-05
4.62455e-05
4.56019e-05
4.49907e-05
4.44009e-05
4.38281e-05
4.32708e-05
4.27282e-05
4.21995e-05
4.16806e-05
4.11709e-05
4.06714e-05
4.01824e-05
3.97074e-05
3.92502e-05
3.88108e-05
3.83869e-05
3.79743e-05
3.75695e-05
3.71721e-05
3.67854e-05
3.64104e-05
3.60487e-05
3.56989e-05
3.53587e-05
3.50271e-05
3.47029e-05
3.43859e-05
3.4076e-05
3.3772e-05
3.3473e-05
3.31765e-05
3.28787e-05
3.25782e-05
3.22765e-05
3.19692e-05
3.1646e-05
3.13206e-05
3.09987e-05
3.06623e-05
3.03173e-05
2.99621e-05
2.95982e-05
2.92262e-05
2.88458e-05
2.84561e-05
2.80567e-05
2.76451e-05
2.7215e-05
2.67702e-05
2.63124e-05
2.58397e-05
2.53534e-05
2.48538e-05
2.43394e-05
2.38055e-05
2.32506e-05
2.26748e-05
2.20817e-05
2.14828e-05
2.08601e-05
2.02502e-05
1.97073e-05
1.92464e-05
1.87889e-05
1.8293e-05
1.78001e-05
1.71215e-05
1.69335e-05
1.5573e-05
1.7701e-05
1.26546e-05
2.55662e-05
2.6613e-05
3.67097e-05
5.03462e-05
4.96079e-05
4.86556e-05
4.81034e-05
4.72631e-05
4.64706e-05
4.56891e-05
4.49494e-05
4.42375e-05
4.3552e-05
4.28865e-05
4.22431e-05
4.16192e-05
4.10132e-05
4.04241e-05
3.98501e-05
3.92918e-05
3.87515e-05
3.82315e-05
3.77322e-05
3.7256e-05
3.67987e-05
3.63568e-05
3.59259e-05
3.55071e-05
3.51019e-05
3.47118e-05
3.43389e-05
3.39821e-05
3.36395e-05
3.33093e-05
3.2991e-05
3.26834e-05
3.23871e-05
3.21019e-05
3.18261e-05
3.15574e-05
3.12926e-05
3.10285e-05
3.07627e-05
3.04999e-05
3.02404e-05
2.99695e-05
2.9695e-05
2.94187e-05
2.91322e-05
2.88385e-05
2.85361e-05
2.82269e-05
2.7911e-05
2.75876e-05
2.72564e-05
2.6917e-05
2.65665e-05
2.61993e-05
2.58177e-05
2.54214e-05
2.50088e-05
2.45816e-05
2.41405e-05
2.36844e-05
2.32097e-05
2.27152e-05
2.22016e-05
2.16716e-05
2.11349e-05
2.05733e-05
2.00239e-05
1.95348e-05
1.91159e-05
1.86982e-05
1.82462e-05
1.7796e-05
1.72029e-05
1.70677e-05
1.59009e-05
1.77684e-05
1.28097e-05
2.55567e-05
2.66403e-05
3.66916e-05
4.84611e-05
4.8371e-05
4.74192e-05
4.66476e-05
4.57523e-05
4.49312e-05
4.4128e-05
4.33574e-05
4.26096e-05
4.1885e-05
4.11821e-05
4.05008e-05
3.98395e-05
3.91975e-05
3.8575e-05
3.7973e-05
3.73926e-05
3.6837e-05
3.63063e-05
3.57992e-05
3.53145e-05
3.48475e-05
3.4395e-05
3.39565e-05
3.35354e-05
3.31314e-05
3.2747e-05
3.23828e-05
3.20352e-05
3.17036e-05
3.1386e-05
3.10832e-05
3.07937e-05
3.05194e-05
3.02586e-05
3.0009e-05
2.97673e-05
2.95303e-05
2.92948e-05
2.90613e-05
2.88347e-05
2.86156e-05
2.83877e-05
2.81532e-05
2.79162e-05
2.76724e-05
2.74227e-05
2.71667e-05
2.69061e-05
2.66403e-05
2.63691e-05
2.60917e-05
2.58082e-05
2.55147e-05
2.52067e-05
2.48842e-05
2.45452e-05
2.41899e-05
2.38196e-05
2.34346e-05
2.30355e-05
2.26196e-05
2.2185e-05
2.17332e-05
2.12657e-05
2.07905e-05
2.02895e-05
1.98004e-05
1.93643e-05
1.89861e-05
1.86081e-05
1.82001e-05
1.77946e-05
1.72901e-05
1.72074e-05
1.62163e-05
1.78191e-05
1.2954e-05
2.55336e-05
2.66408e-05
3.67117e-05
4.74444e-05
4.72223e-05
4.61122e-05
4.51827e-05
4.42222e-05
4.33291e-05
4.24637e-05
4.16345e-05
4.08342e-05
4.00638e-05
3.93206e-05
3.86031e-05
3.79114e-05
3.72441e-05
3.66028e-05
3.59897e-05
3.54033e-05
3.48444e-05
3.43121e-05
3.38021e-05
3.33123e-05
3.28396e-05
3.23835e-05
3.1947e-05
3.15307e-05
3.11357e-05
3.07639e-05
3.04117e-05
3.00767e-05
2.97584e-05
2.94579e-05
2.91738e-05
2.89069e-05
2.86565e-05
2.84213e-05
2.82014e-05
2.7985e-05
2.77748e-05
2.7569e-05
2.737e-05
2.718e-05
2.69993e-05
2.68095e-05
2.66112e-05
2.64139e-05
2.62098e-05
2.60021e-05
2.57912e-05
2.55762e-05
2.53592e-05
2.5138e-05
2.49126e-05
2.4684e-05
2.44462e-05
2.41951e-05
2.39306e-05
2.36485e-05
2.3349e-05
2.30359e-05
2.27071e-05
2.23654e-05
2.20101e-05
2.16368e-05
2.12482e-05
2.08449e-05
2.04332e-05
1.99943e-05
1.95674e-05
1.91851e-05
1.88487e-05
1.85115e-05
1.81496e-05
1.77936e-05
1.73829e-05
1.73551e-05
1.65267e-05
1.78514e-05
1.32188e-05
2.54362e-05
2.66931e-05
3.6734e-05
4.72225e-05
4.6964e-05
4.56483e-05
4.44909e-05
4.33362e-05
4.2255e-05
4.12221e-05
4.0237e-05
3.93015e-05
3.84126e-05
3.7562e-05
3.67596e-05
3.59932e-05
3.52658e-05
3.45777e-05
3.39287e-05
3.33081e-05
3.27218e-05
3.21648e-05
3.16297e-05
3.1122e-05
3.06329e-05
3.01711e-05
2.97353e-05
2.93221e-05
2.89345e-05
2.85713e-05
2.82278e-05
2.7905e-05
2.75987e-05
2.73169e-05
2.70552e-05
2.68121e-05
2.65851e-05
2.63798e-05
2.61852e-05
2.59937e-05
2.58112e-05
2.56395e-05
2.54794e-05
2.53275e-05
2.51842e-05
2.5028e-05
2.48703e-05
2.47162e-05
2.45531e-05
2.43923e-05
2.42313e-05
2.40654e-05
2.39028e-05
2.37378e-05
2.35699e-05
2.34039e-05
2.3228e-05
2.30394e-05
2.28388e-05
2.26208e-05
2.23833e-05
2.21342e-05
2.18708e-05
2.15958e-05
2.13101e-05
2.10083e-05
2.06935e-05
2.03646e-05
2.00252e-05
1.96581e-05
1.93034e-05
1.89811e-05
1.86908e-05
1.84008e-05
1.8093e-05
1.77962e-05
1.74973e-05
1.75186e-05
1.68824e-05
1.7803e-05
1.3721e-05
2.51746e-05
2.65522e-05
3.60888e-05
4.72395e-05
4.70132e-05
4.5644e-05
4.43396e-05
4.30447e-05
4.18161e-05
4.06287e-05
3.94958e-05
3.84152e-05
3.73864e-05
3.64067e-05
3.54842e-05
3.46046e-05
3.37754e-05
3.29932e-05
3.22562e-05
3.1552e-05
3.08931e-05
3.02655e-05
2.96732e-05
2.91179e-05
2.85888e-05
2.80985e-05
2.76422e-05
2.72093e-05
2.6808e-05
2.64324e-05
2.60805e-05
2.57564e-05
2.54521e-05
2.51759e-05
2.49261e-05
2.46952e-05
2.44815e-05
2.42916e-05
2.41064e-05
2.3933e-05
2.37732e-05
2.36301e-05
2.34983e-05
2.33758e-05
2.32551e-05
2.31279e-05
2.30084e-05
2.28873e-05
2.27657e-05
2.26506e-05
2.25359e-05
2.24218e-05
2.23132e-05
2.22074e-05
2.2101e-05
2.19987e-05
2.18879e-05
2.17656e-05
2.16304e-05
2.14787e-05
2.13094e-05
2.11299e-05
2.09391e-05
2.07396e-05
2.05314e-05
2.03107e-05
2.00783e-05
1.98313e-05
1.95724e-05
1.92862e-05
1.90106e-05
1.87529e-05
1.85132e-05
1.82765e-05
1.80314e-05
1.78078e-05
1.76346e-05
1.77088e-05
1.72522e-05
1.77257e-05
1.42468e-05
2.51396e-05
2.64205e-05
3.60477e-05
4.6141e-05
4.59358e-05
4.4691e-05
4.34296e-05
4.21808e-05
4.097e-05
3.97858e-05
3.86449e-05
3.75388e-05
3.64717e-05
3.54528e-05
3.44719e-05
3.35336e-05
3.26381e-05
3.17876e-05
3.09752e-05
3.02027e-05
2.94754e-05
2.87818e-05
2.81348e-05
2.75267e-05
2.69527e-05
2.64202e-05
2.59243e-05
2.54559e-05
2.50264e-05
2.46238e-05
2.42501e-05
2.39118e-05
2.35996e-05
2.33159e-05
2.30632e-05
2.28289e-05
2.26133e-05
2.24209e-05
2.2237e-05
2.2072e-05
2.19267e-05
2.17977e-05
2.16784e-05
2.15688e-05
2.14589e-05
2.13548e-05
2.12589e-05
2.11625e-05
2.10752e-05
2.09955e-05
2.09195e-05
2.08503e-05
2.07883e-05
2.07353e-05
2.0685e-05
2.06369e-05
2.05855e-05
2.0521e-05
2.04447e-05
2.03542e-05
2.02484e-05
2.01362e-05
2.00158e-05
1.98896e-05
1.97583e-05
1.9617e-05
1.9464e-05
1.92976e-05
1.91175e-05
1.89113e-05
1.87133e-05
1.85182e-05
1.83299e-05
1.81497e-05
1.79712e-05
1.78305e-05
1.77826e-05
1.79145e-05
1.75926e-05
1.76827e-05
1.47482e-05
2.52299e-05
2.60502e-05
3.60271e-05
4.42621e-05
4.22e-05
4.36516e-05
4.26416e-05
4.14836e-05
4.03699e-05
3.92641e-05
3.81841e-05
3.71245e-05
3.60896e-05
3.50777e-05
3.40983e-05
3.31442e-05
3.22219e-05
3.13309e-05
3.04765e-05
2.96526e-05
2.88665e-05
2.81198e-05
2.74069e-05
2.67372e-05
2.6102e-05
2.55045e-05
2.49452e-05
2.44196e-05
2.39305e-05
2.34763e-05
2.30562e-05
2.26681e-05
2.23179e-05
2.19971e-05
2.17035e-05
2.14427e-05
2.11989e-05
2.09779e-05
2.07824e-05
2.06006e-05
2.04442e-05
2.03084e-05
2.01846e-05
2.00722e-05
1.99674e-05
1.98691e-05
1.97821e-05
1.97021e-05
1.96311e-05
1.95705e-05
1.95195e-05
1.94784e-05
1.94472e-05
1.94264e-05
1.94178e-05
1.94143e-05
1.94119e-05
1.94082e-05
1.93909e-05
1.93638e-05
1.93257e-05
1.92751e-05
1.9222e-05
1.91651e-05
1.9105e-05
1.90428e-05
1.89722e-05
1.88906e-05
1.87969e-05
1.86884e-05
1.85555e-05
1.84278e-05
1.82898e-05
1.8151e-05
1.8028e-05
1.79181e-05
1.78663e-05
1.79384e-05
1.8124e-05
1.78913e-05
1.76666e-05
1.53368e-05
2.53817e-05
2.55746e-05
3.59991e-05
4.184e-05
3.98321e-05
4.12833e-05
4.02879e-05
3.91659e-05
3.81136e-05
3.708e-05
3.60759e-05
3.50941e-05
3.41369e-05
3.31999e-05
3.22864e-05
3.13972e-05
3.05307e-05
2.96922e-05
2.8878e-05
2.8094e-05
2.7339e-05
2.66173e-05
2.59239e-05
2.52644e-05
2.46362e-05
2.40439e-05
2.34829e-05
2.29553e-05
2.24644e-05
2.20054e-05
2.15852e-05
2.11941e-05
2.08382e-05
2.05114e-05
2.02122e-05
1.99431e-05
1.96933e-05
1.9473e-05
1.92793e-05
1.91072e-05
1.89568e-05
1.88274e-05
1.87077e-05
1.85997e-05
1.85037e-05
1.84186e-05
1.83484e-05
1.82894e-05
1.82433e-05
1.82099e-05
1.81888e-05
1.81828e-05
1.81898e-05
1.82083e-05
1.82409e-05
1.82792e-05
1.83166e-05
1.83537e-05
1.83779e-05
1.83935e-05
1.84021e-05
1.84023e-05
1.84032e-05
1.84037e-05
1.84038e-05
1.84028e-05
1.83954e-05
1.83774e-05
1.8348e-05
1.83042e-05
1.82377e-05
1.81728e-05
1.8087e-05
1.79964e-05
1.79297e-05
1.78893e-05
1.79288e-05
1.81111e-05
1.83397e-05
1.81595e-05
1.77004e-05
1.60945e-05
2.55953e-05
2.50123e-05
3.59823e-05
4.09113e-05
3.90996e-05
4.00452e-05
3.88314e-05
3.75362e-05
3.63576e-05
3.52368e-05
3.41743e-05
3.31644e-05
3.21968e-05
3.12682e-05
3.03765e-05
2.95172e-05
2.8687e-05
2.78884e-05
2.71156e-05
2.63731e-05
2.56587e-05
2.49717e-05
2.43126e-05
2.36816e-05
2.30826e-05
2.25116e-05
2.1971e-05
2.14637e-05
2.09859e-05
2.05415e-05
2.0131e-05
1.97441e-05
1.93917e-05
1.90649e-05
1.87673e-05
1.84984e-05
1.82535e-05
1.80417e-05
1.78591e-05
1.76938e-05
1.75505e-05
1.74255e-05
1.73088e-05
1.72077e-05
1.71254e-05
1.70549e-05
1.70016e-05
1.6967e-05
1.69435e-05
1.69384e-05
1.69476e-05
1.69751e-05
1.70174e-05
1.70722e-05
1.71423e-05
1.72149e-05
1.72868e-05
1.73587e-05
1.74195e-05
1.74743e-05
1.75262e-05
1.75744e-05
1.76258e-05
1.76787e-05
1.77338e-05
1.77887e-05
1.7837e-05
1.78764e-05
1.79047e-05
1.79189e-05
1.7912e-05
1.79018e-05
1.78633e-05
1.7821e-05
1.78123e-05
1.78439e-05
1.79764e-05
1.82551e-05
1.85042e-05
1.83344e-05
1.77258e-05
1.69239e-05
2.58613e-05
2.43093e-05
3.60112e-05
4.15795e-05
3.96911e-05
4.03689e-05
3.88393e-05
3.71904e-05
3.57184e-05
3.43321e-05
3.3045e-05
3.1847e-05
3.07252e-05
2.96751e-05
2.86886e-05
2.77588e-05
2.68794e-05
2.60471e-05
2.52572e-05
2.45069e-05
2.37947e-05
2.31146e-05
2.24691e-05
2.18579e-05
2.12788e-05
2.07299e-05
2.02116e-05
1.97284e-05
1.92725e-05
1.8847e-05
1.84539e-05
1.80851e-05
1.7749e-05
1.74404e-05
1.71638e-05
1.69169e-05
1.66992e-05
1.65134e-05
1.63542e-05
1.62102e-05
1.60895e-05
1.59837e-05
1.58941e-05
1.58214e-05
1.57738e-05
1.57404e-05
1.57263e-05
1.57332e-05
1.57507e-05
1.57921e-05
1.58458e-05
1.59178e-05
1.60049e-05
1.61032e-05
1.62122e-05
1.6321e-05
1.64308e-05
1.65372e-05
1.66363e-05
1.67327e-05
1.68278e-05
1.69225e-05
1.70216e-05
1.71223e-05
1.72259e-05
1.73291e-05
1.74248e-05
1.75145e-05
1.75933e-05
1.76579e-05
1.77041e-05
1.77444e-05
1.77518e-05
1.77537e-05
1.77945e-05
1.78864e-05
1.80965e-05
1.84441e-05
1.86953e-05
1.85387e-05
1.79528e-05
1.80815e-05
2.62813e-05
2.36347e-05
3.6226e-05
4.37574e-05
4.13715e-05
4.23243e-05
4.0519e-05
3.85417e-05
3.67489e-05
3.5046e-05
3.34586e-05
3.19763e-05
3.05952e-05
2.93114e-05
2.81178e-05
2.70065e-05
2.59718e-05
2.50082e-05
2.41099e-05
2.32703e-05
2.24853e-05
2.17487e-05
2.10625e-05
2.04195e-05
1.98154e-05
1.92525e-05
1.87236e-05
1.8235e-05
1.77765e-05
1.73508e-05
1.69592e-05
1.65997e-05
1.62738e-05
1.59777e-05
1.57195e-05
1.54888e-05
1.52886e-05
1.51189e-05
1.49681e-05
1.4837e-05
1.47245e-05
1.46352e-05
1.4564e-05
1.45108e-05
1.44874e-05
1.44798e-05
1.44922e-05
1.45238e-05
1.45734e-05
1.4642e-05
1.47246e-05
1.48244e-05
1.49363e-05
1.50599e-05
1.51873e-05
1.53175e-05
1.54484e-05
1.5576e-05
1.57021e-05
1.58294e-05
1.59584e-05
1.60894e-05
1.62273e-05
1.63669e-05
1.65103e-05
1.66528e-05
1.67889e-05
1.69204e-05
1.70402e-05
1.71459e-05
1.72331e-05
1.73045e-05
1.73415e-05
1.73896e-05
1.74921e-05
1.76647e-05
1.79717e-05
1.83768e-05
1.85715e-05
1.83291e-05
1.77859e-05
1.87808e-05
2.65139e-05
2.24563e-05
3.66015e-05
4.59706e-05
4.27043e-05
4.46894e-05
4.28762e-05
4.07526e-05
3.87757e-05
3.68383e-05
3.49906e-05
3.32236e-05
3.15407e-05
2.99562e-05
2.84612e-05
2.70611e-05
2.57479e-05
2.45241e-05
2.33878e-05
2.23289e-05
2.13493e-05
2.04395e-05
1.9602e-05
1.88327e-05
1.81162e-05
1.74651e-05
1.68689e-05
1.63285e-05
1.58352e-05
1.53955e-05
1.50039e-05
1.46599e-05
1.43658e-05
1.411e-05
1.39034e-05
1.37302e-05
1.35966e-05
1.34971e-05
1.34223e-05
1.33772e-05
1.33553e-05
1.33665e-05
1.33935e-05
1.34464e-05
1.35227e-05
1.3613e-05
1.37194e-05
1.38398e-05
1.39732e-05
1.41111e-05
1.42609e-05
1.44151e-05
1.4574e-05
1.47396e-05
1.49046e-05
1.50733e-05
1.52402e-05
1.5407e-05
1.55722e-05
1.57364e-05
1.59003e-05
1.60609e-05
1.62239e-05
1.6385e-05
1.65474e-05
1.67081e-05
1.68645e-05
1.70172e-05
1.71602e-05
1.72932e-05
1.7414e-05
1.75311e-05
1.76148e-05
1.76832e-05
1.77876e-05
1.79502e-05
1.82347e-05
1.86014e-05
1.87623e-05
1.86475e-05
1.86258e-05
2.06598e-05
2.72192e-05
2.27771e-05
3.83098e-05
4.41866e-05
4.03314e-05
4.35994e-05
4.23111e-05
4.06803e-05
3.9096e-05
3.74781e-05
3.58711e-05
3.4273e-05
3.26962e-05
3.11569e-05
2.96535e-05
2.82008e-05
2.67969e-05
2.54517e-05
2.41672e-05
2.29431e-05
2.17863e-05
2.06921e-05
1.96668e-05
1.87116e-05
1.78187e-05
1.7e-05
1.62485e-05
1.55689e-05
1.49563e-05
1.44143e-05
1.39373e-05
1.35262e-05
1.31791e-05
1.28873e-05
1.26534e-05
1.24667e-05
1.23291e-05
1.22298e-05
1.2165e-05
1.21314e-05
1.21223e-05
1.21382e-05
1.21687e-05
1.22196e-05
1.22829e-05
1.23575e-05
1.24422e-05
1.25375e-05
1.26384e-05
1.27441e-05
1.2858e-05
1.29744e-05
1.30978e-05
1.32244e-05
1.3355e-05
1.34905e-05
1.36267e-05
1.3768e-05
1.39115e-05
1.40609e-05
1.42151e-05
1.43737e-05
1.45418e-05
1.47135e-05
1.48905e-05
1.50684e-05
1.5245e-05
1.54186e-05
1.55807e-05
1.57299e-05
1.58603e-05
1.59378e-05
1.59713e-05
1.60792e-05
1.63043e-05
1.665e-05
1.71533e-05
1.76008e-05
1.75375e-05
1.70128e-05
1.71922e-05
2.03773e-05
2.50602e-05
2.15817e-05
3.83017e-05
)
;

boundaryField
{
    inlet
    {
        type            calculated;
        value           nonuniform List<scalar> 
23
(
7.52854e-05
7.50741e-05
7.48685e-05
7.4668e-05
7.44686e-05
7.42661e-05
7.40551e-05
7.38317e-05
7.35903e-05
7.3326e-05
7.30318e-05
7.27091e-05
7.23397e-05
7.17768e-05
7.13036e-05
7.07272e-05
7.0007e-05
6.91234e-05
6.80493e-05
6.67688e-05
6.521e-05
6.3973e-05
6.15546e-05
)
;
    }
    outlet
    {
        type            calculated;
        value           nonuniform List<scalar> 
82
(
4.43233e-05
4.37383e-05
4.04781e-05
4.24527e-05
4.08261e-05
3.9246e-05
3.76325e-05
3.60303e-05
3.44369e-05
3.28648e-05
3.13301e-05
2.98312e-05
2.83827e-05
2.69823e-05
2.56397e-05
2.43568e-05
2.31329e-05
2.19744e-05
2.08762e-05
1.9844e-05
1.88786e-05
1.79712e-05
1.71336e-05
1.63577e-05
1.56479e-05
1.49991e-05
1.44146e-05
1.38894e-05
1.34243e-05
1.30191e-05
1.26652e-05
1.23675e-05
1.2116e-05
1.19142e-05
1.17525e-05
1.16275e-05
1.15375e-05
1.14756e-05
1.1444e-05
1.14308e-05
1.14435e-05
1.14729e-05
1.15177e-05
1.15768e-05
1.1651e-05
1.17344e-05
1.1826e-05
1.19298e-05
1.20382e-05
1.21555e-05
1.22763e-05
1.24005e-05
1.25287e-05
1.26559e-05
1.27879e-05
1.29224e-05
1.3065e-05
1.32163e-05
1.33766e-05
1.35524e-05
1.3736e-05
1.39278e-05
1.41214e-05
1.43129e-05
1.45004e-05
1.46735e-05
1.4828e-05
1.4953e-05
1.50059e-05
1.50144e-05
1.51318e-05
1.54049e-05
1.58408e-05
1.6466e-05
1.69996e-05
1.68841e-05
1.60719e-05
1.59216e-05
1.93025e-05
2.45789e-05
1.94254e-05
3.64721e-05
)
;
    }
    walls
    {
        type            calculated;
        value           nonuniform List<scalar> 0();
    }
    frontAndBack
    {
        type            empty;
    }
    procBoundary3to2
    {
        type            processor;
        value           nonuniform List<scalar> 
88
(
2.63994e-05
3.69262e-05
1.2617e-05
2.52624e-05
2.52624e-05
1.29193e-05
1.64931e-05
1.64931e-05
1.78675e-05
1.67246e-05
1.61598e-05
1.61598e-05
2.15623e-05
2.07133e-05
1.99931e-05
1.93065e-05
1.85696e-05
1.85696e-05
2.58113e-05
2.49421e-05
2.40489e-05
2.31492e-05
2.22389e-05
2.22389e-05
3.05617e-05
2.98372e-05
2.91042e-05
2.83664e-05
2.76237e-05
2.68737e-05
2.61111e-05
2.61111e-05
3.65405e-05
3.60262e-05
3.54995e-05
3.49612e-05
3.44114e-05
3.38517e-05
3.32823e-05
3.27032e-05
3.21144e-05
3.15134e-05
3.09001e-05
3.02768e-05
3.02768e-05
5.07369e-05
5.60315e-05
5.2809e-05
5.03939e-05
4.99281e-05
4.96058e-05
4.9245e-05
4.88288e-05
4.84018e-05
4.79906e-05
4.75949e-05
4.71997e-05
4.67998e-05
4.63987e-05
4.59926e-05
4.55851e-05
4.51735e-05
4.47563e-05
4.4335e-05
4.3911e-05
4.34898e-05
4.30763e-05
4.26708e-05
4.22714e-05
4.18743e-05
4.14749e-05
4.10764e-05
4.06816e-05
4.02917e-05
3.99059e-05
3.95222e-05
3.91405e-05
3.87584e-05
3.83755e-05
3.79926e-05
3.76068e-05
3.72192e-05
3.68272e-05
3.64272e-05
3.60165e-05
3.56013e-05
3.5195e-05
3.5195e-05
)
;
    }
    procBoundary3to6
    {
        type            processor;
        value           uniform 1.87915e-05;
    }
    procBoundary3to7
    {
        type            processor;
        value           nonuniform List<scalar> 
16
(
2.42733e-05
5.1621e-05
5.15539e-05
4.81012e-05
4.69204e-05
4.70305e-05
4.69834e-05
4.58373e-05
4.58373e-05
4.05322e-05
3.83428e-05
3.76625e-05
3.80577e-05
3.92584e-05
3.98622e-05
3.7229e-05
)
;
    }
}


// ************************************************************************* //
