/*--------------------------------*- C++ -*----------------------------------*\
| =========                 |                                                 |
| \\      /  F ield         | OpenFOAM: The Open Source CFD Toolbox           |
|  \\    /   O peration     | Version:  2306                                  |
|   \\  /    A nd           | Website:  www.openfoam.com                      |
|    \\/     M anipulation  |                                                 |
\*---------------------------------------------------------------------------*/
FoamFile
{
    version     2.0;
    format      ascii;
    arch        "LSB;label=32;scalar=64";
    class       volVectorField;
    location    "650";
    object      momentError;
}
// * * * * * * * * * * * * * * * * * * * * * * * * * * * * * * * * * * * * * //

dimensions      [0 1 -2 0 0 0 0];

internalField   nonuniform List<vector> 
1340
(
(5.64223e-09 4.14031e-07 -7.39662e-16)
(1.63669e-07 8.66366e-07 -1.09303e-16)
(1.05052e-07 8.13386e-07 -7.61666e-16)
(2.36729e-07 7.05808e-07 3.80758e-15)
(2.41258e-07 7.55073e-07 -5.74733e-17)
(1.283e-07 7.48617e-07 1.22431e-15)
(2.24067e-07 7.03601e-07 -8.40299e-16)
(2.79176e-07 6.99385e-07 3.98106e-15)
(2.51008e-07 7.5101e-07 3.27879e-16)
(1.19983e-07 7.29445e-07 -1.89476e-15)
(2.45049e-07 7.89476e-07 -1.92696e-15)
(2.25657e-07 7.45917e-07 -1.60869e-15)
(2.42095e-07 7.04691e-07 -1.14752e-15)
(2.71272e-07 7.01715e-07 -1.40695e-15)
(2.24098e-07 7.14333e-07 -3.27567e-16)
(1.11957e-07 7.06939e-07 -1.06215e-15)
(3.55052e-07 9.20646e-07 -6.14265e-16)
(3.1674e-07 8.14647e-07 4.86059e-17)
(2.84943e-07 7.6931e-07 -4.69377e-15)
(2.60335e-07 7.47755e-07 -2.57509e-15)
(2.43725e-07 7.16257e-07 1.25474e-15)
(2.32493e-07 6.98296e-07 -1.57594e-15)
(2.03584e-07 7.01882e-07 -8.49849e-16)
(9.83179e-08 6.88025e-07 2.6612e-15)
(6.11287e-07 1.38456e-06 -3.26936e-15)
(5.23531e-07 1.24219e-06 -4.23872e-15)
(4.30263e-07 1.08084e-06 -2.67336e-15)
(3.76769e-07 9.01437e-07 -6.48489e-18)
(3.73374e-07 8.03724e-07 -1.54766e-16)
(3.20599e-07 7.72308e-07 1.87989e-15)
(2.78306e-07 7.38785e-07 8.19434e-16)
(2.27906e-07 7.12856e-07 -2.12805e-16)
(2.12075e-07 7.0415e-07 7.75838e-16)
(1.79435e-07 6.91821e-07 5.70464e-17)
(8.39609e-08 6.74395e-07 -6.44685e-16)
(9.94604e-07 1.71242e-06 -8.15366e-16)
(8.73396e-07 1.52439e-06 1.23721e-15)
(7.47688e-07 1.40823e-06 3.37326e-16)
(6.48111e-07 1.30791e-06 -3.97566e-16)
(5.51296e-07 1.19383e-06 -1.53645e-15)
(4.70436e-07 1.04386e-06 -2.70432e-15)
(4.08439e-07 9.10553e-07 -5.42606e-16)
(4.05955e-07 7.99987e-07 1.41887e-16)
(3.32021e-07 7.45605e-07 1.94725e-15)
(2.77877e-07 7.34219e-07 4.49706e-16)
(2.2802e-07 7.12657e-07 -1.01406e-15)
(1.93537e-07 7.07656e-07 1.3228e-15)
(1.58548e-07 6.87664e-07 5.05551e-16)
(7.01537e-08 6.63853e-07 8.89298e-16)
(2.11822e-06 1.97456e-06 -1.04905e-15)
(1.79304e-06 1.90458e-06 2.93817e-16)
(1.51027e-06 1.83754e-06 1.17442e-16)
(1.22585e-06 1.71797e-06 -1.09926e-16)
(1.01756e-06 1.58109e-06 -4.5305e-16)
(8.77738e-07 1.44377e-06 2.17502e-15)
(7.70605e-07 1.33283e-06 2.67529e-16)
(6.85967e-07 1.25817e-06 9.0393e-16)
(5.87067e-07 1.14265e-06 -1.61446e-16)
(5.09527e-07 1.00915e-06 1.19923e-15)
(4.51215e-07 8.79433e-07 5.01644e-16)
(4.02963e-07 7.92027e-07 -1.66792e-16)
(3.4941e-07 7.35018e-07 -1.35732e-15)
(2.90518e-07 7.1957e-07 -3.62283e-16)
(2.30135e-07 7.05346e-07 5.21661e-16)
(1.8417e-07 7.07992e-07 -8.03853e-16)
(1.41688e-07 6.82574e-07 1.34952e-16)
(5.94779e-08 6.55899e-07 2.69295e-16)
(4.24015e-06 1.09626e-06 -9.97605e-16)
(3.8243e-06 1.23481e-06 -1.96761e-16)
(3.32216e-06 1.38475e-06 1.45625e-16)
(2.93426e-06 1.52519e-06 1.44021e-15)
(2.46331e-06 1.58472e-06 -1.2886e-16)
(2.10594e-06 1.61597e-06 -8.38466e-16)
(1.76991e-06 1.66854e-06 1.59349e-15)
(1.48485e-06 1.59873e-06 5.30193e-16)
(1.23847e-06 1.54979e-06 1.06274e-16)
(1.04513e-06 1.45944e-06 3.03783e-16)
(8.87909e-07 1.34178e-06 -4.85143e-16)
(7.98449e-07 1.26482e-06 -6.72412e-17)
(6.99416e-07 1.18333e-06 -1.9069e-15)
(6.07679e-07 1.08525e-06 -2.87817e-16)
(5.30014e-07 9.71737e-07 2.21566e-16)
(4.69427e-07 8.61767e-07 -4.57906e-16)
(4.17176e-07 7.7137e-07 6.36184e-17)
(3.60511e-07 7.13355e-07 -4.45176e-16)
(3.00807e-07 7.05109e-07 -1.88455e-16)
(2.36336e-07 6.92944e-07 2.8291e-17)
(1.8102e-07 7.02124e-07 -1.03146e-15)
(1.30314e-07 6.76877e-07 -1.56654e-16)
(5.20286e-08 6.47175e-07 -1.50211e-15)
(6.1913e-06 -1.57892e-06 1.20366e-16)
(5.89496e-06 -1.10857e-06 -2.1152e-16)
(5.5763e-06 -6.92386e-07 5.66135e-17)
(5.24148e-06 -3.29199e-07 -1.62225e-16)
(4.87885e-06 -3.22879e-08 -6.50227e-16)
(4.5329e-06 2.53981e-07 2.20258e-16)
(4.1475e-06 4.5254e-07 1.53084e-16)
(3.78806e-06 6.4245e-07 -1.10366e-15)
(3.40882e-06 7.99711e-07 -2.67571e-16)
(3.07216e-06 9.75783e-07 -3.24916e-16)
(2.70066e-06 1.13575e-06 -4.48937e-16)
(2.35121e-06 1.22239e-06 -4.23392e-17)
(2.05498e-06 1.33212e-06 1.17027e-15)
(1.73859e-06 1.36259e-06 6.60853e-16)
(1.46177e-06 1.40882e-06 -2.06316e-16)
(1.24382e-06 1.37502e-06 2.76169e-16)
(1.0321e-06 1.30999e-06 2.98702e-17)
(9.03148e-07 1.24188e-06 -8.30269e-17)
(7.9826e-07 1.18148e-06 -3.35767e-17)
(7.05931e-07 1.11775e-06 1.08009e-15)
(6.1331e-07 1.0323e-06 1.17893e-15)
(5.38829e-07 9.30754e-07 4.41838e-17)
(4.77668e-07 8.2755e-07 4.83616e-16)
(4.21503e-07 7.51873e-07 -7.66158e-17)
(3.67573e-07 6.95978e-07 9.60667e-16)
(3.08235e-07 6.82188e-07 6.34035e-16)
(2.43575e-07 6.74381e-07 1.15784e-16)
(1.81282e-07 6.90842e-07 2.16755e-16)
(1.23329e-07 6.65677e-07 1.02914e-15)
(4.76303e-08 6.37296e-07 4.72832e-16)
(4.7159e-06 -6.98894e-06 -1.74717e-17)
(4.8071e-06 -6.70325e-06 -1.88773e-18)
(4.89347e-06 -6.30527e-06 -2.15045e-18)
(4.99277e-06 -5.91277e-06 1.58932e-17)
(5.07442e-06 -5.49426e-06 2.53911e-17)
(5.15325e-06 -5.08305e-06 1.17448e-16)
(5.21368e-06 -4.60714e-06 2.50332e-17)
(5.25388e-06 -4.13753e-06 4.81495e-17)
(5.26626e-06 -3.63908e-06 5.10627e-18)
(5.24055e-06 -3.1633e-06 -2.01817e-16)
(5.18612e-06 -2.68818e-06 -7.92446e-17)
(5.08708e-06 -2.21509e-06 -2.45072e-16)
(4.95437e-06 -1.75689e-06 -2.00374e-16)
(4.77829e-06 -1.35327e-06 -3.5251e-16)
(4.58267e-06 -9.74778e-07 1.52842e-16)
(4.35452e-06 -6.65039e-07 -3.58813e-16)
(4.1118e-06 -3.6124e-07 -4.20556e-17)
(3.86074e-06 -1.20296e-07 4.86963e-16)
(3.57623e-06 9.80558e-08 -1.47107e-16)
(3.32941e-06 2.92224e-07 6.30361e-16)
(3.03741e-06 4.86933e-07 -9.12747e-17)
(2.80349e-06 6.39548e-07 -2.34211e-17)
(2.49386e-06 7.96231e-07 1.39112e-16)
(2.25128e-06 9.33512e-07 8.24779e-17)
(1.96913e-06 1.02372e-06 -4.60902e-16)
(1.70815e-06 1.11656e-06 -7.79489e-16)
(1.46755e-06 1.1573e-06 1.73673e-16)
(1.23597e-06 1.19136e-06 -5.153e-16)
(1.0512e-06 1.17392e-06 -1.48761e-16)
(9.10571e-07 1.12933e-06 3.54882e-17)
(8.02141e-07 1.09361e-06 3.79422e-17)
(7.00196e-07 1.03822e-06 8.91028e-16)
(6.09691e-07 9.69776e-07 -3.64324e-16)
(5.35833e-07 8.91025e-07 5.19839e-16)
(4.75516e-07 8.02405e-07 -6.75764e-16)
(4.19057e-07 7.24399e-07 2.24067e-16)
(3.6706e-07 6.69833e-07 -6.80932e-16)
(3.1139e-07 6.61741e-07 1.0484e-15)
(2.47049e-07 6.52909e-07 9.38497e-16)
(1.82072e-07 6.73206e-07 -1.81504e-17)
(1.19226e-07 6.52222e-07 -1.36186e-16)
(4.53678e-08 6.24312e-07 8.39012e-17)
(-4.21572e-06 -4.60571e-06 -1.75115e-17)
(3.71363e-06 -7.31107e-06 1.36802e-17)
(-2.67262e-06 -8.13416e-06 -3.83356e-17)
(-9.85806e-06 -7.477e-06 -5.97151e-18)
(9.65664e-07 -9.30501e-06 2.98055e-17)
(-4.19798e-06 -1.13504e-05 -1.796e-17)
(2.01062e-06 -9.99313e-06 -4.17217e-17)
(-6.37788e-06 -9.89226e-06 1.16899e-17)
(-1.17947e-05 -9.62844e-06 1.54e-17)
(-1.67685e-05 -9.73126e-06 -4.60346e-17)
(-2.06928e-05 -9.59836e-06 -3.38482e-17)
(-2.38868e-05 -9.70623e-06 -6.71939e-18)
(-2.47929e-05 -9.74612e-06 -1.59018e-17)
(-2.27236e-05 -9.66276e-06 4.95162e-17)
(-1.71975e-05 -9.23054e-06 5.15885e-17)
(-8.89645e-06 -8.43351e-06 -8.08647e-17)
(5.04059e-07 -7.49225e-06 -1.41932e-16)
(8.40307e-06 -6.65518e-06 -2.56435e-17)
(1.33122e-05 -6.82351e-06 3.23782e-17)
(4.01534e-05 -5.76491e-06 -2.36322e-17)
(0.000193327 2.77499e-05 2.10242e-17)
(0.000237542 7.54685e-05 -4.9291e-17)
(-0.000338037 -5.10896e-05 1.20965e-16)
(-0.000124245 -4.04027e-05 -9.95886e-17)
(3.9167e-05 -5.12866e-06 -1.44302e-16)
(-5.57518e-06 -1.13334e-05 -1.32776e-17)
(-2.91834e-06 -1.18848e-05 -1.71579e-18)
(1.85099e-06 -1.18356e-05 -8.08785e-17)
(1.96499e-06 -1.18377e-05 -8.39571e-18)
(2.05974e-06 -1.12236e-05 -3.13472e-17)
(2.25631e-06 -1.04408e-05 1.78891e-17)
(2.40975e-06 -9.62669e-06 1.37511e-16)
(2.6763e-06 -8.97962e-06 1.38776e-17)
(2.84947e-06 -8.43041e-06 6.30451e-17)
(3.06493e-06 -8.0006e-06 -3.02481e-17)
(3.16009e-06 -7.63096e-06 1.2682e-17)
(3.3372e-06 -7.10786e-06 2.63325e-17)
(3.37149e-06 -6.6382e-06 1.45748e-17)
(3.48528e-06 -6.33784e-06 -1.31083e-18)
(3.53945e-06 -5.8828e-06 4.73957e-21)
(3.6485e-06 -5.48423e-06 4.25163e-17)
(3.69682e-06 -5.05951e-06 2.75589e-17)
(3.79827e-06 -4.6479e-06 6.3477e-17)
(3.8448e-06 -4.2083e-06 2.43414e-17)
(3.92016e-06 -3.78983e-06 6.31983e-17)
(3.94157e-06 -3.3683e-06 -9.21358e-17)
(3.97407e-06 -2.96664e-06 -3.25751e-16)
(3.95976e-06 -2.56371e-06 2.58577e-16)
(3.94511e-06 -2.18254e-06 -3.07495e-17)
(3.87608e-06 -1.79834e-06 1.10981e-16)
(3.79651e-06 -1.4533e-06 1.04518e-16)
(3.68431e-06 -1.13045e-06 5.71934e-17)
(3.55026e-06 -8.41665e-07 1.23007e-16)
(3.41198e-06 -5.80881e-07 3.44977e-17)
(3.2363e-06 -3.42892e-07 -1.65828e-16)
(3.08374e-06 -1.40737e-07 -9.43907e-17)
(2.89346e-06 5.20191e-08 2.33117e-16)
(2.72355e-06 2.15581e-07 2.15779e-17)
(2.51329e-06 3.90802e-07 2.08553e-16)
(2.33331e-06 5.34324e-07 -5.0376e-17)
(2.10773e-06 6.65215e-07 -2.16214e-16)
(1.89619e-06 7.71676e-07 -6.23669e-16)
(1.68128e-06 8.57049e-07 -5.69441e-16)
(1.47031e-06 9.52706e-07 4.374e-16)
(1.2737e-06 9.9069e-07 -3.18395e-16)
(1.07231e-06 1.0056e-06 1.5453e-16)
(9.30533e-07 9.95709e-07 -2.87185e-16)
(8.11365e-07 9.79093e-07 -2.06873e-16)
(7.06139e-07 9.50556e-07 -5.60395e-16)
(6.14536e-07 9.06351e-07 -5.06377e-16)
(5.32854e-07 8.42024e-07 -9.13032e-16)
(4.66763e-07 7.62068e-07 4.07669e-16)
(4.10395e-07 7.00107e-07 -2.6927e-16)
(3.58666e-07 6.50661e-07 7.43574e-16)
(3.06826e-07 6.34831e-07 2.62327e-16)
(2.45631e-07 6.2785e-07 -5.61151e-17)
(1.82211e-07 6.52264e-07 1.63644e-16)
(1.16025e-07 6.32931e-07 -2.78212e-16)
(4.54034e-08 6.08636e-07 -1.26747e-16)
(1.67905e-05 -1.34638e-05 1.5471e-17)
(1.80129e-05 -1.50687e-05 -1.68926e-17)
(1.0901e-05 -1.29056e-05 -3.54636e-17)
(8.9498e-06 -1.20801e-05 3.1629e-18)
(8.60349e-06 -1.32584e-05 1.77769e-17)
(8.5155e-06 -1.32289e-05 -6.07685e-18)
(7.89897e-06 -1.2769e-05 -4.20731e-18)
(7.27146e-06 -1.19406e-05 -8.26916e-18)
(2.0553e-06 -1.19051e-05 -3.43204e-18)
(-2.38574e-06 -1.1881e-05 -1.66269e-17)
(-6.22941e-07 -1.09448e-05 -2.33098e-17)
(-6.55609e-06 -1.21417e-05 1.3982e-17)
(-8.90479e-06 -1.21025e-05 -8.29151e-18)
(-1.20672e-05 -1.26943e-05 -4.66528e-18)
(-1.28348e-05 -1.28301e-05 1.17078e-17)
(-1.11832e-05 -1.25517e-05 -4.29144e-17)
(-6.79146e-06 -1.17505e-05 2.0843e-17)
(-4.22823e-07 -1.05801e-05 3.46108e-17)
(8.52773e-06 -9.04143e-06 -4.05517e-17)
(3.84047e-05 -2.16346e-06 -4.1697e-17)
(6.46647e-05 1.16417e-05 -4.42422e-17)
(-0.000136991 -2.68983e-05 6.13373e-18)
(-5.89337e-05 -4.87111e-05 3.61487e-17)
(9.30696e-05 -4.78565e-06 -5.43161e-17)
(5.61737e-05 -3.97939e-06 1.90513e-17)
(-1.80461e-06 -9.57333e-06 -1.87365e-17)
(-4.29973e-06 -9.5044e-06 2.28571e-18)
(-9.63577e-07 -9.16003e-06 -3.89767e-17)
(-5.72568e-07 -9.04578e-06 1.40016e-17)
(3.6394e-08 -8.71011e-06 -1.9551e-17)
(4.5978e-07 -8.24385e-06 5.31453e-17)
(6.80942e-07 -7.78636e-06 2.50419e-17)
(9.43475e-07 -7.3791e-06 -1.93722e-17)
(1.21453e-06 -7.07551e-06 -2.47802e-17)
(1.50195e-06 -6.8209e-06 -2.88731e-17)
(1.72849e-06 -6.56192e-06 1.78009e-17)
(1.94801e-06 -6.30859e-06 1.95952e-17)
(2.06385e-06 -6.02085e-06 7.68186e-19)
(2.22218e-06 -5.62751e-06 -1.74152e-17)
(2.33017e-06 -5.28499e-06 1.97817e-18)
(2.45207e-06 -4.90949e-06 -2.243e-17)
(2.54187e-06 -4.55228e-06 -1.62089e-17)
(2.64548e-06 -4.16739e-06 -1.03025e-17)
(2.7197e-06 -3.8087e-06 -6.21814e-18)
(2.80135e-06 -3.43354e-06 -2.56728e-17)
(2.85564e-06 -3.08019e-06 -1.32903e-17)
(2.91324e-06 -2.71668e-06 1.0877e-16)
(2.94444e-06 -2.37843e-06 1.79307e-16)
(2.9715e-06 -2.04038e-06 1.10018e-16)
(2.97143e-06 -1.73772e-06 5.3623e-17)
(2.95791e-06 -1.43914e-06 -3.65495e-18)
(2.91924e-06 -1.17024e-06 4.34596e-17)
(2.86523e-06 -9.15044e-07 -6.80903e-18)
(2.79327e-06 -6.83172e-07 1.12279e-17)
(2.70843e-06 -4.70025e-07 8.73654e-17)
(2.60876e-06 -2.77907e-07 2.77098e-16)
(2.50256e-06 -1.11959e-07 -4.87245e-16)
(2.38002e-06 5.72713e-08 7.24743e-17)
(2.25835e-06 2.01092e-07 -1.72208e-16)
(2.10315e-06 3.39386e-07 5.16995e-16)
(1.95487e-06 4.50522e-07 -4.47503e-19)
(1.78405e-06 5.62353e-07 4.14216e-16)
(1.62644e-06 6.65965e-07 6.97287e-16)
(1.44935e-06 7.37938e-07 -3.77808e-16)
(1.26483e-06 7.9892e-07 3.9197e-16)
(1.09055e-06 8.30288e-07 -2.33574e-16)
(9.52098e-07 8.47527e-07 -3.25908e-16)
(8.32589e-07 8.55828e-07 -1.7689e-16)
(7.26291e-07 8.44965e-07 1.11423e-16)
(6.22851e-07 8.20344e-07 8.70954e-16)
(5.36375e-07 7.79794e-07 9.33037e-16)
(4.59477e-07 7.25016e-07 -4.54343e-17)
(3.92381e-07 6.67059e-07 -3.1135e-16)
(3.41618e-07 6.21988e-07 -5.77948e-17)
(2.95007e-07 6.13833e-07 -1.41476e-15)
(2.3936e-07 6.0345e-07 1.53367e-17)
(1.79818e-07 6.27585e-07 -5.91438e-16)
(1.13356e-07 6.1247e-07 -1.24627e-16)
(4.61387e-08 5.89311e-07 1.8108e-16)
(2.29423e-05 -2.03451e-05 -8.97751e-18)
(2.04956e-05 -1.95275e-05 -8.12149e-18)
(1.41258e-05 -1.51419e-05 7.41553e-18)
(1.17444e-05 -1.36615e-05 -8.07589e-19)
(1.07242e-05 -1.33753e-05 -1.58421e-17)
(9.55754e-06 -1.3284e-05 1.07036e-17)
(9.77375e-06 -1.27648e-05 6.22129e-18)
(1.0964e-05 -1.19529e-05 -1.51458e-17)
(1.26899e-05 -1.2478e-05 5.96284e-18)
(-2.53672e-05 -1.04646e-06 -9.28611e-18)
(2.77876e-05 -4.72828e-06 9.16652e-18)
(-5.01423e-06 -1.05805e-05 -9.33193e-18)
(1.21946e-05 -7.26216e-06 -2.78502e-17)
(8.51265e-07 -1.04045e-05 3.89459e-18)
(-5.58387e-07 -1.09515e-05 1.1095e-17)
(-3.92605e-06 -1.17509e-05 -1.17588e-18)
(-5.66843e-06 -1.18839e-05 2.2333e-17)
(-5.82072e-06 -1.14787e-05 -5.00813e-17)
(-3.87034e-06 -1.02359e-05 -2.77262e-17)
(8.58532e-07 -7.2907e-06 1.99445e-18)
(-1.26243e-05 -9.57194e-06 -1.53155e-18)
(-3.47476e-05 -2.04611e-05 2.21681e-17)
(1.43279e-05 -4.24856e-06 -7.51373e-17)
(1.06751e-05 -3.74386e-06 1.34963e-16)
(1.98554e-05 -4.09513e-06 1.85138e-17)
(1.15056e-05 -3.28197e-06 1.35542e-17)
(-2.81495e-06 -6.50487e-06 2.36722e-17)
(-2.95415e-06 -7.0472e-06 4.78767e-17)
(-2.69491e-06 -7.11735e-06 1.16044e-17)
(-1.99685e-06 -6.92099e-06 2.33192e-17)
(-1.19978e-06 -6.48908e-06 -1.57452e-17)
(-6.89425e-07 -6.04851e-06 -5.03631e-17)
(-4.10458e-07 -5.71706e-06 2.22748e-18)
(-1.6416e-07 -5.53755e-06 1.27148e-17)
(7.25033e-08 -5.43828e-06 3.98963e-17)
(3.48677e-07 -5.35648e-06 -2.15367e-17)
(5.82996e-07 -5.21636e-06 2.14259e-18)
(8.29928e-07 -5.03871e-06 -2.09667e-17)
(1.0163e-06 -4.80669e-06 1.08577e-17)
(1.20211e-06 -4.5467e-06 -2.57942e-19)
(1.3541e-06 -4.25455e-06 -9.49253e-18)
(1.50957e-06 -3.95974e-06 -6.48344e-18)
(1.63764e-06 -3.64414e-06 3.98262e-19)
(1.76728e-06 -3.33454e-06 -8.84542e-18)
(1.87414e-06 -3.0158e-06 -5.07785e-18)
(1.98007e-06 -2.71374e-06 5.07604e-17)
(2.06605e-06 -2.40967e-06 2.68514e-17)
(2.14627e-06 -2.12452e-06 -6.16945e-17)
(2.20759e-06 -1.84551e-06 3.28639e-17)
(2.25781e-06 -1.58477e-06 1.40202e-17)
(2.28981e-06 -1.33726e-06 6.48568e-17)
(2.30482e-06 -1.11313e-06 -1.51652e-16)
(2.30433e-06 -9.00112e-07 9.97267e-18)
(2.28412e-06 -7.0126e-07 1.50208e-17)
(2.24931e-06 -5.18703e-07 7.30427e-17)
(2.19756e-06 -3.4952e-07 -8.39771e-17)
(2.13497e-06 -1.93434e-07 1.70405e-16)
(2.06227e-06 -5.0975e-08 6.88838e-17)
(1.9696e-06 7.9644e-08 -1.00134e-16)
(1.87383e-06 1.93943e-07 1.41112e-16)
(1.75674e-06 3.08986e-07 3.42884e-17)
(1.6473e-06 4.07525e-07 5.54323e-16)
(1.50998e-06 4.95316e-07 -1.17231e-18)
(1.37413e-06 5.73152e-07 -3.24974e-16)
(1.22553e-06 6.27523e-07 5.01665e-16)
(1.07815e-06 6.76089e-07 3.6792e-18)
(9.56826e-07 7.01836e-07 -2.66867e-16)
(8.44016e-07 7.20994e-07 1.79638e-16)
(7.38545e-07 7.28641e-07 -5.48697e-17)
(6.36027e-07 7.27778e-07 3.90354e-16)
(5.36144e-07 7.06862e-07 2.13989e-17)
(4.43897e-07 6.60541e-07 -3.20067e-17)
(3.74592e-07 6.30285e-07 2.90369e-16)
(3.2001e-07 6.02846e-07 -1.81356e-18)
(2.76642e-07 5.88646e-07 -6.6803e-17)
(2.28547e-07 5.78519e-07 -1.09654e-16)
(1.7362e-07 6.03117e-07 -3.59857e-16)
(1.09202e-07 5.87921e-07 2.32566e-16)
(4.6491e-08 5.68046e-07 -3.41118e-16)
(2.04157e-05 -2.18274e-05 8.71039e-18)
(1.57126e-05 -1.98965e-05 4.41152e-18)
(9.02087e-06 -1.49254e-05 -1.27146e-17)
(7.6414e-06 -1.29821e-05 -1.30059e-17)
(6.51271e-06 -1.20151e-05 1.70481e-17)
(5.58461e-06 -1.14996e-05 -1.03028e-17)
(6.67342e-06 -1.10176e-05 6.7578e-18)
(2.49026e-05 -1.00664e-05 2.27002e-17)
(0.000238182 -8.38713e-06 -5.35696e-18)
(-0.000181848 -9.95298e-06 4.02367e-18)
(6.53167e-06 9.04871e-06 -2.0449e-18)
(-7.59235e-05 -2.2268e-05 3.06641e-18)
(5.48615e-05 9.39738e-07 1.72371e-17)
(-1.32397e-05 -9.86853e-06 -6.90655e-18)
(1.05e-05 -7.36252e-06 -4.67225e-17)
(5.66509e-06 -8.56127e-06 -1.85651e-17)
(4.55291e-06 -8.99409e-06 -1.9842e-17)
(1.12045e-06 -9.37991e-06 1.89727e-18)
(-2.62164e-06 -9.46447e-06 1.64512e-17)
(-5.64671e-06 -9.43315e-06 -7.02438e-18)
(-8.05114e-08 -8.77335e-06 2.54434e-17)
(2.96083e-05 -1.10618e-06 -4.14433e-17)
(-6.13369e-06 -2.91943e-06 7.03393e-17)
(-4.20548e-05 -1.31756e-05 -6.20303e-17)
(-6.85093e-06 -6.66431e-06 -6.61772e-17)
(8.92277e-06 -3.32059e-06 -2.12782e-17)
(-7.46404e-07 -4.552e-06 -7.68598e-18)
(-3.32472e-06 -5.35026e-06 -6.10705e-18)
(-3.77506e-06 -5.57234e-06 3.54603e-18)
(-4.07171e-06 -5.54246e-06 -1.50709e-17)
(-3.50349e-06 -5.17989e-06 -3.93124e-18)
(-2.67081e-06 -4.69377e-06 3.74115e-17)
(-1.99399e-06 -4.27409e-06 2.17167e-17)
(-1.54431e-06 -4.01818e-06 5.6595e-18)
(-1.22321e-06 -3.90099e-06 -7.04256e-17)
(-9.40257e-07 -3.86165e-06 2.32003e-18)
(-6.56712e-07 -3.82731e-06 -1.25054e-19)
(-3.78494e-07 -3.7608e-06 2.10997e-18)
(-1.11049e-07 -3.64154e-06 1.07936e-17)
(1.38786e-07 -3.49047e-06 2.22265e-18)
(3.7035e-07 -3.30892e-06 -7.26969e-18)
(5.8433e-07 -3.12183e-06 -6.64472e-18)
(7.8247e-07 -2.91322e-06 -1.58091e-17)
(9.63774e-07 -2.70511e-06 -3.74447e-18)
(1.13069e-06 -2.47856e-06 -2.9246e-18)
(1.28079e-06 -2.2539e-06 -1.62898e-17)
(1.41677e-06 -2.02121e-06 8.55843e-18)
(1.53587e-06 -1.79878e-06 -1.95214e-17)
(1.63992e-06 -1.57664e-06 -1.19937e-16)
(1.72553e-06 -1.37586e-06 8.39569e-17)
(1.79431e-06 -1.18196e-06 3.1356e-17)
(1.84434e-06 -1.00187e-06 -1.21255e-18)
(1.87685e-06 -8.31365e-07 1.51427e-17)
(1.89076e-06 -6.73988e-07 2.37745e-17)
(1.88702e-06 -5.21705e-07 -3.12982e-16)
(1.86709e-06 -3.79201e-07 -7.2997e-19)
(1.83217e-06 -2.46492e-07 5.12742e-17)
(1.78396e-06 -1.21026e-07 -2.57901e-17)
(1.7241e-06 -5.97863e-09 1.44208e-16)
(1.65297e-06 1.00918e-07 -6.93681e-16)
(1.57587e-06 1.97381e-07 2.00758e-16)
(1.48079e-06 2.90321e-07 1.2048e-16)
(1.38485e-06 3.70972e-07 -8.05135e-16)
(1.27318e-06 4.37768e-07 3.44095e-16)
(1.15596e-06 4.93185e-07 -3.09712e-16)
(1.03644e-06 5.41296e-07 8.08308e-17)
(9.28376e-07 5.74709e-07 -1.95273e-16)
(8.30515e-07 5.98276e-07 2.04208e-16)
(7.32348e-07 6.15962e-07 1.47462e-16)
(6.28663e-07 6.20964e-07 -2.18771e-16)
(5.25688e-07 6.12034e-07 -3.43038e-16)
(4.34337e-07 6.01444e-07 -2.10695e-17)
(3.63022e-07 5.83241e-07 -4.79777e-16)
(3.02344e-07 5.66074e-07 -8.80616e-17)
(2.58375e-07 5.68674e-07 1.054e-15)
(2.12928e-07 5.55819e-07 -2.66503e-16)
(1.62631e-07 5.76702e-07 8.22863e-16)
(1.01823e-07 5.64861e-07 -6.15662e-16)
(4.44182e-08 5.44867e-07 2.54884e-16)
(9.95846e-06 -1.98824e-05 -7.32051e-18)
(4.41471e-06 -1.74798e-05 1.28217e-18)
(1.74427e-07 -1.29761e-05 -1.95515e-18)
(-2.45342e-07 -1.04586e-05 -5.79602e-18)
(-6.31803e-07 -8.81365e-06 -1.81557e-17)
(-9.83293e-07 -7.90841e-06 8.1581e-18)
(-1.06672e-06 -7.43897e-06 2.43823e-18)
(-9.72434e-07 -6.841e-06 -1.87066e-17)
(-2.61622e-05 -6.85042e-06 3.65423e-18)
(1.37929e-06 -1.32862e-05 1.28717e-18)
(2.15798e-06 -4.79754e-06 2.86494e-18)
(2.22051e-05 -2.30626e-06 -1.32625e-18)
(-6.56484e-06 -8.53475e-07 -9.71948e-18)
(1.62785e-05 -8.82217e-07 -4.17471e-18)
(1.65578e-06 -4.3169e-06 8.25351e-18)
(1.47563e-05 -2.48352e-06 1.51331e-17)
(1.23788e-05 -3.98929e-06 3.8164e-18)
(1.27326e-05 -4.25031e-06 1.18448e-17)
(9.3896e-06 -4.87781e-06 -2.26648e-17)
(4.77418e-06 -5.27287e-06 6.80683e-18)
(9.7132e-08 -4.96165e-06 1.30009e-17)
(-9.91839e-06 -5.49417e-06 2.73916e-17)
(-1.6774e-05 -9.09418e-06 -2.71619e-17)
(-1.62916e-05 -8.99099e-06 -6.04768e-17)
(-4.8055e-06 -5.48793e-06 4.27799e-17)
(3.2049e-06 -2.69293e-06 2.02238e-17)
(-7.21498e-07 -2.56107e-06 1.94494e-18)
(-1.98829e-06 -2.86999e-06 -2.8696e-18)
(-1.78706e-06 -2.97576e-06 4.90216e-18)
(-2.78872e-06 -3.07873e-06 1.61385e-17)
(-3.64352e-06 -3.01832e-06 -3.42433e-19)
(-3.7202e-06 -2.78488e-06 -2.45272e-17)
(-3.24435e-06 -2.48298e-06 -3.44363e-17)
(-2.63381e-06 -2.25871e-06 -2.31354e-17)
(-2.09739e-06 -2.1584e-06 5.31903e-17)
(-1.70287e-06 -2.17036e-06 1.68628e-17)
(-1.38628e-06 -2.2151e-06 -8.3968e-18)
(-1.10426e-06 -2.24762e-06 -1.29457e-18)
(-8.38522e-07 -2.23362e-06 1.11976e-18)
(-5.80838e-07 -2.19059e-06 -5.73189e-18)
(-3.36366e-07 -2.1209e-06 -6.02702e-18)
(-1.00973e-07 -2.04117e-06 3.91216e-18)
(1.2075e-07 -1.94278e-06 1.86972e-18)
(3.31103e-07 -1.83499e-06 1.91098e-18)
(5.2499e-07 -1.70963e-06 -9.20002e-18)
(7.02799e-07 -1.58434e-06 -6.20422e-18)
(8.62253e-07 -1.44555e-06 5.53137e-17)
(1.00358e-06 -1.31295e-06 -8.49123e-18)
(1.12683e-06 -1.17556e-06 7.27752e-18)
(1.23139e-06 -1.04524e-06 -7.25773e-17)
(1.31845e-06 -9.16067e-07 -4.06284e-18)
(1.38656e-06 -7.9933e-07 -2.32877e-17)
(1.43883e-06 -6.82159e-07 7.36008e-17)
(1.4736e-06 -5.69014e-07 3.76532e-18)
(1.49313e-06 -4.5983e-07 -2.01351e-16)
(1.49656e-06 -3.52908e-07 9.98184e-17)
(1.48611e-06 -2.48025e-07 -1.07639e-17)
(1.46317e-06 -1.4755e-07 -1.40938e-16)
(1.42767e-06 -5.30839e-08 1.39831e-16)
(1.38275e-06 3.60405e-08 1.96053e-16)
(1.32692e-06 1.19388e-07 2.22777e-16)
(1.26313e-06 1.97744e-07 -6.48523e-17)
(1.18915e-06 2.67194e-07 2.01689e-16)
(1.10668e-06 3.25624e-07 -3.05805e-16)
(1.01796e-06 3.7506e-07 3.08945e-17)
(9.22592e-07 4.23337e-07 -1.28289e-16)
(8.39254e-07 4.54813e-07 4.2815e-16)
(7.55057e-07 4.78678e-07 1.1559e-17)
(6.74812e-07 4.93485e-07 1.74921e-18)
(5.89306e-07 5.10118e-07 -3.62056e-16)
(4.99973e-07 5.18813e-07 1.26633e-16)
(4.22078e-07 5.12149e-07 8.9528e-17)
(3.46525e-07 5.2105e-07 5.12766e-16)
(2.95014e-07 5.22933e-07 1.1585e-16)
(2.39776e-07 5.29687e-07 -1.08906e-15)
(1.91789e-07 5.2436e-07 -2.84458e-16)
(1.45427e-07 5.47614e-07 -1.41966e-16)
(8.84687e-08 5.36559e-07 1.93989e-16)
(3.89027e-08 5.22256e-07 3.55136e-16)
(-6.53856e-06 -1.02342e-05 -4.31919e-18)
(-1.02456e-05 -9.23586e-06 -3.26215e-18)
(-9.31489e-06 -7.97819e-06 9.26432e-18)
(-8.62866e-06 -6.31868e-06 2.76989e-18)
(-8.16162e-06 -4.96971e-06 -5.17841e-18)
(-7.67523e-06 -4.0043e-06 -1.67397e-17)
(-7.08229e-06 -3.59093e-06 -7.59535e-18)
(-5.91426e-06 -3.39236e-06 1.33024e-17)
(-2.87905e-06 -3.18038e-06 -8.53152e-18)
(-8.17133e-06 -2.0873e-06 -1.11047e-17)
(-6.52634e-07 -1.42909e-06 4.24099e-18)
(9.48739e-05 -1.19191e-06 9.34674e-20)
(-8.38984e-05 -1.0377e-06 8.42327e-18)
(7.6267e-06 6.42791e-06 -4.33307e-18)
(-3.93277e-05 -8.51515e-06 -1.52272e-18)
(3.07061e-05 3.20329e-06 1.99286e-17)
(-5.43326e-06 -2.87839e-06 3.48955e-17)
(1.25544e-05 -7.55046e-07 -1.08185e-17)
(1.11948e-05 -1.41478e-06 3.77941e-18)
(1.15629e-05 -1.40998e-06 1.15127e-17)
(8.06012e-06 -1.71174e-06 2.065e-18)
(2.90888e-06 -2.35816e-06 3.76946e-18)
(-2.94147e-06 -3.12026e-06 5.94174e-18)
(-8.26103e-06 -3.7826e-06 5.68112e-17)
(-9.42697e-06 -3.15637e-06 2.01905e-17)
(-7.37804e-06 -2.21613e-06 -4.37411e-19)
(-6.87105e-06 -1.91275e-06 9.06403e-18)
(-5.39e-06 -1.77454e-06 1.20116e-18)
(-2.64755e-06 -1.51702e-06 1.41973e-17)
(-1.04333e-06 -1.31969e-06 -1.93271e-18)
(-9.23175e-07 -1.21396e-06 -2.46178e-17)
(-1.43845e-06 -1.11401e-06 -2.72974e-17)
(-1.85369e-06 -9.68123e-07 1.81651e-17)
(-2.07162e-06 -8.8823e-07 8.53072e-18)
(-1.67682e-06 -8.31465e-07 -2.91696e-18)
(-1.44213e-06 -8.54755e-07 -3.01197e-18)
(-1.1343e-06 -8.99991e-07 8.39887e-18)
(-8.89143e-07 -9.69657e-07 8.83917e-18)
(-6.71295e-07 -1.02222e-06 -8.44745e-18)
(-4.84479e-07 -1.05066e-06 8.77036e-18)
(-3.13134e-07 -1.04898e-06 1.29256e-17)
(-1.49513e-07 -1.0374e-06 6.61123e-18)
(7.24139e-09 -1.02145e-06 -4.98476e-18)
(1.5696e-07 -1.01242e-06 -1.87325e-18)
(2.97856e-07 -9.9735e-07 -6.03832e-18)
(4.2861e-07 -9.76824e-07 1.63859e-17)
(5.49177e-07 -9.42531e-07 3.21945e-17)
(6.57454e-07 -9.00668e-07 -1.61348e-17)
(7.55714e-07 -8.49213e-07 1.66029e-17)
(8.40623e-07 -7.99999e-07 2.05212e-17)
(9.15706e-07 -7.41232e-07 2.91292e-17)
(9.77562e-07 -6.76464e-07 3.75346e-17)
(1.03018e-06 -6.05471e-07 -1.41533e-18)
(1.0689e-06 -5.33173e-07 2.1119e-17)
(1.09766e-06 -4.56561e-07 8.46237e-17)
(1.11343e-06 -3.79231e-07 -2.88217e-17)
(1.11857e-06 -2.99286e-07 -9.74032e-18)
(1.11259e-06 -2.18175e-07 1.52076e-16)
(1.09662e-06 -1.38546e-07 5.02485e-19)
(1.07257e-06 -6.0966e-08 1.22919e-16)
(1.03859e-06 1.34871e-08 -3.38056e-16)
(9.98762e-07 8.52815e-08 -1.05922e-16)
(9.49023e-07 1.5021e-07 -2.16667e-17)
(8.94749e-07 2.0697e-07 -2.0869e-16)
(8.33175e-07 2.56606e-07 9.67898e-17)
(7.6826e-07 3.03864e-07 6.35256e-17)
(7.11754e-07 3.4148e-07 -5.86205e-18)
(6.49534e-07 3.66118e-07 -1.60236e-16)
(5.97624e-07 3.92817e-07 -8.82235e-17)
(5.32382e-07 4.06787e-07 8.91933e-17)
(4.67212e-07 4.21429e-07 -5.30539e-17)
(4.00589e-07 4.39593e-07 -4.10599e-17)
(3.4262e-07 4.57024e-07 5.36257e-16)
(2.80842e-07 4.71172e-07 7.81891e-17)
(2.27572e-07 4.92188e-07 3.72242e-16)
(1.77407e-07 4.95334e-07 4.27195e-16)
(1.32993e-07 5.21965e-07 6.33064e-17)
(8.1123e-08 5.13915e-07 2.74053e-16)
(3.69521e-08 5.01943e-07 8.45757e-17)
(-2.19629e-05 -2.78749e-07 -2.50668e-19)
(-2.19399e-05 -5.70359e-07 -1.18088e-18)
(-1.54323e-05 -2.84335e-06 -1.2921e-18)
(-1.39564e-05 -1.70509e-06 -1.61019e-18)
(-1.27773e-05 -7.36269e-07 7.39526e-18)
(-1.16658e-05 2.76784e-07 1.5058e-17)
(-1.05924e-05 8.65553e-07 1.04077e-17)
(-9.55128e-06 1.05195e-06 -4.59871e-18)
(-8.70393e-06 9.919e-07 5.16874e-18)
(-8.27473e-06 8.31914e-07 1.59293e-17)
(-6.69774e-06 1.15535e-06 -5.89833e-18)
(-1.43761e-05 1.21907e-06 2.18657e-18)
(-4.91171e-06 -1.03505e-06 6.87015e-18)
(-5.04624e-06 9.5318e-07 5.05377e-18)
(-2.11162e-06 2.11541e-06 6.26308e-19)
(-8.63831e-07 1.23834e-06 2.23344e-18)
(-1.09156e-06 1.10347e-06 -8.9712e-18)
(2.92187e-06 1.24758e-06 9.39106e-18)
(6.26923e-06 1.24956e-06 9.47062e-18)
(1.00635e-05 1.34775e-06 -9.54502e-18)
(1.17941e-05 1.29587e-06 -9.62154e-19)
(1.14468e-05 1.17887e-06 3.42001e-18)
(8.57543e-06 8.52386e-07 -9.63814e-18)
(3.23478e-06 2.1285e-07 -3.9322e-17)
(-2.34014e-06 -2.76514e-07 -3.34735e-17)
(-6.16087e-06 -5.02974e-07 1.88589e-17)
(-8.73358e-06 -7.00862e-07 -1.38485e-19)
(-9.48022e-06 -8.38066e-07 3.41001e-18)
(-7.56858e-06 -7.58234e-07 -2.71284e-17)
(-4.29761e-06 -4.98044e-07 -3.44519e-17)
(-1.37772e-06 -1.70385e-07 -1.58428e-18)
(4.23353e-07 2.90364e-07 4.50879e-17)
(7.67957e-07 1.02397e-06 -1.78429e-17)
(-2.7175e-06 1.50037e-07 -1.29087e-17)
(5.8355e-07 1.48246e-07 -2.48521e-18)
(-9.93078e-07 -4.78533e-08 6.13571e-18)
(-6.15099e-07 -5.85534e-08 -7.88361e-18)
(-5.26232e-07 -2.0102e-07 -4.5445e-19)
(-3.46471e-07 -3.11155e-07 5.01865e-18)
(-1.94142e-07 -4.14164e-07 -2.26554e-19)
(-4.27611e-08 -4.88834e-07 6.24643e-18)
(8.59067e-08 -5.48143e-07 -3.3863e-19)
(1.99139e-07 -5.95568e-07 3.30694e-18)
(3.0512e-07 -6.37528e-07 -4.79814e-19)
(4.06815e-07 -6.6861e-07 6.10562e-18)
(5.03492e-07 -6.9198e-07 -2.25978e-19)
(5.9515e-07 -7.0176e-07 -1.81397e-17)
(6.78984e-07 -7.05814e-07 -1.18396e-17)
(7.56602e-07 -6.93512e-07 -4.06844e-18)
(8.25483e-07 -6.69426e-07 2.26865e-17)
(8.88899e-07 -6.3039e-07 5.4506e-17)
(9.42004e-07 -5.90516e-07 -2.83235e-18)
(9.88399e-07 -5.38988e-07 -3.15051e-17)
(1.02341e-06 -4.8559e-07 2.11631e-17)
(1.05113e-06 -4.23404e-07 4.56264e-17)
(1.06725e-06 -3.56808e-07 -5.9171e-17)
(1.07618e-06 -2.82618e-07 9.77891e-17)
(1.07422e-06 -2.07303e-07 5.16427e-17)
(1.06422e-06 -1.29281e-07 1.26367e-17)
(1.04528e-06 -5.26146e-08 1.82656e-16)
(1.01796e-06 2.25385e-08 7.42592e-17)
(9.83991e-07 9.39273e-08 -1.63563e-16)
(9.40545e-07 1.58809e-07 1.63341e-16)
(8.9342e-07 2.15556e-07 1.11085e-16)
(8.38336e-07 2.64256e-07 -1.69018e-16)
(7.82611e-07 3.1102e-07 2.13735e-17)
(7.21362e-07 3.41554e-07 -6.06084e-17)
(6.75609e-07 3.75635e-07 -1.39932e-16)
(6.27307e-07 3.89887e-07 -6.27143e-17)
(5.68318e-07 4.07488e-07 3.12426e-17)
(5.12627e-07 4.24019e-07 8.91031e-17)
(4.45366e-07 4.34732e-07 -9.96262e-17)
(3.8359e-07 4.57568e-07 -4.09946e-16)
(3.17452e-07 4.74729e-07 -1.06302e-16)
(2.60368e-07 4.95082e-07 1.96598e-16)
(2.00874e-07 4.9963e-07 -2.16243e-16)
(1.50973e-07 5.22285e-07 -3.47907e-16)
(9.53871e-08 5.08044e-07 -2.05661e-16)
(4.85408e-08 4.82114e-07 -3.34944e-16)
(-2.27169e-05 8.30767e-06 1.08095e-18)
(-1.90763e-05 6.77812e-06 5.43621e-18)
(-1.11893e-05 2.50386e-06 -6.39457e-19)
(-9.84762e-06 2.71e-06 -2.31908e-18)
(-8.67664e-06 2.78436e-06 -4.4726e-18)
(-7.62646e-06 3.28851e-06 -5.83459e-18)
(-6.68441e-06 3.73891e-06 -5.50402e-18)
(-5.84196e-06 3.9205e-06 -4.19314e-18)
(-5.11531e-06 3.77984e-06 -2.30862e-18)
(-4.66711e-06 3.47871e-06 8.95908e-19)
(-3.82931e-06 3.16094e-06 1.00328e-17)
(-1.73729e-06 2.86996e-06 5.95628e-19)
(-4.74172e-06 2.88951e-06 -5.61109e-19)
(-3.02756e-06 2.86078e-06 -8.50949e-18)
(-4.20419e-06 2.30005e-06 4.50335e-19)
(-3.6204e-06 2.21498e-06 -1.84395e-18)
(-4.35757e-06 1.82203e-06 -1.32338e-17)
(-2.57962e-06 1.64334e-06 -3.80943e-18)
(-6.02325e-07 1.48429e-06 -6.20741e-19)
(2.5386e-06 1.51521e-06 6.34979e-18)
(5.50051e-06 1.58662e-06 5.09668e-18)
(7.66391e-06 1.67203e-06 -5.21096e-18)
(8.40301e-06 1.63496e-06 -9.70967e-18)
(7.4032e-06 1.5257e-06 -9.84442e-18)
(4.8022e-06 1.30417e-06 2.48251e-17)
(1.26508e-06 1.06956e-06 3.36764e-18)
(-2.54254e-06 7.51422e-07 -2.65463e-17)
(-5.59268e-06 4.07834e-07 -8.65325e-18)
(-6.85489e-06 1.5931e-07 4.22258e-18)
(-5.77028e-06 1.54797e-07 2.21713e-17)
(-1.34677e-06 7.92573e-07 3.34206e-17)