/*--------------------------------*- C++ -*----------------------------------*\
| =========                 |                                                 |
| \\      /  F ield         | OpenFOAM: The Open Source CFD Toolbox           |
|  \\    /   O peration     | Version:  2306                                  |
|   \\  /    A nd           | Website:  www.openfoam.com                      |
|    \\/     M anipulation  |                                                 |
\*---------------------------------------------------------------------------*/
FoamFile
{
    version     2.0;
    format      ascii;
    arch        "LSB;label=32;scalar=64";
    class       volScalarField;
    location    "650";
    object      turbulenceProperties:nuEff;
}
// * * * * * * * * * * * * * * * * * * * * * * * * * * * * * * * * * * * * * //

dimensions      [0 2 -1 0 0 0 0];

internalField   nonuniform List<scalar> 
1340
(
1.6102e-05
1.61027e-05
1.61023e-05
1.60833e-05
1.61034e-05
1.61028e-05
1.60813e-05
1.60832e-05
1.6104e-05
1.61033e-05
1.60723e-05
1.60746e-05
1.60812e-05
1.60831e-05
1.61048e-05
1.61039e-05
1.60774e-05
1.60731e-05
1.60723e-05
1.60745e-05
1.60811e-05
1.6083e-05
1.61055e-05
1.61046e-05
1.60902e-05
1.60864e-05
1.60822e-05
1.60778e-05
1.60733e-05
1.60723e-05
1.60744e-05
1.6081e-05
1.60829e-05
1.61063e-05
1.61054e-05
1.60996e-05
1.60967e-05
1.60941e-05
1.60908e-05
1.6087e-05
1.60827e-05
1.60783e-05
1.60736e-05
1.60722e-05
1.60743e-05
1.60809e-05
1.60827e-05
1.61071e-05
1.61063e-05
1.61121e-05
1.611e-05
1.61073e-05
1.61039e-05
1.61004e-05
1.60974e-05
1.60948e-05
1.60915e-05
1.60876e-05
1.60832e-05
1.60787e-05
1.60739e-05
1.60722e-05
1.60742e-05
1.60808e-05
1.60825e-05
1.61079e-05
1.61073e-05
1.61186e-05
1.61178e-05
1.61169e-05
1.61158e-05
1.61146e-05
1.6113e-05
1.61109e-05
1.61082e-05
1.61048e-05
1.61012e-05
1.60982e-05
1.60955e-05
1.60922e-05
1.60882e-05
1.60838e-05
1.60792e-05
1.60743e-05
1.60723e-05
1.60741e-05
1.60806e-05
1.60822e-05
1.61087e-05
1.61084e-05
1.61211e-05
1.61211e-05
1.61211e-05
1.6121e-05
1.61208e-05
1.61205e-05
1.61201e-05
1.61195e-05
1.61187e-05
1.61178e-05
1.61167e-05
1.61155e-05
1.61139e-05
1.61119e-05
1.61091e-05
1.61057e-05
1.6102e-05
1.6099e-05
1.60962e-05
1.60929e-05
1.60889e-05
1.60844e-05
1.60798e-05
1.60746e-05
1.60723e-05
1.6074e-05
1.60805e-05
1.60819e-05
1.61096e-05
1.61096e-05
1.61227e-05
1.61235e-05
1.61233e-05
1.6123e-05
1.61228e-05
1.61225e-05
1.61223e-05
1.61222e-05
1.61221e-05
1.61221e-05
1.61221e-05
1.61221e-05
1.6122e-05
1.6122e-05
1.6122e-05
1.61219e-05
1.61217e-05
1.61215e-05
1.6121e-05
1.61205e-05
1.61197e-05
1.61188e-05
1.61177e-05
1.61164e-05
1.61149e-05
1.61129e-05
1.61101e-05
1.61067e-05
1.6103e-05
1.60998e-05
1.6097e-05
1.60937e-05
1.60897e-05
1.60851e-05
1.60803e-05
1.60751e-05
1.60724e-05
1.60739e-05
1.60804e-05
1.60816e-05
1.61104e-05
1.61109e-05
1.00007e-05
1e-05
1e-05
1e-05
0.00015628
0.000477664
0.0161241
0.0552049
0.112674
0.176098
0.235521
0.285629
0.324085
0.350426
0.365823
0.372628
0.37376
0.362763
0.330906
0.272117
0.188986
0.0997156
0.0326549
0.00161708
0.000475318
1e-05
1e-05
1e-05
1.00017e-05
1.03934e-05
1.61698e-05
1.80092e-05
1.64503e-05
1.59034e-05
1.60316e-05
1.61412e-05
1.61417e-05
1.6128e-05
1.61259e-05
1.61256e-05
1.61242e-05
1.61234e-05
1.61234e-05
1.61234e-05
1.61232e-05
1.61231e-05
1.6123e-05
1.6123e-05
1.6123e-05
1.6123e-05
1.6123e-05
1.61229e-05
1.61229e-05
1.61227e-05
1.61224e-05
1.6122e-05
1.61215e-05
1.61207e-05
1.61198e-05
1.61187e-05
1.61175e-05
1.61159e-05
1.61139e-05
1.61112e-05
1.61077e-05
1.61039e-05
1.61007e-05
1.60979e-05
1.60945e-05
1.60905e-05
1.60858e-05
1.60809e-05
1.60755e-05
1.60725e-05
1.60737e-05
1.60802e-05
1.60813e-05
1.61112e-05
1.61123e-05
1.60968e-05
1.00034e-05
1e-05
1e-05
1e-05
1.00016e-05
0.00210096
0.0082269
0.0366942
0.0875701
0.150388
0.213189
0.26829
0.31194
0.342849
0.361591
0.370732
0.373004
0.364371
0.336098
0.281251
0.201195
0.112203
0.0400077
0.00372197
0.00103948
1e-05
1e-05
1e-05
1.00003e-05
1.00575e-05
1.51086e-05
1.87202e-05
1.69681e-05
1.59815e-05
1.5992e-05
1.61205e-05
1.61325e-05
1.61186e-05
1.61214e-05
1.61268e-05
1.61267e-05
1.61249e-05
1.61241e-05
1.61241e-05
1.61241e-05
1.61241e-05
1.6124e-05
1.6124e-05
1.6124e-05
1.6124e-05
1.61239e-05
1.61239e-05
1.61237e-05
1.61235e-05
1.61231e-05
1.61225e-05
1.61218e-05
1.61209e-05
1.61198e-05
1.61185e-05
1.6117e-05
1.6115e-05
1.61123e-05
1.61088e-05
1.6105e-05
1.61017e-05
1.60988e-05
1.60954e-05
1.60913e-05
1.60865e-05
1.60816e-05
1.6076e-05
1.60727e-05
1.60736e-05
1.60801e-05
1.6081e-05
1.6112e-05
1.61138e-05
1.79363e-05
1.61779e-05
1.00581e-05
1.00003e-05
1e-05
1e-05
1e-05
0.000632997
0.00229861
0.0211314
0.0633371
0.122988
0.187871
0.247798
0.297043
0.333198
0.356248
0.368298
0.371886
0.365541
0.340768
0.289982
0.213221
0.124025
0.047672
0.00676358
0.00182811
1e-05
1e-05
1e-05
1e-05
1.00001e-05
1.27845e-05
1.82457e-05
1.73022e-05
1.6078e-05
1.59957e-05
1.61668e-05
1.61833e-05
1.61337e-05
1.61147e-05
1.61207e-05
1.61266e-05
1.61269e-05
1.61256e-05
1.6125e-05
1.6125e-05
1.61251e-05
1.61251e-05
1.6125e-05
1.6125e-05
1.6125e-05
1.61249e-05
1.61248e-05
1.61246e-05
1.61242e-05
1.61236e-05
1.61229e-05
1.6122e-05
1.61209e-05
1.61197e-05
1.61181e-05
1.61162e-05
1.61135e-05
1.611e-05
1.61061e-05
1.61027e-05
1.60997e-05
1.60963e-05
1.60922e-05
1.60873e-05
1.60823e-05
1.60766e-05
1.60729e-05
1.60735e-05
1.60799e-05
1.60806e-05
1.61128e-05
1.61154e-05
1.62331e-05
1.77225e-05
1.61824e-05
1.04616e-05
1.00022e-05
1e-05
1e-05
1e-05
1.87859e-05
5.9126e-05
0.0107634
0.0420794
0.095592
0.160499
0.224662
0.279771
0.321748
0.349661
0.364956
0.36996
0.365767
0.344425
0.29775
0.224284
0.13524
0.0555357
0.0102337
0.00271009
1e-05
1e-05
1e-05
1e-05
1.00079e-05
1.19371e-05
1.79079e-05
1.76958e-05
1.6005e-05
1.56777e-05
1.59823e-05
1.61813e-05
1.61806e-05
1.61351e-05
1.6119e-05
1.61226e-05
1.61267e-05
1.61271e-05
1.61264e-05
1.61261e-05
1.61261e-05
1.61261e-05
1.61261e-05
1.61261e-05
1.6126e-05
1.61259e-05
1.61257e-05
1.61253e-05
1.61248e-05
1.61241e-05
1.61232e-05
1.61221e-05
1.61208e-05
1.61193e-05
1.61174e-05
1.61147e-05
1.61113e-05
1.61073e-05
1.61037e-05
1.61008e-05
1.60973e-05
1.60931e-05
1.60882e-05
1.60831e-05
1.60772e-05
1.60731e-05
1.60734e-05
1.60797e-05
1.60803e-05
1.61136e-05
1.6117e-05
1.60181e-05
1.62138e-05
1.74208e-05
1.64288e-05
1.18302e-05
1.00084e-05
1e-05
1e-05
1e-05
1e-05
0.000981848
0.00365253
0.024442
0.0683113
0.129668
0.196617
0.258195
0.307632
0.342161
0.362047
0.369483
0.3671
0.348911
0.306473
0.236559
0.148156
0.0651021
0.0135549
0.00396256
0.000124474
1e-05
1e-05
1e-05
1.00031e-05
1.07001e-05
1.68775e-05
1.97319e-05
1.76035e-05
1.6046e-05
1.57918e-05
1.60058e-05
1.61531e-05
1.61633e-05
1.61355e-05
1.61236e-05
1.61251e-05
1.61276e-05
1.61278e-05
1.61274e-05
1.61272e-05
1.61272e-05
1.61272e-05
1.61272e-05
1.61271e-05
1.61269e-05
1.61266e-05
1.6126e-05
1.61253e-05
1.61244e-05
1.61234e-05
1.61221e-05
1.61206e-05
1.61187e-05
1.61161e-05
1.61126e-05
1.61085e-05
1.61049e-05
1.61019e-05
1.60984e-05
1.60942e-05
1.60891e-05
1.60839e-05
1.60779e-05
1.60734e-05
1.60732e-05
1.60795e-05
1.60799e-05
1.61143e-05
1.61188e-05
1.61354e-05
1.6064e-05
1.61951e-05
1.67631e-05
1.66412e-05
1.45709e-05
1.01753e-05
1.00008e-05
1e-05
1e-05
1e-05
0.000168508
0.000585852
0.00993354
0.0352243
0.0806021
0.14053
0.205026
0.264261
0.311554
0.343852
0.361354
0.364871
0.354184
0.322615
0.265236
0.186317
0.102719
0.0405743
0.00591267
0.001981
2.56552e-05
1e-05
1e-05
1e-05
1.0002e-05
1.02665e-05
1.45368e-05
1.8414e-05
1.76371e-05
1.62821e-05
1.58798e-05
1.59972e-05
1.61326e-05
1.61558e-05
1.61356e-05
1.61255e-05
1.61267e-05
1.61289e-05
1.61291e-05
1.61288e-05
1.61286e-05
1.61286e-05
1.61286e-05
1.61284e-05
1.61281e-05
1.61276e-05
1.61269e-05
1.6126e-05
1.61249e-05
1.61237e-05
1.61222e-05
1.61202e-05
1.61177e-05
1.61142e-05
1.61101e-05
1.61064e-05
1.61032e-05
1.60997e-05
1.60954e-05
1.60903e-05
1.60849e-05
1.60787e-05
1.60738e-05
1.60731e-05
1.60793e-05
1.60796e-05
1.6115e-05
1.61207e-05
1.61388e-05
1.61351e-05
1.60795e-05
1.61302e-05
1.63901e-05
1.72414e-05
1.60756e-05
1.30808e-05
1.00016e-05
1e-05
1e-05
1e-05
1.00011e-05
5.71277e-05
0.00232909
0.0085974
0.0316082
0.0738366
0.131401
0.195296
0.255505
0.304489
0.33843
0.356352
0.358327
0.3425
0.302921
0.238047
0.158261
0.0823283
0.0297353
0.00261547
0.000957641
1.02865e-05
1e-05
1e-05
1e-05
1.0002e-05
1.03759e-05
1.51386e-05
1.85185e-05
1.73905e-05
1.6145e-05
1.58948e-05
1.60527e-05
1.61563e-05
1.61539e-05
1.61325e-05
1.61273e-05
1.61297e-05
1.61311e-05
1.61309e-05
1.61306e-05
1.61304e-05
1.61303e-05
1.613e-05
1.61295e-05
1.61289e-05
1.6128e-05
1.61269e-05
1.61256e-05
1.61241e-05
1.61222e-05
1.61197e-05
1.61162e-05
1.6112e-05
1.61081e-05
1.61048e-05
1.61012e-05
1.60969e-05
1.60916e-05
1.6086e-05
1.60797e-05
1.60743e-05
1.6073e-05
1.60791e-05
1.60792e-05
1.61156e-05
1.61227e-05
1.61274e-05
1.61327e-05
1.6127e-05
1.61058e-05
1.60955e-05
1.62837e-05
1.67784e-05
1.72706e-05
1.52827e-05
1.09611e-05
1.00045e-05
1e-05
1e-05
1e-05
1e-05
4.82091e-05
0.0020358
0.00743227
0.0294798
0.0707448
0.127828
0.191965
0.252963
0.302753
0.336819
0.352907
0.350761
0.32685
0.277291
0.206175
0.127512
0.059561
0.016407
0.000845556
0.000346407
1e-05
1e-05
1e-05
1e-05
1.00065e-05
1.14094e-05
1.71777e-05
1.83319e-05
1.67011e-05
1.59167e-05
1.59494e-05
1.61181e-05
1.61623e-05
1.61423e-05
1.61296e-05
1.613e-05
1.61321e-05
1.61325e-05
1.61324e-05
1.61323e-05
1.6132e-05
1.61315e-05
1.61309e-05
1.613e-05
1.61289e-05
1.61276e-05
1.61261e-05
1.61242e-05
1.61217e-05
1.61183e-05
1.6114e-05
1.611e-05
1.61065e-05
1.61028e-05
1.60984e-05
1.60931e-05
1.60873e-05
1.60808e-05
1.6075e-05
1.60729e-05
1.60788e-05
1.60789e-05
1.61162e-05
1.61247e-05
1.61254e-05
1.61279e-05
1.61268e-05
1.61174e-05
1.60899e-05
1.61667e-05
1.64164e-05
1.72009e-05
1.67901e-05
1.42176e-05
1.0086e-05
1.00004e-05
1e-05
1e-05
1e-05
1e-05
4.03081e-05
0.00202267
0.00740998
0.0296015
0.0712469
0.128968
0.193903
0.255435
0.304729
0.336671
0.347875
0.33848
0.304611
0.24582
0.170587
0.0947063
0.0381887
0.00667916
0.00198634
1e-05
1e-05
1e-05
1e-05
1.00007e-05
1.01388e-05
1.44923e-05
1.8667e-05
1.75644e-05
1.61717e-05
1.59027e-05
1.60632e-05
1.61591e-05
1.61546e-05
1.61374e-05
1.61339e-05
1.61347e-05
1.61344e-05
1.6134e-05
1.61339e-05
1.61337e-05
1.61331e-05
1.61322e-05
1.61311e-05
1.61297e-05
1.61282e-05
1.61263e-05
1.61239e-05
1.61205e-05
1.61162e-05
1.6112e-05
1.61084e-05
1.61046e-05
1.61001e-05
1.60947e-05
1.60887e-05
1.6082e-05
1.60757e-05
1.60729e-05
1.60785e-05
1.60785e-05
1.61166e-05
1.61267e-05
1.61239e-05
1.61245e-05
1.61255e-05
1.61276e-05
1.61186e-05
1.61058e-05
1.60839e-05
1.62536e-05
1.66709e-05
1.73367e-05
1.6035e-05
1.15803e-05
1.00075e-05
1e-05
1e-05
1e-05
1e-05
1e-05
4.46122e-05
0.00226387
0.00838571
0.0319721
0.0754916
0.135001
0.201003
0.262168
0.308928
0.335928
0.340353
0.321268
0.276317
0.208655
0.131424
0.0629527
0.0192253
4.08361e-05
0.000130878
1e-05
1e-05
1e-05
1e-05
1.00063e-05
1.1404e-05
1.74785e-05
1.81525e-05
1.65443e-05
1.59117e-05
1.5995e-05
1.61288e-05
1.61475e-05
1.61339e-05
1.61335e-05
1.61376e-05
1.6138e-05
1.61366e-05
1.61357e-05
1.61351e-05
1.61344e-05
1.61334e-05
1.6132e-05
1.61304e-05
1.61285e-05
1.61262e-05
1.61229e-05
1.61185e-05
1.61142e-05
1.61104e-05
1.61064e-05
1.61019e-05
1.60964e-05
1.60902e-05
1.60832e-05
1.60766e-05
1.60729e-05
1.60782e-05
1.60781e-05
1.61169e-05
1.61287e-05
1.61238e-05
1.6124e-05
1.61242e-05
1.61251e-05
1.61261e-05
1.61243e-05
1.61106e-05
1.60854e-05
1.61253e-05
1.63445e-05
1.70711e-05
1.69744e-05
1.45313e-05
1.01102e-05
1.00005e-05
1e-05
1e-05
1e-05
1e-05
1e-05
0.000118102
0.000183845
0.0102027
0.0366322
0.0836094
0.145898
0.212749
0.272001
0.314097
0.333381
0.328514
0.297519
0.240549
0.166137
0.0912764
0.0350954
0.00534948
0.00158927
1e-05
1e-05
1e-05
1e-05
1.00016e-05
1.03685e-05
1.56067e-05
1.85767e-05
1.7081e-05
1.60534e-05
1.60081e-05
1.61621e-05
1.61814e-05
1.6142e-05
1.61275e-05
1.61334e-05
1.61387e-05
1.61391e-05
1.61378e-05
1.61368e-05
1.61357e-05
1.61344e-05
1.61328e-05
1.61309e-05
1.61286e-05
1.61253e-05
1.6121e-05
1.61166e-05
1.61126e-05
1.61084e-05
1.61038e-05
1.60982e-05
1.60919e-05
1.60847e-05
1.60776e-05
1.60731e-05
1.60778e-05
1.60777e-05
1.6117e-05
1.61307e-05
1.61241e-05
1.61243e-05
1.61245e-05
1.61246e-05
1.61252e-05
1.61259e-05
1.6127e-05
1.6118e-05
1.61019e-05
1.60715e-05
1.62035e-05
1.65619e-05
1.74073e-05
1.57438e-05
1.23931e-05
1e-05
1e-05
1e-05
1e-05
1e-05
1e-05
1e-05
0.000172484
0.000286556
0.0132598
0.0446678
0.0963857
0.161825
0.228566
0.283707
0.318296
0.327209
0.310108
0.26531
0.197226
0.12073
0.0546867
0.0147059
0.00400622
4.66716e-05
1e-05
1e-05
1e-05
1.00001e-05
1.0018e-05
1.31553e-05
1.82301e-05
1.73974e-05
1.59276e-05
1.57517e-05
1.60558e-05
1.6209e-05
1.61883e-05
1.61467e-05
1.61354e-05
1.61381e-05
1.614e-05
1.61395e-05
1.61383e-05
1.61368e-05
1.61352e-05
1.61334e-05
1.6131e-05
1.61279e-05
1.61236e-05
1.61191e-05
1.61149e-05
1.61106e-05
1.61059e-05
1.61001e-05
1.60936e-05
1.60862e-05
1.60787e-05
1.60733e-05
1.60775e-05
1.60773e-05
1.61171e-05
1.61326e-05
1.61247e-05
1.61249e-05
1.6125e-05
1.61252e-05
1.61254e-05
1.61256e-05
1.61266e-05
1.61273e-05
1.61261e-05
1.61113e-05
1.6087e-05
1.60927e-05
1.63536e-05
1.69287e-05
1.72957e-05
1.44625e-05
1.06297e-05
1.0003e-05
1e-05
1e-05
1e-05
1e-05
1e-05
1.00002e-05
0.000610529
0.00195752
0.0186891
0.0564735
0.114177
0.182327
0.246898
0.294786
0.317943
0.313744
0.280893
0.221288
0.145988
0.074084
0.0250962
0.00298022
0.000734291
1e-05
1e-05
1e-05
1e-05
1.00065e-05
1.15416e-05
1.91004e-05
1.97226e-05
1.69734e-05
1.57744e-05
1.58145e-05
1.60718e-05
1.61681e-05
1.6161e-05
1.61452e-05
1.61413e-05
1.61415e-05
1.6141e-05
1.61397e-05
1.61381e-05
1.61361e-05
1.61338e-05
1.61308e-05
1.61266e-05
1.61221e-05
1.61177e-05
1.61131e-05
1.61082e-05
1.61024e-05
1.60957e-05
1.6088e-05
1.60802e-05
1.60739e-05
1.60771e-05
1.60767e-05
1.61166e-05
1.61345e-05
1.61252e-05
1.61253e-05
1.61255e-05
1.61257e-05
1.61259e-05
1.61261e-05
1.61263e-05
1.61269e-05
1.61278e-05
1.61288e-05
1.61219e-05
1.61019e-05
1.60718e-05
1.61962e-05
1.65798e-05
1.74164e-05
1.65431e-05
1.33975e-05
1.01989e-05
1.0001e-05
1e-05
1e-05
1e-05
1e-05
1e-05
1.06275e-05
0.0015415
0.0056586
0.0284846
0.0743158
0.139102
0.210464
0.272577
0.31261
0.322605
0.301581
0.249456
0.17401
0.0944544
0.0305022
0.00157311
0.0014398
0.000461307
0.000148475
1.22089e-05
1e-05
1e-05
1.00115e-05
1.22998e-05
1.86006e-05
1.83552e-05
1.66899e-05
1.60619e-05
1.60501e-05
1.61266e-05
1.61504e-05
1.61478e-05
1.61442e-05
1.61429e-05
1.61418e-05
1.61402e-05
1.61383e-05
1.6136e-05
1.6133e-05
1.61289e-05
1.61244e-05
1.61198e-05
1.6115e-05
1.611e-05
1.61041e-05
1.60973e-05
1.60894e-05
1.60812e-05
1.60743e-05
1.6077e-05
1.60764e-05
1.61172e-05
1.6136e-05
1.61257e-05
1.61259e-05
1.61261e-05
1.61264e-05
1.61266e-05
1.61269e-05
1.61271e-05
1.61274e-05
1.61277e-05
1.61287e-05
1.61297e-05
1.61305e-05
1.61158e-05
1.60953e-05
1.60792e-05
1.63097e-05
1.68449e-05
1.74132e-05
1.63103e-05
1.32637e-05
1.01461e-05
1.00006e-05
1e-05
1e-05
1e-05
1e-05
1e-05
4.09908e-05
0.00174173
0.00595176
0.0276519
0.0690193
0.12598
0.188274
0.242917
0.278914
0.288049
0.267692
0.21947
0.153489
0.0897124
0.0436487
0.0175946
0.00563546
0.00107576
0.000245772
1e-05
1e-05
1.00023e-05
1.047e-05
1.38391e-05
1.63263e-05
1.6511e-05
1.6243e-05
1.61414e-05
1.61399e-05
1.61485e-05
1.61497e-05
1.61483e-05
1.61469e-05
1.61453e-05
1.61433e-05
1.6141e-05
1.61381e-05
1.61342e-05
1.61297e-05
1.6125e-05
1.61198e-05
1.61144e-05
1.61083e-05
1.61013e-05
1.60928e-05
1.60843e-05
1.60756e-05
1.6077e-05
1.60757e-05
1.61145e-05
1.61395e-05
)
;

boundaryField
{
    inlet
    {
        type            calculated;
        value           nonuniform List<scalar> 
27
(
1.6102e-05
1.61023e-05
1.61028e-05
1.61033e-05
1.61039e-05
1.61046e-05
1.61054e-05
1.61063e-05
1.61073e-05
1.61084e-05
1.61096e-05
1.61109e-05
1.61123e-05
1.61138e-05
1.61154e-05
1.6117e-05
1.61188e-05
1.61207e-05
1.61227e-05
1.61247e-05
1.61267e-05
1.61287e-05
1.61307e-05
1.61326e-05
1.61345e-05
1.6136e-05
1.61395e-05
)
;
    }
    outlet
    {
        type            calculated;
        value           nonuniform List<scalar> 
78
(
1.61257e-05
1.61259e-05
1.61261e-05
1.61264e-05
1.61266e-05
1.61269e-05
1.61271e-05
1.61274e-05
1.61277e-05
1.61287e-05
1.61297e-05
1.61305e-05
1.61158e-05
1.60953e-05
1.60792e-05
1.63097e-05
1.68449e-05
1.74132e-05
1.63103e-05
1.32637e-05
1.01461e-05
1.00006e-05
1e-05
1e-05
1e-05
1e-05
1e-05
4.09908e-05
0.00174173
0.00595176
0.0276519
0.0690193
0.12598
0.188274
0.242917
0.278914
0.288049
0.267692
0.21947
0.153489
0.0897124
0.0436487
0.0175946
0.00563546
0.00107576
0.000245772
1e-05
1e-05
1.00023e-05
1.047e-05
1.38391e-05
1.63263e-05
1.6511e-05
1.6243e-05
1.61414e-05
1.61399e-05
1.61485e-05
1.61497e-05
1.61483e-05
1.61469e-05
1.61453e-05
1.61433e-05
1.6141e-05
1.61381e-05
1.61342e-05
1.61297e-05
1.6125e-05
1.61198e-05
1.61144e-05
1.61083e-05
1.61013e-05
1.60928e-05
1.60843e-05
1.60756e-05
1.6077e-05
1.60757e-05
1.61145e-05
1.61395e-05
)
;
    }
    walls
    {
        type            calculated;
        value           nonuniform List<scalar> 0();
    }
    frontAndBack
    {
        type            empty;
    }
    procBoundary7to3
    {
        type            processor;
        value           nonuniform List<scalar> 
16
(
1.5291e-05
1.80676e-05
1.6315e-05
1.60219e-05
1.61312e-05
1.61456e-05
1.61312e-05
1.61261e-05
1.61245e-05
1.61245e-05
1.61237e-05
1.61235e-05
1.61239e-05
1.61245e-05
1.6125e-05
1.61255e-05
)
;
    }
    procBoundary7to6
    {
        type            processor;
        value           nonuniform List<scalar> 
91
(
1.61018e-05
1.61021e-05
1.61021e-05
1.60834e-05
1.60834e-05
1.60814e-05
1.60814e-05
1.60724e-05
1.60746e-05
1.60746e-05
1.60771e-05
1.60729e-05
1.60729e-05
1.60897e-05
1.60859e-05
1.60817e-05
1.60817e-05
1.60989e-05
1.60961e-05
1.60935e-05
1.60935e-05
1.61113e-05
1.61092e-05
1.61064e-05
1.61031e-05
1.61031e-05
1.61177e-05
1.6117e-05
1.6116e-05
1.6115e-05
1.61137e-05
1.61137e-05
1.61203e-05
1.61202e-05
1.61202e-05
1.61201e-05
1.61199e-05
1.61196e-05
1.61192e-05
1.61192e-05
1.61236e-05
1.6123e-05
1.61224e-05
1.6122e-05
1.61217e-05
1.61215e-05
1.61214e-05
1.61213e-05
1.61212e-05
1.61212e-05
1.61212e-05
1.61212e-05
1.61212e-05
1e-05
1e-05
1e-05
0.00122851
0.00476914
0.0288223
0.0763303
0.137226
0.19918
0.254615
0.299961
0.333776
0.35619
0.368989
0.374746
0.374535
0.360837
0.32521
0.262519
0.176672
0.0878418
0.0264226
0.000125543
4.86532e-05
1e-05
1e-05
1e-05
1.00044e-05
1.10676e-05
1.69192e-05
1.76555e-05
1.62997e-05
1.5963e-05
1.60877e-05
1.61485e-05
1.61346e-05
1.6123e-05
1.6123e-05
)
;
    }
}


// ************************************************************************* //
