# p  FACE_DATA 300
# x y z  p
0.29787915 -0.05 -0.060005454 21452.715
0.29366024 -0.05 -0.059998184 21443.409
0.28948669 -0.05 -0.059982824 21435.809
0.28535801 -0.05 -0.05995956 21428.934
0.28127374 -0.05 -0.05992843 21423.669
0.27723341 -0.05 -0.059889544 21419.144
0.27323659 -0.05 -0.059843056 21415.731
0.2692828 -0.05 -0.059789027 21413.371
0.26537161 -0.05 -0.059727601 21411.763
0.26150257 -0.05 -0.05965892 21411.069
0.25767524 -0.05 -0.059583046 21411.151
0.2538892 -0.05 -0.059500074 21412.243
0.25014401 -0.05 -0.059410118 21414.281
0.24643926 -0.05 -0.059313284 21417.301
0.24277452 -0.05 -0.059209673 21421.363
0.23914938 -0.05 -0.059099387 21426.504
0.23556343 -0.05 -0.058982537 21432.475
0.23201627 -0.05 -0.058859254 21439.455
0.2285075 -0.05 -0.058729541 21448.135
0.22503671 -0.05 -0.058593532 21457.021
0.22160352 -0.05 -0.058451379 21467.208
0.21820754 -0.05 -0.058303115 21478.322
0.21484838 -0.05 -0.058148846 21490.467
0.21152567 -0.05 -0.05798866 21503.578
0.20823903 -0.05 -0.057822651 21517.75
0.20498809 -0.05 -0.057650874 21533.102
0.20177248 -0.05 -0.057473468 21548.991
0.19859184 -0.05 -0.057290478 21566.538
0.1954458 -0.05 -0.057101994 21584.128
0.19233402 -0.05 -0.056908168 21602.772
0.18925614 -0.05 -0.056708999 21622.616
0.18621181 -0.05 -0.056504562 21643.68
0.18320071 -0.05 -0.056294919 21666.032
0.18022246 -0.05 -0.056080229 21688.642
0.17727675 -0.05 -0.055860526 21713.119
0.17436324 -0.05 -0.05563585 21737.602
0.1714816 -0.05 -0.055406376 21763.068
0.16863151 -0.05 -0.055172052 21790.513
0.16581265 -0.05 -0.054932944 21818.447
0.16302469 -0.05 -0.054689208 21847.129
0.16026732 -0.05 -0.054440898 21876.582
0.15754024 -0.05 -0.054188056 21907.137
0.15484313 -0.05 -0.053930725 21938.731
0.15217569 -0.05 -0.053668978 21971.367
0.14953762 -0.05 -0.053402888 22005.21
0.14692863 -0.05 -0.053132457 22040.582
0.14434842 -0.05 -0.052857799 22075.667
0.14179669 -0.05 -0.052579044 22111.998
0.13927317 -0.05 -0.05229612 22150.33
0.13677758 -0.05 -0.052009061 22189.488
0.13430961 -0.05 -0.051717985 22229.459
0.13186901 -0.05 -0.051422993 22269.901
0.1294555 -0.05 -0.051124081 22312.17
0.12706881 -0.05 -0.050821224 22355.611
0.12470868 -0.05 -0.050514504 22399.965
0.12237483 -0.05 -0.05020403 22444.643
0.120067 -0.05 -0.049889836 22490.903
0.11778495 -0.05 -0.049571874 22538.361
0.11552842 -0.05 -0.049250263 22586.199
0.11329715 -0.05 -0.048924992 22635.89
0.1110909 -0.05 -0.048596121 22685.629
0.10890943 -0.05 -0.048263656 22738.203
0.10675251 -0.05 -0.047927554 22791.235
0.10461987 -0.05 -0.047587958 22844.926
0.1025113 -0.05 -0.047244937 22899.211
0.10042655 -0.05 -0.046898432 22955.484
0.098365405 -0.05 -0.046548446 23012.084
0.096327639 -0.05 -0.046195043 23070.084
0.094313028 -0.05 -0.045838237 23129.052
0.092321357 -0.05 -0.045478019 23190.32
0.090352417 -0.05 -0.04511438 23252.474
0.088405979 -0.05 -0.044747421 23315.435
0.086481845 -0.05 -0.044377096 23380.34
0.084579815 -0.05 -0.044003384 23445.952
0.082699669 -0.05 -0.043626384 23512.72
0.080841229 -0.05 -0.043246005 23582.133
0.0790043 -0.05 -0.042862236 23651.987
0.077188665 -0.05 -0.0424752 23723.06
0.07539416 -0.05 -0.042084789 23796.481
0.073620599 -0.05 -0.041690997 23870.54
0.071867788 -0.05 -0.041293877 23946.174
0.070135557 -0.05 -0.040893385 24023.284
0.068423742 -0.05 -0.040489457 24102.515
0.066732169 -0.05 -0.040082112 24182.805
0.065060663 -0.05 -0.039671361 24265.375
0.063409062 -0.05 -0.039257174 24349.611
0.061777219 -0.05 -0.038839488 24436.256
0.060164984 -0.05 -0.038418265 24523.486
0.058572196 -0.05 -0.037993513 24612.681
0.056998721 -0.05 -0.037565159 24704.342
0.055444419 -0.05 -0.03713316 24798.079
0.053909142 -0.05 -0.036697516 24893.368
0.052392764 -0.05 -0.036258171 24991.327
0.050895177 -0.05 -0.035815009 25091.45
0.049416244 -0.05 -0.035368033 25193.285
0.047955856 -0.05 -0.034917167 25297.938
0.046513915 -0.05 -0.034462309 25404.657
0.045090302 -0.05 -0.034003445 25513.708
0.043684931 -0.05 -0.033540468 25626.309
0.042297731 -0.05 -0.03307324 25742.44
0.040928604 -0.05 -0.032601735 25861.725
0.039577476 -0.05 -0.032125845 25985.152
0.038244292 -0.05 -0.03164545 26111.624
0.036928981 -0.05 -0.031160474 26241.962
0.0356315 -0.05 -0.030670795 26376.021
0.03435181 -0.05 -0.030176299 26514.71
0.033089918 -0.05 -0.029676761 26659.069
0.031845783 -0.05 -0.029172106 26806.934
0.030619394 -0.05 -0.028662209 26959.458
0.029410776 -0.05 -0.028146878 27115.9
0.028219949 -0.05 -0.027625962 27277.459
0.027046957 -0.05 -0.027099267 27443.657
0.025891857 -0.05 -0.026566614 27615.525
0.02475474 -0.05 -0.026027768 27792.877
0.023635681 -0.05 -0.025482558 27975.975
0.022534817 -0.05 -0.024930718 28165.63
0.021452274 -0.05 -0.024372036 28360.814
0.020388213 -0.05 -0.023806274 28562.489
0.019342865 -0.05 -0.023233111 28770.454
0.018316468 -0.05 -0.022652259 28985.344
0.017309264 -0.05 -0.02206346 29207.85
0.016321577 -0.05 -0.021466368 29440.083
0.015353757 -0.05 -0.020860644 29680.479
0.014406156 -0.05 -0.020245997 29930.073
0.013479274 -0.05 -0.019622013 30188.691
0.012573638 -0.05 -0.018988322 30456.164
0.0116898 -0.05 -0.018344552 30732.441
0.010828378 -0.05 -0.017690314 31017.118
0.0099901248 -0.05 -0.017025149 31310.947
0.0091759198 -0.05 -0.016348644 31613.105
0.008386597 -0.05 -0.0156605 31923.358
0.0076231725 -0.05 -0.014960218 32241.972
0.0068867853 -0.05 -0.014247452 32567.81
0.0061787359 -0.05 -0.013521943 32898.85
0.0055003792 -0.05 -0.012783302 33231.592
0.0048530826 -0.05 -0.012031363 33562.811
0.0042385571 -0.05 -0.011266143 33889.067
0.0036585397 -0.05 -0.010487553 34205.887
0.0031148318 -0.05 -0.0096957287 34506.337
0.0026094399 -0.05 -0.0088912322 34779.881
0.0021442246 -0.05 -0.0080745628 35015.52
0.0017210465 -0.05 -0.0072465895 35212.343
0.0013418093 -0.05 -0.0064087151 35368.418
0.0010080919 -0.05 -0.0055623679 35465.535
0.00072127228 -0.05 -0.0047092571 35495.586
0.00048251081 -0.05 -0.0038515496 35458.026
0.00029236329 -0.05 -0.0029916286 35346.069
0.0001508317 -0.05 -0.0021320102 35162.513
5.7495879e-05 -0.05 -0.0012752716 34912.307
1.1394864e-05 -0.05 -0.00042397109 34583.084
0.99768066 -0.05 -0.00033611804 26688.74
0.99304169 -0.05 -0.0010063364 26562.105
0.98840215 -0.05 -0.0016726212 26430.428
0.98376207 -0.05 -0.0023350721 26318.245
0.97912144 -0.05 -0.0029936636 26211.924
0.97448026 -0.05 -0.00364841 26113.277
0.96983855 -0.05 -0.0042993733 26019.941
0.96519632 -0.05 -0.0049465845 25931.663
0.96055357 -0.05 -0.0055900577 25847.709
0.95591031 -0.05 -0.0062298653 25767.532
0.95126654 -0.05 -0.0068660327 25690.979
0.94662228 -0.05 -0.0074985225 25617.704
0.94197752 -0.05 -0.0081274235 25547.233
0.9373323 -0.05 -0.008752761 25479.572
0.93268659 -0.05 -0.0093745713 25414.184
0.92804042 -0.05 -0.0099928964 25351.196
0.92339379 -0.05 -0.010607714 25290.39
0.91874669 -0.05 -0.011219031 25231.687
0.91409915 -0.05 -0.011826962 25174.556
0.90945116 -0.05 -0.012431486 25119.562
0.90480273 -0.05 -0.013032571 25065.984
0.90015387 -0.05 -0.013630361 25013.887
0.89550457 -0.05 -0.014224739 24963.594
0.89085486 -0.05 -0.014815813 24914.07
0.88620473 -0.05 -0.01540363 24866.223
0.88155418 -0.05 -0.0159881 24819.375
0.87690323 -0.05 -0.016569356 24773.492
0.87225187 -0.05 -0.017147383 24728.728
0.86760011 -0.05 -0.017722168 24684.961
0.86294795 -0.05 -0.018293719 24642.204
0.85829541 -0.05 -0.018862095 24600.16
0.85364248 -0.05 -0.01942729 24559.146
0.84898916 -0.05 -0.01998931 24518.689
0.84433547 -0.05 -0.020548224 24479.062
0.8396814 -0.05 -0.021103928 24440.443
0.83502695 -0.05 -0.021656533 24401.996
0.83037214 -0.05 -0.022206072 24364.515
0.82571696 -0.05 -0.022752481 24327.52
0.82106143 -0.05 -0.023295768 24291.398
0.81640553 -0.05 -0.023835961 24255.534
0.81174927 -0.05 -0.024373126 24220.251
0.80709266 -0.05 -0.024907211 24185.462
0.80243571 -0.05 -0.025438235 24151.13
0.7977784 -0.05 -0.025966147 24117.506
0.79312074 -0.05 -0.026490982 24083.958
0.78846275 -0.05 -0.027012845 24050.611
0.78380442 -0.05 -0.027531686 24017.78
0.77914575 -0.05 -0.028047403 23985.552
0.77448674 -0.05 -0.028560079 23953.249
0.76982739 -0.05 -0.029069752 23921.507
0.76516771 -0.05 -0.02957633 23890.156
0.7605077 -0.05 -0.030079852 23858.986
0.75584737 -0.05 -0.030580367 23827.936
0.75118671 -0.05 -0.03107785 23797.244
0.74652573 -0.05 -0.031572241 23766.928
0.74186441 -0.05 -0.032063551 23736.838
0.73720278 -0.05 -0.032551782 23707.022
0.73254083 -0.05 -0.03303698 23677.203
0.72787854 -0.05 -0.033519069 23647.997
0.72321595 -0.05 -0.033998064 23618.523
0.71855304 -0.05 -0.034473962 23589.748
0.71388981 -0.05 -0.034946671 23561.025
0.70922626 -0.05 -0.035416302 23532.188
0.7045624 -0.05 -0.03588285 23503.477
0.69989823 -0.05 -0.036346252 23474.928
0.69523375 -0.05 -0.036806454 23446.754
0.69056894 -0.05 -0.037263403 23418.778
0.68590382 -0.05 -0.037717206 23390.496
0.68123839 -0.05 -0.038167801 23362.823
0.67657265 -0.05 -0.038615123 23334.942
0.67190661 -0.05 -0.039059237 23307.244
0.66724025 -0.05 -0.039500049 23279.91
0.66257357 -0.05 -0.039937521 23252.69
0.6579066 -0.05 -0.040371712 23225.319
0.65323931 -0.05 -0.040802591 23198.198
0.64857171 -0.05 -0.041230085 23171.224
0.6439038 -0.05 -0.041654149 23144.511
0.63923558 -0.05 -0.042074786 23117.649
0.63456705 -0.05 -0.042492 23090.916
0.62989821 -0.05 -0.042905734 23064.26
0.62522906 -0.05 -0.043315943 23037.742
0.62055961 -0.05 -0.043722625 23011.103
0.61588983 -0.05 -0.044125719 22984.727
0.61121975 -0.05 -0.044525219 22958.062
0.60654937 -0.05 -0.044921074 22931.852
0.60187867 -0.05 -0.045313219 22905.424
0.59720766 -0.05 -0.045701683 22879.051
0.59253634 -0.05 -0.046086399 22852.776
0.58786471 -0.05 -0.046467288 22826.711
0.58319277 -0.05 -0.046844345 22800.488
0.57852051 -0.05 -0.047217535 22774.502
0.57384795 -0.05 -0.047586814 22748.384
0.56917507 -0.05 -0.047952124 22722.527
0.56450189 -0.05 -0.048313436 22696.376
0.55982839 -0.05 -0.048670677 22670.605
0.55515457 -0.05 -0.04902381 22644.464
0.55048045 -0.05 -0.04937281 22618.752
0.54580601 -0.05 -0.04971755 22593.092
0.54113126 -0.05 -0.050058049 22567.19
0.5364562 -0.05 -0.050394263 22541.255
0.53178083 -0.05 -0.050726133 22515.151
0.52710515 -0.05 -0.05105357 22489.399
0.52242915 -0.05 -0.051376464 22463.756
0.51775284 -0.05 -0.051694815 22438.016
0.51307623 -0.05 -0.052008601 22412.305
0.5083993 -0.05 -0.052317709 22386.851
0.50372205 -0.05 -0.052622098 22361.209
0.4990445 -0.05 -0.052921702 22335.857
0.49436664 -0.05 -0.053216428 22310.47
0.48968848 -0.05 -0.053506199 22285.398
0.48501001 -0.05 -0.053790938 22260.216
0.48033122 -0.05 -0.054070627 22235.098
0.47565213 -0.05 -0.05434516 22210.214
0.47097274 -0.05 -0.05461447 22185.266
0.46629305 -0.05 -0.054878504 22160.422
0.46161306 -0.05 -0.055137129 22135.826
0.45693277 -0.05 -0.055390258 22111.283
0.45225217 -0.05 -0.05563783 22086.851
0.44757129 -0.05 -0.055879797 22062.327
0.44289011 -0.05 -0.056116052 22038.248
0.43820865 -0.05 -0.056346461 22014.449
0.43352689 -0.05 -0.056570934 21990.916
0.42884486 -0.05 -0.056789429 21967.196
0.42416254 -0.05 -0.057001839 21943.79
0.41947994 -0.05 -0.057208045 21920.369
0.41479707 -0.05 -0.057407955 21897.399
0.41011393 -0.05 -0.057601449 21874.65
0.40543053 -0.05 -0.057788457 21852.116
0.40074687 -0.05 -0.057968847 21829.981
0.39606296 -0.05 -0.058142512 21807.919
0.3913788 -0.05 -0.05830933 21786.226
0.38669439 -0.05 -0.058469176 21764.687
0.38200975 -0.05 -0.058621944 21743.548
0.37732488 -0.05 -0.058767528 21722.718
0.37263978 -0.05 -0.058905769 21702.675
0.36795448 -0.05 -0.059036525 21682.854
0.36326896 -0.05 -0.059159726 21663.395
0.35858325 -0.05 -0.059275201 21644.546
0.35389735 -0.05 -0.059382803 21625.987
0.34921128 -0.05 -0.05948244 21607.742
0.34452504 -0.05 -0.059573923 21590.318
0.33983865 -0.05 -0.059657063 21573.48
0.33515211 -0.05 -0.059731741 21557.152
0.33046544 -0.05 -0.059797856 21541.231
0.32577866 -0.05 -0.059855197 21526.422
0.32109177 -0.05 -0.059903556 21512.209
0.31640481 -0.05 -0.059942821 21498.557
0.31171777 -0.05 -0.059972784 21485.189
0.30703069 -0.05 -0.059993273 21471.982
0.30234356 -0.05 -0.060004087 21460.975
