# p  FACE_DATA 150
# x y z  p
0.29576437 -0.05 -0.059999701 21728.268
0.28738431 -0.05 -0.059968924 21724.129
0.27918472 -0.05 -0.059906283 21723.707
0.27116186 -0.05 -0.05981265 21726.079
0.26331203 -0.05 -0.059689027 21731.891
0.25563166 -0.05 -0.059536266 21741.696
0.24811723 -0.05 -0.059355154 21755.586
0.24076528 -0.05 -0.059146557 21773.389
0.23357246 -0.05 -0.058911358 21794.957
0.22653546 -0.05 -0.058650342 21820.598
0.21965107 -0.05 -0.058364201 21850.165
0.21291613 -0.05 -0.058053757 21883.18
0.20632755 -0.05 -0.057719714 21920.098
0.19988232 -0.05 -0.057362759 21959.897
0.19357748 -0.05 -0.056983702 22003.195
0.18741014 -0.05 -0.056583118 22050.641
0.18137746 -0.05 -0.056161624 22102.241
0.17547671 -0.05 -0.055719844 22158.273
0.16970518 -0.05 -0.055258362 22217.851
0.16406021 -0.05 -0.05477783 22280.884
0.15853921 -0.05 -0.054278745 22347.821
0.15313968 -0.05 -0.053761636 22418.41
0.14785914 -0.05 -0.053226963 22493.612
0.14269518 -0.05 -0.052675258 22572.553
0.13764543 -0.05 -0.052106992 22655.566
0.13270762 -0.05 -0.051522466 22740.713
0.12787949 -0.05 -0.050922169 22828.845
0.12315883 -0.05 -0.050306449 22922.036
0.11854353 -0.05 -0.049675629 23018.424
0.11403148 -0.05 -0.04903008 23118.239
0.10962066 -0.05 -0.04837006 23222.141
0.10530909 -0.05 -0.047695796 23330.085
0.10109483 -0.05 -0.047007509 23441.82
0.096976017 -0.05 -0.046305459 23557.256
0.092950808 -0.05 -0.04558984 23677.519
0.08901745 -0.05 -0.044860715 23804.031
0.085174232 -0.05 -0.044118143 23936.801
0.081419479 -0.05 -0.043362242 24076.408
0.077751578 -0.05 -0.042593081 24223.584
0.074168981 -0.05 -0.041810614 24377.358
0.070670198 -0.05 -0.041014781 24536.08
0.06725379 -0.05 -0.040205491 24700.061
0.06391837 -0.05 -0.039382651 24870.171
0.060662655 -0.05 -0.038545988 25048.485
0.057485397 -0.05 -0.037695273 25233.79
0.054385414 -0.05 -0.036830261 25427.555
0.051361622 -0.05 -0.035950545 25629.822
0.048412992 -0.05 -0.035055749 25841.709
0.045538629 -0.05 -0.034145316 26064.339
0.042737712 -0.05 -0.03321865 26297.539
0.040009498 -0.05 -0.032275149 26541.221
0.037353406 -0.05 -0.031314032 26796.571
0.034768993 -0.05 -0.030334375 27066.262
0.032255944 -0.05 -0.029335211 27353.921
0.029814132 -0.05 -0.028315426 27660.582
0.027443661 -0.05 -0.027273729 27985.599
0.025144824 -0.05 -0.026208776 28331.81
0.022918276 -0.05 -0.02511886 28701.494
0.020764984 -0.05 -0.02400217 29093.325
0.018686283 -0.05 -0.022856725 29512.039
0.016684024 -0.05 -0.021680228 29957.752
0.01476059 -0.05 -0.020470219 30432.896
0.012919251 -0.05 -0.019223865 30939.739
0.011164249 -0.05 -0.017938283 31479.113
0.0095007128 -0.05 -0.016610449 32055.466
0.0079348886 -0.05 -0.015236971 32672.388
0.006474941 -0.05 -0.013814774 33306.921
0.0051312596 -0.05 -0.012341958 33919.606
0.0039150106 -0.05 -0.010816511 34479.086
0.0028396284 -0.05 -0.009238845 34993.009
0.0019206554 -0.05 -0.007613688 35373.932
0.0011720639 -0.05 -0.0059475212 35551.075
0.0006061561 -0.05 -0.004252283 35502.126
0.00023063831 -0.05 -0.0025452878 35190.318
4.5460517e-05 -0.05 -0.0008455405 34581.71
0.99536103 -0.05 -0.00067021835 26340.784
0.98608197 -0.05 -0.0020028877 26143.624
0.97680071 -0.05 -0.0033200849 25947.618
0.96751731 -0.05 -0.0046220425 25782.051
0.95823181 -0.05 -0.0059090613 25629.198
0.94894428 -0.05 -0.0071813587 25490.805
0.93965479 -0.05 -0.0084391859 25362.835
0.93036339 -0.05 -0.0096828487 25244.048
0.92107013 -0.05 -0.010912491 25133.061
0.91177504 -0.05 -0.012128333 25028.735
0.9024782 -0.05 -0.013330648 24930.551
0.89317963 -0.05 -0.014519511 24837.901
0.88387936 -0.05 -0.015695054 24749.853
0.87457746 -0.05 -0.016857552 24665.728
0.86527394 -0.05 -0.01800713 24585.352
0.85596885 -0.05 -0.019143876 24508.113
0.84666223 -0.05 -0.020267984 24433.717
0.8373541 -0.05 -0.021379502 24362.136
0.82804448 -0.05 -0.022478516 24292.919
0.8187334 -0.05 -0.023565119 24225.989
0.8094209 -0.05 -0.024639397 24160.971
0.80010698 -0.05 -0.025701394 24097.897
0.79079168 -0.05 -0.026751168 24036.265
0.78147501 -0.05 -0.027788748 23976.259
0.77215699 -0.05 -0.028814138 23917.499
0.76283764 -0.05 -0.029827333 23860.179
0.75351698 -0.05 -0.030828337 23803.746
0.744195 -0.05 -0.03181713 23748.312
0.73487174 -0.05 -0.032793639 23693.435
0.72554719 -0.05 -0.033757832 23639.438
0.71622136 -0.05 -0.034709535 23586.314
0.70689427 -0.05 -0.03564879 23533.527
0.69756593 -0.05 -0.03657554 23481.631
0.68823632 -0.05 -0.037489546 23430.514
0.67890547 -0.05 -0.03839067 23379.943
0.66957337 -0.05 -0.039278803 23329.479
0.66024004 -0.05 -0.040153805 23279.189
0.65090546 -0.05 -0.04101549 23229.153
0.64156964 -0.05 -0.041863622 23179.625
0.63223258 -0.05 -0.042697993 23130.388
0.62289428 -0.05 -0.043518409 23081.525
0.61355475 -0.05 -0.044324591 23032.953
0.60421397 -0.05 -0.045116235 22984.695
0.59487195 -0.05 -0.045893096 22936.496
0.58552869 -0.05 -0.046654869 22888.618
0.57618419 -0.05 -0.047401205 22840.826
0.56683843 -0.05 -0.048131797 22793.229
0.55749143 -0.05 -0.04884624 22745.951
0.54814318 -0.05 -0.049544112 22698.933
0.53879368 -0.05 -0.050225066 22651.828
0.52944294 -0.05 -0.050888717 22604.94
0.52009095 -0.05 -0.051534504 22558.659
0.51073771 -0.05 -0.052161963 22512.386
0.50138323 -0.05 -0.052770676 22466.519
0.49202751 -0.05 -0.05336005 22421.421
0.48267056 -0.05 -0.053929509 22376.852
0.47331239 -0.05 -0.054478508 22332.77
0.46395301 -0.05 -0.055006444 22289.171
0.45459243 -0.05 -0.05551264 22245.933
0.44523066 -0.05 -0.055996468 22202.642
0.43586772 -0.05 -0.056457197 22160.173
0.42650365 -0.05 -0.056894081 22118.459
0.41713847 -0.05 -0.057306403 22078.005
0.4077722 -0.05 -0.057693321 22039.287
0.39840488 -0.05 -0.058053993 22000.886
0.38903655 -0.05 -0.058387504 21963.958
0.37966728 -0.05 -0.058692933 21928.264
0.3702971 -0.05 -0.058969274 21894.521
0.36092607 -0.05 -0.059215505 21862.593
0.35155428 -0.05 -0.059430617 21832.721
0.34218182 -0.05 -0.059613395 21805.316
0.33280876 -0.05 -0.059762649 21780.423
0.32343521 -0.05 -0.059877122 21759.378
0.31406128 -0.05 -0.059955444 21742.913
0.30468712 -0.05 -0.059996221 21733.066
