/*--------------------------------*- C++ -*----------------------------------*\
| =========                 |                                                 |
| \\      /  F ield         | OpenFOAM: The Open Source CFD Toolbox           |
|  \\    /   O peration     | Version:  2306                                  |
|   \\  /    A nd           | Website:  www.openfoam.com                      |
|    \\/     M anipulation  |                                                 |
\*---------------------------------------------------------------------------*/
FoamFile
{
    version     2.0;
    format      ascii;
    arch        "LSB;label=32;scalar=64";
    class       volScalarField;
    location    "125";
    object      div(phi);
}
// * * * * * * * * * * * * * * * * * * * * * * * * * * * * * * * * * * * * * //

dimensions      [0 0 -1 0 0 0 0];

internalField   nonuniform List<scalar> 
1340
(
0.00257345
-0.00186327
0.000967239
-0.000886966
0.000659321
0.000443322
0.000471021
0.00087931
0.000527413
0.000462799
0.00036875
0.00028001
0.000214742
0.000180553
0.000164637
0.0001798
0.000194475
0.00024625
0.000264606
0.000354719
0.000290598
0.00038715
-1.73502e-05
-9.39214e-05
-0.000192238
-4.20847e-05
0.000119248
0.000156448
0.000169249
0.000219139
0.00106672
-0.000517022
0.000261476
0.000493198
0.00117475
-0.00159356
0.0034432
5.78689e-05
0.00130054
0.000170947
-0.000248312
-0.00197423
0.000739872
-0.00057372
0.000494329
-0.000430582
0.000611977
0.000452876
0.000943086
0.000354674
0.000521799
0.000387395
0.000315133
0.000257861
0.000230961
0.000204244
0.000192989
0.000190349
0.000182055
0.000194132
0.000177529
0.000194066
0.000111538
7.00612e-05
-0.000236502
-0.000338712
-0.00035026
-0.000129945
0.000108053
0.000341206
0.000419527
0.000513781
0.00113091
-0.000116832
0.00045555
0.000515924
0.000877014
0.00079992
0.00106112
0.000431689
0.000416939
-0.000111073
-0.000803514
-0.0019445
0.00110141
-0.00115901
0.000783182
0.0003318
0.000694205
0.000421111
0.000681491
0.000307348
0.000269642
0.000212494
0.000179808
0.000161544
0.000152798
0.000169753
0.000184308
0.000217614
0.000239792
0.000277381
0.000296289
0.000303541
0.000277213
0.000158266
6.53518e-05
1.09067e-05
2.04822e-05
-1.69065e-05
4.4144e-05
-7.24774e-05
-6.40473e-06
0.000328015
-0.000313059
6.85349e-05
0.00023127
0.00068699
0.00165167
-0.000391774
0.000350123
-0.000272257
-0.000241817
0.000296914
0.00119252
-0.000776927
0.000492611
0.000104965
0.000326218
0.000706404
0.000571278
9.60718e-05
0.000249619
0.000182438
0.000151675
0.000160741
0.000158768
0.000183379
0.000198387
0.000219147
0.000246394
0.000254926
0.000275057
0.000256498
0.000231626
0.000127398
-4.34103e-05
-0.000210515
-0.000234549
-0.000168652
8.94033e-06
0.00021929
0.000318239
0.000455435
0.000800804
6.44645e-05
0.000425732
0.00045249
0.000734391
-0.00044732
-1.9827e-05
-0.000221029
-0.000513953
9.90811e-05
0.000885868
0.000177005
0.000198979
0.000178205
0.00075703
0.000221653
0.000140919
0.000322511
0.000103636
9.27411e-05
0.000104627
0.000107627
0.000120834
0.000138899
0.000150894
0.000181096
0.000196719
0.000231353
0.000239301
0.000270927
0.000258082
0.000248623
0.000173899
0.00011112
5.26751e-05
-5.58858e-06
-1.18306e-06
-4.10909e-05
-9.22055e-05
-0.00010569
9.60881e-05
-0.000241713
3.60216e-06
0.000193005
0.000652867
-0.000368822
-4.50265e-05
-0.000801671
9.089e-05
-0.000483492
-4.25148e-05
0.000432308
0.000452372
0.000558679
0.000102747
0.000455718
0.000241813
-1.82083e-05
8.3111e-05
8.15643e-05
0.000100612
0.000103829
0.000149698
0.000164989
0.000203275
0.000228322
0.000260821
0.000292432
0.000298121
0.000305593
0.000258033
0.000201144
5.24929e-05
-5.58187e-05
-0.000158206
-0.000142839
-8.55948e-05
9.61492e-05
0.000194121
0.000365686
0.000584131
0.000182738
0.000412783
0.000477556
0.000768031
-1.9263e-05
-0.000558415
-0.000172005
-0.000463519
-0.000144234
0.000681295
0.000398034
0.000333633
0.00055548
6.00275e-05
3.43142e-05
0.000132065
5.87185e-05
8.49759e-05
9.04934e-05
0.000118126
0.000129723
0.000143789
0.000158447
0.00016294
0.000185947
0.000191044
0.000212456
0.000207021
0.000216242
0.000184782
0.000165597
0.00010885
7.18331e-05
8.47818e-06
-2.48447e-05
-4.05743e-05
-0.000156056
-0.000132792
-6.76396e-05
-0.00022028
-4.26757e-05
0.000151791
0.000601373
3.07092e-05
-0.000397858
-8.30369e-05
7.88888e-05
0.0007854
0.000459805
0.000576396
0.000334912
0.000128683
0.000179415
6.77396e-05
-4.2543e-06
4.86652e-05
0.000106049
0.000122535
0.000153427
0.000155306
0.000201391
0.000209855
0.000243314
0.000265508
0.000294528
0.000312068
0.00030024
0.000285024
0.000216304
0.000145261
2.89045e-05
-4.14629e-05
-0.000110322
-9.72677e-05
-2.76675e-05
6.43367e-05
0.000207045
0.000376331
0.000196301
0.000355641
0.000444212
0.000713047
-0.000202596
4.15496e-05
-6.78008e-05
0.000580752
0.000491856
0.000535698
0.000146152
0.000527494
2.28416e-05
-5.29161e-05
6.21529e-05
7.85199e-05
9.94646e-05
0.000109045
0.000146302
0.000145185
0.00016873
0.000169847
0.000172612
0.000173332
0.00016825
0.000178245
0.000168239
0.000176043
0.000154078
0.00015612
0.00011858
0.000115251
5.48171e-05
4.01494e-05
-3.06283e-05
-4.50489e-05
-0.000151346
-0.000166147
-0.000123585
-0.00016469
-9.77588e-05
0.000126239
0.000472526
0.000211383
-0.000152841
0.000460109
0.000498253
0.00030241
1.8778e-05
5.05895e-05
0.000132239
7.45773e-05
0.000119781
0.00015757
0.00020444
0.000204415
0.000239939
0.000243798
0.000264064
0.000279907
0.000292593
0.000289347
0.000265125
0.000230427
0.000172171
0.000101125
3.07268e-05
-4.28767e-05
-7.47946e-05
-8.32487e-05
-2.83615e-05
5.37425e-05
0.000216092
0.000136734
0.000256486
0.000394241
0.000621735
0.000410776
0.000289047
-9.84302e-06
0.000185578
0.000198761
0.000170775
0.000169243
0.000192599
0.000185743
0.000179139
0.000166943
0.000155878
0.000152993
0.000130633
0.00013199
0.000100145
0.000112711
6.62434e-05
8.16421e-05
8.38787e-06
2.34052e-05
-7.31128e-05
-0.000100333
-0.000185356
-0.000100682
-0.000188586
-7.43038e-05
8.33226e-05
0.00036909
0.00056557
7.08609e-05
7.34442e-05
0.000202329
0.00019053
0.000221484
0.000221094
0.000234038
0.000234659
0.000242118
0.00025151
0.000251474
0.000233121
0.000214542
0.00017491
0.0001341
7.71839e-05
1.90202e-05
-3.16113e-05
-7.36917e-05
-6.93114e-05
-3.21753e-05
9.31693e-05
5.41652e-05
0.000142
0.000307688
0.000533111
0.000458827
0.000233709
0.000120158
0.000159933
0.000167627
0.000179813
0.00016076
0.000147338
0.000133206
0.000119161
0.000110971
8.79406e-05
8.93744e-05
6.38492e-05
7.29049e-05
3.91956e-05
4.21687e-05
-8.49833e-07
-1.81901e-05
-9.38167e-05
-0.000125641
-9.01807e-05
-0.000128775
-9.80649e-05
0.000100909
0.000265941
0.000159286
0.000152697
0.000180637
0.000174489
0.000182956
0.000179496
0.000178428
0.000182093
0.000193417
0.000197941
0.00019765
0.000178858
0.000169633
0.000132511
0.000111405
5.42825e-05
2.65012e-05
-4.06958e-05
-4.24263e-05
-6.24711e-05
3.42177e-05
-2.19998e-05
4.25986e-05
0.000195226
0.000436346
0.000405067
1.3836e-05
0.000114906
0.000137949
0.000124709
0.00011685
0.000103091
9.77058e-05
9.09778e-05
8.02314e-05
7.17078e-05
5.91585e-05
5.72706e-05
4.41614e-05
4.45689e-05
2.33958e-05
2.47081e-05
-1.46409e-05
-3.24324e-05
-8.82435e-05
-4.50261e-05
-0.000102892
-6.75982e-05
0.000101476
0.000215941
0.000361316
2.86722e-05
0.00011231
0.000106796
0.000105998
0.000115448
0.000122259
0.000137725
0.000156433
0.00015468
0.000157818
0.000141895
0.000137188
0.000110232
9.32632e-05
5.64843e-05
2.1229e-05
-7.53815e-06
-2.62121e-05
3.99916e-06
-4.82844e-05
-2.98701e-05
9.3404e-05
0.00032375
0.000194743
7.5817e-05
6.71399e-05
6.2042e-05
6.6131e-05
6.98669e-05
7.37557e-05
6.69139e-05
6.00787e-05
4.95379e-05
4.72046e-05
3.80909e-05
3.85487e-05
2.49526e-05
2.93682e-05
4.34619e-06
2.94345e-06
-4.15759e-05
-6.21344e-06
-6.99151e-05
-3.71907e-05
0.000104026
0.000180311
9.82938e-05
1.36894e-05
4.93741e-05
6.14771e-05
6.97531e-05
9.2625e-05
0.000106262
0.000124684
0.000133843
0.00013035
0.000129238
0.000120373
0.000114593
0.000101585
8.56595e-05
6.0333e-05
3.69511e-05
1.68174e-05
9.15942e-06
-4.18659e-05
-5.7898e-05
2.2111e-05
0.000217003
7.05267e-05
3.99305e-05
3.95128e-05
5.80347e-05
6.8555e-05
7.15493e-05
6.96053e-05
5.63876e-05
5.24095e-05
3.96136e-05
4.3111e-05
3.0278e-05
3.60004e-05
2.13261e-05
2.90334e-05
6.73602e-06
1.019e-05
-6.03465e-06
-1.90059e-05
-2.35388e-05
0.000103776
0.000176399
3.9716e-05
-4.77215e-06
4.17026e-05
6.83055e-05
7.60207e-05
9.77657e-05
0.000106934
0.000116137
0.000112287
0.000110059
0.000105809
0.000103639
0.00010059
9.29272e-05
8.21796e-05
6.26038e-05
5.02146e-05
2.02886e-05
-1.53337e-05
-5.56215e-05
-1.7004e-07
0.0001306
5.04919e-05
5.0302e-05
5.19783e-05
6.91602e-05
7.08305e-05
6.89969e-05
6.05116e-05
4.73601e-05
4.38929e-05
3.56191e-05
3.69515e-05
2.7746e-05
3.00836e-05
2.20614e-05
2.28834e-05
1.18915e-05
1.09451e-05
-8.44369e-06
3.36042e-06
8.91641e-05
0.000174262
2.72991e-05
-5.62593e-06
1.62261e-05
7.22044e-05
8.46067e-05
9.22576e-05
9.54363e-05
9.24121e-05
8.81031e-05
8.63745e-05
8.51965e-05
8.70058e-05
8.57277e-05
8.19894e-05
7.06059e-05
6.11908e-05
3.21563e-05
8.02816e-06
-3.34951e-05
9.07013e-06
7.42586e-05
4.29659e-05
0.000125587
6.08029e-05
6.96996e-05
6.40258e-05
5.3435e-05
4.41954e-05
3.6325e-05
3.48159e-05
3.02113e-05
2.83321e-05
2.24549e-05
2.28785e-05
1.51207e-05
1.66893e-05
4.406e-06
5.4667e-06
8.90156e-06
7.35075e-05
0.000152729
6.36865e-05
4.7578e-05
0.000121049
8.74174e-05
7.21539e-05
7.08781e-05
6.78081e-05
6.59205e-05
6.28884e-05
6.43352e-05
6.55941e-05
7.01552e-05
6.75826e-05
6.59024e-05
5.65738e-05
3.99238e-05
2.26194e-05
-6.62418e-06
2.90659e-05
5.30112e-05
0.000137592
0.000125405
8.18424e-05
6.20022e-05
5.10396e-05
4.14078e-05
3.34739e-05
2.90859e-05
2.70489e-05
2.56902e-05
2.19855e-05
1.9199e-05
1.53436e-05
1.26302e-05
9.32824e-06
4.32363e-06
5.50654e-06
9.54204e-06
6.05286e-05
0.000125434
0.000154828
6.59135e-05
5.19287e-05
4.54081e-05
4.46745e-05
4.58171e-05
4.36412e-05
4.31937e-05
4.21972e-05
4.67212e-05
4.92672e-05
5.22817e-05
5.17438e-05
4.87303e-05
4.02967e-05
3.00862e-05
1.62622e-05
4.76593e-05
6.42236e-05
-6.84563e-06
3.2224e-05
3.25558e-05
2.84839e-05
2.5062e-05
2.14709e-05
2.00042e-05
1.93336e-05
1.97946e-05
1.71018e-05
1.50879e-05
1.13301e-05
9.37319e-06
5.6018e-06
3.89913e-06
3.1046e-06
9.19042e-06
5.53685e-05
8.54537e-05
9.96507e-05
-2.26398e-05
-1.02066e-05
1.87667e-05
2.5593e-05
2.82292e-05
2.83126e-05
2.67438e-05
2.71561e-05
2.94974e-05
3.35173e-05
3.6138e-05
3.88955e-05
3.83498e-05
3.6845e-05
3.12786e-05
3.30888e-05
5.22127e-05
7.90774e-05
4.1154e-05
5.3944e-05
1.14282e-05
1.73665e-05
1.62126e-05
1.3776e-05
1.46927e-05
1.44051e-05
1.44025e-05
1.15233e-05
1.03122e-05
7.16693e-06
5.61583e-06
3.00145e-06
3.51334e-06
9.08762e-06
5.06923e-05
6.62611e-05
2.3445e-05
1.83346e-06
4.985e-05
2.92913e-05
2.36821e-05
2.08539e-05
1.81727e-05
1.72309e-05
1.84821e-05
2.12504e-05
2.41329e-05
2.69508e-05
2.88234e-05
2.99157e-05
2.90547e-05
4.00485e-05
5.47569e-05
3.21957e-05
7.37061e-05
5.96201e-05
3.04926e-05
2.36468e-05
1.72804e-05
1.37127e-05
1.18975e-05
1.25122e-05
1.12256e-05
1.04682e-05
8.33241e-06
7.29674e-06
4.94815e-06
4.05643e-06
4.506e-06
1.18151e-05
2.96867e-05
5.57661e-05
8.32854e-05
2.82545e-05
2.38301e-05
2.20933e-05
1.77011e-05
1.46214e-05
1.16943e-05
1.18269e-05
1.27404e-05
1.52353e-05
1.73376e-05
2.01753e-05
2.20308e-05
2.47923e-05
3.68999e-05
5.2204e-05
-1.30937e-05
-2.57056e-05
1.77294e-05
2.3239e-05
1.94968e-05
1.44233e-05
1.12632e-05
1.02138e-05
9.24808e-06
7.98015e-06
7.30465e-06
6.18029e-06
5.17455e-06
4.25481e-06
6.5492e-06
1.4489e-05
1.54444e-05
6.85328e-05
6.13077e-05
2.48025e-06
2.00339e-05
2.04651e-05
1.67045e-05
1.19677e-05
8.66241e-06
6.79927e-06
8.03577e-06
8.90677e-06
1.10386e-05
1.31457e-05
1.54222e-05
2.03749e-05
3.2088e-05
4.97872e-05
4.34966e-05
2.19739e-05
1.87283e-05
1.22171e-05
8.92423e-06
7.24308e-06
7.06369e-06
6.65895e-06
6.5271e-06
6.00645e-06
5.26506e-06
5.13033e-06
8.93867e-06
1.6386e-05
1.45813e-05
6.21432e-06
7.5611e-06
1.47534e-05
1.23017e-05
8.65468e-06
5.47958e-06
5.84102e-06
5.73619e-06
7.04618e-06
7.68524e-06
8.93711e-06
1.13688e-05
1.6507e-05
2.60786e-05
4.30807e-05
3.70675e-05
3.07518e-05
1.23723e-05
9.74744e-06
6.2979e-06
7.28041e-06
7.11449e-06
8.17855e-06
7.42561e-06
6.8567e-06
5.92569e-06
6.12012e-06
1.03438e-05
1.71596e-05
4.43062e-06
1.04962e-05
2.47506e-06
2.54423e-05
1.47352e-05
9.42493e-06
8.00562e-06
7.55293e-06
8.02137e-06
7.13054e-06
6.58036e-06
6.68479e-06
8.80582e-06
1.34056e-05
1.71978e-05
3.86108e-05
3.83565e-05
5.01033e-05
1.70771e-05
1.21433e-05
1.04837e-05
9.54531e-06
1.13207e-05
9.62431e-06
8.5377e-06
6.66506e-06
5.84249e-06
6.28893e-06
9.36969e-06
1.7233e-05
-4.30171e-06
2.46321e-05
2.73464e-05
1.72228e-05
1.29744e-05
1.13973e-05
1.02061e-05
8.46852e-06
6.20784e-06
4.73205e-06
4.24435e-06
6.47469e-06
1.05675e-05
7.63934e-06
3.75122e-05
4.39561e-05
1.62331e-05
1.26366e-05
9.85582e-06
1.17198e-05
9.58805e-06
7.94178e-06
5.6052e-06
4.00448e-06
4.31155e-06
5.87909e-06
5.88332e-06
1.92702e-05
-1.23779e-06
3.06273e-05
9.14804e-06
8.53245e-06
1.172e-05
6.60803e-06
4.70582e-06
4.31866e-06
2.28059e-06
1.78291e-06
2.49177e-06
3.21904e-06
9.81814e-06
1.15139e-05
2.20214e-05
-2.36868e-05
-3.68395e-07
6.71386e-06
-6.77137e-07
-8.92918e-07
2.80673e-06
-1.14463e-07
9.54547e-07
1.28673e-06
1.85066e-06
5.52479e-06
8.71675e-06
3.80778e-06
1.25303e-06
7.30916e-06
-6.82971e-06
-4.65989e-06
-3.52772e-06
-2.91857e-07
-5.53614e-06
-5.43544e-07
-5.46328e-07
-1.7233e-07
1.57903e-06
2.73818e-06
-1.6046e-07
1.03994e-05
1.01559e-06
6.65762e-07
-6.09084e-06
-4.17613e-06
-9.96176e-06
-1.8125e-06
-1.21919e-06
-1.37538e-06
-9.14685e-08
7.03279e-07
2.0963e-06
8.03679e-06
-7.70216e-06
6.13069e-06
-1.62181e-05
-5.79298e-06
-1.01731e-05
-2.86094e-06
-7.7046e-07
-2.11535e-06
-8.00334e-07
-6.29515e-07
9.44086e-07
2.25013e-06
-3.96259e-06
1.13325e-05
-1.02081e-06
-8.70366e-06
-4.6754e-06
-1.77518e-06
-2.15963e-06
-1.40333e-06
-1.91499e-06
-1.13185e-06
-4.25896e-07
5.05533e-07
7.37164e-06
-2.92097e-06
-1.73943e-05
-5.77557e-06
-2.62063e-06
-1.37373e-06
-1.18694e-06
-1.69224e-06
-1.66329e-06
-1.35815e-06
1.35112e-07
2.33468e-06
-2.91699e-06
9.20689e-06
2.81208e-06
-4.28934e-06
-2.30989e-06
-2.527e-06
-1.75375e-07
-2.32061e-06
-4.67324e-07
-1.74975e-06
3.13036e-07
5.54503e-07
7.99522e-06
-1.32706e-06
1.92964e-06
-5.86608e-06
1.29091e-06
-3.94281e-06
2.01384e-06
-2.58276e-06
1.92399e-06
2.99993e-06
4.56944e-06
-1.10761e-06
7.70245e-06
-1.22496e-05
-9.46022e-07
-4.2485e-06
2.01406e-06
-1.53664e-06
2.52653e-06
3.57139e-06
3.06923e-06
1.63094e-06
6.12943e-06
-3.51627e-08
-1.04373e-06
-1.66611e-06
1.27885e-07
2.41221e-07
1.5419e-06
2.67133e-06
3.04979e-06
2.37047e-06
2.05288e-06
-1.53757e-06
3.26032e-06
-6.12724e-06
-1.05826e-06
1.16055e-07
1.02249e-06
1.38434e-06
2.33004e-06
1.4215e-06
1.75084e-08
-9.70459e-07
3.80829e-06
4.44067e-06
2.40721e-06
-2.64915e-07
1.14697e-06
4.52214e-07
1.81666e-06
6.45829e-07
1.09572e-06
-7.32819e-07
3.07539e-06
3.02891e-06
1.63613e-06
-6.48054e-06
2.3646e-06
-1.67403e-06
3.17508e-06
-1.44992e-06
3.1252e-06
-1.76438e-06
2.6864e-06
2.75371e-06
1.77158e-06
1.16273e-05
-5.3402e-06
2.47366e-06
-2.80804e-06
3.13379e-06
-1.67923e-06
2.25264e-06
3.3285e-06
7.98689e-07
4.38061e-06
6.46016e-06
-5.02609e-07
9.12171e-07
1.05358e-07
9.15933e-07
2.76478e-06
1.11246e-06
5.19574e-06
-1.95173e-06
-1.83676e-06
-2.32681e-07
4.71458e-07
8.15115e-07
1.58641e-06
1.38797e-06
5.64003e-06
2.72758e-07
3.55092e-06
3.75327e-06
4.60395e-07
1.29836e-06
1.41947e-06
1.53719e-06
3.95103e-06
2.04379e-07
4.44608e-06
-2.01348e-06
-1.9985e-06
5.36073e-07
8.18088e-07
1.5714e-06
1.22265e-06
-8.17902e-07
3.4601e-06
-2.15765e-06
5.77387e-06
3.73335e-06
2.94137e-07
1.59194e-06
9.01421e-07
-4.25148e-07
1.68352e-06
-1.63528e-06
5.08856e-06
-4.2889e-06
-1.40828e-06
5.02191e-07
1.33608e-06
6.61543e-07
1.02721e-06
2.25571e-07
1.89414e-06
-1.03166e-06
7.81988e-07
9.49239e-07
-6.48819e-08
1.84823e-06
-1.73059e-07
8.4351e-07
2.4193e-06
-6.57641e-08
1.26584e-06
-1.96513e-06
2.61147e-06
-1.74196e-06
2.02588e-06
2.3429e-06
1.45151e-06
1.58264e-06
5.74813e-07
-1.79067e-07
2.78692e-07
3.06756e-06
-6.38339e-07
4.22338e-06
-2.21459e-06
4.2036e-06
2.04723e-07
1.21473e-06
-5.864e-07
3.41479e-06
-1.07607e-06
1.87323e-06
-1.61419e-07
2.28198e-07
4.65169e-07
3.13414e-06
3.28642e-07
2.24974e-06
-1.65993e-06
3.42501e-06
7.78187e-07
1.41394e-06
1.24756e-06
2.99074e-07
1.26146e-06
-3.42709e-06
-9.20645e-07
4.80674e-07
4.34251e-07
8.85553e-07
1.33274e-06
-9.62601e-07
2.2486e-06
5.54166e-07
1.11484e-06
1.13207e-06
6.08438e-07
1.23499e-06
-1.86709e-07
6.02291e-07
5.79564e-07
6.54351e-07
1.54916e-06
1.38868e-07
1.08003e-06
5.93215e-07
8.26645e-07
7.52688e-07
6.7576e-07
8.45104e-07
1.66062e-06
2.91344e-07
7.17708e-07
-2.60575e-07
1.39267e-06
-6.05392e-07
1.00197e-06
7.62167e-07
-2.74557e-07
1.21398e-06
-1.97782e-08
1.24721e-06
1.48317e-06
1.64333e-06
-8.30095e-07
1.69382e-06
-2.06792e-06
1.45837e-06
-2.80729e-07
-5.35979e-07
-1.23156e-06
-1.661e-06
2.01772e-07
2.86684e-07
1.33915e-07
-7.60216e-07
-1.15407e-06
3.12566e-06
1.56603e-06
1.39565e-06
1.11793e-06
3.16283e-06
6.37654e-06
3.74078e-06
6.1094e-06
1.44489e-05
6.77869e-06
4.60229e-06
6.97537e-06
)
;

boundaryField
{
    inlet
    {
        type            extrapolatedCalculated;
        value           nonuniform List<scalar> 4(1.44489e-05 6.77869e-06 4.60229e-06 6.97537e-06);
    }
    outlet
    {
        type            extrapolatedCalculated;
        value           nonuniform List<scalar> 0();
    }
    walls
    {
        type            extrapolatedCalculated;
        value           nonuniform List<scalar> 
42
(
0.00257345
-0.00186327
0.000967239
-0.000886966
0.000659321
0.000443322
0.000471021
0.00087931
0.000527413
0.000462799
0.00036875
0.00028001
0.000214742
0.000180553
0.000164637
0.0001798
0.000194475
0.00024625
0.000264606
0.000354719
0.000290598
0.00038715
-1.73502e-05
-9.39214e-05
-0.000192238
-4.20847e-05
0.000119248
0.000156448
0.000169249
0.000219139
0.00106672
-0.000517022
0.000261476
0.000493198
0.00117475
-0.00159356
0.0034432
5.78689e-05
0.00130054
0.000170947
-0.000248312
-0.00197423
)
;
    }
    frontAndBack
    {
        type            empty;
    }
    procBoundary5to0
    {
        type            processor;
        value           nonuniform List<scalar> 4(0.000685572 8.58314e-05 0.000295809 -9.51401e-07);
    }
    procBoundary5to1
    {
        type            processor;
        value           nonuniform List<scalar> 
13
(
-0.000567395
0.000207672
0.000207672
-0.000312472
-0.00036918
-0.00036918
0.00023913
0.000165834
0.000165834
0.00025732
0.000201702
6.72232e-05
6.72232e-05
)
;
    }
    procBoundary5to4
    {
        type            processor;
        value           nonuniform List<scalar> 
95
(
0.000750663
0.000984088
2.77098e-05
2.77098e-05
0.000232332
-3.57997e-05
-3.57997e-05
0.00024383
5.99605e-05
5.99605e-05
1.23185e-05
1.23185e-05
0.000198182
0.000198182
9.42043e-05
-7.16657e-05
-7.16657e-05
-2.58008e-05
-2.58008e-05
8.0099e-05
4.1955e-05
4.1955e-05
1.56236e-05
-7.53343e-06
-7.53343e-06
2.56396e-05
-1.34218e-05
-1.34218e-05
6.99912e-05
8.56071e-06
6.4368e-05
6.4368e-05
0.000119758
-4.7674e-05
-5.51472e-05
-5.51472e-05
5.55428e-05
-9.31636e-06
1.3107e-05
1.3107e-05
6.99769e-05
-4.14663e-05
-1.9271e-05
-1.9271e-05
2.84079e-05
-1.17115e-05
4.61448e-05
-6.08376e-06
4.65106e-05
4.65106e-05
1.75189e-05
-5.37228e-07
2.0355e-05
-2.96799e-05
-2.73426e-05
-2.73426e-05
-1.22634e-07
-1.51982e-05
5.06161e-06
-1.02597e-05
-1.22553e-05
-1.22553e-05
1.63277e-06
-8.17428e-06
1.47746e-06
-5.4673e-06
7.01255e-06
-6.53951e-06
-8.48401e-06
-8.48401e-06
3.84793e-06
-4.07651e-06
3.92191e-06
-3.78952e-06
2.90632e-06
-2.7738e-06
-9.79122e-07
4.86642e-07
4.86642e-07
-1.90327e-06
3.17668e-06
-2.31734e-06
2.98214e-06
-1.85859e-06
1.72944e-06
-4.87215e-07
8.08714e-07
1.32866e-06
1.39848e-06
1.39848e-06
1.08447e-06
1.88711e-06
-1.02524e-06
9.33119e-06
6.603e-06
)
;
    }
    procBoundary5to6
    {
        type            processor;
        value           nonuniform List<scalar> 
86
(
-0.000319793
0.000484606
-0.000475876
0.000466951
-0.000608961
0.000445936
-0.000779394
0.000372435
-0.000838282
0.000282353
-0.00080089
0.000194336
-0.000745198
0.000123679
-0.000641455
6.1701e-05
-0.000550122
1.00716e-05
-0.000435458
-2.09002e-05
-0.000364428
-3.80741e-05
-0.000271622
-3.18471e-05
-0.000197157
-1.65433e-05
-0.000122451
-1.58657e-06
-6.34047e-05
1.65836e-05
-4.2779e-05
2.14581e-05
-2.43212e-05
2.9791e-06
2.9791e-06
5.54853e-05
-4.75073e-06
4.64031e-05
-1.27151e-05
4.32068e-05
-1.62178e-05
3.93012e-05
-7.99662e-06
1.83441e-05
-6.65955e-06
1.10776e-05
-9.58802e-07
-9.58802e-07
5.80646e-06
3.53701e-06
6.03361e-06
4.86111e-06
3.13357e-06
6.63298e-06
1.07994e-06
8.46608e-06
7.86992e-06
7.86992e-06
-3.45206e-06
3.21103e-06
-4.33906e-07
4.5727e-06
-2.92564e-06
6.19298e-06
4.25191e-06
4.25191e-06
2.01277e-06
1.63299e-06
3.35667e-06
-1.24339e-06
3.93309e-07
1.09179e-06
1.16067e-06
1.16067e-06
1.14415e-06
2.12716e-06
1.67081e-06
1.88494e-06
6.92641e-07
1.77111e-06
-1.86332e-06
-1.21874e-06
1.66563e-06
1.66563e-06
7.98698e-06
1.20208e-05
)
;
    }
}


// ************************************************************************* //
