/*--------------------------------*- C++ -*----------------------------------*\
| =========                 |                                                 |
| \\      /  F ield         | OpenFOAM: The Open Source CFD Toolbox           |
|  \\    /   O peration     | Version:  2306                                  |
|   \\  /    A nd           | Website:  www.openfoam.com                      |
|    \\/     M anipulation  |                                                 |
\*---------------------------------------------------------------------------*/
FoamFile
{
    version     2.0;
    format      ascii;
    arch        "LSB;label=32;scalar=64";
    class       volScalarField;
    location    "125";
    object      magR;
}
// * * * * * * * * * * * * * * * * * * * * * * * * * * * * * * * * * * * * * //

dimensions      [0 2 -2 0 0 0 0];

internalField   nonuniform List<scalar> 
1340
(
0.0187069
0.0219458
0.0261175
0.0317708
0.0385281
0.0471736
0.0582822
0.072115
0.089709
0.112137
0.140885
0.178791
0.23012
0.30047
0.399608
0.544836
0.761964
1.10893
1.65442
2.66551
4.26771
8.13489
14.2806
34.8171
56.612
62.6664
61.5563
60.1287
59.2821
58.1883
56.2749
53.4575
49.9343
45.8049
40.9795
0.0158281
0.0134869
0.0109066
0.00869079
0.00663394
0.00487921
0.00374468
0.00339901
0.00338947
0.00335474
0.0032651
0.00312578
0.00296099
0.00276361
0.00253988
0.00231513
0.00209066
0.00187728
0.00169285
0.0015431
0.00151329
0.00170055
0.00230063
0.00391214
0.00790273
0.0172166
0.0430694
0.107175
0.326981
0.850621
2.67491
6.54248
11.2261
16.0705
20.3531
23.0511
23.2925
21.2176
18.1785
15.2794
12.9273
11.1277
0.00336257
0.00330691
0.00321038
0.00306668
0.00286249
0.00259896
0.00230279
0.00227553
0.00221616
0.00212883
0.00203637
0.00193359
0.00182761
0.00173069
0.00164577
0.00157779
0.00152558
0.00148795
0.00146351
0.00145505
0.00146607
0.00147551
0.00137666
0.00128181
0.000704384
0.00462638
0.00957292
0.00569777
0.00625201
0.00105954
0.00541984
0.0735042
0.311596
0.960562
2.44784
5.10898
8.63443
11.8319
13.4849
13.4039
12.2981
0.00232434
0.00232576
0.0023201
0.00227856
0.002193
0.00205169
0.00190657
0.00191078
0.00190133
0.00188439
0.00185197
0.00180385
0.00174389
0.00166965
0.00158489
0.00149135
0.00139133
0.00128824
0.00118413
0.00107755
0.000970582
0.000861362
0.000743192
0.000631844
0.00050852
0.000370913
0.000158008
0.000318358
0.000542329
0.000124731
0.0047516
0.0184364
0.0424215
0.00476451
0.0172206
0.0210582
0.173338
0.987687
2.8918
5.6148
8.0624
0.00188684
0.00185832
0.00181471
0.00175919
0.00168333
0.00144889
0.00144546
0.00143338
0.00141203
0.00138023
0.00133725
0.00128504
0.00122448
0.00115752
0.00108784
0.00101785
0.00095035
0.00088762
0.000831687
0.000783436
0.000745404
0.000712966
0.000678226
0.000638638
0.0005903
0.000488569
0.000282496
5.67575e-05
1.4549e-05
5.94767e-06
0
0
0.000492256
0.00561369
0.0229619
0.0134976
0.0350181
0.0713286
0.208723
1.38989
0.00144454
0.00143434
0.00141399
0.00137999
0.00132898
0.00117826
0.00118268
0.00118167
0.00117634
0.00116446
0.00114551
0.00112015
0.00108769
0.00104872
0.0010043
0.000954879
0.000901591
0.000845597
0.00078787
0.000729512
0.000671632
0.000611642
0.000546776
0.000481923
0.000421269
0.000369532
0.000321641
0.000254663
0.000165877
7.44939e-05
9.8942e-06
5.06979e-06
2.18618e-06
0
0
0.00153532
0.00656069
0.0315622
0.0156559
0.0840371
0.00116808
0.00115454
0.00113468
0.00110604
0.000954877
0.000958814
0.000959231
0.000956198
0.000948585
0.0009355
0.000917144
0.000893085
0.000863477
0.000829077
0.000790453
0.000748548
0.000704586
0.000659566
0.000614804
0.000571236
0.000530507
0.00049409
0.000459609
0.000424409
0.000388085
0.000353023
0.00032373
0.000286747
0.000242543
0.00017714
0.000107462
4.04185e-05
6.06652e-06
3.2555e-06
2.26056e-07
0
0
0.00217213
0.0253267
0.000946917
0.000936701
0.000921932
0.000899632
0.000789212
0.000794354
0.00079731
0.000797948
0.000795732
0.000789753
0.000780149
0.000766419
0.000748498
0.00072678
0.000701242
0.000672363
0.000640704
0.000606717
0.000571054
0.000534306
0.000497111
0.000458477
0.000418186
0.000378233
0.000340738
0.00030727
0.000279371
0.00025703
0.000235322
0.000213873
0.000182931
0.000147519
0.000103429
6.41839e-05
4.122e-06
2.9028e-06
1.09376e-10
0
0
0.000781264
0.000771989
0.000759746
0.000741527
0.000657646
0.000662685
0.00066649
0.000668397
0.000668295
0.00066557
0.00066001
0.00065122
0.000639076
0.000623701
0.000605041
0.000583323
0.000558915
0.000532179
0.000503676
0.000473958
0.000443454
0.000413056
0.000383456
0.000354481
0.000326077
0.000298602
0.000272767
0.000248917
0.000225775
0.000203286
0.00018118
0.00016103
0.000143785
0.000126672
9.33514e-05
5.82046e-05
2.27668e-09
8.6518e-07
0
0.000650622
0.000642681
0.00063269
0.000567105
0.00056669
0.000564286
0.00055955
0.000552225
0.000542386
0.000529848
0.000514715
0.000497162
0.000477372
0.000455651
0.000432318
0.00040776
0.000382353
0.000355877
0.000328798
0.000302207
0.000277045
0.000253892
0.000232448
0.000211327
0.000189512
0.000167951
0.000148717
0.000133869
0.000123036
0.000115238
0.000105176
7.37514e-05
1.80592e-05
1.84277e-06
0.000484204
0.000481801
0.000477419
0.000471127
0.000462562
0.000451778
0.000438838
0.000423822
0.000406931
0.000388414
0.000368505
0.00034762
0.000326074
0.00030423
0.000282467
0.000261229
0.000240885
0.0002214
0.000201987
0.000181849
0.0001615
0.000142596
0.000126815
0.000114382
0.000105865
0.000100364
9.88393e-05
8.474e-05
3.14423e-05
0.00041479
0.000410907
0.000405446
0.000398081
0.000388864
0.000377832
0.000365069
0.000350715
0.000334947
0.00031807
0.000300242
0.000281592
0.000262599
0.00024392
0.000225904
0.000208515
0.000191162
0.000173238
0.00015504
0.000137827
0.000122855
0.000110404
0.000100331
9.26012e-05
8.85091e-05
8.97315e-05
8.40293e-05
0.000359271
0.000355755
0.000350896
0.000344396
0.000336305
0.000326671
0.000315561
0.000303091
0.000289446
0.000274877
0.000259513
0.000243635
0.000227735
0.000212059
0.000196616
0.000181048
0.00016497
0.000148634
0.000133057
0.000119279
0.000107626
9.77863e-05
8.95404e-05
8.29617e-05
7.96992e-05
8.23836e-05
0.000312936
0.000309802
0.000305383
0.00029961
0.000292483
0.000284027
0.000274301
0.000263423
0.000251621
0.000238925
0.000225544
0.000211922
0.000198299
0.000184708
0.000170895
0.000156593
0.000142015
0.000127975
0.000115376
0.000104581
9.54025e-05
8.76225e-05
8.10132e-05
7.60979e-05
7.20292e-05
0.000275822
0.000273843
0.000271001
0.000266973
0.00026176
0.000255386
0.000247877
0.000239276
0.000229782
0.000219414
0.00020831
0.000196792
0.000185086
0.000173226
0.000161052
0.000148389
0.000135418
0.000122795
0.000111292
0.00010129
9.27173e-05
8.54615e-05
7.92779e-05
7.47456e-05
6.93998e-05
0.000242478
0.000240658
0.00023799
0.000234289
0.000229577
0.00022386
0.000217146
0.000209577
0.000201176
0.00019202
0.000182329
0.000172331
0.000162071
0.000151425
0.000140285
0.000128811
0.00011753
0.000107089
9.78645e-05
8.98626e-05
8.30502e-05
7.726e-05
7.28721e-05
6.953e-05
0.000213923
0.000212231
0.0002097
0.000206289
0.000201996
0.000196823
0.00019084
0.000184112
0.000176638
0.000168564
0.000160105
0.000151307
0.000142077
0.000132342
0.000122248
0.000112219
0.000102796
9.43388e-05
8.69102e-05
8.05083e-05
7.51029e-05
7.06599e-05
6.85319e-05
0.000190393
0.000189336
0.000187724
0.000185326
0.000182168
0.00017824
0.000173569
0.000168231
0.000162189
0.000155521
0.000148424
0.000140944
0.000133007
0.000124562
0.000115735
0.000106873
9.84235e-05
9.07189e-05
8.38677e-05
7.78802e-05
7.28321e-05
6.85071e-05
6.62976e-05
0.000169028
0.000168063
0.000166459
0.000164197
0.000161273
0.000157682
0.000153493
0.000148654
0.000143204
0.000137305
0.000131004
0.000124237
0.000116964
0.000109294
0.000101509
9.39817e-05
8.70096e-05
8.07301e-05
7.51736e-05
7.04432e-05
6.64072e-05
6.3732e-05
0.000151028
0.000150471
0.000149508
0.000147953
0.000145825
0.000143108
0.000139863
0.000136034
0.00013163
0.000126772
0.000121509
0.000115789
0.000109575
0.000102955
9.61598e-05
8.94962e-05
8.32284e-05
7.75064e-05
7.23868e-05
6.79555e-05
6.42435e-05
6.12787e-05
0.000134783
0.000134264
0.000133261
0.000131763
0.000129758
0.000127292
0.000124303
0.00012079
0.000116831
0.000112478
0.000107688
0.00010242
9.67464e-05
9.08526e-05
8.49922e-05
7.93956e-05
7.42131e-05
6.95254e-05
6.53932e-05
6.19618e-05
5.89697e-05
0.000120791
0.000120545
0.000119993
0.000118995
0.000117561
0.000115721
0.000113429
0.000110667
0.000107478
0.000103915
9.99433e-05
9.5518e-05
9.06914e-05
8.56149e-05
8.04957e-05
7.55316e-05
7.08677e-05
6.65994e-05
6.27741e-05
5.95755e-05
5.67167e-05
0.000108261
0.00010802
0.000107409
0.000106427
0.000105088
0.000103371
0.000101236
9.87016e-05
9.58208e-05
9.25635e-05
8.88804e-05
8.48079e-05
8.04685e-05
7.60287e-05
7.16572e-05
6.74873e-05
6.36208e-05
6.01045e-05
5.71113e-05
5.44419e-05
9.72382e-05
9.72076e-05
9.69003e-05
9.62788e-05
9.53418e-05
9.40888e-05
9.24723e-05
9.04911e-05
8.81941e-05
8.55508e-05
8.25147e-05
7.91089e-05
7.54297e-05
7.1608e-05
6.77874e-05
6.40858e-05
6.06049e-05
5.7393e-05
5.45956e-05
5.21101e-05
8.73252e-05
8.74544e-05
8.73974e-05
8.70523e-05
8.64333e-05
8.5553e-05
8.4357e-05
8.28359e-05
8.10285e-05
7.89109e-05
7.64353e-05
7.36139e-05
7.05197e-05
6.72561e-05
6.39404e-05
6.06785e-05
5.7564e-05
5.46479e-05
5.20474e-05
4.97227e-05
7.86891e-05
7.87954e-05
7.86611e-05
7.82948e-05
7.77087e-05
7.68552e-05
7.57148e-05
7.43205e-05
7.26475e-05
7.06513e-05
6.83357e-05
6.57556e-05
6.29916e-05
6.01365e-05
5.72819e-05
5.45124e-05
5.18809e-05
4.94751e-05
4.7296e-05
7.08009e-05
7.10072e-05
7.10381e-05
7.08692e-05
7.05124e-05
6.99317e-05
6.91042e-05
6.80511e-05
6.67518e-05
6.51635e-05
6.32843e-05
6.11534e-05
5.88319e-05
5.63934e-05
5.39134e-05
5.14661e-05
4.91038e-05
4.68949e-05
4.48479e-05
6.36817e-05
6.3961e-05
6.41273e-05
6.41066e-05
6.39299e-05
6.35659e-05
6.29913e-05
6.22167e-05
6.12266e-05
5.99818e-05
5.84736e-05
5.67306e-05
5.47968e-05
5.27291e-05
5.05904e-05
4.84426e-05
4.63302e-05
4.4316e-05
4.23999e-05
5.76121e-05
5.78587e-05
5.79498e-05
5.79114e-05
5.77178e-05
5.73445e-05
5.67987e-05
5.60629e-05
5.5103e-05
5.39083e-05
5.24979e-05
5.09021e-05
4.91629e-05
4.73304e-05
4.54571e-05
4.35801e-05
4.17483e-05
3.99652e-05
5.18833e-05
5.21725e-05
5.23496e-05
5.24161e-05
5.23517e-05
5.21371e-05
5.17729e-05
5.12443e-05
5.05203e-05
4.95889e-05
4.84608e-05
4.71567e-05
4.57068e-05
4.41487e-05
4.25239e-05
4.08645e-05
3.92089e-05
3.75559e-05
4.67025e-05
4.702e-05
4.72678e-05
4.74095e-05
4.74426e-05
4.73514e-05
4.71305e-05
4.67672e-05
4.62346e-05
4.55204e-05
4.46286e-05
4.35731e-05
4.23741e-05
4.10586e-05
3.96588e-05
3.81985e-05
3.67088e-05
3.51842e-05
4.23701e-05
4.2657e-05
4.28506e-05
4.29569e-05
4.29582e-05
4.2849e-05
4.26173e-05
4.22397e-05
4.17027e-05
4.10081e-05
4.01624e-05
3.91783e-05
3.80746e-05
3.68746e-05
3.55964e-05
3.42614e-05
3.28632e-05
3.81716e-05
3.84688e-05
3.86992e-05
3.88573e-05
3.89268e-05
3.89025e-05
3.8774e-05
3.85192e-05
3.81267e-05
3.75949e-05
3.69258e-05
3.6126e-05
3.52069e-05
3.41841e-05
3.307e-05
3.18794e-05
3.06033e-05
3.43662e-05
3.46669e-05
3.49275e-05
3.51196e-05
3.52371e-05
3.52759e-05
3.52259e-05
3.50676e-05
3.47898e-05
3.43898e-05
3.38669e-05
3.32227e-05
3.24625e-05
3.15959e-05
3.06295e-05
2.95722e-05
3.12339e-05
3.15052e-05
3.17173e-05
3.18678e-05
3.19522e-05
3.19607e-05
3.18759e-05
3.1688e-05
3.13936e-05
3.09898e-05
3.0475e-05
2.985e-05
2.91189e-05
2.82845e-05
2.735e-05
2.81308e-05
2.83974e-05
2.86211e-05
2.87933e-05
2.89084e-05
2.89589e-05
2.89297e-05
2.88121e-05
2.8602e-05
2.82949e-05
2.78868e-05
2.73756e-05
2.67616e-05
2.60435e-05
2.52208e-05
2.53154e-05
2.55796e-05
2.58083e-05
2.59914e-05
2.61255e-05
2.6205e-05
2.62164e-05
2.61522e-05
2.60081e-05
2.57786e-05
2.5458e-05
2.50424e-05
2.45289e-05
2.39133e-05
2.3192e-05
2.27728e-05
2.30287e-05
2.32546e-05
2.34408e-05
2.35853e-05
2.36835e-05
2.37238e-05
2.36992e-05
2.36057e-05
2.34375e-05
2.31881e-05
2.2852e-05
2.2424e-05
2.18981e-05
2.12682e-05
2.04781e-05
2.07168e-05
2.0939e-05
2.11234e-05
2.1272e-05
2.13812e-05
2.14408e-05
2.14445e-05
2.1389e-05
2.12683e-05
2.10758e-05
2.08049e-05
2.04491e-05
2.00011e-05
1.94534e-05
1.86317e-05
1.88443e-05
1.90224e-05
1.91701e-05
1.92839e-05
1.9355e-05
1.93784e-05
1.93508e-05
1.92664e-05
1.91186e-05
1.89006e-05
1.86053e-05
1.82244e-05
1.77495e-05
1.67514e-05
1.69476e-05
1.71176e-05
1.72609e-05
1.73747e-05
1.74522e-05
1.74886e-05
1.74812e-05
1.74243e-05
1.73117e-05
1.71365e-05
1.68915e-05
1.65681e-05
1.61578e-05
1.50481e-05
1.52323e-05
1.5393e-05
1.55291e-05
1.56398e-05
1.57192e-05
1.57634e-05
1.57697e-05
1.57335e-05
1.56484e-05
1.5508e-05
1.53048e-05
1.50308e-05
1.46772e-05
1.35137e-05
1.36833e-05
1.38325e-05
1.39598e-05
1.40649e-05
1.41433e-05
1.41915e-05
1.4207e-05
1.41858e-05
1.4122e-05
1.40093e-05
1.38412e-05
1.36094e-05
1.33057e-05
1.21314e-05
1.22835e-05
1.24226e-05
1.25402e-05
1.26383e-05
1.27137e-05
1.2763e-05
1.2784e-05
1.27733e-05
1.27258e-05
1.26355e-05
1.24961e-05
1.23004e-05
1.20401e-05
1.10243e-05
1.11517e-05
1.12589e-05
1.13493e-05
1.14199e-05
1.1468e-05
1.1492e-05
1.14886e-05
1.14531e-05
1.13803e-05
1.12647e-05
1.10993e-05
1.08768e-05
9.89256e-06
1.00057e-05
1.01031e-05
1.01855e-05
1.02504e-05
1.02962e-05
1.03213e-05
1.03227e-05
1.02962e-05
1.02373e-05
1.01412e-05
1.00014e-05
8.87178e-06
8.97367e-06
9.06139e-06
9.13565e-06
9.19481e-06
9.23741e-06
9.26219e-06
9.26647e-06
9.24668e-06
9.19894e-06
9.11872e-06
9.00068e-06
7.95455e-06
8.0454e-06
8.12357e-06
8.18992e-06
8.24313e-06
8.28202e-06
8.30558e-06
8.31141e-06
8.29652e-06
8.25761e-06
8.19074e-06
8.09105e-06
7.1309e-06
7.21038e-06
7.2805e-06
7.33909e-06
7.38631e-06
7.42128e-06
7.44299e-06
7.44948e-06
7.43811e-06
7.40617e-06
7.35025e-06
7.26622e-06
6.46173e-06
6.52393e-06
6.57517e-06
6.61661e-06
6.6475e-06
6.66702e-06
6.67337e-06
6.66442e-06
6.63792e-06
6.59107e-06
6.52015e-06
5.79125e-06
5.84465e-06
5.88945e-06
5.92575e-06
5.95281e-06
5.96997e-06
5.97577e-06
5.96857e-06
5.94645e-06
5.90684e-06
5.84684e-06
5.18881e-06
5.23523e-06
5.27427e-06
5.30587e-06
5.32937e-06
5.34421e-06
5.3494e-06
5.34351e-06
5.32478e-06
5.29124e-06
5.24029e-06
4.64926e-06
4.68936e-06
4.723e-06
4.75025e-06
4.77041e-06
4.78316e-06
4.78761e-06
4.78255e-06
4.76655e-06
4.73783e-06
4.69454e-06
4.16616e-06
4.20055e-06
4.22939e-06
4.25274e-06
4.26991e-06
4.28068e-06
4.2843e-06
4.27972e-06
4.26568e-06
4.24106e-06
4.20429e-06
3.73395e-06
3.7632e-06
3.78771e-06
3.80752e-06
3.822e-06
3.83091e-06
3.8337e-06
3.82931e-06
3.81697e-06
3.79578e-06
3.34746e-06
3.37204e-06
3.39282e-06
3.40931e-06
3.42127e-06
3.42852e-06
3.43043e-06
3.42624e-06
3.41535e-06
3.39697e-06
3.02254e-06
3.04e-06
3.05359e-06
3.0633e-06
3.06894e-06
3.07e-06
3.06594e-06
3.05619e-06
3.04022e-06
2.71074e-06
2.72481e-06
2.73596e-06
2.74373e-06
2.7479e-06
2.74818e-06
2.7441e-06
2.73526e-06
2.72113e-06
2.4318e-06
2.44318e-06
2.45219e-06
2.45824e-06
2.46114e-06
2.46072e-06
2.45664e-06
2.44853e-06
2.43589e-06
2.18214e-06
2.19117e-06
2.19828e-06
2.20284e-06
2.20467e-06
2.20368e-06
2.19956e-06
2.19196e-06
2.18061e-06
1.95784e-06
1.96485e-06
1.97037e-06
1.97373e-06
1.97472e-06
1.97321e-06
1.969e-06
1.96193e-06
1.95175e-06
1.75564e-06
1.76091e-06
1.76509e-06
1.76745e-06
1.76768e-06
1.76581e-06
1.76157e-06
1.75499e-06
1.57385e-06
1.57758e-06
1.58053e-06
1.58192e-06
1.58154e-06
1.57927e-06
1.57504e-06
1.56881e-06
1.41122e-06
1.41349e-06
1.41539e-06
1.41588e-06
1.41474e-06
1.41201e-06
1.40765e-06
1.40163e-06
1.2685e-06
1.26924e-06
1.26881e-06
1.26692e-06
1.2637e-06
1.25904e-06
1.25299e-06
1.1399e-06
1.13953e-06
1.13818e-06
1.13552e-06
1.13157e-06
1.12636e-06
1.11998e-06
1.02772e-06
1.02725e-06
1.02597e-06
1.0236e-06
1.01995e-06
1.01497e-06
1.00926e-06
9.36686e-07
9.36e-07
9.34619e-07
9.32702e-07
9.29448e-07
9.24744e-07
9.2008e-07
8.63029e-07
8.61362e-07
8.58867e-07
8.55886e-07
8.51539e-07
8.45614e-07
7.9684e-07
7.94795e-07
7.91759e-07
7.8808e-07
7.83004e-07
7.76221e-07
7.31779e-07
7.29249e-07
7.25597e-07
7.21188e-07
7.15474e-07
7.07821e-07
6.70365e-07
6.68287e-07
6.65193e-07
6.61235e-07
6.56233e-07
6.49709e-07
6.06108e-07
6.02114e-07
5.96999e-07
5.9115e-07
5.84605e-07
5.75458e-07
5.60122e-07
5.58847e-07
5.56473e-07
5.52441e-07
5.47969e-07
5.43668e-07
4.76533e-07
4.68917e-07
4.61824e-07
4.54158e-07
4.4026e-07
4.92223e-07
4.9335e-07
4.89379e-07
4.86939e-07
4.93115e-07
3.79228e-07
3.7603e-07
3.77291e-07
3.71993e-07
3.52639e-07
5.66255e-07
5.79972e-07
5.77358e-07
5.81523e-07
5.94885e-07
6.07189e-07
6.23383e-07
6.44479e-07
9.16341e-07
9.67032e-07
9.30329e-07
8.81461e-07
)
;

boundaryField
{
    inlet
    {
        type            calculated;
        value           nonuniform List<scalar> 4(3.89394e-06 4.13387e-06 4.17537e-06 4.21214e-06);
    }
    outlet
    {
        type            calculated;
        value           nonuniform List<scalar> 0();
    }
    walls
    {
        type            calculated;
        value           nonuniform List<scalar> 
42
(
1.03356
1.22744
1.44771
1.66204
1.87321
2.07853
2.26049
2.41587
2.54436
2.64125
2.70929
2.75192
2.76911
2.75365
2.70129
2.61184
2.48073
2.30733
2.08708
1.82172
1.512
1.17704
0.848736
0.596075
0.477434
0.468935
0.516859
0.58225
0.642861
0.684574
0.702812
0.693465
0.661638
0.613739
0.55117
0.851844
0.673968
0.498822
0.328605
0.186913
0.0858984
0.036313
)
;
    }
    frontAndBack
    {
        type            empty;
    }
    procBoundary5to0
    {
        type            processor;
        value           nonuniform List<scalar> 4(0.000553551 0.000547091 0.000540152 0.000531743);
    }
    procBoundary5to1
    {
        type            processor;
        value           nonuniform List<scalar> 
13
(
0.0037048
0.00233364
0.00233364
0.00187858
0.00158678
0.00158678
0.0012623
0.00106734
0.00106734
0.000870496
0.000718931
0.000617891
0.000617891
)
;
    }
    procBoundary5to4
    {
        type            processor;
        value           nonuniform List<scalar> 
95
(
0.000558416
0.000562683
0.000565688
0.000565688
0.000483961
0.000484871
0.000484871
0.000417851
0.000417078
0.000417078
0.000361466
0.000361466
0.00031504
0.00031504
0.000276708
0.000243484
0.000243484
0.000214983
0.000214983
0.000190745
0.000169537
0.000169537
0.000151055
0.000134964
0.000134964
0.000120641
0.000108247
0.000108247
9.70087e-05
8.69562e-05
7.84308e-05
7.84308e-05
7.04325e-05
6.32511e-05
5.72747e-05
5.72747e-05
5.14944e-05
4.62914e-05
4.20295e-05
4.20295e-05
3.781e-05
3.40051e-05
3.093e-05
3.093e-05
2.78239e-05
2.50206e-05
2.24919e-05
2.02116e-05
1.84058e-05
1.84058e-05
1.65354e-05
1.48496e-05
1.33314e-05
1.19648e-05
1.08862e-05
1.08862e-05
9.76574e-06
8.75828e-06
7.85317e-06
7.04022e-06
6.3915e-06
6.3915e-06
5.72854e-06
5.13411e-06
4.60163e-06
4.12487e-06
3.69829e-06
3.31654e-06
3.00195e-06
3.00195e-06
2.69342e-06
2.4176e-06
2.17066e-06
1.94868e-06
1.74857e-06
1.56855e-06
1.40759e-06
1.26751e-06
1.26751e-06
1.14002e-06
1.02812e-06
9.3743e-07
8.64627e-07
7.98672e-07
7.34008e-07
6.72193e-07
6.09819e-07
5.60849e-07
4.83128e-07
4.83128e-07
4.90163e-07
3.81067e-07
5.54057e-07
5.74813e-07
9.15545e-07
)
;
    }
    procBoundary5to6
    {
        type            processor;
        value           nonuniform List<scalar> 
86
(
35.4944
9.7497
10.8711
9.35471
3.76332
0.223306
0.0328633
0.00540068
0
0
1.92298e-06
3.0244e-05
8.91313e-05
8.92871e-05
7.27895e-05
6.32015e-05
6.12317e-05
6.17295e-05
6.15345e-05
6.0055e-05
5.77967e-05
5.52616e-05
5.27113e-05
5.02244e-05
4.77974e-05
4.53965e-05
4.30055e-05
4.06257e-05
3.82606e-05
3.59278e-05
3.36414e-05
3.14086e-05
2.92422e-05
2.84137e-05
2.84137e-05
2.63035e-05
2.42802e-05
2.23505e-05
2.05198e-05
1.87907e-05
1.71656e-05
1.56458e-05
1.42301e-05
1.29168e-05
1.17034e-05
1.05862e-05
9.81133e-06
9.81133e-06
8.83893e-06
7.95357e-06
7.14971e-06
6.42138e-06
5.76333e-06
5.16945e-06
4.63472e-06
4.15368e-06
3.7644e-06
3.7644e-06
3.37027e-06
3.0171e-06
2.70101e-06
2.41824e-06
2.1651e-06
1.93813e-06
1.74583e-06
1.74583e-06
1.56048e-06
1.39389e-06
1.24552e-06
1.11241e-06
1.00232e-06
9.14188e-07
8.40157e-07
8.40157e-07
7.69762e-07
7.00354e-07
6.42568e-07
5.67074e-07
5.35868e-07
4.32134e-07
4.83398e-07
3.54158e-07
6.25248e-07
6.25248e-07
6.41164e-07
1.15454e-06
)
;
    }
}


// ************************************************************************* //
