/*--------------------------------*- C++ -*----------------------------------*\
| =========                 |                                                 |
| \\      /  F ield         | OpenFOAM: The Open Source CFD Toolbox           |
|  \\    /   O peration     | Version:  2306                                  |
|   \\  /    A nd           | Website:  www.openfoam.com                      |
|    \\/     M anipulation  |                                                 |
\*---------------------------------------------------------------------------*/
FoamFile
{
    version     2.0;
    format      ascii;
    arch        "LSB;label=32;scalar=64";
    class       volScalarField;
    location    "125";
    object      nuTilda;
}
// * * * * * * * * * * * * * * * * * * * * * * * * * * * * * * * * * * * * * //

dimensions      [0 2 -1 0 0 0 0];

internalField   nonuniform List<scalar> 
1340
(
5.88297e-05
6.17148e-05
6.53903e-05
6.9937e-05
7.56031e-05
8.27486e-05
9.19519e-05
0.00010369
0.000119038
0.000139249
0.000166177
0.000202892
0.000253892
0.000325423
0.000428064
0.000581047
0.000814464
0.0011966
0.00181719
0.00301215
0.00503393
0.0101984
0.0194411
0.0521524
0.0918872
0.106931
0.108346
0.108529
0.109722
0.110611
0.110062
0.107945
0.104737
0.100678
0.0956488
5.62201e-05
5.38235e-05
5.13254e-05
4.8843e-05
4.63352e-05
4.39431e-05
4.21598e-05
3.84466e-05
3.82374e-05
3.80405e-05
3.78655e-05
3.76615e-05
3.7463e-05
3.72954e-05
3.71307e-05
3.70142e-05
3.69506e-05
3.69359e-05
3.70447e-05
3.73302e-05
3.90413e-05
4.37733e-05
5.39568e-05
7.51305e-05
0.000118511
0.000202211
0.000391526
0.000745199
0.0017538
0.00362672
0.00970189
0.0223071
0.0392039
0.0606087
0.0854684
0.110165
0.129146
0.139245
0.142448
0.142146
0.140085
0.136936
3.86125e-05
3.88296e-05
3.90155e-05
3.92546e-05
3.94841e-05
3.96958e-05
4.03003e-05
4.03284e-05
4.03566e-05
4.03871e-05
4.04247e-05
4.0466e-05
4.05122e-05
4.05654e-05
4.06267e-05
4.06972e-05
4.07803e-05
4.08777e-05
4.09957e-05
4.11289e-05
4.13407e-05
4.13909e-05
3.97514e-05
3.81968e-05
2.80019e-05
8.28342e-05
0.000155874
0.000112799
0.00016116
7.56699e-05
0.00060223
0.00227586
0.0057947
0.0130974
0.0271027
0.049667
0.07897
0.10899
0.132936
0.148443
0.157587
4.02754e-05
4.02454e-05
4.02173e-05
4.01854e-05
4.01555e-05
4.01362e-05
4.00557e-05
4.00555e-05
4.00583e-05
4.00617e-05
4.00645e-05
4.0069e-05
4.00758e-05
4.00848e-05
4.00987e-05
4.0118e-05
4.0144e-05
4.01787e-05
4.0224e-05
4.02829e-05
4.03554e-05
4.04668e-05
4.05096e-05
4.04628e-05
3.896e-05
3.45854e-05
2.2066e-05
2.9369e-05
3.51422e-05
1.55336e-05
0.000125833
0.000483543
0.0012572
0.000179623
0.000975412
0.00377307
0.0122886
0.0309315
0.0603838
0.0956281
0.12818
4.0053e-05
4.00578e-05
4.00555e-05
4.00586e-05
4.00572e-05
4.00926e-05
4.00946e-05
4.00977e-05
4.00998e-05
4.01007e-05
4.01009e-05
4.0101e-05
4.01027e-05
4.01062e-05
4.01118e-05
4.01199e-05
4.01311e-05
4.01462e-05
4.01663e-05
4.0193e-05
4.02281e-05
4.0276e-05
4.03141e-05
4.0498e-05
4.06935e-05
3.88571e-05
3.06673e-05
1.39262e-05
6.96767e-06
4.35631e-06
0
0
3.90311e-05
0.000214898
0.000858761
0.000543589
0.00181984
0.00779313
0.0259051
0.0588008
4.00888e-05
4.00896e-05
4.0085e-05
4.00829e-05
4.00754e-05
4.00838e-05
4.0085e-05
4.00879e-05
4.00906e-05
4.00929e-05
4.00959e-05
4.00994e-05
4.01032e-05
4.01076e-05
4.01126e-05
4.01183e-05
4.01253e-05
4.01338e-05
4.01444e-05
4.01582e-05
4.01765e-05
4.0202e-05
4.023e-05
4.02773e-05
4.03525e-05
4.06072e-05
4.06289e-05
3.83003e-05
3.20951e-05
2.20942e-05
8.32015e-06
6.1688e-06
4.11467e-06
0
0
0.000121972
0.000413
0.00181194
0.000979838
0.00887383
4.00813e-05
4.00834e-05
4.0081e-05
4.00802e-05
4.00818e-05
4.00828e-05
4.00854e-05
4.00877e-05
4.00897e-05
4.0092e-05
4.00943e-05
4.00964e-05
4.00985e-05
4.01004e-05
4.01019e-05
4.0103e-05
4.01036e-05
4.0103e-05
4.0103e-05
4.01043e-05
4.01077e-05
4.01125e-05
4.01196e-05
4.01257e-05
4.01665e-05
4.03408e-05
4.08626e-05
4.07689e-05
3.9922e-05
3.64966e-05
3.05433e-05
2.0071e-05
8.26505e-06
6.32716e-06
1.69614e-06
0
0
0.000225712
0.00213055
4.00799e-05
4.00823e-05
4.00812e-05
4.00808e-05
4.00786e-05
4.00799e-05
4.00827e-05
4.00854e-05
4.00879e-05
4.00909e-05
4.0094e-05
4.00969e-05
4.01e-05
4.01032e-05
4.01064e-05
4.01099e-05
4.01137e-05
4.0118e-05
4.01229e-05
4.01286e-05
4.01355e-05
4.01441e-05
4.01521e-05
4.01576e-05
4.01622e-05
4.01647e-05
4.02245e-05
4.04853e-05
4.087e-05
4.15971e-05
4.14724e-05
4.02643e-05
3.61624e-05
3.02556e-05
8.01078e-06
6.98202e-06
4.37444e-08
0
0
4.00769e-05
4.00793e-05
4.00793e-05
4.00798e-05
4.0076e-05
4.00776e-05
4.00806e-05
4.00835e-05
4.00863e-05
4.00892e-05
4.00921e-05
4.00946e-05
4.00971e-05
4.00995e-05
4.01018e-05
4.01041e-05
4.01065e-05
4.01088e-05
4.01111e-05
4.01133e-05
4.01154e-05
4.01172e-05
4.01196e-05
4.01235e-05
4.0129e-05
4.0136e-05
4.01353e-05
4.01498e-05
4.02102e-05
4.04759e-05
4.09075e-05
4.14577e-05
4.20203e-05
4.20824e-05
3.81536e-05
3.15627e-05
2.03252e-07
4.03809e-06
0
4.00743e-05
4.00765e-05
4.00771e-05
4.00847e-05
4.00876e-05
4.00902e-05
4.00925e-05
4.00948e-05
4.0097e-05
4.00993e-05
4.01017e-05
4.01042e-05
4.0107e-05
4.01099e-05
4.01132e-05
4.01169e-05
4.01212e-05
4.01258e-05
4.01302e-05
4.01344e-05
4.01393e-05
4.01437e-05
4.01412e-05
4.01298e-05
4.01269e-05
4.01874e-05
4.03577e-05
4.07621e-05
4.14042e-05
4.23181e-05
4.25295e-05
3.69752e-05
1.86471e-05
6.03304e-06
4.00876e-05
4.00896e-05
4.00917e-05
4.00936e-05
4.00956e-05
4.00978e-05
4.01e-05
4.01024e-05
4.0105e-05
4.01077e-05
4.01107e-05
4.01138e-05
4.01173e-05
4.01213e-05
4.0126e-05
4.01314e-05
4.01379e-05
4.01443e-05
4.0147e-05
4.01395e-05
4.01261e-05
4.01143e-05
4.01538e-05
4.02762e-05
4.07545e-05
4.15901e-05
4.31424e-05
4.12307e-05
2.53535e-05
4.00885e-05
4.00904e-05
4.00923e-05
4.00943e-05
4.00966e-05
4.00989e-05
4.01015e-05
4.01043e-05
4.01074e-05
4.01108e-05
4.01146e-05
4.01187e-05
4.0123e-05
4.01278e-05
4.01332e-05
4.01395e-05
4.01465e-05
4.01525e-05
4.01544e-05
4.01474e-05
4.01323e-05
4.01071e-05
4.01316e-05
4.02975e-05
4.10183e-05
4.27637e-05
4.25403e-05
4.00871e-05
4.0089e-05
4.0091e-05
4.00931e-05
4.00954e-05
4.00979e-05
4.01006e-05
4.01036e-05
4.01067e-05
4.01102e-05
4.01141e-05
4.01184e-05
4.01231e-05
4.01284e-05
4.01342e-05
4.01407e-05
4.01481e-05
4.01562e-05
4.01636e-05
4.01666e-05
4.01602e-05
4.01362e-05
4.01016e-05
4.01165e-05
4.05838e-05
4.24699e-05
4.00858e-05
4.00878e-05
4.00899e-05
4.00922e-05
4.00947e-05
4.00973e-05
4.01002e-05
4.01033e-05
4.01067e-05
4.01105e-05
4.01146e-05
4.01192e-05
4.01242e-05
4.01297e-05
4.01357e-05
4.01424e-05
4.015e-05
4.01589e-05
4.01689e-05
4.01787e-05
4.01828e-05
4.01732e-05
4.01188e-05
4.00989e-05
3.99662e-05
4.00829e-05
4.00849e-05
4.0087e-05
4.00892e-05
4.00915e-05
4.0094e-05
4.00968e-05
4.00997e-05
4.0103e-05
4.01066e-05
4.01106e-05
4.0115e-05
4.01199e-05
4.01252e-05
4.0131e-05
4.01373e-05
4.01443e-05
4.01522e-05
4.01616e-05
4.0173e-05
4.0185e-05
4.0203e-05
4.01839e-05
4.02365e-05
3.96823e-05
4.0082e-05
4.0084e-05
4.00861e-05
4.00883e-05
4.00908e-05
4.00934e-05
4.00963e-05
4.00994e-05
4.01029e-05
4.01067e-05
4.01109e-05
4.01156e-05
4.01207e-05
4.01262e-05
4.01323e-05
4.0139e-05
4.01465e-05
4.01549e-05
4.01653e-05
4.01754e-05
4.01965e-05
4.01985e-05
4.02414e-05
4.02733e-05
4.00811e-05
4.00831e-05
4.00853e-05
4.00876e-05
4.00901e-05
4.00929e-05
4.00959e-05
4.00993e-05
4.01029e-05
4.0107e-05
4.01114e-05
4.01163e-05
4.01216e-05
4.01274e-05
4.01338e-05
4.01409e-05
4.01489e-05
4.01585e-05
4.01679e-05
4.01826e-05
4.02029e-05
4.01689e-05
4.05572e-05
4.00782e-05
4.00801e-05
4.00822e-05
4.00845e-05
4.00869e-05
4.00895e-05
4.00925e-05
4.00957e-05
4.00992e-05
4.01031e-05
4.01073e-05
4.0112e-05
4.0117e-05
4.01226e-05
4.01287e-05
4.01355e-05
4.01431e-05
4.01521e-05
4.01621e-05
4.0171e-05
4.02023e-05
4.01389e-05
4.0477e-05
4.00772e-05
4.00792e-05
4.00814e-05
4.00838e-05
4.00863e-05
4.00891e-05
4.00922e-05
4.00956e-05
4.00993e-05
4.01034e-05
4.01079e-05
4.01127e-05
4.0118e-05
4.01238e-05
4.01303e-05
4.01376e-05
4.01459e-05
4.01562e-05
4.01628e-05
4.01928e-05
4.01533e-05
4.03055e-05
4.00743e-05
4.00763e-05
4.00784e-05
4.00807e-05
4.00832e-05
4.00859e-05
4.00889e-05
4.00921e-05
4.00957e-05
4.00997e-05
4.0104e-05
4.01086e-05
4.01136e-05
4.01192e-05
4.01254e-05
4.01324e-05
4.01401e-05
4.01501e-05
4.0157e-05
4.01788e-05
4.01754e-05
4.01883e-05
4.00735e-05
4.00756e-05
4.00778e-05
4.00802e-05
4.00829e-05
4.00857e-05
4.00888e-05
4.00923e-05
4.00961e-05
4.01002e-05
4.01046e-05
4.01094e-05
4.01147e-05
4.01206e-05
4.01273e-05
4.01347e-05
4.01439e-05
4.01521e-05
4.01659e-05
4.01855e-05
4.01433e-05
4.00709e-05
4.00729e-05
4.00751e-05
4.00775e-05
4.008e-05
4.00827e-05
4.00858e-05
4.00891e-05
4.00927e-05
4.00966e-05
4.01008e-05
4.01054e-05
4.01105e-05
4.01161e-05
4.01225e-05
4.01295e-05
4.0138e-05
4.01471e-05
4.01561e-05
4.01829e-05
4.01413e-05
4.00704e-05
4.00725e-05
4.00748e-05
4.00772e-05
4.00799e-05
4.00828e-05
4.0086e-05
4.00894e-05
4.00932e-05
4.00972e-05
4.01016e-05
4.01064e-05
4.01118e-05
4.01178e-05
4.01245e-05
4.01323e-05
4.01417e-05
4.01489e-05
4.01734e-05
4.01529e-05
4.00679e-05
4.007e-05
4.00722e-05
4.00746e-05
4.00772e-05
4.008e-05
4.00831e-05
4.00864e-05
4.009e-05
4.00938e-05
4.0098e-05
4.01026e-05
4.01077e-05
4.01134e-05
4.01198e-05
4.0127e-05
4.0136e-05
4.01433e-05
4.0162e-05
4.0162e-05
4.00656e-05
4.00676e-05
4.00698e-05
4.00721e-05
4.00746e-05
4.00773e-05
4.00802e-05
4.00834e-05
4.00868e-05
4.00905e-05
4.00945e-05
4.0099e-05
4.01038e-05
4.01093e-05
4.01153e-05
4.01221e-05
4.01304e-05
4.01383e-05
4.01518e-05
4.01637e-05
4.00652e-05
4.00673e-05
4.00696e-05
4.0072e-05
4.00746e-05
4.00774e-05
4.00805e-05
4.00838e-05
4.00873e-05
4.00912e-05
4.00954e-05
4.01001e-05
4.01053e-05
4.01111e-05
4.01176e-05
4.01252e-05
4.01334e-05
4.01436e-05
4.01594e-05
4.0063e-05
4.0065e-05
4.00672e-05
4.00695e-05
4.0072e-05
4.00748e-05
4.00777e-05
4.00809e-05
4.00843e-05
4.0088e-05
4.0092e-05
4.00965e-05
4.01014e-05
4.0107e-05
4.01132e-05
4.01203e-05
4.01284e-05
4.01372e-05
4.01521e-05
4.00608e-05
4.00628e-05
4.00649e-05
4.00672e-05
4.00696e-05
4.00722e-05
4.0075e-05
4.00781e-05
4.00813e-05
4.00848e-05
4.00887e-05
4.0093e-05
4.00978e-05
4.0103e-05
4.0109e-05
4.01157e-05
4.01234e-05
4.01318e-05
4.01443e-05
4.00607e-05
4.00627e-05
4.00649e-05
4.00672e-05
4.00697e-05
4.00724e-05
4.00753e-05
4.00784e-05
4.00818e-05
4.00855e-05
4.00896e-05
4.00941e-05
4.00992e-05
4.01049e-05
4.01113e-05
4.01186e-05
4.01267e-05
4.01373e-05
4.00586e-05
4.00606e-05
4.00627e-05
4.00649e-05
4.00673e-05
4.00699e-05
4.00727e-05
4.00757e-05
4.00789e-05
4.00824e-05
4.00863e-05
4.00907e-05
4.00955e-05
4.01009e-05
4.0107e-05
4.01139e-05
4.01218e-05
4.01312e-05
4.00567e-05
4.00586e-05
4.00606e-05
4.00627e-05
4.0065e-05
4.00675e-05
4.00701e-05
4.0073e-05
4.00761e-05
4.00794e-05
4.00832e-05
4.00873e-05
4.00919e-05
4.0097e-05
4.01028e-05
4.01094e-05
4.01169e-05
4.01256e-05
4.00566e-05
4.00586e-05
4.00606e-05
4.00628e-05
4.00651e-05
4.00677e-05
4.00703e-05
4.00733e-05
4.00765e-05
4.008e-05
4.0084e-05
4.00884e-05
4.00933e-05
4.00988e-05
4.0105e-05
4.01121e-05
4.01203e-05
4.00548e-05
4.00566e-05
4.00586e-05
4.00607e-05
4.00629e-05
4.00653e-05
4.00678e-05
4.00706e-05
4.00737e-05
4.0077e-05
4.00808e-05
4.00849e-05
4.00896e-05
4.00948e-05
4.01007e-05
4.01074e-05
4.01152e-05
4.00531e-05
4.00548e-05
4.00567e-05
4.00587e-05
4.00608e-05
4.00631e-05
4.00655e-05
4.00681e-05
4.0071e-05
4.00742e-05
4.00777e-05
4.00817e-05
4.0086e-05
4.0091e-05
4.00965e-05
4.01029e-05
4.00531e-05
4.00549e-05
4.00567e-05
4.00588e-05
4.00609e-05
4.00632e-05
4.00657e-05
4.00684e-05
4.00714e-05
4.00748e-05
4.00785e-05
4.00827e-05
4.00873e-05
4.00926e-05
4.00986e-05
4.00515e-05
4.00531e-05
4.00549e-05
4.00568e-05
4.00588e-05
4.0061e-05
4.00633e-05
4.00659e-05
4.00687e-05
4.00719e-05
4.00755e-05
4.00794e-05
4.00838e-05
4.00887e-05
4.00944e-05
4.005e-05
4.00515e-05
4.00532e-05
4.0055e-05
4.00569e-05
4.00589e-05
4.00611e-05
4.00635e-05
4.00662e-05
4.00692e-05
4.00725e-05
4.00762e-05
4.00804e-05
4.0085e-05
4.00903e-05
4.00486e-05
4.005e-05
4.00516e-05
4.00533e-05
4.0055e-05
4.00569e-05
4.0059e-05
4.00613e-05
4.00638e-05
4.00666e-05
4.00697e-05
4.00732e-05
4.00771e-05
4.00815e-05
4.00865e-05
4.00472e-05
4.00486e-05
4.00501e-05
4.00517e-05
4.00533e-05
4.00551e-05
4.0057e-05
4.00592e-05
4.00615e-05
4.00642e-05
4.00671e-05
4.00704e-05
4.0074e-05
4.00781e-05
4.00828e-05
4.00473e-05
4.00487e-05
4.00501e-05
4.00517e-05
4.00533e-05
4.00551e-05
4.00571e-05
4.00593e-05
4.00618e-05
4.00646e-05
4.00676e-05
4.00711e-05
4.00749e-05
4.00793e-05
4.00461e-05
4.00474e-05
4.00487e-05
4.00501e-05
4.00517e-05
4.00533e-05
4.00552e-05
4.00572e-05
4.00595e-05
4.00621e-05
4.00649e-05
4.00682e-05
4.00718e-05
4.00759e-05
4.0045e-05
4.00462e-05
4.00474e-05
4.00487e-05
4.00501e-05
4.00517e-05
4.00534e-05
4.00553e-05
4.00574e-05
4.00597e-05
4.00624e-05
4.00654e-05
4.00687e-05
4.00725e-05
4.00441e-05
4.00451e-05
4.00463e-05
4.00474e-05
4.00487e-05
4.00501e-05
4.00517e-05
4.00534e-05
4.00554e-05
4.00575e-05
4.006e-05
4.00627e-05
4.00658e-05
4.00694e-05
4.00432e-05
4.00442e-05
4.00452e-05
4.00463e-05
4.00474e-05
4.00487e-05
4.00501e-05
4.00517e-05
4.00535e-05
4.00555e-05
4.00577e-05
4.00603e-05
4.00631e-05
4.00664e-05
4.00433e-05
4.00442e-05
4.00452e-05
4.00462e-05
4.00474e-05
4.00487e-05
4.00501e-05
4.00518e-05
4.00536e-05
4.00556e-05
4.00579e-05
4.00606e-05
4.00635e-05
4.00426e-05
4.00434e-05
4.00442e-05
4.00452e-05
4.00462e-05
4.00473e-05
4.00486e-05
4.00501e-05
4.00518e-05
4.00536e-05
4.00557e-05
4.00581e-05
4.0042e-05
4.00427e-05
4.00434e-05
4.00442e-05
4.00451e-05
4.00461e-05
4.00473e-05
4.00486e-05
4.00501e-05
4.00517e-05
4.00536e-05
4.00558e-05
4.00415e-05
4.00421e-05
4.00427e-05
4.00434e-05
4.00441e-05
4.0045e-05
4.0046e-05
4.00472e-05
4.00485e-05
4.005e-05
4.00517e-05
4.00536e-05
4.00411e-05
4.00416e-05
4.00421e-05
4.00427e-05
4.00433e-05
4.00441e-05
4.00449e-05
4.00459e-05
4.00471e-05
4.00484e-05
4.00499e-05
4.00516e-05
4.00412e-05
4.00416e-05
4.0042e-05
4.00426e-05
4.00432e-05
4.0044e-05
4.00448e-05
4.00458e-05
4.0047e-05
4.00483e-05
4.00498e-05
4.00409e-05
4.00412e-05
4.00416e-05
4.0042e-05
4.00425e-05
4.00431e-05
4.00438e-05
4.00446e-05
4.00456e-05
4.00468e-05
4.00481e-05
4.00408e-05
4.0041e-05
4.00412e-05
4.00415e-05
4.00419e-05
4.00423e-05
4.00429e-05
4.00436e-05
4.00444e-05
4.00454e-05
4.00466e-05
4.00408e-05
4.00409e-05
4.0041e-05
4.00411e-05
4.00414e-05
4.00417e-05
4.00422e-05
4.00427e-05
4.00434e-05
4.00442e-05
4.00451e-05
4.00409e-05
4.00409e-05
4.00409e-05
4.00409e-05
4.00411e-05
4.00413e-05
4.00416e-05
4.0042e-05
4.00425e-05
4.00431e-05
4.00439e-05
4.00413e-05
4.00411e-05
4.0041e-05
4.00409e-05
4.00409e-05
4.0041e-05
4.00411e-05
4.00414e-05
4.00417e-05
4.00422e-05
4.00416e-05
4.00415e-05
4.00413e-05
4.00411e-05
4.0041e-05
4.00409e-05
4.0041e-05
4.00411e-05
4.00412e-05
4.00415e-05
4.00417e-05
4.00416e-05
4.00415e-05
4.00413e-05
4.00412e-05
4.00411e-05
4.0041e-05
4.0041e-05
4.00412e-05
4.00418e-05
4.00417e-05
4.00417e-05
4.00416e-05
4.00415e-05
4.00414e-05
4.00413e-05
4.00412e-05
4.00411e-05
4.00416e-05
4.00416e-05
4.00416e-05
4.00417e-05
4.00416e-05
4.00416e-05
4.00416e-05
4.00415e-05
4.00414e-05
4.0041e-05
4.00412e-05
4.00413e-05
4.00414e-05
4.00414e-05
4.00415e-05
4.00416e-05
4.00416e-05
4.00417e-05
4.004e-05
4.00402e-05
4.00404e-05
4.00405e-05
4.00407e-05
4.00409e-05
4.00411e-05
4.00413e-05
4.00414e-05
4.00383e-05
4.00386e-05
4.00388e-05
4.00391e-05
4.00394e-05
4.00397e-05
4.004e-05
4.00403e-05
4.00361e-05
4.00364e-05
4.00367e-05
4.00371e-05
4.00374e-05
4.00378e-05
4.00382e-05
4.00386e-05
4.00337e-05
4.0034e-05
4.00344e-05
4.00347e-05
4.00351e-05
4.00355e-05
4.0036e-05
4.00365e-05
4.00316e-05
4.0032e-05
4.00324e-05
4.00328e-05
4.00332e-05
4.00337e-05
4.00342e-05
4.00291e-05
4.00295e-05
4.003e-05
4.00304e-05
4.00309e-05
4.00314e-05
4.00319e-05
4.00263e-05
4.00268e-05
4.00273e-05
4.00279e-05
4.00285e-05
4.00291e-05
4.00297e-05
4.00231e-05
4.00236e-05
4.00242e-05
4.00249e-05
4.00256e-05
4.00264e-05
4.00272e-05
4.002e-05
4.00205e-05
4.00211e-05
4.00217e-05
4.00224e-05
4.00232e-05
4.00172e-05
4.00176e-05
4.00182e-05
4.00188e-05
4.00194e-05
4.00201e-05
4.0014e-05
4.00145e-05
4.0015e-05
4.00157e-05
4.00163e-05
4.0017e-05
4.00105e-05
4.00111e-05
4.00116e-05
4.00122e-05
4.00129e-05
4.00135e-05
4.00071e-05
4.00075e-05
4.0008e-05
4.00086e-05
4.00092e-05
4.00098e-05
4.00044e-05
4.00046e-05
4.00049e-05
4.00053e-05
4.00058e-05
4.00062e-05
4.00051e-05
4.0005e-05
4.00048e-05
4.00047e-05
4.00047e-05
4.00083e-05
4.00079e-05
4.00075e-05
4.00071e-05
4.00067e-05
4.00122e-05
4.0012e-05
4.00117e-05
4.00114e-05
4.00111e-05
4.00168e-05
4.00166e-05
4.00161e-05
4.00155e-05
4.00202e-05
4.00208e-05
4.00217e-05
4.00226e-05
4.00358e-05
4.00359e-05
4.00359e-05
4.00355e-05
)
;

boundaryField
{
    inlet
    {
        type            freestream;
        freestreamValue uniform 4e-05;
        value           nonuniform List<scalar> 4(4.00358e-05 4.00359e-05 4.00359e-05 4.00355e-05);
    }
    outlet
    {
        type            freestream;
        freestreamValue nonuniform List<scalar> 0();
        value           nonuniform List<scalar> 0();
    }
    walls
    {
        type            fixedValue;
        value           uniform 0;
    }
    frontAndBack
    {
        type            empty;
    }
    procBoundary5to0
    {
        type            processor;
        value           nonuniform List<scalar> 4(4.00736e-05 4.00718e-05 4.00736e-05 4.00747e-05);
    }
    procBoundary5to1
    {
        type            processor;
        value           nonuniform List<scalar> 
13
(
4.31667e-05
3.9851e-05
3.9851e-05
4.01216e-05
4.00638e-05
4.00638e-05
4.00741e-05
4.00742e-05
4.00742e-05
4.00751e-05
4.00746e-05
4.00783e-05
4.00783e-05
)
;
    }
    procBoundary5to4
    {
        type            processor;
        value           nonuniform List<scalar> 
95
(
4.00755e-05
4.00789e-05
4.0082e-05
4.0082e-05
4.00829e-05
4.00855e-05
4.00855e-05
4.0085e-05
4.00867e-05
4.00867e-05
4.00854e-05
4.00854e-05
4.00841e-05
4.00841e-05
4.00813e-05
4.00802e-05
4.00802e-05
4.00792e-05
4.00792e-05
4.00765e-05
4.00753e-05
4.00753e-05
4.00726e-05
4.00716e-05
4.00716e-05
4.00691e-05
4.00684e-05
4.00684e-05
4.00661e-05
4.00638e-05
4.00633e-05
4.00633e-05
4.00611e-05
4.00591e-05
4.00588e-05
4.00588e-05
4.00568e-05
4.0055e-05
4.00548e-05
4.00548e-05
4.00531e-05
4.00515e-05
4.00515e-05
4.00515e-05
4.00499e-05
4.00485e-05
4.00472e-05
4.0046e-05
4.0046e-05
4.0046e-05
4.0045e-05
4.0044e-05
4.00431e-05
4.00424e-05
4.00425e-05
4.00425e-05
4.00419e-05
4.00414e-05
4.0041e-05
4.00407e-05
4.00408e-05
4.00408e-05
4.00407e-05
4.00407e-05
4.00408e-05
4.0041e-05
4.00414e-05
4.00417e-05
4.00418e-05
4.00418e-05
4.00417e-05
4.00415e-05
4.00409e-05
4.00398e-05
4.0038e-05
4.00358e-05
4.00334e-05
4.00313e-05
4.00313e-05
4.00288e-05
4.00258e-05
4.00226e-05
4.00196e-05
4.00167e-05
4.00135e-05
4.00101e-05
4.00067e-05
4.00042e-05
4.00054e-05
4.00054e-05
4.00086e-05
4.00124e-05
4.0017e-05
4.00196e-05
4.00356e-05
)
;
    }
    procBoundary5to6
    {
        type            processor;
        value           nonuniform List<scalar> 
86
(
0.0895451
0.133022
0.162685
0.153295
0.101051
0.0348157
0.00301847
0.000736243
0
0
6.15525e-06
2.50554e-05
4.47618e-05
4.54122e-05
4.11693e-05
3.87094e-05
3.86598e-05
3.94918e-05
4.01486e-05
4.04033e-05
4.04053e-05
4.03173e-05
4.02322e-05
4.0181e-05
4.01601e-05
4.01554e-05
4.0155e-05
4.01532e-05
4.0149e-05
4.01431e-05
4.01368e-05
4.01306e-05
4.01247e-05
4.01102e-05
4.01102e-05
4.01054e-05
4.01008e-05
4.00964e-05
4.00921e-05
4.00881e-05
4.00842e-05
4.00805e-05
4.00769e-05
4.00734e-05
4.007e-05
4.00669e-05
4.00609e-05
4.00609e-05
4.00583e-05
4.00559e-05
4.00536e-05
4.00516e-05
4.00497e-05
4.00479e-05
4.00463e-05
4.00448e-05
4.00428e-05
4.00428e-05
4.00419e-05
4.00414e-05
4.00412e-05
4.00414e-05
4.00417e-05
4.00416e-05
4.00406e-05
4.00406e-05
4.0039e-05
4.0037e-05
4.00347e-05
4.00325e-05
4.00304e-05
4.0028e-05
4.0024e-05
4.0024e-05
4.00208e-05
4.00177e-05
4.00142e-05
4.00105e-05
4.00067e-05
4.00048e-05
4.00064e-05
4.00108e-05
4.00154e-05
4.00154e-05
4.0023e-05
4.00352e-05
)
;
    }
}


// ************************************************************************* //
