/*--------------------------------*- C++ -*----------------------------------*\
| =========                 |                                                 |
| \\      /  F ield         | OpenFOAM: The Open Source CFD Toolbox           |
|  \\    /   O peration     | Version:  2306                                  |
|   \\  /    A nd           | Website:  www.openfoam.com                      |
|    \\/     M anipulation  |                                                 |
\*---------------------------------------------------------------------------*/
FoamFile
{
    version     2.0;
    format      ascii;
    arch        "LSB;label=32;scalar=64";
    class       surfaceScalarField;
    location    "125";
    object      phi;
}
// * * * * * * * * * * * * * * * * * * * * * * * * * * * * * * * * * * * * * //

dimensions      [0 3 -1 0 0 0 0];

oriented        oriented;

internalField   nonuniform List<scalar> 
2558
(
-0.201684
0.221698
-0.0200122
0.243993
-0.0222963
0.263784
-0.0197905
0.281772
-0.0179889
0.298941
-0.0171683
0.313149
-0.0142071
0.32477
-0.01162
0.334473
-0.00970195
0.341349
-0.00687502
0.346311
-0.00496064
0.34952
-0.00320881
0.350786
-0.00126556
0.350311
0.000475829
0.347638
0.00267389
0.342354
0.00528383
0.33443
0.00792466
0.323321
0.0111106
0.308643
0.0146781
0.289668
0.0189768
0.265974
0.0236958
0.236842
0.029133
0.203598
0.0332468
0.170142
0.0334556
0.144917
0.0252249
0.134822
0.0100927
0.137747
-0.00292503
0.146401
-0.00865269
0.155535
-0.00913294
0.162494
-0.00695625
0.166439
-0.00394276
0.167076
-0.000621976
0.164428
0.00264044
0.159126
0.00530678
0.15153
0.00760464
0.0101559
-0.178672
-0.0230133
-0.15464
-0.0240283
-0.125615
-0.0290256
-0.0941471
-0.0314662
-0.061288
-0.0328589
-0.0277726
-0.0335157
-0.184065
0.205345
-0.0412913
0.22721
-0.0441623
0.250196
-0.0427752
0.271775
-0.0395684
0.292953
-0.0383459
0.312799
-0.0340523
0.330872
-0.0296911
0.347427
-0.026257
0.3621
-0.0215466
0.374947
-0.0178074
0.386033
-0.014294
0.395457
-0.0106882
0.40365
-0.00771678
0.411116
-0.00479113
0.41792
-0.00151983
0.423716
0.00212941
0.428311
0.00651674
0.431554
0.0114357
0.432552
0.017979
0.430839
0.0254102
0.424893
0.0350797
0.413642
0.0444982
0.396023
0.051073
0.373122
0.0481229
0.348435
0.0347773
0.324229
0.0212799
0.301014
0.0145636
0.279274
0.0126106
0.259733
0.0125903
0.243175
0.0126222
0.229678
0.0128919
0.218373
0.0139432
0.207653
0.0160344
0.196252
0.0190166
0.0231473
-0.162406
-0.0446716
-0.139212
-0.047221
-0.112092
-0.0561445
-0.0834888
-0.0600694
-0.0531614
-0.0631863
-0.0651922
-0.178992
0.200701
-0.063003
0.222675
-0.0661351
0.246459
-0.0665605
0.26831
-0.0614183
0.289232
-0.059267
0.309348
-0.0541674
0.327379
-0.0477211
0.343698
-0.0425749
0.357869
-0.0357168
0.370106
-0.0300443
0.380421
-0.0246081
0.388951
-0.0192172
0.395458
-0.0142237
0.400343
-0.00967578
0.403335
-0.00451091
0.405253
0.000212416
0.406135
0.00563572
0.406758
0.010813
0.407362
0.0173771
0.408563
0.0242105
0.410854
0.0327911
0.41393
0.0414232
0.416192
0.048813
0.414923
0.049392
0.409112
0.040588
0.399773
0.0306191
0.38796
0.026377
0.373624
0.0269471
0.356187
0.0300266
0.335502
0.0333068
0.312592
0.0358066
0.289298
0.0372322
0.267243
0.038091
0.246731
0.0395334
0.043167
-0.1572
-0.0664617
-0.133494
-0.0709267
-0.10523
-0.0844081
-0.0759355
-0.0893646
-0.0454188
-0.0937035
-0.172929
0.195509
-0.0855814
0.218255
-0.0888815
0.243326
-0.0916306
0.266266
-0.0843581
0.288601
-0.0816022
0.310113
-0.0756777
0.329938
-0.0675444
0.347945
-0.0605822
0.364313
-0.0520835
0.378816
-0.0445472
0.391574
-0.0373653
0.402578
-0.0302209
0.411847
-0.0234921
0.419429
-0.0172571
0.425661
-0.010742
0.43024
-0.00436643
0.433155
0.00272187
0.434105
0.00986525
0.433364
0.0181196
0.430971
0.0266044
0.42749
0.0362738
0.423817
0.0450974
0.420401
0.0522287
0.416779
0.053012
0.41187
0.0454946
0.405694
0.0367932
0.398927
0.0331442
0.392022
0.0338549
0.38464
0.037413
0.375719
0.0422346
0.363866
0.047673
0.34773
0.0533692
0.326977
0.0588533
0.302655
0.0638646
0.0694306
-0.150622
-0.0887694
-0.126786
-0.0947626
-0.0979076
-0.113287
-0.0683372
-0.118936
-0.124442
-0.169914
0.193362
-0.109028
0.21702
-0.112539
0.243493
-0.118103
0.267201
-0.108065
0.290509
-0.104909
0.313048
-0.0982155
0.33368
-0.0881764
0.352547
-0.0794479
0.369901
-0.0694371
0.385118
-0.0597643
0.398564
-0.0508111
0.410168
-0.0418242
0.420173
-0.0334967
0.428261
-0.0253449
0.434608
-0.017088
0.439191
-0.00894876
0.442185
-0.000270948
0.443713
0.00833781
0.443637
0.0181977
0.442297
0.0279463
0.439645
0.0389277
0.435886
0.0488583
0.431168
0.0569483
0.425328
0.0588526
0.418185
0.0526381
0.41007
0.0449076
0.401698
0.041517
0.393645
0.0419069
0.386117
0.0449394
0.379151
0.0491993
0.372451
0.0543748
0.365149
0.0606667
0.355569
0.0684331
0.341368
0.0780704
0.0901716
-0.146561
-0.112123
-0.121993
-0.11933
-0.0918625
-0.14342
-0.0614149
-0.149383
-0.167575
0.192035
-0.133488
0.216963
-0.137466
0.244786
-0.145926
0.269641
-0.132919
0.293921
-0.129188
0.317737
-0.12203
0.339265
-0.109704
0.359304
-0.0994866
0.377562
-0.0876946
0.393907
-0.0761096
0.408574
-0.0654769
0.421381
-0.0546312
0.432531
-0.0446463
0.442008
-0.0348211
0.449691
-0.0247696
0.455881
-0.0151377
0.460264
-0.0046533
0.462913
0.00569129
0.463951
0.0171618
0.463257
0.0286416
0.460968
0.0412188
0.457349
0.0524794
0.45239
0.0619077
0.445961
0.0652812
0.437955
0.0606422
0.428719
0.0541419
0.418878
0.0513566
0.408913
0.0518732
0.399008
0.0548481
0.389271
0.0589424
0.379932
0.0637244
0.371154
0.0694481
0.362978
0.076619
0.35465
0.0864099
0.101039
-0.143247
-0.136451
-0.117839
-0.14474
-0.0863665
-0.174892
-0.181002
-0.166326
0.1921
-0.159262
0.218084
-0.163449
0.247458
-0.175298
0.273556
-0.159016
0.299051
-0.154681
0.323914
-0.146893
0.346549
-0.132339
0.367391
-0.120328
0.386618
-0.106922
0.403823
-0.0933136
0.41924
-0.0808937
0.432994
-0.0683845
0.444958
-0.0566102
0.455196
-0.0450587
0.463766
-0.0333381
0.47051
-0.0218808
0.475578
-0.00972063
0.478896
0.00237489
0.480551
0.0155082
0.480562
0.0286327
0.479063
0.0427196
0.476161
0.0553824
0.472023
0.0660471
0.466318
0.0709875
0.458938
0.0680231
0.450093
0.0629876
0.440339
0.0611096
0.430119
0.0620923
0.419585
0.0653797
0.408676
0.0698495
0.397434
0.0749648
0.38599
0.0808876
0.37464
0.0879684
0.363772
0.0972817
0.111162
-0.140793
-0.161984
-0.114277
-0.171257
-0.08133
-0.20784
-0.213954
-0.16569
0.192794
-0.186364
0.220187
-0.19084
0.251222
-0.206332
0.278511
-0.186304
0.305265
-0.181435
0.331345
-0.172972
0.354962
-0.155957
0.376947
-0.142313
0.396947
-0.126922
0.415019
-0.111386
0.431407
-0.097281
0.445959
-0.0829357
0.458745
-0.0693957
0.469884
-0.056196
0.479316
-0.0427693
0.487011
-0.0295741
0.493007
-0.0157154
0.497261
-0.00187666
0.499722
0.013049
0.500439
0.0279181
0.499555
0.0436071
0.497103
0.0578358
0.493212
0.0699392
0.487843
0.0763573
0.480806
0.0750594
0.472278
0.0715143
0.462763
0.0706236
0.452658
0.0721966
0.442087
0.0759515
0.431043
0.0808981
0.41939
0.0866258
0.407089
0.0931923
0.394063
0.101003
0.38047
0.110887
0.124919
-0.138922
-0.188753
-0.111234
-0.198944
-0.0765681
-0.242506
-0.165773
0.194249
0.22308
0.25581
0.284475
0.312669
-0.209628
0.340079
-0.200383
0.364881
-0.180759
0.387731
-0.165162
0.408787
-0.147977
0.427648
-0.130246
0.4447
-0.114332
0.460011
-0.098246
0.473596
-0.0829803
0.485478
-0.068077
0.495662
-0.0529517
0.504176
-0.0380877
0.51091
-0.0224482
0.515837
-0.00680186
0.518974
0.00991356
0.520327
0.026566
0.520029
0.0439068
0.518136
0.0597309
0.514707
0.0733696
0.509726
0.0813396
0.503082
0.0817041
0.494874
0.0797221
0.485524
0.0799736
0.475485
0.0822342
0.464935
0.0864989
0.453832
0.091998
0.442122
0.0983332
0.429702
0.105608
0.416391
0.114312
0.401961
0.125321
0.140649
-0.137527
-0.108486
0.320897
0.349753
0.375701
-0.206707
0.399656
-0.189116
0.421661
-0.169982
0.441359
-0.149943
0.459218
-0.132191
0.475349
-0.114376
0.489595
-0.097225
0.502148
-0.080629
0.513139
-0.0639413
0.522318
-0.047265
0.529785
-0.0299135
0.535431
-0.0124453
0.539328
0.00601942
0.541421
0.0244756
0.541665
0.0436659
0.540303
0.0610947
0.537304
0.0763713
0.532699
0.0859452
0.526379
0.088025
0.518391
0.0877089
0.509194
0.0891704
0.499184
0.0922421
0.488497
0.0971852
0.477233
0.103263
0.46532
0.110251
0.452682
0.11825
0.439201
0.1278
0.424622
0.139912
0.156721
0.387644
0.412791
0.435799
-0.192991
0.456402
-0.170545
0.475017
-0.150805
0.491751
-0.131109
0.506747
-0.11222
0.52009
-0.0939704
0.531632
-0.0754821
0.541536
-0.0571673
0.549676
-0.0380518
0.556056
-0.0188241
0.560556
0.0015204
0.563252
0.0217812
0.564124
0.0427956
0.563229
0.0619908
0.560679
0.0789224
0.556483
0.0901425
0.550545
0.093964
0.542918
0.095336
0.533899
0.0981892
0.523884
0.102257
0.513137
0.10793
0.501629
0.114767
0.489411
0.122467
0.476434
0.131221
0.462593
0.141639
0.447695
0.154812
0.172971
0.451084
0.472559
-0.19202
0.492034
-0.17028
0.509591
-0.148664
0.525172
-0.1278
0.539101
-0.107898
0.551368
-0.0877471
0.561914
-0.0677116
0.570669
-0.0468043
0.577635
-0.0257882
0.582767
-0.00360861
0.586088
0.0184626
0.587552
0.0413346
0.58721
0.062335
0.585117
0.0810177
0.581314
0.0939476
0.575735
0.0995449
0.568427
0.102644
0.55962
0.106996
0.549706
0.112169
0.53887
0.118765
0.527197
0.126439
0.514684
0.134982
0.501305
0.144603
0.487018
0.15593
0.471608
0.170233
0.189718
0.489956
0.51024
-0.190561
0.528507
-0.166929
0.544866
-0.144158
0.559463
-0.122493
0.57231
-0.100593
0.583413
-0.0788131
0.592792
-0.056182
0.600394
-0.0333885
0.606132
-0.00934556
0.609958
0.0146384
0.611964
0.0393293
0.6121
0.0622008
0.610453
0.0826652
0.607098
0.0973042
0.601973
0.104671
0.594997
0.10962
0.586449
0.115544
0.576625
0.121993
0.565756
0.129631
0.553942
0.138249
0.541185
0.147737
0.527449
0.158335
0.512676
0.1707
0.496709
0.186204
0.207115
0.529753
-0.211786
0.548779
-0.185953
0.565822
-0.1612
0.581062
-0.137733
0.594424
-0.113953
0.606166
-0.0905532
0.616123
-0.0661373
0.62427
-0.041533
0.6306
-0.0156734
0.635021
0.01022
0.637526
0.0368266
0.638171
0.0615589
0.636987
0.0838514
0.634041
0.100252
0.629293
0.10942
0.622667
0.116247
0.614401
0.12381
0.604731
0.131662
0.593864
0.140498
0.581926
0.150186
0.568926
0.160738
0.554864
0.172396
0.539638
0.185927
0.523158
0.202691
0.225171
0.550568
0.57042
-0.205805
0.588079
-0.178858
0.603968
-0.15362
0.618043
-0.128027
0.630318
-0.102827
0.640835
-0.0766535
0.649506
-0.0502024
0.656273
-0.0224395
0.661197
0.00529723
0.664233
0.0337915
0.665304
0.0604893
0.66457
0.0845867
0.662055
0.102768
0.657729
0.113747
0.651518
0.122459
0.643503
0.131825
0.634001
0.141163
0.623203
0.151295
0.611173
0.162214
0.597975
0.173934
0.583584
0.186784
0.567978
0.201531
0.550979
0.219694
0.243843
0.593343
0.611839
-0.197354
0.628337
-0.170116
0.642973
-0.142661
0.655798
-0.11565
0.666827
-0.0876811
0.676008
-0.0593821
0.683364
-0.0297935
0.688742
-7.82793e-05
0.692198
0.030338
0.693759
0.0589304
0.693424
0.0849242
0.691318
0.104876
0.687381
0.117687
0.681543
0.128299
0.673866
0.139504
0.66456
0.15047
0.653814
0.16204
0.641725
0.174302
0.628361
0.187298
0.613699
0.201444
0.597675
0.217554
0.580182
0.237192
0.263081
0.636965
-0.216601
0.654164
-0.187314
0.669373
-0.157869
0.682765
-0.129041
0.694297
-0.0992124
0.703996
-0.06908
0.711765
-0.0375621
0.717638
-0.00594927
0.721521
0.0264552
0.723463
0.0569893
0.723564
0.0848241
0.72185
0.106592
0.718339
0.121199
0.712864
0.133775
0.705499
0.14687
0.696413
0.159555
0.685751
0.172702
0.673654
0.186397
0.660142
0.20081
0.645224
0.216359
0.628839
0.233937
0.610871
0.255164
0.282851
0.663538
0.681433
-0.205209
0.697344
-0.17378
0.711248
-0.142944
0.723318
-0.111281
0.733476
-0.0792368
0.741741
-0.0458248
0.748008
-0.0122142
0.752289
0.0221767
0.754667
0.0546138
0.755097
0.0843964
0.753765
0.107926
0.750614
0.124353
0.745506
0.138885
0.738479
0.153899
0.729634
0.168401
0.719136
0.183202
0.707031
0.198503
0.693403
0.214439
0.678246
0.231514
0.661517
0.250663
0.643117
0.273564
0.3032
0.710392
-0.22384
0.726907
-0.190294
0.741399
-0.157435
0.753954
-0.123835
0.764554
-0.0898364
0.773203
-0.0544725
0.779891
-0.0189006
0.784595
0.017474
0.787268
0.051942
0.788062
0.0836032
0.787105
0.108884
0.784315
0.127143
0.779606
0.143596
0.772902
0.160603
0.764296
0.177008
0.753921
0.193578
0.741875
0.210549
0.728167
0.228146
0.712807
0.246874
0.695765
0.267704
0.67694
0.292396
0.324037
0.740998
0.758136
-0.207433
0.77324
-0.172538
0.786273
-0.136867
0.79732
-0.100882
0.806424
-0.0635744
0.813463
-0.0259378
0.818487
0.0124521
0.821512
0.0489194
0.822629
0.0824897
0.821996
0.10952
0.819567
0.129575
0.815182
0.147983
0.808797
0.166992
0.80049
0.185318
0.790293
0.203777
0.778287
0.222557
0.764519
0.241915
0.749006
0.262386
0.73169
0.285017
0.712471
0.311615
0.345351
0.791121
-0.225264
0.806799
-0.188216
0.820382
-0.150449
0.831921
-0.11242
0.841369
-0.07302
0.848788
-0.0333555
0.854109
0.00713203
0.857442
0.0455874
0.858903
0.08103
0.858471
0.109952
0.856384
0.131664
0.85235
0.152017
0.846209
0.173133
0.83824
0.193288
0.828225
0.213793
0.816334
0.234448
0.80254
0.25571
0.786898
0.278027
0.76933
0.302585
0.74976
0.33119
0.367121
0.825991
0.842264
-0.204489
0.856379
-0.164564
0.868349
-0.124388
0.878185
-0.0828545
0.885927
-0.0410949
0.891585
0.00147652
0.895139
0.0420356
0.896847
0.0793244
0.896743
0.110059
0.894876
0.133534
0.891194
0.155702
0.885449
0.178881
0.877717
0.201023
0.86793
0.223583
0.856038
0.246342
0.842298
0.269451
0.826611
0.293714
0.808847
0.320347
0.788894
0.351144
0.389292
0.87969
-0.221438
0.894335
-0.179206
0.906765
-0.136816
0.916977
-0.0930646
0.925092
-0.0492084
0.931033
-0.00446321
0.934861
0.0382084
0.936678
0.0775094
0.936821
0.109916
0.935306
0.13505
0.931877
0.159132
0.926411
0.184348
0.918802
0.208633
0.90927
0.233116
0.897575
0.258038
0.883951
0.283076
0.867997
0.309669
0.85007
0.338274
0.829931
0.371288
0.411823
0.919101
-0.238984
0.934416
-0.19452
0.947297
-0.149693
0.957975
-0.103741
0.96622
-0.0574514
0.972512
-0.0107528
0.976557
0.0341648
0.978617
0.0754513
0.979
0.109536
0.977619
0.136432
0.974391
0.162364
0.969181
0.18956
0.961846
0.21597
0.952412
0.242553
0.941088
0.269365
0.9273
0.296867
0.911562
0.325407
0.893453
0.356383
0.873013
0.391729
0.434591
0.960817
0.976607
-0.210306
0.989874
-0.162958
1.00097
-0.114835
1.00965
-0.0661292
1.01603
-0.0171294
1.02034
0.0298572
1.02253
0.0732539
1.02305
0.109021
1.02194
0.137547
1.01903
0.165274
1.01404
0.194542
1.00697
0.223045
0.997794
0.251731
0.986382
0.280778
0.972919
0.310329
0.956975
0.341352
0.938733
0.374626
0.918369
0.412097
0.457796
1.02104
-0.226552
1.03506
-0.176972
1.04635
-0.126119
1.05545
-0.0752293
1.06199
-0.0236705
1.06641
0.0254356
1.06891
0.0707606
1.0694
0.108528
1.06851
0.138445
1.0656
0.168185
1.06098
0.199167
1.05414
0.229882
1.04522
0.260659
1.03388
0.292112
1.02031
0.323907
1.00465
0.357012
0.986466
0.392811
0.965645
0.432921
0.480935
1.06816
-0.243636
1.08248
-0.191293
1.09423
-0.137862
1.10356
-0.0845572
1.1104
-0.0305164
1.11489
0.0209463
1.11737
0.0682843
1.11828
0.107618
1.11723
0.139494
1.11472
0.170699
1.10995
0.203938
1.10349
0.236344
1.09465
0.2695
1.08371
0.303051
1.07034
0.337271
1.0544
0.37296
1.03632
0.410892
1.01553
0.453711
0.504524
1.11756
1.13242
-0.206148
1.14465
-0.150093
1.15413
-0.0940422
1.16139
-0.0377722
1.166
0.0163327
1.16863
0.0656637
1.16939
0.106856
1.16864
0.140251
1.16604
0.173291
1.16172
0.208264
1.15514
0.24293
1.14652
0.278116
1.13567
0.313907
1.12238
0.350563
1.10678
0.388565
1.0884
0.429273
1.06771
0.474408
0.528071
1.18516
-0.221655
1.19793
-0.162854
1.20778
-0.103893
1.21489
-0.0448878
1.21985
0.01138
1.22231
0.0631982
1.22309
0.106084
1.22244
0.140901
1.21986
0.175864
1.21563
0.212495
1.20937
0.249196
1.20081
0.286674
1.19004
0.32468
1.17699
0.363614
1.16145
0.404098
1.14341
0.44732
1.12242
0.4954
0.551512
1.24086
-0.237641
1.25383
-0.175826
1.26407
-0.114131
1.27155
-0.0523654
1.27627
0.00666333
1.27909
0.0603758
1.27998
0.105199
1.27906
0.14182
1.27677
0.178148
1.27245
0.216822
1.26616
0.255487
1.25794
0.294896
1.24739
0.335232
1.23443
0.376577
1.21884
0.419693
1.20072
0.465441
1.18007
0.516052
0.575069
1.29944
1.31295
-0.189328
1.3234
-0.124578
1.33102
-0.059989
1.33609
0.00159238
1.33858
0.057891
1.33936
0.104417
1.3388
0.142384
1.33628
0.180663
1.33198
0.221124
1.32594
0.261532
1.31758
0.303258
1.30709
0.34572
1.29422
0.389444
1.27904
0.434878
1.26103
0.48345
1.24034
0.536749
0.598541
1.37502
-0.203245
1.38599
-0.135551
1.39368
-0.0676735
1.39877
-0.00349726
1.40153
0.0551336
1.40221
0.103737
1.40142
0.143172
1.39899
0.183096
1.39482
0.225295
1.38854
0.267813
1.38046
0.311337
1.37002
0.356166
1.35739
0.402074
1.34203
0.450239
1.32431
0.501178
1.30375
0.557307
0.621865
1.44082
-0.217879
1.4518
-0.146531
1.45988
-0.0757606
1.46508
-0.00869604
1.46756
0.052657
1.46826
0.103045
1.46728
0.144143
1.46485
0.185527
1.46063
0.22952
1.45453
0.273918
1.44626
0.319609
1.43599
0.366436
1.4233
0.414765
1.40836
0.465174
1.39066
0.518885
1.37029
0.577677
1.50974
1.52142
-0.158216
1.52954
-0.083877
1.53469
-0.0138486
1.53737
0.0499855
1.53786
0.102552
1.5369
0.145099
1.53432
0.188115
1.52985
0.233983
1.52374
0.280031
1.51554
0.327808
1.50528
0.376704
1.49281
0.427235
1.47786
0.480122
1.46034
0.536412
0.597833
1.59455
-0.170002
1.60308
-0.0924029
1.60815
-0.0189263
1.61063
0.0475106
1.61121
0.101973
1.61
0.146313
1.60721
0.190905
1.60276
0.238426
1.59646
0.286338
1.58845
0.335818
1.57816
0.38699
1.56561
0.43979
1.55079
0.494936
1.53347
0.55374
0.61788
1.67186
-0.182273
1.68036
-0.100906
1.68573
-0.024291
1.68819
0.0450511
1.68836
0.101805
1.68712
0.147547
1.68423
0.193797
1.67963
0.243032
1.67324
0.292722
1.66495
0.344111
1.65462
0.397323
1.64226
0.452157
1.62757
0.509624
1.6103
0.571009
0.637518
1.75306
-0.194883
1.76207
-0.109909
1.76728
-0.029504
1.76964
0.0427002
1.76981
0.101636
1.76825
0.149104
1.76523
0.196812
1.76043
0.247835
1.75394
0.299219
1.74548
0.35257
1.73522
0.407584
1.72287
0.464501
1.70816
0.524336
1.69125
0.587926
0.65715
1.839
-0.207881
1.848
-0.118916
1.85333
-0.0348291
1.85557
0.0404631
1.85573
0.101479
1.85394
0.150888
1.85062
0.200136
1.84559
0.252864
1.83895
0.305859
1.83044
0.361087
1.82008
0.417946
1.80745
0.47713
1.79298
0.5388
1.77613
0.604784
0.676489
1.92948
1.93866
-0.128087
1.94417
-0.0403409
1.94641
0.0382213
1.94606
0.10183
1.94415
0.152802
1.94067
0.203623
1.93538
0.258154
1.92842
0.312823
1.91967
0.36983
1.90918
0.428439
1.89681
0.489497
1.88215
0.553463
1.86536
0.621584
0.695525
2.03436
-0.137507
2.03975
-0.0457294
2.04179
0.0361832
2.04138
0.102243
2.03935
0.154837
2.03549
0.207483
2.03005
0.26359
2.02274
0.320135
2.01388
0.378692
2.00309
0.439231
1.99053
0.502055
1.97608
0.567918
1.95946
0.638202
0.714414
2.13524
-0.14741
2.14063
-0.0511211
2.14275
0.034065
2.14209
0.102902
2.13959
0.157337
2.13549
0.211587
2.12974
0.269342
2.12219
0.327684
2.11304
0.387842
2.1022
0.450071
2.08957
0.514689
2.07488
0.58261
2.05843
0.654656
0.733154
2.24161
-0.157496
2.24721
-0.0567143
2.24894
0.0323303
2.24812
0.103727
2.24544
0.16002
2.24094
0.216082
2.23485
0.27544
2.22717
0.335359
2.2177
0.397311
2.20651
0.461268
2.19363
0.527567
2.1791
0.597145
2.16251
0.671244
0.751766
2.35365
-0.167688
2.35933
-0.0623908
2.36107
0.0305953
2.35994
0.104856
2.35705
0.16291
2.35238
0.22075
2.34577
0.282047
2.33766
0.343469
2.32785
0.407127
2.31654
0.472572
2.30339
0.540719
2.28871
0.61183
2.2721
0.687851
0.770127
2.47199
2.47769
-0.0680904
2.47923
0.029055
2.47804
0.106048
2.47475
0.166202
2.46964
0.225855
2.46278
0.288913
2.45421
0.35204
2.44415
0.417179
2.4323
0.484431
2.41912
0.553895
2.40412
0.626832
2.38774
0.70423
0.788543
2.60263
-0.0738976
2.60413
0.0275528
2.60256
0.107619
2.59887
0.169893
2.59341
0.231313
2.58612
0.296201
2.5772
0.36096
2.56674
0.427634
2.55472
0.496456
2.54107
0.567543
2.52613
0.64177
2.50926
0.721099
2.73418
-0.0797775
2.73569
0.0260401
2.73374
0.109564
2.72989
0.173743
2.72406
0.237143
2.71632
0.303938
2.70703
0.370254
2.69601
0.438659
2.68351
0.508954
2.66977
0.58128
2.65432
0.657224
0.737809
2.87326
-0.0858479
2.87437
0.0249286
2.8724
0.11154
2.8681
0.178044
2.86173
0.243513
2.85365
0.312011
2.84382
0.38009
2.83247
0.450005
2.81961
0.521817
2.8052
0.595685
2.78975
0.672682
0.754803
3.0196
-0.0917667
3.02093
0.0236016
3.01849
0.113975
3.01384
0.18269
3.00719
0.250163
2.99862
0.320583
2.98822
0.390493
2.97625
0.461975
2.96299
0.535075
2.94843
0.610245
2.93225
0.688858
0.771846
3.17439
3.17523
0.0227585
3.17272
0.116489
3.16766
0.187747
3.16058
0.257243
3.15148
0.329683
3.14062
0.40135
3.12828
0.474322
3.11432
0.549032
3.09916
0.625401
3.08291
0.705111
0.789518
3.33833
0.021882
3.33527
0.119542
3.32998
0.193043
3.32241
0.264811
3.31276
0.339336
3.30141
0.412695
3.28825
0.487488
3.27397
0.563308
3.25832
0.641052
3.24155
0.721879
0.80732
3.51032
0.0209215
3.50714
0.122718
3.50127
0.198912
3.49319
0.272895
3.48295
0.349572
3.47096
0.424687
3.45736
0.50109
3.44233
0.578345
3.42602
0.657362
3.40883
0.739069
0.825558
3.69163
0.0203011
3.68811
0.126237
3.68177
0.20525
3.6733
0.281363
3.66259
0.360284
3.64992
0.437356
3.63571
0.515297
3.62002
0.594035
3.60329
0.674098
3.58537
0.756983
0.844409
3.88299
0.0196773
3.87912
0.130112
3.87255
0.211816
3.86352
0.290393
3.85204
0.37177
3.83879
0.4506
3.82382
0.530271
3.80744
0.610413
3.78997
0.691563
3.77143
0.775525
0.863645
4.08484
0.0192013
4.08069
0.134256
4.07358
0.218927
4.06396
0.300018
4.05207
0.383662
4.03795
0.464719
4.02231
0.545913
4.00521
0.627511
3.98698
0.709793
3.96791
0.794599
4.29778
0.0188168
4.29331
0.138733
4.28577
0.226461
4.27552
0.310276
4.26292
0.396262
4.24829
0.479342
4.23168
0.562524
4.21397
0.645229
4.1948
0.728956
0.814377
4.52248
4.51766
0.143553
4.50964
0.234481
4.49884
0.321072
4.48536
0.409748
4.46993
0.494772
4.45271
0.579737
4.43394
0.664005
4.41421
0.748689
0.835032
4.7543
0.148799
4.74591
0.242867
4.7344
0.332586
4.72029
0.423859
4.70388
0.511182
4.68576
0.597855
4.66616
0.683608
4.64555
0.769299
0.856601
5.00395
0.154346
4.99485
0.251963
4.98288
0.344555
4.96793
0.438811
4.95077
0.528339
4.93171
0.616916
4.91111
0.70421
4.88946
0.790953
0.878995
5.26733
0.160262
5.25774
0.261551
5.24497
0.357325
5.22931
0.454476
5.21123
0.54642
5.19119
0.636962
5.16955
0.725847
5.14682
0.813691
0.902384
5.54517
0.166392
5.53495
0.271774
5.52148
0.370791
5.50491
0.471049
5.48587
0.565463
5.46481
0.658027
5.44223
0.748429
5.41849
0.83742
0.92681
5.83819
0.173134
5.8274
0.282564
5.81317
0.385018
5.79564
0.488583
5.77572
0.585383
5.75345
0.680294
5.72975
0.772128
5.70486
0.862321
6.14725
0.180297
6.13593
0.293885
6.12091
0.400036
6.10252
0.506975
6.08141
0.606497
6.05816
0.703541
6.03303
0.79726
0.8883
6.47352
0.187833
6.46154
0.305866
6.44551
0.416071
6.4262
0.526286
6.40385
0.628849
6.37943
0.727954
6.35322
0.823473
0.915805
6.81756
6.8048
0.318618
6.78815
0.432727
6.76771
0.546724
6.74433
0.652233
6.71844
0.753847
6.69083
0.851085
0.944619
7.16731
0.331529
7.1494
0.450637
7.12768
0.568446
7.10361
0.676308
7.07606
0.781397
7.04753
0.879616
0.975185
7.54937
0.34663
7.53083
0.469173
7.50814
0.591146
7.48148
0.702962
7.4534
0.809479
7.42259
0.910426
1.00611
7.95279
0.360564
7.93287
0.489093
7.90891
0.615107
7.88238
0.7295
7.85189
0.839971
7.82007
0.942249
1.04057
5.76108
0.394565
5.73263
0.517544
5.71567
0.632076
5.69445
0.750718
5.67286
0.861563
5.69113
0.923981
6.33098
0.431893
6.29933
0.549197
6.27924
0.65217
6.25892
0.771032
6.23572
0.88477
0.906026
6.95736
0.472765
6.92236
0.584197
6.90159
0.672946
6.87811
0.794511
6.85055
0.912332
0.883303
7.64533
0.517399
7.60674
0.622782
7.58511
0.694581
7.55698
0.822639
7.52881
0.940506
0.859899
8.40128
0.567309
8.35892
0.665141
8.33361
0.719894
8.30586
0.850383
8.2743
0.972068
0.834682
9.23152
0.621496
9.18509
0.711569
9.15717
0.747823
9.12564
0.881906
9.09175
1.00596
0.805296
10.1441
10.0947
0.760881
10.064
0.778555
10.0299
0.91604
9.99095
1.04489
0.774452
11.0915
0.817555
11.0588
0.811253
11.0203
0.954548
10.9784
1.08674
0.740031
12.1922
0.877383
12.1551
0.848297
12.1137
0.995919
12.068
1.1325
0.700417
13.3915
0.945751
13.3514
0.888434
13.306
1.04136
13.255
1.18351
14.731
1.01819
14.6882
0.931215
14.6376
1.09195
1.2352
16.1635
1.09912
16.1138
0.980967
16.0581
1.14767
1.29845
17.8266
17.7776
17.7239
)
;

boundaryField
{
    inlet
    {
        type            calculated;
        value           nonuniform List<scalar> 4(1.18244 1.02991 1.20145 1.35421);
    }
    outlet
    {
        type            calculated;
        value           nonuniform List<scalar> 0();
    }
    walls
    {
        type            calculated;
        value           uniform 0;
    }
    frontAndBack
    {
        type            empty;
        value           nonuniform List<scalar> 0();
    }
    procBoundary5to0
    {
        type            processor;
        value           nonuniform List<scalar> 4(-0.214839 -0.216997 -0.227986 -0.278959);
    }
    procBoundary5to1
    {
        type            processor;
        value           nonuniform List<scalar> 
13
(
0.00461627
-0.0323918
-0.0214863
-0.0138359
-0.0967745
-0.0375987
-0.0299088
-0.155949
-0.0547494
-0.0483772
-0.0420803
-0.24844
-0.0720307
)
;
    }
    procBoundary5to4
    {
        type            processor;
        value           nonuniform List<scalar> 
95
(
-0.21967
-0.239061
-0.214967
-0.291413
-0.23911
-0.229237
-0.360557
-0.233791
-0.214261
-0.427024
-0.217048
-0.467514
-0.214459
-0.508527
-0.528463
-0.233888
-0.572627
-0.226517
-0.617716
-0.643534
-0.236604
-0.69176
-0.721587
-0.24325
-0.773288
-0.807338
-0.243916
-0.86274
-0.901553
-0.942447
-0.257351
-1.00479
-1.05108
-1.09982
-0.261372
-1.16965
-1.22487
-1.28268
-0.254397
-1.36109
-1.42618
-1.49485
-0.232758
-1.58276
-1.65959
-1.74045
-1.826
-1.91592
-0.221432
-2.02494
-2.12533
-2.23152
-2.34346
-2.46128
-0.1784
-2.59682
-2.7283
-2.86719
-3.01369
-3.16796
-0.0981976
-3.33745
-3.50936
-3.69101
-3.88237
-4.08436
-4.2974
-4.5221
0.018445
-4.75954
-5.00949
-5.27324
-5.5513
-5.84493
-6.15441
-6.48106
-6.82554
0.195821
-7.18022
-7.56447
-7.96673
-5.79508
-6.36831
-6.99823
-7.68996
-8.45119
-9.2857
-10.204
0.681451
-11.1481
-12.252
-13.4599
-14.8034
-16.2444
-17.9098
)
;
    }
    procBoundary5to6
    {
        type            processor;
        value           nonuniform List<scalar> 
86
(
0.141398
0.183279
0.226727
0.27641
0.320644
0.343803
0.353666
0.366735
0.386245
0.408571
0.431458
0.454881
0.479323
0.505119
0.532317
0.56096
0.59111
0.62278
0.656112
0.691165
0.728001
0.766728
0.807411
0.850249
0.895174
0.942512
0.991951
1.04417
1.09899
1.15652
1.21687
1.28043
1.34702
0.645142
1.44019
1.51342
1.59067
1.67162
1.7568
1.84632
1.94058
2.03969
2.1439
2.25374
2.36933
2.4909
0.806905
2.63761
2.77275
2.91521
3.06524
3.22375
3.39059
3.56653
3.7522
3.94811
0.88344
4.17503
4.39355
4.62398
4.86707
5.12343
5.39407
5.67922
0.952446
6.00705
6.32572
6.66201
7.01696
7.39167
7.7856
5.69322
1.03847
6.25367
6.87327
7.55222
8.29952
9.12113
10.0218
11.0128
12.1076
13.2957
0.65962
14.586
15.9948
17.6681
)
;
    }
}


// ************************************************************************* //
