/*--------------------------------*- C++ -*----------------------------------*\
| =========                 |                                                 |
| \\      /  F ield         | OpenFOAM: The Open Source CFD Toolbox           |
|  \\    /   O peration     | Version:  2306                                  |
|   \\  /    A nd           | Website:  www.openfoam.com                      |
|    \\/     M anipulation  |                                                 |
\*---------------------------------------------------------------------------*/
FoamFile
{
    version     2.0;
    format      ascii;
    arch        "LSB;label=32;scalar=64";
    class       volSymmTensorField;
    location    "125";
    object      turbulenceProperties:devReff;
}
// * * * * * * * * * * * * * * * * * * * * * * * * * * * * * * * * * * * * * //

dimensions      [0 2 -2 0 0 0 0];

internalField   nonuniform List<symmTensor> 
1340
(
(0.00143719 0.00323958 -2.17786e-21 -0.00153891 -1.85635e-20 0.000101718)
(0.00202181 0.00371884 9.99761e-21 -0.00209424 1.16189e-19 7.24299e-05)
(0.00297437 0.00416643 -4.04498e-20 -0.00312419 -3.40876e-19 0.000149821)
(0.00426096 0.004755 1.11649e-19 -0.00444922 6.77456e-19 0.000188262)
(0.00599406 0.00528263 -1.76021e-19 -0.0062016 -6.31312e-19 0.00020754)
(0.0083931 0.00561044 -1.51838e-19 -0.00869934 -3.7327e-19 0.000306234)
(0.011583 0.00573238 3.00143e-19 -0.0119676 1.00014e-18 0.000384633)
(0.0156555 0.00535502 -7.17803e-19 -0.016122 -1.81106e-18 0.000466531)
(0.0207675 0.00415458 -1.69061e-19 -0.0213731 4.41999e-19 0.000605658)
(0.0270115 0.00189922 5.44452e-19 -0.0277489 1.04391e-18 0.000737419)
(0.0344715 -0.00188094 1.33309e-18 -0.0353752 5.2741e-19 0.000903694)
(0.0434686 -0.00770811 -2.99668e-18 -0.0445802 -2.73548e-18 0.0011116)
(0.0545521 -0.0163652 5.52498e-19 -0.0559125 7.17754e-19 0.00136044)
(0.0683354 -0.0291241 2.30364e-18 -0.0700098 1.10768e-18 0.00167443)
(0.0859261 -0.0481614 -3.54741e-18 -0.0880384 -5.29546e-18 0.00211222)
(0.109325 -0.0772215 -3.8824e-18 -0.112037 -2.11672e-18 0.00271203)
(0.140687 -0.122542 1.54801e-17 -0.144342 1.41085e-17 0.00365477)
(0.185903 -0.196936 1.69996e-17 -0.190961 2.6292e-17 0.00505737)
(0.247746 -0.318213 -2.83528e-17 -0.255027 -4.0419e-17 0.00728107)
(0.350655 -0.54612 -3.72972e-18 -0.361656 1.11139e-17 0.0110016)
(0.482725 -0.919717 -2.21253e-17 -0.499183 3.36918e-17 0.0164585)
(0.771727 -1.82338 1.4725e-17 -0.799322 2.2917e-17 0.0275944)
(1.08603 -3.30313 -1.09298e-16 -1.12878 -2.4575e-16 0.0427488)
(1.93935 -8.25553 1.78181e-16 -2.03466 2.6384e-16 0.0953094)
(1.96564 -13.6569 1.69574e-17 -2.08509 -5.04165e-16 0.119458)
(0.989476 -15.2492 4.6016e-16 -1.05655 4.20407e-16 0.0670746)
(0.0263619 -15.0129 -5.43045e-17 -0.0462367 -6.92058e-17 0.0198749)
(-0.714554 -14.6474 2.63246e-16 0.711275 1.92696e-16 0.0032787)
(-1.33198 -14.3969 8.08225e-16 1.3294 1.03845e-15 0.00258131)
(-1.86839 -14.0683 5.97721e-16 1.86288 1.73756e-15 0.0055105)
(-2.3095 -13.53 -1.52563e-15 2.30005 -1.68633e-15 0.00945134)
(-2.6398 -12.7692 -5.95112e-16 2.62559 -6.28325e-16 0.0142102)
(-2.86008 -11.8401 2.67751e-16 2.84155 -4.26214e-15 0.0185252)
(-2.96337 -10.7739 -2.69712e-15 2.94375 -6.39582e-15 0.019619)
(-2.93462 -9.55684 9.23482e-16 2.91634 8.15953e-16 0.0182767)
(0.000922679 0.00282853 6.32105e-21 -0.000959607 4.29712e-20 3.69271e-05)
(0.000602453 0.00243346 -6.16269e-21 -0.000666933 -1.00772e-20 6.44797e-05)
(0.000321968 0.00199245 -4.54882e-20 -0.000354932 -9.6943e-20 3.29641e-05)
(0.000140739 0.00159944 3.71967e-20 -0.000164645 6.03238e-20 2.39065e-05)
(6.44129e-05 0.00122914 -6.71502e-21 -7.12061e-05 1.31934e-20 6.79315e-06)
(8.02146e-05 0.000911745 -7.11105e-20 -6.05138e-05 1.98634e-19 -1.97008e-05)
(0.000164767 0.000694118 -1.39881e-19 -0.000122377 1.35627e-19 -4.23899e-05)
(0.000563916 -0.000402115 2.81785e-22 -0.000515935 2.95409e-21 -4.7981e-05)
(0.000486699 -0.000491457 2.51841e-20 -0.000431103 6.40973e-20 -5.55953e-05)
(0.000375747 -0.00057064 -2.14729e-20 -0.000307819 -3.94932e-20 -6.79279e-05)
(0.000261308 -0.000606976 -2.16606e-20 -0.000182267 -5.11095e-20 -7.90411e-05)
(0.000147841 -0.000608669 1.14478e-19 -6.01071e-05 2.14525e-19 -8.77338e-05)
(3.95046e-05 -0.000582542 4.47155e-20 5.70259e-05 6.98674e-20 -9.65305e-05)
(-4.5235e-05 -0.000531115 2.086e-19 0.000149493 1.95145e-19 -0.000104258)
(-0.000104812 -0.000464976 -1.02351e-19 0.000214395 -2.19108e-20 -0.000109583)
(-0.00014174 -0.000394884 1.5035e-19 0.000255255 1.07904e-19 -0.000113515)
(-0.000155439 -0.000328219 -2.93924e-21 0.00027128 5.83346e-22 -0.000115841)
(-0.00015296 -0.000269978 -2.1034e-19 0.000269455 -1.79193e-19 -0.000116495)
(-0.000139966 -0.000223842 2.69387e-19 0.00025639 3.26829e-19 -0.000116424)
(-0.00012045 -0.00019231 1.55578e-19 0.000235613 7.89249e-20 -0.000115163)
(-0.000100452 -0.000182341 -2.938e-20 0.000217503 1.42164e-20 -0.000117051)
(-8.18042e-05 -0.000204597 -1.45871e-19 0.000212943 2.3299e-20 -0.000131139)
(-5.84353e-05 -0.000302455 2.63037e-19 0.000237765 2.90916e-19 -0.00017933)
(1.66855e-05 -0.000647306 4.11188e-19 0.000308146 -4.80693e-19 -0.000324831)
(0.000329202 -0.0016439 -2.72888e-18 0.000315774 -3.2562e-18 -0.000644977)
(0.00122316 -0.00393411 4.76356e-19 -9.87503e-05 4.27206e-18 -0.00112441)
(0.00362698 -0.0100117 4.82902e-18 -0.00165834 -1.37316e-18 -0.00196864)
(0.00920454 -0.0249399 8.48964e-18 -0.00603309 3.72251e-18 -0.00317145)
(0.0264165 -0.0762099 -1.5705e-17 -0.0205495 -1.13023e-17 -0.00586697)
(0.0605234 -0.199889 4.24979e-17 -0.0518352 7.18806e-17 -0.00868818)
(0.1566 -0.635382 3.22548e-19 -0.141545 -5.37575e-17 -0.015055)
(0.298534 -1.56951 -1.51658e-16 -0.280636 6.31932e-17 -0.0178975)
(0.374566 -2.71305 -9.01842e-17 -0.368434 -3.04127e-16 -0.00613242)
(0.340341 -3.90431 -3.82397e-18 -0.353294 4.09332e-17 0.0129528)
(0.179175 -4.96018 -2.1039e-16 -0.205459 -2.4329e-16 0.0262838)
(-0.0900369 -5.62127 -4.16327e-16 0.0613077 -1.77895e-15 0.0287291)
(-0.388621 -5.66804 -1.87869e-16 0.368374 -2.35976e-15 0.0202461)
(-0.615866 -5.13817 4.55418e-16 0.610976 3.55518e-15 0.00489)
(-0.732563 -4.37147 -7.61382e-16 0.744627 -1.54106e-16 -0.0120638)
(-0.759342 -3.64537 -6.713e-15 0.784717 1.16207e-15 -0.0253748)
(-0.736315 -3.06159 7.67984e-15 0.766707 1.18742e-14 -0.0303917)
(-0.695374 -2.6193 -1.30275e-15 0.722822 -4.95655e-16 -0.0274482)
(0.000619767 -0.000287178 9.29057e-21 -0.00058065 1.51963e-20 -3.91168e-05)
(0.000647806 -0.000168426 -1.28688e-20 -0.000613037 -1.01193e-19 -3.47681e-05)
(0.000644357 -2.52822e-05 -2.11573e-20 -0.000619821 -7.16835e-20 -2.45361e-05)
(0.00059579 0.000128593 -9.44449e-21 -0.000581977 1.70685e-19 -1.38132e-05)
(0.000495988 0.00026483 1.20921e-20 -0.000493269 1.93587e-20 -2.71873e-06)
(0.000357012 0.000358986 4.31358e-20 -0.00036147 -1.9961e-19 4.45796e-06)
(0.000346209 -0.000267753 2.34744e-21 -0.000365866 4.24652e-21 1.96564e-05)
(0.000279556 -0.000328634 -2.9021e-20 -0.000304051 -5.7823e-20 2.4495e-05)
(0.000191106 -0.000374303 -4.92812e-21 -0.000220371 -6.12821e-21 2.92654e-05)
(9.06359e-05 -0.000394032 2.56106e-20 -0.000126689 4.53972e-20 3.60531e-05)
(-9.72469e-06 -0.000389078 -6.92917e-20 -3.19514e-05 -1.28199e-19 4.16761e-05)
(-0.000106139 -0.000357963 -7.61167e-20 5.87295e-05 -1.21457e-19 4.74093e-05)
(-0.000188713 -0.00030373 -1.58313e-19 0.00013501 -2.2497e-19 5.37028e-05)
(-0.000250549 -0.000234984 -1.10608e-20 0.000191593 -3.15857e-21 5.89563e-05)
(-0.000290887 -0.000157597 -7.68536e-20 0.000227268 -1.5928e-19 6.3619e-05)
(-0.000309673 -7.97182e-05 2.88526e-19 0.000241837 3.17863e-19 6.78364e-05)
(-0.000309669 -7.12743e-06 -4.2453e-20 0.000238745 6.2005e-20 7.09234e-05)
(-0.000295162 5.70386e-05 3.65993e-20 0.00022193 2.00922e-20 7.32327e-05)
(-0.000270783 0.000110731 -2.21781e-19 0.00019629 -2.73449e-19 7.44921e-05)
(-0.000242502 0.000153696 1.37961e-19 0.000168758 -1.1453e-20 7.37434e-05)
(-0.000214588 0.000188323 4.13295e-20 0.000142985 1.24879e-19 7.1603e-05)
(-0.000188177 0.000213899 5.35201e-20 0.000120413 2.39291e-20 6.77642e-05)
(-0.000155935 0.000220143 -2.47466e-19 9.66168e-05 -1.42321e-19 5.93178e-05)
(-0.000129757 0.000221486 2.15729e-19 7.87655e-05 1.62463e-19 5.09916e-05)
(-8.68142e-05 0.00017593 5.27752e-20 5.24474e-05 -8.56548e-22 3.43667e-05)
(-0.000393705 0.00092603 -1.13672e-18 0.000242434 -1.62e-19 0.000151271)
(-0.000828105 0.00222787 2.88391e-18 0.00053067 -1.18078e-18 0.000297435)
(-0.000418671 0.00129001 3.9215e-20 0.000283329 7.83696e-19 0.000135342)
(-0.000390246 0.00150497 5.50626e-19 0.000273861 -8.67487e-19 0.000116385)
(-2.03786e-05 0.000220963 -2.10215e-19 8.71546e-06 -2.25396e-19 1.16631e-05)
(0.000797709 -0.00109633 1.13051e-18 -0.000743903 2.89045e-18 -5.38064e-05)
(0.00481176 -0.0174042 -8.25649e-18 -0.0042705 1.35932e-18 -0.000541265)
(0.0120808 -0.0752412 5.3452e-18 -0.0105475 2.26157e-19 -0.00153329)
(0.0200843 -0.233651 -3.85764e-18 -0.0171009 2.92393e-17 -0.0029834)
(0.0180144 -0.596925 -2.07432e-16 -0.0136102 1.04178e-16 -0.00440417)
(-0.0207786 -1.24593 8.36593e-17 0.0253239 1.73393e-16 -0.00454534)
(-0.128469 -2.10194 9.82591e-16 0.130507 -3.34413e-16 -0.00203807)
(-0.302503 -2.86994 -1.81942e-15 0.299369 1.4435e-15 0.003134)
(-0.483827 -3.25358 5.09229e-16 0.475448 6.39715e-15 0.00837928)
(-0.603112 -3.21371 -8.1993e-17 0.593978 -4.5788e-15 0.0091343)
(-0.642828 -2.93021 2.51493e-15 0.637106 -1.91599e-15 0.00572254)
(0.000398366 -0.00019182 -4.84964e-21 -0.000415806 -9.02496e-21 1.74398e-05)
(0.000430215 -0.000111353 -1.37068e-20 -0.000443415 -6.6944e-21 1.31999e-05)
(0.0004449 -1.39384e-05 7.02907e-20 -0.000454745 1.13251e-19 9.84498e-06)
(0.000430705 8.80378e-05 8.75293e-21 -0.000436233 -3.78606e-20 5.52835e-06)
(0.000382507 0.000185094 6.34315e-21 -0.000384724 -8.57411e-20 2.21658e-06)
(0.000302463 0.000259792 -2.88556e-20 -0.000302155 8.66577e-20 -3.07874e-07)
(0.00030106 -0.000220573 8.87233e-21 -0.000294747 1.35942e-20 -6.3125e-06)
(0.000259551 -0.000269195 -1.15401e-20 -0.000252372 -2.04209e-20 -7.17873e-06)
(0.00020229 -0.000312279 -5.52871e-21 -0.000192679 -6.55816e-21 -9.61054e-06)
(0.00013668 -0.000341881 6.5117e-20 -0.000124752 9.29834e-20 -1.19281e-05)
(6.76604e-05 -0.00035437 4.44592e-20 -5.31321e-05 7.48599e-20 -1.45284e-05)
(-2.32903e-06 -0.000349591 5.96678e-20 1.99384e-05 9.91989e-20 -1.76094e-05)
(-6.61488e-05 -0.000328843 8.53173e-20 8.69637e-05 9.57033e-20 -2.0815e-05)
(-0.000118888 -0.000294831 -4.62162e-20 0.000142961 -6.90876e-20 -2.40733e-05)
(-0.000158835 -0.000251784 -1.73091e-19 0.000186442 -1.67281e-19 -2.76074e-05)
(-0.000184393 -0.000204784 2.16326e-19 0.000215237 1.23105e-19 -3.08435e-05)
(-0.000196546 -0.000157728 1.87091e-19 0.000230514 1.56297e-19 -3.39678e-05)
(-0.000197426 -0.000113846 2.43807e-19 0.000234236 1.18227e-19 -3.681e-05)
(-0.000189338 -7.53724e-05 -3.93008e-19 0.000228634 -1.29089e-19 -3.92966e-05)
(-0.000174571 -4.30464e-05 -3.44142e-19 0.000215576 -2.27085e-19 -4.10045e-05)
(-0.000155519 -1.74527e-05 4.47676e-19 0.000197398 1.41482e-19 -4.18796e-05)
(-0.000133602 2.04762e-06 9.34119e-20 0.000175389 5.5345e-20 -4.1787e-05)
(-0.000109786 1.84265e-05 -6.78658e-20 0.00014945 7.07138e-21 -3.96632e-05)
(-8.65604e-05 3.16102e-05 -2.26318e-19 0.000123007 -1.46871e-19 -3.64469e-05)
(-6.34331e-05 4.18846e-05 5.48331e-20 9.42429e-05 -2.10815e-20 -3.08098e-05)
(-4.2781e-05 4.78817e-05 2.30988e-19 6.59519e-05 7.12504e-20 -2.31708e-05)
(-2.71813e-05 4.93629e-05 -2.71812e-19 4.20777e-05 -7.79146e-20 -1.48964e-05)
(-2.72093e-05 7.32295e-05 1.63668e-19 4.03729e-05 2.14752e-20 -1.31635e-05)
(-2.85657e-05 0.000109192 -5.67238e-20 4.00468e-05 -1.26092e-20 -1.14811e-05)
(-1.56725e-05 9.49124e-05 -8.70189e-20 2.19347e-05 4.44325e-20 -6.26225e-06)
(-8.02402e-05 0.00114081 6.34684e-19 0.000136221 -2.07743e-19 -5.59805e-05)
(7.64762e-05 0.00457207 -2.16807e-18 0.000119489 2.94793e-18 -0.000195965)
(0.000958543 0.0103823 7.41156e-20 -0.00054736 -1.1906e-19 -0.000411182)
(0.000196485 0.00117323 3.89641e-19 -0.000152283 -1.40724e-19 -4.42019e-05)
(0.00121297 0.00408176 1.77749e-18 -0.00104004 4.01252e-18 -0.000172924)
(0.00433454 0.00303614 5.80665e-18 -0.0038784 -3.39075e-17 -0.000456147)
(0.00953096 -0.0413046 -2.46073e-17 -0.0085511 -1.32446e-16 -0.000979855)
(0.00312042 -0.240921 8.91612e-16 -0.00161808 2.27576e-16 -0.00150235)
(-0.0485538 -0.703607 1.59014e-15 0.0499911 3.55449e-16 -0.00143731)
(-0.168949 -1.35894 -1.09019e-15 0.169139 -1.38021e-15 -0.000189539)
(-0.327042 -1.93912 -4.96081e-15 0.324677 1.03337e-15 0.00236509)
(0.000331376 -0.000161407 -1.46257e-20 -0.000327666 -2.65795e-20 -3.70959e-06)
(0.000348808 -9.98454e-05 -7.01137e-21 -0.000345802 2.74403e-20 -3.00598e-06)
(0.000352319 -2.52372e-05 4.74845e-20 -0.000351734 7.50496e-20 -5.85152e-07)
(0.000337981 5.23147e-05 -2.73983e-20 -0.000338209 6.05261e-21 2.28126e-07)
(0.000301856 0.000126068 1.61832e-20 -0.000302389 1.04444e-19 5.32566e-07)
(0.000224967 -0.000168162 -1.36435e-20 -0.000226869 -1.74149e-20 1.9026e-06)
(0.000191231 -0.000204413 2.26784e-21 -0.000194216 2.41124e-21 2.98518e-06)
(0.000146461 -0.000235909 1.65482e-20 -0.000149835 1.87032e-20 3.37487e-06)
(9.44969e-05 -0.000256778 -9.76728e-20 -9.88864e-05 -1.23351e-19 4.3895e-06)
(3.91902e-05 -0.000264839 -7.17319e-20 -4.47616e-05 -8.27446e-20 5.57138e-06)
(-1.73951e-05 -0.000259347 1.63356e-19 1.07278e-05 1.84545e-19 6.66727e-06)
(-7.01801e-05 -0.000240554 -1.70888e-19 6.20473e-05 -1.99832e-19 8.13275e-06)
(-0.000115295 -0.000210322 -7.45362e-20 0.000105559 -5.26442e-20 9.73621e-06)
(-0.000150436 -0.000171371 -1.82246e-19 0.000139086 -1.34827e-19 1.13497e-05)
(-0.000174044 -0.000127547 -3.66464e-20 0.00016084 -6.07153e-20 1.32034e-05)
(-0.000186025 -8.21795e-05 2.34204e-20 0.000170963 -7.10645e-21 1.5062e-05)
(-0.000187319 -3.82906e-05 -1.30656e-19 0.000170376 -1.62649e-19 1.6943e-05)
(-0.000179526 1.76393e-06 4.09254e-19 0.000160663 2.75552e-19 1.88629e-05)
(-0.00016465 3.63885e-05 -1.31126e-19 0.00014392 -2.22624e-20 2.07298e-05)
(-0.000144736 6.46492e-05 -3.31133e-19 0.000122355 -1.44466e-19 2.23805e-05)
(-0.00012204 8.67577e-05 2.17359e-19 9.81619e-05 5.28506e-21 2.38776e-05)
(-9.85817e-05 0.000101643 -1.59368e-19 7.43998e-05 -9.04591e-20 2.41818e-05)
(-7.56942e-05 0.000109412 2.01034e-21 5.24341e-05 1.16427e-19 2.32601e-05)
(-5.39803e-05 0.00011116 -3.85771e-20 3.25247e-05 -3.0112e-20 2.14556e-05)
(-3.4064e-05 0.000107528 -2.75608e-19 1.50495e-05 -1.89059e-19 1.90145e-05)
(-1.59475e-05 9.36465e-05 1.98704e-19 9.28732e-07 1.93953e-19 1.50187e-05)
(-3.11971e-06 6.82029e-05 4.42378e-21 -6.45337e-06 -1.22507e-19 9.57309e-06)
(2.74396e-06 5.35711e-05 3.77106e-20 -8.92344e-06 1.1598e-20 6.17948e-06)
(6.75426e-06 5.40581e-05 1.05465e-19 -1.16784e-05 -4.86702e-21 4.92418e-06)
(1.05782e-05 5.60998e-05 -3.57052e-20 -1.46441e-05 -1.17998e-20 4.06594e-06)
(1.3695e-05 5.72474e-05 1.19929e-19 -1.69864e-05 1.96694e-20 3.29148e-06)
(1.5413e-05 5.81925e-05 -6.74151e-21 -1.79598e-05 2.03031e-22 2.54675e-06)
(2.49915e-05 9.33697e-05 -2.05866e-20 -2.78849e-05 -1.34276e-20 2.89347e-06)
(0.000360043 0.00135429 -1.65763e-20 -0.000386844 4.54182e-19 2.6801e-05)
(0.00149838 0.00545247 -1.77427e-17 -0.00155675 1.44748e-18 5.83665e-05)
(0.000975506 0.0032006 -3.38007e-18 -0.000988667 5.96152e-19 1.31609e-05)
(0.00307221 0.00801837 5.84904e-18 -0.00307012 -3.69055e-17 -2.08829e-06)
(0.010527 0.0139081 1.42192e-16 -0.0104398 -1.87024e-16 -8.72379e-05)
(0.0185835 -0.0474878 -1.05516e-15 -0.0181541 5.25209e-17 -0.000429439)
(-0.0102988 -0.338834 2.29997e-15 0.0112312 9.06656e-16 -0.000932397)
(0.000250443 -0.00012493 9.12258e-21 -0.000252511 8.75817e-22 2.06866e-06)
(0.000266757 -7.9438e-05 -3.26094e-20 -0.000267787 -3.79991e-20 1.03015e-06)
(0.000273188 -2.44692e-05 7.10671e-22 -0.0002744 1.92903e-20 1.21217e-06)
(0.000265886 3.3709e-05 2.17516e-20 -0.000266439 -6.77122e-20 5.52917e-07)
(0.00024207 9.02496e-05 -1.54862e-19 -0.000242178 -1.86966e-19 1.08042e-07)
(0.000183479 -0.000137571 1.2221e-20 -0.000182826 1.24521e-20 -6.52449e-07)
(0.000158597 -0.000166719 -2.96598e-20 -0.000158064 -3.10806e-20 -5.33573e-07)
(0.000125023 -0.000193028 -1.7939e-21 -0.000124041 -5.45763e-21 -9.82184e-07)
(8.58298e-05 -0.0002122 -1.02661e-20 -8.45723e-05 -8.56244e-21 -1.25748e-06)
(4.36671e-05 -0.000222243 9.42824e-20 -4.21401e-05 1.01623e-19 -1.52709e-06)
(-5.1458e-07 -0.000222637 7.09347e-20 2.59776e-06 5.95761e-20 -2.08318e-06)
(-4.29161e-05 -0.000213152 3.30465e-21 4.55234e-05 2.53943e-20 -2.60732e-06)
(-8.0636e-05 -0.000194687 1.8e-19 8.38732e-05 1.67183e-19 -3.23723e-06)
(-0.000111909 -0.000168887 -2.00016e-20 0.000115974 -1.28199e-21 -4.06506e-06)
(-0.000135056 -0.000138297 -6.11394e-20 0.000139989 -2.96104e-20 -4.93373e-06)
(-0.000149562 -0.000105299 1.20028e-19 0.000155493 4.61939e-20 -5.9316e-06)
(-0.000155762 -7.21769e-05 -1.59215e-19 0.000162796 -6.23916e-20 -7.03462e-06)
(-0.000154522 -4.10227e-05 -2.90437e-19 0.000162703 -2.20515e-19 -8.18063e-06)
(-0.000147105 -1.33013e-05 -1.22598e-19 0.000156533 2.56353e-20 -9.42787e-06)
(-0.000135047 1.00569e-05 5.21798e-19 0.000145787 2.33355e-19 -1.074e-05)
(-0.000119925 2.8528e-05 -3.74535e-19 0.000132013 -1.68614e-19 -1.20882e-05)
(-0.00010259 4.2155e-05 -9.10727e-20 0.000115837 7.58552e-20 -1.32473e-05)
(-8.36642e-05 5.17503e-05 1.69664e-19 9.71461e-05 1.08839e-19 -1.34819e-05)
(-6.44911e-05 5.77116e-05 -1.06867e-19 7.73887e-05 -2.95514e-22 -1.28976e-05)
(-4.62993e-05 6.03483e-05 -3.50575e-20 5.79472e-05 8.81424e-20 -1.1648e-05)
(-2.99401e-05 6.04401e-05 4.83941e-20 3.99031e-05 -3.24159e-20 -9.96299e-06)
(-1.55984e-05 5.77134e-05 -3.58846e-19 2.35891e-05 3.81826e-20 -7.99071e-06)
(-3.28637e-06 4.97874e-05 3.79648e-21 8.87825e-06 -5.42353e-20 -5.59188e-06)
(5.0873e-06 3.83208e-05 -1.89272e-19 -1.74137e-06 1.97995e-20 -3.34593e-06)
(9.4787e-06 2.88806e-05 4.29028e-20 -7.4473e-06 1.25916e-20 -2.03139e-06)
(1.21134e-05 2.37429e-05 -1.22534e-20 -1.05666e-05 -5.35164e-20 -1.54681e-06)
(1.34584e-05 2.09067e-05 -2.65183e-21 -1.21211e-05 -2.77858e-22 -1.33732e-06)
(1.36164e-05 1.98521e-05 6.22079e-21 -1.25113e-05 2.81894e-22 -1.10509e-06)
(1.35616e-05 2.10705e-05 6.36057e-20 -1.27363e-05 -2.17902e-20 -8.25292e-07)
(1.38574e-05 2.448e-05 4.9338e-20 -1.32795e-05 8.52467e-20 -5.77875e-07)
(0.000163647 0.000332241 -1.83412e-19 -0.000158937 3.7466e-19 -4.71067e-06)
(0.000663589 0.00149618 -7.7134e-18 -0.000649419 2.50349e-18 -1.41696e-05)
(0.00306457 0.00711629 -4.64463e-17 -0.00301791 -3.31595e-17 -4.66532e-05)
(0.00166092 0.00348366 -9.35165e-18 -0.00164549 1.21236e-17 -1.5437e-05)
(0.0125 0.0162841 1.39861e-16 -0.0124619 -1.78398e-16 -3.80878e-05)
(0.000202189 -0.000103386 -1.33293e-20 -0.000202205 -1.7454e-20 1.55344e-08)
(0.000214109 -6.76751e-05 6.54496e-21 -0.000213913 3.93905e-21 -1.96299e-07)
(0.000219004 -2.47044e-05 1.20478e-20 -0.000219423 7.82546e-21 4.18524e-07)
(0.000213973 2.08101e-05 -7.27925e-21 -0.000214081 -4.90828e-20 1.07756e-07)
(0.000147653 -0.000112468 -6.17668e-21 -0.000147742 -4.73689e-21 8.85564e-08)
(0.000127639 -0.000135657 7.27228e-22 -0.00012805 -2.60812e-21 4.10961e-07)
(0.000100835 -0.000156756 4.07162e-20 -0.000101179 4.04031e-20 3.44033e-07)
(6.94991e-05 -0.000172307 2.17364e-21 -6.99786e-05 2.97694e-21 4.79509e-07)
(3.56496e-05 -0.000180854 -1.40696e-19 -3.63183e-05 -1.36995e-19 6.68708e-07)
(-1.4851e-07 -0.000181849 3.24717e-20 -6.35983e-07 3.19664e-20 7.84494e-07)
(-3.50629e-05 -0.000174891 3.15231e-20 3.40551e-05 2.00442e-20 1.00773e-06)
(-6.67988e-05 -0.000160487 -7.43007e-20 6.55067e-05 -9.5991e-20 1.29214e-06)
(-9.3861e-05 -0.000139642 -1.06138e-19 9.23027e-05 -6.30262e-20 1.55826e-06)
(-0.000114704 -0.000114121 4.30308e-20 0.000112774 5.08931e-20 1.93057e-06)
(-0.000128643 -8.57002e-05 -2.43396e-19 0.000126287 -1.92923e-19 2.3552e-06)
(-0.00013554 -5.62076e-05 1.56829e-19 0.000132714 9.83069e-20 2.82624e-06)
(-0.000135752 -2.74971e-05 3.24438e-19 0.000132367 1.81366e-19 3.3854e-06)
(-0.000130055 -9.33874e-07 4.24763e-19 0.000126048 1.59892e-19 4.00723e-06)
(-0.000119521 2.23876e-05 -5.66128e-19 0.000114816 -4.10328e-19 4.70517e-06)
(-0.000105319 4.17037e-05 3.00951e-19 9.98119e-05 2.24464e-19 5.50693e-06)
(-8.86523e-05 5.69193e-05 3.25055e-19 8.22023e-05 7.57753e-20 6.44998e-06)
(-7.10688e-05 6.74258e-05 2.08611e-19 6.40357e-05 -4.52665e-20 7.03305e-06)
(-5.36384e-05 7.31668e-05 1.06245e-19 4.66326e-05 5.555e-20 7.00578e-06)
(-3.72591e-05 7.44946e-05 -1.38894e-20 3.07698e-05 7.73426e-20 6.48922e-06)
(-2.27019e-05 7.22098e-05 1.05776e-19 1.71313e-05 -1.79132e-20 5.57067e-06)
(-1.04855e-05 6.7579e-05 3.50518e-19 6.02313e-06 1.45279e-19 4.46236e-06)
(-2.54309e-07 6.21204e-05 -1.48871e-19 -3.11489e-06 -1.89637e-20 3.3692e-06)
(8.66782e-06 5.42638e-05 3.94171e-19 -1.11114e-05 9.09211e-20 2.44362e-06)
(1.5707e-05 4.41606e-05 -6.23933e-20 -1.74967e-05 2.52566e-21 1.78972e-06)
(1.86049e-05 3.11206e-05 -2.20888e-20 -1.98266e-05 1.52699e-20 1.22163e-06)
(1.75909e-05 1.96208e-05 5.58525e-21 -1.84029e-05 2.41291e-21 8.12049e-07)
(1.50359e-05 1.19616e-05 -1.77272e-20 -1.56244e-05 7.48659e-21 5.88509e-07)
(1.38714e-05 8.31253e-06 -4.09768e-20 -1.43873e-05 -2.35186e-20 5.15908e-07)
(1.32594e-05 6.55081e-06 -3.99808e-21 -1.37176e-05 2.78983e-20 4.58105e-07)
(1.28094e-05 6.39122e-06 2.27592e-21 -1.3185e-05 -2.00945e-20 3.75571e-07)
(1.26761e-05 8.28639e-06 1.47902e-19 -1.29597e-05 1.19272e-19 2.83591e-07)
(1.30585e-05 1.26893e-05 -2.39097e-19 -1.32441e-05 2.28305e-19 1.85613e-07)
(0.000321978 0.000437875 -1.83777e-18 -0.000323621 1.15664e-18 1.64304e-06)
(0.00324811 0.0052846 -4.58231e-17 -0.00325649 8.75593e-19 8.37982e-06)
(0.000162834 -8.55395e-05 2.00515e-21 -0.000163207 7.1131e-21 3.73013e-07)
(0.000172798 -5.73949e-05 2.86254e-20 -0.000172857 2.03061e-20 5.88704e-08)
(0.000177481 -2.35289e-05 -2.95014e-20 -0.000177896 -4.73766e-21 4.14834e-07)
(0.000174429 1.25823e-05 7.23105e-20 -0.000174475 5.52185e-20 4.5695e-08)
(0.000121376 -9.39448e-05 -3.02116e-22 -0.000121266 -8.76748e-22 -1.0979e-07)
(0.000105347 -0.000112912 -2.26534e-21 -0.000105389 -1.23004e-21 4.23325e-08)
(8.39073e-05 -0.000130362 -6.1443e-21 -8.38232e-05 -3.70436e-21 -8.41009e-08)
(5.87767e-05 -0.000143581 -2.79925e-20 -5.86768e-05 -2.58869e-20 -9.98424e-08)
(3.15659e-05 -0.000151448 3.64899e-20 -3.14533e-05 3.42449e-20 -1.12524e-07)
(2.50024e-06 -0.000153504 1.87174e-19 -2.30829e-06 1.50313e-19 -1.91956e-07)
(-2.6222e-05 -0.000149344 -1.1726e-20 2.64654e-05 -2.51954e-20 -2.43415e-07)
(-5.28255e-05 -0.000139234 -8.36027e-20 5.31394e-05 -6.62667e-20 -3.13877e-07)
(-7.62081e-05 -0.00012379 2.17186e-19 7.6655e-05 1.87123e-19 -4.46857e-07)
(-9.50204e-05 -0.000104259 8.81485e-20 9.55918e-05 5.48074e-20 -5.71341e-07)
(-0.000108541 -8.19195e-05 -6.64175e-20 0.000109291 -1.22638e-20 -7.50219e-07)
(-0.000116526 -5.81416e-05 -2.58184e-19 0.000117501 -1.24645e-19 -9.75346e-07)
(-0.000119037 -3.44122e-05 -4.94916e-19 0.000120259 -3.6236e-19 -1.22162e-06)
(-0.00011651 -1.19344e-05 -5.72604e-19 0.000118035 -3.32192e-19 -1.52489e-06)
(-0.000109677 8.25494e-06 -3.24268e-20 0.000111562 1.21835e-19 -1.88474e-06)
(-9.94608e-05 2.53916e-05 2.8615e-20 0.000101747 -5.79672e-20 -2.28573e-06)
(-8.68541e-05 3.9008e-05 -4.27153e-19 8.96503e-05 -1.91951e-19 -2.79615e-06)
(-7.26581e-05 4.88932e-05 -2.80174e-19 7.59106e-05 -1.18155e-19 -3.25252e-06)
(-5.75709e-05 5.52809e-05 7.06551e-20 6.10135e-05 6.26754e-21 -3.44256e-06)
(-4.261e-05 5.84196e-05 2.95871e-19 4.59205e-05 3.75692e-20 -3.31051e-06)
(-2.85964e-05 5.87969e-05 -1.24102e-19 3.15112e-05 -5.07499e-20 -2.91482e-06)
(-1.62131e-05 5.69727e-05 -7.69179e-20 1.8579e-05 -1.44995e-19 -2.36586e-06)
(-5.58864e-06 5.37594e-05 1.46567e-20 7.37494e-06 5.40477e-21 -1.78631e-06)
(3.61417e-06 4.95923e-05 -1.33751e-19 -2.37149e-06 -1.2883e-19 -1.24268e-06)
(1.14885e-05 4.39204e-05 9.54865e-20 -1.06613e-05 2.02302e-20 -8.27282e-07)
(1.75655e-05 3.70306e-05 3.20176e-20 -1.69351e-05 -2.276e-20 -6.30363e-07)
(2.05303e-05 2.85219e-05 1.38939e-21 -1.99908e-05 -9.29964e-21 -5.39479e-07)
(2.04685e-05 2.02006e-05 3.5511e-20 -2.00395e-05 1.06369e-20 -4.28942e-07)
(1.76684e-05 1.25068e-05 2.03703e-20 -1.73971e-05 1.47981e-20 -2.71305e-07)
(1.46095e-05 6.94435e-06 1.46859e-19 -1.44552e-05 7.79245e-21 -1.5436e-07)
(1.15054e-05 3.07385e-06 -5.06515e-20 -1.14188e-05 5.75678e-20 -8.65273e-08)
(1.09687e-05 1.06646e-06 1.26604e-19 -1.09167e-05 -1.70468e-19 -5.19708e-08)
(1.05478e-05 2.14081e-07 3.026e-19 -1.05349e-05 1.87565e-19 -1.29613e-08)
(1.05268e-05 1.36111e-06 -9.57649e-21 -1.0529e-05 1.47658e-19 2.18866e-09)
(1.11275e-05 5.54192e-06 1.21672e-19 -1.1142e-05 -5.29943e-20 1.4464e-08)
(0.000133574 -7.22009e-05 -4.81541e-21 -0.000133714 -7.2231e-21 1.39872e-07)
(0.000141718 -4.94844e-05 -1.56146e-20 -0.000141683 -7.92995e-21 -3.50097e-08)
(0.000145889 -2.22248e-05 2.51621e-20 -0.00014617 4.72078e-21 2.80883e-07)
(0.000144008 7.02054e-06 -1.0509e-19 -0.000143987 -6.54784e-20 -2.05549e-08)
(0.000100391 -7.92206e-05 -9.2395e-21 -0.000100348 -5.22826e-21 -4.34759e-08)
(8.7197e-05 -9.48112e-05 -2.87935e-20 -8.72917e-05 -2.34055e-20 9.46705e-08)
(6.96393e-05 -0.00010926 -6.00433e-21 -6.96844e-05 -8.4088e-21 4.5155e-08)
(4.9023e-05 -0.000120331 9.86648e-20 -4.90804e-05 7.95366e-20 5.74431e-08)
(2.67191e-05 -0.000127133 -6.43443e-20 -2.68102e-05 -5.12087e-20 9.11127e-08)
(2.73286e-06 -0.000129355 -6.96388e-20 -2.82197e-06 -6.521e-20 8.91092e-08)
(-2.1176e-05 -0.00012655 -1.64655e-19 2.10496e-05 -1.16126e-19 1.26473e-07)
(-4.36237e-05 -0.000118865 -1.15592e-19 4.3445e-05 -7.8032e-20 1.78748e-07)
(-6.37277e-05 -0.000106688 1.23881e-19 6.35311e-05 7.84166e-20 1.96562e-07)
(-8.0344e-05 -9.08984e-05 3.31072e-20 8.00802e-05 3.92504e-22 2.63859e-07)
(-9.28212e-05 -7.24157e-05 5.25702e-20 9.24926e-05 5.64908e-20 3.28584e-07)
(-0.000100802 -5.22716e-05 4.90321e-19 0.000100405 2.89094e-19 3.97024e-07)
(-0.000104157 -3.1668e-05 -1.64089e-19 0.000103655 -2.01642e-20 5.01649e-07)
(-0.000103075 -1.16299e-05 3.69779e-19 0.000102461 3.03922e-19 6.14517e-07)
(-9.80116e-05 6.90992e-06 5.22617e-20 9.72584e-05 3.73506e-20 7.53188e-07)
(-8.96059e-05 2.3157e-05 -8.75165e-20 8.86702e-05 -4.12712e-20 9.35706e-07)
(-7.85831e-05 3.65872e-05 2.61743e-19 7.74284e-05 1.74383e-19 1.15474e-06)
(-6.5827e-05 4.69069e-05 1.00498e-19 6.43723e-05 7.23291e-20 1.45467e-06)
(-5.22561e-05 5.38387e-05 4.82577e-20 5.0661e-05 -2.39057e-20 1.59512e-06)
(-3.87607e-05 5.7418e-05 -1.74611e-19 3.71882e-05 -1.50471e-19 1.57245e-06)
(-2.60777e-05 5.80107e-05 -2.04997e-21 2.46939e-05 4.09669e-21 1.38375e-06)
(-1.47874e-05 5.6215e-05 -9.78238e-20 1.36771e-05 4.12485e-21 1.11033e-06)
(-5.03015e-06 5.27775e-05 -1.43876e-19 4.21784e-06 -7.03883e-21 8.12317e-07)
(3.34894e-06 4.82055e-05 3.77958e-20 -3.93602e-06 4.84563e-20 5.87085e-07)
(1.03834e-05 4.25135e-05 -6.34174e-21 -1.083e-05 -3.9972e-20 4.46636e-07)
(1.57292e-05 3.59737e-05 -1.11311e-19 -1.6034e-05 3.75736e-21 3.04737e-07)
(1.89861e-05 2.91976e-05 -1.08152e-20 -1.91446e-05 3.94376e-21 1.58516e-07)
(2.0401e-05 2.30553e-05 3.39331e-21 -2.04736e-05 -8.13485e-21 7.25534e-08)
(2.07304e-05 1.78248e-05 -2.3893e-20 -2.07818e-05 4.17944e-21 5.1375e-08)
(2.02602e-05 1.29964e-05 3.13212e-20 -2.03055e-05 -1.58025e-19 4.52501e-08)
(1.7113e-05 7.48515e-06 1.91087e-19 -1.71317e-05 -3.7014e-20 1.87606e-08)
(1.35246e-05 3.11088e-06 -3.36704e-19 -1.35229e-05 -1.45647e-20 -1.72261e-09)
(1.0166e-05 1.28759e-07 3.08192e-19 -1.01639e-05 -1.71076e-19 -2.07123e-09)
(9.60476e-06 -1.89598e-06 3.00469e-19 -9.60179e-06 -4.16485e-21 -2.96587e-09)
(9.22536e-06 -2.86781e-06 -3.56961e-19 -9.24744e-06 5.29797e-20 2.20883e-08)
(0.000110495 -6.14838e-05 6.36878e-21 -0.00011062 8.57814e-21 1.25791e-07)
(0.000117354 -4.29471e-05 4.66663e-20 -0.000117334 2.62948e-20 -2.02521e-08)
(0.000121145 -2.07163e-05 -3.04973e-20 -0.000121366 -3.35381e-20 2.20534e-07)
(2.27247e-05 -0.000107882 4.44992e-20 -2.27346e-05 3.12016e-20 9.92908e-09)
(2.74898e-06 -0.000110132 5.76394e-20 -2.73051e-06 4.35956e-20 -1.84678e-08)
(-1.7263e-05 -0.000108327 2.46014e-19 1.72653e-05 1.77026e-19 -2.25747e-09)
(-3.62602e-05 -0.000102547 -4.02572e-20 3.62679e-05 -2.85292e-20 -7.67813e-09)
(-5.35405e-05 -9.30281e-05 8.44639e-20 5.35743e-05 4.03432e-20 -3.38125e-08)
(-6.8172e-05 -8.04047e-05 -1.67003e-19 6.82115e-05 -9.38898e-20 -3.95262e-08)
(-7.95632e-05 -6.53556e-05 1.25124e-19 7.96234e-05 6.67746e-20 -6.01327e-08)
(-8.73592e-05 -4.86651e-05 -3.12761e-19 8.74586e-05 -2.31123e-19 -9.93908e-08)
(-9.13657e-05 -3.12589e-05 9.22518e-21 9.1499e-05 3.00418e-20 -1.33327e-07)
(-9.16287e-05 -1.39761e-05 4.75827e-20 9.18101e-05 -2.44076e-20 -1.81376e-07)
(-8.83984e-05 2.3412e-06 8.21001e-20 8.86453e-05 1.68049e-20 -2.46915e-07)
(-8.21229e-05 1.69625e-05 1.45434e-20 8.24448e-05 1.15308e-20 -3.21875e-07)
(-7.33867e-05 2.93599e-05 -1.00375e-19 7.38061e-05 -8.97614e-20 -4.19422e-07)
(-6.29058e-05 3.9098e-05 -1.9337e-19 6.34408e-05 -6.02763e-20 -5.34969e-07)
(-5.12794e-05 4.60286e-05 -1.66916e-19 5.19104e-05 -4.74661e-20 -6.31072e-07)
(-3.92513e-05 5.01312e-05 -1.2157e-19 3.99187e-05 3.38465e-20 -6.67391e-07)
(-2.7523e-05 5.16876e-05 -7.71527e-20 2.81491e-05 -7.5774e-21 -6.26074e-07)
(-1.67227e-05 5.1067e-05 -8.35153e-21 1.72398e-05 3.59427e-20 -5.17136e-07)
(-7.12887e-06 4.87707e-05 9.42956e-20 7.52193e-06 5.88644e-20 -3.93059e-07)
(1.20722e-06 4.51424e-05 -6.67917e-21 -9.5424e-07 -3.70291e-20 -2.52975e-07)
(8.19053e-06 4.02473e-05 -5.09856e-20 -8.0616e-06 -7.67453e-21 -1.28931e-07)
(1.34746e-05 3.4285e-05 8.8217e-20 -1.33912e-05 2.57538e-20 -8.34056e-08)
(1.67501e-05 2.80038e-05 1.16521e-20 -1.66593e-05 4.18021e-21 -9.0824e-08)
(1.82704e-05 2.23116e-05 1.37164e-20 -1.81869e-05 -1.4017e-20 -8.35866e-08)
(1.88382e-05 1.76655e-05 9.53879e-21 -1.87933e-05 -4.55929e-21 -4.49311e-08)
(1.90652e-05 1.38347e-05 -2.28059e-19 -1.9059e-05 7.6254e-20 -6.1898e-09)
(1.92058e-05 1.04538e-05 -1.9577e-19 -1.92113e-05 -5.61856e-20 5.57604e-09)
(1.86637e-05 6.97147e-06 1.46956e-19 -1.86642e-05 3.01059e-19 5.12042e-10)
(1.48119e-05 2.9017e-06 -2.11805e-19 -1.48144e-05 -2.55959e-19 2.51132e-09)
(9.95599e-06 -1.14247e-07 4.43306e-20 -9.95196e-06 -1.20992e-19 -4.03058e-09)