/*--------------------------------*- C++ -*----------------------------------*\
| =========                 |                                                 |
| \\      /  F ield         | OpenFOAM: The Open Source CFD Toolbox           |
|  \\    /   O peration     | Version:  2306                                  |
|   \\  /    A nd           | Website:  www.openfoam.com                      |
|    \\/     M anipulation  |                                                 |
\*---------------------------------------------------------------------------*/
FoamFile
{
    version     2.0;
    format      ascii;
    arch        "LSB;label=32;scalar=64";
    class       volScalarField;
    location    "125";
    object      turbulenceProperties:nuEff;
}
// * * * * * * * * * * * * * * * * * * * * * * * * * * * * * * * * * * * * * //

dimensions      [0 2 -1 0 0 0 0];

internalField   nonuniform List<scalar> 
1340
(
3.13316e-05
3.4464e-05
3.8679e-05
4.41774e-05
5.1353e-05
6.07139e-05
7.29655e-05
8.84913e-05
0.000108201
0.000132952
0.000164154
0.000204555
0.000258459
0.000332078
0.00043612
0.000589988
0.000823924
0.00120635
0.00182708
0.00302211
0.00504392
0.0102084
0.0194511
0.0521624
0.0918972
0.106941
0.108356
0.108539
0.109732
0.110621
0.110072
0.107955
0.104747
0.100688
0.0956588
2.86518e-05
2.63329e-05
2.40727e-05
2.1996e-05
2.00776e-05
1.84215e-05
1.72989e-05
1.52681e-05
1.51659e-05
1.50708e-05
1.49873e-05
1.4891e-05
1.47985e-05
1.47213e-05
1.46462e-05
1.45936e-05
1.4565e-05
1.45584e-05
1.46073e-05
1.47373e-05
1.55657e-05
1.83105e-05
2.64581e-05
5.0744e-05
0.000107538
0.000203821
0.000399205
0.000754555
0.00176369
0.00363669
0.00971189
0.0223171
0.0392139
0.0606187
0.0854784
0.110175
0.129156
0.139255
0.142458
0.142156
0.140095
0.136946
1.53501e-05
1.54586e-05
1.55526e-05
1.56751e-05
1.57942e-05
1.59054e-05
1.62305e-05
1.62458e-05
1.62613e-05
1.6278e-05
1.62987e-05
1.63215e-05
1.6347e-05
1.63764e-05
1.64105e-05
1.64498e-05
1.64963e-05
1.65511e-05
1.66179e-05
1.66937e-05
1.68155e-05
1.68445e-05
1.59349e-05
1.51462e-05
1.16185e-05
6.08274e-05
0.000152415
0.000100284
0.000158465
5.14391e-05
0.000611245
0.00228579
0.00580469
0.0131074
0.0271127
0.049677
0.07898
0.109
0.132946
0.148453
0.157597
1.62169e-05
1.62005e-05
1.61852e-05
1.61679e-05
1.61516e-05
1.61412e-05
1.60976e-05
1.60975e-05
1.6099e-05
1.61009e-05
1.61024e-05
1.61048e-05
1.61085e-05
1.61133e-05
1.61209e-05
1.61313e-05
1.61454e-05
1.61642e-05
1.61888e-05
1.6221e-05
1.62606e-05
1.63219e-05
1.63455e-05
1.63197e-05
1.55245e-05
1.35834e-05
1.06431e-05
1.19413e-05
1.38005e-05
1.0161e-05
0.000116671
0.000492017
0.00126697
0.000179175
0.000985036
0.00378305
0.0122986
0.0309415
0.0603938
0.0956381
0.12819
1.60961e-05
1.60988e-05
1.60975e-05
1.60992e-05
1.60984e-05
1.61176e-05
1.61186e-05
1.61203e-05
1.61215e-05
1.61219e-05
1.61221e-05
1.61221e-05
1.6123e-05
1.61249e-05
1.61279e-05
1.61323e-05
1.61384e-05
1.61465e-05
1.61574e-05
1.6172e-05
1.61911e-05
1.62172e-05
1.6238e-05
1.63391e-05
1.64478e-05
1.54725e-05
1.2287e-05
1.01043e-05
1.00066e-05
1.0001e-05
1e-05
1e-05
1.55606e-05
0.000217418
0.000868276
0.00055238
0.00182973
0.00780312
0.0259151
0.0588108
1.61155e-05
1.61159e-05
1.61135e-05
1.61123e-05
1.61083e-05
1.61128e-05
1.61134e-05
1.6115e-05
1.61165e-05
1.61177e-05
1.61194e-05
1.61212e-05
1.61233e-05
1.61256e-05
1.61284e-05
1.61315e-05
1.61353e-05
1.61398e-05
1.61456e-05
1.6153e-05
1.6163e-05
1.61769e-05
1.61921e-05
1.62179e-05
1.6259e-05
1.63996e-05
1.64117e-05
1.51965e-05
1.2714e-05
1.06463e-05
1.00134e-05
1.0004e-05
1.00008e-05
1e-05
1e-05
0.000111878
0.000420912
0.00182183
0.000989465
0.00888383
1.61114e-05
1.61126e-05
1.61113e-05
1.61109e-05
1.61117e-05
1.61123e-05
1.61137e-05
1.61149e-05
1.6116e-05
1.61172e-05
1.61185e-05
1.61196e-05
1.61207e-05
1.61218e-05
1.61226e-05
1.61232e-05
1.61235e-05
1.61232e-05
1.61232e-05
1.61239e-05
1.61257e-05
1.61283e-05
1.61321e-05
1.61354e-05
1.61576e-05
1.62526e-05
1.65426e-05
1.64899e-05
1.60258e-05
1.43644e-05
1.22523e-05
1.04434e-05
1.0013e-05
1.00045e-05
1e-05
1e-05
1e-05
0.000228899
0.00214047
1.61107e-05
1.6112e-05
1.61114e-05
1.61112e-05
1.611e-05
1.61107e-05
1.61122e-05
1.61136e-05
1.6115e-05
1.61166e-05
1.61183e-05
1.61199e-05
1.61216e-05
1.61233e-05
1.6125e-05
1.61269e-05
1.6129e-05
1.61313e-05
1.6134e-05
1.6137e-05
1.61408e-05
1.61454e-05
1.61498e-05
1.61528e-05
1.61552e-05
1.61566e-05
1.61891e-05
1.63321e-05
1.65467e-05
1.69647e-05
1.68918e-05
1.62108e-05
1.42204e-05
1.21731e-05
1.00115e-05
1.00066e-05
1e-05
1e-05
1e-05
1.61091e-05
1.61104e-05
1.61104e-05
1.61106e-05
1.61086e-05
1.61094e-05
1.61111e-05
1.61127e-05
1.61141e-05
1.61157e-05
1.61173e-05
1.61186e-05
1.612e-05
1.61213e-05
1.61225e-05
1.61238e-05
1.6125e-05
1.61263e-05
1.61275e-05
1.61288e-05
1.61299e-05
1.61308e-05
1.61321e-05
1.61343e-05
1.61373e-05
1.6141e-05
1.61407e-05
1.61485e-05
1.61813e-05
1.63269e-05
1.6568e-05
1.68833e-05
1.72152e-05
1.72524e-05
1.51253e-05
1.25489e-05
1e-05
1.00007e-05
1e-05
1.61077e-05
1.61088e-05
1.61092e-05
1.61133e-05
1.61148e-05
1.61162e-05
1.61175e-05
1.61187e-05
1.61199e-05
1.61212e-05
1.61225e-05
1.61238e-05
1.61253e-05
1.61269e-05
1.61287e-05
1.61307e-05
1.6133e-05
1.61355e-05
1.61379e-05
1.61402e-05
1.61428e-05
1.61452e-05
1.61439e-05
1.61377e-05
1.61361e-05
1.61689e-05
1.62619e-05
1.64861e-05
1.68522e-05
1.73947e-05
1.75238e-05
1.45761e-05
1.03318e-05
1.00037e-05
1.61149e-05
1.61159e-05
1.6117e-05
1.61181e-05
1.61192e-05
1.61203e-05
1.61216e-05
1.61228e-05
1.61242e-05
1.61257e-05
1.61273e-05
1.6129e-05
1.61309e-05
1.61331e-05
1.61356e-05
1.61386e-05
1.61421e-05
1.61455e-05
1.6147e-05
1.61429e-05
1.61357e-05
1.61293e-05
1.61507e-05
1.62173e-05
1.64819e-05
1.69605e-05
1.79056e-05
1.67521e-05
1.11042e-05
1.61153e-05
1.61163e-05
1.61174e-05
1.61185e-05
1.61197e-05
1.6121e-05
1.61224e-05
1.61239e-05
1.61256e-05
1.61274e-05
1.61295e-05
1.61317e-05
1.6134e-05
1.61366e-05
1.61395e-05
1.61429e-05
1.61467e-05
1.615e-05
1.6151e-05
1.61472e-05
1.6139e-05
1.61254e-05
1.61387e-05
1.62289e-05
1.66307e-05
1.76683e-05
1.75304e-05
1.61146e-05
1.61156e-05
1.61167e-05
1.61178e-05
1.61191e-05
1.61204e-05
1.61219e-05
1.61235e-05
1.61252e-05
1.61271e-05
1.61292e-05
1.61315e-05
1.61341e-05
1.61369e-05
1.61401e-05
1.61436e-05
1.61476e-05
1.6152e-05
1.6156e-05
1.61576e-05
1.61542e-05
1.61411e-05
1.61224e-05
1.61305e-05
1.63867e-05
1.74872e-05
1.61139e-05
1.6115e-05
1.61161e-05
1.61173e-05
1.61187e-05
1.61201e-05
1.61217e-05
1.61234e-05
1.61252e-05
1.61272e-05
1.61295e-05
1.61319e-05
1.61347e-05
1.61376e-05
1.61409e-05
1.61445e-05
1.61486e-05
1.61535e-05
1.61589e-05
1.61642e-05
1.61664e-05
1.61612e-05
1.61318e-05
1.61209e-05
1.60495e-05
1.61123e-05
1.61134e-05
1.61145e-05
1.61157e-05
1.6117e-05
1.61183e-05
1.61198e-05
1.61214e-05
1.61232e-05
1.61251e-05
1.61273e-05
1.61297e-05
1.61323e-05
1.61352e-05
1.61383e-05
1.61417e-05
1.61455e-05
1.61498e-05
1.61549e-05
1.61611e-05
1.61676e-05
1.61774e-05
1.6167e-05
1.61957e-05
1.58983e-05
1.61118e-05
1.61129e-05
1.6114e-05
1.61153e-05
1.61166e-05
1.6118e-05
1.61195e-05
1.61212e-05
1.61231e-05
1.61252e-05
1.61274e-05
1.613e-05
1.61327e-05
1.61357e-05
1.6139e-05
1.61427e-05
1.61467e-05
1.61513e-05
1.61569e-05
1.61624e-05
1.61739e-05
1.61749e-05
1.61983e-05
1.62157e-05
1.61113e-05
1.61124e-05
1.61136e-05
1.61148e-05
1.61162e-05
1.61177e-05
1.61194e-05
1.61212e-05
1.61231e-05
1.61253e-05
1.61277e-05
1.61304e-05
1.61332e-05
1.61364e-05
1.61398e-05
1.61437e-05
1.6148e-05
1.61532e-05
1.61583e-05
1.61663e-05
1.61774e-05
1.61589e-05
1.63719e-05
1.61098e-05
1.61108e-05
1.61119e-05
1.61132e-05
1.61145e-05
1.61159e-05
1.61175e-05
1.61192e-05
1.61211e-05
1.61232e-05
1.61255e-05
1.6128e-05
1.61308e-05
1.61338e-05
1.61371e-05
1.61408e-05
1.61449e-05
1.61497e-05
1.61552e-05
1.616e-05
1.6177e-05
1.61426e-05
1.63275e-05
1.61092e-05
1.61103e-05
1.61115e-05
1.61128e-05
1.61142e-05
1.61157e-05
1.61173e-05
1.61192e-05
1.61212e-05
1.61234e-05
1.61258e-05
1.61284e-05
1.61313e-05
1.61344e-05
1.6138e-05
1.61419e-05
1.61464e-05
1.6152e-05
1.61556e-05
1.61718e-05
1.61504e-05
1.62333e-05
1.61077e-05
1.61088e-05
1.61099e-05
1.61111e-05
1.61125e-05
1.61139e-05
1.61155e-05
1.61173e-05
1.61192e-05
1.61214e-05
1.61237e-05
1.61262e-05
1.61289e-05
1.61319e-05
1.61353e-05
1.61391e-05
1.61433e-05
1.61487e-05
1.61524e-05
1.61643e-05
1.61624e-05
1.61694e-05
1.61073e-05
1.61084e-05
1.61096e-05
1.61109e-05
1.61123e-05
1.61138e-05
1.61155e-05
1.61174e-05
1.61194e-05
1.61216e-05
1.6124e-05
1.61266e-05
1.61295e-05
1.61327e-05
1.61363e-05
1.61403e-05
1.61453e-05
1.61498e-05
1.61573e-05
1.61679e-05
1.6145e-05
1.61058e-05
1.61069e-05
1.61081e-05
1.61094e-05
1.61107e-05
1.61122e-05
1.61139e-05
1.61156e-05
1.61176e-05
1.61197e-05
1.6122e-05
1.61245e-05
1.61272e-05
1.61303e-05
1.61337e-05
1.61375e-05
1.61421e-05
1.61471e-05
1.61519e-05
1.61665e-05
1.61439e-05
1.61055e-05
1.61067e-05
1.61079e-05
1.61092e-05
1.61107e-05
1.61123e-05
1.6114e-05
1.61158e-05
1.61179e-05
1.612e-05
1.61224e-05
1.6125e-05
1.61279e-05
1.61312e-05
1.61348e-05
1.6139e-05
1.61441e-05
1.61481e-05
1.61613e-05
1.61502e-05
1.61042e-05
1.61053e-05
1.61065e-05
1.61078e-05
1.61092e-05
1.61108e-05
1.61124e-05
1.61142e-05
1.61161e-05
1.61182e-05
1.61205e-05
1.6123e-05
1.61257e-05
1.61288e-05
1.61323e-05
1.61362e-05
1.6141e-05
1.6145e-05
1.61551e-05
1.61551e-05
1.6103e-05
1.6104e-05
1.61052e-05
1.61065e-05
1.61078e-05
1.61093e-05
1.61109e-05
1.61126e-05
1.61144e-05
1.61164e-05
1.61186e-05
1.6121e-05
1.61236e-05
1.61266e-05
1.61299e-05
1.61335e-05
1.6138e-05
1.61423e-05
1.61496e-05
1.61561e-05
1.61028e-05
1.61039e-05
1.61051e-05
1.61064e-05
1.61078e-05
1.61093e-05
1.6111e-05
1.61128e-05
1.61147e-05
1.61168e-05
1.61191e-05
1.61216e-05
1.61244e-05
1.61275e-05
1.61311e-05
1.61352e-05
1.61396e-05
1.61452e-05
1.61537e-05
1.61016e-05
1.61026e-05
1.61038e-05
1.61051e-05
1.61064e-05
1.61079e-05
1.61095e-05
1.61112e-05
1.61131e-05
1.6115e-05
1.61172e-05
1.61196e-05
1.61223e-05
1.61253e-05
1.61287e-05
1.61325e-05
1.61369e-05
1.61417e-05
1.61497e-05
1.61004e-05
1.61015e-05
1.61026e-05
1.61038e-05
1.61051e-05
1.61065e-05
1.61081e-05
1.61097e-05
1.61115e-05
1.61134e-05
1.61155e-05
1.61178e-05
1.61203e-05
1.61232e-05
1.61264e-05
1.613e-05
1.61342e-05
1.61388e-05
1.61456e-05
1.61003e-05
1.61014e-05
1.61026e-05
1.61038e-05
1.61052e-05
1.61066e-05
1.61082e-05
1.61099e-05
1.61117e-05
1.61137e-05
1.61159e-05
1.61184e-05
1.61211e-05
1.61242e-05
1.61276e-05
1.61316e-05
1.6136e-05
1.61418e-05
1.60992e-05
1.61003e-05
1.61014e-05
1.61026e-05
1.61039e-05
1.61053e-05
1.61068e-05
1.61084e-05
1.61101e-05
1.61121e-05
1.61142e-05
1.61165e-05
1.61191e-05
1.6122e-05
1.61253e-05
1.61291e-05
1.61333e-05
1.61384e-05
1.60982e-05
1.60992e-05
1.61003e-05
1.61014e-05
1.61027e-05
1.6104e-05
1.61054e-05
1.6107e-05
1.61086e-05
1.61104e-05
1.61125e-05
1.61147e-05
1.61172e-05
1.612e-05
1.61231e-05
1.61266e-05
1.61307e-05
1.61354e-05
1.60981e-05
1.60992e-05
1.61003e-05
1.61015e-05
1.61027e-05
1.61041e-05
1.61055e-05
1.61071e-05
1.61088e-05
1.61108e-05
1.61129e-05
1.61153e-05
1.61179e-05
1.61209e-05
1.61243e-05
1.61281e-05
1.61325e-05
1.60971e-05
1.60981e-05
1.60992e-05
1.61003e-05
1.61015e-05
1.61028e-05
1.61042e-05
1.61057e-05
1.61073e-05
1.61091e-05
1.61112e-05
1.61134e-05
1.61159e-05
1.61187e-05
1.61219e-05
1.61256e-05
1.61298e-05
1.60962e-05
1.60972e-05
1.60982e-05
1.60992e-05
1.61004e-05
1.61016e-05
1.61029e-05
1.61043e-05
1.61059e-05
1.61076e-05
1.61095e-05
1.61116e-05
1.6114e-05
1.61167e-05
1.61197e-05
1.61231e-05
1.60962e-05
1.60972e-05
1.60982e-05
1.60993e-05
1.61004e-05
1.61017e-05
1.6103e-05
1.61045e-05
1.61061e-05
1.61079e-05
1.61099e-05
1.61122e-05
1.61147e-05
1.61175e-05
1.61208e-05
1.60954e-05
1.60962e-05
1.60972e-05
1.60982e-05
1.60993e-05
1.61005e-05
1.61017e-05
1.61031e-05
1.61047e-05
1.61064e-05
1.61083e-05
1.61104e-05
1.61128e-05
1.61155e-05
1.61185e-05
1.60945e-05
1.60954e-05
1.60963e-05
1.60972e-05
1.60983e-05
1.60993e-05
1.61005e-05
1.61018e-05
1.61033e-05
1.61049e-05
1.61067e-05
1.61087e-05
1.61109e-05
1.61135e-05
1.61163e-05
1.60938e-05
1.60946e-05
1.60954e-05
1.60963e-05
1.60973e-05
1.60983e-05
1.60994e-05
1.61006e-05
1.6102e-05
1.61035e-05
1.61052e-05
1.61071e-05
1.61092e-05
1.61115e-05
1.61142e-05
1.60931e-05
1.60938e-05
1.60946e-05
1.60954e-05
1.60963e-05
1.60973e-05
1.60983e-05
1.60995e-05
1.61008e-05
1.61022e-05
1.61038e-05
1.61055e-05
1.61075e-05
1.61097e-05
1.61122e-05
1.60931e-05
1.60938e-05
1.60946e-05
1.60955e-05
1.60963e-05
1.60973e-05
1.60984e-05
1.60996e-05
1.61009e-05
1.61024e-05
1.61041e-05
1.61059e-05
1.6108e-05
1.61103e-05
1.60925e-05
1.60931e-05
1.60939e-05
1.60946e-05
1.60954e-05
1.60963e-05
1.60973e-05
1.60985e-05
1.60997e-05
1.61011e-05
1.61026e-05
1.61043e-05
1.61063e-05
1.61085e-05
1.60919e-05
1.60925e-05
1.60932e-05
1.60939e-05
1.60946e-05
1.60954e-05
1.60964e-05
1.60974e-05
1.60985e-05
1.60998e-05
1.61012e-05
1.61028e-05
1.61047e-05
1.61067e-05
1.60914e-05
1.60919e-05
1.60925e-05
1.60932e-05
1.60939e-05
1.60946e-05
1.60955e-05
1.60964e-05
1.60974e-05
1.60986e-05
1.60999e-05
1.61014e-05
1.61031e-05
1.6105e-05
1.60909e-05
1.60914e-05
1.6092e-05
1.60925e-05
1.60932e-05
1.60939e-05
1.60946e-05
1.60955e-05
1.60964e-05
1.60975e-05
1.60987e-05
1.61001e-05
1.61016e-05
1.61034e-05
1.6091e-05
1.60914e-05
1.6092e-05
1.60925e-05
1.60931e-05
1.60938e-05
1.60946e-05
1.60955e-05
1.60965e-05
1.60976e-05
1.60988e-05
1.61003e-05
1.61019e-05
1.60906e-05
1.6091e-05
1.60914e-05
1.60919e-05
1.60925e-05
1.60931e-05
1.60938e-05
1.60946e-05
1.60955e-05
1.60965e-05
1.60976e-05
1.60989e-05
1.60902e-05
1.60906e-05
1.6091e-05
1.60914e-05
1.60919e-05
1.60925e-05
1.60931e-05
1.60938e-05
1.60946e-05
1.60955e-05
1.60965e-05
1.60977e-05
1.609e-05
1.60903e-05
1.60906e-05
1.6091e-05
1.60914e-05
1.60919e-05
1.60924e-05
1.6093e-05
1.60937e-05
1.60946e-05
1.60955e-05
1.60965e-05
1.60898e-05
1.609e-05
1.60903e-05
1.60906e-05
1.60909e-05
1.60914e-05
1.60918e-05
1.60924e-05
1.6093e-05
1.60937e-05
1.60945e-05
1.60954e-05
1.60898e-05
1.609e-05
1.60903e-05
1.60906e-05
1.60909e-05
1.60913e-05
1.60918e-05
1.60923e-05
1.60929e-05
1.60936e-05
1.60945e-05
1.60897e-05
1.60898e-05
1.609e-05
1.60902e-05
1.60905e-05
1.60908e-05
1.60912e-05
1.60917e-05
1.60922e-05
1.60928e-05
1.60935e-05
1.60896e-05
1.60897e-05
1.60898e-05
1.609e-05
1.60902e-05
1.60904e-05
1.60907e-05
1.60911e-05
1.60916e-05
1.60921e-05
1.60927e-05
1.60896e-05
1.60896e-05
1.60897e-05
1.60898e-05
1.60899e-05
1.60901e-05
1.60903e-05
1.60906e-05
1.6091e-05
1.60914e-05
1.60919e-05
1.60897e-05
1.60896e-05
1.60896e-05
1.60897e-05
1.60897e-05
1.60899e-05
1.609e-05
1.60902e-05
1.60905e-05
1.60908e-05
1.60913e-05
1.60898e-05
1.60898e-05
1.60897e-05
1.60897e-05
1.60897e-05
1.60897e-05
1.60898e-05
1.60899e-05
1.60901e-05
1.60904e-05
1.609e-05
1.609e-05
1.60899e-05
1.60898e-05
1.60897e-05
1.60897e-05
1.60897e-05
1.60897e-05
1.60898e-05
1.609e-05
1.60901e-05
1.609e-05
1.609e-05
1.60899e-05
1.60898e-05
1.60897e-05
1.60897e-05
1.60897e-05
1.60898e-05
1.60901e-05
1.60901e-05
1.60901e-05
1.609e-05
1.609e-05
1.60899e-05
1.60898e-05
1.60898e-05
1.60898e-05
1.609e-05
1.609e-05
1.60901e-05
1.60901e-05
1.60901e-05
1.609e-05
1.609e-05
1.609e-05
1.60899e-05
1.60897e-05
1.60898e-05
1.60898e-05
1.60899e-05
1.60899e-05
1.609e-05
1.609e-05
1.609e-05
1.60901e-05
1.60891e-05
1.60893e-05
1.60894e-05
1.60895e-05
1.60896e-05
1.60897e-05
1.60898e-05
1.60899e-05
1.60899e-05
1.60882e-05
1.60884e-05
1.60885e-05
1.60887e-05
1.60888e-05
1.6089e-05
1.60892e-05
1.60893e-05
1.60871e-05
1.60872e-05
1.60874e-05
1.60876e-05
1.60878e-05
1.6088e-05
1.60882e-05
1.60884e-05
1.60858e-05
1.60859e-05
1.60861e-05
1.60863e-05
1.60865e-05
1.60868e-05
1.6087e-05
1.60873e-05
1.60846e-05
1.60848e-05
1.60851e-05
1.60853e-05
1.60855e-05
1.60858e-05
1.6086e-05
1.60833e-05
1.60835e-05
1.60838e-05
1.6084e-05
1.60843e-05
1.60845e-05
1.60848e-05
1.60818e-05
1.6082e-05
1.60823e-05
1.60826e-05
1.6083e-05
1.60833e-05
1.60836e-05
1.608e-05
1.60803e-05
1.60807e-05
1.6081e-05
1.60814e-05
1.60818e-05
1.60823e-05
1.60784e-05
1.60787e-05
1.6079e-05
1.60793e-05
1.60797e-05
1.60801e-05
1.60769e-05
1.60771e-05
1.60774e-05
1.60777e-05
1.60781e-05
1.60784e-05
1.60751e-05
1.60754e-05
1.60757e-05
1.60761e-05
1.60764e-05
1.60768e-05
1.60733e-05
1.60736e-05
1.60739e-05
1.60742e-05
1.60746e-05
1.60749e-05
1.60715e-05
1.60717e-05
1.60719e-05
1.60722e-05
1.60726e-05
1.60729e-05
1.607e-05
1.60701e-05
1.60703e-05
1.60705e-05
1.60707e-05
1.6071e-05
1.60704e-05
1.60703e-05
1.60702e-05
1.60702e-05
1.60702e-05
1.60721e-05
1.60719e-05
1.60717e-05
1.60714e-05
1.60712e-05
1.60742e-05
1.60741e-05
1.60739e-05
1.60738e-05
1.60736e-05
1.60766e-05
1.60765e-05
1.60763e-05
1.6076e-05
1.60785e-05
1.60788e-05
1.60793e-05
1.60798e-05
1.60869e-05
1.60869e-05
1.6087e-05
1.60867e-05
)
;

boundaryField
{
    inlet
    {
        type            calculated;
        value           nonuniform List<scalar> 4(1.60869e-05 1.60869e-05 1.6087e-05 1.60867e-05);
    }
    outlet
    {
        type            calculated;
        value           nonuniform List<scalar> 0();
    }
    walls
    {
        type            calculated;
        value           nonuniform List<scalar> 
42
(
0.00287543
0.00310972
0.00335442
0.00355559
0.00374619
0.00391692
0.00405532
0.00416684
0.00425347
0.00431362
0.00435336
0.00437501
0.00437825
0.0043603
0.00431682
0.00424642
0.00414422
0.00400661
0.00382461
0.00359293
0.00329931
0.00294312
0.00253636
0.00216108
0.00195429
0.00193655
0.00202148
0.00213216
0.00222941
0.00229366
0.00232105
0.00230677
0.00225796
0.00218222
0.00207827
0.00262906
0.00235229
0.0020463
0.00167212
0.00126544
0.000845705
0.00051439
)
;
    }
    frontAndBack
    {
        type            empty;
    }
    procBoundary5to0
    {
        type            processor;
        value           nonuniform List<scalar> 4(1.61073e-05 1.61063e-05 1.61073e-05 1.61079e-05);
    }
    procBoundary5to1
    {
        type            processor;
        value           nonuniform List<scalar> 
13
(
1.7921e-05
1.59878e-05
1.59878e-05
1.61332e-05
1.6102e-05
1.6102e-05
1.61076e-05
1.61076e-05
1.61076e-05
1.61081e-05
1.61078e-05
1.61098e-05
1.61098e-05
)
;
    }
    procBoundary5to4
    {
        type            processor;
        value           nonuniform List<scalar> 
95
(
1.61083e-05
1.61102e-05
1.61118e-05
1.61118e-05
1.61123e-05
1.61137e-05
1.61137e-05
1.61134e-05
1.61144e-05
1.61144e-05
1.61137e-05
1.61137e-05
1.61129e-05
1.61129e-05
1.61114e-05
1.61109e-05
1.61109e-05
1.61103e-05
1.61103e-05
1.61088e-05
1.61082e-05
1.61082e-05
1.61068e-05
1.61062e-05
1.61062e-05
1.61049e-05
1.61045e-05
1.61045e-05
1.61032e-05
1.6102e-05
1.61017e-05
1.61017e-05
1.61006e-05
1.60994e-05
1.60993e-05
1.60993e-05
1.60982e-05
1.60972e-05
1.60972e-05
1.60972e-05
1.60962e-05
1.60954e-05
1.60953e-05
1.60953e-05
1.60945e-05
1.60938e-05
1.6093e-05
1.60924e-05
1.60924e-05
1.60924e-05
1.60918e-05
1.60913e-05
1.60908e-05
1.60904e-05
1.60905e-05
1.60905e-05
1.60902e-05
1.60899e-05
1.60897e-05
1.60895e-05
1.60896e-05
1.60896e-05
1.60895e-05
1.60895e-05
1.60896e-05
1.60897e-05
1.60899e-05
1.60901e-05
1.60901e-05
1.60901e-05
1.60901e-05
1.609e-05
1.60896e-05
1.6089e-05
1.60881e-05
1.60869e-05
1.60856e-05
1.60845e-05
1.60845e-05
1.60831e-05
1.60815e-05
1.60798e-05
1.60782e-05
1.60766e-05
1.60749e-05
1.60731e-05
1.60712e-05
1.60699e-05
1.60705e-05
1.60705e-05
1.60722e-05
1.60743e-05
1.60768e-05
1.60782e-05
1.60868e-05
)
;
    }
    procBoundary5to6
    {
        type            processor;
        value           nonuniform List<scalar> 
86
(
0.0895551
0.133032
0.162695
0.153305
0.101061
0.0348257
0.00302843
0.000745583
1e-05
1e-05
1.0004e-05
1.10548e-05
1.8969e-05
1.94183e-05
1.67168e-05
1.53984e-05
1.53736e-05
1.57982e-05
1.61479e-05
1.62869e-05
1.6288e-05
1.62398e-05
1.61933e-05
1.61655e-05
1.61541e-05
1.61515e-05
1.61513e-05
1.61504e-05
1.61481e-05
1.61449e-05
1.61415e-05
1.61381e-05
1.61349e-05
1.61271e-05
1.61271e-05
1.61245e-05
1.6122e-05
1.61196e-05
1.61173e-05
1.61151e-05
1.6113e-05
1.6111e-05
1.61091e-05
1.61072e-05
1.61054e-05
1.61037e-05
1.61004e-05
1.61004e-05
1.6099e-05
1.60977e-05
1.60965e-05
1.60954e-05
1.60944e-05
1.60934e-05
1.60925e-05
1.60918e-05
1.60907e-05
1.60907e-05
1.60902e-05
1.60899e-05
1.60898e-05
1.60899e-05
1.60901e-05
1.609e-05
1.60895e-05
1.60895e-05
1.60886e-05
1.60875e-05
1.60863e-05
1.60851e-05
1.6084e-05
1.60827e-05
1.60806e-05
1.60806e-05
1.60788e-05
1.60771e-05
1.60753e-05
1.60733e-05
1.60712e-05
1.60702e-05
1.60711e-05
1.60734e-05
1.60759e-05
1.60759e-05
1.608e-05
1.60866e-05
)
;
    }
}


// ************************************************************************* //
