/*--------------------------------*- C++ -*----------------------------------*\
| =========                 |                                                 |
| \\      /  F ield         | OpenFOAM: The Open Source CFD Toolbox           |
|  \\    /   O peration     | Version:  2306                                  |
|   \\  /    A nd           | Website:  www.openfoam.com                      |
|    \\/     M anipulation  |                                                 |
\*---------------------------------------------------------------------------*/
FoamFile
{
    version     2.0;
    format      ascii;
    arch        "LSB;label=32;scalar=64";
    class       volVectorField;
    location    "700";
    object      momentError;
}
// * * * * * * * * * * * * * * * * * * * * * * * * * * * * * * * * * * * * * //

dimensions      [0 1 -2 0 0 0 0];

internalField   nonuniform List<vector> 
1340
(
(-9.34531e-08 4.33544e-07 -7.39662e-16)
(-3.07004e-09 8.269e-07 -1.09304e-16)
(7.18673e-10 8.86359e-07 -7.61666e-16)
(1.24372e-07 7.23439e-07 3.80758e-15)
(1.14038e-07 7.84968e-07 -5.74739e-17)
(3.94056e-08 8.92536e-07 1.22431e-15)
(1.88072e-07 7.41243e-07 -8.403e-16)
(2.32888e-07 7.5835e-07 3.98106e-15)
(1.74138e-07 8.4143e-07 3.2788e-16)
(6.02731e-08 9.19126e-07 -1.89477e-15)
(1.64846e-07 8.87592e-07 -1.92696e-15)
(1.99028e-07 8.19892e-07 -1.60869e-15)
(2.51565e-07 7.72962e-07 -1.14752e-15)
(2.75715e-07 7.96128e-07 -1.40695e-15)
(1.94254e-07 8.36082e-07 -3.27568e-16)
(8.00743e-08 9.22475e-07 -1.06215e-15)
(1.87692e-07 1.11502e-06 -6.14266e-16)
(2.00025e-07 9.79759e-07 4.86059e-17)
(2.19509e-07 9.04006e-07 -4.69377e-15)
(2.52923e-07 8.53151e-07 -2.57509e-15)
(2.80164e-07 8.11868e-07 1.25474e-15)
(2.76113e-07 8.07689e-07 -1.57595e-15)
(2.08068e-07 8.36073e-07 -8.49853e-16)
(9.19029e-08 9.12762e-07 2.6612e-15)
(3.52371e-07 1.7269e-06 -3.26937e-15)
(2.9398e-07 1.54574e-06 -4.23872e-15)
(2.36558e-07 1.34133e-06 -2.67336e-15)
(2.23897e-07 1.11611e-06 -6.48506e-18)
(2.69799e-07 9.90378e-07 -1.54766e-16)
(2.65038e-07 9.33358e-07 1.87989e-15)
(2.80364e-07 8.69257e-07 8.19435e-16)
(2.81598e-07 8.22194e-07 -2.12806e-16)
(2.78557e-07 8.16726e-07 7.75839e-16)
(2.09873e-07 8.24159e-07 5.70466e-17)
(9.86885e-08 8.93946e-07 -6.44686e-16)
(7.84792e-07 2.12098e-06 -8.15368e-16)
(6.66361e-07 1.89721e-06 1.23721e-15)
(5.4352e-07 1.7583e-06 3.37327e-16)
(4.50358e-07 1.6323e-06 -3.97566e-16)
(3.69281e-07 1.48976e-06 -1.53646e-15)
(3.11e-07 1.30375e-06 -2.70432e-15)
(2.79105e-07 1.13451e-06 -5.42606e-16)
(3.20321e-07 9.98039e-07 1.41887e-16)
(2.8626e-07 9.184e-07 1.94725e-15)
(2.87049e-07 8.77446e-07 4.49707e-16)
(2.87751e-07 8.29339e-07 -1.01406e-15)
(2.72165e-07 8.15421e-07 1.32281e-15)
(2.0644e-07 8.07756e-07 5.05554e-16)
(1.01133e-07 8.6774e-07 8.89299e-16)
(2.15159e-06 2.50389e-06 -1.04906e-15)
(1.786e-06 2.37589e-06 2.93819e-16)
(1.471e-06 2.26684e-06 1.17442e-16)
(1.15788e-06 2.10847e-06 -1.09926e-16)
(9.27701e-07 1.93335e-06 -4.53051e-16)
(7.75469e-07 1.76773e-06 2.17503e-15)
(6.5871e-07 1.63862e-06 2.6753e-16)
(5.69461e-07 1.55014e-06 9.03932e-16)
(4.70964e-07 1.41423e-06 -1.61447e-16)
(4.01547e-07 1.25338e-06 1.19923e-15)
(3.60463e-07 1.09566e-06 5.01645e-16)
(3.40881e-07 9.88714e-07 -1.66792e-16)
(3.18439e-07 9.10149e-07 -1.35732e-15)
(3.05344e-07 8.68917e-07 -3.62284e-16)
(2.91048e-07 8.24846e-07 5.21662e-16)
(2.65716e-07 8.06866e-07 -8.03854e-16)
(2.00006e-07 7.84689e-07 1.34952e-16)
(1.01147e-07 8.3716e-07 2.69295e-16)
(4.96235e-06 1.66035e-06 -9.97611e-16)
(4.45436e-06 1.76636e-06 -1.96763e-16)
(3.8453e-06 1.88922e-06 1.45625e-16)
(3.3661e-06 1.99946e-06 1.44021e-15)
(2.80019e-06 2.02147e-06 -1.2886e-16)
(2.36241e-06 2.01034e-06 -8.38469e-16)
(1.95697e-06 2.03148e-06 1.59349e-15)
(1.61703e-06 1.92848e-06 5.30195e-16)
(1.32083e-06 1.85565e-06 1.06274e-16)
(1.09097e-06 1.74134e-06 3.03784e-16)
(9.04099e-07 1.60142e-06 -4.85144e-16)
(7.96025e-07 1.51439e-06 -6.72413e-17)
(6.77704e-07 1.42521e-06 -1.9069e-15)
(5.71563e-07 1.31662e-06 -2.87818e-16)
(4.87544e-07 1.18647e-06 2.21566e-16)
(4.29057e-07 1.05839e-06 -4.57907e-16)
(3.89287e-07 9.55483e-07 6.36185e-17)
(3.51284e-07 8.82839e-07 -4.45177e-16)
(3.24498e-07 8.54423e-07 -1.88455e-16)
(2.96362e-07 8.12134e-07 2.8291e-17)
(2.60196e-07 7.90024e-07 -1.03147e-15)
(1.92815e-07 7.58623e-07 -1.56654e-16)
(9.96004e-08 8.02735e-07 -1.50212e-15)
(7.95872e-06 -9.67275e-07 1.20367e-16)
(7.58684e-06 -5.52608e-07 -2.11521e-16)
(7.17678e-06 -1.86174e-07 5.66138e-17)
(6.74027e-06 1.34281e-07 -1.62226e-16)
(6.2669e-06 3.87513e-07 -6.50231e-16)
(5.80938e-06 6.40746e-07 2.20259e-16)
(5.30515e-06 8.00096e-07 1.53085e-16)
(4.82597e-06 9.62143e-07 -1.10366e-15)
(4.32566e-06 1.10415e-06 -2.67573e-16)
(3.86607e-06 1.26709e-06 -3.24918e-16)
(3.37802e-06 1.41821e-06 -4.48939e-16)
(2.91331e-06 1.48434e-06 -4.23394e-17)
(2.51929e-06 1.57911e-06 1.17028e-15)
(2.11251e-06 1.59349e-06 6.60856e-16)
(1.7598e-06 1.63088e-06 -2.06317e-16)
(1.47904e-06 1.58496e-06 2.76169e-16)
(1.21303e-06 1.50665e-06 2.98703e-17)
(1.04487e-06 1.42612e-06 -8.30268e-17)
(9.10046e-07 1.36278e-06 -3.35768e-17)
(7.86888e-07 1.29895e-06 1.08009e-15)
(6.66333e-07 1.21236e-06 1.17893e-15)
(5.70828e-07 1.10436e-06 4.4184e-17)
(4.96899e-07 9.93439e-07 4.83617e-16)
(4.37297e-07 9.14784e-07 -7.6616e-17)
(3.87199e-07 8.5253e-07 9.60668e-16)
(3.45304e-07 8.25841e-07 6.34036e-16)
(3.04215e-07 7.89894e-07 1.15784e-16)
(2.55888e-07 7.67359e-07 2.16756e-16)
(1.86047e-07 7.27385e-07 1.02915e-15)
(9.67299e-08 7.66541e-07 4.72832e-16)
(5.60395e-06 -3.13999e-06 -1.74714e-17)
(6.03565e-06 -3.38333e-06 -1.88723e-18)
(6.41171e-06 -3.45766e-06 -2.15056e-18)
(6.75057e-06 -3.48604e-06 1.58935e-17)
(7.02615e-06 -3.43886e-06 2.53917e-17)
(7.25098e-06 -3.35653e-06 1.1745e-16)
(7.41605e-06 -3.1707e-06 2.50335e-17)
(7.51906e-06 -2.95699e-06 4.81499e-17)
(7.55928e-06 -2.68363e-06 5.10625e-18)
(7.52613e-06 -2.40291e-06 -2.01818e-16)
(7.43552e-06 -2.09101e-06 -7.92452e-17)
(7.2729e-06 -1.75126e-06 -2.45074e-16)
(7.05662e-06 -1.39811e-06 -2.00376e-16)
(6.78034e-06 -1.06537e-06 -3.52512e-16)
(6.46877e-06 -7.39804e-07 1.52843e-16)
(6.12121e-06 -4.75972e-07 -3.58815e-16)
(5.74988e-06 -2.03245e-07 -4.20558e-17)
(5.37596e-06 6.939e-09 4.86966e-16)
(4.95581e-06 2.00194e-07 -1.47108e-16)
(4.58882e-06 3.7829e-07 6.30364e-16)
(4.15952e-06 5.6621e-07 -9.12751e-17)
(3.8026e-06 7.19244e-07 -2.34212e-17)
(3.36046e-06 8.80621e-07 1.39112e-16)
(3.0003e-06 1.01962e-06 8.24783e-17)
(2.6063e-06 1.11258e-06 -4.60904e-16)
(2.24634e-06 1.21092e-06 -7.79492e-16)
(1.91748e-06 1.25765e-06 1.73673e-16)
(1.60938e-06 1.29825e-06 -5.15302e-16)
(1.36185e-06 1.28137e-06 -1.48761e-16)
(1.17265e-06 1.23212e-06 3.54886e-17)
(1.02502e-06 1.2003e-06 3.79424e-17)
(8.81955e-07 1.15083e-06 8.91031e-16)
(7.52535e-07 1.08973e-06 -3.64326e-16)
(6.45945e-07 1.01558e-06 5.1984e-16)
(5.59994e-07 9.30026e-07 -6.75766e-16)
(4.84911e-07 8.57606e-07 2.24067e-16)
(4.21792e-07 8.06188e-07 -6.80934e-16)
(3.67255e-07 7.93841e-07 1.0484e-15)
(3.11968e-07 7.61301e-07 9.38499e-16)
(2.52966e-07 7.37731e-07 -1.81504e-17)
(1.7992e-07 6.9504e-07 -1.36187e-16)
(9.30082e-08 7.28816e-07 8.39012e-17)
(-3.56117e-05 2.32435e-05 -1.75115e-17)
(-2.3343e-05 2.1493e-05 1.36802e-17)
(-3.29694e-05 1.41164e-05 -3.83356e-17)
(-1.66098e-05 1.49986e-05 -5.971e-18)
(-3.29651e-05 1.07286e-05 2.98053e-17)
(-2.4971e-05 1.28958e-05 -1.7961e-17)
(-2.41401e-05 1.2109e-05 -4.17212e-17)
(-1.0363e-05 1.3389e-05 1.16905e-17)
(2.55736e-06 1.52393e-05 1.53998e-17)
(1.28855e-05 1.74844e-05 -4.60348e-17)
(2.06327e-05 1.97654e-05 -3.38482e-17)
(2.48184e-05 2.11592e-05 -6.71943e-18)
(2.48009e-05 2.16035e-05 -1.59016e-17)
(1.91877e-05 2.09016e-05 4.95165e-17)
(7.99135e-06 1.91203e-05 5.15883e-17)
(-7.1005e-06 1.64721e-05 -8.08654e-17)
(-2.27664e-05 1.31928e-05 -1.41932e-16)
(-3.42448e-05 9.99747e-06 -2.56433e-17)
(-3.04247e-05 9.53846e-06 3.23782e-17)
(1.04935e-05 1.82417e-05 -2.36327e-17)
(-9.67775e-05 -7.56662e-06 2.10284e-17)
(-0.000688467 -0.000128103 -4.93263e-17)
(0.000523842 5.66079e-05 1.20887e-16)
(0.000179747 5.32877e-05 -9.93665e-17)
(-4.7292e-05 -2.13726e-06 -1.44347e-16)
(1.17433e-05 6.43692e-06 -1.32822e-17)
(7.89402e-06 5.63442e-06 -1.71481e-18)
(3.45667e-06 4.55245e-06 -8.08789e-17)
(3.39501e-06 3.69975e-06 -8.39608e-18)
(3.43548e-06 2.72409e-06 -3.13472e-17)
(3.67775e-06 1.84137e-06 1.78895e-17)
(3.89116e-06 1.12852e-06 1.37511e-16)
(4.13999e-06 4.77082e-07 1.38777e-17)
(4.30079e-06 -8.04009e-08 6.30447e-17)
(4.55921e-06 -6.34695e-07 -3.02486e-17)
(4.75215e-06 -1.18643e-06 1.26813e-17)
(5.05737e-06 -1.53627e-06 2.63329e-17)
(5.23392e-06 -1.87468e-06 1.45756e-17)
(5.48419e-06 -2.29326e-06 -1.31074e-18)
(5.66289e-06 -2.48522e-06 4.99309e-21)
(5.88095e-06 -2.65016e-06 4.25177e-17)
(6.0192e-06 -2.72134e-06 2.75593e-17)
(6.18654e-06 -2.74577e-06 6.34782e-17)
(6.27516e-06 -2.68744e-06 2.43417e-17)
(6.36575e-06 -2.60274e-06 6.31989e-17)
(6.37982e-06 -2.47089e-06 -9.21364e-17)
(6.37924e-06 -2.31793e-06 -3.25753e-16)
(6.3124e-06 -2.12185e-06 2.58579e-16)
(6.22236e-06 -1.90665e-06 -3.07496e-17)
(6.06627e-06 -1.64579e-06 1.10982e-16)
(5.88241e-06 -1.39229e-06 1.0452e-16)
(5.65783e-06 -1.13043e-06 5.71933e-17)
(5.40258e-06 -8.82686e-07 1.23008e-16)
(5.14458e-06 -6.52432e-07 3.4498e-17)
(4.84187e-06 -4.36328e-07 -1.65829e-16)
(4.56887e-06 -2.53472e-07 -9.43912e-17)
(4.25297e-06 -6.9605e-08 2.33119e-16)
(3.96121e-06 9.22006e-08 2.15781e-17)
(3.62721e-06 2.7899e-07 2.08554e-16)
(3.32676e-06 4.36729e-07 -5.03759e-17)
(2.98419e-06 5.85527e-07 -2.16215e-16)
(2.66379e-06 7.09765e-07 -6.23672e-16)
(2.34763e-06 8.1442e-07 -5.69443e-16)
(2.04488e-06 9.3404e-07 4.37401e-16)
(1.76811e-06 9.93003e-07 -3.18396e-16)
(1.49532e-06 1.02154e-06 1.5453e-16)
(1.29836e-06 1.01438e-06 -2.87186e-16)
(1.13275e-06 1.0069e-06 -2.06874e-16)
(9.79876e-07 9.9092e-07 -5.60397e-16)
(8.42526e-07 9.62654e-07 -5.06379e-16)
(7.19189e-07 9.12008e-07 -9.13035e-16)
(6.16893e-07 8.44101e-07 4.0767e-16)
(5.29617e-07 7.97225e-07 -2.69271e-16)
(4.52945e-07 7.60337e-07 7.43576e-16)
(3.86465e-07 7.49376e-07 2.62327e-16)
(3.194e-07 7.24757e-07 -5.61152e-17)
(2.51862e-07 7.0406e-07 1.63644e-16)
(1.74624e-07 6.58478e-07 -2.78213e-16)
(8.94055e-08 6.90686e-07 -1.26747e-16)
(-3.63003e-05 2.67061e-05 1.5471e-17)
(-3.37298e-05 2.21772e-05 -1.68927e-17)
(-2.23123e-05 1.31108e-05 -3.54637e-17)
(-1.82515e-05 1.19202e-05 3.16294e-18)
(-1.72625e-05 1.09624e-05 1.7777e-17)
(-1.8585e-05 1.06886e-05 -6.07652e-18)
(-1.95295e-05 1.02757e-05 -4.20724e-18)
(-1.77043e-05 9.79881e-06 -8.26936e-18)
(-1.48011e-05 9.36209e-06 -3.43193e-18)
(-9.86102e-06 1.01082e-05 -1.66271e-17)
(-1.87914e-07 1.27471e-05 -2.33098e-17)
(1.2255e-06 1.36128e-05 1.3982e-17)
(5.46881e-06 1.55114e-05 -8.29165e-18)
(7.10186e-06 1.61996e-05 -4.66526e-18)
(7.37902e-06 1.64063e-05 1.17079e-17)
(4.72604e-06 1.58253e-05 -4.29144e-17)
(-6.25429e-07 1.45499e-05 2.0843e-17)
(-7.69843e-06 1.27615e-05 3.46108e-17)
(-1.61638e-05 1.07229e-05 -4.05519e-17)
(-3.7343e-05 3.75077e-06 -4.16966e-17)
(-0.000107037 -2.50707e-05 -4.42437e-17)
(0.000231356 2.85961e-05 6.10796e-18)
(1.85085e-06 5.64562e-05 3.62906e-17)
(-0.000101738 -4.94003e-06 -5.43738e-17)
(-5.01951e-05 2.37114e-06 1.90345e-17)
(3.10289e-06 4.92505e-06 -1.87381e-17)
(8.59347e-06 4.48639e-06 2.28577e-18)
(6.28406e-06 3.276e-06 -3.89763e-17)
(6.32472e-06 2.47972e-06 1.40015e-17)
(5.70289e-06 1.70091e-06 -1.9551e-17)
(5.26512e-06 1.05272e-06 5.31454e-17)
(5.07168e-06 5.6118e-07 2.50418e-17)
(4.98109e-06 2.22673e-07 -1.93724e-17)
(4.87653e-06 -6.97041e-08 -2.47804e-17)
(4.80667e-06 -3.62719e-07 -2.8873e-17)
(4.74314e-06 -6.7457e-07 1.78011e-17)
(4.7548e-06 -1.02787e-06 1.95952e-17)
(4.73165e-06 -1.36289e-06 7.679e-19)
(4.79664e-06 -1.58785e-06 -1.74155e-17)
(4.84225e-06 -1.82616e-06 1.97818e-18)
(4.92232e-06 -1.98695e-06 -2.24311e-17)
(4.98064e-06 -2.1231e-06 -1.62094e-17)
(5.05862e-06 -2.18777e-06 -1.03034e-17)
(5.10537e-06 -2.23676e-06 -6.21851e-18)
(5.15577e-06 -2.22554e-06 -2.56733e-17)
(5.17107e-06 -2.19427e-06 -1.32901e-17)
(5.18053e-06 -2.10978e-06 1.08771e-16)
(5.15335e-06 -2.00825e-06 1.79307e-16)
(5.11095e-06 -1.86205e-06 1.10018e-16)
(5.03212e-06 -1.70794e-06 5.36236e-17)
(4.92963e-06 -1.51722e-06 -3.6545e-18)
(4.79752e-06 -1.32241e-06 4.34596e-17)
(4.64106e-06 -1.11618e-06 -6.80884e-18)
(4.46681e-06 -9.1707e-07 1.1228e-17)
(4.27491e-06 -7.27022e-07 8.73654e-17)
(4.0712e-06 -5.50732e-07 2.77099e-16)
(3.85871e-06 -3.93803e-07 -4.87247e-16)
(3.63203e-06 -2.22092e-07 7.24748e-17)
(3.405e-06 -6.58757e-08 -1.72208e-16)
(3.14462e-06 9.32428e-08 5.16997e-16)
(2.89419e-06 2.28798e-07 -4.47541e-19)
(2.6241e-06 3.68795e-07 4.14218e-16)
(2.37414e-06 5.0327e-07 6.9729e-16)
(2.11041e-06 6.09082e-07 -3.7781e-16)
(1.84583e-06 7.02784e-07 3.91972e-16)
(1.59894e-06 7.57155e-07 -2.33575e-16)
(1.40226e-06 7.83834e-07 -3.25909e-16)
(1.23381e-06 8.06532e-07 -1.76891e-16)
(1.07739e-06 8.13771e-07 1.11423e-16)
(9.2442e-07 8.11174e-07 8.70957e-16)
(7.91543e-07 7.92367e-07 9.3304e-16)
(6.71576e-07 7.58375e-07 -4.54344e-17)
(5.63809e-07 7.22541e-07 -3.1135e-16)
(4.76664e-07 6.98695e-07 -5.7795e-17)
(4.01737e-07 7.04674e-07 -1.41476e-15)
(3.2597e-07 6.84244e-07 1.53368e-17)
(2.51855e-07 6.64796e-07 -5.91439e-16)
(1.70797e-07 6.21419e-07 -1.24628e-16)
(8.59818e-08 6.51446e-07 1.8108e-16)
(-2.92425e-05 2.45153e-05 -8.97754e-18)
(-2.2517e-05 1.92977e-05 -8.12154e-18)
(-1.43067e-05 1.06389e-05 7.41557e-18)
(-1.20041e-05 9.26593e-06 -8.07599e-19)
(-1.08307e-05 7.32434e-06 -1.58421e-17)
(-1.07098e-05 6.43279e-06 1.07037e-17)
(-1.14701e-05 5.71893e-06 6.22131e-18)
(-1.09486e-05 4.63078e-06 -1.51458e-17)
(-8.08557e-06 1.9181e-06 5.96286e-18)
(-4.30702e-05 1.17997e-05 -9.28613e-18)
(1.26141e-05 7.79631e-06 9.16655e-18)
(-1.94446e-05 2.82338e-06 -9.332e-18)
(-1.29138e-06 7.77351e-06 -2.78503e-17)
(-9.80058e-06 6.47154e-06 3.89451e-18)
(-6.2835e-06 7.5756e-06 1.10949e-17)
(-3.91022e-06 7.90551e-06 -1.17582e-18)
(-9.91163e-07 8.10613e-06 2.23331e-17)
(8.29252e-07 7.85902e-06 -5.00816e-17)
(1.62448e-06 6.98261e-06 -2.77263e-17)
(5.8419e-06 5.09875e-06 1.9945e-18)
(2.2154e-05 6.39841e-06 -1.53192e-18)
(-9.94437e-06 1.10674e-05 2.21719e-17)
(-7.16262e-06 -5.88878e-06 -7.51333e-17)
(2.28445e-05 6.83285e-06 1.34969e-16)
(-7.90403e-06 1.50787e-06 1.85154e-17)
(-8.19845e-06 -1.32458e-06 1.35533e-17)
(4.58794e-06 8.538e-07 2.36723e-17)
(5.8113e-06 8.24219e-07 4.78767e-17)
(6.61743e-06 4.88437e-07 1.16045e-17)
(6.54054e-06 3.58607e-08 2.33193e-17)
(5.88984e-06 -4.3571e-07 -1.57452e-17)
(5.39146e-06 -7.64811e-07 -5.03633e-17)
(5.0724e-06 -9.25986e-07 2.22748e-18)
(4.88877e-06 -9.99423e-07 1.27149e-17)
(4.7151e-06 -1.04679e-06 3.98966e-17)
(4.5766e-06 -1.1305e-06 -2.15369e-17)
(4.42399e-06 -1.23635e-06 2.1426e-18)
(4.33366e-06 -1.38313e-06 -2.09671e-17)
(4.23794e-06 -1.52104e-06 1.0858e-17)
(4.18722e-06 -1.64749e-06 -2.58035e-19)
(4.13985e-06 -1.73648e-06 -9.49256e-18)
(4.12595e-06 -1.81141e-06 -6.48357e-18)
(4.11035e-06 -1.85086e-06 3.98043e-19)
(4.11634e-06 -1.87996e-06 -8.84528e-18)
(4.1167e-06 -1.87887e-06 -5.07792e-18)
(4.1279e-06 -1.87088e-06 5.07604e-17)
(4.12865e-06 -1.83186e-06 2.68516e-17)
(4.1276e-06 -1.77994e-06 -6.16951e-17)
(4.11134e-06 -1.69781e-06 3.2864e-17)
(4.08314e-06 -1.59492e-06 1.40202e-17)
(4.03726e-06 -1.46726e-06 6.48571e-17)
(3.97112e-06 -1.32977e-06 -1.51652e-16)
(3.88882e-06 -1.17694e-06 9.97288e-18)
(3.78424e-06 -1.0186e-06 1.50209e-17)
(3.66606e-06 -8.65194e-07 7.30426e-17)
(3.53045e-06 -7.1527e-07 -8.39775e-17)
(3.38586e-06 -5.70809e-07 1.70406e-16)
(3.23114e-06 -4.29332e-07 6.88838e-17)
(3.05632e-06 -2.88919e-07 -1.00134e-16)
(2.87822e-06 -1.55469e-07 1.41113e-16)
(2.67903e-06 -1.38231e-08 3.42889e-17)
(2.49004e-06 1.15521e-07 5.54325e-16)
(2.27482e-06 2.38386e-07 -1.17229e-18)
(2.06473e-06 3.55006e-07 -3.24975e-16)
(1.84426e-06 4.47629e-07 5.01667e-16)
(1.63016e-06 5.25725e-07 3.67919e-18)
(1.45465e-06 5.64648e-07 -2.66867e-16)
(1.2953e-06 6.01376e-07 1.79639e-16)
(1.14182e-06 6.30851e-07 -5.48699e-17)
(9.91428e-07 6.57346e-07 3.90355e-16)
(8.44812e-07 6.63663e-07 2.1399e-17)
(7.05711e-07 6.42891e-07 -3.20068e-17)
(5.90438e-07 6.41177e-07 2.9037e-16)
(4.9225e-07 6.42251e-07 -1.81354e-18)
(4.10299e-07 6.50281e-07 -6.68032e-17)
(3.3038e-07 6.3809e-07 -1.09654e-16)
(2.51082e-07 6.23371e-07 -3.59857e-16)
(1.67338e-07 5.80275e-07 2.32566e-16)
(8.23974e-08 6.11951e-07 -3.41119e-16)
(-1.55471e-05 1.77629e-05 8.71041e-18)
(-9.01982e-06 1.29745e-05 4.41154e-18)
(-3.91126e-06 6.13561e-06 -1.27147e-17)
(-3.29854e-06 4.63098e-06 -1.3006e-17)
(-2.53569e-06 2.58334e-06 1.70481e-17)
(-1.96285e-06 1.61068e-06 -1.03028e-17)
(-8.88052e-07 1.15529e-06 6.75785e-18)
(1.58732e-05 7.44903e-07 2.27004e-17)
(0.000227785 4.59128e-07 -5.35701e-18)
(-0.000192216 -3.1338e-06 4.02375e-18)
(-3.23628e-06 1.44559e-05 -2.04485e-18)
(-8.73014e-05 -1.73088e-05 3.06644e-18)
(3.8332e-05 6.34834e-06 1.72372e-17)
(-3.54452e-05 -3.35224e-06 -6.90665e-18)
(-1.46149e-05 5.71408e-07 -4.67226e-17)
(-1.80468e-05 8.41459e-07 -1.85649e-17)
(-1.3674e-05 1.75132e-06 -1.9842e-17)
(-8.83223e-06 2.39477e-06 1.89728e-18)
(-2.91098e-06 2.86803e-06 1.64513e-17)
(3.23892e-06 3.25258e-06 -7.02435e-18)
(3.794e-07 2.16735e-06 2.54436e-17)
(-2.19617e-05 -4.35333e-06 -4.14435e-17)
(8.68349e-06 3.81548e-07 7.03417e-17)
(4.90269e-05 9.5927e-06 -6.2031e-17)
(1.71893e-05 3.19236e-06 -6.6179e-17)
(-3.70617e-06 -1.28703e-06 -2.12778e-17)
(2.92206e-06 -7.32089e-07 -7.68594e-18)
(3.8489e-06 -5.71476e-07 -6.10703e-18)
(4.71245e-06 -7.0097e-07 3.54609e-18)
(5.89518e-06 -8.96958e-07 -1.50709e-17)
(6.04684e-06 -1.21718e-06 -3.93133e-18)
(5.60595e-06 -1.54709e-06 3.74116e-17)
(5.09446e-06 -1.76506e-06 2.17168e-17)
(4.71527e-06 -1.83953e-06 5.65968e-18)
(4.46701e-06 -1.80521e-06 -7.0426e-17)
(4.28257e-06 -1.74428e-06 2.32013e-18)
(4.12361e-06 -1.70691e-06 -1.25217e-19)
(3.97547e-06 -1.70646e-06 2.11017e-18)
(3.8433e-06 -1.71614e-06 1.07938e-17)
(3.72858e-06 -1.7285e-06 2.22269e-18)
(3.63218e-06 -1.72208e-06 -7.26934e-18)
(3.5535e-06 -1.71616e-06 -6.64453e-18)
(3.4922e-06 -1.69393e-06 -1.58086e-17)
(3.44519e-06 -1.67989e-06 -3.74443e-18)
(3.41294e-06 -1.65122e-06 -2.92452e-18)
(3.39027e-06 -1.6244e-06 -1.62897e-17)
(3.37661e-06 -1.58333e-06 8.55832e-18)
(3.36518e-06 -1.54081e-06 -1.95214e-17)
(3.35486e-06 -1.47971e-06 -1.19937e-16)
(3.33868e-06 -1.41668e-06 8.39569e-17)
(3.31553e-06 -1.33391e-06 3.13561e-17)
(3.2805e-06 -1.23892e-06 -1.21251e-18)
(3.23348e-06 -1.13149e-06 1.51428e-17)
(3.17218e-06 -1.01995e-06 2.37746e-17)
(3.09768e-06 -9.01534e-07 -3.12983e-16)
(3.01099e-06 -7.83272e-07 -7.30056e-19)
(2.91264e-06 -6.66785e-07 5.12746e-17)
(2.80381e-06 -5.47786e-07 -2.57899e-17)
(2.68463e-06 -4.2866e-07 1.44209e-16)
(2.55503e-06 -3.07408e-07 -6.93683e-16)
(2.41987e-06 -1.88608e-07 2.00758e-16)
(2.26687e-06 -6.68862e-08 1.2048e-16)
(2.11363e-06 4.74215e-08 -8.05138e-16)
(1.94456e-06 1.5248e-07 3.44096e-16)
(1.77068e-06 2.47261e-07 -3.09713e-16)
(1.59652e-06 3.2746e-07 8.08312e-17)
(1.44327e-06 3.75565e-07 -1.95273e-16)
(1.30589e-06 4.17857e-07 2.04209e-16)
(1.16649e-06 4.59823e-07 1.47462e-16)
(1.02013e-06 4.93929e-07 -2.18771e-16)
(8.72048e-07 5.14279e-07 -3.43039e-16)
(7.34741e-07 5.3354e-07 -2.10696e-17)
(6.16485e-07 5.48019e-07 -4.79778e-16)
(5.07713e-07 5.65071e-07 -8.80617e-17)
(4.18442e-07 5.96917e-07 1.054e-15)
(3.32086e-07 5.90008e-07 -2.66504e-16)
(2.48642e-07 5.77195e-07 8.22864e-16)
(1.62718e-07 5.39552e-07 -6.15664e-16)
(7.74941e-08 5.71628e-07 2.54884e-16)
(1.13184e-06 6.66402e-06 -7.3205e-18)
(5.65718e-06 3.64514e-06 1.28217e-18)
(6.07777e-06 4.66541e-07 -1.95508e-18)
(5.37608e-06 -2.92504e-07 -5.79602e-18)
(5.0829e-06 -1.9731e-06 -1.81558e-17)
(4.95587e-06 -2.85559e-06 8.15808e-18)
(4.77827e-06 -3.09754e-06 2.43826e-18)
(3.78796e-06 -3.08552e-06 -1.87066e-17)
(-2.34375e-05 -4.13298e-06 3.65419e-18)
(2.32475e-06 -1.19951e-05 1.28725e-18)
(2.72368e-06 -4.80512e-06 2.86499e-18)
(2.25517e-05 -3.09801e-06 -1.32624e-18)
(-9.46243e-06 -1.88241e-06 -9.71939e-18)
(5.40924e-06 -1.78036e-06 -4.17474e-18)
(-1.95538e-05 -4.84518e-06 8.25354e-18)
(-1.496e-05 -2.46784e-06 1.51333e-17)
(-2.10447e-05 -3.27351e-06 3.81655e-18)
(-1.86188e-05 -2.66782e-06 1.18448e-17)
(-1.46587e-05 -2.28553e-06 -2.26647e-17)
(-8.39402e-06 -1.80285e-06 6.80691e-18)
(-1.50072e-06 -1.92354e-06 1.30009e-17)
(8.87649e-06 -1.10176e-06 2.73916e-17)
(1.92241e-05 2.91949e-06 -2.71617e-17)
(2.35446e-05 4.38144e-06 -6.0478e-17)
(1.34351e-05 1.03751e-06 4.27804e-17)
(4.49494e-06 -1.67397e-06 2.02237e-17)
(5.81653e-06 -1.98616e-06 1.94489e-18)
(4.02062e-06 -2.07838e-06 -2.8696e-18)
(2.01104e-06 -2.36083e-06 4.90213e-18)
(2.77821e-06 -2.48558e-06 1.61385e-17)
(4.10247e-06 -2.58474e-06 -3.42506e-19)
(4.76209e-06 -2.70673e-06 -2.45272e-17)
(4.74594e-06 -2.77564e-06 -3.44365e-17)
(4.42741e-06 -2.75262e-06 -2.31355e-17)
(4.11701e-06 -2.62432e-06 5.31904e-17)
(3.86533e-06 -2.4529e-06 1.68628e-17)
(3.68164e-06 -2.27844e-06 -8.39689e-18)
(3.53678e-06 -2.13962e-06 -1.29455e-18)
(3.40854e-06 -2.02535e-06 1.11972e-18)
(3.2917e-06 -1.93682e-06 -5.73184e-18)
(3.18172e-06 -1.8489e-06 -6.02663e-18)
(3.08375e-06 -1.76387e-06 3.91247e-18)
(2.99656e-06 -1.6724e-06 1.86976e-18)
(2.9238e-06 -1.58942e-06 1.91104e-18)
(2.86215e-06 -1.50903e-06 -9.1999e-18)
(2.81125e-06 -1.44824e-06 -6.20426e-18)
(2.76851e-06 -1.38703e-06 5.53134e-17)
(2.73129e-06 -1.33983e-06 -8.49106e-18)
(2.69847e-06 -1.28774e-06 7.27753e-18)
(2.66658e-06 -1.23604e-06 -7.25773e-17)
(2.63511e-06 -1.17357e-06 -4.06287e-18)
(2.59953e-06 -1.11031e-06 -2.32877e-17)
(2.56154e-06 -1.0337e-06 7.36008e-17)
(2.51745e-06 -9.50212e-07 3.76534e-18)
(2.46855e-06 -8.63109e-07 -2.01351e-16)
(2.41271e-06 -7.72176e-07 9.98184e-17)
(2.35073e-06 -6.78014e-07 -1.07637e-17)
(2.28266e-06 -5.81686e-07 -1.40938e-16)
(2.206e-06 -4.832e-07 1.39832e-16)
(2.12268e-06 -3.8158e-07 1.96054e-16)
(2.02975e-06 -2.78827e-07 2.22777e-16)
(1.92909e-06 -1.75095e-07 -6.48526e-17)
(1.8179e-06 -7.59869e-08 2.0169e-16)
(1.69705e-06 1.67828e-08 -3.05805e-16)
(1.56891e-06 1.02529e-07 3.08945e-17)
(1.43447e-06 1.81208e-07 -1.28289e-16)
(1.31743e-06 2.26584e-07 4.28151e-16)
(1.20395e-06 2.67946e-07 1.15588e-17)
(1.09234e-06 3.04905e-07 1.74912e-18)
(9.72092e-07 3.48506e-07 -3.62057e-16)
(8.45775e-07 3.85449e-07 1.26634e-16)
(7.28493e-07 4.08156e-07 8.95281e-17)
(6.10384e-07 4.49892e-07 5.12767e-16)
(5.14304e-07 4.8739e-07 1.1585e-16)
(4.13699e-07 5.26879e-07 -1.08906e-15)
(3.21832e-07 5.32579e-07 -2.84458e-16)
(2.38002e-07 5.28282e-07 -1.41966e-16)
(1.52834e-07 4.94505e-07 1.9399e-16)
(7.08101e-08 5.32284e-07 3.55136e-16)
(1.43954e-05 -3.99662e-06 -4.31912e-18)
(1.51766e-05 -5.27634e-06 -3.26212e-18)
(1.06647e-05 -5.15963e-06 9.2643e-18)
(9.34152e-06 -4.88811e-06 2.76987e-18)
(8.38732e-06 -5.65874e-06 -5.17836e-18)
(7.61955e-06 -6.155e-06 -1.67395e-17)
(7.06746e-06 -6.31165e-06 -7.5953e-18)
(7.01064e-06 -6.12617e-06 1.33023e-17)
(8.43877e-06 -5.87262e-06 -8.53146e-18)
(1.21255e-06 -5.00876e-06 -1.11045e-17)
(7.14203e-06 -4.80071e-06 4.241e-18)
(0.000102024 -4.97296e-06 9.3446e-20)
(-7.71456e-05 -4.97278e-06 8.4233e-18)
(1.22558e-05 2.55694e-06 -4.33304e-18)
(-4.02566e-05 -1.23014e-05 -1.52271e-18)
(2.11123e-05 -5.98359e-07 1.99285e-17)
(-2.42388e-05 -6.72966e-06 3.48953e-17)
(-1.30427e-05 -4.55611e-06 -1.08185e-17)
(-1.68088e-05 -4.98295e-06 3.77947e-18)
(-1.36082e-05 -4.57802e-06 1.15127e-17)
(-8.84298e-06 -4.16485e-06 2.06495e-18)
(-2.17987e-06 -3.22658e-06 3.76934e-18)
(4.73045e-06 -2.01178e-06 5.94148e-18)
(1.1083e-05 -9.38908e-07 5.6811e-17)
(1.33493e-05 -1.18703e-06 2.01902e-17)
(1.19722e-05 -1.74922e-06 -4.37383e-19)
(1.1436e-05 -1.74573e-06 9.06393e-18)
(8.80781e-06 -1.74857e-06 1.20115e-18)
(4.46407e-06 -2.04591e-06 1.41972e-17)
(1.67106e-06 -2.36477e-06 -1.93274e-18)
(1.12089e-06 -2.55651e-06 -2.46177e-17)
(1.74379e-06 -2.63456e-06 -2.72973e-17)
(2.41942e-06 -2.63572e-06 1.8165e-17)
(2.5834e-06 -2.64174e-06 8.5309e-18)
(2.80503e-06 -2.5504e-06 -2.91674e-18)
(2.64288e-06 -2.41831e-06 -3.01201e-18)
(2.55102e-06 -2.2327e-06 8.39869e-18)
(2.44152e-06 -2.06616e-06 8.83915e-18)
(2.35654e-06 -1.93285e-06 -8.44742e-18)
(2.28723e-06 -1.83352e-06 8.77023e-18)
(2.22498e-06 -1.73735e-06 1.29255e-17)
(2.16467e-06 -1.64176e-06 6.61123e-18)
(2.10519e-06 -1.54296e-06 -4.98461e-18)
(2.04574e-06 -1.45617e-06 -1.87309e-18)
(1.98804e-06 -1.37461e-06 -6.03822e-18)
(1.93322e-06 -1.30381e-06 1.63858e-17)
(1.88352e-06 -1.23481e-06 3.21944e-17)
(1.83673e-06 -1.17181e-06 -1.61346e-17)
(1.79613e-06 -1.10883e-06 1.66029e-17)
(1.75776e-06 -1.05462e-06 2.05211e-17)
(1.72573e-06 -9.93724e-07 2.91292e-17)
(1.69517e-06 -9.27974e-07 3.75346e-17)
(1.66973e-06 -8.56515e-07 -1.41534e-18)
(1.64329e-06 -7.84658e-07 2.11189e-17)
(1.61928e-06 -7.10137e-07 8.46237e-17)
(1.59322e-06 -6.36746e-07 -2.88218e-17)
(1.56601e-06 -5.61813e-07 -9.74017e-18)
(1.53577e-06 -4.85081e-07 1.52077e-16)
(1.50157e-06 -4.0724e-07 5.02409e-19)
(1.46398e-06 -3.27786e-07 1.2292e-16)
(1.41889e-06 -2.47795e-07 -3.38057e-16)
(1.36962e-06 -1.66957e-07 -1.05922e-16)
(1.31019e-06 -9.0124e-08 -2.16665e-17)
(1.24575e-06 -1.75586e-08 -2.08691e-16)
(1.17221e-06 5.07842e-08 9.67899e-17)
(1.09465e-06 1.14345e-07 6.35257e-17)
(1.02921e-06 1.54649e-07 -5.86235e-18)
(9.55711e-07 1.88416e-07 -1.60237e-16)
(8.90858e-07 2.27569e-07 -8.82238e-17)
(8.10704e-07 2.57286e-07 8.91937e-17)
(7.28464e-07 2.89542e-07 -5.30538e-17)
(6.4174e-07 3.26551e-07 -4.10599e-17)
(5.6036e-07 3.6679e-07 5.36258e-16)
(4.70729e-07 4.08022e-07 7.81894e-17)
(3.84494e-07 4.5631e-07 3.72243e-16)
(2.99024e-07 4.7313e-07 4.27196e-16)
(2.21732e-07 4.79265e-07 6.33064e-17)
(1.44695e-07 4.51322e-07 2.74053e-16)
(6.79682e-08 4.92561e-07 8.45756e-17)
(1.67553e-05 -1.35636e-05 -2.50626e-19)
(1.40239e-05 -1.33069e-05 -1.18084e-18)
(8.12542e-06 -1.05305e-05 -1.29208e-18)
(7.05997e-06 -9.06552e-06 -1.61016e-18)
(6.17759e-06 -8.60967e-06 7.39514e-18)
(5.43024e-06 -8.32083e-06 1.50578e-17)
(4.86543e-06 -8.17042e-06 1.04075e-17)
(4.52892e-06 -7.88626e-06 -4.59867e-18)
(4.16242e-06 -7.42697e-06 5.16864e-18)
(3.28997e-06 -6.94627e-06 1.59291e-17)
(3.4091e-06 -6.10651e-06 -5.8982e-18)
(-5.4603e-06 -5.70946e-06 2.18654e-18)
(3.70905e-06 -7.69679e-06 6.87003e-18)
(4.10024e-06 -5.37804e-06 5.05364e-18)
(7.07628e-06 -3.80033e-06 6.26273e-19)
(6.11732e-06 -4.29834e-06 2.23344e-18)
(5.19592e-07 -4.25601e-06 -8.97116e-18)
(-3.21543e-06 -4.17396e-06 9.39091e-18)
(-7.84921e-06 -4.36084e-06 9.47055e-18)
(-9.95111e-06 -4.41522e-06 -9.5448e-18)
(-1.04594e-05 -4.44315e-06 -9.62084e-19)
(-9.0576e-06 -4.38139e-06 3.42018e-18)
(-5.54531e-06 -4.0697e-06 -9.63773e-18)
(9.01552e-08 -3.3634e-06 -3.93216e-17)
(5.6643e-06 -2.79389e-06 -3.34733e-17)
(9.41602e-06 -2.44413e-06 1.88587e-17)
(1.19818e-05 -2.08698e-06 -1.38515e-19)
(1.26295e-05 -1.79269e-06 3.41003e-18)
(1.02902e-05 -1.76793e-06 -2.71281e-17)
(6.40366e-06 -1.99655e-06 -3.44513e-17)
(3.15204e-06 -2.25582e-06 -1.58427e-18)
(1.75659e-06 -2.24497e-06 4.50875e-17)
(1.56713e-06 -1.75821e-06 -1.78426e-17)
(-1.28107e-06 -2.71967e-06 -1.29085e-17)
(2.67676e-06 -2.70816e-06 -2.48538e-18)
(1.49115e-06 -2.76843e-06 6.13561e-18)
(1.97785e-06 -2.45965e-06 -7.88357e-18)
(1.84787e-06 -2.26866e-06 -4.54499e-19)
(1.83894e-06 -2.09226e-06 5.01861e-18)
(1.80719e-06 -1.96939e-06 -2.26549e-19)
(1.76429e-06 -1.87104e-06 6.24634e-18)
(1.72265e-06 -1.79184e-06 -3.38729e-19)
(1.67861e-06 -1.70971e-06 3.30685e-18)
(1.63019e-06 -1.62011e-06 -4.79888e-19)
(1.58152e-06 -1.51904e-06 6.10527e-18)
(1.5329e-06 -1.41903e-06 -2.2599e-19)
(1.48834e-06 -1.31952e-06 -1.81396e-17)
(1.44596e-06 -1.23181e-06 -1.18396e-17)
(1.40996e-06 -1.14296e-06 -4.06856e-18)
(1.37761e-06 -1.05617e-06 2.26866e-17)
(1.35407e-06 -9.65609e-07 5.45062e-17)
(1.333e-06 -8.84829e-07 -2.83222e-18)
(1.31866e-06 -8.01497e-07 -3.15051e-17)
(1.30462e-06 -7.25925e-07 2.11631e-17)
(1.29557e-06 -6.50248e-07 4.56264e-17)
(1.28542e-06 -5.78517e-07 -5.9171e-17)
(1.27858e-06 -5.05539e-07 9.77891e-17)
(1.26929e-06 -4.35818e-07 5.16426e-17)
(1.25947e-06 -3.64578e-07 1.26367e-17)
(1.24595e-06 -2.93547e-07 1.82656e-16)
(1.22752e-06 -2.21627e-07 7.42594e-17)
(1.20416e-06 -1.50354e-07 -1.63562e-16)
(1.17107e-06 -8.26007e-08 1.63341e-16)
(1.13319e-06 -1.84595e-08 1.11085e-16)
(1.08429e-06 4.24085e-08 -1.69018e-16)
(1.03272e-06 1.01003e-07 2.13736e-17)
(9.72023e-07 1.3242e-07 -6.06085e-17)
(9.27012e-07 1.72211e-07 -1.39932e-16)
(8.77873e-07 1.95306e-07 -6.27143e-17)
(8.16214e-07 2.25624e-07 3.12428e-17)
(7.54481e-07 2.57405e-07 8.91033e-17)
(6.77015e-07 2.85891e-07 -9.96265e-17)
(5.99878e-07 3.30289e-07 -4.09946e-16)
(5.09859e-07 3.73966e-07 -1.06302e-16)
(4.2174e-07 4.23779e-07 1.96599e-16)
(3.26027e-07 4.46217e-07 -2.16243e-16)
(2.41449e-07 4.52037e-07 -3.47907e-16)
(1.58488e-07 4.19908e-07 -2.05662e-16)
(7.59489e-08 4.52555e-07 -3.34944e-16)
(7.16538e-06 -1.23114e-05 1.08094e-18)
(3.84604e-06 -1.20112e-05 5.43612e-18)
(8.52455e-07 -9.63039e-06 -6.39445e-19)
(6.64782e-07 -8.17774e-06 -2.31903e-18)
(4.23239e-07 -7.27475e-06 -4.47251e-18)
(2.28692e-07 -6.56771e-06 -5.83448e-18)
(1.21788e-07 -6.20617e-06 -5.50392e-18)
(1.28745e-07 -5.97569e-06 -4.19306e-18)
(2.48731e-07 -5.71937e-06 -2.30855e-18)
(2.54706e-07 -5.30011e-06 8.95886e-19)
(6.59066e-07 -4.76274e-06 1.00326e-17)
(2.24781e-06 -4.27225e-06 5.95599e-19)
(-1.10924e-06 -3.63296e-06 -5.61091e-19)
(8.56615e-07 -3.15664e-06 -8.5093e-18)
(7.15932e-07 -3.21277e-06 4.50311e-19)
(2.55769e-06 -2.73798e-06 -1.84394e-18)
(2.11475e-06 -2.57441e-06 -1.32335e-17)
(2.13425e-06 -2.33188e-06 -3.80933e-18)
(7.17333e-08 -2.32647e-06 -6.20785e-19)
(-2.206e-06 -2.40809e-06 6.34964e-18)
(-4.44483e-06 -2.65081e-06 5.09653e-18)
(-5.68263e-06 -2.92525e-06 -5.21093e-18)
(-5.44833e-06 -3.09769e-06 -9.70964e-18)
(-3.72715e-06 -3.00478e-06 -9.84443e-18)
(-9.37739e-07 -2.85348e-06 2.48248e-17)
(2.5038e-06 -2.61337e-06 3.36768e-18)
(6.0053e-06 -2.27489e-06 -2.65459e-17)
(8.68789e-06 -1.89255e-06 -8.65329e-18)
(9.67957e-06 -1.58572e-06 4.22237e-18)
(9.08699e-06 -1.36648e-06 2.2171e-17)
(9.03823e-06 -8.53649e-07 3.34202e-17)
(1.50203e-05 1.14869e-06 -1.69478e-17)
(1.70273e-05 2.02203e-06 8.29821e-18)
(-5.71549e-05 -1.46145e-05 2.63878e-17)