/*--------------------------------*- C++ -*----------------------------------*\
| =========                 |                                                 |
| \\      /  F ield         | OpenFOAM: The Open Source CFD Toolbox           |
|  \\    /   O peration     | Version:  2306                                  |
|   \\  /    A nd           | Website:  www.openfoam.com                      |
|    \\/     M anipulation  |                                                 |
\*---------------------------------------------------------------------------*/
FoamFile
{
    version     2.0;
    format      ascii;
    arch        "LSB;label=32;scalar=64";
    class       volVectorField;
    location    "700";
    object      U;
}
// * * * * * * * * * * * * * * * * * * * * * * * * * * * * * * * * * * * * * //

dimensions      [0 1 -1 0 0 0 0];

internalField   nonuniform List<vector> 
1340
(
(26.0616 2.65164 1.04454e-16)
(25.8628 3.22883 1.52716e-17)
(26.0517 2.64885 -5.67221e-17)
(25.9546 2.86823 -4.39593e-16)
(25.8668 3.22694 2.55398e-19)
(26.0436 2.64518 -4.78253e-19)
(25.9262 3.06463 1.53387e-16)
(25.949 2.86114 -4.40802e-18)
(25.8694 3.22507 -2.1849e-17)
(26.0369 2.64094 2.64092e-16)
(25.9664 2.9893 5.22317e-16)
(25.9588 2.93009 3.0112e-16)
(25.9242 3.06084 -7.07237e-17)
(25.9432 2.85429 1.56279e-16)
(25.8714 3.22301 9.7385e-17)
(26.0301 2.63649 -2.64708e-16)
(26.0008 2.94307 -9.02807e-17)
(25.9845 2.93386 2.41354e-17)
(25.9612 2.98374 -8.02734e-18)
(25.953 2.92293 -3.64842e-18)
(25.9219 3.05687 -5.07287e-17)
(25.937 2.84775 1.03615e-17)
(25.8731 3.2207 3.85182e-19)
(26.0228 2.63189 -5.17057e-19)
(26.0471 2.88786 2.46667e-16)
(26.0293 2.90472 3.02274e-16)
(26.0121 2.91213 3.60716e-16)
(25.9927 2.93653 1.3865e-16)
(25.9772 2.92673 -1.49183e-17)
(25.9555 2.97822 -2.23606e-16)
(25.9469 2.91605 -5.09919e-17)
(25.9193 3.05276 1.13985e-16)
(25.9307 2.84151 -1.49049e-16)
(25.8742 3.21816 -4.05423e-19)
(26.0155 2.62708 -5.22312e-19)
(26.0826 2.83673 6.63211e-17)
(26.0659 2.85357 -3.02464e-16)
(26.0508 2.86839 -3.42535e-17)
(26.0352 2.88097 -1.91982e-16)
(26.0185 2.89802 -4.43217e-18)
(26.0024 2.90519 -7.7899e-18)
(25.9843 2.93023 -1.13695e-16)
(25.9695 2.91989 1.40113e-17)
(25.9496 2.97276 -9.0184e-19)
(25.9405 2.90946 -2.38624e-18)
(25.9162 3.04852 -2.8006e-18)
(25.9243 2.83555 6.18412e-18)
(25.8746 3.21544 -9.67991e-17)
(26.0083 2.62209 -1.42154e-16)
(26.1293 2.74232 1.84716e-16)
(26.1149 2.76623 -1.43105e-16)
(26.0995 2.78904 -6.84854e-17)
(26.0832 2.81067 2.30914e-17)
(26.0665 2.83118 -5.84157e-20)
(26.0512 2.84765 8.50668e-18)
(26.0373 2.86231 9.23286e-19)
(26.0228 2.87464 2.05982e-16)
(26.0074 2.89179 8.89235e-17)
(25.9924 2.89868 -1.21406e-16)
(25.9756 2.92422 1.11408e-16)
(25.9614 2.91339 -4.60499e-19)
(25.9432 2.9674 1.97245e-16)
(25.9338 2.90319 4.11959e-17)
(25.9127 3.0442 -6.36874e-17)
(25.9177 2.82989 1.47187e-16)
(25.8744 3.21255 8.29484e-17)
(26.0012 2.617 1.86655e-16)
(26.1462 2.61782 1.65474e-16)
(26.1415 2.64344 2.71692e-17)
(26.1351 2.66874 2.63715e-17)
(26.1271 2.69358 3.30025e-17)
(26.1174 2.71782 8.13413e-18)
(26.1062 2.74134 -1.22089e-16)
(26.0936 2.76404 -1.27288e-16)
(26.0799 2.78584 2.39401e-18)
(26.0653 2.80663 -5.59891e-17)
(26.0502 2.82651 -3.36276e-17)
(26.0363 2.84251 8.52113e-18)
(26.0236 2.85692 9.28993e-19)
(26.0103 2.86894 -6.78044e-18)
(25.996 2.88606 -9.7733e-17)
(25.982 2.89264 1.04915e-16)
(25.9665 2.91854 -1.02848e-16)
(25.953 2.90727 -4.75143e-19)
(25.9366 2.96217 -1.98685e-16)
(25.9268 2.89728 -4.61845e-17)
(25.9088 3.03981 5.72965e-17)
(25.9109 2.82456 1.7329e-18)
(25.8736 3.20949 -1.44841e-16)
(25.994 2.61187 -1.82852e-18)
(26.096 2.47229 1.99209e-17)
(26.1031 2.49279 5.80841e-17)
(26.109 2.51405 -2.87587e-17)
(26.1135 2.53596 5.74438e-17)
(26.1165 2.55841 2.03613e-17)
(26.118 2.58127 -7.73708e-17)
(26.1179 2.60442 -8.45836e-18)
(26.1161 2.62772 -7.99021e-18)
(26.1128 2.65103 2.5349e-17)
(26.1078 2.67421 1.73811e-17)
(26.1013 2.69714 -9.33734e-18)
(26.0932 2.71967 -3.48178e-19)
(26.0836 2.74168 -2.42087e-18)
(26.0727 2.76307 2.88429e-17)
(26.0606 2.78376 2.3427e-18)
(26.0475 2.8036 5.02498e-17)
(26.0339 2.82273 3.33982e-17)
(26.0213 2.83817 8.48162e-18)
(26.0097 2.85225 9.29085e-19)
(25.9974 2.86387 -1.83998e-16)
(25.9843 2.88088 -5.01739e-17)
(25.9713 2.88711 -1.81339e-16)
(25.9571 2.91322 1.00462e-16)
(25.9443 2.90157 -4.88041e-19)
(25.9295 2.95712 1.27731e-16)
(25.9195 2.89175 -1.19059e-16)
(25.9044 3.03538 -1.45587e-16)
(25.904 2.81958 1.79742e-18)
(25.8723 3.20628 2.92123e-18)
(25.9867 2.60678 -4.48955e-17)
(25.9397 2.3614 2.03795e-18)
(25.951 2.36828 -2.5546e-19)
(25.9624 2.37595 -3.2254e-19)
(25.9739 2.38444 -7.1723e-18)
(25.9854 2.39381 -5.31184e-18)
(25.9968 2.40408 -1.30317e-17)
(26.008 2.41528 -4.82701e-18)
(26.0189 2.42742 -1.08564e-17)
(26.0294 2.44052 7.80814e-18)
(26.0395 2.45458 5.18904e-17)
(26.0489 2.46958 -1.58954e-17)
(26.0576 2.48551 1.74429e-17)
(26.0654 2.50231 -4.84345e-18)
(26.0723 2.51995 -4.03632e-18)
(26.0781 2.53836 1.9102e-18)
(26.0828 2.55746 -3.65417e-18)
(26.0862 2.57716 -1.24063e-18)
(26.0882 2.59738 4.5164e-18)
(26.0888 2.61798 3.67005e-17)
(26.088 2.63888 -8.35925e-17)
(26.0857 2.65993 4.58088e-18)
(26.082 2.68102 -1.96922e-17)
(26.0767 2.70202 -8.81314e-18)
(26.0699 2.72281 6.52059e-19)
(26.0617 2.74326 8.83773e-17)
(26.0522 2.76327 9.69382e-17)
(26.0415 2.78276 -6.19193e-17)
(26.0299 2.80155 4.79648e-17)
(26.0177 2.81984 -2.87992e-17)
(26.0063 2.83464 8.3915e-18)
(25.9957 2.84831 9.23831e-19)
(25.9845 2.85948 6.66411e-17)
(25.9725 2.87627 1.17996e-16)
(25.9604 2.88212 1.64096e-16)
(25.9475 2.9083 -4.22174e-17)
(25.9354 2.89632 -2.31235e-17)
(25.9222 2.95226 -1.05227e-16)
(25.912 2.88663 -7.02369e-17)
(25.8997 3.03094 2.70587e-18)
(25.8969 2.81496 1.86169e-18)
(25.8704 3.20295 3.39506e-18)
(25.9794 2.60178 4.10425e-17)
(25.7173 2.39729 -1.13693e-18)
(25.7164 2.39708 2.85857e-19)
(25.7149 2.3965 8.35448e-19)
(25.7168 2.39594 -7.56486e-19)
(25.7284 2.39588 -8.61814e-19)
(25.7475 2.39606 2.23861e-18)
(25.7482 2.39478 1.3038e-18)
(25.6796 2.38873 -1.20125e-18)
(25.4948 2.37444 2.86556e-19)
(25.1793 2.34994 1.85961e-18)
(24.7524 2.31531 2.92791e-19)
(24.2556 2.27256 8.58932e-19)
(23.7454 2.22549 -1.09e-18)
(23.2906 2.17959 -3.80253e-18)
(22.9667 2.14182 1.22982e-18)
(22.8435 2.11964 8.09826e-18)
(22.9647 2.11921 1.13337e-18)
(23.3282 2.14309 -1.54023e-18)
(23.8797 2.18868 3.66101e-19)
(24.5203 2.24788 3.46782e-18)
(25.1231 2.30806 -1.93886e-18)
(25.5674 2.3553 7.01726e-18)
(25.7962 2.38107 -1.07487e-17)
(25.8529 2.38778 1.15929e-17)
(25.8371 2.38556 7.25275e-18)
(25.8218 2.38307 1.29629e-18)
(25.825 2.38308 1.84421e-18)
(25.8371 2.38466 1.4544e-17)
(25.8488 2.38653 -1.00416e-18)
(25.8581 2.38831 4.10296e-18)
(25.8665 2.3902 -8.48787e-18)
(25.8748 2.39239 -1.13119e-17)
(25.8833 2.39495 9.63993e-19)
(25.892 2.3979 -3.97625e-18)
(25.9007 2.40128 7.29274e-18)
(25.9097 2.40514 -1.88577e-18)
(25.9189 2.40953 -4.15363e-18)
(25.9283 2.41449 -2.71263e-18)
(25.9379 2.42006 1.54468e-18)
(25.9476 2.42629 -1.79068e-19)
(25.9575 2.43322 1.60064e-18)
(25.9673 2.44088 9.03399e-19)
(25.9772 2.44932 6.80696e-19)
(25.987 2.45856 5.66264e-19)
(25.9966 2.46862 1.38116e-18)
(26.0059 2.47953 8.25262e-18)
(26.0148 2.4913 -4.62453e-18)
(26.0233 2.50393 -3.7196e-17)
(26.0313 2.5174 -1.37957e-18)
(26.0385 2.53171 -1.5296e-17)
(26.045 2.54681 -3.5161e-19)
(26.0506 2.56267 -2.13847e-17)
(26.0551 2.57923 -3.23432e-18)
(26.0587 2.59643 -1.10747e-18)
(26.061 2.61419 4.06579e-18)
(26.0621 2.63242 -3.55673e-17)
(26.062 2.65103 7.55487e-17)
(26.0604 2.66991 -2.19747e-17)
(26.0576 2.68896 -1.08119e-18)
(26.0533 2.70806 -8.2622e-18)
(26.0477 2.7271 4.63594e-17)
(26.0407 2.74597 -1.07434e-17)
(26.0324 2.76455 -1.56823e-17)
(26.023 2.78278 7.6977e-18)
(26.0126 2.80047 -6.75878e-18)
(26.0016 2.81783 2.85775e-17)
(25.9914 2.83192 6.66713e-17)
(25.9818 2.84511 3.87585e-17)
(25.9715 2.85578 -1.82254e-17)
(25.9605 2.87224 -9.61969e-17)
(25.9494 2.8777 -8.4635e-17)
(25.9376 2.90379 1.40478e-18)
(25.9261 2.89154 9.73826e-17)
(25.9145 2.94762 -2.39331e-18)
(25.9042 2.88195 7.55101e-17)
(25.8945 3.02651 -3.49349e-17)
(25.8896 2.81075 1.92943e-18)
(25.8681 3.19951 6.0573e-17)
(25.972 2.59697 -4.21309e-17)
(25.7431 2.4488 5.11396e-20)
(25.7431 2.44868 1.62986e-18)
(25.7423 2.44824 7.22687e-19)
(25.7408 2.44763 -4.74099e-19)
(25.7411 2.44718 -4.96541e-19)
(25.7493 2.44715 -6.42544e-20)
(25.7678 2.44751 -6.02164e-20)
(25.7813 2.44725 1.37313e-18)
(25.7485 2.44365 -9.35679e-19)
(25.6186 2.43308 2.02935e-18)
(25.3623 2.4128 -6.06355e-19)
(24.9858 2.3821 -4.00709e-20)
(24.5232 2.34237 2.00017e-18)
(24.0268 2.29695 1.88083e-19)
(23.5623 2.25101 -1.77061e-18)
(23.2044 2.21126 -4.61047e-19)
(23.0259 2.18523 -2.03285e-18)
(23.0792 2.17962 2.55809e-18)
(23.3749 2.19798 1.64155e-18)
(23.8716 2.23889 1.05802e-18)
(24.4801 2.29533 4.05103e-18)
(25.0777 2.35533 -8.14048e-18)
(25.5399 2.40482 8.19203e-18)
(25.7953 2.43389 -9.48831e-18)
(25.8702 2.44301 -1.53601e-19)
(25.8582 2.4415 -6.70791e-20)
(25.8387 2.43869 -3.49789e-18)
(25.8376 2.43827 -5.82315e-18)
(25.8478 2.43967 5.65017e-19)
(25.8587 2.44149 -1.31759e-18)
(25.8672 2.44321 7.04723e-19)
(25.8744 2.44499 6.06154e-18)
(25.8816 2.44704 -1.45684e-20)
(25.8888 2.44943 6.73695e-18)
(25.8962 2.45216 -5.55373e-18)
(25.9038 2.45528 1.24852e-18)
(25.9115 2.45882 -1.46027e-19)
(25.9194 2.46284 4.00015e-18)
(25.9275 2.46736 -4.9192e-19)
(25.9357 2.47243 5.29897e-19)
(25.944 2.47808 1.34496e-18)
(25.9525 2.48435 7.10095e-19)
(25.961 2.49128 -1.6556e-18)
(25.9694 2.4989 4.57784e-19)
(25.9777 2.50723 6.91246e-19)
(25.9859 2.51631 -7.26793e-18)
(25.9938 2.52613 -3.86029e-18)
(26.0013 2.53673 4.11864e-18)
(26.0084 2.54809 -1.8873e-17)
(26.015 2.56022 7.42691e-18)
(26.0209 2.5731 -3.54946e-18)
(26.0261 2.5867 2.43221e-17)
(26.0304 2.60099 -2.84606e-18)
(26.0339 2.61591 -9.82672e-19)
(26.0363 2.63143 -2.14905e-17)
(26.0377 2.64746 -3.17285e-18)
(26.0379 2.66393 -1.25987e-17)
(26.0369 2.68075 1.15782e-17)
(26.0347 2.69784 3.20518e-17)
(26.0313 2.71509 -1.09413e-16)
(26.0265 2.73241 -4.76995e-17)
(26.0205 2.7497 -8.34375e-17)
(26.0133 2.76682 -8.51629e-17)
(26.0049 2.78377 7.46171e-17)
(25.9957 2.80029 -9.96064e-17)
(25.9858 2.81667 2.40587e-17)
(25.9766 2.82999 3.45146e-18)
(25.9679 2.84264 -2.10229e-17)
(25.9585 2.85276 1.76073e-17)
(25.9484 2.86882 -7.01063e-17)
(25.9382 2.87386 -5.33898e-17)
(25.9275 2.89972 1.41539e-18)
(25.9167 2.88726 -6.60338e-17)
(25.9066 2.94324 -2.44379e-18)
(25.8961 2.87774 2.02794e-16)
(25.889 3.02212 4.06276e-17)
(25.8821 2.80698 1.40383e-16)
(25.8653 3.19597 -5.5677e-17)
(25.9643 2.59243 3.80279e-17)
(25.7651 2.49585 4.27321e-20)
(25.7653 2.49578 -7.89252e-20)
(25.7654 2.49546 -4.69796e-19)
(25.7648 2.495 8.51478e-19)
(25.7633 2.49454 2.3037e-19)
(25.7625 2.49414 -7.3159e-19)
(25.7675 2.49404 3.94113e-19)
(25.7832 2.49444 -2.95167e-21)
(25.8029 2.49481 2.73905e-20)
(25.7965 2.49313 -1.80796e-19)
(25.715 2.48594 4.65719e-20)
(25.5172 2.46989 9.54803e-19)
(25.1944 2.44336 -3.95987e-20)
(24.7706 2.40699 1.6523e-19)
(24.2927 2.36359 1.29613e-18)
(23.8237 2.31796 -2.91047e-19)
(23.4371 2.27657 9.54801e-19)
(23.2082 2.24699 1.54405e-18)
(23.1968 2.23636 -7.9594e-20)
(23.426 2.24919 -1.26639e-18)
(23.8672 2.28521 -1.54993e-18)
(24.4411 2.33848 6.58937e-18)
(25.0301 2.39772 -6.87527e-18)
(25.5067 2.44883 3.24013e-19)
(25.7876 2.48077 -2.03067e-18)
(25.8822 2.49221 -6.01885e-20)
(25.8762 2.4915 -7.1456e-19)
(25.854 2.48848 -6.67729e-20)
(25.8491 2.48775 -2.89031e-18)
(25.8573 2.4891 -3.65515e-21)
(25.8672 2.49098 1.7445e-19)
(25.8747 2.49266 -1.52786e-19)
(25.8808 2.49428 -1.0808e-18)
(25.8868 2.49613 -8.8358e-18)
(25.8931 2.49832 5.39331e-18)
(25.8994 2.50085 -1.25533e-18)
(25.9059 2.50372 -8.30573e-20)
(25.9124 2.50697 -8.43259e-19)
(25.9192 2.51063 -1.43592e-18)
(25.9261 2.51474 1.33885e-19)
(25.9332 2.51935 1.09591e-18)
(25.9403 2.52448 7.14124e-19)
(25.9475 2.53016 2.41935e-18)
(25.9547 2.53643 8.21941e-19)
(25.9619 2.54332 7.56773e-19)
(25.9689 2.55084 -6.90973e-19)
(25.9758 2.55902 -3.20529e-18)
(25.9824 2.56789 3.45253e-18)
(25.9886 2.57744 1.65117e-17)
(25.9944 2.58768 -2.32155e-17)
(25.9997 2.59861 -5.20797e-18)
(26.0044 2.61022 1.26951e-18)
(26.0084 2.62248 -2.49068e-18)
(26.0117 2.63537 -8.67034e-19)
(26.014 2.64884 2.81688e-17)
(26.0155 2.66285 3.88143e-18)
(26.0159 2.67733 -7.0838e-18)
(26.0153 2.69223 -3.10795e-17)
(26.0135 2.70746 -1.617e-17)
(26.0106 2.72294 1.31826e-16)
(26.0066 2.73858 2.30207e-17)
(26.0014 2.7543 -2.91862e-17)
(25.995 2.76999 1.4238e-16)
(25.9876 2.78562 -4.69617e-17)
(25.9793 2.80095 2.64215e-17)
(25.9704 2.8163 -2.8173e-17)
(25.962 2.82882 8.15865e-17)
(25.9541 2.84087 -2.91672e-17)
(25.9455 2.85041 -1.41871e-17)
(25.9364 2.86599 -1.14494e-17)
(25.9269 2.8706 5.44053e-17)
(25.9173 2.89611 1.41891e-18)
(25.9071 2.8835 5.54474e-17)
(25.8984 2.93912 -2.48004e-18)
(25.8878 2.87403 -2.57355e-16)
(25.8832 3.01777 3.01818e-18)
(25.8744 2.80372 -1.35956e-16)
(25.8622 3.19232 7.08784e-17)
(25.9563 2.58824 -2.18708e-18)
(25.784 2.53888 3.57844e-20)
(25.7843 2.53884 -6.61391e-20)
(25.7845 2.5386 1.28456e-18)
(25.7846 2.53826 -9.68488e-19)
(25.7843 2.53792 5.52041e-20)
(25.7829 2.53756 6.00589e-19)
(25.7815 2.53718 -1.61546e-18)
(25.7838 2.53701 -4.55015e-21)
(25.7956 2.53733 2.332e-20)
(25.8164 2.53802 -1.58315e-19)
(25.8271 2.53771 4.24019e-20)
(25.7853 2.53342 -1.08342e-18)
(25.643 2.52146 5.9412e-20)
(25.376 2.49926 1.34818e-18)
(24.9951 2.4665 2.08369e-18)
(24.5405 2.42526 -2.5181e-19)
(24.0719 2.37991 8.44067e-19)
(23.662 2.33676 -1.81744e-18)
(23.3882 2.30349 7.83096e-19)
(23.3171 2.28776 -1.11594e-19)
(23.4831 2.29508 -1.97229e-18)
(23.8704 2.32643 2.69222e-19)
(24.4095 2.37691 3.25968e-19)
(24.9874 2.43585 6.88554e-18)
(25.4751 2.48899 3.4802e-18)
(25.7784 2.52409 1.23056e-18)
(25.891 2.53793 7.90099e-19)
(25.8903 2.53768 -5.8133e-20)
(25.8649 2.53374 2.06897e-18)
(25.8564 2.53199 1.03385e-18)
(25.8637 2.53298 1.66127e-19)
(25.874 2.535 -4.8206e-18)
(25.8813 2.53689 1.02103e-18)
(25.8863 2.53852 8.36124e-18)
(25.891 2.54021 1.39732e-18)
(25.8962 2.5422 1.2288e-18)
(25.9017 2.54451 -3.43847e-20)
(25.9072 2.54716 1.11105e-18)
(25.9128 2.55014 -1.11128e-18)
(25.9186 2.55348 9.58457e-20)
(25.9244 2.55723 8.15408e-19)
(25.9304 2.56141 2.64077e-19)
(25.9365 2.56607 4.75931e-19)
(25.9426 2.57121 -1.55795e-19)
(25.9487 2.57689 6.86709e-19)
(25.9547 2.58311 1.98069e-18)
(25.9605 2.5899 -2.63957e-18)
(25.9662 2.59729 4.08625e-18)
(25.9716 2.60528 2.47578e-18)
(25.9767 2.6139 1.14114e-17)
(25.9813 2.62314 -5.1354e-18)
(25.9854 2.633 6.8289e-18)
(25.989 2.64348 -7.22905e-18)
(25.9919 2.65454 -7.60068e-19)
(25.9941 2.66618 4.40746e-17)
(25.9954 2.67835 -1.97256e-17)
(25.9959 2.69102 7.85674e-19)
(25.9954 2.70412 4.7751e-17)
(25.994 2.71761 -2.4411e-17)
(25.9915 2.73141 -2.51238e-17)
(25.9879 2.74545 -8.79644e-17)
(25.9833 2.75966 1.12059e-18)
(25.9776 2.77393 -8.94882e-18)
(25.971 2.78826 1.52398e-17)
(25.9635 2.80239 1.10999e-17)
(25.9554 2.81668 2.38138e-17)
(25.9478 2.82837 -7.45275e-17)
(25.9406 2.83979 -5.02506e-18)
(25.9327 2.84873 -1.30865e-17)
(25.9244 2.86375 7.02434e-17)
(25.9156 2.86794 -1.09854e-17)
(25.9069 2.89295 1.41437e-18)
(25.8973 2.8803 -5.28554e-18)
(25.89 2.93527 2.23254e-17)
(25.8791 2.87087 1.61045e-16)
(25.8771 3.01345 7.20377e-17)
(25.8663 2.80105 2.24127e-18)
(25.8589 3.1885 3.74891e-17)
(25.9478 2.58455 -7.29679e-17)
(25.8006 2.57844 3.05509e-20)
(25.8009 2.57842 -5.65284e-20)
(25.8012 2.57822 -3.49773e-20)
(25.8014 2.57795 1.14237e-18)
(25.8016 2.57769 4.73513e-20)
(25.8015 2.57743 -5.4478e-19)
(25.8004 2.57711 1.39167e-18)
(25.7987 2.57675 -3.92014e-21)
(25.7989 2.57652 2.01486e-20)
(25.8066 2.57668 -1.37665e-19)
(25.8249 2.57732 3.75649e-20)
(25.8444 2.57771 8.45513e-19)
(25.833 2.57568 -1.3517e-19)
(25.7431 2.5679 -8.49378e-19)
(25.5372 2.55128 -1.8919e-18)
(25.2092 2.52439 -2.29772e-19)
(24.7871 2.48807 -7.55211e-19)
(24.3249 2.44552 1.59162e-18)
(23.8937 2.40225 -8.80419e-19)
(23.5731 2.36556 -9.13369e-20)
(23.4371 2.34334 -9.10552e-19)
(23.5328 2.3421 -1.58135e-18)
(23.8598 2.36457 2.98373e-18)
(24.3607 2.40781 -4.97632e-18)
(24.9288 2.46293 -4.51644e-18)
(25.4331 2.51663 -1.0457e-18)
(25.7678 2.55614 -5.62282e-19)
(25.9078 2.57582 -5.41231e-20)
(25.9162 2.57982 -3.64178e-18)
(25.8842 2.57713 -1.31209e-18)
(25.8655 2.57449 2.49647e-18)
(25.8673 2.57411 8.46825e-18)
(25.8772 2.57537 -2.76111e-20)
(25.8856 2.57712 -5.93808e-18)
(25.8908 2.57881 -8.66665e-18)
(25.8947 2.58046 -1.17953e-18)
(25.8987 2.58224 1.38369e-18)
(25.9032 2.58429 -2.17043e-18)
(25.9079 2.58665 2.24577e-18)
(25.9127 2.58933 -5.83873e-19)
(25.9175 2.59235 5.88932e-19)
(25.9225 2.59573 -1.35892e-18)
(25.9275 2.5995 2.83217e-19)
(25.9326 2.60368 -4.63525e-20)
(25.9376 2.60831 1.62529e-18)
(25.9427 2.61341 -3.42115e-18)
(25.9476 2.61901 -1.15762e-17)
(25.9524 2.62512 2.82036e-18)
(25.957 2.63176 -3.98714e-18)
(25.9613 2.63895 -1.02693e-18)
(25.9652 2.6467 3.39019e-18)
(25.9688 2.65502 -4.73794e-18)
(25.9718 2.6639 -9.26344e-18)
(25.9743 2.67334 -6.63827e-19)
(25.9762 2.68332 -2.23631e-19)
(25.9773 2.69382 3.13812e-18)
(25.9777 2.70481 -5.02937e-18)
(25.9772 2.71626 -3.97245e-17)
(25.9759 2.72811 -3.29364e-18)
(25.9737 2.74033 3.9831e-18)
(25.9705 2.75284 8.37289e-17)
(25.9663 2.7656 1.04168e-18)
(25.9612 2.77849 -3.84724e-18)
(25.9551 2.79154 6.59337e-17)
(25.9482 2.80449 -3.09079e-17)
(25.9409 2.81771 -1.99329e-18)
(25.9339 2.82856 3.13066e-18)
(25.9274 2.83932 9.12533e-18)
(25.9201 2.84765 1.62264e-17)
(25.9125 2.86205 -3.4483e-18)
(25.9043 2.86585 -3.22923e-18)
(25.8966 2.8902 -2.37366e-17)
(25.8872 2.87764 -1.47674e-16)
(25.8815 2.93165 -5.01065e-17)
(25.8701 2.86832 -4.16432e-18)
(25.8711 3.00915 -3.67064e-17)
(25.8575 2.79902 2.43714e-18)
(25.8559 3.18465 -9.66411e-17)
(25.9382 2.58109 1.0539e-18)
(25.8192 2.62362 3.13695e-19)
(25.8195 2.6236 -3.01858e-19)
(25.8198 2.62345 -2.76283e-19)
(25.8201 2.62322 -1.3339e-19)
(25.8204 2.62302 8.28782e-19)
(25.8206 2.62281 5.9253e-19)
(25.8206 2.62259 -5.17193e-19)
(25.8201 2.62232 -2.85918e-19)
(25.8189 2.62201 1.2103e-18)
(25.818 2.62173 -3.66293e-19)
(25.8208 2.62167 9.84885e-20)
(25.8313 2.62203 -7.76094e-19)
(25.8482 2.62262 1.2543e-19)
(25.8558 2.62232 7.587e-19)
(25.8216 2.61879 -4.67912e-19)
(25.7055 2.60901 -2.73508e-18)
(25.4801 2.59043 -7.50756e-19)
(25.1464 2.5622 3.02342e-19)
(24.7364 2.52567 -6.75416e-19)
(24.3078 2.48466 -4.02761e-19)
(23.9346 2.44526 5.00491e-19)
(23.6945 2.41501 -9.51434e-19)
(23.651 2.40128 -1.79822e-18)
(23.832 2.40907 -1.01368e-18)
(24.2131 2.43876 1.42947e-18)
(24.7151 2.48481 -1.64653e-18)
(25.2222 2.53652 1.27222e-18)
(25.6212 2.58141 -1.66368e-18)
(25.8506 2.61064 3.18581e-18)
(25.927 2.62316 -3.40316e-19)
(25.9186 2.62459 3.82807e-18)
(25.8917 2.62209 -4.93322e-18)
(25.8782 2.62018 1.40192e-18)
(25.8795 2.6201 3.67305e-18)
(25.8866 2.62127 6.39151e-18)
(25.893 2.62283 -2.4195e-18)
(25.8973 2.62436 -1.04878e-18)
(25.9005 2.62589 5.53256e-20)
(25.9037 2.62756 -5.49965e-19)
(25.9073 2.62948 -2.26239e-18)
(25.911 2.63171 -3.7182e-18)
(25.9149 2.63423 1.62638e-18)
(25.9188 2.63706 -8.42874e-20)
(25.9227 2.64023 8.55186e-19)
(25.9267 2.64376 -4.91525e-19)
(25.9307 2.64768 -6.51711e-19)
(25.9346 2.652 3.08487e-18)
(25.9384 2.65676 2.47908e-18)
(25.942 2.66197 -2.23303e-18)
(25.9454 2.66765 -5.42017e-18)
(25.9486 2.67381 -1.6995e-17)
(25.9514 2.68047 1.48154e-18)
(25.9538 2.68763 9.49571e-18)
(25.9558 2.6953 -1.31668e-17)
(25.9572 2.70348 -1.82225e-17)
(25.9581 2.71215 1.25074e-17)
(25.9583 2.7213 -5.38312e-18)
(25.9578 2.73091 6.72966e-18)
(25.9565 2.74095 -8.13568e-18)
(25.9545 2.75139 -6.95074e-17)
(25.9516 2.76217 1.03072e-17)
(25.9478 2.77327 4.28513e-17)
(25.9432 2.78458 -1.60251e-17)
(25.9377 2.79616 -3.78528e-18)
(25.9315 2.80773 2.13769e-17)
(25.9249 2.81971 -2.14114e-17)
(25.9186 2.8296 -4.23732e-18)
(25.9128 2.83954 5.05348e-17)
(25.9062 2.84722 3.13759e-18)
(25.8994 2.86078 -1.21693e-17)
(25.8917 2.86428 1.19139e-17)
(25.8852 2.88761 5.19269e-17)
(25.8762 2.87552 3.81995e-17)
(25.8722 2.92787 4.04197e-17)
(25.8602 2.86649 -8.31568e-17)
(25.8642 3.00432 -3.82059e-17)
(25.8484 2.7981 3.20785e-18)
(25.8519 3.1797 5.98559e-17)
(25.9292 2.57916 -1.69063e-17)
(25.8385 2.67099 1.00167e-19)
(25.8388 2.67095 1.62716e-20)
(25.8391 2.67082 1.50791e-19)
(25.8394 2.67062 -2.06328e-19)
(25.8397 2.67044 -8.44755e-19)
(25.8399 2.67026 -6.50846e-19)
(25.8401 2.67008 -8.90971e-20)
(25.8403 2.66986 1.94526e-19)
(25.8403 2.66964 -1.37539e-18)
(25.8395 2.66936 1.43813e-19)
(25.838 2.66907 8.36238e-20)
(25.8373 2.66886 -2.16293e-19)
(25.8414 2.66887 -7.51454e-19)
(25.8539 2.6692 -1.36527e-19)
(25.8725 2.66944 1.6094e-19)
(25.8816 2.6684 9.74473e-19)
(25.8507 2.66387 2.27689e-19)
(25.7426 2.65316 -1.34036e-18)
(25.5302 2.63408 9.42432e-19)
(25.2126 2.60601 2.21651e-19)
(24.8213 2.57064 4.31637e-19)
(24.4148 2.53216 1.34986e-18)
(24.0693 2.4969 3.11047e-18)
(23.8623 2.47225 2.51183e-18)
(23.8523 2.46483 -1.09974e-19)
(24.0578 2.47818 -6.60772e-19)
(24.4422 2.51079 4.12882e-19)
(24.9176 2.55565 5.55303e-19)
(25.3704 2.60201 2.28732e-18)
(25.7052 2.63938 3.74107e-18)
(25.8844 2.66197 -6.21308e-18)
(25.9362 2.67065 8.11579e-19)
(25.9231 2.67081 8.78347e-19)
(25.8987 2.66831 -2.45368e-18)
(25.8869 2.66662 -4.05724e-18)
(25.8878 2.66661 3.62262e-18)
(25.8935 2.66766 2.80146e-19)
(25.8985 2.66899 4.35721e-20)
(25.9016 2.67026 -1.88558e-19)
(25.9038 2.67152 2.41301e-18)
(25.906 2.67294 -2.26984e-19)
(25.9086 2.67461 -1.32684e-18)
(25.9113 2.67653 -3.81146e-19)
(25.9141 2.67872 -8.96911e-19)
(25.917 2.68119 -6.89898e-19)
(25.9198 2.68397 2.21225e-19)
(25.9226 2.68706 2.21073e-19)
(25.9253 2.6905 2.71005e-18)
(25.9279 2.6943 1.46707e-18)
(25.9304 2.6985 -1.63076e-18)
(25.9326 2.70309 2.88665e-18)
(25.9346 2.7081 -2.74494e-18)
(25.9363 2.71355 -8.66914e-19)
(25.9376 2.71945 1.07868e-17)
(25.9385 2.7258 8.8589e-20)
(25.9389 2.7326 8.78012e-18)
(25.9388 2.73985 -3.85197e-17)
(25.9381 2.74756 -1.9289e-17)
(25.9368 2.75569 1.15469e-17)
(25.9348 2.76426 1.33138e-17)
(25.9321 2.7732 -2.54364e-17)
(25.9287 2.78251 1.98147e-18)
(25.9245 2.79212 -4.7509e-17)
(25.9195 2.80209 -6.32989e-18)
(25.9139 2.81216 2.80207e-17)
(25.9079 2.82274 1.51338e-17)
(25.9023 2.83156 3.52396e-17)
(25.8971 2.84057 -2.59281e-17)
(25.8912 2.84753 3.58182e-17)
(25.8851 2.86011 -1.03386e-17)
(25.8782 2.86329 -6.21365e-17)
(25.8726 2.88542 -3.25603e-17)
(25.8644 2.87389 6.45928e-17)
(25.8615 2.92435 -5.11509e-17)
(25.8501 2.86512 7.35857e-17)
(25.8557 2.99967 1.18639e-16)
(25.84 2.79773 8.40035e-17)
(25.8459 3.17508 -4.66308e-17)
(25.9225 2.5779 1.42876e-16)
(25.855 2.71127 -2.43505e-19)
(25.8553 2.71121 -6.26163e-20)
(25.8555 2.71108 1.01096e-19)
(25.8558 2.7109 2.51372e-19)
(25.8561 2.71073 4.78393e-19)
(25.8563 2.71056 2.96158e-19)
(25.8565 2.71039 3.38131e-19)
(25.8568 2.7102 1.35742e-19)
(25.857 2.71 4.83173e-19)
(25.8571 2.70978 -8.7665e-19)
(25.8568 2.70953 4.01113e-20)
(25.8556 2.70924 -1.59323e-19)
(25.8542 2.70894 6.94835e-19)
(25.8548 2.70876 2.9107e-19)
(25.8618 2.70886 -2.67089e-19)
(25.8784 2.7093 4.40137e-19)
(25.9007 2.70964 1.33697e-18)
(25.9122 2.70863 -2.93599e-19)
(25.8822 2.70407 -3.04635e-19)
(25.7739 2.69326 -1.06357e-18)
(25.561 2.67402 -5.38625e-20)
(25.2443 2.64586 -6.03756e-19)
(24.8592 2.61081 -5.63712e-19)
(24.4697 2.5736 -6.37167e-19)
(24.1555 2.541 -1.42945e-18)
(23.9933 2.5205 2.52695e-18)
(24.0331 2.51815 -1.21578e-19)
(24.278 2.53617 -6.28768e-20)
(24.6743 2.57135 -4.0894e-18)
(25.125 2.61543 -2.87516e-18)
(25.5228 2.65768 6.46315e-19)
(25.7928 2.68909 7.39899e-19)
(25.9199 2.70602 -3.49391e-18)
(25.9434 2.71083 -1.31801e-18)
(25.9225 2.70927 4.45466e-19)
(25.9004 2.70653 2.9847e-19)
(25.8921 2.70518 1.53243e-18)
(25.8942 2.70542 5.17017e-19)
(25.8991 2.70641 1.65173e-19)
(25.9025 2.70747 -8.341e-19)
(25.9043 2.70843 -2.04145e-19)
(25.9055 2.70942 1.3768e-18)
(25.907 2.7106 -5.58322e-19)
(25.9088 2.71201 -7.23846e-20)
(25.9107 2.71366 3.65145e-19)
(25.9125 2.71554 -3.23704e-19)
(25.9143 2.71767 -9.84877e-20)
(25.916 2.72008 3.03768e-20)
(25.9177 2.72278 -8.09006e-19)
(25.9193 2.72579 5.63499e-18)
(25.9206 2.72914 5.83784e-18)
(25.9218 2.73284 5.72443e-18)
(25.9227 2.7369 -5.00314e-18)
(25.9233 2.74135 4.84461e-18)
(25.9236 2.7462 -4.11999e-18)
(25.9235 2.75145 4.76251e-18)
(25.9229 2.75713 2.34298e-17)
(25.9218 2.76322 3.87485e-17)
(25.9202 2.76973 8.46465e-19)
(25.9181 2.77667 -8.15402e-18)
(25.9153 2.784 1.63545e-18)
(25.912 2.79174 -4.93436e-17)
(25.9079 2.79982 3.06847e-17)
(25.9032 2.80832 -1.68676e-18)
(25.8979 2.817 -2.0813e-17)
(25.8923 2.82627 -1.01025e-17)
(25.8871 2.83407 1.67615e-17)
(25.8824 2.84219 -9.69611e-18)
(25.877 2.84844 -1.19225e-17)
(25.8715 2.86007 -6.71278e-19)
(25.8652 2.86291 -5.62532e-18)
(25.8603 2.88384 8.51975e-18)
(25.8527 2.87282 -1.73374e-17)
(25.8507 2.92139 2.93032e-18)
(25.8401 2.86426 5.08654e-18)
(25.8466 2.99557 -6.50254e-17)
(25.8319 2.79785 -1.40171e-16)
(25.8388 3.17127 3.75033e-17)
(25.916 2.57763 -8.19223e-17)
(25.8703 2.74547 -4.19907e-20)
(25.8705 2.74533 -2.03379e-19)
(25.8707 2.74517 2.58266e-20)
(25.8709 2.745 -8.44752e-20)
(25.8711 2.74483 2.3418e-20)
(25.8713 2.74466 -3.86741e-19)
(25.8715 2.74448 1.04334e-20)
(25.8717 2.74428 7.3832e-20)
(25.8719 2.74408 3.53915e-19)
(25.8721 2.74386 3.583e-20)
(25.8721 2.74362 4.5044e-19)
(25.8715 2.74334 -5.89955e-19)
(25.8702 2.74303 -2.01679e-19)
(25.8692 2.74275 2.27007e-19)
(25.8715 2.74265 -2.56763e-19)
(25.8814 2.74293 -5.30208e-19)
(25.9013 2.74362 8.80309e-19)
(25.9261 2.7442 -8.78331e-19)
(25.9378 2.7433 6.92482e-19)
(25.9044 2.73856 1.49864e-19)
(25.7887 2.72717 1.69511e-19)
(25.5668 2.70697 -7.3669e-19)
(25.2443 2.67783 2.28744e-19)
(24.8634 2.64241 1.71781e-18)
(24.4954 2.60621 -4.32074e-19)
(24.2229 2.57662 -1.32935e-18)
(24.1178 2.56114 5.60006e-19)
(24.2169 2.56489 2.72969e-19)
(24.5035 2.5883 -1.07285e-18)
(24.9076 2.62621 1.67406e-18)
(25.3271 2.66913 -1.4145e-18)
(25.6655 2.70662 1.85013e-18)
(25.8694 2.73145 1.44873e-18)
(25.9456 2.74235 -7.75555e-19)
(25.9436 2.74343 -1.0071e-18)
(25.918 2.74058 -5.86892e-19)
(25.9004 2.73804 -1.71989e-18)
(25.8965 2.73726 -6.51924e-19)
(25.8998 2.73774 -4.31232e-19)
(25.9034 2.73857 6.46451e-19)
(25.9051 2.7393 -9.39062e-19)
(25.9057 2.73997 3.58786e-19)
(25.9062 2.74072 1.0471e-18)
(25.907 2.74167 5.14861e-19)
(25.908 2.74284 1.03695e-18)
(25.9089 2.74421 -6.73084e-20)
(25.9098 2.74579 1.88575e-20)
(25.9106 2.74761 -2.50024e-19)
(25.9113 2.74969 -2.66314e-18)
(25.9119 2.75203 -1.20184e-19)
(25.9122 2.75467 -1.52996e-18)
(25.9124 2.75761 -4.85914e-19)
(25.9123 2.76089 -3.12232e-18)
(25.9119 2.76451 2.85432e-18)
(25.9111 2.76849 -7.99614e-18)
(25.91 2.77285 -8.97556e-18)
(25.9085 2.77759 -5.25594e-18)
(25.9065 2.78274 -7.86854e-18)
(25.904 2.78829 -1.03557e-17)
(25.901 2.79424 -1.10199e-17)
(25.8974 2.80061 2.45133e-17)
(25.8933 2.80734 -7.53776e-18)
(25.8887 2.81453 -3.70193e-18)
(25.8835 2.82196 3.34938e-18)
(25.878 2.83005 -9.93482e-19)
(25.873 2.8369 -1.70456e-17)
(25.8686 2.84419 -1.06647e-17)
(25.8635 2.84978 -2.51654e-17)
(25.8584 2.86048 -2.96387e-17)
(25.8525 2.86301 2.45114e-17)
(25.8481 2.88276 6.20638e-17)
(25.8411 2.87224 -1.98499e-17)
(25.8397 2.91894 2.48531e-19)
(25.8299 2.86389 -6.36988e-17)
(25.837 2.992 4.53284e-19)
(25.8234 2.79855 3.10372e-17)
(25.8312 3.16814 2.91013e-18)
(25.9085 2.57871 -2.28256e-16)
(25.8841 2.77432 6.36264e-20)
(25.8842 2.77418 1.09667e-19)
(25.8844 2.77401 -1.20313e-19)
(25.8845 2.77384 -1.62471e-19)
(25.8847 2.77366 -1.07429e-19)
(25.8848 2.77349 9.90276e-20)
(25.885 2.7733 6.37415e-20)
(25.8851 2.7731 -1.82848e-19)
(25.8853 2.77289 -3.06819e-19)
(25.8854 2.77267 1.46991e-19)
(25.8856 2.77244 -1.44507e-19)
(25.8857 2.77219 3.81952e-19)
(25.8854 2.77191 -1.26761e-19)
(25.8846 2.7716 7.08588e-21)
(25.8832 2.77126 -1.11828e-19)
(25.8827 2.77101 1.19789e-19)
(25.8865 2.77101 -2.50616e-19)
(25.8989 2.77147 2.50409e-19)
(25.9216 2.77239 -1.37863e-19)
(25.9481 2.77314 -3.07856e-19)
(25.9577 2.77213 1.09606e-19)
(25.9164 2.76679 4.69076e-20)
(25.7871 2.75418 2.3777e-19)
(25.5494 2.73234 -6.58795e-19)
(25.2174 2.70173 -1.46971e-19)
(24.8429 2.66595 1.2186e-18)
(24.5042 2.63143 6.87578e-19)
(24.2849 2.60607 4.88017e-19)
(24.2477 2.59697 9.94908e-19)
(24.4109 2.60776 1.05801e-20)
(24.7369 2.63667 1.69049e-18)
(25.1405 2.67653 -6.46373e-19)
(25.5186 2.71693 1.3837e-18)
(25.7897 2.74828 6.74725e-19)
(25.926 2.76577 1.13268e-18)
(25.9564 2.77084 6.62077e-19)
(25.9366 2.76898 1.92595e-18)
(25.9119 2.76566 2.63798e-19)
(25.9007 2.76376 1.83151e-18)
(25.9007 2.76352 1.31641e-18)
(25.904 2.76406 -3.79866e-19)
(25.9059 2.76463 2.42155e-19)
(25.9062 2.76507 -1.43637e-18)
(25.9059 2.76552 -1.99337e-20)
(25.9058 2.76612 -6.07694e-19)
(25.9059 2.7669 1.34665e-19)
(25.906 2.76785 4.9324e-20)
(25.906 2.76898 -4.92556e-19)
(25.9059 2.77031 4.14798e-19)
(25.9056 2.77186 -1.3844e-18)
(25.9052 2.77365 1.48653e-18)
(25.9046 2.7757 1.07656e-19)
(25.9038 2.77803 -3.92584e-18)
(25.9027 2.78065 -1.61954e-18)
(25.9013 2.7836 -4.15155e-18)
(25.8995 2.78687 3.54044e-18)
(25.8974 2.7905 -1.66657e-17)
(25.8949 2.7945 -2.83847e-18)
(25.892 2.79888 -3.0188e-18)
(25.8886 2.80366 8.27907e-18)
(25.8848 2.80885 -1.86061e-17)
(25.8805 2.81443 1.35246e-17)
(25.8756 2.82047 -9.43063e-18)
(25.8704 2.8268 -2.40648e-17)
(25.8649 2.83383 -1.40601e-17)
(25.86 2.83984 1.23911e-17)
(25.8556 2.84636 1.45038e-17)
(25.8507 2.85137 2.50373e-18)
(25.8458 2.86119 3.53652e-17)
(25.8402 2.86346 -1.07162e-18)
(25.836 2.88207 -4.4651e-17)
(25.8296 2.87208 -2.3202e-17)
(25.8285 2.91693 -1.76649e-17)
(25.8194 2.86399 4.29654e-17)
(25.827 2.98893 -1.57092e-18)
(25.8144 2.79988 9.10562e-17)
(25.8229 3.16554 -8.03147e-19)
(25.8996 2.58134 2.19539e-16)
(25.8981 2.79816 -2.87996e-20)
(25.8982 2.79802 -1.19967e-19)
(25.8983 2.79785 -1.1706e-22)
(25.8983 2.79768 9.28537e-20)
(25.8984 2.7975 -4.41675e-20)
(25.8985 2.79732 7.92586e-20)
(25.8986 2.79712 -1.46997e-19)
(25.8986 2.79692 -1.1328e-19)
(25.8987 2.7967 2.65864e-19)
(25.8988 2.79648 -2.64693e-19)
(25.8988 2.79625 -6.04893e-20)
(25.8989 2.796 -4.66039e-20)
(25.899 2.79574 3.5361e-19)