/*--------------------------------*- C++ -*----------------------------------*\
| =========                 |                                                 |
| \\      /  F ield         | OpenFOAM: The Open Source CFD Toolbox           |
|  \\    /   O peration     | Version:  2306                                  |
|   \\  /    A nd           | Website:  www.openfoam.com                      |
|    \\/     M anipulation  |                                                 |
\*---------------------------------------------------------------------------*/
FoamFile
{
    version     2.0;
    format      ascii;
    arch        "LSB;label=32;scalar=64";
    class       volScalarField;
    location    "775";
    object      p;
}
// * * * * * * * * * * * * * * * * * * * * * * * * * * * * * * * * * * * * * //

dimensions      [0 2 -2 0 0 0 0];

internalField   nonuniform List<scalar> 
1340
(
59.0958
33.2986
4.80086
56.8084
32.9128
6.55057
-20.8102
-50.3303
54.1362
31.9116
7.42774
-17.8962
-45.2146
-73.7449
-102.82
51.242
30.4982
7.67809
-15.8443
-41.2075
-67.6682
-94.6019
-122.08
48.2428
28.8228
7.48925
-14.4264
-38.0422
-62.6492
-87.6555
-113.167
-138.803
45.2193
26.9904
6.9947
-13.4801
-35.5265
-58.4625
-81.7317
-105.456
-129.289
42.2274
25.0772
6.29329
-12.8818
-33.5083
-54.9322
-76.628
-98.7278
-120.912
-143.016
39.3039
23.1363
5.45737
-12.5389
-31.8743
-51.926
-72.19
-92.8084
-113.487
-134.081
-154.579
36.4747
21.21
4.53983
-12.3782
-30.5379
-49.3356
-68.2946
-87.5586
-106.855
-126.059
-145.176
33.7575
19.3231
3.58309
-12.3488
-29.4287
-47.0786
-64.8409
-82.8654
-100.893
-118.815
-136.653
-154.274
31.1634
17.4966
2.61509
-12.4076
-28.495
-45.0881
-61.7527
-78.6376
-95.4984
-112.237
-128.889
-145.338
28.6979
15.7445
1.65914
-12.524
-27.6939
-43.313
-58.9657
-74.8001
-90.5846
-106.233
-121.786
-137.146
-152.261
26.3645
14.075
0.731002
-12.6729
-26.993
-41.7101
-56.4281
-71.2905
-86.0812
-100.721
-115.257
-129.602
-143.72
24.1629
12.4947
-0.157193
-12.8378
-26.3664
-40.2467
-54.0979
-68.0615
-81.9308
-95.6364
-109.228
-122.629
-135.815
-148.74
22.0923
11.0062
-0.99753
-13.0027
-25.7942
-38.8953
-51.9415
-65.07
-78.0863
-90.9253
-103.641
-116.163
-128.477
-140.55
20.1504
9.61118
-1.78461
-13.1574
-25.2602
-37.6339
-49.93
-62.2824
-74.5055
-86.5395
-98.4394
-110.144
-121.646
-132.919
18.3335
8.30925
-2.515
-13.2948
-24.7525
-36.446
-48.042
-59.6708
-71.1551
-82.4406
-93.5817
-104.525
-115.268
-125.792
-136.037
16.6373
7.09947
-3.18653
-13.4088
-24.2608
-35.3172
-46.2584
-57.2114
-68.0064
-78.5947
-89.0294
-99.2632
-109.298
-119.121
-128.681
15.0578
5.97906
-3.79805
-13.496
-23.7782
-34.236
-44.5647
-54.8851
-65.0367
-74.9743
-84.751
-94.3226
-103.696
-112.863
-121.78
13.5897
4.94582
-4.35013
-13.5537
-23.2996
-33.1943
-42.9478
-52.6757
-62.2257
-71.5548
-80.7171
-89.6718
-98.4276
-106.981
-115.296
-123.32
12.2281
3.99668
-4.84388
-13.5803
-22.8197
-32.1845
-41.397
-50.5691
-59.5552
-68.3159
-76.9039
-85.2823
-93.4616
-101.442
-109.191
-116.667
10.968
3.12801
-5.28061
-13.5753
-22.3365
-31.2013
-39.905
-48.5548
-57.0124
-65.2407
-73.2916
-81.1315
-88.7718
-96.2157
-103.436
-110.396
16.296
9.80434
2.33632
-5.6624
-13.539
-21.8477
-30.2406
-38.4651
-46.624
-54.5851
-62.3147
-69.8627
-77.1987
-84.3351
-91.2777
-98.003
-104.479
-110.655
14.9204
8.73193
1.61788
-5.99146
-13.4717
-21.352
-29.2988
-37.071
-44.7676
-52.2622
-59.5242
-66.6013
-73.4661
-80.1319
-86.6054
-92.8673
-98.89
-104.629
13.6456
7.74589
0.96884
-6.27023
-13.3744
-20.849
-28.3734
-35.719
-42.9794
-50.0355
-56.8583
-63.4941
-69.9176
-76.1432
-82.1786
-88.0071
-93.6052
-98.9338
12.466
6.84128
0.385379
-6.50141
-13.2484
-20.3382
-27.4631
-34.4053
-41.2549
-47.8979
-54.3081
-60.5301
-66.5406
-72.3541
-77.9795
-83.4028
-88.6035
-93.5473
-98.1812
11.3757
6.01344
-0.136367
-6.68769
-13.0954
-19.8198
-26.5661
-33.127
-39.589
-45.8429
-51.8653
-57.6988
-63.3222
-68.7503
-73.9927
-79.0372
-83.8662
-88.4495
-92.7399
10.3695
5.25775
-0.600152
-6.83195
-12.917
-19.2946
-25.682
-31.8823
-37.9779
-43.8654
-49.5228
-54.9918
-60.2522
-65.3196
-70.2036
-74.8943
-79.376
-83.6223
-87.591
9.44232
4.56979
-1.00963
-6.93678
-12.715
-18.7631
-24.8103
-30.6691
-36.4184
-41.9604
-47.2747
-52.4013
-57.3217
-62.0512
-66.6004
-70.9601
-75.1177
-79.0492
-82.7169
8.58926
3.94506
-1.36833
-7.00503
-12.4914
-18.2261
-23.9505
-29.486
-34.9084
-40.1245
-45.1158
-49.9206
-54.5221
-58.9357
-63.1716
-67.2224
-71.0772
-74.7149
-78.1017
7.80559
3.37962
-1.67986
-7.03949
-12.2479
-17.6849
-23.1027
-28.332
-33.4452
-38.354
-43.041
-47.5436
-51.8461
-55.9638
-59.907
-63.6694
-67.242
-70.6057
-73.7304
-76.5788
7.08683
2.86942
-1.94747
-7.04283
-11.9868
-17.1404
-22.2672
-27.2066
-32.0273
-36.6459
-41.0467
-45.2653
-49.2873
-53.128
-56.7976
-60.2909
-63.6002
-66.7088
-69.5896
-72.2088
6.42867
2.41071
-2.17444
-7.01763
-11.7096
-16.5939
-21.4443
-26.1089
-30.6532
-34.9979
-39.1291
-43.0807
-46.8398
-50.421
-53.8351
-57.0774
-60.1414
-63.0125
-65.6664
-68.0727
5.82712
1.99977
-2.36379
-6.96647
-11.4182
-16.0465
-20.6345
-25.0387
-29.3213
-33.4076
-37.2848
-40.9856
-44.498
-47.8366
-51.0118
-54.0201
-56.8559
-59.5063
-61.9493
-64.1581
5.27827
1.63326
-2.51861
-6.89166
-11.1148
-15.4993
-19.8381
-23.9954
-28.0306
-31.873
-35.511
-38.976
-42.2573
-45.3688
-48.321
-51.111
-53.7345
-56.1797
-58.4274
-60.453
4.77846
1.30785
-2.64171
-6.79556
-10.8009
-14.9533
-19.0556
-22.9789
-26.7801
-30.3923
-33.805
-37.0484
-40.1129
-43.0121
-45.7562
-48.3429
-50.7689
-53.0238
-55.0903
-56.9466
-58.565
4.3242
1.02044
-2.73572
-6.68037
-10.4782
-14.4098
-18.2873
-21.989
-25.5688
-28.9636
-32.1643
-35.1996
-38.0608
-40.7614
-43.3113
-45.7088
-47.9514
-50.0298
-51.9287
-53.6285
-55.1047
3.91221
0.768068
-2.80327
-6.54821
-10.1482
-13.87
-17.534
-21.0255
-24.3958
-27.5856
-30.5866
-33.4263
-36.0972
-38.612
-40.9807
-43.2022
-45.2744
-47.1894
-48.9333
-50.489
-51.8343
3.53938
0.547934
-2.8467
-6.40105
-9.81267
-13.3346
-16.796
-20.0884
-23.2606
-26.2567
-29.0698
-31.7259
-34.2183
-36.5596
-38.7594
-40.8171
-42.7312
-44.4949
-46.0958
-47.5187
-48.7439
3.20279
0.357394
-2.86833
-6.24073
-9.47284
-12.8047
-16.0737
-19.1773
-22.1622
-24.9757
-27.6118
-30.0955
-32.4207
-34.5999
-36.6422
-38.5476
-40.3152
-41.939
-43.408
-44.7087
-45.8238
2.89961
0.193983
-2.87027
-6.06909
-9.13016
-12.2812
-15.3674
-18.2922
-21.0999
-23.7413
-26.2107
-28.5324
-30.7011
-32.7288
-34.6245
-36.3884
-38.0202
-39.5146
-40.862
-42.0506
-43.065
-43.8893
2.62727
0.0553305
-2.85455
-5.88769
-8.78583
-11.7649
-14.6775
-17.4329
-20.0731
-22.5519
-24.8646
-27.0343
-29.0565
-30.9426
-32.7017
-34.3342
-35.8402
-37.2152
-38.4508
-39.5365
-40.4588
-41.2038
2.38328
-0.0607147
-2.82313
-5.69812
-8.44101
-11.2564
-14.0043
-16.5992
-19.081
-21.4065
-23.5717
-25.5987
-27.4837
-29.2377
-30.8695
-32.38
-33.7696
-35.0344
-36.1671
-37.1585
-37.9967
-38.67
2.16534
-0.156257
-2.77768
-5.50178
-8.09681
-10.7566
-13.348
-15.7908
-18.1229
-20.3038
-22.3302
-24.2232
-25.9798
-27.6105
-29.1239
-30.5211
-31.8029
-32.966
-34.0043
-34.9092
-35.6709
-36.279
1.97129
-0.23322
-2.7199
-5.30003
-7.75419
-10.2659
-12.7088
-15.0075
-17.1981
-19.2425
-21.1383
-22.9056
-24.5419
-26.0575
-27.4607
-28.7528
-29.9349
-31.0044
-31.9557
-32.7818
-33.4737
-34.0229
1.79908
-0.293404
-2.65132
-5.09409
-7.41406
-9.78492
-12.0869
-14.2489
-16.3057
-18.2214
-19.9943
-21.6437
-23.1673
-24.5755
-25.8761
-27.0708
-28.1607
-29.1438
-30.0154
-30.7693
-31.3978
-31.8936
1.64682
-0.338503
-2.5734
-4.88507
-7.07719
-9.31415
-11.4822
-13.5148
-15.445
-17.2393
-18.8965
-20.4351
-21.8534
-23.1613
-24.3664
-25.4706
-26.4753
-27.3788
-28.1772
-28.8652
-29.4361
-29.8837
1.51273
-0.370112
-2.48745
-4.67404
-6.74441
-8.85393
-10.8948
-12.8049
-14.6153
-16.2949
-17.8432
-19.2779
-20.5975
-21.8116
-22.9279
-23.9481
-24.874
-25.7042
-26.4355
-27.0632
-27.5818
-27.9861
-28.275
1.39514
-0.389686
-2.39472
-4.46202
-6.41639
-8.40469
-10.3248
-12.1186
-13.8157
-15.3871
-16.8329
-18.1698
-19.3969
-20.5236
-21.5571
-22.4994
-23.3523
-24.115
-24.7847
-25.3575
-25.8286
-26.1937
-26.4525
1.29249
-0.398624
-2.29636
-4.24987
-6.09373
-7.96669
-9.77208
-11.4556
-13.0454
-14.5146
-15.8637
-17.1087
-18.2492
-19.2942
-20.2505
-21.1205
-21.9059
-22.6064
-23.2195
-23.7421
-24.1701
-24.4999
-24.7319
1.20333
-0.398227
-2.1935
-4.03848
-5.77705
-7.54025
-9.23659
-10.8155
-12.3036
-13.6763
-14.9342
-16.0927
-17.1519
-18.1205
-19.0049
-19.8076
-20.5305
-21.1736
-21.7348
-22.2116
-22.6004
-22.8985
-23.1065
1.12634
-0.389649
-2.08709
-3.82856
-5.46685
-7.12563
-8.71827
-10.1979
-11.5896
-12.8708
-14.0426
-15.1196
-16.1025
-16.9996
-17.8169
-18.557
-19.222
-19.8121
-20.3256
-20.7605
-21.1138
-21.3833
-21.5701
1.06031
-0.373909
-1.97801
-3.62073
-5.16345
-6.72282
-8.21685
-9.60228
-10.9024
-12.0972
-13.1874
-14.1876
-15.0988
-15.9289
-16.6834
-17.3651
-17.9763
-18.5174
-18.9871
-19.3837
-19.7047
-19.9485
-20.1164
1.00395
-0.352142
-1.86723
-3.41575
-4.86746
-6.33201
-7.73214
-9.02801
-10.241
-11.3539
-12.3669
-13.2944
-14.1386
-14.9059
-15.6016
-16.2285
-16.7897
-17.2854
-17.7147
-18.0762
-18.3679
-18.5885
-18.7397
0.956007
-0.325814
-1.75615
-3.21506
-4.57992
-5.95431
-7.2648
-8.47522
-9.60487
-10.6403
-11.5789
-12.4374
-13.2191
-13.9279
-14.568
-15.1437
-15.6583
-16.112
-16.504
-16.8333
-17.0983
-17.2981
-17.4343
0.915579
-0.295632
-1.64543
-3.01919
-4.30153
-5.5903
-6.81533
-7.94442
-8.99435
-9.9569
-10.8223
-11.6139
-12.3374
-12.9914
-13.579
-14.1064
-14.5776
-14.9925
-15.3502
-15.65
-15.8908
-16.0719
-16.1951
-16.2656
0.882774
-0.26077
-1.53342
-2.82593
-4.02973
-5.23701
-6.38122
-7.43347
-8.40808
-9.30106
-10.0963
-10.8263
-11.4958
-12.097
-12.6337
-13.1151
-13.5454
-13.9237
-14.2491
-14.5216
-14.7402
-14.9045
-15.0162
-15.08
0.857171
-0.221428
-1.41951
-2.63407
-3.76226
-4.89111
-5.95765
-6.93722
-7.84045
-8.66676
-9.39431
-10.0751
-10.6987
-11.2464
-11.7314
-12.1689
-12.5608
-12.9042
-13.1989
-13.4456
-13.6436
-13.7925
-13.8938
-13.952
0.838207
-0.189567
-1.32982
-2.47851
-3.53928
-4.59262
-5.5742
-6.46599
-7.26972
-8.00622
-8.60844
-9.27579
-9.90669
-10.4331
-10.8943
-11.3171
-11.6981
-12.0308
-12.3155
-12.5542
-12.7463
-12.8911
-12.9899
-13.0472
0.823808
-0.162126
-1.25309
-2.34415
-3.34214
-4.32023
-5.21349
-6.00706
-6.69357
-7.32094
-7.75824
-8.44634
-9.12044
-9.64778
-10.1041
-10.5314
-10.9196
-11.2577
-11.5467
-11.7893
-11.9853
-12.1336
-12.2359
-12.2964
0.811119
-0.132563
-1.17378
-2.20681
-3.14215
-4.04531
-4.8524
-5.55019
-6.12632
-6.64762
-6.9316
-7.6272
-8.3353
-8.86123
-9.30877
-9.7361
-10.1286
-10.4702
-10.7619
-11.0074
-11.2067
-11.3584
-11.4642
-11.5278
0.799915
-0.101507
-1.09285
-2.06818
-2.94145
-3.77057
-4.4942
-5.09857
-5.57183
-5.986
-6.13412
-6.82201
-7.55059
-8.07356
-8.51045
-8.93341
-9.32674
-9.66983
-9.96279
-10.2101
-10.4119
-10.5666
-10.6757
-10.7427
0.790286
-0.0692779
-1.01111
-1.92957
-2.74193
-3.49854
-4.14182
-4.65531
-5.0332
-5.3378
-5.36914
-6.03447
-6.76766
-7.28435
-7.70914
-8.12398
-8.51444
-8.85687
-9.1497
-9.39771
-9.6013
-9.75891
-9.87136
-9.94253
0.782152
-0.036476
-0.929915
-1.79283
-2.54612
-3.23237
-3.79897
-4.22461
-4.51426
-4.70598
-4.6386
-5.26685
-5.98769
-6.49329
-6.90461
-7.30806
-7.69195
-8.03131
-8.32275
-8.57072
-8.77569
-8.93571
-9.05076
-9.12437
0.775388
-0.00442075
-0.851686
-1.66141
-2.35768
-2.97611
-3.46934
-3.81004
-4.01729
-4.09257
-3.94339
-4.52054
-5.21214
-5.70055
-6.09619
-6.48505
-6.85878
-7.19229
-7.48058
-7.72768
-7.93444
-8.09898
-8.22163
-8.30594
0.769617
0.0252247
-0.779589
-1.53967
-2.18163
-2.73489
-3.15648
-3.41315
-3.54186
-3.49854
-3.28283
-3.79589
-4.44223
-4.906
-5.28242
-5.65332
-6.0136
-6.33892
-6.62224
-6.8659
-7.06976
-7.23072
-7.3474
-7.42178
-7.46347
0.764517
0.0524794
-0.713735
-1.42889
-2.02093
-2.51388
-2.86639
-3.04123
-3.09569
-2.93159
-2.65647
-3.09223
-3.67922
-4.10983
-4.46192
-4.80978
-5.15156
-5.46641
-5.74798
-5.99792
-6.21601
-6.40042
-6.55142
-6.67135
-6.76158
0.76049
0.0785593
-0.652224
-1.32718
-1.87572
-2.31754
-2.60961
-2.71528
-2.70438
-2.40861
-2.06498
-2.41186
-2.92492
-3.31139
-3.63504
-3.95654
-4.27028
-4.55663
-4.80953
-5.02945
-5.21382
-5.3557
-5.44871
-5.49297
-5.50843
0.758105
0.09635
-0.608457
-1.25056
-1.76148
-2.15727
-2.39211
-2.43847
-2.3578
-1.90943
-1.49852
-1.76313
-2.18608
-2.50669
-2.79134
-3.09418
-3.40872
-3.71663
-4.01094
-4.29161
-4.55959
-4.81694
-5.06446
-5.29516
-5.48167
0.754982
0.0848871
-0.620875
-1.24791
-1.72581
-2.06355
-2.21216
-2.15953
-1.94135
-1.32315
-0.914275
-1.13951
-1.48472
-1.72083
-1.9056
-2.08549
-2.263
-2.43019
-2.58193
-2.71305
-2.81149
-2.85795
-2.83846
-2.76159
-2.69042
0.746349
0.0448224
-0.68612
-1.31869
-1.77357
-2.04867
-2.09073
-1.89572
-1.46825
-0.685381
-0.291213
-0.470983
-0.787268
-1.08493
-1.38562
-1.70002
-2.0309
-2.37985
-2.75173
-3.15537
-3.60296
-4.10077
-4.62565
-5.11823
-5.47289
)
;

boundaryField
{
    inlet
    {
        type            freestreamPressure;
        freestreamValue uniform 0;
        value           nonuniform List<scalar> 
25
(
0.742715
0.0446042
-0.682779
-1.31227
-1.76494
-2.0387
-2.08055
-1.88649
-1.4611
-0.682044
-0.125416
-0.202947
-0.339505
-0.468308
-0.598712
-0.735376
-0.879533
-1.03192
-1.19469
-1.37172
-1.56835
-1.78732
-2.01848
-2.23579
-2.39287
)
;
    }
    outlet
    {
        type            freestreamPressure;
        freestreamValue nonuniform List<scalar> 0();
        value           nonuniform List<scalar> 0();
    }
    walls
    {
        type            zeroGradient;
    }
    frontAndBack
    {
        type            empty;
    }
    procBoundary4to0
    {
        type            processor;
        value           nonuniform List<scalar> 
72
(
81.3073
77.3742
73.2592
69.0921
64.9588
60.9152
56.9983
53.2332
49.6336
46.2067
42.9561
39.881
36.9794
34.2474
31.6798
29.2701
27.0127
24.9011
22.9284
21.088
19.3735
17.7782
17.7782
22.3416
20.6899
19.1519
17.7209
16.3907
15.1555
14.0093
12.9468
11.9628
11.0525
10.2109
9.43383
8.71695
8.05626
7.44792
6.8884
6.37427
5.90229
5.46944
5.07293
4.70998
4.37812
4.07496
3.79826
3.54594
3.31603
3.10671
2.91625
2.74305
2.58566
2.44272
2.31286
2.1948
2.0875
1.99049
1.90322
1.83655
1.78257
1.72968
1.67804
1.62816
1.58065
1.53664
1.49689
1.46044
1.42718
1.40588
1.41157
1.4323
)
;
    }
    procBoundary4to5
    {
        type            processor;
        value           nonuniform List<scalar> 
95
(
60.7369
32.7453
1.78502
-24.8801
-24.8801
-56.8921
-81.1832
-81.1832
-112.646
-132.472
-132.472
-149.686
-149.686
-164.327
-153.033
-153.033
-165.006
-165.006
-174.802
-164.052
-164.052
-171.594
-161.521
-161.521
-167.058
-157.553
-157.553
-161.305
-152.296
-143.892
-143.892
-145.921
-137.909
-130.389
-130.389
-130.98
-123.802
-117.038
-117.038
-116.458
-110.018
-103.934
-103.934
-102.442
-96.6801
-91.2307
-86.0746
-81.1959
-81.1959
-79.1026
-74.5236
-70.193
-66.0977
-62.2256
-62.2256
-59.915
-56.3303
-52.9457
-49.7507
-46.7351
-46.7351
-44.5135
-41.7637
-39.1717
-36.7285
-34.4254
-32.254
-30.2064
-30.2064
-28.4547
-26.6114
-24.8724
-23.231
-21.6805
-20.2146
-18.8273
-17.5127
-17.5127
-16.2921
-15.1041
-13.9744
-13.0704
-12.323
-11.558
-10.7764
-9.98128
-9.16507
-8.35953
-8.35953
-7.48412
-6.82614
-5.51581
-5.61525
-2.65828
-5.68934
)
;
    }
}


// ************************************************************************* //
