/*--------------------------------*- C++ -*----------------------------------*\
| =========                 |                                                 |
| \\      /  F ield         | OpenFOAM: The Open Source CFD Toolbox           |
|  \\    /   O peration     | Version:  2306                                  |
|   \\  /    A nd           | Website:  www.openfoam.com                      |
|    \\/     M anipulation  |                                                 |
\*---------------------------------------------------------------------------*/
FoamFile
{
    version     2.0;
    format      ascii;
    arch        "LSB;label=32;scalar=64";
    class       volScalarField;
    location    "175";
    object      nut;
}
// * * * * * * * * * * * * * * * * * * * * * * * * * * * * * * * * * * * * * //

dimensions      [0 2 -1 0 0 0 0];

internalField   nonuniform List<scalar> 
1340
(
6.09226e-06
6.09232e-06
6.09246e-06
6.09273e-06
6.09199e-06
6.09254e-06
6.09251e-06
6.09259e-06
6.09282e-06
6.09232e-06
6.09138e-06
6.09287e-06
6.09279e-06
6.09282e-06
6.09296e-06
6.09263e-06
6.09162e-06
6.09127e-06
6.09322e-06
6.09316e-06
6.09316e-06
6.09316e-06
6.09289e-06
6.09186e-06
6.09147e-06
6.09132e-06
6.0936e-06
6.09358e-06
6.09356e-06
6.09338e-06
6.0931e-06
6.0921e-06
6.09169e-06
6.09157e-06
6.09194e-06
6.09397e-06
6.094e-06
6.09397e-06
6.09362e-06
6.09326e-06
6.09232e-06
6.0919e-06
6.09182e-06
6.09214e-06
6.09249e-06
6.09431e-06
6.09438e-06
6.09434e-06
6.09387e-06
6.0934e-06
6.09255e-06
6.09214e-06
6.09206e-06
6.09234e-06
6.09264e-06
6.09459e-06
6.0947e-06
6.0947e-06
6.09413e-06
6.09354e-06
6.09279e-06
6.09241e-06
6.09231e-06
6.09254e-06
6.09277e-06
6.09296e-06
6.09481e-06
6.09498e-06
6.09504e-06
6.09442e-06
6.09371e-06
6.09307e-06
6.09272e-06
6.0926e-06
6.09275e-06
6.09291e-06
6.09302e-06
6.09502e-06
6.09525e-06
6.09537e-06
6.09474e-06
6.0939e-06
6.09337e-06
6.09305e-06
6.09289e-06
6.09295e-06
6.09302e-06
6.09307e-06
6.09315e-06
6.09524e-06
6.09553e-06
6.09569e-06
6.09507e-06
6.09411e-06
6.09366e-06
6.09338e-06
6.09316e-06
6.09313e-06
6.09312e-06
6.0931e-06
6.09313e-06
6.09545e-06
6.09578e-06
6.09597e-06
6.09536e-06
6.09433e-06
6.09394e-06
6.09368e-06
6.09339e-06
6.09328e-06
6.0932e-06
6.09313e-06
6.0931e-06
6.09565e-06
6.096e-06
6.09618e-06
6.09561e-06
6.09453e-06
6.09419e-06
6.09393e-06
6.09358e-06
6.0934e-06
6.09327e-06
6.09315e-06
6.09308e-06
6.09304e-06
6.09581e-06
6.09616e-06
6.09634e-06
6.09581e-06
6.09472e-06
6.0944e-06
6.09414e-06
6.09374e-06
6.0935e-06
6.09332e-06
6.09317e-06
6.09307e-06
6.09299e-06
6.09593e-06
6.09629e-06
6.09647e-06
6.09598e-06
6.09491e-06
6.09458e-06
6.09432e-06
6.09387e-06
6.09358e-06
6.09337e-06
6.09319e-06
6.09306e-06
6.09294e-06
6.09286e-06
6.09603e-06
6.0964e-06
6.09659e-06
6.09615e-06
6.09511e-06
6.09476e-06
6.09447e-06
6.09399e-06
6.09366e-06
6.09341e-06
6.09319e-06
6.09302e-06
6.09288e-06
6.09277e-06
6.09616e-06
6.09653e-06
6.09672e-06
6.09631e-06
6.09532e-06
6.09493e-06
6.09461e-06
6.09411e-06
6.09375e-06
6.09344e-06
6.09318e-06
6.09298e-06
6.09282e-06
6.09268e-06
6.09633e-06
6.09667e-06
6.09683e-06
6.09643e-06
6.09549e-06
6.09507e-06
6.09473e-06
6.09424e-06
6.09382e-06
6.09346e-06
6.09316e-06
6.09294e-06
6.09276e-06
6.09261e-06
6.09249e-06
6.09651e-06
6.09678e-06
6.09691e-06
6.09651e-06
6.09562e-06
6.09518e-06
6.09482e-06
6.09434e-06
6.09386e-06
6.09347e-06
6.09315e-06
6.09291e-06
6.09272e-06
6.09256e-06
6.09243e-06
6.09664e-06
6.09684e-06
6.09693e-06
6.09653e-06
6.09569e-06
6.09523e-06
6.09486e-06
6.09439e-06
6.09389e-06
6.09347e-06
6.09314e-06
6.09289e-06
6.09269e-06
6.09252e-06
6.09237e-06
6.09672e-06
6.09685e-06
6.09692e-06
6.09653e-06
6.09572e-06
6.09525e-06
6.09487e-06
6.0944e-06
6.09389e-06
6.09347e-06
6.09313e-06
6.09287e-06
6.09266e-06
6.09248e-06
6.09231e-06
6.09217e-06
6.09675e-06
6.09685e-06
6.09692e-06
6.09654e-06
6.09574e-06
6.09526e-06
6.09485e-06
6.09438e-06
6.09389e-06
6.09347e-06
6.09313e-06
6.09286e-06
6.09263e-06
6.09244e-06
6.09226e-06
6.09211e-06
6.09688e-06
6.09695e-06
6.09657e-06
6.09578e-06
6.09526e-06
6.09483e-06
6.09436e-06
6.09388e-06
6.09347e-06
6.09312e-06
6.09284e-06
6.0926e-06
6.0924e-06
6.09222e-06
6.09205e-06
6.09191e-06
6.09694e-06
6.097e-06
6.09661e-06
6.09583e-06
6.09528e-06
6.09482e-06
6.09433e-06
6.09385e-06
6.09344e-06
6.09312e-06
6.09282e-06
6.09258e-06
6.09237e-06
6.09219e-06
6.09202e-06
6.09187e-06
6.09701e-06
6.09703e-06
6.09662e-06
6.09584e-06
6.09527e-06
6.09479e-06
6.09429e-06
6.09381e-06
6.09341e-06
6.09309e-06
6.0928e-06
6.09256e-06
6.09236e-06
6.09217e-06
6.09201e-06
6.09185e-06
6.09703e-06
6.09699e-06
6.09658e-06
6.09581e-06
6.09522e-06
6.09473e-06
6.09423e-06
6.09375e-06
6.09335e-06
6.09303e-06
6.09276e-06
6.09252e-06
6.09232e-06
6.09214e-06
6.09198e-06
6.09183e-06
6.09171e-06
6.09697e-06
6.09689e-06
6.09647e-06
6.09571e-06
6.09512e-06
6.09462e-06
6.09412e-06
6.09365e-06
6.09326e-06
6.09295e-06
6.09267e-06
6.09244e-06
6.09224e-06
6.09207e-06
6.09191e-06
6.09176e-06
6.09163e-06
6.09687e-06
6.09677e-06
6.09634e-06
6.09558e-06
6.09498e-06
6.09447e-06
6.09397e-06
6.09351e-06
6.09313e-06
6.09282e-06
6.09255e-06
6.09232e-06
6.09212e-06
6.09194e-06
6.09179e-06
6.09164e-06
6.09151e-06
6.09675e-06
6.09665e-06
6.09621e-06
6.09544e-06
6.09482e-06
6.09429e-06
6.0938e-06
6.09334e-06
6.09296e-06
6.09265e-06
6.09238e-06
6.09214e-06
6.09195e-06
6.09177e-06
6.09161e-06
6.09147e-06
6.09133e-06
6.09121e-06
6.09666e-06
6.09655e-06
6.0961e-06
6.09531e-06
6.09465e-06
6.09411e-06
6.0936e-06
6.09314e-06
6.09276e-06
6.09244e-06
6.09216e-06
6.09192e-06
6.09172e-06
6.09154e-06
6.09137e-06
6.09123e-06
6.09109e-06
6.09097e-06
6.09658e-06
6.09645e-06
6.09597e-06
6.09516e-06
6.09448e-06
6.09392e-06
6.0934e-06
6.09293e-06
6.09254e-06
6.0922e-06
6.0919e-06
6.09165e-06
6.09143e-06
6.09124e-06
6.09107e-06
6.09092e-06
6.09078e-06
6.09065e-06
6.09649e-06
6.09632e-06
6.09582e-06
6.095e-06
6.0943e-06
6.09372e-06
6.09319e-06
6.0927e-06
6.09228e-06
6.09192e-06
6.0916e-06
6.09132e-06
6.09109e-06
6.09089e-06
6.09071e-06
6.09055e-06
6.0904e-06
6.09026e-06
6.09014e-06
6.09636e-06
6.09616e-06
6.09564e-06
6.0948e-06
6.09408e-06
6.09349e-06
6.09294e-06
6.09244e-06
6.09199e-06
6.0916e-06
6.09125e-06
6.09095e-06
6.09069e-06
6.09047e-06
6.09028e-06
6.09011e-06
6.08995e-06
6.0898e-06
6.08968e-06
6.0962e-06
6.09596e-06
6.09543e-06
6.09457e-06
6.09383e-06
6.09323e-06
6.09267e-06
6.09214e-06
6.09166e-06
6.09123e-06
6.09084e-06
6.09051e-06
6.09022e-06
6.08998e-06
6.08977e-06
6.08959e-06
6.08943e-06
6.08927e-06
6.08914e-06
6.09601e-06
6.09576e-06
6.0952e-06
6.09432e-06
6.09356e-06
6.09294e-06
6.09236e-06
6.0918e-06
6.09128e-06
6.09081e-06
6.09038e-06
6.09001e-06
6.08969e-06
6.08943e-06
6.0892e-06
6.08901e-06
6.08883e-06
6.08867e-06
6.08852e-06
6.08839e-06
6.09583e-06
6.09556e-06
6.09497e-06
6.09406e-06
6.09328e-06
6.09264e-06
6.09203e-06
6.09143e-06
6.09086e-06
6.09033e-06
6.08985e-06
6.08944e-06
6.08909e-06
6.08881e-06
6.08856e-06
6.08835e-06
6.08817e-06
6.08801e-06
6.08785e-06
6.08772e-06
6.09564e-06
6.09535e-06
6.09473e-06
6.09378e-06
6.09299e-06
6.09233e-06
6.09168e-06
6.09102e-06
6.09038e-06
6.08979e-06
6.08925e-06
6.0888e-06
6.08843e-06
6.08812e-06
6.08786e-06
6.08764e-06
6.08745e-06
6.08728e-06
6.08713e-06
6.08699e-06
6.09544e-06
6.09511e-06
6.09446e-06
6.09349e-06
6.09268e-06
6.09199e-06
6.09129e-06
6.09056e-06
6.08985e-06
6.08919e-06
6.0886e-06
6.08811e-06
6.0877e-06
6.08738e-06
6.08711e-06
6.08688e-06
6.08669e-06
6.08652e-06
6.08636e-06
6.08622e-06
6.08609e-06
6.0952e-06
6.09484e-06
6.09415e-06
6.09316e-06
6.09233e-06
6.09162e-06
6.09086e-06
6.09006e-06
6.08927e-06
6.08853e-06
6.08789e-06
6.08736e-06
6.08693e-06
6.08659e-06
6.08631e-06
6.08608e-06
6.08589e-06
6.08572e-06
6.08557e-06
6.08543e-06
6.08531e-06
6.09493e-06
6.09453e-06
6.09382e-06
6.0928e-06
6.09196e-06
6.09121e-06
6.09039e-06
6.0895e-06
6.08862e-06
6.08781e-06
6.08712e-06
6.08656e-06
6.08611e-06
6.08576e-06
6.08548e-06
6.08526e-06
6.08507e-06
6.08491e-06
6.08476e-06
6.08463e-06
6.08451e-06
6.09463e-06
6.09421e-06
6.09346e-06
6.09241e-06
6.09155e-06
6.09077e-06
6.08987e-06
6.08887e-06
6.08791e-06
6.08703e-06
6.0863e-06
6.08572e-06
6.08527e-06
6.08492e-06
6.08464e-06
6.08442e-06
6.08424e-06
6.08408e-06
6.08395e-06
6.08382e-06
6.08371e-06
6.09431e-06
6.09386e-06
6.09308e-06
6.09201e-06
6.09113e-06
6.09029e-06
6.08929e-06
6.0882e-06
6.08714e-06
6.08621e-06
6.08544e-06
6.08485e-06
6.0844e-06
6.08405e-06
6.08379e-06
6.08358e-06
6.0834e-06
6.08326e-06
6.08313e-06
6.08301e-06
6.0829e-06
6.08281e-06
6.09398e-06
6.09351e-06
6.09269e-06
6.09158e-06
6.09068e-06
6.08978e-06
6.08867e-06
6.08746e-06
6.08632e-06
6.08534e-06
6.08456e-06
6.08396e-06
6.08352e-06
6.08319e-06
6.08293e-06
6.08272e-06
6.08255e-06
6.08241e-06
6.08228e-06
6.08217e-06
6.08206e-06
6.08196e-06
6.09362e-06
6.09313e-06
6.09227e-06
6.09114e-06
6.09021e-06
6.08923e-06
6.08801e-06
6.08668e-06
6.08547e-06
6.08445e-06
6.08366e-06
6.08307e-06
6.08263e-06
6.0823e-06
6.08205e-06
6.08184e-06
6.08167e-06
6.08152e-06
6.08139e-06
6.08127e-06
6.08115e-06
6.08104e-06
6.09325e-06
6.09272e-06
6.09183e-06
6.09067e-06
6.08972e-06
6.08865e-06
6.08729e-06
6.08586e-06
6.08458e-06
6.08355e-06
6.08276e-06
6.08217e-06
6.08173e-06
6.08139e-06
6.08112e-06
6.0809e-06
6.08071e-06
6.08054e-06
6.08039e-06
6.08025e-06
6.08011e-06
6.07998e-06
6.09285e-06
6.09229e-06
6.09137e-06
6.09018e-06
6.08919e-06
6.08802e-06
6.08653e-06
6.08499e-06
6.08368e-06
6.08263e-06
6.08184e-06
6.08124e-06
6.08078e-06
6.08041e-06
6.08011e-06
6.07985e-06
6.07963e-06
6.07943e-06
6.07925e-06
6.07908e-06
6.07891e-06
6.07874e-06
6.07857e-06
6.09241e-06
6.09183e-06
6.09087e-06
6.08965e-06
6.08863e-06
6.08735e-06
6.08572e-06
6.0841e-06
6.08276e-06
6.08171e-06
6.0809e-06
6.08027e-06
6.07975e-06
6.07933e-06
6.07897e-06
6.07866e-06
6.07839e-06
6.07815e-06
6.07792e-06
6.07771e-06
6.07751e-06
6.0773e-06
6.0771e-06
6.09194e-06
6.09133e-06
6.09034e-06
6.0891e-06
6.08803e-06
6.08662e-06
6.08486e-06
6.08318e-06
6.08182e-06
6.08076e-06
6.07991e-06
6.07921e-06
6.07861e-06
6.07811e-06
6.07768e-06
6.0773e-06
6.07698e-06
6.07669e-06
6.07643e-06
6.07619e-06
6.07595e-06
6.07572e-06
6.07548e-06
6.09144e-06
6.09081e-06
6.08978e-06
6.08851e-06
6.0874e-06
6.08585e-06
6.08396e-06
6.08224e-06
6.08088e-06
6.07977e-06
6.07883e-06
6.07803e-06
6.07734e-06
6.07674e-06
6.07624e-06
6.07581e-06
6.07545e-06
6.07513e-06
6.07485e-06
6.07459e-06
6.07435e-06
6.07411e-06
6.07387e-06
6.09091e-06
6.09025e-06
6.08919e-06
6.0879e-06
6.08673e-06
6.08503e-06
6.08304e-06
6.08129e-06
6.0799e-06
6.07872e-06
6.07766e-06
6.07673e-06
6.07594e-06
6.07527e-06
6.07473e-06
6.07429e-06
6.07392e-06
6.07361e-06
6.07335e-06
6.07311e-06
6.0729e-06
6.0727e-06
6.07251e-06
6.09034e-06
6.08966e-06
6.08857e-06
6.08726e-06
6.08601e-06
6.08416e-06
6.08209e-06
6.08033e-06
6.07888e-06
6.07758e-06
6.07638e-06
6.07534e-06
6.07449e-06
6.07382e-06
6.0733e-06
6.0729e-06
6.07259e-06
6.07235e-06
6.07215e-06
6.072e-06
6.07187e-06
6.07177e-06
6.07168e-06
6.07163e-06
6.08973e-06
6.08904e-06
6.08792e-06
6.08658e-06
6.08526e-06
6.08326e-06
6.08112e-06
6.07935e-06
6.0778e-06
6.07634e-06
6.07503e-06
6.07396e-06
6.07314e-06
6.07255e-06
6.07215e-06
6.07188e-06
6.07171e-06
6.0716e-06
6.07154e-06
6.07152e-06
6.07153e-06
6.07157e-06
6.07163e-06
6.07173e-06
6.08909e-06
6.08837e-06
6.08723e-06
6.08587e-06
6.08446e-06
6.08231e-06
6.08015e-06
6.07833e-06
6.07665e-06
6.07505e-06
6.0737e-06
6.07272e-06
6.07207e-06
6.0717e-06
6.07152e-06
6.07147e-06
6.0715e-06
6.07157e-06
6.07168e-06
6.0718e-06
6.07194e-06
6.0721e-06
6.07228e-06
6.07249e-06
6.0884e-06
6.08767e-06
6.08651e-06
6.08513e-06
6.08363e-06
6.08134e-06
6.07917e-06
6.07727e-06
6.07543e-06
6.07377e-06
6.07254e-06
6.07181e-06
6.07148e-06
6.07145e-06
6.07157e-06
6.07176e-06
6.07199e-06
6.07222e-06
6.07246e-06
6.07271e-06
6.07296e-06
6.07323e-06
6.07354e-06
6.07388e-06
6.08767e-06
6.08693e-06
6.08575e-06
6.08434e-06
6.08275e-06
6.08035e-06
6.07817e-06
6.07615e-06
6.07419e-06
6.07263e-06
6.07172e-06
6.07142e-06
6.07153e-06
6.07185e-06
6.07225e-06
6.07266e-06
6.07306e-06
6.07345e-06
6.07383e-06
6.0742e-06
6.07458e-06
6.07498e-06
6.07541e-06
6.07589e-06
6.08689e-06
6.08614e-06
6.08495e-06
6.08352e-06
6.08183e-06
6.07933e-06
6.07715e-06
6.07499e-06
6.07303e-06
6.07179e-06
6.07139e-06
6.07162e-06
6.07215e-06
6.07281e-06
6.07347e-06
6.07411e-06
6.07471e-06
6.07526e-06
6.07578e-06
6.07629e-06
6.07679e-06
6.07731e-06
6.07787e-06
6.07848e-06
6.08606e-06
6.0853e-06
6.08411e-06
6.08266e-06
6.08087e-06
6.07831e-06
6.07611e-06
6.07383e-06
6.07208e-06
6.07138e-06
6.07161e-06
6.07234e-06
6.07329e-06
6.07428e-06
6.07523e-06
6.07609e-06
6.07688e-06
6.07759e-06
6.07825e-06
6.07888e-06
6.0795e-06
6.08013e-06
6.0808e-06
6.08152e-06
6.08227e-06
6.08516e-06
6.08441e-06
6.08322e-06
6.08175e-06
6.07988e-06
6.07728e-06
6.07502e-06
6.07276e-06
6.07148e-06
6.07146e-06
6.07229e-06
6.07353e-06
6.0749e-06
6.07624e-06
6.07746e-06
6.07854e-06
6.07949e-06
6.08034e-06
6.08112e-06
6.08184e-06
6.08255e-06
6.08327e-06
6.08402e-06
6.08483e-06
6.08566e-06
6.08435e-06
6.0836e-06
6.0824e-06
6.0809e-06
6.07892e-06
6.07627e-06
6.07387e-06
6.07182e-06
6.07131e-06
6.07196e-06
6.07335e-06
6.07504e-06
6.07676e-06
6.07835e-06
6.07975e-06
6.08096e-06
6.08202e-06
6.08295e-06
6.08378e-06
6.08456e-06
6.08531e-06
6.08606e-06
6.08685e-06
6.08769e-06
6.08855e-06
6.08365e-06
6.0829e-06
6.08169e-06
6.08015e-06
6.07806e-06
6.07533e-06
6.07272e-06
6.07124e-06
6.07151e-06
6.07287e-06
6.07477e-06
6.0768e-06
6.07873e-06
6.08045e-06
6.08193e-06
6.08319e-06
6.08426e-06
6.0852e-06
6.08603e-06
6.0868e-06
6.08754e-06
6.08828e-06
6.08906e-06
6.08988e-06
6.09071e-06
6.08289e-06
6.08213e-06
6.08092e-06
6.07933e-06
6.07716e-06
6.07436e-06
6.0716e-06
6.07109e-06
6.07214e-06
6.07417e-06
6.07652e-06
6.07882e-06
6.08089e-06
6.08268e-06
6.08417e-06
6.08542e-06
6.08648e-06
6.08738e-06
6.08818e-06
6.08891e-06
6.08961e-06
6.09031e-06
6.09103e-06
6.0918e-06
6.09258e-06
6.08203e-06
6.08129e-06
6.08008e-06
6.07845e-06
6.0762e-06
6.07334e-06
6.07057e-06
6.07123e-06
6.07311e-06
6.0758e-06
6.07853e-06
6.081e-06
6.08313e-06
6.0849e-06
6.08634e-06
6.08752e-06
6.0885e-06
6.08933e-06
6.09007e-06
6.09073e-06
6.09137e-06
6.092e-06
6.09266e-06
6.09336e-06
6.09408e-06
6.08109e-06
6.08036e-06
6.07916e-06
6.07751e-06
6.07521e-06
6.07232e-06
6.06971e-06
6.0717e-06
6.07443e-06
6.07769e-06
6.08065e-06
6.08316e-06
6.08521e-06
6.08686e-06
6.08817e-06
6.08923e-06
6.09011e-06
6.09085e-06
6.09151e-06
6.0921e-06
6.09267e-06
6.09325e-06
6.09386e-06
6.09451e-06
6.0952e-06
6.08004e-06
6.07934e-06
6.07816e-06
6.0765e-06
6.07419e-06
6.07132e-06
6.06912e-06
6.07246e-06
6.07595e-06
6.07961e-06
6.08261e-06
6.08499e-06
6.08686e-06
6.08834e-06
6.0895e-06
6.09045e-06
6.09125e-06
6.09194e-06
6.09256e-06
6.09314e-06
6.0937e-06
6.09429e-06
6.09492e-06
6.09563e-06
6.09638e-06
6.07889e-06
6.07822e-06
6.07708e-06
6.07544e-06
6.07314e-06
6.07036e-06
6.06889e-06
6.07339e-06
6.07744e-06
6.08124e-06
6.08409e-06
6.08625e-06
6.08794e-06
6.0893e-06
6.09042e-06
6.09138e-06
6.09222e-06
6.09298e-06
6.09369e-06
6.09437e-06
6.09506e-06
6.09578e-06
6.09657e-06
6.09748e-06
6.09846e-06
6.07761e-06
6.07698e-06
6.0759e-06
6.07431e-06
6.07209e-06
6.06952e-06
6.06908e-06
6.07423e-06
6.07853e-06
6.08223e-06
6.08488e-06
6.08693e-06
6.08866e-06
6.09017e-06
6.0915e-06
6.09271e-06
6.0938e-06
6.09481e-06
6.09575e-06
6.09667e-06
6.0976e-06
6.09857e-06
6.09965e-06
6.10086e-06
6.10218e-06
6.10351e-06
6.07619e-06
6.07562e-06
6.07462e-06
6.07314e-06
6.07106e-06
6.06885e-06
6.0696e-06
6.07469e-06
6.07889e-06
6.08246e-06
6.08519e-06
6.08756e-06
6.08974e-06
6.09175e-06
6.09355e-06
6.09516e-06
6.09659e-06
6.09789e-06
6.09908e-06
6.10021e-06
6.10133e-06
6.10249e-06
6.10374e-06
6.10512e-06
6.10658e-06
6.10803e-06
6.07461e-06
6.07412e-06
6.07325e-06
6.07193e-06
6.07008e-06
6.06841e-06
6.07001e-06
6.07445e-06
6.07842e-06
6.08231e-06
6.08571e-06
6.08883e-06
6.09162e-06
6.09404e-06
6.09607e-06
6.09778e-06
6.09923e-06
6.10047e-06
6.10156e-06
6.10257e-06
6.10352e-06
6.10447e-06
6.10547e-06
6.10652e-06
6.10759e-06
6.10861e-06
6.07286e-06
6.07247e-06
6.07177e-06
6.0707e-06
6.0692e-06
6.06822e-06
6.07013e-06
6.07338e-06
6.07746e-06
6.08228e-06
6.08642e-06
6.0897e-06
6.09217e-06
6.09398e-06
6.09531e-06
6.09631e-06
6.09709e-06
6.09772e-06
6.09824e-06
6.0987e-06
6.09912e-06
6.09953e-06
6.09996e-06
6.10046e-06
6.10103e-06
6.10166e-06
6.07092e-06
6.07067e-06
6.07019e-06
6.06946e-06
6.06844e-06
6.06815e-06
6.0697e-06
6.07147e-06
6.07616e-06
6.08114e-06
6.08377e-06
6.08504e-06
6.08576e-06
6.08632e-06
6.08684e-06
6.08736e-06
6.08788e-06
6.08837e-06
6.08885e-06
6.08931e-06
6.08982e-06
6.09054e-06
6.09158e-06
6.09305e-06
6.09491e-06
6.09705e-06
6.06876e-06
6.06867e-06
6.0685e-06
6.06822e-06
6.06785e-06
6.06787e-06
6.06852e-06
6.06893e-06
6.0726e-06
6.07393e-06
6.07217e-06
6.07187e-06
6.073e-06
6.07498e-06
6.07731e-06
6.0797e-06
6.08202e-06
6.08418e-06
6.08619e-06
6.08807e-06
6.08989e-06
6.0917e-06
6.09357e-06
6.09557e-06
6.09763e-06
6.09964e-06
)
;

boundaryField
{
    inlet
    {
        type            freestream;
        freestreamValue uniform 1e-05;
        value           uniform 1e-05;
    }
    outlet
    {
        type            freestream;
        freestreamValue nonuniform List<scalar> 0();
        value           nonuniform List<scalar> 0();
    }
    walls
    {
        type            nutUSpaldingWallFunction;
        value           nonuniform List<scalar> 0();
    }
    frontAndBack
    {
        type            empty;
    }
    procBoundary0to1
    {
        type            processor;
        value           nonuniform List<scalar> 
94
(
6.09162e-06
6.09121e-06
6.09121e-06
6.09112e-06
6.09112e-06
6.09103e-06
6.09103e-06
6.0917e-06
6.0917e-06
6.09231e-06
6.09231e-06
6.0927e-06
6.09283e-06
6.09283e-06
6.09306e-06
6.09311e-06
6.09311e-06
6.0931e-06
6.09305e-06
6.09304e-06
6.09304e-06
6.09291e-06
6.09287e-06
6.09287e-06
6.09268e-06
6.09258e-06
6.09252e-06
6.09252e-06
6.0923e-06
6.09222e-06
6.09218e-06
6.09218e-06
6.09197e-06
6.09191e-06
6.09191e-06
6.0917e-06
6.09165e-06
6.09167e-06
6.09167e-06
6.0915e-06
6.09144e-06
6.09135e-06
6.09135e-06
6.09103e-06
6.0908e-06
6.0905e-06
6.0905e-06
6.08998e-06
6.08951e-06
6.08898e-06
6.08898e-06
6.08823e-06
6.08755e-06
6.08684e-06
6.08684e-06
6.08594e-06
6.08516e-06
6.08438e-06
6.0836e-06
6.0836e-06
6.08269e-06
6.08185e-06
6.08091e-06
6.07984e-06
6.07984e-06
6.07838e-06
6.07687e-06
6.07523e-06
6.07363e-06
6.07233e-06
6.07233e-06
6.07161e-06
6.07185e-06
6.07273e-06
6.07424e-06
6.07639e-06
6.07911e-06
6.07911e-06
6.08299e-06
6.08645e-06
6.08937e-06
6.09152e-06
6.09334e-06
6.09478e-06
6.09588e-06
6.09714e-06
6.09947e-06
6.09947e-06
6.10483e-06
6.10944e-06
6.10957e-06
6.10233e-06
6.09939e-06
6.10154e-06
)
;
    }
    procBoundary0to4
    {
        type            processor;
        value           nonuniform List<scalar> 
72
(
6.09167e-06
6.09219e-06
6.0927e-06
6.09312e-06
6.09349e-06
6.09386e-06
6.0942e-06
6.09447e-06
6.09468e-06
6.09486e-06
6.09503e-06
6.09521e-06
6.09539e-06
6.09556e-06
6.09571e-06
6.09584e-06
6.09596e-06
6.0961e-06
6.09625e-06
6.0964e-06
6.09651e-06
6.09661e-06
6.09678e-06
6.09678e-06
6.09685e-06
6.09694e-06
6.09702e-06
6.09704e-06
6.09699e-06
6.0969e-06
6.09681e-06
6.09674e-06
6.09667e-06
6.09659e-06
6.09647e-06
6.09631e-06
6.09615e-06
6.09598e-06
6.0958e-06
6.0956e-06
6.09536e-06
6.09509e-06
6.0948e-06
6.09448e-06
6.09415e-06
6.09379e-06
6.09341e-06
6.093e-06
6.09255e-06
6.09206e-06
6.09154e-06
6.09098e-06
6.09039e-06
6.08975e-06
6.08906e-06
6.08833e-06
6.08754e-06
6.0867e-06
6.08579e-06
6.08497e-06
6.08426e-06
6.08347e-06
6.08259e-06
6.08162e-06
6.08054e-06
6.07934e-06
6.078e-06
6.07652e-06
6.07488e-06
6.07306e-06
6.07104e-06
6.0688e-06
)
;
    }
    procBoundary0to5
    {
        type            processor;
        value           nonuniform List<scalar> 4(6.09211e-06 6.09223e-06 6.09238e-06 6.09266e-06);
    }
}


// ************************************************************************* //
