/*--------------------------------*- C++ -*----------------------------------*\
| =========                 |                                                 |
| \\      /  F ield         | OpenFOAM: The Open Source CFD Toolbox           |
|  \\    /   O peration     | Version:  2306                                  |
|   \\  /    A nd           | Website:  www.openfoam.com                      |
|    \\/     M anipulation  |                                                 |
\*---------------------------------------------------------------------------*/
FoamFile
{
    version     2.0;
    format      ascii;
    arch        "LSB;label=32;scalar=64";
    class       volSymmTensorField;
    location    "175";
    object      turbulenceProperties:devReff;
}
// * * * * * * * * * * * * * * * * * * * * * * * * * * * * * * * * * * * * * //

dimensions      [0 2 -2 0 0 0 0];

internalField   nonuniform List<symmTensor> 
1340
(
(8.38448e-05 -7.72523e-05 -2.96987e-21 -8.37792e-05 -1.07802e-21 -6.5575e-08)
(9.365e-05 -6.25515e-05 2.26331e-20 -9.37396e-05 2.23327e-20 8.95633e-08)
(0.000100804 -4.69832e-05 4.95213e-20 -0.000100771 2.7357e-20 -3.35846e-08)
(0.000105654 -2.80737e-05 -7.91262e-20 -0.000105799 -8.71973e-20 1.45293e-07)
(0.000106732 -7.24508e-06 -1.11258e-19 -0.000106712 -9.26041e-20 -2.04785e-08)
(7.04668e-05 -6.63398e-05 1.04007e-20 -7.04235e-05 9.10434e-21 -4.32443e-08)
(7.87595e-05 -5.40922e-05 2.9692e-20 -7.88234e-05 1.53093e-20 6.39587e-08)
(8.48992e-05 -4.10914e-05 -6.99049e-20 -8.48746e-05 -4.85084e-20 -2.46283e-08)
(8.92081e-05 -2.53283e-05 1.02596e-20 -8.93286e-05 1.83021e-20 1.20497e-07)
(9.04391e-05 -7.886e-06 1.05895e-19 -9.04089e-05 4.06766e-20 -3.01811e-08)
(8.78798e-05 9.98319e-06 -7.82076e-20 -8.78261e-05 -9.16644e-20 -5.36313e-08)
(5.95881e-05 -5.7367e-05 -5.32971e-21 -5.9553e-05 -4.92858e-21 -3.51659e-08)
(6.66694e-05 -4.70786e-05 -2.23132e-20 -6.67091e-05 -1.46207e-20 3.97229e-08)
(7.19753e-05 -3.61271e-05 -3.02053e-21 -7.19545e-05 6.81305e-22 -2.08609e-08)
(7.5818e-05 -2.2867e-05 4.1241e-20 -7.59144e-05 2.66722e-20 9.63961e-08)
(7.71285e-05 -8.13418e-06 -2.51989e-20 -7.70897e-05 -2.02347e-21 -3.87595e-08)
(7.53004e-05 7.00592e-06 9.15985e-20 -7.52552e-05 6.96533e-20 -4.5224e-08)
(7.02123e-05 2.17787e-05 1.52556e-19 -7.0183e-05 6.57277e-20 -2.93313e-08)
(5.06374e-05 -4.98936e-05 6.9882e-21 -5.06117e-05 4.88197e-21 -2.57307e-08)
(5.67417e-05 -4.11886e-05 9.85009e-21 -5.67683e-05 6.81329e-21 2.65742e-08)
(6.13604e-05 -3.19031e-05 2.61726e-20 -6.13416e-05 8.62728e-21 -1.87627e-08)
(6.47957e-05 -2.06619e-05 -7.14368e-20 -6.48759e-05 -4.79198e-20 8.02577e-08)
(6.61361e-05 -8.13295e-06 -3.53747e-20 -6.60939e-05 -2.55235e-20 -4.21736e-08)
(6.48513e-05 4.79024e-06 -8.89272e-20 -6.48151e-05 -5.41522e-20 -3.6205e-08)
(6.08382e-05 1.74932e-05 -1.09146e-19 -6.08213e-05 -2.88444e-20 -1.6912e-08)
(5.40825e-05 2.91458e-05 9.19559e-20 -5.40951e-05 1.67894e-20 1.25692e-08)
(4.32202e-05 -4.36136e-05 7.5459e-21 -4.31976e-05 3.83626e-21 -2.25926e-08)
(4.85198e-05 -3.61944e-05 1.58053e-21 -4.854e-05 5.30509e-23 2.0209e-08)
(5.25671e-05 -2.82794e-05 -2.13906e-20 -5.25485e-05 -5.93782e-21 -1.8592e-08)
(5.56457e-05 -1.86846e-05 6.59239e-20 -5.57111e-05 4.36142e-20 6.53899e-08)
(5.69791e-05 -7.96391e-06 1.22247e-19 -5.69372e-05 5.45372e-20 -4.19139e-08)
(5.61008e-05 3.13535e-06 2.83053e-21 -5.60721e-05 1.35028e-20 -2.87132e-08)
(5.29128e-05 1.41112e-05 2.32452e-19 -5.29066e-05 9.51546e-20 -6.15837e-09)
(4.73779e-05 2.42634e-05 -6.80345e-20 -4.73896e-05 -6.50682e-20 1.17193e-08)
(4.00408e-05 3.25528e-05 -1.15054e-19 -4.00365e-05 -3.43013e-20 -4.33231e-09)
(3.70303e-05 -3.8285e-05 7.1373e-21 -3.70118e-05 3.29585e-21 -1.84776e-08)
(4.16561e-05 -3.19325e-05 -1.28232e-20 -4.16687e-05 -7.46468e-21 1.25834e-08)
(4.52239e-05 -2.5141e-05 -4.97828e-21 -4.52104e-05 -3.37588e-21 -1.35282e-08)
(4.79886e-05 -1.69164e-05 -9.39933e-21 -4.80425e-05 3.59307e-21 5.38192e-08)
(4.92907e-05 -7.68786e-06 9.22912e-20 -4.92524e-05 3.43233e-20 -3.82473e-08)
(4.8719e-05 1.89142e-06 -1.00883e-19 -4.86955e-05 -4.97771e-20 -2.3544e-08)
(4.61713e-05 1.14243e-05 1.06963e-20 -4.61711e-05 7.74682e-21 -1.91021e-10)
(4.16083e-05 2.02958e-05 4.06822e-20 -4.16199e-05 -4.85399e-21 1.15673e-08)
(3.54818e-05 2.76206e-05 -2.92731e-19 -3.54789e-05 -7.96515e-20 -2.98586e-09)
(2.84487e-05 3.30388e-05 7.05023e-20 -2.84382e-05 3.91533e-20 -1.04973e-08)
(3.18321e-05 -3.37275e-05 -1.03975e-20 -3.18185e-05 -3.84162e-21 -1.35625e-08)
(3.58901e-05 -2.82694e-05 8.64797e-21 -3.58967e-05 7.40215e-21 6.62708e-09)
(3.90484e-05 -2.24139e-05 5.81036e-20 -3.90363e-05 2.93227e-20 -1.20581e-08)
(4.15394e-05 -1.53232e-05 1.64022e-20 -4.15849e-05 1.78122e-22 4.55576e-08)
(4.27941e-05 -7.34452e-06 -7.00682e-20 -4.2759e-05 -2.7801e-20 -3.51128e-08)
(4.24519e-05 9.59928e-07 6.52419e-20 -4.24331e-05 3.2779e-20 -1.8748e-08)
(4.04074e-05 9.27057e-06 -1.75702e-20 -4.04113e-05 -4.73846e-21 3.86372e-09)
(3.66241e-05 1.70479e-05 1.62942e-19 -3.66335e-05 5.9605e-20 9.45689e-09)
(3.14788e-05 2.35315e-05 5.32214e-20 -3.14766e-05 2.43305e-20 -2.13191e-09)
(2.55265e-05 2.84002e-05 -3.22132e-20 -2.55165e-05 -1.20082e-20 -1.00434e-08)
(2.74409e-05 -2.98066e-05 1.08001e-21 -2.7431e-05 -2.09996e-22 -9.89906e-09)
(3.10197e-05 -2.50976e-05 -2.62584e-21 -3.10233e-05 -3.56663e-21 3.63714e-09)
(3.3825e-05 -2.00326e-05 -4.96451e-20 -3.38141e-05 -2.79132e-20 -1.09327e-08)
(3.60735e-05 -1.3892e-05 -8.10446e-20 -3.61113e-05 -4.09139e-20 3.78554e-08)
(3.72719e-05 -6.9625e-06 -9.97735e-20 -3.72419e-05 -2.71447e-20 -3.00068e-08)
(3.71017e-05 2.63719e-07 1.4443e-19 -3.70862e-05 5.22722e-20 -1.55756e-08)
(3.54556e-05 7.53383e-06 -1.33218e-19 -3.5462e-05 -5.49344e-20 6.47533e-09)
(3.2303e-05 1.43713e-05 3.21083e-20 -3.23115e-05 2.5697e-20 8.50256e-09)
(2.79607e-05 2.01191e-05 8.0139e-20 -2.79581e-05 2.43845e-20 -2.56485e-09)
(2.28982e-05 2.44929e-05 5.5568e-20 -2.28912e-05 2.07594e-20 -7.01729e-09)
(1.74713e-05 2.75243e-05 5.27405e-20 -1.74699e-05 1.43524e-20 -1.34744e-09)
(2.37137e-05 -2.64157e-05 1.32674e-20 -2.37057e-05 7.29008e-21 -8.03674e-09)
(2.68829e-05 -2.23368e-05 2.05565e-20 -2.6885e-05 1.10743e-20 2.0867e-09)
(2.93833e-05 -1.79406e-05 5.69527e-20 -2.93731e-05 2.28806e-20 -1.02009e-08)
(3.14172e-05 -1.26031e-05 -1.28104e-20 -3.14477e-05 -6.06844e-21 3.05319e-08)
(3.25533e-05 -6.56188e-06 4.84066e-20 -3.25282e-05 1.01971e-20 -2.5029e-08)
(3.25111e-05 -2.52439e-07 -1.57893e-19 -3.24983e-05 -5.4418e-20 -1.28827e-08)
(3.11838e-05 6.12698e-06 1.36243e-19 -3.11897e-05 7.26347e-20 5.88143e-09)
(2.85446e-05 1.21534e-05 1.84695e-19 -2.85525e-05 4.50752e-20 7.93708e-09)
(2.48635e-05 1.72549e-05 -1.12945e-20 -2.48612e-05 -1.69053e-20 -2.30409e-09)
(2.05388e-05 2.11826e-05 7.82327e-20 -2.05325e-05 -1.23397e-21 -6.23715e-09)
(1.58784e-05 2.39552e-05 5.53496e-20 -1.58765e-05 1.20641e-20 -1.93974e-09)
(2.0537e-05 -2.34672e-05 -1.58842e-20 -2.05308e-05 -6.56479e-21 -6.17102e-09)
(2.33527e-05 -1.99237e-05 1.88654e-20 -2.33531e-05 6.64234e-21 4.42139e-10)
(2.55883e-05 -1.60948e-05 -5.05474e-20 -2.55788e-05 -2.42922e-20 -9.43873e-09)
(2.74301e-05 -1.14412e-05 -4.12599e-20 -2.7455e-05 -1.5334e-20 2.49023e-08)
(2.85028e-05 -6.15903e-06 -1.10231e-20 -2.84818e-05 5.82398e-21 -2.10029e-08)
(2.85528e-05 -6.30458e-07 1.64046e-19 -2.85439e-05 5.82531e-20 -8.92361e-09)
(2.74839e-05 4.97958e-06 -1.93368e-20 -2.74892e-05 -2.35052e-20 5.27722e-09)
(2.52663e-05 1.03048e-05 -1.31054e-19 -2.52727e-05 -5.88163e-20 6.39781e-09)
(2.21317e-05 1.48407e-05 -1.09253e-19 -2.213e-05 -4.13215e-20 -1.75448e-09)
(1.84239e-05 1.83639e-05 -3.72059e-19 -1.84187e-05 -8.34957e-20 -5.15895e-09)
(1.44076e-05 2.08944e-05 5.11193e-20 -1.44067e-05 2.98324e-20 -8.91754e-10)
(1.03728e-05 2.24738e-05 2.03939e-19 -1.037e-05 3.10398e-20 -2.73931e-09)
(1.78195e-05 -2.08908e-05 9.97575e-21 -1.78149e-05 4.32211e-21 -4.59744e-09)
(2.03279e-05 -1.78053e-05 3.51029e-21 -2.03275e-05 3.21993e-21 -4.00253e-10)
(2.23318e-05 -1.44614e-05 6.02033e-20 -2.2323e-05 2.66604e-20 -8.74241e-09)
(2.40021e-05 -1.03928e-05 9.39848e-20 -2.40226e-05 3.28285e-20 2.0561e-08)
(2.50119e-05 -5.76123e-06 -3.44674e-20 -2.49938e-05 -2.2494e-20 -1.81483e-08)
(2.51278e-05 -9.02321e-07 -1.37448e-19 -2.51214e-05 -4.8268e-20 -6.45442e-09)
(2.42671e-05 4.04215e-06 2.22857e-20 -2.42723e-05 3.60602e-21 5.2679e-09)
(2.23987e-05 8.75571e-06 -1.55364e-19 -2.24045e-05 -4.00305e-20 5.79126e-09)
(1.97196e-05 1.27935e-05 7.39657e-20 -1.97184e-05 4.34995e-20 -1.23617e-09)
(1.65287e-05 1.59551e-05 1.61575e-19 -1.65245e-05 5.62356e-20 -4.19229e-09)
(1.30568e-05 1.8258e-05 -9.69119e-20 -1.30558e-05 -3.0669e-20 -1.04035e-09)
(9.55585e-06 1.97333e-05 -1.43625e-19 -9.55245e-06 -4.17539e-20 -3.39931e-09)
(1.54862e-05 -1.86315e-05 -1.14496e-20 -1.54828e-05 -3.0493e-21 -3.44716e-09)
(1.7727e-05 -1.59389e-05 3.63113e-20 -1.77259e-05 1.41196e-20 -1.07908e-09)
(1.95272e-05 -1.30111e-05 -1.90235e-20 -1.95193e-05 -8.654e-21 -7.84369e-09)
(2.10438e-05 -9.44581e-06 -1.47096e-20 -2.10609e-05 -6.14492e-21 1.70547e-08)
(2.19912e-05 -5.37447e-06 -3.25984e-20 -2.1976e-05 -1.54235e-20 -1.5209e-08)
(2.21547e-05 -1.09438e-06 -9.97112e-20 -2.21497e-05 -3.18437e-20 -5.04843e-09)
(2.14621e-05 3.27389e-06 -5.99129e-20 -2.14669e-05 -2.13124e-20 4.80801e-09)
(1.98835e-05 7.45437e-06 -5.8689e-21 -1.98881e-05 1.05883e-20 4.65567e-09)
(1.75864e-05 1.10535e-05 6.86146e-20 -1.75847e-05 3.46923e-20 -1.75477e-09)
(1.48315e-05 1.38904e-05 7.18148e-20 -1.48276e-05 1.77791e-20 -3.9148e-09)
(1.18223e-05 1.59802e-05 1.59932e-19 -1.18219e-05 2.05647e-20 -4.4367e-10)
(8.77781e-06 1.73483e-05 -3.34112e-20 -8.77507e-06 -1.74458e-20 -2.7381e-09)
(1.34769e-05 -1.66432e-05 -8.66775e-21 -1.34748e-05 -4.55693e-21 -2.07809e-09)
(1.54835e-05 -1.42897e-05 -5.31192e-20 -1.54815e-05 -2.01497e-20 -2.00717e-09)
(1.71032e-05 -1.17203e-05 -3.32353e-20 -1.70965e-05 -1.22718e-20 -6.72865e-09)
(1.84818e-05 -8.58921e-06 -2.84248e-20 -1.84963e-05 -1.00055e-20 1.44792e-08)
(1.93685e-05 -5.00232e-06 -2.17601e-20 -1.93556e-05 -4.13187e-21 -1.2914e-08)
(1.9565e-05 -1.22437e-06 6.27295e-20 -1.95617e-05 1.15639e-20 -3.32998e-09)
(1.90098e-05 2.64169e-06 -2.8078e-19 -1.90142e-05 -8.38894e-20 4.43565e-09)
(1.76728e-05 6.35528e-06 1.94165e-20 -1.76771e-05 3.74367e-20 4.33093e-09)
(1.56978e-05 9.5662e-06 3.72104e-19 -1.56968e-05 9.21119e-20 -1.0093e-09)
(1.3313e-05 1.21125e-05 1.10386e-19 -1.33097e-05 2.10922e-21 -3.32989e-09)
(1.06966e-05 1.40069e-05 -2.804e-19 -1.06958e-05 -8.15689e-20 -8.57761e-10)
(8.0417e-06 1.52716e-05 -2.10527e-19 -8.03915e-06 -2.93855e-20 -2.54634e-09)
(5.49877e-06 1.59814e-05 4.11656e-20 -5.49494e-06 2.36351e-20 -3.82313e-09)
(1.17418e-05 -1.48886e-05 9.55105e-21 -1.17405e-05 3.09326e-21 -1.39061e-09)
(1.35429e-05 -1.28268e-05 -1.52304e-20 -1.35408e-05 -4.00515e-21 -2.06791e-09)
(1.50028e-05 -1.05691e-05 5.73959e-20 -1.49963e-05 1.59767e-20 -6.48072e-09)
(1.6257e-05 -7.81309e-06 -1.44789e-19 -1.62693e-05 -5.43578e-20 1.22812e-08)
(1.70847e-05 -4.64688e-06 -1.09851e-19 -1.70737e-05 -3.23436e-20 -1.10611e-08)
(1.73033e-05 -1.30591e-06 -5.80193e-20 -1.73009e-05 -9.68075e-21 -2.41632e-09)
(1.68602e-05 2.12145e-06 1.32749e-19 -1.68642e-05 5.69139e-20 4.03013e-09)
(1.57254e-05 5.42523e-06 1.72903e-19 -1.57287e-05 2.89784e-20 3.3698e-09)
(1.4023e-05 8.29281e-06 -1.83064e-19 -1.40218e-05 -5.92508e-20 -1.18209e-09)
(1.19531e-05 1.05784e-05 1.49138e-19 -1.19505e-05 3.51449e-20 -2.57361e-09)
(9.67371e-06 1.2293e-05 1.43723e-20 -9.67328e-06 1.64239e-20 -4.27521e-10)
(7.3558e-06 1.34554e-05 -5.28737e-20 -7.35386e-06 8.96821e-21 -1.93919e-09)
(5.12973e-06 1.41294e-05 1.78842e-19 -5.12628e-06 4.06597e-20 -3.45114e-09)
(1.02404e-05 -1.33358e-05 -9.78664e-21 -1.02392e-05 -4.06517e-21 -1.2402e-09)
(1.18595e-05 -1.15261e-05 -2.10907e-20 -1.18576e-05 -6.07355e-21 -1.85109e-09)
(1.31776e-05 -9.54006e-06 3.94841e-20 -1.31718e-05 1.62995e-20 -5.77817e-09)
(1.43196e-05 -7.10986e-06 7.25139e-20 -1.43298e-05 2.62696e-20 1.0184e-08)
(1.50911e-05 -4.30953e-06 1.15615e-19 -1.50816e-05 3.89495e-20 -9.5162e-09)
(1.53234e-05 -1.35108e-06 7.75216e-20 -1.53216e-05 2.87479e-20 -1.78517e-09)
(1.49716e-05 1.69251e-06 2.2917e-19 -1.49754e-05 4.90574e-20 3.75787e-09)
(1.40071e-05 4.63434e-06 -3.43697e-19 -1.40104e-05 -9.51538e-20 3.24874e-09)
(1.25364e-05 7.19767e-06 3.02927e-20 -1.25354e-05 1.54052e-20 -9.87386e-10)
(1.07352e-05 9.25074e-06 -6.48075e-20 -1.07329e-05 -9.93809e-21 -2.32756e-09)
(8.74511e-06 1.08014e-05 1.32536e-19 -8.74438e-06 2.84219e-20 -7.28479e-10)
(6.71701e-06 1.18663e-05 4.90438e-20 -6.71483e-06 6.29671e-21 -2.17891e-09)
(4.76562e-06 1.2502e-05 9.96919e-20 -4.76277e-06 -2.42514e-22 -2.84662e-09)
(2.93077e-06 1.27955e-05 4.57595e-20 -2.92882e-06 -4.50757e-22 -1.94677e-09)
(8.93875e-06 -1.19577e-05 9.68117e-21 -8.93791e-06 3.96505e-21 -8.36606e-10)
(1.0396e-05 -1.03679e-05 3.3324e-20 -1.0394e-05 9.21282e-21 -2.03394e-09)
(1.1588e-05 -8.61761e-06 -7.63781e-20 -1.15829e-05 -2.43407e-20 -5.08985e-09)
(1.26282e-05 -6.4718e-06 2.922e-20 -1.26371e-05 1.3653e-20 8.92363e-09)
(1.33461e-05 -3.99204e-06 9.45462e-20 -1.33381e-05 2.6446e-20 -8.03484e-09)
(1.35859e-05 -1.36856e-06 -2.35318e-20 -1.35846e-05 -1.38099e-20 -1.28804e-09)
(1.33088e-05 1.33831e-06 -1.23893e-19 -1.33124e-05 -2.81951e-20 3.54599e-09)
(1.24884e-05 3.96189e-06 2.71464e-19 -1.24907e-05 7.21481e-20 2.29939e-09)
(1.1215e-05 6.25522e-06 -2.28303e-19 -1.12141e-05 -5.91022e-20 -9.29843e-10)
(9.64519e-06 8.09862e-06 1.86473e-19 -9.64321e-06 4.91461e-20 -1.98568e-09)
(7.90445e-06 9.49989e-06 -7.05067e-20 -7.90405e-06 -3.21126e-20 -4.00107e-10)
(6.12685e-06 1.04729e-05 -7.82536e-20 -6.12504e-06 -1.45217e-20 -1.81676e-09)
(4.41444e-06 1.10674e-05 -1.71296e-19 -4.41205e-06 -2.8847e-20 -2.38545e-09)
(2.80308e-06 1.13589e-05 1.78599e-20 -2.80113e-06 5.47322e-21 -1.95252e-09)
(7.80796e-06 -1.07319e-05 -5.77545e-23 -7.80767e-06 -3.15696e-23 -2.87002e-10)
(9.12119e-06 -9.33427e-06 8.59637e-21 -9.11924e-06 1.83322e-21 -1.95166e-09)
(1.02004e-05 -7.79006e-06 -4.5968e-20 -1.01957e-05 -1.28221e-20 -4.69795e-09)
(1.11486e-05 -5.89216e-06 8.39451e-20 -1.11562e-05 2.4129e-20 7.62867e-09)
(1.18156e-05 -3.69362e-06 -1.08853e-19 -1.1809e-05 -3.05603e-20 -6.64175e-09)
(1.20582e-05 -1.3641e-06 1.37329e-19 -1.20571e-05 4.39896e-20 -1.06616e-09)
(1.18422e-05 1.04574e-06 1.27299e-19 -1.18456e-05 2.74141e-20 3.36958e-09)
(1.11437e-05 3.38733e-06 -1.21879e-19 -1.1146e-05 -3.87461e-20 2.34131e-09)
(1.00397e-05 5.4405e-06 -1.56703e-20 -1.00388e-05 7.68797e-21 -8.64452e-10)
(8.66882e-06 7.09692e-06 1.74585e-20 -8.66709e-06 -1.38663e-20 -1.72921e-09)
(7.14347e-06 8.36274e-06 -9.06249e-20 -7.14295e-06 -1.45444e-20 -5.14082e-10)
(5.58304e-06 9.2499e-06 1.16822e-19 -5.58129e-06 2.61512e-20 -1.74798e-09)
(4.0789e-06 9.80223e-06 7.3615e-20 -4.07681e-06 2.5976e-20 -2.08632e-09)
(2.66328e-06 1.00864e-05 1.02602e-20 -2.66114e-06 -1.1752e-20 -2.1404e-09)
(6.82407e-06 -9.64011e-06 -1.70074e-21 -6.82402e-06 -6.98173e-22 -5.39242e-11)
(8.00912e-06 -8.40981e-06 7.34552e-21 -8.00713e-06 2.12003e-21 -1.99542e-09)
(8.98706e-06 -7.0461e-06 -2.72268e-21 -8.98277e-06 -2.25417e-21 -4.28282e-09)
(9.85176e-06 -5.36574e-06 -4.84782e-20 -9.85839e-06 -1.73323e-20 6.62541e-09)
(1.04707e-05 -3.41416e-06 -1.15242e-19 -1.04651e-05 -3.34629e-20 -5.60693e-09)
(1.07123e-05 -1.34316e-06 -8.02085e-20 -1.07115e-05 -2.34498e-20 -8.54649e-10)
(1.05466e-05 8.044e-07 -1.36956e-19 -1.05495e-05 -3.72592e-20 2.89256e-09)
(9.95129e-06 2.89686e-06 5.43696e-20 -9.95326e-06 1.71854e-20 1.96835e-09)
(8.99303e-06 4.7358e-06 2.66487e-20 -8.99222e-06 2.52673e-21 -8.08049e-10)
(7.79417e-06 6.22443e-06 -2.80308e-19 -7.79269e-06 -5.33725e-20 -1.48648e-09)
(6.45576e-06 7.36718e-06 -5.34727e-20 -6.45529e-06 2.5554e-21 -4.65292e-10)
(5.08406e-06 8.17468e-06 -1.14924e-19 -5.08254e-06 -2.15147e-20 -1.51414e-09)
(3.76153e-06 8.68527e-06 2.0199e-19 -3.75968e-06 2.73903e-20 -1.84135e-09)
(2.51598e-06 8.9594e-06 -2.09228e-19 -2.51464e-06 -3.19144e-20 -1.34006e-09)
(1.35911e-06 9.04651e-06 -8.50871e-20 -1.35812e-06 -8.41867e-21 -9.90193e-10)
(5.96699e-06 -8.66581e-06 1.01145e-20 -5.96706e-06 3.78934e-21 7.62743e-11)
(7.0371e-06 -7.58168e-06 3.5031e-20 -7.03517e-06 1.13195e-20 -1.92399e-09)
(7.92421e-06 -6.37635e-06 6.29531e-20 -7.9202e-06 1.92863e-20 -4.01393e-09)
(8.71326e-06 -4.8871e-06 6.26385e-20 -8.71907e-06 1.8957e-20 5.80855e-09)
(9.28688e-06 -3.15311e-06 9.71021e-20 -9.28211e-06 2.76832e-20 -4.76494e-09)
(9.52479e-06 -1.30992e-06 9.48104e-20 -9.52405e-06 1.81751e-20 -7.36929e-10)
(9.40048e-06 6.0546e-07 -2.41367e-19 -9.40304e-06 -6.22502e-20 2.55408e-09)
(8.89296e-06 2.47653e-06 -1.19878e-19 -8.89471e-06 -1.81092e-20 1.74814e-09)
(8.0601e-06 4.12496e-06 1.66473e-19 -8.05931e-06 4.05447e-20 -7.98006e-10)
(7.01033e-06 5.46304e-06 3.27653e-19 -7.00907e-06 7.94906e-20 -1.2621e-09)
(5.83442e-06 6.49448e-06 1.59347e-19 -5.83399e-06 2.42831e-20 -4.2789e-10)
(4.62743e-06 7.22845e-06 -2.88888e-20 -4.62593e-06 -6.82756e-21 -1.49282e-09)
(3.46275e-06 7.69881e-06 -6.57393e-20 -3.46101e-06 -1.60832e-20 -1.7374e-09)
(2.36672e-06 7.95994e-06 2.49438e-19 -2.36532e-06 4.46143e-20 -1.40224e-09)
(1.34813e-06 8.05541e-06 -4.39414e-20 -1.34722e-06 -9.60538e-21 -9.04766e-10)
(5.21936e-06 -7.79467e-06 8.22969e-21 -5.21965e-06 2.14755e-21 2.90382e-10)
(6.18633e-06 -6.83883e-06 -6.92992e-21 -6.18448e-06 -2.84e-21 -1.85054e-09)
(6.99167e-06 -5.7728e-06 -2.45642e-20 -6.98802e-06 -7.4826e-21 -3.65284e-09)
(7.71203e-06 -4.45199e-06 -2.38657e-20 -7.71707e-06 -1.14004e-20 5.03598e-09)
(8.24298e-06 -2.9096e-06 -2.60502e-19 -8.23918e-06 -7.00929e-20 -3.79744e-09)
(8.47525e-06 -1.26816e-06 -4.85417e-20 -8.47463e-06 -4.53567e-21 -6.19357e-10)
(8.38502e-06 4.41921e-07 1.29234e-19 -8.38727e-06 3.73731e-20 2.25548e-09)
(7.95241e-06 2.11612e-06 1.12965e-19 -7.95399e-06 2.28431e-20 1.57542e-09)
(7.22789e-06 3.59446e-06 -2.69174e-19 -7.2272e-06 -5.79121e-20 -6.91691e-10)
(6.30767e-06 4.79764e-06 4.23582e-20 -6.30655e-06 -4.68256e-22 -1.11618e-09)
(5.27341e-06 5.7286e-06 -2.5759e-20 -5.27295e-06 -4.86256e-21 -4.57425e-10)
(4.2104e-06 6.39489e-06 5.76042e-21 -4.2091e-06 5.69202e-21 -1.29588e-09)
(3.18415e-06 6.82681e-06 -7.78206e-20 -3.18273e-06 -7.68512e-21 -1.41564e-09)
(2.21875e-06 7.07341e-06 -1.45229e-19 -2.21754e-06 -3.25042e-20 -1.21023e-09)
(1.32225e-06 7.17297e-06 1.17028e-21 -1.32113e-06 8.11018e-22 -1.12576e-09)
(4.56638e-06 -7.01486e-06 -2.30478e-21 -4.56682e-06 -4.88049e-22 4.3879e-10)
(5.44087e-06 -6.17179e-06 2.3769e-20 -5.43903e-06 6.69527e-21 -1.8382e-09)
(6.17238e-06 -5.2282e-06 2.2618e-20 -6.16913e-06 5.90516e-21 -3.24661e-09)
(6.83046e-06 -4.05595e-06 7.97312e-21 -6.83476e-06 1.87689e-21 4.30334e-09)
(7.32153e-06 -2.68279e-06 3.27851e-20 -7.31839e-06 1.44984e-20 -3.1458e-09)
(7.54663e-06 -1.21989e-06 2.12798e-19 -7.546e-06 5.01186e-20 -6.22829e-10)
(7.48414e-06 3.07979e-07 -1.23705e-19 -7.48618e-06 -3.34181e-20 2.0424e-09)
(7.11575e-06 1.80684e-06 8.46795e-20 -7.11702e-06 3.11264e-20 1.26806e-09)
(6.48487e-06 3.13334e-06 2.9675e-19 -6.48428e-06 5.66458e-20 -5.88166e-10)
(5.67758e-06 4.21544e-06 -2.21806e-19 -5.67662e-06 -4.51486e-20 -9.54519e-10)
(4.76715e-06 5.05534e-06 1.7973e-19 -4.76683e-06 3.59613e-20 -3.19474e-10)
(3.82981e-06 5.65995e-06 1.25923e-19 -3.82854e-06 1.45632e-20 -1.27043e-09)
(2.92503e-06 6.05586e-06 2.17026e-19 -2.92357e-06 3.22621e-20 -1.46142e-09)
(2.07419e-06 6.28695e-06 -2.21228e-20 -2.07327e-06 -3.63942e-21 -9.16772e-10)
(1.28443e-06 6.38843e-06 -9.08329e-20 -1.28369e-06 -1.07937e-20 -7.30554e-10)
(5.61749e-07 6.38739e-06 -1.07545e-19 -5.60602e-07 -9.62937e-21 -1.14734e-09)
(3.99566e-06 -6.31602e-06 2.61864e-21 -3.99621e-06 -1.83215e-23 5.57013e-10)
(4.78708e-06 -5.57202e-06 -5.96529e-20 -4.78528e-06 -1.54043e-20 -1.79743e-09)
(5.4517e-06 -4.73639e-06 7.30225e-20 -5.44884e-06 1.99526e-20 -2.85655e-09)
(6.05305e-06 -3.69534e-06 -2.31973e-20 -6.05688e-06 -4.28881e-21 3.83254e-09)
(6.50714e-06 -2.47221e-06 1.93837e-19 -6.50452e-06 4.75383e-20 -2.62483e-09)
(6.72385e-06 -1.1674e-06 -1.28849e-19 -6.72333e-06 -3.51302e-20 -5.2569e-10)
(6.68408e-06 1.98414e-07 2.03309e-20 -6.68594e-06 1.21925e-20 1.85477e-09)
(6.37067e-06 1.54121e-06 3.13078e-19 -6.37177e-06 5.60833e-20 1.10668e-09)
(5.82112e-06 2.73207e-06 -3.57995e-19 -5.82052e-06 -7.801e-20 -5.99348e-10)
(5.11226e-06 3.7056e-06 1.47042e-19 -5.11139e-06 3.77411e-20 -8.71003e-10)
(4.31026e-06 4.46333e-06 -2.24543e-19 -4.30986e-06 -5.42271e-20 -4.03362e-10)
(3.48334e-06 5.01152e-06 -2.81541e-19 -3.48233e-06 -5.00654e-20 -1.00772e-09)
(2.6851e-06 5.37343e-06 -1.45412e-19 -2.68392e-06 -2.60148e-20 -1.18591e-09)
(1.93452e-06 5.58897e-06 5.27647e-20 -1.93359e-06 1.56393e-20 -9.3149e-10)
(1.23891e-06 5.69033e-06 1.46041e-19 -1.23832e-06 2.10148e-20 -5.88952e-10)
(6.02877e-07 5.6999e-06 6.53589e-20 -6.01855e-07 1.33355e-20 -1.02191e-09)
(4.21309e-06 -5.03215e-06 -2.10679e-20 -4.21145e-06 -6.01072e-21 -1.6431e-09)
(4.81726e-06 -4.29191e-06 -2.38364e-20 -4.81466e-06 -6.1423e-21 -2.60601e-09)
(5.36689e-06 -3.36674e-06 -9.12603e-21 -5.37025e-06 -4.34938e-21 3.35979e-09)
(5.7865e-06 -2.27666e-06 -1.41342e-19 -5.78435e-06 -3.16378e-20 -2.15236e-09)
(5.99416e-06 -1.1122e-06 2.28307e-19 -5.99371e-06 5.48121e-20 -4.56941e-10)
(5.9729e-06 1.09442e-07 -9.40883e-20 -5.97449e-06 -3.12222e-20 1.58309e-09)
(5.70647e-06 1.31309e-06 -4.04659e-19 -5.70754e-06 -8.5876e-20 1.06863e-09)
(5.22781e-06 2.38234e-06 3.5239e-19 -5.22728e-06 8.7395e-20 -5.30417e-10)
(4.60502e-06 3.25847e-06 5.03707e-20 -4.60434e-06 8.42206e-22 -6.77229e-10)
(3.89815e-06 3.94207e-06 1.09176e-19 -3.89779e-06 3.52068e-20 -3.60789e-10)
(3.16788e-06 4.43903e-06 1.28651e-19 -3.16691e-06 2.80297e-20 -9.71692e-10)
(2.46312e-06 4.76965e-06 -1.24343e-20 -2.46193e-06 7.18211e-21 -1.18708e-09)
(1.80116e-06 4.96981e-06 2.85578e-20 -1.80029e-06 -1.59637e-21 -8.71124e-10)
(1.18825e-06 5.06864e-06 -1.50902e-19 -1.18769e-06 -2.42966e-20 -5.58864e-10)
(6.27464e-07 5.08709e-06 8.23077e-20 -6.26786e-07 8.623e-21 -6.78532e-10)
(1.10741e-07 5.0425e-06 -1.55006e-19 -1.10161e-07 -2.24088e-20 -5.80058e-10)
(3.70878e-06 -4.54576e-06 -1.51468e-20 -3.70728e-06 -3.39653e-21 -1.50255e-09)
(4.25818e-06 -3.88989e-06 3.87933e-20 -4.25589e-06 8.50395e-21 -2.28953e-09)
(4.76062e-06 -3.06737e-06 -1.15988e-19 -4.76351e-06 -2.89349e-20 2.8938e-09)
(5.14819e-06 -2.09525e-06 3.03608e-20 -5.14644e-06 6.07945e-21 -1.74639e-09)
(5.34641e-06 -1.05559e-06 -2.18101e-19 -5.34599e-06 -5.19044e-20 -4.14215e-10)
(5.34007e-06 3.7698e-08 5.00511e-20 -5.34149e-06 1.38135e-20 1.42227e-09)
(5.11407e-06 1.11708e-06 1.45336e-20 -5.11493e-06 8.97538e-21 8.6393e-10)
(4.69699e-06 2.07771e-06 -1.82355e-20 -4.69646e-06 -1.2251e-20 -5.2619e-10)
(4.14963e-06 2.86634e-06 -5.18381e-20 -4.14896e-06 -5.30085e-21 -6.6679e-10)
(3.52621e-06 3.48315e-06 2.82871e-19 -3.52585e-06 4.68338e-20 -3.66743e-10)
(2.88122e-06 3.93333e-06 -3.33256e-20 -2.88031e-06 -1.17231e-20 -9.02166e-10)
(2.25876e-06 4.23486e-06 2.52806e-19 -2.25777e-06 3.50532e-20 -9.82313e-10)
(1.67441e-06 4.42024e-06 -8.03482e-20 -1.67367e-06 -1.45594e-20 -7.40873e-10)
(1.13414e-06 4.51558e-06 8.92079e-20 -1.1335e-06 1.89649e-20 -6.3466e-10)
(6.40236e-07 4.54033e-06 -7.12445e-20 -6.39716e-07 -1.34786e-20 -5.20141e-10)
(1.85872e-07 4.50898e-06 1.17734e-19 -1.85336e-07 2.28784e-20 -5.35277e-10)
(3.26538e-06 -4.10728e-06 -7.45133e-20 -3.26396e-06 -1.86363e-20 -1.41828e-09)
(3.76519e-06 -3.52586e-06 -9.31282e-21 -3.76316e-06 4.62288e-22 -2.03677e-09)
(4.2245e-06 -2.7944e-06 1.88259e-19 -4.22702e-06 4.57579e-20 2.5218e-09)
(4.58234e-06 -1.92719e-06 1.63335e-21 -4.58085e-06 -3.60226e-22 -1.48657e-09)
(4.77087e-06 -9.98402e-07 1.36455e-19 -4.7705e-06 3.05638e-20 -3.76509e-10)
(4.77652e-06 -1.96291e-08 -1.59026e-19 -4.77778e-06 -3.76701e-20 1.26207e-09)
(4.58531e-06 9.48583e-07 2.18379e-20 -4.58606e-06 7.91783e-21 7.50243e-10)
(4.22182e-06 1.81195e-06 -6.49348e-20 -4.2214e-06 -8.99312e-21 -4.16105e-10)
(3.74067e-06 2.52191e-06 5.60932e-20 -3.74014e-06 7.42754e-21 -5.3191e-10)
(3.1907e-06 3.07853e-06 -1.50245e-19 -3.19039e-06 -4.10352e-20 -3.06285e-10)
(2.6207e-06 3.48629e-06 -7.98054e-20 -2.61993e-06 -6.69652e-21 -7.71464e-10)
(2.07071e-06 3.76119e-06 -2.82565e-19 -2.06973e-06 -4.71187e-20 -9.77846e-10)
(1.55471e-06 3.93251e-06 8.09833e-20 -1.5541e-06 1.91386e-20 -6.09749e-10)
(1.07842e-06 4.02361e-06 3.89725e-20 -1.07794e-06 2.53267e-21 -4.81017e-10)
(6.43517e-07 4.05248e-06 -2.96404e-20 -6.43056e-07 -4.75449e-22 -4.61217e-10)
(2.44083e-07 4.03195e-06 -3.60976e-20 -2.43532e-07 -4.79616e-21 -5.51146e-10)
(2.87527e-06 -3.71166e-06 5.35715e-20 -2.87397e-06 1.40257e-20 -1.29856e-09)
(3.33002e-06 -3.19615e-06 8.85057e-20 -3.32825e-06 2.02108e-20 -1.778e-09)
(3.74999e-06 -2.54546e-06 -7.95413e-20 -3.7522e-06 -2.24918e-20 2.21012e-09)
(4.08021e-06 -1.77167e-06 -2.11085e-19 -4.07901e-06 -4.65564e-20 -1.19892e-09)
(4.25898e-06 -9.41636e-07 1.88992e-20 -4.2587e-06 4.16156e-21 -2.78992e-10)
(4.27426e-06 -6.49965e-08 -4.32971e-20 -4.27537e-06 -6.37824e-21 1.10927e-09)
(4.11289e-06 8.03969e-07 1.32812e-19 -4.11356e-06 3.02902e-20 6.73889e-10)
(3.79627e-06 1.58014e-06 1.83501e-19 -3.79581e-06 3.23121e-20 -4.61058e-10)
(3.37325e-06 2.21947e-06 -1.17578e-19 -3.37274e-06 -2.24083e-20 -5.05236e-10)
(2.88781e-06 2.7219e-06 -1.76614e-19 -2.88753e-06 -2.23962e-20 -2.85293e-10)
(2.38411e-06 3.09113e-06 3.44631e-19 -2.38336e-06 5.92746e-20 -7.54085e-10)
(1.89795e-06 3.34153e-06 1.75962e-19 -1.89717e-06 3.22947e-20 -7.80695e-10)
(1.44218e-06 3.49943e-06 -5.15293e-20 -1.44157e-06 -1.62237e-20 -6.08908e-10)
(1.02187e-06 3.58616e-06 2.0797e-20 -1.02134e-06 2.2128e-21 -5.26378e-10)
(6.39272e-07 3.6176e-06 1.5034e-19 -6.38752e-07 2.35344e-20 -5.2022e-10)
(2.87412e-07 3.606e-06 1.3262e-19 -2.87192e-07 1.87868e-20 -2.20796e-10)
(-3.71337e-08 3.55941e-06 2.04402e-20 3.76778e-08 1.82959e-21 -5.44109e-10)
(2.53192e-06 -3.35445e-06 -1.28422e-20 -2.53073e-06 -3.73079e-21 -1.18989e-09)
(2.94575e-06 -2.89731e-06 -9.98669e-20 -2.9442e-06 -2.33221e-20 -1.55242e-09)
(3.32978e-06 -2.31835e-06 1.48026e-20 -3.33169e-06 7.51062e-21 1.90953e-09)
(3.63444e-06 -1.62766e-06 3.21442e-19 -3.6334e-06 6.94972e-20 -1.03666e-09)
(3.80353e-06 -8.85578e-07 -2.43613e-19 -3.80325e-06 -5.52878e-20 -2.83481e-10)
(3.82634e-06 -1.0024e-07 2.17709e-20 -3.82732e-06 6.93107e-21 9.81399e-10)
(3.69059e-06 6.79795e-07 -1.10495e-20 -3.69119e-06 -3.05026e-21 5.97026e-10)
(3.41493e-06 1.37777e-06 -1.20843e-19 -3.41458e-06 -1.9253e-20 -3.50347e-10)
(3.04305e-06 1.95362e-06 3.34632e-19 -3.04262e-06 5.83707e-20 -4.36576e-10)
(2.61448e-06 2.4073e-06 1.9931e-20 -2.61424e-06 -6.82324e-21 -2.36271e-10)
(2.16928e-06 2.74162e-06 -3.33372e-19 -2.16856e-06 -6.2169e-20 -7.21164e-10)
(1.73928e-06 2.96974e-06 8.61868e-20 -1.73856e-06 1.20355e-20 -7.20046e-10)
(1.33674e-06 3.11509e-06 -1.57627e-19 -1.33622e-06 -2.51281e-20 -5.19033e-10)
(9.65926e-07 3.19708e-06 -1.45524e-19 -9.65567e-07 -2.3536e-20 -3.59496e-10)
(6.28992e-07 3.23001e-06 -6.75054e-20 -6.28505e-07 -1.15101e-20 -4.87365e-10)
(3.19281e-07 3.22545e-06 2.45323e-20 -3.19129e-07 1.48389e-21 -1.52816e-10)
(3.42585e-08 3.18985e-06 1.86311e-20 -3.37758e-08 1.52013e-21 -4.82729e-10)
(2.22961e-06 -3.03183e-06 -3.55036e-20 -2.22848e-06 -7.61116e-21 -1.1279e-09)
(2.60624e-06 -2.62636e-06 6.41713e-20 -2.60489e-06 1.54172e-20 -1.34777e-09)
(2.95741e-06 -2.11111e-06 4.4664e-20 -2.95908e-06 5.93659e-21 1.66288e-09)
(3.23836e-06 -1.49454e-06 -3.49661e-19 -3.2375e-06 -7.52423e-20 -8.53609e-10)
(3.3979e-06 -8.30993e-07 2.53303e-19 -3.39769e-06 5.79894e-20 -2.093e-10)
(3.42656e-06 -1.27146e-07 -9.0846e-20 -3.42744e-06 -1.67654e-20 8.8337e-10)
(3.3129e-06 5.73399e-07 2.85292e-19 -3.31338e-06 5.71686e-20 4.79834e-10)
(3.073e-06 1.20125e-06 2.01586e-19 -3.07266e-06 2.98775e-20 -3.38855e-10)
(2.74607e-06 1.72011e-06 -5.02662e-19 -2.74566e-06 -9.66168e-20 -4.06177e-10)
(2.36774e-06 2.12971e-06 -2.30941e-19 -2.36752e-06 -3.36929e-20 -2.17538e-10)
(1.97414e-06 2.4325e-06 9.64845e-20 -1.9735e-06 2.46098e-20 -6.44853e-10)
(1.59387e-06 2.6402e-06 -3.67451e-20 -1.59323e-06 -8.17297e-21 -6.41964e-10)
(1.23809e-06 2.77387e-06 1.14563e-19 -1.23758e-06 2.41925e-20 -5.05088e-10)
(9.10856e-07 2.85114e-06 -9.04243e-20 -9.10447e-07 -1.106e-20 -4.09679e-10)
(6.13934e-07 2.88484e-06 -3.061e-20 -6.13526e-07 -4.22568e-21 -4.08028e-10)
(3.41788e-07 2.88554e-06 -2.02708e-20 -3.41623e-07 -5.72147e-22 -1.6537e-10)
(9.12621e-08 2.85899e-06 -1.97859e-20 -9.0838e-08 -3.9083e-21 -4.24098e-10)
(1.96336e-06 -2.74026e-06 3.08155e-21 -1.96233e-06 1.3503e-21 -1.02596e-09)
(2.30612e-06 -2.38063e-06 7.48932e-20 -2.30494e-06 1.62627e-20 -1.18199e-09)
(2.62723e-06 -1.922e-06 -8.27435e-20 -2.62869e-06 -1.72433e-20 1.46295e-09)
(2.88627e-06 -1.37149e-06 1.88869e-19 -2.88554e-06 4.14911e-20 -7.29828e-10)
(3.03653e-06 -7.77935e-07 -9.74555e-20 -3.03632e-06 -2.1973e-20 -2.09992e-10)
(3.06962e-06 -1.46988e-07 1.48329e-19 -3.07038e-06 2.86281e-20 7.59454e-10)
(2.97488e-06 4.82259e-07 -2.69828e-19 -2.97533e-06 -5.9639e-20 4.49008e-10)
(2.76634e-06 1.04716e-06 -2.93527e-20 -2.76599e-06 -4.765e-21 -3.4847e-10)
(2.47889e-06 1.51485e-06 4.18618e-19 -2.47854e-06 8.68771e-20 -3.5119e-10)
(2.14494e-06 1.8847e-06 -2.30394e-20 -2.14473e-06 -2.58848e-24 -2.03258e-10)
(1.79689e-06 2.159e-06 -6.14481e-20 -1.79632e-06 -9.78062e-21 -5.74913e-10)
(1.46051e-06 2.34813e-06 -1.74311e-20 -1.45996e-06 9.51614e-22 -5.45311e-10)
(1.14614e-06 2.47097e-06 1.51259e-19 -1.14571e-06 2.39463e-20 -4.30247e-10)
(8.57302e-07 2.54351e-06 9.00509e-20 -8.56963e-07 1.40533e-20 -3.387e-10)
(5.95548e-07 2.5774e-06 -9.49345e-20 -5.95203e-07 -1.53029e-20 -3.44397e-10)
(3.56381e-07 2.58213e-06 1.43761e-19 -3.56166e-07 2.22392e-20 -2.15358e-10)
(1.358e-07 2.56329e-06 2.47938e-20 -1.3559e-07 2.9992e-21 -2.09386e-10)
(-6.92575e-08 2.52469e-06 -1.21823e-19 6.9594e-08 -1.51733e-20 -3.36503e-10)
(1.72878e-06 -2.47662e-06 -9.03092e-21 -1.72786e-06 -2.84718e-21 -9.20335e-10)
(2.04075e-06 -2.15768e-06 -1.14998e-19 -2.03971e-06 -2.49491e-20 -1.04201e-09)
(2.33434e-06 -1.7494e-06 2.67616e-20 -2.33563e-06 6.85777e-21 1.29026e-09)
(2.57308e-06 -1.25784e-06 1.89336e-20 -2.57248e-06 2.04801e-21 -5.99163e-10)