/*--------------------------------*- C++ -*----------------------------------*\
| =========                 |                                                 |
| \\      /  F ield         | OpenFOAM: The Open Source CFD Toolbox           |
|  \\    /   O peration     | Version:  2306                                  |
|   \\  /    A nd           | Website:  www.openfoam.com                      |
|    \\/     M anipulation  |                                                 |
\*---------------------------------------------------------------------------*/
FoamFile
{
    version     2.0;
    format      ascii;
    arch        "LSB;label=32;scalar=64";
    class       volScalarField;
    location    "175";
    object      turbulenceProperties:k;
}
// * * * * * * * * * * * * * * * * * * * * * * * * * * * * * * * * * * * * * //

dimensions      [0 2 -2 0 0 0 0];

internalField   nonuniform List<scalar> 
1340
(
0.000504742
0.000498863
0.000492418
0.000484406
0.000473669
0.000428497
0.000423214
0.000417623
0.000410906
0.000401934
0.000391525
0.000366225
0.000361488
0.00035658
0.000350884
0.000343351
0.000334779
0.000325457
0.000314758
0.000310537
0.000306216
0.000301338
0.000294981
0.000287873
0.000280277
0.000272069
0.00027187
0.000268094
0.000264295
0.000260074
0.00025468
0.000248748
0.00024248
0.000235729
0.000228502
0.000235841
0.000232455
0.000229108
0.000225439
0.000220829
0.000215847
0.000210619
0.000205021
0.000199108
0.000193051
0.000205355
0.00020233
0.000199361
0.000196162
0.0001922
0.000187992
0.000183588
0.000178905
0.000174033
0.000169081
0.000179401
0.000176706
0.00017407
0.000171261
0.000167841
0.000164265
0.000160524
0.000156578
0.000152533
0.000148466
0.000144364
0.000157191
0.000154786
0.000152442
0.000149968
0.000147002
0.000143944
0.000140742
0.000137398
0.000134013
0.000130646
0.000127265
0.000138091
0.000135942
0.000133852
0.000131667
0.000129088
0.000126451
0.000123699
0.000120846
0.000117996
0.000115184
0.000112389
0.000109606
0.000121592
0.000119672
0.000117806
0.000115871
0.000113623
0.000111332
0.000108954
0.000106508
0.000104089
0.000101724
9.93968e-05
9.70877e-05
0.000107286
0.00010557
0.000103901
0.000102185
0.000100219
9.82175e-05
9.61512e-05
9.40441e-05
9.19798e-05
8.9978e-05
8.80247e-05
8.60942e-05
9.48363e-05
9.33053e-05
9.18087e-05
9.02832e-05
8.85587e-05
8.68035e-05
8.50008e-05
8.31763e-05
8.14033e-05
7.96974e-05
7.80435e-05
7.64271e-05
7.48389e-05
8.39702e-05
8.26032e-05
8.12612e-05
7.99023e-05
7.83838e-05
7.68387e-05
7.52608e-05
7.3672e-05
7.21419e-05
7.06792e-05
6.92702e-05
6.79045e-05
6.6562e-05
7.446e-05
7.32363e-05
7.20363e-05
7.08223e-05
6.94818e-05
6.81178e-05
6.6731e-05
6.53421e-05
6.40127e-05
6.27502e-05
6.15419e-05
6.03794e-05
5.92456e-05
5.81279e-05
6.6115e-05
6.50189e-05
6.39452e-05
6.2859e-05
6.16733e-05
6.0466e-05
5.9242e-05
5.80242e-05
5.68647e-05
5.57682e-05
5.47255e-05
5.37278e-05
5.27619e-05
5.18077e-05
5.87746e-05
5.77943e-05
5.68326e-05
5.5859e-05
5.48085e-05
5.37373e-05
5.26539e-05
5.15827e-05
5.05656e-05
4.96088e-05
4.87032e-05
4.78418e-05
4.70129e-05
4.61944e-05
5.23061e-05
5.14285e-05
5.05675e-05
4.96941e-05
4.87607e-05
4.78087e-05
4.6847e-05
4.59016e-05
4.50071e-05
4.4168e-05
4.33766e-05
4.26276e-05
4.19109e-05
4.1208e-05
4.0509e-05
4.65957e-05
4.5808e-05
4.50374e-05
4.42542e-05
4.34231e-05
4.25758e-05
4.17214e-05
4.08839e-05
4.00941e-05
3.93548e-05
3.86597e-05
3.80048e-05
3.73802e-05
3.67725e-05
3.61667e-05
4.15443e-05
4.08371e-05
4.0148e-05
3.94457e-05
3.87038e-05
3.7949e-05
3.71892e-05
3.64453e-05
3.57458e-05
3.50919e-05
3.4479e-05
3.39033e-05
3.33559e-05
3.28265e-05
3.2298e-05
3.70691e-05
3.64347e-05
3.58181e-05
3.51889e-05
3.45253e-05
3.38526e-05
3.31757e-05
3.25141e-05
3.18926e-05
3.13127e-05
3.07695e-05
3.02607e-05
2.97796e-05
2.93153e-05
2.88549e-05
2.83934e-05
3.30994e-05
3.25303e-05
3.19782e-05
3.14146e-05
3.08214e-05
3.02209e-05
2.96173e-05
2.90281e-05
2.84747e-05
2.79588e-05
2.7476e-05
2.70251e-05
2.65989e-05
2.6189e-05
2.57879e-05
2.53807e-05
2.90629e-05
2.85689e-05
2.80639e-05
2.75334e-05
2.69972e-05
2.64586e-05
2.59332e-05
2.544e-05
2.498e-05
2.45496e-05
2.41481e-05
2.37699e-05
2.34074e-05
2.30531e-05
2.2697e-05
2.23343e-05
2.59799e-05
2.55384e-05
2.50858e-05
2.46113e-05
2.41327e-05
2.36519e-05
2.3183e-05
2.2743e-05
2.23322e-05
2.1948e-05
2.15896e-05
2.12526e-05
2.09304e-05
2.06165e-05
2.0304e-05
1.99833e-05
2.32359e-05
2.28413e-05
2.24361e-05
2.20118e-05
2.15846e-05
2.11555e-05
2.07371e-05
2.03439e-05
1.99768e-05
1.96332e-05
1.93125e-05
1.90116e-05
1.87249e-05
1.84458e-05
1.81697e-05
1.78867e-05
2.07911e-05
2.04385e-05
2.00759e-05
1.96969e-05
1.93157e-05
1.89329e-05
1.85596e-05
1.82084e-05
1.78802e-05
1.75727e-05
1.72856e-05
1.70164e-05
1.676e-05
1.65119e-05
1.62673e-05
1.60185e-05
1.57624e-05
1.86109e-05
1.8296e-05
1.7972e-05
1.76335e-05
1.72938e-05
1.69526e-05
1.66195e-05
1.63061e-05
1.60127e-05
1.57374e-05
1.54802e-05
1.52392e-05
1.50101e-05
1.4789e-05
1.45714e-05
1.43525e-05
1.41259e-05
1.66653e-05
1.63841e-05
1.60948e-05
1.5793e-05
1.54905e-05
1.51866e-05
1.48899e-05
1.46103e-05
1.43483e-05
1.41019e-05
1.38717e-05
1.36558e-05
1.34507e-05
1.32536e-05
1.30604e-05
1.28668e-05
1.26663e-05
1.49277e-05
1.46767e-05
1.44186e-05
1.415e-05
1.3881e-05
1.36107e-05
1.33467e-05
1.30977e-05
1.28639e-05
1.26436e-05
1.24377e-05
1.22445e-05
1.20612e-05
1.18853e-05
1.17136e-05
1.15423e-05
1.13664e-05
1.11838e-05
1.33747e-05
1.3151e-05
1.2921e-05
1.26823e-05
1.24435e-05
1.22034e-05
1.1969e-05
1.17477e-05
1.15394e-05
1.13429e-05
1.11588e-05
1.0986e-05
1.08224e-05
1.06655e-05
1.05132e-05
1.03615e-05
1.02074e-05
1.00461e-05
1.19859e-05
1.17867e-05
1.15819e-05
1.13703e-05
1.11586e-05
1.0946e-05
1.07382e-05
1.05419e-05
1.03568e-05
1.0182e-05
1.00177e-05
9.86356e-06
9.71757e-06
9.578e-06
9.44272e-06
9.30865e-06
9.17328e-06
9.03136e-06
1.07432e-05
1.05659e-05
1.03841e-05
1.01967e-05
1.00097e-05
9.82175e-06
9.6381e-06
9.46445e-06
9.30045e-06
9.1451e-06
8.99903e-06
8.86178e-06
8.73185e-06
8.60786e-06
8.48811e-06
8.36999e-06
8.25099e-06
8.12728e-06
7.99713e-06
9.63057e-06
9.47289e-06
9.31176e-06
9.14636e-06
8.9815e-06
8.81585e-06
8.65409e-06
8.50103e-06
8.35628e-06
8.21869e-06
8.08911e-06
7.96726e-06
7.85189e-06
7.74207e-06
7.63623e-06
7.53229e-06
7.42792e-06
7.32071e-06
7.2068e-06
8.6339e-06
8.49387e-06
8.35134e-06
8.20583e-06
8.06096e-06
7.91543e-06
7.77348e-06
7.6391e-06
7.51172e-06
7.39042e-06
7.27585e-06
7.16804e-06
7.0659e-06
6.96886e-06
6.87563e-06
6.78442e-06
6.69315e-06
6.59992e-06
6.50069e-06
7.74066e-06
7.61657e-06
7.49074e-06
7.36318e-06
7.23628e-06
7.10892e-06
6.98491e-06
6.86748e-06
6.75599e-06
6.6494e-06
6.54844e-06
6.45333e-06
6.36333e-06
6.27791e-06
6.19612e-06
6.11624e-06
6.03675e-06
5.95589e-06
5.87063e-06
5.77946e-06
6.93981e-06
6.82997e-06
6.71931e-06
6.60781e-06
6.49712e-06
6.38618e-06
6.27845e-06
6.17641e-06
6.07919e-06
5.98593e-06
5.89745e-06
5.81389e-06
5.73483e-06
5.65991e-06
5.58838e-06
5.51877e-06
5.44992e-06
5.38002e-06
5.30699e-06
5.22803e-06
6.22151e-06
6.12444e-06
6.02746e-06
5.93044e-06
5.83434e-06
5.73821e-06
5.64517e-06
5.55704e-06
5.47278e-06
5.39162e-06
5.31434e-06
5.24129e-06
5.17215e-06
5.10674e-06
5.04447e-06
4.98411e-06
4.9246e-06
4.86438e-06
4.80175e-06
4.73406e-06
5.577e-06
5.49138e-06
5.40671e-06
5.32273e-06
5.23969e-06
5.15693e-06
5.07722e-06
5.00164e-06
4.92908e-06
4.85881e-06
4.79168e-06
4.72813e-06
4.66799e-06
4.61116e-06
4.55718e-06
4.50507e-06
4.45393e-06
4.40241e-06
4.34904e-06
4.29177e-06
4.22929e-06
4.9985e-06
4.92315e-06
4.84952e-06
4.7773e-06
4.70599e-06
4.63527e-06
4.56759e-06
4.50331e-06
4.44126e-06
4.38081e-06
4.32282e-06
4.26786e-06
4.21584e-06
4.16676e-06
4.12025e-06
4.07556e-06
4.03186e-06
3.98801e-06
3.94271e-06
3.89455e-06
3.8415e-06
4.47905e-06
4.41294e-06
4.34921e-06
4.28756e-06
4.22677e-06
4.16691e-06
4.11008e-06
4.05595e-06
4.00329e-06
3.95168e-06
3.90192e-06
3.85468e-06
3.81e-06
3.76792e-06
3.72813e-06
3.69001e-06
3.65285e-06
3.61574e-06
3.57756e-06
3.537e-06
3.4924e-06
4.01251e-06
3.9547e-06
3.89987e-06
3.84769e-06
3.79628e-06
3.74623e-06
3.69918e-06
3.65412e-06
3.60986e-06
3.56613e-06
3.5238e-06
3.48353e-06
3.44547e-06
3.40966e-06
3.37589e-06
3.34362e-06
3.31226e-06
3.28107e-06
3.24904e-06
3.21514e-06
3.17772e-06
3.59338e-06
3.543e-06
3.4962e-06
3.45244e-06
3.40943e-06
3.36826e-06
3.32997e-06
3.293e-06
3.25622e-06
3.21956e-06
3.18389e-06
3.14991e-06
3.11778e-06
3.0876e-06
3.05919e-06
3.0321e-06
3.00587e-06
2.97983e-06
2.95313e-06
2.92494e-06
2.89394e-06
2.85931e-06
3.21678e-06
3.17304e-06
3.13344e-06
3.0972e-06
3.06172e-06
3.02853e-06
2.99811e-06
2.96829e-06
2.93817e-06
2.90782e-06
2.87815e-06
2.84982e-06
2.82302e-06
2.79784e-06
2.77414e-06
2.75158e-06
2.72976e-06
2.70816e-06
2.68607e-06
2.66271e-06
2.63726e-06
2.60841e-06
2.8783e-06
2.8405e-06
2.80738e-06
2.77782e-06
2.74906e-06
2.72311e-06
2.6997e-06
2.67617e-06
2.65197e-06
2.62729e-06
2.603e-06
2.57972e-06
2.55762e-06
2.5368e-06
2.51722e-06
2.49856e-06
2.48051e-06
2.46264e-06
2.44437e-06
2.42507e-06
2.40403e-06
2.38014e-06
2.57403e-06
2.54153e-06
2.51424e-06
2.4906e-06
2.46785e-06
2.44844e-06
2.43126e-06
2.41326e-06
2.39433e-06
2.37474e-06
2.35525e-06
2.33642e-06
2.31842e-06
2.30136e-06
2.28523e-06
2.26982e-06
2.25489e-06
2.24009e-06
2.22499e-06
2.20902e-06
2.19163e-06
2.17176e-06
2.30048e-06
2.2727e-06
2.25065e-06
2.23223e-06
2.21487e-06
2.2014e-06
2.18969e-06
2.17652e-06
2.16232e-06
2.14729e-06
2.13202e-06
2.11704e-06
2.10249e-06
2.08853e-06
2.07522e-06
2.06242e-06
2.05e-06
2.03768e-06
2.02511e-06
2.01184e-06
1.99738e-06
1.98089e-06
1.96197e-06
2.0545e-06
2.03095e-06
2.01361e-06
1.99975e-06
1.98727e-06
1.97917e-06
1.97221e-06
1.96324e-06
1.95332e-06
1.94237e-06
1.93074e-06
1.91893e-06
1.90714e-06
1.89562e-06
1.88448e-06
1.87371e-06
1.86322e-06
1.85283e-06
1.84223e-06
1.83108e-06
1.81895e-06
1.80525e-06
1.78923e-06
1.8333e-06
1.81351e-06
1.80039e-06
1.79053e-06
1.78246e-06
1.77923e-06
1.77632e-06
1.77103e-06
1.76505e-06
1.75766e-06
1.74901e-06
1.73965e-06
1.72994e-06
1.72019e-06
1.71064e-06
1.70137e-06
1.69235e-06
1.68344e-06
1.6744e-06
1.66493e-06
1.65466e-06
1.64309e-06
1.62963e-06
1.63436e-06
1.61793e-06
1.60858e-06
1.60221e-06
1.59815e-06
1.5993e-06
1.59979e-06
1.59777e-06
1.59544e-06
1.59107e-06
1.58463e-06
1.57699e-06
1.5687e-06
1.56019e-06
1.55181e-06
1.54367e-06
1.5358e-06
1.52809e-06
1.52033e-06
1.51225e-06
1.50355e-06
1.49381e-06
1.48252e-06
1.45545e-06
1.44201e-06
1.43603e-06
1.43267e-06
1.43231e-06
1.43735e-06
1.44058e-06
1.44155e-06
1.44268e-06
1.44066e-06
1.43563e-06
1.42904e-06
1.42168e-06
1.41406e-06
1.40658e-06
1.39942e-06
1.39258e-06
1.38595e-06
1.37934e-06
1.37254e-06
1.36527e-06
1.35718e-06
1.34777e-06
1.29454e-06
1.28379e-06
1.28078e-06
1.28003e-06
1.28312e-06
1.29153e-06
1.29691e-06
1.30071e-06
1.30507e-06
1.30464e-06
1.30023e-06
1.29423e-06
1.28758e-06
1.28075e-06
1.27418e-06
1.26801e-06
1.2622e-06
1.25664e-06
1.25116e-06
1.24557e-06
1.23961e-06
1.23302e-06
1.22538e-06
1.21683e-06
1.14982e-06
1.14147e-06
1.14109e-06
1.14259e-06
1.14893e-06
1.1602e-06
1.16721e-06
1.17383e-06
1.18115e-06
1.18135e-06
1.17695e-06
1.17142e-06
1.16557e-06
1.15969e-06
1.15414e-06
1.14902e-06
1.14426e-06
1.13973e-06
1.13529e-06
1.13075e-06
1.12593e-06
1.12056e-06
1.11438e-06
1.10725e-06
1.01969e-06
1.01347e-06
1.01538e-06
1.01881e-06
1.02823e-06
1.04177e-06
1.05003e-06
1.05971e-06
1.06968e-06
1.06944e-06
1.06465e-06
1.05983e-06
1.0551e-06
1.05035e-06
1.04587e-06
1.04174e-06
1.03789e-06
1.03419e-06
1.03053e-06
1.02676e-06
1.02272e-06
1.01819e-06
1.01293e-06
1.00683e-06
9.02726e-07
8.98428e-07
9.02276e-07
9.07357e-07
9.19643e-07
9.34787e-07
9.44e-07
9.56992e-07
9.69395e-07
9.67901e-07
9.62711e-07
9.59033e-07
9.55659e-07
9.51952e-07
9.48279e-07
9.44815e-07
9.41497e-07
9.38239e-07
9.34956e-07
9.31543e-07
9.27872e-07
9.23754e-07
9.1895e-07
9.13365e-07
7.97699e-07
7.95171e-07
8.00647e-07
8.0716e-07
8.22126e-07
8.38161e-07
8.47997e-07
8.64062e-07
8.78667e-07
8.75834e-07
8.70792e-07
8.68601e-07
8.66384e-07
8.63225e-07
8.59797e-07
8.56441e-07
8.53147e-07
8.49867e-07
8.46548e-07
8.43121e-07
8.39473e-07
8.35421e-07
8.3073e-07
8.25321e-07
7.03438e-07
7.02529e-07
7.09402e-07
7.17297e-07
7.34817e-07
7.51228e-07
7.61522e-07
7.80201e-07
7.96391e-07
7.92158e-07
7.87945e-07
7.87318e-07
7.85581e-07
7.82203e-07
7.78456e-07
7.74791e-07
7.71179e-07
7.67606e-07
7.64038e-07
7.60408e-07
7.56622e-07
7.52492e-07
7.47789e-07
7.42415e-07
6.18978e-07
6.19417e-07
6.27372e-07
6.36635e-07
6.56484e-07
6.72947e-07
6.83898e-07
7.06469e-07
7.24313e-07
7.16192e-07
7.12161e-07
7.13138e-07
7.11313e-07
7.07103e-07
7.0274e-07
6.98676e-07
6.94737e-07
6.90891e-07
6.87113e-07
6.83355e-07
6.79482e-07
6.75313e-07
6.70646e-07
6.65387e-07
6.59879e-07
5.44549e-07
5.45978e-07
5.54349e-07
5.64554e-07
5.85838e-07
6.01349e-07
6.12414e-07
6.40627e-07
6.6403e-07
6.48585e-07
6.42376e-07
6.45385e-07
6.43794e-07
6.38757e-07
6.33854e-07
6.29569e-07
6.25482e-07
6.21473e-07
6.17603e-07
6.13802e-07
6.0991e-07
6.05767e-07
6.01177e-07
5.96067e-07
5.90642e-07
4.8441e-07
4.86271e-07
4.9399e-07
5.03797e-07
5.2438e-07
5.36152e-07
5.44449e-07
5.7815e-07
6.07916e-07
5.86744e-07
5.79138e-07
5.84902e-07
5.8489e-07
5.80184e-07
5.75429e-07
5.71402e-07
5.67539e-07
5.6369e-07
5.59935e-07
5.56227e-07
5.52453e-07
5.48422e-07
5.4395e-07
5.38966e-07
5.33677e-07
4.36833e-07
4.38678e-07
4.45086e-07
4.53523e-07
4.71432e-07
4.77586e-07
4.83118e-07
5.13866e-07
5.47692e-07
5.28228e-07
5.22608e-07
5.30575e-07
5.33019e-07
5.2996e-07
5.26067e-07
5.22675e-07
5.19389e-07
5.1605e-07
5.12694e-07
5.0933e-07
5.0588e-07
5.02178e-07
4.98013e-07
4.93309e-07
4.88288e-07
3.9346e-07
3.9525e-07
4.00415e-07
4.07871e-07
4.23042e-07
4.24516e-07
4.29645e-07
4.53336e-07
4.87232e-07
4.74031e-07
4.71442e-07
4.80105e-07
4.84528e-07
4.83384e-07
4.80574e-07
4.77847e-07
4.75155e-07
4.72355e-07
4.69489e-07
4.66574e-07
4.63551e-07
4.6028e-07
4.5655e-07
4.52256e-07
4.47627e-07
3.51031e-07
3.52735e-07
3.56711e-07
3.63619e-07
3.75867e-07
3.74328e-07
3.80331e-07
3.97282e-07
4.3162e-07
4.25271e-07
4.2529e-07
4.33471e-07
4.38811e-07
4.39131e-07
4.37334e-07
4.35294e-07
4.33215e-07
4.30927e-07
4.28473e-07
4.25931e-07
4.23275e-07
4.2037e-07
4.17046e-07
4.13128e-07
4.08808e-07
3.10684e-07
3.12223e-07
3.15105e-07
3.21704e-07
3.30797e-07
3.28025e-07
3.34916e-07
3.45883e-07
3.81115e-07
3.81126e-07
3.83726e-07
3.91321e-07
3.97037e-07
3.98277e-07
3.97148e-07
3.95685e-07
3.94301e-07
3.9272e-07
3.90823e-07
3.88686e-07
3.86336e-07
3.83715e-07
3.80645e-07
3.76963e-07
3.72807e-07
2.72588e-07
2.73777e-07
2.7561e-07
2.81887e-07
2.87677e-07
2.85694e-07
2.92644e-07
2.99291e-07
3.36343e-07
3.41833e-07
3.46561e-07
3.53725e-07
3.59876e-07
3.61997e-07
3.61178e-07
3.59523e-07
3.58003e-07
3.56635e-07
3.55196e-07
3.5353e-07
3.51535e-07
3.49119e-07
3.46071e-07
3.42304e-07
3.3794e-07
2.37213e-07
2.37775e-07
2.38487e-07
2.43978e-07
2.46369e-07
2.47092e-07
2.52548e-07
2.57662e-07
2.97587e-07
3.07758e-07
3.14199e-07
3.2045e-07
3.26237e-07
3.29235e-07
3.29602e-07
3.28303e-07
3.26128e-07
3.23599e-07
3.21079e-07
3.18696e-07
3.16316e-07
3.13638e-07
3.10206e-07
3.05621e-07
2.99894e-07
2.04908e-07
2.04623e-07
2.04113e-07
2.07913e-07
2.06754e-07
2.11036e-07
2.12387e-07
2.20306e-07
2.64659e-07
2.78575e-07
2.87632e-07
2.93026e-07
2.95815e-07
2.96014e-07
2.95563e-07
2.95379e-07
2.94907e-07
2.93202e-07
2.90083e-07
2.86017e-07
2.81449e-07
2.76502e-07
2.70926e-07
2.64383e-07
2.56787e-07
2.48348e-07
1.75652e-07
1.74429e-07
1.72666e-07
1.7384e-07
1.69424e-07
1.76407e-07
1.70306e-07
1.87708e-07
2.37602e-07
2.51499e-07
2.64021e-07
2.70677e-07
2.71225e-07
2.66212e-07
2.5877e-07
2.52472e-07
2.48985e-07
2.4763e-07
2.46626e-07
2.4455e-07
2.40727e-07
2.35024e-07
2.27434e-07
2.18265e-07
2.08106e-07
1.97646e-07
1.4953e-07
1.46977e-07
1.43355e-07
1.41145e-07
1.34947e-07
1.43587e-07
1.30136e-07
1.67938e-07
2.18926e-07
2.27579e-07
2.40704e-07
2.45256e-07
2.46466e-07
2.45347e-07
2.38021e-07
2.24542e-07
2.09944e-07
1.99372e-07
1.95043e-07
1.96292e-07
2.00942e-07
2.06493e-07
2.09817e-07
2.07987e-07
2.01252e-07
1.92719e-07
1.28422e-07
1.23407e-07
1.15762e-07
1.08224e-07
1.01144e-07
1.11467e-07
1.01406e-07
1.70018e-07
2.10748e-07
2.26318e-07
2.58843e-07
2.67074e-07
2.56856e-07
2.40177e-07
2.29164e-07
2.31049e-07
2.41438e-07
2.51174e-07
2.55858e-07
2.5638e-07
2.55069e-07
2.54387e-07
2.58061e-07
2.70655e-07
2.92291e-07
3.18174e-07
1.15584e-07
1.07465e-07
9.36699e-08
7.6913e-08
6.44694e-08
7.39119e-08
8.36199e-08
1.72452e-07
1.88097e-07
2.19183e-07
2.79546e-07
3.31632e-07
3.84374e-07
4.38556e-07
4.88001e-07
5.28771e-07
5.5979e-07
5.84904e-07
6.0923e-07
6.35849e-07
6.65669e-07
6.98115e-07
7.316e-07
7.61995e-07
7.85028e-07
8.02811e-07
1.09715e-07
1.00086e-07
8.2285e-08
5.66247e-08
3.00901e-08
3.67825e-08
7.49498e-08
1.30377e-07
1.88795e-07
4.13e-07
6.29966e-07
8.24749e-07
9.79188e-07
1.09057e-06
1.16445e-06
1.21355e-06
1.25091e-06
1.28604e-06
1.32214e-06
1.35868e-06
1.39383e-06
1.4273e-06
1.4605e-06
1.49826e-06
1.53671e-06
1.56913e-06
)
;

boundaryField
{
    inlet
    {
        type            calculated;
        value           nonuniform List<scalar> 
26
(
1.09511e-07
1.00138e-07
8.23652e-08
5.56994e-08
2.55758e-08
3.74777e-08
8.81805e-08
9.46118e-08
4.24029e-07
8.67591e-07
1.36999e-06
1.87053e-06
2.32576e-06
2.71715e-06
3.03615e-06
3.29081e-06
3.49438e-06
3.66103e-06
3.80401e-06
3.93405e-06
4.0593e-06
4.18848e-06
4.33183e-06
4.4967e-06
4.67146e-06
4.83782e-06
)
;
    }
    outlet
    {
        type            calculated;
        value           nonuniform List<scalar> 0();
    }
    walls
    {
        type            calculated;
        value           nonuniform List<scalar> 0();
    }
    frontAndBack
    {
        type            empty;
    }
    procBoundary0to1
    {
        type            processor;
        value           nonuniform List<scalar> 
94
(
0.000562543
0.000460906
0.000460906
0.000379922
0.000379922
0.000315354
0.000315354
0.000263158
0.000263158
0.000221014
0.000221014
0.00018681
0.000164058
0.000164058
0.000140179
0.000123876
0.000123876
0.000106791
9.47805e-05
8.41922e-05
8.41922e-05
7.32334e-05
6.52354e-05
6.52354e-05
5.69781e-05
5.08436e-05
4.53787e-05
4.53787e-05
3.97843e-05
3.55509e-05
3.177e-05
3.177e-05
2.79098e-05
2.4968e-05
2.4968e-05
2.19483e-05
1.96507e-05
1.75966e-05
1.75966e-05
1.54876e-05
1.38885e-05
1.24592e-05
1.24592e-05
1.0985e-05
9.87491e-06
8.88276e-06
8.88276e-06
7.85352e-06
7.08418e-06
6.39524e-06
6.39524e-06
5.67683e-06
5.14152e-06
4.6608e-06
4.6608e-06
4.15735e-06
3.78177e-06
3.44224e-06
3.13614e-06
3.13614e-06
2.81838e-06
2.57504e-06
2.35253e-06
2.14908e-06
2.14908e-06
1.93956e-06
1.77084e-06
1.61417e-06
1.46963e-06
1.33729e-06
1.33729e-06
1.20713e-06
1.09944e-06
1.00008e-06
9.07199e-07
8.19443e-07
7.36765e-07
7.36765e-07
6.5417e-07
5.85251e-07
5.28418e-07
4.8329e-07
4.4297e-07
4.04352e-07
3.68375e-07
3.33228e-07
2.93509e-07
2.93509e-07
2.39104e-07
1.87344e-07
1.84852e-07
3.44381e-07
8.18562e-07
1.59475e-06
)
;
    }
    procBoundary0to4
    {
        type            processor;
        value           nonuniform List<scalar> 
72
(
0.000509305
0.000432805
0.000370257
0.00031848
0.000275271
0.000238926
0.000208153
0.000181938
0.000159483
0.000140154
0.000123449
0.000108959
9.63433e-05
8.53285e-05
7.56835e-05
6.7217e-05
5.97688e-05
5.3202e-05
4.74017e-05
4.22707e-05
3.77238e-05
3.36891e-05
2.95728e-05
2.95728e-05
2.64371e-05
2.36457e-05
2.11584e-05
1.89401e-05
1.696e-05
1.51911e-05
1.361e-05
1.2196e-05
1.09305e-05
9.7973e-06
8.78213e-06
7.87227e-06
7.05648e-06
6.32473e-06
5.66814e-06
5.07878e-06
4.54964e-06
4.07444e-06
3.64757e-06
3.26405e-06
2.91942e-06
2.60968e-06
2.33126e-06
2.08097e-06
1.85596e-06
1.65366e-06
1.47177e-06
1.30825e-06
1.16124e-06
1.02911e-06
9.10379e-07
8.03796e-07
7.08191e-07
6.22603e-07
5.47328e-07
4.86731e-07
4.3887e-07
3.95202e-07
3.52496e-07
3.11908e-07
2.73648e-07
2.38223e-07
2.05991e-07
1.76934e-07
1.51228e-07
1.3084e-07
1.18773e-07
1.13234e-07
)
;
    }
    procBoundary0to5
    {
        type            processor;
        value           nonuniform List<scalar> 4(0.000598825 0.000592425 0.000585027 0.000575471);
    }
}


// ************************************************************************* //
