/*--------------------------------*- C++ -*----------------------------------*\
| =========                 |                                                 |
| \\      /  F ield         | OpenFOAM: The Open Source CFD Toolbox           |
|  \\    /   O peration     | Version:  2306                                  |
|   \\  /    A nd           | Website:  www.openfoam.com                      |
|    \\/     M anipulation  |                                                 |
\*---------------------------------------------------------------------------*/
FoamFile
{
    version     2.0;
    format      ascii;
    arch        "LSB;label=32;scalar=64";
    class       volScalarField;
    location    "175";
    object      turbulenceProperties:L;
}
// * * * * * * * * * * * * * * * * * * * * * * * * * * * * * * * * * * * * * //

dimensions      [0 1 0 0 0 0 0];

internalField   nonuniform List<scalar> 
1340
(
0.00961285
0.00966934
0.00973241
0.00981257
0.00992315
0.0104331
0.010498
0.0105681
0.0106541
0.0107723
0.0109146
0.0112853
0.011359
0.0114369
0.0115294
0.0116552
0.0118034
0.0119712
0.0121731
0.0122555
0.0123417
0.0124412
0.0125745
0.0127288
0.0129001
0.0130932
0.0130981
0.01319
0.0132845
0.0133918
0.0135329
0.0136933
0.0138691
0.0140663
0.014287
0.0140631
0.0141651
0.0142682
0.0143838
0.0145332
0.0146999
0.0148812
0.015083
0.0153053
0.0155436
0.0150708
0.0151831
0.0152957
0.0154199
0.015578
0.0157513
0.0159391
0.0161464
0.0163709
0.0166089
0.0161242
0.0162467
0.0163692
0.0165029
0.0166701
0.0168506
0.0170458
0.0172592
0.0174866
0.0177245
0.0179745
0.0172257
0.017359
0.017492
0.0176356
0.0178126
0.0180008
0.0182044
0.0184246
0.0186558
0.0188947
0.019144
0.0183784
0.0185231
0.0186672
0.0188214
0.0190084
0.0192056
0.019418
0.0196459
0.0198817
0.020123
0.0203716
0.0206286
0.0195857
0.0197422
0.0198979
0.0200634
0.0202608
0.0204682
0.0206903
0.0209265
0.0211683
0.0214129
0.0216622
0.0219183
0.0208507
0.0210195
0.0211876
0.0213648
0.0215732
0.0217919
0.0220248
0.0222701
0.0225186
0.0227677
0.023019
0.0232756
0.0221771
0.0223583
0.0225398
0.0227294
0.0229496
0.0231804
0.0234249
0.0236804
0.0239369
0.0241917
0.0244467
0.0247038
0.0249646
0.0235683
0.0237626
0.023958
0.0241608
0.0243937
0.0246377
0.0248946
0.0251616
0.025427
0.0256887
0.0259487
0.0262083
0.0264713
0.0250282
0.0252365
0.0254458
0.025663
0.0259093
0.0261674
0.0264379
0.0267173
0.0269933
0.0272635
0.0275298
0.0277935
0.0280582
0.0283267
0.0265609
0.0267838
0.0270078
0.0272401
0.0275006
0.0277738
0.0280592
0.0283521
0.0286397
0.0289198
0.029194
0.0294638
0.0297322
0.0300048
0.0281707
0.0284086
0.028648
0.0288965
0.0291721
0.0294613
0.0297629
0.0300703
0.0303712
0.0306626
0.0309464
0.0312237
0.0314977
0.0317756
0.0298618
0.0301156
0.0303709
0.0306366
0.0309283
0.0312347
0.0315536
0.0318769
0.032192
0.0324964
0.0327915
0.0330782
0.0333599
0.0336431
0.0339322
0.0316388
0.0319097
0.0321815
0.032465
0.0327741
0.0330986
0.0334357
0.0337764
0.0341074
0.0344262
0.0347344
0.0350323
0.0353238
0.0356144
0.0359114
0.0335071
0.033796
0.0340848
0.0343869
0.0347148
0.0350583
0.0354146
0.0357741
0.0361224
0.0364573
0.03678
0.0370909
0.0373939
0.0376942
0.0380014
0.0354721
0.0357796
0.0360863
0.0364074
0.0367555
0.0371189
0.0374956
0.0378751
0.0382423
0.0385948
0.0389339
0.0392598
0.0395757
0.0398878
0.0402047
0.0405301
0.037539
0.037866
0.0381915
0.0385325
0.0389014
0.039286
0.0396842
0.0400849
0.0404724
0.0408441
0.0412014
0.0415436
0.0418751
0.0422015
0.0425284
0.0428682
0.0400612
0.0404061
0.040768
0.0411587
0.0415654
0.0419862
0.0424093
0.0428184
0.0432108
0.0435879
0.0439487
0.0442969
0.0446387
0.0449803
0.0453318
0.0456984
0.0423716
0.0427363
0.04312
0.0435336
0.0439631
0.0444076
0.0448544
0.0452862
0.0457007
0.0460989
0.0464799
0.046847
0.0472062
0.0475642
0.0479287
0.0483118
0.0448037
0.045189
0.0455952
0.0460325
0.0464856
0.0469546
0.0474259
0.0478819
0.0483198
0.0487408
0.0491438
0.0495311
0.0499088
0.050285
0.0506656
0.0510648
0.0473646
0.0477715
0.0482009
0.0486624
0.04914
0.0496342
0.0501308
0.050612
0.0510743
0.0515192
0.0519453
0.0523545
0.0527534
0.0531481
0.0535463
0.0539605
0.0543971
0.0500621
0.0504912
0.0509442
0.0514307
0.0519333
0.0524531
0.0529761
0.0534827
0.0539705
0.0544404
0.0548907
0.0553231
0.0557436
0.0561588
0.0565765
0.0570063
0.0574618
0.0529037
0.0533559
0.0538331
0.0543449
0.0548729
0.0554191
0.0559685
0.0565015
0.0570149
0.0575107
0.0579859
0.0584424
0.0588864
0.0593225
0.0597598
0.0602076
0.0606822
0.055898
0.056374
0.0568761
0.0574133
0.057967
0.0585395
0.0591155
0.0596748
0.0602146
0.0607368
0.0612376
0.0617186
0.0621858
0.0626442
0.0631018
0.0635683
0.0640583
0.0645791
0.0590541
0.0595544
0.060082
0.0606445
0.0612237
0.0618228
0.0624253
0.0630105
0.0635765
0.0641248
0.0646513
0.0651577
0.0656485
0.0661294
0.0666069
0.0670925
0.0675971
0.0681377
0.0623817
0.0629067
0.0634602
0.064048
0.0646523
0.0652772
0.0659055
0.0665164
0.067108
0.0676817
0.0682342
0.0687653
0.0692799
0.0697828
0.0702809
0.0707851
0.0713055
0.0718635
0.065891
0.0664415
0.0670205
0.0676334
0.0682622
0.068912
0.0695653
0.0702005
0.0708166
0.0714155
0.0719927
0.072548
0.0730857
0.0736102
0.0741275
0.0746487
0.0751851
0.0757551
0.076369
0.0695932
0.0701699
0.0707743
0.0714112
0.0720635
0.0727372
0.0734138
0.0740716
0.0747103
0.0753329
0.0759339
0.0765123
0.0770723
0.0776169
0.0781529
0.0786902
0.0792411
0.0798192
0.0804475
0.0735003
0.0741036
0.0747331
0.0753926
0.0760669
0.0767629
0.0774604
0.0781387
0.0787983
0.0794422
0.0800652
0.0806649
0.0812458
0.0818094
0.0823622
0.0829139
0.0834772
0.0840648
0.0847039
0.0776252
0.078255
0.0789094
0.0795897
0.0802844
0.0810002
0.081716
0.0824115
0.0830886
0.0837518
0.0843948
0.0850143
0.0856134
0.0861938
0.0867608
0.0873254
0.0878984
0.088493
0.0891333
0.0898336
0.0819819
0.0826384
0.083316
0.0840158
0.0847282
0.0854608
0.0861907
0.0868996
0.0875916
0.0882711
0.0889308
0.0895674
0.0901826
0.0907774
0.0913565
0.0919308
0.0925096
0.0931086
0.093747
0.0944523
0.0865852
0.0872686
0.0879677
0.0886841
0.0894112
0.0901569
0.0908966
0.0916144
0.0923168
0.0930089
0.0936825
0.094333
0.0949613
0.0955675
0.0961554
0.0967358
0.0973185
0.097919
0.0985554
0.0992575
0.0914515
0.0921616
0.0928803
0.0936098
0.0943485
0.0951023
0.0958458
0.096567
0.0972749
0.0979757
0.0986594
0.0993201
0.0999578
0.100572
0.101166
0.101749
0.102331
0.102928
0.103558
0.104246
0.105014
0.0965987
0.0973349
0.0980709
0.0988091
0.0995547
0.100311
0.101051
0.10177
0.102478
0.103182
0.103872
0.104538
0.105181
0.105799
0.106394
0.106976
0.107554
0.108144
0.108763
0.109433
0.110186
0.102046
0.102808
0.103558
0.1043
0.105047
0.105798
0.106527
0.107235
0.107938
0.10864
0.10933
0.109998
0.110641
0.111257
0.111849
0.112425
0.112996
0.113574
0.114178
0.114831
0.115562
0.107816
0.108601
0.109361
0.1101
0.110843
0.11158
0.112287
0.112977
0.113667
0.114362
0.115047
0.115709
0.116347
0.116956
0.117539
0.118105
0.118663
0.119226
0.119812
0.120442
0.121149
0.11393
0.114737
0.115502
0.116231
0.116962
0.117674
0.118349
0.119011
0.119681
0.12036
0.121032
0.121683
0.122308
0.122904
0.123473
0.124024
0.124563
0.125106
0.125671
0.126275
0.126949
0.127716
0.120414
0.121241
0.122005
0.122716
0.123425
0.124099
0.124726
0.125351
0.125991
0.126647
0.127298
0.127929
0.128534
0.129111
0.129661
0.130192
0.130711
0.131231
0.13177
0.132347
0.132984
0.133717
0.127298
0.128142
0.128895
0.129579
0.130254
0.130873
0.131439
0.132015
0.132615
0.133236
0.133856
0.134459
0.135038
0.135591
0.136117
0.136624
0.137121
0.137617
0.138131
0.138679
0.139285
0.139982
0.134611
0.135469
0.136202
0.136846
0.137475
0.138019
0.138505
0.13902
0.139568
0.140142
0.14072
0.141286
0.141833
0.142358
0.142859
0.143343
0.143817
0.144291
0.14478
0.145302
0.145877
0.146543
0.14239
0.143257
0.143957
0.144549
0.145114
0.145557
0.145945
0.146385
0.146864
0.147377
0.147903
0.148426
0.148938
0.149435
0.149913
0.150377
0.150832
0.151287
0.151756
0.152256
0.152806
0.15344
0.154178
0.150673
0.151543
0.152194
0.15272
0.153198
0.153511
0.153781
0.154131
0.154521
0.154956
0.155421
0.155899
0.156379
0.156854
0.157316
0.157768
0.158211
0.158654
0.15911
0.159593
0.160125
0.160731
0.161449
0.159503
0.160371
0.160954
0.161396
0.16176
0.161906
0.162038
0.162279
0.162553
0.162894
0.163296
0.163734
0.164193
0.164657
0.165116
0.165565
0.166006
0.166444
0.166892
0.167367
0.167885
0.168475
0.169169
0.168932
0.169787
0.17028
0.170617
0.170833
0.170771
0.170744
0.170851
0.170975
0.171209
0.171556
0.17197
0.172424
0.172893
0.17336
0.173815
0.17426
0.174699
0.175144
0.175611
0.176118
0.176691
0.177363
0.179014
0.179846
0.180219
0.18043
0.180452
0.180134
0.179931
0.17987
0.179799
0.179924
0.180238
0.180653
0.181119
0.181607
0.182088
0.182553
0.183001
0.183438
0.183877
0.184331
0.184822
0.185371
0.186018
0.189813
0.190606
0.190829
0.190884
0.190654
0.190031
0.189635
0.189357
0.189039
0.18907
0.18939
0.189827
0.190317
0.190823
0.191314
0.191779
0.19222
0.192644
0.193065
0.193498
0.193962
0.19448
0.195086
0.19577
0.201404
0.202139
0.202172
0.202038
0.201479
0.200497
0.199894
0.199328
0.198708
0.198691
0.199061
0.19953
0.200029
0.200535
0.201016
0.201464
0.201882
0.202283
0.202678
0.203085
0.203519
0.204006
0.204571
0.205229
0.21387
0.214524
0.214322
0.213959
0.212977
0.211586
0.210751
0.209785
0.208805
0.208827
0.209295
0.20977
0.210239
0.210714
0.211165
0.211582
0.211975
0.212354
0.212731
0.213121
0.213542
0.214016
0.214571
0.215221
0.227302
0.227845
0.227358
0.226719
0.225199
0.223366
0.222272
0.220756
0.219338
0.219507
0.220097
0.220518
0.220906
0.221336
0.221764
0.222171
0.222562
0.222948
0.223339
0.223748
0.224191
0.22469
0.225277
0.225965
0.241803
0.242186
0.241356
0.240379
0.23818
0.235889
0.234515
0.232324
0.230383
0.230755
0.231421
0.231713
0.232009
0.232433
0.232896
0.233352
0.233803
0.234254
0.234713
0.23519
0.2357
0.236272
0.236938
0.237714
0.257493
0.257659
0.256407
0.254991
0.251932
0.249163
0.247472
0.24449
0.241991
0.242635
0.243283
0.24338
0.243649
0.244175
0.244763
0.245341
0.245916
0.246488
0.247063
0.247652
0.248272
0.248952
0.249734
0.250637
0.274499
0.274401
0.272654
0.270663
0.266538
0.263256
0.261138
0.256931
0.253745
0.255179
0.2559
0.255725
0.256054
0.256816
0.257612
0.258361
0.259093
0.259814
0.260528
0.261244
0.261987
0.262795
0.263709
0.264749
0.265853
0.292656
0.292272
0.290056
0.287421
0.28215
0.278486
0.275957
0.26981
0.265012
0.268149
0.269442
0.268814
0.269147
0.270207
0.271251
0.272174
0.273062
0.273942
0.2748
0.27565
0.276529
0.277473
0.278531
0.279723
0.281006
0.31029
0.309695
0.307265
0.304258
0.298226
0.294931
0.292673
0.284014
0.276973
0.281926
0.283773
0.282372
0.282377
0.283521
0.284691
0.285693
0.286665
0.287643
0.288606
0.289567
0.290555
0.291622
0.292819
0.29417
0.295625
0.32675
0.326061
0.323705
0.320678
0.314526
0.312491
0.310694
0.301254
0.291804
0.297132
0.298727
0.296478
0.295799
0.296653
0.29775
0.298715
0.29966
0.300629
0.301611
0.302607
0.303637
0.304755
0.306027
0.307484
0.309061
0.344287
0.343506
0.341282
0.338147
0.332027
0.331447
0.32946
0.320736
0.309379
0.313659
0.314521
0.311673
0.310249
0.310618
0.311526
0.312415
0.313299
0.314227
0.315186
0.31617
0.317199
0.318325
0.319623
0.321138
0.322795
0.364499
0.363617
0.361584
0.358131
0.352245
0.352966
0.350167
0.342615
0.328707
0.331154
0.331149
0.328012
0.326012
0.325895
0.326565
0.327331
0.328116
0.328987
0.329928
0.330912
0.331949
0.333095
0.33442
0.336003
0.337774
0.387443
0.386486
0.384713
0.380745
0.375474
0.377053
0.373152
0.367191
0.34981
0.349808
0.348624
0.345227
0.342736
0.342203
0.342691
0.343325
0.343927
0.34462
0.345456
0.346405
0.347457
0.348642
0.350046
0.351752
0.353708
0.413629
0.412728
0.411353
0.406745
0.402628
0.40402
0.399191
0.394738
0.372366
0.369368
0.366843
0.363112
0.359997
0.358943
0.359351
0.360178
0.360943
0.361635
0.362367
0.363221
0.36425
0.365509
0.367116
0.369131
0.371508
0.443394
0.442869
0.442207
0.4372
0.435072
0.43443
0.429711
0.425431
0.395872
0.38928
0.385273
0.381499
0.378102
0.376379
0.37617
0.376915
0.37817
0.379646
0.381134
0.382557
0.383994
0.385631
0.387759
0.390658
0.394371
0.477063
0.477394
0.477988
0.473599
0.474921
0.470075
0.468577
0.460086
0.419777
0.409162
0.402673
0.398952
0.397069
0.396937
0.397241
0.397366
0.397686
0.398842
0.400981
0.403822
0.407087
0.410713
0.414919
0.420024
0.426191
0.433373
0.515254
0.517056
0.519688
0.517928
0.52463
0.514139
0.523268
0.498433
0.443032
0.430623
0.420292
0.415095
0.414678
0.418567
0.424545
0.429809
0.43281
0.433994
0.434878
0.436721
0.440176
0.445486
0.452859
0.462274
0.473424
0.48579
0.558437
0.563265
0.570333
0.574778
0.587821
0.569865
0.598585
0.52695
0.46154
0.452687
0.440177
0.436077
0.435009
0.436003
0.442664
0.455758
0.471336
0.483673
0.489012
0.487455
0.481784
0.475266
0.471489
0.47356
0.481418
0.491961
0.602571
0.614688
0.63465
0.656372
0.678939
0.646751
0.678065
0.523716
0.470407
0.453945
0.424476
0.417888
0.426122
0.44067
0.451136
0.449293
0.439522
0.430922
0.426959
0.426526
0.427621
0.428194
0.425135
0.415128
0.39947
0.382879
0.635137
0.658684
0.705495
0.778505
0.850242
0.794135
0.746658
0.520004
0.49792
0.461272
0.408453
0.375011
0.348335
0.32611
0.309149
0.296992
0.288647
0.282383
0.276688
0.270835
0.2647
0.258476
0.252492
0.247407
0.243751
0.241038
0.651893
0.682518
0.752683
0.907143
1.24312
1.1249
0.788624
0.598031
0.496994
0.336036
0.272083
0.237793
0.218237
0.206794
0.200128
0.196039
0.19309
0.190436
0.18782
0.185278
0.182928
0.180771
0.178705
0.17644
0.17422
0.172412
)
;

boundaryField
{
    inlet
    {
        type            calculated;
        value           nonuniform List<scalar> 
26
(
0.70819
0.740576
0.81652
0.99267
1.46241
1.20949
0.789158
0.761882
0.359939
0.251635
0.200249
0.171375
0.15369
0.142191
0.134514
0.129205
0.125385
0.122498
0.120174
0.118171
0.116333
0.114525
0.112614
0.110531
0.108443
0.106563
)
;
    }
    outlet
    {
        type            calculated;
        value           nonuniform List<scalar> 0();
    }
    walls
    {
        type            calculated;
        value           nonuniform List<scalar> 0();
    }
    frontAndBack
    {
        type            empty;
    }
    procBoundary0to1
    {
        type            processor;
        value           nonuniform List<scalar> 
94
(
0.0091056
0.0100596
0.0100596
0.01108
0.01108
0.0121615
0.0121615
0.0133131
0.0133131
0.0145271
0.0145271
0.0158011
0.0168612
0.0168612
0.0182409
0.0194041
0.0194041
0.0208988
0.0221834
0.0235371
0.0235371
0.0252368
0.0267391
0.0267391
0.0286111
0.0302879
0.0320598
0.0320598
0.0342398
0.0362211
0.0383159
0.0383159
0.0408797
0.043221
0.043221
0.0460984
0.0487189
0.0514839
0.0514839
0.0548775
0.0579506
0.0611845
0.0611845
0.0651607
0.0687256
0.0724621
0.0724621
0.0770641
0.0811407
0.0853993
0.0853993
0.0906419
0.0952435
0.100034
0.100034
0.105918
0.111053
0.116401
0.121949
0.121949
0.12864
0.13458
0.140801
0.147314
0.147314
0.155066
0.162285
0.169977
0.178139
0.186745
0.186745
0.196555
0.205956
0.215946
0.226732
0.238565
0.251597
0.251597
0.267011
0.282298
0.297093
0.310656
0.324488
0.339631
0.35583
0.374126
0.398639
0.398639
0.441672
0.498969
0.50232
0.368024
0.238709
0.171022
)
;
    }
    procBoundary0to4
    {
        type            processor;
        value           nonuniform List<scalar> 
72
(
0.00956968
0.010381
0.0112237
0.0121017
0.0130169
0.013972
0.0149692
0.0160114
0.0171015
0.0182427
0.0194378
0.0206899
0.0220029
0.02338
0.0248251
0.0263422
0.0279354
0.0296093
0.0313686
0.033218
0.0351629
0.037209
0.0397143
0.0397143
0.0420036
0.0444137
0.0469518
0.0496252
0.0524421
0.0554112
0.0585414
0.0618422
0.0653241
0.0689985
0.0728774
0.0769737
0.0813014
0.0858759
0.0907134
0.0958322
0.101252
0.106993
0.113081
0.11954
0.126398
0.133689
0.141447
0.149711
0.158527
0.167944
0.178019
0.188817
0.200411
0.212889
0.226345
0.240884
0.256628
0.273699
0.291913
0.30955
0.325991
0.343529
0.363742
0.386683
0.412827
0.442454
0.475807
0.513385
0.555296
0.596979
0.626558
0.641689
)
;
    }
    procBoundary0to5
    {
        type            processor;
        value           nonuniform List<scalar> 4(0.00882545 0.008873 0.00892893 0.00900277);
    }
}


// ************************************************************************* //
