/*--------------------------------*- C++ -*----------------------------------*\
| =========                 |                                                 |
| \\      /  F ield         | OpenFOAM: The Open Source CFD Toolbox           |
|  \\    /   O peration     | Version:  2306                                  |
|   \\  /    A nd           | Website:  www.openfoam.com                      |
|    \\/     M anipulation  |                                                 |
\*---------------------------------------------------------------------------*/
FoamFile
{
    version     2.0;
    format      ascii;
    arch        "LSB;label=32;scalar=64";
    class       volScalarField;
    location    "175";
    object      turbulenceProperties:I;
}
// * * * * * * * * * * * * * * * * * * * * * * * * * * * * * * * * * * * * * //

dimensions      [0 0 0 0 0 0 0];

internalField   nonuniform List<scalar> 
1340
(
0.000810277
0.000838473
0.000867618
0.000900731
0.00093611
0.000740518
0.000763229
0.000786491
0.000812761
0.000840322
0.000865961
0.000678947
0.000697349
0.000716022
0.000737062
0.000758809
0.000778776
0.00079669
0.000624302
0.000639304
0.000654394
0.000671369
0.000688719
0.000704486
0.000718608
0.00072923
0.000575621
0.000587889
0.000600162
0.000613939
0.000627905
0.0006405
0.000651741
0.000660107
0.000663839
0.000532056
0.000542111
0.00055214
0.000563387
0.000574701
0.000584854
0.000593865
0.000600516
0.00060348
0.000602389
0.000492895
0.000501167
0.000509375
0.000518604
0.000527818
0.000536064
0.000543324
0.000548634
0.000551
0.000550117
0.000457552
0.00046438
0.000471115
0.000478701
0.000486239
0.000492971
0.000498837
0.00050309
0.000504976
0.000504253
0.000500997
0.000425542
0.00043118
0.000436711
0.000442962
0.000449146
0.000454659
0.000459404
0.000462817
0.000464307
0.000463685
0.000460997
0.000396446
0.000401098
0.000405639
0.000410793
0.000415881
0.000420391
0.000424235
0.000426967
0.000428134
0.000427568
0.000425334
0.000421579
0.00036991
0.000373745
0.000377466
0.000381716
0.000385908
0.000389586
0.000392695
0.000394875
0.000395765
0.000395231
0.000393339
0.000390191
0.000345634
0.000348789
0.000351828
0.000355331
0.000358783
0.000361772
0.000364272
0.000365999
0.000366659
0.000366141
0.000364509
0.000361833
0.000323363
0.000325954
0.000328419
0.000331298
0.000334135
0.000336553
0.000338551
0.000339902
0.000340365
0.000339849
0.000338409
0.000336124
0.00033311
0.000302879
0.000304997
0.000306984
0.00030934
0.000311659
0.0003136
0.000315183
0.000316217
0.000316514
0.000315992
0.000314704
0.000312721
0.000310115
0.000283995
0.000285709
0.000287304
0.000289217
0.000291102
0.000292645
0.000293879
0.000294648
0.000294799
0.000294265
0.000293093
0.000291348
0.000289093
0.000286413
0.000266545
0.000267919
0.000269185
0.000270724
0.000272245
0.000273454
0.000274393
0.000274942
0.00027497
0.00027442
0.000273338
0.000271779
0.000269802
0.000267455
0.000250387
0.000251477
0.000252465
0.000253686
0.0002549
0.000255828
0.000256519
0.000256884
0.000256805
0.000256238
0.000255226
0.000253818
0.000252064
0.000249994
0.000235399
0.000236248
0.000237003
0.000237955
0.000238909
0.000239601
0.000240082
0.000240291
0.000240124
0.000239541
0.000238583
0.000237295
0.000235721
0.000233889
0.000231833
0.000221472
0.000222113
0.000222674
0.000223402
0.000224132
0.000224627
0.000224936
0.000225011
0.000224767
0.00022417
0.000223255
0.000222065
0.000220636
0.000218998
0.000217163
0.000208508
0.000208973
0.000209372
0.000209911
0.00021045
0.000210779
0.000210945
0.000210908
0.000210601
0.00020999
0.000209111
0.000208003
0.000206693
0.000205214
0.000203562
0.000196421
0.000196739
0.000197001
0.000197383
0.000197759
0.000197951
0.000197996
0.000197867
0.000197506
0.000196885
0.000196036
0.000194994
0.000193788
0.00019244
0.000190951
0.000189336
0.000185138
0.000185332
0.000185479
0.000185729
0.00018597
0.000186046
0.000185992
0.000185787
0.000185381
0.000184753
0.00018393
0.000182947
0.000181824
0.000180583
0.000179239
0.000177767
0.000174681
0.000174733
0.000174872
0.000175
0.00017498
0.000174844
0.000174577
0.000174137
0.000173505
0.000172706
0.000171772
0.000170723
0.000169577
0.000168344
0.000167012
0.000165578
0.000164724
0.000164698
0.000164744
0.000164777
0.00016468
0.000164477
0.00016416
0.000163695
0.000163062
0.000162286
0.000161396
0.00016041
0.000159345
0.000158208
0.000156996
0.000155685
0.000155404
0.000155314
0.000155284
0.000155239
0.000155079
0.000154824
0.000154468
0.000153983
0.000153353
0.0001526
0.000151749
0.00015082
0.000149828
0.000148774
0.000147662
0.000146463
0.000146671
0.000146529
0.000146436
0.000146328
0.000146117
0.000145822
0.000145438
0.00014494
0.000144317
0.000143587
0.000142774
0.000141896
0.000140965
0.000139988
0.000138963
0.000137868
0.000136699
0.00013848
0.000138295
0.000138153
0.000137994
0.000137744
0.000137419
0.000137014
0.000136511
0.000135898
0.000135192
0.000134416
0.000133585
0.000132712
0.000131802
0.000130851
0.000129851
0.000128777
0.00013079
0.000130572
0.000130389
0.000130191
0.000129912
0.000129565
0.000129148
0.000128645
0.000128046
0.000127365
0.000126625
0.000125838
0.000125017
0.000124169
0.000123288
0.000122368
0.00012138
0.000123564
0.00012332
0.000123106
0.000122878
0.000122579
0.000122218
0.000121796
0.000121298
0.000120716
0.000120061
0.000119356
0.000118613
0.000117842
0.000117049
0.000116233
0.000115384
0.000114483
0.000113521
0.000116769
0.000116505
0.000116267
0.000116019
0.000115706
0.000115338
0.000114916
0.00011443
0.000113867
0.000113241
0.000112571
0.000111869
0.000111145
0.000110405
0.000109649
0.000108865
0.000108043
0.000107159
0.000110373
0.000110095
0.000109841
0.000109578
0.000109259
0.00010889
0.000108475
0.000108002
0.000107462
0.000106867
0.000106232
0.000105571
0.000104892
0.000104202
0.0001035
0.000102778
0.000102025
0.000101215
0.000104349
0.000104062
0.000103797
0.000103526
0.000103207
0.000102843
0.000102438
0.000101983
0.000101468
0.000100904
0.000100306
9.96848e-05
9.90502e-05
9.84082e-05
9.77585e-05
9.70937e-05
9.64036e-05
9.56683e-05
9.48779e-05
9.86707e-05
9.83787e-05
9.81081e-05
9.78349e-05
9.75195e-05
9.71645e-05
9.67745e-05
9.63413e-05
9.58552e-05
9.53232e-05
9.47614e-05
9.41803e-05
9.35885e-05
9.29927e-05
9.23922e-05
9.17813e-05
9.11498e-05
9.04854e-05
8.97647e-05
9.33151e-05
9.30215e-05
9.27494e-05
9.2479e-05
9.2172e-05
9.183e-05
9.14587e-05
9.10498e-05
9.05931e-05
9.00954e-05
8.95705e-05
8.90292e-05
8.84791e-05
8.79275e-05
8.73743e-05
8.68143e-05
8.62381e-05
8.56355e-05
8.4981e-05
8.82602e-05
8.79684e-05
8.76985e-05
8.74349e-05
8.71397e-05
8.68142e-05
8.64645e-05
8.60826e-05
8.56578e-05
8.51947e-05
8.47067e-05
8.42043e-05
8.36956e-05
8.31871e-05
8.26796e-05
8.21673e-05
8.16434e-05
8.10983e-05
8.0512e-05
7.98738e-05
8.34863e-05
8.31988e-05
8.29349e-05
8.2681e-05
8.24008e-05
8.20947e-05
8.177e-05
8.14172e-05
8.10247e-05
8.05967e-05
8.01462e-05
7.96824e-05
7.92138e-05
7.87469e-05
7.82828e-05
7.78165e-05
7.73428e-05
7.68512e-05
7.63275e-05
7.57514e-05
7.89752e-05
7.8694e-05
7.84391e-05
7.81981e-05
7.79354e-05
7.76513e-05
7.73535e-05
7.70315e-05
7.66727e-05
7.62802e-05
7.58665e-05
7.54409e-05
7.50114e-05
7.45849e-05
7.41626e-05
7.37403e-05
7.33131e-05
7.28712e-05
7.24029e-05
7.1888e-05
7.47098e-05
7.44367e-05
7.41933e-05
7.39678e-05
7.37244e-05
7.34646e-05
7.31961e-05
7.29062e-05
7.25816e-05
7.22246e-05
7.18473e-05
7.14592e-05
7.10681e-05
7.06806e-05
7.02981e-05
6.99175e-05
6.95343e-05
6.914e-05
6.87239e-05
6.82698e-05
6.77667e-05
7.06743e-05
7.0411e-05
7.0181e-05
6.99734e-05
6.97512e-05
6.95175e-05
6.928e-05
6.9023e-05
6.87327e-05
6.84111e-05
6.80697e-05
6.77184e-05
6.73647e-05
6.70149e-05
6.66708e-05
6.63301e-05
6.59886e-05
6.56386e-05
6.52704e-05
6.48724e-05
6.44274e-05
6.68542e-05
6.66021e-05
6.6387e-05
6.61995e-05
6.59999e-05
6.57939e-05
6.5589e-05
6.53655e-05
6.51093e-05
6.48227e-05
6.45166e-05
6.42011e-05
6.38838e-05
6.35708e-05
6.32637e-05
6.29605e-05
6.26577e-05
6.23489e-05
6.20255e-05
6.16762e-05
6.12864e-05
6.32358e-05
6.29964e-05
6.27979e-05
6.26318e-05
6.24557e-05
6.22793e-05
6.21081e-05
6.19183e-05
6.16959e-05
6.14435e-05
6.11723e-05
6.08919e-05
6.06101e-05
6.03324e-05
6.00606e-05
5.97931e-05
5.95268e-05
5.92564e-05
5.89736e-05
5.86696e-05
5.83289e-05
5.98069e-05
5.95809e-05
5.94007e-05
5.92568e-05
5.91054e-05
5.89602e-05
5.88234e-05
5.86674e-05
5.84783e-05
5.82596e-05
5.80225e-05
5.77765e-05
5.75289e-05
5.72853e-05
5.70473e-05
5.68134e-05
5.65814e-05
5.63464e-05
5.61009e-05
5.58376e-05
5.55437e-05
5.52108e-05
5.65557e-05
5.6344e-05
5.61832e-05
5.60626e-05
5.59369e-05
5.58241e-05
5.57224e-05
5.55995e-05
5.54432e-05
5.52577e-05
5.5054e-05
5.48416e-05
5.46273e-05
5.44162e-05
5.42097e-05
5.40071e-05
5.38064e-05
5.36034e-05
5.3392e-05
5.31648e-05
5.29137e-05
5.26251e-05
5.34714e-05
5.32745e-05
5.31344e-05
5.30376e-05
5.29383e-05
5.28595e-05
5.27934e-05
5.27029e-05
5.25787e-05
5.24259e-05
5.22552e-05
5.20753e-05
5.18926e-05
5.17116e-05
5.15344e-05
5.13604e-05
5.11877e-05
5.10129e-05
5.0831e-05
5.06357e-05
5.04196e-05
5.01709e-05
5.05437e-05
5.03621e-05
5.02439e-05
5.01714e-05
5.00993e-05
5.00558e-05
5.00253e-05
4.99663e-05
4.98739e-05
4.97535e-05
4.96149e-05
4.9466e-05
4.93126e-05
4.91592e-05
4.90079e-05
4.88585e-05
4.87101e-05
4.85596e-05
4.84032e-05
4.8235e-05
4.80491e-05
4.78337e-05
4.77632e-05
4.75973e-05
4.75021e-05
4.74539e-05
4.741e-05
4.74035e-05
4.74081e-05
4.73795e-05
4.73189e-05
4.72307e-05
4.71226e-05
4.70023e-05
4.6875e-05
4.67454e-05
4.66159e-05
4.64872e-05
4.63587e-05
4.62284e-05
4.60929e-05
4.59474e-05
4.57866e-05
4.56005e-05
4.53842e-05
4.5121e-05
4.49711e-05
4.48999e-05
4.48759e-05
4.48614e-05
4.48934e-05
4.4932e-05
4.4933e-05
4.49047e-05
4.4848e-05
4.47684e-05
4.46729e-05
4.45672e-05
4.44565e-05
4.43441e-05
4.42313e-05
4.41184e-05
4.4004e-05
4.3885e-05
4.37577e-05
4.3617e-05
4.34561e-05
4.32653e-05
4.26086e-05
4.24752e-05
4.24288e-05
4.24289e-05
4.24452e-05
4.25172e-05
4.25883e-05
4.26179e-05
4.26231e-05
4.25968e-05
4.25417e-05
4.24658e-05
4.23763e-05
4.2279e-05
4.21786e-05
4.20774e-05
4.1976e-05
4.18737e-05
4.17679e-05
4.16551e-05
4.15311e-05
4.13894e-05
4.12224e-05
4.02184e-05
4.01016e-05
4.00808e-05
4.01048e-05
4.01538e-05
4.02669e-05
4.0368e-05
4.04265e-05
4.04669e-05
4.04685e-05
4.04319e-05
4.03692e-05
4.02897e-05
4.02009e-05
4.01086e-05
4.00157e-05
3.99233e-05
3.98309e-05
3.9736e-05
3.96357e-05
3.95261e-05
3.94017e-05
3.92556e-05
3.7943e-05
3.78432e-05
3.78487e-05
3.78962e-05
3.798e-05
3.81347e-05
3.8263e-05
3.83515e-05
3.84295e-05
3.84544e-05
3.84285e-05
3.83722e-05
3.82979e-05
3.82141e-05
3.81278e-05
3.80422e-05
3.79583e-05
3.78753e-05
3.77911e-05
3.7703e-05
3.76074e-05
3.74997e-05
3.73726e-05
3.57755e-05
3.56932e-05
3.57255e-05
3.57962e-05
3.59178e-05
3.61138e-05
3.62655e-05
3.63866e-05
3.65044e-05
3.65452e-05
3.65212e-05
3.64662e-05
3.63951e-05
3.63162e-05
3.62368e-05
3.61597e-05
3.60855e-05
3.6013e-05
3.59403e-05
3.58648e-05
3.57833e-05
3.56918e-05
3.55842e-05
3.54625e-05
3.37092e-05
3.36448e-05
3.37044e-05
3.37982e-05
3.39611e-05
3.4197e-05
3.43689e-05
3.45272e-05
3.46859e-05
3.47313e-05
3.47012e-05
3.46466e-05
3.45811e-05
3.45104e-05
3.44406e-05
3.43743e-05
3.43111e-05
3.42499e-05
3.41885e-05
3.41248e-05
3.40561e-05
3.39785e-05
3.38879e-05
3.3782e-05
3.17381e-05
3.16921e-05
3.17789e-05
3.18956e-05
3.21037e-05
3.23764e-05
3.25662e-05
3.27705e-05
3.29702e-05
3.30054e-05
3.29633e-05
3.29136e-05
3.28597e-05
3.28011e-05
3.27431e-05
3.26879e-05
3.2635e-05
3.2583e-05
3.25304e-05
3.24753e-05
3.24152e-05
3.23469e-05
3.22665e-05
3.21718e-05
2.98572e-05
2.98303e-05
2.99437e-05
3.00831e-05
3.03397e-05
3.06435e-05
3.08494e-05
3.11094e-05
3.1352e-05
3.13635e-05
3.13088e-05
3.12722e-05
3.12353e-05
3.1189e-05
3.11399e-05
3.10917e-05
3.10441e-05
3.09962e-05
3.09468e-05
3.08944e-05
3.08372e-05
3.0772e-05
3.0695e-05
3.06043e-05
2.80622e-05
2.8056e-05
2.81955e-05
2.83581e-05
2.86667e-05
2.89937e-05
2.92127e-05
2.9531e-05
2.98173e-05
2.98023e-05
2.97438e-05
2.97278e-05
2.97067e-05
2.96657e-05
2.9617e-05
2.95673e-05
2.9517e-05
2.94656e-05
2.94126e-05
2.9357e-05
2.92969e-05
2.92294e-05
2.91502e-05
2.90579e-05
2.63485e-05
2.63643e-05
2.65301e-05
2.67191e-05
2.70844e-05
2.74285e-05
2.76597e-05
2.80347e-05
2.83586e-05
2.8314e-05
2.8264e-05
2.82725e-05
2.82568e-05
2.82083e-05
2.81502e-05
2.80915e-05
2.80322e-05
2.79723e-05
2.79115e-05
2.78489e-05
2.77829e-05
2.77101e-05
2.76263e-05
2.75296e-05
2.47131e-05
2.47499e-05
2.49401e-05
2.51597e-05
2.55843e-05
2.59416e-05
2.61908e-05
2.66529e-05
2.70196e-05
2.68964e-05
2.6844e-05
2.68805e-05
2.68604e-05
2.67923e-05
2.67185e-05
2.66484e-05
2.6579e-05
2.65103e-05
2.64418e-05
2.63731e-05
2.63015e-05
2.62238e-05
2.61359e-05
2.6036e-05
2.59304e-05
2.31772e-05
2.32313e-05
2.34358e-05
2.36815e-05
2.41543e-05
2.4506e-05
2.47648e-05
2.53582e-05
2.58479e-05
2.55725e-05
2.54711e-05
2.55474e-05
2.55293e-05
2.54401e-05
2.53509e-05
2.52719e-05
2.51954e-05
2.51192e-05
2.50449e-05
2.49712e-05
2.48951e-05
2.48134e-05
2.47221e-05
2.46196e-05
2.45097e-05
2.18582e-05
2.19205e-05
2.21171e-05
2.23622e-05
2.28407e-05
2.31253e-05
2.33324e-05
2.40678e-05
2.4708e-05
2.43011e-05
2.41641e-05
2.43003e-05
2.43133e-05
2.42261e-05
2.41352e-05
2.40574e-05
2.39816e-05
2.39047e-05
2.3829e-05
2.37534e-05
2.36759e-05
2.35923e-05
2.34988e-05
2.33937e-05
2.32811e-05
2.07558e-05
2.08172e-05
2.0989e-05
2.12099e-05
2.1647e-05
2.1813e-05
2.19621e-05
2.26686e-05
2.34287e-05
2.30372e-05
2.29361e-05
2.31268e-05
2.31935e-05
2.31379e-05
2.30615e-05
2.2994e-05
2.29273e-05
2.28582e-05
2.27878e-05
2.27165e-05
2.26426e-05
2.25626e-05
2.24719e-05
2.23683e-05
2.22567e-05
1.96973e-05
1.97572e-05
1.99033e-05
2.01072e-05
2.04966e-05
2.05535e-05
2.06953e-05
2.12724e-05
2.20766e-05
2.18049e-05
2.17678e-05
2.19834e-05
2.2098e-05
2.20831e-05
2.20277e-05
2.19722e-05
2.19159e-05
2.1856e-05
2.17936e-05
2.17294e-05
2.16621e-05
2.15886e-05
2.15039e-05
2.14055e-05
2.12983e-05
1.86039e-05
1.86619e-05
1.87814e-05
1.89786e-05
1.93112e-05
1.92892e-05
1.94569e-05
1.98969e-05
2.07598e-05
2.06363e-05
2.06598e-05
2.08742e-05
2.10158e-05
2.10347e-05
2.10005e-05
2.09585e-05
2.0914e-05
2.08635e-05
2.0808e-05
2.07497e-05
2.06881e-05
2.062e-05
2.05413e-05
2.04475e-05
2.03429e-05
1.75013e-05
1.75552e-05
1.76481e-05
1.78452e-05
1.81084e-05
1.80466e-05
1.8245e-05
1.85505e-05
1.94912e-05
1.9521e-05
1.96109e-05
1.98206e-05
1.99781e-05
2.00203e-05
2.00007e-05
1.99708e-05
1.99414e-05
1.9906e-05
1.98618e-05
1.98109e-05
1.97541e-05
1.969e-05
1.9614e-05
1.95218e-05
1.94165e-05
1.63925e-05
1.64368e-05
1.65014e-05
1.66988e-05
1.68796e-05
1.68326e-05
1.70428e-05
1.72435e-05
1.82968e-05
1.84745e-05
1.86252e-05
1.88331e-05
1.90092e-05
1.90759e-05
1.9063e-05
1.9026e-05
1.89911e-05
1.89593e-05
1.89248e-05
1.88838e-05
1.88335e-05
1.87716e-05
1.86923e-05
1.85931e-05
1.84769e-05
1.52914e-05
1.53161e-05
1.53465e-05
1.55304e-05
1.56141e-05
1.56457e-05
1.58218e-05
1.59891e-05
1.71988e-05
1.75184e-05
1.77239e-05
1.79155e-05
1.8089e-05
1.81824e-05
1.82009e-05
1.81717e-05
1.81167e-05
1.80506e-05
1.79839e-05
1.79203e-05
1.78562e-05
1.77833e-05
1.76885e-05
1.75601e-05
1.73974e-05
1.42117e-05
1.42067e-05
1.41946e-05
1.43321e-05
1.4298e-05
1.44515e-05
1.45005e-05
1.47762e-05
1.62095e-05
1.66574e-05
1.69488e-05
1.71228e-05
1.72161e-05
1.72318e-05
1.72266e-05
1.72276e-05
1.72191e-05
1.71736e-05
1.70857e-05
1.69688e-05
1.68357e-05
1.66899e-05
1.65236e-05
1.63256e-05
1.6092e-05
1.58277e-05
1.31579e-05
1.31155e-05
1.30529e-05
1.31014e-05
1.29381e-05
1.32063e-05
1.29778e-05
1.36326e-05
1.53499e-05
1.5818e-05
1.62294e-05
1.64487e-05
1.64776e-05
1.63345e-05
1.61122e-05
1.59207e-05
1.5815e-05
1.57759e-05
1.57474e-05
1.56842e-05
1.55642e-05
1.53817e-05
1.51342e-05
1.48289e-05
1.44825e-05
1.41163e-05
1.21401e-05
1.20382e-05
1.18914e-05
1.18021e-05
1.15429e-05
1.19094e-05
1.13398e-05
1.28892e-05
1.47263e-05
1.50383e-05
1.54874e-05
1.5649e-05
1.57004e-05
1.56758e-05
1.54489e-05
1.5012e-05
1.45209e-05
1.41544e-05
1.4003e-05
1.40506e-05
1.42188e-05
1.44167e-05
1.45354e-05
1.44751e-05
1.4242e-05
1.39395e-05
1.12508e-05
1.10301e-05
1.06844e-05
1.03322e-05
9.99022e-06
1.04893e-05
1.00065e-05
1.29627e-05
1.44408e-05
1.49893e-05
1.60538e-05
1.63243e-05
1.60219e-05
1.55036e-05
1.51531e-05
1.52235e-05
1.55693e-05
1.58867e-05
1.60397e-05
1.60607e-05
1.60235e-05
1.60055e-05
1.61242e-05
1.65168e-05
1.71689e-05
1.79176e-05
1.06742e-05
1.0293e-05
9.61036e-06
8.7091e-06
7.97412e-06
8.53869e-06
9.08296e-06
1.3047e-05
1.36341e-05
1.47452e-05
1.66824e-05
1.81955e-05
1.96086e-05
2.09591e-05
2.21177e-05
2.30278e-05
2.36965e-05
2.42251e-05
2.47276e-05
2.5267e-05
2.58589e-05
2.64886e-05
2.71237e-05
2.76876e-05
2.81069e-05
2.84258e-05
1.04004e-05
9.93372e-06
9.00735e-06
7.47218e-06
5.44699e-06
6.02219e-06
8.59601e-06
1.13374e-05
1.36484e-05
2.02196e-05
2.50167e-05
2.86721e-05
3.12893e-05
3.30652e-05
3.42025e-05
3.49413e-05
3.54901e-05
3.59909e-05
3.64917e-05
3.69871e-05
3.74545e-05
3.78928e-05
3.83245e-05
3.88165e-05
3.93177e-05
3.97379e-05
)
;

boundaryField
{
    inlet
    {
        type            calculated;
        value           nonuniform List<scalar> 
26
(
1.0391e-05
9.93633e-06
9.01154e-06
7.41059e-06
5.0216e-06
6.07875e-06
9.32424e-06
9.65829e-06
2.045e-05
2.92726e-05
3.68126e-05
4.30464e-05
4.80314e-05
5.19461e-05
5.49358e-05
5.72113e-05
5.89653e-05
6.03596e-05
6.15265e-05
6.25656e-05
6.35482e-05
6.45453e-05
6.5636e-05
6.68735e-05
6.81657e-05
6.93749e-05
)
;
    }
    outlet
    {
        type            calculated;
        value           nonuniform List<scalar> 0();
    }
    walls
    {
        type            calculated;
        value           nonuniform List<scalar> 0();
    }
    frontAndBack
    {
        type            empty;
    }
    procBoundary0to1
    {
        type            processor;
        value           nonuniform List<scalar> 
94
(
0.00104991
0.000969566
0.000969566
0.000888981
0.000888981
0.000810286
0.000810286
0.000733953
0.000733953
0.000662412
0.000662412
0.000597255
0.000546089
0.000546089
0.000495342
0.000456441
0.000456441
0.000416438
0.000385941
0.000358285
0.000358285
0.000329417
0.000307004
0.000307004
0.000283279
0.000264765
0.00024766
0.00024766
0.000229512
0.000215134
0.00020177
0.00020177
0.000187545
0.000176188
0.000176188
0.000163991
0.00015427
0.000145185
0.000145185
0.000135408
0.000127619
0.000120331
0.000120331
0.000112451
0.0001062
0.000100349
0.000100349
9.39898e-05
8.89745e-05
8.42728e-05
8.42728e-05
7.91438e-05
7.511e-05
7.13219e-05
7.13219e-05
6.71789e-05
6.39188e-05
6.08417e-05
5.7945e-05
5.7945e-05
5.48121e-05
5.22868e-05
4.98795e-05
4.75847e-05
4.75847e-05
4.51248e-05
4.30436e-05
4.1028e-05
3.90867e-05
3.72295e-05
3.72295e-05
3.53226e-05
3.36645e-05
3.20658e-05
3.05029e-05
2.89564e-05
2.7427e-05
2.7427e-05
2.58197e-05
2.43994e-05
2.31681e-05
2.21446e-05
2.11893e-05
2.02339e-05
1.93029e-05
1.83498e-05
1.72134e-05
1.72134e-05
1.55322e-05
1.37456e-05
1.36544e-05
1.86454e-05
2.87049e-05
4.00662e-05
)
;
    }
    procBoundary0to4
    {
        type            processor;
        value           nonuniform List<scalar> 
72
(
0.000781378
0.000716978
0.000659704
0.000608499
0.000562589
0.000521267
0.00048395
0.000450131
0.000419377
0.000391319
0.00036565
0.000342106
0.000320449
0.000300486
0.000282042
0.000264965
0.000249127
0.000234409
0.000220709
0.00020794
0.000196019
0.000184877
0.00017459
0.00017459
0.00016472
0.000155472
0.000146799
0.000138657
0.000131007
0.000123811
0.000117038
0.000110659
0.000104647
9.89759e-05
9.36231e-05
8.85678e-05
8.37907e-05
7.92737e-05
7.50004e-05
7.09553e-05
6.71243e-05
6.34941e-05
6.00525e-05
5.67879e-05
5.36898e-05
5.07481e-05
4.79534e-05
4.52969e-05
4.27704e-05
4.03661e-05
3.80768e-05
3.58955e-05
3.38159e-05
3.18319e-05
2.9938e-05
2.81301e-05
2.64038e-05
2.47568e-05
2.32122e-05
2.18899e-05
2.07862e-05
1.97254e-05
1.86297e-05
1.7525e-05
1.64158e-05
1.53172e-05
1.42442e-05
1.32023e-05
1.22066e-05
1.1355e-05
1.08198e-05
1.05655e-05
)
;
    }
    procBoundary0to5
    {
        type            processor;
        value           nonuniform List<scalar> 4(0.000889346 0.000924636 0.000961512 0.00100381);
    }
}


// ************************************************************************* //
