/*--------------------------------*- C++ -*----------------------------------*\
| =========                 |                                                 |
| \\      /  F ield         | OpenFOAM: The Open Source CFD Toolbox           |
|  \\    /   O peration     | Version:  2306                                  |
|   \\  /    A nd           | Website:  www.openfoam.com                      |
|    \\/     M anipulation  |                                                 |
\*---------------------------------------------------------------------------*/
FoamFile
{
    version     2.0;
    format      ascii;
    arch        "LSB;label=32;scalar=64";
    class       volVectorField;
    location    "175";
    object      U;
}
// * * * * * * * * * * * * * * * * * * * * * * * * * * * * * * * * * * * * * //

dimensions      [0 1 -1 0 0 0 0];

internalField   nonuniform List<vector> 
1340
(
(17.884 13.881 -4.26758e-18)
(17.3031 13.1779 6.0119e-17)
(16.7723 12.4414 1.81869e-16)
(16.258 11.5637 -3.88041e-16)
(15.77 10.5671 -7.91575e-16)
(18.5923 13.2387 1.62498e-17)
(18.0475 12.5952 6.89474e-17)
(17.5486 11.9223 -2.05691e-16)
(17.0604 11.1192 -7.57778e-18)
(16.5924 10.2058 4.47692e-16)
(16.2111 9.23433 -8.88086e-16)
(19.2228 12.6542 -1.11026e-17)
(18.7096 12.0631 -4.87057e-17)
(18.239 11.4461 -2.62754e-17)
(17.7743 10.7081 1.77143e-16)
(17.3254 9.86779 -4.65576e-17)
(16.9544 8.97458 5.44307e-16)
(16.6608 8.01607 9.20259e-16)
(19.7868 12.119 1.05796e-17)
(19.3019 11.5745 1.77216e-17)
(18.8565 11.0067 7.50016e-17)
(18.4136 10.3265 -2.74544e-16)
(17.9826 9.55072 -2.22097e-16)
(17.6221 8.72653 -4.9822e-16)
(17.3312 7.84 -6.96664e-16)
(17.1278 6.90789 6.29057e-16)
(20.2938 11.6265 9.97822e-18)
(19.8344 11.1235 7.6774e-18)
(19.4118 10.5997 -4.04671e-17)
(18.9889 9.97088 2.37103e-16)
(18.575 9.25268 5.07414e-16)
(18.2251 8.48976 3.46058e-17)
(17.9383 7.66738 1.29205e-15)
(17.7311 6.80173 -4.93352e-16)
(17.6159 5.9464 -7.56086e-16)
(20.7513 11.1711 1.32335e-17)
(20.3152 10.7055 -2.61961e-17)
(19.9135 10.2209 -2.08926e-17)
(19.5091 9.63848 -3.33176e-17)
(19.1113 8.97192 4.19974e-16)
(18.7722 8.26394 -5.65271e-16)
(18.4904 7.49923 1.82743e-16)
(18.2815 6.69337 1.19731e-17)
(18.1578 5.8969 -1.81562e-15)
(18.1174 5.14099 5.63002e-16)
(21.1657 10.7483 -1.13969e-17)
(20.7509 10.3168 2.13584e-17)
(20.3683 9.86764 1.56407e-16)
(19.9813 9.32685 4.21418e-17)
(19.599 8.70702 -2.60259e-16)
(19.2705 8.04851 2.46517e-16)
(18.9945 7.33595 -5.34687e-18)
(18.7855 6.58434 9.27805e-16)
(18.6556 5.84119 1.36909e-16)
(18.6036 5.13601 -1.57832e-16)
(21.5422 10.3546 -3.16682e-18)
(21.147 9.954 -6.03343e-18)
(20.7822 9.53699 -1.30432e-16)
(20.4114 9.03411 -2.81098e-16)
(20.0438 8.45668 -4.17484e-16)
(19.7258 7.84299 7.39085e-16)
(19.4561 7.17787 -7.75138e-16)
(19.2482 6.47564 1.99102e-16)
(19.1143 5.7811 4.98453e-16)
(19.0532 5.12218 2.45935e-16)
(19.0573 4.50136 3.41673e-16)
(21.8851 9.98691 1.91256e-17)
(21.5082 9.61449 4.31736e-17)
(21.1598 9.22675 1.3846e-16)
(20.8044 8.75849 -3.56851e-17)
(20.4508 8.21977 1.57905e-16)
(20.1433 7.64689 -7.46992e-16)
(19.8802 7.02516 6.53385e-16)
(19.6744 6.36808 9.28651e-16)
(19.5379 5.71803 1.72688e-17)
(19.4697 5.10147 5.67839e-16)
(19.4626 4.52069 2.81203e-16)
(22.1982 9.64249 -2.17815e-17)
(21.8383 9.29599 3.65062e-17)
(21.5054 8.93503 -1.23503e-16)
(21.1645 8.49853 -1.31854e-16)
(20.8242 7.99528 -1.4782e-17)
(20.527 7.45973 6.7348e-16)
(20.2707 6.87783 -9.43465e-17)
(20.0677 6.26225 -6.15988e-16)
(19.9299 5.65302 -6.1306e-16)
(19.8565 5.07541 -1.91964e-15)
(19.8401 4.53152 4.47952e-16)
(19.8722 4.02885 1.23924e-15)
(22.4847 9.31921 1.20086e-17)
(22.1408 8.99658 9.30255e-18)
(21.8224 8.66021 1.3482e-16)
(21.4952 8.25292 2.87572e-16)
(21.1677 7.78231 -1.41078e-16)
(20.8806 7.28107 -5.13501e-16)
(20.6313 6.73585 7.70565e-17)
(20.4317 6.15848 -7.65457e-16)
(20.2934 5.58692 3.88827e-16)
(20.216 5.04522 7.20981e-16)
(20.1923 4.5354 -6.23181e-16)
(20.214 4.06456 -6.83344e-16)
(22.7472 9.0152 -1.29265e-17)
(22.4183 8.71459 6.36022e-17)
(22.1136 8.40088 -4.10332e-17)
(21.7995 8.02051 -3.86472e-17)
(21.4844 7.58002 -1.33688e-16)
(21.207 7.11047 -4.05455e-16)
(20.9648 6.59912 -2.17303e-16)
(20.769 6.05709 -6.57247e-17)
(20.6311 5.52034 2.9641e-16)
(20.5508 5.01184 4.32388e-16)
(20.5211 4.53352 8.14457e-16)
(20.5341 4.09217 -2.17611e-16)
(22.9882 8.7288 -1.12693e-17)
(22.6735 8.44857 -8.81275e-17)
(22.3818 8.15579 -6.98532e-17)
(22.0801 7.80031 -6.31731e-17)
(21.7768 7.3877 -4.97184e-17)
(21.509 6.94748 2.37416e-16)
(21.2739 6.46751 -1.21467e-15)
(21.0821 5.95822 1.03567e-16)
(20.9453 5.45375 1.80816e-15)
(20.863 4.97603 4.07541e-16)
(20.8285 4.52695 -1.42813e-15)
(20.8342 4.11298 -9.89588e-16)
(20.8722 3.74018 2.17312e-16)
(23.2096 8.45857 1.34157e-17)
(22.9084 8.19724 -2.36904e-17)
(22.6289 7.92388 1.2e-16)
(22.3392 7.59144 -4.1455e-16)
(22.0473 7.2047 -3.67959e-16)
(21.7888 6.79171 -1.91887e-16)
(21.5607 6.34088 4.5624e-16)
(21.3733 5.86204 7.76506e-16)
(21.2379 5.38758 -7.95255e-16)
(21.1544 4.93846 7.30494e-16)
(21.116 4.51649 -4.56392e-18)
(21.1156 4.12797 -2.6605e-16)
(21.1455 3.77868 9.08359e-16)
(23.4133 8.20326 -1.05419e-17)
(23.125 7.95948 -3.34711e-17)
(22.8571 7.70415 8.68157e-17)
(22.5788 7.39314 1.8399e-16)
(22.2979 7.03046 3.60106e-16)
(22.0484 6.64279 2.62929e-16)
(21.8273 6.21907 8.79402e-16)
(21.6444 5.76858 -1.47831e-15)
(21.5109 5.32209 1.28861e-16)
(21.4267 4.89957 -3.0519e-16)
(21.3852 4.50288 6.93494e-16)
(21.3797 4.13803 2.09539e-16)
(21.4027 3.8106 5.10128e-16)
(21.4486 3.51541 1.8442e-16)
(23.6009 7.96175 1.16425e-17)
(23.3248 7.73434 5.27654e-17)
(23.068 7.49575 -1.56068e-16)
(22.8006 7.20467 7.88564e-17)
(22.5303 6.86443 3.42976e-16)
(22.2896 6.50035 -1.00327e-16)
(22.0754 6.10194 -4.5429e-16)
(21.8972 5.67791 1.10293e-15)
(21.7659 5.25748 -9.88068e-16)
(21.6814 4.85979 8.35162e-16)
(21.6375 4.48664 -3.20398e-16)
(21.6276 4.14384 -4.26449e-16)
(21.6447 3.83677 -7.44809e-16)
(21.6832 3.56048 1.00585e-16)
(23.7738 7.73305 -9.18737e-19)
(23.5093 7.52092 1.46429e-17)
(23.2632 7.29793 -9.56988e-17)
(23.0062 7.02541 2.10653e-16)
(22.7462 6.70611 -3.29678e-16)
(22.5139 6.36407 4.46635e-16)
(22.3066 5.98928 4.58282e-16)
(22.1331 5.58999 -4.73964e-16)
(22.0042 5.19394 -7.86138e-17)
(21.9199 4.81943 9.93395e-17)
(21.8741 4.46828 -3.81603e-16)
(21.8606 4.14604 5.24705e-16)
(21.8725 3.85792 3.19975e-16)
(21.9045 3.59921 4.52148e-17)
(23.9332 7.51631 -1.70014e-18)
(23.6799 7.31841 1.36449e-17)
(23.4439 7.10998 -4.35136e-18)
(23.197 6.85481 -1.18664e-16)
(22.9469 6.55506 -3.61813e-16)
(22.7229 6.23363 -2.86143e-16)
(22.5223 5.88097 -4.68527e-16)
(22.3535 5.50482 2.20302e-16)
(22.2271 5.1316 7.52896e-17)
(22.1433 4.77877 -1.27039e-15)
(22.0961 4.44816 -2.19487e-16)
(22.0795 4.14512 -4.8133e-16)
(22.0871 3.87467 8.98035e-16)
(22.1134 3.63232 -9.54414e-16)
(22.1544 3.41351 -3.14117e-16)
(24.0803 7.31071 1.23119e-17)
(23.8376 7.12612 5.04522e-17)
(23.6114 6.9313 1.20264e-16)
(23.3742 6.69233 1.54808e-16)
(23.1336 6.41089 2.85574e-16)
(22.9176 6.10875 2.78623e-16)
(22.7236 5.77681 -8.85211e-16)
(22.5596 5.42237 -4.30857e-16)
(22.4359 5.07054 7.47763e-16)
(22.3528 4.73802 1.36652e-15)
(22.3046 4.42662 6.93812e-16)
(22.2854 4.14152 -1.63462e-16)
(22.2891 3.88755 -2.25916e-16)
(22.3104 3.66045 1.05991e-15)
(22.3455 3.45584 -2.2263e-16)
(24.2161 7.11556 9.63114e-18)
(23.9836 6.9434 -1.5921e-17)
(23.7667 6.76131 -5.03339e-17)
(23.5388 6.5375 -7.92808e-17)
(23.3075 6.27321 -7.49567e-16)
(23.0993 5.98916 -1.50374e-16)
(22.9117 5.67665 4.54138e-16)
(22.7524 5.34258 4.05237e-16)
(22.6316 5.01082 -1.13136e-15)
(22.5494 4.69734 2.18946e-16)
(22.5004 4.40395 -1.12214e-16)
(22.479 4.13561 9.29621e-18)
(22.4794 3.897 -3.7009e-16)
(22.4964 3.68409 -5.75547e-16)
(22.5262 3.4927 2.08285e-17)
(24.3415 6.93023 -4.53456e-18)
(24.1188 6.76969 2.72213e-17)
(23.9109 6.5995 4.249e-17)
(23.6919 6.38989 1.87389e-17)
(23.4695 6.1417 1.07491e-16)
(23.2689 5.8746 6.70003e-16)
(23.0876 5.58034 -4.24906e-16)
(22.933 5.2654 3.23856e-16)
(22.8151 4.9525 1.16149e-15)
(22.734 4.65688 -9.42452e-16)
(22.6845 4.38036 8.1752e-16)
(22.6613 4.12771 5.70284e-16)
(22.6588 3.90345 8.97181e-16)
(22.6719 3.70375 -1.44639e-16)
(22.697 3.52464 -3.66438e-16)
(22.7314 3.36353 -3.92898e-16)
(24.4573 6.75412 5.36948e-20)
(24.244 6.60445 -8.78266e-17)
(24.0447 6.4454 1.33667e-16)
(23.8344 6.24909 -5.43589e-17)
(23.6205 6.01602 5.52074e-16)
(23.4273 5.76485 -3.92634e-16)
(23.2521 5.48772 7.73345e-17)
(23.1023 5.19077 1.15934e-15)
(22.9872 4.89558 -1.41331e-15)
(22.9074 4.61674 5.96816e-16)
(22.8577 4.35604 -9.7068e-16)
(22.8329 4.11809 -1.17366e-15)
(22.8279 3.90722 -5.51094e-16)
(22.8376 3.71984 2.34372e-16)
(22.8585 3.55215 5.69693e-16)
(22.8881 3.40166 2.27553e-16)
(24.36 6.4472 -3.16952e-17)
(24.169 6.2986 -4.56767e-17)
(23.967 6.11475 -3.03572e-17)
(23.7615 5.89587 -3.72904e-16)
(23.5753 5.65966 6.6431e-16)
(23.4062 5.39865 -3.54434e-16)
(23.261 5.11862 -1.45297e-15)
(23.1489 4.84009 1.38234e-15)
(23.0704 4.57701 1.95837e-16)
(23.0206 4.33116 4.36754e-16)
(22.9946 4.10697 5.23337e-16)
(22.9873 3.90863 -8.44495e-17)
(22.9941 3.73272 9.44231e-17)
(23.0113 3.57564 -5.69219e-16)
(23.0365 3.43502 3.04084e-16)
(23.0685 3.3069 -5.69669e-16)
(24.4674 6.2975 -2.00913e-17)
(24.2844 6.15869 6.50526e-17)
(24.0906 5.98653 -2.58398e-16)
(23.893 5.78099 7.93347e-17)
(23.7138 5.55884 -6.37623e-16)
(23.5506 5.31299 1.55426e-16)
(23.4099 5.04888 3.80002e-17)
(23.3008 4.78604 -4.88459e-17)
(23.2237 4.53777 -2.24453e-16)
(23.174 4.30586 1.16745e-15)
(23.1469 4.09456 -1.25312e-16)
(23.1377 3.90792 1.01739e-15)
(23.1418 3.7427 -3.35975e-16)
(23.1558 3.59549 3.2809e-16)
(23.1771 3.46403 -2.45433e-16)
(23.2047 3.34451 4.27566e-16)
(24.567 6.15494 -9.29061e-17)
(24.3917 6.0253 -1.21371e-17)
(24.2056 5.86412 4.15617e-16)
(24.0158 5.67113 1.4996e-17)
(23.8434 5.46219 3.82073e-16)
(23.6859 5.2306 -5.15667e-16)
(23.5496 4.98149 8.5605e-17)
(23.4435 4.73341 -2.62515e-16)
(23.368 4.49908 2.08475e-16)
(23.3185 4.28025 -6.3196e-16)
(23.2906 4.08104 -3.54509e-16)
(23.2797 3.90535 -1.11163e-15)
(23.2814 3.75009 3.41358e-16)
(23.2924 3.61206 1.3054e-16)
(23.3104 3.48909 -1.14228e-16)
(23.334 3.37753 -1.20171e-16)
(24.6593 6.01913 6.81652e-17)
(24.4914 5.89809 1.50438e-16)
(24.3129 5.74722 -1.76111e-16)
(24.1306 5.56603 -5.37064e-16)
(23.9647 5.36953 7.86707e-17)
(23.8128 5.15137 -1.40384e-16)
(23.6809 4.91639 4.74249e-16)
(23.5777 4.6822 6.86492e-16)
(23.5038 4.46098 -4.84023e-16)
(23.4546 4.25445 -7.25884e-16)
(23.426 4.06659 1.42273e-15)
(23.4137 3.90111 6.46225e-16)
(23.4134 3.75515 -2.05908e-16)
(23.4218 3.62565 1.00431e-16)
(23.4367 3.51054 5.3591e-16)
(23.4568 3.40636 4.33817e-16)
(23.4815 3.31031 6.33274e-17)
(24.7449 5.88975 -1.52292e-17)
(24.5841 5.77677 -1.67011e-16)
(24.4129 5.63557 2.18225e-17)
(24.2378 5.46547 8.12774e-16)
(24.0783 5.28068 -6.81793e-16)
(23.9318 5.07516 8.10062e-17)
(23.8043 4.85349 -4.27363e-17)
(23.704 4.6324 -4.55798e-16)
(23.6317 4.42352 1.34268e-15)
(23.583 4.22854 2.76916e-17)
(23.5539 4.05131 -1.34988e-15)
(23.5403 3.8954 3.58346e-16)
(23.5381 3.7581 -6.2006e-16)
(23.5442 3.63652 -5.20945e-16)
(23.5564 3.52871 -2.1015e-16)
(23.5733 3.43135 8.97276e-17)
(23.5945 3.34176 5.90719e-17)
(24.8242 5.76645 -4.09749e-17)
(24.6702 5.66103 1.06449e-16)
(24.5061 5.52891 1.01694e-16)
(24.3381 5.36926 -8.44087e-16)
(24.1847 5.19548 6.89542e-16)
(24.0435 5.00187 -2.70785e-16)
(23.9202 4.79274 9.84518e-16)
(23.8229 4.58399 6.75527e-16)
(23.7522 4.38672 -1.9446e-15)
(23.704 4.20261 -8.89384e-16)
(23.6746 4.03534 3.7504e-16)
(23.6599 3.88838 -1.33863e-16)
(23.6561 3.75916 4.17619e-16)
(23.6601 3.64495 -3.36892e-16)
(23.6698 3.54389 -8.74207e-17)
(23.6841 3.45284 -6.88353e-17)
(23.7021 3.36921 -7.21197e-17)
(24.8976 5.64894 1.459e-18)
(24.7503 5.55061 1.14661e-16)
(24.593 5.42702 -1.7008e-16)
(24.4318 5.27719 4.36027e-16)
(24.2844 5.11378 -2.63293e-16)
(24.1484 4.93138 4.74703e-16)
(24.0293 4.73407 -9.28572e-16)
(23.9349 4.53695 -1.0866e-16)
(23.8659 4.3506 1.60267e-15)
(23.8183 4.1767 -1.15362e-16)
(23.7886 4.0188 -2.42162e-16)
(23.773 3.8802 -6.19793e-17)
(23.7677 3.75852 5.70905e-16)
(23.7699 3.65116 3.05186e-16)
(23.7775 3.55637 -3.12281e-16)
(23.7892 3.47115 4.72601e-16)
(23.8044 3.39302 5.27113e-17)
(23.8229 3.32015 -3.8391e-16)
(24.9657 5.53693 -1.11928e-17)
(24.8248 5.44525 -1.83805e-16)
(24.6741 5.32966 4.30896e-17)
(24.5195 5.18908 3.60579e-17)
(24.3779 5.03542 -3.06508e-16)
(24.247 4.8636 -3.49594e-16)
(24.1319 4.67743 -4.58164e-16)
(24.0404 4.49126 -1.12876e-15)
(23.9731 4.31521 6.08658e-16)
(23.9262 4.15091 1.20846e-15)
(23.8963 4.00178 4.21616e-16)
(23.88 3.87101 4.51721e-17)
(23.8735 3.75636 1.92691e-16)
(23.874 3.65537 2.93869e-16)
(23.8796 3.56639 -3.75421e-16)
(23.8892 3.48655 -9.3144e-17)
(23.9019 3.41351 3.64456e-16)
(23.9176 3.34547 -1.24546e-17)
(25.0288 5.43017 4.21756e-17)
(24.894 5.34472 -5.86192e-17)
(24.7498 5.23665 9.67139e-18)
(24.6016 5.10476 -1.87345e-16)
(24.4656 4.96029 6.67189e-16)
(24.3396 4.79842 1.05785e-15)
(24.2286 4.62276 -4.19073e-16)
(24.1399 4.44691 1.73416e-16)
(24.0743 4.28054 -4.45655e-16)
(24.0281 4.12526 -1.08633e-15)
(23.9982 3.98437 -4.94225e-16)
(23.9812 3.86094 -3.05109e-16)
(23.9736 3.75284 -5.51701e-16)
(23.9727 3.65777 1.71926e-16)
(23.9766 3.57417 2.65252e-16)
(23.9842 3.49932 4.52239e-17)
(23.9947 3.43096 -1.89545e-16)
(24.0079 3.3674 -4.03528e-16)
(25.0872 5.3284 -4.79157e-17)
(24.9584 5.24879 1.07971e-16)
(24.8204 5.14777 -1.73066e-16)
(24.6784 5.02406 -2.16005e-16)
(24.5478 4.88824 -4.24779e-16)
(24.4266 4.73575 2.85919e-17)
(24.3195 4.56999 1.09356e-15)
(24.2337 4.40387 -5.02211e-16)
(24.1698 4.24662 1.58063e-17)
(24.1245 4.09983 -2.62608e-16)
(24.0946 3.96666 5.81681e-16)
(24.0771 3.85009 1.06884e-16)
(24.0685 3.74811 -4.55223e-16)
(24.0663 3.65856 5.16581e-16)
(24.0688 3.57995 1.05068e-16)
(24.0746 3.50969 -2.9927e-16)
(24.0832 3.44566 5.75369e-16)
(24.0942 3.38621 -4.98981e-16)
(24.1075 3.32966 8.10879e-17)
(25.1413 5.23139 -9.15949e-17)
(25.0183 5.15725 6.91353e-17)
(24.8862 5.06285 2.1276e-16)
(24.7502 4.94684 1.51094e-16)
(24.625 4.81915 4.26384e-16)
(24.5085 4.6755 -6.22551e-16)
(24.4053 4.51907 -1.664e-15)
(24.3222 4.36212 1.36542e-16)
(24.2601 4.21346 -1.23386e-16)
(24.2156 4.07464 8.64058e-16)
(24.1858 3.94873 1.01153e-15)
(24.1679 3.83858 -2.43653e-16)
(24.1585 3.74231 4.48917e-16)
(24.1552 3.65788 -4.07297e-16)
(24.1563 3.5839 -6.41541e-16)
(24.1606 3.5179 -1.88573e-16)
(24.1675 3.45786 -2.47417e-17)
(24.1766 3.40222 5.58291e-16)
(24.1878 3.34931 -7.30765e-18)
(25.1914 5.13892 5.50815e-17)
(25.074 5.0699 -1.61702e-16)
(24.9477 4.98172 -2.16033e-17)
(24.8175 4.87294 -2.49392e-16)
(24.6974 4.75291 1.84105e-16)
(24.5855 4.61759 6.39507e-16)
(24.4861 4.46995 1.30588e-15)
(24.4058 4.32164 -3.77489e-16)
(24.3454 4.18107 -6.08488e-17)
(24.3018 4.04975 -8.34405e-16)
(24.2722 3.93065 -2.55147e-16)
(24.254 3.8265 3.93255e-17)
(24.2439 3.73557 -7.56092e-16)
(24.2396 3.65591 -5.26559e-17)
(24.2396 3.58622 4.61836e-16)
(24.2425 3.52417 4.33458e-16)
(24.2479 3.46781 -3.06313e-16)
(24.2553 3.41566 -3.07317e-16)
(24.2646 3.36614 1.65982e-16)
(25.2378 5.05078 -1.2479e-17)
(25.1257 4.98657 7.41895e-17)
(25.0051 4.90421 -2.64241e-16)
(24.8805 4.80223 -7.97552e-17)
(24.7655 4.68941 2.09266e-16)
(24.658 4.56193 -4.32932e-16)
(24.5623 4.42258 -5.37031e-16)
(24.4847 4.28241 -1.20078e-16)
(24.4261 4.14945 8.30267e-16)
(24.3834 4.02519 -2.80119e-16)
(24.3541 3.91248 6.7702e-17)
(24.3357 3.81396 -5.86825e-16)
(24.325 3.72801 3.48948e-16)
(24.3199 3.6528 2.80413e-16)
(24.3188 3.58709 -2.67156e-16)
(24.3206 3.52868 2.65777e-16)
(24.3246 3.47572 1.19211e-16)
(24.3305 3.4268 -3.61325e-16)
(24.3381 3.3804 3.27887e-16)
(24.3477 3.33517 5.54261e-17)
(25.2807 4.96678 3.8088e-18)
(25.1738 4.90706 -1.36518e-17)
(25.0587 4.83017 6.57076e-17)
(24.9396 4.73459 2.01432e-16)
(24.8294 4.62855 -2.93254e-16)
(24.7262 4.50844 -4.66221e-16)
(24.6342 4.37691 9.85711e-16)
(24.5593 4.24442 1.06331e-15)
(24.5024 4.11862 2.84549e-16)
(24.4607 4.001 -2.95546e-16)
(24.4318 3.89429 3.12056e-16)
(24.4132 3.80104 6.24264e-16)
(24.402 3.71974 -6.94888e-16)
(24.3962 3.64866 2.12897e-16)
(24.3942 3.58666 7.91089e-16)
(24.395 3.53162 -5.99745e-16)
(24.3978 3.48181 -1.9353e-16)
(24.4024 3.43587 1.72313e-16)
(24.4086 3.39234 -1.27918e-16)
(24.4165 3.34992 3.1072e-16)
(25.3204 4.88674 -3.50821e-18)
(25.2185 4.83123 -3.81149e-17)
(25.1087 4.75946 2.24568e-16)
(24.9949 4.66988 5.1548e-17)
(24.8894 4.57022 3.20157e-16)
(24.7905 4.45707 -3.30781e-16)
(24.702 4.3329 -3.49484e-16)
(24.6298 4.20763 -3.36227e-16)
(24.5747 4.08859 -1.26073e-15)
(24.534 3.9772 7.64547e-16)
(24.5055 3.87612 -8.73269e-16)
(24.4868 3.78782 -5.55468e-16)
(24.4752 3.71086 3.99852e-16)
(24.4688 3.64364 -1.04714e-16)
(24.466 3.58508 -2.28206e-17)
(24.4659 3.53317 -5.13866e-17)
(24.4678 3.48627 -1.50082e-16)
(24.4712 3.44307 -2.739e-16)
(24.4761 3.4022 3.58898e-16)
(24.4826 3.36239 -3.94496e-16)
(25.3571 4.81047 -2.08317e-17)
(25.2601 4.7589 1.18053e-16)
(25.1554 4.69192 3.10523e-17)
(25.0467 4.608 -4.12084e-16)
(24.9459 4.51434 2.23917e-16)
(24.8511 4.40774 8.29133e-16)
(24.7661 4.2905 -6.15491e-16)
(24.6965 4.17205 4.96486e-16)
(24.6432 4.05935 1.78499e-15)
(24.6035 3.95384 2.93918e-17)
(24.5754 3.85805 4.71665e-16)
(24.5567 3.77437 -1.6109e-16)
(24.5449 3.70148 -2.67592e-16)
(24.5379 3.63786 -4.35044e-17)
(24.5345 3.58249 1.15707e-16)
(24.5336 3.53349 8.07667e-16)
(24.5346 3.48928 -2.30214e-17)
(24.5371 3.44862 -3.37879e-16)
(24.5409 3.4102 2.72246e-16)
(24.5461 3.3728 -1.24126e-16)
(24.5528 3.33535 6.51848e-17)
(25.391 4.73782 1.55212e-17)
(25.2987 4.68993 -7.30459e-17)
(25.199 4.62745 -7.33706e-17)
(25.0953 4.54883 5.91254e-16)
(24.9989 4.46081 -2.17002e-16)
(24.9083 4.36037 1.94904e-16)
(24.8267 4.24966 -1.19827e-16)
(24.7597 4.13763 -1.83919e-15)
(24.7081 4.03092 -1.56933e-16)
(24.6695 3.93093 6.72214e-16)
(24.6419 3.8401 4.16138e-16)
(24.6233 3.76077 -4.60277e-16)
(24.6112 3.69168 1.91157e-16)
(24.6038 3.63141 -3.21616e-17)
(24.5998 3.57902 -1.85034e-16)
(24.5982 3.53272 2.73857e-16)
(24.5985 3.491 -1.87892e-16)
(24.6001 3.4527 5.1097e-16)
(24.603 3.41655 -3.54751e-16)
(24.6071 3.38137 1.29184e-16)
(24.6126 3.34614 -7.88718e-17)
(25.4224 4.66862 -2.29294e-17)
(25.3346 4.62417 6.10537e-17)
(25.2397 4.5659 -4.30378e-17)
(25.1409 4.49227 -4.80354e-16)
(25.0489 4.40955 -4.66221e-16)
(24.9622 4.31491 -1.20042e-15)
(24.884 4.21036 1.41457e-15)
(24.8195 4.10437 6.11669e-16)
(24.7697 4.00329 3.86523e-16)
(24.7321 3.90849 -1.40617e-15)
(24.705 3.82234 -6.06621e-16)
(24.6865 3.74707 -5.88712e-16)
(24.6743 3.68154 3.05804e-16)
(24.6666 3.62441 -1.32888e-16)
(24.6621 3.5748 -1.73833e-16)
(24.66 3.531 1.90232e-16)
(24.6596 3.4916 -4.24952e-16)
(24.6605 3.45548 1.13101e-16)
(24.6626 3.42142 -1.53477e-16)
(24.6658 3.38831 -1.49957e-16)
(24.6702 3.35515 3.12128e-16)
(25.4514 4.60272 -2.22533e-17)
(25.368 4.5615 8.48416e-17)
(25.2777 4.50717 7.41686e-17)
(25.1836 4.43821 2.19329e-16)
(25.0959 4.36048 7.29111e-16)
(25.013 4.27131 6.73091e-16)
(24.9381 4.17255 -2.56789e-16)
(24.8762 4.07225 2.91797e-16)
(24.8281 3.97647 -4.17838e-16)
(24.7916 3.88656 1.07262e-16)
(24.7651 3.8048 8.9647e-16)
(24.7467 3.73335 5.86754e-16)
(24.7344 3.67115 -1.30202e-16)
(24.7265 3.61696 -3.4431e-16)
(24.7216 3.56993 -4.5054e-17)
(24.719 3.52847 1.79797e-16)
(24.7181 3.49122 -2.6026e-16)
(24.7184 3.45712 2.83567e-17)
(24.7198 3.42501 -2.07256e-16)
(24.7222 3.39382 -6.96219e-17)
(24.7257 3.36258 8.83269e-17)
(25.4781 4.53999 -1.60154e-17)
(25.399 4.50177 3.30423e-18)
(25.3133 4.45113 -8.11831e-17)
(25.2237 4.38656 -3.51924e-17)
(25.1401 4.31352 -1.95247e-16)
(25.0611 4.22949 4.02731e-16)
(24.9894 4.13618 -1.03895e-15)
(24.9299 4.04124 8.68176e-16)
(24.8835 3.95047 2.13726e-16)
(24.8481 3.86515 -5.96036e-16)
(24.8222 3.78751 7.04869e-16)
(24.8041 3.71965 -3.5276e-16)
(24.7918 3.66058 1.26954e-16)
(24.7836 3.60913 3.56546e-16)
(24.7785 3.56453 1.26903e-16)
(24.7755 3.52524 -8.3815e-17)
(24.7741 3.48999 3.30513e-16)
(24.7739 3.45777 -4.63463e-16)
(24.7747 3.42747 2.81933e-16)
(24.7765 3.39806 -1.53277e-17)
(24.7792 3.3686 2.14675e-16)
(24.7831 3.33813 -2.23827e-16)
(25.5028 4.48029 -1.14876e-17)
(25.4278 4.44488 5.0734e-17)
(25.3465 4.39768 3.39556e-17)
(25.2614 4.33724 1.28367e-16)
(25.1818 4.26861 -1.93606e-16)
(25.1065 4.18941 -6.42011e-16)
(25.038 4.10123 8.4752e-16)
(24.9809 4.01134 -4.45478e-16)
(24.9362 3.92527 -4.71869e-16)
(24.9018 3.84428 1.26656e-15)
(24.8765 3.77052 -1.08579e-15)
(24.8588 3.70604 -2.0986e-16)
(24.8465 3.6499 6.82323e-16)
(24.8382 3.60102 -7.63516e-16)
(24.8329 3.55868 1.657e-16)
(24.8296 3.52143 -2.5965e-16)
(24.8278 3.48804 5.65929e-17)
(24.8272 3.45757 7.67217e-17)
(24.8275 3.42895 -4.39794e-17)
(24.8287 3.40119 -1.53252e-16)
(24.8308 3.37339 -8.80544e-18)
(24.834 3.34462 2.72923e-16)
(25.5256 4.42348 3.42213e-17)
(25.4546 4.39069 -3.031e-17)
(25.3776 4.34673 8.21685e-17)
(25.2968 4.29015 1.4118e-16)
(25.2211 4.22566 9.02422e-17)
(25.1494 4.15101 8.94253e-16)
(25.084 4.06766 -1.20438e-16)
(25.0293 3.98253 -3.04092e-16)
(24.9862 3.90088 4.69095e-16)
(24.953 3.82396 -1.70988e-15)
(24.9283 3.75386 9.10131e-16)
(24.9109 3.69255 5.62175e-16)
(24.8987 3.63917 -1.08044e-16)
(24.8904 3.59271 7.36668e-16)
(24.8849 3.55248 -6.75933e-16)
(24.8814 3.51713 4.03079e-16)
(24.8794 3.48548 4.97207e-16)
(24.8784 3.45664 -4.10457e-16)
(24.8783 3.42959 -3.5859e-17)
(24.879 3.40337 -9.28531e-17)
(24.8806 3.37712 1.68494e-16)
(24.8831 3.34994 -7.54478e-17)
(25.5466 4.36944 3.44572e-17)
(25.4795 4.3391 -2.51847e-17)
(25.4066 4.29816 -5.64917e-17)
(25.33 4.24521 -3.2796e-16)
(25.2582 4.18461 3.30954e-17)
(25.19 4.11423 -7.14355e-16)
(25.1276 4.03544 -7.46339e-16)
(25.0752 3.95478 -3.74392e-16)
(25.0337 3.8773 -7.35839e-16)
(25.0016 3.80422 -1.11604e-17)
(24.9777 3.73756 -3.95664e-16)
(24.9606 3.67923 -3.38162e-16)
(24.9487 3.62845 -1.00687e-16)
(24.9404 3.58425 -4.90514e-16)
(24.9348 3.54601 4.18449e-17)
(24.9311 3.51244 1.39501e-16)
(24.9288 3.48242 -3.22749e-16)
(24.9276 3.4551 -1.03942e-16)
(24.9271 3.4295 3.46789e-16)
(24.9275 3.40472 -1.06521e-16)
(24.9286 3.37992 1.96002e-16)
(24.9305 3.35423 7.44393e-17)
(25.566 4.31806 -1.71845e-17)
(25.5026 4.29001 -3.61613e-18)
(25.4338 4.25188 -7.70335e-17)
(25.3612 4.20234 -2.05928e-16)
(25.2932 4.14539 -2.41572e-16)
(25.2284 4.07904 9.05928e-17)
(25.1689 4.00452 6.85286e-16)
(25.1188 3.92809 1.71418e-15)
(25.0789 3.85453 -7.14319e-16)
(25.048 3.78506 -4.15223e-17)
(25.0248 3.72164 2.45017e-16)
(25.0082 3.66613 -4.29984e-17)
(24.9964 3.61778 -6.91524e-17)
(24.9882 3.57572 -4.28435e-16)
(24.9825 3.53934 -2.77333e-16)
(24.9787 3.50743 4.94643e-16)
(24.9762 3.47894 -1.42624e-16)
(24.9748 3.45304 -4.65106e-17)
(24.9741 3.4288 1.28026e-18)
(24.9741 3.40536 -2.70194e-18)
(24.9748 3.38191 -7.99036e-17)
(24.9762 3.3576 -3.00731e-16)
(24.9785 3.33142 8.63859e-17)
(25.5838 4.26921 -1.57166e-17)
(25.5241 4.2433 5.9338e-17)
(25.4592 4.20781 1.91783e-16)
(25.3906 4.16146 1.13992e-16)
(25.3262 4.10795 -1.96777e-16)
(25.2648 4.04538 -4.2186e-16)
(25.2082 3.97488 3.7254e-16)
(25.1602 3.90242 -1.20537e-15)
(25.122 3.83257 1.94677e-15)
(25.0922 3.7665 5.06324e-16)
(25.0698 3.70614 -6.0479e-16)
(25.0536 3.65327 1.37992e-16)
(25.0421 3.60722 9.46384e-16)
(25.034 3.56716 -6.72265e-16)
(25.0283 3.53254 2.06521e-17)
(25.0244 3.50219 1.61666e-16)
(25.0217 3.47512 2.18138e-16)
(25.0201 3.45054 -2.3462e-17)
(25.0192 3.42757 -3.32242e-16)
(25.0189 3.40538 5.0978e-16)
(25.0192 3.3832 -3.98545e-16)
(25.0202 3.36019 3.18731e-16)
(25.022 3.33537 4.16622e-18)
(25.6002 4.2228 -4.04439e-17)
(25.5441 4.19889 9.48909e-17)
(25.483 4.16585 -5.74334e-18)
(25.4183 4.12251 -8.51252e-17)
(25.3574 4.07223 -5.16809e-17)
(25.2993 4.0132 8.51157e-16)
(25.2454 3.94649 -2.30859e-16)
(25.1996 3.87778 5.78748e-16)
(25.163 3.81141 -1.99293e-15)
(25.1343 3.74854 -3.9463e-16)
(25.1127 3.69106 8.99607e-16)
(25.0971 3.64069 5.50526e-17)
(25.0858 3.5968 -1.79961e-16)
(25.0778 3.55863 -7.42463e-16)
(25.0721 3.52565 8.2643e-16)
(25.0681 3.49676 -2.62981e-17)
(25.0653 3.47102 -2.95214e-16)
(25.0635 3.44768 -2.9684e-17)
(25.0623 3.4259 7.13213e-17)
(25.0618 3.40487 -9.52209e-17)
(25.0618 3.38387 3.2504e-16)
(25.0624 3.36208 -4.0619e-16)
(25.0638 3.33854 2.21776e-16)
(25.6153 4.17872 -5.31631e-18)
(25.5626 4.15667 7.83832e-18)
(25.5053 4.12593 -1.08629e-16)
(25.4443 4.0854 -2.42722e-16)
(25.387 4.03816 2.34261e-16)
(25.3321 3.98247 -1.07472e-15)
(25.2808 3.91931 5.32185e-16)
(25.2371 3.85414 -4.57977e-17)
(25.2021 3.79104 4.83892e-16)
(25.1746 3.7312 -1.50772e-16)
(25.1538 3.67642 5.94545e-16)
(25.1386 3.62841 -2.78096e-16)
(25.1276 3.58656 4.1243e-16)
(25.1196 3.55015 7.9449e-17)
(25.1139 3.51871 3.48977e-16)
(25.1099 3.49119 -2.33162e-16)
(25.107 3.46669 -2.54903e-16)
(25.1049 3.44451 1.97764e-16)
(25.1036 3.42383 -1.76758e-16)
(25.1029 3.4039 1.12644e-16)
(25.1026 3.38399 -1.51581e-16)
(25.1029 3.36335 3.29286e-16)
(25.1039 3.34102 -1.72927e-16)
(25.6293 4.13687 -5.40177e-18)
(25.5799 4.11656 1.19688e-17)
(25.5261 4.08796 -1.26018e-16)
(25.4688 4.05009 5.30553e-16)
(25.4149 4.00568 -1.9327e-16)
(25.3631 3.95313 1.13571e-15)
(25.3144 3.89332 7.24321e-16)
(25.2727 3.8315 1.23392e-16)
(25.2394 3.77147 9.87956e-16)
(25.2131 3.71446 3.20861e-17)
(25.1931 3.66224 -8.28598e-16)
(25.1783 3.61643 -6.49326e-16)
(25.1675 3.57649 -4.08391e-16)
(25.1595 3.54174 4.8041e-16)
(25.1538 3.51174 -1.8746e-17)
(25.1496 3.4855 4.90763e-16)
(25.1466 3.46217 -4.6984e-16)
(25.1445 3.44108 6.14948e-18)
(25.143 3.42144 -8.90468e-17)
(25.142 3.40253 -1.40788e-16)
(25.1415 3.38365 6.08058e-18)
(25.1416 3.36408 -9.29812e-17)
(25.1422 3.3429 1.13394e-16)
(25.642 4.09716 4.24297e-17)
(25.5959 4.07846 -7.05365e-17)
(25.5457 4.05187 2.84383e-16)
(25.492 4.01649 -5.37459e-16)
(25.4414 3.97476 1.95421e-16)
(25.3926 3.92515 -1.33628e-15)
(25.3463 3.86849 -6.56546e-16)
(25.3067 3.80983 5.00385e-16)
(25.275 3.75268 -1.08552e-15)
(25.2499 3.69833 4.49901e-16)
(25.2305 3.64851 8.04133e-17)
(25.2161 3.60478 4.99927e-17)
(25.2054 3.56663 -2.35326e-16)
(25.1975 3.53343 -2.65277e-16)
(25.1917 3.50478 8.34836e-17)
(25.1875 3.47975 3.49098e-16)
(25.1844 3.45751 -2.99429e-16)
(25.1821 3.43743 3.98831e-16)
(25.1805 3.41877 -1.62192e-16)
(25.1793 3.40081 9.8404e-17)
(25.1787 3.38291 -2.41028e-16)
(25.1784 3.36435 2.96853e-16)
(25.1788 3.34424 -5.0108e-17)
(25.1798 3.32209 -1.49554e-16)
(25.6538 4.05948 -2.3642e-17)
(25.6109 4.0423 4.08138e-17)
(25.5641 4.01758 -4.25553e-17)
(25.5138 3.98456 -1.82345e-16)
(25.4665 3.94532 -4.06084e-17)
(25.4206 3.89848 8.39316e-16)
(25.3767 3.8448 3.51982e-16)
(25.3392 3.78913 -1.27808e-15)
(25.3091 3.73466 -5.88132e-16)
(25.285 3.68279 3.6873e-16)
(25.2662 3.63523 -5.24951e-16)
(25.252 3.59345 8.31926e-16)
(25.2414 3.55697 1.20882e-16)
(25.2335 3.52522 1.02985e-16)
(25.2277 3.49785 -1.33231e-17)
(25.2234 3.47395 7.37078e-17)
(25.2202 3.45275 -7.13342e-16)
(25.2179 3.43362 2.05242e-16)
(25.2161 3.41588 7.99472e-17)
(25.2149 3.39882 8.85817e-17)
(25.2141 3.38184 -1.74534e-16)
(25.2137 3.36422 1.85055e-16)
(25.2138 3.34514 6.57287e-17)
(25.2145 3.32409 -5.7158e-17)
(25.6646 4.02377 -1.16201e-17)
(25.6248 4.008 -2.83317e-17)
(25.5813 3.98502 1.07642e-16)
(25.5344 3.95423 1.66186e-16)
(25.4903 3.91733 2.93802e-16)
(25.4472 3.8731 7.50897e-17)
(25.4055 3.82223 5.0493e-17)
(25.3702 3.7694 2.82558e-16)
(25.3417 3.71738 1.64227e-15)
(25.3184 3.66782 8.19224e-17)
(25.3 3.62239 6.72628e-16)
(25.286 3.58242 -7.04774e-16)
(25.2756 3.54752 -1.33517e-16)
(25.2677 3.51715 1.1525e-16)
(25.2619 3.49098 -3.6604e-17)
(25.2576 3.46815 1.43395e-16)
(25.2544 3.44793 -6.59471e-17)
(25.252 3.42971 4.58925e-16)
(25.2501 3.41283 -4.88647e-16)
(25.2488 3.39663 3.07837e-16)
(25.2479 3.3805 -4.96237e-16)
(25.2473 3.36379 3.28019e-16)
(25.2472 3.34567 -2.52428e-16)
(25.2477 3.32565 -9.43071e-17)
(25.6745 3.98992 2.05948e-17)
(25.6377 3.97548 -1.02161e-17)
(25.5975 3.95413 -2.6476e-16)
(25.5539 3.92545 1.35803e-16)
(25.513 3.89073 -5.64918e-16)
(25.4724 3.84898 1.66142e-16)
(25.433 3.80076 -1.54664e-17)
(25.3999 3.75061 1.23657e-15)
(25.3728 3.70082 -1.97974e-15)
(25.3502 3.65341 3.65037e-16)
(25.332 3.60997 -7.00513e-16)
(25.3182 3.57173 5.353e-16)
(25.3079 3.5383 -2.59899e-16)
(25.3001 3.50924 -2.57708e-16)
(25.2944 3.48421 1.51591e-16)
(25.2901 3.4624 -2.37384e-17)
(25.2869 3.4431 -1.11849e-18)
(25.2844 3.42574 1.47446e-17)
(25.2826 3.40967 3.11126e-16)
(25.2811 3.39427 -2.23339e-19)
(25.2801 3.37895 -2.87772e-17)
(25.2794 3.36307 -1.79844e-16)
(25.2791 3.34586 2.35439e-17)
(25.2793 3.32683 3.4155e-17)
(25.6836 3.95787 -4.69294e-17)
(25.6497 3.94466 -3.44953e-17)
(25.6127 3.92484 2.82231e-17)
(25.5723 3.89815 -4.74142e-16)
(25.5344 3.86547 3.44581e-16)
(25.4964 3.82606 -5.48774e-16)
(25.4592 3.78035 -7.27615e-16)
(25.4284 3.73277 -7.8304e-16)
(25.4025 3.68496 1.11013e-15)
(25.3802 3.63955 -9.31725e-16)
(25.3623 3.59801 5.42374e-16)
(25.3488 3.56139 3.49982e-16)
(25.3386 3.52936 -3.96465e-17)
(25.331 3.50153 1.62575e-16)
(25.3253 3.47758 -4.06444e-19)
(25.321 3.45673 2.12935e-16)
(25.3178 3.43829 -1.18039e-17)
(25.3153 3.42173 -3.22774e-16)
(25.3134 3.40641 -4.72886e-17)
(25.3118 3.39175 8.53948e-17)
(25.3107 3.37719 -6.40624e-17)
(25.3098 3.3621 -5.42331e-18)
(25.3093 3.34573 5.62352e-17)
(25.3093 3.32763 4.56316e-17)
(25.6919 3.92751 2.40151e-17)
(25.6609 3.91545 -2.61645e-17)
(25.627 3.89707 6.25048e-17)
(25.5897 3.87228 5.4368e-16)
(25.5548 3.84149 8.07836e-16)
(25.5191 3.80433 1.86606e-16)
(25.4841 3.76096 4.0295e-16)
(25.4556 3.71588 -2.00761e-16)
(25.4306 3.66975 9.39229e-16)
(25.4086 3.62622 -8.57609e-16)
(25.3909 3.58651 1.82328e-16)
(25.3777 3.55142 -1.00855e-16)
(25.3678 3.52071 -1.85617e-16)
(25.3603 3.49404 -1.57806e-16)
(25.3546 3.4711 -2.015e-16)
(25.3503 3.45113 1.43333e-16)
(25.347 3.43349 -1.08059e-16)
(25.3444 3.41767 -3.20664e-17)
(25.3424 3.40306 -8.78846e-17)
(25.3408 3.38909 2.56276e-16)
(25.3395 3.37523 2.15487e-16)
(25.3384 3.36087 -2.0644e-17)
(25.3377 3.34529 -5.71348e-17)
(25.3375 3.32806 -1.18481e-16)
(25.6995 3.89877 -2.44803e-18)
(25.6714 3.88778 -7.41865e-17)
(25.6404 3.87076 1.30951e-16)
(25.6062 3.84779 -3.88121e-16)
(25.5743 3.81877 -9.69516e-16)