/*--------------------------------*- C++ -*----------------------------------*\
| =========                 |                                                 |
| \\      /  F ield         | OpenFOAM: The Open Source CFD Toolbox           |
|  \\    /   O peration     | Version:  2306                                  |
|   \\  /    A nd           | Website:  www.openfoam.com                      |
|    \\/     M anipulation  |                                                 |
\*---------------------------------------------------------------------------*/
FoamFile
{
    version     2.0;
    format      ascii;
    arch        "LSB;label=32;scalar=64";
    class       volVectorField;
    location    "750";
    object      momentError;
}
// * * * * * * * * * * * * * * * * * * * * * * * * * * * * * * * * * * * * * //

dimensions      [0 1 -2 0 0 0 0];

internalField   nonuniform List<vector> 
1340
(
(1.54859e-05 -8.264e-05 -2.94633e-15)
(2.14144e-05 -7.79056e-05 -2.40514e-14)
(2.8147e-05 -7.44275e-05 1.5062e-14)
(3.34901e-05 -6.74507e-05 4.42746e-14)
(3.67911e-05 -5.67092e-05 1.44969e-14)
(1.49422e-05 -7.80244e-05 -6.00336e-15)
(1.89117e-05 -7.28963e-05 9.69785e-15)
(2.38472e-05 -6.96253e-05 2.3808e-14)
(2.83079e-05 -6.20445e-05 -3.8165e-14)
(3.45115e-05 -5.22109e-05 -2.82787e-14)
(3.5817e-05 -4.3455e-05 -1.81813e-14)
(1.28928e-05 -7.39446e-05 2.60356e-15)
(1.66362e-05 -6.91786e-05 5.17368e-15)
(2.0884e-05 -6.47829e-05 -1.37213e-14)
(2.56346e-05 -5.69838e-05 1.79636e-14)
(3.01912e-05 -4.85625e-05 3.21909e-14)
(3.33304e-05 -4.11492e-05 1.62801e-15)
(3.49565e-05 -3.69517e-05 1.13893e-14)
(1.0305e-05 -6.99422e-05 -1.68984e-15)
(1.44234e-05 -6.4882e-05 -7.01588e-15)
(1.87213e-05 -5.99605e-05 3.88151e-15)
(2.30774e-05 -5.26537e-05 1.96277e-16)
(2.7131e-05 -4.5178e-05 -2.05691e-14)
(3.01221e-05 -3.91605e-05 1.6472e-14)
(3.31445e-05 -3.57769e-05 -4.4762e-14)
(3.57776e-05 -3.36965e-05 6.26817e-15)
(8.41866e-06 -6.55636e-05 -1.88598e-15)
(1.27073e-05 -6.06785e-05 4.62988e-15)
(1.68896e-05 -5.55652e-05 4.25689e-15)
(2.08655e-05 -4.86242e-05 -1.87499e-14)
(2.46053e-05 -4.20568e-05 -5.85233e-14)
(2.77479e-05 -3.71575e-05 3.6602e-14)
(3.08657e-05 -3.43235e-05 -7.66482e-14)
(3.4392e-05 -3.2466e-05 2.58947e-14)
(3.65138e-05 -3.04911e-05 1.37784e-13)
(6.68991e-06 -6.11899e-05 8.91987e-16)
(1.12202e-05 -5.64905e-05 3.925e-16)
(1.52506e-05 -5.14275e-05 -1.03354e-14)
(1.89126e-05 -4.50618e-05 -7.6202e-15)
(2.23851e-05 -3.91414e-05 3.0147e-15)
(2.56396e-05 -3.51873e-05 1.70371e-14)
(2.89304e-05 -3.3002e-05 9.70807e-16)
(3.21521e-05 -3.14594e-05 -7.22267e-14)
(3.50556e-05 -2.97637e-05 6.9689e-14)
(3.74296e-05 -2.85803e-05 2.73527e-14)
(5.37449e-06 -5.68723e-05 1.09052e-15)
(9.88592e-06 -5.24758e-05 -4.00262e-15)
(1.37656e-05 -4.77049e-05 1.48912e-15)
(1.71931e-05 -4.1766e-05 1.98392e-14)
(2.05278e-05 -3.6646e-05 4.59637e-14)
(2.3747e-05 -3.34216e-05 -7.60329e-14)
(2.71258e-05 -3.17032e-05 6.16776e-14)
(3.04195e-05 -3.04315e-05 -3.67909e-14)
(3.32583e-05 -2.90305e-05 -6.93629e-14)
(3.61397e-05 -2.76625e-05 8.47618e-15)
(4.28695e-06 -5.28046e-05 -1.83211e-15)
(8.69953e-06 -4.87246e-05 -1.54217e-16)
(1.24046e-05 -4.42195e-05 1.43562e-16)
(1.57172e-05 -3.88707e-05 1.59692e-14)
(1.88604e-05 -3.42338e-05 1.12726e-15)
(2.19932e-05 -3.16308e-05 3.17712e-14)
(2.54433e-05 -3.0409e-05 -1.61859e-14)
(2.88343e-05 -2.92946e-05 -4.8239e-14)
(3.1859e-05 -2.79067e-05 -3.13535e-14)
(3.4718e-05 -2.63716e-05 -6.74603e-14)
(3.77572e-05 -2.44652e-05 -1.83897e-14)
(3.38551e-06 -4.89419e-05 -2.13502e-17)
(7.62586e-06 -4.51905e-05 -6.79616e-15)
(1.11878e-05 -4.10229e-05 2.95975e-15)
(1.43519e-05 -3.61137e-05 9.02562e-15)
(1.7354e-05 -3.20359e-05 -1.16838e-14)
(2.0402e-05 -2.98931e-05 -1.19101e-14)
(2.38994e-05 -2.90671e-05 -1.99068e-14)
(2.73839e-05 -2.80177e-05 -1.52709e-14)
(3.0513e-05 -2.66231e-05 3.16776e-14)
(3.34238e-05 -2.49672e-05 8.43417e-14)
(3.64698e-05 -2.31426e-05 -4.37669e-14)
(2.60427e-06 -4.53458e-05 -8.35024e-16)
(6.66496e-06 -4.18564e-05 6.4067e-16)
(1.00328e-05 -3.79885e-05 -4.73707e-16)
(1.30675e-05 -3.3617e-05 -1.32262e-14)
(1.59814e-05 -2.99948e-05 9.08456e-15)
(1.90209e-05 -2.83015e-05 -6.57052e-15)
(2.24742e-05 -2.76562e-05 -1.3573e-15)
(2.60452e-05 -2.66627e-05 7.3051e-14)
(2.92179e-05 -2.52692e-05 7.48732e-15)
(3.21229e-05 -2.34794e-05 5.97146e-14)
(3.49864e-05 -2.16401e-05 6.86914e-14)
(3.75684e-05 -1.93598e-05 -3.41276e-14)
(1.93213e-06 -4.19116e-05 1.35946e-16)
(5.76795e-06 -3.87022e-05 -5.88247e-15)
(8.94432e-06 -3.5174e-05 -8.24495e-15)
(1.1832e-05 -3.11815e-05 -9.69127e-15)
(1.47257e-05 -2.81336e-05 1.21007e-14)
(1.7733e-05 -2.67515e-05 5.11904e-14)
(2.11625e-05 -2.62074e-05 -4.15827e-15)
(2.47158e-05 -2.52608e-05 2.46247e-14)
(2.79273e-05 -2.38344e-05 -1.82139e-15)
(3.08007e-05 -2.20832e-05 -7.13094e-14)
(3.35232e-05 -2.00839e-05 -3.71784e-14)
(3.58801e-05 -1.78254e-05 5.53494e-14)
(1.32811e-06 -3.86864e-05 -2.9288e-18)
(4.93762e-06 -3.57193e-05 2.65651e-15)
(7.93113e-06 -3.24811e-05 8.6142e-15)
(1.06976e-05 -2.89476e-05 3.30168e-15)
(1.35173e-05 -2.62943e-05 1.10844e-15)
(1.65242e-05 -2.52351e-05 -6.98711e-15)
(1.98983e-05 -2.4744e-05 7.87781e-14)
(2.34202e-05 -2.38516e-05 -2.69605e-16)
(2.66349e-05 -2.24728e-05 -9.57918e-14)
(2.9367e-05 -2.0694e-05 -2.17966e-14)
(3.20363e-05 -1.87004e-05 1.28178e-14)
(3.45563e-05 -1.65251e-05 1.59154e-14)
(7.74679e-07 -3.55906e-05 6.75386e-16)
(4.20256e-06 -3.28813e-05 5.40483e-15)
(7.03665e-06 -2.99445e-05 -3.12701e-15)
(9.65282e-06 -2.67695e-05 2.60642e-14)
(1.24293e-05 -2.45863e-05 2.40105e-14)
(1.53683e-05 -2.3717e-05 -3.57927e-16)
(1.8702e-05 -2.32894e-05 2.13581e-14)
(2.21402e-05 -2.24419e-05 -3.76687e-14)
(2.531e-05 -2.11288e-05 -2.424e-14)
(2.80005e-05 -1.94259e-05 -7.96646e-14)
(3.03887e-05 -1.7418e-05 5.24293e-14)
(3.30619e-05 -1.54895e-05 8.19225e-14)
(3.48628e-05 -1.36914e-05 -1.46923e-14)
(3.5385e-07 -3.26758e-05 7.43476e-16)
(3.55709e-06 -3.01651e-05 1.95198e-16)
(6.23403e-06 -2.7556e-05 -8.64714e-15)
(8.72351e-06 -2.47693e-05 4.01747e-15)
(1.13936e-05 -2.28834e-05 -4.69714e-15)
(1.43073e-05 -2.22444e-05 -4.99209e-15)
(1.75273e-05 -2.18569e-05 -6.91306e-14)
(2.09176e-05 -2.10703e-05 4.70088e-14)
(2.40142e-05 -1.98428e-05 1.99787e-14)
(2.66001e-05 -1.81564e-05 1.40361e-14)
(2.89296e-05 -1.62716e-05 -5.60437e-14)
(3.13389e-05 -1.45925e-05 1.66222e-15)
(3.37188e-05 -1.28089e-05 -3.75741e-14)
(-1.80018e-08 -2.98895e-05 6.51533e-16)
(3.01625e-06 -2.76769e-05 -2.03543e-15)
(5.51504e-06 -2.5316e-05 4.32485e-15)
(7.87724e-06 -2.28406e-05 -1.13355e-14)
(1.04716e-05 -2.13359e-05 -3.33733e-14)
(1.32807e-05 -2.08289e-05 1.78999e-16)
(1.64141e-05 -2.04865e-05 -1.03306e-15)
(1.96926e-05 -1.97361e-05 -8.29337e-15)
(2.27364e-05 -1.85759e-05 4.82687e-14)
(2.528e-05 -1.69863e-05 -1.92334e-14)
(2.74948e-05 -1.51591e-05 -5.63805e-15)
(2.98219e-05 -1.35736e-05 -6.53731e-15)
(3.21852e-05 -1.21351e-05 1.03534e-14)
(3.37119e-05 -1.06566e-05 -2.14129e-14)
(-2.64723e-07 -2.73531e-05 -1.48565e-15)
(2.56258e-06 -2.53081e-05 -9.95935e-16)
(4.9182e-06 -2.32624e-05 9.86353e-15)
(7.1541e-06 -2.11179e-05 -1.18474e-14)
(9.60514e-06 -1.9844e-05 5.62813e-15)
(1.23251e-05 -1.94998e-05 -1.9536e-14)
(1.53319e-05 -1.91658e-05 -8.867e-16)
(1.85223e-05 -1.8473e-05 -2.0636e-14)
(2.14983e-05 -1.73661e-05 2.14846e-14)
(2.39556e-05 -1.5802e-05 -2.17531e-14)
(2.61362e-05 -1.40801e-05 3.30864e-15)
(2.84365e-05 -1.26158e-05 2.67129e-15)
(3.0741e-05 -1.13412e-05 3.21687e-14)
(3.23563e-05 -9.91094e-06 1.18401e-14)
(-5.30003e-07 -2.49729e-05 3.20194e-18)
(2.29534e-06 -2.32101e-05 8.88267e-16)
(4.50385e-06 -2.1356e-05 1.49099e-15)
(6.57148e-06 -1.95256e-05 2.17035e-15)
(8.86116e-06 -1.85294e-05 3.04072e-14)
(1.14178e-05 -1.82289e-05 4.25919e-15)
(1.43266e-05 -1.79186e-05 -7.87778e-15)
(1.73793e-05 -1.72449e-05 5.93904e-15)
(2.02928e-05 -1.61744e-05 5.06648e-15)
(2.27175e-05 -1.46883e-05 5.36575e-14)
(2.48129e-05 -1.30227e-05 2.03839e-14)
(2.70714e-05 -1.16613e-05 5.3512e-15)
(2.93801e-05 -1.04895e-05 -5.20654e-14)
(3.14147e-05 -9.33947e-06 1.94324e-14)
(-4.59603e-07 -2.27906e-05 -4.67903e-16)
(2.18006e-06 -2.10752e-05 -2.6764e-15)
(4.22412e-06 -1.96798e-05 -6.08243e-15)
(6.07767e-06 -1.81002e-05 -2.6357e-15)
(8.15404e-06 -1.72226e-05 -1.28188e-14)
(1.05896e-05 -1.70468e-05 -1.37146e-15)
(1.33476e-05 -1.67253e-05 5.60484e-14)
(1.63124e-05 -1.60791e-05 1.36717e-14)
(1.91186e-05 -1.50512e-05 -4.42823e-14)
(2.14719e-05 -1.3593e-05 -9.69052e-15)
(2.35492e-05 -1.20316e-05 2.51641e-15)
(2.57821e-05 -1.07408e-05 2.42052e-14)
(2.81359e-05 -9.64978e-06 -1.49937e-14)
(3.01186e-05 -8.61999e-06 -2.8023e-14)
(3.12363e-05 -7.40579e-06 5.06815e-14)
(-3.49229e-07 -2.05378e-05 -1.12892e-15)
(1.99265e-06 -1.93862e-05 -9.00991e-16)
(3.9196e-06 -1.81653e-05 -9.09079e-16)
(5.59145e-06 -1.68422e-05 -9.40771e-16)
(7.51899e-06 -1.61108e-05 2.17957e-14)
(9.79139e-06 -1.59217e-05 5.71167e-16)
(1.24299e-05 -1.56115e-05 -4.3318e-15)
(1.5254e-05 -1.49726e-05 9.40468e-15)
(1.79752e-05 -1.39862e-05 3.3829e-14)
(2.02753e-05 -1.26074e-05 -6.37703e-14)
(2.22834e-05 -1.10871e-05 -3.18603e-14)
(2.44757e-05 -9.83558e-06 -4.83826e-15)
(2.68495e-05 -8.82333e-06 3.59982e-14)
(2.90154e-05 -7.73279e-06 -1.80581e-14)
(2.99544e-05 -6.62276e-06 -3.06466e-14)
(-4.5407e-07 -1.86843e-05 8.4754e-17)
(1.7454e-06 -1.76433e-05 -7.48365e-16)
(3.41932e-06 -1.68113e-05 1.30914e-15)
(5.04968e-06 -1.57425e-05 1.80216e-15)
(6.88687e-06 -1.50377e-05 1.88227e-14)
(9.05059e-06 -1.48685e-05 -1.96806e-14)
(1.15428e-05 -1.45365e-05 -4.71374e-16)
(1.42549e-05 -1.39401e-05 -2.16026e-14)
(1.68608e-05 -1.29937e-05 -1.67599e-14)
(1.90745e-05 -1.16556e-05 4.87658e-14)
(2.10434e-05 -1.02242e-05 -2.77047e-14)
(2.32187e-05 -9.01614e-06 -1.96939e-14)
(2.54867e-05 -7.9663e-06 -1.74454e-14)
(2.77601e-05 -6.96275e-06 3.33003e-14)
(2.90806e-05 -5.64835e-06 2.0832e-14)
(-3.99604e-07 -1.7029e-05 5.88364e-17)
(1.33063e-06 -1.62888e-05 1.97647e-15)
(2.84309e-06 -1.5589e-05 -6.521e-15)
(4.47029e-06 -1.46037e-05 6.43427e-16)
(6.2908e-06 -1.4026e-05 -2.99634e-14)
(8.34086e-06 -1.38299e-05 2.1245e-15)
(1.07252e-05 -1.3518e-05 4.3626e-15)
(1.32865e-05 -1.29392e-05 -4.52173e-14)
(1.57986e-05 -1.20381e-05 1.12631e-14)
(1.79371e-05 -1.0797e-05 -3.2637e-15)
(1.98211e-05 -9.39521e-06 2.7207e-14)
(2.18871e-05 -8.22696e-06 1.78668e-15)
(2.42064e-05 -7.23048e-06 -2.22547e-14)
(2.6242e-05 -6.30612e-06 -2.44088e-14)
(2.79659e-05 -4.74025e-06 4.36174e-15)
(2.73598e-05 -3.10323e-06 1.88335e-14)
(-6.65797e-07 -1.56729e-05 8.39049e-16)
(9.61202e-07 -1.50122e-05 2.46942e-15)
(2.38089e-06 -1.43568e-05 -2.30108e-16)
(3.95455e-06 -1.35119e-05 5.88941e-16)
(5.71187e-06 -1.29917e-05 2.66556e-15)
(7.69081e-06 -1.28324e-05 -1.57627e-14)
(9.93035e-06 -1.25229e-05 1.26622e-14)
(1.23883e-05 -1.19877e-05 1.80457e-14)
(1.47698e-05 -1.11493e-05 -1.17166e-14)
(1.68167e-05 -9.95186e-06 -8.22143e-15)
(1.86448e-05 -8.64712e-06 3.96664e-15)
(2.06531e-05 -7.53701e-06 3.39793e-14)
(2.28674e-05 -6.60273e-06 4.41728e-14)
(2.47324e-05 -5.49004e-06 1.62148e-15)
(2.62016e-05 -4.17564e-06 -1.31126e-14)
(2.64308e-05 -1.99005e-06 -2.77166e-14)
(6.73777e-07 -1.37514e-05 2.84935e-16)
(2.01371e-06 -1.32162e-05 -5.08301e-16)
(3.50184e-06 -1.24293e-05 1.16298e-14)
(5.19318e-06 -1.20157e-05 8.99026e-15)
(7.06216e-06 -1.18525e-05 8.00102e-15)
(9.19278e-06 -1.15786e-05 -6.02783e-15)
(1.15069e-05 -1.1072e-05 4.16233e-14)
(1.37839e-05 -1.02979e-05 -2.36067e-14)
(1.57531e-05 -9.19353e-06 -1.21361e-14)
(1.74906e-05 -7.93993e-06 -4.08795e-14)
(1.93963e-05 -6.87733e-06 -2.24313e-14)
(2.14957e-05 -5.99368e-06 -3.22564e-14)
(2.34073e-05 -4.91016e-06 6.94248e-15)
(2.43796e-05 -3.52275e-06 9.86537e-15)
(2.49724e-05 -1.62412e-06 9.82801e-15)
(2.4426e-05 -4.29141e-07 -5.91455e-15)
(4.40823e-07 -1.27256e-05 3.1751e-15)
(1.70776e-06 -1.21033e-05 2.14073e-16)
(3.11926e-06 -1.14296e-05 -9.77585e-15)
(4.71311e-06 -1.10505e-05 -8.04316e-15)
(6.48837e-06 -1.09281e-05 4.80379e-15)
(8.48703e-06 -1.06592e-05 1.22906e-14)
(1.06866e-05 -1.02095e-05 -1.01235e-14)
(1.28405e-05 -9.49042e-06 1.79636e-14)
(1.471e-05 -8.44424e-06 1.86491e-15)
(1.63932e-05 -7.28122e-06 -8.6236e-15)
(1.82481e-05 -6.29964e-06 2.38592e-15)
(2.01842e-05 -5.44845e-06 5.40962e-15)
(2.18348e-05 -4.43766e-06 -1.98463e-14)
(2.2865e-05 -2.9857e-06 9.84133e-16)
(2.33273e-05 -1.51218e-06 1.49876e-15)
(2.34185e-05 -2.51393e-07 2.36626e-15)
(2.64858e-07 -1.16571e-05 -2.40766e-16)
(1.4624e-06 -1.10964e-05 -5.61593e-15)
(2.78466e-06 -1.04739e-05 -3.24198e-15)
(4.30088e-06 -1.01731e-05 2.10675e-14)
(5.95597e-06 -1.00366e-05 -1.72004e-14)
(7.85017e-06 -9.79663e-06 1.30524e-14)
(9.90251e-06 -9.3719e-06 -1.11136e-14)
(1.19576e-05 -8.70454e-06 -1.56634e-14)
(1.37433e-05 -7.74538e-06 1.36463e-14)
(1.5344e-05 -6.62921e-06 2.78263e-14)
(1.70936e-05 -5.7222e-06 -1.96637e-14)
(1.8989e-05 -4.98302e-06 2.2359e-14)
(2.04698e-05 -4.03887e-06 1.5503e-14)
(2.13118e-05 -2.60684e-06 -1.92662e-14)
(2.19451e-05 -1.32916e-06 -8.25496e-15)
(2.26408e-05 -3.98083e-07 3.62588e-15)
(1.15243e-07 -1.06741e-05 -2.06842e-15)
(1.25378e-06 -1.01439e-05 2.91381e-15)
(2.50307e-06 -9.61518e-06 5.04486e-15)
(3.91939e-06 -9.32746e-06 -1.84942e-14)
(5.48605e-06 -9.21411e-06 2.46588e-14)
(7.24141e-06 -8.97594e-06 -3.94694e-15)
(9.19203e-06 -8.5868e-06 3.52614e-16)
(1.11148e-05 -7.96554e-06 -4.61269e-15)
(1.28068e-05 -7.04027e-06 -3.57386e-14)
(1.4359e-05 -6.01844e-06 1.8177e-14)
(1.60983e-05 -5.18974e-06 8.89043e-15)
(1.78335e-05 -4.51364e-06 -5.08819e-14)
(1.91417e-05 -3.46072e-06 8.95087e-15)
(1.99648e-05 -2.24004e-06 1.50697e-14)
(2.06424e-05 -1.12951e-06 -1.12034e-14)
(2.1771e-05 -2.88708e-07 -2.61059e-14)
(2.24168e-05 6.25418e-08 -9.97149e-15)
(1.63172e-08 -9.74968e-06 2.18062e-15)
(1.08544e-06 -9.29189e-06 1.36839e-15)
(2.25532e-06 -8.80739e-06 -4.751e-15)
(3.58913e-06 -8.57926e-06 8.68119e-15)
(5.04252e-06 -8.44921e-06 -9.89149e-15)
(6.6908e-06 -8.23061e-06 1.04274e-14)
(8.50308e-06 -7.84889e-06 -2.72045e-14)
(1.03217e-05 -7.2666e-06 -1.61225e-15)
(1.19308e-05 -6.40611e-06 2.6119e-14)
(1.34015e-05 -5.41762e-06 -6.70329e-15)
(1.50841e-05 -4.63842e-06 2.66107e-14)
(1.67595e-05 -3.91579e-06 1.71922e-14)
(1.80189e-05 -2.94566e-06 -7.02435e-15)
(1.87614e-05 -1.71496e-06 3.08882e-14)
(1.94282e-05 -6.74667e-07 1.68982e-14)
(2.07528e-05 -1.52131e-08 4.21442e-15)
(2.16836e-05 3.65059e-07 -4.17912e-15)
(-4.63454e-08 -8.93176e-06 2.48925e-16)
(9.52735e-07 -8.50301e-06 -6.65909e-15)
(2.04834e-06 -8.09401e-06 2.95592e-15)
(3.28405e-06 -7.8745e-06 6.40412e-15)
(4.64608e-06 -7.76535e-06 -7.25082e-15)
(6.17248e-06 -7.53596e-06 -1.05125e-14)
(7.87614e-06 -7.18306e-06 6.24892e-15)
(9.56987e-06 -6.62044e-06 -2.65331e-14)
(1.10723e-05 -5.7848e-06 1.82761e-15)
(1.24903e-05 -4.8629e-06 4.47338e-14)
(1.41099e-05 -4.1034e-06 7.83919e-16)
(1.57246e-05 -3.34493e-06 -2.59607e-15)
(1.67749e-05 -2.34579e-06 -1.45208e-14)
(1.75618e-05 -1.16739e-06 -7.64376e-15)
(1.83829e-05 -2.26675e-07 1.39483e-14)
(1.98405e-05 2.06357e-07 -3.42762e-15)
(2.12172e-05 6.97719e-07 9.52904e-16)
(-7.56318e-08 -8.17447e-06 -3.34939e-17)
(8.55227e-07 -7.79802e-06 3.26142e-15)
(1.86534e-06 -7.42268e-06 2.03078e-15)
(3.02513e-06 -7.25504e-06 -1.20888e-14)
(4.27996e-06 -7.12792e-06 1.69634e-14)
(5.71316e-06 -6.91133e-06 4.97749e-15)
(7.28144e-06 -6.56011e-06 2.36666e-14)
(8.87678e-06 -6.01764e-06 3.7539e-14)
(1.02818e-05 -5.23429e-06 -4.6121e-14)
(1.15967e-05 -4.32926e-06 -4.30418e-14)
(1.31132e-05 -3.5783e-06 2.19213e-15)
(1.46476e-05 -2.8362e-06 4.4914e-15)
(1.57115e-05 -1.85255e-06 -1.17057e-14)
(1.63594e-05 -7.72985e-07 -2.33026e-14)
(1.73188e-05 4.70082e-08 8.73209e-15)
(1.87641e-05 4.73156e-07 1.01128e-15)
(2.0532e-05 9.26204e-07 -2.23981e-14)
(2.11091e-05 1.11818e-06 7.57584e-15)
(-8.16142e-08 -7.49883e-06 -6.31192e-16)
(7.76119e-07 -7.13948e-06 4.91375e-15)
(1.71204e-06 -6.82531e-06 -2.37473e-15)
(2.78129e-06 -6.66174e-06 4.42294e-15)
(3.95921e-06 -6.55333e-06 -1.43374e-14)
(5.27511e-06 -6.33244e-06 -1.52003e-14)
(6.75136e-06 -5.9968e-06 1.58022e-14)
(8.21769e-06 -5.47526e-06 1.44525e-14)
(9.51927e-06 -4.70753e-06 1.54798e-14)
(1.07509e-05 -3.8647e-06 -8.84007e-15)
(1.21836e-05 -3.13666e-06 -1.10877e-14)
(1.35875e-05 -2.3957e-06 1.52337e-15)
(1.45363e-05 -1.43456e-06 5.54262e-15)
(1.52655e-05 -4.66884e-07 -1.08242e-14)
(1.6228e-05 2.78884e-07 -2.25281e-15)
(1.77534e-05 7.45907e-07 1.46255e-14)
(1.95984e-05 1.04715e-06 -4.18882e-15)
(2.03438e-05 1.50136e-06 -8.16837e-15)
(-7.45303e-08 -6.86132e-06 1.13265e-16)
(7.0846e-07 -6.54456e-06 -2.09692e-15)
(1.57147e-06 -6.25289e-06 4.84226e-15)
(2.568e-06 -6.13139e-06 8.48592e-15)
(3.65118e-06 -6.01341e-06 2.01259e-15)
(4.87915e-06 -5.81109e-06 -2.19815e-14)
(6.23704e-06 -5.47859e-06 -2.80506e-14)
(7.60665e-06 -4.98311e-06 6.2214e-15)
(8.81399e-06 -4.26417e-06 3.65192e-15)
(9.93384e-06 -3.4436e-06 2.92852e-14)
(1.12368e-05 -2.74068e-06 1.38444e-14)
(1.25635e-05 -2.04069e-06 5.02881e-15)
(1.34987e-05 -1.17263e-06 2.00249e-14)
(1.41198e-05 -2.36296e-07 1.63944e-15)
(1.50947e-05 4.42658e-07 -1.39061e-14)
(1.66812e-05 9.06458e-07 -5.24067e-15)
(1.8573e-05 1.19442e-06 -2.65846e-15)
(1.97785e-05 1.58364e-06 1.87005e-14)
(-6.69996e-08 -6.28495e-06 2.69391e-15)
(6.48512e-07 -5.98119e-06 -3.70217e-15)
(1.44912e-06 -5.73542e-06 -2.52783e-15)
(2.36445e-06 -5.6158e-06 -2.37243e-15)
(3.37358e-06 -5.52149e-06 7.06153e-16)
(4.50225e-06 -5.31768e-06 2.09429e-14)
(5.76924e-06 -5.01323e-06 1.89336e-14)
(7.02854e-06 -4.53885e-06 -2.60885e-15)
(8.13573e-06 -3.84818e-06 4.81812e-15)
(9.17532e-06 -3.09119e-06 -1.45575e-14)
(1.03838e-05 -2.43436e-06 -2.06315e-14)
(1.15743e-05 -1.7772e-06 -9.09072e-15)
(1.2396e-05 -9.58043e-07 1.15812e-15)
(1.30792e-05 -1.45828e-07 4.9116e-15)
(1.39507e-05 4.87216e-07 -8.40184e-15)
(1.55399e-05 9.01161e-07 1.08764e-14)
(1.75384e-05 1.12706e-06 -6.27109e-15)
(1.89902e-05 1.56339e-06 -1.23482e-14)
(1.92453e-05 1.90788e-06 1.63816e-14)
(-5.92026e-08 -5.7364e-06 -2.49823e-16)
(5.99365e-07 -5.465e-06 3.05362e-15)
(1.3339e-06 -5.23513e-06 -3.69436e-15)
(2.18911e-06 -5.1488e-06 1.95809e-15)
(3.11166e-06 -5.0456e-06 -1.02802e-14)
(4.1665e-06 -4.86194e-06 -8.75284e-15)
(5.3237e-06 -4.56974e-06 2.61865e-15)
(6.5004e-06 -4.12471e-06 1.06939e-14)
(7.52182e-06 -3.49221e-06 3.53044e-15)
(8.46153e-06 -2.76944e-06 2.31355e-15)
(9.55135e-06 -2.16304e-06 -1.85844e-14)
(1.06693e-05 -1.58077e-06 -7.37756e-15)
(1.14695e-05 -8.78439e-07 6.20354e-15)
(1.20283e-05 -1.15498e-07 -2.57357e-15)
(1.28976e-05 4.52924e-07 1.55404e-14)
(1.44491e-05 8.18959e-07 1.21793e-14)
(1.63294e-05 1.15673e-06 8.45893e-15)
(1.7975e-05 1.5334e-06 -9.92151e-15)
(1.84065e-05 2.08471e-06 -1.41095e-14)
(-4.99761e-08 -5.23736e-06 -5.17471e-16)
(5.5409e-07 -4.97663e-06 6.2817e-16)
(1.23376e-06 -4.78526e-06 6.25377e-15)
(2.01902e-06 -4.69328e-06 5.75105e-15)
(2.88083e-06 -4.60673e-06 -4.51408e-15)
(3.84123e-06 -4.42747e-06 -3.19472e-15)
(4.92496e-06 -4.15933e-06 -1.12814e-14)
(5.99864e-06 -3.74645e-06 3.88064e-15)
(6.94021e-06 -3.14658e-06 -7.89363e-15)
(7.81376e-06 -2.49856e-06 1.47564e-14)
(8.83279e-06 -1.95173e-06 1.39168e-14)
(9.83885e-06 -1.42842e-06 5.7401e-15)
(1.05399e-05 -7.78316e-07 5.35425e-15)
(1.11312e-05 -1.20663e-07 1.23528e-14)
(1.18602e-05 4.2968e-07 -4.9485e-15)
(1.32554e-05 8.08219e-07 -2.2458e-14)
(1.51962e-05 1.17467e-06 -5.41304e-15)
(1.67826e-05 1.59922e-06 1.99144e-14)
(1.75086e-05 2.23171e-06 2.14038e-15)
(-4.07506e-08 -4.76479e-06 1.08898e-16)
(5.11783e-07 -4.53798e-06 -1.195e-15)
(1.13879e-06 -4.35734e-06 2.26531e-15)
(1.86845e-06 -4.28649e-06 -2.99456e-15)
(2.65535e-06 -4.18987e-06 4.38371e-15)
(3.54603e-06 -4.02886e-06 1.24083e-14)
(4.53531e-06 -3.7723e-06 -5.04603e-15)
(5.5355e-06 -3.39417e-06 -1.32481e-14)
(6.40829e-06 -2.85174e-06 -1.75169e-14)
(7.20602e-06 -2.24312e-06 4.15483e-16)
(8.13744e-06 -1.74619e-06 -4.20711e-15)
(9.10027e-06 -1.28394e-06 -4.66794e-16)
(9.78813e-06 -7.17626e-07 1.02195e-14)
(1.02514e-05 -7.31015e-08 -1.46553e-14)
(1.0953e-05 4.38397e-07 -4.35867e-15)
(1.21564e-05 8.09465e-07 7.96632e-15)
(1.38498e-05 1.18758e-06 -1.03959e-14)
(1.55099e-05 1.55601e-06 4.45256e-15)
(1.63917e-05 2.28239e-06 5.77903e-15)
(1.61591e-05 2.93872e-06 -1.27445e-14)
(-3.50508e-08 -4.34679e-06 -6.24283e-17)
(4.74671e-07 -4.1335e-06 1.4265e-15)
(1.05557e-06 -3.98232e-06 -5.21797e-15)
(1.72354e-06 -3.90144e-06 -4.89447e-15)
(2.45304e-06 -3.81697e-06 -1.42221e-15)
(3.26493e-06 -3.65282e-06 1.32248e-14)
(4.1829e-06 -3.42102e-06 -6.07084e-15)
(5.09784e-06 -3.06832e-06 -1.03096e-14)
(5.90101e-06 -2.5603e-06 1.44267e-14)
(6.65325e-06 -2.01687e-06 -6.30216e-15)
(7.535e-06 -1.56802e-06 1.15717e-14)
(8.41305e-06 -1.13995e-06 -9.46973e-15)
(9.01977e-06 -5.92012e-07 -1.07948e-15)
(9.50791e-06 -1.82558e-08 1.35082e-14)
(1.00684e-05 4.83489e-07 -2.04682e-14)
(1.11445e-05 8.46906e-07 -4.3556e-15)
(1.28034e-05 1.1475e-06 2.17823e-14)
(1.4128e-05 1.6134e-06 -9.28229e-16)
(1.50631e-05 2.19641e-06 -2.84567e-15)
(1.50619e-05 2.93605e-06 2.41837e-15)
(-2.73205e-08 -3.96188e-06 5.0378e-16)
(4.47274e-07 -3.77903e-06 -1.88017e-15)
(9.77373e-07 -3.63429e-06 -2.59337e-15)
(1.59935e-06 -3.56821e-06 8.59421e-15)
(2.26228e-06 -3.4689e-06 -8.55344e-15)
(3.01705e-06 -3.3144e-06 -1.10325e-14)
(3.84845e-06 -3.08896e-06 1.56851e-14)
(4.70165e-06 -2.75998e-06 -5.71059e-15)
(5.44466e-06 -2.30199e-06 -6.03309e-15)
(6.13372e-06 -1.78778e-06 -8.2202e-16)
(6.94529e-06 -1.3739e-06 -3.4524e-15)
(7.78969e-06 -9.85721e-07 1.98984e-14)
(8.38907e-06 -4.95418e-07 9.57893e-16)
(8.76526e-06 7.70771e-08 -5.43241e-15)
(9.31071e-06 5.34039e-07 3.2326e-15)
(1.02208e-05 8.69605e-07 -5.81759e-15)
(1.1547e-05 1.18422e-06 1.82514e-15)
(1.30151e-05 1.54891e-06 1.22533e-14)
(1.38315e-05 2.0902e-06 -4.06363e-15)
(1.41794e-05 2.62629e-06 -2.0701e-15)
(-1.45092e-08 -3.62506e-06 -2.30844e-16)
(4.23445e-07 -3.45351e-06 1.51781e-16)
(9.09562e-07 -3.333e-06 1.23759e-15)
(1.47749e-06 -3.25649e-06 -6.44824e-15)
(2.09605e-06 -3.16289e-06 1.79118e-15)
(2.77905e-06 -3.00377e-06 -1.63101e-14)
(3.55437e-06 -2.78964e-06 8.49039e-15)
(4.32803e-06 -2.4801e-06 2.45725e-14)
(5.01399e-06 -2.04293e-06 -2.09941e-14)
(5.6614e-06 -1.58072e-06 -1.93368e-14)
(6.43046e-06 -1.19848e-06 -9.66525e-15)
(7.19931e-06 -8.283e-07 -1.38551e-15)
(7.72741e-06 -3.44903e-07 5.62548e-15)
(8.13744e-06 1.6047e-07 4.09353e-15)
(8.57556e-06 5.95378e-07 2.22675e-15)
(9.41891e-06 8.96114e-07 -1.57196e-14)
(1.0686e-05 1.11035e-06 -1.67395e-14)
(1.17601e-05 1.43272e-06 7.46543e-15)
(1.27976e-05 1.75819e-06 4.94247e-15)
(1.3321e-05 2.17398e-06 -6.91624e-15)
(1.30181e-05 2.79045e-06 4.77822e-15)
(1.20924e-09 -3.3111e-06 1.18109e-16)
(4.01334e-07 -3.16517e-06 3.31686e-16)
(8.45017e-07 -3.04951e-06 1.75232e-15)
(1.37004e-06 -2.98754e-06 1.24684e-15)
(1.93347e-06 -2.88324e-06 1.04665e-14)
(2.56606e-06 -2.7317e-06 1.92841e-14)
(3.26931e-06 -2.51761e-06 -2.16401e-14)
(3.98753e-06 -2.2255e-06 1.1913e-14)
(4.62139e-06 -1.82229e-06 1.0436e-14)
(5.21372e-06 -1.37627e-06 7.57901e-15)
(5.91817e-06 -1.01171e-06 -2.145e-15)
(6.65624e-06 -6.64432e-07 8.3642e-15)
(7.1826e-06 -2.28017e-07 8.31846e-16)
(7.50513e-06 2.72834e-07 -3.51235e-15)
(7.96029e-06 6.55245e-07 5.70758e-15)
(8.71104e-06 9.0753e-07 -1.32498e-15)
(9.79659e-06 1.10794e-06 9.43213e-16)
(1.10967e-05 1.25292e-06 -5.17363e-15)
(1.18923e-05 1.51812e-06 -5.33638e-15)
(1.2186e-05 1.9996e-06 8.53061e-15)
(1.18748e-05 2.65739e-06 -3.64027e-15)
(1.41271e-08 -3.03108e-06 4.3209e-16)
(3.80145e-07 -2.89458e-06 -1.86165e-15)
(7.87439e-07 -2.79889e-06 -1.27222e-15)
(1.2647e-06 -2.73082e-06 2.29789e-15)
(1.78684e-06 -2.63751e-06 -6.83129e-15)
(2.3625e-06 -2.48191e-06 4.91203e-15)
(3.01455e-06 -2.2804e-06 -8.18556e-15)
(3.66739e-06 -1.99718e-06 -1.68179e-14)
(4.24814e-06 -1.60699e-06 -2.27155e-15)
(4.80329e-06 -1.19448e-06 9.25951e-15)
(5.4666e-06 -8.45546e-07 9.62985e-15)
(6.13483e-06 -5.02575e-07 3.50264e-15)
(6.60157e-06 -6.54609e-08 2.88567e-15)
(6.97271e-06 3.77088e-07 -1.50707e-15)
(7.36351e-06 7.38112e-07 5.87932e-15)
(8.10295e-06 9.59984e-07 -2.4414e-15)
(9.20999e-06 1.06798e-06 3.82035e-15)
(1.02117e-05 1.21701e-06 7.06632e-15)
(1.10806e-05 1.47299e-06 -1.71502e-15)
(1.12714e-05 2.00132e-06 7.80582e-15)
(1.08125e-05 2.68402e-06 -1.23689e-15)
(2.53734e-08 -2.76174e-06 2.39255e-16)
(3.61876e-07 -2.64425e-06 -3.929e-16)
(7.31169e-07 -2.55273e-06 5.28061e-16)
(1.17289e-06 -2.50034e-06 -1.92373e-15)
(1.646e-06 -2.40276e-06 -5.09913e-15)
(2.18245e-06 -2.25756e-06 -1.64758e-14)
(2.77112e-06 -2.05886e-06 1.80048e-14)
(3.3794e-06 -1.78644e-06 -1.04012e-14)
(3.91213e-06 -1.42228e-06 -2.87725e-16)
(4.4144e-06 -1.01472e-06 8.24729e-15)
(5.01456e-06 -6.72109e-07 -1.71305e-14)
(5.65034e-06 -3.39386e-07 -1.18997e-14)
(6.11704e-06 6.57589e-08 -3.19278e-15)
(6.42188e-06 5.16398e-07 3.15393e-15)
(6.85243e-06 8.45328e-07 4.88527e-15)
(7.56002e-06 1.0347e-06 -3.19475e-15)
(8.57051e-06 1.1603e-06 -1.88551e-15)
(9.6936e-06 1.25864e-06 7.03326e-15)
(1.01933e-05 1.68232e-06 -4.96869e-16)
(1.02075e-05 2.3577e-06 5.6548e-15)
(9.96968e-06 2.99773e-06 -1.14185e-15)
(3.53025e-08 -2.51036e-06 2.77736e-16)
(3.42082e-07 -2.39735e-06 -5.29211e-16)
(6.80245e-07 -2.32248e-06 5.32653e-16)
(1.08041e-06 -2.26763e-06 -4.14484e-16)
(1.52064e-06 -2.18397e-06 6.04872e-15)
(2.00519e-06 -2.04337e-06 7.7414e-15)
(2.55557e-06 -1.85668e-06 -2.55386e-15)
(3.10418e-06 -1.59655e-06 1.79295e-15)
(3.59283e-06 -1.23993e-06 -2.56679e-15)
(4.05678e-06 -8.59516e-07 -8.24215e-15)
(4.61375e-06 -5.23363e-07 9.11421e-15)
(5.17886e-06 -1.8476e-07 -4.38168e-20)
(5.58607e-06 2.34623e-07 -5.3517e-16)
(5.93478e-06 6.46553e-07 -5.15568e-16)
(6.32443e-06 9.77757e-07 -7.97668e-15)
(7.03411e-06 1.17802e-06 3.26202e-15)
(8.05432e-06 1.30567e-06 -4.21921e-15)
(8.77344e-06 1.65853e-06 1.08782e-16)
(9.20264e-06 2.29937e-06 6.65451e-15)
(9.23413e-06 2.87122e-06 -6.05896e-15)
(9.07502e-06 3.45101e-06 -1.96568e-15)
(8.63853e-06 3.8659e-06 -2.90721e-15)
(4.10295e-08 -2.26265e-06 -3.02466e-16)
(3.18822e-07 -2.16733e-06 -5.03079e-17)
(6.28357e-07 -2.09287e-06 -1.52121e-15)
(9.96431e-07 -2.05092e-06 -3.53879e-15)
(1.3942e-06 -1.96865e-06 -5.14825e-16)
(1.84281e-06 -1.84368e-06 -4.96174e-15)
(2.34056e-06 -1.66463e-06 -7.51245e-15)
(2.84986e-06 -1.42056e-06 3.51564e-15)
(3.29704e-06 -1.08764e-06 2.38412e-15)
(3.71236e-06 -7.11911e-07 3.8473e-15)
(4.20549e-06 -3.77146e-07 -6.43232e-15)
(4.73106e-06 -4.14763e-08 8.48395e-15)
(5.13009e-06 3.54378e-07 -7.26375e-15)
(5.40688e-06 7.85903e-07 -4.30059e-15)
(5.81415e-06 1.10832e-06 1.28462e-14)
(6.45947e-06 1.32026e-06 -3.40436e-15)
(7.19506e-06 1.65957e-06 2.13668e-15)
(7.77694e-06 2.18805e-06 -1.8292e-15)
(8.13408e-06 2.69681e-06 -6.10032e-16)
(8.36245e-06 3.1833e-06 3.38145e-15)
(8.38571e-06 3.5289e-06 3.66588e-15)
(8.09041e-06 3.77602e-06 -2.88564e-15)
(4.10781e-08 -2.03323e-06 -6.47684e-16)
(2.94921e-07 -1.94123e-06 5.87053e-16)
(5.80002e-07 -1.87763e-06 5.47181e-17)
(9.12092e-07 -1.83283e-06 2.45973e-15)
(1.27774e-06 -1.7652e-06 -1.66375e-15)
(1.68268e-06 -1.6467e-06 -2.95182e-17)
(2.14341e-06 -1.48642e-06 8.95955e-15)
(2.60366e-06 -1.25585e-06 9.45045e-15)
(3.01018e-06 -9.36166e-07 2.79045e-16)
(3.39076e-06 -5.8613e-07 1.31109e-14)
(3.83917e-06 -2.60544e-07 6.21914e-15)
(4.29181e-06 7.68373e-08 -1.20331e-14)
(4.62095e-06 4.81348e-07 4.28635e-16)
(4.92319e-06 8.82951e-07 -5.06198e-15)
(5.26855e-06 1.20155e-06 -1.50995e-15)
(5.74346e-06 1.52913e-06 8.2486e-15)
(6.28213e-06 1.94654e-06 -1.45841e-14)
(6.77505e-06 2.35119e-06 -1.91053e-15)
(7.27592e-06 2.74448e-06 8.16174e-15)
(7.62497e-06 3.04439e-06 1.22803e-15)
(7.90426e-06 3.20157e-06 -1.42142e-15)
(7.5844e-06 3.43963e-06 -4.08548e-15)
(3.82458e-08 -1.81531e-06 9.82377e-18)
(2.71718e-07 -1.73681e-06 2.68972e-16)
(5.32098e-07 -1.6717e-06 1.71389e-15)
(8.38019e-07 -1.63426e-06 4.88952e-15)
(1.16486e-06 -1.56529e-06 2.16883e-15)
(1.53857e-06 -1.46025e-06 4.12858e-15)
(1.95017e-06 -1.30984e-06 3.75796e-16)
(2.377e-06 -1.09549e-06 -1.38871e-14)
(2.74552e-06 -8.02887e-07 1.55892e-14)
(3.08133e-06 -4.63169e-07 1.25383e-15)
(3.46808e-06 -1.48976e-07 4.26213e-16)
(3.87643e-06 1.71428e-07 6.35585e-15)
(4.18256e-06 5.42527e-07 3.44631e-15)
(4.41078e-06 9.39982e-07 7.24526e-15)
(4.68037e-06 1.27541e-06 6.20648e-15)
(5.03414e-06 1.6005e-06 -6.02642e-15)
(5.50225e-06 1.9194e-06 2.55087e-15)
(5.94486e-06 2.21094e-06 8.21537e-15)
(6.44571e-06 2.45212e-06 -4.16942e-15)
(7.11138e-06 2.58474e-06 -4.45698e-15)
(7.38163e-06 2.80253e-06 1.32551e-15)
(7.10984e-06 3.08879e-06 -3.61182e-15)
(3.35893e-08 -1.62156e-06 2.36415e-16)
(2.46748e-07 -1.54723e-06 -4.42359e-16)
(4.87235e-07 -1.4905e-06 -1.6633e-15)
(7.63793e-07 -1.44539e-06 -7.21172e-16)
(1.06481e-06 -1.38305e-06 3.67845e-15)
(1.39674e-06 -1.28191e-06 4.37747e-15)
(1.77725e-06 -1.14396e-06 -8.54673e-15)
(2.15654e-06 -9.44925e-07 -3.17595e-15)
(2.49073e-06 -6.66423e-07 -2.0255e-14)
(2.79417e-06 -3.58464e-07 9.5606e-16)
(3.14181e-06 -6.53333e-08 2.24926e-15)
(3.48024e-06 2.36085e-07 -2.62764e-15)
(3.71827e-06 5.89689e-07 -4.92817e-15)
(3.9382e-06 9.33774e-07 5.79018e-15)
(4.15738e-06 1.23364e-06 9.31725e-15)
(4.45764e-06 1.49902e-06 -3.54369e-15)
(4.83333e-06 1.74887e-06 -8.04417e-15)
(5.30452e-06 1.93051e-06 4.4117e-15)
(5.92185e-06 2.05138e-06 1.77984e-15)
(6.37151e-06 2.21068e-06 -2.29364e-15)
(6.72126e-06 2.39772e-06 1.50394e-15)
(6.61598e-06 2.72416e-06 3.57009e-15)
(5.97662e-06 3.05936e-06 3.93273e-15)
(3.08963e-08 -1.44956e-06 4.12944e-16)
(2.27119e-07 -1.38951e-06 -1.22726e-15)
(4.47972e-07 -1.3305e-06 -1.36385e-15)
(7.00811e-07 -1.28668e-06 -8.91931e-16)
(9.68176e-07 -1.21824e-06 1.35939e-15)
(1.27017e-06 -1.12341e-06 -6.33319e-15)
(1.6066e-06 -9.8969e-07 1.83084e-15)
(1.9532e-06 -8.04836e-07 5.59931e-15)
(2.25337e-06 -5.50606e-07 6.97688e-15)
(2.51961e-06 -2.58068e-07 -1.04815e-14)
(2.81771e-06 1.35333e-08 -8.94628e-16)
(3.12463e-06 2.82327e-07 4.1982e-15)
(3.3469e-06 5.80211e-07 -8.98153e-15)
(3.50617e-06 8.90836e-07 3.99906e-16)
(3.68986e-06 1.14406e-06 5.87792e-15)
(3.93308e-06 1.357e-06 -2.50144e-15)
(4.32905e-06 1.5333e-06 -3.78421e-15)
(4.7771e-06 1.66252e-06 -3.53451e-15)
(5.29755e-06 1.79163e-06 6.24687e-15)
(5.95456e-06 1.90302e-06 -1.08746e-15)
(6.11668e-06 2.13739e-06 -5.58956e-15)
(5.9074e-06 2.43461e-06 6.15159e-15)
(5.40092e-06 2.81077e-06 -5.99989e-15)