# p  FACE_DATA 300
# x y z  p
0.29787915 -0.05 0.060005454 11693.198
0.29366024 -0.05 0.059998184 11710.657
0.28948669 -0.05 0.059982824 11730.152
0.28535801 -0.05 0.05995956 11749.515
0.28127374 -0.05 0.05992843 11770.03
0.27723342 -0.05 0.059889544 11790.396
0.27323659 -0.05 0.059843055 11811.329
0.2692828 -0.05 0.059789027 11832.599
0.26537161 -0.05 0.059727601 11853.839
0.26150257 -0.05 0.05965892 11875.544
0.25767524 -0.05 0.059583046 11897.826
0.2538892 -0.05 0.059500074 11920.476
0.25014401 -0.05 0.059410118 11943.499
0.24643926 -0.05 0.059313284 11966.942
0.24277452 -0.05 0.059209674 11990.746
0.23914938 -0.05 0.059099387 12014.86
0.23556344 -0.05 0.058982537 12039.054
0.23201627 -0.05 0.058859254 12063.534
0.2285075 -0.05 0.058729541 12089.001
0.22503671 -0.05 0.058593532 12113.9
0.22160352 -0.05 0.058451379 12139.608
0.21820754 -0.05 0.058303115 12165.503
0.21484838 -0.05 0.058148846 12191.789
0.21152567 -0.05 0.05798866 12218.392
0.20823903 -0.05 0.057822651 12245.436
0.20498809 -0.05 0.057650874 12272.951
0.20177248 -0.05 0.057473468 12300.173
0.19859184 -0.05 0.057290478 12328.509
0.1954458 -0.05 0.057101994 12356.102
0.19233402 -0.05 0.056908168 12384.38
0.18925614 -0.05 0.056708999 12413.171
0.18621181 -0.05 0.056504563 12442.332
0.1832007 -0.05 0.056294919 12471.915
0.18022246 -0.05 0.05608023 12500.955
0.17727675 -0.05 0.055860526 12531.408
0.17436324 -0.05 0.055635849 12561.078
0.1714816 -0.05 0.055406376 12591.203
0.16863151 -0.05 0.055172052 12622.547
0.16581265 -0.05 0.054932944 12653.603
0.16302469 -0.05 0.054689208 12685.179
0.16026733 -0.05 0.054440898 12717.258
0.15754024 -0.05 0.054188056 12749.904
0.15484313 -0.05 0.053930725 12782.708
0.15217569 -0.05 0.053668978 12815.649
0.14953762 -0.05 0.053402889 12848.949
0.14692863 -0.05 0.053132457 12882.972
0.14434842 -0.05 0.052857799 12916.091
0.14179669 -0.05 0.052579044 12950.108
0.13927317 -0.05 0.05229612 12985.593
0.13677757 -0.05 0.052009061 13021.169
0.13430961 -0.05 0.051717985 13056.825
0.13186901 -0.05 0.051422994 13092.408
0.1294555 -0.05 0.05112408 13129.408
0.12706881 -0.05 0.050821224 13166.741
0.12470868 -0.05 0.050514504 13204.2
0.12237483 -0.05 0.05020403 13241.313
0.12006701 -0.05 0.049889836 13279.664
0.11778495 -0.05 0.049571874 13318.681
0.11552842 -0.05 0.049250263 13357.31
0.11329715 -0.05 0.048924992 13397.177
0.1110909 -0.05 0.048596121 13436.529
0.10890943 -0.05 0.048263656 13478.393
0.10675251 -0.05 0.047927554 13519.726
0.10461987 -0.05 0.047587958 13561.147
0.1025113 -0.05 0.047244937 13602.739
0.10042655 -0.05 0.046898432 13646.465
0.098365405 -0.05 0.046548446 13690.289
0.096327639 -0.05 0.046195043 13734.935
0.094313028 -0.05 0.045838237 13779.621
0.092321357 -0.05 0.045478019 13825.699
0.090352417 -0.05 0.04511438 13871.557
0.088405979 -0.05 0.044747421 13917.8
0.086481845 -0.05 0.044377096 13965.579
0.084579815 -0.05 0.044003384 14013.409
0.082699669 -0.05 0.043626385 14061.916
0.080841229 -0.05 0.043246005 14112.294
0.0790043 -0.05 0.042862236 14161.984
0.077188666 -0.05 0.0424752 14212.254
0.07539416 -0.05 0.04208479 14264.336
0.073620599 -0.05 0.041690997 14316.471
0.071867788 -0.05 0.041293877 14370.341
0.070135557 -0.05 0.040893384 14425.581
0.068423743 -0.05 0.040489458 14482.051
0.066732169 -0.05 0.040082112 14537.871
0.065060663 -0.05 0.039671361 14595.051
0.063409062 -0.05 0.039257174 14653.112
0.061777219 -0.05 0.038839488 14713.434
0.060164984 -0.05 0.038418265 14774.056
0.058572196 -0.05 0.037993513 14836.296
0.056998721 -0.05 0.037565159 14899.668
0.055444419 -0.05 0.03713316 14963.915
0.053909142 -0.05 0.036697516 15028.839
0.052392764 -0.05 0.03625817 15096.752
0.050895177 -0.05 0.035815009 15166.851
0.049416244 -0.05 0.035368033 15237.701
0.047955856 -0.05 0.034917167 15309.349
0.046513915 -0.05 0.034462309 15381.081
0.045090302 -0.05 0.034003445 15455.68
0.043684931 -0.05 0.033540468 15535.22
0.042297731 -0.05 0.03307324 15617.753
0.040928604 -0.05 0.032601734 15702.104
0.039577476 -0.05 0.032125845 15790.065
0.038244291 -0.05 0.03164545 15880.152
0.036928981 -0.05 0.031160474 15973.427
0.0356315 -0.05 0.030670795 16070.61
0.03435181 -0.05 0.030176299 16174
0.033089918 -0.05 0.029676761 16285.934
0.031845783 -0.05 0.029172106 16405.483
0.030619394 -0.05 0.02866221 16538.937
0.029410776 -0.05 0.028146878 16681.932
0.028219949 -0.05 0.027625962 16830.223
0.027046957 -0.05 0.027099267 16982.611
0.025891857 -0.05 0.026566614 17142.943
0.02475474 -0.05 0.026027768 17308.731
0.023635681 -0.05 0.025482558 17478.288
0.022534817 -0.05 0.024930717 17653.282
0.021452274 -0.05 0.024372036 17833.021
0.020388213 -0.05 0.023806274 18019.179
0.019342865 -0.05 0.023233111 18211.119
0.018316468 -0.05 0.022652259 18413.059
0.017309264 -0.05 0.02206346 18629.158
0.016321577 -0.05 0.021466368 18861.51
0.015353757 -0.05 0.020860645 19103.548
0.014406156 -0.05 0.020245997 19357.331
0.013479274 -0.05 0.019622013 19624.6
0.012573638 -0.05 0.018988323 19909.372
0.0116898 -0.05 0.018344552 20218.757
0.010828378 -0.05 0.017690314 20556.472
0.0099901249 -0.05 0.017025149 20920.141
0.0091759198 -0.05 0.016348644 21305.172
0.008386597 -0.05 0.0156605 21714.82
0.0076231725 -0.05 0.014960218 22151.472
0.0068867853 -0.05 0.014247452 22612.764
0.0061787359 -0.05 0.013521944 23106.077
0.0055003792 -0.05 0.012783302 23630.008
0.0048530826 -0.05 0.012031363 24186.575
0.0042385571 -0.05 0.011266143 24784.281
0.0036585397 -0.05 0.010487553 25425.64
0.0031148319 -0.05 0.0096957287 26101.3
0.0026094399 -0.05 0.0088912322 26804.405
0.0021442246 -0.05 0.0080745628 27531.001
0.0017210465 -0.05 0.0072465895 28276.535
0.0013418093 -0.05 0.0064087151 29039.57
0.0010080919 -0.05 0.0055623679 29805.998
0.00072127228 -0.05 0.0047092571 30563.876
0.00048251081 -0.05 0.0038515496 31305.9
0.00029236329 -0.05 0.0029916287 32015.198
0.0001508317 -0.05 0.0021320102 32675.946
5.7495879e-05 -0.05 0.0012752716 33279.447
1.1394864e-05 -0.05 0.00042397109 33820.302
0.99768066 -0.05 0.00033611804 26517.678
0.99304169 -0.05 0.0010063364 26486.139
0.98840215 -0.05 0.0016726212 26425.597
0.98376207 -0.05 0.0023350721 26372.27
0.97912143 -0.05 0.0029936636 26316.382
0.97448026 -0.05 0.00364841 26261.45
0.96983855 -0.05 0.0042993733 26206.278
0.96519632 -0.05 0.0049465845 26151.276
0.96055356 -0.05 0.0055900577 26096.303
0.95591031 -0.05 0.0062298653 26041.371
0.95126654 -0.05 0.0068660327 25986.539
0.94662227 -0.05 0.0074985225 25931.823
0.94197753 -0.05 0.0081274235 25877.202
0.9373323 -0.05 0.008752761 25822.765
0.93268659 -0.05 0.0093745713 25768.447
0.92804042 -0.05 0.0099928964 25714.347
0.92339378 -0.05 0.010607714 25660.469
0.91874669 -0.05 0.011219031 25606.847
0.91409914 -0.05 0.011826962 25553.38
0.90945116 -0.05 0.012431486 25500.286
0.90480273 -0.05 0.013032571 25447.4
0.90015387 -0.05 0.013630361 25394.795
0.89550457 -0.05 0.014224739 25342.616
0.89085486 -0.05 0.014815813 25290.584
0.88620473 -0.05 0.01540363 25239.025
0.88155418 -0.05 0.0159881 25187.753
0.87690323 -0.05 0.016569356 25136.783
0.87225187 -0.05 0.017147383 25086.172
0.86760011 -0.05 0.017722168 25035.897
0.86294796 -0.05 0.018293719 24985.983
0.85829541 -0.05 0.018862095 24936.348
0.85364248 -0.05 0.019427289 24887.123
0.84898916 -0.05 0.01998931 24838.156
0.84433547 -0.05 0.020548224 24789.555
0.83968139 -0.05 0.021103928 24741.401
0.83502695 -0.05 0.021656533 24693.408
0.83037214 -0.05 0.022206072 24645.848
0.82571697 -0.05 0.022752481 24598.549
0.82106143 -0.05 0.023295768 24551.662
0.81640552 -0.05 0.023835961 24504.971
0.81174928 -0.05 0.024373126 24458.58
0.80709266 -0.05 0.024907211 24412.452
0.80243571 -0.05 0.025438235 24366.589
0.7977784 -0.05 0.025966147 24321.098
0.79312074 -0.05 0.026490982 24275.762
0.78846275 -0.05 0.027012845 24230.613
0.78380442 -0.05 0.027531686 24185.74
0.77914574 -0.05 0.028047403 24141.193
0.77448674 -0.05 0.028560079 24096.703
0.7698274 -0.05 0.029069753 24052.469
0.76516772 -0.05 0.02957633 24008.421
0.7605077 -0.05 0.030079852 23964.477
0.75584737 -0.05 0.030580367 23920.591
0.75118671 -0.05 0.03107785 23876.818
0.74652573 -0.05 0.031572241 23833.142
0.74186441 -0.05 0.032063551 23789.507
0.73720278 -0.05 0.032551782 23745.908
0.73254082 -0.05 0.03303698 23702.231
0.72787854 -0.05 0.033519069 23658.645
0.72321595 -0.05 0.033998064 23614.827
0.71855304 -0.05 0.034473962 23571.053
0.71388981 -0.05 0.03494667 23527.084
0.70922626 -0.05 0.035416302 23482.84
0.7045624 -0.05 0.035882849 23438.322
0.69989823 -0.05 0.036346252 23393.474
0.69523375 -0.05 0.036806454 23348.303
0.69056894 -0.05 0.037263403 23302.703
0.68590382 -0.05 0.037717206 23256.482
0.68123839 -0.05 0.038167801 23209.83
0.67657265 -0.05 0.038615123 23162.425
0.67190661 -0.05 0.039059237 23114.275
0.66724025 -0.05 0.039500049 23065.319
0.66257357 -0.05 0.039937521 23015.404
0.6579066 -0.05 0.040371712 22964.359
0.65323931 -0.05 0.040802591 22912.146
0.64857171 -0.05 0.041230085 22858.603
0.6439038 -0.05 0.041654149 22803.641
0.63923558 -0.05 0.042074786 22747.05
0.63456705 -0.05 0.042492 22688.754
0.62989822 -0.05 0.042905734 22628.581
0.62522907 -0.05 0.043315943 22566.389
0.6205596 -0.05 0.043722625 22501.968
0.61588983 -0.05 0.044125719 22435.204
0.61121975 -0.05 0.044525219 22365.829
0.60654937 -0.05 0.044921074 22293.803
0.60187867 -0.05 0.045313219 22218.832
0.59720766 -0.05 0.045701683 22140.796
0.59253634 -0.05 0.046086399 22059.518
0.58786471 -0.05 0.046467288 21974.813
0.58319277 -0.05 0.046844345 21886.507
0.57852051 -0.05 0.047217535 21794.63
0.57384795 -0.05 0.047586814 21699.047
0.56917507 -0.05 0.047952124 21599.64
0.56450189 -0.05 0.048313436 21496.199
0.55982839 -0.05 0.048670677 21388.717
0.55515457 -0.05 0.04902381 21277.248
0.55048045 -0.05 0.04937281 21161.882
0.54580601 -0.05 0.04971755 21042.402
0.54113126 -0.05 0.050058049 20918.773
0.5364562 -0.05 0.050394263 20791.207
0.53178083 -0.05 0.050726133 20659.779
0.52710515 -0.05 0.051053569 20524.696
0.52242915 -0.05 0.051376464 20385.842
0.51775284 -0.05 0.051694815 20243.72
0.51307623 -0.05 0.052008601 20098.907
0.5083993 -0.05 0.052317708 19951.354
0.50372205 -0.05 0.052622097 19800.908
0.4990445 -0.05 0.052921701 19647.41
0.49436664 -0.05 0.053216429 19490.883
0.48968848 -0.05 0.053506199 19331.934
0.48501001 -0.05 0.053790938 19171.537
0.48033122 -0.05 0.054070626 19010.954
0.47565213 -0.05 0.05434516 18851.411
0.47097274 -0.05 0.054614471 18693.959
0.46629305 -0.05 0.054878504 18538.856
0.46161306 -0.05 0.055137129 18384.552
0.45693276 -0.05 0.055390258 18228.04
0.45225217 -0.05 0.05563783 18059.581
0.44757129 -0.05 0.055879797 17856.761
0.44289011 -0.05 0.056116052 17599.52
0.43820865 -0.05 0.05634646 17282.022
0.43352689 -0.05 0.056570934 16740.719
0.42884485 -0.05 0.056789428 15666.022
0.42416254 -0.05 0.057001839 14243.131
0.41947995 -0.05 0.057208045 13005.883
0.41479707 -0.05 0.057407955 12200.226
0.41011393 -0.05 0.057601449 11793.484
0.40543053 -0.05 0.057788457 11583.256
0.40074687 -0.05 0.057968848 11494.233
0.39606296 -0.05 0.058142512 11452.966
0.3913788 -0.05 0.05830933 11437.458
0.38669439 -0.05 0.058469176 11432.85
0.38200975 -0.05 0.058621944 11432.492
0.37732488 -0.05 0.058767528 11437.829
0.37263978 -0.05 0.058905769 11446.415
0.36795448 -0.05 0.059036526 11456.554
0.36326896 -0.05 0.059159727 11467.69
0.35858325 -0.05 0.059275201 11479.799
0.35389736 -0.05 0.059382803 11492.392
0.34921128 -0.05 0.05948244 11505.533
0.34452504 -0.05 0.059573923 11519.644
0.33983865 -0.05 0.059657062 11534.255
0.33515211 -0.05 0.059731741 11549.309
0.33046544 -0.05 0.059797856 11564.718
0.32577866 -0.05 0.059855197 11581.215
0.32109177 -0.05 0.059903555 11598.077
0.31640481 -0.05 0.059942821 11615.444
0.31171778 -0.05 0.059972784 11633.127
0.30703069 -0.05 0.059993273 11651.442
0.30234357 -0.05 0.060004087 11672.142
