/*--------------------------------*- C++ -*----------------------------------*\
| =========                 |                                                 |
| \\      /  F ield         | OpenFOAM: The Open Source CFD Toolbox           |
|  \\    /   O peration     | Version:  2306                                  |
|   \\  /    A nd           | Website:  www.openfoam.com                      |
|    \\/     M anipulation  |                                                 |
\*---------------------------------------------------------------------------*/
FoamFile
{
    version     2.0;
    format      ascii;
    arch        "LSB;label=32;scalar=64";
    class       volScalarField;
    location    "325";
    object      magR;
}
// * * * * * * * * * * * * * * * * * * * * * * * * * * * * * * * * * * * * * //

dimensions      [0 2 -2 0 0 0 0];

internalField   nonuniform List<scalar> 
1340
(
0.0235428
0.0274677
0.0324834
0.0392965
0.0473686
0.0576436
0.0707819
0.0870572
0.107724
0.134091
0.168157
0.213132
0.273467
0.356477
0.474637
0.647537
0.913833
1.32413
2.04469
3.16584
5.6947
9.51386
22.2862
43.4762
48.1608
46.072
45.2755
46.1053
47.1327
47.3955
46.771
45.3774
43.1224
40.0355
36.0491
0.0200363
0.0171921
0.0140039
0.0112696
0.00868777
0.00636087
0.00448165
0.00360487
0.00358457
0.0035432
0.00344065
0.0032821
0.00309988
0.00288492
0.00264323
0.00240406
0.00216957
0.001946
0.00179079
0.00176958
0.00194441
0.00252548
0.00397458
0.00759508
0.0159319
0.0385047
0.0943645
0.278788
0.770899
2.36304
7.58117
14.861
22.3867
29.4593
34.4614
35.4486
32.5171
27.7085
22.8437
18.8992
15.8762
13.5538
0.00357237
0.00352421
0.00342546
0.00327901
0.0030786
0.00281419
0.00241991
0.00240082
0.00234668
0.00226389
0.00217732
0.00208217
0.00198597
0.00189946
0.00182505
0.00176734
0.00172272
0.00169716
0.0016904
0.00170521
0.00170997
0.00165727
0.00144904
0.001247
0.000141622
0.00807173
0.00319392
0.0055927
0.00068983
0.0296098
0.246462
0.821529
2.05001
4.58222
9.02667
14.9095
20.2258
22.8365
22.3231
20.0436
17.39
0.00243874
0.00243573
0.00242925
0.00238597
0.00230922
0.00218039
0.00204228
0.00204649
0.00203621
0.00201925
0.00198425
0.00193217
0.00186724
0.00178618
0.00169353
0.00159106
0.00148095
0.00136472
0.00124351
0.00111954
0.000993851
0.0008621
0.000730722
0.000612207
0.000463443
0.000263924
2.8789e-11
0.000608766
0.000434465
0.00780708
0.0290407
0.0544493
0.0743597
0.0031611
0.0456175
0.449702
1.96211
5.34433
10.0113
13.886
15.5522
0.00202037
0.00198718
0.00193509
0.00187234
0.00179367
0.00153218
0.00152948
0.00151753
0.00149623
0.00146328
0.0014186
0.0013646
0.00130209
0.00123313
0.00116192
0.00109076
0.00102251
0.00096021
0.000905764
0.000860477
0.000822425
0.000782432
0.000733537
0.000681819
0.000606643
0.000407558
0.000129911
2.14451e-05
3.3963e-06
0
0
0
0.00246787
0.0290677
0.0954255
0.0198691
0.0658156
0.41263
2.40586
6.16684
0.00152822
0.0015174
0.00149588
0.00146141
0.00141282
0.00125588
0.00126123
0.00126073
0.00125622
0.00124388
0.00122389
0.0011971
0.00116247
0.00112071
0.00107295
0.0010196
0.000961912
0.000901261
0.000838718
0.000775387
0.000709745
0.000638266
0.000564842
0.00049587
0.000435985
0.000388269
0.000321365
0.000228119
4.38284e-05
1.18099e-05
6.84321e-06
2.67167e-06
1.68105e-08
0
0
0.00467694
0.0459835
0.00863388
0.11176
0.245055
0.0012445
0.00122877
0.00120589
0.0011757
0.00101592
0.00102039
0.0010211
0.00101851
0.0010104
0.000996353
0.000976706
0.000950882
0.000919108
0.000882261
0.000840972
0.000796273
0.000749543
0.000702112
0.000655086
0.000610036
0.000569204
0.000531158
0.000492294
0.000451757
0.000413687
0.000381753
0.000347754
0.000286758
0.00019663
0.000120668
4.00594e-05
2.08252e-07
4.01319e-06
4.66132e-07
0
0
0.00111102
0.0353638
0.026719
0.00100758
0.000996284
0.000979851
0.000957221
0.000842026
0.000847774
0.000851187
0.000852563
0.000850229
0.000843852
0.000833687
0.000818986
0.000799747
0.000776379
0.000748848
0.000717689
0.000683513
0.000646882
0.000608445
0.000568989
0.000528019
0.000484486
0.000440369
0.000398612
0.000361911
0.000332465
0.000310638
0.000293994
0.000267877
0.00022871
0.000176413
0.000119617
7.18597e-05
7.35308e-06
3.55381e-06
1.28905e-07
0
0
0.00406409
0.000833389
0.00082298
0.000809028
0.00079051
0.000702395
0.000707931
0.000711964
0.000714482
0.000714391
0.000711325
0.000705358
0.000695829
0.000682655
0.000665957
0.000645683
0.000622118
0.000595679
0.00056679
0.000536079
0.000504038
0.000471401
0.000439438
0.000408254
0.000377815
0.000348655
0.000322208
0.0002989
0.000277792
0.000256156
0.00023124
0.000205026
0.000176129
0.000149371
0.000107983
6.94755e-05
2.58884e-06
1.84034e-06
0
0
0.000694808
0.000686025
0.000674675
0.000607222
0.0006068
0.00060427
0.000599069
0.000591114
0.000580398
0.000566746
0.000550292
0.00053123
0.000509772
0.000486259
0.000461029
0.000434607
0.000406947
0.000378242
0.000349721
0.00032288
0.000298914
0.000277967
0.000258045
0.000236483
0.000212357
0.000188138
0.000167013
0.000150668
0.000137257
0.000123363
8.90349e-05
3.69057e-05
3.28492e-06
0
0.000519101
0.00051649
0.0005117
0.000504699
0.000495273
0.000483455
0.000469316
0.000452947
0.000434588
0.000414512
0.000393023
0.000370606
0.000347772
0.000324971
0.000302931
0.000282242
0.000263164
0.000244617
0.000224421
0.00020158
0.00017781
0.000156489
0.000139513
0.000127323
0.000118229
0.000112693
9.83594e-05
5.68419e-05
3.71567e-06
0.000445257
0.000441055
0.000434902
0.000426779
0.000416676
0.000404618
0.000390719
0.000375142
0.00035812
0.000340004
0.000320923
0.000301298
0.000281995
0.00026367
0.000246491
0.000229713
0.000211709
0.000191503
0.000170138
0.000150139
0.000133288
0.000119851
0.000108967
0.000101906
9.84434e-05
9.4578e-05
6.06593e-05
0.000386145
0.000382268
0.000376771
0.000369599
0.000360715
0.000350184
0.000338102
0.000324603
0.000309989
0.000294483
0.00027838
0.000262209
0.000246453
0.000231219
0.000216032
0.00019982
0.000181865
0.00016289
0.000144804
0.000129122
0.000115996
0.000104831
9.55562e-05
8.90718e-05
8.65395e-05
9.08052e-05
0.000336787
0.000333241
0.000328314
0.000321945
0.000314137
0.00030493
0.000294398
0.00028277
0.000270196
0.000256849
0.000243124
0.000229506
0.000216089
0.000202537
0.000188085
0.0001722
0.000155405
0.000139191
0.000124863
0.000112638
0.0001021
9.29211e-05
8.52162e-05
7.94975e-05
7.83152e-05
0.000297204
0.000295094
0.000291834
0.000287358
0.000281633
0.000274677
0.000266535
0.00025733
0.000247229
0.000236347
0.000224894
0.000213288
0.000201613
0.000189634
0.00017683
0.000162811
0.000147957
0.000133433
0.000120359
0.00010904
9.92068e-05
9.06661e-05
8.31831e-05
7.75701e-05
6.97789e-05
0.000261667
0.000259648
0.000256609
0.000252528
0.000247377
0.000241172
0.000233972
0.000225936
0.000217105
0.000207593
0.000197745
0.000187658
0.000177176
0.000165921
0.000153616
0.000140538
0.000127591
0.000115712
0.00010526
9.60843e-05
8.81058e-05
8.10834e-05
7.58973e-05
6.90901e-05
0.000231192
0.000229253
0.00022643
0.000222691
0.000218027
0.000212463
0.000206122
0.000199026
0.000191219
0.000182945
0.000174314
0.000165228
0.000155416
0.000144671
0.000133207
0.000121718
0.000110984
0.000101377
9.2846e-05
8.53521e-05
7.88079e-05
7.35228e-05
6.94154e-05
0.000206034
0.000204909
0.000203047
0.00020041
0.000196978
0.000192744
0.000187796
0.000182147
0.000175802
0.000168904
0.000161583
0.000153781
0.000145294
0.000135971
0.000125971
0.00011583
0.000106189
9.74118e-05
8.95264e-05
8.25059e-05
7.64092e-05
7.10815e-05
6.80587e-05
0.00018322
0.000182094
0.000180312
0.00017785
0.000174694
0.000170882
0.000166435
0.00016133
0.000155632
0.000149483
0.000142849
0.000135569
0.000127527
0.000118849
0.000109946
0.00010134
9.33713e-05
8.61235e-05
7.95932e-05
7.38864e-05
6.88038e-05
6.55516e-05
0.000163917
0.000163339
0.000162215
0.000160514
0.000158214
0.000155317
0.00015186
0.000147803
0.00014315
0.000138032
0.00013244
0.000126245
0.000119357
0.000111868
0.000104096
9.64604e-05
8.92708e-05
8.2644e-05
7.66116e-05
7.12593e-05
6.6557e-05
6.28634e-05
0.000146533
0.000145909
0.000144797
0.000143173
0.000141024
0.000138387
0.000135203
0.000131449
0.000127233
0.000122564
0.000117338
0.000111478
0.000105053
9.83057e-05
9.15731e-05
8.51282e-05
7.91035e-05
7.35624e-05
6.85597e-05
6.4213e-05
6.03652e-05
0.00013148
0.000131231
0.000130575
0.000129487
0.000127939
0.000125961
0.000123497
0.000120508
0.000117074
0.000113213
0.000108845
0.000103898
9.8421e-05
9.25997e-05
8.67011e-05
8.09606e-05
7.55168e-05
7.0452e-05
6.58097e-05
6.17555e-05
5.80183e-05
0.000118026
0.000117716
0.000117041
0.00011597
0.000114522
0.000112652
0.000110311
0.000107548
0.000104389
0.000100772
9.66293e-05
9.19909e-05
8.70002e-05
8.18659e-05
7.67874e-05
7.18985e-05
6.72912e-05
6.30119e-05
5.9214e-05
5.56976e-05
0.000106144
0.000106094
0.000105736
0.000105045
0.000104022
0.000102635
0.000100838
9.86443e-05
9.60897e-05
9.31226e-05
8.96806e-05
8.57805e-05
8.15302e-05
7.709e-05
7.26273e-05
6.82647e-05
6.40968e-05
6.01734e-05
5.66221e-05
5.33316e-05
9.54561e-05
9.55975e-05
9.54819e-05
9.50855e-05
9.43995e-05
9.34059e-05
9.20533e-05
9.03367e-05
8.82956e-05
8.58903e-05
8.30582e-05
7.98048e-05
7.621e-05
7.23964e-05
6.84997e-05
6.46317e-05
6.08821e-05
5.73029e-05
5.40001e-05
5.09133e-05
8.61208e-05
8.61867e-05
8.60165e-05
8.55956e-05
8.49157e-05
8.39294e-05
8.2612e-05
8.10066e-05
7.90783e-05
7.67688e-05
7.40749e-05
7.10553e-05
6.78033e-05
6.44245e-05
6.10162e-05
5.76616e-05
5.44137e-05
5.13547e-05
4.84588e-05
7.75686e-05
7.77671e-05
7.77677e-05
7.75546e-05
7.71228e-05
7.64304e-05
7.54457e-05
7.42032e-05
7.26774e-05
7.08136e-05
6.86025e-05
6.6085e-05
6.33302e-05
6.04205e-05
5.74362e-05
5.44513e-05
5.15177e-05
4.87019e-05
4.59867e-05
6.98525e-05
7.01435e-05
7.02719e-05
7.02188e-05
6.99824e-05
6.95234e-05
6.88104e-05
6.78673e-05
6.66779e-05
6.51924e-05
6.33941e-05
6.13118e-05
5.89946e-05
5.65048e-05
5.39087e-05
5.12688e-05
4.86288e-05
4.60508e-05
4.35148e-05
6.3248e-05
6.3468e-05
6.35353e-05
6.34481e-05
6.31736e-05
6.2679e-05
6.1984e-05
6.10726e-05
5.99016e-05
5.84533e-05
5.67451e-05
5.48104e-05
5.26944e-05
5.04491e-05
4.81271e-05
4.57656e-05
4.34118e-05
4.10566e-05
5.70127e-05
5.72962e-05
5.74516e-05
5.74774e-05
5.73459e-05
5.70262e-05
5.65308e-05
5.58476e-05
5.49387e-05
5.3785e-05
5.23949e-05
5.07907e-05
4.90042e-05
4.70742e-05
4.50418e-05
4.29389e-05
4.08018e-05
3.86218e-05
5.13765e-05
5.17006e-05
5.19188e-05
5.20282e-05
5.20059e-05
5.18243e-05
5.14888e-05
5.099e-05
5.02961e-05
4.93881e-05
4.82667e-05
4.69462e-05
4.54474e-05
4.37978e-05
4.20288e-05
4.01639e-05
3.82319e-05
3.62233e-05
4.66315e-05
4.68926e-05
4.70616e-05
4.7121e-05
4.7045e-05
4.68354e-05
4.64844e-05
4.59657e-05
4.52597e-05
4.43642e-05
4.32852e-05
4.20353e-05
4.06327e-05
3.90999e-05
3.74545e-05
3.57147e-05
3.38731e-05
4.20435e-05
4.23303e-05
4.25394e-05
4.26578e-05
4.26622e-05
4.25498e-05
4.23157e-05
4.19371e-05
4.13966e-05
4.06881e-05
3.98129e-05
3.87769e-05
3.75907e-05
3.62687e-05
3.48222e-05
3.3263e-05
3.15816e-05
3.78906e-05
3.81907e-05
3.84254e-05
3.8585e-05
3.86485e-05
3.86099e-05
3.84669e-05
3.82006e-05
3.77936e-05
3.72387e-05
3.65337e-05
3.56797e-05
3.46808e-05
3.35453e-05
3.22788e-05
3.08871e-05
3.44392e-05
3.46875e-05
3.48737e-05
3.49788e-05
3.49953e-05
3.4922e-05
3.47429e-05
3.44424e-05
3.40126e-05
3.34488e-05
3.27484e-05
3.19108e-05
3.0939e-05
2.98343e-05
2.85968e-05
3.10405e-05
3.12939e-05
3.14954e-05
3.16286e-05
3.16847e-05
3.16633e-05
3.15513e-05
3.13352e-05
3.10064e-05
3.05585e-05
2.99864e-05
2.92864e-05
2.84573e-05
2.74967e-05
2.64009e-05
2.79641e-05
2.82157e-05
2.84238e-05
2.85738e-05
2.86574e-05
2.86741e-05
2.86128e-05
2.84622e-05
2.82138e-05
2.78602e-05
2.73946e-05
2.68113e-05
2.6106e-05
2.52731e-05
2.43061e-05
2.51813e-05
2.54267e-05
2.56345e-05
2.57928e-05
2.58939e-05
2.59368e-05
2.59132e-05
2.58129e-05
2.56278e-05
2.53502e-05
2.49725e-05
2.44875e-05
2.38885e-05
2.31683e-05
2.23181e-05
2.26656e-05
2.29006e-05
2.31034e-05
2.32638e-05
2.33749e-05
2.34355e-05
2.34389e-05
2.33764e-05
2.32406e-05
2.30237e-05
2.27178e-05
2.2315e-05
2.18072e-05
2.11857e-05
2.04405e-05
2.0615e-05
2.08095e-05
2.09675e-05
2.10828e-05
2.11539e-05
2.11756e-05
2.1141e-05
2.10431e-05
2.08744e-05
2.06269e-05
2.02924e-05
1.98622e-05
1.93269e-05
1.86758e-05
1.85488e-05
1.87326e-05
1.88847e-05
1.89994e-05
1.90759e-05
1.91099e-05
1.90953e-05
1.9026e-05
1.88951e-05
1.86948e-05
1.84168e-05
1.80525e-05
1.75921e-05
1.70247e-05
1.66821e-05
1.68537e-05
1.69978e-05
1.71091e-05
1.7187e-05
1.72282e-05
1.72274e-05
1.71793e-05
1.70778e-05
1.69154e-05
1.66842e-05
1.63755e-05
1.598e-05
1.54869e-05
1.49973e-05
1.5156e-05
1.52904e-05
1.53961e-05
1.54724e-05
1.5517e-05
1.55255e-05
1.5493e-05
1.54141e-05
1.52821e-05
1.50892e-05
1.48276e-05
1.44881e-05
1.40603e-05
1.34777e-05
1.36231e-05
1.37472e-05
1.38459e-05
1.39188e-05
1.39641e-05
1.39782e-05
1.39569e-05
1.38953e-05
1.37874e-05
1.36261e-05
1.3404e-05
1.31127e-05
1.27424e-05
1.22404e-05
1.23538e-05
1.24448e-05
1.2513e-05
1.2557e-05
1.2574e-05
1.25606e-05
1.25122e-05
1.24234e-05
1.2288e-05
1.20992e-05
1.18493e-05
1.15293e-05
1.09943e-05
1.10971e-05
1.118e-05
1.12425e-05
1.12841e-05
1.13024e-05
1.12942e-05
1.12557e-05
1.11822e-05
1.1068e-05
1.09072e-05
1.06927e-05
9.8724e-06
9.96476e-06
1.00394e-05
1.00962e-05
1.01346e-05
1.01527e-05
1.01479e-05
1.01168e-05
1.00553e-05
9.9586e-06
9.82129e-06
9.63717e-06
8.86288e-06
8.94546e-06
9.01222e-06
9.06308e-06
9.09778e-06
9.11489e-06
9.11217e-06
9.08664e-06
9.03474e-06
8.9524e-06
8.83487e-06
8.67671e-06
7.95535e-06
8.02881e-06
8.08804e-06
8.13309e-06
8.164e-06
8.17956e-06
8.17791e-06
8.15652e-06
8.11233e-06
8.04185e-06
7.941e-06
7.80503e-06
7.20508e-06
7.2573e-06
7.2969e-06
7.32401e-06
7.33774e-06
7.33652e-06
7.31823e-06
7.28026e-06
7.21958e-06
7.13278e-06
7.01581e-06
6.46546e-06
6.51125e-06
6.54575e-06
6.56923e-06
6.58105e-06
6.57989e-06
6.56391e-06
6.53095e-06
6.47845e-06
6.4035e-06
6.30272e-06
5.80189e-06
5.84179e-06
5.87163e-06
5.89175e-06
5.90168e-06
5.90028e-06
5.88605e-06
5.85719e-06
5.81154e-06
5.74667e-06
5.65968e-06
5.20693e-06
5.24153e-06
5.26715e-06
5.28417e-06
5.29228e-06
5.29052e-06
5.27765e-06
5.25216e-06
5.21228e-06
5.15596e-06
5.08076e-06
4.67375e-06
4.7036e-06
4.72545e-06
4.73972e-06
4.74614e-06
4.74398e-06
4.73219e-06
4.70951e-06
4.6745e-06
4.62543e-06
4.5603e-06
4.19622e-06
4.22188e-06
4.24041e-06
4.2522e-06
4.25709e-06
4.25451e-06
4.24359e-06
4.22328e-06
4.19239e-06
4.14951e-06
3.76873e-06
3.79073e-06
3.80631e-06
3.81594e-06
3.8195e-06
3.81651e-06
3.80629e-06
3.78799e-06
3.76061e-06
3.72301e-06
3.40508e-06
3.4181e-06
3.42583e-06
3.42823e-06
3.42487e-06
3.41523e-06
3.39862e-06
3.37424e-06
3.34115e-06
3.06035e-06
3.07113e-06
3.07721e-06
3.07858e-06
3.07492e-06
3.06579e-06
3.05063e-06
3.0288e-06
2.99955e-06
2.75205e-06
2.76092e-06
2.76561e-06
2.76614e-06
2.76225e-06
2.75358e-06
2.7397e-06
2.72008e-06
2.69413e-06
2.4758e-06
2.48307e-06
2.48661e-06
2.48646e-06
2.48244e-06
2.47426e-06
2.46157e-06
2.44394e-06
2.4209e-06
2.22737e-06
2.23326e-06
2.23586e-06
2.23523e-06
2.23122e-06
2.22359e-06
2.21205e-06
2.19627e-06
2.17587e-06
2.00332e-06
2.00804e-06
2.00986e-06
2.00885e-06
2.0049e-06
1.99782e-06
1.98737e-06
1.97331e-06
1.80175e-06
1.80544e-06
1.80655e-06
1.80518e-06
1.80123e-06
1.79458e-06
1.78506e-06
1.77246e-06
1.62143e-06
1.62418e-06
1.62463e-06
1.62285e-06
1.61882e-06
1.61242e-06
1.60355e-06
1.59207e-06
1.46315e-06
1.46296e-06
1.46077e-06
1.45656e-06
1.45028e-06
1.44182e-06
1.43115e-06
1.31981e-06
1.31903e-06
1.31643e-06
1.31202e-06
1.30574e-06
1.29752e-06
1.28742e-06
1.19362e-06
1.19272e-06
1.19017e-06
1.18618e-06
1.18031e-06
1.17261e-06
1.1636e-06
1.09402e-06
1.09284e-06
1.09003e-06
1.08627e-06
1.08048e-06
1.0728e-06
1.06469e-06
1.01335e-06
1.0117e-06
1.00827e-06
1.00401e-06
9.97626e-07
9.8913e-07
9.37255e-07
9.35901e-07
9.32747e-07
9.28723e-07
9.22668e-07
9.14383e-07
8.62522e-07
8.60561e-07
8.56736e-07
8.52012e-07
8.45569e-07
8.36584e-07
7.93185e-07
7.92147e-07
7.8935e-07
7.85458e-07
7.80135e-07
7.72829e-07
7.18143e-07
7.14559e-07
7.09169e-07
7.0307e-07
6.96015e-07
6.85256e-07
6.69924e-07
6.70205e-07
6.68698e-07
6.6498e-07
6.60659e-07
6.56671e-07
5.693e-07
5.61655e-07
5.55276e-07
5.4769e-07
5.3123e-07
6.02942e-07
6.06264e-07
6.0265e-07
6.01595e-07
6.12748e-07
4.74283e-07
4.75248e-07
4.8233e-07
4.7935e-07
4.60408e-07
7.1936e-07
7.39411e-07
7.37483e-07
7.46103e-07
7.84746e-07
8.04723e-07
8.28372e-07
8.62099e-07
1.14921e-06
1.21628e-06
1.17264e-06
1.11316e-06
)
;

boundaryField
{
    inlet
    {
        type            calculated;
        value           nonuniform List<scalar> 4(5.07496e-06 5.40014e-06 5.46933e-06 5.53318e-06);
    }
    outlet
    {
        type            calculated;
        value           nonuniform List<scalar> 0();
    }
    walls
    {
        type            calculated;
        value           nonuniform List<scalar> 
42
(
1.33464
1.54972
1.79082
2.01801
2.23583
2.44277
2.61923
2.76295
2.87506
2.95074
2.99522
3.00675
2.97863
2.91175
2.80302
2.65287
2.45663
2.21304
1.91684
1.57092
1.18456
0.793808
0.464593
0.278094
0.217158
0.244611
0.308514
0.382708
0.44936
0.496632
0.523151
0.532866
0.522595
0.494591
0.449084
1.12844
0.922789
0.715281
0.505524
0.321195
0.171951
0.0725352
)
;
    }
    frontAndBack
    {
        type            empty;
    }
    procBoundary5to0
    {
        type            processor;
        value           nonuniform List<scalar> 4(0.00059214 0.000585193 0.00057754 0.000568002);
    }
    procBoundary5to1
    {
        type            processor;
        value           nonuniform List<scalar> 
13
(
0.0033524
0.00250384
0.00250384
0.00200276
0.00169066
0.00169066
0.00134398
0.00113696
0.00113696
0.000927867
0.000767307
0.000659603
0.000659603
)
;
    }
    procBoundary5to4
    {
        type            processor;
        value           nonuniform List<scalar> 
95
(
0.000597566
0.000602092
0.000605593
0.000605593
0.000518688
0.000519704
0.000519704
0.000448516
0.000447721
0.000447721
0.000388446
0.000388446
0.000339
0.000339
0.000298242
0.000262747
0.000262747
0.00023229
0.00023229
0.000206467
0.000183744
0.000183744
0.000163992
0.000146705
0.000146705
0.000131352
0.000117997
0.000117997
0.000105913
9.50824e-05
8.5842e-05
8.5842e-05
7.71954e-05
6.94157e-05
6.28938e-05
6.28938e-05
5.6618e-05
5.09609e-05
4.6283e-05
4.6283e-05
4.16838e-05
3.75308e-05
3.41352e-05
3.41352e-05
3.07402e-05
2.76728e-05
2.49028e-05
2.24023e-05
2.03928e-05
2.03928e-05
1.83409e-05
1.64895e-05
1.48202e-05
1.33159e-05
1.21081e-05
1.21081e-05
1.08747e-05
9.76484e-06
8.76669e-06
7.86967e-06
7.14015e-06
7.14015e-06
6.40833e-06
5.75177e-06
5.1631e-06
4.63556e-06
4.16302e-06
3.73994e-06
3.38632e-06
3.38632e-06
3.04438e-06
2.73853e-06
2.4644e-06
2.21777e-06
1.99533e-06
1.79512e-06
1.61603e-06
1.46125e-06
1.46125e-06
1.31867e-06
1.19277e-06
1.09345e-06
1.01312e-06
9.36787e-07
8.6259e-07
7.92493e-07
7.20131e-07
6.67556e-07
5.75465e-07
5.75465e-07
5.98101e-07
4.71334e-07
7.01586e-07
7.54968e-07
1.14688e-06
)
;
    }
    procBoundary5to6
    {
        type            processor;
        value           nonuniform List<scalar> 
86
(
31.2578
11.7116
14.8985
15.3246
9.98482
2.28581
0.155411
0.0106636
0.00114334
0
0
2.91027e-06
4.45032e-05
9.46012e-05
8.71969e-05
7.01337e-05
6.12041e-05
5.95273e-05
5.99533e-05
5.95685e-05
5.79164e-05
5.55722e-05
5.30579e-05
5.05839e-05
4.81739e-05
4.57908e-05
4.34181e-05
4.10569e-05
3.87122e-05
3.64001e-05
3.41328e-05
3.19157e-05
2.97611e-05
2.93594e-05
2.93594e-05
2.72157e-05
2.51573e-05
2.31915e-05
2.13238e-05
1.95572e-05
1.78943e-05
1.63362e-05
1.48825e-05
1.35318e-05
1.22817e-05
1.11288e-05
1.04167e-05
1.04167e-05
9.39929e-06
8.47188e-06
7.62873e-06
6.86408e-06
6.1722e-06
5.54728e-06
4.98393e-06
4.47681e-06
4.09297e-06
4.09297e-06
3.67383e-06
3.29823e-06
2.96195e-06
2.66109e-06
2.39183e-06
2.15035e-06
1.95532e-06
1.95532e-06
1.75653e-06
1.5778e-06
1.41814e-06
1.27533e-06
1.15275e-06
1.05501e-06
9.80649e-07
9.80649e-07
9.05895e-07
8.27556e-07
7.64354e-07
6.75763e-07
6.47446e-07
5.23667e-07
6.00962e-07
4.67613e-07
8.07867e-07
8.07867e-07
8.65897e-07
1.46552e-06
)
;
    }
}


// ************************************************************************* //
