/*--------------------------------*- C++ -*----------------------------------*\
| =========                 |                                                 |
| \\      /  F ield         | OpenFOAM: The Open Source CFD Toolbox           |
|  \\    /   O peration     | Version:  2306                                  |
|   \\  /    A nd           | Website:  www.openfoam.com                      |
|    \\/     M anipulation  |                                                 |
\*---------------------------------------------------------------------------*/
FoamFile
{
    version     2.0;
    format      ascii;
    arch        "LSB;label=32;scalar=64";
    class       volScalarField;
    location    "325";
    object      nut;
}
// * * * * * * * * * * * * * * * * * * * * * * * * * * * * * * * * * * * * * //

dimensions      [0 2 -1 0 0 0 0];

internalField   nonuniform List<scalar> 
1340
(
2.58129e-05
2.95402e-05
3.45286e-05
4.09922e-05
4.93171e-05
6.00348e-05
7.38656e-05
9.11715e-05
0.00011299
0.000140366
0.000175255
0.000220771
0.000281345
0.000364935
0.000485128
0.000663945
0.000946027
0.00139545
0.00221788
0.00358983
0.00690461
0.012713
0.0339388
0.0760632
0.0937236
0.0946459
0.0956918
0.0992242
0.102737
0.104473
0.104452
0.103206
0.10084
0.0974092
0.0927896
2.25867e-05
1.98076e-05
1.7077e-05
1.45867e-05
1.22524e-05
1.01095e-05
8.24673e-06
5.08533e-06
4.98018e-06
4.88531e-06
4.80668e-06
4.71648e-06
4.63366e-06
4.57233e-06
4.51865e-06
4.49556e-06
4.5159e-06
4.54341e-06
4.81889e-06
5.88037e-06
8.65646e-06
1.64218e-05
3.68309e-05
8.39354e-05
0.00016291
0.000315518
0.00058855
0.00131783
0.00282684
0.00708691
0.0204338
0.0394657
0.0633197
0.0926156
0.123771
0.148777
0.162704
0.16799
0.168817
0.167236
0.163888
0.159375
5.16893e-06
5.28218e-06
5.3787e-06
5.50969e-06
5.64398e-06
5.77985e-06
6.26628e-06
6.28362e-06
6.30159e-06
6.32093e-06
6.34462e-06
6.37113e-06
6.40146e-06
6.43692e-06
6.47877e-06
6.52779e-06
6.58602e-06
6.65765e-06
6.73687e-06
6.88058e-06
6.88816e-06
6.46421e-06
5.01826e-06
3.83397e-06
5.48008e-08
0.000102203
3.46509e-05
0.000136334
0.000111008
0.000796362
0.00324213
0.00771801
0.0157663
0.0310805
0.057326
0.0937559
0.132815
0.164547
0.184975
0.196824
0.203518
6.25301e-06
6.23398e-06
6.21943e-06
6.19784e-06
6.1793e-06
6.15938e-06
6.08619e-06
6.08379e-06
6.08319e-06
6.08356e-06
6.08448e-06
6.08714e-06
6.09204e-06
6.09878e-06
6.10883e-06
6.12243e-06
6.14039e-06
6.1639e-06
6.19451e-06
6.23331e-06
6.28441e-06
6.34176e-06
6.24278e-06
5.82617e-06
3.97463e-06
1.23716e-06
1.09664e-20
3.14494e-06
1.22773e-06
0.000151231
0.000676656
0.00163969
0.00341633
0.000373962
0.00372653
0.0135697
0.0356193
0.0728357
0.118927
0.161447
0.19333
6.08687e-06
6.08921e-06
6.09233e-06
6.09452e-06
6.09831e-06
6.11126e-06
6.11182e-06
6.11209e-06
6.11298e-06
6.11453e-06
6.1165e-06
6.11917e-06
6.12275e-06
6.12745e-06
6.13363e-06
6.14172e-06
6.1523e-06
6.16618e-06
6.18401e-06
6.2082e-06
6.23644e-06
6.2803e-06
6.32349e-06
6.49674e-06
6.3001e-06
3.48526e-06
3.82897e-07
8.84973e-09
1.70989e-10
0
0
0
4.94657e-05
0.000820486
0.00305559
0.000891391
0.00810144
0.0296209
0.0708357
0.124259
6.11131e-06
6.10993e-06
6.11063e-06
6.10957e-06
6.11045e-06
6.10513e-06
6.10491e-06
6.1052e-06
6.10545e-06
6.10555e-06
6.10595e-06
6.10655e-06
6.10732e-06
6.10854e-06
6.11023e-06
6.11254e-06
6.11577e-06
6.12013e-06
6.12603e-06
6.13415e-06
6.14499e-06
6.16048e-06
6.17583e-06
6.21071e-06
6.31108e-06
6.51951e-06
5.604e-06
3.21072e-06
1.20063e-07
8.31149e-09
2.79425e-09
4.26862e-10
1.5509e-14
0
0
0.000191558
0.00184927
0.000391358
0.00879943
0.038168
6.10466e-06
6.10397e-06
6.10488e-06
6.10466e-06
6.10537e-06
6.10558e-06
6.10574e-06
6.10578e-06
6.10591e-06
6.106e-06
6.10618e-06
6.10652e-06
6.10699e-06
6.1077e-06
6.10874e-06
6.11021e-06
6.11227e-06
6.11515e-06
6.1191e-06
6.12468e-06
6.13223e-06
6.14042e-06
6.1491e-06
6.15819e-06
6.26115e-06
6.51737e-06
6.60908e-06
5.56425e-06
3.35628e-06
1.68488e-06
2.5284e-07
8.7805e-12
3.71743e-09
4.89365e-11
0
0
6.00611e-05
0.00206785
0.00168332
6.1049e-06
6.10384e-06
6.10423e-06
6.10391e-06
6.10494e-06
6.10508e-06
6.10536e-06
6.10533e-06
6.10515e-06
6.10502e-06
6.10487e-06
6.1047e-06
6.10466e-06
6.10466e-06
6.10475e-06
6.10498e-06
6.10535e-06
6.10594e-06
6.10683e-06
6.1082e-06
6.1102e-06
6.11284e-06
6.11503e-06
6.11598e-06
6.12347e-06
6.15691e-06
6.26572e-06
6.57775e-06
6.7415e-06
6.55001e-06
5.545e-06
3.69026e-06
1.85382e-06
2.5521e-08
7.10863e-09
1.00741e-11
0
0
0.000407742
6.10435e-06
6.10321e-06
6.10321e-06
6.10279e-06
6.10487e-06
6.105e-06
6.10514e-06
6.10495e-06
6.10476e-06
6.10448e-06
6.10426e-06
6.10414e-06
6.10401e-06
6.10396e-06
6.10398e-06
6.10409e-06
6.10432e-06
6.10472e-06
6.10535e-06
6.1063e-06
6.10772e-06
6.10964e-06
6.1115e-06
6.11313e-06
6.11363e-06
6.11832e-06
6.11473e-06
6.15184e-06
6.30878e-06
6.5794e-06
6.97521e-06
7.08447e-06
6.92933e-06
4.91508e-06
2.72087e-06
4.90435e-09
2.87822e-09
0
0
6.10429e-06
6.10304e-06
6.10269e-06
6.10421e-06
6.10392e-06
6.10362e-06
6.1034e-06
6.10318e-06
6.103e-06
6.10285e-06
6.10274e-06
6.10266e-06
6.1026e-06
6.10257e-06
6.10257e-06
6.10264e-06
6.10271e-06
6.10295e-06
6.10356e-06
6.10433e-06
6.10749e-06
6.1093e-06
6.09738e-06
6.09395e-06
6.13711e-06
6.27959e-06
6.52766e-06
6.89044e-06
7.29199e-06
7.4952e-06
5.07393e-06
1.13323e-06
1.05938e-08
0
6.10306e-06
6.10286e-06
6.10268e-06
6.10254e-06
6.10245e-06
6.10239e-06
6.10238e-06
6.10242e-06
6.10252e-06
6.10273e-06
6.10306e-06
6.10356e-06
6.10415e-06
6.10471e-06
6.10512e-06
6.10571e-06
6.1083e-06
6.10836e-06
6.09931e-06
6.08561e-06
6.08157e-06
6.11765e-06
6.21184e-06
6.46448e-06
6.87386e-06
7.6266e-06
7.13165e-06
2.97027e-06
1.5171e-08
6.10218e-06
6.10205e-06
6.10195e-06
6.10187e-06
6.10181e-06
6.10178e-06
6.10178e-06
6.10182e-06
6.1019e-06
6.10204e-06
6.10226e-06
6.10268e-06
6.10328e-06
6.1039e-06
6.10509e-06
6.10742e-06
6.10827e-06
6.10474e-06
6.09489e-06
6.08292e-06
6.07281e-06
6.09974e-06
6.17317e-06
6.51102e-06
7.20805e-06
7.74723e-06
3.85043e-06
6.10171e-06
6.10164e-06
6.1016e-06
6.10158e-06
6.10158e-06
6.1016e-06
6.10167e-06
6.10178e-06
6.10196e-06
6.10221e-06
6.10253e-06
6.10294e-06
6.10341e-06
6.10397e-06
6.10508e-06
6.10688e-06
6.10854e-06
6.10836e-06
6.10469e-06
6.09546e-06
6.08293e-06
6.06664e-06
6.07496e-06
6.25269e-06
6.79174e-06
8.45746e-06
6.10143e-06
6.10141e-06
6.1014e-06
6.10141e-06
6.10142e-06
6.10147e-06
6.10153e-06
6.10164e-06
6.10179e-06
6.10202e-06
6.10235e-06
6.10278e-06
6.10329e-06
6.10394e-06
6.10498e-06
6.10653e-06
6.10837e-06
6.10983e-06
6.10999e-06
6.10675e-06
6.09908e-06
6.07374e-06
6.05353e-06
6.08356e-06
6.68186e-06
6.1013e-06
6.10131e-06
6.10133e-06
6.10137e-06
6.1014e-06
6.10145e-06
6.10151e-06
6.10161e-06
6.10174e-06
6.10193e-06
6.10217e-06
6.10249e-06
6.1029e-06
6.1034e-06
6.10408e-06
6.10507e-06
6.10647e-06
6.10817e-06
6.11015e-06
6.11193e-06
6.11325e-06
6.11185e-06
6.08165e-06
6.10863e-06
5.63447e-06
6.10131e-06
6.10136e-06
6.1014e-06
6.10144e-06
6.10149e-06
6.10155e-06
6.10163e-06
6.10173e-06
6.10187e-06
6.10206e-06
6.10232e-06
6.10265e-06
6.10306e-06
6.1036e-06
6.10435e-06
6.10536e-06
6.10664e-06
6.10816e-06
6.11019e-06
6.11199e-06
6.11925e-06
6.10344e-06
6.16751e-06
5.8173e-06
6.1014e-06
6.10146e-06
6.10151e-06
6.10157e-06
6.10162e-06
6.1017e-06
6.10178e-06
6.1019e-06
6.10206e-06
6.10226e-06
6.10253e-06
6.10286e-06
6.10332e-06
6.10393e-06
6.10474e-06
6.10578e-06
6.10698e-06
6.10854e-06
6.10974e-06
6.11444e-06
6.11302e-06
6.12578e-06
6.19175e-06
6.10147e-06
6.10155e-06
6.10161e-06
6.10167e-06
6.10173e-06
6.1018e-06
6.10187e-06
6.10197e-06
6.1021e-06
6.10227e-06
6.10249e-06
6.10277e-06
6.10315e-06
6.10366e-06
6.10434e-06
6.10522e-06
6.10628e-06
6.10752e-06
6.10893e-06
6.10988e-06
6.11872e-06
6.08395e-06
6.31236e-06
6.10163e-06
6.1017e-06
6.10176e-06
6.10182e-06
6.10188e-06
6.10195e-06
6.10204e-06
6.10215e-06
6.10229e-06
6.10247e-06
6.10271e-06
6.10303e-06
6.10347e-06
6.10405e-06
6.1048e-06
6.10575e-06
6.10678e-06
6.10842e-06
6.10791e-06
6.11875e-06
6.08141e-06
6.24509e-06
6.10171e-06
6.10179e-06
6.10186e-06
6.10193e-06
6.102e-06
6.10207e-06
6.10215e-06
6.10224e-06
6.10237e-06
6.10252e-06
6.10271e-06
6.10298e-06
6.10335e-06
6.10385e-06
6.10449e-06
6.10531e-06
6.10621e-06
6.10773e-06
6.10758e-06
6.11471e-06
6.09747e-06
6.15274e-06
6.10189e-06
6.10197e-06
6.10205e-06
6.10212e-06
6.10219e-06
6.10228e-06
6.10237e-06
6.10248e-06
6.10261e-06
6.10278e-06
6.103e-06
6.10331e-06
6.10374e-06
6.10429e-06
6.105e-06
6.1058e-06
6.107e-06
6.10767e-06
6.11055e-06
6.11014e-06
6.10426e-06
6.10199e-06
6.10208e-06
6.10216e-06
6.10224e-06
6.10232e-06
6.1024e-06
6.10249e-06
6.10259e-06
6.10272e-06
6.10286e-06
6.10306e-06
6.10333e-06
6.1037e-06
6.10417e-06
6.10478e-06
6.10552e-06
6.10644e-06
6.10758e-06
6.10823e-06
6.11403e-06
6.09457e-06
6.10219e-06
6.10228e-06
6.10237e-06
6.10245e-06
6.10254e-06
6.10263e-06
6.10273e-06
6.10284e-06
6.10298e-06
6.10315e-06
6.10338e-06
6.1037e-06
6.10412e-06
6.10465e-06
6.10532e-06
6.10608e-06
6.10727e-06
6.10748e-06
6.11277e-06
6.10044e-06
6.1023e-06
6.1024e-06
6.10249e-06
6.10258e-06
6.10268e-06
6.10277e-06
6.10287e-06
6.10298e-06
6.10311e-06
6.10326e-06
6.10347e-06
6.10375e-06
6.10412e-06
6.10458e-06
6.10518e-06
6.10586e-06
6.10688e-06
6.10739e-06
6.11046e-06
6.10698e-06
6.10241e-06
6.10252e-06
6.10262e-06
6.10272e-06
6.10282e-06
6.10292e-06
6.10302e-06
6.10313e-06
6.10325e-06
6.1034e-06
6.10359e-06
6.10383e-06
6.10415e-06
6.10457e-06
6.10509e-06
6.10572e-06
6.10656e-06
6.10736e-06
6.10888e-06
6.10995e-06
6.10264e-06
6.10275e-06
6.10286e-06
6.10297e-06
6.10307e-06
6.10318e-06
6.1033e-06
6.10341e-06
6.10355e-06
6.10372e-06
6.10394e-06
6.10423e-06
6.1046e-06
6.10506e-06
6.10563e-06
6.10635e-06
6.10723e-06
6.10813e-06
6.11029e-06
6.10276e-06
6.10289e-06
6.103e-06
6.10312e-06
6.10323e-06
6.10335e-06
6.10347e-06
6.10359e-06
6.10372e-06
6.10388e-06
6.10408e-06
6.10434e-06
6.10467e-06
6.10508e-06
6.1056e-06
6.10623e-06
6.10707e-06
6.10785e-06
6.10968e-06
6.10288e-06
6.10301e-06
6.10314e-06
6.10326e-06
6.10338e-06
6.1035e-06
6.10363e-06
6.10376e-06
6.10389e-06
6.10405e-06
6.10424e-06
6.10447e-06
6.10477e-06
6.10515e-06
6.10561e-06
6.10619e-06
6.10693e-06
6.10772e-06
6.10907e-06
6.10314e-06
6.10327e-06
6.10341e-06
6.10354e-06
6.10367e-06
6.1038e-06
6.10393e-06
6.10407e-06
6.10422e-06
6.1044e-06
6.10462e-06
6.10489e-06
6.10524e-06
6.10566e-06
6.10619e-06
6.10685e-06
6.10764e-06
6.10869e-06
6.10326e-06
6.10341e-06
6.10355e-06
6.10369e-06
6.10383e-06
6.10397e-06
6.10411e-06
6.10425e-06
6.1044e-06
6.10457e-06
6.10478e-06
6.10504e-06
6.10535e-06
6.10574e-06
6.10623e-06
6.10683e-06
6.10757e-06
6.1085e-06
6.10338e-06
6.10354e-06
6.1037e-06
6.10385e-06
6.104e-06
6.10415e-06
6.10429e-06
6.10444e-06
6.10459e-06
6.10476e-06
6.10496e-06
6.1052e-06
6.10549e-06
6.10585e-06
6.1063e-06
6.10685e-06
6.10753e-06
6.10841e-06
6.10367e-06
6.10384e-06
6.104e-06
6.10416e-06
6.10432e-06
6.10447e-06
6.10462e-06
6.10478e-06
6.10495e-06
6.10514e-06
6.10537e-06
6.10565e-06
6.10599e-06
6.1064e-06
6.10691e-06
6.10754e-06
6.10836e-06
6.1038e-06
6.10398e-06
6.10415e-06
6.10432e-06
6.10449e-06
6.10465e-06
6.10481e-06
6.10497e-06
6.10514e-06
6.10534e-06
6.10556e-06
6.10582e-06
6.10614e-06
6.10653e-06
6.107e-06
6.10758e-06
6.10835e-06
6.10393e-06
6.10412e-06
6.1043e-06
6.10448e-06
6.10466e-06
6.10483e-06
6.105e-06
6.10517e-06
6.10534e-06
6.10553e-06
6.10575e-06
6.10601e-06
6.10631e-06
6.10667e-06
6.10712e-06
6.10766e-06
6.10425e-06
6.10445e-06
6.10464e-06
6.10483e-06
6.10501e-06
6.10519e-06
6.10536e-06
6.10554e-06
6.10574e-06
6.10595e-06
6.1062e-06
6.10649e-06
6.10684e-06
6.10726e-06
6.10777e-06
6.10439e-06
6.10459e-06
6.1048e-06
6.105e-06
6.10519e-06
6.10538e-06
6.10556e-06
6.10574e-06
6.10594e-06
6.10616e-06
6.10641e-06
6.10669e-06
6.10702e-06
6.10742e-06
6.1079e-06
6.10451e-06
6.10473e-06
6.10495e-06
6.10516e-06
6.10537e-06
6.10556e-06
6.10575e-06
6.10594e-06
6.10615e-06
6.10637e-06
6.10662e-06
6.1069e-06
6.10722e-06
6.1076e-06
6.10806e-06
6.10464e-06
6.10487e-06
6.1051e-06
6.10532e-06
6.10554e-06
6.10574e-06
6.10594e-06
6.10614e-06
6.10636e-06
6.10658e-06
6.10683e-06
6.10711e-06
6.10742e-06
6.1078e-06
6.10823e-06
6.10475e-06
6.105e-06
6.10524e-06
6.10547e-06
6.1057e-06
6.10592e-06
6.10613e-06
6.10634e-06
6.10656e-06
6.10679e-06
6.10704e-06
6.10732e-06
6.10764e-06
6.108e-06
6.10842e-06
6.10511e-06
6.10537e-06
6.10562e-06
6.10586e-06
6.10608e-06
6.1063e-06
6.10652e-06
6.10675e-06
6.107e-06
6.10726e-06
6.10754e-06
6.10785e-06
6.10821e-06
6.10862e-06
6.10521e-06
6.10548e-06
6.10574e-06
6.106e-06
6.10623e-06
6.10647e-06
6.1067e-06
6.10694e-06
6.10719e-06
6.10746e-06
6.10775e-06
6.10807e-06
6.10842e-06
6.10882e-06
6.1053e-06
6.10558e-06
6.10585e-06
6.10612e-06
6.10637e-06
6.10661e-06
6.10686e-06
6.10711e-06
6.10737e-06
6.10765e-06
6.10795e-06
6.10827e-06
6.10863e-06
6.10903e-06
6.10536e-06
6.10565e-06
6.10594e-06
6.10622e-06
6.10648e-06
6.10674e-06
6.107e-06
6.10726e-06
6.10754e-06
6.10783e-06
6.10814e-06
6.10847e-06
6.10883e-06
6.10923e-06
6.10539e-06
6.1057e-06
6.106e-06
6.10629e-06
6.10657e-06
6.10684e-06
6.10711e-06
6.10739e-06
6.10768e-06
6.10798e-06
6.1083e-06
6.10864e-06
6.10902e-06
6.10942e-06
6.10571e-06
6.10603e-06
6.10634e-06
6.10663e-06
6.10691e-06
6.10719e-06
6.10749e-06
6.10779e-06
6.10811e-06
6.10844e-06
6.1088e-06
6.10918e-06
6.1096e-06
6.10569e-06
6.10602e-06
6.10634e-06
6.10664e-06
6.10694e-06
6.10724e-06
6.10755e-06
6.10787e-06
6.1082e-06
6.10855e-06
6.10892e-06
6.10932e-06
6.10563e-06
6.10597e-06
6.10631e-06
6.10662e-06
6.10693e-06
6.10725e-06
6.10757e-06
6.10791e-06
6.10826e-06
6.10862e-06
6.10901e-06
6.10942e-06
6.10551e-06
6.10587e-06
6.10622e-06
6.10655e-06
6.10688e-06
6.10721e-06
6.10755e-06
6.1079e-06
6.10827e-06
6.10865e-06
6.10905e-06
6.10948e-06
6.10534e-06
6.10572e-06
6.10608e-06
6.10642e-06
6.10677e-06
6.10711e-06
6.10747e-06
6.10784e-06
6.10822e-06
6.10863e-06
6.10905e-06
6.10949e-06
6.1055e-06
6.10587e-06
6.10624e-06
6.10659e-06
6.10695e-06
6.10733e-06
6.10772e-06
6.10812e-06
6.10854e-06
6.10898e-06
6.10945e-06
6.10521e-06
6.1056e-06
6.10598e-06
6.10635e-06
6.10673e-06
6.10712e-06
6.10753e-06
6.10795e-06
6.10839e-06
6.10885e-06
6.10934e-06
6.10484e-06
6.10525e-06
6.10564e-06
6.10602e-06
6.10642e-06
6.10683e-06
6.10725e-06
6.1077e-06
6.10816e-06
6.10864e-06
6.10915e-06
6.10438e-06
6.1048e-06
6.10521e-06
6.10561e-06
6.10602e-06
6.10645e-06
6.1069e-06
6.10736e-06
6.10784e-06
6.10835e-06
6.10888e-06
6.10383e-06
6.10427e-06
6.10469e-06
6.10511e-06
6.10553e-06
6.10598e-06
6.10644e-06
6.10693e-06
6.10743e-06
6.10796e-06
6.10852e-06
6.10318e-06
6.10363e-06
6.10407e-06
6.1045e-06
6.10494e-06
6.10541e-06
6.10589e-06
6.10639e-06
6.10692e-06
6.10747e-06
6.10243e-06
6.10289e-06
6.10334e-06
6.10378e-06
6.10424e-06
6.10472e-06
6.10522e-06
6.10575e-06
6.10629e-06
6.10686e-06
6.10205e-06
6.10251e-06
6.10296e-06
6.10344e-06
6.10393e-06
6.10445e-06
6.10499e-06
6.10555e-06
6.10614e-06
6.1011e-06
6.10157e-06
6.10204e-06
6.10253e-06
6.10304e-06
6.10357e-06
6.10412e-06
6.10471e-06
6.10531e-06
6.10001e-06
6.10049e-06
6.10098e-06
6.10148e-06
6.10201e-06
6.10256e-06
6.10314e-06
6.10374e-06
6.10437e-06
6.09872e-06
6.09922e-06
6.09972e-06
6.10024e-06
6.10079e-06
6.10136e-06
6.10197e-06
6.1026e-06
6.10325e-06
6.09713e-06
6.09763e-06
6.09815e-06
6.09869e-06
6.09926e-06
6.09987e-06
6.1005e-06
6.10117e-06
6.10187e-06
6.09518e-06
6.09568e-06
6.0962e-06
6.09675e-06
6.09734e-06
6.09797e-06
6.09864e-06
6.09934e-06
6.09294e-06
6.09342e-06
6.09393e-06
6.09447e-06
6.09506e-06
6.0957e-06
6.09638e-06
6.0971e-06
6.09056e-06
6.09102e-06
6.0915e-06
6.09202e-06
6.09259e-06
6.09321e-06
6.09387e-06
6.09458e-06
6.08858e-06
6.08904e-06
6.08954e-06
6.09008e-06
6.09066e-06
6.0913e-06
6.09197e-06
6.0861e-06
6.08654e-06
6.08701e-06
6.08753e-06
6.08809e-06
6.08869e-06
6.08934e-06
6.08348e-06
6.08391e-06
6.08438e-06
6.0849e-06
6.08546e-06
6.08606e-06
6.08671e-06
6.08095e-06
6.08137e-06
6.08184e-06
6.08235e-06
6.08292e-06
6.08354e-06
6.08419e-06
6.07863e-06
6.07901e-06
6.07944e-06
6.07992e-06
6.08046e-06
6.08103e-06
6.07631e-06
6.07665e-06
6.07702e-06
6.07744e-06
6.07792e-06
6.07842e-06
6.07399e-06
6.07427e-06
6.07458e-06
6.07494e-06
6.07536e-06
6.07578e-06
6.07182e-06
6.07202e-06
6.07224e-06
6.07251e-06
6.07284e-06
6.07316e-06
6.0706e-06
6.07064e-06
6.07069e-06
6.07076e-06
6.07087e-06
6.071e-06
6.07205e-06
6.07197e-06
6.07188e-06
6.07176e-06
6.07161e-06
6.07151e-06
6.07471e-06
6.07467e-06
6.07459e-06
6.07445e-06
6.07435e-06
6.07781e-06
6.07783e-06
6.0778e-06
6.07765e-06
6.07765e-06
6.08103e-06
6.08118e-06
6.08135e-06
6.08148e-06
6.08156e-06
6.08445e-06
6.08468e-06
6.08473e-06
6.08462e-06
6.08689e-06
6.08769e-06
6.08872e-06
6.08979e-06
6.09832e-06
6.09889e-06
6.09947e-06
6.09972e-06
)
;

boundaryField
{
    inlet
    {
        type            freestream;
        freestreamValue uniform 1e-05;
        value           nonuniform List<scalar> 4(6.09832e-06 6.09889e-06 6.09947e-06 6.09972e-06);
    }
    outlet
    {
        type            freestream;
        freestreamValue nonuniform List<scalar> 0();
        value           nonuniform List<scalar> 0();
    }
    walls
    {
        type            nutUSpaldingWallFunction;
        value           nonuniform List<scalar> 
42
(
0.0032263
0.00345269
0.00368901
0.00387662
0.00405245
0.00420708
0.00432753
0.00442005
0.00448709
0.0045268
0.00454649
0.00454467
0.00451599
0.00446264
0.00438038
0.00426715
0.00411648
0.00392193
0.00367007
0.00334958
0.00294372
0.00245234
0.00192238
0.00152355
0.00136008
0.00143166
0.00158897
0.00175223
0.00188508
0.001973
0.00202028
0.00203711
0.00201897
0.00196889
0.00188415
0.00298609
0.00271426
0.00241549
0.00204582
0.00164385
0.00120876
0.000770175
)
;
    }
    frontAndBack
    {
        type            empty;
    }
    procBoundary5to0
    {
        type            processor;
        value           nonuniform List<scalar> 4(6.10478e-06 6.10428e-06 6.103e-06 6.10236e-06);
    }
    procBoundary5to1
    {
        type            processor;
        value           nonuniform List<scalar> 
13
(
6.96337e-06
5.91096e-06
5.91096e-06
6.14164e-06
6.10035e-06
6.10035e-06
6.10925e-06
6.10636e-06
6.10636e-06
6.10556e-06
6.1044e-06
6.1021e-06
6.1021e-06
)
;
    }
    procBoundary5to4
    {
        type            processor;
        value           nonuniform List<scalar> 
95
(
6.10479e-06
6.1048e-06
6.10451e-06
6.10451e-06
6.10369e-06
6.10336e-06
6.10336e-06
6.10256e-06
6.10236e-06
6.10236e-06
6.1018e-06
6.1018e-06
6.10145e-06
6.10145e-06
6.10129e-06
6.10126e-06
6.10126e-06
6.10134e-06
6.10134e-06
6.1014e-06
6.10155e-06
6.10155e-06
6.10162e-06
6.10181e-06
6.10181e-06
6.10189e-06
6.10209e-06
6.10209e-06
6.10219e-06
6.10229e-06
6.10252e-06
6.10252e-06
6.10263e-06
6.10274e-06
6.10299e-06
6.10299e-06
6.10311e-06
6.10322e-06
6.1035e-06
6.1035e-06
6.10362e-06
6.10374e-06
6.10405e-06
6.10405e-06
6.10417e-06
6.10429e-06
6.1044e-06
6.1045e-06
6.10485e-06
6.10485e-06
6.10494e-06
6.10501e-06
6.10506e-06
6.10508e-06
6.10539e-06
6.10539e-06
6.10535e-06
6.10527e-06
6.10515e-06
6.10496e-06
6.10511e-06
6.10511e-06
6.1048e-06
6.10442e-06
6.10395e-06
6.10339e-06
6.10273e-06
6.10196e-06
6.10157e-06
6.10157e-06
6.10061e-06
6.09951e-06
6.09822e-06
6.09663e-06
6.09469e-06
6.09247e-06
6.09012e-06
6.08815e-06
6.08815e-06
6.08569e-06
6.08308e-06
6.08057e-06
6.07829e-06
6.07601e-06
6.07374e-06
6.07166e-06
6.07057e-06
6.0721e-06
6.07473e-06
6.07473e-06
6.07777e-06
6.08084e-06
6.08424e-06
6.08604e-06
6.09762e-06
)
;
    }
    procBoundary5to6
    {
        type            processor;
        value           nonuniform List<scalar> 
86
(
0.0869094
0.15387
0.206393
0.215452
0.175178
0.0933844
0.0215614
0.00087167
0.000194231
0
0
9.60842e-09
2.2901e-06
1.01951e-05
9.23007e-06
6.4556e-06
5.26771e-06
5.30842e-06
5.74247e-06
6.0764e-06
6.19505e-06
6.18582e-06
6.14639e-06
6.11967e-06
6.10967e-06
6.10838e-06
6.10931e-06
6.10991e-06
6.1099e-06
6.10966e-06
6.10941e-06
6.10925e-06
6.10916e-06
6.10838e-06
6.10838e-06
6.10844e-06
6.10853e-06
6.10864e-06
6.10879e-06
6.10895e-06
6.10913e-06
6.10932e-06
6.10952e-06
6.10971e-06
6.1099e-06
6.11008e-06
6.10974e-06
6.10974e-06
6.10986e-06
6.10994e-06
6.10997e-06
6.10994e-06
6.10985e-06
6.10969e-06
6.10944e-06
6.1091e-06
6.10805e-06
6.10805e-06
6.10746e-06
6.10677e-06
6.10595e-06
6.10503e-06
6.10394e-06
6.1026e-06
6.10009e-06
6.10009e-06
6.09787e-06
6.09535e-06
6.0927e-06
6.09003e-06
6.0874e-06
6.0849e-06
6.08166e-06
6.08166e-06
6.07898e-06
6.07625e-06
6.07354e-06
6.07117e-06
6.07139e-06
6.07421e-06
6.07754e-06
6.08166e-06
6.08489e-06
6.08489e-06
6.09051e-06
6.10006e-06
)
;
    }
}


// ************************************************************************* //
