/*--------------------------------*- C++ -*----------------------------------*\
| =========                 |                                                 |
| \\      /  F ield         | OpenFOAM: The Open Source CFD Toolbox           |
|  \\    /   O peration     | Version:  2306                                  |
|   \\  /    A nd           | Website:  www.openfoam.com                      |
|    \\/     M anipulation  |                                                 |
\*---------------------------------------------------------------------------*/
FoamFile
{
    version     2.0;
    format      ascii;
    arch        "LSB;label=32;scalar=64";
    class       volScalarField;
    location    "325";
    object      turbulenceProperties:L;
}
// * * * * * * * * * * * * * * * * * * * * * * * * * * * * * * * * * * * * * //

dimensions      [0 1 0 0 0 0 0];

internalField   nonuniform List<scalar> 
1340
(
0.00178906
0.0017133
0.00164692
0.00158331
0.00154544
0.00152525
0.00152698
0.0015552
0.00161197
0.00170013
0.00182529
0.00199346
0.00221105
0.00249254
0.00286031
0.00334544
0.00400952
0.00491191
0.00628182
0.00817111
0.011718
0.0166924
0.0291159
0.0467197
0.054696
0.0564724
0.0575965
0.0591827
0.0606062
0.0614596
0.0618559
0.0620496
0.0621919
0.0623491
0.06259
0.00188268
0.0019809
0.0021403
0.00233255
0.00260291
0.00298935
0.00351444
0.00386717
0.00387782
0.00390024
0.00395788
0.00405241
0.00416996
0.00432265
0.0045161
0.00473537
0.0049843
0.00526233
0.00548421
0.00552507
0.00534524
0.00500141
0.00478945
0.00499069
0.0055568
0.00657247
0.00776827
0.0101079
0.0130389
0.0186712
0.0300562
0.0414618
0.0541994
0.0691074
0.0853897
0.101202
0.115557
0.12925
0.143049
0.155798
0.166581
0.175324
0.00388504
0.00391205
0.00396865
0.00405731
0.00418855
0.00438242
0.00473337
0.00475243
0.00480722
0.00489461
0.00499134
0.00510452
0.00522715
0.00534545
0.00545405
0.00554332
0.00561586
0.00565967
0.00567302
0.00565221
0.00564472
0.0057232
0.00609873
0.00658893
0.0288533
0.00549445
0.00525718
0.00813525
0.0198936
0.0187539
0.0264479
0.0344857
0.0445964
0.0588035
0.0772753
0.0983378
0.119604
0.139453
0.158558
0.178051
0.197654
0.00471483
0.00471744
0.00472349
0.00476576
0.004844
0.00498471
0.00514919
0.00514384
0.00515679
0.0051784
0.00522386
0.00529382
0.00538513
0.00550605
0.00565478
0.00583422
0.00604747
0.00630008
0.00660048
0.00695706
0.00738495
0.00793057
0.00861053
0.00939443
0.0108003
0.0151808
0.0204557
0.0094785
0.0118393
0.00748148
0.0160977
0.0284584
0.0507332
0.0271
0.0706569
0.0819519
0.102985
0.1276
0.152226
0.175467
0.198544
0.00517705
0.00522014
0.00528999
0.00537795
0.00549469
0.00594537
0.00595063
0.00597401
0.00601639
0.00608378
0.00617888
0.0063
0.0064495
0.00662747
0.00682763
0.00704696
0.00727853
0.00751118
0.00773398
0.00793544
0.00811767
0.00832389
0.00859829
0.00892468
0.00945427
0.0115499
0.0241258
0.0926862
0.380848
0
0
0
0.00677903
0.0195024
0.040061
0.0256237
0.127893
0.186754
0.184956
0.202651
0.00595308
0.00597422
0.00601707
0.00608758
0.0061914
0.00656676
0.0065528
0.00655412
0.00656586
0.00659835
0.00665204
0.00672606
0.00682553
0.00695156
0.00710463
0.00728818
0.00750359
0.00775204
0.00803598
0.00835787
0.00873603
0.00921261
0.00979354
0.0104538
0.0111528
0.0118283
0.0129624
0.015474
0.0472629
0.125872
0.189332
0.383032
16.3459
0
0
0.0118337
0.0349281
0.017154
0.106601
0.312262
0.0065967
0.00663878
0.00670148
0.00678697
0.00730121
0.00728523
0.00728269
0.00729192
0.00732114
0.00737258
0.00744636
0.00754681
0.00767616
0.00783483
0.00802488
0.00824708
0.00850032
0.00878282
0.00909269
0.00942259
0.0097549
0.0100985
0.0104898
0.0109507
0.0114479
0.0119292
0.0125038
0.0137215
0.0166455
0.0219623
0.0454286
2.2286
0.238607
1.20194
0
0
0.0109889
0.0445359
0.0417099
0.00733135
0.00737278
0.00743436
0.00752172
0.00801977
0.00799254
0.0079765
0.00797006
0.00798099
0.00801109
0.00805978
0.00813179
0.00822901
0.00835194
0.00850408
0.00868673
0.00890126
0.00914983
0.00943443
0.00975609
0.0101276
0.0105729
0.0110899
0.0116563
0.0122334
0.0127652
0.0132113
0.0135972
0.014255
0.0154144
0.0174936
0.0212918
0.0282886
0.138933
0.233947
2.78362
0
0
0.0260328
0.0080612
0.00811199
0.00818164
0.0082769
0.00878079
0.0087464
0.00872159
0.0087062
0.00870675
0.00872549
0.00876231
0.0088221
0.00890682
0.00901778
0.00915827
0.00933011
0.00953493
0.00977492
0.010051
0.0103656
0.0107185
0.0111015
0.0115178
0.0119728
0.0124635
0.0129651
0.013461
0.0139648
0.014551
0.0153317
0.0163122
0.0176092
0.0191067
0.0223425
0.0282074
0.287024
0.363751
0
0
0.00882858
0.00888488
0.00895929
0.00944387
0.00944714
0.00946689
0.00950788
0.00957164
0.00965959
0.00977523
0.0099203
0.0100967
0.010307
0.0105533
0.0108382
0.0111628
0.0115359
0.0119657
0.012444
0.012951
0.0134603
0.0139584
0.0144866
0.0151324
0.0159713
0.0169769
0.0180365
0.0190208
0.0199691
0.0210872
0.0246073
0.0408786
0.231608
0
0.010214
0.0102398
0.0102876
0.0103587
0.0104568
0.0105838
0.0107421
0.0109345
0.011163
0.0114302
0.0117385
0.0120883
0.0124789
0.0129093
0.0133707
0.0138521
0.0143455
0.0148794
0.0155341
0.0163897
0.0174507
0.0186038
0.0197098
0.0206519
0.0214705
0.0220794
0.0235696
0.0310799
0.20833
0.0110285
0.0110809
0.011159
0.0112647
0.0114004
0.011569
0.011773
0.012015
0.0122972
0.0126205
0.0129903
0.0134067
0.013858
0.0143315
0.0148226
0.0153545
0.0159941
0.0168165
0.0178406
0.0189909
0.020155
0.0212567
0.0222987
0.0230886
0.0235689
0.0241182
0.0298741
0.0118425
0.0119024
0.0119889
0.0121047
0.0122529
0.0124357
0.012656
0.0129165
0.0132174
0.013561
0.0139477
0.0143713
0.0148236
0.0153042
0.0158331
0.016463
0.0172566
0.018234
0.019339
0.0204791
0.0216058
0.022726
0.0238041
0.0246708
0.0250859
0.0247239
0.0126807
0.0127479
0.0128432
0.0129697
0.0131298
0.0133266
0.0135629
0.0138389
0.0141573
0.0145205
0.0149247
0.0153612
0.0158309
0.016352
0.0169686
0.0177342
0.018668
0.0197254
0.0208265
0.0219273
0.0230305
0.0241391
0.0252051
0.0260985
0.026357
0.0134987
0.0135469
0.0136223
0.013728
0.0138668
0.0140413
0.0142542
0.0145069
0.0148003
0.0151372
0.0155179
0.0159345
0.0163894
0.0168991
0.0175003
0.0182382
0.0191319
0.0201464
0.0212126
0.0222865
0.023365
0.0244406
0.0255136
0.026423
0.0278208
0.0143862
0.014442
0.0145272
0.0146442
0.0147958
0.014985
0.0152138
0.015482
0.0157937
0.0161515
0.0165488
0.0169878
0.0174831
0.0180664
0.0187761
0.0196303
0.0206024
0.0216341
0.022683
0.0237415
0.0247938
0.0258438
0.0267181
0.0279723
0.015305
0.0153696
0.0154651
0.0155944
0.0157603
0.0159653
0.016209
0.0164955
0.0168289
0.0172052
0.017626
0.0181042
0.018667
0.0193478
0.0201633
0.0210935
0.0220901
0.0231132
0.0241518
0.0251902
0.0262151
0.0271422
0.0279402
0.0162125
0.016257
0.0163313
0.0164384
0.016581
0.0167621
0.0169815
0.0172428
0.0175513
0.0179061
0.0183073
0.0187659
0.0193062
0.0199572
0.0207343
0.0216229
0.0225833
0.0235788
0.0245955
0.0256206
0.0266239
0.0276004
0.0282299
0.0171922
0.0172454
0.0173304
0.0174499
0.0176068
0.0178021
0.0180384
0.0183216
0.0186539
0.0190337
0.0194707
0.0199867
0.0206073
0.0213465
0.0221939
0.0231172
0.0240836
0.0250766
0.026085
0.0270747
0.0280533
0.0287574
0.0181764
0.0182086
0.0182715
0.0183681
0.0185011
0.0186728
0.0188842
0.0191416
0.0194502
0.0198075
0.0202214
0.0207116
0.0213009
0.0220024
0.022809
0.0236947
0.0246304
0.025599
0.0265877
0.0275688
0.0285244
0.029356
0.0192244
0.0192654
0.0193393
0.0194486
0.0195963
0.0197822
0.0200137
0.0202975
0.020631
0.0210203
0.0214833
0.0220408
0.0227049
0.0234711
0.0243187
0.0252226
0.0261655
0.0271332
0.0281059
0.0290416
0.0299523
0.020295
0.0203143
0.0203653
0.0204507
0.020574
0.020735
0.0209408
0.0211989
0.0215075
0.0218713
0.0223058
0.0228306
0.0234573
0.0241835
0.0249926
0.0258636
0.0267796
0.0277257
0.028687
0.0296142
0.0305511
0.0214206
0.0214488
0.0215106
0.0216096
0.0217458
0.0219256
0.022157
0.0224398
0.0227769
0.023182
0.0236738
0.0242633
0.0249496
0.0257201
0.0265571
0.0274452
0.0283693
0.0293168
0.0302429
0.0311817
0.0225878
0.0225931
0.0226313
0.0227057
0.022817
0.0229706
0.0231745
0.0234307
0.0237401
0.0241154
0.0245738
0.0251263
0.0257729
0.0265048
0.0273071
0.0281662
0.0290676
0.0300003
0.0309271
0.0318665
0.0238187
0.0238011
0.0238155
0.0238651
0.0239517
0.0240788
0.024255
0.0244844
0.0247658
0.0251102
0.0255347
0.02605
0.0266574
0.0273505
0.0281177
0.028947
0.0298251
0.0307425
0.0316689
0.0326149
0.0250765
0.0250669
0.0250917
0.0251533
0.0252539
0.0254018
0.0256036
0.025856
0.0261694
0.0265601
0.0270388
0.0276074
0.0282617
0.0289934
0.0297922
0.0306467
0.0315482
0.0324743
0.0334307
0.0264228
0.026389
0.0263889
0.0264252
0.0264991
0.0266188
0.026792
0.0270154
0.0272975
0.0276544
0.0280966
0.0286268
0.0292428
0.0299387
0.0307067
0.0315371
0.0324227
0.0333469
0.0343175
0.0278439
0.0277861
0.0277607
0.0277712
0.0278181
0.0279098
0.028054
0.0282483
0.0284991
0.028822
0.029228
0.0297202
0.0302983
0.0309587
0.0316954
0.0325012
0.0333719
0.0342934
0.0352787
0.0292616
0.0292109
0.0291954
0.0292155
0.0292789
0.0293942
0.0295586
0.0297783
0.030068
0.0304382
0.030893
0.0314335
0.0320585
0.0327641
0.0335453
0.0343999
0.0353203
0.0363194
0.0308203
0.0307439
0.0307023
0.0306955
0.0307306
0.0308167
0.0309514
0.0311402
0.0313967
0.0317317
0.0321499
0.0326537
0.0332436
0.0339183
0.0346752
0.0355142
0.0364325
0.0374467
0.0324668
0.0323649
0.0322969
0.0322629
0.0322698
0.0323264
0.0324315
0.0325898
0.0328138
0.0331141
0.0334966
0.0339644
0.03452
0.0351641
0.0358966
0.0367206
0.0376371
0.0386666
0.0340787
0.0339837
0.0339227
0.0339013
0.0339287
0.0340045
0.0341327
0.0343248
0.0345914
0.0349388
0.0353717
0.0358937
0.036508
0.0372168
0.0380255
0.0389408
0.0399855
0.03589
0.0357682
0.0356802
0.0356307
0.0356289
0.0356759
0.0357745
0.0359357
0.0361695
0.0364831
0.0368819
0.0373714
0.0379565
0.0386421
0.0394366
0.0403504
0.0414107
0.0378057
0.0376569
0.0375417
0.037464
0.0374333
0.037452
0.0375216
0.0376522
0.0378544
0.0381354
0.0385016
0.0389597
0.0395168
0.0401801
0.0409608
0.0418736
0.0396549
0.0395127
0.0394071
0.0393479
0.0393387
0.03938
0.0394814
0.0396532
0.039903
0.0402379
0.040666
0.0411963
0.0418383
0.0426059
0.0435181
0.0417695
0.0416
0.0414668
0.0413795
0.0413428
0.0413568
0.0414302
0.0415728
0.0417927
0.0420979
0.0424976
0.0430025
0.0436245
0.04438
0.0452918
0.0440071
0.0438106
0.0436499
0.0435352
0.0434717
0.0434591
0.0435056
0.0436206
0.0438122
0.0440894
0.0444626
0.0449437
0.0455468
0.0462913
0.0472032
0.0463751
0.0461508
0.0459634
0.0458222
0.0457327
0.0456949
0.0457157
0.0458045
0.0459696
0.0462207
0.046569
0.0470279
0.0476139
0.0483483
0.0492608
0.048881
0.0486296
0.0484158
0.0482487
0.0481338
0.0480716
0.0480682
0.0481324
0.0482729
0.0484998
0.0488252
0.049264
0.0498344
0.0505601
0.0514735
0.0512547
0.0510146
0.050822
0.0506829
0.0505977
0.0505718
0.0506132
0.0507308
0.0509355
0.0512403
0.0516609
0.0522173
0.0529356
0.0538506
0.054034
0.0537683
0.0535514
0.0533895
0.0532825
0.0532351
0.0532555
0.0533523
0.0535369
0.053823
0.0542277
0.0547722
0.0554843
0.0564014
0.056977
0.0566863
0.0564455
0.0562617
0.056134
0.056067
0.0560684
0.0561467
0.0563134
0.0565831
0.056974
0.0575084
0.0582159
0.0591356
0.0600922
0.0597768
0.0595136
0.059309
0.0591627
0.0590777
0.0590616
0.0591235
0.0592746
0.0595302
0.0599095
0.0604358
0.0611399
0.062063
0.0633895
0.0630503
0.0627653
0.0625411
0.0623773
0.0622761
0.0622447
0.0622922
0.0624301
0.0626741
0.063044
0.0635642
0.0642666
0.0651937
0.0665163
0.0662104
0.0659678
0.065788
0.0656728
0.0656282
0.0656634
0.0657903
0.066025
0.0663879
0.0669039
0.067606
0.0685377
0.0701846
0.069859
0.0695996
0.0694056
0.0692778
0.0692219
0.069247
0.0693653
0.0695932
0.0699514
0.0704652
0.0711684
0.0740652
0.0737212
0.0734467
0.0732399
0.0731012
0.0730362
0.0730535
0.0731656
0.0733891
0.0737447
0.0742585
0.0749646
0.0781696
0.077808
0.0775194
0.0773017
0.0771542
0.0770818
0.0770934
0.0772018
0.0774233
0.0777786
0.0782944
0.0790048
0.0825079
0.0821297
0.0818285
0.0816016
0.0814471
0.0813697
0.081378
0.0814847
0.0817065
0.0820639
0.0825835
0.0832998
0.0866973
0.086385
0.0861504
0.0859909
0.0859105
0.0859178
0.0860252
0.0862494
0.0866112
0.0871367
0.0878602
0.0915219
0.0911997
0.0909591
0.0907965
0.0907151
0.0907232
0.0908337
0.0910628
0.0914311
0.0919648
0.0926973
0.0966139
0.0962836
0.0960387
0.0958746
0.0957941
0.0958056
0.0959215
0.0961577
0.0965347
0.0970783
0.0978216
0.101984
0.101647
0.1014
0.101236
0.101159
0.101176
0.101299
0.101545
0.101933
0.102488
0.103244
0.107644
0.107302
0.107054
0.106893
0.106821
0.106845
0.106978
0.107236
0.107637
0.108206
0.108977
0.113604
0.113258
0.113011
0.112854
0.112789
0.112824
0.112969
0.11324
0.113657
0.114243
0.119873
0.119525
0.119281
0.11913
0.119075
0.119122
0.119282
0.11957
0.120005
0.120609
0.126112
0.125872
0.12573
0.125686
0.125748
0.125925
0.126233
0.126689
0.127315
0.133025
0.132791
0.132661
0.132631
0.13271
0.132908
0.133238
0.133718
0.134368
0.140278
0.140052
0.139934
0.139921
0.140019
0.14024
0.140595
0.141101
0.14178
0.147896
0.14768
0.147575
0.14758
0.147699
0.147944
0.148325
0.148859
0.149566
0.155925
0.15572
0.155629
0.155652
0.155792
0.156059
0.156466
0.157028
0.157762
0.164412
0.16422
0.164145
0.164187
0.164349
0.16464
0.165073
0.16566
0.173364
0.173187
0.173134
0.1732
0.17339
0.173712
0.174175
0.174793
0.182748
0.182594
0.182569
0.182669
0.182897
0.18326
0.183767
0.184428
0.192378
0.192391
0.192536
0.192814
0.193231
0.193797
0.194519
0.202554
0.202614
0.202815
0.203155
0.203644
0.204288
0.205088
0.21299
0.21307
0.2133
0.213658
0.214189
0.214892
0.215723
0.222472
0.222593
0.22288
0.223266
0.223863
0.224664
0.225519
0.231156
0.231345
0.231738
0.23223
0.232972
0.233971
0.240355
0.240529
0.240935
0.241457
0.242248
0.243344
0.250549
0.250835
0.251394
0.252091
0.253049
0.254405
0.261269
0.26144
0.261903
0.262551
0.263446
0.264688
0.274579
0.275267
0.276311
0.277506
0.278909
0.281091
0.28429
0.28423
0.28455
0.285344
0.286275
0.287142
0.308391
0.310482
0.312259
0.314412
0.319245
0.299659
0.298833
0.299726
0.299987
0.297236
0.3378
0.337445
0.334951
0.335974
0.342789
0.274264
0.270513
0.270862
0.269287
0.26248
0.259199
0.255479
0.250422
0.216904
0.21084
0.214722
0.220372
)
;

boundaryField
{
    inlet
    {
        type            calculated;
        value           nonuniform List<scalar> 4(0.10321 0.100054 0.0994188 0.0988432);
    }
    outlet
    {
        type            calculated;
        value           nonuniform List<scalar> 0();
    }
    walls
    {
        type            calculated;
        value           uniform 0;
    }
    frontAndBack
    {
        type            empty;
    }
    procBoundary5to0
    {
        type            processor;
        value           nonuniform List<scalar> 4(0.00956339 0.00961997 0.00968346 0.0097644);
    }
    procBoundary5to1
    {
        type            processor;
        value           nonuniform List<scalar> 
13
(
0.00403373
0.00464783
0.00464783
0.00520074
0.00565966
0.00565966
0.00634796
0.00690168
0.00690168
0.00763981
0.00840116
0.00906106
0.00906106
)
;
    }
    procBoundary5to4
    {
        type            processor;
        value           nonuniform List<scalar> 
95
(
0.00951987
0.00948403
0.00945657
0.00945657
0.0102181
0.0102081
0.0102081
0.0109883
0.0109981
0.0109981
0.0118074
0.0118074
0.0126392
0.0126392
0.0134752
0.0143566
0.0143566
0.0152688
0.0152688
0.0161955
0.0171677
0.0171677
0.0181722
0.0192131
0.0192131
0.0203049
0.0214232
0.0214232
0.0226123
0.0238655
0.0251172
0.0251172
0.0264865
0.0279314
0.0293439
0.0293439
0.0309275
0.0325989
0.0342067
0.0342067
0.0360445
0.0379865
0.0398311
0.0398311
0.041973
0.0442381
0.0466337
0.0491674
0.0515331
0.0515331
0.0543393
0.0573088
0.0604503
0.0637734
0.0668785
0.0668785
0.0705695
0.0744719
0.0785972
0.0829557
0.0870906
0.0870906
0.0919289
0.0970338
0.102416
0.108086
0.114056
0.120334
0.126461
0.126461
0.133373
0.140623
0.148238
0.156262
0.164741
0.173684
0.183053
0.192503
0.192503
0.202641
0.213066
0.22253
0.231182
0.240414
0.250539
0.261383
0.274199
0.284794
0.306736
0.306736
0.300871
0.338867
0.277719
0.267599
0.217115
)
;
    }
    procBoundary5to6
    {
        type            processor;
        value           nonuniform List<scalar> 
86
(
0.0629566
0.182095
0.21656
0.2229
0.224523
0.250154
0.221508
0.0342041
0.0242312
0
0
0.249053
0.0355242
0.0245287
0.0253652
0.0278249
0.0296854
0.0301024
0.0300221
0.0301491
0.0305887
0.0312262
0.031953
0.032722
0.0335294
0.0343907
0.035318
0.0363194
0.0374031
0.0385727
0.0398332
0.0411935
0.0426586
0.0429493
0.0429493
0.0446088
0.0463978
0.0483243
0.0503962
0.0526231
0.055014
0.0575778
0.0603244
0.0632636
0.0664053
0.0697602
0.0721054
0.0721054
0.0759074
0.0799544
0.084257
0.0888261
0.0936725
0.0988079
0.104243
0.109988
0.11503
0.11503
0.121414
0.128141
0.135219
0.142658
0.150473
0.158696
0.166421
0.166421
0.175584
0.185261
0.19541
0.206059
0.216735
0.226551
0.234981
0.234981
0.244482
0.255789
0.266152
0.283058
0.289181
0.321538
0.300139
0.340129
0.258776
0.258776
0.249852
0.192075
)
;
    }
}


// ************************************************************************* //
