/*--------------------------------*- C++ -*----------------------------------*\
| =========                 |                                                 |
| \\      /  F ield         | OpenFOAM: The Open Source CFD Toolbox           |
|  \\    /   O peration     | Version:  2306                                  |
|   \\  /    A nd           | Website:  www.openfoam.com                      |
|    \\/     M anipulation  |                                                 |
\*---------------------------------------------------------------------------*/
FoamFile
{
    version     2.0;
    format      ascii;
    arch        "LSB;label=32;scalar=64";
    class       volScalarField;
    location    "325";
    object      turbulenceProperties:nuEff;
}
// * * * * * * * * * * * * * * * * * * * * * * * * * * * * * * * * * * * * * //

dimensions      [0 2 -1 0 0 0 0];

internalField   nonuniform List<scalar> 
1340
(
3.58129e-05
3.95402e-05
4.45286e-05
5.09922e-05
5.93171e-05
7.00348e-05
8.38656e-05
0.000101171
0.00012299
0.000150366
0.000185255
0.000230771
0.000291345
0.000374935
0.000495128
0.000673945
0.000956027
0.00140545
0.00222788
0.00359983
0.00691461
0.012723
0.0339488
0.0760732
0.0937336
0.0946559
0.0957018
0.0992342
0.102747
0.104483
0.104462
0.103216
0.10085
0.0974192
0.0927996
3.25867e-05
2.98076e-05
2.7077e-05
2.45867e-05
2.22524e-05
2.01095e-05
1.82467e-05
1.50853e-05
1.49802e-05
1.48853e-05
1.48067e-05
1.47165e-05
1.46337e-05
1.45723e-05
1.45186e-05
1.44956e-05
1.45159e-05
1.45434e-05
1.48189e-05
1.58804e-05
1.86565e-05
2.64218e-05
4.68309e-05
9.39354e-05
0.00017291
0.000325518
0.00059855
0.00132783
0.00283684
0.00709691
0.0204438
0.0394757
0.0633297
0.0926256
0.123781
0.148787
0.162714
0.168
0.168827
0.167246
0.163898
0.159385
1.51689e-05
1.52822e-05
1.53787e-05
1.55097e-05
1.5644e-05
1.57799e-05
1.62663e-05
1.62836e-05
1.63016e-05
1.63209e-05
1.63446e-05
1.63711e-05
1.64015e-05
1.64369e-05
1.64788e-05
1.65278e-05
1.6586e-05
1.66577e-05
1.67369e-05
1.68806e-05
1.68882e-05
1.64642e-05
1.50183e-05
1.3834e-05
1.00548e-05
0.000112203
4.46509e-05
0.000146334
0.000121008
0.000806362
0.00325213
0.00772801
0.0157763
0.0310905
0.057336
0.0937659
0.132825
0.164557
0.184985
0.196834
0.203528
1.6253e-05
1.6234e-05
1.62194e-05
1.61978e-05
1.61793e-05
1.61594e-05
1.60862e-05
1.60838e-05
1.60832e-05
1.60836e-05
1.60845e-05
1.60871e-05
1.6092e-05
1.60988e-05
1.61088e-05
1.61224e-05
1.61404e-05
1.61639e-05
1.61945e-05
1.62333e-05
1.62844e-05
1.63418e-05
1.62428e-05
1.58262e-05
1.39746e-05
1.12372e-05
1e-05
1.31449e-05
1.12277e-05
0.000161231
0.000686656
0.00164969
0.00342633
0.000383962
0.00373653
0.0135797
0.0356293
0.0728457
0.118937
0.161457
0.19334
1.60869e-05
1.60892e-05
1.60923e-05
1.60945e-05
1.60983e-05
1.61113e-05
1.61118e-05
1.61121e-05
1.6113e-05
1.61145e-05
1.61165e-05
1.61192e-05
1.61227e-05
1.61275e-05
1.61336e-05
1.61417e-05
1.61523e-05
1.61662e-05
1.6184e-05
1.62082e-05
1.62364e-05
1.62803e-05
1.63235e-05
1.64967e-05
1.63001e-05
1.34853e-05
1.03829e-05
1.00088e-05
1.00002e-05
1e-05
1e-05
1e-05
5.94657e-05
0.000830486
0.00306559
0.000901391
0.00811144
0.0296309
0.0708457
0.124269
1.61113e-05
1.61099e-05
1.61106e-05
1.61096e-05
1.61105e-05
1.61051e-05
1.61049e-05
1.61052e-05
1.61055e-05
1.61055e-05
1.6106e-05
1.61065e-05
1.61073e-05
1.61085e-05
1.61102e-05
1.61125e-05
1.61158e-05
1.61201e-05
1.6126e-05
1.61341e-05
1.6145e-05
1.61605e-05
1.61758e-05
1.62107e-05
1.63111e-05
1.65195e-05
1.5604e-05
1.32107e-05
1.01201e-05
1.00083e-05
1.00028e-05
1.00004e-05
1e-05
1e-05
1e-05
0.000201558
0.00185927
0.000401358
0.00880943
0.038178
1.61047e-05
1.6104e-05
1.61049e-05
1.61047e-05
1.61054e-05
1.61056e-05
1.61057e-05
1.61058e-05
1.61059e-05
1.6106e-05
1.61062e-05
1.61065e-05
1.6107e-05
1.61077e-05
1.61087e-05
1.61102e-05
1.61123e-05
1.61151e-05
1.61191e-05
1.61247e-05
1.61322e-05
1.61404e-05
1.61491e-05
1.61582e-05
1.62611e-05
1.65174e-05
1.66091e-05
1.55643e-05
1.33563e-05
1.16849e-05
1.02528e-05
1e-05
1.00037e-05
1e-05
1e-05
1e-05
7.00611e-05
0.00207785
0.00169332
1.61049e-05
1.61038e-05
1.61042e-05
1.61039e-05
1.61049e-05
1.61051e-05
1.61054e-05
1.61053e-05
1.61052e-05
1.6105e-05
1.61049e-05
1.61047e-05
1.61047e-05
1.61047e-05
1.61047e-05
1.6105e-05
1.61054e-05
1.61059e-05
1.61068e-05
1.61082e-05
1.61102e-05
1.61128e-05
1.6115e-05
1.6116e-05
1.61235e-05
1.61569e-05
1.62657e-05
1.65777e-05
1.67415e-05
1.655e-05
1.5545e-05
1.36903e-05
1.18538e-05
1.00255e-05
1.00071e-05
1e-05
1e-05
1e-05
0.000417742
1.61043e-05
1.61032e-05
1.61032e-05
1.61028e-05
1.61049e-05
1.6105e-05
1.61051e-05
1.61049e-05
1.61048e-05
1.61045e-05
1.61043e-05
1.61041e-05
1.6104e-05
1.6104e-05
1.6104e-05
1.61041e-05
1.61043e-05
1.61047e-05
1.61053e-05
1.61063e-05
1.61077e-05
1.61096e-05
1.61115e-05
1.61131e-05
1.61136e-05
1.61183e-05
1.61147e-05
1.61518e-05
1.63088e-05
1.65794e-05
1.69752e-05
1.70845e-05
1.69293e-05
1.49151e-05
1.27209e-05
1.00049e-05
1.00029e-05
1e-05
1e-05
1.61043e-05
1.6103e-05
1.61027e-05
1.61042e-05
1.61039e-05
1.61036e-05
1.61034e-05
1.61032e-05
1.6103e-05
1.61029e-05
1.61027e-05
1.61027e-05
1.61026e-05
1.61026e-05
1.61026e-05
1.61026e-05
1.61027e-05
1.6103e-05
1.61036e-05
1.61043e-05
1.61075e-05
1.61093e-05
1.60974e-05
1.6094e-05
1.61371e-05
1.62796e-05
1.65277e-05
1.68904e-05
1.7292e-05
1.74952e-05
1.50739e-05
1.11332e-05
1.00106e-05
1e-05
1.61031e-05
1.61029e-05
1.61027e-05
1.61025e-05
1.61025e-05
1.61024e-05
1.61024e-05
1.61024e-05
1.61025e-05
1.61027e-05
1.61031e-05
1.61036e-05
1.61041e-05
1.61047e-05
1.61051e-05
1.61057e-05
1.61083e-05
1.61084e-05
1.60993e-05
1.60856e-05
1.60816e-05
1.61176e-05
1.62118e-05
1.64645e-05
1.68739e-05
1.76266e-05
1.71317e-05
1.29703e-05
1.00152e-05
1.61022e-05
1.61021e-05
1.6102e-05
1.61019e-05
1.61018e-05
1.61018e-05
1.61018e-05
1.61018e-05
1.61019e-05
1.6102e-05
1.61023e-05
1.61027e-05
1.61033e-05
1.61039e-05
1.61051e-05
1.61074e-05
1.61083e-05
1.61047e-05
1.60949e-05
1.60829e-05
1.60728e-05
1.60997e-05
1.61732e-05
1.6511e-05
1.7208e-05
1.77472e-05
1.38504e-05
1.61017e-05
1.61016e-05
1.61016e-05
1.61016e-05
1.61016e-05
1.61016e-05
1.61017e-05
1.61018e-05
1.6102e-05
1.61022e-05
1.61025e-05
1.61029e-05
1.61034e-05
1.6104e-05
1.61051e-05
1.61069e-05
1.61085e-05
1.61084e-05
1.61047e-05
1.60955e-05
1.60829e-05
1.60666e-05
1.6075e-05
1.62527e-05
1.67917e-05
1.84575e-05
1.61014e-05
1.61014e-05
1.61014e-05
1.61014e-05
1.61014e-05
1.61015e-05
1.61015e-05
1.61016e-05
1.61018e-05
1.6102e-05
1.61023e-05
1.61028e-05
1.61033e-05
1.61039e-05
1.6105e-05
1.61065e-05
1.61084e-05
1.61098e-05
1.611e-05
1.61067e-05
1.60991e-05
1.60737e-05
1.60535e-05
1.60836e-05
1.66819e-05
1.61013e-05
1.61013e-05
1.61013e-05
1.61014e-05
1.61014e-05
1.61015e-05
1.61015e-05
1.61016e-05
1.61017e-05
1.61019e-05
1.61022e-05
1.61025e-05
1.61029e-05
1.61034e-05
1.61041e-05
1.61051e-05
1.61065e-05
1.61082e-05
1.61101e-05
1.61119e-05
1.61133e-05
1.61118e-05
1.60817e-05
1.61086e-05
1.56345e-05
1.61013e-05
1.61014e-05
1.61014e-05
1.61014e-05
1.61015e-05
1.61015e-05
1.61016e-05
1.61017e-05
1.61019e-05
1.61021e-05
1.61023e-05
1.61026e-05
1.61031e-05
1.61036e-05
1.61043e-05
1.61054e-05
1.61066e-05
1.61082e-05
1.61102e-05
1.6112e-05
1.61193e-05
1.61034e-05
1.61675e-05
1.58173e-05
1.61014e-05
1.61015e-05
1.61015e-05
1.61016e-05
1.61016e-05
1.61017e-05
1.61018e-05
1.61019e-05
1.61021e-05
1.61023e-05
1.61025e-05
1.61029e-05
1.61033e-05
1.61039e-05
1.61047e-05
1.61058e-05
1.6107e-05
1.61085e-05
1.61097e-05
1.61144e-05
1.6113e-05
1.61258e-05
1.61917e-05
1.61015e-05
1.61015e-05
1.61016e-05
1.61017e-05
1.61017e-05
1.61018e-05
1.61019e-05
1.6102e-05
1.61021e-05
1.61023e-05
1.61025e-05
1.61028e-05
1.61031e-05
1.61037e-05
1.61043e-05
1.61052e-05
1.61063e-05
1.61075e-05
1.61089e-05
1.61099e-05
1.61187e-05
1.6084e-05
1.63124e-05
1.61016e-05
1.61017e-05
1.61018e-05
1.61018e-05
1.61019e-05
1.6102e-05
1.6102e-05
1.61021e-05
1.61023e-05
1.61025e-05
1.61027e-05
1.6103e-05
1.61035e-05
1.61041e-05
1.61048e-05
1.61057e-05
1.61068e-05
1.61084e-05
1.61079e-05
1.61187e-05
1.60814e-05
1.62451e-05
1.61017e-05
1.61018e-05
1.61019e-05
1.61019e-05
1.6102e-05
1.61021e-05
1.61021e-05
1.61022e-05
1.61024e-05
1.61025e-05
1.61027e-05
1.6103e-05
1.61033e-05
1.61038e-05
1.61045e-05
1.61053e-05
1.61062e-05
1.61077e-05
1.61076e-05
1.61147e-05
1.60975e-05
1.61527e-05
1.61019e-05
1.6102e-05
1.6102e-05
1.61021e-05
1.61022e-05
1.61023e-05
1.61024e-05
1.61025e-05
1.61026e-05
1.61028e-05
1.6103e-05
1.61033e-05
1.61037e-05
1.61043e-05
1.6105e-05
1.61058e-05
1.6107e-05
1.61077e-05
1.61105e-05
1.61101e-05
1.61043e-05
1.6102e-05
1.61021e-05
1.61022e-05
1.61022e-05
1.61023e-05
1.61024e-05
1.61025e-05
1.61026e-05
1.61027e-05
1.61029e-05
1.61031e-05
1.61033e-05
1.61037e-05
1.61042e-05
1.61048e-05
1.61055e-05
1.61064e-05
1.61076e-05
1.61082e-05
1.6114e-05
1.60946e-05
1.61022e-05
1.61023e-05
1.61024e-05
1.61025e-05
1.61025e-05
1.61026e-05
1.61027e-05
1.61028e-05
1.6103e-05
1.61031e-05
1.61034e-05
1.61037e-05
1.61041e-05
1.61047e-05
1.61053e-05
1.61061e-05
1.61073e-05
1.61075e-05
1.61128e-05
1.61004e-05
1.61023e-05
1.61024e-05
1.61025e-05
1.61026e-05
1.61027e-05
1.61028e-05
1.61029e-05
1.6103e-05
1.61031e-05
1.61033e-05
1.61035e-05
1.61038e-05
1.61041e-05
1.61046e-05
1.61052e-05
1.61059e-05
1.61069e-05
1.61074e-05
1.61105e-05
1.6107e-05
1.61024e-05
1.61025e-05
1.61026e-05
1.61027e-05
1.61028e-05
1.61029e-05
1.6103e-05
1.61031e-05
1.61033e-05
1.61034e-05
1.61036e-05
1.61038e-05
1.61042e-05
1.61046e-05
1.61051e-05
1.61057e-05
1.61066e-05
1.61074e-05
1.61089e-05
1.611e-05
1.61026e-05
1.61028e-05
1.61029e-05
1.6103e-05
1.61031e-05
1.61032e-05
1.61033e-05
1.61034e-05
1.61036e-05
1.61037e-05
1.61039e-05
1.61042e-05
1.61046e-05
1.61051e-05
1.61056e-05
1.61063e-05
1.61072e-05
1.61081e-05
1.61103e-05
1.61028e-05
1.61029e-05
1.6103e-05
1.61031e-05
1.61032e-05
1.61033e-05
1.61035e-05
1.61036e-05
1.61037e-05
1.61039e-05
1.61041e-05
1.61043e-05
1.61047e-05
1.61051e-05
1.61056e-05
1.61062e-05
1.61071e-05
1.61078e-05
1.61097e-05
1.61029e-05
1.6103e-05
1.61031e-05
1.61033e-05
1.61034e-05
1.61035e-05
1.61036e-05
1.61038e-05
1.61039e-05
1.6104e-05
1.61042e-05
1.61045e-05
1.61048e-05
1.61051e-05
1.61056e-05
1.61062e-05
1.61069e-05
1.61077e-05
1.61091e-05
1.61031e-05
1.61033e-05
1.61034e-05
1.61035e-05
1.61037e-05
1.61038e-05
1.61039e-05
1.61041e-05
1.61042e-05
1.61044e-05
1.61046e-05
1.61049e-05
1.61052e-05
1.61057e-05
1.61062e-05
1.61069e-05
1.61076e-05
1.61087e-05
1.61033e-05
1.61034e-05
1.61036e-05
1.61037e-05
1.61038e-05
1.6104e-05
1.61041e-05
1.61042e-05
1.61044e-05
1.61046e-05
1.61048e-05
1.6105e-05
1.61054e-05
1.61057e-05
1.61062e-05
1.61068e-05
1.61076e-05
1.61085e-05
1.61034e-05
1.61035e-05
1.61037e-05
1.61038e-05
1.6104e-05
1.61041e-05
1.61043e-05
1.61044e-05
1.61046e-05
1.61048e-05
1.6105e-05
1.61052e-05
1.61055e-05
1.61059e-05
1.61063e-05
1.61069e-05
1.61075e-05
1.61084e-05
1.61037e-05
1.61038e-05
1.6104e-05
1.61042e-05
1.61043e-05
1.61045e-05
1.61046e-05
1.61048e-05
1.61049e-05
1.61051e-05
1.61054e-05
1.61056e-05
1.6106e-05
1.61064e-05
1.61069e-05
1.61075e-05
1.61084e-05
1.61038e-05
1.6104e-05
1.61042e-05
1.61043e-05
1.61045e-05
1.61047e-05
1.61048e-05
1.6105e-05
1.61051e-05
1.61053e-05
1.61056e-05
1.61058e-05
1.61061e-05
1.61065e-05
1.6107e-05
1.61076e-05
1.61083e-05
1.61039e-05
1.61041e-05
1.61043e-05
1.61045e-05
1.61047e-05
1.61048e-05
1.6105e-05
1.61052e-05
1.61053e-05
1.61055e-05
1.61058e-05
1.6106e-05
1.61063e-05
1.61067e-05
1.61071e-05
1.61077e-05
1.61043e-05
1.61044e-05
1.61046e-05
1.61048e-05
1.6105e-05
1.61052e-05
1.61054e-05
1.61055e-05
1.61057e-05
1.6106e-05
1.61062e-05
1.61065e-05
1.61068e-05
1.61073e-05
1.61078e-05
1.61044e-05
1.61046e-05
1.61048e-05
1.6105e-05
1.61052e-05
1.61054e-05
1.61056e-05
1.61057e-05
1.61059e-05
1.61062e-05
1.61064e-05
1.61067e-05
1.6107e-05
1.61074e-05
1.61079e-05
1.61045e-05
1.61047e-05
1.6105e-05
1.61052e-05
1.61054e-05
1.61056e-05
1.61058e-05
1.61059e-05
1.61061e-05
1.61064e-05
1.61066e-05
1.61069e-05
1.61072e-05
1.61076e-05
1.61081e-05
1.61046e-05
1.61049e-05
1.61051e-05
1.61053e-05
1.61055e-05
1.61057e-05
1.61059e-05
1.61061e-05
1.61064e-05
1.61066e-05
1.61068e-05
1.61071e-05
1.61074e-05
1.61078e-05
1.61082e-05
1.61048e-05
1.6105e-05
1.61052e-05
1.61055e-05
1.61057e-05
1.61059e-05
1.61061e-05
1.61063e-05
1.61066e-05
1.61068e-05
1.6107e-05
1.61073e-05
1.61076e-05
1.6108e-05
1.61084e-05
1.61051e-05
1.61054e-05
1.61056e-05
1.61059e-05
1.61061e-05
1.61063e-05
1.61065e-05
1.61068e-05
1.6107e-05
1.61073e-05
1.61075e-05
1.61079e-05
1.61082e-05
1.61086e-05
1.61052e-05
1.61055e-05
1.61057e-05
1.6106e-05
1.61062e-05
1.61065e-05
1.61067e-05
1.61069e-05
1.61072e-05
1.61075e-05
1.61077e-05
1.61081e-05
1.61084e-05
1.61088e-05
1.61053e-05
1.61056e-05
1.61059e-05
1.61061e-05
1.61064e-05
1.61066e-05
1.61069e-05
1.61071e-05
1.61074e-05
1.61077e-05
1.61079e-05
1.61083e-05
1.61086e-05
1.6109e-05
1.61054e-05
1.61057e-05
1.61059e-05
1.61062e-05
1.61065e-05
1.61067e-05
1.6107e-05
1.61073e-05
1.61075e-05
1.61078e-05
1.61081e-05
1.61085e-05
1.61088e-05
1.61092e-05
1.61054e-05
1.61057e-05
1.6106e-05
1.61063e-05
1.61066e-05
1.61068e-05
1.61071e-05
1.61074e-05
1.61077e-05
1.6108e-05
1.61083e-05
1.61086e-05
1.6109e-05
1.61094e-05
1.61057e-05
1.6106e-05
1.61063e-05
1.61066e-05
1.61069e-05
1.61072e-05
1.61075e-05
1.61078e-05
1.61081e-05
1.61084e-05
1.61088e-05
1.61092e-05
1.61096e-05
1.61057e-05
1.6106e-05
1.61063e-05
1.61066e-05
1.61069e-05
1.61072e-05
1.61075e-05
1.61079e-05
1.61082e-05
1.61086e-05
1.61089e-05
1.61093e-05
1.61056e-05
1.6106e-05
1.61063e-05
1.61066e-05
1.61069e-05
1.61072e-05
1.61076e-05
1.61079e-05
1.61083e-05
1.61086e-05
1.6109e-05
1.61094e-05
1.61055e-05
1.61059e-05
1.61062e-05
1.61066e-05
1.61069e-05
1.61072e-05
1.61075e-05
1.61079e-05
1.61083e-05
1.61087e-05
1.61091e-05
1.61095e-05
1.61053e-05
1.61057e-05
1.61061e-05
1.61064e-05
1.61068e-05
1.61071e-05
1.61075e-05
1.61078e-05
1.61082e-05
1.61086e-05
1.6109e-05
1.61095e-05
1.61055e-05
1.61059e-05
1.61062e-05
1.61066e-05
1.6107e-05
1.61073e-05
1.61077e-05
1.61081e-05
1.61085e-05
1.6109e-05
1.61094e-05
1.61052e-05
1.61056e-05
1.6106e-05
1.61063e-05
1.61067e-05
1.61071e-05
1.61075e-05
1.61079e-05
1.61084e-05
1.61089e-05
1.61093e-05
1.61048e-05
1.61052e-05
1.61056e-05
1.6106e-05
1.61064e-05
1.61068e-05
1.61073e-05
1.61077e-05
1.61082e-05
1.61086e-05
1.61092e-05
1.61044e-05
1.61048e-05
1.61052e-05
1.61056e-05
1.6106e-05
1.61065e-05
1.61069e-05
1.61074e-05
1.61078e-05
1.61083e-05
1.61089e-05
1.61038e-05
1.61043e-05
1.61047e-05
1.61051e-05
1.61055e-05
1.6106e-05
1.61064e-05
1.61069e-05
1.61074e-05
1.6108e-05
1.61085e-05
1.61032e-05
1.61036e-05
1.61041e-05
1.61045e-05
1.61049e-05
1.61054e-05
1.61059e-05
1.61064e-05
1.61069e-05
1.61075e-05
1.61024e-05
1.61029e-05
1.61033e-05
1.61038e-05
1.61042e-05
1.61047e-05
1.61052e-05
1.61057e-05
1.61063e-05
1.61069e-05
1.6102e-05
1.61025e-05
1.6103e-05
1.61034e-05
1.61039e-05
1.61044e-05
1.6105e-05
1.61056e-05
1.61061e-05
1.61011e-05
1.61016e-05
1.6102e-05
1.61025e-05
1.6103e-05
1.61036e-05
1.61041e-05
1.61047e-05
1.61053e-05
1.61e-05
1.61005e-05
1.6101e-05
1.61015e-05
1.6102e-05
1.61026e-05
1.61031e-05
1.61037e-05
1.61044e-05
1.60987e-05
1.60992e-05
1.60997e-05
1.61002e-05
1.61008e-05
1.61014e-05
1.6102e-05
1.61026e-05
1.61033e-05
1.60971e-05
1.60976e-05
1.60981e-05
1.60987e-05
1.60993e-05
1.60999e-05
1.61005e-05
1.61012e-05
1.61019e-05
1.60952e-05
1.60957e-05
1.60962e-05
1.60967e-05
1.60973e-05
1.6098e-05
1.60986e-05
1.60993e-05
1.60929e-05
1.60934e-05
1.60939e-05
1.60945e-05
1.60951e-05
1.60957e-05
1.60964e-05
1.60971e-05
1.60906e-05
1.6091e-05
1.60915e-05
1.6092e-05
1.60926e-05
1.60932e-05
1.60939e-05
1.60946e-05
1.60886e-05
1.6089e-05
1.60895e-05
1.60901e-05
1.60907e-05
1.60913e-05
1.6092e-05
1.60861e-05
1.60865e-05
1.6087e-05
1.60875e-05
1.60881e-05
1.60887e-05
1.60893e-05
1.60835e-05
1.60839e-05
1.60844e-05
1.60849e-05
1.60855e-05
1.60861e-05
1.60867e-05
1.6081e-05
1.60814e-05
1.60818e-05
1.60824e-05
1.60829e-05
1.60835e-05
1.60842e-05
1.60786e-05
1.6079e-05
1.60794e-05
1.60799e-05
1.60805e-05
1.6081e-05
1.60763e-05
1.60766e-05
1.6077e-05
1.60774e-05
1.60779e-05
1.60784e-05
1.6074e-05
1.60743e-05
1.60746e-05
1.60749e-05
1.60754e-05
1.60758e-05
1.60718e-05
1.6072e-05
1.60722e-05
1.60725e-05
1.60728e-05
1.60732e-05
1.60706e-05
1.60706e-05
1.60707e-05
1.60708e-05
1.60709e-05
1.6071e-05
1.6072e-05
1.6072e-05
1.60719e-05
1.60718e-05
1.60716e-05
1.60715e-05
1.60747e-05
1.60747e-05
1.60746e-05
1.60744e-05
1.60743e-05
1.60778e-05
1.60778e-05
1.60778e-05
1.60777e-05
1.60776e-05
1.6081e-05
1.60812e-05
1.60814e-05
1.60815e-05
1.60816e-05
1.60845e-05
1.60847e-05
1.60847e-05
1.60846e-05
1.60869e-05
1.60877e-05
1.60887e-05
1.60898e-05
1.60983e-05
1.60989e-05
1.60995e-05
1.60997e-05
)
;

boundaryField
{
    inlet
    {
        type            calculated;
        value           nonuniform List<scalar> 4(1.60983e-05 1.60989e-05 1.60995e-05 1.60997e-05);
    }
    outlet
    {
        type            calculated;
        value           nonuniform List<scalar> 0();
    }
    walls
    {
        type            calculated;
        value           nonuniform List<scalar> 
42
(
0.0032363
0.00346269
0.00369901
0.00388662
0.00406245
0.00421708
0.00433753
0.00443005
0.00449709
0.0045368
0.00455649
0.00455467
0.00452599
0.00447264
0.00439038
0.00427715
0.00412648
0.00393193
0.00368007
0.00335958
0.00295372
0.00246234
0.00193238
0.00153355
0.00137008
0.00144166
0.00159897
0.00176223
0.00189508
0.001983
0.00203028
0.00204711
0.00202897
0.00197889
0.00189415
0.00299609
0.00272426
0.00242549
0.00205582
0.00165385
0.00121876
0.000780175
)
;
    }
    frontAndBack
    {
        type            empty;
    }
    procBoundary5to0
    {
        type            processor;
        value           nonuniform List<scalar> 4(1.61048e-05 1.61043e-05 1.6103e-05 1.61024e-05);
    }
    procBoundary5to1
    {
        type            processor;
        value           nonuniform List<scalar> 
13
(
1.69634e-05
1.5911e-05
1.5911e-05
1.61416e-05
1.61003e-05
1.61003e-05
1.61092e-05
1.61064e-05
1.61064e-05
1.61056e-05
1.61044e-05
1.61021e-05
1.61021e-05
)
;
    }
    procBoundary5to4
    {
        type            processor;
        value           nonuniform List<scalar> 
95
(
1.61048e-05
1.61048e-05
1.61045e-05
1.61045e-05
1.61037e-05
1.61034e-05
1.61034e-05
1.61026e-05
1.61024e-05
1.61024e-05
1.61018e-05
1.61018e-05
1.61015e-05
1.61015e-05
1.61013e-05
1.61013e-05
1.61013e-05
1.61013e-05
1.61013e-05
1.61014e-05
1.61016e-05
1.61016e-05
1.61016e-05
1.61018e-05
1.61018e-05
1.61019e-05
1.61021e-05
1.61021e-05
1.61022e-05
1.61023e-05
1.61025e-05
1.61025e-05
1.61026e-05
1.61027e-05
1.6103e-05
1.6103e-05
1.61031e-05
1.61032e-05
1.61035e-05
1.61035e-05
1.61036e-05
1.61037e-05
1.61041e-05
1.61041e-05
1.61042e-05
1.61043e-05
1.61044e-05
1.61045e-05
1.61049e-05
1.61049e-05
1.61049e-05
1.6105e-05
1.61051e-05
1.61051e-05
1.61054e-05
1.61054e-05
1.61054e-05
1.61053e-05
1.61051e-05
1.6105e-05
1.61051e-05
1.61051e-05
1.61048e-05
1.61044e-05
1.61039e-05
1.61034e-05
1.61027e-05
1.6102e-05
1.61016e-05
1.61016e-05
1.61006e-05
1.60995e-05
1.60982e-05
1.60966e-05
1.60947e-05
1.60925e-05
1.60901e-05
1.60882e-05
1.60882e-05
1.60857e-05
1.60831e-05
1.60806e-05
1.60783e-05
1.6076e-05
1.60737e-05
1.60717e-05
1.60706e-05
1.60721e-05
1.60747e-05
1.60747e-05
1.60778e-05
1.60808e-05
1.60842e-05
1.6086e-05
1.60976e-05
)
;
    }
    procBoundary5to6
    {
        type            processor;
        value           nonuniform List<scalar> 
86
(
0.0869194
0.15388
0.206403
0.215462
0.175188
0.0933944
0.0215714
0.00088167
0.000204231
1e-05
1e-05
1.00096e-05
1.22901e-05
2.01951e-05
1.92301e-05
1.64556e-05
1.52677e-05
1.53084e-05
1.57425e-05
1.60764e-05
1.61951e-05
1.61858e-05
1.61464e-05
1.61197e-05
1.61097e-05
1.61084e-05
1.61093e-05
1.61099e-05
1.61099e-05
1.61097e-05
1.61094e-05
1.61092e-05
1.61092e-05
1.61084e-05
1.61084e-05
1.61084e-05
1.61085e-05
1.61086e-05
1.61088e-05
1.6109e-05
1.61091e-05
1.61093e-05
1.61095e-05
1.61097e-05
1.61099e-05
1.61101e-05
1.61097e-05
1.61097e-05
1.61099e-05
1.61099e-05
1.611e-05
1.61099e-05
1.61099e-05
1.61097e-05
1.61094e-05
1.61091e-05
1.6108e-05
1.6108e-05
1.61075e-05
1.61068e-05
1.6106e-05
1.6105e-05
1.61039e-05
1.61026e-05
1.61001e-05
1.61001e-05
1.60979e-05
1.60953e-05
1.60927e-05
1.609e-05
1.60874e-05
1.60849e-05
1.60817e-05
1.60817e-05
1.6079e-05
1.60763e-05
1.60735e-05
1.60712e-05
1.60714e-05
1.60742e-05
1.60775e-05
1.60817e-05
1.60849e-05
1.60849e-05
1.60905e-05
1.61001e-05
)
;
    }
}


// ************************************************************************* //
