/*--------------------------------*- C++ -*----------------------------------*\
| =========                 |                                                 |
| \\      /  F ield         | OpenFOAM: The Open Source CFD Toolbox           |
|  \\    /   O peration     | Version:  2306                                  |
|   \\  /    A nd           | Website:  www.openfoam.com                      |
|    \\/     M anipulation  |                                                 |
\*---------------------------------------------------------------------------*/
FoamFile
{
    version     2.0;
    format      ascii;
    arch        "LSB;label=32;scalar=64";
    class       volScalarField;
    location    "325";
    object      turbulenceProperties:epsilon;
}
// * * * * * * * * * * * * * * * * * * * * * * * * * * * * * * * * * * * * * //

dimensions      [0 2 -3 0 0 0 0];

internalField   nonuniform List<scalar> 
1340
(
0.25943
0.340176
0.453092
0.623727
0.840402
1.13511
1.53113
2.0354
2.68463
3.51519
4.5788
5.96556
7.8037
10.2928
13.7735
18.7612
26.2411
37.3595
56.0539
83.0228
139.668
211.716
435.172
738.945
735.896
666.883
636.987
637.033
642.981
639.363
622.751
593.269
548.342
489.292
416.454
0.194175
0.147109
0.100388
0.0666834
0.0405563
0.0221798
0.0111829
0.0073614
0.00728037
0.00711473
0.00670994
0.0061067
0.00544819
0.00471941
0.00396233
0.00327825
0.0026705
0.002149
0.00182015
0.0017731
0.00210577
0.0033091
0.00671514
0.0165719
0.0442592
0.139174
0.450212
1.75481
6.25245
23.4303
83.6375
166.402
235.357
278.641
285.318
251.156
193.243
135.9
91.9172
63.5092
45.7327
34.2756
0.00722777
0.00703214
0.00664162
0.00608322
0.00535975
0.00447628
0.00330274
0.00325063
0.00310551
0.00289016
0.00267321
0.00244457
0.00222383
0.0020342
0.00187781
0.00176071
0.0016726
0.00162279
0.00160913
0.00163596
0.00164482
0.00154847
0.00119002
0.000880585
7.73477e-06
0.0162244
0.00437738
0.00626368
0.000111547
0.0327323
0.557221
2.60048
7.92637
20.0884
42.2651
70.5025
91.5888
94.2427
80.1077
60.6945
44.1852
0.00335455
0.00334652
0.00332894
0.00321171
0.00300866
0.00268256
0.00235432
0.00236408
0.0023404
0.00230159
0.00222253
0.0021074
0.00196815
0.00180098
0.00161899
0.00142899
0.00123805
0.00105134
0.00087287
0.000707475
0.0005575
0.000419442
0.000301533
0.000212047
0.000121731
3.73416e-05
8.31953e-21
0.000208955
0.000101121
0.0112058
0.0370373
0.0537818
0.0481518
0.000791428
0.0166109
0.443166
3.21397
11.6606
25.0598
35.5143
37.2018
0.00230406
0.00222897
0.0021136
0.00197873
0.00181591
0.00132496
0.00132028
0.00129974
0.00126351
0.00120847
0.00113579
0.00105096
0.000956882
0.000858203
0.000761948
0.000671478
0.000590073
0.000520361
0.000463016
0.000417856
0.000381683
0.000345391
0.000303501
0.000261966
0.000207583
9.38976e-05
8.12332e-06
1.4189e-07
2.17638e-09
0
0
0
0.00227799
0.030605
0.0886149
0.0131639
0.0158997
0.170925
2.42979
9.10075
0.00131811
0.00129953
0.00126292
0.0012054
0.00112657
0.000890204
0.000897812
0.000897088
0.000890694
0.000873281
0.000845427
0.000808826
0.000762704
0.000708889
0.000649751
0.000586739
0.000522227
0.000458447
0.000397026
0.000339332
0.000284311
0.000229923
0.00018006
0.000138749
0.000107205
8.49259e-05
5.84188e-05
2.9357e-05
8.12863e-07
4.26986e-08
1.25211e-08
1.50979e-09
1.66579e-14
0
0
0.00327156
0.0339988
0.00563606
0.0422086
0.0467853
0.000874145
0.000852189
0.00082075
0.000780166
0.000582526
0.000587654
0.000588474
0.000585501
0.00057621
0.000560298
0.000538419
0.000510323
0.000476787
0.000439324
0.000399165
0.000357859
0.000317088
0.000278225
0.000242202
0.000210034
0.000182856
0.000159225
0.000136771
0.000115167
9.6524e-05
8.20852e-05
6.80794e-05
4.65151e-05
2.18351e-05
7.97386e-06
7.38838e-07
5.64615e-12
4.46198e-09
3.50628e-11
0
0
0.000421545
0.017983
0.0126103
0.000573001
0.000560225
0.000541896
0.000517155
0.000400171
0.000405653
0.000408925
0.000410249
0.000408005
0.000401908
0.000392284
0.000378571
0.000360994
0.000340207
0.000316507
0.000290715
0.000263687
0.00023618
0.000208947
0.000182726
0.000157359
0.000132481
0.000109451
8.96782e-05
7.39214e-05
6.23717e-05
5.44214e-05
4.86651e-05
4.03649e-05
2.94561e-05
1.76055e-05
8.09582e-06
2.84429e-06
1.90047e-08
3.79225e-09
2.20077e-12
0
0
0.00119928
0.000392005
0.000382275
0.000369424
0.000352707
0.000278457
0.000282863
0.000286095
0.000288123
0.000288049
0.000285583
0.000280812
0.000273276
0.000263026
0.000250316
0.000235307
0.000218445
0.000200272
0.000181317
0.0001622
0.00014339
0.000125422
0.000108989
9.40691e-05
8.05637e-05
6.86076e-05
5.85925e-05
5.04229e-05
4.35451e-05
3.69975e-05
3.01065e-05
2.36124e-05
1.74136e-05
1.25366e-05
6.60669e-06
2.70851e-06
1.92183e-09
9.08902e-10
0
0
0.000272475
0.000265631
0.000256915
0.000208109
0.00020782
0.000206091
0.000202559
0.000197216
0.00019013
0.000181291
0.000170917
0.000159281
0.000146674
0.000133455
0.000119965
0.000106609
9.34706e-05
8.07494e-05
6.90305e-05
5.88408e-05
5.04292e-05
4.36087e-05
3.75837e-05
3.15658e-05
2.54484e-05
1.99608e-05
1.57093e-05
1.27582e-05
1.05611e-05
8.51951e-06
4.49027e-06
7.25157e-07
3.40413e-09
0
0.000152091
0.000150564
0.000147785
0.000143769
0.000138448
0.00013192
0.000124317
0.000115796
0.000106599
9.69782e-05
8.71834e-05
7.75217e-05
6.82629e-05
5.96053e-05
5.17942e-05
4.4961e-05
3.90877e-05
3.37723e-05
2.8427e-05
2.29366e-05
1.78465e-05
1.38209e-05
1.09799e-05
9.1331e-06
7.85662e-06
7.10299e-06
5.42907e-06
1.81854e-06
4.55272e-09
0.000111898
0.000109796
0.000106754
0.000102803
9.79938e-05
9.24041e-05
8.61648e-05
7.94313e-05
7.23867e-05
6.52484e-05
5.81302e-05
5.12379e-05
4.48828e-05
3.92389e-05
3.42923e-05
2.97825e-05
2.52968e-05
2.06989e-05
1.63388e-05
1.2724e-05
1.00286e-05
8.10749e-06
6.69955e-06
5.84915e-06
5.43567e-06
4.99872e-06
2.08326e-06
8.41592e-05
8.24777e-05
8.01227e-05
7.71017e-05
7.34397e-05
6.92142e-05
6.45203e-05
5.94712e-05
5.42366e-05
4.89464e-05
4.37398e-05
3.88056e-05
3.4282e-05
3.01747e-05
2.6341e-05
2.25356e-05
1.86676e-05
1.49753e-05
1.18347e-05
9.41048e-06
7.59498e-06
6.2037e-06
5.15434e-06
4.4747e-06
4.21146e-06
4.58336e-06
6.40193e-05
6.26787e-05
6.0839e-05
5.85013e-05
5.56981e-05
5.2481e-05
4.89182e-05
4.51302e-05
4.12058e-05
3.72354e-05
3.33623e-05
2.97295e-05
2.6355e-05
2.31528e-05
1.99666e-05
1.67362e-05
1.36307e-05
1.09347e-05
8.79933e-06
7.16074e-06
5.88377e-06
4.87401e-06
4.09961e-06
3.56734e-06
3.45123e-06
4.98552e-05
4.915e-05
4.80701e-05
4.66067e-05
4.4768e-05
4.25841e-05
4.00969e-05
3.73751e-05
3.44985e-05
3.15283e-05
2.85466e-05
2.56763e-05
2.29423e-05
2.0297e-05
1.76485e-05
1.4961e-05
1.23556e-05
1.00489e-05
8.176e-06
6.71046e-06
5.5547e-06
4.63949e-06
3.90582e-06
3.39606e-06
2.75358e-06
3.86455e-05
3.80514e-05
3.7166e-05
3.59932e-05
3.45399e-05
3.28289e-05
3.08979e-05
2.8812e-05
2.66036e-05
2.43236e-05
2.20705e-05
1.98763e-05
1.77177e-05
1.55382e-05
1.33189e-05
1.11477e-05
9.18816e-06
7.55697e-06
6.25333e-06
5.21056e-06
4.38101e-06
3.71075e-06
3.25026e-06
2.69758e-06
3.0168e-05
2.9664e-05
2.89381e-05
2.79903e-05
2.68302e-05
2.54782e-05
2.39801e-05
2.23574e-05
2.06378e-05
1.88905e-05
1.715e-05
1.54087e-05
1.36329e-05
1.1813e-05
1.00149e-05
8.3618e-06
6.95199e-06
5.80052e-06
4.86532e-06
4.11153e-06
3.50524e-06
3.05067e-06
2.71848e-06
2.39596e-05
2.36985e-05
2.327e-05
2.26693e-05
2.18997e-05
2.09683e-05
1.99056e-05
1.87261e-05
1.74441e-05
1.6102e-05
1.47364e-05
1.33477e-05
1.1915e-05
1.04349e-05
8.95643e-06
7.57243e-06
6.36432e-06
5.35565e-06
4.52364e-06
3.84198e-06
3.29501e-06
2.852e-06
2.61168e-06
1.89474e-05
1.87151e-05
1.83505e-05
1.7853e-05
1.7225e-05
1.64814e-05
1.56348e-05
1.46903e-05
1.3671e-05
1.26121e-05
1.15174e-05
1.03733e-05
9.17919e-06
7.97235e-06
6.82267e-06
5.79638e-06
4.92059e-06
4.18631e-06
3.57553e-06
3.08103e-06
2.67219e-06
2.42363e-06
1.51653e-05
1.50584e-05
1.48519e-05
1.45421e-05
1.41283e-05
1.36157e-05
1.30163e-05
1.23301e-05
1.1566e-05
1.07538e-05
9.90008e-06
8.99558e-06
8.04072e-06
7.06334e-06
6.11594e-06
5.25161e-06
4.49791e-06
3.85489e-06
3.31267e-06
2.86588e-06
2.50033e-06
2.22993e-06
1.21191e-05
1.20162e-05
1.18337e-05
1.15697e-05
1.1225e-05
1.08091e-05
1.03175e-05
9.75249e-06
9.13694e-06
8.47862e-06
7.77101e-06
7.01414e-06
6.22891e-06
5.45448e-06
4.73293e-06
4.09015e-06
3.53168e-06
3.05422e-06
2.6529e-06
2.32718e-06
2.05669e-06
9.7571e-06
9.72016e-06
9.62322e-06
9.46346e-06
9.23857e-06
8.95507e-06
8.6082e-06
8.19659e-06
7.73612e-06
7.23417e-06
6.68675e-06
6.09277e-06
5.4673e-06
4.83966e-06
4.24272e-06
3.69948e-06
3.21869e-06
2.8014e-06
2.44437e-06
2.15242e-06
1.89997e-06
7.86246e-06
7.82115e-06
7.73168e-06
7.59092e-06
7.4025e-06
7.1627e-06
6.86814e-06
6.5284e-06
6.15045e-06
5.73166e-06
5.27006e-06
4.77625e-06
4.27206e-06
3.7827e-06
3.32792e-06
2.91764e-06
2.55568e-06
2.24096e-06
1.97891e-06
1.75096e-06
6.359e-06
6.35303e-06
6.31028e-06
6.22797e-06
6.10733e-06
5.94556e-06
5.73914e-06
5.49215e-06
5.21137e-06
4.8945e-06
4.53936e-06
4.15311e-06
3.75175e-06
3.35422e-06
2.9771e-06
2.63017e-06
2.3188e-06
2.04361e-06
1.80949e-06
1.60532e-06
5.14289e-06
5.15813e-06
5.14567e-06
5.10302e-06
5.02965e-06
4.92434e-06
4.78275e-06
4.60603e-06
4.40023e-06
4.16376e-06
3.8937e-06
3.59463e-06
3.27808e-06
2.95822e-06
2.64833e-06
2.35768e-06
2.09204e-06
1.85329e-06
1.6458e-06
1.46301e-06
4.18616e-06
4.19256e-06
4.17602e-06
4.13525e-06
4.06981e-06
3.97581e-06
3.85198e-06
3.70372e-06
3.52949e-06
3.32634e-06
3.09698e-06
2.84963e-06
2.59476e-06
2.34259e-06
2.10128e-06
1.87657e-06
1.67111e-06
1.4885e-06
1.32535e-06
3.39603e-06
3.41343e-06
3.41347e-06
3.39479e-06
3.35709e-06
3.29709e-06
3.21267e-06
3.10772e-06
2.98123e-06
2.83028e-06
2.65629e-06
2.46491e-06
2.26369e-06
2.06045e-06
1.86194e-06
1.67343e-06
1.49797e-06
1.33869e-06
1.19357e-06
2.75399e-06
2.77699e-06
2.78716e-06
2.78294e-06
2.76424e-06
2.7281e-06
2.67242e-06
2.59967e-06
2.50935e-06
2.39878e-06
2.26826e-06
2.1217e-06
1.96435e-06
1.80204e-06
1.64026e-06
1.48354e-06
1.33468e-06
1.19691e-06
1.06871e-06
2.25783e-06
2.27357e-06
2.27839e-06
2.27214e-06
2.25252e-06
2.21738e-06
2.16848e-06
2.10518e-06
2.02522e-06
1.92847e-06
1.81741e-06
1.69559e-06
1.56719e-06
1.43648e-06
1.30729e-06
1.18214e-06
1.06367e-06
9.51379e-07
1.8346e-06
1.85289e-06
1.86295e-06
1.86463e-06
1.8561e-06
1.83546e-06
1.80371e-06
1.76038e-06
1.70354e-06
1.63274e-06
1.54943e-06
1.45601e-06
1.35538e-06
1.25072e-06
1.14505e-06
1.04062e-06
9.39611e-07
8.41885e-07
1.4898e-06
1.50865e-06
1.52141e-06
1.52783e-06
1.52652e-06
1.51587e-06
1.49631e-06
1.46746e-06
1.42779e-06
1.3767e-06
1.31489e-06
1.24393e-06
1.16577e-06
1.08267e-06
9.96978e-07
9.10463e-07
8.24974e-07
7.40564e-07
1.22732e-06
1.2411e-06
1.25006e-06
1.25321e-06
1.24917e-06
1.23806e-06
1.21958e-06
1.19251e-06
1.15616e-06
1.11086e-06
1.05748e-06
9.9729e-07
9.31848e-07
8.62867e-07
7.91769e-07
7.1992e-07
6.47584e-07
9.9769e-07
1.01134e-06
1.02136e-06
1.02705e-06
1.02727e-06
1.02186e-06
1.01064e-06
9.92637e-07
9.67214e-07
9.34393e-07
8.94626e-07
8.48669e-07
7.97539e-07
7.4243e-07
6.84389e-07
6.24472e-07
5.62932e-07
8.10327e-07
8.23211e-07
8.3336e-07
8.40297e-07
8.43063e-07
8.41378e-07
8.35159e-07
8.23633e-07
8.06175e-07
7.82675e-07
7.53322e-07
7.18513e-07
6.78843e-07
6.35118e-07
5.88066e-07
5.38447e-07
6.69424e-07
6.79113e-07
6.86422e-07
6.90564e-07
6.91215e-07
6.88323e-07
6.81279e-07
6.69547e-07
6.5294e-07
6.31472e-07
6.05301e-07
5.74735e-07
5.40259e-07
5.02367e-07
4.61554e-07
5.43817e-07
5.52734e-07
5.59873e-07
5.64617e-07
5.66621e-07
5.65855e-07
5.61859e-07
5.5419e-07
5.4262e-07
5.27055e-07
5.07504e-07
4.84087e-07
4.57066e-07
4.26729e-07
3.93392e-07
4.41365e-07
4.49342e-07
4.55995e-07
4.60818e-07
4.6352e-07
4.64057e-07
4.62076e-07
4.57225e-07
4.49279e-07
4.38088e-07
4.23565e-07
4.0572e-07
3.84653e-07
3.60502e-07
3.33441e-07
3.57892e-07
3.649e-07
3.70889e-07
3.75483e-07
3.78432e-07
3.79688e-07
3.78996e-07
3.76068e-07
3.70694e-07
3.62706e-07
3.51976e-07
3.38437e-07
3.22082e-07
3.02955e-07
2.81126e-07
2.89955e-07
2.95998e-07
3.01262e-07
3.05459e-07
3.08385e-07
3.09985e-07
3.10075e-07
3.08423e-07
3.0485e-07
2.99185e-07
2.91289e-07
2.8105e-07
2.68403e-07
2.53322e-07
2.35814e-07
2.39861e-07
2.44408e-07
2.48134e-07
2.50871e-07
2.52566e-07
2.53084e-07
2.52256e-07
2.49926e-07
2.45933e-07
2.40135e-07
2.3241e-07
2.22661e-07
2.10821e-07
1.96854e-07
1.9419e-07
1.98057e-07
2.01286e-07
2.03739e-07
2.05381e-07
2.06113e-07
2.05799e-07
2.04309e-07
2.01506e-07
1.97256e-07
1.91434e-07
1.83935e-07
1.74673e-07
1.63587e-07
1.57071e-07
1.60319e-07
1.63071e-07
1.65214e-07
1.66722e-07
1.67521e-07
1.67505e-07
1.66572e-07
1.6461e-07
1.61494e-07
1.57108e-07
1.51349e-07
1.44126e-07
1.35367e-07
1.26947e-07
1.29647e-07
1.31957e-07
1.33788e-07
1.35116e-07
1.35896e-07
1.36044e-07
1.35476e-07
1.341e-07
1.31812e-07
1.28506e-07
1.24088e-07
1.1847e-07
1.11578e-07
1.02524e-07
1.04748e-07
1.06664e-07
1.08202e-07
1.09344e-07
1.10056e-07
1.10279e-07
1.09943e-07
1.08975e-07
1.07288e-07
1.04793e-07
1.01404e-07
9.70439e-08
9.16408e-08
8.45638e-08
8.61376e-08
8.74118e-08
8.83714e-08
8.89937e-08
8.92359e-08
8.90451e-08
8.83602e-08
8.71109e-08
8.5222e-08
8.26231e-08
7.92445e-08
7.50229e-08
6.82227e-08
6.95038e-08
7.05459e-08
7.13379e-08
7.18663e-08
7.20988e-08
7.19946e-08
7.1505e-08
7.0573e-08
6.91389e-08
6.71445e-08
6.45298e-08
5.50096e-08
5.60436e-08
5.68864e-08
5.75318e-08
5.79697e-08
5.81767e-08
5.81218e-08
5.77666e-08
5.70662e-08
5.59736e-08
5.44406e-08
5.24185e-08
4.43347e-08
4.51646e-08
4.58411e-08
4.63599e-08
4.67156e-08
4.68914e-08
4.68633e-08
4.6601e-08
4.60701e-08
4.52341e-08
4.40541e-08
4.24909e-08
3.572e-08
3.63827e-08
3.69214e-08
3.73338e-08
3.76181e-08
3.77616e-08
3.77463e-08
3.7549e-08
3.71432e-08
3.65005e-08
3.55907e-08
3.43823e-08
2.93003e-08
2.97265e-08
3.00517e-08
3.02754e-08
3.03889e-08
3.03787e-08
3.02274e-08
2.99145e-08
2.94178e-08
2.87147e-08
2.77806e-08
2.35936e-08
2.39288e-08
2.41831e-08
2.43569e-08
2.44445e-08
2.44358e-08
2.43173e-08
2.40736e-08
2.36881e-08
2.31431e-08
2.24203e-08
1.89991e-08
1.92613e-08
1.94586e-08
1.95921e-08
1.96582e-08
1.96488e-08
1.95541e-08
1.93628e-08
1.90621e-08
1.86388e-08
1.80788e-08
1.53024e-08
1.55064e-08
1.56583e-08
1.57597e-08
1.5808e-08
1.57975e-08
1.57207e-08
1.55692e-08
1.53336e-08
1.5004e-08
1.45695e-08
1.2329e-08
1.24869e-08
1.26032e-08
1.26794e-08
1.27138e-08
1.27022e-08
1.26391e-08
1.25182e-08
1.23328e-08
1.20751e-08
1.17374e-08
9.93834e-09
1.00603e-08
1.01487e-08
1.02053e-08
1.02287e-08
1.02163e-08
1.01639e-08
1.00668e-08
9.92005e-09
9.71813e-09
8.0166e-09
8.11043e-09
8.17723e-09
8.21865e-09
8.23395e-09
8.22107e-09
8.17708e-09
8.09859e-09
7.98192e-09
7.8231e-09
6.54419e-09
6.5943e-09
6.62416e-09
6.63343e-09
6.62043e-09
6.58319e-09
6.51929e-09
6.42605e-09
6.30062e-09
5.2862e-09
5.32351e-09
5.34459e-09
5.34934e-09
5.33663e-09
5.30495e-09
5.2526e-09
5.17768e-09
5.07814e-09
4.2748e-09
4.30241e-09
4.31702e-09
4.31866e-09
4.30653e-09
4.27953e-09
4.23648e-09
4.17601e-09
4.09669e-09
3.45971e-09
3.48005e-09
3.48996e-09
3.48952e-09
3.47826e-09
3.45536e-09
3.41999e-09
3.37117e-09
3.30789e-09
2.80024e-09
2.81507e-09
2.82162e-09
2.82002e-09
2.8099e-09
2.7907e-09
2.7618e-09
2.72254e-09
2.6722e-09
2.26525e-09
2.27592e-09
2.28004e-09
2.27775e-09
2.2688e-09
2.25279e-09
2.22929e-09
2.19785e-09
1.83234e-09
1.83985e-09
1.84212e-09
1.83931e-09
1.83128e-09
1.81777e-09
1.79852e-09
1.77321e-09
1.48396e-09
1.48899e-09
1.4898e-09
1.48655e-09
1.47916e-09
1.46749e-09
1.45139e-09
1.43068e-09
1.20838e-09
1.20807e-09
1.20445e-09
1.19752e-09
1.1872e-09
1.1734e-09
1.15609e-09
9.83234e-10
9.82074e-10
9.78191e-10
9.71648e-10
9.62364e-10
9.50282e-10
9.35547e-10
8.04212e-10
8.03001e-10
7.9956e-10
7.94213e-10
7.8637e-10
7.76135e-10
7.64251e-10
6.75606e-10
6.74145e-10
6.70681e-10
6.66064e-10
6.5898e-10
6.4964e-10
6.39852e-10
5.79648e-10
5.77765e-10
5.73855e-10
5.69013e-10
5.61797e-10
5.52268e-10
4.9587e-10
4.94438e-10
4.91111e-10
4.86881e-10
4.80552e-10
4.71959e-10
4.1995e-10
4.18042e-10
4.14334e-10
4.09776e-10
4.03601e-10
3.95069e-10
3.55149e-10
3.5422e-10
3.51723e-10
3.48262e-10
3.43557e-10
3.37153e-10
2.9113e-10
2.88231e-10
2.83899e-10
2.79038e-10
2.73466e-10
2.65076e-10
2.53346e-10
2.53559e-10
2.52422e-10
2.49623e-10
2.4639e-10
2.43428e-10
1.82961e-10
1.78082e-10
1.74064e-10
1.69344e-10
1.59319e-10
2.05244e-10
2.07522e-10
2.0506e-10
2.04348e-10
2.12019e-10
1.27101e-10
1.27636e-10
1.31481e-10
1.29887e-10
1.19862e-10
2.92503e-10
3.0907e-10
3.07478e-10
3.14737e-10
3.48683e-10
3.66678e-10
3.88511e-10
4.20865e-10
7.47813e-10
8.37641e-10
7.78688e-10
7.01848e-10
)
;

boundaryField
{
    inlet
    {
        type            calculated;
        value           nonuniform List<scalar> 4(1.45876e-08 1.65169e-08 1.69432e-08 1.73415e-08);
    }
    outlet
    {
        type            calculated;
        value           nonuniform List<scalar> 0();
    }
    walls
    {
        type            calculated;
        value           uniform 0;
    }
    frontAndBack
    {
        type            empty;
    }
    procBoundary5to0
    {
        type            processor;
        value           nonuniform List<scalar> 4(0.000197899 0.000193283 0.000188262 0.000182096);
    }
    procBoundary5to1
    {
        type            processor;
        value           nonuniform List<scalar> 
13
(
0.00631384
0.0035415
0.0035415
0.00226347
0.0016133
0.0016133
0.00101946
0.00072959
0.00072959
0.00048592
0.000332303
0.000245565
0.000245565
)
;
    }
    procBoundary5to4
    {
        type            processor;
        value           nonuniform List<scalar> 
95
(
0.000201543
0.000204607
0.000206993
0.000206993
0.000151848
0.000152444
0.000152444
0.000113541
0.00011314
0.00011314
8.51652e-05
8.51652e-05
6.48636e-05
6.48636e-05
5.02043e-05
3.89653e-05
3.89653e-05
3.04552e-05
3.04552e-05
2.40604e-05
1.90559e-05
1.90559e-05
1.51792e-05
1.21475e-05
1.21475e-05
9.73815e-06
7.85861e-06
7.85861e-06
6.33143e-06
5.1027e-06
4.1591e-06
4.1591e-06
3.36343e-06
2.71966e-06
2.23262e-06
2.23262e-06
1.80929e-06
1.46579e-06
1.20904e-06
1.20904e-06
9.80692e-07
7.95008e-07
6.5766e-07
6.5766e-07
5.33348e-07
4.32217e-07
3.50018e-07
2.83258e-07
2.34718e-07
2.34718e-07
1.89861e-07
1.53464e-07
1.23965e-07
1.00077e-07
8.27461e-08
8.27461e-08
6.67462e-08
5.38175e-08
4.33776e-08
3.49548e-08
2.87745e-08
2.87745e-08
2.31784e-08
1.86723e-08
1.50459e-08
1.21284e-08
9.78175e-09
7.89459e-09
6.47226e-09
6.47226e-09
5.23118e-09
4.23294e-09
3.42792e-09
2.77617e-09
2.24721e-09
1.8189e-09
1.47409e-09
1.20525e-09
1.20525e-09
9.81538e-10
8.03069e-10
6.74899e-10
5.79385e-10
4.95376e-10
4.20017e-10
3.5453e-10
2.92744e-10
2.51557e-10
1.86942e-10
1.86942e-10
2.01956e-10
1.25508e-10
2.78217e-10
3.22756e-10
7.44907e-10
)
;
    }
    procBoundary5to6
    {
        type            processor;
        value           nonuniform List<scalar> 
86
(
334.293
26.5071
31.979
32.412
16.9231
1.66373
0.0333093
0.00387737
0.000193082
0
0
2.63985e-09
1.10322e-06
4.90214e-06
4.19988e-06
2.77129e-06
2.12087e-06
2.00603e-06
2.03188e-06
2.00302e-06
1.89239e-06
1.74237e-06
1.58858e-06
1.44407e-06
1.30981e-06
1.18344e-06
1.06396e-06
9.51387e-07
8.45823e-07
7.47809e-07
6.57551e-07
5.74904e-07
4.99901e-07
4.865e-07
4.865e-07
4.18047e-07
3.57203e-07
3.03561e-07
2.56635e-07
2.15875e-07
1.80724e-07
1.50622e-07
1.25008e-07
1.03346e-07
8.51337e-08
6.99008e-08
6.12408e-08
6.12408e-08
4.98626e-08
4.05083e-08
3.28464e-08
2.65919e-08
2.15013e-08
1.73678e-08
1.40194e-08
1.13116e-08
9.4551e-09
9.4551e-09
7.61776e-09
6.13976e-09
4.95164e-09
3.99681e-09
3.22893e-09
2.60986e-09
2.15794e-09
2.15794e-09
1.74149e-09
1.40513e-09
1.13515e-09
9.18055e-10
7.50072e-10
6.28271e-10
5.42836e-10
5.42836e-10
4.63237e-10
3.86588e-10
3.29798e-10
2.57784e-10
2.36635e-10
1.54823e-10
2.03934e-10
1.23656e-10
3.69073e-10
3.69073e-10
4.24718e-10
1.21616e-09
)
;
    }
}


// ************************************************************************* //
