/*--------------------------------*- C++ -*----------------------------------*\
| =========                 |                                                 |
| \\      /  F ield         | OpenFOAM: The Open Source CFD Toolbox           |
|  \\    /   O peration     | Version:  2306                                  |
|   \\  /    A nd           | Website:  www.openfoam.com                      |
|    \\/     M anipulation  |                                                 |
\*---------------------------------------------------------------------------*/
FoamFile
{
    version     2.0;
    format      ascii;
    arch        "LSB;label=32;scalar=64";
    class       volScalarField;
    location    "325";
    object      turbulenceProperties:I;
}
// * * * * * * * * * * * * * * * * * * * * * * * * * * * * * * * * * * * * * //

dimensions      [0 0 0 0 0 0 0];

internalField   nonuniform List<scalar> 
1340
(
0.00417412
0.0041492
0.00416938
0.00429782
0.00446117
0.00469051
0.00500349
0.00538918
0.00586672
0.00645493
0.00717342
0.00806444
0.00918856
0.010629
0.0125293
0.0150871
0.018695
0.0238242
0.0320151
0.0443886
0.0693999
0.111484
0.228208
0.421154
0.507959
0.467031
0.408439
0.366489
0.339441
0.322289
0.311199
0.303476
0.299006
0.296896
0.296958
0.0042255
0.00438248
0.00456331
0.00498514
0.00568673
0.00704363
0.0101819
0.00181788
0.00166477
0.00152719
0.00139733
0.0012767
0.00116848
0.00106932
0.000977899
0.000896812
0.000824171
0.000759282
0.00071127
0.00069211
0.000711413
0.000795831
0.000979999
0.00132957
0.00190154
0.00294711
0.0046485
0.00816243
0.014144
0.0264861
0.0520649
0.0805725
0.108922
0.137075
0.16142
0.175748
0.17774
0.171276
0.161907
0.153571
0.147671
0.144849
0.00198359
0.00219096
0.0024698
0.00286774
0.00346293
0.00439698
0.00157872
0.00145478
0.00133332
0.00121907
0.0011208
0.00103365
0.000958212
0.000895772
0.000844881
0.000805014
0.000774137
0.000752519
0.000739237
0.000734157
0.00072987
0.000715255
0.000666931
0.000617012
0.000207282
0.00151456
0.00095259
0.00122379
0.000426514
0.00279416
0.00824078
0.0155635
0.0256411
0.0403294
0.0602433
0.0834656
0.105755
0.122391
0.13118
0.134272
0.135567
0.00172233
0.00189302
0.00212878
0.00244325
0.0028669
0.00342246
0.00149027
0.00138674
0.00128702
0.00119633
0.00111323
0.00103593
0.000965506
0.000900567
0.000840961
0.000785985
0.000735032
0.000687273
0.000641862
0.000598299
0.000555801
0.000512303
0.000468766
0.000428258
0.000373562
0.000283584
9.42545e-08
0.000434333
0.000366982
0.00151058
0.00291855
0.00404722
0.00481326
0.00101236
0.00392928
0.012701
0.0276713
0.0484825
0.0717229
0.0924309
0.107776
0.00160002
0.00172804
0.00189085
0.0021052
0.00237221
0.00131455
0.00122935
0.00114552
0.00106628
0.000993161
0.000924181
0.000860446
0.000801995
0.00074837
0.000700063
0.000656899
0.000618868
0.000586189
0.000558871
0.000536886
0.000519373
0.000503038
0.00048522
0.000467388
0.00044175
0.000364077
0.000207095
8.47518e-05
3.40089e-05
0
0
0
0.000962233
0.00330651
0.0060803
0.00281741
0.00523009
0.0135123
0.034351
0.0593783
0.00140566
0.00150909
0.00163738
0.00179522
0.00197613
0.00119678
0.0011292
0.00106147
0.000997551
0.000938194
0.000881775
0.000829314
0.000780546
0.000735059
0.000692819
0.000653424
0.00061663
0.000582294
0.000550179
0.000520093
0.000490983
0.000461043
0.000430996
0.000402693
0.000377746
0.000357629
0.000327382
0.000278434
0.000123659
6.52391e-05
5.06967e-05
3.24257e-05
2.63372e-06
0
0
0.00143781
0.00458334
0.00201981
0.00740583
0.0113272
0.00126675
0.00134418
0.00143794
0.00155019
0.00107722
0.00102233
0.000966435
0.000912762
0.000862527
0.000814018
0.000768229
0.000725212
0.000684554
0.000646385
0.000610566
0.00057698
0.000545708
0.000516794
0.000490226
0.000466245
0.000445444
0.000427044
0.000409337
0.000391584
0.000375188
0.000361703
0.000347358
0.000318654
0.000267977
0.0002142
0.000126354
9.33547e-06
4.20102e-05
1.46863e-05
0
0
0.000760707
0.00433568
0.0038469
0.00113333
0.00119404
0.0012659
0.00134883
0.000977343
0.000933347
0.000887871
0.000843803
0.000802373
0.000762022
0.000723771
0.000687664
0.000653344
0.000620939
0.000590237
0.000561124
0.000533576
0.000507506
0.000482845
0.0004596
0.00043725
0.000415005
0.000393314
0.000373144
0.000355564
0.000341696
0.000332024
0.000325734
0.000314916
0.000296112
0.000265668
0.000223974
0.000177918
5.84041e-05
4.17058e-05
8.1749e-06
0
0
0.00154442
0.0010215
0.0010685
0.0011233
0.00118506
0.00088775
0.000852062
0.000814672
0.000778004
0.000743356
0.00070926
0.000676643
0.000645605
0.000615827
0.000587424
0.000560264
0.000534242
0.000509372
0.000485625
0.000463028
0.000441562
0.000421308
0.0004026
0.000385279
0.000369111
0.000354138
0.000340939
0.000329764
0.000320274
0.000311062
0.000300189
0.000288074
0.000272694
0.000256811
0.000223765
0.000184287
3.66156e-05
3.18194e-05
0
0
0.000923111
0.000960155
0.00100279
0.000690651
0.000662065
0.000634561
0.000608261
0.0005829
0.000558586
0.000535193
0.000512629
0.000490904
0.000469981
0.00044986
0.000430543
0.000412091
0.00039428
0.000376981
0.000360573
0.000345629
0.000332689
0.000321869
0.000312136
0.000301898
0.000290207
0.000278025
0.000267189
0.000259195
0.00025301
0.00024575
0.000214566
0.000142417
4.38791e-05
0
0.000594548
0.000572144
0.000550394
0.000529417
0.000509091
0.000489331
0.000470141
0.000451487
0.000433389
0.000415881
0.000398985
0.0003828
0.00036743
0.000352953
0.000339609
0.00032761
0.000317068
0.000307367
0.000297101
0.000285259
0.000272336
0.000260315
0.000250834
0.000244895
0.000241583
0.000241888
0.00023239
0.000182431
4.83304e-05
0.000520014
0.000502036
0.000484526
0.000467403
0.000450666
0.000434286
0.000418271
0.000402651
0.00038747
0.000372813
0.000358629
0.000345019
0.000332341
0.000320873
0.000310672
0.000301265
0.00029154
0.000280543
0.000268442
0.000256642
0.000246552
0.000238776
0.000232955
0.000230943
0.000233174
0.000235374
0.000195172
0.000475727
0.000460638
0.000445798
0.000431199
0.000416802
0.000402621
0.000388687
0.000375032
0.000361765
0.000348932
0.000336611
0.000325021
0.000314366
0.000304652
0.000295531
0.000286201
0.000275914
0.000264743
0.00025374
0.000244062
0.000236064
0.000229464
0.000224477
0.000222564
0.000225818
0.0002388
0.000437823
0.000425011
0.000412344
0.000399784
0.000387328
0.000375002
0.000362835
0.000350934
0.000339339
0.000328089
0.000317364
0.000307399
0.000298195
0.000289473
0.000280609
0.000271008
0.000260701
0.000250514
0.00024144
0.000233811
0.000227438
0.000222172
0.000218377
0.000217046
0.000222372
0.000415975
0.00040495
0.00039399
0.000383059
0.000372143
0.000361271
0.000350475
0.000339827
0.00032941
0.000319256
0.000309461
0.000300251
0.000291627
0.000283363
0.00027499
0.000266038
0.00025651
0.000247055
0.000238523
0.000231276
0.000225211
0.000220294
0.000216432
0.000214936
0.000210391
0.000385687
0.000376237
0.000366759
0.000357253
0.000347724
0.000338201
0.000328734
0.000319427
0.000310287
0.000301369
0.000292881
0.000284845
0.000277088
0.000269237
0.000260927
0.000252143
0.000243392
0.000235386
0.000228496
0.000222689
0.000218025
0.00021438
0.000213151
0.000209729
0.000359089
0.000350915
0.000342666
0.00033435
0.000325986
0.000317613
0.000309331
0.000301153
0.000293101
0.000285339
0.000277913
0.000270693
0.000263389
0.000255705
0.000247628
0.000239552
0.000232068
0.000225537
0.000219985
0.000215482
0.00021207
0.00021036
0.000210598
0.000342586
0.000335556
0.00032843
0.000321207
0.000313904
0.000306541
0.000299211
0.000291931
0.000284707
0.000277649
0.000270835
0.000264172
0.000257423
0.000250357
0.000242956
0.00023553
0.000228566
0.000222405
0.000217124
0.000212775
0.000209559
0.000207421
0.000208938
0.000320692
0.000314568
0.000308328
0.000301983
0.000295551
0.000289096
0.000282652
0.000276211
0.000269836
0.000263633
0.000257536
0.000251347
0.00024488
0.000238124
0.00023132
0.000224871
0.000219089
0.000214089
0.000209922
0.00020683
0.000204663
0.000205485
0.000306361
0.000301123
0.000295761
0.000290278
0.00028469
0.00027903
0.000273358
0.000267656
0.000261945
0.000256338
0.000250799
0.000245164
0.00023928
0.000233139
0.000226931
0.000220987
0.000215589
0.000210871
0.00020691
0.000203897
0.000201898
0.000201667
0.00028809
0.000283509
0.000278798
0.00027397
0.000269046
0.000264093
0.000259078
0.000254001
0.000248973
0.000243981
0.000238889
0.000233567
0.00022801
0.00022237
0.000216918
0.000211905
0.000207474
0.000203725
0.000200789
0.000198927
0.00019806
0.000275489
0.0002716
0.000267581
0.000263441
0.000259189
0.000254885
0.000250502
0.000246026
0.000241553
0.000237089
0.000232525
0.000227745
0.000222743
0.000217644
0.000212669
0.000208037
0.000203896
0.00020036
0.000197526
0.00019571
0.000194614
0.00026005
0.000256646
0.000253119
0.000249472
0.000245758
0.000241957
0.000238049
0.000234103
0.000230145
0.000226086
0.000221822
0.000217346
0.00021276
0.000208244
0.00020399
0.00020014
0.000196812
0.000194096
0.000192276
0.000191129
0.000248862
0.000246003
0.000243024
0.000239925
0.000236746
0.000233478
0.000230098
0.000226648
0.00022317
0.000219589
0.000215812
0.00021183
0.000207729
0.000203653
0.000199769
0.000196207
0.000193089
0.000190496
0.000188663
0.000187477
0.000238045
0.000235668
0.000233175
0.000230568
0.000227869
0.000225087
0.00022219
0.000219199
0.000216169
0.000213041
0.000209724
0.000206209
0.000202564
0.000198907
0.000195379
0.000192103
0.000189191
0.000186724
0.000184889
0.000183633
0.000225646
0.000223584
0.000221414
0.000219148
0.000216803
0.00021435
0.000211785
0.000209174
0.000206466
0.000203577
0.000200494
0.000197274
0.000194015
0.000190831
0.000187832
0.000185124
0.000182783
0.000180951
0.00017961
0.000215941
0.000214261
0.000212478
0.0002106
0.000208647
0.000206594
0.000204423
0.000202197
0.000199876
0.000197383
0.000194701
0.000191878
0.000188991
0.000186135
0.000183405
0.000180895
0.000178679
0.000176863
0.000175427
0.000206557
0.000205209
0.000203769
0.000202237
0.000200637
0.00019894
0.000197129
0.000195252
0.000193286
0.000191159
0.000188846
0.000186389
0.000183849
0.000181302
0.000178831
0.000176516
0.000174416
0.000172627
0.000171106
0.000196437
0.000195299
0.000194073
0.000192784
0.000191406
0.000189916
0.00018836
0.000186716
0.000184917
0.000182943
0.000180822
0.000178604
0.000176347
0.00017412
0.000171993
0.000170013
0.000168248
0.00016666
0.000187947
0.000187071
0.000186115
0.000185099
0.000184004
0.000182803
0.000181534
0.000180179
0.000178679
0.000177011
0.000175196
0.000173272
0.000171285
0.000169289
0.00016734
0.000165476
0.000163744
0.000162097
0.000179737
0.000179088
0.000178368
0.000177593
0.000176747
0.000175803
0.000174789
0.000173691
0.000172458
0.000171066
0.000169527
0.000167872
0.000166133
0.000164352
0.000162573
0.00016082
0.000159126
0.000157434
0.000171355
0.000170841
0.000170275
0.000169646
0.000168926
0.000168136
0.000167266
0.00016627
0.000165123
0.000163834
0.00016242
0.000160908
0.000159326
0.000157705
0.000156062
0.000154408
0.000152685
0.000163874
0.000163536
0.00016315
0.000162708
0.000162185
0.000161591
0.00016092
0.000160131
0.0001592
0.000158131
0.000156935
0.000155628
0.000154228
0.000152755
0.000151216
0.000149609
0.000147868
0.00015664
0.000156453
0.000156222
0.000155942
0.000155588
0.000155162
0.000154664
0.000154057
0.000153315
0.000152439
0.000151435
0.000150312
0.000149077
0.000147741
0.000146302
0.000144744
0.000149597
0.000149496
0.000149354
0.000149143
0.000148863
0.000148512
0.00014806
0.000147482
0.000146774
0.000145939
0.000144978
0.000143892
0.000142683
0.000141338
0.000139833
0.000142965
0.000142975
0.000142948
0.000142859
0.000142701
0.000142475
0.000142154
0.000141716
0.000141154
0.000140465
0.000139647
0.000138694
0.000137599
0.000136344
0.000134896
0.000136559
0.00013666
0.000136728
0.000136739
0.000136684
0.000136563
0.000136352
0.000136032
0.000135593
0.000135031
0.000134337
0.000133501
0.00013251
0.000131339
0.00012995
0.000130376
0.000130554
0.000130699
0.000130791
0.00013082
0.000130784
0.000130665
0.000130443
0.000130108
0.000129653
0.000129065
0.000128332
0.000127434
0.000126344
0.000125016
0.000124415
0.000124654
0.000124861
0.000125018
0.000125114
0.000125148
0.000125103
0.000124961
0.000124713
0.000124347
0.000123851
0.000123207
0.000122392
0.000121376
0.000120111
0.000118959
0.000119215
0.000119424
0.000119573
0.000119662
0.000119675
0.000119598
0.00011942
0.000119128
0.000118709
0.000118142
0.000117402
0.000116456
0.000115254
0.000113471
0.000113764
0.00011401
0.0001142
0.00011433
0.00011439
0.000114364
0.000114242
0.000114011
0.000113656
0.000113154
0.000112481
0.0001116
0.000110462
0.000108186
0.000108505
0.00010878
0.000108998
0.00010916
0.000109254
0.000109267
0.000109189
0.000109007
0.000108705
0.00010826
0.000107645
0.000106824
0.00010575
0.000103103
0.00010344
0.000103733
0.000103972
0.000104155
0.000104273
0.000104315
0.000104271
0.000104128
0.000103869
0.000103471
0.000102908
0.000102144
0.000101132
9.82188e-05
9.85658e-05
9.88702e-05
9.91215e-05
9.93179e-05
9.94526e-05
9.95151e-05
9.94959e-05
9.93825e-05
9.91582e-05
9.88007e-05
9.82835e-05
9.75725e-05
9.66226e-05
9.38821e-05
9.41913e-05
9.44485e-05
9.46519e-05
9.47957e-05
9.48716e-05
9.48702e-05
9.47796e-05
9.45831e-05
9.42593e-05
9.37829e-05
9.31211e-05
9.22313e-05
8.93866e-05
8.96952e-05
8.99527e-05
9.01575e-05
9.03055e-05
9.03891e-05
9.03997e-05
9.03257e-05
9.0151e-05
8.98556e-05
8.94156e-05
8.87996e-05
8.50773e-05
8.53808e-05
8.5634e-05
8.58363e-05
8.5984e-05
8.60707e-05
8.60884e-05
8.6026e-05
8.58684e-05
8.55971e-05
8.51892e-05
8.46157e-05
8.09501e-05
8.12456e-05
8.14916e-05
8.16878e-05
8.18318e-05
8.1918e-05
8.19392e-05
8.18844e-05
8.17401e-05
8.14892e-05
8.11101e-05
8.05761e-05
7.70024e-05
7.72875e-05
7.75237e-05
7.77112e-05
7.78489e-05
7.79318e-05
7.79533e-05
7.79034e-05
7.77694e-05
7.75357e-05
7.71825e-05
7.66853e-05
7.3503e-05
7.37277e-05
7.3905e-05
7.40344e-05
7.4112e-05
7.41315e-05
7.40843e-05
7.39583e-05
7.37392e-05
7.34093e-05
7.29464e-05
6.9889e-05
7.0101e-05
7.02667e-05
7.03866e-05
7.04575e-05
7.04739e-05
7.04274e-05
7.03075e-05
7.0101e-05
6.9792e-05
6.93608e-05
6.64417e-05
6.664e-05
6.67936e-05
6.69033e-05
6.69667e-05
6.69786e-05
6.69316e-05
6.68164e-05
6.6621e-05
6.63312e-05
6.59291e-05
6.31571e-05
6.33414e-05
6.34823e-05
6.35813e-05
6.36365e-05
6.36433e-05
6.35951e-05
6.34834e-05
6.32978e-05
6.30255e-05
6.26506e-05
6.00303e-05
6.02003e-05
6.03286e-05
6.0417e-05
6.04639e-05
6.04654e-05
6.04154e-05
6.03065e-05
6.01295e-05
5.9873e-05
5.95231e-05
5.70568e-05
5.72129e-05
5.73289e-05
5.74067e-05
5.74451e-05
5.7441e-05
5.7389e-05
5.72824e-05
5.7113e-05
5.6871e-05
5.4232e-05
5.43746e-05
5.44785e-05
5.4546e-05
5.45763e-05
5.45666e-05
5.45123e-05
5.44074e-05
5.42449e-05
5.40162e-05
5.16812e-05
5.17734e-05
5.1831e-05
5.18536e-05
5.18383e-05
5.17814e-05
5.16779e-05
5.15215e-05
5.13047e-05
4.91281e-05
4.92092e-05
4.92573e-05
4.92722e-05
4.92518e-05
4.91924e-05
4.90899e-05
4.89388e-05
4.87327e-05
4.67084e-05
4.67792e-05
4.68185e-05
4.68265e-05
4.68012e-05
4.67396e-05
4.66381e-05
4.64919e-05
4.62956e-05
4.44117e-05
4.44731e-05
4.45046e-05
4.45063e-05
4.44769e-05
4.44138e-05
4.43136e-05
4.41726e-05
4.39859e-05
4.22239e-05
4.22766e-05
4.23011e-05
4.22978e-05
4.22655e-05
4.22019e-05
4.21041e-05
4.19688e-05
4.1792e-05
4.0134e-05
4.01786e-05
4.01968e-05
4.01891e-05
4.01544e-05
4.00909e-05
3.9996e-05
3.98671e-05
3.81428e-05
3.81796e-05
3.81914e-05
3.8179e-05
3.81414e-05
3.80772e-05
3.79846e-05
3.78612e-05
3.62574e-05
3.62863e-05
3.62913e-05
3.62733e-05
3.62317e-05
3.61655e-05
3.60731e-05
3.5953e-05
3.45074e-05
3.45052e-05
3.44809e-05
3.44342e-05
3.43644e-05
3.42703e-05
3.41509e-05
3.28342e-05
3.28246e-05
3.27934e-05
3.2741e-05
3.26663e-05
3.25685e-05
3.2448e-05
3.12802e-05
3.12684e-05
3.12359e-05
3.11856e-05
3.11116e-05
3.10142e-05
3.09002e-05
2.99892e-05
2.99728e-05
2.99351e-05
2.98854e-05
2.98084e-05
2.9706e-05
2.95983e-05
2.88957e-05
2.88719e-05
2.88236e-05
2.87642e-05
2.8675e-05
2.85561e-05
2.78223e-05
2.78018e-05
2.77554e-05
2.76967e-05
2.76084e-05
2.74871e-05
2.67217e-05
2.66908e-05
2.66317e-05
2.65593e-05
2.64604e-05
2.63221e-05
2.56556e-05
2.56381e-05
2.5593e-05
2.55306e-05
2.54454e-05
2.53282e-05
2.44409e-05
2.43792e-05
2.42871e-05
2.41832e-05
2.40627e-05
2.38778e-05
2.36333e-05
2.36372e-05
2.36104e-05
2.3545e-05
2.34692e-05
2.33999e-05
2.18121e-05
2.16651e-05
2.15421e-05
2.13951e-05
2.10724e-05
2.24685e-05
2.25297e-05
2.24624e-05
2.24432e-05
2.26516e-05
1.99618e-05
1.99822e-05
2.01308e-05
2.00692e-05
1.96709e-05
2.45908e-05
2.49303e-05
2.48973e-05
2.5043e-05
2.57614e-05
2.60855e-05
2.64637e-05
2.69958e-05
3.11017e-05
3.1991e-05
3.14081e-05
3.05941e-05
)
;

boundaryField
{
    inlet
    {
        type            calculated;
        value           nonuniform List<scalar> 4(6.55165e-05 6.75797e-05 6.80023e-05 6.83833e-05);
    }
    outlet
    {
        type            calculated;
        value           nonuniform List<scalar> 0();
    }
    walls
    {
        type            calculated;
        value           uniform 0;
    }
    frontAndBack
    {
        type            empty;
    }
    procBoundary5to0
    {
        type            processor;
        value           nonuniform List<scalar> 4(0.000809568 0.000837912 0.00086727 0.00090073);
    }
    procBoundary5to1
    {
        type            processor;
        value           nonuniform List<scalar> 
13
(
0.0170009
0.00583258
0.00583258
0.00405554
0.00268408
0.00268408
0.00216716
0.00167233
0.00167233
0.00143478
0.00124697
0.00104972
0.00104972
)
;
    }
    procBoundary5to4
    {
        type            processor;
        value           nonuniform List<scalar> 
95
(
0.000780596
0.000749888
0.000719503
0.000719503
0.000641958
0.00061788
0.00061788
0.000557603
0.000538573
0.000538573
0.000491145
0.000491145
0.000450779
0.000450779
0.000427081
0.000395155
0.000395155
0.000367204
0.000367204
0.000349534
0.000326711
0.000326711
0.000311483
0.000292546
0.000292546
0.000279254
0.000263328
0.000263328
0.000251602
0.000240311
0.000227599
0.000227599
0.000217525
0.000207814
0.000197493
0.000197493
0.000188748
0.000180319
0.000171805
0.000171805
0.000164154
0.000156776
0.000149655
0.000149655
0.000142916
0.00013642
0.000130165
0.000124145
0.000118673
0.000118673
0.000113149
0.000107837
0.000102737
9.78424e-05
9.35311e-05
9.35311e-05
8.90365e-05
8.47322e-05
8.06135e-05
7.66767e-05
7.32307e-05
7.32307e-05
6.96307e-05
6.61981e-05
6.29284e-05
5.98168e-05
5.68584e-05
5.40481e-05
5.15515e-05
5.15515e-05
4.90107e-05
4.66029e-05
4.43172e-05
4.21396e-05
4.00596e-05
3.80775e-05
3.62012e-05
3.44866e-05
3.44866e-05
3.28214e-05
3.12703e-05
2.99825e-05
2.88937e-05
2.78167e-05
2.67242e-05
2.56459e-05
2.44763e-05
2.35932e-05
2.19306e-05
2.19306e-05
2.23795e-05
1.98997e-05
2.42873e-05
2.52704e-05
3.10776e-05
)
;
    }
    procBoundary5to6
    {
        type            processor;
        value           nonuniform List<scalar> 
86
(
0.299249
0.145283
0.1374
0.118711
0.083457
0.0367195
0.00950947
0.00256746
0.000857128
0
0
4.44081e-05
0.000173687
0.000252786
0.000243115
0.00021854
0.00020449
0.000201903
0.000202831
0.0002024
0.000199813
0.000195978
0.000191748
0.000187478
0.000183211
0.000178878
0.000174439
0.000169888
0.000165227
0.000160481
0.000155667
0.000150793
0.000145881
0.000142999
0.000142999
0.000138098
0.000133181
0.000128266
0.000123375
0.000118521
0.000113722
0.000108994
0.000104352
9.98069e-05
9.53718e-05
9.10554e-05
8.7968e-05
8.7968e-05
8.38402e-05
7.98541e-05
7.6014e-05
7.2323e-05
6.87828e-05
6.5393e-05
6.21537e-05
5.90627e-05
5.6544e-05
5.6544e-05
5.37104e-05
5.10181e-05
4.84635e-05
4.60422e-05
4.37473e-05
4.15683e-05
3.97005e-05
3.97005e-05
3.77039e-05
3.58025e-05
3.40046e-05
3.23031e-05
3.07624e-05
2.94691e-05
2.84377e-05
2.84377e-05
2.73632e-05
2.61832e-05
2.51921e-05
2.37146e-05
2.32373e-05
2.0924e-05
2.24343e-05
1.98257e-05
2.60593e-05
2.60593e-05
2.70572e-05
3.50922e-05
)
;
    }
}


// ************************************************************************* //
