/*--------------------------------*- C++ -*----------------------------------*\
| =========                 |                                                 |
| \\      /  F ield         | OpenFOAM: The Open Source CFD Toolbox           |
|  \\    /   O peration     | Version:  2306                                  |
|   \\  /    A nd           | Website:  www.openfoam.com                      |
|    \\/     M anipulation  |                                                 |
\*---------------------------------------------------------------------------*/
FoamFile
{
    version     2.0;
    format      ascii;
    arch        "LSB;label=32;scalar=64";
    class       volSymmTensorField;
    location    "325";
    object      turbulenceProperties:devReff;
}
// * * * * * * * * * * * * * * * * * * * * * * * * * * * * * * * * * * * * * //

dimensions      [0 2 -2 0 0 0 0];

internalField   nonuniform List<symmTensor> 
1340
(
(0.00163736 0.00425884 -9.48982e-22 -0.00177399 -2.23925e-20 0.000136629)
(0.00238892 0.00488121 -1.33369e-22 -0.00248688 1.40394e-19 9.79661e-05)
(0.00361172 0.00546194 -2.76373e-20 -0.00380899 -4.35085e-19 0.000197272)
(0.00524693 0.00621635 1.19082e-19 -0.00549297 8.79026e-19 0.000246037)
(0.00742637 0.006875 -2.25964e-19 -0.00769507 -8.34426e-19 0.000268704)
(0.010406 0.00726352 -1.72339e-19 -0.0107975 -4.50726e-19 0.000391526)
(0.0143017 0.00737621 3.2603e-19 -0.0147881 1.25276e-18 0.000486356)
(0.0191911 0.00686052 -8.31439e-19 -0.0197738 -2.26177e-18 0.000582698)
(0.0252434 0.00535273 -2.06546e-19 -0.0259901 6.04567e-19 0.000746699)
(0.0325699 0.00260691 6.13851e-19 -0.0334705 1.25969e-18 0.000900613)
(0.0413489 -0.00189799 1.58003e-18 -0.0424406 5.77771e-19 0.00109167)
(0.0519679 -0.00873494 -3.55293e-18 -0.0532859 -3.29983e-18 0.00131801)
(0.0649678 -0.0188243 6.72904e-19 -0.0665613 8.6853e-19 0.00159341)
(0.0812595 -0.0337537 2.68673e-18 -0.0832146 1.27328e-18 0.00195509)
(0.102384 -0.0561768 -4.07798e-18 -0.104851 -6.37048e-18 0.0024666)
(0.130551 -0.0904169 -4.36581e-18 -0.133726 -2.5855e-18 0.00317497)
(0.169913 -0.145083 1.92166e-17 -0.17422 1.77938e-17 0.00430729)
(0.224319 -0.232459 1.78592e-17 -0.2302 3.37983e-17 0.00588119)
(0.311007 -0.388967 -3.53958e-17 -0.319624 -5.4872e-17 0.00861663)
(0.426509 -0.641815 -1.37444e-18 -0.438685 1.45572e-17 0.0121752)
(0.667104 -1.21465 -2.72298e-17 -0.686504 5.20758e-17 0.0194)
(0.945628 -2.11446 -1.24931e-17 -0.971736 4.19093e-17 0.0261079)
(1.76677 -5.13181 -1.43174e-16 -1.81892 -6.42767e-16 0.0521511)
(2.42843 -10.3114 3.31643e-16 -2.51183 5.59335e-16 0.0834005)
(1.52771 -11.6435 4.2408e-17 -1.56885 -7.12524e-16 0.0411412)
(0.526253 -11.2246 3.65685e-16 -0.51487 5.814e-16 -0.0113833)
(-0.145747 -11.0411 -8.18781e-17 0.175562 -7.84546e-17 -0.0298142)
(-0.664781 -11.2242 2.74541e-16 0.68961 2.30623e-16 -0.0248299)
(-1.13605 -11.4381 7.28922e-16 1.15253 1.20874e-15 -0.0164856)
(-1.57143 -11.4514 4.00283e-16 1.57981 1.99793e-15 -0.00838114)
(-1.95756 -11.2379 -1.41136e-15 1.95586 -1.93175e-15 0.00170326)
(-2.27327 -10.8322 -4.7477e-16 2.26279 -7.26254e-16 0.0104793)
(-2.4933 -10.2192 -3.26036e-17 2.47836 -4.36816e-15 0.0149413)
(-2.6048 -9.41261 -2.58309e-15 2.58942 -7.30099e-15 0.0153751)
(-2.58891 -8.4045 1.00641e-15 2.57471 9.23354e-16 0.0142037)
(0.000968117 0.00371392 2.39062e-21 -0.00102002 5.56102e-20 5.18998e-05)
(0.000549656 0.00319792 -3.5695e-21 -0.000639707 3.42476e-23 9.00509e-05)
(0.000179184 0.00261173 -1.95445e-20 -0.000226266 -1.37187e-19 4.70816e-05)
(-6.72675e-05 0.00209021 4.9548e-21 3.31288e-05 9.36329e-20 3.41387e-05)
(-0.000179484 0.00159728 3.92554e-21 0.000161188 -1.82771e-20 1.82959e-05)
(-0.00017284 0.00116748 -3.38342e-20 0.000173223 1.10782e-19 -3.82745e-07)
(-8.42294e-05 0.000835496 -2.02285e-19 0.000108322 1.62811e-19 -2.40929e-05)
(0.000579446 -0.000460576 1.2274e-22 -0.000520054 4.00383e-21 -5.93922e-05)
(0.000492611 -0.000547402 2.90361e-20 -0.000425485 7.03589e-20 -6.71254e-05)
(0.000371413 -0.000622993 -2.69242e-20 -0.000291084 -4.74667e-20 -8.0329e-05)
(0.000250511 -0.000652216 -1.81336e-20 -0.000158571 -5.16572e-20 -9.19395e-05)
(0.000133138 -0.000645141 1.22277e-19 -3.2534e-05 2.37326e-19 -0.000100604)
(2.31275e-05 -0.000610509 4.76181e-20 8.62042e-05 7.38745e-20 -0.000109332)
(-6.03027e-05 -0.00055142 2.25824e-19 0.000177221 2.0746e-19 -0.000116918)
(-0.000116646 -0.00047902 -1.16717e-19 0.000238491 -2.24595e-20 -0.000121845)
(-0.000149309 -0.000404786 1.64908e-19 0.000274598 1.14268e-19 -0.000125288)
(-0.000158014 -0.000336009 -5.85815e-21 0.000285271 2.50049e-22 -0.000127257)
(-0.00015011 -0.000278315 -2.23016e-19 0.000277014 -1.90534e-19 -0.000126904)
(-0.000132656 -0.000239971 2.87191e-19 0.000258893 3.57529e-19 -0.000126236)
(-0.00011088 -0.00022616 1.76628e-19 0.000240763 8.87568e-20 -0.000129883)
(-8.62364e-05 -0.000245866 -3.68505e-20 0.000231131 1.99897e-20 -0.000144895)
(-4.84917e-05 -0.000344806 -2.26978e-19 0.000241502 3.73626e-20 -0.00019301)
(6.2706e-05 -0.000659091 4.7764e-19 0.000258256 5.46595e-19 -0.000320962)
(0.000456013 -0.00154966 8.55874e-19 0.000141718 -9.35814e-19 -0.000597731)
(0.00150477 -0.00355366 -4.42326e-18 -0.000500886 -5.73361e-18 -0.00100388)
(0.00421184 -0.00868701 5.06173e-19 -0.00254257 7.47259e-18 -0.00166927)
(0.0104936 -0.0211682 7.37431e-18 -0.00790951 -2.07101e-18 -0.00258413)
(0.0294796 -0.0625109 1.54766e-17 -0.0250739 6.13163e-18 -0.00440565)
(0.0740402 -0.174588 -2.35396e-17 -0.0678327 -2.2551e-17 -0.00620757)
(0.194855 -0.544452 7.40682e-17 -0.187089 1.87068e-16 -0.00776534)
(0.503558 -1.78022 1.58057e-19 -0.50084 -1.54411e-16 -0.0027182)
(0.748625 -3.5442 -2.73076e-16 -0.772336 1.69599e-16 0.0237106)
(0.790559 -5.39811 -9.71836e-17 -0.844874 -6.60758e-16 0.0543142)
(0.604119 -7.15562 1.19178e-18 -0.675928 7.57766e-17 0.0718094)
(0.204207 -8.40051 -2.94696e-16 -0.27974 -4.45249e-16 0.0755327)
(-0.296202 -8.64082 -4.93713e-16 0.230141 -2.83465e-15 0.0660618)
(-0.707764 -7.9003 -1.66905e-16 0.666463 -3.54826e-15 0.0413017)
(-0.931693 -6.69364 5.22992e-16 0.923244 4.89827e-15 0.00844869)
(-0.998561 -5.47923 -9.55427e-16 1.01669 -3.73688e-17 -0.0181314)
(-0.984624 -4.49929 -7.19005e-15 1.01439 1.34228e-15 -0.0297667)
(-0.931042 -3.75437 8.7739e-15 0.960663 1.59578e-14 -0.0296215)
(-0.864039 -3.18715 -1.48894e-15 0.888038 -8.64361e-16 -0.0239995)
(0.000645677 -0.000345057 9.37008e-21 -0.000595439 2.31835e-20 -5.02374e-05)
(0.000684451 -0.000224659 -1.27041e-20 -0.00063749 -9.60262e-20 -4.69602e-05)
(0.000691733 -7.64362e-05 -1.86421e-20 -0.000654692 -1.11249e-19 -3.70403e-05)
(0.000654295 8.66473e-05 -7.12237e-21 -0.000627701 1.65309e-19 -2.65944e-05)
(0.000565132 0.000235276 1.91942e-21 -0.000551 4.34744e-20 -1.41314e-05)
(0.000429332 0.000348897 3.78125e-20 -0.000425668 -1.45229e-19 -3.66482e-06)
(0.000333672 -0.000312847 1.72533e-21 -0.000360066 2.3862e-21 2.63938e-05)
(0.000258343 -0.00037232 -2.72949e-20 -0.000290225 -6.63272e-20 3.18816e-05)
(0.000160826 -0.000413594 -6.02182e-21 -0.000197959 -3.03075e-21 3.71333e-05)
(5.20382e-05 -0.000426392 2.27865e-20 -9.69193e-05 4.92273e-20 4.48811e-05)
(-5.44637e-05 -0.0004131 -7.21e-20 3.57559e-06 -1.46657e-19 5.08882e-05)
(-0.000154825 -0.000372472 -8.20781e-20 9.79417e-05 -1.34525e-19 5.68838e-05)
(-0.000238989 -0.000308496 -1.66424e-19 0.00017547 -2.45996e-19 6.35198e-05)
(-0.000300044 -0.000230743 -1.34079e-20 0.000231168 -1.99203e-21 6.88759e-05)
(-0.000337808 -0.000145412 -7.30671e-20 0.000264338 -1.74027e-19 7.34695e-05)
(-0.000353004 -6.10939e-05 3.05804e-19 0.000275486 3.47996e-19 7.75185e-05)
(-0.000348694 1.66101e-05 -5.00819e-20 0.000268563 6.81164e-20 8.01305e-05)
(-0.000331415 8.39369e-05 3.41303e-20 0.000250375 2.10034e-20 8.10402e-05)
(-0.000307365 0.000139316 -2.33544e-19 0.000227548 -2.97248e-19 7.98167e-05)
(-0.000281421 0.000184898 1.50394e-19 0.000204192 -1.39626e-20 7.72299e-05)
(-0.000254053 0.000218758 4.36397e-20 0.000181588 1.35424e-19 7.24652e-05)
(-0.000223497 0.000237246 5.33192e-20 0.000158686 2.55913e-20 6.4811e-05)
(-0.000183412 0.000232179 -2.46066e-19 0.000130505 -1.43316e-19 5.29078e-05)
(-0.000151793 0.000222372 2.07395e-19 0.000109579 1.54596e-19 4.22139e-05)
(-9.83074e-05 0.000162301 4.87018e-20 7.29722e-05 6.38315e-22 2.53352e-05)
(-0.000954616 0.00172016 -2.20717e-18 0.000738505 -3.32102e-19 0.000216112)
(-0.000304304 0.000582794 8.84626e-19 0.000247832 -3.47371e-19 5.64719e-05)
(-0.000629191 0.00124283 6.9314e-20 0.000547173 1.18785e-18 8.2018e-05)
(-0.000108842 0.000123441 4.85003e-19 0.000116379 -7.16229e-19 -7.53702e-06)
(0.00190307 -0.00708368 -3.44608e-18 -0.00153413 -3.68188e-18 -0.000368945)
(0.0133289 -0.0589446 4.86918e-18 -0.0113299 1.72017e-17 -0.00199905)
(0.0329684 -0.198125 -2.92285e-17 -0.0287045 7.99327e-18 -0.00426391)
(0.0538875 -0.497581 1.49281e-17 -0.0477939 1.16017e-18 -0.00609362)
(0.0638924 -1.11614 -1.43307e-17 -0.0566732 7.64804e-17 -0.00721919)
(0.0251911 -2.20157 -4.40334e-16 -0.0184201 2.46264e-16 -0.00677098)
(-0.120092 -3.63429 2.1712e-16 0.123282 3.53423e-16 -0.00318982)
(-0.387537 -4.91773 1.56422e-15 0.382328 -5.86963e-16 0.00520834)
(-0.692213 -5.52709 -2.76585e-15 0.677787 2.16303e-15 0.0144259)
(-0.905989 -5.36953 5.13935e-16 0.890254 9.33082e-15 0.0157348)
(-0.983554 -4.78909 -4.87045e-17 0.97517 -6.37014e-15 0.00838423)
(-0.965327 -4.12992 3.05843e-15 0.963865 -2.30127e-15 0.00146298)
(0.000395294 -0.000236843 -3.54159e-21 -0.000419386 -6.74181e-21 2.40921e-05)
(0.000435602 -0.000154389 -1.34278e-20 -0.000454979 -1.90095e-20 1.93767e-05)
(0.000460062 -5.33124e-05 5.56772e-20 -0.000474993 1.20072e-19 1.49303e-05)
(0.000454784 5.43522e-05 1.14471e-20 -0.000464231 -1.35386e-20 9.4468e-06)
(0.000415716 0.000160448 7.89712e-21 -0.000421182 -8.896e-20 5.46684e-06)
(0.000342159 0.00024804 -2.46463e-20 -0.000344142 6.37046e-20 1.98277e-06)
(0.000306286 -0.000258255 9.51624e-21 -0.000296879 1.62806e-20 -9.4067e-06)
(0.0002593 -0.000306114 -1.32556e-20 -0.00024891 -2.3896e-20 -1.03892e-05)
(0.000195907 -0.00034744 -6.0283e-21 -0.000182631 -3.31927e-21 -1.32757e-05)
(0.000125016 -0.00037424 7.16119e-20 -0.000109134 1.04805e-19 -1.58816e-05)
(5.17622e-05 -0.00038266 4.55081e-20 -3.2878e-05 8.24933e-20 -1.88842e-05)
(-2.13086e-05 -0.000372965 5.77205e-20 4.36887e-05 1.10855e-19 -2.23801e-05)
(-8.66916e-05 -0.000347102 8.81591e-20 0.000112611 1.01997e-19 -2.59194e-05)
(-0.000139556 -0.000308097 -5.05855e-20 0.000169016 -7.85592e-20 -2.94595e-05)
(-0.000178432 -0.000260571 -1.80926e-19 0.000211702 -1.79259e-19 -3.32694e-05)
(-0.000202019 -0.000209918 2.34938e-19 0.000238713 1.32308e-19 -3.66943e-05)
(-0.000211587 -0.00016004 1.97576e-19 0.000251502 1.67332e-19 -3.99155e-05)
(-0.000209301 -0.000114101 2.55716e-19 0.000251835 1.22499e-19 -4.25334e-05)
(-0.000197735 -7.42115e-05 -4.20875e-19 0.000241983 -1.34787e-19 -4.42485e-05)
(-0.000179869 -4.12301e-05 -3.58086e-19 0.000224691 -2.40548e-19 -4.48214e-05)
(-0.00015774 -1.5048e-05 4.7383e-19 0.000202213 1.49036e-19 -4.4473e-05)
(-0.000133096 7.47829e-06 9.57541e-20 0.000175257 5.89683e-20 -4.2161e-05)
(-0.000107746 2.66727e-05 -7.10859e-20 0.000145939 7.33668e-21 -3.81931e-05)
(-8.42522e-05 4.27698e-05 -2.28717e-19 0.000117096 -1.49846e-19 -3.28433e-05)
(-6.08359e-05 5.36592e-05 5.0827e-20 8.53895e-05 -1.95011e-20 -2.45536e-05)
(-4.31055e-05 5.87026e-05 2.00604e-19 5.91251e-05 6.18922e-20 -1.60196e-05)
(-3.80583e-05 7.08491e-05 -2.68496e-19 4.90146e-05 -7.72243e-20 -1.09563e-05)
(-5.26716e-05 0.000122471 1.8768e-19 6.33687e-05 2.68117e-20 -1.0697e-05)
(-4.20448e-05 0.000126178 -4.92456e-20 4.88521e-05 -1.06765e-20 -6.80733e-06)
(-0.000413342 0.00188041 -1.46037e-18 0.000493105 7.16103e-19 -7.9763e-05)
(-0.000661088 0.00712252 3.95692e-18 0.000963401 -1.26287e-18 -0.000302313)
(0.000528542 0.0133278 -7.75325e-18 8.34705e-05 1.02915e-17 -0.000612012)
(0.0034518 0.0178887 1.54683e-19 -0.00247606 -3.53819e-19 -0.000975741)
(0.000473255 0.00064828 8.74483e-19 -0.000396296 -3.10575e-19 -7.69596e-05)
(0.00427197 -0.0103798 6.33967e-18 -0.00376495 1.60438e-17 -0.000507022)
(0.0100557 -0.109328 2.70182e-17 -0.00880064 -1.2261e-16 -0.00125501)
(-0.000333405 -0.478617 -6.64513e-17 0.0025495 -3.96082e-16 -0.0022161)
(-0.0769496 -1.30113 2.07884e-15 0.0796725 5.5203e-16 -0.00272291)
(-0.263968 -2.42728 2.97277e-15 0.264854 6.72898e-16 -0.000885517)
(-0.514799 -3.34746 -1.6442e-15 0.511386 -2.23549e-15 0.0034128)
(-0.716169 -3.72522 -7.33676e-15 0.710214 1.42254e-15 0.00595497)
(0.000342234 -0.000198529 -1.46077e-20 -0.000335907 -2.97453e-20 -6.32739e-06)
(0.000364729 -0.000135359 -5.02219e-21 -0.000359241 2.02988e-20 -5.48791e-06)
(0.000373331 -5.72722e-05 4.83508e-20 -0.000370639 9.22015e-20 -2.69199e-06)
(0.000363953 2.51333e-05 -2.06897e-20 -0.000362631 -1.16775e-21 -1.32148e-06)
(0.000332437 0.000105526 1.80257e-20 -0.000332539 1.14229e-19 1.0146e-07)
(0.000222632 -0.000196152 -1.35347e-20 -0.000225649 -2.01629e-20 3.0167e-06)
(0.000184143 -0.000231648 2.65885e-21 -0.000188504 4.2374e-21 4.36115e-06)
(0.000134434 -0.00026127 1.61106e-20 -0.00013927 1.74967e-20 4.83555e-06)
(7.79851e-05 -0.000279206 -9.89678e-20 -8.41513e-05 -1.4068e-19 6.1662e-06)
(1.89151e-05 -0.000283335 -7.24498e-20 -2.64657e-05 -8.47353e-20 7.55066e-06)
(-4.04617e-05 -0.000273083 1.69312e-19 3.16298e-05 2.02683e-19 8.8319e-06)
(-9.4856e-05 -0.000249171 -1.79763e-19 8.42876e-05 -2.23228e-19 1.05684e-05)
(-0.000140369 -0.000213792 -8.12676e-20 0.000127948 -5.40613e-20 1.24205e-05)
(-0.000174761 -0.000169936 -1.93195e-19 0.000160496 -1.44575e-19 1.42654e-05)
(-0.000196699 -0.000121813 -3.5999e-20 0.000180336 -6.55092e-20 1.63634e-05)
(-0.000206297 -7.28614e-05 2.41767e-20 0.000187839 -8.72486e-21 1.84577e-05)
(-0.00020472 -2.62533e-05 -1.32282e-19 0.000184174 -1.75449e-19 2.05455e-05)
(-0.000193984 1.54563e-05 4.30661e-19 0.000171456 2.94961e-19 2.25286e-05)
(-0.000176476 5.07498e-05 -1.41757e-19 0.000152277 -2.47914e-20 2.41991e-05)
(-0.000154513 7.94457e-05 -3.47403e-19 0.000128941 -1.51916e-19 2.55719e-05)
(-0.00013053 0.000100464 2.30348e-19 0.000104591 4.61017e-21 2.59391e-05)
(-0.00010613 0.000113135 -1.67353e-19 8.13172e-05 -9.6526e-20 2.48123e-05)
(-8.19722e-05 0.000118325 2.29178e-21 5.92433e-05 1.22509e-19 2.27289e-05)
(-5.96086e-05 0.000117962 -4.02628e-20 3.95521e-05 -3.16319e-20 2.00565e-05)
(-3.91244e-05 0.000110576 -2.84145e-19 2.26065e-05 -1.96322e-19 1.65179e-05)
(-2.01819e-05 8.61467e-05 1.80265e-19 9.40691e-06 1.74993e-19 1.07749e-05)
(-1.01362e-05 6.59305e-05 3.44733e-21 3.86947e-06 -1.06309e-19 6.26672e-06)
(-6.78189e-06 6.98503e-05 3.83941e-20 2.15261e-06 1.17472e-20 4.62928e-06)
(-2.54283e-06 7.98851e-05 1.1165e-19 -1.19393e-06 -5.0044e-21 3.73676e-06)
(3.75892e-06 8.70468e-05 -3.76429e-20 -6.73022e-06 -1.19897e-20 2.9713e-06)
(9.47057e-06 8.92646e-05 1.2675e-19 -1.15606e-05 2.02564e-20 2.09003e-06)
(1.27726e-05 8.92078e-05 -6.92891e-21 -1.39931e-05 1.58448e-22 1.22046e-06)
(8.59621e-05 0.00052579 -8.35375e-20 -8.94252e-05 -5.17258e-20 3.46311e-06)
(0.00131644 0.00704934 2.10342e-20 -0.00132851 1.81752e-18 1.20711e-05)
(0.00518221 0.0227698 -6.63121e-17 -0.0051368 5.47489e-18 -4.54041e-05)
(0.00148367 0.00467204 -5.92498e-18 -0.00145883 9.90783e-19 -2.48425e-05)
(0.0106956 0.0120908 2.80621e-17 -0.0104657 -1.6377e-16 -0.000229851)
(0.0187087 -0.0989776 5.76811e-16 -0.0178771 -7.07599e-16 -0.00083165)
(-0.025853 -0.586173 -2.98813e-15 0.0278472 1.59299e-16 -0.00199425)
(-0.182682 -1.49276 4.8398e-15 0.184491 1.8182e-15 -0.00180966)
(0.000253111 -0.000152927 8.63714e-21 -0.00025627 3.53281e-21 3.15848e-06)
(0.000274191 -0.000106595 -3.12477e-20 -0.000275964 -4.49383e-20 1.77357e-06)
(0.000285735 -4.96865e-05 3.99253e-21 -0.000287355 2.03327e-20 1.61966e-06)
(0.00028348 1.17528e-05 1.70381e-20 -0.000284304 -5.68503e-20 8.2392e-07)
(0.000264495 7.30792e-05 -1.38565e-19 -0.000265072 -1.99277e-19 5.76721e-07)
(0.000184131 -0.000161034 1.18694e-20 -0.000183019 1.37895e-20 -1.11206e-06)
(0.000155877 -0.000189741 -2.98493e-20 -0.00015487 -3.58814e-20 -1.00748e-06)
(0.000118623 -0.000214961 -2.41077e-21 -0.000117018 -4.98711e-21 -1.60528e-06)
(7.60815e-05 -0.000232408 -1.2442e-20 -7.41893e-05 -6.48608e-21 -1.89229e-06)
(3.10258e-05 -0.000239989 9.86404e-20 -2.8756e-05 1.13528e-19 -2.26983e-06)
(-1.54629e-05 -0.00023733 7.56397e-20 1.84404e-05 6.24085e-20 -2.97757e-06)
(-5.93538e-05 -0.000224521 9.60034e-22 6.29723e-05 3.05025e-20 -3.61851e-06)
(-9.7707e-05 -0.000202644 1.87638e-19 0.000102097 1.81816e-19 -4.39021e-06)
(-0.000128804 -0.000173564 -2.34343e-20 0.000134191 -3.13013e-21 -5.38691e-06)
(-0.000151062 -0.000140084 -6.47927e-20 0.000157487 -3.04232e-20 -6.4248e-06)
(-0.000164126 -0.000104705 1.27248e-19 0.000171729 4.74861e-20 -7.60353e-06)
(-0.000168506 -6.9823e-05 -1.71258e-19 0.000177408 -6.63744e-20 -8.90175e-06)
(-0.000165292 -3.76031e-05 -3.0218e-19 0.000175537 -2.36218e-19 -1.02456e-05)
(-0.000155971 -9.35937e-06 -1.26179e-19 0.000167629 3.25267e-20 -1.16573e-05)
(-0.000142213 1.41232e-05 5.44214e-19 0.000155251 2.45785e-19 -1.30384e-05)
(-0.000125188 3.22729e-05 -3.93029e-19 0.000139479 -1.79143e-19 -1.42909e-05)
(-0.00010567 4.62099e-05 -9.43997e-20 0.000120206 8.18639e-20 -1.45366e-05)
(-8.50858e-05 5.58751e-05 1.76329e-19 9.89748e-05 1.14935e-19 -1.38891e-05)
(-6.50626e-05 6.17642e-05 -1.11067e-19 7.75726e-05 -9.0241e-22 -1.25101e-05)
(-4.68498e-05 6.43743e-05 -3.63026e-20 5.74902e-05 9.08875e-20 -1.06404e-05)
(-3.09953e-05 6.47407e-05 5.07042e-20 3.95055e-05 -3.25702e-20 -8.51014e-06)
(-1.62986e-05 5.96846e-05 -3.54505e-19 2.22098e-05 3.4311e-20 -5.91115e-06)
(-4.32728e-06 5.0243e-05 2.90613e-21 7.66575e-06 -4.8777e-20 -3.33847e-06)
(3.39793e-06 3.92562e-05 -1.57052e-19 -1.89807e-06 1.57976e-20 -1.49986e-06)
(9.16599e-06 3.89815e-05 4.21638e-20 -8.27608e-06 1.23515e-20 -8.89907e-07)
(1.29916e-05 3.78609e-05 -1.32003e-20 -1.22454e-05 -5.56583e-20 -7.46128e-07)
(1.44786e-05 3.72732e-05 -2.76912e-21 -1.37589e-05 -2.59524e-22 -7.19737e-07)
(1.47304e-05 3.90238e-05 6.52281e-21 -1.41629e-05 1.58846e-22 -5.67463e-07)
(1.50991e-05 4.33614e-05 6.65397e-20 -1.47275e-05 -2.26527e-20 -3.71594e-07)
(1.60519e-05 4.93842e-05 5.31199e-20 -1.5758e-05 8.5729e-20 -2.9394e-07)
(0.000351014 0.00111661 -3.25945e-19 -0.000344739 6.72773e-19 -6.27447e-06)
(0.00346438 0.0107374 -3.58192e-17 -0.00340846 1.16367e-17 -5.59194e-05)
(0.000745395 0.00202011 -1.07798e-17 -0.000737541 -7.26461e-18 -7.85325e-06)
(0.0137301 0.0236041 -9.28026e-17 -0.0136446 1.02517e-16 -8.54689e-05)
(0.0323129 -0.0503911 6.50453e-16 -0.0319918 -7.45511e-16 -0.000321101)
(0.00020633 -0.000126649 -1.29998e-20 -0.000206077 -1.90266e-20 -2.53394e-07)
(0.000221514 -9.01648e-05 4.62382e-21 -0.000221028 1.27552e-21 -4.85634e-07)
(0.000229949 -4.5536e-05 1.23983e-20 -0.00023009 1.25957e-20 1.41466e-07)
(0.000228585 2.65472e-06 -1.11744e-20 -0.000228612 -5.19341e-20 2.75355e-08)
(0.000147374 -0.000131433 -5.84041e-21 -0.000147571 -5.50075e-21 1.97477e-07)
(0.000124513 -0.00015423 1.66651e-22 -0.000125115 -1.47977e-21 6.01518e-07)
(9.46585e-05 -0.000174388 4.14452e-20 -9.51722e-05 4.52027e-20 5.13765e-07)
(6.05096e-05 -0.000188448 1.6229e-21 -6.12702e-05 -8.75337e-22 7.60585e-07)
(2.41836e-05 -0.000194905 -1.42922e-19 -2.51674e-05 -1.51815e-19 9.83767e-07)
(-1.36388e-05 -0.000193285 3.28426e-20 1.25089e-05 3.87156e-20 1.12994e-06)
(-4.99454e-05 -0.000183409 3.20576e-20 4.8516e-05 1.98549e-20 1.42938e-06)
(-8.23884e-05 -0.000165939 -7.42303e-20 8.06018e-05 -1.08087e-19 1.78658e-06)
(-0.000109469 -0.00014204 -1.10915e-19 0.000107343 -6.54445e-20 2.12579e-06)
(-0.000129696 -0.00011369 4.20831e-20 0.000127103 5.5419e-20 2.59346e-06)
(-0.000142486 -8.27875e-05 -2.52061e-19 0.000139366 -2.08596e-19 3.12052e-06)
(-0.000147829 -5.12606e-05 1.67859e-19 0.000144124 1.06864e-19 3.70553e-06)
(-0.000146241 -2.10422e-05 3.41105e-19 0.000141848 1.93353e-19 4.39339e-06)
(-0.000138694 6.52666e-06 4.39615e-19 0.00013354 1.65666e-19 5.15411e-06)
(-0.000126328 3.04047e-05 -5.87941e-19 0.000120327 -4.40383e-19 6.0009e-06)
(-0.00011048 5.00271e-05 3.16251e-19 0.000103486 2.41801e-19 6.99409e-06)
(-9.27122e-05 6.48439e-05 3.38258e-19 8.5021e-05 7.81741e-20 7.69117e-06)
(-7.44921e-05 7.43522e-05 2.15747e-19 6.67419e-05 -4.70249e-20 7.75013e-06)
(-5.67411e-05 7.87651e-05 1.10178e-19 4.95563e-05 5.87646e-20 7.18481e-06)
(-4.05344e-05 7.88007e-05 -1.44322e-20 3.43398e-05 8.07025e-20 6.19464e-06)
(-2.66766e-05 7.60459e-05 1.10174e-19 2.17523e-05 -1.81713e-20 4.92432e-06)
(-1.50265e-05 7.21522e-05 3.70264e-19 1.14096e-05 1.55912e-19 3.61687e-06)
(-4.03425e-06 6.67173e-05 -1.55166e-19 1.56753e-06 -2.09149e-20 2.46672e-06)
(6.52175e-06 5.60503e-05 3.87559e-19 -8.14183e-06 9.13337e-20 1.62008e-06)
(1.35395e-05 4.09345e-05 -5.42442e-20 -1.45709e-05 2.11306e-21 1.03144e-06)
(1.6469e-05 2.85069e-05 -1.87346e-20 -1.71187e-05 1.30384e-20 6.49768e-07)
(1.59383e-05 1.92245e-05 4.87351e-21 -1.63676e-05 2.11082e-21 4.29319e-07)
(1.53589e-05 1.50699e-05 -1.76379e-20 -1.57607e-05 7.49278e-21 4.01854e-07)
(1.47824e-05 1.3669e-05 -4.25976e-20 -1.52082e-05 -2.43537e-20 4.2577e-07)
(1.44157e-05 1.44329e-05 -3.7531e-21 -1.48053e-05 2.93229e-20 3.896e-07)
(1.44389e-05 1.76112e-05 2.66406e-21 -1.47431e-05 -2.09973e-20 3.04182e-07)
(1.49839e-05 2.35178e-05 1.54804e-19 -1.51731e-05 1.21795e-19 1.89187e-07)
(0.000112905 0.000220646 -1.73847e-18 -0.000113358 1.63304e-18 4.52885e-07)
(0.00361511 0.0078762 -1.65094e-17 -0.00361199 1.0178e-17 -3.12669e-06)
(0.00292369 0.0058645 -3.81595e-17 -0.00293009 1.48394e-18 6.39827e-06)
(0.000165501 -0.000104432 1.85107e-21 -0.000166035 6.08269e-21 5.34036e-07)
(0.000178244 -7.5767e-05 2.82459e-20 -0.000178356 2.49648e-20 1.12958e-07)
(0.000185944 -4.0709e-05 -2.81907e-20 -0.000186321 -1.01576e-20 3.7694e-07)
(0.000186061 -2.53415e-06 6.96939e-20 -0.000186173 6.73378e-20 1.12435e-07)
(0.000121489 -0.000109864 -2.61463e-22 -0.000121307 -7.60078e-22 -1.82157e-07)
(0.000103207 -0.000128544 -1.83343e-21 -0.000103202 -1.50103e-21 -5.24514e-09)
(7.93032e-05 -0.000145326 -5.40612e-21 -7.91117e-05 -4.81254e-21 -1.91483e-07)
(5.19011e-05 -0.000157471 -2.98927e-20 -5.17379e-05 -2.75698e-20 -1.63155e-07)
(2.26645e-05 -0.000163777 3.70028e-20 -2.24636e-05 4.1367e-20 -2.00902e-07)
(-8.11676e-06 -0.000163876 1.93467e-19 8.43658e-06 1.63706e-19 -3.19826e-07)
(-3.80783e-05 -0.000157526 -1.16696e-20 3.84627e-05 -3.19218e-20 -3.84416e-07)
(-6.53973e-05 -0.000145092 -8.46921e-20 6.58824e-05 -7.00831e-20 -4.85127e-07)
(-8.8971e-05 -0.000127309 2.23852e-19 8.96329e-05 2.05933e-19 -6.61913e-07)
(-0.000107473 -0.000105592 9.01148e-20 0.000108302 5.696e-20 -8.28152e-07)
(-0.000120251 -8.13165e-05 -7.34067e-20 0.000121313 -1.25266e-20 -1.06187e-06)
(-0.000127157 -5.59465e-05 -2.73578e-19 0.000128507 -1.32814e-19 -1.35077e-06)
(-0.000128373 -3.10393e-05 -5.13268e-19 0.000130041 -3.90823e-19 -1.66834e-06)
(-0.000124472 -7.80666e-06 -5.91002e-19 0.000126531 -3.53055e-19 -2.05958e-06)
(-0.000116298 1.27691e-05 -3.34032e-20 0.000118811 1.34963e-19 -2.51293e-06)
(-0.00010489 2.99232e-05 2.94254e-20 0.00010793 -6.38627e-20 -3.03991e-06)
(-9.11394e-05 4.32536e-05 -4.43111e-19 9.4752e-05 -2.03433e-19 -3.61262e-06)
(-7.58331e-05 5.28229e-05 -2.88296e-19 7.97036e-05 -1.24193e-19 -3.87058e-06)
(-6.00145e-05 5.88618e-05 7.3538e-20 6.37938e-05 6.73643e-21 -3.77924e-06)
(-4.48445e-05 6.17635e-05 3.06126e-19 4.82053e-05 4.11948e-20 -3.36077e-06)
(-3.1102e-05 6.22604e-05 -1.28608e-19 3.38501e-05 -5.32757e-20 -2.74815e-06)
(-1.91285e-05 6.12581e-05 -8.00778e-20 2.12052e-05 -1.50867e-19 -2.07675e-06)
(-8.25338e-06 5.94645e-05 1.52375e-20 9.69181e-06 5.62875e-21 -1.43843e-06)
(2.43472e-06 5.65238e-05 -1.41361e-19 -1.55627e-06 -1.37146e-19 -8.78449e-07)
(1.23557e-05 4.9934e-05 1.00633e-19 -1.18483e-05 2.16329e-20 -5.0735e-07)
(1.91488e-05 3.9746e-05 3.24323e-20 -1.87496e-05 -2.32188e-20 -3.99167e-07)
(2.09496e-05 2.79581e-05 1.31844e-21 -2.05722e-05 -8.96758e-21 -3.77442e-07)
(1.87734e-05 1.77072e-05 3.11435e-20 -1.8504e-05 9.39588e-21 -2.6944e-07)
(1.57814e-05 1.07603e-05 1.76728e-20 -1.56466e-05 1.28893e-20 -1.34782e-07)
(1.28419e-05 6.17167e-06 1.25463e-19 -1.2783e-05 6.6977e-21 -5.89067e-08)
(1.23158e-05 4.21689e-06 -5.24678e-20 -1.22854e-05 5.99206e-20 -3.04365e-08)
(1.19307e-05 3.8032e-06 1.31072e-19 -1.19312e-05 -1.76721e-19 5.07121e-10)
(1.1912e-05 5.80719e-06 3.15087e-19 -1.19385e-05 1.93552e-19 2.64616e-08)
(1.26059e-05 1.12282e-05 -6.67342e-21 -1.26091e-05 1.51857e-19 3.22301e-09)
(0.000585192 0.000825983 5.23226e-18 -0.000585343 -2.39507e-18 1.50474e-07)
(0.000135996 -8.80161e-05 -4.84435e-21 -0.000136139 -7.45118e-21 1.42798e-07)
(0.000146338 -6.48574e-05 -1.5251e-20 -0.000146266 -1.06667e-20 -7.20113e-08)
(0.000152896 -3.66234e-05 2.36992e-20 -0.0001531 8.9259e-21 2.03393e-07)
(0.000153607 -5.72542e-06 -9.81495e-20 -0.000153622 -7.16944e-20 1.53684e-08)
(0.000100425 -9.25921e-05 -9.23312e-21 -0.00010038 -6.74585e-21 -4.48981e-08)
(8.53468e-05 -0.000107956 -2.91101e-20 -8.54707e-05 -2.61286e-20 1.23865e-07)
(6.57033e-05 -0.000121846 -6.70364e-21 -6.57347e-05 -6.72385e-21 3.13514e-08)
(4.31696e-05 -0.000132035 9.97997e-20 -4.3279e-05 8.75943e-20 1.09353e-07)
(1.91462e-05 -0.000137577 -6.66545e-20 -1.92872e-05 -5.91542e-20 1.40956e-07)
(-6.31131e-06 -0.000138176 -7.02089e-20 6.18096e-06 -7.31047e-20 1.30352e-07)
(-3.13214e-05 -0.000133556 -1.72715e-19 3.11298e-05 -1.25355e-19 1.9163e-07)
(-5.44555e-05 -0.000123919 -1.18198e-19 5.41982e-05 -8.23797e-20 2.57332e-07)
(-7.48194e-05 -0.000109746 1.30405e-19 7.45349e-05 8.50766e-20 2.84511e-07)
(-9.12784e-05 -9.20413e-05 3.6057e-20 9.09043e-05 -1.69662e-21 3.74059e-07)
(-0.000103224 -7.18032e-05 5.63099e-20 0.000102765 6.35123e-20 4.59549e-07)
(-0.000110365 -5.01428e-05 5.07995e-19 0.000109811 3.09048e-19 5.53584e-07)
(-0.000112654 -2.83291e-05 -1.73619e-19 0.000111962 -1.94163e-20 6.91945e-07)
(-0.000110377 -7.40585e-06 3.80925e-19 0.000109534 3.28524e-19 8.42505e-07)
(-0.000104083 1.17048e-05 5.07879e-20 0.000103053 3.91627e-20 1.02986e-06)
(-9.44754e-05 2.82134e-05 -8.98652e-20 9.32006e-05 -4.38121e-20 1.2748e-06)
(-8.23775e-05 4.1713e-05 2.70934e-19 8.0783e-05 1.86708e-19 1.5945e-06)
(-6.88518e-05 5.17422e-05 1.0313e-19 6.70141e-05 7.49974e-20 1.83773e-06)
(-5.48492e-05 5.81721e-05 4.94661e-20 5.30083e-05 -2.46526e-20 1.8409e-06)
(-4.12953e-05 6.12514e-05 -1.80671e-19 3.96263e-05 -1.57759e-19 1.66899e-06)
(-2.88479e-05 6.16151e-05 -2.09987e-21 2.75017e-05 4.03053e-21 1.34622e-06)
(-1.78181e-05 6.01702e-05 -1.01355e-19 1.68361e-05 3.55064e-21 9.82022e-07)
(-7.80778e-06 5.76157e-05 -1.49114e-19 7.13621e-06 -8.18984e-21 6.7157e-07)
(1.69341e-06 5.39155e-05 3.92615e-20 -2.1902e-06 5.07242e-20 4.96788e-07)
(1.04016e-05 4.84249e-05 -6.80515e-21 -1.07901e-05 -4.22415e-20 3.88428e-07)
(1.71087e-05 4.1028e-05 -1.1757e-19 -1.7333e-05 3.89927e-21 2.24282e-07)
(2.09531e-05 3.30723e-05 -1.1417e-20 -2.10042e-05 4.22629e-21 5.11843e-08)
(2.19639e-05 2.54095e-05 3.56532e-21 -2.19551e-05 -8.59989e-21 -8.86043e-09)
(2.1493e-05 1.87881e-05 -2.43727e-20 -2.15164e-05 4.28645e-21 2.33983e-08)
(1.83862e-05 1.16623e-05 2.81047e-20 -1.84198e-05 -1.42538e-19 3.3655e-08)
(1.50374e-05 6.11014e-06 1.66583e-19 -1.50509e-05 -3.23838e-20 1.34789e-08)
(1.12077e-05 2.08658e-06 -2.78345e-19 -1.12119e-05 -1.21425e-20 4.16749e-09)
(1.05714e-05 -6.11439e-08 3.1968e-19 -1.05862e-05 -1.77378e-19 1.48481e-08)
(1.01758e-05 -8.81779e-07 3.11974e-19 -1.0193e-05 -4.23063e-21 1.72712e-08)
(1.02534e-05 1.13524e-06 -3.70715e-19 -1.02851e-05 5.51533e-20 3.17113e-08)
(0.000112441 -7.4785e-05 5.95543e-21 -0.0001126 7.88105e-21 1.58485e-07)
(0.000121142 -5.58893e-05 4.48119e-20 -0.000121119 3.03314e-20 -2.38114e-08)
(0.00012692 -3.28704e-05 -2.87336e-20 -0.000127103 -3.19149e-20 1.82711e-07)
(1.64223e-05 -0.000116927 4.1816e-20 -1.64295e-05 3.67787e-20 7.23925e-09)
(-4.7969e-06 -0.000117896 5.93812e-20 4.8301e-06 4.97161e-20 -3.32044e-08)
(-2.57814e-05 -0.000114637 2.5106e-19 2.58014e-05 1.93052e-19 -1.99987e-08)
(-4.54082e-05 -0.000107272 -4.26534e-20 4.54355e-05 -3.26506e-20 -2.72713e-08)
(-6.2993e-05 -9.61283e-05 8.76604e-20 6.30536e-05 4.21704e-20 -6.06004e-08)
(-7.75903e-05 -8.19285e-05 -1.73356e-19 7.76601e-05 -1.00352e-19 -6.98466e-08)
(-8.86429e-05 -6.54156e-05 1.28588e-19 8.87455e-05 7.11143e-20 -1.02583e-07)
(-9.58405e-05 -4.74394e-05 -3.21107e-19 9.59966e-05 -2.51039e-19 -1.56149e-07)
(-9.90504e-05 -2.89828e-05 1.12612e-20 9.92553e-05 3.39883e-20 -2.0485e-07)
(-9.83906e-05 -1.09097e-05 5.1375e-20 9.86631e-05 -2.77607e-20 -2.72499e-07)
(-9.41889e-05 5.92831e-06 8.57242e-20 9.45511e-05 1.71494e-20 -3.62164e-07)
(-8.69677e-05 2.08127e-05 1.3985e-20 8.7431e-05 1.21733e-20 -4.63234e-07)
(-7.73982e-05 3.32276e-05 -1.03644e-19 7.80056e-05 -9.67167e-20 -6.07344e-07)
(-6.61858e-05 4.27989e-05 -1.99873e-19 6.692e-05 -6.29903e-20 -7.34236e-07)
(-5.40154e-05 4.94658e-05 -1.71875e-19 5.48252e-05 -5.02765e-20 -8.0987e-07)
(-4.17349e-05 5.33732e-05 -1.25548e-19 4.25169e-05 3.44705e-20 -7.82026e-07)
(-3.00062e-05 5.49559e-05 -7.96872e-20 3.06801e-05 -8.45488e-21 -6.73919e-07)
(-1.92512e-05 5.47413e-05 -8.53907e-21 1.9771e-05 3.7189e-20 -5.19766e-07)
(-9.36375e-06 5.31924e-05 9.7717e-20 9.72461e-06 6.17168e-20 -3.60867e-07)
(-1.18477e-07 5.01843e-05 -7.00239e-21 3.05589e-07 -3.85913e-20 -1.87113e-07)
(8.12569e-06 4.52778e-05 -5.28144e-20 -8.06593e-06 -8.13686e-21 -5.9759e-08)
(1.44165e-05 3.86698e-05 9.16872e-20 -1.43632e-05 2.71062e-20 -5.33172e-08)
(1.81305e-05 3.1632e-05 1.21194e-20 -1.80269e-05 4.41428e-21 -1.0356e-07)
(1.97291e-05 2.54496e-05 1.44477e-20 -1.96302e-05 -1.48935e-20 -9.88841e-08)
(2.03235e-05 2.04577e-05 1.00436e-20 -2.02858e-05 -4.8846e-21 -3.76325e-08)
(2.05175e-05 1.61095e-05 -2.42707e-19 -2.05195e-05 8.16325e-20 1.98292e-09)
(2.01743e-05 1.1813e-05 -2.04086e-19 -2.01729e-05 -5.88722e-20 -1.42407e-09)
(1.66502e-05 6.46455e-06 1.31228e-19 -1.66397e-05 2.69392e-19 -1.0464e-08)
(1.16248e-05 2.02671e-06 -1.67765e-19 -1.16217e-05 -2.03071e-19 -3.03149e-09)
(9.82835e-06 -6.8064e-07 4.45332e-20 -9.82196e-06 -1.21472e-19 -6.38484e-09)
(9.20237e-06 -2.84954e-06 1.96484e-19 -9.22202e-06 4.27604e-20 1.9648e-08)