/*--------------------------------*- C++ -*----------------------------------*\
| =========                 |                                                 |
| \\      /  F ield         | OpenFOAM: The Open Source CFD Toolbox           |
|  \\    /   O peration     | Version:  2306                                  |
|   \\  /    A nd           | Website:  www.openfoam.com                      |
|    \\/     M anipulation  |                                                 |
\*---------------------------------------------------------------------------*/
FoamFile
{
    version     2.0;
    format      ascii;
    arch        "LSB;label=32;scalar=64";
    class       volScalarField;
    location    "750";
    object      turbulenceProperties:I;
}
// * * * * * * * * * * * * * * * * * * * * * * * * * * * * * * * * * * * * * //

dimensions      [0 0 0 0 0 0 0];

internalField   nonuniform List<scalar> 
1340
(
0.244662
0.246102
0.249517
0.255935
0.0396027
0.0424672
0.0476506
0.0611857
0.0179023
0.021417
0.0239676
0.033747
0.00339759
0.00626051
0.0101598
0.0207135
0.000703846
0.00117882
0.00183915
0.00900998
0.000254811
0.000488479
0.00088054
0.00302534
8.49707e-05
3.62016e-05
8.56196e-06
0.000526472
0.00013732
0.000119063
4.13477e-05
0.000140597
0.000158008
0.000165673
0.000173908
3.51565e-05
0.000145173
0.00014581
0.000192148
0.000128752
0.000146268
0.000147642
0.000178647
0.000206447
0.000141068
0.000143445
0.000165122
0.000215235
0.000138545
0.000141033
0.000158488
0.000205837
0.00013482
0.000136812
0.000152535
0.000194772
0.000131378
0.000132894
0.000146741
0.000184565
0.000127547
0.000128592
0.000140729
0.00017486
0.000123591
0.000124172
0.000134716
0.000165426
0.000119405
0.000119523
0.000128686
0.000156233
0.000115028
0.000114683
0.000122638
0.000147286
0.00011045
0.000109641
0.000116584
0.000138638
0.000105675
0.0001044
0.000110508
0.000130272
0.000100707
9.89684e-05
0.000104416
0.000122207
9.5549e-05
9.33417e-05
9.83094e-05
0.000114461
9.02113e-05
8.75265e-05
9.21786e-05
0.000107022
8.46989e-05
8.15144e-05
8.60404e-05
9.9914e-05
7.9024e-05
7.52982e-05
7.98978e-05
9.31361e-05
7.32025e-05
6.88617e-05
7.37701e-05
8.67093e-05
6.72589e-05
6.21705e-05
6.76818e-05
8.06501e-05
6.12353e-05
5.5169e-05
6.16866e-05
7.49906e-05
5.52166e-05
4.77567e-05
5.58772e-05
6.97773e-05
4.93742e-05
3.97231e-05
5.04274e-05
6.50659e-05
4.40699e-05
3.06245e-05
4.56381e-05
6.09269e-05
3.99784e-05
1.90648e-05
4.19732e-05
5.74291e-05
3.79429e-05
1.31698e-05
3.991e-05
5.46213e-05
3.81878e-05
2.48468e-05
3.95386e-05
5.25066e-05
3.99208e-05
3.17841e-05
4.03991e-05
5.10305e-05
4.21686e-05
3.66893e-05
4.18479e-05
5.00831e-05
4.43556e-05
4.03394e-05
4.34132e-05
4.95242e-05
5.20897e-05
4.62408e-05
4.3089e-05
4.48437e-05
4.92136e-05
5.2462e-05
4.77475e-05
4.51424e-05
4.60291e-05
4.90308e-05
5.27278e-05
4.88691e-05
4.66338e-05
4.69338e-05
4.88852e-05
5.28335e-05
4.96276e-05
4.76581e-05
4.7556e-05
4.87128e-05
5.27543e-05
5.0055e-05
4.82891e-05
4.79121e-05
4.84742e-05
5.24852e-05
5.0186e-05
4.85846e-05
4.80234e-05
4.81459e-05
5.20331e-05
5.00559e-05
4.85941e-05
4.79134e-05
4.77159e-05
5.14114e-05
4.96984e-05
4.83599e-05
4.76086e-05
4.71831e-05
5.06375e-05
4.91446e-05
4.79175e-05
4.71317e-05
4.65495e-05
4.9731e-05
4.84242e-05
4.72995e-05
4.65056e-05
4.58209e-05
4.87102e-05
4.75627e-05
4.65339e-05
4.57516e-05
4.50066e-05
4.75929e-05
4.65828e-05
4.56433e-05
4.48869e-05
4.41135e-05
4.63938e-05
4.55038e-05
4.46482e-05
4.39276e-05
4.31501e-05
4.51246e-05
4.43398e-05
4.35634e-05
4.28855e-05
4.21223e-05
4.44844e-05
4.37946e-05
4.31026e-05
4.24006e-05
4.17698e-05
4.10344e-05
4.301e-05
4.24107e-05
4.18013e-05
4.1169e-05
4.05882e-05
3.98904e-05
4.1502e-05
4.09816e-05
4.04456e-05
3.98786e-05
3.93491e-05
3.86946e-05
3.99706e-05
3.95188e-05
3.90486e-05
3.85422e-05
3.80639e-05
3.74561e-05
3.84311e-05
3.80394e-05
3.76279e-05
3.71776e-05
3.67492e-05
3.61886e-05
3.69031e-05
3.6564e-05
3.62045e-05
3.58053e-05
3.54242e-05
3.49099e-05
3.54033e-05
3.51097e-05
3.47963e-05
3.44432e-05
3.41062e-05
3.36367e-05
3.39378e-05
3.36835e-05
3.34103e-05
3.30989e-05
3.28026e-05
3.23769e-05
3.24976e-05
3.22772e-05
3.20395e-05
3.1766e-05
3.15071e-05
3.11248e-05
3.12394e-05
3.10623e-05
3.08711e-05
3.06648e-05
3.04261e-05
3.02026e-05
2.98632e-05
2.97684e-05
2.96142e-05
2.94485e-05
2.92706e-05
2.90644e-05
2.88748e-05
2.85771e-05
2.82821e-05
2.81474e-05
2.80041e-05
2.78518e-05
2.76754e-05
2.75186e-05
2.72602e-05
2.67949e-05
2.66771e-05
2.65537e-05
2.64244e-05
2.62752e-05
2.61497e-05
2.59269e-05
2.53279e-05
2.52246e-05
2.51184e-05
2.50094e-05
2.48841e-05
2.47867e-05
2.45938e-05
2.39267e-05
2.38352e-05
2.37434e-05
2.36527e-05
2.35502e-05
2.34794e-05
2.33183e-05
2.27025e-05
2.26164e-05
2.25325e-05
2.24528e-05
2.23646e-05
2.23127e-05
2.21806e-05
2.16702e-05
2.15849e-05
2.15034e-05
2.14273e-05
2.13445e-05
2.13012e-05
2.11843e-05
2.06989e-05
2.06118e-05
2.05294e-05
2.04535e-05
2.03729e-05
2.03339e-05
2.02285e-05
1.97186e-05
1.96302e-05
1.95464e-05
1.9471e-05
1.93924e-05
1.93564e-05
1.92605e-05
1.87993e-05
1.86924e-05
1.85944e-05
1.85049e-05
1.84279e-05
1.83541e-05
1.83319e-05
1.82847e-05
1.77178e-05
1.75824e-05
1.74541e-05
1.73344e-05
1.72272e-05
1.71251e-05
1.70555e-05
1.69434e-05
1.62589e-05
1.61031e-05
1.59669e-05
1.58526e-05
1.57678e-05
1.57148e-05
1.57804e-05
1.59357e-05
1.39906e-05
1.3638e-05
1.33076e-05
1.30091e-05
1.27474e-05
1.25231e-05
1.23384e-05
1.20583e-05
1.25138e-05
1.24005e-05
1.23682e-05
1.24255e-05
1.261e-05
1.29352e-05
1.36794e-05
1.47067e-05
1.3219e-05
1.31851e-05
1.31427e-05
1.30824e-05
1.30348e-05
1.32254e-05
1.43481e-05
1.54661e-05
2.17156e-05
2.21178e-05
2.24615e-05
2.27737e-05
2.31289e-05
2.36444e-05
2.48721e-05
2.58539e-05
2.96956e-05
2.97415e-05
2.97742e-05
2.97959e-05
2.98093e-05
2.98542e-05
3.01386e-05
2.93963e-05
4.10399e-05
4.10411e-05
4.10228e-05
4.09936e-05
4.09422e-05
4.09183e-05
4.07697e-05
3.92992e-05
0.141641
0.0645485
0.0318497
0.0173225
0.00715767
0.00177138
0.000547186
0.000153828
4.12586e-05
0.000170127
0.000225466
0.000224914
0.00021347
0.000202173
0.000191854
0.00018203
0.000172476
0.000163198
0.000154232
0.000145573
0.00013724
0.000129243
0.00012159
0.000114293
0.000107353
0.000100785
9.45963e-05
8.87978e-05
8.34023e-05
7.8424e-05
7.38785e-05
6.978e-05
6.61368e-05
6.29532e-05
6.02204e-05
5.79141e-05
5.5996e-05
5.44137e-05
5.31063e-05
5.20111e-05
5.10683e-05
5.02244e-05
4.94368e-05
4.86705e-05
4.78999e-05
4.71081e-05
4.62836e-05
4.54192e-05
4.45135e-05
4.35639e-05
4.25716e-05
4.1536e-05
4.04565e-05
3.93333e-05
3.81676e-05
3.69655e-05
3.57384e-05
3.45019e-05
3.32708e-05
3.20515e-05
3.0838e-05
2.96135e-05
2.83639e-05
2.70837e-05
2.57871e-05
2.44876e-05
2.32466e-05
2.21364e-05
2.11621e-05
2.02237e-05
1.92663e-05
1.83219e-05
1.69499e-05
1.61117e-05
1.19436e-05
1.5357e-05
1.47503e-05
2.56224e-05
2.76201e-05
3.70355e-05
0.0971462
0.0508619
0.021449
0.0083891
0.00266653
0.000661942
0.000280926
1.14939e-05
4.941e-05
0.000151306
0.00016813
0.000165569
0.00016027
0.000155387
0.000150769
0.0001461
0.000141309
0.000136389
0.000131401
0.000126352
0.000121277
0.000116199
0.000111143
0.00010616
0.000101268
9.64957e-05
9.18781e-05
8.74439e-05
8.32142e-05
7.92145e-05
7.54643e-05
7.198e-05
6.87726e-05
6.58481e-05
6.32089e-05
6.08446e-05
5.87437e-05
5.68845e-05
5.52393e-05
5.37787e-05
5.24703e-05
5.12806e-05
5.01817e-05
4.91448e-05
4.81477e-05
4.7172e-05
4.62029e-05
4.52296e-05
4.42445e-05
4.3241e-05
4.22152e-05
4.11628e-05
4.00795e-05
3.89624e-05
3.78111e-05
3.66297e-05
3.54278e-05
3.42198e-05
3.3018e-05
3.1827e-05
3.06398e-05
2.94398e-05
2.82137e-05
2.69574e-05
2.56858e-05
2.44104e-05
2.31903e-05
2.20925e-05
2.11309e-05
2.02072e-05
1.92587e-05
1.8325e-05
1.6952e-05
1.61559e-05
1.18866e-05
1.57267e-05
1.38011e-05
2.56648e-05
2.74967e-05
3.74374e-05
0.0714685
0.0386023
0.0138719
0.00350469
0.000697643
0.000300613
9.08365e-05
6.05404e-06
8.45372e-05
0.000128551
0.000127681
0.00012432
0.000120813
0.000117835
0.000115035
0.000112253
0.000109493
0.000106736
0.00010397
0.000101236
9.8502e-05
9.57749e-05
9.30379e-05
9.03146e-05
8.75976e-05
8.48796e-05
8.21761e-05
7.94998e-05
7.68544e-05
7.42585e-05
7.17262e-05
6.92732e-05
6.69158e-05
6.46675e-05
6.25409e-05
6.05418e-05
5.86765e-05
5.69433e-05
5.53376e-05
5.38501e-05
5.24701e-05
5.11819e-05
4.99718e-05
4.88233e-05
4.7722e-05
4.66552e-05
4.56104e-05
4.45789e-05
4.3552e-05
4.25226e-05
4.1485e-05
4.04329e-05
3.93605e-05
3.82628e-05
3.71384e-05
3.59902e-05
3.48262e-05
3.36593e-05
3.24996e-05
3.135e-05
3.02022e-05
2.90395e-05
2.78496e-05
2.66292e-05
2.53942e-05
2.41547e-05
2.29663e-05
2.18931e-05
2.09572e-05
2.00635e-05
1.91381e-05
1.82271e-05
1.68771e-05
1.61046e-05
1.19619e-05
1.58771e-05
1.33348e-05
2.55528e-05
2.72237e-05
3.74596e-05
0.0531314
0.0266839
0.00708194
0.000695015
0.000330289
4.89175e-06
1.06177e-05
4.47321e-05
9.54228e-05
0.00010652
0.000102742
0.000100786
9.88137e-05
9.71085e-05
9.53611e-05
9.3554e-05
9.17376e-05
8.99016e-05
8.80539e-05
8.62299e-05
8.44041e-05
8.26031e-05
8.08147e-05
7.90383e-05
7.72806e-05
7.55339e-05
7.37936e-05
7.20629e-05
7.03383e-05
6.86221e-05
6.69158e-05
6.52224e-05
6.35501e-05
6.1903e-05
6.02889e-05
5.87164e-05
5.71906e-05
5.57174e-05
5.43007e-05
5.29407e-05
5.1638e-05
5.03898e-05
4.91903e-05
4.80348e-05
4.69168e-05
4.58294e-05
4.47652e-05
4.37188e-05
4.26837e-05
4.16538e-05
4.06238e-05
3.95867e-05
3.85365e-05
3.74678e-05
3.63779e-05
3.52692e-05
3.41487e-05
3.30276e-05
3.19145e-05
3.08106e-05
2.97065e-05
2.85858e-05
2.74369e-05
2.62572e-05
2.50635e-05
2.38647e-05
2.27137e-05
2.16736e-05
2.07701e-05
1.99101e-05
1.90126e-05
1.81303e-05
1.6813e-05
1.60677e-05
1.21369e-05
1.59843e-05
1.31198e-05
2.54178e-05
2.68762e-05
3.7302e-05
0.0362012
0.014774
0.00172501
0.000557626
0
3.79403e-06
1.61917e-05
7.02559e-05
9.13714e-05
9.026e-05
8.78238e-05
8.70765e-05
8.6238e-05
8.54964e-05
8.46471e-05
8.37285e-05
8.27404e-05
8.16663e-05
8.05291e-05
7.93262e-05
7.80543e-05
7.67294e-05
7.53673e-05
7.39576e-05
7.25203e-05
7.10727e-05
6.96065e-05
6.81386e-05
6.66748e-05
6.52181e-05
6.37733e-05
6.23416e-05
6.09301e-05
5.95362e-05
5.81632e-05
5.68164e-05
5.54933e-05
5.41988e-05
5.29335e-05
5.16976e-05
5.04944e-05
4.93218e-05
4.81779e-05
4.70632e-05
4.59743e-05
4.49083e-05
4.38615e-05
4.28311e-05
4.18129e-05
4.08022e-05
3.97947e-05
3.87835e-05
3.77634e-05
3.6729e-05
3.56769e-05
3.46096e-05
3.35335e-05
3.2458e-05
3.13905e-05
3.03309e-05
2.92689e-05
2.81889e-05
2.70801e-05
2.59407e-05
2.47881e-05
2.363e-05
2.25165e-05
2.15096e-05
2.06377e-05
1.98084e-05
1.8937e-05
1.80821e-05
1.67981e-05
1.60855e-05
1.23728e-05
1.61547e-05
1.29612e-05
2.54173e-05
2.6691e-05
3.72661e-05
0.0205355
0.00544165
0.000308173
0.000152601
9.0519e-07
3.91497e-06
5.28018e-05
7.94297e-05
8.2432e-05
7.93979e-05
7.84287e-05
7.80818e-05
7.75978e-05
7.71136e-05
7.65384e-05
7.59221e-05
7.52365e-05
7.44884e-05
7.36977e-05
7.28506e-05
7.19538e-05
7.10073e-05
7.00232e-05
6.89902e-05
6.79193e-05
6.6819e-05
6.56789e-05
6.45156e-05
6.33303e-05
6.21271e-05
6.09133e-05
5.96915e-05
5.84717e-05
5.72542e-05
5.60443e-05
5.48484e-05
5.36648e-05
5.24996e-05
5.13516e-05
5.02222e-05
4.91145e-05
4.80252e-05
4.69544e-05
4.59036e-05
4.48694e-05
4.38517e-05
4.28482e-05
4.18572e-05
4.08765e-05
3.99024e-05
3.89317e-05
3.79581e-05
3.69772e-05
3.59839e-05
3.49751e-05
3.39532e-05
3.29242e-05
3.18965e-05
3.0876e-05
2.98613e-05
2.88422e-05
2.78036e-05
2.67359e-05
2.56382e-05
2.45283e-05
2.34123e-05
2.23369e-05
2.13636e-05
2.0524e-05
1.97252e-05
1.88806e-05
1.80533e-05
1.68048e-05
1.61301e-05
1.26357e-05
1.63593e-05
1.27713e-05
2.54674e-05
0.00769919
0.000413807
0.000147822
3.27552e-05
9.60416e-06
3.98541e-05
6.75585e-05
7.24475e-05
7.02888e-05
6.88497e-05
6.8835e-05
6.87648e-05
6.85992e-05
6.83978e-05
6.81218e-05
6.78076e-05
6.74256e-05
6.69831e-05
6.64959e-05
6.59537e-05
6.53645e-05
6.47267e-05
6.40408e-05
6.33155e-05
6.25557e-05
6.17559e-05
6.09203e-05
6.00604e-05
5.91701e-05
5.82554e-05
5.73198e-05
5.63634e-05
5.53928e-05
5.44095e-05
5.34162e-05
5.24176e-05
5.14149e-05
5.04138e-05
4.94136e-05
4.84182e-05
4.74304e-05
4.64481e-05
4.54751e-05
4.45109e-05
4.35544e-05
4.26077e-05
4.16685e-05
4.07369e-05
3.98115e-05
3.88898e-05
3.79694e-05
3.70453e-05
3.61136e-05
3.51696e-05
3.42114e-05
3.32409e-05
3.22641e-05
3.12884e-05
3.03183e-05
2.93518e-05
2.83787e-05
2.73846e-05
2.63611e-05
2.53085e-05
2.42448e-05
2.31739e-05
2.21394e-05
2.12028e-05
2.03988e-05
1.96329e-05
1.88184e-05
1.80216e-05
1.68133e-05
1.61826e-05
1.2914e-05
1.65637e-05
0.000779944
0.000491912
1.50985e-06
6.6674e-06
2.89336e-05
5.82394e-05
6.3879e-05
6.22307e-05
6.07871e-05
6.06881e-05
6.09322e-05
6.09886e-05
6.09976e-05
6.09595e-05
6.08635e-05
6.07244e-05
6.05293e-05
6.02841e-05
5.99955e-05
5.9659e-05
5.92799e-05
5.88593e-05
5.8394e-05
5.78932e-05
5.73609e-05
5.67895e-05
5.61868e-05
5.55582e-05
5.48991e-05
5.42152e-05
5.3508e-05
5.27766e-05
5.20262e-05
5.12571e-05
5.047e-05
4.96683e-05
4.88526e-05
4.80262e-05
4.71895e-05
4.6345e-05
4.54952e-05
4.464e-05
4.37826e-05
4.29234e-05
4.20628e-05
4.12039e-05
4.03448e-05
3.94875e-05
3.8631e-05
3.77741e-05
3.69152e-05
3.60505e-05
3.51767e-05
3.42897e-05
3.33885e-05
3.24753e-05
3.15553e-05
3.06355e-05
2.97194e-05
2.88044e-05
2.78802e-05
2.69338e-05
2.59578e-05
2.49536e-05
2.39395e-05
2.29169e-05
2.19265e-05
2.10304e-05
2.0265e-05
1.95343e-05
1.87528e-05
1.79893e-05
1.68267e-05
1.62449e-05
0.000516779
0
2.08253e-06
8.82602e-06
5.21402e-05
5.72973e-05
5.57721e-05
5.44346e-05
5.43357e-05
5.47079e-05
5.49644e-05
5.51135e-05
5.52275e-05
5.52881e-05
5.52992e-05
5.52612e-05
5.51726e-05
5.50405e-05
5.48641e-05
5.46435e-05
5.43814e-05
5.40825e-05
5.37489e-05
5.33773e-05
5.29771e-05
5.25476e-05
5.20885e-05
5.16037e-05
5.10938e-05
5.05615e-05
5.00056e-05
4.94276e-05
4.88325e-05
4.82157e-05
4.75808e-05
4.69303e-05
4.62622e-05
4.55796e-05
4.48829e-05
4.41725e-05
4.34503e-05
4.27174e-05
4.19742e-05
4.12223e-05
4.04628e-05
3.96976e-05
3.89261e-05
3.81507e-05
3.73711e-05
3.65869e-05
3.57972e-05
3.49987e-05
3.41891e-05
3.33652e-05
3.25262e-05
3.16746e-05
3.08154e-05
2.99547e-05
2.90952e-05
2.8234e-05
2.73612e-05
2.6465e-05
2.55394e-05
2.45864e-05
2.36247e-05
2.2653e-05
2.17093e-05
2.08569e-05
2.0132e-05
1.94377e-05
1.86917e-05
0
0
1.05883e-05
4.35279e-05
5.25909e-05
4.9852e-05
4.89007e-05
4.88366e-05
4.92785e-05
4.96711e-05
4.99355e-05
5.01547e-05
5.03342e-05
5.04616e-05
5.05442e-05
5.05849e-05
5.05775e-05
5.05266e-05
5.04353e-05
5.03033e-05
5.0133e-05
4.99268e-05
4.96884e-05
4.9416e-05
4.91158e-05
4.87893e-05
4.84346e-05
4.80568e-05
4.76564e-05
4.72356e-05
4.67916e-05
4.63286e-05
4.58494e-05
4.53481e-05
4.48306e-05
4.42967e-05
4.37449e-05
4.3178e-05
4.25951e-05
4.19971e-05
4.13849e-05
4.07586e-05
4.01194e-05
3.94677e-05
3.88041e-05
3.81307e-05
3.7447e-05
3.67551e-05
3.60552e-05
3.53472e-05
3.46304e-05
3.39024e-05
3.31614e-05
3.24044e-05
3.16316e-05
3.0845e-05
3.00495e-05
2.92504e-05
2.84498e-05
2.76446e-05
2.68253e-05
2.59818e-05
2.51091e-05
2.42101e-05
2.33033e-05
2.23848e-05
0
7.81876e-06
3.55039e-05
4.73278e-05
4.50117e-05
4.37858e-05
4.40396e-05
4.44801e-05
4.49466e-05
4.52862e-05
4.55699e-05
4.58205e-05
4.60267e-05
4.61909e-05
4.63111e-05
4.63939e-05
4.64352e-05
4.64344e-05
4.6399e-05
4.63277e-05
4.62233e-05
4.60864e-05
4.59203e-05
4.57261e-05
4.55072e-05
4.5264e-05
4.49961e-05
4.47085e-05
4.44002e-05
4.40728e-05
4.37255e-05
4.33603e-05
4.29789e-05
4.25784e-05
4.21619e-05
4.17288e-05
4.12786e-05
4.0813e-05
4.03305e-05
3.98322e-05
3.93186e-05
3.87892e-05
3.82449e-05
3.76858e-05
3.71125e-05
3.65267e-05
3.59277e-05
3.53179e-05
3.46972e-05
3.40658e-05
3.34234e-05
3.27679e-05
3.20976e-05
3.14103e-05
3.07061e-05
2.99869e-05
2.92573e-05
2.85218e-05
2.77819e-05
2.70344e-05
2.62709e-05
7.44959e-06
3.01959e-05
4.30216e-05
4.07042e-05
3.94728e-05
3.98316e-05
4.03769e-05
4.08367e-05
4.12251e-05
4.15442e-05
4.18339e-05
4.20883e-05
4.23017e-05
4.24792e-05
4.26141e-05
4.27154e-05
4.27804e-05
4.2807e-05
4.28037e-05
4.27681e-05
4.27037e-05
4.26104e-05
4.24931e-05
4.23514e-05
4.21882e-05
4.2005e-05
4.18011e-05
4.15806e-05
4.13428e-05
4.10886e-05
4.08177e-05
4.0532e-05
4.02313e-05
3.99141e-05
3.95828e-05
3.9236e-05
3.88735e-05
3.84964e-05
3.81025e-05
3.7693e-05
3.72683e-05
3.6827e-05
3.63695e-05
3.58963e-05
3.54076e-05
3.49041e-05
3.43862e-05
3.38553e-05
3.33118e-05
3.27557e-05
3.21873e-05
3.16043e-05
3.10055e-05
3.0389e-05
3.05959e-05
3.66459e-05
3.74191e-05
3.56902e-05
3.62648e-05
3.68286e-05
3.72921e-05
3.76776e-05
3.80182e-05
3.83212e-05
3.86022e-05
3.88447e-05
3.90505e-05
3.92252e-05
3.93632e-05
3.94705e-05
3.95445e-05
3.95867e-05
3.96016e-05
3.95886e-05
3.95503e-05
3.94885e-05
3.94037e-05
3.92994e-05
3.91774e-05
3.90365e-05
3.888e-05
3.8709e-05
3.85237e-05
3.83246e-05
3.81118e-05
3.78873e-05
3.76492e-05
3.73979e-05
3.71351e-05
3.68578e-05
3.65678e-05
3.62639e-05
3.59449e-05
3.5612e-05
3.52637e-05
3.48996e-05
)
;

boundaryField
{
    inlet
    {
        type            calculated;
        value           nonuniform List<scalar> 
13
(
7.48356e-05
7.53302e-05
7.57607e-05
7.61455e-05
7.65179e-05
7.69053e-05
7.74203e-05
7.75913e-05
7.72294e-05
7.69934e-05
7.66858e-05
7.64201e-05
7.62008e-05
)
;
    }
    outlet
    {
        type            calculated;
        value           nonuniform List<scalar> 0();
    }
    walls
    {
        type            calculated;
        value           uniform 0;
    }
    frontAndBack
    {
        type            empty;
    }
    procBoundary2to1
    {
        type            processor;
        value           nonuniform List<scalar> 
84
(
0.243552
0.0371134
0.0142959
0.00145468
0.00038685
0.000119852
0.000153852
0.000149171
0.000156152
0.000146066
0.000146253
0.000142328
0.000140054
0.00013686
0.000133791
0.000130427
0.000126922
0.000123212
0.000119316
0.000115235
0.00011097
0.000106529
0.000101925
9.71776e-05
9.23078e-05
8.73465e-05
8.23362e-05
7.73345e-05
7.24165e-05
6.76888e-05
6.32891e-05
5.93867e-05
5.61679e-05
5.37834e-05
5.22851e-05
5.15807e-05
5.1468e-05
5.17076e-05
5.17076e-05
5.84466e-05
5.77983e-05
5.71993e-05
5.65854e-05
5.59128e-05
5.51553e-05
5.43001e-05
5.33443e-05
5.22924e-05
5.11526e-05
4.99352e-05
4.86512e-05
4.73099e-05
4.59192e-05
4.59192e-05
4.51607e-05
4.35918e-05
4.20029e-05
4.04017e-05
3.8802e-05
3.72219e-05
3.56774e-05
3.41738e-05
3.27015e-05
3.27015e-05
3.14056e-05
2.99142e-05
2.8411e-05
2.69096e-05
2.54308e-05
2.40199e-05
2.27914e-05
2.17599e-05
2.07911e-05
1.9813e-05
1.9813e-05
1.89132e-05
1.78578e-05
1.64325e-05
1.4355e-05
1.27011e-05
1.3265e-05
2.12484e-05
2.96282e-05
4.10104e-05
)
;
    }
    procBoundary2to3
    {
        type            processor;
        value           nonuniform List<scalar> 
88
(
2.6594e-05
3.72821e-05
1.25945e-05
2.6594e-05
2.55141e-05
1.32107e-05
1.25945e-05
1.67605e-05
1.79629e-05
1.68513e-05
1.32107e-05
1.63215e-05
2.14905e-05
2.06842e-05
2.00014e-05
1.93444e-05
1.79629e-05
1.86357e-05
2.54823e-05
2.46652e-05
2.38228e-05
2.29735e-05
2.14905e-05
2.21104e-05
2.97546e-05
2.91041e-05
2.84416e-05
2.77708e-05
2.70928e-05
2.64047e-05
2.54823e-05
2.56986e-05
3.45195e-05
3.41238e-05
3.37117e-05
3.32841e-05
3.28418e-05
3.23853e-05
3.19152e-05
3.1432e-05
3.09354e-05
3.04239e-05
2.98959e-05
2.97546e-05
2.93496e-05
3.45383e-05
3.26746e-05
3.30663e-05
3.30615e-05
3.38053e-05
3.41977e-05
3.45789e-05
3.49076e-05
3.5216e-05
3.54975e-05
3.57515e-05
3.59718e-05
3.61605e-05
3.63245e-05
3.64552e-05
3.65574e-05
3.66322e-05
3.66809e-05
3.67054e-05
3.67062e-05
3.66848e-05
3.66439e-05
3.65848e-05
3.65085e-05
3.64162e-05
3.63097e-05
3.61906e-05
3.60582e-05
3.59148e-05
3.57598e-05
3.5594e-05
3.54178e-05
3.52307e-05
3.50334e-05
3.48253e-05
3.46057e-05
3.43754e-05
3.41322e-05
3.38763e-05
3.36079e-05
3.3325e-05
3.45195e-05
3.30276e-05
)
;
    }
    procBoundary2to6
    {
        type            processor;
        value           nonuniform List<scalar> 
13
(
0.249467
0.146346
0.10304
0.0780053
0.0579413
0.0395083
0.0222188
0.00799842
0.000738534
0.00036602
0
0
8.17244e-06
)
;
    }
}


// ************************************************************************* //
