/*--------------------------------*- C++ -*----------------------------------*\
| =========                 |                                                 |
| \\      /  F ield         | OpenFOAM: The Open Source CFD Toolbox           |
|  \\    /   O peration     | Version:  2306                                  |
|   \\  /    A nd           | Website:  www.openfoam.com                      |
|    \\/     M anipulation  |                                                 |
\*---------------------------------------------------------------------------*/
FoamFile
{
    version     2.0;
    format      ascii;
    arch        "LSB;label=32;scalar=64";
    class       volScalarField;
    location    "1000";
    object      magR;
}
// * * * * * * * * * * * * * * * * * * * * * * * * * * * * * * * * * * * * * //

dimensions      [0 2 -2 0 0 0 0];

internalField   nonuniform List<scalar> 
1340
(
8.17022e-07
1.6082e-06
1.82046e-07
7.4807e-07
8.14492e-07
1.61056e-06
2.01321e-07
3.23698e-07
1.78385e-07
7.50889e-07
8.14761e-07
1.61128e-06
3.72366e-07
3.27808e-07
3.0755e-07
2.11162e-07
3.31197e-07
1.76226e-07
7.53929e-07
8.16984e-07
1.61117e-06
5.32374e-07
4.93409e-07
4.61529e-07
4.31857e-07
4.00931e-07
3.71794e-07
3.2942e-07
3.11118e-07
2.21717e-07
3.38417e-07
1.75368e-07
7.57088e-07
8.20518e-07
1.61069e-06
7.47084e-07
7.00405e-07
6.53802e-07
6.08381e-07
5.63839e-07
5.21955e-07
4.8562e-07
4.55933e-07
4.28108e-07
3.98965e-07
3.71401e-07
3.31411e-07
3.15118e-07
2.32829e-07
3.45189e-07
1.75694e-07
7.60094e-07
8.24828e-07
1.60995e-06
1.01674e-06
9.73159e-07
9.29756e-07
8.86825e-07
8.44467e-07
8.02534e-07
7.6061e-07
7.18337e-07
6.75685e-07
6.33013e-07
5.91349e-07
5.50254e-07
5.11449e-07
4.7782e-07
4.5034e-07
4.24385e-07
3.97089e-07
3.7113e-07
3.33733e-07
3.19483e-07
2.44385e-07
3.51397e-07
1.77106e-07
7.62889e-07
8.29494e-07
1.60867e-06
1.37064e-06
1.33922e-06
1.30694e-06
1.27389e-06
1.24022e-06
1.20597e-06
1.17126e-06
1.13615e-06
1.10067e-06
1.06474e-06
1.02831e-06
9.91311e-07
9.53799e-07
9.15919e-07
8.77948e-07
8.40146e-07
8.02595e-07
7.65176e-07
7.27539e-07
6.89415e-07
6.5081e-07
6.12093e-07
5.74209e-07
5.36585e-07
5.00922e-07
4.70041e-07
4.44765e-07
4.20689e-07
3.95288e-07
3.70968e-07
3.36369e-07
3.24174e-07
2.56292e-07
3.5692e-07
1.7953e-07
7.65368e-07
8.33906e-07
1.60721e-06
1.36507e-06
1.38353e-06
1.23471e-06
1.27065e-06
1.26995e-06
1.32742e-06
1.35847e-06
1.38904e-06
1.41561e-06
1.44067e-06
1.46373e-06
1.48465e-06
1.50289e-06
1.51856e-06
1.53219e-06
1.54304e-06
1.55149e-06
1.5576e-06
1.56149e-06
1.5633e-06
1.56306e-06
1.56093e-06
1.55712e-06
1.55175e-06
1.54493e-06
1.53676e-06
1.52742e-06
1.51704e-06
1.50557e-06
1.49323e-06
1.47998e-06
1.4659e-06
1.45104e-06
1.43537e-06
1.41896e-06
1.40179e-06
1.38381e-06
1.3651e-06
1.34552e-06
1.32511e-06
1.3039e-06
1.28176e-06
1.25874e-06
1.23478e-06
1.20997e-06
1.18427e-06
1.15775e-06
1.13053e-06
1.10263e-06
1.07417e-06
1.04523e-06
1.0158e-06
9.85811e-07
9.55227e-07
9.23949e-07
8.92024e-07
8.59554e-07
8.26766e-07
7.93879e-07
7.60972e-07
7.27952e-07
6.94531e-07
6.60516e-07
6.25946e-07
5.9118e-07
5.57055e-07
5.22904e-07
4.90422e-07
4.62306e-07
4.39208e-07
4.17015e-07
3.93541e-07
3.70898e-07
3.39301e-07
3.29169e-07
2.68473e-07
3.61692e-07
1.82863e-07
7.67266e-07
8.37826e-07
1.60582e-06
1.38937e-06
1.10092e-06
1.00873e-06
1.10236e-06
1.12262e-06
1.1588e-06
1.18094e-06
1.20536e-06
1.22715e-06
1.24779e-06
1.26661e-06
1.28355e-06
1.29851e-06
1.31148e-06
1.32267e-06
1.33167e-06
1.33881e-06
1.34423e-06
1.34781e-06
1.34973e-06
1.35014e-06
1.34907e-06
1.34668e-06
1.34312e-06
1.33841e-06
1.3327e-06
1.32616e-06
1.31872e-06
1.31053e-06
1.30167e-06
1.29211e-06
1.28194e-06
1.27114e-06
1.25977e-06
1.2478e-06
1.2352e-06
1.222e-06
1.20816e-06
1.19362e-06
1.17836e-06
1.16236e-06
1.14559e-06
1.12796e-06
1.10947e-06
1.09018e-06
1.06999e-06
1.04903e-06
1.02733e-06
1.00496e-06
9.82013e-07
9.58553e-07
9.34555e-07
9.0997e-07
8.84744e-07
8.58753e-07
8.32016e-07
8.04593e-07
7.76674e-07
7.48439e-07
7.19958e-07
6.91173e-07
6.61858e-07
6.31873e-07
6.01277e-07
5.70408e-07
5.4e-07
5.09286e-07
4.79999e-07
4.54634e-07
4.33666e-07
4.13351e-07
3.91828e-07
3.70912e-07
3.42507e-07
3.34442e-07
2.80824e-07
3.65668e-07
1.86878e-07
7.68922e-07
8.40799e-07
1.60508e-06
1.05412e-06
9.28764e-07
8.96424e-07
9.79811e-07
9.89193e-07
1.01441e-06
1.03243e-06
1.05174e-06
1.06925e-06
1.08562e-06
1.10028e-06
1.11379e-06
1.12563e-06
1.13591e-06
1.1447e-06
1.15195e-06
1.15768e-06
1.16217e-06
1.16522e-06
1.1669e-06
1.16753e-06
1.16706e-06
1.1656e-06
1.16312e-06
1.15993e-06
1.15601e-06
1.15136e-06
1.14612e-06
1.14034e-06
1.13404e-06
1.12726e-06
1.12005e-06
1.11236e-06
1.10425e-06
1.09572e-06
1.08672e-06
1.07724e-06
1.06725e-06
1.05672e-06
1.04557e-06
1.0338e-06
1.02137e-06
1.00814e-06
9.94195e-07
9.7946e-07
9.63901e-07
9.47649e-07
9.30683e-07
9.13099e-07
8.94976e-07
8.76346e-07
8.57201e-07
8.37496e-07
8.17124e-07
7.95953e-07
7.73987e-07
7.5124e-07
7.27839e-07
7.0396e-07
6.79678e-07
6.54948e-07
6.29602e-07
6.03537e-07
5.76849e-07
5.49807e-07
5.2303e-07
4.95724e-07
4.69639e-07
4.46984e-07
4.28083e-07
4.09662e-07
3.90111e-07
3.70988e-07
3.45984e-07
3.39993e-07
2.93253e-07
3.68875e-07
1.91556e-07
7.69299e-07
8.43505e-07
1.60549e-06
8.99265e-07
8.31737e-07
8.0678e-07
8.67294e-07
8.72121e-07
8.91978e-07
9.06243e-07
9.21197e-07
9.34659e-07
9.47247e-07
9.58572e-07
9.68925e-07
9.78042e-07
9.85963e-07
9.92754e-07
9.98438e-07
1.00292e-06
1.00648e-06
1.00896e-06
1.01045e-06
1.01116e-06
1.01106e-06
1.01017e-06
1.00859e-06
1.00656e-06
1.00386e-06
1.00071e-06
9.97185e-07
9.932e-07
9.8889e-07
9.84223e-07
9.79293e-07
9.73983e-07
9.68423e-07
9.62541e-07
9.56302e-07
9.49725e-07
9.42757e-07
9.35333e-07
9.27442e-07
9.19018e-07
9.10001e-07
9.00347e-07
8.90039e-07
8.79e-07
8.67284e-07
8.54922e-07
8.41927e-07
8.2841e-07
8.14409e-07
7.9997e-07
7.85068e-07
7.69664e-07
7.53572e-07
7.36715e-07
7.19041e-07
7.00466e-07
6.81189e-07
6.6132e-07
6.40903e-07
6.19981e-07
5.9841e-07
5.76078e-07
5.53132e-07
5.29767e-07
5.06476e-07
4.8248e-07
4.59519e-07
4.39497e-07
4.22581e-07
4.06023e-07
3.88434e-07
3.71179e-07
3.49727e-07
3.45816e-07
3.05477e-07
3.71411e-07
1.95972e-07
7.68933e-07
8.44657e-07
1.60937e-06
7.96606e-07
7.37718e-07
7.13068e-07
7.59398e-07
7.62908e-07
7.78301e-07
7.89073e-07
8.00356e-07
8.10312e-07
8.19868e-07
8.28407e-07
8.36135e-07
8.4309e-07
8.49019e-07
8.54209e-07
8.58653e-07
8.62142e-07
8.64894e-07
8.6699e-07
8.68353e-07
8.69148e-07
8.6933e-07
8.68977e-07
8.68224e-07
8.67026e-07
8.65409e-07
8.6361e-07
8.6145e-07
8.58955e-07
8.56241e-07
8.53467e-07
8.5038e-07
8.47147e-07
8.43602e-07
8.39914e-07
8.36193e-07
8.31921e-07
8.27458e-07
8.22707e-07
8.17592e-07
8.11937e-07
8.05893e-07
7.99273e-07
7.92005e-07
7.84269e-07
7.75825e-07
7.66858e-07
7.57411e-07
7.47442e-07
7.37166e-07
7.26486e-07
7.15402e-07
7.03932e-07
6.91768e-07
6.78832e-07
6.65139e-07
6.50467e-07
6.35002e-07
6.18954e-07
6.02221e-07
5.84954e-07
5.67095e-07
5.48442e-07
5.29181e-07
5.09465e-07
4.89665e-07
4.68969e-07
4.49167e-07
4.31777e-07
4.16867e-07
4.02201e-07
3.86647e-07
3.71458e-07
3.53784e-07
3.52098e-07
3.17866e-07
3.73246e-07
2.04246e-07
7.64159e-07
8.49074e-07
1.61363e-06
6.81991e-07
6.31449e-07
6.09161e-07
6.44767e-07
6.46136e-07
6.57433e-07
6.64557e-07
6.717e-07
6.79248e-07
6.85293e-07
6.91004e-07
6.96837e-07
7.01382e-07
7.05293e-07
7.09251e-07
7.12647e-07
7.14743e-07
7.17185e-07
7.18885e-07
7.20123e-07
7.21177e-07
7.21467e-07
7.21876e-07
7.21993e-07
7.21566e-07
7.21163e-07
7.20626e-07
7.19865e-07
7.18988e-07
7.1779e-07
7.16896e-07
7.15812e-07
7.14493e-07
7.12895e-07
7.11664e-07
7.10195e-07
7.08265e-07
7.0625e-07
7.04141e-07
7.01725e-07
6.98771e-07
6.95731e-07
6.91888e-07
6.87742e-07
6.83283e-07
6.77976e-07
6.72465e-07
6.6662e-07
6.60187e-07
6.53746e-07
6.46936e-07
6.39738e-07
6.32396e-07
6.24284e-07
6.15408e-07
6.05841e-07
5.95327e-07
5.8386e-07
5.71865e-07
5.59185e-07
5.45934e-07
5.32152e-07
5.17592e-07
5.02464e-07
4.86808e-07
4.7086e-07
4.53867e-07
4.37634e-07
4.23128e-07
4.10407e-07
3.97899e-07
3.84709e-07
3.71976e-07
3.5886e-07
3.59181e-07
3.32437e-07
3.71744e-07
2.20323e-07
7.49683e-07
8.41231e-07
1.55937e-06
5.60014e-07
5.24426e-07
5.07888e-07
5.31985e-07
5.32064e-07
5.39429e-07
5.431e-07
5.47425e-07
5.52204e-07
5.55442e-07
5.59093e-07
5.62823e-07
5.65381e-07
5.67768e-07
5.70682e-07
5.72843e-07
5.74114e-07
5.76248e-07
5.77319e-07
5.78681e-07
5.79913e-07
5.80194e-07
5.81225e-07
5.82146e-07
5.82305e-07
5.82918e-07
5.83265e-07
5.83675e-07
5.84227e-07
5.84417e-07
5.84805e-07
5.85395e-07
5.85598e-07
5.85794e-07
5.86486e-07
5.86658e-07
5.86787e-07
5.86873e-07
5.8689e-07
5.86579e-07
5.86077e-07
5.85303e-07
5.83979e-07
5.82674e-07
5.80746e-07
5.78446e-07
5.76091e-07
5.73418e-07
5.70448e-07
5.67531e-07
5.64478e-07
5.61075e-07
5.57603e-07
5.5346e-07
5.48614e-07
5.43046e-07
5.36594e-07
5.29257e-07
5.214e-07
5.12942e-07
5.03969e-07
4.94488e-07
4.84336e-07
4.73613e-07
4.62252e-07
4.50422e-07
4.37469e-07
4.25054e-07
4.13605e-07
4.03257e-07
3.93153e-07
3.82666e-07
3.72959e-07
3.65e-07
3.67527e-07
3.47988e-07
3.69118e-07
2.37893e-07
7.49027e-07
8.34317e-07
1.55714e-06
4.57366e-07
4.31152e-07
4.17697e-07
4.34723e-07
4.34326e-07
4.38201e-07
4.40493e-07
4.4369e-07
4.45315e-07
4.47765e-07
4.50354e-07
4.52085e-07
4.53713e-07
4.55486e-07
4.57523e-07
4.58557e-07
4.60058e-07
4.61518e-07
4.62273e-07
4.63822e-07
4.65062e-07
4.65601e-07
4.66905e-07
4.68077e-07
4.68727e-07
4.70169e-07
4.71072e-07
4.72094e-07
4.73513e-07
4.74673e-07
4.75832e-07
4.77454e-07
4.7867e-07
4.80047e-07
4.81801e-07
4.83115e-07
4.84536e-07
4.86021e-07
4.87338e-07
4.88425e-07
4.89541e-07
4.90255e-07
4.9086e-07
4.91362e-07
4.91317e-07
4.91336e-07
4.913e-07
4.91065e-07
4.90851e-07
4.90672e-07
4.90601e-07
4.90285e-07
4.89798e-07
4.88941e-07
4.87327e-07
4.85066e-07
4.8205e-07
4.78247e-07
4.74058e-07
4.69357e-07
4.64226e-07
4.5871e-07
4.526e-07
4.45882e-07
4.38531e-07
4.3056e-07
4.21449e-07
4.12666e-07
4.04124e-07
3.96126e-07
3.88508e-07
3.80855e-07
3.74563e-07
3.71803e-07
3.76804e-07
3.62814e-07
3.68053e-07
2.55417e-07
7.55999e-07
8.12757e-07
1.55666e-06
3.72948e-07
3.33613e-07
3.51115e-07
3.38134e-07
3.52881e-07
3.51025e-07
3.53359e-07
3.55306e-07
3.57098e-07
3.57974e-07
3.59577e-07
3.61365e-07
3.62595e-07
3.63617e-07
3.65122e-07
3.66703e-07
3.67355e-07
3.68954e-07
3.70163e-07
3.71143e-07
3.72731e-07
3.73803e-07
3.75096e-07
3.76427e-07
3.77833e-07
3.79218e-07
3.80895e-07
3.82433e-07
3.8395e-07
3.8596e-07
3.87778e-07
3.89548e-07
3.91888e-07
3.93787e-07
3.95982e-07
3.98467e-07
4.00505e-07
4.02851e-07
4.05213e-07
4.07349e-07
4.09515e-07
4.11585e-07
4.13475e-07
4.15347e-07
4.16998e-07
4.18582e-07
4.20176e-07
4.21803e-07
4.23492e-07
4.25288e-07
4.27177e-07
4.29256e-07
4.31197e-07
4.32932e-07
4.34437e-07
4.35208e-07
4.3545e-07
4.35097e-07
4.3408e-07
4.32823e-07
4.31219e-07
4.29268e-07
4.27051e-07
4.2431e-07
4.20983e-07
4.17057e-07
4.12437e-07
4.06715e-07
4.0113e-07
3.95188e-07
3.89402e-07
3.84244e-07
3.79472e-07
3.76843e-07
3.79126e-07
3.86513e-07
3.76319e-07
3.68218e-07
2.76867e-07
7.66877e-07
7.85115e-07
1.55578e-06
3.01845e-07
2.69156e-07
2.82576e-07
2.71186e-07
2.83782e-07
2.81651e-07
2.8373e-07
2.8449e-07
2.8591e-07
2.86951e-07
2.87629e-07
2.8904e-07
2.90084e-07
2.91252e-07
2.92374e-07
2.93525e-07
2.94509e-07
2.95991e-07
2.97318e-07
2.9845e-07
2.99861e-07
3.01175e-07
3.03021e-07
3.04361e-07
3.06105e-07
3.0786e-07
3.09673e-07
3.11855e-07
3.137e-07
3.16042e-07
3.18272e-07
3.20679e-07
3.23333e-07
3.25766e-07
3.28514e-07
3.31426e-07
3.34144e-07
3.36949e-07
3.39959e-07
3.42774e-07
3.45639e-07
3.48512e-07
3.51212e-07
3.54026e-07
3.56753e-07
3.59552e-07
3.62401e-07
3.65346e-07
3.68558e-07
3.7192e-07
3.7535e-07
3.79015e-07
3.82618e-07
3.85974e-07
3.89207e-07
3.9178e-07
3.93913e-07
3.95642e-07
3.9689e-07
3.98006e-07
3.98909e-07
3.99587e-07
4.00048e-07
4.00102e-07
3.99604e-07
3.98538e-07
3.96795e-07
3.94025e-07
3.91216e-07
3.87589e-07
3.83895e-07
3.81106e-07
3.7921e-07
3.80355e-07
3.87361e-07
3.96755e-07
3.88869e-07
3.70539e-07
3.05748e-07
7.81793e-07
7.52779e-07
1.55608e-06
2.41036e-07
2.14683e-07
2.24418e-07
2.15022e-07
2.25384e-07
2.23908e-07
2.2549e-07
2.26232e-07
2.27672e-07
2.28127e-07
2.29131e-07
2.30572e-07
2.31395e-07
2.32691e-07
2.33904e-07
2.34906e-07
2.36373e-07
2.37801e-07
2.39306e-07
2.40546e-07
2.42195e-07
2.44006e-07
2.45653e-07
2.47463e-07
2.49546e-07
2.51326e-07
2.53636e-07
2.5605e-07
2.58086e-07
2.60748e-07
2.63235e-07
2.66013e-07
2.68858e-07
2.71533e-07
2.74618e-07
2.77856e-07
2.80758e-07
2.83949e-07
2.87314e-07
2.90471e-07
2.93734e-07
2.97195e-07
3.00393e-07
3.03793e-07
3.07397e-07
3.10916e-07
3.14708e-07
3.18606e-07
3.2284e-07
3.27213e-07
3.31677e-07
3.36433e-07
3.4106e-07
3.4553e-07
3.49949e-07
3.53833e-07
3.57406e-07
3.60772e-07
3.63851e-07
3.66894e-07
3.69807e-07
3.72635e-07
3.75319e-07
3.77634e-07
3.79509e-07
3.80856e-07
3.8156e-07
3.81337e-07
3.80874e-07
3.79292e-07
3.7764e-07
3.77253e-07
3.78313e-07
3.83338e-07
3.9456e-07
4.05036e-07
3.97675e-07
3.72596e-07
3.39136e-07
8.00356e-07
7.13008e-07
1.56067e-06
2.02058e-07
1.81101e-07
1.89283e-07
1.81127e-07
1.90033e-07
1.88701e-07
1.89486e-07
1.9065e-07
1.91523e-07
1.91826e-07
1.9289e-07
1.93991e-07
1.94737e-07
1.9565e-07
1.96892e-07
1.97779e-07
1.99187e-07
2.00494e-07
2.01606e-07
2.02932e-07
2.04609e-07
2.06301e-07
2.07659e-07
2.09375e-07
2.11628e-07
2.13219e-07
2.1539e-07
2.17712e-07
2.19826e-07
2.22289e-07
2.24835e-07
2.27515e-07
2.30317e-07
2.33075e-07
2.36199e-07
2.39397e-07
2.42425e-07
2.45854e-07
2.4932e-07
2.52831e-07
2.56328e-07
2.60229e-07
2.63956e-07
2.6792e-07
2.72156e-07
2.76277e-07
2.80875e-07
2.85464e-07
2.9035e-07
2.95405e-07
3.00569e-07
3.05937e-07
3.11205e-07
3.16501e-07
3.2168e-07
3.26569e-07
3.31322e-07
3.3596e-07
3.4047e-07
3.45021e-07
3.49479e-07
3.53947e-07
3.58328e-07
3.62369e-07
3.66148e-07
3.6945e-07
3.72153e-07
3.74087e-07
3.75698e-07
3.76031e-07
3.76192e-07
3.77793e-07
3.813e-07
3.89583e-07
4.03928e-07
4.14696e-07
4.07921e-07
3.8319e-07
3.88411e-07
8.29054e-07
6.75995e-07
1.58199e-06
1.64588e-07
1.46791e-07
1.53423e-07
1.46217e-07
1.55404e-07
1.54087e-07
1.55462e-07
1.56654e-07
1.57064e-07
1.57758e-07
1.5925e-07
1.60432e-07
1.61412e-07
1.62304e-07
1.63641e-07
1.65071e-07
1.66515e-07
1.67765e-07
1.68935e-07
1.70933e-07
1.72479e-07
1.74156e-07
1.75821e-07
1.77523e-07
1.79896e-07
1.81695e-07
1.83764e-07
1.85992e-07
1.88331e-07
1.90731e-07
1.93093e-07
1.9587e-07
1.98413e-07
2.01192e-07
2.04223e-07
2.07155e-07
2.10205e-07
2.13351e-07
2.16848e-07
2.20265e-07
2.23662e-07
2.27541e-07
2.31343e-07
2.35323e-07
2.39492e-07
2.43817e-07
2.48354e-07
2.52968e-07
2.57804e-07
2.62769e-07
2.6794e-07
2.73164e-07
2.78508e-07
2.83934e-07
2.89294e-07
2.94621e-07
2.99983e-07
3.05353e-07
3.10705e-07
3.16213e-07
3.21695e-07
3.27286e-07
3.32842e-07
3.38176e-07
3.43364e-07
3.48103e-07
3.52314e-07
3.55817e-07
3.58619e-07
3.60114e-07
3.6211e-07
3.66143e-07
3.72891e-07
3.85205e-07
4.02126e-07
4.10562e-07
4.00167e-07
3.77229e-07
4.20666e-07
8.46836e-07
6.13266e-07
1.61909e-06
1.73349e-07
1.6107e-07
1.65723e-07
1.6049e-07
1.65039e-07
1.64065e-07
1.65164e-07
1.65746e-07
1.65592e-07
1.66048e-07
1.67023e-07
1.67823e-07
1.68328e-07
1.68667e-07
1.69566e-07
1.70516e-07
1.71322e-07
1.72098e-07
1.72781e-07
1.7424e-07
1.75264e-07
1.76211e-07
1.77442e-07
1.78726e-07
1.80348e-07
1.81762e-07
1.83401e-07
1.85061e-07
1.87014e-07
1.89049e-07
1.91051e-07
1.93544e-07
1.95845e-07
1.98565e-07
2.01437e-07
2.04429e-07
2.0761e-07
2.10944e-07
2.14752e-07
2.18429e-07
2.2243e-07
2.26665e-07
2.30933e-07
2.35342e-07
2.39898e-07
2.44559e-07
2.49128e-07
2.53899e-07
2.58668e-07
2.63536e-07
2.68666e-07
2.73882e-07
2.79413e-07
2.85073e-07
2.90917e-07
2.96836e-07
3.02809e-07
3.08795e-07
3.14641e-07
3.20552e-07
3.26378e-07
3.32299e-07
3.38237e-07
3.44104e-07
3.49916e-07
3.55406e-07
3.6058e-07
3.65334e-07
3.69934e-07
3.73328e-07
3.76119e-07
3.80194e-07
3.86499e-07
3.97905e-07
4.13271e-07
4.2019e-07
4.15158e-07
4.14287e-07
5.10574e-07
8.95249e-07
6.33996e-07
1.77977e-06
1.31665e-07
1.33219e-07
1.31657e-07
1.34664e-07
1.3605e-07
1.36521e-07
1.37311e-07
1.37884e-07
1.3877e-07
1.39709e-07
1.40289e-07
1.41213e-07
1.42143e-07
1.43119e-07
1.44072e-07
1.44996e-07
1.4613e-07
1.472e-07
1.48299e-07
1.49539e-07
1.50666e-07
1.51988e-07
1.53228e-07
1.54564e-07
1.56016e-07
1.57506e-07
1.59019e-07
1.60548e-07
1.6228e-07
1.63958e-07
1.6577e-07
1.67677e-07
1.69575e-07
1.71696e-07
1.73798e-07
1.76083e-07
1.78414e-07
1.8085e-07
1.83419e-07
1.85954e-07
1.88669e-07
1.91369e-07
1.94075e-07
1.96783e-07
1.99555e-07
2.02253e-07
2.04963e-07
2.07806e-07
2.10703e-07
2.13851e-07
2.1721e-07
2.20854e-07
2.24824e-07
2.28974e-07
2.33408e-07
2.37974e-07
2.42748e-07
2.47652e-07
2.52672e-07
2.58014e-07
2.63527e-07
2.69327e-07
2.75286e-07
2.81319e-07
2.87355e-07
2.9308e-07
2.98473e-07
3.03275e-07
3.05991e-07
3.07105e-07
3.11105e-07
3.1942e-07
3.32403e-07
3.52136e-07
3.70583e-07
3.68276e-07
3.46871e-07
3.54141e-07
4.99956e-07
7.63736e-07
5.75807e-07
1.79265e-06
)
;

boundaryField
{
    inlet
    {
        type            calculated;
        value           nonuniform List<scalar> 
23
(
6.78296e-06
6.74895e-06
6.71594e-06
6.6839e-06
6.65215e-06
6.61992e-06
6.58629e-06
6.55058e-06
6.51186e-06
6.4693e-06
6.42179e-06
6.36972e-06
6.30993e-06
6.21614e-06
6.13776e-06
6.04256e-06
5.92426e-06
5.78016e-06
5.60693e-06
5.40381e-06
5.1622e-06
4.97834e-06
4.62616e-06
)
;
    }
    outlet
    {
        type            calculated;
        value           nonuniform List<scalar> 
82
(
1.04805e-07
1.04595e-07
1.06919e-07
1.0811e-07
1.09628e-07
1.10001e-07
1.10751e-07
1.1124e-07
1.12094e-07
1.13008e-07
1.13486e-07
1.14362e-07
1.15249e-07
1.16174e-07
1.17072e-07
1.17924e-07
1.19019e-07
1.20034e-07
1.21069e-07
1.22274e-07
1.23329e-07
1.24601e-07
1.25777e-07
1.27048e-07
1.28448e-07
1.29874e-07
1.31318e-07
1.32756e-07
1.34419e-07
1.35994e-07
1.37697e-07
1.39493e-07
1.41237e-07
1.43216e-07
1.45131e-07
1.47221e-07
1.49327e-07
1.51509e-07
1.53812e-07
1.56029e-07
1.58431e-07
1.60786e-07
1.63127e-07
1.65461e-07
1.67871e-07
1.70204e-07
1.72563e-07
1.75097e-07
1.777e-07
1.80591e-07
1.83698e-07
1.8708e-07
1.90766e-07
1.94574e-07
1.98631e-07
2.02793e-07
2.07191e-07
2.11798e-07
2.16638e-07
2.21974e-07
2.27617e-07
2.33652e-07
2.39888e-07
2.46186e-07
2.52464e-07
2.58353e-07
2.63749e-07
2.68216e-07
2.69986e-07
2.70199e-07
2.74368e-07
2.84028e-07
2.99818e-07
3.23606e-07
3.45135e-07
3.41096e-07
3.0944e-07
3.03267e-07
4.48032e-07
7.34272e-07
4.68518e-07
1.62421e-06
)
;
    }
    walls
    {
        type            calculated;
        value           nonuniform List<scalar> 0();
    }
    frontAndBack
    {
        type            empty;
    }
    procBoundary3to2
    {
        type            processor;
        value           nonuniform List<scalar> 
88
(
8.22949e-07
1.6052e-06
1.87196e-07
7.44923e-07
7.44923e-07
1.92303e-07
3.16022e-07
3.16022e-07
3.73219e-07
3.26659e-07
3.04514e-07
3.04514e-07
5.42728e-07
5.01216e-07
4.67175e-07
4.35683e-07
4.03041e-07
4.03041e-07
7.75441e-07
7.2479e-07
6.74324e-07
6.25196e-07
5.7726e-07
5.7726e-07
1.08024e-06
1.03076e-06
9.81738e-07
9.33531e-07
8.86256e-07
8.39742e-07
7.93504e-07
7.93504e-07
1.51656e-06
1.47723e-06
1.4372e-06
1.3966e-06
1.35549e-06
1.31405e-06
1.27234e-06
1.23041e-06
1.18832e-06
1.14595e-06
1.10326e-06
1.06017e-06
1.06017e-06
1.02355e-06
1.55137e-06
1.62595e-06
1.47637e-06
1.52353e-06
1.57152e-06
1.61159e-06
1.64511e-06
1.67486e-06
1.70152e-06
1.72643e-06
1.74801e-06
1.76637e-06
1.78197e-06
1.79426e-06
1.80376e-06
1.8102e-06
1.81372e-06
1.81471e-06
1.81313e-06
1.80921e-06
1.80313e-06
1.79496e-06
1.78501e-06
1.77348e-06
1.76027e-06
1.74571e-06
1.72991e-06
1.7129e-06
1.69476e-06
1.67552e-06
1.65537e-06
1.63418e-06
1.61199e-06
1.58898e-06
1.56493e-06
1.54001e-06
1.51415e-06
1.48729e-06
1.45956e-06
1.43086e-06
1.40121e-06
1.40121e-06
)
;
    }
    procBoundary3to6
    {
        type            processor;
        value           uniform 7.29736e-08;
    }
    procBoundary3to7
    {
        type            processor;
        value           nonuniform List<scalar> 
16
(
3.10819e-08
9.56859e-07
9.7317e-07
7.52551e-07
6.58069e-07
5.79873e-07
4.90683e-07
4.07744e-07
4.07744e-07
3.30267e-07
2.67037e-07
2.12751e-07
1.79247e-07
1.46389e-07
1.5801e-07
1.35289e-07
)
;
    }
}


// ************************************************************************* //
