/*--------------------------------*- C++ -*----------------------------------*\
| =========                 |                                                 |
| \\      /  F ield         | OpenFOAM: The Open Source CFD Toolbox           |
|  \\    /   O peration     | Version:  2306                                  |
|   \\  /    A nd           | Website:  www.openfoam.com                      |
|    \\/     M anipulation  |                                                 |
\*---------------------------------------------------------------------------*/
FoamFile
{
    version     2.0;
    format      ascii;
    arch        "LSB;label=32;scalar=64";
    class       volScalarField;
    location    "1000";
    object      turbulenceProperties:k;
}
// * * * * * * * * * * * * * * * * * * * * * * * * * * * * * * * * * * * * * //

dimensions      [0 2 -2 0 0 0 0];

internalField   nonuniform List<scalar> 
1340
(
7.04821e-07
1.38621e-06
1.57324e-07
6.44776e-07
7.0267e-07
1.38827e-06
1.73419e-07
2.78868e-07
1.54184e-07
6.4721e-07
7.02942e-07
1.38896e-06
3.20721e-07
2.82342e-07
2.64893e-07
1.81893e-07
2.85324e-07
1.52332e-07
6.49836e-07
7.04896e-07
1.38891e-06
4.5854e-07
4.24977e-07
3.97518e-07
3.71961e-07
3.45324e-07
3.20227e-07
2.8373e-07
2.67966e-07
1.90982e-07
2.91538e-07
1.51591e-07
6.5256e-07
7.07972e-07
1.38855e-06
6.43484e-07
6.03277e-07
5.63134e-07
5.24009e-07
4.85643e-07
4.49565e-07
4.18269e-07
3.92698e-07
3.68732e-07
3.43631e-07
3.19889e-07
2.85445e-07
2.71411e-07
2.0055e-07
2.97367e-07
1.51862e-07
6.5515e-07
7.11713e-07
1.38797e-06
8.75746e-07
8.38209e-07
8.00826e-07
7.6385e-07
7.27366e-07
6.91247e-07
6.55136e-07
6.18723e-07
5.81984e-07
5.45227e-07
5.09339e-07
4.73941e-07
4.40517e-07
4.1155e-07
3.87881e-07
3.65525e-07
3.42014e-07
3.19655e-07
2.87444e-07
2.75169e-07
2.105e-07
3.02709e-07
1.53061e-07
6.57556e-07
7.15757e-07
1.38692e-06
1.18055e-06
1.15349e-06
1.12568e-06
1.09722e-06
1.06822e-06
1.03872e-06
1.00883e-06
9.78585e-07
9.48027e-07
9.17085e-07
8.85709e-07
8.5384e-07
8.21532e-07
7.88907e-07
7.56203e-07
7.23644e-07
6.913e-07
6.5907e-07
6.2665e-07
5.93811e-07
5.60558e-07
5.27209e-07
4.94576e-07
4.62168e-07
4.31449e-07
4.04849e-07
3.83079e-07
3.62342e-07
3.40463e-07
3.19515e-07
2.89714e-07
2.7921e-07
2.20753e-07
3.07462e-07
1.55124e-07
6.59688e-07
7.19578e-07
1.38572e-06
1.17611e-06
1.19017e-06
1.06277e-06
1.09446e-06
1.09392e-06
1.1433e-06
1.17001e-06
1.19635e-06
1.21923e-06
1.24083e-06
1.26069e-06
1.27871e-06
1.29443e-06
1.30792e-06
1.31967e-06
1.32902e-06
1.33629e-06
1.34156e-06
1.34491e-06
1.34647e-06
1.34627e-06
1.34443e-06
1.34115e-06
1.33653e-06
1.33065e-06
1.32362e-06
1.31557e-06
1.30663e-06
1.29675e-06
1.28613e-06
1.27472e-06
1.26259e-06
1.24979e-06
1.2363e-06
1.22216e-06
1.20737e-06
1.19188e-06
1.17577e-06
1.15891e-06
1.14133e-06
1.12306e-06
1.104e-06
1.08417e-06
1.06353e-06
1.04217e-06
1.02003e-06
9.97186e-07
9.73741e-07
9.49712e-07
9.25199e-07
9.00276e-07
8.74925e-07
8.49099e-07
8.22759e-07
7.9582e-07
7.68324e-07
7.40358e-07
7.12118e-07
6.83792e-07
6.55449e-07
6.27008e-07
5.9822e-07
5.6892e-07
5.39142e-07
5.09195e-07
4.79801e-07
4.50383e-07
4.22405e-07
3.98187e-07
3.78293e-07
3.59177e-07
3.38958e-07
3.19455e-07
2.92239e-07
2.83511e-07
2.31242e-07
3.11567e-07
1.57964e-07
6.61316e-07
7.2297e-07
1.38456e-06
1.19499e-06
9.47901e-07
8.68872e-07
9.49547e-07
9.66894e-07
9.98038e-07
1.01712e-06
1.03816e-06
1.05692e-06
1.0747e-06
1.09092e-06
1.10551e-06
1.11839e-06
1.12956e-06
1.13921e-06
1.14696e-06
1.15311e-06
1.15778e-06
1.16087e-06
1.16252e-06
1.16287e-06
1.16196e-06
1.1599e-06
1.15683e-06
1.15278e-06
1.14786e-06
1.14222e-06
1.13582e-06
1.12877e-06
1.12113e-06
1.1129e-06
1.10414e-06
1.09484e-06
1.08505e-06
1.07474e-06
1.06388e-06
1.05252e-06
1.0406e-06
1.02808e-06
1.01493e-06
1.00115e-06
9.86712e-07
9.71528e-07
9.556e-07
9.38986e-07
9.21597e-07
9.03542e-07
8.84856e-07
8.65586e-07
8.45824e-07
8.25619e-07
8.0495e-07
7.83777e-07
7.6205e-07
7.39665e-07
7.16638e-07
6.93019e-07
6.68973e-07
6.44654e-07
6.20122e-07
5.95328e-07
5.70077e-07
5.44248e-07
5.17893e-07
4.91303e-07
4.6511e-07
4.38654e-07
4.13427e-07
3.91579e-07
3.73518e-07
3.56021e-07
3.37483e-07
3.19467e-07
2.95e-07
2.88052e-07
2.41878e-07
3.14986e-07
1.61385e-07
6.62731e-07
7.25536e-07
1.38396e-06
9.07886e-07
8.00002e-07
7.7214e-07
8.43896e-07
8.51959e-07
8.73684e-07
8.89212e-07
9.05845e-07
9.20932e-07
9.35027e-07
9.47661e-07
9.59298e-07
9.69497e-07
9.78352e-07
9.85926e-07
9.92174e-07
9.9711e-07
1.00097e-06
1.0036e-06
1.00505e-06
1.0056e-06
1.00519e-06
1.00393e-06
1.0018e-06
9.9905e-07
9.9567e-07
9.9167e-07
9.87157e-07
9.82176e-07
9.76752e-07
9.70912e-07
9.64701e-07
9.5808e-07
9.51097e-07
9.43752e-07
9.35998e-07
9.27832e-07
9.19231e-07
9.10163e-07
9.00561e-07
8.90426e-07
8.79714e-07
8.68321e-07
8.56313e-07
8.43622e-07
8.30221e-07
8.16224e-07
8.01612e-07
7.86467e-07
7.70858e-07
7.54813e-07
7.38324e-07
7.21353e-07
7.03808e-07
6.85574e-07
6.66656e-07
6.47064e-07
6.2691e-07
6.06343e-07
5.85428e-07
5.64126e-07
5.42294e-07
5.19842e-07
4.96853e-07
4.73559e-07
4.50493e-07
4.26972e-07
4.04503e-07
3.8499e-07
3.6871e-07
3.52843e-07
3.36004e-07
3.19531e-07
2.97993e-07
2.92832e-07
2.5258e-07
3.17742e-07
1.65372e-07
6.63039e-07
7.27862e-07
1.38433e-06
7.74697e-07
7.16383e-07
6.94875e-07
7.46974e-07
7.51139e-07
7.68246e-07
7.80533e-07
7.93415e-07
8.05011e-07
8.15854e-07
8.2561e-07
8.34528e-07
8.42381e-07
8.49205e-07
8.55055e-07
8.59952e-07
8.63811e-07
8.66878e-07
8.6902e-07
8.70299e-07
8.70911e-07
8.70822e-07
8.70058e-07
8.68701e-07
8.66956e-07
8.64628e-07
8.6191e-07
8.58878e-07
8.55446e-07
8.51734e-07
8.47715e-07
8.43469e-07
8.38896e-07
8.34108e-07
8.29042e-07
8.23669e-07
8.18005e-07
8.12004e-07
8.0561e-07
7.98814e-07
7.91559e-07
7.83794e-07
7.75479e-07
7.66601e-07
7.57094e-07
7.47004e-07
7.36356e-07
7.25165e-07
7.13523e-07
7.01464e-07
6.89029e-07
6.76194e-07
6.62928e-07
6.49069e-07
6.34552e-07
6.1933e-07
6.03332e-07
5.86729e-07
5.69615e-07
5.5203e-07
5.34008e-07
5.15427e-07
4.96191e-07
4.76424e-07
4.56298e-07
4.36235e-07
4.15564e-07
3.95787e-07
3.7854e-07
3.63971e-07
3.49709e-07
3.34559e-07
3.19696e-07
3.01217e-07
2.97847e-07
2.63107e-07
3.1992e-07
1.69124e-07
6.62695e-07
7.28822e-07
1.38767e-06
6.86188e-07
6.35379e-07
6.14157e-07
6.54055e-07
6.57081e-07
6.70341e-07
6.79619e-07
6.89338e-07
6.97914e-07
7.06145e-07
7.13501e-07
7.20158e-07
7.26149e-07
7.31256e-07
7.35727e-07
7.39556e-07
7.42561e-07
7.44932e-07
7.46738e-07
7.47912e-07
7.48597e-07
7.48754e-07
7.48451e-07
7.47802e-07
7.46771e-07
7.45378e-07
7.43829e-07
7.41969e-07
7.3982e-07
7.37483e-07
7.35094e-07
7.32436e-07
7.29652e-07
7.26599e-07
7.23422e-07
7.20218e-07
7.16539e-07
7.12696e-07
7.08604e-07
7.04199e-07
6.99329e-07
6.94124e-07
6.88423e-07
6.82164e-07
6.75501e-07
6.68229e-07
6.60506e-07
6.5237e-07
6.43783e-07
6.34933e-07
6.25735e-07
6.1619e-07
6.06312e-07
5.95836e-07
5.84696e-07
5.72903e-07
5.60266e-07
5.46947e-07
5.33124e-07
5.18712e-07
5.03838e-07
4.88454e-07
4.72386e-07
4.55794e-07
4.3881e-07
4.21755e-07
4.03927e-07
3.8687e-07
3.71891e-07
3.59049e-07
3.46417e-07
3.33019e-07
3.19935e-07
3.04711e-07
3.03256e-07
2.73775e-07
3.21494e-07
1.76196e-07
6.58561e-07
7.32615e-07
1.3914e-06
5.87447e-07
5.43857e-07
5.24669e-07
5.5533e-07
5.5651e-07
5.6624e-07
5.72377e-07
5.7853e-07
5.85031e-07
5.90238e-07
5.95157e-07
6.00182e-07
6.04097e-07
6.07466e-07
6.10876e-07
6.13801e-07
6.15607e-07
6.17711e-07
6.19175e-07
6.20241e-07
6.21149e-07
6.214e-07
6.21752e-07
6.21853e-07
6.21485e-07
6.21139e-07
6.20676e-07
6.20022e-07
6.19266e-07
6.18234e-07
6.17465e-07
6.16532e-07
6.15396e-07
6.1402e-07
6.1296e-07
6.11695e-07
6.10033e-07
6.08299e-07
6.06483e-07
6.04402e-07
6.01858e-07
5.9924e-07
5.95931e-07
5.9236e-07
5.88521e-07
5.8395e-07
5.79204e-07
5.7417e-07
5.68629e-07
5.63082e-07
5.57218e-07
5.51019e-07
5.44697e-07
5.37711e-07
5.30067e-07
5.21828e-07
5.12773e-07
5.02897e-07
4.92565e-07
4.81643e-07
4.70228e-07
4.58357e-07
4.45814e-07
4.32782e-07
4.19296e-07
4.05557e-07
3.90919e-07
3.76937e-07
3.64442e-07
3.53484e-07
3.42711e-07
3.3135e-07
3.20381e-07
3.09082e-07
3.09355e-07
2.86323e-07
3.20194e-07
1.89986e-07
6.46085e-07
7.25918e-07
1.3448e-06
4.82375e-07
4.51683e-07
4.37444e-07
4.58194e-07
4.58262e-07
4.64606e-07
4.67768e-07
4.71493e-07
4.7561e-07
4.78399e-07
4.81544e-07
4.84757e-07
4.86961e-07
4.89017e-07
4.91527e-07
4.93388e-07
4.94483e-07
4.96322e-07
4.97244e-07
4.98417e-07
4.99478e-07
4.99721e-07
5.00609e-07
5.01402e-07
5.0154e-07
5.02068e-07
5.02367e-07
5.02721e-07
5.03196e-07
5.0336e-07
5.03694e-07
5.04203e-07
5.04378e-07
5.04547e-07
5.05144e-07
5.05291e-07
5.05403e-07
5.05478e-07
5.05494e-07
5.05226e-07
5.04793e-07
5.04127e-07
5.02988e-07
5.01864e-07
5.00203e-07
4.98223e-07
4.96196e-07
4.93894e-07
4.91336e-07
4.88824e-07
4.86195e-07
4.83265e-07
4.80276e-07
4.76709e-07
4.72536e-07
4.67741e-07
4.62185e-07
4.55866e-07
4.49098e-07
4.41812e-07
4.34082e-07
4.25915e-07
4.17169e-07
4.07931e-07
3.98144e-07
3.87953e-07
3.76795e-07
3.66101e-07
3.56239e-07
3.47325e-07
3.38623e-07
3.2959e-07
3.21227e-07
3.14369e-07
3.16543e-07
2.99715e-07
3.17928e-07
2.05075e-07
6.4552e-07
7.20084e-07
1.34306e-06
3.93952e-07
3.71348e-07
3.59763e-07
3.74424e-07
3.74082e-07
3.7742e-07
3.79394e-07
3.82148e-07
3.83548e-07
3.85658e-07
3.87888e-07
3.89379e-07
3.90782e-07
3.92309e-07
3.94063e-07
3.94954e-07
3.96247e-07
3.97504e-07
3.98155e-07
3.9949e-07
4.00557e-07
4.01022e-07
4.02145e-07
4.03155e-07
4.03715e-07
4.04956e-07
4.05735e-07
4.06615e-07
4.07837e-07
4.08836e-07
4.09835e-07
4.11232e-07
4.1228e-07
4.13466e-07
4.14978e-07
4.1611e-07
4.17334e-07
4.18613e-07
4.19748e-07
4.20685e-07
4.21646e-07
4.22261e-07
4.22783e-07
4.23216e-07
4.23177e-07
4.23194e-07
4.23163e-07
4.22962e-07
4.22778e-07
4.22624e-07
4.22564e-07
4.22292e-07
4.21874e-07
4.21137e-07
4.19748e-07
4.17802e-07
4.15205e-07
4.1193e-07
4.0832e-07
4.04271e-07
3.9985e-07
3.95098e-07
3.89833e-07
3.84045e-07
3.77712e-07
3.70845e-07
3.62997e-07
3.5543e-07
3.48072e-07
3.41184e-07
3.34622e-07
3.28029e-07
3.22607e-07
3.20227e-07
3.24532e-07
3.12483e-07
3.17005e-07
2.20127e-07
6.51501e-07
7.0157e-07
1.34267e-06
3.21237e-07
2.8734e-07
3.02413e-07
2.91235e-07
3.03934e-07
3.02336e-07
3.04346e-07
3.06023e-07
3.07566e-07
3.08321e-07
3.09702e-07
3.11243e-07
3.12302e-07
3.13182e-07
3.14478e-07
3.1584e-07
3.16402e-07
3.17779e-07
3.1882e-07
3.19665e-07
3.21033e-07
3.21956e-07
3.2307e-07
3.24216e-07
3.25427e-07
3.2662e-07
3.28065e-07
3.29389e-07
3.30696e-07
3.32428e-07
3.33994e-07
3.35519e-07
3.37534e-07
3.3917e-07
3.41061e-07
3.43202e-07
3.44958e-07
3.46978e-07
3.49013e-07
3.50853e-07
3.52719e-07
3.54502e-07
3.5613e-07
3.57743e-07
3.59165e-07
3.6053e-07
3.61903e-07
3.63304e-07
3.6476e-07
3.66307e-07
3.67935e-07
3.69727e-07
3.71399e-07
3.72895e-07
3.74192e-07
3.74856e-07
3.75066e-07
3.74762e-07
3.73887e-07
3.72803e-07
3.71421e-07
3.6974e-07
3.67828e-07
3.65466e-07
3.62599e-07
3.59216e-07
3.55235e-07
3.50305e-07
3.45494e-07
3.40375e-07
3.35391e-07
3.30948e-07
3.26837e-07
3.24571e-07
3.26534e-07
3.32893e-07
3.24114e-07
3.17144e-07
2.38564e-07
6.60837e-07
6.77789e-07
1.34187e-06
2.59991e-07
2.31824e-07
2.43381e-07
2.33573e-07
2.4442e-07
2.42585e-07
2.44375e-07
2.4503e-07
2.46253e-07
2.4715e-07
2.47733e-07
2.48949e-07
2.49848e-07
2.50854e-07
2.5182e-07
2.52812e-07
2.53659e-07
2.54936e-07
2.56079e-07
2.57054e-07
2.58269e-07
2.59402e-07
2.60992e-07
2.62146e-07
2.63648e-07
2.65159e-07
2.66721e-07
2.68601e-07
2.7019e-07
2.72208e-07
2.74128e-07
2.76201e-07
2.78487e-07
2.80583e-07
2.82951e-07
2.85458e-07
2.878e-07
2.90217e-07
2.92809e-07
2.95234e-07
2.97702e-07
3.00176e-07
3.02503e-07
3.04926e-07
3.07275e-07
3.09686e-07
3.1214e-07
3.14677e-07
3.17445e-07
3.20341e-07
3.23296e-07
3.26454e-07
3.29557e-07
3.32448e-07
3.35234e-07
3.37452e-07
3.39289e-07
3.40779e-07
3.41853e-07
3.42814e-07
3.43592e-07
3.44174e-07
3.4457e-07
3.44615e-07
3.44184e-07
3.43265e-07
3.41762e-07
3.39375e-07
3.36954e-07
3.33829e-07
3.30648e-07
3.28245e-07
3.2661e-07
3.27595e-07
3.33625e-07
3.41714e-07
3.34922e-07
3.19141e-07
2.63409e-07
6.73644e-07
6.49964e-07
1.34204e-06
2.07612e-07
1.84905e-07
1.9329e-07
1.85199e-07
1.94122e-07
1.92851e-07
1.94213e-07
1.94853e-07
1.96093e-07
1.96485e-07
1.97349e-07
1.98591e-07
1.99299e-07
2.00416e-07
2.01461e-07
2.02324e-07
2.03587e-07
2.04818e-07
2.06113e-07
2.07182e-07
2.08602e-07
2.10161e-07
2.11581e-07
2.13139e-07
2.14934e-07
2.16467e-07
2.18456e-07
2.20536e-07
2.2229e-07
2.24583e-07
2.26725e-07
2.29117e-07
2.31568e-07
2.33872e-07
2.3653e-07
2.39318e-07
2.41818e-07
2.44567e-07
2.47466e-07
2.50185e-07
2.52995e-07
2.55977e-07
2.58732e-07
2.6166e-07
2.64765e-07
2.67796e-07
2.71062e-07
2.74419e-07
2.78067e-07
2.81834e-07
2.85679e-07
2.89776e-07
2.93763e-07
2.97614e-07
3.0142e-07
3.04767e-07
3.07845e-07
3.10744e-07
3.13396e-07
3.16017e-07
3.18524e-07
3.20959e-07
3.2327e-07
3.25262e-07
3.26875e-07
3.28034e-07
3.28639e-07
3.28446e-07
3.28046e-07
3.26684e-07
3.2526e-07
3.24926e-07
3.25837e-07
3.30162e-07
3.39824e-07
3.48845e-07
3.42506e-07
3.2091e-07
2.92137e-07
6.89599e-07
6.15712e-07
1.34588e-06
1.74036e-07
1.55982e-07
1.63028e-07
1.56005e-07
1.63674e-07
1.62527e-07
1.63203e-07
1.64206e-07
1.64958e-07
1.65219e-07
1.66135e-07
1.67083e-07
1.67726e-07
1.68512e-07
1.69582e-07
1.70346e-07
1.71559e-07
1.72685e-07
1.73643e-07
1.74785e-07
1.76229e-07
1.77686e-07
1.78856e-07
1.80334e-07
1.82275e-07
1.83645e-07
1.85515e-07
1.87515e-07
1.89337e-07
1.91458e-07
1.93651e-07
1.95959e-07
1.98373e-07
2.00749e-07
2.03439e-07
2.06194e-07
2.08802e-07
2.11755e-07
2.14741e-07
2.17765e-07
2.20777e-07
2.24137e-07
2.27348e-07
2.30762e-07
2.34411e-07
2.3796e-07
2.41922e-07
2.45874e-07
2.50083e-07
2.54438e-07
2.58886e-07
2.6351e-07
2.68048e-07
2.72611e-07
2.77072e-07
2.81284e-07
2.85378e-07
2.89373e-07
2.93257e-07
2.97177e-07
3.01015e-07
3.04863e-07
3.08634e-07
3.12114e-07
3.15367e-07
3.18209e-07
3.20536e-07
3.22201e-07
3.23588e-07
3.23874e-07
3.24013e-07
3.25391e-07
3.28409e-07
3.3554e-07
3.47891e-07
3.57164e-07
3.51331e-07
3.30033e-07
3.34563e-07
7.14263e-07
5.83834e-07
1.364e-06
1.41763e-07
1.2643e-07
1.32142e-07
1.25936e-07
1.33849e-07
1.32714e-07
1.33899e-07
1.34925e-07
1.35279e-07
1.35876e-07
1.37162e-07
1.3818e-07
1.39024e-07
1.39792e-07
1.40944e-07
1.42176e-07
1.43419e-07
1.44496e-07
1.45503e-07
1.47225e-07
1.48557e-07
1.50001e-07
1.51435e-07
1.52901e-07
1.54945e-07
1.56494e-07
1.58277e-07
1.60196e-07
1.6221e-07
1.64277e-07
1.66313e-07
1.68704e-07
1.70894e-07
1.73288e-07
1.759e-07
1.78425e-07
1.81052e-07
1.83762e-07
1.86773e-07
1.89717e-07
1.92643e-07
1.95984e-07
1.99259e-07
2.02687e-07
2.06278e-07
2.10003e-07
2.13911e-07
2.17886e-07
2.22052e-07
2.26328e-07
2.30783e-07
2.35283e-07
2.39886e-07
2.44561e-07
2.49178e-07
2.53766e-07
2.58386e-07
2.63011e-07
2.6762e-07
2.72363e-07
2.77084e-07
2.81898e-07
2.86683e-07
2.91275e-07
2.95742e-07
2.99823e-07
3.03449e-07
3.06465e-07
3.08878e-07
3.10165e-07
3.11884e-07
3.15356e-07
3.21165e-07
3.31768e-07
3.46338e-07
3.53603e-07
3.44655e-07
3.249e-07
3.62313e-07
7.29578e-07
5.2958e-07
1.39573e-06
1.49304e-07
1.38729e-07
1.42736e-07
1.38231e-07
1.42148e-07
1.41309e-07
1.42255e-07
1.42757e-07
1.42624e-07
1.43017e-07
1.43857e-07
1.44546e-07
1.44981e-07
1.45273e-07
1.46048e-07
1.46866e-07
1.4756e-07
1.48228e-07
1.48817e-07
1.50074e-07
1.50956e-07
1.51772e-07
1.52832e-07
1.53938e-07
1.55336e-07
1.56554e-07
1.57965e-07
1.59396e-07
1.61078e-07
1.62831e-07
1.64555e-07
1.66703e-07
1.68685e-07
1.71028e-07
1.73502e-07
1.76078e-07
1.78819e-07
1.8169e-07
1.8497e-07
1.88137e-07
1.91584e-07
1.95231e-07
1.98907e-07
2.02705e-07
2.06629e-07
2.10644e-07
2.1458e-07
2.18689e-07
2.22797e-07
2.26991e-07
2.3141e-07
2.35903e-07
2.40667e-07
2.45543e-07
2.50577e-07
2.55675e-07
2.6082e-07
2.65976e-07
2.71011e-07
2.761e-07
2.81117e-07
2.86216e-07
2.9133e-07
2.96381e-07
3.01385e-07
3.06112e-07
3.10567e-07
3.14661e-07
3.18623e-07
3.21546e-07
3.23949e-07
3.27457e-07
3.32885e-07
3.42704e-07
3.55935e-07
3.61895e-07
3.57564e-07
3.56816e-07
4.39762e-07
7.71147e-07
5.47184e-07
1.53349e-06
1.13403e-07
1.14742e-07
1.13396e-07
1.15987e-07
1.17181e-07
1.17588e-07
1.18268e-07
1.18762e-07
1.19525e-07
1.20335e-07
1.20834e-07
1.21631e-07
1.22433e-07
1.23273e-07
1.24095e-07
1.24891e-07
1.25868e-07
1.26791e-07
1.27738e-07
1.28806e-07
1.29777e-07
1.30917e-07
1.31986e-07
1.33137e-07
1.34389e-07
1.35673e-07
1.36977e-07
1.38295e-07
1.39787e-07
1.41233e-07
1.42795e-07
1.44439e-07
1.46074e-07
1.47902e-07
1.49713e-07
1.51682e-07
1.53691e-07
1.5579e-07
1.58003e-07
1.60188e-07
1.62527e-07
1.64853e-07
1.67185e-07
1.69518e-07
1.71907e-07
1.74232e-07
1.76567e-07
1.79017e-07
1.81513e-07
1.84225e-07
1.8712e-07
1.9026e-07
1.9368e-07
1.97256e-07
2.01076e-07
2.0501e-07
2.09122e-07
2.13347e-07
2.17671e-07
2.22272e-07
2.2702e-07
2.32015e-07
2.37148e-07
2.42343e-07
2.47542e-07
2.52472e-07
2.57117e-07
2.61253e-07
2.63592e-07
2.64549e-07
2.67994e-07
2.75154e-07
2.86333e-07
3.03324e-07
3.19208e-07
3.17224e-07
2.98811e-07
3.0507e-07
4.30611e-07
6.58004e-07
4.96183e-07
1.54491e-06
)
;

boundaryField
{
    inlet
    {
        type            calculated;
        value           nonuniform List<scalar> 
23
(
5.81313e-06
5.78412e-06
5.75603e-06
5.72876e-06
5.7017e-06
5.67421e-06
5.64552e-06
5.61501e-06
5.58188e-06
5.54543e-06
5.50468e-06
5.45992e-06
5.40869e-06
5.32876e-06
5.26197e-06
5.1803e-06
5.07864e-06
4.95479e-06
4.80586e-06
4.63085e-06
4.42273e-06
4.2619e-06
3.95945e-06
)
;
    }
    outlet
    {
        type            calculated;
        value           nonuniform List<scalar> 
82
(
9.04024e-08
9.02235e-08
9.22263e-08
9.32568e-08
9.45684e-08
9.48916e-08
9.55396e-08
9.5963e-08
9.67016e-08
9.74912e-08
9.79051e-08
9.86621e-08
9.94291e-08
1.00228e-07
1.01005e-07
1.01742e-07
1.02688e-07
1.03566e-07
1.0446e-07
1.05502e-07
1.06414e-07
1.07513e-07
1.0853e-07
1.09629e-07
1.10838e-07
1.1207e-07
1.13318e-07
1.14561e-07
1.15997e-07
1.17358e-07
1.18829e-07
1.20379e-07
1.21886e-07
1.23595e-07
1.25249e-07
1.27053e-07
1.28871e-07
1.30755e-07
1.32743e-07
1.34657e-07
1.36731e-07
1.38764e-07
1.40785e-07
1.428e-07
1.44881e-07
1.46895e-07
1.48932e-07
1.51119e-07
1.53365e-07
1.55859e-07
1.58539e-07
1.61456e-07
1.64635e-07
1.67918e-07
1.71417e-07
1.75007e-07
1.78799e-07
1.8277e-07
1.86941e-07
1.91538e-07
1.96398e-07
2.01595e-07
2.06964e-07
2.12386e-07
2.17792e-07
2.22863e-07
2.2751e-07
2.31362e-07
2.32889e-07
2.33072e-07
2.36662e-07
2.44973e-07
2.58548e-07
2.79001e-07
2.97513e-07
2.94041e-07
2.66887e-07
2.61677e-07
3.86291e-07
6.33264e-07
4.03523e-07
1.40106e-06
)
;
    }
    walls
    {
        type            calculated;
        value           nonuniform List<scalar> 0();
    }
    frontAndBack
    {
        type            empty;
    }
    procBoundary3to2
    {
        type            processor;
        value           nonuniform List<scalar> 
88
(
7.09898e-07
1.3836e-06
1.61742e-07
6.42062e-07
6.42062e-07
1.65653e-07
2.72258e-07
2.72258e-07
3.21456e-07
2.81352e-07
2.6228e-07
2.6228e-07
4.67458e-07
4.31702e-07
4.02381e-07
3.75257e-07
3.47141e-07
3.47141e-07
6.67909e-07
6.2428e-07
5.8081e-07
5.38493e-07
4.97203e-07
4.97203e-07
9.30439e-07
8.8782e-07
8.456e-07
8.04079e-07
7.63361e-07
7.23296e-07
6.83468e-07
6.83468e-07
1.30623e-06
1.27236e-06
1.23788e-06
1.20291e-06
1.16751e-06
1.13181e-06
1.09589e-06
1.05977e-06
1.02352e-06
9.8703e-07
9.50263e-07
9.13151e-07
9.13151e-07
8.83709e-07
1.33412e-06
1.39915e-06
1.27168e-06
1.31234e-06
1.35354e-06
1.38803e-06
1.41689e-06
1.44252e-06
1.46549e-06
1.48695e-06
1.50554e-06
1.52136e-06
1.5348e-06
1.54539e-06
1.55357e-06
1.55912e-06
1.56216e-06
1.56301e-06
1.56165e-06
1.55828e-06
1.55304e-06
1.546e-06
1.53743e-06
1.5275e-06
1.51613e-06
1.50359e-06
1.48998e-06
1.47533e-06
1.45971e-06
1.44313e-06
1.42578e-06
1.40753e-06
1.38842e-06
1.3686e-06
1.34789e-06
1.32642e-06
1.30415e-06
1.28102e-06
1.25713e-06
1.23242e-06
1.20688e-06
1.20688e-06
)
;
    }
    procBoundary3to6
    {
        type            processor;
        value           uniform 6.31962e-08;
    }
    procBoundary3to7
    {
        type            processor;
        value           nonuniform List<scalar> 
16
(
2.69175e-08
8.23939e-07
8.36831e-07
6.48108e-07
5.6685e-07
4.99444e-07
4.22621e-07
3.51189e-07
3.51189e-07
2.84459e-07
2.29999e-07
1.83242e-07
1.54385e-07
1.26084e-07
1.36095e-07
1.16526e-07
)
;
    }
}


// ************************************************************************* //
