/*--------------------------------*- C++ -*----------------------------------*\
| =========                 |                                                 |
| \\      /  F ield         | OpenFOAM: The Open Source CFD Toolbox           |
|  \\    /   O peration     | Version:  2306                                  |
|   \\  /    A nd           | Website:  www.openfoam.com                      |
|    \\/     M anipulation  |                                                 |
\*---------------------------------------------------------------------------*/
FoamFile
{
    version     2.0;
    format      ascii;
    arch        "LSB;label=32;scalar=64";
    class       volSymmTensorField;
    location    "1000";
    object      turbulenceProperties:devReff;
}
// * * * * * * * * * * * * * * * * * * * * * * * * * * * * * * * * * * * * * //

dimensions      [0 2 -2 0 0 0 0];

internalField   nonuniform List<symmTensor> 
1340
(
(5.37937e-08 7.83548e-08 -1.08995e-19 -1.24337e-07 -1.41107e-20 7.05434e-08)
(-2.12353e-07 9.58357e-08 5.5125e-20 3.08588e-07 6.39378e-21 -9.62347e-08)
(-2.87997e-09 -4.73486e-09 -2.14058e-19 -1.98821e-08 -2.67798e-20 2.2762e-08)
(-1.05849e-07 2.60438e-08 -3.34988e-20 1.49203e-07 -3.78754e-21 -4.33538e-08)
(4.76665e-08 8.19755e-08 1.61181e-20 -1.18998e-07 1.74041e-21 7.13317e-08)
(-2.10974e-07 9.49117e-08 -2.21446e-19 3.08908e-07 -2.50566e-20 -9.79341e-08)
(-4.07101e-08 -3.78711e-09 -0 3.57387e-08 -1.31778e-22 4.97136e-09)
(-5.34763e-08 -1.42763e-08 -7.23723e-20 6.45179e-08 -8.54497e-21 -1.10416e-08)
(-6.37929e-09 -3.73552e-09 2.03428e-19 -1.64374e-08 2.55177e-20 2.28167e-08)
(-1.06187e-07 2.46411e-08 1.02477e-19 1.49982e-07 1.21099e-20 -4.37957e-08)
(4.13803e-08 8.5114e-08 3.44229e-23 -1.13961e-07 2.0267e-22 7.25802e-08)
(-2.08347e-07 9.34515e-08 1.8243e-19 3.08737e-07 2.04866e-20 -1.00391e-07)
(-6.98699e-08 1.85038e-08 -9.23559e-20 7.01167e-08 -1.10934e-20 -2.46733e-10)
(-6.26269e-08 1.35764e-08 1.90981e-21 6.18838e-08 4.69761e-22 7.43082e-10)
(-5.85371e-08 4.2767e-09 1.26071e-20 6.05592e-08 1.50354e-21 -2.02202e-09)
(-4.22643e-08 -6.70958e-09 -0 3.73652e-08 -2.65051e-23 4.89913e-09)
(-5.42717e-08 -1.7431e-08 -3.30462e-22 6.52289e-08 -5.78757e-23 -1.09572e-08)
(-9.89473e-09 -2.85397e-09 1.45745e-21 -1.29206e-08 2.50725e-22 2.28153e-08)
(-1.06485e-07 2.37291e-08 8.56852e-22 1.50706e-07 1.58427e-22 -4.42211e-08)
(3.5618e-08 8.79116e-08 7.54803e-24 -1.09481e-07 6.55836e-24 7.38629e-08)
(-2.05847e-07 9.09633e-08 9.8468e-22 3.08673e-07 1.81241e-22 -1.02826e-07)
(-1.00521e-07 2.4736e-08 6.55341e-21 1.00551e-07 1.03042e-21 -3.03288e-11)
(-9.33474e-08 2.21179e-08 2.78108e-20 9.33802e-08 3.36688e-21 -3.27987e-11)
(-8.74706e-08 2.0159e-08 2.82607e-20 8.74301e-08 2.85832e-21 4.0483e-11)
(-8.18298e-08 1.8768e-08 -9.8339e-20 8.1864e-08 -1.17814e-20 -3.42903e-11)
(-7.60823e-08 1.71263e-08 2.56715e-20 7.60191e-08 3.32419e-21 6.31795e-11)
(-7.06975e-08 1.45072e-08 -3.91729e-20 7.09316e-08 -4.82829e-21 -2.34111e-10)
(-6.36349e-08 9.80075e-09 2.53569e-22 6.29178e-08 3.61293e-22 7.17101e-10)
(-5.94168e-08 4.17437e-10 9.31706e-20 6.13772e-08 1.13277e-20 -1.96037e-09)
(-4.37457e-08 -9.75494e-09 -0 3.89545e-08 -1.89277e-22 4.79126e-09)
(-5.49878e-08 -2.04212e-08 5.3934e-21 6.57903e-08 3.70864e-22 -1.08025e-08)
(-1.33404e-08 -2.04563e-09 -1.85954e-19 -9.38554e-09 -2.3263e-20 2.27259e-08)
(-1.06878e-07 2.31771e-08 -9.35473e-20 1.51413e-07 -1.10696e-20 -4.45345e-08)
(3.05728e-08 9.04955e-08 -6.09911e-21 -1.05588e-07 -6.02338e-22 7.5015e-08)
(-2.03859e-07 8.73934e-08 2.40771e-20 3.08903e-07 2.73424e-21 -1.05044e-07)
(-1.43534e-07 2.30263e-08 5.43496e-20 1.43529e-07 5.65771e-21 5.74058e-12)
(-1.34269e-07 2.32868e-08 -5.01976e-20 1.34265e-07 -6.12777e-21 4.25736e-12)
(-1.25153e-07 2.27078e-08 -1.30757e-20 1.25142e-07 -1.63246e-21 1.09751e-11)
(-1.16344e-07 2.15942e-08 -8.11943e-20 1.16364e-07 -9.45931e-21 -1.98316e-11)
(-1.07805e-07 2.02352e-08 -1.8781e-20 1.07756e-07 -1.81908e-21 4.89688e-11)
(-9.97593e-08 1.86842e-08 1.31665e-20 9.97838e-08 1.64181e-21 -2.44725e-11)
(-9.29567e-08 1.65547e-08 6.71978e-21 9.29816e-08 7.39943e-22 -2.48337e-11)
(-8.73876e-08 1.5064e-08 1.3821e-22 8.73423e-08 6.77894e-23 4.53026e-11)
(-8.20241e-08 1.40977e-08 1.6451e-20 8.20527e-08 1.78599e-21 -2.85638e-11)
(-7.65343e-08 1.28308e-08 -4.50506e-20 7.64723e-08 -5.18292e-21 6.19801e-11)
(-7.13348e-08 1.04823e-08 8.55612e-20 7.15505e-08 1.02943e-20 -2.15639e-10)
(-6.44829e-08 5.94726e-09 -5.55051e-20 6.38008e-08 -7.18576e-21 6.82051e-10)
(-6.01427e-08 -3.4862e-09 -8.79579e-20 6.20192e-08 -1.05065e-20 -1.8765e-09)
(-4.51249e-08 -1.29064e-08 -0 4.04819e-08 1.92738e-22 4.64303e-09)
(-5.56134e-08 -2.32371e-08 -5.1327e-21 6.6193e-08 -3.35827e-22 -1.05796e-08)
(-1.66929e-08 -1.27876e-09 1.7651e-19 -5.8486e-09 2.20202e-20 2.25415e-08)
(-1.07323e-07 2.29256e-08 8.83913e-20 1.52058e-07 1.04046e-20 -4.47355e-08)
(2.60955e-08 9.28603e-08 5.80308e-21 -1.02159e-07 5.7535e-22 7.60635e-08)
(-2.02191e-07 8.28353e-08 -2.2655e-20 3.09347e-07 -2.55381e-21 -1.07155e-07)
(-1.97485e-07 -1.17627e-08 -5.87743e-21 1.97468e-07 -9.88507e-22 1.67249e-11)
(-1.89251e-07 -6.61418e-09 -3.17898e-20 1.89236e-07 -3.85976e-21 1.58018e-11)
(-1.80922e-07 -1.8468e-09 -5.67372e-20 1.80908e-07 -5.88757e-21 1.38816e-11)
(-1.72563e-07 2.61776e-09 2.00725e-20 1.72552e-07 2.58912e-21 1.13845e-11)
(-1.64205e-07 6.72326e-09 -5.17877e-21 1.64194e-07 -5.54497e-22 1.08774e-11)
(-1.55841e-07 1.02588e-08 2.59262e-20 1.55832e-07 3.3685e-21 9.4029e-12)
(-1.47443e-07 1.297e-08 6.69692e-20 1.47434e-07 7.44957e-21 8.51285e-12)
(-1.39003e-07 1.46726e-08 3.69741e-22 1.38996e-07 -1.10707e-22 6.72619e-12)
(-1.3056e-07 1.53793e-08 3.956e-20 1.30554e-07 4.51275e-21 6.159e-12)
(-1.22197e-07 1.52881e-08 -3.62578e-21 1.22185e-07 -5.81166e-22 1.18154e-11)
(-1.14073e-07 1.46971e-08 3.47332e-21 1.14092e-07 5.52964e-22 -1.86491e-11)
(-1.06143e-07 1.386e-08 3.5718e-20 1.06092e-07 4.09046e-21 5.09671e-11)
(-9.86243e-08 1.27783e-08 -1.23872e-20 9.86487e-08 -1.61429e-21 -2.43278e-11)
(-9.22358e-08 1.11066e-08 -6.22964e-21 9.22575e-08 -6.8044e-22 -2.17095e-11)
(-8.70083e-08 1.00582e-08 2.06699e-22 8.69628e-08 7.07659e-23 4.5511e-11)
(-8.19552e-08 9.48823e-09 -1.23355e-22 8.19815e-08 -1.00264e-23 -2.62802e-11)
(-7.67572e-08 8.56525e-09 -3.61227e-22 7.67011e-08 -2.12688e-22 5.60886e-11)
(-7.17657e-08 6.45588e-09 -4.66522e-20 7.19622e-08 -5.44008e-21 -1.96496e-10)
(-6.51533e-08 2.03733e-09 5.27883e-20 6.45176e-08 6.50102e-21 6.35691e-10)
(-6.07013e-08 -7.41789e-09 -3.5197e-22 6.24759e-08 -2.00818e-22 -1.77463e-09)
(-4.63855e-08 -1.61446e-08 -0 4.19312e-08 1.18697e-23 4.45432e-09)
(-5.61464e-08 -2.58642e-08 4.87305e-21 6.64383e-08 2.98011e-22 -1.02919e-08)
(-1.99575e-08 -5.36462e-10 -1.79913e-19 -2.30006e-09 -2.22419e-20 2.22575e-08)
(-1.078e-07 2.29477e-08 2.96237e-22 1.52635e-07 3.10482e-22 -4.48349e-08)
(2.20808e-08 9.49807e-08 -1.65046e-20 -9.91106e-08 -2.13023e-21 7.70298e-08)
(-2.00707e-07 7.73229e-08 -1.23906e-22 3.09875e-07 -9.04601e-24 -1.09168e-07)
(-2.38474e-07 -1.19131e-07 5.6407e-21 2.38457e-07 5.44176e-23 1.66344e-11)
(-2.36185e-07 -1.09824e-07 -3.55216e-20 2.36169e-07 -3.72103e-21 1.601e-11)
(-2.33484e-07 -1.00513e-07 -7.10757e-22 2.33464e-07 7.93644e-22 2.03837e-11)
(-2.30382e-07 -9.12109e-08 3.22539e-20 2.30359e-07 2.91545e-21 2.27046e-11)
(-2.26881e-07 -8.19753e-08 -3.44358e-20 2.2686e-07 -3.90456e-21 2.07198e-11)
(-2.22975e-07 -7.2872e-08 6.28457e-21 2.22954e-07 1.10239e-21 2.11217e-11)
(-2.18668e-07 -6.39791e-08 2.43392e-21 2.18647e-07 1.22155e-22 2.08808e-11)
(-2.13952e-07 -5.54187e-08 -5.83991e-21 2.13931e-07 -2.27071e-22 2.09848e-11)
(-2.08825e-07 -4.73131e-08 4.08002e-20 2.08806e-07 4.9695e-21 1.86423e-11)
(-2.03283e-07 -3.97773e-08 5.7358e-20 2.03265e-07 5.78546e-21 1.78426e-11)
(-1.97339e-07 -3.28932e-08 4.2668e-21 1.97322e-07 6.2146e-23 1.64288e-11)
(-1.91023e-07 -2.66617e-08 1.508e-20 1.91007e-07 1.45821e-21 1.60051e-11)
(-1.84395e-07 -2.10063e-08 -1.6261e-20 1.84382e-07 -1.8975e-21 1.34577e-11)
(-1.77528e-07 -1.57889e-08 -1.80415e-22 1.77515e-07 7.56251e-22 1.26041e-11)
(-1.70504e-07 -1.08646e-08 8.55393e-20 1.70492e-07 9.41642e-21 1.15408e-11)
(-1.63382e-07 -6.18242e-09 1.17321e-22 1.63372e-07 -9.29244e-22 9.50077e-12)
(-1.56182e-07 -1.83357e-09 -4.86891e-20 1.56173e-07 -5.51507e-21 9.07089e-12)
(-1.48894e-07 1.95748e-09 -9.94762e-21 1.48886e-07 -1.07801e-21 7.81795e-12)
(-1.41488e-07 4.93252e-09 -4.57594e-20 1.41482e-07 -5.17026e-21 6.91615e-12)
(-1.33965e-07 6.93147e-09 -1.07599e-20 1.3396e-07 -9.66837e-22 5.25038e-12)
(-1.26369e-07 7.97844e-09 3.66899e-22 1.26364e-07 -1.38437e-22 5.11683e-12)
(-1.18789e-07 8.28533e-09 -5.6412e-20 1.18778e-07 -6.49706e-21 1.04265e-11)
(-1.11382e-07 8.13686e-09 -3.71466e-21 1.11402e-07 -2.30794e-22 -1.95554e-11)
(-1.04096e-07 7.74749e-09 -1.37225e-20 1.04045e-07 -1.58707e-21 5.05716e-11)
(-9.7141e-08 7.07487e-09 -1.02843e-22 9.71672e-08 6.1723e-23 -2.61212e-11)
(-9.12024e-08 5.82472e-09 5.93137e-21 9.12224e-08 4.77487e-22 -1.99617e-11)
(-8.63457e-08 5.18794e-09 -4.81111e-20 8.63017e-08 -5.53996e-21 4.40479e-11)
(-8.16314e-08 4.97922e-09 4.37368e-20 8.16565e-08 5.53719e-21 -2.50937e-11)
(-7.67543e-08 4.36334e-09 4.02292e-20 7.6706e-08 4.88405e-21 4.82745e-11)
(-7.19907e-08 2.45273e-09 7.31885e-20 7.21664e-08 8.4087e-21 -1.75702e-10)
(-6.56413e-08 -1.90938e-09 -8.51284e-20 6.50602e-08 -1.04683e-20 5.81136e-10)
(-6.10891e-08 -1.13625e-08 -1.45523e-22 6.27447e-08 1.90892e-22 -1.65553e-09)
(-4.75191e-08 -1.94493e-08 -0 4.32911e-08 -7.1407e-24 4.22803e-09)
(-5.65873e-08 -2.82863e-08 -4.59676e-21 6.6525e-08 -4.70005e-22 -9.93764e-09)
(-2.31306e-08 2.03383e-10 4.59484e-20 1.25763e-09 5.666e-21 2.1873e-08)
(-1.08316e-07 2.3207e-08 1.97308e-20 1.5313e-07 2.31441e-21 -4.48141e-08)
(1.84888e-08 9.68618e-08 -1.93441e-20 -9.63503e-08 -2.52921e-21 7.78615e-08)
(-1.9952e-07 7.08363e-08 4.97996e-24 3.10552e-07 1.71594e-23 -1.11032e-07)
(-1.99288e-07 -1.4515e-07 3.9067e-21 2.35188e-07 5.17111e-22 -3.59e-08)
(-1.77188e-07 -1.93729e-07 4.16005e-21 1.75275e-07 2.62867e-22 1.91346e-09)
(-1.57432e-07 -1.80837e-07 -2.21595e-22 1.43105e-07 -1.03734e-22 1.43273e-08)
(-1.6594e-07 -1.81803e-07 8.90966e-22 1.69325e-07 1.22036e-22 -3.38527e-09)
(-1.59997e-07 -1.8953e-07 1.12544e-21 1.5871e-07 9.73989e-23 1.28661e-09)
(-1.62687e-07 -2.00019e-07 5.02547e-22 1.63189e-07 1.97969e-23 -5.01288e-10)
(-1.62063e-07 -2.08264e-07 2.64398e-22 1.6194e-07 -8.87481e-23 1.23006e-10)
(-1.62193e-07 -2.15558e-07 -3.95745e-21 1.62332e-07 -4.17812e-22 -1.38517e-10)
(-1.6205e-07 -2.22184e-07 -1.55858e-21 1.62047e-07 4.21479e-23 2.97807e-12)
(-1.62276e-07 -2.28052e-07 3.52438e-21 1.6234e-07 3.74004e-22 -6.36527e-11)
(-1.62613e-07 -2.3333e-07 -0 1.62652e-07 -9.93785e-23 -3.85072e-11)
(-1.63196e-07 -2.3788e-07 -1.8728e-22 1.63277e-07 1.63684e-22 -8.03903e-11)
(-1.63877e-07 -2.41743e-07 7.12564e-21 1.63924e-07 6.97759e-22 -4.73814e-11)
(-1.64732e-07 -2.44872e-07 2.1389e-22 1.64747e-07 3.108e-23 -1.56323e-11)
(-1.65855e-07 -2.47307e-07 7.31178e-21 1.65936e-07 7.10827e-22 -8.10079e-11)
(-1.67047e-07 -2.49075e-07 4.43982e-22 1.67098e-07 -8.94576e-23 -5.11326e-11)
(-1.68428e-07 -2.50141e-07 1.4306e-21 1.6848e-07 2.3966e-22 -5.22832e-11)
(-1.6995e-07 -2.50565e-07 5.2714e-21 1.69994e-07 5.24648e-22 -4.38693e-11)
(-1.71625e-07 -2.50347e-07 2.54793e-21 1.71675e-07 2.83521e-22 -4.96024e-11)
(-1.73428e-07 -2.4954e-07 6.83568e-21 1.73481e-07 4.64738e-22 -5.28606e-11)
(-1.75346e-07 -2.48149e-07 -6.05075e-21 1.75401e-07 -9.18787e-22 -5.54654e-11)
(-1.77347e-07 -2.46226e-07 -8.69766e-21 1.77385e-07 -6.41481e-22 -3.7948e-11)
(-1.79462e-07 -2.43774e-07 2.90943e-21 1.79509e-07 4.18009e-22 -4.73056e-11)
(-1.8164e-07 -2.40856e-07 -2.08094e-21 1.81688e-07 -3.88754e-22 -4.79438e-11)
(-1.83871e-07 -2.37488e-07 -5.93561e-21 1.83918e-07 -6.48076e-22 -4.7179e-11)
(-1.86131e-07 -2.33702e-07 -5.06328e-21 1.86169e-07 -1.70598e-22 -3.86408e-11)
(-1.88422e-07 -2.29516e-07 1.00812e-20 1.88466e-07 1.01407e-21 -4.38488e-11)
(-1.90705e-07 -2.24986e-07 -3.40478e-21 1.90749e-07 -4.98143e-22 -4.4494e-11)
(-1.9296e-07 -2.20104e-07 1.2735e-21 1.93e-07 1.03892e-22 -3.98624e-11)
(-1.95182e-07 -2.14909e-07 -4.41369e-21 1.95226e-07 -3.23375e-22 -4.39603e-11)
(-1.97335e-07 -2.09411e-07 6.97942e-21 1.97379e-07 8.4098e-22 -4.39615e-11)
(-1.99402e-07 -2.03633e-07 4.26577e-21 1.99447e-07 3.80577e-22 -4.45034e-11)
(-2.01358e-07 -1.97601e-07 5.01061e-21 2.01403e-07 6.34885e-22 -4.45552e-11)
(-2.03183e-07 -1.9131e-07 1.23053e-20 2.03229e-07 9.78025e-22 -4.53815e-11)
(-2.0485e-07 -1.84801e-07 -9.38785e-21 2.04894e-07 -1.22747e-21 -4.36763e-11)
(-2.06342e-07 -1.78069e-07 -5.1927e-21 2.06388e-07 -3.65818e-22 -4.59206e-11)
(-2.07623e-07 -1.71139e-07 4.39471e-22 2.07662e-07 3.45485e-23 -3.91909e-11)
(-2.08688e-07 -1.64021e-07 -6.02471e-21 2.08731e-07 -6.44665e-22 -4.30754e-11)
(-2.09492e-07 -1.56732e-07 -2.39746e-21 2.09526e-07 -3.0418e-22 -3.35662e-11)
(-2.10031e-07 -1.49272e-07 -9.55328e-21 2.10058e-07 -8.7547e-22 -2.69718e-11)
(-2.10286e-07 -1.41667e-07 3.3086e-21 2.10311e-07 5.43275e-22 -2.58001e-11)
(-2.10231e-07 -1.33913e-07 4.21081e-21 2.10251e-07 2.35525e-22 -2.0584e-11)
(-2.09852e-07 -1.26034e-07 -1.07207e-20 2.09865e-07 -1.04343e-21 -1.36912e-11)
(-2.09138e-07 -1.18021e-07 8.48941e-21 2.09143e-07 1.03307e-21 -5.68608e-12)
(-2.08085e-07 -1.09899e-07 -2.81383e-22 2.08089e-07 -1.71687e-22 -4.45007e-12)
(-2.06674e-07 -1.01681e-07 -8.21553e-27 2.06673e-07 -4.27495e-23 5.59596e-13)
(-2.049e-07 -9.33957e-08 1.7281e-22 2.04895e-07 1.53752e-22 5.60029e-12)
(-2.02762e-07 -8.50914e-08 8.56535e-21 2.02756e-07 5.64589e-22 5.46482e-12)
(-2.00239e-07 -7.68317e-08 -2.96117e-20 2.00231e-07 -3.21458e-21 8.6182e-12)
(-1.97324e-07 -6.87094e-08 1.22172e-23 1.97313e-07 3.0571e-22 1.15776e-11)
(-1.94006e-07 -6.08381e-08 7.23302e-23 1.93996e-07 -1.09775e-22 1.04429e-11)
(-1.90266e-07 -5.33487e-08 -1.13228e-20 1.90255e-07 -1.19988e-21 1.0858e-11)
(-1.86098e-07 -4.63397e-08 4.26399e-22 1.86086e-07 1.85404e-22 1.18175e-11)
(-1.8151e-07 -3.98877e-08 -1.33334e-21 1.81499e-07 -1.2479e-22 1.03755e-11)
(-1.76527e-07 -3.39824e-08 4.37946e-23 1.76516e-07 -2.48165e-23 1.09916e-11)
(-1.71205e-07 -2.85374e-08 -6.31253e-21 1.71196e-07 -6.87357e-22 9.47482e-12)
(-1.65613e-07 -2.34157e-08 5.33993e-23 1.65604e-07 -2.29461e-22 9.20604e-12)
(-1.59822e-07 -1.84963e-08 -3.65293e-20 1.59814e-07 -4.00557e-21 8.69108e-12)
(-1.53881e-07 -1.37564e-08 9.17675e-24 1.53873e-07 5.44819e-22 7.44068e-12)
(-1.47798e-07 -9.31681e-09 4.09531e-20 1.47791e-07 4.55731e-21 7.16961e-12)
(-1.41558e-07 -5.41559e-09 -4.70075e-23 1.41551e-07 -1.6381e-23 6.10375e-12)
(-1.3513e-07 -2.30728e-09 4.37269e-20 1.35124e-07 4.91643e-21 5.62802e-12)
(-1.28519e-07 -1.32667e-10 -2.66436e-21 1.28515e-07 -7.38719e-22 4.33014e-12)
(-1.21775e-07 1.15172e-09 -3.63442e-20 1.21771e-07 -4.12777e-21 4.37636e-12)
(-1.14992e-07 1.76413e-09 -5.21057e-22 1.14983e-07 1.02756e-22 9.10613e-12)
(-1.08322e-07 1.97436e-09 -4.23638e-23 1.08342e-07 3.73557e-23 -1.95311e-11)
(-1.01701e-07 1.95294e-09 1.32717e-20 1.01651e-07 1.57917e-21 5.03449e-11)
(-9.53397e-08 1.62746e-09 1.1361e-20 9.5367e-08 1.2706e-21 -2.72295e-11)
(-8.98803e-08 7.56938e-10 1.10196e-22 8.9898e-08 -2.36082e-23 -1.77109e-11)
(-8.54175e-08 4.97356e-10 -3.34158e-22 8.53744e-08 -5.14183e-23 4.31404e-11)
(-8.10659e-08 6.1013e-10 2.18218e-22 8.10892e-08 -1.06884e-22 -2.32779e-11)
(-7.65329e-08 2.569e-10 -3.81608e-20 7.64924e-08 -4.73367e-21 4.05293e-11)
(-7.2013e-08 -1.5037e-09 -5.90188e-20 7.21652e-08 -6.69532e-21 -1.52283e-10)
(-6.59456e-08 -5.87393e-09 8.40401e-20 6.54247e-08 1.03463e-20 5.20884e-10)
(-6.13071e-08 -1.53059e-08 4.04705e-20 6.28279e-08 4.66124e-21 -1.52079e-09)
(-4.85257e-08 -2.27964e-08 -0 4.45572e-08 -1.1643e-22 3.96852e-09)
(-5.69445e-08 -3.04896e-08 -1.33599e-20 6.64615e-08 -1.42199e-21 -9.51697e-09)
(-2.621e-08 9.80315e-10 1.19113e-19 4.8287e-09 1.45693e-20 2.13813e-08)
(-1.08884e-07 2.36448e-08 -9.16345e-20 1.53508e-07 -1.1272e-20 -4.46242e-08)
(1.53365e-08 9.85725e-08 4.82951e-21 -9.38466e-08 7.73504e-22 7.85102e-08)
(-1.98727e-07 6.3379e-08 4.87899e-24 3.11402e-07 -4.3391e-24 -1.12675e-07)
(-1.83605e-07 -1.60626e-07 -3.01825e-22 2.1718e-07 -1.9925e-23 -3.35747e-08)
(-1.35603e-07 -1.6388e-07 4.85849e-22 1.33727e-07 4.48549e-23 1.8756e-09)
(-1.22276e-07 -1.56939e-07 -5.6021e-22 1.11329e-07 -6.863e-23 1.09464e-08)
(-1.3488e-07 -1.66105e-07 -2.04935e-22 1.37492e-07 -7.41342e-24 -2.61252e-09)
(-1.31809e-07 -1.74197e-07 1.55195e-24 1.308e-07 6.41664e-24 1.00945e-09)
(-1.33138e-07 -1.81285e-07 4.45422e-25 1.33518e-07 -9.36072e-23 -3.80102e-10)
(-1.32406e-07 -1.8736e-07 -4.00063e-21 1.32287e-07 -3.45204e-22 1.19661e-10)
(-1.32537e-07 -1.93022e-07 1.61518e-21 1.32615e-07 2.49848e-22 -7.81437e-11)
(-1.32545e-07 -1.98188e-07 1.55447e-22 1.32552e-07 -8.52831e-23 -7.3056e-12)
(-1.32803e-07 -2.02842e-07 -2.56008e-21 1.32835e-07 -2.51762e-22 -3.22625e-11)
(-1.33181e-07 -2.06979e-07 -0 1.33204e-07 -5.42998e-23 -2.33068e-11)
(-1.33721e-07 -2.10556e-07 -4.87592e-21 1.33752e-07 -5.23617e-22 -3.15281e-11)
(-1.34395e-07 -2.13588e-07 -1.98366e-21 1.34421e-07 -8.12742e-23 -2.579e-11)
(-1.35212e-07 -2.1607e-07 4.11662e-25 1.35226e-07 -6.2761e-23 -1.45107e-11)
(-1.36222e-07 -2.18007e-07 -4.99203e-21 1.36274e-07 -3.8368e-22 -5.17838e-11)
(-1.37311e-07 -2.19412e-07 4.54675e-21 1.37335e-07 6.51643e-22 -2.39846e-11)
(-1.3856e-07 -2.20279e-07 4.90062e-21 1.38579e-07 3.04026e-22 -1.93338e-11)
(-1.39969e-07 -2.20639e-07 -3.72684e-21 1.4001e-07 -5.21293e-22 -4.09121e-11)
(-1.4147e-07 -2.20521e-07 -3.02871e-21 1.41499e-07 -2.55849e-22 -2.91999e-11)
(-1.43103e-07 -2.19918e-07 -1.52509e-21 1.43133e-07 -9.43652e-23 -3.07443e-11)
(-1.44847e-07 -2.18874e-07 -8.50378e-22 1.44881e-07 9.88319e-23 -3.44044e-11)
(-1.46687e-07 -2.17401e-07 7.56533e-21 1.46721e-07 7.48252e-22 -3.40874e-11)
(-1.48607e-07 -2.15537e-07 5.2172e-24 1.48633e-07 -7.90619e-23 -2.53879e-11)
(-1.50625e-07 -2.13285e-07 3.28241e-21 1.50661e-07 3.96378e-22 -3.59046e-11)
(-1.52688e-07 -2.10691e-07 3.80973e-21 1.52716e-07 3.15119e-22 -2.74393e-11)
(-1.54812e-07 -2.07757e-07 4.84538e-22 1.54839e-07 -9.0931e-23 -2.72517e-11)
(-1.56977e-07 -2.04527e-07 -3.05522e-21 1.57008e-07 -3.27396e-22 -3.07827e-11)
(-1.59156e-07 -2.00999e-07 -1.63051e-21 1.59182e-07 -1.05505e-22 -2.54552e-11)
(-1.61346e-07 -1.97198e-07 4.12903e-24 1.61368e-07 4.37293e-23 -2.18e-11)
(-1.63533e-07 -1.93137e-07 8.90266e-22 1.63556e-07 8.00984e-23 -2.28225e-11)
(-1.65693e-07 -1.88827e-07 2.33516e-23 1.65712e-07 8.36276e-23 -1.95596e-11)
(-1.67814e-07 -1.84284e-07 6.11177e-21 1.67834e-07 6.15183e-22 -1.99267e-11)
(-1.69867e-07 -1.79521e-07 1.02641e-23 1.6988e-07 -9.42941e-23 -1.26689e-11)
(-1.71852e-07 -1.74535e-07 4.48375e-23 1.71867e-07 1.92691e-22 -1.49425e-11)
(-1.73735e-07 -1.69351e-07 1.05317e-20 1.73748e-07 1.10594e-21 -1.28336e-11)
(-1.75499e-07 -1.63961e-07 3.20566e-21 1.75509e-07 6.98043e-23 -9.76227e-12)
(-1.77126e-07 -1.58384e-07 -5.85589e-21 1.77134e-07 -5.79986e-22 -8.18959e-12)
(-1.78598e-07 -1.52619e-07 3.79152e-21 1.78607e-07 4.61406e-22 -9.56283e-12)
(-1.79889e-07 -1.4667e-07 -1.12507e-23 1.79897e-07 -1.21432e-22 -8.36796e-12)
(-1.80978e-07 -1.40549e-07 -4.51027e-21 1.80981e-07 -5.19902e-22 -3.70804e-12)
(-1.81855e-07 -1.34247e-07 -3.99675e-21 1.81858e-07 -3.02961e-22 -3.27329e-12)
(-1.82499e-07 -1.27774e-07 3.60399e-21 1.82505e-07 5.0463e-22 -5.72075e-12)
(-1.82884e-07 -1.21133e-07 5.78833e-21 1.82884e-07 5.71081e-22 -4.42784e-13)
(-1.83005e-07 -1.14311e-07 3.08215e-21 1.83002e-07 5.57798e-22 2.37363e-12)
(-1.82849e-07 -1.07339e-07 2.46056e-20 1.82847e-07 2.50693e-21 1.40168e-12)
(-1.82393e-07 -1.00207e-07 2.81566e-24 1.82387e-07 -3.0941e-22 5.80326e-12)
(-1.81631e-07 -9.29563e-08 1.75718e-23 1.81623e-07 -7.03912e-23 7.24842e-12)
(-1.80545e-07 -8.56267e-08 -8.47459e-21 1.80537e-07 -6.67444e-22 8.50579e-12)
(-1.79116e-07 -7.82821e-08 1.85611e-20 1.79105e-07 2.01962e-21 1.10054e-11)
(-1.77325e-07 -7.10211e-08 3.14215e-22 1.77312e-07 -3.83742e-22 1.29811e-11)
(-1.75152e-07 -6.39509e-08 -2.25363e-20 1.7514e-07 -2.40033e-21 1.24194e-11)
(-1.72571e-07 -5.71924e-08 8.33277e-23 1.72558e-07 -3.41911e-23 1.35585e-11)
(-1.69571e-07 -5.08426e-08 -2.61147e-20 1.69556e-07 -2.78304e-21 1.51547e-11)
(-1.66156e-07 -4.4957e-08 1.2834e-21 1.66143e-07 4.39531e-22 1.34249e-11)
(-1.62347e-07 -3.95111e-08 8.529e-21 1.62333e-07 8.88445e-22 1.40883e-11)
(-1.58196e-07 -3.44096e-08 -5.01586e-21 1.58183e-07 -7.1814e-22 1.29801e-11)
(-1.53761e-07 -2.95221e-08 -1.44636e-20 1.53747e-07 -1.56098e-21 1.34163e-11)
(-1.49105e-07 -2.47446e-08 -3.20112e-22 1.49093e-07 3.45847e-23 1.22702e-11)
(-1.44262e-07 -2.0087e-08 8.57774e-24 1.44251e-07 -5.97715e-24 1.05854e-11)
(-1.3923e-07 -1.56952e-08 3.32715e-22 1.39219e-07 6.14851e-23 1.07622e-11)
(-1.33984e-07 -1.18173e-08 -3.16856e-23 1.33975e-07 -2.44492e-22 9.54214e-12)
(-1.28497e-07 -8.70011e-09 -4.15147e-20 1.28488e-07 -4.59939e-21 8.66404e-12)
(-1.22775e-07 -6.46346e-09 1.47773e-20 1.22768e-07 2.08946e-21 6.95414e-12)
(-1.16871e-07 -5.04116e-09 3.45143e-20 1.16864e-07 4.12871e-21 7.28678e-12)
(-1.10883e-07 -4.21575e-09 5.13542e-20 1.10872e-07 5.75095e-21 1.09974e-11)
(-1.04955e-07 -3.73155e-09 -1.16991e-22 1.04972e-07 -3.86225e-22 -1.72111e-11)
(-9.90095e-08 -3.46599e-09 -3.08736e-20 9.89573e-08 -3.63416e-21 5.21491e-11)
(-9.32586e-08 -3.50936e-09 -1.07676e-20 9.32853e-08 -1.20988e-21 -2.6656e-11)
(-8.82989e-08 -4.04547e-09 -1.99263e-20 8.83129e-08 -2.13605e-21 -1.40221e-11)
(-8.42466e-08 -3.96596e-09 3.10894e-20 8.42028e-08 3.72402e-21 4.37901e-11)
(-8.02761e-08 -3.57635e-09 -9.68158e-21 8.02965e-08 -1.14483e-21 -2.04583e-11)
(-7.61041e-08 -3.72046e-09 3.72501e-20 7.6071e-08 4.79474e-21 3.31274e-11)
(-7.18404e-08 -5.38621e-09 1.01951e-19 7.19678e-08 1.21855e-20 -1.27399e-10)
(-6.60666e-08 -9.83526e-09 4.64687e-20 6.56097e-08 5.28965e-21 4.56899e-10)
(-6.13582e-08 -1.92294e-08 1.64645e-22 6.27316e-08 -9.17431e-23 -1.3734e-09)
(-4.94056e-08 -2.61524e-08 -0 4.57311e-08 3.31394e-23 3.67442e-09)
(-5.72327e-08 -3.24649e-08 1.26428e-20 6.6256e-08 1.53445e-21 -9.02337e-09)
(-2.91965e-08 1.8513e-09 4.08875e-22 8.45274e-09 1.92854e-22 2.07438e-08)
(-1.09624e-07 2.41696e-08 8.69499e-20 1.53861e-07 1.05605e-20 -4.42371e-08)
(1.27268e-08 1.00211e-07 4.94238e-20 -9.15777e-08 6.25438e-21 7.88509e-08)
(-1.98633e-07 5.49239e-08 4.85304e-24 3.12571e-07 -4.41472e-23 -1.13939e-07)
(-1.37176e-07 -1.32993e-07 1.24166e-21 1.62731e-07 1.45263e-22 -2.55546e-08)
(-1.07723e-07 -1.45992e-07 1.32076e-21 1.05928e-07 1.08459e-22 1.79577e-09)
(-1.00418e-07 -1.45101e-07 -6.86679e-23 9.15832e-08 -5.31452e-23 8.83471e-09)
(-1.11535e-07 -1.53474e-07 -1.03015e-21 1.13662e-07 -9.94337e-23 -2.12781e-09)
(-1.08547e-07 -1.58737e-07 1.22155e-22 1.07774e-07 4.189e-23 7.72602e-10)
(-1.09413e-07 -1.63768e-07 4.12229e-22 1.09745e-07 4.43519e-23 -3.32271e-10)
(-1.08966e-07 -1.68411e-07 -5.32209e-24 1.08942e-07 -1.10819e-23 2.43912e-11)
(-1.09112e-07 -1.72759e-07 1.51144e-24 1.0919e-07 -2.94685e-24 -7.78973e-11)
(-1.09274e-07 -1.76689e-07 -5.42577e-25 1.09352e-07 7.34179e-25 -7.79043e-11)
(-1.09551e-07 -1.80264e-07 -5.26189e-24 1.09624e-07 -3.36497e-24 -7.24967e-11)
(-1.09919e-07 -1.83396e-07 -0 1.09955e-07 2.55691e-24 -3.63769e-11)
(-1.10489e-07 -1.86113e-07 -8.38603e-24 1.10571e-07 -8.27136e-24 -8.19393e-11)
(-1.11128e-07 -1.88424e-07 5.30555e-25 1.11199e-07 -1.69821e-24 -7.14203e-11)
(-1.11898e-07 -1.90301e-07 1.42274e-24 1.11968e-07 2.9159e-23 -6.99072e-11)
(-1.12792e-07 -1.91768e-07 1.16075e-21 1.12861e-07 8.95556e-23 -6.92181e-11)
(-1.13815e-07 -1.92809e-07 -9.67008e-22 1.13892e-07 -1.22099e-22 -7.69189e-11)
(-1.14918e-07 -1.93467e-07 9.49515e-24 1.14966e-07 2.99693e-23 -4.79329e-11)
(-1.1621e-07 -1.93705e-07 -1.02569e-23 1.16303e-07 5.88748e-24 -9.27469e-11)
(-1.17545e-07 -1.93604e-07 -9.26617e-24 1.17617e-07 1.6485e-23 -7.19859e-11)
(-1.18997e-07 -1.93108e-07 1.46757e-21 1.1906e-07 1.65874e-22 -6.2743e-11)
(-1.2056e-07 -1.92285e-07 7.92078e-22 1.20627e-07 4.61596e-23 -6.69124e-11)
(-1.22224e-07 -1.91124e-07 2.49765e-23 1.22303e-07 -9.14678e-24 -7.95627e-11)
(-1.23955e-07 -1.8967e-07 -8.35842e-25 1.24031e-07 3.44884e-24 -7.61776e-11)
(-1.25748e-07 -1.87915e-07 9.38528e-24 1.25808e-07 2.28299e-24 -5.94835e-11)
(-1.27639e-07 -1.85883e-07 6.89538e-24 1.27712e-07 -7.5096e-23 -7.28013e-11)
(-1.29572e-07 -1.83611e-07 -4.66975e-21 1.29644e-07 -4.62198e-22 -7.16729e-11)
(-1.31552e-07 -1.81086e-07 5.89227e-22 1.31621e-07 1.38467e-22 -6.89002e-11)
(-1.33567e-07 -1.78337e-07 -6.41108e-24 1.33632e-07 -1.29467e-23 -6.498e-11)
(-1.35614e-07 -1.75369e-07 -6.22091e-23 1.35679e-07 -2.18847e-23 -6.5088e-11)
(-1.37674e-07 -1.72194e-07 -8.61096e-22 1.37738e-07 -9.1407e-23 -6.41716e-11)
(-1.39735e-07 -1.68822e-07 3.00086e-24 1.39797e-07 1.86205e-24 -6.19628e-11)
(-1.41789e-07 -1.6526e-07 2.30726e-23 1.41851e-07 6.25183e-23 -6.28779e-11)
(-1.43808e-07 -1.61517e-07 3.39425e-21 1.43862e-07 3.49647e-22 -5.47285e-11)
(-1.45796e-07 -1.57589e-07 5.51971e-24 1.45849e-07 -3.74269e-23 -5.35918e-11)
(-1.4773e-07 -1.53488e-07 3.06463e-23 1.47784e-07 -2.81477e-23 -5.43842e-11)
(-1.49588e-07 -1.49217e-07 -3.05904e-21 1.49637e-07 -2.2695e-22 -4.92092e-11)
(-1.5136e-07 -1.44772e-07 5.56005e-21 1.51405e-07 5.55842e-22 -4.54795e-11)
(-1.53028e-07 -1.40155e-07 -3.62846e-21 1.53071e-07 -4.46047e-22 -4.29248e-11)
(-1.54578e-07 -1.35364e-07 -2.2364e-24 1.5462e-07 9.93293e-23 -4.23315e-11)
(-1.55983e-07 -1.30399e-07 4.25914e-21 1.56018e-07 4.81149e-22 -3.57586e-11)
(-1.57237e-07 -1.25251e-07 3.78791e-21 1.57272e-07 3.28597e-22 -3.45109e-11)
(-1.5832e-07 -1.19923e-07 2.33538e-23 1.58354e-07 -3.69695e-23 -3.37566e-11)
(-1.59209e-07 -1.14398e-07 1.71805e-23 1.59236e-07 -3.75208e-23 -2.70798e-11)
(-1.59903e-07 -1.08681e-07 -2.82934e-21 1.59931e-07 -4.27291e-22 -2.8417e-11)
(-1.60373e-07 -1.02778e-07 -1.24999e-20 1.60399e-07 -1.25924e-21 -2.57802e-11)
(-1.60605e-07 -9.66839e-08 2.47638e-24 1.60626e-07 1.1928e-22 -2.02059e-11)
(-1.6059e-07 -9.04398e-08 1.5514e-23 1.6061e-07 2.62172e-23 -2.03612e-11)
(-1.603e-07 -8.40766e-08 -7.29472e-23 1.60318e-07 -5.25371e-23 -1.79996e-11)
(-1.59712e-07 -7.76681e-08 -4.70226e-21 1.59728e-07 -5.10748e-22 -1.53503e-11)
(-1.58804e-07 -7.13013e-08 -2.95489e-22 1.58818e-07 2.40194e-23 -1.38908e-11)
(-1.57545e-07 -6.50867e-08 -1.736e-22 1.57556e-07 5.23821e-23 -1.1326e-11)
(-1.55908e-07 -5.91281e-08 1.03513e-20 1.55918e-07 1.07041e-21 -9.40472e-12)
(-1.53879e-07 -5.35174e-08 -3.95606e-21 1.53887e-07 -5.16764e-22 -8.03844e-12)
(-1.51456e-07 -4.82873e-08 -1.46958e-23 1.51463e-07 -4.1321e-23 -7.38889e-12)
(-1.48657e-07 -4.33902e-08 -8.06262e-21 1.48662e-07 -7.85063e-22 -4.57712e-12)
(-1.45531e-07 -3.87327e-08 1.0295e-20 1.45535e-07 1.29098e-21 -4.53257e-12)
(-1.42128e-07 -3.4184e-08 1.36235e-20 1.42131e-07 1.65485e-21 -3.25418e-12)
(-1.38494e-07 -2.96604e-08 3.70728e-20 1.38496e-07 3.99719e-21 -2.0996e-12)
(-1.34654e-07 -2.52035e-08 -1.02798e-22 1.34656e-07 -4.59468e-22 -2.03072e-12)
(-1.30592e-07 -2.09813e-08 -3.30692e-20 1.30593e-07 -3.6485e-21 -7.65847e-13)
(-1.26277e-07 -1.72452e-08 8.77631e-21 1.26277e-07 1.1854e-21 -8.02645e-13)
(-1.21679e-07 -1.42324e-08 -3.46253e-22 1.21679e-07 -2.13476e-22 -5.80267e-13)
(-1.16808e-07 -1.2039e-08 -1.85526e-20 1.16807e-07 -2.33795e-21 4.01805e-13)
(-1.11723e-07 -1.05687e-08 -4.77608e-20 1.11722e-07 -5.53186e-21 5.634e-13)
(-1.06516e-07 -9.62347e-09 -4.39647e-20 1.06512e-07 -4.71643e-21 4.61091e-12)
(-1.01323e-07 -8.94344e-09 2.42346e-20 1.01342e-07 2.97965e-21 -1.96783e-11)
(-9.60549e-08 -8.47516e-09 -1.9705e-21 9.60065e-08 -3.02287e-22 4.84454e-11)
(-9.09277e-08 -8.29955e-09 1.02393e-20 9.09583e-08 1.17953e-21 -3.06551e-11)
(-8.64815e-08 -8.54477e-09 -2.87235e-21 8.64946e-08 -3.75834e-22 -1.31734e-11)
(-8.28506e-08 -8.16964e-09 1.15366e-22 8.28075e-08 3.34168e-23 4.31007e-11)
(-7.92779e-08 -7.55346e-09 2.39427e-23 7.92983e-08 -1.48392e-22 -2.03898e-11)
(-7.54792e-08 -7.54544e-09 -4.23621e-20 7.54541e-08 -5.17097e-21 2.50936e-11)
(-7.14801e-08 -9.17877e-09 -4.01514e-20 7.15828e-08 -4.65325e-21 -1.0276e-10)
(-6.60106e-08 -1.37782e-08 2.19784e-22 6.56207e-08 1.469e-22 3.89961e-10)
(-6.12511e-08 -2.31243e-08 1.86436e-23 6.24654e-08 5.98218e-24 -1.21432e-09)
(-5.01692e-08 -2.94822e-08 -0 4.68194e-08 -1.75034e-23 3.34982e-09)
(-5.74746e-08 -3.42287e-08 -1.24317e-20 6.59151e-08 -1.53532e-21 -8.4405e-09)
(-3.20933e-08 2.93445e-09 1.56036e-22 1.21597e-08 -5.78173e-23 1.99336e-08)
(-1.10478e-07 2.46257e-08 -5.22388e-20 1.54014e-07 -6.35395e-21 -4.3536e-08)
(1.08411e-08 1.01994e-07 -4.69111e-20 -8.96955e-08 -5.95585e-21 7.88544e-08)
(-1.99116e-07 4.56751e-08 6.369e-22 3.14017e-07 1.61125e-22 -1.14901e-07)
(-1.11712e-07 -1.21638e-07 -1.15921e-21 1.32737e-07 -1.17724e-22 -2.10246e-08)
(-8.9094e-08 -1.35582e-07 2.53059e-24 8.71733e-08 3.07687e-23 1.92071e-09)
(-8.35907e-08 -1.34376e-07 -3.00013e-25 7.62479e-08 2.41229e-23 7.3428e-09)
(-9.24266e-08 -1.40259e-07 9.81777e-22 9.40279e-08 9.33201e-23 -1.60127e-09)
(-8.99014e-08 -1.43825e-07 -1.15426e-22 8.91581e-08 -3.8049e-23 7.43229e-10)
(-9.07169e-08 -1.47623e-07 -3.917e-22 9.08628e-08 -3.14473e-23 -1.45935e-10)
(-9.04775e-08 -1.51107e-07 -1.25968e-24 9.0343e-08 5.51156e-24 1.34548e-10)
(-9.0694e-08 -1.54343e-07 -8.58025e-26 9.06439e-08 4.42124e-24 5.00656e-11)
(-9.08933e-08 -1.57273e-07 3.94671e-22 9.08165e-08 8.30443e-23 7.67521e-11)
(-9.12306e-08 -1.59906e-07 2.38463e-21 9.11682e-08 2.3055e-22 6.24634e-11)
(-9.16259e-08 -1.6223e-07 -0 9.1538e-08 -1.57433e-23 8.78745e-11)
(-9.21703e-08 -1.64235e-07 1.28533e-21 9.2105e-08 9.09526e-23 6.52898e-11)
(-9.27903e-08 -1.65928e-07 -1.85518e-21 9.27215e-08 -2.35063e-22 6.88199e-11)
(-9.35081e-08 -1.67301e-07 -1.49034e-21 9.34321e-08 -7.60764e-23 7.59803e-11)
(-9.43397e-08 -1.68354e-07 2.31495e-21 9.42682e-08 2.7033e-22 7.14991e-11)
(-9.52763e-08 -1.691e-07 9.29025e-22 9.52139e-08 5.21007e-23 6.23786e-11)
(-9.62793e-08 -1.69546e-07 1.97287e-24 9.61936e-08 4.95315e-23 8.56872e-11)
(-9.74276e-08 -1.69685e-07 3.39519e-21 9.73676e-08 3.93346e-22 5.9983e-11)
(-9.86392e-08 -1.6955e-07 2.74184e-21 9.8574e-08 1.91402e-22 6.52732e-11)