/*--------------------------------*- C++ -*----------------------------------*\
| =========                 |                                                 |
| \\      /  F ield         | OpenFOAM: The Open Source CFD Toolbox           |
|  \\    /   O peration     | Version:  2306                                  |
|   \\  /    A nd           | Website:  www.openfoam.com                      |
|    \\/     M anipulation  |                                                 |
\*---------------------------------------------------------------------------*/
FoamFile
{
    version     2.0;
    format      ascii;
    arch        "LSB;label=32;scalar=64";
    class       surfaceScalarField;
    location    "75";
    object      phi;
}
// * * * * * * * * * * * * * * * * * * * * * * * * * * * * * * * * * * * * * //

dimensions      [0 3 -1 0 0 0 0];

oriented        oriented;

internalField   nonuniform List<scalar> 
2568
(
0.0604272
-0.0290421
0.0864325
-0.0260053
0.108829
-0.0223964
0.127429
-0.0185997
0.14273
-0.0153014
0.155261
-0.0125313
0.165469
-0.0102079
0.174113
-0.00864444
0.181448
-0.00733531
0.187946
-0.00649812
0.193797
-0.00585256
0.199294
-0.00549723
0.204518
-0.00522562
0.209621
-0.00510308
0.214551
-0.00493189
0.219208
-0.00465627
0.222868
-0.0036588
0.225363
-0.00249283
0.227067
-0.00170214
0.228073
-0.00100518
0.22866
-0.000585866
0.228896
-0.000237321
0.228694
0.000206876
0.227881
0.0008156
0.226441
0.00144344
0.224403
0.00204162
0.221861
0.00254536
0.0030184
0.0361588
-0.0616588
0.0641058
-0.0569889
0.0892354
-0.0511348
0.111439
-0.0446002
0.130603
-0.0377633
0.147072
-0.0317711
0.161223
-0.0266816
0.173275
-0.0222608
0.183735
-0.0191045
0.192897
-0.0164972
0.201049
-0.0146508
0.208503
-0.0133075
0.215509
-0.0125041
0.222156
-0.0118733
0.228599
-0.0115474
0.234895
-0.0112289
0.240956
-0.0107167
0.246277
-0.0089783
0.250556
-0.00676959
0.253974
-0.0051186
0.256389
-0.00341808
0.257699
-0.00189536
0.25793
-0.000469411
0.257274
0.000866769
0.255941
0.00215027
0.254111
0.00327646
0.251843
0.00431318
0.249195
0.00519717
0.00603711
0.0419222
-0.0918292
0.0696682
-0.0847349
0.0948314
-0.0762979
0.117274
-0.0670423
0.136793
-0.0572824
0.153627
-0.0486055
0.168158
-0.0412124
0.180685
-0.0347881
0.191544
-0.0299645
0.201112
-0.0260653
0.209656
-0.0231954
0.217451
-0.0211036
0.2247
-0.019754
0.231562
-0.0187357
0.238219
-0.0182059
0.244666
-0.0176769
0.250778
-0.0168278
0.256224
-0.0144243
0.260697
-0.0112409
0.264328
-0.0087481
0.267192
-0.00628005
0.269325
-0.0040276
0.270804
-0.00194928
0.271648
2.76879e-05
0.271903
0.00189766
0.27154
0.00364328
0.270588
0.00526959
0.26902
0.00676669
0.00821121
0.0188817
-0.125428
0.0492059
-0.122154
0.0769695
-0.112498
0.102018
-0.101347
0.124414
-0.0894384
0.143938
-0.0768066
0.160912
-0.0655789
0.175753
-0.0560542
0.188724
-0.0477592
0.200177
-0.0414178
0.210335
-0.0362233
0.219533
-0.0323943
0.227944
-0.0295155
0.235809
-0.0276201
0.24326
-0.0261876
0.250405
-0.0253515
0.2573
-0.0245736
0.263871
-0.0233988
0.269766
-0.0203179
0.274723
-0.0161963
0.278816
-0.0128386
0.282105
-0.00956641
0.284643
-0.00656479
0.286475
-0.0037815
0.287681
-0.00117511
0.288293
0.00128719
0.288346
0.00359373
0.287862
0.0057567
0.286874
0.00775877
0.00974089
0.0265429
-0.157356
0.0574347
-0.153045
0.085499
-0.140562
0.110681
-0.126528
0.13319
-0.111948
0.152773
-0.0963892
0.169854
-0.0826604
0.184911
-0.071111
0.198162
-0.0610104
0.209956
-0.0532118
0.220572
-0.0468396
0.230197
-0.0420207
0.239032
-0.0383509
0.247287
-0.0358758
0.255105
-0.0340064
0.262573
-0.0328212
0.269732
-0.0317329
0.276532
-0.0301998
0.282678
-0.0264631
0.287894
-0.0214112
0.292226
-0.0171688
0.295719
-0.0130583
0.29843
-0.00927444
0.300385
-0.00573615
0.301635
-0.00242143
0.302243
0.000682104
0.302298
0.00354199
0.30184
0.00621894
0.300905
0.00869475
0.0110885
0.00173231
-0.185142
0.0346781
-0.190301
0.0664376
-0.184804
0.0950465
-0.169171
0.120541
-0.152023
0.143227
-0.134634
0.162906
-0.116069
0.180023
-0.0997769
0.195163
-0.0862522
0.208602
-0.0744495
0.220649
-0.0652587
0.231575
-0.0577657
0.241555
-0.0520016
0.250814
-0.0476109
0.259483
-0.0445456
0.267705
-0.0422301
0.275578
-0.0406952
0.283119
-0.0392746
0.290266
-0.0373473
0.296827
-0.0330232
0.302454
-0.0270368
0.307147
-0.0218593
0.31101
-0.0169186
0.31404
-0.0123022
0.316288
-0.00798486
0.317806
-0.00393617
0.318645
-0.000154663
0.318855
0.00333424
0.318477
0.00660024
0.317597
0.009578
0.0125151
0.00891831
-0.218488
0.0431573
-0.22454
0.0760117
-0.217658
0.105412
-0.198571
0.131416
-0.178027
0.154433
-0.157651
0.174274
-0.135911
0.191469
-0.116971
0.206685
-0.101469
0.220232
-0.0879964
0.23244
-0.0774668
0.243589
-0.068915
0.253884
-0.0622973
0.263472
-0.0571994
0.272503
-0.0535775
0.28108
-0.0508087
0.289289
-0.0489047
0.297141
-0.0471277
0.304615
-0.0448217
0.311452
-0.0398601
0.317429
-0.0330135
0.322467
-0.026896
0.326602
-0.0210524
0.329893
-0.0155918
0.332344
-0.0104345
0.334037
-0.00562613
0.334986
-0.00110145
0.335288
0.00303629
0.334987
0.00690545
0.334102
0.0104635
0.0139236
0.0163246
-0.2533
0.0520149
-0.26023
0.0861806
-0.251824
0.116543
-0.228934
0.143221
-0.204704
0.166704
-0.181133
0.186789
-0.155996
0.204095
-0.134277
0.219379
-0.116754
0.232991
-0.101608
0.245284
-0.0897598
0.256623
-0.0802552
0.267122
-0.0727967
0.276982
-0.0670599
0.286309
-0.062906
0.295216
-0.0597161
0.303739
-0.0574294
0.311937
-0.0553264
0.319741
-0.0526261
0.326947
-0.0470666
0.333291
-0.0393563
0.338694
-0.0322969
0.343181
-0.0255365
0.346791
-0.0191993
0.349522
-0.0131641
0.351435
-0.0075369
0.352598
-0.00226138
0.353043
0.00259337
0.352842
0.00710963
0.352022
0.0112872
0.0153597
-0.0126106
0.0238709
-0.289781
0.0612011
-0.29756
0.096886
-0.287508
0.128395
-0.260443
0.155895
-0.232204
0.179965
-0.205204
0.200403
-0.176434
0.21789
-0.151765
0.233265
-0.132129
0.246932
-0.115275
0.2593
-0.102128
0.27072
-0.091675
0.281403
-0.0834805
0.291464
-0.0771213
0.301037
-0.0724796
0.310226
-0.0689063
0.31908
-0.0662846
0.327565
-0.0638121
0.33568
-0.0607419
0.343231
-0.0546174
0.349953
-0.0460785
0.355693
-0.0380363
0.360518
-0.0303602
0.364408
-0.0230878
0.367418
-0.016173
0.369563
-0.00967977
0.370893
-0.00358774
0.371481
0.00200856
0.371356
0.0072385
0.370583
0.0120599
0.0167763
0.0316314
0.0708251
-0.336754
0.108119
-0.324802
0.140928
-0.293253
0.169415
-0.260691
0.194217
-0.230005
0.215098
-0.197315
0.232828
-0.169495
0.248341
-0.147642
0.262059
-0.128994
0.274473
-0.114542
0.285974
-0.103177
0.296745
-0.0942512
0.306959
-0.0873361
0.316757
-0.0822785
0.326186
-0.0783369
0.335271
-0.0753699
0.34407
-0.0726129
0.352508
-0.06918
0.360394
-0.0625035
0.367466
-0.0531507
0.373591
-0.0441594
0.378743
-0.0355098
0.382972
-0.027314
0.38626
-0.0194601
0.388653
-0.0120699
0.390209
-0.00513994
0.390941
0.00128064
0.390944
0.0072386
0.390241
0.0127665
0.0181899
0.0808027
0.119906
-0.363906
0.154168
-0.327515
0.183781
-0.290303
0.209405
-0.255629
0.230846
-0.218756
0.248892
-0.187542
0.264593
-0.163343
0.2784
-0.142802
0.290859
-0.127001
0.302389
-0.114707
0.313234
-0.105096
0.323566
-0.097669
0.333496
-0.0922089
0.343122
-0.0879639
0.35248
-0.0847293
0.361547
-0.0816799
0.370261
-0.0778946
0.378491
-0.0707343
0.38592
-0.0605793
0.392398
-0.0506373
0.397916
-0.0410272
0.40246
-0.0318576
0.406058
-0.023057
0.408705
-0.0147145
0.410453
-0.00688476
0.411376
0.000361888
0.411487
0.00713043
0.410857
0.0133959
0.0195954
0.132296
0.168118
-0.363337
0.198974
-0.321159
0.225565
-0.28222
0.247655
-0.240847
0.266109
-0.205996
0.282034
-0.179268
0.295954
-0.156723
0.308461
-0.139508
0.320033
-0.12628
0.330904
-0.115967
0.341308
-0.108074
0.351371
-0.102272
0.36115
-0.0977444
0.370701
-0.0942803
0.379998
-0.0909788
0.389026
-0.0869229
0.397576
-0.0792852
0.405359
-0.0683613
0.412199
-0.0574769
0.41806
-0.046886
0.422954
-0.0367495
0.426833
-0.0269345
0.429762
-0.0176409
0.431746
-0.0088644
0.432837
-0.000724174
0.433101
0.00687097
0.432534
0.0139672
0.0209641
0.182821
0.215035
-0.353373
0.242694
-0.309879
0.265536
-0.26369
0.284474
-0.224934
0.3007
-0.195493
0.314789
-0.170812
0.327354
-0.152074
0.338951
-0.137878
0.34985
-0.126866
0.360299
-0.118524
0.370431
-0.112404
0.38034
-0.107654
0.390051
-0.103992
0.399578
-0.100507
0.40886
-0.0962055
0.417735
-0.0881606
0.425852
-0.0764786
0.433047
-0.0646715
0.439261
-0.0530997
0.444467
-0.0419551
0.448674
-0.0311408
0.451882
-0.0208471
0.454113
-0.0110925
0.455413
-0.00202047
0.455812
0.00647482
0.455346
0.0144326
0.0223147
0.232027
0.260858
-0.33871
0.28454
-0.287372
0.30402
-0.244415
0.320611
-0.212084
0.334888
-0.185089
0.347548
-0.164734
0.359197
-0.149527
0.370119
-0.137788
0.380566
-0.128971
0.390747
-0.122586
0.400754
-0.117663
0.410605
-0.113843
0.420312
-0.110215
0.429849
-0.105744
0.439015
-0.0973264
0.447457
-0.0849214
0.454994
-0.0722085
0.461556
-0.0596611
0.467115
-0.0475125
0.471642
-0.0356662
0.475139
-0.0243407
0.477617
-0.0135659
0.479113
-0.00351031
0.479678
0.00591551
0.479312
0.0148029
0.0236203
0.280042
-0.368846
0.304647
-0.311977
0.324788
-0.264557
0.341794
-0.229091
0.356329
-0.199625
0.369115
-0.17752
0.380807
-0.161219
0.391734
-0.148716
0.402207
-0.139445
0.41241
-0.132789
0.422466
-0.12772
0.432427
-0.123804
0.442313
-0.120103
0.452074
-0.115505
0.461507
-0.10676
0.470282
-0.093696
0.478149
-0.0800756
0.485051
-0.0665638
0.490934
-0.0533955
0.495784
-0.0405154
0.499564
-0.0281189
0.502311
-0.0163107
0.504044
-0.00523945
0.504759
0.00520281
0.504522
0.0150384
0.0248687
0.300317
0.325964
-0.337624
0.346805
-0.285397
0.364302
-0.246588
0.379129
-0.214452
0.392088
-0.190479
0.403848
-0.17298
0.414799
-0.159666
0.425266
-0.149913
0.435481
-0.143004
0.445581
-0.137821
0.455613
-0.133836
0.465625
-0.130115
0.475591
-0.125472
0.485315
-0.116486
0.494373
-0.102754
0.502553
-0.0882559
0.509786
-0.0737959
0.516001
-0.0596105
0.521174
-0.0456874
0.525268
-0.0322101
0.528284
-0.0193215
0.530223
-0.0071724
0.531144
0.00428878
0.53102
0.015168
0.0260475
0.348477
-0.364367
0.370111
-0.307031
0.388163
-0.26464
0.403348
-0.229637
0.416494
-0.203625
0.428377
-0.184863
0.439358
-0.170648
0.449835
-0.16039
0.460044
-0.153214
0.470153
-0.147931
0.480258
-0.143942
0.490377
-0.140235
0.500522
-0.135618
0.510468
-0.126432
0.519806
-0.112093
0.528306
-0.0967563
0.535855
-0.081345
0.542408
-0.0661643
0.54789
-0.0511683
0.552289
-0.0366076
0.555578
-0.0226088
0.557776
-0.00936749
0.558874
0.00319335
0.558878
0.0151617
0.0271393
0.372295
0.394796
-0.329532
0.413462
-0.283306
0.429042
-0.245218
0.442444
-0.217027
0.454437
-0.196856
0.46549
-0.181701
0.475962
-0.170863
0.486167
-0.163419
0.496279
-0.158043
0.506416
-0.15408
0.516628
-0.150447
0.526939
-0.14593
0.537112
-0.136605
0.546717
-0.121698
0.555492
-0.105532
0.563341
-0.0891942
0.570196
-0.0730192
0.576007
-0.0569784
0.580698
-0.0412967
0.584281
-0.0261873
0.586707
-0.0117875
0.588022
0.00188582
0.588195
0.0149954
0.0281753
0.420878
-0.352985
0.440222
-0.30265
0.45627
-0.261266
0.469954
-0.230711
0.482119
-0.209021
0.493235
-0.192817
0.503731
-0.181359
0.513926
-0.173614
0.52406
-0.168177
0.534202
-0.164222
0.544495
-0.160742
0.554935
-0.156369
0.565319
-0.14699
0.575169
-0.131548
0.584197
-0.114561
0.592354
-0.0973512
0.599511
-0.0801763
0.605605
-0.0630717
0.610625
-0.0463166
0.614478
-0.0300377
0.617167
-0.0144744
0.618668
0.000387331
0.618998
0.0146634
0.0290798
0.448442
-0.377427
0.468542
-0.322749
0.485096
-0.27782
0.499108
-0.244723
0.511482
-0.221395
0.522694
-0.204029
0.53324
-0.191906
0.54344
-0.183814
0.553545
-0.178282
0.563719
-0.174397
0.574048
-0.171072
0.584628
-0.166949
0.595191
-0.157554
0.605249
-0.141606
0.614546
-0.123858
0.622952
-0.105758
0.630394
-0.0876182
0.636812
-0.0694893
0.642092
-0.0515947
0.646229
-0.0341714
0.649186
-0.017426
0.650926
-0.00134468
0.651422
0.0141747
0.0298969
0.47758
0.498485
-0.343653
0.515598
-0.294934
0.529986
-0.259112
0.54259
-0.233999
0.553941
-0.215381
0.564517
-0.202482
0.574736
-0.194034
0.584848
-0.188395
0.595027
-0.184576
0.605422
-0.181467
0.616087
-0.177615
0.626816
-0.168284
0.637097
-0.151887
0.6466
-0.133361
0.655259
-0.114417
0.662981
-0.0953409
0.669672
-0.0761795
0.675256
-0.0571777
0.679674
-0.038588
0.68289
-0.0206396
0.684835
-0.00328745
0.685513
0.0134953
0.0305644
0.530107
-0.36543
0.54784
-0.312668
0.562663
-0.273934
0.575537
-0.246873
0.587043
-0.226888
0.597727
-0.213166
0.607967
-0.204274
0.618067
-0.198495
0.628258
-0.194768
0.638675
-0.191884
0.649442
-0.188383
0.660341
-0.179183
0.670783
-0.16233
0.680496
-0.143074
0.689398
-0.123319
0.697369
-0.103311
0.704317
-0.0831269
0.710181
-0.0630395
0.714865
-0.0432689
0.718326
-0.0240964
0.720525
-0.0054796
0.721381
0.0126467
0.0311174
0.563521
0.581949
-0.331095
0.597207
-0.289193
0.610401
-0.260068
0.622097
-0.238584
0.632869
-0.223937
0.643164
-0.214569
0.653302
-0.208634
0.663484
-0.20495
0.673946
-0.202346
0.684814
-0.199251
0.695806
-0.190176
0.706428
-0.172952
0.716412
-0.153058
0.725384
-0.13229
0.733619
-0.111546
0.740884
-0.0903909
0.746965
-0.0691195
0.751905
-0.0482077
0.755704
-0.0278931
0.75812
-0.00789408
0.759139
0.0116274
0.0315149
0.617945
-0.350249
0.633736
-0.304983
0.64728
-0.273613
0.659205
-0.25051
0.670119
-0.234851
0.680462
-0.224913
0.690656
-0.218828
0.700886
-0.21518
0.711314
-0.212774
0.72221
-0.210148
0.733462
-0.201428
0.744188
-0.183678
0.754248
-0.163118
0.763644
-0.141687
0.771971
-0.119873
0.779327
-0.0977455
0.785816
-0.0756072
0.791031
-0.0534191
0.794835
-0.0316938
0.797499
-0.0105516
0.798899
0.0102345
0.0318084
0.655977
-0.370191
0.672297
-0.321303
0.686309
-0.287625
0.698442
-0.262643
0.709556
-0.245965
0.719986
-0.235343
0.730095
-0.228937
0.740334
-0.225419
0.750918
-0.223359
0.762062
-0.221291
0.773199
-0.212565
0.784208
-0.194687
0.794355
-0.173265
0.803876
-0.151207
0.812499
-0.128496
0.820197
-0.105443
0.826675
-0.0820846
0.832166
-0.0589081
0.836389
-0.0359148
0.839207
-0.0133685
0.840628
0.00881426
0.0317722
0.696189
0.713181
-0.338295
0.727449
-0.301893
0.740017
-0.275211
0.751226
-0.257174
0.761809
-0.245926
0.772055
-0.239183
0.782419
-0.235784
0.793039
-0.233978
0.804012
-0.232265
0.815504
-0.224057
0.826543
-0.205726
0.83688
-0.183602
0.84638
-0.160706
0.85515
-0.137265
0.863037
-0.113329
0.869876
-0.0889213
0.875496
-0.0645255
0.879998
-0.040413
0.883101
-0.0164667
0.884666
0.00725563
0.0316195
0.756151
-0.355961
0.771072
-0.316815
0.783796
-0.287935
0.795316
-0.268694
0.805964
-0.256573
0.816475
-0.249694
0.826738
-0.246047
0.837264
-0.244504
0.848539
-0.24354
0.860015
-0.235532
0.871206
-0.216917
0.881713
-0.194108
0.891548
-0.170541
0.900446
-0.146162
0.908377
-0.121259
0.915297
-0.0958394
0.92129
-0.0705169
0.92593
-0.0450516
0.929183
-0.0197187
0.931156
0.00528442
0.0314531
0.801592
-0.37426
0.816984
-0.332207
0.830207
-0.301159
0.841847
-0.280333
0.852791
-0.267517
0.863221
-0.260123
0.873647
-0.256473
0.884441
-0.255298
0.895663
-0.254762
0.907376
-0.247244
0.918695
-0.228236
0.929239
-0.204651
0.939017
-0.180318
0.948147
-0.155291
0.956353
-0.129465
0.963591
-0.103075
0.969425
-0.076348
0.974321
-0.0499442
0.977977
-0.0233705
0.97997
0.003297
0.0308883
0.849642
0.865614
-0.34818
0.879138
-0.314683
0.891256
-0.292451
0.902293
-0.278553
0.91291
-0.27074
0.923371
-0.266933
0.934217
-0.266144
0.945628
-0.266172
0.957444
-0.25906
0.968782
-0.239574
0.979594
-0.215463
0.989551
-0.190274
0.998644
-0.164384
1.00685
-0.13767
1.01413
-0.110354
1.02056
-0.0827741
1.02544
-0.054821
1.02923
-0.0271614
1.0315
0.00102744
0.030292
0.916776
-0.364661
0.930958
-0.328864
0.943223
-0.304716
0.954483
-0.289812
0.965289
-0.281546
0.976044
-0.277687
0.986949
-0.277049
0.998448
-0.27767
1.01037
-0.270985
1.02195
-0.251153
1.03279
-0.226297
1.04279
-0.200271
1.05208
-0.173673
1.06052
-0.146114
1.06795
-0.117781
1.07418
-0.0890046
1.07942
-0.060051
1.0832
-0.0309447
1.08575
-0.00151536
0.0294108
0.97101
0.985424
-0.343279
0.998206
-0.317497
1.00982
-0.301427
1.02072
-0.292443
1.03156
-0.288524
1.04253
-0.288018
1.05423
-0.289374
1.0664
-0.283151
1.0781
-0.262854
1.08896
-0.237153
1.09924
-0.21055
1.10859
-0.183021
1.117
-0.154523
1.12443
-0.125213
1.13096
-0.0955329
1.1364
-0.0654915
1.14043
-0.0349763
1.14299
-0.00407355
0.0282304
1.04324
-0.358414
1.05621
-0.330461
1.0681
-0.313313
1.07934
-0.303683
1.09025
-0.299434
1.10155
-0.299315
1.11335
-0.301177
1.12564
-0.29544
1.13762
-0.274838
1.1486
-0.248132
1.15879
-0.220731
1.16818
-0.192415
1.17667
-0.163008
1.18447
-0.133011
1.19102
-0.102088
1.1964
-0.070866
1.20066
-0.0392345
1.20349
-0.00689576
0.0270164
1.10407
-0.374013
1.1176
-0.343991
1.12976
-0.325473
1.14112
-0.315049
1.15239
-0.310704
1.1638
-0.310718
1.17583
-0.313208
1.18838
-0.307986
1.20036
-0.286816
1.21162
-0.259392
1.22182
-0.230934
1.23126
-0.20185
1.23994
-0.171684
1.24758
-0.140653
1.25427
-0.108777
1.25982
-0.0764183
1.26418
-0.0435847
1.26713
-0.00984991
0.0256313
1.16826
1.18237
-0.358103
1.19482
-0.337926
1.2067
-0.326927
1.21797
-0.321968
1.2296
-0.322347
1.24203
-0.325633
1.2546
-0.320562
1.26686
-0.299069
1.27813
-0.270666
1.28861
-0.241409
1.2982
-0.211445
1.30681
-0.180291
1.31441
-0.148252
1.32122
-0.115586
1.32681
-0.0820033
1.33124
-0.0480082
1.33444
-0.0130506
0.0239523
1.25066
-0.372574
1.26354
-0.350807
1.2756
-0.338979
1.28737
-0.333737
1.29926
-0.334237
1.31168
-0.338057
1.32468
-0.333555
1.3371
-0.311488
1.34852
-0.282091
1.35915
-0.252038
1.36865
-0.220946
1.37731
-0.188945
1.38524
-0.156178
1.3919
-0.122248
1.39764
-0.0877357
1.40213
-0.0524967
1.40531
-0.0162373
0.022107
1.3227
-0.387533
1.33617
-0.364273
1.34864
-0.351446
1.36056
-0.345657
1.37273
-0.34641
1.38544
-0.35077
1.39885
-0.34696
1.41147
-0.324104
1.42305
-0.293675
1.43359
-0.262573
1.44325
-0.230608
1.45208
-0.197772
1.45982
-0.163917
1.46658
-0.129006
1.47245
-0.0935995
1.47711
-0.0571629
1.48041
-0.019524
0.0201054
1.39898
1.41282
-0.378108
1.42546
-0.364092
1.43795
-0.358143
1.4504
-0.358864
1.46356
-0.363919
1.47705
-0.360453
1.48996
-0.337008
1.50173
-0.305446
1.51255
-0.273399
1.52226
-0.240311
1.53113
-0.206645
1.53881
-0.171592
1.54578
-0.135977
1.55152
-0.0993348
1.5561
-0.0617429
1.55961
-0.0230317
0.0180734
1.49371
-0.392535
1.50697
-0.37735
1.51964
-0.370814
1.5324
-0.371623
1.54589
-0.377405
1.55971
-0.374278
1.57298
-0.350271
1.58505
-0.317523
1.59581
-0.284156
1.60569
-0.250184
1.61448
-0.215441
1.62235
-0.179456
1.62915
-0.142778
1.635
-0.105183
1.63974
-0.0664795
1.64333
-0.0266216
1.57902
-0.407357
1.59275
-0.39108
1.60588
-0.383937
1.61898
-0.384724
1.63294
-0.391362
1.64725
-0.388592
1.66075
-0.363766
1.67292
-0.329687
1.68399
-0.295229
1.69393
-0.260117
1.70278
-0.224293
1.71071
-0.187381
1.71746
-0.149533
1.7233
-0.111013
1.72806
-0.0712392
-0.0301612
1.66922
1.68345
-0.405308
1.69694
-0.397429
1.71053
-0.398315
1.72471
-0.405538
1.73955
-0.403435
1.75341
-0.377624
1.76582
-0.342096
1.77711
-0.306516
1.78711
-0.27012
1.79603
-0.233211
1.8039
-0.19525
1.81087
-0.156495
1.81655
-0.116697
1.82133
-0.0760163
-0.0338965
1.77908
-0.419944
1.79307
-0.411421
1.80726
-0.412503
1.82199
-0.420261
1.83698
-0.418429
1.85138
-0.39202
1.86416
-0.354872
1.87555
-0.317903
1.88576
-0.280337
1.89476
-0.242209
1.90271
-0.203196
1.90938
-0.163165
1.9153
-0.122615
1.9201
-0.0808076
-0.037568
1.88009
-0.435353
1.89474
-0.426063
1.90923
-0.426998
1.92449
-0.435514
1.94017
-0.434109
1.95474
-0.40659
1.96792
-0.368047
1.97957
-0.329549
1.98989
-0.290661
1.99899
-0.251301
2.0069
-0.211104
2.01379
-0.170057
2.01957
-0.12839
2.02437
-0.085613
-0.0413
1.98682
2.00189
-0.441132
2.0169
-0.442013
2.03271
-0.45132
2.04901
-0.450407
2.06416
-0.421735
2.07764
-0.381529
2.08943
-0.341339
2.10001
-0.301242
2.10922
-0.260504
2.11723
-0.219118
2.1241
-0.176926
2.12987
-0.134155
2.1347
-0.090436
-0.0449634
2.11507
-0.456897
2.1308
-0.457741
2.14709
-0.467611
2.16386
-0.467179
2.17963
-0.437506
2.19344
-0.39533
2.20565
-0.353555
2.21626
-0.311846
2.2256
-0.269843
2.23374
-0.227254
2.2406
-0.183788
2.2465
-0.140049
2.25122
-0.0951535
-0.0486846
2.23448
-0.473257
2.25079
-0.474055
2.26795
-0.484771
2.28536
-0.48459
2.30153
-0.453667
2.31582
-0.409627
2.32837
-0.366101
2.33928
-0.322757
2.34878
-0.27934
2.35694
-0.235407
2.36394
-0.190786
2.36959
-0.145701
2.37434
-0.0999018
-0.0525966
2.36071
2.37765
-0.490995
2.39534
-0.502465
2.41356
-0.502805
2.43026
-0.470367
2.44506
-0.424432
2.45798
-0.379011
2.46922
-0.334
2.4789
-0.28902
2.48709
-0.243599
2.494
-0.197688
2.49993
-0.151635
2.5046
-0.104563
-0.0563226
2.51163
-0.508847
2.52998
-0.520813
2.54893
-0.521755
2.56645
-0.487882
2.58168
-0.439663
2.59498
-0.392314
2.60646
-0.345477
2.61635
-0.298911
2.62461
-0.251855
2.63182
-0.204892
2.63755
-0.157364
2.64239
-0.109403
-0.059998
2.65283
-0.527231
2.67217
-0.540153
2.69185
-0.541437
2.71001
-0.506036
2.7258
-0.455453
2.73965
-0.406164
2.75153
-0.357346
2.76153
-0.308916
2.77014
-0.260456
2.77717
-0.211919
2.78309
-0.163284
2.78775
-0.114061
-0.0637609
2.80221
-0.546578
2.82227
-0.560214
2.84274
-0.561908
2.86177
-0.525059
2.87833
-0.47202
2.89239
-0.42021
2.90456
-0.369519
2.91497
-0.319321
2.92369
-0.269179
2.93082
-0.219047
2.93683
-0.169294
2.94158
-0.118807
-0.0674962
2.95956
2.9808
-0.581447
3.00221
-0.583319
3.02196
-0.544805
3.03902
-0.489075
3.05383
-0.43502
3.06646
-0.382153
3.07705
-0.329906
3.08593
-0.278056
3.09344
-0.226559
3.09931
-0.175167
3.10404
-0.123533
-0.0712219
3.14803
-0.603481
3.17054
-0.605824
3.19113
-0.565396
3.20904
-0.506979
3.22437
-0.450347
3.23737
-0.395161
3.24843
-0.340958
3.25749
-0.287119
3.26491
-0.233977
3.27092
-0.181181
3.27591
-0.128517
-0.0749534
3.32471
-0.626609
3.34814
-0.629258
3.36973
-0.586985
3.38837
-0.525613
3.4044
-0.466373
3.41781
-0.408577
3.42912
-0.352263
3.43866
-0.296653
3.44627
-0.241588
3.45245
-0.187362
3.45721
-0.133278
3.51112
-0.650746
3.53573
-0.653869
3.55827
-0.609519
3.57779
-0.545133
3.59444
-0.48302
3.60856
-0.422697
3.62028
-0.36398
3.62994
-0.306317
3.63778
-0.249423
3.64404
-0.193619
-0.138219
3.70802
3.73384
-0.679699
3.75751
-0.63318
3.77784
-0.565466
3.79514
-0.500311
3.80987
-0.43743
3.82204
-0.376152
3.832
-0.316272
3.8401
-0.25752
3.84659
-0.200104
-0.143117
3.94302
-0.706957
3.9678
-0.65796
3.98901
-0.586673
4.00725
-0.518544
4.02238
-0.452565
4.03518
-0.388944
4.04547
-0.326559
4.05387
-0.26591
4.06024
-0.206477
-0.148256
4.16357
-0.735258
4.1897
-0.684092
4.21204
-0.609013
4.2309
-0.5374
4.24699
-0.468654
4.26006
-0.402018
4.27086
-0.337341
4.27946
-0.274511
4.28626
-0.213277
-0.153415
4.39669
-0.765303
4.42378
-0.711186
4.44735
-0.632575
4.46723
-0.557283
4.48381
-0.485233
4.4976
-0.415795
4.50879
-0.348539
4.51765
-0.283355
4.52453
-0.220163
-0.158753
4.64245
-0.796771
4.67123
-0.739963
4.69566
-0.657003
4.7165
-0.578122
4.73387
-0.5026
4.7484
-0.430327
4.75993
-0.360062
4.7692
-0.29262
4.77634
-0.227297
-0.164186
4.9019
4.932
-0.77007
4.95786
-0.682863
4.97972
-0.599972
4.99793
-0.520811
5.01289
-0.445272
5.02517
-0.372347
5.03464
-0.302087
5.0422
-0.234853
-0.169614
5.20741
-0.801706
5.23451
-0.70996
5.25742
-0.622887
5.27666
-0.54004
5.29233
-0.460945
5.30504
-0.385052
5.31502
-0.312063
5.32265
-0.242488
-0.175471
5.49798
-0.835095
5.52647
-0.738451
5.55064
-0.647052
5.57069
-0.560099
5.58728
-0.477517
5.60046
-0.398235
5.61099
-0.322589
5.61887
-0.250376
5.8047
-0.870115
5.8347
-0.768457
5.86004
-0.672391
5.88109
-0.581141
5.89836
-0.494793
5.91233
-0.412191
5.92319
-0.333461
-0.258811
6.12835
-0.907096
6.15988
-0.799986
6.18646
-0.698971
6.2087
-0.603385
6.22686
-0.512945
6.24139
-0.426724
6.25279
-0.344851
-0.267589
6.46993
-0.945992
6.50305
-0.833103
6.53105
-0.726977
6.55441
-0.626732
6.57349
-0.532035
6.58878
-0.442002
6.60074
-0.35681
-0.276622
6.82961
6.86478
-0.868278
6.89463
-0.756824
6.91916
-0.651272
6.93925
-0.552109
6.95457
-0.457328
6.96779
-0.370026
-0.286096
7.24756
-0.905691
7.27758
-0.786849
7.30396
-0.677653
7.3242
-0.57235
7.34205
-0.475174
7.35492
-0.382903
-0.295287
7.64943
-0.943122
7.68321
-0.820623
7.7095
-0.703959
7.73215
-0.59498
7.74977
-0.492809
7.76237
-0.395497
-0.3067
5.55929
-0.950789
5.56848
-0.829817
5.58186
-0.717333
5.59949
-0.612609
5.61885
-0.512164
5.64253
-0.419183
-0.333496
6.11635
-0.956472
6.12731
-0.840781
6.14235
-0.732374
6.1603
-0.630549
6.18246
-0.534323
6.20887
-0.445592
-0.361678
6.72959
-0.962914
6.74121
-0.852396
6.75811
-0.749266
6.77781
-0.650254
6.80292
-0.559429
6.83092
-0.473596
-0.392651
7.40535
-0.970326
7.41911
-0.866151
7.43546
-0.765614
7.45838
-0.673164
7.48532
-0.586379
7.51636
-0.504626
8.14874
-0.980209
8.16228
-0.879695
8.18215
-0.785474
8.20718
-0.6982
8.23615
-0.615343
-0.537578
8.96488
-0.988964
8.98096
-0.89577
9.00199
-0.806508
9.02935
-0.725554
9.0618
-0.647797
-0.575183
9.86506
9.88142
-0.912133
9.9051
-0.830182
9.93497
-0.755439
9.96984
-0.682655
-0.616355
10.872
-0.930185
10.8972
-0.855423
10.9298
-0.788026
10.9685
-0.721366
-0.661253
11.9595
-0.95012
11.9877
-0.883666
12.0219
-0.822173
12.0645
-0.764032
-0.709961
13.153
-0.972363
13.1833
-0.914044
13.2233
-0.862178
13.2692
-0.80988
-0.764269
14.4648
-0.995756
14.4988
-0.94796
14.5396
-0.902979
14.5912
-0.861488
-0.822965
15.9212
-1.02358
15.9605
-0.987295
16.009
-0.951482
16.068
-0.920482
-0.889921
17.5404
17.579
17.6307
17.6917
)
;

boundaryField
{
    inlet
    {
        type            calculated;
        value           nonuniform List<scalar> 5(-1.05192 -1.02587 -1.00311 -0.981476 -0.961704);
    }
    outlet
    {
        type            calculated;
        value           nonuniform List<scalar> 0();
    }
    walls
    {
        type            calculated;
        value           uniform 0;
    }
    frontAndBack
    {
        type            empty;
        value           nonuniform List<scalar> 0();
    }
    procBoundary1to0
    {
        type            processor;
        value           nonuniform List<scalar> 
94
(
-0.280819
0.00659032
-0.328002
-0.0396862
-0.377869
-0.091215
-0.404986
-0.14526
-0.400898
-0.198307
-0.387093
-0.249906
-0.268814
-0.400349
-0.321734
-0.344352
-0.392309
-0.397425
-0.424001
-0.452022
-0.402986
-0.50833
-0.540785
-0.388166
-0.598791
-0.636036
-0.675385
-0.390995
-0.738484
-0.783295
-0.83057
-0.393331
-0.900296
-0.953786
-0.381884
-1.02811
-1.08847
-1.15213
-0.390138
-1.23619
-1.30774
-1.38327
-0.403247
-1.47928
-1.5642
-1.65373
-0.422845
-1.76445
-1.86469
-1.97081
-0.451354
-2.0993
-2.21812
-2.34362
-0.490346
-2.49377
-2.63445
-2.78286
-2.93937
-0.566773
-3.126
-3.30158
-3.48698
-3.68256
-0.676198
-3.91576
-4.13527
-4.36664
-4.61098
-4.86895
-0.829714
-5.17576
-5.46459
-5.76967
-6.09137
-6.43104
-6.78964
-0.985963
-7.21015
-7.61199
-5.55163
-6.11066
-6.72315
-7.39793
-8.13885
-8.95611
-9.85465
-0.999381
-10.854
-11.9395
-13.1307
-14.4414
-15.8933
-17.512
)
;
    }
    procBoundary1to2
    {
        type            processor;
        value           nonuniform List<scalar> 
84
(
0.218851
0.246184
0.266855
0.285353
0.299567
0.316179
0.332702
0.350594
0.369176
0.388835
0.40946
0.431172
0.454003
0.478013
0.503281
0.529848
0.557792
0.587167
0.618098
0.650613
0.684849
0.720836
0.758743
0.798613
0.840666
0.884826
0.931323
0.980542
1.0321
1.08664
1.14417
1.20471
1.26852
1.33613
1.40716
1.48241
1.56164
1.64552
0.0158959
1.7316
1.82507
1.92377
2.02811
2.13836
2.25494
2.37826
2.50833
2.64607
2.79151
2.94532
3.10777
3.27964
3.46097
-0.0787104
3.64898
3.85149
4.06538
4.29142
4.52988
4.78177
5.04763
5.32851
5.62493
-0.181531
5.93164
6.26156
6.60978
6.97726
7.36412
7.77378
5.66934
6.23705
6.8619
7.55155
-0.42785
8.2691
9.09942
10.011
11.0134
12.1132
13.3235
14.6499
16.135
17.7636
)
;
    }
    procBoundary1to5
    {
        type            processor;
        value           nonuniform List<scalar> 
13
(
-0.0313859
0.0309616
-0.00546332
-0.0117514
0.0942055
0.0123416
0.00538475
0.153047
0.0303622
0.0244284
0.0184873
0.24509
0.0483397
)
;
    }
}


// ************************************************************************* //
