/*--------------------------------*- C++ -*----------------------------------*\
| =========                 |                                                 |
| \\      /  F ield         | OpenFOAM: The Open Source CFD Toolbox           |
|  \\    /   O peration     | Version:  2306                                  |
|   \\  /    A nd           | Website:  www.openfoam.com                      |
|    \\/     M anipulation  |                                                 |
\*---------------------------------------------------------------------------*/
FoamFile
{
    version     2.0;
    format      ascii;
    arch        "LSB;label=32;scalar=64";
    class       volScalarField;
    location    "75";
    object      turbulenceProperties:nuEff;
}
// * * * * * * * * * * * * * * * * * * * * * * * * * * * * * * * * * * * * * //

dimensions      [0 2 -1 0 0 0 0];

internalField   nonuniform List<scalar> 
1340
(
1.93485e-05
2.24206e-05
2.73699e-05
3.51994e-05
4.73446e-05
6.53477e-05
9.07086e-05
0.000124652
0.00016979
0.000231788
0.000321666
0.000459704
0.000679933
0.00105539
0.00170267
0.00294539
0.00523037
0.0104348
0.0206642
0.0463214
0.0821969
0.104823
0.11309
0.115357
0.115976
0.1159
0.115286
0.114269
1.59726e-05
1.58812e-05
1.57284e-05
1.55389e-05
1.53261e-05
1.50947e-05
1.48458e-05
1.45788e-05
1.42788e-05
1.39449e-05
1.35464e-05
1.30807e-05
1.25099e-05
1.184e-05
1.10944e-05
1.04397e-05
1.00994e-05
1.00132e-05
2.13438e-05
0.000217435
0.00133076
0.00719819
0.0195339
0.0355038
0.0506424
0.0614016
0.0675022
0.0706933
0.0725474
1.61383e-05
1.61476e-05
1.61632e-05
1.61826e-05
1.62053e-05
1.62312e-05
1.62599e-05
1.62903e-05
1.63236e-05
1.636e-05
1.64011e-05
1.6448e-05
1.6504e-05
1.65721e-05
1.66582e-05
1.67717e-05
1.69149e-05
1.70978e-05
1.71634e-05
1.69339e-05
1.60302e-05
1.40141e-05
0.000250508
0.00134233
0.00438863
0.00992206
0.0175691
0.0264301
0.0354716
1.61021e-05
1.61022e-05
1.61009e-05
1.60991e-05
1.60972e-05
1.60954e-05
1.60936e-05
1.60915e-05
1.60888e-05
1.60861e-05
1.60839e-05
1.60822e-05
1.60811e-05
1.60803e-05
1.60799e-05
1.60798e-05
1.60797e-05
1.60803e-05
1.60779e-05
1.60878e-05
1.60356e-05
1.64191e-05
1.60956e-05
1.52579e-05
2.04824e-05
1.0008e-05
1.04258e-05
0.000399982
0.00156947
0.00404373
1.61071e-05
1.61071e-05
1.6108e-05
1.611e-05
1.6112e-05
1.61138e-05
1.61155e-05
1.61173e-05
1.61191e-05
1.61212e-05
1.61235e-05
1.6126e-05
1.61288e-05
1.61318e-05
1.6135e-05
1.61386e-05
1.61424e-05
1.61465e-05
1.61516e-05
1.61567e-05
1.61676e-05
1.61641e-05
1.62372e-05
1.59819e-05
1.64346e-05
1.64573e-05
1.01192e-05
8.17617e-05
0.000380842
0.000213378
1.61079e-05
1.61068e-05
1.6107e-05
1.6108e-05
1.61093e-05
1.61103e-05
1.61113e-05
1.61122e-05
1.61132e-05
1.6114e-05
1.61148e-05
1.61156e-05
1.61163e-05
1.6117e-05
1.61176e-05
1.61181e-05
1.61183e-05
1.61184e-05
1.61183e-05
1.61176e-05
1.61174e-05
1.61177e-05
1.6119e-05
1.61214e-05
1.61207e-05
1.61045e-05
1.62563e-05
1.61527e-05
1.49422e-05
1.16437e-05
1e-05
1.6111e-05
1.61093e-05
1.61092e-05
1.61096e-05
1.61103e-05
1.61111e-05
1.61119e-05
1.61127e-05
1.61136e-05
1.61144e-05
1.61153e-05
1.61163e-05
1.61173e-05
1.61184e-05
1.61196e-05
1.61209e-05
1.61223e-05
1.61238e-05
1.61254e-05
1.61272e-05
1.61293e-05
1.61319e-05
1.6135e-05
1.61387e-05
1.61433e-05
1.61482e-05
1.61507e-05
1.61986e-05
1.61489e-05
1.58843e-05
1.31817e-05
1.61134e-05
1.61117e-05
1.61112e-05
1.61112e-05
1.61115e-05
1.61119e-05
1.61123e-05
1.61129e-05
1.61134e-05
1.6114e-05
1.61146e-05
1.61153e-05
1.6116e-05
1.61168e-05
1.61177e-05
1.61185e-05
1.61194e-05
1.61203e-05
1.61211e-05
1.61219e-05
1.61226e-05
1.61233e-05
1.6124e-05
1.61246e-05
1.6125e-05
1.61251e-05
1.61247e-05
1.6125e-05
1.61318e-05
1.61238e-05
1.64034e-05
1.61169e-05
1.6115e-05
1.61136e-05
1.6113e-05
1.61129e-05
1.61129e-05
1.6113e-05
1.61132e-05
1.61134e-05
1.61137e-05
1.6114e-05
1.61144e-05
1.61149e-05
1.61155e-05
1.61161e-05
1.61169e-05
1.61177e-05
1.61187e-05
1.61197e-05
1.61207e-05
1.61219e-05
1.61232e-05
1.61247e-05
1.61264e-05
1.61284e-05
1.61307e-05
1.61333e-05
1.61363e-05
1.61396e-05
1.61422e-05
1.61474e-05
1.61723e-05
1.61153e-05
1.61143e-05
1.6114e-05
1.6114e-05
1.61141e-05
1.6114e-05
1.61141e-05
1.61141e-05
1.61142e-05
1.61143e-05
1.61145e-05
1.61147e-05
1.61151e-05
1.61156e-05
1.61161e-05
1.61168e-05
1.61175e-05
1.61184e-05
1.61193e-05
1.61203e-05
1.61213e-05
1.61225e-05
1.61238e-05
1.61251e-05
1.61266e-05
1.61281e-05
1.61297e-05
1.61314e-05
1.61324e-05
1.61367e-05
1.61315e-05
1.61136e-05
1.61138e-05
1.61141e-05
1.61145e-05
1.61146e-05
1.61147e-05
1.61147e-05
1.61147e-05
1.61147e-05
1.61148e-05
1.61149e-05
1.61151e-05
1.61153e-05
1.61157e-05
1.61162e-05
1.61169e-05
1.61176e-05
1.61184e-05
1.61193e-05
1.61204e-05
1.61216e-05
1.61229e-05
1.61245e-05
1.61262e-05
1.61281e-05
1.61302e-05
1.61326e-05
1.61349e-05
1.61377e-05
1.6139e-05
1.61121e-05
1.6113e-05
1.61138e-05
1.61143e-05
1.61147e-05
1.61149e-05
1.6115e-05
1.6115e-05
1.61151e-05
1.61151e-05
1.61152e-05
1.61154e-05
1.61156e-05
1.61159e-05
1.61164e-05
1.61169e-05
1.61175e-05
1.61183e-05
1.61192e-05
1.61202e-05
1.61213e-05
1.61227e-05
1.61242e-05
1.61258e-05
1.61276e-05
1.61295e-05
1.61316e-05
1.61336e-05
1.61367e-05
1.61105e-05
1.61119e-05
1.61129e-05
1.61137e-05
1.61143e-05
1.61147e-05
1.61149e-05
1.61151e-05
1.61152e-05
1.61153e-05
1.61154e-05
1.61155e-05
1.61157e-05
1.6116e-05
1.61164e-05
1.61169e-05
1.61175e-05
1.61182e-05
1.61191e-05
1.61202e-05
1.61214e-05
1.61229e-05
1.61245e-05
1.61263e-05
1.61283e-05
1.61304e-05
1.61326e-05
1.61351e-05
1.61089e-05
1.61106e-05
1.61119e-05
1.61128e-05
1.61136e-05
1.61142e-05
1.61146e-05
1.61149e-05
1.61151e-05
1.61152e-05
1.61154e-05
1.61155e-05
1.61157e-05
1.6116e-05
1.61164e-05
1.61169e-05
1.61175e-05
1.61183e-05
1.61193e-05
1.61204e-05
1.61217e-05
1.61232e-05
1.61249e-05
1.61268e-05
1.61288e-05
1.61309e-05
1.61332e-05
1.61075e-05
1.61091e-05
1.61105e-05
1.61116e-05
1.61126e-05
1.61133e-05
1.61139e-05
1.61143e-05
1.61146e-05
1.61149e-05
1.61151e-05
1.61154e-05
1.61157e-05
1.6116e-05
1.61165e-05
1.6117e-05
1.61177e-05
1.61186e-05
1.61196e-05
1.61209e-05
1.61223e-05
1.61239e-05
1.61256e-05
1.61276e-05
1.61297e-05
1.6132e-05
1.6104e-05
1.6106e-05
1.61076e-05
1.61091e-05
1.61103e-05
1.61114e-05
1.61123e-05
1.6113e-05
1.61136e-05
1.6114e-05
1.61144e-05
1.61148e-05
1.61152e-05
1.61155e-05
1.6116e-05
1.61165e-05
1.61172e-05
1.61179e-05
1.61188e-05
1.61199e-05
1.61212e-05
1.61226e-05
1.61242e-05
1.6126e-05
1.6128e-05
1.61302e-05
1.61031e-05
1.61047e-05
1.61063e-05
1.61077e-05
1.6109e-05
1.61101e-05
1.61111e-05
1.6112e-05
1.61127e-05
1.61133e-05
1.61138e-05
1.61143e-05
1.61148e-05
1.61153e-05
1.61158e-05
1.61164e-05
1.61171e-05
1.61179e-05
1.61189e-05
1.612e-05
1.61212e-05
1.61227e-05
1.61243e-05
1.61261e-05
1.61281e-05
1.61011e-05
1.61024e-05
1.61038e-05
1.61052e-05
1.61066e-05
1.61078e-05
1.61089e-05
1.61099e-05
1.61108e-05
1.61117e-05
1.61124e-05
1.6113e-05
1.61136e-05
1.61142e-05
1.61148e-05
1.61155e-05
1.61161e-05
1.61169e-05
1.61178e-05
1.61188e-05
1.61199e-05
1.61212e-05
1.61227e-05
1.61243e-05
1.61261e-05
1.61011e-05
1.61021e-05
1.61032e-05
1.61044e-05
1.61055e-05
1.61067e-05
1.61078e-05
1.61088e-05
1.61097e-05
1.61106e-05
1.61114e-05
1.61121e-05
1.61128e-05
1.61135e-05
1.61143e-05
1.6115e-05
1.61158e-05
1.61167e-05
1.61176e-05
1.61187e-05
1.61199e-05
1.61213e-05
1.61228e-05
1.61244e-05
1.61012e-05
1.61016e-05
1.61022e-05
1.6103e-05
1.61039e-05
1.61049e-05
1.61059e-05
1.61068e-05
1.61078e-05
1.61087e-05
1.61096e-05
1.61104e-05
1.61113e-05
1.61121e-05
1.61129e-05
1.61137e-05
1.61146e-05
1.61155e-05
1.61165e-05
1.61175e-05
1.61187e-05
1.612e-05
1.61214e-05
1.6123e-05
1.61029e-05
1.61023e-05
1.61023e-05
1.61026e-05
1.61031e-05
1.61038e-05
1.61045e-05
1.61053e-05
1.61062e-05
1.6107e-05
1.61079e-05
1.61087e-05
1.61096e-05
1.61105e-05
1.61114e-05
1.61123e-05
1.61132e-05
1.61141e-05
1.61152e-05
1.61162e-05
1.61174e-05
1.61187e-05
1.612e-05
1.61215e-05
1.61037e-05
1.61033e-05
1.61032e-05
1.61032e-05
1.61035e-05
1.61038e-05
1.61044e-05
1.6105e-05
1.61057e-05
1.61064e-05
1.61072e-05
1.6108e-05
1.61089e-05
1.61098e-05
1.61107e-05
1.61116e-05
1.61126e-05
1.61136e-05
1.61147e-05
1.61158e-05
1.6117e-05
1.61183e-05
1.61198e-05
1.61058e-05
1.61049e-05
1.61043e-05
1.61039e-05
1.61038e-05
1.61039e-05
1.61041e-05
1.61045e-05
1.61049e-05
1.61054e-05
1.6106e-05
1.61067e-05
1.61075e-05
1.61083e-05
1.61091e-05
1.611e-05
1.6111e-05
1.61119e-05
1.6113e-05
1.61141e-05
1.61153e-05
1.61166e-05
1.61179e-05
1.61061e-05
1.61054e-05
1.6105e-05
1.61047e-05
1.61046e-05
1.61045e-05
1.61046e-05
1.61047e-05
1.6105e-05
1.61053e-05
1.61058e-05
1.61064e-05
1.6107e-05
1.61078e-05
1.61086e-05
1.61094e-05
1.61104e-05
1.61114e-05
1.61125e-05
1.61136e-05
1.61149e-05
1.61162e-05
1.61064e-05
1.61062e-05
1.61059e-05
1.61057e-05
1.61054e-05
1.61051e-05
1.6105e-05
1.61049e-05
1.6105e-05
1.61051e-05
1.61053e-05
1.61057e-05
1.61062e-05
1.61067e-05
1.61074e-05
1.61082e-05
1.6109e-05
1.61099e-05
1.61109e-05
1.6112e-05
1.61132e-05
1.61145e-05
1.61053e-05
1.61058e-05
1.6106e-05
1.61059e-05
1.61057e-05
1.61056e-05
1.61054e-05
1.61053e-05
1.61052e-05
1.61052e-05
1.61053e-05
1.61054e-05
1.61057e-05
1.61061e-05
1.61066e-05
1.61071e-05
1.61078e-05
1.61086e-05
1.61095e-05
1.61104e-05
1.61115e-05
1.61127e-05
1.61042e-05
1.6105e-05
1.61053e-05
1.61055e-05
1.61055e-05
1.61055e-05
1.61055e-05
1.61054e-05
1.61054e-05
1.61053e-05
1.61054e-05
1.61055e-05
1.61057e-05
1.6106e-05
1.61064e-05
1.61069e-05
1.61074e-05
1.61081e-05
1.61089e-05
1.61098e-05
1.61108e-05
1.61013e-05
1.61026e-05
1.61035e-05
1.61042e-05
1.61047e-05
1.6105e-05
1.61051e-05
1.61052e-05
1.61053e-05
1.61053e-05
1.61053e-05
1.61053e-05
1.61054e-05
1.61056e-05
1.61058e-05
1.61061e-05
1.61066e-05
1.61071e-05
1.61077e-05
1.61084e-05
1.61092e-05
1.60973e-05
1.60992e-05
1.61008e-05
1.6102e-05
1.61029e-05
1.61035e-05
1.61041e-05
1.61044e-05
1.61047e-05
1.61048e-05
1.61049e-05
1.6105e-05
1.61051e-05
1.61053e-05
1.61054e-05
1.61056e-05
1.61059e-05
1.61062e-05
1.61067e-05
1.61072e-05
1.61079e-05
1.60958e-05
1.60976e-05
1.60991e-05
1.61003e-05
1.61014e-05
1.61023e-05
1.6103e-05
1.61035e-05
1.61039e-05
1.61042e-05
1.61044e-05
1.61046e-05
1.61048e-05
1.61049e-05
1.61051e-05
1.61053e-05
1.61056e-05
1.61059e-05
1.61063e-05
1.61068e-05
1.60924e-05
1.60942e-05
1.60959e-05
1.60974e-05
1.60988e-05
1.60999e-05
1.61009e-05
1.61017e-05
1.61024e-05
1.61029e-05
1.61033e-05
1.61037e-05
1.6104e-05
1.61042e-05
1.61045e-05
1.61047e-05
1.61049e-05
1.61051e-05
1.61054e-05
1.61058e-05
1.60915e-05
1.60931e-05
1.60946e-05
1.6096e-05
1.60973e-05
1.60984e-05
1.60994e-05
1.61003e-05
1.61011e-05
1.61018e-05
1.61023e-05
1.61028e-05
1.61032e-05
1.61035e-05
1.61038e-05
1.6104e-05
1.61043e-05
1.61045e-05
1.61048e-05
1.60899e-05
1.6091e-05
1.60922e-05
1.60934e-05
1.60946e-05
1.60958e-05
1.60969e-05
1.6098e-05
1.60989e-05
1.60998e-05
1.61005e-05
1.61012e-05
1.61018e-05
1.61022e-05
1.61026e-05
1.61029e-05
1.61032e-05
1.61035e-05
1.61037e-05
1.60893e-05
1.60898e-05
1.60905e-05
1.60915e-05
1.60925e-05
1.60936e-05
1.60946e-05
1.60957e-05
1.60967e-05
1.60976e-05
1.60985e-05
1.60993e-05
1.61e-05
1.61006e-05
1.61011e-05
1.61016e-05
1.6102e-05
1.61023e-05
1.61026e-05
1.60894e-05
1.60897e-05
1.60903e-05
1.6091e-05
1.60918e-05
1.60927e-05
1.60936e-05
1.60945e-05
1.60954e-05
1.60963e-05
1.60972e-05
1.6098e-05
1.60987e-05
1.60993e-05
1.60999e-05
1.61004e-05
1.61008e-05
1.61012e-05
1.60897e-05
1.60896e-05
1.60899e-05
1.60902e-05
1.60907e-05
1.60913e-05
1.6092e-05
1.60927e-05
1.60935e-05
1.60943e-05
1.60952e-05
1.6096e-05
1.60967e-05
1.60974e-05
1.60981e-05
1.60986e-05
1.60991e-05
1.60996e-05
1.60901e-05
1.60899e-05
1.60899e-05
1.60899e-05
1.60901e-05
1.60905e-05
1.60909e-05
1.60914e-05
1.6092e-05
1.60927e-05
1.60934e-05
1.60941e-05
1.60948e-05
1.60955e-05
1.60961e-05
1.60968e-05
1.60973e-05
1.60978e-05
1.60899e-05
1.60898e-05
1.60898e-05
1.60899e-05
1.609e-05
1.60902e-05
1.60905e-05
1.60909e-05
1.60914e-05
1.60919e-05
1.60924e-05
1.6093e-05
1.60937e-05
1.60943e-05
1.60949e-05
1.60955e-05
1.6096e-05
1.60893e-05
1.60895e-05
1.60896e-05
1.60896e-05
1.60897e-05
1.60898e-05
1.60899e-05
1.60901e-05
1.60904e-05
1.60907e-05
1.60911e-05
1.60916e-05
1.60921e-05
1.60926e-05
1.60931e-05
1.60936e-05
1.60877e-05
1.60884e-05
1.60888e-05
1.6089e-05
1.60892e-05
1.60893e-05
1.60894e-05
1.60895e-05
1.60897e-05
1.60899e-05
1.60901e-05
1.60904e-05
1.60908e-05
1.60912e-05
1.60916e-05
1.6092e-05
1.60866e-05
1.60874e-05
1.60879e-05
1.60882e-05
1.60885e-05
1.60886e-05
1.60888e-05
1.6089e-05
1.60891e-05
1.60893e-05
1.60895e-05
1.60897e-05
1.609e-05
1.60903e-05
1.60906e-05
1.60842e-05
1.60853e-05
1.60861e-05
1.60867e-05
1.60872e-05
1.60875e-05
1.60878e-05
1.60881e-05
1.60883e-05
1.60884e-05
1.60886e-05
1.60888e-05
1.60889e-05
1.60891e-05
1.60894e-05
1.60815e-05
1.60828e-05
1.60839e-05
1.60847e-05
1.60855e-05
1.6086e-05
1.60865e-05
1.60869e-05
1.60872e-05
1.60874e-05
1.60877e-05
1.60878e-05
1.6088e-05
1.60881e-05
1.60883e-05
1.60803e-05
1.60816e-05
1.60826e-05
1.60834e-05
1.60842e-05
1.60848e-05
1.60853e-05
1.60858e-05
1.60862e-05
1.60865e-05
1.60867e-05
1.60869e-05
1.60871e-05
1.60872e-05
1.60783e-05
1.60794e-05
1.60804e-05
1.60812e-05
1.60821e-05
1.60828e-05
1.60835e-05
1.60841e-05
1.60846e-05
1.60851e-05
1.60854e-05
1.60857e-05
1.6086e-05
1.60862e-05
1.60768e-05
1.60776e-05
1.60784e-05
1.60792e-05
1.608e-05
1.60808e-05
1.60816e-05
1.60823e-05
1.60829e-05
1.60834e-05
1.60839e-05
1.60843e-05
1.60847e-05
1.60849e-05
1.60764e-05
1.6077e-05
1.60776e-05
1.60783e-05
1.6079e-05
1.60797e-05
1.60804e-05
1.60811e-05
1.60817e-05
1.60822e-05
1.60827e-05
1.60832e-05
1.60835e-05
1.60757e-05
1.6076e-05
1.60765e-05
1.6077e-05
1.60775e-05
1.60781e-05
1.60787e-05
1.60793e-05
1.60799e-05
1.60805e-05
1.6081e-05
1.60815e-05
1.6082e-05
1.60752e-05
1.60754e-05
1.60757e-05
1.6076e-05
1.60764e-05
1.60768e-05
1.60773e-05
1.60778e-05
1.60783e-05
1.60789e-05
1.60794e-05
1.60799e-05
1.60804e-05
1.60749e-05
1.6075e-05
1.60752e-05
1.60754e-05
1.60756e-05
1.60759e-05
1.60763e-05
1.60767e-05
1.60771e-05
1.60775e-05
1.6078e-05
1.60784e-05
1.60789e-05
1.60746e-05
1.60748e-05
1.6075e-05
1.60751e-05
1.60754e-05
1.60756e-05
1.60759e-05
1.60762e-05
1.60765e-05
1.60769e-05
1.60773e-05
1.60777e-05
1.60743e-05
1.60745e-05
1.60747e-05
1.60748e-05
1.6075e-05
1.60752e-05
1.60755e-05
1.60757e-05
1.6076e-05
1.60762e-05
1.60765e-05
1.60768e-05
1.60739e-05
1.60742e-05
1.60744e-05
1.60747e-05
1.60749e-05
1.60751e-05
1.60753e-05
1.60756e-05
1.60758e-05
1.6076e-05
1.60762e-05
1.60738e-05
1.60741e-05
1.60744e-05
1.60747e-05
1.6075e-05
1.60753e-05
1.60755e-05
1.60757e-05
1.6076e-05
1.60762e-05
1.60764e-05
1.60743e-05
1.60747e-05
1.6075e-05
1.60753e-05
1.60757e-05
1.6076e-05
1.60762e-05
1.60765e-05
1.60767e-05
1.60769e-05
1.60749e-05
1.60752e-05
1.60756e-05
1.6076e-05
1.60764e-05
1.60767e-05
1.6077e-05
1.60773e-05
1.60776e-05
1.60778e-05
1.60757e-05
1.60761e-05
1.60765e-05
1.60769e-05
1.60773e-05
1.60777e-05
1.6078e-05
1.60783e-05
1.60786e-05
1.60789e-05
1.60768e-05
1.60772e-05
1.60776e-05
1.6078e-05
1.60783e-05
1.60787e-05
1.6079e-05
1.60794e-05
1.60797e-05
1.60799e-05
1.60777e-05
1.60782e-05
1.60786e-05
1.6079e-05
1.60793e-05
1.60797e-05
1.608e-05
1.60803e-05
1.60806e-05
1.60809e-05
1.6079e-05
1.60794e-05
1.60798e-05
1.60802e-05
1.60805e-05
1.60809e-05
1.60812e-05
1.60815e-05
1.60818e-05
1.60797e-05
1.60801e-05
1.60805e-05
1.60809e-05
1.60813e-05
1.60816e-05
1.6082e-05
1.60823e-05
1.60826e-05
1.60804e-05
1.60809e-05
1.60813e-05
1.60817e-05
1.60821e-05
1.60825e-05
1.60829e-05
1.60832e-05
1.60814e-05
1.60818e-05
1.60823e-05
1.60828e-05
1.60833e-05
1.60837e-05
1.60841e-05
1.60845e-05
1.60827e-05
1.60832e-05
1.60838e-05
1.60843e-05
1.60848e-05
1.60852e-05
1.60857e-05
1.60861e-05
1.60846e-05
1.60851e-05
1.60856e-05
1.60861e-05
1.60866e-05
1.60871e-05
1.60876e-05
1.60881e-05
1.60873e-05
1.60878e-05
1.60883e-05
1.60888e-05
1.60893e-05
1.60898e-05
1.60902e-05
1.60897e-05
1.60902e-05
1.60907e-05
1.60912e-05
1.60917e-05
1.60921e-05
1.60926e-05
1.60916e-05
1.60921e-05
1.60926e-05
1.60931e-05
1.60936e-05
1.60941e-05
1.60946e-05
1.60928e-05
1.60933e-05
1.60938e-05
1.60943e-05
1.60948e-05
1.60952e-05
1.60957e-05
1.60936e-05
1.60941e-05
1.60945e-05
1.60949e-05
1.60953e-05
1.60957e-05
1.60962e-05
1.60941e-05
1.60945e-05
1.60949e-05
1.60953e-05
1.60957e-05
1.60961e-05
1.60965e-05
1.60944e-05
1.60948e-05
1.60952e-05
1.60956e-05
1.6096e-05
1.60964e-05
1.60948e-05
1.60953e-05
1.60958e-05
1.60963e-05
1.60968e-05
1.60973e-05
1.60963e-05
1.6097e-05
1.60977e-05
1.60984e-05
1.6099e-05
1.60997e-05
1.61002e-05
1.61011e-05
1.6102e-05
1.61028e-05
1.61037e-05
1.61035e-05
1.61043e-05
1.61051e-05
1.61059e-05
1.61066e-05
1.61026e-05
1.6103e-05
1.61033e-05
1.61036e-05
1.61039e-05
1.60956e-05
1.60958e-05
1.6096e-05
1.60962e-05
1.60965e-05
1.60928e-05
1.60943e-05
1.60959e-05
1.60974e-05
1.60991e-05
1.60922e-05
1.6093e-05
1.60937e-05
1.60942e-05
1.60947e-05
)
;

boundaryField
{
    inlet
    {
        type            calculated;
        value           uniform 2e-05;
    }
    outlet
    {
        type            calculated;
        value           nonuniform List<scalar> 0();
    }
    walls
    {
        type            calculated;
        value           nonuniform List<scalar> 
28
(
0.000847735
0.00120118
0.00151045
0.00176144
0.00196256
0.00212406
0.0022542
0.00236037
0.00244932
0.00252615
0.00259442
0.00265722
0.0027164
0.00277369
0.00282936
0.00288311
0.00293115
0.00296658
0.0029891
0.00300272
0.00301081
0.00301473
0.00301408
0.00300733
0.00299386
0.00297373
0.00294769
0.00291626
)
;
    }
    frontAndBack
    {
        type            empty;
    }
    procBoundary1to0
    {
        type            processor;
        value           nonuniform List<scalar> 
94
(
1.61166e-05
1.61166e-05
1.61139e-05
1.61139e-05
1.61112e-05
1.61112e-05
1.6109e-05
1.6109e-05
1.6107e-05
1.6107e-05
1.61052e-05
1.61052e-05
1.61023e-05
1.61014e-05
1.61014e-05
1.61005e-05
1.6101e-05
1.6101e-05
1.61021e-05
1.61039e-05
1.61053e-05
1.61053e-05
1.61065e-05
1.61069e-05
1.61069e-05
1.61062e-05
1.61041e-05
1.61021e-05
1.61021e-05
1.60986e-05
1.6095e-05
1.60933e-05
1.60933e-05
1.60908e-05
1.60901e-05
1.60901e-05
1.60893e-05
1.60893e-05
1.60898e-05
1.60898e-05
1.60901e-05
1.60901e-05
1.60897e-05
1.60897e-05
1.60885e-05
1.60865e-05
1.6085e-05
1.6085e-05
1.60825e-05
1.608e-05
1.60789e-05
1.60789e-05
1.60773e-05
1.60762e-05
1.60759e-05
1.60759e-05
1.60754e-05
1.6075e-05
1.60746e-05
1.60744e-05
1.60744e-05
1.6074e-05
1.60736e-05
1.60734e-05
1.6074e-05
1.6074e-05
1.60745e-05
1.60753e-05
1.60763e-05
1.60773e-05
1.60785e-05
1.60785e-05
1.60792e-05
1.60799e-05
1.60809e-05
1.60823e-05
1.60842e-05
1.60869e-05
1.60869e-05
1.60892e-05
1.60911e-05
1.60924e-05
1.60932e-05
1.60938e-05
1.60941e-05
1.60945e-05
1.60957e-05
1.60994e-05
1.60994e-05
1.61027e-05
1.61024e-05
1.60955e-05
1.60913e-05
1.60912e-05
)
;
    }
    procBoundary1to2
    {
        type            processor;
        value           nonuniform List<scalar> 
84
(
0.113013
0.0739648
0.0438044
0.00830037
0.000269625
4.26968e-05
1.18123e-05
1.5803e-05
1.62816e-05
1.61848e-05
1.61454e-05
1.61365e-05
1.61367e-05
1.61355e-05
1.61342e-05
1.61324e-05
1.61301e-05
1.61279e-05
1.61261e-05
1.61246e-05
1.61231e-05
1.61213e-05
1.61193e-05
1.61176e-05
1.61158e-05
1.61139e-05
1.61119e-05
1.61101e-05
1.61086e-05
1.61073e-05
1.61062e-05
1.61051e-05
1.6104e-05
1.61029e-05
1.61016e-05
1.61001e-05
1.60984e-05
1.60966e-05
1.60942e-05
1.60942e-05
1.60924e-05
1.60909e-05
1.60896e-05
1.60884e-05
1.60874e-05
1.60863e-05
1.60852e-05
1.60839e-05
1.60824e-05
1.60808e-05
1.60794e-05
1.60781e-05
1.60771e-05
1.60764e-05
1.60764e-05
1.60765e-05
1.60771e-05
1.6078e-05
1.60791e-05
1.60802e-05
1.60812e-05
1.6082e-05
1.60829e-05
1.60836e-05
1.60836e-05
1.60849e-05
1.60865e-05
1.60885e-05
1.60906e-05
1.60929e-05
1.6095e-05
1.60961e-05
1.60965e-05
1.60968e-05
1.60967e-05
1.60967e-05
1.60977e-05
1.61003e-05
1.61044e-05
1.61073e-05
1.6104e-05
1.60967e-05
1.61005e-05
1.6095e-05
)
;
    }
    procBoundary1to5
    {
        type            processor;
        value           nonuniform List<scalar> 
13
(
1.7638e-05
1.7638e-05
1.5957e-05
1.61397e-05
1.61397e-05
1.61003e-05
1.61076e-05
1.61076e-05
1.61109e-05
1.61135e-05
1.61157e-05
1.61157e-05
1.61145e-05
)
;
    }
}


// ************************************************************************* //
