/*--------------------------------*- C++ -*----------------------------------*\
| =========                 |                                                 |
| \\      /  F ield         | OpenFOAM: The Open Source CFD Toolbox           |
|  \\    /   O peration     | Version:  2306                                  |
|   \\  /    A nd           | Website:  www.openfoam.com                      |
|    \\/     M anipulation  |                                                 |
\*---------------------------------------------------------------------------*/
FoamFile
{
    version     2.0;
    format      ascii;
    arch        "LSB;label=32;scalar=64";
    class       volSymmTensorField;
    location    "75";
    object      turbulenceProperties:devReff;
}
// * * * * * * * * * * * * * * * * * * * * * * * * * * * * * * * * * * * * * //

dimensions      [0 2 -2 0 0 0 0];

internalField   nonuniform List<symmTensor> 
1340
(
(0.00059695 0.000649546 1.72721e-19 -0.00058188 -1.7108e-19 -1.50701e-05)
(0.000895222 0.000788369 1.61145e-19 -0.000898441 -5.70592e-20 3.21944e-06)
(0.00132598 0.00110026 -8.69073e-20 -0.00134124 2.644e-21 1.52553e-05)
(0.00194446 0.00169291 -4.73658e-20 -0.00197407 1.53437e-19 2.96068e-05)
(0.00283363 0.00272307 3.26731e-19 -0.00288133 1.38954e-20 4.77037e-05)
(0.00406678 0.00441255 5.12092e-19 -0.00414163 -1.02927e-19 7.48445e-05)
(0.00569212 0.00701116 -1.32237e-19 -0.00580293 -1.75741e-19 0.000110809)
(0.00774268 0.0107507 1.26821e-19 -0.00788837 -1.89926e-19 0.000145692)
(0.0102716 0.0160322 2.66414e-19 -0.0104672 -1.03925e-19 0.00019558)
(0.0135394 0.0235774 -3.95976e-19 -0.01379 5.68193e-19 0.00025059)
(0.0180007 0.0348375 8.4782e-19 -0.0183314 1.15263e-19 0.00033071)
(0.0245304 0.0525379 4.00832e-19 -0.0249718 -8.86354e-19 0.000441358)
(0.0343224 0.0815154 -1.83825e-18 -0.0349568 -2.22675e-20 0.000634421)
(0.0499614 0.1321 -5.95118e-18 -0.0509174 -6.17415e-19 0.000956023)
(0.0743966 0.22182 -3.38031e-18 -0.0759676 -2.3888e-19 0.00157094)
(0.115887 0.398354 8.42214e-18 -0.118743 -1.50623e-18 0.00285531)
(0.176771 0.732103 -1.5109e-17 -0.182517 2.03045e-18 0.00574576)
(0.28484 1.50305 5.93911e-18 -0.297431 3.39908e-18 0.0125905)
(0.424726 3.04005 -1.84999e-16 -0.450643 2.22411e-17 0.0259171)
(0.635483 6.91414 -1.07181e-16 -0.696634 -1.36092e-17 0.0611513)
(0.565857 12.3765 8.71824e-17 -0.672485 -1.23426e-17 0.106628)
(0.013994 15.8426 1.04436e-17 -0.134286 1.76655e-18 0.120292)
(-0.715997 17.078 5.15705e-17 0.608987 -4.56557e-17 0.107009)
(-1.4266 17.3327 -5.09241e-16 1.33827 2.71691e-17 0.0883348)
(-2.07727 17.2722 1.58494e-16 2.00468 5.76817e-17 0.0725933)
(-2.66031 17.0504 -2.24813e-15 2.59981 -3.68006e-16 0.0604973)
(-3.17003 16.7028 -3.9469e-15 3.11891 7.61993e-16 0.0511214)
(-3.60998 16.2582 1.33155e-15 3.56578 3.62371e-16 0.0442077)
(0.000180335 0.000390712 -5.1763e-20 -0.000193674 -1.72547e-19 1.33385e-05)
(5.67721e-05 0.000384336 -2.63595e-19 -6.60476e-05 1.07247e-19 9.27554e-06)
(-5.12589e-05 0.000339104 6.25222e-20 5.04487e-05 1.01592e-19 8.1024e-07)
(-0.000120825 0.000271145 -3.40988e-20 0.000129048 -5.86539e-20 -8.2229e-06)
(-0.00015161 0.000201855 -4.36478e-20 0.000167084 -4.93004e-20 -1.54733e-05)
(-0.000155588 0.000143627 -4.93314e-20 0.000175996 -3.9508e-20 -2.04087e-05)
(-0.000144551 9.95647e-05 -4.89299e-21 0.000167908 1.66917e-20 -2.33572e-05)
(-0.000126347 6.92132e-05 2.80065e-20 0.000151066 5.75468e-20 -2.47192e-05)
(-0.000106561 5.00696e-05 5.75268e-20 0.000131366 8.23461e-21 -2.4805e-05)
(-8.8459e-05 3.84864e-05 -9.81708e-20 0.000112452 1.112e-20 -2.39928e-05)
(-7.28422e-05 3.18494e-05 9.88079e-20 9.54698e-05 -6.96031e-21 -2.26276e-05)
(-6.00325e-05 2.82161e-05 -1.83615e-20 8.10205e-05 -1.25504e-20 -2.09881e-05)
(-4.97096e-05 2.60541e-05 -4.50847e-20 6.89299e-05 3.405e-20 -1.92203e-05)
(-4.14711e-05 2.45601e-05 -3.37478e-20 5.89892e-05 1.76956e-20 -1.75182e-05)
(-3.49648e-05 2.32675e-05 -7.9875e-20 5.10037e-05 3.95896e-20 -1.60388e-05)
(-3.02881e-05 2.21978e-05 -1.0227e-19 4.53798e-05 2.80252e-20 -1.50917e-05)
(-2.74332e-05 2.1604e-05 -1.32183e-19 4.25262e-05 1.73216e-20 -1.5093e-05)
(-2.55233e-05 2.19098e-05 6.39046e-20 4.16036e-05 -6.43588e-21 -1.60804e-05)
(-5.05254e-05 5.14113e-05 -1.17873e-20 8.77317e-05 -5.05987e-21 -3.72063e-05)
(-0.000485465 0.000606923 1.17241e-18 0.000893751 -3.64639e-19 -0.000408285)
(-0.00288934 0.0042962 6.8638e-18 0.00554739 -7.94066e-21 -0.00265805)
(-0.0146807 0.0261261 1.27662e-18 0.0288849 2.68798e-18 -0.0142041)
(-0.0346997 0.0773206 -5.50314e-19 0.0686997 -9.13756e-19 -0.034)
(-0.0527422 0.150877 7.09921e-17 0.102368 1.73503e-17 -0.0496258)
(-0.0648184 0.230792 4.9972e-16 0.118942 -4.8899e-17 -0.0541241)
(-0.0732062 0.300362 3.02204e-16 0.122816 3.25478e-17 -0.0496098)
(-0.0819831 0.354099 2.0829e-15 0.123927 3.68153e-17 -0.0419437)
(-0.0932273 0.395532 2.94551e-15 0.128279 -7.03488e-16 -0.0350514)
(-0.107537 0.428679 -7.40029e-16 0.137635 2.83767e-16 -0.0300978)
(0.000167824 0.000303815 6.62762e-20 -0.000169286 1.35557e-19 1.46134e-06)
(7.1971e-05 0.000309362 1.3562e-19 -7.27583e-05 8.16066e-20 7.87229e-07)
(-1.09468e-05 0.000281862 7.63618e-20 9.94935e-06 -9.51738e-20 9.9744e-07)
(-6.9882e-05 0.000232852 4.90794e-20 6.72766e-05 6.14284e-20 2.60542e-06)
(-0.000102601 0.000176765 -8.31942e-20 9.7702e-05 2.74442e-20 4.89873e-06)
(-0.000114206 0.000124309 5.01203e-22 0.000106918 4.56061e-20 7.28801e-06)
(-0.000111725 8.04388e-05 3.914e-20 0.000102163 -5.78692e-20 9.56233e-06)
(-0.000100939 4.67273e-05 1.34267e-19 8.93196e-05 -7.30481e-20 1.16196e-05)
(-8.69557e-05 2.28976e-05 -6.88766e-21 7.38702e-05 -3.80427e-21 1.30855e-05)
(-7.29271e-05 6.71695e-06 -9.34284e-21 5.87685e-05 3.23869e-20 1.41586e-05)
(-6.04534e-05 -3.74751e-06 1.06807e-19 4.56705e-05 -7.30979e-20 1.47828e-05)
(-5.00923e-05 -1.03913e-05 1.07821e-20 3.49976e-05 6.20552e-21 1.50948e-05)
(-4.1994e-05 -1.46788e-05 1.10892e-19 2.69088e-05 -1.63693e-20 1.50852e-05)
(-3.56401e-05 -1.78034e-05 1.15332e-19 2.06571e-05 4.63897e-22 1.4983e-05)
(-3.05955e-05 -2.03987e-05 2.93427e-19 1.58201e-05 -4.53823e-20 1.47754e-05)
(-2.62054e-05 -2.31122e-05 3.60304e-19 1.15595e-05 -5.53756e-20 1.46459e-05)
(-2.16266e-05 -2.62732e-05 1.99102e-19 6.99161e-06 -1.39096e-20 1.4635e-05)
(-1.53429e-05 -2.93846e-05 4.23226e-20 1.32228e-07 -3.182e-21 1.52107e-05)
(-7.32058e-06 -3.0421e-05 -4.99498e-20 -8.90727e-06 3.09343e-21 1.62279e-05)
(4.90779e-07 -2.87963e-05 1.95688e-19 -1.76957e-05 -9.09853e-22 1.7205e-05)
(6.6956e-06 -2.46035e-05 -5.3691e-20 -2.4238e-05 9.70597e-21 1.75424e-05)
(9.50134e-06 -1.73757e-05 -3.67098e-20 -2.50259e-05 -3.48364e-22 1.55245e-05)
(0.000191003 -0.000201484 8.30447e-20 -0.000442574 1.00458e-20 0.000251571)
(0.000911705 -0.000361424 -2.66966e-18 -0.00198539 3.58722e-19 0.00107369)
(0.00216955 0.00129744 -1.40605e-17 -0.00463027 6.41377e-18 0.00246071)
(0.0027369 0.00851656 -7.77626e-17 -0.00617701 -3.03088e-18 0.00344011)
(0.00106617 0.0245851 -1.82058e-16 -0.00433341 4.771e-17 0.00326724)
(-0.00368759 0.0505299 -4.34268e-16 0.00158002 5.88295e-17 0.00210757)
(-0.0116797 0.0848297 -9.94355e-16 0.0110097 -3.33745e-16 0.000669969)
(0.000216125 0.000195813 7.36574e-20 -0.000216 -5.26688e-20 -1.24628e-07)
(0.00014842 0.00022919 4.57153e-20 -0.000149026 -1.64065e-21 6.06024e-07)
(7.68409e-05 0.000239186 -1.12456e-19 -7.77585e-05 -6.16945e-20 9.17588e-07)
(1.18239e-05 0.000226293 -4.82114e-20 -1.27394e-05 4.66344e-21 9.15483e-07)
(-3.92483e-05 0.000197286 1.54774e-19 3.86096e-05 1.36684e-20 6.38618e-07)
(-7.31798e-05 0.000160506 4.83483e-20 7.33022e-05 -7.19243e-21 -1.22489e-07)
(-9.13548e-05 0.000123266 7.24959e-20 9.25965e-05 -3.94583e-20 -1.2417e-06)
(-9.74663e-05 8.99975e-05 -1.47782e-19 9.99368e-05 -2.65307e-20 -2.47047e-06)
(-9.5442e-05 6.28122e-05 -1.43561e-19 9.91341e-05 3.65601e-20 -3.69213e-06)
(-8.88352e-05 4.23629e-05 2.45815e-20 9.37389e-05 2.10405e-20 -4.9037e-06)
(-8.03924e-05 2.76641e-05 3.848e-20 8.63151e-05 -1.09613e-20 -5.92279e-06)
(-7.18098e-05 1.75255e-05 -1.21944e-19 7.85655e-05 9.54196e-21 -6.75567e-06)
(-6.39541e-05 1.06382e-05 4.10005e-21 7.13292e-05 -1.1082e-20 -7.37516e-06)
(-5.72494e-05 5.84157e-06 -4.04031e-20 6.50747e-05 -1.06022e-22 -7.82528e-06)
(-5.16221e-05 2.12954e-06 9.85613e-20 5.96866e-05 -3.46803e-20 -8.06457e-06)
(-4.68953e-05 -1.08686e-06 -1.12279e-19 5.50921e-05 -3.0358e-21 -8.19684e-06)
(-4.27052e-05 -4.30925e-06 -2.05777e-19 5.09434e-05 1.08343e-20 -8.23821e-06)
(-3.85285e-05 -7.80743e-06 2.22272e-20 4.67813e-05 -1.0094e-20 -8.25284e-06)
(-3.35896e-05 -1.12201e-05 6.14517e-20 4.18022e-05 -9.76345e-21 -8.21251e-06)
(-2.81533e-05 -1.3256e-05 1.60236e-19 3.65257e-05 -1.2791e-20 -8.3724e-06)
(-2.33126e-05 -1.35665e-05 -1.57417e-19 3.21814e-05 1.75923e-20 -8.86881e-06)
(-2.01303e-05 -1.34049e-05 -2.35248e-20 2.98365e-05 -5.90128e-21 -9.7062e-06)
(-1.67907e-05 -1.22973e-05 1.61212e-20 2.67432e-05 -4.43675e-21 -9.95255e-06)
(-1.32756e-05 -1.0568e-05 -7.48983e-21 2.26442e-05 8.57027e-22 -9.36859e-06)
(-1.39407e-05 -1.22883e-05 -1.35898e-20 2.53433e-05 -1.15934e-20 -1.14026e-05)
(-4.70901e-06 -4.82592e-06 -1.01337e-20 9.15378e-06 -7.41979e-21 -4.44476e-06)
(-2.82227e-06 -3.48979e-06 3.79083e-20 6.05157e-06 3.15983e-21 -3.2293e-06)
(-4.33365e-05 -6.12846e-05 3.66845e-18 0.000116348 1.05702e-18 -7.3011e-05)
(1.62674e-06 0.000104131 3.05733e-17 0.000124051 -4.19139e-19 -0.000125677)
(0.000202952 0.00133277 1.10033e-16 -0.0001734 -1.07909e-17 -2.95516e-05)
(0.000179412 0.00014688 -1.64271e-19 -0.000179045 1.08512e-19 -3.6682e-07)
(0.000129516 0.000176462 2.18986e-19 -0.000129635 5.79365e-20 1.19069e-07)
(7.54208e-05 0.000189266 -9.63996e-20 -7.56186e-05 -1.25321e-19 1.97867e-07)
(2.4487e-05 0.000185041 -6.84653e-20 -2.46558e-05 2.05934e-20 1.68864e-07)
(-1.79431e-05 0.000167511 -4.26851e-20 1.76776e-05 -7.70571e-20 2.65528e-07)
(-4.86071e-05 0.000141784 6.92814e-21 4.82161e-05 2.97672e-20 3.90962e-07)
(-6.72888e-05 0.000113191 -4.61926e-20 6.67144e-05 -3.08523e-20 5.74411e-07)
(-7.58833e-05 8.56435e-05 -9.82888e-20 7.50044e-05 8.98826e-20 8.78879e-07)
(-7.69586e-05 6.14545e-05 1.1145e-19 7.56733e-05 1.83495e-20 1.28527e-06)
(-7.31097e-05 4.18069e-05 7.54392e-20 7.13744e-05 -2.95703e-20 1.7353e-06)
(-6.66766e-05 2.6647e-05 -1.53961e-20 6.44514e-05 -1.88548e-20 2.22526e-06)
(-5.93257e-05 1.5396e-05 4.41363e-20 5.66025e-05 1.43835e-21 2.72321e-06)
(-5.21093e-05 7.19951e-06 -7.43618e-20 4.89183e-05 1.78012e-20 3.19105e-06)
(-4.56103e-05 1.2106e-06 5.26299e-20 4.2022e-05 -5.67304e-21 3.58827e-06)
(-3.99727e-05 -3.37433e-06 -6.31496e-20 3.60513e-05 -9.92143e-21 3.92142e-06)
(-3.51204e-05 -7.14158e-06 6.89825e-20 3.09581e-05 -4.19123e-21 4.16233e-06)
(-3.07543e-05 -1.0548e-05 7.98004e-20 2.64207e-05 3.22167e-22 4.3336e-06)
(-2.64129e-05 -1.38278e-05 -1.40988e-20 2.19739e-05 4.50289e-21 4.43902e-06)
(-2.14088e-05 -1.6746e-05 -1.59353e-19 1.68161e-05 1.1862e-20 4.59278e-06)
(-1.57439e-05 -1.84126e-05 -5.24974e-20 1.09559e-05 3.88504e-21 4.78804e-06)
(-1.03398e-05 -1.85524e-05 -1.66915e-20 5.39548e-06 -6.48454e-21 4.94434e-06)
(-5.63958e-06 -1.77661e-05 6.41053e-20 4.04941e-07 -3.60335e-21 5.23464e-06)
(-1.65006e-06 -1.66027e-05 8.59894e-22 -4.0353e-06 1.26189e-21 5.68536e-06)
(1.67309e-06 -1.48259e-05 -2.70485e-21 -7.66532e-06 -1.13632e-21 5.99222e-06)
(4.30429e-06 -1.35721e-05 4.25171e-20 -1.06436e-05 4.67203e-21 6.33926e-06)
(5.82155e-06 -1.20087e-05 2.74513e-20 -1.18155e-05 1.80228e-21 5.99392e-06)
(3.92763e-06 -6.54062e-06 -9.57063e-20 -7.09853e-06 -1.20768e-20 3.1709e-06)
(3.12276e-05 -4.69542e-05 -1.85934e-18 -5.12355e-05 -9.5773e-20 2.00079e-05)
(0.00013466 -0.000193611 -1.66374e-18 -0.00019999 1.43546e-18 6.53301e-05)
(6.72562e-05 -9.33636e-05 5.27015e-19 -8.96519e-05 8.6593e-19 2.23957e-05)
(0.000178874 7.78044e-05 -2.11604e-20 -0.000178558 4.10736e-20 -3.16356e-07)
(0.000149622 0.000112243 1.39559e-19 -0.000149389 7.50329e-20 -2.32523e-07)
(0.000112194 0.000137897 -8.37913e-20 -0.000112269 -1.11128e-19 7.49905e-08)
(7.07261e-05 0.000151157 9.51973e-21 -7.08372e-05 6.43014e-20 1.11108e-07)
(3.0541e-05 0.000151611 -6.06867e-20 -3.06435e-05 4.43574e-21 1.02563e-07)
(-4.5426e-06 0.000141527 -1.36211e-19 4.37487e-06 6.36086e-21 1.67729e-07)
(-3.17676e-05 0.000124141 1.20814e-19 3.16028e-05 -1.26471e-22 1.64813e-07)
(-5.03e-05 0.000103198 -3.78652e-20 5.02149e-05 2.87944e-20 8.51007e-08)
(-6.10003e-05 8.17674e-05 6.94768e-20 6.10309e-05 2.20094e-20 -3.06597e-08)
(-6.53799e-05 6.19183e-05 2.17224e-20 6.55788e-05 -3.75927e-20 -1.98935e-07)
(-6.51512e-05 4.4943e-05 -2.09403e-20 6.55718e-05 -2.24645e-20 -4.20652e-07)
(-6.20998e-05 3.11983e-05 -7.43702e-20 6.27787e-05 2.4033e-20 -6.78924e-07)
(-5.75931e-05 2.05425e-05 -7.76982e-20 5.85479e-05 2.91732e-20 -9.5474e-07)
(-5.2608e-05 1.24819e-05 3.67044e-20 5.38406e-05 -5.46603e-21 -1.2326e-06)
(-4.77492e-05 6.41095e-06 -1.74118e-20 4.92501e-05 -6.07697e-21 -1.50083e-06)
(-4.32862e-05 1.67912e-06 -6.9516e-20 4.50301e-05 5.20771e-21 -1.74395e-06)
(-3.92401e-05 -2.22407e-06 -7.26451e-20 4.12014e-05 -3.18898e-21 -1.96136e-06)
(-3.54361e-05 -5.72097e-06 -5.86354e-20 3.75767e-05 6.62062e-21 -2.14059e-06)
(-3.15506e-05 -9.04352e-06 7.07081e-20 3.3834e-05 -1.6111e-20 -2.28348e-06)
(-2.71401e-05 -1.2037e-05 -2.42586e-20 2.951e-05 8.087e-21 -2.3699e-06)
(-2.22348e-05 -1.39999e-05 -9.75472e-20 2.46856e-05 8.10131e-21 -2.45084e-06)
(-1.75591e-05 -1.46143e-05 1.35838e-19 2.01805e-05 -6.30346e-21 -2.62133e-06)
(-1.36105e-05 -1.43436e-05 7.92741e-21 1.64317e-05 4.47258e-21 -2.82118e-06)
(-1.04256e-05 -1.3617e-05 1.87676e-21 1.34652e-05 6.07535e-22 -3.03956e-06)
(-7.89635e-06 -1.25959e-05 3.74356e-21 1.12131e-05 -2.12414e-22 -3.31673e-06)
(-5.95756e-06 -1.13658e-05 -4.90415e-20 9.60286e-06 2.91116e-21 -3.6453e-06)
(-4.46725e-06 -1.01295e-05 -2.51049e-20 8.36783e-06 1.13981e-20 -3.90059e-06)
(-3.10016e-06 -8.69639e-06 1.46139e-19 6.94506e-06 -3.42378e-20 -3.8449e-06)
(-1.72593e-06 -6.81936e-06 1.01508e-19 5.00668e-06 -4.70789e-20 -3.28075e-06)
(-5.05592e-07 -4.43919e-06 -6.5123e-20 2.70437e-06 -2.6349e-20 -2.19877e-06)
(2.39632e-07 -3.15687e-06 6.53333e-20 1.2694e-06 6.44044e-21 -1.50903e-06)
(0.00014765 5.88971e-05 1.58337e-21 -0.000147409 -2.09575e-20 -2.4146e-07)
(0.000125739 8.73287e-05 -4.41981e-20 -0.000125597 1.38533e-20 -1.41989e-07)
(9.70975e-05 0.00010941 6.57077e-20 -9.71233e-05 2.36185e-20 2.57787e-08)
(6.48144e-05 0.000122202 1.15043e-19 -6.48438e-05 2.96624e-20 2.94463e-08)
(3.28177e-05 0.000125236 7.19271e-20 -3.28265e-05 -7.04803e-21 8.81093e-09)
(3.89081e-06 0.00011989 -4.58345e-20 -3.95337e-06 2.68377e-20 6.25618e-08)
(-1.96891e-05 0.000108243 -9.61403e-20 1.96056e-05 -2.44732e-20 8.35427e-08)
(-3.68993e-05 9.29032e-05 8.2745e-20 3.68088e-05 2.94266e-20 9.04948e-08)
(-4.80252e-05 7.61919e-05 6.7482e-21 4.79065e-05 -4.45083e-20 1.18756e-07)
(-5.38909e-05 5.9835e-05 1.791e-21 5.37357e-05 -1.86289e-20 1.55176e-07)
(-5.55693e-05 4.50744e-05 -6.65092e-20 5.5373e-05 2.28548e-20 1.963e-07)
(-5.43673e-05 3.24646e-05 4.74725e-20 5.41107e-05 1.91781e-20 2.56676e-07)
(-5.13717e-05 2.21579e-05 1.56568e-19 5.10314e-05 -3.76519e-21 3.40267e-07)
(-4.74676e-05 1.39566e-05 -6.91982e-20 4.70243e-05 6.31944e-21 4.43345e-07)
(-4.32793e-05 7.49394e-06 -1.26254e-20 4.27221e-05 1.05829e-22 5.57242e-07)
(-3.91562e-05 2.31217e-06 -9.2276e-20 3.84764e-05 3.61929e-20 6.79875e-07)
(-3.52231e-05 -1.9909e-06 -5.89746e-20 3.44238e-05 7.73439e-21 7.99263e-07)
(-3.1409e-05 -5.7511e-06 6.72061e-20 3.04997e-05 3.79318e-21 9.09261e-07)
(-2.74927e-05 -9.15196e-06 -1.69522e-19 2.6483e-05 1.81917e-20 1.00975e-06)
(-2.31411e-05 -1.20947e-05 6.4081e-20 2.20103e-05 -4.03221e-21 1.1308e-06)
(-1.83457e-05 -1.40724e-05 1.07289e-19 1.70778e-05 -6.57279e-21 1.26795e-06)
(-1.36645e-05 -1.4808e-05 -4.82153e-20 1.23069e-05 4.81107e-21 1.3576e-06)
(-9.53961e-06 -1.46409e-05 -4.83967e-20 8.09072e-06 1.49746e-21 1.44889e-06)
(-6.02816e-06 -1.39508e-05 -1.08026e-20 4.44085e-06 -2.79449e-22 1.58731e-06)
(-3.04756e-06 -1.29009e-05 -1.09842e-21 1.28981e-06 7.05161e-23 1.75775e-06)
(-5.53548e-07 -1.15925e-05 4.5419e-21 -1.40419e-06 -5.94722e-21 1.95774e-06)
(1.46538e-06 -1.01675e-05 -7.21544e-20 -3.64506e-06 -1.16644e-20 2.17969e-06)
(2.96866e-06 -8.7718e-06 1.72003e-19 -5.29435e-06 6.35288e-20 2.3257e-06)
(3.98181e-06 -7.40302e-06 3.86897e-21 -6.33185e-06 3.10707e-20 2.35004e-06)
(4.53987e-06 -6.10266e-06 1.17784e-19 -6.76241e-06 -2.28196e-21 2.22254e-06)
(4.04212e-06 -4.23063e-06 4.00528e-20 -5.72924e-06 3.41279e-20 1.68712e-06)
(0.000123122 4.52466e-05 -2.36377e-21 -0.000122939 1.13575e-20 -1.82961e-07)
(0.000106355 6.89812e-05 -1.17638e-20 -0.000106281 -5.16281e-20 -7.38771e-08)
(8.40713e-05 8.79427e-05 -2.23733e-19 -8.40879e-05 -5.83924e-20 1.66173e-08)
(5.85913e-05 9.98133e-05 5.91235e-20 -5.85966e-05 5.32309e-20 5.33048e-09)
(3.28771e-05 0.000104135 -1.40973e-20 -3.28654e-05 4.98803e-21 -1.16925e-08)
(8.99379e-06 0.000101781 1.21147e-19 -9.02948e-06 1.82544e-20 3.56848e-08)
(-1.12253e-05 9.41163e-05 -2.32497e-20 1.11767e-05 3.62341e-20 4.85597e-08)
(-2.68121e-05 8.29926e-05 5.64055e-20 2.67706e-05 -1.86482e-20 4.14831e-08)
(-3.77572e-05 7.01448e-05 -6.12898e-20 3.77124e-05 1.94221e-20 4.47983e-08)
(-4.44848e-05 5.69402e-05 -8.0663e-20 4.44491e-05 2.30496e-20 3.56894e-08)
(-4.76348e-05 4.44575e-05 2.90986e-20 4.76265e-05 3.4982e-21 8.23668e-09)
(-4.81179e-05 3.33147e-05 3.95068e-20 4.81466e-05 -1.26663e-20 -2.86728e-08)
(-4.67469e-05 2.38116e-05 4.08586e-20 4.68204e-05 -4.32736e-20 -7.35071e-08)
(-4.42571e-05 1.59465e-05 4.17811e-20 4.43861e-05 7.59292e-21 -1.29037e-07)
(-4.12036e-05 9.54903e-06 -4.08628e-20 4.13977e-05 1.66893e-20 -1.94036e-07)
(-3.79494e-05 4.31122e-06 1.61982e-19 3.82132e-05 -7.59553e-21 -2.63829e-07)
(-3.46604e-05 -7.37215e-08 -4.33206e-20 3.49935e-05 1.39726e-20 -3.33089e-07)
(-3.13346e-05 -3.88069e-06 8.26088e-20 3.17365e-05 -1.85564e-20 -4.0188e-07)
(-2.78351e-05 -7.26732e-06 1.10685e-19 2.83001e-05 -4.73991e-21 -4.64951e-07)
(-2.39454e-05 -1.01808e-05 4.59986e-22 2.44536e-05 -7.6487e-21 -5.0819e-07)
(-1.9678e-05 -1.22469e-05 -3.02697e-20 2.02194e-05 -1.59078e-21 -5.4138e-07)
(-1.54689e-05 -1.32144e-05 -2.7947e-20 1.60848e-05 6.01004e-22 -6.1595e-07)
(-1.17197e-05 -1.33137e-05 6.5909e-21 1.24309e-05 -1.19047e-21 -7.11292e-07)
(-8.53393e-06 -1.28777e-05 1.1824e-20 9.32739e-06 -6.4522e-22 -7.93463e-07)
(-5.87378e-06 -1.20772e-05 4.86865e-21 6.75502e-06 2.06025e-22 -8.81239e-07)
(-3.72713e-06 -1.10242e-05 1.45348e-20 4.7236e-06 1.04621e-21 -9.96467e-07)
(-2.08559e-06 -9.83606e-06 4.78813e-20 3.23131e-06 -9.40281e-21 -1.14572e-06)
(-8.40565e-07 -8.61511e-06 -3.08915e-19 2.10958e-06 2.44552e-21 -1.26901e-06)
(1.01563e-07 -7.4404e-06 -1.13493e-19 1.2391e-06 -3.5318e-20 -1.34066e-06)
(8.3366e-07 -6.35986e-06 -1.49974e-20 5.23275e-07 6.19527e-20 -1.35694e-06)
(1.45576e-06 -5.49772e-06 -1.62186e-19 -1.19378e-07 -1.11987e-20 -1.33639e-06)
(0.00011155 1.32893e-05 -9.14276e-20 -0.000111394 -4.94042e-20 -1.56032e-07)
(0.000103579 3.519e-05 -5.5891e-20 -0.000103448 -2.48982e-20 -1.31436e-07)
(9.05424e-05 5.51492e-05 -2.19136e-20 -9.05075e-05 1.19411e-20 -3.48833e-08)
(7.29287e-05 7.1483e-05 2.19006e-20 -7.29472e-05 7.22994e-20 1.85177e-08)
(5.25654e-05 8.23049e-05 8.24055e-20 -5.25598e-05 2.66585e-20 -5.59854e-09)
(3.17094e-05 8.71769e-05 5.97287e-20 -3.16884e-05 -3.68063e-20 -2.09414e-08)
(1.19125e-05 8.67019e-05 -6.07242e-20 -1.19268e-05 -3.2797e-20 1.43255e-08)
(-5.34038e-06 8.17956e-05 1.66752e-19 5.31743e-06 -1.39751e-20 2.29484e-08)
(-1.91897e-05 7.37823e-05 -1.56396e-20 1.917e-05 -5.03985e-20 1.96781e-08)
(-2.951e-05 6.39551e-05 1.39561e-19 2.94803e-05 6.7874e-21 2.97971e-08)
(-3.64776e-05 5.33768e-05 9.07104e-20 3.64402e-05 4.37166e-21 3.74906e-08)
(-4.04424e-05 4.29385e-05 -5.16643e-20 4.04049e-05 -8.62417e-21 3.75153e-08)
(-4.20191e-05 3.32152e-05 7.1767e-21 4.19769e-05 -1.49786e-20 4.22254e-08)
(-4.17828e-05 2.45769e-05 -1.27906e-19 4.17356e-05 1.31716e-20 4.7171e-08)
(-4.03067e-05 1.71389e-05 -7.95116e-21 4.0251e-05 -9.41291e-21 5.5606e-08)
(-3.80635e-05 1.08626e-05 8.7161e-20 3.79942e-05 -2.78494e-21 6.92443e-08)
(-3.53974e-05 5.58459e-06 3.19901e-21 3.53101e-05 -1.29375e-20 8.72789e-08)
(-3.25051e-05 1.10069e-06 7.14693e-20 3.23957e-05 3.12067e-21 1.09461e-07)
(-2.94407e-05 -2.79593e-06 -8.79984e-20 2.93064e-05 -9.92806e-22 1.34303e-07)
(-2.61375e-05 -6.21869e-06 -6.4049e-20 2.59728e-05 -1.94437e-21 1.64724e-07)
(-2.24644e-05 -9.12965e-06 -1.2832e-19 2.22574e-05 7.85062e-21 2.07051e-07)
(-1.84428e-05 -1.12554e-05 -9.34471e-20 1.81806e-05 7.09888e-21 2.62181e-07)
(-1.44097e-05 -1.23784e-05 -9.01626e-21 1.4111e-05 -3.06126e-23 2.98682e-07)
(-1.07207e-05 -1.26524e-05 -3.60657e-20 1.03972e-05 4.95113e-22 3.23436e-07)
(-7.50388e-06 -1.2359e-05 -5.15242e-22 7.13566e-06 6.31039e-22 3.68224e-07)
(-4.74663e-06 -1.16671e-05 -4.59462e-21 4.31852e-06 3.60959e-22 4.28113e-07)
(-2.44282e-06 -1.06827e-05 -9.3532e-22 1.95293e-06 1.65853e-21 4.89884e-07)
(-5.70449e-07 -9.52725e-06 3.71409e-20 2.37931e-09 1.00292e-20 5.6807e-07)
(8.87412e-07 -8.3136e-06 6.14534e-21 -1.52812e-06 -2.3993e-20 6.40708e-07)
(1.98004e-06 -7.12254e-06 2.40241e-19 -2.67666e-06 2.79176e-21 6.96616e-07)
(2.78256e-06 -6.0191e-06 -3.92013e-19 -3.507e-06 -7.55558e-20 7.24443e-07)
(3.37068e-06 -5.03954e-06 3.5668e-20 -4.09967e-06 -4.63981e-20 7.28993e-07)
(8.77779e-05 2.7659e-05 -1.6051e-19 -8.7683e-05 7.89403e-21 -9.48701e-08)
(7.75006e-05 4.45687e-05 2.37681e-19 -7.74896e-05 1.23421e-19 -1.10865e-08)
(6.34036e-05 5.86728e-05 1.4618e-19 -6.34208e-05 -3.25213e-21 1.72698e-08)
(4.6947e-05 6.84291e-05 9.56336e-20 -4.69383e-05 -2.17442e-20 -8.65638e-09)
(2.98776e-05 7.34421e-05 -1.77143e-19 -2.98552e-05 -3.48748e-20 -2.24001e-08)
(1.33946e-05 7.41182e-05 -1.09821e-19 -1.34007e-05 -2.20088e-21 6.08643e-09)
(-1.30169e-06 7.11083e-05 -2.16915e-19 1.29168e-06 -2.87019e-20 1.00123e-08)
(-1.34781e-05 6.53858e-05 -2.18164e-19 1.34694e-05 2.71394e-20 8.77957e-09)
(-2.29678e-05 5.79144e-05 -8.97804e-20 2.29509e-05 -2.01341e-20 1.68976e-08)
(-2.98261e-05 4.95017e-05 3.34279e-20 2.98046e-05 -6.3602e-22 2.15249e-08)
(-3.42228e-05 4.08685e-05 -2.59272e-20 3.42056e-05 6.12834e-21 1.7183e-08)
(-3.65568e-05 3.25215e-05 -5.4226e-20 3.65411e-05 1.84049e-20 1.57041e-08)
(-3.72227e-05 2.48199e-05 5.972e-20 3.72135e-05 3.67255e-21 9.22026e-09)
(-3.66464e-05 1.7951e-05 -7.61602e-20 3.66479e-05 -7.98069e-21 -1.53158e-09)
(-3.52019e-05 1.19728e-05 -1.77019e-21 3.52157e-05 -1.09398e-20 -1.38309e-08)
(-3.31977e-05 6.80972e-06 2.78227e-20 3.32258e-05 -1.18668e-20 -2.80415e-08)
(-3.08282e-05 2.34984e-06 7.33965e-20 3.0872e-05 -2.0816e-20 -4.37489e-08)
(-2.81758e-05 -1.54186e-06 -3.4118e-20 2.82369e-05 2.26489e-21 -6.1101e-08)
(-2.52267e-05 -4.94398e-06 -1.99072e-20 2.53039e-05 1.57995e-20 -7.7231e-08)
(-2.1916e-05 -7.83373e-06 -1.92596e-20 2.20048e-05 1.17008e-20 -8.88531e-08)
(-1.82796e-05 -1.0004e-05 7.04415e-20 1.83717e-05 -9.46615e-22 -9.20402e-08)
(-1.45891e-05 -1.12716e-05 -2.5119e-21 1.4699e-05 1.20048e-21 -1.09869e-07)
(-1.11567e-05 -1.17354e-05 2.391e-20 1.13009e-05 -1.13647e-21 -1.44158e-07)
(-8.12935e-06 -1.16256e-05 -3.76637e-21 8.30138e-06 -8.68571e-23 -1.7203e-07)
(-5.52374e-06 -1.11053e-05 -2.68361e-21 5.71909e-06 -2.778e-22 -1.9535e-07)
(-3.34672e-06 -1.02829e-05 -1.00104e-20 3.57295e-06 -4.16876e-22 -2.26229e-07)
(-1.60146e-06 -9.27475e-06 -4.10214e-20 1.86991e-06 7.0435e-23 -2.68451e-07)
(-2.48446e-07 -8.18593e-06 -1.03672e-19 5.61121e-07 -8.78319e-21 -3.12674e-07)
(7.78622e-07 -7.09714e-06 1.38268e-20 -4.32963e-07 2.30407e-20 -3.45658e-07)
(1.55952e-06 -6.07753e-06 3.66672e-19 -1.19161e-06 -2.48098e-20 -3.67905e-07)
(2.16481e-06 -5.15038e-06 2.45438e-19 -1.79249e-06 7.4854e-20 -3.72328e-07)
(6.66614e-05 3.63425e-05 -2.13342e-19 -6.66638e-05 -7.8028e-20 2.37843e-09)
(5.52554e-05 4.8568e-05 -1.57528e-19 -5.52711e-05 -9.37997e-21 1.57099e-08)
(4.18222e-05 5.73075e-05 1.29182e-19 -4.1814e-05 6.77785e-20 -8.20615e-09)
(2.77344e-05 6.22204e-05 2.03802e-19 -2.77125e-05 1.79762e-20 -2.18367e-08)
(1.39427e-05 6.35945e-05 3.41123e-20 -1.39445e-05 -5.98002e-21 1.82215e-09)
(1.4253e-06 6.18861e-05 1.49861e-19 -1.43016e-06 6.63707e-20 4.85842e-09)
(-9.21583e-06 5.78363e-05 1.82513e-19 9.2148e-06 4.74955e-20 1.03219e-09)
(-1.78062e-05 5.2176e-05 -7.52605e-20 1.77989e-05 -9.73792e-21 7.28196e-09)
(-2.43274e-05 4.5526e-05 4.79594e-20 2.43143e-05 -3.75994e-21 1.30491e-08)
(-2.88489e-05 3.84484e-05 -1.39286e-20 2.88372e-05 5.65823e-21 1.17164e-08)
(-3.16369e-05 3.13558e-05 1.08194e-19 3.16239e-05 -2.81382e-21 1.30702e-08)
(-3.2933e-05 2.45857e-05 -4.96838e-20 3.29199e-05 3.70734e-21 1.30431e-08)
(-3.30418e-05 1.83403e-05 -1.09327e-19 3.30288e-05 3.18786e-20 1.29998e-08)
(-3.22484e-05 1.27321e-05 -3.99384e-20 3.2237e-05 4.64013e-21 1.13564e-08)
(-3.0803e-05 7.7659e-06 -9.60607e-20 3.07929e-05 1.4211e-20 1.00968e-08)
(-2.88842e-05 3.39579e-06 -9.77022e-20 2.8873e-05 4.1905e-21 1.12521e-08)
(-2.65907e-05 -4.56025e-07 -9.93352e-20 2.6577e-05 1.43479e-20 1.36338e-08)
(-2.39442e-05 -3.83212e-06 1.79607e-19 2.39254e-05 -1.62543e-20 1.88006e-08)
(-2.09256e-05 -6.70163e-06 1.29577e-19 2.08971e-05 -6.68221e-21 2.85073e-08)
(-1.75864e-05 -8.9045e-06 2.27073e-20 1.754e-05 -5.12245e-21 4.63917e-08)
(-1.4149e-05 -1.02888e-05 8.83205e-20 1.409e-05 -3.88848e-21 5.89571e-08)
(-1.0884e-05 -1.09087e-05 1.84756e-20 1.08233e-05 1.26348e-22 6.06672e-08)
(-7.94606e-06 -1.09494e-05 5.45048e-21 7.87606e-06 -2.36874e-22 6.99989e-08)
(-5.37455e-06 -1.05626e-05 -5.47957e-22 5.28552e-06 -2.78552e-22 8.90319e-08)
(-3.18808e-06 -9.85344e-06 -1.11025e-22 3.0795e-06 -8.47926e-22 1.0858e-07)
(-1.39294e-06 -8.93371e-06 2.02899e-20 1.26358e-06 -2.09965e-21 1.29359e-07)
(3.18307e-08 -7.91e-06 2.94765e-20 -1.82592e-07 -7.32711e-21 1.50762e-07)
(1.12531e-06 -6.86691e-06 5.84351e-20 -1.29171e-06 6.16821e-21 1.66404e-07)
(1.95649e-06 -5.87245e-06 1.10069e-19 -2.12867e-06 6.8119e-20 1.72179e-07)
(2.59367e-06 -4.95671e-06 -4.5908e-19 -2.76824e-06 -2.24052e-20 1.74569e-07)
(4.82695e-05 4.04938e-05 4.71474e-20 -4.82845e-05 2.26591e-20 1.50433e-08)
(3.72016e-05 4.83118e-05 7.90267e-20 -3.71933e-05 -4.39476e-20 -8.26725e-09)
(2.54919e-05 5.29841e-05 -2.62697e-19 -2.54749e-05 -8.54208e-20 -1.69355e-08)
(1.38927e-05 5.47471e-05 -2.08089e-19 -1.38914e-05 1.375e-20 -1.2119e-09)
(3.20468e-06 5.39324e-05 5.94306e-20 -3.20381e-06 -1.25923e-20 -8.68415e-10)
(-6.0583e-06 5.11063e-05 1.85615e-19 6.06227e-06 -3.60907e-20 -3.97365e-09)
(-1.37415e-05 4.68374e-05 -6.35988e-20 1.37376e-05 1.51757e-20 3.88316e-09)
(-1.98084e-05 4.15962e-05 -2.54955e-20 1.97992e-05 -8.85152e-22 9.15002e-09)
(-2.42667e-05 3.58256e-05 -7.03293e-21 2.42619e-05 -7.96574e-21 4.72402e-09)
(-2.72822e-05 2.98599e-05 -3.3999e-20 2.7276e-05 1.224e-21 6.1744e-09)
(-2.90035e-05 2.39808e-05 8.97793e-20 2.89982e-05 1.14681e-21 5.30954e-09)
(-2.96387e-05 1.83865e-05 1.56636e-19 2.96348e-05 1.78695e-20 3.86438e-09)
(-2.93873e-05 1.32143e-05 2.23884e-20 2.93845e-05 6.59423e-21 2.87245e-09)
(-2.84478e-05 8.51708e-06 1.15017e-19 2.84476e-05 2.37925e-21 2.19568e-10)
(-2.69718e-05 4.30553e-06 4.68851e-20 2.69756e-05 5.92652e-21 -3.81151e-09)
(-2.50585e-05 5.4781e-07 7.59972e-20 2.50679e-05 -4.1469e-22 -9.42497e-09)
(-2.27478e-05 -2.76497e-06 -1.14164e-19 2.27609e-05 -4.84529e-21 -1.3101e-08)
(-2.00524e-05 -5.59779e-06 -1.4549e-20 2.00657e-05 -1.05689e-20 -1.32859e-08)
(-1.70384e-05 -7.81845e-06 -6.95401e-20 1.70484e-05 1.88307e-21 -1.00359e-08)
(-1.3893e-05 -9.29626e-06 -9.36878e-20 1.3904e-05 2.61289e-21 -1.10123e-08)
(-1.08506e-05 -1.0059e-05 -4.08548e-20 1.08727e-05 4.70797e-22 -2.21378e-08)
(-8.0694e-06 -1.02497e-05 1.09676e-20 8.10103e-06 2.51186e-22 -3.16343e-08)
(-5.60788e-06 -1.00061e-05 4.81285e-21 5.64388e-06 2.2523e-22 -3.59953e-08)
(-3.49644e-06 -9.43092e-06 4.85975e-21 3.53882e-06 -6.38179e-22 -4.23842e-08)
(-1.7519e-06 -8.63026e-06 -9.60419e-22 1.80505e-06 2.08209e-21 -5.31453e-08)
(-3.59868e-07 -7.70573e-06 -6.18674e-21 4.26531e-07 -4.89811e-21 -6.6663e-08)
(7.21497e-07 -6.73912e-06 -1.40778e-20 -6.42723e-07 2.22289e-20 -7.87735e-08)
(1.55889e-06 -5.79939e-06 -2.17859e-19 -1.47034e-06 -3.73865e-20 -8.85457e-08)
(2.21816e-06 -4.91879e-06 2.97406e-20 -2.1294e-06 -5.70368e-20 -8.87603e-08)
(3.30742e-05 4.09466e-05 -2.8523e-19 -3.30685e-05 -8.2094e-20 -5.75404e-09)
(2.32635e-05 4.53333e-05 6.1882e-20 -2.32475e-05 6.7458e-20 -1.59662e-08)
(1.34643e-05 4.7285e-05 1.50022e-19 -1.34633e-05 1.24998e-20 -9.57376e-10)
(4.32369e-06 4.70756e-05 -1.9809e-19 -4.32281e-06 -4.73337e-20 -8.81302e-10)
(-3.72412e-06 4.51414e-05 -1.80973e-19 3.72882e-06 -4.86634e-21 -4.69562e-09)
(-1.05532e-05 4.19324e-05 1.16053e-19 1.0553e-05 1.13367e-20 1.21682e-10)
(-1.6112e-05 3.7816e-05 4.97609e-20 1.61076e-05 -2.76996e-21 4.34326e-09)
(-2.03746e-05 3.3132e-05 -9.72573e-20 2.03719e-05 1.49269e-21 2.71105e-09)
(-2.34563e-05 2.81428e-05 8.79123e-20 2.34524e-05 -1.99114e-21 3.89439e-09)
(-2.5434e-05 2.30859e-05 -5.55392e-20 2.54303e-05 -1.66123e-20 3.73154e-09)
(-2.64426e-05 1.81392e-05 1.52971e-19 2.6439e-05 -2.59745e-20 3.67299e-09)
(-2.66193e-05 1.34391e-05 5.48162e-20 2.66158e-05 -8.46768e-21 3.52608e-09)
(-2.61085e-05 9.06186e-06 -5.75363e-21 2.61055e-05 -1.33917e-20 2.95345e-09)
(-2.50286e-05 5.05627e-06 2.29938e-20 2.50267e-05 -6.82557e-21 1.95899e-09)
(-2.3468e-05 1.43131e-06 -2.18349e-20 2.34673e-05 -6.75287e-21 6.93006e-10)
(-2.14763e-05 -1.79276e-06 -1.09586e-20 2.14752e-05 7.46302e-21 1.12724e-09)
(-1.90874e-05 -4.57223e-06 -1.38384e-19 1.90843e-05 1.08886e-20 3.13151e-09)
(-1.63733e-05 -6.79596e-06 5.31647e-21 1.63644e-05 2.46402e-21 8.89703e-09)
(-1.34958e-05 -8.3468e-06 6.44608e-20 1.34823e-05 8.65793e-22 1.34592e-08)
(-1.06581e-05 -9.22987e-06 -8.83255e-22 1.06471e-05 5.35258e-23 1.09916e-08)
(-8.01557e-06 -9.55384e-06 -1.21003e-20 8.00572e-06 6.79878e-23 9.84916e-09)
(-5.64111e-06 -9.43922e-06 -5.9909e-21 5.62689e-06 -1.95856e-23 1.42144e-08)
(-3.57505e-06 -8.98289e-06 2.09793e-20 3.55506e-06 1.52849e-21 1.99903e-08)
(-1.84146e-06 -8.28409e-06 -1.27808e-20 1.81649e-06 -4.92734e-23 2.49698e-08)
(-4.33709e-07 -7.44179e-06 1.01819e-19 4.02309e-07 -1.79529e-21 3.14003e-08)