/*--------------------------------*- C++ -*----------------------------------*\
| =========                 |                                                 |
| \\      /  F ield         | OpenFOAM: The Open Source CFD Toolbox           |
|  \\    /   O peration     | Version:  2306                                  |
|   \\  /    A nd           | Website:  www.openfoam.com                      |
|    \\/     M anipulation  |                                                 |
\*---------------------------------------------------------------------------*/
FoamFile
{
    version     2.0;
    format      ascii;
    arch        "LSB;label=32;scalar=64";
    class       volVectorField;
    location    "75";
    object      U;
}
// * * * * * * * * * * * * * * * * * * * * * * * * * * * * * * * * * * * * * //

dimensions      [0 1 -1 0 0 0 0];

internalField   nonuniform List<vector> 
1340
(
(5.07236 -2.19729 2.75787e-15)
(7.29802 -4.30845 -6.79942e-16)
(9.58419 -5.8165 2.57238e-16)
(11.7245 -6.74698 9.68523e-16)
(13.6386 -7.23136 1.51102e-15)
(15.3104 -7.3957 4.86377e-16)
(16.7427 -7.34084 -8.26705e-16)
(17.9629 -7.15565 -7.2635e-16)
(19.0141 -6.89667 3.89798e-16)
(19.9334 -6.60265 1.3676e-16)
(20.7537 -6.29381 4.57104e-16)
(21.5065 -5.98288 -3.54412e-16)
(22.2125 -5.66657 -6.77869e-17)
(22.8891 -5.34202 -2.59201e-16)
(23.5457 -4.99603 9.8466e-17)
(24.182 -4.61128 1.70736e-16)
(24.7624 -4.16156 -3.53813e-18)
(25.2139 -3.64507 1.20387e-16)
(25.5196 -3.11479 2.49794e-16)
(25.7205 -2.59158 -1.28875e-18)
(25.8581 -2.0042 -3.65237e-17)
(25.9452 -1.31307 3.49684e-18)
(25.9672 -0.56962 -5.72786e-17)
(25.9048 0.159587 6.53408e-16)
(25.7549 0.83249 3.90517e-16)
(25.5228 1.43154 1.21906e-15)
(25.2209 1.95398 5.88307e-15)
(24.8588 2.40602 9.02921e-17)
(5.48494 1.41643 -3.32777e-15)
(6.92186 -0.821464 -2.90406e-15)
(8.67919 -2.60049 1.76634e-15)
(10.5877 -3.85895 -9.88189e-16)
(12.4848 -4.65181 1.40296e-16)
(14.2683 -5.07849 -3.1902e-16)
(15.894 -5.23346 3.69908e-17)
(17.342 -5.19635 8.40698e-17)
(18.6136 -5.04869 3.22209e-16)
(19.7344 -4.83576 -5.36002e-16)
(20.7303 -4.5927 5.7144e-16)
(21.6294 -4.33513 -1.26932e-16)
(22.458 -4.07401 -2.27116e-16)
(23.2406 -3.79931 -1.50461e-16)
(23.9927 -3.50395 -3.12208e-16)
(24.7263 -3.1655 -2.78733e-16)
(25.4422 -2.75849 -2.05345e-16)
(26.1158 -2.23646 1.6732e-17)
(26.6898 -1.60702 7.53125e-18)
(27.1363 -0.936001 -1.28342e-16)
(27.4612 -0.256539 -1.50403e-16)
(27.6565 0.381869 -3.86366e-18)
(27.7184 0.939284 2.81547e-18)
(27.6628 1.40736 -8.67977e-17)
(27.5223 1.8046 -5.44919e-16)
(27.3182 2.15772 -2.57888e-16)
(27.0637 2.48584 -1.90576e-15)
(26.7654 2.79706 -2.68959e-15)
(26.4219 3.09554 5.98075e-16)
(7.58973 2.39675 1.23196e-15)
(8.66432 0.412223 1.30919e-15)
(9.99746 -1.26751 1.09374e-15)
(11.4822 -2.60542 -9.5589e-16)
(13.0087 -3.60791 -7.08857e-16)
(14.4951 -4.30819 1.80221e-16)
(15.8955 -4.75603 6.70861e-16)
(17.1832 -5.00538 9.14948e-16)
(18.3478 -5.10941 -1.74647e-16)
(19.3982 -5.10844 -2.12802e-17)
(20.3496 -5.03486 5.76811e-16)
(21.221 -4.90905 9.44285e-18)
(22.0323 -4.74444 3.93551e-16)
(22.8029 -4.54139 3.26604e-16)
(23.5461 -4.29814 6.90721e-16)
(24.2707 -4.00285 6.12238e-16)
(24.9762 -3.63896 1.85198e-16)
(25.6408 -3.18361 2.79598e-17)
(26.2177 -2.65255 1.40814e-17)
(26.6815 -2.09876 -1.84915e-16)
(27.0443 -1.54433 8.8456e-17)
(27.3215 -0.989302 9.64705e-17)
(27.5183 -0.427028 -1.47493e-17)
(27.6372 0.146481 1.0598e-16)
(27.6809 0.729569 1.90618e-16)
(27.6514 1.304 5.02657e-16)
(27.5504 1.85123 6.96147e-16)
(27.3808 2.35766 1.09916e-15)
(27.1412 2.81908 1.96404e-15)
(8.85518 4.99586 1.11214e-15)
(9.37815 3.07584 -9.17358e-16)
(10.172 1.28572 2.43074e-18)
(11.1918 -0.272835 2.56807e-16)
(12.3727 -1.56187 1.72049e-15)
(13.6364 -2.56703 1.29111e-16)
(14.9139 -3.29947 4.94967e-16)
(16.1602 -3.79368 -1.27337e-15)
(17.3437 -4.09118 -7.72039e-16)
(18.446 -4.23409 2.32689e-16)
(19.4636 -4.26142 1.28728e-16)
(20.4022 -4.20485 -5.92509e-16)
(21.2718 -4.08775 5.79336e-17)
(22.0862 -3.92605 -1.30655e-16)
(22.8596 -3.72485 3.24884e-16)
(23.6028 -3.48355 -3.06526e-16)
(24.3227 -3.19274 -3.75169e-16)
(25.0186 -2.83741 3.90577e-17)
(25.6727 -2.3959 5.69208e-17)
(26.2469 -1.87265 -1.82185e-17)
(26.7162 -1.30763 1.40591e-16)
(27.0872 -0.724323 3.20287e-17)
(27.3726 -0.133482 -3.6648e-17)
(27.5778 0.453026 2.0388e-17)
(27.7072 1.0183 3.46161e-17)
(27.767 1.54211 7.06205e-17)
(27.765 2.0156 -2.25886e-16)
(27.7069 2.44124 -6.18329e-16)
(27.5971 2.82563 -1.37296e-15)
(27.4335 3.17825 -2.01756e-15)
(10.5522 5.27187 -1.41422e-15)
(10.9172 3.55997 3.20104e-15)
(11.512 1.94583 -2.21649e-15)
(12.3035 0.510622 -6.18684e-18)
(13.2481 -0.717289 2.78582e-17)
(14.2875 -1.72078 -2.63266e-16)
(15.3668 -2.50003 -3.73565e-16)
(16.4479 -3.07665 -7.39672e-16)
(17.5015 -3.47924 8.90786e-16)
(18.5066 -3.73612 3.75067e-16)
(19.4543 -3.87753 -7.40284e-17)
(20.3437 -3.92848 1.83061e-16)
(21.1791 -3.90851 -3.19888e-16)
(21.9687 -3.83106 2.0985e-16)
(22.7226 -3.70233 -1.82621e-16)
(23.4493 -3.52224 1.95098e-16)
(24.1536 -3.28416 1.56415e-16)
(24.8339 -2.97685 -1.68779e-17)
(25.4748 -2.58691 -9.91709e-17)
(26.0439 -2.12021 1.26621e-17)
(26.5173 -1.61055 3.29304e-18)
(26.8967 -1.08417 -8.13679e-17)
(27.1922 -0.553237 -3.38421e-18)
(27.4087 -0.0266472 8.20787e-18)
(27.549 0.48579 -1.24817e-16)
(27.6185 0.981444 -1.04663e-16)
(27.6247 1.46251 5.74441e-16)
(27.5742 1.92775 1.57727e-15)
(27.4736 2.37361 3.40122e-16)
(27.3255 2.79906 -2.09486e-16)
(11.941 6.96062 -7.54571e-16)
(11.9925 5.44025 1.26419e-15)
(12.2453 3.90204 -8.65192e-16)
(12.6943 2.43944 -6.95072e-16)
(13.3145 1.11945 -7.56717e-16)
(14.076 -0.0355634 -7.42931e-16)
(14.9352 -1.0076 1.1405e-15)
(15.8491 -1.78963 -5.32823e-16)
(16.7874 -2.39453 5.88685e-16)
(17.7245 -2.84156 1.12131e-16)
(18.64 -3.1495 -1.64406e-16)
(19.5223 -3.34106 -4.55648e-16)
(20.3663 -3.43641 -3.47975e-16)
(21.1714 -3.45277 1.85256e-16)
(21.941 -3.40316 -7.35272e-17)
(22.6808 -3.29516 -2.16845e-16)
(23.3961 -3.13081 -1.75798e-16)
(24.0895 -2.90648 -1.07313e-16)
(24.7584 -2.61384 1.21521e-16)
(25.389 -2.24271 -3.16841e-17)
(25.954 -1.79642 -2.41009e-17)
(26.4307 -1.30155 -5.8812e-17)
(26.8174 -0.782166 -1.53777e-18)
(27.1214 -0.249895 -3.51099e-18)
(27.3469 0.286813 -1.09249e-17)
(27.4965 0.818078 1.43145e-16)
(27.5752 1.33471 1.0029e-16)
(27.5894 1.82441 -5.48038e-16)
(27.5457 2.281 -4.72844e-16)
(27.4506 2.70172 4.13323e-16)
(27.3063 3.08905 -4.20567e-16)
(13.2334 6.90426 -3.31188e-16)
(13.2324 5.53688 1.28913e-16)
(13.4037 4.14596 1.00572e-15)
(13.7445 2.81528 7.19017e-16)
(14.2353 1.60152 2.97796e-16)
(14.8544 0.521651 -7.70125e-16)
(15.5681 -0.407589 -3.53565e-16)
(16.3423 -1.17698 5.75052e-16)
(17.1533 -1.79521 5.32276e-17)
(17.9803 -2.27561 -2.16137e-17)
(18.8047 -2.6305 -3.85002e-16)
(19.615 -2.87651 3.00524e-16)
(20.404 -3.02893 6.58325e-16)
(21.1676 -3.10133 -3.60358e-16)
(21.906 -3.10432 -3.54357e-17)
(22.6214 -3.04474 -3.33594e-16)
(23.3164 -2.92461 -1.60484e-16)
(23.9917 -2.74149 1.4498e-16)
(24.6439 -2.48902 -2.90258e-16)
(25.2606 -2.16041 7.38658e-17)
(25.8182 -1.75912 4.41101e-17)
(26.2953 -1.30698 2.40969e-17)
(26.6873 -0.826582 4.68022e-17)
(26.9991 -0.330816 1.55994e-17)
(27.234 0.17073 2.89988e-18)
(27.3941 0.667072 -1.79172e-17)
(27.4839 1.14802 2.43578e-16)
(27.5096 1.60963 -6.24365e-16)
(27.4771 2.0492 -3.77293e-17)
(27.3923 2.46487 -4.89973e-16)
(27.2568 2.85813 -2.34716e-16)
(14.3494 6.82416 -4.40891e-18)
(14.3108 5.58525 -1.7733e-16)
(14.422 4.31971 -1.71731e-15)
(14.6809 3.1035 6.97271e-16)
(15.0723 1.98567 -9.28876e-17)
(15.5795 0.978888 8.46674e-16)
(16.1757 0.098506 -4.61294e-16)
(16.8333 -0.645708 4.157e-16)
(17.5343 -1.26017 -5.96865e-16)
(18.262 -1.75432 -4.45733e-16)
(19.0008 -2.13573 2.22177e-16)
(19.7404 -2.41621 2.40287e-16)
(20.4729 -2.60646 2.31128e-16)
(21.1926 -2.71639 1.27187e-16)
(21.8972 -2.75427 -1.44135e-16)
(22.5863 -2.72602 5.48582e-16)
(23.2599 -2.63376 -1.55877e-16)
(23.917 -2.47621 2.22119e-16)
(24.5533 -2.2488 1.84197e-16)
(25.1569 -1.94703 1.6414e-18)
(25.707 -1.57398 -7.50658e-18)
(26.1836 -1.147 8.32683e-18)
(26.5799 -0.686515 -3.92282e-18)
(26.8984 -0.205622 -1.67495e-17)
(27.1415 0.286058 -9.111e-18)
(27.3107 0.777894 -3.62432e-17)
(27.4098 1.26076 -1.71818e-16)
(27.4442 1.72602 1.09426e-15)
(27.4195 2.16744 4.48648e-16)
(27.3413 2.5816 5.16209e-17)
(27.2115 2.96919 7.06168e-16)
(15.5057 7.80051 -6.02389e-16)
(15.3239 6.72923 -3.24729e-16)
(15.2582 5.59987 -6.51576e-16)
(15.324 4.44249 -1.35431e-16)
(15.5202 3.32601 7.5685e-16)
(15.8343 2.29449 5.49972e-16)
(16.253 1.35726 -1.55214e-16)
(16.754 0.527683 1.29066e-15)
(17.3147 -0.184686 -3.42716e-17)
(17.921 -0.785377 8.93673e-16)
(18.5601 -1.28162 3.50785e-16)
(19.2192 -1.67843 -3.09175e-16)
(19.8898 -1.98399 2.81365e-17)
(20.5645 -2.20559 -6.08639e-16)
(21.2369 -2.3501 4.07698e-17)
(21.9034 -2.42336 3.26277e-16)
(22.5616 -2.42981 1.62171e-17)
(23.2097 -2.37117 1.91001e-16)
(23.8451 -2.24645 -2.22414e-16)
(24.4626 -2.05215 -1.30087e-16)
(25.051 -1.78533 -1.79852e-16)
(25.5916 -1.44894 -7.02152e-17)
(26.0655 -1.05721 2.33229e-18)
(26.4642 -0.628495 1.69792e-17)
(26.7883 -0.176093 3.23172e-19)
(27.039 0.289924 8.54513e-18)
(27.2174 0.758837 3.73231e-18)
(27.3265 1.22039 -1.08248e-16)
(27.3711 1.66717 -2.21089e-17)
(27.3564 2.09445 -9.24747e-16)
(27.2875 2.49907 1.54022e-15)
(27.1659 2.88131 -9.31534e-17)
(16.1828 6.62577 -8.62642e-16)
(16.0973 5.591 2.08353e-15)
(16.1285 4.52754 1.0424e-15)
(16.2761 3.49909 3.64495e-16)
(16.5295 2.54495 -1.49269e-15)
(16.8774 1.67237 -8.29032e-16)
(17.3009 0.8932 -1.46608e-15)
(17.7809 0.216257 -1.31644e-15)
(18.3065 -0.363867 -2.90539e-16)
(18.8675 -0.853224 1.95112e-16)
(19.4539 -1.25503 -1.98021e-16)
(20.0591 -1.5753 -2.46348e-16)
(20.6767 -1.81852 2.56609e-16)
(21.3008 -1.98903 -3.34793e-16)
(21.927 -2.0905 4.2791e-17)
(22.5519 -2.12569 1.26213e-16)
(23.1721 -2.09539 2.27168e-16)
(23.784 -1.9987 -9.17892e-17)
(24.3815 -1.83282 -5.12854e-17)
(24.9539 -1.59572 -3.53455e-17)
(25.4839 -1.29024 6.23144e-17)
(25.9536 -0.928023 -3.40617e-18)
(26.3534 -0.525166 -1.4538e-17)
(26.6818 -0.0946481 3.36582e-18)
(26.9391 0.353337 4.16982e-18)
(27.1257 0.808207 1.94857e-17)
(27.2438 1.2599 1.12091e-16)
(27.2976 1.70022 3.1294e-16)
(27.2916 2.12252 -1.76905e-17)
(27.2307 2.52269 -1.38155e-15)
(27.1161 2.90024 -9.65723e-16)
(16.8458 5.56553 -1.32886e-15)
(16.8504 4.58465 -8.22015e-16)
(16.9599 3.634 9.7854e-16)
(17.1651 2.74964 1.32645e-15)
(17.4559 1.93674 2.12413e-16)
(17.8161 1.20616 8.88904e-16)
(18.2289 0.566026 8.08645e-16)
(18.6856 0.0106626 -4.70731e-16)
(19.1783 -0.465619 3.1107e-16)
(19.6992 -0.865084 -7.98968e-17)
(20.2434 -1.19223 5.04398e-16)
(20.806 -1.44993 -3.01417e-16)
(21.3817 -1.64046 -4.7419e-16)
(21.9662 -1.76559 -1.57377e-16)
(22.5555 -1.82664 -3.66527e-16)
(23.1456 -1.82351 -3.03935e-16)
(23.7316 -1.75495 -2.45174e-16)
(24.3074 -1.61832 4.05389e-16)
(24.8624 -1.4121 2.09225e-16)
(25.3802 -1.139 2.74915e-17)
(25.8438 -0.808557 4.38926e-17)
(26.243 -0.434833 -3.78192e-18)
(26.5746 -0.0303401 -3.83453e-18)
(26.8376 0.394628 2.95885e-19)
(27.0319 0.829564 -1.36937e-18)
(27.1589 1.26423 -4.91426e-17)
(27.2221 1.69019 -1.21668e-16)
(27.2255 2.10124 -1.78794e-16)
(27.1732 2.49305 -4.23778e-16)
(27.0665 2.86457 1.7181e-15)
(17.5017 4.62086 7.09797e-17)
(17.5811 3.73941 5.81951e-16)
(17.7476 2.91785 -1.68775e-15)
(17.9922 2.1601 -1.0984e-15)
(18.3002 1.47575 7.22321e-16)
(18.6568 0.872269 1.02486e-15)
(19.0549 0.343767 -5.18726e-16)
(19.4882 -0.115232 -6.9841e-17)
(19.9505 -0.506622 -4.02797e-17)
(20.4387 -0.834314 -1.26566e-16)
(20.9491 -1.10001 4.56291e-16)
(21.4774 -1.30455 6.03526e-16)
(22.0198 -1.44823 5.23024e-17)
(22.5723 -1.53098 3.96175e-16)
(23.1305 -1.55174 1.24893e-16)
(23.6891 -1.50873 1.79902e-16)
(24.2418 -1.39926 -2.59443e-16)
(24.7781 -1.22191 -1.33268e-17)
(25.2825 -0.979003 -8.89219e-17)
(25.7385 -0.678428 -5.44026e-17)
(26.1354 -0.332265 2.96484e-19)
(26.4687 0.0477218 -4.71551e-18)
(26.7364 0.451346 -6.01825e-18)
(26.9375 0.868342 -1.09446e-17)
(27.0727 1.28855 4.87887e-18)
(27.1447 1.70337 -1.34045e-17)
(27.1569 2.10575 5.16925e-17)
(27.1131 2.49057 7.87386e-16)
(27.014 2.856 -1.06948e-16)
(18.1476 3.82188 -1.54438e-15)
(18.2829 3.05708 3.92088e-16)
(18.4895 2.34998 6.9951e-16)
(18.7543 1.70899 -1.17489e-15)
(19.0639 1.14124 -7.77206e-16)
(19.412 0.640679 6.84435e-16)
(19.7937 0.201589 1.39847e-16)
(20.2042 -0.177895 -4.45207e-16)
(20.6414 -0.501248 4.08203e-16)
(21.1029 -0.769651 -2.04055e-16)
(21.5855 -0.983045 6.74257e-16)
(22.0863 -1.14071 1.69307e-16)
(22.6015 -1.24148 -1.89615e-17)
(23.1266 -1.28331 8.03896e-17)
(23.6565 -1.26385 -5.45854e-17)
(24.1847 -1.1802 -3.16885e-17)
(24.7011 -1.0308 -2.61633e-16)
(25.1906 -0.817399 4.78575e-18)
(25.6374 -0.546431 4.95383e-17)
(26.0305 -0.228265 -4.92447e-18)
(26.3642 0.126238 5.54434e-18)
(26.6354 0.507122 6.2972e-18)
(26.8425 0.904344 -3.30367e-17)
(26.9853 1.30784 3.30004e-17)
(27.066 1.70877 -3.05878e-16)
(27.087 2.10002 7.50606e-16)
(27.0517 2.47608 -1.19217e-15)
(26.9606 2.8345 -6.07376e-16)
(18.7758 3.17304 9.53167e-17)
(18.9512 2.51225 -4.98924e-16)
(19.18 1.91198 4.67561e-17)
(19.45 1.37866 4.43715e-16)
(19.7555 0.905964 -5.9742e-16)
(20.0925 0.488194 1.60527e-16)
(20.4571 0.123299 -4.35139e-17)
(20.8483 -0.192148 -2.59748e-16)
(21.2646 -0.459071 -3.90111e-16)
(21.704 -0.676877 -3.36967e-16)
(22.1641 -0.844227 -1.55481e-16)
(22.642 -0.959212 -2.22973e-16)
(23.1337 -1.01904 -9.97892e-17)
(23.6339 -1.02075 -1.30909e-16)
(24.1366 -0.960989 3.98724e-17)
(24.6319 -0.837766 2.2587e-16)
(25.1052 -0.652294 2.53352e-17)
(25.5413 -0.409749 3.26658e-17)
(25.9289 -0.118872 6.60193e-18)
(26.2615 0.210498 -1.0145e-18)
(26.5351 0.5688 -2.38648e-18)
(26.7472 0.946306 2.57563e-17)
(26.897 1.33317 2.79449e-17)
(26.9857 1.72048 -3.43273e-16)
(27.0153 2.10082 2.47469e-17)
(26.9884 2.4681 1.05472e-15)
(26.9053 2.81916 -5.54954e-16)
(19.3801 2.65195 -6.90432e-17)
(19.5789 2.08941 8.02208e-16)
(19.8154 1.58873 -2.13285e-16)
(20.0845 1.14342 1.81982e-16)
(20.3827 0.747613 -1.07162e-16)
(20.7069 0.399089 6.29391e-16)
(21.0568 0.0943017 1.36476e-16)
(21.4317 -0.16776 -1.91286e-17)
(21.8305 -0.386332 4.21195e-16)
(22.2516 -0.559733 -2.59558e-16)
(22.693 -0.685517 6.39639e-19)
(23.151 -0.760349 3.94238e-16)
(23.621 -0.780721 3.37648e-17)
(24.0973 -0.742833 -1.3033e-16)
(24.5705 -0.644181 -1.02969e-16)
(25.0265 -0.485249 5.74259e-17)
(25.4505 -0.270114 8.23065e-18)
(25.8311 -0.00604556 -4.84396e-18)
(26.1612 0.298185 1.03762e-18)
(26.4359 0.63354 -9.45154e-19)
(26.652 0.990675 4.65479e-18)
(26.8081 1.36002 -8.75163e-17)
(26.9043 1.73262 1.95441e-16)
(26.9422 2.10094 -2.55927e-16)
(26.9236 2.4585 8.11672e-16)
(26.8486 2.80148 1.54002e-16)
(19.7792 2.77238 3.56053e-16)
(19.9526 2.24535 5.85767e-16)
(20.1606 1.77559 9.42925e-19)
(20.3986 1.35672 5.47203e-16)
(20.6632 0.982926 3.2868e-17)
(20.9519 0.651654 -8.06932e-16)
(21.2648 0.359263 -1.47411e-16)
(21.6021 0.104526 -1.07659e-16)
(21.9631 -0.111857 2.75518e-17)
(22.3472 -0.288127 8.86103e-17)
(22.7531 -0.421563 -3.32227e-16)
(23.1779 -0.508444 -1.61959e-16)
(23.6175 -0.544845 2.16878e-16)
(24.0668 -0.526581 2.17922e-16)
(24.5171 -0.450648 -1.20604e-16)
(24.9548 -0.316727 -1.98345e-18)
(25.3652 -0.127727 -9.58502e-17)
(25.7374 0.110347 1.09257e-17)
(26.0635 0.389816 2.75427e-18)
(26.3382 0.70228 2.15155e-19)
(26.5573 1.03886 -1.15328e-17)
(26.7187 1.39032 1.22164e-17)
(26.8219 1.74779 -1.20431e-16)
(26.8676 2.10364 -4.70017e-16)
(26.8573 2.45097 -1.57802e-15)
(26.7904 2.78535 2.27093e-17)
(20.3027 2.383 6.06562e-16)
(20.4865 1.94208 -2.73166e-16)
(20.6976 1.54866 -5.78969e-16)
(20.933 1.1965 -2.91824e-16)
(21.1905 0.882974 -1.57027e-16)
(21.4705 0.604117 -1.48585e-16)
(21.7736 0.358541 2.42727e-16)
(22.0998 0.146712 -4.77621e-16)
(22.4493 -0.0297139 1.16957e-16)
(22.8212 -0.167969 -2.80266e-16)
(23.2135 -0.264219 -1.93893e-16)
(23.623 -0.314222 -1.01447e-16)
(24.045 -0.313416 2.69616e-17)
(24.4718 -0.25817 1.43693e-16)
(24.8902 -0.147437 1.70677e-17)
(25.286 0.0167893 5.21332e-17)
(25.6483 0.229753 1.34575e-17)
(25.9692 0.484886 -6.67495e-18)
(26.2424 0.774515 1.87811e-19)
(26.4635 1.09029 5.83267e-18)
(26.6294 1.4234 4.17307e-17)
(26.7389 1.76511 3.4156e-18)
(26.7921 2.10776 5.17724e-16)
(26.7898 2.44416 6.75411e-16)
(26.7309 2.76928 3.09977e-16)
(20.6308 2.50472 4.57683e-16)
(20.7938 2.09134 -3.57695e-16)
(20.9817 1.72198 1.08195e-16)
(21.1918 1.39082 2.84665e-16)
(21.4218 1.09497 8.34384e-16)
(21.6725 0.830301 -6.36802e-17)
(21.9448 0.595113 1.04609e-16)
(22.2392 0.38962 2.80169e-16)
(22.5563 0.215222 1.55249e-16)
(22.896 0.074552 5.1847e-16)
(23.257 -0.0285021 3.27558e-16)
(23.6368 -0.0896108 -2.67368e-17)
(24.0317 -0.103965 -2.53082e-16)
(24.4345 -0.0674628 1.85355e-17)
(24.8329 0.0217548 -7.87496e-17)
(25.213 0.162671 2.19237e-17)
(25.5642 0.351613 7.85516e-18)
(25.8785 0.583049 -5.27931e-18)
(26.1491 0.850113 -4.60386e-19)
(26.371 1.14505 -3.19315e-18)
(26.5405 1.45951 1.90501e-17)
(26.6556 1.785 1.68567e-17)
(26.7158 2.11389 -7.8347e-17)
(26.7211 2.43875 9.95489e-17)
(26.6704 2.75403 6.38888e-16)
(21.0834 2.22544 1.01387e-15)
(21.2513 1.87872 -7.72529e-17)
(21.4391 1.56775 -1.05699e-16)
(21.645 1.28929 -6.76174e-16)
(21.8697 1.03906 4.00824e-16)
(22.1144 0.815057 -3.49378e-16)
(22.3797 0.617211 2.36808e-17)
(22.6668 0.446626 -1.91344e-16)
(22.9763 0.305647 -1.81528e-16)
(23.3073 0.197994 -7.69148e-17)
(23.6583 0.128054 -8.68561e-17)
(24.0264 0.100787 8.1224e-17)
(24.4051 0.12065 4.30784e-17)
(24.7829 0.190213 -2.5169e-17)
(25.1464 0.309385 -5.05299e-18)
(25.4855 0.475478 -1.46727e-17)
(25.7919 0.683972 3.53073e-18)
(26.0587 0.928835 2.89664e-19)
(26.2802 1.20298 -2.16584e-18)
(26.4523 1.49856 -3.08209e-17)
(26.5723 1.80741 1.95673e-16)
(26.6389 2.12196 -9.21542e-18)
(26.6517 2.43468 -2.50558e-16)
(26.6089 2.73951 -2.64236e-16)
(21.3562 2.34604 1.59777e-17)
(21.5066 2.02108 -4.54852e-16)
(21.675 1.72934 1.11147e-16)
(21.8597 1.4677 2.11857e-17)
(22.0613 1.23182 1.83933e-17)
(22.2811 1.01943 1.66204e-16)
(22.5201 0.830132 -3.74264e-16)
(22.7798 0.664676 6.6031e-17)
(23.0609 0.52511 -1.81237e-16)
(23.3636 0.414864 -7.50522e-18)
(23.6869 0.33818 1.91649e-16)
(24.0286 0.300033 -7.3011e-17)
(24.3833 0.305275 -2.12169e-17)
(24.7401 0.357101 1.37597e-16)
(25.0864 0.456171 2.47055e-17)
(25.4122 0.600709 -8.15341e-18)
(25.7096 0.787161 7.3476e-18)
(25.9714 1.01034 -5.06519e-19)
(26.1914 1.26387 2.50891e-18)
(26.3651 1.54047 -1.81912e-17)
(26.4892 1.83236 2.30845e-17)
(26.5617 2.13208 -7.77072e-17)
(26.5815 2.43209 2.50949e-16)
(26.5465 2.72589 -5.19695e-16)
(21.6132 2.45502 -7.59325e-17)
(21.7482 2.15043 4.19933e-16)
(21.8997 1.87694 -3.3058e-16)
(22.0656 1.63152 2.24109e-16)
(22.2467 1.40974 -2.85451e-16)
(22.4442 1.2091 1.60004e-17)
(22.6594 1.02895 -5.45748e-17)
(22.8939 0.869632 1.8001e-16)
(23.1489 0.732821 1.54075e-16)
(23.4249 0.621665 -1.60351e-16)
(23.7216 0.540182 -3.13248e-17)
(24.0377 0.493259 2.00823e-16)
(24.3687 0.485891 -4.60661e-17)
(24.7045 0.521813 -3.92236e-17)
(25.0329 0.602428 -7.01718e-17)
(25.3447 0.726776 1.8097e-17)
(25.632 0.892188 -2.36012e-18)
(25.8876 1.09433 1.55728e-19)
(26.1051 1.32755 -5.69229e-19)
(26.2794 1.58517 1.52406e-17)
(26.4067 1.85985 -1.422e-16)
(26.4844 2.14431 4.94342e-17)
(26.5108 2.43108 8.49725e-18)
(26.4834 2.7133 4.11056e-16)
(21.9767 2.26843 -4.25721e-16)
(22.1132 2.01201 -1.42558e-16)
(22.2625 1.78211 4.16621e-17)
(22.4254 1.57404 3.9569e-16)
(22.603 1.38511 1.30575e-16)
(22.7967 1.21439 1.46424e-16)
(23.0082 1.0619 -3.7549e-16)
(23.239 0.92897 4.85675e-17)
(23.4901 0.818325 1.76726e-16)
(23.7617 0.733703 -1.27989e-16)
(24.0532 0.679794 3.36113e-17)
(24.361 0.661676 -7.41233e-18)
(24.6757 0.683526 3.55772e-17)
(24.986 0.747371 -6.0184e-17)
(25.2831 0.852994 -6.70838e-18)
(25.5594 0.998498 1.83309e-17)
(25.8077 1.18038 2.48712e-19)
(26.0216 1.39372 2.6337e-19)
(26.1955 1.63248 1.12205e-17)
(26.3251 1.88982 2.01889e-17)
(26.4073 2.15867 7.89518e-17)
(26.4399 2.43173 -5.88586e-17)
(26.42 2.70186 -1.18384e-16)
(22.1925 2.37594 3.61083e-16)
(22.3157 2.13598 4.41609e-16)
(22.4504 1.92075 -7.98493e-17)
(22.5971 1.7258 2.16903e-16)
(22.7569 1.54832 -1.30575e-16)
(22.9312 1.38712 -9.76427e-18)
(23.1218 1.24189 7.21458e-17)
(23.3305 1.11364 4.43165e-17)
(23.5585 1.00468 -2.51721e-17)
(23.8064 0.918396 -6.69805e-17)
(24.0744 0.859197 -6.07713e-17)
(24.3596 0.832143 -5.8542e-17)
(24.6534 0.841733 -6.91838e-17)
(24.9455 0.890518 -4.34388e-17)
(25.2273 0.978859 -1.18752e-17)
(25.4919 1.10564 -3.3051e-18)
(25.7321 1.26813 -7.55994e-19)
(25.9413 1.46213 -3.36321e-18)
(26.1139 1.68225 -2.45928e-18)
(26.2449 1.92221 -8.27511e-18)
(26.3309 2.1752 -1.43934e-16)
(26.3691 2.43414 2.58242e-17)
(26.3563 2.69171 9.81121e-17)
(22.5078 2.24984 -8.25814e-17)
(22.6294 2.04831 -4.14527e-16)
(22.7616 1.86594 7.87344e-17)
(22.9055 1.69959 -1.55423e-16)
(23.0624 1.54785 -5.5428e-17)
(23.2341 1.41017 -2.05268e-16)
(23.4225 1.28719 -4.83845e-18)
(23.6291 1.18085 8.23539e-17)
(23.8549 1.09413 4.78339e-17)
(24.1006 1.0311 -1.91601e-18)
(24.364 0.996744 -5.37232e-17)
(24.6375 0.995746 4.2154e-17)
(24.9112 1.03111 1.51405e-16)
(25.1775 1.10369 -1.301e-17)
(25.4297 1.21302 8.57529e-18)
(25.6609 1.35707 -4.80759e-19)
(25.8645 1.5324 9.97092e-19)
(26.0347 1.73424 -5.66574e-19)
(26.1664 1.95687 4.52408e-17)
(26.2555 2.19385 2.81233e-18)
(26.2988 2.43835 -2.95965e-17)
(26.2927 2.68294 -2.62231e-17)
(22.6896 2.35427 -3.66343e-18)
(22.7996 2.16597 5.13073e-16)
(22.919 1.99552 -4.99435e-17)
(23.0486 1.83982 8.07827e-17)
(23.1898 1.69734 -2.28687e-17)
(23.3444 1.56727 1.98984e-17)
(23.5143 1.44994 3.96018e-16)
(23.7013 1.34692 -3.44096e-16)
(23.9065 1.2608 1.11679e-16)
(24.1311 1.1953 1.81698e-16)
(24.3736 1.15516 -1.79222e-17)
(24.6273 1.14519 1.01089e-16)
(24.883 1.1687 -7.68039e-17)
(25.1336 1.22703 -3.75542e-17)
(25.3728 1.32019 -2.64281e-17)
(25.5943 1.44683 -1.64571e-18)
(25.7915 1.6042 -7.05622e-18)
(25.9584 1.78822 -2.53811e-18)
(26.0898 1.99368 -2.30581e-17)
(26.1812 2.21459 1.26679e-18)
(26.229 2.4444 3.39906e-17)
(26.2295 2.67567 5.19206e-17)
(22.8617 2.45036 -4.25741e-17)
(22.9613 2.27446 -3.31434e-16)
(23.0691 2.11522 3.16742e-16)
(23.186 1.96968 -2.58035e-16)
(23.3131 1.83619 3.29182e-16)
(23.4523 1.71371 -1.03864e-16)
(23.6054 1.60226 -2.38475e-16)
(23.7743 1.5031 9.65442e-17)
(23.9605 1.41843 -2.02508e-16)
(24.1654 1.35157 -1.32571e-16)
(24.3881 1.30697 -5.54683e-18)
(24.6226 1.28952 2.6628e-17)
(24.8605 1.30271 -1.97614e-17)
(25.0953 1.34823 -1.24931e-17)
(25.3214 1.42655 8.47994e-18)
(25.5325 1.5369 4.02708e-18)
(25.7225 1.67716 6.83061e-18)
(25.8854 1.84387 6.83874e-18)
(26.0156 2.03246 1.11499e-17)
(26.1086 2.23732 -1.05246e-17)
(26.1603 2.45228 -5.42318e-17)
(26.1667 2.66998 -7.39905e-17)
(23.1146 2.37467 1.61764e-16)
(23.2122 2.22586 -3.79254e-16)
(23.3176 2.09001 6.17762e-17)
(23.4321 1.96515 2.00883e-16)
(23.5573 1.8501 -2.24658e-16)
(23.6952 1.74464 7.06066e-17)
(23.8475 1.64971 -6.91144e-18)
(24.0162 1.56712 7.33182e-18)
(24.2027 1.49982 -5.66344e-17)
(24.4066 1.45198 1.50413e-16)
(24.6227 1.42838 -2.67859e-17)
(24.8434 1.43271 4.0541e-19)
(25.0626 1.46685 3.91733e-18)
(25.2753 1.53165 6.00686e-18)
(25.4756 1.62684 -9.1907e-19)
(25.6578 1.75087 3.56195e-18)
(25.8158 1.90094 -9.0042e-18)
(25.9441 2.073 -1.76654e-17)
(26.0379 2.26197 3.17355e-17)
(26.0929 2.462 1.86295e-17)
(26.1049 2.66593 7.41248e-17)
(23.26 2.46696 -4.63241e-17)
(23.3482 2.32822 1.82295e-16)
(23.4434 2.20148 -2.53465e-17)
(23.5465 2.08483 -3.32737e-16)
(23.6591 1.97696 -1.20788e-17)
(23.7832 1.87746 7.30907e-17)
(23.9205 1.78698 -1.80748e-16)
(24.073 1.707 2.6778e-16)
(24.2424 1.64008 4.78215e-17)
(24.4288 1.59004 -1.23268e-16)
(24.6274 1.56154 -1.75785e-17)
(24.8313 1.5583 -2.00566e-17)
(25.0353 1.58242 3.0859e-18)
(25.2345 1.63501 2.6053e-17)
(25.4238 1.71619 -3.6124e-19)
(25.5975 1.82497 -2.52316e-18)
(25.75 1.95909 7.93866e-18)
(25.8757 2.11511 -1.50355e-17)
(25.9695 2.2884 2.38209e-17)
(26.0272 2.47353 -4.55571e-18)
(26.0442 2.66361 -5.13854e-17)
(23.3976 2.55218 -1.71021e-16)
(23.4774 2.42283 -3.12043e-16)
(23.5634 2.30465 3.3982e-16)
(23.6563 2.19578 2.25527e-16)
(23.7576 2.09485 -2.64825e-17)
(23.8692 2.00123 2.94646e-17)
(23.9928 1.91532 1.18721e-16)
(24.1305 1.83833 6.25011e-17)
(24.2841 1.77241 1.32459e-16)
(24.454 1.72104 -4.36823e-17)
(24.6361 1.6887 3.70333e-17)
(24.824 1.67913 9.50667e-17)
(25.013 1.69451 5.06619e-17)
(25.1989 1.73615 -1.43816e-17)
(25.3769 1.80451 3.24823e-18)
(25.5418 1.89904 2.29493e-17)
(25.6881 2.01802 -2.24643e-17)
(25.8105 2.15853 1.68212e-17)
(25.9037 2.31648 -6.65001e-17)
(25.9634 2.48682 -8.85858e-18)
(25.9851 2.66301 1.17547e-17)
(23.6001 2.51043 1.03877e-16)
(23.6777 2.40012 2.05932e-16)
(23.7614 2.29863 -1.44653e-16)
(23.8525 2.2043 3.18738e-16)
(23.9528 2.1164 -2.43225e-16)
(24.0641 2.0351 5.08293e-17)
(24.1882 1.96135 -2.29754e-16)
(24.3273 1.89693 -3.86613e-17)
(24.4818 1.84499 -4.12362e-17)
(24.6483 1.80976 -1.47287e-16)
(24.8209 1.79496 -9.21516e-17)
(24.9955 1.80279 -5.91941e-17)
(25.1683 1.83469 -1.29381e-17)
(25.335 1.89139 5.20071e-18)
(25.4908 1.9727 -4.25825e-17)
(25.6304 2.07738 3.71006e-17)
(25.7488 2.20303 -2.20834e-17)
(25.8408 2.34604 8.35131e-17)
(25.9019 2.50182 5.59102e-18)
(25.9276 2.66419 1.3406e-17)
(23.7164 2.59116 9.394e-17)
(23.7865 2.48848 -1.14454e-16)
(23.8619 2.39389 -2.85932e-16)
(23.9439 2.30583 -2.51427e-16)
(24.034 2.22345 3.18866e-16)
(24.1339 2.14674 -5.57517e-17)
(24.2457 2.07635 2.55022e-16)
(24.3714 2.0138 6.32905e-17)
(24.5118 1.96189 -8.64356e-18)
(24.6636 1.9246 1.61037e-18)
(24.8217 1.90555 5.05407e-17)
(24.9824 1.90693 6.31673e-17)
(25.1425 1.93025 9.21167e-18)
(25.2979 1.97642 -6.35279e-18)
(25.4444 2.04556 2.58758e-17)
(25.577 2.13683 -2.02005e-17)
(25.6909 2.24831 4.63166e-19)
(25.7811 2.37689 -1.35509e-17)
(25.8429 2.51841 -7.83144e-17)
(25.8721 2.66713 1.5847e-17)
(23.8899 2.57031 -1.70078e-16)
(23.9578 2.48203 -9.89708e-18)
(24.0315 2.3999 3.3867e-16)
(24.1124 2.32282 -5.40803e-17)
(24.2021 2.25059 -4.78401e-17)
(24.3027 2.18365 -4.26147e-17)
(24.4161 2.12324 -1.38047e-17)
(24.5433 2.07184 5.80821e-17)
(24.6815 2.03321 3.24602e-17)
(24.826 2.01077 3.17898e-17)
(24.9735 2.0067 -2.2438e-17)
(25.1212 2.02251 2.28452e-17)
(25.2656 2.05923 -1.48572e-19)
(25.4026 2.11724 -9.9723e-18)
(25.528 2.19604 2.10341e-17)
(25.6369 2.29413 -2.29925e-17)
(25.7247 2.40887 8.23544e-18)
(25.7868 2.53651 4.26142e-17)
(25.8188 2.67182 -4.52106e-17)
(23.9881 2.64572 2.59184e-16)
(24.0492 2.56357 9.10005e-17)
(24.1154 2.48703 -8.43477e-17)
(24.188 2.41496 -1.10976e-16)
(24.2686 2.34706 -1.5037e-16)
(24.3589 2.2836 1.30477e-16)
(24.4611 2.22551 -8.74904e-17)
(24.5762 2.17503 1.22302e-16)
(24.7017 2.13561 -5.58626e-17)
(24.8335 2.11054 -1.0335e-17)
(24.9684 2.1019 9.61511e-18)
(25.1042 2.11119 -2.04066e-17)
(25.2378 2.13951 -5.45418e-18)
(25.3655 2.18742 -1.67875e-17)
(25.4834 2.25469 1.748e-17)
(25.5871 2.34019 7.02274e-17)
(25.6719 2.44173 1.0631e-17)
(25.7337 2.55599 2.45097e-17)
(25.7682 2.67822 -1.71082e-17)
(24.0812 2.71537 7.84744e-17)
(24.1363 2.63894 -9.41681e-17)
(24.1957 2.56759 -1.4145e-17)
(24.2608 2.50026 -1.30412e-16)
(24.333 2.43654 -1.30432e-16)
(24.4141 2.37648 -1.27527e-16)
(24.506 2.32085 1.71546e-16)
(24.61 2.27157 -1.5736e-18)
(24.7238 2.23186 3.51559e-17)
(24.8436 2.20483 1.94452e-17)
(24.9668 2.19242 -4.53656e-17)
(25.0912 2.1961 2.36827e-17)
(25.2143 2.217 -9.73683e-19)
(25.3329 2.25579 2.01183e-17)
(25.4433 2.31247 -4.12578e-17)
(25.5414 2.38624 2.77502e-17)
(25.623 2.47528 -1.83231e-16)
(25.6839 2.57673 7.51385e-17)
(25.7202 2.68631 8.89763e-17)
(24.219 2.70861 2.52853e-16)
(24.2724 2.64199 -5.67955e-17)
(24.3308 2.57914 -8.41174e-17)
(24.3955 2.5194 -5.24038e-18)
(24.4681 2.46271 1.03094e-16)
(24.5507 2.40958 -6.48074e-17)
(24.6445 2.36171 -3.35414e-17)
(24.7475 2.32209 -9.52885e-18)
(24.8562 2.29363 -4.13293e-17)
(24.9683 2.27816 3.05334e-17)
(25.082 2.27706 1.68278e-17)
(25.1951 2.29144 3.63153e-19)
(25.3047 2.32206 1.95489e-17)
(25.4075 2.36909 7.02627e-18)
(25.4999 2.43198 -1.25536e-16)
(25.5779 2.50929 8.80765e-17)
(25.6376 2.59854 -1.11196e-16)
(25.6752 2.69596 -1.26385e-16)
(24.2977 2.77267 1.14709e-17)
(24.3456 2.71066 2.32369e-16)
(24.3979 2.65201 -1.60192e-16)
(24.4558 2.59603 4.92119e-18)
(24.5208 2.54257 4.31844e-17)
(24.595 2.49196 8.50959e-17)
(24.6794 2.44566 3.3673e-17)
(24.7724 2.40644 -1.23999e-16)
(24.8708 2.37703 5.31653e-17)
(24.9726 2.35912 -5.33555e-18)
(25.0762 2.35396 1.43522e-17)
(25.1797 2.36267 4.83305e-18)
(25.2807 2.38602 -1.74191e-17)
(25.3761 2.42431 -2.68879e-17)
(25.4626 2.4772 1.35929e-16)
(25.5368 2.54357 5.26527e-17)
(25.5949 2.62131 5.548e-17)
(25.6333 2.70713 7.81048e-17)
(24.3724 2.83168 -2.94701e-16)
(24.4154 2.77395 8.4189e-17)
(24.4622 2.7192 -7.15001e-17)
(24.5139 2.66677 2.23688e-16)
(24.5721 2.61642 -3.12447e-17)
(24.6386 2.5683 -7.87713e-17)
(24.7145 2.52369 5.05049e-17)
(24.7983 2.48511 4.7172e-17)
(24.8873 2.45512 8.88668e-17)
(24.9795 2.43529 -4.77882e-17)
(25.0736 2.42675 -1.20311e-17)
(25.1681 2.43054 -3.34075e-18)
(25.2607 2.44746 -9.14509e-18)
(25.3488 2.47787 2.17112e-17)
(25.4296 2.52164 -1.05162e-16)
(25.4998 2.57787 5.51963e-18)
(25.5559 2.64482 -5.17859e-18)
(25.5947 2.71967 5.16079e-17)
(24.4818 2.83227 -5.79772e-17)
(24.5237 2.78105 1.05624e-16)
(24.5699 2.73197 -1.10727e-16)
(24.622 2.68459 -3.80364e-17)
(24.6815 2.63892 7.06452e-17)
(24.7496 2.59604 -1.33858e-16)
(24.825 2.55829 3.52986e-18)
(24.9053 2.52805 -1.71745e-18)
(24.9886 2.50674 -5.03052e-18)
(25.074 2.49539 1.46155e-17)
(25.1599 2.49496 -4.95384e-18)
(25.2446 2.50622 -1.85828e-17)
(25.3257 2.52961 7.54472e-17)
(25.4007 2.56509 9.85393e-17)
(25.4667 2.61201 8.73249e-17)
(25.5207 2.66894 -5.62128e-19)
(25.5594 2.73347 -8.43871e-18)
(24.5451 2.88572 7.57822e-17)
(24.5825 2.83794 -3.41438e-17)
(24.6238 2.792 -8.61423e-17)
(24.6703 2.74742 4.60955e-17)
(24.7235 2.70414 -6.38366e-17)
(24.7845 2.66303 -5.55097e-17)
(24.8523 2.62623 5.35407e-17)
(24.9245 2.59598 -3.83197e-17)
(24.9997 2.57357 -1.26962e-18)
(25.0769 2.55991 4.85998e-18)
(25.1549 2.55589 5.07204e-18)
(25.2321 2.56222 1.02071e-17)
(25.3065 2.57936 -1.42466e-16)
(25.3759 2.60738 -5.61727e-17)