# p  FACE_DATA 150
# x y z  p
0.29576437 -0.05 0.059999702 24500
0.28738431 -0.05 0.059968924 24500
0.27918472 -0.05 0.059906283 24500
0.27116186 -0.05 0.05981265 24500
0.26331203 -0.05 0.059689027 24500
0.25563166 -0.05 0.059536266 24500
0.24811723 -0.05 0.059355154 24500
0.24076528 -0.05 0.059146558 24500
0.23357246 -0.05 0.058911358 24500
0.22653546 -0.05 0.058650342 24500
0.21965107 -0.05 0.058364202 24500
0.21291613 -0.05 0.058053757 24500
0.20632755 -0.05 0.057719714 24500
0.19988233 -0.05 0.057362758 24500
0.19357748 -0.05 0.056983702 24500
0.18741014 -0.05 0.056583118 24500
0.18137746 -0.05 0.056161624 24500
0.17547671 -0.05 0.055719844 24500
0.16970518 -0.05 0.055258363 24500
0.1640602 -0.05 0.05477783 24500
0.15853921 -0.05 0.054278745 24500
0.15313967 -0.05 0.053761636 24500
0.14785914 -0.05 0.053226963 24500
0.14269518 -0.05 0.052675259 24500
0.13764543 -0.05 0.052106992 24500
0.13270762 -0.05 0.051522466 24500
0.12787949 -0.05 0.050922169 24500
0.12315884 -0.05 0.050306449 24500
0.11854353 -0.05 0.049675628 24500
0.11403148 -0.05 0.04903008 24500
0.10962066 -0.05 0.04837006 24500
0.10530908 -0.05 0.047695796 24500
0.10109483 -0.05 0.047007509 24500
0.096976017 -0.05 0.046305459 24500
0.092950808 -0.05 0.04558984 24500
0.08901745 -0.05 0.044860715 24500
0.085174232 -0.05 0.044118143 24500
0.081419479 -0.05 0.043362242 24500
0.077751578 -0.05 0.042593081 24500
0.074168981 -0.05 0.041810614 24500
0.070670198 -0.05 0.041014781 24500
0.06725379 -0.05 0.040205492 24500
0.06391837 -0.05 0.039382651 24500
0.060662655 -0.05 0.038545988 24500
0.057485397 -0.05 0.037695273 24500
0.054385413 -0.05 0.036830261 24500
0.051361621 -0.05 0.035950545 24500
0.048412992 -0.05 0.035055749 24500
0.045538629 -0.05 0.034145316 24500
0.042737712 -0.05 0.03321865 24500
0.040009498 -0.05 0.032275148 24500
0.037353406 -0.05 0.031314032 24500
0.034768993 -0.05 0.030334375 24500
0.032255944 -0.05 0.02933521 24500
0.029814132 -0.05 0.028315426 24500
0.027443661 -0.05 0.027273729 24500
0.025144824 -0.05 0.026208776 24500
0.022918276 -0.05 0.02511886 24500
0.020764984 -0.05 0.02400217 24500
0.018686283 -0.05 0.022856725 24500
0.016684024 -0.05 0.021680228 24500
0.01476059 -0.05 0.020470219 24500
0.012919252 -0.05 0.019223865 24500
0.011164249 -0.05 0.017938283 24500
0.0095007128 -0.05 0.016610449 24500
0.0079348886 -0.05 0.015236971 24500
0.006474941 -0.05 0.013814774 24500
0.0051312596 -0.05 0.012341958 24500
0.0039150106 -0.05 0.010816511 24500
0.0028396284 -0.05 0.009238845 24500
0.0019206554 -0.05 0.007613688 24500
0.0011720639 -0.05 0.0059475212 24500
0.0006061561 -0.05 0.004252283 24500
0.00023063831 -0.05 0.0025452878 24500
4.5460517e-05 -0.05 0.0008455405 24500
0.99536103 -0.05 0.00067021835 24500
0.98608198 -0.05 0.0020028877 24500
0.97680071 -0.05 0.0033200849 24500
0.96751731 -0.05 0.0046220425 24500
0.95823181 -0.05 0.0059090613 24500
0.94894428 -0.05 0.0071813587 24500
0.93965479 -0.05 0.0084391859 24500
0.93036339 -0.05 0.0096828487 24500
0.92107012 -0.05 0.010912491 24500
0.91177504 -0.05 0.012128333 24500
0.90247819 -0.05 0.013330648 24500
0.89317963 -0.05 0.014519511 24500
0.88387936 -0.05 0.015695054 24500
0.87457746 -0.05 0.016857552 24500
0.86527395 -0.05 0.01800713 24500
0.85596885 -0.05 0.019143875 24500
0.84666223 -0.05 0.020267984 24500
0.8373541 -0.05 0.021379502 24500
0.82804448 -0.05 0.022478516 24500
0.8187334 -0.05 0.023565119 24500
0.8094209 -0.05 0.024639397 24500
0.80010698 -0.05 0.025701394 24500
0.79079168 -0.05 0.026751168 24500
0.78147501 -0.05 0.027788748 24500
0.77215699 -0.05 0.028814138 24500
0.76283764 -0.05 0.029827333 24500
0.75351698 -0.05 0.030828337 24500
0.74419501 -0.05 0.03181713 24500
0.73487174 -0.05 0.032793639 24500
0.72554719 -0.05 0.033757832 24500
0.71622136 -0.05 0.034709535 24500
0.70689427 -0.05 0.03564879 24500
0.69756592 -0.05 0.036575541 24500
0.68823633 -0.05 0.037489546 24500
0.67890547 -0.05 0.03839067 24500
0.66957337 -0.05 0.039278803 24500
0.66024004 -0.05 0.040153805 24500
0.65090546 -0.05 0.04101549 24500
0.64156964 -0.05 0.041863622 24500
0.63223258 -0.05 0.042697993 24500
0.62289428 -0.05 0.043518409 24500
0.61355475 -0.05 0.04432459 24500
0.60421397 -0.05 0.045116235 24500
0.59487195 -0.05 0.045893096 24500
0.58552869 -0.05 0.046654869 24500
0.57618419 -0.05 0.047401205 24500
0.56683843 -0.05 0.048131797 24500
0.55749143 -0.05 0.04884624 24500
0.54814318 -0.05 0.049544113 24500
0.53879368 -0.05 0.050225066 24500
0.52944294 -0.05 0.050888717 24500
0.52009095 -0.05 0.051534504 24500
0.51073771 -0.05 0.052161963 24500
0.50138323 -0.05 0.052770675 24500
0.49202751 -0.05 0.05336005 24500
0.48267056 -0.05 0.053929509 24500
0.47331239 -0.05 0.054478508 24500
0.46395301 -0.05 0.055006444 24500
0.45459243 -0.05 0.05551264 24500
0.44523065 -0.05 0.055996468 24500
0.43586773 -0.05 0.056457197 24500
0.42650365 -0.05 0.05689408 24500
0.41713847 -0.05 0.057306403 24500
0.4077722 -0.05 0.057693321 24500
0.39840488 -0.05 0.058053993 24500
0.38903656 -0.05 0.058387504 24500
0.37966728 -0.05 0.058692934 24500
0.3702971 -0.05 0.058969274 24500
0.36092607 -0.05 0.059215505 24500
0.35155429 -0.05 0.059430617 24500
0.34218182 -0.05 0.059613395 24500
0.33280875 -0.05 0.059762648 24500
0.3234352 -0.05 0.059877122 24500
0.31406128 -0.05 0.059955444 24500
0.30468712 -0.05 0.059996221 24500
