# p  FACE_DATA 150
# x y z  p
0.29576437 -0.05 -0.059999701 19650.135
0.28738431 -0.05 -0.059968924 19635.771
0.27918472 -0.05 -0.059906283 19631.216
0.27116186 -0.05 -0.05981265 19631.106
0.26331203 -0.05 -0.059689027 19640.723
0.25563166 -0.05 -0.059536266 19659.173
0.24811723 -0.05 -0.059355154 19685.909
0.24076528 -0.05 -0.059146557 19718.793
0.23357246 -0.05 -0.058911358 19757.178
0.22653546 -0.05 -0.058650342 19800.521
0.21965107 -0.05 -0.058364201 19848.542
0.21291613 -0.05 -0.058053757 19900.16
0.20632755 -0.05 -0.057719714 19955.867
0.19988232 -0.05 -0.057362759 20014.242
0.19357748 -0.05 -0.056983702 20075.619
0.18741014 -0.05 -0.056583118 20140.417
0.18137746 -0.05 -0.056161624 20208.542
0.17547671 -0.05 -0.055719844 20280.661
0.16970518 -0.05 -0.055258362 20356.07
0.16406021 -0.05 -0.05477783 20434.296
0.15853921 -0.05 -0.054278745 20515.532
0.15313968 -0.05 -0.053761636 20599.553
0.14785914 -0.05 -0.053226963 20687.372
0.14269518 -0.05 -0.052675258 20778.519
0.13764543 -0.05 -0.052106992 20873.29
0.13270762 -0.05 -0.051522466 20968.606
0.12787949 -0.05 -0.050922169 21064.269
0.12315883 -0.05 -0.050306449 21163.989
0.11854353 -0.05 -0.049675629 21268.052
0.11403148 -0.05 -0.04903008 21375.18
0.10962066 -0.05 -0.04837006 21484.724
0.10530909 -0.05 -0.047695796 21597.511
0.10109483 -0.05 -0.047007509 21713.49
0.096976017 -0.05 -0.046305459 21832.195
0.092950808 -0.05 -0.04558984 21953.798
0.08901745 -0.05 -0.044860715 22079.264
0.085174232 -0.05 -0.044118143 22209.495
0.081419479 -0.05 -0.043362242 22345.483
0.077751578 -0.05 -0.042593081 22488.896
0.074168981 -0.05 -0.041810614 22640.759
0.070670198 -0.05 -0.041014781 22800.099
0.06725379 -0.05 -0.040205491 22965.576
0.06391837 -0.05 -0.039382651 23137.227
0.060662655 -0.05 -0.038545988 23316.237
0.057485397 -0.05 -0.037695273 23500.593
0.054385414 -0.05 -0.036830261 23691.929
0.051361622 -0.05 -0.035950545 23891.41
0.048412992 -0.05 -0.035055749 24100.137
0.045538629 -0.05 -0.034145316 24319.544
0.042737712 -0.05 -0.03321865 24549.698
0.040009498 -0.05 -0.032275149 24791.123
0.037353406 -0.05 -0.031314032 25044.635
0.034768993 -0.05 -0.030334375 25310.729
0.032255944 -0.05 -0.029335211 25592.25
0.029814132 -0.05 -0.028315426 25894.317
0.027443661 -0.05 -0.027273729 26220.185
0.025144824 -0.05 -0.026208776 26567.527
0.022918276 -0.05 -0.02511886 26939.707
0.020764984 -0.05 -0.02400217 27340.564
0.018686283 -0.05 -0.022856725 27776.669
0.016684024 -0.05 -0.021680228 28243.72
0.01476059 -0.05 -0.020470219 28749.057
0.012919251 -0.05 -0.019223865 29295.08
0.011164249 -0.05 -0.017938283 29883.788
0.0095007128 -0.05 -0.016610449 30516.927
0.0079348886 -0.05 -0.015236971 31197.136
0.006474941 -0.05 -0.013814774 31931.42
0.0051312596 -0.05 -0.012341958 32705.256
0.0039150106 -0.05 -0.010816511 33469.842
0.0028396284 -0.05 -0.009238845 34174.612
0.0019206554 -0.05 -0.007613688 34808.077
0.0011720639 -0.05 -0.0059475212 35318.99
0.0006061561 -0.05 -0.004252283 35599.17
0.00023063831 -0.05 -0.0025452878 35631.453
4.5460517e-05 -0.05 -0.0008455405 35405.363
0.99536103 -0.05 -0.00067021835 26694.111
0.98608197 -0.05 -0.0020028877 26477.212
0.97680071 -0.05 -0.0033200849 26262.388
0.96751731 -0.05 -0.0046220425 26078.347
0.95823181 -0.05 -0.0059090613 25907.547
0.94894428 -0.05 -0.0071813587 25751.643
0.93965479 -0.05 -0.0084391859 25606.767
0.93036339 -0.05 -0.0096828487 25471.915
0.92107013 -0.05 -0.010912491 25345.747
0.91177504 -0.05 -0.012128333 25226.987
0.9024782 -0.05 -0.013330648 25114.731
0.89317963 -0.05 -0.014519511 25008.507
0.88387936 -0.05 -0.015695054 24907.584
0.87457746 -0.05 -0.016857552 24811.271
0.86527394 -0.05 -0.01800713 24719.186
0.85596885 -0.05 -0.019143876 24630.74
0.84666223 -0.05 -0.020267984 24545.541
0.8373541 -0.05 -0.021379502 24463.375
0.82804448 -0.05 -0.022478516 24383.714
0.8187334 -0.05 -0.023565119 24306.481
0.8094209 -0.05 -0.024639397 24231.207
0.80010698 -0.05 -0.025701394 24157.929
0.79079168 -0.05 -0.026751168 24086.29
0.78147501 -0.05 -0.027788748 24016.459
0.77215699 -0.05 -0.028814138 23948.01
0.76283764 -0.05 -0.029827333 23881.08
0.75351698 -0.05 -0.030828337 23815.201
0.744195 -0.05 -0.03181713 23750.629
0.73487174 -0.05 -0.032793639 23686.977
0.72554719 -0.05 -0.033757832 23624.363
0.71622136 -0.05 -0.034709535 23562.418
0.70689427 -0.05 -0.03564879 23500.47
0.69756593 -0.05 -0.03657554 23439.138
0.68823632 -0.05 -0.037489546 23378.523
0.67890547 -0.05 -0.03839067 23318.533
0.66957337 -0.05 -0.039278803 23258.889
0.66024004 -0.05 -0.040153805 23199.431
0.65090546 -0.05 -0.04101549 23140.064
0.64156964 -0.05 -0.041863622 23081.116
0.63223258 -0.05 -0.042697993 23022.484
0.62289428 -0.05 -0.043518409 22964.482
0.61355475 -0.05 -0.044324591 22907.153
0.60421397 -0.05 -0.045116235 22850.452
0.59487195 -0.05 -0.045893096 22793.918
0.58552869 -0.05 -0.046654869 22737.637
0.57618419 -0.05 -0.047401205 22681.162
0.56683843 -0.05 -0.048131797 22624.424
0.55749143 -0.05 -0.04884624 22567.659
0.54814318 -0.05 -0.049544112 22511.26
0.53879368 -0.05 -0.050225066 22455.613
0.52944294 -0.05 -0.050888717 22402.141
0.52009095 -0.05 -0.051534504 22352.062
0.51073771 -0.05 -0.052161963 22306.844
0.50138323 -0.05 -0.052770676 22266.521
0.49202751 -0.05 -0.05336005 22232.521
0.48267056 -0.05 -0.053929509 22204.769
0.47331239 -0.05 -0.054478508 22181.612
0.46395301 -0.05 -0.055006444 22158.936
0.45459243 -0.05 -0.05551264 22128.501
0.44523066 -0.05 -0.055996468 22083.202
0.43586772 -0.05 -0.056457197 22010.101
0.42650365 -0.05 -0.056894081 21906.418
0.41713847 -0.05 -0.057306403 21761.725
0.4077722 -0.05 -0.057693321 21581.671
0.39840488 -0.05 -0.058053993 21364.191
0.38903655 -0.05 -0.058387504 21123.753
0.37966728 -0.05 -0.058692933 20870.998
0.3702971 -0.05 -0.058969274 20622.772
0.36092607 -0.05 -0.059215505 20394.26
0.35155428 -0.05 -0.059430617 20191.517
0.34218182 -0.05 -0.059613395 20024.018
0.33280876 -0.05 -0.059762649 19887.464
0.32343521 -0.05 -0.059877122 19788.076
0.31406128 -0.05 -0.059955444 19717.337
0.30468712 -0.05 -0.059996221 19674.406
