/*--------------------------------*- C++ -*----------------------------------*\
| =========                 |                                                 |
| \\      /  F ield         | OpenFOAM: The Open Source CFD Toolbox           |
|  \\    /   O peration     | Version:  2306                                  |
|   \\  /    A nd           | Website:  www.openfoam.com                      |
|    \\/     M anipulation  |                                                 |
\*---------------------------------------------------------------------------*/
FoamFile
{
    version     2.0;
    format      ascii;
    arch        "LSB;label=32;scalar=64";
    class       volScalarField;
    location    "225";
    object      magR;
}
// * * * * * * * * * * * * * * * * * * * * * * * * * * * * * * * * * * * * * //

dimensions      [0 2 -2 0 0 0 0];

internalField   nonuniform List<scalar> 
1340
(
0.000591597
0.000584653
0.00057701
0.000567489
0.000554964
0.000502283
0.000496062
0.000489443
0.000481454
0.000470969
0.000458889
0.000429334
0.000423767
0.000417967
0.0004112
0.000402368
0.00039241
0.000381454
0.000369033
0.00036408
0.000358985
0.0003532
0.000345732
0.000337458
0.000328544
0.000318898
0.00031878
0.000314353
0.00030988
0.000304882
0.000298539
0.000291621
0.00028427
0.000276335
0.000267812
0.000276558
0.000272592
0.000268656
0.00026432
0.000258896
0.000253075
0.000246943
0.000240361
0.000233382
0.000226223
0.00024083
0.000237288
0.000233801
0.000230027
0.000225364
0.000220439
0.000215273
0.000209764
0.000204006
0.000198159
0.000210412
0.000207257
0.000204164
0.000200853
0.000196829
0.000192637
0.000188247
0.000183603
0.000178819
0.000174009
0.00016915
0.00018438
0.000181565
0.000178818
0.000175902
0.000172412
0.000168826
0.000165066
0.000161126
0.000157121
0.000153134
0.000149135
0.000161993
0.000159478
0.000157032
0.000154456
0.000151421
0.000148328
0.000145092
0.000141728
0.000138354
0.000135022
0.000131712
0.0001284
0.000142655
0.000140406
0.000138223
0.000135943
0.000133296
0.000130607
0.000127811
0.000124924
0.000122059
0.000119256
0.000116495
0.000113752
0.000125885
0.000123873
0.000121922
0.0001199
0.000117585
0.000115235
0.000112803
0.000110315
0.00010787
0.000105496
0.000103176
0.000100885
0.000111291
0.000109493
0.000107743
0.000105947
0.000103915
0.000101853
9.97313e-05
9.75764e-05
9.54758e-05
9.34514e-05
9.1486e-05
8.95642e-05
8.76688e-05
9.8551e-05
9.69443e-05
9.53755e-05
9.37761e-05
9.19864e-05
9.01703e-05
8.83121e-05
8.64352e-05
8.46219e-05
8.28853e-05
8.12102e-05
7.95826e-05
7.7987e-05
8.74001e-05
8.59604e-05
8.45574e-05
8.31292e-05
8.15489e-05
7.99448e-05
7.83111e-05
7.66702e-05
7.50945e-05
7.35951e-05
7.21576e-05
7.07713e-05
6.94208e-05
6.80804e-05
7.76145e-05
7.63241e-05
7.50682e-05
7.37909e-05
7.23927e-05
7.09723e-05
6.95301e-05
6.80911e-05
6.67164e-05
6.54139e-05
6.41729e-05
6.29828e-05
6.18297e-05
6.06899e-05
6.90062e-05
6.78516e-05
6.67255e-05
6.55808e-05
6.43421e-05
6.30816e-05
6.18048e-05
6.05387e-05
5.93329e-05
5.81963e-05
5.7118e-05
5.60903e-05
5.50995e-05
5.41244e-05
6.14189e-05
6.03857e-05
5.93761e-05
5.83491e-05
5.72492e-05
5.61287e-05
5.49949e-05
5.38773e-05
5.2817e-05
5.18202e-05
5.08779e-05
4.99838e-05
4.91267e-05
4.82878e-05
4.74472e-05
5.47195e-05
5.37931e-05
5.28886e-05
5.19673e-05
5.09886e-05
4.9991e-05
4.89835e-05
4.79934e-05
4.70573e-05
4.61793e-05
4.53515e-05
4.45695e-05
4.38229e-05
4.30956e-05
4.23705e-05
4.87927e-05
4.79618e-05
4.71522e-05
4.63258e-05
4.54526e-05
4.45638e-05
4.36675e-05
4.27882e-05
4.19593e-05
4.11828e-05
4.0453e-05
3.97655e-05
3.91112e-05
3.8477e-05
3.78468e-05
4.35414e-05
4.27966e-05
4.20716e-05
4.13309e-05
4.05503e-05
3.97582e-05
3.89596e-05
3.81776e-05
3.74413e-05
3.67527e-05
3.61061e-05
3.54986e-05
3.49233e-05
3.43673e-05
3.38169e-05
3.3262e-05
3.88828e-05
3.8215e-05
3.75655e-05
3.69019e-05
3.62042e-05
3.54971e-05
3.47851e-05
3.40888e-05
3.34333e-05
3.28208e-05
3.22462e-05
3.17081e-05
3.11984e-05
3.0708e-05
3.02262e-05
2.97411e-05
3.41458e-05
3.35643e-05
3.29695e-05
3.23457e-05
3.17145e-05
3.10792e-05
3.04584e-05
2.98743e-05
2.93284e-05
2.88163e-05
2.83372e-05
2.78851e-05
2.74511e-05
2.7026e-05
2.66005e-05
2.61642e-05
3.05272e-05
3.00073e-05
2.9474e-05
2.89162e-05
2.83529e-05
2.77859e-05
2.72319e-05
2.67109e-05
2.62237e-05
2.57667e-05
2.53392e-05
2.49365e-05
2.45508e-05
2.41746e-05
2.38e-05
2.34169e-05
2.73062e-05
2.68413e-05
2.63637e-05
2.58649e-05
2.53622e-05
2.48563e-05
2.43622e-05
2.38968e-05
2.34615e-05
2.3053e-05
2.26707e-05
2.23113e-05
2.19682e-05
2.16339e-05
2.13028e-05
2.09662e-05
2.44361e-05
2.40206e-05
2.3593e-05
2.31475e-05
2.2699e-05
2.22478e-05
2.1807e-05
2.13915e-05
2.10025e-05
2.06371e-05
2.02951e-05
1.99737e-05
1.96671e-05
1.937e-05
1.90768e-05
1.87801e-05
1.84727e-05
2.18763e-05
2.15051e-05
2.11229e-05
2.07251e-05
2.03254e-05
1.99234e-05
1.95302e-05
1.91596e-05
1.8812e-05
1.84851e-05
1.81789e-05
1.78913e-05
1.76176e-05
1.73527e-05
1.70924e-05
1.68304e-05
1.65603e-05
1.95917e-05
1.92602e-05
1.89188e-05
1.85642e-05
1.82083e-05
1.78502e-05
1.75002e-05
1.71696e-05
1.68594e-05
1.65671e-05
1.62932e-05
1.60358e-05
1.57908e-05
1.5555e-05
1.53239e-05
1.50922e-05
1.48543e-05
1.75511e-05
1.72551e-05
1.69505e-05
1.66349e-05
1.63184e-05
1.60001e-05
1.56887e-05
1.53945e-05
1.51178e-05
1.48567e-05
1.46118e-05
1.43817e-05
1.41629e-05
1.39526e-05
1.37472e-05
1.35424e-05
1.3333e-05
1.31144e-05
1.5727e-05
1.54631e-05
1.51915e-05
1.49111e-05
1.46302e-05
1.43476e-05
1.40712e-05
1.38099e-05
1.35635e-05
1.33307e-05
1.31121e-05
1.29064e-05
1.27113e-05
1.25239e-05
1.23417e-05
1.21606e-05
1.19765e-05
1.17848e-05
1.40954e-05
1.38604e-05
1.36186e-05
1.337e-05
1.31212e-05
1.28709e-05
1.26261e-05
1.23944e-05
1.21756e-05
1.19686e-05
1.17737e-05
1.15904e-05
1.14164e-05
1.12498e-05
1.10882e-05
1.09282e-05
1.07665e-05
1.05987e-05
1.26353e-05
1.24262e-05
1.22114e-05
1.19913e-05
1.17715e-05
1.15504e-05
1.13341e-05
1.11293e-05
1.09356e-05
1.07518e-05
1.05786e-05
1.04156e-05
1.02609e-05
1.0113e-05
9.97002e-06
9.82911e-06
9.68709e-06
9.54035e-06
9.38513e-06
1.13279e-05
1.11419e-05
1.09516e-05
1.07573e-05
1.05636e-05
1.03688e-05
1.01784e-05
9.99793e-06
9.82711e-06
9.66449e-06
9.51097e-06
9.36634e-06
9.22913e-06
9.09822e-06
8.97197e-06
8.84797e-06
8.72358e-06
8.59594e-06
8.46109e-06
1.01565e-05
9.99146e-06
9.82306e-06
9.65214e-06
9.48197e-06
9.31088e-06
9.14388e-06
8.98557e-06
8.83536e-06
8.69212e-06
8.55652e-06
8.42868e-06
8.30734e-06
8.19176e-06
8.08063e-06
7.97187e-06
7.86322e-06
7.75223e-06
7.63531e-06
9.10665e-06
8.96035e-06
8.81168e-06
8.66186e-06
8.51285e-06
8.36319e-06
8.21737e-06
8.07913e-06
7.94777e-06
7.82202e-06
7.70266e-06
7.59e-06
7.48316e-06
7.38152e-06
7.28408e-06
7.1889e-06
7.09426e-06
6.99806e-06
6.89733e-06
6.78896e-06
8.16521e-06
8.03573e-06
7.90498e-06
7.77403e-06
7.64411e-06
7.5138e-06
7.3872e-06
7.26718e-06
7.15273e-06
7.04282e-06
6.93831e-06
6.83944e-06
6.7457e-06
6.65662e-06
6.57147e-06
6.48858e-06
6.40656e-06
6.32352e-06
6.23687e-06
6.14379e-06
7.3207e-06
7.20629e-06
7.09171e-06
6.97778e-06
6.86502e-06
6.75216e-06
6.64291e-06
6.53933e-06
6.44024e-06
6.34468e-06
6.25352e-06
6.16717e-06
6.08527e-06
6.00758e-06
5.93351e-06
5.86167e-06
5.79083e-06
5.71933e-06
5.64508e-06
5.56569e-06
6.56285e-06
6.46195e-06
6.36192e-06
6.26333e-06
6.16592e-06
6.06882e-06
5.97528e-06
5.88654e-06
5.8013e-06
5.71867e-06
5.63957e-06
5.56454e-06
5.49337e-06
5.42595e-06
5.36177e-06
5.29979e-06
5.23892e-06
5.17774e-06
5.1145e-06
5.04708e-06
4.97309e-06
5.88255e-06
5.79376e-06
5.7068e-06
5.62202e-06
5.5384e-06
5.45547e-06
5.37611e-06
5.30072e-06
5.22792e-06
5.15693e-06
5.08868e-06
5.02387e-06
4.96239e-06
4.90421e-06
4.84896e-06
4.79582e-06
4.74382e-06
4.69172e-06
4.63804e-06
4.58107e-06
4.51867e-06
5.27165e-06
5.19374e-06
5.11849e-06
5.04612e-06
4.97487e-06
4.90471e-06
4.83815e-06
4.77474e-06
4.71304e-06
4.65251e-06
4.59404e-06
4.53841e-06
4.48566e-06
4.43582e-06
4.3886e-06
4.3433e-06
4.29911e-06
4.25503e-06
4.20979e-06
4.16187e-06
4.1095e-06
4.7229e-06
4.65478e-06
4.59005e-06
4.5288e-06
4.46857e-06
4.40995e-06
4.35492e-06
4.30221e-06
4.25044e-06
4.19924e-06
4.14957e-06
4.10221e-06
4.05733e-06
4.01496e-06
3.97492e-06
3.93659e-06
3.89931e-06
3.86224e-06
3.82432e-06
3.78428e-06
3.74058e-06
4.22987e-06
4.1705e-06
4.11524e-06
4.0639e-06
4.01354e-06
3.96536e-06
3.92064e-06
3.87749e-06
3.83455e-06
3.7917e-06
3.74993e-06
3.71002e-06
3.67217e-06
3.6365e-06
3.60284e-06
3.57068e-06
3.53947e-06
3.50852e-06
3.47691e-06
3.44362e-06
3.40733e-06
3.36649e-06
3.78681e-06
3.73526e-06
3.6885e-06
3.646e-06
3.60448e-06
3.5657e-06
3.53024e-06
3.49552e-06
3.46045e-06
3.42506e-06
3.39037e-06
3.35715e-06
3.32562e-06
3.29589e-06
3.26784e-06
3.24104e-06
3.21508e-06
3.18941e-06
3.16324e-06
3.13567e-06
3.10572e-06
3.07194e-06
3.38856e-06
3.344e-06
3.30488e-06
3.27023e-06
3.2366e-06
3.20632e-06
3.17913e-06
3.15184e-06
3.12375e-06
3.09504e-06
3.06671e-06
3.03947e-06
3.01352e-06
2.98897e-06
2.96579e-06
2.94365e-06
2.92219e-06
2.90096e-06
2.87932e-06
2.85658e-06
2.83185e-06
2.80393e-06
3.03051e-06
2.99219e-06
2.95995e-06
2.93225e-06
2.90568e-06
2.88309e-06
2.86323e-06
2.84245e-06
2.82058e-06
2.79788e-06
2.7752e-06
2.75322e-06
2.73213e-06
2.71205e-06
2.69299e-06
2.67472e-06
2.65698e-06
2.63942e-06
2.62155e-06
2.60274e-06
2.58229e-06
2.5592e-06
2.70857e-06
2.67581e-06
2.64975e-06
2.62818e-06
2.60794e-06
2.59233e-06
2.57891e-06
2.56382e-06
2.54751e-06
2.53018e-06
2.5125e-06
2.49506e-06
2.47805e-06
2.46166e-06
2.44596e-06
2.43082e-06
2.41609e-06
2.40148e-06
2.3866e-06
2.37095e-06
2.35394e-06
2.33473e-06
2.31244e-06
2.41904e-06
2.39126e-06
2.37074e-06
2.35455e-06
2.34002e-06
2.33073e-06
2.3229e-06
2.31276e-06
2.30149e-06
2.28895e-06
2.27555e-06
2.26187e-06
2.24815e-06
2.23466e-06
2.22157e-06
2.20885e-06
2.19643e-06
2.18411e-06
2.17158e-06
2.15842e-06
2.14414e-06
2.12807e-06
2.10937e-06
2.15865e-06
2.1353e-06
2.11975e-06
2.10826e-06
2.0989e-06
2.09533e-06
2.09229e-06
2.08646e-06
2.0798e-06
2.07146e-06
2.06158e-06
2.05081e-06
2.03956e-06
2.0282e-06
2.01701e-06
2.00611e-06
1.99545e-06
1.98491e-06
1.97423e-06
1.96305e-06
1.95098e-06
1.93742e-06
1.9217e-06
1.92445e-06
1.90505e-06
1.89394e-06
1.88654e-06
1.88189e-06
1.88347e-06
1.88442e-06
1.88243e-06
1.88007e-06
1.87528e-06
1.86802e-06
1.8593e-06
1.84975e-06
1.83987e-06
1.83009e-06
1.82056e-06
1.81129e-06
1.80219e-06
1.79303e-06
1.78351e-06
1.77329e-06
1.76189e-06
1.74873e-06
1.7138e-06
1.69792e-06
1.69078e-06
1.68692e-06
1.6866e-06
1.69276e-06
1.69694e-06
1.69845e-06
1.70013e-06
1.69812e-06
1.69254e-06
1.68508e-06
1.67666e-06
1.66786e-06
1.65917e-06
1.65081e-06
1.64277e-06
1.63496e-06
1.62718e-06
1.61918e-06
1.61064e-06
1.60117e-06
1.59026e-06
1.52435e-06
1.51162e-06
1.50798e-06
1.50719e-06
1.51091e-06
1.52104e-06
1.52774e-06
1.53254e-06
1.53803e-06
1.5379e-06
1.53309e-06
1.52635e-06
1.51877e-06
1.51093e-06
1.50332e-06
1.49613e-06
1.48932e-06
1.48279e-06
1.47634e-06
1.46975e-06
1.46276e-06
1.45502e-06
1.44613e-06
1.43601e-06
1.35394e-06
1.34404e-06
1.34351e-06
1.34536e-06
1.35288e-06
1.36638e-06
1.37498e-06
1.38307e-06
1.39205e-06
1.39269e-06
1.38791e-06
1.38173e-06
1.3751e-06
1.36838e-06
1.36198e-06
1.35603e-06
1.35047e-06
1.34516e-06
1.33992e-06
1.33457e-06
1.3289e-06
1.32259e-06
1.31532e-06
1.30698e-06
1.2007e-06
1.19331e-06
1.19548e-06
1.1996e-06
1.21072e-06
1.22691e-06
1.23696e-06
1.24862e-06
1.26072e-06
1.26089e-06
1.25567e-06
1.25032e-06
1.24501e-06
1.2396e-06
1.23446e-06
1.22968e-06
1.22518e-06
1.22085e-06
1.21654e-06
1.2121e-06
1.20735e-06
1.20202e-06
1.19585e-06
1.18871e-06
1.06298e-06
1.05785e-06
1.0623e-06
1.06835e-06
1.08284e-06
1.10093e-06
1.11206e-06
1.12759e-06
1.1426e-06
1.14132e-06
1.13562e-06
1.1316e-06
1.12786e-06
1.12367e-06
1.11947e-06
1.11548e-06
1.11163e-06
1.10783e-06
1.10398e-06
1.09997e-06
1.09565e-06
1.0908e-06
1.08516e-06
1.07862e-06
9.39308e-07
9.36253e-07
9.42628e-07
9.50359e-07
9.67985e-07
9.8714e-07
9.98966e-07
1.0181e-06
1.03575e-06
1.0329e-06
1.02734e-06
1.02504e-06
1.02266e-06
1.01911e-06
1.01521e-06
1.01135e-06
1.00755e-06
1.00373e-06
9.99856e-07
9.95839e-07
9.91551e-07
9.8678e-07
9.81261e-07
9.74936e-07
8.28313e-07
8.27161e-07
8.35186e-07
8.44529e-07
8.65151e-07
8.84764e-07
8.97071e-07
9.19286e-07
9.38859e-07
9.34357e-07
9.29724e-07
9.29238e-07
9.27417e-07
9.23629e-07
9.19361e-07
9.15154e-07
9.10985e-07
9.06842e-07
9.02683e-07
8.98435e-07
8.93984e-07
8.8912e-07
8.83576e-07
8.77319e-07
7.28858e-07
7.29289e-07
7.38592e-07
7.49527e-07
7.72886e-07
7.92572e-07
8.05583e-07
8.32418e-07
8.53961e-07
8.44852e-07
8.40397e-07
8.41796e-07
8.39887e-07
8.3514e-07
8.30164e-07
8.255e-07
8.20958e-07
8.165e-07
8.12103e-07
8.07707e-07
8.03154e-07
7.98245e-07
7.92738e-07
7.86592e-07
7.8009e-07
6.41201e-07
6.4279e-07
6.52592e-07
6.64621e-07
6.89678e-07
7.08247e-07
7.21336e-07
7.54895e-07
7.82899e-07
7.65113e-07
7.58091e-07
7.61911e-07
7.60313e-07
7.54624e-07
7.49035e-07
7.4413e-07
7.39424e-07
7.34784e-07
7.30285e-07
7.25846e-07
7.21285e-07
7.16407e-07
7.10997e-07
7.04988e-07
6.98631e-07
5.70541e-07
5.72628e-07
5.81659e-07
5.93168e-07
6.17385e-07
6.31479e-07
6.41241e-07
6.81257e-07
7.16629e-07
6.92136e-07
6.83519e-07
6.9065e-07
6.90978e-07
6.85733e-07
6.80363e-07
6.75796e-07
6.71386e-07
6.66958e-07
6.62611e-07
6.58302e-07
6.53893e-07
6.49165e-07
6.43908e-07
6.38063e-07
6.31879e-07
5.14569e-07
5.16633e-07
5.2411e-07
5.33963e-07
5.55028e-07
5.62434e-07
5.68938e-07
6.05405e-07
6.45535e-07
6.23131e-07
6.16874e-07
6.26615e-07
6.29861e-07
6.26576e-07
6.2224e-07
6.1844e-07
6.14725e-07
6.1091e-07
6.07044e-07
6.03141e-07
5.99118e-07
5.94778e-07
5.89885e-07
5.84379e-07
5.7853e-07
4.6337e-07
4.65372e-07
4.71391e-07
4.80081e-07
4.97954e-07
4.99819e-07
5.05898e-07
5.34006e-07
5.74233e-07
5.59244e-07
5.56528e-07
5.67053e-07
5.72611e-07
5.7157e-07
5.68499e-07
5.65475e-07
5.62458e-07
5.59277e-07
5.55983e-07
5.52603e-07
5.49074e-07
5.4523e-07
5.4084e-07
5.3581e-07
5.30416e-07
4.13345e-07
4.15251e-07
4.19872e-07
4.27907e-07
4.42362e-07
4.40628e-07
4.47774e-07
4.67886e-07
5.08623e-07
5.01732e-07
5.02082e-07
5.12019e-07
5.18646e-07
5.19324e-07
5.17442e-07
5.15229e-07
5.12937e-07
5.10363e-07
5.07558e-07
5.04618e-07
5.01518e-07
4.98102e-07
4.94181e-07
4.89586e-07
4.8455e-07
3.6578e-07
3.67497e-07
3.70834e-07
3.78504e-07
3.89262e-07
3.86025e-07
3.94253e-07
4.07265e-07
4.49033e-07
4.49642e-07
4.53034e-07
4.62265e-07
4.69316e-07
4.71069e-07
4.69967e-07
4.6843e-07
4.6696e-07
4.65226e-07
4.6308e-07
4.60619e-07
4.57879e-07
4.54795e-07
4.51169e-07
4.4685e-07
4.42005e-07
3.20881e-07
3.222e-07
3.24307e-07
3.316e-07
3.3848e-07
3.36114e-07
3.44448e-07
3.52319e-07
3.96195e-07
4.03248e-07
4.09155e-07
4.17859e-07
4.254e-07
4.28179e-07
4.27441e-07
4.25678e-07
4.24053e-07
4.22581e-07
4.20986e-07
4.1909e-07
4.16774e-07
4.13935e-07
4.10341e-07
4.05927e-07
4.00849e-07
2.7921e-07
2.79807e-07
2.806e-07
2.86974e-07
2.89848e-07
2.90609e-07
2.97222e-07
3.03219e-07
3.50431e-07
3.62977e-07
3.70917e-07
3.7854e-07
3.85629e-07
3.89426e-07
3.9008e-07
3.88739e-07
3.86353e-07
3.83528e-07
3.80683e-07
3.77966e-07
3.75221e-07
3.72095e-07
3.68071e-07
3.62716e-07
3.5607e-07
2.41173e-07
2.40792e-07
2.40156e-07
2.44549e-07
2.43229e-07
2.48125e-07
2.49942e-07
2.59139e-07
3.11509e-07
3.28438e-07
3.39474e-07
3.46106e-07
3.49677e-07
3.50193e-07
3.49893e-07
3.49871e-07
3.49495e-07
3.47648e-07
3.44106e-07
3.3942e-07
3.34115e-07
3.28338e-07
3.21816e-07
3.14182e-07
3.05362e-07
2.9552e-07
2.06744e-07
2.05284e-07
2.03189e-07
2.04511e-07
1.99333e-07
2.07373e-07
2.0044e-07
2.20639e-07
2.79479e-07
2.96375e-07
3.11487e-07
3.19626e-07
3.20593e-07
3.15015e-07
3.06529e-07
2.9935e-07
2.95462e-07
2.94065e-07
2.9305e-07
2.90736e-07
2.86332e-07
2.79686e-07
2.70808e-07
2.60106e-07
2.48282e-07
2.36099e-07
1.76017e-07
1.73026e-07
1.68769e-07
1.66127e-07
1.58816e-07
1.68778e-07
1.53165e-07
1.9716e-07
2.57281e-07
2.68072e-07
2.83912e-07
2.89576e-07
2.9128e-07
2.9023e-07
2.81873e-07
2.66281e-07
2.49362e-07
2.37139e-07
2.3221e-07
2.338e-07
2.39363e-07
2.45963e-07
2.49937e-07
2.47866e-07
2.40046e-07
2.30081e-07
1.512e-07
1.4536e-07
1.364e-07
1.27491e-07
1.19063e-07
1.30954e-07
1.19157e-07
1.99305e-07
2.47399e-07
2.66324e-07
3.04881e-07
3.14805e-07
3.03094e-07
2.83835e-07
2.71177e-07
2.73513e-07
2.85684e-07
2.9701e-07
3.02362e-07
3.0278e-07
3.01006e-07
2.99933e-07
3.03994e-07
3.18632e-07
3.43998e-07
3.74377e-07
1.36123e-07
1.26683e-07
1.10536e-07
9.0801e-08
7.59313e-08
8.66323e-08
9.78249e-08
2.01925e-07
2.20596e-07
2.57586e-07
3.28867e-07
3.9013e-07
4.51917e-07
5.15317e-07
5.73202e-07
6.21036e-07
6.57595e-07
6.87369e-07
7.16292e-07
7.47906e-07
7.83229e-07
8.21541e-07
8.60953e-07
8.96661e-07
9.23771e-07
9.44815e-07
1.29189e-07
1.18002e-07
9.71978e-08
6.70934e-08
3.56652e-08
4.26754e-08
8.74027e-08
1.5249e-07
2.20461e-07
4.82493e-07
7.36739e-07
9.65244e-07
1.14661e-06
1.27764e-06
1.3648e-06
1.42295e-06
1.46737e-06
1.50917e-06
1.55209e-06
1.59546e-06
1.63712e-06
1.67671e-06
1.71588e-06
1.76036e-06
1.80575e-06
1.84422e-06
)
;

boundaryField
{
    inlet
    {
        type            calculated;
        value           nonuniform List<scalar> 
26
(
1.30087e-07
1.19101e-07
9.81459e-08
6.66047e-08
3.0704e-08
4.37622e-08
1.03762e-07
1.11201e-07
4.97795e-07
1.01943e-06
1.61153e-06
2.20213e-06
2.73981e-06
3.2027e-06
3.58056e-06
3.8827e-06
4.12462e-06
4.3229e-06
4.49304e-06
4.64765e-06
4.79631e-06
4.94927e-06
5.11864e-06
5.31346e-06
5.52058e-06
5.7184e-06
)
;
    }
    outlet
    {
        type            calculated;
        value           nonuniform List<scalar> 0();
    }
    walls
    {
        type            calculated;
        value           nonuniform List<scalar> 0();
    }
    frontAndBack
    {
        type            empty;
    }
    procBoundary0to1
    {
        type            processor;
        value           nonuniform List<scalar> 
94
(
0.000659007
0.000540155
0.000540155
0.00044523
0.00044523
0.000369588
0.000369588
0.000308402
0.000308402
0.00025897
0.00025897
0.000218863
0.000192206
0.000192206
0.000164206
0.000145105
0.000145105
0.000125067
0.000111011
9.86139e-05
9.86139e-05
8.57631e-05
7.63952e-05
7.63952e-05
6.67115e-05
5.9536e-05
5.31429e-05
5.31429e-05
4.6583e-05
4.16306e-05
3.72088e-05
3.72088e-05
3.26858e-05
2.92417e-05
2.92417e-05
2.57045e-05
2.30171e-05
2.06163e-05
2.06163e-05
1.81464e-05
1.62754e-05
1.46049e-05
1.46049e-05
1.28792e-05
1.158e-05
1.04203e-05
1.04203e-05
9.2159e-06
8.31491e-06
7.50924e-06
7.50924e-06
6.66861e-06
6.0412e-06
5.47849e-06
5.47849e-06
4.88913e-06
4.44816e-06
4.05043e-06
3.69137e-06
3.69137e-06
3.319e-06
3.03273e-06
2.77155e-06
2.53242e-06
2.53242e-06
2.28653e-06
2.08776e-06
1.9036e-06
1.73363e-06
1.57785e-06
1.57785e-06
1.42483e-06
1.2978e-06
1.18081e-06
1.07142e-06
9.68068e-07
8.70658e-07
8.70658e-07
7.73512e-07
6.92302e-07
6.25733e-07
5.72707e-07
5.2499e-07
4.79364e-07
4.36851e-07
3.95372e-07
3.48635e-07
3.48635e-07
2.84776e-07
2.24089e-07
2.2088e-07
4.05145e-07
9.63536e-07
1.87476e-06
)
;
    }
    procBoundary0to4
    {
        type            processor;
        value           nonuniform List<scalar> 
72
(
0.000597008
0.000507357
0.000434065
0.00037339
0.000322757
0.000280164
0.000244099
0.000213376
0.000187059
0.000164406
0.000144828
0.000127844
0.000113056
0.000100142
8.88326e-05
7.89039e-05
7.01685e-05
6.24661e-05
5.56619e-05
4.9642e-05
4.4307e-05
3.95722e-05
3.47444e-05
3.47444e-05
3.10639e-05
2.77872e-05
2.4867e-05
2.22624e-05
1.99373e-05
1.78599e-05
1.60028e-05
1.43416e-05
1.28548e-05
1.15232e-05
1.03302e-05
9.26079e-06
8.30186e-06
7.44159e-06
6.6696e-06
5.9766e-06
5.35435e-06
4.79546e-06
4.29338e-06
3.84223e-06
3.43677e-06
3.07232e-06
2.74469e-06
2.45012e-06
2.18527e-06
1.94713e-06
1.733e-06
1.54048e-06
1.36739e-06
1.21181e-06
1.07202e-06
9.46525e-07
8.33955e-07
7.3318e-07
6.44531e-07
5.73334e-07
5.17031e-07
4.65488e-07
4.15138e-07
3.67289e-07
3.22195e-07
2.80451e-07
2.42481e-07
2.08262e-07
1.77991e-07
1.53973e-07
1.39746e-07
1.33172e-07
)
;
    }
    procBoundary0to5
    {
        type            processor;
        value           nonuniform List<scalar> 4(0.000701747 0.000694168 0.000685398 0.00067407);
    }
}


// ************************************************************************* //
