/*--------------------------------*- C++ -*----------------------------------*\
| =========                 |                                                 |
| \\      /  F ield         | OpenFOAM: The Open Source CFD Toolbox           |
|  \\    /   O peration     | Version:  2306                                  |
|   \\  /    A nd           | Website:  www.openfoam.com                      |
|    \\/     M anipulation  |                                                 |
\*---------------------------------------------------------------------------*/
FoamFile
{
    version     2.0;
    format      ascii;
    arch        "LSB;label=32;scalar=64";
    class       volScalarField;
    location    "225";
    object      nut;
}
// * * * * * * * * * * * * * * * * * * * * * * * * * * * * * * * * * * * * * //

dimensions      [0 2 -1 0 0 0 0];

internalField   nonuniform List<scalar> 
1340
(
6.10309e-06
6.10251e-06
6.10131e-06
6.10067e-06
6.09991e-06
6.10308e-06
6.10262e-06
6.10143e-06
6.10058e-06
6.09965e-06
6.10092e-06
6.10297e-06
6.10268e-06
6.10158e-06
6.10059e-06
6.09951e-06
6.10063e-06
6.10098e-06
6.1028e-06
6.1027e-06
6.10172e-06
6.10065e-06
6.09944e-06
6.1004e-06
6.10073e-06
6.1003e-06
6.1026e-06
6.10267e-06
6.10182e-06
6.10071e-06
6.09941e-06
6.10021e-06
6.10051e-06
6.10012e-06
6.09961e-06
6.10235e-06
6.10255e-06
6.10184e-06
6.10073e-06
6.09938e-06
6.10004e-06
6.1003e-06
6.09994e-06
6.09947e-06
6.09918e-06
6.10207e-06
6.10238e-06
6.1018e-06
6.10074e-06
6.09938e-06
6.0999e-06
6.10011e-06
6.09978e-06
6.09933e-06
6.09903e-06
6.10176e-06
6.10217e-06
6.10175e-06
6.10077e-06
6.09942e-06
6.0998e-06
6.09995e-06
6.09964e-06
6.09919e-06
6.09887e-06
6.09865e-06
6.10147e-06
6.10197e-06
6.1017e-06
6.1008e-06
6.09948e-06
6.09973e-06
6.09983e-06
6.09953e-06
6.09906e-06
6.09874e-06
6.0985e-06
6.10125e-06
6.10181e-06
6.10166e-06
6.10083e-06
6.09954e-06
6.09968e-06
6.09974e-06
6.09943e-06
6.09896e-06
6.09862e-06
6.09836e-06
6.09819e-06
6.10109e-06
6.10165e-06
6.10158e-06
6.1008e-06
6.09956e-06
6.09962e-06
6.09963e-06
6.09933e-06
6.09886e-06
6.0985e-06
6.09823e-06
6.09805e-06
6.10096e-06
6.10146e-06
6.10144e-06
6.10071e-06
6.09954e-06
6.09952e-06
6.09951e-06
6.09921e-06
6.09875e-06
6.09839e-06
6.0981e-06
6.09791e-06
6.1008e-06
6.10123e-06
6.10125e-06
6.10058e-06
6.09947e-06
6.0994e-06
6.09935e-06
6.09906e-06
6.09863e-06
6.09826e-06
6.09797e-06
6.09778e-06
6.09762e-06
6.10061e-06
6.10098e-06
6.10104e-06
6.10045e-06
6.09939e-06
6.09926e-06
6.09919e-06
6.09889e-06
6.09848e-06
6.09812e-06
6.09784e-06
6.09764e-06
6.09748e-06
6.1004e-06
6.10075e-06
6.10086e-06
6.10034e-06
6.09933e-06
6.09915e-06
6.09903e-06
6.09873e-06
6.09833e-06
6.09798e-06
6.09771e-06
6.0975e-06
6.09733e-06
6.0972e-06
6.10024e-06
6.10057e-06
6.10072e-06
6.10025e-06
6.09929e-06
6.09905e-06
6.09889e-06
6.09858e-06
6.09818e-06
6.09784e-06
6.09758e-06
6.09736e-06
6.09719e-06
6.09707e-06
6.10012e-06
6.10044e-06
6.1006e-06
6.10017e-06
6.09925e-06
6.09897e-06
6.09877e-06
6.09844e-06
6.09804e-06
6.0977e-06
6.09744e-06
6.09723e-06
6.09707e-06
6.09696e-06
6.10005e-06
6.10033e-06
6.10047e-06
6.10006e-06
6.09919e-06
6.09888e-06
6.09865e-06
6.0983e-06
6.0979e-06
6.09756e-06
6.09731e-06
6.0971e-06
6.09695e-06
6.09684e-06
6.09677e-06
6.09999e-06
6.1002e-06
6.10032e-06
6.09992e-06
6.09909e-06
6.09875e-06
6.0985e-06
6.09815e-06
6.09775e-06
6.09742e-06
6.09717e-06
6.09697e-06
6.09682e-06
6.09672e-06
6.09665e-06
6.09989e-06
6.10004e-06
6.10013e-06
6.09975e-06
6.09896e-06
6.0986e-06
6.09833e-06
6.09797e-06
6.09758e-06
6.09726e-06
6.09702e-06
6.09683e-06
6.09668e-06
6.09658e-06
6.09652e-06
6.09976e-06
6.09986e-06
6.09994e-06
6.09957e-06
6.09881e-06
6.09843e-06
6.09813e-06
6.09777e-06
6.09739e-06
6.09708e-06
6.09685e-06
6.09666e-06
6.09653e-06
6.09644e-06
6.09637e-06
6.09634e-06
6.09962e-06
6.09969e-06
6.09976e-06
6.0994e-06
6.09866e-06
6.09825e-06
6.09793e-06
6.09756e-06
6.09718e-06
6.09688e-06
6.09666e-06
6.09648e-06
6.09636e-06
6.09627e-06
6.09621e-06
6.09618e-06
6.09953e-06
6.09959e-06
6.09924e-06
6.09851e-06
6.09807e-06
6.09772e-06
6.09734e-06
6.09696e-06
6.09667e-06
6.09645e-06
6.09628e-06
6.09617e-06
6.09609e-06
6.09603e-06
6.096e-06
6.09599e-06
6.0994e-06
6.09944e-06
6.09908e-06
6.09836e-06
6.09789e-06
6.09752e-06
6.09712e-06
6.09674e-06
6.09645e-06
6.09624e-06
6.09607e-06
6.09596e-06
6.09588e-06
6.09583e-06
6.0958e-06
6.09579e-06
6.09926e-06
6.09928e-06
6.09892e-06
6.0982e-06
6.0977e-06
6.09731e-06
6.0969e-06
6.09652e-06
6.09622e-06
6.09601e-06
6.09585e-06
6.09573e-06
6.09566e-06
6.09561e-06
6.09557e-06
6.09556e-06
6.09912e-06
6.0991e-06
6.09874e-06
6.09802e-06
6.0975e-06
6.09708e-06
6.09666e-06
6.09628e-06
6.09599e-06
6.09577e-06
6.09561e-06
6.09549e-06
6.09541e-06
6.09536e-06
6.09532e-06
6.09531e-06
6.0953e-06
6.09896e-06
6.09891e-06
6.09853e-06
6.09782e-06
6.09728e-06
6.09684e-06
6.09642e-06
6.09603e-06
6.09574e-06
6.09552e-06
6.09535e-06
6.09523e-06
6.09514e-06
6.09509e-06
6.09505e-06
6.09502e-06
6.09501e-06
6.09878e-06
6.09871e-06
6.09832e-06
6.0976e-06
6.09704e-06
6.09658e-06
6.09615e-06
6.09576e-06
6.09547e-06
6.09524e-06
6.09507e-06
6.09494e-06
6.09485e-06
6.09478e-06
6.09474e-06
6.09471e-06
6.09469e-06
6.0986e-06
6.09851e-06
6.0981e-06
6.09737e-06
6.09679e-06
6.09631e-06
6.09587e-06
6.09548e-06
6.09517e-06
6.09494e-06
6.09476e-06
6.09462e-06
6.09452e-06
6.09444e-06
6.09439e-06
6.09435e-06
6.09432e-06
6.09431e-06
6.09841e-06
6.0983e-06
6.09788e-06
6.09713e-06
6.09652e-06
6.09602e-06
6.09557e-06
6.09517e-06
6.09486e-06
6.09462e-06
6.09442e-06
6.09426e-06
6.09415e-06
6.09406e-06
6.09399e-06
6.09394e-06
6.09391e-06
6.09388e-06
6.09822e-06
6.09809e-06
6.09765e-06
6.09688e-06
6.09624e-06
6.09573e-06
6.09526e-06
6.09485e-06
6.09452e-06
6.09426e-06
6.09404e-06
6.09386e-06
6.09373e-06
6.09363e-06
6.09355e-06
6.09348e-06
6.09344e-06
6.0934e-06
6.09802e-06
6.09786e-06
6.0974e-06
6.09661e-06
6.09595e-06
6.09542e-06
6.09494e-06
6.09451e-06
6.09416e-06
6.09387e-06
6.09362e-06
6.09342e-06
6.09327e-06
6.09314e-06
6.09305e-06
6.09297e-06
6.09291e-06
6.09286e-06
6.09282e-06
6.09781e-06
6.09762e-06
6.09714e-06
6.09633e-06
6.09565e-06
6.0951e-06
6.0946e-06
6.09415e-06
6.09377e-06
6.09344e-06
6.09316e-06
6.09293e-06
6.09275e-06
6.0926e-06
6.09249e-06
6.09239e-06
6.09232e-06
6.09226e-06
6.09221e-06
6.09759e-06
6.09737e-06
6.09686e-06
6.09603e-06
6.09533e-06
6.09476e-06
6.09424e-06
6.09376e-06
6.09334e-06
6.09297e-06
6.09265e-06
6.09239e-06
6.09217e-06
6.092e-06
6.09186e-06
6.09175e-06
6.09166e-06
6.09159e-06
6.09153e-06
6.09735e-06
6.09711e-06
6.09657e-06
6.09572e-06
6.09499e-06
6.0944e-06
6.09386e-06
6.09335e-06
6.09288e-06
6.09246e-06
6.09209e-06
6.09178e-06
6.09153e-06
6.09134e-06
6.09118e-06
6.09105e-06
6.09095e-06
6.09086e-06
6.09079e-06
6.09073e-06
6.0971e-06
6.09683e-06
6.09627e-06
6.09538e-06
6.09464e-06
6.09403e-06
6.09345e-06
6.09289e-06
6.09237e-06
6.09189e-06
6.09147e-06
6.09112e-06
6.09084e-06
6.09061e-06
6.09043e-06
6.09029e-06
6.09017e-06
6.09007e-06
6.08999e-06
6.08992e-06
6.09683e-06
6.09654e-06
6.09594e-06
6.09503e-06
6.09427e-06
6.09363e-06
6.09302e-06
6.0924e-06
6.09181e-06
6.09127e-06
6.09079e-06
6.0904e-06
6.09008e-06
6.08983e-06
6.08963e-06
6.08947e-06
6.08934e-06
6.08924e-06
6.08915e-06
6.08907e-06
6.09655e-06
6.09623e-06
6.0956e-06
6.09466e-06
6.09388e-06
6.09322e-06
6.09256e-06
6.09187e-06
6.09121e-06
6.09059e-06
6.09005e-06
6.08961e-06
6.08926e-06
6.08899e-06
6.08878e-06
6.08861e-06
6.08847e-06
6.08836e-06
6.08827e-06
6.08819e-06
6.08812e-06
6.09626e-06
6.0959e-06
6.09525e-06
6.09427e-06
6.09347e-06
6.09278e-06
6.09206e-06
6.09129e-06
6.09054e-06
6.08985e-06
6.08926e-06
6.08878e-06
6.0884e-06
6.08811e-06
6.08789e-06
6.08771e-06
6.08757e-06
6.08746e-06
6.08737e-06
6.08729e-06
6.08722e-06
6.09594e-06
6.09556e-06
6.09487e-06
6.09387e-06
6.09304e-06
6.09232e-06
6.09152e-06
6.09067e-06
6.08983e-06
6.08906e-06
6.08841e-06
6.0879e-06
6.0875e-06
6.0872e-06
6.08697e-06
6.0868e-06
6.08666e-06
6.08655e-06
6.08646e-06
6.08638e-06
6.08632e-06
6.09561e-06
6.0952e-06
6.09447e-06
6.09344e-06
6.09259e-06
6.09182e-06
6.09095e-06
6.08999e-06
6.08906e-06
6.08822e-06
6.08752e-06
6.08699e-06
6.08658e-06
6.08628e-06
6.08605e-06
6.08587e-06
6.08574e-06
6.08563e-06
6.08555e-06
6.08548e-06
6.08542e-06
6.09526e-06
6.09482e-06
6.09405e-06
6.09299e-06
6.09212e-06
6.0913e-06
6.09033e-06
6.08926e-06
6.08823e-06
6.08733e-06
6.0866e-06
6.08605e-06
6.08564e-06
6.08534e-06
6.08512e-06
6.08495e-06
6.08482e-06
6.08472e-06
6.08463e-06
6.08456e-06
6.08451e-06
6.08446e-06
6.09488e-06
6.09442e-06
6.09361e-06
6.09252e-06
6.09163e-06
6.09075e-06
6.08966e-06
6.08848e-06
6.08736e-06
6.08641e-06
6.08566e-06
6.08511e-06
6.0847e-06
6.0844e-06
6.08418e-06
6.08402e-06
6.08389e-06
6.08378e-06
6.0837e-06
6.08363e-06
6.08357e-06
6.08351e-06
6.09449e-06
6.09399e-06
6.09315e-06
6.09203e-06
6.09112e-06
6.09016e-06
6.08895e-06
6.08764e-06
6.08646e-06
6.08547e-06
6.08471e-06
6.08415e-06
6.08375e-06
6.08345e-06
6.08323e-06
6.08306e-06
6.08292e-06
6.08281e-06
6.08271e-06
6.08263e-06
6.08256e-06
6.08249e-06
6.09406e-06
6.09354e-06
6.09266e-06
6.09151e-06
6.09057e-06
6.08952e-06
6.08818e-06
6.08677e-06
6.08552e-06
6.08451e-06
6.08375e-06
6.08319e-06
6.08278e-06
6.08247e-06
6.08223e-06
6.08204e-06
6.08188e-06
6.08175e-06
6.08163e-06
6.08152e-06
6.08142e-06
6.08132e-06
6.09362e-06
6.09307e-06
6.09215e-06
6.09097e-06
6.09e-06
6.08885e-06
6.08737e-06
6.08585e-06
6.08456e-06
6.08354e-06
6.08277e-06
6.0822e-06
6.08177e-06
6.08142e-06
6.08114e-06
6.08091e-06
6.08072e-06
6.08054e-06
6.08039e-06
6.08025e-06
6.08011e-06
6.07997e-06
6.07983e-06
6.09314e-06
6.09256e-06
6.09161e-06
6.09041e-06
6.08939e-06
6.08813e-06
6.08651e-06
6.0849e-06
6.08358e-06
6.08256e-06
6.08177e-06
6.08116e-06
6.08067e-06
6.08026e-06
6.07992e-06
6.07963e-06
6.07938e-06
6.07916e-06
6.07896e-06
6.07878e-06
6.07859e-06
6.07841e-06
6.07823e-06
6.09264e-06
6.09203e-06
6.09105e-06
6.08981e-06
6.08876e-06
6.08736e-06
6.0856e-06
6.08394e-06
6.0826e-06
6.08156e-06
6.08072e-06
6.08003e-06
6.07945e-06
6.07896e-06
6.07854e-06
6.07818e-06
6.07787e-06
6.0776e-06
6.07736e-06
6.07713e-06
6.07691e-06
6.07669e-06
6.07647e-06
6.0921e-06
6.09147e-06
6.09045e-06
6.08919e-06
6.08808e-06
6.08654e-06
6.08466e-06
6.08295e-06
6.0816e-06
6.08051e-06
6.07958e-06
6.07879e-06
6.0781e-06
6.0775e-06
6.07701e-06
6.07658e-06
6.07623e-06
6.07592e-06
6.07564e-06
6.07539e-06
6.07516e-06
6.07493e-06
6.0747e-06
6.09154e-06
6.09088e-06
6.08983e-06
6.08854e-06
6.08737e-06
6.08568e-06
6.08369e-06
6.08196e-06
6.08058e-06
6.0794e-06
6.07834e-06
6.07741e-06
6.07661e-06
6.07593e-06
6.07538e-06
6.07493e-06
6.07456e-06
6.07425e-06
6.07398e-06
6.07374e-06
6.07352e-06
6.07332e-06
6.07311e-06
6.09093e-06
6.09026e-06
6.08917e-06
6.08786e-06
6.08662e-06
6.08478e-06
6.08271e-06
6.08095e-06
6.07951e-06
6.0782e-06
6.07698e-06
6.07593e-06
6.07506e-06
6.07436e-06
6.07382e-06
6.0734e-06
6.07307e-06
6.0728e-06
6.07259e-06
6.0724e-06
6.07225e-06
6.07211e-06
6.07198e-06
6.07187e-06
6.0903e-06
6.0896e-06
6.08849e-06
6.08715e-06
6.08583e-06
6.08383e-06
6.0817e-06
6.07993e-06
6.07838e-06
6.0769e-06
6.07555e-06
6.07444e-06
6.07359e-06
6.07296e-06
6.07251e-06
6.07219e-06
6.07197e-06
6.07182e-06
6.07171e-06
6.07163e-06
6.07158e-06
6.07155e-06
6.07155e-06
6.07157e-06
6.08962e-06
6.0889e-06
6.08776e-06
6.08641e-06
6.085e-06
6.08285e-06
6.08069e-06
6.07887e-06
6.07717e-06
6.07553e-06
6.07413e-06
6.07309e-06
6.07238e-06
6.07193e-06
6.07168e-06
6.07155e-06
6.0715e-06
6.07151e-06
6.07156e-06
6.07163e-06
6.07173e-06
6.07184e-06
6.07199e-06
6.07216e-06
6.0889e-06
6.08817e-06
6.08701e-06
6.08563e-06
6.08413e-06
6.08184e-06
6.07967e-06
6.07776e-06
6.07589e-06
6.07417e-06
6.07287e-06
6.07205e-06
6.07163e-06
6.07148e-06
6.07152e-06
6.07164e-06
6.07182e-06
6.07202e-06
6.07222e-06
6.07244e-06
6.07267e-06
6.07292e-06
6.0732e-06
6.07351e-06
6.08813e-06
6.08739e-06
6.08622e-06
6.08481e-06
6.08322e-06
6.08081e-06
6.07863e-06
6.07659e-06
6.07458e-06
6.07294e-06
6.07193e-06
6.07151e-06
6.07151e-06
6.07175e-06
6.07209e-06
6.07246e-06
6.07284e-06
6.07321e-06
6.07357e-06
6.07392e-06
6.07428e-06
6.07466e-06
6.07507e-06
6.07553e-06
6.08732e-06
6.08657e-06
6.08539e-06
6.08396e-06
6.08226e-06
6.07976e-06
6.07758e-06
6.07538e-06
6.07334e-06
6.072e-06
6.07147e-06
6.07158e-06
6.07204e-06
6.07265e-06
6.07329e-06
6.0739e-06
6.07448e-06
6.07502e-06
6.07552e-06
6.07601e-06
6.0765e-06
6.07701e-06
6.07755e-06
6.07814e-06
6.08646e-06
6.0857e-06
6.08451e-06
6.08306e-06
6.08127e-06
6.07871e-06
6.07649e-06
6.07416e-06
6.0723e-06
6.07148e-06
6.07159e-06
6.07225e-06
6.07315e-06
6.07412e-06
6.07504e-06
6.07589e-06
6.07666e-06
6.07737e-06
6.07801e-06
6.07863e-06
6.07924e-06
6.07985e-06
6.08051e-06
6.08122e-06
6.08195e-06
6.08553e-06
6.08478e-06
6.08359e-06
6.08212e-06
6.08025e-06
6.07764e-06
6.07537e-06
6.07302e-06
6.07161e-06
6.07147e-06
6.07222e-06
6.07342e-06
6.07476e-06
6.07608e-06
6.07728e-06
6.07835e-06
6.0793e-06
6.08014e-06
6.08091e-06
6.08163e-06
6.08233e-06
6.08304e-06
6.08378e-06
6.08458e-06
6.08539e-06
6.0847e-06
6.08395e-06
6.08275e-06
6.08125e-06
6.07926e-06
6.0766e-06
6.07417e-06
6.072e-06
6.07136e-06
6.07192e-06
6.07326e-06
6.07493e-06
6.07663e-06
6.07821e-06
6.0796e-06
6.08081e-06
6.08186e-06
6.08278e-06
6.08361e-06
6.08438e-06
6.08513e-06
6.08588e-06
6.08666e-06
6.08749e-06
6.08834e-06
6.08397e-06
6.08322e-06
6.08202e-06
6.08046e-06
6.07838e-06
6.07563e-06
6.07297e-06
6.07135e-06
6.07152e-06
6.07282e-06
6.07468e-06
6.07669e-06
6.07862e-06
6.08034e-06
6.08181e-06
6.08307e-06
6.08414e-06
6.08508e-06
6.08591e-06
6.08668e-06
6.08741e-06
6.08815e-06
6.08892e-06
6.08974e-06
6.09057e-06
6.08318e-06
6.08244e-06
6.08122e-06
6.07963e-06
6.07744e-06
6.07462e-06
6.0718e-06
6.07116e-06
6.07213e-06
6.07411e-06
6.07643e-06
6.07873e-06
6.0808e-06
6.0826e-06
6.08409e-06
6.08534e-06
6.0864e-06
6.08731e-06
6.08811e-06
6.08884e-06
6.08954e-06
6.09023e-06
6.09095e-06
6.09172e-06
6.0925e-06
6.08231e-06
6.08156e-06
6.08035e-06
6.07872e-06
6.07646e-06
6.07358e-06
6.07072e-06
6.07125e-06
6.07308e-06
6.07574e-06
6.07846e-06
6.08094e-06
6.08308e-06
6.08486e-06
6.0863e-06
6.08749e-06
6.08847e-06
6.08931e-06
6.09004e-06
6.09071e-06
6.09134e-06
6.09197e-06
6.09263e-06
6.09333e-06
6.09405e-06
6.08134e-06
6.08061e-06
6.07941e-06
6.07775e-06
6.07544e-06
6.07252e-06
6.06981e-06
6.0717e-06
6.07439e-06
6.07764e-06
6.08061e-06
6.08314e-06
6.0852e-06
6.08686e-06
6.08818e-06
6.08925e-06
6.09013e-06
6.09088e-06
6.09153e-06
6.09213e-06
6.0927e-06
6.09328e-06
6.09388e-06
6.09454e-06
6.09523e-06
6.08027e-06
6.07956e-06
6.07838e-06
6.07671e-06
6.07439e-06
6.07147e-06
6.06917e-06
6.07244e-06
6.07592e-06
6.07959e-06
6.08261e-06
6.08501e-06
6.0869e-06
6.08838e-06
6.08956e-06
6.09051e-06
6.09131e-06
6.092e-06
6.09262e-06
6.09321e-06
6.09377e-06
6.09436e-06
6.09499e-06
6.0957e-06
6.09645e-06
6.07908e-06
6.07841e-06
6.07726e-06
6.07561e-06
6.07331e-06
6.07048e-06
6.06889e-06
6.07337e-06
6.07744e-06
6.08126e-06
6.08414e-06
6.08631e-06
6.08801e-06
6.08938e-06
6.09051e-06
6.09148e-06
6.09232e-06
6.09309e-06
6.0938e-06
6.09448e-06
6.09517e-06
6.09589e-06
6.09669e-06
6.0976e-06
6.09858e-06
6.07777e-06
6.07714e-06
6.07606e-06
6.07446e-06
6.07223e-06
6.06959e-06
6.06906e-06
6.07423e-06
6.07856e-06
6.08229e-06
6.08496e-06
6.08703e-06
6.08876e-06
6.09029e-06
6.09163e-06
6.09284e-06
6.09394e-06
6.09495e-06
6.0959e-06
6.09682e-06
6.09775e-06
6.09873e-06
6.09981e-06
6.10103e-06
6.10235e-06
6.10369e-06
6.07632e-06
6.07575e-06
6.07475e-06
6.07326e-06
6.07117e-06
6.06889e-06
6.06958e-06
6.0747e-06
6.07893e-06
6.08254e-06
6.08529e-06
6.08768e-06
6.08988e-06
6.0919e-06
6.09371e-06
6.09533e-06
6.09678e-06
6.09808e-06
6.09927e-06
6.10041e-06
6.10154e-06
6.1027e-06
6.10396e-06
6.10535e-06
6.10682e-06
6.10828e-06
6.07472e-06
6.07423e-06
6.07335e-06
6.07203e-06
6.07017e-06
6.06842e-06
6.06999e-06
6.07448e-06
6.07848e-06
6.0824e-06
6.08583e-06
6.08897e-06
6.09179e-06
6.09423e-06
6.09627e-06
6.09799e-06
6.09945e-06
6.1007e-06
6.1018e-06
6.10282e-06
6.10378e-06
6.10474e-06
6.10574e-06
6.1068e-06
6.10788e-06
6.10891e-06
6.07294e-06
6.07255e-06
6.07185e-06
6.07077e-06
6.06925e-06
6.06821e-06
6.07012e-06
6.07341e-06
6.07752e-06
6.08239e-06
6.08655e-06
6.08986e-06
6.09235e-06
6.09418e-06
6.09552e-06
6.09654e-06
6.09733e-06
6.09796e-06
6.0985e-06
6.09896e-06
6.09938e-06
6.0998e-06
6.10024e-06
6.10075e-06
6.10134e-06
6.10197e-06
6.07097e-06
6.07071e-06
6.07024e-06
6.0695e-06
6.06848e-06
6.06814e-06
6.0697e-06
6.07149e-06
6.07622e-06
6.08123e-06
6.08389e-06
6.08518e-06
6.08591e-06
6.08648e-06
6.08701e-06
6.08754e-06
6.08807e-06
6.08858e-06
6.08907e-06
6.08954e-06
6.09006e-06
6.09079e-06
6.09185e-06
6.09333e-06
6.09523e-06
6.0974e-06
6.06878e-06
6.06869e-06
6.06851e-06
6.06824e-06
6.06786e-06
6.06787e-06
6.06852e-06
6.06894e-06
6.07264e-06
6.07397e-06
6.0722e-06
6.07191e-06
6.07306e-06
6.07506e-06
6.07742e-06
6.07985e-06
6.08219e-06
6.08438e-06
6.08642e-06
6.08833e-06
6.09018e-06
6.09201e-06
6.09392e-06
6.09595e-06
6.09805e-06
6.10009e-06
)
;

boundaryField
{
    inlet
    {
        type            freestream;
        freestreamValue uniform 1e-05;
        value           uniform 1e-05;
    }
    outlet
    {
        type            freestream;
        freestreamValue nonuniform List<scalar> 0();
        value           nonuniform List<scalar> 0();
    }
    walls
    {
        type            nutUSpaldingWallFunction;
        value           nonuniform List<scalar> 0();
    }
    frontAndBack
    {
        type            empty;
    }
    procBoundary0to1
    {
        type            processor;
        value           nonuniform List<scalar> 
94
(
6.10033e-06
6.10133e-06
6.10133e-06
6.10129e-06
6.10129e-06
6.1005e-06
6.1005e-06
6.09974e-06
6.09974e-06
6.09932e-06
6.09932e-06
6.09897e-06
6.09881e-06
6.09881e-06
6.09851e-06
6.09835e-06
6.09835e-06
6.09804e-06
6.09789e-06
6.09775e-06
6.09775e-06
6.09746e-06
6.09732e-06
6.09732e-06
6.09708e-06
6.09698e-06
6.09688e-06
6.09688e-06
6.09671e-06
6.09659e-06
6.09647e-06
6.09647e-06
6.0963e-06
6.09615e-06
6.09615e-06
6.09597e-06
6.09577e-06
6.09555e-06
6.09555e-06
6.09529e-06
6.095e-06
6.09468e-06
6.09468e-06
6.09429e-06
6.09386e-06
6.09337e-06
6.09337e-06
6.09279e-06
6.09216e-06
6.09147e-06
6.09147e-06
6.09067e-06
6.08986e-06
6.089e-06
6.089e-06
6.08806e-06
6.08716e-06
6.08626e-06
6.08536e-06
6.08536e-06
6.08442e-06
6.08346e-06
6.08242e-06
6.08122e-06
6.08122e-06
6.07969e-06
6.07804e-06
6.07625e-06
6.07447e-06
6.07292e-06
6.07292e-06
6.07178e-06
6.07161e-06
6.07236e-06
6.07384e-06
6.076e-06
6.07876e-06
6.07876e-06
6.08265e-06
6.08617e-06
6.08915e-06
6.09136e-06
6.09325e-06
6.09474e-06
6.0959e-06
6.09721e-06
6.09959e-06
6.09959e-06
6.10501e-06
6.10969e-06
6.10988e-06
6.10266e-06
6.09977e-06
6.10203e-06
)
;
    }
    procBoundary0to4
    {
        type            processor;
        value           nonuniform List<scalar> 
72
(
6.10299e-06
6.10292e-06
6.10271e-06
6.10243e-06
6.10214e-06
6.10185e-06
6.10157e-06
6.10128e-06
6.10099e-06
6.10077e-06
6.10061e-06
6.10049e-06
6.10037e-06
6.10023e-06
6.10006e-06
6.0999e-06
6.0998e-06
6.09975e-06
6.09972e-06
6.09968e-06
6.09961e-06
6.09951e-06
6.09949e-06
6.09949e-06
6.09937e-06
6.09926e-06
6.09916e-06
6.09903e-06
6.09889e-06
6.09874e-06
6.09857e-06
6.09841e-06
6.09824e-06
6.09806e-06
6.09786e-06
6.09765e-06
6.09743e-06
6.09719e-06
6.09694e-06
6.09666e-06
6.09638e-06
6.09607e-06
6.09574e-06
6.09539e-06
6.09501e-06
6.09461e-06
6.09419e-06
6.09373e-06
6.09324e-06
6.09272e-06
6.09217e-06
6.09158e-06
6.09095e-06
6.09027e-06
6.08956e-06
6.08879e-06
6.08797e-06
6.0871e-06
6.08616e-06
6.08531e-06
6.08457e-06
6.08376e-06
6.08286e-06
6.08186e-06
6.08075e-06
6.07952e-06
6.07816e-06
6.07665e-06
6.07498e-06
6.07313e-06
6.07109e-06
6.06882e-06
)
;
    }
    procBoundary0to5
    {
        type            processor;
        value           nonuniform List<scalar> 4(6.10297e-06 6.10236e-06 6.10121e-06 6.10089e-06);
    }
}


// ************************************************************************* //
