/*--------------------------------*- C++ -*----------------------------------*\
| =========                 |                                                 |
| \\      /  F ield         | OpenFOAM: The Open Source CFD Toolbox           |
|  \\    /   O peration     | Version:  2306                                  |
|   \\  /    A nd           | Website:  www.openfoam.com                      |
|    \\/     M anipulation  |                                                 |
\*---------------------------------------------------------------------------*/
FoamFile
{
    version     2.0;
    format      ascii;
    arch        "LSB;label=32;scalar=64";
    class       volScalarField;
    location    "225";
    object      p;
}
// * * * * * * * * * * * * * * * * * * * * * * * * * * * * * * * * * * * * * //

dimensions      [0 2 -2 0 0 0 0];

internalField   nonuniform List<scalar> 
1340
(
81.4719
101.52
120.441
139.998
159.321
77.5162
96.1111
113.645
131.846
149.896
166.057
73.382
90.7074
107.03
124.044
140.968
156.169
169.735
69.1985
85.3978
100.657
116.615
132.536
146.881
159.768
170.578
65.0511
80.245
94.5545
109.57
124.588
138.162
150.423
160.786
168.593
60.9954
75.2855
88.7411
102.904
117.105
129.976
141.659
151.598
159.167
164.328
57.068
70.5399
83.223
96.6103
110.064
122.291
133.436
142.974
150.303
155.385
53.2937
66.0185
77.999
90.6757
103.443
115.076
125.717
134.872
141.964
146.95
150.061
49.6862
61.7252
73.0616
85.0838
97.2174
108.299
118.467
127.258
134.114
138.993
142.118
46.2524
57.6591
68.4018
79.8184
91.3648
101.93
111.653
120.097
126.722
131.485
134.602
136.26
42.9956
53.8161
64.0095
74.8637
85.8629
95.9443
105.247
113.359
119.757
124.398
127.491
129.215
39.9152
50.1913
59.8733
70.2028
80.6901
90.3171
99.222
107.017
113.194
117.708
120.764
122.532
37.0089
46.7768
55.9815
65.8196
75.8264
85.0252
93.5538
101.045
107.006
111.392
114.401
116.196
116.972
34.2728
43.564
52.3233
61.6998
71.2535
80.0485
88.2197
95.4196
101.171
105.427
108.382
110.189
111.038
31.7016
40.5452
48.8858
57.8284
66.955
75.3677
83.1983
90.119
95.6659
99.7932
102.689
104.498
105.402
105.589
29.2888
37.7115
45.6585
54.1913
62.9135
70.9636
78.4699
85.1232
90.4727
94.4722
97.304
99.1067
100.053
100.327
27.0285
35.0545
42.6299
50.7753
59.1137
66.8198
74.0172
80.4134
85.5721
89.4456
92.2109
94
94.9779
95.3241
24.9144
32.5651
39.7895
47.5678
55.5425
62.9208
69.8238
75.9731
80.9468
84.6967
87.394
89.1643
90.1652
90.571
90.5007
22.9396
30.2347
37.1269
44.5574
52.1858
59.252
65.8742
71.7863
76.5812
80.21
82.8384
84.586
85.6029
86.0586
86.0685
21.0972
28.0555
34.6324
41.7325
49.0311
55.7996
62.1533
67.8381
72.46
75.9708
78.5301
80.2517
81.2789
81.7759
81.8552
19.381
26.0192
32.2965
39.0825
46.0671
52.5514
58.6481
64.1146
68.5695
71.9654
74.4558
76.1491
77.182
77.7128
77.8519
77.6801
17.7842
24.1181
30.1107
36.5974
43.2825
49.4951
55.3459
60.6025
64.8969
68.181
70.6032
72.2663
73.3008
73.8598
74.0501
73.9504
22.3447
28.0666
34.2679
40.6665
46.6198
52.235
57.29
61.4295
64.605
66.96
68.5919
69.6251
70.2072
70.4413
70.4046
70.1467
20.692
26.1559
32.0849
38.2099
43.9148
49.3043
54.1658
58.1556
61.2263
63.5153
65.1151
66.144
66.7446
67.017
67.0352
66.8489
19.1531
24.3709
30.0399
35.9033
41.3705
46.5437
51.2189
55.0647
58.0336
60.2577
61.8249
62.8476
63.463
63.7682
63.8345
63.7112
17.7213
22.7043
28.1248
33.7378
38.9774
43.943
48.4392
52.1463
55.0166
57.1771
58.7117
59.7261
60.3534
60.6868
60.7952
60.7269
60.5098
16.3905
21.1493
26.3321
31.7055
36.7269
41.4932
45.8173
49.3903
52.1654
54.264
55.7657
56.7706
57.4068
57.7641
57.9093
57.8894
57.7328
15.1548
19.6992
24.6547
29.7985
34.6107
39.1856
43.3441
46.7881
49.4708
51.5089
52.9776
53.9719
54.6146
54.9924
55.1694
55.192
55.0883
14.008
18.3478
23.0853
28.0092
32.6208
37.012
41.0109
44.3306
46.9239
48.903
50.3387
51.3211
51.9683
52.3634
52.5681
52.628
52.5707
52.4112
12.9451
17.0889
21.618
26.3308
30.7501
34.9646
38.81
42.0095
44.5164
46.4378
47.8409
48.8105
49.46
49.8696
50.0982
50.1904
50.1738
50.0635
11.9607
15.9172
20.2464
24.757
28.9914
33.0362
36.7338
39.8172
42.2404
44.1054
45.4759
46.432
47.082
47.5035
47.7526
47.873
47.8918
47.8245
11.0501
14.8271
18.965
23.2813
27.3383
31.2197
34.7748
37.7463
40.0883
41.8983
43.2364
44.1781
44.8272
45.2581
45.5248
45.6694
45.7189
45.689
45.5871
10.2083
13.8136
17.7678
21.8979
25.7844
29.5087
32.9265
35.7897
38.053
39.8092
41.115
42.0416
42.6884
43.1265
43.4078
43.5733
43.6494
43.6519
43.5888
9.43094
12.8718
16.6499
20.6012
24.324
27.897
31.1824
33.9408
36.1277
37.8314
39.1051
40.0158
40.6589
41.1023
41.3957
41.5789
41.6778
41.7081
41.6785
8.71385
11.9971
15.6064
19.3859
22.9512
26.3786
29.5362
32.1935
34.306
35.9581
37.2
38.0943
38.7323
39.1792
39.4824
39.6805
39.7988
39.853
39.8521
39.799
8.05298
11.1852
14.6326
18.2471
21.6611
24.9483
27.9825
30.5417
32.582
34.1836
35.3936
36.2709
36.9027
37.3513
37.6621
37.8726
38.0073
38.0816
38.1054
38.0819
7.4445
10.432
13.724
17.1802
20.4484
23.6004
26.5155
28.9798
30.9498
32.502
33.6802
34.54
35.1643
35.6131
35.9295
36.15
36.2983
36.3897
36.4343
36.4361
6.88486
9.73368
12.8766
16.1805
19.3086
22.3304
25.1303
27.5026
29.4042
30.9078
32.0544
32.8959
33.5119
33.9593
34.2796
34.5079
34.6673
34.773
34.835
34.858
34.8425
6.37062
9.08651
12.0862
15.2439
18.2372
21.1333
23.8219
26.1051
27.94
29.3958
30.5109
31.3337
31.9402
32.385
32.7076
32.9416
33.11
33.2273
33.3038
33.3446
33.351
5.89855
8.48703
11.3493
14.3665
17.2299
20.0049
22.586
24.7825
26.5524
27.9612
29.0448
29.8485
30.4446
30.8856
31.2088
31.447
31.6222
31.7488
31.8372
31.8928
31.9174
5.46563
7.932
10.6623
13.5443
16.2828
18.9409
21.4178
23.5304
25.2369
26.5995
27.6517
28.4357
29.0207
29.4565
29.7791
30.0198
30.2001
30.334
30.4319
30.4996
30.5393
5.06905
7.41829
10.0219
12.774
15.3921
17.9375
20.3136
22.3446
23.9892
25.3063
26.3271
27.0912
27.6641
28.0939
28.4145
28.6563
28.84
28.9795
29.0848
29.1622
29.2143
29.2408
4.70605
6.94304
9.42499
12.0522
14.5544
16.9909
19.2695
21.2212
22.8053
24.0777
25.0672
25.8108
26.3712
26.7938
27.1114
27.353
27.5388
27.6821
27.7931
27.8781
27.9402
27.9795
4.37415
6.50348
8.86865
11.3757
13.7663
16.0977
18.2818
20.1564
21.6815
22.9097
23.8681
24.591
25.138
25.5528
25.8663
26.1066
26.2931
26.4389
26.554
26.6448
26.7147
26.7644
4.07097
6.09704
8.3501
10.7416
13.0245
15.2544
17.3471
19.1468
20.6141
21.7989
22.7263
23.4282
23.9614
24.3675
24.676
24.914
25.1002
25.2472
25.365
25.46
25.5359
25.5939
3.79425
5.72133
7.86674
10.1471
12.3263
14.4582
16.4621
18.1891
19.5999
20.7419
21.6384
22.3191
22.838
23.2348
23.5375
23.7723
23.9572
24.1044
24.2237
24.3216
24.402
24.4663
24.514
3.54191
5.37404
7.41612
9.58959
11.6688
13.706
15.6239
17.2801
18.6356
19.7354
20.6013
21.2607
21.7649
22.1518
22.4481
22.6789
22.8616
23.0081
23.1279
23.2276
23.311
23.3801
23.4347
3.312
5.05309
6.99595
9.06656
11.0494
12.9951
14.8296
16.4169
17.7182
18.7766
19.6121
20.2501
20.7393
21.1159
21.4052
21.6314
21.8112
21.9561
22.0756
22.176
22.2613
22.3338
22.3938
3.10267
4.75647
6.60412
8.57579
10.4656
12.3229
14.0765
15.5967
16.8448
17.8625
18.6681
19.2847
19.7587
20.1244
20.4063
20.6273
20.8036
20.9464
21.0647
21.1651
21.2514
21.3262
21.3901
2.91223
4.48236
6.23861
8.1151
9.91525
11.6871
13.362
14.8169
16.0129
16.9906
17.7668
18.362
18.8205
19.1752
19.4491
19.6645
19.8369
19.977
20.0936
20.1932
20.2798
20.3559
20.4226
2.73904
4.22898
5.89759
7.68249
9.39618
11.0854
12.6839
14.0752
15.2196
16.1582
16.9056
17.4797
17.9226
18.2659
18.5317
18.7411
18.9091
19.046
19.1605
19.2588
19.3449
19.4216
19.4901
19.548
2.58166
3.99474
5.57928
7.276
8.90631
10.5156
12.0399
13.3692
14.4627
15.3631
16.0824
16.6354
17.0627
17.3945
17.6519
17.8551
18.0184
18.1519
18.2638
18.3603
18.4455
18.5221
18.5916
18.6519
2.43874
3.77813
5.28201
6.89378
8.44361
9.97548
11.4274
12.6965
13.7398
14.6034
15.2953
15.8274
16.2387
16.5589
16.8078
17.0046
17.1631
17.2928
17.402
17.4964
17.5802
17.6562
17.7261
17.788
2.3089
3.57783
5.00455
6.53444
8.00663
9.4634
10.8445
12.0547
13.0479
13.8769
14.5427
15.0536
15.4489
15.7575
15.9978
16.1881
16.3415
16.4674
16.5735
16.6656
16.7477
16.8227
16.8924
16.9553
2.19087
3.39263
4.74572
6.19714
7.59484
8.97901
10.291
11.4429
12.3834
13.1799
13.8216
14.3116
14.6908
14.988
15.22
15.4038
15.5521
15.674
15.777
15.8666
15.9468
16.0205
16.0897
16.153
2.0836
3.22126
4.50423
5.88027
7.20664
8.52079
9.76645
10.8613
11.7448
12.5106
13.1298
13.5989
13.9622
14.2483
14.4721
14.6496
14.7929
14.9108
15.0107
15.0978
15.176
15.2483
15.3167
15.3801
1.98662
3.06266
4.27729
5.57982
6.83667
8.08195
9.26381
10.3038
11.1359
11.8751
12.4706
12.9167
13.2635
13.5386
13.754
13.9247
14.0629
14.1767
14.2734
14.3579
14.434
14.5048
14.5723
14.6357
14.6891
1.89938
2.91581
4.06358
5.29325
6.48087
7.65609
8.77423
9.75699
10.5492
11.2768
11.8471
12.265
12.5945
12.8591
13.0662
13.23
13.3628
13.4726
13.5659
13.6478
13.7218
13.7908
13.8573
13.9202
13.9743
1.83275
2.80117
3.89648
5.06079
6.18099
7.27643
8.30283
9.17487
9.87469
10.6731
11.2597
11.6681
11.997
12.2659
12.4755
12.6403
12.7738
12.8845
12.9786
13.0612
13.1361
13.2062
13.2739
13.3386
13.3949
1.77881
2.70715
3.75537
4.85837
5.91
6.91645
7.83305
8.57321
9.15701
10.066
10.6992
11.1132
11.4519
11.7342
11.9538
12.1251
12.2637
12.3786
12.4765
12.5622
12.64
12.7131
12.784
12.852
12.9118
1.72596
2.61401
3.6145
4.65595
5.64007
6.55734
7.36825
7.98466
8.45447
9.45122
10.1327
10.5528
10.8976
11.1913
11.4204
11.598
11.7413
11.8603
11.9615
12.0503
12.1309
12.2068
12.2808
12.3522
12.4156
1.67436
2.52235
3.47489
4.45526
5.37325
6.20125
6.91179
7.40899
7.77162
8.82951
9.55845
9.98808
10.3367
10.639
10.8767
11.0605
11.2083
11.3311
11.4356
11.5273
11.6106
11.6892
11.7661
11.8409
11.9078
1.62452
2.43294
3.3377
4.258
5.11161
5.85017
6.46596
6.84414
7.10745
8.20179
8.97418
9.41741
9.77
10.0793
10.3243
10.5132
10.6649
10.7912
10.8991
10.994
11.0802
11.1617
11.2417
11.32
11.3906
1.57705
2.34699
3.20452
4.06656
4.85718
5.50614
6.03261
6.28809
6.4578
7.56875
8.37852
8.83754
9.19536
9.51259
9.76616
9.96067
10.1151
10.2433
10.3533
10.4506
10.5395
10.6238
10.7071
10.7891
10.8636
1.53308
2.26655
3.07825
3.88444
4.61187
5.16912
5.60945
5.73427
5.81288
6.92955
7.7736
8.24833
8.60852
8.93115
9.19509
9.4001
9.5622
9.69473
9.80695
9.90551
9.99566
10.0817
10.1675
10.2527
10.3308
1.49338
2.19318
2.96173
3.71543
4.37767
4.84014
5.19541
5.1753
5.15643
6.27486
7.16016
7.66053
8.02473
8.34318
8.60397
8.8111
8.98099
9.12435
9.24713
9.35415
9.45053
9.54141
9.63152
9.72183
9.80646
9.87838
1.45696
2.12553
2.85427
3.5607
4.15816
4.53214
4.8079
4.61413
4.47389
5.5825
6.51105
7.05861
7.46022
7.80007
8.06027
8.24927
8.39552
8.52088
8.63524
8.74183
8.84254
8.9399
9.03702
9.13392
9.22467
9.30392
1.42373
2.0634
2.75619
3.42124
3.95931
4.26721
4.46969
4.05045
3.76426
4.85005
5.78467
6.34834
6.79172
7.20334
7.54638
7.80136
7.98047
8.1058
8.19975
8.27923
8.3552
8.43474
8.52252
8.61674
8.70548
8.77801
1.40247
2.02273
2.68813
3.31501
3.79212
4.0377
4.11669
3.40459
3.01367
4.14437
5.08867
5.60583
5.96036
6.28121
6.58766
6.88404
7.16762
7.42451
7.64315
7.82145
7.96507
8.08344
8.19023
8.30486
8.44085
8.58666
1.40818
2.03287
2.69024
3.28144
3.67728
3.79649
3.58231
2.52489
2.12492
3.44037
4.61442
5.3718
5.84566
6.09305
6.14109
6.066
5.94979
5.85871
5.82059
5.83792
5.90237
6.00527
6.13063
6.23863
6.28573
6.28983
1.42893
2.07572
2.74273
3.30923
3.62298
3.57246
2.96474
1.60011
0.969557
2.14718
3.45333
4.7451
6.00154
7.19297
8.2045
8.97853
9.53334
9.88703
10.0872
10.1869
10.2324
10.2613
10.3284
10.5213
10.8736
11.2569
)
;

boundaryField
{
    inlet
    {
        type            freestreamPressure;
        freestreamValue uniform 0;
        value           nonuniform List<scalar> 
26
(
1.42197
2.06561
2.72937
3.29311
3.60534
3.55507
2.95031
1.59232
0.551784
1.22112
1.96247
2.69461
3.40593
4.0799
4.65161
5.08859
5.40134
5.60017
5.71206
5.76706
5.79138
5.80622
5.84254
5.94988
6.14726
6.36215
)
;
    }
    outlet
    {
        type            freestreamPressure;
        freestreamValue nonuniform List<scalar> 0();
        value           nonuniform List<scalar> 0();
    }
    walls
    {
        type            zeroGradient;
    }
    frontAndBack
    {
        type            empty;
    }
    procBoundary0to1
    {
        type            processor;
        value           nonuniform List<scalar> 
94
(
169.228
176.575
176.575
180.369
180.369
181.017
181.017
178.621
178.621
173.811
173.811
167.323
158.455
158.455
151.505
143.685
143.685
136.69
129.787
123.218
123.218
116.931
111.121
111.121
105.188
100.053
95.16
95.16
90.0428
85.7195
81.6006
81.6006
77.2475
73.6107
73.6107
69.694
66.4851
63.4253
63.4253
60.1569
57.4529
54.8726
54.8726
52.1541
49.8654
47.6777
47.6777
45.4126
43.4607
41.5907
41.5907
39.6909
38.0096
36.3944
36.3944
34.7842
33.3198
31.909
30.55
30.55
29.2377
27.9933
26.792
25.6326
25.6326
24.5401
23.4707
22.4376
21.44
20.4771
20.4771
19.5887
18.6967
17.8358
17.0053
16.2046
15.4328
15.4328
14.7285
14.015
13.4381
12.9584
12.4654
11.961
11.4476
10.9249
10.3955
10.3955
9.93562
9.37116
8.83203
8.72587
6.28488
11.5718
)
;
    }
    procBoundary0to4
    {
        type            processor;
        value           nonuniform List<scalar> 
72
(
59.273
56.9616
54.2689
51.3572
48.343
45.3066
42.3035
39.3702
36.5324
33.8078
31.2071
28.736
26.3975
24.1915
22.117
20.1716
18.3517
16.6528
15.0709
13.6008
12.2373
10.9756
16.3007
16.3007
14.924
13.6482
12.4677
11.3766
10.3697
9.44195
8.58838
7.80425
7.0851
6.42659
5.82475
5.27564
4.77561
4.32115
3.90899
3.53602
3.19931
2.89602
2.6236
2.37954
2.16154
1.96745
1.7952
1.64291
1.50881
1.3912
1.28855
1.1994
1.12242
1.0564
1.00005
0.952137
0.911739
0.878962
0.853387
0.834457
0.820098
0.807449
0.796286
0.786697
0.778607
0.771884
0.766156
0.761099
0.757112
0.754756
0.751654
0.743053
)
;
    }
    procBoundary0to5
    {
        type            processor;
        value           nonuniform List<scalar> 4(85.0467 106.777 127.312 148.435);
    }
}


// ************************************************************************* //
