/*--------------------------------*- C++ -*----------------------------------*\
| =========                 |                                                 |
| \\      /  F ield         | OpenFOAM: The Open Source CFD Toolbox           |
|  \\    /   O peration     | Version:  2306                                  |
|   \\  /    A nd           | Website:  www.openfoam.com                      |
|    \\/     M anipulation  |                                                 |
\*---------------------------------------------------------------------------*/
FoamFile
{
    version     2.0;
    format      ascii;
    arch        "LSB;label=32;scalar=64";
    class       surfaceScalarField;
    location    "225";
    object      phi;
}
// * * * * * * * * * * * * * * * * * * * * * * * * * * * * * * * * * * * * * //

dimensions      [0 3 -1 0 0 0 0];

oriented        oriented;

internalField   nonuniform List<scalar> 
2582
(
-0.188859
-0.245258
-0.159141
-0.247659
-0.128501
-0.259924
-0.0898944
-0.31996
-0.325958
-0.189574
-0.276998
-0.15818
-0.279052
-0.126029
-0.292075
-0.0853444
-0.360645
-0.0452525
-0.36605
-0.378448
-0.190599
-0.310539
-0.157565
-0.312087
-0.123684
-0.325956
-0.080861
-0.403468
-0.0386726
-0.408238
0.00422986
-0.421351
-0.434733
-0.192115
-0.345794
-0.157161
-0.34704
-0.121615
-0.361502
-0.0764224
-0.44866
-0.0320387
-0.452622
0.013112
-0.466501
0.0593236
-0.480944
-0.464879
-0.193867
-0.382996
-0.157129
-0.383778
-0.119539
-0.399092
-0.071962
-0.496237
-0.0251992
-0.499384
0.0222703
-0.513971
0.07082
-0.529494
0.116938
-0.510996
-0.45907
-0.195928
-0.422307
-0.157184
-0.422521
-0.117711
-0.438566
-0.0674709
-0.546477
-0.0182199
-0.548635
0.0317448
-0.563936
0.0828671
-0.580616
0.131282
-0.559412
0.173354
-0.501142
-0.442511
-0.198349
-0.46378
-0.157439
-0.463432
-0.115817
-0.480187
-0.0628709
-0.599423
-0.0109866
-0.60052
0.0416281
-0.61655
0.0954429
-0.634431
0.146362
-0.610331
0.190513
-0.545292
-0.480131
-0.20098
-0.507477
-0.157845
-0.506568
-0.114009
-0.524023
-0.0581911
-0.655241
-0.00346942
-0.655241
0.0519248
-0.671944
0.108553
-0.691059
0.162183
-0.663961
0.208525
-0.591635
0.247984
-0.51959
-0.455023
-0.203932
-0.553578
-0.158452
-0.552048
-0.112232
-0.570242
-0.0533282
-0.714145
0.00430453
-0.712874
0.0626946
-0.730334
0.122339
-0.750704
0.178716
-0.720337
0.227489
-0.640408
0.268861
-0.560961
-0.490109
-0.207113
-0.60221
-0.159162
-0.599999
-0.110437
-0.618968
-0.0483126
-0.776269
0.0123918
-0.773578
0.073925
-0.791868
0.136763
-0.813542
0.196149
-0.779723
0.247403
-0.691663
0.290852
-0.60441
0.327597
-0.526854
-0.443473
-0.210582
-0.653462
-0.159984
-0.650598
-0.108626
-0.670325
-0.0431019
-0.841794
0.020903
-0.837583
0.0857
-0.856665
0.151903
-0.879745
0.214438
-0.842258
0.268369
-0.745594
0.314028
-0.650069
0.352585
-0.565411
-0.474431
-0.214215
-0.707569
-0.160921
-0.703892
-0.106783
-0.724463
-0.0377136
-0.910863
0.0297741
-0.905071
0.098083
-0.924974
0.167838
-0.9495
0.233728
-0.908148
0.290476
-0.802342
0.338449
-0.698042
0.378893
-0.605854
-0.506858
-0.218199
-0.76459
-0.161973
-0.760118
-0.104926
-0.78151
-0.0320738
-0.983715
0.0390469
-0.976192
0.11108
-0.997007
0.184592
-1.02301
0.253967
-0.977523
0.313712
-0.862087
0.36417
-0.7485
0.406686
-0.64837
0.440623
-0.540796
-0.451303
-0.22241
-0.824686
-0.163063
-0.819464
-0.102939
-0.841634
-0.0261704
-1.06048
0.0488602
-1.05122
0.124754
-1.0729
0.202224
-1.10048
0.275331
-1.05063
0.338191
-0.924947
0.391298
-0.801606
0.435937
-0.69301
0.471554
-0.576413
-0.479434
-0.22686
-0.88807
-0.164353
-0.881971
-0.100913
-0.905074
-0.0199066
-1.14149
0.0591568
-1.13029
0.139128
-1.15287
0.22076
-1.18211
0.297765
-1.12764
0.36403
-0.991212
0.419883
-0.857459
0.466837
-0.739963
0.504204
-0.613779
0.533653
-0.508883
-0.432697
-0.23156
-0.954953
-0.165604
-0.947927
-0.0988071
-0.971871
-0.0134154
-1.22688
0.0699387
-1.21364
0.154241
-1.23717
0.240313
-1.26819
0.321488
-1.20881
0.391243
-1.06097
0.45003
-0.916246
0.499382
-0.789316
0.538635
-0.653032
0.569482
-0.53973
-0.457535
-0.236557
-1.02544
-0.167049
-1.01743
-0.0965852
-1.04233
-0.00656059
-1.31691
0.0813139
-1.30151
0.170195
-1.32605
0.260882
-1.35888
0.346422
-1.29435
0.419929
-1.13447
0.481824
-0.978141
0.533743
-0.841235
0.574951
-0.694239
0.60732
-0.572099
-0.48353
-0.241819
-1.09973
-0.168531
-1.09072
-0.094268
-1.1166
0.000692567
-1.41187
0.0933082
-1.39413
0.187007
-1.41975
0.282605
-1.45447
0.372744
-1.38449
0.450167
-1.2119
0.515351
-1.04333
0.569963
-0.895847
0.613291
-0.737568
0.647207
-0.606015
0.674409
-0.510732
-0.432124
-0.247389
-1.17807
-0.170086
-1.16803
-0.0917836
-1.1949
0.00830239
-1.51195
0.105957
-1.49178
0.204727
-1.51852
0.3055
-1.55525
0.400508
-1.4795
0.482064
-1.29345
0.550687
-1.11195
0.608171
-0.953331
0.653777
-0.783173
0.689331
-0.641569
0.717802
-0.539204
-0.4547
-0.253202
-1.26068
-0.171743
-1.24949
-0.0892206
-1.27742
0.0163094
-1.61748
0.119283
-1.59476
0.22339
-1.62263
0.329634
-1.66149
0.429751
-1.57961
0.515685
-1.37939
0.58801
-1.18427
0.648535
-1.01386
0.696339
-0.830977
0.733848
-0.679078
0.763634
-0.56899
-0.478333
-0.259371
-1.34775
-0.173502
-1.33536
-0.08646
-1.36446
0.0248168
-1.72876
0.133367
-1.70331
0.243107
-1.73237
0.355111
-1.77349
0.460609
-1.68511
0.551189
-1.46997
0.627295
-1.26038
0.690998
-1.07756
0.741523
-0.881503
0.780772
-0.718327
0.811979
-0.600196
0.836624
-0.502978
-0.431152
-0.265828
-0.175275
-1.42591
-0.0835768
-1.45616
0.0337684
-1.84611
0.148187
-1.81773
0.263902
-1.84808
0.381923
-1.89151
0.493198
-1.79639
0.588641
-1.56541
0.668791
-1.34053
0.73594
-1.14471
0.788838
-0.9344
0.830142
-0.759631
0.863138
-0.633192
0.888899
-0.52874
-0.451733
-0.17717
-1.52138
-0.0804622
-1.55287
0.0431963
-1.96976
0.163864
-1.93839
0.285836
-1.97006
0.410287
-2.01597
0.527508
-1.91361
0.628143
-1.66604
0.71267
-1.42506
0.783344
-1.21538
0.839139
-0.990195
0.882506
-0.802998
0.916882
-0.667568
0.944016
-0.555874
0.965434
-0.473151
-0.416356
-0.179154
-1.62202
-0.0772213
-1.6548
0.0532029
-2.10019
0.180398
-2.06559
0.309003
-2.09866
0.440205
-2.14717
0.563866
-2.03727
0.669799
-1.77198
0.758793
-1.51405
0.833227
-1.28982
0.891951
-1.04892
0.937621
-0.848668
0.973883
-0.70383
1.00221
-0.584197
1.02468
-0.495627
-0.434746
-0.18119
-1.72813
-0.0737323
-1.76226
0.0637695
-2.23769
0.197874
-2.19969
0.333447
-2.23424
0.471754
-2.28547
0.601993
-2.16751
0.713781
-1.88376
0.807624
-1.6079
0.885991
-1.36818
0.947831
-1.11076
0.995891
-0.896728
1.0338
-0.741736
1.06357
-0.613966
1.08706
-0.519126
-0.454022
-0.183365
-1.84
-0.0700601
-1.87556
0.0749072
-2.38266
0.216286
-2.34107
0.359226
-2.37718
0.505112
-2.43136
0.642387
-2.30478
0.760159
-2.00154
0.859023
-1.70676
0.941531
-1.45069
1.00671
-1.17593
1.05718
-0.947204
1.09728
-0.781832
1.1284
-0.64509
1.15313
-0.543853
1.173
-0.473891
-0.42193
-0.185579
-1.95793
-0.0661432
-1.995
0.0867343
-2.53553
0.235799
-2.49014
0.386517
-2.52789
0.54018
-2.58502
0.685074
-2.44968
0.8091
-2.12556
0.913319
-1.81098
1.00033
-1.5377
1.06883
-1.24444
1.1221
-1.00047
1.16403
-0.823758
1.19688
-0.677945
1.22268
-0.569653
1.24364
-0.494849
-0.439121
-0.187897
-2.08227
-0.0619671
-2.12093
0.0991821
-2.69668
0.25636
-2.64732
0.415218
-2.68675
0.577361
-2.74717
0.729982
-2.6023
0.860888
-2.25647
0.970729
-1.92082
1.06231
-1.62928
1.13452
-1.31665
1.1904
-1.05635
1.2347
-0.868064
1.26908
-0.712322
1.29606
-0.596632
1.31813
-0.516922
-0.456993
-0.190316
-2.21339
-0.0575948
-2.25365
0.112362
-2.86664
0.278067
-2.81302
0.445639
-2.85432
0.616512
-2.91804
0.777493
-2.76328
0.915405
-2.39438
1.03106
-2.03647
1.12772
-1.72594
1.2038
-1.39274
1.26266
-1.11521
1.30914
-0.914542
1.34532
-0.748499
1.37376
-0.625069
1.39661
-0.53978
1.41555
-0.475927
-0.432478
-0.192876
-2.35158
-0.0528843
-2.39364
0.126265
-3.04579
0.301014
-2.98777
0.477676
-3.03099
0.657776
-3.09814
0.827512
-2.93302
0.972963
-2.53983
1.09494
-2.15845
1.19681
-1.82781
1.27682
-1.47274
1.33896
-1.17735
1.38785
-0.963432
1.42587
-0.78652
1.45567
-0.654871
1.47968
-0.563784
1.49924
-0.495491
-0.449107
-0.195459
-2.49731
-0.0478997
-2.5412
0.141041
-3.23473
0.325272
-3.172
0.511485
-3.2172
0.701562
-3.28822
0.880424
-3.11188
1.03371
-2.69312
1.16234
-2.28709
1.26953
-1.935
1.354
-1.55721
1.41924
-1.24259
1.47074
-1.01494
1.51073
-0.82651
1.54206
-0.686197
1.56739
-0.589115
1.58793
-0.516031
-0.466298
-0.198207
-2.65094
-0.0425917
-2.69682
0.156581
-3.4339
0.350885
-3.3663
0.547249
-3.41356
0.747511
-3.48848
0.936305
-3.30067
1.09784
-2.85465
1.23347
-2.42271
1.34654
-2.04807
1.4354
-1.64608
1.50426
-1.31145
1.55838
-1.06906
1.60042
-0.868547
1.6334
-0.719175
1.65982
-0.61554
1.68126
-0.53747
1.69931
-0.484349
-0.450637
-0.201054
-2.81293
-0.0370185
-2.86085
0.173071
-3.64399
0.377853
-3.57109
0.584969
-3.62068
0.796252
-3.69976
0.995134
-3.49955
1.16564
-3.02516
1.30839
-2.56546
1.42756
-2.16724
1.52135
-1.73986
1.59378
-1.38388
1.65095
-1.12622
1.69514
-0.912738
1.72971
-0.753742
1.75749
-0.643321
1.78011
-0.560088
1.79889
-0.503131
-0.466907
-0.20402
-2.98374
-0.0310405
-3.03383
0.190446
-3.86548
0.406508
-3.78715
0.624889
-3.83906
0.847719
-3.92259
1.05738
-3.70921
1.23692
-3.2047
1.38778
-2.71632
1.51333
-2.2928
1.61212
-1.83865
1.68837
-1.46013
1.74852
-1.18637
1.79506
-0.959282
1.83148
-0.790165
1.86066
-0.6725
1.88423
-0.583652
1.904
-0.522909
-0.484017
-0.20712
-3.16383
-0.0247129
-3.21624
0.20883
-4.09902
0.436618
-4.01494
0.666916
-4.06936
0.901744
-4.15742
1.12294
-3.93041
1.31256
-3.39432
1.47133
-2.87509
1.60371
-2.42517
1.70782
-1.94275
1.78833
-1.54064
1.85149
-1.24953
1.90065
-1.00845
1.93871
-0.828223
1.96945
-0.70324
1.99435
-0.608549
2.01506
-0.543622
2.03291
-0.501873
-0.477985
-0.210354
-3.35372
-0.0180233
-3.40857
0.228272
-4.34532
0.468476
-4.25514
0.711367
-4.31225
0.959112
-4.40517
1.19237
-4.16366
1.39207
-3.59402
1.55956
-3.04258
1.69923
-2.56485
1.8088
-2.05232
1.89365
-1.6255
1.96034
-1.31622
2.01192
-1.06003
2.05216
-0.86846
2.08436
-0.735442
2.11051
-0.634698
2.13217
-0.565275
2.15089
-0.520602
-0.494806
-0.213737
-3.55396
-0.0109461
-3.61136
0.248811
-4.60507
0.502166
-4.5085
0.758205
-4.56829
1.01939
-4.66635
1.26542
-4.40969
1.47611
-3.80472
1.6527
-3.21917
1.79994
-2.71209
1.9156
-2.16798
2.00491
-1.71481
2.07512
-1.38642
2.12953
-1.11444
2.17185
-0.910779
2.20576
-0.769355
2.23308
-0.662018
2.2558
-0.587997
2.27548
-0.540281
-0.512512
-0.217255
-3.7651
-0.00339396
-3.82522
0.27055
-4.87902
0.537611
-4.77556
0.807772
-4.83845
1.08325
-4.94183
1.34267
-4.66912
1.56486
-4.0269
1.75107
-3.40538
1.90625
-2.86727
2.02825
-2.28998
2.12229
-1.80885
2.19638
-1.46051
2.25355
-1.17161
2.29822
-0.955448
2.3338
-0.804932
2.36268
-0.690898
2.38653
-0.611845
2.40711
-0.560865
2.4255
-0.530898
-0.516963
-0.220957
-3.98773
0.00455109
-4.05073
0.293419
-5.16789
0.575116
-5.05726
0.860036
-5.12337
1.15062
-5.23241
1.42423
-4.94273
1.65859
-4.26126
1.85492
-3.6017
2.01852
-3.03087
2.14709
-2.41856
2.24635
-1.90812
2.32428
-1.53844
2.38451
-1.23184
2.43148
-1.00242
2.46909
-0.842548
2.49931
-0.721117
2.52443
-0.636966
2.54602
-0.582447
2.56544
-0.550324
-0.535114
-0.224812
-4.22253
0.0130135
-4.28856
0.317577
-5.47245
0.614867
-5.35454
0.91519
-5.42369
1.22179
-5.53901
1.51033
-5.23127
1.75737
-4.5083
1.96452
-3.80885
2.13706
-3.20341
2.27254
-2.55404
2.37712
-2.0127
2.45932
-1.62064
2.52288
-1.2954
2.57232
-1.05186
2.61179
-0.882015
2.64362
-0.752944
2.67003
-0.663383
2.69262
-0.605032
2.713
-0.570709
-0.554246
-0.228836
-4.47013
0.0219628
-4.53935
0.343208
-5.79369
0.656613
-5.66795
0.973376
-5.74046
1.29669
-5.86232
1.60106
-5.53564
1.86173
-4.76897
2.08007
-4.02719
2.26204
-3.38539
2.40488
-2.69687
2.51534
-2.12317
2.60186
-1.70715
2.66883
-1.36237
2.72087
-1.1039
2.76262
-0.923761
2.79598
-0.786313
2.82386
-0.691261
2.8477
-0.628874
2.86898
-0.591987
-0.574085
-0.233112
-4.73119
0.0313744
-4.80384
0.37023
-6.13255
0.700768
-5.99849
1.03505
-6.07474
1.37586
-6.20312
1.69699
-5.85678
1.97179
-5.04377
2.20227
-4.25767
2.39416
-3.57727
2.54481
-2.84752
2.66099
-2.23934
2.75241
-1.79858
2.82297
-1.43293
2.87782
-1.15875
2.92159
-0.967527
2.95689
-0.821617
2.98601
-0.720376
3.01106
-0.653925
3.03346
-0.614394
3.05456
-0.595184
-0.594984
-0.237509
-5.00658
0.0414175
-5.08277
0.398785
-6.48992
0.74729
-6.34699
1.09983
-6.42728
1.4596
-6.56289
1.7981
-6.19528
2.08816
-5.33383
2.33102
-4.50054
2.53343
-3.77968
2.69236
-3.00646
2.81495
-2.36194
2.91122
-1.89484
2.98553
-1.50724
3.04334
-1.21657
3.08958
-1.01376
3.12675
-0.858793
3.15741
-0.751033
3.18377
-0.68028
3.20738
-0.638006
3.22928
-0.61709
-0.61674
-0.242204
-5.29693
0.0519799
-5.37695
0.428956
-6.86689
0.79662
-6.71466
1.16848
-6.79914
1.54781
-6.94223
1.90499
-6.55245
2.21077
-5.63961
2.46702
-4.75678
2.68044
-3.99311
2.848
-3.17402
2.97734
-2.49127
3.07877
-1.99627
3.15727
-1.58574
3.21823
-1.27753
3.26675
-1.06227
3.30594
-0.897986
3.33838
-0.783468
3.36602
-0.707924
3.39083
-0.662813
3.41392
-0.64018
-0.639615
-0.247107
-5.60315
0.0631737
-5.68723
0.460762
-7.26448
0.848549
-7.10244
1.24077
-7.19136
1.64089
-7.34234
2.01773
-6.9293
2.34037
-5.96225
2.61065
-5.02706
2.83579
-4.21824
3.01247
-3.3507
3.14878
-2.62759
3.25592
-2.10341
3.33847
-1.6683
3.40275
-1.34181
3.45408
-1.1136
3.49519
-0.939096
3.52924
-0.817524
3.55852
-0.7372
3.58447
-0.688762
3.60893
-0.664636
-0.663456
-0.252212
-5.92615
0.0750166
-6.01446
0.494309
-7.68377
0.903457
-7.51159
1.3172
-7.6051
1.73928
-7.76443
2.13666
-7.32668
2.47695
-6.30254
2.76221
-5.31231
2.99961
-4.45565
3.186
-3.53708
3.32985
-2.77144
3.44259
-2.21615
3.52982
-1.75553
3.59752
-1.4095
3.65157
-1.16765
3.69506
-0.982586
3.73086
-0.85333
3.76158
-0.767916
3.78905
-0.716232
3.81463
-0.690214
3.83991
-0.688744
-0.708203
-0.257666
-6.26675
0.0874486
-6.35957
0.529767
-8.12609
0.961325
-7.94315
1.39773
-8.04151
1.84302
-8.20972
2.26234
-7.746
2.62126
-6.66146
2.92194
-5.61299
3.17248
-4.70619
3.36922
-3.73381
3.52072
-2.92294
3.63986
-2.33529
3.73177
-1.84744
3.80313
-1.48086
3.86009
-1.2246
3.90586
-1.02835
3.9437
-0.891172
3.97603
-0.80025
4.00492
-0.745118
4.03183
-0.717125
4.05828
-0.715197
-0.735834
-0.263328
-6.62601
0.100729
-6.72363
0.567137
-8.5925
1.02237
-8.39838
1.48271
-8.50185
1.95261
-8.67962
2.39486
-8.18826
2.77362
-7.04021
3.09085
-5.93023
3.35514
-4.97048
3.56247
-3.94114
3.72248
-3.08295
3.84798
-2.4608
3.94485
-1.94431
4.02024
-1.55626
4.08016
-1.28452
4.12847
-1.07666
4.1683
-0.930995
4.20239
-0.834344
4.23276
-0.775489
4.2611
-0.745463
4.28904
-0.743137
-0.764651
-0.269348
-7.0049
0.114553
-7.10753
0.606802
-9.08475
1.0869
-8.87848
1.57263
-8.98758
2.06814
-9.17513
2.5347
-8.65482
2.93428
-7.43979
3.26898
-6.26493
3.5477
-5.24919
3.76648
-4.15993
3.93523
-3.25171
4.06768
-2.59324
4.16987
-2.0465
4.24919
-1.63558
4.3125
-1.34783
4.36331
-1.12748
4.40537
-0.97305
4.44113
-0.870109
4.47326
-0.807615
4.50309
-0.775298
4.53243
-0.772474
-0.795031
-0.275639
-7.40453
0.129432
-7.5126
0.648341
-9.60366
1.15496
-9.3851
1.66725
-9.49987
2.19004
-9.69792
2.68237
-9.14715
3.10388
-7.8613
3.45709
-6.61814
3.75114
-5.54324
3.98186
-4.39065
4.15984
-3.42969
4.29947
-2.73287
4.40727
-2.1543
4.49096
-1.71927
4.55771
-1.41459
4.61118
-1.18094
4.65541
-1.01728
4.69325
-0.907955
4.72704
-0.841405
4.75841
-0.806664
4.78929
-0.803352
-0.827189
-0.282331
-7.82604
0.144795
-7.93973
0.692439
-10.1513
1.2268
-9.91946
1.7674
-10.0405
2.31891
-10.2494
2.83827
-9.66651
3.28285
-8.30588
3.65537
-6.99066
3.96562
-5.85348
4.20907
-4.6341
4.39687
-3.61749
4.54413
-2.88012
4.65764
-2.26781
4.74589
-1.80752
4.81626
-1.48496
4.87282
-1.2375
4.9194
-1.06386
4.95937
-0.947921
4.99475
-0.876788
5.02794
-0.839851
5.06043
-0.835845
5.09412
-0.860878
-0.867499
-0.289356
-8.2706
0.161263
-8.39035
0.738907
-10.7289
1.30251
-10.4831
1.87282
-10.6108
2.45484
-10.8314
3.00263
-10.2143
3.4719
-8.77515
3.86492
-7.38367
4.19218
-6.18075
4.44898
-4.8909
4.64694
-3.81546
4.80218
-3.03536
4.9221
-2.38773
5.01515
-1.90056
5.08932
-1.55913
5.14877
-1.29695
5.19797
-1.11306
5.23987
-0.989825
5.2775
-0.914414
5.31217
-0.874521
5.34656
-0.870242
5.382
-0.896313
-0.903437
-0.296773
-8.73947
0.178461
-8.86558
0.78773
-11.3382
1.38258
-11.0779
1.98417
-11.2124
2.59811
-11.4454
3.17618
-10.7924
3.67121
-9.27019
4.08592
-7.79838
4.4312
-6.52603
4.70199
-5.16168
4.91076
-4.02423
5.07459
-3.19919
5.20089
-2.51403
5.29901
-1.99868
5.37724
-1.63736
5.44011
-1.35983
5.4919
-1.16484
5.53616
-1.03409
5.57558
-0.953835
5.61229
-0.91123
5.64836
-0.906311
5.68585
-0.9338
-0.941374
-0.304535
-9.23417
0.196869
-9.36698
0.839576
-11.9809
1.46693
-11.7053
2.10169
-11.8471
2.74927
-12.093
3.35924
-11.4023
3.88167
-9.79261
4.3192
-8.23591
4.68331
-6.89014
4.96908
-5.44745
5.18917
-4.24433
5.36196
-3.37198
5.49526
-2.64732
5.5987
-2.10212
5.68109
-1.71976
5.74728
-1.42602
5.80193
-1.21949
5.84856
-1.08072
5.89021
-0.995479
5.92901
-0.950031
5.96707
-0.944372
6.00637
-0.973101
-0.981267
-0.312853
-9.75587
0.215919
-9.89576
0.894128
-12.6591
1.55602
-12.3671
2.22562
-12.5168
2.909
-12.7763
3.55244
-12.0458
4.10362
-10.3438
4.56534
-8.69764
4.9494
-7.2742
5.2506
-5.74865
5.48304
-4.47677
5.66517
-3.5541
5.80567
-2.78783
5.91478
-2.21123
6.00184
-1.80682
6.07158
-1.49575
6.12915
-1.27706
6.17838
-1.12995
6.22215
-1.03925
6.26293
-0.990807
6.30302
-0.984468
6.34459
-1.01467
-1.02339
-0.321681
-10.3061
0.236365
-10.4538
0.951566
-13.3743
1.64982
-13.0654
2.35629
-13.2232
3.07746
-13.4975
3.75639
-12.7247
4.33809
-10.9255
4.82486
-9.18441
5.2301
-7.67944
5.54789
-6.06645
5.79284
-4.72171
5.98508
-3.74635
6.13341
-2.93616
6.24835
-2.32618
6.34003
-1.89849
6.41365
-1.56937
6.47444
-1.33785
6.52612
-1.18164
6.57284
-1.08596
6.61564
-1.03361
6.65743
-1.02626
6.70079
-1.05803
-1.06869
-0.330934
-10.8865
0.257434
-11.0422
1.01215
-14.129
1.74896
-13.8022
2.49455
-13.9688
3.25506
-14.258
3.97158
-13.4412
4.58538
-11.5393
5.09895
-9.69798
5.52621
-8.10669
5.86145
-6.4017
6.11994
-4.98019
6.32264
-3.94905
6.47926
-3.09279
6.60088
-2.44779
6.69657
-1.99418
6.77476
-1.64756
6.83792
-1.401
6.89315
-1.23687
6.94157
-1.13439
6.98721
-1.07925
7.03122
-1.07027
7.07756
-1.10436
7.12381
-1.11495
-1.02805
-0.3406
-11.4989
0.280192
-11.663
1.07628
-14.9251
1.85354
-14.5795
2.63998
-14.7553
3.44275
-15.0608
4.19846
-14.1969
4.84623
-12.1871
5.38784
-10.2396
5.83859
-8.55744
6.19232
-6.75543
6.46512
-5.25299
6.678
-4.16193
6.84246
-3.25725
6.97023
-2.57555
7.07379
-2.09774
7.1552
-1.72898
7.22319
-1.46898
7.28012
-1.2938
7.33077
-1.18504
7.37866
-1.12715
7.42624
-1.11785
7.47498
-1.15311
7.52376
-1.16373
-1.0733
-0.244828
-11.9387
0.21205
-12.1198
0.841221
-15.5543
1.54014
-15.2784
2.38621
-15.6013
3.47752
-16.1521
4.84548
-15.5649
6.22041
-13.562
6.11916
-10.1384
5.98882
-8.42709
5.88097
-6.64758
5.79649
-5.1685
5.7311
-4.09654
5.68238
-3.20853
5.64445
-2.53762
5.61569
-2.06899
5.59277
-1.70605
5.57611
-1.45232
5.56188
-1.27957
5.54991
-1.17307
5.53854
-1.11577
5.53008
-1.10939
5.52436
-1.14739
5.52142
-1.16079
-1.07394
-0.264764
-12.4227
0.238107
-12.6227
0.93052
-16.2467
1.69975
-16.0476
2.63141
-16.533
3.83354
-17.3542
5.34129
-17.0726
6.85648
-15.0772
6.74222
-10.0241
6.59722
-8.28208
6.47753
-6.52789
6.38246
-5.07344
6.31014
-4.02422
6.25441
-3.1528
6.21488
-2.49809
6.18261
-2.03672
6.15821
-1.68165
6.13714
-1.43125
6.12085
-1.26329
6.10795
-1.16017
6.09687
-1.10469
6.08744
-1.09996
6.08091
-1.14085
6.07732
-1.15721
-1.07647
-0.286542
-12.955
0.266667
-13.1759
1.0289
-17.0089
1.87614
-16.8949
2.90202
-17.5589
4.22627
-18.6785
5.88726
-18.7336
7.55649
-16.7464
7.42633
-9.89394
7.26624
-8.12199
7.13104
-6.3927
7.02765
-4.97005
6.94763
-3.9442
6.8866
-3.09176
6.84072
-2.45222
6.8052
-2.0012
6.77826
-1.65471
6.75683
-1.40982
6.73861
-1.24507
6.72366
-1.14522
6.71174
-1.09277
6.70023
-1.08845
6.69181
-1.13243
6.68899
-1.15439
-1.07851
-0.309553
-13.5407
0.299108
-13.7846
1.13798
-17.8478
2.07037
-17.8272
3.20013
-18.6886
4.65865
-20.137
6.4885
-20.5635
8.32845
-18.5864
8.18256
-9.74805
8.00239
-7.94182
7.85405
-6.24436
7.73805
-4.85405
7.64842
-3.85457
7.58125
-3.02459
7.5294
-2.40036
7.49091
-1.96271
7.46042
-1.62422
7.43754
-1.38694
7.41764
-1.22516
7.40078
-1.12837
7.38561
-1.0776
7.37604
-1.07887
7.36712
-1.12352
7.36279
-1.15006
-1.08027
-0.3346
-14.1848
0.335262
-14.4544
1.25826
-18.7708
2.28508
-18.8541
3.52871
-19.9323
5.13499
-21.7433
7.14998
-22.5785
9.17512
-20.6115
9.01218
-9.58512
8.81277
-7.74241
8.6486
-6.08018
8.52088
-4.72633
8.41977
-3.75346
8.34575
-2.95057
8.28958
-2.3442
8.2472
-1.92033
8.21344
-1.59046
8.18556
-1.35906
8.16409
-1.20369
8.14557
-1.10985
8.12991
-1.06194
8.11732
-1.06628
8.1069
-1.1131
8.10379
-1.14695
-1.08066
-0.361157
-14.8935
0.375413
-15.191
1.39153
-19.7869
2.52144
-19.984
3.89071
-21.3015
5.65949
-23.5121
7.87947
-24.7985
10.1095
-22.8415
9.92623
-9.40184
9.70414
-7.52032
9.52183
-5.89787
9.37958
-4.58408
9.27029
-3.64417
9.18743
-2.86771
9.1249
-2.28166
9.07646
-1.87189
9.03973
-1.55373
9.01088
-1.33021
8.98691
-1.17973
8.96559
-1.08853
8.94964
-1.046
8.93301
-1.04965
8.92381
-1.10391
8.91833
-1.14147
-1.08251
-0.390252
-15.673
0.420563
-16.0018
1.53859
-20.905
2.78213
-21.2275
4.28944
-22.8088
6.2365
-25.4591
8.68025
-27.2422
11.1343
-25.2956
10.9311
-9.19861
10.6861
-7.27533
10.4834
-5.69518
10.3265
-4.42717
10.2048
-3.52247
10.1125
-2.77541
10.0453
-2.21446
9.9912
-1.8178
9.95053
-1.51306
9.91724
-1.29691
9.88964
-1.15213
9.86838
-1.06726
9.8485
-1.02612
9.8331
-1.03425
9.82157
-1.09238
9.81524
-1.13513
-1.08476
-0.421179
-16.5303
0.470639
-16.8936
1.70078
-22.1351
3.06927
-22.596
4.72803
-24.4676
6.87179
-27.6029
9.56095
-29.9314
12.2608
-27.9955
12.037
-8.97482
11.7655
-7.00383
11.5417
-5.47128
11.3675
-4.25304
11.2331
-3.38806
11.1334
-2.67566
11.0557
-2.13684
10.9989
-1.76097
10.9521
-1.46622
10.9158
-1.26062
10.8874
-1.12372
10.8612
-1.04107
10.8401
-1.0051
10.8223
-1.01645
10.8086
-1.07869
10.803
-1.12944
10.8045
-1.08632
-1.00054
-0.454592
-17.4735
0.526323
-17.8746
1.8797
-23.4885
3.38556
-24.1019
5.21093
-26.293
7.57038
-29.9623
10.5275
-32.8885
13.5009
-30.9689
13.2535
-8.72736
12.9536
-6.704
12.7078
-5.2254
12.5136
-4.05891
12.3659
-3.24033
12.2529
-2.56264
12.1692
-2.05314
12.1038
-1.69559
12.055
-1.41746
12.0148
-1.22038
11.9806
-1.08955
11.9522
-1.01267
11.9289
-0.981719
11.9088
-0.996354
11.8943
-1.06423
11.8856
-1.12071
11.8879
-1.08864
-1.01067
-0.490421
-18.5108
0.588617
-18.9536
2.07735
-24.9772
3.73371
-25.7582
5.74182
-28.3011
8.33613
-32.5567
11.5906
-36.143
14.8598
-34.238
14.5915
-8.45905
14.2605
-6.373
13.9887
-4.95366
13.7757
-3.84592
13.61
-3.07461
13.485
-2.4376
13.3912
-1.95933
13.3197
-1.62408
13.2628
-1.36059
13.2177
-1.17528
13.1821
-1.05394
13.1506
-0.981195
13.1239
-0.955054
13.1031
-0.975496
13.0855
-1.04668
13.0765
-1.11167
13.0772
-1.08936
-1.02032
-0.52915
-19.6517
0.657851
-20.1406
2.29515
-26.6145
4.11683
-27.5799
6.32511
-30.5094
9.17776
-35.4093
12.7555
-39.7208
16.3536
-37.8361
16.0618
-8.16723
15.6995
-6.01071
15.398
-4.65213
15.1625
-3.61039
14.9779
-2.89008
14.8397
-2.29934
14.7352
-1.85481
14.6536
-1.54254
14.5906
-1.29753
14.5413
-1.12601
14.4988
-1.01143
14.4656
-0.948028
14.4362
-0.925657
14.4104
-0.94964
14.3918
-1.02811
14.3829
-1.10273
14.382
-1.08848
-1.03185
-0.570276
-20.9062
0.73459
-21.4455
2.53493
-28.4148
4.53747
-29.5825
6.9656
-32.9375
10.1022
-38.5459
14.0342
-43.6527
17.9957
-41.7976
17.68
-7.85155
17.2849
-5.61561
16.9494
-4.31664
16.685
-3.34596
16.4795
-2.68462
16.3279
-2.14768
16.2132
-1.74016
16.126
-1.45529
16.0595
-1.23105
16.0037
-1.07018
15.9594
-0.967115
15.9193
-0.908003
15.8861
-0.892459
15.8578
-0.921311
15.8369
-1.00721
15.8268
-1.09257
15.8309
-1.09263
-1.04585
-0.613779
0.820821
2.79891
4.99922
7.66538
11.11
15.4348
19.7871
19.4572
19.0313
18.6688
18.3804
18.1529
17.9781
17.848
17.7489
17.6738
17.6181
17.5731
17.5387
17.5092
17.4865
17.4669
17.4544
17.4535
)
;

boundaryField
{
    inlet
    {
        type            calculated;
        value           nonuniform List<scalar> 
26
(
-22.2858
-22.8801
-30.3929
-31.7828
-35.6036
-41.9905
-47.9776
-46.1499
-7.52166
-5.18969
-3.95415
-3.05763
-2.45711
-1.97283
-1.61006
-1.3562
-1.15598
-1.01443
-0.922128
-0.873635
-0.862907
-0.898607
-0.987691
-1.08007
-1.09172
-1.05821
)
;
    }
    outlet
    {
        type            calculated;
        value           nonuniform List<scalar> 0();
    }
    walls
    {
        type            calculated;
        value           nonuniform List<scalar> 0();
    }
    frontAndBack
    {
        type            empty;
        value           nonuniform List<scalar> 0();
    }
    procBoundary0to1
    {
        type            processor;
        value           nonuniform List<scalar> 
94
(
0.287801
-0.0517377
0.337593
-0.0043969
0.390791
0.0481714
0.42103
0.103173
0.418985
0.157023
0.406598
0.209267
0.228133
0.421534
0.281473
0.303946
0.413882
0.357188
0.383543
0.41132
0.42439
0.467536
0.499685
0.408927
0.557423
0.59432
0.633315
0.410577
0.695957
0.740378
0.787267
0.411381
0.856395
0.909481
0.398677
0.983113
1.04307
1.10634
0.405278
1.18965
1.26083
1.336
0.416762
1.43126
1.51587
1.60512
0.434822
1.71513
1.81516
1.92111
0.461917
2.04898
2.16772
2.29318
0.49961
2.44285
2.58359
2.73213
2.88882
0.574378
3.07517
3.25104
3.43679
3.63277
0.68222
3.86589
4.08591
4.31786
4.56281
4.82144
0.833241
5.12838
5.41794
5.72378
6.04626
6.38672
6.74609
0.985339
7.16652
7.56901
5.52207
6.07984
6.69104
7.36454
8.10418
8.92019
9.81749
0.990941
10.8141
11.898
13.0868
14.3935
15.8449
17.4659
)
;
    }
    procBoundary0to4
    {
        type            processor;
        value           nonuniform List<scalar> 
72
(
0.219026
0.221314
0.224141
0.227369
0.23107
0.235239
0.239822
0.244677
0.250033
0.255745
0.261835
0.268321
0.275219
0.282506
0.290244
0.298443
0.307046
0.31611
0.32573
0.335805
0.346442
0.357629
-1.43955
0.272644
0.279792
0.287301
0.295238
0.303507
0.312232
0.321438
0.331063
0.341189
0.351842
0.36304
0.374832
0.387209
0.400244
0.413975
0.428393
0.443586
0.459614
0.476441
0.494173
0.512891
0.532561
0.553326
0.575208
0.59827
0.622585
0.648235
0.675269
0.703841
0.733922
0.765636
0.79924
0.834554
0.871899
0.911368
0.952932
0.684624
0.748855
0.818815
0.895224
0.978703
1.06988
1.16971
1.27853
1.39773
1.52775
1.67003
1.82477
1.99343
)
;
    }
    procBoundary0to5
    {
        type            processor;
        value           nonuniform List<scalar> 4(0.215091 0.217941 0.229284 0.281354);
    }
}


// ************************************************************************* //
