/*--------------------------------*- C++ -*----------------------------------*\
| =========                 |                                                 |
| \\      /  F ield         | OpenFOAM: The Open Source CFD Toolbox           |
|  \\    /   O peration     | Version:  2306                                  |
|   \\  /    A nd           | Website:  www.openfoam.com                      |
|    \\/     M anipulation  |                                                 |
\*---------------------------------------------------------------------------*/
FoamFile
{
    version     2.0;
    format      ascii;
    arch        "LSB;label=32;scalar=64";
    class       volSymmTensorField;
    location    "225";
    object      turbulenceProperties:R;
}
// * * * * * * * * * * * * * * * * * * * * * * * * * * * * * * * * * * * * * //

dimensions      [0 2 -2 0 0 0 0];

internalField   nonuniform List<symmTensor> 
1340
(
(0.000371492 -2.9849e-05 -1.14006e-21 0.00030793 -4.39436e-22 0.000339672)
(0.000371296 -2.42689e-05 8.56509e-21 0.000300093 8.51684e-21 0.000335746)
(0.000369686 -1.83479e-05 1.8813e-20 0.000292972 1.07057e-20 0.00033131)
(0.000366133 -1.11468e-05 -2.99882e-20 0.000285527 -3.33016e-20 0.000325909)
(0.000359433 -3.19973e-06 -4.21896e-20 0.000277903 -3.57494e-20 0.000318657)
(0.000315132 -2.56301e-05 3.94802e-21 0.000261712 3.48061e-21 0.000288397)
(0.000314767 -2.09818e-05 1.12802e-20 0.000254892 5.97614e-21 0.000284867)
(0.000313352 -1.60372e-05 -2.64416e-20 0.000248741 -1.86223e-20 0.000281032)
(0.00031046 -1.00336e-05 3.81757e-21 0.000242405 6.81941e-21 0.000276499)
(0.000304975 -3.3795e-06 3.99172e-20 0.000235903 1.57957e-20 0.000270424)
(0.000297144 3.45275e-06 -2.96558e-20 0.000229869 -3.52273e-20 0.000263479)
(0.000269118 -2.21606e-05 -2.0185e-21 0.000223948 -1.87146e-21 0.000246513)
(0.00026866 -1.82567e-05 -8.44777e-21 0.000217984 -5.6171e-21 0.000243345)
(0.000267391 -1.4092e-05 -1.1898e-21 0.000212616 1.84761e-22 0.000239991)
(0.000265015 -9.04136e-06 1.56517e-20 0.000207177 1.02791e-20 0.00023615)
(0.000260497 -3.42108e-06 -9.45224e-21 0.000201601 -7.60846e-22 0.000231029)
(0.000254151 2.36657e-06 3.45618e-20 0.000196515 2.67056e-20 0.000225309)
(0.000245977 8.02908e-06 5.76063e-20 0.000192102 2.53627e-20 0.000219022)
(0.000231097 -1.92707e-05 2.64551e-21 0.000192715 1.86166e-21 0.000211891)
(0.000230614 -1.59684e-05 3.72472e-21 0.000187489 2.60049e-21 0.000209067)
(0.000229483 -1.24377e-05 9.91299e-21 0.000182787 3.38704e-21 0.000206124)
(0.000227509 -8.15612e-06 -2.70598e-20 0.00017808 -1.83716e-20 0.000202839)
(0.000223777 -3.37609e-06 -1.34258e-20 0.000173281 -9.85888e-21 0.000198507)
(0.000218593 1.56302e-06 -3.35975e-20 0.000168961 -2.08191e-20 0.000193757)
(0.000211995 6.43077e-06 -4.12569e-20 0.000165317 -1.12759e-20 0.000188645)
(0.000203922 1.09104e-05 3.47479e-20 0.0001623 6.60836e-21 0.000183119)
(0.000199428 -1.68423e-05 2.86375e-21 0.000166671 1.48371e-21 0.000183036)
(0.000198936 -1.40284e-05 6.05492e-22 0.000162063 3.74869e-23 0.000180511)
(0.00019794 -1.10192e-05 -8.09253e-21 0.000157937 -2.31911e-21 0.000177928)
(0.000196277 -7.36468e-06 2.49419e-20 0.000153829 1.66658e-20 0.00017509)
(0.000193182 -3.27418e-06 4.61986e-20 0.00014968 2.09817e-20 0.000171408)
(0.000188922 9.66927e-07 1.04472e-21 0.00014599 5.18754e-21 0.00016744)
(0.000183529 5.17182e-06 8.79238e-20 0.000142934 3.6694e-20 0.000163227)
(0.000176899 9.07352e-06 -2.56874e-20 0.000140444 -2.49389e-20 0.000158678)
(0.000169234 1.22702e-05 -4.34509e-20 0.000138327 -1.33157e-20 0.000153779)
(0.000172836 -1.47819e-05 2.71246e-21 0.000144774 1.2716e-21 0.000158794)
(0.000172348 -1.2373e-05 -4.86424e-21 0.000140695 -2.85949e-21 0.000156529)
(0.000171474 -9.79133e-06 -1.91143e-21 0.000137059 -1.30445e-21 0.000154259)
(0.000170067 -6.65883e-06 -3.52925e-21 0.000133461 1.32108e-21 0.000151794)
(0.000167482 -3.13763e-06 3.49863e-20 0.000129852 1.32989e-20 0.000148646)
(0.000163961 5.22185e-07 -3.81772e-20 0.000126682 -1.9132e-20 0.000145309)
(0.000159507 4.17356e-06 4.01071e-21 0.000124086 3.00293e-21 0.000141796)
(0.000154019 7.58216e-06 1.54806e-20 0.00012201 -1.85662e-21 0.000138022)
(0.0001477 1.04049e-05 -1.1055e-19 0.00012032 -3.08905e-20 0.000134009)
(0.000140923 1.25025e-05 2.65472e-20 0.000118879 1.50756e-20 0.000129896)
(0.00015035 -1.30199e-05 -3.94364e-21 0.000126228 -1.49739e-21 0.000138281)
(0.000149885 -1.09505e-05 3.27608e-21 0.000122617 2.80737e-21 0.000136255)
(0.000149109 -8.72488e-06 2.20324e-20 0.000119395 1.12613e-20 0.000134245)
(0.000147917 -6.0245e-06 6.23e-21 0.000116231 1.34544e-22 0.0001321)
(0.000145747 -2.98022e-06 -2.64645e-20 0.000113077 -1.066e-20 0.000129393)
(0.000142822 1.92372e-07 2.46657e-20 0.00011034 1.25127e-20 0.000126571)
(0.000139109 3.37508e-06 -6.6911e-21 0.000108112 -1.80097e-21 0.000123612)
(0.000134532 6.3623e-06 6.15883e-20 0.000106361 2.29795e-20 0.000120452)
(0.000129284 8.85964e-06 2.02135e-20 0.000105 9.31008e-21 0.000117141)
(0.000123672 1.07433e-05 -1.2196e-20 0.000103901 -4.62468e-21 0.000113781)
(0.000131218 -1.15043e-05 4.046e-22 0.000110426 -7.17382e-23 0.000120816)
(0.00013079 -9.71913e-06 -9.99466e-22 0.000107226 -1.34539e-21 0.00011901)
(0.000130103 -7.79417e-06 -1.88133e-20 0.000104365 -1.06781e-20 0.000117228)
(0.000129082 -5.45595e-06 -3.06922e-20 0.000101566 -1.56878e-20 0.000115346)
(0.000127253 -2.812e-06 -3.77828e-20 9.87997e-05 -1.05494e-20 0.00011301)
(0.00012481 -5.13801e-08 5.46616e-20 9.64231e-05 2.01394e-20 0.000110608)
(0.00012169 2.73236e-06 -5.03791e-20 9.4493e-05 -2.11449e-20 0.000108095)
(0.000117846 5.35787e-06 1.2122e-20 9.3003e-05 9.83603e-21 0.00010543)
(0.000113462 7.57084e-06 3.02637e-20 9.18972e-05 9.42649e-21 0.000102678)
(0.000108784 9.26133e-06 2.10221e-20 9.1054e-05 7.97617e-21 9.9915e-05)
(0.000103931 1.04404e-05 1.98806e-20 9.0323e-05 5.55601e-21 9.71269e-05)
(0.000114857 -1.01938e-05 5.03495e-21 9.68909e-05 2.78082e-21 0.000105869)
(0.000114466 -8.64774e-06 7.78864e-21 9.40457e-05 4.23257e-21 0.000104257)
(0.000113859 -6.97724e-06 2.1581e-20 9.15016e-05 8.79268e-21 0.000102674)
(0.00011298 -4.94493e-06 -4.86839e-21 8.90173e-05 -2.32741e-21 0.000101016)
(0.000111431 -2.64001e-06 1.83101e-20 8.65794e-05 3.93339e-21 9.8991e-05)
(0.000109381 -2.29608e-07 -5.97351e-20 8.45067e-05 -2.09391e-20 9.69365e-05)
(0.00010674 2.21281e-06 5.15468e-20 8.28217e-05 2.78387e-20 9.47844e-05)
(0.000103493 4.52628e-06 6.98316e-20 8.15434e-05 1.74291e-20 9.25231e-05)
(9.98064e-05 6.48961e-06 -4.31229e-21 8.06345e-05 -6.42657e-21 9.02193e-05)
(9.588e-05 8.00669e-06 2.94571e-20 7.99832e-05 -3.41513e-22 8.79282e-05)
(9.18146e-05 9.0844e-06 2.09043e-20 7.94546e-05 4.6593e-21 8.5634e-05)
(0.000100798 -9.05453e-06 -6.02188e-21 8.52401e-05 -2.51685e-21 9.30153e-05)
(0.000100442 -7.71159e-06 7.155e-21 8.27049e-05 2.56254e-21 9.15733e-05)
(9.9905e-05 -6.25687e-06 -1.91584e-20 8.0436e-05 -9.29867e-21 9.01653e-05)
(9.91453e-05 -4.48496e-06 -1.56497e-20 7.82246e-05 -5.90857e-21 8.86993e-05)
(9.78306e-05 -2.46976e-06 -4.16732e-21 7.60711e-05 2.19991e-21 8.69389e-05)
(9.6096e-05 -3.57757e-07 6.21017e-20 7.425e-05 2.23772e-20 8.51679e-05)
(9.38517e-05 1.78994e-06 -7.31384e-21 7.27726e-05 -8.95954e-21 8.33153e-05)
(9.10933e-05 3.83374e-06 -4.95958e-20 7.16671e-05 -2.2557e-20 8.13841e-05)
(8.79756e-05 5.57874e-06 -4.1257e-20 7.09132e-05 -1.5899e-20 7.94435e-05)
(8.46596e-05 6.93893e-06 -1.40624e-19 7.0404e-05 -3.22489e-20 7.7529e-05)
(8.12349e-05 7.92109e-06 1.91666e-20 7.00252e-05 1.1463e-20 7.56298e-05)
(7.77986e-05 8.53924e-06 7.69129e-20 6.96593e-05 1.20783e-20 7.37276e-05)
(8.86633e-05 -8.05935e-06 3.78195e-21 7.51654e-05 1.65323e-21 8.19117e-05)
(8.83411e-05 -6.89002e-06 1.32824e-21 7.29033e-05 1.22024e-21 8.06217e-05)
(8.78655e-05 -5.61965e-06 2.28114e-20 7.0875e-05 1.01937e-20 7.93655e-05)
(8.72081e-05 -4.07047e-06 3.55958e-20 6.89025e-05 1.26177e-20 7.80671e-05)
(8.60904e-05 -2.3036e-06 -1.30504e-20 6.6996e-05 -8.58282e-21 7.65328e-05)
(8.46097e-05 -4.47552e-07 -5.20425e-20 6.53843e-05 -1.85185e-20 7.49933e-05)
(8.26942e-05 1.44521e-06 8.43957e-21 6.40832e-05 1.38762e-21 7.33918e-05)
(8.03411e-05 3.25384e-06 -5.87577e-20 6.31215e-05 -1.54373e-20 7.17348e-05)
(7.76878e-05 4.80679e-06 2.79648e-20 6.24872e-05 1.66583e-20 7.00869e-05)
(7.48716e-05 6.0268e-06 6.11678e-20 6.20855e-05 2.15926e-20 6.84763e-05)
(7.19692e-05 6.91971e-06 -3.65497e-20 6.18155e-05 -1.18157e-20 6.68919e-05)
(6.90632e-05 7.49669e-06 -5.43223e-20 6.15727e-05 -1.60642e-20 6.53162e-05)
(7.81494e-05 -7.18686e-06 -4.33858e-21 6.64199e-05 -1.18592e-21 7.22826e-05)
(7.78596e-05 -6.16632e-06 1.37747e-20 6.43984e-05 5.41515e-21 7.11282e-05)
(7.74378e-05 -5.05411e-06 -7.19597e-21 6.25818e-05 -3.30236e-21 7.00055e-05)
(7.68685e-05 -3.69663e-06 -5.55291e-21 6.08197e-05 -2.34528e-21 6.88539e-05)
(7.59151e-05 -2.14359e-06 -1.23431e-20 5.91268e-05 -5.90812e-21 6.75122e-05)
(7.46447e-05 -5.08702e-07 -3.77439e-20 5.76945e-05 -1.22422e-20 6.61667e-05)
(7.30008e-05 1.16332e-06 -2.2693e-20 5.6542e-05 -8.16827e-21 6.47743e-05)
(7.0985e-05 2.76709e-06 -2.19856e-21 5.57007e-05 4.01737e-21 6.33457e-05)
(6.87169e-05 4.15098e-06 2.5973e-20 5.51629e-05 1.32831e-20 6.1939e-05)
(6.63125e-05 5.24527e-06 2.71073e-20 5.4842e-05 6.86446e-21 6.05751e-05)
(6.38394e-05 6.05497e-06 6.04319e-20 5.46495e-05 7.9812e-21 5.92443e-05)
(6.13671e-05 6.58952e-06 -1.25967e-20 5.44922e-05 -6.69581e-21 5.79284e-05)
(6.90077e-05 -6.41911e-06 -3.29001e-21 5.88009e-05 -1.73435e-21 6.39031e-05)
(6.87501e-05 -5.527e-06 -2.01291e-20 5.6994e-05 -7.713e-21 6.28707e-05)
(6.83739e-05 -4.55098e-06 -1.26084e-20 5.53625e-05 -4.70953e-21 6.18646e-05)
(6.78801e-05 -3.35889e-06 -1.07551e-20 5.37857e-05 -3.83067e-21 6.08412e-05)
(6.70645e-05 -1.99074e-06 -8.23908e-21 5.22785e-05 -1.59156e-21 5.9664e-05)
(6.597e-05 -5.47712e-07 2.37557e-20 5.10013e-05 4.47013e-21 5.84838e-05)
(6.45543e-05 9.31924e-07 -1.06251e-19 4.99769e-05 -3.22295e-20 5.72682e-05)
(6.28202e-05 2.35631e-06 7.3388e-21 4.92363e-05 1.42737e-20 5.60309e-05)
(6.08717e-05 3.59066e-06 1.40691e-19 4.87745e-05 3.54543e-20 5.48226e-05)
(5.88082e-05 4.57249e-06 4.18097e-20 4.85141e-05 8.75294e-22 5.36593e-05)
(5.66878e-05 5.30611e-06 -1.05962e-19 4.83764e-05 -3.13475e-20 5.25318e-05)
(5.4576e-05 5.79928e-06 -7.96015e-20 4.8282e-05 -1.13649e-20 5.14276e-05)
(5.2519e-05 6.08e-06 1.55634e-20 4.81626e-05 9.06085e-21 5.03389e-05)
(6.10349e-05 -5.74164e-06 3.62079e-21 5.2143e-05 1.18917e-21 5.65881e-05)
(6.08073e-05 -4.96009e-06 -5.77758e-21 5.05257e-05 -1.54394e-21 5.56651e-05)
(6.04728e-05 -4.10248e-06 2.17395e-20 4.90601e-05 6.14524e-21 5.47629e-05)
(6.00432e-05 -3.05328e-06 -5.48672e-20 4.76459e-05 -2.08075e-20 5.38516e-05)
(5.93426e-05 -1.84566e-06 -4.16055e-20 4.63002e-05 -1.24287e-20 5.2815e-05)
(5.8396e-05 -5.69561e-07 -2.19681e-20 4.51579e-05 -3.74268e-21 5.17756e-05)
(5.71728e-05 7.42029e-07 5.02748e-20 4.42446e-05 2.17595e-20 5.07111e-05)
(5.56741e-05 2.00902e-06 6.54031e-20 4.35882e-05 1.12041e-20 4.96331e-05)
(5.39934e-05 3.11114e-06 -6.92823e-20 4.31882e-05 -2.27135e-20 4.85902e-05)
(5.22144e-05 3.99218e-06 5.6364e-20 4.29734e-05 1.35127e-20 4.75925e-05)
(5.03888e-05 4.65581e-06 5.5088e-21 4.28745e-05 6.26997e-21 4.66315e-05)
(4.85739e-05 5.10851e-06 -1.99817e-20 4.28208e-05 3.39199e-21 4.56963e-05)
(4.68104e-05 5.37487e-06 6.7548e-20 4.27524e-05 1.56497e-20 4.47797e-05)
(5.4063e-05 -5.14223e-06 -3.71027e-21 4.6309e-05 -1.54681e-21 5.01853e-05)
(5.38609e-05 -4.4562e-06 -7.99952e-21 4.48581e-05 -2.33486e-21 4.93582e-05)
(5.35664e-05 -3.70181e-06 1.49806e-20 4.35426e-05 6.22943e-21 4.85514e-05)
(5.31912e-05 -2.77668e-06 2.74556e-20 4.22717e-05 1.00434e-20 4.77373e-05)
(5.25881e-05 -1.70866e-06 4.37798e-20 4.10676e-05 1.49154e-20 4.68223e-05)
(5.17668e-05 -5.78678e-07 2.93543e-20 4.00437e-05 1.10122e-20 4.59043e-05)
(5.0706e-05 5.85922e-07 8.67488e-20 3.92263e-05 1.8876e-20 4.49683e-05)
(4.94063e-05 1.71392e-06 -1.30038e-19 3.86417e-05 -3.65089e-20 4.40259e-05)
(4.79494e-05 2.69894e-06 1.14542e-20 3.82907e-05 5.88659e-21 4.31195e-05)
(4.64084e-05 3.49014e-06 -2.45145e-20 3.81103e-05 -3.83161e-21 4.22581e-05)
(4.4829e-05 4.09001e-06 5.00769e-20 3.80381e-05 1.09364e-20 4.14333e-05)
(4.3263e-05 4.50445e-06 1.85373e-20 3.80128e-05 2.42749e-21 4.06367e-05)
(4.17453e-05 4.75479e-06 3.76309e-20 3.79798e-05 -3.90647e-23 3.9861e-05)
(4.02763e-05 4.87352e-06 1.73101e-20 3.7909e-05 -1.54147e-22 3.90918e-05)
(4.79508e-05 -4.61036e-06 3.66874e-21 4.11832e-05 1.50878e-21 4.45665e-05)
(4.77719e-05 -4.00764e-06 1.26271e-20 3.98807e-05 3.54014e-21 4.3825e-05)
(4.75127e-05 -3.34282e-06 -2.89347e-20 3.86985e-05 -9.31526e-21 4.31029e-05)
(4.71843e-05 -2.52599e-06 1.10716e-20 3.75548e-05 5.20412e-21 4.23747e-05)
(4.66643e-05 -1.58025e-06 3.58107e-20 3.64758e-05 1.01557e-20 4.15653e-05)
(4.595e-05 -5.78226e-07 -8.9075e-21 3.55562e-05 -5.2737e-21 4.07524e-05)
(4.50262e-05 4.57431e-07 -4.69087e-20 3.48218e-05 -1.08251e-20 3.99261e-05)
(4.38963e-05 1.46325e-06 1.02747e-19 3.42996e-05 2.76628e-20 3.90993e-05)
(4.26292e-05 2.34438e-06 -8.63763e-20 3.39893e-05 -2.2668e-20 3.83087e-05)
(4.12888e-05 3.0546e-06 7.05272e-20 3.38343e-05 1.88458e-20 3.75605e-05)
(3.9917e-05 3.59649e-06 -2.66593e-20 3.37804e-05 -1.2289e-20 3.68485e-05)
(3.85588e-05 3.97486e-06 -2.95484e-20 3.37724e-05 -5.59516e-21 3.61646e-05)
(3.72456e-05 4.20843e-06 -6.47693e-20 3.37615e-05 -1.10924e-20 3.55023e-05)
(3.59772e-05 4.32601e-06 6.71798e-21 3.37207e-05 2.09935e-21 3.48481e-05)
(4.25794e-05 -4.13737e-06 -2.02511e-23 3.66685e-05 -1.01621e-23 3.96238e-05)
(4.24227e-05 -3.6075e-06 3.26065e-21 3.54998e-05 7.08583e-22 3.896e-05)
(4.21943e-05 -3.02091e-06 -1.74255e-20 3.44359e-05 -4.919e-21 3.83126e-05)
(4.1906e-05 -2.29846e-06 3.18116e-20 3.3405e-05 9.24334e-21 3.76599e-05)
(4.14572e-05 -1.46001e-06 -4.12231e-20 3.24369e-05 -1.16931e-20 3.69431e-05)
(4.08346e-05 -5.70276e-07 5.19994e-20 3.16097e-05 1.68289e-20 3.62216e-05)
(4.0028e-05 3.51664e-07 4.81906e-20 3.09483e-05 1.05229e-20 3.54901e-05)
(3.90429e-05 1.24926e-06 -4.61348e-20 3.04798e-05 -1.48282e-20 3.47627e-05)
(3.79365e-05 2.038e-06 -5.91235e-21 3.02027e-05 2.91748e-21 3.40691e-05)
(3.67666e-05 2.67605e-06 6.56766e-21 3.00676e-05 -5.27751e-21 3.34162e-05)
(3.55699e-05 3.16539e-06 -3.42813e-20 3.00255e-05 -5.58669e-21 3.27975e-05)
(3.43876e-05 3.51018e-06 4.41539e-20 3.0028e-05 1.00317e-20 3.22069e-05)
(3.32469e-05 3.72683e-06 2.78691e-20 3.00311e-05 9.96085e-21 3.16378e-05)
(3.21478e-05 3.84112e-06 3.86892e-21 3.00102e-05 -4.49171e-21 3.10781e-05)
(3.78499e-05 -3.7161e-06 -6.4552e-22 3.26845e-05 -2.63998e-22 3.52672e-05)
(3.77135e-05 -3.24972e-06 2.78116e-21 3.16351e-05 8.11356e-22 3.4673e-05)
(3.75125e-05 -2.73165e-06 -1.04224e-21 3.06774e-05 -8.57684e-22 3.40927e-05)
(3.72592e-05 -2.09201e-06 -1.83645e-20 2.97472e-05 -6.62156e-21 3.3507e-05)
(3.68709e-05 -1.34776e-06 -4.36507e-20 2.88772e-05 -1.28176e-20 3.28708e-05)
(3.63273e-05 -5.5678e-07 -3.03674e-20 2.8132e-05 -8.98191e-21 3.22292e-05)
(3.56209e-05 2.64759e-07 -5.18628e-20 2.75349e-05 -1.42608e-20 3.15796e-05)
(3.47596e-05 1.06677e-06 2.05741e-20 2.71132e-05 6.57564e-21 3.09376e-05)
(3.37916e-05 1.77312e-06 1.01177e-20 2.68646e-05 9.73268e-22 3.03277e-05)
(3.27671e-05 2.34643e-06 -1.05997e-19 2.67447e-05 -2.04909e-20 2.97551e-05)
(3.17194e-05 2.78808e-06 -2.02143e-20 2.67098e-05 9.55546e-22 2.92144e-05)
(3.06856e-05 3.10172e-06 -4.35002e-20 2.67172e-05 -8.25561e-21 2.87006e-05)
(2.96907e-05 3.3018e-06 7.63699e-20 2.6728e-05 1.05316e-20 2.82083e-05)
(2.8735e-05 3.41141e-06 -7.90264e-20 2.67201e-05 -1.22623e-20 2.77269e-05)
(2.7811e-05 3.44893e-06 -3.22126e-20 2.66784e-05 -3.24072e-21 2.72444e-05)
(3.36783e-05 -3.34022e-06 3.83259e-21 2.91623e-05 1.43816e-21 3.14204e-05)
(3.35589e-05 -2.92929e-06 1.32788e-20 2.82187e-05 4.3218e-21 3.08876e-05)
(3.33829e-05 -2.47134e-06 2.38577e-20 2.73565e-05 7.37373e-21 3.03676e-05)
(3.31607e-05 -1.90444e-06 2.37288e-20 2.65171e-05 7.24973e-21 2.98422e-05)
(3.2824e-05 -1.2432e-06 3.67786e-20 2.5734e-05 1.05969e-20 2.92762e-05)
(3.23487e-05 -5.39236e-07 3.59075e-20 2.5062e-05 6.97408e-21 2.8705e-05)
(3.17298e-05 1.93438e-07 -9.13598e-20 2.45226e-05 -2.38373e-20 2.81277e-05)
(3.09743e-05 9.10518e-07 -4.5381e-20 2.41414e-05 -6.95783e-21 2.75589e-05)
(3.01249e-05 1.54362e-06 6.29442e-20 2.39168e-05 1.55363e-20 2.70204e-05)
(2.92249e-05 2.05887e-06 1.23975e-19 2.38086e-05 3.04463e-20 2.65161e-05)
(2.83046e-05 2.45739e-06 6.02905e-20 2.3778e-05 9.32812e-21 2.60411e-05)
(2.73977e-05 2.74234e-06 -1.08955e-20 2.37872e-05 -2.61888e-21 2.55916e-05)
(2.65264e-05 2.92649e-06 -2.49217e-20 2.38012e-05 -6.16074e-21 2.51628e-05)
(2.56917e-05 3.03045e-06 9.43068e-20 2.38005e-05 1.71172e-20 2.47454e-05)
(2.48871e-05 3.07094e-06 -1.65597e-20 2.37722e-05 -3.68385e-21 2.43293e-05)
(2.99919e-05 -3.00417e-06 3.1202e-21 2.60423e-05 8.23052e-22 2.80172e-05)
(2.98875e-05 -2.64188e-06 -2.62513e-21 2.51932e-05 -1.08355e-21 2.75393e-05)
(2.97342e-05 -2.23683e-06 -9.30452e-21 2.44173e-05 -2.85934e-21 2.70738e-05)
(2.95397e-05 -1.73405e-06 -9.03608e-21 2.36597e-05 -4.3466e-21 2.66025e-05)
(2.92466e-05 -1.14592e-06 -9.86632e-20 2.29534e-05 -2.68083e-20 2.60977e-05)
(2.88309e-05 -5.19006e-07 -1.83801e-20 2.23471e-05 -1.76243e-21 2.55887e-05)
(2.8288e-05 1.35096e-07 4.89288e-20 2.18595e-05 1.42914e-20 2.50751e-05)
(2.76241e-05 7.7667e-07 4.27801e-20 2.1514e-05 8.75383e-21 2.457e-05)
(2.68769e-05 1.34439e-06 -1.01841e-19 2.13101e-05 -2.21847e-20 2.40931e-05)
(2.60842e-05 1.80763e-06 1.59764e-20 2.12113e-05 -1.6262e-22 2.36471e-05)
(2.52738e-05 2.16725e-06 -9.73723e-21 2.11832e-05 -1.86148e-21 2.32283e-05)
(2.44759e-05 2.42582e-06 2.19946e-21 2.1192e-05 2.17513e-21 2.28332e-05)
(2.37103e-05 2.59477e-06 -2.9388e-20 2.12062e-05 -2.95514e-21 2.24575e-05)
(2.29788e-05 2.69267e-06 -5.49432e-20 2.12093e-05 -1.24543e-20 2.20934e-05)
(2.22753e-05 2.73444e-06 4.28342e-22 2.11889e-05 3.10605e-22 2.17317e-05)
(2.67291e-05 -2.70337e-06 -8.7291e-22 2.32743e-05 -1.88009e-22 2.50019e-05)
(2.66386e-05 -2.38385e-06 9.01191e-21 2.25104e-05 2.55514e-21 2.45734e-05)
(2.65052e-05 -2.0253e-06 8.56377e-21 2.18116e-05 2.25721e-21 2.41566e-05)
(2.63356e-05 -1.57907e-06 3.01982e-21 2.11279e-05 7.16067e-22 2.37342e-05)
(2.60798e-05 -1.05549e-06 1.24127e-20 2.049e-05 5.52503e-21 2.32831e-05)
(2.57162e-05 -4.96791e-07 8.05791e-20 1.99429e-05 1.91792e-20 2.28293e-05)
(2.52394e-05 8.75882e-08 -4.68358e-20 1.95017e-05 -1.27739e-20 2.23718e-05)
(2.46552e-05 6.61926e-07 3.20521e-20 1.91882e-05 1.18908e-20 2.19224e-05)
(2.39963e-05 1.17129e-06 1.12304e-19 1.90021e-05 2.16943e-20 2.14989e-05)
(2.32968e-05 1.58786e-06 -8.391e-20 1.8911e-05 -1.72852e-20 2.11034e-05)
(2.25811e-05 1.91223e-06 6.79459e-20 1.88839e-05 1.37722e-20 2.07324e-05)
(2.18769e-05 2.14679e-06 4.75963e-20 1.88908e-05 5.59194e-21 2.03831e-05)
(2.12028e-05 2.30152e-06 8.20848e-20 1.89042e-05 1.23654e-20 2.00527e-05)
(2.05599e-05 2.39312e-06 -8.31205e-21 1.89085e-05 -1.39608e-21 1.97337e-05)
(1.99431e-05 2.43503e-06 -3.43236e-20 1.88931e-05 -4.13755e-21 1.94177e-05)
(1.93485e-05 2.43742e-06 -4.06741e-20 1.88505e-05 -3.69265e-21 1.9099e-05)
(2.3838e-05 -2.43384e-06 9.92917e-22 2.08155e-05 -6.69989e-25 2.2327e-05)
(2.37596e-05 -2.15188e-06 -2.26034e-20 2.01278e-05 -5.89229e-21 2.19426e-05)
(2.36436e-05 -1.83435e-06 2.76725e-20 1.94982e-05 7.62089e-21 2.15694e-05)
(2.34961e-05 -1.43806e-06 -8.78946e-21 1.88812e-05 -1.64468e-21 2.11908e-05)
(2.32733e-05 -9.71705e-07 7.34167e-20 1.83052e-05 1.81827e-20 2.07877e-05)
(2.29548e-05 -4.73393e-07 -4.87948e-20 1.78109e-05 -1.34227e-20 2.03826e-05)
(2.25357e-05 4.89789e-08 7.69013e-21 1.74114e-05 4.64528e-21 1.99746e-05)
(2.20211e-05 5.63485e-07 1.18491e-19 1.71266e-05 2.14782e-20 1.95745e-05)
(2.14392e-05 1.02072e-06 -1.35471e-19 1.69564e-05 -2.98404e-20 1.91975e-05)
(2.08205e-05 1.39545e-06 5.56496e-20 1.68718e-05 1.44278e-20 1.88457e-05)
(2.01873e-05 1.68804e-06 -8.49231e-20 1.6845e-05 -2.0744e-20 1.85159e-05)
(1.95648e-05 1.90064e-06 -1.06498e-19 1.68497e-05 -1.91675e-20 1.82067e-05)
(1.89689e-05 2.04198e-06 -5.50445e-20 1.68603e-05 -9.96023e-21 1.7914e-05)
(1.84018e-05 2.12728e-06 1.99222e-20 1.68641e-05 5.98345e-21 1.76325e-05)
(1.78604e-05 2.16865e-06 5.52166e-20 1.68522e-05 8.04865e-21 1.7356e-05)
(1.73391e-05 2.17508e-06 2.47373e-20 1.68164e-05 5.10824e-21 1.70773e-05)
(2.12051e-05 -1.94312e-06 -7.98688e-21 1.8009e-05 -2.29469e-21 1.96061e-05)
(2.11048e-05 -1.66183e-06 -9.02937e-21 1.7442e-05 -2.34691e-21 1.92719e-05)
(2.09765e-05 -1.30964e-06 -3.45374e-21 1.68849e-05 -1.65707e-21 1.89326e-05)
(2.07826e-05 -8.94037e-07 -5.3533e-20 1.63647e-05 -1.20944e-20 1.85723e-05)
(2.05036e-05 -4.49341e-07 8.64565e-20 1.5918e-05 2.09454e-20 1.82106e-05)
(2.01351e-05 1.78744e-08 -3.56094e-20 1.55561e-05 -1.19202e-20 1.78466e-05)
(1.96813e-05 4.79039e-07 -1.53193e-19 1.52972e-05 -3.28365e-20 1.74899e-05)
(1.9167e-05 8.8955e-07 1.33363e-19 1.51413e-05 3.34011e-20 1.71539e-05)
(1.86191e-05 1.22676e-06 1.90522e-20 1.50624e-05 3.3202e-22 1.68404e-05)
(1.80578e-05 1.49068e-06 4.13287e-20 1.50355e-05 1.3455e-20 1.65465e-05)
(1.75059e-05 1.68335e-06 4.86879e-20 1.50374e-05 1.07216e-20 1.62711e-05)
(1.69786e-05 1.8124e-06 -4.66944e-21 1.50456e-05 2.74386e-21 1.60115e-05)
(1.64777e-05 1.89145e-06 1.08111e-20 1.5048e-05 -6.11422e-22 1.57624e-05)
(1.60002e-05 1.9316e-06 -5.70753e-20 1.50372e-05 -9.2983e-21 1.55184e-05)
(1.55422e-05 1.94097e-06 3.11198e-20 1.50065e-05 3.29911e-21 1.5274e-05)
(1.50942e-05 1.92593e-06 -5.85815e-20 1.49533e-05 -8.57551e-21 1.50236e-05)
(1.89359e-05 -1.75508e-06 -5.73677e-21 1.61227e-05 -1.2987e-21 1.75284e-05)
(1.88497e-05 -1.50584e-06 1.46983e-20 1.56121e-05 3.25258e-21 1.72296e-05)
(1.87383e-05 -1.19273e-06 -4.39472e-20 1.5109e-05 -1.10528e-20 1.69253e-05)
(1.85696e-05 -8.22106e-07 1.15002e-20 1.4639e-05 2.32168e-21 1.66032e-05)
(1.83255e-05 -4.25078e-07 -8.25917e-20 1.42355e-05 -1.98284e-20 1.62803e-05)
(1.80015e-05 -6.96875e-09 1.8949e-20 1.39077e-05 5.2703e-21 1.59554e-05)
(1.7601e-05 4.06565e-07 5.52118e-21 1.36722e-05 3.42274e-21 1.56371e-05)
(1.71461e-05 7.7535e-07 -6.92191e-21 1.35293e-05 -4.67112e-21 1.53375e-05)
(1.66603e-05 1.07885e-06 -1.96256e-20 1.34557e-05 -2.03386e-21 1.50576e-05)
(1.61623e-05 1.31695e-06 1.07004e-19 1.34288e-05 1.79083e-20 1.47953e-05)
(1.56724e-05 1.49144e-06 -1.26224e-20 1.3428e-05 -4.47775e-21 1.45497e-05)
(1.52048e-05 1.60907e-06 9.56139e-20 1.34331e-05 1.34047e-20 1.43184e-05)
(1.47611e-05 1.68218e-06 -3.03708e-20 1.34337e-05 -5.56718e-21 1.4097e-05)
(1.43394e-05 1.72073e-06 3.37438e-20 1.34233e-05 7.25361e-21 1.3881e-05)
(1.39362e-05 1.73216e-06 -2.69536e-20 1.33964e-05 -5.15482e-21 1.3666e-05)
(1.35427e-05 1.72214e-06 4.44976e-20 1.33498e-05 8.75325e-21 1.34461e-05)
(1.6918e-05 -1.5856e-06 -2.82401e-20 1.44414e-05 -7.11301e-21 1.56789e-05)
(1.68442e-05 -1.36464e-06 -3.53015e-21 1.39815e-05 1.62607e-22 1.54118e-05)
(1.6748e-05 -1.08618e-06 7.13174e-20 1.35275e-05 1.74689e-20 1.51392e-05)
(1.66015e-05 -7.55571e-07 6.1751e-22 1.31028e-05 -1.28404e-22 1.48513e-05)
(1.63882e-05 -4.00892e-07 5.16771e-20 1.27384e-05 1.16718e-20 1.45631e-05)
(1.61033e-05 -2.65861e-08 -6.02095e-20 1.24416e-05 -1.43847e-20 1.42732e-05)
(1.57501e-05 3.44341e-07 8.27235e-21 1.22276e-05 3.02218e-21 1.39893e-05)
(1.53472e-05 6.75769e-07 -2.45647e-20 1.20964e-05 -3.43925e-21 1.37216e-05)
(1.49162e-05 9.48968e-07 2.12264e-20 1.20276e-05 2.8376e-21 1.34716e-05)
(1.44738e-05 1.1638e-06 -5.68594e-20 1.20008e-05 -1.56801e-20 1.32372e-05)
(1.40383e-05 1.32181e-06 -3.01546e-20 1.19974e-05 -2.5616e-21 1.30175e-05)
(1.36231e-05 1.429e-06 -1.06902e-19 1.19999e-05 -1.80094e-20 1.2811e-05)
(1.32299e-05 1.49648e-06 3.06016e-20 1.1999e-05 7.31464e-21 1.26141e-05)
(1.28567e-05 1.53318e-06 1.47501e-20 1.19883e-05 9.66144e-22 1.24222e-05)
(1.25009e-05 1.54594e-06 -1.11939e-20 1.19638e-05 -1.7813e-22 1.22321e-05)
(1.21552e-05 1.53993e-06 -1.36603e-20 1.1923e-05 -1.83329e-21 1.20389e-05)
(1.51219e-05 -1.43271e-06 2.02973e-20 1.29414e-05 5.34722e-21 1.40309e-05)
(1.5059e-05 -1.23678e-06 3.3537e-20 1.25273e-05 7.72082e-21 1.37921e-05)
(1.49763e-05 -9.89075e-07 -3.0129e-20 1.21175e-05 -8.57265e-21 1.35481e-05)
(1.48494e-05 -6.94084e-07 -7.9948e-20 1.17341e-05 -1.77804e-20 1.3291e-05)
(1.46631e-05 -3.77123e-07 7.15085e-21 1.14049e-05 1.59094e-21 1.30339e-05)
(1.4413e-05 -4.18836e-08 -1.63897e-20 1.11363e-05 -2.44037e-21 1.27753e-05)
(1.41015e-05 2.91011e-07 5.02682e-20 1.09419e-05 1.15658e-20 1.25221e-05)
(1.37448e-05 5.88951e-07 6.94521e-20 1.08218e-05 1.23452e-20 1.2283e-05)
(1.33623e-05 8.34954e-07 -4.44654e-20 1.07576e-05 -8.55836e-21 1.20596e-05)
(1.2969e-05 1.02885e-06 -6.68381e-20 1.07311e-05 -8.5618e-21 1.18499e-05)
(1.25818e-05 1.1719e-06 1.30343e-19 1.07257e-05 2.26397e-20 1.16534e-05)
(1.22127e-05 1.26949e-06 6.66126e-20 1.07258e-05 1.23389e-20 1.14688e-05)
(1.18634e-05 1.33162e-06 -1.94888e-20 1.07229e-05 -6.20065e-21 1.12928e-05)
(1.15328e-05 1.36642e-06 7.83575e-21 1.07122e-05 8.43563e-22 1.11222e-05)
(1.12187e-05 1.37997e-06 5.68438e-20 1.06896e-05 8.99004e-21 1.09539e-05)
(1.09142e-05 1.37708e-06 5.01719e-20 1.06532e-05 7.17667e-21 1.07837e-05)
(1.06136e-05 1.36059e-06 7.7301e-21 1.06009e-05 6.9827e-22 1.06071e-05)
(1.35218e-05 -1.29468e-06 -4.8622e-21 1.16018e-05 -1.41815e-21 1.25611e-05)
(1.34684e-05 -1.12094e-06 -3.78362e-20 1.12289e-05 -8.89875e-21 1.23478e-05)
(1.33977e-05 -9.00528e-07 5.60615e-21 1.08594e-05 2.8497e-21 1.21297e-05)
(1.32882e-05 -6.37219e-07 1.21744e-19 1.05133e-05 2.65303e-20 1.19001e-05)
(1.31259e-05 -3.53852e-07 -9.22479e-20 1.02162e-05 -2.10944e-20 1.16709e-05)
(1.29066e-05 -5.35335e-08 8.23967e-21 9.97333e-06 2.64244e-21 1.14406e-05)
(1.26319e-05 2.45284e-07 -4.17583e-21 9.79677e-06 -1.1653e-21 1.12147e-05)
(1.23163e-05 5.132e-07 -4.57439e-20 9.68701e-06 -7.35419e-21 1.10015e-05)
(1.19769e-05 7.3476e-07 1.26604e-19 9.62729e-06 2.22876e-20 1.08018e-05)
(1.16273e-05 9.09825e-07 7.57183e-21 9.60145e-06 -2.60687e-21 1.06143e-05)
(1.12828e-05 1.03932e-06 -1.26138e-19 9.59445e-06 -2.37404e-20 1.04382e-05)
(1.09545e-05 1.12819e-06 3.2583e-20 9.59254e-06 4.59267e-21 1.02731e-05)
(1.06443e-05 1.18532e-06 -5.95958e-20 9.58826e-06 -9.59262e-21 1.0116e-05)
(1.03511e-05 1.21811e-06 -5.50539e-20 9.57724e-06 -8.98841e-21 9.96399e-06)
(1.00733e-05 1.23207e-06 -2.55565e-20 9.55614e-06 -4.39632e-21 9.81446e-06)
(9.8048e-06 1.23162e-06 9.26383e-21 9.52363e-06 5.62923e-22 9.66416e-06)
(9.54076e-06 1.21931e-06 7.04749e-21 9.47746e-06 5.78645e-22 9.50896e-06)
(1.20952e-05 -1.17004e-06 -1.34533e-20 1.04047e-05 -2.90542e-21 1.12493e-05)
(1.20502e-05 -1.01593e-06 2.43063e-20 1.00689e-05 5.87644e-21 1.10588e-05)
(1.19902e-05 -8.19775e-07 1.69196e-20 9.73581e-06 2.27644e-21 1.0864e-05)
(1.18962e-05 -5.84721e-07 -1.32432e-19 9.4236e-06 -2.87063e-20 1.06594e-05)
(1.17551e-05 -3.31346e-07 9.59222e-20 9.15564e-06 2.21153e-20 1.04553e-05)
(1.1563e-05 -6.21941e-08 -3.43946e-20 8.93618e-06 -6.39399e-21 1.02501e-05)
(1.13211e-05 2.06167e-07 1.07978e-19 8.7762e-06 2.18129e-20 1.00489e-05)
(1.1042e-05 4.47156e-07 7.63207e-20 8.67603e-06 1.13993e-20 9.85882e-06)
(1.07409e-05 6.46777e-07 -1.90197e-19 8.62083e-06 -3.68662e-20 9.68067e-06)
(1.04302e-05 8.04818e-07 -8.74055e-20 8.59582e-06 -1.28582e-20 9.51292e-06)
(1.01239e-05 9.22078e-07 3.65077e-20 8.58777e-06 9.3925e-21 9.35547e-06)
(9.83176e-06 1.00296e-06 -1.3909e-20 8.58432e-06 -3.11998e-21 9.2077e-06)
(9.55586e-06 1.05545e-06 4.33542e-20 8.5788e-06 9.23714e-21 9.06707e-06)
(9.29594e-06 1.08628e-06 -3.4182e-20 8.56785e-06 -4.21554e-21 8.93168e-06)
(9.05016e-06 1.10038e-06 -1.15874e-20 8.54827e-06 -1.61082e-21 8.79902e-06)
(8.81341e-06 1.10176e-06 -7.66281e-21 8.51885e-06 -2.15147e-22 8.66606e-06)
(8.58111e-06 1.09283e-06 -7.46784e-21 8.47798e-06 -1.49234e-21 8.52944e-06)
(1.08224e-05 -1.05741e-06 1.16717e-21 9.33397e-06 5.11476e-22 1.00776e-05)
(1.07848e-05 -9.20722e-07 2.83806e-20 9.0317e-06 6.20498e-21 9.90758e-06)
(1.07342e-05 -7.46115e-07 -3.13446e-20 8.73148e-06 -6.57711e-21 9.73366e-06)
(1.06539e-05 -5.36247e-07 7.15328e-20 8.45015e-06 1.58185e-20 9.5516e-06)
(1.05317e-05 -3.09601e-07 -3.69068e-20 8.20868e-06 -8.37355e-21 9.37009e-06)
(1.03638e-05 -6.83293e-08 5.61587e-20 8.01066e-06 1.09233e-20 9.1877e-06)
(1.01512e-05 1.72715e-07 -1.0215e-19 7.86591e-06 -2.2746e-20 9.00879e-06)
(9.90463e-06 3.89534e-07 -1.11429e-20 7.77485e-06 -1.82314e-21 8.83955e-06)
(9.63772e-06 5.69461e-07 1.58441e-19 7.72401e-06 3.31424e-20 8.68068e-06)
(9.36164e-06 7.12149e-07 -8.6762e-21 7.70009e-06 5.17839e-24 8.53077e-06)
(9.08923e-06 8.18357e-07 -2.32471e-20 7.69143e-06 -3.73005e-21 8.39002e-06)
(8.82945e-06 8.91977e-07 -6.60609e-21 7.68694e-06 3.64939e-22 8.25791e-06)
(8.58437e-06 9.40179e-07 5.72069e-20 7.68075e-06 9.13309e-21 8.13234e-06)
(8.3537e-06 9.69049e-07 3.40885e-20 7.66983e-06 5.36282e-21 8.0116e-06)
(8.13611e-06 9.83071e-07 -3.59174e-20 7.65161e-06 -5.83784e-21 7.89369e-06)
(7.92729e-06 9.85878e-07 5.43609e-20 7.62511e-06 8.48211e-21 7.77612e-06)
(7.72299e-06 9.79681e-07 9.41233e-21 7.589e-06 1.14471e-21 7.65591e-06)
(7.51899e-06 9.65799e-07 -4.60624e-20 7.54193e-06 -5.78284e-21 7.5304e-06)
(9.68597e-06 -9.55583e-07 -3.42316e-21 8.37551e-06 -1.08052e-21 9.0302e-06)
(9.65486e-06 -8.34358e-07 -4.35636e-20 8.10358e-06 -9.51102e-21 8.87865e-06)
(9.61254e-06 -6.78915e-07 1.01372e-20 7.83314e-06 2.60935e-21 8.72357e-06)
(9.54453e-06 -4.91521e-07 7.17209e-21 7.57988e-06 7.8483e-22 8.56186e-06)
(9.43913e-06 -2.88756e-07 -4.48271e-20 7.36256e-06 -9.19336e-21 8.40076e-06)
(9.29276e-06 -7.24241e-08 -4.60097e-20 7.18406e-06 -8.96861e-21 8.23881e-06)
(9.10611e-06 1.44149e-07 -4.91799e-20 7.05338e-06 -9.87102e-21 8.07998e-06)
(8.88871e-06 3.3929e-07 -1.17522e-19 6.97092e-06 -2.05857e-20 7.92966e-06)
(8.65235e-06 5.01492e-07 5.7481e-20 6.92437e-06 9.77414e-21 7.7882e-06)
(8.40739e-06 6.30373e-07 1.15702e-19 6.90194e-06 1.84646e-20 7.65456e-06)
(8.16529e-06 7.26617e-07 4.14393e-20 6.89311e-06 5.31806e-21 7.5289e-06)
(7.93429e-06 7.93604e-07 5.2649e-21 6.88791e-06 1.42742e-22 7.41081e-06)
(7.7166e-06 8.37864e-07 1.90465e-20 6.88141e-06 1.13625e-21 7.29881e-06)
(7.51199e-06 8.64841e-07 3.31594e-20 6.87079e-06 4.10781e-21 7.19122e-06)