/*--------------------------------*- C++ -*----------------------------------*\
| =========                 |                                                 |
| \\      /  F ield         | OpenFOAM: The Open Source CFD Toolbox           |
|  \\    /   O peration     | Version:  2306                                  |
|   \\  /    A nd           | Website:  www.openfoam.com                      |
|    \\/     M anipulation  |                                                 |
\*---------------------------------------------------------------------------*/
FoamFile
{
    version     2.0;
    format      ascii;
    arch        "LSB;label=32;scalar=64";
    class       volSymmTensorField;
    location    "225";
    object      turbulenceProperties:devReff;
}
// * * * * * * * * * * * * * * * * * * * * * * * * * * * * * * * * * * * * * //

dimensions      [0 2 -2 0 0 0 0];

internalField   nonuniform List<symmTensor> 
1340
(
(8.38883e-05 -7.87571e-05 -3.00805e-21 -8.38201e-05 -1.15946e-21 -6.81418e-08)
(9.38956e-05 -6.40376e-05 2.26004e-20 -9.39863e-05 2.24731e-20 9.06501e-08)
(0.000101241 -4.84199e-05 4.96474e-20 -0.000101206 2.82524e-20 -3.4539e-08)
(0.000106295 -2.94183e-05 -7.91439e-20 -0.000106435 -8.78883e-20 1.39684e-07)
(0.000107604 -8.44526e-06 -1.11354e-19 -0.000107584 -9.4356e-20 -1.98018e-08)
(7.0497e-05 -6.76255e-05 1.04169e-20 -7.04526e-05 9.18365e-21 -4.43909e-08)
(7.89621e-05 -5.53633e-05 2.97643e-20 -7.90272e-05 1.57689e-20 6.50518e-08)
(8.52651e-05 -4.23216e-05 -6.97782e-20 -8.52401e-05 -4.91436e-20 -2.50606e-08)
(8.97465e-05 -2.64805e-05 1.00753e-20 -8.98633e-05 1.79977e-20 1.1681e-07)
(9.11693e-05 -8.91997e-06 1.05359e-19 -9.11416e-05 4.16919e-20 -2.76687e-08)
(8.8797e-05 9.11214e-06 -7.82646e-20 -8.87478e-05 -9.29683e-20 -4.92399e-08)
(5.96097e-05 -5.84719e-05 -5.32591e-21 -5.95735e-05 -4.93793e-21 -3.62333e-08)
(6.68381e-05 -4.81726e-05 -2.22905e-20 -6.68781e-05 -1.48214e-20 4.00238e-08)
(7.22843e-05 -3.71876e-05 -3.13978e-21 -7.22627e-05 4.87569e-22 -2.16299e-08)
(7.62752e-05 -2.38618e-05 4.13077e-20 -7.63692e-05 2.71284e-20 9.39635e-08)
(7.77448e-05 -9.02985e-06 -2.4949e-20 -7.77097e-05 -2.00824e-21 -3.51048e-08)
(7.60768e-05 6.24578e-06 9.12147e-20 -7.6034e-05 7.04807e-20 -4.2772e-08)
(7.11047e-05 2.11894e-05 1.52028e-19 -7.10742e-05 6.69341e-20 -3.05148e-08)
(5.06515e-05 -5.08476e-05 6.98042e-21 -5.06251e-05 4.91217e-21 -2.64382e-08)
(5.68822e-05 -4.21345e-05 9.82811e-21 -5.69089e-05 6.86171e-21 2.67227e-08)
(6.16222e-05 -3.28215e-05 2.61592e-20 -6.16029e-05 8.93801e-21 -1.92581e-08)
(6.51866e-05 -2.15254e-05 -7.14155e-20 -6.52654e-05 -4.84858e-20 7.87705e-08)
(6.66623e-05 -8.91116e-06 -3.54373e-20 -6.6623e-05 -2.60225e-20 -3.92625e-08)
(6.55128e-05 4.12517e-06 -8.86717e-20 -6.54781e-05 -5.49465e-20 -3.46781e-08)
(6.16053e-05 1.69718e-05 -1.08883e-19 -6.15866e-05 -2.97588e-20 -1.86864e-08)
(5.49185e-05 2.87953e-05 9.17089e-20 -5.49327e-05 1.74412e-20 1.41052e-08)
(4.32287e-05 -4.44409e-05 7.55643e-21 -4.32055e-05 3.91497e-21 -2.31724e-08)
(4.86371e-05 -3.70157e-05 1.59767e-21 -4.86573e-05 9.89141e-23 2.01446e-08)
(5.27897e-05 -2.90781e-05 -2.1355e-20 -5.27707e-05 -6.11979e-21 -1.8984e-08)
(5.59812e-05 -1.94365e-05 6.58254e-20 -5.60456e-05 4.39837e-20 6.43764e-08)
(5.74314e-05 -8.64221e-06 1.21941e-19 -5.73914e-05 5.53812e-20 -3.9983e-08)
(5.6668e-05 2.552e-06 2.75732e-21 -5.66403e-05 1.36914e-20 -2.7715e-08)
(5.35739e-05 1.36495e-05 2.32049e-19 -5.35665e-05 9.68431e-20 -7.45934e-09)
(4.81018e-05 2.39479e-05 -6.77971e-20 -4.81143e-05 -6.58215e-20 1.24527e-08)
(4.07896e-05 3.23866e-05 -1.14686e-19 -4.07867e-05 -3.5146e-20 -2.91424e-09)
(3.70343e-05 -3.90052e-05 7.1574e-21 -3.70154e-05 3.35539e-21 -1.89103e-08)
(4.17544e-05 -3.26482e-05 -1.28351e-20 -4.17668e-05 -7.54523e-21 1.24319e-08)
(4.54138e-05 -2.58378e-05 -5.04398e-21 -4.54001e-05 -3.44225e-21 -1.3766e-08)
(4.82777e-05 -1.75736e-05 -9.31422e-21 -4.83308e-05 3.48652e-21 5.30534e-08)
(4.96812e-05 -8.28181e-06 9.23468e-20 -4.96443e-05 3.51026e-20 -3.68708e-08)
(4.92078e-05 1.37822e-06 -1.00762e-19 -4.91851e-05 -5.04958e-20 -2.26753e-08)
(4.67432e-05 1.10151e-05 1.05853e-20 -4.67421e-05 7.92554e-21 -1.11324e-09)
(4.22367e-05 2.0012e-05 4.08588e-20 -4.2249e-05 -4.90029e-21 1.23132e-08)
(3.61356e-05 2.74635e-05 -2.91795e-19 -3.61333e-05 -8.15352e-20 -2.33835e-09)
(2.90988e-05 3.30013e-05 7.00729e-20 -2.90892e-05 3.97932e-20 -9.60376e-09)
(3.18326e-05 -3.43567e-05 -1.04064e-20 -3.18188e-05 -3.95129e-21 -1.37976e-08)
(3.59726e-05 -2.88952e-05 8.64462e-21 -3.59789e-05 7.40783e-21 6.38397e-09)
(3.9211e-05 -2.30237e-05 5.81404e-20 -3.91988e-05 2.97171e-20 -1.22424e-08)
(4.17893e-05 -1.58995e-05 1.64419e-20 -4.18343e-05 3.55082e-22 4.50185e-08)
(4.31329e-05 -7.86631e-06 -6.98533e-20 -4.30986e-05 -2.81371e-20 -3.43192e-08)
(4.28753e-05 5.07742e-07 6.5102e-20 -4.2857e-05 3.30257e-20 -1.82706e-08)
(4.0904e-05 8.90788e-06 -1.76599e-20 -4.09072e-05 -4.75331e-21 3.23861e-09)
(3.71717e-05 1.67927e-05 1.62556e-19 -3.71817e-05 6.0652e-20 1.00257e-08)
(3.20501e-05 2.33852e-05 5.33541e-20 -3.20485e-05 2.45742e-20 -1.61657e-09)
(2.60994e-05 2.83581e-05 -3.21927e-20 -2.60902e-05 -1.22073e-20 -9.17546e-09)
(2.74388e-05 -3.03583e-05 1.06769e-21 -2.74287e-05 -1.89308e-22 -1.00723e-08)
(3.10891e-05 -2.56465e-05 -2.63735e-21 -3.10924e-05 -3.55017e-21 3.33249e-09)
(3.39648e-05 -2.05678e-05 -4.9646e-20 -3.39539e-05 -2.81782e-20 -1.0907e-08)
(3.62896e-05 -1.4399e-05 -8.10009e-20 -3.63274e-05 -4.14022e-20 3.77618e-08)
(3.75665e-05 -7.42228e-06 -9.97276e-20 -3.75368e-05 -2.78452e-20 -2.96656e-08)
(3.747e-05 -1.35613e-07 1.44274e-19 -3.74547e-05 5.31558e-20 -1.53572e-08)
(3.58882e-05 7.21168e-06 -1.32968e-19 -3.58945e-05 -5.58088e-20 6.3073e-09)
(3.27815e-05 1.41418e-05 3.19953e-20 -3.27905e-05 2.59616e-20 9.04306e-09)
(2.84618e-05 1.99837e-05 7.98828e-20 -2.84596e-05 2.48818e-20 -2.17124e-09)
(2.34033e-05 2.44466e-05 5.54909e-20 -2.33967e-05 2.10543e-20 -6.69425e-09)
(1.79615e-05 2.75597e-05 5.24791e-20 -1.79609e-05 1.46662e-20 -5.97007e-10)
(2.37096e-05 -2.69009e-05 1.3287e-20 -2.37014e-05 7.33845e-21 -8.19203e-09)
(2.69414e-05 -2.28198e-05 2.05528e-20 -2.69431e-05 1.1169e-20 1.67359e-09)
(2.9504e-05 -1.84121e-05 5.69498e-20 -2.9494e-05 2.32029e-20 -1.00116e-08)
(3.16047e-05 -1.30503e-05 -1.28483e-20 -3.16355e-05 -6.14235e-21 3.07973e-08)
(3.281e-05 -6.96825e-06 4.83292e-20 -3.27851e-05 1.03821e-20 -2.49016e-08)
(3.28329e-05 -6.06032e-07 -1.57666e-19 -3.28201e-05 -5.52671e-20 -1.27879e-08)
(3.15619e-05 5.84047e-06 1.36052e-19 -3.1568e-05 7.34771e-20 6.1363e-09)
(2.89637e-05 1.1947e-05 1.84318e-19 -2.89722e-05 4.60037e-20 8.47113e-09)
(2.53041e-05 1.71299e-05 -1.13827e-20 -2.53021e-05 -1.69635e-20 -2.02732e-09)
(2.09843e-05 2.11351e-05 7.77574e-20 -2.09783e-05 -9.01486e-22 -6.01411e-09)
(1.63143e-05 2.39805e-05 5.51821e-20 -1.63132e-05 1.22994e-20 -1.10032e-09)
(2.05316e-05 -2.3895e-05 -1.58918e-20 -2.05252e-05 -6.64199e-21 -6.31055e-09)
(2.34022e-05 -2.03498e-05 1.8881e-20 -2.34022e-05 6.76218e-21 3.69345e-11)
(2.56928e-05 -1.65112e-05 -5.05571e-20 -2.56837e-05 -2.45382e-20 -9.13336e-09)
(2.75936e-05 -1.18363e-05 -4.13015e-20 -2.76188e-05 -1.55934e-20 2.51939e-08)
(2.87272e-05 -6.51885e-06 -1.09995e-20 -2.87061e-05 5.80659e-21 -2.10569e-08)
(2.88349e-05 -9.44273e-07 1.63913e-19 -2.88259e-05 5.90629e-20 -8.9718e-09)
(2.78154e-05 4.7244e-06 -1.93043e-20 -2.7821e-05 -2.3648e-20 5.54348e-09)
(2.56343e-05 1.01191e-05 -1.30908e-19 -2.56412e-05 -5.95391e-20 6.87442e-09)
(2.25201e-05 1.47258e-05 -1.08903e-19 -2.25185e-05 -4.19674e-20 -1.55463e-09)
(1.8818e-05 1.83168e-05 -3.71208e-19 -1.8813e-05 -8.51279e-20 -4.96146e-09)
(1.47959e-05 2.091e-05 5.05958e-20 -1.47954e-05 3.026e-20 -4.38994e-10)
(1.07444e-05 2.25421e-05 2.03037e-19 -1.0742e-05 3.18848e-20 -2.45112e-09)
(1.78131e-05 -2.1269e-05 9.98075e-21 -1.78085e-05 4.36297e-21 -4.67701e-09)
(2.03698e-05 -1.81821e-05 3.5051e-21 -2.0369e-05 3.22009e-21 -8.03716e-10)
(2.24225e-05 -1.48298e-05 6.01975e-20 -2.24141e-05 2.69003e-20 -8.42552e-09)
(2.4145e-05 -1.07425e-05 9.39419e-20 -2.41658e-05 3.32997e-20 2.07673e-08)
(2.52086e-05 -6.08027e-06 -3.4446e-20 -2.51903e-05 -2.2654e-20 -1.83074e-08)
(2.53754e-05 -1.18129e-06 -1.37363e-19 -2.53689e-05 -4.88786e-20 -6.49663e-09)
(2.45585e-05 3.81455e-06 2.22758e-20 -2.4564e-05 3.66255e-21 5.46098e-09)
(2.27227e-05 8.5886e-06 -1.55093e-19 -2.27289e-05 -4.07472e-20 6.18756e-09)
(2.00626e-05 1.26882e-05 7.38172e-20 -2.00615e-05 4.39721e-20 -1.07697e-09)
(1.6878e-05 1.59092e-05 1.61467e-19 -1.6874e-05 5.69989e-20 -3.99683e-09)
(1.34023e-05 1.82668e-05 -9.64848e-20 -1.34016e-05 -3.11912e-20 -7.48475e-10)
(9.88857e-06 1.97903e-05 -1.43404e-19 -9.88548e-06 -4.24075e-20 -3.0895e-09)
(1.54793e-05 -1.89667e-05 -1.14499e-20 -1.54758e-05 -3.12974e-21 -3.51189e-09)
(1.77624e-05 -1.62726e-05 3.63509e-20 -1.7761e-05 1.42903e-20 -1.45832e-09)
(1.9606e-05 -1.33376e-05 -1.89899e-20 -1.95985e-05 -8.7148e-21 -7.51341e-09)
(2.1169e-05 -9.75597e-06 -1.4655e-20 -2.11862e-05 -6.18954e-21 1.72199e-08)
(2.21638e-05 -5.65794e-06 -3.25791e-20 -2.21484e-05 -1.55943e-20 -1.53697e-08)
(2.23724e-05 -1.3427e-06 -9.96239e-20 -2.23673e-05 -3.23129e-20 -5.0395e-09)
(2.17188e-05 3.07057e-06 -5.98975e-20 -2.17238e-05 -2.156e-20 4.97322e-09)
(2.01695e-05 7.3039e-06 -5.80324e-21 -2.01745e-05 1.06041e-20 4.97318e-09)
(1.789e-05 1.09573e-05 6.85605e-20 -1.78884e-05 3.50632e-20 -1.63435e-09)
(1.51417e-05 1.38463e-05 7.15573e-20 -1.5138e-05 1.81206e-20 -3.74306e-09)
(1.21301e-05 1.59842e-05 1.59531e-19 -1.21298e-05 2.10692e-20 -2.71908e-10)
(9.07557e-06 1.73957e-05 -3.3254e-20 -9.07339e-06 -1.76763e-20 -2.18398e-09)
(1.34696e-05 -1.69408e-05 -8.68275e-21 -1.34675e-05 -4.57718e-21 -2.11828e-09)
(1.55135e-05 -1.45858e-05 -5.31209e-20 -1.55111e-05 -2.03547e-20 -2.39256e-09)
(1.71718e-05 -1.20101e-05 -3.32737e-20 -1.71654e-05 -1.24285e-20 -6.41009e-09)
(1.85915e-05 -8.86474e-06 -2.83847e-20 -1.86062e-05 -1.01099e-20 1.46228e-08)
(1.95203e-05 -5.25454e-06 -2.17469e-20 -1.95072e-05 -4.20091e-21 -1.30827e-08)
(1.97567e-05 -1.44569e-06 6.27032e-20 -1.97534e-05 1.17989e-20 -3.28547e-09)
(1.92363e-05 2.45983e-06 -2.80451e-19 -1.92409e-05 -8.50703e-20 4.58246e-09)
(1.79257e-05 6.21972e-06 1.93715e-20 -1.79303e-05 3.76768e-20 4.58761e-09)
(1.5967e-05 9.4783e-06 3.71383e-19 -1.59661e-05 9.35892e-20 -8.96145e-10)
(1.35888e-05 1.20705e-05 1.1037e-19 -1.35856e-05 2.31061e-21 -3.19539e-09)
(1.09709e-05 1.40076e-05 -2.79728e-19 -1.09703e-05 -8.27539e-20 -6.45259e-10)
(8.30904e-06 1.53098e-05 -2.10143e-19 -8.30656e-06 -3.00025e-20 -2.48204e-09)
(5.75207e-06 1.60511e-05 4.10872e-20 -5.74871e-06 2.39205e-20 -3.36343e-09)
(1.17344e-05 -1.51532e-05 9.55593e-21 -1.1733e-05 3.13842e-21 -1.43134e-09)
(1.35682e-05 -1.30901e-05 -1.52475e-20 -1.35658e-05 -4.07457e-21 -2.4212e-09)
(1.50625e-05 -1.08267e-05 5.73719e-20 -1.50563e-05 1.62177e-20 -6.17652e-09)
(1.63534e-05 -8.05828e-06 -1.44807e-19 -1.63658e-05 -5.49157e-20 1.24059e-08)
(1.72185e-05 -4.87164e-06 -1.09818e-19 -1.72073e-05 -3.28056e-20 -1.12281e-08)
(1.74725e-05 -1.50338e-06 -5.79858e-20 -1.74701e-05 -9.87897e-21 -2.34868e-09)
(1.70604e-05 1.95863e-06 1.32704e-19 -1.70646e-05 5.74355e-20 4.16574e-09)
(1.59494e-05 5.30308e-06 1.72641e-19 -1.5953e-05 2.95747e-20 3.57019e-09)
(1.4262e-05 8.21265e-06 -1.82888e-19 -1.42609e-05 -5.99579e-20 -1.09287e-09)
(1.21986e-05 1.05388e-05 1.48793e-19 -1.21961e-05 3.56716e-20 -2.45051e-09)
(9.91872e-06 1.2291e-05 1.45428e-20 -9.91848e-06 1.65523e-20 -2.36127e-10)
(7.59495e-06 1.34864e-05 -5.27514e-20 -7.59306e-06 8.95478e-21 -1.89752e-09)
(5.35812e-06 1.41898e-05 1.78328e-19 -5.35518e-06 4.13156e-20 -2.94444e-09)
(1.02329e-05 -1.35716e-05 -9.79228e-21 -1.02316e-05 -4.0824e-21 -1.2551e-09)
(1.1881e-05 -1.17606e-05 -2.11119e-20 -1.18788e-05 -6.16202e-21 -2.18333e-09)
(1.32296e-05 -9.76951e-06 3.95354e-20 -1.32241e-05 1.64402e-20 -5.50819e-09)
(1.44045e-05 -7.32837e-06 7.24624e-20 -1.44148e-05 2.6507e-20 1.02833e-08)
(1.52092e-05 -4.51005e-06 1.15558e-19 -1.51995e-05 3.93694e-20 -9.6842e-09)
(1.54729e-05 -1.52746e-06 7.74828e-20 -1.54712e-05 2.90674e-20 -1.71734e-09)
(1.5149e-05 1.5466e-06 2.28983e-19 -1.51528e-05 4.98251e-20 3.88177e-09)
(1.4206e-05 4.52422e-06 -3.43259e-19 -1.42094e-05 -9.63719e-20 3.41135e-09)
(1.2749e-05 7.12463e-06 3.02366e-20 -1.27481e-05 1.55394e-20 -9.13818e-10)
(1.09541e-05 9.21357e-06 -6.47156e-20 -1.09519e-05 -1.0115e-20 -2.21774e-09)
(8.96412e-06 1.07975e-05 1.32201e-19 -8.96354e-06 2.88717e-20 -5.75669e-10)
(6.93128e-06 1.18918e-05 4.89388e-20 -6.92916e-06 6.4086e-21 -2.12233e-09)
(4.97196e-06 1.25529e-05 9.93478e-20 -4.9693e-06 -1.03133e-22 -2.65725e-09)
(3.12561e-06 1.28666e-05 4.57004e-20 -3.1241e-06 -4.06962e-22 -1.5144e-09)
(8.93124e-06 -1.2168e-05 9.68285e-21 -8.93039e-06 3.9821e-21 -8.52885e-10)
(1.04143e-05 -1.05769e-05 3.33254e-20 -1.0412e-05 9.34311e-21 -2.33772e-09)
(1.16335e-05 -8.82221e-06 -7.63632e-20 -1.16286e-05 -2.45844e-20 -4.84012e-09)
(1.2703e-05 -6.66679e-06 2.9221e-20 -1.2712e-05 1.37351e-20 8.98155e-09)
(1.34506e-05 -4.17114e-06 9.45236e-20 -1.34423e-05 2.68064e-20 -8.22586e-09)
(1.37184e-05 -1.52628e-06 -2.35122e-20 -1.37171e-05 -1.39205e-20 -1.21625e-09)
(1.34661e-05 1.20745e-06 -1.23822e-19 -1.34698e-05 -2.85744e-20 3.66346e-09)
(1.26652e-05 3.86259e-06 2.71225e-19 -1.26676e-05 7.30221e-20 2.41969e-09)
(1.14044e-05 6.18876e-06 -2.28019e-19 -1.14035e-05 -5.98397e-20 -8.68484e-10)
(9.84054e-06 8.06391e-06 1.86187e-19 -9.83865e-06 4.97514e-20 -1.88937e-09)
(8.10039e-06 9.49471e-06 -7.03804e-20 -8.10013e-06 -3.24428e-20 -2.6634e-10)
(6.31916e-06 1.04938e-05 -7.80094e-20 -6.31741e-06 -1.47715e-20 -1.74737e-09)
(4.60025e-06 1.11107e-05 -1.70997e-19 -4.59798e-06 -2.92851e-20 -2.27667e-09)
(2.97952e-06 1.14212e-05 1.77363e-20 -2.97794e-06 5.54256e-21 -1.58868e-09)
(7.80054e-06 -1.09198e-05 -5.3449e-23 -7.80024e-06 -2.6821e-23 -2.985e-10)
(9.13674e-06 -9.52101e-06 8.60558e-21 -9.13452e-06 1.87011e-21 -2.22332e-09)
(1.024e-05 -7.97273e-06 -4.59891e-20 -1.02356e-05 -1.29821e-20 -4.44559e-09)
(1.12146e-05 -6.06633e-06 8.39604e-20 -1.12222e-05 2.43959e-20 7.66384e-09)
(1.19081e-05 -3.85375e-06 -1.0881e-19 -1.19013e-05 -3.08645e-20 -6.83428e-09)
(1.21757e-05 -1.50531e-06 1.37259e-19 -1.21747e-05 4.44218e-20 -9.66246e-10)
(1.1982e-05 9.28278e-07 1.27207e-19 -1.19855e-05 2.77771e-20 3.48732e-09)
(1.1301e-05 3.29776e-06 -1.21785e-19 -1.13034e-05 -3.91431e-20 2.44031e-09)
(1.02085e-05 5.38005e-06 -1.56079e-20 -1.02077e-05 7.70177e-21 -8.12438e-10)
(8.84338e-06 7.06467e-06 1.73384e-20 -8.84174e-06 -1.39324e-20 -1.64184e-09)
(7.31893e-06 8.35674e-06 -9.05038e-20 -7.31854e-06 -1.4749e-20 -3.9556e-10)
(5.7557e-06 9.2672e-06 1.1657e-19 -5.75403e-06 2.64845e-20 -1.67161e-09)
(4.24614e-06 9.83933e-06 7.3578e-20 -4.24409e-06 2.62979e-20 -2.04996e-09)
(2.82252e-06 1.01412e-05 1.02146e-20 -2.82093e-06 -1.18589e-20 -1.59622e-09)
(6.81669e-06 -9.80802e-06 -1.70374e-21 -6.81663e-06 -6.96779e-22 -5.96631e-11)
(8.02234e-06 -8.57685e-06 7.3402e-21 -8.02013e-06 2.14138e-21 -2.21424e-09)
(9.02163e-06 -7.20942e-06 -2.75069e-21 -9.01761e-06 -2.26361e-21 -4.02281e-09)
(9.90989e-06 -5.52151e-06 -4.84699e-20 -9.91656e-06 -1.74765e-20 6.66609e-09)
(1.05528e-05 -3.5575e-06 -1.15219e-19 -1.0547e-05 -3.38329e-20 -5.7931e-09)
(1.08167e-05 -1.4697e-06 -8.01592e-20 -1.0816e-05 -2.37091e-20 -7.18833e-10)
(1.06709e-05 6.98886e-07 -1.36903e-19 -1.06739e-05 -3.76443e-20 3.00448e-09)
(1.00915e-05 2.81606e-06 5.43117e-20 -1.00935e-05 1.73584e-20 2.04467e-09)
(9.14378e-06 4.68087e-06 2.67097e-20 -9.14302e-06 2.56934e-21 -7.65387e-10)
(7.95031e-06 6.19458e-06 -2.79831e-19 -7.9489e-06 -5.4096e-20 -1.40983e-09)
(6.61303e-06 7.36071e-06 -5.33671e-20 -6.61267e-06 2.52271e-21 -3.56614e-10)
(5.23918e-06 8.18892e-06 -1.14846e-19 -5.23772e-06 -2.17958e-20 -1.46086e-09)
(3.91194e-06 8.71729e-06 2.01629e-19 -3.9102e-06 2.78051e-20 -1.74698e-09)
(2.66045e-06 9.00677e-06 -2.08645e-19 -2.65929e-06 -3.23748e-20 -1.15421e-09)
(1.49547e-06 9.10592e-06 -8.5048e-20 -1.49485e-06 -8.55617e-21 -6.21563e-10)
(5.9596e-06 -8.816e-06 1.01155e-20 -5.95967e-06 3.79582e-21 6.18358e-11)
(7.04833e-06 -7.73124e-06 3.50466e-20 -7.04624e-06 1.14065e-20 -2.08862e-09)
(7.95444e-06 -6.52251e-06 6.29665e-20 -7.95065e-06 1.94612e-20 -3.79723e-09)
(8.76456e-06 -5.02652e-06 6.26291e-20 -8.7704e-06 1.91347e-20 5.83901e-09)
(9.3598e-06 -3.28154e-06 9.70803e-20 -9.35485e-06 2.79716e-20 -4.9484e-09)
(9.61766e-06 -1.42341e-06 9.47844e-20 -9.61704e-06 1.84093e-20 -6.13109e-10)
(9.51121e-06 5.10627e-07 -2.41167e-19 -9.51386e-06 -6.29243e-20 2.65772e-09)
(9.01805e-06 2.40362e-06 -1.19799e-19 -9.01986e-06 -1.83676e-20 1.81028e-09)
(8.19485e-06 4.07508e-06 1.6617e-19 -8.19409e-06 4.10151e-20 -7.63974e-10)
(7.15013e-06 5.43549e-06 3.27298e-19 -7.14893e-06 8.03793e-20 -1.19258e-09)
(5.97548e-06 6.48777e-06 1.59173e-19 -5.97515e-06 2.46272e-20 -3.30347e-10)
(4.76683e-06 7.24021e-06 -2.87658e-20 -4.76538e-06 -6.91425e-21 -1.44905e-09)
(3.59829e-06 7.72651e-06 -6.57983e-20 -3.59664e-06 -1.62656e-20 -1.65054e-09)
(2.49725e-06 8.00107e-06 2.48992e-19 -2.49596e-06 4.51934e-20 -1.28439e-09)
(1.47204e-06 8.10803e-06 -4.37216e-20 -1.47144e-06 -9.72627e-21 -6.07158e-10)
(5.21203e-06 -7.92912e-06 8.23539e-21 -5.21229e-06 2.17234e-21 2.64546e-10)
(6.19585e-06 -6.9728e-06 -6.92859e-21 -6.19389e-06 -2.85985e-21 -1.9596e-09)
(7.01816e-06 -5.90369e-06 -2.45575e-20 -7.01468e-06 -7.54667e-21 -3.47633e-09)
(7.75738e-06 -4.57688e-06 -2.38499e-20 -7.76243e-06 -1.14725e-20 5.05235e-09)
(8.30779e-06 -3.02478e-06 -2.60434e-19 -8.30383e-06 -7.07639e-20 -3.9549e-09)
(8.55798e-06 -1.37003e-06 -4.85183e-20 -8.55746e-06 -4.65233e-21 -5.18404e-10)
(8.48375e-06 3.56625e-07 1.29162e-19 -8.4861e-06 3.77263e-20 2.34666e-09)
(8.06414e-06 2.05032e-06 1.12935e-19 -8.06577e-06 2.31091e-20 1.62871e-09)
(7.34845e-06 3.54917e-06 -2.68859e-19 -7.34778e-06 -5.85676e-20 -6.63383e-10)
(6.43293e-06 4.77229e-06 4.21789e-20 -6.43188e-06 -4.2933e-22 -1.05523e-09)
(5.40002e-06 5.72185e-06 -2.57077e-20 -5.39965e-06 -4.91459e-21 -3.71078e-10)
(4.33572e-06 6.40463e-06 5.80702e-21 -4.33447e-06 5.74278e-21 -1.25488e-09)
(3.30627e-06 6.85081e-06 -7.75913e-20 -3.30495e-06 -7.80226e-21 -1.31563e-09)
(2.33658e-06 7.10935e-06 -1.45064e-19 -2.33543e-06 -3.28826e-20 -1.14665e-09)
(1.43448e-06 7.21968e-06 1.13094e-21 -1.43373e-06 8.20085e-22 -7.47731e-10)
(4.55916e-06 -7.13531e-06 -2.30397e-21 -4.55955e-06 -4.96232e-22 3.91505e-10)
(5.4489e-06 -6.29188e-06 2.37859e-20 -5.44699e-06 6.74398e-21 -1.91012e-09)
(6.1956e-06 -5.34551e-06 2.26029e-20 -6.1925e-06 5.95758e-21 -3.10583e-09)
(6.87056e-06 -4.1679e-06 7.97068e-21 -6.87488e-06 1.89003e-21 4.31796e-09)
(7.37917e-06 -2.78615e-06 3.27653e-20 -7.3759e-06 1.45842e-20 -3.27291e-09)
(7.62037e-06 -1.31141e-06 2.1271e-19 -7.61983e-06 5.06286e-20 -5.38978e-10)
(7.57229e-06 2.31219e-07 -1.23639e-19 -7.57441e-06 -3.3721e-20 2.12274e-09)
(7.21565e-06 1.74745e-06 8.46158e-20 -7.21696e-06 3.13909e-20 1.31166e-09)
(6.59281e-06 3.09226e-06 2.96487e-19 -6.59224e-06 5.7274e-20 -5.63915e-10)
(5.7899e-06 4.19215e-06 -2.21533e-19 -5.789e-06 -4.56353e-20 -8.99251e-10)
(4.88085e-06 5.04867e-06 1.7939e-19 -4.88061e-06 3.63613e-20 -2.40658e-10)
(3.94254e-06 5.66805e-06 1.25666e-19 -3.94131e-06 1.47641e-20 -1.22859e-09)
(3.0351e-06 6.07664e-06 2.16727e-19 -3.03371e-06 3.2648e-20 -1.38921e-09)
(2.18038e-06 6.31855e-06 -2.19463e-20 -2.1796e-06 -3.68608e-21 -7.83093e-10)
(1.38659e-06 6.42925e-06 -9.06253e-20 -1.38591e-06 -1.09244e-20 -6.86406e-10)
(6.57887e-07 6.43559e-06 -1.07393e-19 -6.57079e-07 -9.74982e-21 -8.07929e-10)
(3.98864e-06 -6.42399e-06 2.62075e-21 -3.98912e-06 -1.7684e-24 4.78785e-10)
(4.79386e-06 -5.67973e-06 -5.96599e-20 -4.792e-06 -1.55523e-20 -1.85932e-09)
(5.47209e-06 -4.84159e-06 7.3039e-20 -5.46935e-06 2.01147e-20 -2.74322e-09)
(6.08856e-06 -3.79576e-06 -2.31998e-20 -6.0924e-06 -4.34115e-21 3.84324e-09)
(6.55844e-06 -2.56501e-06 1.93798e-19 -6.55571e-06 4.7997e-20 -2.72991e-09)
(6.78965e-06 -1.24967e-06 -1.28809e-19 -6.7892e-06 -3.54334e-20 -4.53253e-10)
(6.76285e-06 1.29299e-07 2.03012e-20 -6.76478e-06 1.22631e-20 1.92458e-09)
(6.46006e-06 1.4876e-06 3.12816e-19 -6.46121e-06 5.67026e-20 1.14368e-09)
(5.91785e-06 2.69481e-06 -3.57657e-19 -5.91727e-06 -7.87818e-20 -5.80179e-10)
(5.21305e-06 3.68425e-06 1.46925e-19 -5.21222e-06 3.80921e-20 -8.22912e-10)
(4.41243e-06 4.45684e-06 -2.24218e-19 -4.41209e-06 -5.47692e-20 -3.33514e-10)
(3.58479e-06 5.01823e-06 -2.81186e-19 -3.58382e-06 -5.06077e-20 -9.67362e-10)
(2.78428e-06 5.3915e-06 -1.45335e-19 -2.78317e-06 -2.62982e-20 -1.11088e-09)
(2.03048e-06 5.61675e-06 5.26014e-20 -2.02966e-06 1.57984e-20 -8.18714e-10)
(1.33123e-06 5.72603e-06 1.45792e-19 -1.33067e-06 2.12514e-20 -5.62687e-10)
(6.90426e-07 5.74303e-06 6.53157e-20 -6.89688e-07 1.34877e-20 -7.3851e-10)
(4.21878e-06 -5.1288e-06 -2.10811e-20 -4.21708e-06 -6.05678e-21 -1.69902e-09)
(4.83518e-06 -4.38632e-06 -2.38326e-20 -4.83266e-06 -6.19457e-21 -2.51652e-09)
(5.39835e-06 -3.45687e-06 -9.11631e-21 -5.40172e-06 -4.37392e-21 3.36698e-09)
(5.83218e-06 -2.36003e-06 -1.41313e-19 -5.82994e-06 -3.19262e-20 -2.23687e-09)
(6.05291e-06 -1.1862e-06 2.28233e-19 -6.05251e-06 5.5293e-20 -3.94628e-10)
(6.04335e-06 4.71876e-08 -9.40072e-20 -6.04499e-06 -3.14687e-20 1.64135e-09)
(5.78654e-06 1.26469e-06 -4.04439e-19 -5.78764e-06 -8.66902e-20 1.10169e-09)
(5.31456e-06 2.34856e-06 3.52099e-19 -5.31404e-06 8.81844e-20 -5.14461e-10)
(4.69551e-06 3.23893e-06 5.03024e-20 -4.69488e-06 8.76612e-22 -6.32752e-10)
(3.99e-06 3.93583e-06 1.0912e-19 -3.9897e-06 3.55251e-20 -2.98092e-10)
(3.25921e-06 4.44462e-06 1.28553e-19 -3.25828e-06 2.83088e-20 -9.35588e-10)
(2.55253e-06 4.78542e-06 -1.23291e-20 -2.55142e-06 7.24481e-21 -1.11673e-09)
(1.88787e-06 4.99419e-06 2.85456e-20 -1.88709e-06 -1.6144e-21 -7.79256e-10)
(1.27165e-06 5.10021e-06 -1.50702e-19 -1.27117e-06 -2.45513e-20 -4.86931e-10)
(7.07457e-07 5.12498e-06 8.21695e-20 -7.06868e-07 8.71105e-21 -5.89459e-10)
(1.8615e-07 5.08528e-06 -1.5468e-19 -1.8591e-07 -2.2643e-20 -2.39866e-10)
(3.71354e-06 -4.63255e-06 -1.51422e-20 -3.71199e-06 -3.42792e-21 -1.54694e-09)
(4.27392e-06 -3.97465e-06 3.8796e-20 -4.27171e-06 8.58517e-21 -2.21341e-09)
(4.78851e-06 -3.14831e-06 -1.16003e-19 -4.79141e-06 -2.91749e-20 2.89608e-09)
(5.18889e-06 -2.17018e-06 3.0358e-20 -5.18708e-06 6.12873e-21 -1.81471e-09)
(5.39889e-06 -1.12217e-06 -2.18035e-19 -5.39853e-06 -5.23452e-20 -3.59612e-10)
(5.40311e-06 -1.83976e-08 5.00257e-20 -5.40459e-06 1.39137e-20 1.47289e-09)
(5.18583e-06 1.07338e-06 1.45766e-20 -5.18673e-06 9.03644e-21 8.91348e-10)
(4.77484e-06 2.04709e-06 -1.82754e-20 -4.77432e-06 -1.23328e-20 -5.14182e-10)
(4.23093e-06 2.84848e-06 -5.18176e-20 -4.2303e-06 -5.36999e-21 -6.289e-10)
(3.60883e-06 3.47721e-06 2.82528e-19 -3.60852e-06 4.72843e-20 -3.1061e-10)
(2.96347e-06 3.93799e-06 -3.33282e-20 -2.9626e-06 -1.1823e-20 -8.68819e-10)
(2.33941e-06 4.24864e-06 2.52462e-19 -2.33849e-06 3.53943e-20 -9.15812e-10)
(1.75273e-06 4.44171e-06 -8.01926e-20 -1.75208e-06 -1.46999e-20 -6.5701e-10)
(1.20969e-06 4.54353e-06 8.90994e-20 -1.20911e-06 1.91529e-20 -5.79448e-10)
(7.12856e-07 4.57371e-06 -7.11703e-20 -7.12383e-07 -1.36112e-20 -4.73648e-10)
(2.54727e-07 4.54726e-06 1.17495e-19 -2.54456e-07 2.31128e-20 -2.7128e-10)
(3.26932e-06 -4.18525e-06 -7.45409e-20 -3.26786e-06 -1.87751e-20 -1.45713e-09)
(3.77903e-06 -3.60201e-06 -9.31797e-21 -3.77705e-06 4.29209e-22 -1.97351e-09)
(4.24925e-06 -2.86712e-06 1.88252e-19 -4.25177e-06 4.61115e-20 2.52302e-09)
(4.61863e-06 -1.99458e-06 1.63012e-21 -4.61709e-06 -3.38964e-22 -1.5411e-09)
(4.81779e-06 -1.05834e-06 1.36425e-19 -4.81746e-06 3.0813e-20 -3.28609e-10)
(4.83299e-06 -7.01891e-08 -1.58957e-19 -4.83429e-06 -3.79767e-20 1.30567e-09)
(4.64968e-06 9.09121e-07 2.18405e-20 -4.65045e-06 7.9791e-21 7.73545e-10)
(4.29172e-06 1.78422e-06 -6.48578e-20 -4.29132e-06 -9.08058e-21 -4.04926e-10)
(3.81376e-06 2.50562e-06 5.60453e-20 -3.81326e-06 7.49228e-21 -4.96701e-10)
(3.26505e-06 3.07293e-06 -1.50133e-19 -3.26479e-06 -4.14021e-20 -2.55464e-10)
(2.69481e-06 3.4902e-06 -7.9622e-20 -2.69407e-06 -6.7638e-21 -7.38627e-10)
(2.14347e-06 3.77327e-06 -2.82275e-19 -2.14256e-06 -4.75536e-20 -9.17788e-10)
(1.62546e-06 3.95148e-06 8.08038e-20 -1.62492e-06 1.93144e-20 -5.35695e-10)
(1.1468e-06 4.04839e-06 3.89481e-20 -1.14639e-06 2.55113e-21 -4.14356e-10)
(7.09359e-07 4.0821e-06 -2.95579e-20 -7.08919e-07 -4.70357e-22 -4.39946e-10)
(3.06669e-07 4.06623e-06 -3.60706e-20 -3.06445e-07 -4.84086e-21 -2.24385e-10)
(2.87852e-06 -3.78174e-06 5.35763e-20 -2.87719e-06 1.41144e-20 -1.32692e-09)
(3.34219e-06 -3.2646e-06 8.85238e-20 -3.34047e-06 2.03798e-20 -1.72158e-09)
(3.77197e-06 -2.61085e-06 -7.9531e-20 -3.77418e-06 -2.26291e-20 2.20936e-09)
(4.1126e-06 -1.8323e-06 -2.11053e-19 -4.11136e-06 -4.69382e-20 -1.24212e-09)
(4.30096e-06 -9.95612e-07 1.88784e-20 -4.30072e-06 4.20009e-21 -2.35104e-10)
(4.32488e-06 -1.10578e-07 -4.32708e-20 -4.32602e-06 -6.4429e-21 1.14679e-09)
(4.17067e-06 7.68339e-07 1.3272e-19 -4.17136e-06 3.05366e-20 6.94601e-10)
(3.85909e-06 1.55503e-06 1.83377e-19 -3.85864e-06 3.25956e-20 -4.53042e-10)
(3.43899e-06 2.20463e-06 -1.17408e-19 -3.43852e-06 -2.25977e-20 -4.74823e-10)
(2.95475e-06 2.71666e-06 -1.76485e-19 -2.95451e-06 -2.26073e-20 -2.38962e-10)
(2.4509e-06 3.09443e-06 3.44173e-19 -2.45018e-06 5.97807e-20 -7.23204e-10)
(1.96361e-06 3.35215e-06 1.75894e-19 -1.96288e-06 3.25815e-20 -7.27796e-10)
(1.5061e-06 3.51624e-06 -5.14616e-20 -1.50556e-06 -1.63733e-20 -5.40879e-10)
(1.08377e-06 3.60815e-06 2.0691e-20 -1.08329e-06 2.22751e-21 -4.81421e-10)
(6.98804e-07 3.64395e-06 1.50102e-19 -6.98357e-07 2.37391e-20 -4.47095e-10)
(3.4464e-07 3.63632e-06 1.32484e-19 -3.44515e-07 1.89508e-20 -1.24858e-10)
(1.69345e-08 3.59278e-06 2.04122e-20 -1.66817e-08 1.84386e-21 -2.52758e-10)
(2.53458e-06 -3.41748e-06 -1.28344e-20 -2.53336e-06 -3.74339e-21 -1.215e-09)
(2.95646e-06 -2.95887e-06 -9.98739e-20 -2.95495e-06 -2.34895e-20 -1.50568e-09)
(3.34932e-06 -2.37716e-06 1.47988e-20 -3.35123e-06 7.52246e-21 1.90813e-09)
(3.66337e-06 -1.68221e-06 3.21397e-19 -3.6623e-06 7.00381e-20 -1.0707e-09)
(3.84112e-06 -9.34197e-07 -2.43541e-19 -3.84087e-06 -5.56909e-20 -2.45237e-10)
(3.87174e-06 -1.41339e-07 2.17543e-20 -3.87275e-06 6.97655e-21 1.01392e-09)
(3.74248e-06 6.47625e-07 -1.10255e-20 -3.74309e-06 -3.07674e-21 6.14992e-10)
(3.47141e-06 1.35506e-06 -1.20783e-19 -3.47107e-06 -1.94181e-20 -3.42419e-10)
(3.10222e-06 1.94013e-06 3.34296e-19 -3.10181e-06 5.88502e-20 -4.08998e-10)
(2.67477e-06 2.40244e-06 1.99938e-20 -2.67458e-06 -6.88358e-21 -1.9322e-10)
(2.2295e-06 2.74443e-06 -3.33079e-19 -2.22881e-06 -6.26887e-20 -6.94135e-10)
(1.79854e-06 2.97913e-06 8.60397e-20 -1.79786e-06 1.21275e-20 -6.74415e-10)
(1.3945e-06 3.13002e-06 -1.57372e-19 -1.39405e-06 -2.53308e-20 -4.57507e-10)
(1.02193e-06 3.21663e-06 -1.45379e-19 -1.02161e-06 -2.37354e-20 -3.23144e-10)
(6.82986e-07 3.25351e-06 -6.74865e-20 -6.82558e-07 -1.16093e-20 -4.27596e-10)
(3.7129e-07 3.25231e-06 2.44628e-20 -3.71195e-07 1.4865e-21 -9.49234e-11)
(8.37e-08 3.2198e-06 1.86102e-20 -8.34381e-08 1.52802e-21 -2.61854e-10)
(2.23177e-06 -3.08853e-06 -3.55124e-20 -2.23062e-06 -7.66937e-21 -1.15072e-09)
(2.61567e-06 -2.68174e-06 6.41612e-20 -2.61436e-06 1.5512e-20 -1.30706e-09)
(2.97479e-06 -2.16404e-06 4.46642e-20 -2.97645e-06 6.00933e-21 1.66024e-09)
(3.26421e-06 -1.54366e-06 -3.4962e-19 -3.26333e-06 -7.57844e-20 -8.80169e-10)
(3.43158e-06 -8.748e-07 2.53248e-19 -3.4314e-06 5.83876e-20 -1.73899e-10)
(3.46731e-06 -1.64209e-07 -9.08109e-20 -3.46822e-06 -1.68818e-20 9.12056e-10)
(3.35954e-06 5.44358e-07 2.85103e-19 -3.36004e-06 5.75944e-20 4.94824e-10)
(3.12381e-06 1.18071e-06 2.01524e-19 -3.12347e-06 3.00997e-20 -3.32081e-10)
(2.79934e-06 1.70786e-06 -5.02228e-19 -2.79896e-06 -9.73476e-20 -3.81874e-10)
(2.42207e-06 2.12522e-06 -2.30805e-19 -2.4219e-06 -3.39538e-20 -1.78163e-10)
(2.02846e-06 2.4349e-06 9.64049e-20 -2.02784e-06 2.48025e-20 -6.19566e-10)
(1.64737e-06 2.64852e-06 -3.67295e-20 -1.64676e-06 -8.23894e-21 -6.00686e-10)
(1.2903e-06 2.78716e-06 1.14487e-19 -1.28984e-06 2.43928e-20 -4.52431e-10)
(9.61527e-07 2.86858e-06 -9.02661e-20 -9.61151e-07 -1.11322e-20 -3.76647e-10)
(6.6286e-07 2.90584e-06 -3.05997e-20 -6.62519e-07 -4.25378e-21 -3.41175e-10)
(3.8899e-07 2.9095e-06 -2.02357e-20 -3.88859e-07 -5.68154e-22 -1.30833e-10)
(1.36257e-07 2.88591e-06 -1.97209e-20 -1.36078e-07 -3.94092e-21 -1.78797e-10)
(1.96508e-06 -2.79127e-06 3.08099e-21 -1.96403e-06 1.35015e-21 -1.04704e-09)
(2.31441e-06 -2.43047e-06 7.49174e-20 -2.31326e-06 1.63796e-20 -1.14784e-09)
(2.64269e-06 -1.96963e-06 -8.27451e-20 -2.64415e-06 -1.73626e-20 1.46087e-09)
(2.90939e-06 -1.41572e-06 1.8885e-19 -2.90864e-06 4.17616e-20 -7.49799e-10)
(3.06673e-06 -8.17411e-07 -9.74417e-20 -3.06655e-06 -2.21079e-20 -1.78481e-10)
(3.10621e-06 -1.80412e-07 1.48278e-19 -3.107e-06 2.88413e-20 7.84164e-10)
(3.01681e-06 4.56045e-07 -2.69722e-19 -3.01728e-06 -6.00598e-20 4.62918e-10)
(2.81207e-06 1.02859e-06 -2.94236e-20 -2.81173e-06 -4.81412e-21 -3.43297e-10)
(2.52688e-06 1.50374e-06 4.18386e-19 -2.52655e-06 8.75171e-20 -3.28967e-10)
(2.19392e-06 1.88058e-06 -2.29113e-20 -2.19376e-06 1.36746e-23 -1.66978e-10)
(1.8459e-06 2.16108e-06 -6.13899e-20 -1.84535e-06 -9.85015e-21 -5.51716e-10)
(1.50882e-06 2.35553e-06 -1.74453e-20 -1.50831e-06 9.63728e-22 -5.06632e-10)
(1.19333e-06 2.48284e-06 1.51073e-19 -1.19295e-06 2.41188e-20 -3.83859e-10)
(9.03144e-07 2.5591e-06 9.00224e-20 -9.02841e-07 1.41624e-20 -3.02787e-10)
(6.39896e-07 2.59615e-06 -9.48527e-20 -6.39598e-07 -1.54169e-20 -2.9784e-10)
(3.99084e-07 2.60357e-06 1.4356e-19 -3.98947e-07 2.24001e-20 -1.37403e-10)
(1.77004e-07 2.58721e-06 2.48567e-20 -1.76855e-07 3.02304e-21 -1.49634e-10)
(-3.02385e-08 2.55055e-06 -1.21645e-19 3.03464e-08 -1.52718e-20 -1.07858e-10)
(1.73013e-06 -2.52252e-06 -9.03635e-21 -1.72919e-06 -2.85231e-21 -9.35961e-10)
(2.04804e-06 -2.20254e-06 -1.14999e-19 -2.04703e-06 -2.51072e-20 -1.01143e-09)
(2.3481e-06 -1.79228e-06 2.67613e-20 -2.34939e-06 6.88845e-21 1.28792e-09)
(2.59376e-06 -1.29767e-06 1.89352e-20 -2.59314e-06 2.07204e-21 -6.14146e-10)