/*--------------------------------*- C++ -*----------------------------------*\
| =========                 |                                                 |
| \\      /  F ield         | OpenFOAM: The Open Source CFD Toolbox           |
|  \\    /   O peration     | Version:  2306                                  |
|   \\  /    A nd           | Website:  www.openfoam.com                      |
|    \\/     M anipulation  |                                                 |
\*---------------------------------------------------------------------------*/
FoamFile
{
    version     2.0;
    format      ascii;
    arch        "LSB;label=32;scalar=64";
    class       volVectorField;
    location    "225";
    object      U;
}
// * * * * * * * * * * * * * * * * * * * * * * * * * * * * * * * * * * * * * //

dimensions      [0 1 -1 0 0 0 0];

internalField   nonuniform List<vector> 
1340
(
(17.893 14.0752 -4.04172e-18)
(17.3013 13.3719 5.86807e-17)
(16.7595 12.6344 1.78067e-16)
(16.2327 11.7548 -3.80895e-16)
(15.731 10.7555 -7.79332e-16)
(18.6013 13.4197 1.5667e-17)
(18.0464 12.7761 6.71592e-17)
(17.5373 12.1023 -2.01412e-16)
(17.0374 11.2975 -7.60438e-18)
(16.5568 10.3817 4.41097e-16)
(16.1625 9.40604 -8.77316e-16)
(19.2318 12.8232 -1.08452e-17)
(18.7092 12.2321 -4.75037e-17)
(18.229 11.6142 -2.57896e-17)
(17.7535 10.8749 1.7433e-16)
(17.2926 10.0323 -4.62291e-17)
(16.9096 9.13536 5.41241e-16)
(16.6034 8.17222 9.23124e-16)
(19.7957 12.2772 1.0268e-17)
(19.302 11.7326 1.73034e-17)
(18.8476 11.1641 7.37151e-17)
(18.3946 10.4826 -2.70423e-16)
(17.9524 9.70478 -2.19246e-16)
(17.5807 8.87728 -4.95908e-16)
(17.2779 7.98662 -6.98511e-16)
(17.0629 7.04914 6.31718e-16)
(20.3026 11.7747 9.65461e-18)
(19.835 11.2717 7.58628e-18)
(19.404 10.7472 -3.96283e-17)
(18.9715 10.1173 2.34122e-16)
(18.5471 9.39719 5.01989e-16)
(18.1867 8.63129 3.45044e-17)
(17.8888 7.80518 1.29547e-15)
(17.6706 6.93465 -4.94876e-16)
(17.5452 6.07367 -7.59606e-16)
(20.7601 11.3102 1.29491e-17)
(20.3162 10.8446 -2.5673e-17)
(19.9066 10.3595 -2.06364e-17)
(19.4932 9.77596 -3.30535e-17)
(19.0856 9.10763 4.15572e-16)
(18.7365 8.39696 -5.6314e-16)
(18.4443 7.62886 1.83206e-16)
(18.2251 6.81854 1.23468e-17)
(18.0917 6.01694 -1.82471e-15)
(18.0427 5.25553 5.66621e-16)
(21.1744 10.879 -1.09797e-17)
(20.7522 10.4475 2.10418e-17)
(20.3622 9.99782 1.54044e-16)
(19.9667 9.45607 4.16294e-17)
(19.5751 8.83462 -2.57824e-16)
(19.2372 8.17365 2.4597e-16)
(18.9514 7.45799 -4.81633e-18)
(18.7326 6.7023 9.31487e-16)
(18.5937 5.95448 1.37911e-16)
(18.5336 5.24429 -1.58391e-16)
(21.5508 10.4775 -3.20432e-18)
(21.1487 10.0769 -5.94721e-18)
(20.7768 9.65943 -1.28521e-16)
(20.398 9.15567 -2.7801e-16)
(20.0216 8.57675 -4.1382e-16)
(19.6948 7.96083 7.36777e-16)
(19.4158 7.29285 -7.77012e-16)
(19.1988 6.58687 1.99892e-16)
(19.0562 5.88805 5.00876e-16)
(18.9874 5.22456 2.47513e-16)
(18.9846 4.59893 3.44343e-16)
(21.8936 10.1025 1.86627e-17)
(21.5101 9.73013 4.24831e-17)
(21.1551 9.34202 1.36678e-16)
(20.7921 8.87293 -3.51046e-17)
(20.4302 8.33285 1.57073e-16)
(20.1143 7.75794 -7.48042e-16)
(19.8424 7.13355 6.54627e-16)
(19.6279 6.47301 9.32245e-16)
(19.4833 5.81904 1.73331e-17)
(19.4079 5.19828 5.71487e-16)
(19.3942 4.61312 2.83483e-16)
(22.2066 9.75132 -2.12844e-17)
(21.8405 9.4049 3.58839e-17)
(21.5013 9.0436 -1.21768e-16)
(21.1532 8.60633 -1.30547e-16)
(20.8051 8.10185 -1.46877e-17)
(20.4999 7.56443 6.74229e-16)
(20.2353 6.98007 -9.46052e-17)
(20.0241 6.36129 -6.18121e-16)
(19.8786 5.74844 -6.1591e-16)
(19.7982 5.16697 -1.93114e-15)
(19.7757 4.61906 4.51215e-16)
(19.8024 4.11231 1.24936e-15)
(22.4929 9.42174 1.16966e-17)
(22.1431 9.0992 9.19445e-18)
(21.8188 8.76254 1.3319e-16)
(21.4848 8.35453 2.84973e-16)
(21.1499 7.88279 -1.40521e-16)
(20.8552 7.37984 -5.13928e-16)
(20.5981 6.83232 7.73455e-17)
(20.3907 6.252 -7.68351e-16)
(20.2451 5.67709 3.90446e-16)
(20.1612 5.13183 7.2502e-16)
(20.1315 4.6183 -6.27435e-16)
(20.1481 4.14373 -6.88742e-16)
(22.7553 9.11184 -1.25849e-17)
(22.4208 8.81132 6.25268e-17)
(22.1105 8.49737 -4.04457e-17)
(21.7899 8.11633 -3.83433e-17)
(21.4677 7.6748 -1.33277e-16)
(21.1832 7.20368 -4.05816e-16)
(20.9336 6.69019 -2.17861e-16)
(20.7304 6.14542 -6.65004e-17)
(20.5856 5.60557 2.97721e-16)
(20.499 5.09377 4.35256e-16)
(20.4638 4.61202 8.20314e-16)
(20.4718 4.16723 -2.19296e-16)
(22.9961 8.81992 -1.10146e-17)
(22.6761 8.5398 -8.67118e-17)
(22.379 8.24681 -6.88907e-17)
(22.0712 7.89071 -6.24164e-17)
(21.7612 7.47714 -4.94978e-17)
(21.4866 7.03546 2.37428e-16)
(21.2445 6.55351 -1.21776e-15)
(21.0457 6.04167 1.0357e-16)
(20.9023 5.53432 1.81686e-15)
(20.8141 5.05354 4.10155e-16)
(20.7743 4.60128 -1.43778e-15)
(20.7752 4.18413 -9.97434e-16)
(20.8092 3.80823 2.19001e-16)
(23.2174 8.54452 1.317e-17)
(22.9112 8.2833 -2.33413e-17)
(22.6266 8.00976 1.18569e-16)
(22.331 7.67675 -4.11259e-16)
(22.0327 7.28913 -3.66905e-16)
(21.7678 6.87479 -1.92213e-16)
(21.533 6.4221 4.56946e-16)
(21.339 5.9409 7.79296e-16)
(21.1973 5.46375 -7.99209e-16)
(21.1082 5.01178 7.34758e-16)
(21.0647 4.58687 -4.57971e-18)
(21.0598 4.19539 -2.68142e-16)
(21.0859 3.84326 9.16162e-16)
(23.4209 8.28434 -1.02845e-17)
(23.1278 8.04069 -3.29876e-17)
(22.8551 7.78521 8.57782e-17)
(22.5712 7.47368 1.82447e-16)
(22.2843 7.11018 3.58718e-16)
(22.0286 6.72126 2.62779e-16)
(21.8012 6.29581 8.81372e-16)
(21.612 5.84311 -1.48402e-15)
(21.4726 5.39411 1.29241e-16)
(21.383 4.96894 -3.07106e-16)
(21.3367 4.5695 6.9839e-16)
(21.3269 4.20191 2.1128e-16)
(21.3462 3.87185 5.14586e-16)
(21.3889 3.5741 1.86189e-16)
(23.6084 8.03825 1.14027e-17)
(23.3277 7.81099 5.19686e-17)
(23.0663 7.57227 -1.5443e-16)
(22.7936 7.28071 7.82609e-17)
(22.5176 6.93972 3.423e-16)
(22.271 6.57448 -1.0019e-16)
(22.0508 6.17444 -4.55326e-16)
(21.8666 5.74835 1.1073e-15)
(21.7296 5.32557 -9.92845e-16)
(21.64 4.9254 8.40286e-16)
(21.5915 4.54969 -3.22652e-16)
(21.5776 4.20434 -4.29866e-16)
(21.5912 3.89482 -7.51341e-16)
(21.6266 3.61618 1.0165e-16)
(23.7811 7.80525 -9.21987e-19)
(23.5122 7.59326 1.44595e-17)
(23.2618 7.37018 -9.475e-17)
(22.9998 7.09723 2.09e-16)
(22.7342 6.77722 -3.29038e-16)
(22.4964 6.4341 4.46967e-16)
(22.2834 6.0578 4.59587e-16)
(22.1041 5.65657 -4.7583e-16)
(21.9698 5.25833 -7.92333e-17)
(21.8807 4.88149 9.99622e-17)
(21.8305 4.52794 -3.84387e-16)
(21.8131 4.20332 5.28793e-16)
(21.8218 3.91293 3.22729e-16)
(21.8508 3.65204 4.5793e-17)
(23.9404 7.58446 -1.64863e-18)
(23.6829 7.3867 1.35125e-17)
(23.4427 7.17819 -4.23039e-18)
(23.1911 6.92263 -1.17906e-16)
(22.9357 6.62224 -3.61538e-16)
(22.7064 6.29979 -2.86516e-16)
(22.5003 5.94571 -4.69863e-16)
(22.3261 5.56776 2.21112e-16)
(22.1946 5.19247 7.56552e-17)
(22.1061 4.83746 -1.27825e-15)
(22.0548 4.5046 -2.21087e-16)
(22.0345 4.19934 -4.85041e-16)
(22.0389 3.92676 9.05915e-16)
(22.0624 3.6824 -9.63328e-16)
(22.1011 3.46163 -3.17252e-16)
(24.0874 7.37504 1.21062e-17)
(23.8406 7.19059 4.9724e-17)
(23.6104 6.99571 1.19037e-16)
(23.3687 6.75639 1.54056e-16)
(23.1231 6.47436 2.85189e-16)
(22.9021 6.17126 2.7886e-16)
(22.7029 5.83799 -8.87683e-16)
(22.5336 5.48185 -4.32691e-16)
(22.4051 5.12808 7.51696e-16)
(22.3176 4.79351 1.37495e-15)
(22.2653 4.48001 6.98748e-16)
(22.2426 4.19282 -1.64619e-16)
(22.2433 3.93686 -2.27832e-16)
(22.262 3.70789 1.06985e-15)
(22.2948 3.50148 -2.24852e-16)
(24.223 7.17628 9.46902e-18)
(23.9867 7.00426 -1.5719e-17)
(23.766 6.82213 -4.9881e-17)
(23.5337 6.59801 -7.90881e-17)
(23.2976 6.33317 -7.4933e-16)
(23.0846 6.04822 -1.50515e-16)
(22.8921 5.73447 4.55263e-16)
(22.7278 5.3988 4.06589e-16)
(22.6023 5.06521 -1.13752e-15)
(22.516 4.7498 2.20218e-16)
(22.4632 4.45442 -1.13132e-16)
(22.4384 4.18413 9.289e-18)
(22.4359 3.94366 -3.73234e-16)
(22.4504 3.729 -5.80896e-16)
(22.478 3.53594 2.10199e-17)
(24.3482 6.98753 -4.49021e-18)
(24.1218 6.82714 2.68112e-17)
(23.9103 6.65692 4.21508e-17)
(23.6872 6.44703 1.88457e-17)
(23.4602 6.19833 1.07547e-16)
(23.255 5.9304 6.71045e-16)
(23.069 5.63497 -4.26089e-16)
(22.9097 5.31853 3.25038e-16)
(22.7873 5.0039 1.16771e-15)
(22.7023 4.70646 -9.48371e-16)
(22.6492 4.42807 8.23487e-16)
(22.6227 4.17358 5.7492e-16)
(22.6175 3.94758 9.05122e-16)
(22.6282 3.74624 -1.45871e-16)
(22.6512 3.56558 -3.70108e-16)
(22.6838 3.403 -3.97063e-16)
(24.4638 6.80819 -1.11266e-20)
(24.247 6.65868 -8.66476e-17)
(24.0442 6.49961 1.3241e-16)
(23.83 6.30306 -5.39933e-17)
(23.6118 6.06951 5.51752e-16)
(23.4142 5.81756 -3.92971e-16)
(23.2346 5.53933 7.76539e-17)
(23.0802 5.24096 1.16428e-15)
(22.9609 4.94415 -1.42088e-15)
(22.8773 4.66359 6.00819e-16)
(22.8241 4.40113 -9.77472e-16)
(22.7963 4.16144 -1.18291e-15)
(22.7886 3.94894 -5.55867e-16)
(22.7961 3.76002 2.36591e-16)
(22.815 3.59089 5.75433e-16)
(22.8429 3.43904 2.29963e-16)
(24.363 6.49838 -3.12939e-17)
(24.1686 6.34977 -4.53109e-17)
(23.963 6.16571 -3.0278e-17)
(23.7533 5.94639 -3.7286e-16)
(23.563 5.70945 6.65088e-16)
(23.3896 5.4474 -3.55633e-16)
(23.24 5.16603 -1.45935e-15)
(23.1239 4.88597 1.38996e-15)
(23.0418 4.62127 1.97252e-16)
(22.9887 4.37375 4.39909e-16)
(22.9597 4.14792 5.27508e-16)
(22.95 3.94804 -8.5242e-17)
(22.9546 3.77069 9.52954e-17)
(22.9699 3.61226 -5.74955e-16)
(22.9935 3.47038 3.07294e-16)
(23.0241 3.34104 -5.75901e-16)
(24.4704 6.34579 -1.98341e-17)
(24.2842 6.20698 6.44216e-17)
(24.0868 6.03464 -2.57165e-16)
(23.8853 5.82869 7.93167e-17)
(23.7022 5.60586 -6.38475e-16)
(23.5348 5.35903 1.5585e-16)
(23.39 5.09366 3.79259e-17)
(23.277 4.82937 -4.91431e-17)
(23.1965 4.57956 -2.25949e-16)
(23.1436 4.34607 1.17603e-15)
(23.1138 4.13322 -1.26385e-16)
(23.1022 3.94513 1.0264e-15)
(23.1043 3.77856 -3.3905e-16)
(23.1164 3.63009 3.31465e-16)
(23.1363 3.49745 -2.4799e-16)
(23.1624 3.37682 4.32267e-16)
(24.5699 6.20049 -9.15773e-17)
(24.3916 6.07086 -1.19751e-17)
(24.2022 5.90952 4.13956e-16)
(24.0086 5.71616 1.49856e-17)
(23.8324 5.50658 3.82632e-16)
(23.6709 5.27407 -5.172e-16)
(23.5308 5.02377 8.57971e-17)
(23.4209 4.77431 -2.64177e-16)
(23.3421 4.53852 2.10062e-16)
(23.2896 4.3182 -6.36443e-16)
(23.259 4.11753 -3.57448e-16)
(23.2459 3.94046 -1.12153e-15)
(23.2457 3.78394 3.44531e-16)
(23.255 3.64472 1.3188e-16)
(23.2715 3.52065 -1.15327e-16)
(23.2938 3.40806 -1.21391e-16)
(24.6622 6.0621 6.71787e-17)
(24.4914 5.94108 1.49074e-16)
(24.3097 5.79006 -1.75336e-16)
(24.1238 5.60852 -5.36904e-16)
(23.9542 5.41143 7.8859e-17)
(23.7986 5.1924 -1.40827e-16)
(23.663 4.95629 4.7637e-16)
(23.5563 4.7208 6.90399e-16)
(23.4792 4.4982 -4.87133e-16)
(23.4271 4.29025 -7.31143e-16)
(23.396 4.101 1.43449e-15)
(23.3816 3.93423 6.51959e-16)
(23.3794 3.78707 -2.07894e-16)
(23.3862 3.65645 1.01366e-16)
(23.3997 3.54032 5.41481e-16)
(23.4185 3.43517 4.38592e-16)
(23.4421 3.33818 6.41361e-17)
(24.7477 5.93025 -1.50374e-17)
(24.5841 5.8173 -1.65554e-16)
(24.4099 5.67598 2.16901e-17)
(24.2314 5.50557 8.12601e-16)
(24.0684 5.32021 -6.82967e-16)
(23.9184 5.11388 8.12455e-17)
(23.7873 4.89113 -4.26996e-17)
(23.6836 4.66881 -4.58411e-16)
(23.6083 4.45861 1.35161e-15)
(23.5568 4.26229 2.80618e-17)
(23.5253 4.08375 -1.36104e-15)
(23.5097 3.92661 3.61651e-16)
(23.5058 3.78818 -6.25865e-16)
(23.5103 3.66555 -5.26232e-16)
(23.5212 3.55677 -2.12443e-16)
(23.537 3.45851 9.06752e-17)
(23.5571 3.36805 5.9733e-17)
(24.8269 5.80463 -4.03927e-17)
(24.6703 5.69925 1.05536e-16)
(24.5033 5.56702 1.01523e-16)
(24.332 5.40708 -8.43847e-16)
(24.1753 5.23277 6.90543e-16)
(24.0308 5.03839 -2.71793e-16)
(23.9041 4.82824 9.8927e-16)
(23.8035 4.61832 6.79698e-16)
(23.73 4.4198 -1.95797e-15)
(23.6792 4.23441 -8.96397e-16)
(23.6474 4.06589 3.78166e-16)
(23.6308 3.91777 -1.35058e-16)
(23.6253 3.78748 4.21628e-16)
(23.6279 3.67228 -3.40253e-16)
(23.6364 3.57032 -8.83463e-17)
(23.6494 3.47843 -6.96044e-17)
(23.6664 3.39399 -7.29641e-17)
(24.9003 5.68491 1.35244e-18)
(24.7505 5.58662 1.13523e-16)
(24.5904 5.46294 -1.6942e-16)
(24.4261 5.31284 4.35775e-16)
(24.2755 5.14893 -2.63906e-16)
(24.1363 4.96581 4.76317e-16)
(24.0139 4.76754 -9.32996e-16)
(23.9165 4.5693 -1.09265e-16)
(23.8447 4.38177 1.61376e-15)
(23.7946 4.20665 -1.16301e-16)
(23.7627 4.04755 -2.44305e-16)
(23.7453 3.90786 -6.26365e-17)
(23.7385 3.78516 5.76406e-16)
(23.7392 3.67687 3.08364e-16)
(23.7456 3.58123 -3.15553e-16)
(23.7563 3.49521 4.77743e-16)
(23.7705 3.41634 5.3349e-17)
(23.7881 3.34274 -3.88327e-16)
(24.9683 5.5708 -1.10571e-17)
(24.825 5.47917 -1.82294e-16)
(24.6717 5.36351 4.27341e-17)
(24.5141 5.22268 3.60071e-17)
(24.3695 5.06856 -3.0701e-16)
(24.2355 4.89605 -3.50701e-16)
(24.1173 4.70896 -4.60482e-16)
(24.0229 4.52173 -1.13563e-15)
(23.9529 4.34454 6.13076e-16)
(23.9037 4.17909 1.21791e-15)
(23.8717 4.02882 4.25185e-16)
(23.8536 3.89701 4.56044e-17)
(23.8456 3.7814 1.94579e-16)
(23.8448 3.67953 2.96883e-16)
(23.8493 3.58974 -3.79399e-16)
(23.8578 3.50917 -9.41891e-17)
(23.8697 3.43542 3.6854e-16)
(23.8845 3.36671 -1.25762e-17)
(25.0313 5.46205 4.15192e-17)
(24.8943 5.37665 -5.8178e-17)
(24.7475 5.26852 9.57115e-18)
(24.5965 5.1364 -1.87274e-16)
(24.4576 4.9915 6.68582e-16)
(24.3286 4.82898 1.06188e-15)
(24.2147 4.65245 -4.21042e-16)
(24.1232 4.47559 1.74356e-16)
(24.0551 4.30814 -4.48814e-16)
(24.0067 4.15176 -1.0948e-15)
(23.9748 4.00978 -4.9851e-16)
(23.9561 3.88536 -3.07865e-16)
(23.947 3.77635 -5.57073e-16)
(23.9449 3.68045 1.73678e-16)
(23.9478 3.59609 2.68132e-16)
(23.9544 3.52054 4.5783e-17)
(23.9641 3.45153 -1.91614e-16)
(23.9764 3.38733 -4.08128e-16)
(25.0897 5.35839 -4.71308e-17)
(24.9587 5.27884 1.07052e-16)
(24.8182 5.17777 -1.72365e-16)
(24.6735 5.05385 -2.16062e-16)
(24.5403 4.91762 -4.257e-16)
(24.4162 4.76452 2.89181e-17)
(24.3063 4.59793 1.09947e-15)
(24.2178 4.43084 -5.05213e-16)
(24.1515 4.27257 1.58942e-17)
(24.104 4.12472 -2.6475e-16)
(24.0723 3.99053 5.8667e-16)
(24.0532 3.873 1.07887e-16)
(24.0432 3.77016 -4.59714e-16)
(24.0399 3.67981 5.21823e-16)
(24.0413 3.60049 1.06205e-16)
(24.0462 3.52958 -3.02563e-16)
(24.054 3.46493 5.81831e-16)
(24.0642 3.4049 -5.04689e-16)
(24.0769 3.34775 8.2019e-17)
(25.1437 5.25958 -9.02162e-17)
(25.0186 5.18551 6.83608e-17)
(24.8842 5.09108 2.11827e-16)
(24.7456 4.97487 1.50936e-16)
(24.6178 4.8468 4.27384e-16)
(24.4986 4.70257 -6.24793e-16)
(24.3927 4.54535 -1.67275e-15)
(24.3071 4.38747 1.37173e-16)
(24.2427 4.23783 -1.24457e-16)
(24.1961 4.09801 8.71102e-16)
(24.1646 3.97112 1.02058e-15)
(24.1451 3.86006 -2.45844e-16)
(24.1344 3.76297 4.53396e-16)
(24.13 3.67779 -4.11422e-16)
(24.1302 3.60313 -6.48357e-16)
(24.1336 3.53651 -1.90655e-16)
(24.1397 3.4759 -2.50627e-17)
(24.1481 3.4197 5.64676e-16)
(24.1586 3.36626 -7.36893e-18)
(25.1937 5.16541 5.4251e-17)
(25.0743 5.09647 -1.6033e-16)
(24.9458 5.00826 -2.16058e-17)
(24.8132 4.8993 -2.49362e-16)
(24.6906 4.77891 1.84391e-16)
(24.5761 4.64303 6.41798e-16)
(24.4741 4.49464 1.31261e-15)
(24.3914 4.34546 -3.79896e-16)
(24.3288 4.20394 -6.13609e-17)
(24.2833 4.07167 -8.41151e-16)
(24.252 3.95163 -2.57311e-16)
(24.2323 3.84662 3.97969e-17)
(24.221 3.7549 -7.63544e-16)
(24.2157 3.67453 -5.32177e-17)
(24.2147 3.60419 4.66741e-16)
(24.2169 3.54155 4.38241e-16)
(24.2215 3.48465 -3.09721e-16)
(24.2282 3.43199 -3.10849e-16)
(24.2369 3.38196 1.67894e-16)
(25.24 5.07566 -1.23445e-17)
(25.126 5.01152 7.34267e-17)
(25.0033 4.92915 -2.63311e-16)
(24.8764 4.827 -7.99618e-17)
(24.759 4.71384 2.09542e-16)
(24.6491 4.58583 -4.34678e-16)
(24.5509 4.44577 -5.39952e-16)
(24.471 4.30477 -1.20865e-16)
(24.4103 4.17091 8.36488e-16)
(24.3658 4.04573 -2.82347e-16)
(24.3349 3.93212 6.84215e-17)
(24.3151 3.83277 -5.92317e-16)
(24.3032 3.74607 3.52391e-16)
(24.2971 3.67017 2.83286e-16)
(24.2951 3.60386 -2.7002e-16)
(24.2962 3.54489 2.68728e-16)
(24.2995 3.49143 1.20604e-16)
(24.3047 3.44202 -3.65445e-16)
(24.3118 3.39515 3.31722e-16)
(24.3207 3.34943 5.61251e-17)
(25.2828 4.99012 3.65576e-18)
(25.1742 4.93049 -1.35809e-17)
(25.057 4.85359 6.53756e-17)
(24.9357 4.75785 2.01415e-16)
(24.8233 4.65149 -2.93897e-16)
(24.7178 4.53089 -4.68132e-16)
(24.6234 4.39867 9.91129e-16)
(24.5463 4.26538 1.07046e-15)
(24.4875 4.13872 2.86689e-16)
(24.444 4.02022 -2.98152e-16)
(24.4135 3.91265 3.14832e-16)
(24.3936 3.81861 6.30174e-16)
(24.3813 3.73659 -7.01921e-16)
(24.3745 3.66486 2.15029e-16)
(24.3717 3.60228 7.99625e-16)
(24.3717 3.54672 -6.06301e-16)
(24.3739 3.49642 -1.95711e-16)
(24.3779 3.45003 1.7428e-16)
(24.3836 3.40605 -1.29409e-16)
(24.3909 3.36319 3.14401e-16)
(25.3224 4.90862 -3.46452e-18)
(25.2189 4.8532 -3.77515e-17)
(25.1071 4.78143 2.23744e-16)
(24.9912 4.69171 5.1539e-17)
(24.8836 4.59174 3.20964e-16)
(24.7825 4.47812 -3.32159e-16)
(24.6918 4.3533 -3.51519e-16)
(24.6175 4.22727 -3.38611e-16)
(24.5605 4.1074 -1.2704e-15)
(24.5181 3.99517 7.70943e-16)
(24.4881 3.89327 -8.81063e-16)
(24.4681 3.8042 -5.60791e-16)
(24.4555 3.72656 4.0378e-16)
(24.4482 3.65872 -1.05836e-16)
(24.4446 3.5996 -2.30669e-17)
(24.4438 3.5472 -5.19464e-17)
(24.4451 3.49984 -1.51763e-16)
(24.4479 3.45621 -2.77055e-16)
(24.4523 3.41492 3.63064e-16)
(24.4583 3.37469 -3.99136e-16)
(25.3591 4.83098 -2.05544e-17)
(25.2604 4.77949 1.16971e-16)
(25.1539 4.71252 3.10434e-17)
(25.0432 4.62847 -4.1216e-16)
(24.9404 4.53452 2.24465e-16)
(24.8435 4.42747 8.32591e-16)
(24.7564 4.3096 -6.19043e-16)
(24.6848 4.19042 4.9985e-16)
(24.6297 4.07694 1.7989e-15)
(24.5884 3.97061 2.97571e-17)
(24.5589 3.87403 4.75873e-16)
(24.539 3.78963 -1.62601e-16)
(24.5262 3.71608 -2.70264e-16)
(24.5183 3.65186 -4.39927e-17)
(24.5142 3.59597 1.16907e-16)
(24.5126 3.54649 8.16623e-16)
(24.513 3.50185 -2.32266e-17)
(24.515 3.46079 -3.41731e-16)
(24.5183 3.42197 2.75427e-16)
(24.523 3.38417 -1.25577e-16)
(24.5292 3.34631 6.59733e-17)
(25.3929 4.75701 1.53332e-17)
(25.299 4.70921 -7.24545e-17)
(25.1976 4.64674 -7.31794e-17)
(25.092 4.568 5.91463e-16)
(24.9937 4.47971 -2.17486e-16)
(24.901 4.37884 1.95846e-16)
(24.8174 4.26754 -1.20331e-16)
(24.7486 4.1548 -1.85177e-15)
(24.6953 4.04734 -1.58218e-16)
(24.6551 3.94656 6.78139e-16)
(24.6262 3.85498 4.20179e-16)
(24.6064 3.77495 -4.64738e-16)
(24.5934 3.70523 1.93098e-16)
(24.5852 3.64439 -3.25105e-17)
(24.5805 3.5915 -1.87084e-16)
(24.5783 3.54475 2.76879e-16)
(24.578 3.50262 -1.90024e-16)
(24.5791 3.46393 5.16851e-16)
(24.5815 3.4274 -3.58862e-16)
(24.5852 3.39186 1.3071e-16)
(24.5902 3.35624 -7.98026e-17)
(25.4242 4.68656 -2.26298e-17)
(25.3349 4.64221 6.04475e-17)
(25.2384 4.58396 -4.27791e-17)
(25.1377 4.51021 -4.80346e-16)
(25.0439 4.42723 -4.67317e-16)
(24.9553 4.33219 -1.2058e-15)
(24.8752 4.22707 1.42268e-15)
(24.8089 4.1204 6.15939e-16)
(24.7575 4.0186 3.8972e-16)
(24.7185 3.92305 -1.41822e-15)
(24.6901 3.83617 -6.12145e-16)
(24.6705 3.76023 -5.94529e-16)
(24.6574 3.6941 3.0888e-16)
(24.6489 3.63642 -1.34274e-16)
(24.6438 3.58633 -1.7572e-16)
(24.6411 3.5421 1.92368e-16)
(24.6401 3.5023 -4.29765e-16)
(24.6406 3.46582 1.14399e-16)
(24.6422 3.43141 -1.55272e-16)
(24.645 3.39795 -1.51752e-16)
(24.649 3.36442 3.15824e-16)
(25.4531 4.61949 -2.19346e-17)
(25.3683 4.57836 8.4103e-17)
(25.2765 4.52404 7.40941e-17)
(25.1807 4.45498 2.19395e-16)
(25.0912 4.37701 7.31079e-16)
(25.0065 4.28745 6.76186e-16)
(24.9298 4.18814 -2.58304e-16)
(24.8662 4.08719 2.93669e-16)
(24.8165 3.99072 -4.21256e-16)
(24.7786 3.90009 1.07989e-16)
(24.7509 3.81763 9.04782e-16)
(24.7316 3.74554 5.92625e-16)
(24.7184 3.68276 -1.31437e-16)
(24.7097 3.62804 -3.47943e-16)
(24.7042 3.58055 -4.55608e-17)
(24.7011 3.53868 1.81791e-16)
(24.6996 3.50105 -2.63242e-16)
(24.6995 3.4666 2.86686e-17)
(24.7004 3.43416 -2.09681e-16)
(24.7025 3.40263 -7.04609e-17)
(24.7056 3.37105 8.93651e-17)
(25.4797 4.55563 -1.57105e-17)
(25.3993 4.51751 3.37827e-18)
(25.3121 4.46689 -8.09798e-17)
(25.2209 4.40223 -3.54179e-17)
(25.1357 4.32896 -1.95795e-16)
(25.0549 4.24455 4.04635e-16)
(24.9815 4.15072 -1.04521e-15)
(24.9204 4.05516 8.74448e-16)
(24.8725 3.96371 2.15573e-16)
(24.8358 3.8777 -6.01396e-16)
(24.8087 3.79939 7.1151e-16)
(24.7897 3.73092 -3.56255e-16)
(24.7766 3.67129 1.28219e-16)
(24.7677 3.61933 3.60358e-16)
(24.762 3.57428 1.28332e-16)
(24.7585 3.5346 -8.47237e-17)
(24.7566 3.49899 3.34315e-16)
(24.756 3.46644 -4.68819e-16)
(24.7564 3.43582 2.85213e-16)
(24.7578 3.40609 -1.5519e-17)
(24.7601 3.37631 2.17227e-16)
(24.7636 3.34549 -2.26527e-16)
(25.5043 4.49486 -1.12544e-17)
(25.4281 4.45955 5.03465e-17)
(25.3454 4.41238 3.38926e-17)
(25.2587 4.35185 1.28383e-16)
(25.1776 4.283 -1.94314e-16)
(25.1006 4.20344 -6.45149e-16)
(25.0305 4.11477 8.52717e-16)
(24.9719 4.02428 -4.48515e-16)
(24.9257 3.93756 -4.75607e-16)
(24.8902 3.8559 1.27784e-15)
(24.8638 3.7815 -1.09613e-15)
(24.8451 3.71642 -2.12012e-16)
(24.8321 3.65974 6.89473e-16)
(24.8231 3.61038 -7.71716e-16)
(24.8172 3.56761 1.67523e-16)
(24.8134 3.52998 -2.62613e-16)
(24.8112 3.49625 5.7226e-17)
(24.8102 3.46546 7.76005e-17)
(24.8102 3.43653 -4.45013e-17)
(24.811 3.40848 -1.55081e-16)
(24.8127 3.38037 -8.93597e-18)
(24.8155 3.35127 2.76204e-16)
(25.527 4.43704 3.36713e-17)
(25.4548 4.40436 -2.99983e-17)
(25.3765 4.36042 8.18651e-17)
(25.2942 4.30376 1.4128e-16)
(25.2171 4.23906 9.05116e-17)
(25.1438 4.16407 8.98584e-16)
(25.0769 4.08025 -1.21089e-16)
(25.0207 3.99454 -3.06141e-16)
(24.9763 3.91227 4.73174e-16)
(24.9419 3.83471 -1.72523e-15)
(24.9163 3.76398 9.18885e-16)
(24.8979 3.70209 5.67947e-16)
(24.8851 3.64819 -1.09158e-16)
(24.8761 3.60126 7.4468e-16)
(24.8701 3.56063 -6.83422e-16)
(24.8661 3.52491 4.07629e-16)
(24.8636 3.49293 5.0294e-16)
(24.8623 3.46379 -4.1521e-16)
(24.8619 3.43644 -3.62847e-17)
(24.8622 3.40994 -9.39608e-17)
(24.8634 3.3834 1.70492e-16)
(24.8656 3.35591 -7.63788e-17)
(25.5479 4.38205 3.3761e-17)
(25.4797 4.35181 -2.49318e-17)
(25.4056 4.31089 -5.60976e-17)
(25.3276 4.25787 -3.28003e-16)
(25.2544 4.19707 3.32855e-17)
(25.1847 4.12637 -7.17833e-16)
(25.1209 4.04711 -7.51202e-16)
(25.0671 3.9659 -3.7719e-16)
(25.0244 3.88783 -7.41723e-16)
(24.9912 3.81413 -1.13423e-17)
(24.9663 3.74686 -3.99624e-16)
(24.9484 3.68798 -3.4158e-16)
(24.9357 3.63669 -1.01676e-16)
(24.9268 3.59205 -4.9584e-16)
(24.9207 3.55341 4.22683e-17)
(24.9166 3.51948 1.4108e-16)
(24.9139 3.48915 -3.26475e-16)
(24.9123 3.46154 -1.05175e-16)
(24.9116 3.43566 3.50855e-16)
(24.9116 3.41061 -1.0779e-16)
(24.9123 3.38553 1.98338e-16)
(24.9139 3.35954 7.53347e-17)
(25.5672 4.32976 -1.68405e-17)
(25.5028 4.30181 -3.59524e-18)
(25.4328 4.26371 -7.67193e-17)
(25.359 4.21409 -2.0598e-16)
(25.2896 4.15697 -2.42436e-16)
(25.2235 4.0903 9.08756e-17)
(25.1626 4.01534 6.89544e-16)
(25.1111 3.93837 1.72704e-15)
(25.0701 3.86424 -7.20183e-16)
(25.0381 3.79417 -4.18595e-17)
(25.014 3.73017 2.47332e-16)
(24.9966 3.67412 -4.35205e-17)
(24.9842 3.62529 -6.98777e-17)
(24.9754 3.58279 -4.33135e-16)
(24.9692 3.54603 -2.80496e-16)
(24.965 3.51378 5.00276e-16)
(24.9622 3.48498 -1.44279e-16)
(24.9603 3.4588 -4.70591e-17)
(24.9594 3.4343 1.29106e-18)
(24.9591 3.41059 -2.72924e-18)
(24.9594 3.38688 -8.08444e-17)
(24.9606 3.36229 -3.04366e-16)
(24.9626 3.33578 8.7437e-17)
(25.5849 4.28005 -1.55307e-17)
(25.5243 4.25424 5.87367e-17)
(25.4583 4.21878 1.913e-16)
(25.3885 4.17236 1.14225e-16)
(25.3228 4.11868 -1.97381e-16)
(25.2602 4.05581 -4.24196e-16)
(25.2022 3.98488 3.74956e-16)
(25.153 3.91191 -1.21447e-15)
(25.1136 3.8415 1.96323e-15)
(25.0828 3.77485 5.10965e-16)
(25.0596 3.71393 -6.10771e-16)
(25.0427 3.66054 1.39364e-16)
(25.0305 3.61403 9.56536e-16)
(25.0218 3.57355 -6.79648e-16)
(25.0157 3.53855 2.0827e-17)
(25.0114 3.50788 1.63516e-16)
(25.0084 3.48051 2.20691e-16)
(25.0065 3.45566 -2.37193e-17)
(25.0052 3.43244 -3.3617e-16)
(25.0047 3.41 5.1587e-16)
(25.0047 3.38756 -4.03328e-16)
(25.0054 3.36428 3.22593e-16)
(25.007 3.33916 4.23588e-18)
(25.6013 4.23283 -3.96895e-17)
(25.5442 4.20901 9.40063e-17)
(25.4821 4.17601 -5.57861e-18)
(25.4162 4.1326 -8.53316e-17)
(25.3543 4.08215 -5.21553e-17)
(25.2949 4.02284 8.55384e-16)
(25.2398 3.95572 -2.3237e-16)
(25.1928 3.88651 5.83242e-16)
(25.1551 3.8196 -2.00979e-15)
(25.1256 3.75618 -3.9824e-16)
(25.1031 3.69815 9.08443e-16)
(25.0868 3.64728 5.56987e-17)
(25.0749 3.60294 -1.81819e-16)
(25.0663 3.56436 -7.50717e-16)
(25.0602 3.53102 8.35762e-16)
(25.0559 3.50182 -2.65655e-17)
(25.0528 3.47579 -2.98643e-16)
(25.0506 3.45219 -3.00341e-17)
(25.0492 3.43016 7.21693e-17)
(25.0484 3.4089 -9.63619e-17)
(25.0482 3.38764 3.28965e-16)
(25.0485 3.3656 -4.1112e-16)
(25.0496 3.34178 2.24491e-16)
(25.6163 4.18798 -5.21846e-18)
(25.5628 4.16602 7.75523e-18)
(25.5044 4.13532 -1.08296e-16)
(25.4424 4.09473 -2.43098e-16)
(25.384 4.04732 2.3498e-16)
(25.3279 3.99136 -1.08016e-15)
(25.2755 3.92781 5.35744e-16)
(25.2307 3.86216 -4.61694e-17)
(25.1947 3.79854 4.88014e-16)
(25.1663 3.73815 -1.52089e-16)
(25.1447 3.68286 6.00621e-16)
(25.1289 3.63435 -2.80976e-16)
(25.1173 3.59206 4.16814e-16)
(25.1089 3.55526 8.03023e-17)
(25.1028 3.52347 3.52987e-16)
(25.0983 3.49565 -2.35848e-16)
(25.0951 3.47087 -2.57902e-16)
(25.0928 3.44844 2.00101e-16)
(25.0913 3.42753 -1.78868e-16)
(25.0902 3.40736 1.13997e-16)
(25.0898 3.38722 -1.53416e-16)
(25.0898 3.36632 3.33306e-16)
(25.0905 3.34373 -1.75036e-16)
(25.6302 4.1454 -5.34362e-18)
(25.58 4.12518 1.18335e-17)
(25.5254 4.09662 -1.25717e-16)
(25.467 4.05869 5.30931e-16)
(25.4121 4.01413 -1.93971e-16)
(25.3592 3.96131 1.14166e-15)
(25.3094 3.90112 7.29197e-16)
(25.2667 3.83883 1.24302e-16)
(25.2324 3.77831 9.96578e-16)
(25.2053 3.72077 3.24206e-17)
(25.1845 3.66805 -8.36874e-16)
(25.1691 3.62177 -6.56139e-16)
(25.1578 3.5814 -4.12812e-16)
(25.1494 3.54627 4.85808e-16)
(25.1433 3.51594 -1.89602e-17)
(25.1388 3.4894 4.96499e-16)
(25.1355 3.4658 -4.75356e-16)
(25.1331 3.44446 6.22471e-18)
(25.1313 3.42459 -9.01093e-17)
(25.1301 3.40545 -1.42486e-16)
(25.1294 3.38635 6.14999e-18)
(25.1292 3.36654 -9.41273e-17)
(25.1296 3.34509 1.14784e-16)
(25.6429 4.105 4.1538e-17)
(25.596 4.0864 -6.98496e-17)
(25.545 4.05984 2.83679e-16)
(25.4903 4.02441 -5.37805e-16)
(25.4388 3.98253 1.96151e-16)
(25.389 3.93266 -1.34349e-15)
(25.3417 3.87564 -6.61007e-16)
(25.3011 3.81653 5.04536e-16)
(25.2685 3.75889 -1.09487e-15)
(25.2426 3.70403 4.54323e-16)
(25.2225 3.65373 8.12335e-17)
(25.2075 3.60954 5.05076e-17)
(25.1963 3.57097 -2.37892e-16)
(25.188 3.5374 -2.68266e-16)
(25.1819 3.50843 8.44618e-17)
(25.1773 3.4831 3.53216e-16)
(25.1739 3.46061 -3.02973e-16)
(25.1714 3.44029 4.03589e-16)
(25.1695 3.4214 -1.64145e-16)
(25.1682 3.40323 9.95942e-17)
(25.1673 3.38511 -2.4397e-16)
(25.1668 3.36632 3.00489e-16)
(25.1669 3.34596 -5.07166e-17)
(25.1677 3.32352 -1.5143e-16)
(25.6545 4.06668 -2.30161e-17)
(25.611 4.04959 4.04656e-17)
(25.5634 4.0249 -4.24326e-17)
(25.5122 3.99183 -1.82601e-16)
(25.4641 3.95245 -4.08207e-17)
(25.4172 3.90536 8.43783e-16)
(25.3723 3.85133 3.54449e-16)
(25.3339 3.79522 -1.28813e-15)
(25.303 3.74028 -5.93352e-16)
(25.2782 3.68792 3.72351e-16)
(25.2587 3.63989 -5.30214e-16)
(25.244 3.59766 8.40823e-16)
(25.2329 3.56078 1.22232e-16)
(25.2246 3.52867 1.04172e-16)
(25.2185 3.50098 -1.34473e-17)
(25.2139 3.4768 7.46201e-17)
(25.2104 3.45534 -7.21815e-16)
(25.2078 3.43599 2.07695e-16)
(25.2059 3.41803 8.09137e-17)
(25.2044 3.40076 8.966e-17)
(25.2034 3.38357 -1.76673e-16)
(25.2028 3.36573 1.8733e-16)
(25.2026 3.3464 6.65486e-17)
(25.2031 3.32508 -5.78745e-17)
(25.6653 4.03035 -1.15423e-17)
(25.6248 4.01468 -2.81144e-17)
(25.5807 3.99173 1.07421e-16)
(25.5329 3.96089 1.6627e-16)
(25.488 3.92385 2.94685e-16)
(25.444 3.87939 7.54923e-17)
(25.4015 3.82817 5.08469e-17)
(25.3653 3.77492 2.84583e-16)
(25.336 3.72244 1.65672e-15)
(25.3121 3.67241 8.27256e-17)
(25.293 3.62651 6.79702e-16)
(25.2785 3.58612 -7.12232e-16)
(25.2676 3.55082 -1.3497e-16)
(25.2593 3.5201 1.16546e-16)
(25.2532 3.49363 -3.70554e-17)
(25.2486 3.47052 1.45084e-16)
(25.2452 3.45005 -6.67427e-17)
(25.2425 3.43161 4.64468e-16)
(25.2405 3.41452 -4.9457e-16)
(25.239 3.39811 3.11607e-16)
(25.2379 3.38178 -5.02326e-16)
(25.2371 3.36485 3.32079e-16)
(25.2368 3.3465 -2.55573e-16)
(25.237 3.32622 -9.55055e-17)
(25.6751 3.99593 2.01691e-17)
(25.6377 3.98158 -1.02337e-17)
(25.5969 3.96026 -2.64197e-16)
(25.5525 3.93153 1.35968e-16)
(25.5108 3.89668 -5.66709e-16)
(25.4695 3.8547 1.67286e-16)
(25.4293 3.80615 -1.53913e-17)
(25.3954 3.7556 1.24662e-15)
(25.3675 3.70536 -1.99758e-15)
(25.3442 3.65748 3.68642e-16)
(25.3255 3.61359 -7.07819e-16)
(25.3112 3.57493 5.41036e-16)
(25.3004 3.54113 -2.6273e-16)
(25.2923 3.51172 -2.60642e-16)
(25.2863 3.4864 1.53368e-16)
(25.2817 3.46432 -2.40252e-17)
(25.2783 3.44478 -1.13361e-18)
(25.2756 3.4272 1.49268e-17)
(25.2735 3.41092 3.14928e-16)
(25.2719 3.39532 -2.14385e-19)
(25.2707 3.3798 -2.91199e-17)
(25.2699 3.36372 -1.82067e-16)
(25.2694 3.34628 2.38437e-17)
(25.2694 3.327 3.45945e-17)
(25.6841 3.96334 -4.59083e-17)
(25.6498 3.95021 -3.41794e-17)
(25.6121 3.93042 2.81209e-17)
(25.571 3.90369 -4.74881e-16)
(25.5325 3.87088 3.4564e-16)
(25.4937 3.83125 -5.51698e-16)
(25.4557 3.78521 -7.32698e-16)
(25.4241 3.73725 -7.89461e-16)
(25.3976 3.689 1.12021e-15)
(25.3747 3.64314 -9.40797e-16)
(25.3562 3.60116 5.48007e-16)
(25.3422 3.56413 3.53787e-16)
(25.3317 3.53174 -4.01002e-17)
(25.3237 3.50357 1.644e-16)
(25.3177 3.47933 -4.1421e-19)
(25.3132 3.45822 2.15496e-16)
(25.3097 3.43954 -1.19264e-17)
(25.307 3.42276 -3.26698e-16)
(25.3049 3.40725 -4.78682e-17)
(25.3033 3.3924 8.6445e-17)
(25.3019 3.37765 -6.48592e-17)
(25.3009 3.36236 -5.50289e-18)
(25.3002 3.34577 5.69306e-17)
(25.3 3.32742 4.62155e-17)
(25.6924 3.93247 2.35715e-17)
(25.6609 3.92048 -2.59149e-17)
(25.6264 3.90213 6.22761e-17)
(25.5885 3.8773 5.44164e-16)
(25.553 3.84639 8.10587e-16)
(25.5166 3.80902 1.87438e-16)
(25.4809 3.76533 4.05722e-16)
(25.4517 3.71988 -2.02352e-16)
(25.4261 3.67332 9.47931e-16)
(25.4035 3.62935 -8.66029e-16)
(25.3853 3.58922 1.84211e-16)
(25.3717 3.55373 -1.01916e-16)
(25.3614 3.52266 -1.87589e-16)
(25.3535 3.49566 -1.59588e-16)
(25.3476 3.47244 -2.03883e-16)
(25.343 3.45222 1.45048e-16)
(25.3395 3.43435 -1.09361e-16)
(25.3368 3.41831 -3.24671e-17)
(25.3345 3.40351 -8.89744e-17)
(25.3327 3.38936 2.59448e-16)
(25.3313 3.3753 2.1818e-16)
(25.3301 3.36076 -2.08894e-17)
(25.3292 3.34496 -5.78458e-17)
(25.3288 3.32749 -1.20002e-16)
(25.6999 3.90324 -2.46006e-18)
(25.6714 3.89232 -7.36418e-17)
(25.6399 3.87534 1.30687e-16)
(25.6052 3.85233 -3.88331e-16)
(25.5726 3.82319 -9.73042e-16)