/*--------------------------------*- C++ -*----------------------------------*\
| =========                 |                                                 |
| \\      /  F ield         | OpenFOAM: The Open Source CFD Toolbox           |
|  \\    /   O peration     | Version:  2306                                  |
|   \\  /    A nd           | Website:  www.openfoam.com                      |
|    \\/     M anipulation  |                                                 |
\*---------------------------------------------------------------------------*/
FoamFile
{
    version     2.0;
    format      ascii;
    arch        "LSB;label=32;scalar=64";
    class       volScalarField;
    location    "550";
    object      div(phi);
}
// * * * * * * * * * * * * * * * * * * * * * * * * * * * * * * * * * * * * * //

dimensions      [0 0 -1 0 0 0 0];

internalField   nonuniform List<scalar> 
10720
(
7.45549e-06
-5.59556e-06
4.07675e-06
-3.26859e-06
2.58364e-06
7.92879e-07
3.53419e-06
2.11985e-06
9.86465e-07
-6.27594e-07
-8.69481e-07
-1.15413e-06
-6.75959e-07
-6.27456e-07
-2.69379e-07
-3.37161e-07
-5.41653e-08
-2.2382e-07
2.42689e-07
-1.08381e-08
9.92606e-07
1.14458e-06
4.2011e-06
5.8996e-06
7.82087e-06
5.02221e-06
1.67117e-06
4.50586e-06
4.39219e-06
2.5984e-06
-1.08064e-05
2.34254e-05
4.49763e-06
1.21789e-06
-6.72988e-06
3.00125e-05
7.79314e-05
-2.20556e-05
6.03188e-05
-5.6586e-06
6.15714e-06
-1.35052e-08
1.28105e-06
9.3523e-07
-4.52926e-06
-2.14327e-06
-7.12825e-06
-1.41984e-06
-1.37333e-07
-6.39784e-08
4.72138e-07
3.11899e-07
6.25371e-07
3.53484e-07
5.33868e-07
2.85071e-07
5.73418e-07
2.31793e-07
6.5141e-07
3.18402e-08
3.60382e-07
-1.04135e-06
-1.63922e-06
-1.81073e-06
-1.76432e-06
-1.24197e-06
-1.17806e-06
1.61193e-06
-2.82493e-06
-1.08187e-06
-1.47058e-06
-1.53133e-06
-2.53183e-06
-2.539e-06
-4.6342e-07
-1.40214e-05
-9.89085e-06
-1.09584e-05
3.52778e-06
-1.54325e-06
2.55973e-06
-2.41806e-06
2.76135e-06
1.44197e-06
2.85852e-06
1.93544e-06
2.79487e-07
-7.42025e-07
-9.47946e-07
-1.04744e-06
-6.27174e-07
-6.03073e-07
-2.37789e-07
-2.99261e-07
2.33466e-08
-4.02031e-08
3.58185e-07
2.56585e-07
7.75228e-07
6.62835e-07
1.59136e-06
1.80387e-06
2.54503e-06
2.53922e-06
1.71301e-06
1.31522e-06
1.823e-06
2.0668e-06
-4.39621e-06
1.51099e-05
5.69387e-06
6.11489e-06
2.78239e-06
1.28347e-05
7.01942e-05
5.19512e-05
8.19859e-05
-7.02336e-08
2.88212e-06
-1.10769e-06
6.24063e-07
-2.47272e-06
-8.06363e-07
-5.32691e-06
-1.26482e-06
-4.02996e-07
-1.88674e-07
1.0632e-07
2.70272e-07
4.30129e-07
6.44886e-07
5.50999e-07
6.5504e-07
4.62688e-07
6.0667e-07
3.83872e-07
5.64072e-07
1.76044e-07
2.55452e-07
-7.08923e-07
-1.10301e-06
-1.5419e-06
-1.48417e-06
-1.46245e-06
-1.06908e-06
1.13117e-06
-2.17388e-06
-8.90879e-07
-1.39536e-06
-1.38675e-06
-2.6957e-06
-2.73573e-06
-4.50823e-08
-1.3887e-05
-1.18893e-05
-1.86707e-05
-6.55438e-06
4.28145e-06
-4.25437e-06
3.15933e-06
-3.91358e-07
2.96302e-06
2.18262e-06
9.76287e-07
-2.35386e-07
-6.63058e-07
-1.22206e-06
-8.68299e-07
-8.9936e-07
-5.26917e-07
-5.2444e-07
-3.26017e-07
-3.15436e-07
-2.43299e-07
-1.24393e-07
-1.30488e-07
2.26979e-07
3.69561e-07
1.38143e-06
1.95951e-06
3.20363e-06
1.95134e-06
1.61315e-06
2.5818e-06
2.90259e-06
1.22217e-06
-5.00813e-06
1.12207e-05
1.45961e-06
-1.78576e-06
-6.77998e-06
1.93486e-05
2.66972e-05
-4.10382e-05
1.39187e-05
4.56672e-06
-3.02928e-06
4.6337e-07
-2.61046e-06
-9.88461e-07
-1.72838e-06
-1.32231e-06
-9.27224e-08
3.95325e-08
-4.4422e-08
1.10893e-07
1.10682e-07
4.71802e-07
4.13714e-07
5.79114e-07
3.93596e-07
4.62204e-07
3.8601e-07
3.8826e-07
4.14472e-07
2.32181e-07
1.70471e-07
-6.38223e-07
-1.19946e-06
-1.59442e-06
-1.46598e-06
-1.47379e-06
-9.82756e-07
1.08538e-06
-2.30383e-06
-9.72788e-07
-1.45695e-06
-1.33112e-06
-2.17856e-06
-2.0176e-06
-9.9946e-07
-1.06872e-05
-6.7373e-06
-5.70095e-06
3.12557e-06
-2.74045e-06
1.33276e-06
-7.41636e-07
2.31361e-06
1.94282e-06
1.38253e-06
4.41843e-07
-3.34231e-07
-9.07471e-07
-1.05476e-06
-8.50363e-07
-8.17247e-07
-4.71458e-07
-5.36668e-07
-1.93803e-07
-2.69738e-07
8.12513e-08
7.05928e-08
4.01573e-07
4.24346e-07
7.42767e-07
9.64553e-07
1.49821e-06
1.80922e-06
2.47816e-06
2.05573e-06
1.70606e-06
2.00096e-06
2.0885e-06
-1.32366e-06
1.0113e-05
5.08033e-06
5.17943e-06
3.0875e-06
8.65296e-06
4.66279e-05
3.32891e-05
6.25471e-05
-2.1726e-06
-6.12697e-07
-2.32974e-06
-2.02249e-06
-1.29703e-06
-1.68252e-06
1.75724e-07
2.85693e-07
8.53625e-08
9.07101e-08
-3.3883e-08
1.66501e-07
4.09161e-07
5.50249e-07
6.88978e-07
5.63155e-07
5.98956e-07
4.49956e-07
5.3291e-07
3.64193e-07
3.52412e-07
8.82811e-08
-2.89467e-07
-8.20272e-07
-1.0941e-06
-1.39953e-06
-1.4263e-06
-1.19075e-06
6.2222e-07
-1.73229e-06
-9.44462e-07
-1.39296e-06
-1.4221e-06
-2.65452e-06
-2.59259e-06
-6.0606e-07
-1.37405e-05
-1.25154e-05
-1.99164e-05
1.29324e-06
-1.94145e-07
-1.62697e-07
1.36353e-06
1.36451e-06
1.70195e-06
8.59551e-07
6.16861e-08
-3.8111e-07
-9.9633e-07
-8.25309e-07
-9.89806e-07
-6.50115e-07
-7.45791e-07
-4.76843e-07
-5.27626e-07
-3.40043e-07
-3.63026e-07
-2.33384e-07
-2.22686e-07
-4.71407e-08
1.91266e-07
6.98619e-07
1.4654e-06
2.43437e-06
2.37314e-06
1.59512e-06
3.86498e-06
2.6599e-06
1.38385e-06
-2.89775e-06
7.44304e-06
1.41146e-06
-3.69162e-06
-7.55568e-06
1.97316e-05
1.8428e-05
-4.49934e-05
3.86951e-06
-1.75745e-06
-1.46256e-06
-2.79561e-06
-1.02238e-06
-1.13586e-06
-3.59819e-07
2.45412e-07
4.35151e-07
3.14868e-07
2.43314e-08
-4.74369e-08
1.75639e-07
3.16336e-07
6.45062e-07
5.37723e-07
6.41626e-07
4.11392e-07
5.08699e-07
3.52845e-07
4.44864e-07
2.34281e-07
2.25332e-07
-3.68847e-07
-6.85829e-07
-1.28924e-06
-1.326e-06
-1.55261e-06
-1.01849e-06
3.77858e-07
-1.43786e-06
-9.72102e-07
-1.19194e-06
-1.24879e-06
-1.70739e-06
-1.63647e-06
-1.69128e-06
-8.75009e-06
-4.2867e-06
-3.02504e-06
-8.9679e-07
9.62196e-08
1.29985e-06
3.67019e-07
1.66536e-06
9.29495e-07
4.44593e-07
1.08733e-08
-6.08404e-07
-7.59215e-07
-8.15034e-07
-7.60087e-07
-6.03406e-07
-6.61926e-07
-4.01911e-07
-4.54238e-07
-1.29373e-07
-1.69019e-07
1.87407e-07
1.44804e-07
4.83035e-07
3.99986e-07
8.272e-07
8.90504e-07
1.62525e-06
2.1186e-06
2.70782e-06
2.37949e-06
2.95824e-06
2.5701e-06
4.36096e-07
8.36667e-06
5.41173e-06
5.13354e-06
3.05109e-06
9.73999e-06
3.93244e-05
2.24329e-05
4.91358e-05
-9.61791e-07
-2.28359e-06
-2.11511e-06
-1.07038e-06
-1.76616e-06
-1.1861e-07
5.09067e-07
4.25421e-07
2.45166e-07
-4.42136e-08
-5.71516e-08
7.27074e-08
3.95611e-07
5.98647e-07
7.02526e-07
6.40596e-07
5.26308e-07
5.33689e-07
4.45841e-07
4.20018e-07
2.97174e-07
1.55451e-07
-1.038e-07
-4.81904e-07
-7.60333e-07
-1.20595e-06
-1.30672e-06
-1.33035e-06
2.39981e-07
-1.41556e-06
-1.05952e-06
-1.31707e-06
-1.34924e-06
-2.33015e-06
-2.2169e-06
-1.34597e-06
-1.18469e-05
-1.19816e-05
-1.87228e-05
-2.05006e-06
1.54912e-06
1.17085e-07
1.28707e-06
7.92831e-07
6.02256e-07
2.50085e-07
-8.54227e-08
-5.35617e-07
-5.75487e-07
-7.3282e-07
-5.48586e-07
-7.30419e-07
-5.52317e-07
-6.68428e-07
-4.49535e-07
-4.80373e-07
-3.22485e-07
-3.35302e-07
-2.58886e-07
-2.14005e-07
-6.76293e-08
1.72148e-07
6.62169e-07
1.50375e-06
1.65286e-06
1.95239e-06
3.42619e-06
3.44826e-06
9.44188e-07
-1.64003e-06
5.03674e-06
3.5654e-07
-4.59233e-06
-8.91414e-06
2.20272e-05
1.71815e-05
-4.87996e-05
2.16767e-06
-7.38627e-07
-2.75441e-06
-6.25196e-07
-1.59125e-06
3.03794e-07
-1.63256e-07
1.57648e-07
4.58527e-07
1.48507e-07
-4.41027e-08
-1.18667e-07
5.12985e-08
4.07363e-07
5.7021e-07
7.35404e-07
5.601e-07
5.73421e-07
4.20071e-07
5.06953e-07
3.12347e-07
4.09873e-07
9.20002e-08
7.62791e-08
-5.64588e-07
-6.11036e-07
-1.37719e-06
-1.16151e-06
-1.42521e-06
3.83963e-07
-1.28542e-06
-7.3784e-07
-1.11726e-06
-9.31354e-07
-1.39957e-06
-1.0891e-06
-1.79286e-06
-5.30973e-06
-2.26206e-06
1.19487e-07
1.30635e-06
7.76973e-07
8.94676e-07
7.87766e-07
4.96513e-07
3.80972e-07
2.32348e-07
-2.35896e-07
-3.42051e-07
-5.87596e-07
-4.4052e-07
-4.47348e-07
-5.58718e-07
-4.93797e-07
-5.71232e-07
-3.17491e-07
-3.45907e-07
-2.28569e-08
-6.46878e-08
2.50919e-07
1.6271e-07
4.26816e-07
3.24273e-07
7.16695e-07
9.14022e-07
1.84405e-06
2.35563e-06
2.8982e-06
3.25119e-06
3.20593e-06
1.46204e-06
6.7259e-06
5.35977e-06
4.73629e-06
2.86978e-06
1.13856e-05
3.62131e-05
1.53448e-05
3.83681e-05
-1.80184e-06
-4.76875e-07
-1.83855e-06
2.02787e-06
-1.19517e-06
-9.77606e-08
2.10768e-07
3.16283e-07
6.12468e-08
-1.4085e-07
-1.77166e-07
6.9716e-08
3.36538e-07
6.54915e-07
6.59274e-07
6.18884e-07
5.12945e-07
5.20855e-07
4.429e-07
4.19726e-07
2.73771e-07
2.14969e-07
1.33956e-09
-2.12759e-07
-4.96881e-07
-8.89312e-07
-1.12399e-06
-1.22134e-06
-5.21746e-08
-1.23373e-06
-1.29691e-06
-1.37492e-06
-1.34408e-06
-2.04801e-06
-1.94445e-06
-1.96302e-06
-9.83125e-06
-1.08425e-05
-1.55949e-05
2.22976e-07
5.44363e-07
1.07297e-06
5.50563e-07
4.98736e-07
2.60057e-07
6.44854e-08
-2.74057e-09
-3.53647e-07
-2.46484e-07
-3.1083e-07
-4.43162e-07
-4.06136e-07
-6.5874e-07
-5.08547e-07
-5.9407e-07
-3.6798e-07
-4.31898e-07
-2.66409e-07
-3.79407e-07
-2.32526e-07
-3.48068e-07
-1.04434e-07
-5.92937e-08
7.88147e-07
7.10633e-07
1.62326e-06
2.89355e-06
3.33152e-06
9.02805e-07
-6.72224e-07
2.33189e-06
6.59322e-08
-5.73605e-06
-8.71619e-06
2.11226e-05
1.45522e-05
-5.16766e-05
1.24966e-06
1.82371e-07
-1.76152e-06
1.43035e-06
-2.77772e-06
9.97743e-07
-1.16082e-07
5.63444e-09
2.89232e-08
5.32407e-08
-1.93547e-07
-1.83349e-07
3.50789e-08
3.55411e-07
6.10701e-07
6.33059e-07
5.95609e-07
4.8371e-07
5.31212e-07
4.08385e-07
4.56862e-07
2.62153e-07
3.1291e-07
1.7911e-08
-6.20647e-08
-5.1773e-07
-7.19256e-07
-1.17171e-06
-1.0053e-06
8.58547e-09
-7.92823e-07
-1.03413e-06
-8.22064e-07
-8.75967e-07
-9.41505e-07
-8.38399e-07
-1.90298e-06
-3.15673e-06
-2.95774e-07
2.21419e-06
9.88613e-07
1.70458e-06
1.02919e-06
9.01727e-07
3.89e-07
2.38244e-07
1.33168e-07
-1.22002e-07
4.26031e-09
-8.00848e-07
7.6265e-08
-2.1393e-07
-3.6361e-07
-5.12715e-07
-4.40845e-07
-4.60361e-07
-2.47489e-07
-2.02304e-07
5.37734e-09
4.18949e-08
1.70524e-07
1.74357e-07
2.16387e-07
3.52573e-07
5.782e-07
1.25573e-06
1.84719e-06
2.80266e-06
3.14614e-06
3.72348e-06
1.80117e-06
5.82455e-06
5.33885e-06
4.29167e-06
2.61312e-06
1.11736e-05
2.90749e-05
1.04467e-05
2.98049e-05
-1.14143e-06
-2.88558e-08
-1.94026e-06
1.95788e-06
-1.16983e-06
7.9581e-08
-1.02453e-07
6.53324e-07
-2.0726e-07
-2.59565e-07
-1.94223e-07
1.31036e-08
3.8628e-07
5.41103e-07
6.16384e-07
4.91709e-07
5.29263e-07
4.49204e-07
5.05179e-07
3.37218e-07
3.44936e-07
1.68039e-07
1.55024e-07
-1.09827e-07
-1.96056e-07
-6.3842e-07
-7.42365e-07
-1.01493e-06
-1.45011e-07
-1.16728e-06
-1.43231e-06
-1.56365e-06
-1.44876e-06
-1.85492e-06
-1.81112e-06
-2.51873e-06
-8.24048e-06
-9.63899e-06
-1.24549e-05
1.12433e-06
5.9061e-07
4.67377e-07
1.46462e-07
4.42364e-07
1.80275e-07
2.48957e-07
3.37685e-07
-1.09943e-06
3.47371e-07
-1.74144e-07
9.35062e-08
-3.36893e-07
-3.91409e-07
-5.99458e-07
-4.40699e-07
-5.30567e-07
-2.86333e-07
-4.39788e-07
-2.18933e-07
-4.76443e-07
-2.02992e-07
-5.86306e-07
-3.15143e-08
-2.50579e-07
6.23813e-07
3.01232e-07
2.69022e-06
1.96597e-06
1.86982e-06
-1.80404e-06
1.23725e-06
-1.06492e-06
-5.72282e-06
-8.06057e-06
1.77349e-05
1.25808e-05
-5.03108e-05
2.33077e-06
-1.66994e-07
-6.60677e-07
-1.2336e-07
-3.26217e-07
9.61412e-07
-6.09987e-07
7.17494e-07
-2.80285e-08
-1.80375e-07
-3.50031e-07
-2.41917e-07
4.77817e-08
3.18012e-07
5.27854e-07
5.12962e-07
4.93249e-07
4.7444e-07
4.80555e-07
4.73199e-07
3.84664e-07
3.50877e-07
2.43027e-07
2.24448e-07
-9.68281e-09
-7.84191e-08
-5.22938e-07
-5.53484e-07
-8.48635e-07
1.27265e-07
-7.40548e-07
-8.5387e-07
-1.04667e-06
-6.13568e-07
-7.89947e-07
-5.19728e-07
-1.6536e-06
-1.19654e-06
8.72987e-07
2.89298e-06
3.1415e-07
9.66815e-07
2.87316e-07
1.01563e-07
2.42942e-08
2.67456e-07
4.15001e-07
-5.63884e-07
6.824e-07
-9.44581e-07
3.39539e-07
1.73288e-07
-1.55465e-07
-3.14641e-07
-4.25386e-07
-4.46191e-07
-3.19167e-07
-2.45426e-07
-5.40857e-08
-3.63795e-08
1.2173e-07
5.2025e-08
1.63824e-07
1.35174e-07
3.87023e-07
7.29522e-07
1.32077e-06
2.21162e-06
2.80602e-06
3.53063e-06
1.97156e-06
5.14867e-06
5.58629e-06
4.05764e-06
2.45336e-06
1.02859e-05
2.17578e-05
6.47295e-06
2.24413e-05
-2.49221e-07
-2.19769e-07
-1.9325e-07
1.32107e-07
-2.1525e-07
3.75791e-07
-2.47877e-07
4.61544e-07
-3.62995e-07
-4.72001e-07
-2.54842e-07
5.31099e-08
2.98128e-07
4.61342e-07
4.25996e-07
4.58966e-07
4.13248e-07
5.22637e-07
3.98631e-07
4.19347e-07
2.48476e-07
2.83235e-07
1.16534e-07
1.01239e-07
-1.09428e-07
-2.65817e-07
-4.94015e-07
-5.86088e-07
-2.63555e-07
-9.47132e-07
-1.50072e-06
-1.65517e-06
-1.6702e-06
-1.80186e-06
-1.7389e-06
-2.82203e-06
-6.89697e-06
-8.28361e-06
-9.74178e-06
4.89128e-07
3.68591e-07
1.24271e-07
6.98902e-08
1.60979e-07
1.52074e-07
7.5834e-08
4.24061e-07
-1.45368e-06
7.25862e-07
1.74157e-07
8.27696e-08
-6.07192e-08
-3.39568e-07
-4.06404e-07
-5.69092e-07
-4.24871e-07
-4.80571e-07
-2.69177e-07
-4.18414e-07
-2.2274e-07
-4.85356e-07
-2.74696e-07
-5.42378e-07
-7.64883e-08
-3.41477e-07
3.02937e-07
9.05774e-07
1.75241e-06
7.03269e-07
-1.64745e-06
-3.30341e-07
-1.59836e-06
-6.14742e-06
-7.28647e-06
1.42741e-05
1.05527e-05
-4.55932e-05
2.29062e-06
-7.64106e-09
-1.33858e-07
4.48408e-08
-6.83674e-08
1.39523e-07
-9.93144e-08
7.50272e-07
-2.27508e-07
-3.11099e-07
-3.6863e-07
-1.77435e-07
3.61029e-08
3.00548e-07
3.47408e-07
4.11437e-07
3.6608e-07
4.62068e-07
4.46984e-07
4.67894e-07
3.65594e-07
3.43393e-07
2.79369e-07
2.52047e-07
1.57176e-07
7.02655e-08
-1.41013e-07
-2.28743e-07
-3.66874e-07
1.11929e-07
-4.51678e-07
-8.74893e-07
-8.44971e-07
-8.12619e-07
-4.57958e-07
-4.26876e-07
-1.38989e-06
-5.73972e-08
1.71142e-06
3.27229e-06
3.26527e-07
3.17122e-07
1.49443e-07
1.63213e-08
5.73014e-08
2.73654e-07
3.02595e-07
-2.59254e-07
2.23976e-07
-6.79962e-07
1.52331e-07
9.20772e-08
2.55563e-08
-2.06465e-07
-4.2316e-07
-4.18218e-07
-4.65733e-07
-1.96179e-07
-2.23989e-07
5.11596e-08
-4.56742e-08
1.6908e-07
-9.45246e-09
2.32238e-07
9.21421e-08
5.64231e-07
6.60706e-07
1.71893e-06
1.96126e-06
3.07016e-06
1.76236e-06
4.76986e-06
5.38721e-06
4.18974e-06
2.05134e-06
9.2015e-06
1.53369e-05
3.43449e-06
1.64332e-05
5.92017e-08
1.92048e-08
-2.61554e-08
1.4236e-07
-5.7408e-08
1.40738e-07
2.86193e-08
3.76377e-07
-3.91131e-07
-2.71123e-07
-1.55781e-07
7.59178e-08
2.41339e-07
2.97242e-07
3.34468e-07
3.34417e-07
4.54983e-07
4.22512e-07
4.49288e-07
3.16104e-07
3.30529e-07
2.1151e-07
2.33414e-07
1.00592e-07
8.79296e-08
-1.23084e-07
-1.61296e-07
-3.39916e-07
-1.70153e-07
-8.22135e-07
-1.26226e-06
-1.71699e-06
-1.74338e-06
-1.93485e-06
-1.73264e-06
-3.02989e-06
-5.71168e-06
-6.94476e-06
-7.44658e-06
2.83543e-07
2.86798e-07
3.39157e-09
7.53951e-08
1.64984e-07
1.5869e-07
1.21221e-07
2.14256e-07
-1.80893e-07
-8.94294e-08
3.66857e-07
7.55847e-08
9.94177e-09
-1.89262e-07
-4.28556e-07
-5.39679e-07
-5.24507e-07
-4.22589e-07
-3.67003e-07
-2.67399e-07
-3.09898e-07
-2.48445e-07
-4.03548e-07
-2.89504e-07
-4.46542e-07
-2.53129e-07
-4.93722e-07
4.31282e-07
2.45089e-07
3.75937e-07
-2.20212e-06
-1.2175e-06
-2.02176e-06
-6.9739e-06
-6.56297e-06
1.10849e-05
1.05042e-05
-4.0966e-05
2.99039e-06
1.2447e-07
5.5307e-08
8.2035e-08
-4.16787e-08
1.06918e-07
-1.88413e-08
1.13981e-07
-9.31808e-08
-2.94719e-07
-3.09738e-07
-1.04921e-07
8.88979e-08
1.72721e-07
2.79904e-07
2.47149e-07
3.77331e-07
3.72941e-07
4.73112e-07
3.6608e-07
3.84251e-07
2.87372e-07
3.14942e-07
2.48312e-07
2.54388e-07
1.68596e-07
1.07563e-07
9.89652e-09
6.42577e-09
1.18723e-07
-2.1039e-07
-6.13228e-07
-7.9384e-07
-6.84263e-07
-4.72982e-07
-2.25109e-07
-1.03991e-06
8.41247e-07
2.24065e-06
2.81962e-06
2.79228e-07
1.73322e-07
1.20528e-07
5.14758e-09
6.21328e-08
2.84705e-07
2.79036e-07
-1.62912e-07
7.662e-08
1.0517e-07
-1.81257e-07
4.24858e-07
-8.22321e-08
-1.29571e-07
-3.9103e-07
-5.3379e-07
-3.68601e-07
-3.56732e-07
-7.79412e-08
-1.30396e-07
1.32625e-07
-1.02545e-08
2.03228e-07
1.10803e-08
2.40569e-07
1.37821e-07
5.30464e-07
9.1174e-07
1.46951e-06
2.06273e-06
1.73759e-06
3.99477e-06
5.10165e-06
3.98853e-06
1.75569e-06
7.75263e-06
1.0706e-05
1.32541e-06
1.24176e-05
1.29408e-07
8.38592e-08
2.47088e-08
1.11778e-07
-5.49828e-08
8.3035e-08
2.16369e-09
-3.37766e-09
-8.87157e-08
-1.71086e-07
-3.37935e-08
6.72738e-08
1.36379e-07
1.96908e-07
2.38147e-07
3.44425e-07
3.85236e-07
4.22897e-07
3.45594e-07
3.45774e-07
2.49879e-07
2.75564e-07
1.77256e-07
2.0924e-07
7.70123e-08
7.76324e-08
-7.65111e-08
-6.82206e-08
-2.05418e-07
-5.33519e-07
-1.07228e-06
-1.47881e-06
-1.79519e-06
-1.96344e-06
-1.81699e-06
-2.98565e-06
-4.67363e-06
-5.57228e-06
-5.68911e-06
2.20436e-07
2.25149e-07
-2.38905e-08
7.4527e-08
1.77485e-07
1.48005e-07
1.12529e-07
2.57664e-07
-1.85099e-07
-1.26069e-07
3.05987e-07
-2.08046e-08
2.90343e-07
-1.41361e-07
-4.35949e-07
-4.88733e-07
-5.18686e-07
-3.45036e-07
-3.3464e-07
-1.95505e-07
-2.32134e-07
-1.6602e-07
-2.85221e-07
-2.50891e-07
-4.04332e-07
-3.88696e-07
-6.59072e-07
-2.03056e-07
-5.01202e-07
-3.02021e-07
-2.4069e-06
-1.35594e-06
-2.77005e-06
-6.39262e-06
-6.93424e-06
8.38963e-06
9.82749e-06
-3.54878e-05
3.0975e-06
1.40896e-07
9.39348e-08
8.17864e-08
-3.36596e-08
7.16075e-08
-4.30817e-08
5.16513e-08
3.03456e-09
-5.39763e-08
-1.43082e-07
-8.29902e-08
-2.45737e-08
1.37405e-07
1.2756e-07
2.69823e-07
2.78927e-07
4.12999e-07
3.2892e-07
3.73414e-07
2.69801e-07
3.0695e-07
2.40698e-07
2.80934e-07
2.3331e-07
2.55329e-07
1.64056e-07
1.98592e-07
1.1e-07
2.24131e-07
-1.06474e-07
-2.48877e-07
-6.4214e-07
-5.01426e-07
-4.479e-07
2.45462e-08
-6.10932e-07
1.36736e-06
2.25221e-06
2.55328e-06
2.2962e-07
1.23659e-07
1.06724e-07
-8.29058e-10
8.07383e-08
2.7017e-07
2.68845e-07
-1.41233e-07
7.01074e-08
6.62491e-08
-1.26338e-07
1.35511e-07
5.61519e-08
-2.53266e-07
-3.3651e-07
-4.1686e-07
-3.73428e-07
-1.83003e-07
-1.69436e-07
1.87126e-08
1.2969e-08
1.4796e-07
8.24684e-08
1.49421e-07
7.9111e-08
1.31324e-07
2.36938e-07
5.37204e-07
9.24116e-07
1.31637e-06
1.58665e-06
3.27085e-06
4.41927e-06
3.68111e-06
1.41719e-06
6.02032e-06
6.65045e-06
3.56845e-08
9.32323e-06
1.28499e-07
9.23873e-08
3.53847e-08
8.70006e-08
-5.52304e-08
4.28188e-08
-2.39706e-08
4.36888e-08
9.53936e-09
-5.14501e-08
-1.04054e-07
2.28797e-07
-4.4122e-08
1.01137e-07
2.21384e-07
3.0381e-07
3.46489e-07
3.19569e-07
3.16817e-07
2.49626e-07
2.65113e-07
1.93498e-07
2.24441e-07
1.3943e-07
1.34121e-07
6.60518e-08
2.65238e-08
-3.1692e-08
-1.40469e-07
-3.91973e-07
-8.07567e-07
-1.20717e-06
-1.66574e-06
-1.8735e-06
-1.94116e-06
-2.78585e-06
-3.71774e-06
-4.38363e-06
-4.20224e-06
1.80911e-07
1.84873e-07
-3.88551e-08
8.9085e-08
1.68108e-07
1.33388e-07
9.57015e-08
2.54667e-07
-1.48806e-07
-9.51744e-08
1.19601e-07
5.81555e-08
-1.46849e-08
-4.94761e-08
-2.73235e-07
-3.97119e-07
-2.79998e-07
-3.09802e-07
-1.49723e-07
-2.25911e-07
-5.07624e-08
-1.90456e-07
-7.04623e-08
-2.97871e-07
-1.96161e-07
-5.55997e-07
-4.6504e-07
-7.5484e-07
-5.04999e-07
-1.14441e-06
-1.59382e-06
-1.82162e-06
-2.32425e-06
-6.11205e-06
-6.64372e-06
6.1855e-06
9.57406e-06
-3.082e-05
3.24755e-06
1.27439e-07
9.21902e-08
6.98146e-08
-3.18151e-08
5.33228e-08
-6.29193e-08
5.10676e-08
-1.00096e-10
3.78794e-08
-6.94703e-08
2.15533e-07
-2.64988e-07
-1.01645e-08
5.52391e-08
1.47372e-07
3.1217e-07
2.53447e-07
3.19973e-07
2.21122e-07
2.6821e-07
1.91302e-07
2.41323e-07
1.91774e-07
2.39873e-07
1.64979e-07
2.3164e-07
1.34706e-07
2.37217e-07
1.0525e-07
1.32061e-07
-2.06048e-07
-2.07288e-07
-5.04589e-07
-1.46337e-07
-3.62802e-09
-3.33728e-07
1.55387e-06
2.24806e-06
1.90955e-06
1.87272e-07
9.11376e-08
1.04815e-07
2.44412e-09
6.83069e-08
2.57552e-07
2.40393e-07
-1.23852e-07
1.09074e-07
3.07627e-08
-1.46959e-07
-4.35688e-08
-7.27964e-08
-1.56069e-07
-3.08228e-07
-2.62574e-07
-1.32605e-07
-1.09805e-07
-6.8584e-08
-1.09457e-08
6.96675e-08
1.25173e-07
1.37721e-07
1.30891e-07
9.63314e-08
7.65755e-08
1.64461e-07
2.93325e-07
6.42302e-07
8.41716e-07
1.50728e-06
2.53813e-06
3.67447e-06
3.08571e-06
1.07502e-06
4.30659e-06
3.61627e-06
-9.50865e-07
7.18526e-06
1.11464e-07
7.58237e-08
3.15277e-08
6.69991e-08
-6.19237e-08
2.75871e-08
-5.15094e-08
7.33342e-08
-2.66673e-09
8.4537e-08
-1.42962e-07
2.77097e-07
-1.97657e-07
-2.51648e-08
1.51682e-07
2.2222e-07
2.48373e-07
2.41023e-07
2.12499e-07
2.14683e-07
1.72107e-07
1.91647e-07
1.39559e-07
1.00543e-07
7.04963e-08
4.59449e-08
4.7515e-09
-2.88112e-08
-1.49381e-07
-2.86323e-07
-6.51614e-07
-9.17136e-07
-1.47448e-06
-1.65012e-06
-1.98587e-06
-2.3639e-06
-2.9047e-06
-3.18678e-06
-3.02484e-06
1.4531e-07
1.58251e-07
-3.79001e-08
8.05608e-08
1.58933e-07
1.17035e-07
9.04889e-08
2.60213e-07
-1.18539e-07
-1.38655e-07
9.80157e-08
-1.53454e-07
-6.75913e-08
-2.58962e-07
-1.63616e-07
-1.96797e-08
-1.57672e-07
-8.07895e-08
-1.68562e-07
-5.59312e-08
-1.09972e-07
7.40343e-09
-1.14508e-07
-5.69437e-08
-2.51973e-07
-2.79198e-07
-5.3958e-07
-5.42691e-07
-7.45883e-07
-9.04134e-07
-1.34174e-06
-1.3762e-06
-2.18572e-06
-4.88195e-06
-6.30872e-06
4.60267e-06
9.19136e-06
-2.53318e-05
3.15149e-06
1.041e-07
7.74424e-08
5.36612e-08
-3.58188e-08
3.27444e-08
-7.66172e-08
3.63669e-08
-1.72438e-08
3.39062e-08
-1.82107e-08
2.12374e-07
-3.47225e-07
-1.81349e-08
-2.21417e-08
1.64954e-07
1.48744e-07
2.29805e-07
1.50515e-07
2.04796e-07
1.25627e-07
1.76836e-07
1.21061e-07
1.49769e-07
8.48254e-08
1.36971e-07
9.8475e-08
1.46455e-07
1.12504e-07
1.39887e-07
6.06458e-08
-2.16157e-08
-1.33639e-07
-2.25034e-07
-8.31179e-08
1.41925e-07
1.9991e-07
1.92818e-06
1.89313e-06
1.68612e-06
1.51714e-07
7.55627e-08
9.56219e-08
-6.45281e-09
7.06531e-08
2.33204e-07
2.31233e-07
-1.06772e-07
9.19372e-08
3.66494e-08
-2.39908e-07
-7.27874e-08
-1.71033e-07
-7.88187e-08
2.05752e-08
-5.26037e-07
6.50765e-08
2.17447e-09
-3.25873e-08
-1.40266e-08
9.32668e-08
1.27653e-07
1.76477e-07
1.48877e-07
1.2909e-07
1.09236e-07
1.59437e-07
2.48728e-07
5.03227e-07
6.92694e-07
1.34982e-06
1.9976e-06
2.93969e-06
2.45053e-06
8.25764e-07
3.02708e-06
1.54666e-06
-1.60416e-06
5.44526e-06
9.27028e-08
6.40806e-08
2.3143e-08
4.94404e-08
-6.64892e-08
1.58712e-08
-7.10844e-08
5.25451e-08
7.02109e-09
5.8473e-08
-1.26826e-07
1.40202e-07
-1.88296e-07
4.48011e-08
8.83106e-08
1.5428e-07
1.48185e-07
1.47334e-07
1.30514e-07
1.18893e-07
1.26587e-07
1.013e-07
4.58041e-08
7.74859e-09
-1.34295e-08
-1.37995e-08
-4.23619e-08
-7.46615e-08
-1.70026e-07
-2.6689e-07
-5.44858e-07
-7.27868e-07
-1.24108e-06
-1.38542e-06
-1.81477e-06
-1.89549e-06
-2.1266e-06
-2.19651e-06
-2.05595e-06
1.27592e-07
1.3407e-07
-3.91313e-08
8.48265e-08
1.39108e-07
9.95506e-08
8.18687e-08
2.4064e-07
-1.1074e-07
-1.37637e-07
3.66108e-08
-1.51556e-07
-1.03568e-07
9.20089e-08
-6.69013e-07
4.28558e-07
2.86528e-07
9.01716e-08
-2.28699e-08
-7.46479e-08
3.19734e-09
4.45013e-09
4.71799e-08
-2.6362e-08
-4.23251e-08
-1.99617e-07
-2.62891e-07
-4.64402e-07
-4.5856e-07
-7.74815e-07
-7.79201e-07
-1.1411e-06
-1.66577e-06
-3.63309e-06
-5.4614e-06
3.7019e-06
7.36422e-06
-2.10308e-05
3.23428e-06
8.73867e-08
6.28973e-08
4.06239e-08
-3.78101e-08
2.44883e-08
-8.58953e-08
2.43349e-08
-4.01482e-08
4.05098e-08
5.78973e-09
2.92638e-08
-3.25772e-08
-9.60264e-08
7.30542e-08
7.04526e-08
1.51049e-07
7.60781e-08
1.34864e-07
6.05005e-08
1.08134e-07
5.43909e-08
5.50417e-08
-1.37578e-08
-4.29106e-09
-4.58466e-09
3.69311e-08
3.60613e-08
6.63265e-08
3.09089e-08
5.79941e-08
-5.99173e-08
-6.0458e-10
-1.69979e-07
9.91567e-08
2.4476e-07
2.9371e-07
1.76338e-06
1.90993e-06
1.24229e-06
1.34001e-07
6.43037e-08
9.92403e-08
-2.39583e-09
5.46063e-08
2.14738e-07
2.00544e-07
-9.98581e-08
9.21258e-08
2.02256e-08
-2.35354e-07
-9.23551e-08
1.0271e-08
-2.40827e-07
4.39127e-07
-3.32887e-07
4.24679e-07
3.42542e-07
6.2866e-08
3.79268e-08
7.81474e-08
1.79985e-07
1.8131e-07
2.17465e-07
1.48312e-07
2.01341e-07
1.65999e-07
3.21605e-07
4.24506e-07
6.92154e-07
1.15122e-06
1.6138e-06
2.34535e-06
1.85156e-06
9.2137e-07
2.0816e-06
3.5938e-07
-1.96851e-06
4.21517e-06
7.40171e-08
4.7909e-08
1.6621e-08
3.73271e-08
-6.79264e-08
5.04153e-09
-8.67932e-08
4.14276e-08
9.69214e-09
3.56027e-08
-3.75489e-08
-5.13225e-08
1.99545e-08
-4.40521e-08
7.75962e-08
3.84245e-08
1.72665e-07
3.92988e-08
6.80237e-08
5.31961e-08
4.21018e-08
-1.10447e-08
-5.79369e-08
-1.03255e-07
-8.0121e-08
-7.90145e-08
-8.23108e-08
-1.30482e-07
-1.91413e-07
-2.83579e-07
-4.72274e-07
-6.13189e-07
-1.02377e-06
-1.1215e-06
-1.5903e-06
-1.46015e-06
-1.54161e-06
-1.43573e-06
-1.42691e-06
1.03898e-07
1.3271e-07
-2.86059e-08
7.78173e-08
1.25527e-07
8.38472e-08
7.29543e-08
2.25147e-07
-1.02307e-07
-1.46323e-07
4.13049e-08
-9.64897e-08
-2.395e-08
2.83943e-07
-2.62979e-07
1.00744e-06
4.33423e-07
2.47411e-07
2.39947e-08
-9.97076e-09
2.63732e-08
8.69065e-08
9.68437e-08
9.85576e-08
4.91697e-08
-1.25153e-09
-1.19445e-07
-1.87402e-07
-2.94606e-07
-4.17707e-07
-4.80717e-07
-7.66122e-07
-1.14854e-06
-2.67245e-06
-3.93325e-06
2.54131e-06
4.89248e-06
-1.57168e-05
3.06043e-06
7.47216e-08
4.87125e-08
2.93668e-08
-3.79233e-08
1.29676e-08
-8.88332e-08
9.44093e-09
-5.09325e-08
3.663e-08
1.18028e-08
3.30521e-08
-1.13862e-08
-2.71896e-08
2.16987e-08
2.6557e-08
2.30741e-07
7.93833e-08
5.01716e-08
1.61175e-08
2.36401e-09
-1.05247e-08
-8.20733e-08
-1.21641e-07
-1.24929e-07
-8.30369e-08
-4.14932e-08
-2.32742e-08
-1.89793e-08
-2.65163e-08
-1.55466e-08
-6.42462e-08
-5.90507e-09
-1.05607e-07
1.56279e-07
2.16781e-07
4.1735e-07
1.66907e-06
1.54691e-06
1.01534e-06
1.27066e-07
6.78659e-08
9.46941e-08
-5.46551e-09
5.62942e-08
1.88379e-07
1.84984e-07
-9.71521e-08
7.60227e-08
2.69555e-08
-2.06472e-07
1.20378e-10
1.27255e-07
2.10179e-08
7.21935e-07
1.32377e-07
8.81013e-07
1.71914e-07
7.02364e-08
2.1309e-08
1.318e-07
1.5658e-07
2.50149e-07
1.97497e-07
2.39643e-07
1.90545e-07
2.60272e-07
3.02335e-07
4.37931e-07
6.38928e-07
9.68459e-07
1.34598e-06
1.81608e-06
1.43489e-06
1.54521e-06
1.6152e-06
2.56684e-08
-1.68111e-06
3.2648e-06
5.13807e-08
4.09957e-08
1.19189e-08
2.83092e-08
-6.56083e-08
1.70232e-10
-9.36459e-08
3.50064e-08
1.21877e-08
2.70236e-08
-4.76215e-08
-1.42117e-08
3.10076e-08
-2.38721e-08
2.72005e-07
1.48233e-07
1.53855e-07
-1.94285e-08
1.70289e-08
-5.30522e-08
-7.54265e-08
-1.1038e-07
-1.66994e-07
-1.58133e-07
-1.28461e-07
-1.04325e-07
-1.13145e-07
-1.5814e-07
-2.04022e-07
-2.89878e-07
-4.09449e-07
-5.39878e-07
-8.15642e-07
-9.40737e-07
-1.25489e-06
-1.09985e-06
-1.0981e-06
-9.91139e-07
-1.04754e-06
8.17544e-08
1.24243e-07
-1.95782e-08
8.33097e-08
1.10105e-07
6.96864e-08
6.05523e-08
1.97118e-07
-9.38395e-08
-1.24238e-07
7.78337e-08
-2.54406e-09
1.11459e-07
3.9594e-07
1.47839e-07
6.93315e-07
2.18734e-07
1.62154e-07
-4.29248e-09
2.08567e-08
4.64752e-08
1.31923e-07
1.31906e-07
1.66495e-07
1.27854e-07
1.14366e-07
2.57496e-08
-1.29109e-08
-1.11635e-07
-1.5966e-07
-2.46152e-07
-4.21e-07
-7.68517e-07
-1.73117e-06
-2.65663e-06
1.78303e-06
2.64477e-06
-1.16665e-05
2.94072e-06
7.28042e-08
2.92847e-08
2.24154e-08
-3.47709e-08
1.10668e-08
-8.79704e-08
6.87868e-09
-5.83468e-08
2.88561e-08
1.64189e-10
3.56351e-08
1.09351e-08
-7.71197e-08
2.94854e-07
-1.81015e-08
3.75886e-07
-2.99625e-08
1.67538e-07
-1.81828e-07
-8.2695e-08
-1.56035e-07
-1.90514e-07
-1.99091e-07
-1.78256e-07
-1.15412e-07
-7.87868e-08
-6.48307e-08
-6.98717e-08
-6.80636e-08
-6.79653e-08
-7.51707e-08
-3.74317e-08
-6.41376e-08
1.22048e-07
2.62422e-07
3.30463e-07
1.23785e-06
1.29121e-06
7.17204e-07
2.03931e-07
3.58923e-08
9.0093e-08
3.11037e-09
4.61268e-08
1.70862e-07
1.55348e-07
-8.88161e-08
7.16388e-08
3.83179e-08
-1.30808e-07
7.45704e-08
2.06266e-07
1.43985e-07
6.52222e-07
7.00081e-08
7.17863e-07
-3.39123e-07
1.98442e-09
4.34655e-08
9.33683e-08
1.9299e-07
2.11106e-07
2.38773e-07
2.1322e-07
2.30339e-07
2.41872e-07
3.06186e-07
3.8784e-07
5.70008e-07
7.86657e-07
1.09617e-06
1.43482e-06
9.58304e-07
2.22652e-06
1.24626e-06
1.58236e-07
-1.15918e-06
2.5566e-06
-3.06315e-08
9.82781e-09
2.68936e-09
2.19886e-08
-6.13596e-08
-3.4112e-09
-9.4835e-08
2.46792e-08
-1.76393e-09
1.87879e-08
-4.99325e-08
-6.34295e-08
2.03488e-07
-1.63328e-07
7.64883e-07
-2.98678e-08
3.59335e-07
-2.49839e-07
-9.0736e-08
-2.40385e-07
-2.40149e-07
-2.28587e-07
-2.07985e-07
-1.73451e-07
-1.22408e-07
-1.04902e-07
-1.17568e-07
-1.55956e-07
-1.95366e-07
-2.68567e-07
-3.46127e-07
-4.62592e-07
-6.4394e-07
-7.5047e-07
-9.83796e-07
-8.4066e-07
-8.54878e-07
-7.7821e-07
-8.84352e-07
-5.10353e-08
2.40629e-07
-5.0816e-10
7.74252e-08
1.02058e-07
5.96674e-08
5.37289e-08
1.79912e-07
-8.12388e-08
-9.02354e-08
1.0683e-07
6.0999e-08
1.61106e-07
4.27974e-07
8.4106e-08
6.39245e-07
-3.09088e-07
4.85157e-07
1.75015e-07
7.47122e-08
1.27074e-07
1.20047e-07
1.86905e-07
1.57052e-07
1.98791e-07
1.41532e-07
1.36832e-07
6.37884e-08
4.38265e-08
-1.68583e-08
-5.87501e-08
-1.6669e-07
-5.26126e-07
-9.2615e-07
-2.27414e-07
1.22848e-06
7.51741e-07
-7.88046e-06
2.64171e-06
3.46985e-08
-2.88653e-08
3.00047e-09
-3.39472e-08
5.99669e-09
-8.32106e-08
7.52524e-10
-6.54706e-08
1.61583e-08
-1.50036e-08
2.43234e-08
3.68479e-08
-1.35708e-07
4.52946e-07
-1.30705e-07
4.03006e-07
-1.31198e-08
-1.23454e-07
-2.03872e-07
-3.67581e-07
-2.86203e-07
-2.33226e-07
-2.20623e-07
-1.60695e-07
-1.11459e-07
-8.22133e-08
-8.15485e-08
-8.77069e-08
-9.13849e-08
-8.96292e-08
-8.47382e-08
-5.77236e-08
-5.10529e-08
9.01743e-08
2.14735e-07
1.68867e-07
8.2197e-07
8.98311e-07
4.62241e-07
2.25921e-07
2.06251e-08
9.32932e-08
5.11345e-09
4.94096e-08
1.49988e-07
1.42356e-07
-8.20404e-08
7.00806e-08
4.56456e-08
-8.24673e-08
1.0815e-07
2.22089e-07
1.52848e-07
6.07527e-07
-1.1178e-07
4.36041e-07
-2.44987e-07
1.6961e-07
2.95266e-07
1.82302e-07
2.10052e-07
2.12961e-07
2.22937e-07
2.02338e-07
2.05875e-07
2.19969e-07
2.58697e-07
3.30504e-07
4.56769e-07
6.19533e-07
8.40787e-07
1.09235e-06
1.2667e-06
1.82518e-09
1.594e-06
3.17642e-07
-3.97058e-07
1.91151e-06
-8.60698e-08
-4.20902e-08
-1.20677e-08
1.54754e-08
-5.63648e-08
-2.70446e-09
-9.22911e-08
2.00815e-08
-1.48118e-08
1.62536e-08
-5.99607e-08
-7.22727e-08
9.9341e-08
7.17317e-08
4.82595e-07
3.87693e-07
-1.66726e-07
7.56033e-09
-4.4203e-07
-3.11274e-07
-2.30154e-07
-2.45397e-07
-2.02716e-07
-1.33971e-07
-9.7164e-08
-8.4102e-08
-9.90811e-08
-1.3493e-07
-1.64424e-07
-2.26507e-07
-2.7355e-07
-3.79874e-07
-4.8245e-07
-6.049e-07
-7.42967e-07
-6.58905e-07
-6.90355e-07
-7.06303e-07
-7.88097e-07
-6.34977e-08
1.34028e-07
-1.10945e-08
7.68617e-08
8.98609e-08
4.99609e-08
4.56736e-08
1.58656e-07
-6.9691e-08
-6.65045e-08
1.17835e-07
7.89401e-08
1.65318e-07
3.98242e-07
1.54473e-08
5.42237e-07
-2.5224e-07
6.40316e-07
2.33108e-07