/*--------------------------------*- C++ -*----------------------------------*\
| =========                 |                                                 |
| \\      /  F ield         | OpenFOAM: The Open Source CFD Toolbox           |
|  \\    /   O peration     | Version:  2306                                  |
|   \\  /    A nd           | Website:  www.openfoam.com                      |
|    \\/     M anipulation  |                                                 |
\*---------------------------------------------------------------------------*/
FoamFile
{
    version     2.0;
    format      ascii;
    arch        "LSB;label=32;scalar=64";
    class       volScalarField;
    location    "550";
    object      p;
}
// * * * * * * * * * * * * * * * * * * * * * * * * * * * * * * * * * * * * * //

dimensions      [0 2 -2 0 0 0 0];

internalField   nonuniform List<scalar> 
10720
(
-62.2776
-133.564
-217.413
-300.051
-376.411
-454.199
-523.214
-581.158
-631.495
-670.881
-700.87
-722.955
-738.265
-747.525
-750.913
-747.779
-739.031
-723.619
-702.967
-677.138
-649.492
-623.084
-600.479
-573.519
-533.278
-482.199
-429.826
-384.23
-344.985
-308.068
-271.575
-235.415
-199.629
-163.849
-127.67
-90.0581
-51.5573
-6.92265
26.0012
9.08988
74.1314
143.469
208.204
263.523
305.438
330.179
338.464
336.064
323.159
302.13
278.586
255.041
232.258
210.877
190.764
171.976
154.079
136.804
119.661
102.596
85.3013
67.868
50.7083
35.6902
23.8542
14.1398
6.25848
0.395358
-3.48429
-5.62873
-6.1862
-5.23939
-2.79454
1.15706
6.96895
15.215
29.1388
52.829
43.2076
-10.9471
-71.6195
-136.059
-202.278
-270.053
-335.832
-397.536
-454.483
-504.915
-548.622
-585.61
-615.787
-639.149
-655.514
-664.58
-667.098
-662.953
-653.196
-638.374
-621.135
-603.84
-587.569
-565.161
-528.406
-479.358
-428.217
-383.16
-344.103
-307.264
-270.8
-234.676
-198.963
-163.277
-127.205
-89.6903
-51.2684
-6.61829
25.6917
91.9379
138.389
184.723
229.415
268.801
300.267
320.675
329.369
327.941
317.252
300.069
279.872
258.609
237.222
216.418
196.444
177.431
159.196
141.542
124.141
106.892
89.5897
72.3168
55.498
40.6059
28.5675
18.7001
10.5894
4.19928
-0.370034
-3.13141
-4.1794
-3.61753
-1.47858
2.23622
7.87121
15.9845
29.8297
52.5889
56.9863
8.32956
-46.4568
-106.947
-169.664
-233.946
-298.228
-359.851
-417.231
-469.369
-515.015
-553.613
-584.858
-608.94
-626.095
-636.738
-640.9
-638.642
-630.611
-617.532
-601.265
-583.841
-566.418
-544.536
-511.357
-467.257
-420.362
-377.833
-340.185
-304.371
-268.755
-233.277
-197.984
-162.551
-126.646
-89.2648
-50.9482
-6.36873
25.8139
100.893
143.55
185.977
226.146
260.846
288.457
306.875
315.793
315.951
308.014
294.061
276.444
256.946
236.734
216.619
197.036
178.184
160.03
142.43
125.14
108.028
90.9528
73.978
57.4855
42.6383
30.3397
20.2187
11.9202
5.43034
0.836483
-1.92477
-3.0113
-2.54105
-0.528278
3.05778
8.57926
16.6043
30.3151
52.1926
79.594
38.8055
-7.79064
-59.0333
-112.832
-169.118
-226.226
-282.398
-336.307
-386.798
-432.75
-473.433
-508.383
-537.45
-560.508
-577.683
-588.521
-592.981
-591.376
-584.319
-573.099
-559.262
-543.644
-523.379
-493.54
-454.077
-411.205
-371.128
-334.896
-300.198
-265.571
-230.92
-196.302
-161.407
-125.894
-88.7846
-50.6492
-6.26942
26.0198
116.129
151.215
186.409
220.361
250.079
274.299
291.207
300.32
301.883
296.361
285.347
270.587
253.541
235.309
216.68
198.137
179.955
162.218
144.872
127.77
110.812
93.923
77.1754
60.9278
46.1395
33.6603
23.3229
14.804
8.05986
3.15216
0.0248281
-1.42658
-1.27798
0.475892
3.86987
9.25549
17.1818
30.7194
51.7482
85.7196
49.4036
7.72145
-38.4509
-87.0599
-138.517
-191.447
-244.241
-295.888
-345.229
-391.119
-432.748
-469.436
-500.687
-526.198
-545.661
-558.824
-565.694
-566.507
-561.885
-552.847
-540.68
-526.028
-506.852
-479.341
-443.144
-403.153
-364.862
-329.682
-295.862
-262.076
-228.182
-194.222
-159.895
-124.873
-88.1853
-50.3581
-6.31145
26.0837
118.33
149.48
180.809
211.03
237.501
259.35
275.182
284.416
287.082
283.599
275.12
262.959
248.258
231.978
214.87
197.443
180.031
162.815
145.826
129.008
112.304
95.6858
79.2365
63.2882
48.6328
36.0437
25.5127
16.7827
9.81507
4.67761
1.34374
-0.272183
-0.252086
1.39372
4.69332
9.99207
17.8263
31.1547
51.2951
89.5114
57.3592
20.2623
-20.7988
-64.0394
-110.16
-157.878
-205.915
-253.531
-299.668
-343.358
-383.832
-420.353
-452.325
-479.319
-500.96
-517.129
-527.629
-532.466
-532.004
-526.918
-518.102
-505.959
-489.016
-464.365
-431.583
-394.625
-358.369
-324.446
-291.578
-258.609
-225.421
-192.08
-158.306
-123.771
-87.5332
-50.0963
-6.52476
25.9693
118.385
145.862
173.697
200.747
224.57
244.522
259.472
268.741
272.236
270.374
263.999
254.126
241.648
227.365
211.951
195.887
179.524
163.091
146.691
130.336
114.02
97.7571
81.6484
66.0092
51.5147
38.8679
28.1812
19.2746
12.1146
6.76535
3.21284
1.37365
1.17077
2.60086
5.70598
10.8364
18.5155
31.5748
50.8024
89.4309
60.4133
26.8447
-10.3448
-49.4309
-91.3473
-134.958
-179.141
-223.402
-266.805
-308.508
-347.826
-384.011
-416.413
-444.516
-467.867
-486.058
-498.824
-506.016
-507.912
-505.056
-498.151
-487.519
-472.15
-449.868
-420.17
-386.116
-351.902
-319.271
-287.372
-255.232
-222.733
-189.964
-156.699
-122.653
-86.9031
-49.927
-6.94674
25.6505
115.516
140.261
165.456
190.042
211.779
230.21
244.408
253.629
257.737
257.144
252.491
244.574
234.096
221.701
207.968
193.32
178.099
162.559
146.852
131.047
115.19
99.3341
83.6018
68.2944
53.9977
41.3506
30.5493
21.4893
14.1479
8.58853
4.81181
2.75276
2.34625
3.59776
6.55387
11.5584
19.112
31.8977
50.2353
87.751
61.4114
30.8775
-2.91982
-38.3451
-76.4567
-116.208
-156.623
-197.38
-237.677
-276.791
-314.149
-349.061
-380.891
-409.08
-433.118
-452.541
-467.112
-476.627
-481.152
-480.986
-476.559
-468.031
-454.673
-434.887
-408.21
-377.018
-344.909
-313.677
-282.847
-251.625
-219.902
-187.774
-155.05
-121.496
-86.2557
-49.8318
-7.56137
25.0755
111.464
133.911
156.893
179.43
199.432
216.602
230.124
239.226
243.784
244.171
240.906
234.634
225.911
215.255
203.144
189.937
175.942
161.417
146.534
131.404
116.113
100.75
85.4544
70.5177
56.4643
43.8773
33.0104
23.831
16.3345
10.587
6.60454
4.33836
3.73139
4.79292
7.5757
12.4188
19.8022
32.2467
49.6662
84.8552
60.7369
32.7452
1.78485
-30.565
-65.4271
-101.856
-138.969
-176.589
-214.018
-250.652
-286.028
-319.523
-350.543
-378.537
-402.968
-423.342
-439.293
-450.533
-456.958
-458.734
-456.155
-449.31
-437.682
-420.103
-396.153
-367.643
-337.609
-307.816
-278.095
-247.826
-216.916
-185.469
-153.331
-120.296
-85.5739
-49.7483
-8.27421
24.2253
106.6
127.152
148.297
169.117
187.655
203.756
216.661
225.598
230.47
231.611
229.46
224.553
217.345
208.248
197.652
185.848
173.101
159.649
145.668
131.295
116.644
101.833
87.0187
72.4849
58.7111
46.2342
35.345
26.0757
18.4447
12.5228
8.34094
5.86736
5.05699
5.92703
8.53711
13.2195
20.4286
32.5138
49.0374
81.3073
59.0957
33.2985
4.80069
-24.8804
-56.8924
-90.3556
-124.475
-159.174
-193.839
-227.975
-261.214
-293.004
-322.826
-350.151
-374.442
-395.189
-411.987
-424.529
-432.603
-436.214
-435.491
-430.421
-420.606
-405.198
-383.84
-357.915
-329.961
-301.666
-273.104
-243.827
-213.766
-183.036
-151.517
-119.039
-84.8617
-49.6481
-9.02712
23.1494
101.369
120.305
139.881
159.228
176.509
191.676
204.014
212.753
217.831
219.549
218.288
214.506
208.587
200.865
191.655
181.184
169.672
157.323
144.303
130.758
116.821
102.628
88.3478
74.2592
60.8092
48.4975
37.6373
28.3162
20.5796
14.5057
10.1403
7.47024
6.46199
7.13919
9.56885
14.0743
21.0833
32.7618
48.3783
77.3742
56.8084
32.9127
6.55039
-20.8104
-50.3306
-81.1836
-112.646
-144.699
-176.814
-208.586
-239.733
-269.771
-298.249
-324.689
-348.578
-369.41
-386.751
-400.239
-409.584
-414.648
-415.457
-411.945
-403.792
-390.381
-371.413
-347.928
-322.017
-295.248
-267.885
-239.635
-210.457
-180.479
-149.612
-117.724
-84.1276
-49.5266
-9.82881
21.9137
95.9808
113.528
131.747
149.817
166.003
180.341
192.148
200.671
205.871
208.026
207.471
204.614
199.786
193.261
185.297
176.067
165.743
154.492
142.463
129.794
116.625
103.103
89.4026
75.7964
62.7098
50.6122
39.8283
30.4917
22.6764
16.4708
11.9354
9.07545
7.87175
8.35524
10.601
14.9218
21.7163
32.9616
47.6837
73.2593
54.1362
31.9115
7.42755
-17.8964
-45.2149
-73.7453
-102.821
-132.472
-162.231
-191.766
-220.867
-249.119
-276.14
-301.501
-324.726
-345.332
-362.873
-376.959
-387.274
-393.553
-395.73
-393.677
-387.12
-375.597
-358.861
-337.686
-313.778
-288.564
-262.439
-235.251
-206.994
-177.8
-147.62
-116.356
-83.3803
-49.4025
-10.6955
20.5446
90.595
106.93
123.959
140.903
156.125
169.714
181.02
189.316
194.572
197.053
197.061
194.961
191.049
185.558
178.7
170.606
161.403
151.224
140.19
128.425
116.066
103.261
90.1831
77.0988
64.4164
52.5815
41.9231
32.6112
24.7487
18.4361
13.7488
10.7109
9.31806
9.60826
11.6649
15.7885
22.3472
33.1259
46.9586
69.0921
51.2419
30.4981
7.6779
-15.8446
-41.2079
-67.6686
-94.6025
-122.081
-149.687
-177.141
-204.295
-230.794
-256.32
-280.502
-302.906
-323.079
-340.584
-355.002
-366.008
-373.244
-376.563
-375.798
-370.702
-360.919
-346.242
-327.235
-305.273
-281.624
-256.769
-230.676
-203.371
-174.999
-145.541
-114.935
-82.6191
-49.297
-11.6283
19.0477
85.3008
100.571
116.542
132.481
146.845
159.753
170.585
178.646
183.91
186.63
187.082
185.601
182.456
177.853
171.968
164.898
156.738
147.585
137.53
126.679
115.155
103.099
90.6794
78.1533
65.9133
54.3859
43.8999
34.6528
26.7747
20.3805
15.56
12.3558
10.78
10.8779
12.7417
16.6582
22.9642
33.2504
46.2054
64.9588
48.2428
28.8227
7.48906
-14.4266
-38.0425
-62.6496
-87.656
-113.167
-138.804
-164.328
-189.642
-214.447
-238.477
-261.419
-282.887
-302.457
-319.714
-334.23
-345.677
-353.65
-357.923
-358.297
-354.539
-346.363
-333.586
-316.61
-296.527
-274.442
-250.88
-225.909
-199.589
-172.073
-143.371
-113.459
-81.8408
-49.2172
-12.624
17.4377
80.1611
94.4803
109.508
124.542
138.134
150.414
160.796
168.62
173.852
176.744
177.546
176.57
174.066
170.22
165.184
159.031
151.827
143.64
134.533
124.587
113.908
102.625
90.8923
78.9563
67.1944
56.0171
45.749
36.6078
28.7479
22.2995
17.3669
14.011
12.2606
12.1686
13.8359
17.5347
23.5694
33.3388
45.4282
60.9152
45.2193
26.9903
6.99452
-13.4803
-35.5268
-58.4629
-81.7322
-105.457
-129.29
-153.034
-176.627
-199.816
-222.386
-244.07
-264.53
-283.38
-300.231
-314.665
-326.345
-334.853
-339.894
-341.247
-338.687
-331.974
-320.937
-305.851
-287.568
-267.033
-244.78
-220.954
-195.648
-169.021
-141.111
-111.927
-81.0439
-49.1585
-13.68
15.7272
75.2129
88.6774
102.852
117.067
129.955
141.654
151.61
159.194
164.368
167.375
168.452
167.886
165.918
162.718
158.419
153.08
146.744
139.454
131.25
122.186
112.349
101.848
90.8246
79.5051
68.2527
57.4642
47.457
38.4621
30.6549
24.1809
19.1587
15.6667
13.7512
13.4726
14.9407
18.4121
24.1586
33.3915
44.6306
56.9983
42.2274
25.0771
6.2931
-12.8821
-33.5086
-54.9326
-76.6285
-98.7284
-120.913
-143.017
-165.007
-186.667
-207.825
-228.26
-247.674
-265.723
-282.048
-296.25
-307.983
-316.848
-322.491
-324.672
-323.173
-317.781
-308.332
-294.997
-278.429
-259.418
-238.48
-215.817
-191.549
-165.842
-138.758
-110.339
-80.228
-49.1179
-14.7896
13.9223
70.4771
83.1681
96.5659
110.033
122.275
133.435
142.987
150.33
155.424
158.504
159.794
159.562
158.04
155.388
151.727
147.105
141.55
135.086
127.73
119.515
110.504
100.786
90.4823
79.8
69.0854
58.7203
49.0139
40.2048
32.4851
26.0151
20.9273
17.3169
15.2472
14.7869
16.0539
19.2888
24.7309
33.4109
43.8167
53.2331
39.3039
23.1362
5.45718
-12.5391
-31.8746
-51.9264
-72.1905
-92.809
-113.487
-134.082
-154.58
-174.803
-194.611
-213.823
-232.182
-249.382
-265.095
-278.946
-290.589
-299.654
-305.747
-308.611
-308.034
-303.822
-295.811
-284.089
-269.143
-251.617
-231.992
-210.504
-187.295
-162.537
-136.314
-108.694
-79.3928
-49.0928
-15.9448
12.0295
65.9643
77.952
90.6381
103.418
115.064
125.718
134.887
141.991
146.987
150.108
151.56
151.599
150.449
148.262
145.152
141.16
136.303
130.591
124.024
116.615
108.404
99.4585
89.8773
79.8457
69.6907
59.7793
50.4102
41.8244
34.2269
27.7912
22.663
18.9531
16.7417
16.1057
17.1705
20.1607
25.2841
33.3991
42.9904
49.6336
36.4746
21.2099
4.53965
-12.3785
-30.5382
-49.336
-68.295
-87.5592
-106.856
-126.059
-145.177
-164.053
-182.583
-200.612
-217.923
-234.249
-249.289
-262.698
-274.136
-283.265
-289.672
-293.086
-293.298
-290.128
-283.411
-273.167
-259.744
-243.656
-225.333
-205.025
-182.893
-159.109
-133.777
-106.992
-78.5367
-49.0827
-17.1367
10.0598
61.6784
73.0213
85.0522
97.1972
108.291
118.471
127.274
134.141
139.03
142.163
143.737
143.995
143.155
141.363
138.728
135.286
131.049
126.017
120.177
113.525
106.08
97.8877
89.0241
79.6495
70.0705
60.638
51.6383
43.3111
35.8698
29.499
24.3564
20.5673
18.2278
17.4236
18.2861
21.0249
25.8164
33.3586
42.1568
46.2067
33.7575
19.323
3.58291
-12.349
-29.429
-47.079
-64.8414
-82.866
-100.894
-118.816
-136.654
-154.275
-171.595
-188.492
-204.778
-220.22
-234.551
-247.452
-258.599
-267.675
-274.277
-278.118
-278.992
-276.73
-271.167
-262.269
-250.269
-235.562
-218.519
-199.391
-178.347
-155.561
-131.15
-105.233
-77.6588
-49.0855
-18.3564
8.0252
57.6188
68.3674
79.7921
91.3488
101.925
111.66
120.114
126.749
131.52
134.644
136.309
136.744
136.162
134.705
132.478
129.517
125.829
121.408
116.233
110.284
103.564
96.0983
87.9385
79.221
70.2293
61.2955
52.6929
44.6564
37.4036
31.1279
25.9975
22.1506
19.6979
18.7343
19.3958
21.8775
26.3264
33.2919
41.3201
42.9561
31.1633
17.4965
2.61491
-12.4079
-28.4953
-45.0885
-61.7532
-78.6381
-95.499
-112.238
-128.89
-145.339
-161.522
-177.341
-192.635
-207.202
-220.805
-233.152
-243.94
-252.868
-259.564
-263.719
-265.136
-263.655
-259.116
-251.435
-240.754
-227.363
-211.571
-193.615
-173.666
-151.896
-128.433
-103.416
-76.7571
-49.0983
-19.5953
5.93873
53.7814
63.9802
74.8418
85.8506
95.9418
105.255
113.376
119.784
124.432
127.532
129.261
129.837
129.47
128.299
126.423
123.879
120.676
116.802
112.229
106.93
100.89
94.1173
86.6414
78.5741
70.1736
61.7527
53.5701
45.8529
38.8192
32.6682
27.5765
23.6938
21.144
20.0314
20.4943
22.715
26.8125
33.2018
40.4849
39.881
28.6979
15.7444
1.65896
-12.5242
-27.6942
-43.3133
-58.9662
-74.8006
-90.5852
-106.234
-121.787
-137.146
-152.262
-167.059
-181.4
-195.11
-207.977
-219.741
-230.12
-238.826
-245.525
-249.896
-251.747
-250.931
-247.287
-240.701
-231.235
-219.09
-204.511
-187.713
-168.86
-148.121
-125.629
-101.542
-75.8293
-49.117
-20.8439
3.81469
50.1615
59.8484
70.1849
80.6809
90.3168
99.2308
107.034
113.22
117.741
120.803
122.575
123.266
123.078
122.147
120.574
118.394
115.617
112.23
108.202
103.496
98.0894
91.9721
85.1546
77.7236
69.9122
62.013
54.2683
46.8951
40.1083
34.1102
29.0836
25.1879
22.5581
21.3076
21.5759
23.5335
27.2733
33.0911
39.6557
36.9794
26.3644
14.0749
0.730824
-12.6732
-26.9933
-41.7104
-56.4286
-71.291
-86.0818
-100.722
-115.258
-129.603
-143.721
-157.554
-170.983
-183.861
-195.999
-207.163
-217.096
-225.524
-232.15
-236.651
-238.837
-238.577
-235.712
-230.101
-221.748
-210.773
-197.364
-181.701
-163.941
-144.241
-122.742
-99.6113
-74.8735
-49.1369
-22.0922
1.668
46.7513
55.9606
65.805
75.8198
85.0268
93.5635
101.062
107.031
111.423
114.438
116.236
117.017
116.978
116.253
114.94
113.078
110.675
107.72
104.18
100.015
95.1926
89.6897
83.4996
76.6858
69.4566
62.0823
54.7882
47.7791
41.2642
35.4453
30.5096
26.6235
23.9316
22.5556
22.635
24.3292
27.7078
32.9623
38.837
34.2474
24.1628
12.4945
-0.157368
-12.838
-26.3667
-40.247
-54.0983
-68.062
-81.9314
-95.6371
-109.229
-122.63
-135.816
-148.741
-161.306
-173.382
-184.805
-195.365
-204.829
-212.936
-219.426
-223.982
-226.417
-226.612
-224.415
-219.669
-212.327
-202.445
-190.153
-175.599
-158.921
-140.266
-119.775
-97.6248
-73.887
-49.1526
-23.3309
-0.487251
43.5423
52.3058
61.6881
71.2491
80.0516
88.2302
95.4373
101.195
105.456
108.417
110.228
111.079
111.165
110.616
109.527
107.939
105.865
103.292
100.189
96.5143
92.2278
87.2968
81.6999
75.4799
68.82
61.9682
55.1323
48.5029
42.2811
36.6658
31.8453
27.9913
25.2559
23.7678
23.6653
25.0979
28.1147
32.818
38.0331
31.6798
22.0922
11.0061
-0.997702
-13.003
-25.7945
-38.8957
-51.9419
-65.0705
-78.0869
-90.926
-103.641
-116.163
-128.478
-140.551
-152.297
-163.606
-174.333
-184.293
-193.273
-201.03
-207.333
-211.88
-214.489
-215.048
-213.419
-209.433
-203.005
-194.138
-182.907
-169.427
-153.814
-136.204
-116.734
-95.5835
-72.8676
-49.1577
-24.5492
-2.63553
40.5268
48.8712
57.8192
66.9526
75.372
83.2093
90.1364
95.6892
99.8215
102.722
104.534
105.44
105.63
105.23
104.334
102.987
101.2
98.9658
96.2529
93.0189
89.221
84.8188
79.7787
74.1249
68.0169
61.6802
55.3046
49.0663
43.1553
37.7648
33.0826
29.2827
26.5223
24.9363
24.6607
25.8359
28.493
32.6607
37.2478
29.2701
20.1503
9.61107
-1.78478
-13.1576
-25.2605
-37.6343
-49.9304
-62.2829
-74.5061
-86.5401
-98.4401
-110.145
-121.647
-132.92
-143.893
-154.471
-164.528
-173.897
-182.387
-189.775
-195.852
-200.337
-203.053
-203.897
-202.744
-199.421
-193.813
-185.88
-175.652
-163.206
-148.639
-132.067
-113.623
-93.4891
-71.8121
-49.1459
-25.7368
-4.7619
37.696
45.6465
54.1843
62.9127
70.9689
78.4812
85.1404
90.4952
94.4991
97.3347
99.1404
100.089
100.364
100.092
99.3638
98.2249
96.6907
94.7545
92.3879
89.5499
86.1956
82.2791
77.7577
72.6401
67.0625
61.2294
55.3118
49.4708
43.8841
38.7372
34.214
30.489
27.7224
26.0535
25.6151
26.539
28.8418
32.4924
36.4845
27.0126
18.3335
8.30914
-2.51517
-13.295
-24.7527
-36.4463
-48.0424
-59.6713
-71.1557
-82.4413
-93.5824
-104.525
-115.269
-125.793
-136.038
-145.922
-155.336
-164.129
-172.132
-179.14
-184.961
-189.342
-192.107
-193.167
-192.407
-189.657
-184.78
-177.701
-168.413
-156.959
-143.409
-127.865
-110.45
-91.3424
-70.7186
-49.1094
-26.8832
-6.85112
35.0415
42.6202
50.7701
59.1143
66.8258
74.0287
80.4302
85.5936
89.4711
92.2398
94.0316
95.0115
95.3589
95.1958
94.6122
93.6549
92.3417
90.6683
88.6095
86.1258
83.1722
79.6992
75.6582
71.044
65.9731
60.6276
55.1614
49.7195
44.4667
39.5784
35.2329
31.6025
28.8482
27.1117
26.522
27.2032
29.1599
32.315
35.7464
24.901
16.6372
7.09936
-3.18669
-13.409
-24.2611
-35.3175
-46.2588
-57.2119
-68.0069
-78.5953
-89.0301
-99.2639
-109.298
-119.122
-128.682
-137.91
-146.709
-154.946
-162.469
-169.091
-174.636
-178.877
-181.646
-182.86
-182.421
-180.162
-175.932
-169.631
-161.219
-150.709
-138.146
-123.612
-107.221
-89.1475
-69.5839
-49.0415
-27.9795
-8.88795
32.5543
39.7817
47.5642
55.5442
62.9274
69.8354
75.9895
80.9675
84.7209
87.4212
89.1938
90.1964
90.6033
90.5336
90.0758
89.2771
88.1577
86.716
84.9296
82.7618
80.1686
77.0992
73.5003
69.3566
64.7652
59.8882
54.8622
49.8174
44.9039
40.286
36.1339
32.6162
29.8919
28.1035
27.3756
27.8246
29.4464
32.1299
35.0357
22.9284
15.0577
5.97895
-3.79821
-13.4962
-23.7785
-34.2364
-44.5651
-54.8856
-65.0372
-74.9749
-84.7517
-94.3233
-103.697
-112.864
-121.781
-130.39
-138.604
-146.307
-153.361
-159.597
-164.852
-168.929
-171.66
-172.977
-172.795
-170.952
-167.292
-161.694
-154.095
-144.478
-132.866
-119.322
-103.946
-86.9053
-68.4062
-48.9355
-29.0146
-10.8586
30.2259
37.1209
44.5552
52.1885
59.2591
65.8858
71.8022
76.6009
80.2329
82.8639
84.6135
85.6319
86.0885
86.0988
85.75
85.0898
84.1402
82.9024
81.357
79.4703
77.2001
74.4964
71.3027
67.5953
63.4548
59.0245
54.4247
49.7705
45.1978
40.8583
36.9131
33.5237
30.8463
29.0221
28.1698
28.3995
29.7002
31.9384
34.3543
21.088
13.5897
4.94571
-4.35028
-13.5539
-23.2998
-33.1946
-42.9481
-52.6762
-62.2262
-71.5553
-80.7178
-89.6725
-98.4284
-106.982
-115.297
-123.321
-130.981
-138.172
-144.771
-150.627
-155.585
-159.476
-162.141
-163.517
-163.535
-162.044
-158.881
-153.917
-147.066
-138.29
-127.589
-115.007
-100.632
-84.62
-67.183
-48.7821
-29.9801
-12.7496
28.0484
34.6279
41.7315
49.0345
55.8071
62.1648
67.8535
72.4788
75.9924
78.554
80.2774
81.3057
81.8035
81.883
81.6285
81.0895
80.2889
79.2305
77.8982
76.2613
74.2803
71.9061
69.0815
65.7768
62.0576
58.05
53.8593
49.5863
45.3522
41.2958
37.5672
34.3203
31.7053
29.8607
28.8992
28.9241
29.9202
31.7409
33.7033
19.3734
12.228
3.99658
-4.84404
-13.5805
-22.82
-32.1848
-41.3974
-50.5696
-59.5557
-68.3165
-76.9046
-85.283
-93.4623
-101.443
-109.192
-116.668
-123.804
-130.508
-136.669
-142.15
-146.811
-150.503
-153.075
-154.475
-154.645
-153.447
-150.717
-146.32
-140.155
-132.166
-122.333
-110.684
-97.2895
-82.2954
-65.9126
-48.5764
-30.8663
-14.5486
26.0136
32.2932
39.0825
46.0711
52.5591
58.6594
64.1295
68.5874
71.9857
74.4782
76.173
77.2068
77.7382
77.8774
77.7054
77.2724
76.6029
75.7021
74.5577
73.1423
71.4191
69.3412
66.8517
63.9166
60.5889
56.9788
53.1777
49.2729
45.3718
41.5997
38.095
35.0018
32.4635
30.6135
29.5585
29.3948
30.1052
31.5377
33.0829
17.7782
10.968
3.1279
-5.28076
-13.5755
-22.3367
-31.2016
-39.9053
-48.5553
-57.0129
-65.2413
-73.2922
-81.1321
-88.7725
-96.2165
-103.437
-110.397
-117.039
-123.28
-129.021
-134.14
-138.505
-141.989
-144.45
-145.844
-146.126
-145.169
-142.814
-138.922
-133.384
-126.127
-117.118
-106.365
-93.928
-79.9352
-64.594
-48.3112
-31.6658
-16.2448
24.1138
30.1086
36.5983
43.287
49.503
55.3571
60.6168
64.9139
68.2002
70.6241
72.2885
73.3238
73.8832
74.0734
73.9735
73.6333
73.0789
72.317
71.3384
70.1191
68.6255
66.813
64.6264
62.029
59.063
55.8241
52.3913
48.8396
45.2628
41.773
38.496
35.5657
33.1165
31.2756
30.1433
29.8085
30.2539
31.3286
32.4929
16.2959
9.80428
2.33622
-5.66255
-13.5392
-21.848
-30.2409
-38.4655
-46.6244
-54.5856
-62.3152
-69.8633
-77.1994
-84.3358
-91.2785
-98.0039
-104.48
-110.656
-116.459
-121.801
-126.569
-130.645
-133.915
-136.252
-137.617
-137.977
-137.216
-135.184
-131.74
-126.771
-120.194
-111.962
-102.068
-90.5572
-77.5444
-63.2269
-47.9808
-32.3713
-17.8285
22.3416
28.0655
34.2695
40.6714
46.6277
52.2459
57.3037
61.4456
64.6231
66.9796
68.6126
69.6464
70.2286
70.4627
70.4255
70.1671
69.7134
69.074
68.2416
67.1956
65.9058
64.3305
62.4169
60.1267
57.493
54.5989
51.5119
48.2958
45.0321
41.8195
38.7717
36.0106
33.6612
31.843
30.6495
30.1622
30.365
31.1129
31.932
14.9204
8.73187
1.61778
-5.99161
-13.4719
-21.3523
-29.2991
-37.0714
-44.768
-52.2627
-59.5247
-66.6019
-73.4668
-80.1326
-86.6062
-92.8681
-98.8909
-104.63
-110.02
-114.98
-119.413
-123.206
-126.263
-128.466
-129.785
-130.194
-129.592
-127.836
-124.789
-120.335
-114.385
-106.881
-97.8049
-87.1876
-75.1283
-61.8106
-47.5807
-32.9762
-19.2906
20.6899
26.1556
32.0871
38.2151
43.9228
49.315
54.179
58.1709
61.2432
63.5335
65.1342
66.1636
66.7643
67.0365
67.0542
66.8672
66.5026
65.9705
65.267
64.3742
63.265
61.9012
60.2327
58.2208
55.891
53.315
50.5508
47.6516
44.6873
41.7446
38.9241
36.3363
34.0956
32.3124
31.0739
30.4533
30.437
30.8896
31.3986
13.6456
7.74582
0.968738
-6.27038
-13.3745
-20.8492
-28.3737
-35.7193
-42.9798
-50.036
-56.8588
-63.4946
-69.9182
-76.1438
-82.1793
-88.0079
-93.6061
-98.9348
-103.935
-108.535
-112.646
-116.168
-119.013
-121.077
-122.336
-122.773
-122.297
-120.776
-118.078
-114.089
-108.716
-101.893
-93.5908
-83.8296
-72.6924
-60.347
-47.1065
-33.4753
-20.6244
19.1519
24.3714
30.0426
35.9087
41.3784
46.554
51.2314
55.0791
58.0495
60.2747
61.8426
62.8657
63.481
63.7859
63.8517
63.7276
63.4409
63.0036
62.4135
61.6558
60.7065
59.5307
58.0814
56.3208
54.2679
51.9842
49.5189
46.9167
44.2369
41.554
38.9568
36.544
34.4187
32.6818
31.4137
30.6796
30.4685
30.6572
30.8903
12.466
6.84121
0.385278
-6.50155
-13.2486
-20.3384
-27.4634
-34.4056
-41.2553
-47.8984
-54.3086
-60.5306
-66.5412
-72.3547
-77.9802
-83.4036
-88.6044
-93.5482
-98.1822
-102.443
-106.248
-109.509
-112.147
-114.071
-115.259
-115.705
-115.329
-114.008
-111.617
-108.046
-103.2
-97.0105
-89.4387
-80.4935
-70.2428
-58.837
-46.5565
-33.865
-21.8241
17.7209
22.7054
28.128
33.7435
38.9852
43.953
48.4512
52.1599
55.0315
57.1929
58.728
59.7427
60.3698
60.7029
60.8107
60.7416
60.5236
60.1696
59.6791
59.0405
58.2324
57.2234
55.9699
54.4351
52.6333
50.6167
48.4271
46.1013
43.6892
41.2546
38.8747
36.6362
34.6312
32.9505
31.6675
30.8394
30.4583
30.414
30.4042
11.3756
6.01338
-0.136466
-6.68783
-13.0956
-19.82
-26.5664
-33.1273
-39.5894
-45.8433
-51.8658
-57.6994
-63.3228
-68.751
-73.9934
-79.0379
-83.867
-88.4504
-92.7409
-96.6811
-100.198
-103.21
-105.647
-107.43
-108.543
-108.984
-108.685
-107.533
-105.412
-102.215
-97.852
-92.2484
-85.3612
-77.1891
-67.7861
-57.2832
-45.9292
-34.1423
-22.8859
16.3907
21.1509
26.3357
31.7113
36.7346
41.5029
45.8287
49.4032
52.1794
54.2787
55.7808
56.7858
57.4218
57.7787
57.9232
57.9025
57.745
57.464
57.0613
56.5273
55.8436
54.9822
53.9031
52.571
50.9956
49.2221
47.2851
45.215
43.0533
40.8539
38.6831
36.6163
34.7346
33.1186
31.8342
30.9315
30.405
30.1581
29.937
10.3695
5.25769
-0.600251
-6.83209
-12.9171
-19.2948
-25.6823
-31.8826
-37.9783
-43.8658
-49.5232
-54.9923
-60.2528
-65.3202
-70.2043
-74.895
-79.3768
-83.6232
-87.5919
-91.2317
-94.4762
-97.2514
-99.4959
-101.141
-102.174
-102.6
-102.36
-101.351
-99.4664
-96.6057
-92.6805
-87.6175
-81.3691
-73.926
-65.3285
-55.6889
-45.2239
-34.3058
-23.8072
15.1555
19.7012
24.6585
29.8043
34.6183
39.1949
43.3549
46.8002
49.4839
51.5225
52.9916
53.9858
54.6282
55.0056
55.1819
55.2037
55.099
54.8823
54.5565
54.1145
53.5404
52.8094
51.885
50.734
49.3624
47.8087
46.1021
44.2671
42.3379
40.3596
38.3883
36.4889
34.7317
33.1873
31.9142
30.9552
30.3074
29.8873
29.485
9.44229
4.56973
-1.00972
-6.93691
-12.7151
-18.7633
-24.8105
-30.6694
-36.4188
-41.9609
-47.2752
-52.4018
-57.3222
-62.0518
-66.601
-70.9608
-75.1185
-79.05
-82.7179
-86.0757
-89.0643
-91.6164
-93.677
-95.188
-96.1402
-96.5435
-96.3472
-95.4594
-93.7818
-91.2214
-87.6939
-83.1276
-77.4727
-70.713
-62.877
-54.0581
-44.4422
-34.3554
-24.5869
14.0093
18.3502
23.0894
28.0151
32.6283
37.021
41.0213
44.342
46.9361
48.9157
50.3516
51.3339
51.9807
52.3753
52.5793
52.6383
52.58
52.4195
52.1612
51.7997
51.322
50.7058
49.9183
48.9286
47.7398
46.3844
44.8868
43.2667
41.552
39.7798
37.9974
36.2595
34.6265
33.159
31.9082
30.9107
30.1646
29.5993
29.0443
8.58923
3.945
-1.36843
-7.00516
-12.4916
-18.2263
-23.9507
-29.4863
-34.9087
-40.1249
-45.1163
-49.9211
-54.5226
-58.9363
-63.1722
-67.2231
-71.078
-74.7158
-78.1026
-81.1969
-83.9454
-86.2875
-88.1742
-89.5562
-90.4281
-90.8035
-90.6395
-89.8542
-88.358
-86.0657
-82.8981
-78.7868
-73.6807
-67.5585
-60.4382
-52.3954
-43.5864
-34.2924
-25.2256
12.9468
17.0917
21.6222
26.3367
30.7574
34.9732
38.8199
42.0203
44.5279
46.4496
47.8528
48.8222
49.4713
49.8803
50.1082
50.1995
50.1819
50.0707
49.8714
49.5804
49.187
48.6718
48.0054
47.1588
46.1332
44.9558
43.6469
42.2222
40.7041
39.1229
37.5177
35.9344
34.4236
33.0369
31.8183
30.7983
29.9761
29.2921
28.6111
7.80556
3.37956
-1.67995
-7.03962
-12.2481
-17.6851
-23.1029
-28.3323
-33.4456
-38.3544
-43.0414
-47.544
-51.8466
-55.9644
-59.9076
-63.6701
-67.2428
-70.6066
-73.7313
-76.5797
-79.1037
-81.2492
-82.9721
-84.2314
-85.0247
-85.3688
-85.2282
-84.5297
-83.1928
-81.1397
-78.2974
-74.601
-70.0003
-64.4701
-58.0189
-50.7059
-42.66
-34.1195
-25.7252
11.9628
15.9203
20.2508
24.7628
28.9986
33.0445
36.7432
39.8274
42.2511
44.1164
45.4869
46.4427
47.0923
47.5132
47.7616
47.8811
47.8989
47.8306
47.6827
47.4535
47.1338
46.7071
46.1473
45.4274
44.5469
43.5287
42.3895
41.1415
39.8025
38.3972
36.9571
35.5203
34.1286
32.8252
31.6471
30.6193
29.7413
28.9635
28.1813
7.0868
2.86936
-1.94756
-7.04295
-11.9869
-17.1406
-22.2674
-27.2069
-32.0276
-36.6463
-41.0471
-45.2658
-49.2878
-53.1286
-56.7982
-60.2915
-63.601
-66.7096
-69.5904
-72.2097
-74.5246
-76.4864
-78.056
-79.1992
-79.9169
-80.2284
-80.1041
-79.4793
-78.2823
-76.4425
-73.8936
-70.5749
-66.4378
-61.4544
-55.6256
-48.9955
-41.6676
-33.8405
-26.0886
11.0524
14.8304
18.9695
23.2871
27.3453
31.2277
34.7838
37.7559
40.0983
41.9085
43.2465
44.1879
44.8366
45.2668
45.5327
45.6764
45.725
45.6941
45.5911
45.4155
45.1602
44.8109
44.3445
43.7366
42.9849
42.1083
41.1208
40.0318
38.8553
37.6107
36.3235
35.0245
33.7478
32.5289
31.3981
30.3755
29.4605
28.6117
27.7511
6.42863
2.41065
-2.17453
-7.01776
-11.7098
-16.5941
-21.4445
-26.1092
-30.6535
-34.9983
-39.1295
-43.0812
-46.8403
-50.4216
-53.8357
-57.078
-60.1421
-63.0132
-65.6673
-68.0736
-70.194
-71.9846
-73.4114
-74.446
-75.0919
-75.3702
-75.2571
-74.6952
-73.6212
-71.9719
-69.6871
-66.7112
-62.9977
-58.5172
-53.2643
-47.2701
-40.6147
-33.4603
-26.3206
10.2109
13.817
17.7724
21.9037
25.7912
29.5164
32.9351
35.7988
38.0624
39.8187
41.1244
42.0507
42.6969
43.1344
43.4149
43.5795
43.6547
43.6562
43.592
43.4629
43.2635
42.9817
42.5972
42.0877
41.4498
40.699
39.8467
38.9001
37.8701
36.7716
35.6249
34.4546
33.2879
32.1533
31.0753
30.0692
29.1341
28.2351
27.3169
5.82709
1.99971
-2.36388
-6.96659
-11.4184
-16.0467
-20.6348
-25.039
-29.3216
-33.408
-37.2852
-40.986
-44.4985
-47.8372
-51.0124
-54.0207
-56.8566
-59.507
-61.9501
-64.159
-66.0987
-67.7308
-69.0249
-69.9583
-70.5366
-70.7823
-70.6766
-70.1691
-69.2034
-67.7239
-65.6768
-63.0112
-59.6833
-55.6635
-50.9413
-45.5359
-39.5074
-32.9852
-26.4266
9.43383
12.8754
16.6546
20.6069
24.3306
27.9045
31.1906
33.9494
36.1365
37.8402
39.1138
40.0241
40.6667
41.1094
41.4021
41.5844
41.6824
41.7117
41.6811
41.5923
41.4414
41.2182
40.9051
40.4818
39.9441
39.3045
38.5721
37.7526
36.8538
35.8875
34.8693
33.8184
32.7561
31.7047
30.6834
29.7034
28.7629
27.8324
26.8755
5.27824
1.6332
-2.5187
-6.89178
-11.1149
-15.4994
-19.8383
-23.9957
-28.0309
-31.8734
-35.5114
-38.9764
-42.2578
-45.3693
-48.3216
-51.1116
-53.7351
-56.1804
-58.4282
-60.4539
-62.2265
-63.712
-64.8835
-65.7233
-66.2386
-66.4531
-66.352
-65.8914
-65.0217
-63.6939
-61.8602
-59.4748
-56.497
-52.8974
-48.6616
-43.7992
-38.3526
-32.4217
-26.4131
8.71694
12.0009
15.6111
19.3916
22.9577
26.3858
29.544
32.2016
34.3143
35.9664
37.208
38.102
38.7394
39.1856
39.488
39.6853
39.8027
39.8559
39.8541
39.8
39.6908
39.5184
39.2674
38.9196
38.4697
37.9279
37.3016
36.5948
35.8133
34.9659
34.0644
33.1235
32.1595
31.1894
30.2275
29.2815
28.3484
27.4028
26.4239
4.77843
1.3078
-2.6418
-6.79568
-10.8011
-14.9535
-19.0558
-22.9792
-26.7803
-30.3926
-33.8054
-37.0488
-40.1134
-43.0126
-45.7568
-48.3435
-50.7696
-53.0245
-55.0911
-56.9474
-58.5659
-59.916
-60.9746
-61.728
-62.1851
-62.3703
-62.2722
-61.8526
-61.0681
-59.8756
-58.2336
-56.1007
-53.4397
-50.2219
-46.4303
-42.0664
-37.1574
-31.7777
-26.2874
8.05625
11.1891
14.6373
18.2527
21.6674
24.9552
27.9899
30.5494