/*--------------------------------*- C++ -*----------------------------------*\
| =========                 |                                                 |
| \\      /  F ield         | OpenFOAM: The Open Source CFD Toolbox           |
|  \\    /   O peration     | Version:  2306                                  |
|   \\  /    A nd           | Website:  www.openfoam.com                      |
|    \\/     M anipulation  |                                                 |
\*---------------------------------------------------------------------------*/
FoamFile
{
    version     2.0;
    format      ascii;
    arch        "LSB;label=32;scalar=64";
    class       volSymmTensorField;
    location    "550";
    object      turbulenceProperties:devReff;
}
// * * * * * * * * * * * * * * * * * * * * * * * * * * * * * * * * * * * * * //

dimensions      [0 2 -2 0 0 0 0];

internalField   nonuniform List<symmTensor> 
10720
(
(0.00163714 0.0042578 -9.50056e-22 -0.00177373 -2.23883e-20 0.000136594)
(0.00238853 0.00488004 -1.24419e-22 -0.00248647 1.40368e-19 9.79406e-05)
(0.00361106 0.00546063 -2.76481e-20 -0.00380828 -4.34989e-19 0.000197225)
(0.00524593 0.00621489 1.19073e-19 -0.00549191 8.78824e-19 0.00024598)
(0.00742492 0.00687341 -2.25916e-19 -0.00769357 -8.34226e-19 0.000268644)
(0.010404 0.00726188 -1.72317e-19 -0.0107954 -4.50646e-19 0.000391443)
(0.014299 0.0073746 3.25999e-19 -0.0147853 1.25251e-18 0.000486258)
(0.0191877 0.00685906 -8.31323e-19 -0.0197702 -2.26133e-18 0.000582586)
(0.0252391 0.00535157 -2.0651e-19 -0.0259856 6.04419e-19 0.000746565)
(0.0325645 0.00260624 6.13778e-19 -0.033465 1.25948e-18 0.000900456)
(0.0413422 -0.00189799 1.57979e-18 -0.0424337 5.77707e-19 0.00109149)
(0.0519596 -0.008734 -3.5524e-18 -0.0532775 -3.29928e-18 0.00131783)
(0.0649577 -0.0188219 6.72791e-19 -0.0665509 8.68396e-19 0.00159319)
(0.081247 -0.0337493 2.68636e-18 -0.0832018 1.27312e-18 0.00195483)
(0.102368 -0.056169 -4.07746e-18 -0.104834 -6.36945e-18 0.00246626)
(0.13053 -0.0904044 -4.36536e-18 -0.133705 -2.58502e-18 0.00317454)
(0.169882 -0.14506 1.92127e-17 -0.174189 1.779e-17 0.00430665)
(0.224283 -0.232428 1.78591e-17 -0.230164 3.3791e-17 0.00588053)
(0.31093 -0.388885 -3.53876e-17 -0.319545 -5.48544e-17 0.00861512)
(0.426457 -0.641768 -1.37788e-18 -0.438632 1.45544e-17 0.0121751)
(0.666828 -1.21423 -2.72236e-17 -0.686224 5.20473e-17 0.0193962)
(0.945578 -2.11453 -1.24433e-17 -0.971694 4.18858e-17 0.0261156)
(1.76563 -5.12885 -1.43144e-16 -1.81777 -6.4193e-16 0.0521378)
(2.42847 -10.3117 3.31461e-16 -2.51193 5.58906e-16 0.0834575)
(1.52859 -11.6488 4.23731e-17 -1.56983 -7.12278e-16 0.04124)
(0.52683 -11.2309 3.65832e-16 -0.515509 5.8117e-16 -0.01132)
(-0.145593 -11.0469 -8.18326e-17 0.175356 -7.84416e-17 -0.0297636)
(-0.66491 -11.2297 2.74535e-16 0.68969 2.30585e-16 -0.0247803)
(-1.13638 -11.4431 7.29086e-16 1.15284 1.20857e-15 -0.0164538)
(-1.57189 -11.4556 4.00569e-16 1.58026 1.99767e-15 -0.00837133)
(-1.95806 -11.2412 -1.41155e-15 1.95636 -1.93149e-15 0.00170241)
(-2.27379 -10.8349 -4.74935e-16 2.26331 -7.26157e-16 0.0104757)
(-2.49383 -10.2215 -3.22549e-17 2.47889 -4.36829e-15 0.0149399)
(-2.60536 -9.41469 -2.58333e-15 2.58998 -7.30011e-15 0.0153775)
(-2.58945 -8.40631 1.00636e-15 2.57524 9.23278e-16 0.0142094)
(-2.43547 -7.22746 1.22003e-15 2.42446 1.14399e-15 0.0110189)
(-2.07414 -5.67372 -1.22421e-16 2.0607 -5.25127e-16 0.0134438)
(-1.58667 -4.17184 -1.51867e-15 1.58495 -2.44844e-17 0.0017168)
(-0.472654 -0.926837 -1.88612e-16 0.473445 -1.9033e-15 -0.000790576)
(0.000968053 0.00371303 2.394e-21 -0.00101994 5.55972e-20 5.18855e-05)
(0.000549691 0.00319714 -3.57156e-21 -0.000639717 2.56719e-23 9.00255e-05)
(0.000179308 0.0026111 -1.95661e-20 -0.000226375 -1.37148e-19 4.70667e-05)
(-6.7079e-05 0.00208971 4.98106e-21 3.29509e-05 9.36021e-20 3.41281e-05)
(-0.00017926 0.0015969 3.91899e-21 0.000160973 -1.82536e-20 1.82876e-05)
(-0.000172607 0.0011672 -3.38577e-20 0.000173003 1.10833e-19 -3.95946e-07)
(-8.40108e-05 0.000835305 -2.02266e-19 0.000108119 1.62794e-19 -2.4108e-05)
(5.47814e-05 0.000636924 1.39726e-19 -1.70831e-05 -5.5181e-20 -3.76983e-05)
(0.000231359 0.000621222 2.26703e-19 -0.000204965 -1.14671e-19 -2.63942e-05)
(0.000471315 0.000742215 -1.54452e-19 -0.000468024 3.90401e-20 -3.2906e-06)
(0.000812376 0.00102677 -3.88388e-20 -0.00082302 1.83172e-19 1.06435e-05)
(0.00130644 0.0015664 2.49336e-19 -0.00132442 1.03714e-19 1.79828e-05)
(0.00202428 0.00252564 4.59462e-19 -0.00205445 -7.15378e-20 3.01701e-05)
(0.00305564 0.00413712 -8.13975e-21 -0.00310694 -2.58799e-19 5.13003e-05)
(0.00447308 0.0066446 -8.04493e-20 -0.00454802 -1.73497e-19 7.49412e-05)
(0.00629922 0.0103377 2.69044e-20 -0.00640792 -5.82062e-20 0.000108705)
(0.00863912 0.015635 -1.97154e-19 -0.00878487 6.70124e-19 0.000145754)
(0.0117401 0.0234245 7.4238e-19 -0.0119383 2.75952e-19 0.000198174)
(0.0161482 0.03545 3.28026e-19 -0.0164165 -1.2185e-18 0.000268372)
(0.0226884 0.0549987 -1.32086e-18 -0.0230789 -3.46442e-19 0.000390541)
(0.0329407 0.0886168 -4.44085e-18 -0.0335316 -2.02925e-18 0.000590925)
(0.0490727 0.148528 -3.35499e-18 -0.0500521 -8.97244e-19 0.000979405)
(0.075704 0.263752 6.22756e-18 -0.0774818 -5.78845e-19 0.00177781)
(0.116281 0.487768 -7.46695e-18 -0.119918 1.2081e-18 0.00363662)
(0.183242 0.979449 4.06954e-18 -0.191089 -7.22404e-18 0.00784626)
(0.277943 2.01763 -1.26414e-16 -0.294318 2.61649e-18 0.016375)
(0.410053 4.53272 -7.83242e-17 -0.448528 1.2299e-17 0.0384749)
(0.421167 9.36903 6.59253e-17 -0.501475 8.24871e-19 0.0803078)
(0.00812318 13.292 8.69844e-18 -0.112266 -1.25662e-19 0.104143)
(-0.628749 14.9598 6.28591e-17 0.530418 4.36395e-19 0.0983314)
(-1.26785 15.3986 -4.37184e-16 1.18561 -4.89521e-18 0.0822437)
(-1.85323 15.4185 1.57309e-16 1.78589 2.09287e-17 0.0673381)
(-2.37739 15.2563 -1.88903e-15 2.3216 -1.53196e-16 0.0557947)
(-2.83317 14.9562 -3.45856e-15 2.78626 -2.37004e-16 0.0469018)
(-3.21856 14.534 1.05846e-15 3.17823 1.08379e-16 0.0403269)
(-3.53765 14.0109 1.02459e-15 3.50239 1.64291e-16 0.035263)
(-3.77532 13.2878 1.45055e-15 3.74323 2.66683e-16 0.0320883)
(-3.91954 12.4706 -2.90394e-16 3.88955 -3.67437e-17 0.0299971)
(-3.64023 10.0666 -4.55471e-15 3.63362 -7.84207e-16 0.00660727)
(0.000579433 -0.000460528 1.22858e-22 -0.00052005 4.00306e-21 -5.93829e-05)
(0.000492605 -0.000547355 2.90331e-20 -0.000425489 7.03537e-20 -6.7116e-05)
(0.000371416 -0.000622949 -2.69199e-20 -0.000291097 -4.74605e-20 -8.03189e-05)
(0.000250519 -0.000652178 -1.81361e-20 -0.00015859 -5.16564e-20 -9.19291e-05)
(0.00013315 -0.00064511 1.2227e-19 -3.25565e-05 2.37308e-19 -0.000100593)
(2.3141e-05 -0.000610486 4.76159e-20 8.61802e-05 7.38713e-20 -0.000109321)
(-6.029e-05 -0.000551403 2.2581e-19 0.000177198 2.07449e-19 -0.000116908)
(-0.000116636 -0.000479008 -1.16705e-19 0.000238471 -2.24588e-20 -0.000121835)
(-0.000149303 -0.000404777 1.64896e-19 0.000274582 1.14263e-19 -0.000125279)
(-0.000158011 -0.000336002 -5.85656e-21 0.000285259 2.50067e-22 -0.000127247)
(-0.000150112 -0.000278307 -2.23006e-19 0.000277009 -1.90525e-19 -0.000126896)
(-0.000132662 -0.00023995 2.87171e-19 0.00025889 3.57498e-19 -0.000126228)
(-0.000110888 -0.00022612 1.76603e-19 0.000240754 8.87439e-20 -0.000129866)
(-8.62532e-05 -0.00024579 -3.68423e-20 0.000231115 1.99826e-20 -0.000144861)
(-4.85447e-05 -0.000344619 -2.26871e-19 0.000241475 3.73459e-20 -0.00019293)
(6.24973e-05 -0.00065862 4.77379e-19 0.000258296 5.46282e-19 -0.000320793)
(0.000455306 -0.00154846 8.55325e-19 0.000142118 -9.35293e-19 -0.000597424)
(0.00150309 -0.00355132 -4.42158e-18 -0.00049954 -5.73098e-18 -0.00100355)
(0.00420696 -0.00867974 5.06205e-19 -0.0025384 7.46811e-18 -0.00166856)
(0.010484 -0.0211542 7.37192e-18 -0.00790022 -2.07045e-18 -0.00258374)
(0.0294398 -0.0624403 1.54643e-17 -0.0250361 6.12772e-18 -0.00440368)
(0.0739707 -0.174458 -2.35341e-17 -0.0677618 -2.25364e-17 -0.00620897)
(0.194571 -0.543754 7.40146e-17 -0.186803 1.86819e-16 -0.00776844)
(0.502921 -1.77823 1.58884e-19 -0.500172 -1.54211e-16 -0.00274917)
(0.747855 -3.54092 -2.72892e-16 -0.771492 1.69375e-16 0.0236369)
(0.789845 -5.3935 -9.71982e-17 -0.844072 -6.59995e-16 0.0542268)
(0.603652 -7.14962 1.17974e-18 -0.675396 7.56777e-17 0.0717444)
(0.204275 -8.39443 -2.94557e-16 -0.279751 -4.44862e-16 0.0754763)
(-0.295722 -8.63654 -4.93673e-16 0.229749 -2.83319e-15 0.0659727)
(-0.707254 -7.89772 -1.66965e-16 0.66602 -3.54672e-15 0.0412338)
(-0.931276 -6.69186 5.22923e-16 0.922848 4.8966e-15 0.00842761)
(-0.998221 -5.47779 -9.55195e-16 1.01635 -3.76397e-17 -0.0181314)
(-0.984335 -4.4981 -7.18939e-15 1.0141 1.34205e-15 -0.0297652)
(-0.930782 -3.75342 8.77246e-15 0.960406 1.5952e-14 -0.0296243)
(-0.863802 -3.1864 -1.48871e-15 0.887808 -8.63834e-16 -0.0240059)
(-0.781581 -2.74351 3.42268e-15 0.802067 -4.99343e-15 -0.0204856)
(-0.73089 -2.43231 -1.50358e-15 0.744264 1.5231e-15 -0.0133734)
(-0.56041 -2.13712 3.24929e-15 0.595702 4.02606e-16 -0.0352917)
(-0.78731 -2.25524 5.36289e-15 0.698354 7.29117e-15 0.0889563)
(0.000645655 -0.00034501 9.36998e-21 -0.000595427 2.31774e-20 -5.02283e-05)
(0.000684421 -0.000224612 -1.27043e-20 -0.00063747 -9.60292e-20 -4.69503e-05)
(0.000691694 -7.63945e-05 -1.86441e-20 -0.000654664 -1.11219e-19 -3.70305e-05)
(0.000654249 8.66809e-05 -7.12348e-21 -0.000627665 1.65311e-19 -2.65843e-05)
(0.000565078 0.000235301 1.92652e-21 -0.000550957 4.34555e-20 -1.41215e-05)
(0.000429276 0.000348908 3.78248e-20 -0.000425619 -1.45276e-19 -3.65735e-06)
(0.000271226 0.00040598 7.02572e-20 -0.00027464 -2.2467e-19 3.41362e-06)
(0.000131122 0.000406958 -3.17857e-19 -0.000140194 8.39339e-21 9.07269e-06)
(2.28721e-05 0.000374119 4.88574e-20 -3.33816e-05 2.16475e-19 1.05095e-05)
(-6.6316e-05 0.000316361 1.24469e-21 6.00908e-05 -1.29264e-19 6.22511e-06)
(-0.000121767 0.000243629 -8.32677e-20 0.000123187 -7.89501e-20 -1.42008e-06)
(-0.000141757 0.000176672 -6.00706e-20 0.00015008 -8.49753e-20 -8.32282e-06)
(-0.000139971 0.000124397 -1.12035e-20 0.000152778 1.86594e-20 -1.28068e-05)
(-0.00012757 8.66287e-05 3.75294e-20 0.000142839 1.00991e-19 -1.52691e-05)
(-0.000111044 6.08898e-05 6.47341e-20 0.000127502 2.50097e-20 -1.64583e-05)
(-9.41908e-05 4.40025e-05 -9.21267e-20 0.000110951 -4.69921e-21 -1.67605e-05)
(-7.86826e-05 3.33876e-05 8.27055e-20 9.51006e-05 8.54273e-21 -1.64179e-05)
(-6.53908e-05 2.68724e-05 -9.84906e-21 8.10452e-05 -2.8878e-20 -1.56544e-05)
(-5.43344e-05 2.27331e-05 -3.38117e-20 6.89938e-05 5.37892e-20 -1.46595e-05)
(-4.52858e-05 1.99641e-05 -2.57775e-20 5.8919e-05 2.80596e-20 -1.36333e-05)
(-3.79975e-05 1.79326e-05 -6.20005e-20 5.07309e-05 6.97506e-20 -1.27334e-05)
(-3.26724e-05 1.64692e-05 -8.7321e-20 4.49201e-05 4.53009e-20 -1.22476e-05)
(-2.91895e-05 1.55186e-05 -1.25798e-19 4.16893e-05 1.08381e-20 -1.24997e-05)
(-2.68697e-05 1.54958e-05 5.6107e-20 4.05156e-05 5.32849e-21 -1.36459e-05)
(-2.46032e-05 1.72629e-05 -3.99456e-21 3.96875e-05 5.47753e-21 -1.50843e-05)
(-0.000235311 0.000213506 5.26708e-19 0.000404616 1.37782e-19 -0.000169305)
(-0.0011975 0.00135689 2.6967e-18 0.0021678 -1.92567e-19 -0.000970299)
(-0.00866895 0.0119941 1.08355e-18 0.0162507 -4.51521e-19 -0.00758179)
(-0.0262269 0.0459314 -7.54142e-19 0.0499595 1.03223e-19 -0.0237325)
(-0.0449442 0.102717 4.96452e-17 0.0849991 2.01597e-18 -0.0400548)
(-0.0579722 0.170679 4.02654e-16 0.105298 9.72239e-18 -0.0473253)
(-0.065977 0.235243 2.39535e-16 0.111231 1.31172e-17 -0.0452535)
(-0.0730168 0.289382 1.76247e-15 0.112019 1.20944e-16 -0.0390026)
(-0.0819867 0.33494 2.54475e-15 0.11474 1.69293e-16 -0.0327529)
(-0.0941523 0.375377 -5.70581e-16 0.122123 -9.71788e-17 -0.0279708)
(-0.108449 0.415565 -4.90974e-16 0.133605 -8.61558e-17 -0.0251556)
(-0.128786 0.456189 -1.22519e-15 0.151576 -5.15123e-16 -0.0227895)
(-0.147323 0.552325 -2.52523e-15 0.174171 -3.46033e-18 -0.0268483)
(-0.207655 0.775776 -2.03917e-15 0.197453 1.35852e-15 0.0102021)
(0.000333681 -0.000312808 1.72579e-21 -0.000360069 2.38758e-21 2.63878e-05)
(0.00025836 -0.000372282 -2.7296e-20 -0.000290235 -6.63199e-20 3.1875e-05)
(0.00016085 -0.000413559 -6.02087e-21 -0.000197977 -3.03305e-21 3.71263e-05)
(5.20705e-05 -0.000426362 2.27884e-20 -9.69438e-05 4.92238e-20 4.48733e-05)
(-5.44257e-05 -0.000413077 -7.20971e-20 3.54566e-06 -1.46642e-19 5.088e-05)
(-0.000154783 -0.000372457 -8.20729e-20 9.7908e-05 -1.34513e-19 5.68754e-05)
(-0.000238945 -0.000308489 -1.66416e-19 0.000175434 -2.45978e-19 6.35111e-05)
(-0.0003 -0.000230744 -1.34057e-20 0.000231133 -1.99282e-21 6.88671e-05)
(-0.000337765 -0.000145421 -7.30691e-20 0.000264305 -1.74013e-19 7.34608e-05)
(-0.000352964 -6.11088e-05 3.05788e-19 0.000275454 3.47969e-19 7.75099e-05)
(-0.000348658 1.659e-05 -5.00763e-20 0.000268535 6.81113e-20 8.01225e-05)
(-0.000331379 8.39144e-05 3.41324e-20 0.000250345 2.10022e-20 8.10343e-05)
(-0.000307328 0.000139291 -2.33532e-19 0.000227515 -2.97227e-19 7.9813e-05)
(-0.000281381 0.00018487 1.50383e-19 0.000204153 -1.39609e-20 7.72271e-05)
(-0.000254015 0.000218734 4.36372e-20 0.000181549 1.35416e-19 7.24661e-05)
(-0.000223465 0.000237231 5.33192e-20 0.00015865 2.559e-20 6.48154e-05)
(-0.00018339 0.000232177 -2.46073e-19 0.000130474 -1.43319e-19 5.29155e-05)
(-0.000151775 0.000222382 2.07408e-19 0.000109552 1.54608e-19 4.22233e-05)
(-9.8286e-05 0.000162302 4.86991e-20 7.29455e-05 6.36199e-22 2.53405e-05)
(-0.000953992 0.00171955 -2.20611e-18 0.000737906 -3.31909e-19 0.000216086)
(-0.00030349 0.000581475 8.82326e-19 0.00024713 -3.46498e-19 5.63602e-05)
(-0.000628309 0.00124191 6.9179e-20 0.000546311 1.18578e-18 8.1998e-05)
(-0.000109331 0.000125236 4.84904e-19 0.000116775 -7.16157e-19 -7.44427e-06)
(0.00189268 -0.00704408 -3.43517e-18 -0.00152531 -3.67026e-18 -0.000367364)
(0.0132694 -0.05867 4.8561e-18 -0.0112774 1.7144e-17 -0.00199205)
(0.0327305 -0.196652 -2.90446e-17 -0.028494 7.94853e-18 -0.00423656)
(0.0534404 -0.493144 1.48089e-17 -0.0473962 1.15535e-18 -0.0060442)
(0.0639031 -1.1154 -1.43259e-17 -0.05667 7.64851e-17 -0.00723308)
(0.0252169 -2.20244 -4.40741e-16 -0.0184304 2.46457e-16 -0.0067865)
(-0.120004 -3.63228 2.17027e-16 0.123165 3.53256e-16 -0.00316113)
(-0.387213 -4.91427 1.56362e-15 0.381987 -5.86737e-16 0.0052253)
(-0.691681 -5.52369 -2.76461e-15 0.677238 2.16222e-15 0.0144434)
(-0.905411 -5.36681 5.13879e-16 0.889653 9.32678e-15 0.0157575)
(-0.983013 -4.787 -4.87258e-17 0.974602 -6.36759e-15 0.00841158)
(-0.96485 -4.12829 3.05767e-15 0.963369 -2.30086e-15 0.00148069)
(-0.878552 -3.52387 -1.43664e-14 0.881528 5.20257e-16 -0.00297622)
(-0.798663 -3.05361 4.95828e-15 0.797742 -1.62571e-15 0.00092064)
(-0.531555 -2.55656 5.13618e-15 0.547638 -1.5221e-15 -0.0160821)
(-0.843974 -2.81471 -1.0022e-14 0.825971 2.90316e-15 0.0180035)
(0.000395295 -0.000236804 -3.54253e-21 -0.000419381 -6.74349e-21 2.40862e-05)
(0.000435596 -0.000154352 -1.34281e-20 -0.000454967 -1.89999e-20 1.93711e-05)
(0.000460048 -5.32795e-05 5.56879e-20 -0.000474973 1.20065e-19 1.49256e-05)
(0.000454763 5.43796e-05 1.14453e-20 -0.000464206 -1.35569e-20 9.44313e-06)
(0.000415687 0.000160468 7.89579e-21 -0.000421152 -8.89555e-20 5.46419e-06)
(0.000342125 0.00024805 -2.46539e-20 -0.000344106 6.37276e-20 1.98095e-06)
(0.000244197 0.00030301 2.37581e-20 -0.000243891 1.44099e-19 -3.06875e-07)
(0.000141061 0.000319908 1.56358e-19 -0.000141807 1.67851e-19 7.46262e-07)
(4.8137e-05 0.000309274 5.31698e-20 -4.95979e-05 -1.33522e-19 1.46092e-06)
(-2.83435e-05 0.000273935 1.18442e-19 2.7288e-05 7.01953e-20 1.05542e-06)
(-7.85703e-05 0.000221402 -8.35355e-20 7.72411e-05 2.14691e-20 1.32923e-06)
(-0.00010266 0.000166969 -1.20563e-20 0.000100154 7.06292e-20 2.50591e-06)
(-0.000108698 0.000119366 5.25967e-21 0.000104634 -6.34549e-20 4.06421e-06)
(-0.000104073 8.10066e-05 1.1335e-19 9.83162e-05 -7.97961e-20 5.75726e-06)
(-9.40452e-05 5.20544e-05 8.56325e-21 8.68706e-05 -1.25373e-20 7.17459e-06)
(-8.20395e-05 3.1043e-05 -1.26635e-20 7.36758e-05 5.23561e-20 8.36375e-06)
(-7.02287e-05 1.64115e-05 8.11347e-20 6.10086e-05 -9.58408e-20 9.22005e-06)
(-5.97404e-05 6.3148e-06 1.31939e-20 4.98982e-05 1.15877e-20 9.84215e-06)
(-5.10627e-05 -7.62337e-07 9.35631e-20 4.08714e-05 -6.54337e-21 1.01912e-05)
(-4.39374e-05 -6.08769e-06 1.00026e-19 3.34928e-05 2.2411e-20 1.04446e-05)
(-3.80777e-05 -1.0408e-05 2.55856e-19 2.74928e-05 -3.37973e-20 1.05849e-05)
(-3.29294e-05 -1.44531e-05 3.31047e-19 2.21557e-05 -5.00794e-20 1.07737e-05)
(-2.77599e-05 -1.86722e-05 1.96865e-19 1.66898e-05 1.70544e-20 1.10701e-05)
(-2.10892e-05 -2.26158e-05 4.53302e-20 9.2359e-06 -9.27063e-21 1.18533e-05)
(-1.29581e-05 -2.48037e-05 -4.86227e-20 -2.34523e-07 2.34844e-20 1.31926e-05)
(-4.80907e-06 -2.40848e-05 1.81522e-19 -9.43751e-06 -2.94973e-20 1.42466e-05)
(2.16948e-06 -2.25522e-05 -4.88549e-20 -1.80223e-05 -4.75415e-21 1.58529e-05)
(5.47535e-06 -1.38325e-05 -3.13946e-20 -1.76537e-05 6.47237e-22 1.21783e-05)
(5.62363e-05 -7.33791e-05 2.76157e-20 -0.000143674 -8.68617e-22 8.7438e-05)
(0.000481013 -0.000275627 -1.44016e-18 -0.00111255 -5.45016e-20 0.000631533)
(0.00145033 0.000425599 -8.6502e-18 -0.00322072 -7.89052e-20 0.00177039)
(0.00231358 0.00468904 -5.48354e-17 -0.00521488 -3.18048e-18 0.00290131)
(0.00185828 0.0154474 -1.3433e-16 -0.00506977 -4.43514e-18 0.00321149)
(-0.000687032 0.0342914 -3.34077e-16 -0.00190407 -2.28752e-17 0.0025911)
(-0.00553305 0.0608628 -8.55085e-16 0.00399382 -7.65348e-17 0.00153923)
(-0.0113402 0.0929831 2.15621e-16 0.0108486 -1.74519e-17 0.000491601)
(-0.0190811 0.127614 -1.173e-15 0.0190412 2.10969e-16 3.98908e-05)
(-0.00964345 0.154101 2.94729e-15 0.0104764 5.32945e-16 -0.000832991)
(-0.0374652 0.261203 4.63717e-15 0.0294842 9.50712e-16 0.00798094)
(0.00030628 -0.000258223 9.51568e-21 -0.000296876 1.62784e-20 -9.40394e-06)
(0.000259298 -0.000306082 -1.32542e-20 -0.000248912 -2.38931e-20 -1.03863e-05)
(0.000195911 -0.00034741 -6.02783e-21 -0.000182639 -3.32172e-21 -1.32724e-05)
(0.000125024 -0.000374211 7.16065e-20 -0.000109146 1.04795e-19 -1.5878e-05)
(5.17748e-05 -0.000382635 4.5507e-20 -3.28945e-05 8.24868e-20 -1.88803e-05)
(-2.12931e-05 -0.000372943 5.77214e-20 4.3669e-05 1.10845e-19 -2.23759e-05)
(-8.66745e-05 -0.000347085 8.81562e-20 0.000112589 1.01992e-19 -2.59149e-05)
(-0.000139539 -0.000308085 -5.05818e-20 0.000168994 -7.85516e-20 -2.94547e-05)
(-0.000178415 -0.000260562 -1.80919e-19 0.00021168 -1.79248e-19 -3.32644e-05)
(-0.000202004 -0.000209912 2.34922e-19 0.000238693 1.323e-19 -3.66891e-05)
(-0.000211574 -0.000160037 1.97567e-19 0.000251484 1.67323e-19 -3.99103e-05)
(-0.000209291 -0.000114101 2.55705e-19 0.00025182 1.22495e-19 -4.25287e-05)
(-0.000197728 -7.42122e-05 -4.20852e-19 0.000241973 -1.34781e-19 -4.42448e-05)
(-0.000179865 -4.12314e-05 -3.58072e-19 0.000224684 -2.40536e-19 -4.48187e-05)
(-0.000157738 -1.50509e-05 4.73808e-19 0.00020221 1.49028e-19 -4.44717e-05)
(-0.000133096 7.47222e-06 9.57514e-20 0.000175258 5.89651e-20 -4.21614e-05)
(-0.000107748 2.66635e-05 -7.10846e-20 0.000145944 7.33682e-21 -3.81956e-05)
(-8.42536e-05 4.27577e-05 -2.28719e-19 0.000117102 -1.49848e-19 -3.2848e-05)
(-6.08361e-05 5.36472e-05 5.08337e-20 8.53964e-05 -1.95036e-20 -2.45604e-05)
(-4.31027e-05 5.86943e-05 2.00645e-19 5.91298e-05 6.19048e-20 -1.60271e-05)
(-3.80375e-05 7.08196e-05 -2.68483e-19 4.8997e-05 -7.72201e-20 -1.09595e-05)
(-5.25861e-05 0.000122306 1.87495e-19 6.32766e-05 2.6782e-20 -1.06905e-05)
(-4.20182e-05 0.000126143 -4.9243e-20 4.88274e-05 -1.06758e-20 -6.80923e-06)
(-0.000411636 0.00187346 -1.45495e-18 0.000491113 7.1351e-19 -7.94769e-05)
(-0.00065861 0.00710148 3.94431e-18 0.000960035 -1.25885e-18 -0.000301424)
(0.000545848 0.0137303 -7.98254e-18 8.55068e-05 1.05927e-17 -0.000631355)
(0.00147554 0.00766355 6.59147e-20 -0.00105747 -1.51215e-19 -0.000418064)
(0.00216929 0.00299458 4.01777e-18 -0.0018171 -1.42731e-18 -0.000352194)
(0.0042721 -0.0103399 6.34411e-18 -0.0037657 1.60558e-17 -0.000506397)
(0.0099023 -0.107305 2.65716e-17 -0.00866798 -1.20358e-16 -0.00123431)
(-0.000281754 -0.476637 -6.62672e-17 0.0024826 -3.9502e-16 -0.00220085)
(-0.0766568 -1.29759 2.07501e-15 0.0793747 5.51017e-16 -0.00271789)
(-0.263399 -2.42318 2.96969e-15 0.264286 6.72348e-16 -0.000886618)
(-0.514068 -3.34371 -1.64328e-15 0.510664 -2.23411e-15 0.00340444)
(-0.715493 -3.72244 -7.3332e-15 0.709542 1.42202e-15 0.00595092)
(-0.792898 -3.65049 4.79366e-15 0.790369 4.89524e-15 0.00252901)
(-0.801306 -3.42072 -1.01676e-14 0.796626 -1.30417e-16 0.00468027)
(-0.573949 -3.01948 -1.30263e-14 0.584297 1.88151e-15 -0.0103472)
(-0.814707 -3.21254 9.21225e-15 0.786368 -3.43372e-15 0.0283386)
(0.000342224 -0.000198497 -1.46076e-20 -0.000335899 -2.97426e-20 -6.32502e-06)
(0.000364714 -0.000135329 -5.0237e-21 -0.000359228 2.03041e-20 -5.48569e-06)
(0.000373312 -5.72455e-05 4.83501e-20 -0.000370622 9.21873e-20 -2.69014e-06)
(0.00036393 2.51555e-05 -2.06946e-20 -0.00036261 -1.1622e-21 -1.32004e-06)
(0.000332411 0.000105542 1.80246e-20 -0.000332513 1.1422e-19 1.02043e-07)
(0.00027855 0.000174405 5.52693e-20 -0.00027883 -1.58029e-20 2.79879e-07)
(0.000208874 0.000222873 5.97611e-20 -0.000208618 -1.55032e-21 -2.5615e-07)
(0.000134091 0.000246333 -1.47488e-19 -0.000134121 -8.91345e-20 2.99186e-08)
(6.20832e-05 0.000246781 -8.05829e-20 -6.28879e-05 6.96675e-21 8.04679e-07)
(-4.81293e-07 0.000226456 1.33622e-19 -6.61794e-07 6.03014e-20 1.14309e-06)
(-4.60143e-05 0.000192083 6.2369e-20 4.50225e-05 -5.11784e-21 9.91793e-07)
(-7.36465e-05 0.000153527 7.38463e-20 7.31321e-05 -4.55937e-20 5.14416e-07)
(-8.69238e-05 0.000117332 -1.14039e-19 8.71756e-05 -7.47465e-20 -2.51849e-07)
(-9.02497e-05 8.63932e-05 -1.41383e-19 9.13693e-05 2.66889e-20 -1.11959e-06)
(-8.73193e-05 6.17588e-05 1.29048e-20 8.93386e-05 3.73725e-20 -2.01937e-06)
(-8.10776e-05 4.30064e-05 4.3723e-20 8.39014e-05 -1.3012e-20 -2.82386e-06)
(-7.35834e-05 2.93006e-05 -1.07379e-19 7.71376e-05 -8.50158e-21 -3.55421e-06)
(-6.6111e-05 1.94555e-05 -4.12443e-21 7.02675e-05 -1.70996e-20 -4.15644e-06)
(-5.93561e-05 1.23042e-05 -4.12364e-20 6.40056e-05 -8.07166e-21 -4.64947e-06)
(-5.34503e-05 6.79487e-06 8.66503e-20 5.8436e-05 -4.99185e-20 -4.98568e-06)
(-4.83435e-05 2.24992e-06 -9.43812e-20 5.35919e-05 -3.27929e-20 -5.2484e-06)
(-4.37598e-05 -1.90784e-06 -1.96269e-19 4.92024e-05 -2.31689e-20 -5.44262e-06)
(-3.92321e-05 -6.02087e-06 8.88866e-21 4.48497e-05 -2.975e-20 -5.61759e-06)
(-3.40472e-05 -9.84474e-06 5.03135e-20 3.9779e-05 -2.86284e-20 -5.73184e-06)
(-2.84136e-05 -1.2248e-05 1.5248e-19 3.44235e-05 -1.06384e-20 -6.00996e-06)
(-2.34555e-05 -1.29978e-05 -1.4286e-19 3.00706e-05 -8.27429e-21 -6.61511e-06)
(-1.95444e-05 -1.28635e-05 -2.45767e-20 2.68443e-05 7.64431e-21 -7.29989e-06)
(-1.65195e-05 -1.23522e-05 1.47862e-20 2.44677e-05 1.29346e-21 -7.94824e-06)
(-1.3684e-05 -1.14346e-05 -6.83164e-21 2.18799e-05 -2.74689e-22 -8.19589e-06)
(-1.08693e-05 -1.02008e-05 -9.94595e-21 1.87103e-05 4.83587e-22 -7.84098e-06)
(-7.46305e-06 -8.18569e-06 -1.60114e-20 1.38315e-05 -8.4559e-22 -6.3685e-06)
(-4.21054e-06 -5.75704e-06 4.61046e-20 8.61678e-06 1.33026e-21 -4.40625e-06)
(-3.03627e-05 -5.73873e-05 2.01395e-18 7.74493e-05 1.31022e-19 -4.70866e-05)
(-5.8397e-07 -4.60446e-05 1.88472e-17 0.000110491 1.75294e-18 -0.000109907)
(0.000237722 0.000603008 7.89122e-17 -0.000137082 1.03961e-17 -0.000100639)
(0.000888295 0.00334885 -1.74472e-16 -0.000948558 -2.66374e-17 6.02635e-05)
(0.00157577 0.0112213 7.42937e-16 -0.00205612 1.09884e-16 0.000480345)
(0.00672056 0.0279078 -4.86138e-16 -0.00721144 -1.68287e-16 0.000490883)
(-0.00282649 0.10449 -3.29616e-16 -0.00195373 -1.41019e-15 0.00478022)
(0.000222634 -0.000196128 -1.35347e-20 -0.000225649 -2.01606e-20 3.01561e-06)
(0.000184148 -0.000231624 2.65854e-21 -0.000188508 4.23596e-21 4.35983e-06)
(0.000134444 -0.000261248 1.61108e-20 -0.000139278 1.74974e-20 4.83418e-06)
(7.79987e-05 -0.000279187 -9.89662e-20 -8.41632e-05 -1.40665e-19 6.16454e-06)
(1.8932e-05 -0.000283319 -7.24487e-20 -2.64808e-05 -8.47329e-20 7.54883e-06)
(-4.04423e-05 -0.00027307 1.69306e-19 3.16123e-05 2.02667e-19 8.82991e-06)
(-9.4835e-05 -0.000249163 -1.79755e-19 8.42688e-05 -2.23209e-19 1.05662e-05)
(-0.000140347 -0.000213788 -8.1262e-20 0.000127929 -5.40597e-20 1.24181e-05)
(-0.00017474 -0.000169936 -1.93186e-19 0.000160477 -1.44566e-19 1.42627e-05)
(-0.00019668 -0.000121817 -3.59989e-20 0.000180319 -6.55051e-20 1.63605e-05)
(-0.000206279 -7.2869e-05 2.41759e-20 0.000187824 -8.7237e-21 1.84546e-05)
(-0.000204704 -2.62633e-05 -1.32279e-19 0.000184162 -1.75438e-19 2.05423e-05)
(-0.000193971 1.5445e-05 4.30642e-19 0.000171446 2.94944e-19 2.25255e-05)
(-0.000176465 5.07378e-05 -1.41749e-19 0.000152269 -2.47893e-20 2.41963e-05)
(-0.000154504 7.94331e-05 -3.47388e-19 0.000128934 -1.51909e-19 2.55693e-05)
(-0.000130522 0.000100453 2.30337e-19 0.000104584 4.60945e-21 2.5938e-05)
(-0.000106122 0.000113127 -1.67346e-19 8.13099e-05 -9.65211e-20 2.48125e-05)
(-8.19663e-05 0.000118319 2.29119e-21 5.92362e-05 1.22505e-19 2.27301e-05)
(-5.96024e-05 0.000117958 -4.02617e-20 3.9544e-05 -3.16308e-20 2.00584e-05)
(-3.91178e-05 0.000110575 -2.84137e-19 2.25968e-05 -1.96317e-19 1.6521e-05)
(-2.01757e-05 8.61584e-05 1.80293e-19 9.39589e-06 1.75024e-19 1.07798e-05)
(-1.01253e-05 6.59317e-05 3.44877e-21 3.85514e-06 -1.06331e-19 6.27016e-06)
(-6.76522e-06 6.98242e-05 3.83939e-20 2.13419e-06 1.17472e-20 4.63103e-06)
(-2.5266e-06 7.98462e-05 1.11642e-19 -1.2121e-06 -5.0047e-21 3.7387e-06)
(3.76825e-06 8.70013e-05 -3.76449e-20 -6.74389e-06 -1.19897e-20 2.97564e-06)
(9.46818e-06 8.9207e-05 1.26742e-19 -1.15646e-05 2.0241e-20 2.09637e-06)
(0.000406455 0.00283559 -2.20366e-19 -0.000445142 4.93596e-21 3.86872e-05)
(0.000562424 0.00343632 -5.46063e-19 -0.000584708 -3.3826e-19 2.22839e-05)
(0.00134012 0.00717592 2.3468e-20 -0.00135213 1.84911e-18 1.2014e-05)
(0.000720873 0.00316906 -9.22518e-18 -0.000714504 7.61549e-19 -6.36961e-06)
(0.00257665 0.00812258 -1.02879e-17 -0.0025336 1.72049e-18 -4.30476e-05)
(0.0105053 0.0119466 2.75356e-17 -0.0102793 -1.60716e-16 -0.000226034)
(0.0187259 -0.0984257 5.75643e-16 -0.0178952 -7.06324e-16 -0.000830708)
(-0.0256566 -0.584365 -2.98307e-15 0.0276514 1.58995e-16 -0.00199475)
(-0.182243 -1.49018 4.83527e-15 0.18406 1.81673e-15 -0.00181659)
(-0.400784 -2.39931 -9.961e-16 0.401494 4.27551e-16 -0.000709736)
(-0.586047 -2.9639 -1.75008e-15 0.582081 3.98581e-15 0.00396524)
(-0.525521 -3.0858 6.73222e-16 0.536151 2.44382e-16 -0.0106301)
(-0.773305 -3.40212 -1.726e-14 0.735817 4.3126e-15 0.0374885)
(0.000253108 -0.000152903 8.63746e-21 -0.000256266 3.53071e-21 3.15744e-06)
(0.000274184 -0.000106572 -3.12486e-20 -0.000275956 -4.49325e-20 1.77281e-06)
(0.000285724 -4.96654e-05 3.99008e-21 -0.000287343 2.03317e-20 1.61917e-06)
(0.000283464 1.1771e-05 1.70416e-20 -0.000284288 -5.68581e-20 8.23689e-07)
(0.000264476 7.30933e-05 -1.38576e-19 -0.000265053 -1.99266e-19 5.76422e-07)
(0.000228057 0.000127523 -1.41948e-19 -0.000228065 7.28582e-20 8.49093e-09)
(0.00017833 0.000168591 1.98759e-19 -0.000178005 1.03191e-19 -3.25335e-07)
(0.000122699 0.000192328 -6.43111e-20 -0.00012258 -1.86803e-19 -1.19076e-07)
(6.67714e-05 0.00019883 -8.78176e-20 -6.69512e-05 2.49287e-20 1.79777e-07)
(1.59936e-05 0.000188953 -5.98844e-20 -1.63332e-05 -1.03992e-19 3.3958e-07)
(-2.36404e-05 0.000167061 2.09744e-20 2.3337e-05 3.16661e-20 3.03436e-07)
(-5.04748e-05 0.000139406 -3.93064e-20 5.01956e-05 -5.14049e-20 2.79222e-07)
(-6.58568e-05 0.000110987 -8.11802e-20 6.55264e-05 1.0921e-19 3.30484e-07)
(-7.23438e-05 8.47907e-05 8.61059e-20 7.18771e-05 5.05163e-20 4.66758e-07)
(-7.25481e-05 6.24353e-05 7.31689e-20 7.18744e-05 -3.36506e-20 6.73715e-07)
(-6.88982e-05 4.43327e-05 -1.50338e-20 6.79432e-05 -3.01137e-20 9.54968e-07)
(-6.32425e-05 3.02671e-05 4.36826e-20 6.19784e-05 9.72955e-21 1.26411e-06)
(-5.69267e-05 1.95706e-05 -6.47135e-20 5.53454e-05 1.65351e-20 1.58135e-06)
(-5.07691e-05 1.14598e-05 4.58168e-20 4.88922e-05 -1.20501e-21 1.87694e-06)
(-4.5112e-05 5.13608e-06 -6.03069e-20 4.29597e-05 -2.81633e-20 2.15231e-06)
(-4.00221e-05 -2.29573e-08 5.81808e-20 3.7644e-05 4.86287e-21 2.37813e-06)
(-3.53181e-05 -4.52333e-06 7.79909e-20 3.27491e-05 1.70605e-20 2.569e-06)
(-3.06274e-05 -8.65391e-06 -5.44302e-21 2.79075e-05 7.15668e-21 2.71988e-06)
(-2.53523e-05 -1.22589e-05 -1.46136e-19 2.2432e-05 6.97819e-23 2.9203e-06)
(-1.95036e-05 -1.45491e-05 -5.43769e-20 1.63509e-05 -2.32202e-20 3.15275e-06)
(-1.39163e-05 -1.52711e-05 -1.60215e-20 1.05755e-05 2.46904e-20 3.34086e-06)
(-9.03129e-06 -1.50183e-05 5.92788e-20 5.385e-06 7.36131e-22 3.64629e-06)
(-4.81581e-06 -1.41933e-05 2.13745e-21 7.4546e-07 -4.86913e-22 4.07035e-06)
(-1.23694e-06 -1.3132e-05 -3.35563e-21 -3.3232e-06 2.86664e-22 4.56015e-06)
(1.63628e-06 -1.12934e-05 3.75535e-20 -6.35332e-06 1.73923e-22 4.71705e-06)
(4.36908e-06 -1.18021e-05 3.32641e-20 -1.00252e-05 1.07544e-21 5.65614e-06)
(3.23001e-06 -5.83751e-06 -8.99536e-20 -6.13123e-06 -4.97798e-21 2.90122e-06)
(1.18542e-05 -1.72085e-05 -7.62374e-19 -1.98274e-05 -5.91321e-20 7.97315e-06)
(8.6077e-05 -0.000108085 -1.05776e-18 -0.000127997 -1.29189e-19 4.19196e-05)
(0.00023958 -0.000261108 2.02123e-18 -0.00031715 2.15863e-20 7.75698e-05)
(0.000569187 -0.000463125 -9.08104e-18 -0.000661167 3.61051e-18 9.19799e-05)
(0.000260058 -9.31395e-05 -1.27223e-17 -0.000281111 -1.05891e-17 2.10532e-05)
(0.000884002 0.000200495 5.28419e-17 -0.000863555 3.77387e-18 -2.04475e-05)
(0.00383547 0.0196985 -2.90399e-16 -0.00520792 5.22439e-17 0.00137245)
(0.00018413 -0.000161014 1.18696e-20 -0.000183018 1.37883e-20 -1.11164e-06)
(0.000155879 -0.000189721 -2.9849e-20 -0.000154872 -3.58774e-20 -1.00703e-06)
(0.000118627 -0.000214942 -2.41029e-21 -0.000117023 -4.98743e-21 -1.60468e-06)
(7.60892e-05 -0.00023239 -1.24403e-20 -7.41975e-05 -6.48759e-21 -1.89168e-06)
(3.1036e-05 -0.000239974 9.86365e-20 -2.87668e-05 1.13518e-19 -2.26912e-06)
(-1.54507e-05 -0.000237317 7.56357e-20 1.84274e-05 6.24058e-20 -2.97673e-06)
(-5.93403e-05 -0.00022451 9.61778e-22 6.29578e-05 3.04985e-20 -3.61756e-06)
(-9.76928e-05 -0.000202637 1.87631e-19 0.000102082 1.81804e-19 -4.38914e-06)
(-0.00012879 -0.000173559 -2.34317e-20 0.000134176 -3.1288e-21 -5.38569e-06)