# p  FACE_DATA 150
# x y z  p
0.29576437 -0.05 -0.059999701 21780.203
0.28738431 -0.05 -0.059968924 21776.613
0.27918472 -0.05 -0.059906283 21776.687
0.27116186 -0.05 -0.05981265 21779.858
0.26331203 -0.05 -0.059689027 21786.554
0.25563166 -0.05 -0.059536266 21797.141
0.24811723 -0.05 -0.059355154 21811.731
0.24076528 -0.05 -0.059146557 21830.199
0.23357246 -0.05 -0.058911358 21852.349
0.22653546 -0.05 -0.058650342 21878.489
0.21965107 -0.05 -0.058364201 21908.469
0.21291613 -0.05 -0.058053757 21941.827
0.20632755 -0.05 -0.057719714 21979.04
0.19988232 -0.05 -0.057362759 22019.093
0.19357748 -0.05 -0.056983702 22062.585
0.18741014 -0.05 -0.056583118 22110.171
0.18137746 -0.05 -0.056161624 22161.85
0.17547671 -0.05 -0.055719844 22217.904
0.16970518 -0.05 -0.055258362 22277.453
0.16406021 -0.05 -0.05477783 22340.431
0.15853921 -0.05 -0.054278745 22407.275
0.15313968 -0.05 -0.053761636 22477.732
0.14785914 -0.05 -0.053226963 22552.755
0.14269518 -0.05 -0.052675258 22631.452
0.13764543 -0.05 -0.052106992 22714.182
0.13270762 -0.05 -0.051522466 22799.152
0.12787949 -0.05 -0.050922169 22887.08
0.12315883 -0.05 -0.050306449 22980.001
0.11854353 -0.05 -0.049675629 23076.124
0.11403148 -0.05 -0.04903008 23175.635
0.10962066 -0.05 -0.04837006 23279.199
0.10530909 -0.05 -0.047695796 23386.778
0.10109483 -0.05 -0.047007509 23498.131
0.096976017 -0.05 -0.046305459 23613.105
0.092950808 -0.05 -0.04558984 23732.985
0.08901745 -0.05 -0.044860715 23859.775
0.085174232 -0.05 -0.044118143 23993.011
0.081419479 -0.05 -0.043362242 24131.852
0.077751578 -0.05 -0.042593081 24277.555
0.074168981 -0.05 -0.041810614 24430.743
0.070670198 -0.05 -0.041014781 24589.993
0.06725379 -0.05 -0.040205491 24754.066
0.06391837 -0.05 -0.039382651 24923.34
0.060662655 -0.05 -0.038545988 25101.13
0.057485397 -0.05 -0.037695273 25286.2
0.054385414 -0.05 -0.036830261 25479.639
0.051361622 -0.05 -0.035950545 25681.564
0.048412992 -0.05 -0.035055749 25893.128
0.045538629 -0.05 -0.034145316 26115.417
0.042737712 -0.05 -0.03321865 26348.255
0.040009498 -0.05 -0.032275149 26591.543
0.037353406 -0.05 -0.031314032 26846.514
0.034768993 -0.05 -0.030334375 27115.86
0.032255944 -0.05 -0.029335211 27403.159
0.029814132 -0.05 -0.028315426 27709.339
0.027443661 -0.05 -0.027273729 28033.809
0.025144824 -0.05 -0.026208776 28379.577
0.022918276 -0.05 -0.02511886 28748.536
0.020764984 -0.05 -0.02400217 29139.63
0.018686283 -0.05 -0.022856725 29557.509
0.016684024 -0.05 -0.021680228 30002.266
0.01476059 -0.05 -0.020470219 30476.363
0.012919251 -0.05 -0.019223865 30981.987
0.011164249 -0.05 -0.017938283 31519.991
0.0095007128 -0.05 -0.016610449 32095.02
0.0079348886 -0.05 -0.015236971 32709.925
0.006474941 -0.05 -0.013814774 33341.589
0.0051312596 -0.05 -0.012341958 33950.878
0.0039150106 -0.05 -0.010816511 34507.329
0.0028396284 -0.05 -0.009238845 35017.117
0.0019206554 -0.05 -0.007613688 35392.612
0.0011720639 -0.05 -0.0059475212 35564.432
0.0006061561 -0.05 -0.004252283 35509.961
0.00023063831 -0.05 -0.0025452878 35192.121
4.5460517e-05 -0.05 -0.0008455405 34577.762
0.99536103 -0.05 -0.00067021835 26363.56
0.98608197 -0.05 -0.0020028877 26165.703
0.97680071 -0.05 -0.0033200849 25969.218
0.96751731 -0.05 -0.0046220425 25803.314
0.95823181 -0.05 -0.0059090613 25650.201
0.94894428 -0.05 -0.0071813587 25511.639
0.93965479 -0.05 -0.0084391859 25383.586
0.93036339 -0.05 -0.0096828487 25264.807
0.92107013 -0.05 -0.010912491 25153.906
0.91177504 -0.05 -0.012128333 25049.726
0.9024782 -0.05 -0.013330648 24951.739
0.89317963 -0.05 -0.014519511 24859.327
0.88387936 -0.05 -0.015695054 24771.545
0.87457746 -0.05 -0.016857552 24687.691
0.86527394 -0.05 -0.01800713 24607.569
0.85596885 -0.05 -0.019143876 24530.559
0.84666223 -0.05 -0.020267984 24456.363
0.8373541 -0.05 -0.021379502 24384.959
0.82804448 -0.05 -0.022478516 24315.892
0.8187334 -0.05 -0.023565119 24249.088
0.8094209 -0.05 -0.024639397 24184.183
0.80010698 -0.05 -0.025701394 24121.221
0.79079168 -0.05 -0.026751168 24059.705
0.78147501 -0.05 -0.027788748 23999.828
0.77215699 -0.05 -0.028814138 23941.217
0.76283764 -0.05 -0.029827333 23884.07
0.75351698 -0.05 -0.030828337 23827.836
0.744195 -0.05 -0.03181713 23772.629
0.73487174 -0.05 -0.032793639 23718.002
0.72554719 -0.05 -0.033757832 23664.268
0.71622136 -0.05 -0.034709535 23611.42
0.70689427 -0.05 -0.03564879 23558.918
0.69756593 -0.05 -0.03657554 23507.308
0.68823632 -0.05 -0.037489546 23456.477
0.67890547 -0.05 -0.03839067 23406.196
0.66957337 -0.05 -0.039278803 23356.03
0.66024004 -0.05 -0.040153805 23306.042
0.65090546 -0.05 -0.04101549 23256.304
0.64156964 -0.05 -0.041863622 23207.078
0.63223258 -0.05 -0.042697993 23158.152
0.62289428 -0.05 -0.043518409 23109.617
0.61355475 -0.05 -0.044324591 23061.395
0.60421397 -0.05 -0.045116235 23013.504
0.59487195 -0.05 -0.045893096 22965.687
0.58552869 -0.05 -0.046654869 22918.213
0.57618419 -0.05 -0.047401205 22870.848
0.56683843 -0.05 -0.048131797 22823.704
0.55749143 -0.05 -0.04884624 22776.898
0.54814318 -0.05 -0.049544112 22730.371
0.53879368 -0.05 -0.050225066 22683.769
0.52944294 -0.05 -0.050888717 22637.398
0.52009095 -0.05 -0.051534504 22591.637
0.51073771 -0.05 -0.052161963 22545.883
0.50138323 -0.05 -0.052770676 22500.527
0.49202751 -0.05 -0.05336005 22455.924
0.48267056 -0.05 -0.053929509 22411.857
0.47331239 -0.05 -0.054478508 22368.288
0.46395301 -0.05 -0.055006444 22325.208
0.45459243 -0.05 -0.05551264 22282.506
0.44523066 -0.05 -0.055996468 22239.785
0.43586772 -0.05 -0.056457197 22197.917
0.42650365 -0.05 -0.056894081 22156.84
0.41713847 -0.05 -0.057306403 22117.097
0.4077722 -0.05 -0.057693321 22079.137
0.39840488 -0.05 -0.058053993 22041.535
0.38903655 -0.05 -0.058387504 22005.385
0.37966728 -0.05 -0.058692933 21970.418
0.3702971 -0.05 -0.058969274 21937.381
0.36092607 -0.05 -0.059215505 21906.293
0.35155428 -0.05 -0.059430617 21877.496
0.34218182 -0.05 -0.059613395 21851.268
0.33280876 -0.05 -0.059762649 21827.628
0.32343521 -0.05 -0.059877122 21807.931
0.31406128 -0.05 -0.059955444 21792.82
0.30468712 -0.05 -0.059996221 21784.216
