/*--------------------------------*- C++ -*----------------------------------*\
| =========                 |                                                 |
| \\      /  F ield         | OpenFOAM: The Open Source CFD Toolbox           |
|  \\    /   O peration     | Version:  2306                                  |
|   \\  /    A nd           | Website:  www.openfoam.com                      |
|    \\/     M anipulation  |                                                 |
\*---------------------------------------------------------------------------*/
FoamFile
{
    version     2.0;
    format      ascii;
    arch        "LSB;label=32;scalar=64";
    class       volScalarField;
    location    "175";
    object      p;
}
// * * * * * * * * * * * * * * * * * * * * * * * * * * * * * * * * * * * * * //

dimensions      [0 2 -2 0 0 0 0];

internalField   nonuniform List<scalar> 
1340
(
-8.18069
-1.17877
-7.89724
-5.84362
-1.2394
-7.71287
-3.87682
-5.7245
-1.25426
-7.57639
-5.31723
-5.54532
-3.79752
-5.59433
-1.26646
-7.42353
-6.19004
-5.95656
-5.15863
-5.3907
-3.71314
-5.45084
-1.27724
-7.25099
-7.08502
-6.73242
-6.42592
-5.95907
-5.75039
-4.99214
-5.22748
-3.62123
-5.30038
-1.27725
-7.07397
-7.53714
-7.27083
-7.01333
-6.7501
-6.42963
-6.15384
-5.7198
-5.53557
-4.8176
-5.0565
-3.52041
-5.14485
-1.26431
-6.89707
-7.8905
-7.73792
-7.55262
-7.33773
-7.0951
-6.86557
-6.63947
-6.40764
-6.11891
-5.87327
-5.47221
-5.31206
-4.63482
-4.87735
-3.41074
-4.98306
-1.24065
-6.71781
-7.25737
-7.33936
-7.38119
-7.38346
-7.34726
-7.27402
-7.1656
-7.024
-6.85204
-6.65099
-6.45643
-6.26051
-6.05896
-5.80128
-5.58503
-5.21685
-5.08019
-4.44397
-4.69
-3.2925
-4.81432
-1.20769
-6.53405
-4.77107
-5.10412
-5.41182
-5.69151
-5.9408
-6.1576
-6.3402
-6.48729
-6.59798
-6.67183
-6.70884
-6.70942
-6.67442
-6.60509
-6.50287
-6.37019
-6.20769
-6.04597
-5.87869
-5.706
-5.47836
-5.2904
-4.95468
-4.84076
-4.24554
-4.49477
-3.16605
-4.63863
-1.16591
-6.34573
0.375882
0.016291
-0.350767
-0.724006
-1.10187
-1.48262
-1.8643
-2.24477
-2.62163
-2.99241
-3.35443
-3.70494
-4.04115
-4.36023
-4.65944
-4.93611
-5.18776
-5.41211
-5.60719
-5.77131
-5.90317
-6.00182
-6.06674
-6.09781
-6.09528
-6.05991
-5.99254
-5.89521
-5.76796
-5.63662
-5.49618
-5.35063
-5.15173
-4.99074
-4.68675
-4.59454
-4.04006
-4.2921
-3.03165
-4.45621
-1.11615
-6.15301
6.02486
5.97303
5.91992
5.8641
5.80464
5.74163
5.67536
5.6059
5.53291
5.45567
5.37445
5.2906
5.20548
5.11953
5.03229
4.94242
4.84823
4.74786
4.63884
4.51843
4.38531
4.2399
4.08322
3.91628
3.7403
3.55574
3.36207
3.15859
2.945
2.72117
2.48703
2.24243
1.98731
1.72169
1.44574
1.1597
0.863972
0.559051
0.245616
-0.0755378
-0.403425
-0.736891
-1.07457
-1.41492
-1.75623
-2.09657
-2.43385
-2.76582
-3.09012
-3.40427
-3.70573
-3.99194
-4.26037
-4.50859
-4.73428
-4.93531
-5.1098
-5.25614
-5.37303
-5.45954
-5.51509
-5.53947
-5.53295
-5.49582
-5.42975
-5.33422
-5.23061
-5.11497
-4.99465
-4.82289
-4.6873
-4.41402
-4.34233
-3.82802
-4.08221
-2.88968
-4.26683
-1.05944
-5.95475
5.41071
5.36531
5.31865
5.26974
5.21792
5.16315
5.10538
5.04442
4.98036
4.91315
4.84223
4.76724
4.68911
4.60933
4.52883
4.44746
4.36418
4.27742
4.18558
4.08649
3.97765
3.85761
3.72651
3.5851
3.43418
3.27487
3.10798
2.93327
2.75011
2.55804
2.35691
2.14657
1.92692
1.69792
1.45964
1.2122
0.955836
0.69087
0.41775
0.137033
-0.150574
-0.444212
-0.742829
-1.04525
-1.35009
-1.65581
-1.9607
-2.26288
-2.56034
-2.85095
-3.13246
-3.40257
-3.65896
-3.89931
-4.12137
-4.323
-4.5022
-4.65722
-4.78652
-4.88886
-4.96331
-5.00927
-5.02662
-5.01516
-4.97622
-4.90873
-4.83
-4.73696
-4.63975
-4.49336
-4.38136
-4.13752
-4.08489
-3.61019
-3.86536
-2.74094
-4.06992
-0.997481
-5.7491
4.86169
4.82253
4.7822
4.73982
4.6948
4.64721
4.59697
4.54384
4.48762
4.42841
4.36639
4.30131
4.23265
4.16072
4.08672
4.01182
3.93627
3.85931
3.7795
3.69527
3.60474
3.50565
3.39654
3.27756
3.14956
3.01322
2.86948
2.71902
2.56162
2.39657
2.22344
2.04208
1.85248
1.65464
1.44857
1.23427
1.01185
0.78151
0.543533
0.298292
0.0462971
-0.211828
-0.47528
-0.743166
-1.01441
-1.28777
-1.56187
-1.83518
-2.106
-2.37253
-2.63282
-2.88485
-3.12652
-3.35571
-3.57029
-3.76819
-3.94744
-4.10619
-4.24279
-4.35579
-4.44402
-4.50658
-4.54304
-4.5528
-4.5368
-4.49362
-4.43683
-4.36403
-4.28764
-4.16464
-4.07424
-3.85838
-3.82305
-3.38746
-3.6415
-2.58675
-3.86435
-0.932253
-5.53261
4.37473
4.34095
4.30602
4.26906
4.22957
4.18775
4.14366
4.09715
4.04796
3.99594
3.9411
3.88363
3.82356
3.76066
3.69481
3.6265
3.55657
3.48561
3.41342
3.33908
3.26133
3.17852
3.08826
2.98863
2.87971
2.76297
2.63961
2.51041
2.37552
2.23424
2.08574
1.92973
1.76632
1.5956
1.41758
1.2322
1.03945
0.839399
0.632245
0.418241
0.197759
-0.0287469
-0.260669
-0.497327
-0.737874
-0.981351
-1.22663
-1.47247
-1.71748
-1.96014
-2.19878
-2.43166
-2.65691
-2.87264
-3.07691
-3.26777
-3.44331
-3.60169
-3.74124
-3.86041
-3.95787
-4.0325
-4.08363
-4.11035
-4.11328
-4.09067
-4.05283
-3.99788
-3.93991
-3.83819
-3.76705
-3.57799
-3.55712
-3.16144
-3.40984
-2.42985
-3.64641
-0.868268
-5.29954
3.96135
3.93163
3.90129
3.86951
3.83562
3.79967
3.76173
3.72178
3.67961
3.63512
3.58826
3.53924
3.48806
3.43425
3.37622
3.31205
3.24041
3.16157
3.07708
2.9894
2.90124
2.8158
2.73614
2.66314
2.59313
2.51902
2.43297
2.32993
2.21084
2.082
1.94898
1.81291
1.67219
1.52516
1.37114
1.21021
1.04266
0.86865
0.688283
0.501659
0.308998
0.110609
-0.0930455
-0.301483
-0.51403
-0.72996
-0.948381
-1.16827
-1.38853
-1.60788
-1.82489
-2.03809
-2.24587
-2.44655
-2.63838
-2.81958
-2.98836
-3.14297
-3.28177
-3.40317
-3.50578
-3.58833
-3.64996
-3.68954
-3.70749
-3.70178
-3.67981
-3.64033
-3.5981
-3.51576
-3.46079
-3.29808
-3.28704
-2.93455
-3.16826
-2.27423
-3.41227
-0.812503
-5.0438
3.45829
3.43331
3.40785
3.38141
3.35335
3.32356
3.292
3.25872
3.22361
3.1866
3.1475
3.10621
3.0626
3.01665
2.96805
2.91634
2.86104
2.80234
2.7411
2.67872
2.61613
2.55308
2.48799
2.41908
2.34548
2.2669
2.18322
2.09468
2.00093
1.90053
1.79305
1.67967
1.56141
1.43824
1.30979
1.17575
1.03598
0.890415
0.739157
0.582287
0.41997
0.252345
0.0797063
-0.0976699
-0.279293
-0.46468
-0.65318
-0.844061
-1.03646
-1.2294
-1.42176
-1.61236
-1.79986
-1.98284
-2.15977
-2.3291
-2.48921
-2.63847
-2.77527
-2.89805
-3.00536
-3.09583
-3.16839
-3.22175
-3.2559
-3.26893
-3.26422
-3.24267
-3.21706
-3.15852
-3.11869
-2.99125
-2.98328
-2.69222
-2.89253
-2.11874
-3.14224
-0.774438
-4.75777
2.94496
2.92512
2.90473
2.88356
2.8613
2.83782
2.81302
2.7868
2.75914
2.72998
2.69922
2.66676
2.63256
2.59686
2.56026
2.52319
2.48562
2.44698
2.40649
2.36338
2.31707
2.26696
2.21256
2.15313
2.08828
2.01848
1.94528
1.8703
1.79433
1.71634
1.63382
1.54456
1.44896
1.34866
1.24441
1.13579
1.02239
0.903973
0.780626
0.65234
0.519269
0.381429
0.238998
0.0921001
-0.0589802
-0.213941
-0.372348
-0.533729
-0.697435
-0.862807
-1.02903
-1.19518
-1.36022
-1.52306
-1.68241
-1.837
-1.9854
-2.12619
-2.25788
-2.37899
-2.4881
-2.58381
-2.66492
-2.72999
-2.77874
-2.80916
-2.8215
-2.81687
-2.80917
-2.77228
-2.75271
-2.65339
-2.66387
-2.41261
-2.61938
-1.91067
-2.90781
-0.662772
-4.57521
2.5086
2.49315
2.4771
2.46024
2.44244
2.42364
2.40382
2.38286
2.36072
2.33739
2.31286
2.28705
2.25982
2.23099
2.20057
2.16856
2.13499
2.09947
2.06139
2.02009
1.9754
1.92761
1.87782
1.82735
1.77762
1.72882
1.67987
1.62862
1.57311
1.51248
1.4472
1.37767
1.30349
1.22387
1.13935
1.05089
0.958752
0.862622
0.762353
0.657847
0.549208
0.436372
0.319462
0.198489
0.0736529
-0.0548839
-0.186798
-0.321785
-0.459384
-0.599147
-0.740464
-0.882677
-1.02497
-1.16652
-1.3063
-1.44329
-1.5763
-1.70416
-1.82554
-1.93917
-2.04372
-2.13788
-2.22044
-2.29002
-2.34616
-2.38681
-2.41024
-2.41737
-2.4226
-2.4021
-2.39848
-2.32175
-2.34868
-2.12982
-2.34717
-1.69026
-2.67921
-0.529335
-4.40365
2.09426
2.08172
2.06833
2.05403
2.03894
2.023
2.00612
1.98817
1.96916
1.94911
1.92802
1.90576
1.88219
1.85719
1.83068
1.80264
1.77321
1.74232
1.70979
1.67516
1.63831
1.59919
1.55814
1.51578
1.4731
1.43069
1.38856
1.3454
1.29951
1.24943
1.19503
1.1368
1.07488
1.00854
0.937484
0.862466
0.784427
0.703367
0.619068
0.531254
0.439882
0.344873
0.246353
0.144377
0.03917
-0.069163
-0.180338
-0.294151
-0.41019
-0.52812
-0.647381
-0.76743
-0.8876
-1.00715
-1.12521
-1.24092
-1.35326
-1.46117
-1.56352
-1.6592
-1.74701
-1.8259
-1.89451
-1.95239
-1.99752
-2.02706
-2.04157
-2.05529
-2.04672
-2.05462
-1.99639
-2.0355
-1.84637
-2.06943
-1.4652
-2.43808
-0.392156
-4.19721
1.72267
1.71273
1.7023
1.6912
1.67941
1.66687
1.65356
1.63939
1.62438
1.60852
1.59181
1.57413
1.55539
1.53551
1.51444
1.49211
1.46851
1.44365
1.41767
1.39051
1.36193
1.3316
1.29946
1.26556
1.23018
1.19371
1.15691
1.12016
1.08328
1.04512
1.00432
0.959864
0.911825
0.860568
0.805994
0.747607
0.685714
0.621073
0.554135
0.484589
0.412148
0.336614
0.258094
0.176641
0.0924402
0.00552144
-0.0839412
-0.175843
-0.269906
-0.365897
-0.463426
-0.562113
-0.661455
-0.760919
-0.859834
-0.957528
-1.05318
-1.14597
-1.23494
-1.31917
-1.39763
-1.46941
-1.53329
-1.58886
-1.6342
-1.666
-1.68446
-1.7031
-1.70266
-1.71839
-1.67477
-1.72247
-1.55931
-1.78473
-1.23046
-2.1822
-0.243479
-3.95697
1.3649
1.35788
1.35022
1.34189
1.33298
1.32353
1.31353
1.30293
1.29172
1.27988
1.26738
1.25415
1.24012
1.22523
1.20943
1.19267
1.17495
1.15619
1.13633
1.11543
1.09363
1.07082
1.0467
1.02102
0.993814
0.965198
0.935454
0.904935
0.874153
0.843297
0.811996
0.779252
0.744059
0.70585
0.664873
0.621348
0.57502
0.525509
0.473344
0.419067
0.362739
0.304079
0.243052
0.179657
0.114051
0.0462468
-0.0236475
-0.0955918
-0.169421
-0.24498
-0.322021
-0.40029
-0.479437
-0.559099
-0.638777
-0.717979
-0.796088
-0.872474
-0.946387
-1.01709
-1.08374
-1.14558
-1.20159
-1.25144
-1.29336
-1.32412
-1.34349
-1.36384
-1.36808
-1.38822
-1.35537
-1.40833
-1.26693
-1.49179
-0.982078
-1.90924
-0.0746855
-3.67911
0.996204
0.991044
0.985514
0.979519
0.973042
0.966163
0.958891
0.951204
0.943039
0.93435
0.925108
0.915291
0.904875
0.893829
0.882128
0.869744
0.856655
0.842812
0.828154
0.812625
0.796242
0.779105
0.761349
0.742821
0.723183
0.702198
0.679985
0.65676
0.632844
0.608606
0.584468
0.5605
0.536333
0.511148
0.484284
0.455538
0.425081
0.392694
0.357992
0.320938
0.282047
0.241489
0.199093
0.154598
0.108004
0.0593371
0.0087342
-0.0437582
-0.098016
-0.153952
-0.211368
-0.270074
-0.329786
-0.390224
-0.45101
-0.511765
-0.572029
-0.631334
-0.689108
-0.744789
-0.797729
-0.847378
-0.892878
-0.934033
-0.969337
-0.996066
-1.01354
-1.03269
-1.03838
-1.05969
-1.03394
-1.08878
-0.964778
-1.18565
-0.715438
-1.60995
0.116889
-3.32337
0.732107
0.729291
0.726102
0.722332
0.717966
0.713301
0.708506
0.703607
0.698433
0.692872
0.686827
0.680399
0.673592
0.666441
0.658878
0.65091
0.642441
0.63346
0.6239
0.613764
0.602986
0.591597
0.57962
0.567197
0.554341
0.540813
0.526119
0.510072
0.492844
0.47476
0.456067
0.436993
0.417679
0.397972
0.377391
0.355307
0.331379
0.305708
0.278495
0.249425
0.218683
0.186988
0.154808
0.122041
0.0884818
0.0539619
0.0184693
-0.0180351
-0.0555117
-0.0939473
-0.133255
-0.17336
-0.214121
-0.255411
-0.297025
-0.338748
-0.380304
-0.421406
-0.461672
-0.500733
-0.538142
-0.573542
-0.606277
-0.636291
-0.66235
-0.682711
-0.695998
-0.711466
-0.715805
-0.735453
-0.713351
-0.767215
-0.656009
-0.869498
-0.43361
-1.28076
0.324112
-2.8422
0.218651
0.215229
0.211602
0.207926
0.204226
0.200489
0.196545
0.192347
0.187806
0.182955
0.177744
0.172235
0.16641
0.160271
0.153743
0.146811
0.139401
0.131463
0.12293
0.113756
0.103891
0.0932822
0.0818894
0.0696125
0.0563975
0.042215
0.0269454
0.0101993
-0.00808983
-0.0269917
-0.0440936
-0.0562583
-0.0604076
-0.0543668
-0.037305
-0.0102321
0.0240052
0.0609418
0.0953198
0.122255
0.138113
0.141065
0.132965
0.118392
0.101078
0.082328
0.0621
0.0402355
0.0169162
-0.00751763
-0.0327087
-0.0583758
-0.0842798
-0.110241
-0.136084
-0.161642
-0.186742
-0.211227
-0.234915
-0.257641
-0.279201
-0.299474
-0.318084
-0.335175
-0.349823
-0.361543
-0.368661
-0.378374
-0.37908
-0.394609
-0.373862
-0.422574
-0.324955
-0.515769
-0.139618
-0.856408
0.469032
-1.98956
0.346019
0.346459
0.347065
0.347846
0.348721
0.349629
0.350564
0.351571
0.352669
0.353876
0.355183
0.356622
0.358206
0.359967
0.3619
0.36405
0.36641
0.36906
0.372009
0.375358
0.379114
0.383366
0.388101
0.393493
0.399761
0.407653
0.418201
0.432879
0.452591
0.476799
0.50246
0.524645
0.537154
0.533937
0.509743
0.461576
0.389696
0.299128
0.199743
0.105149
0.028404
-0.0231005
-0.0507657
-0.0624886
-0.0669075
-0.0690433
-0.0702584
-0.0703852
-0.0694276
-0.0678174
-0.0660853
-0.0646063
-0.0636181
-0.0632795
-0.0636949
-0.0648882
-0.0668297
-0.069445
-0.0726293
-0.0762686
-0.0802163
-0.0843926
-0.0885353
-0.092832
-0.0966897
-0.100868
-0.102299
-0.106145
-0.103814
-0.113309
-0.0971667
-0.131431
-0.0653757
-0.190084
0.042542
-0.367761
0.379845
-0.860047
)
;

boundaryField
{
    inlet
    {
        type            freestreamPressure;
        freestreamValue uniform 0;
        value           nonuniform List<scalar> 
27
(
-3.60599
-3.48116
-3.40008
-3.34017
-3.27304
-3.19723
-3.11944
-3.04171
-2.96293
-2.88216
-2.79935
-2.71458
-2.62735
-2.53681
-2.44146
-2.33875
-2.226
-2.0998
-2.01925
-1.9435
-1.8523
-1.74613
-1.62329
-1.46604
-1.2534
-0.877073
-0.378928
)
;
    }
    outlet
    {
        type            freestreamPressure;
        freestreamValue uniform 0;
        value           nonuniform List<scalar> 
78
(
0.00103437
0.00103537
0.00103683
0.0010388
0.00104104
0.00104336
0.00104576
0.00104836
0.00105121
0.00105436
0.0010578
0.00106161
0.00106582
0.00107053
0.00107573
0.00108153
0.00108792
0.00109514
0.00110321
0.00111244
0.00112285
0.00113472
0.00114798
0.00116303
0.00118037
0.00120195
0.00123067
0.0012709
0.00132569
0.00139418
0.0014684
0.0015347
0.00157511
0.00157127
0.00150628
0.00136951
0.00116013
0.000892397
0.000596225
0.000313549
8.45105e-05
-6.85551e-05
-0.000150281
-0.000184678
-0.000197598
-0.000203907
-0.000207574
-0.000208056
-0.000205345
-0.000200717
-0.000195741
-0.000191529
-0.000188784
-0.000187984
-0.000189446
-0.000193254
-0.000199333
-0.000207478
-0.000217394
-0.000228759
-0.000241156
-0.000254364
-0.00026762
-0.000281491
-0.000294244
-0.000307948
-0.000313381
-0.000326148
-0.000320634
-0.000350775
-0.000303683
-0.00040962
-0.000208422
-0.000591996
0.000141219
-0.00111114
0.00138985
-0.0022758
)
;
    }
    walls
    {
        type            zeroGradient;
    }
    frontAndBack
    {
        type            empty;
    }
    procBoundary7to3
    {
        type            processor;
        value           nonuniform List<scalar> 
16
(
6.0731
5.4528
4.89803
4.40611
3.98915
3.48168
2.96336
2.52299
2.1064
2.1064
1.73195
1.37155
1.00091
0.734773
0.221965
0.34581
)
;
    }
    procBoundary7to6
    {
        type            processor;
        value           nonuniform List<scalar> 
91
(
-8.36089
-1.03407
-1.03407
-5.98277
-5.98277
-3.94885
-3.94885
-5.4671
-5.68863
-5.68863
-6.41211
-6.15344
-6.15344
-7.41194
-7.02701
-6.68935
-6.68935
-7.97492
-7.67036
-7.3805
-7.3805
-8.51959
-8.31808
-8.08507
-7.82393
-7.82393
-8.07978
-8.12478
-8.12678
-8.0872
-8.00771
-8.00771
-5.60394
-5.94553
-6.25553
-6.5314
-6.77101
-6.97265
-7.13503
-7.13503
0.13001
-0.282417
-0.701646
-1.12593
-1.55325
-1.98134
-2.40773
-2.82977
-3.24459
-3.64922
-4.04057
-4.41555
-4.41555
6.74713
6.68693
6.62541
6.56088
6.49214
6.41951
6.34333
6.26305
6.17823
6.08979
5.99929
5.90765
5.81497
5.72045
5.62247
5.51907
5.40812
5.28675
5.15211
5.00314
4.84069
4.66598
4.48019
4.28452
4.07915
3.86332
3.63624
3.39765
3.1474
2.88543
2.61168
2.3261
2.02873
1.71977
1.39948
1.06833
0.726855
0.726855
)
;
    }
}


// ************************************************************************* //
