/*--------------------------------*- C++ -*----------------------------------*\
| =========                 |                                                 |
| \\      /  F ield         | OpenFOAM: The Open Source CFD Toolbox           |
|  \\    /   O peration     | Version:  2306                                  |
|   \\  /    A nd           | Website:  www.openfoam.com                      |
|    \\/     M anipulation  |                                                 |
\*---------------------------------------------------------------------------*/
FoamFile
{
    version     2.0;
    format      ascii;
    arch        "LSB;label=32;scalar=64";
    class       volScalarField;
    location    "175";
    object      turbulenceProperties:I;
}
// * * * * * * * * * * * * * * * * * * * * * * * * * * * * * * * * * * * * * //

dimensions      [0 0 0 0 0 0 0];

internalField   nonuniform List<scalar> 
1340
(
2.99482e-05
2.61733e-05
3.01773e-05
2.57184e-05
2.57533e-05
3.01824e-05
1.66263e-05
2.55593e-05
2.54708e-05
3.0253e-05
1.5744e-05
2.12614e-05
1.65491e-05
2.54329e-05
2.52286e-05
3.03642e-05
1.87445e-05
2.02905e-05
1.55105e-05
2.10707e-05
1.64687e-05
2.53189e-05
2.50307e-05
3.04771e-05
2.22167e-05
2.08346e-05
2.08257e-05
1.83737e-05
2.00127e-05
1.52611e-05
2.08827e-05
1.639e-05
2.52217e-05
2.48869e-05
3.05831e-05
2.38812e-05
2.31341e-05
2.2207e-05
2.17396e-05
2.03742e-05
2.04445e-05
1.7989e-05
1.97279e-05
1.49989e-05
2.07019e-05
1.63128e-05
2.51437e-05
2.47954e-05
3.06803e-05
2.69511e-05
2.60039e-05
2.50697e-05
2.41512e-05
2.3226e-05
2.25379e-05
2.16451e-05
2.1244e-05
1.98981e-05
2.00495e-05
1.7592e-05
1.9437e-05
1.47251e-05
2.05269e-05
1.62374e-05
2.50806e-05
2.47444e-05
3.07814e-05
3.05623e-05
2.96169e-05
2.86841e-05
2.77659e-05
2.68632e-05
2.59782e-05
2.51109e-05
2.42524e-05
2.341e-05
2.25474e-05
2.19196e-05
2.10625e-05
2.07287e-05
1.94049e-05
1.96398e-05
1.71815e-05
1.91387e-05
1.44395e-05
2.03542e-05
1.61653e-05
2.50272e-05
2.47257e-05
3.08718e-05
3.5311e-05
3.44221e-05
3.35348e-05
3.26487e-05
3.17633e-05
3.08809e-05
3.00052e-05
2.91392e-05
2.82841e-05
2.74398e-05
2.66072e-05
2.57875e-05
2.49823e-05
2.41937e-05
2.34105e-05
2.26445e-05
2.18462e-05
2.12801e-05
2.04597e-05
2.01941e-05
1.88951e-05
1.92155e-05
1.67585e-05
1.88328e-05
1.41434e-05
2.01821e-05
1.60962e-05
2.49814e-05
2.47484e-05
3.09607e-05
4.36745e-05
4.26901e-05
4.17448e-05
4.08282e-05
3.99403e-05
3.90822e-05
3.82449e-05
3.74144e-05
3.65856e-05
3.57627e-05
3.49474e-05
3.4135e-05
3.33222e-05
3.25101e-05
3.17021e-05
3.08977e-05
3.00954e-05
2.92964e-05
2.85041e-05
2.77215e-05
2.69498e-05
2.61883e-05
2.5437e-05
2.46968e-05
2.39689e-05
2.32574e-05
2.25483e-05
2.18588e-05
2.11257e-05
2.06223e-05
1.98397e-05
1.96425e-05
1.83711e-05
1.87783e-05
1.63248e-05
1.85199e-05
1.38392e-05
2.00112e-05
1.60285e-05
2.49421e-05
2.47934e-05
3.1048e-05
2.42733e-05
5.47265e-06
0
0
8.1025e-06
0.000681414
0.000639371
0.00502288
0.0132679
0.0231801
0.0324177
0.0392427
0.0424188
0.0408417
0.033226
0.0159258
0.0251586
0.0345479
0.0353754
0.0296711
0.0199154
0.00977296
0.00283695
0.000792182
0
0
0
1.5697e-06
4.72102e-06
4.46168e-05
5.60428e-05
5.27364e-05
4.83927e-05
4.63589e-05
4.51724e-05
4.39759e-05
4.27677e-05
4.16398e-05
4.05941e-05
3.96086e-05
3.86698e-05
3.77738e-05
3.69194e-05
3.60983e-05
3.52949e-05
3.45001e-05
3.37163e-05
3.29466e-05
3.21865e-05
3.14308e-05
3.06795e-05
2.99361e-05
2.91998e-05
2.84686e-05
2.77423e-05
2.70237e-05
2.63159e-05
2.56204e-05
2.49356e-05
2.42608e-05
2.35964e-05
2.29429e-05
2.23061e-05
2.16698e-05
2.10562e-05
2.03891e-05
1.99491e-05
1.92053e-05
1.90763e-05
1.78349e-05
1.83297e-05
1.5883e-05
1.81999e-05
1.35289e-05
1.98379e-05
1.59645e-05
2.49064e-05
2.48638e-05
3.11342e-05
5.1621e-05
2.90835e-05
6.50312e-06
0
0
0
0.000247663
0.000365223
0.00244089
0.0091012
0.0182427
0.0276349
0.0352743
0.0397242
0.0398337
0.034457
0.0214983
0.0190691
0.0310063
0.0335215
0.0292585
0.0204964
0.0106812
0.00355308
0.00101176
8.3293e-06
0
0
1.58539e-07
1.01179e-05
3.75105e-05
5.2322e-05
5.06835e-05
4.62339e-05
4.37423e-05
4.23535e-05
4.11169e-05
3.99185e-05
3.88127e-05
3.77841e-05
3.68044e-05
3.58707e-05
3.49907e-05
3.41613e-05
3.3365e-05
3.25863e-05
3.18239e-05
3.10817e-05
3.03566e-05
2.96421e-05
2.89368e-05
2.82434e-05
2.7562e-05
2.68899e-05
2.62253e-05
2.55707e-05
2.49291e-05
2.4302e-05
2.36878e-05
2.30844e-05
2.24917e-05
2.19091e-05
2.13448e-05
2.07792e-05
2.02407e-05
1.964e-05
1.92638e-05
1.85596e-05
1.84982e-05
1.72896e-05
1.78718e-05
1.54349e-05
1.78735e-05
1.32126e-05
1.96641e-05
1.58983e-05
2.48721e-05
2.49362e-05
3.12248e-05
5.15539e-05
4.83013e-05
3.35829e-05
7.94553e-06
2.10445e-08
0
0
1.22651e-05
0.000797014
0.00070233
0.00566893
0.0135685
0.0226709
0.0308732
0.0364977
0.0382465
0.0349707
0.0251775
0.0113953
0.0272963
0.0316108
0.0288215
0.0210918
0.0117123
0.00437426
0.000268459
0.000125824
0
0
0
7.7338e-06
2.80551e-05
4.72132e-05
4.81254e-05
4.41528e-05
4.15327e-05
4.00395e-05
3.86991e-05
3.7387e-05
3.62135e-05
3.51716e-05
3.42056e-05
3.32923e-05
3.2432e-05
3.16182e-05
3.0836e-05
3.00782e-05
2.93471e-05
2.86407e-05
2.79522e-05
2.72784e-05
2.66215e-05
2.59822e-05
2.53575e-05
2.47444e-05
2.41443e-05
2.35604e-05
2.29947e-05
2.24447e-05
2.19079e-05
2.13831e-05
2.08683e-05
2.03742e-05
1.98779e-05
1.9413e-05
1.88797e-05
1.85674e-05
1.79044e-05
1.7909e-05
1.67369e-05
1.74043e-05
1.49826e-05
1.75418e-05
1.28927e-05
1.94811e-05
1.58281e-05
2.48488e-05
2.5012e-05
3.13199e-05
4.81012e-05
4.74663e-05
4.52533e-05
3.86774e-05
2.6194e-06
6.80515e-07
0
0
0
0.000463781
0.000657979
0.00291108
0.00919831
0.0174209
0.0257021
0.0322194
0.0354978
0.0342963
0.0273267
0.0102977
0.022962
0.029291
0.0280855
0.0215178
0.0127454
0.0052397
0.00105442
0.000302409
0
0
0
5.53071e-06
1.94559e-05
4.19573e-05
4.49724e-05
4.1324e-05
3.86167e-05
3.73862e-05
3.63768e-05
3.51729e-05
3.39364e-05
3.28157e-05
3.18251e-05
3.09267e-05
3.00871e-05
2.9284e-05
2.85111e-05
2.77724e-05
2.70675e-05
2.63895e-05
2.5732e-05
2.50969e-05
2.44855e-05
2.38952e-05
2.3322e-05
2.27658e-05
2.223e-05
2.17166e-05
2.12237e-05
2.07475e-05
2.02856e-05
1.98347e-05
1.94072e-05
1.89777e-05
1.85843e-05
1.81174e-05
1.78694e-05
1.72469e-05
1.7317e-05
1.61802e-05
1.69353e-05
1.45239e-05
1.72098e-05
1.25454e-05
1.93084e-05
1.573e-05
2.48243e-05
2.50999e-05
3.14474e-05
4.69204e-05
4.50751e-05
4.32994e-05
4.42015e-05
3.86816e-05
1.3089e-05
3.08317e-06
7.65563e-09
0
0
0.000111166
0.000192495
0.000816189
0.00544746
0.0124955
0.020423
0.0273662
0.0318073
0.0324956
0.0282624
0.0171645
0.0167409
0.0256805
0.0264011
0.0213841
0.0134694
0.00605202
0.00152588
0.000378381
2.21629e-06
0
0
4.21232e-06
1.50805e-05
3.95616e-05
4.49034e-05
4.12748e-05
3.70459e-05
3.4742e-05
3.36673e-05
3.27769e-05
3.17236e-05
3.06049e-05
2.95666e-05
2.86497e-05
2.78146e-05
2.70231e-05
2.62659e-05
2.55478e-05
2.48677e-05
2.42162e-05
2.35932e-05
2.30008e-05
2.24368e-05
2.18969e-05
2.13788e-05
2.08862e-05
2.04206e-05
1.99815e-05
1.95639e-05
1.91634e-05
1.87767e-05
1.84153e-05
1.80527e-05
1.77326e-05
1.73338e-05
1.71515e-05
1.65749e-05
1.67069e-05
1.56171e-05
1.64465e-05
1.40767e-05
1.68534e-05
1.22415e-05
1.91051e-05
1.56593e-05
2.47806e-05
2.51803e-05
3.15312e-05
4.70305e-05
4.45554e-05
4.11207e-05
4.01891e-05
4.1015e-05
3.75304e-05
2.95342e-05
1.09641e-06
3.67799e-07
0
0
2.04328e-06
0.000332025
0.000448677
0.00283493
0.0088637
0.0160869
0.0229169
0.0280627
0.0304487
0.0291172
0.0230922
0.00952434
0.0179777
0.0223927
0.0205487
0.0148571
0.00814591
0.00284787
0.00016013
3.56784e-05
0
0
4.38799e-07
6.33703e-06
2.11317e-05
3.66248e-05
4.10646e-05
3.84575e-05
3.42815e-05
3.14521e-05
3.00853e-05
2.92359e-05
2.83252e-05
2.73186e-05
2.63491e-05
2.54757e-05
2.46793e-05
2.39369e-05
2.32392e-05
2.25786e-05
2.19556e-05
2.13721e-05
2.08273e-05
2.03154e-05
1.98327e-05
1.93821e-05
1.89652e-05
1.8583e-05
1.82286e-05
1.78973e-05
1.75829e-05
1.72975e-05
1.70122e-05
1.67744e-05
1.64604e-05
1.63473e-05
1.58383e-05
1.60211e-05
1.50231e-05
1.58797e-05
1.36564e-05
1.63824e-05
1.20104e-05
1.86658e-05
1.52913e-05
2.42296e-05
2.4545e-05
3.04066e-05
4.69834e-05
4.41305e-05
4.01323e-05
3.8561e-05
3.81522e-05
3.84699e-05
3.80952e-05
3.41554e-05
1.94135e-05
4.64145e-06
5.35485e-08
0
0
0.000514088
0.0010582
0.00131662
0.00757848
0.0146148
0.0214747
0.0271797
0.0308803
0.031737
0.0289427
0.0216637
0.00658255
0.0172856
0.0198677
0.0170062
0.0112185
0.0052306
0.000491461
0.000275862
0
0
0
5.39063e-07
4.56268e-06
1.4863e-05
3.0824e-05
3.70122e-05
3.51506e-05
3.10332e-05
2.81522e-05
2.6794e-05
2.59687e-05
2.50835e-05
2.41114e-05
2.31831e-05
2.2353e-05
2.16032e-05
2.09069e-05
2.02574e-05
1.96558e-05
1.9107e-05
1.86052e-05
1.81451e-05
1.77273e-05
1.73539e-05
1.70277e-05
1.674e-05
1.64851e-05
1.62527e-05
1.60545e-05
1.58598e-05
1.57164e-05
1.54996e-05
1.54688e-05
1.5036e-05
1.52836e-05
1.43735e-05
1.5295e-05
1.31756e-05
1.5962e-05
1.17489e-05
1.84275e-05
1.53107e-05
2.4186e-05
2.48286e-05
3.05379e-05
4.58373e-05
4.30682e-05
3.93029e-05
3.7945e-05
3.72945e-05
3.71419e-05
3.65995e-05
3.67592e-05
3.67106e-05
3.20309e-05
9.89835e-06
2.09357e-06
0
0
0.000625999
0.00140235
0.00200971
0.00580304
0.0124852
0.0192283
0.0252736
0.0299095
0.0324099
0.0319874
0.0278836
0.0192606
0.0075476
0.0175195
0.0183192
0.0144657
0.00870752
0.00320563
0.00126266
0.000137094
0
0
0
4.03897e-07
4.37028e-06
1.45363e-05
2.88537e-05
3.32006e-05
3.07854e-05
2.71163e-05
2.4855e-05
2.37665e-05
2.2922e-05
2.19747e-05
2.10082e-05
2.01331e-05
1.93598e-05
1.86584e-05
1.80144e-05
1.7436e-05
1.69223e-05
1.64677e-05
1.60701e-05
1.5732e-05
1.54563e-05
1.52346e-05
1.50591e-05
1.4914e-05
1.48085e-05
1.47092e-05
1.46645e-05
1.45457e-05
1.46013e-05
1.42458e-05
1.45628e-05
1.37332e-05
1.47326e-05
1.2691e-05
1.5579e-05
1.14361e-05
1.82409e-05
1.52593e-05
2.42131e-05
2.50368e-05
3.06519e-05
4.05322e-05
3.9716e-05
3.74294e-05
3.65938e-05
3.63354e-05
3.60444e-05
3.5044e-05
3.50481e-05
3.86558e-05
3.80534e-05
1.74629e-05
3.83816e-06
0
0
0.000438913
0.00102607
0.00218652
0.0029987
0.00894751
0.0152931
0.0214351
0.0267016
0.0304301
0.0319138
0.0304109
0.0252151
0.015341
0.011364
0.0174952
0.0167577
0.0122957
0.00681053
0.00186888
0.000769186
0
0
0
0
4.25418e-07
5.33082e-06
1.85123e-05
2.91545e-05
2.98111e-05
2.6402e-05
2.33066e-05
2.17221e-05
2.08334e-05
1.99393e-05
1.89711e-05
1.80621e-05
1.72624e-05
1.65519e-05
1.5922e-05
1.53734e-05
1.49049e-05
1.45141e-05
1.42015e-05
1.397e-05
1.38109e-05
1.37138e-05
1.36564e-05
1.36437e-05
1.36377e-05
1.36877e-05
1.36603e-05
1.37958e-05
1.35159e-05
1.38952e-05
1.31444e-05
1.42117e-05
1.22485e-05
1.5231e-05
1.11493e-05
1.80895e-05
1.51881e-05
2.42714e-05
2.51504e-05
3.07564e-05
3.83428e-05
3.80369e-05
3.63843e-05
3.57304e-05
3.53996e-05
3.53375e-05
3.47682e-05
3.33963e-05
3.44136e-05
3.89903e-05
3.75077e-05
1.8115e-05
4.19878e-06
0
0
5.49163e-05
0.000744219
0.00145496
0.00155362
0.00497844
0.0106173
0.0166168
0.0222607
0.0268714
0.029788
0.0303208
0.0277907
0.0215559
0.009967
0.013745
0.0169699
0.0149204
0.0100949
0.00495727
0.00197504
0.00025592
0
0
0
0
9.85473e-07
1.69705e-06
2.01851e-05
2.73818e-05
2.5839e-05
2.23842e-05
2.00859e-05
1.89163e-05
1.80033e-05
1.70353e-05
1.60972e-05
1.52726e-05
1.45659e-05
1.39637e-05
1.34629e-05
1.30649e-05
1.27706e-05
1.25821e-05
1.24881e-05
1.24734e-05
1.2508e-05
1.25908e-05
1.26774e-05
1.28168e-05
1.28731e-05
1.30783e-05
1.28726e-05
1.33034e-05
1.26325e-05
1.37494e-05
1.18783e-05
1.49257e-05
1.09338e-05
1.79669e-05
1.51167e-05
2.43557e-05
2.51715e-05
3.0877e-05
3.76625e-05
3.73418e-05
3.56764e-05
3.50242e-05
3.45919e-05
3.43508e-05
3.4192e-05
3.33772e-05
3.22059e-05
3.3576e-05
3.77242e-05
3.56656e-05
1.61489e-05
3.87177e-06
0
0
0
0.000147918
0.000201384
0.00150016
0.00136938
0.0060842
0.0115809
0.0173324
0.0225639
0.0265632
0.0286639
0.0282118
0.0246029
0.0171827
0.00568089
0.014981
0.0158781
0.0127096
0.00770172
0.00289914
0.00113842
0.000113517
0
0
0
5.2156e-08
3.3775e-06
1.13481e-05
2.2753e-05
2.42477e-05
2.13593e-05
1.85764e-05
1.709e-05
1.61471e-05
1.51856e-05
1.42106e-05
1.33518e-05
1.26531e-05
1.21039e-05
1.16915e-05
1.14146e-05
1.12747e-05
1.12566e-05
1.13353e-05
1.14708e-05
1.16534e-05
1.1832e-05
1.20541e-05
1.21838e-05
1.24441e-05
1.23052e-05
1.27764e-05
1.21819e-05
1.33326e-05
1.15545e-05
1.46484e-05
1.07487e-05
1.78627e-05
1.50256e-05
2.44467e-05
2.50673e-05
3.10293e-05
3.80577e-05
3.76851e-05
3.568e-05
3.48234e-05
3.42294e-05
3.3718e-05
3.33512e-05
3.29499e-05
3.19761e-05
3.11219e-05
3.23237e-05
3.56588e-05
3.43168e-05
1.32985e-05
3.27774e-06
0
0
0
2.83866e-06
0.000268065
0.00048077
0.00137984
0.00234674
0.00694323
0.0123908
0.0179413
0.0227567
0.026097
0.0272998
0.0257676
0.0209674
0.0119522
0.0107392
0.0152236
0.0141949
0.010121
0.00537979
0.00134446
0.000529761
4.73561e-05
0
0
0
3.83555e-07
4.71604e-06
1.61627e-05
2.21191e-05
2.05048e-05
1.72391e-05
1.51549e-05
1.41165e-05
1.32653e-05
1.23555e-05
1.15185e-05
1.08725e-05
1.04403e-05
1.02065e-05
1.01515e-05
1.02416e-05
1.04359e-05
1.06826e-05
1.09657e-05
1.12301e-05
1.15198e-05
1.17084e-05
1.20042e-05
1.19258e-05
1.24152e-05
1.19052e-05
1.30493e-05
1.14003e-05
1.4465e-05
1.07229e-05
1.78118e-05
1.4918e-05
2.45583e-05
2.47283e-05
3.13403e-05
3.92584e-05
3.87005e-05
3.6103e-05
3.49371e-05
3.41455e-05
3.34499e-05
3.2817e-05
3.22954e-05
3.17024e-05
3.07473e-05
3.00049e-05
3.09973e-05
3.33369e-05
3.18064e-05
1.518e-05
3.82007e-06
0
0
0
0
1.9189e-05
0.00034903
0.000628731
0.00117716
0.00317279
0.0078506
0.0132931
0.0186068
0.0228973
0.0254105
0.0255188
0.022701
0.0164445
0.00364547
0.0131125
0.0144039
0.0117348
0.00721911
0.0029929
0.000621809
0.000187903
0
0
0
0
2.8719e-06
9.28417e-06
1.85121e-05
2.01682e-05
1.72625e-05
1.42254e-05
1.24852e-05
1.14619e-05
1.06054e-05
9.87103e-06
9.37112e-06
9.15333e-06
9.186e-06
9.39151e-06
9.69695e-06
1.00362e-05
1.0392e-05
1.07115e-05
1.10372e-05
1.12495e-05
1.15452e-05
1.14887e-05
1.19798e-05
1.15108e-05
1.26606e-05
1.1043e-05
1.41669e-05
1.03813e-05
1.76575e-05
1.46259e-05
2.45527e-05
2.40839e-05
3.1851e-05
3.98622e-05
3.89983e-05
3.56964e-05
3.42362e-05
3.32585e-05
3.23963e-05
3.15659e-05
3.07998e-05
3.01299e-05
2.94164e-05
2.85574e-05
2.78136e-05
2.84528e-05
2.99976e-05
2.94808e-05
1.97258e-05
5.0359e-06
7.49333e-08
0
0
0
0
3.81756e-05
0.000437955
0.000768366
0.000746957
0.00414282
0.00909164
0.0146917
0.0199209
0.0238044
0.0255362
0.0244868
0.0201753
0.0118967
0.0100647
0.0142657
0.0130955
0.00895096
0.00365878
0.00164824
0.000471763
0.000193355
8.70564e-05
4.23093e-05
4.60712e-06
3.20254e-07
2.24534e-06
6.40528e-06
1.47953e-05
1.50759e-05
1.27277e-05
1.0678e-05
9.44036e-06
8.77268e-06
8.53091e-06
8.62856e-06
8.94434e-06
9.35858e-06
9.79695e-06
1.02163e-05
1.06156e-05
1.09628e-05
1.12926e-05
1.15106e-05
1.17856e-05
1.17676e-05
1.22066e-05
1.18317e-05
1.28602e-05
1.14358e-05
1.43354e-05
1.07122e-05
1.78369e-05
1.42468e-05
2.47914e-05
2.29681e-05
3.35327e-05
3.7229e-05
3.61913e-05
3.27724e-05
3.13621e-05
3.04715e-05
2.97233e-05
2.9031e-05
2.83815e-05
2.77931e-05
2.72842e-05
2.67859e-05
2.61894e-05
2.56683e-05
2.57552e-05
2.70671e-05
2.72134e-05
2.50461e-05
1.04929e-05
2.54556e-06
0
0
0
0
0
6.10174e-05
0.000317372
0.000487271
0.000876418
0.00331813
0.00739444
0.0121235
0.0166677
0.0201535
0.0218103
0.0210158
0.0173275
0.0100722
0.00841717
0.0121493
0.0112716
0.00830776
0.00508081
0.00260713
0.00113052
0.000405544
9.46621e-05
3.38436e-05
0
3.09398e-07
2.02366e-07
9.60779e-06
1.23458e-05
1.14253e-05
9.81977e-06
8.58298e-06
7.97615e-06
7.94815e-06
8.26458e-06
8.70477e-06
9.15258e-06
9.55569e-06
9.91795e-06
1.02177e-05
1.04982e-05
1.06509e-05
1.08311e-05
1.0729e-05
1.11231e-05
1.0662e-05
1.17387e-05
1.00309e-05
1.32689e-05
8.69801e-06
1.68674e-05
1.29282e-05
2.36734e-05
2.29389e-05
3.34046e-05
)
;

boundaryField
{
    inlet
    {
        type            calculated;
        value           nonuniform List<scalar> 
27
(
7.64308e-05
7.64913e-05
7.65909e-05
7.67188e-05
7.68551e-05
7.69965e-05
7.71466e-05
7.73039e-05
7.74678e-05
7.76326e-05
7.77976e-05
7.79599e-05
7.81164e-05
7.82639e-05
7.83987e-05
7.85172e-05
7.86219e-05
7.84454e-05
7.84769e-05
7.84727e-05
7.84154e-05
7.82985e-05
7.81062e-05
7.78291e-05
7.74364e-05
7.70469e-05
7.62923e-05
)
;
    }
    outlet
    {
        type            calculated;
        value           nonuniform List<scalar> 
78
(
3.73851e-05
3.63526e-05
3.29461e-05
3.15423e-05
3.06558e-05
2.99108e-05
2.92211e-05
2.85745e-05
2.79895e-05
2.74845e-05
2.69904e-05
2.63971e-05
2.58793e-05
2.59747e-05
2.73059e-05
2.74617e-05
2.52825e-05
1.05963e-05
2.57233e-06
0
0
0
0
0
6.14433e-05
0.000319172
0.000489755
0.000810398
0.00327158
0.00735956
0.0120944
0.0166461
0.0201431
0.021816
0.0210434
0.0173859
0.0101889
0.00825591
0.0120749
0.0112311
0.00828887
0.00507464
0.00260738
0.00113311
0.000407892
9.55322e-05
3.42317e-05
0
3.14859e-07
2.0693e-07
9.878e-06
1.27595e-05
1.18486e-05
1.01536e-05
8.7024e-06
7.7343e-06
7.32139e-06
7.3895e-06
7.71781e-06
8.12324e-06
8.50541e-06
8.85653e-06
9.13772e-06
9.41347e-06
9.53138e-06
9.72438e-06
9.5284e-06
1.00612e-05
9.34163e-06
1.08542e-05
8.2784e-06
1.27123e-05
4.35458e-06
1.65422e-05
1.22121e-05
2.32688e-05
2.29379e-05
3.25028e-05
)
;
    }
    walls
    {
        type            calculated;
        value           nonuniform List<scalar> 0();
    }
    frontAndBack
    {
        type            empty;
    }
    procBoundary7to3
    {
        type            processor;
        value           nonuniform List<scalar> 
16
(
5.35505e-05
5.45629e-05
5.03462e-05
4.84611e-05
4.74444e-05
4.72225e-05
4.72395e-05
4.6141e-05
4.22e-05
4.22e-05
3.98321e-05
3.90996e-05
3.96911e-05
4.13715e-05
4.27043e-05
4.03314e-05
)
;
    }
    procBoundary7to6
    {
        type            processor;
        value           nonuniform List<scalar> 
91
(
2.99034e-05
2.66105e-05
2.66105e-05
2.5965e-05
2.5965e-05
1.66929e-05
1.66929e-05
1.59585e-05
2.14506e-05
2.14506e-05
1.90947e-05
2.05563e-05
2.05563e-05
2.26736e-05
2.12773e-05
2.11919e-05
2.11919e-05
2.45151e-05
2.37102e-05
2.27498e-05
2.27498e-05
2.78994e-05
2.68714e-05
2.58615e-05
2.48677e-05
2.48677e-05
3.19825e-05
3.09404e-05
2.99143e-05
2.89066e-05
2.79181e-05
2.79181e-05
3.73922e-05
3.64095e-05
3.54277e-05
3.4446e-05
3.34653e-05
3.24887e-05
3.15201e-05
3.15201e-05
4.61045e-05
4.51398e-05
4.41974e-05
4.32728e-05
4.23684e-05
4.14834e-05
4.06068e-05
3.97271e-05
3.88433e-05
3.79612e-05
3.70808e-05
3.61981e-05
3.61981e-05
4.19925e-06
0
0
0.000186562
0.000357521
0.00179052
0.00830117
0.0179629
0.0283187
0.0371806
0.0430952
0.0449376
0.0415497
0.0313321
0.00989087
0.0308188
0.0381678
0.0372984
0.0300981
0.0193382
0.00890754
0.00224436
0.000627934
0
0
0
4.37414e-06
1.49647e-05
5.25679e-05
6.0061e-05
5.50148e-05
5.10833e-05
4.94653e-05
4.83354e-05
4.70868e-05
4.58505e-05
4.47181e-05
4.47181e-05
)
;
    }
}


// ************************************************************************* //
