/*--------------------------------*- C++ -*----------------------------------*\
| =========                 |                                                 |
| \\      /  F ield         | OpenFOAM: The Open Source CFD Toolbox           |
|  \\    /   O peration     | Version:  2306                                  |
|   \\  /    A nd           | Website:  www.openfoam.com                      |
|    \\/     M anipulation  |                                                 |
\*---------------------------------------------------------------------------*/
FoamFile
{
    version     2.0;
    format      ascii;
    arch        "LSB;label=32;scalar=64";
    class       volVectorField;
    location    "0";
    object      wallShearStress;
}
// * * * * * * * * * * * * * * * * * * * * * * * * * * * * * * * * * * * * * //

dimensions      [1 -1 -2 0 0 0 0];

internalField   uniform (0 0 0);

boundaryField
{
    upperSurface
    {
        type            calculated;
        value           nonuniform List<vector> 
300
(
(-13.26273 0 -0.92347751)
(-13.309407 0 -0.91802972)
(-13.355591 -1.6944682e-21 -0.91257043)
(-13.401255 1.6481356e-21 -0.90694634)
(-13.446353 0 -0.90099254)
(-13.490954 0 -0.89503335)
(-13.535003 -2.9862465e-21 -0.88884629)
(-13.578541 0 -0.88244709)
(-13.621547 0 -0.87601213)
(-13.664009 5.2659794e-21 -0.86936051)
(-13.705918 -5.0080751e-21 -0.8624951)
(-13.747294 0 -0.85548672)
(-13.788137 0 -0.84832071)
(-13.828437 -4.1702257e-21 -0.84098379)
(-13.868214 0 -0.8334949)
(-13.907451 -3.5537264e-21 -0.82582887)
(-13.946154 0 -0.81804513)
(-13.984342 0 -0.81014197)
(-14.021919 -2.5330299e-21 -0.80178008)
(-14.059082 4.3498122e-21 -0.79365037)
(-14.095637 0 -0.78512412)
(-14.131699 0 -0.77649918)
(-14.167235 0 -0.76769085)
(-14.20226 -1.1522925e-21 -0.75873173)
(-14.236779 0 -0.74961315)
(-14.270749 6.2597994e-22 -0.74023049)
(-14.304342 0 -0.73094719)
(-14.33726 0 -0.7211136)
(-14.369896 0 -0.71153035)
(-14.401945 0 -0.70158625)
(-14.433506 0 -0.69142069)
(-14.464607 0 -0.68113719)
(-14.495203 0 -0.67058367)
(-14.52553 0 -0.66025415)
(-14.555138 0 -0.64922528)
(-14.584558 0 -0.63845867)
(-14.613529 0 -0.62745898)
(-14.641861 1.4079172e-20 -0.61592726)
(-14.669988 0 -0.60458577)
(-14.697716 1.6843126e-20 -0.59303065)
(-14.72505 0 -0.58131347)
(-14.751992 0 -0.56934014)
(-14.778576 0 -0.55721032)
(-14.804842 0 -0.54493712)
(-14.830789 2.4561267e-20 -0.53251385)
(-14.856242 0 -0.51966877)
(-14.881706 0 -0.50712422)
(-14.906748 -2.9766194e-20 -0.49421708)
(-14.931264 0 -0.48081707)
(-14.955747 0 -0.46748543)
(-14.979974 -3.5486151e-20 -0.45398959)
(-15.004114 0 -0.44050362)
(-15.027721 0 -0.42642074)
(-15.051228 0 -0.41227566)
(-15.074547 0 -0.39795492)
(-15.09794 -4.6155424e-20 -0.38372048)
(-15.120883 0 -0.36897225)
(-15.143681 0 -0.35397049)
(-15.166697 -5.3352191e-20 -0.33917109)
(-15.189097 0 -0.32354991)
(-15.212044 -5.8511027e-20 -0.30846156)
(-15.234102 0 -0.2922797)
(-15.256659 0 -0.27642783)
(-15.279187 0 -0.26033883)
(-15.301833 0 -0.24422367)
(-15.323968 0 -0.22729219)
(-15.346622 0 -0.21061813)
(-15.36898 -7.9232501e-20 -0.19339812)
(-15.391735 -8.2533017e-20 -0.17622234)
(-15.414086 0 -0.15837242)
(-15.436859 8.9509114e-20 -0.14055226)
(-15.459947 -9.3117856e-20 -0.122628)
(-15.482624 9.6896764e-20 -0.10397958)
(-15.505824 0 -0.085356726)
(-15.529404 0 -0.066613401)
(-15.552367 0 -0.046912172)
(-15.576304 0 -0.02751796)
(-15.600505 0 -0.0078483414)
(-15.624175 0 0.0127252)
(-15.64886 0 0.033054488)
(-15.673535 0 0.0539576)
(-15.698552 -1.3634844e-19 0.075143217)
(-15.723432 -1.4150576e-19 0.097022158)
(-15.749362 0 0.1187486)
(-15.775118 0 0.14119239)
(-15.801672 -1.5782543e-19 0.16372177)
(-15.827845 1.6369414e-19 0.18716276)
(-15.855074 0 0.21054972)
(-15.88231 0 0.23459327)
(-15.909959 0 0.25904331)
(-15.937959 1.8900722e-19 0.28398779)
(-15.966838 -1.9584319e-19 0.30908014)
(-15.995509 0 0.33501026)
(-16.02462 0 0.36141152)
(-16.05466 2.1793425e-19 0.38798377)
(-16.08437 -2.2585008e-19 0.41546613)
(-16.114823 0 0.44327172)
(-16.145916 0 0.47147691)
(-16.17682 0 0.50052161)
(-16.207981 0 0.53014234)
(-16.240187 0 0.5599498)
(-16.271876 0 0.5907642)
(-16.304432 2.8956548e-19 0.62183741)
(-16.336986 0 0.65361695)
(-16.369902 3.1090663e-19 0.68590553)
(-16.402937 -3.2217321e-19 0.71879817)
(-16.434966 0 0.7527734)
(-16.46895 0 0.7864742)
(-16.50132 0 0.82143887)
(-16.534768 0 0.85645896)
(-16.567147 0 0.89239195)
(-16.600071 0 0.92851975)
(-16.632028 -4.1411414e-19 0.96536224)
(-16.663808 0 1.0025171)
(-16.695391 0 1.0399151)
(-16.725567 0 1.0778686)
(-16.756264 0 1.1156068)
(-16.785144 0 1.1537539)
(-16.813315 5.1463962e-19 1.1917684)
(-16.840108 0 1.2296708)
(-16.866647 -5.5349112e-19 1.266939)
(-16.890577 0 1.3039431)
(-16.914356 5.9535765e-19 1.3397964)
(-16.936287 -6.1741734e-19 1.3745791)
(-16.956142 0 1.407953)
(-16.974873 0 1.4393295)
(-16.991789 0 1.4683512)
(-17.007516 0 1.494391)
(-17.020521 0 1.5169651)
(-17.032706 -7.671379e-19 1.5351937)
(-17.044297 7.9487624e-19 1.5483235)
(-17.053237 0 1.5553666)
(-17.063009 0 1.5554235)
(-17.071051 0 1.5470431)
(-17.080025 0 1.5292206)
(-17.090065 0 1.5005772)
(-17.101327 -4.8857798e-19 1.4594813)
(-17.114589 0 1.4043176)
(-17.131182 0 1.3338532)
(-17.151643 0 1.2464655)
(-17.177014 5.5382574e-19 1.14113)
(-17.20792 -5.7025177e-19 1.0169112)
(-17.244931 5.8658145e-19 0.87340451)
(-17.28838 0 0.71075873)
(-17.338177 0 0.52929077)
(-17.394175 0 0.33045988)
(-17.456079 3.2403897e-19 0.11787057)
(-17.52289 0 -0.10644873)
(-17.59363 1.6889915e-19 -0.33907479)
(-17.667174 0 -0.57627455)
(-13.488783 -1.9651363e-19 -1.5613261)
(-13.485978 -0 -1.5574926)
(-13.483339 -0 -1.5538531)
(-13.480711 -0 -1.5502099)
(-13.478062 -0 -1.5465216)
(-13.475486 -0 -1.5429074)
(-13.472957 -0 -1.5393362)
(-13.470453 -0 -1.5357818)
(-13.467983 -1.8982986e-19 -1.5322401)
(-13.46563 -0 -1.5288251)
(-13.463201 -0 -1.5253289)
(-13.460783 -0 -1.52184)
(-13.458515 -0 -1.5185148)
(-13.456188 1.8589216e-19 -1.5150777)
(-13.454001 -0 -1.5118218)
(-13.45173 -0 -1.5084623)
(-13.449541 -0 -1.5051641)
(-13.447314 -0 -1.5018208)
(-13.445301 -0 -1.4987394)
(-13.443089 -0 -1.4953599)
(-13.441037 -0 -1.4922139)
(-13.439004 -1.7994135e-19 -1.4891071)
(-13.43682 -1.791704e-19 -1.4857379)
(-13.434981 -0 -1.4828386)
(-13.432894 -0 -1.4795636)
(-13.430977 -0 -1.4764927)
(-13.429087 -0 -1.4734721)
(-13.427134 -0 -1.4703705)
(-13.425228 -0 -1.46732)
(-13.423321 1.7425207e-19 -1.4642379)
(-13.421528 -0 -1.4613003)
(-13.419614 -0 -1.4582053)
(-13.417849 -0 -1.4552827)
(-13.416061 -0 -1.4523177)
(-13.414182 -0 -1.4491974)
(-13.412549 -1.7018566e-19 -1.4464432)
(-13.410734 -1.6948817e-19 -1.4433887)
(-13.409031 1.6883142e-19 -1.4405111)
(-13.407223 -0 -1.4374672)
(-13.405576 -0 -1.434646)
(-13.403889 1.6682731e-19 -1.4317306)
(-13.40219 -0 -1.4288065)
(-13.400526 -1.6550403e-19 -1.4259278)
(-13.398813 -0 -1.4229112)
(-13.397218 -0 -1.4200971)
(-13.39563 1.6353129e-19 -1.4172803)
(-13.393986 1.628684e-19 -1.4143718)
(-13.392287 -0 -1.4113569)
(-13.39077 -0 -1.4086105)
(-13.389157 -1.6088518e-19 -1.4056703)
(-13.387542 -1.6021856e-19 -1.4027447)
(-13.385972 -1.5956633e-19 -1.3998804)
(-13.384431 -1.589207e-19 -1.3970469)
(-13.382841 -0 -1.3941333)
(-13.381265 -0 -1.3911899)
(-13.379736 -1.5692927e-19 -1.3882999)
(-13.378168 -1.5625927e-19 -1.3853569)
(-13.376663 1.5562081e-19 -1.3825507)
(-13.375035 -0 -1.3794638)
(-13.373594 -0 -1.3766905)
(-13.371983 -1.5358411e-19 -1.3735987)
(-13.370461 -0 -1.3706463)
(-13.368982 -0 -1.367771)
(-13.36746 -0 -1.3648024)
(-13.365954 -0 -1.3618137)
(-13.364407 -0 -1.3587434)
(-13.362834 -1.4950311e-19 -1.3556487)
(-13.361418 -0 -1.3527818)
(-13.359821 -0 -1.3495738)
(-13.358337 -0 -1.3465793)
(-13.35683 1.4674306e-19 -1.3434993)
(-13.355282 -1.4602146e-19 -1.3403222)
(-13.353749 -1.4530596e-19 -1.3371704)
(-13.352283 -0 -1.3341072)
(-13.350755 -0 -1.3308999)
(-13.349229 -0 -1.3276943)
(-13.347674 -0 -1.3243996)
(-13.346186 1.4168218e-19 -1.3212053)
(-13.34465 -1.4093642e-19 -1.3179163)
(-13.343128 -0 -1.3146131)
(-13.341578 -0 -1.3112386)
(-13.340071 -6.9335935e-20 -1.3079316)
(-13.338493 -0 -1.3044423)
(-13.33701 -6.8564238e-20 -1.3011243)
(-13.335413 -0 -1.2975396)
(-13.333887 6.7767691e-20 -1.2940955)
(-13.332335 -0 -1.290569)
(-13.33078 6.6963468e-20 -1.286995)
(-13.329214 -6.6547304e-20 -1.2833222)
(-13.327687 -0 -1.279739)
(-13.326083 -0 -1.2759954)
(-13.324545 6.5303027e-20 -1.2723334)
(-13.32294 -0 -1.2684793)
(-13.321407 -0 -1.2647606)
(-13.319761 -0 -1.2607702)
(-13.31823 -0 -1.2569781)
(-13.316603 -0 -1.2529454)
(-13.314993 -6.265228e-20 -1.2489083)
(-13.313431 -0 -1.2449161)
(-13.311835 -0 -1.2407961)
(-13.310242 -0 -1.2366907)
(-13.308606 -6.0785569e-20 -1.232401)
(-13.306994 -6.0298358e-20 -1.2280925)
(-13.305398 -5.9813192e-20 -1.2237996)
(-13.30379 -5.9321434e-20 -1.2194484)
(-13.302146 5.8812353e-20 -1.2149439)
(-13.300563 -5.8311959e-20 -1.2105153)
(-13.298918 -0 -1.2058865)
(-13.297307 -0 -1.2012835)
(-13.295668 5.6729396e-20 -1.1965064)
(-13.294055 5.6193431e-20 -1.1917616)
(-13.292445 -0 -1.186948)
(-13.290805 -5.5091689e-20 -1.1820049)
(-13.289194 -0 -1.1770657)
(-13.287586 5.3964289e-20 -1.1720192)
(-13.285951 -0 -1.1668322)
(-13.284337 -0 -1.1616222)
(-13.282716 -0 -1.1563173)
(-13.281139 -0 -1.1510198)
(-13.27954 -0 -1.1455152)
(-13.277942 5.0346172e-20 -1.1399606)
(-13.276355 -4.9706476e-20 -1.1342915)
(-13.274804 -4.9070857e-20 -1.1286568)
(-13.273233 -0 -1.1227883)
(-13.271693 2.3873633e-20 -1.1169249)
(-13.270135 -0 -1.1108869)
(-13.268607 -0 -1.1047937)
(-13.267121 -0 -1.09863)
(-13.265624 2.2484235e-20 -1.0922891)
(-13.264146 -2.2125018e-20 -1.0859184)
(-13.262671 -0 -1.079354)
(-13.261243 -0 -1.0727443)
(-13.259841 -0 -1.0659837)
(-13.258474 -0 -1.0591773)
(-13.257101 -2.0218995e-20 -1.0521168)
(-13.255777 -0 -1.0450444)
(-13.254488 -0 -1.0378511)
(-13.253216 1.8997702e-20 -1.0304579)
(-13.252011 1.8576622e-20 -1.0229924)
(-13.250827 -0 -1.0154271)
(-13.249677 -8.8543846e-21 -1.0076034)
(-13.248583 -8.6311186e-21 -0.99968664)
(-13.247544 -0 -0.99164306)
(-13.24657 -0 -0.9835352)
(-13.245624 -0 -0.97509875)
(-13.244752 -3.8489012e-21 -0.96660003)
(-13.243948 -0 -0.95795695)
(-13.243209 -1.8007633e-21 -0.94906771)
(-13.242555 -0 -0.94010504)
(-13.241963 -0 -0.93084022)
)
;
    }
    lowerSurface
    {
        type            calculated;
        value           nonuniform List<vector> 
300
(
(-13.263076 0 -0.93006669)
(-13.310668 0 -0.94209435)
(-13.357765 -2.0251467e-21 -0.95405612)
(-13.404355 0 -0.9661024)
(-13.450409 0 -0.97839183)
(-13.495963 0 -0.99060827)
(-13.540984 -4.8859991e-21 -1.002967)
(-13.585511 0 -1.0154574)
(-13.629507 0 -1.0279001)
(-13.672977 1.1151186e-20 -1.040474)
(-13.715912 -1.1637703e-20 -1.0531745)
(-13.758323 0 -1.0659333)
(-13.800214 0 -1.0787648)
(-13.841576 -1.317503e-20 -1.0916807)
(-13.882425 0 -1.1046644)
(-13.922749 -1.4269175e-20 -1.1177384)
(-13.962547 0 -1.1308442)
(-14.001838 0 -1.1439859)
(-14.04056 0 -1.1574856)
(-14.078842 3.3261732e-20 -1.170687)
(-14.116551 0 -1.1841843)
(-14.153773 0 -1.1976987)
(-14.190484 0 -1.2113092)
(-14.226695 -3.8499316e-20 -1.224985)
(-14.262413 0 -1.2387354)
(-14.297604 -4.1325907e-20 -1.2526564)
(-14.332405 0 -1.2664152)
(-14.366582 0 -1.2806067)
(-14.400449 0 -1.2945011)
(-14.43376 0 -1.3086536)
(-14.466602 4.900788e-20 -1.3229414)
(-14.498993 0 -1.3372666)
(-14.530903 0 -1.3517708)
(-14.562517 0 -1.3660057)
(-14.593479 0 -1.3808061)
(-14.624223 0 -1.395311)
(-14.654538 0 -1.4099649)
(-14.684264 -6.1481252e-20 -1.42503)
(-14.713763 0 -1.4398669)
(-14.742881 -6.5433598e-20 -1.4548391)
(-14.771619 0 -1.4698969)
(-14.799986 0 -1.4851306)
(-14.828009 0 -1.5004483)
(-14.855725 0 -1.5158425)
(-14.883134 -7.62146e-20 -1.5313187)
(-14.910088 0 -1.5471125)
(-14.937021 0 -1.5626018)
(-14.963565 8.3322945e-20 -1.5783609)
(-14.98963 0 -1.5944979)
(-15.015653 0 -1.6105451)
(-15.041433 9.099527e-20 -1.6266929)
(-15.067124 0 -1.642799)
(-15.092337 0 -1.6593763)
(-15.117456 0 -1.6759767)
(-15.142401 0 -1.6926946)
(-15.167411 0 -1.7093187)
(-15.19202 0 -1.7263419)
(-15.216507 0 -1.743559)
(-15.24119 1.1432771e-19 -1.7605915)
(-15.265337 1.1761916e-19 -1.7782843)
(-15.289977 1.2091339e-19 -1.7955275)
(-15.313833 0 -1.8136433)
(-15.338157 0 -1.8314917)
(-15.362473 0 -1.8495285)
(-15.386909 0 -1.8675772)
(-15.410912 0 -1.8862824)
(-15.435409 0 -1.9047894)
(-15.459662 1.468216e-19 -1.9237282)
(-15.484309 1.5089032e-19 -1.9426476)
(-15.508616 0 -1.9620977)
(-15.533342 -1.5941706e-19 -1.9815426)
(-15.558393 0 -2.0010901)
(-15.583101 0 -2.0212053)
(-15.608333 0 -2.0413297)
(-15.633956 0 -2.061576)
(-15.659051 0 -2.0825648)
(-15.685094 0 -2.1033651)
(-15.711429 0 -2.1244061)
(-15.737316 0 -2.1461417)
(-15.764199 0 -2.1677477)
(-15.791126 0 -2.1898163)
(-15.818423 2.1524342e-19 -2.2121316)
(-15.845648 2.212491e-19 -2.2349902)
(-15.873911 0 -2.2577995)
(-15.902068 0 -2.2811608)
(-15.931033 2.4016024e-19 -2.3046444)
(-15.959702 -2.4689597e-19 -2.3288123)
(-15.989424 0 -2.353008)
(-16.019215 0 -2.3777068)
(-16.049457 0 -2.4027402)
(-16.080097 0 -2.4281704)
(-16.111633 0 -2.4537655)
(-16.143036 0 -2.4799652)
(-16.174922 0 -2.5065346)
(-16.207757 -3.0821521e-19 -2.5332792)
(-16.240341 3.1701539e-19 -2.5606468)
(-16.2737 0 -2.5882783)
(-16.307735 0 -2.6162167)
(-16.341654 0 -2.6447062)
(-16.375881 0 -2.6735752)
(-16.41117 0 -2.7026002)
(-16.446027 0 -2.7322288)
(-16.481772 -3.8682452e-19 -2.762024)
(-16.517575 0 -2.7922166)
(-16.553779 -4.0982236e-19 -2.8226798)
(-16.59015 4.2189363e-19 -2.8534383)
(-16.625598 0 -2.8846898)
(-16.662975 0 -2.9157583)
(-16.698832 0 -2.947323)
(-16.735765 0 -2.9787962)
(-16.771689 0 -3.0105013)
(-16.808162 -5.034386e-19 -3.0420874)
(-16.843706 5.1870624e-19 -3.0736885)
(-16.879078 0 -3.1050736)
(-16.914249 0 -3.1361437)
(-16.948025 0 -3.1668843)
(-16.982277 0 -3.1969766)
(-17.0147 0 -3.2264301)
(-17.046358 -6.2156192e-19 -3.2549545)
(-17.076574 0 -3.2823613)
(-17.10643 6.6055573e-19 -3.3083862)
(-17.133576 0 -3.3327446)
(-17.160408 -7.0211263e-19 -3.3551538)
(-17.185213 7.2382696e-19 -3.3752083)
(-17.207721 0 -3.3924529)
(-17.228832 0 -3.4065043)
(-17.247807 0 -3.4167626)
(-17.265211 0 -3.4227294)
(-17.279435 0 -3.42341)
(-17.292313 8.6786179e-19 -3.4184074)
(-17.303994 -8.9391955e-19 -3.4069892)
(-17.31228 0 -3.3874666)
(-17.320614 0 -3.3599583)
(-17.326234 0 -3.3221348)
(-17.331741 0 -3.2738035)
(-17.337125 0 -3.2136116)
(-17.342374 5.2991043e-19 -3.1399668)
(-17.34811 0 -3.0515334)
(-17.355566 0 -2.9476488)
(-17.365125 0 -2.8270166)
(-17.377755 -5.861207e-19 -2.6892356)
(-17.394012 0 -2.5339394)
(-17.414459 -6.132138e-19 -2.3613774)
(-17.439478 0 -2.1723651)
(-17.469044 0 -1.9677905)
(-17.503194 0 -1.7497449)
(-17.542047 -3.3065071e-19 -1.5224918)
(-17.584828 0 -1.2882886)
(-17.630927 0 -1.0507569)
(-17.679614 0 -0.81364553)
(-13.42251 -9.2130367e-20 -0.29674514)
(-13.420101 9.1247366e-20 -0.30048508)
(-13.417839 0 -0.30403744)
(-13.415588 0 -0.30759406)
(-13.413321 0 -0.31119471)
(-13.411119 0 -0.31472418)
(-13.40896 0 -0.31821261)
(-13.406824 0 -0.32168498)
(-13.404722 8.5435416e-20 -0.32514715)
(-13.402723 0 -0.32848822)
(-13.400656 0 -0.33190426)
(-13.3986 0 -0.33531253)
(-13.396677 0 -0.33856504)
(-13.394706 -8.1491049e-20 -0.34192793)
(-13.392856 0 -0.34511478)
(-13.390934 0 -0.34839961)
(-13.389086 0 -0.35162917)
(-13.387206 0 -0.35490035)
(-13.385513 0 -0.35791985)
(-13.383652 0 -0.36122957)
(-13.381926 0 -0.3643103)
(-13.380216 7.5530363e-20 -0.36735065)
(-13.378381 7.4758133e-20 -0.37064945)
(-13.376843 0 -0.37349292)
(-13.375096 0 -0.37670233)
(-13.373497 0 -0.37971627)
(-13.371921 0 -0.3826793)
(-13.37029 0 -0.38571859)
(-13.3687 0 -0.38870892)
(-13.367113 0 -0.39173191)
(-13.365626 0 -0.39461572)
(-13.364033 0 -0.39764925)
(-13.362572 0 -0.400519)
(-13.361091 0 -0.40342953)
(-13.359536 0 -0.4064919)
(-13.35819 6.575764e-20 -0.40919775)
(-13.356691 6.5058947e-20 -0.41219688)
(-13.355288 -6.440094e-20 -0.41502251)
(-13.353796 0 -0.41800919)
(-13.352442 0 -0.42078064)
(-13.351058 -6.2393618e-20 -0.42364584)
(-13.349662 0 -0.42651735)
(-13.348298 6.1068018e-20 -0.42934486)
(-13.346898 0 -0.43231098)
(-13.345595 -5.9735482e-20 -0.43507748)
(-13.3443 -5.9092069e-20 -0.43784706)
(-13.342958 -5.8428111e-20 -0.44070504)
(-13.341573 -5.7740049e-20 -0.44366741)
(-13.340342 0 -0.44636939)
(-13.339034 0 -0.44926262)
(-13.337723 5.5773993e-20 -0.45213904)
(-13.336451 5.5120591e-20 -0.45495602)
(-13.335204 5.4474124e-20 -0.45774317)
(-13.333917 0 -0.46060761)
(-13.332647 0 -0.46350462)
(-13.331418 5.2479269e-20 -0.46635075)
(-13.330156 5.1808366e-20 -0.46924644)
(-13.328944 -5.1169129e-20 -0.47200533)
(-13.327636 0 -0.47504293)
(-13.326484 0 -0.47777414)
(-13.325195 4.9129341e-20 -0.48081733)
(-13.32398 0 -0.48372458)
(-13.322799 0 -0.48655539)
(-13.321586 0 -0.48947792)
(-13.320391 0 -0.49242277)
(-13.319163 0 -0.49544712)
(-13.317912 4.5042557e-20 -0.49849227)
(-13.316795 0 -0.50131841)
(-13.315531 0 -0.50447769)
(-13.314359 0 -0.50742668)
(-13.313172 -4.2278655e-20 -0.51046147)
(-13.311955 4.1556191e-20 -0.51359183)
(-13.31075 4.083979e-20 -0.51669648)
(-13.309603 0 -0.51971618)
(-13.308408 0 -0.5228777)
(-13.307215 0 -0.52603647)
(-13.306004 0 -0.52928396)
(-13.304848 -3.7211607e-20 -0.53243395)
(-13.303655 3.6464783e-20 -0.5356757)
(-13.302477 0 -0.53893303)
(-13.301277 0 -0.54225995)
(-13.300115 1.709888e-20 -0.54552091)
(-13.2989 0 -0.54896194)
(-13.297762 1.6326353e-20 -0.55223525)
(-13.296539 0 -0.55577112)
(-13.295371 -1.5529039e-20 -0.55916801)
(-13.294187 0 -0.5626464)
(-13.293004 -1.4723913e-20 -0.56617267)
(-13.29182 1.430731e-20 -0.56979945)
(-13.290666 0 -0.57333631)
(-13.289452 0 -0.57702874)
(-13.288295 -1.3061944e-20 -0.58064353)
(-13.287092 0 -0.58444842)
(-13.285946 0 -0.58812009)
(-13.284715 0 -0.59205813)
(-13.283579 0 -0.59580358)
(-13.282373 0 -0.59978513)
(-13.281183 1.0409031e-20 -0.60377181)
(-13.280037 0 -0.60771652)
(-13.27887 0 -0.61178784)
(-13.277705 0 -0.61584268)
(-13.276516 0 -0.62008144)
(-13.275352 8.0533202e-21 -0.62434101)
(-13.274204 7.5677152e-21 -0.62858471)
(-13.27305 7.075677e-21 -0.63288514)
(-13.271875 -6.5663583e-21 -0.6373378)
(-13.270754 6.0655726e-21 -0.64171796)
(-13.269591 0 -0.6462952)
(-13.26846 0 -0.65084791)
(-13.267319 -4.4820437e-21 -0.65557501)
(-13.266201 -3.945834e-21 -0.66026987)
(-13.265092 0 -0.66503367)
(-13.263968 2.8435306e-21 -0.66992506)
(-13.262872 0 -0.67481368)
(-13.261791 0 -0.67981111)
(-13.260696 1.129787e-21 -0.6849471)
(-13.259626 0 -0.69010696)
(-13.258558 0 -0.69536068)
(-13.257534 -6.5555214e-22 -0.70060996)
(-13.25651 0 -0.70606678)
(-13.255491 1.9040484e-21 -0.71157181)
(-13.254496 -2.543973e-21 -0.71719301)
(-13.253533 -3.1798978e-21 -0.72278025)
(-13.252575 0 -0.72860195)
(-13.251647 2.2519474e-21 -0.7344188)
(-13.25072 0 -0.74040885)
(-13.249827 2.9362637e-21 -0.74645562)
(-13.248985 0 -0.75257687)
(-13.24815 0 -0.75887383)
(-13.247338 0 -0.76519971)
(-13.246549 0 -0.77172006)
(-13.245811 0 -0.77828846)
(-13.245116 0 -0.78501007)
(-13.244461 0 -0.79177836)
(-13.243826 -5.9074787e-21 -0.79880027)
(-13.243241 -6.3063301e-21 -0.80583565)
(-13.242704 0 -0.81299363)
(-13.242204 7.1289517e-21 -0.82035191)
(-13.241781 7.5500679e-21 -0.82778739)
(-13.241388 0 -0.835321)
(-13.241057 -4.2090029e-21 -0.84311581)
(-13.240791 -4.4322871e-21 -0.85100615)
(-13.240594 0 -0.85902592)
(-13.240469 0 -0.86711286)
(-13.240406 0 -0.87552921)
(-13.240423 -2.6828334e-21 -0.88401108)
(-13.240525 0 -0.89264051)
(-13.240717 -1.4651073e-21 -0.90151936)
(-13.241002 0 -0.91047533)
(-13.241381 0 -0.91973567)
)
;
    }
    inlet
    {
        type            calculated;
        value           uniform (0 0 0);
    }
    outlet
    {
        type            calculated;
        value           uniform (0 0 0);
    }
    back
    {
        type            empty;
    }
    front
    {
        type            empty;
    }
}


// ************************************************************************* //
