/*--------------------------------*- C++ -*----------------------------------*\
| =========                 |                                                 |
| \\      /  F ield         | OpenFOAM: The Open Source CFD Toolbox           |
|  \\    /   O peration     | Version:  2306                                  |
|   \\  /    A nd           | Website:  www.openfoam.com                      |
|    \\/     M anipulation  |                                                 |
\*---------------------------------------------------------------------------*/
FoamFile
{
    version     2.0;
    format      ascii;
    arch        "LSB;label=32;scalar=64";
    class       volScalarField;
    location    "875";
    object      div(phi);
}
// * * * * * * * * * * * * * * * * * * * * * * * * * * * * * * * * * * * * * //

dimensions      [0 0 -1 0 0 0 0];

internalField   nonuniform List<scalar> 
10720
(
-7.48551e-06
5.68001e-06
-4.13235e-06
3.33144e-06
-2.60905e-06
-7.58852e-07
-3.57191e-06
-2.08649e-06
-9.64193e-07
6.65766e-07
8.88733e-07
1.16347e-06
6.56627e-07
5.88173e-07
1.89738e-07
2.14708e-07
-1.37126e-07
-3.8257e-08
-5.90863e-07
-4.6231e-07
-1.37612e-06
-1.61157e-06
-3.54831e-06
-4.90255e-06
-6.06113e-06
-5.3482e-06
-2.72701e-06
-1.74877e-06
-3.11735e-06
-1.56328e-06
1.15214e-05
-2.3522e-05
-3.43566e-06
-6.18033e-07
6.88866e-06
-2.82974e-05
-7.80099e-05
2.32172e-05
-6.23714e-05
5.74879e-06
-6.16655e-06
1.30743e-09
-1.24365e-06
-9.47344e-07
4.67318e-06
2.19206e-06
7.3991e-06
1.52601e-06
2.00596e-07
1.13193e-07
-4.31786e-07
-2.7494e-07
-5.89688e-07
-3.17776e-07
-4.96961e-07
-2.49644e-07
-5.37632e-07
-2.001e-07
-6.18457e-07
-5.53965e-09
-3.33603e-07
1.05355e-06
1.63975e-06
1.80617e-06
1.76409e-06
1.25084e-06
1.19697e-06
-1.55753e-06
2.81934e-06
1.09927e-06
1.48037e-06
1.5769e-06
2.57661e-06
2.53933e-06
7.26446e-07
1.39494e-05
9.89347e-06
1.06819e-05
-3.57188e-06
1.58348e-06
-2.59766e-06
2.47943e-06
-2.79058e-06
-1.42585e-06
-2.8405e-06
-1.94222e-06
-2.41352e-07
7.76048e-07
9.67865e-07
1.05929e-06
6.19403e-07
5.81709e-07
1.85583e-07
2.12139e-07
-1.61181e-07
-1.67992e-07
-6.23694e-07
-5.74338e-07
-9.69084e-07
-7.2071e-07
-9.90774e-07
-9.78917e-07
-1.60169e-06
-1.70112e-06
-1.26853e-06
-8.34892e-07
-1.64166e-06
-1.21317e-06
5.83865e-06
-1.37762e-05
-3.84247e-06
-4.77762e-06
-1.89263e-06
-1.15451e-05
-7.10569e-05
-5.18606e-05
-8.32242e-05
1.17754e-07
-2.92541e-06
1.16353e-06
-6.23997e-07
2.55992e-06
8.12329e-07
5.54431e-06
1.34478e-06
4.63762e-07
2.36153e-07
-6.56872e-08
-2.33025e-07
-3.96213e-07
-6.12139e-07
-5.19253e-07
-6.2204e-07
-4.31664e-07
-5.75277e-07
-3.56319e-07
-5.35699e-07
-1.52651e-07
-2.31647e-07
7.22169e-07
1.10931e-06
1.54125e-06
1.4892e-06
1.47359e-06
1.09882e-06
-1.06687e-06
2.18709e-06
9.28945e-07
1.42221e-06
1.44029e-06
2.71874e-06
2.71889e-06
2.46895e-07
1.36711e-05
1.18269e-05
1.83642e-05
6.67406e-06
-4.33742e-06
4.33797e-06
-3.20105e-06
4.57684e-07
-2.97728e-06
-2.18978e-06
-9.26249e-07
2.66593e-07
6.86664e-07
1.24382e-06
8.6737e-07
8.87838e-07
4.84472e-07
4.51988e-07
2.02426e-07
1.33502e-07
-1.15819e-08
-2.10773e-07
-2.75866e-07
-6.56567e-07
-7.09796e-07
-1.45031e-06
-1.78887e-06
-2.74903e-06
-2.35984e-06
-2.77438e-06
-1.13747e-06
-2.1187e-06
-7.37753e-07
4.8877e-06
-1.183e-05
-1.25216e-06
1.62511e-06
6.56729e-06
-1.85713e-05
-2.64436e-05
4.15714e-05
-1.26134e-05
-4.62313e-06
3.09794e-06
-4.53018e-07
2.68713e-06
1.0196e-06
1.81397e-06
1.38524e-06
1.42993e-07
2.69887e-09
8.30996e-08
-7.50465e-08
-7.75676e-08
-4.40132e-07
-3.8319e-07
-5.46657e-07
-3.6144e-07
-4.29312e-07
-3.55202e-07
-3.58793e-07
-3.86769e-07
-2.0748e-07
-1.48159e-07
6.50973e-07
1.20328e-06
1.59029e-06
1.46482e-06
1.47301e-06
9.93416e-07
-1.05451e-06
2.29722e-06
9.78553e-07
1.45705e-06
1.3662e-06
2.23406e-06
1.99099e-06
1.22308e-06
1.06502e-05
6.79097e-06
5.53752e-06
-3.13668e-06
2.80014e-06
-1.33815e-06
8.07868e-07
-2.35094e-06
-1.91824e-06
-1.34539e-06
-4.40762e-07
3.6439e-07
9.31165e-07
1.06965e-06
8.54987e-07
8.12091e-07
4.4335e-07
4.81721e-07
9.48401e-08
1.06279e-07
-3.18971e-07
-4.17517e-07
-8.002e-07
-8.25638e-07
-9.27498e-07
-7.34203e-07
-8.74337e-07
-1.07236e-06
-1.67329e-06
-1.67191e-06
-1.62231e-06
-1.78237e-06
-1.1906e-06
2.49545e-06
-8.96365e-06
-3.55872e-06
-4.1953e-06
-2.34382e-06
-7.74258e-06
-4.73138e-05
-3.33519e-05
-6.21136e-05
2.21583e-06
6.43394e-07
2.3933e-06
2.07747e-06
1.35246e-06
1.74947e-06
-1.38325e-07
-2.52152e-07
-5.30456e-08
-5.83409e-08
6.69734e-08
-1.34465e-07
-3.79322e-07
-5.21238e-07
-6.59212e-07
-5.33729e-07
-5.69405e-07
-4.22869e-07
-5.06358e-07
-3.40537e-07
-3.29496e-07
-6.8553e-08
3.04862e-07
8.28228e-07
1.09707e-06
1.40127e-06
1.43133e-06
1.21083e-06
-5.74272e-07
1.74841e-06
9.80208e-07
1.42032e-06
1.47323e-06
2.68775e-06
2.6133e-06
8.66483e-07
1.3616e-05
1.2502e-05
1.96441e-05
-1.27619e-06
2.20535e-07
2.03052e-07
-1.38714e-06
-1.31294e-06
-1.71339e-06
-8.66938e-07
-1.41086e-08
3.95096e-07
1.01594e-06
8.32598e-07
9.93291e-07
6.31895e-07
7.09177e-07
4.00282e-07
4.01667e-07
1.5031e-07
9.61494e-08
-1.04501e-07
-1.98292e-07
-3.78005e-07
-5.66556e-07
-8.87709e-07
-1.49344e-06
-2.12288e-06
-2.90228e-06
-2.79395e-06
-2.51504e-06
-1.91015e-06
-1.0504e-06
2.3746e-06
-8.19044e-06
-1.44656e-06
3.32612e-06
7.19352e-06
-1.91351e-05
-1.8078e-05
4.53296e-05
-3.15837e-06
1.80303e-06
1.51029e-06
2.85819e-06
1.06171e-06
1.16706e-06
4.00951e-07
-2.22685e-07
-4.12484e-07
-2.90275e-07
4.17646e-09
7.72343e-08
-1.46467e-07
-2.8909e-07
-6.17323e-07
-5.10132e-07
-6.12056e-07
-3.83475e-07
-4.80497e-07
-3.27392e-07
-4.20153e-07
-2.1284e-07
-2.0555e-07
3.81527e-07
6.92818e-07
1.28765e-06
1.32316e-06
1.54769e-06
1.0205e-06
-3.66949e-07
1.4332e-06
9.67922e-07
1.18442e-06
1.27324e-06
1.76416e-06
1.5962e-06
1.86917e-06
8.73773e-06
4.37652e-06
2.90468e-06
9.37204e-07
-6.7769e-08
-1.29843e-06
-3.0421e-07
-1.69507e-06
-9.01182e-07
-4.06349e-07
-2.18071e-08
6.3013e-07
7.70046e-07
8.22039e-07
7.5969e-07
5.8935e-07
6.29736e-07
3.35877e-07
3.40457e-07
-4.6573e-08
-9.90809e-08
-5.34956e-07
-5.88137e-07
-8.99635e-07
-7.06267e-07
-7.84949e-07
-5.28281e-07
-9.78446e-07
-1.34964e-06
-2.10751e-06
-2.15188e-06
-2.64213e-06
-1.69224e-06
5.75569e-07
-7.27811e-06
-4.03324e-06
-4.241e-06
-2.35001e-06
-8.89662e-06
-3.99018e-05
-2.25928e-05
-4.8966e-05
1.00348e-06
2.33124e-06
2.18239e-06
1.09029e-06
1.85168e-06
1.47045e-07
-4.92014e-07
-4.08524e-07
-2.23139e-07
7.12799e-08
8.66013e-08
-4.47881e-08
-3.689e-07
-5.72752e-07
-6.7559e-07
-6.13477e-07
-4.99829e-07
-5.07879e-07
-4.22113e-07
-3.97655e-07
-2.76822e-07
-1.37021e-07
1.19146e-07
4.92083e-07
7.65953e-07
1.20653e-06
1.3076e-06
1.3394e-06
-2.08546e-07
1.4287e-06
1.08584e-06
1.34284e-06
1.39349e-06
2.36881e-06
2.25845e-06
1.57876e-06
1.17715e-05
1.19743e-05
1.84979e-05
2.11916e-06
-1.54052e-06
-7.90006e-08
-1.2857e-06
-7.41845e-07
-5.97819e-07
-2.59894e-07
1.20938e-07
5.43219e-07
5.81511e-07
7.37547e-07
5.40605e-07
7.12972e-07
5.08977e-07
5.9207e-07
3.2413e-07
2.90586e-07
7.26202e-08
1.38253e-08
-1.01031e-07
-1.74609e-07
-2.46366e-07
-4.403e-07
-7.53277e-07
-1.43119e-06
-2.05579e-06
-2.99786e-06
-2.33446e-06
-2.79036e-06
-7.66745e-07
8.01821e-07
-5.89356e-06
-5.71339e-07
4.09356e-06
8.43028e-06
-2.14219e-05
-1.67148e-05
4.90051e-05
-1.78257e-06
7.5377e-07
2.83748e-06
6.35893e-07
1.66843e-06
-2.95805e-07
1.98785e-07
-1.38503e-07
-4.42327e-07
-1.28603e-07
6.85898e-08
1.45216e-07
-2.5574e-08
-3.8311e-07
-5.46602e-07
-7.10594e-07
-5.35742e-07
-5.47959e-07
-3.96354e-07
-4.83227e-07
-2.91999e-07
-3.89699e-07
-7.62995e-08
-6.1797e-08
5.71214e-07
6.15224e-07
1.37276e-06
1.15765e-06
1.41989e-06
-3.83063e-07
1.2751e-06
7.28003e-07
1.10392e-06
9.45826e-07
1.45189e-06
1.03658e-06
1.91337e-06
5.29953e-06
2.35852e-06
-1.85594e-07
-1.30514e-06
-7.75581e-07
-8.61512e-07
-7.67865e-07
-4.95062e-07
-3.63505e-07
-2.0521e-07
2.26002e-07
3.5316e-07
5.93267e-07
4.37394e-07
4.37359e-07
5.37552e-07
4.4998e-07
4.96692e-07
1.97897e-07
1.5954e-07
-2.31362e-07
-2.80387e-07
-6.40189e-07
-5.7733e-07
-7.26972e-07
-4.39865e-07
-5.22488e-07
-4.4985e-07
-1.16201e-06
-1.67698e-06
-2.50976e-06
-2.95271e-06
-2.53216e-06
-6.95847e-07
-5.83903e-06
-4.26208e-06
-3.99518e-06
-2.26042e-06
-1.0609e-05
-3.66494e-05
-1.53922e-05
-3.82599e-05
1.86254e-06
4.85581e-07
1.91826e-06
-2.08192e-06
1.27268e-06
1.287e-07
-1.89349e-07
-3.02832e-07
-4.14281e-08
1.65693e-07
2.0284e-07
-4.50652e-08
-3.14145e-07
-6.32025e-07
-6.36435e-07
-5.94816e-07
-4.89236e-07
-4.9712e-07
-4.2097e-07
-3.98987e-07
-2.55346e-07
-1.9763e-07
1.35031e-08
2.24689e-07
5.04681e-07
8.91668e-07
1.12377e-06
1.22436e-06
7.0762e-08
1.24148e-06
1.31207e-06
1.39497e-06
1.38201e-06
2.08737e-06
1.98535e-06
2.13713e-06
9.77298e-06
1.08281e-05
1.54128e-05
-1.96733e-07
-4.99715e-07
-1.10191e-06
-5.18271e-07
-4.99874e-07
-2.6855e-07
-7.27857e-08
2.77961e-08
3.5675e-07
2.45999e-07
3.05446e-07
4.31026e-07
3.78491e-07
6.12374e-07
4.30773e-07
4.72298e-07
1.99302e-07
2.00483e-07
3.02669e-09
6.74308e-08
-5.73149e-08
6.11455e-08
-1.02643e-07
-9.7165e-08
-7.38006e-07
-1.00719e-06
-2.32294e-06
-2.09483e-06
-2.81795e-06
-8.59909e-07
-2.75591e-07
-3.13754e-06
-4.33251e-07
5.23223e-06
8.14796e-06
-2.0708e-05
-1.39691e-05
5.16049e-05
-1.03789e-06
-1.86079e-07
1.83475e-06
-1.47244e-06
2.91441e-06
-1.00516e-06
1.44906e-07
1.71877e-08
-1.00722e-08
-3.44105e-08
2.1575e-07
2.06966e-07
-1.32826e-08
-3.34818e-07
-5.90768e-07
-6.12836e-07
-5.74457e-07
-4.62527e-07
-5.09445e-07
-3.88617e-07
-4.37711e-07
-2.46111e-07
-2.97364e-07
-6.16135e-09
7.20727e-08
5.22029e-07
7.20113e-07
1.16739e-06
1.00093e-06
-1.41626e-08
7.83253e-07
1.0142e-06
8.0604e-07
8.81147e-07
9.87245e-07
7.77549e-07
1.97844e-06
3.15132e-06
3.92004e-07
-2.24245e-06
-9.61642e-07
-1.72209e-06
-9.72057e-07
-9.26027e-07
-3.71928e-07
-2.14992e-07
-1.25637e-07
1.07398e-07
-3.47982e-10
8.07381e-07
-9.34976e-08
1.95685e-07
3.31647e-07
4.63542e-07
3.60628e-07
3.40749e-07
7.8523e-08
-3.4175e-08
-2.95447e-07
-3.79998e-07
-5.06567e-07
-4.55908e-07
-3.6282e-07
-2.76093e-07
-2.50043e-07
-7.27103e-07
-1.23931e-06
-2.3677e-06
-2.91714e-06
-3.29305e-06
-1.2979e-06
-5.20704e-06
-4.57788e-06
-3.7304e-06
-2.16283e-06
-1.06464e-05
-2.93408e-05
-1.04679e-05
-2.97275e-05
1.20321e-06
3.75181e-08
2.03113e-06
-2.00248e-06
1.24478e-06
-6.13012e-08
1.2419e-07
-6.41982e-07
2.26631e-07
2.80964e-07
2.16141e-07
6.67441e-09
-3.67516e-07
-5.23119e-07
-5.97005e-07
-4.72086e-07
-5.07953e-07
-4.28723e-07
-4.84638e-07
-3.1917e-07
-3.27434e-07
-1.52726e-07
-1.39961e-07
1.21938e-07
2.06559e-07
6.43125e-07
7.4537e-07
1.01647e-06
1.56986e-07
1.1703e-06
1.43791e-06
1.57509e-06
1.47637e-06
1.89166e-06
1.84652e-06
2.64254e-06
8.19852e-06
9.62334e-06
1.2312e-05
-1.11355e-06
-5.53216e-07
-4.8255e-07
-1.27723e-07
-4.32503e-07
-1.96533e-07
-2.41807e-07
-3.12931e-07
1.09765e-06
-3.65045e-07
1.6532e-07
-1.20284e-07
3.04584e-07
3.39763e-07
5.21972e-07
3.33028e-07
3.79333e-07
1.05154e-07
2.13751e-07
-1.16559e-09
2.34561e-07
2.29548e-08
3.96236e-07
-4.31992e-08
2.58847e-07
-7.44586e-07
-6.81436e-07
-2.20481e-06
-1.60939e-06
-1.82929e-06
7.67629e-07
-2.12301e-06
6.78724e-07
5.21732e-06
7.53203e-06
-1.74398e-05
-1.19737e-05
5.02099e-05
-2.20122e-06
1.91007e-07
7.01504e-07
1.41873e-07
3.59369e-07
-9.63644e-07
6.59895e-07
-7.0825e-07
4.70965e-08
1.9884e-07
3.70601e-07
2.61187e-07
-2.95927e-08
-3.02039e-07
-5.11749e-07
-4.96732e-07
-4.75673e-07
-4.56146e-07
-4.62018e-07
-4.55447e-07
-3.68662e-07
-3.36108e-07
-2.30101e-07
-2.12362e-07
1.88888e-08
8.60276e-08
5.25339e-07
5.54551e-07
8.45324e-07
-1.31755e-07
7.28251e-07
8.34606e-07
1.02123e-06
6.1458e-07
8.27253e-07
4.55479e-07
1.7011e-06
1.1896e-06
-7.78666e-07
-2.89877e-06
-2.82877e-07
-9.76116e-07
-2.64738e-07
-1.0031e-07
-2.07184e-08
-2.60305e-07
-4.02335e-07
5.45596e-07
-6.69708e-07
9.47797e-07
-3.61372e-07
-1.99165e-07
1.20397e-07
2.60197e-07
3.49927e-07
3.37746e-07
1.76396e-07
5.41396e-08
-1.76874e-07
-2.26753e-07
-3.7435e-07
-2.74847e-07
-2.90072e-07
-1.06946e-07
-1.62027e-07
-3.53808e-07
-8.59848e-07
-1.84328e-06
-2.6345e-06
-3.29613e-06
-1.70652e-06
-4.78668e-06
-5.11868e-06
-3.69451e-06
-2.15583e-06
-9.94637e-06
-2.19435e-05
-6.45937e-06
-2.24369e-05
2.81289e-07
2.45406e-07
2.1945e-07
-1.23265e-07
2.45945e-07
-3.55956e-07
2.84217e-07
-4.5386e-07
3.82152e-07
4.92086e-07
2.7284e-07
-3.73727e-08
-2.83715e-07
-4.46697e-07
-4.1104e-07
-4.42145e-07
-3.96048e-07
-5.04201e-07
-3.8169e-07
-4.02542e-07
-2.33683e-07
-2.68212e-07
-1.03032e-07
-8.77981e-08
1.206e-07
2.747e-07
5.00226e-07
5.91561e-07
2.72448e-07
9.50037e-07
1.50063e-06
1.65847e-06
1.68591e-06
1.82908e-06
1.76859e-06
2.91038e-06
6.872e-06
8.27455e-06
9.63546e-06
-4.78714e-07
-3.41804e-07
-1.29093e-07
-5.74839e-08
-1.52242e-07
-1.49862e-07
-7.85781e-08
-4.20445e-07
1.45743e-06
-7.39419e-07
-1.88368e-07
-1.05042e-07
2.53626e-08
2.90861e-07
3.3699e-07
4.75869e-07
3.10119e-07
3.33477e-07
1.13006e-07
2.43117e-07
7.85845e-08
3.42323e-07
1.83815e-07
4.85758e-07
1.26701e-07
3.15313e-07
-4.89636e-07
-6.48273e-07
-1.51474e-06
-7.14616e-07
7.27025e-07
-4.57634e-07
1.11026e-06
5.7157e-06
6.78478e-06
-1.4057e-05
-9.98035e-06
4.54829e-05
-2.20853e-06
2.73684e-08
1.60194e-07
-3.16215e-08
9.43595e-08
-1.31428e-07
1.26438e-07
-7.3839e-07
2.57361e-07
3.25449e-07
3.85955e-07
1.93651e-07
-2.21724e-08
-2.87453e-07
-3.35075e-07
-3.97668e-07
-3.51855e-07
-4.46165e-07
-4.31467e-07
-4.52548e-07
-3.51799e-07
-3.30336e-07
-2.67494e-07
-2.40878e-07
-1.47353e-07
-6.18713e-08
1.46842e-07
2.329e-07
3.68478e-07
-1.14248e-07
4.43558e-07
8.54514e-07
8.21816e-07
8.03999e-07
4.88338e-07
3.61701e-07
1.42042e-06
5.14583e-08
-1.62273e-06
-3.26071e-06
-3.10229e-07
-3.15776e-07
-1.34374e-07
-1.21698e-08
-5.23956e-08
-2.71549e-07
-3.01863e-07
2.61777e-07
-2.32796e-07
6.7834e-07
-1.64559e-07
-1.14134e-07
-6.11816e-08
1.60936e-07
3.57392e-07
3.3599e-07
3.52879e-07
6.26753e-08
4.92695e-08
-2.28175e-07
-1.38548e-07
-3.11746e-07
-8.6692e-08
-2.06268e-07
5.48431e-08
-3.09547e-07
-3.56918e-07
-1.43563e-06
-1.82915e-06
-2.95407e-06
-1.64064e-06
-4.59178e-06
-5.15282e-06
-4.00796e-06
-1.90712e-06
-9.01161e-06
-1.54758e-05
-3.44661e-06
-1.65098e-05
-3.80015e-08
-1.43236e-09
4.77401e-08
-1.38456e-07
8.42285e-08
-1.35293e-07
-8.05e-09
-3.64678e-07
4.16635e-07
2.85071e-07
1.70224e-07
-6.38239e-08
-2.29513e-07
-2.85443e-07
-3.21826e-07
-3.21007e-07
-4.40224e-07
-4.07923e-07
-4.34378e-07
-3.02359e-07
-3.16583e-07
-1.98509e-07
-2.19823e-07
-8.78353e-08
-7.50117e-08
1.33885e-07
1.72012e-07
3.48923e-07
1.81016e-07
8.26681e-07
1.26308e-06
1.71497e-06
1.7495e-06
1.94922e-06
1.75625e-06
3.09464e-06
5.70351e-06
6.94485e-06
7.37171e-06
-2.69122e-07
-2.73735e-07
-2.4068e-09
-6.44887e-08
-1.58732e-07
-1.55669e-07
-1.22154e-07
-2.19843e-07
1.82762e-07
8.63966e-08
-3.90522e-07
-9.2637e-08
-3.74195e-08
1.4782e-07
3.76825e-07
4.70909e-07
4.41293e-07
3.23781e-07
2.54554e-07
1.59313e-07
2.0969e-07
1.76083e-07
3.48658e-07
2.84025e-07
4.93591e-07
2.81659e-07
4.03055e-07
-3.15156e-07
-1.12821e-07
-3.85589e-07
1.45711e-06
5.0968e-07
1.57306e-06
6.51818e-06
6.15513e-06
-1.09013e-05
-9.99678e-06
4.08228e-05
-2.93343e-06
-1.11831e-07
-3.70704e-08
-7.20759e-08
6.7509e-08
-1.05183e-07
4.13925e-08
-1.09461e-07
1.09377e-07
3.1349e-07
3.29974e-07
1.17001e-07
-7.6784e-08
-1.62375e-07
-2.68806e-07
-2.36124e-07
-3.64625e-07
-3.60338e-07
-4.59554e-07
-3.53579e-07
-3.71661e-07
-2.75988e-07
-3.03582e-07
-2.37924e-07
-2.44252e-07
-1.59634e-07
-9.94859e-08
-2.96964e-09
-8.43459e-10
-1.17029e-07
2.06668e-07
5.99471e-07
7.71789e-07
6.73867e-07
4.93473e-07
1.64822e-07
1.06058e-06
-8.50177e-07
-2.15711e-06
-2.80529e-06
-2.68524e-07
-1.67146e-07
-1.08158e-07
1.38045e-09
-5.47171e-08
-2.82749e-07
-2.80107e-07
1.67643e-07
-8.38573e-08
-1.16106e-07
1.80389e-07
-4.5508e-07
6.32428e-08
9.60002e-08
3.48292e-07
4.75967e-07
2.97643e-07
2.6176e-07
-2.69587e-08
4.95277e-09
-2.38494e-07
-8.61004e-08
-2.48634e-07
5.43298e-09
-1.34054e-07
2.10597e-08
-3.34363e-07
-7.10949e-07
-1.35197e-06
-1.98578e-06
-1.69222e-06
-3.91589e-06
-5.016e-06
-3.94944e-06
-1.74059e-06
-7.66469e-06
-1.08064e-05
-1.34188e-06
-1.25351e-05
-1.13751e-07
-7.04769e-08
-6.52533e-09
-1.10867e-07
8.02545e-08
-8.12214e-08
1.50369e-08
1.07312e-08
1.01627e-07
1.86224e-07
4.5227e-08
-5.73447e-08
-1.25912e-07
-1.8664e-07
-2.27568e-07
-3.33226e-07
-3.73585e-07
-4.10694e-07
-3.33624e-07
-3.33456e-07
-2.38096e-07
-2.63126e-07
-1.65168e-07
-1.9612e-07
-6.4562e-08
-6.45484e-08
8.87966e-08
8.13239e-08
2.1744e-07
5.42816e-07
1.07571e-06
1.47776e-06
1.79514e-06
1.96816e-06
1.83211e-06
3.0336e-06
4.67697e-06
5.5805e-06
5.639e-06
-2.08738e-07
-2.1184e-07
2.8863e-08
-6.35751e-08
-1.71639e-07
-1.43064e-07
-1.09465e-07
-2.64028e-07
1.88983e-07
1.27808e-07
-3.25352e-07
8.36455e-09
-3.19357e-07
1.16801e-07
4.0198e-07
4.47687e-07
4.63327e-07
2.83222e-07
2.60632e-07
1.28438e-07
1.72755e-07
1.29749e-07
2.62464e-07
2.63519e-07
4.47333e-07
4.29154e-07
6.18331e-07
2.41159e-07
5.77271e-07
2.92163e-07
1.88681e-06
8.26227e-07
2.36162e-06
5.99428e-06
6.57185e-06
-8.22402e-06
-9.38621e-06
3.53346e-05
-3.04008e-06
-1.32733e-07
-7.9586e-08
-7.40587e-08
5.83823e-08
-7.15082e-08
6.40328e-08
-4.89496e-08
1.04871e-08
6.30045e-08
1.60918e-07
9.63286e-08
3.51246e-08
-1.27727e-07
-1.18306e-07
-2.59749e-07
-2.6914e-07
-4.01971e-07
-3.18276e-07
-3.61992e-07
-2.59205e-07
-2.96015e-07
-2.3056e-07
-2.70656e-07
-2.23766e-07
-2.45822e-07
-1.55423e-07
-1.89624e-07
-1.026e-07
-2.186e-07
1.06811e-07
2.4285e-07
6.25503e-07
4.90934e-07
4.58705e-07
-8.35896e-08
6.26331e-07
-1.37774e-06
-2.17657e-06
-2.53486e-06
-2.21873e-07
-1.15091e-07
-9.58754e-08
8.40777e-09
-7.19807e-08
-2.66932e-07
-2.68656e-07
1.4938e-07
-7.35527e-08
-7.33902e-08
1.30231e-07
-1.45414e-07
-7.24755e-08
2.3954e-07
3.12493e-07
3.84696e-07
3.28167e-07
1.27084e-07
9.98765e-08
-9.00578e-08
-8.05515e-08
-1.95929e-07
-1.06308e-07
-1.27195e-07
-7.52256e-09
-2.81515e-08
-1.11623e-07
-3.94153e-07
-8.11338e-07
-1.24381e-06
-1.55046e-06
-3.22302e-06
-4.40608e-06
-3.72178e-06
-1.49933e-06
-6.00447e-06
-6.72533e-06
-4.56231e-08
-9.43934e-06
-1.1366e-07
-8.16405e-08
-1.97036e-08
-8.80843e-08
7.88545e-08
-4.29943e-08
4.09944e-08
-3.97776e-08
7.88881e-10
6.07243e-08
1.18012e-07
-2.21883e-07
5.32812e-08
-9.19149e-08
-2.12507e-07
-2.94637e-07
-3.36909e-07
-3.0963e-07
-3.06435e-07
-2.39359e-07
-2.5431e-07
-1.82886e-07
-2.12848e-07
-1.27824e-07
-1.21563e-07
-5.33535e-08
-1.30763e-08
4.56303e-08
1.54132e-07
4.04072e-07
8.1492e-07
1.20972e-06
1.66461e-06
1.87339e-06
1.94786e-06
2.82201e-06
3.72894e-06
4.39737e-06
4.17332e-06
-1.65547e-07
-1.75483e-07
4.53133e-08
-7.81762e-08
-1.61743e-07
-1.27133e-07
-8.97171e-08
-2.5777e-07
1.54836e-07
1.01208e-07
-1.27551e-07
-6.33025e-08
2.05104e-09
3.22617e-08
2.57299e-07
3.71363e-07
2.49017e-07
2.6619e-07
1.06999e-07
1.78581e-07
2.26803e-08
1.67299e-07
7.07772e-08
3.09112e-07
2.37482e-07
5.86684e-07
4.55608e-07
7.6034e-07
5.52138e-07
1.13749e-06
1.28413e-06
1.48863e-06
2.00137e-06
5.78282e-06
6.33668e-06
-6.0476e-06
-9.21231e-06
3.06763e-05
-3.2085e-06
-1.20851e-07
-8.02077e-08
-6.32589e-08
5.45177e-08
-5.54493e-08
8.33847e-08
-5.06945e-08
1.34918e-08
-3.13223e-08
7.83432e-08
-2.04589e-07
2.80414e-07
1.98887e-08
-4.59811e-08
-1.39139e-07
-3.03369e-07
-2.44813e-07
-3.102e-07
-2.11743e-07
-2.58124e-07
-1.81877e-07
-2.3151e-07
-1.82663e-07
-2.30618e-07
-1.56304e-07
-2.22326e-07
-1.26258e-07
-2.28103e-07
-9.92029e-08
-1.27083e-07
2.03435e-07
1.99283e-07
4.93946e-07
1.49326e-07
-4.75428e-08
3.43444e-07
-1.56572e-06
-2.17895e-06
-1.89651e-06
-1.79617e-07
-8.12876e-08
-9.40954e-08
6.00226e-09
-5.88103e-08
-2.5262e-07
-2.37735e-07
1.33446e-07
-1.08035e-07
-3.22355e-08
1.53177e-07
4.38742e-08
6.9534e-08
1.48171e-07
2.99969e-07
2.46408e-07
1.06764e-07
7.61083e-08
2.68561e-08
-3.14119e-08
-1.0681e-07
-1.4912e-07
-1.44034e-07
-1.09883e-07
-4.51507e-08
-8.46382e-09
-8.02095e-08
-1.90023e-07
-5.39528e-07
-7.64498e-07
-1.45979e-06
-2.49043e-06
-3.68311e-06
-3.15131e-06
-1.20971e-06
-4.32729e-06
-3.67744e-06
9.49817e-07
-7.27177e-06
-9.84808e-08
-6.59701e-08
-1.80443e-08
-6.91339e-08
8.39668e-08
-2.82973e-08
6.8844e-08
-7.08079e-08
1.19435e-08
-7.6813e-08
1.54902e-07
-2.6783e-07
2.07224e-07
3.44145e-08
-1.43306e-07
-2.14214e-07
-2.4001e-07
-2.32322e-07
-2.03608e-07
-2.05493e-07
-1.63016e-07
-1.8199e-07
-1.29842e-07
-8.98525e-08
-5.92541e-08
-3.39905e-08
7.86937e-09
4.2291e-08
1.62733e-07
2.99557e-07
6.60989e-07
9.2371e-07
1.47512e-06
1.65074e-06
1.98741e-06
2.39275e-06
2.91896e-06
3.20371e-06
3.01318e-06
-1.32593e-07
-1.46798e-07
4.5037e-08
-6.95923e-08
-1.51867e-07
-1.09707e-07
-8.31169e-08
-2.59355e-07
1.26411e-07
1.46636e-07
-9.91312e-08
1.56113e-07
6.67897e-08
2.53432e-07
1.56057e-07
8.08944e-09
1.38103e-07
5.71765e-08
1.37893e-07
3.16872e-08
8.90616e-08
-1.27411e-08
1.14873e-07
7.46562e-08
2.79288e-07
3.07653e-07
5.40815e-07
5.43253e-07
7.72153e-07
9.06239e-07
1.18425e-06
1.17944e-06
1.97367e-06
4.6346e-06
6.06173e-06
-4.46968e-06
-8.88611e-06
2.52143e-05
-3.12025e-06
-9.89056e-08
-6.66269e-08
-4.77816e-08
5.67955e-08
-3.46078e-08
9.62949e-08
-3.61349e-08
3.04604e-08
-2.8047e-08
2.59556e-08
-2.07863e-07
3.63689e-07
2.72622e-08
3.04816e-08
-1.56859e-07
-1.41347e-07
-2.21446e-07
-1.42426e-07
-1.95848e-07
-1.1722e-07
-1.6787e-07
-1.12723e-07
-1.41226e-07
-7.67386e-08
-1.28445e-07
-9.038e-08
-1.3791e-07
-1.04725e-07
-1.32818e-07
-5.56733e-08
2.27857e-08
1.29099e-07
2.17736e-07
8.08705e-08
-1.85869e-07
-1.9263e-07
-1.94688e-06
-1.83404e-06
-1.6749e-06
-1.45581e-07
-6.54085e-08
-8.55891e-08
1.45795e-08
-6.09449e-08
-2.26921e-07
-2.26615e-07
1.1649e-07
-8.76595e-08
-3.38161e-08
2.48571e-07
7.60795e-08
1.74093e-07
8.07215e-08
-2.62e-08
5.21664e-07
-6.53615e-08
-1.95226e-08
1.02429e-08
-1.02163e-08
-1.11115e-07
-1.37552e-07
-1.73246e-07
-1.29783e-07
-9.24042e-08
-6.21838e-08
-1.02214e-07
-1.75002e-07
-4.179e-07
-6.18208e-07
-1.29676e-06
-1.9498e-06
-2.94416e-06
-2.50729e-06
-9.62993e-07
-3.05727e-06
-1.59309e-06
1.60534e-06
-5.49396e-06
-7.91209e-08
-5.53623e-08
-1.11437e-08
-5.20088e-08
8.6747e-08
-1.72688e-08
8.81109e-08
-5.1348e-08
7.76933e-10
-5.25191e-08
1.3791e-07
-1.29114e-07
2.02117e-07
-3.62851e-08
-8.07903e-08
-1.46441e-07
-1.40562e-07
-1.39428e-07
-1.22681e-07
-1.11005e-07
-1.18576e-07
-9.33909e-08
-3.7194e-08
1.3558e-09
2.3361e-08
2.41875e-08
5.33202e-08
8.62947e-08
1.8181e-07
2.79054e-07
5.54463e-07
7.36444e-07
1.24435e-06
1.38889e-06
1.81537e-06
1.91883e-06
2.1427e-06
2.21436e-06
2.05803e-06
-1.12472e-07
-1.25584e-07
4.57305e-08
-7.39545e-08
-1.31506e-07
-9.22691e-08
-7.40027e-08
-2.36511e-07
1.18983e-07
1.47019e-07
-3.35686e-08
1.57387e-07
1.07632e-07
-9.12744e-08
6.70505e-07
-4.2513e-07
-2.97366e-07
-9.80446e-08
8.58323e-09
5.9236e-08
-1.12208e-08
-6.73671e-09
-4.05836e-08
3.97665e-08
6.47989e-08
2.20228e-07
2.69858e-07
4.64696e-07
4.72757e-07
7.82493e-07
7.01494e-07
1.0395e-06
1.52737e-06
3.48062e-06
5.27689e-06
-3.58607e-06
-7.1341e-06
2.09477e-05
-3.21844e-06
-8.27806e-08
-5.30554e-08
-3.48659e-08
5.66572e-08
-2.7232e-08
1.04455e-07
-2.52591e-08
5.27881e-08
-3.65058e-08
-2.41473e-10
-2.51452e-08
4.08838e-08
1.09113e-07
-6.63441e-08
-6.31542e-08
-1.43548e-07
-6.88569e-08
-1.27008e-07
-5.30463e-08
-1.0014e-07
-4.69335e-08
-4.71778e-08
2.11879e-08
1.19352e-08
1.20132e-08
-2.94595e-08
-2.90206e-08
-5.948e-08
-2.52565e-08
-5.30869e-08
6.11615e-08
-9.65761e-10
1.64367e-07
-1.03492e-07
-2.7796e-07
-2.87415e-07
-1.78087e-06
-1.86191e-06
-1.23379e-06
-1.2829e-07
-5.44726e-08
-8.91535e-08
1.03349e-08
-4.54498e-08
-2.07301e-07
-1.94423e-07
1.08413e-07
-8.51397e-08
-1.50712e-08
2.44019e-07
9.77211e-08
-4.98062e-09
2.46382e-07
-4.37846e-07
3.30237e-07
-4.16335e-07
-3.49227e-07
-7.36834e-08
-4.78001e-08
-8.54754e-08
-1.79952e-07
-1.74508e-07
-2.00377e-07
-1.22689e-07
-1.6922e-07
-1.28138e-07
-2.71578e-07
-3.59896e-07
-6.31839e-07
-1.1008e-06
-1.57266e-06
-2.33842e-06
-1.88848e-06
-1.02756e-06
-2.10622e-06
-3.91946e-07
1.96761e-06
-4.23424e-06
-6.14897e-08
-3.96917e-08
-6.49768e-09
-4.00093e-08
8.62508e-08
-6.31122e-09
1.0307e-07
-4.09969e-08
-3.40531e-09
-3.14011e-08
4.60423e-08
5.88538e-08
-9.88905e-09
5.71245e-08
-6.99514e-08
-3.09624e-08
-1.64833e-07
-3.2843e-08
-6.08885e-08
-4.62354e-08
-3.51997e-08
1.81916e-08
6.51382e-08
1.11258e-07
8.84598e-08
8.75917e-08
9.12313e-08
1.39609e-07
2.00933e-07
2.933e-07
4.80759e-07
6.2172e-07
1.02882e-06
1.12764e-06
1.59272e-06
1.48027e-06
1.55953e-06
1.45286e-06
1.43714e-06
-9.13005e-08
-1.23545e-07
3.43139e-08
-6.73859e-08
-1.1772e-07
-7.67777e-08
-6.53008e-08
-2.183e-07
1.09751e-07
1.55171e-07
-3.54976e-08
1.02725e-07
3.02268e-08
-2.81189e-07
2.67658e-07
-9.99504e-07
-4.35195e-07
-2.49e-07
-2.92895e-08
4.60986e-09
-2.8506e-08
-8.41278e-08
-8.99142e-08
-8.65103e-08
-3.31189e-08
1.66679e-08
1.26507e-07
1.88495e-07
3.02532e-07
4.21929e-07
4.46382e-07
7.10678e-07
1.06897e-06
2.57909e-06
3.81415e-06
-2.44878e-06
-4.71953e-06
1.56742e-05
-3.06111e-06
-7.20167e-08
-3.9643e-08
-2.42279e-08
5.47833e-08
-1.51392e-08
1.05864e-07
-1.01944e-08
6.26751e-08
-3.38827e-08
-7.75483e-09
-3.09209e-08
1.79381e-08
3.6822e-08
-1.28295e-08
-1.86452e-08
-2.23066e-07
-7.32008e-08
-4.36691e-08
-9.88742e-09
4.22347e-09
1.7721e-08
8.89055e-08
1.28776e-07
1.31743e-07
8.97914e-08
4.77735e-08
2.908e-08
2.41823e-08
3.09026e-08
1.90196e-08
6.52727e-08
5.25202e-09
1.01709e-07
-1.6042e-07
-2.38784e-07
-4.12428e-07
-1.68099e-06
-1.51332e-06
-1.01068e-06
-1.24531e-07
-5.92496e-08
-8.52242e-08
1.19108e-08
-4.76903e-08
-1.80465e-07
-1.77983e-07
1.03941e-07
-6.77875e-08
-2.04749e-08
2.13305e-07
6.40104e-09
-1.20754e-07
-1.17497e-08
-7.18223e-07
-1.2388e-07
-8.75778e-07
-1.69162e-07
-7.03493e-08
-2.32066e-08
-1.30651e-07
-1.52804e-07
-2.4106e-07
-1.84579e-07
-2.21806e-07
-1.70089e-07
-2.36705e-07
-2.69989e-07
-3.94906e-07
-5.9431e-07
-9.28528e-07
-1.31205e-06
-1.80149e-06
-1.45537e-06
-1.59327e-06
-1.62321e-06
-3.7928e-08
1.67873e-06
-3.26573e-06
-3.8456e-08
-3.42945e-08
-3.27133e-09
-3.11839e-08
8.18923e-08
-1.78304e-09
1.08765e-07
-3.57387e-08
-7.2461e-09
-2.4375e-08
5.51772e-08
2.11859e-08
-2.65255e-08
3.78174e-08
-2.65888e-07
-1.41149e-07
-1.47095e-07
2.42648e-08
-1.10001e-08
5.80991e-08
8.16383e-08
1.16631e-07
1.7362e-07
1.64853e-07
1.35453e-07
1.11127e-07
1.19961e-07
1.64881e-07
2.11063e-07
2.96881e-07
4.16235e-07
5.47046e-07
8.2154e-07
9.47899e-07
1.25972e-06
1.11694e-06
1.11691e-06
1.00625e-06
1.06085e-06
-6.78038e-08
-1.19266e-07
2.29623e-08
-7.32574e-08
-1.02722e-07
-6.3738e-08
-5.36017e-08
-1.88807e-07
1.00154e-07
1.31781e-07
-7.05346e-08
9.30987e-09
-1.03336e-07
-3.89941e-07
-1.33883e-07
-6.85208e-07
-2.0074e-07
-1.55477e-07
5.58937e-09
-1.98021e-08
-4.446e-08
-1.26971e-07
-1.25285e-07
-1.56944e-07
-1.16384e-07
-1.03515e-07
-1.98672e-08
1.47583e-08
1.15563e-07
1.61376e-07
2.30948e-07
3.90897e-07
7.24298e-07
1.67517e-06
2.5899e-06
-1.70828e-06
-2.52697e-06
1.16555e-05
-2.95218e-06
-7.10649e-08
-2.13983e-08
-1.78042e-08
4.92981e-08
-1.37972e-08
1.03387e-07
-8.40999e-09
6.90271e-08
-2.73849e-08
3.16963e-09
-3.42948e-08
-5.6809e-09
8.72099e-08
-2.8704e-07
3.18864e-08
-3.67108e-07
3.40609e-08
-1.6082e-07
1.83606e-07
8.91414e-08
1.61127e-07
1.97081e-07
2.05379e-07
1.84555e-07
1.21186e-07
8.40079e-08
6.93973e-08
7.36987e-08
7.1168e-08
7.00983e-08
7.58363e-08
3.69891e-08
6.16896e-08
-1.2522e-07
-2.76482e-07
-3.23722e-07
-1.24352e-06
-1.26847e-06
-7.1491e-07
-2.07236e-07
-2.71518e-08
-8.05964e-08
1.91384e-09
-3.88994e-08
-1.62703e-07
-1.48353e-07
9.39036e-08
-6.28944e-08
-3.12652e-08
1.36266e-07
-6.74012e-08
-1.9807e-07
-1.32249e-07
-6.41257e-07
-5.41712e-08
-7.02088e-07
3.41212e-07
2.48024e-09
-4.00115e-08
-8.95441e-08
-1.86716e-07
-2.03277e-07
-2.28768e-07
-2.01929e-07
-2.17976e-07
-2.28022e-07
-2.87101e-07
-3.61035e-07
-5.40523e-07
-7.57161e-07
-1.07044e-06
-1.41673e-06
-9.69073e-07
-2.22475e-06
-1.24031e-06
-1.52833e-07
1.15815e-06
-2.55154e-06
4.08513e-08
-4.02611e-09
4.19061e-09
-2.49127e-08
7.55889e-08
2.00402e-09
1.08623e-07
-2.56917e-08
6.03491e-09
-1.67838e-08
5.71141e-08
7.00868e-08
-1.9916e-07
1.73069e-07
-7.5235e-07
3.49683e-08
-3.49937e-07
2.50842e-07
9.78966e-08
2.43061e-07
2.461e-07
2.34377e-07
2.13579e-07
1.7926e-07
1.2792e-07
1.10217e-07
1.22579e-07
1.60732e-07
2.0022e-07
2.73281e-07
3.51169e-07
4.68082e-07
6.49702e-07
7.57078e-07
9.90242e-07
8.54694e-07
8.73431e-07
7.91283e-07
8.96874e-07
6.54465e-08
-2.42043e-07
1.62061e-09
-6.82822e-08
-9.5344e-08
-5.47828e-08
-4.75979e-08
-1.70645e-07
8.63189e-08
9.65414e-08
-9.86534e-08
-5.42357e-08
-1.52693e-07
-4.17986e-07
-7.19497e-08
-6.23233e-07
3.21985e-07
-4.68996e-07
-1.65188e-07
-6.90915e-08
-1.21389e-07
-1.1484e-07
-1.80434e-07
-1.50192e-07
-1.90422e-07
-1.34098e-07
-1.3215e-07
-6.1391e-08
-4.17987e-08
1.80041e-08
5.14076e-08
1.51758e-07
4.99245e-07
8.94733e-07
1.93492e-07
-1.17642e-06
-6.74966e-07
7.89139e-06
-2.66065e-06
-3.17686e-08
3.56581e-08
4.72266e-10
4.63727e-08
-8.2643e-09
9.68958e-08
-1.99288e-09
7.51504e-08
-1.50393e-08
1.8205e-08
-2.34127e-08
-3.25301e-08
1.45859e-07
-4.46391e-07
1.43529e-07
-3.93837e-07
1.74239e-08
1.30062e-07
2.05357e-07
3.72468e-07
2.91024e-07
2.38585e-07
2.26303e-07
1.65887e-07
1.16336e-07
8.64719e-08
8.51034e-08
9.05525e-08
9.34793e-08
9.09636e-08
8.50657e-08
5.7545e-08
4.94989e-08
-9.23984e-08
-2.23083e-07
-1.6278e-07
-8.19989e-07
-8.84749e-07
-4.62496e-07
-2.3135e-07
-1.11256e-08
-8.45807e-08
-2.04291e-09
-4.31651e-08
-1.42228e-07
-1.35475e-07
8.53471e-08
-6.12955e-08
-3.84804e-08
8.66598e-08
-1.00831e-07
-2.13683e-07
-1.43144e-07
-5.91852e-07
1.18715e-07
-4.20554e-07
2.52991e-07
-1.59894e-07
-2.83865e-07
-1.7469e-07
-2.02781e-07
-2.05783e-07
-2.15578e-07
-1.95179e-07
-1.98883e-07
-2.12396e-07
-2.4818e-07
-3.15348e-07
-4.3853e-07
-5.99919e-07
-8.22524e-07
-1.07636e-06
-1.27129e-06
-4.78789e-09
-1.57721e-06
-3.0123e-07
4.00948e-07
-1.90813e-06
9.45904e-08
4.85159e-08
1.79419e-08
-1.84643e-08
6.87193e-08
1.04893e-09
1.04683e-07
-2.16254e-08
1.85348e-08
-1.4815e-08
6.64484e-08
7.89167e-08
-9.68171e-08
-6.21669e-08
-4.73317e-07
-3.72946e-07
1.71655e-07
-4.11797e-09
4.45225e-07
3.13655e-07
2.34287e-07
2.48997e-07
2.07033e-07
1.3837e-07
1.01554e-07
8.81243e-08
1.02784e-07
1.38222e-07
1.67742e-07
2.29492e-07
2.77311e-07
3.83704e-07
4.87685e-07
6.10056e-07
7.49605e-07
6.69893e-07
7.07005e-07
7.1703e-07
7.98181e-07