/*--------------------------------*- C++ -*----------------------------------*\
| =========                 |                                                 |
| \\      /  F ield         | OpenFOAM: The Open Source CFD Toolbox           |
|  \\    /   O peration     | Version:  2306                                  |
|   \\  /    A nd           | Website:  www.openfoam.com                      |
|    \\/     M anipulation  |                                                 |
\*---------------------------------------------------------------------------*/
FoamFile
{
    version     2.0;
    format      ascii;
    arch        "LSB;label=32;scalar=64";
    class       volScalarField;
    location    "775";
    object      div(phi);
}
// * * * * * * * * * * * * * * * * * * * * * * * * * * * * * * * * * * * * * //

dimensions      [0 0 -1 0 0 0 0];

internalField   nonuniform List<scalar> 
1340
(
-2.77325e-05
-7.69242e-05
2.18811e-05
-5.55479e-05
-1.02396e-05
-7.21395e-05
-5.46214e-05
-8.64513e-05
-1.83673e-05
-2.49714e-05
4.2009e-05
-8.08805e-06
-6.62573e-06
-4.78536e-05
-3.60678e-05
-6.43411e-05
-1.91408e-05
-1.66279e-05
4.53544e-05
8.18174e-07
-7.90585e-06
-4.00814e-05
-2.47488e-05
-5.0165e-05
-2.16278e-05
-1.5058e-05
4.87566e-05
1.3449e-06
-9.77444e-06
-3.64619e-05
-1.62492e-05
-3.843e-05
-2.11514e-05
-1.22136e-05
5.09328e-05
1.58953e-06
-1.00685e-05
-2.90604e-05
-1.01178e-05
-2.90406e-05
-1.79353e-05
-1.02715e-05
4.91046e-05
-3.23727e-07
-9.62947e-06
-2.17366e-05
-5.72497e-06
-2.13993e-05
-1.45936e-05
-8.45919e-06
4.40311e-05
-1.0121e-06
-8.93355e-06
-1.53963e-05
-2.80935e-06
-1.54978e-05
-1.13458e-05
-8.7133e-06
3.92483e-05
-2.27705e-06
-7.76718e-06
-1.08008e-05
-9.21456e-07
-1.17169e-05
-8.58745e-06
-8.33874e-06
3.38279e-05
-2.71842e-06
-6.22799e-06
-6.77301e-06
1.9736e-07
-8.86001e-06
-6.27531e-06
-8.4467e-06
2.92973e-05
-3.06269e-06
-4.5946e-06
-3.76694e-06
1.05653e-06
-6.88106e-06
-4.63284e-06
-8.28711e-06
2.40716e-05
-3.06317e-06
-3.30134e-06
-1.70247e-06
1.62237e-06
-5.24236e-06
-3.68569e-06
-6.73153e-06
2.00099e-05
-3.1697e-06
-2.28854e-06
-5.04224e-07
1.93047e-06
-4.06443e-06
-2.50872e-06
-4.50124e-06
1.4994e-05
-3.00743e-06
-1.72686e-06
-1.26742e-07
1.63705e-06
-3.14244e-06
-1.75453e-06
-2.44246e-06
1.1155e-05
-2.87703e-06
-1.28349e-06
-2.04318e-07
1.13459e-06
-2.45372e-06
-1.19713e-06
-7.10053e-07
7.5484e-06
-2.57488e-06
-1.61021e-06
-3.27623e-07
4.09432e-07
-1.8304e-06
-5.15928e-08
1.43067e-07
4.58351e-06
-1.87178e-06
-1.4341e-06
-4.6535e-07
-1.0193e-07
-1.3364e-06
1.66675e-07
3.80057e-07
2.56289e-06
-1.16948e-06
2.89234e-06
-9.48768e-07
-4.494e-07
-3.84853e-07
-9.22457e-07
-1.61893e-06
6.07574e-08
3.33683e-07
1.35106e-06
-6.51491e-07
1.06274e-06
-6.31003e-07
-4.0104e-07
-4.51114e-07
-6.28664e-07
-1.27499e-06
4.26791e-08
2.55186e-07
6.06994e-07
-2.46625e-07
9.30006e-07
-3.93562e-07
-3.24552e-07
-3.93724e-07
-4.245e-07
-1.07455e-06
4.99653e-08
1.33654e-07
2.92627e-07
-7.5567e-08
8.18794e-07
-2.3554e-07
-2.34137e-07
-2.92938e-07
-2.88616e-07
-8.92687e-07
3.79173e-08
6.70153e-08
1.50701e-07
-1.06653e-08
4.1584e-07
-1.59111e-07
-1.5397e-07
-2.00492e-07
-1.96955e-07
-3.45311e-07
6.51985e-08
2.81076e-08
8.14966e-08
3.91033e-09
3.00572e-07
-8.94259e-08
-8.8538e-08
-1.38793e-07
-1.29637e-07
-1.9499e-07
2.55033e-08
-6.60254e-09
3.284e-08
3.18196e-09
2.90744e-07
2.24654e-07
-7.20483e-08
-6.4581e-08
-9.16661e-08
-9.67204e-08
-5.75649e-08
-2.22319e-07
-1.44807e-08
-3.25256e-08
-3.76184e-09
1.23811e-09
3.90388e-08
1.34006e-07
-6.91565e-08
-5.09402e-08
-6.61376e-08
-7.04575e-08
-5.96284e-08
-1.80898e-07
-3.28036e-08
-4.85617e-08
-1.69399e-08
-9.84869e-09
-1.68008e-08
7.67741e-08
-6.18272e-08
-3.6008e-08
-4.98022e-08
-5.11068e-08
8.77245e-09
-1.22831e-07
-2.67097e-08
-4.88262e-08
-2.87418e-08
-1.15339e-08
1.0222e-08
5.24271e-08
-4.58624e-08
-3.03904e-08
-3.7155e-08
-4.35127e-08
1.23206e-08
-6.4295e-08
-1.91297e-08
-4.1526e-08
-3.77672e-08
-1.37883e-08
-2.05163e-08
3.43446e-08
5.52837e-09
-1.52345e-08
-2.20315e-08
-4.16293e-08
3.49797e-08
5.70286e-08
4.62065e-08
1.26225e-09
-8.45853e-09
-4.53926e-08
-2.38034e-08
2.54131e-08
4.63365e-08
1.13742e-08
3.18533e-08
-1.0692e-08
-1.45041e-08
-5.20348e-08
-4.0283e-08
-2.37049e-09
3.98836e-08
-5.01865e-09
-1.65992e-09
-3.87121e-08
-2.48573e-08
5.18286e-09
1.31037e-08
-1.77296e-08
1.52079e-08
-3.47148e-09
8.97337e-09
-3.81302e-08
-3.67867e-08
-1.99531e-08
1.75693e-08
3.42366e-09
3.02891e-08
-1.57637e-08
5.25329e-09
-4.35552e-09
2.18826e-09
-1.15207e-08
2.74322e-08
-1.02688e-08
2.50537e-08
-2.61151e-08
-1.56758e-08
-2.10633e-08
2.94064e-09
-2.25364e-08
1.42634e-08
-2.3544e-08
-7.73539e-09
-2.08853e-08
-1.63767e-08
-1.38761e-08
-2.63962e-08
2.64275e-09
-2.57094e-08
-6.41309e-09
-1.82995e-08
-2.2448e-08
-1.42001e-08
-1.704e-08
-6.78799e-09
-1.99527e-08
-1.09117e-09
-1.75236e-08
-2.05002e-09
-9.55676e-09
-1.02632e-08
-1.11445e-08
-1.2569e-08
-8.44643e-09
-1.09642e-08
-9.32026e-09
-1.52512e-08
-2.2326e-08
-5.32605e-09
-8.29629e-09
-9.72916e-09
-8.70854e-09
-9.61345e-09
-1.01712e-08
-1.32967e-08
1.55062e-08
-2.01668e-09
-2.99181e-09
-6.01005e-09
-4.65202e-09
-1.58956e-08
-7.65154e-09
-1.06925e-08
-6.92448e-09
1.83157e-09
-4.46274e-09
-1.11688e-09
-2.34879e-08
-5.9613e-09
-1.49816e-08
-1.19937e-08
1.23718e-08
-4.62972e-09
2.17282e-10
-2.55925e-08
1.66005e-09
-2.71772e-08
-3.64611e-09
-8.17166e-09
6.75794e-09
-3.29966e-09
-1.11314e-09
-1.26983e-08
2.61568e-09
-1.78554e-08
2.94616e-09
-7.94581e-09
1.70105e-09
-1.32803e-09
-1.68342e-09
-5.48452e-09
-7.16707e-10
-8.01825e-09
1.87786e-09
-5.27227e-09
-1.10927e-09
-9.66412e-09
-4.30778e-09
-4.1444e-09
-3.79996e-09
-5.03719e-09
-4.07227e-09
-5.12685e-09
-4.64872e-09
-7.09939e-09
-6.28399e-09
-1.01864e-09
-1.67831e-09
-4.08258e-09
-5.21754e-09
-5.24235e-09
-6.14845e-09
-6.28254e-09
-6.68033e-09
-5.38725e-09
-5.23463e-10
-1.69268e-09
-1.31716e-09
-3.01106e-09
-4.46912e-09
-4.61558e-09
-3.9581e-09
-4.88584e-09
-3.29021e-09
3.97109e-09
1.20463e-09
3.16248e-10
-1.03172e-09
-6.71203e-10
-1.7016e-09
-1.76774e-09
-1.47489e-09
-5.5536e-10
7.6339e-10
4.13548e-09
3.52571e-09
2.36726e-09
1.58904e-09
1.24643e-09
2.16191e-09
4.27148e-10
1.71005e-09
2.1241e-08
6.63312e-09
5.64512e-09
4.55746e-09
4.82956e-09
4.30903e-09
3.80808e-09
3.10228e-09
3.97892e-09
1.27832e-08
6.07178e-09
6.29664e-09
5.44308e-09
6.19107e-09
4.77134e-09
6.2056e-09
3.38331e-09
3.5711e-09
1.1533e-08
5.59166e-09
5.82752e-09
5.74678e-09
6.12057e-09
6.63447e-09
7.18897e-09
6.3309e-09
5.39488e-09
6.00141e-09
9.68423e-09
6.37724e-09
5.81599e-09
6.5424e-09
6.93578e-09
6.92146e-09
6.82609e-09
5.67867e-09
4.61493e-09
4.53333e-09
1.09377e-08
4.75157e-09
5.09024e-09
4.39196e-09
4.57907e-09
3.96788e-09
3.75769e-09
2.7608e-09
2.59827e-09
2.07263e-09
-0.000155374
7.95922e-05
-3.71392e-05
4.51679e-05
-3.45883e-05
1.85737e-05
-2.51506e-05
1.85035e-06
-2.03032e-05
-8.73616e-06
-1.44751e-05
-1.21103e-05
-8.34602e-06
-1.12129e-05
-4.38805e-06
-9.20894e-06
-1.91288e-06
-7.1311e-06
-1.33704e-06
-4.96845e-06
-7.93166e-07
-3.05892e-06
-8.46343e-07
-1.6528e-06
-1.15758e-06
-8.20387e-07
-1.35045e-06
-5.20396e-07
-1.40559e-06
-5.59087e-07
-1.37001e-06
-5.68953e-07
-1.07955e-06
-5.64615e-07
-6.77718e-07
-4.84429e-07
-4.18411e-07
-3.77837e-07
-2.26226e-07
-2.76703e-07
-1.27288e-07
-1.88416e-07
-7.91564e-08
-1.28606e-07
-5.64717e-08
-7.51892e-08
-5.07485e-08
-4.86578e-08
-3.25128e-08
-3.69994e-08
-2.08985e-08
-3.00867e-08
1.18058e-08
-2.84379e-08
-1.70136e-09
-4.19894e-08
-3.60772e-08
-3.74434e-08
-4.08327e-08
9.87307e-09
-2.64172e-08
-1.49633e-08
-3.36387e-08
-1.45038e-08
-1.47736e-08
-9.41925e-09
4.43962e-10
-5.93853e-09
-1.40986e-08
-1.99507e-09
-1.30592e-08
-1.11667e-08
-9.69255e-09
-1.72879e-09
-2.35803e-09
2.68922e-09
6.96537e-09
8.86451e-09
9.8332e-09
5.93023e-09
-6.83382e-05
5.03576e-05
-1.93707e-05
3.81595e-05
-2.16225e-05
2.58711e-05
-1.77613e-05
1.53358e-05
-1.61921e-05
7.61498e-06
-1.27752e-05
2.81109e-06
-9.25332e-06
1.90165e-07
-5.15727e-06
-8.20437e-07
-2.63907e-06
-1.03149e-06
-8.99622e-07
-9.27316e-07
-1.42627e-07
-7.14715e-07
-1.08924e-08
-4.74134e-07
3.66573e-08
-2.78806e-07
-1.69706e-07
-1.40496e-07
-3.36588e-07
-2.68409e-08
-3.02842e-07
-7.20374e-08
-2.63964e-07
-1.38091e-07
-2.49173e-07
-2.09884e-07
-1.80979e-07
-2.37955e-07
-1.49386e-07
-2.1369e-07
-1.13447e-07
-1.64294e-07
-8.58542e-08
-1.05385e-07
-6.70493e-08
-7.32297e-08
-4.6334e-08
-4.42538e-08
-4.00614e-08
-2.38731e-08
-2.69871e-08
-2.92967e-09
-1.56051e-08
1.92649e-08
-1.78223e-08
6.2025e-09
-2.6257e-08
-1.63733e-08
-2.99013e-09
-4.33434e-08
-1.05606e-08
-2.2942e-08
-1.13622e-09
-2.35646e-08
-1.78271e-08
-1.24226e-08
-1.50889e-08
-5.35596e-09
3.16263e-09
-1.7488e-08
-7.30771e-09
-6.23627e-09
-8.67648e-11
-9.86231e-10
1.50215e-09
7.9593e-09
1.93331e-09
1.26795e-08
4.95085e-09
-1.8561e-05
3.19043e-05
-3.14416e-06
3.01169e-05
-5.15015e-06
2.63924e-05
-5.25286e-06
2.13345e-05
-6.02128e-06
1.72863e-05
-5.73135e-06
1.38019e-05
-6.29206e-06
9.17818e-06
-5.27019e-06
5.24247e-06
-4.27695e-06
2.5272e-06
-3.04021e-06
1.16093e-06
-2.09234e-06
7.0543e-07
-1.0906e-06
6.84889e-07
-6.47331e-07
7.22686e-07
-3.21342e-07
6.34707e-07
-1.55619e-07
3.54459e-07
-2.10718e-07
1.19987e-07
-2.17064e-07
-6.07874e-08
-1.59544e-07
-1.48039e-07
-1.49203e-07
-1.70835e-07
-1.09704e-07
-1.60271e-07
-8.53605e-08
-1.3079e-07
-6.59711e-08
-1.04542e-07
-5.33499e-08
-6.50863e-08
-4.90558e-08
-4.08757e-08
-3.42012e-08
-2.5869e-08
-2.79977e-08
-1.71562e-08
1.28825e-09
-1.12685e-08
2.27972e-08
-8.00055e-09
1.66307e-08
-1.1612e-08
-2.59424e-08
7.10254e-09
-2.46182e-08
-1.14558e-08
-3.26242e-08
-1.18555e-08
-1.20046e-08
-6.82595e-09
5.64659e-09
-3.25442e-09
-1.47693e-08
-5.27053e-09
-1.17636e-08
-6.90774e-09
-1.35348e-08
1.16432e-08
-2.18278e-09
1.06422e-09
9.56796e-09
1.52404e-09
1.49373e-05
3.95374e-05
5.99851e-06
2.78255e-05
-1.31039e-06
2.1007e-05
-4.68763e-06
1.5638e-05
-5.44308e-06
1.19758e-05
-6.24445e-06
9.62859e-06
-6.1286e-06
7.43573e-06
-5.96519e-06
5.09765e-06
-4.73094e-06
3.31774e-06
-3.92302e-06
1.99103e-06
-2.74459e-06
1.06194e-06
-2.13965e-06
4.10824e-07
-1.60804e-06
4.22479e-08
-1.19179e-06
-1.45379e-07
-9.82954e-07
-1.34056e-07
-6.25522e-07
-1.11134e-07
-3.58544e-07
-9.87043e-08
-2.25738e-07
-1.20544e-07
-1.18365e-07
-1.43032e-07
-8.86448e-08
-1.42398e-07
-6.92729e-08
-1.22979e-07
-5.88283e-08
-8.48568e-08
-4.81406e-08
-6.43096e-08
-3.45267e-08
-4.11781e-08
-3.34232e-08
-2.61594e-08
-2.61492e-08
-1.76749e-08
-2.09309e-08
1.11134e-09
-5.63236e-09
2.0133e-08
-4.71415e-09
1.37856e-08
1.20257e-08
-3.36623e-08
-1.12502e-08
-2.21252e-08
2.07323e-09
-1.92192e-08
-1.01449e-08
-9.21364e-09
-1.55997e-08
-3.46821e-09
-1.40332e-09
-1.02139e-08
-5.69951e-09
-6.58395e-09
-1.85852e-09
-3.30204e-10
5.91635e-09
1.0136e-08
-4.9101e-09
-2.505e-05
1.29832e-05
-4.96718e-06
1.18631e-05
-4.81983e-06
1.1268e-05
-4.64927e-06
1.00594e-05
-4.13447e-06
8.54284e-06
-4.0466e-06
7.48108e-06
-3.91402e-06
6.49257e-06
-4.05192e-06
4.9758e-06
-3.56907e-06
3.50832e-06
-3.16145e-06
2.28286e-06
-2.52126e-06
1.45189e-06
-2.11773e-06
9.60943e-07
-1.45843e-06
7.19247e-07
-1.10888e-06
5.418e-07
-6.56618e-07
3.21549e-07
-4.67624e-07
1.13172e-07
-3.65123e-07
-5.21918e-08
-2.50726e-07
-1.27182e-07
-1.96771e-07
-1.37982e-07
-1.22421e-07
-1.21171e-07
-7.60943e-08
-9.66435e-08
-4.66972e-08
-8.37736e-08
-3.54269e-08
-5.65667e-08
-3.43336e-08
-3.90656e-08
-2.54761e-08
-2.54514e-08
-2.59915e-08
-2.04827e-08
-1.95507e-08
-1.50395e-08
-1.93958e-09
-6.91631e-09
2.39307e-08
1.62309e-09
-1.81067e-08
7.62036e-09
-1.60977e-08
-4.76039e-10
-2.9361e-08
-4.45861e-09
-1.16964e-08
-1.794e-08
3.88115e-09
-8.58128e-09
2.04293e-09
-5.92186e-09
-7.21584e-09
-9.93393e-09
-9.00995e-09
1.71215e-08
-6.57905e-09
-5.46063e-09
-2.08575e-05
9.19572e-06
-5.31095e-06
6.92547e-06
-5.10986e-06
6.00596e-06
-4.71337e-06
5.28757e-06
-4.26158e-06
4.49246e-06
-3.66702e-06
3.90773e-06
-3.47434e-06
3.52654e-06
-3.15306e-06
3.11616e-06
-2.91152e-06
2.50332e-06
-2.38346e-06
1.92285e-06
-2.13352e-06
1.33929e-06
-1.67446e-06
7.92961e-07
-1.5327e-06
2.86401e-07
-1.32099e-06
-4.03482e-08
-1.16548e-06
-1.58993e-07
-8.86582e-07
-1.63194e-07
-5.75443e-07
-1.08559e-07
-3.57468e-07
-8.21849e-08
-1.79813e-07
-8.34969e-08
-1.05615e-07
-8.94461e-08
-6.53434e-08
-8.76302e-08
-4.85969e-08
-6.47793e-08
-3.49932e-08
-5.35865e-08
-2.2783e-08
-3.7181e-08
-2.34492e-08
-2.64128e-08
-1.99904e-08
-1.82526e-08
-2.39606e-08
-1.67657e-08
-1.76541e-08
1.14241e-09
-1.09001e-08
9.42745e-09
1.96208e-08
-1.10548e-08
4.13784e-09
-1.91391e-08
9.35657e-09
-1.52584e-08
-6.74517e-09
4.69622e-09
-2.26194e-08
3.29208e-09
-8.50955e-09
2.64195e-09
-2.36291e-09
4.04298e-10
-2.83573e-09
-1.00291e-08
-1.50974e-05
6.42611e-06
-3.74261e-06
5.11218e-06
-3.36972e-06
4.64133e-06
-3.08244e-06
4.31203e-06
-2.8328e-06
3.89469e-06
-2.4985e-06
3.40331e-06
-2.33824e-06
3.06699e-06
-2.22953e-06
2.75896e-06
-2.19863e-06
2.26115e-06
-1.96654e-06
1.72198e-06
-1.77812e-06
1.21107e-06
-1.50431e-06
8.12657e-07
-1.37158e-06
5.60002e-07
-1.053e-06
4.09253e-07
-7.98747e-07
2.5038e-07
-5.9577e-07
1.34291e-07
-4.40755e-07
2.41032e-08
-2.98925e-07
-3.8188e-08
-2.25007e-07
-5.83721e-08
-1.38429e-07
-5.73421e-08
-8.10162e-08
-4.99773e-08
-4.12878e-08
-5.44634e-08
-2.6194e-08
-4.32344e-08
-2.40754e-08
-3.46005e-08
-1.72528e-08
-2.36968e-08
-1.95882e-08
-2.0837e-08
-1.93128e-08
-2.07634e-08
-1.58199e-08
-1.77176e-08
1.51389e-08
1.29668e-08
6.90947e-09
2.70358e-08
5.55733e-09
2.46002e-08
-1.78266e-08
2.22954e-09
3.31141e-09
-2.07572e-08
7.61309e-09
-1.32819e-08
9.35426e-09
-1.0519e-08
-6.61549e-09
-1.70432e-08
-1.13357e-05
6.82506e-06
-2.3049e-06
4.23679e-06
-2.89484e-06
3.25567e-06
-2.91847e-06
2.77324e-06
-2.77993e-06
2.43106e-06
-2.54722e-06
2.0692e-06
-2.27361e-06
1.78298e-06
-2.16285e-06
1.59967e-06
-2.00298e-06
1.45111e-06
-1.84069e-06
1.2319e-06
-1.52294e-06
1.01039e-06
-1.35661e-06
7.499e-07
-1.07549e-06
4.51058e-07
-1.00164e-06
1.69888e-07
-9.47167e-07
4.40234e-08
-7.60098e-07
2.60705e-09
-5.55014e-07
3.14266e-08
-3.62055e-07
5.42606e-08
-1.80409e-07
4.17632e-08
-9.70197e-08
7.88453e-09
-5.50289e-08
-2.45954e-08
-4.17902e-08
-3.05764e-08
-2.9183e-08
-3.59986e-08
-1.73099e-08
-3.04638e-08
-1.70642e-08
-2.64819e-08
-1.55598e-08
-2.00388e-08
-2.18234e-08
-1.40735e-08
-2.04667e-08
-1.13611e-09
1.37893e-09
1.4829e-08
3.92937e-08
1.66253e-08
3.97923e-08
-1.13811e-08
1.43262e-08
-5.92666e-09
-9.19345e-09
1.92571e-08
-3.47274e-08
1.78572e-09
-1.54395e-08
-1.29693e-05
4.27135e-06
-2.98451e-06
3.22582e-06
-2.74394e-06
2.73483e-06
-2.42491e-06
2.46367e-06
-2.15856e-06
2.26904e-06
-1.92469e-06
2.0413e-06
-1.69685e-06
1.77564e-06
-1.54379e-06
1.59236e-06
-1.4563e-06
1.45721e-06
-1.38008e-06
1.26624e-06
-1.21472e-06
1.04692e-06
-1.07263e-06
8.17866e-07
-9.02671e-07
6.39203e-07
-8.50927e-07
5.06982e-07
-5.98899e-07
3.77042e-07
-5.33191e-07
2.66399e-07
-4.10333e-07
1.76376e-07
-2.79849e-07
1.04868e-07
-2.13668e-07
5.7233e-08
-1.38542e-07
2.82156e-08
-8.66487e-08
9.43492e-09
-4.5214e-08
-1.58194e-08
-2.68083e-08
-2.36654e-08
-2.18314e-08
-2.73015e-08
-1.46477e-08
-2.31724e-08
-1.58134e-08
-2.23323e-08
-1.33569e-08
-2.07926e-08
-1.68687e-08
-2.60988e-09
-5.13486e-09
2.91781e-08
2.95542e-09
4.3267e-08
-1.55077e-08
2.81199e-08
-3.47337e-08
2.76874e-09
1.32016e-08
-3.39213e-08
-7.3007e-06
2.88267e-06
-2.21832e-06
2.2899e-06
-1.99945e-06
1.9213e-06
-1.82623e-06
1.64078e-06
-1.68671e-06
1.47814e-06
-1.56904e-06
1.3736e-06
-1.39741e-06
1.26879e-06
-1.22273e-06
1.19285e-06
-1.11493e-06
1.16568e-06
-1.00798e-06
1.13256e-06
-9.32139e-07
1.02802e-06
-7.75566e-07
8.96804e-07
-7.02218e-07
7.01573e-07
-5.623e-07
4.8388e-07
-6.20941e-07
3.19804e-07
-5.36327e-07
2.36408e-07
-4.20354e-07
2.02549e-07
-3.12608e-07
1.85388e-07
-1.71649e-07
1.52034e-07
-9.68175e-08
9.51422e-08
-5.83935e-08
3.50442e-08
-4.80818e-08
3.90762e-09
-3.53502e-08
-1.6264e-08
-2.04811e-08
-1.99977e-08
-1.7767e-08
-2.28017e-08
-1.6159e-08
-1.8845e-08
-2.14987e-08
-2.18639e-08
-5.79314e-09
-2.66324e-08
1.68902e-08
-2.93194e-08
2.84642e-08
-4.01914e-08
4.11383e-08
-4.61324e-08
-7.57043e-06
1.37837e-06
-2.44876e-06
1.32768e-06
-2.03692e-06
1.29863e-06
-1.73017e-06
1.18556e-06
-1.4833e-06
1.13175e-06
-1.32026e-06
1.11122e-06
-1.14833e-06
1.09034e-06
-1.0024e-06
1.0419e-06
-8.74308e-07
1.02345e-06
-7.94957e-07
1.0112e-06
-7.31717e-07
9.42147e-07
-6.41604e-07
8.2714e-07
-5.71388e-07
6.9763e-07
-4.9414e-07
5.75418e-07
-4.56297e-07
4.43575e-07
-3.82052e-07
3.32759e-07
-3.686e-07
2.38775e-07
-2.81107e-07
1.70569e-07
-2.20656e-07
1.11785e-07
-1.61987e-07
6.47613e-08
-1.1922e-07
3.59678e-08
-7.32458e-08
7.2777e-09
-4.3118e-08
-4.89749e-09
-2.7473e-08
-1.77817e-08
-1.81397e-08
-2.3576e-08
-1.27056e-08
-2.0628e-08
-1.8178e-08
-1.37342e-08
-2.86175e-08
7.37083e-09
-4.56147e-08
-2.28877e-06
2.98656e-06
-2.44935e-08
2.03774e-06
-6.7377e-07
1.55818e-06
-8.39079e-07
1.24591e-06
-8.70116e-07
1.0474e-06
-8.34702e-07
9.3765e-07
-8.03698e-07
8.63639e-07
-7.37908e-07
7.90835e-07
-6.67243e-07
7.2947e-07
-6.15853e-07
6.92548e-07
-5.72437e-07
6.55618e-07
-5.32535e-07
5.84935e-07
-4.68769e-07
5.05317e-07
-4.18193e-07
4.15398e-07
-3.60781e-07
3.43699e-07
-3.53458e-07
2.9203e-07
-2.76973e-07
2.59827e-07
-2.26323e-07
2.21164e-07
-1.64248e-07
1.58587e-07
-1.11239e-07
1.14758e-07
-8.50602e-08
5.24002e-08
-6.76265e-08
2.06606e-08
-4.37704e-08
1.36358e-09
-2.59271e-08
-1.0751e-08
-2.21035e-08
-1.40232e-09
-5.46551e-06
1.31307e-06
-1.76786e-06
9.75973e-07
-1.86658e-06
8.9473e-07
-1.70718e-06
8.26677e-07
-1.496e-06
7.22966e-07
-1.30131e-06
6.50067e-07
-1.17429e-06
5.99222e-07
-1.06392e-06
5.63545e-07
-9.5361e-07
5.17672e-07
-8.58149e-07
4.84513e-07
-7.79779e-07
4.62302e-07
-7.1248e-07
4.36194e-07
-6.09278e-07
3.95229e-07
-5.26419e-07
3.51621e-07
-4.37398e-07
3.05164e-07
-3.75388e-07
2.61945e-07
-2.97847e-07
2.05479e-07
-2.45725e-07
1.64029e-07
-2.88288e-07
3.49445e-07
)
;

boundaryField
{
    inlet
    {
        type            extrapolatedCalculated;
        value           nonuniform List<scalar> 
11
(
1.09377e-08
4.75157e-09
5.09024e-09
4.39196e-09
4.57907e-09
3.96788e-09
3.75769e-09
2.7608e-09
2.59827e-09
2.07263e-09
5.93023e-09
)
;
    }
    outlet
    {
        type            extrapolatedCalculated;
        value           nonuniform List<scalar> 0();
    }
    walls
    {
        type            extrapolatedCalculated;
        value           nonuniform List<scalar> 4(-2.77325e-05 -7.69242e-05 2.18811e-05 -5.55479e-05);
    }
    frontAndBack
    {
        type            empty;
    }
    procBoundary6to2
    {
        type            processor;
        value           nonuniform List<scalar> 
13
(
0.000137386
9.17141e-05
5.15818e-05
8.18644e-05
8.7782e-06
2.30156e-05
1.48288e-05
1.26804e-05
3.58742e-06
6.52735e-06
2.61618e-06
6.08175e-06
1.00922e-06
)
;
    }
    procBoundary6to3
    {
        type            processor;
        value           uniform 4.78789e-06;
    }
    procBoundary6to5
    {
        type            processor;
        value           nonuniform List<scalar> 
86
(
9.09022e-06
1.24524e-06
7.28078e-06
1.19498e-09
7.6391e-06
-2.69856e-07
8.83554e-06
-5.06024e-07
8.38224e-06
-8.34013e-07
7.7868e-06
-1.17867e-06
7.02193e-06
-1.26765e-06
6.47105e-06
-1.35891e-06
6.94107e-06
-1.30331e-06
6.7537e-06
-1.13686e-06
6.52293e-06
-9.5197e-07
5.72272e-06
-1.02673e-06
4.1929e-06
-1.51871e-06
2.87588e-06
-2.08562e-06
2.90642e-07
9.98708e-08
-1.14477e-06
2.20114e-06
-2.67296e-06
-2.67296e-06
-1.33685e-06
1.01449e-06
-1.0195e-06
8.42582e-07
-8.64194e-07
7.24569e-07
-8.02701e-07
3.64001e-07
-4.01773e-07
1.11522e-07
1.22371e-07
-1.10465e-07
-1.10465e-07
-2.48691e-07
1.95125e-07
-1.65946e-07
1.1983e-07
-1.10704e-07
8.701e-08
-2.30093e-08
4.94739e-08
-9.36376e-08
-9.36376e-08
-1.06785e-07
-2.21604e-08
3.02917e-08
-5.65584e-08
1.74467e-08
-1.79971e-08
-1.07183e-08
-1.07183e-08
-1.4666e-08
-5.59793e-09
-2.31104e-08
1.30757e-08
-1.5639e-08
1.44651e-08
3.29346e-10
3.29346e-10
1.76962e-09
-4.27097e-09
3.87483e-10
-2.65478e-09
2.52434e-09
-3.96148e-09
1.10335e-08
5.19175e-09
8.89238e-09
8.89238e-09
6.53314e-09
6.03187e-09
5.49594e-09
)
;
    }
    procBoundary6to7
    {
        type            processor;
        value           nonuniform List<scalar> 
91
(
1.26985e-08
1.26985e-08
1.93897e-08
1.93897e-08
2.07067e-08
2.07067e-08
1.40306e-08
8.79579e-09
1.40306e-08
1.49187e-08
-1.07933e-08
8.79579e-09
2.02868e-08
2.32903e-09
-8.60197e-09
-1.07933e-08
2.71997e-09
7.00129e-09
-2.02124e-08
2.32903e-09
7.84096e-09
3.24602e-08
-1.17507e-08
-1.3768e-08
7.00129e-09
1.7935e-08
1.86248e-08
-5.08339e-08
4.92438e-08
-4.32777e-08
3.24602e-08
2.98133e-08
-2.5053e-08
-2.00955e-08
-2.2054e-08
-3.15618e-08
-1.42044e-08
-3.23487e-08
1.86248e-08
-1.26202e-08
-3.00776e-07
9.56118e-08
-1.22615e-07
5.16785e-08
-9.39428e-08
3.34252e-08
-5.5853e-08
1.94958e-08
-4.71403e-08
1.18005e-09
-4.07897e-08
-2.5053e-08
-6.48135e-09
-4.18983e-07
1.29115e-06
4.63734e-07
8.89408e-07
2.54916e-07
7.21485e-07
1.38403e-07
5.88431e-07
2.29374e-08
4.8634e-07
-1.73181e-08
4.41333e-07
-5.91887e-08
4.18568e-07
-6.58335e-08
4.0376e-07
-9.45354e-08
3.87127e-07
-1.0111e-07
3.90161e-07
-1.2385e-07
3.96357e-07
-1.43907e-07
3.84498e-07
-1.5861e-07
3.50912e-07
-1.77702e-07
3.05204e-07
-1.71879e-07
2.39225e-07
-1.96875e-07
1.7055e-07
-2.07244e-07
1.24168e-07
-1.93138e-07
8.31822e-08
-3.00776e-07
-1.52879e-07
)
;
    }
}


// ************************************************************************* //
