/*--------------------------------*- C++ -*----------------------------------*\
| =========                 |                                                 |
| \\      /  F ield         | OpenFOAM: The Open Source CFD Toolbox           |
|  \\    /   O peration     | Version:  2306                                  |
|   \\  /    A nd           | Website:  www.openfoam.com                      |
|    \\/     M anipulation  |                                                 |
\*---------------------------------------------------------------------------*/
FoamFile
{
    version     2.0;
    format      ascii;
    arch        "LSB;label=32;scalar=64";
    class       volScalarField;
    location    "775";
    object      turbulenceProperties:epsilon;
}
// * * * * * * * * * * * * * * * * * * * * * * * * * * * * * * * * * * * * * //

dimensions      [0 2 -3 0 0 0 0];

internalField   nonuniform List<scalar> 
1340
(
334.405
232.447
147.194
25.8523
26.5018
21.7496
17.6581
22.3833
31.9671
23.9947
16.952
20.4201
32.3921
26.598
19.7613
21.4014
16.8985
21.007
19.7603
21.7927
1.65738
7.51538
13.9852
19.8544
0.0333323
0.415817
4.9
14.1003
0.00382036
0.0288759
0.465006
6.3854
0.000189807
0.0103597
0.0260788
1.52222
0
0
0.0112427
0.187962
0
0
0.000407947
0.0269722
2.65709e-09
0
0.000102508
0.00825353
1.10989e-06
5.2306e-13
3.04479e-05
0.00274797
4.90433e-06
1.43889e-12
5.19443e-07
0.000683664
4.1967e-06
1.08115e-06
3.65259e-11
3.7353e-05
2.76944e-06
3.90015e-06
5.13274e-12
2.40567e-07
2.12078e-06
4.56698e-06
4.62882e-11
6.85571e-18
2.00645e-06
3.36178e-06
4.7419e-07
7.58551e-11
2.03218e-06
2.28447e-06
2.01494e-06
2.03527e-08
2.00308e-06
1.78776e-06
2.30435e-06
4.95339e-07
1.89232e-06
1.60576e-06
1.87787e-06
1.24798e-06
1.74228e-06
1.51426e-06
1.48859e-06
1.45719e-06
1.5885e-06
1.41845e-06
1.25591e-06
1.31516e-06
1.44401e-06
1.30299e-06
1.11222e-06
1.11349e-06
1.30976e-06
1.17963e-06
1.00078e-06
9.44058e-07
1.18339e-06
1.05903e-06
8.98452e-07
8.10063e-07
1.06392e-06
9.45971e-07
8.01061e-07
6.9982e-07
9.51346e-07
8.41219e-07
7.09802e-07
6.05785e-07
8.45785e-07
7.44468e-07
6.25629e-07
5.24145e-07
7.47774e-07
6.55654e-07
5.49051e-07
4.53149e-07
6.57518e-07
5.74597e-07
4.7969e-07
3.91348e-07
5.74873e-07
5.01133e-07
4.17435e-07
3.37539e-07
4.99873e-07
4.34855e-07
3.61734e-07
2.90763e-07
4.8646e-07
4.32298e-07
3.7559e-07
3.12163e-07
2.50035e-07
4.18012e-07
3.7184e-07
3.22908e-07
2.68377e-07
2.14614e-07
3.57173e-07
3.18189e-07
2.76338e-07
2.29871e-07
1.83853e-07
3.03534e-07
2.70888e-07
2.35433e-07
1.96169e-07
1.57158e-07
2.56612e-07
2.29491e-07
1.99729e-07
1.66818e-07
1.34036e-07
2.15854e-07
1.9351e-07
1.68748e-07
1.41389e-07
1.14048e-07
1.80707e-07
1.62437e-07
1.42001e-07
1.19444e-07
9.68077e-08
1.50607e-07
1.35778e-07
1.19047e-07
1.00585e-07
8.19695e-08
1.24995e-07
1.13041e-07
9.94475e-08
8.44491e-08
6.92315e-08
1.03336e-07
9.37606e-08
8.27935e-08
7.06918e-08
5.83271e-08
8.51244e-08
7.75028e-08
6.87094e-08
5.9012e-08
4.90131e-08
6.9893e-08
6.38615e-08
5.68545e-08
4.91294e-08
4.10846e-08
6.12331e-08
5.72196e-08
5.24678e-08
4.69159e-08
4.07961e-08
3.43543e-08
4.98561e-08
4.67227e-08
4.29966e-08
3.86184e-08
3.37948e-08
2.86574e-08
4.05029e-08
3.80631e-08
3.51533e-08
3.17163e-08
2.79323e-08
2.385e-08
3.2842e-08
3.09477e-08
2.86827e-08
2.59943e-08
2.30375e-08
1.98051e-08
2.65882e-08
2.51199e-08
2.33619e-08
2.12666e-08
1.89636e-08
1.64125e-08
2.14982e-08
2.03621e-08
1.9e-08
1.73708e-08
1.55825e-08
1.35747e-08
1.73652e-08
1.64871e-08
1.5434e-08
1.417e-08
1.27842e-08
1.12075e-08
1.40173e-08
1.33387e-08
1.2525e-08
1.15458e-08
1.04738e-08
9.23842e-09
1.13098e-08
1.07853e-08
1.0157e-08
9.39928e-09
8.57074e-09
7.60454e-09
9.45355e-09
9.12344e-09
8.71794e-09
8.2327e-09
7.64656e-09
7.0065e-09
6.25199e-09
7.61648e-09
7.35994e-09
7.04597e-09
6.67111e-09
6.21774e-09
5.72319e-09
5.1347e-09
6.1387e-09
5.93893e-09
5.69545e-09
5.40541e-09
5.0545e-09
4.67213e-09
4.21352e-09
4.95076e-09
4.79473e-09
4.60544e-09
4.38062e-09
4.10859e-09
3.81257e-09
3.45544e-09
3.99609e-09
3.87381e-09
3.72621e-09
3.5515e-09
3.34033e-09
3.11066e-09
2.83253e-09
3.22833e-09
3.13229e-09
3.01694e-09
2.88089e-09
2.7166e-09
2.53802e-09
2.32144e-09
2.60936e-09
2.53399e-09
2.44387e-09
2.33789e-09
2.21004e-09
2.071e-09
1.90245e-09
2.15751e-09
2.10848e-09
2.04954e-09
1.97934e-09
1.897e-09
1.79767e-09
1.68949e-09
1.55869e-09
1.74114e-09
1.70253e-09
1.65645e-09
1.60185e-09
1.538e-09
1.46107e-09
1.37709e-09
1.27609e-09
1.40484e-09
1.37414e-09
1.33786e-09
1.29519e-09
1.24556e-09
1.18596e-09
1.12081e-09
1.04307e-09
1.13491e-09
1.11007e-09
1.08108e-09
1.04735e-09
1.00844e-09
9.61984e-10
9.11286e-10
8.51529e-10
9.17856e-10
8.97343e-10
8.73714e-10
8.46596e-10
8.15612e-10
7.7891e-10
7.38997e-10
6.92678e-10
7.49909e-10
7.33042e-10
7.13726e-10
6.9171e-10
6.66714e-10
6.37115e-10
6.05021e-10
5.68112e-10
6.28134e-10
6.13951e-10
5.97875e-10
5.79686e-10
5.59055e-10
5.34533e-10
5.07976e-10
4.79122e-10
5.42714e-10
5.32002e-10
5.18977e-10
5.04633e-10
4.88871e-10
4.71233e-10
4.50547e-10
4.27851e-10
4.04275e-10
4.6313e-10
4.53375e-10
4.41513e-10
4.28518e-10
4.14403e-10
3.98784e-10
3.80838e-10
3.61641e-10
3.43553e-10
3.86499e-10
3.77329e-10
3.66514e-10
3.54812e-10
3.42279e-10
3.28562e-10
3.12819e-10
2.95224e-10
2.77309e-10
3.29721e-10
3.22014e-10
3.12795e-10
3.0263e-10
2.91605e-10
2.7962e-10
2.66352e-10
2.53077e-10
2.43125e-10
2.57726e-10
2.5013e-10
2.41675e-10
2.32771e-10
2.2344e-10
2.13284e-10
2.01375e-10
1.86905e-10
1.71309e-10
2.36578e-10
2.30537e-10
2.23334e-10
2.15309e-10
2.06713e-10
1.97806e-10
1.89085e-10
1.827e-10
1.82287e-10
1.54789e-10
1.49186e-10
1.43188e-10
1.36866e-10
1.30145e-10
1.22498e-10
1.12612e-10
9.97735e-11
8.53078e-11
2.03878e-10
1.99943e-10
1.94926e-10
1.88854e-10
1.82409e-10
1.76534e-10
1.73869e-10
1.78633e-10
1.91025e-10
1.23618e-10
1.23235e-10
1.2147e-10
1.18332e-10
1.14048e-10
1.08356e-10
1.00809e-10
9.65871e-11
8.90908e-11
3.68954e-10
3.52241e-10
3.52565e-10
3.52699e-10
3.51867e-10
3.5085e-10
3.51935e-10
3.65408e-10
3.99316e-10
4.17232e-10
4.24562e-10
4.19502e-10
4.24492e-10
4.30662e-10
4.35956e-10
4.40736e-10
4.47542e-10
4.7057e-10
5.10621e-10
5.08365e-10
1.2158e-09
8.67704e-10
8.92598e-10
9.14096e-10
9.26892e-10
9.41771e-10
9.61935e-10
1.00238e-09
1.03843e-09
7.59403e-10
59.8349
10.1202
1.69108
12.138
19.8988
21.7485
18.5399
11.4708
4.19286
0.676523
0.0456412
0.00525403
0.00187635
0.000521148
1.67474e-05
5.0447e-08
0
1.30288e-12
1.21488e-09
2.37037e-07
8.33583e-07
1.06356e-06
9.76084e-07
8.22155e-07
6.91399e-07
5.90442e-07
5.08994e-07
4.40315e-07
3.81009e-07
3.29643e-07
2.85166e-07
2.46655e-07
2.13332e-07
1.8441e-07
1.59277e-07
1.37444e-07
1.18444e-07
1.01912e-07
8.75367e-08
7.5042e-08
6.41893e-08
5.47776e-08
4.6639e-08
3.96036e-08
3.35447e-08
2.834e-08
2.38801e-08
2.00707e-08
1.68267e-08
1.40733e-08
1.17439e-08
9.77851e-09
8.12607e-09
6.74052e-09
5.58205e-09
4.61601e-09
3.8124e-09
3.14543e-09
2.59298e-09
2.13629e-09
1.75932e-09
1.44816e-09
1.19101e-09
9.77771e-10
8.01664e-10
6.54455e-10
5.37798e-10
4.55614e-10
3.83488e-10
3.29963e-10
2.60489e-10
2.38747e-10
1.5432e-10
1.8954e-10
6.72614e-11
2.10679e-10
7.13042e-11
4.16372e-10
4.38843e-10
6.68171e-10
25.3269
18.7485
3.869
1.09079
6.21424
10.9723
12.0372
9.3424
4.62199
1.05932
0.0619853
0.00108688
0.000251623
0.000131771
1.09907e-05
1.24022e-07
0
8.71001e-14
8.49101e-11
6.44099e-08
3.12499e-07
4.49863e-07
4.41982e-07
3.90591e-07
3.42146e-07
3.03353e-07
2.70901e-07
2.42193e-07
2.16168e-07
1.92587e-07
1.71309e-07
1.52169e-07
1.35005e-07
1.19587e-07
1.05739e-07
9.33279e-08
8.21906e-08
7.22168e-08
6.32948e-08
5.53258e-08
4.82191e-08
4.18968e-08
3.62946e-08
3.13339e-08
2.69632e-08
2.31262e-08
1.97679e-08
1.68411e-08
1.4301e-08
1.21054e-08
1.0216e-08
8.59613e-09
7.21332e-09
6.03751e-09
5.04141e-09
4.20063e-09
3.49337e-09
2.90029e-09
2.40437e-09
1.99086e-09
1.64686e-09
1.36092e-09
1.12321e-09
9.25013e-10
7.60556e-10
6.22557e-10
5.12167e-10
4.34023e-10
3.64307e-10
3.15001e-10
2.46917e-10
2.29042e-10
1.45017e-10
1.83103e-10
6.17777e-11
2.0294e-10
6.63522e-11
3.95911e-10
4.13773e-10
10.5451
12.4275
7.09218
1.27731
0.683256
4.0161
7.22766
7.82011
5.60852
2.30637
0.354784
0.00849248
9.45882e-05
1.82255e-05
8.5803e-06
0
0
1.28799e-16
1.21173e-13
1.05793e-08
9.55894e-08
1.67277e-07
1.77787e-07
1.64931e-07
1.51025e-07
1.40139e-07
1.31149e-07
1.22841e-07
1.14672e-07
1.06574e-07
9.85982e-08
9.08161e-08
8.3302e-08
7.6075e-08
6.91687e-08
6.26213e-08
5.64427e-08
5.06598e-08
4.52729e-08
4.02869e-08
3.56958e-08
3.14948e-08
2.76754e-08
2.42135e-08
2.10994e-08
1.83125e-08
1.58299e-08
1.36309e-08
1.16933e-08
9.9947e-09
8.51353e-09
7.22758e-09
6.11701e-09
5.16195e-09
4.34428e-09
3.64717e-09
3.05508e-09
2.55407e-09
2.13144e-09
1.7761e-09
1.47815e-09
1.2286e-09
1.01973e-09
8.44354e-10
6.97818e-10
5.7413e-10
4.74098e-10
4.03244e-10
3.38482e-10
2.94957e-10
2.30451e-10
2.16252e-10
1.3577e-10
1.73953e-10
5.88756e-11
1.93009e-10
6.56091e-11
3.79222e-10
4.87434
7.10074
6.49724
3.27579
0.479354
0.458602
2.65798
4.83855
5.24458
3.63639
1.3611
0.177963
0.00356799
7.56248e-06
3.62151e-06
0
0
0
2.78625e-12
2.43888e-09
4.68148e-08
1.05047e-07
1.19767e-07
1.11018e-07
9.96514e-08
9.11254e-08
8.47728e-08
7.93842e-08
7.43799e-08
6.95912e-08
6.49605e-08
6.0471e-08
5.6123e-08
5.1899e-08
4.78002e-08
4.38387e-08
4.00257e-08
3.63816e-08
3.29153e-08
2.96416e-08
2.6569e-08
2.37061e-08
2.10565e-08
1.86164e-08
1.63877e-08
1.43634e-08
1.25352e-08
1.08952e-08
9.43158e-09
8.13326e-09
6.98825e-09
5.98297e-09
5.1057e-09
4.3434e-09
3.68425e-09
3.11692e-09
2.63051e-09
2.2152e-09
1.8618e-09
1.56209e-09
1.30873e-09
1.09484e-09
9.14502e-10
7.61944e-10
6.33442e-10
5.24259e-10
4.34904e-10
3.72002e-10
3.12795e-10
2.74951e-10
2.14273e-10
2.03491e-10
1.26916e-10
1.6504e-10
5.63171e-11
1.84169e-10
6.45079e-11
2.10802
3.79816
4.61321
3.78967
1.81222
0.244913
0.295
1.72406
3.21737
3.54554
2.44543
0.892134
0.115775
0.00238419
4.54879e-05
0
0
0
1.1748e-17
1.05127e-14
1.2191e-08
6.35413e-08
8.29774e-08
7.88996e-08
7.12389e-08
6.47917e-08
5.99325e-08
5.59605e-08
5.23277e-08
4.88683e-08
4.55641e-08
4.24167e-08
3.94198e-08
3.65572e-08
3.38152e-08
3.11858e-08
2.86665e-08
2.62591e-08
2.39618e-08
2.17782e-08
1.97119e-08
1.77661e-08
1.59436e-08
1.42445e-08
1.26716e-08
1.12229e-08
9.89651e-09
8.69039e-09
7.59898e-09
6.6177e-09
5.74095e-09
4.9614e-09
4.27252e-09
3.66672e-09
3.13689e-09
2.67573e-09
2.27614e-09
1.93141e-09
1.63521e-09
1.38162e-09
1.1653e-09
9.81142e-10
8.24639e-10
6.91255e-10
5.77975e-10
4.81116e-10
4.00832e-10
3.44664e-10
2.90227e-10
2.57139e-10
1.99808e-10
1.9195e-10
1.18759e-10
1.57147e-10
5.35813e-11
1.77204e-10
0.696268
1.7532
2.76865
3.1041
2.45022
1.1685
0.164147
0.173412
1.11946
2.18758
2.48631
1.75042
0.660147
0.0938207
0.00259339
3.7421e-05
1.37862e-10
0
0
4.85956e-17
2.91045e-14
1.29381e-08
4.55231e-08
4.76469e-08
4.18703e-08
3.84638e-08
3.62241e-08
3.43849e-08
3.27328e-08
3.11153e-08
2.94802e-08
2.78447e-08
2.62269e-08
2.46328e-08
2.30627e-08
2.15193e-08
2.00093e-08
1.85388e-08
1.71103e-08
1.57294e-08
1.44015e-08
1.31299e-08
1.19193e-08
1.07724e-08
9.69298e-09
8.6824e-09
7.74231e-09
6.87383e-09
6.07555e-09
5.34683e-09
4.68609e-09
4.09021e-09
3.55629e-09
3.08046e-09
2.65905e-09
2.28773e-09
1.96223e-09
1.67829e-09
1.43172e-09
1.21848e-09
1.03481e-09
8.77034e-10
7.41824e-10
6.25698e-10
5.26228e-10
4.4064e-10
3.68689e-10
3.18615e-10
2.68607e-10
2.39845e-10
1.85818e-10
1.80658e-10
1.10776e-10
1.49488e-10
0.125913
0.585469
1.33287
1.99955
2.18805
1.72841
0.855297
0.139266
0.0883517
0.717413
1.50749
1.79406
1.31913
0.533555
0.0883317
0.00355769
2.25401e-06
3.09934e-07
0
0
2.91216e-21
2.08724e-11
9.96575e-09
3.17586e-08
2.90045e-08
2.38116e-08
2.1978e-08
2.10908e-08
2.02189e-08
1.93875e-08
1.85979e-08
1.78071e-08
1.70069e-08
1.62018e-08
1.5388e-08
1.45628e-08
1.37292e-08
1.28921e-08
1.20549e-08
1.12235e-08
1.04036e-08
9.5995e-09
8.81735e-09
8.0612e-09
7.3354e-09
6.64367e-09
5.98894e-09
5.37385e-09
4.79946e-09
4.26703e-09
3.77711e-09
3.32897e-09
2.92194e-09
2.5544e-09
2.22476e-09
1.93075e-09
1.67002e-09
1.44003e-09
1.23814e-09
1.06173e-09
9.08271e-10
7.75198e-10
6.60148e-10
5.60544e-10
4.74433e-10
3.99851e-10
3.36153e-10
2.92118e-10
2.46622e-10
2.22112e-10
1.71599e-10
1.69076e-10
0.0058386
0.0981114
0.432009
0.9676
1.45006
1.60389
1.30374
0.689217
0.140349
0.035537
0.444599
1.0382
1.31523
1.02733
0.453932
0.0893431
0.00482748
9.11504e-06
5.01893e-07
0
0
0
1.15033e-11
5.12399e-09
2.18788e-08
1.97423e-08
1.52536e-08
1.39871e-08
1.36083e-08
1.30887e-08
1.25204e-08
1.20038e-08
1.1515e-08
1.10313e-08
1.05467e-08
1.00579e-08
9.56248e-09
9.06077e-09
8.55276e-09
8.0406e-09
7.5269e-09
7.01446e-09
6.50736e-09
6.00868e-09
5.52194e-09
5.05063e-09
4.59746e-09
4.16527e-09
3.75577e-09
3.37084e-09
3.01175e-09
2.6789e-09
2.37277e-09
2.09285e-09
1.83876e-09
1.6095e-09
1.40387e-09
1.22051e-09
1.05784e-09
9.14208e-10
7.88012e-10
6.77532e-10
5.81134e-10
4.96996e-10
4.23525e-10
3.59474e-10
3.03803e-10
2.65672e-10
2.24695e-10
4.04278e-06
0.003314
0.0619469
0.289717
0.677934
1.05249
1.20645
1.02828
0.591146
0.153395
0.0095042
0.26156
0.708967
0.973244
0.817509
0.398722
0.0921696
0.00652729
3.5033e-05
6.39844e-07
0
0
0
3.17356e-12
1.31336e-09
1.35262e-08
1.37825e-08
1.00733e-08
8.9875e-09
8.89568e-09
8.68191e-09
8.3353e-09
8.00028e-09
7.69151e-09
7.38787e-09
7.08076e-09
6.76872e-09
6.45208e-09
6.13007e-09
5.80319e-09
5.47248e-09
5.1394e-09
4.80606e-09
4.47444e-09
4.14678e-09
3.82539e-09
3.51238e-09
3.2101e-09
2.91996e-09
2.64377e-09
2.38293e-09
2.13812e-09
1.9103e-09
1.6995e-09
1.50593e-09
1.32933e-09
1.16919e-09
1.02486e-09
8.95467e-10
7.80037e-10
6.77593e-10
5.87031e-10
5.07269e-10
4.3709e-10
3.75155e-10
3.20829e-10
1.86643e-06
1.14374e-06
0.00125349
0.0323297
0.177073
0.456561
0.757591
0.918147
0.832088
0.524863
0.170925
0.00362264
0.14219
0.47633
0.722452
0.659228
0.356004
0.0956443
0.0087016
9.7011e-05
7.01291e-07
0
0
0
2.38757e-13
7.65801e-11
7.26338e-09
1.01032e-08
7.21564e-09
5.9589e-09
5.81226e-09
5.73647e-09
5.55014e-09
5.34765e-09
5.16028e-09
4.97602e-09
4.78695e-09
4.59242e-09
4.39222e-09
4.18647e-09
3.97562e-09
3.76051e-09
3.5425e-09
3.32297e-09
3.10338e-09
2.8853e-09
2.67036e-09
2.4603e-09
2.25625e-09
2.05969e-09
1.87189e-09
1.69358e-09
1.52573e-09
1.3687e-09
1.2229e-09
1.08844e-09
9.65217e-10
8.53001e-10
7.51367e-10
6.59772e-10
5.77668e-10
5.04368e-10
0
6.68788e-10
7.66509e-06
0.000292265
0.0137482
0.0973779
0.292098
0.534569
0.698165
0.680524
0.472965
0.188471
0.0115631
0.0679914
0.311548
0.534271
0.534477
0.319506
0.098819
0.0112945
0.000218857
8.73433e-07
0
0
0
1.26935e-16
1.92787e-15
2.30743e-09
6.35244e-09
5.16646e-09
4.11428e-09
3.90033e-09
3.85256e-09
3.74659e-09
3.62049e-09
3.50221e-09
3.38634e-09
3.26712e-09
3.14346e-09
3.0152e-09
2.88219e-09
2.74467e-09
2.60338e-09
2.45922e-09
2.31311e-09
2.16618e-09
2.01959e-09
1.87462e-09
1.73218e-09
1.59339e-09
1.45932e-09
1.33065e-09
1.20824e-09
1.09251e-09
9.83942e-10
8.828e-10
7.89184e-10
2.51043e-28
0
0
7.98254e-06
3.21956e-05
0.0045486
0.0470652
0.174505
0.364896
0.524146
0.555729
0.426516
0.202901
0.0278806
0.0256874
0.195512
0.390787
0.432712
0.286345
0.101038
0.0141875
0.000434881
1.58905e-06
0
0
0
3.30777e-22
2.83374e-12
1.11463e-09
3.98794e-09
3.64896e-09
2.88162e-09
2.67212e-09
2.63634e-09
2.57346e-09
2.49187e-09
2.414e-09
2.3381e-09
2.25972e-09
2.17793e-09
2.09263e-09
2.00379e-09
1.91162e-09
1.81659e-09
1.71927e-09
1.6203e-09
1.52049e-09
1.42075e-09
1.32175e-09
1.22428e-09
3.70854e-19
4.02899e-21
0
0
4.2226e-06
8.56557e-07
0.00106791
0.0192992
0.095295
0.23735
0.384044
0.448374
0.38097
0.211925
0.0480373
0.00568642
0.115354
0.280646
0.347961
0.255105
0.101878
0.017275
0.000736376
3.69444e-06
3.91109e-10
0
0
0
1.07237e-12
4.05616e-10
2.48805e-09
2.59295e-09
2.0355e-09
1.84823e-09
1.82423e-09
1.78839e-09
1.7338e-09
1.6806e-09
)
;

boundaryField
{
    inlet
    {
        type            calculated;
        value           nonuniform List<scalar> 
11
(
2.3806e-08
2.13889e-08
2.24277e-08
2.34137e-08
2.43052e-08
2.51115e-08
2.58792e-08
2.66631e-08
2.76063e-08
2.55017e-08
2.83056e-08
)
;
    }
    outlet
    {
        type            calculated;
        value           nonuniform List<scalar> 0();
    }
    walls
    {
        type            calculated;
        value           uniform 0;
    }
    frontAndBack
    {
        type            empty;
    }
    procBoundary6to2
    {
        type            processor;
        value           nonuniform List<scalar> 
13
(
38.8429
11.8715
4.68126
1.90053
0.601768
0.10923
0.00570887
5.29605e-06
3.85706e-06
0
0
1.24403e-12
6.08946e-10
)
;
    }
    procBoundary6to3
    {
        type            processor;
        value           uniform 1.024e-09;
    }
    procBoundary6to5
    {
        type            processor;
        value           nonuniform List<scalar> 
86
(
416.598
34.2678
44.1673
37.1689
9.07883
0.0463792
0.0124776
0.0011841
0
0
4.57716e-09
2.09253e-06
4.58383e-06
3.4492e-06
2.75323e-06
2.69777e-06
2.71844e-06
2.61141e-06
2.42333e-06
2.2297e-06
2.05652e-06
1.89983e-06
1.75083e-06
1.6052e-06
1.4629e-06
1.32525e-06
1.19349e-06
1.06863e-06
9.51308e-07
8.41822e-07
7.40507e-07
6.47534e-07
5.62887e-07
5.62887e-07
5.38393e-07
4.61508e-07
3.93351e-07
3.33407e-07
2.81096e-07
2.35789e-07
1.96832e-07
1.63568e-07
1.35352e-07
1.11565e-07
9.16298e-08
7.50136e-08
7.50136e-08
6.45211e-08
5.24113e-08
4.24849e-08
3.43774e-08
2.77765e-08
2.24169e-08
1.8076e-08
1.45672e-08
1.17356e-08
1.17356e-08
9.71649e-09
7.82175e-09
6.29951e-09
5.07722e-09
4.09593e-09
3.30727e-09
2.67168e-09
2.67168e-09
2.19741e-09
1.77285e-09
1.43038e-09
1.15585e-09
9.35344e-10
7.64085e-10
6.39712e-10
6.39712e-10
5.52144e-10
4.71851e-10
3.94979e-10
3.37075e-10
2.65017e-10
2.4337e-10
1.59285e-10
2.11961e-10
1.19827e-10
1.19827e-10
3.14638e-10
4.20716e-10
7.01645e-10
)
;
    }
    procBoundary6to7
    {
        type            processor;
        value           nonuniform List<scalar> 
91
(
6.71412e-10
6.71412e-10
3.87686e-10
3.87686e-10
3.64615e-10
3.64615e-10
6.34846e-11
5.06889e-11
6.34846e-11
1.70845e-10
1.02683e-10
5.06889e-11
1.41703e-10
2.04284e-10
1.57406e-10
1.02683e-10
1.57398e-10
2.72685e-10
2.40096e-10
2.04284e-10
2.03468e-10
4.39191e-10
3.81389e-10
3.29811e-10
2.72685e-10
2.84316e-10
7.03081e-10
6.24338e-10
5.52668e-10
4.87786e-10
4.39191e-10
4.29305e-10
1.1292e-09
1.03708e-09
9.48584e-10
8.6413e-10
7.84177e-10
7.08995e-10
7.03081e-10
6.3878e-10
1.62966e-09
1.57714e-09
1.52192e-09
1.46398e-09
1.40338e-09
1.3403e-09
1.27511e-09
1.20824e-09
1.14018e-09
1.07155e-09
1.00285e-09
1.1292e-09
9.34641e-10
1.73601e-13
3.28413e-16
0
0
4.35146e-07
6.30932e-07
0.000134308
0.00628615
0.0460419
0.144237
0.270943
0.353827
0.334214
0.214183
0.0683826
0.000757844
0.0619771
0.196281
0.27662
0.225111
0.101195
0.0203734
0.00112665
1.14713e-06
5.99e-08
0
0
0
2.58332e-13
8.98163e-11
1.49907e-09
1.86548e-09
1.44399e-09
1.27125e-09
1.25844e-09
1.24603e-09
1.62966e-09
1.2126e-09
)
;
    }
}


// ************************************************************************* //
