/*--------------------------------*- C++ -*----------------------------------*\
| =========                 |                                                 |
| \\      /  F ield         | OpenFOAM: The Open Source CFD Toolbox           |
|  \\    /   O peration     | Version:  2306                                  |
|   \\  /    A nd           | Website:  www.openfoam.com                      |
|    \\/     M anipulation  |                                                 |
\*---------------------------------------------------------------------------*/
FoamFile
{
    version     2.0;
    format      ascii;
    arch        "LSB;label=32;scalar=64";
    class       volSymmTensorField;
    location    "775";
    object      turbulenceProperties:R;
}
// * * * * * * * * * * * * * * * * * * * * * * * * * * * * * * * * * * * * * //

dimensions      [0 2 -2 0 0 0 0];

internalField   nonuniform List<symmTensor> 
1340
(
(14.5074 -7.22666 1.21989e-15 19.3669 1.1438e-15 16.9537)
(11.348 -5.67514 -1.22453e-16 15.4844 -5.25238e-16 13.4361)
(8.41528 -4.21337 -1.5483e-15 11.6198 -2.10833e-17 10.0165)
(2.9479 -1.48467 -3.64167e-16 4.46986 -3.32836e-15 3.70449)
(5.5641 -2.7434 3.42252e-15 7.14765 -4.99292e-15 6.32518)
(4.91814 -2.43265 -1.50372e-15 6.39278 1.52311e-15 5.6358)
(4.37738 -2.14559 3.25243e-15 5.53409 4.03568e-16 4.90665)
(4.8538 -2.43431 5.79856e-15 6.4565 8.24867e-15 5.80389)
(7.19258 -3.52378 -1.43657e-14 8.95267 5.20357e-16 8.06817)
(6.2152 -3.05365 4.95831e-15 7.81147 -1.62555e-15 7.01487)
(5.27821 -2.5582 5.14255e-15 6.35719 -1.52331e-15 5.79504)
(5.69672 -2.82219 -1.0109e-14 7.36773 3.05691e-15 6.55807)
(7.5076 -3.65037 4.79334e-15 9.09087 4.89466e-15 8.30304)
(7.0046 -3.42057 -1.01672e-14 8.60242 -1.30171e-16 7.81058)
(6.25853 -3.0196 -1.30295e-14 7.41659 1.88251e-15 6.82258)
(6.53907 -3.21018 9.22585e-15 8.1371 -3.48747e-15 7.37973)
(5.00454 -2.39908 -9.9603e-16 5.80673 4.27317e-16 5.40459)
(6.12658 -2.96365 -1.75006e-15 7.29455 3.98504e-15 6.71653)
(6.43223 -3.08564 6.73608e-16 7.49379 2.43502e-16 6.94728)
(6.96841 -3.40035 -1.72695e-14 8.4758 4.3234e-15 7.77799)
(1.2184 -0.555731 2.80835e-15 1.25444 -1.64887e-15 1.23402)
(3.24749 -1.53942 1.0219e-14 3.65252 -1.62755e-15 3.45121)
(5.23014 -2.48009 5.2147e-16 5.90428 -9.15802e-17 5.55183)
(6.7139 -3.25877 3.62067e-15 8.02577 -3.4204e-15 7.42412)
(0.113171 0.0243267 -1.25384e-15 0.0551455 3.18068e-16 0.0840965)
(0.598957 -0.253097 -1.31518e-15 0.534316 -8.04409e-16 0.567757)
(2.76547 -1.27391 1.17093e-15 2.91378 -2.66947e-16 2.8282)
(5.45351 -2.62733 3.10496e-15 6.37183 -9.00504e-16 5.95827)
(0.00702973 0.00218899 5.26852e-17 0.00436552 1.28143e-18 0.00569423)
(0.0928836 0.0211773 -4.14436e-16 0.0464642 1.40353e-16 0.0701366)
(0.706167 -0.283496 -1.86962e-15 0.58541 3.43902e-16 0.641043)
(3.33578 -1.58505 9.84162e-15 3.746 -5.70283e-16 3.57587)
(0.000831533 0.000153489 -4.25841e-18 0.00039344 -1.80959e-18 0.000611155)
(0.0278063 0.00773107 9.10043e-17 0.0157237 -7.76568e-18 0.0218855)
(0.129979 0.00330973 1.91771e-15 0.0498253 -2.32777e-16 0.0884565)
(1.38552 -0.635515 -4.57954e-15 1.4265 1.49531e-15 1.42996)
(0 -0 0 0 0 0)
(0 0 -0 0 0 0)
(0.0426039 0.00823615 -1.75983e-16 0.0199585 7.59532e-18 0.0308289)
(0.396688 -0.159576 -3.46178e-15 0.324175 1.47948e-16 0.373637)
(0 -0 0 0 -0 0)
(0 -0 0 0 0 0)
(0.00236869 0.000254135 -4.86337e-18 0.000968994 9.59389e-19 0.00163494)
(0.118115 -0.031858 5.6439e-16 0.0646509 -2.53903e-16 0.0970256)
(1.69385e-06 -1.4689e-09 7.97832e-23 1.6764e-06 -8.16358e-23 1.68506e-06)
(0 -0 0 0 -0 0)
(0.000766029 -7.16875e-05 1.25916e-18 0.000312183 -2.2205e-19 0.000527053)
(0.0428198 -0.00934656 6.01379e-16 0.0207431 -1.76612e-17 0.0337697)
(2.77724e-05 -9.27226e-08 -7.9261e-20 2.36625e-05 2.20606e-20 2.57048e-05)
(3.78251e-08 -1.89437e-12 -5.19802e-27 3.78167e-08 -2.27837e-26 3.7821e-08)
(0.000226385 -3.46316e-05 -1.38841e-18 0.00012146 1.07898e-19 0.00017126)
(0.013883 -0.00351045 -2.18395e-16 0.00728908 2.15407e-17 0.011167)
(6.30233e-05 -3.34917e-07 4.82587e-19 4.53111e-05 -3.94916e-20 5.41157e-05)
(5.90038e-08 -3.34584e-12 -3.46442e-25 5.89814e-08 5.50001e-26 5.89928e-08)
(1.88561e-05 -5.68374e-07 -9.64454e-21 1.70672e-05 2.74213e-21 1.79215e-05)
(0.00340118 -0.000961499 6.25786e-17 0.00192803 -5.90479e-18 0.00279058)
(5.77135e-05 -4.48926e-07 -3.4166e-19 4.21524e-05 -3.55304e-20 4.98901e-05)
(2.73727e-05 -5.6685e-07 3.36417e-20 2.31888e-05 3.19269e-21 2.53182e-05)
(2.4717e-07 -1.02488e-10 9.07778e-24 2.4679e-07 -1.04847e-24 2.46973e-07)
(0.000218016 -5.07606e-05 -3.74509e-18 0.000144777 4.15586e-19 0.000187202)
(4.55471e-05 -3.49422e-07 2.80613e-20 3.49614e-05 3.84834e-20 4.02278e-05)
(5.55788e-05 -2.14056e-06 -1.48345e-20 4.07538e-05 -1.32758e-20 4.82876e-05)
(1.02717e-07 -1.74853e-11 -1.79288e-24 1.02647e-07 1.00122e-25 1.02681e-07)
(1.30108e-05 -3.79103e-07 8.25024e-21 1.24505e-05 -1.68876e-21 1.27706e-05)
(3.93721e-05 -2.64431e-07 3.79103e-20 3.09768e-05 -2.89617e-21 3.51556e-05)
(6.15326e-05 -2.70065e-06 -5.32229e-20 4.3666e-05 1.80542e-21 5.27319e-05)
(2.71921e-07 -1.28996e-10 7.96023e-25 2.7141e-07 6.2545e-25 2.71658e-07)
(2.55765e-10 -1.65784e-16 -2.88707e-30 2.55765e-10 2.17693e-31 2.55765e-10)
(3.83134e-05 -2.31884e-07 1.22583e-20 3.0113e-05 -1.745e-20 3.41969e-05)
(5.14552e-05 -2.04762e-06 -3.54953e-20 3.79188e-05 1.39366e-20 4.47774e-05)
(1.80054e-05 -5.30991e-07 4.35292e-20 1.59888e-05 -2.22192e-21 1.69713e-05)
(3.42701e-07 -3.19066e-10 7.90842e-24 3.42196e-07 -9.32351e-25 3.42476e-07)
(3.87316e-05 -2.14768e-07 -1.05706e-19 3.01556e-05 6.38121e-21 3.44287e-05)
(4.13529e-05 -1.41422e-06 6.65016e-20 3.17843e-05 -3.62488e-21 3.66255e-05)
(3.84777e-05 -2.21974e-06 1.14026e-19 3.02922e-05 -1.30911e-20 3.42951e-05)
(4.1311e-06 -4.87555e-08 3.38723e-21 4.0527e-06 -1.49898e-22 4.09575e-06)
(3.85872e-05 -1.90912e-07 1.16522e-20 2.98332e-05 1.1571e-20 3.41972e-05)
(3.62062e-05 -1.12288e-06 -1.3689e-20 2.83787e-05 -6.88874e-21 3.23339e-05)
(4.17885e-05 -2.66718e-06 -4.41995e-20 3.20751e-05 -8.53903e-21 3.68426e-05)
(1.80662e-05 -9.19657e-07 -5.23708e-21 1.65684e-05 1.69024e-21 1.73816e-05)
(3.7552e-05 -1.56324e-07 -3.71341e-21 2.89606e-05 -7.31212e-21 3.32454e-05)
(3.42748e-05 -1.02106e-06 -4.8567e-20 2.69278e-05 7.52974e-21 3.06354e-05)
(3.73884e-05 -2.27622e-06 -1.97169e-19 2.91028e-05 1.38029e-20 3.31828e-05)
(2.88558e-05 -2.32389e-06 -8.15486e-20 2.50079e-05 3.60572e-21 2.70747e-05)
(3.60296e-05 -1.15794e-07 -5.67928e-20 2.77896e-05 1.37392e-20 3.1901e-05)
(3.33475e-05 -9.72742e-07 5.18462e-20 2.60995e-05 -2.77791e-21 2.97526e-05)
(3.29852e-05 -1.88606e-06 4.64666e-20 2.60734e-05 1.61624e-21 2.94867e-05)
(3.15514e-05 -2.86691e-06 -5.89991e-20 2.6702e-05 1.61437e-21 2.92805e-05)
(3.4389e-05 -7.33302e-08 1.12202e-19 2.65439e-05 -7.98705e-22 3.04599e-05)
(3.23355e-05 -9.17917e-07 -5.34639e-20 2.52141e-05 1.09207e-21 2.87996e-05)
(3.0176e-05 -1.65808e-06 -3.6854e-20 2.4022e-05 1.69358e-21 2.70691e-05)
(3.00784e-05 -2.75004e-06 1.329e-19 2.52999e-05 -4.80781e-21 2.78176e-05)
(3.27787e-05 -3.04438e-08 -1.59766e-20 2.53136e-05 -1.13262e-20 2.90412e-05)
(3.10244e-05 -8.46451e-07 2.8387e-20 2.41414e-05 -2.49568e-21 2.76032e-05)
(2.83774e-05 -1.52506e-06 5.03818e-20 2.26132e-05 -3.7454e-21 2.54739e-05)
(2.76936e-05 -2.47182e-06 -8.46431e-20 2.3263e-05 3.53548e-21 2.55782e-05)
(3.12142e-05 1.24035e-08 -1.78064e-20 2.41101e-05 -6.20974e-22 2.76587e-05)
(2.95342e-05 -7.65131e-07 -7.31021e-20 2.29584e-05 3.06623e-21 2.62626e-05)
(2.69339e-05 -1.42051e-06 -8.37917e-20 2.14319e-05 5.25554e-21 2.41679e-05)
(2.55208e-05 -2.21875e-06 9.41794e-20 2.13997e-05 -2.52776e-21 2.35374e-05)
(2.96691e-05 5.48863e-08 -3.38994e-20 2.29179e-05 4.84938e-21 2.62911e-05)
(2.79927e-05 -6.81518e-07 3.81828e-20 2.17455e-05 8.84095e-21 2.48818e-05)
(2.55415e-05 -1.31622e-06 1.27228e-19 2.02841e-05 -5.56137e-23 2.29027e-05)
(2.36761e-05 -2.00977e-06 -9.15861e-20 1.97923e-05 2.02646e-21 2.17933e-05)
(2.81306e-05 9.69481e-08 3.55441e-20 2.17309e-05 3.48119e-21 2.49293e-05)
(2.64648e-05 -5.98651e-07 1.07614e-19 2.05445e-05 -7.51926e-21 2.35145e-05)
(2.41377e-05 -1.20669e-06 7.88428e-21 1.91316e-05 -3.11657e-21 2.16284e-05)
(2.20492e-05 -1.82691e-06 4.94003e-20 1.83595e-05 -1.14563e-21 2.02492e-05)
(2.65989e-05 1.37379e-07 2.92733e-20 2.05504e-05 -6.03996e-21 2.35741e-05)
(2.49653e-05 -5.18185e-07 -6.22904e-20 1.93659e-05 -6.57112e-21 2.21732e-05)
(2.27401e-05 -1.09512e-06 1.52117e-20 1.79884e-05 -2.93495e-21 2.0361e-05)
(2.05585e-05 -1.65806e-06 -9.35717e-20 1.70429e-05 1.08417e-21 1.88346e-05)
(2.50772e-05 1.76301e-07 -5.22914e-20 1.93791e-05 2.37688e-21 2.22281e-05)
(2.34945e-05 -4.39726e-07 -4.18019e-20 1.82105e-05 5.7958e-21 2.08581e-05)
(2.13681e-05 -9.84032e-07 -8.12828e-20 1.6868e-05 1.65842e-21 1.91169e-05)
(1.91659e-05 -1.49876e-06 6.05861e-20 1.58144e-05 -1.50234e-21 1.75155e-05)
(2.3576e-05 2.12974e-07 5.83763e-20 1.8225e-05 -1.03435e-21 2.09007e-05)
(2.20565e-05 -3.64488e-07 4.63285e-20 1.70826e-05 -1.43589e-21 1.95736e-05)
(2.00364e-05 -8.75627e-07 3.94773e-20 1.5782e-05 -7.38485e-22 1.79097e-05)
(1.78617e-05 -1.34817e-06 -1.35495e-19 1.46664e-05 2.25407e-21 1.6283e-05)
(2.2103e-05 2.46802e-07 -6.93811e-20 1.70938e-05 -1.7751e-21 1.95991e-05)
(2.0655e-05 -2.9235e-07 -6.98903e-20 1.59856e-05 -2.70108e-22 1.83231e-05)
(1.87467e-05 -7.70699e-07 -1.02324e-19 1.47324e-05 1.29723e-22 1.67408e-05)
(1.66381e-05 -1.20648e-06 2.15722e-19 1.3593e-05 1.88032e-21 1.51295e-05)
(2.06621e-05 2.77533e-07 3.44108e-20 1.59885e-05 5.10202e-21 1.83262e-05)
(1.92952e-05 -2.24315e-07 4.73928e-20 1.49234e-05 5.78488e-22 1.71114e-05)
(1.75056e-05 -6.7012e-07 5.99032e-20 1.37249e-05 4.50365e-21 1.56173e-05)
(1.5489e-05 -1.07321e-06 -8.65363e-20 1.25889e-05 -3.34236e-21 1.4049e-05)
(1.92612e-05 3.04897e-07 1.80913e-20 1.49151e-05 -2.79863e-21 1.70891e-05)
(1.79786e-05 -1.60536e-07 -6.42839e-20 1.38974e-05 -2.06377e-21 1.59393e-05)
(1.63123e-05 -5.74744e-07 2.36756e-20 1.27597e-05 -4.65882e-21 1.45383e-05)
(1.44103e-05 -9.48506e-07 3.62341e-20 1.16509e-05 1.61855e-21 1.30379e-05)
(1.88867e-05 7.52888e-07 -7.04576e-20 1.48279e-05 3.55483e-21 1.68581e-05)
(1.79051e-05 3.28518e-07 -2.87622e-20 1.38771e-05 -3.28479e-21 1.58922e-05)
(1.67119e-05 -1.01376e-07 2.06228e-20 1.29127e-05 5.96275e-21 1.48131e-05)
(1.51684e-05 -4.84851e-07 -9.79892e-20 1.18381e-05 -4.6079e-22 1.35056e-05)
(1.33949e-05 -8.32103e-07 -2.48736e-20 1.07734e-05 1.85843e-22 1.20891e-05)
(1.74922e-05 7.38159e-07 7.89719e-20 1.37606e-05 5.28995e-21 1.56272e-05)
(1.65983e-05 3.48312e-07 -3.1802e-20 1.28778e-05 1.96741e-21 1.4739e-05)
(1.54975e-05 -4.73044e-08 8.26939e-20 1.19711e-05 2.37407e-22 1.37348e-05)
(1.40777e-05 -4.01052e-07 6.56607e-20 1.09632e-05 4.38437e-21 1.25228e-05)
(1.2439e-05 -7.23787e-07 7.50452e-20 9.95301e-06 2.23397e-21 1.11992e-05)
(1.61537e-05 7.20357e-07 -1.96688e-20 1.27354e-05 -4.04634e-21 1.44453e-05)
(1.53458e-05 3.64102e-07 3.70347e-20 1.1921e-05 2.30212e-21 1.36344e-05)
(1.43372e-05 1.58727e-09 -2.23123e-20 1.10738e-05 -5.19497e-21 1.27057e-05)
(1.304e-05 -3.23681e-07 -1.82865e-21 1.01348e-05 -2.83897e-21 1.15897e-05)
(1.15391e-05 -6.23534e-07 -3.01657e-20 9.18675e-06 -3.71247e-21 1.03649e-05)
(1.4876e-05 6.99729e-07 1.14655e-20 1.17557e-05 -1.63851e-22 1.33165e-05)
(1.41503e-05 3.75914e-07 -5.15077e-21 1.10083e-05 -1.2131e-21 1.25802e-05)
(1.32329e-05 4.51593e-08 -5.48755e-20 1.02221e-05 7.30674e-22 1.17276e-05)
(1.20557e-05 -2.52897e-07 -3.49906e-20 9.35298e-06 -2.44482e-21 1.07065e-05)
(1.06917e-05 -5.31223e-07 -7.97493e-20 8.47118e-06 -1.81756e-21 9.58227e-06)
(1.36626e-05 6.7661e-07 -3.67159e-20 1.08243e-05 -2.93766e-22 1.22441e-05)
(1.30147e-05 3.83899e-07 7.46563e-21 1.01419e-05 -3.12642e-22 1.15792e-05)
(1.21864e-05 8.33944e-08 5.44955e-20 9.41706e-06 2.38806e-21 1.08017e-05)
(1.11248e-05 -1.88784e-07 -4.58011e-20 8.61744e-06 -1.22074e-21 9.87311e-06)
(9.89402e-06 -4.46671e-07 2.7953e-20 7.80362e-06 2.24316e-21 8.8488e-06)
(1.25156e-05 6.51345e-07 5.45308e-20 9.94267e-06 5.22113e-21 1.12297e-05)
(1.19409e-05 3.88102e-07 -1.37319e-20 9.32294e-06 6.33116e-22 1.06328e-05)
(1.11985e-05 1.16305e-07 -5.36395e-20 8.65897e-06 -2.93407e-21 9.92864e-06)
(1.02474e-05 -1.31325e-07 -1.07015e-20 7.92787e-06 2.7497e-21 9.08952e-06)
(9.14374e-06 -3.69774e-07 -7.12601e-21 7.18156e-06 -3.14395e-22 8.16192e-06)
(1.14366e-05 6.24337e-07 2.69696e-20 9.11203e-06 -1.21944e-21 1.02748e-05)
(1.093e-05 3.88809e-07 3.69622e-20 8.55203e-06 2.49111e-21 9.74178e-06)
(1.02688e-05 1.44037e-07 4.27974e-20 7.94719e-06 2.98572e-21 9.10781e-06)
(9.42244e-06 -8.04346e-08 1.0055e-19 7.2829e-06 4.05895e-21 8.35443e-06)
(8.43875e-06 -3.00251e-07 3.42473e-20 6.60252e-06 2.43615e-21 7.51936e-06)
(1.04264e-05 5.95935e-07 -2.17535e-20 8.33295e-06 -2.97214e-21 9.38013e-06)
(9.98235e-06 3.86273e-07 2.12371e-21 7.82937e-06 -2.38951e-21 8.90659e-06)
(9.39733e-06 1.6684e-07 -2.17572e-20 7.2815e-06 -2.34722e-21 8.33922e-06)
(8.64878e-06 -3.59004e-08 -4.09826e-20 6.68114e-06 -5.25833e-21 7.66658e-06)
(7.7769e-06 -2.37979e-07 2.38922e-20 6.06409e-06 6.14158e-22 6.91876e-06)
(9.48478e-06 5.66533e-07 -2.91846e-20 7.60525e-06 -8.85702e-22 8.54542e-06)
(9.09766e-06 3.80803e-07 -5.4553e-20 7.15444e-06 -2.77681e-21 8.12673e-06)
(8.58335e-06 1.84919e-07 -8.14957e-21 6.66084e-06 8.07221e-22 7.62189e-06)
(7.92534e-06 2.54474e-09 -3.3572e-20 6.12121e-06 -1.10003e-21 7.0248e-06)
(7.15648e-06 -1.82491e-07 -1.01451e-21 5.56402e-06 -1.57241e-21 6.35816e-06)
(8.61067e-06 5.36513e-07 3.36463e-21 6.92825e-06 2.15394e-21 7.76982e-06)
(8.27496e-06 3.72731e-07 2.69099e-20 6.52638e-06 2.6629e-21 7.40129e-06)
(7.82546e-06 1.98666e-07 3.48369e-20 6.08386e-06 1.82261e-21 6.95445e-06)
(7.25037e-06 3.5227e-08 -4.2245e-21 5.6012e-06 1.20249e-21 6.4272e-06)
(6.57584e-06 -1.33641e-07 -5.84951e-20 5.10027e-06 -2.53537e-21 5.83571e-06)
(7.80257e-06 5.06222e-07 4.74467e-20 6.30082e-06 3.6077e-21 7.05201e-06)
(7.51296e-06 3.62448e-07 -2.0353e-20 5.94409e-06 -2.63396e-21 6.72908e-06)
(7.12212e-06 2.08402e-07 -2.83733e-20 5.54905e-06 -2.94695e-21 6.33537e-06)
(6.62248e-06 6.25101e-08 2.83577e-20 5.11949e-06 1.16202e-21 5.87232e-06)
(6.0331e-06 -9.09387e-08 5.89834e-20 4.67052e-06 4.74065e-21 5.34923e-06)
(7.05818e-06 4.75963e-07 -8.86509e-22 5.7213e-06 -1.0071e-21 6.39002e-06)
(6.8096e-06 3.50279e-07 -3.432e-20 5.40589e-06 -1.86656e-21 6.10826e-06)
(6.47157e-06 2.14536e-07 -7.84213e-21 5.05478e-06 -7.64704e-22 5.76296e-06)
(6.03968e-06 8.48294e-08 -2.48837e-20 4.67405e-06 -1.71435e-21 5.35813e-06)
(5.52696e-06 -5.40449e-08 -2.72461e-21 4.27303e-06 -2.0799e-21 4.89726e-06)
(6.52246e-06 5.44505e-07 -2.15353e-22 5.43912e-06 -2.33758e-22 5.98109e-06)
(6.37504e-06 4.46054e-07 7.00818e-21 5.18793e-06 4.07365e-22 5.78172e-06)
(6.16242e-06 3.36623e-07 1.02581e-20 4.90987e-06 1.4532e-21 5.53661e-06)
(5.87152e-06 2.17468e-07 -3.97623e-20 4.59904e-06 -1.93131e-21 5.23506e-06)
(5.5e-06 1.02612e-07 3.43008e-20 4.26289e-06 2.80574e-21 4.88263e-06)
(5.05581e-06 -2.25434e-08 -5.73523e-20 3.90581e-06 -3.21531e-21 4.47798e-06)
(5.87478e-06 5.01699e-07 -6.7853e-21 4.91854e-06 -5.53509e-22 5.39692e-06)
(5.75015e-06 4.16737e-07 -9.71652e-21 4.69852e-06 -1.27851e-21 5.22454e-06)
(5.56905e-06 3.21819e-07 -1.07833e-20 4.45421e-06 -1.31352e-21 5.01204e-06)
(5.31972e-06 2.17635e-07 5.13637e-20 4.17993e-06 5.04332e-21 4.74961e-06)
(5.00157e-06 1.16308e-07 -3.91195e-21 3.88416e-06 -1.4633e-21 4.44398e-06)
(4.61812e-06 3.9953e-09 4.94402e-20 3.567e-06 4.23013e-21 4.08968e-06)
(5.28535e-06 4.61318e-07 6.77333e-21 4.443e-06 1.20057e-21 4.8644e-06)
(5.18019e-06 3.8822e-07 -1.75335e-20 4.25064e-06 -1.16101e-21 4.71559e-06)
(5.02648e-06 3.06172e-07 5.17441e-22 4.03657e-06 5.46578e-22 4.53191e-06)
(4.81365e-06 2.15414e-07 2.26735e-20 3.79535e-06 5.38799e-22 4.30428e-06)
(4.54235e-06 1.26373e-07 -3.59718e-20 3.53594e-06 -1.91266e-21 4.04021e-06)
(4.21239e-06 2.60236e-08 -2.12351e-20 3.25487e-06 -2.09615e-21 3.73073e-06)
(4.75038e-06 4.23399e-07 2.40446e-20 4.00976e-06 1.62409e-21 4.38026e-06)
(4.66186e-06 3.60697e-07 1.24899e-20 3.84193e-06 1.31247e-21 4.25203e-06)
(4.53176e-06 2.90019e-07 2.73437e-20 3.6548e-06 2.00266e-21 4.09362e-06)
(4.35067e-06 2.11211e-07 -3.02252e-20 3.44317e-06 -2.33533e-21 3.89669e-06)
(4.12015e-06 1.33252e-07 5.19745e-20 3.21624e-06 4.60972e-21 3.66921e-06)
(3.83712e-06 4.39694e-08 2.3023e-20 2.96771e-06 2.09191e-21 3.39952e-06)
(4.26607e-06 3.87949e-07 -2.7922e-20 3.61601e-06 -2.87891e-21 3.94121e-06)
(4.19162e-06 3.34301e-07 -4.68341e-21 3.46977e-06 -7.96967e-22 3.83081e-06)
(4.08178e-06 2.73587e-07 -3.22575e-20 3.30653e-06 -3.5004e-21 3.69446e-06)
(3.9282e-06 2.05396e-07 3.69955e-20 3.12135e-06 3.54525e-21 3.52456e-06)
(3.73291e-06 1.37387e-07 3.4255e-21 2.92325e-06 -5.12864e-22 3.32903e-06)
(3.49084e-06 5.82701e-08 -1.2947e-20 2.70393e-06 -1.82125e-21 3.09454e-06)
(3.82862e-06 3.54938e-07 1.1257e-20 3.25896e-06 1.5151e-21 3.54393e-06)
(3.76608e-06 3.09154e-07 -1.1663e-20 3.13171e-06 -9.14212e-22 3.44899e-06)
(3.67347e-06 2.57145e-07 -6.00438e-21 2.98951e-06 9.24107e-23 3.33177e-06)
(3.54349e-06 1.98305e-07 -3.97942e-21 2.82775e-06 -8.77509e-22 3.1854e-06)
(3.3785e-06 1.39165e-07 -1.37713e-20 2.65515e-06 -1.02398e-21 3.01773e-06)
(3.17199e-06 6.93457e-08 -4.09313e-20 2.46195e-06 -3.03311e-21 2.8142e-06)
(3.43422e-06 3.24303e-07 -2.63044e-21 2.93576e-06 3.24381e-22 3.18511e-06)
(3.38172e-06 2.85308e-07 3.12596e-21 2.82514e-06 4.44324e-22 3.10351e-06)
(3.30377e-06 2.40867e-07 1.09256e-20 2.70146e-06 1.1107e-21 3.00287e-06)
(3.19399e-06 1.90242e-07 -3.06626e-21 2.56041e-06 -4.47815e-22 2.87698e-06)
(3.05485e-06 1.38988e-07 9.1466e-21 2.41022e-06 4.97646e-22 2.73338e-06)
(2.87903e-06 7.76107e-08 3.30242e-20 2.24027e-06 3.36625e-21 2.55696e-06)
(3.07931e-06 2.95979e-07 5.34582e-20 2.64376e-06 5.25822e-21 2.86164e-06)
(3.0352e-06 2.6283e-07 3.12529e-21 2.54765e-06 4.76628e-22 2.79148e-06)
(2.96962e-06 2.24935e-07 2.09778e-21 2.44016e-06 4.80564e-24 2.70511e-06)
(2.87702e-06 1.81485e-07 -1.95646e-20 2.31729e-06 -1.28834e-21 2.59694e-06)
(2.75987e-06 1.37196e-07 -3.30705e-20 2.18676e-06 -2.93908e-21 2.47411e-06)
(2.61049e-06 8.34423e-08 -5.8489e-21 2.0375e-06 -7.12638e-22 2.32141e-06)
(2.76042e-06 2.6986e-07 -1.68303e-20 2.38032e-06 -2.21097e-21 2.57045e-06)
(2.72332e-06 2.4172e-07 7.18122e-21 2.29683e-06 5.92309e-22 2.51012e-06)
(2.66816e-06 2.09472e-07 -8.05763e-21 2.20348e-06 -1.06744e-21 2.43602e-06)
(2.5901e-06 1.72272e-07 3.85653e-20 2.09657e-06 3.61599e-21 2.34312e-06)
(2.49154e-06 1.34107e-07 2.71265e-20 1.98317e-06 2.88493e-21 2.2381e-06)
(2.36484e-06 8.71909e-08 2.90203e-20 1.85224e-06 2.37846e-21 2.10606e-06)
(2.4926e-06 2.65915e-07 1.32906e-20 2.20738e-06 1.26211e-21 2.35004e-06)
(2.47424e-06 2.45839e-07 2.0613e-20 2.14294e-06 2.52826e-21 2.30866e-06)
(2.443e-06 2.21987e-07 -6.51752e-21 2.07044e-06 -8.33602e-22 2.25675e-06)
(2.39655e-06 1.94595e-07 -1.49732e-20 1.98938e-06 -1.38294e-21 2.19315e-06)
(2.33078e-06 1.62803e-07 -2.56259e-20 1.8964e-06 -2.81715e-21 2.11338e-06)
(2.24788e-06 1.30002e-07 -8.02107e-21 1.79792e-06 -8.50656e-22 2.0236e-06)
(2.14057e-06 8.9194e-08 -4.94536e-20 1.6832e-06 -5.08888e-21 1.90953e-06)
(2.2333e-06 2.4079e-07 -1.9731e-20 1.98537e-06 -2.1828e-21 2.10937e-06)
(2.21772e-06 2.23801e-07 1.48596e-20 1.92929e-06 1.10836e-21 2.07356e-06)
(2.19133e-06 2.03603e-07 -1.765e-20 1.86629e-06 -1.77297e-21 2.02883e-06)
(2.15219e-06 1.80366e-07 -3.98679e-21 1.79592e-06 -7.83787e-24 1.97422e-06)
(2.09676e-06 1.53253e-07 8.61194e-21 1.71508e-06 7.3508e-22 1.90572e-06)
(2.02699e-06 1.25124e-07 1.78821e-20 1.62955e-06 2.00557e-21 1.82893e-06)
(1.93622e-06 8.97416e-08 -6.78928e-21 1.52914e-06 1.96815e-23 1.73045e-06)
(2.00132e-06 2.17997e-07 1.45732e-20 1.78604e-06 2.02913e-21 1.89371e-06)
(1.98802e-06 2.03628e-07 -2.80446e-20 1.7372e-06 -3.10151e-21 1.86266e-06)
(1.96566e-06 1.86544e-07 -2.40723e-21 1.68242e-06 -2.12329e-22 1.82406e-06)
(1.9326e-06 1.66851e-07 3.69509e-20 1.6213e-06 3.63139e-21 1.77709e-06)
(1.88582e-06 1.43766e-07 -3.66882e-20 1.55101e-06 -3.75038e-21 1.71822e-06)
(1.82706e-06 1.19695e-07 1.74936e-20 1.4767e-06 1.7365e-21 1.65248e-06)
(1.75033e-06 8.91035e-08 2.17112e-20 1.38888e-06 1.81299e-21 1.56751e-06)
(1.79397e-06 1.97354e-07 2.36423e-20 1.60725e-06 2.57178e-21 1.70063e-06)
(1.78252e-06 1.85206e-07 2.17153e-22 1.56466e-06 2.62095e-22 1.67363e-06)
(1.76348e-06 1.70762e-07 2.83577e-21 1.51698e-06 4.02163e-22 1.64024e-06)
(1.73548e-06 1.54089e-07 -4.34335e-20 1.46384e-06 -4.76099e-21 1.59978e-06)
(1.69592e-06 1.34455e-07 -1.30026e-21 1.40268e-06 -1.46289e-22 1.54912e-06)
(1.64634e-06 1.13891e-07 3.05676e-20 1.33806e-06 3.2843e-21 1.49277e-06)
(1.58153e-06 8.75131e-08 -6.05103e-20 1.26133e-06 -6.3325e-21 1.41946e-06)
(1.60874e-06 1.78683e-07 5.89092e-21 1.44699e-06 5.22284e-22 1.52789e-06)
(1.59881e-06 1.68414e-07 -7.97452e-21 1.4098e-06 -7.41044e-22 1.50434e-06)
(1.58252e-06 1.56204e-07 -4.47146e-21 1.36824e-06 -5.72219e-22 1.47538e-06)
(1.5587e-06 1.42099e-07 1.20495e-20 1.32199e-06 1.72721e-21 1.44046e-06)
(1.52519e-06 1.25419e-07 -2.16464e-20 1.26874e-06 -2.31662e-21 1.39678e-06)
(1.48322e-06 1.0788e-07 2.38667e-20 1.21248e-06 2.39114e-21 1.34838e-06)
(1.42849e-06 8.51881e-08 -1.05524e-20 1.14544e-06 -7.83254e-22 1.28513e-06)
(1.44323e-06 1.61794e-07 3.21217e-21 1.30331e-06 1.94781e-22 1.37329e-06)
(1.43457e-06 1.5312e-07 1.72232e-20 1.2708e-06 1.98512e-21 1.35272e-06)
(1.42057e-06 1.42805e-07 -1.56671e-21 1.23455e-06 -9.68178e-23 1.32756e-06)
(1.40024e-06 1.30883e-07 1.0178e-20 1.19425e-06 7.28715e-22 1.29735e-06)
(1.37177e-06 1.16725e-07 -2.93472e-21 1.14784e-06 -3.77409e-22 1.25963e-06)
(1.33615e-06 1.01785e-07 2.37896e-20 1.0988e-06 2.49852e-21 1.21797e-06)
(1.28994e-06 8.23082e-08 -2.59338e-20 1.04026e-06 -2.60679e-21 1.16339e-06)
(1.29506e-06 1.4648e-07 -1.12579e-20 1.17418e-06 -1.42504e-21 1.23463e-06)
(1.28752e-06 1.3916e-07 6.4045e-21 1.1458e-06 6.17508e-22 1.21668e-06)
(1.27548e-06 1.30459e-07 8.1759e-21 1.11419e-06 9.11387e-22 1.19483e-06)
(1.25812e-06 1.20393e-07 -4.07731e-20 1.07911e-06 -4.43574e-21 1.1687e-06)
(1.2339e-06 1.08398e-07 -2.86389e-20 1.03868e-06 -3.19796e-21 1.13613e-06)
(1.20362e-06 9.56949e-08 1.92552e-20 9.95918e-07 1.86687e-21 1.10022e-06)
(1.16464e-06 7.90204e-08 -2.43607e-21 9.4485e-07 -2.10488e-22 1.05315e-06)
(1.16522e-06 1.37624e-07 1.19893e-21 1.08007e-06 2.48048e-22 1.12265e-06)
(1.16196e-06 1.32532e-07 -1.35458e-20 1.05767e-06 -1.37884e-21 1.10982e-06)
(1.15543e-06 1.26366e-07 9.38895e-21 1.03295e-06 9.07289e-22 1.09421e-06)
(1.14513e-06 1.19039e-07 -1.44592e-20 1.00547e-06 -1.76383e-21 1.07529e-06)
(1.13034e-06 1.1056e-07 1.01379e-21 9.74993e-07 2.89637e-22 1.05275e-06)
(1.10979e-06 1.00418e-07 -5.56622e-21 9.39846e-07 -3.20256e-22 1.02466e-06)
(1.08403e-06 8.96422e-08 3.65131e-21 9.02599e-07 2.04531e-22 9.93731e-07)
(1.05126e-06 7.54132e-08 -1.22339e-20 8.58177e-07 -1.12342e-21 9.53246e-07)
(1.04512e-06 1.24101e-07 8.25806e-21 9.71895e-07 9.64213e-22 1.00852e-06)
(1.04221e-06 1.19802e-07 2.22622e-20 9.52321e-07 2.63692e-21 9.97276e-07)
(1.03656e-06 1.14607e-07 -1.91723e-20 9.3079e-07 -2.16718e-21 9.83695e-07)
(1.02775e-06 1.08441e-07 -2.0673e-20 9.06927e-07 -2.13134e-21 9.67333e-07)
(1.01517e-06 1.01305e-07 -7.31579e-21 8.80501e-07 -9.6224e-22 9.4791e-07)
(9.97775e-07 9.27462e-08 2.17993e-20 8.50025e-07 2.45218e-21 9.2376e-07)
(9.75904e-07 8.36289e-08 -1.66267e-20 8.17665e-07 -1.90388e-21 8.97169e-07)
(9.48496e-07 7.15339e-08 2.95892e-20 7.79196e-07 3.24994e-21 8.62493e-07)
(9.37313e-07 1.11872e-07 7.33404e-21 8.74471e-07 9.04067e-22 9.05896e-07)
(9.34616e-07 1.08229e-07 -1.02164e-20 8.57264e-07 -1.31485e-21 8.95942e-07)
(9.29635e-07 1.03839e-07 -1.21663e-21 8.38428e-07 -9.33485e-23 8.84042e-07)
(9.22025e-07 9.86384e-08 2.52758e-20 8.17632e-07 3.06376e-21 8.69817e-07)
(9.11281e-07 9.26255e-08 -1.49821e-20 7.94675e-07 -1.85522e-21 8.53037e-07)
(8.96528e-07 8.54009e-08 -5.14221e-21 7.68241e-07 -4.8711e-22 8.32251e-07)
(8.77949e-07 7.76866e-08 -1.5897e-20 7.40139e-07 -1.58865e-21 8.0939e-07)
(8.55097e-07 6.74296e-08 3.29035e-21 7.06916e-07 2.15181e-22 7.79765e-07)
(8.41119e-07 1.00896e-07 1.37614e-20 7.87315e-07 1.50549e-21 8.14233e-07)
(8.38482e-07 9.77886e-08 -6.97036e-21 7.72038e-07 -7.45891e-22 8.05272e-07)
(8.33944e-07 9.40587e-08 3.75135e-21 7.55404e-07 3.6708e-22 7.94692e-07)
(8.2723e-07 8.96524e-08 1.79647e-20 7.37142e-07 2.08899e-21 7.82186e-07)
(8.17922e-07 8.45667e-08 -5.795e-20 7.17075e-07 -6.47919e-21 7.6756e-07)
(8.05301e-07 7.8451e-08 4.12078e-20 6.94042e-07 4.4773e-21 7.49556e-07)
(7.89441e-07 7.1911e-08 1.65103e-20 6.69571e-07 1.91462e-21 7.29828e-07)
(7.70411e-07 6.32216e-08 3.81872e-21 6.40909e-07 3.29464e-22 7.04543e-07)
(7.55121e-07 9.10528e-08 -1.55156e-20 7.09345e-07 -1.92916e-21 7.32221e-07)
(7.52395e-07 8.83882e-08 1.23448e-21 6.95614e-07 1.71716e-22 7.23997e-07)
(7.48079e-07 8.5199e-08 -6.80764e-21 6.80736e-07 -7.35938e-22 7.14406e-07)
(7.41975e-07 8.14426e-08 1.57083e-20 6.64506e-07 1.70024e-21 7.0322e-07)
(7.33704e-07 7.71172e-08 1.05146e-20 6.46761e-07 1.41354e-21 6.90273e-07)
(7.22686e-07 7.19112e-08 -6.86734e-21 6.26472e-07 -7.68785e-22 6.74457e-07)
(7.0893e-07 6.63338e-08 -7.56781e-21 6.04948e-07 -9.43775e-22 6.57211e-07)
(6.9288e-07 5.89438e-08 -1.23787e-20 5.80021e-07 -1.31623e-21 6.3542e-07)
(6.81281e-07 8.25898e-08 -9.70282e-21 6.42421e-07 -1.1094e-21 6.61861e-07)
(6.78594e-07 8.03151e-08 1.11827e-21 6.30139e-07 1.73612e-22 6.54376e-07)
(6.7453e-07 7.75952e-08 2.36046e-20 6.16845e-07 2.63659e-21 6.457e-07)
(6.68949e-07 7.43924e-08 -1.26265e-22 6.0237e-07 1.20036e-23 6.35647e-07)
(6.61524e-07 7.07056e-08 -1.80724e-20 5.86583e-07 -2.11807e-21 6.24089e-07)
(6.51686e-07 6.62575e-08 3.70553e-20 5.685e-07 4.22408e-21 6.09982e-07)
(6.39513e-07 6.14737e-08 -7.03552e-21 5.49319e-07 -8.57674e-22 5.94648e-07)
(6.2556e-07 5.51414e-08 2.31954e-20 5.27214e-07 2.67279e-21 5.75452e-07)
(6.22699e-07 7.57553e-08 -1.87176e-20 5.88736e-07 -2.14346e-21 6.0577e-07)
(6.20066e-07 7.37639e-08 2.01419e-20 5.77605e-07 2.34899e-21 5.98903e-07)
(6.16263e-07 7.13933e-08 -3.31617e-20 5.65616e-07 -3.9658e-21 5.9102e-07)
(6.11154e-07 6.86133e-08 8.53638e-21 5.52615e-07 9.96248e-22 5.81956e-07)
(6.04408e-07 6.5413e-08 1.07688e-20 5.38427e-07 1.26594e-21 5.71545e-07)
(5.9547e-07 6.15377e-08 9.48367e-21 5.221e-07 8.25665e-22 5.58794e-07)
(5.84456e-07 5.73668e-08 -2.9873e-20 5.0477e-07 -3.16597e-21 5.44967e-07)
(5.72913e-07 5.19283e-08 1.56761e-20 4.85611e-07 1.53178e-21 5.2858e-07)
(5.7403e-07 7.13103e-08 3.82617e-21 5.52148e-07 4.73032e-22 5.62944e-07)
(5.72316e-07 6.98761e-08 1.05768e-20 5.42649e-07 1.33405e-21 5.57407e-07)
(5.69244e-07 6.80537e-08 -4.17973e-21 5.31985e-07 -4.76042e-22 5.50545e-07)
(5.6525e-07 6.59122e-08 -6.52768e-21 5.20665e-07 -6.97454e-22 5.42874e-07)
(5.60244e-07 6.34358e-08 1.75089e-20 5.08603e-07 1.97513e-21 5.34306e-07)
(5.53825e-07 6.06064e-08 -1.06873e-20 4.95546e-07 -1.22915e-21 5.24598e-07)
(5.45535e-07 5.71971e-08 -3.53739e-20 4.80638e-07 -4.04566e-21 5.12866e-07)
(5.35177e-07 5.35095e-08 4.11091e-20 4.64633e-07 4.76624e-21 4.99965e-07)
(5.25023e-07 4.87799e-08 -2.25393e-20 4.47524e-07 -2.63489e-21 4.85324e-07)
(5.29693e-07 6.59408e-08 1.07537e-21 5.10558e-07 1.12921e-22 5.20112e-07)
(5.27642e-07 6.46196e-08 -3.2023e-21 5.01495e-07 -5.21021e-22 5.14705e-07)
(5.24285e-07 6.29333e-08 2.33204e-20 4.91256e-07 2.72225e-21 5.07973e-07)
(5.20102e-07 6.09479e-08 -1.28707e-20 4.80376e-07 -1.43198e-21 5.0045e-07)
(5.15021e-07 5.86633e-08 -9.05042e-21 4.68849e-07 -1.14551e-21 4.92134e-07)
(5.08663e-07 5.60674e-08 -4.22479e-21 4.56452e-07 -4.47493e-22 4.82807e-07)
(5.007e-07 5.2979e-08 3.00342e-20 4.42501e-07 3.52141e-21 4.71769e-07)
(4.91096e-07 4.96831e-08 -1.03036e-20 4.27806e-07 -1.018e-21 4.59947e-07)
(4.82897e-07 4.56561e-08 -2.01036e-20 4.13251e-07 -2.43772e-21 4.4778e-07)
(4.82993e-07 6.03676e-08 -2.86482e-22 4.67633e-07 -2.96977e-23 4.74806e-07)
(4.80268e-07 5.91778e-08 -2.12127e-20 4.58936e-07 -2.56391e-21 4.69217e-07)
(4.76438e-07 5.76794e-08 -1.82082e-20 4.49194e-07 -2.13707e-21 4.62459e-07)
(4.71924e-07 5.59208e-08 6.46874e-21 4.38848e-07 8.07031e-22 4.54982e-07)
(4.66653e-07 5.39075e-08 -4.96508e-21 4.27933e-07 -6.26844e-22 4.46831e-07)
(4.60261e-07 5.16214e-08 1.21883e-20 4.16216e-07 1.54063e-21 4.37789e-07)
(4.52361e-07 4.88755e-08 -2.43804e-20 4.02952e-07 -3.16418e-21 4.27081e-07)
(4.42436e-07 4.58315e-08 7.58253e-20 3.88381e-07 8.92569e-21 4.14992e-07)
(4.32799e-07 4.20131e-08 -3.77803e-20 3.73031e-07 -4.35531e-21 4.01591e-07)
(4.45967e-07 5.57235e-08 -4.28875e-22 4.31442e-07 -9.75047e-24 4.39161e-07)
(4.43483e-07 5.46208e-08 -1.97518e-20 4.23432e-07 -2.29725e-21 4.34178e-07)
(4.39928e-07 5.32221e-08 4.16312e-20 4.14389e-07 4.92274e-21 4.28018e-07)
(4.3563e-07 5.15635e-08 2.5366e-21 4.04666e-07 3.07659e-22 4.21032e-07)
(4.30498e-07 4.96612e-08 -2.38763e-20 3.94338e-07 -2.66598e-21 4.13304e-07)
(4.24319e-07 4.75232e-08 2.78173e-20 3.83331e-07 3.14141e-21 4.0478e-07)
(4.16964e-07 4.50489e-08 -5.31798e-20 3.71262e-07 -6.19871e-21 3.9509e-07)
(4.08882e-07 4.24909e-08 4.88443e-20 3.59153e-07 5.43624e-21 3.85418e-07)
(4.03988e-07 3.96824e-08 -5.76261e-20 3.49035e-07 -6.41363e-21 3.77524e-07)
(3.92435e-07 4.94942e-08 5.01736e-21 3.84684e-07 6.02826e-22 3.86868e-07)
(3.88735e-07 4.85464e-08 1.39956e-20 3.76794e-07 1.7659e-21 3.81177e-07)
(3.8435e-07 4.73909e-08 -1.99681e-20 3.68145e-07 -2.49402e-21 3.74663e-07)
(3.79574e-07 4.6048e-08 -1.21367e-20 3.59016e-07 -1.51675e-21 3.67612e-07)
(3.74274e-07 4.45249e-08 5.92948e-20 3.4945e-07 7.10945e-21 3.60079e-07)
(3.6802e-07 4.27845e-08 -3.90635e-20 3.39124e-07 -4.50932e-21 3.51743e-07)
(3.60253e-07 4.06085e-08 -3.36153e-20 3.27064e-07 -3.90265e-21 3.41583e-07)
(3.4972e-07 3.79641e-08 1.25074e-20 3.12634e-07 1.27154e-21 3.28892e-07)
(3.38263e-07 3.45882e-08 2.04859e-20 2.96602e-07 2.53715e-21 3.14126e-07)
(3.77667e-07 4.70385e-08 2.78347e-21 3.64102e-07 3.11635e-22 3.7344e-07)
(3.75052e-07 4.60017e-08 4.68384e-21 3.56898e-07 5.47374e-22 3.68929e-07)
(3.71471e-07 4.47125e-08 -1.29555e-20 3.48765e-07 -1.45046e-21 3.63309e-07)
(3.67162e-07 4.31903e-08 9.03352e-22 3.39931e-07 1.17847e-22 3.56805e-07)