/*--------------------------------*- C++ -*----------------------------------*\
| =========                 |                                                 |
| \\      /  F ield         | OpenFOAM: The Open Source CFD Toolbox           |
|  \\    /   O peration     | Version:  2306                                  |
|   \\  /    A nd           | Website:  www.openfoam.com                      |
|    \\/     M anipulation  |                                                 |
\*---------------------------------------------------------------------------*/
FoamFile
{
    version     2.0;
    format      ascii;
    arch        "LSB;label=32;scalar=64";
    class       volScalarField;
    location    "775";
    object      turbulenceProperties:nuEff;
}
// * * * * * * * * * * * * * * * * * * * * * * * * * * * * * * * * * * * * * //

dimensions      [0 2 -1 0 0 0 0];

internalField   nonuniform List<scalar> 
1340
(
0.0869233
0.0784902
0.0690335
0.0538418
0.153851
0.14856
0.139903
0.147221
0.20634
0.207593
0.201637
0.212142
0.21537
0.231957
0.239203
0.255727
0.175069
0.217184
0.248061
0.278396
0.0932799
0.160403
0.223985
0.278355
0.0215136
0.0782943
0.166181
0.252337
0.000869532
0.017107
0.0903723
0.200129
0.000201192
0.00465692
0.031054
0.132998
1e-05
1e-05
0.00873761
0.0717091
1e-05
1e-05
0.00069113
0.0326617
1.00097e-05
1e-05
0.000288391
0.012923
1.23031e-05
1e-05
8.14052e-05
0.00429149
2.01999e-05
1e-05
1.12441e-05
0.00109462
1.92232e-05
1.26508e-05
1.00003e-05
6.9355e-05
1.64514e-05
1.97266e-05
1.00001e-05
1.0487e-05
1.52675e-05
2.2116e-05
1.00004e-05
1e-05
1.53095e-05
1.94788e-05
1.16099e-05
1.00005e-05
1.57433e-05
1.69289e-05
1.6842e-05
1.00824e-05
1.60766e-05
1.58758e-05
1.84919e-05
1.16793e-05
1.61949e-05
1.57323e-05
1.75769e-05
1.45927e-05
1.61856e-05
1.58916e-05
1.66164e-05
1.61472e-05
1.61462e-05
1.60442e-05
1.61713e-05
1.6415e-05
1.61195e-05
1.61138e-05
1.60618e-05
1.6285e-05
1.61095e-05
1.61273e-05
1.60739e-05
1.61648e-05
1.61082e-05
1.61215e-05
1.61005e-05
1.61176e-05
1.61092e-05
1.61151e-05
1.61132e-05
1.61108e-05
1.61098e-05
1.61121e-05
1.61153e-05
1.61143e-05
1.61098e-05
1.61112e-05
1.61139e-05
1.61167e-05
1.61095e-05
1.61111e-05
1.61125e-05
1.61168e-05
1.61093e-05
1.61109e-05
1.61117e-05
1.6116e-05
1.61092e-05
1.61108e-05
1.61114e-05
1.61152e-05
1.61091e-05
1.61106e-05
1.61111e-05
1.61146e-05
1.61083e-05
1.6109e-05
1.61104e-05
1.6111e-05
1.61142e-05
1.61084e-05
1.61091e-05
1.61104e-05
1.61108e-05
1.61138e-05
1.61085e-05
1.61091e-05
1.61103e-05
1.61107e-05
1.61135e-05
1.61086e-05
1.61092e-05
1.61103e-05
1.61107e-05
1.61133e-05
1.61087e-05
1.61093e-05
1.61104e-05
1.61107e-05
1.61131e-05
1.61089e-05
1.61094e-05
1.61104e-05
1.61107e-05
1.6113e-05
1.61091e-05
1.61096e-05
1.61105e-05
1.61108e-05
1.6113e-05
1.61093e-05
1.61098e-05
1.61107e-05
1.61109e-05
1.61129e-05
1.61095e-05
1.611e-05
1.61108e-05
1.61111e-05
1.61129e-05
1.61097e-05
1.61101e-05
1.6111e-05
1.61112e-05
1.6113e-05
1.61099e-05
1.61103e-05
1.61111e-05
1.61114e-05
1.61131e-05
1.611e-05
1.61105e-05
1.61113e-05
1.61116e-05
1.61132e-05
1.61097e-05
1.61102e-05
1.61107e-05
1.61114e-05
1.61117e-05
1.61133e-05
1.61098e-05
1.61103e-05
1.61108e-05
1.61116e-05
1.61119e-05
1.61134e-05
1.61099e-05
1.61104e-05
1.61109e-05
1.61117e-05
1.6112e-05
1.61135e-05
1.61099e-05
1.61105e-05
1.6111e-05
1.61117e-05
1.61121e-05
1.61135e-05
1.61099e-05
1.61105e-05
1.6111e-05
1.61118e-05
1.61122e-05
1.61136e-05
1.61098e-05
1.61104e-05
1.6111e-05
1.61117e-05
1.61122e-05
1.61135e-05
1.61097e-05
1.61103e-05
1.61108e-05
1.61116e-05
1.61122e-05
1.61135e-05
1.61094e-05
1.611e-05
1.61107e-05
1.61114e-05
1.6112e-05
1.61133e-05
1.61091e-05
1.61097e-05
1.61104e-05
1.61112e-05
1.61118e-05
1.61131e-05
1.6108e-05
1.61086e-05
1.61093e-05
1.611e-05
1.61108e-05
1.61115e-05
1.61127e-05
1.61074e-05
1.61081e-05
1.61088e-05
1.61095e-05
1.61103e-05
1.61111e-05
1.61123e-05
1.61068e-05
1.61074e-05
1.61081e-05
1.61089e-05
1.61097e-05
1.61105e-05
1.61118e-05
1.61059e-05
1.61066e-05
1.61073e-05
1.61081e-05
1.6109e-05
1.61098e-05
1.61111e-05
1.6105e-05
1.61057e-05
1.61065e-05
1.61072e-05
1.61082e-05
1.6109e-05
1.61103e-05
1.61039e-05
1.61047e-05
1.61054e-05
1.61062e-05
1.61072e-05
1.61081e-05
1.61093e-05
1.61026e-05
1.61034e-05
1.61042e-05
1.6105e-05
1.6106e-05
1.6107e-05
1.61083e-05
1.61001e-05
1.61009e-05
1.61017e-05
1.61026e-05
1.61035e-05
1.61045e-05
1.61056e-05
1.61069e-05
1.60979e-05
1.60987e-05
1.60996e-05
1.61005e-05
1.61015e-05
1.61026e-05
1.61038e-05
1.61052e-05
1.60953e-05
1.60962e-05
1.6097e-05
1.6098e-05
1.6099e-05
1.61002e-05
1.61015e-05
1.6103e-05
1.60927e-05
1.60935e-05
1.60943e-05
1.60953e-05
1.60963e-05
1.60974e-05
1.60987e-05
1.61003e-05
1.609e-05
1.60908e-05
1.60916e-05
1.60924e-05
1.60934e-05
1.60945e-05
1.60957e-05
1.60972e-05
1.60874e-05
1.60881e-05
1.60889e-05
1.60897e-05
1.60906e-05
1.60917e-05
1.60928e-05
1.60942e-05
1.60849e-05
1.60857e-05
1.60864e-05
1.60873e-05
1.60882e-05
1.60893e-05
1.60904e-05
1.60917e-05
1.60817e-05
1.60823e-05
1.60831e-05
1.60839e-05
1.60847e-05
1.60857e-05
1.60867e-05
1.60879e-05
1.60892e-05
1.6079e-05
1.60796e-05
1.60803e-05
1.6081e-05
1.60818e-05
1.60827e-05
1.60837e-05
1.60848e-05
1.60862e-05
1.60763e-05
1.60768e-05
1.60774e-05
1.6078e-05
1.60787e-05
1.60794e-05
1.60803e-05
1.60814e-05
1.60826e-05
1.60735e-05
1.6074e-05
1.60745e-05
1.6075e-05
1.60756e-05
1.60762e-05
1.6077e-05
1.60779e-05
1.6079e-05
1.60712e-05
1.60714e-05
1.60717e-05
1.6072e-05
1.60724e-05
1.60728e-05
1.60734e-05
1.60741e-05
1.6075e-05
1.60714e-05
1.60713e-05
1.60712e-05
1.60711e-05
1.60711e-05
1.60711e-05
1.60713e-05
1.60715e-05
1.6072e-05
1.60742e-05
1.6074e-05
1.60739e-05
1.60737e-05
1.60735e-05
1.60732e-05
1.6073e-05
1.60728e-05
1.60727e-05
1.60775e-05
1.60774e-05
1.60772e-05
1.60769e-05
1.60766e-05
1.60763e-05
1.60759e-05
1.60755e-05
1.60749e-05
1.60817e-05
1.60818e-05
1.60818e-05
1.60819e-05
1.6082e-05
1.6082e-05
1.6082e-05
1.6082e-05
1.60819e-05
1.60849e-05
1.60849e-05
1.60849e-05
1.60847e-05
1.60846e-05
1.60843e-05
1.60841e-05
1.60838e-05
1.60837e-05
1.60836e-05
1.60905e-05
1.60914e-05
1.60924e-05
1.60935e-05
1.60945e-05
1.60956e-05
1.60968e-05
1.60979e-05
1.60994e-05
1.61007e-05
1.61e-05
1.61002e-05
1.61003e-05
1.61004e-05
1.61004e-05
1.61004e-05
1.61004e-05
1.61007e-05
1.61012e-05
1.61016e-05
0.17297
0.215411
0.255592
0.300088
0.326422
0.329404
0.30733
0.258839
0.186643
0.105743
0.0436673
0.0154295
0.00479941
0.00111453
4.10211e-05
1.01479e-05
1e-05
1e-05
1.00088e-05
1.1127e-05
1.41751e-05
1.60946e-05
1.64854e-05
1.63429e-05
1.61907e-05
1.61258e-05
1.61136e-05
1.6117e-05
1.61201e-05
1.61204e-05
1.61194e-05
1.61183e-05
1.61174e-05
1.61168e-05
1.61162e-05
1.61157e-05
1.61153e-05
1.61149e-05
1.61146e-05
1.61144e-05
1.61142e-05
1.61141e-05
1.6114e-05
1.61139e-05
1.61139e-05
1.61139e-05
1.61139e-05
1.61139e-05
1.61139e-05
1.61139e-05
1.61138e-05
1.61138e-05
1.61137e-05
1.61135e-05
1.61132e-05
1.61128e-05
1.61123e-05
1.61117e-05
1.61109e-05
1.611e-05
1.61089e-05
1.61076e-05
1.6106e-05
1.61038e-05
1.61011e-05
1.6098e-05
1.60949e-05
1.60924e-05
1.60899e-05
1.60868e-05
1.60832e-05
1.60795e-05
1.60755e-05
1.60721e-05
1.60726e-05
1.60748e-05
1.60818e-05
1.60835e-05
1.61016e-05
1.61018e-05
0.214008
0.258746
0.288645
0.317026
0.345772
0.357745
0.34539
0.305904
0.239491
0.15308
0.0688514
0.0208205
0.00564686
0.00140341
9.55069e-05
1.10089e-05
1e-05
1e-05
1.00021e-05
1.08355e-05
1.3892e-05
1.60255e-05
1.65115e-05
1.63753e-05
1.6207e-05
1.61309e-05
1.61147e-05
1.61176e-05
1.6121e-05
1.61214e-05
1.61203e-05
1.6119e-05
1.6118e-05
1.61173e-05
1.61167e-05
1.61162e-05
1.61158e-05
1.61154e-05
1.61151e-05
1.61149e-05
1.61147e-05
1.61145e-05
1.61144e-05
1.61143e-05
1.61143e-05
1.61143e-05
1.61143e-05
1.61143e-05
1.61143e-05
1.61142e-05
1.61142e-05
1.61142e-05
1.61141e-05
1.61139e-05
1.61137e-05
1.61133e-05
1.61128e-05
1.61122e-05
1.61114e-05
1.61105e-05
1.61094e-05
1.61082e-05
1.61065e-05
1.61043e-05
1.61016e-05
1.60985e-05
1.60954e-05
1.60928e-05
1.60903e-05
1.60873e-05
1.60836e-05
1.60799e-05
1.60757e-05
1.60723e-05
1.60725e-05
1.60747e-05
1.60817e-05
1.60834e-05
1.61021e-05
0.217832
0.26918
0.303811
0.326785
0.347913
0.366386
0.368542
0.346295
0.296159
0.219077
0.124811
0.0438916
0.00721389
0.000814497
0.000188193
1e-05
1e-05
1e-05
1e-05
1.04199e-05
1.32886e-05
1.58737e-05
1.6553e-05
1.64244e-05
1.62313e-05
1.61382e-05
1.61151e-05
1.61168e-05
1.61209e-05
1.61219e-05
1.61209e-05
1.61196e-05
1.61186e-05
1.61178e-05
1.61173e-05
1.61168e-05
1.61163e-05
1.61159e-05
1.61156e-05
1.61154e-05
1.61152e-05
1.6115e-05
1.61149e-05
1.61148e-05
1.61148e-05
1.61148e-05
1.61148e-05
1.61148e-05
1.61147e-05
1.61147e-05
1.61147e-05
1.61147e-05
1.61146e-05
1.61145e-05
1.61142e-05
1.61138e-05
1.61134e-05
1.61127e-05
1.6112e-05
1.61111e-05
1.611e-05
1.61087e-05
1.61071e-05
1.61049e-05
1.61022e-05
1.60991e-05
1.60959e-05
1.60933e-05
1.60908e-05
1.60877e-05
1.6084e-05
1.60802e-05
1.6076e-05
1.60724e-05
1.60725e-05
1.60747e-05
1.60816e-05
1.60834e-05
0.202679
0.258543
0.300421
0.328245
0.34653
0.362713
0.374811
0.371366
0.344273
0.289397
0.207412
0.110583
0.0326215
0.000730443
0.000164455
1e-05
1e-05
1e-05
1.00003e-05
1.01509e-05
1.23358e-05
1.53622e-05
1.65359e-05
1.65155e-05
1.62802e-05
1.61502e-05
1.61152e-05
1.61155e-05
1.61204e-05
1.61223e-05
1.61217e-05
1.61204e-05
1.61193e-05
1.61185e-05
1.61179e-05
1.61174e-05
1.6117e-05
1.61166e-05
1.61163e-05
1.6116e-05
1.61158e-05
1.61156e-05
1.61155e-05
1.61154e-05
1.61154e-05
1.61153e-05
1.61153e-05
1.61153e-05
1.61153e-05
1.61153e-05
1.61153e-05
1.61153e-05
1.61152e-05
1.61151e-05
1.61148e-05
1.61144e-05
1.6114e-05
1.61133e-05
1.61126e-05
1.61117e-05
1.61106e-05
1.61093e-05
1.61077e-05
1.61055e-05
1.61028e-05
1.60996e-05
1.60965e-05
1.60938e-05
1.60913e-05
1.60881e-05
1.60844e-05
1.60805e-05
1.60764e-05
1.60725e-05
1.60724e-05
1.60747e-05
1.60814e-05
0.172729
0.232722
0.281671
0.317726
0.341534
0.356932
0.369875
0.378306
0.372112
0.343206
0.286813
0.203251
0.106177
0.0281663
0.00724084
1e-05
1e-05
1e-05
1e-05
1e-05
1.09944e-05
1.47826e-05
1.65154e-05
1.65924e-05
1.6359e-05
1.61838e-05
1.61173e-05
1.61121e-05
1.61192e-05
1.61225e-05
1.61224e-05
1.61213e-05
1.61201e-05
1.61193e-05
1.61187e-05
1.61182e-05
1.61177e-05
1.61173e-05
1.61169e-05
1.61167e-05
1.61164e-05
1.61163e-05
1.61161e-05
1.6116e-05
1.6116e-05
1.6116e-05
1.6116e-05
1.61159e-05
1.61159e-05
1.61159e-05
1.61159e-05
1.61159e-05
1.61158e-05
1.61157e-05
1.61154e-05
1.61151e-05
1.61146e-05
1.6114e-05
1.61132e-05
1.61123e-05
1.61112e-05
1.611e-05
1.61084e-05
1.61062e-05
1.61035e-05
1.61002e-05
1.6097e-05
1.60943e-05
1.60918e-05
1.60886e-05
1.60849e-05
1.60809e-05
1.60767e-05
1.60727e-05
1.60724e-05
1.60746e-05
0.130228
0.193699
0.249328
0.294164
0.327082
0.348806
0.362593
0.373403
0.379792
0.372528
0.343483
0.287309
0.204089
0.106409
0.0297839
0.0077366
1.00339e-05
1e-05
1e-05
1e-05
1e-05
1.19259e-05
1.6453e-05
1.7002e-05
1.64543e-05
1.62173e-05
1.61363e-05
1.61117e-05
1.61155e-05
1.61225e-05
1.61237e-05
1.61223e-05
1.6121e-05
1.61201e-05
1.61195e-05
1.61189e-05
1.61185e-05
1.6118e-05
1.61177e-05
1.61174e-05
1.61171e-05
1.61169e-05
1.61168e-05
1.61167e-05
1.61166e-05
1.61166e-05
1.61166e-05
1.61166e-05
1.61166e-05
1.61165e-05
1.61165e-05
1.61165e-05
1.61165e-05
1.61163e-05
1.61161e-05
1.61157e-05
1.61153e-05
1.61146e-05
1.61139e-05
1.6113e-05
1.61119e-05
1.61106e-05
1.6109e-05
1.61069e-05
1.61041e-05
1.61009e-05
1.60976e-05
1.60949e-05
1.60923e-05
1.60891e-05
1.60854e-05
1.60813e-05
1.60771e-05
1.60729e-05
0.0789016
0.142599
0.203892
0.257089
0.299957
0.331577
0.352547
0.365603
0.37497
0.380298
0.373012
0.344891
0.29012
0.208006
0.111278
0.0348966
0.000431327
0.000123197
1e-05
1e-05
1e-05
1.00092e-05
1.24381e-05
1.7592e-05
1.72626e-05
1.62946e-05
1.6098e-05
1.61149e-05
1.61168e-05
1.61174e-05
1.61224e-05
1.61239e-05
1.61224e-05
1.6121e-05
1.61203e-05
1.61198e-05
1.61193e-05
1.61189e-05
1.61185e-05
1.61181e-05
1.61179e-05
1.61177e-05
1.61175e-05
1.61174e-05
1.61173e-05
1.61173e-05
1.61173e-05
1.61173e-05
1.61173e-05
1.61172e-05
1.61172e-05
1.61172e-05
1.61172e-05
1.6117e-05
1.61168e-05
1.61164e-05
1.6116e-05
1.61154e-05
1.61146e-05
1.61137e-05
1.61126e-05
1.61114e-05
1.61097e-05
1.61076e-05
1.61049e-05
1.61016e-05
1.60982e-05
1.60955e-05
1.60929e-05
1.60897e-05
1.60859e-05
1.60817e-05
0.0300099
0.0828727
0.145802
0.206056
0.25849
0.301003
0.332671
0.353879
0.366869
0.375289
0.380194
0.373584
0.34712
0.294504
0.214338
0.119936
0.040269
0.00135821
0.000415034
1e-05
1e-05
1e-05
1.00077e-05
1.19324e-05
1.80003e-05
1.75881e-05
1.62155e-05
1.60018e-05
1.61122e-05
1.61392e-05
1.6125e-05
1.61212e-05
1.61227e-05
1.61225e-05
1.61214e-05
1.61207e-05
1.61202e-05
1.61197e-05
1.61193e-05
1.61189e-05
1.61187e-05
1.61184e-05
1.61183e-05
1.61181e-05
1.61181e-05
1.6118e-05
1.6118e-05
1.6118e-05
1.6118e-05
1.61179e-05
1.61179e-05
1.61179e-05
1.61179e-05
1.61177e-05
1.61175e-05
1.61172e-05
1.61167e-05
1.61161e-05
1.61153e-05
1.61144e-05
1.61134e-05
1.61121e-05
1.61105e-05
1.61084e-05
1.61056e-05
1.61023e-05
1.60989e-05
1.60961e-05
1.60935e-05
0.00323482
0.0283214
0.0794173
0.141517
0.201857
0.25487
0.298277
0.331043
0.353288
0.366765
0.374619
0.379512
0.374053
0.349789
0.299899
0.222851
0.129803
0.0472429
0.00386936
0.00109335
1e-05
1e-05
1e-05
1.00034e-05
1.08093e-05
1.75698e-05
1.80845e-05
1.62473e-05
1.586e-05
1.60524e-05
1.61476e-05
1.6137e-05
1.61231e-05
1.61218e-05
1.61224e-05
1.61218e-05
1.61211e-05
1.61206e-05
1.61202e-05
1.61198e-05
1.61195e-05
1.61192e-05
1.6119e-05
1.61189e-05
1.61188e-05
1.61188e-05
1.61187e-05
1.61187e-05
1.61187e-05
1.61187e-05
1.61187e-05
1.61186e-05
1.61186e-05
1.61185e-05
1.61183e-05
1.6118e-05
1.61175e-05
1.61169e-05
1.61161e-05
1.61152e-05
1.61141e-05
1.61129e-05
1.61113e-05
1.61092e-05
1.61064e-05
1.61031e-05
0.000434974
0.00169969
0.0229207
0.0700618
0.13101
0.192203
0.24686
0.292198
0.32695
0.350952
0.365512
0.373525
0.378495
0.374358
0.352605
0.306009
0.232447
0.140703
0.055761
0.00777213
0.00212106
1e-05
1e-05
1e-05
1.00005e-05
1.00897e-05
1.61998e-05
1.9026e-05
1.67918e-05
1.58962e-05
1.59896e-05
1.613e-05
1.61418e-05
1.61258e-05
1.61218e-05
1.61224e-05
1.61222e-05
1.61216e-05
1.61211e-05
1.61207e-05
1.61204e-05
1.61201e-05
1.61199e-05
1.61197e-05
1.61196e-05
1.61196e-05
1.61195e-05
1.61195e-05
1.61195e-05
1.61195e-05
1.61194e-05
1.61194e-05
1.61194e-05
1.61193e-05
1.61191e-05
1.61188e-05
1.61183e-05
1.61177e-05
1.6117e-05
1.6116e-05
1.6115e-05
1.61137e-05
1e-05
1.02064e-05
0.00397826
0.0159924
0.0571194
0.115594
0.177708
0.234745
0.282881
0.320442
0.346961
0.363392
0.372525
0.377535
0.374653
0.355506
0.31249
0.24242
0.15232
0.0655112
0.0128804
0.00346188
1e-05
1e-05
1e-05
1e-05
1e-05
1.30056e-05
1.84535e-05
1.72277e-05
1.60498e-05
1.59758e-05
1.6113e-05
1.61425e-05
1.61285e-05
1.61228e-05
1.6123e-05
1.61228e-05
1.61222e-05
1.61217e-05
1.61213e-05
1.6121e-05
1.61208e-05
1.61206e-05
1.61205e-05
1.61204e-05
1.61203e-05
1.61203e-05
1.61203e-05
1.61203e-05
1.61203e-05
1.61202e-05
1.61202e-05
1.61201e-05
1.61199e-05
1.61196e-05
1.61192e-05
1e-05
1e-05
1e-05
0.0025283
0.0100879
0.0426803
0.0968052
0.15907
0.218728
0.270324
0.311462
0.341287
0.360396
0.371126
0.376374
0.374786
0.358333
0.318974
0.252519
0.164401
0.0761934
0.0194027
0.00512571
1e-05
1e-05
1e-05
1e-05
1.00088e-05
1.21513e-05
1.77788e-05
1.74596e-05
1.61803e-05
1.59722e-05
1.60977e-05
1.61408e-05
1.61289e-05
1.61225e-05
1.61233e-05
1.61236e-05
1.6123e-05
1.61224e-05
1.6122e-05
1.61217e-05
1.61215e-05
1.61214e-05
1.61213e-05
1.61212e-05
1.61212e-05
1.61212e-05
1.61212e-05
1e-05
1e-05
1e-05
1e-05
0.00120953
0.00470084
0.0287933
0.0763186
0.13722
0.199178
0.254614
0.299961
0.333776
0.35619
0.368989
0.374745
0.374534
0.360834
0.325207
0.262516
0.176666
0.0877988
0.0258338
0.00676815
1.21713e-05
1e-05
1e-05
1e-05
1.00049e-05
1.1178e-05
1.70752e-05
1.76962e-05
1.6313e-05
1.59677e-05
1.60891e-05
1.61489e-05
1.61348e-05
1.61231e-05
)
;

boundaryField
{
    inlet
    {
        type            calculated;
        value           nonuniform List<scalar> 
11
(
1.61e-05
1.61002e-05
1.61003e-05
1.61004e-05
1.61004e-05
1.61004e-05
1.61004e-05
1.61007e-05
1.61012e-05
1.61016e-05
1.61018e-05
)
;
    }
    outlet
    {
        type            calculated;
        value           nonuniform List<scalar> 0();
    }
    walls
    {
        type            calculated;
        value           nonuniform List<scalar> 4(0.00177417 0.00157476 0.00135098 0.000597981);
    }
    frontAndBack
    {
        type            empty;
    }
    procBoundary6to2
    {
        type            processor;
        value           nonuniform List<scalar> 
13
(
0.126628
0.1499
0.151249
0.135171
0.104392
0.0648485
0.0257793
0.00296121
0.000817119
1e-05
1e-05
1.00113e-05
1.34433e-05
)
;
    }
    procBoundary6to3
    {
        type            processor;
        value           uniform 1.57537e-05;
    }
    procBoundary6to5
    {
        type            processor;
        value           nonuniform List<scalar> 
86
(
0.0928039
0.159352
0.20346
0.193241
0.124152
0.0381048
0.00167554
0.0004133
1e-05
1e-05
1.00152e-05
1.38669e-05
1.84588e-05
1.66784e-05
1.56341e-05
1.5818e-05
1.6192e-05
1.6312e-05
1.62446e-05
1.61524e-05
1.6104e-05
1.60944e-05
1.61003e-05
1.61068e-05
1.61098e-05
1.61102e-05
1.61096e-05
1.6109e-05
1.61086e-05
1.61084e-05
1.61083e-05
1.61083e-05
1.61083e-05
1.61083e-05
1.61076e-05
1.61077e-05
1.61078e-05
1.6108e-05
1.61082e-05
1.61084e-05
1.61086e-05
1.61088e-05
1.6109e-05
1.61092e-05
1.61094e-05
1.61096e-05
1.61096e-05
1.61093e-05
1.61094e-05
1.61095e-05
1.61095e-05
1.61094e-05
1.61093e-05
1.61091e-05
1.61089e-05
1.61085e-05
1.61085e-05
1.61075e-05
1.61068e-05
1.61061e-05
1.61053e-05
1.61044e-05
1.61032e-05
1.61019e-05
1.61019e-05
1.60993e-05
1.60971e-05
1.60946e-05
1.6092e-05
1.60893e-05
1.60867e-05
1.60842e-05
1.60842e-05
1.6081e-05
1.60784e-05
1.60758e-05
1.60732e-05
1.6071e-05
1.60715e-05
1.60743e-05
1.60776e-05
1.60816e-05
1.60816e-05
1.60846e-05
1.60898e-05
1.60997e-05
)
;
    }
    procBoundary6to7
    {
        type            processor;
        value           nonuniform List<scalar> 
91
(
1.6102e-05
1.6102e-05
1.61027e-05
1.61027e-05
1.60833e-05
1.60833e-05
1.60813e-05
1.60723e-05
1.60813e-05
1.60746e-05
1.60774e-05
1.60723e-05
1.60731e-05
1.60902e-05
1.60864e-05
1.60774e-05
1.60822e-05
1.60996e-05
1.60967e-05
1.60902e-05
1.60941e-05
1.61121e-05
1.611e-05
1.61073e-05
1.60996e-05
1.61039e-05
1.61186e-05
1.61178e-05
1.61169e-05
1.61158e-05
1.61121e-05
1.61146e-05
1.61211e-05
1.61211e-05
1.61211e-05
1.6121e-05
1.61208e-05
1.61205e-05
1.61186e-05
1.61201e-05
1.61227e-05
1.61235e-05
1.61233e-05
1.6123e-05
1.61228e-05
1.61225e-05
1.61223e-05
1.61222e-05
1.61221e-05
1.61221e-05
1.61221e-05
1.61211e-05
1.61221e-05
1.00046e-05
1e-05
1e-05
1e-05
0.000151354
0.000462217
0.0161172
0.0552021
0.112673
0.176097
0.235521
0.285629
0.324085
0.350425
0.365823
0.372628
0.373759
0.362761
0.330904
0.272118
0.189041
0.100006
0.03225
0.00113796
0.000360273
1e-05
1e-05
1e-05
1.00018e-05
1.04093e-05
1.61935e-05
1.80246e-05
1.64576e-05
1.59059e-05
1.60327e-05
1.61416e-05
1.61227e-05
1.61419e-05
)
;
    }
}


// ************************************************************************* //
