# p  FACE_DATA 600
# x y z  p
0.29893883 -0.05 -0.060006728 21785.467
0.29682219 -0.05 -0.060005155 21782.512
0.29471691 -0.05 -0.060001576 21780.975
0.29262294 -0.05 -0.05999591 21779.574
0.29054021 -0.05 -0.059988277 21777.843
0.28846868 -0.05 -0.059978645 21777.338
0.28640827 -0.05 -0.059967019 21776.099
0.28435895 -0.05 -0.059953476 21775.58
0.28232063 -0.05 -0.05993795 21775.391
0.28029328 -0.05 -0.059920485 21775.188
0.27827682 -0.05 -0.059901123 21775.097
0.27627121 -0.05 -0.059879855 21775.428
0.27427639 -0.05 -0.05985667 21776.107
0.2722923 -0.05 -0.059831621 21776.698
0.27031889 -0.05 -0.059804697 21778.086
0.26835611 -0.05 -0.05977592 21779.031
0.26640388 -0.05 -0.059745343 21780.328
0.26446217 -0.05 -0.059712935 21781.914
0.26253092 -0.05 -0.059678711 21783.702
0.26061007 -0.05 -0.059642689 21785.833
0.25869958 -0.05 -0.059604861 21788.321
0.25679938 -0.05 -0.059565286 21790.575
0.25490942 -0.05 -0.05952394 21793.865
0.25302965 -0.05 -0.059480842 21796.53
0.25116001 -0.05 -0.059436049 21799.669
0.24930047 -0.05 -0.059389521 21803.099
0.24745095 -0.05 -0.059341283 21806.791
0.24561141 -0.05 -0.059291325 21811.138
0.24378182 -0.05 -0.05923967 21815.397
0.24196209 -0.05 -0.059186367 21819.786
0.24015219 -0.05 -0.059131421 21824.345
0.23835206 -0.05 -0.059074821 21829.232
0.23656166 -0.05 -0.059016618 21833.861
0.23478094 -0.05 -0.058956769 21839.948
0.23300984 -0.05 -0.05889526 21845.378
0.23124831 -0.05 -0.05883224 21850.411
0.22949632 -0.05 -0.058767617 21857.162
0.22775381 -0.05 -0.058701363 21863.489
0.22602072 -0.05 -0.058633589 21869.871
0.22429701 -0.05 -0.058564274 21876.493
0.22258262 -0.05 -0.058493448 21883.012
0.22087752 -0.05 -0.058421069 21890.937
0.21918166 -0.05 -0.058347133 21898.404
0.21749499 -0.05 -0.058271732 21905.933
0.21581745 -0.05 -0.058194856 21913.669
0.21414901 -0.05 -0.058116493 21921.845
0.21248962 -0.05 -0.058036649 21930.251
0.21083923 -0.05 -0.057955337 21939.021
0.20919779 -0.05 -0.057872577 21947.764
0.20756526 -0.05 -0.057788393 21956.846
0.20594158 -0.05 -0.057702763 21966.488
0.20432674 -0.05 -0.057615707 21976.003
0.20272065 -0.05 -0.057527278 21985.417
0.20112329 -0.05 -0.057437457 21995.489
0.19953461 -0.05 -0.05734625 22005.777
0.19795458 -0.05 -0.057253621 22017.114
0.19638314 -0.05 -0.057159665 22026.959
0.19482023 -0.05 -0.05706438 22038.543
0.19326583 -0.05 -0.056967732 22049.33
0.19171991 -0.05 -0.05686975 22061.148
0.19018239 -0.05 -0.056770463 22072.025
0.18865324 -0.05 -0.056669846 22084.757
0.18713243 -0.05 -0.056567899 22096.437
0.18561991 -0.05 -0.056464666 22109.487
0.18411564 -0.05 -0.056360132 22122.027
0.18261956 -0.05 -0.056254317 22135.479
0.18113166 -0.05 -0.056147258 22147.731
0.17965186 -0.05 -0.056038987 22161.054
0.17818015 -0.05 -0.05592942 22174.984
0.17671648 -0.05 -0.055818588 22188.894
0.1752608 -0.05 -0.05570656 22202.531
0.17381308 -0.05 -0.055593324 22216.994
0.17237329 -0.05 -0.055478844 22231.617
0.17094135 -0.05 -0.055363199 22245.797
0.16951726 -0.05 -0.055246341 22261.612
0.16810096 -0.05 -0.055128258 22276.651
0.16669242 -0.05 -0.05500905 22291.857
0.16529159 -0.05 -0.054888659 22308.029
0.16389844 -0.05 -0.054767078 22324.107
0.16251293 -0.05 -0.054644372 22339.991
0.16113501 -0.05 -0.054520532 22356.324
0.15976465 -0.05 -0.054395554 22372.645
0.15840181 -0.05 -0.054269449 22389.763
0.15704647 -0.05 -0.054142171 22407.636
0.15569856 -0.05 -0.05401378 22424.688
0.15435807 -0.05 -0.053884336 22441.831
0.15302494 -0.05 -0.053753791 22459.405
0.15169915 -0.05 -0.053622161 22477.089
0.15038066 -0.05 -0.053489407 22496.2
0.14906942 -0.05 -0.053355551 22514.525
0.1477654 -0.05 -0.053220679 22533.167
0.14646858 -0.05 -0.053084715 22552.918
0.1451789 -0.05 -0.052947683 22571.845
0.14389634 -0.05 -0.052809659 22590.849
0.14262085 -0.05 -0.05267058 22610.953
0.14135242 -0.05 -0.052530426 22631.337
0.14009099 -0.05 -0.052389231 22651.905
0.13883653 -0.05 -0.052247037 22672.124
0.137589 -0.05 -0.052103837 22692.997
0.13634838 -0.05 -0.051959625 22713.362
0.13511461 -0.05 -0.051814476 22733.925
0.1338877 -0.05 -0.051668228 22757.44
0.13266759 -0.05 -0.051520967 22777.565
0.13145422 -0.05 -0.051372868 22798.541
0.13024759 -0.05 -0.051223701 22821.932
0.12904768 -0.05 -0.051073498 22844.081
0.12785442 -0.05 -0.050922382 22866.433
0.12666779 -0.05 -0.050770304 22889.5
0.12548777 -0.05 -0.050617245 22913.191
0.12431431 -0.05 -0.050463216 22936.503
0.12314738 -0.05 -0.050308326 22958.557
0.12198694 -0.05 -0.050152493 22983.393
0.12083298 -0.05 -0.049995623 23008.112
0.11968546 -0.05 -0.049837846 23032.18
0.11854435 -0.05 -0.049679177 23056.706
0.11740961 -0.05 -0.049519574 23081.735
0.11628121 -0.05 -0.049359037 23107.176
0.11515913 -0.05 -0.049197589 23132.658
0.11404333 -0.05 -0.049035234 23158.448
0.11293377 -0.05 -0.048871989 23183.97
0.11183042 -0.05 -0.048707847 23209.926
0.11073327 -0.05 -0.048542821 23235.711
0.10964229 -0.05 -0.048376866 23263.143
0.10855744 -0.05 -0.048209982 23289.917
0.10747868 -0.05 -0.048042235 23317.127
0.106406 -0.05 -0.04787359 23344.921
0.10533935 -0.05 -0.047704062 23372.946
0.10427873 -0.05 -0.047533647 23401.428
0.10322407 -0.05 -0.047362394 23428.777
0.10217536 -0.05 -0.04719032 23457.055
0.10113259 -0.05 -0.047017348 23486.503
0.10009572 -0.05 -0.046843455 23516.779
0.099064719 -0.05 -0.046668685 23546.283
0.098039551 -0.05 -0.046493118 23574.967
0.097020189 -0.05 -0.046316733 23604.562
0.096006622 -0.05 -0.046139442 23635.676
0.094998822 -0.05 -0.045961241 23666.799
0.09399675 -0.05 -0.045782217 23697.221
0.093000378 -0.05 -0.045602371 23728.357
0.092009685 -0.05 -0.045421665 23759.744
0.091024643 -0.05 -0.045240119 23791.487
0.090045231 -0.05 -0.045057701 23824.336
0.089071419 -0.05 -0.044874427 23856.572
0.088103174 -0.05 -0.044690349 23888.967
0.087140475 -0.05 -0.044505439 23921.827
0.086183302 -0.05 -0.044319662 23955.523
0.08523163 -0.05 -0.044133032 23989.119
0.084285425 -0.05 -0.043945577 24022.916
0.083344663 -0.05 -0.043757308 24056.945
0.082409325 -0.05 -0.043568191 24092.288
0.081479395 -0.05 -0.04337819 24127.839
0.080554831 -0.05 -0.043187382 24162.38
0.079635606 -0.05 -0.042995792 24197.711
0.078721718 -0.05 -0.042803304 24234.635
0.077813136 -0.05 -0.042609969 24270.445
0.076909826 -0.05 -0.042415818 24307.755
0.07601178 -0.05 -0.042220793 24345.255
0.075118966 -0.05 -0.042024932 24382.907
0.074231361 -0.05 -0.041828237 24420.521
0.073348935 -0.05 -0.04163074 24458.075
0.07247168 -0.05 -0.041432371 24497.398
0.071599572 -0.05 -0.041233139 24535.851
0.070732584 -0.05 -0.041033074 24575.47
0.069870697 -0.05 -0.040832148 24614.76
0.069013884 -0.05 -0.040630397 24654.717
0.068162134 -0.05 -0.040427777 24695.412
0.067315419 -0.05 -0.040224307 24736.102
0.06647372 -0.05 -0.040019973 24778.166
0.065637027 -0.05 -0.039814748 24820.587
0.06480531 -0.05 -0.039608654 24863.358
0.063978543 -0.05 -0.039401719 24905.606
0.063156706 -0.05 -0.039193946 24948.421
0.062339788 -0.05 -0.038985285 24991.82
0.061527775 -0.05 -0.038775725 25035.995
0.060720649 -0.05 -0.038565255 25080.89
0.059918385 -0.05 -0.038353894 25126.059
0.059120963 -0.05 -0.03814165 25171.826
0.058328367 -0.05 -0.037928504 25218.025
0.057540574 -0.05 -0.037714473 25263.955
0.056757564 -0.05 -0.037499568 25310.341
0.055979326 -0.05 -0.037283751 25357.986
0.055205861 -0.05 -0.03706696 25407.245
0.054437143 -0.05 -0.036849222 25456.175
0.053673142 -0.05 -0.036630582 25505.382
0.052913841 -0.05 -0.036411033 25554.634
0.052159229 -0.05 -0.036190552 25605.172
0.051409301 -0.05 -0.035969101 25656.711
0.050664044 -0.05 -0.035746666 25708.674
0.049923426 -0.05 -0.035523297 25760.232
0.049187444 -0.05 -0.035298949 25813.719
0.048456093 -0.05 -0.035073588 25866.825
0.047729343 -0.05 -0.034847258 25920.472
0.047007184 -0.05 -0.034619944 25974.732
0.046289611 -0.05 -0.034391604 26030.449
0.045576607 -0.05 -0.034162251 26086.034
0.044868158 -0.05 -0.033931882 26142.945
0.044164259 -0.05 -0.033700464 26200.015
0.043464894 -0.05 -0.033468005 26257.924
0.042770054 -0.05 -0.033234488 26316.334
0.042079734 -0.05 -0.032999885 26376.24
0.041393929 -0.05 -0.032764174 26436.817
0.040712625 -0.05 -0.032527361 26497.962
0.040035798 -0.05 -0.032289471 26558.908
0.039363443 -0.05 -0.032050489 26621.18
0.038695563 -0.05 -0.031810365 26684.803
0.038032168 -0.05 -0.031569045 26750.094
0.037373226 -0.05 -0.031326581 26814.737
0.036718733 -0.05 -0.03108296 26881.023
0.036068678 -0.05 -0.030838173 26946.723
0.035423063 -0.05 -0.030592193 27015.599
0.034781926 -0.05 -0.030344894 27085.449
0.034145213 -0.05 -0.030096392 27154.438
0.033512917 -0.05 -0.029846677 27225.403
0.032885063 -0.05 -0.029595666 27297.405
0.032261651 -0.05 -0.029343341 27371.124
0.031642676 -0.05 -0.029089692 27445.006
0.031028119 -0.05 -0.028834753 27519.317
0.030417981 -0.05 -0.028578493 27595.278
0.029812303 -0.05 -0.028320809 27673.721
0.029211079 -0.05 -0.028061701 27752.171
0.028614285 -0.05 -0.027801211 27831.21
0.028021925 -0.05 -0.027539318 27911.242
0.027434034 -0.05 -0.027275938 27993.688
0.02685062 -0.05 -0.027011044 28076.303
0.026271654 -0.05 -0.026744689 28159.989
0.025697179 -0.05 -0.02647678 28246.04
0.025127212 -0.05 -0.026207275 28332.561
0.024561729 -0.05 -0.025936225 28419.752
0.024000753 -0.05 -0.025663583 28509.099
0.023444337 -0.05 -0.025389243 28600.326
0.022892447 -0.05 -0.025113275 28691.94
0.022345135 -0.05 -0.024835581 28787.775
0.02180243 -0.05 -0.024556113 28883.285
0.021264293 -0.05 -0.024274957 28981.073
0.020730799 -0.05 -0.023991978 29081.763
0.020201992 -0.05 -0.023707109 29184.055
0.019677841 -0.05 -0.023420417 29286.84
0.019158403 -0.05 -0.023131824 29392.929
0.018643727 -0.05 -0.022841258 29500.009
0.018133826 -0.05 -0.022548716 29609.302
0.017628739 -0.05 -0.022254151 29719.385
0.017128472 -0.05 -0.021957583 29831.424
0.016633127 -0.05 -0.021658866 29946.851
0.016142724 -0.05 -0.021358 30062.421
0.015657283 -0.05 -0.021054987 30180.627
0.015176888 -0.05 -0.020749728 30300.265
0.014701579 -0.05 -0.020442197 30421.926
0.014231398 -0.05 -0.020132368 30545.112
0.013766434 -0.05 -0.019820157 30671.255
0.013306742 -0.05 -0.019505528 30798.407
0.012852374 -0.05 -0.019188457 30928.406
0.012403438 -0.05 -0.018868841 31060.334
0.01195997 -0.05 -0.018546687 31193.928
0.011522076 -0.05 -0.018221915 31329.979
0.011089809 -0.05 -0.017894515 31467.18
0.0106633 -0.05 -0.017564386 31607.916
0.010242659 -0.05 -0.017231451 31749.034
0.009827894 -0.05 -0.016895788 31891.439
0.0094192167 -0.05 -0.016557218 32036.755
0.0090167438 -0.05 -0.016215673 32182.546
0.0086204858 -0.05 -0.015871238 32330.455
0.0082306648 -0.05 -0.015523765 32481.247
0.0078474301 -0.05 -0.015173186 32632.533
0.00747084 -0.05 -0.014819531 32784.581
0.0071010571 -0.05 -0.014462741 32937.543
0.0067383047 -0.05 -0.014102728 33092.114
0.0063827544 -0.05 -0.013739427 33247.345
0.0060345067 -0.05 -0.013372862 33402.374
0.0056937565 -0.05 -0.013003011 33557.13
0.0053606882 -0.05 -0.012629837 33710.853
0.0050354824 -0.05 -0.012253323 33863.42
0.0047183926 -0.05 -0.01187344 34014.548
0.0044096379 -0.05 -0.011490161 34163.514
0.0041094132 -0.05 -0.011103483 34309.612
0.0038179536 -0.05 -0.010713443 34452.105
0.0035354728 -0.05 -0.01032007 34590.053
0.0032621919 -0.05 -0.0099233916 34722.746
0.0029983702 -0.05 -0.0095234712 34849.327
0.0027442429 -0.05 -0.0091203468 34968.888
0.0025000604 -0.05 -0.0087141009 35080.461
0.0022660754 -0.05 -0.0083048554 35183.072
0.0020425146 -0.05 -0.0078926699 35275.444
0.0018296563 -0.05 -0.0074776735 35355.532
0.0016277487 -0.05 -0.0070600556 35421.653
0.0014369745 -0.05 -0.006639968 35475.03
0.0012575291 -0.05 -0.0062175973 35515.69
0.0010896146 -0.05 -0.0057931737 35540.249
0.00093341057 -0.05 -0.0053669215 35547.57
0.00078906403 -0.05 -0.0049390744 35537.736
0.00065670868 -0.05 -0.0045099017 35509.507
0.00053653171 -0.05 -0.0040796665 35464.118
0.00042862038 -0.05 -0.003648665 35401.911
0.00033294635 -0.05 -0.003217232 35318.357
0.00024951873 -0.05 -0.002785685 35213.634
0.00017832255 -0.05 -0.0023543467 35089.09
0.00011930806 -0.05 -0.0019235435 34944.555
7.2389968e-05 -0.05 -0.0014936046 34779.971
3.7448893e-05 -0.05 -0.0010648563 34596.06
1.4332163e-05 -0.05 -0.0006376208 34394.438
2.8544133e-06 -0.05 -0.00021221054 34175.288
0.99884037 -0.05 -0.00016828408 26525.66
0.99652103 -0.05 -0.00050440213 26467.501
0.99420154 -0.05 -0.00083952039 26395.736
0.99188191 -0.05 -0.0011736208 26336.072
0.98956214 -0.05 -0.0015067636 26277.622
0.98724224 -0.05 -0.001838948 26222.942
0.9849222 -0.05 -0.0021701637 26170.401
0.98260201 -0.05 -0.0025004302 26119.9
0.9802817 -0.05 -0.0028297328 26071.351
0.97796124 -0.05 -0.0031580577 26024.324
0.97564065 -0.05 -0.0034854377 25978.802
0.97331994 -0.05 -0.0038118591 25934.659
0.97099908 -0.05 -0.0041373159 25891.815
0.96867808 -0.05 -0.0044618578 25849.968
0.96635697 -0.05 -0.0047854478 25809.518
0.96403572 -0.05 -0.0051081172 25769.639
0.96171435 -0.05 -0.0054299032 25730.971
0.95939284 -0.05 -0.0057507069 25693.351
0.95707121 -0.05 -0.0060705875 25656.379
0.95474946 -0.05 -0.0063895914 25620.291
0.95242757 -0.05 -0.0067076389 25585.244
0.95010556 -0.05 -0.0070248024 25550.41
0.94778343 -0.05 -0.0073411104 25516.598
0.94546118 -0.05 -0.0076564368 25483.704
0.9431388 -0.05 -0.0079708659 25451.093
0.94081631 -0.05 -0.0082844406 25419.262
0.93849369 -0.05 -0.0085971026 25388.103
0.93617096 -0.05 -0.0089088655 25357.498
0.93384811 -0.05 -0.0092197818 25327.212
0.93152514 -0.05 -0.0095298292 25297.691
0.92920204 -0.05 -0.00983897 25268.647
0.92687884 -0.05 -0.010147248 25240.049
0.92455553 -0.05 -0.01045465 25212.001
0.92223209 -0.05 -0.01076119 25184.261
0.91990855 -0.05 -0.011066875 25157.141
0.91758488 -0.05 -0.011371653 25130.617
0.91526111 -0.05 -0.011675608 25103.975
0.91293723 -0.05 -0.011978761 25078
0.91061324 -0.05 -0.012281 25052.658
0.90828913 -0.05 -0.012582372 25027.402
0.90596492 -0.05 -0.012882964 25002.34
0.90364059 -0.05 -0.013182677 24978.263
0.90131615 -0.05 -0.013481494 24954.163
0.89899162 -0.05 -0.013779572 24929.894
0.89666698 -0.05 -0.014076841 24906.523
0.89434223 -0.05 -0.014373142 24883.84
0.89201737 -0.05 -0.01466868 24860.323
0.88969241 -0.05 -0.014963453 24837.994
0.88736734 -0.05 -0.0152573 24815.867
0.88504217 -0.05 -0.015550344 24793.718
0.88271689 -0.05 -0.015842646 24771.626
0.88039152 -0.05 -0.016134071 24750.605
0.87806604 -0.05 -0.016424635 24729.222
0.87574046 -0.05 -0.016714466 24708.103
0.87341478 -0.05 -0.017003468 24687.445
0.871089 -0.05 -0.017291665 24666.75
0.86876312 -0.05 -0.017579058 24646.554
0.86643714 -0.05 -0.017865646 24626.29
0.86411107 -0.05 -0.018151445 24606.507
0.86178489 -0.05 -0.018436407 24586.902
0.85945862 -0.05 -0.018720606 24567.147
0.85713225 -0.05 -0.019004019 24548.001
0.85480578 -0.05 -0.019286574 24529.175
0.85247922 -0.05 -0.019568356 24510.102
0.85015256 -0.05 -0.019849417 24491.169
0.84782581 -0.05 -0.020129657 24472.854
0.84549896 -0.05 -0.020409081 24454.354
0.84317202 -0.05 -0.020687756 24435.986
0.84084499 -0.05 -0.020965643 24417.995
0.83851785 -0.05 -0.021242672 24400.572
0.83619063 -0.05 -0.021518954 24382.462
0.83386332 -0.05 -0.021794529 24364.867
0.83153592 -0.05 -0.022069294 24347.453
0.82920841 -0.05 -0.022343258 24330.252
0.82688083 -0.05 -0.02261648 24312.759
0.82455315 -0.05 -0.022888925 24295.912
0.82222538 -0.05 -0.023160547 24279.131
0.81989751 -0.05 -0.023431389 24262.553
0.81756957 -0.05 -0.023701495 24245.744
0.81524153 -0.05 -0.023970846 24229.364
0.8129134 -0.05 -0.024239417 24212.892
0.81058518 -0.05 -0.02450723 24196.664
0.80825687 -0.05 -0.024774259 24180.574
0.80592849 -0.05 -0.02504053 24164.505
0.8036 -0.05 -0.025306023 24148.713
0.80127144 -0.05 -0.025570775 24132.582
0.79894279 -0.05 -0.025834763 24117.112
0.79661404 -0.05 -0.026097924 24101.623
0.79428522 -0.05 -0.026360374 24085.842
0.79195631 -0.05 -0.026622048 24070.815
0.78962731 -0.05 -0.026882938 24055.328
0.78729823 -0.05 -0.027143126 24040.055
0.78496906 -0.05 -0.027402516 24025.093
0.78263981 -0.05 -0.02766117 24009.642
0.78031048 -0.05 -0.027919081 23994.88
0.77798106 -0.05 -0.028176144 23980.298
0.77565155 -0.05 -0.028432494 23965.128
0.77332196 -0.05 -0.028688107 23950.668
0.77099228 -0.05 -0.028942907 23936.081
0.76866253 -0.05 -0.029196968 23921.474
0.7663327 -0.05 -0.029450285 23906.943
0.76400278 -0.05 -0.029702803 23892.797
0.76167277 -0.05 -0.029954568 23878.281
0.75934268 -0.05 -0.030205572 23864.343
0.75701251 -0.05 -0.030455803 23850.018
0.75468227 -0.05 -0.030705313 23835.847
0.75235194 -0.05 -0.030954045 23821.804
0.75002152 -0.05 -0.031202018 23807.707
0.74769103 -0.05 -0.031449207 23793.978
0.74536045 -0.05 -0.031695625 23779.992
0.74302979 -0.05 -0.031941289 23766.254
0.74069906 -0.05 -0.032186181 23752.437
0.73836824 -0.05 -0.032430305 23738.884
0.73603734 -0.05 -0.032673645 23725.352
0.73370637 -0.05 -0.032916233 23711.631
0.73137531 -0.05 -0.033158092 23697.88
0.72904417 -0.05 -0.033399148 23684.726
0.72671295 -0.05 -0.033639378 23671.446
0.72438166 -0.05 -0.03387888 23657.772
0.72205028 -0.05 -0.034117645 23644.422
0.71971882 -0.05 -0.034355552 23631.626
0.71738728 -0.05 -0.034592685 23618.077
0.71505567 -0.05 -0.034829099 23604.944
0.71272397 -0.05 -0.035064674 23592.069
0.71039219 -0.05 -0.035299486 23578.706
0.70806035 -0.05 -0.035533544 23565.816
0.70572841 -0.05 -0.035766778 23552.885
0.70339641 -0.05 -0.035999269 23539.62
0.70106432 -0.05 -0.03623098 23526.715
0.69873216 -0.05 -0.036461891 23513.592
0.69639992 -0.05 -0.036691978 23500.974
0.69406759 -0.05 -0.036921269 23487.921
0.69173519 -0.05 -0.037149739 23475.722
0.68940271 -0.05 -0.037377398 23462.758
0.68707015 -0.05 -0.037604327 23449.879
0.68473751 -0.05 -0.037830471 23436.953
0.68240481 -0.05 -0.038055756 23424.682
0.68007201 -0.05 -0.038280206 23412.002
0.67773914 -0.05 -0.038503859 23399.636
0.67540619 -0.05 -0.03872673 23386.755
0.67307317 -0.05 -0.038948784 23374.468
0.67074007 -0.05 -0.039170028 23361.514
0.66840689 -0.05 -0.039390456 23349.283
0.66607364 -0.05 -0.039610024 23336.704
0.6637403 -0.05 -0.039828774 23324.466
0.66140688 -0.05 -0.040046678 23312.046
0.65907339 -0.05 -0.040263799 23299.344
0.65673983 -0.05 -0.040480085 23287.14
0.65440619 -0.05 -0.040695489 23274.874
0.65207246 -0.05 -0.040910082 23262.369
0.64973866 -0.05 -0.041123838 23250.119
0.64740479 -0.05 -0.04133674 23237.699
0.64507083 -0.05 -0.041548788 23225.586
0.6427368 -0.05 -0.04175995 23213.499
0.64040268 -0.05 -0.041970278 23201.129
0.6380685 -0.05 -0.042179754 23189.047
0.63573424 -0.05 -0.042388356 23176.787
0.63339989 -0.05 -0.042596094 23164.713
0.63106547 -0.05 -0.042802945 23152.59
0.62873098 -0.05 -0.043008941 23140.308
0.6263964 -0.05 -0.043214055 23128.32
0.62406175 -0.05 -0.043418269 23116.263
0.62172701 -0.05 -0.043621601 23104.17
0.61939221 -0.05 -0.043824069 23091.835
0.61705733 -0.05 -0.044025645 23079.888
0.61472237 -0.05 -0.044226271 23068.114
0.61238733 -0.05 -0.044426006 23055.891
0.61005222 -0.05 -0.04462488 23043.68
0.60771702 -0.05 -0.044822825 23031.784
0.60538174 -0.05 -0.045019806 23020.082
0.6030464 -0.05 -0.045215861 23008.167
0.60071097 -0.05 -0.045411024 22996.19
0.59837546 -0.05 -0.045605254 22984.397
0.59603988 -0.05 -0.045798556 22972.284
0.59370422 -0.05 -0.045990938 22960.295
0.59136849 -0.05 -0.046182352 22948.47
0.58903267 -0.05 -0.046372791 22936.744
0.58669678 -0.05 -0.046562266 22924.913
0.5843608 -0.05 -0.046750814 22912.815
0.58202475 -0.05 -0.046938396 22901.152
0.57968862 -0.05 -0.047124972 22889.462
0.57735242 -0.05 -0.047310578 22877.582
0.57501614 -0.05 -0.04749525 22865.405
0.57267978 -0.05 -0.047678924 22853.866
0.57034334 -0.05 -0.04786155 22842.297
0.56800682 -0.05 -0.048043188 22830.526
0.56567024 -0.05 -0.048223861 22818.516
0.56333356 -0.05 -0.048403536 22806.805
0.56099681 -0.05 -0.048582153 22795.368
0.55865998 -0.05 -0.04875972 22783.785
0.55632308 -0.05 -0.048936314 22771.671
0.55398609 -0.05 -0.049111879 22760.174
0.55164903 -0.05 -0.049286359 22748.478
0.54931189 -0.05 -0.049459794 22736.89
0.54697467 -0.05 -0.049632163 22725.373
0.54463737 -0.05 -0.049803468 22713.838
0.5423 -0.05 -0.049973718 22702.186
0.53996254 -0.05 -0.050142913 22690.496
0.53762502 -0.05 -0.050311035 22678.87
0.53528741 -0.05 -0.050478054 22667.455
0.53294972 -0.05 -0.050643972 22655.842
0.53061196 -0.05 -0.050808824 22644.062
0.52827412 -0.05 -0.050972558 22632.676
0.5259362 -0.05 -0.051135143 22621.223
0.5235982 -0.05 -0.051296612 22609.794
0.52126012 -0.05 -0.051456922 22598.614
0.51892198 -0.05 -0.051616121 22586.865
0.51658374 -0.05 -0.051774162 22575.911
0.51424543 -0.05 -0.051931037 22564.181
0.51190704 -0.05 -0.05208678 22552.976
0.50956857 -0.05 -0.052241321 22541.745
0.50723003 -0.05 -0.052394685 22530.469
0.50489141 -0.05 -0.052546885 22518.986
0.50255271 -0.05 -0.05269791 22507.641
0.50021394 -0.05 -0.052847701 22496.601
0.49787509 -0.05 -0.052996281 22485.232
0.49553616 -0.05 -0.053143654 22474.062
0.49319715 -0.05 -0.053289801 22462.713
0.49085807 -0.05 -0.053434697 22451.802
0.48851891 -0.05 -0.05357832 22440.847
0.48617967 -0.05 -0.053720679 22430.033
0.48384035 -0.05 -0.053861795 22418.804
0.48150097 -0.05 -0.054001669 22407.737
0.4791615 -0.05 -0.054140241 22396.829
0.47682195 -0.05 -0.054277501 22386.01
0.47448234 -0.05 -0.054413462 22375.149
0.47214264 -0.05 -0.054548109 22364.409
0.46980287 -0.05 -0.054681459 22353.285
0.46746302 -0.05 -0.054813494 22342.465
0.4651231 -0.05 -0.054944178 22331.553
0.46278311 -0.05 -0.055073496 22320.958
0.46044304 -0.05 -0.055201437 22310.28
0.45810288 -0.05 -0.055328007 22299.737
0.45576266 -0.05 -0.055453195 22289.137
0.45342237 -0.05 -0.055576996 22278.678
0.451082 -0.05 -0.05569938 22268.322
0.44874156 -0.05 -0.055820362 22257.711
0.44640104 -0.05 -0.055939944 22247.301
0.44406046 -0.05 -0.056058045 22237.329
0.44171979 -0.05 -0.056174717 22226.56
0.43937906 -0.05 -0.05628996 22216.429
0.43703826 -0.05 -0.056403696 22206.184
0.43469738 -0.05 -0.056515954 22196.114
0.43235643 -0.05 -0.056626691 22186.3
0.43001541 -0.05 -0.056735938 22176.008
0.42767432 -0.05 -0.056843696 22165.969
0.42533316 -0.05 -0.056949929 22155.878
0.42299193 -0.05 -0.057054582 22146.487
0.42065064 -0.05 -0.05715767 22136.509
0.41830927 -0.05 -0.057259223 22126.851
0.41596783 -0.05 -0.057359191 22117.136
0.41362634 -0.05 -0.057457551 22107.863
0.41128476 -0.05 -0.057554292 22098.391
0.40894313 -0.05 -0.057649427 22088.978
0.40660142 -0.05 -0.057742965 22079.269
0.40425966 -0.05 -0.057834838 22070.368
0.40191783 -0.05 -0.057925023 22061.065
0.39957593 -0.05 -0.058013541 22052.142
0.39723398 -0.05 -0.058100379 22042.853
0.39489196 -0.05 -0.058185525 22034.083
0.39254988 -0.05 -0.058268918 22025.417
0.39020774 -0.05 -0.05835059 22016.552
0.38786553 -0.05 -0.058430541 22007.856
0.38552326 -0.05 -0.058508715 21999.501
0.38318094 -0.05 -0.058585094 21991.211
0.38083857 -0.05 -0.058659688 21982.912
0.37849613 -0.05 -0.058732482 21974.645
0.37615364 -0.05 -0.058803471 21966.34
0.37381109 -0.05 -0.058872605 21958.62
0.37146848 -0.05 -0.058939856 21950.864
0.36912583 -0.05 -0.059005237 21943.289
0.36678312 -0.05 -0.059068742 21935.591
0.36444037 -0.05 -0.059130354 21928.115
0.36209757 -0.05 -0.059190049 21920.512
0.35975471 -0.05 -0.059247824 21913.185
0.35741181 -0.05 -0.059303603 21906.435
0.35506886 -0.05 -0.059357402 21899.366
0.35272586 -0.05 -0.059409225 21892.703
0.35038283 -0.05 -0.059459044 21885.789
0.34803975 -0.05 -0.059506859 21879.273
0.34569662 -0.05 -0.059552581 21873.251
0.34335347 -0.05 -0.059596249 21866.676
0.34101027 -0.05 -0.059637862 21860.737
0.33866703 -0.05 -0.059677333 21854.975
0.33632377 -0.05 -0.059714702 21849.116
0.33398046 -0.05 -0.059749909 21844.023
0.33163712 -0.05 -0.059782951 21838.307
0.32929376 -0.05 -0.059813858 21832.969
0.32695037 -0.05 -0.059842535 21828.121
0.32460696 -0.05 -0.059868969 21823.424
0.32226351 -0.05 -0.059893141 21819.112
0.31992004 -0.05 -0.059915067 21814.438
0.31757656 -0.05 -0.059934727 21810.278
0.31523306 -0.05 -0.059952066 21806.243
0.31288954 -0.05 -0.059967055 21802.818
0.31054601 -0.05 -0.059979678 21799.321
0.30820246 -0.05 -0.059989926 21795.959
0.30585891 -0.05 -0.059997792 21791.994
0.30351535 -0.05 -0.060003209 21788.974
0.30117179 -0.05 -0.060006157 21786.604
