/*--------------------------------*- C++ -*----------------------------------*\
| =========                 |                                                 |
| \\      /  F ield         | OpenFOAM: The Open Source CFD Toolbox           |
|  \\    /   O peration     | Version:  2306                                  |
|   \\  /    A nd           | Website:  www.openfoam.com                      |
|    \\/     M anipulation  |                                                 |
\*---------------------------------------------------------------------------*/
FoamFile
{
    version     2.0;
    format      ascii;
    arch        "LSB;label=32;scalar=64";
    class       volScalarField;
    location    "250";
    object      div(phi);
}
// * * * * * * * * * * * * * * * * * * * * * * * * * * * * * * * * * * * * * //

dimensions      [0 0 -1 0 0 0 0];

internalField   nonuniform List<scalar> 
10720
(
6.34342e-05
-2.56557e-05
1.95013e-05
-9.05329e-06
1.17813e-05
1.88668e-05
9.65049e-06
3.23095e-05
1.85418e-05
1.70926e-05
1.2564e-05
9.21781e-06
5.61164e-06
3.15187e-06
5.72682e-07
-7.49407e-07
-2.28658e-06
-2.22459e-06
-2.25669e-06
-1.2396e-06
3.49749e-06
2.11154e-06
1.28797e-05
9.15036e-06
7.49084e-06
3.53161e-06
1.15559e-05
9.33001e-06
9.2168e-06
1.13611e-05
4.39107e-05
-2.22589e-05
8.74639e-06
1.49643e-05
2.09914e-05
-4.35455e-05
5.55994e-05
0.000222178
-1.21077e-05
-4.83282e-05
9.05732e-05
4.93866e-06
3.47666e-05
1.85508e-05
-3.53035e-05
-1.97527e-05
-5.59457e-05
-7.39694e-06
-2.10606e-07
-2.36248e-07
1.37374e-06
-9.3431e-08
3.83893e-07
-1.0736e-06
-1.04533e-06
-2.2812e-06
-2.17374e-06
-3.03944e-06
-2.95462e-06
-2.7849e-06
-2.5769e-06
-3.56699e-07
4.77049e-07
1.52041e-09
-7.61453e-07
-2.09111e-06
-1.90559e-06
-4.99683e-06
-2.08432e-07
-1.99107e-06
-2.17749e-06
-2.83552e-06
-2.20396e-06
-1.70684e-06
-7.88685e-07
-6.92605e-06
-2.22688e-06
3.61519e-06
2.6548e-05
-2.4622e-06
1.34609e-05
-1.41245e-06
1.34368e-05
1.30458e-05
3.21348e-05
9.8574e-06
1.79315e-05
1.2805e-05
9.7112e-06
7.96607e-06
6.84522e-06
5.80246e-06
4.91695e-06
3.28192e-06
1.52062e-06
-1.19228e-06
-3.68484e-06
-5.78214e-06
-5.20793e-06
-3.0972e-06
4.96959e-06
6.23553e-06
6.74973e-06
9.07905e-06
1.28535e-05
1.37648e-05
1.35582e-05
1.79865e-05
4.08325e-05
-1.19091e-05
-1.95425e-06
-8.40978e-06
-8.68371e-06
-2.85038e-05
6.75233e-05
0.000275639
0.000404008
1.2359e-05
3.2498e-05
4.76168e-06
1.91469e-05
-1.25942e-05
-5.07036e-06
-3.47158e-05
-3.65595e-06
1.53828e-07
3.84642e-07
9.14869e-07
7.50118e-07
3.71099e-07
1.67797e-07
-1.21343e-06
-2.19653e-06
-3.84588e-06
-4.70063e-06
-5.86653e-06
-6.26779e-06
-6.39858e-06
-6.07547e-06
-4.35162e-06
-3.58649e-06
-3.77974e-06
-5.15614e-06
-6.31869e-06
-7.40205e-06
-9.80957e-06
-4.9767e-06
-6.33268e-06
-5.64931e-06
-5.79058e-06
-4.30719e-06
-4.32843e-06
-2.25712e-06
-1.99063e-06
2.4335e-06
-3.22957e-07
-3.03508e-05
2.19309e-05
-9.18813e-06
1.34441e-05
1.74656e-05
1.95791e-05
1.02005e-05
2.39748e-05
9.88973e-06
7.8247e-06
6.11774e-06
4.23821e-06
3.04047e-06
1.28354e-06
1.41695e-07
-1.30185e-06
-1.99027e-06
-2.65007e-06
-2.70729e-06
-2.00525e-06
-4.87485e-07
6.6055e-07
3.21287e-06
3.73421e-06
2.01921e-06
3.56929e-07
3.80565e-07
-1.54802e-06
-7.84995e-07
1.16486e-06
1.51672e-05
-9.39253e-06
6.8628e-06
1.69852e-05
1.70131e-05
-2.51928e-05
6.1725e-06
1.41482e-05
-0.000115044
4.62073e-05
-1.74702e-05
2.08729e-05
-1.41046e-05
6.48183e-07
-8.66523e-06
-5.59142e-07
3.54112e-06
3.07312e-06
1.18714e-06
8.34039e-07
-1.94522e-07
3.61978e-07
-4.11191e-07
-4.07605e-07
-1.29188e-06
-1.57587e-06
-1.92593e-06
-2.25567e-06
-2.19409e-06
-2.12341e-06
-1.53036e-06
-2.41184e-07
8.3513e-07
1.36586e-06
6.57363e-07
8.10225e-07
-2.04071e-07
-1.84723e-06
9.82711e-07
-6.42383e-07
-5.03159e-07
-1.61353e-06
-9.84405e-07
-7.56427e-07
-3.8069e-07
-7.68641e-06
-4.30933e-06
4.26203e-06
3.14367e-05
-6.03097e-06
9.91077e-06
1.34687e-05
4.83881e-06
2.05931e-05
2.0401e-05
4.51595e-07
7.0728e-06
4.20288e-06
3.18432e-06
3.36926e-06
3.20206e-06
3.44842e-06
3.01737e-06
2.6536e-06
1.30415e-06
-9.43146e-08
-2.23848e-06
-2.99626e-06
-2.69673e-06
1.2705e-06
7.57783e-06
1.11944e-05
1.0701e-05
1.02152e-05
9.38513e-06
1.17516e-05
1.23764e-05
1.58677e-05
2.76512e-05
-3.43048e-06
1.34007e-06
-2.02041e-06
-5.743e-06
-2.09598e-05
4.08709e-05
0.000149245
0.000273036
-9.19884e-06
1.12704e-05
-1.26729e-05
-2.04449e-06
-7.55617e-06
2.10914e-06
4.23535e-06
6.77053e-06
3.47118e-06
1.9709e-06
3.23904e-07
-8.48673e-09
1.79861e-07
-2.06421e-07
-5.95274e-07
-1.86629e-06
-2.8152e-06
-4.03424e-06
-4.78767e-06
-5.40488e-06
-5.58837e-06
-5.24438e-06
-4.25054e-06
-3.27637e-06
-2.98706e-06
-3.54181e-06
-4.19714e-06
-5.65683e-06
-7.60701e-06
-4.8003e-06
-6.06785e-06
-5.40807e-06
-5.83252e-06
-4.22744e-06
-3.53893e-06
-9.77207e-07
-1.39694e-06
1.62928e-06
-3.74829e-06
1.65331e-05
8.82825e-06
6.87979e-06
2.26203e-06
2.47416e-05
6.02714e-06
1.52633e-07
1.15359e-05
7.97886e-07
1.15214e-06
1.20736e-06
1.34912e-06
1.07346e-06
5.88764e-07
-3.0041e-07
-1.16624e-06
-2.0106e-06
-2.69868e-06
-2.84987e-06
-2.67763e-06
-1.0625e-06
-1.79897e-07
1.95077e-06
2.38548e-06
1.61135e-06
-1.03524e-06
-8.50863e-07
-5.34698e-06
-3.85011e-06
-2.02418e-06
8.35683e-06
-4.63567e-06
6.8821e-06
1.83903e-05
1.8065e-05
-2.05287e-05
-1.03524e-06
-8.36584e-06
-0.000125725
-2.95327e-06
-3.91516e-06
-7.26516e-06
-6.51125e-06
4.17843e-06
3.09293e-06
8.84171e-06
5.05996e-06
3.44626e-06
1.09409e-06
-2.72525e-07
-2.37932e-07
-4.70139e-07
4.85105e-08
-6.65911e-07
-8.38035e-07
-1.5457e-06
-1.75044e-06
-2.01303e-06
-1.97687e-06
-1.7692e-06
-1.30287e-06
-3.01694e-07
6.03901e-07
1.52471e-06
1.60685e-06
1.75119e-06
1.32419e-06
2.95818e-08
1.21727e-06
4.67571e-07
4.5325e-07
-5.83673e-07
-1.88503e-07
-8.31812e-08
-2.43396e-07
-8.36496e-06
-4.58488e-06
4.77007e-06
6.33103e-06
4.05958e-06
1.10894e-05
1.89329e-05
5.17702e-07
1.27416e-05
9.72723e-06
-5.32335e-06
1.15207e-06
-1.40544e-08
6.70297e-07
1.01602e-06
1.78474e-06
1.68194e-06
1.86207e-06
1.291e-06
9.44738e-07
-2.6941e-07
-8.57225e-07
-1.43364e-06
4.12385e-08
2.94791e-06
8.10091e-06
1.11917e-05
1.16345e-05
1.0437e-05
8.75844e-06
1.01805e-05
1.12211e-05
1.37015e-05
1.98238e-05
3.31415e-07
3.57883e-06
2.46385e-06
-2.02227e-06
-1.54196e-05
3.46062e-05
0.000105832
0.000180621
3.21703e-06
-7.50202e-06
-1.14939e-05
2.83748e-06
-7.43132e-06
4.93767e-06
2.99449e-06
5.20457e-06
2.92872e-06
6.79966e-07
-4.49382e-07
-6.47907e-07
-3.51362e-07
-1.59919e-07
-5.47443e-07
-1.26814e-06
-2.37935e-06
-3.15444e-06
-3.93323e-06
-4.41497e-06
-4.61944e-06
-4.43799e-06
-3.78817e-06
-2.98841e-06
-2.42425e-06
-2.28468e-06
-2.54513e-06
-3.552e-06
-5.0871e-06
-3.72047e-06
-4.65349e-06
-4.49606e-06
-4.83014e-06
-3.65815e-06
-2.76752e-06
-6.23471e-07
-1.26494e-06
1.86083e-07
-7.26611e-06
-2.6169e-06
1.41692e-05
8.35026e-06
7.2836e-06
1.8203e-05
1.50713e-06
-3.32828e-06
5.42075e-06
-1.44671e-06
-2.53907e-07
2.51722e-07
8.48838e-07
8.23162e-07
5.56524e-07
-1.94984e-07
-9.3772e-07
-1.83481e-06
-2.32157e-06
-2.69949e-06
-2.17271e-06
-1.33777e-06
-1.9745e-07
7.00159e-07
1.31394e-06
5.95893e-07
-1.4454e-06
-2.3918e-06
-6.09294e-06
-7.38452e-06
-4.24382e-06
3.28886e-06
-1.8964e-06
7.01655e-06
1.91859e-05
1.83858e-05
-1.98928e-05
-1.72289e-05
-1.22469e-05
-0.000104725
-1.39698e-06
-1.17938e-05
-8.76981e-07
-7.91349e-06
6.20952e-06
-5.88648e-08
5.93419e-06
3.2575e-06
1.50274e-06
-4.39024e-08
-9.21756e-07
-1.08057e-06
-3.07906e-07
-2.9089e-07
-1.64068e-07
-8.62508e-07
-1.26254e-06
-1.67836e-06
-1.70357e-06
-1.71683e-06
-1.46845e-06
-1.00916e-06
-4.28298e-07
5.02943e-07
1.14701e-06
1.85084e-06
2.14619e-06
2.00157e-06
1.26912e-06
1.85997e-06
9.69603e-07
1.00457e-06
1.26274e-07
2.84287e-07
2.95727e-07
-4.30881e-07
-7.74774e-06
-4.71573e-06
6.35267e-06
1.14402e-05
3.871e-06
1.28178e-05
8.62362e-06
7.13038e-07
4.33046e-06
4.00601e-06
-4.80285e-06
2.86992e-07
1.5166e-07
6.47931e-07
1.46778e-06
1.37543e-06
1.65292e-06
1.13128e-06
9.99699e-07
2.63285e-07
3.22371e-08
-5.96185e-07
-3.58686e-08
8.91202e-07
3.64852e-06
6.78029e-06
9.59781e-06
1.03038e-05
9.5719e-06
7.85272e-06
7.59041e-06
8.11161e-06
9.54371e-06
1.22517e-05
1.96168e-06
3.88946e-06
4.38284e-06
7.7751e-07
-8.15367e-06
3.33585e-05
9.12278e-05
0.000110123
-5.87314e-06
-1.59658e-06
-7.3595e-06
1.07963e-05
-2.46459e-06
3.38128e-06
1.30908e-06
3.23234e-06
1.14419e-06
-4.16896e-07
-1.17112e-06
-1.00501e-06
-4.75138e-07
-4.83051e-08
-2.52152e-07
-1.01871e-06
-1.77776e-06
-2.46924e-06
-2.9914e-06
-3.40892e-06
-3.63557e-06
-3.59293e-06
-3.24269e-06
-2.69184e-06
-2.1378e-06
-1.69007e-06
-1.58659e-06
-2.09443e-06
-3.09342e-06
-2.48981e-06
-3.21112e-06
-3.42776e-06
-3.81657e-06
-2.99539e-06
-2.12734e-06
-4.68392e-07
-1.34614e-06
-1.28871e-06
-8.74828e-06
4.61443e-06
1.16293e-05
-2.06908e-06
9.96763e-06
-2.42559e-07
-3.91766e-06
-2.64839e-06
3.81422e-06
-3.79107e-07
4.67792e-07
1.24089e-06
1.21018e-06
1.4452e-06
8.37843e-07
3.46802e-07
-5.80677e-07
-1.13784e-06
-1.92412e-06
-1.85926e-06
-1.84062e-06
-8.06769e-07
-4.6585e-07
4.91294e-07
5.3394e-07
3.07544e-07
-1.51683e-06
-2.48622e-06
-6.51317e-06
-7.81632e-06
-6.51817e-06
6.1996e-07
4.72224e-08
6.44655e-06
1.6667e-05
1.72503e-05
-1.50618e-05
-3.03693e-05
-6.00623e-06
-9.37142e-05
3.26701e-06
-3.66783e-06
7.53976e-06
-5.9001e-06
4.80659e-06
2.44306e-06
2.26026e-06
8.25984e-07
4.09226e-07
-8.86646e-07
-1.46308e-06
-9.66468e-07
-4.46905e-07
1.50105e-07
-1.44984e-07
-5.86023e-07
-1.15975e-06
-1.30413e-06
-1.42357e-06
-1.29776e-06
-1.11568e-06
-7.94454e-07
-2.93293e-07
2.44913e-07
9.39048e-07
1.49868e-06
2.03326e-06
2.22838e-06
1.72001e-06
1.90531e-06
1.58918e-06
1.1372e-06
5.52294e-07
5.11255e-07
4.57717e-07
-6.68148e-07
-7.15739e-06
-3.45477e-06
7.04076e-06
1.3237e-05
6.62273e-06
1.93205e-05
-3.78178e-06
4.65109e-06
6.06121e-06
2.02419e-08
-3.65411e-06
1.81504e-06
-3.35937e-09
4.94917e-07
1.45738e-06
1.83359e-06
1.42874e-06
1.35776e-06
7.38614e-07
4.78213e-07
1.65336e-08
8.66023e-08
4.09224e-07
1.54548e-06
3.331e-06
5.65126e-06
7.70021e-06
8.63266e-06
8.37622e-06
6.92661e-06
5.53761e-06
5.31263e-06
5.64379e-06
7.37772e-06
2.13507e-06
3.55723e-06
5.00193e-06
3.26047e-06
2.45632e-07
3.13833e-05
8.02964e-05
5.93447e-05
2.37875e-06
3.62801e-06
-9.85284e-07
9.42127e-06
5.35982e-06
-1.39979e-06
7.90945e-07
2.86913e-06
-7.39362e-07
-1.19293e-06
-1.36443e-06
-9.49686e-07
-1.49328e-07
1.90428e-07
-6.51532e-08
-6.70209e-07
-1.23148e-06
-1.67353e-06
-2.00354e-06
-2.3971e-06
-2.6384e-06
-2.74385e-06
-2.64036e-06
-2.3335e-06
-1.95488e-06
-1.47232e-06
-1.25436e-06
-1.30717e-06
-1.87819e-06
-1.53841e-06
-1.99661e-06
-2.45432e-06
-2.87158e-06
-2.42578e-06
-1.59297e-06
-3.70792e-07
-1.52862e-06
-2.38227e-06
-8.83951e-06
1.32045e-05
9.75065e-06
-2.03337e-06
4.7489e-06
2.25382e-06
-6.3667e-06
4.26759e-06
7.8422e-06
-4.0158e-06
1.16165e-06
2.29226e-06
1.52213e-06
1.29583e-06
1.26283e-06
5.51789e-07
1.25038e-07
-7.45811e-07
-9.42275e-07
-1.45711e-06
-8.7468e-07
-8.12852e-07
6.5247e-08
5.40111e-08
6.68432e-07
-3.32825e-08
-1.11823e-06
-2.31391e-06
-5.333e-06
-7.69269e-06
-6.74037e-06
-6.93798e-07
7.64693e-07
6.08071e-06
1.47562e-05
1.36852e-05
-1.25714e-05
-4.43647e-05
-4.6054e-06
-7.2723e-05
4.27514e-06
3.81337e-06
2.42309e-06
6.32985e-06
2.12003e-06
6.02536e-06
3.13017e-07
7.64447e-08
-8.80164e-07
-1.79532e-06
-1.40907e-06
-8.17802e-07
2.05418e-08
2.6544e-07
4.59389e-08
-4.67771e-07
-7.57287e-07
-9.2689e-07
-8.91644e-07
-8.72662e-07
-7.5593e-07
-5.38267e-07
-2.23445e-07
1.8851e-07
6.26217e-07
1.14787e-06
1.56837e-06
1.94847e-06
1.79845e-06
2.00095e-06
1.6602e-06
1.40944e-06
6.65849e-07
6.15836e-07
5.00915e-07
-8.66888e-07
-5.90321e-06
-2.72457e-06
7.30865e-06
6.42016e-06
5.10385e-06
6.70562e-06
-7.79749e-07
-6.02568e-07
4.36268e-06
3.82533e-06
-5.66877e-06
1.0849e-05
-7.17539e-07
-4.34204e-09
2.30242e-06
1.586e-06
1.56595e-06
1.15693e-06
8.27983e-07
5.18594e-07
2.60635e-07
4.58178e-07
7.75649e-07
1.735e-06
2.94417e-06
4.61788e-06
6.06561e-06
6.95037e-06
7.01035e-06
6.00489e-06
4.42619e-06
3.44793e-06
3.22762e-06
4.44001e-06
1.83983e-06
3.20627e-06
5.60025e-06
5.11739e-06
5.75021e-06
2.74012e-05
6.31015e-05
2.81952e-05
5.20161e-06
2.97309e-06
3.65375e-06
1.17016e-07
4.50261e-06
-1.88961e-06
3.52656e-06
6.70583e-07
-1.55032e-06
-2.07551e-06
-1.42634e-06
-5.56708e-07
1.17859e-07
3.24136e-07
5.34763e-08
-3.35e-07
-6.6605e-07
-7.89127e-07
-1.11237e-06
-1.41335e-06
-1.75437e-06
-1.9433e-06
-2.02266e-06
-1.9442e-06
-1.7315e-06
-1.41522e-06
-1.17563e-06
-1.0721e-06
-1.22829e-06
-9.88554e-07
-1.21547e-06
-1.62265e-06
-2.10251e-06
-1.90409e-06
-1.23821e-06
-3.96418e-07
-1.75384e-06
-3.10239e-06
-8.04775e-06
5.46022e-06
6.27088e-06
-2.2515e-06
2.35616e-06
2.46019e-06
-2.01405e-07
6.12415e-07
7.11245e-06
-4.21141e-06
6.13822e-06
3.29416e-06
1.08239e-06
1.30824e-06
9.51115e-07
8.12707e-07
1.37876e-07
-1.48994e-07
-7.01986e-07
-5.70708e-07
-7.08972e-07
-1.11771e-07
-8.89765e-08
4.49229e-07
3.88854e-07
1.76429e-07
-8.82926e-07
-1.75466e-06
-3.88952e-06
-6.13727e-06
-6.14583e-06
-8.5632e-07
7.74662e-07
6.66857e-06
1.21769e-05
1.15217e-05
-1.08149e-05
-5.12891e-05
4.7096e-06
-5.55039e-05
1.45911e-06
2.21066e-06
9.14353e-07
3.61677e-06
-3.8366e-07
2.31223e-06
3.87109e-07
1.1366e-06
-1.78046e-06
-1.63622e-06
-1.09678e-06
-3.22683e-07
2.15778e-07
3.32166e-07
7.20148e-08
-2.004e-07
-3.35716e-07
-3.58453e-07
-3.94554e-07
-4.86684e-07
-4.7326e-07
-3.58287e-07
-1.67673e-07
1.21603e-07
3.88491e-07
7.82051e-07
1.06566e-06
1.481e-06
1.48415e-06
1.76288e-06
1.65171e-06
1.37111e-06
8.0362e-07
5.93846e-07
4.23028e-07
-1.02693e-06
-5.06395e-06
-1.28439e-06
7.18026e-06
1.80121e-06
2.92947e-07
3.54695e-06
-1.06247e-06
-6.02354e-07
2.52825e-06
2.95851e-06
-1.1583e-06
4.39543e-06
1.14743e-06
1.20626e-06
1.48404e-06
1.3967e-06
1.08424e-06
8.4566e-07
6.28165e-07
2.84124e-07
4.64092e-07
4.42993e-07
1.09368e-06
1.55218e-06
2.65369e-06
3.6035e-06
4.75976e-06
5.34772e-06
5.64701e-06
5.0653e-06
3.80218e-06
2.68524e-06
2.08539e-06
2.81009e-06
1.58367e-06
2.84353e-06
6.19468e-06
7.05954e-06
9.7698e-06
2.28306e-05
4.78044e-05
1.12632e-05
2.63539e-06
9.31792e-07
1.67514e-06
-7.02155e-07
2.13103e-06
-1.55635e-07
1.37488e-06
3.08865e-07
-8.10733e-07
-1.37545e-06
-8.50035e-07
-1.51214e-07
2.44388e-07
2.79074e-07
1.23528e-07
-6.57681e-08
-8.8016e-09
-1.43674e-07
-3.46214e-07
-7.34756e-07
-1.01649e-06
-1.31204e-06
-1.46177e-06
-1.55456e-06
-1.48329e-06
-1.33953e-06
-1.17421e-06
-1.05307e-06
-1.01066e-06
-8.01784e-07
-8.03263e-07
-1.09244e-06
-1.44613e-06
-1.50336e-06
-1.01109e-06
-5.76751e-07
-1.97369e-06
-3.42901e-06
-6.90576e-06
2.45402e-06
1.94217e-06
-2.3686e-06
1.47575e-06
1.43963e-06
-4.18614e-07
-2.82861e-07
3.85498e-06
-3.44269e-07
2.35499e-08
4.71503e-06
-6.2651e-07
6.76919e-07
7.71649e-07
3.58428e-07
5.99399e-08
-2.50513e-07
-3.24303e-07
-3.80224e-07
-1.74898e-07
-3.32718e-08
2.81839e-07
3.80596e-07
5.58575e-07
1.69476e-07
-4.75708e-07
-1.20227e-06
-2.46067e-06
-4.26588e-06
-4.4848e-06
-1.16905e-06
1.10988e-06
5.3968e-06
1.18185e-05
8.42916e-06
-1.09979e-05
-5.36479e-05
9.80386e-06
-4.02257e-05
-1.04524e-07
7.72156e-07
-1.94409e-08
1.78359e-06
-8.71728e-07
1.08348e-06
-2.76945e-08
-1.31933e-08
-1.72488e-06
-1.18507e-06
-5.20381e-07
-6.41198e-08
2.42821e-07
2.59414e-07
1.22863e-07
1.23663e-07
1.138e-07
1.17462e-07
-1.03609e-07
-2.30318e-07
-3.16318e-07
-2.81854e-07
-1.48876e-07
5.2764e-09
2.34712e-07
4.19331e-07
6.96202e-07
9.19771e-07
1.11913e-06
1.30497e-06
1.42001e-06
1.27604e-06
8.1981e-07
5.40016e-07
3.39039e-07
-1.11192e-06
-3.70618e-06
-3.97091e-07
6.27927e-06
-9.06676e-08
-5.45925e-07
2.1816e-06
-9.9474e-07
-6.28853e-07
1.61838e-06
1.68532e-06
-1.87684e-06
1.8022e-06
2.04407e-06
-2.00266e-06
3.79993e-06
-3.60005e-07
5.0086e-07
2.76471e-07
3.76074e-08
2.15391e-07
1.71169e-07
6.5698e-07
8.83108e-07
1.5865e-06
2.06216e-06
2.94475e-06
3.50693e-06
4.07563e-06
4.31502e-06
4.16654e-06
3.3314e-06
2.4495e-06
1.75612e-06
2.06897e-06
1.282e-06
2.75013e-06
6.41105e-06
8.46041e-06
1.13332e-05
1.7377e-05
3.42763e-05
3.52878e-06
1.00175e-06
9.67004e-08
5.56893e-07
-9.87283e-07
9.5098e-07
-5.0968e-07
4.42989e-07
-2.61578e-07
-3.93925e-07
-7.65243e-07
-2.71044e-07
-1.49188e-08
1.41796e-07
1.87268e-07
1.68684e-07
3.2493e-07
3.58758e-07
2.84335e-07
-1.48287e-08
-2.65235e-07
-5.94061e-07
-8.09923e-07
-1.05398e-06
-1.17506e-06
-1.24865e-06
-1.20149e-06
-1.14821e-06
-1.05587e-06
-9.69405e-07
-7.81882e-07
-6.96867e-07
-7.6966e-07
-1.03301e-06
-1.13669e-06
-9.25405e-07
-7.62873e-07
-2.1422e-06
-3.43925e-06
-5.76668e-06
4.27873e-07
1.26533e-06
-1.74853e-06
8.39525e-07
9.17187e-07
-5.67708e-07
-5.59053e-07
2.3962e-06
-1.06571e-06
-6.07723e-07
2.2088e-06
-1.43178e-06
1.5713e-06
2.34738e-07
-9.20917e-08
-2.19895e-07
-3.1114e-07
-1.46272e-07
-1.09951e-07
1.08816e-07
1.92758e-07
4.27706e-07
4.81125e-07
5.95012e-07
2.9726e-07
-1.48938e-07
-6.45838e-07
-1.37753e-06
-2.56014e-06
-2.953e-06
-8.99281e-07
5.51203e-07
4.53926e-06
9.51582e-06
5.71895e-06
-1.19398e-05
-5.3081e-05
1.78844e-05
-3.10065e-05
-6.29765e-07
8.81472e-08
-3.7495e-07
8.15018e-07
-8.2973e-07
3.77352e-07
-2.69053e-07
1.64584e-08
-3.87111e-07
-6.97456e-07
-4.93027e-07
-1.30768e-07
1.34806e-07
1.48818e-07
2.95656e-07
3.54196e-07
4.50266e-07
2.20319e-07
5.77867e-08
-1.67698e-07
-2.45942e-07
-2.71657e-07
-1.9483e-07
-7.13927e-08
6.13295e-08
2.03171e-07
3.5084e-07
5.50908e-07
7.06171e-07
9.08439e-07
1.04973e-06
1.05148e-06
8.28632e-07
4.32133e-07
2.6831e-07
-1.03691e-06
-2.82824e-06
5.35479e-07
5.57384e-06
-3.67266e-07
-8.22285e-07
1.25236e-06
-9.02664e-07
-5.02248e-07
9.96829e-07
1.06207e-06
-1.76986e-06
9.1865e-07
6.54577e-07
-1.10331e-06
3.85278e-07
3.48257e-07
-3.34278e-07
-1.32956e-07
-1.37222e-07
-3.73609e-08
3.54e-07
4.8869e-07
9.71139e-07
1.27116e-06
1.77445e-06
2.19567e-06
2.64835e-06
2.94775e-06
3.24984e-06
3.27107e-06
2.88194e-06
2.26187e-06
1.76473e-06
1.68269e-06
1.22322e-06
2.70294e-06
6.00877e-06
9.5687e-06
1.14131e-05
1.23572e-05
2.4752e-05
1.51889e-07
4.92723e-07
-2.44891e-07
8.34242e-08
-8.78845e-07
3.64482e-07
-5.18593e-07
7.61211e-08
-1.43348e-07
-1.0867e-07
-3.11479e-07
-4.51847e-07
5.26796e-07
-5.03773e-08
8.81431e-08
3.32524e-07
4.76628e-07
4.82453e-07
3.01171e-07
1.25875e-07
-1.32419e-07
-3.07961e-07
-5.42244e-07
-7.07587e-07
-9.01194e-07
-1.00762e-06
-1.04549e-06
-1.04929e-06
-1.00806e-06
-9.42594e-07
-8.01813e-07
-6.97908e-07
-6.46888e-07
-7.93272e-07
-8.65612e-07
-9.33827e-07
-9.12305e-07
-2.21452e-06
-3.24232e-06
-4.58333e-06
4.17282e-07
3.28267e-07
-1.41021e-06
5.57781e-07
4.95488e-07
-5.1774e-07
-5.94765e-07
1.51919e-06
-1.01285e-06
-7.90733e-07
7.60611e-07
-7.00835e-08
-1.4381e-07
1.53893e-07
-1.65977e-07
-2.80489e-07
-2.22741e-08
-4.50434e-09
2.64042e-07
2.22861e-07
4.73188e-07
4.38995e-07
6.40872e-07
5.52765e-07
4.85316e-07
8.05889e-08
-1.87025e-07
-6.48105e-07
-1.37048e-06
-1.72095e-06
-7.68074e-07
-3.46057e-08
3.2825e-06
6.46543e-06
4.31652e-06
-1.24549e-05
-4.66144e-05
2.13927e-05
-2.47327e-05
-5.93619e-07
-1.30276e-07
-3.74168e-07
3.20132e-07
-6.87368e-07
4.14092e-08
-2.28525e-07
-8.67704e-08
-1.12933e-07
-3.51035e-07
4.68051e-07
-7.54081e-07
-1.88685e-07
3.65587e-08
2.70001e-07
4.9743e-07
3.42042e-07
2.41926e-07
-1.75856e-08
-1.32237e-07
-2.67977e-07
-2.73589e-07
-2.48505e-07
-1.47677e-07
-9.35185e-08
2.11675e-08
1.2191e-07
2.72719e-07
4.00578e-07
5.75515e-07
6.98169e-07
8.20218e-07
6.49511e-07
4.67261e-07
6.42728e-08
-1.00823e-06
-1.75882e-06
1.08339e-06
4.28349e-06
-4.42517e-07
-6.08466e-07
8.47388e-07
-6.94218e-07
-4.39742e-07
6.66556e-07
5.87494e-07
-1.43326e-06
5.23931e-07
2.76886e-07
-1.02803e-06
-2.15037e-07
-1.99522e-07
-1.41592e-07
-4.52713e-07
-1.24899e-07
2.22274e-07
3.69275e-07
5.7601e-07
7.98269e-07
1.1085e-06
1.38548e-06
1.68564e-06
1.91622e-06
2.13151e-06
2.34894e-06
2.50217e-06
2.34299e-06
2.03944e-06
1.65858e-06
1.51339e-06
1.19171e-06
2.71769e-06
5.35268e-06
9.70779e-06
9.76976e-06
8.16516e-06
1.70754e-05
-1.34997e-06
1.49882e-07
-2.7829e-07
-1.18229e-07
-6.92384e-07
6.63647e-08
-4.09293e-07
-1.19219e-07
-2.84968e-08
-1.68978e-07
1.32666e-07
-6.47823e-07
5.62013e-07
-3.42657e-07
-2.00609e-07
2.21769e-07
3.58103e-07
3.10943e-07
1.9354e-07
3.33785e-08
-7.91799e-08
-2.33079e-07
-3.41571e-07
-5.06714e-07
-7.10054e-07
-8.21699e-07
-8.84567e-07
-9.11893e-07
-9.01616e-07
-8.75607e-07
-7.81219e-07
-7.10983e-07
-6.05011e-07
-7.05083e-07
-6.82249e-07
-1.0092e-06
-8.95284e-07
-2.21358e-06
-2.82527e-06
-3.46415e-06
-5.26623e-08
3.48783e-07
-9.63171e-07
3.30375e-07
3.27065e-07
-4.56554e-07
-4.82323e-07
1.03781e-06
-8.45152e-07
-7.46965e-07
4.10495e-07
-5.2162e-07
-2.00963e-07
-5.22436e-07
-1.21e-07
2.16206e-07
1.20649e-07
3.22417e-07
2.69275e-07
4.54817e-07
4.22079e-07
5.83823e-07
5.58016e-07
6.35195e-07
4.96046e-07
3.06024e-07
6.90052e-08
-1.86886e-07
-6.54943e-07
-9.49003e-07
-7.50096e-07
-2.41865e-07
1.6285e-06
4.15581e-06
1.91874e-06
-1.36036e-05
-4.35086e-05
2.31132e-05
-2.09408e-05
-5.19812e-07
-2.01122e-07
-3.40709e-07
8.09294e-08
-5.02886e-07
-1.21232e-07
-1.654e-07
-1.63273e-07
-7.83448e-08
-3.0554e-07
4.99033e-07
-9.97024e-07
-4.12408e-07
-8.11121e-08
2.54402e-07
2.34305e-07
2.33336e-07
3.411e-08
-4.4661e-08
-2.08125e-07
-2.52484e-07
-3.10289e-07
-2.92537e-07
-2.93761e-07
-2.14538e-07
-1.39848e-07
-3.60782e-08
8.0885e-08
1.95044e-07
3.2556e-07
4.45126e-07
5.54038e-07
5.10443e-07
3.88633e-07
-6.74774e-08
-4.89217e-07
-1.1079e-06
1.37738e-06
3.79932e-06
-3.30914e-07
-5.0403e-07
5.11578e-07
-5.51285e-07
-3.07189e-07
4.39165e-07
4.19565e-07
-1.12032e-06
2.96572e-07
1.06229e-07
-1.01468e-06
-2.71565e-07
-4.17521e-07
-2.23056e-07
2.44757e-07
-7.85128e-07
-2.09525e-08
3.75667e-07
4.60771e-07
6.10772e-07
8.75842e-07
1.05127e-06
1.24883e-06
1.37637e-06
1.49062e-06
1.66741e-06
1.82079e-06
1.81695e-06
1.69269e-06
1.45689e-06
1.36252e-06
1.22629e-06
2.61295e-06
4.52123e-06
8.56377e-06
7.08301e-06
4.83748e-06
1.16723e-05
-2.07562e-06
8.42884e-08
-2.73107e-07
-1.70291e-07
-5.02162e-07
-7.63167e-08
-2.95438e-07
-2.11794e-07
-2.2354e-08
-1.39411e-07
6.54105e-08
-6.02082e-07
-3.50979e-08
-4.03623e-07
-5.76439e-08
9.20566e-08
1.53541e-07
1.0083e-07
1.75567e-08
-6.28754e-08
-1.42312e-07
-1.89128e-07
-2.69267e-07
-4.50044e-07
-5.91162e-07
-7.05417e-07
-7.27212e-07
-7.52435e-07
-7.57705e-07
-7.60082e-07
-7.13863e-07
-6.83891e-07
-5.86514e-07
-6.6813e-07
-6.10316e-07
-9.81509e-07
-8.70697e-07
-1.97351e-06
-2.33904e-06
-2.38352e-06
7.07537e-08
6.85105e-08
-7.26155e-07
2.35708e-07
1.8397e-07
-3.39605e-07
-3.84014e-07
7.07552e-07
-7.05046e-07
-6.80985e-07
1.85789e-07
-5.29633e-07
-3.41108e-07
1.5519e-07
-1.19147e-06
6.30076e-07
9.23222e-07
3.0021e-07
3.38462e-07
3.37437e-07
4.36986e-07
4.79178e-07
5.52329e-07
5.49934e-07
5.26687e-07
3.65757e-07
2.41732e-07
2.00844e-08
-2.12768e-07
-5.77302e-07
-4.82032e-07
-5.2054e-07
9.94228e-07
1.91193e-06
-9.01733e-08
-1.22594e-05
-3.3737e-05
2.0849e-05
-1.6664e-05
-3.8328e-07
-1.90244e-07
-2.56969e-07
-3.86854e-08
-3.56284e-07
-1.95584e-07
-1.10437e-07
-2.05802e-07
-3.3766e-08
-2.0127e-07
2.78612e-08
-1.95873e-08
-8.03516e-07
2.58797e-07
1.02611e-07
1.46692e-07
-7.51882e-09
-2.41537e-08
-1.64588e-07
-1.99495e-07
-2.83431e-07
-3.5166e-07
-4.13291e-07
-4.01222e-07
-3.37066e-07
-2.39484e-07
-1.36513e-07
-2.92648e-08
5.63639e-08
1.67798e-07
2.40799e-07
3.77062e-07
3.20534e-07
3.49194e-07
-6.45779e-08
-2.77049e-07
-5.27405e-07
1.74457e-06
3.04563e-06
-2.64838e-07
-3.38844e-07
3.60507e-07
-3.95219e-07
-2.423e-07
3.1871e-07
2.50655e-07
-8.56385e-07
1.61061e-07
2.85264e-08
-8.8139e-07
-2.9043e-07
-1.25233e-07
-5.40424e-07
8.14691e-07
-2.97815e-07
4.86283e-07
8.55959e-07
4.45499e-07
4.39815e-07
5.97946e-07
7.76174e-07
8.79822e-07
9.76756e-07
1.00497e-06
1.16046e-06
1.25187e-06
1.36034e-06
1.27973e-06
1.25268e-06
1.1516e-06
1.30935e-06
2.35937e-06
3.70174e-06
6.91104e-06
4.72871e-06
3.27434e-06
7.81562e-06
-2.20112e-06
-1.09968e-08
-2.21153e-07
-1.82063e-07
-3.55002e-07
-1.38762e-07
-2.05444e-07
-2.5106e-07
1.5363e-09
-9.76484e-08
5.20302e-08
-2.67367e-07
-4.35634e-07
3.13524e-07
-5.72225e-07
4.22563e-09
-8.62045e-08
8.46475e-08
-7.00856e-08
-1.33272e-07
-1.74272e-07
-2.17571e-07
-3.30496e-07
-4.26477e-07
-5.71099e-07
-5.80576e-07
-5.848e-07
-5.81232e-07
-5.99369e-07
-6.15357e-07
-6.13768e-07
-6.10124e-07
-5.59153e-07
-6.34512e-07
-5.67703e-07
-9.82347e-07
-7.79665e-07
-1.61589e-06
-1.86321e-06
-1.65773e-06
-8.04179e-08
1.1275e-07
-4.85985e-07
1.42293e-07
1.32071e-07
-2.62219e-07
-2.86223e-07
5.07554e-07
-5.49106e-07
-5.89795e-07
1.06859e-07
-3.55724e-07
-2.35939e-07
4.88341e-07
-5.14091e-07
1.70016e-06
9.60862e-07
5.48107e-07
2.523e-07
2.50377e-07
3.12338e-07
3.98711e-07
4.40582e-07
4.79622e-07
4.57637e-07
3.92904e-07
2.72741e-07
1.67696e-07
-3.86149e-08
-2.35106e-07
-3.35702e-07
-2.85462e-07
6.03734e-07
8.90622e-07
-8.28521e-07
-1.02694e-05
-2.41967e-05
1.65006e-05
-1.35441e-05
-3.01237e-07
-1.76957e-07
-2.07963e-07
-9.06123e-08
-2.41546e-07
-2.1683e-07
-7.25178e-08
-2.04761e-07
-1.31804e-09
-1.2775e-07
1.04736e-07
2.49413e-08
-3.91768e-07
1.44017e-07
-1.09397e-07
2.63523e-07
8.45365e-08
-5.71095e-08
-1.2556e-07
-2.19179e-07
-3.2343e-07
-4.21787e-07
-5.10426e-07
-4.72833e-07
-3.92087e-07
-2.68878e-07
-1.72792e-07
-8.90272e-08
-2.05121e-08
5.93627e-08
1.19845e-07
2.21202e-07
1.92057e-07
2.77177e-07
-9.23013e-08
8.94908e-10
1.37725e-07
1.50996e-06
2.5381e-06
-1.81005e-07
-2.67185e-07
2.18764e-07
-2.98318e-07
-1.60347e-07
2.19382e-07
1.98049e-07
-6.55418e-07
8.67664e-08
7.39164e-09
-6.62821e-07
-1.38113e-07
7.98264e-08
-2.1089e-07
1.36427e-06
1.58395e-07
1.63527e-06
3.25645e-07
1.93852e-07
2.14902e-07
4.00798e-07
5.00714e-07
6.37998e-07
6.33469e-07
7.0319e-07
7.39642e-07
8.7863e-07
9.22781e-07
9.73723e-07
9.71279e-07
1.01029e-06
1.29736e-06
2.02953e-06
3.06488e-06
5.11878e-06
2.74007e-06
2.4587e-06
5.10316e-06
-1.96974e-06
-3.76499e-08
-1.9017e-07
-1.62518e-07
-2.41002e-07
-1.57451e-07
-1.33139e-07
-2.51592e-07
2.75693e-08
-5.78939e-08
6.58061e-08
-2.24767e-07
-2.23536e-07
2.29704e-07
-4.86009e-07
4.72475e-07
1.62823e-07
1.35292e-07
-2.71939e-08
-1.22063e-07
-1.84462e-07
-3.14205e-07
-3.76696e-07
-4.80296e-07
-4.89075e-07
-4.72886e-07
-4.24946e-07
-4.20329e-07
-4.42896e-07
-4.68347e-07
-4.94193e-07
-5.10376e-07
-5.10997e-07
-5.68466e-07
-5.82167e-07
-8.67666e-07
-6.93212e-07
-1.18807e-06
-1.50754e-06
-1.20143e-06
-5.20595e-08
1.06858e-08
-3.59937e-07
1.0356e-07
7.83576e-08
-1.83349e-07
-2.19052e-07
3.53384e-07
-4.27329e-07
-4.44409e-07
1.25324e-07
-1.77982e-07
-3.14069e-08
6.40071e-07
-1.87116e-07
1.2271e-06
-1.0841e-07
1.48482e-07
5.09221e-08
1.15483e-07
1.88047e-07
2.95147e-07
3.24814e-07
3.83913e-07
3.7544e-07
3.60521e-07
2.76318e-07
2.16552e-07
7.5624e-08
-3.04793e-08
-1.23434e-07
1.0151e-08
4.96723e-07
7.20426e-07
-1.54354e-06
-6.70935e-06
-1.46269e-05
1.2511e-05
-1.01413e-05
-2.09693e-07
-1.55836e-07
-1.51176e-07
-1.09246e-07
-1.56279e-07
-2.12586e-07
-3.15382e-08
-1.90669e-07
1.65516e-08
-1.04177e-07
9.99495e-08
6.79988e-08
-4.51706e-07
6.23501e-07
-3.90345e-07
4.3414e-07
4.9501e-08
1.1835e-07
-1.18372e-07
-3.1446e-07
-3.41105e-07
-5.06148e-07
-5.03111e-07
-4.70113e-07
-3.38378e-07
-2.4069e-07
-1.6519e-07
-1.09298e-07
-5.79269e-08
-5.49371e-09
4.18028e-08
1.09101e-07
1.07322e-07
1.75378e-07
-2.49867e-08
1.77465e-07
3.76798e-07
1.40006e-06
1.94466e-06
-9.27634e-08
-2.03189e-07
1.45506e-07
-2.08947e-07
-1.22054e-07
1.64393e-07
1.23303e-07
-4.91469e-07
5.61091e-08
2.27786e-08
-4.34809e-07
-8.8519e-09
1.86055e-07
-1.15816e-07
1.05783e-06
-4.2225e-07
1.02656e-06
-6.46077e-07
-2.04839e-07
5.28299e-08
1.89489e-07
3.44464e-07
4.01468e-07
4.46357e-07
4.42971e-07
5.01616e-07
5.64251e-07
6.37926e-07
6.8526e-07
7.53915e-07
8.52612e-07
1.19268e-06
1.74667e-06
2.11476e-06
3.91175e-06
1.53106e-06
2.3306e-06
3.58913e-06
-1.44842e-06
-1.55731e-07
-1.69842e-07
-1.44054e-07
-1.58756e-07
-1.54961e-07
-8.30859e-08
-2.34084e-07
3.38852e-08
-5.7483e-08
5.22176e-08
-2.04983e-07
-2.67821e-07
3.92853e-07
-5.16528e-07
1.05213e-06
-2.45772e-08
2.99929e-07
-1.82064e-07
-3.74816e-07
-2.87261e-07
-5.34973e-07
-4.81618e-07
-4.31075e-07
-3.94029e-07
-3.14361e-07
-2.82348e-07
-2.78194e-07
-3.04836e-07
-3.34289e-07
-3.7509e-07
-4.02068e-07
-4.37424e-07
-4.9322e-07
-5.44912e-07
-7.69265e-07
-5.97942e-07
-8.67804e-07
-1.21982e-06
-1.03448e-06
-1.89188e-07
8.53686e-08
-2.33992e-07
6.43716e-08
6.26346e-08
-1.34341e-07
-1.58731e-07
2.60051e-07
-3.16185e-07
-3.12399e-07
1.37505e-07
-4.7067e-08
4.87437e-08
5.80713e-07
-3.40345e-07
8.55887e-07
-9.51889e-07
4.38048e-07
2.55747e-07
2.40748e-08
1.55239e-07
1.84893e-07
2.66351e-07
2.67822e-07
3.24939e-07
2.85213e-07
2.77424e-07
2.02888e-07
1.60698e-07
7.11738e-08
7.52403e-08
2.11433e-07
4.42245e-07
6.35556e-07
1.75102e-06
-3.44556e-06
-6.41098e-06
8.60592e-06
-7.31941e-06
-1.65961e-07
-1.86314e-07
-1.30658e-07
-1.11353e-07
-9.85667e-08
-1.93356e-07
-1.27378e-08
-1.77401e-07
7.94605e-09
-1.06277e-07
5.96945e-08
1.00784e-07
-5.05194e-07
6.92542e-07
-5.25511e-07
4.21255e-07
-2.70673e-08
-3.86599e-07
-1.47862e-07
-6.85556e-07
-4.96911e-07
-4.43242e-07
-4.45057e-07
-3.30675e-07
-2.46075e-07
-1.74244e-07
-1.35104e-07
-1.02554e-07
-7.46128e-08
-3.84452e-08
-8.17323e-09
4.04121e-08
4.3386e-08
1.00242e-07
-1.69665e-09
1.37017e-07
5.86525e-07
1.03871e-06
1.33309e-06
-1.08344e-08
-1.3376e-07
1.07084e-07
-1.45986e-07
-7.51364e-08
1.17805e-07
1.02351e-07
-3.66906e-07
3.97969e-08
2.50583e-08
-2.81339e-07
4.72741e-08
1.9983e-07
-8.27274e-08
8.00582e-07
-5.11278e-07
4.66408e-07
-4.48175e-07
2.58529e-10
3.57112e-07
2.1231e-07
2.60183e-07
2.86156e-07
3.07937e-07
2.99231e-07
3.28164e-07
3.71003e-07
4.23856e-07
4.81106e-07
5.58297e-07
7.09087e-07
1.01304e-06
1.40467e-06
2.65044e-06
-3.95059e-07
2.24175e-06
2.28445e-06
2.58281e-06
-9.19423e-07
-2.03315e-07
-1.68354e-07
-1.2473e-07
-1.00418e-07
-1.41521e-07
-4.46306e-08
-2.08582e-07
3.9638e-08
-6.21232e-08
3.82085e-08
-1.87389e-07
-2.76278e-07
2.55716e-07
-1.75609e-07
7.12666e-07
1.29173e-07
-3.22606e-07
4.57747e-08
-7.12418e-07
-3.79666e-07
-3.6142e-07
-3.41734e-07
-3.09546e-07
-2.25533e-07
-1.82525e-07
-1.57074e-07
-1.63997e-07
-1.96618e-07
-2.2123e-07
-2.71911e-07
-2.91735e-07
-3.5943e-07
-3.87877e-07
-5.18099e-07
-6.32846e-07
-5.11539e-07
-6.25024e-07
-1.03026e-06
-9.62078e-07
-1.14082e-07
3.34581e-08
-1.64641e-07
5.3046e-08
4.34415e-08
-8.95615e-08
-1.17001e-07
1.83382e-07