/*--------------------------------*- C++ -*----------------------------------*\
| =========                 |                                                 |
| \\      /  F ield         | OpenFOAM: The Open Source CFD Toolbox           |
|  \\    /   O peration     | Version:  2306                                  |
|   \\  /    A nd           | Website:  www.openfoam.com                      |
|    \\/     M anipulation  |                                                 |
\*---------------------------------------------------------------------------*/
FoamFile
{
    version     2.0;
    format      ascii;
    arch        "LSB;label=32;scalar=64";
    class       volScalarField;
    location    "250";
    object      magR;
}
// * * * * * * * * * * * * * * * * * * * * * * * * * * * * * * * * * * * * * //

dimensions      [0 2 -2 0 0 0 0];

internalField   nonuniform List<scalar> 
10720
(
0.0235331
0.0274563
0.0324699
0.0392801
0.0473487
0.0576194
0.0707523
0.0870208
0.107678
0.134034
0.168083
0.213037
0.27334
0.356308
0.474388
0.647226
0.913216
1.32369
2.04239
3.1669
5.68237
9.52774
22.2111
43.5317
48.4077
46.3666
45.5585
46.371
47.3831
47.6297
46.9877
45.5787
43.3126
40.2184
36.2278
31.4324
24.9292
18.4472
4.33593
0.0200283
0.0171853
0.0139985
0.0112652
0.00868443
0.00635834
0.00447986
0.0033514
0.00350585
0.00474301
0.00705445
0.0106239
0.0158793
0.0234969
0.0343385
0.0497161
0.0718271
0.104789
0.156219
0.239925
0.383385
0.637125
1.12125
2.05302
4.08501
8.35351
18.6733
38.473
54.5104
61.3911
63.3429
63.6623
63.2956
62.4
61.0212
59.2349
56.6212
53.5756
43.8771
0.00360442
0.00358413
0.00354278
0.00344026
0.00328174
0.00309955
0.00288463
0.00264298
0.00240384
0.00216937
0.00194585
0.00179053
0.00176899
0.00194329
0.0025227
0.00396874
0.00757579
0.0158931
0.0383223
0.0940527
0.276504
0.766929
2.34098
7.51159
14.7335
22.2026
29.2367
34.2453
35.2887
32.4221
27.6517
22.8
18.8597
15.8403
13.5226
11.6859
10.4028
9.07611
9.72119
0.00357194
0.0035238
0.00342509
0.00327869
0.00307832
0.00281393
0.00250361
0.0022026
0.00192402
0.00164752
0.00138443
0.00115667
0.000964243
0.000801035
0.000662734
0.000546225
0.000447404
0.000363798
0.000290552
0.000223684
0.000157612
9.31098e-05
3.22452e-05
5.23817e-06
1.34421e-05
0.00191701
0.0103843
0.083725
0.281901
0.551642
0.82464
1.06492
1.26699
1.44455
1.61049
1.78128
1.96196
2.36515
3.29155
0.00241952
0.0024004
0.00234625
0.00226344
0.00217685
0.00208168
0.00198546
0.00189893
0.0018245
0.00176675
0.00172211
0.00169651
0.00168963
0.00170437
0.00170929
0.00165639
0.00144895
0.0012481
0.000142649
0.00806013
0.00314038
0.00555912
0.000747197
0.02826
0.237469
0.794075
1.98763
4.48774
8.86622
14.678
19.9829
22.6409
22.1876
19.9474
17.3138
14.8344
12.8905
10.6788
11.9918
0.0024384
0.00243542
0.00242897
0.00238574
0.00230901
0.00218017
0.00200253
0.00179971
0.00161126
0.00141739
0.00120881
0.00100684
0.000826071
0.000670399
0.00054187
0.000438093
0.00035721
0.000295858
0.000251229
0.000219167
0.000197077
0.000182741
0.000174867
0.000170535
0.000170307
0.000169136
0.00017989
0.000106614
0.000757333
0.00502481
0.0142387
0.0300003
0.0676364
0.141501
0.250554
0.384065
0.529143
0.633333
1.08122
0.00204199
0.00204619
0.00203589
0.00201892
0.00198392
0.00193183
0.00186691
0.00178585
0.00169322
0.00159076
0.00148067
0.00136448
0.00124332
0.0011194
0.000993807
0.000861992
0.000730836
0.000612507
0.000463566
0.000265025
1.60364e-08
0.000597323
0.000434631
0.00759841
0.0284551
0.0555841
0.031399
0.0150154
0.0425879
0.424288
1.88751
5.18318
9.78994
13.6717
15.3857
15.2007
14.312
12.5417
13.5042
0.0020201
0.00198694
0.00193486
0.00187213
0.00179348
0.00169047
0.00157021
0.00144224
0.00130899
0.00116437
0.00101491
0.0008748
0.000751002
0.000644303
0.000554151
0.000478572
0.00041639
0.000365745
0.000325096
0.000292004
0.000265113
0.000242527
0.000222284
0.000200997
0.000179123
0.000160935
0.000147186
0.000137308
0.000125318
0.000109877
8.25035e-05
5.20497e-05
0.00041521
0.000706248
0.00265318
0.0142431
0.0467151
0.118107
0.429685
0.00153203
0.00152932
0.00151736
0.00149605
0.0014631
0.00141841
0.0013644
0.00130189
0.00123293
0.00116172
0.00109055
0.0010223
0.000959994
0.000905541
0.000860255
0.000822211
0.000782162
0.000733689
0.000681852
0.000605916
0.000408634
0.00013312
2.16198e-05
3.61306e-06
0
0
0.0111114
0.0134143
0.0292131
0.0134132
0.0337475
0.0656583
0.378425
2.29162
5.9788
9.78769
12.2312
12.7292
14.1889
0.00152806
0.00151724
0.00149572
0.00146127
0.00141268
0.00134384
0.00126147
0.00117302
0.00107872
0.000975213
0.000867543
0.000762188
0.000663241
0.000572423
0.000490956
0.000419358
0.000357803
0.000306019
0.000263404
0.00022866
0.000200612
0.000177741
0.000158424
0.000139999
0.000121274
0.00010398
9.02448e-05
8.07481e-05
7.65837e-05
7.07216e-05
8.66142e-05
2.02884e-05
0.000134663
0.000653953
0.00161034
0.00318745
0.0011664
0.00367214
0.0834255
0.00125574
0.00126109
0.00126058
0.00125607
0.00124373
0.00122373
0.00119695
0.00116231
0.00112055
0.00107279
0.00101945
0.000961771
0.000901131
0.000838602
0.000775293
0.000709693
0.000638213
0.000564934
0.000496035
0.000435821
0.000387765
0.000322421
0.000229695
4.66746e-05
1.16779e-05
6.03666e-06
2.43336e-06
5.03416e-10
0
0.00174584
0.00788274
0.0430414
0.00493399
0.10689
0.219588
2.16773
6.18603
10.0968
13.4934
0.00124435
0.00122862
0.00120576
0.00117558
0.00113684
0.00108592
0.0010273
0.000964402
0.000896013
0.000820417
0.000741252
0.000662458
0.000587056
0.000516799
0.000452913
0.000396193
0.000346889
0.00030486
0.000269616
0.000240253
0.000215744
0.000194787
0.000175941
0.00015719
0.000137718
0.000119179
0.000103007
8.94727e-05
7.81199e-05
6.86798e-05
6.05841e-05
5.32222e-05
4.21104e-05
2.69756e-05
1.66189e-08
5.36693e-07
0.000195496
0.000842633
0.00951511
0.00101582
0.00102028
0.00102099
0.00101841
0.0010103
0.000996248
0.000976602
0.000950779
0.000919006
0.00088216
0.000840873
0.000796178
0.000749452
0.000702026
0.000655007
0.000609964
0.000569134
0.000531091
0.000492344
0.000451827
0.000413239
0.000381794
0.000348829
0.00028733
0.000193716
0.000107274
3.66879e-05
6.27168e-09
4.02828e-06
5.02676e-07
0
0
0.00045837
0.032553
0.0213198
0.154617
0.971001
5.06204
10.7509
0.00100748
0.000996184
0.000979761
0.000957139
0.000927788
0.000890121
0.000847791
0.000801648
0.000750838
0.000695128
0.000636579
0.000577396
0.000519371
0.000463742
0.000411553
0.000363631
0.00032044
0.00028226
0.000249091
0.000220543
0.000196066
0.000174842
0.000155823
0.000137547
0.000119247
0.000101907
8.66641e-05
7.38351e-05
6.31548e-05
5.44834e-05
4.79952e-05
4.37729e-05
4.13291e-05
3.84797e-05
3.51839e-05
1.59806e-05
1.54262e-06
7.8571e-08
0.000281938
0.000841941
0.000847686
0.000851099
0.000852473
0.00085014
0.000843765
0.0008336
0.0008189
0.000799662
0.000776296
0.000748767
0.000717611
0.000683441
0.000646815
0.000608387
0.000568943
0.000527995
0.000484474
0.000440399
0.000398693
0.00036181
0.000332151
0.000310802
0.000294098
0.000267125
0.000226659
0.000176772
0.000121351
7.34782e-05
7.97983e-06
3.74893e-06
2.47195e-07
0
0
0.00301164
0.0623011
0.115894
1.11189
6.36355
0.00083331
0.000822908
0.000808964
0.00079045
0.000767247
0.000738493
0.000707078
0.000672448
0.000634107
0.000592516
0.000548611
0.000503763
0.000459079
0.000415397
0.000373568
0.000334404
0.000298399
0.000265986
0.000237325
0.000212251
0.000190361
0.00017104
0.000153448
0.00013648
0.000119562
0.000103418
8.89361e-05
7.63637e-05
6.54372e-05
5.59135e-05
4.77253e-05
4.07143e-05
3.47176e-05
2.95956e-05
2.60248e-05
2.27488e-05
1.60692e-05
1.81082e-06
1.94539e-05
0.000702337
0.000707868
0.0007119
0.000714414
0.000714322
0.000711258
0.00070529
0.000695761
0.000682588
0.000665892
0.000645621
0.000622059
0.000595624
0.00056674
0.000536036
0.000504004
0.000471375
0.000439417
0.000408237
0.000377823
0.000348657
0.000322011
0.000298726
0.00027793
0.000256169
0.000230349
0.000203027
0.000176186
0.000149731
0.000109847
7.32201e-05
4.9848e-06
2.16381e-06
0
0
0
0.0351166
0.155422
2.48363
0.000694755
0.000685974
0.000674628
0.000659556
0.000641178
0.000618991
0.000595074
0.000568581
0.000539292
0.000507807
0.000474569
0.000440357
0.000405835
0.000371518
0.000337999
0.000305892
0.000275678
0.000247758
0.000222382
0.000199588
0.000179202
0.000160835
0.000143901
0.000127659
0.000111705
9.65026e-05
8.27843e-05
7.08273e-05
6.04773e-05
5.1557e-05
4.40268e-05
3.79362e-05
3.32915e-05
3.00539e-05
2.82077e-05
2.84643e-05
3.04811e-05
3.20598e-05
1.20493e-06
0.000592099
0.00059752
0.000602044
0.000605545
0.000607169
0.000606748
0.000604216
0.000599015
0.000591062
0.000580347
0.000566697
0.000550246
0.000531187
0.000509735
0.000486227
0.000461004
0.000434589
0.00040694
0.000378239
0.000349719
0.00032288
0.000298837
0.000277773
0.000257925
0.000236461
0.000212246
0.000187634
0.000166192
0.000149671
0.00013618
0.000123415
9.11887e-05
4.23974e-05
3.62715e-06
1.46039e-08
0
0
0.0535929
0.636458
0.000585152
0.000577499
0.000567962
0.000555431
0.000540615
0.0005233
0.000504665
0.000484038
0.000461447
0.000437325
0.000411892
0.000385618
0.000358845
0.000331845
0.000305057
0.00027893
0.000253834
0.000230173
0.000208202
0.00018805
0.000169676
0.000152844
0.000137156
0.000122116
0.000107418
9.3401e-05
8.06398e-05
6.93815e-05
5.95144e-05
5.08769e-05
4.34074e-05
3.7074e-05
3.17881e-05
2.76351e-05
2.46041e-05
2.40113e-05
2.36394e-05
3.97591e-05
1.62529e-05
0.000502711
0.000507791
0.000512346
0.000516189
0.000518652
0.000519668
0.000519062
0.00051645
0.000511659
0.000504658
0.000495233
0.000483417
0.00046928
0.000452913
0.000434558
0.000414486
0.000393001
0.000370589
0.000347756
0.000324951
0.000302904
0.000282192
0.000263039
0.00024444
0.000224287
0.000201524
0.000177754
0.000156284
0.0001391
0.000126594
0.00011747
0.000112055
9.88608e-05
6.22474e-05
2.98711e-07
2.28636e-10
0
0.00294307
0.16618
0.000496487
0.00048986
0.000481858
0.000471369
0.000459284
0.000445607
0.000430833
0.000414536
0.00039693
0.000378269
0.000358617
0.000338276
0.000317426
0.000296189
0.000274808
0.000253601
0.00023284
0.000212838
0.000193868
0.000176083
0.000159509
0.000144044
0.000129448
0.000115405
0.000101738
8.87036e-05
7.67454e-05
6.6102e-05
5.67259e-05
4.85106e-05
4.14233e-05
3.54742e-05
3.06604e-05
2.70495e-05
2.458e-05
2.42748e-05
2.41486e-05
3.4309e-05
4.26419e-05
0.000429701
0.000434435
0.000438881
0.000442837
0.000445809
0.000447741
0.000448488
0.000447693
0.000445226
0.000441023
0.000434871
0.000426748
0.000416646
0.000404589
0.000390693
0.000375118
0.000358099
0.000339985
0.000320905
0.000301275
0.00028196
0.000263617
0.000246402
0.000229571
0.000211547
0.000191371
0.000170067
0.000150098
0.000133198
0.00011962
0.000108553
0.000101431
9.75077e-05
9.61777e-05
6.47842e-05
3.25279e-06
0
0.000960068
0.0581519
0.000424131
0.000418325
0.000411548
0.000402713
0.00039275
0.000381782
0.000369908
0.000356886
0.000343024
0.000328422
0.000313112
0.000297267
0.000280958
0.000264192
0.000247135
0.000229975
0.000212875
0.000196091
0.000179832
0.000164283
0.000149528
0.000135534
0.000122155
0.00010921
9.66372e-05
8.46278e-05
7.35329e-05
6.35666e-05
5.47199e-05
4.69175e-05
4.01269e-05
3.43545e-05
2.95721e-05
2.58465e-05
2.3202e-05
2.25156e-05
2.27593e-05
2.92583e-05
4.67256e-05
0.000369349
0.000373707
0.000377935
0.000381828
0.000384999
0.000387422
0.000388982
0.000389354
0.000388424
0.000386121
0.000382242
0.000376746
0.000369575
0.000360692
0.000350162
0.00033808
0.000324583
0.000309969
0.000294462
0.000278355
0.000262173
0.000246399
0.000231141
0.000215923
0.000199682
0.000181723
0.000162776
0.000144736
0.000129079
0.000115942
0.000104694
9.53662e-05
8.87126e-05
8.61076e-05
9.17209e-05
4.98628e-05
1.49189e-07
0.000299006
0.0192422
0.000364394
0.000359295
0.000353503
0.000346032
0.000337753
0.000328831
0.000319177
0.000308667
0.000297641
0.000286122
0.000274095
0.000261655
0.000248826
0.000235576
0.000221949
0.000208066
0.000194028
0.000180011
0.000166176
0.000152676
0.000139616
0.000127014
0.000114809
0.000102929
9.13725e-05
8.03105e-05
7.00163e-05
6.06869e-05
5.23456e-05
4.49499e-05
3.84852e-05
3.29743e-05
2.8417e-05
2.48806e-05
2.23912e-05
2.16563e-05
2.19616e-05
2.69283e-05
4.29569e-05
0.000319054
0.000323032
0.000326995
0.000330735
0.000333945
0.000336638
0.000338683
0.000339812
0.000339941
0.000338982
0.000336766
0.000333221
0.000328294
0.000321925
0.000314117
0.00030491
0.000294378
0.00028275
0.000270174
0.000256822
0.000243088
0.000229454
0.000216018
0.000202444
0.000187973
0.000172077
0.000155288
0.000139098
0.000124799
0.000112595
0.00010205
9.2834e-05
8.51134e-05
7.93504e-05
7.77433e-05
9.52496e-05
7.30894e-07
2.87158e-05
0.00478859
0.000314626
0.000310151
0.000305148
0.000298803
0.000291879
0.000284522
0.00027658
0.000268045
0.000259189
0.000250013
0.000240485
0.000230664
0.000220529
0.000210007
0.00019912
0.000187903
0.000176399
0.000164733
0.000153022
0.000141384
0.00012991
0.000118655
0.000107615
9.67954e-05
8.62411e-05
7.60986e-05
6.65981e-05
5.79114e-05
5.00843e-05
4.3101e-05
3.69585e-05
3.16845e-05
2.72788e-05
2.38076e-05
2.13089e-05
2.04496e-05
2.06299e-05
2.49304e-05
3.86349e-05
0.000276798
0.000280405
0.000284087
0.000287608
0.00029075
0.000293547
0.000295843
0.000297439
0.000298265
0.000298227
0.000297188
0.000295077
0.000291818
0.000287341
0.000281616
0.00027466
0.000266518
0.000257311
0.000247208
0.000236321
0.000224859
0.000213241
0.00020155
0.000189554
0.000176736
0.000162709
0.000147855
0.000133342
0.000120285
0.000108986
9.91684e-05
9.06207e-05
8.31091e-05
7.75998e-05
6.94043e-05
8.78042e-05
4.68421e-05
3.6893e-07
0.000277993
0.000272831
0.000268894
0.000264554
0.000259127
0.000253302
0.000247164
0.000240577
0.000233587
0.000226417
0.000219047
0.000211446
0.000203632
0.000195575
0.000187196
0.000178471
0.000169409
0.000160007
0.000150327
0.000140448
0.000130462
0.000120454
0.000110485
0.000100576
9.07648e-05
8.11481e-05
7.18763e-05
6.31336e-05
5.507e-05
4.77457e-05
4.11682e-05
3.53466e-05
3.03171e-05
2.60907e-05
2.27371e-05
2.02936e-05
1.93642e-05
1.94308e-05
2.30641e-05
3.4843e-05
0.000241042
0.000244312
0.000247703
0.000250981
0.000254004
0.000256787
0.000259199
0.000261071
0.000262347
0.000262943
0.000262735
0.000261653
0.000259633
0.000256595
0.000252514
0.000247362
0.000241157
0.000233955
0.000225916
0.000217081
0.000207562
0.000197703
0.000187603
0.000177107
0.000165841
0.00015353
0.000140452
0.000127511
0.000115643
0.000105204
9.60431e-05
8.80761e-05
8.10322e-05
7.58954e-05
6.90382e-05
6.98272e-05
8.40862e-05
2.50661e-07
1.74037e-05
0.000237499
0.00023401
0.000230233
0.000225568
0.000220639
0.000215468
0.000209955
0.000204188
0.000198332
0.000192367
0.000186252
0.000180003
0.000173569
0.000166863
0.000159858
0.000152519
0.000144833
0.00013682
0.000128522
0.00012
0.000111318
0.000102538
9.36967e-05
8.48668e-05
7.61578e-05
6.77168e-05
5.97e-05
5.22428e-05
4.54145e-05
3.92388e-05
3.3736e-05
2.89477e-05
2.48902e-05
2.16336e-05
1.92182e-05
1.81998e-05
1.81621e-05
2.12072e-05
3.14085e-05
0.0002106
0.000213564
0.000216664
0.000219702
0.000222563
0.000225264
0.000227694
0.000229708
0.00023125
0.000232256
0.00023262
0.00023228
0.00023118
0.000229241
0.000226418
0.000222678
0.000218013
0.000212447
0.000206103
0.000199003
0.00019119
0.000182907
0.000174265
0.000165168
0.000155347
0.000144597
0.000133133
0.000121649
0.000110922
0.000101325
9.28049e-05
8.53246e-05
7.87804e-05
7.34936e-05
6.94389e-05
6.11586e-05
9.1512e-05
1.08841e-06
1.02356e-09
0.000207444
0.000204348
0.000201035
0.000197009
0.000192813
0.000188419
0.000183771
0.00017898
0.000174163
0.000169293
0.000164342
0.000159305
0.00015413
0.000148744
0.000143098
0.000137152
0.000130866
0.000124245
0.000117295
0.000110054
0.000102566
9.48764e-05
8.70332e-05
7.91233e-05
7.12718e-05
6.36114e-05
5.62859e-05
4.94142e-05
4.30689e-05
3.72878e-05
3.20996e-05
2.75504e-05
2.36642e-05
2.05118e-05
1.81353e-05
1.70403e-05
1.69072e-05
1.9431e-05
2.8227e-05
0.000184547
0.000187227
0.000190048
0.000192854
0.000195525
0.000198112
0.00020049
0.000202549
0.000204241
0.000205512
0.000206266
0.000206459
0.000206026
0.000204899
0.000203038
0.000200399
0.000196966
0.00019273
0.000187779
0.000182126
0.000175776
0.00016887
0.000161541
0.00015373
0.000145235
0.000135908
0.000125908
0.000115771
0.000106136
9.73659e-05
8.94887e-05
8.24789e-05
7.63912e-05
7.10648e-05
6.80413e-05
5.96922e-05
7.71619e-05
3.18437e-05
6.85171e-07
0.000181729
0.00017898
0.000176062
0.00017257
0.000168981
0.000165218
0.000161275
0.000157263
0.000153269
0.000149264
0.000145225
0.000141139
0.000136957
0.000132604
0.000128037
0.000123205
0.000118061
0.000112591
0.000106783
0.000100648
9.42177e-05
8.75285e-05
8.0619e-05
7.35675e-05
6.65064e-05
5.95821e-05
5.2914e-05
4.66052e-05
4.07295e-05
3.53342e-05
3.04556e-05
2.61418e-05
2.24241e-05
1.93724e-05
1.70306e-05
1.58615e-05
1.56401e-05
1.773e-05
2.5277e-05
0.000162141
0.000164554
0.000167126
0.000169694
0.000172182
0.000174623
0.000176917
0.000178954
0.000180712
0.000182134
0.000183142
0.000183691
0.000183738
0.000183213
0.000182085
0.000180302
0.00017784
0.000174682
0.000170867
0.000166417
0.000161307
0.000155603
0.000149447
0.000142806
0.000135519
0.000127474
0.000118795
0.000109895
0.000101295
9.33316e-05
8.60906e-05
7.95686e-05
7.38702e-05
6.88022e-05
6.55172e-05
6.01277e-05
6.33054e-05
6.0708e-05
8.33984e-06
0.000159622
0.000157175
0.000154597
0.00015156
0.000148465
0.000145227
0.000141859
0.000138481
0.000135143
0.000131826
0.000128507
0.000125168
0.000121766
0.000118229
0.000114517
0.00011058
0.000106364
0.000101842
9.69946e-05
9.18173e-05
8.63152e-05
8.05127e-05
7.44451e-05
6.81953e-05
6.1887e-05
5.56522e-05
4.96011e-05
4.38269e-05
3.84027e-05
3.33815e-05
2.88048e-05
2.47222e-05
2.11714e-05
1.82202e-05
1.5915e-05
1.46797e-05
1.43773e-05
1.61038e-05
2.25504e-05
0.000142785
0.000144959
0.000147295
0.000149644
0.000151944
0.000154232
0.000156408
0.000158389
0.00016015
0.000161644
0.000162805
0.000163601
0.000163988
0.000163912
0.000163331
0.000162208
0.000160505
0.000158203
0.000155304
0.000151844
0.000147782
0.000143125
0.000138001
0.000132403
0.000126204
0.000119312
0.000111823
0.000104053
9.64214e-05
8.92369e-05
8.2616e-05
7.65908e-05
7.12448e-05
6.65595e-05
6.28463e-05
5.96593e-05
5.61987e-05
6.42569e-05
3.15888e-05
0.000140533
0.00013835
0.000136068
0.000133419
0.000130729
0.00012793
0.00012504
0.000122171
0.000119363
0.000116597
0.000113849
0.000111102
0.000108315
0.000105428
0.000102397
9.91753e-05
9.57126e-05
9.19742e-05
8.79282e-05
8.35614e-05
7.88713e-05
7.38645e-05
6.85627e-05
6.30437e-05
5.74264e-05
5.18301e-05
4.6357e-05
4.10903e-05
3.60996e-05
3.14402e-05
2.71576e-05
2.33013e-05
1.99146e-05
1.70622e-05
1.47935e-05
1.34981e-05
1.31217e-05
1.4556e-05
2.00523e-05
0.000125999
0.00012796
0.000130077
0.000132221
0.000134338
0.000136466
0.000138511
0.000140408
0.000142133
0.000143645
0.000144891
0.000145842
0.00014646
0.000146701
0.000146527
0.000145903
0.000144789
0.000143164
0.000141012
0.000138372
0.000135186
0.000131427
0.000127207
0.000122533
0.000117303
0.00011144
0.000105015
9.82693e-05
9.154e-05
8.50995e-05
7.908e-05
7.35452e-05
6.85485e-05
6.4214e-05
6.03688e-05
5.79445e-05
5.34002e-05
5.76932e-05
4.76287e-05
0.000123986
0.000122035
0.000120011
0.000117694
0.000115343
0.000112909
0.000110418
0.000107969
0.000105591
0.000103267
0.000100972
9.86946e-05
9.63971e-05
9.40251e-05
9.15387e-05
8.88921e-05
8.60377e-05
8.29415e-05
7.95675e-05
7.58908e-05
7.18965e-05
6.75881e-05
6.29778e-05
5.81254e-05
5.31364e-05
4.81295e-05
4.31967e-05
3.8409e-05
3.38313e-05
2.95193e-05
2.55209e-05
2.18848e-05
1.86588e-05
1.59032e-05
1.3672e-05
1.2324e-05
1.18808e-05
1.30818e-05
1.77667e-05
0.000111393
0.000113159
0.000115079
0.000117028
0.000118974
0.000120942
0.000122852
0.000124648
0.00012631
0.000127802
0.000129078
0.000130117
0.000130888
0.000131349
0.000131476
0.000131226
0.000130569
0.000129479
0.000127929
0.000125948
0.000123482
0.00012049
0.000117052
0.000113187
0.000108816
0.000103867
9.83892e-05
9.25691e-05
8.66733e-05
8.09366e-05
7.54974e-05
7.0438e-05
6.5802e-05
6.17557e-05
5.80324e-05
5.55819e-05
5.18814e-05
5.13431e-05
5.0997e-05
0.000109594
0.000107844
0.000106047
0.000104013
0.00010195
9.98257e-05
9.76681e-05
9.55643e-05
9.35366e-05
9.15676e-05
8.96418e-05
8.77414e-05
8.58324e-05
8.38696e-05
8.18157e-05
7.96329e-05
7.72733e-05
7.47018e-05
7.18832e-05
6.87886e-05
6.53972e-05
6.16978e-05
5.76962e-05
5.34422e-05
4.90319e-05
4.45693e-05
4.01358e-05
3.57959e-05
3.16082e-05
2.76277e-05
2.39025e-05
2.04807e-05
1.74111e-05
1.47506e-05
1.25572e-05
1.11635e-05
1.06628e-05
1.16834e-05
1.56865e-05
9.86422e-05
0.000100234
0.000101972
0.000103743
0.000105526
0.000107339
0.000109113
0.000110797
0.00011238
0.000113826
0.000115099
0.000116181
0.000117045
0.000117657
0.000117995
0.000118022
0.000117711
0.000117034
0.000115962
0.000114512
0.000112639
0.000110296
0.00010753
0.000104367
0.000100748
9.66035e-05
9.19646e-05
8.69749e-05
8.18428e-05
7.67674e-05
7.18827e-05
6.72802e-05
6.30071e-05
5.92152e-05
5.57136e-05
5.30717e-05
5.01972e-05
4.72144e-05
4.83338e-05
9.70344e-05
9.54658e-05
9.38654e-05
9.20741e-05
9.02567e-05
8.83966e-05
8.65172e-05
8.4701e-05
8.29615e-05
8.12833e-05
7.96518e-05
7.80531e-05
7.64564e-05
7.48224e-05
7.31191e-05
7.13068e-05
6.93471e-05
6.72069e-05
6.48487e-05
6.2242e-05
5.93633e-05
5.61943e-05
5.27313e-05
4.90143e-05
4.51255e-05
4.11596e-05
3.71845e-05
3.32608e-05
2.94406e-05
2.57757e-05
2.23129e-05
1.90981e-05
1.61803e-05
1.3613e-05
1.14578e-05
1.00244e-05
9.47302e-06
1.03612e-05
1.38041e-05
8.74821e-05
8.89151e-05
9.04861e-05
9.20966e-05
9.37239e-05
9.53892e-05
9.70292e-05
9.86007e-05
0.000100091
0.000101475
0.000102717
0.000103807
0.000104718
0.000105427
0.000105912
0.000106141
0.00010609
0.000105731
0.000105037
0.000104013
0.000102624
0.000100825
9.86286e-05
9.60717e-05
9.31026e-05
8.96592e-05
8.57586e-05
8.15091e-05
7.70707e-05
7.26108e-05
6.82519e-05
6.40883e-05
6.01707e-05
5.66251e-05
5.33466e-05
5.06047e-05
4.8095e-05
4.44601e-05
4.44604e-05
8.60412e-05
8.46381e-05
8.3209e-05
8.16273e-05
8.00219e-05
7.83866e-05
7.67434e-05
7.51653e-05
7.36633e-05
7.2223e-05
7.08335e-05
6.94802e-05
6.81358e-05
6.6764e-05
6.5339e-05
6.38271e-05
6.21933e-05
6.04057e-05
5.84288e-05
5.62324e-05
5.37903e-05
5.10789e-05
4.80879e-05
4.48463e-05
4.14246e-05
3.79055e-05
3.43536e-05
3.08155e-05
2.73394e-05
2.39731e-05
2.07607e-05
1.77452e-05
1.49752e-05
1.24995e-05
1.03824e-05
8.91427e-06
8.3197e-06
9.11363e-06
1.2104e-05
7.76881e-05
7.89781e-05
8.03972e-05
8.1861e-05
8.33434e-05
8.48695e-05
8.63796e-05
8.7837e-05
8.92331e-05
9.05421e-05
9.1738e-05
9.28098e-05
9.37376e-05
9.45017e-05
9.50812e-05
9.54541e-05
9.55941e-05
9.5478e-05
9.508e-05
9.43923e-05
9.33971e-05
9.20427e-05
9.03242e-05
8.82811e-05
8.58741e-05
8.30409e-05
7.97871e-05
7.61928e-05
7.23807e-05
6.84864e-05
6.46216e-05
6.08759e-05
5.73019e-05
5.40048e-05
5.09271e-05
4.81978e-05
4.57544e-05
4.21763e-05
4.09486e-05
7.63963e-05
7.51401e-05
7.38619e-05
7.24625e-05
7.10411e-05
6.95975e-05
6.81565e-05
6.67797e-05
6.54749e-05
6.42315e-05
6.30388e-05
6.18829e-05
6.07403e-05
5.95833e-05
5.83854e-05
5.71161e-05
5.57465e-05
5.42475e-05
5.25868e-05
5.07321e-05
4.86579e-05
4.63386e-05
4.37593e-05
4.09387e-05
3.79367e-05
3.48217e-05
3.16537e-05
2.84703e-05
2.53148e-05
2.2229e-05
1.92545e-05
1.6431e-05
1.38044e-05
1.1419e-05
9.33928e-06
7.84004e-06
7.20807e-06
7.9446e-06
1.05795e-05
6.90719e-05
7.02349e-05
7.15165e-05
7.28436e-05
7.41935e-05
7.55878e-05
7.69746e-05
7.83196e-05
7.96202e-05
8.08491e-05
8.19876e-05
8.30246e-05
8.39465e-05
8.47331e-05
8.5371e-05
8.58411e-05
8.61186e-05
8.61837e-05
8.60124e-05
8.559e-05
8.49087e-05
8.39209e-05
8.2602e-05
8.09951e-05
7.90655e-05
7.67551e-05
7.40609e-05
7.10417e-05
6.77909e-05
6.4414e-05
6.10085e-05
5.76574e-05
5.4414e-05
5.13605e-05
4.84722e-05
4.58147e-05
4.33506e-05
3.99561e-05
3.79384e-05
6.79158e-05
6.67894e-05
6.56441e-05
6.44043e-05
6.31429e-05
6.18648e-05
6.05971e-05
5.93895e-05
5.82509e-05
5.71705e-05
5.61405e-05
5.51473e-05
5.41702e-05
5.31853e-05
5.21706e-05
5.11006e-05
4.99467e-05
4.86833e-05
4.72829e-05
4.57151e-05
4.39523e-05
4.19675e-05
3.97426e-05
3.72902e-05
3.4659e-05
3.19098e-05
2.90891e-05
2.62318e-05
2.33734e-05
2.05508e-05
1.78025e-05
1.51635e-05
1.26757e-05
1.03796e-05
8.33781e-06
6.80949e-06
6.14418e-06
6.85486e-06
9.21762e-06
6.14774e-05
6.25254e-05
6.36834e-05
6.48849e-05
6.61121e-05
6.73843e-05
6.86532e-05
6.98921e-05
7.10965e-05
7.22443e-05
7.33176e-05
7.43093e-05
7.52076e-05
7.59961e-05
7.66647e-05
7.7195e-05
7.75674e-05
7.7765e-05
7.77646e-05
7.75502e-05
7.71171e-05
7.64235e-05
7.54376e-05
7.41939e-05
7.26671e-05
7.08026e-05
6.85913e-05
6.60742e-05
6.33205e-05
6.04125e-05
5.74307e-05
5.44489e-05
5.15193e-05
4.87084e-05
4.59999e-05
4.34405e-05
4.0971e-05
3.77228e-05
3.52631e-05
6.04429e-05
5.9433e-05
5.84054e-05
5.73047e-05
5.61833e-05
5.50484e-05
5.39294e-05
5.28675e-05
5.18691e-05
5.09249e-05
5.00288e-05
4.91697e-05
4.83289e-05
4.74855e-05
4.66194e-05
4.57106e-05
4.4733e-05
4.36656e-05
4.248e-05
4.11501e-05
3.96499e-05
3.79519e-05
3.60338e-05
3.39044e-05
3.16013e-05
2.9177e-05
2.66704e-05
2.41098e-05
2.1525e-05
1.89488e-05
1.64138e-05
1.39515e-05
1.15991e-05
9.39192e-06
7.38811e-06
5.83071e-06
5.13354e-06
5.84758e-06
8.01009e-06
5.47716e-05
5.57147e-05
5.67615e-05
5.78479e-05
5.89625e-05
6.01218e-05
6.128e-05
6.24184e-05
6.35285e-05
6.45952e-05
6.56001e-05
6.65394e-05
6.74013e-05
6.81761e-05
6.88524e-05
6.94159e-05
6.9852e-05
7.0142e-05
7.027e-05
7.02157e-05
6.99782e-05
6.95182e-05
6.88043e-05
6.78603e-05
6.66701e-05
6.51839e-05
6.33855e-05
6.13036e-05
5.89872e-05
5.64989e-05
5.3905e-05
5.12678e-05
4.86315e-05
4.60579e-05
4.35278e-05
4.10777e-05
3.86357e-05
3.55054e-05
3.28066e-05
5.38443e-05
5.29394e-05
5.20177e-05
5.10383e-05
5.00399e-05
4.90313e-05
4.80399e-05
4.71025e-05
4.6223e-05
4.53937e-05
4.46099e-05
4.38615e-05
4.31324e-05
4.24054e-05
4.1663e-05
4.08863e-05
4.00539e-05
3.91461e-05
3.81393e-05
3.70085e-05
3.57285e-05
3.42735e-05
3.26201e-05
3.07712e-05
2.87575e-05
2.66221e-05
2.43974e-05
2.21069e-05
1.97745e-05
1.7428e-05
1.50949e-05
1.28025e-05
1.05832e-05
8.46551e-06
6.50084e-06
4.91233e-06
4.18035e-06
4.92579e-06
6.94691e-06
4.88392e-05
4.9689e-05
5.06332e-05
5.1616e-05
5.26268e-05
5.36806e-05
5.47374e-05
5.57794e-05
5.68e-05
5.77859e-05
5.8722e-05
5.9604e-05
6.04245e-05
6.11736e-05
6.18428e-05
6.24207e-05
6.28942e-05
6.32474e-05
6.34668e-05
6.35333e-05
6.34452e-05
6.31699e-05
6.26745e-05
6.19788e-05
6.10668e-05
5.98954e-05
5.8447e-05
5.67391e-05
5.48051e-05
5.26904e-05
5.04469e-05
4.81274e-05
4.57691e-05
4.34192e-05
4.10693e-05
3.87314e-05
3.63453e-05
3.33312e-05
3.05138e-05
4.80077e-05
4.71977e-05
4.6371e-05
4.54971e-05
4.46076e-05
4.37103e-05
4.28299e-05
4.19997e-05
4.1222e-05
4.04908e-05
3.98017e-05
3.91459e-05
3.85101e-05
3.78785e-05
3.7238e-05
3.65703e-05
3.5858e-05
3.50828e-05
3.42241e-05
3.32595e-05
3.21658e-05
3.0917e-05
2.94904e-05
2.78849e-05
2.61241e-05
2.42456e-05
2.22741e-05
2.02286e-05
1.8128e-05
1.59948e-05
1.38529e-05
1.17239e-05
9.63529e-06
7.60905e-06
5.68666e-06
4.06396e-06
3.28867e-06
4.09515e-06
6.02047e-06
4.35831e-05
4.43491e-05
4.52001e-05
4.60887e-05
4.70049e-05
4.79611e-05
4.8924e-05
4.98755e-05
5.0812e-05
5.17198e-05
5.25878e-05
5.34116e-05
5.41852e-05
5.49002e-05
5.55513e-05
5.6127e-05
5.66188e-05
5.70128e-05
5.72957e-05
5.74505e-05
5.74755e-05
5.73432e-05
5.7023e-05
5.6527e-05
5.58434e-05
5.49342e-05
5.37804e-05
5.23906e-05
5.07871e-05
4.90018e-05
4.70734e-05
4.5043e-05
4.2943e-05
4.08094e-05
3.86339e-05
3.6418e-05
3.41077e-05
3.12227e-05
2.83703e-05
4.28378e-05
4.21125e-05
4.13714e-05
4.05903e-05
3.97975e-05
3.8998e-05
3.8215e-05
3.74776e-05
3.67879e-05
3.61401e-05
3.55312e-05
3.49545e-05
3.43971e-05
3.38454e-05
3.32886e-05
3.27113e-05
3.20985e-05
3.14338e-05
3.06989e-05
2.98733e-05
2.89361e-05
2.78625e-05
2.66303e-05
2.5236e-05
2.3698e-05
2.20458e-05
2.03009e-05
1.84766e-05
1.65883e-05
1.46536e-05
1.26919e-05
1.07208e-05
8.76202e-06
6.83145e-06
4.95762e-06
3.29817e-06
2.46177e-06
3.36338e-06
5.22448e-06
3.89203e-05
3.96099e-05
4.03773e-05
4.11796e-05
4.20092e-05
4.28769e-05
4.3752e-05
4.46196e-05
4.54768e-05
4.63104e-05
4.71115e-05
4.78766e-05
4.86007e-05
4.92772e-05
4.99018e-05
5.04664e-05
5.0962e-05
5.13772e-05
5.17006e-05
5.19185e-05
5.20271e-05
5.20042e-05
5.18222e-05
5.14864e-05
5.09872e-05
5.02931e-05
4.9385e-05
4.82639e-05
4.6944e-05
4.54462e-05
4.37979e-05
4.20308e-05
4.01684e-05
3.82394e-05
3.62348e-05
3.41492e-05
3.1929e-05
2.91822e-05
2.63633e-05
3.82521e-05
3.76022e-05
3.69382e-05
3.62401e-05
3.55324e-05
3.48196e-05
3.41223e-05
3.34659e-05
3.28524e-05
3.22767e-05
3.17374e-05
3.12265e-05
3.07348e-05
3.02516e-05
2.97656e-05
2.92641e-05
2.87335e-05
2.81609e-05
2.75293e-05
2.68204e-05
2.60152e-05
2.50913e-05
2.40259e-05
2.28138e-05
2.14703e-05
2.00186e-05
1.84759e-05
1.68518e-05
1.51576e-05
1.34073e-05
1.16161e-05
9.79808e-06
7.96941e-06
6.14049e-06
4.32579e-06
2.63237e-06
1.70091e-06
2.74269e-06
4.55302e-06
3.47781e-05
3.53991e-05
3.60902e-05
3.68144e-05
3.75647e-05
3.8351e-05
3.91454e-05
3.99352e-05
4.07179e-05
4.14812e-05
4.22181e-05
4.29258e-05
4.35997e-05
4.42354e-05
4.48286e-05
4.53732e-05
4.58614e-05
4.62842e-05
4.66321e-05
4.68929e-05
4.70614e-05
4.71203e-05
4.70439e-05
4.68341e-05
4.64829e-05
4.5964e-05
4.5258e-05
4.43627e-05
4.32842e-05
4.20351e-05
4.06338e-05
3.91026e-05
3.74593e-05
3.57222e-05
3.38839e-05
3.19308e-05
2.98175e-05
2.72212e-05
2.44825e-05
3.4179e-05
3.35972e-05
3.30019e-05
3.23779e-05
3.17461e-05
3.11101e-05
3.04885e-05
2.99035e-05
2.93568e-05
2.88437e-05
2.83636e-05
2.79104e-05
2.74753e-05
2.70489e-05
2.66224e-05
2.61846e-05
2.5724e-05
2.5229e-05
2.46838e-05
2.40738e-05
2.33807e-05
2.25835e-05
2.16613e-05
2.06075e-05
1.94335e-05
1.81589e-05
1.67963e-05
1.53527e-05
1.38361e-05
1.22574e-05
1.06279e-05
8.95822e-06
7.26079e-06
5.54155e-06
3.80271e-06
2.09375e-06
1.00865e-06
2.25013e-06
4.00106e-06
3.10941e-05
3.16531e-05
3.22749e-05
3.29285e-05
3.36066e-05
3.43182e-05
3.50388e-05
3.57568e-05
3.64699e-05
3.71677e-05
3.78436e-05
3.84955e-05
3.91199e-05
3.97129e-05
4.02714e-05
4.07908e-05
4.12645e-05
4.16854e-05
4.20447e-05
4.23311e-05
4.25398e-05
4.26577e-05
4.26619e-05
4.25493e-05
4.2315e-05
4.19363e-05
4.13959e-05