/*--------------------------------*- C++ -*----------------------------------*\
| =========                 |                                                 |
| \\      /  F ield         | OpenFOAM: The Open Source CFD Toolbox           |
|  \\    /   O peration     | Version:  2306                                  |
|   \\  /    A nd           | Website:  www.openfoam.com                      |
|    \\/     M anipulation  |                                                 |
\*---------------------------------------------------------------------------*/
FoamFile
{
    version     2.0;
    format      ascii;
    arch        "LSB;label=32;scalar=64";
    class       volScalarField;
    location    "250";
    object      turbulenceProperties:epsilon;
}
// * * * * * * * * * * * * * * * * * * * * * * * * * * * * * * * * * * * * * //

dimensions      [0 2 -3 0 0 0 0];

internalField   nonuniform List<scalar> 
10720
(
0.259252
0.339946
0.452795
0.623329
0.839884
1.13444
1.53026
2.03429
2.68321
3.51337
4.57642
5.96245
7.79955
10.2873
13.7657
18.7516
26.2234
37.3489
55.998
83.0735
139.441
212.244
434.465
741.764
742.089
673.635
643.477
643.194
648.753
644.681
627.606
597.72
552.446
493.083
419.943
337.435
235.024
147.702
16.7591
0.194043
0.147008
0.100318
0.0666366
0.0405273
0.0221631
0.0111743
0.0063102
0.00685128
0.0122562
0.0258938
0.0542361
0.107184
0.19772
0.340198
0.553773
0.870478
1.3531
2.12217
3.40274
5.64794
9.71617
17.6499
33.2396
67.693
140.9
319.132
663.479
945.196
1067.03
1100.27
1101.83
1088.22
1062.45
1025.45
978.957
912.861
836.84
619.157
0.00735958
0.00727861
0.00711304
0.0067084
0.00610536
0.00544704
0.00471845
0.00396156
0.00327765
0.00267001
0.00214867
0.00181962
0.00177194
0.00210348
0.00330286
0.00670018
0.0165147
0.0441023
0.138297
0.447816
1.73622
6.20331
23.1492
82.6751
164.634
233.003
276.107
283.178
249.844
192.672
135.696
91.8109
63.4176
45.6518
34.2112
26.462
21.7193
17.5951
20.1658
0.00722601
0.0070305
0.00664019
0.00608206
0.0053588
0.00447546
0.00354085
0.00273927
0.00209077
0.00153394
0.00108395
0.000757234
0.000526629
0.000363647
0.000248982
0.000169084
0.000113285
7.46536e-05
4.72633e-05
2.75573e-05
1.31714e-05
4.21331e-06
4.00242e-07
6.76292e-09
5.61147e-08
0.000987311
0.00607235
0.0513369
0.170887
0.319967
0.466923
0.615668
0.774192
0.947162
1.13503
1.34863
1.59628
2.20959
4.10522
0.00330171
0.00324953
0.00310439
0.00288904
0.00267208
0.00244344
0.00222271
0.00203307
0.00187668
0.00175956
0.00167143
0.00162156
0.0016077
0.00163437
0.00164353
0.00154683
0.00118986
0.00088217
7.86122e-06
0.0162021
0.00427416
0.00626156
0.000130669
0.03055
0.529384
2.48487
7.60957
19.5138
41.244
69.0631
90.1866
93.274
79.5917
60.4276
44.0171
31.8594
23.9109
16.9011
20.4418
0.00335362
0.00334569
0.00332819
0.00321108
0.00300812
0.00268203
0.00226297
0.00182792
0.00146511
0.00113367
0.000824488
0.000571924
0.000384942
0.000253493
0.000165588
0.000108222
7.1943e-05
4.93485e-05
3.55804e-05
2.70751e-05
2.18869e-05
1.88105e-05
1.72111e-05
1.63571e-05
1.6297e-05
1.61103e-05
1.82209e-05
6.36431e-06
0.000167718
0.000992572
0.00208894
0.00364646
0.00960575
0.0265567
0.059905
0.110734
0.177102
0.222175
0.550364
0.00235367
0.00236339
0.00233969
0.00230086
0.00222179
0.00210668
0.00196745
0.00180033
0.0016184
0.00142846
0.00123759
0.00105098
0.000872604
0.000707309
0.000557453
0.000419342
0.000301626
0.00021225
0.000121798
3.76856e-05
1.25489e-14
0.000200992
0.000101239
0.0108835
0.0363896
0.0553311
0.0206945
0.00397204
0.0146404
0.406708
3.03678
11.1694
24.3042
34.7961
36.7192
32.1263
26.4285
19.6728
21.3813
0.00230347
0.00222842
0.0021131
0.00197829
0.00181553
0.00161296
0.00139161
0.00117402
0.000967111
0.000765232
0.000581403
0.00043196
0.000318357
0.000234326
0.000173342
0.000129287
9.78757e-05
7.55179e-05
5.96679e-05
4.81416e-05
3.96858e-05
3.32141e-05
2.79035e-05
2.28173e-05
1.81242e-05
1.46338e-05
1.22447e-05
1.06575e-05
8.88413e-06
6.83331e-06
3.86254e-06
1.53797e-06
2.28608e-05
1.51563e-05
6.87286e-05
0.000871041
0.00494781
0.0189842
0.139986
0.0013247
0.00132001
0.00129945
0.00126321
0.00120817
0.00113549
0.00105066
0.000956596
0.000857927
0.000761684
0.000671227
0.000589834
0.00052013
0.000462791
0.000417642
0.000381487
0.000345159
0.000303623
0.000261992
0.000207103
9.44043e-05
8.57449e-06
1.44602e-07
2.504e-09
0
0
0.0121236
0.0145833
0.0307131
0.0124691
0.0226578
0.0167855
0.148504
2.25891
8.70383
16.4693
20.6802
19.5802
21.6803
0.00131785
0.00129926
0.00126266
0.00120516
0.00112635
0.00101926
0.000898137
0.000776615
0.00065677
0.000536781
0.000424796
0.000327886
0.00024828
0.00018494
0.000136044
9.92575e-05
7.22568e-05
5.2855e-05
3.91592e-05
2.95103e-05
2.27148e-05
1.7831e-05
1.41662e-05
1.10632e-05
8.3023e-06
6.10409e-06
4.59891e-06
3.68372e-06
3.31283e-06
2.83283e-06
4.1732e-06
2.06568e-07
8.55034e-06
5.1377e-05
0.000108264
0.000183525
5.48927e-05
0.000242993
0.0151124
0.000890006
0.000897611
0.000896885
0.000890485
0.000873073
0.000845219
0.00080862
0.000762502
0.000708695
0.000649568
0.000586571
0.000522076
0.000458316
0.000396918
0.000339251
0.00028427
0.000229886
0.000180118
0.000138841
0.000107128
8.47143e-05
5.87955e-05
2.97761e-05
9.3597e-07
4.16807e-08
9.4581e-09
1.2257e-09
6.22823e-18
0
0.000981455
0.0055174
0.0316699
0.00321102
0.041448
0.0390467
1.53387
7.21032
13.6918
19.641
0.000873941
0.000851994
0.000820574
0.000780012
0.00072945
0.000665559
0.000595649
0.000524947
0.000453137
0.000379902
0.000310123
0.000247697
0.00019452
0.000150747
0.00011578
8.85969e-05
6.79181e-05
5.24571e-05
4.10295e-05
3.25794e-05
2.62713e-05
2.14155e-05
1.74722e-05
1.39465e-05
1.07055e-05
8.01745e-06
5.98954e-06
4.5193e-06
3.44568e-06
2.66376e-06
2.07369e-06
1.60035e-06
1.00507e-06
4.11649e-07
3.01519e-14
7.78989e-11
6.62013e-06
4.88777e-05
0.00112822
0.000582408
0.000587535
0.000588356
0.00058538
0.000576092
0.000560182
0.000538306
0.000510214
0.000476683
0.000439225
0.000399073
0.000357775
0.000317012
0.000278158
0.000242145
0.000209985
0.000182812
0.000159185
0.000136798
0.000115203
9.63227e-05
8.21033e-05
6.84864e-05
4.66973e-05
2.11784e-05
6.20488e-06
6.0808e-07
2.13499e-15
4.50553e-09
4.16303e-11
0
0
0.00011057
0.0164053
0.0100884
0.0345345
0.36955
4.66979
13.7974
0.000572883
0.000560115
0.000541798
0.000517069
0.000485839
0.000447191
0.000405672
0.000362717
0.000318195
0.00027273
0.000228722
0.00018817
0.000152251
0.000121383
9.55993e-05
7.46319e-05
5.79557e-05
4.49677e-05
3.50201e-05
2.74529e-05
2.16972e-05
1.7254e-05
1.37045e-05
1.06783e-05
8.02592e-06
5.86149e-06
4.2392e-06
3.07708e-06
2.25136e-06
1.67569e-06
1.30055e-06
1.08199e-06
9.64474e-07
8.37235e-07
7.01234e-07
1.36251e-07
7.53705e-10
8.80172e-13
2.6666e-05
0.000400092
0.000405571
0.000408842
0.000410163
0.000407922
0.000401827
0.000392204
0.000378493
0.000360919
0.000340135
0.000316439
0.000290653
0.000263632
0.000236133
0.000208908
0.000182698
0.000157345
0.000132475
0.000109466
8.97138e-05
7.38817e-05
6.22568e-05
5.44758e-05
4.86966e-05
4.01451e-05
2.89466e-05
1.76757e-05
8.33587e-06
2.9815e-06
2.28397e-08
4.27858e-09
9.53379e-12
0
0
0.000871783
0.0225144
0.0266764
0.419145
6.12817
0.000391932
0.00038221
0.000369366
0.000352654
0.000332252
0.000307815
0.000282185
0.000255222
0.000226948
0.000198154
0.000169876
0.000143238
0.000118954
9.73935e-05
7.87666e-05
6.31169e-05
5.02571e-05
3.9932e-05
3.17901e-05
2.54275e-05
2.04532e-05
1.6512e-05
1.32899e-05
1.05134e-05
8.06846e-06
6.03667e-06
4.46437e-06
3.29139e-06
2.41691e-06
1.76462e-06
1.28568e-06
9.35764e-07
6.80448e-07
4.94621e-07
3.82143e-07
2.92879e-07
1.45388e-07
1.10195e-09
1.91064e-07
0.000278412
0.000282813
0.000286044
0.000288069
0.000287995
0.000285529
0.000280759
0.000273224
0.000262976
0.000250268
0.000235263
0.000218404
0.000200236
0.000181286
0.000162175
0.000143371
0.000125408
0.000108979
9.40617e-05
8.05676e-05
6.86083e-05
5.85227e-05
5.03649e-05
4.35858e-05
3.69994e-05
2.98813e-05
2.31711e-05
1.74237e-05
1.25945e-05
6.83475e-06
3.01877e-06
8.3777e-09
1.30828e-09
0
0
0
0.00893798
0.0249442
1.41819
0.000272433
0.000265592
0.000256879
0.00024553
0.000232036
0.000216255
0.000199867
0.000182468
0.000164153
0.000145546
0.000127117
0.000109449
9.29616e-05
7.79048e-05
6.44815e-05
5.28128e-05
4.28952e-05
3.46465e-05
2.79126e-05
2.24838e-05
1.81254e-05
1.46004e-05
1.16878e-05
9.19832e-06
7.04284e-06
5.25629e-06
3.86809e-06
2.8314e-06
2.06436e-06
1.50029e-06
1.09404e-06
8.12294e-07
6.25574e-07
5.09832e-07
4.49052e-07
4.57097e-07
5.23055e-07
5.8255e-07
3.84118e-10
0.000197872
0.000201512
0.000204575
0.000206961
0.000208074
0.000207785
0.000206055
0.000202523
0.000197181
0.000190097
0.00018126
0.000170889
0.000159256
0.000146652
0.000133438
0.000119953
0.0001066
9.34675e-05
8.07483e-05
6.90301e-05
5.88409e-05
5.04037e-05
4.35487e-05
3.75487e-05
3.15588e-05
2.54214e-05
1.98562e-05
1.55596e-05
1.25959e-05
1.0403e-05
8.52636e-06
4.7075e-06
9.76365e-07
4.25308e-09
1.74966e-14
0
0
0.0104667
0.172822
0.000193257
0.000188236
0.000182071
0.000174126
0.000164959
0.000154561
0.00014375
0.00013224
0.000120184
0.000107947
9.57573e-05
8.39305e-05
7.26804e-05
6.21548e-05
5.2525e-05
4.39133e-05
3.63666e-05
2.99029e-05
2.44665e-05
1.99594e-05
1.62496e-05
1.31856e-05
1.06177e-05
8.4168e-06
6.51264e-06
4.92386e-06
3.6703e-06
2.717e-06
1.99915e-06
1.46097e-06
1.06348e-06
7.75783e-07
5.70339e-07
4.31041e-07
3.41703e-07
3.25282e-07
3.15793e-07
8.76555e-07
1.32063e-07
0.000142637
0.000145535
0.000148157
0.000150389
0.000151827
0.000152423
0.000152068
0.000150542
0.000147762
0.000143746
0.000138427
0.0001319
0.000124298
0.00011578
0.000106585
9.69664e-05
8.71742e-05
7.75148e-05
6.8257e-05
5.95982e-05
5.17853e-05
4.49453e-05
3.90512e-05
3.3724e-05
2.8393e-05
2.29233e-05
1.78349e-05
1.37851e-05
1.09165e-05
9.03184e-06
7.75972e-06
7.02657e-06
5.48219e-06
2.19073e-06
1.57053e-11
1.51675e-18
0
0.000387147
0.0258061
0.000139127
0.000135439
0.000131051
0.000125408
0.000119059
0.000112074
0.000104765
9.69901e-05
8.89266e-05
8.07615e-05
7.25884e-05
6.45872e-05
5.68707e-05
4.95156e-05
4.2625e-05
3.63e-05
3.05997e-05
2.55684e-05
2.12136e-05
1.74999e-05
1.43606e-05
1.1711e-05
9.4578e-06
7.51713e-06
5.84212e-06
4.44105e-06
3.32436e-06
2.46622e-06
1.8162e-06
1.32823e-06
9.68477e-07
7.10271e-07
5.30583e-07
4.12961e-07
3.41024e-07
3.32493e-07
3.29509e-07
6.6045e-07
1.03061e-06
0.000104215
0.000106524
0.000108716
0.000110685
0.000112175
0.00011315
0.000113528
0.000113126
0.000111883
0.00010978
0.000106739
0.000102789
9.798e-05
9.23914e-05
8.61535e-05
7.94215e-05
7.23783e-05
6.52412e-05
5.81237e-05
5.12304e-05
4.48721e-05
3.92235e-05
3.42677e-05
2.9746e-05
2.52584e-05
2.06703e-05
1.63248e-05
1.27168e-05
1.00151e-05
8.0769e-06
6.64994e-06
5.79639e-06
5.33707e-06
5.15989e-06
2.37864e-06
3.38976e-09
0
0.000100216
0.00804086
0.000101531
9.87707e-05
9.55967e-05
9.15364e-05
8.70631e-05
8.22681e-05
7.72304e-05
7.18888e-05
6.64129e-05
6.08792e-05
5.53356e-05
4.98768e-05
4.45541e-05
3.93953e-05
3.44727e-05
2.98514e-05
2.55773e-05
2.17031e-05
1.82532e-05
1.52332e-05
1.26196e-05
1.03681e-05
8.42217e-06
6.73169e-06
5.27097e-06
4.0423e-06
3.05187e-06
2.28066e-06
1.69002e-06
1.24243e-06
9.08807e-07
6.66143e-07
4.93588e-07
3.7705e-07
3.03845e-07
2.8611e-07
2.92421e-07
4.82933e-07
1.23207e-06
7.69965e-05
7.88245e-05
8.06182e-05
8.22878e-05
8.36602e-05
8.47166e-05
8.54003e-05
8.55637e-05
8.51559e-05
8.41489e-05
8.2467e-05
8.01125e-05
7.70918e-05
7.34302e-05
6.92055e-05
6.45124e-05
5.9464e-05
5.42299e-05
4.89397e-05
4.3732e-05
3.8795e-05
3.42671e-05
3.01545e-05
2.63144e-05
2.25048e-05
1.86385e-05
1.49544e-05
1.18235e-05
9.40416e-06
7.58781e-06
6.18776e-06
5.1343e-06
4.43964e-06
4.17102e-06
4.6705e-06
1.3976e-06
3.33246e-12
2.89308e-05
0.00267205
7.49443e-05
7.28622e-05
7.05322e-05
6.75827e-05
6.43871e-05
6.10304e-05
5.74998e-05
5.37755e-05
5.00023e-05
4.62069e-05
4.2404e-05
3.86424e-05
3.4946e-05
3.13232e-05
2.78044e-05
2.44348e-05
2.12489e-05
1.82896e-05
1.55861e-05
1.31567e-05
1.10021e-05
9.10557e-06
7.43972e-06
5.97965e-06
4.71231e-06
3.64039e-06
2.76695e-06
2.0787e-06
1.54655e-06
1.1404e-06
8.35967e-07
6.13692e-07
4.5578e-07
3.49398e-07
2.82977e-07
2.64708e-07
2.72208e-07
4.09377e-07
1.04083e-06
5.74548e-05
5.88965e-05
6.03505e-05
6.17391e-05
6.29435e-05
6.39627e-05
6.47423e-05
6.51748e-05
6.52245e-05
6.48568e-05
6.40117e-05
6.2671e-05
6.08317e-05
5.84941e-05
5.56911e-05
5.24744e-05
4.89119e-05
4.51239e-05
4.11992e-05
3.72278e-05
3.33525e-05
2.97162e-05
2.63378e-05
2.31318e-05
1.99429e-05
1.67124e-05
1.36103e-05
1.09201e-05
8.79028e-06
7.15529e-06
5.87807e-06
4.86504e-06
4.08993e-06
3.55447e-06
3.40283e-06
4.96415e-06
1.20347e-10
4.36567e-07
0.000658044
5.5871e-05
5.42931e-05
5.25561e-05
5.03933e-05
4.80848e-05
4.56913e-05
4.31762e-05
4.05526e-05
3.79172e-05
3.52801e-05
3.26423e-05
3.00308e-05
2.74496e-05
2.48927e-05
2.23788e-05
1.99285e-05
1.7563e-05
1.53167e-05
1.32163e-05
1.12825e-05
9.52557e-06
7.94647e-06
6.5365e-06
5.28825e-06
4.19789e-06
3.26856e-06
2.50338e-06
1.89291e-06
1.41581e-06
1.04852e-06
7.70958e-07
5.66623e-07
4.20002e-07
3.19912e-07
2.56284e-07
2.36033e-07
2.40202e-07
3.50836e-07
8.42371e-07
4.32439e-05
4.43782e-05
4.55515e-05
4.66876e-05
4.77135e-05
4.86358e-05
4.93999e-05
4.99343e-05
5.02122e-05
5.01993e-05
4.985e-05
4.91444e-05
4.80648e-05
4.66014e-05
4.47627e-05
4.2579e-05
4.00918e-05
3.73698e-05
3.44927e-05
3.15215e-05
2.8538e-05
2.56651e-05
2.2928e-05
2.02799e-05
1.76298e-05
1.49423e-05
1.23387e-05
1.00352e-05
8.16603e-06
6.70382e-06
5.5504e-06
4.6349e-06
3.89902e-06
3.39858e-06
2.72468e-06
4.25467e-06
1.23534e-06
2.61665e-11
2.98543e-05
4.20132e-05
4.08095e-05
3.95031e-05
3.78993e-05
3.62142e-05
3.44805e-05
3.26671e-05
3.07965e-05
2.89349e-05
2.70819e-05
2.52351e-05
2.34043e-05
2.1589e-05
1.97788e-05
1.7978e-05
1.61987e-05
1.44505e-05
1.2755e-05
1.11337e-05
9.60666e-06
8.18932e-06
6.88982e-06
5.70944e-06
4.64985e-06
3.71672e-06
2.91591e-06
2.2497e-06
1.71172e-06
1.28668e-06
9.56589e-07
7.05176e-07
5.18772e-07
3.84213e-07
2.91791e-07
2.32443e-07
2.1164e-07
2.13098e-07
3.00245e-07
6.85254e-07
3.27933e-05
3.3689e-05
3.46308e-05
3.55536e-05
3.64153e-05
3.72177e-05
3.79202e-05
3.84698e-05
3.88469e-05
3.90234e-05
3.89617e-05
3.86417e-05
3.80473e-05
3.71621e-05
3.59893e-05
3.45359e-05
3.28247e-05
3.08934e-05
2.8807e-05
2.65977e-05
2.43162e-05
2.20612e-05
1.98646e-05
1.7704e-05
1.55233e-05
1.33041e-05
1.11341e-05
9.17671e-06
7.54793e-06
6.24667e-06
5.20612e-06
4.37807e-06
3.70616e-06
3.25009e-06
2.69365e-06
2.74801e-06
3.8907e-06
1.11019e-11
1.42198e-07
3.18363e-05
3.09079e-05
2.99184e-05
2.87184e-05
2.74768e-05
2.62041e-05
2.48803e-05
2.35322e-05
2.2202e-05
2.08864e-05
1.95798e-05
1.8288e-05
1.7004e-05
1.57155e-05
1.44237e-05
1.31297e-05
1.18397e-05
1.05659e-05
9.32316e-06
8.12776e-06
6.99422e-06
5.93434e-06
4.9551e-06
4.06518e-06
3.27365e-06
2.58819e-06
2.01164e-06
1.54048e-06
1.1641e-06
8.69028e-07
6.42377e-07
4.72965e-07
3.49669e-07
2.64154e-07
2.08463e-07
1.86954e-07
1.86179e-07
2.53842e-07
5.56828e-07
2.50332e-05
2.57429e-05
2.64956e-05
2.72439e-05
2.7958e-05
2.8641e-05
2.92621e-05
2.9782e-05
3.01832e-05
3.04466e-05
3.05421e-05
3.04527e-05
3.01651e-05
2.9661e-05
2.89352e-05
2.79871e-05
2.68268e-05
2.54744e-05
2.39758e-05
2.23522e-05
2.06315e-05
1.88827e-05
1.71405e-05
1.53975e-05
1.36209e-05
1.1801e-05
1.00039e-05
8.35242e-06
6.94437e-06
5.79459e-06
4.86105e-06
4.10891e-06
3.50283e-06
3.04832e-06
2.72031e-06
2.1178e-06
4.51347e-06
3.05114e-10
4.51081e-17
2.42884e-05
2.3569e-05
2.2811e-05
2.19066e-05
2.09834e-05
2.0038e-05
1.90616e-05
1.80806e-05
1.71204e-05
1.61766e-05
1.52441e-05
1.4324e-05
1.34086e-05
1.24879e-05
1.15577e-05
1.06172e-05
9.66637e-06
8.71296e-06
7.76544e-06
6.8363e-06
5.93765e-06
5.08068e-06
4.27538e-06
3.53357e-06
2.86708e-06
2.28388e-06
1.78815e-06
1.37818e-06
1.04696e-06
7.84757e-07
5.8157e-07
4.2841e-07
3.16071e-07
2.37471e-07
1.85631e-07
1.6389e-07
1.61341e-07
2.13101e-07
4.49728e-07
1.92226e-05
1.9785e-05
2.03858e-05
2.09922e-05
2.15778e-05
2.21526e-05
2.26876e-05
2.3156e-05
2.35445e-05
2.38384e-05
2.40136e-05
2.40587e-05
2.39577e-05
2.36963e-05
2.32678e-05
2.26669e-05
2.1897e-05
2.09652e-05
1.9902e-05
1.87218e-05
1.74389e-05
1.60956e-05
1.47287e-05
1.33388e-05
1.19054e-05
1.04253e-05
8.94754e-06
7.56476e-06
6.358e-06
5.35064e-06
4.51988e-06
3.83949e-06
3.29349e-06
2.85071e-06
2.61044e-06
2.01704e-06
3.28835e-06
5.5873e-07
1.04883e-10
1.86402e-05
1.80805e-05
1.74958e-05
1.68087e-05
1.61169e-05
1.5407e-05
1.46803e-05
1.39592e-05
1.32591e-05
1.25752e-05
1.19039e-05
1.12435e-05
1.05871e-05
9.92479e-06
9.25284e-06
8.56768e-06
7.86722e-06
7.15505e-06
6.43593e-06
5.71768e-06
5.01039e-06
4.32419e-06
3.66843e-06
3.05476e-06
2.4965e-06
2.00371e-06
1.58032e-06
1.22594e-06
9.36311e-07
7.04682e-07
5.23523e-07
3.85722e-07
2.83812e-07
2.11821e-07
1.63706e-07
1.42e-07
1.38065e-07
1.77426e-07
3.60637e-07
1.48383e-05
1.52834e-05
1.57648e-05
1.62532e-05
1.67333e-05
1.7211e-05
1.76662e-05
1.80753e-05
1.84322e-05
1.87234e-05
1.89311e-05
1.90449e-05
1.90547e-05
1.89458e-05
1.87134e-05
1.83487e-05
1.78509e-05
1.72225e-05
1.64785e-05
1.56313e-05
1.46861e-05
1.36659e-05
1.2606e-05
1.15104e-05
1.03657e-05
9.17156e-06
7.9652e-06
6.81643e-06
5.79119e-06
4.91645e-06
4.18314e-06
3.57335e-06
3.0797e-06
2.67208e-06
2.42121e-06
2.04352e-06
2.25327e-06
2.06999e-06
2.92402e-08
1.43809e-05
1.39434e-05
1.34897e-05
1.2965e-05
1.2441e-05
1.19041e-05
1.13585e-05
1.08239e-05
1.03084e-05
9.8087e-06
9.32097e-06
8.84286e-06
8.36872e-06
7.88967e-06
7.40192e-06
6.90174e-06
6.38555e-06
5.85416e-06
5.3101e-06
4.75835e-06
4.20515e-06
3.65877e-06
3.12808e-06
2.62491e-06
2.16174e-06
1.74811e-06
1.38863e-06
1.08414e-06
8.32391e-07
6.28947e-07
4.6831e-07
3.44966e-07
2.52988e-07
1.87374e-07
1.42961e-07
1.21629e-07
1.1667e-07
1.46372e-07
2.87028e-07
1.15071e-05
1.18602e-05
1.22456e-05
1.26394e-05
1.30308e-05
1.34261e-05
1.38076e-05
1.41596e-05
1.44763e-05
1.47476e-05
1.49603e-05
1.51068e-05
1.51783e-05
1.51643e-05
1.50571e-05
1.48506e-05
1.45404e-05
1.41264e-05
1.36134e-05
1.30135e-05
1.23267e-05
1.1562e-05
1.0749e-05
9.89461e-06
8.98966e-06
8.03471e-06
7.05766e-06
6.11091e-06
5.24739e-06
4.49452e-06
3.8523e-06
3.31089e-06
2.86474e-06
2.50053e-06
2.22879e-06
2.00904e-06
1.78457e-06
2.29574e-06
5.49425e-07
1.1147e-05
1.08033e-05
1.04499e-05
1.00471e-05
9.64601e-06
9.23731e-06
8.82476e-06
8.42445e-06
8.04168e-06
7.67325e-06
7.3158e-06
6.96711e-06
6.62192e-06
6.2736e-06
5.91808e-06
5.55156e-06
5.17067e-06
4.77463e-06
4.3638e-06
3.94111e-06
3.51111e-06
3.07948e-06
2.65327e-06
2.24331e-06
1.86135e-06
1.51624e-06
1.21293e-06
9.52975e-07
7.35542e-07
5.57921e-07
4.16279e-07
3.06451e-07
2.23844e-07
1.64312e-07
1.23522e-07
1.02837e-07
9.71818e-08
1.19587e-07
2.26956e-07
8.96063e-06
9.24167e-06
9.55003e-06
9.86739e-06
1.01859e-05
1.05113e-05
1.08286e-05
1.11272e-05
1.14024e-05
1.16462e-05
1.18491e-05
1.20051e-05
1.21071e-05
1.2147e-05
1.21182e-05
1.20152e-05
1.18325e-05
1.15682e-05
1.12231e-05
1.08068e-05
1.03148e-05
9.74928e-06
9.13318e-06
8.47436e-06
7.7664e-06
7.00944e-06
6.22442e-06
5.45047e-06
4.72954e-06
4.08742e-06
3.52961e-06
3.05281e-06
2.65206e-06
2.32727e-06
2.05697e-06
1.89424e-06
1.61198e-06
1.86344e-06
1.28565e-06
8.6765e-06
8.40557e-06
8.12919e-06
7.81838e-06
7.50905e-06
7.1955e-06
6.88152e-06
6.57967e-06
6.29306e-06
6.01906e-06
5.75456e-06
5.49787e-06
5.24488e-06
4.98995e-06
4.72953e-06
4.46e-06
4.17817e-06
3.88286e-06
3.57338e-06
3.25077e-06
2.91758e-06
2.57839e-06
2.23863e-06
1.90694e-06
1.59364e-06
1.30746e-06
1.05319e-06
8.32662e-07
6.46011e-07
4.91831e-07
3.67616e-07
2.70325e-07
1.96502e-07
1.42748e-07
1.05503e-07
8.57245e-08
7.96703e-08
9.65906e-08
1.78166e-07
7.00349e-06
7.22732e-06
7.47475e-06
7.73003e-06
7.98924e-06
8.25581e-06
8.51854e-06
8.76944e-06
9.00482e-06
9.21888e-06
9.4039e-06
9.55588e-06
9.66944e-06
9.73773e-06
9.75656e-06
9.71938e-06
9.62234e-06
9.4623e-06
9.23713e-06
8.95333e-06
8.6061e-06
8.1941e-06
7.73322e-06
7.23089e-06
6.6832e-06
6.08913e-06
5.46379e-06
4.83649e-06
4.24001e-06
3.6973e-06
3.21705e-06
2.80031e-06
2.44382e-06
2.15245e-06
1.9009e-06
1.74304e-06
1.52059e-06
1.48428e-06
1.46744e-06
6.7791e-06
6.5644e-06
6.34745e-06
6.10637e-06
5.8665e-06
5.62457e-06
5.38407e-06
5.15463e-06
4.93821e-06
4.7325e-06
4.53554e-06
4.34527e-06
4.15825e-06
3.97025e-06
3.77817e-06
3.57926e-06
3.3703e-06
3.14971e-06
2.91651e-06
2.67079e-06
2.41394e-06
2.14856e-06
1.87889e-06
1.61204e-06
1.35695e-06
1.12118e-06
9.09218e-07
7.2322e-07
5.63903e-07
4.30816e-07
3.22471e-07
2.36751e-07
1.71101e-07
1.22806e-07
8.90002e-08
7.03403e-08
6.41717e-08
7.70445e-08
1.38888e-07
5.49197e-06
5.67063e-06
5.86897e-06
6.07463e-06
6.28528e-06
6.50304e-06
6.71984e-06
6.92887e-06
7.12826e-06
7.31284e-06
7.47737e-06
7.61848e-06
7.73234e-06
7.8134e-06
7.8583e-06
7.86193e-06
7.82049e-06
7.73084e-06
7.58983e-06
7.40116e-06
7.16107e-06
6.86622e-06
6.52616e-06
6.14793e-06
5.72893e-06
5.26726e-06
4.77353e-06
4.26958e-06
3.78057e-06
3.32621e-06
2.91637e-06
2.55486e-06
2.24063e-06
1.97901e-06
1.75198e-06
1.58945e-06
1.42254e-06
1.25786e-06
1.31663e-06
5.31439e-06
5.14395e-06
4.97295e-06
4.78498e-06
4.59794e-06
4.41038e-06
4.22484e-06
4.04934e-06
3.88473e-06
3.72916e-06
3.58096e-06
3.43866e-06
3.29941e-06
3.15989e-06
3.01766e-06
2.86992e-06
2.71435e-06
2.54939e-06
2.37362e-06
2.18663e-06
1.98904e-06
1.78235e-06
1.56944e-06
1.35598e-06
1.14935e-06
9.56198e-07
7.80421e-07
6.24412e-07
4.89214e-07
3.74994e-07
2.81006e-07
2.05865e-07
1.47766e-07
1.04594e-07
7.4098e-08
5.67173e-08
5.065e-08
6.05931e-08
1.07554e-07
4.31957e-06
4.46226e-06
4.62134e-06
4.78731e-06
4.95797e-06
5.13573e-06
5.31384e-06
5.48736e-06
5.65451e-06
5.81192e-06
5.95507e-06
6.08206e-06
6.18931e-06
6.27338e-06
6.33122e-06
6.35866e-06
6.35254e-06
6.30966e-06
6.22714e-06
6.10629e-06
5.9443e-06
5.73765e-06
5.49042e-06
5.20943e-06
4.89241e-06
4.5372e-06
4.15101e-06
3.74982e-06
3.35256e-06
2.97577e-06
2.6292e-06
2.3182e-06
2.04344e-06
1.80969e-06
1.60623e-06
1.44528e-06
1.3055e-06
1.1159e-06
1.1148e-06
4.17845e-06
4.04328e-06
3.9079e-06
3.76076e-06
3.61429e-06
3.46808e-06
3.32421e-06
3.1889e-06
3.06274e-06
2.94414e-06
2.83195e-06
2.72477e-06
2.62035e-06
2.51591e-06
2.40965e-06
2.29942e-06
2.18321e-06
2.05951e-06
1.92691e-06
1.78477e-06
1.63311e-06
1.47262e-06
1.30521e-06
1.13517e-06
9.68554e-07
8.10979e-07
6.66117e-07
5.35973e-07
4.21872e-07
3.24379e-07
2.43269e-07
1.77732e-07
1.26575e-07
8.8184e-08
6.0841e-08
4.48512e-08
3.90678e-08
4.68796e-08
8.26926e-08
3.40652e-06
3.52061e-06
3.64826e-06
3.78232e-06
3.92054e-06
4.06543e-06
4.21139e-06
4.35469e-06
4.49422e-06
4.62704e-06
4.75007e-06
4.86171e-06
4.95939e-06
5.04057e-06
5.10258e-06
5.14268e-06
5.15777e-06
5.14525e-06
5.10244e-06
5.0289e-06
4.92342e-06
4.78165e-06
4.60476e-06
4.3988e-06
4.1622e-06
3.89209e-06
3.59305e-06
3.27661e-06
2.95694e-06
2.64731e-06
2.35695e-06
2.09163e-06
1.85323e-06
1.64609e-06
1.46381e-06
1.31113e-06
1.18146e-06
1.00414e-06
9.46163e-07
3.29418e-06
3.18673e-06
3.07925e-06
2.96368e-06
2.84856e-06
2.73396e-06
2.62193e-06
2.51707e-06
2.41968e-06
2.32865e-06
2.24297e-06
2.16148e-06
2.0824e-06
2.00382e-06
1.92406e-06
1.84131e-06
1.75406e-06
1.661e-06
1.56086e-06
1.45269e-06
1.33633e-06
1.21198e-06
1.08081e-06
9.45967e-07
8.12316e-07
6.84394e-07
5.6553e-07
4.575e-07
3.61704e-07
2.78896e-07
2.09251e-07
1.52381e-07
1.07557e-07
7.35965e-08
4.92299e-08
3.46928e-08
2.93252e-08
3.56242e-08
6.31734e-08
2.69281e-06
2.78426e-06
2.8868e-06
2.99493e-06
3.10696e-06
3.22483e-06
3.34425e-06
3.46213e-06
3.57807e-06
3.68937e-06
3.79401e-06
3.89059e-06
3.97746e-06
4.05235e-06
4.11359e-06
4.15901e-06
4.18594e-06
4.19228e-06
4.17563e-06
4.13471e-06
4.06915e-06
3.97502e-06
3.85106e-06
3.70268e-06
3.52836e-06
3.32516e-06
3.09582e-06
2.84855e-06
2.59382e-06
2.34184e-06
2.10076e-06
1.87631e-06
1.67114e-06
1.48884e-06
1.32609e-06
1.18468e-06
1.06061e-06
9.01095e-07
8.12332e-07
2.60342e-06
2.51778e-06
2.43217e-06
2.34118e-06
2.25038e-06
2.1602e-06
2.07258e-06
1.99079e-06
1.9152e-06
1.84481e-06
1.77894e-06
1.71655e-06
1.65627e-06
1.59659e-06
1.53625e-06
1.47388e-06
1.40807e-06
1.33773e-06
1.26188e-06
1.17958e-06
1.09037e-06
9.94112e-07
8.91499e-07
7.8487e-07
6.78015e-07
5.74719e-07
4.77604e-07
3.88386e-07
3.08355e-07
2.38377e-07
1.78883e-07
1.29779e-07
9.06879e-08
6.08088e-08
3.9238e-08
2.61717e-08
2.13075e-08
2.65216e-08
4.7956e-08
2.13322e-06
2.20657e-06
2.28906e-06
2.37625e-06
2.46698e-06
2.56284e-06
2.66026e-06
2.75714e-06
2.85298e-06
2.94584e-06
3.03402e-06
3.11665e-06
3.19245e-06
3.25974e-06
3.31735e-06
3.3634e-06
3.39592e-06
3.41324e-06
3.41321e-06
3.39441e-06
3.35661e-06
3.2965e-06
3.21199e-06
3.10696e-06
2.9804e-06
2.82942e-06
2.65544e-06
2.46412e-06
2.263e-06
2.05992e-06
1.86159e-06
1.67329e-06
1.49807e-06
1.33906e-06
1.19427e-06
1.06507e-06
9.47396e-07
8.03134e-07
7.01825e-07
2.06203e-06
1.99369e-06
1.92535e-06
1.85347e-06
1.78164e-06
1.71039e-06
1.64157e-06
1.57756e-06
1.51854e-06
1.46376e-06
1.4127e-06
1.3646e-06
1.31833e-06
1.27271e-06
1.22671e-06
1.17935e-06
1.12945e-06
1.07619e-06
1.01854e-06
9.55765e-07
8.87348e-07
8.12971e-07
7.32874e-07
6.48814e-07
5.63661e-07
4.80495e-07
4.01481e-07
3.28092e-07
2.61513e-07
2.0266e-07
1.52063e-07
1.09862e-07
7.59374e-08
4.97866e-08
3.08085e-08
1.91887e-08
1.48743e-08
1.92999e-08
3.62142e-08
1.69323e-06
1.75204e-06
1.81849e-06
1.88877e-06
1.96226e-06
2.04017e-06
2.11953e-06
2.19901e-06
2.27792e-06
2.35506e-06
2.4289e-06
2.49896e-06
2.56411e-06
2.6234e-06
2.67571e-06
2.71967e-06
2.75396e-06
2.77687e-06
2.78701e-06
2.7827e-06
2.76391e-06
2.72769e-06
2.67195e-06
2.59914e-06
2.50876e-06
2.39816e-06
2.26765e-06
2.12113e-06
1.96387e-06
1.80167e-06
1.64003e-06
1.48349e-06
1.33483e-06
1.19729e-06
1.06936e-06
9.52356e-07
8.42481e-07
7.11485e-07
6.07438e-07
1.63638e-06
1.58183e-06
1.52723e-06
1.47027e-06
1.41331e-06
1.35692e-06
1.3026e-06
1.25227e-06
1.20594e-06
1.16305e-06
1.12324e-06
1.08587e-06
1.05007e-06
1.01497e-06
9.79743e-07
9.43551e-07
9.05524e-07
8.64942e-07
8.21022e-07
7.73059e-07
7.20509e-07
6.6302e-07
6.00591e-07
5.34437e-07
4.66777e-07
4.0003e-07
3.35966e-07
2.75844e-07
2.20707e-07
1.71435e-07
1.28608e-07
9.25119e-08
6.32171e-08
4.04492e-08
2.38529e-08
1.362e-08
9.86347e-09
1.36947e-08
2.72388e-08
1.3463e-06
1.39356e-06
1.44702e-06
1.50374e-06
1.56321e-06
1.62644e-06
1.69111e-06
1.7561e-06
1.82096e-06
1.88471e-06
1.94627e-06
2.00517e-06
2.06075e-06
2.11217e-06
2.15863e-06
2.19916e-06
2.23264e-06
2.25779e-06
2.27349e-06
2.27825e-06
2.27193e-06
2.25226e-06
2.21707e-06
2.16812e-06
2.10478e-06
2.02481e-06
1.92806e-06
1.81702e-06
1.69527e-06
1.56696e-06
1.43636e-06
1.30731e-06
1.18232e-06
1.06403e-06
9.51969e-07
8.4667e-07
7.45559e-07
6.27021e-07
5.25496e-07
1.30084e-06
1.25732e-06
1.21366e-06
1.16835e-06
1.12312e-06
1.07839e-06
1.03539e-06
9.95638e-07
9.59106e-07
9.25383e-07
8.94158e-07
8.64935e-07
8.37065e-07
8.09833e-07
7.82677e-07
7.54863e-07
7.25742e-07
6.94701e-07
6.61109e-07
6.24368e-07
5.83981e-07
5.39518e-07
4.90876e-07
4.38883e-07
3.85204e-07
3.31799e-07
2.80033e-07
2.30961e-07
1.85483e-07
1.444e-07
1.08315e-07
7.75795e-08
5.24004e-08
3.26787e-08
1.82523e-08
9.32186e-09
6.10442e-09
9.46546e-09
2.0458e-08
1.07211e-06
1.11013e-06
1.15315e-06
1.19893e-06
1.24707e-06
1.29832e-06
1.35098e-06
1.40403e-06
1.45725e-06
1.50979e-06
1.56089e-06
1.61017e-06
1.65715e-06
1.70117e-06
1.74176e-06
1.77804e-06
1.80934e-06
1.83461e-06
1.85286e-06
1.86288e-06
1.8645e-06
1.85593e-06
1.83526e-06
1.80347e-06
1.76011e-06
1.70326e-06
1.63247e-06
1.54918e-06
1.4558e-06
1.35525e-06
1.25068e-06
1.14511e-06
1.04082e-06
9.39963e-07
8.42418e-07
7.48546e-07
6.56583e-07
5.50203e-07
4.54258e-07
1.03576e-06
1.00098e-06
9.66064e-07
9.29931e-07
8.9396e-07
8.58407e-07
8.24284e-07
7.92779e-07
7.63868e-07
7.37204e-07
7.12574e-07
6.8963e-07
6.67813e-07
6.46561e-07
6.25465e-07
6.03956e-07
5.81539e-07
5.57707e-07
5.31934e-07
5.03706e-07
4.72595e-07
4.38177e-07
4.00277e-07
3.59461e-07
3.16982e-07
2.74322e-07
2.32616e-07
1.92687e-07
1.55314e-07
1.21197e-07
9.09204e-08
6.48722e-08
4.33325e-08
2.63409e-08
1.38723e-08
6.13974e-09
3.42057e-09
6.38493e-09
1.5406e-08
8.54981e-07
8.85551e-07
9.20194e-07
9.57124e-07
9.96075e-07
1.03765e-06
1.08043e-06
1.12371e-06
1.1673e-06
1.21048e-06
1.25272e-06
1.29374e-06
1.33317e-06
1.37054e-06
1.4055e-06
1.43749e-06
1.46585e-06
1.48984e-06
1.50865e-06
1.52139e-06
1.52777e-06
1.52642e-06
1.51575e-06
1.49617e-06
1.4673e-06
1.42762e-06
1.37653e-06
1.31474e-06
1.24381e-06
1.16571e-06
1.08268e-06
9.97077e-07
9.10671e-07
8.25304e-07
7.41038e-07
6.58187e-07
5.75383e-07
4.80639e-07
3.92261e-07
8.25877e-07
7.98051e-07
7.70117e-07
7.41285e-07
7.12617e-07
6.84313e-07
6.57183e-07
6.32142e-07
6.09179e-07
5.88016e-07
5.68529e-07
5.50372e-07
5.33179e-07
5.16545e-07
5.0008e-07
4.83371e-07
4.66001e-07
4.47615e-07
4.27761e-07
4.06016e-07
3.82003e-07
3.55352e-07
3.25814e-07
2.93767e-07
2.60188e-07
2.26191e-07
1.92674e-07
1.60287e-07
1.29678e-07
1.01459e-07
7.61596e-08
5.41862e-08
3.58474e-08
2.12819e-08
1.05617e-08
3.91109e-09
1.63294e-09
4.24578e-09
1.17004e-08
6.82678e-07
7.07278e-07
7.35162e-07
7.64961e-07
7.96461e-07
8.30149e-07
8.64896e-07
9.00147e-07
9.35777e-07
9.71188e-07
1.006e-06
1.04001e-06
1.07292e-06
1.10443e-06
1.13425e-06
1.16198e-06
1.18711e-06
1.20911e-06
1.22735e-06
1.24112e-06
1.25005e-06
1.25318e-06
1.24912e-06
1.238e-06
1.2195e-06
1.19242e-06
1.15608e-06
1.11079e-06
1.05743e-06
9.97284e-07
9.31897e-07
8.62987e-07
7.91974e-07
7.20224e-07
6.48002e-07
5.75449e-07
5.01795e-07
4.18214e-07
3.38289e-07
6.59363e-07
6.37105e-07
6.1473e-07
5.91703e-07
5.68837e-07
5.46275e-07
5.24665e-07
5.04725e-07
4.86437e-07
4.69585e-07
4.54081e-07
4.39686e-07
4.26084e-07
4.12964e-07
4.00042e-07
3.86994e-07
3.73499e-07
3.59262e-07
3.43902e-07
3.27114e-07
3.0855e-07
2.87869e-07
2.64839e-07
2.39697e-07
2.13163e-07
1.86119e-07
1.59235e-07
1.33038e-07
1.08052e-07
8.48018e-08
6.37532e-08
4.5295e-08
2.97559e-08
1.73328e-08
8.16191e-09
2.47431e-09
5.74232e-10
2.85772e-09
9.03554e-09
5.4571e-07
5.65505e-07
5.87944e-07
6.11995e-07
6.37461e-07
6.64742e-07
6.92949e-07
7.21639e-07
7.50706e-07
7.79708e-07
8.08326e-07
8.36413e-07
8.63763e-07
8.90147e-07
9.15361e-07
9.39124e-07
9.61061e-07
9.80765e-07
9.97747e-07
1.01138e-06
1.02138e-06
1.02705e-06
1.02725e-06