/*--------------------------------*- C++ -*----------------------------------*\
| =========                 |                                                 |
| \\      /  F ield         | OpenFOAM: The Open Source CFD Toolbox           |
|  \\    /   O peration     | Version:  2306                                  |
|   \\  /    A nd           | Website:  www.openfoam.com                      |
|    \\/     M anipulation  |                                                 |
\*---------------------------------------------------------------------------*/
FoamFile
{
    version     2.0;
    format      ascii;
    arch        "LSB;label=32;scalar=64";
    class       volScalarField;
    location    "825";
    object      div(phi);
}
// * * * * * * * * * * * * * * * * * * * * * * * * * * * * * * * * * * * * * //

dimensions      [0 0 -1 0 0 0 0];

internalField   nonuniform List<scalar> 
1340
(
-3.13041e-05
-7.74973e-05
2.26309e-05
-6.04566e-05
-1.34136e-05
-7.08744e-05
-5.29834e-05
-8.52331e-05
-1.99867e-05
-2.59694e-05
4.1742e-05
-1.1117e-05
-9.00187e-06
-4.69603e-05
-3.45356e-05
-6.30028e-05
-2.03421e-05
-1.76885e-05
4.53652e-05
-1.79518e-06
-1.01266e-05
-3.94848e-05
-2.34515e-05
-4.90399e-05
-2.26627e-05
-1.63801e-05
4.90153e-05
-7.33996e-07
-1.17663e-05
-3.62241e-05
-1.56448e-05
-3.78527e-05
-2.1788e-05
-1.37042e-05
5.15273e-05
-1.72887e-07
-1.1548e-05
-2.90095e-05
-1.01725e-05
-2.90112e-05
-1.83416e-05
-1.18117e-05
4.99255e-05
-1.65792e-06
-1.06093e-05
-2.17097e-05
-6e-06
-2.16155e-05
-1.48107e-05
-9.89834e-06
4.50463e-05
-1.95351e-06
-9.49387e-06
-1.53204e-05
-3.03627e-06
-1.57182e-05
-1.15251e-05
-1.00124e-05
4.03161e-05
-2.86194e-06
-8.02047e-06
-1.07042e-05
-1.05908e-06
-1.18667e-05
-8.75201e-06
-9.4694e-06
3.48449e-05
-3.09231e-06
-6.25894e-06
-6.65356e-06
1.20008e-07
-8.94286e-06
-6.43689e-06
-9.37534e-06
3.02183e-05
-3.26963e-06
-4.50971e-06
-3.62452e-06
1.02118e-06
-6.93767e-06
-4.81321e-06
-9.07983e-06
2.48268e-05
-3.18086e-06
-3.18673e-06
-1.5627e-06
1.62292e-06
-5.29576e-06
-3.86602e-06
-7.32685e-06
2.06057e-05
-3.23763e-06
-2.1958e-06
-3.84548e-07
1.95884e-06
-4.12266e-06
-2.6631e-06
-4.92481e-06
1.5398e-05
-3.04104e-06
-1.68882e-06
-5.81804e-08
1.66847e-06
-3.203e-06
-1.88467e-06
-2.70883e-06
1.14184e-05
-2.90055e-06
-1.2896e-06
-1.90117e-07
1.1527e-06
-2.50876e-06
-1.29495e-06
-8.48436e-07
7.69766e-06
-2.59119e-06
-1.64359e-06
-3.49045e-07
4.01256e-07
-1.87197e-06
-9.59884e-08
7.90773e-08
4.65722e-06
-1.87625e-06
-1.47437e-06
-5.0434e-07
-1.27766e-07
-1.3684e-06
1.49289e-07
3.54302e-07
2.59644e-06
-1.16767e-06
2.90173e-06
-9.89366e-07
-4.88252e-07
-4.18406e-07
-9.4712e-07
-1.66239e-06
5.2282e-08
3.24235e-07
1.36653e-06
-6.48934e-07
1.06589e-06
-6.63046e-07
-4.33623e-07
-4.83257e-07
-6.4868e-07
-1.31871e-06
3.83962e-08
2.52835e-07
6.1269e-07
-2.42409e-07
9.40513e-07
-4.15048e-07
-3.48599e-07
-4.19192e-07
-4.40918e-07
-1.1182e-06
4.74665e-08
1.32615e-07
2.96103e-07
-7.27305e-08
8.34198e-07
-2.4956e-07
-2.50088e-07
-3.10696e-07
-3.014e-07
-9.34132e-07
3.55896e-08
6.63795e-08
1.53271e-07
-8.83383e-09
4.23531e-07
-1.67842e-07
-1.63401e-07
-2.11862e-07
-2.06269e-07
-3.62842e-07
6.53115e-08
2.76019e-08
8.33501e-08
4.84733e-09
3.08782e-07
-9.37843e-08
-9.35354e-08
-1.46093e-07
-1.35922e-07
-2.04215e-07
2.49903e-08
-7.8069e-09
3.35477e-08
3.48703e-09
2.96034e-07
2.31072e-07
-7.57548e-08
-6.79702e-08
-9.63204e-08
-1.01457e-07
-6.15695e-08
-2.32688e-07
-1.64218e-08
-3.46033e-08
-4.28234e-09
1.32295e-09
3.66215e-08
1.37156e-07
-7.31069e-08
-5.37126e-08
-6.93833e-08
-7.39726e-08
-6.44928e-08
-1.9015e-07
-3.54076e-08
-5.11112e-08
-1.78499e-08
-1.01833e-08
-2.10935e-08
7.84536e-08
-6.53767e-08
-3.79398e-08
-5.21883e-08
-5.35554e-08
7.68924e-09
-1.29857e-07
-2.87623e-08
-5.13092e-08
-2.99751e-08
-1.17166e-08
6.72965e-09
5.34447e-08
-4.86737e-08
-3.19235e-08
-3.87104e-08
-4.53994e-08
1.23743e-08
-6.86596e-08
-2.07182e-08
-4.35887e-08
-3.924e-08
-1.4082e-08
-2.3987e-08
3.51538e-08
4.96418e-09
-1.58886e-08
-2.28766e-08
-4.35797e-08
3.36813e-08
5.94169e-08
4.69479e-08
8.57781e-10
-9.30528e-09
-4.76492e-08
-2.49295e-08
2.64906e-08
4.73394e-08
1.13311e-08
3.23294e-08
-1.1252e-08
-1.53575e-08
-5.4909e-08
-4.28341e-08
-2.64086e-09
4.07674e-08
-5.43923e-09
-2.32006e-09
-4.08185e-08
-2.63646e-08
4.85796e-09
1.30468e-08
-1.87308e-08
1.49278e-08
-3.46639e-09
9.17752e-09
-4.03629e-08
-4.04694e-08
-2.10517e-08
1.71913e-08
3.77384e-09
3.13292e-08
-1.69515e-08
5.09584e-09
-4.46958e-09
1.0401e-09
-1.21124e-08
2.80081e-08
-1.12131e-08
2.59173e-08
-2.86073e-08
-1.87272e-08
-2.23299e-08
2.20372e-09
-2.40379e-08
1.43017e-08
-2.56203e-08
-9.06649e-09
-2.36644e-08
-1.75889e-08
-1.53242e-08
-2.81447e-08
2.18278e-09
-2.78664e-08
-7.56557e-09
-2.01378e-08
-2.42263e-08
-1.55489e-08
-1.84003e-08
-7.62151e-09
-2.17289e-08
-1.64392e-09
-1.9552e-08
-2.38236e-09
-1.11794e-08
-1.11933e-08
-1.21861e-08
-1.37365e-08
-9.4376e-09
-1.22538e-08
-1.03825e-08
-1.69182e-08
-2.41454e-08
-5.95997e-09
-9.02648e-09
-1.07231e-08
-9.64397e-09
-1.06836e-08
-1.11828e-08
-1.46307e-08
1.59875e-08
-2.15902e-09
-3.46666e-09
-6.58491e-09
-5.28408e-09
-1.73541e-08
-8.40494e-09
-1.17332e-08
-6.7822e-09
1.53605e-09
-4.50236e-09
-1.69442e-09
-2.52938e-08
-6.86814e-09
-1.60431e-08
-1.33149e-08
1.20921e-08
-4.44418e-09
-3.37981e-10
-2.74939e-08
1.15906e-09
-2.92932e-08
-4.3181e-09
-8.71645e-09
6.49347e-09
-3.46474e-09
-1.42202e-09
-1.37243e-08
2.30951e-09
-1.93481e-08
2.77744e-09
-8.5881e-09
1.71266e-09
-1.58613e-09
-1.93264e-09
-5.96208e-09
-1.06903e-09
-8.73689e-09
1.67319e-09
-5.70576e-09
-1.32023e-09
-1.06356e-08
-4.80878e-09
-4.54136e-09
-4.15692e-09
-5.53167e-09
-4.52457e-09
-5.58801e-09
-5.07391e-09
-7.73295e-09
-6.80098e-09
-1.31679e-09
-1.80669e-09
-4.44407e-09
-5.66864e-09
-5.65369e-09
-6.65281e-09
-6.77558e-09
-7.21975e-09
-5.80516e-09
-7.09545e-10
-1.75119e-09
-1.42612e-09
-3.2281e-09
-4.76606e-09
-4.91628e-09
-4.24796e-09
-5.16313e-09
-3.55897e-09
4.09445e-09
1.47854e-09
3.57899e-10
-1.01459e-09
-6.02862e-10
-1.75643e-09
-1.77242e-09
-1.53144e-09
-4.73968e-10
7.37423e-10
4.656e-09
3.79017e-09
2.7044e-09
1.78802e-09
1.49823e-09
2.37006e-09
6.48645e-10
1.8767e-09
2.27418e-08
7.2439e-09
6.06195e-09
4.94608e-09
5.2975e-09
4.61419e-09
4.12846e-09
3.42266e-09
4.18825e-09
1.28927e-08
6.95269e-09
6.30774e-09
6.20831e-09
6.18957e-09
5.2699e-09
6.13249e-09
3.6784e-09
3.96599e-09
1.15981e-08
5.88533e-09
5.7599e-09
5.91911e-09
6.00723e-09
6.66286e-09
6.94413e-09
6.18677e-09
5.38101e-09
5.92368e-09
8.74257e-09
5.8815e-09
5.16325e-09
6.06695e-09
6.25786e-09
6.35621e-09
6.1163e-09
5.16147e-09
4.17997e-09
4.57172e-09
8.88713e-09
4.1918e-09
4.19915e-09
3.86982e-09
3.84475e-09
3.38341e-09
3.1165e-09
2.36865e-09
2.29741e-09
1.84601e-09
-0.000148238
7.76491e-05
-3.53881e-05
4.44737e-05
-3.34718e-05
1.8657e-05
-2.46795e-05
2.26934e-06
-2.02711e-05
-8.22493e-06
-1.4762e-05
-1.16623e-05
-8.82202e-06
-1.08759e-05
-4.86477e-06
-8.98167e-06
-2.34791e-06
-7.00315e-06
-1.66998e-06
-4.90447e-06
-1.02e-06
-3.03205e-06
-9.57606e-07
-1.63736e-06
-1.19684e-06
-8.071e-07
-1.3416e-06
-5.11649e-07
-1.37929e-06
-5.62759e-07
-1.35072e-06
-5.80308e-07
-1.06889e-06
-5.81493e-07
-6.71761e-07
-5.02137e-07
-4.18196e-07
-3.93195e-07
-2.27519e-07
-2.88606e-07
-1.29444e-07
-1.96813e-07
-8.15499e-08
-1.34499e-07
-5.87979e-08
-7.86873e-08
-5.31991e-08
-5.08489e-08
-3.41239e-08
-3.85713e-08
-2.16964e-08
-3.12695e-08
1.30584e-08
-2.954e-08
-1.29714e-09
-4.42433e-08
-3.8039e-08
-4.01992e-08
-4.39127e-08
1.02776e-08
-2.89228e-08
-1.67619e-08
-3.73792e-08
-1.58952e-08
-1.6105e-08
-1.02218e-08
7.11838e-10
-6.79839e-09
-1.5772e-08
-2.14503e-09
-1.43786e-08
-1.20349e-08
-1.03045e-08
-1.82399e-09
-1.93068e-09
3.9458e-09
7.27258e-09
1.03793e-08
8.76003e-09
5.9755e-09
-6.47823e-05
4.77209e-05
-1.82267e-05
3.65426e-05
-2.05542e-05
2.50915e-05
-1.70523e-05
1.50002e-05
-1.5733e-05
7.47291e-06
-1.25674e-05
2.78096e-06
-9.24137e-06
2.54482e-07
-5.25792e-06
-7.11877e-07
-2.82183e-06
-9.32872e-07
-1.08644e-06
-8.90659e-07
-3.4e-07
-7.44216e-07
-1.88897e-07
-5.4413e-07
-1.06617e-07
-3.59139e-07
-2.78434e-07
-2.0663e-07
-4.12943e-07
-6.97721e-08
-3.48509e-07
-1.01416e-07
-2.90033e-07
-1.59698e-07
-2.65481e-07
-2.28141e-07
-1.89914e-07
-2.53662e-07
-1.55481e-07
-2.26201e-07
-1.17934e-07
-1.73319e-07
-8.95279e-08
-1.10907e-07
-7.02497e-08
-7.68832e-08
-4.86722e-08
-4.63744e-08
-4.20605e-08
-2.48927e-08
-2.8092e-08
-2.734e-09
-1.59194e-08
2.09036e-08
-1.84181e-08
7.08278e-09
-2.77574e-08
-1.70963e-08
-3.21642e-09
-4.73664e-08
-1.1892e-08
-2.51782e-08
-1.10567e-09
-2.58878e-08
-1.94781e-08
-1.37316e-08
-1.6751e-08
-5.96485e-09
3.50563e-09
-1.94865e-08
-7.81178e-09
-6.74426e-09
-1.54433e-10
-9.77927e-10
1.75454e-09
8.19049e-09
3.54605e-09
1.17495e-08
6.57817e-09
-1.59747e-05
3.02333e-05
-2.12257e-06
2.89575e-05
-4.08923e-06
2.56424e-05
-4.39825e-06
2.08968e-05
-5.29686e-06
1.70648e-05
-5.18555e-06
1.37392e-05
-5.91791e-06
9.22148e-06
-5.10651e-06
5.32583e-06
-4.25798e-06
2.59976e-06
-3.10783e-06
1.20192e-06
-2.20484e-06
7.22037e-07
-1.19615e-06
6.90402e-07
-7.4393e-07
7.2954e-07
-3.97318e-07
6.43152e-07
-2.11437e-07
3.55257e-07
-2.54645e-07
1.14288e-07
-2.48757e-07
-7.17529e-08
-1.78964e-07
-1.60803e-07
-1.61772e-07
-1.82893e-07
-1.17301e-07
-1.7048e-07
-9.04205e-08
-1.38592e-07
-6.95217e-08
-1.10428e-07
-5.61015e-08
-6.85616e-08
-5.16031e-08
-4.28723e-08
-3.59778e-08
-2.69487e-08
-2.94138e-08
-1.77165e-08
1.7851e-09
-1.1491e-08
2.48205e-08
-7.98916e-09
1.83143e-08
-1.23424e-08
-2.8176e-08
7.79327e-09
-2.66377e-08
-1.2467e-08
-3.58514e-08
-1.27847e-08
-1.30356e-08
-7.30507e-09
6.22213e-09
-3.50191e-09
-1.66155e-08
-5.60068e-09
-1.28878e-08
-7.23168e-09
-1.4477e-08
1.25436e-08
-1.79459e-09
2.40669e-09
8.83441e-09
4.21151e-09
1.48398e-05
3.83127e-05
5.89443e-06
2.70812e-05
-1.2265e-06
2.05028e-05
-4.52056e-06
1.53107e-05
-5.29319e-06
1.17809e-05
-6.09801e-06
9.557e-06
-6.01407e-06
7.47199e-06
-5.89365e-06
5.19447e-06
-4.69744e-06
3.42945e-06
-3.92899e-06
2.08233e-06
-2.75789e-06
1.11639e-06
-2.15883e-06
4.28668e-07
-1.61928e-06
3.44108e-08
-1.19037e-06
-1.63879e-07
-9.77981e-07
-1.48544e-07
-6.1583e-07
-1.20611e-07
-3.49776e-07
-1.05116e-07
-2.22098e-07
-1.27057e-07
-1.17652e-07
-1.50763e-07
-9.05155e-08
-1.50366e-07
-7.17796e-08
-1.29959e-07
-6.14168e-08
-8.96052e-08
-5.04694e-08
-6.77422e-08
-3.62459e-08
-4.32112e-08
-3.51139e-08
-2.73183e-08
-2.74016e-08
-1.83669e-08
-2.17891e-08
1.58363e-09
-5.40251e-09
2.20239e-08
-4.67723e-09
1.52798e-08
1.34578e-08
-3.63634e-08
-1.21678e-08
-2.39601e-08
2.556e-09
-2.06849e-08
-1.06641e-08
-1.00571e-08
-1.67505e-08
-3.95626e-09
-1.29111e-09
-1.11803e-08
-5.87955e-09
-7.06513e-09
-1.90129e-09
1.66364e-10
6.29554e-09
9.75739e-09
-2.5848e-09
-2.32435e-05
1.28547e-05
-4.51637e-06
1.17979e-05
-4.47857e-06
1.12057e-05
-4.37479e-06
1.00099e-05
-3.93657e-06
8.51906e-06
-3.88761e-06
7.49987e-06
-3.79482e-06
6.55495e-06
-3.97461e-06
5.05681e-06
-3.5356e-06
3.58151e-06
-3.16281e-06
2.33196e-06
-2.54017e-06
1.4759e-06
-2.14227e-06
9.68065e-07
-1.47076e-06
7.19902e-07
-1.11227e-06
5.41024e-07
-6.48748e-07
3.17256e-07
-4.60004e-07
1.05822e-07
-3.61272e-07
-6.209e-08
-2.48924e-07
-1.37389e-07
-1.97735e-07
-1.46905e-07
-1.23625e-07
-1.28395e-07
-7.74661e-08
-1.02226e-07
-4.79023e-08
-8.85071e-08
-3.66967e-08
-5.9611e-08
-3.58633e-08
-4.09671e-08
-2.66549e-08
-2.65046e-08
-2.72847e-08
-2.1262e-08
-2.0476e-08
-1.55217e-08
-1.53244e-09
-6.90008e-09
2.65382e-08
2.29173e-09
-1.92086e-08
8.61786e-09
-1.6749e-08
-4.20898e-12
-3.13812e-08
-4.3522e-09
-1.24833e-08
-1.87928e-08
4.44449e-09
-8.62525e-09
2.14944e-09
-6.12265e-09
-7.72629e-09
-1.03287e-08
-9.46123e-09
1.81175e-08
-6.3349e-09
-3.75435e-09
-2.00718e-05
9.17476e-06
-5.10086e-06
6.93612e-06
-4.94756e-06
6.03148e-06
-4.6045e-06
5.32097e-06
-4.18895e-06
4.52902e-06
-3.63136e-06
3.95012e-06
-3.46615e-06
3.58038e-06
-3.16463e-06
3.17193e-06
-2.94184e-06
2.54573e-06
-2.42011e-06
1.94737e-06
-2.17924e-06
1.34381e-06
-1.71696e-06
7.79119e-07
-1.5717e-06
2.56023e-07
-1.35149e-06
-7.90964e-08
-1.18808e-06
-1.94165e-07
-8.99107e-07
-1.89957e-07
-5.80311e-07
-1.25669e-07
-3.59397e-07
-9.29163e-08
-1.79398e-07
-9.13019e-08
-1.05569e-07
-9.60416e-08
-6.55814e-08
-9.33406e-08
-4.93745e-08
-6.86903e-08
-3.59056e-08
-5.65466e-08
-2.34934e-08
-3.90109e-08
-2.44184e-08
-2.7554e-08
-2.0856e-08
-1.89505e-08
-2.51055e-08
-1.74369e-08
-1.84057e-08
1.8934e-09
-1.1177e-08
1.09389e-08
2.17914e-08
-1.09769e-08
5.06454e-09
-1.98491e-08
1.0716e-08
-1.5721e-08
-6.67903e-09
5.4383e-09
-2.34811e-08
3.77163e-09
-8.7352e-09
2.98688e-09
-2.18928e-09
2.83354e-10
-2.9791e-09
-9.71162e-09
-1.48466e-05
6.48289e-06
-3.66805e-06
5.16217e-06
-3.31731e-06
4.68685e-06
-3.04276e-06
4.35579e-06
-2.80096e-06
3.93353e-06
-2.47361e-06
3.43816e-06
-2.32263e-06
3.10384e-06
-2.21862e-06
2.79456e-06
-2.19808e-06
2.28502e-06
-1.97248e-06
1.72954e-06
-1.7903e-06
1.20347e-06
-1.51908e-06
7.95572e-07
-1.38323e-06
5.41547e-07
-1.0573e-06
3.93397e-07
-7.93359e-07
2.36055e-07
-5.88476e-07
1.22034e-07
-4.35058e-07
1.28194e-08
-2.95041e-07
-4.81579e-08
-2.24248e-07
-6.64705e-08
-1.38134e-07
-6.34458e-08
-8.09427e-08
-5.43851e-08
-4.10345e-08
-5.83517e-08
-2.62685e-08
-4.59346e-08
-2.46775e-08
-3.64346e-08
-1.7792e-08
-2.46955e-08
-2.04578e-08
-2.16445e-08
-2.03013e-08
-2.16865e-08
-1.65674e-08
-1.85755e-08
1.70764e-08
1.45541e-08
8.37742e-09
2.96374e-08
6.97288e-09
2.70929e-08
-1.80139e-08
3.03904e-09
4.1974e-09
-2.142e-08
8.52398e-09
-1.35883e-08
1.01908e-08
-1.08903e-08
-7.29014e-09
-1.77997e-08
-1.1454e-05
6.90732e-06
-2.30598e-06
4.3309e-06
-2.90318e-06
3.34289e-06
-2.94037e-06
2.84914e-06
-2.80333e-06
2.49133e-06
-2.57699e-06
2.10878e-06
-2.2998e-06
1.80489e-06
-2.19125e-06
1.60563e-06
-2.0252e-06
1.44227e-06
-1.8577e-06
1.21042e-06
-1.53306e-06
9.82923e-07
-1.36362e-06
7.20568e-07
-1.07955e-06
4.20783e-07
-1.00222e-06
1.40146e-07
-9.49267e-07
1.96569e-08
-7.57669e-07
-1.45521e-08
-5.50277e-07
2.14484e-08
-3.5764e-07
4.89694e-08
-1.75502e-07
3.82108e-08
-9.37497e-08
4.28998e-09
-5.30795e-08
-2.85788e-08
-4.12476e-08
-3.37183e-08
-2.9198e-08
-3.86253e-08
-1.73691e-08
-3.22363e-08
-1.75104e-08
-2.77637e-08
-1.6157e-08
-2.09286e-08
-2.29236e-08
-1.47195e-08
-2.16238e-08
-1.0459e-09
2.10231e-09
1.65568e-08
4.28774e-08
1.86605e-08
4.33548e-08
-1.08394e-08
1.59891e-08
-5.48511e-09
-9.1609e-09
2.09605e-08
-3.6254e-08
2.11683e-09
-1.61863e-08
-1.24118e-05
4.78288e-06
-2.82371e-06
3.54032e-06
-2.70759e-06
2.93618e-06
-2.44575e-06
2.59778e-06
-2.18591e-06
2.35799e-06
-1.95869e-06
2.09179e-06
-1.71648e-06
1.79596e-06
-1.55758e-06
1.58957e-06
-1.4551e-06
1.43642e-06
-1.36871e-06
1.23433e-06
-1.19608e-06
1.01237e-06
-1.04959e-06
7.87025e-07
-8.81521e-07
6.17001e-07
-8.28742e-07
4.94915e-07
-5.74195e-07
3.70601e-07
-5.11064e-07
2.62841e-07
-3.93445e-07
1.73082e-07
-2.67584e-07
1.01033e-07
-2.07373e-07
5.32258e-08
-1.35048e-07
2.4726e-08
-8.48355e-08
6.73786e-09
-4.38918e-08
-1.85743e-08
-2.61217e-08
-2.58689e-08
-2.17977e-08
-2.90832e-08
-1.47393e-08
-2.43796e-08
-1.63666e-08
-2.34111e-08
-1.40396e-08
-2.19059e-08
-1.87932e-08
-1.95645e-09
-5.64332e-09
3.26171e-08
3.7286e-09
4.73694e-08
-1.49939e-08
3.06519e-08
-3.58186e-08
3.52575e-09
1.45762e-08
-3.52826e-08
-7.6513e-06
3.1563e-06
-2.30915e-06
2.49795e-06
-2.11192e-06
2.06866e-06
-1.92788e-06
1.74004e-06
-1.78753e-06
1.5394e-06
-1.64624e-06
1.40713e-06
-1.46145e-06
1.2789e-06
-1.26026e-06
1.18411e-06
-1.13584e-06
1.13974e-06
-1.00961e-06
1.09611e-06
-9.19291e-07
9.89755e-07
-7.54393e-07
8.63628e-07
-6.7742e-07
6.74685e-07
-5.38129e-07
4.62347e-07
-6.00305e-07
3.0519e-07
-5.17769e-07
2.28225e-07
-4.02065e-07
2.00151e-07
-2.97781e-07
1.86165e-07
-1.5911e-07
1.53433e-07
-8.81576e-08
9.53602e-08
-5.30221e-08
3.36175e-08
-4.55697e-08
2.18437e-09
-3.41998e-08
-1.80439e-08
-1.97446e-08
-2.13233e-08
-1.76672e-08
-2.3946e-08
-1.64985e-08
-1.96198e-08
-2.27519e-08
-2.43759e-08
-5.4127e-09
-2.93873e-08
2.00982e-08
-3.17413e-08
3.18624e-08
-4.12584e-08
4.46066e-08
-4.76645e-08
-7.65604e-06
1.69633e-06
-2.44549e-06
1.59936e-06
-2.08291e-06
1.5123e-06
-1.78427e-06
1.34633e-06
-1.54575e-06
1.24964e-06
-1.3655e-06
1.19642e-06
-1.18922e-06
1.14558e-06
-1.0215e-06
1.07044e-06
-8.82318e-07
1.02696e-06
-7.84994e-07
9.95234e-07
-7.09234e-07
9.15739e-07
-6.12075e-07
8.0032e-07
-5.37652e-07
6.77035e-07
-4.64069e-07
5.63928e-07
-4.23794e-07
4.39589e-07
-3.53188e-07
3.33215e-07
-3.44178e-07
2.40749e-07
-2.61265e-07
1.72125e-07
-2.07515e-07
1.12178e-07
-1.53496e-07
6.42863e-08
-1.14204e-07
3.54371e-08
-6.99117e-08
6.45365e-09
-4.08934e-08
-5.62069e-09
-2.61911e-08
-1.88578e-08
-1.73091e-08
-2.45097e-08
-1.24634e-08
-2.21884e-08
-1.95084e-08
-1.44216e-08
-3.13074e-08
9.55684e-09
-4.96245e-08
-2.57265e-06
3.32876e-06
-9.37338e-08
2.28898e-06
-7.97261e-07
1.73884e-06
-9.77659e-07
1.36519e-06
-9.86524e-07
1.11887e-06
-9.40742e-07
9.72198e-07
-8.84062e-07
8.71813e-07
-8.02208e-07
7.77879e-07
-7.08194e-07
7.02123e-07
-6.41254e-07
6.55702e-07
-5.82037e-07
6.16057e-07
-5.28489e-07
5.49428e-07
-4.57231e-07
4.77465e-07
-4.00893e-07
3.96833e-07
-3.42984e-07
3.35002e-07
-3.32217e-07
2.92123e-07
-2.54115e-07
2.65733e-07
-2.04709e-07
2.28884e-07
-1.4524e-07
1.65415e-07
-9.78996e-08
1.18901e-07
-7.6333e-08
5.42008e-08
-6.25989e-08
2.12238e-08
-4.09087e-08
1.10449e-09
-2.43583e-08
-1.10875e-08
-2.11181e-08
-2.04746e-09
-5.02496e-06
1.76169e-06
-1.58392e-06
1.32353e-06
-1.78311e-06
1.16137e-06
-1.69254e-06
1.01644e-06
-1.50553e-06
8.56453e-07
-1.32408e-06
7.46774e-07
-1.18608e-06
6.65852e-07
-1.06983e-06
5.99477e-07
-9.46404e-07
5.34103e-07
-8.44595e-07
4.91311e-07
-7.57447e-07
4.6186e-07
-6.85207e-07
4.29272e-07
-5.81615e-07
3.86157e-07
-5.0016e-07
3.43931e-07
-4.15502e-07
2.99873e-07
-3.57627e-07
2.58906e-07
-2.85161e-07
2.02831e-07
-2.37587e-07
1.61781e-07
-2.81789e-07
3.42666e-07
)
;

boundaryField
{
    inlet
    {
        type            extrapolatedCalculated;
        value           nonuniform List<scalar> 
11
(
8.88713e-09
4.1918e-09
4.19915e-09
3.86982e-09
3.84475e-09
3.38341e-09
3.1165e-09
2.36865e-09
2.29741e-09
1.84601e-09
5.9755e-09
)
;
    }
    outlet
    {
        type            extrapolatedCalculated;
        value           nonuniform List<scalar> 0();
    }
    walls
    {
        type            extrapolatedCalculated;
        value           nonuniform List<scalar> 4(-3.13041e-05 -7.74973e-05 2.26309e-05 -6.04566e-05);
    }
    frontAndBack
    {
        type            empty;
    }
    procBoundary6to2
    {
        type            processor;
        value           nonuniform List<scalar> 
13
(
0.000133182
8.63654e-05
4.79502e-05
7.84776e-05
8.46067e-06
2.28897e-05
1.4865e-05
1.25054e-05
4.4316e-06
7.05441e-06
3.24047e-06
6.49897e-06
1.73274e-06
)
;
    }
    procBoundary6to3
    {
        type            processor;
        value           uniform 5.80268e-06;
    }
    procBoundary6to5
    {
        type            processor;
        value           nonuniform List<scalar> 
86
(
7.89975e-06
-1.84268e-06
7.47392e-06
-2.47266e-06
8.24158e-06
-2.58792e-06
9.71523e-06
-2.53721e-06
9.50609e-06
-2.37751e-06
8.82922e-06
-2.26753e-06
8.01305e-06
-1.90129e-06
7.24023e-06
-1.62887e-06
7.5991e-06
-1.30523e-06
7.2641e-06
-9.8177e-07
6.89122e-06
-7.54156e-07
5.96147e-06
-8.692e-07
4.31567e-06
-1.4912e-06
2.92194e-06
-2.17215e-06
3.20436e-07
6.61563e-08
-1.11775e-06
2.2013e-06
-2.6698e-06
-2.6698e-06
-1.36087e-06
1.01735e-06
-1.05008e-06
8.4611e-07
-8.95683e-07
7.32787e-07
-8.38496e-07
3.66942e-07
-4.2271e-07
1.11961e-07
1.23849e-07
-1.14185e-07
-1.14185e-07
-2.57378e-07
1.9945e-07
-1.73743e-07
1.21844e-07
-1.16512e-07
8.80385e-08
-2.43874e-08
4.90012e-08
-9.61887e-08
-9.61887e-08
-1.09957e-07
-2.40818e-08
3.10363e-08
-5.97955e-08
1.81402e-08
-2.10687e-08
-1.04349e-08
-1.04349e-08
-1.5091e-08
-6.41758e-09
-2.43576e-08
1.36488e-08
-1.63715e-08
1.49673e-08
1.78239e-09
1.78239e-09
2.30835e-09
-4.59762e-09
4.47165e-10
-2.72564e-09
2.92283e-09
-3.84458e-09
1.2175e-08
5.796e-09
1.03629e-08
1.03629e-08
7.08911e-09
5.70403e-09
5.04602e-09
)
;
    }
    procBoundary6to7
    {
        type            processor;
        value           nonuniform List<scalar> 
91
(
1.12485e-08
1.12485e-08
1.77512e-08
1.77512e-08
1.99592e-08
1.99592e-08
1.358e-08
9.63298e-09
1.358e-08
1.48175e-08
-1.11561e-08
9.63298e-09
2.14288e-08
2.71199e-09
-8.68353e-09
-1.11561e-08
2.73872e-09
8.24485e-09
-2.0796e-08
2.71199e-09
8.61583e-09
3.58097e-08
-1.14529e-08
-1.36303e-08
8.24485e-09
1.96768e-08
2.28356e-08
-5.24237e-08
5.38722e-08
-4.38371e-08
3.58097e-08
3.24516e-08
-2.49999e-08
-1.96744e-08
-2.39801e-08
-3.30797e-08
-1.47879e-08
-3.38657e-08
2.28356e-08
-1.29015e-08
-2.93786e-07
9.49173e-08
-1.20993e-07
5.18859e-08
-9.27378e-08
3.36306e-08
-5.45975e-08
1.93474e-08
-4.64633e-08
3.19124e-10
-3.99112e-08
-2.49999e-08
-8.01537e-09
-3.68939e-07
1.70072e-06
4.8037e-07
1.15886e-06
1.8921e-07
9.10746e-07
3.31346e-08
7.17531e-07
-8.5549e-08
5.70179e-07
-1.1803e-07
4.88966e-07
-1.46892e-07
4.45007e-07
-1.46808e-07
4.25879e-07
-1.6224e-07
4.04153e-07
-1.58378e-07
3.93342e-07
-1.7023e-07
3.88566e-07
-1.81437e-07
3.74572e-07
-1.8485e-07
3.43524e-07
-1.96617e-07
2.99914e-07
-1.83757e-07
2.33593e-07
-2.05928e-07
1.63367e-07
-2.16482e-07
1.1667e-07
-2.00126e-07
7.70085e-08
-2.93786e-07
-1.58308e-07
)
;
    }
}


// ************************************************************************* //
