/*--------------------------------*- C++ -*----------------------------------*\
| =========                 |                                                 |
| \\      /  F ield         | OpenFOAM: The Open Source CFD Toolbox           |
|  \\    /   O peration     | Version:  2306                                  |
|   \\  /    A nd           | Website:  www.openfoam.com                      |
|    \\/     M anipulation  |                                                 |
\*---------------------------------------------------------------------------*/
FoamFile
{
    version     2.0;
    format      ascii;
    arch        "LSB;label=32;scalar=64";
    class       volSymmTensorField;
    location    "825";
    object      turbulenceProperties:devReff;
}
// * * * * * * * * * * * * * * * * * * * * * * * * * * * * * * * * * * * * * //

dimensions      [0 2 -2 0 0 0 0];

internalField   nonuniform List<symmTensor> 
1340
(
(-2.43556 -7.22763 1.22005e-15 2.42456 1.14388e-15 0.0109986)
(-2.07508 -5.67592 -1.22459e-16 2.06186 -5.25279e-16 0.0132173)
(-1.60211 -4.21393 -1.54849e-15 1.60278 -2.10466e-17 -0.000669483)
(-0.759583 -1.48479 -3.6423e-16 0.762511 -3.32878e-15 -0.00292785)
(-0.781559 -2.74349 3.42273e-15 0.802021 -4.99297e-15 -0.0204625)
(-0.730772 -2.43274 -1.50382e-15 0.743874 1.52312e-15 -0.0131023)
(-0.561993 -2.14569 3.25259e-15 0.594721 4.03455e-16 -0.0327282)
(-0.850989 -2.43448 5.7988e-15 0.751821 8.24911e-15 0.0991678)
(-0.87853 -3.52378 -1.43659e-14 0.8815 5.20448e-16 -0.00297079)
(-0.798608 -3.05367 4.95847e-15 0.797586 -1.62554e-15 0.00102227)
(-0.531909 -2.55827 5.14275e-15 0.547016 -1.52325e-15 -0.0151076)
(-0.844177 -2.82235 -1.01092e-14 0.826943 3.05696e-15 0.0172334)
(-0.79287 -3.65042 4.79331e-15 0.790333 4.89443e-15 0.00253731)
(-0.801233 -3.42063 -1.01675e-14 0.796515 -1.30111e-16 0.00471786)
(-0.574021 -3.0197 -1.30299e-14 0.58401 1.88258e-15 -0.00998815)
(-0.812954 -3.21037 9.2261e-15 0.785185 -3.48753e-15 0.0277692)
(-0.400678 -2.39898 -9.9598e-16 0.40138 4.27291e-16 -0.000701914)
(-0.585945 -2.96374 -1.75014e-15 0.581969 3.9849e-15 0.00397562)
(-0.525541 -3.08578 6.73617e-16 0.536029 2.43448e-16 -0.0104884)
(-0.772387 -3.40056 -1.72701e-14 0.735128 4.32351e-15 0.0372582)
(-0.0171905 -0.555538 2.80762e-15 0.0187872 -1.64838e-15 -0.00159672)
(-0.202891 -1.53945 1.0219e-14 0.202096 -1.62751e-15 0.000794988)
(-0.331963 -2.48027 5.21499e-16 0.34222 -9.15827e-17 -0.0102573)
(-0.674105 -3.259 3.62081e-15 0.637906 -3.4205e-15 0.0361993)
(0.0290093 0.0243169 -1.2527e-15 -0.0289683 3.17762e-16 -4.10054e-05)
(0.0319435 -0.253126 -1.31516e-15 -0.0326893 -8.0435e-16 0.000745814)
(-0.0703774 -1.27412 1.17104e-15 0.0779968 -2.66966e-16 -0.00761939)
(-0.474425 -2.62759 3.10513e-15 0.444012 -9.005e-16 0.0304124)
(0.00133237 0.00218785 5.26531e-17 -0.0013301 1.28062e-18 -2.26635e-06)
(0.0230632 0.0211801 -4.1461e-16 -0.0233717 1.40404e-16 0.000308534)
(0.0619991 -0.283512 -1.86971e-15 -0.0588618 3.43787e-16 -0.00313724)
(-0.216748 -1.58502 9.84115e-15 0.1934 -5.70403e-16 0.0233481)
(0.000227922 0.00015942 -4.42229e-18 -0.000226999 -1.87912e-18 -9.23072e-07)
(0.00600238 0.0077327 9.10189e-17 -0.00608241 -7.76644e-18 8.00267e-05)
(0.0400357 0.00325991 1.89269e-15 -0.039089 -2.29698e-16 -0.00094672)
(-0.0284724 -0.635203 -4.5772e-15 0.0125067 1.49428e-15 0.0159657)
(9.1764e-06 -3.19689e-06 1.04665e-19 -9.12597e-06 5.18428e-20 -5.04233e-08)
(9.2061e-06 3.0298e-06 -1.7719e-19 -9.36966e-06 2.61394e-20 1.63563e-07)
(0.000631289 0.000452984 -9.68982e-18 -0.000614455 4.18794e-19 -1.68332e-05)
(0.0321509 -0.161284 -3.49806e-15 -0.0410315 1.49581e-16 0.00888056)
(8.9212e-06 -3.75008e-06 7.08034e-20 -8.86781e-06 -1.03585e-20 -5.33924e-08)
(7.49424e-06 -5.2231e-06 2.38807e-19 -7.62772e-06 1.66123e-20 1.33485e-07)
(0.000851468 0.000304204 -5.82547e-18 -0.000824233 1.14838e-18 -2.72348e-05)
(0.0253623 -0.0325301 5.76128e-16 -0.0291985 -2.59134e-16 0.00383619)
(9.05508e-06 -1.52225e-06 8.26345e-20 -9.01146e-06 -8.45501e-20 -4.36165e-08)
(7.63532e-06 -5.63398e-06 1.49057e-19 -7.74617e-06 -4.64286e-20 1.10858e-07)
(0.000243197 -7.53281e-05 1.32545e-18 -0.000234789 -2.338e-19 -8.40793e-06)
(0.0105516 -0.00950234 6.11466e-16 -0.0119003 -1.79626e-17 0.00134868)
(1.10022e-05 -4.96161e-07 -4.23505e-19 -1.09572e-05 1.17871e-19 -4.50096e-08)
(8.02824e-06 -3.65458e-06 -1.00275e-20 -8.13549e-06 -4.3951e-20 1.07253e-07)
(6.22586e-05 -4.03965e-05 -1.62003e-18 -6.01928e-05 1.25901e-19 -2.06571e-06)
(0.0031565 -0.0035701 -2.22121e-16 -0.00355055 2.19089e-17 0.000394048)
(1.73193e-05 -6.54471e-07 9.41967e-19 -1.72523e-05 -7.70844e-20 -6.69735e-08)
(8.06028e-06 -2.4161e-06 -2.5016e-19 -8.16383e-06 3.97137e-20 1.03551e-07)
(8.29657e-06 -5.1938e-06 -8.81417e-20 -8.05218e-06 2.50591e-20 -2.44385e-07)
(0.000718443 -0.000994457 6.47256e-17 -0.000805321 -6.1075e-18 8.68781e-05)
(1.62849e-05 -9.38428e-07 -7.13807e-19 -1.62253e-05 -7.42277e-20 -5.95864e-08)
(9.95489e-06 -2.71388e-06 1.61059e-19 -1.00745e-05 1.5284e-20 1.19654e-07)
(7.17533e-06 -3.8197e-06 3.38359e-19 -6.99199e-06 -3.90793e-20 -1.83334e-07)
(4.77094e-05 -6.98187e-05 -5.15135e-18 -5.30337e-05 5.71638e-19 5.32428e-06)
(1.3496e-05 -8.89887e-07 7.14348e-20 -1.34511e-05 9.79641e-20 -4.48863e-08)
(1.47467e-05 -4.28209e-06 -2.96748e-20 -1.49085e-05 -2.65562e-20 1.61788e-07)
(6.9361e-06 -3.41736e-06 -3.50431e-19 -6.7812e-06 1.95697e-20 -1.54895e-07)
(5.87179e-06 -8.34163e-06 1.81541e-19 -6.45742e-06 -3.71599e-20 5.85637e-07)
(1.218e-05 -7.66446e-07 1.09839e-19 -1.21436e-05 -8.39108e-21 -3.64448e-08)
(1.62144e-05 -4.92645e-06 -9.70865e-20 -1.63757e-05 3.29329e-21 1.61302e-07)
(6.62875e-06 -3.31756e-06 2.04736e-20 -6.49996e-06 1.60859e-20 -1.28791e-07)
(5.17942e-06 -7.02474e-06 -1.22337e-19 -5.63569e-06 9.22461e-21 4.56278e-07)
(1.18358e-05 -6.68755e-07 3.53394e-20 -1.18045e-05 -5.03053e-20 -3.1339e-08)
(1.38313e-05 -4.20334e-06 -7.28641e-20 -1.3955e-05 2.8608e-20 1.23641e-07)
(7.32809e-06 -3.82633e-06 3.13689e-19 -7.20395e-06 -1.60118e-20 -1.24143e-07)
(4.88799e-06 -6.41422e-06 1.58989e-19 -5.26656e-06 -1.87437e-20 3.78571e-07)
(1.17662e-05 -5.88883e-07 -2.89725e-19 -1.1739e-05 1.74899e-20 -2.72033e-08)
(1.1638e-05 -3.45398e-06 1.62417e-19 -1.17308e-05 -8.85297e-21 9.27467e-08)
(1.01428e-05 -5.46098e-06 2.80538e-19 -9.99536e-06 -3.22073e-20 -1.47442e-07)
(4.64273e-06 -5.96987e-06 4.14762e-19 -4.95768e-06 -1.83551e-20 3.14945e-07)
(1.15909e-05 -5.05271e-07 3.08263e-20 -1.1568e-05 3.06111e-20 -2.29277e-08)
(1.05354e-05 -3.03351e-06 -3.69811e-20 -1.06102e-05 -1.86097e-20 7.47234e-08)
(1.06398e-05 -5.80742e-06 -9.62426e-20 -1.05103e-05 -1.85929e-20 -1.295e-07)
(5.06874e-06 -6.40741e-06 -3.64888e-20 -5.36733e-06 1.17764e-20 2.98587e-07)
(1.12391e-05 -4.08832e-07 -9.70755e-21 -1.12202e-05 -1.9115e-20 -1.89671e-08)
(1.00499e-05 -2.80215e-06 -1.33285e-19 -1.01124e-05 2.06639e-20 6.24814e-08)
(9.65831e-06 -5.27985e-06 -4.57365e-19 -9.56122e-06 3.20176e-20 -9.70921e-08)
(5.96711e-06 -7.39003e-06 -2.59334e-19 -6.26993e-06 1.14667e-20 3.02811e-07)
(1.07879e-05 -3.03135e-07 -1.48607e-19 -1.07729e-05 3.59504e-20 -1.49768e-08)
(9.74845e-06 -2.62375e-06 1.39843e-19 -9.80086e-06 -7.49275e-21 5.24057e-08)
(8.7145e-06 -4.73637e-06 1.16694e-19 -8.6431e-06 4.05876e-21 -7.13991e-08)
(6.23725e-06 -7.53376e-06 -1.55044e-19 -6.50655e-06 4.24248e-21 2.69304e-07)
(1.03103e-05 -1.92755e-07 2.94757e-19 -1.02989e-05 -2.09828e-21 -1.14944e-08)
(9.42975e-06 -2.43658e-06 -1.41919e-19 -9.47349e-06 2.89888e-21 4.37371e-08)
(8.08888e-06 -4.34465e-06 -9.65716e-20 -8.03668e-06 4.43781e-21 -5.22052e-08)
(6.00509e-06 -7.03776e-06 3.40119e-19 -6.22419e-06 -1.23043e-20 2.191e-07)
(9.83623e-06 -8.02845e-08 -4.20842e-20 -9.82742e-06 -2.98343e-20 -8.80418e-09)
(9.0525e-06 -2.23093e-06 7.48179e-20 -9.08822e-06 -6.57767e-21 3.57146e-08)
(7.65544e-06 -4.04079e-06 1.33496e-19 -7.61767e-06 -9.92405e-21 -3.77636e-08)
(5.65399e-06 -6.40485e-06 -2.19328e-19 -5.82662e-06 9.16123e-21 1.72629e-07)
(9.36901e-06 3.26332e-08 -4.69517e-20 -9.36288e-06 -1.63737e-21 -6.12802e-09)
(8.63948e-06 -2.01385e-06 -1.92408e-19 -8.66807e-06 8.07039e-21 2.85876e-08)
(7.29333e-06 -3.75911e-06 -2.21745e-19 -7.2669e-06 1.39081e-20 -2.64374e-08)
(5.33573e-06 -5.81779e-06 2.46954e-19 -5.47053e-06 -6.62826e-21 1.34796e-07)
(8.90385e-06 1.44687e-07 -8.93972e-20 -8.89974e-06 1.27884e-20 -4.10992e-09)
(8.21501e-06 -1.79482e-06 1.00557e-19 -8.23726e-06 2.32831e-20 2.22509e-08)
(6.94655e-06 -3.47371e-06 3.35783e-19 -6.92872e-06 -1.46842e-22 -1.78223e-08)
(5.06439e-06 -5.2949e-06 -2.41296e-19 -5.16815e-06 5.33908e-21 1.03764e-07)
(8.43888e-06 2.55599e-07 9.37255e-20 -8.4363e-06 9.17942e-21 -2.58161e-09)
(7.79213e-06 -1.5776e-06 2.83593e-19 -7.80941e-06 -1.98152e-20 1.72887e-08)
(6.60303e-06 -3.18052e-06 2.07815e-20 -6.59197e-06 -8.21456e-21 -1.10596e-08)
(4.82437e-06 -4.81646e-06 1.30241e-19 -4.90326e-06 -3.02042e-21 7.8886e-08)
(7.97453e-06 3.622e-07 7.71854e-20 -7.97359e-06 -1.59256e-20 -9.41564e-10)
(7.37362e-06 -1.36597e-06 -1.64204e-19 -7.38697e-06 -1.7322e-20 1.3351e-08)
(6.26377e-06 -2.88583e-06 4.00866e-20 -6.25813e-06 -7.73422e-21 -5.64104e-09)
(4.60288e-06 -4.36976e-06 -2.4661e-19 -4.66256e-06 2.85742e-21 5.96781e-08)
(7.51213e-06 4.64836e-07 -1.37878e-19 -7.51197e-06 6.26713e-21 -1.64964e-10)
(6.9603e-06 -1.15925e-06 -1.10204e-19 -6.97007e-06 1.52795e-20 9.77254e-09)
(5.93129e-06 -2.59347e-06 -2.1423e-19 -5.92924e-06 4.37094e-21 -2.04868e-09)
(4.39312e-06 -3.94899e-06 1.59637e-19 -4.43764e-06 -3.95851e-21 4.45204e-08)
(7.05442e-06 5.61552e-07 1.53926e-19 -7.05485e-06 -2.72735e-21 4.22399e-10)
(6.55289e-06 -9.60913e-07 1.22139e-19 -6.55998e-06 -3.78552e-21 7.09452e-09)
(5.60688e-06 -2.3081e-06 1.04062e-19 -5.60762e-06 -1.94665e-21 7.47941e-10)
(4.1929e-06 -3.55217e-06 -3.57009e-19 -4.22621e-06 5.93916e-21 3.33062e-08)
(6.60359e-06 6.5077e-07 -1.82947e-19 -6.60478e-06 -4.68063e-21 1.1874e-09)
(6.15283e-06 -7.70738e-07 -1.84259e-19 -6.15781e-06 -7.12102e-22 4.98076e-09)
(5.29014e-06 -2.03167e-06 -2.69746e-19 -5.29232e-06 3.42003e-22 2.18288e-09)
(3.99971e-06 -3.17908e-06 5.68441e-19 -4.02423e-06 4.95454e-21 2.45199e-08)
(6.16111e-06 7.3182e-07 9.07374e-20 -6.16256e-06 1.34534e-20 1.45045e-09)
(5.76122e-06 -5.91384e-07 1.24949e-19 -5.76485e-06 1.52514e-21 3.63185e-09)
(4.98177e-06 -1.7666e-06 1.57923e-19 -4.98522e-06 1.18729e-20 3.44778e-09)
(3.81247e-06 -2.82815e-06 -2.28046e-19 -3.83019e-06 -8.80785e-21 1.77191e-08)
(5.72929e-06 8.03985e-07 4.77052e-20 -5.73093e-06 -7.3797e-21 1.64659e-09)
(5.37891e-06 -4.23241e-07 -1.69485e-19 -5.38115e-06 -5.44111e-21 2.24374e-09)
(4.68094e-06 -1.5152e-06 6.24173e-20 -4.685e-06 -1.22822e-20 4.05551e-09)
(3.62973e-06 -2.49969e-06 9.54924e-20 -3.64251e-06 4.26553e-21 1.27781e-08)
(5.35102e-06 1.98545e-06 -1.85805e-19 -5.3525e-06 9.37448e-21 1.47758e-09)
(5.30985e-06 8.66277e-07 -7.58435e-20 -5.31167e-06 -8.66168e-21 1.82017e-09)
(5.00765e-06 -2.67271e-07 5.43729e-20 -5.00901e-06 1.5721e-20 1.35925e-09)
(4.38799e-06 -1.27824e-06 -2.58339e-19 -4.39209e-06 -1.21481e-21 4.09531e-09)
(3.45014e-06 -2.19302e-06 -6.55555e-20 -3.45891e-06 4.89805e-22 8.77251e-09)
(4.91959e-06 1.9466e-06 2.08257e-19 -4.92102e-06 1.39501e-20 1.42739e-09)
(4.9044e-06 9.18472e-07 -8.38592e-20 -4.90612e-06 5.18786e-21 1.71789e-09)
(4.64834e-06 -1.2471e-07 2.18028e-19 -4.64919e-06 6.25939e-22 8.53553e-10)
(4.10355e-06 -1.05733e-06 1.73111e-19 -4.10768e-06 1.15591e-20 4.12918e-09)
(3.27319e-06 -1.90762e-06 1.97792e-19 -3.2789e-06 5.88787e-21 5.70378e-09)
(4.50656e-06 1.89964e-06 -5.18682e-20 -4.50784e-06 -1.06705e-20 1.28198e-09)
(4.51466e-06 9.60104e-07 9.76569e-20 -4.51638e-06 6.07045e-21 1.72699e-09)
(4.30184e-06 4.19508e-09 -5.88281e-20 -4.30227e-06 -1.36969e-20 4.31076e-10)
(3.82774e-06 -8.53357e-07 -4.82116e-21 -3.83177e-06 -7.48479e-21 4.03439e-09)
(3.09846e-06 -1.64344e-06 -7.9508e-20 -3.10182e-06 -9.78492e-21 3.36501e-09)
(4.11354e-06 1.84522e-06 3.0235e-20 -4.11467e-06 -4.32079e-22 1.13139e-09)
(4.14174e-06 9.91243e-07 -1.3582e-20 -4.14342e-06 -3.19878e-21 1.68593e-09)
(3.96906e-06 1.19075e-07 -1.44683e-19 -3.96917e-06 1.92647e-21 1.03222e-10)
(3.5609e-06 -6.66745e-07 -9.22518e-20 -3.56471e-06 -6.44569e-21 3.8087e-09)
(2.92567e-06 -1.40017e-06 -2.10201e-19 -2.92712e-06 -4.79065e-21 1.45184e-09)
(3.74169e-06 1.78422e-06 -9.682e-20 -3.74277e-06 -7.74663e-22 1.08137e-09)
(3.78684e-06 1.01229e-06 1.96857e-20 -3.7884e-06 -8.24388e-22 1.56876e-09)
(3.65086e-06 2.19882e-07 1.43681e-19 -3.65076e-06 6.29624e-21 -1.03921e-10)
(3.30349e-06 -4.97715e-07 -1.20753e-19 -3.30702e-06 -3.21845e-21 3.52632e-09)
(2.75499e-06 -1.17734e-06 7.3679e-20 -2.75494e-06 5.91251e-21 -4.45326e-11)
(3.39179e-06 1.71757e-06 1.43795e-19 -3.3928e-06 1.37679e-20 1.00353e-09)
(3.45086e-06 1.02336e-06 -3.62085e-20 -3.45234e-06 1.6694e-21 1.48038e-09)
(3.3479e-06 3.06651e-07 -1.41423e-19 -3.34771e-06 -7.73577e-21 -1.83373e-10)
(3.05604e-06 -3.46225e-07 -2.82141e-20 -3.05933e-06 7.24944e-21 3.29561e-09)
(2.58666e-06 -9.74662e-07 -1.87831e-20 -2.58538e-06 -8.28697e-22 -1.27847e-09)
(3.06437e-06 1.64632e-06 7.11163e-20 -3.06526e-06 -3.21555e-21 8.87394e-10)
(3.13436e-06 1.0252e-06 9.74607e-20 -3.13573e-06 6.56847e-21 1.36635e-09)
(3.06057e-06 3.79761e-07 1.12836e-19 -3.06029e-06 7.87187e-21 -2.80604e-10)
(2.81885e-06 -2.12054e-07 2.65094e-19 -2.82193e-06 1.07012e-20 3.07998e-09)
(2.42117e-06 -7.91419e-07 9.02714e-20 -2.41892e-06 6.42135e-21 -2.2443e-09)
(2.75969e-06 1.5714e-06 -5.7361e-20 -2.76048e-06 -7.83708e-21 7.90468e-10)
(2.83777e-06 1.0185e-06 5.59963e-21 -2.83906e-06 -6.30046e-21 1.2851e-09)
(2.78936e-06 4.39875e-07 -5.73625e-20 -2.78901e-06 -6.18838e-21 -3.45249e-10)
(2.59233e-06 -9.46429e-08 -1.08047e-19 -2.59518e-06 -1.38631e-20 2.85e-09)
(2.25891e-06 -6.27281e-07 6.29769e-20 -2.25586e-06 1.61885e-21 -3.04765e-09)
(2.47761e-06 1.49384e-06 -7.69541e-20 -2.47832e-06 -2.33542e-21 7.13013e-10)
(2.56123e-06 1.00406e-06 -1.43838e-19 -2.56242e-06 -7.32153e-21 1.19091e-09)
(2.53447e-06 4.87532e-07 -2.14859e-20 -2.53412e-06 2.12818e-21 -3.50459e-10)
(2.37684e-06 6.713e-09 -8.85083e-20 -2.37952e-06 -2.90009e-21 2.67738e-09)
(2.10061e-06 -4.81022e-07 -2.67412e-21 -2.09694e-06 -4.14465e-21 -3.67021e-09)
(2.21775e-06 1.41465e-06 8.87169e-21 -2.21839e-06 5.6794e-21 6.41229e-10)
(2.30464e-06 9.82753e-07 7.09513e-20 -2.30572e-06 7.02104e-21 1.07962e-09)
(2.29597e-06 5.23766e-07 9.1844e-20 -2.29559e-06 4.80513e-21 -3.73299e-10)
(2.17264e-06 9.28731e-08 -1.11372e-20 -2.17512e-06 3.17014e-21 2.48354e-09)
(1.94678e-06 -3.52257e-07 -1.54185e-19 -1.94264e-06 -6.68286e-21 -4.13319e-09)
(1.97955e-06 1.33476e-06 1.25103e-19 -1.98012e-06 9.51242e-21 5.63501e-10)
(2.06773e-06 9.55623e-07 -5.36622e-20 -2.0687e-06 -6.9446e-21 9.68778e-10)
(2.07378e-06 5.49425e-07 -7.48023e-20 -2.0734e-06 -7.7692e-21 -3.76716e-10)
(1.97998e-06 1.64797e-07 7.4759e-20 -1.98233e-06 3.06342e-21 2.34937e-09)
(1.79803e-06 -2.39699e-07 1.55471e-19 -1.7935e-06 1.24956e-20 -4.53151e-09)
(1.76221e-06 1.25495e-06 -2.33741e-21 -1.7627e-06 -2.65538e-21 4.89417e-10)
(1.85e-06 9.2352e-07 -9.04855e-20 -1.85092e-06 -4.92122e-21 9.12145e-10)
(1.86775e-06 5.65586e-07 -2.06743e-20 -1.86737e-06 -2.016e-21 -3.83158e-10)
(1.79895e-06 2.23632e-07 -6.55993e-20 -1.80118e-06 -4.51943e-21 2.22925e-09)
(1.65496e-06 -1.42452e-07 -7.18157e-21 -1.65016e-06 -5.48221e-21 -4.80014e-09)
(1.42799e-06 1.43572e-06 -5.6783e-22 -1.42852e-06 -6.16358e-22 5.29254e-10)
(1.56477e-06 1.17607e-06 1.84778e-20 -1.56519e-06 1.07406e-21 4.18066e-10)
(1.65075e-06 8.87502e-07 2.70452e-20 -1.65156e-06 3.83134e-21 8.13568e-10)
(1.6775e-06 5.73309e-07 -1.04824e-19 -1.67711e-06 -5.09147e-21 -3.91707e-10)
(1.62959e-06 2.70506e-07 9.04235e-20 -1.63168e-06 7.39646e-21 2.09602e-09)
(1.51807e-06 -5.94197e-08 -1.51169e-19 -1.5131e-06 -8.47487e-21 -4.97129e-09)
(1.26044e-06 1.32283e-06 -1.78908e-20 -1.2609e-06 -1.45944e-21 4.61005e-10)
(1.38617e-06 1.09876e-06 -2.56183e-20 -1.38653e-06 -3.37087e-21 3.60312e-10)
(1.46925e-06 8.48459e-07 -2.84296e-20 -1.46997e-06 -3.46301e-21 7.22901e-10)
(1.50258e-06 5.7374e-07 1.35407e-19 -1.50219e-06 1.32954e-20 -3.86797e-10)
(1.47185e-06 3.06606e-07 -1.03125e-20 -1.47382e-06 -3.85747e-21 1.97635e-09)
(1.38778e-06 1.05302e-08 1.30312e-19 -1.38271e-06 1.11496e-20 -5.06657e-09)
(1.11031e-06 1.21635e-06 1.78591e-20 -1.1107e-06 3.16553e-21 3.90454e-10)
(1.22524e-06 1.02356e-06 -4.62279e-20 -1.22554e-06 -3.06105e-21 2.99257e-10)
(1.30456e-06 8.07197e-07 1.36418e-21 -1.30524e-06 1.441e-21 6.73895e-10)
(1.34243e-06 5.67879e-07 5.97722e-20 -1.34204e-06 1.4204e-21 -3.86494e-10)
(1.32558e-06 3.33134e-07 -9.48257e-20 -1.32745e-06 -5.04198e-21 1.878e-09)
(1.26444e-06 6.85908e-08 -5.59701e-20 -1.25935e-06 -5.52488e-21 -5.09648e-09)
(9.76228e-07 1.11637e-06 6.33979e-20 -9.76566e-07 4.2822e-21 3.38528e-10)
(1.08077e-06 9.50993e-07 3.29302e-20 -1.08101e-06 3.46038e-21 2.46475e-10)
(1.1557e-06 7.64607e-07 7.20888e-20 -1.1563e-06 5.2798e-21 5.99051e-10)
(1.19637e-06 5.56795e-07 -7.96795e-20 -1.19598e-06 -6.15638e-21 -3.94914e-10)
(1.19051e-06 3.51264e-07 1.37009e-19 -1.19229e-06 1.21516e-20 1.78094e-09)
(1.14831e-06 1.1589e-07 6.06821e-20 -1.14322e-06 5.51367e-21 -5.0809e-09)
(8.56857e-07 1.0229e-06 -7.36215e-20 -8.57145e-07 -7.59077e-21 2.88196e-10)
(9.51489e-07 8.81399e-07 -1.2348e-20 -9.51697e-07 -2.10123e-21 2.0781e-10)
(1.02167e-06 7.21283e-07 -8.50435e-20 -1.02221e-06 -9.22842e-21 5.45335e-10)
(1.06371e-06 5.41465e-07 9.75272e-20 -1.06332e-06 9.34595e-21 -3.88312e-10)
(1.06632e-06 3.62161e-07 9.02986e-21 -1.06799e-06 -1.35194e-21 1.67343e-09)
(1.03953e-06 1.53583e-07 -3.41246e-20 -1.03453e-06 -4.80026e-21 -4.99874e-09)
(7.50892e-07 9.35868e-07 2.96814e-20 -7.51135e-07 3.99487e-21 2.42168e-10)
(8.36193e-07 8.15103e-07 -3.07503e-20 -8.36351e-07 -2.41037e-21 1.57718e-10)
(9.01364e-07 6.77938e-07 -1.583e-20 -9.01846e-07 2.43628e-22 4.82062e-10)
(9.43619e-07 5.22772e-07 -1.04906e-20 -9.43229e-07 -2.31328e-21 -3.90537e-10)
(9.52609e-07 3.66848e-07 -3.63021e-20 -9.54191e-07 -2.69928e-21 1.58172e-09)
(9.3816e-07 1.82775e-07 -1.07883e-19 -9.33287e-07 -7.99442e-21 -4.8729e-09)
(6.57057e-07 8.55107e-07 -6.9358e-21 -6.57266e-07 8.55309e-22 2.08566e-10)
(7.33663e-07 7.52241e-07 8.24188e-21 -7.33798e-07 1.1715e-21 1.35499e-10)
(7.93758e-07 6.3503e-07 2.88046e-20 -7.942e-07 2.92829e-21 4.41527e-10)
(8.35332e-07 5.01522e-07 -8.08334e-21 -8.34945e-07 -1.18054e-21 -3.86732e-10)
(8.48907e-07 3.66383e-07 2.41112e-20 -8.50398e-07 1.31184e-21 1.49126e-09)
(8.44161e-07 2.04561e-07 8.70431e-20 -8.39435e-07 8.87254e-21 -4.72608e-09)
(5.74153e-07 7.80443e-07 1.4096e-19 -5.74327e-07 1.3865e-20 1.73771e-10)
(6.42703e-07 6.92993e-07 8.24032e-21 -6.42801e-07 1.2567e-21 9.86837e-11)
(6.97771e-07 5.93038e-07 5.53078e-21 -6.98155e-07 1.2671e-23 3.84083e-10)
(7.37979e-07 4.78443e-07 -5.15776e-20 -7.376e-07 -3.39643e-21 -3.79268e-10)
(7.54699e-07 3.61664e-07 -8.71778e-20 -7.56097e-07 -7.74775e-21 1.39797e-09)
(7.57421e-07 2.19935e-07 -1.54164e-20 -7.52872e-07 -1.87835e-21 -4.54849e-09)
(5.01072e-07 7.11597e-07 -4.438e-20 -5.01217e-07 -5.83012e-21 1.45213e-10)
(5.62229e-07 6.37353e-07 1.8935e-20 -5.62306e-07 1.56176e-21 7.68649e-11)
(6.12397e-07 5.52286e-07 -2.12445e-20 -6.12751e-07 -2.81437e-21 3.53828e-10)
(6.50745e-07 4.54167e-07 1.01671e-19 -6.5037e-07 9.53299e-21 -3.74895e-10)
(6.69419e-07 3.53529e-07 7.15102e-20 -6.70732e-07 7.60516e-21 1.3136e-09)
(6.77744e-07 2.29821e-07 7.64929e-20 -6.73395e-07 6.26924e-21 -4.34885e-09)
(3.76038e-07 7.01269e-07 3.50497e-20 -3.76122e-07 3.32842e-21 8.45774e-11)
(4.36762e-07 6.48283e-07 5.4357e-20 -4.36888e-07 6.66707e-21 1.25655e-10)
(4.91177e-07 5.85346e-07 -1.71857e-20 -4.91227e-07 -2.19808e-21 4.98687e-11)
(5.3663e-07 5.13082e-07 -3.94795e-20 -5.36943e-07 -3.64635e-21 3.13586e-10)
(5.72798e-07 4.29221e-07 -6.75611e-20 -5.7243e-07 -7.42726e-21 -3.67995e-10)
(5.92492e-07 3.42719e-07 -2.11456e-20 -5.93722e-07 -2.24255e-21 1.23004e-09)
(6.0487e-07 2.35108e-07 -1.30356e-19 -6.00732e-07 -1.34139e-20 -4.13767e-09)
(3.26914e-07 6.35045e-07 -5.20375e-20 -3.2698e-07 -5.75679e-21 6.61454e-11)
(3.80263e-07 5.90204e-07 3.91875e-20 -3.80365e-07 2.92293e-21 1.02804e-10)
(4.28551e-07 5.36901e-07 -4.65428e-20 -4.28589e-07 -4.67531e-21 3.83237e-11)
(4.6957e-07 4.75589e-07 -1.05124e-20 -4.69852e-07 -2.06697e-23 2.81946e-10)
(5.03333e-07 4.04062e-07 2.2706e-20 -5.0298e-07 1.93809e-21 -3.52857e-10)
(5.23332e-07 3.29874e-07 4.71438e-20 -5.24481e-07 5.28744e-21 1.14908e-09)
(5.38493e-07 2.36562e-07 -1.78968e-20 -5.34579e-07 5.18751e-23 -3.9142e-09)
(2.83889e-07 5.74973e-07 3.84372e-20 -2.83944e-07 5.35189e-21 5.54215e-11)
(3.30709e-07 5.37041e-07 -7.39635e-20 -3.30796e-07 -8.17979e-21 8.69493e-11)
(3.73452e-07 4.91948e-07 -6.34827e-21 -3.73479e-07 -5.59947e-22 2.73566e-11)
(4.10325e-07 4.39981e-07 9.74385e-20 -4.10571e-07 9.57587e-21 2.45888e-10)
(4.41575e-07 3.79072e-07 -9.67371e-20 -4.41234e-07 -9.88874e-21 -3.41014e-10)
(4.61333e-07 3.1558e-07 4.61222e-20 -4.62399e-07 4.57831e-21 1.06618e-09)
(4.78266e-07 2.34893e-07 5.72349e-20 -4.74577e-07 4.77938e-21 -3.68949e-09)
(2.46242e-07 5.20571e-07 6.23624e-20 -2.46285e-07 6.7837e-21 4.36804e-11)
(2.87283e-07 4.88495e-07 5.72758e-22 -2.87353e-07 6.91291e-22 7.08966e-11)
(3.2505e-07 4.50362e-07 7.47898e-21 -3.25066e-07 1.06065e-21 1.62961e-11)
(3.58071e-07 4.06359e-07 -1.14542e-19 -3.58287e-07 -1.25555e-20 2.16689e-10)
(3.86795e-07 3.54548e-07 -3.42869e-21 -3.86468e-07 -3.85754e-22 -3.26618e-10)
(4.05916e-07 3.00296e-07 8.05978e-20 -4.06912e-07 8.65972e-21 9.96658e-10)
(4.23823e-07 2.30717e-07 -1.59527e-19 -4.20364e-07 -1.66948e-20 -3.45883e-09)
(2.13325e-07 4.71365e-07 1.55402e-20 -2.1336e-07 1.37778e-21 3.50565e-11)
(2.49261e-07 4.44245e-07 -2.10353e-20 -2.49324e-07 -1.95473e-21 6.27933e-11)
(2.82585e-07 4.12005e-07 -1.1794e-20 -2.82593e-07 -1.50929e-21 7.62645e-12)
(3.12054e-07 3.74771e-07 3.17794e-20 -3.12253e-07 4.55535e-21 1.98847e-10)
(3.38304e-07 3.30749e-07 -5.70848e-20 -3.37993e-07 -6.10929e-21 -3.11488e-10)
(3.56501e-07 2.84471e-07 6.29346e-20 -3.57425e-07 6.30525e-21 9.23916e-10)
(3.74763e-07 2.24606e-07 -2.78222e-20 -3.71529e-07 -2.06512e-21 -3.23428e-09)
(1.8456e-07 4.26861e-07 8.47464e-21 -1.84585e-07 5.1389e-22 2.5584e-11)
(2.15995e-07 4.03945e-07 4.54365e-20 -2.16047e-07 5.23693e-21 5.20246e-11)
(2.45354e-07 3.76702e-07 -4.1328e-21 -2.45351e-07 -2.55395e-22 -2.86917e-12)
(2.71576e-07 3.45226e-07 2.68461e-20 -2.71751e-07 1.92211e-21 1.75119e-10)
(2.95439e-07 3.07853e-07 -7.7401e-21 -2.95139e-07 -9.95384e-22 -3.00078e-10)
(3.12536e-07 2.68425e-07 6.27372e-20 -3.13394e-07 6.58903e-21 8.58158e-10)
(3.30689e-07 2.17033e-07 -6.83832e-20 -3.27676e-07 -6.87367e-21 -3.01307e-09)
(1.59461e-07 3.86509e-07 -2.97056e-20 -1.59483e-07 -3.76017e-21 2.14823e-11)
(1.86939e-07 3.67166e-07 1.68979e-20 -1.86984e-07 1.62926e-21 4.47672e-11)
(2.12752e-07 3.44179e-07 2.15699e-20 -2.12748e-07 2.40444e-21 -3.57885e-12)
(2.36032e-07 3.17597e-07 -1.07559e-19 -2.3619e-07 -1.17014e-20 1.5779e-10)
(2.57612e-07 2.85924e-07 -7.55417e-20 -2.57332e-07 -8.43535e-21 -2.79483e-10)
(2.73504e-07 2.52392e-07 5.07849e-20 -2.74298e-07 4.9238e-21 7.9402e-10)
(2.912e-07 2.08387e-07 -6.42423e-21 -2.88404e-07 -5.55084e-22 -2.79622e-09)
(1.12352e-07 3.63234e-07 3.16437e-21 -1.12371e-07 6.54678e-22 1.92023e-11)
(1.37602e-07 3.49768e-07 -3.57489e-20 -1.37616e-07 -3.63891e-21 1.45794e-11)
(1.61599e-07 3.33466e-07 2.47764e-20 -1.61633e-07 2.39424e-21 3.39389e-11)
(1.84261e-07 3.14103e-07 -3.81527e-20 -1.8425e-07 -4.65413e-21 -1.05554e-11)
(2.04867e-07 2.91702e-07 2.67479e-21 -2.05005e-07 7.64179e-22 1.37807e-10)
(2.24298e-07 2.64914e-07 -1.46844e-20 -2.2403e-07 -8.44876e-22 -2.67754e-10)
(2.38927e-07 2.36461e-07 9.63157e-21 -2.39659e-07 5.3952e-22 7.32134e-10)
(2.55915e-07 1.98901e-07 -3.22666e-20 -2.53328e-07 -2.963e-21 -2.58683e-09)
(9.66469e-08 3.27617e-07 2.18006e-20 -9.66693e-08 2.54544e-21 2.23703e-11)
(1.18632e-07 3.16242e-07 5.87654e-20 -1.1865e-07 6.96066e-21 1.76283e-11)
(1.39571e-07 3.02502e-07 -5.06045e-20 -1.39607e-07 -5.7202e-21 3.57932e-11)
(1.59441e-07 2.86198e-07 -5.45605e-20 -1.59434e-07 -5.62506e-21 -7.15211e-12)
(1.77633e-07 2.67339e-07 -1.9306e-20 -1.77762e-07 -2.53929e-21 1.28797e-10)
(1.95053e-07 2.44724e-07 5.75204e-20 -1.94807e-07 6.47041e-21 -2.45513e-10)
(2.08405e-07 2.2064e-07 -4.38666e-20 -2.09082e-07 -5.02305e-21 6.77339e-10)
(2.24491e-07 1.88702e-07 7.80547e-20 -2.22112e-07 8.57315e-21 -2.37896e-09)
(8.2967e-08 2.95409e-07 1.93663e-20 -8.29743e-08 2.38728e-21 7.33834e-12)
(1.02119e-07 2.85764e-07 -2.69751e-20 -1.02122e-07 -3.47169e-21 2.77938e-12)
(1.20391e-07 2.74151e-07 -3.21208e-21 -1.2041e-07 -2.46454e-22 1.91893e-11)
(1.37803e-07 2.60394e-07 6.67251e-20 -1.37783e-07 8.08797e-21 -1.98677e-11)
(1.53845e-07 2.44495e-07 -3.95468e-20 -1.5395e-07 -4.89704e-21 1.04393e-10)
(1.69411e-07 2.25398e-07 -1.35718e-20 -1.69175e-07 -1.28562e-21 -2.35096e-10)
(1.81533e-07 2.05011e-07 -4.19515e-20 -1.82143e-07 -4.19236e-21 6.09522e-10)
(1.96583e-07 1.77916e-07 8.68174e-21 -1.944e-07 5.67766e-22 -2.18368e-09)
(7.10429e-08 2.66496e-07 3.63481e-20 -7.1071e-08 3.97647e-21 2.80245e-11)
(8.77324e-08 2.58269e-07 -1.84094e-20 -8.77539e-08 -1.96997e-21 2.14369e-11)
(1.03691e-07 2.48397e-07 9.90681e-21 -1.03723e-07 9.69409e-22 3.20594e-11)
(1.18945e-07 2.36738e-07 4.7438e-20 -1.18944e-07 5.51623e-21 -1.34687e-12)
(1.33082e-07 2.23285e-07 -1.53008e-19 -1.33191e-07 -1.71073e-20 1.08614e-10)
(1.46966e-07 2.07113e-07 1.0879e-19 -1.46762e-07 1.18202e-20 -2.03817e-10)
(1.57928e-07 1.89823e-07 4.35821e-20 -1.58495e-07 5.054e-21 5.67338e-10)
(1.71879e-07 1.66859e-07 1.00786e-20 -1.69913e-07 8.69544e-22 -1.96585e-09)
(6.04817e-08 2.40564e-07 -4.09926e-20 -6.04603e-08 -5.0969e-21 -2.14438e-11)
(7.50109e-08 2.33506e-07 3.26128e-21 -7.49974e-08 4.53643e-22 -1.35072e-11)
(8.89482e-08 2.25063e-07 -1.79832e-20 -8.89464e-08 -1.94406e-21 -1.72519e-12)
(1.02331e-07 2.15121e-07 4.14916e-20 -1.02295e-07 4.49097e-21 -3.59957e-11)
(1.14777e-07 2.03676e-07 2.77702e-20 -1.14849e-07 3.73332e-21 7.20671e-11)
(1.27149e-07 1.89905e-07 -1.81354e-20 -1.26934e-07 -2.03023e-21 -2.15287e-10)
(1.37042e-07 1.75154e-07 -1.99828e-20 -1.37522e-07 -2.49203e-21 4.79972e-10)
(1.49885e-07 1.55617e-07 -3.2681e-20 -1.48072e-07 -3.47497e-21 -1.81285e-09)
(5.13395e-08 2.18263e-07 -2.5642e-20 -5.13564e-08 -2.93186e-21 1.69125e-11)
(6.40143e-08 2.12236e-07 2.95508e-21 -6.4031e-08 4.58777e-22 1.67385e-11)
(7.62006e-08 2.05032e-07 6.23712e-20 -7.62229e-08 6.96675e-21 2.23043e-11)
(8.79663e-08 1.96553e-07 -3.33605e-22 -8.79429e-08 3.17148e-23 -2.33896e-11)
(9.89608e-08 1.86794e-07 -4.77447e-20 -9.90225e-08 -5.59565e-21 6.16617e-11)
(1.0997e-07 1.75025e-07 9.78847e-20 -1.09773e-07 1.11583e-20 -1.96187e-10)
(1.1891e-07 1.62369e-07 -1.85827e-20 -1.19318e-07 -2.26535e-21 4.08017e-10)
(1.30684e-07 1.45623e-07 6.12567e-20 -1.29038e-07 7.05857e-21 -1.6457e-09)
(4.48422e-08 2.00252e-07 -4.94785e-20 -4.49349e-08 -5.66605e-21 9.26776e-11)
(5.60566e-08 1.94974e-07 5.32391e-20 -5.61752e-08 6.20886e-21 1.18642e-10)
(6.68592e-08 1.88692e-07 -8.76462e-20 -6.70016e-08 -1.04816e-20 1.42382e-10)
(7.72891e-08 1.81329e-07 2.25596e-20 -7.7416e-08 2.63285e-21 1.26895e-10)
(8.70652e-08 1.72855e-07 2.84567e-20 -8.72902e-08 3.34527e-21 2.25035e-10)
(9.69225e-08 1.62597e-07 2.50581e-20 -9.69381e-08 2.1816e-21 1.55759e-11)
(1.04951e-07 1.51559e-07 -7.89226e-20 -1.05575e-07 -8.36429e-21 6.23777e-10)
(1.15908e-07 1.37172e-07 4.14097e-20 -1.14707e-07 4.04631e-21 -1.2012e-09)
(2.90589e-08 1.88565e-07 1.01175e-20 -2.88032e-08 1.25083e-21 -2.55711e-10)
(3.92877e-08 1.8476e-07 2.79662e-20 -3.91546e-08 3.52736e-21 -1.33097e-10)
(4.93156e-08 1.79928e-07 -1.10508e-20 -4.91925e-08 -1.25861e-21 -1.23069e-10)
(5.90077e-08 1.74252e-07 -1.72571e-20 -5.88612e-08 -1.84385e-21 -1.46478e-10)
(6.83596e-08 1.6769e-07 4.62841e-20 -6.81517e-08 5.22117e-21 -2.07921e-10)
(7.70989e-08 1.60195e-07 -2.82487e-20 -7.69446e-08 -3.2489e-21 -1.54242e-10)
(8.59531e-08 1.51167e-07 -9.34905e-20 -8.5565e-08 -1.06924e-20 -3.88105e-10)
(9.31569e-08 1.41404e-07 1.08635e-19 -9.32639e-08 1.25953e-20 1.07038e-10)
(1.03222e-07 1.28888e-07 -5.95544e-20 -1.01549e-07 -6.96203e-21 -1.67358e-09)
(2.53185e-08 1.74414e-07 2.84437e-21 -2.52945e-08 2.98677e-22 -2.39861e-11)
(3.44571e-08 1.70909e-07 -8.46959e-21 -3.46978e-08 -1.37802e-21 2.40703e-10)
(4.34961e-08 1.66438e-07 6.16746e-20 -4.38534e-08 7.19946e-21 3.57292e-10)
(5.23418e-08 1.61175e-07 -3.40363e-20 -5.27147e-08 -3.78682e-21 3.72866e-10)
(6.08712e-08 1.55121e-07 -2.39316e-20 -6.12209e-08 -3.02902e-21 3.49702e-10)
(6.88043e-08 1.48243e-07 -1.11704e-20 -6.92447e-08 -1.18318e-21 4.40422e-10)
(7.67832e-08 1.40063e-07 7.94028e-20 -7.70811e-08 9.30971e-21 2.97906e-10)
(8.32147e-08 1.31334e-07 -2.72368e-20 -8.40887e-08 -2.69101e-21 8.73976e-10)
(9.22995e-08 1.20672e-07 -5.31353e-20 -9.17808e-08 -6.44306e-21 -5.18678e-10)
(2.07669e-08 1.59718e-07 -7.57959e-22 -1.98737e-08 -7.85728e-23 -8.93234e-10)
(2.85588e-08 1.56561e-07 -5.61205e-20 -2.78782e-08 -6.78309e-21 -6.80588e-10)
(3.63518e-08 1.52588e-07 -4.81689e-20 -3.57226e-08 -5.65352e-21 -6.29219e-10)
(4.41041e-08 1.47926e-07 1.71117e-20 -4.33917e-08 2.13482e-21 -7.12411e-10)
(5.16172e-08 1.4259e-07 -1.31331e-20 -5.08019e-08 -1.65806e-21 -8.15322e-10)
(5.86426e-08 1.36533e-07 3.22367e-20 -5.78504e-08 4.07479e-21 -7.92205e-10)
(6.58416e-08 1.29258e-07 -6.44775e-20 -6.48274e-08 -8.36812e-21 -1.01412e-09)
(7.18389e-08 1.21195e-07 2.0051e-19 -7.11044e-08 2.36028e-20 -7.34519e-10)
(8.01825e-08 1.11084e-07 -9.98923e-20 -7.78483e-08 -1.15156e-20 -2.33416e-09)
(1.8818e-08 1.47471e-07 -1.13501e-21 -1.96228e-08 -2.58046e-23 8.0478e-10)
(2.58957e-08 1.44547e-07 -5.22704e-20 -2.71661e-08 -6.07937e-21 1.27039e-09)
(3.30325e-08 1.40838e-07 1.10166e-19 -3.45484e-08 1.30267e-20 1.51586e-09)
(4.01871e-08 1.36442e-07 6.71207e-21 -4.17463e-08 8.14096e-22 1.55919e-09)
(4.70577e-08 1.314e-07 -6.3175e-20 -4.86194e-08 -7.05401e-21 1.56172e-09)
(5.33797e-08 1.25735e-07 7.35976e-20 -5.50637e-08 8.31138e-21 1.684e-09)
(5.95928e-08 1.19179e-07 -1.40689e-19 -6.13157e-08 -1.63989e-20 1.72294e-09)
(6.45388e-08 1.12401e-07 1.29208e-19 -6.70088e-08 1.43805e-20 2.46993e-09)