/*--------------------------------*- C++ -*----------------------------------*\
| =========                 |                                                 |
| \\      /  F ield         | OpenFOAM: The Open Source CFD Toolbox           |
|  \\    /   O peration     | Version:  2306                                  |
|   \\  /    A nd           | Website:  www.openfoam.com                      |
|    \\/     M anipulation  |                                                 |
\*---------------------------------------------------------------------------*/
FoamFile
{
    version     2.0;
    format      ascii;
    arch        "LSB;label=32;scalar=64";
    class       volScalarField;
    location    "950";
    object      div(phi);
}
// * * * * * * * * * * * * * * * * * * * * * * * * * * * * * * * * * * * * * //

dimensions      [0 0 -1 0 0 0 0];

internalField   nonuniform List<scalar> 
1340
(
6.67015e-06
-4.95231e-06
3.60681e-06
-2.93967e-06
2.25664e-06
5.43717e-07
3.12674e-06
1.70684e-06
7.46602e-07
-6.94023e-07
-8.91266e-07
-1.12662e-06
-7.01184e-07
-6.86365e-07
-4.14703e-07
-5.65637e-07
-4.13315e-07
-7.33674e-07
-4.04595e-07
-9.26731e-07
3.76121e-07
5.86138e-08
5.30882e-06
7.0381e-06
8.00253e-06
6.96374e-06
3.53081e-06
2.29162e-06
3.9189e-06
4.00719e-06
-6.25907e-06
2.08973e-05
3.20448e-06
2.48704e-07
-8.89079e-06
-5.17933e-06
5.71376e-06
1.36436e-07
1.23065e-06
1.06168e-06
-4.24821e-06
-1.7564e-06
3.27532e-06
-1.36461e-06
2.31481e-06
-2.19488e-06
2.41393e-06
1.19666e-06
2.38884e-06
1.67288e-06
1.08372e-07
-7.825e-07
-9.45466e-07
-1.02619e-06
-6.66922e-07
-6.96761e-07
-4.40024e-07
-6.20217e-07
-4.49463e-07
-6.97656e-07
-4.29989e-07
-6.41216e-07
1.67219e-07
3.73618e-07
2.65187e-06
3.40886e-06
4.26962e-06
3.534e-06
3.00264e-06
2.61672e-06
3.42729e-06
3.48941e-06
-1.71739e-06
1.28505e-05
4.84442e-06
4.15953e-06
-5.34297e-08
-7.81949e-08
2.74628e-06
-9.90152e-07
6.8515e-07
-2.28775e-06
-6.08123e-07
-5.86551e-06
3.84219e-06
-3.77325e-06
2.80643e-06
-4.80349e-07
2.56834e-06
1.90088e-06
6.98111e-07
-3.02196e-07
-6.84049e-07
-1.17092e-06
-8.57492e-07
-9.02809e-07
-5.99315e-07
-6.54612e-07
-5.43325e-07
-6.3696e-07
-6.74862e-07
-6.81346e-07
-7.37291e-07
-3.69916e-07
-1.12702e-07
1.48608e-06
2.43209e-06
2.86079e-06
2.95673e-06
2.48088e-06
7.38687e-07
1.63963e-06
1.57778e-06
-3.25666e-06
1.05145e-05
5.51047e-07
-1.71673e-06
-7.60267e-06
4.26064e-06
-2.76022e-06
4.70422e-07
-2.39787e-06
-8.61294e-07
-1.59891e-06
2.87541e-06
-2.41346e-06
1.18662e-06
-7.59262e-07
2.08595e-06
1.60673e-06
1.09891e-06
3.82751e-07
-3.8929e-07
-8.8621e-07
-1.01353e-06
-8.46567e-07
-8.50649e-07
-5.9952e-07
-7.58891e-07
-5.57178e-07
-8.12069e-07
-6.39128e-07
-8.69498e-07
-6.08349e-07
-5.33682e-07
2.5104e-07
1.34848e-06
2.72273e-06
3.23657e-06
3.51637e-06
3.01413e-06
2.88033e-06
2.88376e-06
2.82833e-06
1.88171e-07
8.91216e-06
4.5703e-06
3.94005e-06
1.01233e-06
-1.9427e-06
-5.39684e-07
-2.12303e-06
-1.85675e-06
-1.18703e-06
1.20006e-06
-1.7058e-07
-1.84433e-07
1.25565e-06
1.03574e-06
1.50498e-06
7.62516e-07
-6.82612e-08
-3.8446e-07
-9.40556e-07
-8.02427e-07
-9.72757e-07
-6.98313e-07
-8.35416e-07
-6.40449e-07
-7.7707e-07
-6.82553e-07
-8.28944e-07
-7.64311e-07
-8.28476e-07
-5.79514e-07
-2.61933e-07
7.95417e-07
1.79558e-06
2.32193e-06
3.42183e-06
2.45067e-06
1.72158e-06
1.19832e-06
1.51553e-06
-1.91509e-06
7.43855e-06
4.768e-07
-3.47718e-06
-8.1664e-06
-1.58083e-06
-1.32376e-06
-2.57783e-06
-9.07958e-07
-1.03624e-06
-7.93934e-07
7.02787e-08
1.14389e-06
1.62207e-07
1.5166e-06
7.11229e-07
2.99749e-07
3.7984e-08
-5.98098e-07
-7.37418e-07
-8.04404e-07
-7.75774e-07
-6.89095e-07
-8.05804e-07
-6.56243e-07
-8.39858e-07
-6.79504e-07
-9.21046e-07
-7.09034e-07
-8.96114e-07
-4.5921e-07
-2.62159e-07
8.67375e-07
1.60381e-06
2.72444e-06
2.98141e-06
3.33384e-06
3.18223e-06
3.4494e-06
3.0191e-06
1.42667e-06
7.79974e-06
5.1413e-06
4.28843e-06
1.25601e-06
-8.80082e-07
-2.08482e-06
-1.93501e-06
-9.60777e-07
-1.86904e-06
1.3355e-06
2.77122e-08
1.10528e-06
5.30375e-07
5.29321e-07
2.3895e-07
-1.78852e-07
-5.17113e-07
-5.73327e-07
-7.34846e-07
-6.03916e-07
-8.12969e-07
-6.93866e-07
-8.65606e-07
-7.19732e-07
-8.49768e-07
-7.59997e-07
-8.46177e-07
-7.4579e-07
-6.88433e-07
-3.62875e-07
2.14666e-07
9.50809e-07
1.54988e-06
2.52383e-06
2.60669e-06
1.55164e-06
1.78476e-06
1.05019e-06
-1.16235e-06
5.37986e-06
-4.81457e-07
-4.33788e-06
-9.54531e-06
-6.44584e-07
-2.53891e-06
-5.14507e-07
-1.5008e-06
1.16785e-06
6.91064e-07
6.84072e-07
6.28086e-07
4.37457e-07
2.65051e-07
1.30197e-07
-1.89285e-07
-3.63977e-07
-6.10869e-07
-4.84909e-07
-5.36567e-07
-6.73163e-07
-6.8322e-07
-8.32931e-07
-6.96683e-07
-8.76512e-07
-6.96981e-07
-8.93995e-07
-6.24977e-07
-7.0717e-07
-1.62765e-07
1.57153e-07
1.10762e-06
1.60446e-06
2.44903e-06
2.71671e-06
3.29669e-06
3.45837e-06
3.30867e-06
1.92401e-06
6.44034e-06
5.23265e-06
4.20569e-06
1.3923e-06
-1.66182e-06
-3.74936e-07
-1.73184e-06
2.01281e-06
1.80602e-07
3.66919e-07
1.02038e-06
3.76068e-07
4.2967e-07
2.69522e-07
6.12693e-08
-1.04116e-07
-3.85107e-07
-2.89688e-07
-3.90262e-07
-5.32166e-07
-5.46244e-07
-8.29026e-07
-7.31569e-07
-8.81664e-07
-7.1346e-07
-8.53363e-07
-6.7975e-07
-8.03823e-07
-5.59161e-07
-5.84702e-07
4.66483e-09
1.46889e-07
9.20624e-07
1.30815e-06
2.14617e-06
1.32751e-06
1.91892e-06
8.84867e-07
-4.01087e-07
2.92531e-06
-6.64943e-07
-5.57524e-06
-9.21533e-06
2.02105e-07
-1.65919e-06
1.43686e-06
2.89259e-07
9.13998e-08
9.3101e-08
-9.1051e-08
-7.63926e-08
-7.95e-07
-2.21043e-09
-3.23653e-07
-5.19597e-07
-7.00019e-07
-7.08836e-07
-8.10878e-07
-7.02875e-07
-7.84736e-07
-6.59852e-07
-6.78253e-07
-4.99102e-07
-3.17003e-07
4.68775e-08
5.43276e-07
1.00874e-06
1.69325e-06
2.10203e-06
2.95931e-06
3.18579e-06
3.52719e-06
1.87793e-06
5.52857e-06
5.16992e-06
3.94738e-06
1.51216e-06
1.30829e-07
1.28993e-07
-9.69404e-07
2.46182e-07
-2.90165e-07
-3.92928e-08
-4.73547e-07
-5.76207e-07
-8.2672e-07
-7.11466e-07
-8.5643e-07
-6.26347e-07
-8.05175e-07
-5.11705e-07
-7.56634e-07
-2.97438e-07
-5.30395e-07
1.84404e-07
-1.75745e-07
1.06238e-06
6.01972e-07
1.64189e-06
9.10789e-07
1.66723e-06
-1.40147e-06
1.95017e-06
-1.56853e-06
-5.64424e-06
-8.57333e-06
3.45206e-07
-9.13953e-07
2.77321e-07
1.87309e-08
-2.97015e-07
-5.04893e-07
-6.57262e-07
-7.49701e-07
-6.83386e-07
-6.91235e-07
-5.58967e-07
-5.73028e-07
-3.57823e-07
-2.99237e-07
4.16095e-08
2.41716e-07
6.70665e-07
1.08412e-06
1.55344e-06
2.32558e-06
2.77366e-06
3.22424e-06
1.82314e-06
4.7697e-06
5.29043e-06
3.81751e-06
1.64618e-06
4.79965e-07
4.55969e-09
-8.06315e-09
-1.86688e-07
-4.9026e-07
-6.06476e-07
-8.03697e-07
-6.79954e-07
-7.64502e-07
-5.24117e-07
-6.64739e-07
-3.76573e-07
-5.72544e-07
-1.73677e-07
-4.20714e-07
1.28626e-08
-7.70755e-08
5.13246e-07
3.44397e-07
1.00956e-06
5.8566e-07
-1.20635e-06
3.82804e-07
-1.84097e-06
-6.18614e-06
-7.77174e-06
9.09338e-08
-3.74801e-09
-9.56706e-08
-3.42153e-07
-6.0824e-07
-6.35351e-07
-7.35691e-07
-4.93628e-07
-5.84529e-07
-3.00891e-07
-3.77127e-07
-3.82825e-08
-8.48079e-08
3.15082e-07
3.01082e-07
8.64746e-07
9.29254e-07
1.847e-06
1.99968e-06
2.81029e-06
1.57495e-06
4.32028e-06
5.0284e-06
3.97954e-06
1.51804e-06
1.26002e-07
7.76714e-08
-5.96486e-08
-3.01119e-07
-5.61502e-07
-7.04563e-07
-7.05449e-07
-6.1235e-07
-5.54671e-07
-4.1935e-07
-4.24078e-07
-2.71314e-07
-3.41321e-07
-1.86708e-07
-3.82856e-07
-7.48238e-08
-3.13833e-07
1.69718e-07
-1.1223e-07
2.87742e-07
-1.74307e-06
-5.55591e-07
-2.11143e-06
-7.02083e-06
-7.09005e-06
2.22893e-07
-8.92288e-08
-2.11372e-07
-4.92367e-07
-6.69833e-07
-5.2596e-07
-5.51511e-07
-2.86422e-07
-3.67225e-07
-5.33664e-08
-1.36009e-07
1.86728e-07
8.05206e-08
4.09917e-07
4.09795e-07
7.97635e-07
1.11384e-06
1.57995e-06
1.97223e-06
1.5986e-06
3.60684e-06
4.73617e-06
3.81174e-06
1.43043e-06
1.89719e-07
-1.89544e-07
-5.07719e-07
-5.72391e-07
-6.28889e-07
-4.60058e-07
-4.57929e-07
-2.92264e-07
-2.99727e-07
-1.69212e-07
-2.3539e-07
-1.73282e-07
-3.4483e-07
-2.56204e-07
-5.05946e-07
-2.57685e-07
-6.34008e-07
-3.2897e-07
-2.00246e-06
-8.98188e-07
-2.75915e-06
-6.48646e-06
-7.49349e-06
3.07139e-08
-2.58019e-07
-3.77323e-07
-4.80434e-07
-4.59294e-07
-2.89248e-07
-2.97845e-07
-1.1231e-07
-9.79819e-08
9.49757e-08
9.09418e-08
2.19417e-07
2.22741e-07
3.62543e-07
4.97894e-07
7.7111e-07
1.09788e-06
1.37529e-06
1.52808e-06
3.00108e-06
4.11896e-06
3.54085e-06
1.24159e-06
-7.09068e-08
-2.96827e-07
-4.36099e-07
-3.35624e-07
-3.86338e-07
-2.20784e-07
-2.96188e-07
-8.0444e-08
-1.93371e-07
-2.14526e-08
-2.42959e-07
-1.31936e-07
-4.50939e-07
-3.36089e-07
-6.98491e-07
-5.47046e-07
-1.09426e-06
-1.36727e-06
-1.55217e-06
-2.31618e-06
-6.24442e-06
-7.21336e-06
-1.50976e-07
-2.92894e-07
-2.88027e-07
-1.74266e-07
-1.67923e-07
-1.41922e-07
-8.45141e-08
1.34291e-08
1.07741e-07
1.62819e-07
1.9501e-07
2.15483e-07
2.62898e-07
3.92137e-07
5.17178e-07
8.3298e-07
9.71827e-07
1.50499e-06
2.39035e-06
3.47282e-06
2.98079e-06
1.00265e-06
-1.72875e-07
-2.86651e-08
-1.88533e-07
-1.20193e-07
-2.18342e-07
-9.22855e-08
-1.33194e-07
1.91583e-08
-8.20011e-08
-7.04474e-09
-1.93896e-07
-1.96701e-07
-4.28627e-07
-4.74462e-07
-7.2523e-07
-8.84371e-07
-1.23333e-06
-1.26431e-06
-2.2147e-06
-5.03782e-06
-6.89358e-06
4.82261e-08
-5.24545e-07
7.42703e-08
-2.71972e-08
-7.14821e-08
-5.40489e-08
6.92249e-08
1.28176e-07
2.04973e-07
2.03008e-07
2.17874e-07
2.47452e-07
3.3206e-07
4.28786e-07
6.64468e-07
8.1865e-07
1.37651e-06
1.93851e-06
2.82008e-06
2.37702e-06
8.06939e-07
4.55856e-07
2.61494e-07
7.7897e-08
-4.76577e-08
-9.84496e-08
-4.57899e-09
1.38943e-08
7.47587e-08
1.12344e-08
4.21633e-09
-1.36728e-07
-1.87278e-07
-4.0377e-07
-4.436e-07
-7.75738e-07
-7.59334e-07
-1.11531e-06
-1.71461e-06
-3.79265e-06
-5.99998e-06
-3.34795e-07
4.4248e-07
3.20001e-07
4.08352e-08
2.0243e-08
6.99821e-08
1.88346e-07
2.0565e-07
2.558e-07
2.07541e-07
2.89308e-07
2.80926e-07
4.39793e-07
5.36524e-07
7.78379e-07
1.18423e-06
1.59697e-06
2.28647e-06
1.78782e-06
9.13021e-07
1.02275e-06
4.13197e-07
2.39852e-07
1.15398e-08
-1.98307e-08
2.46202e-08
9.67008e-08
1.15639e-07
1.24153e-07
8.0874e-08
3.879e-08
-7.34379e-08
-1.5317e-07
-2.89639e-07
-4.39864e-07
-4.97642e-07
-7.80463e-07
-1.18562e-06
-2.82259e-06
-4.37479e-06
8.82072e-07
1.68028e-07
6.57853e-08
1.70698e-08
1.32846e-07
1.65788e-07
2.66998e-07
2.20887e-07
2.71916e-07
2.39613e-07
3.22672e-07
3.69402e-07
4.98503e-07
6.86948e-07
9.90542e-07
1.34721e-06
1.78396e-06
1.36628e-06
1.4714e-06
2.43603e-07
1.71372e-07
-4.63532e-09
2.00567e-08
4.91785e-08
1.39298e-07
1.43386e-07
1.80607e-07
1.46058e-07
1.3566e-07
4.87029e-08
1.28434e-09
-1.16753e-07
-1.8713e-07
-2.73412e-07
-4.41823e-07
-7.9236e-07
-1.87472e-06
-2.98226e-06
7.41735e-07
-3.35921e-07
5.30085e-09
4.5493e-08
9.66698e-08
2.00254e-07
2.20697e-07
2.50331e-07
2.27695e-07
2.5188e-07
2.7051e-07
3.35905e-07
4.14185e-07
5.88359e-07
7.98383e-07
1.09842e-06
1.40253e-06
8.85078e-07
2.09586e-06
5.09803e-07
1.86071e-07
7.96252e-08
1.31292e-07
1.24845e-07
1.9251e-07
1.63527e-07
2.06761e-07
1.5127e-07
1.45058e-07
6.72934e-08
3.32463e-08
-3.98084e-08
-8.46628e-08
-1.84613e-07
-5.47209e-07
-1.05969e-06
-3.38258e-07
-2.3462e-07
1.80914e-07
3.04826e-07
1.87842e-07
2.15064e-07
2.18017e-07
2.27224e-07
2.06831e-07
2.12405e-07
2.29389e-07
2.67718e-07
3.36545e-07
4.5912e-07
6.21779e-07
8.39885e-07
1.0501e-06
1.23477e-06
-1.09622e-07
6.74759e-07
2.41308e-07
2.20125e-07
1.79293e-07
1.95329e-07
1.74685e-07
1.96566e-07
1.80097e-07
1.87677e-07
1.46811e-07
1.31672e-07
8.50159e-08
6.55765e-08
1.93835e-08
-3.17174e-08
-2.40762e-07
-1.39334e-06
1.12383e-06
5.84589e-07
2.03487e-07
2.10989e-07
2.13592e-07
2.2156e-07
1.97202e-07
1.86299e-07
1.6721e-07
1.85116e-07
1.99785e-07
2.54405e-07
3.30733e-07
4.51059e-07
5.97447e-07
5.71239e-07
1.34088e-06
-2.22955e-06
-7.83346e-08
1.70006e-07
2.09613e-07
2.07806e-07
1.90529e-07
1.73466e-07
1.74259e-07
1.65576e-07
1.53693e-07
1.3715e-07
1.19096e-07
9.96012e-08
7.16617e-08
1.79678e-08
-8.0721e-08
-1.59166e-06
2.67617e-06
4.75676e-07
4.89026e-08
1.87592e-07
2.23422e-07
1.92269e-07
1.81406e-07
1.42032e-07
1.39258e-07
1.4336e-07
1.52937e-07
1.79778e-07
2.20129e-07
2.96734e-07
3.70125e-07
2.46075e-07
1.33993e-06
3.66303e-07
2.09865e-07
1.89679e-07
1.6359e-07
1.35885e-07
1.442e-07
1.49717e-07
1.54708e-07
1.44922e-07
1.30038e-07
1.09744e-07
8.39429e-08
2.63733e-08
8.18795e-09
-1.04218e-06
-1.87592e-08
1.39208e-07
1.56921e-07
1.5209e-07
1.22985e-07
1.21127e-07
1.35116e-07
1.3427e-07
1.38401e-07
1.29844e-07
1.4109e-07
1.7362e-07
2.02524e-07
5.75818e-08
1.02416e-06
4.13439e-07
2.34422e-07
1.76099e-07
1.09412e-07
1.12045e-07
1.36028e-07
1.66035e-07
1.77214e-07
1.58162e-07
1.34296e-07
1.06315e-07
7.74114e-08
2.3657e-08
8.21923e-08
-8.62851e-07
-6.69986e-08
1.23451e-07
2.41699e-07
1.51888e-07
1.33067e-07
1.57287e-07
1.67405e-07
1.68158e-07
1.35361e-07
1.02381e-07
8.66766e-08
9.42529e-08
9.22969e-08
-8.3043e-08
8.70571e-07
3.9226e-07
3.79326e-07
1.51422e-07
1.35055e-07
1.39303e-07
1.74451e-07
2.09368e-07
1.85634e-07
1.53462e-07
1.10014e-07
8.69994e-08
5.75567e-08
5.64611e-09
1.54124e-07
-7.40127e-07
2.38918e-07
2.19159e-07
1.61399e-07
1.80244e-07
1.96007e-07
1.96822e-07
1.6311e-07
1.07291e-07
6.40245e-08
4.17919e-08
3.65577e-08
4.24884e-08
-2.02036e-07
8.12362e-07
3.28719e-07
1.45125e-07
1.41295e-07
1.4693e-07
2.00547e-07
1.76374e-07
1.41456e-07
9.11456e-08
5.92517e-08
4.96712e-08
4.21392e-08
-4.54633e-08
2.6933e-07
-3.71154e-07
3.08233e-07
1.01745e-07
1.16547e-07
1.87661e-07
1.14084e-07
1.13681e-07
9.04617e-08
4.27256e-08
1.81871e-08
1.39218e-08
-1.59541e-08
6.11652e-08
1.00533e-07
4.05737e-07
-1.50285e-07
3.9641e-08
1.25643e-07
-1.64732e-08
2.98903e-08
7.91076e-08
3.70594e-08
2.47769e-08
1.87028e-08
1.18487e-08
3.69489e-08
1.36671e-07
-1.05378e-07
-1.13514e-07
1.73875e-07
-2.61257e-08
-5.53327e-08
-6.09691e-08
3.09613e-08
-3.37477e-08
3.83201e-08
1.75118e-08
-2.42248e-09
4.00301e-09
2.60788e-08
-1.68991e-07
1.86616e-07
-1.27727e-07
8.84329e-08
-1.33405e-07
-4.18176e-08
-1.5906e-07
3.3059e-08
3.31958e-08
-2.3154e-09
3.81412e-09
-1.58954e-10
-3.34723e-08
1.6816e-07
-3.76177e-07
1.1239e-07
-2.33747e-07
-7.7065e-08
-2.11086e-07
-2.02955e-08
4.18227e-08
-3.80509e-10
1.32875e-08
-2.18581e-08
-1.62505e-09
3.24502e-08
-2.33684e-07
2.5154e-07
7.17009e-08
-1.67573e-07
-9.35227e-08
-8.90156e-09
-1.98723e-08
1.2978e-09
-5.49172e-08
-2.00874e-08
-3.61064e-08
-5.08584e-08
1.47872e-07
-1.99707e-07
-2.92202e-07
-1.02753e-07
-4.66801e-08
-3.34682e-08
-8.97128e-09
-5.33272e-08
-1.86107e-08
-7.47938e-08
-1.42118e-08
1.3291e-08
-1.68464e-07
1.67985e-07
1.16906e-07
-8.15115e-08
-6.58378e-08
-3.80683e-08
-2.94354e-08
-2.62287e-08
-6.97809e-08
-2.80447e-08
-7.26209e-08
-3.77512e-08
1.25812e-07
-1.22571e-07
4.80263e-08
-8.91999e-08
-8.15027e-10
-5.12437e-08
-5.92171e-10
-1.86209e-08
-3.75085e-08
7.08888e-08
2.00235e-08
-9.02135e-08
1.11672e-07
-2.13498e-07
-2.3024e-08
-6.1689e-08
3.16391e-08
4.96934e-09
2.12432e-08
1.15071e-07
-2.25178e-08
2.20772e-08
6.47533e-08
-8.901e-08
1.82096e-08
-2.57404e-08
1.04992e-08
2.18601e-08
3.17937e-08
9.07986e-08
5.45936e-09
7.89534e-08
-4.64556e-09
-1.26444e-07
2.24427e-08
-1.26653e-07
-1.43335e-08
8.42623e-09
1.99278e-08
4.48845e-08
3.02754e-08
6.06776e-08
3.52522e-10
-6.3305e-08
7.24159e-08
-5.20985e-08
5.30317e-08
-1.64778e-09
1.79742e-08
2.02052e-08
3.24075e-08
3.6382e-08
3.75886e-08
8.67191e-09
8.93289e-08
-5.48091e-08
9.54435e-08
-1.16599e-07
2.75624e-08
-2.25921e-09
3.45559e-08
1.12371e-08
4.07124e-08
1.97608e-08
5.587e-08
-1.46292e-10
1.08907e-07
1.55221e-07
-5.75252e-08
2.03645e-08
-1.0651e-08
2.6735e-08
9.77451e-09
1.98265e-08
5.65406e-08
1.42532e-08
2.19064e-08
9.58555e-08
-2.77132e-09
1.03848e-08
8.71586e-09
9.36073e-09
4.73841e-08
-9.26341e-09
6.54664e-08
-3.02115e-08
-4.4357e-08
-2.51573e-09
4.25803e-09
1.01497e-08
2.12338e-08
-3.98949e-09
6.45843e-08
-1.73695e-08
5.79904e-08
3.72765e-08
3.0331e-09
1.30812e-08
1.67724e-08
1.20517e-08
4.08165e-08
-1.12186e-08
3.73556e-08
-1.71545e-08
-4.36072e-08
3.86714e-09
7.44465e-09
1.27039e-08
1.83162e-08
-3.37378e-09
1.69809e-08
-9.52364e-09
1.8136e-08
2.75976e-08
1.17832e-09
1.21868e-08
1.12911e-08
9.28663e-09
8.84799e-09
7.05034e-09
6.83534e-09
1.23131e-08
-3.67148e-08
2.60576e-09
6.55192e-09
7.53232e-09
1.17122e-08
1.26283e-08
7.8415e-09
1.57325e-08
1.11423e-09
-5.33114e-10
1.19899e-09
9.52755e-09
5.62048e-09
4.84338e-09
1.75323e-08
6.21883e-09
-2.86292e-08
-3.56674e-09
6.62065e-09
2.98409e-10
2.05818e-09
2.25251e-08
1.96588e-10
2.41354e-08
-1.58785e-08
1.89884e-09
-9.65211e-10
1.82542e-08
-9.79615e-09
2.2924e-08
-1.30882e-08
2.73836e-08
1.58563e-09
5.93017e-09
-1.16172e-08
1.595e-08
-1.63957e-08
1.62916e-08
-1.27609e-08
7.41384e-10
-1.16079e-09
1.30634e-08
-6.51219e-09
1.08711e-08
-1.4604e-08
1.57998e-08
-1.3414e-10
4.53442e-09
-7.43423e-10
1.36777e-09
-8.45434e-09
-5.14673e-11
-2.17898e-08
-2.62446e-09
-1.66217e-09
7.77071e-10
5.59801e-10
-1.66698e-09
8.50917e-09
-2.15668e-09
1.86701e-09
2.34389e-09
-9.38684e-10
4.55767e-09
-2.04764e-08
-2.60434e-09
-2.62791e-09
-7.14972e-11
2.73281e-09
-2.82749e-10
5.98245e-09
-3.57816e-09
-4.36283e-10
-5.31839e-11
-1.33925e-09
2.83404e-09
-2.35483e-08
-1.57782e-10
-2.67516e-09
-2.16894e-09
1.51197e-09
-2.5461e-09
1.92058e-08
-1.01019e-08
-5.0107e-09
2.17286e-09
-4.13033e-09
4.13322e-09
7.112e-09
-1.60715e-11
-9.38633e-09
2.29116e-09
-1.14012e-08
-1.84448e-08
-1.34092e-08
-7.77341e-09
-1.53696e-08
-5.37808e-09
-3.44234e-09
-8.85636e-09
-9.77667e-09
-6.13045e-09
-9.27119e-09
-2.06134e-08
-6.74018e-09
-5.60353e-09
-6.76252e-09
-1.10327e-08
-8.17027e-09
-5.31359e-09
-6.17845e-09
-2.28154e-08
-6.62276e-09
-5.00278e-09
-5.61705e-09
)
;

boundaryField
{
    inlet
    {
        type            extrapolatedCalculated;
        value           nonuniform List<scalar> 4(-2.28154e-08 -6.62276e-09 -5.00278e-09 -5.61705e-09);
    }
    outlet
    {
        type            extrapolatedCalculated;
        value           nonuniform List<scalar> 0();
    }
    walls
    {
        type            extrapolatedCalculated;
        value           nonuniform List<scalar> 
42
(
6.67015e-06
-4.95231e-06
3.60681e-06
-2.93967e-06
2.25664e-06
5.43717e-07
3.12674e-06
1.70684e-06
7.46602e-07
-6.94023e-07
-8.91266e-07
-1.12662e-06
-7.01184e-07
-6.86365e-07
-4.14703e-07
-5.65637e-07
-4.13315e-07
-7.33674e-07
-4.04595e-07
-9.26731e-07
3.76121e-07
5.86138e-08
5.30882e-06
7.0381e-06
8.00253e-06
6.96374e-06
3.53081e-06
2.29162e-06
3.9189e-06
4.00719e-06
-6.25907e-06
2.08973e-05
3.20448e-06
2.48704e-07
-8.89079e-06
-5.17933e-06
5.71376e-06
1.36436e-07
1.23065e-06
1.06168e-06
-4.24821e-06
-1.7564e-06
)
;
    }
    frontAndBack
    {
        type            empty;
    }
    procBoundary5to0
    {
        type            processor;
        value           nonuniform List<scalar> 4(8.38874e-07 -1.08941e-06 2.32136e-08 -1.8427e-06);
    }
    procBoundary5to1
    {
        type            processor;
        value           nonuniform List<scalar> 
13
(
-6.49893e-06
-4.91182e-06
-4.91182e-06
-1.14207e-06
-1.47926e-06
-1.47926e-06
-2.83785e-07
-1.60418e-06
-1.60418e-06
3.61796e-07
-1.12712e-06
-2.64077e-06
-2.64077e-06
)
;
    }
    procBoundary5to4
    {
        type            processor;
        value           nonuniform List<scalar> 
95
(
1.5574e-06
7.16193e-07
8.66588e-07
8.66588e-07
3.2498e-07
2.42906e-07
2.42906e-07
2.79479e-07
-4.46271e-07
-4.46271e-07
-1.30062e-06
-1.30062e-06
-7.41121e-07
-7.41121e-07
-9.23569e-08
-9.21574e-08
-9.21574e-08
3.38199e-08
3.38199e-08
1.15039e-07
-7.02346e-09
-7.02346e-09
-5.46733e-08
-2.19012e-07
-2.19012e-07
-6.48805e-08
-6.4889e-07
-6.4889e-07
4.50704e-07
-2.54251e-07
1.38501e-07
1.38501e-07
6.99646e-07
9.56605e-08
-2.87544e-07
-2.87544e-07
4.60979e-07
-2.50125e-07
-1.66507e-07
-1.66507e-07
4.63232e-07
-1.90685e-07
-6.98539e-08
-6.98539e-08
2.60691e-07
-2.03472e-07
3.99488e-07
-1.34397e-07
2.68744e-07
2.68744e-07
1.73856e-07
5.83552e-09
2.51499e-07
-2.2849e-07
-2.02372e-07
-2.02372e-07
7.97131e-08
-2.28786e-07
1.56353e-07
-1.85626e-07
-2.22487e-07
-2.22487e-07
4.79631e-08
-1.64109e-07
5.10362e-08
-1.19771e-07
1.10139e-07
-1.18592e-07
-1.3918e-07
-1.3918e-07
5.02376e-08
-6.72704e-08
4.19976e-08
-5.48821e-08
2.74268e-08
-4.49856e-08
-4.35998e-09
1.34114e-08
1.34114e-08
-1.77202e-08
2.26984e-08
-2.65849e-08
1.65465e-08
-2.40849e-08
1.2707e-08
-2.41146e-08
1.7828e-08
-2.33625e-08
-2.79759e-08
-2.79759e-08
5.35032e-09
-2.15802e-08
1.84203e-09
-1.75037e-08
-9.63364e-09
)
;
    }
    procBoundary5to6
    {
        type            processor;
        value           nonuniform List<scalar> 
86
(
3.00774e-05
1.21357e-05
1.94073e-05
7.99531e-06
1.9933e-05
9.17768e-06
2.24071e-05
1.09347e-05
2.16794e-05
1.08923e-05
1.83094e-05
1.0185e-05
1.48628e-05
9.27431e-06
1.15749e-05
7.95586e-06
8.79318e-06
6.3064e-06
6.44697e-06
4.61182e-06
4.80021e-06
3.2948e-06
3.83351e-06
2.28021e-06
2.62665e-06
1.73206e-06
1.85066e-06
1.29987e-06
1.2642e-06
1.6394e-06
8.69632e-08
1.46409e-06
-1.48583e-07
-2.9448e-06
-2.9448e-06
1.63041e-06
-1.08026e-06
1.28758e-06
-9.44165e-07
1.0881e-06
-8.31254e-07
9.05789e-07
-4.20958e-07
3.48211e-07
-3.04775e-07
1.95568e-07
-3.00346e-07
-3.00346e-07
5.80862e-08
-4.12687e-08
6.04547e-08
1.63024e-08
-9.68224e-09
-1.1871e-08
-1.29183e-08
1.88877e-08
-3.80862e-08
-3.80862e-08
-2.47395e-08
4.12244e-08
-4.67395e-09
3.80031e-08
5.67207e-09
1.57423e-08
2.15385e-08
2.15385e-08
2.34287e-08
1.0175e-08
2.32177e-08
-1.55989e-08
7.3933e-09
-1.2481e-08
-6.63778e-09
-6.63778e-09
1.58254e-09
4.6074e-09
1.17968e-09
6.25619e-10
-4.05741e-09
-7.72212e-10
-2.19707e-08
-1.3146e-08
-1.18592e-08
-1.18592e-08
-9.87378e-09
-1.10544e-08
)
;
    }
}


// ************************************************************************* //
