# p  FACE_DATA 600
# x y z  p
0.29893883 -0.05 -0.060006728 21783.014
0.29682219 -0.05 -0.060005155 21780.221
0.29471691 -0.05 -0.060001576 21778.846
0.29262294 -0.05 -0.05999591 21777.595
0.29054021 -0.05 -0.059988277 21776.002
0.28846868 -0.05 -0.059978645 21775.597
0.28640827 -0.05 -0.059967019 21774.615
0.28435895 -0.05 -0.059953476 21774.331
0.28232063 -0.05 -0.05993795 21774.32
0.28029328 -0.05 -0.059920485 21774.265
0.27827682 -0.05 -0.059901123 21774.339
0.27627121 -0.05 -0.059879855 21774.856
0.27427639 -0.05 -0.05985667 21775.727
0.2722923 -0.05 -0.059831621 21776.512
0.27031889 -0.05 -0.059804697 21778.097
0.26835611 -0.05 -0.05977592 21779.241
0.26640388 -0.05 -0.059745343 21780.741
0.26446217 -0.05 -0.059712935 21782.53
0.26253092 -0.05 -0.059678711 21784.523
0.26061007 -0.05 -0.059642689 21786.862
0.25869958 -0.05 -0.059604861 21789.558
0.25679938 -0.05 -0.059565286 21792.021
0.25490942 -0.05 -0.05952394 21795.524
0.25302965 -0.05 -0.059480842 21798.4
0.25116001 -0.05 -0.059436049 21801.754
0.24930047 -0.05 -0.059389521 21805.4
0.24745095 -0.05 -0.059341283 21809.307
0.24561141 -0.05 -0.059291325 21813.87
0.24378182 -0.05 -0.05923967 21818.343
0.24196209 -0.05 -0.059186367 21822.945
0.24015219 -0.05 -0.059131421 21827.716
0.23835206 -0.05 -0.059074821 21832.814
0.23656166 -0.05 -0.059016618 21837.653
0.23478094 -0.05 -0.058956769 21843.951
0.23300984 -0.05 -0.05889526 21849.585
0.23124831 -0.05 -0.05883224 21854.822
0.22949632 -0.05 -0.058767617 21861.775
0.22775381 -0.05 -0.058701363 21868.297
0.22602072 -0.05 -0.058633589 21874.872
0.22429701 -0.05 -0.058564274 21881.686
0.22258262 -0.05 -0.058493448 21888.391
0.22087752 -0.05 -0.058421069 21896.5
0.21918166 -0.05 -0.058347133 21904.147
0.21749499 -0.05 -0.058271732 21911.851
0.21581745 -0.05 -0.058194856 21919.759
0.21414901 -0.05 -0.058116493 21928.101
0.21248962 -0.05 -0.058036649 21936.667
0.21083923 -0.05 -0.057955337 21945.595
0.20919779 -0.05 -0.057872577 21954.489
0.20756526 -0.05 -0.057788393 21963.719
0.20594158 -0.05 -0.057702763 21973.501
0.20432674 -0.05 -0.057615707 21983.15
0.20272065 -0.05 -0.057527278 21992.691
0.20112329 -0.05 -0.057437457 22002.882
0.19953461 -0.05 -0.05734625 22013.283
0.19795458 -0.05 -0.057253621 22024.726
0.19638314 -0.05 -0.057159665 22034.674
0.19482023 -0.05 -0.05706438 22046.356
0.19326583 -0.05 -0.056967732 22057.235
0.19171991 -0.05 -0.05686975 22069.142
0.19018239 -0.05 -0.056770463 22080.098
0.18865324 -0.05 -0.056669846 22092.902
0.18713243 -0.05 -0.056567899 22104.647
0.18561991 -0.05 -0.056464666 22117.758
0.18411564 -0.05 -0.056360132 22130.351
0.18261956 -0.05 -0.056254317 22143.851
0.18113166 -0.05 -0.056147258 22156.148
0.17965186 -0.05 -0.056038987 22169.511
0.17818015 -0.05 -0.05592942 22183.473
0.17671648 -0.05 -0.055818588 22197.403
0.1752608 -0.05 -0.05570656 22211.05
0.17381308 -0.05 -0.055593324 22225.519
0.17237329 -0.05 -0.055478844 22240.143
0.17094135 -0.05 -0.055363199 22254.323
0.16951726 -0.05 -0.055246341 22270.129
0.16810096 -0.05 -0.055128258 22285.155
0.16669242 -0.05 -0.05500905 22300.341
0.16529159 -0.05 -0.054888659 22316.488
0.16389844 -0.05 -0.054767078 22332.536
0.16251293 -0.05 -0.054644372 22348.386
0.16113501 -0.05 -0.054520532 22364.68
0.15976465 -0.05 -0.054395554 22380.957
0.15840181 -0.05 -0.054269449 22398.024
0.15704647 -0.05 -0.054142171 22415.841
0.15569856 -0.05 -0.05401378 22432.835
0.15435807 -0.05 -0.053884336 22449.918
0.15302494 -0.05 -0.053753791 22467.421
0.15169915 -0.05 -0.053622161 22485.022
0.15038066 -0.05 -0.053489407 22504.043
0.14906942 -0.05 -0.053355551 22522.277
0.1477654 -0.05 -0.053220679 22540.825
0.14646858 -0.05 -0.053084715 22560.479
0.1451789 -0.05 -0.052947683 22579.302
0.14389634 -0.05 -0.052809659 22598.199
0.14262085 -0.05 -0.05267058 22618.198
0.14135242 -0.05 -0.052530426 22638.478
0.14009099 -0.05 -0.052389231 22658.937
0.13883653 -0.05 -0.052247037 22679.038
0.137589 -0.05 -0.052103837 22699.786
0.13634838 -0.05 -0.051959625 22720.022
0.13511461 -0.05 -0.051814476 22740.45
0.1338877 -0.05 -0.051668228 22763.829
0.13266759 -0.05 -0.051520967 22783.816
0.13145422 -0.05 -0.051372868 22804.658
0.13024759 -0.05 -0.051223701 22827.909
0.12904768 -0.05 -0.051073498 22849.91
0.12785442 -0.05 -0.050922382 22872.102
0.12666779 -0.05 -0.050770304 22895.003
0.12548777 -0.05 -0.050617245 22918.526
0.12431431 -0.05 -0.050463216 22941.672
0.12314738 -0.05 -0.050308326 22963.558
0.12198694 -0.05 -0.050152493 22988.226
0.12083298 -0.05 -0.049995623 23012.773
0.11968546 -0.05 -0.049837846 23036.667
0.11854435 -0.05 -0.049679177 23061.016
0.11740961 -0.05 -0.049519574 23085.86
0.11628121 -0.05 -0.049359037 23111.112
0.11515913 -0.05 -0.049197589 23136.407
0.11404333 -0.05 -0.049035234 23162.012
0.11293377 -0.05 -0.048871989 23187.351
0.11183042 -0.05 -0.048707847 23213.118
0.11073327 -0.05 -0.048542821 23238.711
0.10964229 -0.05 -0.048376866 23265.953
0.10855744 -0.05 -0.048209982 23292.536
0.10747868 -0.05 -0.048042235 23319.549
0.106406 -0.05 -0.04787359 23347.135
0.10533935 -0.05 -0.047704062 23374.942
0.10427873 -0.05 -0.047533647 23403.209
0.10322407 -0.05 -0.047362394 23430.342
0.10217536 -0.05 -0.04719032 23458.404
0.10113259 -0.05 -0.047017348 23487.639
0.10009572 -0.05 -0.046843455 23517.707
0.099064719 -0.05 -0.046668685 23547.005
0.098039551 -0.05 -0.046493118 23575.48
0.097020189 -0.05 -0.046316733 23604.859
0.096006622 -0.05 -0.046139442 23635.761
0.094998822 -0.05 -0.045961241 23666.671
0.09399675 -0.05 -0.045782217 23696.877
0.093000378 -0.05 -0.045602371 23727.792
0.092009685 -0.05 -0.045421665 23758.959
0.091024643 -0.05 -0.045240119 23790.483
0.090045231 -0.05 -0.045057701 23823.111
0.089071419 -0.05 -0.044874427 23855.123
0.088103174 -0.05 -0.044690349 23887.3
0.087140475 -0.05 -0.044505439 23919.953
0.086183302 -0.05 -0.044319662 23953.44
0.08523163 -0.05 -0.044133032 23986.812
0.084285425 -0.05 -0.043945577 24020.371
0.083344663 -0.05 -0.043757308 24054.158
0.082409325 -0.05 -0.043568191 24089.267
0.081479395 -0.05 -0.04337819 24124.589
0.080554831 -0.05 -0.043187382 24158.902
0.079635606 -0.05 -0.042995792 24194.005
0.078721718 -0.05 -0.042803304 24230.699
0.077813136 -0.05 -0.042609969 24266.279
0.076909826 -0.05 -0.042415818 24303.363
0.07601178 -0.05 -0.042220793 24340.642
0.075118966 -0.05 -0.042024932 24378.072
0.074231361 -0.05 -0.041828237 24415.464
0.073348935 -0.05 -0.04163074 24452.796
0.07247168 -0.05 -0.041432371 24491.901
0.071599572 -0.05 -0.041233139 24530.138
0.070732584 -0.05 -0.041033074 24569.539
0.069870697 -0.05 -0.040832148 24608.607
0.069013884 -0.05 -0.040630397 24648.34
0.068162134 -0.05 -0.040427777 24688.813
0.067315419 -0.05 -0.040224307 24729.283
0.06647372 -0.05 -0.040019973 24771.131
0.065637027 -0.05 -0.039814748 24813.336
0.06480531 -0.05 -0.039608654 24855.892
0.063978543 -0.05 -0.039401719 24897.932
0.063156706 -0.05 -0.039193946 24940.554
0.062339788 -0.05 -0.038985285 24983.761
0.061527775 -0.05 -0.038775725 25027.725
0.060720649 -0.05 -0.038565255 25072.412
0.059918385 -0.05 -0.038353894 25117.373
0.059120963 -0.05 -0.03814165 25162.935
0.058328367 -0.05 -0.037928504 25208.931
0.057540574 -0.05 -0.037714473 25254.658
0.056757564 -0.05 -0.037499568 25300.841
0.055979326 -0.05 -0.037283751 25348.289
0.055205861 -0.05 -0.03706696 25397.353
0.054437143 -0.05 -0.036849222 25446.086
0.053673142 -0.05 -0.036630582 25495.09
0.052913841 -0.05 -0.036411033 25544.135
0.052159229 -0.05 -0.036190552 25594.487
0.051409301 -0.05 -0.035969101 25645.846
0.050664044 -0.05 -0.035746666 25697.637
0.049923426 -0.05 -0.035523297 25749.027
0.049187444 -0.05 -0.035298949 25802.348
0.048456093 -0.05 -0.035073588 25855.282
0.047729343 -0.05 -0.034847258 25908.746
0.047007184 -0.05 -0.034619944 25962.813
0.046289611 -0.05 -0.034391604 26018.344
0.045576607 -0.05 -0.034162251 26073.758
0.044868158 -0.05 -0.033931882 26130.504
0.044164259 -0.05 -0.033700464 26187.406
0.043464894 -0.05 -0.033468005 26245.15
0.042770054 -0.05 -0.033234488 26303.399
0.042079734 -0.05 -0.032999885 26363.149
0.041393929 -0.05 -0.032764174 26423.568
0.040712625 -0.05 -0.032527361 26484.554
0.040035798 -0.05 -0.032289471 26545.332
0.039363443 -0.05 -0.032050489 26607.44
0.038695563 -0.05 -0.031810365 26670.909
0.038032168 -0.05 -0.031569045 26736.052
0.037373226 -0.05 -0.031326581 26800.544
0.036718733 -0.05 -0.03108296 26866.683
0.036068678 -0.05 -0.030838173 26932.236
0.035423063 -0.05 -0.030592193 27000.969
0.034781926 -0.05 -0.030344894 27070.678
0.034145213 -0.05 -0.030096392 27139.526
0.033512917 -0.05 -0.029846677 27210.353
0.032885063 -0.05 -0.029595666 27282.223
0.032261651 -0.05 -0.029343341 27355.816
0.031642676 -0.05 -0.029089692 27429.569
0.031028119 -0.05 -0.028834753 27503.751
0.030417981 -0.05 -0.028578493 27579.59
0.029812303 -0.05 -0.028320809 27657.922
0.029211079 -0.05 -0.028061701 27736.264
0.028614285 -0.05 -0.027801211 27815.195
0.028021925 -0.05 -0.027539318 27895.117
0.027434034 -0.05 -0.027275938 27977.457
0.02685062 -0.05 -0.027011044 28059.968
0.026271654 -0.05 -0.026744689 28143.553
0.025697179 -0.05 -0.02647678 28229.511
0.025127212 -0.05 -0.026207275 28315.936
0.024561729 -0.05 -0.025936225 28403.029
0.024000753 -0.05 -0.025663583 28492.279
0.023444337 -0.05 -0.025389243 28583.408
0.022892447 -0.05 -0.025113275 28674.919
0.022345135 -0.05 -0.024835581 28770.653
0.02180243 -0.05 -0.024556113 28866.062
0.021264293 -0.05 -0.024274957 28963.76
0.020730799 -0.05 -0.023991978 29064.377
0.020201992 -0.05 -0.023707109 29166.61
0.019677841 -0.05 -0.023420417 29269.34
0.019158403 -0.05 -0.023131824 29375.386
0.018643727 -0.05 -0.022841258 29482.429
0.018133826 -0.05 -0.022548716 29591.694
0.017628739 -0.05 -0.022254151 29701.747
0.017128472 -0.05 -0.021957583 29813.756
0.016633127 -0.05 -0.021658866 29929.166
0.016142724 -0.05 -0.021358 30044.733
0.015657283 -0.05 -0.021054987 30162.957
0.015176888 -0.05 -0.020749728 30282.61
0.014701579 -0.05 -0.020442197 30404.28
0.014231398 -0.05 -0.020132368 30527.476
0.013766434 -0.05 -0.019820157 30653.649
0.013306742 -0.05 -0.019505528 30780.837
0.012852374 -0.05 -0.019188457 30910.881
0.012403438 -0.05 -0.018868841 31042.863
0.01195997 -0.05 -0.018546687 31176.518
0.011522076 -0.05 -0.018221915 31312.646
0.011089809 -0.05 -0.017894515 31449.934
0.0106633 -0.05 -0.017564386 31590.77
0.010242659 -0.05 -0.017231451 31731.989
0.009827894 -0.05 -0.016895788 31874.543
0.0094192167 -0.05 -0.016557218 32020.084
0.0090167438 -0.05 -0.016215673 32165.986
0.0086204858 -0.05 -0.015871238 32314.041
0.0082306648 -0.05 -0.015523765 32465.029
0.0078474301 -0.05 -0.015173186 32616.53
0.00747084 -0.05 -0.014819531 32768.814
0.0071010571 -0.05 -0.014462741 32922.031
0.0067383047 -0.05 -0.014102728 33076.857
0.0063827544 -0.05 -0.013739427 33232.393
0.0060345067 -0.05 -0.013372862 33387.755
0.0056937565 -0.05 -0.013003011 33542.874
0.0053606882 -0.05 -0.012629837 33696.985
0.0050354824 -0.05 -0.012253323 33849.97
0.0047183926 -0.05 -0.01187344 34001.547
0.0044096379 -0.05 -0.011490161 34150.996
0.0041094132 -0.05 -0.011103483 34297.612
0.0038179536 -0.05 -0.010713443 34440.661
0.0035354728 -0.05 -0.01032007 34579.218
0.0032621919 -0.05 -0.0099233916 34712.545
0.0029983702 -0.05 -0.0095234712 34839.796
0.0027442429 -0.05 -0.0091203468 34960.064
0.0025000604 -0.05 -0.0087141009 35072.376
0.0022660754 -0.05 -0.0083048554 35175.761
0.0020425146 -0.05 -0.0078926699 35268.982
0.0018296563 -0.05 -0.0074776735 35350.043
0.0016277487 -0.05 -0.0070600556 35417.148
0.0014369745 -0.05 -0.006639968 35471.289
0.0012575291 -0.05 -0.0062175973 35512.873
0.0010896146 -0.05 -0.0057931737 35538.517
0.00093341057 -0.05 -0.0053669215 35546.884
0.00078906403 -0.05 -0.0049390744 35538.099
0.00065670868 -0.05 -0.0045099017 35510.951
0.00053653171 -0.05 -0.0040796665 35466.546
0.00042862038 -0.05 -0.003648665 35405.391
0.00033294635 -0.05 -0.003217232 35323.102
0.00024951873 -0.05 -0.002785685 35219.547
0.00017832255 -0.05 -0.0023543467 35096.172
0.00011930806 -0.05 -0.0019235435 34952.813
7.2389968e-05 -0.05 -0.0014936046 34789.399
3.7448893e-05 -0.05 -0.0010648563 34606.66
1.4332163e-05 -0.05 -0.0006376208 34406.179
2.8544133e-06 -0.05 -0.00021221054 34188.147
0.99884037 -0.05 -0.00016828408 26528.814
0.99652103 -0.05 -0.00050440213 26470.804
0.99420154 -0.05 -0.00083952039 26399.182
0.99188191 -0.05 -0.0011736208 26339.636
0.98956214 -0.05 -0.0015067636 26281.307
0.98724224 -0.05 -0.001838948 26226.74
0.9849222 -0.05 -0.0021701637 26174.309
0.98260201 -0.05 -0.0025004302 26123.915
0.9802817 -0.05 -0.0028297328 26075.469
0.97796124 -0.05 -0.0031580577 26028.544
0.97564065 -0.05 -0.0034854377 25983.121
0.97331994 -0.05 -0.0038118591 25939.077
0.97099908 -0.05 -0.0041373159 25896.33
0.96867808 -0.05 -0.0044618578 25854.581
0.96635697 -0.05 -0.0047854478 25814.226
0.96403572 -0.05 -0.0051081172 25774.444
0.96171435 -0.05 -0.0054299032 25735.872
0.95939284 -0.05 -0.0057507069 25698.347
0.95707121 -0.05 -0.0060705875 25661.47
0.95474946 -0.05 -0.0063895914 25625.477
0.95242757 -0.05 -0.0067076389 25590.523
0.95010556 -0.05 -0.0070248024 25555.784
0.94778343 -0.05 -0.0073411104 25522.066
0.94546118 -0.05 -0.0076564368 25489.266
0.9431388 -0.05 -0.0079708659 25456.749
0.94081631 -0.05 -0.0082844406 25425.01
0.93849369 -0.05 -0.0085971026 25393.944
0.93617096 -0.05 -0.0089088655 25363.431
0.93384811 -0.05 -0.0092197818 25333.236
0.93152514 -0.05 -0.0095298292 25303.804
0.92920204 -0.05 -0.00983897 25274.849
0.92687884 -0.05 -0.010147248 25246.34
0.92455553 -0.05 -0.01045465 25218.379
0.92223209 -0.05 -0.01076119 25190.726
0.91990855 -0.05 -0.011066875 25163.694
0.91758488 -0.05 -0.011371653 25137.256
0.91526111 -0.05 -0.011675608 25110.701
0.91293723 -0.05 -0.011978761 25084.813
0.91061324 -0.05 -0.012281 25059.557
0.90828913 -0.05 -0.012582372 25034.388
0.90596492 -0.05 -0.012882964 25009.414
0.90364059 -0.05 -0.013182677 24985.426
0.90131615 -0.05 -0.013481494 24961.415
0.89899162 -0.05 -0.013779572 24937.238
0.89666698 -0.05 -0.014076841 24913.957
0.89434223 -0.05 -0.014373142 24891.365
0.89201737 -0.05 -0.01466868 24867.942
0.88969241 -0.05 -0.014963453 24845.706
0.88736734 -0.05 -0.0152573 24823.673
0.88504217 -0.05 -0.015550344 24801.621
0.88271689 -0.05 -0.015842646 24779.625
0.88039152 -0.05 -0.016134071 24758.702
0.87806604 -0.05 -0.016424635 24737.419
0.87574046 -0.05 -0.016714466 24716.4
0.87341478 -0.05 -0.017003468 24695.842
0.871089 -0.05 -0.017291665 24675.248
0.86876312 -0.05 -0.017579058 24655.151
0.86643714 -0.05 -0.017865646 24634.988
0.86411107 -0.05 -0.018151445 24615.306
0.86178489 -0.05 -0.018436407 24595.802
0.85945862 -0.05 -0.018720606 24576.151
0.85713225 -0.05 -0.019004019 24557.109
0.85480578 -0.05 -0.019286574 24538.387
0.85247922 -0.05 -0.019568356 24519.418
0.85015256 -0.05 -0.019849417 24500.588
0.84782581 -0.05 -0.020129657 24482.375
0.84549896 -0.05 -0.020409081 24463.977
0.84317202 -0.05 -0.020687756 24445.71
0.84084499 -0.05 -0.020965643 24427.819
0.83851785 -0.05 -0.021242672 24410.495
0.83619063 -0.05 -0.021518954 24392.484
0.83386332 -0.05 -0.021794529 24374.986
0.83153592 -0.05 -0.022069294 24357.668
0.82920841 -0.05 -0.022343258 24340.56
0.82688083 -0.05 -0.02261648 24323.16
0.82455315 -0.05 -0.022888925 24306.402
0.82222538 -0.05 -0.023160547 24289.708
0.81989751 -0.05 -0.023431389 24273.216
0.81756957 -0.05 -0.023701495 24256.494
0.81524153 -0.05 -0.023970846 24240.2
0.8129134 -0.05 -0.024239417 24223.813
0.81058518 -0.05 -0.02450723 24207.668
0.80825687 -0.05 -0.024774259 24191.659
0.80592849 -0.05 -0.02504053 24175.67
0.8036 -0.05 -0.025306023 24159.956
0.80127144 -0.05 -0.025570775 24143.902
0.79894279 -0.05 -0.025834763 24128.506
0.79661404 -0.05 -0.026097924 24113.089
0.79428522 -0.05 -0.026360374 24097.379
0.79195631 -0.05 -0.026622048 24082.419
0.78962731 -0.05 -0.026882938 24066.998
0.78729823 -0.05 -0.027143126 24051.79
0.78496906 -0.05 -0.027402516 24036.889
0.78263981 -0.05 -0.02766117 24021.497
0.78031048 -0.05 -0.027919081 24006.79
0.77798106 -0.05 -0.028176144 23992.261
0.77565155 -0.05 -0.028432494 23977.144
0.77332196 -0.05 -0.028688107 23962.733
0.77099228 -0.05 -0.028942907 23948.194
0.76866253 -0.05 -0.029196968 23933.635
0.7663327 -0.05 -0.029450285 23919.15
0.76400278 -0.05 -0.029702803 23905.048
0.76167277 -0.05 -0.029954568 23890.575
0.75934268 -0.05 -0.030205572 23876.677
0.75701251 -0.05 -0.030455803 23862.391
0.75468227 -0.05 -0.030705313 23848.256
0.75235194 -0.05 -0.030954045 23834.245
0.75002152 -0.05 -0.031202018 23820.179
0.74769103 -0.05 -0.031449207 23806.478
0.74536045 -0.05 -0.031695625 23792.519
0.74302979 -0.05 -0.031941289 23778.804
0.74069906 -0.05 -0.032186181 23765.008
0.73836824 -0.05 -0.032430305 23751.472
0.73603734 -0.05 -0.032673645 23737.956
0.73370637 -0.05 -0.032916233 23724.248
0.73137531 -0.05 -0.033158092 23710.508
0.72904417 -0.05 -0.033399148 23697.363
0.72671295 -0.05 -0.033639378 23684.092
0.72438166 -0.05 -0.03387888 23670.425
0.72205028 -0.05 -0.034117645 23657.081
0.71971882 -0.05 -0.034355552 23644.29
0.71738728 -0.05 -0.034592685 23630.744
0.71505567 -0.05 -0.034829099 23617.612
0.71272397 -0.05 -0.035064674 23604.735
0.71039219 -0.05 -0.035299486 23591.368
0.70806035 -0.05 -0.035533544 23578.471
0.70572841 -0.05 -0.035766778 23565.531
0.70339641 -0.05 -0.035999269 23552.256
0.70106432 -0.05 -0.03623098 23539.339
0.69873216 -0.05 -0.036461891 23526.2
0.69639992 -0.05 -0.036691978 23513.563
0.69406759 -0.05 -0.036921269 23500.489
0.69173519 -0.05 -0.037149739 23488.266
0.68940271 -0.05 -0.037377398 23475.278
0.68707015 -0.05 -0.037604327 23462.371
0.68473751 -0.05 -0.037830471 23449.417
0.68240481 -0.05 -0.038055756 23437.115
0.68007201 -0.05 -0.038280206 23424.405
0.67773914 -0.05 -0.038503859 23412.007
0.67540619 -0.05 -0.03872673 23399.093
0.67307317 -0.05 -0.038948784 23386.77
0.67074007 -0.05 -0.039170028 23373.778
0.66840689 -0.05 -0.039390456 23361.504
0.66607364 -0.05 -0.039610024 23348.882
0.6637403 -0.05 -0.039828774 23336.597
0.66140688 -0.05 -0.040046678 23324.129
0.65907339 -0.05 -0.040263799 23311.376
0.65673983 -0.05 -0.040480085 23299.118
0.65440619 -0.05 -0.040695489 23286.795
0.65207246 -0.05 -0.040910082 23274.232
0.64973866 -0.05 -0.041123838 23261.92
0.64740479 -0.05 -0.04133674 23249.437
0.64507083 -0.05 -0.041548788 23237.258
0.6427368 -0.05 -0.04175995 23225.105
0.64040268 -0.05 -0.041970278 23212.667
0.6380685 -0.05 -0.042179754 23200.518
0.63573424 -0.05 -0.042388356 23188.189
0.63339989 -0.05 -0.042596094 23176.045
0.63106547 -0.05 -0.042802945 23163.849
0.62873098 -0.05 -0.043008941 23151.492
0.6263964 -0.05 -0.043214055 23139.426
0.62406175 -0.05 -0.043418269 23127.29
0.62172701 -0.05 -0.043621601 23115.116
0.61939221 -0.05 -0.043824069 23102.698
0.61705733 -0.05 -0.044025645 23090.665
0.61472237 -0.05 -0.044226271 23078.802
0.61238733 -0.05 -0.044426006 23066.49
0.61005222 -0.05 -0.04462488 23054.189
0.60771702 -0.05 -0.044822825 23042.202
0.60538174 -0.05 -0.045019806 23030.408
0.6030464 -0.05 -0.045215861 23018.4
0.60071097 -0.05 -0.045411024 23006.329
0.59837546 -0.05 -0.045605254 22994.442
0.59603988 -0.05 -0.045798556 22982.235
0.59370422 -0.05 -0.045990938 22970.15
0.59136849 -0.05 -0.046182352 22958.226
0.58903267 -0.05 -0.046372791 22946.4
0.58669678 -0.05 -0.046562266 22934.466
0.5843608 -0.05 -0.046750814 22922.265
0.58202475 -0.05 -0.046938396 22910.498
0.57968862 -0.05 -0.047124972 22898.702
0.57735242 -0.05 -0.047310578 22886.714
0.57501614 -0.05 -0.04749525 22874.426
0.57267978 -0.05 -0.047678924 22862.775
0.57034334 -0.05 -0.04786155 22851.093
0.56800682 -0.05 -0.048043188 22839.208
0.56567024 -0.05 -0.048223861 22827.083
0.56333356 -0.05 -0.048403536 22815.255
0.56099681 -0.05 -0.048582153 22803.702
0.55865998 -0.05 -0.04875972 22792.004
0.55632308 -0.05 -0.048936314 22779.776
0.55398609 -0.05 -0.049111879 22768.161
0.55164903 -0.05 -0.049286359 22756.344
0.54931189 -0.05 -0.049459794 22744.634
0.54697467 -0.05 -0.049632163 22732.992
0.54463737 -0.05 -0.049803468 22721.332
0.5423 -0.05 -0.049973718 22709.553
0.53996254 -0.05 -0.050142913 22697.733
0.53762502 -0.05 -0.050311035 22685.976
0.53528741 -0.05 -0.050478054 22674.427
0.53294972 -0.05 -0.050643972 22662.678
0.53061196 -0.05 -0.050808824 22650.76
0.52827412 -0.05 -0.050972558 22639.233
0.5259362 -0.05 -0.051135143 22627.638
0.5235982 -0.05 -0.051296612 22616.066
0.52126012 -0.05 -0.051456922 22604.744
0.51892198 -0.05 -0.051616121 22592.851
0.51658374 -0.05 -0.051774162 22581.751
0.51424543 -0.05 -0.051931037 22569.872
0.51190704 -0.05 -0.05208678 22558.513
0.50956857 -0.05 -0.052241321 22547.125
0.50723003 -0.05 -0.052394685 22535.691
0.50489141 -0.05 -0.052546885 22524.048
0.50255271 -0.05 -0.05269791 22512.54
0.50021394 -0.05 -0.052847701 22501.333
0.49787509 -0.05 -0.052996281 22489.795
0.49553616 -0.05 -0.053143654 22478.453
0.49319715 -0.05 -0.053289801 22466.929
0.49085807 -0.05 -0.053434697 22455.842
0.48851891 -0.05 -0.05357832 22444.71
0.48617967 -0.05 -0.053720679 22433.718
0.48384035 -0.05 -0.053861795 22422.311
0.48150097 -0.05 -0.054001669 22411.064
0.4791615 -0.05 -0.054140241 22399.975
0.47682195 -0.05 -0.054277501 22388.972
0.47448234 -0.05 -0.054413462 22377.925
0.47214264 -0.05 -0.054548109 22367
0.46980287 -0.05 -0.054681459 22355.689
0.46746302 -0.05 -0.054813494 22344.681
0.4651231 -0.05 -0.054944178 22333.581
0.46278311 -0.05 -0.055073496 22322.796
0.46044304 -0.05 -0.055201437 22311.926
0.45810288 -0.05 -0.055328007 22301.192
0.45576266 -0.05 -0.055453195 22290.404
0.45342237 -0.05 -0.055576996 22279.756
0.451082 -0.05 -0.05569938 22269.213
0.44874156 -0.05 -0.055820362 22258.418
0.44640104 -0.05 -0.055939944 22247.823
0.44406046 -0.05 -0.056058045 22237.666
0.44171979 -0.05 -0.056174717 22226.714
0.43937906 -0.05 -0.05628996 22216.4
0.43703826 -0.05 -0.056403696 22205.973
0.43469738 -0.05 -0.056515954 22195.72
0.43235643 -0.05 -0.056626691 22185.725
0.43001541 -0.05 -0.056735938 22175.252
0.42767432 -0.05 -0.056843696 22165.033
0.42533316 -0.05 -0.056949929 22154.761
0.42299193 -0.05 -0.057054582 22145.191
0.42065064 -0.05 -0.05715767 22135.035
0.41830927 -0.05 -0.057259223 22125.202
0.41596783 -0.05 -0.057359191 22115.316
0.41362634 -0.05 -0.057457551 22105.873
0.41128476 -0.05 -0.057554292 22096.233
0.40894313 -0.05 -0.057649427 22086.652
0.40660142 -0.05 -0.057742965 22076.778
0.40425966 -0.05 -0.057834838 22067.716
0.40191783 -0.05 -0.057925023 22058.255
0.39957593 -0.05 -0.058013541 22049.178
0.39723398 -0.05 -0.058100379 22039.739
0.39489196 -0.05 -0.058185525 22030.823
0.39254988 -0.05 -0.058268918 22022.015
0.39020774 -0.05 -0.05835059 22013.013
0.38786553 -0.05 -0.058430541 22004.186
0.38552326 -0.05 -0.058508715 21995.707
0.38318094 -0.05 -0.058585094 21987.304
0.38083857 -0.05 -0.058659688 21978.9
0.37849613 -0.05 -0.058732482 21970.534
0.37615364 -0.05 -0.058803471 21962.138
0.37381109 -0.05 -0.058872605 21954.336
0.37146848 -0.05 -0.058939856 21946.51
0.36912583 -0.05 -0.059005237 21938.874
0.36678312 -0.05 -0.059068742 21931.124
0.36444037 -0.05 -0.059130354 21923.605
0.36209757 -0.05 -0.059190049 21915.97
0.35975471 -0.05 -0.059247824 21908.618
0.35741181 -0.05 -0.059303603 21901.853
0.35506886 -0.05 -0.059357402 21894.779
0.35272586 -0.05 -0.059409225 21888.121
0.35038283 -0.05 -0.059459044 21881.223
0.34803975 -0.05 -0.059506859 21874.735
0.34569662 -0.05 -0.059552581 21868.747
0.34335347 -0.05 -0.059596249 21862.213
0.34101027 -0.05 -0.059637862 21856.323
0.33866703 -0.05 -0.059677333 21850.618
0.33632377 -0.05 -0.059714702 21844.824
0.33398046 -0.05 -0.059749909 21839.806
0.33163712 -0.05 -0.059782951 21834.171
0.32929376 -0.05 -0.059813858 21828.918
0.32695037 -0.05 -0.059842535 21824.16
0.32460696 -0.05 -0.059868969 21819.557
0.32226351 -0.05 -0.059893141 21815.344
0.31992004 -0.05 -0.059915067 21810.774
0.31757656 -0.05 -0.059934727 21806.726
0.31523306 -0.05 -0.059952066 21802.809
0.31288954 -0.05 -0.059967055 21799.508
0.31054601 -0.05 -0.059979678 21796.136
0.30820246 -0.05 -0.059989926 21792.893
0.30585891 -0.05 -0.059997792 21789.037
0.30351535 -0.05 -0.060003209 21786.151
0.30117179 -0.05 -0.060006157 21784.002
