/*--------------------------------*- C++ -*----------------------------------*\
| =========                 |                                                 |
| \\      /  F ield         | OpenFOAM: The Open Source CFD Toolbox           |
|  \\    /   O peration     | Version:  2306                                  |
|   \\  /    A nd           | Website:  www.openfoam.com                      |
|    \\/     M anipulation  |                                                 |
\*---------------------------------------------------------------------------*/
FoamFile
{
    version     2.0;
    format      ascii;
    arch        "LSB;label=32;scalar=64";
    class       volScalarField;
    location    "875";
    object      turbulenceProperties:I;
}
// * * * * * * * * * * * * * * * * * * * * * * * * * * * * * * * * * * * * * //

dimensions      [0 0 0 0 0 0 0];

internalField   nonuniform List<scalar> 
1340
(
0.244662
0.246102
0.249517
0.255937
0.0396027
0.0424672
0.0476505
0.0611858
0.0179017
0.0214177
0.023968
0.0337473
0.003395
0.0062667
0.0101598
0.0207136
0.00106571
0.00128529
0.00178332
0.00901179
0.000410577
0.00053328
0.000856146
0.00303054
5.58558e-05
3.79106e-05
0
0.00140371
0.000143866
0.000126713
4.19808e-05
0
0.000157802
0.00016608
0.000175734
3.74553e-05
0.00014524
0.000146047
0.000192891
0.000138069
0.000146275
0.000147683
0.000178837
0.000207525
0.000141069
0.000143456
0.00016519
0.000215695
0.000138546
0.000141036
0.000158506
0.000205933
0.00013482
0.000136813
0.00015254
0.000194803
0.000131378
0.000132894
0.000146743
0.000184574
0.000127547
0.000128592
0.00014073
0.000174863
0.000123591
0.000124172
0.000134717
0.000165427
0.000119405
0.000119524
0.000128687
0.000156234
0.000115028
0.000114684
0.000122638
0.000147287
0.00011045
0.000109641
0.000116585
0.000138638
0.000105676
0.0001044
0.000110509
0.000130273
0.000100707
9.89688e-05
0.000104417
0.000122208
9.55492e-05
9.33421e-05
9.83101e-05
0.000114462
9.02115e-05
8.7527e-05
9.21793e-05
0.000107023
8.46992e-05
8.15149e-05
8.60411e-05
9.99148e-05
7.90243e-05
7.52987e-05
7.98985e-05
9.31369e-05
7.32028e-05
6.88622e-05
7.37708e-05
8.67101e-05
6.72592e-05
6.2171e-05
6.76824e-05
8.06508e-05
6.12356e-05
5.51696e-05
6.16873e-05
7.49913e-05
5.52169e-05
4.77573e-05
5.58779e-05
6.97779e-05
4.93745e-05
3.97237e-05
5.04281e-05
6.50665e-05
4.407e-05
3.06252e-05
4.56387e-05
6.09275e-05
3.99783e-05
1.90658e-05
4.19737e-05
5.74296e-05
3.79427e-05
1.31691e-05
3.99105e-05
5.46218e-05
3.81875e-05
2.48464e-05
3.95389e-05
5.2507e-05
3.99205e-05
3.17838e-05
4.03993e-05
5.10309e-05
4.21684e-05
3.66891e-05
4.1848e-05
5.00835e-05
4.43555e-05
4.03392e-05
4.34133e-05
4.95246e-05
5.20896e-05
4.62407e-05
4.30889e-05
4.48438e-05
4.92139e-05
5.24619e-05
4.77474e-05
4.51423e-05
4.60291e-05
4.90311e-05
5.27277e-05
4.88691e-05
4.66338e-05
4.69339e-05
4.88855e-05
5.28335e-05
4.96276e-05
4.76581e-05
4.75561e-05
4.87131e-05
5.27543e-05
5.0055e-05
4.82891e-05
4.79122e-05
4.84744e-05
5.24852e-05
5.0186e-05
4.85847e-05
4.80235e-05
4.81461e-05
5.20331e-05
5.00559e-05
4.85941e-05
4.79134e-05
4.77161e-05
5.14114e-05
4.96984e-05
4.83599e-05
4.76087e-05
4.71833e-05
5.06375e-05
4.91446e-05
4.79175e-05
4.71318e-05
4.65497e-05
4.9731e-05
4.84242e-05
4.72996e-05
4.65056e-05
4.5821e-05
4.87102e-05
4.75627e-05
4.65339e-05
4.57516e-05
4.50067e-05
4.75929e-05
4.65828e-05
4.56434e-05
4.4887e-05
4.41137e-05
4.63938e-05
4.55038e-05
4.46483e-05
4.39277e-05
4.31503e-05
4.51247e-05
4.43398e-05
4.35634e-05
4.28855e-05
4.21224e-05
4.44844e-05
4.37946e-05
4.31026e-05
4.24006e-05
4.17698e-05
4.10345e-05
4.301e-05
4.24108e-05
4.18013e-05
4.1169e-05
4.05883e-05
3.98905e-05
4.15021e-05
4.09816e-05
4.04456e-05
3.98786e-05
3.93491e-05
3.86948e-05
3.99706e-05
3.95188e-05
3.90486e-05
3.85423e-05
3.8064e-05
3.74562e-05
3.84311e-05
3.80394e-05
3.76279e-05
3.71777e-05
3.67493e-05
3.61887e-05
3.69031e-05
3.6564e-05
3.62046e-05
3.58053e-05
3.54243e-05
3.49099e-05
3.54033e-05
3.51098e-05
3.47963e-05
3.44432e-05
3.41062e-05
3.36368e-05
3.39378e-05
3.36835e-05
3.34104e-05
3.3099e-05
3.28026e-05
3.2377e-05
3.24976e-05
3.22772e-05
3.20396e-05
3.1766e-05
3.15072e-05
3.11249e-05
3.12394e-05
3.10624e-05
3.08711e-05
3.06648e-05
3.04261e-05
3.02026e-05
2.98632e-05
2.97684e-05
2.96142e-05
2.94485e-05
2.92706e-05
2.90644e-05
2.88748e-05
2.85772e-05
2.82821e-05
2.81474e-05
2.80041e-05
2.78518e-05
2.76754e-05
2.75186e-05
2.72602e-05
2.67949e-05
2.66771e-05
2.65537e-05
2.64244e-05
2.62752e-05
2.61497e-05
2.59269e-05
2.53279e-05
2.52246e-05
2.51184e-05
2.50094e-05
2.48841e-05
2.47867e-05
2.45938e-05
2.39267e-05
2.38352e-05
2.37434e-05
2.36527e-05
2.35502e-05
2.34795e-05
2.33183e-05
2.27024e-05
2.26164e-05
2.25326e-05
2.24528e-05
2.23647e-05
2.23127e-05
2.21806e-05
2.16702e-05
2.15849e-05
2.15034e-05
2.14273e-05
2.13445e-05
2.13012e-05
2.11843e-05
2.06989e-05
2.06118e-05
2.05294e-05
2.04535e-05
2.03729e-05
2.03339e-05
2.02285e-05
1.97186e-05
1.96302e-05
1.95465e-05
1.9471e-05
1.93924e-05
1.93564e-05
1.92605e-05
1.87993e-05
1.86924e-05
1.85945e-05
1.85049e-05
1.84279e-05
1.83541e-05
1.8332e-05
1.82848e-05
1.77178e-05
1.75824e-05
1.74541e-05
1.73344e-05
1.72272e-05
1.71251e-05
1.70555e-05
1.69434e-05
1.62589e-05
1.61031e-05
1.5967e-05
1.58526e-05
1.57678e-05
1.57148e-05
1.57805e-05
1.59357e-05
1.39906e-05
1.3638e-05
1.33076e-05
1.30091e-05
1.27474e-05
1.25231e-05
1.23384e-05
1.20584e-05
1.25138e-05
1.24005e-05
1.23682e-05
1.24255e-05
1.261e-05
1.29352e-05
1.36794e-05
1.47068e-05
1.3219e-05
1.31851e-05
1.31427e-05
1.30824e-05
1.30348e-05
1.32254e-05
1.43481e-05
1.54661e-05
2.17156e-05
2.21178e-05
2.24615e-05
2.27737e-05
2.31289e-05
2.36444e-05
2.48721e-05
2.58539e-05
2.96956e-05
2.97415e-05
2.97742e-05
2.97959e-05
2.98093e-05
2.98542e-05
3.01386e-05
2.93963e-05
4.10399e-05
4.10411e-05
4.10228e-05
4.09936e-05
4.09422e-05
4.09183e-05
4.07697e-05
3.92993e-05
0.141768
0.0645576
0.0318512
0.0173201
0.00715743
0.00179396
0.000797846
0
4.19533e-05
0.000172283
0.000225849
0.000225048
0.000213505
0.000202185
0.000191858
0.000182032
0.000172477
0.0001632
0.000154233
0.000145574
0.000137241
0.000129244
0.000121591
0.000114294
0.000107354
0.000100785
9.45968e-05
8.87983e-05
8.34028e-05
7.84245e-05
7.38789e-05
6.97804e-05
6.61371e-05
6.29534e-05
6.02207e-05
5.79143e-05
5.59962e-05
5.44139e-05
5.31064e-05
5.20113e-05
5.10685e-05
5.02246e-05
4.94369e-05
4.86706e-05
4.79e-05
4.71082e-05
4.62837e-05
4.54193e-05
4.45135e-05
4.3564e-05
4.25716e-05
4.1536e-05
4.04566e-05
3.93334e-05
3.81676e-05
3.69655e-05
3.57384e-05
3.45019e-05
3.32709e-05
3.20515e-05
3.0838e-05
2.96135e-05
2.8364e-05
2.70837e-05
2.57871e-05
2.44876e-05
2.32466e-05
2.21363e-05
2.1162e-05
2.02237e-05
1.92663e-05
1.83219e-05
1.69499e-05
1.61117e-05
1.19436e-05
1.5357e-05
1.47503e-05
2.56224e-05
2.76201e-05
3.70355e-05
0.0972032
0.0508648
0.0214537
0.00838378
0.00261316
0.00115824
0
1.26737e-05
5.52106e-05
0.000152364
0.000168306
0.000165631
0.000160289
0.000155396
0.000150775
0.000146104
0.000141313
0.000136392
0.000131403
0.000126354
0.000121279
0.0001162
0.000111144
0.000106161
0.000101269
9.64964e-05
9.18786e-05
8.74444e-05
8.32146e-05
7.92149e-05
7.54646e-05
7.19802e-05
6.87728e-05
6.58482e-05
6.3209e-05
6.08447e-05
5.87438e-05
5.68846e-05
5.52394e-05
5.37788e-05
5.24704e-05
5.12807e-05
5.01817e-05
4.91449e-05
4.81478e-05
4.7172e-05
4.62029e-05
4.52296e-05
4.42445e-05
4.3241e-05
4.22152e-05
4.11628e-05
4.00795e-05
3.89624e-05
3.78111e-05
3.66297e-05
3.54278e-05
3.42198e-05
3.3018e-05
3.1827e-05
3.06398e-05
2.94398e-05
2.82137e-05
2.69573e-05
2.56857e-05
2.44103e-05
2.31903e-05
2.20925e-05
2.11309e-05
2.02072e-05
1.92587e-05
1.83249e-05
1.6952e-05
1.61558e-05
1.18866e-05
1.57267e-05
1.38011e-05
2.56648e-05
2.74967e-05
3.74374e-05
0.0714769
0.0386026
0.013876
0.00350142
0.000634874
0.000287455
0
2.07911e-05
8.54837e-05
0.000128794
0.000127743
0.000124339
0.000120819
0.000117838
0.000115037
0.000112255
0.000109494
0.000106737
0.000103972
0.000101237
9.85032e-05
9.5776e-05
9.30389e-05
9.03155e-05
8.75985e-05
8.48804e-05
8.21768e-05
7.95004e-05
7.68549e-05
7.4259e-05
7.17267e-05
6.92736e-05
6.69162e-05
6.46678e-05
6.25412e-05
6.05421e-05
5.86768e-05
5.69436e-05
5.53378e-05
5.38503e-05
5.24703e-05
5.11821e-05
4.9972e-05
4.88235e-05
4.77221e-05
4.66553e-05
4.56105e-05
4.4579e-05
4.35521e-05
4.25227e-05
4.14851e-05
4.0433e-05
3.93605e-05
3.82629e-05
3.71385e-05
3.59903e-05
3.48263e-05
3.36593e-05
3.24997e-05
3.135e-05
3.02022e-05
2.90395e-05
2.78496e-05
2.66292e-05
2.53942e-05
2.41547e-05
2.29663e-05
2.18931e-05
2.09572e-05
2.00635e-05
1.91381e-05
1.8227e-05
1.68771e-05
1.61046e-05
1.19619e-05
1.58771e-05
1.33348e-05
2.55528e-05
2.72237e-05
3.74596e-05
0.0531339
0.0266846
0.0070869
0.000693617
0.000328487
0
1.01155e-05
4.22032e-05
9.60044e-05
0.000106593
0.000102764
0.000100793
9.88151e-05
9.71089e-05
9.53613e-05
9.35543e-05
9.1738e-05
8.99021e-05
8.80545e-05
8.62305e-05
8.44048e-05
8.26037e-05
8.08154e-05
7.90389e-05
7.72812e-05
7.55345e-05
7.37942e-05
7.20635e-05
7.03389e-05
6.86226e-05
6.69164e-05
6.52229e-05
6.35506e-05
6.19034e-05
6.02893e-05
5.87168e-05
5.7191e-05
5.57177e-05
5.4301e-05
5.29409e-05
5.16382e-05
5.03901e-05
4.91905e-05
4.8035e-05
4.69169e-05
4.58295e-05
4.47653e-05
4.3719e-05
4.26838e-05
4.16539e-05
4.06239e-05
3.95868e-05
3.85366e-05
3.74679e-05
3.63779e-05
3.52692e-05
3.41488e-05
3.30276e-05
3.19145e-05
3.08106e-05
2.97065e-05
2.85858e-05
2.74369e-05
2.62572e-05
2.50635e-05
2.38647e-05
2.27137e-05
2.16736e-05
2.07701e-05
1.99101e-05
1.90126e-05
1.81303e-05
1.6813e-05
1.60677e-05
1.21369e-05
1.59843e-05
1.31198e-05
2.54178e-05
2.68762e-05
3.7302e-05
0.0361992
0.0147774
0.00177499
0.000573498
0
4.68763e-06
2.0362e-05
6.96248e-05
9.15363e-05
9.02847e-05
8.7829e-05
8.70784e-05
8.62374e-05
8.54955e-05
8.46462e-05
8.37277e-05
8.27398e-05
8.16658e-05
8.05287e-05
7.9326e-05
7.80542e-05
7.67294e-05
7.53674e-05
7.39578e-05
7.25205e-05
7.10731e-05
6.96069e-05
6.8139e-05
6.66753e-05
6.52186e-05
6.37738e-05
6.23421e-05
6.09306e-05
5.95367e-05
5.81636e-05
5.68168e-05
5.54937e-05
5.41992e-05
5.29338e-05
5.16979e-05
5.04947e-05
4.93221e-05
4.81781e-05
4.70635e-05
4.59745e-05
4.49085e-05
4.38617e-05
4.28313e-05
4.1813e-05
4.08023e-05
3.97948e-05
3.87836e-05
3.77635e-05
3.67291e-05
3.5677e-05
3.46096e-05
3.35335e-05
3.24581e-05
3.13906e-05
3.03309e-05
2.9269e-05
2.81889e-05
2.70801e-05
2.59408e-05
2.47882e-05
2.363e-05
2.25166e-05
2.15096e-05
2.06378e-05
1.98084e-05
1.8937e-05
1.80821e-05
1.67981e-05
1.60856e-05
1.23728e-05
1.61547e-05
1.29612e-05
2.54173e-05
2.6691e-05
3.72661e-05
0.0205153
0.00535035
0.00104324
0
0
1.32101e-05
5.42862e-05
7.94668e-05
8.24817e-05
7.94095e-05
7.84296e-05
7.80827e-05
7.75977e-05
7.71132e-05
7.6538e-05
7.59217e-05
7.52362e-05
7.44882e-05
7.36976e-05
7.28505e-05
7.19537e-05
7.10073e-05
7.00233e-05
6.89903e-05
6.79195e-05
6.68192e-05
6.56791e-05
6.45159e-05
6.33307e-05
6.21274e-05
6.09136e-05
5.96919e-05
5.84721e-05
5.72547e-05
5.60447e-05
5.48488e-05
5.36652e-05
5.24999e-05
5.1352e-05
5.02226e-05
4.91148e-05
4.80255e-05
4.69547e-05
4.59039e-05
4.48696e-05
4.38519e-05
4.28484e-05
4.18574e-05
4.08767e-05
3.99026e-05
3.89318e-05
3.79582e-05
3.69773e-05
3.5984e-05
3.49752e-05
3.39532e-05
3.29243e-05
3.18966e-05
3.0876e-05
2.98613e-05
2.88423e-05
2.78036e-05
2.67359e-05
2.56382e-05
2.45283e-05
2.34123e-05
2.23369e-05
2.13636e-05
2.0524e-05
1.97252e-05
1.88806e-05
1.80533e-05
1.68048e-05
1.61301e-05
1.26357e-05
1.63593e-05
1.27713e-05
2.54674e-05
0.00769191
0.000342746
0.000225254
0
9.17638e-06
3.8163e-05
6.77673e-05
7.24844e-05
7.03081e-05
6.88546e-05
6.88361e-05
6.87658e-05
6.85997e-05
6.83981e-05
6.8122e-05
6.78077e-05
6.74257e-05
6.69832e-05
6.6496e-05
6.59537e-05
6.53645e-05
6.47268e-05
6.40409e-05
6.33156e-05
6.25558e-05
6.17561e-05
6.09205e-05
6.00607e-05
5.91704e-05
5.82557e-05
5.73201e-05
5.63637e-05
5.53932e-05
5.44099e-05
5.34166e-05
5.24179e-05
5.14153e-05
5.04142e-05
4.9414e-05
4.84186e-05
4.74307e-05
4.64484e-05
4.54754e-05
4.45112e-05
4.35547e-05
4.26079e-05
4.16687e-05
4.07371e-05
3.98117e-05
3.88899e-05
3.79695e-05
3.70455e-05
3.61137e-05
3.51697e-05
3.42115e-05
3.3241e-05
3.22641e-05
3.12884e-05
3.03183e-05
2.93519e-05
2.83787e-05
2.73847e-05
2.63611e-05
2.53085e-05
2.42448e-05
2.31739e-05
2.21394e-05
2.12028e-05
2.03989e-05
1.96329e-05
1.88184e-05
1.80216e-05
1.68133e-05
1.61826e-05
1.2914e-05
1.65638e-05
0.00077679
0.000488946
0
6.26426e-06
2.68093e-05
5.8413e-05
6.39624e-05
6.22501e-05
6.07964e-05
6.06903e-05
6.09339e-05
6.09902e-05
6.0999e-05
6.09606e-05
6.08645e-05
6.07253e-05
6.05301e-05
6.02847e-05
5.99962e-05
5.96596e-05
5.92803e-05
5.88597e-05
5.83944e-05
5.78936e-05
5.73613e-05
5.67899e-05
5.61872e-05
5.55585e-05
5.48994e-05
5.42155e-05
5.35084e-05
5.2777e-05
5.20266e-05
5.12575e-05
5.04704e-05
4.96687e-05
4.8853e-05
4.80266e-05
4.71899e-05
4.63453e-05
4.54955e-05
4.46403e-05
4.37829e-05
4.29237e-05
4.20631e-05
4.12041e-05
4.0345e-05
3.94877e-05
3.86311e-05
3.77742e-05
3.69154e-05
3.60507e-05
3.51768e-05
3.42898e-05
3.33886e-05
3.24753e-05
3.15553e-05
3.06356e-05
2.97195e-05
2.88044e-05
2.78802e-05
2.69338e-05
2.59579e-05
2.49536e-05
2.39395e-05
2.29169e-05
2.19265e-05
2.10304e-05
2.0265e-05
1.95343e-05
1.87528e-05
1.79893e-05
1.68267e-05
1.62449e-05
0.000517551
0
3.5412e-06
1.48778e-05
5.22449e-05
5.72852e-05
5.58029e-05
5.44482e-05
5.43419e-05
5.47103e-05
5.49667e-05
5.51157e-05
5.52295e-05
5.52899e-05
5.53008e-05
5.52627e-05
5.51739e-05
5.50417e-05
5.48652e-05
5.46445e-05
5.43823e-05
5.40833e-05
5.37496e-05
5.3378e-05
5.29777e-05
5.25482e-05
5.2089e-05
5.16042e-05
5.10943e-05
5.0562e-05
5.0006e-05
4.9428e-05
4.88329e-05
4.82161e-05
4.75812e-05
4.69307e-05
4.62626e-05
4.558e-05
4.48833e-05
4.41729e-05
4.34506e-05
4.27177e-05
4.19744e-05
4.12226e-05
4.0463e-05
3.96978e-05
3.89263e-05
3.81509e-05
3.73713e-05
3.65871e-05
3.57974e-05
3.49988e-05
3.41892e-05
3.33653e-05
3.25263e-05
3.16746e-05
3.08154e-05
2.99547e-05
2.90952e-05
2.82341e-05
2.73612e-05
2.6465e-05
2.55395e-05
2.45864e-05
2.36247e-05
2.2653e-05
2.17093e-05
2.08569e-05
2.0132e-05
1.94377e-05
1.86917e-05
0
5.11602e-07
2.36616e-06
4.35804e-05
5.25254e-05
4.98396e-05
4.89098e-05
4.8844e-05
4.92825e-05
4.96736e-05
4.9938e-05
5.01571e-05
5.03364e-05
5.04637e-05
5.05461e-05
5.05867e-05
5.05792e-05
5.05282e-05
5.04368e-05
5.03046e-05
5.01342e-05
4.9928e-05
4.96895e-05
4.94169e-05
4.91167e-05
4.87902e-05
4.84354e-05
4.80575e-05
4.76571e-05
4.72362e-05
4.67922e-05
4.63291e-05
4.58499e-05
4.53486e-05
4.48311e-05
4.42971e-05
4.37453e-05
4.31784e-05
4.25955e-05
4.19974e-05
4.13852e-05
4.07589e-05
4.01197e-05
3.94679e-05
3.88043e-05
3.81309e-05
3.74472e-05
3.67553e-05
3.60553e-05
3.53473e-05
3.46305e-05
3.39025e-05
3.31615e-05
3.24045e-05
3.16317e-05
3.0845e-05
3.00495e-05
2.92505e-05
2.84498e-05
2.76446e-05
2.68254e-05
2.59818e-05
2.51091e-05
2.42101e-05
2.33033e-05
2.23848e-05
0
8.20756e-06
3.72598e-05
4.7657e-05
4.50263e-05
4.37854e-05
4.40445e-05
4.44843e-05
4.49491e-05
4.52882e-05
4.5572e-05
4.58226e-05
4.60287e-05
4.61929e-05
4.6313e-05
4.63958e-05
4.6437e-05
4.6436e-05
4.64006e-05
4.63292e-05
4.62247e-05
4.60877e-05
4.59215e-05
4.57272e-05
4.55082e-05
4.5265e-05
4.4997e-05
4.47093e-05
4.44009e-05
4.40735e-05
4.37261e-05
4.33609e-05
4.29795e-05
4.25789e-05
4.21624e-05
4.17292e-05
4.1279e-05
4.08134e-05
4.03309e-05
3.98325e-05
3.93189e-05
3.87894e-05
3.82452e-05
3.7686e-05
3.71127e-05
3.65269e-05
3.59279e-05
3.5318e-05
3.46973e-05
3.40659e-05
3.34235e-05
3.27679e-05
3.20977e-05
3.14104e-05
3.07061e-05
2.9987e-05
2.92573e-05
2.85218e-05
2.77819e-05
2.70345e-05
2.62709e-05
7.38095e-06
2.99562e-05
4.29484e-05
4.07334e-05
3.94691e-05
3.98286e-05
4.03776e-05
4.08377e-05
4.12256e-05
4.15448e-05
4.18347e-05
4.20894e-05
4.23029e-05
4.24804e-05
4.26154e-05
4.27168e-05
4.27817e-05
4.28083e-05
4.2805e-05
4.27694e-05
4.27049e-05
4.26116e-05
4.24942e-05
4.23524e-05
4.21892e-05
4.20059e-05
4.18019e-05
4.15814e-05
4.13435e-05
4.10893e-05
4.08183e-05
4.05325e-05
4.02319e-05
3.99146e-05
3.95832e-05
3.92364e-05
3.88738e-05
3.84967e-05
3.81028e-05
3.76933e-05
3.72686e-05
3.68272e-05
3.63697e-05
3.58965e-05
3.54077e-05
3.49043e-05
3.43863e-05
3.38554e-05
3.33119e-05
3.27558e-05
3.21874e-05
3.16044e-05
3.10056e-05
3.0389e-05
2.96271e-05
3.65908e-05
3.74716e-05
3.57032e-05
3.62601e-05
3.68245e-05
3.72899e-05
3.76759e-05
3.80167e-05
3.832e-05
3.86016e-05
3.88444e-05
3.90505e-05
3.92254e-05
3.93636e-05
3.9471e-05
3.95451e-05
3.95874e-05
3.96023e-05
3.95894e-05
3.95511e-05
3.94893e-05
3.94045e-05
3.93002e-05
3.91781e-05
3.90372e-05
3.88807e-05
3.87096e-05
3.85243e-05
3.83252e-05
3.81123e-05
3.78878e-05
3.76497e-05
3.73983e-05
3.71354e-05
3.68581e-05
3.65681e-05
3.62642e-05
3.59452e-05
3.56123e-05
3.5264e-05
3.48998e-05
)
;

boundaryField
{
    inlet
    {
        type            calculated;
        value           nonuniform List<scalar> 
13
(
7.48356e-05
7.53302e-05
7.57607e-05
7.61455e-05
7.65179e-05
7.69053e-05
7.74203e-05
7.75913e-05
7.72294e-05
7.69934e-05
7.66859e-05
7.64201e-05
7.62008e-05
)
;
    }
    outlet
    {
        type            calculated;
        value           nonuniform List<scalar> 0();
    }
    walls
    {
        type            calculated;
        value           uniform 0;
    }
    frontAndBack
    {
        type            empty;
    }
    procBoundary2to1
    {
        type            processor;
        value           nonuniform List<scalar> 
84
(
0.243552
0.0371134
0.0142957
0.00145491
0.00115186
2.29118e-05
0.000155059
0.000149923
0.000156052
0.000146067
0.000146253
0.000142328
0.000140054
0.00013686
0.000133791
0.000130427
0.000126922
0.000123212
0.000119316
0.000115235
0.00011097
0.000106529
0.000101925
9.71778e-05
9.2308e-05
8.73467e-05
8.23364e-05
7.73347e-05
7.24166e-05
6.76889e-05
6.32892e-05
5.93867e-05
5.61678e-05
5.37833e-05
5.2285e-05
5.15806e-05
5.14678e-05
5.17075e-05
5.17075e-05
5.84465e-05
5.77982e-05
5.71992e-05
5.65854e-05
5.59128e-05
5.51553e-05
5.43001e-05
5.33442e-05
5.22924e-05
5.11526e-05
4.99352e-05
4.86512e-05
4.731e-05
4.59193e-05
4.59193e-05
4.51607e-05
4.35918e-05
4.20029e-05
4.04017e-05
3.8802e-05
3.72219e-05
3.56774e-05
3.41738e-05
3.27015e-05
3.27015e-05
3.14056e-05
2.99142e-05
2.8411e-05
2.69096e-05
2.54308e-05
2.40199e-05
2.27914e-05
2.17599e-05
2.07911e-05
1.9813e-05
1.9813e-05
1.89132e-05
1.78578e-05
1.64325e-05
1.4355e-05
1.27011e-05
1.3265e-05
2.12484e-05
2.96282e-05
4.10104e-05
)
;
    }
    procBoundary2to3
    {
        type            processor;
        value           nonuniform List<scalar> 
88
(
2.6594e-05
3.72821e-05
1.25945e-05
2.6594e-05
2.55141e-05
1.32107e-05
1.25945e-05
1.67605e-05
1.79629e-05
1.68513e-05
1.32107e-05
1.63215e-05
2.14905e-05
2.06842e-05
2.00014e-05
1.93444e-05
1.79629e-05
1.86357e-05
2.54824e-05
2.46652e-05
2.38228e-05
2.29735e-05
2.14905e-05
2.21104e-05
2.97546e-05
2.91041e-05
2.84416e-05
2.77708e-05
2.70928e-05
2.64047e-05
2.54824e-05
2.56987e-05
3.45197e-05
3.41239e-05
3.37119e-05
3.32842e-05
3.28419e-05
3.23854e-05
3.19153e-05
3.1432e-05
3.09355e-05
3.04239e-05
2.98959e-05
2.97546e-05
2.93496e-05
3.43894e-05
3.26182e-05
3.30616e-05
3.3058e-05
3.37983e-05
3.41915e-05
3.45742e-05
3.49036e-05
3.52124e-05
3.54944e-05
3.57489e-05
3.59697e-05
3.61588e-05
3.63232e-05
3.64542e-05
3.65567e-05
3.66317e-05
3.66806e-05
3.67053e-05
3.67062e-05
3.66849e-05
3.66441e-05
3.6585e-05
3.65087e-05
3.64165e-05
3.631e-05
3.61909e-05
3.60585e-05
3.59151e-05
3.57601e-05
3.55943e-05
3.54181e-05
3.5231e-05
3.50337e-05
3.48256e-05
3.46059e-05
3.43755e-05
3.41323e-05
3.38764e-05
3.3608e-05
3.33251e-05
3.45197e-05
3.30278e-05
)
;
    }
    procBoundary2to6
    {
        type            processor;
        value           nonuniform List<scalar> 
13
(
0.250202
0.146521
0.103052
0.0780086
0.057943
0.0395235
0.0222277
0.0080027
0.000739793
0.000366817
0
5.23336e-10
5.63979e-08
)
;
    }
}


// ************************************************************************* //
