/*--------------------------------*- C++ -*----------------------------------*\
| =========                 |                                                 |
| \\      /  F ield         | OpenFOAM: The Open Source CFD Toolbox           |
|  \\    /   O peration     | Version:  2306                                  |
|   \\  /    A nd           | Website:  www.openfoam.com                      |
|    \\/     M anipulation  |                                                 |
\*---------------------------------------------------------------------------*/
FoamFile
{
    version     2.0;
    format      ascii;
    arch        "LSB;label=32;scalar=64";
    class       volVectorField;
    location    "950";
    object      momentError;
}
// * * * * * * * * * * * * * * * * * * * * * * * * * * * * * * * * * * * * * //

dimensions      [0 1 -2 0 0 0 0];

internalField   nonuniform List<vector> 
10720
(
(7.44733e-05 -0.000218955 -6.95743e-15)
(7.26341e-05 -0.000245901 2.41135e-14)
(5.90623e-05 -0.00026449 -4.72326e-14)
(1.63926e-05 -0.000234978 1.778e-14)
(-5.45974e-06 -0.000229314 1.10239e-13)
(-2.2746e-05 -0.000215311 -1.75099e-13)
(-4.11968e-05 -0.000227506 8.99985e-14)
(-6.38746e-05 -0.000226398 -1.11069e-13)
(-8.63331e-05 -0.000215255 -2.54631e-13)
(-9.74063e-05 -0.000180649 3.44118e-13)
(-9.30134e-05 -0.000137413 1.24149e-13)
(-8.04259e-05 -9.14998e-05 -2.28811e-13)
(-6.35353e-05 -5.93616e-05 -3.34526e-13)
(-4.40343e-05 -3.51681e-05 -5.72036e-14)
(-1.43028e-05 -1.0033e-05 -1.39768e-13)
(2.3253e-05 1.43928e-05 -3.10395e-13)
(9.21828e-05 4.49009e-05 -1.46757e-13)
(0.000196215 6.72115e-05 8.32708e-13)
(1.22327e-05 7.01289e-06 4.23308e-13)
(0.000739801 0.000370773 -5.95091e-13)
(0.000793981 0.000267225 1.05315e-13)
(0.000608869 -0.000155752 1.53274e-13)
(-0.00888081 -0.00130322 -6.74716e-14)
(-0.0127232 -0.0026891 -1.51575e-13)
(0.00848744 -0.000250737 3.57105e-14)
(0.0217035 0.00375717 -2.34318e-15)
(0.0126338 0.00487055 4.15485e-14)
(0.00154988 0.00331857 -1.64643e-14)
(-0.00596547 0.00108526 4.39569e-14)
(-0.00829732 -0.000118286 1.54493e-13)
(-0.00452453 -0.000340317 3.03114e-14)
(-0.000436591 -0.000330303 -1.28628e-13)
(0.00209375 -0.000348302 -7.92305e-15)
(0.00150549 -0.000176044 -2.15711e-13)
(0.000531733 8.40901e-05 -2.82323e-13)
(-0.000178126 0.00130507 1.15496e-13)
(0.00115997 0.0115181 -1.13959e-14)
(0.0524215 0.0722329 -4.53038e-16)
(1.09048 -0.120009 -6.74695e-14)
(7.94744e-05 -0.000207147 -1.0766e-14)
(8.26029e-05 -0.000144547 2.65582e-14)
(9.25579e-05 -9.44173e-05 1.73222e-15)
(8.46147e-05 -3.68186e-05 3.61656e-14)
(8.673e-05 -9.25749e-06 -3.28851e-14)
(3.0212e-05 6.83043e-05 -9.40224e-14)
(5.07329e-06 8.69303e-05 -1.07345e-13)
(-8.15255e-05 0.000148028 2.99402e-14)
(-9.52748e-05 8.7088e-05 -7.52055e-14)
(-5.41784e-05 2.86273e-05 9.5795e-14)
(-1.61914e-05 -2.01197e-05 -6.00386e-14)
(3.09817e-05 -4.26332e-05 -1.46125e-13)
(4.77611e-05 -4.30768e-05 -1.64675e-13)
(5.57897e-05 -3.84769e-05 1.32091e-14)
(5.61648e-05 -3.19165e-05 1.33035e-13)
(5.29576e-05 -2.54738e-05 3.99406e-14)
(4.80849e-05 -2.00435e-05 -5.0307e-14)
(4.23259e-05 -1.52859e-05 -3.54749e-14)
(3.60366e-05 -1.17643e-05 -2.1818e-14)
(2.97896e-05 -8.53517e-06 3.90399e-14)
(2.32001e-05 -6.67956e-06 1.72961e-14)
(1.72256e-05 -4.92928e-06 2.50514e-14)
(1.14426e-05 -5.18381e-06 -3.38377e-14)
(1.02189e-05 -6.10248e-06 -2.46551e-14)
(1.39011e-05 -6.35499e-06 1.8184e-14)
(1.91721e-05 -6.13123e-06 1.24073e-14)
(2.58677e-05 -4.76146e-06 6.93013e-15)
(3.23616e-05 -4.64873e-06 -1.46247e-15)
(3.24677e-05 -1.87803e-06 -2.84507e-16)
(2.30265e-05 -5.87037e-06 2.30626e-16)
(2.31534e-05 -2.27329e-06 -4.51379e-16)
(3.40119e-05 -1.76267e-06 -1.86759e-15)
(4.04548e-05 -8.93268e-07 -1.26031e-15)
(3.66685e-05 -5.91683e-07 -3.83991e-15)
(4.84839e-05 1.71131e-06 -2.90648e-15)
(0.00016504 1.78588e-05 1.26148e-15)
(2.56936e-05 -2.00527e-05 -2.16462e-15)
(0.000339197 -0.000128744 -1.10573e-14)
(0.00219512 -0.00126867 -2.14937e-14)
(9.96705e-05 -0.000193528 -1.31424e-14)
(9.06229e-05 -0.000218928 5.8845e-15)
(7.13695e-05 -0.00023748 7.81391e-15)
(3.63866e-05 -0.000221492 -3.36621e-14)
(6.74854e-06 -0.000210425 2.10325e-14)
(-2.42953e-06 -0.000211171 8.03965e-14)
(-3.134e-05 -0.000220453 1.03894e-13)
(-4.97577e-05 -0.000219401 1.00638e-13)
(-7.22111e-05 -0.000205318 -3.98781e-15)
(-8.19695e-05 -0.000168201 1.90681e-13)
(-8.10593e-05 -0.000126103 -2.0886e-13)
(-7.22432e-05 -9.04296e-05 -1.19528e-13)
(-5.96976e-05 -5.37185e-05 4.48618e-13)
(-4.3389e-05 -2.54939e-05 1.28259e-13)
(-1.21096e-05 -1.33e-05 -1.19187e-13)
(1.47339e-05 -2.41392e-06 -1.78005e-14)
(2.62114e-05 1.59765e-05 3.42058e-13)
(2.64398e-05 8.27762e-05 -1.53339e-13)
(-0.000709524 0.000343029 -4.91942e-13)
(-0.003632 0.000410906 1.88444e-13)
(0.00212245 0.000410864 2.35433e-13)
(-0.00754421 0.00105554 4.67752e-14)
(0.00934691 -0.00186013 -1.30874e-13)
(0.0674067 0.00646104 1.92544e-13)
(0.0655007 0.0129099 -4.19924e-14)
(-0.0113552 0.00701248 -7.04799e-14)
(-0.0554587 0.00104969 -3.01917e-14)
(-0.0328575 0.000384268 5.59758e-15)
(-0.0130546 -0.000562477 -1.49967e-14)
(-0.0100726 -0.00197106 -1.58728e-14)
(-0.00274553 -0.00171607 -2.03998e-14)
(0.00121086 -0.000954704 3.52751e-14)
(0.00154677 -0.000405506 -1.88216e-13)
(0.00200952 -0.000174147 -2.24046e-13)
(0.00119457 1.80802e-05 1.62307e-13)
(3.85129e-05 0.000403659 -3.94954e-14)
(-0.000976647 0.00223018 3.30544e-14)
(-0.0317689 0.0142603 -1.41193e-14)
(-0.893063 0.108622 -3.85092e-14)
(0.000106209 -0.000168377 -4.63885e-15)
(0.000123858 -0.000129316 1.24099e-13)
(0.000130439 -8.6178e-05 -7.98397e-15)
(0.000132812 -4.32155e-05 -1.29075e-13)
(0.00011962 -7.51172e-07 -2.56851e-14)
(8.65651e-05 4.32088e-05 1.27346e-13)
(5.25651e-05 6.74645e-05 1.11416e-13)
(-3.74756e-06 8.19698e-05 5.95854e-14)
(-2.94975e-05 4.00724e-05 -8.25881e-14)
(-2.11189e-05 -4.25089e-07 -1.06483e-14)
(-8.78425e-07 -3.23712e-05 1.01897e-13)
(2.53717e-05 -4.45436e-05 -5.20992e-15)
(4.04737e-05 -4.53794e-05 1.22903e-14)
(4.84935e-05 -4.13451e-05 -2.47923e-14)
(5.04731e-05 -3.53896e-05 -3.2588e-14)
(4.86405e-05 -2.91775e-05 1.41526e-14)
(4.50002e-05 -2.33782e-05 1.70869e-14)
(4.00379e-05 -1.83803e-05 -5.80437e-14)
(3.45114e-05 -1.4176e-05 2.69297e-14)
(2.85304e-05 -1.09464e-05 1.78451e-14)
(2.25869e-05 -8.25525e-06 1.46789e-14)
(1.67805e-05 -6.6295e-06 3.19092e-14)
(1.2067e-05 -5.5606e-06 4.17819e-14)
(1.09911e-05 -6.86956e-06 1.76494e-14)
(1.44126e-05 -7.08611e-06 -1.51653e-14)
(1.94179e-05 -7.1053e-06 8.16093e-16)
(2.56688e-05 -6.3554e-06 -5.68203e-15)
(3.26811e-05 -5.28056e-06 -2.08582e-15)
(3.23996e-05 -3.26958e-06 3.93329e-16)
(2.66352e-05 -2.22813e-07 -3.86222e-17)
(4.035e-05 -4.97057e-06 2.8293e-16)
(4.61193e-05 -6.08821e-07 6.14086e-16)
(5.21e-05 3.62638e-08 1.84957e-15)
(7.54587e-05 -8.51818e-07 2.35487e-15)
(9.47145e-05 -6.62357e-07 7.65901e-16)
(4.5102e-05 1.45102e-05 -1.55113e-15)
(0.000220163 2.65331e-05 -6.65598e-17)
(0.000284139 1.76677e-05 3.77963e-15)
(0.00158169 0.000199789 9.20382e-15)
(7.48705e-05 -0.000171547 -5.07372e-15)
(7.1112e-05 -0.000186748 -8.20208e-16)
(5.42761e-05 -0.00019417 -5.83698e-15)
(2.57061e-05 -0.000189247 1.55515e-14)
(7.21927e-06 -0.000182803 3.91319e-15)
(-6.64305e-06 -0.000192124 -3.37372e-14)
(-2.48003e-05 -0.000198377 -1.07609e-13)
(-4.45281e-05 -0.000200225 -9.54175e-14)
(-6.2847e-05 -0.00018089 -1.11322e-13)
(-7.23821e-05 -0.000150408 1.10097e-14)
(-7.10545e-05 -0.00011572 2.64053e-13)
(-6.16082e-05 -8.60255e-05 7.0621e-14)
(-4.65263e-05 -6.38166e-05 -9.9311e-14)
(-2.58796e-05 -4.84292e-05 -2.41054e-13)
(-1.73248e-05 -2.83267e-05 1.10245e-13)
(-9.26646e-06 -1.16281e-05 1.45922e-13)
(3.10139e-05 -2.98525e-05 -9.42423e-14)
(0.000152859 -0.000235453 -1.89374e-13)
(0.00077521 -0.00124747 3.17158e-13)
(0.00419174 -0.00178263 -9.48902e-14)
(-0.000128896 0.0004306 -1.19561e-13)
(0.00196342 -0.00453165 1.78553e-13)
(0.00103579 -0.00403721 7.38972e-14)
(-0.0149555 -0.00922482 -3.35089e-15)
(-0.0436514 -0.0102378 -3.30802e-14)
(-0.0680646 -0.00988321 3.55818e-15)
(-0.0282513 0.000968289 -3.05932e-14)
(-0.00508968 0.00249266 2.10618e-14)
(0.00141584 -0.000432574 -3.3176e-14)
(0.0203736 -0.00226703 -7.20894e-14)
(0.0171694 -0.0016389 6.96049e-14)
(0.00644179 -0.00101412 3.08565e-14)
(0.00110116 -0.000376206 -1.21845e-13)
(0.000337009 0.000162978 7.82204e-14)
(-0.000273563 0.000328534 1.65125e-14)
(-0.000825394 0.000445391 -3.61659e-14)
(-0.00254295 0.00126136 -9.9807e-14)
(-0.0164293 0.00207457 2.77746e-14)
(-0.113452 0.00993018 9.91239e-15)
(9.26732e-05 -0.000144902 2.9218e-14)
(0.000102986 -0.000117556 -2.76869e-14)
(0.000112951 -8.30188e-05 -9.83431e-14)
(0.000113902 -5.18767e-05 4.48519e-14)
(0.000105292 -1.70004e-05 2.05984e-14)
(8.8128e-05 1.37598e-05 -6.4571e-14)
(6.15862e-05 3.32638e-05 1.35491e-14)
(2.77581e-05 3.7329e-05 -1.17648e-13)
(7.59594e-06 1.26615e-05 -7.91933e-14)
(5.05362e-06 -1.1478e-05 -8.81236e-14)
(1.57517e-05 -3.04216e-05 9.75412e-14)
(3.02842e-05 -3.92688e-05 1.4533e-14)
(4.09866e-05 -4.11595e-05 -1.36542e-14)
(4.69339e-05 -3.88934e-05 -8.08997e-14)
(4.84334e-05 -3.45085e-05 -5.80885e-14)
(4.67884e-05 -2.91071e-05 3.78567e-14)
(4.34844e-05 -2.37378e-05 -2.13741e-14)
(3.90055e-05 -1.88777e-05 -4.39724e-14)
(3.3823e-05 -1.48515e-05 -4.00353e-15)
(2.81892e-05 -1.15238e-05 -4.02395e-14)
(2.24455e-05 -9.33091e-06 -4.30003e-14)
(1.68151e-05 -8.11976e-06 -8.43254e-14)
(1.22087e-05 -8.72078e-06 -6.39434e-14)
(1.10561e-05 -1.07779e-05 -1.79986e-14)
(1.40937e-05 -1.13544e-05 3.95037e-15)
(1.89182e-05 -1.06601e-05 -1.14748e-15)
(2.47886e-05 -9.04166e-06 -1.05285e-14)
(3.16553e-05 -7.24601e-06 4.47386e-15)
(3.19172e-05 -3.26255e-06 5.81756e-16)
(2.62705e-05 -5.94646e-06 -1.81328e-16)
(3.19431e-05 -3.43113e-06 -9.44755e-18)
(4.00207e-05 -7.21419e-07 -5.34169e-16)
(4.60801e-05 2.03088e-06 -9.83141e-16)
(5.99886e-05 4.95851e-06 -1.46474e-15)
(9.11837e-05 1.32689e-05 1.8677e-15)
(0.000171422 3.12216e-05 3.72873e-17)
(4.45379e-05 8.05764e-06 1.44751e-14)
(0.000232431 6.29758e-05 8.75125e-15)
(0.00124621 0.000217654 -1.0338e-13)
(6.16396e-05 -0.0001422 7.92674e-15)
(5.35575e-05 -0.000167061 -2.34386e-15)
(4.39648e-05 -0.000169865 6.65901e-17)
(2.2386e-05 -0.000170711 -7.13004e-15)
(1.12164e-05 -0.000170676 1.99584e-15)
(-4.62288e-06 -0.000181061 3.58143e-14)
(-2.06581e-05 -0.000189962 5.84657e-14)
(-3.85075e-05 -0.000183324 5.46315e-14)
(-5.37225e-05 -0.000166355 -1.33388e-13)
(-6.12954e-05 -0.000140456 -1.11642e-13)
(-5.95712e-05 -0.000111 1.41518e-13)
(-5.23058e-05 -8.60569e-05 2.56582e-13)
(-3.99561e-05 -6.59905e-05 1.35702e-13)
(-2.64499e-05 -4.87637e-05 -4.72148e-13)
(-9.44236e-06 -3.48694e-05 -1.62162e-13)
(3.66991e-05 -4.03208e-05 3.85911e-13)
(7.36421e-05 -3.67382e-05 8.39269e-14)
(0.000128428 -2.23243e-05 -1.2427e-13)
(0.000282847 0.000232376 -2.28419e-13)
(-2.92133e-05 0.00126659 1.97915e-13)
(0.000864846 -9.79969e-06 4.35952e-14)
(0.00362577 0.00213244 -2.22444e-13)
(0.000847609 -0.000954366 1.65577e-13)
(-0.000433693 -0.000251523 -1.1416e-13)
(0.000530477 -0.00257965 -3.71919e-14)
(-0.0262666 0.0144432 3.55851e-14)
(-0.0328799 0.0122467 -4.55834e-14)
(-0.0519369 0.00570315 1.00957e-14)
(0.0224182 -0.00234172 1.36358e-14)
(0.0119951 0.00202932 2.10886e-14)
(0.0373411 -0.00391187 -9.0409e-15)
(0.0129767 7.33891e-05 2.55473e-14)
(0.0024346 6.82077e-05 2.07244e-13)
(-0.00253796 0.000832723 5.34789e-14)
(-0.00219196 0.000703614 -7.58605e-14)
(-0.00132979 0.000534499 -1.16597e-13)
(-0.00173397 0.000666405 1.66349e-14)
(-0.00692556 -0.000138573 -2.8297e-14)
(-0.0339973 0.00930279 4.56601e-14)
(7.83877e-05 -0.000125393 1.88164e-14)
(8.93933e-05 -0.000107199 -3.68743e-14)
(9.86549e-05 -8.25874e-05 -4.04088e-15)
(9.81082e-05 -5.769e-05 -3.37243e-14)
(9.41596e-05 -2.96931e-05 -2.08222e-14)
(8.18772e-05 -5.67065e-06 7.34768e-14)
(6.23305e-05 1.25967e-05 -1.8417e-13)
(3.83492e-05 1.46302e-05 1.69127e-13)
(2.65028e-05 -1.03388e-06 2.01465e-15)
(2.25085e-05 -1.57915e-05 -1.20416e-13)
(2.77978e-05 -2.86159e-05 -7.02475e-14)
(3.5584e-05 -3.56732e-05 -1.98383e-14)
(4.24725e-05 -3.80234e-05 5.95862e-14)
(4.63307e-05 -3.67308e-05 1.29281e-13)
(4.70513e-05 -3.30082e-05 2.11142e-14)
(4.52934e-05 -2.81296e-05 -4.73379e-14)
(4.21837e-05 -2.30773e-05 2.21983e-14)
(3.80732e-05 -1.83933e-05 5.00097e-14)
(3.32211e-05 -1.46039e-05 -3.67786e-15)
(2.79131e-05 -1.13788e-05 -7.78287e-15)
(2.24464e-05 -9.31119e-06 -2.14375e-14)
(1.71463e-05 -8.08658e-06 5.2807e-14)
(1.28739e-05 -8.60278e-06 3.09354e-14)
(1.17498e-05 -1.04448e-05 -1.07667e-14)
(1.43575e-05 -1.11586e-05 -1.69122e-14)
(1.89082e-05 -1.05593e-05 -6.96414e-15)
(2.4648e-05 -9.05193e-06 1.26255e-14)
(3.12726e-05 -7.36923e-06 -8.9138e-16)
(3.16317e-05 -3.42522e-06 -5.13489e-16)
(2.69008e-05 -3.22786e-06 2.01661e-16)
(3.13923e-05 -7.2889e-06 -3.98116e-17)
(3.82114e-05 -9.11697e-06 -3.67066e-17)
(3.10005e-05 -5.50726e-05 2.74276e-16)
(-1.09462e-05 -0.000235872 5.11482e-16)
(0.000159102 0.00028666 -3.23159e-15)
(-0.000276919 -0.00105835 7.59922e-15)
(0.000623398 0.00191819 -1.28761e-14)
(0.000255225 -0.0003566 -2.99211e-14)
(0.00110653 0.000241015 -1.06438e-16)
(5.30912e-05 -0.000124165 -4.04106e-15)
(4.19786e-05 -0.000142188 4.77979e-15)
(3.18793e-05 -0.000151013 5.65089e-17)
(1.87166e-05 -0.000154263 -4.17632e-15)
(7.25915e-06 -0.000158679 -2.88317e-14)
(-5.95246e-06 -0.000167875 3.46357e-14)
(-2.26179e-05 -0.000171111 1.2634e-14)
(-3.88659e-05 -0.000163342 -7.01525e-14)
(-5.08614e-05 -0.000147358 -5.8231e-14)
(-5.65425e-05 -0.000125322 -1.21381e-13)
(-5.47485e-05 -0.000101861 1.74614e-14)
(-4.75809e-05 -8.2529e-05 -1.32355e-13)
(-3.60595e-05 -6.7389e-05 8.04609e-15)
(-2.06854e-05 -5.65277e-05 3.54352e-13)
(-1.47189e-06 -4.92719e-05 -2.34207e-13)
(1.53666e-05 -3.90659e-05 -1.67665e-13)
(3.47132e-05 -3.42475e-05 1.0158e-13)
(6.89394e-05 -3.85778e-05 -1.31966e-13)
(0.000176867 -2.21209e-05 8.48919e-14)
(0.000200374 -9.65249e-05 -1.4397e-13)
(0.000452991 -3.20031e-07 -1.61817e-13)
(0.000331966 -0.00028976 1.83268e-13)
(-0.000159562 -0.000949703 -4.05354e-14)
(0.00111286 -0.000960671 8.96879e-14)
(0.00431345 0.00120729 5.67714e-14)
(0.0484672 -0.00240198 6.36684e-15)
(0.0296237 -0.00156993 1.08817e-13)
(0.0317173 -0.00643419 -2.11475e-14)
(-0.0131163 -0.00698103 2.25054e-14)
(-0.0119138 0.000426534 -5.57912e-14)
(0.0106929 0.00458399 -1.55439e-13)
(0.000806105 -0.000890462 1.29093e-15)
(0.00358329 0.000859945 1.40173e-13)
(-0.00437344 0.000914938 -3.31377e-14)
(-0.00434742 0.000787693 -1.04862e-13)
(-0.00283748 0.000506892 1.18032e-13)
(-0.00117586 0.000361344 -3.96452e-14)
(-0.00420892 -0.00055996 -1.66194e-14)
(-0.0207266 0.00963557 -5.31737e-16)
(6.06293e-05 -0.000111172 2.02826e-14)
(7.30138e-05 -9.93644e-05 1.43635e-14)
(7.87321e-05 -8.18815e-05 -3.19923e-14)
(8.21214e-05 -6.06964e-05 7.88748e-14)
(8.02902e-05 -3.81222e-05 1.86885e-13)
(7.37453e-05 -1.82069e-05 -6.87532e-14)
(6.06804e-05 -2.69376e-06 -7.24484e-14)
(4.47297e-05 -1.17437e-06 1.5044e-13)
(3.63552e-05 -1.01497e-05 1.26935e-13)
(3.32918e-05 -1.89604e-05 3.56481e-14)
(3.5965e-05 -2.7178e-05 -5.19379e-14)
(4.04496e-05 -3.23367e-05 5.9181e-14)
(4.44858e-05 -3.4405e-05 4.54279e-14)
(4.65991e-05 -3.35187e-05 -3.9819e-15)
(4.63067e-05 -3.04976e-05 -9.37211e-14)
(4.4183e-05 -2.62531e-05 3.96395e-15)
(4.10845e-05 -2.19398e-05 3.73007e-15)
(3.71471e-05 -1.78657e-05 2.06857e-16)
(3.25836e-05 -1.44595e-05 1.51383e-14)
(2.75362e-05 -1.15389e-05 -5.43059e-15)
(2.23506e-05 -9.78533e-06 1.23011e-14)
(1.73342e-05 -8.88074e-06 -2.67244e-14)
(1.32865e-05 -9.94395e-06 -1.53651e-14)
(1.20571e-05 -1.20003e-05 1.55018e-14)
(1.42494e-05 -1.31998e-05 2.09531e-14)
(1.85213e-05 -1.26217e-05 1.25527e-15)
(2.42028e-05 -1.0911e-05 -1.23696e-15)
(3.07056e-05 -8.4449e-06 -3.25999e-15)
(3.13582e-05 -3.9445e-06 6.5429e-16)
(2.69742e-05 -5.38297e-06 -1.04591e-16)
(3.12479e-05 -6.12068e-06 -5.30584e-16)
(3.98559e-05 7.55515e-06 -2.81006e-17)
(4.90619e-05 7.52212e-05 7.79824e-17)
(8.74202e-05 0.000308648 -6.95802e-17)
(2.01596e-05 -0.000464856 -9.2908e-16)
(0.000302811 0.00125219 -6.92494e-16)
(0.000152519 -0.00253877 1.03027e-14)
(0.000176364 0.000503843 -1.08707e-14)
(0.00107818 0.000133135 5.48108e-15)
(4.03579e-05 -0.000111857 1.93828e-15)
(3.2913e-05 -0.000123464 5.06787e-16)
(2.46405e-05 -0.000134242 3.1625e-15)
(1.44479e-05 -0.000143757 -2.45879e-15)
(4.23313e-06 -0.000147261 -1.08436e-15)
(-8.82926e-06 -0.000154415 1.63382e-14)
(-2.42005e-05 -0.000155536 7.60516e-15)
(-3.76e-05 -0.000146427 4.04774e-14)
(-4.75038e-05 -0.000133673 6.79655e-14)
(-5.15045e-05 -0.00011552 -3.20433e-14)
(-4.94824e-05 -9.6835e-05 -7.79475e-15)
(-4.30025e-05 -8.1857e-05 7.50088e-14)
(-3.26773e-05 -7.02718e-05 -1.45507e-13)
(-1.87179e-05 -6.16891e-05 -2.89385e-13)
(-2.17513e-06 -5.5548e-05 1.75229e-13)
(1.71958e-05 -5.15307e-05 2.68355e-13)
(4.86478e-05 -6.45836e-05 -3.55849e-13)
(8.37792e-05 -7.38142e-05 6.0668e-14)
(0.000156429 -5.21367e-05 1.11899e-13)
(0.000290413 -0.000135984 -1.12965e-13)
(0.000365633 -0.000460739 8.56214e-14)
(0.00037807 -0.000916409 -8.73353e-14)
(-0.000159369 -0.00197153 -1.69252e-13)
(-0.00152391 -0.00216487 -5.03168e-14)
(-0.00195815 0.000288275 -1.16205e-13)
(-0.000272727 0.00314002 5.63228e-14)
(0.00721415 0.00176374 -1.62123e-14)
(0.00364557 -0.00141698 -1.09019e-14)
(-0.00469755 -0.00287408 2.13873e-14)
(0.0185179 -0.00542839 4.25639e-14)
(-0.0245683 0.00218316 3.28572e-14)
(0.00192154 0.000423259 -4.52636e-14)
(-5.67185e-05 0.00113496 -1.16438e-13)
(0.000120817 0.00054897 -1.48668e-13)
(-0.00222364 0.000265432 3.37777e-14)
(-0.00165549 -0.000323804 7.32822e-14)
(-0.000583545 0.000284159 8.46297e-14)
(-0.00367433 -0.000460138 3.84861e-14)
(-0.0176078 0.0101816 2.85636e-14)
(4.80022e-05 -0.000101906 8.59491e-15)
(5.64867e-05 -9.44242e-05 -2.0693e-14)
(6.23102e-05 -8.01036e-05 1.04909e-14)
(6.59861e-05 -6.1971e-05 -5.83378e-15)
(6.7937e-05 -4.35641e-05 4.6817e-15)
(6.63226e-05 -2.4962e-05 -7.8182e-14)
(5.82394e-05 -1.32011e-05 -2.9426e-14)
(4.79002e-05 -1.14874e-05 -3.50567e-14)
(4.21351e-05 -1.58355e-05 2.74176e-14)
(4.00102e-05 -2.10584e-05 1.35735e-13)
(4.15696e-05 -2.61594e-05 -3.0359e-14)
(4.43226e-05 -2.98074e-05 -5.88494e-14)
(4.64828e-05 -3.13616e-05 2.50168e-15)
(4.71404e-05 -3.06152e-05 -5.12986e-14)
(4.58898e-05 -2.80973e-05 1.70031e-14)
(4.32992e-05 -2.44589e-05 2.54112e-14)
(4.00998e-05 -2.07579e-05 3.93182e-14)
(3.62956e-05 -1.725e-05 1.5049e-14)
(3.19357e-05 -1.41699e-05 -1.77031e-14)
(2.71332e-05 -1.15673e-05 2.27256e-14)
(2.2271e-05 -9.88611e-06 2.51827e-14)
(1.75729e-05 -9.24853e-06 1.82594e-14)
(1.38678e-05 -1.02929e-05 3.81566e-15)
(1.25583e-05 -1.23323e-05 -1.44098e-14)
(1.43809e-05 -1.36092e-05 1.18017e-14)
(1.82656e-05 -1.33919e-05 3.28035e-15)
(2.37952e-05 -1.16997e-05 -1.1371e-14)
(3.01e-05 -9.27848e-06 1.22343e-15)
(3.10731e-05 -4.57101e-06 -1.18451e-16)
(2.72629e-05 -5.11337e-06 2.05603e-16)
(3.13485e-05 -6.65247e-06 6.67294e-16)
(4.06816e-05 -6.14182e-06 -1.60559e-16)
(5.38983e-05 -2.25592e-05 -2.51279e-16)
(8.7334e-05 -8.7624e-05 5.63598e-16)
(-2.09576e-06 0.000207562 1.39486e-15)
(0.000241873 -5.24069e-05 -1.19157e-14)
(-0.00021476 0.000802851 3.44892e-15)
(0.000377716 -0.000268958 4.42061e-14)
(0.00133699 -0.00043985 3.1052e-14)
(2.61902e-05 -0.000100512 3.09102e-15)
(2.2225e-05 -0.000112781 5.82452e-16)
(1.71454e-05 -0.00012211 -1.12639e-15)
(8.2059e-06 -0.000132397 4.16964e-15)
(-1.89085e-06 -0.000136758 -8.69022e-15)
(-1.35378e-05 -0.00014044 -1.09433e-15)
(-2.74482e-05 -0.000138329 2.35996e-14)
(-3.8688e-05 -0.000131305 -1.11468e-14)
(-4.65313e-05 -0.000120025 -3.96143e-14)
(-4.93502e-05 -0.000105248 2.65385e-14)
(-4.72945e-05 -9.0553e-05 -6.07786e-14)
(-4.17456e-05 -7.91328e-05 -1.50861e-13)
(-3.20439e-05 -7.08392e-05 1.06604e-13)
(-1.90375e-05 -6.47263e-05 3.77167e-13)
(-2.77139e-06 -6.15353e-05 -1.38921e-14)
(1.67712e-05 -6.18784e-05 -4.01369e-13)
(3.53639e-05 -6.4438e-05 3.32534e-13)
(6.26838e-05 -7.02678e-05 2.33369e-13)
(0.000118679 -7.46994e-05 1.24569e-13)
(0.000190312 -0.000142998 5.87363e-14)
(0.00024217 -0.000311148 -2.88419e-14)
(0.000254599 -0.000681282 1.61935e-13)
(-0.000313057 -0.0014373 1.11967e-13)
(-0.00166304 -0.00162351 -1.01885e-14)
(-0.00235908 8.94512e-05 2.14259e-13)
(-0.000764424 0.00224001 -6.57048e-14)
(0.00126111 0.00221285 -7.65304e-15)
(0.00262935 -0.000244315 5.67703e-15)
(0.000944533 -0.00209412 -2.01406e-14)
(-0.00368209 -0.0013632 -2.0816e-14)
(-0.00354747 -0.000187048 -1.52574e-14)
(-0.00119218 0.000372231 4.77779e-14)
(0.000925759 0.00076 -2.27666e-14)
(0.00225029 0.00037443 -1.27989e-13)
(0.00250517 -0.000363208 -2.07578e-14)
(0.022866 -0.00761112 -1.0184e-13)
(-0.00676591 0.00276586 -5.77974e-14)
(-0.00247023 -0.000581737 6.50759e-15)
(-0.0138995 0.00938042 -2.58436e-14)
(3.49426e-05 -9.4487e-05 -9.66503e-15)
(4.21119e-05 -8.91451e-05 1.2194e-14)
(4.92481e-05 -7.73953e-05 -2.61343e-14)
(5.46804e-05 -6.02755e-05 -3.94504e-15)
(5.85918e-05 -4.21058e-05 7.38142e-15)
(5.8709e-05 -2.84258e-05 1.10946e-14)
(5.37061e-05 -1.90255e-05 8.0639e-14)
(4.853e-05 -1.78341e-05 -1.01462e-13)
(4.49618e-05 -1.96503e-05 -3.28009e-14)
(4.40451e-05 -2.24318e-05 -3.11479e-14)
(4.53203e-05 -2.54578e-05 1.17307e-13)
(4.71858e-05 -2.78386e-05 -4.64459e-14)
(4.82791e-05 -2.86668e-05 -4.56716e-15)
(4.78116e-05 -2.77938e-05 1.85391e-14)
(4.57915e-05 -2.53862e-05 1.77852e-14)
(4.27495e-05 -2.2254e-05 1.20879e-14)
(3.94081e-05 -1.91286e-05 -7.68257e-14)
(3.56193e-05 -1.62157e-05 -2.81418e-14)
(3.13955e-05 -1.35314e-05 3.58171e-14)
(2.68004e-05 -1.13448e-05 1.42872e-15)
(2.22255e-05 -9.83871e-06 3.63862e-14)
(1.78596e-05 -9.53367e-06 -1.03902e-14)
(1.44075e-05 -1.06367e-05 1.50662e-15)
(1.30571e-05 -1.27819e-05 2.42355e-14)
(1.44648e-05 -1.43072e-05 -2.0363e-14)
(1.8022e-05 -1.45001e-05 -6.98987e-15)
(2.32715e-05 -1.31311e-05 6.58224e-15)
(2.94362e-05 -1.04601e-05 2.19797e-15)
(3.06535e-05 -5.66035e-06 -1.15942e-18)
(2.7402e-05 -5.75102e-06 -2.57136e-16)
(3.10337e-05 -6.38618e-06 6.37714e-16)
(3.91138e-05 -1.86854e-06 7.49883e-17)
(4.58774e-05 -2.11736e-07 -1.08078e-15)
(5.42723e-05 3.95544e-06 5.42667e-17)
(5.38935e-05 9.54415e-06 -3.16323e-15)
(-1.35593e-06 -0.000175701 7.24258e-15)
(0.000123954 -0.000117852 -1.53646e-15)
(0.000246091 8.8471e-05 -2.47753e-15)
(0.000712631 0.000405174 -4.22939e-14)
(1.89131e-05 -9.28982e-05 1.40113e-15)
(1.582e-05 -0.000105434 1.51054e-15)
(1.04915e-05 -0.000114592 -9.49558e-16)
(1.48631e-06 -0.000122475 -1.91882e-15)
(-7.43474e-06 -0.000125859 -3.8028e-15)
(-1.90145e-05 -0.000130272 1.65054e-14)
(-3.02864e-05 -0.000127515 1.38751e-14)
(-3.95781e-05 -0.00011944 -5.19116e-14)
(-4.55354e-05 -0.000109633 2.17311e-14)
(-4.74305e-05 -9.76342e-05 1.11285e-13)
(-4.57929e-05 -8.53998e-05 4.63177e-14)
(-4.09245e-05 -7.72789e-05 2.13134e-14)
(-3.24861e-05 -7.13437e-05 -1.87882e-13)
(-2.05124e-05 -6.72923e-05 -4.29856e-13)
(-5.37778e-06 -6.55987e-05 -3.04037e-13)
(1.19247e-05 -6.66412e-05 1.20067e-13)
(3.00062e-05 -7.24739e-05 -7.38523e-14)
(5.75824e-05 -8.90748e-05 -3.77115e-13)
(0.000104404 -0.000114041 -1.94585e-13)
(0.00015833 -0.000198308 1.60889e-13)
(0.000190299 -0.000352657 1.6097e-13)
(0.000149942 -0.00063405 -9.33449e-14)
(-0.000282532 -0.00112687 -3.83133e-14)
(-0.00125109 -0.00114202 2.39758e-15)
(-0.00172313 0.000220577 -6.09653e-14)
(-0.000560921 0.00190509 6.32925e-14)
(0.00153736 0.0018156 7.21968e-15)
(0.00264793 -3.5981e-05 4.32049e-15)
(0.00159199 -0.00153356 -4.41671e-15)
(-2.29047e-05 -0.00156673 5.21817e-14)
(-0.00175099 -0.000605606 3.49645e-14)
(-0.00144532 0.000247616 -3.44865e-15)
(-0.000300473 0.000675777 1.13116e-13)
(0.000989314 0.000686671 7.80729e-14)
(0.00062211 0.00225735 -4.04541e-14)
(-0.0143568 0.00214246 6.9418e-14)
(-0.00372409 -0.00112563 5.85357e-14)
(-0.00327815 0.00256184 -3.5051e-14)
(-0.0103935 0.00731179 -2.773e-14)
(2.57648e-05 -8.67145e-05 7.39128e-15)
(3.39653e-05 -8.32411e-05 -1.20441e-14)
(4.19396e-05 -7.05124e-05 3.26935e-15)
(4.91792e-05 -5.5211e-05 6.10928e-14)
(5.20184e-05 -4.33563e-05 3.14461e-15)
(5.20064e-05 -3.0136e-05 1.01651e-13)
(4.92845e-05 -2.27228e-05 1.36656e-13)
(4.69034e-05 -2.20402e-05 -5.29997e-14)
(4.59054e-05 -2.20498e-05 -7.25299e-14)
(4.6097e-05 -2.32427e-05 -5.54113e-14)
(4.76323e-05 -2.49738e-05 -1.02164e-13)
(4.92002e-05 -2.62627e-05 -5.52872e-15)
(4.9646e-05 -2.63844e-05 -4.305e-14)
(4.84828e-05 -2.51248e-05 5.78123e-14)
(4.58378e-05 -2.2769e-05 1.93966e-14)
(4.24416e-05 -1.99936e-05 -3.07512e-14)
(3.89506e-05 -1.74356e-05 -3.26307e-15)
(3.51333e-05 -1.50224e-05 -2.54406e-14)
(3.0964e-05 -1.27827e-05 2.79092e-15)
(2.6545e-05 -1.09006e-05 -1.77681e-14)
(2.22079e-05 -9.71144e-06 -3.338e-14)
(1.81963e-05 -9.56698e-06 1.47958e-14)
(1.49854e-05 -1.07445e-05 -2.76257e-14)
(1.36368e-05 -1.27952e-05 -1.00665e-14)
(1.46702e-05 -1.45343e-05 6.28575e-15)
(1.7867e-05 -1.50037e-05 3.97122e-15)
(2.27606e-05 -1.40635e-05 1.56324e-15)
(2.86941e-05 -1.13439e-05 -1.03508e-15)
(3.01434e-05 -6.67705e-06 -4.35141e-16)
(2.7455e-05 -6.00811e-06 -7.72652e-17)
(3.07825e-05 -6.58763e-06 -1.03048e-15)
(3.86705e-05 -2.73072e-06 5.53526e-16)
(4.60303e-05 -1.43661e-06 3.06423e-15)
(5.55228e-05 -1.21187e-06 5.12424e-17)
(6.76752e-05 -4.48965e-06 2.49803e-15)
(9.37559e-05 -1.29421e-05 -3.42321e-15)
(0.000137028 2.43193e-05 -6.46792e-15)
(0.000227518 9.03722e-05 3.78679e-15)
(0.000318795 0.000601872 -2.25902e-14)
(1.58921e-05 -8.49652e-05 2.41731e-15)
(1.04525e-05 -9.50153e-05 4.02435e-15)
(6.48661e-06 -0.000107722 -1.76074e-16)
(-3.35627e-06 -0.000112486 2.38063e-19)
(-1.30776e-05 -0.000111253 -2.54025e-15)
(-2.23601e-05 -0.00011912 -6.7342e-15)
(-3.3056e-05 -0.000116628 -4.93856e-15)
(-4.13379e-05 -0.000111974 -5.23682e-14)
(-4.58235e-05 -0.000103284 -1.00714e-15)
(-4.64284e-05 -9.13957e-05 1.92803e-14)
(-4.50766e-05 -8.09201e-05 -2.32914e-14)
(-4.20484e-05 -7.43428e-05 1.41246e-13)
(-3.43019e-05 -7.04953e-05 1.49071e-13)
(-2.34808e-05 -6.79089e-05 2.6949e-14)
(-9.59692e-06 -6.73952e-05 2.76872e-13)
(6.62037e-06 -7.00871e-05 -5.76107e-14)
(2.35097e-05 -7.79665e-05 -7.29815e-16)
(4.22134e-05 -9.06709e-05 2.14469e-13)
(7.50382e-05 -0.000118947 9.99261e-14)
(0.000106993 -0.000190413 -2.94233e-14)
(0.000111197 -0.000318226 -1.21911e-13)
(4.30178e-05 -0.000525783 -1.15865e-14)
(-0.000294911 -0.000838933 -9.36598e-14)
(-0.000986392 -0.000784392 -8.10379e-14)
(-0.00129755 0.000252828 4.88751e-14)
(-0.000396647 0.00152635 -3.10927e-14)
(0.00113938 0.00148722 -5.64889e-14)
(0.00171885 8.39641e-05 6.45159e-15)
(0.000858715 -0.00110727 -3.11512e-15)
(-0.000480683 -0.00112004 -3.83249e-15)
(-0.00130533 -0.000423649 8.20619e-14)
(-0.00138498 0.000287342 -2.93318e-14)
(-0.000829497 0.000657644 -3.90426e-14)
(3.98011e-05 0.000636486 2.27062e-13)
(-0.000380361 0.000641869 3.7074e-14)
(-0.00941813 0.00551969 -8.23521e-14)
(0.00452494 -0.0018667 -1.57867e-14)
(-0.012083 0.00584933 2.61655e-14)
(-0.00488415 0.00176129 -4.9996e-15)
(2.24337e-05 -8.00718e-05 -1.31444e-14)
(2.96246e-05 -7.51881e-05 -3.10177e-14)
(3.82332e-05 -6.50084e-05 5.06889e-14)
(4.05783e-05 -5.39996e-05 9.71644e-14)
(4.5599e-05 -4.13932e-05 6.43189e-14)
(4.68761e-05 -3.15899e-05 -1.65789e-13)
(4.60083e-05 -2.70459e-05 -1.14058e-13)
(4.46714e-05 -2.44559e-05 -3.87775e-14)
(4.51403e-05 -2.2979e-05 7.08572e-14)
(4.69041e-05 -2.34736e-05 7.32029e-14)
(4.88135e-05 -2.44204e-05 2.72944e-14)
(5.04376e-05 -2.4956e-05 2.50398e-14)
(5.05599e-05 -2.43931e-05 -2.67405e-14)
(4.89949e-05 -2.26436e-05 -8.73373e-14)
(4.59659e-05 -2.02184e-05 1.34148e-14)
(4.23604e-05 -1.77574e-05 2.7094e-14)
(3.87129e-05 -1.56486e-05 1.84378e-14)
(3.48374e-05 -1.36596e-05 5.10859e-14)
(3.06778e-05 -1.18473e-05 -2.84807e-14)
(2.63954e-05 -1.02351e-05 -2.12613e-14)
(2.22933e-05 -9.35597e-06 -1.53181e-14)
(1.85685e-05 -9.37308e-06 -3.15587e-15)
(1.56035e-05 -1.05805e-05 2.46382e-14)
(1.42131e-05 -1.2564e-05 1.6455e-14)
(1.49709e-05 -1.44346e-05 1.90875e-14)
(1.77564e-05 -1.52813e-05 6.47006e-15)
(2.23253e-05 -1.47292e-05 2.82467e-17)
(2.78981e-05 -1.23202e-05 2.21314e-15)
(2.95842e-05 -7.53614e-06 -3.08461e-16)
(2.739e-05 -6.43958e-06 3.0212e-16)
(3.05374e-05 -6.57619e-06 -3.7982e-16)
(3.81793e-05 -2.78867e-06 3.1849e-17)
(4.56763e-05 -7.57865e-07 -1.76e-15)
(5.43184e-05 1.68031e-06 4.2401e-16)
(6.51836e-05 3.91067e-06 4.63044e-15)
(8.64838e-05 -2.39292e-06 -1.09979e-15)
(0.000135691 4.61607e-06 8.89104e-16)
(0.000245558 5.01566e-05 -8.14319e-15)
(0.000667443 0.000191848 7.93267e-15)
(1.36231e-05 -7.8148e-05 -2.94633e-15)
(8.56198e-06 -8.66178e-05 1.78893e-16)
(3.94149e-06 -9.78904e-05 -1.65406e-15)
(-4.51175e-06 -0.000106043 -1.5231e-15)
(-1.51082e-05 -0.000103805 9.00198e-15)
(-2.54497e-05 -0.000100789 -2.93907e-15)
(-3.39291e-05 -0.000104619 2.92743e-14)
(-4.18774e-05 -0.000102924 2.04787e-14)
(-4.57202e-05 -9.66179e-05 5.16009e-15)
(-4.74023e-05 -8.78058e-05 -1.70687e-15)
(-4.60354e-05 -7.7116e-05 7.12003e-15)
(-4.32684e-05 -7.18135e-05 -3.14154e-14)
(-3.77292e-05 -6.9116e-05 -1.37085e-13)
(-2.7507e-05 -6.71609e-05 3.64127e-14)
(-1.49674e-05 -6.76278e-05 1.88141e-14)
(-1.6784e-07 -7.11268e-05 5.2527e-14)
(1.45549e-05 -7.89588e-05 -4.53486e-16)
(3.00167e-05 -9.46935e-05 -9.40642e-14)
(5.33127e-05 -0.000128453 -1.38998e-13)
(7.21854e-05 -0.000194026 -1.19687e-13)
(5.97436e-05 -0.000299778 -6.9697e-14)
(-1.97654e-05 -0.000453314 -5.64247e-14)
(-0.000292965 -0.00064426 1.91328e-14)
(-0.000794102 -0.000537377 6.72242e-14)
(-0.00100271 0.000274034 -3.61852e-14)
(-0.000309857 0.00124483 -1.37658e-14)
(0.000863817 0.00122048 4.44587e-14)
(0.00130527 0.000112999 2.10504e-15)
(0.000599687 -0.000861792 2.45309e-14)
(-0.00044723 -0.000900344 -3.05755e-14)
(-0.00104168 -0.000315835 -1.01146e-13)
(-0.00105544 0.000299383 -5.51578e-14)
(-0.000698574 0.000624009 3.49524e-14)
(-9.55078e-05 0.000605169 -1.50208e-14)
(0.000355755 0.000353959 2.03724e-14)
(0.000945732 -0.000773862 3.04292e-14)
(-0.000442457 -0.00121525 5.39703e-15)
(0.00539871 -0.00576605 -1.69097e-14)
(0.00515766 0.00385992 4.25592e-14)
(1.89266e-05 -7.31768e-05 -2.40514e-14)
(2.59997e-05 -6.92111e-05 1.5062e-14)
(3.2148e-05 -6.20397e-05 4.42746e-14)
(3.62125e-05 -5.10423e-05 1.44969e-14)
(3.88846e-05 -3.9679e-05 1.02133e-13)
(4.21225e-05 -3.22213e-05 1.87091e-14)
(4.25039e-05 -2.87583e-05 -2.79247e-15)