/*--------------------------------*- C++ -*----------------------------------*\
| =========                 |                                                 |
| \\      /  F ield         | OpenFOAM: The Open Source CFD Toolbox           |
|  \\    /   O peration     | Version:  2306                                  |
|   \\  /    A nd           | Website:  www.openfoam.com                      |
|    \\/     M anipulation  |                                                 |
\*---------------------------------------------------------------------------*/
FoamFile
{
    version     2.0;
    format      ascii;
    arch        "LSB;label=32;scalar=64";
    class       volSymmTensorField;
    location    "950";
    object      turbulenceProperties:devReff;
}
// * * * * * * * * * * * * * * * * * * * * * * * * * * * * * * * * * * * * * //

dimensions      [0 2 -2 0 0 0 0];

internalField   nonuniform List<symmTensor> 
10720
(
(0.00163714 0.0042578 -9.50054e-22 -0.00177373 -2.23883e-20 0.000136594)
(0.00238853 0.00488004 -1.24438e-22 -0.00248647 1.40368e-19 9.79406e-05)
(0.00361106 0.00546063 -2.7648e-20 -0.00380828 -4.34989e-19 0.000197225)
(0.00524593 0.00621489 1.19073e-19 -0.00549191 8.78824e-19 0.00024598)
(0.00742492 0.00687341 -2.25916e-19 -0.00769357 -8.34226e-19 0.000268644)
(0.010404 0.00726188 -1.72317e-19 -0.0107954 -4.50646e-19 0.000391443)
(0.014299 0.0073746 3.25999e-19 -0.0147853 1.25251e-18 0.000486258)
(0.0191877 0.00685906 -8.31323e-19 -0.0197702 -2.26133e-18 0.000582587)
(0.0252391 0.00535157 -2.0651e-19 -0.0259856 6.04419e-19 0.000746565)
(0.0325645 0.00260624 6.13778e-19 -0.033465 1.25948e-18 0.000900456)
(0.0413422 -0.00189799 1.57979e-18 -0.0424337 5.77707e-19 0.00109149)
(0.0519597 -0.008734 -3.5524e-18 -0.0532775 -3.29928e-18 0.00131783)
(0.0649577 -0.0188219 6.72791e-19 -0.0665509 8.68397e-19 0.00159319)
(0.081247 -0.0337493 2.68636e-18 -0.0832018 1.27312e-18 0.00195483)
(0.102368 -0.056169 -4.07746e-18 -0.104834 -6.36945e-18 0.00246626)
(0.13053 -0.0904044 -4.36536e-18 -0.133705 -2.58502e-18 0.00317454)
(0.169882 -0.14506 1.92127e-17 -0.174189 1.779e-17 0.00430665)
(0.224284 -0.232429 1.78591e-17 -0.230164 3.3791e-17 0.00588054)
(0.310931 -0.388886 -3.53877e-17 -0.319546 -5.48545e-17 0.00861515)
(0.426445 -0.641749 -1.3778e-18 -0.43862 1.45538e-17 0.0121748)
(0.666816 -1.21421 -2.72235e-17 -0.686212 5.20477e-17 0.0193953)
(0.945617 -2.11462 -1.24423e-17 -0.971734 4.18867e-17 0.0261179)
(1.76575 -5.1291 -1.43151e-16 -1.81788 -6.41943e-16 0.0521281)
(2.42861 -10.3115 3.31445e-16 -2.51193 5.58944e-16 0.0833223)
(1.52832 -11.6476 4.2374e-17 -1.56937 -7.12358e-16 0.0410495)
(0.526358 -11.2303 3.65824e-16 -0.514978 5.81118e-16 -0.0113798)
(-0.14586 -11.0474 -8.18358e-17 0.175581 -7.84282e-17 -0.0297217)
(-0.664931 -11.231 2.74527e-16 0.689602 2.30545e-16 -0.0246716)
(-1.13626 -11.4446 7.29168e-16 1.15257 1.20858e-15 -0.0163096)
(-1.5717 -11.4563 4.00598e-16 1.57995 1.99786e-15 -0.00824932)
(-1.95786 -11.2411 -1.41157e-15 1.95608 -1.93169e-15 0.00177486)
(-2.27361 -10.8343 -4.74896e-16 2.2631 -7.2621e-16 0.0105085)
(-2.4937 -10.2209 -3.23559e-17 2.47875 -4.36845e-15 0.0149495)
(-2.6053 -9.41434 -2.58328e-15 2.58992 -7.30016e-15 0.0153757)
(-2.58946 -8.40626 1.00637e-15 2.57526 9.23258e-16 0.0142052)
(-2.43555 -7.22762 1.22006e-15 2.42453 1.14397e-15 0.0110157)
(-2.07423 -5.67394 -1.22408e-16 2.06079 -5.25111e-16 0.0134416)
(-1.58673 -4.172 -1.51871e-15 1.58502 -2.43791e-17 0.0017156)
(-0.472663 -0.926859 -1.88626e-16 0.473455 -1.90337e-15 -0.000791732)
(0.000968053 0.00371303 2.394e-21 -0.00101994 5.55972e-20 5.18856e-05)
(0.000549691 0.00319714 -3.57156e-21 -0.000639717 2.56861e-23 9.00255e-05)
(0.000179308 0.0026111 -1.9566e-20 -0.000226375 -1.37148e-19 4.70667e-05)
(-6.7079e-05 0.00208971 4.98103e-21 3.29509e-05 9.36022e-20 3.41281e-05)
(-0.00017926 0.0015969 3.91899e-21 0.000160973 -1.82536e-20 1.82876e-05)
(-0.000172607 0.0011672 -3.38577e-20 0.000173003 1.10833e-19 -3.95951e-07)
(-8.40108e-05 0.000835305 -2.02266e-19 0.000108119 1.62794e-19 -2.4108e-05)
(5.47815e-05 0.000636924 1.39726e-19 -1.70831e-05 -5.51809e-20 -3.76983e-05)
(0.000231359 0.000621222 2.26703e-19 -0.000204965 -1.14671e-19 -2.63942e-05)
(0.000471315 0.000742215 -1.54452e-19 -0.000468024 3.90401e-20 -3.29059e-06)
(0.000812376 0.00102677 -3.88388e-20 -0.00082302 1.83172e-19 1.06435e-05)
(0.00130644 0.0015664 2.49336e-19 -0.00132442 1.03714e-19 1.79829e-05)
(0.00202428 0.00252564 4.59462e-19 -0.00205445 -7.15378e-20 3.01701e-05)
(0.00305564 0.00413712 -8.13986e-21 -0.00310694 -2.58799e-19 5.13003e-05)
(0.00447308 0.0066446 -8.0449e-20 -0.00454802 -1.73497e-19 7.49413e-05)
(0.00629922 0.0103377 2.69047e-20 -0.00640792 -5.82062e-20 0.000108705)
(0.00863912 0.015635 -1.97154e-19 -0.00878488 6.70123e-19 0.000145754)
(0.0117401 0.0234245 7.4238e-19 -0.0119383 2.75951e-19 0.000198174)
(0.0161482 0.03545 3.28026e-19 -0.0164165 -1.21849e-18 0.000268372)
(0.0226884 0.0549987 -1.32086e-18 -0.0230789 -3.46441e-19 0.000390542)
(0.0329407 0.0886168 -4.44084e-18 -0.0335316 -2.02925e-18 0.000590926)
(0.0490727 0.148528 -3.35499e-18 -0.0500521 -8.97241e-19 0.000979406)
(0.075704 0.263752 6.22756e-18 -0.0774818 -5.78847e-19 0.00177781)
(0.116281 0.487768 -7.46696e-18 -0.119918 1.2081e-18 0.00363662)
(0.183242 0.979449 4.06953e-18 -0.191089 -7.22399e-18 0.00784626)
(0.277943 2.01763 -1.26414e-16 -0.294318 2.61654e-18 0.016375)
(0.410053 4.53272 -7.83242e-17 -0.448528 1.22989e-17 0.038475)
(0.421167 9.36903 6.59253e-17 -0.501475 8.24817e-19 0.0803079)
(0.00812321 13.292 8.69844e-18 -0.112266 -1.25653e-19 0.104143)
(-0.628749 14.9598 6.2859e-17 0.530418 4.36158e-19 0.0983315)
(-1.26785 15.3986 -4.37184e-16 1.18561 -4.89505e-18 0.0822438)
(-1.85323 15.4185 1.57309e-16 1.78589 2.09288e-17 0.0673381)
(-2.3774 15.2563 -1.88903e-15 2.3216 -1.53197e-16 0.0557948)
(-2.83317 14.9562 -3.45856e-15 2.78626 -2.36998e-16 0.0469018)
(-3.21856 14.534 1.05846e-15 3.17823 1.08381e-16 0.040327)
(-3.53766 14.011 1.02459e-15 3.50239 1.64289e-16 0.0352632)
(-3.77532 13.2878 1.45055e-15 3.74324 2.66683e-16 0.0320885)
(-3.91955 12.4706 -2.90394e-16 3.88955 -3.67444e-17 0.0299972)
(-3.64024 10.0666 -4.55472e-15 3.63363 -7.8421e-16 0.00660711)
(0.000579433 -0.000460528 1.22857e-22 -0.00052005 4.00306e-21 -5.93829e-05)
(0.000492605 -0.000547355 2.90331e-20 -0.000425489 7.03537e-20 -6.7116e-05)
(0.000371416 -0.000622949 -2.692e-20 -0.000291097 -4.74605e-20 -8.03189e-05)
(0.000250519 -0.000652178 -1.81361e-20 -0.00015859 -5.16564e-20 -9.1929e-05)
(0.00013315 -0.00064511 1.2227e-19 -3.25565e-05 2.37308e-19 -0.000100593)
(2.3141e-05 -0.000610486 4.76159e-20 8.61802e-05 7.38713e-20 -0.000109321)
(-6.029e-05 -0.000551403 2.2581e-19 0.000177198 2.07449e-19 -0.000116908)
(-0.000116636 -0.000479008 -1.16705e-19 0.000238471 -2.24588e-20 -0.000121835)
(-0.000149303 -0.000404777 1.64896e-19 0.000274582 1.14263e-19 -0.000125279)
(-0.000158011 -0.000336002 -5.85657e-21 0.000285259 2.50064e-22 -0.000127247)
(-0.000150112 -0.000278307 -2.23006e-19 0.000277009 -1.90525e-19 -0.000126896)
(-0.000132662 -0.00023995 2.87171e-19 0.00025889 3.57498e-19 -0.000126228)
(-0.000110888 -0.00022612 1.76603e-19 0.000240754 8.8744e-20 -0.000129866)
(-8.62528e-05 -0.000245788 -3.68422e-20 0.000231114 1.99825e-20 -0.000144861)
(-4.85451e-05 -0.000344622 -2.26873e-19 0.000241477 3.73462e-20 -0.000192932)
(6.24976e-05 -0.000658624 4.77382e-19 0.000258298 5.46285e-19 -0.000320795)
(0.000455313 -0.00154849 8.55337e-19 0.00014212 -9.35306e-19 -0.000597433)
(0.0015024 -0.00354968 -4.41954e-18 -0.000499309 -5.72834e-18 -0.00100309)
(0.00420314 -0.00867183 5.05739e-19 -0.00253608 7.46129e-18 -0.00166706)
(0.0104747 -0.0211357 7.36547e-18 -0.00789326 -2.06852e-18 -0.00258147)
(0.0295344 -0.0626408 1.55139e-17 -0.0251169 6.14804e-18 -0.00441747)
(0.0740769 -0.174702 -2.35671e-17 -0.0678591 -2.25678e-17 -0.00621786)
(0.195461 -0.546206 7.43488e-17 -0.187656 1.87661e-16 -0.00780543)
(0.504294 -1.78317 1.58291e-19 -0.501554 -1.54642e-16 -0.00273993)
(0.747756 -3.54111 -2.72878e-16 -0.771497 1.69402e-16 0.0237407)
(0.788887 -5.3873 -9.70807e-17 -0.843193 -6.59184e-16 0.0543062)
(0.603374 -7.14361 1.17753e-18 -0.675106 7.56356e-17 0.071732)
(0.204488 -8.39105 -2.94479e-16 -0.279862 -4.44694e-16 0.0753743)
(-0.295499 -8.63475 -4.93702e-16 0.229675 -2.83284e-15 0.0658242)
(-0.70719 -7.89709 -1.67052e-16 0.666123 -3.54715e-15 0.0410674)
(-0.931391 -6.69199 5.23006e-16 0.923091 4.8973e-15 0.00830051)
(-0.998424 -5.47824 -9.55298e-16 1.01664 -3.75752e-17 -0.0182115)
(-0.98452 -4.49846 -7.18937e-15 1.01434 1.34211e-15 -0.0298149)
(-0.930916 -3.75361 8.77244e-15 0.960565 1.59523e-14 -0.029649)
(-0.863879 -3.18649 -1.48871e-15 0.887894 -8.63773e-16 -0.0240149)
(-0.781611 -2.74354 3.42274e-15 0.802099 -4.99334e-15 -0.0204881)
(-0.730884 -2.43229 -1.50362e-15 0.744258 1.52305e-15 -0.0133735)
(-0.560385 -2.13708 3.24927e-15 0.595677 4.02271e-16 -0.0352922)
(-0.787266 -2.25518 5.3629e-15 0.698309 7.29136e-15 0.0889567)
(0.000645655 -0.00034501 9.36998e-21 -0.000595427 2.31774e-20 -5.02283e-05)
(0.000684421 -0.000224612 -1.27043e-20 -0.00063747 -9.60292e-20 -4.69503e-05)
(0.000691694 -7.63945e-05 -1.86441e-20 -0.000654664 -1.11219e-19 -3.70304e-05)
(0.000654249 8.66809e-05 -7.12347e-21 -0.000627665 1.65311e-19 -2.65843e-05)
(0.000565078 0.000235301 1.92652e-21 -0.000550957 4.34555e-20 -1.41215e-05)
(0.000429276 0.000348908 3.78248e-20 -0.000425619 -1.45276e-19 -3.65735e-06)
(0.000271226 0.00040598 7.02572e-20 -0.00027464 -2.2467e-19 3.41363e-06)
(0.000131122 0.000406958 -3.17857e-19 -0.000140194 8.39336e-21 9.07269e-06)
(2.28721e-05 0.000374119 4.88573e-20 -3.33816e-05 2.16475e-19 1.05095e-05)
(-6.6316e-05 0.000316361 1.24467e-21 6.00908e-05 -1.29264e-19 6.22511e-06)
(-0.000121767 0.000243629 -8.32677e-20 0.000123187 -7.895e-20 -1.42008e-06)
(-0.000141757 0.000176672 -6.00706e-20 0.00015008 -8.49752e-20 -8.32282e-06)
(-0.000139971 0.000124397 -1.12035e-20 0.000152778 1.86594e-20 -1.28068e-05)
(-0.00012757 8.66287e-05 3.75293e-20 0.000142839 1.00991e-19 -1.52691e-05)
(-0.000111044 6.08898e-05 6.47341e-20 0.000127502 2.50097e-20 -1.64582e-05)
(-9.41908e-05 4.40025e-05 -9.21267e-20 0.000110951 -4.69918e-21 -1.67605e-05)
(-7.86826e-05 3.33876e-05 8.27055e-20 9.51006e-05 8.5427e-21 -1.64179e-05)
(-6.53908e-05 2.68724e-05 -9.84908e-21 8.10452e-05 -2.88779e-20 -1.56544e-05)
(-5.43344e-05 2.27331e-05 -3.38117e-20 6.89939e-05 5.37891e-20 -1.46595e-05)
(-4.52858e-05 1.99641e-05 -2.57776e-20 5.8919e-05 2.80595e-20 -1.36333e-05)
(-3.79975e-05 1.79326e-05 -6.20005e-20 5.07309e-05 6.97505e-20 -1.27334e-05)
(-3.26724e-05 1.64692e-05 -8.7321e-20 4.49201e-05 4.53008e-20 -1.22476e-05)
(-2.91895e-05 1.55186e-05 -1.25798e-19 4.16893e-05 1.08381e-20 -1.24997e-05)
(-2.68697e-05 1.54958e-05 5.6107e-20 4.05156e-05 5.32845e-21 -1.36459e-05)
(-2.46032e-05 1.72629e-05 -3.99457e-21 3.96875e-05 5.4775e-21 -1.50843e-05)
(-0.000235311 0.000213506 5.26708e-19 0.000404616 1.37781e-19 -0.000169305)
(-0.0011975 0.00135689 2.6967e-18 0.0021678 -1.92566e-19 -0.000970299)
(-0.00866895 0.0119941 1.08354e-18 0.0162507 -4.51511e-19 -0.00758179)
(-0.0262269 0.0459314 -7.5414e-19 0.0499595 1.03219e-19 -0.0237325)
(-0.0449443 0.102717 4.96453e-17 0.0849991 2.01603e-18 -0.0400548)
(-0.0579723 0.170678 4.02654e-16 0.105298 9.72209e-18 -0.0473253)
(-0.0659771 0.235243 2.39535e-16 0.111231 1.31173e-17 -0.0452536)
(-0.0730169 0.289382 1.76247e-15 0.11202 1.20944e-16 -0.0390026)
(-0.0819869 0.33494 2.54475e-15 0.11474 1.69288e-16 -0.032753)
(-0.0941524 0.375376 -5.70581e-16 0.122123 -9.71758e-17 -0.0279709)
(-0.108449 0.415565 -4.90973e-16 0.133604 -8.61549e-17 -0.025155)
(-0.128785 0.45619 -1.22519e-15 0.151573 -5.15114e-16 -0.0227883)
(-0.147322 0.552324 -2.52523e-15 0.17417 -3.45237e-18 -0.026848)
(-0.207654 0.775772 -2.03917e-15 0.197452 1.35852e-15 0.0102021)
(0.000333681 -0.000312808 1.72579e-21 -0.000360069 2.38757e-21 2.63878e-05)
(0.00025836 -0.000372282 -2.7296e-20 -0.000290235 -6.63199e-20 3.1875e-05)
(0.00016085 -0.000413559 -6.02087e-21 -0.000197977 -3.03305e-21 3.71263e-05)
(5.20705e-05 -0.000426362 2.27883e-20 -9.69438e-05 4.92238e-20 4.48733e-05)
(-5.44257e-05 -0.000413077 -7.20971e-20 3.54566e-06 -1.46642e-19 5.088e-05)
(-0.000154783 -0.000372457 -8.20729e-20 9.7908e-05 -1.34513e-19 5.68754e-05)
(-0.000238945 -0.000308489 -1.66416e-19 0.000175434 -2.45978e-19 6.35111e-05)
(-0.0003 -0.000230744 -1.34057e-20 0.000231133 -1.99281e-21 6.88671e-05)
(-0.000337765 -0.000145421 -7.30691e-20 0.000264305 -1.74014e-19 7.34608e-05)
(-0.000352964 -6.11088e-05 3.05788e-19 0.000275454 3.47969e-19 7.75099e-05)
(-0.000348657 1.659e-05 -5.00762e-20 0.000268535 6.81113e-20 8.01224e-05)
(-0.000331381 8.3915e-05 3.41326e-20 0.000250346 2.10023e-20 8.10348e-05)
(-0.000307321 0.000139288 -2.33528e-19 0.00022751 -2.97221e-19 7.98114e-05)
(-0.000281376 0.000184867 1.50381e-19 0.00020415 -1.39607e-20 7.72259e-05)
(-0.000254093 0.000218801 4.36506e-20 0.000181605 1.35458e-19 7.24883e-05)
(-0.000223478 0.000237245 5.33224e-20 0.000158659 2.55915e-20 6.48193e-05)
(-0.000180031 0.000227925 -2.41566e-19 0.000128085 -1.40694e-19 5.19464e-05)
(-0.000148151 0.000217072 2.02454e-19 0.000106936 1.50916e-19 4.12149e-05)
(-9.77615e-05 0.000161435 4.84397e-20 7.25563e-05 6.32981e-22 2.52052e-05)
(-0.000155674 0.0002806 -3.6e-19 0.000120413 -5.41623e-20 3.52611e-05)
(-7.24765e-05 0.000138864 2.10708e-19 5.90171e-05 -8.27522e-20 1.34594e-05)
(-0.000126104 0.000249235 1.38796e-20 0.000109644 2.37968e-19 1.64597e-05)
(-1.0215e-05 1.16733e-05 4.5268e-20 1.09054e-05 -6.68594e-20 -6.90353e-07)
(0.00133678 -0.00497752 -2.42657e-18 -0.00107763 -2.59291e-18 -0.00025915)
(0.0122514 -0.0541595 4.4838e-18 -0.0104126 1.58295e-17 -0.00183877)
(0.0322235 -0.193489 -2.85882e-17 -0.0280501 7.82276e-18 -0.00417336)
(0.0536023 -0.494364 1.48485e-17 -0.0475279 1.15375e-18 -0.00607443)
(0.0638612 -1.1136 -1.42998e-17 -0.0566197 7.63533e-17 -0.00724151)
(0.0252744 -2.20166 -4.40664e-16 -0.018456 2.46387e-16 -0.00681836)
(-0.12011 -3.63381 2.17113e-16 0.12331 3.53427e-16 -0.00320041)
(-0.387522 -4.91592 1.56414e-15 0.38232 -5.8695e-16 0.00520257)
(-0.692049 -5.52511 -2.76516e-15 0.677622 2.16265e-15 0.0144266)
(-0.90574 -5.3679 5.13811e-16 0.889993 9.32807e-15 0.0157473)
(-0.983228 -4.7876 -4.86499e-17 0.974821 -6.36783e-15 0.00840705)
(-0.964946 -4.12851 3.05763e-15 0.963468 -2.30087e-15 0.00147798)
(-0.878564 -3.52389 -1.43663e-14 0.881542 5.20359e-16 -0.00297747)
(-0.798627 -3.05354 4.9583e-15 0.797707 -1.62567e-15 0.00092004)
(-0.5315 -2.55647 5.13624e-15 0.547583 -1.52187e-15 -0.0160832)
(-0.843919 -2.81463 -1.0022e-14 0.825916 2.90318e-15 0.0180033)
(0.000395295 -0.000236804 -3.54253e-21 -0.000419381 -6.74349e-21 2.40862e-05)
(0.000435596 -0.000154352 -1.34281e-20 -0.000454967 -1.89999e-20 1.93711e-05)
(0.000460048 -5.32795e-05 5.56879e-20 -0.000474973 1.20065e-19 1.49256e-05)
(0.000454763 5.43796e-05 1.14453e-20 -0.000464206 -1.35568e-20 9.44313e-06)
(0.000415687 0.000160468 7.89577e-21 -0.000421152 -8.89555e-20 5.46419e-06)
(0.000342125 0.00024805 -2.46539e-20 -0.000344106 6.37276e-20 1.98095e-06)
(0.000244197 0.00030301 2.37581e-20 -0.000243891 1.44099e-19 -3.06875e-07)
(0.000141061 0.000319908 1.56358e-19 -0.000141807 1.67851e-19 7.46261e-07)
(4.8137e-05 0.000309274 5.31698e-20 -4.95979e-05 -1.33522e-19 1.46092e-06)
(-2.83435e-05 0.000273935 1.18442e-19 2.7288e-05 7.01953e-20 1.05542e-06)
(-7.85703e-05 0.000221402 -8.35355e-20 7.72411e-05 2.14691e-20 1.32923e-06)
(-0.00010266 0.000166969 -1.20563e-20 0.000100154 7.06291e-20 2.50591e-06)
(-0.000108698 0.000119366 5.25972e-21 0.000104634 -6.34549e-20 4.06421e-06)
(-0.000104073 8.10066e-05 1.1335e-19 9.83162e-05 -7.97961e-20 5.75726e-06)
(-9.40452e-05 5.20544e-05 8.56323e-21 8.68707e-05 -1.25373e-20 7.17459e-06)
(-8.20396e-05 3.1043e-05 -1.26635e-20 7.36758e-05 5.23561e-20 8.36375e-06)
(-7.02287e-05 1.64115e-05 8.11347e-20 6.10087e-05 -9.58407e-20 9.22005e-06)
(-5.97404e-05 6.3148e-06 1.31939e-20 4.98982e-05 1.15877e-20 9.84215e-06)
(-5.10627e-05 -7.62342e-07 9.35631e-20 4.08714e-05 -6.54339e-21 1.01912e-05)
(-4.39374e-05 -6.08769e-06 1.00026e-19 3.34928e-05 2.24109e-20 1.04446e-05)
(-3.80777e-05 -1.0408e-05 2.55856e-19 2.74928e-05 -3.37973e-20 1.05849e-05)
(-3.29294e-05 -1.44531e-05 3.31047e-19 2.21557e-05 -5.00794e-20 1.07737e-05)
(-2.77599e-05 -1.86722e-05 1.96865e-19 1.66898e-05 1.70543e-20 1.10701e-05)
(-2.10892e-05 -2.26158e-05 4.53302e-20 9.23591e-06 -9.2706e-21 1.18533e-05)
(-1.29581e-05 -2.48037e-05 -4.86227e-20 -2.34516e-07 2.34843e-20 1.31926e-05)
(-4.80908e-06 -2.40848e-05 1.81522e-19 -9.4375e-06 -2.94971e-20 1.42466e-05)
(2.16948e-06 -2.25522e-05 -4.88549e-20 -1.80223e-05 -4.75408e-21 1.58529e-05)
(5.47535e-06 -1.38325e-05 -3.13945e-20 -1.76537e-05 6.47231e-22 1.21783e-05)
(5.62363e-05 -7.33792e-05 2.76157e-20 -0.000143674 -8.68593e-22 8.7438e-05)
(0.000481013 -0.000275628 -1.44016e-18 -0.00111255 -5.45001e-20 0.000631533)
(0.00145033 0.000425598 -8.6502e-18 -0.00322072 -7.88793e-20 0.00177039)
(0.00231357 0.00468904 -5.48355e-17 -0.00521488 -3.18047e-18 0.00290131)
(0.00185831 0.0154474 -1.3433e-16 -0.00506982 -4.43488e-18 0.00321152)
(-0.000686281 0.0342908 -3.34074e-16 -0.00190548 -2.28745e-17 0.00259176)
(-0.00552588 0.0608578 -8.5504e-16 0.00398048 -7.65399e-17 0.0015454)
(-0.0113218 0.092972 2.15595e-16 0.0108145 -1.73757e-17 0.000507284)
(-0.0190769 0.127611 -1.17301e-15 0.0190336 2.11049e-16 4.32358e-05)
(-0.00964285 0.154104 2.94736e-15 0.0104754 5.32921e-16 -0.00083253)
(-0.0374652 0.261204 4.63719e-15 0.0294839 9.50704e-16 0.00798129)
(0.00030628 -0.000258223 9.51569e-21 -0.000296876 1.62784e-20 -9.40394e-06)
(0.000259298 -0.000306082 -1.32542e-20 -0.000248912 -2.38931e-20 -1.03863e-05)
(0.000195911 -0.00034741 -6.02783e-21 -0.000182639 -3.32171e-21 -1.32724e-05)
(0.000125024 -0.000374211 7.16065e-20 -0.000109146 1.04795e-19 -1.5878e-05)
(5.17748e-05 -0.000382635 4.5507e-20 -3.28945e-05 8.24868e-20 -1.88803e-05)
(-2.12931e-05 -0.000372943 5.77213e-20 4.3669e-05 1.10845e-19 -2.23759e-05)
(-8.66745e-05 -0.000347085 8.81562e-20 0.000112589 1.01992e-19 -2.59149e-05)
(-0.000139539 -0.000308085 -5.05818e-20 0.000168994 -7.85516e-20 -2.94547e-05)
(-0.000178415 -0.000260562 -1.80919e-19 0.00021168 -1.79248e-19 -3.32644e-05)
(-0.000202004 -0.000209912 2.34922e-19 0.000238693 1.323e-19 -3.66891e-05)
(-0.000211574 -0.000160037 1.97567e-19 0.000251484 1.67323e-19 -3.99103e-05)
(-0.000209291 -0.000114101 2.55705e-19 0.00025182 1.22495e-19 -4.25287e-05)
(-0.000197727 -7.42119e-05 -4.2085e-19 0.000241972 -1.34781e-19 -4.42447e-05)
(-0.000179866 -4.12316e-05 -3.58074e-19 0.000224685 -2.40538e-19 -4.4819e-05)
(-0.000157745 -1.50515e-05 4.73827e-19 0.000202218 1.49034e-19 -4.44735e-05)
(-0.000133075 7.471e-06 9.57356e-20 0.000175229 5.89554e-20 -4.21545e-05)
(-0.000107595 2.66257e-05 -7.09839e-20 0.000145737 7.32643e-21 -3.81415e-05)
(-8.462e-05 4.29437e-05 -2.29714e-19 0.000117611 -1.50499e-19 -3.29907e-05)
(-6.13995e-05 5.41443e-05 5.1304e-20 8.6187e-05 -1.96843e-20 -2.47875e-05)
(-4.61021e-05 6.27806e-05 2.14608e-19 6.32445e-05 6.62108e-20 -1.71425e-05)
(-3.83542e-05 7.14057e-05 -2.70709e-19 4.94071e-05 -7.78655e-20 -1.10529e-05)
(-4.07808e-05 9.48445e-05 1.45399e-19 4.9074e-05 2.07688e-20 -8.29319e-06)
(-3.7437e-05 0.000112384 -4.38699e-20 4.35081e-05 -9.51228e-21 -6.0711e-06)
(-0.000263431 0.00119882 -9.30761e-19 0.000314337 4.56494e-19 -5.09066e-05)
(-0.000610236 0.0065767 3.65139e-18 0.000889547 -1.16544e-18 -0.000279311)
(3.78369e-06 9.54822e-05 -5.54953e-20 6.0135e-07 7.36395e-20 -4.38504e-06)
(0.000231793 0.00120203 1.03069e-20 -0.00016624 -2.37482e-20 -6.55532e-05)
(0.00105091 0.00144147 1.94208e-18 -0.000879952 -6.89543e-19 -0.000170955)
(0.00476031 -0.0115688 7.06992e-18 -0.00419558 1.78897e-17 -0.000564727)
(0.010117 -0.110056 2.72299e-17 -0.00885835 -1.23303e-16 -0.00125868)
(-0.00035831 -0.479028 -6.65711e-17 0.00255441 -3.96865e-16 -0.0021961)
(-0.0768564 -1.29924 2.07742e-15 0.0795545 5.51667e-16 -0.00269817)
(-0.263557 -2.42391 2.97032e-15 0.264421 6.72535e-16 -0.000864297)
(-0.514122 -3.34393 -1.64323e-15 0.510703 -2.23416e-15 0.00341961)
(-0.715476 -3.72245 -7.3328e-15 0.709516 1.422e-15 0.00595975)
(-0.792842 -3.65041 4.79344e-15 0.790309 4.89485e-15 0.00253355)
(-0.801241 -3.42062 -1.01675e-14 0.79656 -1.30324e-16 0.00468059)
(-0.573882 -3.01938 -1.30263e-14 0.584231 1.88158e-15 -0.0103484)
(-0.814651 -3.21248 9.21219e-15 0.786313 -3.43378e-15 0.0283383)
(0.000342224 -0.000198497 -1.46076e-20 -0.000335899 -2.97426e-20 -6.32501e-06)
(0.000364714 -0.000135329 -5.0237e-21 -0.000359228 2.03041e-20 -5.48569e-06)
(0.000373312 -5.72455e-05 4.83501e-20 -0.000370622 9.21873e-20 -2.69014e-06)
(0.00036393 2.51556e-05 -2.06946e-20 -0.00036261 -1.16221e-21 -1.32004e-06)
(0.000332411 0.000105542 1.80246e-20 -0.000332513 1.1422e-19 1.02044e-07)
(0.00027855 0.000174405 5.52693e-20 -0.00027883 -1.58029e-20 2.7988e-07)
(0.000208874 0.000222873 5.97611e-20 -0.000208618 -1.55035e-21 -2.5615e-07)
(0.000134091 0.000246333 -1.47488e-19 -0.000134121 -8.91344e-20 2.99189e-08)
(6.20832e-05 0.000246781 -8.05828e-20 -6.28879e-05 6.96675e-21 8.0468e-07)
(-4.81296e-07 0.000226456 1.33622e-19 -6.61791e-07 6.03014e-20 1.14309e-06)
(-4.60143e-05 0.000192083 6.23689e-20 4.50225e-05 -5.11784e-21 9.91794e-07)
(-7.36465e-05 0.000153527 7.38463e-20 7.31321e-05 -4.55937e-20 5.14417e-07)
(-8.69238e-05 0.000117332 -1.14039e-19 8.71756e-05 -7.47464e-20 -2.51848e-07)
(-9.02497e-05 8.63932e-05 -1.41383e-19 9.13693e-05 2.66889e-20 -1.11959e-06)
(-8.73193e-05 6.17588e-05 1.29048e-20 8.93386e-05 3.73725e-20 -2.01937e-06)
(-8.10776e-05 4.30064e-05 4.3723e-20 8.39015e-05 -1.3012e-20 -2.82386e-06)
(-7.35834e-05 2.93006e-05 -1.07379e-19 7.71376e-05 -8.50155e-21 -3.55421e-06)
(-6.6111e-05 1.94555e-05 -4.12441e-21 7.02675e-05 -1.70996e-20 -4.15644e-06)
(-5.93561e-05 1.23042e-05 -4.12364e-20 6.40056e-05 -8.07164e-21 -4.64947e-06)
(-5.34503e-05 6.79486e-06 8.66503e-20 5.8436e-05 -4.99185e-20 -4.98568e-06)
(-4.83435e-05 2.24991e-06 -9.43812e-20 5.35919e-05 -3.27928e-20 -5.24839e-06)
(-4.37598e-05 -1.90784e-06 -1.96269e-19 4.92024e-05 -2.31688e-20 -5.44262e-06)
(-3.92321e-05 -6.02087e-06 8.8887e-21 4.48497e-05 -2.97499e-20 -5.61759e-06)
(-3.40472e-05 -9.84475e-06 5.03135e-20 3.9779e-05 -2.86283e-20 -5.73183e-06)
(-2.84136e-05 -1.2248e-05 1.5248e-19 3.44235e-05 -1.06384e-20 -6.00995e-06)
(-2.34555e-05 -1.29978e-05 -1.4286e-19 3.00706e-05 -8.27418e-21 -6.61511e-06)
(-1.95444e-05 -1.28635e-05 -2.45767e-20 2.68443e-05 7.64424e-21 -7.29989e-06)
(-1.65195e-05 -1.23523e-05 1.47862e-20 2.44677e-05 1.29343e-21 -7.94824e-06)
(-1.3684e-05 -1.14347e-05 -6.83166e-21 2.18799e-05 -2.74684e-22 -8.19591e-06)
(-1.08696e-05 -1.02011e-05 -9.94621e-21 1.87108e-05 4.83548e-22 -7.84119e-06)
(-7.46409e-06 -8.18684e-06 -1.60136e-20 1.38335e-05 -8.45767e-22 -6.36939e-06)
(-4.2109e-06 -5.75754e-06 4.61086e-20 8.61753e-06 1.33039e-21 -4.40663e-06)
(-3.03361e-05 -5.73355e-05 2.01217e-18 7.7382e-05 1.30909e-19 -4.70459e-05)
(-6.16896e-07 -4.5917e-05 1.88051e-17 0.000110331 1.74902e-18 -0.000109715)
(0.000235729 0.000600056 7.85169e-17 -0.000134708 1.03434e-17 -0.000101021)
(0.000879789 0.00333046 -1.73543e-16 -0.000936078 -2.64872e-17 5.62892e-05)
(0.00157573 0.0112339 7.43806e-16 -0.00205526 1.09994e-16 0.000479534)
(0.00672312 0.0279236 -4.8641e-16 -0.00721351 -1.68345e-16 0.000490393)
(-0.00282855 0.104511 -3.29681e-16 -0.0019517 -1.41048e-15 0.00478024)
(0.000222634 -0.000196128 -1.35347e-20 -0.000225649 -2.01606e-20 3.01561e-06)
(0.000184148 -0.000231624 2.65854e-21 -0.000188508 4.23597e-21 4.35983e-06)
(0.000134444 -0.000261248 1.61108e-20 -0.000139278 1.74974e-20 4.83418e-06)
(7.79987e-05 -0.000279187 -9.89662e-20 -8.41632e-05 -1.40665e-19 6.16454e-06)
(1.8932e-05 -0.000283319 -7.24487e-20 -2.64808e-05 -8.47329e-20 7.54883e-06)
(-4.04423e-05 -0.00027307 1.69306e-19 3.16123e-05 2.02667e-19 8.82991e-06)
(-9.4835e-05 -0.000249163 -1.79755e-19 8.42688e-05 -2.23209e-19 1.05662e-05)
(-0.000140347 -0.000213788 -8.1262e-20 0.000127929 -5.40597e-20 1.24181e-05)
(-0.00017474 -0.000169936 -1.93186e-19 0.000160477 -1.44566e-19 1.42627e-05)
(-0.00019668 -0.000121817 -3.59989e-20 0.000180319 -6.55051e-20 1.63605e-05)
(-0.000206279 -7.2869e-05 2.41759e-20 0.000187824 -8.72371e-21 1.84546e-05)
(-0.000204704 -2.62633e-05 -1.32279e-19 0.000184162 -1.75438e-19 2.05423e-05)
(-0.000193972 1.5445e-05 4.30643e-19 0.000171446 2.94944e-19 2.25255e-05)
(-0.000176465 5.07377e-05 -1.41749e-19 0.000152269 -2.47892e-20 2.41962e-05)
(-0.000154505 7.94337e-05 -3.47391e-19 0.000128935 -1.5191e-19 2.55696e-05)
(-0.000130521 0.000100453 2.30336e-19 0.000104583 4.60945e-21 2.59379e-05)
(-0.000106119 0.000113123 -1.6734e-19 8.1307e-05 -9.65176e-20 2.48116e-05)
(-8.18097e-05 0.000118093 2.28683e-21 5.91231e-05 1.22271e-19 2.26866e-05)
(-5.91045e-05 0.000116973 -3.99253e-20 3.92137e-05 -3.13666e-20 1.98908e-05)
(-3.82898e-05 0.000108234 -2.78121e-19 2.21189e-05 -1.92159e-19 1.61709e-05)
(-2.24477e-05 9.58655e-05 2.00607e-19 1.04523e-05 1.9475e-19 1.19954e-05)
(-1.08686e-05 7.07784e-05 3.70256e-21 4.13701e-06 -1.1415e-19 6.7316e-06)
(-6.76575e-06 6.9862e-05 3.84163e-20 2.13145e-06 1.17547e-20 4.6343e-06)
(-2.52122e-06 7.98442e-05 1.11644e-19 -1.21877e-06 -5.0018e-21 3.74e-06)
(3.7722e-06 8.69959e-05 -3.76453e-20 -6.75015e-06 -1.19908e-20 2.97796e-06)
(9.47512e-06 8.92351e-05 1.26789e-19 -1.157e-05 2.02486e-20 2.09486e-06)
(2.77742e-05 0.000193934 -1.50656e-20 -3.0431e-05 3.44103e-22 2.65677e-06)
(0.000264636 0.00161791 -2.57298e-19 -0.00027525 -1.59244e-19 1.06137e-05)
(0.00149614 0.00800588 2.6109e-20 -0.00150939 2.06578e-18 1.32486e-05)
(0.000943461 0.00414365 -1.20761e-17 -0.000934947 9.97061e-19 -8.51355e-06)
(0.00277269 0.00873553 -1.10734e-17 -0.00272611 1.8517e-18 -4.65857e-05)
(0.0106255 0.0120892 2.78542e-17 -0.0103969 -1.6258e-16 -0.000228611)
(0.018749 -0.0984195 5.76095e-16 -0.0179194 -7.06922e-16 -0.000829572)
(-0.0256079 -0.584021 -2.98219e-15 0.0275995 1.58947e-16 -0.00199154)
(-0.182124 -1.48966 4.83411e-15 0.183939 1.81629e-15 -0.00181553)
(-0.400649 -2.39892 -9.95977e-16 0.40136 4.27487e-16 -0.000711552)
(-0.585947 -2.96371 -1.75003e-15 0.581984 3.98548e-15 0.00396228)
(-0.525449 -3.0857 6.73223e-16 0.536082 2.44231e-16 -0.0106325)
(-0.773256 -3.40208 -1.72599e-14 0.735767 4.31262e-15 0.037489)
(0.000253108 -0.000152903 8.63746e-21 -0.000256266 3.53071e-21 3.15744e-06)
(0.000274184 -0.000106572 -3.12486e-20 -0.000275956 -4.49325e-20 1.77281e-06)
(0.000285724 -4.96654e-05 3.99009e-21 -0.000287343 2.03317e-20 1.61918e-06)
(0.000283464 1.1771e-05 1.70416e-20 -0.000284288 -5.68581e-20 8.23691e-07)
(0.000264476 7.30933e-05 -1.38576e-19 -0.000265053 -1.99266e-19 5.76424e-07)
(0.000228057 0.000127523 -1.41948e-19 -0.000228065 7.28581e-20 8.49224e-09)
(0.00017833 0.000168591 1.98759e-19 -0.000178005 1.03191e-19 -3.25334e-07)
(0.000122699 0.000192328 -6.43112e-20 -0.00012258 -1.86803e-19 -1.19076e-07)
(6.67714e-05 0.00019883 -8.78175e-20 -6.69512e-05 2.49287e-20 1.79778e-07)
(1.59936e-05 0.000188953 -5.98844e-20 -1.63332e-05 -1.03992e-19 3.39581e-07)
(-2.36404e-05 0.000167061 2.09744e-20 2.3337e-05 3.16661e-20 3.03437e-07)
(-5.04748e-05 0.000139406 -3.93064e-20 5.01956e-05 -5.14049e-20 2.79223e-07)
(-6.58568e-05 0.000110987 -8.11802e-20 6.55264e-05 1.0921e-19 3.30485e-07)
(-7.23438e-05 8.47907e-05 8.61059e-20 7.18771e-05 5.05162e-20 4.66759e-07)
(-7.25481e-05 6.24353e-05 7.31689e-20 7.18744e-05 -3.36506e-20 6.73716e-07)
(-6.88982e-05 4.43327e-05 -1.50338e-20 6.79432e-05 -3.01137e-20 9.54969e-07)
(-6.32425e-05 3.02671e-05 4.36826e-20 6.19784e-05 9.72953e-21 1.26412e-06)
(-5.69268e-05 1.95706e-05 -6.47136e-20 5.53454e-05 1.65351e-20 1.58135e-06)
(-5.07691e-05 1.14598e-05 4.58168e-20 4.88922e-05 -1.20502e-21 1.87694e-06)
(-4.5112e-05 5.13608e-06 -6.03068e-20 4.29597e-05 -2.81632e-20 2.15231e-06)
(-4.00222e-05 -2.29613e-08 5.81808e-20 3.7644e-05 4.86284e-21 2.37813e-06)
(-3.53181e-05 -4.52333e-06 7.79909e-20 3.27491e-05 1.70605e-20 2.569e-06)
(-3.06274e-05 -8.65392e-06 -5.44305e-21 2.79075e-05 7.15666e-21 2.71988e-06)
(-2.53523e-05 -1.22589e-05 -1.46136e-19 2.2432e-05 6.98235e-23 2.9203e-06)
(-1.95036e-05 -1.45491e-05 -5.43769e-20 1.63509e-05 -2.32201e-20 3.15275e-06)
(-1.39163e-05 -1.52711e-05 -1.60215e-20 1.05755e-05 2.46903e-20 3.34087e-06)
(-9.03129e-06 -1.50183e-05 5.92788e-20 5.385e-06 7.36111e-22 3.6463e-06)
(-4.81581e-06 -1.41933e-05 2.13745e-21 7.45461e-07 -4.86905e-22 4.07035e-06)
(-1.23694e-06 -1.3132e-05 -3.35563e-21 -3.3232e-06 2.86656e-22 4.56015e-06)
(1.63628e-06 -1.12934e-05 3.75535e-20 -6.35333e-06 1.73947e-22 4.71705e-06)
(4.36921e-06 -1.18025e-05 3.32651e-20 -1.00255e-05 1.07548e-21 5.65631e-06)
(3.23021e-06 -5.83786e-06 -8.9959e-20 -6.1316e-06 -4.97833e-21 2.90139e-06)
(1.18618e-05 -1.72197e-05 -7.62863e-19 -1.984e-05 -5.91699e-20 7.97825e-06)
(8.60294e-05 -0.000108038 -1.05725e-18 -0.000127925 -1.29119e-19 4.18959e-05)
(0.000243501 -0.000265466 2.05517e-18 -0.000322296 2.20957e-20 7.87953e-05)
(0.000248946 -0.00020258 -3.97543e-18 -0.000289023 1.57811e-18 4.00769e-05)
(0.000435198 -0.000155776 -2.12958e-17 -0.000470333 -1.77309e-17 3.5135e-05)
(0.000881888 0.000200059 5.2718e-17 -0.000861452 3.76442e-18 -2.04359e-05)
(0.00384131 0.0197298 -2.90855e-16 -0.00521584 5.23282e-17 0.00137453)
(0.00018413 -0.000161014 1.18696e-20 -0.000183018 1.37883e-20 -1.11164e-06)
(0.000155879 -0.000189721 -2.9849e-20 -0.000154872 -3.58774e-20 -1.00703e-06)
(0.000118627 -0.000214942 -2.41029e-21 -0.000117023 -4.98743e-21 -1.60468e-06)
(7.60892e-05 -0.00023239 -1.24403e-20 -7.41975e-05 -6.48758e-21 -1.89168e-06)
(3.1036e-05 -0.000239974 9.86366e-20 -2.87668e-05 1.13518e-19 -2.26912e-06)
(-1.54507e-05 -0.000237317 7.56357e-20 1.84274e-05 6.24058e-20 -2.97673e-06)
(-5.93403e-05 -0.00022451 9.6177e-22 6.29578e-05 3.04985e-20 -3.61757e-06)
(-9.76928e-05 -0.000202637 1.87631e-19 0.000102082 1.81804e-19 -4.38914e-06)
(-0.00012879 -0.000173559 -2.34317e-20 0.000134176 -3.12881e-21 -5.38569e-06)