# y+ ()         
# Time          	patch           	min             	max             	average         
0               	upperSurface	9.16673206e+01	9.36731340e+01	9.29592208e+01
0               	lowerSurface	9.16673206e+01	9.36731340e+01	9.29592208e+01
