/*--------------------------------*- C++ -*----------------------------------*\
| =========                 |                                                 |
| \\      /  F ield         | OpenFOAM: The Open Source CFD Toolbox           |
|  \\    /   O peration     | Version:  2306                                  |
|   \\  /    A nd           | Website:  www.openfoam.com                      |
|    \\/     M anipulation  |                                                 |
\*---------------------------------------------------------------------------*/
FoamFile
{
    version     2.0;
    format      ascii;
    arch        "LSB;label=32;scalar=64";
    class       volScalarField;
    location    "800";
    object      magR;
}
// * * * * * * * * * * * * * * * * * * * * * * * * * * * * * * * * * * * * * //

dimensions      [0 2 -2 0 0 0 0];

internalField   nonuniform List<scalar> 
1340
(
1.08984e-06
8.27989e-07
1.10578e-06
8.03158e-07
8.01998e-07
1.10523e-06
3.34682e-07
7.92792e-07
7.84806e-07
1.10968e-06
2.99504e-07
5.49946e-07
3.31523e-07
7.84533e-07
7.70207e-07
1.11717e-06
4.26486e-07
5.00986e-07
2.90484e-07
5.39809e-07
3.28259e-07
7.7707e-07
7.58383e-07
1.12476e-06
6.01596e-07
5.28072e-07
5.28049e-07
4.09393e-07
4.87013e-07
2.81019e-07
5.29907e-07
3.25083e-07
7.7065e-07
7.49862e-07
1.13184e-06
6.95069e-07
6.52209e-07
6.00398e-07
5.75361e-07
5.04406e-07
5.08403e-07
3.92041e-07
4.72897e-07
2.71249e-07
5.20464e-07
3.21979e-07
7.6543e-07
7.44463e-07
1.13829e-06
8.82138e-07
8.22038e-07
7.64429e-07
7.09745e-07
6.56317e-07
6.18099e-07
5.69609e-07
5.48763e-07
4.80522e-07
4.88459e-07
3.74538e-07
4.58706e-07
2.61241e-07
5.11397e-07
3.18966e-07
7.61129e-07
7.41468e-07
1.1451e-06
1.11614e-06
1.05178e-06
9.89572e-07
9.29669e-07
8.72159e-07
8.17075e-07
7.64502e-07
7.13722e-07
6.65484e-07
6.17408e-07
5.8374e-07
5.38573e-07
5.21803e-07
4.56417e-07
4.68213e-07
3.56881e-07
4.44389e-07
2.51024e-07
5.02525e-07
3.16102e-07
7.57434e-07
7.40367e-07
1.15112e-06
1.4145e-06
1.35558e-06
1.29645e-06
1.23739e-06
1.17876e-06
1.12083e-06
1.06388e-06
1.00815e-06
9.53832e-07
9.01062e-07
8.4996e-07
8.00644e-07
7.53137e-07
7.07659e-07
6.63378e-07
6.21339e-07
5.78493e-07
5.49266e-07
5.07413e-07
4.94583e-07
4.32178e-07
4.47722e-07
3.39144e-07
4.29953e-07
2.4066e-07
4.9377e-07
3.13371e-07
7.54211e-07
7.41713e-07
1.15708e-06
1.69929e-06
1.67169e-06
1.64216e-06
1.6106e-06
1.57691e-06
1.54106e-06
1.50312e-06
1.46317e-06
1.42137e-06
1.37792e-06
1.33302e-06
1.28689e-06
1.23982e-06
1.19205e-06
1.14389e-06
1.09557e-06
1.04737e-06
9.99546e-07
9.52334e-07
9.05941e-07
8.60531e-07
8.16223e-07
7.73103e-07
7.31294e-07
6.90793e-07
6.51934e-07
6.13776e-07
5.77639e-07
5.39863e-07
5.14928e-07
4.76356e-07
4.67285e-07
4.0797e-07
4.27104e-07
3.21435e-07
4.15448e-07
2.30253e-07
4.85153e-07
3.10711e-07
7.51393e-07
7.4436e-07
1.16295e-06
9.38505e-09
5.72603e-10
0
0
4.87641e-05
0.000101446
0.00853295
0.108022
0.417671
0.924196
1.46489
1.84353
1.90852
1.58871
0.917199
0.0974505
0.882607
1.54741
1.75449
1.43525
0.801802
0.261444
0.0367477
0.000361621
4.10244e-05
0
0
0
3.26472e-08
4.46651e-07
1.63971e-06
1.83146e-06
1.60178e-06
1.50038e-06
1.49302e-06
1.48596e-06
1.46588e-06
1.44384e-06
1.42242e-06
1.39993e-06
1.37569e-06
1.34973e-06
1.322e-06
1.29243e-06
1.26107e-06
1.22803e-06
1.19349e-06
1.15763e-06
1.12062e-06
1.08267e-06
1.04402e-06
1.00491e-06
9.65526e-07
9.26122e-07
8.86906e-07
8.48071e-07
8.09797e-07
7.72229e-07
7.35443e-07
6.99495e-07
6.64506e-07
6.30426e-07
5.97692e-07
5.65251e-07
5.34682e-07
5.01775e-07
4.80954e-07
4.45611e-07
4.40089e-07
3.83935e-07
4.0646e-07
3.03887e-07
4.00875e-07
2.19883e-07
4.76501e-07
3.08211e-07
7.48805e-07
7.48508e-07
1.16877e-06
9.30022e-07
1.8401e-08
1.2277e-09
0
0
8.42327e-08
0.000620996
0.00110148
0.0433309
0.236939
0.636867
1.14074
1.56208
1.73235
1.55323
1.0241
0.258126
0.599189
1.27441
1.56474
1.36295
0.818137
0.295387
0.0470021
0.000867248
7.22545e-05
0
0
0
1.15525e-08
1.40178e-07
1.23331e-06
1.59632e-06
1.39202e-06
1.26167e-06
1.2436e-06
1.24109e-06
1.22654e-06
1.20871e-06
1.19171e-06
1.17379e-06
1.15386e-06
1.13219e-06
1.10903e-06
1.08437e-06
1.05823e-06
1.03073e-06
1.00204e-06
9.72311e-07
9.4172e-07
9.10482e-07
8.78794e-07
8.46821e-07
8.14777e-07
7.82832e-07
7.51157e-07
7.19896e-07
6.89164e-07
6.59019e-07
6.29468e-07
6.00625e-07
5.72381e-07
5.4527e-07
5.18115e-07
4.92755e-07
4.64486e-07
4.47572e-07
4.15381e-07
4.13174e-07
3.60247e-07
3.85927e-07
2.86591e-07
3.86287e-07
2.0957e-07
4.6791e-07
3.05634e-07
7.46313e-07
7.52753e-07
1.17496e-06
9.64179e-07
8.17619e-07
7.13013e-08
4.20474e-09
0
0
0
0.00018948
0.000310376
0.0125605
0.116981
0.405427
0.847044
1.28475
1.53947
1.48655
1.093
0.433365
0.351778
1.0234
1.37994
1.28298
0.825167
0.326661
0.0601126
0.00207606
0.000108652
0
0
0
7.06024e-10
3.64433e-09
7.43194e-07
1.28884e-06
1.19414e-06
1.06512e-06
1.04033e-06
1.04219e-06
1.03133e-06
1.01397e-06
9.98136e-07
9.83231e-07
9.67017e-07
9.4896e-07
9.29409e-07
9.08604e-07
8.86652e-07
8.63666e-07
8.39755e-07
8.151e-07
7.89879e-07
7.64275e-07
7.38438e-07
7.12544e-07
6.86736e-07
6.61168e-07
6.35946e-07
6.11178e-07
5.86864e-07
5.63014e-07
5.39695e-07
5.16733e-07
4.94773e-07
4.72499e-07
4.51954e-07
4.2812e-07
4.14882e-07
3.85787e-07
3.86619e-07
3.37003e-07
3.65508e-07
2.69645e-07
3.71735e-07
1.99399e-07
4.58965e-07
3.0291e-07
7.445e-07
7.57193e-07
1.1815e-06
7.51336e-07
8.28973e-07
7.49487e-07
1.79711e-07
9.81313e-09
0
0
0
6.50506e-06
1.66041e-05
0.00203895
0.0482199
0.234273
0.594449
1.02215
1.33919
1.39586
1.12682
0.573465
0.147821
0.800191
1.20607
1.19919
0.822257
0.351973
0.0732434
0.00365866
0.000150259
0
0
0
4.71973e-12
3.65784e-08
5.05544e-07
1.03219e-06
1.02403e-06
8.90543e-07
8.50498e-07
8.61035e-07
8.6497e-07
8.54094e-07
8.389e-07
8.24576e-07
8.1043e-07
7.95177e-07
7.78533e-07
7.60777e-07
7.42159e-07
7.22781e-07
7.02797e-07
6.82353e-07
6.61635e-07
6.40766e-07
6.19901e-07
5.99189e-07
5.78732e-07
5.58638e-07
5.38961e-07
5.19721e-07
5.00867e-07
4.82434e-07
4.64206e-07
4.46868e-07
4.29048e-07
4.12905e-07
3.93181e-07
3.83398e-07
3.5724e-07
3.60874e-07
3.14428e-07
3.45627e-07
2.53035e-07
3.5749e-07
1.88693e-07
4.50623e-07
2.99149e-07
7.42651e-07
7.62375e-07
1.19054e-06
6.57849e-07
6.52434e-07
7.3148e-07
6.68107e-07
3.15923e-07
1.68937e-08
3.57971e-12
0
0
2.23073e-09
0.000265607
0.000300365
0.0143913
0.114033
0.373702
0.758854
1.11887
1.28284
1.14549
0.707987
0.0967086
0.576894
1.02973
1.11518
0.824445
0.386735
0.092784
0.00607603
0.000137839
1.34316e-05
0
0
0
2.17534e-08
2.62293e-07
7.79714e-07
9.4102e-07
8.30366e-07
7.29888e-07
7.03401e-07
7.06795e-07
7.06258e-07
6.96877e-07
6.84182e-07
6.71362e-07
6.58303e-07
6.4444e-07
6.29672e-07
6.14223e-07
5.98338e-07
5.82071e-07
5.65632e-07
5.49142e-07
5.32716e-07
5.16513e-07
5.006e-07
4.85092e-07
4.69971e-07
4.5531e-07
4.41e-07
4.27029e-07
4.13192e-07
4.00123e-07
3.86436e-07
3.74461e-07
3.58658e-07
3.52138e-07
3.29014e-07
3.35085e-07
2.92218e-07
3.25331e-07
2.37185e-07
3.42374e-07
1.79452e-07
4.40854e-07
2.96408e-07
7.39585e-07
7.6706e-07
1.1962e-06
5.79548e-07
5.61624e-07
5.72978e-07
5.91526e-07
5.68393e-07
4.40268e-07
7.1481e-08
4.11392e-09
2.06354e-13
0
0
3.14081e-05
9.56772e-05
0.00136998
0.0280575
0.140185
0.381999
0.706302
0.977547
1.05012
0.847562
0.401499
0.175698
0.668724
0.915475
0.821264
0.495073
0.181573
0.0339062
0.00116928
0.000123346
2.53517e-06
0
0
2.65742e-10
1.31529e-08
1.26462e-07
4.90819e-07
6.76366e-07
6.47646e-07
5.82036e-07
5.55348e-07
5.53159e-07
5.51687e-07
5.44382e-07
5.34171e-07
5.23604e-07
5.12828e-07
5.01578e-07
4.89888e-07
4.77844e-07
4.65719e-07
4.53634e-07
4.41708e-07
4.30015e-07
4.18666e-07
4.07769e-07
3.97285e-07
3.87281e-07
3.77605e-07
3.6826e-07
3.58971e-07
3.50367e-07
3.41047e-07
3.3335e-07
3.21958e-07
3.18588e-07
2.99305e-07
3.07131e-07
2.69564e-07
3.02471e-07
2.2263e-07
3.2284e-07
1.72458e-07
4.20254e-07
2.82436e-07
7.06326e-07
7.28658e-07
1.11109e-06
4.90112e-07
4.81063e-07
4.83438e-07
4.78178e-07
4.74769e-07
4.99009e-07
4.46259e-07
2.86014e-07
4.9732e-09
3.51014e-10
0
0
2.89249e-08
1.23308e-05
0.000381048
0.000966389
0.021118
0.108665
0.304448
0.575883
0.806736
0.862361
0.672133
0.270341
0.220402
0.611526
0.7524
0.608792
0.328012
0.106813
0.0168977
0.000281203
6.0174e-05
2.57587e-07
0
0
9.33221e-11
9.87376e-09
1.10514e-07
3.87263e-07
5.08367e-07
4.77436e-07
4.31493e-07
4.16692e-07
4.16257e-07
4.13691e-07
4.06903e-07
3.98788e-07
3.9074e-07
3.82612e-07
3.74278e-07
3.65944e-07
3.57715e-07
3.498e-07
3.42253e-07
3.35178e-07
3.28668e-07
3.22676e-07
3.17283e-07
3.12253e-07
3.07615e-07
3.03001e-07
2.98997e-07
2.94236e-07
2.90935e-07
2.84082e-07
2.84074e-07
2.68744e-07
2.78631e-07
2.46024e-07
2.79929e-07
2.06721e-07
3.05972e-07
1.64918e-07
4.09184e-07
2.83171e-07
7.03311e-07
7.45457e-07
1.12027e-06
4.07311e-07
4.01867e-07
4.07368e-07
4.033e-07
3.93499e-07
3.90799e-07
4.02278e-07
4.15213e-07
3.34995e-07
1.17508e-07
6.27914e-09
1.26944e-12
0
0
0
1.18676e-05
0.000356999
0.000654725
0.0175743
0.0936144
0.265532
0.50272
0.695929
0.720365
0.51849
0.139999
0.282973
0.569925
0.609491
0.433133
0.201515
0.0537963
0.0055336
1.7776e-05
2.3753e-05
0
0
0
9.16834e-11
1.21947e-08
1.50055e-07
3.31482e-07
3.68242e-07
3.32516e-07
3.0879e-07
3.04684e-07
3.041e-07
3.00171e-07
2.94294e-07
2.88294e-07
2.82602e-07
2.77108e-07
2.71842e-07
2.6708e-07
2.62881e-07
2.59353e-07
2.5657e-07
2.54504e-07
2.53157e-07
2.52301e-07
2.51921e-07
2.51568e-07
2.51744e-07
2.51113e-07
2.51776e-07
2.48942e-07
2.52017e-07
2.40303e-07
2.52144e-07
2.23893e-07
2.59075e-07
1.91285e-07
2.90971e-07
1.5612e-07
4.00558e-07
2.81296e-07
7.04494e-07
7.57815e-07
1.12837e-06
3.30247e-07
3.3652e-07
3.35022e-07
3.2906e-07
3.22739e-07
3.19385e-07
3.2274e-07
3.41506e-07
3.26963e-07
2.33532e-07
2.612e-08
1.68606e-09
0
0
0
0
1.05231e-05
0.000340544
0.000665776
0.0170739
0.0889392
0.247334
0.457066
0.610158
0.593321
0.370288
0.0253305
0.333465
0.514483
0.472257
0.287771
0.109359
0.0219836
0.00103586
7.59746e-05
1.82301e-06
0
0
0
3.21988e-09
3.23311e-08
1.81301e-07
2.58916e-07
2.48923e-07
2.24422e-07
2.15942e-07
2.14969e-07
2.12956e-07
2.09124e-07
2.05182e-07
2.01754e-07
1.98857e-07
1.96681e-07
1.95272e-07
1.94747e-07
1.9516e-07
1.96465e-07
1.98606e-07
2.01314e-07
2.04556e-07
2.07802e-07
2.11481e-07
2.14256e-07
2.18131e-07
2.18546e-07
2.24058e-07
2.15498e-07
2.28806e-07
2.04473e-07
2.40465e-07
1.77702e-07
2.77624e-07
1.48256e-07
3.93545e-07
2.78676e-07
7.07496e-07
7.64443e-07
1.13581e-06
2.67094e-07
2.73483e-07
2.7285e-07
2.69402e-07
2.66277e-07
2.62585e-07
2.59285e-07
2.59731e-07
2.67596e-07
2.81867e-07
2.48612e-07
1.09977e-07
6.17931e-09
1.29446e-12
0
0
0
0
1.12056e-05
0.000337848
0.00096266
0.0189855
0.0920361
0.243272
0.427562
0.535874
0.471223
0.227516
0.101657
0.361615
0.443172
0.341952
0.170769
0.0491657
0.0058844
5.92335e-05
3.96325e-05
0
0
0
3.19116e-11
6.41624e-09
7.04348e-08
1.53115e-07
1.667e-07
1.51315e-07
1.41873e-07
1.40313e-07
1.39745e-07
1.38215e-07
1.36711e-07
1.35986e-07
1.36281e-07
1.37588e-07
1.39975e-07
1.43482e-07
1.47974e-07
1.53347e-07
1.59263e-07
1.65645e-07
1.71955e-07
1.78533e-07
1.84068e-07
1.90434e-07
1.93371e-07
2.00637e-07
1.94804e-07
2.09054e-07
1.88294e-07
2.24472e-07
1.66678e-07
2.66093e-07
1.42429e-07
3.87802e-07
2.76004e-07
7.11997e-07
7.65385e-07
1.14445e-06
2.12765e-07
2.1839e-07
2.1829e-07
2.1605e-07
2.14171e-07
2.1196e-07
2.1043e-07
2.07696e-07
2.0591e-07
2.08188e-07
2.21589e-07
2.20547e-07
1.67608e-07
2.19912e-08
1.58049e-09
2.19059e-14
0
0
0
0
2.38846e-05
2.14482e-05
0.00166151
0.0234932
0.102117
0.249322
0.405545
0.462452
0.348308
0.0926652
0.190529
0.361189
0.354498
0.222198
0.0850677
0.0166704
0.000660725
6.87074e-05
0
0
0
0
2.53251e-09
2.40062e-08
7.56578e-08
9.67913e-08
9.02493e-08
8.16081e-08
7.89975e-08
7.92219e-08
8.00794e-08
8.17127e-08
8.47331e-08
8.92225e-08
9.49875e-08
1.01834e-07
1.09547e-07
1.17928e-07
1.26651e-07
1.35585e-07
1.44277e-07
1.5301e-07
1.60545e-07
1.68584e-07
1.73242e-07
1.81469e-07
1.77767e-07
1.92429e-07
1.74786e-07
2.10594e-07
1.57411e-07
2.55812e-07
1.37542e-07
3.82866e-07
2.72602e-07
7.16848e-07
7.58651e-07
1.1554e-06
1.79203e-07
1.83366e-07
1.84039e-07
1.82357e-07
1.80695e-07
1.79444e-07
1.78751e-07
1.77219e-07
1.75512e-07
1.73278e-07
1.73904e-07
1.78486e-07
1.91278e-07
1.66679e-07
1.00276e-07
2.91314e-10
4.67489e-11
0
0
0
0
7.5564e-09
3.13694e-05
2.08638e-05
0.00312403
0.0319269
0.119606
0.26177
0.3826
0.381445
0.221732
0.0343706
0.249661
0.326584
0.25307
0.122183
0.0323476
0.00316318
5.44762e-06
3.23716e-06
0
0
0
3.83731e-10
1.3959e-09
1.26726e-08
1.96036e-08
2.39933e-08
2.46221e-08
2.59562e-08
3.07598e-08
3.7902e-08
4.61166e-08
5.51487e-08
6.4917e-08
7.51983e-08
8.57412e-08
9.64158e-08
1.07e-07
1.17484e-07
1.27528e-07
1.37454e-07
1.46113e-07
1.54943e-07
1.60571e-07
1.69031e-07
1.66951e-07
1.81416e-07
1.66701e-07
2.01272e-07
1.52958e-07
2.48931e-07
1.36675e-07
3.80196e-07
2.68514e-07
7.2292e-07
7.37714e-07
1.17836e-06
1.46379e-07
1.50738e-07
1.5115e-07
1.49589e-07
1.48182e-07
1.47865e-07
1.48081e-07
1.46263e-07
1.45851e-07
1.45247e-07
1.43574e-07
1.42643e-07
1.45713e-07
1.52202e-07
1.56814e-07
1.20488e-07
4.36796e-08
3.62441e-09
2.70461e-12
0
0
0
0
2.00019e-08
9.7213e-05
4.14176e-05
0.00620845
0.045471
0.143813
0.274368
0.347941
0.283926
0.0904197
0.135201
0.269844
0.257652
0.150011
0.0498047
0.00729716
0.000100839
4.48926e-05
0
0
0
8.33518e-12
1.78456e-09
9.40968e-09
4.3574e-08
3.56767e-08
2.55365e-08
2.76887e-08
3.56507e-08
4.51263e-08
5.45456e-08
6.38594e-08
7.33674e-08
8.30248e-08
9.27481e-08
1.02309e-07
1.1175e-07
1.20824e-07
1.29829e-07
1.37779e-07
1.45749e-07
1.50786e-07
1.5806e-07
1.56192e-07
1.6955e-07
1.5638e-07
1.89455e-07
1.4367e-07
2.38428e-07
1.28222e-07
3.73129e-07
2.58109e-07
7.21911e-07
6.99231e-07
1.21598e-06
1.57999e-07
1.60243e-07
1.60081e-07
1.58374e-07
1.56753e-07
1.55654e-07
1.55008e-07
1.53297e-07
1.52164e-07
1.50846e-07
1.48793e-07
1.46982e-07
1.45616e-07
1.45259e-07
1.47339e-07
1.54025e-07
1.41951e-07
1.01214e-07
2.71963e-08
2.76385e-09
3.26338e-12
0
0
0
0
1.05069e-06
0.000191059
0.000441331
0.0128115
0.0675052
0.178384
0.294099
0.31751
0.196151
0.0323092
0.208211
0.262031
0.185941
0.0760219
0.0130608
0.000183584
8.07377e-05
3.71684e-05
7.48796e-06
2.15521e-07
0
2.58768e-11
2.53754e-09
5.01816e-08
1.01832e-07
9.44973e-08
8.22179e-08
8.02355e-08
8.44122e-08
9.03938e-08
9.68646e-08
1.03764e-07
1.11089e-07
1.18637e-07
1.26298e-07
1.33896e-07
1.41594e-07
1.4861e-07
1.55564e-07
1.60007e-07
1.66186e-07
1.64921e-07
1.76655e-07
1.65778e-07
1.95608e-07
1.54461e-07
2.43894e-07
1.36646e-07
3.80323e-07
2.44936e-07
7.35687e-07
6.3488e-07
1.34702e-06
1.3524e-07
1.36147e-07
1.36535e-07
1.37077e-07
1.37434e-07
1.37798e-07
1.38502e-07
1.3935e-07
1.40063e-07
1.40471e-07
1.40864e-07
1.41571e-07
1.42192e-07
1.42851e-07
1.43422e-07
1.46613e-07
1.52247e-07
1.56334e-07
1.42715e-07
1.07587e-07
2.76895e-08
2.46324e-09
0
0
0
0
0
6.88551e-06
0.000161623
0.0005721
0.0109276
0.0513303
0.12653
0.198311
0.203519
0.113255
0.0328178
0.145481
0.167182
0.112518
0.047566
0.0122913
0.00162872
3.25626e-05
2.8097e-05
4.73775e-06
0
0
2.02284e-09
3.11026e-08
9.29483e-08
1.19608e-07
1.20313e-07
1.17898e-07
1.18133e-07
1.19981e-07
1.22349e-07
1.24945e-07
1.27699e-07
1.30552e-07
1.3343e-07
1.36501e-07
1.39286e-07
1.42236e-07
1.43032e-07
1.44847e-07
1.40728e-07
1.488e-07
1.36523e-07
1.63349e-07
1.19802e-07
2.08362e-07
9.15656e-08
3.39215e-07
2.02917e-07
6.69214e-07
6.33697e-07
1.32948e-06
)
;

boundaryField
{
    inlet
    {
        type            calculated;
        value           nonuniform List<scalar> 
27
(
7.07661e-06
7.08598e-06
7.10288e-06
7.12554e-06
7.14975e-06
7.17481e-06
7.20143e-06
7.22943e-06
7.25867e-06
7.28808e-06
7.31754e-06
7.34647e-06
7.3743e-06
7.40039e-06
7.42401e-06
7.44444e-06
7.46187e-06
7.42618e-06
7.43075e-06
7.4288e-06
7.4166e-06
7.39291e-06
7.35457e-06
7.30006e-06
7.22159e-06
7.14431e-06
6.98524e-06
)
;
    }
    outlet
    {
        type            calculated;
        value           nonuniform List<scalar> 
78
(
1.09568e-07
1.10842e-07
1.11501e-07
1.1235e-07
1.12987e-07
1.13634e-07
1.14701e-07
1.15941e-07
1.17021e-07
1.17741e-07
1.18447e-07
1.19518e-07
1.20552e-07
1.21633e-07
1.22595e-07
1.25713e-07
1.30718e-07
1.34003e-07
1.22227e-07
9.31552e-08
2.4862e-08
2.31298e-09
0
0
0
0
0
6.91755e-06
0.000161207
0.000537793
0.0108218
0.0511244
0.126333
0.198397
0.204166
0.114451
0.0306296
0.143926
0.166255
0.112183
0.0475342
0.0123262
0.00164944
2.09613e-05
2.67845e-05
4.5041e-06
0
0
1.76854e-09
2.76879e-08
8.35031e-08
1.0765e-07
1.08124e-07
1.05603e-07
1.05278e-07
1.06204e-07
1.07419e-07
1.08695e-07
1.09991e-07
1.11303e-07
1.12578e-07
1.1409e-07
1.15282e-07
1.16921e-07
1.16138e-07
1.17363e-07
1.11196e-07
1.2114e-07
1.04064e-07
1.38707e-07
8.01909e-08
1.90753e-07
2.45164e-08
3.26189e-07
1.81791e-07
6.4617e-07
6.35013e-07
1.25705e-06
)
;
    }
    walls
    {
        type            calculated;
        value           nonuniform List<scalar> 0();
    }
    frontAndBack
    {
        type            empty;
    }
    procBoundary7to3
    {
        type            processor;
        value           nonuniform List<scalar> 
16
(
1.28813e-06
1.3969e-06
1.05591e-06
9.0072e-07
7.9714e-07
6.81821e-07
5.59483e-07
4.56907e-07
3.33517e-07
3.33517e-07
2.69204e-07
2.14707e-07
1.81056e-07
1.46776e-07
1.61058e-07
1.33163e-07
)
;
    }
    procBoundary7to6
    {
        type            processor;
        value           nonuniform List<scalar> 
91
(
1.08621e-06
8.55413e-07
8.55413e-07
8.19187e-07
8.19187e-07
3.37422e-07
3.37422e-07
3.07946e-07
5.60097e-07
5.60097e-07
4.42977e-07
5.14568e-07
5.14568e-07
6.27297e-07
5.51365e-07
5.47288e-07
5.47288e-07
7.33656e-07
6.86067e-07
6.30939e-07
6.30939e-07
9.48044e-07
8.8002e-07
8.15285e-07
7.53941e-07
7.53941e-07
1.22939e-06
1.15383e-06
1.08121e-06
1.0117e-06
9.45334e-07
9.45334e-07
1.60803e-06
1.5355e-06
1.46317e-06
1.39133e-06
1.32039e-06
1.25069e-06
1.18251e-06
1.18251e-06
2.00102e-06
1.96447e-06
1.92561e-06
1.88429e-06
1.84044e-06
1.79411e-06
1.74538e-06
1.6944e-06
1.64139e-06
1.58664e-06
1.53036e-06
1.47285e-06
1.47285e-06
7.39809e-13
0
9.64316e-09
0.000419273
0.000372926
0.0321829
0.222577
0.663139
1.26086
1.81337
2.1267
2.06789
1.59326
0.772067
0.267689
1.20536
1.84539
1.95075
1.5007
0.777984
0.225803
0.0254784
0.00038231
4.93998e-05
0
0
0
5.76018e-08
8.24655e-07
2.09649e-06
2.15023e-06
1.89845e-06
1.80852e-06
1.79755e-06
1.78017e-06
1.75277e-06
1.72564e-06
1.72564e-06
)
;
    }
}


// ************************************************************************* //
