/*--------------------------------*- C++ -*----------------------------------*\
| =========                 |                                                 |
| \\      /  F ield         | OpenFOAM: The Open Source CFD Toolbox           |
|  \\    /   O peration     | Version:  2306                                  |
|   \\  /    A nd           | Website:  www.openfoam.com                      |
|    \\/     M anipulation  |                                                 |
\*---------------------------------------------------------------------------*/
FoamFile
{
    version     2.0;
    format      ascii;
    arch        "LSB;label=32;scalar=64";
    class       volScalarField;
    location    "800";
    object      p;
}
// * * * * * * * * * * * * * * * * * * * * * * * * * * * * * * * * * * * * * //

dimensions      [0 2 -2 0 0 0 0];

internalField   nonuniform List<scalar> 
1340
(
-8.35235
-1.17348
-8.06102
-5.94142
-1.23468
-7.87213
-3.90486
-5.8194
-1.24942
-7.73223
-5.35813
-5.61025
-3.82422
-5.68606
-1.26186
-7.57536
-6.23179
-6.00684
-5.19696
-5.45266
-3.7386
-5.53925
-1.27304
-7.39847
-7.12147
-6.76941
-6.46666
-5.99731
-5.79736
-5.0279
-5.28648
-3.64541
-5.38559
-1.27326
-7.2173
-7.56162
-7.298
-7.04241
-6.78187
-6.46232
-6.19065
-5.75456
-5.57926
-4.85081
-5.11256
-3.5433
-5.22693
-1.26041
-7.03643
-7.89392
-7.7456
-7.56424
-7.35317
-7.11388
-6.88745
-6.66361
-6.43483
-6.14739
-5.9062
-5.50355
-5.35246
-4.66548
-4.9305
-3.4323
-5.06206
-1.23676
-6.85328
-7.22581
-7.31387
-7.36147
-7.36927
-7.33832
-7.27006
-7.16639
-7.02922
-6.86155
-6.66428
-6.47321
-6.27987
-6.08169
-5.82566
-5.61413
-5.2448
-5.11734
-4.4721
-4.74019
-3.31271
-4.89021
-1.20375
-6.66561
-4.68013
-5.02085
-5.3361
-5.62318
-5.87971
-6.10358
-6.29306
-6.44681
-6.56393
-6.64397
-6.68691
-6.69317
-6.66356
-6.59941
-6.50203
-6.37406
-6.21574
-6.05784
-5.89344
-5.72442
-5.49875
-5.31577
-4.97933
-4.87466
-4.27116
-4.54201
-3.18485
-4.7114
-1.16178
-6.4734
0.568184
0.201136
-0.173475
-0.554338
-0.939905
-1.3284
-1.71787
-2.10615
-2.49085
-2.86945
-3.23927
-3.59754
-3.94147
-4.2682
-4.57498
-4.85913
-5.11814
-5.34973
-5.55188
-5.72291
-5.86147
-5.96661
-6.03779
-6.07488
-6.0781
-6.04826
-5.98607
-5.89379
-5.77107
-5.64385
-5.50655
-5.36493
-5.16829
-5.01249
-4.70816
-4.62525
-4.06319
-4.33637
-3.04901
-4.52581
-1.11178
-6.27675
6.33864
6.28625
6.23269
6.17657
6.11687
6.05373
5.98748
5.918
5.8446
5.76708
5.68631
5.60333
5.51869
5.43244
5.34402
5.25223
5.15556
5.05244
4.94063
4.81746
4.6811
4.5315
4.36983
4.19724
4.01503
3.82425
3.62465
3.41538
3.19592
2.96608
2.72584
2.47507
2.21373
1.94186
1.6596
1.36717
1.06494
0.753422
0.433261
0.105264
-0.229597
-0.570152
-0.915034
-1.2627
-1.61141
-1.95922
-2.30403
-2.64359
-2.97549
-3.29725
-3.6063
-3.90007
-4.17601
-4.43166
-4.66468
-4.87292
-5.05448
-5.20773
-5.33134
-5.42435
-5.48618
-5.51658
-5.51585
-5.4842
-5.42347
-5.33275
-5.2335
-5.12124
-5.00505
-4.83582
-4.70559
-4.43234
-4.36994
-3.84874
-4.12355
-2.90557
-4.33322
-1.05472
-6.07452
5.69504
5.64965
5.6032
5.55455
5.50284
5.44809
5.3904
5.32978
5.26624
5.19936
5.12862
5.05436
4.97764
4.89922
4.81934
4.73766
4.65322
4.56478
4.47096
4.36985
4.25904
4.13657
4.00208
3.85645
3.70079
3.53635
3.36424
3.18444
2.99614
2.7988
2.59228
2.37649
2.15134
1.91682
1.67293
1.41978
1.15758
0.886641
0.607399
0.320416
0.0263851
-0.273823
-0.579169
-0.888458
-1.20032
-1.51318
-1.82533
-2.13486
-2.43976
-2.73785
-3.02688
-3.30451
-3.5684
-3.8162
-4.04565
-4.25458
-4.44097
-4.60303
-4.7392
-4.84821
-4.92914
-4.98133
-5.00469
-4.99893
-4.96555
-4.90311
-4.82895
-4.73946
-4.64655
-4.50292
-4.3964
-4.15292
-4.10955
-3.62861
-3.9038
-2.7554
-4.13303
-0.992422
-5.86476
5.13244
5.093
5.05261
5.01031
4.96537
4.9178
4.86765
4.81476
4.7591
4.70075
4.63957
4.57493
4.50666
4.4356
4.3627
4.28836
4.21245
4.13428
4.05279
3.96679
3.87471
3.77442
3.66402
3.54284
3.41154
3.27106
3.12259
2.96725
2.80508
2.6353
2.45737
2.27114
2.07662
1.87376
1.66253
1.44293
1.21504
0.979079
0.735321
0.484151
0.226061
-0.0383158
-0.308193
-0.582663
-0.860656
-1.14092
-1.42207
-1.70255
-1.98065
-2.25453
-2.52225
-2.78174
-3.03087
-3.26751
-3.4895
-3.69473
-3.88123
-4.0471
-4.19068
-4.31048
-4.40533
-4.47426
-4.5169
-4.53251
-4.52225
-4.48431
-4.43224
-4.36315
-4.29119
-4.17112
-4.08627
-3.8711
-3.84489
-3.40371
-3.67708
-2.59981
-3.92409
-0.926854
-5.64398
4.6336
4.59926
4.56407
4.52722
4.4881
4.4467
4.40305
4.35702
4.30845
4.25727
4.20358
4.14742
4.08829
4.02562
3.95981
3.89191
3.82262
3.75196
3.67943
3.60415
3.52506
3.4408
3.34939
3.249
3.13911
3.02038
2.89363
2.7597
2.61964
2.47359
2.3207
2.16027
1.99217
1.81655
1.63343
1.44276
1.24456
1.03892
0.826031
0.606165
0.379674
0.147021
-0.0912053
-0.33431
-0.581461
-0.831679
-1.08385
-1.33669
-1.58882
-1.8387
-2.08463
-2.32486
-2.55748
-2.78058
-2.99221
-3.19038
-3.37316
-3.53868
-3.68524
-3.81127
-3.91542
-3.99651
-4.05392
-4.08661
-4.09539
-4.07815
-4.04514
-3.99402
-3.94055
-3.84192
-3.77634
-3.58826
-3.5763
-3.17571
-3.44254
-2.44168
-3.70254
-0.862701
-5.40625
4.19737
4.16758
4.13703
4.10507
4.07115
4.03527
3.99746
3.95759
3.91553
3.87121
3.82467
3.77605
3.7253
3.67154
3.61277
3.54737
3.4756
3.3992
3.32004
3.23961
3.15931
3.08081
3.00548
2.93281
2.85958
2.78083
2.69117
2.58609
2.46458
2.33113
2.19216
2.0502
1.90399
1.7515
1.59182
1.42505
1.25157
1.07158
0.885159
0.692396
0.493484
0.28875
0.0786403
-0.136346
-0.355554
-0.578241
-0.80353
-1.03037
-1.25768
-1.48414
-1.70834
-1.92876
-2.1438
-2.35175
-2.55084
-2.73927
-2.91524
-3.07694
-3.22273
-3.35099
-3.4603
-3.54936
-3.6173
-3.66293
-3.68681
-3.68655
-3.66946
-3.63388
-3.59618
-3.51707
-3.46759
-3.30619
-3.30365
-2.94707
-3.19799
-2.28504
-3.4645
-0.807052
-5.14532
3.67298
3.64807
3.62246
3.59569
3.56732
3.53731
3.50566
3.4723
3.43714
3.40003
3.36082
3.3194
3.27569
3.22992
3.18254
3.13354
3.08211
3.02759
2.97044
2.91177
2.85213
2.79103
2.72748
2.66057
2.58919
2.51159
2.4264
2.33424
2.23641
2.13251
2.02157
1.90405
1.78118
1.65328
1.52002
1.38101
1.2361
1.08527
0.928612
0.766227
0.598235
0.424813
0.246238
0.0628243
-0.124962
-0.316601
-0.511464
-0.708783
-0.907713
-1.10726
-1.3063
-1.50363
-1.69791
-1.88772
-2.0715
-2.24768
-2.41464
-2.5707
-2.71426
-2.8437
-2.95756
-3.05443
-3.13323
-3.1926
-3.23263
-3.25116
-3.2513
-3.23372
-3.21256
-3.15748
-3.12286
-2.9973
-2.99699
-2.70323
-2.91873
-2.12901
-3.1898
-0.769717
-4.85345
3.13113
3.11145
3.0912
3.07004
3.04761
3.02389
2.99888
2.97253
2.94476
2.91545
2.88444
2.85173
2.81737
2.78166
2.74523
2.70883
2.67297
2.63714
2.59973
2.559
2.51408
2.46463
2.41027
2.35033
2.2847
2.21426
2.14021
2.0634
1.98433
1.90282
1.81728
1.72567
1.62764
1.52448
1.41716
1.30554
1.18911
1.06759
0.94094
0.809199
0.67247
0.530806
0.384343
0.233259
0.0778007
-0.0816789
-0.244787
-0.411007
-0.579732
-0.750261
-0.921805
-1.0934
-1.26404
-1.43258
-1.59777
-1.75827
-1.91268
-2.05953
-2.19732
-2.32453
-2.43971
-2.54141
-2.62843
-2.69925
-2.75368
-2.78943
-2.8065
-2.8058
-2.80248
-2.76907
-2.75458
-2.65729
-2.67516
-2.42159
-2.64293
-1.91922
-2.95235
-0.656879
-4.66821
2.67224
2.6565
2.64029
2.62334
2.60538
2.58636
2.56631
2.5452
2.52294
2.49946
2.47468
2.44855
2.42099
2.39191
2.36127
2.329
2.29514
2.25987
2.22326
2.18492
2.14398
2.09988
2.05317
2.00492
1.95594
1.90615
1.85494
1.80134
1.74377
1.68088
1.61256
1.53939
1.46152
1.37875
1.29145
1.20037
1.10567
1.00703
0.904104
0.796789
0.685124
0.569145
0.448944
0.324605
0.196254
0.064105
-0.071597
-0.210499
-0.352198
-0.49619
-0.641915
-0.788666
-0.93567
-1.08206
-1.22685
-1.36895
-1.50722
-1.64043
-1.76726
-1.88637
-1.99645
-2.0961
-2.18415
-2.25909
-2.32057
-2.36626
-2.39421
-2.4051
-2.41453
-2.3974
-2.39868
-2.32397
-2.35801
-2.13701
-2.36841
-1.69704
-2.72109
-0.521911
-4.49423
2.24089
2.22787
2.21424
2.1998
2.18452
2.1684
2.15143
2.13353
2.11465
2.09472
2.07372
2.05158
2.0282
2.00357
1.97759
1.95022
1.92144
1.89127
1.85988
1.82734
1.79329
1.7569
1.71771
1.67626
1.63362
1.59043
1.54655
1.50123
1.4533
1.40139
1.34477
1.28374
1.21866
1.1493
1.07572
0.998582
0.91841
0.835075
0.748215
0.657634
0.563296
0.465278
0.363656
0.258511
0.14996
0.0381512
-0.0766831
-0.194278
-0.31426
-0.43625
-0.559726
-0.684104
-0.808747
-0.932872
-1.05564
-1.17615
-1.29338
-1.40626
-1.51362
-1.61435
-1.7072
-1.79111
-1.86466
-1.92746
-1.97726
-2.01098
-2.02902
-2.04665
-2.04125
-2.05373
-1.99742
-2.0432
-1.85204
-2.08847
-1.47036
-2.47713
-0.38334
-4.28443
1.85251
1.84225
1.8315
1.82012
1.80809
1.79539
1.78202
1.76792
1.75305
1.73737
1.72082
1.70338
1.68497
1.66558
1.64513
1.62357
1.60085
1.57692
1.55178
1.52548
1.49815
1.46981
1.44001
1.40796
1.37334
1.33678
1.29937
1.26165
1.22335
1.18366
1.14138
1.09546
1.04561
0.992113
0.934987
0.874131
0.809981
0.743215
0.67397
0.601952
0.526857
0.448599
0.367216
0.282788
0.195396
0.105123
0.0121063
-0.0834721
-0.18137
-0.281303
-0.382912
-0.485765
-0.58938
-0.693178
-0.796508
-0.898658
-0.998824
-1.09614
-1.18966
-1.27843
-1.36141
-1.43768
-1.50596
-1.56592
-1.61541
-1.65095
-1.67257
-1.69472
-1.69712
-1.71699
-1.67505
-1.72889
-1.5637
-1.80163
-1.23405
-2.21819
-0.233232
-4.04007
1.49519
1.48726
1.47895
1.47017
1.46088
1.45107
1.44075
1.42985
1.41836
1.40623
1.39344
1.37995
1.36572
1.35073
1.33492
1.31823
1.30063
1.28208
1.26254
1.24197
1.2204
1.1979
1.17455
1.15034
1.12471
1.09691
1.06683
1.03525
1.0032
0.971027
0.93828
0.90409
0.867372
0.827441
0.784293
0.738038
0.688603
0.636215
0.581528
0.524929
0.466247
0.405191
0.341617
0.275544
0.207049
0.13619
0.0630311
-0.0123259
-0.0897486
-0.169024
-0.249925
-0.332139
-0.415324
-0.499065
-0.582872
-0.666205
-0.748457
-0.828956
-0.906955
-0.981691
-1.05231
-1.11806
-1.17787
-1.23148
-1.27695
-1.31091
-1.33298
-1.35635
-1.36299
-1.38674
-1.35523
-1.41367
-1.27012
-1.5066
-0.983924
-1.942
-0.0626523
-3.75734
1.12115
1.11529
1.10916
1.10269
1.09584
1.08862
1.08102
1.07299
1.06454
1.05562
1.04621
1.03631
1.02586
1.01486
1.00326
0.991027
0.978137
0.964558
0.950238
0.935156
0.919292
0.902645
0.885252
0.86719
0.84855
0.829179
0.808454
0.785736
0.761186
0.73577
0.710355
0.685088
0.659458
0.63262
0.60378
0.57258
0.538961
0.502768
0.464008
0.423165
0.380687
0.336472
0.290156
0.241552
0.190717
0.137811
0.0829827
0.0263349
-0.0320336
-0.0919818
-0.153329
-0.215851
-0.279292
-0.343349
-0.407671
-0.471865
-0.535489
-0.598064
-0.659032
-0.717829
-0.773806
-0.826428
-0.874804
-0.918814
-0.956793
-0.985979
-1.00553
-1.02703
-1.03451
-1.05871
-1.03379
-1.09331
-0.966894
-1.19831
-0.715415
-1.63897
0.130986
-3.39486
0.82083
0.816848
0.812679
0.808259
0.80358
0.798651
0.79345
0.787943
0.78214
0.776017
0.769546
0.762723
0.755528
0.747923
0.739893
0.731427
0.722495
0.713062
0.70311
0.692611
0.681527
0.66984
0.657554
0.644679
0.631265
0.617412
0.603143
0.588127
0.571641
0.553269
0.533521
0.513411
0.493448
0.473283
0.452085
0.429019
0.40375
0.376474
0.347371
0.316461
0.284261
0.25151
0.218407
0.184597
0.149641
0.113337
0.0756995
0.0368137
-0.00323877
-0.0443906
-0.0865567
-0.12962
-0.173422
-0.217783
-0.262469
-0.307216
-0.351726
-0.395679
-0.438685
-0.480364
-0.520259
-0.558029
-0.592993
-0.625173
-0.6532
-0.675369
-0.690184
-0.707394
-0.712954
-0.734831
-0.713035
-0.770813
-0.656826
-0.879821
-0.431393
-1.30538
0.34046
-2.90392
0.336802
0.33413
0.331331
0.32837
0.325237
0.321931
0.31844
0.314747
0.310849
0.306734
0.302377
0.297767
0.292901
0.287746
0.282281
0.276493
0.270357
0.263842
0.256926
0.249575
0.24175
0.23341
0.224519
0.215044
0.204944
0.194152
0.182507
0.169823
0.155947
0.140769
0.124848
0.110594
0.102487
0.105256
0.1212
0.148688
0.182211
0.213732
0.235239
0.241463
0.2315
0.208912
0.17999
0.150261
0.122122
0.0954335
0.0693066
0.0431996
0.0170431
-0.00904615
-0.0349908
-0.0607708
-0.0863775
-0.111788
-0.136951
-0.161794
-0.186223
-0.210134
-0.233375
-0.255797
-0.277193
-0.297447
-0.316138
-0.333462
-0.348346
-0.360526
-0.368023
-0.378314
-0.37916
-0.395768
-0.374422
-0.425811
-0.324964
-0.523351
-0.135745
-0.874267
0.485226
-2.03262
0.302918
0.302913
0.302896
0.302874
0.302848
0.302815
0.302775
0.302735
0.302698
0.302663
0.302626
0.302592
0.302574
0.302575
0.302598
0.302656
0.302756
0.302919
0.303164
0.303515
0.304008
0.304664
0.305475
0.306376
0.307273
0.308222
0.309729
0.313133
0.320694
0.334815
0.3561
0.38093
0.400492
0.402934
0.377851
0.320768
0.235819
0.136055
0.0405281
-0.0319666
-0.0706513
-0.0774627
-0.0646242
-0.0463313
-0.0314063
-0.0219535
-0.01649
-0.0132569
-0.0115001
-0.0111701
-0.0123155
-0.0148374
-0.0185319
-0.0231877
-0.0286155
-0.0346357
-0.0410751
-0.0477754
-0.0545851
-0.0613809
-0.0680209
-0.0744745
-0.0805023
-0.0863973
-0.0914953
-0.0966574
-0.0988812
-0.103582
-0.101693
-0.112249
-0.0958562
-0.132095
-0.0639209
-0.193488
0.0461773
-0.376176
0.390561
-0.878378
)
;

boundaryField
{
    inlet
    {
        type            freestreamPressure;
        freestreamValue uniform 0;
        value           nonuniform List<scalar> 
27
(
-3.68368
-3.55533
-3.47224
-3.41081
-3.34189
-3.26414
-3.18451
-3.10501
-3.02449
-2.94196
-2.85741
-2.77088
-2.68185
-2.58947
-2.49217
-2.38735
-2.27225
-2.1434
-2.06162
-1.98476
-1.89202
-1.78396
-1.65888
-1.49855
-1.28145
-0.896633
-0.387255
)
;
    }
    outlet
    {
        type            freestreamPressure;
        freestreamValue uniform 0;
        value           nonuniform List<scalar> 
78
(
0.000904419
0.000904318
0.00090418
0.00090402
0.000903843
0.000903642
0.000903411
0.000903173
0.000902937
0.000902696
0.000902444
0.000902193
0.000901978
0.000901808
0.000901697
0.000901674
0.000901767
0.000902031
0.000902522
0.000903307
0.000904501
0.000906179
0.000908341
0.000910818
0.000913304
0.000915838
0.000919675
0.00092848
0.000948769
0.000987792
0.00104798
0.00111986
0.00117886
0.00119053
0.00112253
0.000958269
0.000707224
0.000408409
0.000121392
-9.53291e-05
-0.000209619
-0.000228812
-0.000190332
-0.000136273
-9.23532e-05
-6.45725e-05
-4.85172e-05
-3.90134e-05
-3.3849e-05
-3.28838e-05
-3.62646e-05
-4.37047e-05
-5.46097e-05
-6.83656e-05
-8.44244e-05
-0.000102269
-0.000121404
-0.000141377
-0.000161759
-0.000182204
-0.000202312
-0.000222007
-0.000240603
-0.000258971
-0.000275186
-0.000291598
-0.000299297
-0.00031443
-0.000310291
-0.000343222
-0.000295976
-0.000406516
-0.000201405
-0.000594668
0.000151691
-0.00111969
0.00141854
-0.00227726
)
;
    }
    walls
    {
        type            zeroGradient;
    }
    frontAndBack
    {
        type            empty;
    }
    procBoundary7to3
    {
        type            processor;
        value           nonuniform List<scalar> 
16
(
6.38745
5.73734
5.16921
4.66561
4.22515
3.69614
3.14942
2.68688
2.25352
2.25352
1.86245
1.50286
1.1268
0.824685
0.339378
0.302928
)
;
    }
    procBoundary7to6
    {
        type            processor;
        value           nonuniform List<scalar> 
91
(
-8.53893
-1.02565
-1.02565
-6.08406
-6.08406
-3.97837
-3.97837
-5.5106
-5.75641
-5.75641
-6.45739
-6.20703
-6.20703
-7.45314
-7.06835
-6.73407
-6.73407
-8.00527
-7.70295
-7.41464
-7.41464
-8.53082
-8.33301
-8.1034
-7.84558
-7.84558
-8.0581
-8.10868
-8.11598
-8.0814
-8.00667
-8.00667
-5.52337
-5.87258
-6.19001
-6.47311
-6.71976
-6.9282
-7.09715
-7.09715
0.318878
-0.101837
-0.529384
-0.961994
-1.39763
-1.83402
-2.26868
-2.69893
-3.1219
-3.5346
-3.93395
-4.31682
-4.31682
7.08165
7.021
6.95908
6.89416
6.82517
6.75247
6.67604
6.5953
6.51045
6.42262
6.33273
6.24114
6.14773
6.05165
5.95142
5.84534
5.73151
5.60728
5.46976
5.31725
5.15014
4.96982
4.77751
4.57459
4.36198
4.13924
3.90546
3.66018
3.40322
3.13448
2.8539
2.56141
2.25707
1.94105
1.61365
1.27529
0.926546
0.926546
)
;
    }
}


// ************************************************************************* //
