/*--------------------------------*- C++ -*----------------------------------*\
| =========                 |                                                 |
| \\      /  F ield         | OpenFOAM: The Open Source CFD Toolbox           |
|  \\    /   O peration     | Version:  2306                                  |
|   \\  /    A nd           | Website:  www.openfoam.com                      |
|    \\/     M anipulation  |                                                 |
\*---------------------------------------------------------------------------*/
FoamFile
{
    version     2.0;
    format      ascii;
    arch        "LSB;label=32;scalar=64";
    class       volScalarField;
    location    "800";
    object      turbulenceProperties:I;
}
// * * * * * * * * * * * * * * * * * * * * * * * * * * * * * * * * * * * * * //

dimensions      [0 0 0 0 0 0 0];

internalField   nonuniform List<scalar> 
1340
(
3.02095e-05
2.6468e-05
3.04409e-05
2.60157e-05
2.60488e-05
3.04458e-05
1.6809e-05
2.58545e-05
2.57678e-05
3.05166e-05
1.58702e-05
2.15151e-05
1.67317e-05
2.57262e-05
2.55262e-05
3.06279e-05
1.89125e-05
2.05118e-05
1.56333e-05
2.13214e-05
1.66515e-05
2.56106e-05
2.53292e-05
3.0741e-05
2.24272e-05
2.10249e-05
2.10376e-05
1.85359e-05
2.02301e-05
1.53805e-05
2.11307e-05
1.65735e-05
2.55118e-05
2.51868e-05
3.08472e-05
2.40793e-05
2.33383e-05
2.24036e-05
2.19434e-05
2.05574e-05
2.06508e-05
1.81451e-05
1.99412e-05
1.5115e-05
2.09475e-05
1.64972e-05
2.54326e-05
2.5097e-05
3.09447e-05
2.70891e-05
2.61617e-05
2.52409e-05
2.43342e-05
2.34133e-05
2.2733e-05
2.18333e-05
2.14408e-05
2.00738e-05
2.025e-05
1.77419e-05
1.96464e-05
1.4838e-05
2.07703e-05
1.6423e-05
2.53684e-05
2.50479e-05
3.10466e-05
3.0466e-05
2.9577e-05
2.86931e-05
2.78169e-05
2.69501e-05
2.60939e-05
2.52502e-05
2.44077e-05
2.35796e-05
2.27231e-05
2.21051e-05
2.12417e-05
2.09179e-05
1.95728e-05
1.98342e-05
1.73251e-05
1.93441e-05
1.45495e-05
2.05956e-05
1.63526e-05
2.53143e-05
2.50311e-05
3.11378e-05
3.43809e-05
3.36456e-05
3.28938e-05
3.21279e-05
3.13512e-05
3.05668e-05
2.97777e-05
2.89866e-05
2.8196e-05
2.74076e-05
2.66233e-05
2.58451e-05
2.50735e-05
2.43127e-05
2.35486e-05
2.27997e-05
2.20093e-05
2.1455e-05
2.06293e-05
2.03754e-05
1.90548e-05
1.94037e-05
1.68956e-05
1.90342e-05
1.42507e-05
2.04218e-05
1.62855e-05
2.52679e-05
2.50561e-05
3.12278e-05
3.79234e-05
3.7597e-05
3.72462e-05
3.68693e-05
3.64644e-05
3.60307e-05
3.55677e-05
3.50758e-05
3.45556e-05
3.40087e-05
3.34362e-05
3.28398e-05
3.2222e-05
3.15848e-05
3.09313e-05
3.02634e-05
2.95843e-05
2.88965e-05
2.8203e-05
2.75061e-05
2.6808e-05
2.61104e-05
2.54143e-05
2.47219e-05
2.40331e-05
2.33539e-05
2.26676e-05
2.19982e-05
2.12751e-05
2.07857e-05
1.9999e-05
1.98152e-05
1.85222e-05
1.89599e-05
1.6455e-05
1.87172e-05
1.3944e-05
2.02493e-05
1.62201e-05
2.52283e-05
2.51035e-05
3.13167e-05
2.84992e-06
7.03976e-07
0
0
0.000199584
0.000286774
0.00262968
0.00938141
0.0185807
0.027985
0.0358397
0.0410286
0.0426424
0.0396661
0.0305649
0.010017
0.0299883
0.0390901
0.0406631
0.0358171
0.0261279
0.0146601
0.00544738
0.000539194
0.000181737
0
0
0
5.28882e-06
1.95511e-05
3.73512e-05
3.94324e-05
3.68891e-05
3.56986e-05
3.55967e-05
3.54981e-05
3.52444e-05
3.49655e-05
3.46918e-05
3.44029e-05
3.40901e-05
3.37532e-05
3.33911e-05
3.30022e-05
3.25862e-05
3.21438e-05
3.16764e-05
3.11854e-05
3.0672e-05
3.01383e-05
2.95865e-05
2.90192e-05
2.84381e-05
2.78463e-05
2.72461e-05
2.66399e-05
2.60301e-05
2.54188e-05
2.48068e-05
2.41951e-05
2.35855e-05
2.29771e-05
2.2378e-05
2.17684e-05
2.11785e-05
2.05235e-05
2.00999e-05
1.93533e-05
1.92398e-05
1.79768e-05
1.85042e-05
1.60059e-05
1.83929e-05
1.36312e-05
2.00745e-05
1.61588e-05
2.51926e-05
2.51764e-05
3.14048e-05
2.826e-05
3.98587e-06
1.02959e-06
0
0
8.52592e-06
0.000708742
0.000943426
0.00592475
0.0139246
0.0230596
0.0313261
0.0373486
0.0401437
0.0387613
0.0319601
0.0161705
0.0245812
0.0353967
0.0384067
0.0349539
0.0264355
0.0155966
0.00615976
0.000834285
0.000240926
0
0
0
3.1443e-06
1.09489e-05
3.23931e-05
3.6787e-05
3.43675e-05
3.27231e-05
3.24779e-05
3.24335e-05
3.22325e-05
3.1987e-05
3.17507e-05
3.15002e-05
3.1221e-05
3.09157e-05
3.05871e-05
3.02346e-05
2.98576e-05
2.94572e-05
2.90349e-05
2.8592e-05
2.81303e-05
2.76523e-05
2.716e-05
2.66555e-05
2.61414e-05
2.56199e-05
2.50934e-05
2.45639e-05
2.40332e-05
2.35021e-05
2.29706e-05
2.24407e-05
2.19102e-05
2.13895e-05
2.08552e-05
2.03442e-05
1.97582e-05
1.94009e-05
1.86954e-05
1.86516e-05
1.74216e-05
1.80387e-05
1.55501e-05
1.80621e-05
1.33127e-05
1.98993e-05
1.60952e-05
2.51585e-05
2.5251e-05
3.14977e-05
2.87227e-05
2.6469e-05
7.83777e-06
1.90342e-06
0
0
0
0.000391217
0.000500296
0.00318342
0.00974592
0.0182839
0.0267662
0.0335278
0.0374227
0.0374977
0.0326842
0.0207841
0.0187356
0.0316448
0.0360676
0.033961
0.0265948
0.01642
0.00696694
0.00128999
0.00029518
0
0
0
7.76917e-07
1.7646e-06
2.51612e-05
3.30487e-05
3.1816e-05
3.00561e-05
2.96976e-05
2.97143e-05
2.95507e-05
2.92934e-05
2.90557e-05
2.88294e-05
2.85822e-05
2.83057e-05
2.80042e-05
2.76808e-05
2.73364e-05
2.6972e-05
2.65887e-05
2.61887e-05
2.57741e-05
2.53472e-05
2.49101e-05
2.44653e-05
2.40147e-05
2.35609e-05
2.31054e-05
2.26502e-05
2.21953e-05
2.17406e-05
2.12876e-05
2.08327e-05
2.03889e-05
1.9929e-05
1.94959e-05
1.89801e-05
1.86894e-05
1.80267e-05
1.80513e-05
1.68582e-05
1.75628e-05
1.50896e-05
1.77255e-05
1.29905e-05
1.97149e-05
1.60275e-05
2.51359e-05
2.53289e-05
3.15956e-05
2.53505e-05
2.66111e-05
2.53191e-05
1.24296e-05
2.90519e-06
0
0
0
7.44794e-05
0.00011739
0.00128089
0.00623916
0.0138284
0.0222592
0.0296326
0.0345459
0.0359558
0.0328655
0.0237209
0.0120805
0.0279092
0.0337088
0.0328704
0.0265888
0.0170627
0.00769178
0.00171161
0.00034688
0
0
0
6.34951e-08
5.58815e-06
2.07521e-05
2.95702e-05
2.94497e-05
2.74768e-05
2.68497e-05
2.70059e-05
2.7059e-05
2.68819e-05
2.66357e-05
2.6401e-05
2.61669e-05
2.59129e-05
2.56338e-05
2.53334e-05
2.50154e-05
2.46808e-05
2.43318e-05
2.39701e-05
2.35988e-05
2.32196e-05
2.28349e-05
2.24473e-05
2.20587e-05
2.16709e-05
2.12851e-05
2.09017e-05
2.05199e-05
2.01404e-05
1.97586e-05
1.93892e-05
1.90024e-05
1.86457e-05
1.81995e-05
1.7976e-05
1.73559e-05
1.74486e-05
1.62914e-05
1.70861e-05
1.46234e-05
1.73893e-05
1.26418e-05
1.95416e-05
1.59317e-05
2.51126e-05
2.54189e-05
3.17269e-05
2.37043e-05
2.36043e-05
2.49802e-05
2.38834e-05
1.64565e-05
3.80872e-06
5.54448e-08
0
0
1.38375e-06
0.000462281
0.000491224
0.00340172
0.00960894
0.0175349
0.0253119
0.0312578
0.0341054
0.0328095
0.0261451
0.00971941
0.0236431
0.0311562
0.0317571
0.0266834
0.0179128
0.0086597
0.00220402
0.000331852
0.000104265
0
0
0
4.30807e-06
1.49514e-05
2.57041e-05
2.82002e-05
2.65088e-05
2.48649e-05
2.44075e-05
2.44593e-05
2.44435e-05
2.42755e-05
2.40486e-05
2.38173e-05
2.35795e-05
2.3325e-05
2.30514e-05
2.27624e-05
2.24618e-05
2.21503e-05
2.18317e-05
2.15078e-05
2.11809e-05
2.0854e-05
2.05285e-05
2.02069e-05
1.98889e-05
1.95763e-05
1.92669e-05
1.89606e-05
1.86529e-05
1.83582e-05
1.80447e-05
1.77667e-05
1.73917e-05
1.72367e-05
1.66646e-05
1.68218e-05
1.57126e-05
1.65841e-05
1.41638e-05
1.70244e-05
1.2333e-05
1.93356e-05
1.58625e-05
2.50695e-05
2.55003e-05
3.18147e-05
2.22281e-05
2.18821e-05
2.21005e-05
2.24497e-05
2.20073e-05
1.93858e-05
7.82679e-06
1.87785e-06
1.33003e-08
0
0
0.000159323
0.000277174
0.00104845
0.00475106
0.0106677
0.0177651
0.0244764
0.0292719
0.0308735
0.0281692
0.0195849
0.0129801
0.0251319
0.0289436
0.0268575
0.0204333
0.0121816
0.00521718
0.000965977
0.00031384
4.61857e-05
0
0
4.76057e-07
3.34835e-06
1.03794e-05
2.0406e-05
2.39122e-05
2.34032e-05
2.21954e-05
2.16808e-05
2.16335e-05
2.16e-05
2.14527e-05
2.12472e-05
2.10326e-05
2.08116e-05
2.05788e-05
2.03345e-05
2.00801e-05
1.9821e-05
1.95598e-05
1.92989e-05
1.90401e-05
1.87859e-05
1.8539e-05
1.82988e-05
1.80671e-05
1.78406e-05
1.76196e-05
1.73977e-05
1.71902e-05
1.69628e-05
1.67735e-05
1.64877e-05
1.64045e-05
1.59032e-05
1.61134e-05
1.5099e-05
1.59986e-05
1.37285e-05
1.65388e-05
1.20949e-05
1.88859e-05
1.54896e-05
2.45086e-05
2.48593e-05
3.06738e-05
2.04222e-05
2.02326e-05
2.02826e-05
2.01713e-05
2.00969e-05
2.05959e-05
1.94864e-05
1.56205e-05
2.06269e-06
5.48016e-07
0
0
4.97434e-06
0.000101015
0.00055249
0.00087955
0.00411653
0.00937711
0.0158261
0.02204
0.0264969
0.0278509
0.0249408
0.015955
0.0144126
0.0238029
0.0259881
0.0229312
0.0165316
0.00931072
0.00367758
0.000473461
0.00021913
1.48099e-05
0
0
2.81987e-07
2.89996e-06
9.69907e-06
1.81158e-05
2.07245e-05
2.00914e-05
1.91082e-05
1.87774e-05
1.87641e-05
1.87032e-05
1.85469e-05
1.8359e-05
1.81708e-05
1.79788e-05
1.778e-05
1.75793e-05
1.7379e-05
1.71844e-05
1.6997e-05
1.68197e-05
1.66551e-05
1.65026e-05
1.63643e-05
1.62348e-05
1.61148e-05
1.5995e-05
1.58909e-05
1.57663e-05
1.56803e-05
1.54974e-05
1.55e-05
1.50784e-05
1.53563e-05
1.44325e-05
1.53989e-05
1.32355e-05
1.61085e-05
1.18335e-05
1.86433e-05
1.55161e-05
2.44651e-05
2.51514e-05
3.08099e-05
1.86026e-05
1.84777e-05
1.86035e-05
1.85104e-05
1.8284e-05
1.82195e-05
1.84812e-05
1.87719e-05
1.68754e-05
1.00139e-05
2.31592e-06
3.29307e-08
0
0
0
9.92202e-05
0.000534109
0.000722997
0.00375017
0.00869167
0.0147601
0.0205635
0.0245688
0.0253939
0.021824
0.0114172
0.0162055
0.0227672
0.0231667
0.0191794
0.0128781
0.00658417
0.0021013
0.000118991
0.000137705
0
0
0
2.79397e-07
3.22183e-06
1.12935e-05
1.67428e-05
1.7637e-05
1.67695e-05
1.61642e-05
1.60549e-05
1.60371e-05
1.59316e-05
1.57738e-05
1.56112e-05
1.54553e-05
1.53034e-05
1.51565e-05
1.50225e-05
1.49035e-05
1.4803e-05
1.47233e-05
1.46641e-05
1.46258e-05
1.46018e-05
1.45919e-05
1.45831e-05
1.459e-05
1.45738e-05
1.45955e-05
1.45157e-05
1.46075e-05
1.42661e-05
1.46161e-05
1.37752e-05
1.48217e-05
1.2738e-05
1.57158e-05
1.15193e-05
1.84531e-05
1.54709e-05
2.44936e-05
2.53663e-05
3.09289e-05
1.67386e-05
1.68966e-05
1.68588e-05
1.67081e-05
1.65469e-05
1.646e-05
1.65444e-05
1.70128e-05
1.66494e-05
1.40864e-05
4.71986e-06
1.19924e-06
0
0
0
0
9.35511e-05
0.000521076
0.00072826
0.00369276
0.00846588
0.0142402
0.019605
0.0229981
0.023019
0.0183896
0.0048308
0.0174564
0.0214298
0.0201989
0.0155064
0.00943296
0.00419592
0.000908123
0.000245958
3.91764e-05
0
0
0
1.65527e-06
5.24454e-06
1.23945e-05
1.47854e-05
1.45033e-05
1.37785e-05
1.35166e-05
1.34847e-05
1.34203e-05
1.32986e-05
1.31723e-05
1.30615e-05
1.29672e-05
1.28959e-05
1.28497e-05
1.28325e-05
1.28464e-05
1.28899e-05
1.29606e-05
1.30496e-05
1.31555e-05
1.32609e-05
1.33795e-05
1.3469e-05
1.35925e-05
1.36079e-05
1.37806e-05
1.35168e-05
1.39303e-05
1.31709e-05
1.42863e-05
1.22833e-05
1.5358e-05
1.12309e-05
1.82981e-05
1.54048e-05
2.45536e-05
2.54847e-05
3.10391e-05
1.50436e-05
1.52223e-05
1.52046e-05
1.51081e-05
1.50202e-05
1.49157e-05
1.48218e-05
1.48334e-05
1.50536e-05
1.54453e-05
1.45135e-05
9.67199e-06
2.29433e-06
3.32083e-08
0
0
0
0
9.63274e-05
0.000518513
0.000874939
0.00389176
0.00861162
0.0141308
0.0189798
0.0215682
0.0205047
0.0143765
0.00962482
0.0180321
0.0196997
0.0170267
0.0118542
0.00629367
0.00216585
0.000217045
0.000177684
0
0
0
1.64767e-07
2.33615e-06
7.73491e-06
1.13743e-05
1.18649e-05
1.13118e-05
1.0956e-05
1.08952e-05
1.08725e-05
1.08128e-05
1.07539e-05
1.07255e-05
1.07374e-05
1.07891e-05
1.08827e-05
1.10188e-05
1.11907e-05
1.1393e-05
1.16117e-05
1.18434e-05
1.20684e-05
1.22988e-05
1.249e-05
1.27064e-05
1.28064e-05
1.30469e-05
1.28576e-05
1.33219e-05
1.26451e-05
1.38095e-05
1.19017e-05
1.50424e-05
1.10132e-05
1.81713e-05
1.53371e-05
2.46398e-05
2.5509e-05
3.11665e-05
1.34182e-05
1.35943e-05
1.35912e-05
1.35212e-05
1.34623e-05
1.33926e-05
1.33442e-05
1.32573e-05
1.32e-05
1.32715e-05
1.36878e-05
1.36561e-05
1.19173e-05
4.32538e-06
1.15965e-06
4.31749e-09
0
0
0
0
0.000138691
0.00013081
0.00114866
0.00432841
0.0090767
0.0143265
0.0185198
0.0200652
0.0176252
0.00914814
0.0130964
0.0178645
0.0174454
0.0136002
0.00830976
0.00365072
0.000724779
0.000233762
0
0
0
0
1.46756e-06
4.51751e-06
8.00121e-06
9.03905e-06
8.73393e-06
8.30911e-06
8.17554e-06
8.18688e-06
8.23132e-06
8.31536e-06
8.46814e-06
8.69009e-06
8.96706e-06
9.28535e-06
9.6315e-06
9.99417e-06
1.03585e-05
1.0719e-05
1.10588e-05
1.13905e-05
1.16696e-05
1.19605e-05
1.21269e-05
1.24137e-05
1.22882e-05
1.27871e-05
1.21887e-05
1.3382e-05
1.15715e-05
1.47555e-05
1.08276e-05
1.80629e-05
1.52489e-05
2.47326e-05
2.5406e-05
3.13269e-05
1.23075e-05
1.24497e-05
1.24725e-05
1.24154e-05
1.23587e-05
1.23158e-05
1.2292e-05
1.22393e-05
1.21803e-05
1.21027e-05
1.21239e-05
1.22808e-05
1.27088e-05
1.18718e-05
9.2218e-06
4.97601e-07
1.99343e-07
0
0
0
0
2.5322e-06
0.000158294
0.000128722
0.00157444
0.00504786
0.00983795
0.0147165
0.0180391
0.0182585
0.0140577
0.00555105
0.0148855
0.0168271
0.0145944
0.0100017
0.0050969
0.00158659
6.57938e-05
5.17056e-05
0
0
0
5.71169e-07
1.0894e-06
3.27793e-06
4.06838e-06
4.50273e-06
4.56445e-06
4.68712e-06
5.10212e-06
5.66363e-06
6.24787e-06
6.8331e-06
7.41438e-06
7.98082e-06
8.52296e-06
9.03915e-06
9.52376e-06
9.981e-06
1.04007e-05
1.07998e-05
1.11369e-05
1.14709e-05
1.16798e-05
1.19858e-05
1.19137e-05
1.24212e-05
1.19088e-05
1.30883e-05
1.14118e-05
1.45621e-05
1.07982e-05
1.80071e-05
1.51411e-05
2.48462e-05
2.50634e-05
3.16493e-05
1.11158e-05
1.12802e-05
1.12956e-05
1.12372e-05
1.11842e-05
1.11723e-05
1.11805e-05
1.11117e-05
1.10961e-05
1.10732e-05
1.10094e-05
1.09737e-05
1.109e-05
1.13316e-05
1.15003e-05
1.00929e-05
6.08745e-06
1.75409e-06
4.7919e-08
0
0
0
0
4.1162e-06
0.000277708
0.000181105
0.00221909
0.00602981
0.0108126
0.0151166
0.017259
0.0157789
0.0089638
0.0109501
0.015338
0.0147871
0.0111238
0.0063387
0.00241152
0.00028302
0.000188986
0
0
0
8.41836e-08
1.23173e-06
2.82654e-06
6.0633e-06
5.48554e-06
4.64663e-06
4.84139e-06
5.49401e-06
6.18117e-06
6.79627e-06
7.35463e-06
7.88431e-06
8.38847e-06
8.86752e-06
9.315e-06
9.73709e-06
1.01267e-05
1.04995e-05
1.08185e-05
1.11296e-05
1.13229e-05
1.15952e-05
1.15284e-05
1.20135e-05
1.15394e-05
1.27043e-05
1.10649e-05
1.42586e-05
1.04637e-05
1.78479e-05
1.48518e-05
2.4841e-05
2.44109e-05
3.21753e-05
1.15438e-05
1.16255e-05
1.16196e-05
1.15576e-05
1.14984e-05
1.14581e-05
1.14344e-05
1.13712e-05
1.13292e-05
1.12801e-05
1.12032e-05
1.11351e-05
1.10834e-05
1.10694e-05
1.11467e-05
1.1393e-05
1.09415e-05
9.25166e-06
4.80278e-06
1.53127e-06
5.26209e-08
0
0
0
0
2.98046e-05
0.000389025
0.000590954
0.00318951
0.00736201
0.012087
0.0157263
0.0165636
0.0131508
0.00535443
0.0135238
0.0149928
0.0124445
0.00785265
0.00322713
0.000381332
0.000252951
0.000171917
7.75287e-05
1.3521e-05
0
1.48324e-07
1.46886e-06
6.52584e-06
9.27225e-06
8.93412e-06
8.34035e-06
8.24253e-06
8.45564e-06
8.75119e-06
9.06044e-06
9.37922e-06
9.70651e-06
1.00328e-05
1.03539e-05
1.06631e-05
1.09679e-05
1.12391e-05
1.15019e-05
1.16679e-05
1.18937e-05
1.18505e-05
1.22672e-05
1.18858e-05
1.29138e-05
1.14777e-05
1.44262e-05
1.0805e-05
1.80244e-05
1.44717e-05
2.50833e-05
2.32635e-05
3.38861e-05
1.06706e-05
1.07065e-05
1.07218e-05
1.07432e-05
1.07573e-05
1.07716e-05
1.07992e-05
1.08324e-05
1.08603e-05
1.08762e-05
1.08916e-05
1.09191e-05
1.09433e-05
1.09689e-05
1.09911e-05
1.11119e-05
1.13212e-05
1.14697e-05
1.0964e-05
9.53205e-06
4.84264e-06
1.44454e-06
0
0
0
0
0
7.5384e-05
0.000357623
0.00067262
0.00294501
0.00641601
0.0101629
0.0128679
0.0131825
0.00991148
0.00534571
0.011202
0.0118919
0.00964442
0.00620919
0.00313664
0.00113873
0.000160957
0.000149582
6.15141e-05
0
0
1.3114e-06
5.14188e-06
8.87671e-06
1.00605e-05
1.00911e-05
9.99236e-06
1.00047e-05
1.00848e-05
1.01861e-05
1.0296e-05
1.04114e-05
1.05298e-05
1.0648e-05
1.07729e-05
1.08853e-05
1.10032e-05
1.10371e-05
1.11098e-05
1.09528e-05
1.12656e-05
1.07924e-05
1.18094e-05
1.01132e-05
1.33452e-05
8.84623e-06
1.70385e-05
1.31718e-05
2.39544e-05
2.32311e-05
3.37691e-05
)
;

boundaryField
{
    inlet
    {
        type            calculated;
        value           nonuniform List<scalar> 
27
(
7.7275e-05
7.73429e-05
7.74506e-05
7.75867e-05
7.77308e-05
7.78801e-05
7.80379e-05
7.82028e-05
7.83741e-05
7.85461e-05
7.87181e-05
7.88871e-05
7.90501e-05
7.92038e-05
7.93446e-05
7.94688e-05
7.9579e-05
7.94048e-05
7.94414e-05
7.9442e-05
7.93891e-05
7.92764e-05
7.90879e-05
7.88143e-05
7.84251e-05
7.80385e-05
7.72941e-05
)
;
    }
    outlet
    {
        type            calculated;
        value           nonuniform List<scalar> 
78
(
9.61195e-06
9.66772e-06
9.69644e-06
9.73333e-06
9.76096e-06
9.7889e-06
9.83485e-06
9.88797e-06
9.93403e-06
9.96463e-06
9.99458e-06
1.00398e-05
1.00833e-05
1.01286e-05
1.01688e-05
1.02968e-05
1.04984e-05
1.06283e-05
1.01545e-05
8.87314e-06
4.58885e-06
1.39981e-06
0
0
0
0
0
7.55605e-05
0.000357215
0.000653272
0.00293184
0.0064046
0.0101565
0.0128717
0.0132037
0.00996303
0.00516845
0.0111432
0.0118599
0.00963097
0.00620774
0.00314134
0.00114599
0.000130688
0.000146091
5.99871e-05
0
0
1.22621e-06
4.85146e-06
8.4137e-06
9.54443e-06
9.56635e-06
9.45703e-06
9.44482e-06
9.48839e-06
9.54475e-06
9.60371e-06
9.66344e-06
9.72376e-06
9.78231e-06
9.85098e-06
9.90554e-06
9.97926e-06
9.94918e-06
1.00049e-05
9.74088e-06
1.01706e-05
9.42812e-06
1.08895e-05
8.2797e-06
1.27767e-05
4.5756e-06
1.67161e-05
1.24648e-05
2.35483e-05
2.32592e-05
3.28543e-05
)
;
    }
    walls
    {
        type            calculated;
        value           nonuniform List<scalar> 0();
    }
    frontAndBack
    {
        type            empty;
    }
    procBoundary7to3
    {
        type            processor;
        value           nonuniform List<scalar> 
16
(
3.33109e-05
3.46086e-05
3.00803e-05
2.77605e-05
2.60938e-05
2.4111e-05
2.18208e-05
1.97035e-05
1.68213e-05
1.68213e-05
1.51029e-05
1.34793e-05
1.2371e-05
1.11309e-05
1.16549e-05
1.05883e-05
)
;
    }
    procBoundary7to6
    {
        type            processor;
        value           nonuniform List<scalar> 
91
(
3.01653e-05
2.69084e-05
2.69084e-05
2.62655e-05
2.62655e-05
1.68751e-05
1.68751e-05
1.60885e-05
2.17074e-05
2.17074e-05
1.92685e-05
2.07818e-05
2.07818e-05
2.28905e-05
2.14745e-05
2.14092e-05
2.14092e-05
2.47232e-05
2.39227e-05
2.29543e-05
2.29543e-05
2.80576e-05
2.70463e-05
2.60471e-05
2.5063e-05
2.5063e-05
3.19367e-05
3.09438e-05
2.99604e-05
2.89891e-05
2.80315e-05
2.80315e-05
3.66134e-05
3.57655e-05
3.49024e-05
3.40266e-05
3.31418e-05
3.22513e-05
3.13584e-05
3.13584e-05
4.11385e-05
4.07392e-05
4.03124e-05
3.98559e-05
3.9368e-05
3.88483e-05
3.82968e-05
3.77138e-05
3.71004e-05
3.64589e-05
3.57901e-05
3.50965e-05
3.50965e-05
2.53387e-08
0
2.89263e-06
0.000584042
0.000550459
0.00511753
0.0135175
0.0235562
0.0329669
0.0403003
0.0446038
0.0449588
0.0402207
0.0283511
0.0167417
0.0352286
0.0427811
0.0428697
0.0365729
0.0256991
0.0136156
0.00453781
0.000554996
0.000199642
0
0
0
7.02997e-06
2.65756e-05
4.22463e-05
4.27561e-05
4.01824e-05
3.92092e-05
3.90723e-05
3.88659e-05
3.85494e-05
3.82334e-05
3.82334e-05
)
;
    }
}


// ************************************************************************* //
