/*--------------------------------*- C++ -*----------------------------------*\
| =========                 |                                                 |
| \\      /  F ield         | OpenFOAM: The Open Source CFD Toolbox           |
|  \\    /   O peration     | Version:  2306                                  |
|   \\  /    A nd           | Website:  www.openfoam.com                      |
|    \\/     M anipulation  |                                                 |
\*---------------------------------------------------------------------------*/
FoamFile
{
    version     2.0;
    format      ascii;
    arch        "LSB;label=32;scalar=64";
    class       volScalarField;
    location    "675";
    object      p;
}
// * * * * * * * * * * * * * * * * * * * * * * * * * * * * * * * * * * * * * //

dimensions      [0 2 -2 0 0 0 0];

internalField   nonuniform List<scalar> 
10720
(
-62.278
-133.565
-217.413
-300.051
-376.411
-454.199
-523.214
-581.158
-631.495
-670.881
-700.869
-722.955
-738.264
-747.524
-750.911
-747.777
-739.03
-723.617
-702.965
-677.136
-649.491
-623.082
-600.476
-573.516
-533.279
-482.204
-429.829
-384.23
-344.984
-308.066
-271.573
-235.412
-199.625
-163.842
-127.661
-90.0484
-51.5454
-6.90486
26.0637
9.0895
74.131
143.469
208.203
263.522
305.438
330.179
338.464
336.063
323.158
302.129
278.586
255.04
232.257
210.876
190.763
171.975
154.078
136.803
119.659
102.595
85.3001
67.8668
50.7071
35.6889
23.8529
14.1384
6.25707
0.393866
-3.48585
-5.63038
-6.18797
-5.24131
-2.79664
1.15466
6.96614
15.2117
29.1345
52.8224
43.2072
-10.9474
-71.6197
-136.059
-202.278
-270.053
-335.832
-397.536
-454.483
-504.914
-548.621
-585.61
-615.786
-639.148
-655.513
-664.579
-667.097
-662.952
-653.195
-638.373
-621.134
-603.838
-587.566
-565.159
-528.409
-479.364
-428.219
-383.16
-344.101
-307.262
-270.798
-234.673
-198.959
-163.271
-127.196
-89.6806
-51.257
-6.60384
25.7524
91.9375
138.389
184.722
229.415
268.8
300.266
320.675
329.368
327.941
317.251
300.068
279.871
258.608
237.222
216.417
196.443
177.43
159.195
141.541
124.14
106.89
89.5885
72.3156
55.4968
40.6046
28.5662
18.6987
10.588
4.19779
-0.37159
-3.13307
-4.18117
-3.61945
-1.48069
2.23381
7.86839
15.9812
29.8254
52.5823
56.986
8.32932
-46.457
-106.947
-169.664
-233.946
-298.228
-359.851
-417.23
-469.368
-515.014
-553.612
-584.857
-608.939
-626.094
-636.737
-640.899
-638.641
-630.61
-617.53
-601.263
-583.839
-566.416
-544.535
-511.36
-467.261
-420.364
-377.831
-340.182
-304.369
-268.752
-233.275
-197.98
-162.544
-126.638
-89.2552
-50.9371
-6.35559
25.8719
100.893
143.55
185.977
226.145
260.846
288.457
306.875
315.792
315.951
308.013
294.06
276.444
256.946
236.733
216.618
197.035
178.183
160.029
142.428
125.139
108.027
90.9517
73.9768
57.4843
42.637
30.3384
20.2173
11.9188
5.42884
0.834925
-1.92642
-3.01307
-2.54297
-0.530385
3.05537
8.57646
16.601
30.3108
52.186
79.5937
38.8053
-7.79081
-59.0334
-112.832
-169.118
-226.226
-282.397
-336.306
-386.797
-432.749
-473.433
-508.382
-537.449
-560.507
-577.681
-588.52
-592.98
-591.374
-584.317
-573.096
-559.259
-543.641
-523.377
-493.541
-454.08
-411.205
-371.126
-334.894
-300.196
-265.569
-230.918
-196.297
-161.401
-125.885
-88.775
-50.6382
-6.25639
26.075
116.128
151.215
186.408
220.361
250.079
274.299
291.207
300.32
301.883
296.36
285.346
270.586
253.541
235.309
216.679
198.136
179.954
162.217
144.871
127.769
110.81
93.9218
77.1742
60.9266
46.1382
33.659
23.3216
14.8026
8.05836
3.1506
0.023174
-1.42835
-1.2799
0.473789
3.86752
9.25277
17.1786
30.7151
51.7416
85.7193
49.4033
7.7213
-38.451
-87.0599
-138.516
-191.447
-244.241
-295.887
-345.229
-391.118
-432.747
-469.436
-500.686
-526.197
-545.659
-558.823
-565.692
-566.505
-561.884
-552.845
-540.678
-526.026
-506.851
-479.342
-443.148
-403.154
-364.861
-329.68
-295.86
-262.073
-228.18
-194.217
-159.889
-124.864
-88.1759
-50.3473
-6.29806
26.135
118.329
149.479
180.808
211.029
237.501
259.349
275.182
284.416
287.081
283.599
275.12
262.958
248.257
231.977
214.869
197.442
180.03
162.813
145.825
129.007
112.303
95.6846
79.2353
63.287
48.6315
36.0424
25.5114
16.7813
9.81358
4.67605
1.34208
-0.273955
-0.254007
1.39161
4.69093
9.98931
17.8231
31.1503
51.2886
89.5112
57.359
20.2621
-20.7989
-64.0394
-110.16
-157.878
-205.915
-253.531
-299.667
-343.357
-383.831
-420.352
-452.324
-479.318
-500.959
-517.127
-527.627
-532.464
-532.002
-526.916
-518.1
-505.958
-489.016
-464.366
-431.586
-394.627
-358.369
-324.444
-291.575
-258.607
-225.418
-192.075
-158.3
-123.763
-87.5238
-50.0855
-6.51091
26.0164
118.384
145.861
173.697
200.747
224.57
244.522
259.471
268.74
272.236
270.373
263.998
254.125
241.647
227.364
211.95
195.886
179.523
163.09
146.69
130.335
114.019
97.7559
81.6472
66.0079
51.5134
38.8666
28.1798
19.2732
12.1131
6.76379
3.21118
1.37188
1.16884
2.59874
5.70354
10.8335
18.5121
31.5705
50.7959
89.4307
60.4131
26.8446
-10.3449
-49.4309
-91.3472
-134.958
-179.141
-223.402
-266.804
-308.507
-347.825
-384.01
-416.412
-444.515
-467.866
-486.057
-498.823
-506.014
-507.91
-505.054
-498.15
-487.517
-472.15
-449.869
-420.172
-386.117
-351.901
-319.269
-287.37
-255.229
-222.73
-189.959
-156.692
-122.645
-86.8938
-49.9163
-6.93243
25.6933
115.516
140.261
165.455
190.042
211.778
230.21
244.407
253.628
257.737
257.143
252.49
244.573
234.095
221.701
207.967
193.319
178.098
162.558
146.851
131.046
115.189
99.3329
83.6006
68.2932
53.9964
41.3493
30.5479
21.4879
14.1464
8.58697
4.81015
2.75098
2.34432
3.59564
6.55145
11.5556
19.1087
31.8933
50.2288
87.7507
61.4112
30.8774
-2.91988
-38.345
-76.4566
-116.208
-156.623
-197.379
-237.677
-276.79
-314.148
-349.06
-380.89
-409.079
-433.117
-452.539
-467.11
-476.626
-481.151
-480.984
-476.557
-468.03
-454.672
-434.888
-408.212
-377.019
-344.908
-313.675
-282.845
-251.623
-219.899
-187.769
-155.044
-121.488
-86.2465
-49.8211
-7.54666
25.1142
111.464
133.91
156.893
179.43
199.432
216.602
230.123
239.225
243.784
244.17
240.905
234.633
225.91
215.254
203.143
189.936
175.941
161.416
146.533
131.403
116.112
100.749
85.4532
70.5164
56.463
43.876
33.009
23.8296
16.333
10.5854
6.60288
4.33658
3.72946
4.79079
7.57329
12.416
19.7989
32.2423
49.6598
84.8549
60.7367
32.7451
1.78479
-30.565
-65.427
-101.855
-138.969
-176.589
-214.018
-250.651
-286.027
-319.523
-350.542
-378.536
-402.967
-423.341
-439.291
-450.531
-456.957
-458.732
-456.153
-449.309
-437.681
-420.103
-396.154
-367.643
-337.608
-307.814
-278.092
-247.823
-216.912
-185.465
-153.324
-120.288
-85.5649
-49.7377
-8.25895
24.2602
106.6
127.152
148.297
169.117
187.654
203.756
216.661
225.598
230.47
231.611
229.459
224.552
217.344
208.247
197.651
185.847
173.1
159.648
145.667
131.293
116.643
101.832
87.0174
72.4836
58.7098
46.2329
35.3436
26.0743
18.4432
12.5212
8.33928
5.86558
5.05507
5.9249
8.5347
13.2167
20.4253
32.5094
49.0311
81.3071
59.0955
33.2984
4.80064
-24.8803
-56.8923
-90.3554
-124.475
-159.173
-193.838
-227.975
-261.213
-293.004
-322.825
-350.15
-374.44
-395.188
-411.985
-424.527
-432.602
-436.212
-435.489
-430.42
-420.606
-405.199
-383.841
-357.916
-329.96
-301.664
-273.101
-243.824
-213.762
-183.031
-151.511
-119.031
-84.8529
-49.6375
-9.01146
23.1811
101.368
120.304
139.88
159.227
176.508
191.676
204.014
212.753
217.831
219.548
218.287
214.505
208.586
200.864
191.654
181.183
169.671
157.321
144.302
130.757
116.82
102.627
88.3466
74.258
60.8079
48.4962
37.6359
28.3147
20.5781
14.5042
10.1387
7.46846
6.46006
7.13706
9.56643
14.0715
21.08
32.7575
48.3721
77.374
56.8082
32.9126
6.55035
-20.8104
-50.3305
-81.1834
-112.646
-144.699
-176.813
-208.586
-239.732
-269.771
-298.248
-324.688
-348.577
-369.409
-386.75
-400.237
-409.583
-414.646
-415.456
-411.943
-403.792
-390.381
-371.413
-347.928
-322.016
-295.246
-267.883
-239.632
-210.454
-180.474
-149.606
-117.717
-84.119
-49.5163
-9.81336
21.9423
95.9806
113.528
131.746
149.817
166.003
180.341
192.148
200.67
205.87
208.025
207.47
204.613
199.785
193.26
185.296
176.066
165.742
154.491
142.462
129.793
116.624
103.102
89.4014
75.7952
62.7085
50.6109
39.8269
30.4902
22.6749
16.4693
11.9338
9.07367
7.86982
8.35311
10.5986
14.919
21.713
32.9574
47.6776
73.259
54.136
31.9114
7.42752
-17.8964
-45.2148
-73.7451
-102.821
-132.472
-162.23
-191.766
-220.866
-249.118
-276.139
-301.5
-324.725
-345.331
-362.872
-376.958
-387.273
-393.552
-395.729
-393.676
-387.119
-375.597
-358.861
-337.685
-313.777
-288.562
-262.436
-235.248
-206.99
-177.796
-147.614
-116.349
-83.3718
-49.3923
-10.6806
20.5704
90.5948
106.929
123.959
140.902
156.125
169.714
181.019
189.316
194.571
197.053
197.06
194.96
191.048
185.557
178.7
170.605
161.402
151.223
140.189
128.424
116.065
103.26
90.1819
77.0976
64.4151
52.5801
41.9217
32.6097
24.7471
18.4345
13.7472
10.7091
9.31612
9.60613
11.6625
15.7857
22.344
33.1217
46.9526
69.0919
51.2418
30.498
7.67787
-15.8445
-41.2077
-67.6684
-94.6022
-122.081
-149.687
-177.14
-204.294
-230.793
-256.319
-280.501
-302.905
-323.078
-340.582
-355
-366.006
-373.243
-376.562
-375.797
-370.701
-360.919
-346.241
-327.234
-305.272
-281.622
-256.766
-230.673
-203.367
-174.995
-145.535
-114.928
-82.6108
-49.2869
-11.6137
19.0711
85.3006
100.57
116.542
132.481
146.845
159.753
170.584
178.646
183.909
186.629
187.081
185.6
182.456
177.852
171.967
164.897
156.737
147.584
137.529
126.678
115.154
103.098
90.6782
78.152
65.912
54.3846
43.8985
34.6514
26.7732
20.379
15.5584
12.354
10.7781
10.8758
12.7393
16.6554
22.9609
33.2462
46.1996
64.9586
48.2426
28.8226
7.48903
-14.4266
-38.0424
-62.6494
-87.6557
-113.167
-138.803
-164.328
-189.642
-214.446
-238.476
-261.418
-282.886
-302.456
-319.713
-334.229
-345.676
-353.649
-357.922
-358.296
-354.538
-346.363
-333.585
-316.609
-296.525
-274.44
-250.877
-225.906
-199.585
-172.069
-143.365
-113.451
-81.8326
-49.2072
-12.6098
17.4588
80.1609
94.48
109.508
124.542
138.133
150.414
160.795
168.619
173.852
176.743
177.546
176.569
174.066
170.22
165.183
159.03
151.826
143.639
134.532
124.586
113.907
102.623
90.891
78.9551
67.1931
56.0157
45.7476
36.6063
28.7464
22.2979
17.3653
14.0092
12.2587
12.1665
13.8335
17.5319
23.5661
33.3346
45.4225
60.915
45.2191
26.9902
6.99449
-13.4803
-35.5267
-58.4627
-81.7319
-105.457
-129.29
-153.033
-176.626
-199.815
-222.385
-244.069
-264.529
-283.379
-300.23
-314.664
-326.344
-334.852
-339.892
-341.246
-338.686
-331.973
-320.937
-305.85
-287.567
-267.031
-244.778
-220.951
-195.644
-169.016
-141.105
-111.92
-81.0358
-49.1487
-13.6662
15.7463
75.2127
88.6771
102.851
117.067
129.954
141.654
151.61
159.193
164.367
167.374
168.451
167.885
165.918
162.717
158.418
153.079
146.743
139.453
131.249
122.185
112.348
101.847
90.8234
79.5038
68.2514
57.4628
47.4556
38.4607
30.6534
24.1793
19.157
15.6649
13.7493
13.4705
14.9384
18.4094
24.1554
33.3873
44.6251
56.9981
42.2272
25.077
6.29308
-12.882
-33.5085
-54.9324
-76.6282
-98.7281
-120.912
-143.017
-165.006
-186.666
-207.824
-228.259
-247.673
-265.722
-282.047
-296.249
-307.982
-316.847
-322.49
-324.671
-323.172
-317.78
-308.331
-294.996
-278.427
-259.415
-238.477
-215.813
-191.545
-165.837
-138.753
-110.332
-80.2201
-49.1082
-14.7763
13.9395
70.4769
83.1679
96.5656
110.033
122.275
133.434
142.987
150.329
155.423
158.504
159.793
159.561
158.04
155.387
151.726
147.104
141.549
135.085
127.729
119.514
110.503
100.785
90.4811
79.7987
69.0841
58.7189
49.0125
40.2033
32.4835
26.0135
20.9256
17.3151
15.2453
14.7848
16.0515
19.286
24.7277
33.4068
43.8113
53.233
39.3037
23.1361
5.45716
-12.5391
-31.8745
-51.9262
-72.1902
-92.8086
-113.487
-134.081
-154.579
-174.802
-194.61
-213.822
-232.181
-249.381
-265.094
-278.945
-290.588
-299.653
-305.745
-308.61
-308.033
-303.821
-295.81
-284.087
-269.141
-251.615
-231.99
-210.501
-187.292
-162.533
-136.308
-108.687
-79.385
-49.0834
-15.932
12.0451
65.9641
77.9517
90.6378
103.417
115.064
125.718
134.887
141.991
146.987
150.107
151.559
151.598
150.448
148.261
145.151
141.159
136.302
130.59
124.023
116.614
108.403
99.4573
89.8761
79.8444
69.6894
59.7779
50.4088
41.8229
34.2254
27.7896
22.6613
18.9513
16.7398
16.1036
17.1681
20.158
25.2809
33.3951
42.9853
49.6334
36.4745
21.2098
4.53963
-12.3785
-30.5381
-49.3359
-68.2948
-87.5588
-106.856
-126.059
-145.176
-164.053
-182.582
-200.612
-217.923
-234.248
-249.288
-262.697
-274.135
-283.264
-289.671
-293.085
-293.297
-290.127
-283.41
-273.165
-259.742
-243.653
-225.33
-205.022
-182.889
-159.105
-133.771
-106.985
-78.5291
-49.0734
-17.1243
10.0739
61.6781
73.021
85.0519
97.1969
108.29
118.471
127.273
134.141
139.029
142.162
143.737
143.994
143.155
141.363
138.727
135.285
131.048
126.016
120.176
113.524
106.079
97.8866
89.0229
79.6482
70.0692
60.6366
51.6369
43.3097
35.8682
29.4974
24.3547
20.5655
18.2259
17.4215
18.2837
21.0222
25.8132
33.3547
42.1518
46.2065
33.7573
19.3229
3.58289
-12.349
-29.4289
-47.0788
-64.8411
-82.8656
-100.894
-118.816
-136.653
-154.274
-171.594
-188.491
-204.777
-220.219
-234.55
-247.451
-258.598
-267.674
-274.276
-278.117
-278.99
-276.728
-271.166
-262.268
-250.267
-235.559
-218.516
-199.387
-178.343
-155.556
-131.144
-105.226
-77.6513
-49.0764
-18.3446
8.03802
57.6186
68.3671
79.7918
91.3485
101.924
111.659
120.113
126.748
131.519
134.644
136.308
136.743
136.161
134.705
132.477
129.516
125.828
121.407
116.232
110.283
103.563
96.0972
87.9373
79.2198
70.228
61.2941
52.6915
44.6549
37.4021
31.1263
25.9958
22.1488
19.6959
18.7322
19.3935
21.8748
26.3232
33.2881
41.3153
42.9559
31.1632
17.4964
2.6149
-12.4078
-28.4952
-45.0883
-61.7529
-78.6378
-95.4986
-112.238
-128.89
-145.339
-161.521
-177.34
-192.634
-207.201
-220.804
-233.151
-243.939
-252.867
-259.562
-263.718
-265.134
-263.654
-259.114
-251.433
-240.752
-227.36
-211.568
-193.612
-173.662
-151.892
-128.427
-103.409
-76.7498
-49.0895
-19.584
5.9504
53.7812
63.9799
74.8416
85.8503
95.9415
105.254
113.376
119.783
124.431
127.531
129.26
129.837
129.47
128.298
126.422
123.879
120.675
116.801
112.228
106.929
100.889
94.1162
86.6402
78.5729
70.1723
61.7513
53.5687
45.8515
38.8176
32.6666
27.5748
23.692
21.1421
20.0292
20.4919
22.7124
26.8093
33.1981
40.4802
39.8808
28.6978
15.7443
1.65895
-12.5242
-27.6941
-43.3132
-58.9659
-74.8003
-90.5848
-106.233
-121.787
-137.146
-152.262
-167.058
-181.399
-195.109
-207.976
-219.74
-230.119
-238.825
-245.523
-249.895
-251.745
-250.93
-247.286
-240.699
-231.233
-219.087
-204.509
-187.709
-168.856
-148.116
-125.624
-101.536
-75.8221
-49.1085
-20.8332
3.82536
50.1613
59.8482
70.1846
80.6806
90.3165
99.2304
107.034
113.219
117.74
120.802
122.574
123.265
123.077
122.147
120.573
118.394
115.616
112.229
108.201
103.495
98.0883
91.9709
85.1534
77.7223
69.9109
62.0116
54.2669
46.8936
40.1068
34.1086
29.0819
25.1861
22.5562
21.3054
21.5736
23.5309
27.2703
33.0874
39.6512
36.9792
26.3643
14.0748
0.730814
-12.6731
-26.9932
-41.7103
-56.4283
-71.2907
-86.0814
-100.721
-115.257
-129.602
-143.72
-157.553
-170.983
-183.86
-195.998
-207.162
-217.095
-225.523
-232.149
-236.65
-238.836
-238.576
-235.71
-230.099
-221.746
-210.771
-197.361
-181.698
-163.937
-144.237
-122.737
-99.6052
-74.8665
-49.1286
-22.0821
1.67779
46.7511
55.9604
65.8047
75.8195
85.0264
93.5631
101.062
107.031
111.423
114.437
116.236
117.016
116.977
116.252
114.939
113.077
110.674
107.719
104.179
100.014
95.1915
89.6885
83.4984
76.6846
69.4553
62.081
54.7868
47.7777
41.2627
35.4437
30.5079
26.6217
23.9297
22.5535
22.6326
24.3265
27.7047
32.9587
38.8328
34.2473
24.1627
12.4945
-0.157377
-12.838
-26.3666
-40.2469
-54.0981
-68.0617
-81.931
-95.6366
-109.228
-122.629
-135.815
-148.741
-161.305
-173.381
-184.804
-195.364
-204.827
-212.934
-219.425
-223.98
-226.416
-226.61
-224.413
-219.667
-212.325
-202.443
-190.151
-175.596
-158.917
-140.262
-119.77
-97.6189
-73.8802
-49.1446
-23.3213
-0.478234
43.5421
52.3055
61.6879
71.2488
80.0512
88.2298
95.4368
101.195
105.456
108.416
110.227
111.078
111.164
110.615
109.526
107.938
105.864
103.291
100.188
96.5133
92.2267
87.2957
81.6987
75.4787
68.8187
61.9669
55.1309
48.5015
42.2796
36.6642
31.8437
27.9895
25.254
23.7657
23.663
25.0953
28.1117
32.8145
38.029
31.6796
22.0921
11.006
-0.997709
-13.0029
-25.7944
-38.8955
-51.9417
-65.0702
-78.0865
-90.9255
-103.641
-116.163
-128.477
-140.55
-152.296
-163.605
-174.332
-184.292
-193.271
-201.028
-207.332
-211.878
-214.487
-215.046
-213.417
-209.431
-203.003
-194.135
-182.904
-169.424
-153.81
-136.2
-116.729
-95.5777
-72.861
-49.15
-24.5402
-2.6272
40.5266
48.871
57.819
66.9523
75.3717
83.2089
90.136
95.6887
99.821
102.721
104.534
105.44
105.629
105.229
104.334
102.986
101.199
98.9649
96.2519
93.0179
89.2199
84.8177
79.7775
74.1237
68.0156
61.6789
55.3033
49.0649
43.1538
37.7632
33.081
29.2809
26.5204
24.9342
24.6585
25.8333
28.4901
32.6573
37.2439
29.27
20.1502
9.61101
-1.78478
-13.1576
-25.2604
-37.6341
-49.9302
-62.2826
-74.5057
-86.5397
-98.4396
-110.144
-121.646
-132.919
-143.892
-154.47
-164.527
-173.896
-182.386
-189.774
-195.851
-200.336
-203.051
-203.896
-202.742
-199.419
-193.811
-185.877
-175.649
-163.203
-148.635
-132.063
-113.618
-93.4835
-71.8057
-49.1386
-25.7284
-4.75417
37.6958
45.6463
54.184
62.9124
70.9686
78.4809
85.14
90.4947
94.4986
97.3341
99.1398
100.088
100.364
100.091
99.363
98.2241
96.6898
94.7535
92.3869
89.5489
86.1946
82.278
77.7566
72.6389
67.0613
61.2281
55.3104
49.4694
43.8826
38.7356
34.2123
30.4872
27.7205
26.0514
25.6128
26.5364
28.8389
32.4891
36.4808
27.0125
18.3334
8.30908
-2.51517
-13.2949
-24.7526
-36.4461
-48.0422
-59.671
-71.1553
-82.4408
-93.5819
-104.525
-115.268
-125.792
-136.037
-145.921
-155.335
-164.128
-172.131
-179.139
-184.96
-189.34
-192.106
-193.166
-192.406
-189.655
-184.777
-177.699
-168.41
-156.956
-143.406
-127.861
-110.445
-91.3369
-70.7125
-49.1024
-26.8753
-6.84393
35.0413
42.62
50.7699
59.114
66.8255
74.0283
80.4298
85.5932
89.4706
92.2393
94.031
95.0108
95.3582
95.195
94.6114
93.6541
92.3408
90.6674
88.6086
86.1248
83.1712
79.6982
75.657
71.0428
65.9719
60.6263
55.16
49.7181
44.4652
39.5769
35.2313
31.6008
28.8464
27.1097
26.5198
27.2007
29.1571
32.3119
35.7428
24.9009
16.6371
7.09931
-3.18669
-13.409
-24.261
-35.3173
-46.2586
-57.2116
-68.0066
-78.5949
-89.0296
-99.2634
-109.298
-119.121
-128.681
-137.909
-146.708
-154.945
-162.468
-169.09
-174.635
-178.876
-181.644
-182.858
-182.419
-180.16
-175.929
-169.628
-161.216
-150.706
-138.143
-123.608
-107.217
-89.1421
-69.578
-49.0347
-27.972
-8.88124
32.5542
39.7815
47.564
55.544
62.9271
69.8351
75.9891
80.967
84.7204
87.4206
89.1932
90.1958
90.6026
90.5329
90.075
89.2763
88.1569
86.7151
84.9287
82.7609
80.1675
77.0981
73.4992
69.3555
64.764
59.887
54.8609
49.816
44.9024
40.2844
36.1323
32.6144
29.8901
28.1015
27.3734
27.8222
29.4437
32.1269
35.0323
22.9282
15.0577
5.97891
-3.79821
-13.4962
-23.7784
-34.2362
-44.5649
-54.8853
-65.0369
-74.9745
-84.7512
-94.3228
-103.696
-112.864
-121.781
-130.389
-138.603
-146.306
-153.36
-159.596
-164.851
-168.927
-171.659
-172.975
-172.793
-170.95
-167.29
-161.692
-154.092
-144.475
-132.862
-119.318
-103.941
-86.9001
-68.4005
-48.929
-29.0076
-10.8523
30.2257
37.1207
44.555
52.1882
59.2588
65.8854
71.8018
76.6005
80.2324
82.8634
84.6129
85.6312
86.0878
86.0981
85.7492
85.089
84.1394
82.9015
81.3561
79.4694
77.1991
74.4954
71.3016
67.5942
63.4536
59.0232
54.4234
49.7691
45.1963
40.8568
36.9115
33.522
30.8445
29.0201
28.1676
28.3971
29.6975
31.9354
34.3511
21.0879
13.5896
4.94567
-4.35028
-13.5538
-23.2997
-33.1945
-42.9479
-52.6759
-62.2258
-71.555
-80.7173
-89.672
-98.4278
-106.982
-115.296
-123.32
-130.98
-138.171
-144.77
-150.626
-155.584
-159.475
-162.139
-163.515
-163.533
-162.042
-158.879
-153.914
-147.063
-138.287
-127.585
-115.003
-100.628
-84.615
-67.1776
-48.7761
-29.9736
-12.7438
28.0482
34.6277
41.7313
49.0343
55.8068
62.1645
67.8531
72.4784
75.9919
78.5535
80.2768
81.3051
81.8028
81.8823
81.6277
81.0887
80.2881
79.2297
77.8973
76.2603
74.2793
71.9051
69.0804
65.7757
62.0564
58.0488
53.858
49.5849
45.3507
41.2943
37.5656
34.3186
31.7035
29.8587
28.897
28.9217
29.9176
31.738
33.7003
19.3733
12.228
3.99654
-4.84403
-13.5804
-22.8199
-32.1846
-41.3972
-50.5693
-59.5554
-68.3161
-76.9041
-85.2825
-93.4618
-101.442
-109.191
-116.667
-123.803
-130.507
-136.667
-142.149
-146.81
-150.501
-153.073
-154.473
-154.643
-153.445
-150.715
-146.317
-140.152
-132.163
-122.33
-110.68
-97.2852
-82.2906
-65.9073
-48.5706
-30.8602
-14.5431
26.0134
32.2931
39.0823
46.0709
52.5588
58.6591
64.1291
68.587
71.9853
74.4776
76.1725
77.2062
77.7375
77.8767
77.7047
77.2716
76.6021
75.7013
74.5568
73.1414
71.4182
69.3402
66.8506
63.9155
60.5878
56.9776
53.1764
49.2716
45.3704
41.5982
38.0934
35.0001
32.4617
30.6116
29.5564
29.3925
30.1027
31.5349
33.08
17.7781
10.9679
3.12787
-5.28075
-13.5755
-22.3366
-31.2015
-39.9051
-48.555
-57.0126
-65.2409
-73.2918
-81.1316
-88.7719
-96.2159
-103.436
-110.397
-117.038
-123.279
-129.02
-134.139
-138.504
-141.988
-144.449
-145.843
-146.124
-145.167
-142.812
-138.92
-133.381
-126.124
-117.115
-106.362
-93.9238
-79.9306
-64.589
-48.3057
-31.6602
-16.2397
24.1137
30.1085
36.5981
43.2867
49.5027
55.3568
60.6164
64.9135
68.1997
70.6236
72.2879
73.3232
73.8825
74.0728
73.9728
73.6326
73.0781
72.3162
71.3375
70.1182
68.6245
66.812
64.6254
62.0279
59.0618
55.8229
52.3901
48.8383
45.2614
41.7715
38.4945
35.5641
33.1148
31.2737
30.1412
29.8063
30.2515
31.326
32.4901
16.2958
9.80421
2.33619
-5.66254
-13.5392
-21.8479
-30.2408
-38.4653
-46.6241
-54.5853
-62.3148
-69.8628
-77.1989
-84.3353
-91.2779
-98.0032
-104.48
-110.656
-116.459
-121.8
-126.568
-130.643
-133.914
-136.251
-137.616
-137.975
-137.215
-135.182
-131.738
-126.769
-120.191
-111.959
-102.064
-90.5532
-77.54
-63.2222
-47.9756
-32.366
-17.8237
22.3415
28.0653
34.2694
40.6712
46.6275
52.2456
57.3033
61.4452
64.6226
66.9791
68.612
69.6458
70.228
70.462
70.4248
70.1663
69.7127
69.0732
68.2408
67.1948
65.9049
64.3295
62.4159
60.1257
57.4918
54.5977
51.5107
48.2945
45.0307
41.8181
38.7701
36.009
33.6595
31.8411
30.6475
30.16
30.3626
31.1104
31.9294
14.9203
8.7318
1.61775
-5.99159
-13.4719
-21.3522
-29.2989
-37.0712
-44.7677
-52.2624
-59.5244
-66.6015
-73.4663
-80.1321
-86.6056
-92.8675
-98.8902
-104.629
-110.019
-114.979
-119.411
-123.205
-126.262
-128.465
-129.783
-130.192
-129.59
-127.834
-124.786
-120.332
-114.382
-106.878
-97.8014
-87.1838
-75.1241
-61.8061
-47.5759
-32.9713
-19.286
20.6898
26.1554
32.0869
38.2149
43.9225
49.3147
54.1786
58.1705
61.2428
63.533
65.1337
66.163
66.7637
67.0359
67.0535
66.8665
66.5018
65.9697
65.2662
64.3733
63.2641
61.9003
60.2317
58.2198
55.8899
53.3139
50.5495
47.6503
44.686
41.7431
38.9225
36.3347
34.0939
32.3105
31.0719
30.4512
30.4347
30.8872
31.3961
13.6455
7.74577
0.968716
-6.27036
-13.3745
-20.8491
-28.3736
-35.7191
-42.9796
-50.0357
-56.8585
-63.4942
-69.9177
-76.1433
-82.1787
-88.0072
-93.6054
-98.934
-103.934
-108.534
-112.645
-116.166
-119.012
-121.076
-122.334
-122.771
-122.295
-120.774
-118.076
-114.086
-108.713
-101.889
-93.5874
-83.8259
-72.6884
-60.3427
-47.102
-33.4707
-20.6201
19.1518
24.3712
30.0425
35.9085
41.3782
46.5537
51.2311
55.0788
58.049
60.2742
61.8421
62.8651
63.4804
63.7852
63.851
63.7269
63.4401
63.0028
62.4127
61.655
60.7056
59.5298
58.0805
56.3198
54.2668
51.9831
49.5177
46.9155
44.2355
41.5526
38.9554
36.5424
34.417
32.68
31.4118
30.6775
30.4664
30.6549
30.888
12.4659
6.84116
0.38526
-6.50153
-13.2486
-20.3383
-27.4633
-34.4054
-41.255
-47.8981
-54.3082
-60.5302
-66.5407
-72.3542
-77.9796
-83.4029
-88.6037
-93.5474
-98.1813
-102.442
-106.247
-109.508
-112.146
-114.069
-115.258
-115.704
-115.327
-114.006
-111.615
-108.043
-103.198
-97.0076
-89.4355
-80.49
-70.239
-58.8329
-46.5522
-33.8607
-21.8201
17.7207
22.7052
28.1279
33.7433
38.985
43.9527
48.4509
52.1596
55.0311
57.1925
58.7276
59.7422
60.3693
60.7023
60.81
60.7409
60.5229
60.1688
59.6783
59.0397
58.2315
57.2225
55.969
54.4341
52.6322
50.6156
48.4259
46.1
43.6879
41.2532
38.8732
36.6346
34.6295
32.9488
31.6656
30.8374
30.4562
30.4119
30.402
11.3756
6.01333
-0.136481
-6.68781
-13.0955
-19.8199
-26.5662
-33.1271
-39.5891
-45.843
-51.8654
-57.699
-63.3223
-68.7505
-73.9928
-79.0373
-83.8663
-88.4496
-92.7401
-96.6802
-100.197
-103.209
-105.646
-107.429
-108.541
-108.982
-108.683
-107.531
-105.41
-102.213
-97.8494
-92.2455
-85.3581
-77.1858
-67.7825
-57.2793
-45.9252
-34.1383
-22.8822
16.3906
21.1508
26.3355
31.7111
36.7344
41.5026
45.8284
49.4029
52.179
54.2783
55.7804
56.7853
57.4212
57.7781
57.9225
57.9018
57.7443
57.4633
57.0605
56.5265
55.8428
54.9813
53.9022
52.57
50.9946
49.221
47.2839
45.2137
43.052
40.8526
38.6816
36.6148
34.733
33.1169
31.8325
30.9296
30.403
30.156
29.9349
10.3694
5.25765
-0.600261
-6.83207
-12.9171
-19.2947
-25.6821
-31.8824
-37.978
-43.8655
-49.5229
-54.9919
-60.2524
-65.3197
-70.2037
-74.8944
-79.3761
-83.6224
-87.5911
-91.2308
-94.4752
-97.2503
-99.4947
-101.14
-102.173
-102.599
-102.358
-101.349
-99.4643
-96.6034
-92.678
-87.6147
-81.3661
-73.9228
-65.3251
-55.6853
-45.2201
-34.3021
-23.8037
15.1554
19.7011
24.6583
29.8041
34.6181
39.1947
43.3547
46.7999
49.4835
51.5221
52.9911
53.9853
54.6277
55.005
55.1812
55.203
55.0983
54.8816
54.5558
54.1137
53.5395
52.8085
51.884
50.733
49.3613
47.8076
46.101
44.2659
42.3367
40.3583
38.3869
36.4875
34.7302
33.1856
31.9124
30.9534
30.3055
29.8853
29.483
9.44223
4.56969
-1.00973
-6.93689
-12.7151
-18.7632
-24.8104
-30.6692
-36.4185
-41.9606
-47.2748
-52.4014
-57.3218
-62.0514
-66.6005
-70.9602
-75.1178
-79.0493
-82.717
-86.0747
-89.0633
-91.6153
-93.6759
-95.1867
-96.1388
-96.542
-96.3455
-95.4576
-93.7797
-91.2192
-87.6915
-83.125
-77.4699
-70.7099
-62.8737
-54.0548
-44.4387
-34.3519
-24.5835
14.0092
18.3501
23.0893
28.0149
32.6281
37.0207
41.021
44.3417
46.9358
48.9153
50.3512
51.3335
51.9802
52.3747
52.5787
52.6376
52.5793
52.4188
52.1605
51.7989
51.3212
50.7049
49.9174
48.9277
47.7388
46.3834
44.8857
43.2656
41.5508
39.7785
37.996
36.2581
34.625
33.1574
31.9066
30.9089
30.1628
29.5975
29.0425
8.58917
3.94496
-1.36843
-7.00513
-12.4915
-18.2262
-23.9506
-29.4861
-34.9085
-40.1246
-45.1159
-49.9207
-54.5222
-58.9358
-63.1717
-67.2225
-71.0773
-74.715
-78.1018
-81.196
-83.9444
-86.2865
-88.173
-89.555
-90.4267
-90.802
-90.6378
-89.8524
-88.356
-86.0635
-82.8958
-78.7843
-73.678
-67.5556
-60.4352
-52.3922
-43.5831
-34.2892
-25.2225
12.9467
17.0916
21.6221
26.3365
30.7572
34.973
38.8197
42.02
44.5275
46.4492
47.8523
48.8218
49.4708
49.8797
50.1076
50.1989
50.1813
50.07
49.8707
49.5797
49.1863
48.671
48.0045
47.1579
46.1322
44.9547
43.6458
42.2211
40.7029
39.1217
37.5164
35.933
34.4221
33.0354
31.8167
30.7966
29.9744
29.2903
28.6093
7.8055
3.37953
-1.67995
-7.03959
-12.248
-17.685
-23.1028
-28.3321
-33.4453
-38.3541
-43.0411
-47.5437
-51.8462
-55.9639
-59.9071
-63.6695
-67.2421
-70.6058
-73.7305
-76.5788
-79.1027
-81.2482
-82.971
-84.2302
-85.0234
-85.3674
-85.2266
-84.528
-83.1909
-81.1377
-78.2952
-74.5987
-69.9978
-64.4674
-58.016
-50.7029
-42.6569
-34.1165
-25.7223
11.9627
15.9202
20.2507
24.7627
28.9984
33.0443
36.7429
39.8271
42.2508
44.116
45.4865
46.4423
47.0918
47.5126
47.761
47.8805
47.8983
47.8299
47.682
47.4527
47.133
46.7063
46.1465
45.4265
44.546
43.5277
42.3884
41.1404
39.8014
38.3959
36.9558
35.5189
34.1272
32.8238
31.6456
30.6177
29.7397
28.9618
28.1796
7.08675
2.86933
-1.94756
-7.04292
-11.9869
-17.1405
-22.2673
-27.2067
-32.0274
-36.646
-41.0468
-45.2654
-49.2874
-53.1281
-56.7977
-60.291
-63.6003
-66.7089
-69.5896
-72.2089
-74.5236
-76.4853
-78.0549
-79.198
-79.9156
-80.2269
-80.1025
-79.4776
-78.2805
-76.4406
-73.8915
-70.5727
-66.4354
-61.4518
-55.6229
-48.9927
-41.6648
-33.8377
-26.0859
11.0524
14.8303
18.9693
23.2869
27.3451
31.2275
34.7835
37.7556
40.098
41.9082
43.2461
44.1875
44.8361
45.2663
45.5322
45.6759
45.7244
45.6934
45.5904
45.4147
45.1594
44.8101
44.3437
43.7358
42.9839
42.1073
41.1198
40.0308
38.8542
37.6095
36.3223
35.0232
33.7465
32.5274
31.3966
30.3739
29.459
28.6101
27.7495
6.42859
2.41063
-2.17453
-7.01772
-11.7097
-16.594
-21.4444
-26.109
-30.6532
-34.998
-39.1292
-43.0808
-46.8399
-50.4211
-53.8351
-57.0775
-60.1415
-63.0125
-65.6665
-68.0728
-70.193
-71.9836
-73.4104
-74.4448
-75.0906
-75.3688
-75.2556
-74.6936
-73.6195
-71.97
-69.6851
-66.709
-62.9954
-58.5148
-53.2618
-47.2675
-40.6121
-33.4577
-26.3181
10.2109
13.8169
17.7723
21.9035
25.7911
29.5162
32.9348
35.7986
38.0621
39.8184
41.124
42.0502
42.6965
43.1339
43.4144
43.579
43.6541
43.6555
43.5914
43.4622
43.2628
42.981
42.5964
42.0869
41.4489
40.698
39.8457
38.8991
37.869
36.7705
35.6238
34.4534
33.2867
32.152
31.0739
30.0678
29.1326
28.2336
27.3154
5.82705
1.99969
-2.36387
-6.96655
-11.4183
-16.0466
-20.6346
-25.0388
-29.3213
-33.4077
-37.2849
-40.9857
-44.4981
-47.8367
-51.0119
-54.0201
-56.856
-59.5063
-61.9494
-64.1582
-66.0978
-67.7298
-69.0239
-69.9571
-70.5354
-70.781
-70.6752
-70.1675
-69.2017
-67.7222
-65.6749
-63.0092
-59.6811
-55.6612
-50.9389
-45.5334
-39.5049
-32.9827
-26.4243
9.43376
12.8753
16.6545
20.6068
24.3305
27.9043
31.1903
33.9492
36.1362
37.8399
39.1134
40.0237
40.6662
41.1089
41.4016
41.5839
41.6818
41.7111
41.6805
41.5917
41.4407
41.2175
40.9043
40.481
39.9433
39.3036
38.5712
37.7516
36.8528
35.8864
34.8682
33.8172
32.7548
31.7034
30.6821
29.7021
28.7615
27.831
26.8741
5.2782
1.63318
-2.51869
-6.89174
-11.1149
-15.4993
-19.8382
-23.9955
-28.0306
-31.8731
-35.5111
-38.9761
-42.2574
-45.3689
-48.3211
-51.111
-53.7345
-56.1797
-58.4274
-60.453
-62.2256
-63.711
-64.8825
-65.7221
-66.2374
-66.4518
-66.3506
-65.8899
-65.0201
-63.6922
-61.8584
-59.4729
-56.4949
-52.8952
-48.6594
-43.7969
-38.3503
-32.4195
-26.4109
8.71688
12.0008
15.611
19.3914
22.9575
26.3856
29.5438
32.2014
34.314
35.9661
37.2077
38.1016
38.739
39.1851
39.4876
39.6848
39.8022
39.8554
39.8535
39.7994
39.6902
39.5177
39.2667
38.9188
38.4689
37.927
37.3007
36.5938
35.8123
34.9649
34.0633
33.1224
32.1584
31.1882
30.2263
29.2802
28.347
27.4014
26.4226
4.77839
1.30778
-2.64178
-6.79564
-10.801
-14.9534
-19.0556
-22.979
-26.7801
-30.3923
-33.8051
-37.0485
-40.113
-43.0121
-45.7563
-48.343
-50.769
-53.0239
-55.0903
-56.9466
-58.565
-59.915
-60.9736
-61.7269
-62.1839
-62.3691
-62.2709
-61.8512
-61.0665
-59.874
-58.2319
-56.0988
-53.4377
-50.2199
-46.4283
-42.0643
-37.1552
-31.7756
-26.2853
8.05619
11.189
14.6372
18.2526
21.6672
24.955
27.9897
30.5492
32.5895
34.191
35.4008
36.2776
36.9088