/*--------------------------------*- C++ -*----------------------------------*\
| =========                 |                                                 |
| \\      /  F ield         | OpenFOAM: The Open Source CFD Toolbox           |
|  \\    /   O peration     | Version:  2306                                  |
|   \\  /    A nd           | Website:  www.openfoam.com                      |
|    \\/     M anipulation  |                                                 |
\*---------------------------------------------------------------------------*/
FoamFile
{
    version     2.0;
    format      ascii;
    arch        "LSB;label=32;scalar=64";
    class       volScalarField;
    location    "125";
    object      p;
}
// * * * * * * * * * * * * * * * * * * * * * * * * * * * * * * * * * * * * * //

dimensions      [0 2 -2 0 0 0 0];

internalField   nonuniform List<scalar> 
1340
(
-83.5636
-46.9211
-4.26427
31.4387
-83.1294
-46.596
-3.95124
31.0766
-82.6786
-46.268
-3.72779
31.1339
-82.1545
-45.9601
-3.64981
31.2254
-81.5152
-45.6458
-3.69284
31.1278
-80.8566
-45.3704
-3.89199
30.8117
-80.2011
-45.1662
-4.26818
30.2519
-79.5182
-44.9937
-4.77362
29.4177
-78.8109
-44.8196
-5.34045
28.3304
-78.0826
-44.6321
-5.95784
27.0551
-77.3408
-44.4414
-6.64317
25.6399
-76.5861
-44.2669
-7.40563
24.1008
-75.8194
-44.1218
-8.23971
22.4562
-75.037
-44.0052
-9.14255
20.7262
-74.2417
-43.9133
-10.1106
18.9172
-73.4313
-43.8432
-11.1382
17.0284
-72.6082
-43.7956
-12.217
15.0633
-71.7688
-43.7684
-13.3398
13.0338
-70.9151
-43.7616
-14.4976
10.9532
-70.0434
-43.7703
-15.6828
8.834
-69.1542
-43.7922
-16.8851
6.68908
-68.2436
-43.8207
-18.0955
4.53155
-67.3116
-43.8531
-19.3037
2.37367
-66.3542
-43.8807
-20.4999
0.229278
-65.3701
-43.8996
-21.6731
-1.88814
-64.3558
-43.9
-22.813
-3.96445
-63.3098
-43.8772
-23.9103
-5.98673
-62.2286
-43.8227
-24.9542
-7.94221
-61.1109
-43.7292
-25.9358
-9.81892
-59.9534
-43.5896
-26.8452
-11.6048
-58.756
-43.3982
-27.6749
-13.2906
-57.5168
-43.1478
-28.417
-14.8672
-56.2356
-42.8349
-29.0654
-16.3266
-66.5208
-54.9126
-42.4535
-29.6139
-17.6624
-64.2673
-53.5488
-42.0025
-30.0594
-18.8697
-62.0101
-52.1454
-41.479
-30.3977
-19.9443
-59.7531
-50.7056
-40.8827
-30.628
-20.8844
-57.5038
-49.232
-40.2139
-30.7489
-21.6882
-55.2665
-47.7288
-39.475
-30.7622
-22.3571
-53.0485
-46.2
-38.6681
-30.6692
-22.8918
-50.8535
-44.6507
-37.7978
-30.474
-23.2957
-48.6887
-43.086
-36.8683
-30.1803
-23.5726
-46.5577
-41.5112
-35.8854
-29.7943
-23.7278
-44.4663
-39.932
-34.855
-29.3216
-23.767
-42.4179
-38.3541
-33.7838
-28.7697
-23.6973
-43.561
-40.4174
-36.7829
-32.6782
-28.1458
-23.5259
-41.2659
-38.4669
-35.2236
-31.5454
-27.4578
-23.2609
-39.0578
-36.5703
-33.6811
-30.3918
-26.7135
-22.9105
-36.9364
-34.7287
-32.16
-29.224
-25.921
-22.4833
-34.9011
-32.9447
-30.6641
-28.0482
-25.0881
-21.9877
-32.9506
-31.2187
-29.1971
-26.8702
-24.2222
-21.4325
-31.0835
-29.5523
-27.7622
-25.6953
-23.3306
-20.8257
-29.2982
-27.9452
-26.362
-24.5285
-22.4202
-20.1756
-27.592
-26.3978
-24.9987
-23.3741
-21.4971
-19.4894
-26.8531
-25.9632
-24.9092
-23.6739
-22.2362
-20.5672
-18.7746
-25.1937
-24.4082
-23.479
-22.3894
-21.118
-19.6358
-18.0376
-23.6175
-22.9251
-22.1064
-21.1457
-20.0225
-18.7074
-17.2849
-22.1212
-21.5108
-20.7899
-19.9436
-18.952
-17.7865
-16.5218
-20.7
-20.1624
-19.528
-18.783
-17.9082
-16.8761
-15.7535
-19.3505
-18.8771
-18.3191
-17.6635
-16.8925
-15.9797
-14.9844
-18.0682
-17.6519
-17.1614
-16.5851
-15.9062
-15.0995
-14.2185
-17.1589
-16.8504
-16.4841
-16.0532
-15.5471
-14.9498
-14.2379
-13.459
-15.9647
-15.6929
-15.371
-14.9929
-14.5487
-14.024
-13.3964
-12.7087
-14.8311
-14.5921
-14.3096
-13.9781
-13.5889
-13.1284
-12.5758
-11.9697
-13.7549
-13.5453
-13.2979
-13.0078
-12.6672
-12.2636
-11.778
-11.245
-12.7311
-12.5477
-12.3314
-12.0782
-11.7808
-11.4279
-11.002
-10.5339
-11.759
-11.5992
-11.411
-11.1906
-10.9317
-10.6242
-10.2515
-9.84214
-10.9744
-10.8306
-10.6613
-10.4633
-10.2311
-9.95467
-9.61956
-9.25178
-10.4349
-10.3217
-10.1885
-10.032
-9.84907
-9.63448
-9.37969
-9.07048
-8.73148
-9.76396
-9.65918
-9.53727
-9.39398
-9.22616
-9.02948
-8.79607
-8.51244
-8.20371
-9.07879
-8.98185
-8.87065
-8.7399
-8.58668
-8.4074
-8.19477
-7.93585
-7.6528
-8.39321
-8.30585
-8.20662
-8.08948
-7.95151
-7.78971
-7.59783
-7.36466
-7.1149
-7.67622
-7.59549
-7.50559
-7.39992
-7.27579
-7.13069
-6.95815
-6.74543
-6.508
-7.01339
-6.94631
-6.87139
-6.78133
-6.67338
-6.54593
-6.39525
-6.21468
-6.03365
-6.20067
-6.13535
-6.0659
-5.98489
-5.88954
-5.77791
-5.64247
-5.46672
-5.24931
-5.71512
-5.67436
-5.62798
-5.5678
-5.49148
-5.39977
-5.2952
-5.18255
-5.11097
-4.50352
-4.45095
-4.40014
-4.34394
-4.27867
-4.20094
-4.09579
-3.93323
-3.6713
-4.78773
-4.79753
-4.78959
-4.77632
-4.75185
-4.71316
-4.6645
-4.6245
-4.62539
-4.76656
-2.14039
-2.08444
-2.03616
-2.0016
-1.96978
-1.9349
-1.89034
-1.8042
-1.61723
-1.20259
-5.16475
-5.06821
-5.06959
-5.14609
-5.19915
-5.21576
-5.22665
-5.2836
-5.4596
-5.90861
107.699
106.604
105.224
103.532
101.277
98.2659
94.3452
89.4659
83.8299
77.849
71.9237
66.2536
60.8659
55.7177
50.7737
46.0214
41.4641
37.1058
32.9481
28.9867
25.2147
21.6256
18.2127
14.9693
11.8883
8.96319
6.18788
3.55811
1.07102
-1.27533
-3.48237
-5.54966
-7.47768
-9.26499
-10.911
-12.4146
-13.7756
-14.9935
-16.0693
-17.0037
-17.799
-18.4581
-18.9849
-19.3837
-19.6603
-19.8208
-19.872
-19.8214
-19.6767
-19.4461
-19.1381
-18.7608
-18.3227
-17.8316
-17.2953
-16.7212
-16.1162
-15.4869
-14.8391
-14.1785
-13.5098
-12.8372
-12.1646
-11.4947
-10.8315
-10.1746
-9.5315
-8.97848
-8.48376
-7.98278
-7.45102
-6.94458
-6.34059
-5.92323
-5.09194
-5.08885
-3.47893
-4.8873
-0.941767
-6.24848
45.902
45.5247
45.179
44.8766
44.5806
44.3209
44.1078
43.8866
43.5673
43.07
42.357
41.4113
40.2071
38.734
37.0184
35.1034
33.0318
30.8362
28.5419
26.1706
23.7432
21.2805
18.8024
16.3282
13.877
11.4662
9.10996
6.82008
4.60595
2.47551
0.434786
-1.50995
-3.35472
-5.09464
-6.7262
-8.24577
-9.65072
-10.9383
-12.1068
-13.1548
-14.0818
-14.888
-15.5747
-16.1434
-16.5971
-16.9395
-17.1749
-17.3085
-17.3461
-17.294
-17.1592
-16.9487
-16.6696
-16.3294
-15.9352
-15.4939
-15.0125
-14.4973
-13.9546
-13.3901
-12.8091
-12.2161
-11.6157
-11.0109
-10.4064
-9.80216
-9.20564
-8.68901
-8.22503
-7.75511
-7.25045
-6.77268
-6.19103
-5.8004
-4.98941
-5.00161
-3.43457
-4.801
-1.00903
26.6869
26.4209
26.1187
25.8081
25.4601
25.0655
24.6356
24.1735
23.6696
23.1181
22.5272
21.9154
21.2938
20.6677
20.0387
19.3949
18.7145
17.9775
17.1673
16.2728
15.2882
14.2125
13.049
11.8039
10.4853
9.10302
7.66789
6.19201
4.68815
3.17
1.65055
0.143644
-1.3389
-2.78491
-4.1839
-5.52576
-6.80205
-8.00464
-9.12706
-10.1632
-11.1087
-11.9598
-12.7141
-13.3696
-13.9263
-14.3844
-14.7455
-15.0121
-15.1873
-15.2754
-15.281
-15.2096
-15.0668
-14.8586
-14.5913
-14.2709
-13.9039
-13.4961
-13.0536
-12.582
-12.0866
-11.5723
-11.0438
-10.5045
-9.95943
-9.40911
-8.86051
-8.38179
-7.95009
-7.51201
-7.03707
-6.58805
-6.03453
-5.66433
-4.89069
-4.893
-3.41336
-4.67403
25.9914
25.747
25.4713
25.1967
24.9323
24.6633
24.3582
23.9925
23.5448
22.9961
22.3364
21.5853
20.7795
19.9477
19.1052
18.2544
17.3848
16.4866
15.5575
14.6015
13.6229
12.6241
11.6054
10.5653
9.50192
8.41268
7.29618
6.15215
4.98261
3.79133
2.5836
1.36638
0.146917
-1.06633
-2.26462
-3.43881
-4.58006
-5.67945
-6.72892
-7.72059
-8.64788
-9.50472
-10.2863
-10.9883
-11.6081
-12.1435
-12.5936
-12.9586
-13.2396
-13.4384
-13.5581
-13.6019
-13.5743
-13.4796
-13.3231
-13.1099
-12.8455
-12.5354
-12.1849
-11.7994
-11.3842
-10.9442
-10.484
-10.0075
-9.51962
-9.02145
-8.51987
-8.07851
-7.67755
-7.26971
-6.82322
-6.40183
-5.87552
-5.52646
-4.78509
-4.78795
-3.37313
22.7287
22.462
22.1626
21.8688
21.6118
21.4097
21.2572
21.1241
20.9763
20.781
20.5121
20.1552
19.718
19.2166
18.6537
18.0202
17.3167
16.5519
15.7348
14.8715
13.9687
13.0325
12.0685
11.0794
10.0675
9.03375
7.98062
6.91096
5.82863
4.73735
3.64064
2.5424
1.44628
0.356651
-0.721665
-1.78326
-2.82252
-3.83327
-4.80934
-5.74435
-6.63237
-7.46754
-8.24467
-8.95884
-9.60622
-10.1834
-10.6879
-11.1184
-11.474
-11.755
-11.9625
-12.0983
-12.165
-12.1658
-12.1045
-11.9852
-11.8124
-11.5906
-11.3248
-11.0197
-10.6804
-10.3111
-9.91691
-9.50138
-9.0696
-8.62302
-8.16837
-7.76438
-7.39432
-7.01668
-6.59884
-6.20572
-5.70615
-5.38042
-4.66841
-4.68057
18.4062
18.2048
17.9801
17.7469
17.5149
17.2978
17.1101
16.9538
16.82
16.6878
16.5315
16.3228
16.0429
15.6934
15.2909
14.8418
14.3415
13.7921
13.2095
12.6053
11.9804
11.3273
10.6414
9.91999
9.16351
8.37185
7.54725
6.69273
5.81324
4.91324
3.99724
3.0694
2.13393
1.19531
0.258344
-0.672094
-1.59101
-2.49323
-3.37353
-4.22654
-5.04706
-5.82983
-6.56991
-7.26238
-7.90305
-8.48786
-9.01358
-9.47749
-9.87765
-10.2128
-10.4826
-10.6872
-10.8277
-10.9059
-10.9242
-10.8855
-10.793
-10.6506
-10.4621
-10.2318
-9.96384
-9.66244
-9.33208
-8.97623
-8.60004
-8.20491
-7.7975
-7.43165
-7.09308
-6.74659
-6.35873
-5.9947
-5.52369
-5.2221
14.8236
14.6593
14.4846
14.3027
14.11
13.9085
13.7064
13.5093
13.3231
13.1471
12.9772
12.7995
12.5957
12.3455
12.043
11.6964
11.3204
10.9197
10.4945
10.0472
9.58569
9.10985
8.61419
8.09117
7.53887
6.95728
6.34883
5.71471
5.05691
4.37653
3.67523
2.95466
2.21716
1.46572
0.704013
-0.0638786
-0.833577
-1.60043
-2.35957
-3.10596
-3.83461
-4.54043
-5.21849
-5.86379
-6.47187
-7.03827
-7.55915
-8.03097
-8.45085
-8.81641
-9.12603
-9.37866
-9.57399
-9.71239
-9.79493
-9.82331
-9.79972
-9.72666
-9.60742
-9.44511
-9.24345
-9.00588
-8.73631
-8.43829
-8.11614
-7.77173
-7.41155
-7.08372
-6.7771
-6.46213
-6.10497
-5.77091
12.319
12.1513
11.9774
11.7985
11.6087
11.4065
11.1969
10.9828
10.7698
10.5608
10.3602
10.1677
9.98161
9.79214
9.58823
9.3584
9.10232
8.82553
8.53517
8.22719
7.89486
7.53445
7.15003
6.74267
6.31227
5.85752
5.38083
4.88432
4.37023
3.83825
3.28826
2.72003
2.13455
1.5332
0.918181
0.291844
-0.34291
-0.982884
-1.62445
-2.26363
-2.89631
-3.51801
-4.12429
-4.7104
-5.27193
-5.80438
-6.30364
-6.76573
-7.18722
-7.56499
-7.89653
-8.17974
-8.41328
-8.59636
-8.72887
-8.81145
-8.84503
-8.83135
-8.7725
-8.67082
-8.52933
-8.35044
-8.13804
-7.89458
-7.62446
-7.32932
-7.01517
-6.7251
-6.45005
10.4914
10.3383
10.1749
10.0037
9.82111
9.62498
9.41953
9.20608
8.98934
8.77096
8.55631
8.34757
8.14905
7.96051
7.78148
7.605
7.42417
7.23149
7.02643
6.80964
6.58026
6.3285
6.04707
5.73587
5.40253
5.05035
4.68048
4.2918
3.88568
3.46198
3.021
2.56201
2.08577
1.59326
1.08641
0.566883
0.0366974
-0.501989
-1.04663
-1.59437
-2.14209
-2.68629
-3.22332
-3.74918
-4.25997
-4.75153
-5.22
-5.6614
-6.07217
-6.44883
-6.78841
-7.08815
-7.34601
-7.56027
-7.73002
-7.85488
-7.93465
-7.9705
-7.96307
-7.91463
-7.82635
-7.70102
-7.5409
-7.34878
-7.12782
-6.87984
9.13343
9.00394
8.86144
8.71052
8.54936
8.37535
8.19139
7.99747
7.79704
7.59007
7.38127
7.17192
6.96742
6.76882
6.58028
6.40074
6.23023
6.06219
5.89191
5.71331
5.52635
5.32957
5.12027
4.88983
4.63583
4.36239
4.07612
3.77709
3.46313
3.13142
2.78179
2.41421
2.02936
1.62786
1.21108
0.780335
0.337176
-0.116752
-0.579575
-1.04904
-1.52273
-1.99779
-2.47128
-2.93985
-3.40024
-3.84883
-4.28216
-4.69656
-5.08863
-5.45486
-5.79219
-6.09755
-6.36842
-6.60267
-6.79874
-6.95495
-7.07137
-7.14683
-7.18309
-7.17957
-7.13852
-7.06039
7.8735
7.77458
7.66524
7.54922
7.42482
7.28848
7.14223
6.98601
6.82222
6.64969
6.47126
6.28728
6.10203
5.9168
5.73585
5.56001
5.39208
5.23086
5.07521
4.91925
4.75875
4.58975
4.41315
4.22819
4.03248
3.82068
3.59334
3.35396
3.10477
2.84241
2.56409
2.26855
1.95701
1.63024
1.28913
0.934079
0.565945
0.185717
-0.205278
-0.605373
-1.0127
-1.42496
-1.83977
-2.25432
-2.66592
-3.07142
-3.46785
-3.85187
-4.22039
-4.57004
-4.89785
-5.2007
-5.47599
-5.72119
-5.93398
-6.1131
-6.25631
6.75854
6.68463
6.6018
6.51493
6.42397
6.32427
6.21582
6.09812
5.97367
5.84085
5.70151
5.55438
5.4027
5.24649
5.08984
4.9333
4.78065
4.63182
4.48912
4.35047
4.2143
4.07485
3.92907
3.77452
3.61313
3.44407
3.26439
3.07025
2.86336
2.64562
2.41669
2.17376
1.91631
1.64507
1.36141
1.06545
0.757358
0.437375
0.10631
-0.234756
-0.584499
-0.941216
-1.30312
-1.66802
-2.03374
-2.3977
-2.75735
-3.1098
-3.45227
-3.78162
5.93494
5.87179
5.80263
5.73131
5.65942
5.58356
5.50257
5.41576
5.32461
5.22765
5.12549
5.01677
4.9031
4.78371
4.66088
4.53463
4.40792
4.28102
4.15624
4.03311
3.91275
3.79283
3.67098
3.5423
3.40491
3.25816
3.10395
2.94068
2.7652
2.5759
2.3757
2.16588
1.94566
1.7136
1.4703
1.21637
0.952112
0.677473
)
;

boundaryField
{
    inlet
    {
        type            freestreamPressure;
        freestreamValue uniform 0;
        value           nonuniform List<scalar> 
11
(
-2.41287
-2.21416
-2.21559
-2.24982
-2.27377
-2.28173
-2.28718
-2.31281
-2.39072
-2.48487
-2.7374
)
;
    }
    outlet
    {
        type            freestreamPressure;
        freestreamValue nonuniform List<scalar> 0();
        value           nonuniform List<scalar> 0();
    }
    walls
    {
        type            zeroGradient;
    }
    frontAndBack
    {
        type            empty;
    }
    procBoundary6to2
    {
        type            processor;
        value           nonuniform List<scalar> 
13
(
107.29
46.0821
26.8184
26.1551
22.907
18.5315
14.9414
12.4519
10.6123
9.23324
7.95016
6.81705
5.98491
)
;
    }
    procBoundary6to3
    {
        type            processor;
        value           uniform 5.14506;
    }
    procBoundary6to5
    {
        type            processor;
        value           nonuniform List<scalar> 
86
(
-118.82
-118.255
-117.644
-116.818
-115.796
-114.733
-113.653
-112.531
-111.363
-110.142
-108.87
-107.548
-106.176
-104.754
-103.282
-101.758
-100.183
-98.5578
-96.8819
-95.1557
-93.38
-91.5557
-89.6834
-87.7647
-85.8011
-83.7937
-81.7462
-79.6594
-77.5373
-75.3831
-73.1997
-70.9921
-68.7636
-68.7636
-76.9621
-73.875
-70.8194
-67.8048
-64.8378
-61.9271
-59.078
-56.2975
-53.5895
-50.959
-48.409
-45.9422
-45.9422
-46.2184
-43.63
-41.1574
-38.7991
-36.5513
-34.4115
-32.3754
-30.4398
-28.6005
-28.6005
-27.5932
-25.8477
-24.1955
-22.6313
-21.1504
-19.7475
-18.4188
-18.4188
-17.4146
-16.1902
-15.0298
-13.9298
-12.8842
-11.8928
-11.0956
-11.0956
-10.5297
-9.85337
-9.16327
-8.47048
-7.74953
-7.07421
-6.26357
-5.75053
-4.55948
-4.55948
-4.72731
-2.16833
-4.86268
)
;
    }
    procBoundary6to7
    {
        type            processor;
        value           nonuniform List<scalar> 
91
(
-6.12857
-6.12857
-1.11828
-1.11828
-4.57119
-4.57119
-3.31417
-4.54104
-3.31417
-4.56244
-5.32935
-4.54104
-5.05243
-6.16648
-5.84035
-5.32935
-5.53595
-6.61057
-6.3572
-6.16648
-6.11328
-6.94842
-6.80312
-6.62845
-6.61057
-6.42541
-6.36446
-6.43529
-6.47043
-6.46905
-6.94842
-6.43329
-4.09517
-4.39001
-4.66309
-4.91211
-5.13458
-5.32835
-6.36446
-5.49196
0.39261
0.0980392
-0.205264
-0.516001
-0.83319
-1.15501
-1.4801
-1.80619
-2.13149
-2.45328
-2.76951
-4.09517
-3.07714
5.09887
5.04748
4.99424
4.93773
4.8798
4.81969
4.75814
4.69474
4.63032
4.56277
4.49209
4.41656
4.33714
4.25249
4.16387
4.0706
3.97479
3.87649
3.77779
3.67854
3.58016
3.48161
3.3815
3.27534
3.15975
3.0326
2.8949
2.74702
2.58734
2.41391
2.22878
2.03496
1.83275
1.62078
1.39858
1.16682
0.39261
0.925785
)
;
    }
}


// ************************************************************************* //
