/*--------------------------------*- C++ -*----------------------------------*\
| =========                 |                                                 |
| \\      /  F ield         | OpenFOAM: The Open Source CFD Toolbox           |
|  \\    /   O peration     | Version:  2306                                  |
|   \\  /    A nd           | Website:  www.openfoam.com                      |
|    \\/     M anipulation  |                                                 |
\*---------------------------------------------------------------------------*/
FoamFile
{
    version     2.0;
    format      ascii;
    arch        "LSB;label=32;scalar=64";
    class       surfaceScalarField;
    location    "125";
    object      phi;
}
// * * * * * * * * * * * * * * * * * * * * * * * * * * * * * * * * * * * * * //

dimensions      [0 3 -1 0 0 0 0];

oriented        oriented;

internalField   nonuniform List<scalar> 
2577
(
0.127634
0.0137573
0.108183
0.0194297
0.0782145
0.0299916
0.0760805
0.00215515
0.167308
0.0297401
0.146973
0.0397527
0.112952
0.0640208
0.081958
0.0331661
0.205148
0.0513072
0.180101
0.0647861
0.143007
0.101131
0.0978668
0.0783107
0.248406
0.0793231
0.217325
0.0958611
0.175566
0.142896
0.123112
0.130774
0.292862
0.107088
0.258156
0.130555
0.211816
0.189252
0.154411
0.188181
0.325978
0.124927
0.296615
0.159914
0.250277
0.235598
0.189936
0.248529
0.342608
0.135961
0.324145
0.178361
0.286148
0.273613
0.227604
0.307074
0.353796
0.148913
0.340678
0.191477
0.314334
0.299968
0.263625
0.35779
0.369446
0.165682
0.35435
0.206557
0.334903
0.319435
0.293837
0.398855
0.390072
0.184193
0.371045
0.225585
0.35219
0.338302
0.316901
0.434151
0.412833
0.202786
0.391442
0.246957
0.37041
0.359354
0.336135
0.468424
0.436202
0.221473
0.414055
0.269107
0.390968
0.382454
0.356348
0.503049
0.460169
0.240594
0.43782
0.291437
0.413635
0.406658
0.37896
0.537722
0.485244
0.260475
0.462479
0.314207
0.437845
0.431305
0.403687
0.571884
0.511698
0.281063
0.488335
0.337549
0.463318
0.45634
0.43006
0.60514
0.539682
0.302344
0.515592
0.361644
0.490117
0.481828
0.457783
0.637477
0.569176
0.324248
0.544428
0.38637
0.518422
0.507851
0.486846
0.669051
0.600284
0.346745
0.574913
0.411746
0.548318
0.534458
0.517396
0.699975
0.63304
0.36979
0.607107
0.437658
0.579975
0.561605
0.549598
0.730351
0.667551
0.393403
0.641097
0.464115
0.613462
0.589252
0.583562
0.760253
0.703898
0.417481
0.676978
0.491011
0.648861
0.617382
0.619406
0.789707
0.742158
0.442048
0.714814
0.518358
0.686268
0.645938
0.657185
0.818793
0.782465
0.466972
0.754751
0.546051
0.72577
0.674928
0.697019
0.847543
0.824833
0.492386
0.796839
0.574046
0.767506
0.704269
0.739027
0.876027
0.869598
0.517945
0.84123
0.602396
0.811537
0.733968
0.783319
0.904245
0.916535
0.54392
0.887951
0.630982
0.858052
0.763872
0.829969
0.932333
0.965915
0.569944
0.937311
0.659572
0.906982
0.794204
0.879142
0.960173
1.018
0.596107
0.989032
0.688545
0.958681
0.82456
0.930976
0.987884
1.07262
0.622464
1.04389
0.717271
1.01317
0.855279
0.985412
1.01564
1.13016
0.648824
1.10118
0.74625
1.07055
0.885919
1.04299
1.0432
1.19072
0.674965
1.16183
0.775136
1.13093
0.916817
1.10345
1.07068
1.25414
0.701255
1.22553
0.803748
1.19469
0.947667
1.16703
1.09834
1.32121
0.727065
1.29239
0.832562
1.26151
0.978538
1.23422
1.12564
1.41716
0.668168
1.39133
0.752903
1.3629
0.860992
1.33205
1.0094
1.30475
1.15294
1.49083
0.690774
1.46516
0.778568
1.43703
0.889113
1.40611
1.04032
1.37897
1.18007
1.56811
0.71333
1.5428
0.803888
1.51475
0.917164
1.48407
1.071
1.45713
1.20702
1.64941
0.735543
1.62448
0.82882
1.59681
0.944825
1.56615
1.10166
1.5393
1.23387
1.73496
0.757377
1.71017
0.85361
1.68265
0.972346
1.65217
1.13215
1.62573
1.26032
1.82473
0.778975
1.80038
0.877962
1.77331
0.999413
1.7429
1.16255
1.7165
1.28672
1.91924
0.800313
1.8952
0.902001
1.86832
1.02629
1.83815
1.19273
1.81197
1.31291
2.01846
0.821548
1.99489
0.925577
1.96835
1.05283
1.93816
1.22291
1.91234
1.33873
2.12319
0.842258
2.0998
0.948971
2.07346
1.07916
2.04356
1.25282
2.01802
1.36427
2.23312
0.862881
2.20989
0.9722
2.18406
1.10499
2.15401
1.28288
2.1289
1.38938
2.34891
0.883299
2.32599
0.995117
2.30034
1.13065
2.27057
1.31264
2.24551
1.41444
2.47066
0.903547
2.44815
1.01763
2.42242
1.15638
2.39279
1.34228
2.3682
1.43903
2.61927
0.825248
2.59903
0.923779
2.57636
1.0403
2.5512
1.18154
2.52142
1.37206
2.49718
1.46328
2.75426
0.843742
2.73414
0.943901
2.71168
1.06277
2.68638
1.20684
2.65657
1.40187
2.63266
1.48718
2.89667
0.862291
2.87634
0.964221
2.85405
1.08507
2.82886
1.23202
2.79898
1.43175
2.77529
1.51087
3.04646
0.881072
3.02631
0.98438
3.00388
1.10749
2.9786
1.25731
2.94879
1.46156
2.92515
1.53451
3.2047
0.900126
3.18411
1.00497
3.16164
1.12996
3.13653
1.28242
3.10619
1.49189
3.08299
1.55771
3.37123
0.91949
3.35058
1.02563
3.328
1.15254
3.30246
1.30796
3.27208
1.52227
3.2489
1.58088
3.54679
0.939232
3.5259
1.04651
3.50304
1.17541
3.47743
1.33357
3.44644
1.55327
3.42353
1.60379
3.73206
0.95937
3.71075
1.06782
3.68742
1.19874
3.66154
1.35946
3.6303
1.5845
3.60735
1.62674
3.9274
0.980087
3.90545
1.08977
3.88202
1.22218
3.85557
1.3859
3.82374
1.61633
3.80072
1.64976
4.15436
0.904107
4.13314
1.00131
4.11083
1.11208
4.08682
1.2462
4.05999
1.41273
4.0274
1.64892
4.00453
1.67263
4.37225
0.925414
4.35022
1.02333
4.32744
1.13486
4.30269
1.27095
4.2753
1.44013
4.24203
1.68218
4.21888
1.69578
4.60185
0.947543
4.57911
1.04607
4.55559
1.15838
4.53027
1.29627
4.5023
1.4681
4.46815
1.71633
4.44479
1.71914
4.84409
0.970526
4.82058
1.06958
4.79625
1.18271
4.77023
1.3223
4.74142
1.49691
4.70633
1.75142
4.68274
1.74273
5.09954
0.994414
5.07521
1.09391
5.04991
1.20801
5.02323
1.34898
4.99346
1.52667
4.95738
1.7875
4.93336
1.76675
5.36897
1.01952
5.34354
1.11934
5.31746
1.23409
5.28971
1.37673
5.25914
1.55724
5.22189
1.82475
5.19739
1.79125
5.65326
1.04547
5.6268
1.1458
5.59978
1.26111
5.571
1.40552
5.53936
1.58888
5.5006
1.86351
5.47573
1.81612
5.98016
0.979339
5.95291
1.07272
5.92537
1.17333
5.89709
1.2894
5.86738
1.43522
5.83446
1.62181
5.7945
1.90347
5.76894
1.84168
6.29765
1.00741
6.26918
1.10119
6.24037
1.20214
6.21106
1.31871
6.17997
1.46632
6.14597
1.6558
6.10426
1.94519
6.07795
1.86799
6.63246
1.03696
6.6026
1.13105
6.57263
1.23211
6.54195
1.3494
6.50956
1.49871
6.47416
1.6912
6.43089
1.98846
6.40389
1.89499
6.98614
1.06778
6.95497
1.16222
6.92286
1.26422
6.89062
1.38164
6.85716
1.53217
6.82003
1.72832
6.77524
2.03325
6.74729
1.92294
7.35798
1.10148
7.32532
1.19488
7.2935
1.29604
7.25956
1.41558
7.22415
1.56758
7.18526
1.76722
7.13837
2.08014
7.10914
1.95218
7.75238
1.1347
7.71768
1.22958
7.68262
1.33111
7.64811
1.45009
7.61086
1.60483
7.57145
1.80663
7.52139
2.1302
7.49184
1.98172
5.70121
1.12671
5.71234
1.21845
5.72776
1.31568
5.74845
1.42941
5.77377
1.57951
5.80305
1.77736
5.84086
2.09238
5.87033
1.95226
6.25688
1.03527
6.26472
1.11887
6.27711
1.20606
6.29513
1.29767
6.31711
1.40743
6.34371
1.55291
6.37803
1.74303
6.41802
2.05239
6.45035
1.91993
6.87616
1.03238
6.88378
1.11125
6.89858
1.19126
6.91776
1.27848
6.94222
1.38297
6.97257
1.52256
7.00792
1.70768
7.05382
2.00649
7.08887
1.88488
7.55593
1.02867
7.56575
1.10142
7.58025
1.17676
7.60179
1.25695
7.62864
1.35612
7.66127
1.48993
7.70272
1.66624
7.75042
1.95879
7.79197
1.84333
8.30262
1.02558
8.3132
1.09084
8.33117
1.1588
8.35361
1.23451
8.38267
1.32707
8.42013
1.45247
8.46492
1.62145
8.51954
1.90417
8.56241
1.80046
9.12467
1.02205
9.13583
1.07967
9.15444
1.14019
9.18021
1.20874
9.21267
1.29462
9.25344
1.4117
9.30138
1.57352
9.36247
1.84307
9.41009
1.75285
10.027
1.01686
10.0399
1.06679
10.0603
1.11975
10.0893
1.17978
10.1262
1.25767
10.1701
1.36779
10.2237
1.51993
10.2903
1.77647
10.3434
1.69978
11.018
1.01175
11.0322
1.05251
11.0542
1.0978
11.0848
1.14915
11.1248
1.21772
11.1742
1.31836
11.2343
1.45989
11.3061
1.70461
11.3653
1.64062
12.1128
1.00651
12.1273
1.03804
12.1534
1.0717
12.1882
1.11436
12.2323
1.17358
12.2859
1.26476
12.3516
1.39417
12.434
1.62224
12.5
1.57462
13.3026
0.999637
13.3203
1.02033
13.3474
1.04468
13.3859
1.07585
13.4338
1.12563
13.4935
1.20502
13.5644
1.32335
13.6508
1.5358
13.7209
1.50451
14.6327
0.612878
14.64
0.992323
14.6594
1.00097
14.6919
1.01216
14.7333
1.03448
14.7867
1.07219
14.8537
1.13806
14.9371
1.24001
15.0398
1.43302
15.1241
1.42029
16.0448
0.562981
16.0514
0.985698
16.0722
0.980237
16.1039
0.980421
16.1501
0.988369
16.2096
1.01269
16.2803
1.06733
16.3643
1.15606
16.4634
1.33395
16.5442
1.33951
17.7241
17.7375
17.7652
17.8075
17.8629
17.9319
18.0176
18.1238
18.2616
18.3721
0.0989826
0.142505
0.0560139
0.124869
0.0304346
0.123474
0.0165902
0.136911
0.0102562
0.160777
0.00857211
0.191585
0.00933958
0.226867
0.00913793
0.263802
0.00478407
0.298224
-0.00433365
0.326004
-0.0146495
0.346482
-0.0231193
0.36481
-0.0291802
0.385048
-0.0331613
0.407667
-0.0352374
0.432156
-0.03562
0.458168
-0.0344414
0.485682
-0.0318491
0.514808
-0.0279371
0.545697
-0.0228291
0.57846
-0.0166378
0.613221
-0.00946944
0.650022
-0.00144003
0.688992
0.00741937
0.730172
0.0170425
0.773696
0.0273451
0.819671
0.0382328
0.868254
0.0496446
0.919568
0.0615073
0.973548
0.0737781
1.03073
0.0863937
1.09083
0.0993151
1.15411
0.112488
1.22105
0.125874
1.29137
0.139417
1.36543
0.153076
1.44347
0.166794
1.52558
0.180525
1.612
0.194213
1.70281
0.20781
1.79837
0.221254
1.8989
0.234524
2.00475
0.247545
2.11588
0.260283
2.23277
0.272696
2.35579
0.284748
2.48513
0.296405
2.62101
0.307642
2.76406
0.318435
2.91435
0.328767
3.07266
0.338613
3.23906
0.348002
3.41415
0.356893
3.59846
0.3653
3.79231
0.373226
3.99661
0.380679
4.21143
0.38767
4.4378
0.394209
4.6762
0.400312
4.92725
0.40598
5.19172
0.411271
5.47044
0.41616
5.76405
0.420678
6.07343
0.424845
6.39972
0.428678
6.74346
0.432194
7.10562
0.435416
7.48862
0.437629
5.86811
0.439791
6.44819
0.441868
7.08679
0.443913
7.78992
0.445795
8.56053
0.447621
9.40826
0.44924
10.3418
0.450695
11.3638
0.452126
12.4985
0.452712
13.7203
0.454746
15.122
0.452667
16.5463
0.148837
0.174152
0.111836
0.161866
0.0817015
0.153636
0.0632984
0.155313
0.0557992
0.1683
0.0564611
0.190923
0.0628437
0.220505
0.0723407
0.254304
0.0816356
0.28895
0.0873392
0.320299
0.0886428
0.345198
0.0879516
0.365501
0.0871712
0.385846
0.0863264
0.408512
0.0852529
0.433243
0.0840448
0.459377
0.0829616
0.486776
0.0821723
0.5156
0.0818249
0.546051
0.0820174
0.57827
0.0828559
0.612388
0.0844317
0.648451
0.0867975
0.686629
0.0899781
0.726996
0.0939608
0.769714
0.0987737
0.814864
0.104398
0.862629
0.11083
0.913141
0.11801
0.966366
0.125922
1.02282
0.134495
1.08226
0.143686
1.14492
0.153426
1.21131
0.163665
1.28113
0.174333
1.35476
0.185381
1.43242
0.196721
1.51424
0.208316
1.60041
0.22009
1.69103
0.231997
1.78647
0.243955
1.88694
0.25591
1.9928
0.267818
2.10398
0.279618
2.22098
0.291256
2.34415
0.302687
2.4737
0.313865
2.60983
0.32475
2.75317
0.335308
2.9038
0.345509
3.06246
0.355339
3.22923
0.364743
3.40474
0.373741
3.58946
0.38231
3.78375
0.390445
3.98847
0.398143
4.20373
0.405405
4.43054
0.412236
4.66937
0.418642
4.92085
0.424649
5.18572
0.430238
5.46485
0.435421
5.75887
0.440242
6.06861
0.444702
6.39527
0.448817
6.73934
0.452601
7.10184
0.456075
7.48515
0.458465
5.86572
0.460808
6.44585
0.463094
7.08451
0.465286
7.78773
0.467371
8.55845
0.469337
9.4063
0.471111
10.34
0.472739
11.3622
0.474288
12.497
0.475025
13.7196
0.477147
15.1199
0.198063
0.193402
0.171345
0.188605
0.14285
0.182145
0.119326
0.178856
0.104879
0.182757
0.100113
0.195702
0.103309
0.217315
0.111721
0.245901
0.121868
0.278808
0.129696
0.312478
0.132282
0.342616
0.130895
0.366897
0.12922
0.387524
0.129039
0.4087
0.129897
0.432388
0.130997
0.458282
0.132103
0.485673
0.133338
0.514369
0.13482
0.544571
0.136602
0.57649
0.138669
0.610323
0.141005
0.646116
0.143649
0.683986
0.146628
0.724019
0.149999
0.766341
0.153789
0.811074
0.158049
0.858366
0.1628
0.908391
0.168077
0.961084
0.173893
1.01701
0.180259
1.07589
0.18718
1.138
0.194641
1.20384
0.202618
1.27315
0.21108
1.3463
0.219993
1.42351
0.229321
1.50491
0.239016
1.59071
0.249024
1.68103
0.259296
1.7762
0.269772
1.87646
0.280411
1.98216
0.291134
2.09325
0.301887
2.21022
0.312633
2.3334
0.32332
2.46301
0.333877
2.59927
0.344268
2.74278
0.354449
2.89362
0.364368
3.05254
0.374013
3.21958
0.383343
3.39541
0.392333
3.58047
0.400972
3.77511
0.409221
3.98022
0.41708
4.19588
0.424541
4.42308
0.431587
4.66232
0.438244
4.91419
0.444502
5.17946
0.450366
5.45899
0.455858
5.75338
0.460943
6.06353
0.465678
6.39053
0.470062
6.73496
0.474119
7.09778
0.477825
7.48144
0.480393
5.86316
0.482913
6.44333
0.485363
7.08206
0.487744
7.78535
0.489995
8.5562
0.492134
9.40417
0.494114
10.338
0.49582
11.3605
0.497607
12.4952
0.498405
13.7188
0.247503
0.202877
0.232423
0.20376
0.212006
0.202612
0.189508
0.201411
0.169691
0.202606
0.156813
0.208624
0.152909
0.221238
0.157715
0.241129
0.168828
0.267705
0.182147
0.299187
0.192414
0.332354
0.196121
0.363214
0.194395
0.389251
0.191258
0.411855
0.189255
0.43439
0.188639
0.458911
0.188621
0.485689
0.188745
0.514252
0.189005
0.544312
0.189584
0.575915
0.190618
0.609289
0.192118
0.644619
0.194038
0.682067
0.196344
0.721715
0.19903
0.763658
0.202111
0.807996
0.205581
0.854898
0.209467
0.90451
0.213762
0.956791
0.218485
1.01229
0.223617
1.07076
0.229193
1.13243
0.235205
1.19783
0.241661
1.2667
0.248551
1.33941
0.25587
1.4162
0.263598
1.49718
0.271718
1.5826
0.280198
1.67255
0.289008
1.76739
0.298105
1.86736
0.307451
1.97281
0.316997
2.08371
0.326695
2.20053
0.336493
2.32361
0.346341
2.45316
0.356188
2.58943
0.365984
2.73299
0.375681
2.88392
0.385246
3.04298
0.394601
3.21023
0.403744
3.38627
0.41264
3.57158
0.421222
3.76653
0.429503
3.97194
0.437449
4.18793
0.445043
4.41549
0.452287
4.65508
0.459132
4.90735
0.465615
5.17298
0.47172
5.45288
0.47745
5.74765
0.482822
6.05816
0.487802
6.38556
0.492442
6.73032
0.496735
7.09349
0.500698
7.47748
0.503441
5.86041
0.50614
6.44063
0.508771
7.07943
0.511329
7.7828
0.513765
8.55376
0.516084
9.40185
0.518219
10.3359
0.520081
11.3586
0.522058
12.4932
0.289157
0.206223
0.282082
0.21079
0.270289
0.214381
0.254171
0.217501
0.23579
0.220976
0.21841
0.225984
0.205686
0.233956
0.200407
0.246395
0.203714
0.264396
0.214527
0.288366
0.229329
0.317553
0.242831
0.349706
0.250617
0.381468
0.252273
0.410195
0.250685
0.435981
0.248889
0.460703
0.248182
0.486399
0.2483
0.514131
0.248648
0.543966
0.248893
0.575669
0.249103
0.609081
0.24947
0.644251
0.250141
0.681397
0.251152
0.720704
0.252497
0.762313
0.254172
0.806321
0.256197
0.852872
0.258608
0.902099
0.261427
0.95397
0.264674
1.00904
0.268348
1.06708
0.272459
1.12832
0.277008
1.19328
0.282
1.26171
0.287428
1.33398
0.293294
1.41033
0.299583
1.49089
0.306286
1.57589
0.313392
1.66544
0.320854
1.75993
0.328669
1.85955
0.3368
1.96469
0.345209
2.0753
0.353855
2.19188
0.362695
2.31477
0.371684
2.44418
0.380771
2.58034
0.38991
2.72385
0.399051
2.87478
0.408146
3.03388
0.41715
3.20123
0.426019
3.37741
0.434713
3.56289
0.443194
3.75805
0.45143
3.96371
0.459392
4.17997
0.467054
4.40783
0.474397
4.64774
0.481406
4.90034
0.488069
5.16631
0.494378
5.44657
0.500328
5.7417
0.505918
6.05257
0.51115
6.38032
0.51603
6.72545
0.520562
7.08895
0.524775
7.47326
0.527675
5.85751
0.530564
6.43774
0.53336
7.07663
0.536098
7.78006
0.538716
8.55115
0.541195
9.39937
0.543526
10.3335
0.545554
0.322428
0.208102
0.318468
0.214729
0.311894
0.220961
0.302458
0.226925
0.290567
0.232872
0.277246
0.239299
0.264361
0.246846
0.254239
0.256515
0.249291
0.269347
0.251183
0.286474
0.260124
0.308615
0.274055
0.335775
0.288796
0.36673
0.299768
0.399222
0.30493
0.430822
0.305348
0.460282
0.30366
0.488093
0.302117
0.515669
0.301586
0.544505
0.301784
0.575466
0.302155
0.608719
0.302408
0.643994
0.302616
0.681198
0.302949
0.720368
0.303541
0.761731
0.304426
0.805436
0.305597
0.851709
0.307038
0.900661
0.308784
0.952229
0.310872
1.00696
0.313344
1.06461
0.316205
1.12547
0.31947
1.19002
0.323168
1.25802
0.327299
1.32985
0.331869
1.40576
0.336885
1.48588
0.342325
1.57046
0.348177
1.65959
0.354446
1.75366
0.361102
1.85289
0.368123
1.95767
0.375478
2.06795
0.383147
2.18421
0.391069
2.30684
0.399205
2.43604
0.407531
2.57202
0.415994
2.71539
0.424544
2.86623
0.433135
3.02529
0.441732
3.19263
0.450265
3.36887
0.45869
3.55446
0.466989
3.74975
0.475111
3.95559
0.483022
4.17206
0.49069
4.40016
0.498087
4.64034
0.505207
4.89322
0.512002
5.15952
0.518459
5.44012
0.524592
5.73557
0.530383
6.04678
0.535843
6.37487
0.540941
6.72035
0.545681
7.08421
0.550101
7.46885
0.553195
5.85442
0.556225
6.43471
0.559211
7.07365
0.56214
7.77713
0.564941
8.54835
0.567581
0.353406
0.210974
0.349171
0.218947
0.343492
0.22664
0.336306
0.234096
0.327766
0.241414
0.318189
0.248862
0.308284
0.256754
0.299081
0.265704
0.292066
0.276368
0.288851
0.289675
0.290928
0.306544
0.2989
0.327789
0.311912
0.353726
0.327175
0.383943
0.340922
0.417083
0.350002
0.451186
0.353619
0.484486
0.353138
0.516133
0.351056
0.546596
0.349311
0.577196
0.34866
0.60938
0.348743
0.643898
0.349033
0.680915
0.349221
0.720171
0.349409
0.76155
0.349765
0.805075
0.350432
0.851047
0.351405
0.899687
0.352663
0.950974
0.35419
1.00543
0.356011
1.06279
0.358164
1.12331
0.360672
1.18751
0.363557
1.25513
0.366826
1.32658
0.370494
1.4021
0.37457
1.4818
0.379058
1.56597
0.383957
1.65469
0.389263
1.74836
0.394966
1.84719
0.401053
1.95158
0.407501
2.0615
0.414289
2.17743
0.421385
2.29975
0.428756
2.42867
0.436365
2.56441
0.444173
2.70758
0.452135
2.85827
0.460208
3.01722
0.468347
3.18449
0.476505
3.36072
0.484638
3.54633
0.492701
3.74169
0.500655
3.94764
0.508457
4.16426
0.516072
4.39254
0.52347
4.63294
0.53062
4.88607
0.537499
5.15264
0.544086
5.43353
0.550363
5.72929
0.556321
6.04083
0.561948
6.36924
0.567241
6.71506
0.572197
7.07926
0.576822
7.46422
0.580056
5.85119
0.583263
6.4315
0.586433
0.589503
0.386116
0.21471
0.381154
0.223911
0.374962
0.232838
0.367613
0.241445
0.359229
0.249804
0.350101
0.257988
0.34064
0.26622
0.331461
0.27488
0.323426
0.284407
0.31762
0.295476
0.315289
0.308881
0.317562
0.325509
0.325152
0.346144
0.337733
0.371354
0.353683
0.401143
0.370031
0.434828
0.383558
0.47097
0.391904
0.507776
0.394821
0.543693
0.393976
0.578028
0.391925
0.611445
0.390482
0.64533
0.390234
0.681178
0.390666
0.71973
0.391247
0.760981
0.391668
0.80465
0.392122
0.850604
0.392762
0.899046
0.393726
0.95002
0.394981
1.00418
0.396523
1.06126
0.39833
1.12151
0.400445
1.1854
0.402873
1.25271
0.405645
1.32381
0.40877
1.39897
0.412248
1.47833
0.416107
1.56211
0.420342
1.65046
0.424968
1.74373
0.429961
1.8422
0.435326
1.94622
0.441051
2.05577
0.447112
2.17137
0.453507
2.29336
0.460215
2.42196
0.467181
2.55744
0.474386
2.70038
0.481791
2.85087
0.489347
3.00966
0.497035
3.17681
0.5048
3.35295
0.512601
3.53853
0.520404
3.73388
0.528144
3.9399
0.535789
4.15662
0.543303
4.38503
0.550634
4.62561
0.557778
4.87892
0.564693
5.14573
0.571364
5.42686
0.577746
5.72291
0.583817
6.03476
0.589594
6.36347
0.595051
6.7096
0.6002
7.07411
0.604996
0.608372
0.421299
0.218236
0.416545
0.228629
0.410543
0.238834
0.403204
0.248764
0.394666
0.258343
0.385068
0.267573
0.374761
0.27653
0.364195
0.285438
0.354054
0.294552
0.345176
0.304348
0.338585
0.315475
0.335429
0.328659
0.33677
0.344807
0.343364
0.364754
0.355256
0.389255
0.371473
0.418604
0.389896
0.452554
0.407448
0.490214
0.421158
0.529992
0.429096
0.570078
0.431587
0.608966
0.430671
0.646231
0.429046
0.682817
0.428377
0.720387
0.428947
0.760426
0.430079
0.80351
0.431184
0.849513
0.432107
0.89812
0.433056
0.949083
0.434227
1.00301
0.435685
1.05981
0.437432
1.11977
0.439407
1.18343
0.441642
1.25048
0.44416
1.3213
0.446983
1.39615
0.450125
1.47519
0.453604
1.55863
0.457408
1.64665
0.461542
1.7396
0.466032
1.83771
0.470867
1.94138
0.476042
2.0506
0.481551
2.16586
0.487379
2.28753
0.493511
2.41583
0.499924
2.55103
0.506595
2.69371
0.513492
2.84397
0.520597
3.00256
0.527836
3.16957
0.535221
3.34557
0.542675
3.53108
0.550156
3.72641
0.55765
3.93241
0.565098
4.14917
0.572467
4.37767
0.579725
4.61835
0.586819
4.87183
0.593706
5.13884
0.600392
5.42018
0.606831
5.71647
0.613022
0.618896
0.624488
0.459508
0.220704
0.455948
0.232173
0.451154
0.243631
0.444929
0.254974
0.43725
0.266026
0.428079
0.27673
0.417638
0.286978
0.406174
0.296888
0.39422
0.306515
0.382378
0.316175
0.371613
0.32625
0.362911
0.337347
0.357546
0.350184
0.356602
0.365684
0.361076
0.384793
0.371297
0.408369
0.386831
0.437033
0.406128
0.470903
0.426652
0.50948
0.445146
0.55157
0.45872
0.595405
0.465978
0.638959
0.467838
0.680969
0.466899
0.721313
0.46588
0.761455
0.466162
0.803219
0.467619
0.848063
0.469434
0.896301
0.471095
0.947427
0.47257
1.00153
0.47412
1.05826
0.475889
1.118
0.477942
1.18138
0.480228
1.24819
0.482728
1.3188
0.485463
1.39342
0.488467
1.47218
0.491729
1.55537
0.495287
1.6431
0.499143
1.73575
0.5033
1.83356
0.507766
1.93692
0.51254
2.04583
0.517635
2.16077
0.523017
2.28215
0.528681
2.41017
0.534632
2.54508
0.540843
2.6875
0.54729
2.83752
0.55395
2.9959
0.560803
3.16272
0.567781
3.33859
0.574887
3.52398
0.582072
3.71923
0.589293
3.92519
0.59652
4.14195
0.6037
4.37048
0.610813
0.617804
0.624668
0.631317
0.499841
0.222055
0.497792
0.234199
0.494765
0.246669
0.490422
0.2593
0.484583
0.271878
0.477078
0.284221
0.467885
0.296184
0.457042
0.307719
0.444824
0.318746
0.431626
0.329365
0.418119
0.339767
0.405143
0.350316
0.393834
0.361502
0.385443
0.374067
0.381311
0.388933
0.382582
0.407092
0.390042
0.42958
0.403684
0.457255
0.422559
0.490612
0.444574
0.529547
0.466743
0.573243
0.485561
0.620132
0.498391
0.668148
0.504439
0.715256
0.505513
0.760392
0.504635
0.80409
0.504435
0.848273
0.505739
0.894992
0.508022
0.945153
0.510408
0.999146
0.512536
1.05614
0.514542
1.11599
0.516693
1.17924
0.519081
1.24581
0.521705
1.31618
0.524525
1.39061
0.527526
1.46919
0.530755
1.55215
0.534219
1.63964
0.537945
1.73202
0.541914
1.82959
0.546149
1.93269
0.550651
2.04133
0.555416
2.15601
0.560462
2.2771
0.56579
2.40485
0.571364
2.53951
0.577188
2.68168
0.583243
2.83147
0.589515
2.98964
0.595964
0.602592
0.609371
0.616239
0.623182
0.63015
0.542208
0.222713
0.541218
0.235117
0.539749
0.248111
0.537394
0.261605
0.533871
0.275395
0.528753
0.289304
0.521904
0.303038
0.513103
0.316494
0.502417
0.329442
0.489896
0.341864
0.475946
0.353731
0.461057
0.365188
0.446109
0.376463
0.432125
0.388037
0.420506
0.400566
0.41267
0.414916
0.410084
0.43218
0.413824
0.453504
0.424465
0.479984
0.441564
0.51244
0.463626
0.551194
0.487974
0.595777
0.511114
0.645022
0.529446
0.696918
0.540717
0.749133
0.545164
0.799638
0.545458
0.847992
0.544949
0.895499
0.545791
0.944322
0.548133
0.996804
0.551111
1.05317
0.553931
1.11318
0.556472
1.1767
0.558992
1.24329
0.561699
1.31348
0.564638
1.38767
0.567779
1.46605
0.571076
1.54886
0.574548
0.578209
0.582092
0.586197
0.590526
0.595103
0.599903
0.604929
0.610199
0.6157
0.621416
0.587763
0.587316
0.586776
0.585899
0.584383
0.581796
0.577762
0.571868
0.563919
0.553752
0.541446
0.527157
0.511383
0.494793
0.47847
0.463672
0.452039
0.445189
0.444628
0.451348
0.465557
0.486272
0.51136
0.537447
0.560628
0.577368
0.586322
0.588933
0.588737
0.588965
0.59096
0.594164
0.597579
0.600676
0.603584
0.60657
0.609751
)
;

boundaryField
{
    inlet
    {
        type            calculated;
        value           nonuniform List<scalar> 
11
(
0.507092
0.972355
0.952549
0.938083
0.933035
0.943721
0.981604
1.04993
1.19618
1.22903
0.456989
)
;
    }
    outlet
    {
        type            calculated;
        value           nonuniform List<scalar> 0();
    }
    walls
    {
        type            calculated;
        value           uniform 0;
    }
    frontAndBack
    {
        type            empty;
        value           nonuniform List<scalar> 0();
    }
    procBoundary6to2
    {
        type            processor;
        value           nonuniform List<scalar> 
13
(
-0.165301
-0.180392
-0.217237
-0.256767
-0.292573
-0.324284
-0.356282
-0.389814
-0.424832
-0.461976
-0.501149
-0.542968
-0.588067
)
;
    }
    procBoundary6to3
    {
        type            processor;
        value           uniform 0.223141;
    }
    procBoundary6to5
    {
        type            processor;
        value           nonuniform List<scalar> 
86
(
-0.141398
-0.183279
-0.226727
-0.27641
-0.320644
-0.343803
-0.353666
-0.366735
-0.386245
-0.408571
-0.431458
-0.454881
-0.479323
-0.505119
-0.532317
-0.56096
-0.59111
-0.62278
-0.656112
-0.691165
-0.728001
-0.766728
-0.807411
-0.850249
-0.895174
-0.942512
-0.991951
-1.04417
-1.09899
-1.15652
-1.21687
-1.28043
-1.34702
-0.645142
-1.44019
-1.51342
-1.59067
-1.67162
-1.7568
-1.84632
-1.94058
-2.03969
-2.1439
-2.25374
-2.36933
-2.4909
-0.806905
-2.63761
-2.77275
-2.91521
-3.06524
-3.22375
-3.39059
-3.56653
-3.7522
-3.94811
-0.88344
-4.17503
-4.39355
-4.62398
-4.86707
-5.12343
-5.39407
-5.67922
-0.952446
-6.00705
-6.32572
-6.66201
-7.01696
-7.39167
-7.7856
-5.69322
-1.03847
-6.25367
-6.87327
-7.55222
-8.29952
-9.12113
-10.0218
-11.0128
-12.1076
-13.2957
-0.65962
-14.586
-15.9948
-17.6681
)
;
    }
    procBoundary6to7
    {
        type            processor;
        value           nonuniform List<scalar> 
91
(
18.3678
0.475415
16.548
0.500771
15.1175
0.522964
13.7179
11.3566
0.547692
12.4911
9.39673
0.570093
10.331
7.07048
7.77407
0.592481
8.54537
7.45943
5.84781
0.611729
6.42815
6.02857
6.35759
6.70401
0.629771
7.06883
4.61124
4.86484
5.13198
5.41352
0.637778
5.71002
3.15627
3.33197
3.5172
3.71236
3.91825
4.13498
0.63713
4.36351
1.63617
1.72837
1.82571
1.92859
2.037
2.15144
2.27231
2.39983
2.53424
2.67618
2.82576
0.627343
2.98371
0.235568
0.24869
0.262483
0.276944
0.291885
0.3071
0.322379
0.337414
0.352022
0.366057
0.379469
0.392254
0.40462
0.416904
0.429708
0.443827
0.460349
0.480559
0.505716
0.536998
0.575059
0.619947
0.670829
0.725966
0.782899
0.839052
0.892889
0.944531
0.996579
1.05119
1.10998
1.1733
1.2402
1.31058
1.38469
1.46287
0.613138
1.54548
)
;
    }
}


// ************************************************************************* //
