/*--------------------------------*- C++ -*----------------------------------*\
| =========                 |                                                 |
| \\      /  F ield         | OpenFOAM: The Open Source CFD Toolbox           |
|  \\    /   O peration     | Version:  2306                                  |
|   \\  /    A nd           | Website:  www.openfoam.com                      |
|    \\/     M anipulation  |                                                 |
\*---------------------------------------------------------------------------*/
FoamFile
{
    version     2.0;
    format      ascii;
    arch        "LSB;label=32;scalar=64";
    class       volScalarField;
    location    "125";
    object      turbulenceProperties:nuEff;
}
// * * * * * * * * * * * * * * * * * * * * * * * * * * * * * * * * * * * * * //

dimensions      [0 2 -1 0 0 0 0];

internalField   nonuniform List<scalar> 
1340
(
0.0895551
0.0812373
0.071422
0.0482026
0.133032
0.129175
0.123294
0.124613
0.162695
0.166044
0.164281
0.173127
0.153305
0.172547
0.184449
0.201014
0.101061
0.142942
0.178248
0.209733
0.0348257
0.0825199
0.14256
0.197551
0.00302843
0.0236405
0.0850505
0.163081
0.000745583
0.00148473
0.0333513
0.112992
1e-05
0.000406404
0.00258
0.0626097
1e-05
1e-05
0.00118427
0.0286507
1.0004e-05
1e-05
0.00024436
0.0115211
1.10548e-05
1e-05
6.73916e-05
0.00401776
1.8969e-05
1.00117e-05
1.12638e-05
0.00115322
1.94183e-05
1.24595e-05
1.00021e-05
0.000184398
1.67168e-05
1.99688e-05
1e-05
1.76216e-05
1.53984e-05
2.24856e-05
1.00002e-05
1e-05
1.53736e-05
1.96916e-05
1.15469e-05
1.00005e-05
1.57982e-05
1.70733e-05
1.68514e-05
1.0083e-05
1.61479e-05
1.59499e-05
1.86638e-05
1.16322e-05
1.62869e-05
1.57568e-05
1.78184e-05
1.45587e-05
1.6288e-05
1.59087e-05
1.6785e-05
1.62494e-05
1.62398e-05
1.6086e-05
1.62465e-05
1.65916e-05
1.61933e-05
1.61873e-05
1.609e-05
1.64319e-05
1.61655e-05
1.62153e-05
1.61017e-05
1.62518e-05
1.61541e-05
1.6204e-05
1.61501e-05
1.61674e-05
1.61515e-05
1.61831e-05
1.61816e-05
1.61529e-05
1.61513e-05
1.61667e-05
1.6189e-05
1.61644e-05
1.61504e-05
1.61574e-05
1.61823e-05
1.61759e-05
1.61481e-05
1.61526e-05
1.6172e-05
1.61792e-05
1.61449e-05
1.61497e-05
1.61633e-05
1.61757e-05
1.61415e-05
1.61469e-05
1.6157e-05
1.61693e-05
1.61381e-05
1.61438e-05
1.61524e-05
1.61627e-05
1.61349e-05
1.61405e-05
1.61485e-05
1.61569e-05
1.61271e-05
1.61319e-05
1.61372e-05
1.61448e-05
1.61521e-05
1.61245e-05
1.6129e-05
1.61339e-05
1.61412e-05
1.61477e-05
1.6122e-05
1.61262e-05
1.61308e-05
1.61376e-05
1.61436e-05
1.61196e-05
1.61235e-05
1.61278e-05
1.61342e-05
1.61397e-05
1.61173e-05
1.61209e-05
1.6125e-05
1.61309e-05
1.61359e-05
1.61151e-05
1.61185e-05
1.61222e-05
1.61278e-05
1.61324e-05
1.6113e-05
1.61162e-05
1.61196e-05
1.61248e-05
1.6129e-05
1.6111e-05
1.6114e-05
1.61172e-05
1.6122e-05
1.61258e-05
1.61091e-05
1.61118e-05
1.61148e-05
1.61193e-05
1.61228e-05
1.61072e-05
1.61098e-05
1.61125e-05
1.61167e-05
1.612e-05
1.61054e-05
1.61078e-05
1.61103e-05
1.61141e-05
1.61172e-05
1.61037e-05
1.61059e-05
1.61082e-05
1.61117e-05
1.61145e-05
1.61004e-05
1.61021e-05
1.61041e-05
1.61062e-05
1.61095e-05
1.6112e-05
1.6099e-05
1.61006e-05
1.61024e-05
1.61044e-05
1.61073e-05
1.61097e-05
1.60977e-05
1.60991e-05
1.61008e-05
1.61026e-05
1.61053e-05
1.61074e-05
1.60965e-05
1.60978e-05
1.60993e-05
1.61009e-05
1.61033e-05
1.61053e-05
1.60954e-05
1.60965e-05
1.60978e-05
1.60993e-05
1.61015e-05
1.61032e-05
1.60944e-05
1.60954e-05
1.60965e-05
1.60978e-05
1.60998e-05
1.61013e-05
1.60934e-05
1.60943e-05
1.60953e-05
1.60964e-05
1.60982e-05
1.60996e-05
1.60925e-05
1.60933e-05
1.60942e-05
1.60952e-05
1.60967e-05
1.60979e-05
1.60918e-05
1.60924e-05
1.60931e-05
1.6094e-05
1.60953e-05
1.60964e-05
1.60907e-05
1.60911e-05
1.60916e-05
1.60922e-05
1.60929e-05
1.60941e-05
1.6095e-05
1.60902e-05
1.60905e-05
1.60909e-05
1.60914e-05
1.6092e-05
1.6093e-05
1.60937e-05
1.60899e-05
1.60901e-05
1.60904e-05
1.60908e-05
1.60912e-05
1.60921e-05
1.60926e-05
1.60898e-05
1.60899e-05
1.60901e-05
1.60904e-05
1.60907e-05
1.60913e-05
1.60918e-05
1.60899e-05
1.60899e-05
1.609e-05
1.60901e-05
1.60904e-05
1.60909e-05
1.60912e-05
1.60901e-05
1.60901e-05
1.60901e-05
1.60901e-05
1.60902e-05
1.60906e-05
1.60908e-05
1.609e-05
1.60901e-05
1.60902e-05
1.60902e-05
1.60903e-05
1.60905e-05
1.60907e-05
1.60895e-05
1.60897e-05
1.60898e-05
1.609e-05
1.60901e-05
1.60903e-05
1.60904e-05
1.60907e-05
1.60886e-05
1.60889e-05
1.60891e-05
1.60894e-05
1.60897e-05
1.60899e-05
1.60901e-05
1.60905e-05
1.60875e-05
1.60878e-05
1.60881e-05
1.60884e-05
1.60888e-05
1.60892e-05
1.60895e-05
1.609e-05
1.60863e-05
1.60866e-05
1.60869e-05
1.60873e-05
1.60877e-05
1.60881e-05
1.60885e-05
1.60891e-05
1.60851e-05
1.60854e-05
1.60857e-05
1.60861e-05
1.60864e-05
1.60869e-05
1.60872e-05
1.60879e-05
1.6084e-05
1.60843e-05
1.60847e-05
1.6085e-05
1.60854e-05
1.60858e-05
1.60862e-05
1.60868e-05
1.60827e-05
1.60832e-05
1.60836e-05
1.60841e-05
1.60846e-05
1.6085e-05
1.60855e-05
1.60861e-05
1.60806e-05
1.6081e-05
1.60815e-05
1.60821e-05
1.60826e-05
1.60832e-05
1.60838e-05
1.60844e-05
1.60851e-05
1.60788e-05
1.60792e-05
1.60797e-05
1.60802e-05
1.60807e-05
1.60813e-05
1.6082e-05
1.60826e-05
1.60835e-05
1.60771e-05
1.60775e-05
1.60779e-05
1.60784e-05
1.60789e-05
1.60793e-05
1.60799e-05
1.60805e-05
1.60813e-05
1.60753e-05
1.60757e-05
1.60761e-05
1.60766e-05
1.6077e-05
1.60775e-05
1.6078e-05
1.60785e-05
1.60792e-05
1.60733e-05
1.60736e-05
1.6074e-05
1.60745e-05
1.60749e-05
1.60754e-05
1.60758e-05
1.60763e-05
1.6077e-05
1.60712e-05
1.60716e-05
1.60719e-05
1.60723e-05
1.60727e-05
1.60732e-05
1.60737e-05
1.60741e-05
1.60748e-05
1.60702e-05
1.60703e-05
1.60704e-05
1.60705e-05
1.60707e-05
1.60709e-05
1.60712e-05
1.60717e-05
1.60721e-05
1.60711e-05
1.60709e-05
1.60708e-05
1.60708e-05
1.60707e-05
1.60707e-05
1.60707e-05
1.60707e-05
1.60709e-05
1.60734e-05
1.60733e-05
1.60731e-05
1.6073e-05
1.60728e-05
1.60727e-05
1.60726e-05
1.60726e-05
1.60725e-05
1.60759e-05
1.60757e-05
1.60754e-05
1.60752e-05
1.6075e-05
1.60748e-05
1.60747e-05
1.60745e-05
1.60743e-05
1.60742e-05
1.608e-05
1.60804e-05
1.60808e-05
1.60812e-05
1.60817e-05
1.60822e-05
1.60828e-05
1.60833e-05
1.60841e-05
1.60848e-05
1.60866e-05
1.60863e-05
1.6086e-05
1.60858e-05
1.60857e-05
1.60858e-05
1.60859e-05
1.60861e-05
1.60864e-05
1.60867e-05
0.148474
0.175838
0.202816
0.234928
0.250404
0.243985
0.214451
0.162928
0.098218
0.0404212
0.0126674
0.00448703
0.00133289
0.000240349
2.62629e-05
1e-05
1e-05
1.00066e-05
1.10418e-05
1.40855e-05
1.62316e-05
1.67433e-05
1.65558e-05
1.63233e-05
1.62052e-05
1.61699e-05
1.61697e-05
1.61781e-05
1.61841e-05
1.6185e-05
1.61813e-05
1.61749e-05
1.61679e-05
1.61616e-05
1.61562e-05
1.61514e-05
1.61469e-05
1.61425e-05
1.61384e-05
1.61345e-05
1.61309e-05
1.61275e-05
1.61242e-05
1.61211e-05
1.61181e-05
1.61152e-05
1.61125e-05
1.611e-05
1.61076e-05
1.61053e-05
1.61032e-05
1.61012e-05
1.60994e-05
1.60976e-05
1.60961e-05
1.60946e-05
1.60934e-05
1.60924e-05
1.60917e-05
1.60912e-05
1.6091e-05
1.6091e-05
1.60908e-05
1.60902e-05
1.60894e-05
1.60882e-05
1.60871e-05
1.60864e-05
1.60855e-05
1.6084e-05
1.60818e-05
1.60796e-05
1.60774e-05
1.60752e-05
1.60725e-05
1.60711e-05
1.60724e-05
1.60741e-05
1.60851e-05
1.6087e-05
0.182515
0.215662
0.234386
0.252344
0.273221
0.278599
0.260786
0.217981
0.153417
0.0794429
0.0251399
0.00435495
0.000846857
5.15871e-05
1.02474e-05
1e-05
1e-05
1e-05
1.05716e-05
1.36109e-05
1.61763e-05
1.69621e-05
1.67689e-05
1.64023e-05
1.61971e-05
1.61534e-05
1.61771e-05
1.61984e-05
1.62005e-05
1.61936e-05
1.61868e-05
1.61817e-05
1.61764e-05
1.61703e-05
1.61639e-05
1.6158e-05
1.61528e-05
1.61479e-05
1.61434e-05
1.6139e-05
1.6135e-05
1.61312e-05
1.61276e-05
1.61241e-05
1.61208e-05
1.61177e-05
1.61148e-05
1.6112e-05
1.61094e-05
1.61069e-05
1.61046e-05
1.61025e-05
1.61005e-05
1.60986e-05
1.60969e-05
1.60953e-05
1.6094e-05
1.60929e-05
1.60921e-05
1.60915e-05
1.60913e-05
1.60912e-05
1.6091e-05
1.60905e-05
1.60897e-05
1.60885e-05
1.60874e-05
1.60867e-05
1.60859e-05
1.60843e-05
1.60821e-05
1.60799e-05
1.60777e-05
1.60755e-05
1.60728e-05
1.60712e-05
1.60724e-05
1.60741e-05
1.60852e-05
0.156985
0.197667
0.223661
0.238194
0.251687
0.268253
0.271512
0.251899
0.206571
0.139124
0.0663722
0.0194805
0.00284523
0.000665825
1e-05
1e-05
1e-05
1.00005e-05
1.02419e-05
1.27055e-05
1.56077e-05
1.66931e-05
1.68068e-05
1.66827e-05
1.64287e-05
1.62134e-05
1.6136e-05
1.61571e-05
1.61987e-05
1.62152e-05
1.62072e-05
1.61926e-05
1.61822e-05
1.61762e-05
1.61712e-05
1.61654e-05
1.61592e-05
1.61535e-05
1.61483e-05
1.61436e-05
1.61391e-05
1.61349e-05
1.6131e-05
1.61272e-05
1.61236e-05
1.61202e-05
1.6117e-05
1.6114e-05
1.61112e-05
1.61085e-05
1.6106e-05
1.61037e-05
1.61015e-05
1.60995e-05
1.60976e-05
1.6096e-05
1.60946e-05
1.60934e-05
1.60925e-05
1.60919e-05
1.60915e-05
1.60913e-05
1.60912e-05
1.60908e-05
1.609e-05
1.60888e-05
1.60877e-05
1.6087e-05
1.60862e-05
1.60847e-05
1.60825e-05
1.60803e-05
1.6078e-05
1.60758e-05
1.60731e-05
1.60714e-05
1.60723e-05
1.60741e-05
0.124677
0.180656
0.22362
0.249317
0.259687
0.261734
0.263836
0.255917
0.229326
0.180122
0.112077
0.0414828
0.00193507
0.00045489
1e-05
1e-05
1e-05
1e-05
1.00097e-05
1.13881e-05
1.634e-05
1.78197e-05
1.67473e-05
1.61219e-05
1.61621e-05
1.63723e-05
1.63646e-05
1.62382e-05
1.61643e-05
1.61689e-05
1.61994e-05
1.62117e-05
1.62024e-05
1.61873e-05
1.61769e-05
1.6171e-05
1.61658e-05
1.616e-05
1.61539e-05
1.61484e-05
1.61435e-05
1.61389e-05
1.61345e-05
1.61304e-05
1.61265e-05
1.61228e-05
1.61193e-05
1.61161e-05
1.6113e-05
1.61101e-05
1.61074e-05
1.61049e-05
1.61026e-05
1.61004e-05
1.60985e-05
1.60967e-05
1.60951e-05
1.60939e-05
1.60929e-05
1.60922e-05
1.60918e-05
1.60916e-05
1.60914e-05
1.60911e-05
1.60903e-05
1.60891e-05
1.60881e-05
1.60874e-05
1.60866e-05
1.60851e-05
1.60829e-05
1.60806e-05
1.60784e-05
1.60761e-05
1.60734e-05
1.60716e-05
1.60723e-05
0.26581
0.345822
0.408832
0.450778
0.469161
0.464511
0.441373
0.407493
0.362187
0.300922
0.221093
0.124511
0.0330934
0.0105707
0.000600559
1e-05
1e-05
1e-05
1e-05
1.00047e-05
1.12399e-05
1.79999e-05
2.2082e-05
1.88648e-05
1.60829e-05
1.54973e-05
1.58996e-05
1.63551e-05
1.64242e-05
1.6282e-05
1.61788e-05
1.61688e-05
1.61947e-05
1.62054e-05
1.61954e-05
1.61808e-05
1.61712e-05
1.61654e-05
1.616e-05
1.61541e-05
1.61484e-05
1.61432e-05
1.61384e-05
1.6134e-05
1.61297e-05
1.61256e-05
1.61219e-05
1.61183e-05
1.6115e-05
1.61119e-05
1.6109e-05
1.61063e-05
1.61038e-05
1.61015e-05
1.60993e-05
1.60974e-05
1.60958e-05
1.60944e-05
1.60934e-05
1.60926e-05
1.60921e-05
1.60918e-05
1.60917e-05
1.60914e-05
1.60907e-05
1.60895e-05
1.60884e-05
1.60877e-05
1.6087e-05
1.60855e-05
1.60833e-05
1.6081e-05
1.60788e-05
1.60765e-05
1.60737e-05
1.60718e-05
0.484672
0.576111
0.65145
0.708646
0.745035
0.758355
0.747611
0.714136
0.661934
0.592606
0.502463
0.389234
0.257266
0.127072
0.0251421
0.00948478
0.000951135
1e-05
1e-05
1e-05
1e-05
1.00115e-05
1.24115e-05
2.05092e-05
2.29548e-05
1.8457e-05
1.56674e-05
1.53178e-05
1.58939e-05
1.63871e-05
1.64374e-05
1.62768e-05
1.61723e-05
1.61671e-05
1.61924e-05
1.6199e-05
1.61872e-05
1.61736e-05
1.61652e-05
1.61595e-05
1.61539e-05
1.61482e-05
1.61428e-05
1.61378e-05
1.61332e-05
1.61288e-05
1.61246e-05
1.61208e-05
1.61172e-05
1.61138e-05
1.61107e-05
1.61078e-05
1.61051e-05
1.61026e-05
1.61003e-05
1.60983e-05
1.60965e-05
1.6095e-05
1.60939e-05
1.6093e-05
1.60924e-05
1.60921e-05
1.6092e-05
1.60917e-05
1.60911e-05
1.60899e-05
1.60888e-05
1.60881e-05
1.60874e-05
1.60859e-05
1.60837e-05
1.60814e-05
1.60791e-05
1.60768e-05
0.57385
0.667992
0.752163
0.824673
0.883063
0.924599
0.94665
0.947203
0.925548
0.882811
0.819973
0.732012
0.614712
0.468765
0.306683
0.154358
0.0379631
0.012925
0.00109887
1e-05
1e-05
1e-05
1e-05
1.00126e-05
1.24491e-05
2.02744e-05
2.18045e-05
1.78009e-05
1.54551e-05
1.53445e-05
1.5984e-05
1.64139e-05
1.64127e-05
1.62504e-05
1.61647e-05
1.61695e-05
1.61906e-05
1.61906e-05
1.61775e-05
1.6166e-05
1.61589e-05
1.61533e-05
1.61477e-05
1.61422e-05
1.6137e-05
1.61322e-05
1.61277e-05
1.61235e-05
1.61196e-05
1.61159e-05
1.61125e-05
1.61094e-05
1.61064e-05
1.61038e-05
1.61013e-05
1.60991e-05
1.60973e-05
1.60957e-05
1.60944e-05
1.60935e-05
1.60928e-05
1.60924e-05
1.60923e-05
1.60921e-05
1.60915e-05
1.60903e-05
1.60892e-05
1.60885e-05
1.60878e-05
1.60863e-05
1.60842e-05
1.60818e-05
0.52688
0.620702
0.711014
0.795895
0.872933
0.939397
0.992395
1.02911
1.04713
1.04486
1.02185
0.979785
0.91244
0.813861
0.680601
0.515763
0.335103
0.167304
0.04168
0.0136405
0.00086162
1e-05
1e-05
1e-05
1e-05
1.00152e-05
1.30198e-05
2.0489e-05
2.11728e-05
1.74664e-05
1.54559e-05
1.54841e-05
1.6105e-05
1.64235e-05
1.63612e-05
1.62146e-05
1.616e-05
1.61735e-05
1.61868e-05
1.61804e-05
1.61678e-05
1.61587e-05
1.61525e-05
1.6147e-05
1.61414e-05
1.6136e-05
1.6131e-05
1.61265e-05
1.61222e-05
1.61182e-05
1.61145e-05
1.61111e-05
1.6108e-05
1.61051e-05
1.61025e-05
1.61001e-05
1.60981e-05
1.60964e-05
1.60951e-05
1.6094e-05
1.60933e-05
1.60928e-05
1.60926e-05
1.60925e-05
1.60919e-05
1.60908e-05
1.60897e-05
1.60889e-05
1.60882e-05
0.407423
0.498642
0.591077
0.68293
0.772084
0.856045
0.93202
0.997058
1.04825
1.08299
1.09936
1.0965
1.07452
1.0308
0.958143
0.850119
0.703929
0.524491
0.330728
0.155652
0.0309619
0.0104894
0.000306278
1e-05
1e-05
1e-05
1.00001e-05
1.00028e-05
1.42373e-05
2.17377e-05
2.01619e-05
1.66823e-05
1.53558e-05
1.56379e-05
1.62283e-05
1.6417e-05
1.63013e-05
1.61839e-05
1.61608e-05
1.61762e-05
1.61796e-05
1.61696e-05
1.6159e-05
1.61518e-05
1.6146e-05
1.61403e-05
1.61348e-05
1.61298e-05
1.61251e-05
1.61208e-05
1.61167e-05
1.6113e-05
1.61097e-05
1.61066e-05
1.61037e-05
1.61012e-05
1.6099e-05
1.60972e-05
1.60958e-05
1.60946e-05
1.60938e-05
1.60933e-05
1.6093e-05
1.60929e-05
1.60923e-05
1.60913e-05
0.260867
0.346225
0.436226
0.529172
0.623449
0.71709
0.807699
0.892516
0.968541
1.03273
1.08225
1.11478
1.12889
1.12391
1.10073
1.05279
0.972259
0.852833
0.692766
0.499528
0.296988
0.124259
0.0103668
0.00478412
1e-05
1e-05
1e-05
1e-05
1.00008e-05
1.00828e-05
1.57493e-05
2.25257e-05
1.92774e-05
1.60479e-05
1.53497e-05
1.58484e-05
1.63295e-05
1.63758e-05
1.62395e-05
1.61649e-05
1.61647e-05
1.61745e-05
1.61699e-05
1.61595e-05
1.61511e-05
1.61448e-05
1.6139e-05
1.61335e-05
1.61284e-05
1.61236e-05
1.61192e-05
1.61152e-05
1.61115e-05
1.61082e-05
1.61051e-05
1.61024e-05
1.61001e-05
1.60981e-05
1.60965e-05
1.60953e-05
1.60943e-05
1.60937e-05
0.119629
0.189464
0.270321
0.358523
0.451701
0.548007
0.645512
0.741944
0.834617
0.920514
0.996453
1.05932
1.10639
1.13568
1.14628
1.13804
1.11033
1.05483
0.963052
0.829183
0.653383
0.44719
0.240324
0.0835941
0.0239534
0.00115647
1e-05
1e-05
1e-05
1e-05
1.00055e-05
1.10028e-05
1.8276e-05
2.15172e-05
1.7955e-05
1.56352e-05
1.55111e-05
1.60884e-05
1.63752e-05
1.6305e-05
1.61904e-05
1.6159e-05
1.61669e-05
1.6168e-05
1.61595e-05
1.61505e-05
1.61435e-05
1.61375e-05
1.6132e-05
1.61268e-05
1.6122e-05
1.61176e-05
1.61136e-05
1.61099e-05
1.61067e-05
1.61038e-05
1.61013e-05
0.0281358
0.0640763
0.118642
0.189566
0.272871
0.364778
0.462323
0.563061
0.664591
0.764263
0.859092
0.945812
1.02107
1.08172
1.1252
1.14996
1.15559
1.1427
1.10746
1.04078
0.934007
0.782518
0.5899
0.375023
0.173103
0.0374428
0.0117852
6.34634e-05
1e-05
1e-05
1e-05
1e-05
1.00014e-05
1.38364e-05
2.10602e-05
1.98044e-05
1.65216e-05
1.5421e-05
1.57841e-05
1.62732e-05
1.63484e-05
1.62316e-05
1.61645e-05
1.61601e-05
1.61642e-05
1.61586e-05
1.61497e-05
1.61423e-05
1.6136e-05
1.61303e-05
0.000456933
0.00768485
0.0260705
0.0608644
0.114624
0.186382
0.272645
0.369177
0.472131
0.578207
0.684369
0.787522
0.884341
0.97131
1.04495
1.10215
1.14061
1.15928
1.158
1.13842
1.0926
1.01087
0.885206
0.713314
0.504716
0.287004
0.109833
0.00264154
0.00212851
1e-05
1e-05
1e-05
1e-05
1.00023e-05
1.03662e-05
1.71989e-05
2.14849e-05
1.81266e-05
)
;

boundaryField
{
    inlet
    {
        type            calculated;
        value           nonuniform List<scalar> 
11
(
1.60866e-05
1.60863e-05
1.6086e-05
1.60858e-05
1.60857e-05
1.60858e-05
1.60859e-05
1.60861e-05
1.60864e-05
1.60867e-05
1.6087e-05
)
;
    }
    outlet
    {
        type            calculated;
        value           nonuniform List<scalar> 0();
    }
    walls
    {
        type            calculated;
        value           nonuniform List<scalar> 4(0.00194344 0.00173976 0.00149527 0.00080882);
    }
    frontAndBack
    {
        type            empty;
    }
    procBoundary6to2
    {
        type            processor;
        value           nonuniform List<scalar> 
13
(
0.118195
0.132028
0.107928
0.0653538
0.168792
0.370675
0.464063
0.426548
0.31621
0.180672
0.0642868
0.00870458
0.000182366
)
;
    }
    procBoundary6to3
    {
        type            processor;
        value           uniform 1.00005e-05;
    }
    procBoundary6to5
    {
        type            processor;
        value           nonuniform List<scalar> 
86
(
0.0956588
0.136946
0.157597
0.12819
0.0588108
0.00888383
0.00214047
1e-05
1e-05
1.00037e-05
1.11042e-05
1.75304e-05
1.74872e-05
1.60495e-05
1.58983e-05
1.62157e-05
1.63719e-05
1.63275e-05
1.62333e-05
1.61694e-05
1.6145e-05
1.61439e-05
1.61502e-05
1.61551e-05
1.61561e-05
1.61537e-05
1.61497e-05
1.61456e-05
1.61418e-05
1.61384e-05
1.61354e-05
1.61325e-05
1.61298e-05
1.61298e-05
1.61231e-05
1.61208e-05
1.61185e-05
1.61163e-05
1.61142e-05
1.61122e-05
1.61103e-05
1.61085e-05
1.61067e-05
1.6105e-05
1.61034e-05
1.61019e-05
1.61019e-05
1.60989e-05
1.60977e-05
1.60965e-05
1.60954e-05
1.60945e-05
1.60935e-05
1.60927e-05
1.60919e-05
1.60913e-05
1.60913e-05
1.60904e-05
1.609e-05
1.60898e-05
1.60898e-05
1.60899e-05
1.60901e-05
1.60899e-05
1.60899e-05
1.60893e-05
1.60884e-05
1.60873e-05
1.6086e-05
1.60848e-05
1.60836e-05
1.60823e-05
1.60823e-05
1.60801e-05
1.60784e-05
1.60768e-05
1.60749e-05
1.60729e-05
1.6071e-05
1.60702e-05
1.60712e-05
1.60736e-05
1.60736e-05
1.6076e-05
1.60798e-05
1.60867e-05
)
;
    }
    procBoundary6to7
    {
        type            processor;
        value           nonuniform List<scalar> 
91
(
1.60873e-05
1.60873e-05
1.60853e-05
1.60853e-05
1.6074e-05
1.6074e-05
1.60723e-05
1.60741e-05
1.60723e-05
1.6072e-05
1.60795e-05
1.60741e-05
1.60772e-05
1.60868e-05
1.60847e-05
1.60795e-05
1.60823e-05
1.60901e-05
1.60894e-05
1.60868e-05
1.60887e-05
1.60935e-05
1.60933e-05
1.60928e-05
1.60901e-05
1.60917e-05
1.60991e-05
1.60974e-05
1.6096e-05
1.6095e-05
1.60935e-05
1.60943e-05
1.6125e-05
1.61202e-05
1.61159e-05
1.61119e-05
1.61084e-05
1.61053e-05
1.60991e-05
1.61025e-05
1.57244e-05
1.55225e-05
1.60665e-05
1.63333e-05
1.62717e-05
1.61803e-05
1.61571e-05
1.61594e-05
1.6156e-05
1.6148e-05
1.61406e-05
1.6125e-05
1.61343e-05
0.000179109
0.000494513
0.00681581
0.0233692
0.0562189
0.10862
0.180932
0.270252
0.371874
0.48089
0.592945
0.704203
0.811031
0.909739
0.996572
1.06793
1.12088
1.15356
1.16569
1.15777
1.12906
1.06942
0.968485
0.819889
0.625642
0.403632
0.192708
0.0473728
0.0141397
7.86143e-05
1e-05
1e-05
1e-05
1e-05
1.00001e-05
1.3335e-05
1.57244e-05
2.06001e-05
)
;
    }
}


// ************************************************************************* //
