/*--------------------------------*- C++ -*----------------------------------*\
| =========                 |                                                 |
| \\      /  F ield         | OpenFOAM: The Open Source CFD Toolbox           |
|  \\    /   O peration     | Version:  2306                                  |
|   \\  /    A nd           | Website:  www.openfoam.com                      |
|    \\/     M anipulation  |                                                 |
\*---------------------------------------------------------------------------*/
FoamFile
{
    version     2.0;
    format      ascii;
    arch        "LSB;label=32;scalar=64";
    class       volScalarField;
    location    "125";
    object      turbulenceProperties:epsilon;
}
// * * * * * * * * * * * * * * * * * * * * * * * * * * * * * * * * * * * * * //

dimensions      [0 2 -3 0 0 0 0];

internalField   nonuniform List<scalar> 
1340
(
418.366
297.619
189.945
38.8325
21.2492
17.8659
15.4995
18.33
21.6012
16.6623
12.2995
15.6959
16.975
16.1401
13.166
15.1557
4.16754
8.64438
11.0893
14.184
0.0425899
1.1884
5.23071
11.0811
0.0106393
0.0140341
0.827313
5.90176
0.00117819
0.00325862
0.0311501
1.74733
0
0.000291671
0.00303308
0.262297
0
0
0.000880518
0.0331963
1.03409e-09
0
9.86962e-05
0.00855639
4.84218e-07
4.45356e-14
2.90864e-05
0.00292091
4.39784e-06
3.11451e-09
6.47579e-07
0.00084892
4.39663e-06
1.09496e-06
4.63449e-10
0.000123022
2.9808e-06
4.37814e-06
4.54877e-12
5.81603e-06
2.26072e-06
5.16565e-06
3.05434e-11
3.91347e-18
2.12215e-06
3.79223e-06
5.43574e-07
9.41471e-11
2.15359e-06
2.58484e-06
2.4152e-06
2.61397e-08
2.1367e-06
2.01301e-06
2.8171e-06
6.12116e-07
2.0338e-06
1.79816e-06
2.32523e-06
1.58064e-06
1.8837e-06
1.69798e-06
1.83298e-06
1.89461e-06
1.7225e-06
1.60131e-06
1.52596e-06
1.73039e-06
1.56754e-06
1.48286e-06
1.34128e-06
1.45885e-06
1.42331e-06
1.34938e-06
1.20722e-06
1.22505e-06
1.28915e-06
1.21365e-06
1.08831e-06
1.04414e-06
1.1629e-06
1.08404e-06
9.73707e-07
9.00226e-07
1.04363e-06
9.64117e-07
8.63628e-07
7.79289e-07
9.31329e-07
8.54073e-07
7.60774e-07
6.74243e-07
8.26054e-07
7.53177e-07
6.66614e-07
5.81932e-07
7.28405e-07
6.61012e-07
5.81731e-07
5.01181e-07
6.38657e-07
5.77205e-07
5.0554e-07
4.30848e-07
5.56702e-07
5.01502e-07
4.3765e-07
3.69741e-07
4.82563e-07
4.33467e-07
3.77304e-07
3.16801e-07
4.55623e-07
4.15981e-07
3.72855e-07
3.23899e-07
2.70898e-07
3.90466e-07
3.56596e-07
3.19206e-07
2.76974e-07
2.31138e-07
3.3271e-07
3.04091e-07
2.71992e-07
2.35936e-07
1.96764e-07
2.81928e-07
2.57964e-07
2.30716e-07
2.00232e-07
1.67097e-07
2.37639e-07
2.17751e-07
1.94858e-07
1.69324e-07
1.41558e-07
1.99277e-07
1.82928e-07
1.63896e-07
1.42709e-07
1.19629e-07
1.66302e-07
1.52977e-07
1.37295e-07
1.19883e-07
1.00847e-07
1.38158e-07
1.27383e-07
1.1458e-07
1.00392e-07
8.48074e-08
1.14288e-07
1.05646e-07
9.52819e-08
8.38192e-08
7.11424e-08
9.4167e-08
8.72828e-08
7.89634e-08
6.97778e-08
5.95362e-08
7.73066e-08
7.18651e-08
6.52327e-08
5.793e-08
4.96976e-08
6.3253e-08
5.89824e-08
5.37346e-08
4.79697e-08
4.1389e-08
5.43324e-08
5.16028e-08
4.82686e-08
4.41444e-08
3.96245e-08
3.43922e-08
4.40967e-08
4.19875e-08
3.93995e-08
3.61779e-08
3.26574e-08
2.85171e-08
3.57053e-08
3.40841e-08
3.20864e-08
2.95831e-08
2.68578e-08
2.35953e-08
2.88529e-08
2.76112e-08
2.60761e-08
2.41411e-08
2.20433e-08
1.94832e-08
2.3274e-08
2.23272e-08
2.11537e-08
1.96654e-08
1.8058e-08
1.60567e-08
1.87483e-08
1.80276e-08
1.71331e-08
1.59933e-08
1.47679e-08
1.32089e-08
1.50836e-08
1.45374e-08
1.38587e-08
1.29889e-08
1.20582e-08
1.08466e-08
1.21246e-08
1.17107e-08
1.11964e-08
1.05348e-08
9.83074e-09
8.89184e-09
9.7384e-09
9.42552e-09
9.03686e-09
8.5347e-09
8.0035e-09
7.27707e-09
7.99861e-09
7.8179e-09
7.58112e-09
7.287e-09
6.90679e-09
6.50705e-09
5.94593e-09
6.41143e-09
6.27335e-09
6.09323e-09
5.87125e-09
5.58409e-09
5.28381e-09
4.85051e-09
5.13811e-09
5.03217e-09
4.89546e-09
4.7277e-09
4.51079e-09
4.28523e-09
3.95051e-09
4.11792e-09
4.03645e-09
3.93212e-09
3.80495e-09
3.641e-09
3.47137e-09
3.21231e-09
3.30084e-09
3.23775e-09
3.15792e-09
3.06138e-09
2.93714e-09
2.80896e-09
2.60774e-09
2.64594e-09
2.59706e-09
2.53589e-09
2.46215e-09
2.36769e-09
2.27061e-09
2.1137e-09
2.12027e-09
2.0823e-09
2.03531e-09
1.97895e-09
1.90726e-09
1.83347e-09
1.71058e-09
1.7204e-09
1.69681e-09
1.66749e-09
1.63147e-09
1.58857e-09
1.53428e-09
1.4782e-09
1.38168e-09
1.37449e-09
1.35589e-09
1.33306e-09
1.30547e-09
1.27287e-09
1.23201e-09
1.18953e-09
1.11351e-09
1.0967e-09
1.08162e-09
1.06356e-09
1.04219e-09
1.01732e-09
9.86632e-10
9.54417e-10
8.94224e-10
8.75657e-10
8.63106e-10
8.48445e-10
8.31557e-10
8.12313e-10
7.89052e-10
7.6451e-10
7.16692e-10
6.98493e-10
6.87439e-10
6.74927e-10
6.61048e-10
6.45533e-10
6.27377e-10
6.08298e-10
5.69687e-10
5.67091e-10
5.57633e-10
5.47077e-10
5.35427e-10
5.22553e-10
5.07845e-10
4.92124e-10
4.59305e-10
4.71749e-10
4.64076e-10
4.55471e-10
4.45964e-10
4.35463e-10
4.23344e-10
4.09851e-10
3.82086e-10
3.98442e-10
3.92422e-10
3.85139e-10
3.77355e-10
3.69279e-10
3.60481e-10
3.50571e-10
3.39024e-10
3.15329e-10
3.34473e-10
3.28198e-10
3.20886e-10
3.13371e-10
3.05835e-10
2.97896e-10
2.89423e-10
2.7974e-10
2.59888e-10
2.76877e-10
2.70387e-10
2.63072e-10
2.55625e-10
2.48261e-10
2.40699e-10
2.3284e-10
2.23775e-10
2.05127e-10
2.33074e-10
2.27482e-10
2.21113e-10
2.1451e-10
2.07868e-10
2.0103e-10
1.9416e-10
1.86929e-10
1.72387e-10
1.81526e-10
1.75806e-10
1.69686e-10
1.63577e-10
1.57621e-10
1.51535e-10
1.45272e-10
1.37482e-10
1.21565e-10
1.621e-10
1.57652e-10
1.52634e-10
1.47406e-10
1.42204e-10
1.37047e-10
1.32427e-10
1.28451e-10
1.19518e-10
1.05427e-10
1.00755e-10
9.59987e-11
9.12954e-11
8.674e-11
8.20154e-11
7.69033e-11
7.0032e-11
5.70701e-11
1.31942e-10
1.289e-10
1.2532e-10
1.21325e-10
1.17364e-10
1.13813e-10
1.12074e-10
1.13416e-10
1.10818e-10
7.09226e-11
6.90442e-11
6.65506e-11
6.34767e-11
6.00423e-11
5.61176e-11
5.18316e-11
4.88651e-11
4.26694e-11
2.21051e-10
2.11013e-10
2.10332e-10
2.09286e-10
2.07788e-10
2.06391e-10
2.06104e-10
2.11862e-10
2.27418e-10
2.24262e-10
2.32904e-10
2.30255e-10
2.31031e-10
2.31801e-10
2.32063e-10
2.32116e-10
2.33272e-10
2.42491e-10
2.61133e-10
2.61589e-10
7.54783e-10
5.42245e-10
5.52752e-10
5.61979e-10
5.67383e-10
5.74018e-10
5.83071e-10
6.02376e-10
6.18067e-10
4.38077e-10
48.956
7.59573
1.38093
9.59305
14.5359
14.391
10.4027
4.80055
1.08353
0.0888134
0.00602784
0.00191291
0.00071965
0.000132036
1.03817e-05
0
1.35876e-12
1.21337e-09
2.96173e-07
1.11028e-06
1.48538e-06
1.38802e-06
1.16084e-06
9.63176e-07
8.13793e-07
6.97482e-07
6.01199e-07
5.18931e-07
4.47664e-07
3.85841e-07
3.32226e-07
2.85791e-07
2.4567e-07
2.10979e-07
1.80957e-07
1.54987e-07
1.32511e-07
1.13082e-07
9.63176e-08
8.18702e-08
6.94419e-08
5.8769e-08
4.963e-08
4.18063e-08
3.51344e-08
2.9461e-08
2.46487e-08
2.05759e-08
1.71377e-08
1.42422e-08
1.18111e-08
9.77363e-09
8.07064e-09
6.64991e-09
5.4676e-09
4.48576e-09
3.67221e-09
2.99934e-09
2.44416e-09
1.98718e-09
1.61204e-09
1.30421e-09
1.05233e-09
8.45384e-10
6.77809e-10
5.38136e-10
4.31877e-10
3.582e-10
2.93869e-10
2.43143e-10
1.87652e-10
1.61194e-10
1.05049e-10
1.14827e-10
4.15735e-11
1.13063e-10
3.00305e-11
2.15385e-10
2.26297e-10
3.91391e-10
23.3418
18.4565
3.79669
0.66987
4.82926
8.09488
7.94153
5.09397
1.79122
0.217417
0.00503036
0.000230201
7.20588e-05
6.76583e-06
3.54772e-08
0
1.60513e-15
1.49011e-12
5.92202e-08
4.00651e-07
6.42363e-07
6.62417e-07
5.83122e-07
4.95705e-07
4.29634e-07
3.81121e-07
3.41008e-07
3.04322e-07
2.70171e-07
2.39043e-07
2.11114e-07
1.86142e-07
1.63805e-07
1.43799e-07
1.25915e-07
1.09988e-07
9.58263e-08
8.32761e-08
7.2184e-08
6.24057e-08
5.38095e-08
4.62739e-08
3.96901e-08
3.39405e-08
2.89418e-08
2.46119e-08
2.08719e-08
1.76509e-08
1.48849e-08
1.25164e-08
1.04958e-08
8.77636e-09
7.3178e-09
6.08414e-09
5.04388e-09
4.16947e-09
3.43668e-09
2.82432e-09
2.31418e-09
1.89058e-09
1.54006e-09
1.25032e-09
1.01192e-09
8.14952e-10
6.54863e-10
5.21064e-10
4.18141e-10
3.45907e-10
2.82789e-10
2.34614e-10
1.7969e-10
1.55507e-10
9.87348e-11
1.11116e-10
3.6517e-11
1.09968e-10
2.46014e-11
2.07341e-10
2.10327e-10
8.38293
12.7337
8.64656
1.94767
0.283621
2.94306
5.45097
5.36292
3.16305
0.903714
0.0702781
0.000587833
4.6952e-05
2.87991e-05
0
0
0
9.44333e-12
8.39938e-09
1.14444e-07
2.34725e-07
2.66561e-07
2.56402e-07
2.37495e-07
2.14949e-07
1.94695e-07
1.79442e-07
1.67376e-07
1.55955e-07
1.4403e-07
1.3181e-07
1.19869e-07
1.08541e-07
9.78577e-08
8.77944e-08
7.83736e-08
6.96272e-08
6.15947e-08
5.42681e-08
4.76301e-08
4.16495e-08
3.6293e-08
3.15196e-08
2.72741e-08
2.35203e-08
2.02177e-08
1.73232e-08
1.47962e-08
1.25972e-08
1.06902e-08
9.04328e-09
7.62524e-09
6.40893e-09
5.36882e-09
4.4826e-09
3.73037e-09
3.09406e-09
2.55771e-09
2.10724e-09
1.73024e-09
1.41601e-09
1.15447e-09
9.38124e-10
7.58329e-10
6.11531e-10
4.88367e-10
3.92659e-10
3.24977e-10
2.65595e-10
2.21832e-10
1.69422e-10
1.48131e-10
9.29998e-11
1.06659e-10
3.43013e-11
1.05908e-10
2.34425e-11
1.9999e-10
2.90341
6.19015
7.31505
4.81979
1.35126
0.0856296
1.33698
3.11151
3.43026
2.08161
0.566538
0.0353583
3.07769e-05
3.48958e-06
0
0
0
2.35546e-13
1.83528e-10
4.2989e-08
2.10346e-07
2.4847e-07
1.9772e-07
1.63548e-07
1.51217e-07
1.44864e-07
1.34329e-07
1.22003e-07
1.11394e-07
1.0274e-07
9.49018e-08
8.71325e-08
7.94339e-08
7.2051e-08
6.51173e-08
5.86313e-08
5.25633e-08
4.69215e-08
4.17131e-08
3.69428e-08
3.25993e-08
2.86679e-08
2.51243e-08
2.19383e-08
1.90897e-08
1.65547e-08
1.43088e-08
1.23277e-08
1.05848e-08
9.05699e-09
7.72369e-09
6.56359e-09
5.55847e-09
4.6902e-09
3.94314e-09
3.30311e-09
2.75682e-09
2.29242e-09
1.89931e-09
1.56771e-09
1.28929e-09
1.05594e-09
8.61832e-10
6.99574e-10
5.6639e-10
4.54142e-10
3.66045e-10
3.03606e-10
2.48486e-10
2.09148e-10
1.59536e-10
1.40971e-10
8.79967e-11
1.02402e-10
3.30592e-11
1.02061e-10
2.32012e-11
2.75302
4.77798
6.0429
5.68216
3.73644
1.38082
0.119664
0.525947
1.77135
2.38795
1.69468
0.533128
0.0362928
0.000722243
1.95909e-06
0
0
0
2.92349e-17
6.87468e-11
2.85375e-08
1.93653e-07
2.84495e-07
1.9796e-07
1.23843e-07
1.01244e-07
9.9242e-08
9.82101e-08
9.11242e-08
8.14743e-08
7.30247e-08
6.6325e-08
6.05159e-08
5.49822e-08
4.96646e-08
4.4701e-08
4.01492e-08
3.59848e-08
3.21642e-08
2.86674e-08
2.5481e-08
2.25893e-08
1.99696e-08
1.75981e-08
1.5458e-08
1.35333e-08
1.18099e-08
1.02726e-08
8.90387e-09
7.68927e-09
6.61621e-09
5.67136e-09
4.84289e-09
4.11884e-09
3.48891e-09
2.94337e-09
2.47294e-09
2.06928e-09
1.7245e-09
1.43118e-09
1.18296e-09
9.73368e-10
7.97977e-10
6.50437e-10
5.28694e-10
4.25651e-10
3.43905e-10
2.85866e-10
2.34289e-10
1.98566e-10
1.51293e-10
1.34977e-10
8.38035e-11
9.89123e-11
3.19424e-11
9.93087e-11
2.5614
3.53543
4.18493
4.299
3.70921
2.50045
1.10067
0.166958
0.184379
1.00535
1.79788
1.70737
0.855626
0.18321
0.00721309
0.000145207
2.59724e-06
0
0
0
5.16843e-15
1.07918e-10
3.39617e-08
1.4699e-07
1.76406e-07
1.10077e-07
6.75343e-08
5.76396e-08
5.86455e-08
5.86075e-08
5.43846e-08
4.86273e-08
4.37137e-08
3.98614e-08
3.64664e-08
3.31837e-08
3.00286e-08
2.70996e-08
2.44191e-08
2.19637e-08
1.97112e-08
1.76479e-08
1.57611e-08
1.40359e-08
1.24595e-08
1.10232e-08
9.71999e-09
8.54183e-09
7.47826e-09
6.52107e-09
5.66366e-09
4.89853e-09
4.21886e-09
3.6173e-09
3.08766e-09
2.62363e-09
2.21916e-09
1.86861e-09
1.56639e-09
1.30708e-09
1.08575e-09
8.97525e-10
7.38988e-10
6.04821e-10
4.93554e-10
3.98948e-10
3.23111e-10
2.6915e-10
2.20807e-10
1.88348e-10
1.43345e-10
1.29133e-10
7.96801e-11
9.55129e-11
1.76618
2.38322
2.88571
3.14953
3.05782
2.56598
1.75019
0.836095
0.166297
0.0502344
0.532968
1.23935
1.54388
1.15282
0.48535
0.0943653
0.00425992
7.77365e-05
2.42798e-06
0
0
0
8.39112e-15
6.89457e-11
1.98195e-08
8.28292e-08
9.33851e-08
5.88571e-08
3.75587e-08
3.35086e-08
3.45881e-08
3.43996e-08
3.189e-08
2.87188e-08
2.60958e-08
2.40139e-08
2.211e-08
2.02381e-08
1.84376e-08
1.67601e-08
1.52094e-08
1.37716e-08
1.24363e-08
1.1196e-08
1.00442e-08
8.97847e-09
7.99677e-09
7.09612e-09
6.27142e-09
5.5186e-09
4.83489e-09
4.21665e-09
3.66062e-09
3.16257e-09
2.71899e-09
2.32596e-09
1.97997e-09
1.67714e-09
1.41385e-09
1.18586e-09
9.89838e-10
8.21902e-10
6.79586e-10
5.58443e-10
4.57483e-10
3.7128e-10
3.01495e-10
2.51731e-10
2.06688e-10
1.7748e-10
1.34947e-10
1.22849e-10
0.891807
1.3802
1.90748
2.35802
2.61396
2.57934
2.21728
1.58373
0.842531
0.236772
0.00400113
0.241213
0.787793
1.2452
1.24344
0.796411
0.298395
0.0518101
0.00197837
2.30048e-05
1.2033e-06
0
0
0
6.64492e-15
5.15489e-11
1.51141e-08
5.24213e-08
5.51341e-08
3.49625e-08
2.32825e-08
2.14202e-08
2.21332e-08
2.1727e-08
2.00279e-08
1.81408e-08
1.66274e-08
1.53836e-08
1.42039e-08
1.30433e-08
1.1936e-08
1.09016e-08
9.93493e-09
9.02623e-09
8.17024e-09
7.36694e-09
6.61688e-09
5.92007e-09
5.27416e-09
4.67727e-09
4.12856e-09
3.6267e-09
3.17052e-09
2.75757e-09
2.386e-09
2.05363e-09
1.75822e-09
1.49762e-09
1.26907e-09
1.06961e-09
8.96884e-10
7.47916e-10
6.20912e-10
5.12248e-10
4.21254e-10
3.43259e-10
2.79535e-10
2.34006e-10
1.92289e-10
0.287692
0.57666
0.985814
1.46017
1.91548
2.24337
2.33954
2.14208
1.66685
1.02593
0.412924
0.0442726
0.0597134
0.423406
0.894302
1.14089
0.9816
0.553592
0.180581
0.0254494
0.000558594
4.13877e-06
1.89759e-07
0
0
0
1.44927e-13
4.86716e-12
1.41721e-08
3.93082e-08
3.37486e-08
2.09019e-08
1.53086e-08
1.48713e-08
1.5329e-08
1.47516e-08
1.34744e-08
1.22567e-08
1.12967e-08
1.04612e-08
9.64944e-09
8.86117e-09
8.11616e-09
7.41611e-09
6.75416e-09
6.12772e-09
5.53749e-09
4.98475e-09
4.46814e-09
3.98664e-09
3.54009e-09
3.12805e-09
2.75034e-09
2.40582e-09
2.09302e-09
1.811e-09
1.55844e-09
1.33401e-09
1.13572e-09
9.61523e-10
8.09636e-10
6.77889e-10
5.64904e-10
4.67797e-10
3.8612e-10
3.1592e-10
0.0413248
0.135399
0.327893
0.630919
1.02747
1.46109
1.84238
2.06792
2.05264
1.76521
1.25722
0.668196
0.191708
0.00059651
0.153764
0.537794
0.898948
0.989196
0.749957
0.368514
0.0994995
0.010103
5.39008e-05
1.41465e-06
0
0
0
2.36926e-18
1.12887e-12
1.50821e-10
1.39981e-08
3.06249e-08
2.22778e-08
1.34875e-08
1.09176e-08
1.10645e-08
1.11706e-08
1.0475e-08
9.50414e-09
8.68491e-09
8.02028e-09
7.40597e-09
6.80802e-09
6.23629e-09
5.69614e-09
5.18563e-09
4.7034e-09
4.25008e-09
3.82488e-09
3.42696e-09
3.056e-09
2.71186e-09
2.39505e-09
2.10412e-09
1.83859e-09
1.59754e-09
1.38073e-09
1.1867e-09
1.01454e-09
8.62106e-10
7.28765e-10
6.12311e-10
0.000758346
0.00941636
0.0496631
0.154324
0.351811
0.648764
1.01918
1.40182
1.70978
1.85071
1.75873
1.42707
0.931139
0.420906
0.074148
0.0156841
0.240826
0.594408
0.841407
0.814151
0.540416
0.223826
0.0460861
0.00286078
1.76133e-05
3.3039e-07
0
0
0
9.76212e-17
6.93583e-12
1.80605e-09
1.59768e-08
2.2071e-08
1.45571e-08
9.42514e-09
8.4402e-09
8.63614e-09
8.38913e-09
7.67216e-09
6.94559e-09
6.36235e-09
5.85732e-09
5.37611e-09
4.91341e-09
4.47549e-09
4.06362e-09
3.67741e-09
3.31541e-09
2.97668e-09
2.66081e-09
2.36737e-09
2.09642e-09
1.84717e-09
1.61887e-09
1.41111e-09
1.22357e-09
0.000206291
0.000123691
0.00102881
0.0120879
0.0562729
0.164444
0.359205
0.639898
0.975172
1.30345
1.54351
1.61515
1.47027
1.12271
0.663758
0.244076
0.0165031
0.0577355
0.313174
0.608573
0.744508
0.630243
0.357071
0.11839
0.0166209
0.000397468
3.14513e-08
5.69414e-09
0
0
0
3.10725e-14
1.07883e-12
6.2063e-09
1.77495e-08
1.52473e-08
9.36828e-09
7.04698e-09
6.87687e-09
6.86287e-09
6.38187e-09
5.74167e-09
5.19894e-09
4.75118e-09
4.34043e-09
3.9487e-09
3.57948e-09
3.23544e-09
2.91527e-09
2.61752e-09
3.06e-06
5.15818e-05
0.000103132
4.99216e-05
0.00152499
0.0141499
0.0603526
0.168127
0.354934
0.614657
0.91289
1.1892
1.36862
1.38283
1.20061
0.854053
0.445956
0.120648
0.000152068
0.113897
0.368282
0.587423
0.620295
0.449786
0.208316
0.0507784
0.00424113
4.72551e-06
2.53535e-07
0
0
0
9.42607e-19
2.07152e-12
4.4917e-10
1.00882e-08
1.55315e-08
1.02876e-08
)
;

boundaryField
{
    inlet
    {
        type            calculated;
        value           nonuniform List<scalar> 
11
(
1.37473e-08
1.22771e-08
1.27971e-08
1.32777e-08
1.36994e-08
1.4068e-08
1.44092e-08
1.47514e-08
1.51778e-08
1.38975e-08
1.52506e-08
)
;
    }
    outlet
    {
        type            calculated;
        value           nonuniform List<scalar> 0();
    }
    walls
    {
        type            calculated;
        value           uniform 0;
    }
    frontAndBack
    {
        type            empty;
    }
    procBoundary6to2
    {
        type            processor;
        value           nonuniform List<scalar> 
13
(
33.756
9.77876
2.69161
0.62028
0.914243
1.37352
1.05538
0.467989
0.109405
0.00747388
0.000182514
6.86609e-05
9.62753e-07
)
;
    }
    procBoundary6to3
    {
        type            processor;
        value           uniform 8.66315e-13;
    }
    procBoundary6to5
    {
        type            processor;
        value           nonuniform List<scalar> 
86
(
522.074
26.889
28.5387
15.0795
0.976916
0.0236651
0.00895253
0
0
9.40205e-10
5.25272e-07
3.95186e-06
3.79971e-06
2.92903e-06
2.72091e-06
2.72714e-06
2.64731e-06
2.47808e-06
2.29108e-06
2.11875e-06
1.96232e-06
1.81525e-06
1.6725e-06
1.53227e-06
1.39508e-06
1.26224e-06
1.13498e-06
1.01447e-06
9.01328e-07
7.95945e-07
6.98598e-07
6.09477e-07
5.28542e-07
5.28542e-07
4.93544e-07
4.2216e-07
3.58992e-07
3.03562e-07
2.55292e-07
2.13584e-07
1.7781e-07
1.4735e-07
1.21584e-07
9.99234e-08
8.18192e-08
6.67727e-08
6.67727e-08
5.6458e-08
4.57257e-08
3.69506e-08
2.9801e-08
2.39955e-08
1.92957e-08
1.55e-08
1.24396e-08
9.97718e-09
9.97718e-09
8.13253e-09
6.51342e-09
5.21718e-09
4.17951e-09
3.3492e-09
2.68398e-09
2.15016e-09
2.15016e-09
1.7385e-09
1.38921e-09
1.10891e-09
8.86196e-10
7.08042e-10
5.74963e-10
4.7785e-10
4.7785e-10
4.03636e-10
3.4011e-10
2.82812e-10
2.38284e-10
1.86933e-10
1.66855e-10
1.09424e-10
1.37305e-10
7.03031e-11
7.03031e-11
1.91176e-10
2.35237e-10
4.40059e-10
)
;
    }
    procBoundary6to7
    {
        type            processor;
        value           nonuniform List<scalar> 
91
(
3.99616e-10
3.99616e-10
1.94825e-10
1.94825e-10
1.92736e-10
1.92736e-10
2.29488e-11
3.06356e-11
2.29488e-11
9.69042e-11
7.5283e-11
3.06356e-11
9.18466e-11
1.66247e-10
1.26343e-10
7.5283e-11
1.16288e-10
2.58039e-10
2.16611e-10
1.66247e-10
1.78113e-10
5.12035e-10
4.25445e-10
3.52421e-10
2.58039e-10
2.8948e-10
1.05503e-09
9.04667e-10
7.7129e-10
6.54e-10
5.12035e-10
5.51184e-10
2.34065e-09
2.08385e-09
1.84716e-09
1.62981e-09
1.43052e-09
1.24945e-09
1.05503e-09
1.08543e-09
6.5261e-09
5.67366e-09
5.66897e-09
5.39043e-09
4.85402e-09
4.34476e-09
3.92887e-09
3.56197e-09
3.21899e-09
2.89926e-09
2.60463e-09
2.34065e-09
2.33322e-09
6.96189e-07
1.97655e-06
2.46606e-05
4.0549e-05
5.21283e-05
0.00198605
0.0153763
0.0613265
0.165093
0.340348
0.57744
0.840171
1.06969
1.19687
1.16465
0.957617
0.624406
0.275398
0.0432222
0.0151969
0.176136
0.404122
0.537232
0.482972
0.289712
0.102584
0.0160331
0.000514881
5.69069e-07
2.71513e-09
0
0
0
3.60464e-15
3.59178e-14
4.12758e-09
6.5261e-09
1.27065e-08
)
;
    }
}


// ************************************************************************* //
