/*--------------------------------*- C++ -*----------------------------------*\
| =========                 |                                                 |
| \\      /  F ield         | OpenFOAM: The Open Source CFD Toolbox           |
|  \\    /   O peration     | Version:  2306                                  |
|   \\  /    A nd           | Website:  www.openfoam.com                      |
|    \\/     M anipulation  |                                                 |
\*---------------------------------------------------------------------------*/
FoamFile
{
    version     2.0;
    format      ascii;
    arch        "LSB;label=32;scalar=64";
    class       volSymmTensorField;
    location    "125";
    object      turbulenceProperties:devReff;
}
// * * * * * * * * * * * * * * * * * * * * * * * * * * * * * * * * * * * * * //

dimensions      [0 2 -2 0 0 0 0];

internalField   nonuniform List<symmTensor> 
1340
(
(-2.76537 -8.20574 1.37431e-15 2.75087 1.08869e-15 0.0144941)
(-2.39299 -6.5322 -1.03989e-16 2.37833 -5.0176e-16 0.0146612)
(-1.86895 -4.86328 -1.75912e-15 1.86461 1.46213e-16 0.00434171)
(-0.86402 -1.73008 -3.41388e-16 0.869406 -3.45063e-15 -0.00538578)
(-0.642468 -2.28589 3.19109e-15 0.665411 -4.36685e-15 -0.0229426)
(-0.609955 -2.05767 -1.43564e-15 0.625323 1.30448e-15 -0.0153683)
(-0.496866 -1.88621 3.0823e-15 0.527625 -4.0623e-17 -0.0307592)
(-0.679476 -2.03627 5.71481e-15 0.595504 8.25354e-15 0.0839723)
(-0.614419 -2.57916 -1.2035e-14 0.613873 6.58968e-16 0.000546034)
(-0.57257 -2.28178 4.22413e-15 0.57137 -1.41579e-15 0.00120023)
(-0.39177 -1.97073 4.56092e-15 0.401771 -1.11426e-15 -0.010001)
(-0.632983 -2.2453 -9.58697e-15 0.621458 2.87673e-15 0.0115249)
(-0.445728 -2.23776 3.61153e-15 0.443051 3.47762e-15 0.00267708)
(-0.506911 -2.30552 -7.89709e-15 0.502436 -3.8125e-17 0.00447535)
(-0.388622 -2.16885 -1.06744e-14 0.394184 1.63754e-15 -0.00556196)
(-0.560191 -2.40632 7.99095e-15 0.538705 -3.31346e-15 0.0214855)
(-0.111809 -0.910923 -5.25804e-16 0.113144 2.72936e-16 -0.0013345)
(-0.264124 -1.54988 -1.03061e-15 0.262507 2.71353e-15 0.00161654)
(-0.298876 -1.96523 6.00104e-16 0.305446 4.89827e-17 -0.00657027)
(-0.489311 -2.39216 -1.39179e-14 0.460955 3.80261e-15 0.0283556)
(0.027091 -0.0473449 1.01112e-15 -0.0267808 -6.30939e-16 -0.000310201)
(-0.0170584 -0.442576 5.23136e-15 0.0166172 -8.44951e-16 0.000441188)
(-0.112208 -1.2158 4.05659e-16 0.117946 -7.06689e-17 -0.00573783)
(-0.370116 -2.06135 2.76163e-15 0.344819 -3.14972e-15 0.0252974)
(0.00458809 0.00660318 -1.67033e-16 -0.0045884 4.21992e-17 3.1238e-07)
(0.0255262 -0.0016075 -3.95032e-16 -0.0258915 -2.56884e-16 0.000365227)
(0.0296974 -0.374064 6.30139e-16 -0.0269798 -1.29265e-16 -0.00271763)
(-0.194595 -1.37478 2.13112e-15 0.175051 -6.85922e-16 0.0195441)
(0.000944606 0.000943998 4.33797e-17 -0.000941211 1.86291e-18 -3.39529e-06)
(0.00200676 0.00238017 -3.40452e-17 -0.00203061 1.2075e-17 2.38441e-05)
(0.0389109 -0.024402 -6.52361e-16 -0.0380658 1.13159e-16 -0.000845097)
(-0.0419893 -0.62709 5.53142e-15 0.0281519 -1.74353e-16 0.0138374)
(9.61823e-06 -1.26502e-06 -2.13504e-19 -9.57079e-06 -9.61956e-20 -4.74362e-08)
(0.000420662 0.000251188 7.54337e-18 -0.000426512 -5.8595e-19 5.85041e-06)
(0.00350086 0.00192326 1.51061e-16 -0.00342748 -1.8765e-17 -7.33843e-05)
(0.0201293 -0.179218 -2.0846e-15 -0.0282066 8.27801e-16 0.00807729)
(8.83133e-06 -4.62069e-06 1.00848e-19 -8.78613e-06 5.03027e-20 -4.52019e-08)
(7.94284e-06 -4.12441e-06 -1.69361e-19 -8.06036e-06 2.44681e-20 1.17519e-07)
(0.00135589 0.00055639 -2.229e-17 -0.00132049 1.40679e-18 -3.54026e-05)
(0.020184 -0.0372687 -1.32328e-15 -0.0238218 1.89345e-17 0.00363784)
(8.92389e-06 -2.91376e-06 6.8056e-20 -8.88297e-06 -1.01217e-20 -4.09253e-08)
(7.6235e-06 -6.5347e-06 2.29508e-19 -7.71573e-06 1.48888e-20 9.22342e-08)
(0.000220867 -4.89208e-05 -1.66554e-18 -0.00021451 2.99001e-19 -6.35771e-06)
(0.00927478 -0.00973531 1.85445e-16 -0.0105905 -1.04581e-16 0.00131576)
(9.84883e-06 -1.58118e-06 8.78209e-20 -9.81049e-06 -8.96033e-20 -3.83384e-08)
(8.00677e-06 -5.00444e-06 1.43327e-19 -8.09807e-06 -4.4297e-20 9.12983e-08)
(5.29165e-05 -3.68645e-05 2.89135e-19 -5.14317e-05 -4.62625e-20 -1.48481e-06)
(0.00300741 -0.00358634 1.78701e-16 -0.00341143 -8.70672e-19 0.000404015)
(1.65428e-05 -2.04424e-06 -6.2867e-19 -1.64828e-05 1.74534e-19 -6.0059e-08)
(8.16993e-06 -3.47863e-06 -9.35356e-21 -8.26545e-06 -4.1079e-20 9.55265e-08)
(8.4733e-06 -6.55119e-06 -2.08883e-19 -8.25445e-06 1.75067e-20 -2.1885e-07)
(0.000760221 -0.00113906 -5.60638e-17 -0.000859055 5.44984e-18 9.88343e-05)
(1.64943e-05 -2.26097e-06 8.85818e-19 -1.64371e-05 -7.26656e-20 -5.71899e-08)
(9.98323e-06 -3.61567e-06 -2.99608e-19 -1.00952e-05 4.74524e-20 1.12012e-07)
(7.40709e-06 -5.09777e-06 -7.57935e-20 -7.23898e-06 1.84235e-20 -1.68117e-07)
(0.000109227 -0.000182535 1.01543e-17 -0.000122327 -9.40164e-19 1.31008e-05)
(1.38421e-05 -2.03511e-06 -5.96963e-19 -1.3798e-05 -6.06096e-20 -4.41537e-08)
(1.54887e-05 -5.70145e-06 2.43203e-19 -1.56469e-05 2.1697e-20 1.58134e-07)
(7.20725e-06 -4.50371e-06 3.25612e-19 -7.06479e-06 -3.67581e-20 -1.42455e-07)
(9.68876e-06 -1.62904e-05 -1.06097e-18 -1.07374e-05 1.24172e-19 1.04867e-06)
(1.24226e-05 -1.79792e-06 6.43354e-20 -1.23872e-05 8.73564e-20 -3.53912e-08)
(1.68796e-05 -6.47568e-06 -3.20722e-20 -1.70358e-05 -2.8507e-20 1.56275e-07)
(6.91629e-06 -4.23861e-06 -3.36458e-19 -6.79552e-06 2.08649e-20 -1.20773e-07)
(5.18881e-06 -8.42558e-06 1.60466e-19 -5.69459e-06 -3.80062e-20 5.05783e-07)
(1.2056e-05 -1.65425e-06 1.06968e-19 -1.2025e-05 -8.24225e-21 -3.10084e-08)
(1.43323e-05 -5.56249e-06 -8.32822e-20 -1.44543e-05 3.09805e-21 1.22043e-07)
(7.61726e-06 -4.77881e-06 2.18337e-20 -7.5004e-06 1.42225e-20 -1.16855e-07)
(4.90972e-06 -7.69712e-06 -1.17491e-19 -5.33842e-06 8.95787e-21 4.28701e-07)
(1.20117e-05 -1.55474e-06 3.5618e-20 -1.19842e-05 -4.91014e-20 -2.74815e-08)
(1.20419e-05 -4.61604e-06 -6.21653e-20 -1.21358e-05 2.35128e-20 9.39187e-08)
(1.05957e-05 -6.83009e-06 4.38027e-19 -1.04528e-05 -2.36609e-20 -1.42937e-07)
(4.67391e-06 -7.15032e-06 1.52964e-19 -5.03497e-06 -2.13145e-20 3.61065e-07)
(1.18765e-05 -1.45015e-06 -2.87625e-19 -1.18528e-05 1.74312e-20 -2.37013e-08)
(1.08777e-05 -4.07807e-06 1.47652e-19 -1.09544e-05 -8.09543e-21 7.66329e-08)
(1.1197e-05 -7.33372e-06 3.00184e-19 -1.10667e-05 -3.14052e-20 -1.30266e-07)
(5.08547e-06 -7.63909e-06 4.60258e-19 -5.42989e-06 -1.76815e-20 3.44416e-07)
(1.15623e-05 -1.32477e-06 3.00796e-20 -1.15425e-05 2.92016e-20 -1.98013e-08)
(1.03639e-05 -3.79102e-06 -3.5139e-20 -1.04294e-05 -1.68762e-20 6.55033e-08)
(1.02045e-05 -6.71757e-06 -8.83136e-20 -1.01045e-05 -1.38706e-20 -9.99659e-08)
(6.00714e-06 -8.85895e-06 -4.21333e-20 -6.36124e-06 1.89994e-20 3.54107e-07)
(1.11359e-05 -1.18408e-06 -9.45886e-21 -1.11195e-05 -1.80749e-20 -1.63972e-08)
(1.00664e-05 -3.58755e-06 -1.30272e-19 -1.01225e-05 1.95147e-20 5.6099e-08)
(9.17339e-06 -6.02214e-06 -4.21875e-19 -9.09807e-06 2.83902e-20 -7.53239e-08)
(6.34088e-06 -9.14454e-06 -2.77962e-19 -6.66535e-06 1.20075e-20 3.24475e-07)
(1.06676e-05 -1.03754e-06 -1.45064e-19 -1.06545e-05 3.39349e-20 -1.30492e-08)
(9.76939e-06 -3.38363e-06 1.37021e-19 -9.81706e-06 -7.23884e-21 4.76696e-08)
(8.4673e-06 -5.51411e-06 1.10204e-19 -8.40914e-06 2.48731e-21 -5.81572e-08)
(6.13501e-06 -8.61809e-06 -1.54245e-19 -6.4055e-06 8.38996e-22 2.70485e-07)
(1.01943e-05 -8.90311e-07 2.87169e-19 -1.01842e-05 -2.27261e-21 -1.00928e-08)
(9.41478e-06 -3.15689e-06 -1.38531e-19 -9.45514e-06 2.91133e-21 4.03556e-08)
(7.99172e-06 -5.13779e-06 -9.34214e-20 -7.94698e-06 4.15858e-21 -4.47413e-08)
(5.76977e-06 -7.86017e-06 3.28969e-19 -5.98783e-06 -1.08468e-20 2.18064e-07)
(9.72748e-06 -7.43488e-07 -4.09862e-20 -9.7196e-06 -2.79706e-20 -7.88569e-09)
(9.01043e-06 -2.912e-06 7.29805e-20 -9.04399e-06 -6.1462e-21 3.35579e-08)
(7.61529e-06 -4.81119e-06 1.29945e-19 -7.58123e-06 -9.06762e-21 -3.40575e-08)
(5.42717e-06 -7.14773e-06 -2.11339e-19 -5.60056e-06 8.75949e-21 1.73391e-07)
(9.26668e-06 -5.98102e-07 -4.57141e-20 -9.26111e-06 -1.50589e-21 -5.57737e-09)
(8.58244e-06 -2.65793e-06 -1.87744e-19 -8.60988e-06 7.57241e-21 2.7439e-08)
(7.26684e-06 -4.48778e-06 -2.16642e-19 -7.24149e-06 1.25997e-20 -2.53429e-08)
(5.14261e-06 -6.52386e-06 2.39203e-19 -5.27988e-06 -5.76521e-21 1.37268e-07)
(8.80755e-06 -4.55076e-07 -8.72564e-20 -8.80378e-06 1.19573e-20 -3.77505e-09)
(8.14975e-06 -2.40387e-06 9.74585e-20 -8.17176e-06 2.13425e-20 2.20117e-08)
(6.91945e-06 -4.15505e-06 3.27789e-19 -6.90081e-06 -4.85323e-22 -1.86402e-08)
(4.90022e-06 -5.96737e-06 -2.33967e-19 -5.00858e-06 4.92249e-21 1.08358e-07)
(8.34832e-06 -3.14955e-07 9.11641e-20 -8.34591e-06 8.59855e-21 -2.40405e-09)
(7.72261e-06 -2.15375e-06 2.77139e-19 -7.74038e-06 -1.81391e-20 1.777e-08)
(6.57145e-06 -3.81451e-06 2.08056e-20 -6.55813e-06 -6.96747e-21 -1.33225e-08)
(4.68204e-06 -5.45254e-06 1.26915e-19 -4.76777e-06 -2.65828e-21 8.57363e-08)
(7.88936e-06 -1.8064e-07 7.55805e-20 -7.88851e-06 -1.47996e-20 -8.44694e-10)
(7.30249e-06 -1.91136e-06 -1.60015e-19 -7.31693e-06 -1.59325e-20 1.44387e-08)
(6.22705e-06 -3.47503e-06 3.95558e-20 -6.21803e-06 -6.7357e-21 -9.01203e-09)
(4.4769e-06 -4.96707e-06 -2.40514e-19 -4.54491e-06 2.03745e-21 6.80088e-08)
(7.43189e-06 -5.17808e-08 -1.3464e-19 -7.43177e-06 5.70594e-21 -1.23378e-10)
(6.88951e-06 -1.67576e-06 -1.07815e-19 -6.90084e-06 1.38812e-20 1.13315e-08)
(5.89037e-06 -3.14136e-06 -2.09501e-19 -5.88419e-06 3.657e-21 -6.18153e-09)
(4.27951e-06 -4.50661e-06 1.55755e-19 -4.33304e-06 -3.18265e-21 5.35288e-08)
(6.97886e-06 7.0138e-08 1.50584e-19 -6.97923e-06 -2.30515e-21 3.68271e-10)
(6.48349e-06 -1.44998e-06 1.19526e-19 -6.4924e-06 -3.30223e-21 8.91421e-09)
(5.56327e-06 -2.81855e-06 1.02162e-19 -5.55939e-06 -1.60206e-21 -3.87402e-09)
(4.08906e-06 -4.07108e-06 -3.49154e-19 -4.1316e-06 3.80452e-21 4.25375e-08)
(6.53267e-06 1.83771e-07 -1.7903e-19 -6.53371e-06 -4.67665e-21 1.04615e-09)
(6.08552e-06 -1.23338e-06 -1.80305e-19 -6.09247e-06 -1.04604e-21 6.94682e-09)
(5.2454e-06 -2.50802e-06 -2.6445e-19 -5.24272e-06 -3.32349e-22 -2.67813e-09)
(3.90407e-06 -3.66152e-06 5.55595e-19 -3.93782e-06 6.20362e-21 3.37555e-08)
(6.09503e-06 2.88462e-07 8.87329e-20 -6.09627e-06 1.26918e-20 1.24209e-09)
(5.69643e-06 -1.02854e-06 1.22256e-19 -5.70207e-06 1.68062e-21 5.63849e-09)
(4.93704e-06 -2.21161e-06 1.54633e-19 -4.93557e-06 1.10697e-20 -1.47219e-09)
(3.72411e-06 -3.27674e-06 -2.2265e-19 -3.75092e-06 -8.21243e-21 2.68032e-08)
(5.66828e-06 3.8372e-07 4.69184e-20 -5.66977e-06 -6.72358e-21 1.48433e-09)
(5.31717e-06 -8.35755e-07 -1.66085e-19 -5.32142e-06 -5.49152e-21 4.24981e-09)
(4.63711e-06 -1.93109e-06 6.12347e-20 -4.63631e-06 -1.08189e-20 -7.99446e-10)
(3.54805e-06 -2.917e-06 9.35322e-20 -3.56959e-06 4.09725e-21 2.15383e-08)
(5.29225e-06 1.57231e-06 -1.82349e-19 -5.29471e-06 8.2087e-21 2.4575e-09)
(5.25413e-06 4.68753e-07 -7.4552e-20 -5.25577e-06 -8.26928e-21 1.64226e-09)
(4.94936e-06 -6.55862e-07 5.31721e-20 -4.9527e-06 1.45641e-20 3.33243e-09)
(4.34568e-06 -1.66683e-06 -2.53236e-19 -4.34511e-06 -2.11741e-21 -5.65877e-10)
(3.37474e-06 -2.58133e-06 -6.43849e-20 -3.39187e-06 1.29589e-22 1.71222e-08)
(4.86866e-06 1.55569e-06 2.04329e-19 -4.87098e-06 1.36423e-20 2.3213e-09)
(4.85399e-06 5.43026e-07 -8.23978e-20 -4.85554e-06 4.51007e-21 1.54965e-09)
(4.5939e-06 -4.90235e-07 2.13742e-19 -4.59665e-06 1.38725e-21 2.75571e-09)
(4.06323e-06 -1.42019e-06 1.69697e-19 -4.06294e-06 1.11896e-20 -2.8976e-10)
(3.20372e-06 -2.26886e-06 1.94137e-19 -3.2173e-06 6.36942e-21 1.35802e-08)
(4.46327e-06 1.5303e-06 -5.08827e-20 -4.46535e-06 -1.01158e-20 2.07607e-09)
(4.46972e-06 6.05894e-07 9.58158e-20 -4.47126e-06 5.96722e-21 1.53395e-09)
(4.25156e-06 -3.39297e-07 -5.74255e-20 -4.2538e-06 -1.27732e-20 2.24349e-09)
(3.78978e-06 -1.19207e-06 -4.56818e-21 -3.78969e-06 -6.78702e-21 -8.56694e-11)
(3.03457e-06 -1.97935e-06 -7.77081e-20 -3.04531e-06 -9.09468e-21 1.07381e-08)
(4.07751e-06 1.49696e-06 2.96874e-20 -4.07935e-06 -2.83905e-22 1.83881e-09)
(4.10229e-06 6.5749e-07 -1.31498e-20 -4.10378e-06 -3.00528e-21 1.48723e-09)
(3.92325e-06 -2.03499e-07 -1.42102e-19 -3.92506e-06 1.11965e-21 1.80254e-09)
(3.52569e-06 -9.82933e-07 -9.05526e-20 -3.52569e-06 -6.36013e-21 -5.15327e-12)
(2.86714e-06 -1.71249e-06 -2.06476e-19 -2.87545e-06 -5.6053e-21 8.30331e-09)
(3.71258e-06 1.4565e-06 -9.52214e-20 -3.71428e-06 -1.15189e-21 1.69757e-09)
(3.75292e-06 6.98291e-07 1.91442e-20 -3.75428e-06 -6.91976e-22 1.35753e-09)
(3.60972e-06 -8.27859e-08 1.41284e-19 -3.61121e-06 6.48333e-21 1.48941e-09)
(3.27132e-06 -7.929e-07 -1.18692e-19 -3.27136e-06 -3.64524e-21 3.67333e-11)
(2.70163e-06 -1.46777e-06 7.21627e-20 -2.70793e-06 5.70014e-21 6.29949e-09)
(3.36919e-06 1.40965e-06 1.41385e-19 -3.37075e-06 1.34443e-20 1.56049e-09)
(3.42233e-06 7.28323e-07 -3.53641e-20 -3.42363e-06 1.39107e-21 1.2999e-09)
(3.31155e-06 2.28944e-08 -1.39035e-19 -3.31286e-06 -7.85074e-21 1.30507e-09)
(3.02716e-06 -6.21791e-07 -2.80932e-20 -3.02728e-06 6.35048e-21 1.13134e-10)
(2.53836e-06 -1.24482e-06 -1.85173e-20 -2.54292e-06 -8.93204e-22 4.56094e-09)
(3.04791e-06 1.35748e-06 6.99268e-20 -3.04929e-06 -2.61307e-21 1.38405e-09)
(3.11117e-06 7.48298e-07 9.58654e-20 -3.11234e-06 6.60342e-21 1.17003e-09)
(3.02907e-06 1.13905e-07 1.10842e-19 -3.03017e-06 7.87022e-21 1.09245e-09)
(2.79343e-06 -4.69318e-07 2.6079e-19 -2.79363e-06 1.13987e-20 1.92013e-10)
(2.37779e-06 -1.04279e-06 8.89067e-20 -2.38091e-06 6.44515e-21 3.11708e-09)
(2.7489e-06 1.30112e-06 -5.63834e-20 -2.75016e-06 -7.54573e-21 1.26607e-09)
(2.81971e-06 7.59048e-07 5.63849e-21 -2.82083e-06 -5.7527e-21 1.12531e-09)
(2.76273e-06 1.90974e-07 -5.63042e-20 -2.76365e-06 -6.00793e-21 9.17115e-10)
(2.57053e-06 -3.34852e-07 -1.06253e-19 -2.57076e-06 -1.3323e-20 2.2975e-10)
(2.22039e-06 -8.61324e-07 6.19566e-20 -2.22224e-06 1.94071e-21 1.85091e-09)
(2.47194e-06 1.24159e-06 -7.56446e-20 -2.47305e-06 -2.58616e-21 1.10974e-09)
(2.54806e-06 7.61546e-07 -1.41714e-19 -2.54908e-06 -7.62301e-21 1.01859e-09)
(2.51262e-06 2.54883e-07 -2.12792e-20 -2.51342e-06 1.7961e-21 8.07236e-10)
(2.35872e-06 -2.17465e-07 -8.72048e-20 -2.35904e-06 -3.27625e-21 3.17337e-10)
(2.06684e-06 -6.99024e-07 -2.60461e-21 -2.06765e-06 -3.7733e-21 8.09937e-10)
(2.21666e-06 1.17984e-06 8.57767e-21 -2.2176e-06 5.28375e-21 9.45013e-10)
(2.29595e-06 7.56577e-07 6.98058e-20 -2.29686e-06 6.91969e-21 9.03925e-10)
(2.27869e-06 3.06685e-07 9.0566e-20 -2.27938e-06 5.04015e-21 6.8553e-10)
(2.15819e-06 -1.16121e-07 -1.08981e-20 -2.15856e-06 2.8115e-21 3.67006e-10)
(1.91768e-06 -5.55293e-07 -1.51921e-19 -1.91763e-06 -7.26098e-21 -4.53537e-11)
(1.9826e-06 1.11643e-06 1.23489e-19 -1.9834e-06 9.62503e-21 8.03373e-10)
(2.06326e-06 7.4498e-07 -5.26686e-20 -2.06406e-06 -6.73727e-21 7.96454e-10)
(2.06087e-06 3.47169e-07 -7.37703e-20 -2.06147e-06 -7.65959e-21 5.97842e-10)
(1.96911e-06 -2.98043e-08 7.35338e-20 -1.96958e-06 3.3279e-21 4.66268e-10)
(1.77345e-06 -4.2868e-07 1.5319e-19 -1.77266e-06 1.25903e-20 -7.94389e-10)
(1.76893e-06 1.05223e-06 -2.18848e-21 -1.76965e-06 -2.45082e-21 7.1758e-10)
(1.84942e-06 7.27549e-07 -8.92674e-20 -1.85019e-06 -5.18227e-21 7.65436e-10)
(1.859e-06 3.77284e-07 -2.04063e-20 -1.85952e-06 -2.00902e-21 5.16679e-10)
(1.79158e-06 4.25411e-08 -6.47263e-20 -1.79214e-06 -4.6573e-21 5.57844e-10)
(1.63477e-06 -3.18288e-07 -7.02859e-21 -1.63338e-06 -5.04434e-21 -1.39265e-09)
(1.44743e-06 1.2428e-06 -6.1561e-22 -1.44803e-06 -5.82545e-22 5.91404e-10)
(1.57477e-06 9.88154e-07 1.8223e-20 -1.57539e-06 1.13023e-21 6.17877e-10)
(1.65376e-06 7.0542e-07 2.67608e-20 -1.65444e-06 3.73355e-21 6.77614e-10)
(1.67268e-06 3.98133e-07 -1.0353e-19 -1.67311e-06 -5.50669e-21 4.37152e-10)
(1.62558e-06 1.02025e-07 8.91692e-20 -1.6262e-06 7.47536e-21 6.20563e-10)
(1.50209e-06 -2.23056e-07 -1.49093e-19 -1.50023e-06 -8.99526e-21 -1.86585e-09)
(1.28194e-06 1.14489e-06 -1.77212e-20 -1.28248e-06 -1.48472e-21 5.33483e-10)
(1.39893e-06 9.24918e-07 -2.52706e-20 -1.39951e-06 -3.30018e-21 5.75942e-10)
(1.47544e-06 6.79585e-07 -2.82036e-20 -1.47606e-06 -3.42994e-21 6.19899e-10)
(1.50139e-06 4.10962e-07 1.33562e-19 -1.50177e-06 1.32678e-20 3.76037e-10)
(1.47107e-06 1.49916e-07 -1.01227e-20 -1.47174e-06 -3.61108e-21 6.73417e-10)
(1.37585e-06 -1.41821e-07 1.28574e-19 -1.3736e-06 1.12932e-20 -2.24971e-09)
(1.13337e-06 1.05243e-06 1.76222e-20 -1.13386e-06 3.0615e-21 4.90516e-10)
(1.24035e-06 8.63009e-07 -4.56784e-20 -1.24086e-06 -3.19844e-21 5.06446e-10)
(1.31359e-06 6.50846e-07 1.21299e-21 -1.31417e-06 1.31298e-21 5.81608e-10)
(1.34454e-06 4.16858e-07 5.91702e-20 -1.34486e-06 1.83063e-21 3.16188e-10)
(1.3278e-06 1.87552e-07 -9.36223e-20 -1.32853e-06 -5.44789e-21 7.28979e-10)
(1.25631e-06 -7.32582e-08 -5.52801e-20 -1.25376e-06 -5.54388e-21 -2.54651e-09)
(1.0005e-06 9.65473e-07 6.26665e-20 -1.00094e-06 4.47926e-21 4.36543e-10)
(1.0978e-06 8.02863e-07 3.25173e-20 -1.09826e-06 3.45443e-21 4.59877e-10)
(1.16716e-06 6.20003e-07 7.13492e-20 -1.16769e-06 5.48168e-21 5.35394e-10)
(1.20144e-06 4.16825e-07 -7.87323e-20 -1.2017e-06 -6.32685e-21 2.54464e-10)
(1.19548e-06 2.16117e-07 1.35196e-19 -1.19625e-06 1.23125e-20 7.66734e-10)
(1.14371e-06 -1.61579e-08 6.00335e-20 -1.14093e-06 5.61076e-21 -2.78647e-09)
(8.81974e-07 8.8406e-07 -7.27971e-20 -8.82368e-07 -7.62218e-21 3.93569e-10)
(9.70135e-07 7.44785e-07 -1.21913e-20 -9.70544e-07 -2.03699e-21 4.0966e-10)
(1.03525e-06 5.87612e-07 -8.41165e-20 -1.03574e-06 -9.22483e-21 4.94613e-10)
(1.07141e-06 4.11798e-07 9.6303e-20 -1.07162e-06 9.43698e-21 2.12621e-10)
(1.07378e-06 2.36748e-07 9.05992e-21 -1.07457e-06 -1.12719e-21 7.8626e-10)
(1.03818e-06 3.06428e-08 -3.36707e-20 -1.03524e-06 -4.68696e-21 -2.93677e-09)
(7.76561e-07 8.08233e-07 2.93555e-20 -7.76888e-07 3.93672e-21 3.27e-10)
(8.56081e-07 6.89208e-07 -3.03741e-20 -8.56436e-07 -2.4897e-21 3.55525e-10)
(9.16713e-07 5.54435e-07 -1.56938e-20 -9.17166e-07 6.97582e-23 4.52298e-10)
(9.53638e-07 4.02673e-07 -1.03226e-20 -9.53807e-07 -2.20671e-21 1.68984e-10)
(9.62303e-07 2.50447e-07 -3.58407e-20 -9.63114e-07 -2.80847e-21 8.11608e-10)
(9.39772e-07 6.82344e-08 -1.06718e-19 -9.36748e-07 -8.3626e-21 -3.02425e-09)
(6.82927e-07 7.37823e-07 -6.84208e-21 -6.83216e-07 7.15461e-22 2.89098e-10)
(7.54462e-07 6.36295e-07 8.11655e-21 -7.54777e-07 1.14697e-21 3.15203e-10)
(8.10557e-07 5.21009e-07 2.84956e-20 -8.10973e-07 2.95472e-21 4.15852e-10)
(8.47329e-07 3.90351e-07 -7.96736e-21 -8.47464e-07 -1.14826e-21 1.35289e-10)
(8.60556e-07 2.58354e-07 2.37944e-20 -8.61389e-07 1.42494e-21 8.32469e-10)
(8.48415e-07 9.77674e-08 8.60939e-20 -8.45353e-07 8.96394e-21 -3.06201e-09)
(6.00016e-07 6.72689e-07 1.39571e-19 -6.00253e-07 1.40967e-20 2.37109e-10)
(6.6412e-07 5.86247e-07 8.27492e-21 -6.64372e-07 1.24885e-21 2.52677e-10)
(7.15672e-07 4.87815e-07 5.5258e-21 -7.1603e-07 7.40763e-23 3.58165e-10)
(7.51598e-07 3.75575e-07 -5.09959e-20 -7.51703e-07 -3.61592e-21 1.04548e-10)
(7.6799e-07 2.61432e-07 -8.63125e-20 -7.68832e-07 -7.97677e-21 8.42236e-10)
(7.63992e-07 1.20332e-07 -1.53212e-20 -7.60935e-07 -1.88744e-21 -3.0566e-09)
(5.26705e-07 6.12564e-07 -4.39826e-20 -5.26901e-07 -5.7955e-21 1.95362e-10)
(5.84005e-07 5.39065e-07 1.87386e-20 -5.84201e-07 1.62414e-21 1.96766e-10)
(6.31122e-07 4.55176e-07 -2.10924e-20 -6.31433e-07 -2.79804e-21 3.11287e-10)
(6.65661e-07 3.58982e-07 1.00603e-19 -6.65728e-07 9.76675e-21 6.6735e-11)
(6.84053e-07 2.60533e-07 7.07868e-20 -6.84895e-07 7.68963e-21 8.42267e-10)
(6.86281e-07 1.36887e-07 7.57775e-20 -6.83271e-07 6.54116e-21 -3.01014e-09)
(4.04647e-07 6.10226e-07 3.47053e-20 -4.04774e-07 3.41558e-21 1.27258e-10)
(4.62007e-07 5.57256e-07 5.39021e-20 -4.62135e-07 6.67702e-21 1.2836e-10)
(5.13084e-07 4.94816e-07 -1.69404e-20 -5.13206e-07 -2.17646e-21 1.21897e-10)
(5.55893e-07 4.23404e-07 -3.90666e-20 -5.56152e-07 -3.74536e-21 2.5843e-10)
(5.88701e-07 3.4109e-07 -6.68894e-20 -5.88738e-07 -7.49535e-21 3.68219e-11)
(6.0817e-07 2.56389e-07 -2.09128e-20 -6.09009e-07 -2.2772e-21 8.38397e-10)
(6.15044e-07 1.48328e-07 -1.29082e-19 -6.12105e-07 -1.36465e-20 -2.9387e-09)
(3.54466e-07 5.51459e-07 -5.1638e-20 -3.54545e-07 -5.83526e-21 7.8836e-11)
(4.04944e-07 5.06467e-07 3.88675e-20 -4.05023e-07 3.11092e-21 7.86868e-11)
(4.50346e-07 4.53415e-07 -4.60987e-20 -4.50441e-07 -4.77361e-21 9.46978e-11)
(4.89113e-07 3.92694e-07 -1.04926e-20 -4.8934e-07 -1.47208e-22 2.26703e-10)
(5.19951e-07 3.22392e-07 2.24659e-20 -5.19966e-07 2.0223e-21 1.51755e-11)
(5.39791e-07 2.49665e-07 4.67019e-20 -5.40609e-07 5.33631e-21 8.177e-10)
(5.49981e-07 1.55449e-07 -1.77121e-20 -5.47134e-07 -1.58414e-22 -2.84625e-09)
(3.1029e-07 4.98125e-07 3.8153e-20 -3.10362e-07 5.31389e-21 7.25701e-11)
(3.54663e-07 4.59903e-07 -7.33106e-20 -3.54747e-07 -8.28936e-21 8.35328e-11)
(3.9496e-07 4.14888e-07 -6.44082e-21 -3.95043e-07 -6.05678e-22 8.28586e-11)
(4.29939e-07 3.63287e-07 9.66983e-20 -4.30131e-07 9.86022e-21 1.91572e-10)
(4.58649e-07 3.03328e-07 -9.5837e-20 -4.58638e-07 -1.01055e-20 -1.02263e-11)
(4.78307e-07 2.40992e-07 4.56167e-20 -4.79092e-07 4.68227e-21 7.85571e-10)
(4.9076e-07 1.58981e-07 5.67775e-20 -4.88009e-07 5.02876e-21 -2.75113e-09)
(2.71414e-07 4.49841e-07 6.19226e-20 -2.71495e-07 6.9143e-21 8.12217e-11)
(3.10406e-07 4.17381e-07 6.09071e-22 -3.10482e-07 6.41001e-22 7.57429e-11)
(3.46098e-07 3.79179e-07 7.50942e-21 -3.46172e-07 1.0656e-21 7.37273e-11)
(3.77538e-07 3.35353e-07 -1.13581e-19 -3.77702e-07 -1.2769e-20 1.64102e-10)
(4.04081e-07 2.84252e-07 -3.53895e-21 -4.04041e-07 -4.12348e-22 -3.9191e-11)
(4.23163e-07 2.30877e-07 8.00017e-20 -4.23908e-07 8.84359e-21 7.44974e-10)
(4.3702e-07 1.59593e-07 -1.5812e-19 -4.34374e-07 -1.70757e-20 -2.64595e-09)
(2.37199e-07 4.06187e-07 1.54645e-20 -2.37279e-07 1.45109e-21 7.9913e-11)
(2.71409e-07 3.78623e-07 -2.08681e-20 -2.71495e-07 -2.03545e-21 8.63358e-11)
(3.03007e-07 3.46202e-07 -1.17445e-20 -3.03073e-07 -1.52033e-21 6.64719e-11)
(3.31196e-07 3.09e-07 3.1544e-20 -3.31331e-07 4.52374e-21 1.35746e-10)
(3.55575e-07 2.65472e-07 -5.66541e-20 -3.5551e-07 -6.25345e-21 -6.46888e-11)
(3.73774e-07 2.19815e-07 6.24144e-20 -3.74478e-07 6.49531e-21 7.03683e-10)
(3.88379e-07 1.57891e-07 -2.75784e-20 -3.85843e-07 -2.21959e-21 -2.53638e-09)
(2.0709e-07 3.66699e-07 8.38716e-21 -2.07158e-07 5.73405e-22 6.85235e-11)
(2.3711e-07 3.43298e-07 4.51216e-20 -2.37181e-07 5.32107e-21 7.10442e-11)
(2.65032e-07 3.15813e-07 -4.09815e-21 -2.65077e-07 -2.83312e-22 4.50944e-11)
(2.90214e-07 2.84236e-07 2.66656e-20 -2.90329e-07 2.0915e-21 1.15303e-10)
(3.12476e-07 2.47176e-07 -7.6987e-21 -3.12405e-07 -9.9652e-22 -7.10282e-11)
(3.29622e-07 2.08156e-07 6.22956e-20 -3.30303e-07 6.77451e-21 6.81142e-10)
(3.44471e-07 1.54402e-07 -6.78201e-20 -3.42063e-07 -7.10148e-21 -2.40818e-09)
(1.80645e-07 3.30887e-07 -2.95576e-20 -1.8071e-07 -3.79378e-21 6.47718e-11)
(2.06946e-07 3.11036e-07 1.67504e-20 -2.07017e-07 1.69017e-21 7.06247e-11)
(2.3158e-07 2.87739e-07 2.15162e-20 -2.31631e-07 2.47314e-21 5.14072e-11)
(2.54023e-07 2.60955e-07 -1.06761e-19 -2.54145e-07 -1.19873e-20 1.22039e-10)
(2.74249e-07 2.29461e-07 -7.51061e-20 -2.74199e-07 -8.63348e-21 -4.95053e-11)
(2.90218e-07 1.96161e-07 5.03896e-20 -2.90895e-07 5.12065e-21 6.77021e-10)
(3.04921e-07 1.49541e-07 -6.41368e-21 -3.02667e-07 -5.95037e-22 -2.2534e-09)
(1.33225e-07 3.12366e-07 3.13502e-21 -1.33276e-07 6.281e-22 5.10287e-11)
(1.57414e-07 2.98261e-07 -3.55623e-20 -1.57463e-07 -3.77386e-21 4.90817e-11)
(1.80443e-07 2.81444e-07 2.46255e-20 -1.80496e-07 2.498e-21 5.33136e-11)
(2.02126e-07 2.61725e-07 -3.78953e-20 -2.02172e-07 -4.71182e-21 4.58546e-11)
(2.22069e-07 2.39057e-07 2.61892e-21 -2.22182e-07 7.1523e-22 1.13501e-10)
(2.40353e-07 2.12341e-07 -1.46156e-20 -2.40312e-07 -9.71938e-22 -4.06864e-11)
(2.55085e-07 1.83985e-07 9.59632e-21 -2.55745e-07 6.29396e-22 6.60204e-10)
(2.69362e-07 1.43595e-07 -3.20404e-20 -2.67248e-07 -3.12188e-21 -2.11321e-09)
(1.15994e-07 2.80504e-07 2.16519e-20 -1.16049e-07 2.59073e-21 5.50167e-11)
(1.37089e-07 2.68506e-07 5.85039e-20 -1.37136e-07 7.10245e-21 4.72072e-11)
(1.57223e-07 2.54237e-07 -5.02436e-20 -1.57278e-07 -5.85301e-21 5.5476e-11)
(1.76278e-07 2.37551e-07 -5.42825e-20 -1.7633e-07 -5.84301e-21 5.14924e-11)
(1.93942e-07 2.18381e-07 -1.92646e-20 -1.94063e-07 -2.57308e-21 1.2177e-10)
(2.10397e-07 1.95765e-07 5.71914e-20 -2.1038e-07 6.63574e-21 -1.72841e-11)
(2.23869e-07 1.71682e-07 -4.35879e-20 -2.24521e-07 -5.1379e-21 6.51798e-10)
(2.37484e-07 1.36735e-07 7.75273e-20 -2.35535e-07 8.81611e-21 -1.94915e-09)
(1.0081e-07 2.51714e-07 1.93107e-20 -1.00829e-07 2.43093e-21 1.95489e-11)
(1.1921e-07 2.41455e-07 -2.68175e-20 -1.19217e-07 -3.50387e-21 6.26906e-12)
(1.36804e-07 2.29312e-07 -3.27093e-21 -1.36815e-07 -2.81872e-22 1.04378e-11)
(1.53527e-07 2.15164e-07 6.63794e-20 -1.53535e-07 8.22982e-21 8.14587e-12)
(1.69147e-07 1.98936e-07 -3.92614e-20 -1.69223e-07 -4.95628e-21 7.57078e-11)
(1.83896e-07 1.79809e-07 -1.34954e-20 -1.8385e-07 -1.35949e-21 -4.69508e-11)
(1.96137e-07 1.59354e-07 -4.17353e-20 -1.96729e-07 -4.39453e-21 5.9191e-10)
(2.08928e-07 1.29102e-07 8.6126e-21 -2.07096e-07 6.3365e-22 -1.83204e-09)
(8.75204e-08 2.25927e-07 3.61806e-20 -8.75886e-08 4.1116e-21 6.81569e-11)
(1.03566e-07 2.17104e-07 -1.83069e-20 -1.03625e-07 -2.03843e-21 5.87681e-11)
(1.18949e-07 2.06704e-07 9.8118e-21 -1.19009e-07 1.00923e-21 5.94907e-11)
(1.33623e-07 1.94644e-07 4.73097e-20 -1.33683e-07 5.66586e-21 5.94497e-11)
(1.4742e-07 1.80855e-07 -1.52283e-19 -1.47538e-07 -1.76351e-20 1.18333e-10)
(1.60602e-07 1.64629e-07 1.08105e-19 -1.60617e-07 1.22168e-20 1.51897e-11)
(1.71656e-07 1.47231e-07 4.33972e-20 -1.72287e-07 5.19093e-21 6.30742e-10)
(1.83527e-07 1.2104e-07 1.00022e-20 -1.81923e-07 9.22607e-22 -1.60348e-09)
(7.55092e-08 2.0282e-07 -4.08319e-20 -7.54511e-08 -5.18368e-21 -5.80396e-11)
(8.9483e-08 1.95166e-07 3.23145e-21 -8.94187e-08 4.53599e-22 -6.43769e-11)
(1.0291e-07 1.86193e-07 -1.79344e-20 -1.02847e-07 -2.02392e-21 -6.29962e-11)
(1.15785e-07 1.75849e-07 4.12771e-20 -1.15713e-07 4.6509e-21 -7.15716e-11)
(1.27941e-07 1.6405e-07 2.76674e-20 -1.27928e-07 3.7655e-21 -1.27407e-11)
(1.39695e-07 1.50207e-07 -1.80133e-20 -1.39587e-07 -2.0926e-21 -1.0733e-10)
(1.49661e-07 1.35333e-07 -1.98668e-20 -1.50115e-07 -2.52994e-21 4.53965e-10)
(1.60587e-07 1.12501e-07 -3.25206e-20 -1.58975e-07 -3.61831e-21 -1.61244e-09)
(6.51731e-08 1.83777e-07 -2.54992e-20 -6.5223e-08 -3.01296e-21 4.98781e-11)
(7.73873e-08 1.77193e-07 2.88426e-21 -7.74358e-08 4.43236e-22 4.85469e-11)
(8.91801e-08 1.69483e-07 6.21364e-20 -8.92234e-08 7.21063e-21 4.32993e-11)
(1.00537e-07 1.6059e-07 -2.64721e-22 -1.00567e-07 2.9745e-23 3.07519e-11)
(1.1131e-07 1.50455e-07 -4.76019e-20 -1.11396e-07 -5.75849e-21 8.58136e-11)
(1.21825e-07 1.38593e-07 9.74351e-20 -1.21824e-07 1.15113e-20 -1.18084e-12)
(1.30834e-07 1.25744e-07 -1.84678e-20 -1.31331e-07 -2.30496e-21 4.96652e-10)
(1.40852e-07 1.05577e-07 6.09576e-20 -1.39453e-07 7.26834e-21 -1.3983e-09)
(5.78978e-08 1.68153e-07 -4.93504e-20 -5.80015e-08 -5.85299e-21 1.0369e-10)
(6.86629e-08 1.62466e-07 5.30713e-20 -6.87887e-08 6.39266e-21 1.25796e-10)
(7.9066e-08 1.55813e-07 -8.73023e-20 -7.92132e-08 -1.07453e-20 1.47168e-10)
(8.90933e-08 1.48155e-07 2.23984e-20 -8.9262e-08 2.69558e-21 1.68613e-10)
(9.86731e-08 1.39426e-07 2.83458e-20 -9.88954e-08 3.44357e-21 2.22288e-10)
(1.08079e-07 1.29174e-07 2.50374e-20 -1.08243e-07 2.37701e-21 1.64287e-10)
(1.16102e-07 1.17982e-07 -7.86168e-20 -1.16781e-07 -8.7489e-21 6.78877e-10)
(1.25358e-07 1.00169e-07 4.12034e-20 -1.2429e-07 4.29132e-21 -1.06722e-09)
(4.21111e-08 1.57974e-07 1.00848e-20 -4.19019e-08 1.27645e-21 -2.09215e-10)
(5.189e-08 1.53716e-07 2.78857e-20 -5.17911e-08 3.59359e-21 -9.89288e-11)
(6.14476e-08 1.48515e-07 -1.09888e-20 -6.1361e-08 -1.30055e-21 -8.66531e-11)
(7.06986e-08 1.42527e-07 -1.72378e-20 -7.05899e-08 -1.93251e-21 -1.08676e-10)
(7.96075e-08 1.35782e-07 4.61298e-20 -7.946e-08 5.41054e-21 -1.47414e-10)
(8.80745e-08 1.28169e-07 -2.80634e-20 -8.79323e-08 -3.34329e-21 -1.42266e-10)
(9.64118e-08 1.19309e-07 -9.32157e-20 -9.61696e-08 -1.10741e-20 -2.42163e-10)
(1.0344e-07 1.09601e-07 1.08195e-19 -1.03629e-07 1.30054e-20 1.89158e-10)
(1.11755e-07 9.39123e-08 -5.9267e-20 -1.10213e-07 -7.17744e-21 -1.54179e-09)
(3.7458e-08 1.45016e-07 2.83779e-21 -3.74424e-08 3.13661e-22 -1.56092e-11)
(4.62025e-08 1.40949e-07 -8.47695e-21 -4.64074e-08 -1.36247e-21 2.04837e-10)
(5.48085e-08 1.36013e-07 6.15016e-20 -5.51084e-08 7.42935e-21 2.99885e-10)
(6.32239e-08 1.30382e-07 -3.38796e-20 -6.35206e-08 -3.92921e-21 2.96749e-10)
(7.13067e-08 1.24118e-07 -2.38646e-20 -7.15822e-08 -3.09191e-21 2.75493e-10)
(7.8941e-08 1.17135e-07 -1.11916e-20 -7.92493e-08 -1.25134e-21 3.08319e-10)
(8.63879e-08 1.09187e-07 7.91305e-20 -8.66583e-08 9.6077e-21 2.7049e-10)
(9.2556e-08 1.00589e-07 -2.70809e-20 -9.33341e-08 -2.85365e-21 7.78156e-10)
(9.98773e-08 8.67193e-08 -5.30482e-20 -9.91711e-08 -6.63925e-21 -7.06241e-10)
(3.20723e-08 1.32514e-07 -7.3554e-22 -3.14925e-08 -7.90418e-23 -5.79742e-10)
(3.95833e-08 1.28774e-07 -5.59393e-20 -3.92085e-08 -6.9596e-21 -3.7481e-10)
(4.70657e-08 1.24272e-07 -4.80812e-20 -4.67517e-08 -5.84564e-21 -3.13969e-10)
(5.45029e-08 1.19141e-07 1.70402e-20 -5.41177e-08 2.17745e-21 -3.85229e-10)
(6.1689e-08 1.13458e-07 -1.31015e-20 -6.12267e-08 -1.69375e-21 -4.62231e-10)
(6.85049e-08 1.07152e-07 3.21626e-20 -6.80337e-08 4.16234e-21 -4.71155e-10)
(7.52264e-08 9.99839e-08 -6.43508e-20 -7.46767e-08 -8.52079e-21 -5.49692e-10)
(8.09062e-08 9.20787e-08 1.99866e-19 -8.06899e-08 2.43832e-20 -2.16322e-10)
(8.75366e-08 7.9005e-08 -9.94785e-20 -8.57475e-08 -1.19202e-20 -1.78912e-09)
(2.84656e-08 1.21698e-07 -1.08108e-21 -2.89216e-08 -3.82047e-23 4.5605e-10)
(3.51319e-08 1.18293e-07 -5.22125e-20 -3.59692e-08 -6.30092e-21 8.37354e-10)
(4.18283e-08 1.14174e-07 1.0985e-19 -4.28614e-08 1.34394e-20 1.03317e-09)
(4.85518e-08 1.09441e-07 6.79585e-21 -4.95984e-08 8.53333e-22 1.04664e-09)
(5.50275e-08 1.04186e-07 -6.30522e-20 -5.60632e-08 -7.3658e-21 1.03566e-09)
(6.11138e-08 9.8381e-08 7.34421e-20 -6.22052e-08 8.66126e-21 1.09144e-09)
(6.69871e-08 9.19424e-08 -1.40313e-19 -6.81547e-08 -1.69898e-20 1.16765e-09)
(7.18241e-08 8.5109e-08 1.28847e-19 -7.35919e-08 1.50254e-20 1.76783e-09)