/*--------------------------------*- C++ -*----------------------------------*\
| =========                 |                                                 |
| \\      /  F ield         | OpenFOAM: The Open Source CFD Toolbox           |
|  \\    /   O peration     | Version:  2306                                  |
|   \\  /    A nd           | Website:  www.openfoam.com                      |
|    \\/     M anipulation  |                                                 |
\*---------------------------------------------------------------------------*/
FoamFile
{
    version     2.0;
    format      ascii;
    arch        "LSB;label=32;scalar=64";
    class       volVectorField;
    location    "925";
    object      momentError;
}
// * * * * * * * * * * * * * * * * * * * * * * * * * * * * * * * * * * * * * //

dimensions      [0 1 -2 0 0 0 0];

internalField   nonuniform List<vector> 
1340
(
(-0.000113291 -9.86827e-06 1.26218e-15)
(-7.75692e-05 1.1663e-05 -2.16362e-15)
(-0.00030038 0.000132411 -1.10554e-14)
(-0.00214685 0.0012688 -2.1491e-14)
(-7.7363e-05 -7.07871e-06 -1.55164e-15)
(-0.000203478 -1.53625e-05 -6.70228e-17)
(-0.000313535 -1.97331e-05 3.77888e-15)
(-0.00154497 -0.000201864 9.20257e-15)
(-0.000192639 5.1902e-05 3.71049e-17)
(-0.000151547 3.05239e-05 1.44742e-14)
(-0.000198476 -3.1014e-05 8.74858e-15)
(-0.00119486 -0.000225948 -1.03371e-13)
(0.000776226 0.00288943 7.58328e-15)
(-0.000493506 -0.00165843 -1.28909e-14)
(-0.000348355 -0.000311116 -2.99063e-14)
(-0.00108413 -0.000198147 -1.05205e-16)
(-0.000388197 -0.00388456 -6.95753e-16)
(-0.000234726 0.00226707 1.03197e-14)
(-0.000280113 0.000248052 -1.08843e-14)
(-0.00101648 -0.000249304 5.48872e-15)
(-0.0005614 0.000953434 -1.18988e-14)
(0.000212586 -0.000815123 3.4651e-15)
(-0.000236322 6.28776e-05 4.41945e-14)
(-0.001316 0.000505723 3.10299e-14)
(-2.53438e-05 7.89821e-05 7.24228e-15)
(-8.54947e-05 0.000126249 -1.54388e-15)
(-0.000227422 -2.64304e-05 -2.46457e-15)
(-0.000690543 -0.000420617 -4.22079e-14)
(-8.66116e-05 2.51424e-05 -3.42265e-15)
(-0.000135833 8.29875e-06 -6.46609e-15)
(-0.00022751 -7.78512e-05 3.7862e-15)
(-0.000304698 -0.000595395 -2.26297e-14)
(-8.19414e-05 6.28303e-09 -1.09947e-15)
(-0.000133038 -1.4043e-07 8.88944e-16)
(-0.000245775 -4.04136e-05 -8.14207e-15)
(-0.000650333 -0.000190158 7.93538e-15)
(-8.17914e-05 -1.5949e-06 -4.81091e-16)
(-0.000132303 -4.67281e-06 -2.28692e-14)
(-0.000239171 -5.09788e-05 6.30489e-16)
(-0.000528559 -0.000236845 1.68637e-14)
(-8.2013e-05 -3.77511e-06 2.33482e-15)
(-0.00013098 -8.3706e-06 2.05407e-14)
(-0.000233433 -5.19862e-05 7.87246e-15)
(-0.000475886 -0.00022657 -7.15059e-14)
(-8.1946e-05 -5.60988e-06 7.27813e-15)
(-0.000128849 -1.13794e-05 -4.67747e-15)
(-0.000224068 -5.72022e-05 -2.28012e-14)
(-0.000415231 -0.000232067 4.09788e-14)
(-8.1771e-05 -7.35268e-06 -1.25856e-14)
(-0.000126532 -1.46034e-05 4.02321e-15)
(-0.000213761 -6.16319e-05 2.5387e-14)
(-0.000361227 -0.000233532 6.16888e-14)
(-8.13469e-05 -9.06619e-06 7.45351e-16)
(-0.000123574 -1.7757e-05 2.62327e-15)
(-0.000202063 -6.64217e-05 -1.32517e-14)
(-0.000311734 -0.000234062 -6.36692e-15)
(-8.0748e-05 -1.09314e-05 7.28301e-16)
(-0.000120393 -2.11227e-05 -6.63911e-15)
(-0.000189785 -7.10756e-05 -2.43957e-14)
(-0.000267234 -0.000232226 -2.4807e-14)
(-7.98374e-05 -1.26726e-05 -1.03625e-15)
(-0.00011654 -2.44055e-05 4.81747e-16)
(-0.000176733 -7.54094e-05 1.92358e-14)
(-0.000227412 -0.000228489 4.77165e-14)
(-7.87105e-05 -1.46817e-05 3.092e-15)
(-0.000112471 -2.7803e-05 -4.24528e-15)
(-0.000163572 -7.9252e-05 1.71468e-14)
(-0.000192149 -0.000222746 -1.92928e-14)
(-7.72089e-05 -1.65121e-05 1.59417e-15)
(-0.000107776 -3.10323e-05 7.49983e-15)
(-0.000150104 -8.24909e-05 3.81782e-15)
(-0.000161028 -0.000215635 -9.94842e-15)
(-7.54836e-05 -1.83067e-05 5.65147e-15)
(-0.000102915 -3.41976e-05 1.59016e-14)
(-0.000136889 -8.50756e-05 -1.01168e-14)
(-0.00013387 -0.000206913 -3.12921e-14)
(-7.33818e-05 -1.99604e-05 -9.50792e-15)
(-9.74673e-05 -3.71656e-05 -1.78555e-14)
(-0.000123756 -8.70328e-05 -1.32452e-14)
(-0.0001103 -0.000197323 1.15023e-14)
(-7.10045e-05 -2.18858e-05 5.55216e-15)
(-9.18701e-05 -4.02301e-05 4.16657e-15)
(-0.000111167 -8.82017e-05 1.99621e-14)
(-9.00078e-05 -0.00018674 1.62191e-14)
(-6.81681e-05 -2.37789e-05 -2.00679e-15)
(-8.58367e-05 -4.30743e-05 2.88712e-15)
(-9.90284e-05 -8.87424e-05 -5.29534e-15)
(-7.25925e-05 -0.000176022 -1.26013e-14)
(-6.51103e-05 -2.56391e-05 -7.53183e-18)
(-7.98332e-05 -4.5457e-05 -3.65776e-15)
(-8.7605e-05 -8.85998e-05 -1.08314e-14)
(-5.77345e-05 -0.000164972 -2.18421e-15)
(-6.17003e-05 -2.74034e-05 1.01942e-16)
(-7.35255e-05 -4.75186e-05 1.74185e-15)
(-7.67856e-05 -8.80078e-05 1.47799e-14)
(-4.52181e-05 -0.000154123 1.7871e-14)
(-5.81263e-05 -2.90316e-05 2.43594e-15)
(-6.73224e-05 -4.92476e-05 -5.36295e-15)
(-6.6817e-05 -8.66486e-05 -4.54196e-15)
(-3.46875e-05 -0.000143194 -1.11216e-14)
(-5.42479e-05 -3.06081e-05 -9.86097e-17)
(-6.09702e-05 -5.06154e-05 8.99496e-15)
(-5.762e-05 -8.48485e-05 -1.18233e-14)
(-2.59656e-05 -0.000132741 -1.9614e-14)
(-5.02743e-05 -3.19499e-05 4.4914e-15)
(-5.4929e-05 -5.12724e-05 -1.1996e-14)
(-4.93245e-05 -8.23205e-05 -2.31735e-15)
(-1.87167e-05 -0.000122532 2.12669e-14)
(-4.61626e-05 -3.30901e-05 -8.9596e-15)
(-4.89269e-05 -5.15133e-05 2.83507e-15)
(-4.17809e-05 -7.94547e-05 1.3897e-15)
(-1.28659e-05 -0.000112837 -9.7046e-15)
(-4.20908e-05 -3.37967e-05 7.55955e-15)
(-4.33464e-05 -5.10362e-05 -1.6374e-16)
(-3.51422e-05 -7.59258e-05 7.08222e-15)
(-8.1234e-06 -0.000103406 1.40632e-14)
(-3.8047e-05 -3.42662e-05 -8.13902e-15)
(-3.79409e-05 -5.01837e-05 6.8906e-15)
(-2.92112e-05 -7.21784e-05 2.02183e-15)
(-4.42072e-06 -9.45199e-05 4.62995e-16)
(-3.41439e-05 -3.43295e-05 -1.75591e-15)
(-3.30362e-05 -4.87639e-05 2.66411e-15)
(-2.41318e-05 -6.7943e-05 1.10586e-15)
(-1.51254e-06 -8.6003e-05 -9.27213e-15)
(-3.04317e-05 -3.41912e-05 7.90529e-15)
(-2.8406e-05 -4.70782e-05 -1.50036e-15)
(-1.96752e-05 -6.36388e-05 -3.67935e-15)
(6.77132e-07 -7.81235e-05 -1.35891e-14)
(-2.69507e-05 -3.36341e-05 1.32749e-15)
(-2.43437e-05 -4.49498e-05 -1.19576e-16)
(-1.59629e-05 -5.91146e-05 1.74047e-15)
(2.3405e-06 -7.06747e-05 8.4583e-15)
(-2.37346e-05 -3.29485e-05 -6.34216e-15)
(-2.05936e-05 -4.26669e-05 -3.62208e-15)
(-1.27117e-05 -5.47488e-05 -1.62703e-15)
(3.52973e-06 -6.38875e-05 9.13674e-15)
(-2.07668e-05 -3.20157e-05 4.02103e-15)
(-1.73953e-05 -4.01874e-05 4.77779e-15)
(-1.00736e-05 -5.03754e-05 3.6458e-15)
(4.38088e-06 -5.75726e-05 -8.00776e-15)
(-1.8106e-05 -3.09599e-05 -2.96901e-15)
(-1.45078e-05 -3.77896e-05 -3.87329e-15)
(-7.77466e-06 -4.62456e-05 -2.11687e-15)
(4.9425e-06 -5.19099e-05 1.06782e-14)
(-1.56602e-05 -2.98586e-05 -1.86145e-15)
(-1.21401e-05 -3.52188e-05 2.96566e-15)
(-5.99578e-06 -4.22739e-05 1.36674e-15)
(5.30332e-06 -4.66804e-05 -3.06822e-15)
(-1.36566e-05 -2.8233e-05 -7.37745e-16)
(-1.01396e-05 -3.26804e-05 -3.03718e-15)
(-4.39425e-06 -3.86571e-05 3.66961e-15)
(5.48105e-06 -4.20278e-05 -2.8503e-15)
(-1.32689e-05 -2.25828e-05 4.84937e-15)
(-1.14829e-05 -2.58183e-05 -2.38779e-16)
(-9.14618e-06 -3.11676e-05 2.12448e-15)
(-2.85711e-06 -3.48874e-05 -1.46872e-15)
(5.45767e-06 -3.78327e-05 -8.22359e-15)
(-1.17684e-05 -2.14562e-05 -6.37925e-15)
(-9.82518e-06 -2.43921e-05 1.84011e-15)
(-7.44083e-06 -2.87634e-05 1.71767e-15)
(-1.8382e-06 -3.17536e-05 -1.14229e-14)
(5.40824e-06 -3.40688e-05 1.80463e-15)
(-1.03754e-05 -2.02901e-05 1.45753e-15)
(-8.37463e-06 -2.28399e-05 -3.21821e-16)
(-6.12665e-06 -2.65138e-05 -8.7601e-16)
(-1.08553e-06 -2.87911e-05 1.0086e-14)
(5.26615e-06 -3.06204e-05 6.41081e-15)
(-9.14067e-06 -1.91785e-05 8.9169e-16)
(-7.04205e-06 -2.13639e-05 -6.22625e-16)
(-4.93309e-06 -2.44097e-05 -2.18178e-15)
(-4.59539e-07 -2.61344e-05 -7.18897e-17)
(5.07608e-06 -2.75754e-05 1.13486e-16)
(-7.99639e-06 -1.80227e-05 -3.51997e-15)
(-5.98247e-06 -1.98604e-05 -3.48839e-15)
(-4.04832e-06 -2.23769e-05 -3.82637e-15)
(-3.82071e-08 -2.36513e-05 -2.07582e-15)
(4.81944e-06 -2.47803e-05 -2.49755e-15)
(-7.01815e-06 -1.68606e-05 -1.43797e-15)
(-5.0243e-06 -1.83806e-05 -4.17647e-16)
(-3.23293e-06 -2.0524e-05 3.37702e-15)
(3.14988e-07 -2.14271e-05 1.12251e-15)
(4.5479e-06 -2.23255e-05 -6.51144e-15)
(-6.12113e-06 -1.56855e-05 -4.27806e-15)
(-4.25654e-06 -1.69714e-05 3.3964e-15)
(-2.65054e-06 -1.87339e-05 1.87332e-15)
(5.02443e-07 -1.93606e-05 -1.79866e-15)
(4.23078e-06 -2.00773e-05 3.29859e-15)
(-5.36087e-06 -1.45202e-05 1.24482e-15)
(-3.58167e-06 -1.56075e-05 -1.67448e-15)
(-2.1237e-06 -1.70825e-05 -5.73249e-16)
(6.79269e-07 -1.75162e-05 2.40955e-15)
(3.93145e-06 -1.81104e-05 5.67497e-15)
(-4.66744e-06 -1.33936e-05 1.78138e-15)
(-3.03445e-06 -1.42711e-05 -1.43824e-15)
(-1.75535e-06 -1.55431e-05 -2.475e-15)
(7.34919e-07 -1.5821e-05 -1.56037e-16)
(3.60217e-06 -1.63203e-05 -4.64026e-15)
(-4.10302e-06 -1.23244e-05 -5.82915e-16)
(-2.56479e-06 -1.30099e-05 8.81656e-17)
(-1.40184e-06 -1.417e-05 3.19956e-15)
(8.10652e-07 -1.43176e-05 -1.99203e-15)
(3.31432e-06 -1.47632e-05 1.2653e-15)
(-3.58864e-06 -1.13547e-05 -2.29052e-15)
(-2.16001e-06 -1.19044e-05 1.52008e-16)
(-1.14469e-06 -1.2911e-05 3.73103e-15)
(7.8887e-07 -1.29553e-05 -3.22262e-15)
(2.99649e-06 -1.33501e-05 -2.51717e-15)
(-3.15109e-06 -1.04713e-05 1.71917e-15)
(-1.8437e-06 -1.08907e-05 4.62753e-16)
(-9.35604e-07 -1.17841e-05 7.62237e-16)
(8.01895e-07 -1.17509e-05 6.05295e-16)
(2.73363e-06 -1.21128e-05 -9.63414e-16)
(-2.79032e-06 -9.70942e-06 8.71158e-16)
(-1.57472e-06 -9.94303e-06 -2.28033e-15)
(-7.8421e-07 -1.07546e-05 -1.95358e-15)
(7.34893e-07 -1.06549e-05 1.88917e-15)
(2.42813e-06 -1.09931e-05 4.57271e-15)
(-2.53499e-06 -8.8301e-06 -1.1201e-15)
(-1.47498e-06 -9.19316e-06 3.02918e-15)
(-6.50849e-07 -9.74676e-06 9.01199e-17)
(7.00444e-07 -9.68079e-06 -2.1951e-15)
(2.19024e-06 -1.00011e-05 2.81482e-15)
(-3.3093e-06 -7.88875e-06 -2.12012e-15)
(-2.19874e-06 -7.94293e-06 3.54604e-16)
(-1.58954e-06 -8.91943e-06 1.34313e-15)
(-4.14593e-07 -8.65851e-06 1.38522e-16)
(5.98488e-07 -8.81636e-06 -3.53587e-15)
(1.90044e-06 -9.10308e-06 -3.18195e-15)
(-3.0449e-06 -7.21542e-06 1.27126e-15)
(-2.0542e-06 -7.25697e-06 2.98475e-15)
(-1.53665e-06 -8.13333e-06 6.32703e-17)
(-3.5274e-07 -7.85918e-06 -3.07447e-15)
(5.48079e-07 -8.02508e-06 9.15955e-16)
(1.76042e-06 -8.3484e-06 -2.43806e-15)
(-2.86873e-06 -6.54627e-06 -1.76694e-15)
(-1.8767e-06 -6.60146e-06 -2.28276e-15)
(-1.30848e-06 -7.3721e-06 1.03146e-15)
(-3.24989e-07 -7.13039e-06 1.47174e-15)
(5.40989e-07 -7.29751e-06 -1.43036e-15)
(1.55022e-06 -7.65707e-06 2.62974e-16)
(-2.51751e-06 -5.89847e-06 7.03641e-16)
(-1.72074e-06 -5.96297e-06 -2.93917e-16)
(-1.30796e-06 -6.64024e-06 6.38964e-17)
(-2.59871e-07 -6.46605e-06 -1.11175e-16)
(5.29833e-07 -6.63432e-06 1.74722e-15)
(1.49644e-06 -6.99403e-06 5.85345e-16)
(-2.35183e-06 -5.29391e-06 1.16524e-15)
(-1.58073e-06 -5.35552e-06 6.73138e-16)
(-1.04424e-06 -6.03514e-06 -2.22887e-15)
(-1.695e-07 -5.89572e-06 -1.42322e-15)
(5.54714e-07 -6.04355e-06 -1.08051e-15)
(1.36006e-06 -6.39748e-06 2.50064e-16)
(-1.99155e-06 -4.76605e-06 -1.37788e-15)
(-1.31232e-06 -4.92059e-06 -1.8853e-15)
(-9.47652e-07 -5.50988e-06 -1.11302e-15)
(-1.11231e-07 -5.41187e-06 2.91318e-15)
(5.33391e-07 -5.5159e-06 3.96759e-16)
(1.30275e-06 -5.79561e-06 2.95006e-16)
(-1.70951e-06 -4.31564e-06 -1.6828e-16)
(-1.11209e-06 -4.44531e-06 1.19801e-15)
(-6.9809e-07 -5.03454e-06 -6.80381e-16)
(-3.37857e-08 -4.9415e-06 -5.54722e-16)
(4.77034e-07 -4.99966e-06 3.39649e-15)
(1.13206e-06 -5.26075e-06 -1.3697e-15)
(-1.33625e-06 -3.8713e-06 1.8482e-15)
(-7.90586e-07 -4.04494e-06 1.39732e-15)
(-5.69459e-07 -4.53527e-06 -2.44645e-15)
(-7.6586e-08 -4.42751e-06 7.58274e-16)
(3.88212e-07 -4.48653e-06 -9.80902e-16)
(1.02879e-06 -4.7359e-06 1.0687e-15)
(-1.02444e-06 -3.45225e-06 -1.23999e-15)
(-6.47385e-07 -3.63367e-06 7.98658e-16)
(-4.70409e-07 -3.96754e-06 1.74158e-15)
(-5.06795e-08 -3.91552e-06 -2.73662e-15)
(3.52132e-07 -4.02e-06 1.41607e-15)
(9.10973e-07 -4.28452e-06 2.64381e-15)
(-1.18752e-06 -2.96755e-06 -4.96591e-16)
(-7.59479e-07 -3.04757e-06 4.3484e-16)
(-6.14313e-07 -3.47617e-06 3.70469e-16)
(-2.97e-07 -3.41859e-06 -1.01375e-15)
(-2.99332e-08 -3.52406e-06 1.37257e-16)
(3.52661e-07 -3.61138e-06 1.55228e-15)
(8.97946e-07 -3.93253e-06 5.71197e-17)
(-9.10896e-07 -2.72304e-06 1.46588e-15)
(-5.78959e-07 -2.78142e-06 1.99521e-15)
(-5.40242e-07 -3.15093e-06 -1.83369e-15)
(-1.98645e-07 -3.10788e-06 -1.12614e-16)
(5.87429e-08 -3.20036e-06 -6.98121e-16)
(4.15125e-07 -3.32206e-06 -7.65316e-16)
(8.46075e-07 -3.60124e-06 2.45345e-15)
(-7.55239e-07 -2.48847e-06 -1.30462e-16)
(-4.61375e-07 -2.52213e-06 -1.01753e-15)
(-3.47866e-07 -2.88225e-06 -1.21594e-15)
(-8.61373e-08 -2.83785e-06 2.6286e-15)
(1.43983e-07 -2.93868e-06 1.13561e-15)
(4.22173e-07 -3.02055e-06 -3.1448e-15)
(8.00378e-07 -3.27914e-06 -2.31366e-15)
(-5.47223e-07 -2.25825e-06 6.42575e-16)
(-2.89766e-07 -2.29099e-06 -7.64157e-16)
(-2.59714e-07 -2.62331e-06 2.2035e-16)
(1.70608e-08 -2.57521e-06 5.32775e-16)
(1.94424e-07 -2.65583e-06 -1.09198e-15)
(4.1879e-07 -2.72464e-06 -2.18632e-15)
(7.36469e-07 -2.95462e-06 2.52185e-15)
(-4.52366e-07 -2.07415e-06 2.81692e-15)
(-1.83552e-07 -2.06327e-06 5.83727e-17)
(-9.89178e-08 -2.3922e-06 -1.8531e-15)
(9.33969e-08 -2.31693e-06 1.48382e-16)
(2.2797e-07 -2.37438e-06 1.29663e-15)
(3.92006e-07 -2.42372e-06 5.96315e-16)
(6.54985e-07 -2.62653e-06 -4.78337e-16)
(-3.26768e-07 -1.9132e-06 -3.40409e-16)
(-7.54646e-08 -1.89132e-06 3.26181e-16)
(-6.14268e-08 -2.15419e-06 -5.01141e-16)
(1.25672e-07 -2.04597e-06 -7.19057e-16)
(2.13459e-07 -2.08235e-06 4.86213e-16)
(3.49821e-07 -2.11812e-06 -1.13229e-15)
(5.88113e-07 -2.30004e-06 1.82907e-16)
(-3.08906e-07 -1.7837e-06 1.68644e-15)
(-7.48966e-08 -1.72412e-06 8.08896e-16)
(-3.49157e-08 -1.98304e-06 2.24117e-16)
(1.0516e-07 -1.84004e-06 6.99863e-16)
(2.00184e-07 -1.86612e-06 -5.75978e-17)
(3.18421e-07 -1.88749e-06 8.10102e-16)
(5.24364e-07 -2.04062e-06 -3.77378e-17)
(-2.70908e-07 -1.66795e-06 7.49259e-16)
(-6.75332e-08 -1.63472e-06 1.82415e-15)
(-6.94707e-08 -1.85021e-06 -5.75327e-16)
(9.05872e-08 -1.70904e-06 -1.08862e-15)
(1.7624e-07 -1.72046e-06 6.13579e-16)
(2.97858e-07 -1.75308e-06 4.74132e-16)
(4.86279e-07 -1.89155e-06 4.45039e-16)
(-2.48413e-07 -1.56893e-06 8.21041e-16)
(-7.25953e-08 -1.52667e-06 -8.55024e-16)
(-5.77101e-08 -1.73441e-06 -4.58438e-16)
(6.84511e-08 -1.60456e-06 7.71326e-16)
(1.59696e-07 -1.60657e-06 1.90991e-15)
(2.72226e-07 -1.64388e-06 -8.10387e-16)
(4.43575e-07 -1.77746e-06 -2.53896e-15)
(-2.016e-07 -1.46023e-06 -1.06433e-17)
(-6.95679e-08 -1.45804e-06 -5.17735e-16)
(-6.6107e-08 -1.56922e-06 1.24852e-17)
(5.39162e-08 -1.47565e-06 7.25967e-16)
(1.2892e-07 -1.47022e-06 -1.38603e-16)
(2.31378e-07 -1.49834e-06 -4.51162e-16)
(3.98072e-07 -1.64192e-06 6.0223e-16)
(-2.3287e-07 -1.23061e-06 -1.44218e-15)
(-1.35689e-07 -1.2368e-06 -8.67081e-16)
(-1.76123e-07 -1.41635e-06 -5.64566e-17)
(-3.31033e-08 -1.31632e-06 4.67222e-16)
(2.58302e-08 -1.31084e-06 4.40494e-16)
(1.01205e-07 -1.29623e-06 1.30016e-15)
(1.88953e-07 -1.32284e-06 -6.24626e-16)
(3.4935e-07 -1.45914e-06 -1.53131e-15)
(-1.99426e-07 -1.02759e-06 1.55499e-16)
(-1.20651e-07 -1.02101e-06 -3.977e-17)
(-1.23098e-07 -1.19171e-06 -5.04318e-16)
(-3.37949e-08 -1.1122e-06 1.23245e-15)
(1.6491e-08 -1.11676e-06 3.81671e-16)
(7.73668e-08 -1.10827e-06 -1.26854e-15)
(1.49621e-07 -1.13493e-06 -6.36897e-16)
(2.93202e-07 -1.24708e-06 3.24231e-16)
(-1.33832e-07 -8.45526e-07 -9.35331e-16)
(-7.18405e-08 -8.53321e-07 4.77421e-18)
(-1.07373e-07 -9.95206e-07 3.80572e-16)
(-1.66168e-08 -9.27562e-07 -1.37285e-15)
(1.83662e-08 -9.36405e-07 2.70995e-15)
(6.48757e-08 -9.33691e-07 -3.04025e-16)
(1.18307e-07 -9.62203e-07 -1.15036e-15)
(2.3559e-07 -1.05638e-06 1.03808e-15)
(-1.29243e-07 -7.3763e-07 5.25161e-17)
(-4.56094e-08 -7.19046e-07 5.93255e-16)
(-6.04577e-08 -8.68188e-07 7.44858e-16)
(8.88021e-10 -7.8549e-07 -1.08846e-15)
(2.82117e-08 -7.95548e-07 1.20603e-15)
(6.25623e-08 -7.94464e-07 -6.35073e-16)
(9.94048e-08 -8.22834e-07 -1.47678e-15)
(1.89429e-07 -9.01277e-07 1.68976e-15)
(-1.13388e-07 -6.69134e-07 1.74297e-16)
(-3.90017e-08 -6.56346e-07 6.63967e-16)
(-5.85393e-08 -7.84424e-07 1.31545e-15)
(1.71231e-08 -6.99906e-07 -2.56967e-17)
(3.93173e-08 -7.06567e-07 -1.89745e-15)
(6.45407e-08 -7.04563e-07 5.56116e-16)
(8.47275e-08 -7.3037e-07 -5.48042e-16)
(1.53354e-07 -7.8864e-07 -3.61693e-16)
(-1.21171e-07 -6.61769e-07 -6.26366e-16)
(-2.42528e-08 -6.44948e-07 -9.79116e-16)
(-1.84865e-08 -7.59376e-07 3.07383e-16)
(2.47265e-08 -6.74647e-07 1.49008e-15)
(4.42676e-08 -6.76049e-07 2.82956e-16)
(6.16455e-08 -6.69149e-07 -5.88833e-16)
(7.27503e-08 -6.86256e-07 1.3325e-16)
(1.22665e-07 -7.38248e-07 8.44333e-16)
(-9.52337e-08 -6.97102e-07 1.59277e-15)
(-2.36973e-08 -6.86528e-07 4.65306e-16)
(-3.16482e-08 -8.14775e-07 -1.3097e-15)
(2.34446e-08 -7.34358e-07 1.39633e-16)
(3.87943e-08 -7.38056e-07 -9.35905e-16)
(5.06563e-08 -7.32511e-07 -3.36777e-16)
(4.65121e-08 -7.48447e-07 1.74059e-15)
(6.21246e-08 -8.13754e-07 -1.12692e-16)
(-6.65994e-08 -7.15494e-07 -1.05417e-15)
(2.69849e-08 -6.81452e-07 -4.73443e-16)
(2.90186e-08 -8.39657e-07 1.00519e-15)
(3.42542e-08 -7.5564e-07 -4.35868e-16)
(4.00622e-08 -7.59406e-07 -3.63241e-16)
(3.94537e-08 -7.48791e-07 1.22523e-15)
(2.50569e-08 -7.69515e-07 -8.85005e-17)
(1.79058e-08 -8.83498e-07 -8.54983e-16)
(-3.92603e-08 -8.9468e-07 -6.32216e-16)
(1.60355e-08 -8.85599e-07 -1.25381e-15)
(1.75861e-08 -9.38898e-07 -6.62605e-16)
(1.99197e-08 -8.87735e-07 2.37662e-15)
(1.82991e-08 -8.80663e-07 -1.31034e-16)
(9.89843e-09 -8.70958e-07 -6.26944e-16)
(-1.85295e-08 -9.05428e-07 -8.63898e-16)
(-8.8867e-08 -1.07501e-06 -3.35963e-15)
(0.0293074 0.0117338 -1.46536e-14)
(-0.00564622 -0.00335259 1.77505e-14)
(-0.00288942 -0.00354568 -9.39082e-14)
(-0.00153354 -0.00292247 1.65238e-14)
(-0.000882613 -0.00260789 3.6856e-14)
(-0.000600375 -0.00252739 -1.78201e-14)
(-0.000601217 -0.00204297 -5.6255e-14)
(-0.000434532 -0.00162496 3.645e-15)
(-0.000359164 -0.00158066 4.87523e-15)
(-0.000302817 -0.0013831 -2.55651e-14)
(-0.000246644 -0.00121228 -1.26902e-14)
(-0.000201004 -0.00105889 3.6375e-14)
(-0.000162215 -0.000923405 5.63621e-14)
(-0.00012962 -0.000804393 -3.53964e-14)
(-0.000102175 -0.000699635 2.21682e-14)
(-7.9385e-05 -0.00060861 9.86776e-15)
(-6.04015e-05 -0.000529091 -4.68418e-14)
(-4.48658e-05 -0.00046056 3.68819e-14)
(-3.21444e-05 -0.000400693 -5.08533e-14)
(-2.19708e-05 -0.000349398 3.0221e-14)
(-1.37623e-05 -0.000305182 -8.06954e-15)
(-7.35062e-06 -0.000267502 1.88446e-15)
(-2.32551e-06 -0.000234735 1.08738e-14)
(1.435e-06 -0.000206795 -9.95626e-15)
(4.29636e-06 -0.000182576 -2.99903e-15)
(6.3139e-06 -0.000161839 -4.26608e-15)
(7.74791e-06 -0.000143582 1.61446e-14)
(8.60908e-06 -0.000127731 -1.03327e-14)
(9.12801e-06 -0.000113604 1.22502e-14)
(9.27569e-06 -0.000101224 2.20399e-15)
(9.25797e-06 -9.01174e-05 -1.40426e-14)
(9.01251e-06 -8.035e-05 -1.23058e-14)
(8.71245e-06 -7.15697e-05 1.19056e-14)
(8.28025e-06 -6.38622e-05 8.6477e-15)
(7.87448e-06 -5.69221e-05 -2.95928e-15)
(7.38712e-06 -5.08441e-05 5.9929e-15)
(6.95646e-06 -4.53786e-05 -1.71092e-15)
(6.46001e-06 -4.06241e-05 -1.18968e-14)
(6.07214e-06 -3.6262e-05 3.52785e-15)
(5.5964e-06 -3.24575e-05 -2.02799e-16)
(5.22121e-06 -2.89814e-05 -7.94668e-16)
(4.76153e-06 -2.59592e-05 6.57807e-15)
(4.40675e-06 -2.31951e-05 -4.84495e-15)
(3.9652e-06 -2.07982e-05 -8.18216e-16)
(3.63772e-06 -1.86131e-05 7.70526e-16)
(3.2332e-06 -1.67263e-05 5.91749e-15)
(2.94258e-06 -1.50143e-05 -2.64756e-15)
(2.583e-06 -1.35354e-05 5.59072e-15)
(2.32547e-06 -1.21945e-05 -1.04799e-15)
(2.0112e-06 -1.10255e-05 1.48374e-15)
(1.77009e-06 -9.9654e-06 1.41614e-15)
(1.47777e-06 -9.03246e-06 2.8896e-16)
(1.25179e-06 -8.26437e-06 1.53607e-15)
(1.04268e-06 -7.61085e-06 1.86654e-15)
(8.81091e-07 -7.01973e-06 -1.04591e-15)
(7.66176e-07 -6.46959e-06 -3.69632e-16)
(7.16838e-07 -5.8803e-06 -1.36932e-15)
(6.5048e-07 -5.33244e-06 1.99265e-15)
(6.29785e-07 -4.75081e-06 -3.96577e-15)
(5.60424e-07 -4.29836e-06 1.23541e-15)
(5.48362e-07 -3.88396e-06 -4.68288e-15)
(5.10981e-07 -3.53778e-06 -2.02098e-15)
(4.75095e-07 -3.24077e-06 1.7106e-16)
(4.39978e-07 -2.92448e-06 3.04072e-15)
(3.94809e-07 -2.60858e-06 3.48978e-15)
(3.43248e-07 -2.30721e-06 -7.68466e-16)
(3.13889e-07 -2.00215e-06 -2.94972e-15)
(3.02397e-07 -1.75141e-06 -1.35036e-15)
(2.98343e-07 -1.61211e-06 1.87339e-15)
(2.88473e-07 -1.48669e-06 5.28598e-15)
(2.88213e-07 -1.36498e-06 -2.39356e-15)
(2.89921e-07 -1.21902e-06 2.02679e-15)
(2.80253e-07 -1.03717e-06 -1.70054e-15)
(2.5078e-07 -8.57797e-07 -7.02318e-16)
(2.28174e-07 -7.08523e-07 -8.05709e-16)
(1.91145e-07 -6.00022e-07 3.81718e-15)
(1.64635e-07 -5.70829e-07 -3.98552e-16)
(8.84368e-08 -6.62515e-07 2.29184e-16)
(5.86853e-08 -7.0235e-07 8.96848e-16)
(-1.71805e-07 -9.49417e-07 9.78966e-15)
(0.0206658 0.000406242 3.87809e-15)
(0.00333945 -0.000434205 -4.31358e-15)
(0.00162927 -0.000632397 1.90283e-14)
(0.00132186 -0.000646074 -3.981e-15)
(0.00111877 -0.000405613 -6.10641e-15)
(0.000827492 -0.000731366 1.92146e-15)
(0.000732027 -0.000998891 1.03926e-14)
(0.000686215 -0.000695795 -6.27082e-16)
(0.00060886 -0.00062796 -7.38811e-16)
(0.000533834 -0.00058956 3.52991e-15)
(0.000466546 -0.000549419 3.86389e-15)
(0.000406667 -0.000509602 -7.55449e-15)
(0.000353458 -0.000470987 -1.00664e-14)
(0.0003061 -0.000433116 6.31338e-15)
(0.000264392 -0.000396745 -3.51155e-15)
(0.00022759 -0.000361752 -2.51068e-15)
(0.000195502 -0.00032856 7.90473e-15)
(0.000167429 -0.000297188 -6.18704e-15)
(0.000143229 -0.000267813 9.16683e-15)
(0.000122226 -0.00024066 -5.81852e-15)
(0.000104264 -0.000215758 1.02443e-15)
(8.87328e-05 -0.000193196 -1.89141e-16)
(7.55447e-05 -0.000172725 -1.44314e-15)
(6.41768e-05 -0.000154499 8.80284e-16)
(5.4549e-05 -0.000138128 8.80477e-16)
(4.62477e-05 -0.000123633 1.41188e-15)
(3.92411e-05 -0.00011064 -3.25433e-15)
(3.31974e-05 -9.91066e-05 2.13313e-15)
(2.81195e-05 -8.86828e-05 -2.6374e-15)
(2.37479e-05 -7.93966e-05 -1.36687e-16)
(2.00991e-05 -7.09793e-05 2.30016e-15)
(1.69603e-05 -6.34876e-05 2.41258e-15)
(1.43601e-05 -5.66836e-05 -2.59776e-15)
(1.21284e-05 -5.06566e-05 -1.28321e-15)
(1.0292e-05 -4.51792e-05 1.2966e-15)
(8.7117e-06 -4.03437e-05 -1.35354e-15)
(7.43068e-06 -3.59279e-05 1.47415e-16)
(6.27349e-06 -3.21504e-05 1.87508e-15)
(5.34491e-06 -2.86523e-05 -4.04004e-16)
(4.53583e-06 -2.55487e-05 4.42791e-16)
(3.87918e-06 -2.27079e-05 6.25509e-16)
(3.28191e-06 -2.02202e-05 -1.92679e-15)
(2.79959e-06 -1.79648e-05 9.36326e-16)
(2.342e-06 -1.60008e-05 4.48717e-16)
(1.98326e-06 -1.42364e-05 -1.11693e-15)
(1.62944e-06 -1.27054e-05 -7.93026e-16)
(1.36317e-06 -1.13459e-05 8.67861e-17)
(1.08423e-06 -1.01591e-05 -2.06567e-16)
(8.87117e-07 -9.10433e-06 -3.60993e-16)
(6.65823e-07 -8.16447e-06 6.51131e-16)
(5.17324e-07 -7.32308e-06 -6.80005e-16)
(3.25787e-07 -6.60914e-06 1.20885e-15)
(2.20678e-07 -6.00614e-06 2.6016e-16)
(2.18612e-08 -5.52717e-06 -1.44137e-16)
(-7.46754e-08 -5.10398e-06 4.27736e-16)
(-2.26468e-07 -4.7437e-06 9.34414e-16)
(-2.61314e-07 -4.34372e-06 2.08969e-16)
(-2.90481e-07 -3.92001e-06 1.31795e-16)
(-2.54337e-07 -3.50427e-06 1.87777e-15)
(-1.9184e-07 -3.10606e-06 -1.41436e-15)
(-1.76244e-07 -2.79857e-06 -7.77792e-16)
(-1.64699e-07 -2.53042e-06 -1.48481e-15)
(-1.53062e-07 -2.28739e-06 -9.69543e-16)
(-1.65949e-07 -2.05519e-06 -2.74751e-15)
(-1.69315e-07 -1.81418e-06 -8.19263e-16)
(-1.64087e-07 -1.58749e-06 -2.07353e-16)
(-1.48369e-07 -1.38305e-06 6.69777e-16)
(-8.63883e-08 -1.20304e-06 5.13559e-16)
(-4.13263e-08 -1.06227e-06 -9.12828e-16)
(-1.44514e-08 -9.54799e-07 -2.93806e-16)
(7.6232e-09 -8.50209e-07 8.62357e-16)
(4.15359e-08 -7.25296e-07 -3.37761e-16)
(6.76783e-08 -5.93322e-07 -5.07701e-16)
(9.4845e-08 -4.77237e-07 7.98401e-16)
(1.20975e-07 -3.7766e-07 5.88631e-17)
(1.06117e-07 -3.21218e-07 -5.37251e-16)
(1.19666e-07 -3.09056e-07 1.16848e-15)
(1.06682e-07 -3.56684e-07 -2.37684e-16)
(1.1884e-07 -2.90734e-07 -1.53249e-16)
(-9.82374e-08 -4.70911e-07 4.13602e-16)
(0.00232636 0.00116082 -1.25385e-16)
(0.000757955 0.000973425 -7.02805e-17)
(0.000658671 0.000842256 -8.53866e-17)
(0.000704551 0.00074932 1.0959e-16)
(0.000721958 0.000686325 -2.41283e-16)
(0.000635005 0.000580081 -1.69477e-16)
(0.000609395 0.000441598 1.61919e-17)
(0.000583943 0.000386591 -2.08778e-16)
(0.000547098 0.000326509 -2.36633e-16)
(0.000507373 0.000263929 1.07809e-16)
(0.000468852 0.000206342 -2.45462e-16)
(0.000431198 0.000155835 -2.0515e-16)
(0.000394869 0.000111541 1.78237e-16)
(0.000359988 7.34071e-05 3.57707e-16)
(0.000326824 4.09136e-05 -1.90596e-16)
(0.000295431 1.38275e-05 1.89411e-16)
(0.00026599 -8.5247e-06 9.73169e-17)
(0.000238482 -2.6339e-05 -1.27939e-17)
(0.000213022 -4.02408e-05 -3.79896e-17)
(0.000189536 -5.07915e-05 1.52365e-16)
(0.000168054 -5.84896e-05 7.16321e-16)
(0.000148459 -6.38341e-05 -3.43123e-17)
(0.000130744 -6.7028e-05 2.03534e-16)
(0.000114769 -6.86978e-05 8.66842e-17)
(0.000100474 -6.89968e-05 -1.12858e-16)
(8.77027e-05 -6.82985e-05 -1.89402e-16)
(7.63921e-05 -6.6668e-05 -4.93112e-16)
(6.63821e-05 -6.4417e-05 -8.84248e-18)
(5.75993e-05 -6.1607e-05 1.30343e-18)
(4.98946e-05 -5.84652e-05 1.85323e-16)
(4.31927e-05 -5.50401e-05 2.3741e-16)
(3.73617e-05 -5.1523e-05 -1.10035e-15)
(3.23199e-05 -4.79335e-05 -1.24147e-15)
(2.7964e-05 -4.44091e-05 -6.14866e-16)
(2.42099e-05 -4.09376e-05 2.3719e-16)
(2.09829e-05 -3.76393e-05 6.7402e-16)
(1.82084e-05 -3.44282e-05 1.85267e-18)
(1.58315e-05 -3.14601e-05 1.51619e-16)
(1.37561e-05 -2.86298e-05 4.91863e-16)
(1.19808e-05 -2.60275e-05 5.03368e-16)
(1.04219e-05 -2.35615e-05 4.43878e-17)
(9.09225e-06 -2.13406e-05 -2.36024e-16)
(7.90997e-06 -1.92667e-05 -1.62156e-16)
(6.90345e-06 -1.7424e-05 -7.96104e-16)
(6.00125e-06 -1.57319e-05 -1.40162e-15)
(5.23562e-06 -1.42405e-05 -6.92531e-16)
(4.54638e-06 -1.28898e-05 -2.66286e-16)
(3.96005e-06 -1.16958e-05 9.38521e-16)
(3.43757e-06 -1.06164e-05 1.38098e-15)
(2.98918e-06 -9.64594e-06 -3.26977e-17)
(2.59765e-06 -8.75844e-06 4.27559e-16)
(2.25562e-06 -7.97067e-06 -1.54511e-15)
(1.94088e-06 -7.29604e-06 -1.20151e-15)
(1.64083e-06 -6.73078e-06 1.63409e-16)
(1.32459e-06 -6.28008e-06 -8.58507e-16)
(1.05921e-06 -5.86612e-06 -2.68471e-16)
(7.98038e-07 -5.47745e-06 -3.01888e-16)
(6.38995e-07 -5.04361e-06 6.05243e-16)
(5.36486e-07 -4.59018e-06 2.97668e-15)
(4.86973e-07 -4.14419e-06 5.48485e-16)
(4.54916e-07 -3.73853e-06 3.30914e-15)
(4.13282e-07 -3.41364e-06 1.40984e-16)
(3.54017e-07 -3.12587e-06 3.43945e-16)
(2.99758e-07 -2.83671e-06 -1.47832e-15)
(2.48792e-07 -2.55235e-06 -2.43393e-16)
(2.14369e-07 -2.27989e-06 8.266e-16)
(1.98022e-07 -2.02959e-06 -3.29693e-16)
(2.03022e-07 -1.82729e-06 6.27211e-16)
(2.20232e-07 -1.66754e-06 -2.15459e-16)
(2.28885e-07 -1.52778e-06 -6.75779e-16)
(2.23199e-07 -1.39465e-06 -9.31596e-16)
(2.059e-07 -1.23405e-06 4.86591e-16)
(1.91555e-07 -1.04902e-06 1.62723e-15)
(1.97005e-07 -8.816e-07 -1.57743e-15)
(2.11527e-07 -7.39476e-07 5.8978e-17)
(1.59348e-07 -6.70403e-07 -1.0205e-16)
(1.88355e-07 -6.41838e-07 -2.62292e-15)
(1.9477e-07 -6.79637e-07 2.06787e-15)
(1.73508e-07 -6.14916e-07 -2.08177e-17)
(-1.32403e-08 -8.15598e-07 -3.54632e-15)
(0.000734981 0.000440881 2.70373e-17)
(0.000280898 0.000334297 -3.34584e-17)
(0.000185132 0.000286918 2.89907e-18)
(0.000138436 0.000283647 -6.76524e-17)
(0.000141793 0.000272586 2.68822e-17)
(0.000147593 0.000266627 1.93569e-17)
(0.000154462 0.000254648 -1.76128e-17)
(0.000162891 0.000229661 -1.54367e-17)
(0.000170986 0.000222026 -1.57878e-16)
(0.000176121 0.000209718 -7.84588e-18)
(0.000179625 0.000194612 1.37245e-16)
(0.000181285 0.000178678 -1.08865e-17)
(0.00018121 0.00016174 5.4568e-17)
(0.00017943 0.000144663 -1.59511e-17)
(0.00017611 0.000127285 -3.6548e-19)
(0.000171354 0.000110304 -1.82593e-16)
(0.000165391 9.35761e-05 -3.46963e-16)
(0.000158365 7.77016e-05 -3.55188e-16)
(0.000150514 6.2718e-05 1.66722e-16)
(0.00014201 4.87921e-05 -2.76113e-17)
(0.000133062 3.60108e-05 5.20201e-16)
(0.000123822 2.42948e-05 -1.31791e-16)
(0.000114469 1.38851e-05 -3.6801e-16)
(0.000105174 4.64086e-06 2.92303e-16)
(9.6047e-05 -3.27087e-06 -5.09497e-17)
(8.72149e-05 -1.00304e-05 5.96366e-18)
(7.87512e-05 -1.55592e-05 -1.22703e-16)
(7.0774e-05 -2.00093e-05 -2.488e-17)
(6.32983e-05 -2.33241e-05 4.52303e-17)
(5.6395e-05 -2.57141e-05 9.61479e-17)
(5.00486e-05 -2.71944e-05 4.51127e-16)
(4.42917e-05 -2.79847e-05 5.01514e-17)
(3.908e-05 -2.8127e-05 3.21444e-16)
(3.44122e-05 -2.78215e-05 -2.00858e-16)
(3.02344e-05 -2.70827e-05 8.1347e-18)
(2.65276e-05 -2.60945e-05 7.78833e-17)
(2.32435e-05 -2.48283e-05 -5.12846e-16)
(2.03461e-05 -2.34771e-05 -1.94797e-16)
(1.77764e-05 -2.19875e-05 4.20311e-16)
(1.55236e-05 -2.05023e-05 -7.06496e-17)
(1.35355e-05 -1.89638e-05 -1.78453e-16)
(1.18041e-05 -1.7506e-05 4.9205e-16)
(1.02757e-05 -1.60668e-05 6.30281e-16)
(8.95348e-06 -1.4753e-05 7.65206e-16)
(7.78622e-06 -1.34973e-05 4.08719e-16)
(6.78281e-06 -1.23739e-05 1.8871e-16)
(5.8958e-06 -1.13255e-05 9.26078e-16)
(5.13645e-06 -1.03896e-05 -1.86329e-16)
(4.46909e-06 -9.51984e-06 -1.8381e-16)
(3.90033e-06 -8.7272e-06 -1.60858e-15)
(3.4039e-06 -7.99154e-06 2.98963e-16)
(2.98483e-06 -7.30267e-06 1.84164e-15)
(2.60725e-06 -6.71226e-06 -1.68106e-15)
(2.25532e-06 -6.18607e-06 -2.64757e-16)
(1.91091e-06 -5.76783e-06 2.50051e-16)
(1.55885e-06 -5.42596e-06 -7.89649e-16)
(1.24097e-06 -5.09498e-06 2.9153e-16)
(9.6017e-07 -4.77642e-06 -1.46659e-15)
(7.79787e-07 -4.40544e-06 -1.6982e-15)
(6.65221e-07 -4.01086e-06 -1.53515e-16)
(5.80106e-07 -3.6419e-06 -1.69802e-15)
(5.00047e-07 -3.31315e-06 4.94797e-17)
(4.27373e-07 -3.02722e-06 -3.89769e-16)
(3.50592e-07 -2.7579e-06 3.97918e-15)
(2.90531e-07 -2.48407e-06 6.34449e-16)
(2.58527e-07 -2.22438e-06 -8.29891e-17)
(2.33618e-07 -1.98865e-06 5.68438e-16)
(2.27571e-07 -1.79853e-06 -3.03851e-16)
(2.30001e-07 -1.64474e-06 7.13114e-16)
(2.29015e-07 -1.5046e-06 2.04472e-15)
(2.19306e-07 -1.36128e-06 1.64681e-15)
(1.97118e-07 -1.19863e-06 1.23135e-15)
(1.80839e-07 -1.02576e-06 4.16471e-16)
(1.90271e-07 -8.70853e-07 4.68258e-17)
(2.08798e-07 -7.19076e-07 -2.15139e-18)
(1.50632e-07 -6.54122e-07 5.31748e-16)
(1.84761e-07 -6.27604e-07 -4.11477e-15)
(2.04983e-07 -6.38067e-07 -3.4417e-15)
(1.66529e-07 -5.64004e-07 5.97679e-17)