/*--------------------------------*- C++ -*----------------------------------*\
| =========                 |                                                 |
| \\      /  F ield         | OpenFOAM: The Open Source CFD Toolbox           |
|  \\    /   O peration     | Version:  2306                                  |
|   \\  /    A nd           | Website:  www.openfoam.com                      |
|    \\/     M anipulation  |                                                 |
\*---------------------------------------------------------------------------*/
FoamFile
{
    version     2.0;
    format      ascii;
    arch        "LSB;label=32;scalar=64";
    class       volScalarField;
    location    "225";
    object      p;
}
// * * * * * * * * * * * * * * * * * * * * * * * * * * * * * * * * * * * * * //

dimensions      [0 2 -2 0 0 0 0];

internalField   nonuniform List<scalar> 
1340
(
59.273
33.4897
5.00649
56.9616
33.0779
6.72878
-20.6202
-50.1298
54.2689
32.0549
7.58256
-17.731
-45.0399
-73.5619
-102.631
51.3572
30.6228
7.81305
-15.7002
-41.0551
-67.5082
-94.4359
-121.91
48.343
28.9315
7.60706
-14.3005
-37.9088
-62.5091
-87.5101
-113.017
-138.65
45.3066
27.0852
7.09778
-13.3698
-35.4097
-58.3397
-81.6041
-105.325
-129.155
42.3035
25.16
6.38349
-12.7853
-33.4058
-54.8244
-76.5159
-98.6122
-120.794
-142.896
39.3702
23.2087
5.53643
-12.4542
-31.7843
-51.8313
-72.0915
-92.7068
-113.383
-133.975
-154.472
36.5324
21.2733
4.60909
-12.3039
-30.4589
-49.2524
-68.208
-87.4692
-106.764
-125.965
-145.081
33.8078
19.3784
3.64381
-12.2836
-29.3593
-47.0055
-64.7647
-82.7868
-100.813
-118.733
-136.569
-154.189
31.2071
17.5449
2.66826
-12.3504
-28.434
-45.0238
-61.6858
-78.5684
-95.4274
-112.165
-128.816
-145.264
28.736
15.7866
1.70572
-12.4738
-27.6404
-43.2565
-58.9069
-74.7393
-90.5222
-106.169
-121.722
-137.08
-152.194
26.3975
14.1117
0.771714
-12.629
-26.9461
-41.6605
-56.3765
-71.2371
-86.0264
-100.665
-115.2
-129.544
-143.661
24.1915
12.5266
-0.121616
-12.7994
-26.3253
-40.2033
-54.0527
-68.0148
-81.8828
-95.5874
-109.178
-122.578
-135.763
-148.688
22.117
11.0339
-0.966532
-12.9692
-25.7583
-38.8573
-51.9019
-65.0291
-78.0443
-90.8825
-103.597
-116.118
-128.431
-140.503
20.1716
9.63516
-1.75763
-13.1282
-25.2289
-37.6008
-49.8955
-62.2468
-74.469
-86.5022
-98.4014
-110.106
-121.606
-132.879
18.3517
8.32996
-2.49161
-13.2694
-24.7252
-36.4171
-48.0119
-59.6398
-71.1233
-82.4083
-93.5488
-104.491
-115.234
-125.757
-136.001
16.6528
7.11725
-3.1663
-13.3868
-24.2372
-35.2921
-46.2323
-57.1846
-67.9789
-78.5668
-89.0011
-99.2344
-109.268
-119.091
-128.65
15.0709
5.99429
-3.78065
-13.477
-23.7578
-34.2144
-44.5423
-54.862
-65.0131
-74.9503
-84.7267
-94.2981
-103.671
-112.838
-121.754
13.6008
4.95876
-4.33521
-13.5374
-23.282
-33.1757
-42.9284
-52.6559
-62.2055
-71.5343
-80.6966
-89.6511
-98.4067
-106.96
-115.274
-123.298
12.2373
4.00765
-4.83118
-13.5664
-22.8047
-32.1685
-41.3805
-50.5522
-59.5381
-68.2987
-76.8867
-85.265
-93.4442
-101.424
-109.173
-116.649
10.9756
3.13719
-5.26986
-13.5635
-22.3238
-31.1878
-39.891
-48.5406
-56.9981
-65.2264
-73.2773
-81.1173
-88.7576
-96.2016
-103.422
-110.382
16.3007
9.81042
2.34394
-5.6534
-13.5291
-21.837
-30.2292
-38.4534
-46.6121
-54.5732
-62.3029
-69.851
-77.1873
-84.3238
-91.2666
-97.9919
-104.468
-110.644
14.924
8.73673
1.62407
-5.98401
-13.4635
-21.3431
-29.2893
-37.0613
-44.7579
-52.2525
-59.5147
-66.5921
-73.4572
-80.1233
-86.597
-92.859
-98.8817
-104.621
13.6482
7.74956
0.973784
-6.26419
-13.3676
-20.8417
-28.3657
-35.7112
-42.9716
-50.0278
-56.8509
-63.487
-69.9109
-76.1368
-82.1725
-88.0013
-93.5996
-98.9283
12.4677
6.84396
0.389197
-6.49659
-13.2431
-20.3323
-27.457
-34.3991
-41.2488
-47.892
-54.3025
-60.5249
-66.5358
-72.3498
-77.9756
-83.3993
-88.6003
-93.5442
-98.1783
11.3766
6.01525
-0.133527
-6.68398
-13.0912
-19.8152
-26.5613
-33.1222
-39.5844
-45.8386
-51.8614
-57.6954
-63.3192
-68.7479
-73.9907
-79.0357
-83.865
-88.4487
-92.7394
10.3697
5.2588
-0.598198
-6.82922
-12.9138
-19.2912
-25.6785
-31.8788
-37.9747
-43.8625
-49.5203
-54.9899
-60.2509
-65.3188
-70.2034
-74.8945
-79.3768
-83.6235
-87.5925
9.44195
4.57016
-1.00844
-6.93493
-12.7128
-18.7607
-24.8078
-30.6668
-36.4163
-41.9588
-47.2736
-52.4007
-57.3217
-62.0519
-66.6016
-70.962
-75.1201
-79.0521
-82.7203
8.58838
3.94483
-1.36784
-7.00394
-12.4901
-18.2246
-23.949
-29.4847
-34.9074
-40.124
-45.1158
-49.9212
-54.5233
-58.9376
-63.1742
-67.2256
-71.0811
-74.7193
-78.1067
7.80425
3.37887
-1.67997
-7.0391
-12.2474
-17.6842
-23.102
-28.3317
-33.4452
-38.3544
-43.042
-47.5452
-51.8484
-55.9668
-59.9107
-63.6739
-67.2471
-70.6115
-73.7367
-76.5857
7.0851
2.86821
-1.94812
-7.04304
-11.9869
-17.1405
-22.2673
-27.2071
-32.0281
-36.6472
-41.0486
-45.2679
-49.2906
-53.132
-56.8023
-60.2964
-63.6064
-66.7157
-69.5971
-72.2169
6.42659
2.40909
-2.17556
-7.01839
-11.7103
-16.5946
-21.4451
-26.1101
-30.6547
-35
-39.1318
-43.0841
-46.8439
-50.4259
-53.8407
-57.0838
-60.1485
-63.0203
-65.6749
-68.0819
5.82475
1.9978
-2.36533
-6.9677
-11.4194
-16.0477
-20.6359
-25.0405
-29.3235
-33.4104
-37.2882
-40.9897
-44.5028
-47.8422
-51.0182
-54.0272
-56.8638
-59.5149
-61.9586
-64.1681
5.27564
1.63098
-2.52051
-6.89331
-11.1164
-15.501
-19.84
-23.9977
-28.0333
-31.8764
-35.515
-38.9807
-42.2628
-45.375
-48.328
-51.1188
-53.743
-56.189
-58.4374
-60.4637
4.77561
1.30531
-2.64394
-6.79758
-10.803
-14.9555
-19.0579
-22.9817
-26.7833
-30.3961
-33.8095
-37.0536
-40.1189
-43.0188
-45.7638
-48.3512
-50.7781
-53.0337
-55.1009
-56.9579
-58.5771
4.32115
1.01766
-2.73822
-6.68271
-10.4806
-14.4123
-18.2901
-21.9922
-25.5724
-28.9679
-32.1692
-35.2052
-38.0672
-40.7685
-43.3193
-45.7176
-47.961
-50.0401
-51.9397
-53.6403
-55.1172
3.90899
0.765085
-2.80602
-6.55083
-10.1509
-13.8728
-17.5371
-21.0291
-24.3999
-27.5902
-30.5919
-33.4323
-36.104
-38.6196
-40.9891
-43.2113
-45.2843
-47.2
-48.9447
-50.5011
-51.8472
3.53602
0.544775
-2.84965
-6.40392
-9.81563
-13.3378
-16.7994
-20.0923
-23.2649
-26.2617
-29.0754
-31.7322
-34.2253
-36.5674
-38.768
-40.8265
-42.7414
-44.5058
-46.1075
-47.5311
-48.7569
3.19931
0.354086
-2.87147
-6.24381
-9.47604
-12.8081
-16.0774
-19.1814
-22.1668
-24.9809
-27.6176
-30.102
-32.428
-34.6079
-36.651
-38.5572
-40.3256
-41.95
-43.4198
-44.7212
-45.837
2.89602
0.190545
-2.87356
-6.07234
-9.13355
-12.2848
-15.3713
-18.2965
-21.1047
-23.7467
-26.2167
-28.5391
-30.7085
-32.737
-34.6334
-36.3981
-38.0306
-39.5258
-40.8739
-42.0632
-43.0783
-43.9033
2.6236
0.0517857
-2.85798
-5.8911
-8.78938
-11.7686
-14.6815
-17.4374
-20.0781
-22.5575
-24.8708
-27.0412
-29.064
-30.9509
-32.7107
-34.3439
-35.8507
-37.2263
-38.4627
-39.549
-40.472
-41.2178
2.37954
-0.0643507
-2.82667
-5.70166
-8.4447
-11.2603
-14.0085
-16.6038
-19.0861
-21.4121
-23.578
-25.6056
-27.4913
-29.246
-30.8786
-32.3897
-33.78
-35.0455
-36.179
-37.171
-38.0099
-38.6838
2.16154
-0.159967
-2.78132
-5.50542
-8.10062
-10.7606
-13.3523
-15.7955
-18.1281
-20.3095
-22.3365
-24.2302
-25.9874
-27.6188
-29.1329
-30.5308
-31.8133
-32.9771
-34.016
-34.9217
-35.684
-36.2928
1.96745
-0.236991
-2.72361
-5.30377
-7.75808
-10.27
-12.7133
-15.0123
-17.2033
-19.2482
-21.1446
-22.9126
-24.5495
-26.0658
-27.4696
-28.7624
-29.9452
-31.0153
-31.9673
-32.794
-33.4866
-34.0364
1.7952
-0.297222
-2.6551
-5.0979
-7.41802
-9.7891
-12.0913
-14.2538
-16.311
-18.2272
-20.0006
-21.6506
-23.1749
-24.5837
-25.8849
-27.0802
-28.1708
-29.1546
-30.0268
-30.7813
-31.4105
-31.9069
1.64291
-0.342358
-2.57721
-4.88892
-7.0812
-9.31837
-11.4867
-13.5197
-15.4503
-17.245
-18.9028
-20.442
-21.8609
-23.1693
-24.3751
-25.4799
-26.4852
-27.3894
-28.1884
-28.877
-29.4485
-29.8967
1.50881
-0.373992
-2.49131
-4.67794
-6.74846
-8.85818
-10.8993
-12.8098
-14.6206
-16.3007
-17.8495
-19.2847
-20.6048
-21.8196
-22.9364
-23.9572
-24.8837
-25.7146
-26.4464
-27.0748
-27.5939
-27.9987
-28.2883
1.3912
-0.393583
-2.3986
-4.46594
-6.42045
-8.40895
-10.3293
-12.1235
-13.8209
-15.3928
-16.839
-18.1764
-19.4041
-20.5314
-21.5654
-22.5083
-23.3618
-24.1251
-24.7954
-25.3687
-25.8403
-26.206
-26.4654
1.28855
-0.402529
-2.30025
-4.25381
-6.0978
-7.97095
-9.77659
-11.4604
-13.0506
-14.5203
-15.8698
-17.1153
-18.2563
-19.3018
-20.2587
-21.1292
-21.9152
-22.6162
-23.2299
-23.753
-24.1815
-24.5118
-24.7444
1.1994
-0.402132
-2.19739
-4.04242
-5.78112
-7.5445
-9.24107
-10.8203
-12.3088
-13.6818
-14.9401
-16.0991
-17.1588
-18.1278
-19.0128
-19.816
-20.5395
-21.183
-21.7448
-22.2221
-22.6114
-22.91
-23.1186
1.12242
-0.393547
-2.09098
-3.83249
-5.4709
-7.12985
-8.72271
-10.2026
-11.5947
-12.8762
-14.0484
-15.1259
-16.1092
-17.0067
-17.8245
-18.5651
-19.2306
-19.8212
-20.3353
-20.7706
-21.1244
-21.3944
-21.5817
1.0564
-0.377795
-1.98189
-3.62464
-5.16748
-6.72699
-8.22123
-9.60692
-10.9074
-12.1024
-13.1931
-14.1936
-15.1053
-15.9357
-16.6908
-17.3729
-17.9846
-18.5261
-18.9964
-19.3934
-19.7149
-19.9592
-20.1275
1.00005
-0.35601
-1.87109
-3.41964
-4.87145
-6.33614
-7.73646
-9.03256
-10.2458
-11.359
-12.3724
-13.3003
-14.1448
-14.9125
-15.6086
-16.236
-16.7976
-17.2938
-17.7235
-18.0854
-18.3776
-18.5987
-18.7503
0.952137
-0.329658
-1.75999
-3.21892
-4.58387
-5.95838
-7.26904
-8.47967
-9.60957
-10.6453
-11.5842
-12.443
-13.2251
-13.9342
-14.5748
-15.1509
-15.6658
-16.12
-16.5124
-16.8421
-17.1075
-17.3078
-17.4444
0.911739
-0.299447
-1.64923
-3.02301
-4.30543
-5.59431
-6.81949
-7.94877
-8.99892
-9.96172
-10.8274
-11.6193
-12.3431
-12.9974
-13.5854
-14.1132
-14.5848
-15.0001
-15.3582
-15.6584
-15.8995
-16.0811
-16.2046
-16.2756
0.878962
-0.264556
-1.53719
-2.82971
-4.03358
-5.24095
-6.38529
-7.4377
-8.41251
-9.3057
-10.1012
-10.8314
-11.5012
-12.1027
-12.6397
-13.1215
-13.5522
-13.9309
-14.2566
-14.5295
-14.7485
-14.9132
-15.0252
-15.0895
0.853387
-0.225187
-1.42325
-2.63782
-3.76606
-4.89499
-5.96163
-6.94133
-7.84473
-8.67122
-9.39897
-10.08
-10.7039
-11.2518
-11.7372
-12.1749
-12.5671
-12.9109
-13.206
-13.453
-13.6514
-13.8006
-13.9023
-13.9609
0.834457
-0.193291
-1.33352
-2.48222
-3.54303
-4.59642
-5.57809
-6.46998
-7.27384
-8.01048
-8.61286
-9.28039
-9.91153
-10.4382
-10.8997
-11.3228
-11.7041
-12.0371
-12.3222
-12.5612
-12.7536
-12.8987
-12.9979
-13.0555
0.820098
-0.165807
-1.25675
-2.34779
-3.34581
-4.32395
-5.21727
-6.01091
-6.69753
-7.32498
-7.76241
-8.45063
-9.12496
-9.65257
-10.1091
-10.5367
-10.9252
-11.2636
-11.5529
-11.7959
-11.9922
-12.1408
-12.2435
-12.3043
0.807449
-0.136201
-1.17738
-2.2104
-3.14575
-4.04893
-4.85606
-5.55389
-6.13009
-6.65142
-6.93548
-7.63117
-8.33949
-8.8657
-9.31347
-9.74106
-10.1338
-10.4757
-10.7677
-11.0136
-11.2132
-11.3651
-11.4712
-11.5352
0.796286
-0.1051
-1.09641
-2.07171
-2.94497
-3.77409
-4.49773
-5.10211
-5.57539
-5.98954
-6.13769
-6.82566
-7.55444
-8.07769
-8.5148
-8.93799
-9.33158
-9.67495
-9.9682
-10.2158
-10.4179
-10.5729
-10.6823
-10.7496
0.786697
-0.0728234
-1.01461
-1.93303
-2.74536
-3.50195
-4.14521
-4.65867
-5.03654
-5.34106
-5.37238
-6.03777
-6.77117
-7.28812
-7.71313
-8.12817
-8.51887
-8.86157
-9.15468
-9.40295
-9.60682
-9.76472
-9.87745
-9.9489
0.778607
-0.0399737
-0.933358
-1.79622
-2.54946
-3.23567
-3.80222
-4.22779
-4.51738
-4.70895
-4.64149
-5.26979
-5.99084
-6.4967
-6.90822
-7.31186
-7.69596
-8.03557
-8.32726
-8.57549
-8.78072
-8.941
-9.05631
-9.13018
0.771884
-0.00787089
-0.855072
-1.66473
-2.36094
-2.97929
-3.47244
-3.81303
-4.02017
-4.09524
-3.94593
-4.52311
-5.21492
-5.70357
-6.0994
-6.48843
-6.86235
-7.1961
-7.48462
-7.73194
-7.93893
-8.10371
-8.22659
-8.31113
0.766156
0.0218238
-0.782917
-1.54292
-2.18479
-2.73795
-3.15942
-3.41594
-3.54449
-3.50091
-3.28501
-3.79809
-4.44463
-4.90863
-5.28522
-5.65626
-6.01672
-6.34224
-6.62578
-6.86965
-7.07372
-7.23489
-7.3518
-7.4264
-7.46831
0.761099
0.0491292
-0.717001
-1.43206
-2.024
-2.51682
-2.86918
-3.04383
-3.09809
-2.93365
-2.65829
-3.09407
-3.68123
-4.11205
-4.46429
-4.81228
-5.15421
-5.46924
-5.75098
-6.00109
-6.21936
-6.40393
-6.55509
-6.67517
-6.76556
0.757112
0.0752541
-0.655436
-1.33028
-1.87869
-2.32037
-2.61225
-2.7177
-2.70655
-2.41036
-2.06646
-2.41332
-2.92654
-3.31319
-3.63696
-3.95857
-4.27246
-4.55897
-4.81203
-5.03211
-5.21664
-5.3587
-5.45189
-5.49634
-5.51198
0.754756
0.0930755
-0.61163
-1.2536
-1.76438
-2.15998
-2.39459
-2.44068
-2.35969
-1.91082
-1.49962
-1.76421
-2.18731
-2.50807
-2.79281
-3.09573
-3.41036
-3.71838
-4.0128
-4.29358
-4.56165
-4.81909
-5.06668
-5.29745
-5.48404
0.751654
0.081641
-0.624004
-1.25088
-1.72861
-2.06611
-2.21443
-2.16146
-1.94288
-1.32413
-0.914964
-1.14019
-1.48552
-1.72177
-1.90663
-2.08658
-2.26417
-2.43144
-2.58328
-2.7145
-2.81305
-2.85964
-2.84029
-2.76355
-2.69249
0.743053
0.0416246
-0.689181
-1.32157
-1.77624
-2.05107
-2.09279
-1.89738
-1.46946
-0.68599
-0.291499
-0.47129
-0.787674
-1.08543
-1.3862
-1.70068
-2.03162
-2.38062
-2.75255
-3.15623
-3.60385
-4.10168
-4.62658
-5.11919
-5.47389
)
;

boundaryField
{
    inlet
    {
        type            freestreamPressure;
        freestreamValue uniform 0;
        value           nonuniform List<scalar> 
25
(
0.739435
0.041422
-0.685825
-1.31513
-1.76759
-2.04108
-2.0826
-1.88814
-1.4623
-0.68265
-0.125539
-0.20308
-0.33968
-0.468525
-0.598965
-0.73566
-0.879844
-1.03226
-1.19505
-1.3721
-1.56874
-1.78772
-2.01889
-2.23621
-2.39331
)
;
    }
    outlet
    {
        type            freestreamPressure;
        freestreamValue nonuniform List<scalar> 0();
        value           nonuniform List<scalar> 0();
    }
    walls
    {
        type            zeroGradient;
    }
    frontAndBack
    {
        type            empty;
    }
    procBoundary4to0
    {
        type            processor;
        value           nonuniform List<scalar> 
72
(
81.4719
77.5162
73.382
69.1985
65.0511
60.9954
57.068
53.2937
49.6862
46.2524
42.9956
39.9152
37.0089
34.2728
31.7016
29.2888
27.0285
24.9144
22.9396
21.0972
19.381
17.7842
17.7842
22.3447
20.692
19.1531
17.7213
16.3905
15.1548
14.008
12.9451
11.9607
11.0501
10.2083
9.43094
8.71385
8.05298
7.4445
6.88486
6.37062
5.89855
5.46563
5.06905
4.70605
4.37415
4.07097
3.79425
3.54191
3.312
3.10267
2.91223
2.73904
2.58166
2.43874
2.3089
2.19087
2.0836
1.98662
1.89938
1.83275
1.77881
1.72596
1.67436
1.62452
1.57705
1.53308
1.49338
1.45696
1.42373
1.40247
1.40818
1.42893
)
;
    }
    procBoundary4to5
    {
        type            processor;
        value           nonuniform List<scalar> 
95
(
60.9429
32.967
2.02393
-24.661
-24.661
-56.6611
-80.9731
-80.9731
-112.428
-132.277
-132.277
-149.512
-149.512
-164.173
-152.896
-152.896
-164.885
-164.885
-174.694
-163.957
-163.957
-171.508
-161.445
-161.445
-166.99
-157.493
-157.493
-161.251
-152.248
-143.85
-143.85
-145.884
-137.877
-130.362
-130.362
-130.957
-123.783
-117.023
-117.023
-116.447
-110.01
-103.928
-103.928
-102.439
-96.6798
-91.2325
-86.0784
-81.2013
-81.2013
-79.1102
-74.5323
-70.2028
-66.1084
-62.237
-62.237
-59.9278
-56.3435
-52.9593
-49.7644
-46.749
-46.749
-44.5282
-41.7784
-39.1863
-36.7429
-34.4396
-32.2679
-30.22
-30.22
-28.4687
-26.6249
-24.8855
-23.2436
-21.6927
-20.2262
-18.8384
-17.5232
-17.5232
-16.3026
-15.114
-13.9837
-13.0791
-12.3313
-11.5657
-10.7836
-9.98793
-9.17114
-8.36494
-8.36494
-7.48919
-6.83029
-5.51953
-5.61771
-2.66045
-5.69036
)
;
    }
}


// ************************************************************************* //
