/*--------------------------------*- C++ -*----------------------------------*\
| =========                 |                                                 |
| \\      /  F ield         | OpenFOAM: The Open Source CFD Toolbox           |
|  \\    /   O peration     | Version:  2306                                  |
|   \\  /    A nd           | Website:  www.openfoam.com                      |
|    \\/     M anipulation  |                                                 |
\*---------------------------------------------------------------------------*/
FoamFile
{
    version     2.0;
    format      ascii;
    arch        "LSB;label=32;scalar=64";
    class       volScalarField;
    location    "225";
    object      turbulenceProperties:nut;
}
// * * * * * * * * * * * * * * * * * * * * * * * * * * * * * * * * * * * * * //

dimensions      [0 2 -1 0 0 0 0];

internalField   nonuniform List<scalar> 
1340
(
6.10299e-06
6.10309e-06
6.10295e-06
6.10292e-06
6.10291e-06
6.10264e-06
6.10231e-06
6.10204e-06
6.10271e-06
6.10263e-06
6.10229e-06
6.10192e-06
6.10163e-06
6.10137e-06
6.10111e-06
6.10243e-06
6.10227e-06
6.10188e-06
6.10151e-06
6.10124e-06
6.10098e-06
6.10073e-06
6.10055e-06
6.10214e-06
6.10191e-06
6.10149e-06
6.10115e-06
6.1009e-06
6.10064e-06
6.10042e-06
6.10024e-06
6.10009e-06
6.10185e-06
6.10157e-06
6.10117e-06
6.10084e-06
6.10059e-06
6.10034e-06
6.10015e-06
6.1e-06
6.09988e-06
6.10157e-06
6.10127e-06
6.10089e-06
6.10058e-06
6.10032e-06
6.1001e-06
6.09995e-06
6.09984e-06
6.09978e-06
6.09973e-06
6.10128e-06
6.10097e-06
6.10063e-06
6.10033e-06
6.10008e-06
6.09991e-06
6.09982e-06
6.09977e-06
6.09976e-06
6.09977e-06
6.09977e-06
6.10099e-06
6.10069e-06
6.10039e-06
6.10011e-06
6.09988e-06
6.09978e-06
6.09976e-06
6.09977e-06
6.09982e-06
6.09986e-06
6.0999e-06
6.10077e-06
6.10044e-06
6.10017e-06
6.09993e-06
6.09976e-06
6.09973e-06
6.09977e-06
6.09983e-06
6.09992e-06
6.09999e-06
6.10005e-06
6.10009e-06
6.10061e-06
6.10025e-06
6.10001e-06
6.09982e-06
6.09972e-06
6.09976e-06
6.09984e-06
6.09993e-06
6.10003e-06
6.10012e-06
6.10019e-06
6.10025e-06
6.10049e-06
6.1001e-06
6.0999e-06
6.09978e-06
6.09975e-06
6.09982e-06
6.09993e-06
6.10004e-06
6.10016e-06
6.10026e-06
6.10034e-06
6.10041e-06
6.10047e-06
6.10037e-06
6.09999e-06
6.09985e-06
6.09979e-06
6.09981e-06
6.09992e-06
6.10004e-06
6.10016e-06
6.10029e-06
6.1004e-06
6.10049e-06
6.10056e-06
6.10063e-06
6.10023e-06
6.09987e-06
6.09981e-06
6.09982e-06
6.09988e-06
6.10001e-06
6.10015e-06
6.10028e-06
6.10042e-06
6.10053e-06
6.10063e-06
6.10072e-06
6.1008e-06
6.10086e-06
6.10006e-06
6.09975e-06
6.09977e-06
6.09983e-06
6.09992e-06
6.10007e-06
6.10023e-06
6.10038e-06
6.10053e-06
6.10066e-06
6.10078e-06
6.10088e-06
6.10096e-06
6.10103e-06
6.0999e-06
6.09965e-06
6.09973e-06
6.09982e-06
6.09994e-06
6.10012e-06
6.10029e-06
6.10046e-06
6.10063e-06
6.10078e-06
6.10091e-06
6.10102e-06
6.10112e-06
6.1012e-06
6.0998e-06
6.0996e-06
6.0997e-06
6.09982e-06
6.09996e-06
6.10016e-06
6.10035e-06
6.10054e-06
6.10072e-06
6.10088e-06
6.10103e-06
6.10115e-06
6.10127e-06
6.10136e-06
6.10145e-06
6.09975e-06
6.09957e-06
6.09971e-06
6.09984e-06
6.09999e-06
6.10021e-06
6.10041e-06
6.10061e-06
6.10081e-06
6.10098e-06
6.10114e-06
6.10128e-06
6.10141e-06
6.10152e-06
6.10162e-06
6.09972e-06
6.09958e-06
6.09973e-06
6.09987e-06
6.10005e-06
6.10027e-06
6.10049e-06
6.1007e-06
6.1009e-06
6.10109e-06
6.10126e-06
6.10141e-06
6.10155e-06
6.10167e-06
6.10178e-06
6.09968e-06
6.09958e-06
6.09975e-06
6.09991e-06
6.1001e-06
6.10033e-06
6.10056e-06
6.10078e-06
6.101e-06
6.10119e-06
6.10137e-06
6.10153e-06
6.10168e-06
6.10181e-06
6.10193e-06
6.10205e-06
6.09961e-06
6.09955e-06
6.09975e-06
6.09993e-06
6.10014e-06
6.10039e-06
6.10063e-06
6.10086e-06
6.10109e-06
6.10129e-06
6.10148e-06
6.10165e-06
6.10181e-06
6.10196e-06
6.10209e-06
6.10221e-06
6.09951e-06
6.09949e-06
6.09972e-06
6.09993e-06
6.10017e-06
6.10044e-06
6.10069e-06
6.10094e-06
6.10118e-06
6.10139e-06
6.10159e-06
6.10177e-06
6.10194e-06
6.1021e-06
6.10224e-06
6.10237e-06
6.09949e-06
6.09941e-06
6.09943e-06
6.09969e-06
6.09992e-06
6.10018e-06
6.10047e-06
6.10074e-06
6.101e-06
6.10125e-06
6.10148e-06
6.10169e-06
6.10189e-06
6.10207e-06
6.10223e-06
6.10239e-06
6.10253e-06
6.10267e-06
6.09937e-06
6.09932e-06
6.09936e-06
6.09965e-06
6.0999e-06
6.10018e-06
6.10049e-06
6.10078e-06
6.10105e-06
6.10132e-06
6.10156e-06
6.10178e-06
6.10199e-06
6.10218e-06
6.10236e-06
6.10253e-06
6.10269e-06
6.10284e-06
6.09926e-06
6.09924e-06
6.09931e-06
6.09961e-06
6.09989e-06
6.10018e-06
6.1005e-06
6.10081e-06
6.1011e-06
6.10137e-06
6.10163e-06
6.10187e-06
6.10209e-06
6.10229e-06
6.10249e-06
6.10267e-06
6.10284e-06
6.103e-06
6.09916e-06
6.09916e-06
6.09926e-06
6.09958e-06
6.09987e-06
6.10018e-06
6.10052e-06
6.10083e-06
6.10113e-06
6.10143e-06
6.10169e-06
6.10194e-06
6.10218e-06
6.1024e-06
6.1026e-06
6.1028e-06
6.10298e-06
6.10316e-06
6.10333e-06
6.09903e-06
6.09907e-06
6.0992e-06
6.09955e-06
6.09985e-06
6.10018e-06
6.10053e-06
6.10085e-06
6.10117e-06
6.10147e-06
6.10175e-06
6.10201e-06
6.10226e-06
6.10249e-06
6.10271e-06
6.10292e-06
6.10312e-06
6.10331e-06
6.10349e-06
6.09889e-06
6.09896e-06
6.09913e-06
6.0995e-06
6.09982e-06
6.10016e-06
6.10053e-06
6.10087e-06
6.1012e-06
6.10151e-06
6.1018e-06
6.10208e-06
6.10234e-06
6.10258e-06
6.10281e-06
6.10303e-06
6.10325e-06
6.10345e-06
6.10365e-06
6.09874e-06
6.09884e-06
6.09904e-06
6.09943e-06
6.09978e-06
6.10014e-06
6.10052e-06
6.10087e-06
6.10122e-06
6.10154e-06
6.10185e-06
6.10213e-06
6.10241e-06
6.10266e-06
6.10291e-06
6.10314e-06
6.10337e-06
6.10359e-06
6.1038e-06
6.09857e-06
6.09871e-06
6.09894e-06
6.09936e-06
6.09972e-06
6.1001e-06
6.1005e-06
6.10087e-06
6.10122e-06
6.10156e-06
6.10188e-06
6.10218e-06
6.10246e-06
6.10273e-06
6.10299e-06
6.10324e-06
6.10348e-06
6.10371e-06
6.10394e-06
6.09841e-06
6.09857e-06
6.09884e-06
6.09927e-06
6.09965e-06
6.10005e-06
6.10046e-06
6.10085e-06
6.10122e-06
6.10157e-06
6.1019e-06
6.10222e-06
6.10251e-06
6.10279e-06
6.10306e-06
6.10332e-06
6.10358e-06
6.10382e-06
6.10406e-06
6.1043e-06
6.09824e-06
6.09843e-06
6.09872e-06
6.09917e-06
6.09957e-06
6.09999e-06
6.10041e-06
6.10081e-06
6.1012e-06
6.10157e-06
6.10191e-06
6.10224e-06
6.10255e-06
6.10284e-06
6.10312e-06
6.10339e-06
6.10366e-06
6.10392e-06
6.10417e-06
6.10442e-06
6.09806e-06
6.09827e-06
6.0986e-06
6.09907e-06
6.09948e-06
6.09991e-06
6.10035e-06
6.10077e-06
6.10117e-06
6.10155e-06
6.1019e-06
6.10224e-06
6.10256e-06
6.10287e-06
6.10316e-06
6.10344e-06
6.10372e-06
6.10399e-06
6.10426e-06
6.10453e-06
6.09786e-06
6.09811e-06
6.09846e-06
6.09895e-06
6.09938e-06
6.09983e-06
6.10028e-06
6.10071e-06
6.10112e-06
6.10151e-06
6.10188e-06
6.10223e-06
6.10256e-06
6.10287e-06
6.10317e-06
6.10347e-06
6.10376e-06
6.10405e-06
6.10433e-06
6.10461e-06
6.09765e-06
6.09793e-06
6.09831e-06
6.09881e-06
6.09926e-06
6.09973e-06
6.1002e-06
6.10064e-06
6.10106e-06
6.10146e-06
6.10183e-06
6.10219e-06
6.10253e-06
6.10285e-06
6.10316e-06
6.10347e-06
6.10377e-06
6.10407e-06
6.10436e-06
6.10465e-06
6.09743e-06
6.09773e-06
6.09814e-06
6.09866e-06
6.09913e-06
6.09961e-06
6.10009e-06
6.10054e-06
6.10097e-06
6.10138e-06
6.10176e-06
6.10213e-06
6.10247e-06
6.1028e-06
6.10312e-06
6.10344e-06
6.10375e-06
6.10406e-06
6.10436e-06
6.10467e-06
6.10498e-06
6.09719e-06
6.09752e-06
6.09795e-06
6.09849e-06
6.09898e-06
6.09947e-06
6.09997e-06
6.10043e-06
6.10087e-06
6.10128e-06
6.10167e-06
6.10203e-06
6.10238e-06
6.10272e-06
6.10305e-06
6.10337e-06
6.10369e-06
6.10401e-06
6.10433e-06
6.10465e-06
6.10497e-06
6.09694e-06
6.0973e-06
6.09775e-06
6.09831e-06
6.09881e-06
6.09931e-06
6.09982e-06
6.10029e-06
6.10073e-06
6.10115e-06
6.10154e-06
6.10191e-06
6.10226e-06
6.1026e-06
6.10293e-06
6.10326e-06
6.10359e-06
6.10392e-06
6.10425e-06
6.10458e-06
6.10491e-06
6.09666e-06
6.09705e-06
6.09752e-06
6.0981e-06
6.09862e-06
6.09914e-06
6.09965e-06
6.10012e-06
6.10056e-06
6.10098e-06
6.10137e-06
6.10174e-06
6.10209e-06
6.10243e-06
6.10277e-06
6.10311e-06
6.10344e-06
6.10378e-06
6.10412e-06
6.10446e-06
6.10481e-06
6.09638e-06
6.09679e-06
6.09728e-06
6.09787e-06
6.0984e-06
6.09893e-06
6.09945e-06
6.09992e-06
6.10036e-06
6.10077e-06
6.10116e-06
6.10153e-06
6.10188e-06
6.10222e-06
6.10256e-06
6.1029e-06
6.10324e-06
6.10358e-06
6.10393e-06
6.10429e-06
6.10465e-06
6.09607e-06
6.0965e-06
6.09702e-06
6.09763e-06
6.09817e-06
6.0987e-06
6.09921e-06
6.09968e-06
6.10012e-06
6.10052e-06
6.1009e-06
6.10126e-06
6.10161e-06
6.10195e-06
6.10229e-06
6.10263e-06
6.10298e-06
6.10333e-06
6.10369e-06
6.10405e-06
6.10443e-06
6.10481e-06
6.09574e-06
6.09619e-06
6.09674e-06
6.09735e-06
6.0979e-06
6.09843e-06
6.09895e-06
6.0994e-06
6.09983e-06
6.10023e-06
6.10059e-06
6.10095e-06
6.10129e-06
6.10163e-06
6.10196e-06
6.1023e-06
6.10265e-06
6.103e-06
6.10337e-06
6.10375e-06
6.10413e-06
6.10452e-06
6.09539e-06
6.09587e-06
6.09643e-06
6.09705e-06
6.09761e-06
6.09814e-06
6.09864e-06
6.09908e-06
6.09949e-06
6.09988e-06
6.10023e-06
6.10057e-06
6.1009e-06
6.10123e-06
6.10156e-06
6.1019e-06
6.10224e-06
6.1026e-06
6.10298e-06
6.10336e-06
6.10376e-06
6.10416e-06
6.09501e-06
6.09551e-06
6.09609e-06
6.09673e-06
6.09728e-06
6.0978e-06
6.09829e-06
6.09871e-06
6.09911e-06
6.09947e-06
6.0998e-06
6.10013e-06
6.10045e-06
6.10076e-06
6.10109e-06
6.10142e-06
6.10176e-06
6.10212e-06
6.1025e-06
6.10289e-06
6.1033e-06
6.10372e-06
6.09461e-06
6.09513e-06
6.09573e-06
6.09637e-06
6.09691e-06
6.09742e-06
6.09789e-06
6.09829e-06
6.09866e-06
6.099e-06
6.09931e-06
6.09962e-06
6.09991e-06
6.10022e-06
6.10053e-06
6.10085e-06
6.10119e-06
6.10155e-06
6.10193e-06
6.10233e-06
6.10274e-06
6.10317e-06
6.09419e-06
6.09472e-06
6.09533e-06
6.09597e-06
6.09651e-06
6.097e-06
6.09744e-06
6.09781e-06
6.09815e-06
6.09846e-06
6.09874e-06
6.09902e-06
6.0993e-06
6.09959e-06
6.09988e-06
6.10019e-06
6.10053e-06
6.10088e-06
6.10126e-06
6.10167e-06
6.10209e-06
6.10253e-06
6.09373e-06
6.09428e-06
6.0949e-06
6.09554e-06
6.09606e-06
6.09652e-06
6.09693e-06
6.09727e-06
6.09757e-06
6.09784e-06
6.0981e-06
6.09835e-06
6.0986e-06
6.09886e-06
6.09914e-06
6.09944e-06
6.09977e-06
6.10012e-06
6.1005e-06
6.1009e-06
6.10133e-06
6.10179e-06
6.09324e-06
6.09381e-06
6.09444e-06
6.09506e-06
6.09556e-06
6.09599e-06
6.09636e-06
6.09666e-06
6.09692e-06
6.09715e-06
6.09737e-06
6.09759e-06
6.09781e-06
6.09805e-06
6.09831e-06
6.09859e-06
6.0989e-06
6.09925e-06
6.09963e-06
6.10004e-06
6.10047e-06
6.10093e-06
6.10141e-06
6.09272e-06
6.09331e-06
6.09393e-06
6.09454e-06
6.09501e-06
6.0954e-06
6.09573e-06
6.09598e-06
6.09619e-06
6.09637e-06
6.09655e-06
6.09673e-06
6.09692e-06
6.09713e-06
6.09737e-06
6.09764e-06
6.09794e-06
6.09828e-06
6.09865e-06
6.09906e-06
6.09951e-06
6.09998e-06
6.10046e-06
6.09217e-06
6.09276e-06
6.09339e-06
6.09397e-06
6.09441e-06
6.09475e-06
6.09502e-06
6.09522e-06
6.09537e-06
6.09551e-06
6.09564e-06
6.09578e-06
6.09594e-06
6.09612e-06
6.09633e-06
6.09658e-06
6.09687e-06
6.09719e-06
6.09756e-06
6.09797e-06
6.09842e-06
6.09889e-06
6.09938e-06
6.09158e-06
6.09218e-06
6.09279e-06
6.09335e-06
6.09374e-06
6.09404e-06
6.09424e-06
6.09438e-06
6.09448e-06
6.09456e-06
6.09464e-06
6.09473e-06
6.09485e-06
6.095e-06
6.09518e-06
6.09541e-06
6.09567e-06
6.09597e-06
6.09631e-06
6.0967e-06
6.09714e-06
6.09761e-06
6.0981e-06
6.09095e-06
6.09155e-06
6.09215e-06
6.09267e-06
6.09302e-06
6.09325e-06
6.09339e-06
6.09346e-06
6.09349e-06
6.09351e-06
6.09353e-06
6.09358e-06
6.09365e-06
6.09376e-06
6.09391e-06
6.09408e-06
6.09429e-06
6.09454e-06
6.09484e-06
6.09519e-06
6.09559e-06
6.09604e-06
6.09652e-06
6.09027e-06
6.09088e-06
6.09146e-06
6.09193e-06
6.09222e-06
6.09239e-06
6.09245e-06
6.09245e-06
6.09241e-06
6.09237e-06
6.09233e-06
6.09232e-06
6.09234e-06
6.09239e-06
6.09245e-06
6.09254e-06
6.09267e-06
6.09284e-06
6.09307e-06
6.09336e-06
6.09372e-06
6.09414e-06
6.0946e-06
6.08956e-06
6.09016e-06
6.09071e-06
6.09113e-06
6.09136e-06
6.09145e-06
6.09143e-06
6.09136e-06
6.09124e-06
6.09112e-06
6.09102e-06
6.09095e-06
6.09088e-06
6.09082e-06
6.09077e-06
6.09076e-06
6.09078e-06
6.09087e-06
6.09103e-06
6.09127e-06
6.09158e-06
6.09196e-06
6.09239e-06
6.08879e-06
6.08938e-06
6.0899e-06
6.09026e-06
6.09042e-06
6.09043e-06
6.09033e-06
6.09018e-06
6.08997e-06
6.08977e-06
6.0896e-06
6.08942e-06
6.08923e-06
6.08903e-06
6.08886e-06
6.08875e-06
6.0887e-06
6.08872e-06
6.08883e-06
6.08902e-06
6.0893e-06
6.08964e-06
6.09005e-06
6.08797e-06
6.08855e-06
6.08902e-06
6.08932e-06
6.08941e-06
6.08932e-06
6.08915e-06
6.0889e-06
6.0886e-06
6.08833e-06
6.08805e-06
6.08772e-06
6.08738e-06
6.08706e-06
6.0868e-06
6.08662e-06
6.08652e-06
6.08651e-06
6.08658e-06
6.08674e-06
6.08698e-06
6.0873e-06
6.08768e-06
6.08809e-06
6.0871e-06
6.08765e-06
6.08807e-06
6.0883e-06
6.08832e-06
6.08813e-06
6.08788e-06
6.08753e-06
6.08714e-06
6.08678e-06
6.08634e-06
6.08585e-06
6.08538e-06
6.08499e-06
6.08468e-06
6.08445e-06
6.08431e-06
6.08425e-06
6.08429e-06
6.08441e-06
6.08462e-06
6.0849e-06
6.08525e-06
6.08564e-06
6.08616e-06
6.08668e-06
6.08705e-06
6.0872e-06
6.08714e-06
6.08686e-06
6.08654e-06
6.08606e-06
6.08561e-06
6.08512e-06
6.08449e-06
6.08388e-06
6.08334e-06
6.08288e-06
6.08251e-06
6.08222e-06
6.08201e-06
6.08189e-06
6.08187e-06
6.08193e-06
6.08209e-06
6.08234e-06
6.08267e-06
6.08304e-06
6.08531e-06
6.0858e-06
6.08611e-06
6.08617e-06
6.08601e-06
6.08562e-06
6.08518e-06
6.08451e-06
6.08397e-06
6.08312e-06
6.08237e-06
6.08173e-06
6.08119e-06
6.08073e-06
6.08034e-06
6.08002e-06
6.07977e-06
6.07961e-06
6.07954e-06
6.07956e-06
6.07968e-06
6.0799e-06
6.08019e-06
6.08054e-06
6.08457e-06
6.08503e-06
6.08527e-06
6.08524e-06
6.08497e-06
6.08444e-06
6.08383e-06
6.08292e-06
6.08219e-06
6.08078e-06
6.07992e-06
6.07932e-06
6.07885e-06
6.07844e-06
6.07809e-06
6.07781e-06
6.07759e-06
6.07744e-06
6.07738e-06
6.0774e-06
6.0775e-06
6.07769e-06
6.07795e-06
6.07826e-06
6.08376e-06
6.08418e-06
6.08435e-06
6.08422e-06
6.08383e-06
6.08315e-06
6.08236e-06
6.08121e-06
6.08024e-06
6.07827e-06
6.07732e-06
6.07678e-06
6.07638e-06
6.07605e-06
6.07577e-06
6.07554e-06
6.07536e-06
6.07524e-06
6.0752e-06
6.07522e-06
6.07532e-06
6.07549e-06
6.07572e-06
6.07599e-06
6.08286e-06
6.08323e-06
6.08332e-06
6.08309e-06
6.08258e-06
6.08176e-06
6.08077e-06
6.0794e-06
6.07813e-06
6.07572e-06
6.07474e-06
6.07429e-06
6.07399e-06
6.07375e-06
6.07353e-06
6.07335e-06
6.07321e-06
6.07312e-06
6.07308e-06
6.07309e-06
6.07317e-06
6.07331e-06
6.0735e-06
6.07372e-06
6.08186e-06
6.08218e-06
6.08219e-06
6.08186e-06
6.08122e-06
6.08026e-06
6.07908e-06
6.07751e-06
6.07589e-06
6.07333e-06
6.07242e-06
6.07208e-06
6.07187e-06
6.07171e-06
6.07157e-06
6.07144e-06
6.07134e-06
6.07128e-06
6.07125e-06
6.07126e-06
6.0713e-06
6.07138e-06
6.0715e-06
6.07165e-06
6.08075e-06
6.08102e-06
6.08094e-06
6.08051e-06
6.07976e-06
6.07867e-06
6.07731e-06
6.07555e-06
6.0736e-06
6.07141e-06
6.07071e-06
6.07049e-06
6.0704e-06
6.07036e-06
6.07034e-06
6.07033e-06
6.07034e-06
6.07038e-06
6.07043e-06
6.07047e-06
6.0705e-06
6.07052e-06
6.07055e-06
6.07057e-06
6.07952e-06
6.07973e-06
6.07957e-06
6.07905e-06
6.0782e-06
6.07701e-06
6.07549e-06
6.07358e-06
6.07145e-06
6.07028e-06
6.06998e-06
6.07008e-06
6.07027e-06
6.07051e-06
6.07077e-06
6.07104e-06
6.0713e-06
6.07154e-06
6.07174e-06
6.07191e-06
6.07204e-06
6.07211e-06
6.07212e-06
6.0721e-06
6.07816e-06
6.0783e-06
6.07807e-06
6.07747e-06
6.07655e-06
6.07529e-06
6.07366e-06
6.07169e-06
6.0697e-06
6.06995e-06
6.07035e-06
6.07084e-06
6.07138e-06
6.07188e-06
6.07236e-06
6.07281e-06
6.07322e-06
6.07359e-06
6.07392e-06
6.07419e-06
6.07441e-06
6.07456e-06
6.07467e-06
6.07472e-06
6.07473e-06
6.07665e-06
6.07673e-06
6.07644e-06
6.0758e-06
6.07485e-06
6.07357e-06
6.0719e-06
6.07002e-06
6.06864e-06
6.07019e-06
6.07119e-06
6.07202e-06
6.07284e-06
6.07357e-06
6.07423e-06
6.07484e-06
6.07539e-06
6.07589e-06
6.07634e-06
6.07673e-06
6.07706e-06
6.07732e-06
6.07753e-06
6.07767e-06
6.07776e-06
6.07498e-06
6.075e-06
6.07469e-06
6.07404e-06
6.07312e-06
6.0719e-06
6.07029e-06
6.06876e-06
6.06841e-06
6.07064e-06
6.07202e-06
6.07314e-06
6.07424e-06
6.0752e-06
6.07606e-06
6.07683e-06
6.07753e-06
6.07816e-06
6.07873e-06
6.07923e-06
6.07967e-06
6.08004e-06
6.08036e-06
6.08062e-06
6.08083e-06
6.07313e-06
6.07311e-06
6.0728e-06
6.07222e-06
6.07141e-06
6.07036e-06
6.06896e-06
6.06811e-06
6.06878e-06
6.07072e-06
6.07218e-06
6.07356e-06
6.07499e-06
6.07624e-06
6.07737e-06
6.0784e-06
6.07934e-06
6.08022e-06
6.08103e-06
6.08178e-06
6.08245e-06
6.08304e-06
6.08354e-06
6.08393e-06
6.08423e-06
6.07109e-06
6.07105e-06
6.0708e-06
6.07037e-06
6.06978e-06
6.06903e-06
6.06804e-06
6.06805e-06
6.06891e-06
6.06995e-06
6.0713e-06
6.07288e-06
6.07456e-06
6.076e-06
6.07725e-06
6.07834e-06
6.07931e-06
6.08021e-06
6.08105e-06
6.08187e-06
6.0827e-06
6.08353e-06
6.08438e-06
6.08521e-06
6.08603e-06
6.06882e-06
6.06879e-06
6.06869e-06
6.06852e-06
6.06828e-06
6.06799e-06
6.06764e-06
6.06788e-06
6.06829e-06
6.06844e-06
6.06983e-06
6.07202e-06
6.07473e-06
6.07739e-06
6.07997e-06
6.08245e-06
6.08479e-06
6.08701e-06
6.08907e-06
6.09097e-06
6.09271e-06
6.09425e-06
6.09559e-06
6.09669e-06
6.0976e-06
)
;

boundaryField
{
    inlet
    {
        type            freestream;
        freestreamValue uniform 1e-05;
        value           nonuniform List<scalar> 
25
(
1e-05
1e-05
1e-05
1e-05
1e-05
1e-05
1e-05
1e-05
1e-05
1e-05
6.06983e-06
6.07202e-06
6.07473e-06
6.07739e-06
6.07997e-06
6.08245e-06
6.08479e-06
6.08701e-06
6.08907e-06
6.09097e-06
6.09271e-06
6.09425e-06
6.09559e-06
6.09669e-06
6.0976e-06
)
;
    }
    outlet
    {
        type            freestream;
        freestreamValue nonuniform List<scalar> 0();
        value           nonuniform List<scalar> 0();
    }
    walls
    {
        type            nutUSpaldingWallFunction;
        value           nonuniform List<scalar> 0();
    }
    frontAndBack
    {
        type            empty;
    }
    procBoundary4to0
    {
        type            processor;
        value           nonuniform List<scalar> 
72
(
6.10309e-06
6.10308e-06
6.10297e-06
6.1028e-06
6.1026e-06
6.10235e-06
6.10207e-06
6.10176e-06
6.10147e-06
6.10125e-06
6.10109e-06
6.10096e-06
6.1008e-06
6.10061e-06
6.1004e-06
6.10024e-06
6.10012e-06
6.10005e-06
6.09999e-06
6.09989e-06
6.09976e-06
6.09962e-06
6.09962e-06
6.09953e-06
6.0994e-06
6.09926e-06
6.09912e-06
6.09896e-06
6.09878e-06
6.0986e-06
6.09841e-06
6.09822e-06
6.09802e-06
6.09781e-06
6.09759e-06
6.09735e-06
6.0971e-06
6.09683e-06
6.09655e-06
6.09626e-06
6.09594e-06
6.09561e-06
6.09526e-06
6.09488e-06
6.09449e-06
6.09406e-06
6.09362e-06
6.09314e-06
6.09264e-06
6.0921e-06
6.09154e-06
6.09093e-06
6.0903e-06
6.08962e-06
6.0889e-06
6.08813e-06
6.08732e-06
6.08646e-06
6.08553e-06
6.0847e-06
6.08397e-06
6.08318e-06
6.08231e-06
6.08134e-06
6.08027e-06
6.07908e-06
6.07777e-06
6.07632e-06
6.07472e-06
6.07294e-06
6.07097e-06
6.06878e-06
)
;
    }
    procBoundary4to5
    {
        type            processor;
        value           nonuniform List<scalar> 
95
(
6.10301e-06
6.10322e-06
6.10316e-06
6.10265e-06
6.10265e-06
6.10246e-06
6.10176e-06
6.10176e-06
6.10151e-06
6.1009e-06
6.1009e-06
6.10037e-06
6.10037e-06
6.09995e-06
6.09978e-06
6.09978e-06
6.09969e-06
6.09969e-06
6.09977e-06
6.09991e-06
6.09991e-06
6.1001e-06
6.10028e-06
6.10028e-06
6.10048e-06
6.10066e-06
6.10066e-06
6.10089e-06
6.10107e-06
6.10126e-06
6.10126e-06
6.1015e-06
6.10169e-06
6.10187e-06
6.10187e-06
6.10213e-06
6.10231e-06
6.10249e-06
6.10249e-06
6.10279e-06
6.10297e-06
6.10315e-06
6.10315e-06
6.10348e-06
6.10366e-06
6.10384e-06
6.104e-06
6.10415e-06
6.10415e-06
6.10452e-06
6.10466e-06
6.10478e-06
6.10488e-06
6.10494e-06
6.10494e-06
6.10527e-06
6.10528e-06
6.10524e-06
6.10516e-06
6.10501e-06
6.10501e-06
6.10518e-06
6.10491e-06
6.10457e-06
6.10413e-06
6.10361e-06
6.10298e-06
6.10224e-06
6.10224e-06
6.10187e-06
6.10093e-06
6.09987e-06
6.0986e-06
6.09702e-06
6.09509e-06
6.09286e-06
6.09049e-06
6.09049e-06
6.08852e-06
6.08605e-06
6.08344e-06
6.08092e-06
6.0786e-06
6.07629e-06
6.07397e-06
6.07181e-06
6.0706e-06
6.07205e-06
6.07205e-06
6.0747e-06
6.0778e-06
6.08101e-06
6.08444e-06
6.08687e-06
6.09829e-06
)
;
    }
}


// ************************************************************************* //
