/*--------------------------------*- C++ -*----------------------------------*\
| =========                 |                                                 |
| \\      /  F ield         | OpenFOAM: The Open Source CFD Toolbox           |
|  \\    /   O peration     | Version:  2306                                  |
|   \\  /    A nd           | Website:  www.openfoam.com                      |
|    \\/     M anipulation  |                                                 |
\*---------------------------------------------------------------------------*/
FoamFile
{
    version     2.0;
    format      ascii;
    arch        "LSB;label=32;scalar=64";
    class       volScalarField;
    location    "225";
    object      turbulenceProperties:I;
}
// * * * * * * * * * * * * * * * * * * * * * * * * * * * * * * * * * * * * * //

dimensions      [0 0 0 0 0 0 0];

internalField   nonuniform List<scalar> 
1340
(
0.000780626
0.000749924
0.000719542
0.000716749
0.000691399
0.000666101
0.000641965
0.000617888
0.000659871
0.000638884
0.00061778
0.000597593
0.000577321
0.000557588
0.000538556
0.000608959
0.000591524
0.000573874
0.000556944
0.00053984
0.000523132
0.000506959
0.000491113
0.000563264
0.000548744
0.000533954
0.000519741
0.000505315
0.000491166
0.000477431
0.000463925
0.000450735
0.000522098
0.000509985
0.000497562
0.000485614
0.000473444
0.000461456
0.000449794
0.000438294
0.000427025
0.000484893
0.000474767
0.000464318
0.000454278
0.000444004
0.000433856
0.000423968
0.000414191
0.000404587
0.000395094
0.000451152
0.00044267
0.000433883
0.000425442
0.000416772
0.00040819
0.000399819
0.000391515
0.000383342
0.000375242
0.000367139
0.000420451
0.000413341
0.000405956
0.000398857
0.000391552
0.000384302
0.000377225
0.000370191
0.000363259
0.000356371
0.000349464
0.000392426
0.000386477
0.000380265
0.00037431
0.000368161
0.000362055
0.000356083
0.000350142
0.000344277
0.000338439
0.000332562
0.000326641
0.000366776
0.000361802
0.000356586
0.000351599
0.00034644
0.000341304
0.000336285
0.000331282
0.000326337
0.000321407
0.000316435
0.00031141
0.000343239
0.000339085
0.000334716
0.000330551
0.000326236
0.000321932
0.000317729
0.000313534
0.000309384
0.000305243
0.000301056
0.000296811
0.000292474
0.000321579
0.000318126
0.000314473
0.000311014
0.000307418
0.000303828
0.000300327
0.000296827
0.000293364
0.000289902
0.000286395
0.000282834
0.00027918
0.000301605
0.000298743
0.000295704
0.000292847
0.000289866
0.000286891
0.00028399
0.000281092
0.000278221
0.00027535
0.000272435
0.000269469
0.000266414
0.000263256
0.000283143
0.000280784
0.000278273
0.000275925
0.000273474
0.000271025
0.000268644
0.000266259
0.000263901
0.000261539
0.000259138
0.000256686
0.000254155
0.000251528
0.000266045
0.000264113
0.000262057
0.000260144
0.000258147
0.000256151
0.000254214
0.000252276
0.000250358
0.000248437
0.00024648
0.000244477
0.000242403
0.000240237
0.000250181
0.000248615
0.000246943
0.000245406
0.000243796
0.00024219
0.000240635
0.000239082
0.000237544
0.000236005
0.000234431
0.000232817
0.000231138
0.000229377
0.000227528
0.000235435
0.000234183
0.00023284
0.000231623
0.000230347
0.000229073
0.000227849
0.000226626
0.000225417
0.000224205
0.000222963
0.000221686
0.00022035
0.000218943
0.000217454
0.000221707
0.000220724
0.00021966
0.000218719
0.00021773
0.000216741
0.000215801
0.00021486
0.000213935
0.000213005
0.000212049
0.000211061
0.000210023
0.000208921
0.000207745
0.000208907
0.000208152
0.00020733
0.000206622
0.000205877
0.000205135
0.000204438
0.00020374
0.000203056
0.00020237
0.000201659
0.000200922
0.000200141
0.000199304
0.000198402
0.000197427
0.000196956
0.000196394
0.000195779
0.000195272
0.000194735
0.000194205
0.000193714
0.000193226
0.000192749
0.000192272
0.000191773
0.000191251
0.00019069
0.000190081
0.000189413
0.000188683
0.000185782
0.000185386
0.000184946
0.00018461
0.000184252
0.000183901
0.000183588
0.000183279
0.00018298
0.000182681
0.000182363
0.000182024
0.000181652
0.000181238
0.000180775
0.000180256
0.000175495
0.000175323
0.000175066
0.000174777
0.000174585
0.000174379
0.000174182
0.00017402
0.000173863
0.000173715
0.000173567
0.000173404
0.000173222
0.000173012
0.000172765
0.000172476
0.000172137
0.000171745
0.000165592
0.000165521
0.000165383
0.000165221
0.000165152
0.000165075
0.000165008
0.000164975
0.000164947
0.000164927
0.000164909
0.000164875
0.000164827
0.000164754
0.000164649
0.000164509
0.000164325
0.000164096
0.000156311
0.000156326
0.000156287
0.000156234
0.000156268
0.0001563
0.000156343
0.000156419
0.0001565
0.00015659
0.000156679
0.000156757
0.000156821
0.000156864
0.00015688
0.000156865
0.000156813
0.000156721
0.000147606
0.000147692
0.000147736
0.000147774
0.000147895
0.000148018
0.000148154
0.000148321
0.000148495
0.000148676
0.000148857
0.000149027
0.000149186
0.000149326
0.000149442
0.000149533
0.000149593
0.000149616
0.000149603
0.000139433
0.000139576
0.00013969
0.000139804
0.000139997
0.000140197
0.000140411
0.000140655
0.000140906
0.000141162
0.000141419
0.000141667
0.000141904
0.000142125
0.000142326
0.000142505
0.000142657
0.000142778
0.000142867
0.000131752
0.000131942
0.000132114
0.000132291
0.000132544
0.000132808
0.000133087
0.000133395
0.000133708
0.000134028
0.000134348
0.00013466
0.000134962
0.000135249
0.00013552
0.000135771
0.000135999
0.0001362
0.000136373
0.000124526
0.000124756
0.000124974
0.000125203
0.000125506
0.000125822
0.000126154
0.000126513
0.000126879
0.000127252
0.000127624
0.000127987
0.000128342
0.000128684
0.000129012
0.000129322
0.000129612
0.000129878
0.00013012
0.000117725
0.000117984
0.000118241
0.000118512
0.000118855
0.000119214
0.00011959
0.000119992
0.000120401
0.000120815
0.000121228
0.000121634
0.000122032
0.000122418
0.00012279
0.000123147
0.000123487
0.000123807
0.000124103
0.000111318
0.000111601
0.000111887
0.000112192
0.000112567
0.000112961
0.000113372
0.000113808
0.000114252
0.000114699
0.000115146
0.000115585
0.000116017
0.000116437
0.000116845
0.000117239
0.000117618
0.000117979
0.000118318
0.000118635
0.000105278
0.000105578
0.000105887
0.00010622
0.000106619
0.000107041
0.00010748
0.000107944
0.000108415
0.000108889
0.000109362
0.000109826
0.000110284
0.000110731
0.000111166
0.000111589
0.000111997
0.000112389
0.000112762
0.000113112
9.958e-05
9.9892e-05
0.000100218
0.000100573
0.000100991
0.000101434
0.000101896
0.00010238
0.000102872
0.000103367
0.000103859
0.000104344
0.000104821
0.000105287
0.000105743
0.000106186
0.000106616
0.000107031
0.000107428
0.000107803
9.42013e-05
9.4521e-05
9.48598e-05
9.52306e-05
9.56637e-05
9.61223e-05
9.66009e-05
9.71016e-05
9.7609e-05
9.8119e-05
9.86262e-05
9.91252e-05
9.96157e-05
0.000100096
0.000100566
0.000101024
0.000101469
0.000101899
0.000102312
0.000102704
8.91211e-05
8.94444e-05
8.9792e-05
9.01741e-05
9.06176e-05
9.10881e-05
9.15793e-05
9.20918e-05
9.26111e-05
9.31319e-05
9.36492e-05
9.41579e-05
9.4658e-05
9.51474e-05
9.56262e-05
9.6093e-05
9.65473e-05
9.69869e-05
9.74098e-05
9.78119e-05
8.43197e-05
8.46436e-05
8.49963e-05
8.53864e-05
8.58364e-05
8.63152e-05
8.68156e-05
8.73364e-05
8.7864e-05
8.8392e-05
8.8916e-05
8.94311e-05
8.99367e-05
9.04311e-05
9.09144e-05
9.13856e-05
9.18442e-05
9.22883e-05
9.27156e-05
9.31219e-05
9.35035e-05
7.97793e-05
8.01013e-05
8.04559e-05
8.08511e-05
8.13047e-05
8.17892e-05
8.22957e-05
8.28221e-05
8.33551e-05
8.38878e-05
8.44154e-05
8.49336e-05
8.54412e-05
8.59374e-05
8.6422e-05
8.68941e-05
8.73529e-05
8.77968e-05
8.82238e-05
8.86298e-05
8.90105e-05
7.54833e-05
7.58013e-05
7.61556e-05
7.65531e-05
7.70083e-05
7.74958e-05
7.80061e-05
7.85363e-05
7.90723e-05
7.96071e-05
8.01361e-05
8.06548e-05
8.11622e-05
8.16576e-05
8.21405e-05
8.26103e-05
8.30663e-05
8.35073e-05
8.39303e-05
8.43321e-05
8.4708e-05
7.14164e-05
7.17287e-05
7.20805e-05
7.24783e-05
7.29333e-05
7.34222e-05
7.39348e-05
7.44665e-05
7.50038e-05
7.55394e-05
7.60679e-05
7.65856e-05
7.70908e-05
7.75832e-05
7.8062e-05
7.85273e-05
7.89779e-05
7.94124e-05
7.98287e-05
8.02231e-05
8.0591e-05
6.75643e-05
6.78695e-05
6.82173e-05
6.86136e-05
6.90672e-05
6.95561e-05
7.00698e-05
7.06018e-05
7.11393e-05
7.16743e-05
7.22012e-05
7.27161e-05
7.32178e-05
7.37052e-05
7.41785e-05
7.46372e-05
7.50803e-05
7.55065e-05
7.59137e-05
7.62985e-05
7.66555e-05
6.39139e-05
6.42107e-05
6.45531e-05
6.4947e-05
6.53979e-05
6.58862e-05
6.63999e-05
6.69319e-05
6.7469e-05
6.80022e-05
6.85264e-05
6.90375e-05
6.95344e-05
7.00161e-05
7.04826e-05
7.09332e-05
7.13674e-05
7.17838e-05
7.21802e-05
7.25533e-05
7.28982e-05
7.32116e-05
6.04527e-05
6.07403e-05
6.10766e-05
6.14669e-05
6.19146e-05
6.24017e-05
6.29153e-05
6.34467e-05
6.39826e-05
6.45137e-05
6.50346e-05
6.55414e-05
6.60328e-05
6.65079e-05
6.69665e-05
6.74082e-05
6.78326e-05
6.8238e-05
6.86222e-05
6.89824e-05
6.93141e-05
6.96129e-05
5.71693e-05
5.74471e-05
5.77764e-05
5.81625e-05
5.8607e-05
5.90928e-05
5.9606e-05
6.01366e-05
6.06712e-05
6.12001e-05
6.17176e-05
6.22198e-05
6.27052e-05
6.31731e-05
6.36232e-05
6.40555e-05
6.44692e-05
6.48627e-05
6.5234e-05
6.55806e-05
6.58978e-05
6.61816e-05
5.40529e-05
5.43204e-05
5.46421e-05
5.50239e-05
5.54654e-05
5.59499e-05
5.6463e-05
5.69929e-05
5.75264e-05
5.80531e-05
5.8567e-05
5.90646e-05
5.9544e-05
6.00045e-05
6.04459e-05
6.08682e-05
6.12707e-05
6.16519e-05
6.20102e-05
6.23425e-05
6.26447e-05
6.29132e-05
5.10935e-05
5.13503e-05
5.16642e-05
5.20418e-05
5.24803e-05
5.2964e-05
5.34775e-05
5.40072e-05
5.45399e-05
5.50646e-05
5.55753e-05
5.60683e-05
5.65416e-05
5.69947e-05
5.74275e-05
5.78398e-05
5.8231e-05
5.86e-05
5.89449e-05
5.92626e-05
5.95497e-05
5.98028e-05
4.82816e-05
4.85274e-05
4.88336e-05
4.92071e-05
4.96433e-05
5.01271e-05
5.06414e-05
5.11716e-05
5.1704e-05
5.22274e-05
5.27352e-05
5.32239e-05
5.36913e-05
5.41371e-05
5.45614e-05
5.49639e-05
5.53439e-05
5.57006e-05
5.60319e-05
5.63354e-05
5.66077e-05
5.68455e-05
4.56085e-05
4.58433e-05
4.61417e-05
4.65116e-05
4.69465e-05
4.74311e-05
4.7947e-05
4.84785e-05
4.90114e-05
4.95339e-05
5.00394e-05
5.05241e-05
5.09861e-05
5.14251e-05
5.18411e-05
5.22339e-05
5.26031e-05
5.29478e-05
5.32661e-05
5.35558e-05
5.38135e-05
5.40361e-05
4.30658e-05
4.32896e-05
4.35805e-05
4.39476e-05
4.43822e-05
4.48685e-05
4.53871e-05
4.59208e-05
4.64549e-05
4.69772e-05
4.74809e-05
4.79624e-05
4.84196e-05
4.88521e-05
4.92602e-05
4.9644e-05
5.00031e-05
5.03364e-05
5.06424e-05
5.09187e-05
5.11624e-05
5.13707e-05
5.15407e-05
4.0646e-05
4.08587e-05
4.11424e-05
4.15079e-05
4.19431e-05
4.24323e-05
4.29548e-05
4.34915e-05
4.40279e-05
4.45508e-05
4.50535e-05
4.55325e-05
4.59854e-05
4.6412e-05
4.68131e-05
4.71886e-05
4.75383e-05
4.78611e-05
4.81555e-05
4.84192e-05
4.86497e-05
4.88444e-05
4.90009e-05
3.83416e-05
3.85434e-05
3.88205e-05
3.91856e-05
3.96226e-05
4.01158e-05
4.06435e-05
4.11842e-05
4.17238e-05
4.22482e-05
4.27509e-05
4.32283e-05
4.36776e-05
4.4099e-05
4.44937e-05
4.4862e-05
4.52031e-05
4.5516e-05
4.57993e-05
4.60509e-05
4.62686e-05
4.64503e-05
4.6594e-05
3.61458e-05
3.63367e-05
3.66082e-05
3.69742e-05
3.74142e-05
3.7913e-05
3.84469e-05
3.89925e-05
3.95364e-05
4.0063e-05
4.05667e-05
4.10437e-05
4.14902e-05
4.1907e-05
4.22962e-05
4.26577e-05
4.29903e-05
4.3293e-05
4.35648e-05
4.3804e-05
4.40089e-05
4.41778e-05
4.43092e-05
3.40523e-05
3.42325e-05
3.44992e-05
3.48678e-05
3.53118e-05
3.5818e-05
3.6359e-05
3.69103e-05
3.74598e-05
3.7989e-05
3.8495e-05
3.8973e-05
3.94173e-05
3.98296e-05
4.0213e-05
4.05667e-05
4.08894e-05
4.11804e-05
4.14393e-05
4.16653e-05
4.18568e-05
4.20128e-05
4.21324e-05
3.20548e-05
3.22248e-05
3.24879e-05
3.28604e-05
3.33098e-05
3.38253e-05
3.43739e-05
3.49321e-05
3.54883e-05
3.60198e-05
3.65308e-05
3.70115e-05
3.74521e-05
3.78576e-05
3.8233e-05
3.85768e-05
3.88873e-05
3.9165e-05
3.94104e-05
3.9623e-05
3.98014e-05
3.99449e-05
4.00532e-05
3.01481e-05
3.03085e-05
3.05691e-05
3.0947e-05
3.14028e-05
3.19298e-05
3.24851e-05
3.30523e-05
3.36156e-05
3.41485e-05
3.46705e-05
3.5155e-05
3.55858e-05
3.59789e-05
3.63437e-05
3.66764e-05
3.69745e-05
3.72397e-05
3.74732e-05
3.76742e-05
3.78414e-05
3.79739e-05
3.80718e-05
2.83279e-05
2.84797e-05
2.87389e-05
2.91232e-05
2.95863e-05
3.01264e-05
3.06855e-05
3.12655e-05
3.18336e-05
3.23654e-05
3.29066e-05
3.33936e-05
3.38061e-05
3.41828e-05
3.45387e-05
3.48638e-05
3.51533e-05
3.541e-05
3.56354e-05
3.58278e-05
3.59856e-05
3.61082e-05
3.61961e-05
2.65899e-05
2.67337e-05
2.69931e-05
2.73849e-05
2.78577e-05
2.84117e-05
2.89703e-05
2.95705e-05
3.0132e-05
3.06599e-05
3.12306e-05
3.17123e-05
3.20995e-05
3.24661e-05
3.28232e-05
3.31477e-05
3.34337e-05
3.36865e-05
3.39072e-05
3.40933e-05
3.42431e-05
3.43566e-05
3.44351e-05
3.4482e-05
2.49317e-05
2.50676e-05
2.53294e-05
2.5731e-05
2.62157e-05
2.67833e-05
2.73395e-05
2.79709e-05
2.84894e-05
2.90357e-05
2.96665e-05
3.01161e-05
3.04571e-05
3.08279e-05
3.12026e-05
3.15316e-05
3.1815e-05
3.20649e-05
3.22819e-05
3.24622e-05
3.26041e-05
3.27089e-05
3.27791e-05
3.28176e-05
2.33763e-05
2.35036e-05
2.37682e-05
2.41772e-05
2.46707e-05
2.5243e-05
2.57935e-05
2.64545e-05
2.68714e-05
2.74893e-05
2.82256e-05
2.86129e-05
2.8872e-05
2.92658e-05
2.96822e-05
3.00225e-05
3.03036e-05
3.05515e-05
3.07659e-05
3.09406e-05
3.10747e-05
3.1171e-05
3.12333e-05
3.12671e-05
2.20478e-05
2.21638e-05
2.24219e-05
2.28169e-05
2.32957e-05
2.38328e-05
2.43487e-05
2.49805e-05
2.52488e-05
2.59466e-05
2.67764e-05
2.71094e-05
2.73309e-05
2.77959e-05
2.82895e-05
2.86691e-05
2.89709e-05
2.92359e-05
2.94643e-05
2.96483e-05
2.97879e-05
2.98858e-05
2.99476e-05
2.99795e-05
2.09377e-05
2.10404e-05
2.12783e-05
2.16382e-05
2.20754e-05
2.25382e-05
2.29932e-05
2.35152e-05
2.36774e-05
2.43261e-05
2.51971e-05
2.55323e-05
2.58224e-05
2.63815e-05
2.69581e-05
2.74017e-05
2.77519e-05
2.80554e-05
2.83157e-05
2.85248e-05
2.86823e-05
2.87915e-05
2.88597e-05
2.88911e-05
1.98672e-05
1.99587e-05
2.01749e-05
2.05e-05
2.08919e-05
2.12801e-05
2.16768e-05
2.20738e-05
2.21698e-05
2.26896e-05
2.35576e-05
2.39283e-05
2.4343e-05
2.4981e-05
2.56214e-05
2.61308e-05
2.65372e-05
2.68831e-05
2.71766e-05
2.74113e-05
2.7586e-05
2.77058e-05
2.77797e-05
2.7815e-05
1.87627e-05
1.88451e-05
1.9042e-05
1.93354e-05
1.96831e-05
2.00041e-05
2.03502e-05
2.06277e-05
2.06798e-05
2.10819e-05
2.1943e-05
2.23408e-05
2.28971e-05
2.36117e-05
2.4303e-05
2.48692e-05
2.53284e-05
2.57136e-05
2.60362e-05
2.62935e-05
2.64843e-05
2.66143e-05
2.66916e-05
2.67232e-05
1.7649e-05
1.77242e-05
1.79022e-05
1.8165e-05
1.84658e-05
1.87255e-05
1.9019e-05
1.91807e-05
1.91998e-05
1.94892e-05
2.03434e-05
2.07569e-05
2.14674e-05
2.22657e-05
2.30017e-05
2.36162e-05
2.41246e-05
2.45477e-05
2.4897e-05
2.51737e-05
2.53784e-05
2.55184e-05
2.56039e-05
2.56454e-05
1.65309e-05
1.65996e-05
1.67573e-05
1.69873e-05
1.72362e-05
1.74406e-05
1.76732e-05
1.77273e-05
1.77197e-05
1.78997e-05
1.87483e-05
1.91767e-05
2.00463e-05
2.09344e-05
2.17157e-05
2.23747e-05
2.29303e-05
2.33922e-05
2.37692e-05
2.40636e-05
2.42756e-05
2.44094e-05
2.44721e-05
2.44765e-05
1.54238e-05
1.54852e-05
1.56161e-05
1.58033e-05
1.599e-05
1.61408e-05
1.62969e-05
1.62636e-05
1.6228e-05
1.63042e-05
1.71407e-05
1.75954e-05
1.86263e-05
1.96131e-05
2.04472e-05
2.11519e-05
2.17538e-05
2.22546e-05
2.2662e-05
2.29836e-05
2.32258e-05
2.33984e-05
2.35164e-05
2.35935e-05
1.43427e-05
1.43953e-05
1.44904e-05
1.46166e-05
1.47227e-05
1.48072e-05
1.48582e-05
1.47721e-05
1.46895e-05
1.46884e-05
1.55118e-05
1.60185e-05
1.72081e-05
1.83044e-05
1.92033e-05
1.99612e-05
2.06143e-05
2.11521e-05
2.15702e-05
2.18738e-05
2.20676e-05
2.2154e-05
2.21397e-05
2.20512e-05
2.19321e-05
1.32932e-05
1.33374e-05
1.33892e-05
1.34354e-05
1.34384e-05
1.34234e-05
1.33253e-05
1.32217e-05
1.30198e-05
1.30423e-05
1.38775e-05
1.44621e-05
1.58103e-05
1.70297e-05
1.79981e-05
1.8812e-05
1.95371e-05
2.01635e-05
2.06816e-05
2.10994e-05
2.14348e-05
2.17154e-05
2.19732e-05
2.22093e-05
2.23794e-05
1.22902e-05
1.23196e-05
1.23052e-05
1.22394e-05
1.21122e-05
1.19615e-05
1.17019e-05
1.16239e-05
1.11863e-05
1.15354e-05
1.23242e-05
1.29486e-05
1.44611e-05
1.5832e-05
1.68775e-05
1.77184e-05
1.844e-05
1.90386e-05
1.95063e-05
1.98443e-05
2.00453e-05
2.01025e-05
2.00349e-05
1.99299e-05
1.99012e-05
1.1432e-05
1.14151e-05
1.12562e-05
1.09774e-05
1.06334e-05
1.0295e-05
9.94772e-06
1.00092e-05
9.42129e-06
1.06238e-05
1.10513e-05
1.15426e-05
1.31421e-05
1.46647e-05
1.59046e-05
1.70173e-05
1.80608e-05
1.90082e-05
1.9854e-05
2.06296e-05
2.13851e-05
2.2175e-05
2.30059e-05
2.37602e-05
2.42867e-05
1.08921e-05
1.07966e-05
1.04113e-05
9.76706e-06
8.97517e-06
8.19621e-06
7.74647e-06
8.12902e-06
8.0117e-06
1.01238e-05
1.023e-05
1.06574e-05
1.20771e-05
1.34909e-05
1.47742e-05
1.61169e-05
1.75133e-05
1.88773e-05
2.01615e-05
2.1345e-05
2.24056e-05
2.33281e-05
2.4116e-05
2.47564e-05
2.52707e-05
1.0634e-05
1.04832e-05
9.935e-06
8.97802e-06
7.62434e-06
5.83997e-06
4.70832e-06
6.10999e-06
7.4008e-06
9.20262e-06
8.47876e-06
1.06436e-05
1.34151e-05
1.58899e-05
1.81138e-05
2.01654e-05
2.20915e-05
2.39034e-05
2.55875e-05
2.71239e-05
2.84707e-05
2.95697e-05
3.03473e-05
3.07873e-05
3.10814e-05
)
;

boundaryField
{
    inlet
    {
        type            calculated;
        value           nonuniform List<scalar> 
25
(
1.06135e-05
1.04531e-05
9.89082e-06
8.90034e-06
7.4518e-06
5.4047e-06
4.32965e-06
6.48025e-06
8.26483e-06
7.99976e-06
1.16013e-05
1.59889e-05
2.09063e-05
2.56243e-05
3.01136e-05
3.44174e-05
3.85789e-05
4.26072e-05
4.64929e-05
5.02103e-05
5.37159e-05
5.69336e-05
5.97778e-05
6.21598e-05
6.41029e-05
)
;
    }
    outlet
    {
        type            calculated;
        value           nonuniform List<scalar> 0();
    }
    walls
    {
        type            calculated;
        value           nonuniform List<scalar> 0();
    }
    frontAndBack
    {
        type            empty;
    }
    procBoundary4to0
    {
        type            processor;
        value           nonuniform List<scalar> 
72
(
0.000809595
0.000740415
0.000679267
0.000624923
0.000576456
0.00053304
0.000493981
0.000458704
0.000426734
0.000397661
0.000371132
0.000346853
0.00032457
0.000304067
0.000285159
0.000267683
0.000251496
0.000236475
0.000222514
0.000209515
0.000197394
0.000186076
0.000186076
0.00017561
0.000165617
0.000156262
0.000147496
0.000139272
0.00013155
0.000124294
0.000117468
0.000111042
0.00010499
9.92841e-05
9.39018e-05
8.88211e-05
8.40222e-05
7.94869e-05
7.51981e-05
7.11402e-05
6.72985e-05
6.36594e-05
6.02104e-05
5.69399e-05
5.38368e-05
5.08911e-05
4.80931e-05
4.54339e-05
4.29051e-05
4.0499e-05
3.82083e-05
3.6026e-05
3.39455e-05
3.19609e-05
3.0067e-05
2.82596e-05
2.65339e-05
2.48871e-05
2.33403e-05
2.2015e-05
2.09061e-05
1.98377e-05
1.87353e-05
1.76236e-05
1.6506e-05
1.53964e-05
1.4309e-05
1.32481e-05
1.2224e-05
1.13298e-05
1.07506e-05
1.0474e-05
)
;
    }
    procBoundary4to5
    {
        type            processor;
        value           nonuniform List<scalar> 
95
(
0.000852156
0.000814764
0.000778089
0.000690686
0.000690686
0.000662099
0.000594552
0.000594552
0.000572145
0.000519994
0.000519994
0.000475691
0.000475691
0.000437775
0.000415919
0.000415919
0.000385624
0.000385624
0.000359022
0.000342516
0.000342516
0.000320619
0.000306289
0.000306289
0.000288014
0.000275415
0.000275415
0.000259973
0.000248786
0.000237971
0.000237971
0.00022557
0.000215869
0.000206486
0.000206486
0.000196367
0.00018788
0.000179673
0.000179673
0.000171292
0.000163815
0.000156584
0.000156584
0.000149543
0.000142915
0.000136511
0.000130331
0.000124373
0.000124373
0.000118919
0.000113435
0.000108151
0.00010307
9.81885e-05
9.81885e-05
9.38534e-05
8.93609e-05
8.50531e-05
8.09275e-05
7.69814e-05
7.69814e-05
7.34832e-05
6.98713e-05
6.64252e-05
6.31418e-05
6.00162e-05
5.70438e-05
5.422e-05
5.422e-05
5.16698e-05
4.91181e-05
4.66993e-05
4.44034e-05
4.22164e-05
4.01273e-05
3.81367e-05
3.62521e-05
3.62521e-05
3.45023e-05
3.28301e-05
3.12768e-05
2.99859e-05
2.88928e-05
2.78202e-05
2.67204e-05
2.56548e-05
2.4441e-05
2.36333e-05
2.36333e-05
2.18136e-05
2.24683e-05
1.99631e-05
2.45901e-05
2.57615e-05
3.11055e-05
)
;
    }
}


// ************************************************************************* //
