/*--------------------------------*- C++ -*----------------------------------*\
| =========                 |                                                 |
| \\      /  F ield         | OpenFOAM: The Open Source CFD Toolbox           |
|  \\    /   O peration     | Version:  2306                                  |
|   \\  /    A nd           | Website:  www.openfoam.com                      |
|    \\/     M anipulation  |                                                 |
\*---------------------------------------------------------------------------*/
FoamFile
{
    version     2.0;
    format      ascii;
    arch        "LSB;label=32;scalar=64";
    class       volScalarField;
    location    "225";
    object      turbulenceProperties:epsilon;
}
// * * * * * * * * * * * * * * * * * * * * * * * * * * * * * * * * * * * * * //

dimensions      [0 2 -3 0 0 0 0];

internalField   nonuniform List<scalar> 
1340
(
0.000201168
0.000204229
0.000206613
0.000145287
0.000147908
0.000150136
0.000151574
0.000152171
0.000106343
0.000108533
0.000110498
0.000111987
0.000112961
0.000113339
0.000112937
7.8691e-05
8.0483e-05
8.21483e-05
8.35187e-05
8.45741e-05
8.52569e-05
8.54195e-05
8.50134e-05
5.87965e-05
6.02489e-05
6.16336e-05
6.28363e-05
6.38545e-05
6.46325e-05
6.5064e-05
6.51135e-05
6.47467e-05
4.43022e-05
4.54741e-05
4.66073e-05
4.76319e-05
4.8553e-05
4.93154e-05
4.98486e-05
5.01256e-05
5.01125e-05
3.36306e-05
3.45713e-05
3.54919e-05
3.63524e-05
3.71536e-05
3.78545e-05
3.84028e-05
3.87789e-05
3.89547e-05
3.88935e-05
2.56976e-05
2.64495e-05
2.71962e-05
2.79092e-05
2.85909e-05
2.92105e-05
2.97294e-05
3.01296e-05
3.03924e-05
3.04876e-05
3.03989e-05
1.97497e-05
2.03499e-05
2.0955e-05
2.15396e-05
2.21132e-05
2.26471e-05
2.31145e-05
2.35022e-05
2.37955e-05
2.39704e-05
2.40154e-05
1.52559e-05
1.57368e-05
1.6224e-05
1.67032e-05
1.718e-05
1.76342e-05
1.80426e-05
1.83987e-05
1.86894e-05
1.88968e-05
1.90102e-05
1.90202e-05
1.18388e-05
1.22237e-05
1.26165e-05
1.30072e-05
1.34017e-05
1.37824e-05
1.41338e-05
1.44498e-05
1.47206e-05
1.49329e-05
1.50791e-05
1.51505e-05
9.22497e-06
9.53287e-06
9.84945e-06
1.01674e-05
1.04921e-05
1.08088e-05
1.11068e-05
1.13814e-05
1.16248e-05
1.18273e-05
1.1983e-05
1.20846e-05
1.21245e-05
7.21421e-06
7.46125e-06
7.71591e-06
7.97464e-06
8.24069e-06
8.50289e-06
8.75331e-06
8.98823e-06
9.20185e-06
9.3865e-06
9.53813e-06
9.65139e-06
9.71949e-06
5.66025e-06
5.85828e-06
6.06346e-06
6.27374e-06
6.49108e-06
6.70745e-06
6.91609e-06
7.11508e-06
7.29928e-06
7.46347e-06
7.60426e-06
7.71783e-06
7.7986e-06
7.84344e-06
4.45399e-06
4.61283e-06
4.77844e-06
4.94881e-06
5.12623e-06
5.30399e-06
5.47718e-06
5.64401e-06
5.8011e-06
5.94396e-06
6.07065e-06
6.17763e-06
6.26144e-06
6.31911e-06
3.514e-06
3.64148e-06
3.77525e-06
3.91324e-06
4.05786e-06
4.20353e-06
4.34658e-06
4.48583e-06
4.61838e-06
4.74116e-06
4.85255e-06
4.94999e-06
5.03093e-06
5.09273e-06
2.779e-06
2.8814e-06
2.9893e-06
3.10113e-06
3.21879e-06
3.33797e-06
3.45564e-06
3.57135e-06
3.68244e-06
3.78686e-06
3.88322e-06
3.96988e-06
4.04458e-06
4.10559e-06
4.15092e-06
2.20239e-06
2.28476e-06
2.37176e-06
2.46233e-06
2.55801e-06
2.65525e-06
2.75195e-06
2.8476e-06
2.94028e-06
3.02828e-06
3.11072e-06
3.18635e-06
3.25347e-06
3.31089e-06
3.35682e-06
1.74873e-06
1.81507e-06
1.88519e-06
1.95855e-06
2.03632e-06
2.11553e-06
2.19486e-06
2.27362e-06
2.3506e-06
2.4243e-06
2.4942e-06
2.5592e-06
2.61834e-06
2.6705e-06
2.71433e-06
1.39092e-06
1.4443e-06
1.50089e-06
1.56026e-06
1.62337e-06
1.68791e-06
1.75278e-06
1.81751e-06
1.88114e-06
1.94257e-06
2.00135e-06
2.0568e-06
2.10809e-06
2.15443e-06
2.19483e-06
2.22826e-06
1.10803e-06
1.15097e-06
1.19665e-06
1.24471e-06
1.29587e-06
1.34842e-06
1.40138e-06
1.45449e-06
1.50692e-06
1.55792e-06
1.6071e-06
1.65397e-06
1.69789e-06
1.73838e-06
1.77456e-06
1.80577e-06
8.83864e-07
9.18446e-07
9.553e-07
9.94186e-07
1.03568e-06
1.07839e-06
1.12158e-06
1.16509e-06
1.20819e-06
1.25034e-06
1.29127e-06
1.33062e-06
1.3679e-06
1.40278e-06
1.43468e-06
1.46296e-06
6.81357e-07
7.05926e-07
7.33759e-07
7.63499e-07
7.94946e-07
8.28573e-07
8.63255e-07
8.98443e-07
9.34005e-07
9.69346e-07
1.00409e-06
1.03803e-06
1.07087e-06
1.10231e-06
1.13206e-06
1.15972e-06
1.18477e-06
1.20674e-06
5.4465e-07
5.64418e-07
5.86818e-07
6.10822e-07
6.36246e-07
6.63478e-07
6.91633e-07
7.20272e-07
7.49284e-07
7.7823e-07
8.06793e-07
8.34823e-07
8.62115e-07
8.88443e-07
9.13598e-07
9.37304e-07
9.59182e-07
9.78844e-07
4.35807e-07
4.51709e-07
4.69737e-07
4.89107e-07
5.09654e-07
5.31703e-07
5.54535e-07
5.77825e-07
6.01471e-07
6.25148e-07
6.4856e-07
6.71643e-07
6.94244e-07
7.1618e-07
7.37315e-07
7.57435e-07
7.76278e-07
7.93531e-07
3.49022e-07
3.61811e-07
3.76318e-07
3.9194e-07
4.08548e-07
4.26383e-07
4.44891e-07
4.63805e-07
4.83069e-07
5.02388e-07
5.21552e-07
5.40519e-07
5.59166e-07
5.77358e-07
5.95002e-07
6.11952e-07
6.28025e-07
6.4294e-07
6.56469e-07
2.79739e-07
2.90017e-07
3.01688e-07
3.14285e-07
3.27701e-07
3.42125e-07
3.57122e-07
3.72484e-07
3.88152e-07
4.03884e-07
4.19546e-07
4.35093e-07
4.50425e-07
4.65456e-07
4.80123e-07
4.94313e-07
5.07882e-07
5.20646e-07
5.32398e-07
2.24357e-07
2.32614e-07
2.42003e-07
2.52155e-07
2.62989e-07
2.74653e-07
2.86797e-07
2.99266e-07
3.11983e-07
3.24795e-07
3.37578e-07
3.50295e-07
3.62874e-07
3.75249e-07
3.87388e-07
3.99197e-07
4.10571e-07
4.21378e-07
4.31464e-07
1.80039e-07
1.86673e-07
1.94223e-07
2.02398e-07
2.11147e-07
2.20573e-07
2.30403e-07
2.40508e-07
2.50838e-07
2.61261e-07
2.7168e-07
2.82057e-07
2.92351e-07
3.02514e-07
3.12525e-07
3.22305e-07
3.31786e-07
3.40864e-07
3.4942e-07
1.44543e-07
1.49871e-07
1.55937e-07
1.62521e-07
1.69581e-07
1.77198e-07
1.85153e-07
1.9334e-07
2.01728e-07
2.10193e-07
2.18667e-07
2.27131e-07
2.35542e-07
2.43869e-07
2.52089e-07
2.60154e-07
2.68017e-07
2.75593e-07
2.82783e-07
1.16092e-07
1.20366e-07
1.25236e-07
1.30539e-07
1.36233e-07
1.42387e-07
1.4882e-07
1.55455e-07
1.62254e-07
1.69129e-07
1.76021e-07
1.82914e-07
1.89774e-07
1.96578e-07
2.03311e-07
2.09942e-07
2.16429e-07
2.22711e-07
2.28707e-07
2.34341e-07
9.32687e-08
9.66941e-08
1.00602e-07
1.04872e-07
1.09463e-07
1.14433e-07
1.19635e-07
1.2501e-07
1.30524e-07
1.36103e-07
1.41703e-07
1.47306e-07
1.52892e-07
1.58443e-07
1.63946e-07
1.69378e-07
1.74708e-07
1.79888e-07
1.84864e-07
1.89562e-07
7.4947e-08
7.76907e-08
8.08248e-08
8.4261e-08
8.79627e-08
9.19745e-08
9.61834e-08
1.00534e-07
1.05004e-07
1.09529e-07
1.14075e-07
1.18629e-07
1.23173e-07
1.27693e-07
1.32182e-07
1.36618e-07
1.40981e-07
1.45237e-07
1.4934e-07
1.53229e-07
6.02314e-08
6.24265e-08
6.49389e-08
6.77027e-08
7.06879e-08
7.39265e-08
7.73296e-08
8.08531e-08
8.44745e-08
8.8146e-08
9.18369e-08
9.55355e-08
9.92263e-08
1.02903e-07
1.06556e-07
1.10172e-07
1.13733e-07
1.17215e-07
1.20577e-07
1.2378e-07
4.84067e-08
5.01604e-08
5.21742e-08
5.43958e-08
5.68027e-08
5.94175e-08
6.21698e-08
6.50233e-08
6.79594e-08
7.09372e-08
7.39318e-08
7.69335e-08
7.99315e-08
8.29167e-08
8.58862e-08
8.8827e-08
9.17268e-08
9.45638e-08
9.73116e-08
9.99305e-08
3.89009e-08
4.03005e-08
4.19132e-08
4.3699e-08
4.5639e-08
4.77505e-08
4.99777e-08
5.22894e-08
5.46702e-08
5.70851e-08
5.95155e-08
6.19524e-08
6.43858e-08
6.68086e-08
6.92188e-08
7.16062e-08
7.39614e-08
7.62674e-08
7.85028e-08
8.06351e-08
8.26311e-08
3.12566e-08
3.23726e-08
3.36628e-08
3.50986e-08
3.66621e-08
3.83681e-08
4.01707e-08
4.20447e-08
4.39764e-08
4.59366e-08
4.7909e-08
4.98872e-08
5.18608e-08
5.38267e-08
5.57814e-08
5.77175e-08
5.96264e-08
6.14953e-08
6.3307e-08
6.5037e-08
6.66558e-08
2.51079e-08
2.59966e-08
2.70286e-08
2.81824e-08
2.94431e-08
3.08219e-08
3.22819e-08
3.38028e-08
3.53709e-08
3.69623e-08
3.85643e-08
4.017e-08
4.17717e-08
4.33663e-08
4.49506e-08
4.65187e-08
4.8064e-08
4.95767e-08
5.10415e-08
5.24394e-08
5.37467e-08
2.01614e-08
2.08684e-08
2.16932e-08
2.26203e-08
2.36372e-08
2.47524e-08
2.59362e-08
2.71711e-08
2.84452e-08
2.97392e-08
3.1041e-08
3.23459e-08
3.36462e-08
3.49396e-08
3.62231e-08
3.74925e-08
3.8742e-08
3.99631e-08
4.11446e-08
4.22708e-08
4.33222e-08
1.61817e-08
1.67435e-08
1.74022e-08
1.81471e-08
1.8968e-08
1.98708e-08
2.08319e-08
2.18357e-08
2.28726e-08
2.39258e-08
2.49852e-08
2.60458e-08
2.71023e-08
2.81513e-08
2.91914e-08
3.02186e-08
3.1228e-08
3.22127e-08
3.31639e-08
3.4069e-08
3.49112e-08
1.298e-08
1.34256e-08
1.39514e-08
1.45503e-08
1.52131e-08
1.5945e-08
1.67263e-08
1.75439e-08
1.83891e-08
1.92473e-08
2.01103e-08
2.09735e-08
2.18325e-08
2.26844e-08
2.35277e-08
2.43586e-08
2.51738e-08
2.59674e-08
2.67321e-08
2.74578e-08
2.81311e-08
2.87406e-08
1.04043e-08
1.07573e-08
1.11769e-08
1.16584e-08
1.21942e-08
1.27883e-08
1.34246e-08
1.40917e-08
1.47818e-08
1.54824e-08
1.61866e-08
1.68902e-08
1.75895e-08
1.8282e-08
1.89659e-08
1.96386e-08
2.02971e-08
2.09363e-08
2.15503e-08
2.21312e-08
2.26685e-08
2.31519e-08
8.3326e-09
8.6118e-09
8.94647e-09
9.33376e-09
9.76755e-09
1.02507e-08
1.077e-08
1.13153e-08
1.18798e-08
1.24531e-08
1.30288e-08
1.36035e-08
1.41736e-08
1.4737e-08
1.52924e-08
1.58374e-08
1.63694e-08
1.68842e-08
1.73768e-08
1.78414e-08
1.82691e-08
1.86517e-08
6.66677e-09
6.88727e-09
7.154e-09
7.46583e-09
7.81761e-09
8.21132e-09
8.63607e-09
9.08295e-09
9.54586e-09
1.00159e-08
1.04875e-08
1.09578e-08
1.14235e-08
1.18828e-08
1.23344e-08
1.27763e-08
1.32062e-08
1.36209e-08
1.40165e-08
1.43876e-08
1.47275e-08
1.50299e-08
5.32781e-09
5.50158e-09
5.71416e-09
5.96552e-09
6.25125e-09
6.57283e-09
6.92118e-09
7.28831e-09
7.66891e-09
8.05524e-09
8.44263e-09
8.82837e-09
9.20952e-09
9.5846e-09
9.95239e-09
1.03112e-08
1.06591e-08
1.09937e-08
1.13112e-08
1.16075e-08
1.18775e-08
1.2116e-08
4.2521e-09
4.38876e-09
4.55815e-09
4.76101e-09
4.99362e-09
5.25708e-09
5.54348e-09
5.84597e-09
6.15976e-09
6.47827e-09
6.7973e-09
7.1144e-09
7.42709e-09
7.73405e-09
8.03427e-09
8.32621e-09
8.60817e-09
8.87812e-09
9.1332e-09
9.36993e-09
9.58428e-09
9.77215e-09
3.38839e-09
3.49566e-09
3.6306e-09
3.79461e-09
3.98453e-09
4.20094e-09
4.43712e-09
4.68708e-09
4.9466e-09
5.20991e-09
5.47337e-09
5.73476e-09
5.99199e-09
6.24388e-09
6.48941e-09
6.72736e-09
6.95632e-09
7.1746e-09
7.37975e-09
7.56914e-09
7.73934e-09
7.8871e-09
2.69543e-09
2.77944e-09
2.88693e-09
3.01984e-09
3.17535e-09
3.35361e-09
3.54901e-09
3.75623e-09
3.97149e-09
4.18981e-09
4.40801e-09
4.62419e-09
4.83644e-09
5.04361e-09
5.24496e-09
5.43946e-09
5.62597e-09
5.80284e-09
5.96826e-09
6.11996e-09
6.25524e-09
6.37153e-09
6.46646e-09
2.13997e-09
2.20557e-09
2.29123e-09
2.39925e-09
2.52693e-09
2.67422e-09
2.83645e-09
3.00875e-09
3.18789e-09
3.36947e-09
3.5508e-09
3.73016e-09
3.90579e-09
4.07672e-09
4.2424e-09
4.40193e-09
4.55427e-09
4.69811e-09
4.83183e-09
4.9536e-09
5.06131e-09
5.15297e-09
5.22672e-09
1.69518e-09
1.74626e-09
1.81458e-09
1.90264e-09
2.00779e-09
2.1299e-09
2.26502e-09
2.4087e-09
2.55827e-09
2.70981e-09
2.861e-09
3.01034e-09
3.15612e-09
3.29764e-09
3.43443e-09
3.56577e-09
3.69067e-09
3.80795e-09
3.91631e-09
4.01423e-09
4.10003e-09
4.17226e-09
4.22952e-09
1.33947e-09
1.37909e-09
1.43366e-09
1.50572e-09
1.59254e-09
1.69414e-09
1.80702e-09
1.92717e-09
2.05246e-09
2.17927e-09
2.30581e-09
2.43064e-09
2.5521e-09
2.6696e-09
2.78295e-09
2.89142e-09
2.99398e-09
3.08964e-09
3.17736e-09
3.25597e-09
3.3242e-09
3.38099e-09
3.42533e-09
1.05538e-09
1.08602e-09
1.12967e-09
1.18886e-09
1.26075e-09
1.3456e-09
1.44013e-09
1.54085e-09
1.64617e-09
1.75251e-09
1.85883e-09
1.96368e-09
2.06517e-09
2.16295e-09
2.25697e-09
2.34646e-09
2.43044e-09
2.50812e-09
2.57877e-09
2.64158e-09
2.69558e-09
2.73999e-09
2.7742e-09
8.28886e-10
8.52495e-10
8.87504e-10
9.36285e-10
9.95966e-10
1.06712e-09
1.1464e-09
1.23108e-09
1.31989e-09
1.40915e-09
1.49904e-09
1.58755e-09
1.67225e-09
1.75331e-09
1.831e-09
1.90447e-09
1.97281e-09
2.03553e-09
2.09221e-09
2.14224e-09
2.18484e-09
2.21946e-09
2.24572e-09
6.48679e-10
6.66838e-10
6.94984e-10
7.35311e-10
7.84959e-10
8.44846e-10
9.11278e-10
9.82762e-10
1.05776e-09
1.13266e-09
1.2096e-09
1.28461e-09
1.35452e-09
1.42091e-09
1.48471e-09
1.54484e-09
1.60035e-09
1.65105e-09
1.69669e-09
1.73674e-09
1.77054e-09
1.79763e-09
1.81777e-09
5.05699e-10
5.19652e-10
5.42339e-10
5.75747e-10
6.17114e-10
6.67654e-10
7.23061e-10
7.83789e-10
8.46928e-10
9.09516e-10
9.7639e-10
1.03991e-09
1.09655e-09
1.15039e-09
1.203e-09
1.25266e-09
1.29826e-09
1.33979e-09
1.37708e-09
1.40955e-09
1.4366e-09
1.45787e-09
1.47325e-09
3.92568e-10
4.03272e-10
4.21636e-10
4.49363e-10
4.83969e-10
5.26669e-10
5.7254e-10
6.24749e-10
6.76933e-10
7.28972e-10
7.88078e-10
8.4112e-10
8.86159e-10
9.30427e-10
9.74974e-10
1.01689e-09
1.05503e-09
1.08968e-09
1.12064e-09
1.14728e-09
1.16909e-09
1.18585e-09
1.19755e-09
1.20459e-09
3.03426e-10
3.11596e-10
3.26553e-10
3.49666e-10
3.78725e-10
4.14774e-10
4.52627e-10
4.98268e-10
5.38703e-10
5.83644e-10
6.38482e-10
6.80525e-10
7.14254e-10
7.5196e-10
7.91371e-10
8.27342e-10
8.59419e-10
8.88509e-10
9.14391e-10
9.36355e-10
9.53969e-10
9.67168e-10
9.76102e-10
9.8107e-10
2.34488e-10
2.40677e-10
2.52905e-10
2.72101e-10
2.96378e-10
3.26392e-10
3.57459e-10
3.97227e-10
4.24641e-10
4.66781e-10
5.20664e-10
5.51697e-10
5.73715e-10
6.07343e-10
6.44259e-10
6.75848e-10
7.02954e-10
7.27559e-10
7.49378e-10
7.67561e-10
7.81796e-10
7.9219e-10
7.99e-10
8.02742e-10
1.85545e-10
1.90224e-10
2.00106e-10
2.15532e-10
2.35177e-10
2.58717e-10
2.8301e-10
3.14705e-10
3.29659e-10
3.68726e-10
4.19499e-10
4.42221e-10
4.58266e-10
4.91586e-10
5.2872e-10
5.58913e-10
5.83991e-10
6.06727e-10
6.26878e-10
6.43521e-10
6.5642e-10
6.65631e-10
6.71535e-10
6.74633e-10
1.50893e-10
1.54427e-10
1.62166e-10
1.74109e-10
1.89315e-10
2.06459e-10
2.24425e-10
2.46257e-10
2.53884e-10
2.83446e-10
3.2711e-10
3.46036e-10
3.6324e-10
3.96845e-10
4.33769e-10
4.64102e-10
4.89315e-10
5.12013e-10
5.32137e-10
5.4877e-10
5.61603e-10
5.70684e-10
5.76449e-10
5.79178e-10
1.22308e-10
1.24978e-10
1.30944e-10
1.40083e-10
1.51598e-10
1.63703e-10
1.76768e-10
1.90545e-10
1.94338e-10
2.13476e-10
2.4857e-10
2.655e-10
2.85392e-10
3.17425e-10
3.52137e-10
3.81889e-10
4.07085e-10
4.29543e-10
4.49354e-10
4.6572e-10
4.78248e-10
4.87039e-10
4.92559e-10
4.95253e-10
9.72803e-11
9.92872e-11
1.03822e-10
1.10713e-10
1.19224e-10
1.27534e-10
1.36912e-10
1.44808e-10
1.46532e-10
1.58354e-10
1.8614e-10
2.00697e-10
2.22257e-10
2.52071e-10
2.83634e-10
3.1175e-10
3.3616e-10
3.57776e-10
3.76701e-10
3.92372e-10
4.04356e-10
4.12723e-10
4.17802e-10
4.19954e-10
7.61479e-11
7.76478e-11
8.10318e-11
8.6122e-11
9.21835e-11
9.76925e-11
1.04151e-10
1.07889e-10
1.08447e-10
1.15135e-10
1.36839e-10
1.48807e-10
1.70883e-10
1.98344e-10
2.26476e-10
2.52268e-10
2.75312e-10
2.95718e-10
3.13444e-10
3.28084e-10
3.39289e-10
3.47155e-10
3.52065e-10
3.54504e-10
5.85976e-11
5.97051e-11
6.21471e-11
6.57732e-11
6.98454e-11
7.33419e-11
7.74344e-11
7.84641e-11
7.83775e-11
8.15824e-11
9.82618e-11
1.07899e-10
1.29319e-10
1.54259e-10
1.79058e-10
2.02281e-10
2.23629e-10
2.42675e-10
2.5914e-10
2.72615e-10
2.82687e-10
2.89239e-10
2.92417e-10
2.92758e-10
4.43977e-11
4.51884e-11
4.68224e-11
4.91937e-11
5.16347e-11
5.3678e-11
5.58331e-11
5.54126e-11
5.49369e-11
5.59434e-11
6.83682e-11
7.61435e-11
9.5959e-11
1.18308e-10
1.40097e-10
1.60802e-10
1.80292e-10
1.97862e-10
2.13112e-10
2.25794e-10
2.35745e-10
2.43063e-10
2.4818e-10
2.51573e-10
3.31898e-11
3.37271e-11
3.46766e-11
3.59484e-11
3.70426e-11
3.79324e-11
3.84767e-11
3.76048e-11
3.67613e-11
3.67287e-11
4.56904e-11
5.2099e-11
6.9618e-11
8.93704e-11
1.08516e-10
1.26968e-10
1.44722e-10
1.60727e-10
1.74104e-10
1.84377e-10
1.91222e-10
1.94414e-10
1.94041e-10
1.91041e-10
1.86992e-10
2.44835e-11
2.48369e-11
2.5251e-11
2.56255e-11
2.56662e-11
2.55646e-11
2.48305e-11
2.40694e-11
2.26201e-11
2.27678e-11
2.91826e-11
3.44984e-11
4.94239e-11
6.66944e-11
8.3389e-11
9.9733e-11
1.16249e-10
1.3213e-10
1.4648e-10
1.58909e-10
1.69465e-10
1.78698e-10
1.87488e-10
1.95799e-10
2.01954e-10
1.78834e-11
1.80675e-11
1.79952e-11
1.76237e-11
1.69096e-11
1.60873e-11
1.47355e-11
1.4346e-11
1.22968e-11
1.39043e-11
1.81091e-11
2.21078e-11
3.44796e-11
4.9643e-11
6.42363e-11
7.81735e-11
9.1869e-11
1.04562e-10
1.15386e-10
1.23749e-10
1.28977e-10
1.30562e-10
1.28887e-10
1.26247e-10
1.25545e-10
1.33828e-11
1.33091e-11
1.2588e-11
1.13894e-11
1.00291e-11
8.81263e-12
7.68187e-12
7.87267e-12
6.17631e-12
9.98851e-12
1.1689e-11
1.39282e-11
2.34533e-11
3.64254e-11
5.04787e-11
6.62687e-11
8.42234e-11
1.03506e-10
1.23388e-10
1.44037e-10
1.66551e-10
1.92794e-10
2.23613e-10
2.54665e-10
2.78187e-10
1.10241e-11
1.06444e-11
9.20578e-12
7.13078e-12
5.08455e-12
3.5359e-12
2.82096e-12
3.42015e-12
3.22564e-12
8.22725e-12
8.57165e-12
1.01059e-11
1.66898e-11
2.60178e-11
3.74598e-11
5.31012e-11
7.41132e-11
1.00143e-10
1.30431e-10
1.6401e-10
1.99275e-10
2.343e-10
2.67658e-10
2.97256e-10
3.22772e-10
1.00114e-11
9.45626e-12
7.62867e-12
5.08753e-12
2.6459e-12
9.10665e-13
3.84685e-13
1.09068e-12
2.34707e-12
5.612e-12
4.03992e-12
1.00375e-11
2.53594e-11
4.99749e-11
8.44958e-11
1.29947e-10
1.87423e-10
2.57263e-10
3.38315e-10
4.27934e-10
5.20501e-10
6.06991e-10
6.74999e-10
7.16481e-10
7.45256e-10
)
;

boundaryField
{
    inlet
    {
        type            calculated;
        value           nonuniform List<scalar> 
25
(
9.15125e-12
8.61056e-12
6.90196e-12
4.52553e-12
2.22377e-12
6.1536e-13
2.53428e-13
1.27177e-12
3.36494e-12
2.95358e-12
1.41683e-11
5.11317e-11
1.49556e-10
3.37746e-10
6.44643e-10
1.10074e-09
1.73897e-09
2.58919e-09
3.67407e-09
5.00245e-09
6.55985e-09
8.28867e-09
1.00862e-08
1.18058e-08
1.33622e-08
)
;
    }
    outlet
    {
        type            calculated;
        value           nonuniform List<scalar> 0();
    }
    walls
    {
        type            calculated;
        value           nonuniform List<scalar> 0();
    }
    frontAndBack
    {
        type            empty;
    }
    procBoundary4to0
    {
        type            processor;
        value           nonuniform List<scalar> 
72
(
0.000197538
0.000142395
0.000104038
7.68652e-05
5.73563e-05
4.31691e-05
3.27358e-05
2.49887e-05
1.9188e-05
1.48114e-05
1.14862e-05
8.94437e-06
6.9907e-06
5.48183e-06
4.31149e-06
3.40009e-06
2.6877e-06
2.12916e-06
1.69001e-06
1.34374e-06
1.07006e-06
8.53337e-07
8.53337e-07
6.58081e-07
5.25994e-07
4.20851e-07
3.37031e-07
2.70119e-07
2.16647e-07
1.73867e-07
1.39604e-07
1.12141e-07
9.01114e-08
7.24277e-08
5.82239e-08
4.68088e-08
3.76309e-08
3.02493e-08
2.43106e-08
1.95318e-08
1.56858e-08
1.25902e-08
1.00988e-08
8.09399e-09
6.48104e-09
5.1838e-09
4.14092e-09
3.30298e-09
2.63018e-09
2.09042e-09
1.65785e-09
1.31157e-09
1.03472e-09
8.13762e-10
6.37789e-10
4.98017e-10
3.87274e-10
2.9986e-10
2.32072e-10
1.83743e-10
1.4946e-10
1.21198e-10
9.64419e-11
7.55236e-11
5.81211e-11
4.40058e-11
3.28327e-11
2.41278e-11
1.7489e-11
1.29051e-11
1.04599e-11
9.42149e-12
)
;
    }
    procBoundary4to5
    {
        type            processor;
        value           nonuniform List<scalar> 
95
(
0.000282337
0.000285565
0.000287586
0.000207724
0.000207724
0.000207439
0.000151816
0.000151816
0.000150291
0.000111696
0.000111696
8.40065e-05
8.40065e-05
6.39012e-05
4.97633e-05
4.97633e-05
3.85731e-05
3.85731e-05
3.01106e-05
2.39143e-05
2.39143e-05
1.89107e-05
1.51362e-05
1.51362e-05
1.20951e-05
9.73806e-06
9.73806e-06
7.84654e-06
6.3462e-06
5.13259e-06
5.13259e-06
4.17751e-06
3.38913e-06
2.74847e-06
2.74847e-06
2.2532e-06
1.83092e-06
1.48686e-06
1.48686e-06
1.22486e-06
9.95766e-07
8.088e-07
8.088e-07
6.68156e-07
5.42835e-07
4.40581e-07
3.57269e-07
2.89466e-07
2.89466e-07
2.3946e-07
1.93883e-07
1.56828e-07
1.26755e-07
1.02374e-07
1.02374e-07
8.44424e-08
6.81308e-08
5.49371e-08
4.42779e-08
3.56758e-08
3.56758e-08
2.92646e-08
2.35668e-08
1.89781e-08
1.5286e-08
1.23163e-08
9.9285e-09
8.00899e-09
8.00899e-09
6.53805e-09
5.28163e-09
4.27127e-09
3.45701e-09
2.79817e-09
2.26368e-09
1.83115e-09
1.48305e-09
1.48305e-09
1.20766e-09
9.82728e-10
8.03856e-10
6.75314e-10
5.79414e-10
4.95721e-10
4.19868e-10
3.55105e-10
2.91134e-10
2.53347e-10
2.53347e-10
1.83011e-10
2.05237e-10
1.27135e-10
2.92468e-10
3.48688e-10
7.48168e-10
)
;
    }
}


// ************************************************************************* //
