/*--------------------------------*- C++ -*----------------------------------*\
| =========                 |                                                 |
| \\      /  F ield         | OpenFOAM: The Open Source CFD Toolbox           |
|  \\    /   O peration     | Version:  2306                                  |
|   \\  /    A nd           | Website:  www.openfoam.com                      |
|    \\/     M anipulation  |                                                 |
\*---------------------------------------------------------------------------*/
FoamFile
{
    version     2.0;
    format      ascii;
    arch        "LSB;label=32;scalar=64";
    class       volScalarField;
    location    "225";
    object      turbulenceProperties:k;
}
// * * * * * * * * * * * * * * * * * * * * * * * * * * * * * * * * * * * * * //

dimensions      [0 2 -2 0 0 0 0];

internalField   nonuniform List<scalar> 
1340
(
0.000514208
0.000518106
0.00052112
0.000436991
0.000440915
0.000444223
0.000446346
0.000447223
0.000373864
0.000377695
0.000381097
0.000383656
0.00038532
0.000385965
0.00038528
0.000321604
0.000325245
0.000328593
0.000331322
0.000333409
0.000334752
0.000335071
0.000334273
0.000277994
0.000281406
0.000284621
0.000287385
0.000289704
0.000291463
0.000292434
0.000292545
0.00029172
0.000241308
0.000244479
0.000247506
0.000250211
0.000252619
0.000254594
0.000255967
0.000256677
0.000256644
0.000210245
0.000213165
0.000215985
0.000218587
0.000220983
0.000223057
0.000224667
0.000225764
0.000226275
0.000226098
0.000183783
0.000186452
0.000189065
0.000191528
0.000193853
0.000195942
0.000197674
0.000199001
0.000199866
0.000200179
0.000199888
0.000161116
0.000163546
0.000165959
0.000168258
0.000170484
0.00017253
0.000174301
0.000175757
0.00017685
0.000177499
0.000177665
0.000141605
0.000143819
0.000146028
0.000148169
0.000150269
0.000152242
0.000153995
0.000155508
0.000156731
0.000157598
0.000158071
0.000158112
0.000124742
0.000126753
0.000128774
0.000130752
0.00013272
0.000134592
0.000136297
0.000137813
0.000139098
0.000140097
0.000140781
0.000141114
0.000110113
0.000111936
0.000113779
0.000115601
0.000117432
0.000119192
0.000120824
0.000122308
0.000123609
0.000124681
0.000125499
0.00012603
0.000126238
9.73761e-05
9.90292e-05
0.000100705
0.00010238
0.000104073
0.000105716
0.000107262
0.000108691
0.000109975
0.000111073
0.000111967
0.00011263
0.000113026
8.62532e-05
8.77491e-05
8.92725e-05
9.08073e-05
9.23668e-05
9.38937e-05
9.53428e-05
9.67047e-05
9.79485e-05
9.90441e-05
9.99739e-05
0.000100718
0.000101243
0.000101534
7.65124e-05
7.78648e-05
7.92502e-05
8.06507e-05
8.20837e-05
8.34947e-05
8.4847e-05
8.61294e-05
8.73199e-05
8.83885e-05
8.93256e-05
9.01092e-05
9.07184e-05
9.11352e-05
6.79608e-05
6.91825e-05
7.04418e-05
7.17176e-05
7.30308e-05
7.43301e-05
7.55843e-05
7.67855e-05
7.79117e-05
7.89406e-05
7.98626e-05
8.06604e-05
8.13172e-05
8.18152e-05
6.04369e-05
6.15402e-05
6.26819e-05
6.38436e-05
6.50435e-05
6.62367e-05
6.73941e-05
6.85132e-05
6.95706e-05
7.05501e-05
7.14421e-05
7.22349e-05
7.29113e-05
7.34592e-05
7.38637e-05
5.38028e-05
5.47997e-05
5.58332e-05
5.68893e-05
5.79841e-05
5.90759e-05
6.0142e-05
6.11784e-05
6.21659e-05
6.30894e-05
6.39424e-05
6.4715e-05
6.53931e-05
6.59676e-05
6.64236e-05
4.79422e-05
4.88433e-05
4.97778e-05
5.0737e-05
5.17346e-05
5.27312e-05
5.37108e-05
5.4666e-05
5.55837e-05
5.64483e-05
5.72564e-05
5.79977e-05
5.8664e-05
5.92454e-05
5.97297e-05
4.27572e-05
4.35698e-05
4.44153e-05
4.52851e-05
4.61919e-05
4.71013e-05
4.79979e-05
4.88761e-05
4.97243e-05
5.05297e-05
5.12885e-05
5.19942e-05
5.26385e-05
5.32139e-05
5.37105e-05
5.4118e-05
3.81621e-05
3.88946e-05
3.96589e-05
4.04475e-05
4.12703e-05
4.20988e-05
4.29176e-05
4.37234e-05
4.45045e-05
4.52513e-05
4.596e-05
4.66254e-05
4.72404e-05
4.78003e-05
4.82952e-05
4.87181e-05
3.4084e-05
3.47443e-05
3.54346e-05
3.61486e-05
3.68953e-05
3.76483e-05
3.83949e-05
3.91325e-05
3.98497e-05
4.0539e-05
4.11972e-05
4.18201e-05
4.2402e-05
4.29391e-05
4.34246e-05
4.38506e-05
2.99257e-05
3.04605e-05
3.10552e-05
3.16783e-05
3.23241e-05
3.30007e-05
3.36843e-05
3.4364e-05
3.50375e-05
3.56942e-05
3.63283e-05
3.69371e-05
3.75169e-05
3.80637e-05
3.85739e-05
3.90423e-05
3.94618e-05
3.98259e-05
2.67557e-05
2.72369e-05
2.77721e-05
2.83344e-05
2.89181e-05
2.95305e-05
3.01506e-05
3.07685e-05
3.13821e-05
3.19825e-05
3.25641e-05
3.3125e-05
3.36621e-05
3.41723e-05
3.46527e-05
3.50994e-05
3.55067e-05
3.58688e-05
2.39334e-05
2.43661e-05
2.48476e-05
2.53547e-05
2.58818e-05
2.64358e-05
2.69974e-05
2.75586e-05
2.81168e-05
2.86649e-05
2.91967e-05
2.97117e-05
3.02075e-05
3.0681e-05
3.11305e-05
3.15524e-05
3.19424e-05
3.22955e-05
2.14182e-05
2.18071e-05
2.224e-05
2.26969e-05
2.31728e-05
2.36732e-05
2.41816e-05
2.46903e-05
2.51978e-05
2.56967e-05
2.61823e-05
2.66541e-05
2.711e-05
2.75475e-05
2.79652e-05
2.83608e-05
2.87308e-05
2.907e-05
2.93743e-05
1.91749e-05
1.9524e-05
1.9913e-05
2.03245e-05
2.07537e-05
2.12056e-05
2.16654e-05
2.21265e-05
2.25871e-05
2.30402e-05
2.34827e-05
2.39139e-05
2.43316e-05
2.47343e-05
2.51209e-05
2.54894e-05
2.58369e-05
2.61596e-05
2.64532e-05
1.71722e-05
1.74854e-05
1.78348e-05
1.8205e-05
1.8592e-05
1.89998e-05
1.94154e-05
1.98329e-05
2.02499e-05
2.06616e-05
2.10642e-05
2.14574e-05
2.18392e-05
2.22085e-05
2.25648e-05
2.29062e-05
2.32302e-05
2.3534e-05
2.3814e-05
1.5383e-05
1.56638e-05
1.59775e-05
1.63102e-05
1.6659e-05
1.70268e-05
1.74021e-05
1.77796e-05
1.81575e-05
1.85309e-05
1.88968e-05
1.92543e-05
1.96025e-05
1.99403e-05
2.02676e-05
2.05823e-05
2.08828e-05
2.11666e-05
2.14306e-05
1.37834e-05
1.40351e-05
1.43163e-05
1.46154e-05
1.49295e-05
1.52612e-05
1.55999e-05
1.59411e-05
1.62833e-05
1.66214e-05
1.69531e-05
1.72782e-05
1.75952e-05
1.79035e-05
1.82027e-05
1.84916e-05
1.8769e-05
1.90324e-05
1.92791e-05
1.23526e-05
1.25779e-05
1.28299e-05
1.30987e-05
1.33813e-05
1.36802e-05
1.39858e-05
1.42942e-05
1.46035e-05
1.49097e-05
1.52104e-05
1.55054e-05
1.57935e-05
1.60741e-05
1.63471e-05
1.66115e-05
1.68662e-05
1.71092e-05
1.73381e-05
1.75503e-05
1.1072e-05
1.12734e-05
1.1499e-05
1.17405e-05
1.19948e-05
1.2264e-05
1.25397e-05
1.28183e-05
1.30979e-05
1.3375e-05
1.36474e-05
1.39146e-05
1.41759e-05
1.4431e-05
1.46795e-05
1.49207e-05
1.51536e-05
1.53766e-05
1.55879e-05
1.57847e-05
9.92507e-06
1.01051e-05
1.03069e-05
1.05237e-05
1.07524e-05
1.09949e-05
1.12437e-05
1.14951e-05
1.17479e-05
1.19984e-05
1.22449e-05
1.24869e-05
1.27238e-05
1.29552e-05
1.31809e-05
1.34003e-05
1.36126e-05
1.38165e-05
1.40103e-05
1.41916e-05
8.8975e-06
9.05818e-06
9.23866e-06
9.43322e-06
9.63895e-06
9.85729e-06
1.00816e-05
1.03088e-05
1.05371e-05
1.07637e-05
1.09867e-05
1.12058e-05
1.14202e-05
1.16298e-05
1.18345e-05
1.20336e-05
1.22265e-05
1.24123e-05
1.25891e-05
1.27551e-05
7.97644e-06
8.11964e-06
8.28103e-06
8.4555e-06
8.64055e-06
8.8372e-06
9.03956e-06
9.24469e-06
9.45111e-06
9.65596e-06
9.85768e-06
1.00558e-05
1.02499e-05
1.04395e-05
1.06248e-05
1.08052e-05
1.09802e-05
1.11487e-05
1.13095e-05
1.14607e-05
7.15049e-06
7.27799e-06
7.42218e-06
7.57866e-06
7.74506e-06
7.92221e-06
8.10487e-06
8.29019e-06
8.47684e-06
8.66204e-06
8.84451e-06
9.02377e-06
9.19929e-06
9.37078e-06
9.53831e-06
9.70142e-06
9.85967e-06
1.00122e-05
1.01579e-05
1.02949e-05
1.04216e-05
6.40954e-06
6.52296e-06
6.65168e-06
6.79207e-06
6.94169e-06
7.10137e-06
7.26628e-06
7.43384e-06
7.6027e-06
7.7703e-06
7.93537e-06
8.09755e-06
8.25617e-06
8.4112e-06
8.56257e-06
8.70991e-06
8.85277e-06
8.99044e-06
9.12192e-06
9.24572e-06
9.36009e-06
5.74461e-06
5.8454e-06
5.9603e-06
6.08619e-06
6.22083e-06
6.36483e-06
6.51384e-06
6.66552e-06
6.81838e-06
6.97009e-06
7.11953e-06
7.26624e-06
7.4097e-06
7.5498e-06
7.68647e-06
7.81941e-06
7.94822e-06
8.07233e-06
8.19072e-06
8.30213e-06
8.40498e-06
5.14773e-06
5.23722e-06
5.33971e-06
5.45262e-06
5.57384e-06
5.70382e-06
5.83862e-06
5.97601e-06
6.11452e-06
6.25206e-06
6.38744e-06
6.52031e-06
6.65008e-06
6.7767e-06
6.90005e-06
7.01992e-06
7.13594e-06
7.24753e-06
7.35388e-06
7.45385e-06
7.54598e-06
4.61177e-06
4.69114e-06
4.78253e-06
4.88383e-06
4.99307e-06
5.11051e-06
5.23265e-06
5.35724e-06
5.48296e-06
5.60779e-06
5.73059e-06
5.85097e-06
5.96845e-06
6.08287e-06
6.19422e-06
6.30227e-06
6.40666e-06
6.50689e-06
6.60227e-06
6.69176e-06
6.77396e-06
4.1304e-06
4.2007e-06
4.28218e-06
4.37313e-06
4.47163e-06
4.57793e-06
4.68874e-06
4.80198e-06
4.91629e-06
5.02971e-06
5.14124e-06
5.25042e-06
5.35686e-06
5.46038e-06
5.56095e-06
5.6583e-06
5.75219e-06
5.84217e-06
5.92757e-06
6.00749e-06
6.08071e-06
6.14623e-06
3.69795e-06
3.76016e-06
3.8328e-06
3.91449e-06
4.00343e-06
4.0998e-06
4.20057e-06
4.30367e-06
4.4078e-06
4.51104e-06
4.61249e-06
4.71168e-06
4.80823e-06
4.90196e-06
4.99282e-06
5.0806e-06
5.16507e-06
5.24578e-06
5.32214e-06
5.39339e-06
5.45848e-06
5.51638e-06
3.30937e-06
3.36436e-06
3.42911e-06
3.50255e-06
3.58302e-06
3.67057e-06
3.7624e-06
3.85648e-06
3.95151e-06
4.04572e-06
4.13819e-06
4.22847e-06
4.31617e-06
4.40112e-06
4.48328e-06
4.56248e-06
4.63848e-06
4.71085e-06
4.77909e-06
4.84255e-06
4.90026e-06
4.9513e-06
2.96014e-06
3.00869e-06
3.06641e-06
3.13253e-06
3.20548e-06
3.28521e-06
3.3691e-06
3.45518e-06
3.54213e-06
3.62829e-06
3.71274e-06
3.79507e-06
3.87488e-06
3.95201e-06
4.0264e-06
4.09789e-06
4.16628e-06
4.23119e-06
4.29219e-06
4.34864e-06
4.39972e-06
4.44465e-06
2.64624e-06
2.68905e-06
2.74051e-06
2.80014e-06
2.86641e-06
2.93922e-06
3.01611e-06
3.09507e-06
3.17485e-06
3.25384e-06
3.33116e-06
3.40641e-06
3.47917e-06
3.54932e-06
3.61678e-06
3.6814e-06
3.743e-06
3.80128e-06
3.8558e-06
3.90597e-06
3.95113e-06
3.9906e-06
2.36405e-06
2.40174e-06
2.44765e-06
2.50152e-06
2.5619e-06
2.62862e-06
2.69928e-06
2.77195e-06
2.84537e-06
2.91801e-06
2.989e-06
3.05792e-06
3.1244e-06
3.18831e-06
3.24961e-06
3.30812e-06
3.36367e-06
3.41601e-06
3.46473e-06
3.50935e-06
3.54927e-06
3.58389e-06
2.11033e-06
2.14347e-06
2.18446e-06
2.23326e-06
2.28846e-06
2.34979e-06
2.41494e-06
2.48203e-06
2.54982e-06
2.61681e-06
2.68215e-06
2.74545e-06
2.80635e-06
2.86473e-06
2.92052e-06
2.97358e-06
3.02376e-06
3.07084e-06
3.11443e-06
3.15414e-06
3.18941e-06
3.21972e-06
1.88221e-06
1.91131e-06
1.94793e-06
1.99226e-06
2.04292e-06
2.09948e-06
2.15978e-06
2.22194e-06
2.28472e-06
2.34668e-06
2.40701e-06
2.46532e-06
2.52127e-06
2.5747e-06
2.62559e-06
2.67383e-06
2.71929e-06
2.76171e-06
2.80079e-06
2.83617e-06
2.86734e-06
2.89388e-06
2.91536e-06
1.67709e-06
1.70261e-06
1.73535e-06
1.77579e-06
1.82243e-06
1.87479e-06
1.93082e-06
1.9886e-06
2.04695e-06
2.10444e-06
2.16032e-06
2.21421e-06
2.26574e-06
2.31479e-06
2.36136e-06
2.40535e-06
2.44662e-06
2.48495e-06
2.52007e-06
2.55163e-06
2.57922e-06
2.60247e-06
2.62103e-06
1.49266e-06
1.51498e-06
1.54433e-06
1.58137e-06
1.62447e-06
1.67315e-06
1.7254e-06
1.77929e-06
1.8337e-06
1.88723e-06
1.93916e-06
1.98913e-06
2.03672e-06
2.08188e-06
2.12463e-06
2.16487e-06
2.20246e-06
2.23718e-06
2.26879e-06
2.29698e-06
2.3214e-06
2.34176e-06
2.35778e-06
1.32684e-06
1.34632e-06
1.3727e-06
1.40678e-06
1.44677e-06
1.49221e-06
1.54111e-06
1.59153e-06
1.64245e-06
1.69243e-06
1.74087e-06
1.78737e-06
1.83148e-06
1.87317e-06
1.91252e-06
1.94944e-06
1.98372e-06
2.01516e-06
2.04356e-06
2.06869e-06
2.09026e-06
2.10804e-06
2.12181e-06
1.17776e-06
1.19473e-06
1.21851e-06
1.25002e-06
1.28726e-06
1.32988e-06
1.3758e-06
1.42309e-06
1.47093e-06
1.51769e-06
1.56305e-06
1.60653e-06
1.64752e-06
1.68607e-06
1.72233e-06
1.75614e-06
1.7873e-06
1.81563e-06
1.84103e-06
1.86332e-06
1.88226e-06
1.89771e-06
1.90952e-06
1.04376e-06
1.05852e-06
1.08003e-06
1.10932e-06
1.14413e-06
1.18429e-06
1.2275e-06
1.27202e-06
1.31711e-06
1.36092e-06
1.40365e-06
1.44449e-06
1.48253e-06
1.51804e-06
1.5513e-06
1.58212e-06
1.61026e-06
1.63566e-06
1.65827e-06
1.67798e-06
1.69458e-06
1.70796e-06
1.71803e-06
9.23349e-07
9.36184e-07
9.55738e-07
9.83077e-07
1.01572e-06
1.05376e-06
1.0944e-06
1.13652e-06
1.17909e-06
1.22012e-06
1.26088e-06
1.29939e-06
1.33427e-06
1.36658e-06
1.39692e-06
1.42493e-06
1.45031e-06
1.4731e-06
1.49332e-06
1.51085e-06
1.52548e-06
1.5371e-06
1.54569e-06
8.1526e-07
8.26432e-07
8.4428e-07
8.69896e-07
9.00605e-07
9.36757e-07
9.74853e-07
1.01496e-06
1.05505e-06
1.09334e-06
1.13282e-06
1.16909e-06
1.20051e-06
1.22962e-06
1.25743e-06
1.28312e-06
1.30626e-06
1.32699e-06
1.34534e-06
1.3611e-06
1.3741e-06
1.38424e-06
1.39152e-06
7.18302e-07
7.2803e-07
7.44422e-07
7.6851e-07
7.97553e-07
8.31993e-07
8.67468e-07
9.06156e-07
9.43242e-07
9.78826e-07
1.01773e-06
1.05143e-06
1.07921e-06
1.10584e-06
1.132e-06
1.15607e-06
1.17755e-06
1.19674e-06
1.21362e-06
1.22796e-06
1.23958e-06
1.24843e-06
1.25458e-06
1.25826e-06
6.31503e-07
6.39949e-07
6.55129e-07
6.77918e-07
7.05524e-07
7.38339e-07
7.71294e-07
8.09247e-07
8.41442e-07
8.75836e-07
9.16058e-07
9.45737e-07
9.6889e-07
9.94135e-07
1.01985e-06
1.04277e-06
1.0628e-06
1.08063e-06
1.09626e-06
1.10935e-06
1.11973e-06
1.12745e-06
1.13265e-06
1.13553e-06
5.55148e-07
5.62427e-07
5.76538e-07
5.98018e-07
6.24126e-07
6.54966e-07
6.85428e-07
7.2255e-07
7.47067e-07
7.83258e-07
8.2723e-07
8.51526e-07
8.68351e-07
8.93436e-07
9.20188e-07
9.42477e-07
9.61191e-07
9.77868e-07
9.92422e-07
1.00439e-06
1.01366e-06
1.02038e-06
1.02475e-06
1.02715e-06
4.93825e-07
5.00013e-07
5.12836e-07
5.32236e-07
5.55963e-07
5.83124e-07
6.09886e-07
6.43132e-07
6.58233e-07
6.96143e-07
7.42526e-07
7.62369e-07
7.76076e-07
8.03794e-07
8.336e-07
8.57071e-07
8.76088e-07
8.92979e-07
9.07687e-07
9.19657e-07
9.28828e-07
9.35323e-07
9.39462e-07
9.41627e-07
4.45331e-07
4.50516e-07
4.61666e-07
4.78365e-07
4.98816e-07
5.20912e-07
5.43104e-07
5.68906e-07
5.77649e-07
6.10352e-07
6.5568e-07
6.74381e-07
6.90941e-07
7.22195e-07
7.55045e-07
7.80999e-07
8.01932e-07
8.20321e-07
8.36286e-07
8.49255e-07
8.59128e-07
8.66047e-07
8.7041e-07
8.72468e-07
4.00935e-07
4.05289e-07
4.14849e-07
4.29082e-07
4.46369e-07
4.63847e-07
4.82001e-07
5.00431e-07
5.05387e-07
5.29686e-07
5.71568e-07
5.90711e-07
6.1244e-07
6.45896e-07
6.80296e-07
7.08452e-07
7.3145e-07
7.51355e-07
7.68486e-07
7.82356e-07
7.92808e-07
8.00062e-07
8.04583e-07
8.06781e-07
3.57568e-07
3.61238e-07
3.69396e-07
3.81457e-07
3.95847e-07
4.0941e-07
4.24195e-07
4.36255e-07
4.38843e-07
4.56201e-07
4.94608e-07
5.13584e-07
5.40466e-07
5.75575e-07
6.10548e-07
6.40094e-07
6.64682e-07
6.85719e-07
7.03621e-07
7.18107e-07
7.28992e-07
7.36495e-07
7.41013e-07
7.4292e-07
3.16355e-07
3.19456e-07
3.26343e-07
3.36436e-07
3.48075e-07
3.58324e-07
3.69977e-07
3.76557e-07
3.77529e-07
3.88994e-07
4.24077e-07
4.42233e-07
4.73902e-07
5.10562e-07
5.4557e-07
5.75798e-07
6.01522e-07
6.23417e-07
6.41829e-07
6.56647e-07
6.67766e-07
6.75462e-07
6.80222e-07
6.82574e-07
2.77514e-07
2.80124e-07
2.85796e-07
2.94015e-07
3.0298e-07
3.1047e-07
3.19014e-07
3.21128e-07
3.20949e-07
3.27444e-07
3.59361e-07
3.76571e-07
4.12259e-07
4.5026e-07
4.85105e-07
5.15603e-07
5.42129e-07
5.64743e-07
5.83587e-07
5.98568e-07
6.09525e-07
6.16548e-07
6.19926e-07
6.20288e-07
2.4156e-07
2.43701e-07
2.48068e-07
2.54272e-07
2.60504e-07
2.65608e-07
2.70887e-07
2.69864e-07
2.68702e-07
2.71152e-07
2.99754e-07
3.16341e-07
3.55125e-07
3.94317e-07
4.29095e-07
4.59711e-07
4.86774e-07
5.09941e-07
5.29229e-07
5.44748e-07
5.56622e-07
5.65197e-07
5.71115e-07
5.75005e-07
2.08856e-07
2.10539e-07
2.13482e-07
2.17362e-07
2.20645e-07
2.23278e-07
2.24874e-07
2.22311e-07
2.19803e-07
2.19705e-07
2.45048e-07
2.6167e-07
3.02482e-07
3.42718e-07
3.77647e-07
4.08496e-07
4.36122e-07
4.59606e-07
4.7835e-07
4.9226e-07
5.01315e-07
5.05481e-07
5.04996e-07
5.01077e-07
4.95739e-07
1.79382e-07
1.80672e-07
1.82172e-07
1.83518e-07
1.83663e-07
1.83299e-07
1.80648e-07
1.77857e-07
1.72419e-07
1.72981e-07
1.9584e-07
2.12931e-07
2.54864e-07
2.96064e-07
3.31051e-07
3.62044e-07
3.90874e-07
4.16719e-07
4.38765e-07
4.57001e-07
4.71935e-07
4.84622e-07
4.96397e-07
5.07282e-07
5.15193e-07
1.53309e-07
1.54096e-07
1.53787e-07
1.52191e-07
1.49076e-07
1.45406e-07
1.39162e-07
1.3731e-07
1.27126e-07
1.3518e-07
1.54273e-07
1.70456e-07
2.12874e-07
2.55429e-07
2.90558e-07
3.20533e-07
3.47478e-07
3.70707e-07
3.89423e-07
4.03288e-07
4.11719e-07
4.14241e-07
4.11576e-07
4.07338e-07
4.06205e-07
1.32621e-07
1.32256e-07
1.28623e-07
1.22346e-07
1.14807e-07
1.0762e-07
1.00478e-07
1.01718e-07
9.00953e-08
1.14575e-07
1.23945e-07
1.35297e-07
1.75567e-07
2.18799e-07
2.57571e-07
2.95119e-07
3.32706e-07
3.68832e-07
4.02701e-07
4.35094e-07
4.67865e-07
5.03378e-07
5.4212e-07
5.78538e-07
6.04667e-07
1.20368e-07
1.18277e-07
1.09994e-07
9.68071e-08
8.17456e-08
6.81691e-08
6.08886e-08
6.7044e-08
6.51097e-08
1.03984e-07
1.06138e-07
1.15247e-07
1.48104e-07
1.84917e-07
2.21884e-07
2.64178e-07
3.12099e-07
3.6279e-07
4.14034e-07
4.64282e-07
5.11768e-07
5.54924e-07
5.93114e-07
6.25048e-07
6.51323e-07
1.14706e-07
1.1148e-07
1.0013e-07
8.17694e-08
5.89691e-08
3.45952e-08
2.24848e-08
3.78605e-08
5.55393e-08
8.58808e-08
7.2866e-08
1.14856e-07
1.82562e-07
2.56282e-07
3.33244e-07
4.13266e-07
4.96317e-07
5.81485e-07
6.66824e-07
7.49964e-07
8.27111e-07
8.93192e-07
9.41904e-07
9.70416e-07
9.89712e-07
)
;

boundaryField
{
    inlet
    {
        type            calculated;
        value           nonuniform List<scalar> 
25
(
1.14252e-07
1.10825e-07
9.92225e-08
8.03449e-08
5.63208e-08
2.96271e-08
1.9013e-08
4.2592e-08
6.92807e-08
6.4908e-08
1.36457e-07
2.5923e-07
4.43346e-07
6.66251e-07
9.20459e-07
1.20279e-06
1.5118e-06
1.84472e-06
2.19748e-06
2.56415e-06
2.9363e-06
3.30063e-06
3.64098e-06
3.93915e-06
4.19079e-06
)
;
    }
    outlet
    {
        type            calculated;
        value           nonuniform List<scalar> 0();
    }
    walls
    {
        type            calculated;
        value           nonuniform List<scalar> 0();
    }
    frontAndBack
    {
        type            empty;
    }
    procBoundary4to0
    {
        type            processor;
        value           nonuniform List<scalar> 
72
(
0.000509547
0.000432621
0.000369789
0.000317852
0.000274568
0.000238202
0.00020743
0.00018123
0.000158808
0.000139527
0.00012287
0.000108426
9.58558e-05
8.4883e-05
7.52786e-05
6.68502e-05
5.94358e-05
5.29008e-05
4.71305e-05
4.20257e-05
3.75027e-05
3.34902e-05
3.34902e-05
2.94101e-05
2.62935e-05
2.35191e-05
2.10471e-05
1.88423e-05
1.68746e-05
1.5117e-05
1.35458e-05
1.21406e-05
1.08829e-05
9.75683e-06
8.74796e-06
7.84367e-06
7.0328e-06
6.30541e-06
5.65267e-06
5.06672e-06
4.54054e-06
4.0679e-06
3.64325e-06
3.26164e-06
2.91861e-06
2.61022e-06
2.33293e-06
2.08356e-06
1.85928e-06
1.65756e-06
1.47613e-06
1.31295e-06
1.16617e-06
1.03419e-06
9.15565e-07
8.09044e-07
7.13442e-07
6.27781e-07
5.5228e-07
4.9142e-07
4.4321e-07
3.99111e-07
3.56024e-07
3.15055e-07
2.76383e-07
2.40491e-07
2.07729e-07
1.78074e-07
1.51608e-07
1.30233e-07
1.17247e-07
1.11275e-07
)
;
    }
    procBoundary4to5
    {
        type            processor;
        value           nonuniform List<scalar> 
95
(
0.000609177
0.00061265
0.000614814
0.00052252
0.00052252
0.000522161
0.000446701
0.000446701
0.000444452
0.000383156
0.000383156
0.000332288
0.000332288
0.000289809
0.000255748
0.000255748
0.000225164
0.000225164
0.000198938
0.000177291
0.000177291
0.000157656
0.000141048
0.000141048
0.000126085
0.000113134
0.000113134
0.000101554
9.13304e-05
8.21347e-05
8.21347e-05
7.40998e-05
6.67426e-05
6.01041e-05
6.01041e-05
5.442e-05
4.90562e-05
4.42074e-05
4.42074e-05
4.01239e-05
3.61775e-05
3.26047e-05
3.26047e-05
2.96346e-05
2.67112e-05
2.40643e-05
2.16699e-05
1.95056e-05
1.95056e-05
1.77409e-05
1.59636e-05
1.43573e-05
1.29075e-05
1.15999e-05
1.15999e-05
1.05352e-05
9.46309e-06
8.49756e-06
7.62877e-06
6.84775e-06
6.84775e-06
6.20201e-06
5.56559e-06
4.99445e-06
4.48237e-06
4.02347e-06
3.61245e-06
3.2445e-06
3.2445e-06
2.93145e-06
2.63477e-06
2.36939e-06
2.13161e-06
1.91775e-06
1.72489e-06
1.55137e-06
1.39614e-06
1.39614e-06
1.25986e-06
1.13649e-06
1.02786e-06
9.42103e-07
8.72646e-07
8.07162e-07
7.42843e-07
6.83153e-07
6.18565e-07
5.77029e-07
5.77029e-07
4.90433e-07
5.19363e-07
4.08768e-07
6.19992e-07
6.76967e-07
9.91644e-07
)
;
    }
}


// ************************************************************************* //
