/*--------------------------------*- C++ -*----------------------------------*\
| =========                 |                                                 |
| \\      /  F ield         | OpenFOAM: The Open Source CFD Toolbox           |
|  \\    /   O peration     | Version:  2306                                  |
|   \\  /    A nd           | Website:  www.openfoam.com                      |
|    \\/     M anipulation  |                                                 |
\*---------------------------------------------------------------------------*/
FoamFile
{
    version     2.0;
    format      ascii;
    arch        "LSB;label=32;scalar=64";
    class       volSymmTensorField;
    location    "225";
    object      turbulenceProperties:R;
}
// * * * * * * * * * * * * * * * * * * * * * * * * * * * * * * * * * * * * * //

dimensions      [0 2 -2 0 0 0 0];

internalField   nonuniform List<symmTensor> 
1340
(
(0.000369853 -3.46961e-05 1.29852e-21 0.000315739 2.9295e-22 0.000342824)
(0.000366284 -3.91111e-05 2.072e-20 0.000324537 1.66484e-20 0.00034539)
(0.000361213 -4.24007e-05 -8.40889e-21 0.000333612 -6.40005e-21 0.000347415)
(0.000314041 -2.96952e-05 5.98217e-21 0.000268596 4.42824e-21 0.000291345)
(0.000311472 -3.34091e-05 -4.49219e-21 0.000276419 -3.50552e-21 0.000293939)
(0.00030773 -3.62006e-05 -1.3237e-20 0.000284558 -9.01716e-21 0.000296159)
(0.000302814 -3.78266e-05 8.87629e-20 0.000292303 6.46509e-20 0.000297575)
(0.00029664 -3.82346e-05 -2.05823e-20 0.000299653 -1.59827e-20 0.000298153)
(0.000268426 -2.55955e-05 2.53093e-21 0.000230049 1.96974e-21 0.000249254)
(0.00026658 -2.87387e-05 -1.00833e-20 0.000237018 -6.60292e-21 0.000251791)
(0.000263807 -3.1117e-05 -4.46037e-20 0.000244317 -2.96625e-20 0.00025407)
(0.000260153 -3.2531e-05 -4.14535e-21 0.000251384 -4.32054e-21 0.000255774)
(0.000255536 -3.29394e-05 -6.43066e-21 0.000258227 -2.26018e-21 0.000256878)
(0.000250244 -3.22566e-05 5.79467e-20 0.000264374 3.6929e-20 0.000257312)
(0.000244364 -3.05054e-05 8.35222e-21 0.000269337 9.0515e-21 0.000256859)
(0.000230672 -2.21893e-05 -5.6679e-21 0.000198125 -3.03043e-21 0.000214411)
(0.000229335 -2.48619e-05 -3.37647e-20 0.00020433 -2.13013e-20 0.000216826)
(0.000227259 -2.68917e-05 1.34759e-20 0.00021086 9.29076e-21 0.000219067)
(0.000224508 -2.81135e-05 9.99006e-21 0.000217252 6.12446e-21 0.000220885)
(0.000221009 -2.84966e-05 4.07228e-20 0.000223536 2.52543e-20 0.000222272)
(0.000217009 -2.79693e-05 -5.89642e-20 0.000229323 -4.00108e-20 0.000223172)
(0.000212562 -2.65468e-05 7.58372e-20 0.000234194 3.8434e-20 0.000223386)
(0.000207725 -2.42716e-05 -1.96573e-19 0.000237969 -1.09053e-19 0.000222852)
(0.000199182 -1.93327e-05 9.67383e-21 0.00017147 5.7735e-21 0.000185335)
(0.000198211 -2.16155e-05 8.74218e-21 0.000177001 5.47241e-21 0.0001876)
(0.000196648 -2.33521e-05 2.8728e-21 0.000182842 2.28384e-21 0.000189752)
(0.000194567 -2.44059e-05 -4.85587e-21 0.000188611 -3.09969e-21 0.000191591)
(0.000191913 -2.47545e-05 3.66581e-20 0.00019436 1.94626e-20 0.000193134)
(0.000188876 -2.43361e-05 -3.14377e-20 0.000199739 -1.75829e-20 0.000194311)
(0.000185502 -2.3163e-05 -9.8209e-20 0.000204407 -5.68227e-20 0.00019496)
(0.000181839 -2.12682e-05 1.04947e-19 0.000208221 7.22501e-20 0.000195031)
(0.000178008 -1.87491e-05 3.47958e-20 0.000210948 2.19777e-20 0.000194484)
(0.000172705 -1.69168e-05 -1.64471e-21 0.000149034 -4.42044e-22 0.000160877)
(0.000172004 -1.88737e-05 -4.69026e-21 0.000153971 -2.29643e-21 0.000162982)
(0.000170814 -2.03617e-05 -1.88845e-20 0.000159189 -1.01923e-20 0.000165008)
(0.000169228 -2.12687e-05 8.98116e-21 0.000164386 3.96445e-21 0.000166808)
(0.000167208 -2.15779e-05 -2.84474e-20 0.000169619 -1.70206e-20 0.000168411)
(0.000164887 -2.12352e-05 6.64101e-20 0.00017457 3.80956e-20 0.000169732)
(0.00016232 -2.02535e-05 -3.77306e-21 0.000178967 6.56824e-21 0.000170648)
(0.000159544 -1.86599e-05 3.66468e-20 0.000182691 7.25786e-21 0.000171119)
(0.000156647 -1.65313e-05 2.87566e-20 0.000185541 7.32215e-21 0.000171099)
(0.0001503 -1.48586e-05 -2.01607e-20 0.000130024 -1.10522e-20 0.000140167)
(0.000149793 -1.65406e-05 3.08535e-20 0.00013443 1.63343e-20 0.000142107)
(0.00014888 -1.78184e-05 -2.30482e-20 0.000139095 -1.15963e-20 0.000143994)
(0.000147673 -1.85983e-05 1.30871e-20 0.000143776 4.82645e-21 0.000145724)
(0.000146126 -1.88668e-05 -7.65652e-20 0.000148518 -3.77088e-20 0.000147321)
(0.000144352 -1.85789e-05 4.20147e-20 0.000153056 1.89537e-20 0.000148706)
(0.000142399 -1.77468e-05 1.03899e-19 0.000157155 4.86532e-20 0.00014978)
(0.000140298 -1.63928e-05 -1.47534e-19 0.000160721 -7.56576e-20 0.00015051)
(0.000138117 -1.458e-05 -7.2408e-20 0.000163581 -3.20122e-20 0.000150852)
(0.00013586 -1.2367e-05 6.09301e-20 0.000165602 2.48691e-20 0.000150733)
(0.000131226 -1.30938e-05 1.02791e-20 0.000113816 4.94862e-21 0.000122524)
(0.000130856 -1.45427e-05 5.34312e-21 0.000117748 3.03438e-21 0.0001243)
(0.000130157 -1.56423e-05 1.52218e-20 0.000121927 7.64057e-21 0.000126047)
(0.000129234 -1.63115e-05 -4.40745e-20 0.000126136 -2.17439e-20 0.000127685)
(0.000128045 -1.65406e-05 8.30195e-20 0.000130426 4.16201e-20 0.000129234)
(0.000126687 -1.62923e-05 -1.56935e-19 0.000134567 -7.49784e-20 0.000130629)
(0.000125206 -1.55787e-05 -6.51186e-20 0.000138359 -3.07039e-20 0.000131784)
(0.000123615 -1.44171e-05 8.33366e-20 0.000141719 4.86506e-20 0.000132667)
(0.000121978 -1.28614e-05 4.27222e-20 0.000144509 2.11189e-20 0.000133246)
(0.000120296 -1.09614e-05 -3.97001e-20 0.000146608 -2.4258e-20 0.000133454)
(0.000118577 -8.76729e-06 -1.11237e-20 0.000147939 -4.46663e-21 0.00013326)
(0.000114901 -1.15705e-05 -1.08058e-20 9.99187e-05 -4.74283e-21 0.000107412)
(0.00011463 -1.28223e-05 -8.214e-21 0.000103432 -4.27771e-21 0.000109029)
(0.000114097 -1.37698e-05 2.64992e-20 0.000107179 1.25155e-20 0.000110642)
(0.000113384 -1.43428e-05 6.50424e-21 0.00011096 3.32543e-21 0.000112172)
(0.000112473 -1.4536e-05 3.82222e-20 0.00011484 1.75503e-20 0.000113655)
(0.000111433 -1.43167e-05 2.22128e-19 0.000118605 1.07922e-19 0.000115021)
(0.000110309 -1.36974e-05 3.83194e-20 0.000122091 1.74955e-20 0.000116202)
(0.000109113 -1.26932e-05 3.72095e-20 0.000125229 1.10034e-20 0.000117171)
(0.000107897 -1.13505e-05 -3.02515e-20 0.000127902 -1.41133e-20 0.000117901)
(0.000106657 -9.70874e-06 -2.6463e-20 0.000130007 -9.61559e-21 0.000118334)
(0.000105405 -7.81043e-06 -2.29301e-20 0.000131481 -8.97687e-21 0.000118444)
(0.00010086 -1.02497e-05 8.81623e-21 8.79447e-05 3.56287e-21 9.44041e-05)
(0.000100667 -1.1334e-05 2.84615e-20 9.10928e-05 1.27597e-20 9.58778e-05)
(0.000100254 -1.21503e-05 2.97986e-20 9.44477e-05 1.33404e-20 9.73551e-05)
(9.97087e-05 -1.26411e-05 -4.43908e-20 9.78512e-05 -2.08042e-20 9.87786e-05)
(9.90075e-05 -1.28011e-05 -7.42841e-20 0.000101352 -3.50506e-20 0.000100178)
(9.82165e-05 -1.26042e-05 -4.91401e-20 0.000104772 -2.79187e-20 0.000101496)
(9.73647e-05 -1.2061e-05 -5.11245e-20 0.000107961 -2.16846e-20 0.000102664)
(9.64719e-05 -1.11861e-05 -2.95225e-20 0.000110872 -1.57133e-20 0.000103672)
(9.55772e-05 -1.00191e-05 4.8851e-20 0.000113396 2.27683e-20 0.000104488)
(9.46772e-05 -8.59377e-06 -2.23377e-21 0.000115453 -1.13471e-21 0.000105066)
(9.37769e-05 -6.94416e-06 9.30855e-21 0.000116983 4.7375e-21 0.000105381)
(9.28875e-05 -5.11882e-06 -2.54458e-20 0.000117927 -1.16281e-20 0.000105409)
(8.87356e-05 -9.09977e-06 -3.34151e-21 7.7586e-05 -1.08957e-21 8.31617e-05)
(8.8599e-05 -1.004e-05 -2.71504e-20 8.04064e-05 -1.18376e-20 8.45012e-05)
(8.82795e-05 -1.07444e-05 -3.09438e-20 8.34163e-05 -1.38562e-20 8.58516e-05)
(8.78605e-05 -1.11638e-05 -6.06992e-21 8.64767e-05 -1.55156e-21 8.71674e-05)
(8.73244e-05 -1.12944e-05 2.37123e-20 8.9637e-05 1.04224e-20 8.84796e-05)
(8.67207e-05 -1.1114e-05 -1.8548e-20 9.27349e-05 -7.40203e-21 8.97292e-05)
(8.60822e-05 -1.06336e-05 8.66061e-20 9.56469e-05 3.83214e-20 9.08652e-05)
(8.5422e-05 -9.86629e-06 -6.67023e-20 9.83282e-05 -2.73753e-20 9.18748e-05)
(8.47735e-05 -8.84657e-06 -8.85382e-21 0.00010069 -6.13776e-21 9.27328e-05)
(8.41336e-05 -7.6032e-06 -2.43817e-20 0.000102662 -4.30885e-21 9.33986e-05)
(8.3508e-05 -6.16455e-06 2.54517e-20 0.0001042 1.76034e-21 9.38545e-05)
(8.29029e-05 -4.57106e-06 -4.60723e-20 0.000105249 -1.0215e-20 9.40766e-05)
(7.82277e-05 -8.09428e-06 -1.67691e-20 6.859e-05 -6.88994e-21 7.34093e-05)
(7.81308e-05 -8.9107e-06 1.47061e-20 7.11181e-05 5.83913e-21 7.4623e-05)
(7.78835e-05 -9.51888e-06 -5.04469e-21 7.382e-05 -1.9372e-21 7.58553e-05)
(7.75622e-05 -9.87666e-06 -1.11866e-20 7.65734e-05 -4.00806e-21 7.70664e-05)
(7.7153e-05 -9.98129e-06 -3.71782e-20 7.9424e-05 -1.58494e-20 7.82877e-05)
(7.66944e-05 -9.8138e-06 -2.95199e-20 8.2227e-05 -1.08805e-20 7.94619e-05)
(7.62201e-05 -9.38572e-06 3.82129e-20 8.4878e-05 1.50924e-20 8.05496e-05)
(7.5739e-05 -8.70839e-06 1.91733e-20 8.73388e-05 9.86025e-21 8.15389e-05)
(7.52793e-05 -7.81233e-06 -3.09769e-20 8.95321e-05 -1.17163e-20 8.2407e-05)
(7.48397e-05 -6.72272e-06 1.07358e-19 9.14014e-05 4.12088e-20 8.31213e-05)
(7.44235e-05 -5.46311e-06 -1.35631e-19 9.29082e-05 -5.12226e-20 8.36663e-05)
(7.40345e-05 -4.06679e-06 1.38519e-19 9.40052e-05 5.07971e-20 8.40208e-05)
(7.36676e-05 -2.56429e-06 -1.19757e-19 9.4649e-05 -2.92644e-20 8.41592e-05)
(6.90868e-05 -7.21185e-06 -1.11013e-21 6.07479e-05 -4.48299e-22 6.49174e-05)
(6.90215e-05 -7.92193e-06 -2.0596e-20 6.30182e-05 -8.01143e-21 6.60187e-05)
(6.88281e-05 -8.44691e-06 3.85387e-21 6.54431e-05 1.8139e-21 6.71388e-05)
(6.85845e-05 -8.75176e-06 1.62333e-20 6.79226e-05 6.7834e-21 6.82519e-05)
(6.82725e-05 -8.83346e-06 1.42141e-20 7.04924e-05 6.28151e-21 6.93817e-05)
(6.7927e-05 -8.67656e-06 4.80444e-20 7.3027e-05 2.05492e-20 7.0478e-05)
(6.75797e-05 -8.29262e-06 7.50302e-20 7.54355e-05 2.60508e-20 7.15079e-05)
(6.72364e-05 -7.69155e-06 3.33045e-20 7.76857e-05 1.01548e-20 7.24606e-05)
(6.69218e-05 -6.90066e-06 -4.24552e-20 7.97115e-05 -1.20128e-20 7.33174e-05)
(6.66334e-05 -5.94176e-06 -1.77424e-21 8.1464e-05 -6.12693e-21 7.40492e-05)
(6.63755e-05 -4.83485e-06 6.11913e-21 8.29134e-05 1.41192e-20 7.46448e-05)
(6.61522e-05 -3.60879e-06 -3.38054e-20 8.40204e-05 -2.15138e-20 7.50868e-05)
(6.59556e-05 -2.28698e-06 1.19949e-19 8.47457e-05 4.86319e-20 7.53515e-05)
(6.11129e-05 -6.43502e-06 4.51728e-21 5.38916e-05 1.95648e-21 5.7502e-05)
(6.10691e-05 -7.05306e-06 -3.4898e-20 5.59302e-05 -1.28407e-20 5.84988e-05)
(6.09181e-05 -7.50661e-06 3.51267e-20 5.81099e-05 1.32294e-20 5.9517e-05)
(6.07348e-05 -7.76562e-06 -2.00246e-20 6.03426e-05 -7.84029e-21 6.05373e-05)
(6.04976e-05 -7.82732e-06 -1.8871e-20 6.26585e-05 -7.38889e-21 6.15775e-05)
(6.02412e-05 -7.67946e-06 5.23103e-20 6.49498e-05 1.85794e-20 6.25963e-05)
(5.99901e-05 -7.3327e-06 -6.90856e-20 6.71334e-05 -3.06101e-20 6.35621e-05)
(5.97534e-05 -6.7967e-06 -2.03976e-20 6.91864e-05 -7.27833e-21 6.44696e-05)
(5.95493e-05 -6.09567e-06 1.08408e-19 7.10483e-05 3.68903e-20 6.52995e-05)
(5.93777e-05 -5.24892e-06 -4.13145e-20 7.26809e-05 -1.5575e-20 6.60295e-05)
(5.92405e-05 -4.2733e-06 1.42913e-19 7.4058e-05 4.27174e-20 6.66492e-05)
(5.91421e-05 -3.19324e-06 -7.70821e-20 7.51479e-05 -2.3116e-20 6.71454e-05)
(5.90748e-05 -2.02835e-06 1.17724e-20 7.59162e-05 -1.24827e-20 6.74957e-05)
(5.904e-05 -8.02166e-07 1.7729e-20 7.63386e-05 4.98907e-21 6.76895e-05)
(5.4137e-05 -5.74922e-06 1.44352e-20 4.78798e-05 5.32727e-21 5.10081e-05)
(5.41087e-05 -6.28759e-06 -1.97031e-20 4.97115e-05 -6.77524e-21 5.19094e-05)
(5.39922e-05 -6.67952e-06 -4.67099e-21 5.16731e-05 -2.01495e-21 5.28351e-05)
(5.38533e-05 -6.89872e-06 -3.2808e-20 5.36817e-05 -1.22835e-20 5.37664e-05)
(5.36753e-05 -6.94334e-06 -5.05426e-20 5.577e-05 -1.6963e-20 5.47221e-05)
(5.34869e-05 -6.80317e-06 4.8166e-20 5.78388e-05 1.42484e-20 5.56638e-05)
(5.33116e-05 -6.48872e-06 -8.49026e-20 5.98176e-05 -2.82828e-20 5.65648e-05)
(5.31548e-05 -6.00851e-06 -3.98186e-20 6.16845e-05 -1.40329e-20 5.74196e-05)
(5.30352e-05 -5.38456e-06 -1.10381e-19 6.33909e-05 -3.9558e-20 5.82137e-05)
(5.29501e-05 -4.6339e-06 -3.01403e-20 6.4901e-05 -1.19613e-20 5.8926e-05)
(5.29038e-05 -3.7714e-06 -1.43996e-19 6.61968e-05 -5.53606e-20 5.95505e-05)
(5.28972e-05 -2.81795e-06 3.72487e-20 6.72482e-05 1.90497e-20 6.00731e-05)
(5.29269e-05 -1.78967e-06 -1.99486e-19 6.80309e-05 -5.54987e-20 6.0479e-05)
(5.2992e-05 -7.05865e-07 3.50233e-20 6.85217e-05 1.86835e-20 6.07568e-05)
(4.80195e-05 -5.14236e-06 -1.04535e-20 4.25952e-05 -3.53576e-21 4.53069e-05)
(4.80018e-05 -5.6116e-06 2.1394e-20 4.42419e-05 7.75803e-21 4.61213e-05)
(4.79128e-05 -5.95015e-06 3.78676e-21 4.60081e-05 1.0956e-21 4.69627e-05)
(4.78082e-05 -6.13507e-06 -6.93752e-20 4.7816e-05 -2.31794e-20 4.7811e-05)
(4.76763e-05 -6.16511e-06 7.81527e-20 4.96985e-05 2.72725e-20 4.86869e-05)
(4.75407e-05 -6.03182e-06 -1.08635e-19 5.15657e-05 -3.92749e-20 4.95539e-05)
(4.74227e-05 -5.74531e-06 9.40722e-20 5.33562e-05 3.43234e-20 5.03896e-05)
(4.73282e-05 -5.31359e-06 -1.58929e-20 5.50527e-05 -3.93149e-21 5.11901e-05)
(4.72717e-05 -4.75655e-06 8.38474e-20 5.66103e-05 3.1137e-20 5.19415e-05)
(4.72524e-05 -4.08934e-06 -6.37209e-20 5.80017e-05 -2.153e-20 5.26271e-05)
(4.72728e-05 -3.3247e-06 -5.3763e-20 5.92106e-05 -5.70816e-21 5.32418e-05)
(4.73339e-05 -2.48026e-06 9.30102e-20 6.02131e-05 3.1082e-20 5.37739e-05)
(4.74341e-05 -1.57068e-06 1.61239e-19 6.09888e-05 5.76567e-20 5.42117e-05)
(4.75706e-05 -6.11216e-07 1.1025e-19 6.15163e-05 2.73507e-20 5.45435e-05)
(4.26432e-05 -4.60422e-06 1.04109e-20 3.79397e-05 3.44218e-21 4.02909e-05)
(4.2633e-05 -5.0134e-06 -1.0507e-20 3.9421e-05 -3.18654e-21 4.10265e-05)
(4.2564e-05 -5.3055e-06 6.76056e-21 4.10104e-05 2.28645e-21 4.17893e-05)
(4.24865e-05 -5.46096e-06 4.7809e-21 4.26391e-05 2.67368e-21 4.25617e-05)
(4.23898e-05 -5.47851e-06 -5.28194e-20 4.43351e-05 -1.87249e-20 4.33621e-05)
(4.22951e-05 -5.35154e-06 -6.05107e-20 4.602e-05 -1.79592e-20 4.41583e-05)
(4.22205e-05 -5.08947e-06 -4.39745e-20 4.76382e-05 -1.49875e-20 4.49295e-05)
(4.21737e-05 -4.7002e-06 -1.332e-20 4.91774e-05 -1.729e-21 4.56754e-05)
(4.21641e-05 -4.20107e-06 4.06447e-21 5.05963e-05 1.50584e-21 4.63808e-05)
(4.21934e-05 -3.60624e-06 -1.02669e-21 5.18732e-05 2.15454e-21 4.70336e-05)
(4.22622e-05 -2.92674e-06 1.0338e-19 5.29938e-05 3.28434e-20 4.76282e-05)
(4.23731e-05 -2.17794e-06 1.92266e-20 5.39401e-05 -1.88579e-21 4.81566e-05)
(4.25223e-05 -1.3718e-06 -3.83892e-20 5.46927e-05 -1.68295e-20 4.86077e-05)
(4.27097e-05 -5.21319e-07 -2.86536e-20 5.5236e-05 -1.4326e-20 4.89727e-05)
(4.29329e-05 3.55454e-07 -1.55744e-19 5.55518e-05 -3.8836e-20 4.92426e-05)
(3.79083e-05 -4.12594e-06 1.40263e-20 3.38291e-05 4.48464e-21 3.58681e-05)
(3.79037e-05 -4.48293e-06 3.27868e-20 3.51628e-05 1.07366e-20 3.65328e-05)
(3.78498e-05 -4.7347e-06 -5.00659e-20 3.65933e-05 -1.561e-20 3.72235e-05)
(3.7793e-05 -4.86476e-06 7.26054e-20 3.80602e-05 2.40064e-20 3.79255e-05)
(3.77237e-05 -4.87187e-06 1.22147e-20 3.95887e-05 4.84472e-21 3.86558e-05)
(3.76598e-05 -4.7507e-06 9.33816e-20 4.11075e-05 3.16696e-20 3.93844e-05)
(3.76193e-05 -4.51045e-06 7.17507e-20 4.25701e-05 2.19156e-20 4.00947e-05)
(3.76075e-05 -4.15838e-06 5.60617e-20 4.39638e-05 1.92245e-20 4.07855e-05)
(3.76333e-05 -3.7101e-06 8.56105e-20 4.52544e-05 2.33562e-20 4.14441e-05)
(3.76973e-05 -3.17854e-06 -3.74789e-20 4.64218e-05 -1.25028e-20 4.20597e-05)
(3.78007e-05 -2.57306e-06 -4.543e-20 4.74559e-05 -1.93429e-20 4.26283e-05)
(3.79455e-05 -1.90728e-06 -6.00983e-20 4.83411e-05 -1.75226e-20 4.31435e-05)
(3.8129e-05 -1.19167e-06 7.33533e-20 4.90617e-05 1.927e-20 4.35954e-05)
(3.83515e-05 -4.36966e-07 2.72337e-20 4.96055e-05 5.85528e-21 4.39784e-05)
(3.86096e-05 3.41942e-07 5.67093e-20 4.9955e-05 2.64088e-20 4.42826e-05)
(3.37305e-05 -3.70013e-06 -2.66936e-20 3.01929e-05 -8.15267e-21 3.19611e-05)
(3.37302e-05 -4.01166e-06 -2.73691e-21 3.13944e-05 -8.86334e-22 3.25619e-05)
(3.36872e-05 -4.22843e-06 8.27225e-20 3.26819e-05 2.60275e-20 3.31864e-05)
(3.36466e-05 -4.33664e-06 -1.68919e-21 3.40034e-05 -1.12186e-21 3.3824e-05)
(3.35988e-05 -4.33507e-06 -3.67078e-20 3.53809e-05 -1.10954e-20 3.44895e-05)
(3.3558e-05 -4.21932e-06 -1.14248e-20 3.67497e-05 -6.10124e-21 3.51545e-05)
(3.35435e-05 -3.99861e-06 -9.15956e-20 3.80709e-05 -2.95396e-20 3.58072e-05)
(3.3557e-05 -3.67924e-06 2.43812e-20 3.9331e-05 8.2081e-21 3.64439e-05)
(3.36086e-05 -3.27567e-06 -1.08647e-19 4.05029e-05 -3.30363e-20 3.7056e-05)
(3.36969e-05 -2.79935e-06 2.41764e-20 4.15674e-05 6.10396e-21 3.76323e-05)
(3.38243e-05 -2.25899e-06 -4.58025e-20 4.25175e-05 -1.08354e-20 3.8171e-05)
(3.39912e-05 -1.66611e-06 -9.05007e-21 4.3339e-05 -1.38641e-22 3.86651e-05)
(3.4197e-05 -1.02977e-06 -9.49287e-20 4.40216e-05 -3.29158e-20 3.91094e-05)
(3.44408e-05 -3.59251e-07 -4.95305e-20 4.45531e-05 -1.00281e-20 3.94969e-05)
(3.47203e-05 3.32877e-07 5.87792e-20 4.49193e-05 9.45865e-21 3.98198e-05)
(3.00387e-05 -3.32052e-06 5.22913e-21 2.69713e-05 1.62087e-21 2.85044e-05)
(3.00402e-05 -3.59223e-06 -3.35111e-20 2.80531e-05 -1.01093e-20 2.90464e-05)
(3.00064e-05 -3.7787e-06 -5.30388e-20 2.92129e-05 -1.65323e-20 2.96112e-05)
(2.99777e-05 -3.86809e-06 -1.10798e-20 3.04031e-05 -2.75747e-21 3.01895e-05)
(2.99456e-05 -3.85926e-06 5.089e-20 3.16438e-05 1.53183e-20 3.07945e-05)
(2.99234e-05 -3.74888e-06 -5.8913e-20 3.28779e-05 -1.72934e-20 3.14012e-05)
(2.99275e-05 -3.54567e-06 -5.75358e-21 3.40696e-05 1.93071e-21 3.19986e-05)
(2.99597e-05 -3.25529e-06 1.06034e-19 3.52084e-05 2.86801e-20 3.2584e-05)
(3.0029e-05 -2.89134e-06 7.69539e-20 3.62698e-05 2.3608e-20 3.31498e-05)
(3.01342e-05 -2.46372e-06 -9.51971e-20 3.72387e-05 -2.82429e-20 3.36865e-05)
(3.02766e-05 -1.9804e-06 3.70615e-20 3.81079e-05 1.57517e-20 3.41925e-05)
(3.04578e-05 -1.45146e-06 2.28942e-20 3.88677e-05 6.79529e-21 3.46628e-05)
(3.06765e-05 -8.85037e-07 -7.21432e-20 3.95081e-05 -1.119e-20 3.50924e-05)
(3.09322e-05 -2.88376e-07 7.44406e-20 4.00197e-05 2.03818e-20 3.54759e-05)
(3.12232e-05 3.27463e-07 -6.41067e-20 4.03907e-05 -2.11327e-20 3.58071e-05)
(3.15474e-05 9.52128e-07 5.73188e-20 4.06101e-05 1.7439e-20 3.60786e-05)
(2.67712e-05 -2.9815e-06 2.52528e-21 2.41121e-05 7.49547e-22 2.5441e-05)
(2.67733e-05 -3.21845e-06 7.00899e-22 2.50862e-05 3.37159e-22 2.59295e-05)
(2.67465e-05 -3.37862e-06 -1.71379e-20 2.61311e-05 -4.8182e-21 2.64403e-05)
(2.67272e-05 -3.4519e-06 1.47372e-20 2.72034e-05 4.58541e-21 2.69644e-05)
(2.67068e-05 -3.43712e-06 -3.66174e-20 2.83204e-05 -1.01754e-20 2.75134e-05)
(2.66987e-05 -3.33198e-06 7.85909e-20 2.94327e-05 2.36631e-20 2.80662e-05)
(2.67164e-05 -3.14455e-06 5.06918e-20 3.05072e-05 1.13919e-20 2.86117e-05)
(2.67622e-05 -2.88018e-06 -1.7711e-19 3.15357e-05 -5.34513e-20 2.91488e-05)
(2.68432e-05 -2.55125e-06 1.83547e-20 3.24959e-05 7.2261e-21 2.96699e-05)
(2.69592e-05 -2.16673e-06 6.88815e-21 3.33759e-05 4.01272e-21 3.01676e-05)
(2.71106e-05 -1.73365e-06 9.11584e-20 3.41693e-05 2.2385e-20 3.064e-05)
(2.72991e-05 -1.26124e-06 5.96907e-20 3.48681e-05 1.02905e-20 3.10837e-05)
(2.75231e-05 -7.55944e-07 1.09475e-19 3.5464e-05 3.2886e-20 3.14936e-05)
(2.77833e-05 -2.2475e-07 -3.32769e-20 3.59505e-05 -9.99804e-21 3.18668e-05)
(2.80773e-05 3.23455e-07 -3.76902e-20 3.63163e-05 -6.34503e-21 3.21968e-05)
(2.84043e-05 8.79687e-07 8.4091e-20 3.65533e-05 1.66273e-20 3.24786e-05)
(2.38749e-05 -2.67836e-06 7.50506e-21 2.15707e-05 2.08205e-21 2.27222e-05)
(2.38775e-05 -2.88496e-06 4.56203e-20 2.24485e-05 1.2936e-20 2.31627e-05)
(2.38557e-05 -3.02225e-06 3.05404e-21 2.33896e-05 1.15818e-21 2.36239e-05)
(2.38432e-05 -3.08173e-06 4.2565e-20 2.43554e-05 1.24751e-20 2.40985e-05)
(2.38321e-05 -3.06223e-06 8.57162e-21 2.53617e-05 2.15319e-21 2.45967e-05)
(2.38341e-05 -2.96211e-06 -3.98905e-20 2.63633e-05 -1.30117e-20 2.50992e-05)
(2.38615e-05 -2.78903e-06 -8.67657e-20 2.73318e-05 -2.51613e-20 2.55966e-05)
(2.39167e-05 -2.54801e-06 -8.58103e-21 2.826e-05 3.0731e-21 2.60882e-05)
(2.40052e-05 -2.25019e-06 7.15105e-20 2.91277e-05 2.02549e-20 2.65667e-05)
(2.41269e-05 -1.90392e-06 -3.97614e-20 2.9925e-05 -1.12833e-20 2.7026e-05)
(2.42824e-05 -1.51529e-06 -6.53207e-20 3.06472e-05 -2.08268e-20 2.74648e-05)
(2.44729e-05 -1.09258e-06 -1.44388e-19 3.12872e-05 -3.785e-20 2.78801e-05)
(2.46973e-05 -6.41602e-07 7.98321e-20 3.18387e-05 1.78938e-20 2.8268e-05)
(2.49561e-05 -1.6803e-07 8.5185e-20 3.22961e-05 1.7202e-20 2.8626e-05)
(2.52481e-05 3.20399e-07 -2.23617e-20 3.26514e-05 -5.1147e-21 2.89497e-05)
(2.55716e-05 8.15912e-07 -1.49171e-20 3.28959e-05 -2.8158e-21 2.92337e-05)
(2.12726e-05 -2.19204e-06 -1.21152e-21 1.86282e-05 -4.24369e-22 1.99507e-05)
(2.1305e-05 -2.40704e-06 2.64514e-21 1.93094e-05 7.52982e-22 2.03066e-05)
(2.13071e-05 -2.58706e-06 -2.68961e-20 2.01e-05 -7.48427e-21 2.07033e-05)
(2.12891e-05 -2.7045e-06 -1.99765e-20 2.09478e-05 -5.27323e-21 2.11197e-05)
(2.12817e-05 -2.75217e-06 5.12165e-20 2.18176e-05 1.36082e-20 2.15489e-05)
(2.12774e-05 -2.72892e-06 -7.88213e-20 2.27237e-05 -2.14697e-20 2.20004e-05)
(2.12866e-05 -2.63368e-06 2.39184e-21 2.36255e-05 1.67824e-21 2.24565e-05)
(2.13207e-05 -2.4737e-06 -2.05414e-20 2.44979e-05 -2.66612e-21 2.29093e-05)
(2.13819e-05 -2.25365e-06 5.36683e-20 2.53348e-05 1.41577e-20 2.33583e-05)
(2.14742e-05 -1.98366e-06 4.24275e-20 2.61178e-05 1.00797e-20 2.37964e-05)
(2.15984e-05 -1.6714e-06 4.92638e-20 2.68393e-05 1.40684e-20 2.42189e-05)
(2.17544e-05 -1.32225e-06 2.81662e-21 2.7495e-05 2.52438e-22 2.46248e-05)
(2.19432e-05 -9.43727e-07 4.37534e-21 2.80793e-05 5.80971e-21 2.50113e-05)
(2.21643e-05 -5.40673e-07 -1.40829e-20 2.85873e-05 -6.99816e-21 2.53758e-05)
(2.24177e-05 -1.18079e-07 -9.77743e-20 2.90143e-05 -2.43577e-20 2.57159e-05)
(2.27027e-05 3.17262e-07 -3.95982e-21 2.93536e-05 3.5637e-21 2.60281e-05)
(2.30178e-05 7.58828e-07 9.47899e-20 2.9598e-05 1.84071e-20 2.63078e-05)
(2.33604e-05 1.19788e-06 9.92596e-21 2.97408e-05 -1.88208e-21 2.65506e-05)
(1.89938e-05 -1.97491e-06 3.41113e-21 1.66803e-05 9.05824e-22 1.78373e-05)
(1.90217e-05 -2.16391e-06 -1.78017e-20 1.72945e-05 -4.69017e-21 1.81576e-05)
(1.9023e-05 -2.32069e-06 -2.18572e-20 1.80066e-05 -5.74305e-21 1.85146e-05)
(1.90081e-05 -2.42092e-06 1.72351e-20 1.87705e-05 4.76213e-21 1.88903e-05)
(1.90042e-05 -2.45851e-06 -3.41404e-20 1.95537e-05 -9.07339e-21 1.92783e-05)
(1.90048e-05 -2.43238e-06 5.28678e-20 2.03693e-05 1.50853e-20 1.96869e-05)
(1.90194e-05 -2.34195e-06 3.14905e-20 2.11812e-05 8.89005e-21 2.01007e-05)
(1.9058e-05 -2.19402e-06 9.21551e-20 2.19667e-05 2.42003e-20 2.05123e-05)
(1.91223e-05 -1.99292e-06 -7.85058e-20 2.27204e-05 -2.1878e-20 2.09214e-05)
(1.92164e-05 -1.74788e-06 -5.20048e-21 2.34268e-05 -1.68896e-21 2.13218e-05)
(1.93402e-05 -1.46595e-06 3.79124e-20 2.40786e-05 6.07948e-21 2.17095e-05)
(1.94938e-05 -1.15181e-06 -8.02645e-20 2.46728e-05 -1.86013e-20 2.20834e-05)
(1.96782e-05 -8.12301e-07 1.09207e-20 2.52046e-05 3.44547e-21 2.24415e-05)
(1.98928e-05 -4.51768e-07 3.66049e-21 2.56702e-05 2.40494e-21 2.27816e-05)
(2.01378e-05 -7.44913e-08 6.03363e-20 2.60658e-05 1.61702e-20 2.31017e-05)
(2.04128e-05 3.13672e-07 5.18311e-20 2.63864e-05 6.55664e-21 2.33996e-05)
(2.07166e-05 7.07437e-07 -9.14226e-20 2.66257e-05 -2.212e-20 2.3671e-05)
(2.10469e-05 1.09886e-06 -5.08639e-20 2.67782e-05 -5.40864e-21 2.39125e-05)
(1.69674e-05 -1.77974e-06 -8.67442e-22 1.49436e-05 -4.28017e-22 1.59558e-05)
(1.69912e-05 -1.94588e-06 1.65966e-21 1.54973e-05 4.26462e-22 1.62437e-05)
(1.69914e-05 -2.0823e-06 7.73172e-21 1.61388e-05 2.19711e-21 1.6565e-05)
(1.69788e-05 -2.1676e-06 5.79045e-20 1.68269e-05 1.51477e-20 1.69038e-05)
(1.69774e-05 -2.19663e-06 1.58201e-20 1.75321e-05 4.00149e-21 1.72541e-05)
(1.69816e-05 -2.16837e-06 2.25281e-20 1.82662e-05 4.84657e-21 1.76238e-05)
(1.69996e-05 -2.08259e-06 -1.30158e-20 1.89967e-05 -3.88547e-21 1.79985e-05)
(1.7041e-05 -1.94575e-06 1.52463e-20 1.97038e-05 5.16599e-21 1.83723e-05)
(1.71068e-05 -1.76183e-06 3.7604e-21 2.03823e-05 1.95509e-21 1.87445e-05)
(1.72006e-05 -1.53926e-06 -2.45099e-20 2.10191e-05 -7.54972e-21 1.911e-05)
(1.7322e-05 -1.2844e-06 -7.21095e-20 2.16069e-05 -1.79842e-20 1.94645e-05)
(1.74714e-05 -1.00164e-06 6.99441e-20 2.21443e-05 2.04114e-20 1.98078e-05)
(1.76495e-05 -6.96968e-07 -9.05146e-21 2.26272e-05 -1.50482e-21 2.01383e-05)
(1.78557e-05 -3.7414e-07 3.71631e-20 2.30523e-05 5.83657e-21 2.0454e-05)
(1.80903e-05 -3.68399e-08 -4.97092e-20 2.3417e-05 -1.36241e-20 2.07536e-05)
(1.8353e-05 3.09519e-07 -1.03702e-19 2.37169e-05 -2.6556e-20 2.10349e-05)
(1.86429e-05 6.60621e-07 6.24418e-20 2.39471e-05 1.77505e-20 2.12949e-05)
(1.89579e-05 1.00961e-06 1.21878e-19 2.41027e-05 2.47907e-20 2.15303e-05)
(1.51637e-05 -1.60419e-06 -1.73461e-21 1.33937e-05 -3.20352e-22 1.4279e-05)
(1.51836e-05 -1.75018e-06 1.66891e-20 1.38928e-05 4.20476e-21 1.45378e-05)
(1.51828e-05 -1.8688e-06 1.36568e-20 1.44706e-05 3.46263e-21 1.48266e-05)
(1.51717e-05 -1.94114e-06 -2.73595e-20 1.50902e-05 -7.04365e-21 1.51319e-05)
(1.51722e-05 -1.96294e-06 -3.39729e-20 1.57253e-05 -9.08079e-21 1.54482e-05)
(1.51786e-05 -1.93316e-06 -7.48561e-20 1.63857e-05 -1.84948e-20 1.57821e-05)
(1.5199e-05 -1.85191e-06 -2.28644e-20 1.70429e-05 -3.95395e-21 1.61213e-05)
(1.52415e-05 -1.72529e-06 1.84401e-19 1.76789e-05 4.53923e-20 1.64602e-05)
(1.53075e-05 -1.55696e-06 1.81685e-20 1.82896e-05 1.52749e-21 1.67985e-05)
(1.53995e-05 -1.35463e-06 -2.52723e-20 1.88627e-05 -6.52307e-21 1.71313e-05)
(1.55172e-05 -1.12407e-06 -1.45058e-20 1.93925e-05 -5.96463e-22 1.74549e-05)
(1.5661e-05 -8.69215e-07 4.20518e-20 1.98777e-05 6.83167e-21 1.77694e-05)
(1.58315e-05 -5.95493e-07 3.62255e-20 2.03151e-05 7.56963e-21 1.80734e-05)
(1.60279e-05 -3.06314e-07 -6.87631e-20 2.0702e-05 -1.82242e-20 1.8365e-05)
(1.62507e-05 -4.85993e-09 2.54741e-20 2.10363e-05 6.78136e-21 1.86434e-05)
(1.64997e-05 3.04397e-07 -7.17495e-20 2.13147e-05 -1.16419e-20 1.89072e-05)
(1.67744e-05 6.17531e-07 -1.98393e-20 2.15335e-05 -2.14303e-21 1.91538e-05)
(1.70724e-05 9.2865e-07 -6.50388e-20 2.16876e-05 -1.23556e-20 1.938e-05)
(1.73921e-05 1.23216e-06 6.07672e-20 2.17736e-05 1.66592e-21 1.95828e-05)
(1.35571e-05 -1.44618e-06 -4.5524e-21 1.20093e-05 -1.11504e-21 1.27834e-05)
(1.35732e-05 -1.57442e-06 -1.00327e-20 1.2459e-05 -2.44507e-21 1.30157e-05)
(1.35714e-05 -1.67745e-06 1.88636e-20 1.29793e-05 4.63607e-21 1.32752e-05)
(1.35614e-05 -1.73857e-06 1.96278e-20 1.35373e-05 5.01371e-21 1.35502e-05)
(1.3563e-05 -1.75427e-06 3.48684e-20 1.4109e-05 8.67037e-21 1.38355e-05)
(1.35711e-05 -1.72352e-06 7.46722e-20 1.47031e-05 1.92335e-20 1.4137e-05)
(1.35929e-05 -1.64674e-06 1.44829e-20 1.52941e-05 1.13961e-21 1.44438e-05)
(1.36358e-05 -1.52957e-06 -5.17418e-20 1.58662e-05 -1.51753e-20 1.47509e-05)
(1.37007e-05 -1.37545e-06 -7.45637e-20 1.64154e-05 -1.84565e-20 1.5058e-05)
(1.37896e-05 -1.1913e-06 -2.90318e-20 1.69306e-05 -3.36496e-21 1.53603e-05)
(1.39027e-05 -9.82614e-07 3.00024e-20 1.74076e-05 5.9697e-21 1.56552e-05)
(1.40401e-05 -7.52896e-07 -9.35189e-20 1.78451e-05 -2.22834e-20 1.59426e-05)
(1.42018e-05 -5.06795e-07 -1.17354e-22 1.82402e-05 -6.29782e-22 1.62211e-05)
(1.43877e-05 -2.47459e-07 -5.9008e-20 1.85913e-05 -1.02251e-20 1.64895e-05)
(1.4598e-05 2.22927e-08 -1.56116e-20 1.88966e-05 -5.81694e-21 1.67473e-05)
(1.48324e-05 2.98416e-07 1.3347e-20 1.91535e-05 4.70291e-21 1.6993e-05)
(1.50907e-05 5.7773e-07 1.08219e-19 1.93586e-05 2.50076e-20 1.72245e-05)
(1.53711e-05 8.55112e-07 1.26175e-19 1.95084e-05 2.41225e-20 1.74397e-05)
(1.56716e-05 1.12555e-06 -8.2356e-20 1.95994e-05 -1.53055e-20 1.76354e-05)
(1.21245e-05 -1.30384e-06 8.76494e-22 1.07716e-05 1.23859e-22 1.14483e-05)
(1.21374e-05 -1.41646e-06 7.15021e-21 1.11767e-05 1.72057e-21 1.16566e-05)
(1.21345e-05 -1.50585e-06 -3.6673e-20 1.16453e-05 -8.64082e-21 1.18898e-05)
(1.21253e-05 -1.55727e-06 2.4461e-20 1.21476e-05 5.44843e-21 1.21372e-05)
(1.21276e-05 -1.56783e-06 -6.0099e-20 1.26621e-05 -1.41809e-20 1.23943e-05)
(1.21367e-05 -1.53658e-06 5.47155e-20 1.31965e-05 1.15463e-20 1.26665e-05)
(1.21591e-05 -1.46408e-06 -1.99457e-19 1.37279e-05 -4.77262e-20 1.29438e-05)
(1.22016e-05 -1.35568e-06 1.18856e-20 1.42423e-05 4.47038e-21 1.32219e-05)
(1.22644e-05 -1.21447e-06 -2.26387e-20 1.47355e-05 -3.24439e-21 1.35e-05)
(1.235e-05 -1.04694e-06 1.48765e-19 1.51987e-05 3.29846e-20 1.37745e-05)
(1.24579e-05 -8.57918e-07 -4.46877e-20 1.56277e-05 -1.18049e-20 1.40428e-05)
(1.25881e-05 -6.50604e-07 1.00798e-20 1.60216e-05 4.68e-21 1.4305e-05)
(1.27408e-05 -4.29258e-07 -7.9236e-22 1.63781e-05 1.11513e-21 1.45595e-05)
(1.29156e-05 -1.96692e-07 4.16173e-20 1.66957e-05 1.14386e-20 1.48057e-05)
(1.3113e-05 4.47457e-08 -8.38678e-20 1.69735e-05 -1.85532e-20 1.50432e-05)
(1.33326e-05 2.91438e-07 -3.76934e-20 1.7209e-05 -5.33011e-21 1.52708e-05)
(1.3574e-05 5.40633e-07 4.78236e-20 1.73997e-05 6.1679e-21 1.54868e-05)
(1.38361e-05 7.87815e-07 -5.56662e-20 1.75426e-05 -1.62879e-20 1.56893e-05)
(1.4117e-05 1.02885e-06 8.37936e-20 1.7635e-05 1.61258e-20 1.58759e-05)
(1.08463e-05 -1.17556e-06 -2.19611e-21 9.66407e-06 -4.87641e-22 1.02555e-05)
(1.08563e-05 -1.27442e-06 -1.92216e-20 1.00291e-05 -4.43179e-21 1.04423e-05)
(1.08525e-05 -1.35188e-06 2.17412e-20 1.04509e-05 5.10663e-21 1.06515e-05)
(1.08436e-05 -1.3949e-06 -4.13901e-20 1.09029e-05 -9.50938e-21 1.0874e-05)
(1.08464e-05 -1.40121e-06 7.64454e-20 1.1366e-05 1.78752e-20 1.11057e-05)
(1.0856e-05 -1.36981e-06 -9.22388e-21 1.18465e-05 -2.96141e-21 1.13512e-05)
(1.08785e-05 -1.30149e-06 1.58615e-20 1.23242e-05 5.66512e-21 1.16016e-05)
(1.092e-05 -1.20123e-06 1.2881e-20 1.27862e-05 3.35643e-21 1.18531e-05)
(1.09806e-05 -1.07188e-06 -2.4993e-20 1.32294e-05 -6.29933e-21 1.2105e-05)
(1.10622e-05 -9.19345e-07 -9.26342e-20 1.36455e-05 -2.09315e-20 1.2354e-05)
(1.11645e-05 -7.4803e-07 -1.16048e-20 1.40312e-05 -2.19172e-21 1.25979e-05)
(1.12872e-05 -5.60881e-07 7.71348e-21 1.43852e-05 2.92309e-21 1.28362e-05)
(1.14306e-05 -3.6172e-07 4.23466e-20 1.47061e-05 1.04527e-20 1.30684e-05)
(1.15942e-05 -1.52988e-07 7.12397e-20 1.49928e-05 1.57088e-20 1.32935e-05)
(1.17787e-05 6.31261e-08 -4.26913e-20 1.52448e-05 -7.60369e-21 1.35117e-05)
(1.19833e-05 2.83592e-07 4.61406e-20 1.54597e-05 1.32406e-20 1.37215e-05)
(1.22081e-05 5.05895e-07 3.09926e-21 1.56357e-05 -1.83495e-21 1.39218e-05)