/*--------------------------------*- C++ -*----------------------------------*\
| =========                 |                                                 |
| \\      /  F ield         | OpenFOAM: The Open Source CFD Toolbox           |
|  \\    /   O peration     | Version:  2306                                  |
|   \\  /    A nd           | Website:  www.openfoam.com                      |
|    \\/     M anipulation  |                                                 |
\*---------------------------------------------------------------------------*/
FoamFile
{
    version     2.0;
    format      ascii;
    arch        "LSB;label=32;scalar=64";
    class       volScalarField;
    location    "0.018";
    object      Ma;
}
// * * * * * * * * * * * * * * * * * * * * * * * * * * * * * * * * * * * * * //

dimensions      [0 0 0 0 0 0 0];

internalField   nonuniform List<scalar> 
20000
(
0.18504762
0.22078039
0.24374037
0.26314505
0.28034812
0.29424322
0.29843506
0.29830308
0.29788461
0.29761196
0.29716401
0.29674648
0.29620416
0.29562449
0.29493235
0.29415927
0.2932702
0.29227358
0.29115824
0.28993219
0.2886072
0.28721009
0.28578391
0.28438829
0.28309972
0.28200086
0.28116477
0.28064903
0.28048272
0.28064328
0.28109168
0.28176618
0.28260199
0.28353574
0.28451141
0.28548416
0.28642186
0.28729962
0.28810029
0.28880173
0.28940661
0.28992093
0.29033898
0.29067112
0.29092167
0.29111229
0.29129222
0.29140771
0.29152575
0.29144159
0.18529718
0.22119822
0.24428737
0.26379828
0.28103231
0.29450926
0.29802219
0.2978617
0.29743287
0.29715587
0.29669687
0.29626942
0.29571308
0.29511804
0.29440789
0.29361407
0.292702
0.29167979
0.29053739
0.28928358
0.28793218
0.28651266
0.28507161
0.28367293
0.28239729
0.28132952
0.28054134
0.28009438
0.28000328
0.28024159
0.28076426
0.28150453
0.28239485
0.28337165
0.28438015
0.28537845
0.28633561
0.28722809
0.28803934
0.28874901
0.28936142
0.28988228
0.2903067
0.29064475
0.29089973
0.29109456
0.29127969
0.29140254
0.29150582
0.29144359
0.18558904
0.2216736
0.2448974
0.26451478
0.28178391
0.29474456
0.29753317
0.2973913
0.29694998
0.29666574
0.29619423
0.29575482
0.29518361
0.29457179
0.29384258
0.29302678
0.29209052
0.29104147
0.28987083
0.28858819
0.28720969
0.28576762
0.2843125
0.28291285
0.28165373
0.28062137
0.27988826
0.27951758
0.27950721
0.27983031
0.28043274
0.28124333
0.28219199
0.28321484
0.28425819
0.28528225
0.28625808
0.28716439
0.28798562
0.28870324
0.28932226
0.28984851
0.29027819
0.29062122
0.29087982
0.29107842
0.29126902
0.29139706
0.29149841
0.29143903
0.1858506
0.22211407
0.24547014
0.26518715
0.28249203
0.29487546
0.29697829
0.29687929
0.29642674
0.2961361
0.29565244
0.29520113
0.29461472
0.2939856
0.2932366
0.29239798
0.29143661
0.29035976
0.28916002
0.28784791
0.2864421
0.28497796
0.28351024
0.28211241
0.28087393
0.27988158
0.279211
0.27892158
0.27899761
0.27941006
0.28009573
0.28097904
0.28198751
0.28305728
0.28413614
0.28518647
0.28618122
0.28710136
0.28793239
0.28865785
0.28928342
0.289815
0.29024985
0.2905978
0.29086009
0.29106257
0.29125869
0.29139008
0.29148518
0.29143459
0.1861021
0.22254603
0.24603431
0.26584498
0.28317957
0.29491542
0.29644968
0.29632865
0.29586455
0.29556696
0.29507071
0.29460685
0.29400473
0.29335751
0.29258793
0.29172549
0.29073795
0.28963221
0.28840232
0.28705994
0.2856265
0.28414075
0.28266207
0.28126921
0.28005586
0.279109
0.2785095
0.27830616
0.27847564
0.27898246
0.27975531
0.28071413
0.28178434
0.28290225
0.28401727
0.28509408
0.28610789
0.28704171
0.28788212
0.28861505
0.28924674
0.28978324
0.29022284
0.29057537
0.29084117
0.29104765
0.29124888
0.29138251
0.29147684
0.29142988
0.18634319
0.22296646
0.24658611
0.26647993
0.28383156
0.29485557
0.29585856
0.29573788
0.29526196
0.29495711
0.29444802
0.29397112
0.2933528
0.29268672
0.29189574
0.29100844
0.28999363
0.28885785
0.28759678
0.28622339
0.28476215
0.28325547
0.28176779
0.28038348
0.27919993
0.27830511
0.27778534
0.27767315
0.27794288
0.27854886
0.27941244
0.28044913
0.28158255
0.28274947
0.2839011
0.28500456
0.28603733
0.28698468
0.28783442
0.28857439
0.28921179
0.28975285
0.29019685
0.29055367
0.29082285
0.29103342
0.29123927
0.29137419
0.29146625
0.29142502
0.18656695
0.2233719
0.24712541
0.26709432
0.28443911
0.29469753
0.29522945
0.29510712
0.29461911
0.29430653
0.29378421
0.29329354
0.29265833
0.29197242
0.29115902
0.29024568
0.28920236
0.28803531
0.28674195
0.28533682
0.28384765
0.28232094
0.28082661
0.27945487
0.27830608
0.27747124
0.2770393
0.27702431
0.27740093
0.27811085
0.27906852
0.28018525
0.28138317
0.28259977
0.28378832
0.28491847
0.28597013
0.28693069
0.28778927
0.28853606
0.28917896
0.28972415
0.29017209
0.29053284
0.2908052
0.29101976
0.29122974
0.29136559
0.29145729
0.29142009
0.18677467
0.22376539
0.24765681
0.26769373
0.28499225
0.29443087
0.29455928
0.29443696
0.29393643
0.2936154
0.29307916
0.29257374
0.29192072
0.29121382
0.29037682
0.28943611
0.28836293
0.28716327
0.28583649
0.2843989
0.28288181
0.28133622
0.27983804
0.27848338
0.27737493
0.27660928
0.27627186
0.27636188
0.27685156
0.27767003
0.27872489
0.2799235
0.28118692
0.28245366
0.28367926
0.28483601
0.28590636
0.28687982
0.28774692
0.28850009
0.28914797
0.28969704
0.29014871
0.29051299
0.29078827
0.2910069
0.29122029
0.29135669
0.29144798
0.29141525
0.18697006
0.22414951
0.24818366
0.2682849
0.28548326
0.29403251
0.29385061
0.2937276
0.29321373
0.29288327
0.29233229
0.29181101
0.29113916
0.29040998
0.28954805
0.28857851
0.28747396
0.28624029
0.2848789
0.28340819
0.28186335
0.28030033
0.27880158
0.27746895
0.27640727
0.27572099
0.27548425
0.27568803
0.27629668
0.27722812
0.27838296
0.27966501
0.28099466
0.28231175
0.28357434
0.2847575
0.28584624
0.2868322
0.28770741
0.28846662
0.28911915
0.28967157
0.29012655
0.29049409
0.2907722
0.29099549
0.29121108
0.2913477
0.29143909
0.29141046
0.18715421
0.22452369
0.24870673
0.2688698
0.28589644
0.29351602
0.29310217
0.29297753
0.29244988
0.29210922
0.29154278
0.29100451
0.29031272
0.28955981
0.28867147
0.28767147
0.28653398
0.28526482
0.28386766
0.28236325
0.280791
0.2792124
0.27771684
0.27641152
0.27540438
0.2748079
0.27467862
0.27500477
0.27573835
0.2767869
0.27804419
0.2794109
0.28080719
0.28217463
0.28347398
0.2846832
0.28578993
0.28678794
0.28767086
0.28843571
0.2890925
0.28964789
0.2901058
0.29047613
0.29075683
0.29098528
0.29120218
0.29133873
0.29143025
0.29140563
0.1873252
0.2248859
0.24922232
0.26945049
0.2862141
0.29287883
0.29231413
0.29218678
0.29164469
0.29129279
0.29070988
0.2901532
0.28944009
0.28866185
0.2877455
0.2867134
0.28554131
0.2842352
0.28280113
0.28126254
0.27966348
0.27807158
0.2765835
0.27531124
0.27436811
0.27387129
0.27385746
0.27431438
0.27517874
0.27634822
0.27771005
0.27916228
0.28062535
0.28204288
0.28337857
0.28461336
0.28573763
0.28674724
0.28763736
0.28840731
0.28906787
0.28962603
0.29008647
0.29045916
0.29074225
0.29097563
0.29119321
0.29132986
0.29142143
0.29140085
0.187488
0.2252394
0.24972958
0.27003307
0.28642483
0.29212011
0.29148641
0.29135459
0.29079684
0.29043222
0.28983165
0.28925505
0.28851931
0.28771421
0.28676832
0.28570247
0.28449418
0.28314965
0.28167759
0.28010451
0.27847954
0.27687716
0.27540143
0.27416875
0.27330077
0.27291205
0.27302371
0.27361927
0.27462008
0.27591394
0.27738202
0.27892028
0.28044995
0.28191708
0.2832885
0.28454825
0.28568959
0.28671022
0.28760689
0.28838128
0.28904508
0.28960577
0.29006851
0.29044321
0.29072847
0.29096672
0.29118455
0.29132112
0.29141262
0.29139617
0.18763379
0.22557391
0.25022109
0.27061707
0.2865209
0.29124193
0.29061346
0.29047636
0.28990238
0.28952418
0.28890531
0.28830771
0.28754829
0.28671495
0.28573804
0.28463684
0.2833907
0.28200632
0.28049528
0.27888755
0.27723795
0.27562847
0.27417055
0.27298509
0.27220449
0.27193203
0.27218022
0.27292207
0.27406472
0.27548602
0.27706161
0.27868601
0.28028179
0.28179777
0.28320412
0.28448821
0.28564598
0.28667674
0.28757924
0.28835767
0.28902451
0.28958694
0.29005175
0.29042831
0.29071553
0.29095878
0.29117682
0.29131254
0.29140372
0.29139149
0.18775516
0.22588145
0.25068377
0.27118908
0.28649577
0.29034069
0.28969188
0.28954948
0.28895924
0.28856683
0.28792913
0.28730946
0.28652525
0.28566225
0.28465276
0.28351454
0.28222892
0.28080327
0.27925235
0.27761005
0.27593753
0.27432491
0.27289083
0.27176177
0.27108126
0.27093411
0.27132979
0.27222557
0.27351506
0.27506637
0.27675028
0.27846055
0.28012163
0.28168547
0.28312584
0.28443352
0.28560671
0.28664657
0.28755448
0.28833717
0.28900682
0.28957002
0.29003616
0.29041443
0.29070346
0.29095186
0.29116982
0.29130415
0.29139481
0.29138687
0.18786506
0.22617165
0.25112208
0.27175141
0.28634158
0.2894304
0.28872272
0.28857414
0.28796697
0.28755919
0.28690177
0.2862587
0.28544843
0.28455423
0.28351056
0.28233362
0.28100683
0.27953854
0.27794692
0.27627038
0.27457715
0.27296601
0.2715624
0.27050113
0.26993281
0.26992159
0.27047549
0.27153268
0.27297357
0.27465696
0.27644952
0.27824497
0.27997021
0.28158069
0.28305403
0.28438427
0.28557161
0.2866202
0.28753344
0.28831999
0.28899164
0.28955561
0.2900222
0.2904015
0.29069216
0.29094593
0.29116308
0.29129602
0.29138598
0.29138238
0.18796361
0.2264422
0.25152999
0.27229576
0.28605149
0.28844597
0.28770425
0.28754848
0.28692374
0.28649939
0.28582137
0.28515357
0.28431599
0.28338907
0.28230956
0.28109213
0.27972245
0.27821011
0.27657708
0.27486695
0.27315584
0.27155147
0.27018604
0.26920595
0.26876067
0.26889827
0.2696206
0.2708464
0.27244272
0.2742597
0.27616072
0.27804027
0.27982822
0.28148392
0.28298905
0.28434029
0.28554113
0.28659857
0.28751625
0.28830539
0.28897845
0.28954317
0.29001025
0.2903894
0.29068135
0.290941
0.29115668
0.29128821
0.29137736
0.29137806
0.18804692
0.22669085
0.25190027
0.27280828
0.28562296
0.28740638
0.28663403
0.28647031
0.28582758
0.28538566
0.28468636
0.28399263
0.28312646
0.28216519
0.28104798
0.27978813
0.27837368
0.27681585
0.27514084
0.27339816
0.27167265
0.27008115
0.26876298
0.26787888
0.26756743
0.26786796
0.26876866
0.27016984
0.27192502
0.27387648
0.27588526
0.27784739
0.27969629
0.28139565
0.28293103
0.28430167
0.2855163
0.28658109
0.28750211
0.28829332
0.28896748
0.28953225
0.2899998
0.29037821
0.29067142
0.29093708
0.29115081
0.29128074
0.29136897
0.29137399
0.18811123
0.22692085
0.252238
0.27327704
0.28505529
0.28630757
0.28551111
0.28533895
0.2846781
0.28421765
0.28349624
0.2827751
0.28187871
0.28088107
0.27972399
0.2784195
0.27695825
0.27535349
0.27363613
0.27186245
0.27012674
0.26855499
0.26729504
0.26652249
0.26635691
0.2668344
0.26792336
0.26950615
0.27142296
0.27350914
0.27562443
0.27766722
0.27957506
0.28131632
0.28287989
0.28426937
0.28549672
0.28656716
0.28749108
0.28828409
0.28895884
0.28952316
0.28999055
0.2903685
0.290663
0.29093416
0.29114546
0.2912736
0.2913608
0.29137026
0.18814863
0.22712983
0.25255054
0.2736881
0.28434696
0.28515698
0.28433837
0.28415662
0.28347673
0.28299602
0.28225089
0.28150018
0.28057131
0.27953482
0.27833532
0.27698379
0.27547365
0.2738206
0.27206081
0.27025827
0.26851735
0.26697313
0.2657851
0.26513918
0.26513343
0.26580173
0.26708858
0.26885854
0.27093899
0.27315946
0.27537946
0.27750057
0.27946513
0.28124612
0.28283571
0.28424428
0.28548169
0.28655724
0.28748344
0.2882777
0.2889525
0.28951594
0.28998273
0.2903603
0.29065577
0.29093212
0.29114064
0.29126665
0.29135292
0.29136693
0.18816731
0.22732819
0.25285634
0.27402981
0.28339344
0.28395838
0.28311736
0.28292378
0.28222317
0.28171972
0.28094867
0.28016573
0.27920181
0.27812378
0.27687922
0.27547817
0.27391711
0.27221461
0.27041273
0.26858422
0.26684394
0.26533643
0.26423659
0.2637312
0.26390197
0.26477435
0.26626828
0.26823018
0.27047548
0.27282909
0.27515145
0.2773482
0.27936703
0.28118501
0.28279953
0.28422543
0.28547158
0.28655138
0.28747919
0.28827416
0.28894848
0.28951059
0.28997639
0.29035299
0.2906495
0.2909307
0.29113636
0.29125999
0.29134509
0.29136395
0.18815875
0.22751208
0.2531622
0.27428112
0.28228269
0.2827088
0.2818443
0.28163673
0.28091372
0.28038506
0.27958595
0.27876826
0.27776681
0.27664469
0.27535249
0.27389962
0.27228572
0.27053283
0.26868976
0.26683898
0.26510625
0.26364639
0.26265282
0.26230221
0.26266753
0.26375695
0.26546653
0.26762426
0.27003473
0.27251961
0.27494143
0.27721087
0.27928102
0.28113303
0.28277242
0.28421233
0.28546652
0.28654958
0.28747835
0.28827347
0.28894674
0.2895071
0.28997153
0.29034659
0.29064445
0.29092973
0.29113266
0.29125389
0.29133721
0.29136127
0.18810696
0.22766944
0.25347085
0.27441778
0.28097832
0.28140249
0.28051332
0.28028969
0.27954297
0.2789871
0.27815828
0.27730377
0.27626266
0.27509411
0.27375188
0.27224493
0.27057643
0.26877254
0.26688976
0.26502132
0.26330414
0.26190525
0.26103715
0.26085722
0.26143519
0.26275445
0.26468741
0.26704387
0.2696189
0.27223242
0.27475034
0.27708921
0.279207
0.28109117
0.28275335
0.2842056
0.28546652
0.28655184
0.28748093
0.28827562
0.28894728
0.28950547
0.28996817
0.29034132
0.29064047
0.29092917
0.2911295
0.29124839
0.29132992
0.29135892
0.1879952
0.22778556
0.25377754
0.27443053
0.2795829
0.28003095
0.27911734
0.27887675
0.278106
0.27752163
0.27666192
0.2757688
0.27468602
0.27346876
0.27207406
0.27051084
0.2687861
0.26693096
0.26501069
0.26313012
0.26143778
0.26011659
0.25939278
0.25940198
0.26021045
0.26177194
0.263935
0.266492
0.26923002
0.27196881
0.27457909
0.27698349
0.27914496
0.28106079
0.28274167
0.28420525
0.28547157
0.28655815
0.28748692
0.2882806
0.28895005
0.28950567
0.2899663
0.29033718
0.2906373
0.29092884
0.29112672
0.29124316
0.29132364
0.29135705
0.18781747
0.2278484
0.25407375
0.27429956
0.27823101
0.278593
0.27765484
0.27739613
0.27660074
0.27598631
0.27509427
0.27416053
0.27303387
0.27176543
0.27031573
0.26869398
0.26691149
0.26500528
0.26305058
0.26116456
0.25950818
0.2582847
0.25772306
0.25794299
0.2589992
0.26081462
0.26321335
0.26597149
0.26886992
0.27173
0.27442843
0.27689349
0.27909601
0.28104097
0.28273804
0.2842113
0.28548164
0.2865685
0.28749632
0.28828838
0.28895503
0.28950771
0.28996592
0.29033421
0.29063479
0.29092844
0.29112418
0.29123824
0.29131812
0.29135578
0.18758678
0.22786333
0.25436638
0.27401639
0.2767542
0.27708877
0.27612527
0.27584658
0.27502549
0.27437907
0.27345293
0.27247627
0.27130318
0.26998086
0.26847341
0.26679082
0.26494924
0.26299271
0.26100763
0.25912417
0.25751722
0.25641377
0.25603308
0.25648689
0.25780768
0.25988773
0.26252638
0.265485
0.26854027
0.27151708
0.27429859
0.27681913
0.27906184
0.28103065
0.28274247
0.28422372
0.28549669
0.28658285
0.28750911
0.28829894
0.28896218
0.28951156
0.28996704
0.29033243
0.29063297
0.29092764
0.29112168
0.29123378
0.29131281
0.29135524
0.18730382
0.22782469
0.25463839
0.27356525
0.27520138
0.27551582
0.27452661
0.27422635
0.27337841
0.2726978
0.27173541
0.27071314
0.26949073
0.26811153
0.2665434
0.2647976
0.26289583
0.26089044
0.25888011
0.25700873
0.25546776
0.25450821
0.25432953
0.25504051
0.25664239
0.25899652
0.26187785
0.26503495
0.2682426
0.27133089
0.2741892
0.27676193
0.27904127
0.2810305
0.28275497
0.28424245
0.28551665
0.28660116
0.28752527
0.28831223
0.28897148
0.28951723
0.28996965
0.29033193
0.29063206
0.29092651
0.29111901
0.29122976
0.29130784
0.29135554
0.18698917
0.22774894
0.25488268
0.27291477
0.27356837
0.27387482
0.27285847
0.27253412
0.27165746
0.27093994
0.26993875
0.26886785
0.2675929
0.26615353
0.26452157
0.26271024
0.26074757
0.25869565
0.25666643
0.25481847
0.2533644
0.25257233
0.25262014
0.25361127
0.25551002
0.25814616
0.26127131
0.26462356
0.26797831
0.27117164
0.27410024
0.27672381
0.27903294
0.28104056
0.28277549
0.28426743
0.28554145
0.2866234
0.28754474
0.28832821
0.28898288
0.28952468
0.28997374
0.29033278
0.2906325
0.29092502
0.29111602
0.29122601
0.29130357
0.29135683
0.1866525
0.22764693
0.25508421
0.27196316
0.27186057
0.27216212
0.27111744
0.27076655
0.26985949
0.26910229
0.26805952
0.26693666
0.26560557
0.26410244
0.2624034
0.26052432
0.25850065
0.25640562
0.25436536
0.25255473
0.25121257
0.25061108
0.25091351
0.25220705
0.25441732
0.25734165
0.26071002
0.26425285
0.26774836
0.27103891
0.27403373
0.27670299
0.27903751
0.28106078
0.28280391
0.28429853
0.28557101
0.28664952
0.28756749
0.28834682
0.28899635
0.2895339
0.28997928
0.29033509
0.29063483
0.29092307
0.29111208
0.29122235
0.29130007
0.29135928
0.18629417
0.22752016
0.25521718
0.27077692
0.27007777
0.27037508
0.26930104
0.2689211
0.2679816
0.26718144
0.26609373
0.26491503
0.26352378
0.26195312
0.26018377
0.25823513
0.2561512
0.25401776
0.25197615
0.25021996
0.24901778
0.24863165
0.24921851
0.25083616
0.25337107
0.25658775
0.26019699
0.26392459
0.26755301
0.27093284
0.27399165
0.27669779
0.27905502
0.28109104
0.28284013
0.28433565
0.28560522
0.28667946
0.28759347
0.28836799
0.28901185
0.28954487
0.28998626
0.29033896
0.2906395
0.29092133
0.29110672
0.29121853
0.29129735
0.29136302
0.18593476
0.22737509
0.25525478
0.26934522
0.26822192
0.26851237
0.26740708
0.26699441
0.26601953
0.26517236
0.26403577
0.26279709
0.26134164
0.2596998
0.25785721
0.25583775
0.25369532
0.25152968
0.24949855
0.24781811
0.24678592
0.24664319
0.24754442
0.24950722
0.2523779
0.25588893
0.25973495
0.26364003
0.26739183
0.27085595
0.27397133
0.27670906
0.2790853
0.28113116
0.28288399
0.28437863
0.285644
0.28671317
0.28762262
0.28839165
0.28902934
0.28955756
0.28999462
0.29034443
0.29064667
0.29092018
0.29110027
0.29121387
0.29129535
0.29136811
0.18558688
0.22722392
0.25515962
0.26766105
0.26628808
0.26656781
0.26542882
0.2649792
0.26396581
0.26306769
0.2618786
0.26057617
0.25905276
0.2573364
0.25541801
0.25332721
0.25112927
0.24893926
0.24693314
0.24535538
0.2445228
0.24465628
0.24590128
0.24822899
0.25144426
0.25524935
0.25932628
0.26339955
0.26726508
0.27080978
0.27397098
0.27673666
0.27912811
0.28118094
0.28293531
0.28442733
0.28568724
0.2867506
0.28765487
0.28841771
0.28904876
0.28957193
0.29000433
0.29035149
0.29065604
0.29092032
0.29109417
0.29120806
0.29129383
0.29137455
0.18521634
0.22707541
0.25490233
0.2657317
0.26426439
0.26452988
0.26335571
0.26286584
0.26181185
0.26085979
0.25961521
0.25824566
0.25665079
0.25485672
0.25286039
0.25069853
0.24844943
0.24624491
0.2442819
0.24283884
0.24223589
0.24268248
0.24429972
0.24701021
0.25057624
0.25467275
0.25897264
0.26320274
0.26717578
0.27079088
0.27399163
0.27678029
0.27918318
0.28124015
0.28299388
0.28448157
0.28573483
0.28679168
0.28769013
0.28844608
0.28907008
0.28958793
0.29001534
0.29036008
0.29066696
0.29092225
0.29108975
0.29120185
0.29129242
0.29138222
0.18480096
0.22692894
0.25444971
0.26369737
0.26213906
0.26238856
0.26117962
0.26064748
0.25955149
0.25854271
0.25723957
0.25579934
0.25412928
0.25225438
0.25017832
0.24794668
0.24565241
0.24344575
0.24154845
0.24027589
0.23993573
0.24073375
0.24275086
0.24585952
0.24977963
0.25416243
0.25867471
0.26305004
0.26712502
0.27079764
0.27403285
0.27683957
0.27925018
0.28130852
0.28305948
0.28454119
0.28578667
0.28683634
0.28772833
0.28847667
0.28909324
0.28960551
0.2900276
0.29037011
0.29067879
0.29092525
0.29108689
0.29119652
0.291291
0.29139109
0.18432015
0.22679383
0.25380516
0.26166046
0.25991185
0.26014286
0.25889838
0.25832087
0.25718034
0.25611109
0.25474552
0.25323058
0.25148142
0.24952262
0.24736561
0.24506669
0.2427351
0.24054175
0.23873868
0.23767457
0.23763506
0.23882288
0.2412661
0.2447853
0.24905972
0.2537208
0.25843227
0.26294501
0.26710866
0.27083108
0.27409417
0.27691404
0.27932874
0.28138576
0.28313188
0.28460599
0.28584265
0.28688453
0.28776936
0.28850937
0.2891182
0.28962459
0.29004109
0.29038161
0.29069118
0.29092873
0.29108494
0.29119234
0.29129017
0.29140115
0.18375951
0.22668148
0.25292257
0.25944604
0.25758207
0.25779038
0.25650792
0.25588057
0.25469214
0.25355813
0.25212596
0.25053216
0.24869994
0.2466544
0.24441598
0.24205368
0.23969487
0.23753433
0.2358613
0.23504316
0.23534873
0.23696363
0.23985691
0.24379557
0.24842115
0.25334909
0.25824596
0.26288831
0.26712516
0.2708904
0.274175
0.2770032
0.27941847
0.28147156
0.28321082
0.28467579
0.28590266
0.28693616
0.28781311
0.2885441
0.28914491
0.28964512
0.2900558
0.29039467
0.29070397
0.29093239
0.29108342
0.29118882
0.29129058
0.29141239
0.18307899
0.22659031
0.25179289
0.25709959
0.25514002
0.25532217
0.2539999
0.25331858
0.25207921
0.25087638
0.24937344
0.24769655
0.24577722
0.24364232
0.24132294
0.23890296
0.23652992
0.23442681
0.23292579
0.2323934
0.23309251
0.23517038
0.2385346
0.24289777
0.24786746
0.25304743
0.25811993
0.26287508
0.26717527
0.27097487
0.27427464
0.27710651
0.27951893
0.28156558
0.28329603
0.28475041
0.28596662
0.28699115
0.28785947
0.28858076
0.28917334
0.28966701
0.29007177
0.29040955
0.29071695
0.29093614
0.2910821
0.29118572
0.29129242
0.29142471
0.18227694
0.22649162
0.25038395
0.25461187
0.25257766
0.25273071
0.25136729
0.25062795
0.24933465
0.24805878
0.24648046
0.24471573
0.24270495
0.24047838
0.23807972
0.23560996
0.23323949
0.231225
0.22994219
0.2297412
0.23088281
0.23345807
0.23731022
0.24209852
0.24740087
0.25281684
0.25805452
0.26290369
0.26725788
0.2710836
0.27439237
0.2772234
0.27962969
0.28166748
0.28338725
0.28482966
0.28603442
0.28704941
0.2879083
0.28861927
0.28920342
0.28969019
0.29008907
0.29042651
0.29072965
0.29093997
0.29108116
0.29118297
0.29129586
0.29143794
0.1813449
0.22635762
0.24869066
0.25199006
0.24989041
0.25001102
0.24860521
0.24780329
0.24645218
0.24509804
0.24343859
0.24158043
0.23947362
0.2371538
0.23467932
0.2321705
0.22982424
0.22793859
0.22692159
0.22710499
0.22873752
0.23184182
0.23619424
0.24140317
0.24702228
0.25266205
0.25804412
0.26297459
0.26737191
0.27121562
0.27452742
0.27735326
0.2797503
0.28177689
0.28348419
0.28491335
0.28610596
0.28711085
0.28795947
0.28865954
0.28923511
0.2897146
0.29010778
0.29044556
0.29074157
0.29094386
0.29108071
0.2911811
0.29130105
0.29145175
0.18030856
0.22614213
0.24670324
0.24923788
0.24707625
0.24715992
0.24570944
0.24483857
0.2434238
0.24198444
0.24023693
0.23827936
0.23607245
0.23365927
0.23111488
0.22858144
0.22628737
0.22457963
0.22387799
0.22450547
0.22667563
0.23033673
0.23519621
0.24081554
0.24673327
0.25258346
0.25808688
0.26308628
0.2675161
0.2713699
0.27467899
0.2774955
0.27988028
0.28189347
0.28358659
0.28500132
0.28618116
0.28717537
0.28801285
0.28870152
0.28926837
0.2897402
0.29012796
0.29046615
0.29075254
0.29094739
0.29108067
0.29118039
0.29130791
0.29146618
0.17920618
0.2258109
0.24437591
0.24635867
0.24413254
0.24417079
0.24267052
0.24172199
0.24023614
0.23870402
0.23686168
0.23479946
0.23248979
0.22998533
0.22738003
0.22484123
0.22263533
0.22116131
0.22083068
0.22196452
0.22471692
0.22895736
0.23432409
0.24033783
0.24653925
0.25257457
0.25818284
0.2632372
0.26768907
0.27154534
0.27484623
0.27764947
0.28001918
0.28201685
0.28369416
0.2850934
0.28625993
0.28724286
0.2880683
0.28874515
0.28930313
0.28976697
0.29014969
0.29048766
0.2907625
0.29095014
0.29108096
0.29118073
0.29131648
0.2914811
0.17810177
0.22534688
0.24142049
0.24333533
0.24104072
0.24102364
0.23946862
0.23843442
0.2368713
0.23524034
0.23329782
0.2311272
0.22871392
0.22612281
0.22346917
0.22095037
0.21887903
0.2176985
0.21780337
0.21950573
0.2228816
0.22771727
0.23358413
0.23997256
0.24644101
0.25263312
0.25833004
0.26342561
0.26788939
0.27174084
0.27502831
0.27781457
0.28016651
0.28214666
0.28380664
0.28518941
0.28634216
0.28731318
0.28812569
0.2887904
0.28933934
0.28979491
0.29017308
0.29050964
0.29077163
0.29095216
0.29108105
0.29118214
0.29132678
0.29149635
0.17704726
0.22469609
0.23823026
0.24013572
0.23777247
0.23769352
0.23608217
0.23495695
0.23331233
0.2315779
0.22953098
0.22724936
0.22473341
0.222063
0.21937806
0.21691237
0.21503374
0.21420899
0.21482324
0.21715443
0.22118967
0.22662827
0.23298066
0.23972604
0.24643133
0.25275875
0.25852632
0.26364962
0.26811557
0.27195526
0.27522439
0.27799017
0.28032183
0.28228255
0.28392378
0.28528923
0.28642776
0.28738621
0.28818492
0.28883722
0.28937693
0.28982407
0.29019837
0.29053174
0.29078007
0.29095359
0.29107981
0.29118441
0.29133889
0.29151168
0.17590804
0.22383112
0.23495618
0.23674211
0.23431116
0.23416482
0.23249652
0.23127562
0.22954533
0.22770265
0.22554724
0.22315284
0.22053694
0.21779793
0.21510456
0.212735
0.21111709
0.21071737
0.21191989
0.2149372
0.21966021
0.2257002
0.23251788
0.23959995
0.24650718
0.25294889
0.2587693
0.26390727
0.26836609
0.27218747
0.27543365
0.27817567
0.2804847
0.2824242
0.28404535
0.28539271
0.28651663
0.28746178
0.28824587
0.2888856
0.28941584
0.28985456
0.29022596
0.29055347
0.29078781
0.29095431
0.29107727
0.29118761
0.29135283
0.29152684
0.17466492
0.22271415
0.23149945
0.23314644
0.23064836
0.23042744
0.2287002
0.22737798
0.22555687
0.22360007
0.22133174
0.2188238
0.21611308
0.21332042
0.21064931
0.2084318
0.207149
0.2072551
0.2091251
0.21288106
0.21831046
0.22494071
0.23220336
0.23958646
0.24666781
0.25320062
0.25905641
0.26419651
0.26863942
0.27243635
0.27565526
0.27837049
0.28065466
0.28257126
0.28417111
0.28549973
0.28660865
0.28753974
0.28830846
0.28893551
0.28945603
0.28988661
0.29025636
0.29057415
0.29079503
0.2909546
0.2910744
0.29119223
0.29136855
0.29154158
0.17327432
0.22133713
0.22777229
0.22934225
0.22677654
0.22647103
0.22467998
0.22324869
0.22133088
0.21925355
0.21686796
0.21424747
0.21145042
0.20862485
0.20601688
0.2040226
0.20315389
0.20385884
0.20647335
0.21101254
0.21715546
0.2243567
0.23204015
0.2396816
0.24690992
0.2535107
0.25938497
0.26451531
0.26893404
0.27270079
0.27588844
0.27857405
0.28083132
0.28272345
0.28430089
0.2856102
0.28670369
0.28761989
0.28837262
0.28898693
0.28949748
0.28992055
0.2902894
0.2905934
0.29080199
0.29095548
0.29107289
0.29119947
0.29138585
0.29155575
0.1717212
0.21969816
0.22381027
0.22531973
0.22268472
0.22227973
0.22041849
0.21886773
0.21684728
0.2146441
0.21213794
0.20940837
0.20653811
0.20370837
0.20121768
0.19953113
0.19916535
0.20056915
0.20400057
0.20935639
0.21620781
0.22395785
0.2320202
0.23988421
0.24722958
0.25387569
0.25975227
0.26486163
0.26924847
0.27297973
0.27613243
0.27878583
0.28101427
0.28288046
0.28443451
0.28572403
0.28680161
0.28770205
0.2884383
0.28903985
0.28954024
0.28995683
0.2903241
0.29061147
0.29080883
0.29095765
0.29107433
0.29120994
0.29140442
0.29156919
0.16995329
0.21753337
0.21959688
0.22105348
0.21834944
0.21782358
0.21589466
0.21421396
0.21208346
0.20975061
0.20712245
0.2042906
0.20136636
0.19857225
0.19627029
0.1949851
0.19522697
0.19742998
0.20174309
0.20793505
0.21547867
0.223749
0.2321385
0.24019005
0.2476225
0.254292
0.26015556
0.26523346
0.26958128
0.27327216
0.27638653
0.27900531
0.28120317
0.28304207
0.28457184
0.28584116
0.28690226
0.28778605
0.28850544
0.28909423
0.28958444
0.28999601
0.29035935
0.29062861
0.29081575
0.29096101
0.29107841
0.29122371
0.2914239
0.2915817
0.1679674
0.21497257
0.2151101
0.21649515
0.2137396
0.21307231
0.21107571
0.20926677
0.20701569
0.20454936
0.20180064
0.1988782
0.19592787
0.19322375
0.19120195
0.19042051
0.19138964
0.19448881
0.19973594
0.2067682
0.21498108
0.22372242
0.23239336
0.24059393
0.24808402
0.25475597
0.26059213
0.26562884
0.26993108
0.2735771
0.27665005
0.27923203
0.28139766
0.28320804
0.28471279
0.28596153
0.28700551
0.28787169
0.288574
0.28915004
0.28963037
0.29003876
0.29039407
0.29064499
0.29082321
0.2909656
0.29108429
0.29124102
0.29144388
0.29159312
0.1657035
0.2119262
0.21032251
0.2116168
0.20882735
0.20801059
0.20593376
0.20399768
0.20161669
0.1990138
0.19615025
0.19315631
0.19022016
0.18767926
0.18604656
0.18588689
0.18771048
0.19179492
0.19801204
0.20587356
0.21472211
0.22387217
0.2327794
0.24109008
0.24860933
0.25526391
0.26105931
0.26604591
0.27029657
0.27389366
0.27692236
0.27946555
0.28159744
0.28337817
0.28485726
0.28608511
0.2871112
0.28795884
0.28864394
0.28920731
0.28967846
0.29008566
0.2904272
0.29066076
0.29083133
0.29097121
0.29109156
0.29126223
0.29146391
0.29160338
0.16313144
0.20835536
0.20522588
0.20640837
0.20358955
0.20261383
0.20045258
0.1983683
0.19585367
0.19311558
0.19014906
0.18711285
0.18424784
0.18196803
0.18084558
0.18144765
0.18425188
0.18939737
0.19660118
0.20526942
0.21469509
0.22419586
0.23328975
0.2416723
0.2491935
0.25581223
0.26155454
0.26648288
0.2706765
0.27422098
0.2772029
0.27970546
0.28180223
0.2835523
0.28500522
0.28621188
0.28721921
0.28804739
0.28871523
0.28926608
0.28972932
0.29013599
0.29045855
0.29067608
0.29083979
0.2909773
0.2911007
0.29128737
0.29148357
0.29161242
0.16029957
0.20416228
0.19980737
0.20084429
0.1980042
0.19686089
0.19459546
0.19234123
0.18969173
0.18682617
0.18377688
0.18074137
0.17802632
0.17613066
0.1756567
0.17717699
0.18108058
0.18734369
0.19553054
0.20496557
0.21489354
0.22468671
0.23391678
0.24233414
0.24983166
0.25639743
0.26207543
0.26693811
0.27106978
0.27455831
0.27749115
0.27995143
0.28201179
0.2837303
0.28515665
0.2863418
0.28732945
0.28813727
0.28878788
0.28932654
0.2897838
0.29018792
0.29048853
0.29069109
0.29084857
0.2909839
0.29111275
0.29131586
0.2915025
0.29162037
0.15735106
0.19912502
0.19403425
0.19489494
0.1920264
0.19070128
0.18828747
0.18588229
0.18309639
0.18011699
0.17701679
0.1740444
0.17158641
0.1702195
0.17055855
0.17315751
0.17826464
0.18567802
0.19482641
0.2049573
0.21531411
0.22533559
0.23465214
0.24306899
0.250519
0.25701618
0.26261969
0.26741005
0.27147537
0.27490496
0.27778665
0.28020313
0.28222591
0.28391208
0.28531154
0.28647486
0.28744183
0.28822849
0.28886192
0.28938904
0.28984295
0.29023951
0.29051711
0.29070583
0.29085793
0.29099166
0.2911288
0.29134622
0.29152047
0.29162759
0.15443107
0.19308455
0.18785079
0.18851807
0.18561941
0.18404382
0.18150047
0.17894687
0.17603034
0.17296034
0.16985828
0.16703775
0.16497757
0.16430611
0.1656475
0.16947968
0.17587165
0.18444123
0.19450202
0.20523806
0.21594804
0.22613231
0.23548712
0.24387028
0.2512509
0.25766531
0.26318522
0.26789733
0.27189233
0.27526032
0.27808901
0.28046031
0.28244442
0.28409754
0.28546988
0.28661101
0.28755629
0.28832107
0.2889375
0.28945419
0.28990743
0.29028885
0.290544
0.29072039
0.29086837
0.29100143
0.29115008
0.29137678
0.29153731
0.29163429
0.15137928
0.18623398
0.18119146
0.18163422
0.17863165
0.17684912
0.17419334
0.17148422
0.16845585
0.16533407
0.16230294
0.15975754
0.15826829
0.15848978
0.16103555
0.16623907
0.17396715
0.18367119
0.19455553
0.20580318
0.21678315
0.22706556