/*--------------------------------*- C++ -*----------------------------------*\
| =========                 |                                                 |
| \\      /  F ield         | OpenFOAM: The Open Source CFD Toolbox           |
|  \\    /   O peration     | Version:  2306                                  |
|   \\  /    A nd           | Website:  www.openfoam.com                      |
|    \\/     M anipulation  |                                                 |
\*---------------------------------------------------------------------------*/
FoamFile
{
    version     2.0;
    format      ascii;
    arch        "LSB;label=32;scalar=64";
    class       volScalarField;
    location    "0.018";
    object      T;
}
// * * * * * * * * * * * * * * * * * * * * * * * * * * * * * * * * * * * * * //

dimensions      [0 0 0 1 0 0 0];

internalField   nonuniform List<scalar> 
20000
(
298.50725
298.60634
298.63085
298.57835
298.38758
297.9024
297.59523
297.59879
297.63439
297.65769
297.69281
297.72183
297.75774
297.79241
297.83169
297.87197
297.91585
297.96174
298.01081
298.06201
298.11537
298.16976
298.22406
298.27634
298.32446
298.36574
298.39801
298.41948
298.42898
298.42713
298.41532
298.3955
298.36999
298.34083
298.31006
298.2793
298.24904
298.22022
298.19306
298.16912
298.14885
298.13008
298.11309
298.09826
298.08565
298.07561
298.06449
298.05667
298.05218
298.0591
298.5092
298.60844
298.63146
298.57435
298.37465
297.87005
297.60428
297.61274
297.64832
297.67147
297.70689
297.7361
297.77244
297.80756
297.84742
297.88837
297.93301
297.97978
298.02977
298.08194
298.13625
298.1915
298.24644
298.29903
298.34698
298.38752
298.41855
298.43808
298.44529
298.4411
298.42693
298.40499
298.37763
298.347
298.31508
298.28327
298.25218
298.22273
298.19517
298.17099
298.1504
298.1314
298.11421
298.09919
298.0865
298.07627
298.06484
298.05667
298.05358
298.05808
298.51085
298.60984
298.63091
298.56798
298.35622
297.8352
297.61418
297.62719
297.6633
297.68668
297.72254
297.75215
297.78895
297.82463
297.86508
297.90673
297.95215
297.99977
298.05066
298.10375
298.15892
298.21487
298.27024
298.32286
298.37029
298.40969
298.43901
298.45612
298.46076
298.45388
298.43715
298.41295
298.38368
298.35154
298.31846
298.28581
298.2541
298.22419
298.19633
298.17194
298.15114
298.132
298.11472
298.09959
298.08687
298.07654
298.06488
298.05672
298.05378
298.0579
298.51273
298.61216
298.63168
298.56295
298.33754
297.80734
297.62809
297.64332
297.67971
297.70315
297.73938
297.76933
297.80659
297.84281
297.88388
297.92626
297.97247
298.02099
298.0728
298.12685
298.1829
298.23959
298.2954
298.34803
298.39488
298.4331
298.46059
298.47518
298.47717
298.46749
298.44811
298.42156
298.39034
298.35664
298.32237
298.28879
298.2564
298.22598
298.19779
298.17316
298.15212
298.13283
298.11543
298.10017
298.0874
298.07692
298.06498
298.05687
298.05465
298.05757
298.51511
298.61507
298.63317
298.55799
298.31591
297.78424
297.645
297.66056
297.69737
297.72097
297.7576
297.78792
297.82567
297.86246
297.90417
297.94729
297.99434
298.04376
298.09653
298.15154
298.20847
298.26586
298.32203
298.37455
298.42065
298.4575
298.48285
298.49473
298.49381
298.48115
298.45898
298.43
298.39675
298.36145
298.32598
298.29149
298.25843
298.22753
298.19905
298.17421
298.15295
298.13353
298.11602
298.10065
298.08785
298.0772
298.06502
298.05706
298.05507
298.0573
298.51688
298.61809
298.63534
298.5537
298.2921
297.76569
297.6656
297.67929
297.71644
297.74016
297.77718
297.8079
297.84612
297.8835
297.92587
297.96977
298.01765
298.06803
298.12177
298.17776
298.23556
298.29362
298.35011
298.4024
298.44762
298.48293
298.50587
298.5149
298.51088
298.49508
298.47002
298.43851
298.40319
298.36626
298.32956
298.29415
298.26042
298.22904
298.20028
298.17522
298.15377
298.13422
298.11662
298.10114
298.08831
298.07744
298.06507
298.05729
298.05566
298.05705
298.52077
298.62287
298.63904
298.55079
298.26597
297.75221
297.68592
297.69931
297.73687
297.76075
297.79816
297.82927
297.868
297.90599
297.94903
297.99373
298.0425
298.09385
298.14859
298.20558
298.26425
298.32295
298.37966
298.4316
298.47577
298.50931
298.52956
298.53557
298.52822
298.50914
298.48107
298.44697
298.40953
298.37095
298.33301
298.29667
298.26227
298.23042
298.2014
298.17615
298.15451
298.13486
298.11717
298.1016
298.08874
298.07764
298.06513
298.05754
298.05615
298.05683
298.52406
298.62758
298.64325
298.54864
298.23757
297.74433
297.70741
297.72077
297.75866
297.78269
297.8205
297.85205
297.89129
297.92992
297.97366
298.01921
298.06888
298.12126
298.17701
298.23501
298.29454
298.35382
298.41068
298.46213
298.50509
298.5366
298.5539
298.55671
298.54582
298.52331
298.49213
298.45537
298.41578
298.37552
298.33633
298.29907
298.264
298.2317
298.20242
298.17698
298.15519
298.13545
298.1177
298.10203
298.08915
298.07781
298.06519
298.05781
298.05667
298.05666
298.52856
298.63322
298.64838
298.5477
298.20725
297.742
297.73038
297.74345
297.78175
297.80598
297.84422
297.87623
297.91601
297.95532
297.9998
298.04622
298.09685
298.15026
298.20707
298.26608
298.32646
298.38629
298.44318
298.49399
298.53555
298.5647
298.57888
298.5782
298.5636
298.53752
298.50313
298.46367
298.42189
298.37995
298.33951
298.30133
298.2656
298.23285
298.20334
298.17773
298.15578
298.13597
298.11817
298.10244
298.08954
298.07793
298.06526
298.05808
298.05717
298.05651
298.5329
298.63891
298.6535
298.54714
298.17573
297.74521
297.75457
297.76749
297.80618
297.83063
297.86932
297.90184
297.94218
297.98221
298.02746
298.0748
298.12642
298.18093
298.2388
298.29883
298.36003
298.42034
298.47715
298.52715
298.5671
298.59357
298.60444
298.60001
298.5815
298.55171
298.51404
298.47183
298.42785
298.38423
298.34253
298.30345
298.26707
298.23389
298.20415
298.17838
298.15629
298.13643
298.11859
298.1028
298.0899
298.07797
298.06532
298.05836
298.05766
298.05641
298.53839
298.64539
298.65913
298.5475
298.14443
297.75472
297.78009
297.79286
297.83197
297.85668
297.89582
297.92888
297.96982
298.01061
298.05669
298.10499
298.15764
298.21326
298.27224
298.3333
298.3953
298.45601
298.5126
298.56161
298.5997
298.62315
298.6305
298.62203
298.59944
298.56583
298.5248
298.47981
298.43363
298.38832
298.34539
298.30541
298.26839
298.23479
298.20486
298.17893
298.15671
298.13682
298.11895
298.10314
298.09022
298.07797
298.06537
298.05862
298.0581
298.05635
298.54407
298.65206
298.66454
298.54747
298.11419
297.76966
297.80681
297.81954
297.85908
297.88408
297.92373
297.95739
297.99897
298.04057
298.08751
298.13682
298.19055
298.24732
298.30742
298.36949
298.43225
298.49328
298.54951
298.59735
298.63324
298.65339
298.65696
298.64422
298.61736
298.57982
298.53538
298.48758
298.43919
298.39222
298.34806
298.3072
298.26955
298.23557
298.20545
298.17939
298.15705
298.13713
298.11926
298.10343
298.09051
298.07792
298.06542
298.05888
298.05852
298.05632
298.55014
298.65893
298.66982
298.54662
298.0862
297.78959
297.8348
297.84757
297.88763
297.91298
297.95315
297.98745
298.0297
298.07215
298.11998
298.17034
298.22518
298.28314
298.34437
298.40747
298.47094
298.53218
298.58786
298.63432
298.66765
298.68427
298.68371
298.66646
298.63518
298.5936
298.54571
298.4951
298.44452
298.3959
298.35054
298.30882
298.27057
298.23621
298.20594
298.17977
298.15733
298.13739
298.11951
298.10368
298.09076
298.07782
298.06545
298.05913
298.05894
298.05629
298.55697
298.66676
298.67538
298.54438
298.06246
297.81314
297.8644
297.87724
297.91775
297.94345
297.98415
298.01911
298.06205
298.10538
298.15415
298.2056
298.26158
298.32076
298.38314
298.44723
298.51136
298.57268
298.62764
298.67248
298.70284
298.71569
298.71068
298.6887
298.65283
298.60713
298.55575
298.50233
298.44958
298.39935
298.35281
298.31025
298.27141
298.23673
298.20633
298.18004
298.1575
298.13759
298.11973
298.1039
298.09098
298.07766
298.06544
298.05938
298.05936
298.05628
298.56537
298.67613
298.68163
298.54024
298.04392
297.84345
297.89549
297.90842
297.94942
297.97551
298.01675
298.0524
298.09606
298.14031
298.19005
298.24262
298.29982
298.36023
298.42377
298.48883
298.55354
298.6148
298.66885
298.71174
298.73876
298.74756
298.73776
298.71081
298.67022
298.62032
298.56545
298.50925
298.45436
298.40254
298.35487
298.31148
298.2721
298.23711
298.20662
298.18017
298.15754
298.1377
298.11989
298.10408
298.09115
298.07744
298.06541
298.05961
298.05978
298.05627
298.57404
298.68642
298.68825
298.53285
298.03146
297.87575
297.92811
297.94117
297.98265
298.00916
298.05097
298.08737
298.13177
298.17698
298.22773
298.28149
298.3399
298.40157
298.46627
298.53228
298.59748
298.65851
298.71143
298.75201
298.77534
298.77975
298.76485
298.73273
298.68728
298.63314
298.57477
298.51581
298.45883
298.40547
298.35668
298.31252
298.27265
298.23737
298.20674
298.18019
298.15752
298.13772
298.11998
298.10423
298.09129
298.07718
298.06535
298.05982
298.06016
298.05626
298.58356
298.69808
298.69631
298.52279
298.02528
297.90733
297.96231
297.97552
298.01752
298.0445
298.08688
298.12404
298.16923
298.21543
298.26724
298.32221
298.38187
298.44483
298.5107
298.57761
298.64318
298.70381
298.75536
298.79318
298.81253
298.81213
298.79184
298.75433
298.70391
298.64551
298.58366
298.52198
298.46296
298.40812
298.35826
298.31338
298.27301
298.23744
298.20675
298.18013
298.15741
298.13768
298.11999
298.10436
298.0914
298.07686
298.06527
298.06001
298.0605
298.05624
298.59318
298.71085
298.70571
298.50909
298.02545
297.94218
297.99815
298.01156
298.05405
298.08151
298.12449
298.16246
298.20845
298.25568
298.30859
298.36483
298.42578
298.49005
298.55708
298.62483
298.69065
298.75066
298.80055
298.83516
298.85021
298.84459
298.81862
298.77554
298.72007
298.65737
298.59208
298.52774
298.46674
298.41046
298.35958
298.31405
298.27316
298.2374
298.20667
298.17996
298.1572
298.13757
298.11996
298.10444
298.09148
298.07649
298.06516
298.06015
298.06081
298.05621
298.60439
298.72545
298.71756
298.49274
298.03268
297.97868
298.03563
298.04921
298.09221
298.12019
298.16376
298.20258
298.24943
298.29776
298.35183
298.40937
298.47167
298.53727
298.60545
298.67397
298.73988
298.79906
298.84694
298.87784
298.88825
298.87699
298.84506
298.79623
298.73564
298.66867
298.59998
298.53306
298.47015
298.41249
298.36068
298.31446
298.27315
298.23723
298.20645
298.17967
298.15691
298.13739
298.11987
298.10445
298.09151
298.07609
298.06502
298.06026
298.06107
298.05615
298.61568
298.74075
298.73096
298.47321
298.04725
298.01675
298.07449
298.08835
298.13187
298.16044
298.20469
298.24444
298.29222
298.34171
298.397
298.45592
298.51959
298.58655
298.65584
298.72504
298.79086
298.84896
298.89437
298.92116
298.9265
298.90922
298.87106
298.81633
298.75058
298.67935
298.60733
298.5379
298.47316
298.4142
298.36153
298.31459
298.27297
298.23691
298.20612
298.17928
298.15652
298.13713
298.11971
298.10443
298.09149
298.07566
298.06485
298.06034
298.0613
298.05607
298.62732
298.75662
298.74604
298.45213
298.06856
298.05625
298.11483
298.12901
298.17314
298.20237
298.24734
298.2881
298.33688
298.38759
298.44418
298.50452
298.56961
298.63792
298.70829
298.77804
298.84358
298.90029
298.94274
298.96503
298.96479
298.94111
298.89647
298.83572
298.76478
298.68936
298.6141
298.54226
298.47576
298.41561
298.36207
298.31456
298.27261
298.23645
298.20566
298.17877
298.15605
298.13679
298.1195
298.10438
298.09144
298.07523
298.06464
298.06038
298.06151
298.05598
298.6394
298.77313
298.76227
298.43056
298.09861
298.09731
298.15677
298.17136
298.21613
298.24609
298.29185
298.33367
298.38349
298.4355
298.49342
298.55524
298.62177
298.69142
298.76282
298.83297
298.898
298.95299
298.99192
299.00931
299.00297
298.97253
298.92118
298.85432
298.77821
298.69866
298.62025
298.54609
298.47795
298.41671
298.36225
298.31429
298.27208
298.23586
298.20508
298.17815
298.15548
298.13639
298.11921
298.10428
298.09137
298.07481
298.06441
298.06038
298.06169
298.05587
298.65289
298.79067
298.77946
298.41044
298.13397
298.14017
298.20055
298.2156
298.26103
298.29177
298.33832
298.38125
298.43216
298.4855
298.54482
298.60813
298.67613
298.74712
298.81944
298.88985
298.95409
299.00695
299.04177
299.05382
299.04087
299.00332
298.94505
298.87202
298.79077
298.70719
298.62576
298.54939
298.47974
298.41742
298.36223
298.3138
298.27137
298.23512
298.20437
298.17742
298.15483
298.1359
298.11886
298.10414
298.09131
298.07441
298.06415
298.06036
298.0618
298.05573
298.66795
298.80956
298.79713
298.39373
298.17601
298.18513
298.24636
298.26187
298.3079
298.33945
298.38681
298.43089
298.48293
298.53765
298.5984
298.66327
298.73274
298.80503
298.87818
298.94863
299.01181
299.06201
299.09222
299.09838
299.07833
299.03334
298.96799
298.88875
298.80243
298.71493
298.63059
298.55216
298.48112
298.41769
298.36191
298.31308
298.27049
298.23426
298.20353
298.17658
298.1541
298.13535
298.11844
298.10395
298.09126
298.07409
298.0639
298.06031
298.06183
298.05554
298.68419
298.82955
298.81404
298.38151
298.22329
298.23186
298.29399
298.31006
298.35675
298.38917
298.43736
298.48264
298.53586
298.59201
298.65426
298.72069
298.79166
298.8652
298.93906
299.00932
299.07107
299.118
299.14312
299.14277
299.11515
299.0624
298.98984
298.90441
298.81312
298.72184
298.63473
298.55441
298.48202
298.41768
298.36131
298.31213
298.26943
298.23325
298.20257
298.17563
298.15328
298.13472
298.11795
298.10371
298.09122
298.0739
298.06368
298.06023
298.06182
298.05528
298.70198
298.85144
298.82987
298.37565
298.26915
298.28062
298.34363
298.3603
298.40762
298.44094
298.49
298.53655
298.591
298.64864
298.71242
298.78048
298.85293
298.92766
299.00205
299.07186
299.13179
299.17477
299.19431
299.1868
299.15117
299.0904
299.01052
298.91893
298.8228
298.72788
298.63818
298.55613
298.48237
298.41731
298.36042
298.31096
298.26821
298.23211
298.20148
298.17457
298.15239
298.13401
298.11739
298.1034
298.09114
298.0738
298.06355
298.06011
298.06179
298.05493
298.72156
298.87553
298.84371
298.37663
298.31965
298.33126
298.39515
298.4125
298.46049
298.4948
298.54478
298.59265
298.6484
298.70759
298.77297
298.84267
298.9166
298.99244
299.06718
299.13622
299.19382
299.23218
299.24554
299.23024
299.18616
299.11713
299.02989
298.93224
298.83141
298.73303
298.64097
298.55723
298.48235
298.41658
298.35925
298.30955
298.26682
298.23084
298.20026
298.17341
298.15142
298.13323
298.11675
298.10302
298.09096
298.07381
298.06346
298.05999
298.06169
298.05448
298.74153
298.9017
298.85414
298.38392
298.37182
298.38377
298.4486
298.46674
298.51543
298.5508
298.60175
298.65102
298.70813
298.76894
298.83598
298.90736
298.98274
299.05954
299.13441
299.20234
299.25696
299.29009
299.29657
299.2729
299.21996
299.14248
299.04788
298.94429
298.83893
298.73731
298.64309
298.55764
298.48188
298.4155
298.3578
298.30794
298.26528
298.22943
298.19891
298.17214
298.15037
298.13237
298.11604
298.10255
298.09061
298.07394
298.06358
298.05989
298.06152
298.05388
298.76327
298.93077
298.86215
298.40187
298.42657
298.43837
298.50411
298.52308
298.57249
298.60899
298.66096
298.71171
298.77028
298.83278
298.90153
298.9746
299.05137
299.12901
299.20372
299.27012
299.32101
299.34832
299.34714
299.31452
299.25234
299.16628
299.06438
298.955
298.84532
298.74073
298.64438
298.55759
298.48097
298.41407
298.35606
298.30611
298.26357
298.22789
298.19744
298.17077
298.14925
298.13144
298.11526
298.10198
298.09002
298.07403
298.06395
298.05984
298.0613
298.05313
298.78477
298.96134
298.86727
298.42921
298.48307
298.49489
298.5616
298.58152
298.6317
298.66942
298.72251
298.77484
298.83494
298.8992
298.9697
299.04448
299.12255
299.20081
299.27505
299.33942
299.38577
299.40663
299.397
299.35489
299.28316
299.18843
299.07932
298.96434
298.85061
298.74329
298.64485
298.55697
298.47962
298.41228
298.35405
298.30407
298.26171
298.22621
298.19583
298.16931
298.14806
298.13044
298.11442
298.10132
298.08917
298.07411
298.06452
298.05999
298.06101
298.05221
298.80626
298.9953
298.87148
298.46645
298.54157
298.55344
298.62119
298.64216
298.69321
298.73226
298.78653
298.84052
298.90224
298.9683
299.04062
299.11703
299.19631
299.27496
299.34836
299.41005
299.45107
299.4647
299.44586
299.39372
299.31218
299.20879
299.09261
298.97226
298.85481
298.7448
298.64472
298.55579
298.47783
298.41015
298.35176
298.30182
298.25969
298.22441
298.19411
298.16776
298.14681
298.12936
298.11352
298.10057
298.08808
298.07398
298.06509
298.0604
298.06073
298.05113
298.82696
299.03173
298.87537
298.51278
298.60213
298.61422
298.6831
298.70525
298.75722
298.79768
298.8532
298.90891
298.97229
299.04024
299.11432
299.19233
299.27265
299.35142
299.42354
299.48175
299.51672
299.52224
299.49347
299.43081
299.33928
299.22725
299.1042
298.9788
298.8579
298.74532
298.64387
298.55407
298.47561
298.40768
298.34922
298.29939
298.25753
298.22246
298.19226
298.16613
298.14548
298.12821
298.11256
298.09973
298.08685
298.07361
298.06542
298.06099
298.06048
298.04992
298.8482
299.07151
298.88175
298.56605
298.66535
298.6777
298.74768
298.77104
298.82394
298.86582
298.92263
298.9801
299.04522
299.11504
299.19089
299.27043
299.35159
299.43015
299.50046
299.55428
299.58245
299.5789
299.5395
299.4659
299.36425
299.24371
299.11404
298.98398
298.85969
298.74507
298.64234
298.55181
298.47297
298.40488
298.34641
298.29675
298.25522
298.22038
298.19028
298.16441
298.1441
298.12699
298.11156
298.09884
298.08555
298.07311
298.06556
298.06148
298.06035
298.04858
298.86852
299.11294
298.89176
298.62353
298.73126
298.74389
298.81495
298.83956
298.89338
298.93676
298.9949
299.05419
299.12109
299.19282
299.27041
299.35134
299.43312
299.51107
299.57892
299.62739
299.64794
299.63436
299.58367
299.49879
299.38698
299.25809
299.12216
298.98775
298.86027
298.74393
298.64012
298.54902
298.46992
298.40176
298.34336
298.29394
298.25277
298.21816
298.18819
298.16263
298.14264
298.12571
298.11052
298.09788
298.08424
298.07259
298.0656
298.06186
298.0602
298.04712
298.88868
299.15528
298.90777
298.68493
298.79959
298.81261
298.8848
298.9108
298.96562
299.01057
299.07012
299.13129
299.20002
299.27365
299.35295
299.43512
299.51722
299.59409
299.65867
299.70081
299.71279
299.68824
299.62565
299.52921
299.40729
299.27032
299.12856
298.98989
298.85986
298.74192
298.63725
298.54572
298.46647
298.39832
298.34005
298.29094
298.25017
298.2158
298.18598
298.16078
298.14112
298.12436
298.10943
298.09684
298.08291
298.07207
298.06561
298.0622
298.05995
298.04552
298.90881
299.19697
298.93042
298.75125
298.87047
298.88408
298.95743
298.98493
299.04078
299.08739
299.14839
299.2115
299.28209
299.35764
299.43854
299.52176
299.60383
299.67906
299.73935
299.77434
299.77659
299.74023
299.66519
299.55702
299.4251
299.28042
299.13321
298.99057
298.85834
298.73908
298.63373
298.54194
298.46264
298.39458
298.33652
298.28778
298.24744
298.2133
298.18366
298.15887
298.13954
298.12296
298.1083
298.09571
298.0816
298.07157
298.0656
298.06255
298.05958
298.04381
298.93052
299.23799
298.96209
298.822
298.94422
298.95851
299.03297
299.0621
299.119
299.16733
299.22982
299.29491
299.3674
299.44483
299.52724
299.61125
299.69289
299.76577
299.82067
299.84753
299.8389
299.78989
299.70195
299.58197
299.44031
299.28839
299.13584
298.98999
298.85576
298.73543
298.6296
298.53767
298.45844
298.39054
298.33276
298.28445
298.24456
298.21066
298.18124
298.1569
298.13789
298.1215
298.10712
298.09443
298.08034
298.07108
298.06559
298.06288
298.05908
298.04199
298.95386
299.27742
299.00219
298.89639
299.02073
299.03596
299.11146
299.14236
299.20032
299.25044
299.31448
299.38162
299.45604
299.53533
299.61909
299.70359
299.78426
299.85395
299.90229
299.91996
299.89933
299.83689
299.7357
299.60395
299.45291
299.29421
299.13669
298.98803
298.85215
298.731
298.62487
298.53295
298.45388
298.38622
298.32879
298.28096
298.24155
298.20789
298.17872
298.15488
298.13616
298.11998
298.10588
298.09297
298.07919
298.0706
298.06557
298.06325
298.05842
298.04011
298.9799
299.31613
299.04868
298.97434
299.10009
299.11643
299.19291
299.22573
299.2848
299.33682
299.4025
299.47175
299.54815
299.62922
299.71411
299.79872
299.87779
299.94319
299.98389
299.99109
299.95736
299.88081
299.76613
299.6228
299.46287
299.29753
299.13593
298.98475
298.84754
298.72581
298.61957
298.52779
298.44897
298.38163
298.32461
298.27732
298.23839
298.20498
298.17611
298.15282
298.13437
298.11842
298.10457
298.09138
298.07818
298.0702
298.06553
298.06347
298.05761
298.03817
299.00876
299.35416
299.1044
299.05518
299.18212
299.19987
299.27731
299.31227
299.37256
299.42664
299.49407
299.56549
299.64384
299.72657
299.81231
299.89653
299.97325
300.03309
300.06507
300.06042
300.01258
299.92136
299.79308
299.63849
299.47018
299.29864
299.13347
298.9802
298.84198
298.71992
298.61373
298.52221
298.44374
298.37678
298.32024
298.27353
298.2351
298.20193
298.17343
298.1507
298.13251
298.11681
298.1032
298.08972
298.07731
298.06993
298.06549
298.06365
298.05665
298.0362
299.04114
299.39067
299.18168
299.13905
299.26692
299.28642
299.36493
299.40229
299.46394
299.52019
299.58941
299.663
299.74325
299.8274
299.91364
299.99689
300.0703
300.1232
300.14522
300.12734
300.06446
299.9581
299.81631
299.65096
299.47447
299.29775
299.12938
298.97443
298.83549
298.71333
298.60737
298.51623
298.43819
298.37168
298.31568
298.26959
298.23166
298.19876
298.17068
298.14853
298.13058
298.11517
298.10175
298.08804
298.07656
298.06984
298.0655
298.06383
298.05552
298.0342
299.07543
299.42983
299.25512
299.22627
299.35524
299.37675
299.45634
299.49624
299.55928
299.61773
299.68873
299.76443
299.84642
299.93177
300.01803
300.09958
300.16848
300.21313
300.22377
300.19136
300.11258
299.99082
299.83576
299.6602
299.47601
299.29476
299.12373
298.96748
298.82815
298.7061
298.60053
298.50988
298.43235
298.36636
298.31096
298.2655
298.22808
298.19547
298.16787
298.1463
298.12858
298.11349
298.10022
298.08637
298.07591
298.06981
298.06577
298.06396
298.05422
298.03223
299.11414
299.47345
299.33398
299.31781
299.4477
299.47124
299.55185
299.59433
299.65876
299.7194
299.79214
299.86985
299.95342
300.0396
300.12534
300.2043
300.26723
300.30236
300.29996
300.2518
300.15642
300.01917
299.85129
299.66577
299.47506
299.28974
299.11656
298.95942
298.81998
298.69825
298.59321
298.50317
298.42622
298.36081
298.30606
298.26127
298.22434
298.19205
298.165
298.14401
298.12652
298.11176
298.09856
298.08476
298.07537
298.06996
298.06635
298.06407
298.05274
298.03031
299.15647
299.5218
299.42423
299.4132
299.54423
299.56987
299.65151
299.69663
299.76247
299.8253
299.89974
299.97934
300.06423
300.15083
300.23536
300.31066
300.36603
300.39023
300.37318
300.30815
300.19564
300.04304
299.8629
299.66793
299.47151
299.28279
299.10796
298.95032
298.81104
298.68983
298.58546
298.49612
298.41982
298.35506
298.30101
298.25689
298.22045
298.18853
298.1621
298.14165
298.1244
298.10998
298.0967
298.08322
298.07491
298.07021
298.0671
298.0642
298.05107
298.02848
299.2044
299.57656
299.52104
299.5127
299.64488
299.67266
299.75538
299.80321
299.8705
299.93553
300.01162
300.09289
300.17886
300.26531
300.34779
300.41805
300.46429
300.47588
300.44261
300.35971
300.22979
300.06219
299.87009
299.66701
299.46546
299.27398
299.098
298.94021
298.80136
298.68086
298.5773
298.48874
298.41317
298.34912
298.29582
298.25237
298.21639
298.1849
298.15914
298.13921
298.12222
298.10812
298.09459
298.08181
298.07448
298.07041
298.06781
298.06408
298.04926
298.02676
299.25683
299.63832
299.62312
299.61593
299.74944
299.77965
299.86353
299.91424
299.98299
300.05023
300.12786
300.21063
300.29718
300.38285
300.46224
300.52577
300.56144
300.55851
300.50761
300.40603
300.25866
300.07661
299.87309
299.66289
299.45702
299.26342
299.08676
298.92919
298.79101
298.67139
298.56875
298.48107
298.40629
298.34299
298.29048
298.2477
298.21216
298.18117
298.15615
298.13668
298.11998
298.10615
298.09229
298.08049
298.07408
298.07048
298.06825
298.06364
298.04734
298.02515
299.31507
299.71163
299.73032
299.72337
299.85804
299.89127
299.97615
300.02993
300.10014
300.16951
300.24857
300.33247
300.41909
300.50313
300.57816
300.63313
300.6565
300.63714
300.5673
300.44651
300.28191
300.08574
299.87227
299.65566
299.44628
299.25119
299.07432
298.91728
298.78
298.66143
298.55984
298.47311
298.39917
298.3367
298.28502
298.24288
298.20777
298.17735
298.1531
298.13407
298.11766
298.104
298.08985
298.07923
298.07371
298.07049
298.06848
298.06286
298.04535
298.02367
299.37722
299.78864
299.84191
299.83591
299.97093
300.00781
300.09362
300.1504
300.22211
300.29348
300.37376
300.45836
300.54437
300.62576
300.69478
300.73942
300.74851
300.71098
300.62107
300.48084
300.29945
300.08973
299.86751
299.64549
299.43339
299.23741
299.06078
298.90457
298.76842
298.65104
298.55058
298.46487
298.39185
298.33025
298.27943
298.23791
298.2032
298.17343
298.14998
298.13135
298.11526
298.1016
298.08737
298.078
298.07332
298.07047
298.06862
298.06169
298.04333
298.02236
299.44624
299.87691
299.95861
299.95444
300.08868
300.12938
300.21591
300.27566
300.34899
300.42223
300.50341
300.58815
300.67273
300.75014
300.81117
300.84368
300.83627
300.7789
300.66813
300.50847
300.31068
300.089
299.85891
299.63247
299.41845
299.22217
299.04618
298.8911
298.75626
298.64021
298.541
298.45638
298.38432
298.32365
298.27372
298.23279
298.19846
298.16942
298.14678
298.12854
298.11273
298.0988
298.08496
298.0768
298.07289
298.07044
298.06873
298.06005
298.04132
298.02122
299.52229
299.97572
300.08001
300.07886
300.21112
300.25617
300.34306
300.40596
300.48089
300.55579
300.63746
300.72161
300.80367
300.87551
300.92643
300.94481
300.91876
300.84015
300.70801
300.52929
300.31565
300.08344
299.84668
299.61681
299.40163
299.2056
299.03064
298.87695
298.74361
298.62901
298.53112
298.44765
298.37661
298.31691
298.26788
298.22751
298.19357
298.16532
298.14348
298.12562
298.11007
298.09561
298.08265
298.07563
298.07244
298.0704
298.06881
298.05789
298.03938
298.02026
299.60544
300.08606
300.20536
300.20917
300.3382
300.38763
300.47518
300.5416
300.61795
300.69417
300.77573
300.85842
300.93654
301.00075
301.03953
301.0413
300.99464
300.89365
300.73999
300.54251
300.31483
300.07313
299.83093
299.59864
299.38304
299.18777
299.0142
298.86213
298.73045
298.61743
298.52093
298.43867
298.36871
298.31004
298.26193
298.22209
298.18854
298.16112
298.14007
298.12258
298.10721
298.09216
298.08039
298.07446
298.07197
298.07035
298.0687
298.05522
298.03752
298.01947
299.69488
300.20788
300.33409
300.3444
300.47008
300.52386
300.61324
300.6826
300.76021
300.83723
300.91797
300.9979
301.07043
301.12467
301.14917
301.13188
301.06289
300.93879
300.76382
300.54824
300.3081
300.05835
299.81192
299.57815
299.36283
299.16881
298.99695
298.84674
298.71687
298.60551
298.51048
298.42948
298.36064
298.30304
298.25584
298.21652
298.18338
298.15684
298.13653
298.11942
298.10406
298.08861
298.07819
298.07329
298.07145
298.07027
298.06825
298.05224
298.03575
298.01877
299.79161
300.34004
300.46839
300.48432
300.60699
300.66649
300.7568
300.8288
300.9075
300.98472
301.06357
301.13933
301.2041
301.24595
301.2536
301.21491
301.12216
300.97452
300.77851
300.54682
300.2955
300.03921
299.78981
299.5555
299.34111
299.1488
298.97894
298.83077
298.70285
298.59326
298.49976
298.42005
298.35238
298.29591
298.24961
298.2108
298.17812
298.15247
298.13288
298.11612
298.10045
298.08521
298.07609
298.07216
298.07087
298.07012
298.06726
298.04923
298.03407
298.01814
299.89764
300.48234
300.61038
300.62999
300.75144
300.81503
300.90577
300.98028
301.05953
301.13611
301.21187
301.28146
301.33595
301.36312
301.35115
301.2891
301.17162
301.00055
300.78427
300.53818
300.27741
300.01606
299.76488
299.5309
299.31804
299.12783
298.96025
298.81431
298.68846
298.5807
298.48878
298.41042
298.34397
298.28865
298.24323
298.20493
298.17279
298.14803
298.1291
298.11265
298.09642
298.082
298.07414
298.07109
298.0702
298.06979
298.06547
298.04634
298.03252
298.01758
300.0154
300.63891
300.75628
300.78195
300.90213
300.96911
301.06004
301.13655
301.21568
301.29058
301.36161
301.42297
301.46435
301.47406
301.43982
301.3527
301.20983
301.01547
300.78123
300.52231
300.25392
299.98909
299.73729
299.50448
299.29371
299.10598
298.94091
298.79736
298.67369
298.56785
298.47755
298.40057
298.33538
298.28125
298.23669
298.1989
298.16738
298.14352
298.1252
298.10895
298.09212
298.07896
298.07233
298.07009
298.06939
298.06915
298.06272
298.04371
298.03111
298.01706
300.14298
300.79908
300.91087
300.94327
301.05834
301.1283
301.21912
301.29685
301.37501
301.44699
301.5115
301.56167
301.58744
301.57665
301.51794
301.40455
301.23629
301.01988
300.76938
300.49971
300.22554
299.95867
299.70734
299.47643
299.26826
299.08333
298.921
298.77998
298.65858
298.55472
298.46609
298.39052
298.32664
298.2737
298.22996
298.1927
298.16191
298.13892
298.12117
298.10488
298.08775
298.07609
298.07059
298.06913
298.0686
298.06819
298.05928
298.04127
298.02978
298.0166
300.28465
300.96834
301.06926
301.10887
301.21958
301.29214
301.38202
301.46013
301.53626
301.60373
301.65937
301.69572
301.7027
301.66844
301.58329
301.44281
301.24937
301.0134
300.74867
300.47047
300.19242
299.92499
299.67517
299.44688
299.24177
299.05993
298.90052
298.76217
298.64313
298.54132
298.45439
298.38026
298.31772
298.26599
298.22303
298.18632
298.15635
298.13421
298.11696
298.10023
298.08358
298.07337
298.06895
298.06818
298.06787
298.06699
298.05557
298.03892
298.02854
298.01621
300.44049
301.14396
301.23449
301.28108
301.38542
301.45964
301.54784
301.62497
301.69756
301.7585
301.80271
301.82233
301.80742
301.74729
301.63429
301.46662
301.24997
300.99619
300.71975
300.43524
300.1551
299.88845
299.64106
299.416
299.21434
299.03586
298.87955
298.74398
298.62738
298.52765
298.44247
298.36981
298.30863
298.25812
298.21589
298.17977
298.15068
298.12935
298.11252
298.09514
298.07961
298.0708
298.06738
298.06724
298.06717
298.06565
298.05188
298.03672
298.0274
298.01589
300.61047
301.32596
301.40486
301.45633
301.55498
301.62957
301.71471
301.78918
301.85617
301.9081
301.93823
301.93831
301.89859
301.81037
301.6687
301.47462
301.23699
300.96812
300.68265
300.39419
300.11379
299.8492
299.60513
299.38387
299.18604
299.01115
298.85808
298.72538
298.6113
298.51372
298.43031
298.35915
298.29938
298.25008
298.20851
298.17302
298.14489
298.12428
298.10774
298.08983
298.07583
298.06838