/*--------------------------------*- C++ -*----------------------------------*\
| =========                 |                                                 |
| \\      /  F ield         | OpenFOAM: The Open Source CFD Toolbox           |
|  \\    /   O peration     | Version:  2306                                  |
|   \\  /    A nd           | Website:  www.openfoam.com                      |
|    \\/     M anipulation  |                                                 |
\*---------------------------------------------------------------------------*/
FoamFile
{
    version     2.0;
    format      ascii;
    arch        "LSB;label=32;scalar=64";
    class       volScalarField;
    location    "0.018";
    object      yPlus;
}
// * * * * * * * * * * * * * * * * * * * * * * * * * * * * * * * * * * * * * //

dimensions      [0 0 0 0 0 0 0];

internalField   uniform 0;

boundaryField
{
    upper
    {
        type            calculated;
        value           nonuniform List<scalar> 
150
(
53.009822
52.973624
52.968155
52.964842
52.973549
52.991137
53.017429
53.053192
53.098608
53.152884
53.214937
53.286084
53.367668
53.457035
53.556632
53.665543
53.782529
53.909099
54.043334
54.18798
54.343385
54.507511
54.680806
54.861238
55.050632
55.241027
55.43249
55.626476
55.820992
56.019095
56.22135
56.430392
56.647903
56.873987
57.111414
57.358208
57.611443
57.874616
58.152887
58.44405
58.745075
59.060509
59.391122
59.744287
60.116491
60.518957
60.939897
61.379591
61.831633
62.278719
62.716044
63.134534
63.527347
63.899295
64.271904
64.665187
65.063127
65.487268
65.954324
66.555874
67.358665
68.486204
70.083179
72.405313
75.230583
78.242028
81.270004
84.105545
86.536135
88.370598
89.402556
89.422828
87.962502
84.570597
79.290272
16.550951
21.609576
23.033614
24.741786
26.08036
27.29587
28.364688
29.32906
30.201748
30.999612
31.736247
32.424134
33.075657
33.707544
34.259403
34.776533
35.263467
35.72335
36.159452
36.576173
36.97561
37.359707
37.728546
38.08336
38.423884
38.754002
39.074163
39.386467
39.686377
39.978591
40.262834
40.54187
40.818357
41.09125
41.360964
41.627731
41.892115
42.154561
42.415233
42.674025
42.931741
43.18811
43.443126
43.69759
43.952864
44.209478
44.468454
44.728557
44.989068
45.251133
45.51582
45.781786
46.04853
46.317478
46.588147
46.861281
47.138396
47.418233
47.700028
47.985944
48.276353
48.568964
48.864685
49.163467
49.466246
49.774513
50.090377
50.413986
50.743613
51.079668
51.419268
51.759397
52.102224
52.455855
52.824746
)
;
    }
    lower
    {
        type            calculated;
        value           nonuniform List<scalar> 
150
(
57.54774
57.281136
57.037921
56.798724
56.568478
56.347064
56.132849
55.925507
55.725687
55.533723
55.349026
55.171964
55.001045
54.833581
54.672586
54.518325
54.368903
54.223734
54.080167
53.939843
53.800693
53.658286
53.509485
53.350904
53.187257
53.017631
52.84592
52.675123
52.50421
52.338025
52.179
52.019219
51.85305
51.674792
51.481541
51.264328
51.021948
50.752013
50.460779
50.157372
49.856011
49.569678
49.266197
48.944304
48.589457
48.202319
47.768435
47.289006
46.751613
46.148219
45.49047
44.814583
44.155302
43.475746
42.73803
41.880438
40.852623
39.640534
38.198046
36.498232
34.484332
32.087105
29.057241
25.20342
19.963292
13.802473
6.4296061
9.9834814
19.583639
29.769265
41.351216
53.066094
64.485595
75.264086
84.226884
38.300793
41.567387
42.608616
43.697688
44.49019
45.172202
45.74602
46.246781
46.688407
47.082535
47.439678
47.765008
48.063185
48.339527
48.597874
48.839385
49.067781
49.283965
49.489121
49.684936
49.872778
50.054027
50.22847
50.397068
50.55649
50.711563
50.862617
51.011458
51.157582
51.301433
51.441633
51.579094
51.717389
51.851492
51.984022
52.115164
52.245937
52.376514
52.506938
52.636561
52.767387
52.899209
53.03206
53.16295
53.296662
53.431347
53.567585
53.703486
53.837159
53.96728
54.09465
54.221827
54.352492
54.488112
54.626883
54.767125
54.909308
55.052878
55.197901
55.34459
55.493141
55.641984
55.792422
55.942835
56.092933
56.242449
56.391505
56.540216
56.68958
56.841836
56.994708
57.145376
57.294982
57.446056
57.599165
)
;
    }
    inlet
    {
        type            calculated;
        value           uniform 0;
    }
    outlet
    {
        type            calculated;
        value           uniform 0;
    }
    back
    {
        type            empty;
    }
    front
    {
        type            empty;
    }
}


// ************************************************************************* //
