/*--------------------------------*- C++ -*----------------------------------*\
| =========                 |                                                 |
| \\      /  F ield         | OpenFOAM: The Open Source CFD Toolbox           |
|  \\    /   O peration     | Version:  2306                                  |
|   \\  /    A nd           | Website:  www.openfoam.com                      |
|    \\/     M anipulation  |                                                 |
\*---------------------------------------------------------------------------*/
FoamFile
{
    version     2.0;
    format      ascii;
    arch        "LSB;label=32;scalar=64";
    class       volSymmTensorField;
    location    "425";
    object      turbulenceProperties:devReff;
}
// * * * * * * * * * * * * * * * * * * * * * * * * * * * * * * * * * * * * * //

dimensions      [0 2 -2 0 0 0 0];

internalField   nonuniform List<symmTensor> 
1340
(
(8.38889e-05 -7.88942e-05 -3.01098e-21 -8.38202e-05 -1.16601e-21 -6.86692e-08)
(9.3915e-05 -6.4175e-05 2.25994e-20 -9.40055e-05 2.24866e-20 9.04553e-08)
(0.000101278 -4.85543e-05 4.96597e-20 -0.000101244 2.83269e-20 -3.46969e-08)
(0.000106353 -2.9546e-05 -7.91496e-20 -0.000106491 -8.79518e-20 1.38844e-07)
(0.000107683 -8.56098e-06 -1.11368e-19 -0.000107663 -9.45067e-20 -2.01203e-08)
(7.04965e-05 -6.77413e-05 1.04186e-20 -7.04517e-05 9.1905e-21 -4.47807e-08)
(7.89776e-05 -5.54798e-05 2.97711e-20 -7.90425e-05 1.58061e-20 6.4852e-08)
(8.5296e-05 -4.24358e-05 -6.97717e-20 -8.52708e-05 -4.91987e-20 -2.52089e-08)
(8.97939e-05 -2.65891e-05 1.00614e-20 -8.991e-05 1.79746e-20 1.16169e-07)
(9.12355e-05 -9.01907e-06 1.0532e-19 -9.12078e-05 4.17785e-20 -2.77113e-08)
(8.88811e-05 9.02669e-06 -7.82711e-20 -8.88322e-05 -9.30805e-20 -4.88721e-08)
(5.96089e-05 -5.85704e-05 -5.32585e-21 -5.95724e-05 -4.93922e-21 -3.65037e-08)
(6.68507e-05 -4.82719e-05 -2.22899e-20 -6.68905e-05 -1.48383e-20 3.97788e-08)
(7.231e-05 -3.72851e-05 -3.14888e-21 -7.22881e-05 4.72694e-22 -2.18229e-08)
(7.6315e-05 -2.39549e-05 4.13142e-20 -7.64084e-05 2.71665e-20 9.34747e-08)
(7.78002e-05 -9.11519e-06 -2.49302e-20 -7.77653e-05 -2.00738e-21 -3.49341e-08)
(7.61475e-05 6.17186e-06 9.11853e-20 -7.6105e-05 7.05509e-20 -4.25579e-08)
(7.11876e-05 2.11306e-05 1.51987e-19 -7.1157e-05 6.70346e-20 -3.06008e-08)
(5.06504e-05 -5.09319e-05 6.98022e-21 -5.06238e-05 4.91508e-21 -2.66118e-08)
(5.68923e-05 -4.22194e-05 9.82693e-21 -5.69189e-05 6.86593e-21 2.65397e-08)
(6.16435e-05 -3.29052e-05 2.6159e-20 -6.16241e-05 8.96249e-21 -1.93929e-08)
(6.52202e-05 -2.16054e-05 -7.14162e-20 -6.52986e-05 -4.85335e-20 7.84416e-08)
(6.67093e-05 -8.98478e-06 -3.54432e-20 -6.66701e-05 -2.60631e-20 -3.91231e-08)
(6.55727e-05 4.06101e-06 -8.86536e-20 -6.55382e-05 -5.50131e-20 -3.45391e-08)
(6.16762e-05 1.69204e-05 -1.08864e-19 -6.16574e-05 -2.98334e-20 -1.88291e-08)
(5.49973e-05 2.87604e-05 9.169e-20 -5.50116e-05 1.74948e-20 1.43618e-08)
(4.32275e-05 -4.45132e-05 7.55745e-21 -4.32042e-05 3.92082e-21 -2.32732e-08)
(4.86454e-05 -3.70887e-05 1.59882e-21 -4.86654e-05 1.02163e-22 1.99739e-08)
(5.28076e-05 -2.91501e-05 -2.13533e-20 -5.27885e-05 -6.1339e-21 -1.9093e-08)
(5.60098e-05 -1.95056e-05 6.58202e-20 -5.6074e-05 4.40152e-20 6.41537e-08)
(5.74715e-05 -8.70581e-06 1.21923e-19 -5.74317e-05 5.54507e-20 -3.9881e-08)
(5.67192e-05 2.49626e-06 2.75107e-21 -5.66916e-05 1.37066e-20 -2.76193e-08)
(5.36347e-05 1.36046e-05 2.32022e-19 -5.36272e-05 9.69813e-20 -7.55696e-09)
(4.81696e-05 2.39169e-05 -6.77789e-20 -4.81822e-05 -6.58854e-20 1.25908e-08)
(4.08601e-05 3.23698e-05 -1.14658e-19 -4.08574e-05 -3.52152e-20 -2.6468e-09)
(3.7033e-05 -3.90675e-05 7.15886e-21 -3.7014e-05 3.35999e-21 -1.89696e-08)
(4.17612e-05 -3.27111e-05 -1.28363e-20 -4.17735e-05 -7.55181e-21 1.23008e-08)
(4.54291e-05 -2.59001e-05 -5.0484e-21 -4.54152e-05 -3.44703e-21 -1.38356e-08)
(4.83023e-05 -1.76334e-05 -9.30814e-21 -4.83552e-05 3.47857e-21 5.28966e-08)
(4.97157e-05 -8.33693e-06 9.23538e-20 -4.96789e-05 3.51636e-20 -3.67941e-08)
(4.92517e-05 1.32974e-06 -1.00755e-19 -4.92291e-05 -5.05543e-20 -2.25884e-08)
(4.67955e-05 1.09759e-05 1.05754e-20 -4.67944e-05 7.93897e-21 -1.16848e-09)
(4.22951e-05 1.99847e-05 4.08745e-20 -4.23076e-05 -4.90378e-21 1.24575e-08)
(3.61968e-05 2.74481e-05 -2.91725e-19 -3.61946e-05 -8.16858e-20 -2.20885e-09)
(2.91597e-05 3.29971e-05 7.00386e-20 -2.91503e-05 3.98445e-20 -9.38739e-09)
(3.18315e-05 -3.44106e-05 -1.04074e-20 -3.18177e-05 -3.95894e-21 -1.38017e-08)
(3.59784e-05 -2.89496e-05 8.64464e-21 -3.59846e-05 7.40918e-21 6.26822e-09)
(3.92241e-05 -2.30777e-05 5.81444e-20 -3.92118e-05 2.97483e-20 -1.22971e-08)
(4.18104e-05 -1.59514e-05 1.64448e-20 -4.18553e-05 3.67385e-22 4.49139e-08)
(4.31627e-05 -7.91418e-06 -6.98403e-20 -4.31285e-05 -2.81652e-20 -3.42713e-08)
(4.29132e-05 4.65564e-07 6.50939e-20 -4.2895e-05 3.3047e-20 -1.82192e-08)
(4.09492e-05 8.87369e-06 -1.76682e-20 -4.09524e-05 -4.75578e-21 3.21534e-09)
(3.72222e-05 1.67686e-05 1.62529e-19 -3.72324e-05 6.07354e-20 1.01467e-08)
(3.21032e-05 2.33713e-05 5.33655e-20 -3.21017e-05 2.4595e-20 -1.51249e-09)
(2.61527e-05 2.8354e-05 -3.21915e-20 -2.61438e-05 -1.22234e-20 -8.98493e-09)
(2.74378e-05 -3.04051e-05 1.0671e-21 -2.74277e-05 -1.88162e-22 -1.00653e-08)
(3.1094e-05 -2.56937e-05 -2.63809e-21 -3.10973e-05 -3.54942e-21 3.23777e-09)
(3.3976e-05 -2.06147e-05 -4.96472e-20 -3.39651e-05 -2.81996e-20 -1.09286e-08)
(3.63078e-05 -1.44441e-05 -8.09999e-20 -3.63455e-05 -4.14409e-20 3.77137e-08)
(3.75922e-05 -7.46393e-06 -9.97267e-20 -3.75626e-05 -2.7898e-20 -2.96463e-08)
(3.75028e-05 -1.7234e-07 1.44264e-19 -3.74875e-05 5.3224e-20 -1.53255e-08)
(3.59273e-05 7.18182e-06 -1.3295e-19 -3.59336e-05 -5.58776e-20 6.32494e-09)
(3.28253e-05 1.41205e-05 3.19869e-20 -3.28344e-05 2.59826e-20 9.15263e-09)
(2.8508e-05 1.99712e-05 7.98639e-20 -2.85059e-05 2.49211e-20 -2.08834e-09)
(2.34501e-05 2.44424e-05 5.54859e-20 -2.34435e-05 2.10768e-20 -6.61331e-09)
(1.80068e-05 2.75629e-05 5.24592e-20 -1.80063e-05 1.46899e-20 -4.29801e-10)
(2.37088e-05 -2.69417e-05 1.32886e-20 -2.37006e-05 7.3428e-21 -8.18065e-09)
(2.69456e-05 -2.28609e-05 2.05532e-20 -2.69472e-05 1.11767e-20 1.57398e-09)
(2.95136e-05 -1.84529e-05 5.69509e-20 -2.95036e-05 2.3227e-20 -1.00123e-08)
(3.16203e-05 -1.30896e-05 -1.28513e-20 -3.16511e-05 -6.14814e-21 3.07966e-08)
(3.28322e-05 -7.00456e-06 4.83253e-20 -3.28073e-05 1.03962e-20 -2.48933e-08)
(3.28613e-05 -6.3806e-07 -1.57651e-19 -3.28485e-05 -5.53324e-20 -1.27633e-08)
(3.15958e-05 5.81437e-06 1.36039e-19 -3.1602e-05 7.35435e-20 6.18929e-09)
(2.90017e-05 1.19282e-05 1.84293e-19 -2.90103e-05 4.60731e-20 8.57179e-09)
(2.53444e-05 1.71187e-05 -1.13896e-20 -2.53425e-05 -1.69687e-20 -1.96302e-09)
(2.10251e-05 2.1131e-05 7.77226e-20 -2.10192e-05 -8.76449e-22 -5.95586e-09)
(1.63543e-05 2.39832e-05 5.51702e-20 -1.63534e-05 1.23166e-20 -9.29445e-10)
(2.05308e-05 -2.39305e-05 -1.58928e-20 -2.05245e-05 -6.64789e-21 -6.30093e-09)
(2.34057e-05 -2.03855e-05 1.88825e-20 -2.34057e-05 6.77087e-21 -4.9013e-11)
(2.57011e-05 -1.65467e-05 -5.05585e-20 -2.5692e-05 -2.45575e-20 -9.1133e-09)
(2.7607e-05 -1.18706e-05 -4.13043e-20 -2.76323e-05 -1.5612e-20 2.5203e-08)
(2.87464e-05 -6.55055e-06 -1.09988e-20 -2.87253e-05 5.80609e-21 -2.10659e-08)
(2.88595e-05 -9.72245e-07 1.63906e-19 -2.88506e-05 5.91236e-20 -8.95402e-09)
(2.78449e-05 4.70157e-06 -1.93021e-20 -2.78505e-05 -2.36602e-20 5.59825e-09)
(2.56673e-05 1.01026e-05 -1.30899e-19 -2.56743e-05 -5.95955e-20 6.96165e-09)
(2.25552e-05 1.47157e-05 -1.08879e-19 -2.25537e-05 -4.20155e-20 -1.50563e-09)
(1.88537e-05 1.83129e-05 -3.71149e-19 -1.88488e-05 -8.52505e-20 -4.91115e-09)
(1.48312e-05 2.09118e-05 5.05586e-20 -1.48309e-05 3.02915e-20 -3.45554e-10)
(1.07783e-05 2.25485e-05 2.02972e-19 -1.07759e-05 3.19487e-20 -2.38106e-09)
(1.78124e-05 -2.13e-05 9.98137e-21 -1.78077e-05 4.36613e-21 -4.65474e-09)
(2.03728e-05 -1.82132e-05 3.50498e-21 -2.03719e-05 3.22057e-21 -8.84434e-10)
(2.24296e-05 -1.48607e-05 6.01981e-20 -2.24212e-05 2.69185e-20 -8.39958e-09)
(2.41567e-05 -1.07724e-05 9.39404e-20 -2.41775e-05 3.3334e-20 2.07788e-08)
(2.52252e-05 -6.10798e-06 -3.44448e-20 -2.52069e-05 -2.26672e-20 -1.83227e-08)
(2.53969e-05 -1.20575e-06 -1.3736e-19 -2.53904e-05 -4.89246e-20 -6.47927e-09)
(2.45842e-05 3.79457e-06 2.22752e-20 -2.45897e-05 3.6665e-21 5.50635e-09)
(2.27515e-05 8.57404e-06 -1.55074e-19 -2.27578e-05 -4.07997e-20 6.26064e-09)
(2.00933e-05 1.26793e-05 7.3807e-20 -2.00922e-05 4.40084e-20 -1.03759e-09)
(1.69094e-05 1.59056e-05 1.6146e-19 -1.69054e-05 5.70564e-20 -3.94995e-09)
(1.34335e-05 1.82681e-05 -9.64544e-20 -1.34328e-05 -3.12304e-20 -6.85816e-10)
(9.91858e-06 1.97959e-05 -1.43387e-19 -9.91556e-06 -4.24555e-20 -3.01558e-09)
(1.54786e-05 -1.89937e-05 -1.14503e-20 -1.54751e-05 -3.13471e-21 -3.49251e-09)
(1.7765e-05 -1.62998e-05 3.63536e-20 -1.77634e-05 1.43026e-20 -1.5283e-09)
(1.96123e-05 -1.33646e-05 -1.89885e-20 -1.96048e-05 -8.71997e-21 -7.48018e-09)
(2.11792e-05 -9.78211e-06 -1.46521e-20 -2.11965e-05 -6.19324e-21 1.72309e-08)
(2.21783e-05 -5.68219e-06 -3.25779e-20 -2.2163e-05 -1.56072e-20 -1.5387e-08)
(2.23911e-05 -1.36411e-06 -9.96177e-20 -2.23861e-05 -3.23459e-20 -5.0176e-09)
(2.17412e-05 3.05307e-06 -5.9898e-20 -2.17462e-05 -2.15788e-20 5.01439e-09)
(2.01946e-05 7.29109e-06 -5.79811e-21 -2.01996e-05 1.06063e-20 5.03298e-09)
(1.79168e-05 1.09493e-05 6.85572e-20 -1.79152e-05 3.50908e-20 -1.60153e-09)
(1.51692e-05 1.3843e-05 7.15391e-20 -1.51655e-05 1.81452e-20 -3.7007e-09)
(1.21574e-05 1.59852e-05 1.59505e-19 -1.21572e-05 2.11062e-20 -2.32838e-10)
(9.10211e-06 1.74006e-05 -3.32426e-20 -9.10004e-06 -1.76926e-20 -2.07194e-09)
(1.3469e-05 -1.69645e-05 -8.68369e-21 -1.34669e-05 -4.57905e-21 -2.09966e-09)
(1.55157e-05 -1.46097e-05 -5.31223e-20 -1.55132e-05 -2.03696e-20 -2.4621e-09)
(1.71773e-05 -1.20338e-05 -3.32763e-20 -1.71709e-05 -1.24393e-20 -6.37644e-09)
(1.86006e-05 -8.88765e-06 -2.83835e-20 -1.86152e-05 -1.01177e-20 1.46355e-08)
(1.95331e-05 -5.2758e-06 -2.17471e-20 -1.952e-05 -4.20556e-21 -1.31006e-08)
(1.97731e-05 -1.46443e-06 6.27026e-20 -1.97698e-05 1.18159e-20 -3.26167e-09)
(1.92559e-05 2.4445e-06 -2.80429e-19 -1.92605e-05 -8.51544e-20 4.61972e-09)
(1.79477e-05 6.20845e-06 1.93682e-20 -1.79523e-05 3.76953e-20 4.6373e-09)
(1.59905e-05 9.47121e-06 3.71335e-19 -1.59896e-05 9.36945e-20 -8.66656e-10)
(1.36129e-05 1.20675e-05 1.1037e-19 -1.36098e-05 2.32475e-21 -3.16224e-09)
(1.0995e-05 1.40083e-05 -2.79684e-19 -1.09944e-05 -8.28383e-20 -5.9946e-10)
(8.33263e-06 1.53137e-05 -2.10117e-19 -8.33017e-06 -3.00468e-20 -2.4561e-09)
(5.77426e-06 1.60578e-05 4.10811e-20 -5.771e-06 2.39403e-20 -3.26345e-09)
(1.17338e-05 -1.5174e-05 9.55639e-21 -1.17324e-05 3.14132e-21 -1.41728e-09)
(1.35702e-05 -1.3111e-05 -1.52487e-20 -1.35677e-05 -4.079e-21 -2.48184e-09)
(1.50674e-05 -1.08475e-05 5.73721e-20 -1.50612e-05 1.62342e-20 -6.14135e-09)
(1.63614e-05 -8.07839e-06 -1.4481e-19 -1.63738e-05 -5.49559e-20 1.24182e-08)
(1.72297e-05 -4.89029e-06 -1.09817e-19 -1.72185e-05 -3.28369e-20 -1.12468e-08)
(1.74869e-05 -1.5198e-06 -5.79844e-20 -1.74846e-05 -9.89167e-21 -2.32349e-09)
(1.70776e-05 1.94519e-06 1.32703e-19 -1.70818e-05 5.74745e-20 4.20036e-09)
(1.59687e-05 5.29317e-06 1.72624e-19 -1.59723e-05 2.96153e-20 3.61073e-09)
(1.42827e-05 8.20638e-06 -1.82877e-19 -1.42816e-05 -6.00088e-20 -1.06816e-09)
(1.22198e-05 1.0536e-05 1.48771e-19 -1.22174e-05 3.57085e-20 -2.42081e-09)
(9.93997e-06 1.22915e-05 1.45536e-20 -9.93978e-06 1.65614e-20 -1.95772e-10)
(7.61572e-06 1.34897e-05 -5.27431e-20 -7.61384e-06 8.9527e-21 -1.88003e-09)
(5.37789e-06 1.41957e-05 1.78294e-19 -5.37504e-06 4.13611e-20 -2.84496e-09)
(1.02324e-05 -1.35899e-05 -9.79284e-21 -1.02312e-05 -4.08417e-21 -1.23701e-09)
(1.18827e-05 -1.1779e-05 -2.11133e-20 -1.18805e-05 -6.16761e-21 -2.23913e-09)
(1.32339e-05 -9.78777e-06 3.95385e-20 -1.32284e-05 1.64504e-20 -5.47603e-09)
(1.44115e-05 -7.346e-06 7.24612e-20 -1.44218e-05 2.65243e-20 1.02956e-08)
(1.52191e-05 -4.52641e-06 1.15557e-19 -1.52094e-05 3.93996e-20 -9.70207e-09)
(1.54856e-05 -1.54185e-06 7.74812e-20 -1.54839e-05 2.90898e-20 -1.69391e-09)
(1.5164e-05 1.53482e-06 2.28972e-19 -1.51679e-05 4.98767e-20 3.91335e-09)
(1.42229e-05 4.51551e-06 -3.43233e-19 -1.42263e-05 -9.64564e-20 3.44529e-09)
(1.27671e-05 7.1191e-06 3.02332e-20 -1.27663e-05 1.55488e-20 -8.92939e-10)
(1.09728e-05 9.21111e-06 -6.47098e-20 -1.09706e-05 -1.01278e-20 -2.19182e-09)
(8.98283e-06 1.07979e-05 1.3218e-19 -8.98229e-06 2.89031e-20 -5.43775e-10)
(6.94959e-06 1.18947e-05 4.89329e-20 -6.94748e-06 6.4161e-21 -2.10373e-09)
(4.98962e-06 1.2558e-05 9.93265e-20 -4.98701e-06 -9.20969e-23 -2.61429e-09)
(3.14221e-06 1.28733e-05 4.56967e-20 -3.14078e-06 -4.03576e-22 -1.4317e-09)
(8.93086e-06 -1.21842e-05 9.68325e-21 -8.93002e-06 3.9838e-21 -8.38245e-10)
(1.04158e-05 -1.05931e-05 3.33265e-20 -1.04134e-05 9.35146e-21 -2.38646e-09)
(1.16372e-05 -8.83822e-06 -7.63641e-20 -1.16324e-05 -2.46013e-20 -4.80912e-09)
(1.27091e-05 -6.68226e-06 2.92215e-20 -1.27181e-05 1.37417e-20 8.99068e-09)
(1.34592e-05 -4.18548e-06 9.45221e-20 -1.3451e-05 2.68301e-20 -8.24592e-09)
(1.37294e-05 -1.53889e-06 -2.35106e-20 -1.37282e-05 -1.39288e-20 -1.19387e-09)
(1.34793e-05 1.19712e-06 -1.23819e-19 -1.3483e-05 -2.86004e-20 3.69258e-09)
(1.268e-05 3.85494e-06 2.71212e-19 -1.26825e-05 7.30823e-20 2.44699e-09)
(1.14203e-05 6.18388e-06 -2.28002e-19 -1.14194e-05 -5.98902e-20 -8.50452e-10)
(9.85697e-06 8.06172e-06 1.86169e-19 -9.8551e-06 4.97924e-20 -1.86659e-09)
(8.11688e-06 9.49501e-06 -7.03729e-20 -8.11664e-06 -3.24645e-20 -2.39036e-10)
(6.33533e-06 1.04963e-05 -7.79942e-20 -6.33361e-06 -1.47888e-20 -1.72929e-09)
(4.61591e-06 1.1115e-05 -1.70979e-19 -4.61365e-06 -2.93147e-20 -2.2517e-09)
(2.99432e-06 1.14272e-05 1.77292e-20 -2.9928e-06 5.54693e-21 -1.52027e-09)
(7.8002e-06 -1.0934e-05 -5.32888e-23 -7.79992e-06 -2.66892e-23 -2.85351e-10)
(9.13805e-06 -9.53521e-06 8.60613e-21 -9.13578e-06 1.87222e-21 -2.26804e-09)
(1.02432e-05 -7.98678e-06 -4.59907e-20 -1.02388e-05 -1.29923e-20 -4.41583e-09)
(1.12199e-05 -6.0799e-06 8.39618e-20 -1.12276e-05 2.44134e-20 7.67217e-09)
(1.19157e-05 -3.86633e-06 -1.0881e-19 -1.19088e-05 -3.08853e-20 -6.85388e-09)
(1.21854e-05 -1.51637e-06 1.37255e-19 -1.21844e-05 4.44508e-20 -9.43638e-10)
(1.19936e-05 9.1921e-07 1.27203e-19 -1.19971e-05 2.78006e-20 3.51443e-09)
(1.1314e-05 3.29103e-06 -1.2178e-19 -1.13165e-05 -3.917e-20 2.46348e-09)
(1.02225e-05 5.37575e-06 -1.5604e-20 -1.02217e-05 7.7034e-21 -7.97003e-10)
(8.85783e-06 7.06272e-06 1.73314e-20 -8.85621e-06 -1.39369e-20 -1.62198e-09)
(7.33345e-06 8.35697e-06 -9.04969e-20 -7.33308e-06 -1.47624e-20 -3.71978e-10)
(5.76997e-06 9.26935e-06 1.16556e-19 -5.76832e-06 2.65062e-20 -1.65234e-09)
(4.25996e-06 9.84309e-06 7.35747e-20 -4.25792e-06 2.63183e-20 -2.03944e-09)
(2.83561e-06 1.01465e-05 1.02122e-20 -2.83411e-06 -1.18643e-20 -1.499e-09)
(6.81637e-06 -9.82048e-06 -1.70389e-21 -6.81632e-06 -6.96977e-22 -4.69987e-11)
(8.02346e-06 -8.58933e-06 7.34018e-21 -8.02121e-06 2.14277e-21 -2.24972e-09)
(9.02441e-06 -7.22175e-06 -2.75163e-21 -9.02042e-06 -2.26438e-21 -3.99246e-09)
(9.91457e-06 -5.53342e-06 -4.84698e-20 -9.92125e-06 -1.74864e-20 6.67476e-09)
(1.05594e-05 -3.56854e-06 -1.15217e-19 -1.05536e-05 -3.38565e-20 -5.81158e-09)
(1.08252e-05 -1.4794e-06 -8.01568e-20 -1.08245e-05 -2.37261e-20 -6.95448e-10)
(1.06811e-05 6.90928e-07 -1.36901e-19 -1.06841e-05 -3.767e-20 3.02924e-09)
(1.01029e-05 2.81014e-06 5.43083e-20 -1.0105e-05 1.737e-20 2.06375e-09)
(9.15607e-06 4.67708e-06 2.67135e-20 -9.15532e-06 2.5724e-21 -7.52055e-10)
(7.96302e-06 6.19285e-06 -2.79803e-19 -7.96163e-06 -5.41432e-20 -1.39225e-09)
(6.6258e-06 7.36089e-06 -5.33617e-20 -6.62547e-06 2.52048e-21 -3.34661e-10)
(5.25177e-06 8.19078e-06 -1.14841e-19 -5.25032e-06 -2.18144e-20 -1.44742e-09)
(3.92412e-06 8.72057e-06 2.01607e-19 -3.92239e-06 2.78331e-20 -1.72701e-09)
(2.67214e-06 9.01131e-06 -2.08613e-19 -2.67102e-06 -3.24056e-20 -1.12139e-09)
(1.5064e-06 9.11133e-06 -8.5045e-20 -1.50584e-06 -8.56562e-21 -5.58792e-10)
(5.95927e-06 -8.82695e-06 1.01158e-20 -5.95934e-06 3.79702e-21 7.34822e-11)
(7.0493e-06 -7.74222e-06 3.50478e-20 -7.04718e-06 1.14123e-20 -2.11528e-09)
(7.95687e-06 -6.53335e-06 6.29677e-20 -7.95309e-06 1.94725e-20 -3.77193e-09)
(8.76867e-06 -5.03699e-06 6.26291e-20 -8.77451e-06 1.91462e-20 5.84652e-09)
(9.36565e-06 -3.29123e-06 9.70788e-20 -9.36069e-06 2.79897e-20 -4.96476e-09)
(9.62514e-06 -1.43192e-06 9.47839e-20 -9.62454e-06 1.84235e-20 -5.91927e-10)
(9.52012e-06 5.03645e-07 -2.41155e-19 -9.5228e-06 -6.2967e-20 2.67982e-09)
(9.0281e-06 2.39842e-06 -1.19795e-19 -9.02992e-06 -1.83832e-20 1.82667e-09)
(8.20564e-06 4.07174e-06 1.66152e-19 -8.20489e-06 4.10448e-20 -7.52553e-10)
(7.1613e-06 5.43396e-06 3.27279e-19 -7.16012e-06 8.04356e-20 -1.17695e-09)
(5.98673e-06 6.48792e-06 1.59163e-19 -5.98642e-06 2.46495e-20 -3.10854e-10)
(4.77791e-06 7.24182e-06 -2.87589e-20 -4.77647e-06 -6.91975e-21 -1.43667e-09)
(3.60903e-06 7.72938e-06 -6.58008e-20 -3.6074e-06 -1.62768e-20 -1.63241e-09)
(2.50759e-06 8.00497e-06 2.48966e-19 -2.50633e-06 4.52304e-20 -1.26407e-09)
(1.48179e-06 8.11284e-06 -4.37101e-20 -1.48123e-06 -9.73386e-21 -5.5696e-10)
(5.2117e-06 -7.93875e-06 8.23571e-21 -5.21197e-06 2.17374e-21 2.74072e-10)
(6.19671e-06 -6.98248e-06 -6.9286e-21 -6.19473e-06 -2.86142e-21 -1.97601e-09)
(7.02029e-06 -5.91324e-06 -2.45576e-20 -7.01683e-06 -7.55088e-21 -3.45449e-09)
(7.76099e-06 -4.58609e-06 -2.38492e-20 -7.76605e-06 -1.14781e-20 5.05882e-09)
(8.31295e-06 -3.03331e-06 -2.60432e-19 -8.30898e-06 -7.08063e-20 -3.96892e-09)
(8.56457e-06 -1.3775e-06 -4.85172e-20 -8.56406e-06 -4.65832e-21 -5.00699e-10)
(8.49159e-06 3.50496e-07 1.29158e-19 -8.49396e-06 3.77491e-20 2.36596e-09)
(8.07297e-06 2.04576e-06 1.12934e-19 -8.07461e-06 2.31262e-20 1.64285e-09)
(7.35793e-06 3.54624e-06 -2.68842e-19 -7.35728e-06 -5.86088e-20 -6.53446e-10)
(6.44275e-06 4.77094e-06 4.21689e-20 -6.44171e-06 -4.26851e-22 -1.04116e-09)
(5.40991e-06 5.72197e-06 -2.57051e-20 -5.40956e-06 -4.91794e-21 -3.53201e-10)
(4.34548e-06 6.40603e-06 5.80926e-21 -4.34424e-06 5.74561e-21 -1.2443e-09)
(3.31574e-06 6.85332e-06 -7.75792e-20 -3.31445e-06 -7.81049e-21 -1.29633e-09)
(2.3457e-06 7.11275e-06 -1.45055e-19 -2.34457e-06 -3.29052e-20 -1.13567e-09)
(1.4431e-06 7.22395e-06 1.12887e-21 -1.44241e-06 8.20891e-22 -6.84241e-10)
(4.55886e-06 -7.1438e-06 -2.30398e-21 -4.55925e-06 -4.96652e-22 3.96114e-10)
(5.44967e-06 -6.30042e-06 2.37867e-20 -5.44775e-06 6.74696e-21 -1.91998e-09)
(6.19749e-06 -5.35392e-06 2.26029e-20 -6.1944e-06 5.96082e-21 -3.08865e-09)
(6.87375e-06 -4.17601e-06 7.97059e-21 -6.87807e-06 1.89064e-21 4.32361e-09)
(7.38373e-06 -2.79364e-06 3.27664e-20 -7.38044e-06 1.45913e-20 -3.28372e-09)
(7.62618e-06 -1.31797e-06 2.12706e-19 -7.62566e-06 5.06596e-20 -5.23969e-10)
(7.57919e-06 2.2584e-07 -1.23636e-19 -7.58133e-06 -3.37403e-20 2.13952e-09)
(7.22342e-06 1.74344e-06 8.46124e-20 -7.22474e-06 3.14076e-20 1.32389e-09)
(6.60116e-06 3.08969e-06 2.96473e-19 -6.6006e-06 5.73123e-20 -5.55262e-10)
(5.79854e-06 4.19097e-06 -2.21518e-19 -5.79765e-06 -4.56654e-20 -8.86692e-10)
(4.88955e-06 5.04877e-06 1.79372e-19 -4.88933e-06 3.63856e-20 -2.24961e-10)
(3.95113e-06 5.66928e-06 1.25652e-19 -3.94991e-06 1.4777e-20 -1.21737e-09)
(3.04345e-06 6.07883e-06 2.1671e-19 -3.04208e-06 3.26722e-20 -1.37452e-09)
(2.18839e-06 6.32154e-06 -2.19377e-20 -2.18762e-06 -3.68929e-21 -7.62081e-10)
(1.3943e-06 6.43293e-06 -9.06151e-20 -1.39362e-06 -1.09332e-20 -6.82639e-10)
(6.6499e-07 6.43975e-06 -1.07385e-19 -6.64239e-07 -9.75851e-21 -7.5087e-10)
(3.98837e-06 -6.43148e-06 2.62089e-21 -3.98884e-06 -1.25559e-24 4.76013e-10)
(4.79454e-06 -5.68725e-06 -5.96614e-20 -4.79267e-06 -1.5561e-20 -1.86692e-09)
(5.47376e-06 -4.849e-06 7.30404e-20 -5.47103e-06 2.01248e-20 -2.72993e-09)
(6.09136e-06 -3.80288e-06 -2.32003e-20 -6.09521e-06 -4.34421e-21 3.84772e-09)
(6.56245e-06 -2.57161e-06 1.93797e-19 -6.55972e-06 4.80245e-20 -2.73858e-09)
(6.79477e-06 -1.25543e-06 -1.28808e-19 -6.79433e-06 -3.54524e-20 -4.40258e-10)
(6.76893e-06 1.24577e-07 2.02995e-20 -6.77087e-06 1.22678e-20 1.93909e-09)
(6.4669e-06 1.48409e-06 3.12803e-19 -6.46806e-06 5.67389e-20 1.15421e-09)
(5.9252e-06 2.69256e-06 -3.5764e-19 -5.92462e-06 -7.88284e-20 -5.72643e-10)
(5.22065e-06 3.68322e-06 1.46919e-19 -5.21983e-06 3.81131e-20 -8.11668e-10)
(4.42008e-06 4.45694e-06 -2.24201e-19 -4.41976e-06 -5.4801e-20 -3.19103e-10)
(3.59234e-06 5.01932e-06 -2.81168e-19 -3.59139e-06 -5.06401e-20 -9.57731e-10)
(2.79162e-06 5.39341e-06 -1.45331e-19 -2.79052e-06 -2.63148e-20 -1.09756e-09)
(2.03754e-06 5.61938e-06 5.25937e-20 -2.03674e-06 1.58071e-20 -8.0168e-10)
(1.33799e-06 5.72918e-06 1.45779e-19 -1.33743e-06 2.12661e-20 -5.63029e-10)
(6.96744e-07 5.74675e-06 6.53128e-20 -6.9605e-07 1.34959e-20 -6.94077e-10)
(4.21939e-06 -5.13543e-06 -2.10818e-20 -4.21768e-06 -6.05962e-21 -1.70541e-09)
(4.83664e-06 -4.39284e-06 -2.38328e-20 -4.83414e-06 -6.19767e-21 -2.50659e-09)
(5.40082e-06 -3.46313e-06 -9.11629e-21 -5.40419e-06 -4.37596e-21 3.3703e-09)
(5.83572e-06 -2.36582e-06 -1.41314e-19 -5.83348e-06 -3.19431e-20 -2.24342e-09)
(6.05741e-06 -1.19126e-06 2.28231e-19 -6.05703e-06 5.53215e-20 -3.83533e-10)
(6.0487e-06 4.30428e-08 -9.40026e-20 -6.05035e-06 -3.1484e-20 1.65365e-09)
(5.79256e-06 1.26161e-06 -4.0443e-19 -5.79367e-06 -8.67383e-20 1.11103e-09)
(5.32102e-06 2.34659e-06 3.52084e-19 -5.32051e-06 8.82311e-20 -5.07902e-10)
(4.7022e-06 3.23804e-06 5.02994e-20 -4.70158e-06 8.78511e-22 -6.22705e-10)
(3.99673e-06 3.93593e-06 1.09117e-19 -3.99644e-06 3.55428e-20 -2.85459e-10)
(3.26585e-06 4.44558e-06 1.28548e-19 -3.26493e-06 2.83249e-20 -9.26796e-10)
(2.55898e-06 4.7871e-06 -1.23242e-20 -2.55787e-06 7.247e-21 -1.10429e-09)
(1.89408e-06 4.99647e-06 2.8545e-20 -1.89331e-06 -1.61454e-21 -7.66689e-10)
(1.27758e-06 5.10297e-06 -1.50692e-19 -1.2771e-06 -2.45665e-20 -4.80242e-10)
(7.13121e-07 5.12817e-06 8.21625e-20 -7.12541e-07 8.7173e-21 -5.79793e-10)
(1.91366e-07 5.08875e-06 -1.54665e-19 -1.91182e-07 -2.26575e-20 -1.84109e-10)
(3.71407e-06 -4.63839e-06 -1.51425e-20 -3.71252e-06 -3.42964e-21 -1.55152e-09)
(4.27521e-06 -3.98038e-06 3.87966e-20 -4.27301e-06 8.58954e-21 -2.20518e-09)
(4.79068e-06 -3.15382e-06 -1.16003e-19 -4.79358e-06 -2.91888e-20 2.89811e-09)
(5.192e-06 -2.17527e-06 3.03588e-20 -5.19018e-06 6.13188e-21 -1.8198e-09)
(5.40285e-06 -1.12662e-06 -2.18033e-19 -5.4025e-06 -5.23711e-20 -3.49951e-10)
(5.40782e-06 -2.20356e-08 5.00243e-20 -5.4093e-06 1.39197e-20 1.48354e-09)
(5.19113e-06 1.07068e-06 1.45794e-20 -5.19203e-06 9.04067e-21 8.99368e-10)
(4.78052e-06 2.04538e-06 -1.82777e-20 -4.78001e-06 -1.23376e-20 -5.08562e-10)
(4.23681e-06 2.84771e-06 -5.18162e-20 -4.23619e-06 -5.37454e-21 -6.20036e-10)
(3.61474e-06 3.47731e-06 2.82512e-19 -3.61444e-06 4.73103e-20 -2.99177e-10)
(2.9693e-06 3.93884e-06 -3.33279e-20 -2.96844e-06 -1.18284e-20 -8.61498e-10)
(2.34507e-06 4.25012e-06 2.52446e-19 -2.34417e-06 3.54151e-20 -9.05122e-10)
(1.75819e-06 4.4437e-06 -8.01852e-20 -1.75754e-06 -1.47081e-20 -6.45625e-10)
(1.21491e-06 4.54595e-06 8.90939e-20 -1.21433e-06 1.91628e-20 -5.74225e-10)
(7.17851e-07 4.57646e-06 -7.11664e-20 -7.1738e-07 -1.36183e-20 -4.70962e-10)
(2.59372e-07 4.55033e-06 1.17484e-19 -2.59143e-07 2.31253e-20 -2.29644e-10)
(3.26978e-06 -4.1904e-06 -7.45426e-20 -3.26832e-06 -1.8783e-20 -1.46098e-09)
(3.78016e-06 -3.60705e-06 -9.31816e-21 -3.77819e-06 4.28475e-22 -1.96696e-09)
(4.25115e-06 -2.87196e-06 1.88253e-19 -4.25368e-06 4.61319e-20 2.52441e-09)
(4.62137e-06 -1.99905e-06 1.62896e-21 -4.61983e-06 -3.38495e-22 -1.5448e-09)
(4.82128e-06 -1.06225e-06 1.36426e-19 -4.82096e-06 3.08274e-20 -3.2025e-10)
(4.83713e-06 -7.33818e-08 -1.58954e-19 -4.83844e-06 -3.79945e-20 1.31478e-09)
(4.65433e-06 9.06757e-07 2.18405e-20 -4.65511e-06 7.98305e-21 7.80561e-10)
(4.29672e-06 1.78272e-06 -6.48541e-20 -4.29632e-06 -9.08553e-21 -3.9996e-10)
(3.81892e-06 2.50495e-06 5.60433e-20 -3.81843e-06 7.49589e-21 -4.88841e-10)
(3.27024e-06 3.07302e-06 -1.50127e-19 -3.26999e-06 -4.14221e-20 -2.45554e-10)
(2.69993e-06 3.49095e-06 -7.96142e-20 -2.6992e-06 -6.76841e-21 -7.31812e-10)
(2.14845e-06 3.77457e-06 -2.82261e-19 -2.14754e-06 -4.75782e-20 -9.0798e-10)
(1.63024e-06 3.95322e-06 8.07959e-20 -1.62972e-06 1.93238e-20 -5.26568e-10)
(1.15139e-06 4.0505e-06 3.89469e-20 -1.15098e-06 2.5528e-21 -4.07273e-10)
(7.13746e-07 4.08449e-06 -2.95547e-20 -7.13305e-07 -4.71234e-22 -4.40779e-10)
(3.10756e-07 4.06894e-06 -3.60692e-20 -3.10583e-07 -4.8437e-21 -1.73705e-10)
(2.87893e-06 -3.78628e-06 5.35773e-20 -2.8776e-06 1.41199e-20 -1.32903e-09)
(3.34319e-06 -3.26904e-06 8.85249e-20 -3.34147e-06 2.03886e-20 -1.7157e-09)
(3.77364e-06 -2.6151e-06 -7.95315e-20 -3.77585e-06 -2.26381e-20 2.21001e-09)
(4.11501e-06 -1.83623e-06 -2.11051e-19 -4.11376e-06 -4.69586e-20 -1.24487e-09)
(4.30403e-06 -9.99042e-07 1.8876e-20 -4.3038e-06 4.20214e-21 -2.27709e-10)
(4.32851e-06 -1.13379e-07 -4.32693e-20 -4.32967e-06 -6.44615e-21 1.15462e-09)
(4.17476e-06 7.66268e-07 1.32716e-19 -4.17546e-06 3.05501e-20 7.00705e-10)
(3.86348e-06 1.55372e-06 1.83372e-19 -3.86303e-06 3.26112e-20 -4.48806e-10)
(3.44352e-06 2.20405e-06 -1.174e-19 -3.44306e-06 -2.26081e-20 -4.67915e-10)
(2.95931e-06 2.71674e-06 -1.76478e-19 -2.95908e-06 -2.26199e-20 -2.29985e-10)
(2.4554e-06 3.09509e-06 3.44152e-19 -2.45468e-06 5.98088e-20 -7.17328e-10)
(1.96797e-06 3.35329e-06 1.75891e-19 -1.96725e-06 3.25966e-20 -7.20188e-10)
(1.51029e-06 3.51777e-06 -5.14583e-20 -1.50976e-06 -1.63803e-20 -5.32252e-10)
(1.0878e-06 3.60998e-06 2.06872e-20 -1.08732e-06 2.2289e-21 -4.77637e-10)
(7.02625e-07 3.64603e-06 1.50092e-19 -7.02185e-07 2.37507e-20 -4.39405e-10)
(3.48291e-07 3.63863e-06 1.32478e-19 -3.48176e-07 1.89602e-20 -1.14965e-10)
(2.02802e-08 3.59522e-06 2.0411e-20 -2.0072e-08 1.84492e-21 -2.08216e-10)
(2.53493e-06 -3.42148e-06 -1.28345e-20 -2.53371e-06 -3.74448e-21 -1.21682e-09)
(2.95734e-06 -2.96278e-06 -9.9875e-20 -2.95584e-06 -2.34986e-20 -1.50101e-09)
(3.35079e-06 -2.3809e-06 1.47989e-20 -3.3527e-06 7.52437e-21 1.9084e-09)
(3.66549e-06 -1.68567e-06 3.21395e-19 -3.66442e-06 7.0067e-20 -1.0726e-09)
(3.84382e-06 -9.37209e-07 -2.43538e-19 -3.84358e-06 -5.5713e-20 -2.38861e-10)
(3.87494e-06 -1.43796e-07 2.17533e-20 -3.87596e-06 6.97941e-21 1.02063e-09)
(3.74608e-06 6.45811e-07 -1.10242e-20 -3.7467e-06 -3.07823e-21 6.20368e-10)
(3.47526e-06 1.35391e-06 -1.2078e-19 -3.47493e-06 -1.94274e-20 -3.38671e-10)
(3.1062e-06 1.93962e-06 3.34281e-19 -3.10579e-06 5.88766e-20 -4.02899e-10)
(2.67877e-06 2.40252e-06 1.99969e-20 -2.67859e-06 -6.88603e-21 -1.85173e-10)
(2.23344e-06 2.74501e-06 -3.33065e-19 -2.23275e-06 -6.27164e-20 -6.88889e-10)
(1.80236e-06 2.98013e-06 8.60333e-20 -1.80169e-06 1.21331e-20 -6.67767e-10)
(1.39818e-06 3.13135e-06 -1.57361e-19 -1.39773e-06 -2.53421e-20 -4.50015e-10)
(1.02546e-06 3.21822e-06 -1.45372e-19 -1.02514e-06 -2.3746e-20 -3.21083e-10)
(6.86339e-07 3.25532e-06 -6.74851e-20 -6.85917e-07 -1.16142e-20 -4.22131e-10)
(3.74499e-07 3.25429e-06 2.44605e-20 -3.74407e-07 1.48745e-21 -9.14108e-11)
(8.6675e-08 3.22194e-06 1.86093e-20 -8.64455e-08 1.52897e-21 -2.29508e-10)
(2.23208e-06 -3.09205e-06 -3.5513e-20 -2.23092e-06 -7.67221e-21 -1.15222e-09)
(2.61644e-06 -2.68519e-06 6.4162e-20 -2.61514e-06 1.55176e-20 -1.30306e-09)
(2.97609e-06 -2.16733e-06 4.46643e-20 -2.97775e-06 6.01201e-21 1.66005e-09)
(3.26608e-06 -1.54669e-06 -3.4962e-19 -3.2652e-06 -7.58132e-20 -8.815e-10)
(3.43395e-06 -8.77445e-07 2.53247e-19 -3.43378e-06 5.84098e-20 -1.68232e-10)
(3.47012e-06 -1.66364e-07 -9.08093e-20 -3.47104e-06 -1.6888e-20 9.17848e-10)
(3.3627e-06 5.4277e-07 2.85095e-19 -3.3632e-06 5.76166e-20 4.99435e-10)
(3.12719e-06 1.17971e-06 2.01522e-19 -3.12686e-06 3.01113e-20 -3.28801e-10)
(2.80283e-06 1.70742e-06 -5.0221e-19 -2.80246e-06 -9.73858e-20 -3.76411e-10)
(2.42558e-06 2.1253e-06 -2.30799e-19 -2.42541e-06 -3.39677e-20 -1.70866e-10)
(2.03191e-06 2.43542e-06 9.64016e-20 -2.0313e-06 2.48119e-20 -6.14982e-10)
(1.65071e-06 2.6494e-06 -3.67286e-20 -1.65012e-06 -8.24206e-21 -5.94745e-10)
(1.29351e-06 2.78833e-06 1.14483e-19 -1.29307e-06 2.44023e-20 -4.45609e-10)
(9.64608e-07 2.86997e-06 -9.02602e-20 -9.64234e-07 -1.1137e-20 -3.73963e-10)
(6.65794e-07 2.90741e-06 -3.05993e-20 -6.65461e-07 -4.25526e-21 -3.33506e-10)
(3.91798e-07 2.91121e-06 -2.02345e-20 -3.91668e-07 -5.68814e-22 -1.30054e-10)
(1.3887e-07 2.88778e-06 -1.97189e-20 -1.38727e-07 -3.94256e-21 -1.42634e-10)
(1.96535e-06 -2.79438e-06 3.08109e-21 -1.9643e-06 1.35054e-21 -1.04842e-09)
(2.31509e-06 -2.43351e-06 7.49182e-20 -2.31394e-06 1.63853e-20 -1.14464e-09)
(2.64383e-06 -1.97253e-06 -8.27458e-20 -2.64529e-06 -1.73688e-20 1.46053e-09)
(2.91103e-06 -1.41839e-06 1.88852e-19 -2.91027e-06 4.17764e-20 -7.50589e-10)
(3.06881e-06 -8.19733e-07 -9.74425e-20 -3.06864e-06 -2.21157e-20 -1.73558e-10)
(3.10869e-06 -1.82303e-07 1.48276e-19 -3.10948e-06 2.88525e-20 7.89113e-10)
(3.01959e-06 4.54655e-07 -2.69718e-19 -3.02006e-06 -6.0082e-20 4.67014e-10)
(2.81504e-06 1.02772e-06 -2.94266e-20 -2.8147e-06 -4.81693e-21 -3.40495e-10)
(2.52994e-06 1.50336e-06 4.18376e-19 -2.52962e-06 8.75495e-20 -3.24158e-10)
(2.19699e-06 1.88064e-06 -2.29065e-20 -2.19683e-06 1.38609e-23 -1.60434e-10)
(1.84892e-06 2.16153e-06 -6.13876e-20 -1.84837e-06 -9.85381e-21 -5.4738e-10)
(1.51174e-06 2.35629e-06 -1.74455e-20 -1.51124e-06 9.63745e-22 -5.00839e-10)
(1.19614e-06 2.48385e-06 1.51066e-19 -1.19577e-06 2.41279e-20 -3.77587e-10)
(9.05835e-07 2.5603e-06 9.00203e-20 -9.05536e-07 1.41679e-20 -2.98652e-10)
(6.42463e-07 2.5975e-06 -9.48492e-20 -6.42171e-07 -1.54227e-20 -2.92622e-10)
(4.01517e-07 2.60503e-06 1.43553e-19 -4.01389e-07 2.24088e-20 -1.2804e-10)
(1.79341e-07 2.58879e-06 2.48578e-20 -1.79197e-07 3.02411e-21 -1.44552e-10)
(-2.81074e-08 2.55218e-06 -1.21639e-19 2.81807e-08 -1.52784e-20 -7.32491e-11)
(1.73036e-06 -2.52526e-06 -9.03643e-21 -1.72942e-06 -2.85304e-21 -9.36626e-10)
(2.04863e-06 -2.20521e-06 -1.15e-19 -2.04763e-06 -2.51153e-20 -1.00856e-09)
(2.3491e-06 -1.79482e-06 2.67617e-20 -2.35039e-06 6.89059e-21 1.28734e-09)
(2.5952e-06 -1.30001e-06 1.89345e-20 -2.59458e-06 2.07255e-21 -6.14606e-10)