/*--------------------------------*- C++ -*----------------------------------*\
| =========                 |                                                 |
| \\      /  F ield         | OpenFOAM: The Open Source CFD Toolbox           |
|  \\    /   O peration     | Version:  2306                                  |
|   \\  /    A nd           | Website:  www.openfoam.com                      |
|    \\/     M anipulation  |                                                 |
\*---------------------------------------------------------------------------*/
FoamFile
{
    version     2.0;
    format      ascii;
    arch        "LSB;label=32;scalar=64";
    class       volSymmTensorField;
    location    "425";
    object      turbulenceProperties:R;
}
// * * * * * * * * * * * * * * * * * * * * * * * * * * * * * * * * * * * * * //

dimensions      [0 2 -2 0 0 0 0];

internalField   nonuniform List<symmTensor> 
1340
(
(0.000371789 -2.9906e-05 -1.14136e-21 0.000308216 -4.41994e-22 0.000339963)
(0.000371599 -2.43252e-05 8.56618e-21 0.000300368 8.52344e-21 0.000336035)
(0.000369991 -1.84019e-05 1.88208e-20 0.000293236 1.07358e-20 0.000331594)
(0.000366435 -1.11971e-05 -2.99954e-20 0.000285774 -3.33312e-20 0.000326184)
(0.000359742 -3.24411e-06 -4.22019e-20 0.000278139 -3.58125e-20 0.000318929)
(0.000315382 -2.5678e-05 3.94927e-21 0.000261954 3.48375e-21 0.000288643)
(0.000315023 -2.10294e-05 1.12846e-20 0.000255127 5.99122e-21 0.000285112)
(0.00031361 -1.60831e-05 -2.64433e-20 0.000248966 -1.86462e-20 0.000281274)
(0.000310717 -1.00763e-05 3.81292e-21 0.000242616 6.81175e-21 0.000276733)
(0.000305239 -3.41758e-06 3.99088e-20 0.000236106 1.58311e-20 0.000270657)
(0.000297412 3.4209e-06 -2.96629e-20 0.000230063 -3.52753e-20 0.00026371)
(0.000269332 -2.22013e-05 -2.01878e-21 0.000224156 -1.87223e-21 0.000246723)
(0.000268879 -1.82972e-05 -8.44886e-21 0.000218185 -5.62439e-21 0.000243555)
(0.000267612 -1.41311e-05 -1.19342e-21 0.00021281 1.79151e-22 0.000240199)
(0.000265236 -9.07796e-06 1.56565e-20 0.00020736 1.0295e-20 0.000236351)
(0.000260723 -3.45392e-06 -9.44653e-21 0.000201776 -7.60633e-22 0.000231229)
(0.00025438 2.3389e-06 3.45557e-20 0.000196682 2.67361e-20 0.000225507)
(0.000246205 8.008e-06 5.75996e-20 0.000192259 2.54045e-20 0.000219215)
(0.000231281 -1.93054e-05 2.64581e-21 0.000192893 1.86303e-21 0.000212072)
(0.000230802 -1.6003e-05 3.72482e-21 0.000187662 2.60248e-21 0.000209247)
(0.000229673 -1.24711e-05 9.91431e-21 0.000182954 3.3968e-21 0.000206303)
(0.0002277 -8.18758e-06 -2.70639e-20 0.000178238 -1.83922e-20 0.000203014)
(0.000223972 -3.40445e-06 -1.34299e-20 0.000173432 -9.87564e-21 0.00019868)
(0.000218791 1.53892e-06 -3.35953e-20 0.000169106 -2.08472e-20 0.000193929)
(0.000212193 6.41222e-06 -4.12554e-20 0.000165454 -1.13058e-20 0.000188813)
(0.000204119 1.08987e-05 3.47459e-20 0.000162431 6.62967e-21 0.000183283)
(0.000199586 -1.68719e-05 2.86452e-21 0.000166825 1.48612e-21 0.000183192)
(0.000199097 -1.4058e-05 6.06012e-22 0.000162213 3.87237e-23 0.000180666)
(0.000198103 -1.1048e-05 -8.09293e-21 0.000158082 -2.32476e-21 0.000178082)
(0.000196443 -7.39181e-06 2.49431e-20 0.000153967 1.668e-20 0.000175241)
(0.000193351 -3.29871e-06 4.61976e-20 0.000149813 2.10108e-20 0.000171559)
(0.000189093 9.45932e-07 1.04249e-21 0.000146117 5.19397e-21 0.000167589)
(0.000183701 5.15551e-06 8.79252e-20 0.000143054 3.67513e-20 0.000163373)
(0.000177071 9.06306e-06 -2.56841e-20 0.000140559 -2.49666e-20 0.000158822)
(0.000169399 1.22655e-05 -4.34457e-20 0.000138435 -1.33436e-20 0.000153916)
(0.000172973 -1.48073e-05 2.71335e-21 0.000144908 1.2735e-21 0.000158929)
(0.000172487 -1.23985e-05 -4.86532e-21 0.000140825 -2.86236e-21 0.000156663)
(0.000171616 -9.81617e-06 -1.91335e-21 0.000137186 -1.30643e-21 0.000154393)
(0.000170211 -6.68232e-06 -3.5274e-21 0.000133582 1.31823e-21 0.000151927)
(0.000167629 -3.15891e-06 3.49934e-20 0.000129968 1.33237e-20 0.000148778)
(0.000164111 5.03882e-07 -3.81792e-20 0.000126793 -1.91566e-20 0.000145439)
(0.000159657 4.15925e-06 4.00748e-21 0.000124192 3.00841e-21 0.000141924)
(0.00015417 7.57283e-06 1.54886e-20 0.000122111 -1.85819e-21 0.000138147)
(0.000147845 1.04003e-05 -1.10537e-19 0.000120415 -3.09515e-20 0.000134129)
(0.000141061 1.25024e-05 2.65372e-20 0.000118968 1.50968e-20 0.000130009)
(0.000150469 -1.30418e-05 -3.94447e-21 0.000126345 -1.50047e-21 0.000138399)
(0.000150007 -1.09725e-05 3.2765e-21 0.000122731 2.80823e-21 0.000136373)
(0.000149233 -8.7464e-06 2.20366e-20 0.000119506 1.12745e-20 0.000134363)
(0.000148044 -6.04489e-06 6.23188e-21 0.000116338 1.39223e-22 0.000132216)
(0.000145876 -2.99872e-06 -2.64628e-20 0.00011318 -1.06719e-20 0.000129508)
(0.000142953 1.76414e-07 2.46657e-20 0.000110438 1.25223e-20 0.000126685)
(0.000139241 3.36254e-06 -6.69507e-21 0.000108205 -1.80213e-21 0.000123725)
(0.000134663 6.35399e-06 6.15858e-20 0.000106451 2.3014e-20 0.000120563)
(0.000129412 8.85544e-06 2.02203e-20 0.000105084 9.3191e-21 0.000117247)
(0.000123795 1.0743e-05 -1.2197e-20 0.00010398 -4.6313e-21 0.000113882)
(0.000131323 -1.15234e-05 4.04425e-22 0.000110529 -7.13123e-23 0.00012092)
(0.000130897 -9.73821e-06 -9.99866e-22 0.000107326 -1.34527e-21 0.000119113)
(0.000130212 -7.81284e-06 -1.8816e-20 0.000104463 -1.06875e-20 0.000117331)
(0.000129192 -5.47366e-06 -3.06953e-20 0.00010166 -1.57042e-20 0.000115448)
(0.000127366 -2.8281e-06 -3.77867e-20 9.88897e-05 -1.05706e-20 0.000113111)
(0.000124924 -6.53026e-08 5.46641e-20 9.65091e-05 2.01675e-20 0.000110708)
(0.000121805 2.72137e-06 -5.0378e-20 9.45754e-05 -2.11734e-20 0.000108194)
(0.000117961 5.35047e-06 1.21203e-20 9.3082e-05 9.84517e-21 0.000105527)
(0.000113574 7.567e-06 3.02601e-20 9.19718e-05 9.4425e-21 0.000102772)
(0.000108891 9.26075e-06 2.10225e-20 9.11244e-05 7.9856e-21 0.000100004)
(0.000104033 1.04428e-05 1.98752e-20 9.03887e-05 5.56555e-21 9.72106e-05)
(0.000114949 -1.02104e-05 5.03616e-21 9.69818e-05 2.7828e-21 0.000105961)
(0.000114559 -8.66429e-06 7.7897e-21 9.41335e-05 4.23598e-21 0.000104347)
(0.000113954 -6.99343e-06 2.15837e-20 9.15871e-05 8.80279e-21 0.000102765)
(0.000113076 -4.96032e-06 -4.87005e-21 8.90994e-05 -2.32985e-21 0.000101105)
(0.000111529 -2.65404e-06 1.83105e-20 8.66584e-05 3.93912e-21 9.90797e-05)
(0.000109481 -2.41768e-07 -5.97358e-20 8.45826e-05 -2.09661e-20 9.70244e-05)
(0.000106841 2.20316e-06 5.15477e-20 8.28944e-05 2.78669e-20 9.48713e-05)
(0.000103594 4.5197e-06 6.98298e-20 8.1613e-05 1.74574e-20 9.26084e-05)
(9.99052e-05 6.4861e-06 -4.31541e-21 8.07005e-05 -6.42927e-21 9.03017e-05)
(9.5975e-05 8.006e-06 2.94471e-20 8.00455e-05 -3.32064e-22 8.80068e-05)
(9.19055e-05 9.08634e-06 2.0902e-20 7.95138e-05 4.66632e-21 8.57091e-05)
(0.000100879 -9.069e-06 -6.02295e-21 8.532e-05 -2.51937e-21 9.30959e-05)
(0.000100523 -7.72593e-06 7.15627e-21 8.2782e-05 2.56609e-21 9.16525e-05)
(9.99882e-05 -6.27092e-06 -1.91608e-20 8.05111e-05 -9.30686e-21 9.02445e-05)
(9.92297e-05 -4.49834e-06 -1.56522e-20 7.82968e-05 -5.91616e-21 8.87775e-05)
(9.79166e-05 -2.482e-06 -4.16745e-21 7.61406e-05 2.19992e-21 8.70166e-05)
(9.61837e-05 -3.6839e-07 6.21049e-20 7.4317e-05 2.24023e-20 8.52452e-05)
(9.39403e-05 1.78147e-06 -7.31375e-21 7.28368e-05 -8.96508e-21 8.33917e-05)
(9.11818e-05 3.82788e-06 -4.95975e-20 7.17284e-05 -2.25807e-20 8.1459e-05)
(8.80626e-05 5.57554e-06 -4.12523e-20 7.09716e-05 -1.59189e-20 7.95162e-05)
(8.47435e-05 6.93818e-06 -1.40616e-19 7.04592e-05 -3.22987e-20 7.75986e-05)
(8.13154e-05 7.92258e-06 1.91545e-20 7.00777e-05 1.14761e-20 7.56964e-05)
(7.78737e-05 8.54252e-06 7.68958e-20 6.97079e-05 1.21038e-20 7.37894e-05)
(8.87343e-05 -8.07188e-06 3.78256e-21 7.52356e-05 1.6546e-21 8.19823e-05)
(8.84123e-05 -6.90245e-06 1.32832e-21 7.29709e-05 1.22053e-21 8.06911e-05)
(8.79385e-05 -5.63186e-06 2.28136e-20 7.09411e-05 1.02015e-20 7.9435e-05)
(8.72823e-05 -4.08214e-06 3.55983e-20 6.89663e-05 1.26318e-20 7.81361e-05)
(8.6166e-05 -2.3143e-06 -1.3051e-20 6.70574e-05 -8.58857e-21 7.66013e-05)
(8.46869e-05 -4.56861e-07 -5.20459e-20 6.54435e-05 -1.85376e-20 7.50615e-05)
(8.27721e-05 1.43777e-06 8.44014e-21 6.414e-05 1.38925e-21 7.34592e-05)
(8.04188e-05 3.24864e-06 -5.87562e-20 6.31757e-05 -1.54587e-20 7.18008e-05)
(7.77643e-05 4.80387e-06 2.79637e-20 6.2539e-05 1.66737e-20 7.0151e-05)
(7.49458e-05 6.02602e-06 6.11712e-20 6.21347e-05 2.16165e-20 6.8538e-05)
(7.20405e-05 6.92088e-06 -3.65419e-20 6.18622e-05 -1.18317e-20 6.6951e-05)
(6.91309e-05 7.49954e-06 -5.43215e-20 6.16168e-05 -1.6084e-20 6.53721e-05)
(7.82115e-05 -7.19773e-06 -4.33912e-21 6.64815e-05 -1.18791e-21 7.23445e-05)
(7.79222e-05 -6.17714e-06 1.37769e-20 6.4458e-05 5.42024e-21 7.11892e-05)
(7.75023e-05 -5.06478e-06 -7.19605e-21 6.26403e-05 -3.3046e-21 7.0067e-05)
(7.69342e-05 -3.70684e-06 -5.55227e-21 6.08763e-05 -2.34687e-21 6.89151e-05)
(7.5982e-05 -2.15296e-06 -1.23436e-20 5.91813e-05 -5.91349e-21 6.75729e-05)
(7.47128e-05 -5.16854e-07 -3.77447e-20 5.7747e-05 -1.22557e-20 6.6227e-05)
(7.30695e-05 1.15679e-06 -2.26951e-20 5.65924e-05 -8.1761e-21 6.48338e-05)
(7.10535e-05 2.76249e-06 -2.19682e-21 5.57487e-05 4.01856e-21 6.3404e-05)
(6.87844e-05 4.14835e-06 2.59742e-20 5.52087e-05 1.32948e-20 6.19957e-05)
(6.63782e-05 5.24451e-06 2.7103e-20 5.48857e-05 6.87443e-21 6.06298e-05)
(6.39027e-05 6.05591e-06 6.04276e-20 5.46912e-05 7.99598e-21 5.92968e-05)
(6.14278e-05 6.59199e-06 -1.25936e-20 5.45321e-05 -6.70264e-21 5.79788e-05)
(6.90625e-05 -6.42859e-06 -3.29063e-21 5.88553e-05 -1.7352e-21 6.39577e-05)
(6.88055e-05 -5.53648e-06 -2.01312e-20 5.70468e-05 -7.71926e-21 6.29248e-05)
(6.84312e-05 -4.56033e-06 -1.26104e-20 5.54145e-05 -4.71401e-21 6.19192e-05)
(6.79385e-05 -3.36785e-06 -1.07555e-20 5.38361e-05 -3.83394e-21 6.08956e-05)
(6.71238e-05 -1.99896e-06 -8.23982e-21 5.23269e-05 -1.59346e-21 5.97179e-05)
(6.60304e-05 -5.54859e-07 2.37574e-20 5.1048e-05 4.47691e-21 5.85373e-05)
(6.46151e-05 9.26193e-07 -1.06252e-19 5.00217e-05 -3.2264e-20 5.7321e-05)
(6.28807e-05 2.35225e-06 7.33819e-21 4.9279e-05 1.42819e-20 5.60825e-05)
(6.09313e-05 3.58829e-06 1.40685e-19 4.88153e-05 3.54974e-20 5.48728e-05)
(5.88664e-05 4.57176e-06 4.18135e-20 4.85531e-05 8.80732e-22 5.3708e-05)
(5.67442e-05 5.30689e-06 -1.05955e-19 4.84137e-05 -3.13824e-20 5.25786e-05)
(5.46299e-05 5.80133e-06 -7.95991e-20 4.83175e-05 -1.13827e-20 5.14723e-05)
(5.25694e-05 6.08309e-06 1.55626e-20 4.81958e-05 9.0692e-21 5.03807e-05)
(6.10836e-05 -5.74997e-06 3.62125e-21 5.21914e-05 1.19036e-21 5.66367e-05)
(6.08566e-05 -4.96843e-06 -5.77851e-21 5.05727e-05 -1.54574e-21 5.57132e-05)
(6.05236e-05 -4.1107e-06 2.17413e-20 4.91063e-05 6.15199e-21 5.48115e-05)
(6.00951e-05 -3.06115e-06 -5.48728e-20 4.76908e-05 -2.08244e-20 5.39e-05)
(5.93953e-05 -1.85288e-06 -4.16085e-20 4.63433e-05 -1.24415e-20 5.28629e-05)
(5.84496e-05 -5.75828e-07 -2.19694e-20 4.51994e-05 -3.7478e-21 5.18232e-05)
(5.72268e-05 7.36999e-07 5.02789e-20 4.42844e-05 2.1776e-20 5.0758e-05)
(5.57277e-05 2.00543e-06 6.54022e-20 4.36262e-05 1.12204e-20 4.9679e-05)
(5.40463e-05 3.10904e-06 -6.92842e-20 4.32245e-05 -2.27347e-20 4.86348e-05)
(5.2266e-05 3.9915e-06 5.63607e-20 4.30082e-05 1.35279e-20 4.76357e-05)
(5.04389e-05 4.65645e-06 5.51338e-21 4.29078e-05 6.27402e-21 4.66732e-05)
(4.86217e-05 5.11024e-06 -1.99804e-20 4.28523e-05 3.39151e-21 4.57359e-05)
(4.68562e-05 5.37763e-06 6.75414e-20 4.27828e-05 1.56684e-20 4.48179e-05)
(5.41064e-05 -5.14958e-06 -3.71078e-21 4.63522e-05 -1.54761e-21 5.02286e-05)
(5.39047e-05 -4.46354e-06 -8.00071e-21 4.48998e-05 -2.33717e-21 4.9401e-05)
(5.36115e-05 -3.70903e-06 1.49829e-20 4.35837e-05 6.23381e-21 4.85945e-05)
(5.32372e-05 -2.78358e-06 2.74573e-20 4.23115e-05 1.00507e-20 4.77802e-05)
(5.26348e-05 -1.71499e-06 4.37829e-20 4.11059e-05 1.49279e-20 4.68648e-05)
(5.18143e-05 -5.84175e-07 2.9356e-20 4.00806e-05 1.10215e-20 4.59465e-05)
(5.07538e-05 5.81506e-07 8.67519e-20 3.92617e-05 1.8897e-20 4.501e-05)
(4.94539e-05 1.71076e-06 -1.30039e-19 3.86755e-05 -3.65439e-20 4.40667e-05)
(4.79963e-05 2.69707e-06 1.14538e-20 3.8323e-05 5.89067e-21 4.31591e-05)
(4.64542e-05 3.48951e-06 -2.45144e-20 3.81413e-05 -3.83677e-21 4.22965e-05)
(4.48735e-05 4.09052e-06 5.00733e-20 3.80678e-05 1.09493e-20 4.14704e-05)
(4.33056e-05 4.50594e-06 1.85368e-20 3.80411e-05 2.43054e-21 4.06721e-05)
(4.17862e-05 4.75715e-06 3.76263e-20 3.80069e-05 -3.48876e-23 3.9895e-05)
(4.03143e-05 4.87653e-06 1.73104e-20 3.79343e-05 -1.52879e-22 3.91235e-05)
(4.79895e-05 -4.61684e-06 3.66919e-21 4.12216e-05 1.50955e-21 4.46051e-05)
(4.78107e-05 -4.01408e-06 1.26285e-20 3.99178e-05 3.54358e-21 4.38629e-05)
(4.75525e-05 -3.34913e-06 -2.89372e-20 3.87348e-05 -9.32236e-21 4.3141e-05)
(4.72249e-05 -2.53203e-06 1.10726e-20 3.75901e-05 5.20697e-21 4.24126e-05)
(4.67055e-05 -1.5858e-06 3.58127e-20 3.65097e-05 1.01655e-20 4.16029e-05)
(4.59919e-05 -5.83046e-07 -8.90755e-21 3.55889e-05 -5.27724e-21 4.07898e-05)
(4.50685e-05 4.5355e-07 -4.69112e-20 3.48533e-05 -1.08358e-20 3.9963e-05)
(4.39385e-05 1.46047e-06 1.0275e-19 3.43297e-05 2.76877e-20 3.91355e-05)
(4.26708e-05 2.34271e-06 -8.63769e-20 3.40181e-05 -2.26889e-20 3.8344e-05)
(4.13295e-05 3.05402e-06 7.05265e-20 3.3862e-05 1.88628e-20 3.75947e-05)
(3.99565e-05 3.59691e-06 -2.66587e-20 3.38069e-05 -1.22982e-20 3.68816e-05)
(3.85969e-05 3.97615e-06 -2.95453e-20 3.37977e-05 -5.6022e-21 3.61963e-05)
(3.7282e-05 4.21046e-06 -6.47684e-20 3.37858e-05 -1.11047e-20 3.55326e-05)
(3.60117e-05 4.32867e-06 6.7159e-21 3.37438e-05 2.10121e-21 3.48769e-05)
(4.26137e-05 -4.14305e-06 -2.01919e-23 3.67026e-05 -1.01129e-23 3.9658e-05)
(4.2457e-05 -3.61313e-06 3.26108e-21 3.55326e-05 7.09433e-22 3.89935e-05)
(4.22293e-05 -3.02643e-06 -1.74272e-20 3.4468e-05 -4.92317e-21 3.83461e-05)
(4.19419e-05 -2.30375e-06 3.18141e-20 3.34362e-05 9.25055e-21 3.76934e-05)
(4.14935e-05 -1.46486e-06 -4.12256e-20 3.2467e-05 -1.17017e-20 3.69764e-05)
(4.08716e-05 -5.74503e-07 5.20015e-20 3.16387e-05 1.6841e-20 3.62546e-05)
(4.00653e-05 3.48253e-07 4.81922e-20 3.09762e-05 1.05326e-20 3.55227e-05)
(3.90801e-05 1.2468e-06 -4.61363e-20 3.05066e-05 -1.48395e-20 3.47948e-05)
(3.79733e-05 2.03652e-06 -5.91133e-21 3.02283e-05 2.91831e-21 3.41004e-05)
(3.68027e-05 2.67552e-06 6.56553e-21 3.00922e-05 -5.27962e-21 3.34466e-05)
(3.56051e-05 3.16574e-06 -3.42815e-20 3.00492e-05 -5.59222e-21 3.28269e-05)
(3.44215e-05 3.51129e-06 4.41522e-20 3.00507e-05 1.00407e-20 3.22352e-05)
(3.32793e-05 3.72858e-06 2.78702e-20 3.00527e-05 9.96943e-21 3.16648e-05)
(3.21789e-05 3.84346e-06 3.86837e-21 3.00312e-05 -4.49419e-21 3.11042e-05)
(3.78802e-05 -3.72106e-06 -6.45617e-22 3.27146e-05 -2.64091e-22 3.52974e-05)
(3.77437e-05 -3.25464e-06 2.78132e-21 3.16641e-05 8.11932e-22 3.47026e-05)
(3.75434e-05 -2.73648e-06 -1.04265e-21 3.07058e-05 -8.58023e-22 3.41223e-05)
(3.72908e-05 -2.09664e-06 -1.83655e-20 2.97749e-05 -6.62571e-21 3.35366e-05)
(3.6903e-05 -1.35202e-06 -4.36525e-20 2.89039e-05 -1.28273e-20 3.29001e-05)
(3.636e-05 -5.60487e-07 -3.03683e-20 2.81578e-05 -8.98891e-21 3.22585e-05)
(3.56539e-05 2.61761e-07 -5.18655e-20 2.75596e-05 -1.42714e-20 3.16085e-05)
(3.47925e-05 1.0646e-06 2.05742e-20 2.71369e-05 6.58045e-21 3.09659e-05)
(3.38242e-05 1.7718e-06 1.01198e-20 2.68874e-05 9.74493e-22 3.03554e-05)
(3.27991e-05 2.34594e-06 -1.05994e-19 2.67666e-05 -2.05103e-20 2.97821e-05)
(3.17505e-05 2.78835e-06 -2.02138e-20 2.67309e-05 9.54776e-22 2.92405e-05)
(3.07157e-05 3.10266e-06 -4.35017e-20 2.67375e-05 -8.26329e-21 2.87258e-05)
(2.97196e-05 3.30331e-06 7.63679e-20 2.67473e-05 1.05431e-20 2.82325e-05)
(2.87627e-05 3.41341e-06 -7.90208e-20 2.67387e-05 -1.2275e-20 2.77501e-05)
(2.78368e-05 3.45129e-06 -3.22142e-20 2.66958e-05 -3.24458e-21 2.7266e-05)
(3.3705e-05 -3.34455e-06 3.83291e-21 2.9189e-05 1.4387e-21 3.1447e-05)
(3.35857e-05 -2.9336e-06 1.328e-20 2.82444e-05 4.32424e-21 3.09139e-05)
(3.34102e-05 -2.47558e-06 2.38594e-20 2.73817e-05 7.37839e-21 3.03938e-05)
(3.31887e-05 -1.90851e-06 2.37301e-20 2.65416e-05 7.25447e-21 2.98685e-05)
(3.28525e-05 -1.24694e-06 3.678e-20 2.57577e-05 1.06044e-20 2.93023e-05)
(3.23777e-05 -5.42488e-07 3.59093e-20 2.50848e-05 6.97982e-21 2.87309e-05)
(3.17589e-05 1.90804e-07 -9.13605e-20 2.45446e-05 -2.38548e-20 2.81533e-05)
(3.10034e-05 9.08603e-07 -4.53823e-20 2.41625e-05 -6.96418e-21 2.7584e-05)
(3.01537e-05 1.54245e-06 6.29415e-20 2.39371e-05 1.55486e-20 2.7045e-05)
(2.92532e-05 2.05843e-06 1.23976e-19 2.38282e-05 3.04696e-20 2.654e-05)
(2.83323e-05 2.45762e-06 6.02908e-20 2.37968e-05 9.33721e-21 2.60644e-05)
(2.74244e-05 2.74315e-06 -1.08937e-20 2.38053e-05 -2.62115e-21 2.5614e-05)
(2.65521e-05 2.9278e-06 -2.49246e-20 2.38186e-05 -6.16545e-21 2.51844e-05)
(2.57163e-05 3.03217e-06 9.43047e-20 2.38171e-05 1.71326e-20 2.4766e-05)
(2.49104e-05 3.07301e-06 -1.65567e-20 2.3788e-05 -3.68703e-21 2.43489e-05)
(3.00154e-05 -3.00797e-06 3.12049e-21 2.60659e-05 8.23624e-22 2.80408e-05)
(2.99113e-05 -2.64568e-06 -2.62527e-21 2.52161e-05 -1.0842e-21 2.75626e-05)
(2.97585e-05 -2.24057e-06 -9.30503e-21 2.44397e-05 -2.86108e-21 2.70971e-05)
(2.95646e-05 -1.73763e-06 -9.03628e-21 2.36815e-05 -4.34895e-21 2.66259e-05)
(2.92719e-05 -1.1492e-06 -9.86676e-20 2.29745e-05 -2.68258e-20 2.61209e-05)
(2.88566e-05 -5.21863e-07 -1.83806e-20 2.23675e-05 -1.76479e-21 2.56118e-05)
(2.83139e-05 1.32781e-07 4.893e-20 2.18791e-05 1.43008e-20 2.50978e-05)
(2.76499e-05 7.74984e-07 4.27821e-20 2.15328e-05 8.76078e-21 2.45923e-05)
(2.69024e-05 1.34335e-06 -1.0184e-19 2.13282e-05 -2.22016e-20 2.41149e-05)
(2.61093e-05 1.80723e-06 1.59736e-20 2.12287e-05 -1.61691e-22 2.36684e-05)
(2.52983e-05 2.16743e-06 -9.73686e-21 2.12e-05 -1.86287e-21 2.3249e-05)
(2.44997e-05 2.42651e-06 2.20046e-21 2.12081e-05 2.17635e-21 2.28532e-05)
(2.37332e-05 2.59591e-06 -2.93855e-20 2.12218e-05 -2.95846e-21 2.24767e-05)
(2.30007e-05 2.69416e-06 -5.49437e-20 2.12241e-05 -1.24638e-20 2.21118e-05)
(2.22963e-05 2.73626e-06 4.27588e-22 2.12033e-05 3.10934e-22 2.17494e-05)
(2.675e-05 -2.70672e-06 -8.72957e-22 2.32953e-05 -1.88177e-22 2.50229e-05)
(2.66598e-05 -2.3872e-06 9.01269e-21 2.25308e-05 2.55639e-21 2.45942e-05)
(2.65268e-05 -2.02859e-06 8.56421e-21 2.18315e-05 2.25855e-21 2.41774e-05)
(2.63576e-05 -1.58223e-06 3.01994e-21 2.11473e-05 7.16336e-22 2.37549e-05)
(2.61023e-05 -1.05839e-06 1.24137e-20 2.05089e-05 5.52801e-21 2.33037e-05)
(2.57391e-05 -4.99302e-07 8.05818e-20 1.99611e-05 1.91919e-20 2.28498e-05)
(2.52623e-05 8.5555e-08 -4.68371e-20 1.95191e-05 -1.27818e-20 2.23919e-05)
(2.46781e-05 6.60444e-07 3.20525e-20 1.92049e-05 1.18977e-20 2.19422e-05)
(2.4019e-05 1.17038e-06 1.12305e-19 1.90182e-05 2.171e-20 2.15183e-05)
(2.33191e-05 1.5875e-06 -8.39091e-20 1.89265e-05 -1.72976e-20 2.11223e-05)
(2.26029e-05 1.91239e-06 6.7943e-20 1.88989e-05 1.37823e-20 2.07508e-05)
(2.1898e-05 2.14739e-06 4.75942e-20 1.89053e-05 5.59717e-21 2.04009e-05)
(2.12231e-05 2.3025e-06 8.2084e-20 1.89181e-05 1.23753e-20 2.00698e-05)
(2.05793e-05 2.39442e-06 -8.30937e-21 1.89218e-05 -1.3974e-21 1.97501e-05)
(1.99618e-05 2.4366e-06 -3.43222e-20 1.89059e-05 -4.14117e-21 1.94335e-05)
(1.93659e-05 2.43918e-06 -4.0674e-20 1.88625e-05 -3.69622e-21 1.91138e-05)
(2.38566e-05 -2.4368e-06 9.93017e-22 2.08341e-05 -4.75725e-25 2.23456e-05)
(2.37785e-05 -2.15484e-06 -2.2605e-20 2.0146e-05 -5.89591e-21 2.19612e-05)
(2.36628e-05 -1.83724e-06 2.76744e-20 1.95159e-05 7.6251e-21 2.15878e-05)
(2.35157e-05 -1.44083e-06 -8.79009e-21 1.88984e-05 -1.64592e-21 2.12092e-05)
(2.32933e-05 -9.7425e-07 7.34198e-20 1.8322e-05 1.8194e-20 2.08061e-05)
(2.2975e-05 -4.756e-07 -4.87966e-20 1.7827e-05 -1.34306e-20 2.04008e-05)
(2.2556e-05 4.71926e-08 7.68986e-21 1.74269e-05 4.64731e-21 1.99926e-05)
(2.20414e-05 5.62184e-07 1.18492e-19 1.71415e-05 2.14931e-20 1.95921e-05)
(2.14594e-05 1.01992e-06 -1.35472e-19 1.69707e-05 -2.98597e-20 1.92147e-05)
(2.08403e-05 1.39514e-06 5.56502e-20 1.68857e-05 1.44366e-20 1.88625e-05)
(2.02067e-05 1.68817e-06 -8.49215e-20 1.68583e-05 -2.07572e-20 1.85323e-05)
(1.95836e-05 1.90116e-06 -1.06498e-19 1.68626e-05 -1.91809e-20 1.82225e-05)
(1.8987e-05 2.04283e-06 -5.50462e-20 1.68727e-05 -9.96713e-21 1.79292e-05)
(1.84192e-05 2.12841e-06 1.99205e-20 1.6876e-05 5.98713e-21 1.76471e-05)
(1.78768e-05 2.16999e-06 5.52155e-20 1.68635e-05 8.0548e-21 1.73698e-05)
(1.7355e-05 2.17665e-06 2.4738e-20 1.68274e-05 5.11174e-21 1.70908e-05)
(2.12219e-05 -1.94572e-06 -7.98752e-21 1.80252e-05 -2.29588e-21 1.96226e-05)
(2.11218e-05 -1.66437e-06 -9.02986e-21 1.74577e-05 -2.3482e-21 1.92883e-05)
(2.09938e-05 -1.31208e-06 -3.45389e-21 1.69001e-05 -1.65792e-21 1.89489e-05)
(2.08003e-05 -8.96273e-07 -5.35357e-20 1.63795e-05 -1.21014e-20 1.85886e-05)
(2.05216e-05 -4.5128e-07 8.64596e-20 1.59323e-05 2.09572e-20 1.82267e-05)
(2.01532e-05 1.63052e-08 -3.56094e-20 1.55699e-05 -1.19265e-20 1.78625e-05)
(1.96993e-05 4.77897e-07 -1.53197e-19 1.53105e-05 -3.28563e-20 1.75055e-05)
(1.91849e-05 8.88851e-07 1.33364e-19 1.51541e-05 3.34205e-20 1.71692e-05)
(1.86367e-05 1.22648e-06 1.9052e-20 1.50748e-05 3.32757e-22 1.68554e-05)
(1.8075e-05 1.49079e-06 4.13298e-20 1.50474e-05 1.34624e-20 1.6561e-05)
(1.75225e-05 1.68381e-06 4.86886e-20 1.50489e-05 1.07283e-20 1.62852e-05)
(1.69947e-05 1.81315e-06 -4.66785e-21 1.50566e-05 2.74485e-21 1.6025e-05)
(1.64931e-05 1.89243e-06 1.08115e-20 1.50586e-05 -6.11515e-22 1.57754e-05)
(1.60149e-05 1.93277e-06 -5.7075e-20 1.50473e-05 -9.30462e-21 1.55308e-05)
(1.55562e-05 1.94231e-06 3.11193e-20 1.50162e-05 3.3017e-21 1.52859e-05)
(1.51072e-05 1.92738e-06 -5.85797e-20 1.49623e-05 -8.58159e-21 1.50347e-05)
(1.89508e-05 -1.75737e-06 -5.73713e-21 1.6137e-05 -1.29941e-21 1.7543e-05)
(1.88647e-05 -1.50807e-06 1.46991e-20 1.5626e-05 3.25437e-21 1.72441e-05)
(1.87537e-05 -1.19486e-06 -4.39492e-20 1.51225e-05 -1.10585e-20 1.69397e-05)
(1.85853e-05 -8.2407e-07 1.15009e-20 1.46521e-05 2.32297e-21 1.66177e-05)
(1.83415e-05 -4.26782e-07 -8.25946e-20 1.42482e-05 -1.98391e-20 1.62946e-05)
(1.80175e-05 -8.34715e-09 1.89494e-20 1.39199e-05 5.27283e-21 1.59696e-05)
(1.7617e-05 4.05562e-07 5.5225e-21 1.3684e-05 3.4245e-21 1.5651e-05)
(1.7162e-05 7.74736e-07 -6.92311e-21 1.35407e-05 -4.67317e-21 1.53511e-05)
(1.66759e-05 1.07861e-06 -1.96261e-20 1.34666e-05 -2.03568e-21 1.50709e-05)
(1.61775e-05 1.31705e-06 1.07003e-19 1.34394e-05 1.79191e-20 1.48083e-05)
(1.56872e-05 1.49184e-06 -1.2623e-20 1.34383e-05 -4.48e-21 1.45622e-05)
(1.52191e-05 1.60972e-06 9.5613e-20 1.3443e-05 1.34134e-20 1.43305e-05)
(1.47748e-05 1.68303e-06 -3.03697e-20 1.34432e-05 -5.57062e-21 1.41086e-05)
(1.43524e-05 1.72175e-06 3.37438e-20 1.34324e-05 7.2578e-21 1.38921e-05)
(1.39486e-05 1.7333e-06 -2.69538e-20 1.3405e-05 -5.15786e-21 1.36765e-05)
(1.35544e-05 1.72341e-06 4.44964e-20 1.33581e-05 8.75857e-21 1.34561e-05)
(1.69312e-05 -1.58761e-06 -2.82418e-20 1.44541e-05 -7.11628e-21 1.56918e-05)
(1.68575e-05 -1.3666e-06 -3.53036e-21 1.39939e-05 1.62336e-22 1.54246e-05)
(1.67616e-05 -1.08806e-06 7.13204e-20 1.35395e-05 1.74773e-20 1.5152e-05)
(1.66153e-05 -7.57294e-07 6.17093e-22 1.31145e-05 -1.28231e-22 1.48641e-05)
(1.64022e-05 -4.02388e-07 5.16792e-20 1.27497e-05 1.16777e-20 1.45758e-05)
(1.61175e-05 -2.77966e-08 -6.02109e-20 1.24524e-05 -1.43921e-20 1.42857e-05)
(1.57642e-05 3.4346e-07 8.27271e-21 1.2238e-05 3.02381e-21 1.40016e-05)
(1.53613e-05 6.7523e-07 -2.45644e-20 1.21065e-05 -3.44127e-21 1.37337e-05)
(1.493e-05 9.48758e-07 2.12266e-20 1.20373e-05 2.8391e-21 1.34834e-05)
(1.44874e-05 1.16389e-06 -5.686e-20 1.20103e-05 -1.56885e-20 1.32487e-05)
(1.40515e-05 1.32216e-06 -3.01532e-20 1.20066e-05 -2.56347e-21 1.30286e-05)
(1.36358e-05 1.42957e-06 -1.06903e-19 1.20088e-05 -1.80196e-20 1.28218e-05)
(1.32421e-05 1.49722e-06 3.06003e-20 1.20074e-05 7.31858e-21 1.26244e-05)
(1.28683e-05 1.53406e-06 1.47505e-20 1.19963e-05 9.66832e-22 1.24321e-05)
(1.25119e-05 1.54693e-06 -1.11933e-20 1.19715e-05 -1.78472e-22 1.22414e-05)
(1.21658e-05 1.54105e-06 -1.36606e-20 1.19304e-05 -1.83447e-21 1.2048e-05)
(1.51336e-05 -1.43447e-06 2.02983e-20 1.29527e-05 5.34949e-21 1.40424e-05)
(1.50708e-05 -1.23851e-06 3.35386e-20 1.25382e-05 7.72445e-21 1.38035e-05)
(1.49883e-05 -9.90721e-07 -3.01302e-20 1.21282e-05 -8.57634e-21 1.35595e-05)
(1.48616e-05 -6.95597e-07 -7.99502e-20 1.17444e-05 -1.77888e-20 1.33023e-05)
(1.46756e-05 -3.78436e-07 7.15022e-21 1.14149e-05 1.59177e-21 1.30451e-05)
(1.44255e-05 -4.29462e-08 -1.63897e-20 1.11459e-05 -2.4417e-21 1.27864e-05)
(1.4114e-05 2.90238e-07 5.02686e-20 1.09512e-05 1.15714e-20 1.2533e-05)
(1.37572e-05 5.88478e-07 6.94529e-20 1.08307e-05 1.23516e-20 1.22937e-05)
(1.33745e-05 8.34769e-07 -4.44644e-20 1.07663e-05 -8.56268e-21 1.20701e-05)
(1.2981e-05 1.02893e-06 -6.68387e-20 1.07395e-05 -8.56696e-21 1.18601e-05)
(1.25935e-05 1.17221e-06 1.30341e-19 1.07339e-05 2.26514e-20 1.16633e-05)
(1.2224e-05 1.26998e-06 6.66144e-20 1.07336e-05 1.23452e-20 1.14784e-05)
(1.18742e-05 1.33227e-06 -1.94885e-20 1.07304e-05 -6.20362e-21 1.1302e-05)
(1.15431e-05 1.36718e-06 7.83471e-21 1.07194e-05 8.44135e-22 1.1131e-05)
(1.12285e-05 1.38083e-06 5.68433e-20 1.06964e-05 8.99494e-21 1.09622e-05)
(1.09236e-05 1.37803e-06 5.01724e-20 1.06598e-05 7.18066e-21 1.07916e-05)
(1.06223e-05 1.36159e-06 7.73011e-21 1.0607e-05 6.98714e-22 1.06145e-05)
(1.35321e-05 -1.29624e-06 -4.86242e-21 1.16118e-05 -1.41861e-21 1.25713e-05)
(1.34789e-05 -1.12246e-06 -3.78379e-20 1.12387e-05 -8.90252e-21 1.23579e-05)
(1.34084e-05 -9.01975e-07 5.6064e-21 1.08688e-05 2.85052e-21 1.21397e-05)
(1.32991e-05 -6.38548e-07 1.21748e-19 1.05225e-05 2.65421e-20 1.19102e-05)
(1.3137e-05 -3.55005e-07 -9.22497e-20 1.02251e-05 -2.11035e-20 1.16809e-05)
(1.29177e-05 -5.44662e-08 8.23956e-21 9.98187e-06 2.64361e-21 1.14504e-05)
(1.26429e-05 2.44606e-07 -4.17549e-21 9.80501e-06 -1.1659e-21 1.12243e-05)
(1.23273e-05 5.12785e-07 -4.57447e-20 9.69498e-06 -7.35798e-21 1.1011e-05)
(1.19877e-05 7.34597e-07 1.26603e-19 9.63501e-06 2.22985e-20 1.08111e-05)
(1.16379e-05 9.09893e-07 7.57331e-21 9.60894e-06 -2.60791e-21 1.06233e-05)
(1.12931e-05 1.03959e-06 -1.26138e-19 9.60169e-06 -2.37519e-20 1.0447e-05)
(1.09644e-05 1.12862e-06 3.25821e-20 9.59953e-06 4.59499e-21 1.02816e-05)
(1.06538e-05 1.18588e-06 -5.95948e-20 9.59497e-06 -9.59738e-21 1.01241e-05)
(1.03602e-05 1.21878e-06 -5.50542e-20 9.58363e-06 -8.99287e-21 9.97174e-06)
(1.00819e-05 1.23282e-06 -2.55573e-20 9.56224e-06 -4.39842e-21 9.82184e-06)
(9.81301e-06 1.23243e-06 9.26345e-21 9.52939e-06 5.63311e-22 9.67115e-06)
(9.54856e-06 1.22018e-06 7.04754e-21 9.48299e-06 5.79036e-22 9.51564e-06)
(1.21044e-05 -1.17141e-06 -1.3454e-20 1.04136e-05 -2.90659e-21 1.12584e-05)
(1.20595e-05 -1.01727e-06 2.43074e-20 1.00776e-05 5.87875e-21 1.10678e-05)
(1.19997e-05 -8.21048e-07 1.69201e-20 9.74417e-06 2.27752e-21 1.08729e-05)
(1.19058e-05 -5.85889e-07 -1.32437e-19 9.43174e-06 -2.87181e-20 1.06683e-05)
(1.17649e-05 -3.32358e-07 9.59247e-20 9.1635e-06 2.21245e-20 1.04641e-05)
(1.15728e-05 -6.30126e-08 -3.43952e-20 8.94375e-06 -6.39653e-21 1.02588e-05)
(1.13309e-05 2.05572e-07 1.07979e-19 8.78351e-06 2.18221e-20 1.00575e-05)
(1.10517e-05 4.46793e-07 7.63227e-20 8.6831e-06 1.14041e-20 9.86722e-06)
(1.07505e-05 6.46635e-07 -1.90197e-19 8.62768e-06 -3.6882e-20 9.68889e-06)
(1.04396e-05 8.04877e-07 -8.74067e-20 8.60247e-06 -1.2864e-20 9.52094e-06)
(1.0133e-05 9.2231e-07 3.6508e-20 8.59421e-06 9.39642e-21 9.36324e-06)
(9.84056e-06 1.00333e-06 -1.39092e-20 8.59053e-06 -3.12129e-21 9.2152e-06)
(9.5643e-06 1.05594e-06 4.33547e-20 8.58476e-06 9.24115e-21 9.07428e-06)
(9.30398e-06 1.08685e-06 -3.41814e-20 8.57353e-06 -4.21758e-21 8.93854e-06)
(9.05783e-06 1.10103e-06 -1.15879e-20 8.55368e-06 -1.61146e-21 8.80557e-06)
(8.82066e-06 1.10246e-06 -7.66273e-21 8.52396e-06 -2.15408e-22 8.67224e-06)
(8.58809e-06 1.09359e-06 -7.46748e-21 8.48296e-06 -1.49304e-21 8.53545e-06)
(1.08306e-05 -1.05862e-06 1.16724e-21 9.34187e-06 5.11638e-22 1.00856e-05)
(1.0793e-05 -9.21899e-07 2.83817e-20 9.03935e-06 6.20735e-21 9.91552e-06)
(1.07425e-05 -7.47234e-07 -3.13458e-20 8.73889e-06 -6.57965e-21 9.74153e-06)
(1.06624e-05 -5.37273e-07 7.15355e-20 8.45736e-06 1.58246e-20 9.55946e-06)
(1.05403e-05 -3.1049e-07 -3.69082e-20 8.21565e-06 -8.37677e-21 9.37789e-06)
(1.03725e-05 -6.90474e-08 5.61597e-20 8.01737e-06 1.09279e-20 9.19539e-06)
(1.01598e-05 1.72194e-07 -1.02152e-19 7.87239e-06 -2.27551e-20 9.01636e-06)
(9.91322e-06 3.89217e-07 -1.11445e-20 7.78112e-06 -1.82427e-21 8.84698e-06)
(9.64618e-06 5.69337e-07 1.58443e-19 7.73008e-06 3.31558e-20 8.68795e-06)
(9.36993e-06 7.12201e-07 -8.67469e-21 7.70599e-06 5.24914e-24 8.53787e-06)
(9.09728e-06 8.18559e-07 -2.32471e-20 7.69714e-06 -3.73158e-21 8.3969e-06)
(8.83722e-06 8.92302e-07 -6.60642e-21 7.69245e-06 3.6496e-22 8.26455e-06)
(8.59182e-06 9.40601e-07 5.72066e-20 7.68604e-06 9.13689e-21 8.13871e-06)
(8.3608e-06 9.69546e-07 3.40893e-20 7.67487e-06 5.36514e-21 8.01767e-06)
(8.14286e-06 9.83627e-07 -3.59177e-20 7.65639e-06 -5.8403e-21 7.89946e-06)
(7.93367e-06 9.86479e-07 5.43607e-20 7.62962e-06 8.4858e-21 7.78157e-06)
(7.72909e-06 9.80327e-07 9.41319e-21 7.59332e-06 1.14517e-21 7.66113e-06)
(7.52462e-06 9.66465e-07 -4.60624e-20 7.54594e-06 -5.78564e-21 7.53524e-06)
(9.69319e-06 -9.56647e-07 -3.42328e-21 8.38251e-06 -1.08082e-21 9.03732e-06)
(9.66214e-06 -8.35392e-07 -4.35653e-20 8.11036e-06 -9.51437e-21 8.88568e-06)
(9.61991e-06 -6.79898e-07 1.01376e-20 7.83969e-06 2.61023e-21 8.73053e-06)
(9.55206e-06 -4.92422e-07 7.17206e-21 7.58627e-06 7.85045e-22 8.56881e-06)
(9.44675e-06 -2.89536e-07 -4.48276e-20 7.36872e-06 -9.19656e-21 8.40766e-06)
(9.30041e-06 -7.3054e-08 -4.60103e-20 7.19e-06 -8.97179e-21 8.24561e-06)
(9.11376e-06 1.43693e-07 -4.91799e-20 7.05912e-06 -9.87471e-21 8.08668e-06)
(8.8963e-06 3.39012e-07 -1.17523e-19 6.97647e-06 -2.05935e-20 7.93623e-06)
(8.65982e-06 5.01384e-07 5.74797e-20 6.92976e-06 9.77762e-21 7.79464e-06)
(8.41471e-06 6.30419e-07 1.15702e-19 6.90716e-06 1.84717e-20 7.66084e-06)
(8.17239e-06 7.26793e-07 4.14398e-20 6.89816e-06 5.32021e-21 7.53499e-06)
(7.94115e-06 7.93885e-07 5.265e-21 6.89279e-06 1.42774e-22 7.41668e-06)
(7.72317e-06 8.38229e-07 1.90461e-20 6.88609e-06 1.13675e-21 7.30444e-06)
(7.51825e-06 8.65269e-07 3.31598e-20 6.87524e-06 4.10946e-21 7.19657e-06)