/*--------------------------------*- C++ -*----------------------------------*\
| =========                 |                                                 |
| \\      /  F ield         | OpenFOAM: The Open Source CFD Toolbox           |
|  \\    /   O peration     | Version:  2306                                  |
|   \\  /    A nd           | Website:  www.openfoam.com                      |
|    \\/     M anipulation  |                                                 |
\*---------------------------------------------------------------------------*/
FoamFile
{
    version     2.0;
    format      ascii;
    arch        "LSB;label=32;scalar=64";
    class       volVectorField;
    location    "425";
    object      U;
}
// * * * * * * * * * * * * * * * * * * * * * * * * * * * * * * * * * * * * * //

dimensions      [0 1 -1 0 0 0 0];

internalField   nonuniform List<vector> 
1340
(
(17.8937 14.091 -4.02603e-18)
(17.3011 13.3878 5.85699e-17)
(16.7584 12.6502 1.7777e-16)
(16.2305 11.7706 -3.80321e-16)
(15.7277 10.7712 -7.78322e-16)
(18.6019 13.4343 1.56264e-17)
(18.0462 12.7907 6.70293e-17)
(17.5363 12.1169 -2.01084e-16)
(17.0354 11.3121 -7.60508e-18)
(16.5537 10.3962 4.40561e-16)
(16.1583 9.42021 -8.76417e-16)
(19.2324 12.8367 -1.08269e-17)
(18.709 12.2456 -4.7417e-17)
(18.2281 11.6277 -2.57538e-17)
(17.7516 10.8883 1.74117e-16)
(17.2898 10.0456 -4.62001e-17)
(16.9057 9.14845 5.41006e-16)
(16.5984 8.18497 9.23381e-16)
(19.7963 12.2896 1.02472e-17)
(19.3019 11.7451 1.72746e-17)
(18.8468 11.1766 7.36216e-17)
(18.3929 10.495 -2.70117e-16)
(17.9498 9.7171 -2.19029e-16)
(17.5771 8.88938 -4.95733e-16)
(17.2733 7.99842 -6.98679e-16)
(17.0572 7.06054 6.31939e-16)
(20.3031 11.7862 9.63438e-18)
(19.8349 11.2832 7.5796e-18)
(19.4032 10.7588 -3.95721e-17)
(18.9699 10.1288 2.33905e-16)
(18.5447 9.40857 5.01579e-16)
(18.1834 8.64249 3.45002e-17)
(17.8844 7.81612 1.29577e-15)
(17.6653 6.94521 -4.95007e-16)
(17.539 6.0838 -7.59887e-16)
(20.7605 11.3208 1.29312e-17)
(20.3161 10.8553 -2.56394e-17)
(19.9058 10.3701 -2.06202e-17)
(19.4917 9.78658 -3.30305e-17)
(19.0833 9.11816 4.1526e-16)
(18.7333 8.40732 -5.62995e-16)
(18.4403 7.63898 1.83252e-16)
(18.2201 6.82834 1.23708e-17)
(18.0859 6.02634 -1.82541e-15)
(18.0362 5.26451 5.66892e-16)
(21.1748 10.8888 -1.09555e-17)
(20.7521 10.4573 2.10209e-17)
(20.3615 10.0077 1.53889e-16)
(19.9654 9.4659 4.16002e-17)
(19.5729 8.84437 -2.57647e-16)
(19.2343 8.18325 2.45933e-16)
(18.9476 7.46738 -4.77798e-18)
(18.728 6.71138 9.31782e-16)
(18.5884 5.96321 1.37981e-16)
(18.5275 5.25265 -1.58439e-16)
(21.5512 10.4866 -3.20556e-18)
(21.1485 10.086 -5.94232e-18)
(20.7761 9.66858 -1.284e-16)
(20.3968 9.16478 -2.77806e-16)
(20.0196 8.58579 -4.13573e-16)
(19.6921 7.96973 7.36645e-16)
(19.4123 7.30155 -7.77184e-16)
(19.1945 6.59529 1.99956e-16)
(19.0512 5.89616 5.01059e-16)
(18.9818 5.23232 2.47625e-16)
(18.9784 4.60634 3.44526e-16)
(21.8939 10.1109 1.86375e-17)
(21.51 9.73861 4.24419e-17)
(21.1545 9.3505 1.36571e-16)
(20.7909 8.88138 -3.50706e-17)
(20.4283 8.34123 1.57025e-16)
(20.1117 7.76619 -7.48165e-16)
(19.8392 7.14162 6.54753e-16)
(19.624 6.48083 9.32532e-16)
(19.4787 5.82656 1.73381e-17)
(19.4027 5.20549 5.71742e-16)
(19.3884 4.62002 2.83633e-16)
(22.2069 9.75915 -2.12586e-17)
(21.8404 9.41276 3.58495e-17)
(21.5007 9.05147 -1.21667e-16)
(21.1521 8.61416 -1.30472e-16)
(20.8033 8.10962 -1.46817e-17)
(20.4975 7.57209 6.74339e-16)
(20.2323 6.98755 -9.46272e-17)
(20.0204 6.36854 -6.1829e-16)
(19.8743 5.75543 -6.16122e-16)
(19.7933 5.17368 -1.93194e-15)
(19.7703 4.62548 4.5143e-16)
(19.7965 4.11843 1.25003e-15)
(22.4932 9.429 1.16813e-17)
(22.143 9.10649 9.1879e-18)
(21.8182 8.76983 1.33103e-16)
(21.4837 8.36179 2.84825e-16)
(21.1482 7.89 -1.40495e-16)
(20.8529 7.38693 -5.14001e-16)
(20.5952 6.83926 7.73708e-17)
(20.3872 6.25873 -7.68576e-16)
(20.2411 5.68358 3.90568e-16)
(20.1566 5.13806 7.25303e-16)
(20.1265 4.62427 -6.27717e-16)
(20.1426 4.14943 -6.8909e-16)
(22.7556 9.11858 -1.25691e-17)
(22.4207 8.81809 6.24743e-17)
(22.11 8.50413 -4.04127e-17)
(21.7889 8.12307 -3.83253e-17)
(21.4662 7.68148 -1.33261e-16)
(21.1811 7.21026 -4.05883e-16)
(20.9309 6.69662 -2.17908e-16)
(20.7271 6.15166 -6.65466e-17)
(20.5818 5.61159 2.97816e-16)
(20.4948 5.09955 4.35443e-16)
(20.4591 4.61757 8.20685e-16)
(20.4667 4.17254 -2.19403e-16)
(22.9964 8.82617 -1.10035e-17)
(22.676 8.54608 -8.6646e-17)
(22.3785 8.25309 -6.88451e-17)
(22.0703 7.89696 -6.23772e-17)
(21.7598 7.48333 -4.94911e-17)
(21.4847 7.04157 2.37451e-16)
(21.242 6.55947 -1.21805e-15)
(21.0427 6.04746 1.03582e-16)
(20.8988 5.5399 1.81746e-15)
(20.8101 5.05891 4.10322e-16)
(20.7699 4.60643 -1.43839e-15)
(20.7705 4.18906 -9.9791e-16)
(20.8041 3.81296 2.19109e-16)
(23.2176 8.55032 1.31597e-17)
(22.9111 8.28913 -2.33276e-17)
(22.6261 8.01559 1.18503e-16)
(22.3301 7.68255 -4.11109e-16)
(22.0314 7.29488 -3.66884e-16)
(21.766 6.88045 -1.92254e-16)
(21.5307 6.42764 4.57029e-16)
(21.3362 5.94627 7.79512e-16)
(21.1941 5.46893 -7.99479e-16)
(21.1045 5.01676 7.35032e-16)
(21.0607 4.59165 -4.57782e-18)
(21.0554 4.19998 -2.68266e-16)
(21.0812 3.84766 9.16615e-16)
(23.4212 8.28973 -1.02748e-17)
(23.1277 8.0461 -3.29695e-17)
(22.8547 7.79061 8.5735e-17)
(22.5704 7.47905 1.82379e-16)
(22.283 7.11551 3.58677e-16)
(22.0269 6.7265 2.62806e-16)
(21.7991 6.30094 8.81567e-16)
(21.6094 5.84808 -1.48444e-15)
(21.4695 5.39891 1.29274e-16)
(21.3795 4.97356 -3.07225e-16)
(21.3329 4.57394 6.98682e-16)
(21.3227 4.20617 2.11375e-16)
(21.3418 3.87594 5.14833e-16)
(21.3842 3.57803 1.86283e-16)
(23.6086 8.04325 1.1394e-17)
(23.3276 7.81601 5.1938e-17)
(23.0659 7.57728 -1.54365e-16)
(22.7929 7.2857 7.82384e-17)
(22.5164 6.94466 3.423e-16)
(22.2694 6.57934 -1.00196e-16)
(22.0488 6.1792 -4.55426e-16)
(21.8641 5.75296 1.10761e-15)
(21.7267 5.33003 -9.93164e-16)
(21.6368 4.92969 8.40596e-16)
(21.588 4.55381 -3.22781e-16)
(21.5737 4.20829 -4.30059e-16)
(21.5871 3.89862 -7.51689e-16)
(21.6223 3.61984 1.017e-16)
(23.7813 7.80989 -9.21857e-19)
(23.5122 7.59792 1.44534e-17)
(23.2614 7.37483 -9.47174e-17)
(22.9991 7.10185 2.08944e-16)
(22.7332 6.78181 -3.29042e-16)
(22.495 6.43861 4.47047e-16)
(22.2815 6.0622 4.59701e-16)
(22.1019 5.66084 -4.75965e-16)
(21.9672 5.26245 -7.92663e-17)
(21.8777 4.88547 9.99967e-17)
(21.8272 4.53176 -3.84539e-16)
(21.8095 4.20699 5.29011e-16)
(21.818 3.91645 3.2288e-16)
(21.8468 3.65543 4.58163e-17)
(23.9406 7.58875 -1.64699e-18)
(23.6828 7.39102 1.35081e-17)
(23.4424 7.18251 -4.22736e-18)
(23.1904 6.92692 -1.17889e-16)
(22.9346 6.62649 -3.61586e-16)
(22.705 6.30397 -2.8657e-16)
(22.4986 5.9498 -4.69977e-16)
(22.324 5.57172 2.21172e-16)
(22.1921 5.19629 7.56793e-17)
(22.1034 4.84114 -1.2787e-15)
(22.0517 4.50814 -2.2117e-16)
(22.0311 4.20274 -4.85241e-16)
(22.0353 3.93003 9.06312e-16)
(22.0587 3.68555 -9.6376e-16)
(22.0972 3.46467 -3.17402e-16)
(24.0875 7.37902 1.21007e-17)
(23.8406 7.19458 4.97042e-17)
(23.6101 6.99971 1.19002e-16)
(23.3681 6.76037 1.54047e-16)
(23.1221 6.4783 2.85223e-16)
(22.9008 6.17514 2.78913e-16)
(22.7012 5.84177 -8.87902e-16)
(22.5317 5.48552 -4.32816e-16)
(22.4028 5.13162 7.51936e-16)
(22.315 4.79692 1.37543e-15)
(22.2625 4.48328 6.99012e-16)
(22.2395 4.19597 -1.64682e-16)
(22.24 3.9399 -2.27928e-16)
(22.2586 3.71081 1.07032e-15)
(22.2912 3.50431 -2.24951e-16)
(24.2231 7.17997 9.46544e-18)
(23.9866 7.00797 -1.57115e-17)
(23.7656 6.82583 -4.98685e-17)
(23.5332 6.60169 -7.90885e-17)
(23.2967 6.33682 -7.49452e-16)
(23.0834 6.05181 -1.50545e-16)
(22.8906 5.73797 4.55369e-16)
(22.726 5.40219 4.06694e-16)
(22.6002 5.06849 -1.13789e-15)
(22.5136 4.75296 2.20289e-16)
(22.4605 4.45746 -1.13174e-16)
(22.4356 4.18705 9.29226e-18)
(22.4329 3.94647 -3.73384e-16)
(22.4472 3.73171 -5.81139e-16)
(22.4746 3.53856 2.10293e-17)
(24.3483 6.99095 -4.48884e-18)
(24.1218 6.83057 2.68053e-17)
(23.91 6.66035 4.21438e-17)
(23.6867 6.45045 1.88542e-17)
(23.4594 6.20171 1.07561e-16)
(23.2539 5.93373 6.71191e-16)
(23.0676 5.63821 -4.26194e-16)
(22.908 5.32167 3.25125e-16)
(22.7853 5.00693 1.16808e-15)
(22.7 4.70938 -9.48689e-16)
(22.6467 4.43087 8.2378e-16)
(22.6201 4.17628 5.75136e-16)
(22.6146 3.95018 9.05476e-16)
(22.6252 3.74875 -1.45929e-16)
(22.6481 3.56802 -3.70257e-16)
(22.6806 3.40536 -3.97225e-16)
(24.4639 6.81136 -1.20843e-20)
(24.2469 6.66185 -8.66234e-17)
(24.044 6.50279 1.32389e-16)
(23.8295 6.30622 -5.39884e-17)
(23.611 6.07264 5.51843e-16)
(23.4132 5.82063 -3.9305e-16)
(23.2333 5.54233 7.76764e-17)
(23.0786 5.24387 1.1646e-15)
(22.959 4.94696 -1.42131e-15)
(22.8752 4.66629 6.0102e-16)
(22.8218 4.40372 -9.77806e-16)
(22.7938 4.16394 -1.18333e-15)
(22.786 3.95135 -5.56076e-16)
(22.7933 3.76235 2.3668e-16)
(22.8121 3.59314 5.75657e-16)
(22.8399 3.44124 2.30054e-16)
(24.3629 6.50132 -3.12874e-17)
(24.1684 6.35271 -4.53058e-17)
(23.9625 6.16863 -3.02781e-17)
(23.7525 5.94929 -3.72931e-16)
(23.562 5.71229 6.65233e-16)
(23.3884 5.45018 -3.55726e-16)
(23.2385 5.16872 -1.45976e-15)
(23.1221 4.88856 1.39038e-15)
(23.0398 4.62376 1.97317e-16)
(22.9865 4.37615 4.40059e-16)
(22.9574 4.15023 5.27695e-16)
(22.9475 3.95027 -8.52726e-17)
(22.952 3.77284 9.53282e-17)
(22.9673 3.61435 -5.75168e-16)
(22.9907 3.47242 3.07407e-16)
(23.0212 3.34303 -5.7611e-16)
(24.4703 6.34851 -1.9831e-17)
(24.284 6.2097 6.4415e-17)
(24.0864 6.03734 -2.57179e-16)
(23.8846 5.83137 7.93309e-17)
(23.7013 5.60849 -6.38618e-16)
(23.5337 5.36159 1.5589e-16)
(23.3886 5.09614 3.79316e-17)
(23.2754 4.83176 -4.91587e-17)
(23.1947 4.58187 -2.26023e-16)
(23.1416 4.34828 1.17642e-15)
(23.1117 4.13535 -1.26429e-16)
(23.1 3.94719 1.02675e-15)
(23.1019 3.78055 -3.39171e-16)
(23.1139 3.63203 3.3158e-16)
(23.1337 3.49934 -2.48076e-16)
(23.1598 3.37866 4.32415e-16)
(24.5699 6.20301 -9.15658e-17)
(24.3913 6.07338 -1.19738e-17)
(24.2017 5.91202 4.13992e-16)
(24.0079 5.71863 1.49889e-17)
(23.8315 5.50901 3.8272e-16)
(23.6699 5.27644 -5.17331e-16)
(23.5295 5.02607 8.58179e-17)
(23.4194 4.77652 -2.64257e-16)
(23.3404 4.54065 2.10127e-16)
(23.2877 4.32024 -6.36649e-16)
(23.2571 4.1195 -3.57564e-16)
(23.2438 3.94236 -1.1219e-15)
(23.2435 3.78578 3.44647e-16)
(23.2527 3.64651 1.31922e-16)
(23.2691 3.5224 -1.15366e-16)
(23.2914 3.40977 -1.21434e-16)
(24.6622 6.06442 6.71706e-17)
(24.4912 5.9434 1.4907e-16)
(24.3093 5.79237 -1.75351e-16)
(24.1232 5.61081 -5.37021e-16)
(23.9535 5.41367 7.88789e-17)
(23.7976 5.19459 -1.40864e-16)
(23.6618 4.95841 4.76501e-16)
(23.5549 4.72284 6.90601e-16)
(23.4776 4.50016 -4.87279e-16)
(23.4254 4.29214 -7.31372e-16)
(23.3942 4.10281 1.43495e-15)
(23.3796 3.93598 6.52169e-16)
(23.3773 3.78877 -2.07961e-16)
(23.384 3.65811 1.014e-16)
(23.3975 3.54194 5.4165e-16)
(23.4163 3.43677 4.38721e-16)
(23.4398 3.33975 6.41493e-17)
(24.7476 5.9324 -1.50372e-17)
(24.5839 5.81945 -1.65555e-16)
(24.4095 5.67812 2.16936e-17)
(24.2308 5.50768 8.12782e-16)
(24.0677 5.32229 -6.83137e-16)
(23.9174 5.1159 8.12659e-17)
(23.7861 4.89309 -4.2709e-17)
(23.6823 4.67069 -4.58543e-16)
(23.6068 4.46042 1.35201e-15)
(23.5552 4.26403 2.80683e-17)
(23.5236 4.08542 -1.36147e-15)
(23.5079 3.92823 3.6176e-16)
(23.5039 3.78975 -6.26056e-16)
(23.5084 3.66708 -5.26389e-16)
(23.5191 3.55828 -2.12501e-16)
(23.5349 3.45999 9.07012e-17)
(23.5549 3.36951 5.97491e-17)
(24.8269 5.80661 -4.03933e-17)
(24.6702 5.70123 1.05539e-16)
(24.503 5.56899 1.01543e-16)
(24.3315 5.40902 -8.44043e-16)
(24.1746 5.23468 6.90714e-16)
(24.0299 5.04025 -2.71867e-16)
(23.903 4.83004 9.89544e-16)
(23.8023 4.62005 6.79891e-16)
(23.7286 4.42146 -1.95854e-15)
(23.6777 4.23601 -8.96658e-16)
(23.6458 4.06744 3.78276e-16)
(23.6291 3.91926 -1.35097e-16)
(23.6236 3.78893 4.2175e-16)
(23.6261 3.6737 -3.40349e-16)
(23.6345 3.57172 -8.83677e-17)
(23.6475 3.4798 -6.96215e-17)
(23.6645 3.39534 -7.29799e-17)
(24.9003 5.68674 1.35108e-18)
(24.7503 5.58845 1.13531e-16)
(24.5901 5.46476 -1.69447e-16)
(24.4256 5.31464 4.35878e-16)
(24.2749 5.1507 -2.63975e-16)
(24.1355 4.96753 4.76443e-16)
(24.013 4.7692 -9.33251e-16)
(23.9153 4.5709 -1.09298e-16)
(23.8434 4.3833 1.61422e-15)
(23.7933 4.20813 -1.16331e-16)
(23.7613 4.04898 -2.44373e-16)
(23.7438 3.90924 -6.2653e-17)
(23.7368 3.7865 5.76563e-16)
(23.7376 3.67818 3.08444e-16)
(23.7439 3.58252 -3.15634e-16)
(23.7545 3.49649 4.77858e-16)
(23.7687 3.4176 5.33572e-17)
(23.7862 3.34398 -3.88408e-16)
(24.9683 5.57249 -1.10585e-17)
(24.8249 5.48086 -1.82314e-16)
(24.6714 5.36518 4.27398e-17)
(24.5137 5.22433 3.60182e-17)
(24.3689 5.07018 -3.07092e-16)
(24.2347 4.89763 -3.50796e-16)
(24.1164 4.71049 -4.60608e-16)
(24.0218 4.5232 -1.13595e-15)
(23.9518 4.34596 6.13244e-16)
(23.9024 4.18045 1.21824e-15)
(23.8704 4.03014 4.25302e-16)
(23.8522 3.89829 4.56153e-17)
(23.8441 3.78264 1.94628e-16)
(23.8432 3.68074 2.96955e-16)
(23.8477 3.59094 -3.79488e-16)
(23.8562 3.51035 -9.42085e-17)
(23.868 3.43659 3.68614e-16)
(23.8827 3.36788 -1.25815e-17)
(25.0313 5.4636 4.15249e-17)
(24.8942 5.3782 -5.81883e-17)
(24.7472 5.27006 9.57171e-18)
(24.596 5.13793 -1.87321e-16)
(24.4571 4.99299 6.6876e-16)
(24.328 4.83044 1.06217e-15)
(24.2138 4.65386 -4.21157e-16)
(24.1222 4.47694 1.74405e-16)
(24.054 4.30945 -4.48938e-16)
(24.0055 4.15301 -1.0951e-15)
(23.9735 4.01099 -4.9864e-16)
(23.9548 3.88653 -3.07946e-16)
(23.9457 3.77749 -5.57211e-16)
(23.9435 3.68157 1.73718e-16)
(23.9463 3.5972 2.68187e-16)
(23.9529 3.52163 4.57863e-17)
(23.9625 3.45261 -1.91655e-16)
(23.9748 3.38842 -4.08198e-16)
(25.0897 5.35981 -4.71382e-17)
(24.9586 5.28027 1.0707e-16)
(24.818 5.17919 -1.72407e-16)
(24.6731 5.05526 -2.16122e-16)
(24.5397 4.919 -4.25819e-16)
(24.4156 4.76586 2.89282e-17)
(24.3056 4.59922 1.09977e-15)
(24.2169 4.43209 -5.0535e-16)
(24.1505 4.27377 1.58986e-17)
(24.103 4.12587 -2.64818e-16)
(24.0711 3.99164 5.86822e-16)
(24.0519 3.87408 1.07915e-16)
(24.0419 3.77122 -4.59821e-16)
(24.0385 3.68085 5.2194e-16)
(24.0399 3.60151 1.06224e-16)
(24.0448 3.53059 -3.02618e-16)
(24.0526 3.46594 5.81927e-16)
(24.0628 3.40591 -5.04763e-16)
(24.0754 3.34876 8.20309e-17)
(25.1437 5.2609 -9.0237e-17)
(25.0185 5.18682 6.83757e-17)
(24.884 5.09239 2.11878e-16)
(24.7453 4.97616 1.50978e-16)
(24.6174 4.84806 4.27502e-16)
(24.498 4.7038 -6.24965e-16)
(24.392 4.54653 -1.6732e-15)
(24.3063 4.38862 1.37212e-16)
(24.2418 4.23893 -1.24487e-16)
(24.1951 4.09907 8.71321e-16)
(24.1635 3.97214 1.02083e-15)
(24.144 3.86105 -2.45903e-16)
(24.1333 3.76394 4.53492e-16)
(24.1288 3.67874 -4.1151e-16)
(24.1289 3.60407 -6.48481e-16)
(24.1323 3.53745 -1.90686e-16)
(24.1384 3.47683 -2.50612e-17)
(24.1467 3.42064 5.64749e-16)
(24.1572 3.3672 -7.37234e-18)
(25.1937 5.16662 5.42633e-17)
(25.0742 5.09768 -1.60367e-16)
(24.9456 5.00946 -2.16113e-17)
(24.8129 4.90049 -2.49437e-16)
(24.6902 4.78007 1.84444e-16)
(24.5756 4.64416 6.4198e-16)
(24.4735 4.49573 1.31297e-15)
(24.3906 4.34651 -3.79997e-16)
(24.328 4.20495 -6.1375e-17)
(24.2824 4.07264 -8.4136e-16)
(24.251 3.95257 -2.57376e-16)
(24.2313 3.84753 3.9802e-17)
(24.2199 3.75579 -7.63706e-16)
(24.2146 3.67541 -5.32259e-17)
(24.2135 3.60507 4.66826e-16)
(24.2157 3.54242 4.38306e-16)
(24.2203 3.48552 -3.09766e-16)
(24.2269 3.43286 -3.10882e-16)
(24.2356 3.38284 1.67912e-16)
(25.24 5.07676 -1.23489e-17)
(25.1259 5.01263 7.34475e-17)
(25.0031 4.93025 -2.63392e-16)
(24.8761 4.82809 -7.99885e-17)
(24.7586 4.71491 2.09606e-16)
(24.6486 4.58687 -4.34798e-16)
(24.5503 4.44677 -5.401e-16)
(24.4703 4.30573 -1.20897e-16)
(24.4096 4.17183 8.36698e-16)
(24.365 4.04662 -2.82416e-16)
(24.334 3.93298 6.84335e-17)
(24.3141 3.83362 -5.92447e-16)
(24.3022 3.74689 3.52464e-16)
(24.2961 3.67099 2.8334e-16)
(24.294 3.60466 -2.70064e-16)
(24.2951 3.5457 2.68763e-16)
(24.2984 3.49223 1.20612e-16)
(24.3036 3.44284 -3.65482e-16)
(24.3106 3.39597 3.31743e-16)
(24.3195 3.35026 5.61216e-17)
(25.2828 4.99114 3.6574e-18)
(25.1741 4.9315 -1.35837e-17)
(25.0568 4.8546 6.53919e-17)
(24.9354 4.75885 2.01478e-16)
(24.8229 4.65246 -2.93985e-16)
(24.7173 4.53184 -4.68266e-16)
(24.6228 4.39959 9.91399e-16)
(24.5456 4.26626 1.07074e-15)
(24.4867 4.13957 2.8676e-16)
(24.4432 4.02104 -2.98219e-16)
(24.4127 3.91344 3.14903e-16)
(24.3927 3.81938 6.30307e-16)
(24.3804 3.73735 -7.02051e-16)
(24.3736 3.66561 2.15072e-16)
(24.3707 3.60302 7.99744e-16)
(24.3707 3.54747 -6.06386e-16)
(24.3729 3.49717 -1.95732e-16)
(24.3769 3.45078 1.74295e-16)
(24.3825 3.40682 -1.29416e-16)
(24.3898 3.36396 3.14409e-16)
(25.3224 4.90955 -3.46547e-18)
(25.2188 4.85413 -3.77652e-17)
(25.1069 4.78235 2.23819e-16)
(24.9909 4.69262 5.15556e-17)
(24.8833 4.59264 3.21064e-16)
(24.7821 4.47899 -3.32259e-16)
(24.6913 4.35414 -3.51613e-16)
(24.6169 4.22807 -3.38696e-16)
(24.5598 4.10818 -1.27071e-15)
(24.5174 3.99592 7.71122e-16)
(24.4873 3.89399 -8.81257e-16)
(24.4673 3.80491 -5.60904e-16)
(24.4547 3.72726 4.03859e-16)
(24.4473 3.65941 -1.05852e-16)
(24.4437 3.60029 -2.30704e-17)
(24.4429 3.54789 -5.19538e-17)
(24.4441 3.50053 -1.51779e-16)
(24.447 3.45692 -2.77073e-16)
(24.4514 3.41563 3.63083e-16)
(24.4573 3.37541 -3.99147e-16)
(25.359 4.83183 -2.0563e-17)
(25.2603 4.78034 1.17016e-16)
(25.1537 4.71337 3.10559e-17)
(25.043 4.6293 -4.12306e-16)
(24.94 4.53533 2.24541e-16)
(24.8431 4.42826 8.32836e-16)
(24.7559 4.31037 -6.19214e-16)
(24.6842 4.19115 4.99981e-16)
(24.6291 4.07765 1.79934e-15)
(24.5877 3.9713 2.97616e-17)
(24.5582 3.8747 4.75977e-16)
(24.5383 3.79028 -1.62635e-16)
(24.5254 3.71672 -2.70314e-16)
(24.5175 3.6525 -4.39968e-17)
(24.5133 3.5966 1.16928e-16)
(24.5117 3.54713 8.16713e-16)
(24.5121 3.50249 -2.32372e-17)
(24.5141 3.46144 -3.41757e-16)
(24.5174 3.42263 2.75435e-16)
(24.5221 3.38484 -1.2558e-16)
(24.5283 3.347 6.59704e-17)
(25.3929 4.75779 1.53404e-17)
(25.299 4.70999 -7.24857e-17)
(25.1974 4.64751 -7.32068e-17)
(25.0918 4.56876 5.91673e-16)
(24.9934 4.48045 -2.17554e-16)
(24.9007 4.37957 1.95906e-16)
(24.817 4.26824 -1.20371e-16)
(24.748 4.15547 -1.85225e-15)
(24.6947 4.04798 -1.58254e-16)
(24.6545 3.94719 6.78286e-16)
(24.6255 3.85559 4.20259e-16)
(24.6057 3.77555 -4.64827e-16)
(24.5927 3.70582 1.93131e-16)
(24.5844 3.64498 -3.25143e-17)
(24.5797 3.59209 -1.87103e-16)
(24.5775 3.54533 2.76911e-16)
(24.5772 3.50321 -1.90038e-16)
(24.5783 3.46453 5.16878e-16)
(24.5807 3.42802 -3.58877e-16)
(24.5843 3.39248 1.3071e-16)
(24.5893 3.35689 -7.98026e-17)
(25.4242 4.68727 -2.26411e-17)
(25.3349 4.64292 6.0478e-17)
(25.2382 4.58466 -4.28e-17)
(25.1375 4.5109 -4.80528e-16)
(25.0436 4.42792 -4.67476e-16)
(24.955 4.33285 -1.20617e-15)
(24.8748 4.22771 1.42309e-15)
(24.8085 4.12101 6.16098e-16)
(24.7569 4.01919 3.89811e-16)
(24.7179 3.92362 -1.41854e-15)
(24.6895 3.83673 -6.12274e-16)
(24.6699 3.76078 -5.94637e-16)
(24.6567 3.69464 3.08934e-16)
(24.6482 3.63696 -1.34296e-16)
(24.643 3.58686 -1.75743e-16)
(24.6403 3.54264 1.92384e-16)
(24.6394 3.50285 -4.29799e-16)
(24.6398 3.46637 1.14406e-16)
(24.6414 3.43198 -1.55274e-16)
(24.6442 3.39853 -1.51746e-16)
(24.6482 3.36502 3.1582e-16)
(25.453 4.62013 -2.19475e-17)
(25.3682 4.579 8.41479e-17)
(25.2764 4.52469 7.41232e-17)
(25.1805 4.45562 2.19479e-16)
(25.0909 4.37763 7.31333e-16)
(25.0062 4.28805 6.76394e-16)
(24.9294 4.18872 -2.58373e-16)
(24.8657 4.08775 2.93751e-16)
(24.816 3.99126 -4.21353e-16)
(24.7781 3.90061 1.08017e-16)
(24.7503 3.81813 9.04969e-16)
(24.731 3.74604 5.92729e-16)
(24.7178 3.68325 -1.31466e-16)
(24.709 3.62853 -3.47996e-16)
(24.7035 3.58105 -4.55644e-17)
(24.7004 3.53918 1.8181e-16)
(24.6989 3.50155 -2.63258e-16)
(24.6988 3.46712 2.86725e-17)
(24.6997 3.43469 -2.09683e-16)
(24.7017 3.40317 -7.04569e-17)
(24.7048 3.3716 8.93652e-17)
(25.4797 4.55622 -1.57229e-17)
(25.3992 4.5181 3.37985e-18)
(25.312 4.46748 -8.10173e-17)
(25.2207 4.4028 -3.5428e-17)
(25.1354 4.32952 -1.95861e-16)
(25.0546 4.2451 4.04766e-16)
(24.9812 4.15125 -1.04551e-15)
(24.92 4.05567 8.74682e-16)
(24.8721 3.9642 2.15624e-16)
(24.8353 3.87818 -6.01528e-16)
(24.8082 3.79986 7.11655e-16)
(24.7891 3.73137 -3.5632e-16)
(24.776 3.67174 1.28243e-16)
(24.7671 3.61978 3.6041e-16)
(24.7613 3.57473 1.28343e-16)
(24.7578 3.53506 -8.47371e-17)
(24.7559 3.49945 3.34332e-16)
(24.7553 3.46691 -4.68841e-16)
(24.7557 3.4363 2.85222e-16)
(24.7571 3.40659 -1.55167e-17)
(24.7594 3.37682 2.17222e-16)
(24.7629 3.34602 -2.26514e-16)
(25.5043 4.4954 -1.12653e-17)
(25.428 4.46008 5.03762e-17)
(25.3453 4.41291 3.39094e-17)
(25.2586 4.35237 1.28439e-16)
(25.1774 4.28351 -1.94382e-16)
(25.1003 4.20394 -6.45356e-16)
(25.0302 4.11525 8.52968e-16)
(24.9715 4.02474 -4.48637e-16)
(24.9253 3.93801 -4.75726e-16)
(24.8897 3.85633 1.27813e-15)
(24.8633 3.78192 -1.09635e-15)
(24.8446 3.71683 -2.12048e-16)
(24.8315 3.66015 6.89582e-16)
(24.8226 3.61079 -7.71827e-16)
(24.8166 3.56802 1.67545e-16)
(24.8128 3.53039 -2.62634e-16)
(24.8106 3.49667 5.72334e-17)
(24.8096 3.46589 7.76059e-17)
(24.8095 3.43698 -4.44995e-17)
(24.8104 3.40893 -1.55076e-16)
(24.8121 3.38085 -8.93058e-18)
(24.8148 3.35176 2.76191e-16)
(25.527 4.43753 3.36966e-17)
(25.4548 4.40484 -3.0017e-17)
(25.3764 4.3609 8.19117e-17)
(25.2941 4.30423 1.41345e-16)
(25.2169 4.23952 9.05471e-17)
(25.1436 4.16452 8.98887e-16)
(25.0766 4.08068 -1.21125e-16)
(25.0204 3.99495 -3.06231e-16)
(24.9759 3.91267 4.73289e-16)
(24.9415 3.8351 -1.72562e-15)
(24.9158 3.76436 9.19071e-16)
(24.8975 3.70247 5.68049e-16)
(24.8846 3.64857 -1.09175e-16)
(24.8756 3.60164 7.44783e-16)
(24.8695 3.561 -6.83505e-16)
(24.8656 3.52529 4.07669e-16)
(24.8631 3.49332 5.02972e-16)
(24.8617 3.46419 -4.15233e-16)
(24.8613 3.43685 -3.62842e-17)
(24.8617 3.41036 -9.39584e-17)
(24.8628 3.38383 1.70491e-16)
(24.865 3.35635 -7.63722e-17)
(25.5479 4.38248 3.3794e-17)
(25.4796 4.35225 -2.49486e-17)
(25.4055 4.31133 -5.61319e-17)
(25.3275 4.2583 -3.28154e-16)
(25.2542 4.19749 3.32978e-17)
(25.1845 4.12678 -7.18078e-16)
(25.1206 4.04751 -7.51432e-16)
(25.0668 3.96628 -3.77303e-16)
(25.024 3.88819 -7.41914e-16)
(24.9908 3.81448 -1.13473e-17)
(24.9659 3.74721 -3.99703e-16)
(24.948 3.68832 -3.41643e-16)
(24.9353 3.63703 -1.01698e-16)
(24.9263 3.59238 -4.95911e-16)
(24.9202 3.55375 4.22779e-17)
(24.9161 3.51983 1.41096e-16)
(24.9134 3.4895 -3.26498e-16)
(24.9118 3.4619 -1.05174e-16)
(24.911 3.43603 3.50869e-16)
(24.911 3.41099 -1.07788e-16)
(24.9118 3.38593 1.98338e-16)
(24.9133 3.35994 7.53319e-17)
(25.5672 4.33015 -1.6856e-17)
(25.5027 4.3022 -3.59782e-18)
(25.4327 4.2641 -7.67673e-17)
(25.3588 4.21448 -2.06083e-16)
(25.2894 4.15734 -2.42531e-16)
(25.2233 4.09067 9.09132e-17)
(25.1624 4.01569 6.89765e-16)
(25.1108 3.93871 1.72753e-15)
(25.0698 3.86457 -7.20376e-16)
(25.0377 3.79449 -4.18738e-17)
(25.0136 3.73048 2.47387e-16)
(24.9962 3.67442 -4.35275e-17)
(24.9838 3.62559 -6.98917e-17)
(24.9749 3.58309 -4.33199e-16)
(24.9688 3.54634 -2.80527e-16)
(24.9645 3.5141 5.00333e-16)
(24.9617 3.4853 -1.44291e-16)
(24.9599 3.45913 -4.70599e-17)
(24.9589 3.43463 1.29243e-18)
(24.9586 3.41094 -2.73027e-18)
(24.9589 3.38724 -8.08466e-17)
(24.96 3.36266 -3.04356e-16)
(24.962 3.33617 8.74335e-17)
(25.5849 4.28041 -1.5542e-17)
(25.5242 4.2546 5.87834e-17)
(25.4582 4.21913 1.91412e-16)
(25.3883 4.17271 1.14273e-16)
(25.3227 4.11902 -1.97466e-16)
(25.26 4.05614 -4.24348e-16)
(25.202 3.9852 3.7508e-16)
(25.1527 3.91221 -1.21483e-15)
(25.1133 3.84179 1.96376e-15)
(25.0825 3.77514 5.1109e-16)
(25.0592 3.7142 -6.10908e-16)
(25.0423 3.66082 1.39394e-16)
(25.0301 3.6143 9.56701e-16)
(25.0214 3.57382 -6.79755e-16)
(25.0153 3.53883 2.08339e-17)
(25.011 3.50816 1.63537e-16)
(25.008 3.4808 2.20707e-16)
(25.006 3.45596 -2.37264e-17)
(25.0048 3.43274 -3.36187e-16)
(25.0042 3.41031 5.15878e-16)
(25.0042 3.38788 -4.03329e-16)
(25.0049 3.36462 3.22586e-16)
(25.0065 3.33951 4.2334e-18)
(25.6013 4.23315 -3.97328e-17)
(25.5442 4.20933 9.40846e-17)
(25.482 4.17633 -5.58486e-18)
(25.4161 4.13292 -8.53732e-17)
(25.3541 4.08246 -5.21699e-17)
(25.2948 4.02314 8.55716e-16)
(25.2396 3.956 -2.32448e-16)
(25.1925 3.88678 5.83414e-16)
(25.1548 3.81986 -2.01035e-15)
(25.1253 3.75643 -3.98336e-16)
(25.1028 3.6984 9.08648e-16)
(25.0864 3.64752 5.57066e-17)
(25.0745 3.60319 -1.81861e-16)
(25.066 3.5646 -7.50835e-16)
(25.0598 3.53127 8.35882e-16)
(25.0555 3.50207 -2.65747e-17)
(25.0524 3.47605 -2.98676e-16)
(25.0502 3.45246 -3.00372e-17)
(25.0488 3.43044 7.21736e-17)
(25.048 3.40918 -9.63628e-17)
(25.0477 3.38794 3.28968e-16)
(25.0481 3.3659 -4.11117e-16)
(25.0491 3.34209 2.24486e-16)
(25.6163 4.18827 -5.22477e-18)
(25.5627 4.16631 7.7648e-18)
(25.5044 4.1356 -1.08369e-16)
(25.4423 4.09502 -2.43225e-16)
(25.3838 4.0476 2.35088e-16)
(25.3278 3.99162 -1.0806e-15)
(25.2753 3.92806 5.35933e-16)
(25.2304 3.8624 -4.61843e-17)
(25.1944 3.79877 4.88147e-16)
(25.1661 3.73838 -1.52129e-16)
(25.1444 3.68307 6.0076e-16)
(25.1286 3.63457 -2.81035e-16)
(25.117 3.59228 4.16902e-16)
(25.1085 3.55548 8.03176e-17)
(25.1024 3.52369 3.53037e-16)
(25.098 3.49587 -2.35883e-16)
(25.0947 3.4711 -2.5793e-16)
(25.0924 3.44868 2.00119e-16)
(25.0909 3.42777 -1.78878e-16)
(25.0898 3.40761 1.14003e-16)
(25.0893 3.38748 -1.53419e-16)
(25.0894 3.36659 3.33307e-16)
(25.09 3.34401 -1.75035e-16)
(25.6301 4.14566 -5.34916e-18)
(25.58 4.12544 1.18479e-17)
(25.5253 4.09687 -1.25806e-16)
(25.4669 4.05894 5.31236e-16)
(25.412 4.01438 -1.94065e-16)
(25.3591 3.96155 1.14213e-15)
(25.3092 3.90135 7.29476e-16)
(25.2665 3.83905 1.24344e-16)
(25.2322 3.77851 9.96875e-16)
(25.2051 3.72097 3.2429e-17)
(25.1843 3.66824 -8.37083e-16)
(25.1688 3.62196 -6.56291e-16)
(25.1575 3.58159 -4.12898e-16)
(25.1491 3.54646 4.85899e-16)
(25.143 3.51613 -1.89609e-17)
(25.1385 3.4896 4.96565e-16)
(25.1351 3.466 -4.75421e-16)
(25.1327 3.44467 6.22377e-18)
(25.131 3.4248 -9.01184e-17)
(25.1298 3.40567 -1.42494e-16)
(25.129 3.38658 6.15222e-18)
(25.1288 3.36678 -9.41275e-17)
(25.1292 3.34534 1.14786e-16)
(25.6429 4.10523 4.15984e-17)
(25.596 4.08663 -6.99172e-17)
(25.5449 4.06007 2.83881e-16)
(25.4902 4.02464 -5.38123e-16)
(25.4387 3.98274 1.96243e-16)
(25.3888 3.93287 -1.34406e-15)
(25.3415 3.87584 -6.61242e-16)
(25.3009 3.81671 5.04701e-16)
(25.2683 3.75907 -1.09521e-15)
(25.2424 3.7042 4.54451e-16)
(25.2223 3.65389 8.12515e-17)
(25.2072 3.6097 5.05104e-17)
(25.196 3.57114 -2.37946e-16)
(25.1877 3.53757 -2.68316e-16)
(25.1815 3.5086 8.44757e-17)
(25.177 3.48328 3.53269e-16)
(25.1736 3.46078 -3.03015e-16)
(25.171 3.44047 4.03638e-16)
(25.1692 3.42159 -1.64162e-16)
(25.1678 3.40342 9.96024e-17)
(25.1669 3.38531 -2.43982e-16)
(25.1665 3.36652 3.00502e-16)
(25.1665 3.34618 -5.07191e-17)
(25.1673 3.32375 -1.51432e-16)
(25.6545 4.06688 -2.30553e-17)
(25.6109 4.0498 4.05065e-17)
(25.5633 4.0251 -4.24637e-17)
(25.5121 3.99203 -1.82714e-16)
(25.4639 3.95264 -4.08421e-17)
(25.4171 3.90555 8.44157e-16)
(25.3722 3.8515 3.54591e-16)
(25.3338 3.79539 -1.28859e-15)
(25.3028 3.74044 -5.93551e-16)
(25.2779 3.68807 3.72467e-16)
(25.2584 3.64003 -5.30367e-16)
(25.2437 3.5978 8.41031e-16)
(25.2326 3.56092 1.22261e-16)
(25.2243 3.52882 1.04192e-16)
(25.2182 3.50113 -1.34532e-17)
(25.2136 3.47695 7.46295e-17)
(25.2101 3.45549 -7.21929e-16)
(25.2075 3.43615 2.07725e-16)
(25.2055 3.41819 8.0924e-17)
(25.2041 3.40093 8.96689e-17)
(25.203 3.38374 -1.76685e-16)
(25.2024 3.36591 1.87342e-16)
(25.2023 3.34659 6.65501e-17)
(25.2027 3.32527 -5.7876e-17)
(25.6652 4.03054 -1.15535e-17)
(25.6248 4.01486 -2.8141e-17)
(25.5806 3.99191 1.07505e-16)
(25.5328 3.96107 1.66377e-16)
(25.488 3.92402 2.94848e-16)
(25.4439 3.87955 7.55348e-17)
(25.4013 3.82832 5.08762e-17)
(25.3652 3.77506 2.84682e-16)
(25.3358 3.72258 1.65729e-15)
(25.3118 3.67254 8.27544e-17)
(25.2928 3.62663 6.79891e-16)
(25.2783 3.58624 -7.12428e-16)
(25.2673 3.55094 -1.35001e-16)
(25.2591 3.52022 1.16575e-16)
(25.2529 3.49375 -3.70611e-17)
(25.2483 3.47065 1.45114e-16)
(25.2449 3.45018 -6.67529e-17)
(25.2422 3.43174 4.64538e-16)
(25.2402 3.41465 -4.9464e-16)
(25.2387 3.39825 3.1164e-16)
(25.2375 3.38193 -5.02377e-16)
(25.2368 3.365 3.32107e-16)
(25.2364 3.34665 -2.55592e-16)
(25.2367 3.32639 -9.55092e-17)
(25.6751 3.9961 2.02031e-17)
(25.6377 3.98174 -1.02398e-17)
(25.5968 3.96042 -2.6441e-16)
(25.5524 3.93168 1.36059e-16)
(25.5107 3.89683 -5.67039e-16)
(25.4694 3.85484 1.67366e-16)
(25.4291 3.80628 -1.5395e-17)
(25.3952 3.75572 1.2471e-15)
(25.3674 3.70547 -1.99828e-15)
(25.344 3.65759 3.68765e-16)
(25.3253 3.6137 -7.08029e-16)
(25.311 3.57503 5.41187e-16)
(25.3002 3.54123 -2.62801e-16)
(25.2921 3.51182 -2.60708e-16)
(25.286 3.4865 1.53406e-16)
(25.2815 3.46442 -2.40286e-17)
(25.278 3.44488 -1.13412e-18)
(25.2753 3.4273 1.49296e-17)
(25.2733 3.41103 3.14975e-16)
(25.2716 3.39543 -2.18468e-19)
(25.2704 3.37992 -2.91264e-17)
(25.2695 3.36385 -1.82089e-16)
(25.269 3.34641 2.38437e-17)
(25.269 3.32713 3.45981e-17)
(25.6841 3.96348 -4.59908e-17)
(25.6497 3.95035 -3.42188e-17)
(25.6121 3.93056 2.81418e-17)
(25.5709 3.90382 -4.75202e-16)
(25.5324 3.87101 3.45838e-16)
(25.4936 3.83137 -5.51973e-16)
(25.4556 3.78532 -7.33019e-16)
(25.424 3.73735 -7.89765e-16)
(25.3974 3.6891 1.12061e-15)
(25.3745 3.64323 -9.41122e-16)
(25.356 3.60124 5.48189e-16)
(25.342 3.56421 3.53891e-16)
(25.3315 3.53182 -4.01048e-17)
(25.3235 3.50365 1.64448e-16)
(25.3175 3.47941 -4.10965e-19)
(25.313 3.4583 2.15544e-16)
(25.3095 3.43962 -1.19334e-17)
(25.3068 3.42285 -3.26765e-16)
(25.3047 3.40734 -4.78745e-17)
(25.303 3.39249 8.64604e-17)
(25.3016 3.37774 -6.48687e-17)
(25.3006 3.36245 -5.50326e-18)
(25.2999 3.34587 5.6939e-17)
(25.2997 3.32752 4.62203e-17)
(25.6923 3.93259 2.36099e-17)
(25.6609 3.92061 -2.59477e-17)
(25.6264 3.90225 6.23324e-17)
(25.5885 3.87742 5.44563e-16)
(25.5529 3.8465 8.11086e-16)
(25.5165 3.80912 1.87543e-16)
(25.4808 3.76542 4.05914e-16)
(25.4515 3.71996 -2.02441e-16)
(25.4259 3.6734 9.48297e-16)
(25.4033 3.62942 -8.66357e-16)
(25.3851 3.58929 1.84287e-16)
(25.3715 3.5538 -1.01958e-16)
(25.3612 3.52272 -1.87645e-16)
(25.3533 3.49572 -1.59638e-16)
(25.3474 3.4725 -2.03938e-16)
(25.3428 3.45228 1.45084e-16)
(25.3393 3.43441 -1.09388e-16)
(25.3365 3.41838 -3.24739e-17)
(25.3343 3.40357 -8.89893e-17)
(25.3325 3.38942 2.59499e-16)
(25.331 3.37537 2.18217e-16)
(25.3298 3.36082 -2.08944e-17)
(25.3289 3.34504 -5.78557e-17)
(25.3284 3.32757 -1.2002e-16)
(25.6999 3.90335 -2.46203e-18)
(25.6713 3.89243 -7.37301e-17)
(25.6399 3.87544 1.30804e-16)
(25.6051 3.85243 -3.88628e-16)
(25.5726 3.82329 -9.73651e-16)