/*--------------------------------*- C++ -*----------------------------------*\
| =========                 |                                                 |
| \\      /  F ield         | OpenFOAM: The Open Source CFD Toolbox           |
|  \\    /   O peration     | Version:  2306                                  |
|   \\  /    A nd           | Website:  www.openfoam.com                      |
|    \\/     M anipulation  |                                                 |
\*---------------------------------------------------------------------------*/
FoamFile
{
    version     2.0;
    format      ascii;
    arch        "LSB;label=32;scalar=64";
    class       volScalarField;
    location    "25";
    object      div(phi);
}
// * * * * * * * * * * * * * * * * * * * * * * * * * * * * * * * * * * * * * //

dimensions      [0 0 -1 0 0 0 0];

internalField   nonuniform List<scalar> 
1340
(
0.105197
0.0184301
0.0352294
0.0239547
0.0277326
0.024945
0.0206778
0.0218635
0.0203723
0.0209185
0.0193422
0.0181783
0.0157447
0.0149189
0.0140963
0.0147635
0.0154457
0.0176773
0.0189065
0.0230256
0.0181006
0.0204192
-0.0100202
0.00333923
0.0444432
0.14168
0.133599
0.024199
-0.246637
-0.516551
0.629226
0.206834
-0.295816
-0.0533312
-0.0503449
0.0281704
0.1184
0.0693135
0.139854
0.130133
0.0549516
0.0487599
0.0694086
0.025816
0.0318832
0.0217241
0.0271534
0.023502
0.0213686
0.018387
0.0197066
0.0193641
0.0181787
0.0167652
0.0146045
0.0135548
0.0119651
0.0128751
0.0123274
0.0146137
0.0143739
0.0171712
0.0121655
0.00765892
-0.0184548
-0.024873
-0.0138571
0.0179383
0.074417
0.0842388
-0.0413247
-0.139402
0.167439
0.0636304
-0.126957
-0.033219
0.0157524
0.0573074
0.0630995
0.0631667
0.070889
0.0702036
0.0395523
0.0379583
0.0351837
0.0126306
0.0294702
0.0207318
0.0206498
0.019382
0.0182267
0.0174746
0.0167246
0.0163536
0.0146002
0.014544
0.0136517
0.0147911
0.0154387
0.0171816
0.0181067
0.0199925
0.0193695
0.0187696
0.0118075
0.00590599
0.00465629
0.0187304
0.0271524
0.0340642
-0.0246815
-0.172352
-0.257497
0.28166
0.164282
-0.234696
-0.0166859
-0.0594436
0.0505945
0.0337028
0.044525
0.0519748
0.0342283
0.0515178
0.0491707
0.015105
0.0267272
0.0149727
0.0196881
0.0214038
0.015548
0.0150171
0.0151719
0.0152183
0.0145267
0.0143007
0.0137707
0.0134846
0.0141635
0.0142864
0.0166795
0.0172094
0.0192275
0.0185173
0.0159075
0.00652339
-0.0104571
-0.0210439
-0.0188218
-0.00650592
0.0192767
0.043366
-0.000489582
-0.0484655
0.0894577
0.0386264
-0.0879477
-0.011284
-0.0087706
0.0283546
0.026435
0.0325492
0.0301572
0.0489331
0.0522493
0.0233392
0.0177087
0.0189945
0.021351
0.013316
0.017212
0.0139126
0.0134421
0.0135185
0.0128113
0.0132705
0.0127335
0.0139583
0.0139245
0.0157696
0.0164099
0.0179093
0.0177236
0.0179978
0.0150786
0.0110472
0.00555406
0.00648359
0.0125264
0.0249398
0.0234813
-0.0141316
-0.166575
-0.277372
0.269176
0.289252
-0.184158
-0.021737
-0.0616345
0.0170229
0.0277676
0.0228281
0.03853
0.0249877
0.0337799
0.0268303
0.021954
0.0221807
0.0145388
0.0222627
0.0122713
0.0130724
0.0129506
0.0127643
0.0140163
0.013255
0.0146134
0.014902
0.0154849
0.0167083
0.0176169
0.0198647
0.0194958
0.0196477
0.0151004
0.00785974
-0.00523204
-0.0150795
-0.0182922
-0.010643
0.0100702
0.0348602
-0.00229951
-0.0736008
0.0908774
0.0626632
-0.0666398
-0.000561272
-0.00887685
0.0262493
0.021434
0.0267107
0.0300471
0.0376934
0.0265707
0.0249719
0.0215564
0.0231786
0.0115262
0.0158326
0.0118986
0.013161
0.0139529
0.0134144
0.0138371
0.0144673
0.0142225
0.0152587
0.0148491
0.0161222
0.0155602
0.0158259
0.0137649
0.0121459
0.00716885
0.00496197
0.00312735
0.00797732
0.0165302
0.0201049
-0.0157923
-0.184416
-0.349114
0.355955
0.257496
-0.154127
-0.0274698
-0.060142
0.0292999
0.0209392
0.035681
0.0221297
0.049788
0.0315363
0.0291773
0.0193412
0.0176835
0.0192234
0.00967391
0.0127459
0.0112668
0.0141908
0.014769
0.0158654
0.0156981
0.0175723
0.0176204
0.0180888
0.0192265
0.0198026
0.0202032
0.0180147
0.0152375
0.00834188
0.000152375
-0.00841069
-0.0127132
-0.00861553
0.00736812
0.0276776
-0.00638912
-0.119002
0.154767
0.020564
-0.0396667
0.00584799
-0.000445442
0.0213366
0.0352359
0.0171052
0.0537194
0.046438
0.0270149
0.0175479
0.0339857
0.0129069
0.00877675
0.0169666
0.0108599
0.0139874
0.0135488
0.0151488
0.0154552
0.0160573
0.0165043
0.0157805
0.0159876
0.0147462
0.0149049
0.0125399
0.0114883
0.00791998
0.00538029
0.00177795
0.000213324
0.0013474
0.00506341
0.0101052
-0.0273472
-0.167064
-0.336465
0.42503
0.188406
-0.128361
-0.034459
-0.0579405
0.0364129
0.0201538
0.0526896
0.0409939
0.0278839
0.00826178
0.0129514
0.0136466
0.0136634
0.0123352
0.0150436
0.0182972
0.0182536
0.0196135
0.0192615
0.0192716
0.0196916
0.0186327
0.0168231
0.0137441
0.00913474
0.00342569
-0.0027827
-0.00633546
-0.00476081
0.00710462
0.0199952
-0.00433311
-0.085934
0.108995
0.00598598
-0.0259245
0.00719877
0.00418801
0.0383354
0.0201287
0.0122633
0.0155471
0.0174318
0.0148319
0.0159166
0.0170612
0.0169813
0.015675
0.0149144
0.0127339
0.0114479
0.00818894
0.0063918
0.00268654
0.0003911
-0.0024153
-0.00425729
-0.00242966
-0.00412002
-0.0294073
-0.141662
-0.257799
0.298786
0.15739
-0.0983371
-0.0395809
-0.0584324
0.0370864
0.0137874
0.00823623
0.0155581
0.0164124
0.0187859
0.0185028
0.0189338
0.0178279
0.0176007
0.0163452
0.0146252
0.0118974
0.00908903
0.00507832
0.00131253
-0.00178713
-0.000278164
0.0067185
0.0157335
-0.00486378
-0.048724
0.0476961
-0.00517121
-0.0226785
0.00147781
0.000129229
0.0313557
0.0161425
0.0113946
0.0142467
0.015324
0.015826
0.0146139
0.0128672
0.0113881
0.00886719
0.00705013
0.00419061
0.00221626
-0.000639197
-0.00323877
-0.00596022
-0.00720867
-0.00890154
-0.0283316
-0.107124
-0.173908
0.196804
0.121704
-0.0647842
-0.0393655
-0.0618587
0.0159205
0.0127692
0.0152368
0.0152756
0.0161019
0.0151861
0.0147875
0.013666
0.0136789
0.0116075
0.0104413
0.00804183
0.00628235
0.00318087
0.00206241
0.00215295
0.00838267
0.0111541
-0.00223334
-0.0258318
0.0221788
-0.0132757
-0.0212416
-0.00381832
-0.0110719
0.0261618
0.00545801
0.0109914
0.0127849
0.0119565
0.0112766
0.00970363
0.00872863
0.00721192
0.00537004
0.00368727
0.00182024
-0.000158397
-0.00254393
-0.00520199
-0.00665584
-0.00819202
-0.020699
-0.0689847
-0.106703
0.13304
0.0934001
-0.0349518
-0.0325106
-0.0489925
0.0241915
0.0061404
0.0106983
0.0106717
0.0104483
0.0104868
0.0103216
0.0103595
0.0100284
0.00859407
0.00787343
0.00611613
0.00498737
0.00359447
0.00506108
0.00819424
0.0105489
-0.00167438
-0.0115025
0.0101442
-0.0151386
-0.0189688
-0.00671788
-0.0127236
0.0152878
0.00802388
0.0077892
0.00723878
0.00715146
0.00666152
0.00639123
0.00488647
0.00380711
0.00218055
0.000892487
-0.00107772
-0.00274456
-0.00390876
-0.00405682
-0.0106971
-0.039255
-0.0571158
0.0836509
0.0620428
-0.016878
-0.0225053
-0.0369057
0.0102366
0.00412773
0.00625483
0.007062
0.00770409
0.00851954
0.0089281
0.00895701
0.00821883
0.00720428
0.00645071
0.0053267
0.00508161
0.00601627
0.00882281
0.00906695
-0.000273527
-0.00434456
0.00306858
-0.0140815
-0.0153671
-0.00658199
-0.0116309
0.0077202
0.00517517
0.00569045
0.0062694
0.0069074
0.00643959
0.00569191
0.00411086
0.00316629
0.00168511
0.000806024
-0.000596967
-0.000472286
-0.000532819
-0.0025439
-0.0208872
-0.0251483
0.0441606
0.0345426
-0.00545344
-0.0158352
-0.0297859
0.0063403
0.00241344
0.00508875
0.00731849
0.00741186
0.00853657
0.00860909
0.00773918
0.00684391
0.00609187
0.00542739
0.0053327
0.00635356
0.0082689
0.00762871
0.000963206
-0.00158239
-0.000790133
-0.0108579
-0.0110388
-0.00523032
-0.0085465
0.00586224
0.00567896
0.00572249
0.00674247
0.00668335
0.00581125
0.0047061
0.00335729
0.00262057
0.00162539
0.00138933
0.00113611
0.00234845
0.000294138
-0.00825523
-0.012565
0.0199837
0.0182321
-0.00207179
-0.0100513
-0.024182
0.00529557
0.00211938
0.00219347
0.00666961
0.00750729
0.00787116
0.00682365
0.00601052
0.0053099
0.00488416
0.0048466
0.00577941
0.00690865
0.006199
0.00149799
-0.000890248
-0.00142268
-0.00677846
-0.00739652
-0.00361595
-0.00560115
0.00476314
0.0105686
0.00544219
0.00626347
0.00553166
0.00425523
0.00337425
0.00254834
0.00221109
0.00187352
0.00218263
0.0026299
0.00184861
-0.00329025
-0.0067196
0.00748174
0.00846548
0.000459079
-0.0074111
-0.0205184
0.00805317
0.00374094
0.00933769
0.00733372
0.00625843
0.00544889
0.0046497
0.00425392
0.0038313
0.00397651
0.0045282
0.00536066
0.00464787
0.00152222
-0.000177547
-0.000660116
-0.00311666
-0.00377714
-0.00276293
-0.00317575
0.01077
0.00957764
0.00660972
0.00535634
0.00444316
0.00342258
0.00270994
0.0022409
0.00199349
0.00193291
0.00207765
0.00235336
0.00180034
-0.00122082
-0.00369824
0.00178242
0.00407975
0.00202203
-0.00617185
-0.016709
0.011845
0.00508474
0.00440862
0.00403901
0.00364707
0.00331804
0.00296133
0.00282073
0.00283482
0.00328995
0.00382147
0.00333109
0.00145571
0.000390443
0.000337765
-0.000199465
-0.00118258
-0.00214952
-0.00133419
-0.000221647
0.00275034
0.0028804
0.00261949
0.00217975
0.00183061
0.00165822
0.00154938
0.00161124
0.00168436
0.00182795
0.00140812
-0.000340888
-0.00200817
-1.58057e-05
0.00244158
0.00235465
-0.0051242
-0.0128329
0.00749763
-0.000923698
-0.000275522
0.00179695
0.0023041
0.00212653
0.0020067
0.00188476
0.00191103
0.00223685
0.00259467
0.0023406
0.0012903
0.000715689
0.00109611
0.00141473
0.000234434
-0.00204155
-3.30942e-05
0.0032432
0.00419855
0.00126246
0.00148962
0.00140332
0.00118324
0.00119112
0.00123333
0.00131759
0.00137181
0.0010653
6.79282e-05
-0.00097639
-0.00017969
0.0017489
0.0016518
-0.00429138
-0.00440622
0.00268982
0.000333066
0.00363057
0.00243194
0.00175917
0.00151484
0.00133098
0.00130175
0.00149422
0.00173492
0.00160484
0.00105115
0.000813211
0.00142129
0.00192876
0.000518004
-0.000101686
-0.00300775
0.00524635
0.00421831
0.00231175
0.00179345
0.00134453
0.00109671
0.000983715
0.00101712
0.00105961
0.00105565
0.000840551
0.000238739
-0.000321655
8.4113e-05
0.00116724
0.000917556
-0.00546994
0.00125669
0.00567901
0.0019649
0.00188456
0.00160686
0.00129462
0.00109252
0.000972046
0.00104708
0.00115778
0.00107581
0.000777613
0.000772466
0.0013567
0.00173631
-0.00013174
0.00127161
-0.00703655
-0.00181853
0.00126827
0.00161745
0.00140177
0.00110659
0.000920599
0.000887721
0.000877366
0.000838846
0.000669796
0.000326639
5.80867e-05
0.000292973
0.000555482
3.41358e-05
-0.00671248
0.00621296
0.00394984
3.46265e-05
0.00145795
0.0014375
0.00120884
0.000945308
0.000785464
0.000760541
0.000813602
0.000720983
0.000567898
0.00065592
0.00106232
0.00110631
-0.000946314
0.00194219
0.00281955
0.0013891
0.00130436
0.000947994
0.000779209
0.000725811
0.000743915
0.000717794
0.000588554
0.000399615
0.000274419
0.000345668
-1.92544e-06
-0.00060392
-0.00587666
0.000152244
0.00056595
0.00105687
0.000927784
0.000747976
0.000623565
0.000684165
0.000651323
0.000595676
0.00046199
0.000537436
0.000672404
0.000436988
-0.00150278
0.00141963
0.00231204
0.00193712
0.000869196
0.000782873
0.000622092
0.000722051
0.000746477
0.000759661
0.000615498
0.000479859
0.00038206
0.000288365
-0.00034671
-0.000807794
-0.00498665
0.000493984
0.000244231
0.00167403
0.00103296
0.000782335
0.000760987
0.000762985
0.000745751
0.000573033
0.000438154
0.000398388
0.000359775
-0.00013735
-0.00170929
0.00135965
0.00242083
0.00297876
0.00111637
0.000882358
0.000832672
0.000850459
0.000958338
0.000797742
0.000647202
0.000448978
0.000383904
0.000147516
-0.000511392
-0.000614257
-0.00398014
0.00157746
0.00176468
0.00112948
0.000957833
0.00093775
0.000864023
0.000722076
0.000480427
0.00032231
0.000254747
4.9371e-05
-0.0004032
-0.00180547
0.0014272
0.00248293
0.000945433
0.000814566
0.00075437
0.000891284
0.000813711
0.000646826
0.000425903
0.00031214
0.00022769
5.8412e-06
-0.00067266
-0.000117801
-0.00201106
0.00158161
0.000499652
0.000524794
0.000758341
0.000647376
0.000447964
0.000387867
0.000223324
0.000143525
7.85223e-05
-0.000183836
-0.00037755
-0.000252967
0.00031566
-0.00177088
-0.00013825
0.000315693
0.000195744
7.14207e-05
0.000300929
6.17423e-05
0.000108865
9.7652e-05
7.3082e-05
-0.000109255
0.000176909
-0.00119156
-0.000532643
0.000172959
-0.000625218
-0.000194613
-3.95535e-05
9.75058e-05
-0.000249443
-5.42525e-05
-3.4487e-05
3.07221e-06
-5.83274e-05
-8.70952e-06
-0.00107499
0.000424911
-0.00127721
-0.000121295
-0.000192838
-0.000177243
-0.000405287
-0.000238274
-0.000143363
-0.000144773
-5.29857e-05
-1.12137e-05
-0.000327968
0.000430659
-0.00196992
0.000655577
-0.0011582
-0.000326036
-0.000370159
-0.000260643
-0.000146022
-0.000282856
-0.000127645
-0.00014967
-0.000112768
2.96066e-05
-0.00121533
0.000877815
-0.00014473
-0.000394992
-0.000242686
-0.000185011
-0.000328563
-0.000249326
-0.000390592
-0.000210641
-0.000202054
-0.00037642
0.000375197
-0.00121652
-0.00125553
-0.000285874
-0.000153001
-0.000182542
-0.000245795
-0.000374158
-0.000271256
-0.000399277
-0.000215709
-9.95448e-05
-0.000918579
0.000495641
0.000167583
-0.000192422
-0.000177514
-0.000191839
-0.000213738
-0.000225397
-0.000462571
-0.000252933
-0.000483974
-0.000335044
0.000248619
-0.000827646
-2.63945e-05
-0.000134513
-0.000180783
-8.39716e-05
-0.000281894
-0.000106897
-0.000441356
8.04493e-05
-0.000179447
-0.000552197
0.000224212
-0.000599042
-0.000285989
-4.92082e-05
-0.000110991
3.14478e-05
-0.000166814
0.000227483
-0.000351443
-4.10991e-05
-1.3579e-05
-0.000593591
-5.34565e-05
-6.73654e-05
-2.46747e-05
3.28243e-05
1.93819e-05
0.000166399
-0.000202922
0.00023572
-0.000198816
-0.000603431
-0.000133569
-0.000500263
-6.45634e-05
-2.59816e-05
3.8355e-05
6.43952e-05
-1.40743e-05
0.000179
-8.88428e-05
-0.00027676
1.35438e-05
-0.000479809
0.000140667
-2.64483e-05
3.16681e-05
1.42617e-05
6.55502e-05
7.95502e-05
7.42343e-05
4.60913e-05
0.000149665
-0.000374108
0.000226587
-0.000352791
5.48734e-06
7.44905e-06
1.75753e-05
6.23186e-05
3.68035e-05
0.0001304
8.85892e-05
-0.000103419
0.00032667
0.000350186
-8.91052e-05
-7.89134e-05
3.60073e-05
-2.7624e-05
9.40911e-05
-1.03642e-05
9.87213e-05
5.18767e-05
-5.32119e-05
0.000237696
-8.91939e-06
-6.78998e-06
2.31808e-05
1.14707e-05
7.71752e-05
-4.78823e-05
0.000105211
3.17013e-07
-0.000178143
-2.29724e-05
-1.23701e-05
2.42041e-05
3.08557e-05
-4.41732e-05
0.000104157
-3.79129e-05
0.00017854
8.53047e-05
-1.6762e-06
1.40748e-05
3.21449e-05
9.81759e-06
6.08481e-05
-4.13992e-05
8.65886e-05
-2.34749e-06
-0.000180213
-9.09913e-06
6.68931e-06
1.69072e-05
5.00891e-05
-2.90902e-05
2.2465e-05
-5.59605e-06
5.34754e-05
2.63694e-05
-3.94096e-07
4.1669e-06
4.22318e-05
8.39247e-06
6.73055e-06
2.80316e-05
-2.51669e-05
0.000122087
-0.00013807
-2.29135e-05
1.39335e-05
3.95506e-06
2.85105e-05
1.87618e-05
8.82099e-06
6.96702e-05
-0.000107305
1.3209e-05
-2.14698e-05
3.90807e-05
-1.52818e-05
3.29298e-05
2.8025e-05
5.92644e-05
-5.14182e-05
-4.37375e-05
4.52934e-05
-2.10547e-05
2.708e-05
4.83167e-05
1.98882e-05
6.44495e-05
-4.26535e-06
-1.67746e-06
8.38447e-06
4.1901e-05
-7.32251e-06
5.61697e-05
-9.72335e-06
5.6856e-05
8.08642e-06
7.59582e-06
-1.49326e-05
3.55878e-05
-2.40497e-05
2.28633e-05
-3.53245e-05
-1.26451e-05
4.1574e-06
2.25614e-05
3.15978e-06
7.5095e-06
-5.7769e-06
2.34789e-05
-4.61108e-06
-7.62498e-08
5.54729e-06
-8.05927e-06
8.15253e-06
-3.81592e-05
-7.41623e-05
-1.90162e-05
-1.29418e-05
-5.02082e-06
7.44588e-06
-1.94624e-05
-4.20965e-06
-1.55083e-05
-6.40163e-06
-1.36203e-06
-3.76238e-06
1.01455e-05
-7.45422e-05
-1.89595e-05
-1.69071e-05
-8.38387e-06
4.86729e-06
-4.01637e-06
-1.6419e-05
-2.26798e-05
-8.54301e-06
-1.20842e-05
-2.96359e-06
-8.83558e-07
-8.40851e-05
-7.6318e-06
-2.52146e-05
-7.86198e-06
1.89964e-06
-1.29263e-05
4.16964e-05
-5.64284e-05
3.25757e-08
-1.06297e-05
4.54493e-06
-1.61769e-05
8.5065e-06
2.71787e-06
-3.12107e-05
1.57256e-05
-5.0929e-05
-4.31074e-05
-4.54065e-05
-1.53121e-05
-5.10673e-05
-7.24162e-06
-4.30045e-05
-1.24456e-05
-6.27943e-05
3.96818e-05
-0.000103867
-3.64466e-05
-3.15276e-05
7.81006e-06
-5.55773e-05
-2.07319e-06
-1.57572e-05
1.22135e-05
-3.3038e-05
3.2546e-05
-6.32671e-06
1.4162e-05
-2.19892e-05
)
;

boundaryField
{
    inlet
    {
        type            extrapolatedCalculated;
        value           nonuniform List<scalar> 4(3.2546e-05 -6.32671e-06 1.4162e-05 -2.19892e-05);
    }
    outlet
    {
        type            extrapolatedCalculated;
        value           nonuniform List<scalar> 0();
    }
    walls
    {
        type            extrapolatedCalculated;
        value           nonuniform List<scalar> 
42
(
0.105197
0.0184301
0.0352294
0.0239547
0.0277326
0.024945
0.0206778
0.0218635
0.0203723
0.0209185
0.0193422
0.0181783
0.0157447
0.0149189
0.0140963
0.0147635
0.0154457
0.0176773
0.0189065
0.0230256
0.0181006
0.0204192
-0.0100202
0.00333923
0.0444432
0.14168
0.133599
0.024199
-0.246637
-0.516551
0.629226
0.206834
-0.295816
-0.0533312
-0.0503449
0.0281704
0.1184
0.0693135
0.139854
0.130133
0.0549516
0.0487599
)
;
    }
    frontAndBack
    {
        type            empty;
    }
    procBoundary5to0
    {
        type            processor;
        value           nonuniform List<scalar> 4(0.0540395 0.0424922 0.0611117 0.0442893);
    }
    procBoundary5to1
    {
        type            processor;
        value           nonuniform List<scalar> 
13
(
0.051816
0.0778453
0.0778453
0.0481194
0.0553789
0.0553789
0.0436363
0.0586058
0.0586058
0.0497261
0.0282222
0.0463807
0.0463807
)
;
    }
    procBoundary5to4
    {
        type            processor;
        value           nonuniform List<scalar> 
95
(
0.0576194
0.055765
0.0169071
0.0169071
0.0305718
0.0137114
0.0137114
0.0231464
0.0199833
0.0199833
0.0169477
0.0169477
0.0204545
0.0204545
0.0109868
0.00322419
0.00322419
0.00502278
0.00502278
0.00777071
0.00702482
0.00702482
0.00346629
0.00319642
0.00319642
0.00342635
0.00248336
0.00248336
0.00652236
0.00264641
0.00679273
0.00679273
0.00903716
-0.00314174
-0.00302876
-0.00302876
0.00423454
-1.58183e-05
0.00147551
0.00147551
0.00462824
-0.00282001
-0.00162143
-0.00162143
0.00176047
-0.000867467
0.00284786
-0.000574948
0.00250882
0.00250882
0.000949411
-0.000281895
0.000991494
-0.00207485
-0.0020485
-0.0020485
-0.000139095
-0.00115649
0.000279191
-0.000891427
-0.000828981
-0.000828981
-5.27432e-06
-0.000601695
0.000173805
-0.000421849
0.000351362
-0.000342605
-0.000373338
-0.000373338
0.000184785
-0.000225121
0.000128277
-0.000193492
3.19732e-05
-0.000127166
-9.31524e-05
-3.41414e-05
-3.41414e-05
-4.47889e-05
4.58487e-05
-8.17988e-05
2.90777e-05
-7.78184e-05
9.84391e-06
-7.69851e-05
2.23488e-05
-8.16282e-05
-8.84009e-05
-8.84009e-05
-5.42143e-06
-5.18352e-05
-2.58808e-05
-2.55629e-05
-8.28341e-06
)
;
    }
    procBoundary5to6
    {
        type            processor;
        value           nonuniform List<scalar> 
86
(
0.128639
0.0874646
0.125411
0.0696961
0.106909
0.0513417
0.0865908
0.0418559
0.073698
0.0382992
0.0564777
0.0333193
0.0400002
0.0268682
0.0263314
0.0221493
0.0180981
0.0191535
0.0139414
0.0163341
0.0140003
0.0142633
0.0156255
0.0115585
0.0127322
0.00769797
0.00969577
0.00523948
0.00671564
0.00573203
0.00372158
0.00547216
0.00255811
-0.0114312
-0.0114312
0.0030448
-0.00472663
0.00267237
-0.00381875
0.0023596
-0.00317659
0.00190919
-0.00139656
0.00028408
-0.000883037
9.71959e-05
-0.00233274
-0.00233274
0.000194005
-0.00081318
0.000127138
-0.000442258
-0.000216467
-0.000492242
-0.000231544
-0.00030914
-0.000488185
-0.000488185
9.12855e-05
0.000108525
3.17807e-05
0.000163349
9.5558e-05
1.59077e-05
5.18234e-05
5.18234e-05
6.30386e-05
5.4723e-05
5.80945e-05
-1.50151e-05
-1.07094e-05
6.57056e-06
7.45819e-06
7.45819e-06
5.64423e-06
1.03278e-05
2.54219e-06
-3.13408e-06
-2.44778e-06
5.29877e-06
-7.0549e-05
3.84982e-05
3.36837e-06
3.36837e-06
6.87521e-06
1.33965e-05
)
;
    }
}


// ************************************************************************* //
