/*--------------------------------*- C++ -*----------------------------------*\
| =========                 |                                                 |
| \\      /  F ield         | OpenFOAM: The Open Source CFD Toolbox           |
|  \\    /   O peration     | Version:  2306                                  |
|   \\  /    A nd           | Website:  www.openfoam.com                      |
|    \\/     M anipulation  |                                                 |
\*---------------------------------------------------------------------------*/
FoamFile
{
    version     2.0;
    format      ascii;
    arch        "LSB;label=32;scalar=64";
    class       volScalarField;
    location    "25";
    object      nuTilda;
}
// * * * * * * * * * * * * * * * * * * * * * * * * * * * * * * * * * * * * * //

dimensions      [0 2 -1 0 0 0 0];

internalField   nonuniform List<scalar> 
1340
(
5.18389e-05
5.41032e-05
5.66733e-05
5.99432e-05
6.44781e-05
7.05184e-05
7.82051e-05
8.75545e-05
9.91599e-05
0.000113978
0.000133692
0.000161314
0.000201234
0.00026117
0.00035173
0.000490358
0.000705837
0.00104898
0.00161246
0.00257622
0.00432977
0.00815581
0.0164922
0.0456459
0.0424827
0.0261665
0.0236068
0.0426985
0.0581808
0.0567265
0.04221
0.0792526
0.153288
0.11879
0.0889879
4.94809e-05
4.70988e-05
4.47407e-05
4.27853e-05
4.15361e-05
4.27241e-05
4.54868e-05
3.9342e-05
3.9214e-05
3.9042e-05
3.87947e-05
3.84896e-05
3.82121e-05
3.80017e-05
3.78249e-05
3.76837e-05
3.75465e-05
3.73847e-05
3.72148e-05
3.71089e-05
3.68218e-05
3.81531e-05
4.30709e-05
5.79677e-05
9.3732e-05
0.000176219
0.00036154
0.000771316
0.0020684
0.00454137
0.018513
0.0454485
0.076644
0.118199
0.197132
0.270626
0.27153
0.18169
0.114252
0.129196
0.168703
0.103798
3.94487e-05
3.96276e-05
3.97941e-05
3.99746e-05
4.00575e-05
3.99393e-05
4.03346e-05
4.03464e-05
4.03763e-05
4.04219e-05
4.04762e-05
4.05205e-05
4.05489e-05
4.05762e-05
4.06135e-05
4.06668e-05
4.07391e-05
4.08302e-05
4.0938e-05
4.10797e-05
4.11661e-05
4.16445e-05
4.06618e-05
3.73429e-05
2.07392e-05
3.11591e-05
2.32627e-05
0.000110098
0.000186866
0.00165102
0.0120363
0.0367836
0.0904033
0.208729
0.324163
0.317979
0.162741
0.10065
0.196124
0.177167
0.0771397
4.03298e-05
4.03261e-05
4.02908e-05
4.02545e-05
4.0219e-05
4.02322e-05
4.01954e-05
4.01848e-05
4.01831e-05
4.0199e-05
4.02302e-05
4.02646e-05
4.02916e-05
4.03114e-05
4.03316e-05
4.0355e-05
4.03828e-05
4.04157e-05
4.04556e-05
4.0505e-05
4.0569e-05
4.06607e-05
4.07397e-05
4.07284e-05
3.92518e-05
3.66008e-05
1.53537e-05
2.83592e-05
3.76429e-05
0.00038505
0.000975171
0.00723006
0.0344223
0.127731
0.263243
0.252548
0.0985104
0.0803641
0.214809
0.140913
0.0568308
4.0204e-05
4.02195e-05
4.02202e-05
4.02203e-05
4.0207e-05
4.01992e-05
4.02012e-05
4.0213e-05
4.02363e-05
4.0265e-05
4.02889e-05
4.03041e-05
4.03166e-05
4.03316e-05
4.03498e-05
4.03695e-05
4.03895e-05
4.04089e-05
4.04266e-05
4.04453e-05
4.04672e-05
4.0494e-05
4.05317e-05
4.05165e-05
4.04131e-05
3.77705e-05
3.0255e-05
8.69925e-06
0
0.00020777
0.000127543
0.00382465
0.0425401
0.122164
0.114854
0.0309185
0.0647356
0.200385
0.101631
0.0521611
4.02039e-05
4.02207e-05
4.02262e-05
4.0225e-05
4.02109e-05
4.01885e-05
4.01915e-05
4.02045e-05
4.02292e-05
4.02571e-05
4.02791e-05
4.02946e-05
4.03105e-05
4.0331e-05
4.03557e-05
4.03834e-05
4.04137e-05
4.04467e-05
4.04834e-05
4.05248e-05
4.0572e-05
4.06272e-05
4.06861e-05
4.07456e-05
4.08603e-05
4.10612e-05
4.08248e-05
3.65636e-05
8.37648e-06
0
2.6637e-05
0.00105203
0.00587107
0.0256622
0.0226797
0.00928123
0.0537743
0.168663
0.0775108
0.0623241
4.01925e-05
4.02089e-05
4.0216e-05
4.02144e-05
4.01854e-05
4.01891e-05
4.02019e-05
4.02263e-05
4.02527e-05
4.02729e-05
4.02886e-05
4.03059e-05
4.03273e-05
4.03514e-05
4.03771e-05
4.04039e-05
4.04317e-05
4.04605e-05
4.04903e-05
4.05213e-05
4.05525e-05
4.05855e-05
4.0631e-05
4.06781e-05
4.08534e-05
4.07861e-05
4.35579e-05
3.30605e-05
7.07146e-06
0
0
0.00130083
0.00114065
0.00113683
0.00152508
0.0477216
0.136389
0.070469
0.0834436
4.0187e-05
4.02005e-05
4.02073e-05
4.02047e-05
4.01813e-05
4.01857e-05
4.01986e-05
4.02224e-05
4.02474e-05
4.02663e-05
4.02819e-05
4.02999e-05
4.03213e-05
4.03446e-05
4.03693e-05
4.03954e-05
4.04229e-05
4.04519e-05
4.04824e-05
4.05148e-05
4.05497e-05
4.05866e-05
4.06235e-05
4.06563e-05
4.07369e-05
4.05901e-05
4.12027e-05
4.39087e-05
2.73519e-05
5.48599e-06
0
0
0.000245717
0.000248407
0.00151738
0.0466276
0.111448
0.0775108
0.114126
4.01814e-05
4.01923e-05
4.01976e-05
4.0194e-05
4.01769e-05
4.01815e-05
4.01946e-05
4.02175e-05
4.02411e-05
4.02585e-05
4.02739e-05
4.02915e-05
4.03112e-05
4.03322e-05
4.03542e-05
4.03773e-05
4.04015e-05
4.04271e-05
4.04541e-05
4.04821e-05
4.05118e-05
4.05429e-05
4.0576e-05
4.06116e-05
4.06626e-05
4.06939e-05
4.04558e-05
4.19161e-05
4.35629e-05
2.0811e-05
3.04303e-06
0
0
0
0.00160206
0.0471325
0.0968992
0.0977306
0.156014
4.01763e-05
4.01847e-05
4.01882e-05
4.02317e-05
4.02477e-05
4.02636e-05
4.0281e-05
4.02996e-05
4.03181e-05
4.03369e-05
4.03563e-05
4.0377e-05
4.03993e-05
4.04234e-05
4.04489e-05
4.04761e-05
4.05037e-05
4.05325e-05
4.05624e-05
4.06019e-05
4.06646e-05
4.0588e-05
4.05498e-05
4.28895e-05
4.16648e-05
1.01405e-05
2.8729e-06
0
0
0.00166332
0.0468698
0.0932464
0.130341
0.210221
4.02511e-05
4.02686e-05
4.02873e-05
4.03049e-05
4.03209e-05
4.03363e-05
4.03526e-05
4.0371e-05
4.03917e-05
4.04145e-05
4.04393e-05
4.04647e-05
4.04914e-05
4.05174e-05
4.05503e-05
4.06063e-05
4.05999e-05
4.05632e-05
4.10442e-05
4.304e-05
3.70656e-05
1.19985e-05
5.64565e-07
0
0.00170242
0.0459707
0.0978612
0.172855
0.275499
4.02728e-05
4.02913e-05
4.03063e-05
4.03192e-05
4.03317e-05
4.03458e-05
4.03626e-05
4.03823e-05
4.04047e-05
4.04283e-05
4.04539e-05
4.04795e-05
4.05057e-05
4.05659e-05
4.05321e-05
4.06451e-05
4.08671e-05
4.02774e-05
4.33514e-05
4.02814e-05
1.97107e-06
0
0.00176062
0.0455788
0.105735
0.224927
0.350447
4.02742e-05
4.02911e-05
4.03034e-05
4.03135e-05
4.0324e-05
4.03371e-05
4.03535e-05
4.03731e-05
4.03947e-05
4.04183e-05
4.04438e-05
4.04659e-05
4.05292e-05
4.04859e-05
4.0591e-05
4.1067e-05
3.90634e-05
4.25468e-05
4.98981e-05
2.53759e-06
0
0.00186012
0.0461882
0.11652
0.286836
0.434271
4.02735e-05
4.02871e-05
4.02966e-05
4.03052e-05
4.03156e-05
4.03289e-05
4.03454e-05
4.03649e-05
4.03864e-05
4.04109e-05
4.04308e-05
4.04916e-05
4.04576e-05
4.05303e-05
4.10971e-05
3.88112e-05
4.24829e-05
4.96969e-05
2.62525e-06
0
0.00195359
0.0465522
0.133315
0.352333
0.515104
4.02557e-05
4.02695e-05
4.02798e-05
4.02882e-05
4.02965e-05
4.03065e-05
4.03197e-05
4.03368e-05
4.03561e-05
4.0379e-05
4.03981e-05
4.04536e-05
4.0437e-05
4.04788e-05
4.10402e-05
3.87897e-05
4.30901e-05
4.76412e-05
2.61239e-06
0
0.00193724
0.0443218
0.152733
0.404065
0.567948
4.02511e-05
4.02632e-05
4.02717e-05
4.02786e-05
4.02861e-05
4.02965e-05
4.03113e-05
4.03284e-05
4.03498e-05
4.03681e-05
4.04179e-05
4.04209e-05
4.04159e-05
4.10089e-05
3.89315e-05
4.25127e-05
4.77019e-05
2.71367e-06
0
0.00180551
0.0396824
0.165393
0.423956
0.571812
4.02451e-05
4.02552e-05
4.02621e-05
4.02684e-05
4.02769e-05
4.02893e-05
4.03046e-05
4.03239e-05
4.03421e-05
4.03848e-05
4.0408e-05
4.03556e-05
4.09822e-05
3.91323e-05
4.13937e-05
4.90733e-05
2.89434e-06
0
0.00164286
0.0347054
0.165122
0.404984
0.525754
4.02276e-05
4.02382e-05
4.02458e-05
4.02523e-05
4.02596e-05
4.02699e-05
4.0283e-05
4.02997e-05
4.03183e-05
4.03513e-05
4.03951e-05
4.03108e-05
4.09015e-05
3.94817e-05
4.03299e-05
4.977e-05
6.74945e-06
0
0.00146366
0.0297349
0.151588
0.352751
0.443637
4.02215e-05
4.02306e-05
4.02372e-05
4.02436e-05
4.02522e-05
4.02636e-05
4.02778e-05
4.02964e-05
4.03198e-05
4.03779e-05
4.02828e-05
4.07797e-05
3.9921e-05
3.92917e-05
4.98604e-05
1.98701e-05
1.18082e-06
0.00117568
0.0229825
0.126979
0.280687
0.344329
4.02056e-05
4.02151e-05
4.02225e-05
4.02293e-05
4.0237e-05
4.02469e-05
4.02588e-05
4.02759e-05
4.02932e-05
4.03519e-05
4.02827e-05
4.06015e-05
4.03614e-05
3.85919e-05
4.96224e-05
2.85096e-05
1.75576e-06
0.000778345
0.0146492
0.0949834
0.203811
0.244762
4.02002e-05
4.0209e-05
4.02159e-05
4.0223e-05
4.02316e-05
4.02418e-05
4.02565e-05
4.02721e-05
4.03189e-05
4.03005e-05
4.04101e-05
4.07031e-05
3.83739e-05
4.67088e-05
3.8362e-05
2.44659e-06
0.000367971
0.00667179
0.0618882
0.134028
0.159376
4.01862e-05
4.01953e-05
4.02028e-05
4.02101e-05
4.02183e-05
4.02273e-05
4.0239e-05
4.02544e-05
4.02855e-05
4.03143e-05
4.02733e-05
4.0846e-05
3.87531e-05
4.31734e-05
4.62994e-05
4.34516e-06
6.84455e-05
0.00119625
0.0341317
0.0788476
0.0948451
4.01822e-05
4.01908e-05
4.0198e-05
4.02056e-05
4.02133e-05
4.02227e-05
4.02375e-05
4.02585e-05
4.03077e-05
4.02286e-05
4.07186e-05
3.95265e-05
4.02553e-05
4.9259e-05
7.08384e-06
4.55798e-07
0.00108516
0.0152652
0.040777
0.0510003
4.01704e-05
4.01787e-05
4.01859e-05
4.01932e-05
4.02005e-05
4.02089e-05
4.02223e-05
4.02396e-05
4.02835e-05
4.02465e-05
4.0464e-05
4.03236e-05
3.8639e-05
4.87069e-05
2.88424e-05
1.92116e-06
0.000301324
0.00521548
0.0180172
0.0243514
4.01593e-05
4.01674e-05
4.01746e-05
4.01819e-05
4.01888e-05
4.01964e-05
4.02081e-05
4.02247e-05
4.02561e-05
4.02676e-05
4.02858e-05
4.06668e-05
3.86927e-05
4.44e-05
4.19315e-05
3.94056e-06
6.58092e-05
0.00109858
0.00654968
0.0100801
4.01563e-05
4.01643e-05
4.01716e-05
4.0178e-05
4.01845e-05
4.01942e-05
4.02097e-05
4.02331e-05
4.02641e-05
4.02338e-05
4.05692e-05
3.95949e-05
4.04543e-05
4.82963e-05
5.86915e-06
3.94751e-07
0.000318114
0.00180296
0.00346932
4.01462e-05
4.0154e-05
4.01609e-05
4.01673e-05
4.01733e-05
4.01817e-05
4.01955e-05
4.02152e-05
4.02453e-05
4.02375e-05
4.03745e-05
4.02667e-05
3.9098e-05
4.6396e-05
3.17323e-05
2.20847e-06
1.94804e-05
0.000321958
0.000934914
4.01366e-05
4.01441e-05
4.0151e-05
4.01574e-05
4.01631e-05
4.01704e-05
4.01826e-05
4.02003e-05
4.0225e-05
4.02393e-05
4.02694e-05
4.04152e-05
3.94832e-05
4.22122e-05
4.40032e-05
8.24203e-06
3.35165e-07
5.34566e-06
0.000177679
4.01343e-05
4.01419e-05
4.01486e-05
4.01541e-05
4.01601e-05
4.01701e-05
4.0186e-05
4.0207e-05
4.02286e-05
4.02373e-05
4.03404e-05
4.00378e-05
4.02133e-05
4.40685e-05
2.87938e-05
6.65718e-06
4.7396e-06
1.97005e-05
4.01256e-05
4.01328e-05
4.01394e-05
4.01449e-05
4.01501e-05
4.01586e-05
4.01725e-05
4.01913e-05
4.02127e-05
4.02255e-05
4.02666e-05
4.02462e-05
3.99745e-05
4.16103e-05
4.02096e-05
2.60502e-05
1.38565e-05
1.41764e-05
4.01172e-05
4.01241e-05
4.01306e-05
4.01359e-05
4.01408e-05
4.01483e-05
4.01608e-05
4.01778e-05
4.01973e-05
4.02137e-05
4.02311e-05
4.02595e-05
4.01325e-05
4.0453e-05
4.11849e-05
3.83532e-05
3.27284e-05
2.89825e-05
4.01154e-05
4.01222e-05
4.0128e-05
4.01329e-05
4.01393e-05
4.01501e-05
4.01654e-05
4.01832e-05
4.02001e-05
4.02133e-05
4.02334e-05
4.02125e-05
4.02164e-05
4.05759e-05
4.04319e-05
3.89832e-05
3.71191e-05
4.01076e-05
4.01142e-05
4.01199e-05
4.01247e-05
4.01307e-05
4.01401e-05
4.01537e-05
4.017e-05
4.01862e-05
4.01994e-05
4.02123e-05
4.02199e-05
4.02091e-05
4.0295e-05
4.04188e-05
4.02384e-05
3.97141e-05
4.01004e-05
4.01066e-05
4.0112e-05
4.01167e-05
4.01222e-05
4.01308e-05
4.01433e-05
4.01582e-05
4.01734e-05
4.01864e-05
4.01972e-05
4.02075e-05
4.02114e-05
4.02297e-05
4.02895e-05
4.03225e-05
4.00989e-05
4.01045e-05
4.01096e-05
4.0115e-05
4.01228e-05
4.01339e-05
4.01475e-05
4.01616e-05
4.01742e-05
4.01845e-05
4.0194e-05
4.0203e-05
4.02139e-05
4.02386e-05
4.02734e-05
4.00921e-05
4.00975e-05
4.01025e-05
4.01079e-05
4.0115e-05
4.01251e-05
4.01376e-05
4.01508e-05
4.01627e-05
4.01728e-05
4.01819e-05
4.01915e-05
4.02028e-05
4.02191e-05
4.02426e-05
4.0086e-05
4.00911e-05
4.00958e-05
4.01008e-05
4.01075e-05
4.01169e-05
4.01285e-05
4.01408e-05
4.01522e-05
4.01619e-05
4.01707e-05
4.01801e-05
4.01915e-05
4.02061e-05
4.02251e-05
4.00803e-05
4.00851e-05
4.00896e-05
4.00943e-05
4.01004e-05
4.01091e-05
4.01201e-05
4.01318e-05
4.01425e-05
4.01519e-05
4.01605e-05
4.01695e-05
4.01805e-05
4.01944e-05
4.02118e-05
4.0075e-05
4.00795e-05
4.00837e-05
4.0088e-05
4.00936e-05
4.01018e-05
4.01122e-05
4.01234e-05
4.01338e-05
4.01428e-05
4.0151e-05
4.01597e-05
4.01702e-05
4.01834e-05
4.01997e-05
4.0074e-05
4.0078e-05
4.00822e-05
4.00878e-05
4.00956e-05
4.01052e-05
4.01156e-05
4.01254e-05
4.01341e-05
4.0142e-05
4.01504e-05
4.01604e-05
4.0173e-05
4.01885e-05
4.00695e-05
4.0073e-05
4.0077e-05
4.00824e-05
4.00897e-05
4.00987e-05
4.01083e-05
4.01175e-05
4.01257e-05
4.01333e-05
4.01414e-05
4.0151e-05
4.0163e-05
4.01778e-05
4.00655e-05
4.00687e-05
4.00723e-05
4.00773e-05
4.00841e-05
4.00925e-05
4.01015e-05
4.01101e-05
4.01178e-05
4.0125e-05
4.01328e-05
4.01419e-05
4.01533e-05
4.01675e-05
4.0062e-05
4.0065e-05
4.00682e-05
4.00728e-05
4.0079e-05
4.00868e-05
4.00951e-05
4.01031e-05
4.01103e-05
4.01172e-05
4.01245e-05
4.01332e-05
4.01441e-05
4.01574e-05
4.00588e-05
4.00616e-05
4.00646e-05
4.00686e-05
4.00742e-05
4.00813e-05
4.00891e-05
4.00967e-05
4.01035e-05
4.011e-05
4.01169e-05
4.01251e-05
4.01353e-05
4.01479e-05
4.00583e-05
4.0061e-05
4.00648e-05
4.00701e-05
4.00767e-05
4.00838e-05
4.00907e-05
4.00971e-05
4.01031e-05
4.01096e-05
4.01173e-05
4.01269e-05
4.01387e-05
4.00553e-05
4.00578e-05
4.00614e-05
4.00664e-05
4.00725e-05
4.0079e-05
4.00853e-05
4.00911e-05
4.00967e-05
4.01027e-05
4.01098e-05
4.01188e-05
4.00525e-05
4.00549e-05
4.00583e-05
4.0063e-05
4.00686e-05
4.00746e-05
4.00804e-05
4.00857e-05
4.00908e-05
4.00962e-05
4.01028e-05
4.0111e-05
4.00494e-05
4.0052e-05
4.00553e-05
4.00597e-05
4.00649e-05
4.00705e-05
4.00758e-05
4.00808e-05
4.00854e-05
4.00904e-05
4.00963e-05
4.01038e-05
4.00462e-05
4.00489e-05
4.00523e-05
4.00565e-05
4.00614e-05
4.00666e-05
4.00717e-05
4.00763e-05
4.00806e-05
4.00851e-05
4.00904e-05
4.00972e-05
4.00455e-05
4.00487e-05
4.00529e-05
4.00579e-05
4.00631e-05
4.00679e-05
4.00722e-05
4.00761e-05
4.00802e-05
4.0085e-05
4.00911e-05
4.0042e-05
4.00451e-05
4.00493e-05
4.00544e-05
4.00596e-05
4.00643e-05
4.00684e-05
4.0072e-05
4.00757e-05
4.008e-05
4.00854e-05
4.00385e-05
4.00415e-05
4.00457e-05
4.00507e-05
4.00558e-05
4.00606e-05
4.00647e-05
4.00682e-05
4.00716e-05
4.00754e-05
4.00801e-05
4.00352e-05
4.0038e-05
4.00419e-05
4.00468e-05
4.00519e-05
4.00567e-05
4.00609e-05
4.00644e-05
4.00677e-05
4.00713e-05
4.00755e-05
4.00325e-05
4.00348e-05
4.00383e-05
4.00429e-05
4.00479e-05
4.00527e-05
4.00569e-05
4.00606e-05
4.00639e-05
4.00673e-05
4.00712e-05
4.00307e-05
4.00322e-05
4.00351e-05
4.00392e-05
4.00438e-05
4.00485e-05
4.00528e-05
4.00566e-05
4.006e-05
4.00634e-05
4.00301e-05
4.00307e-05
4.00328e-05
4.0036e-05
4.00401e-05
4.00444e-05
4.00485e-05
4.00523e-05
4.00558e-05
4.00592e-05
4.00306e-05
4.00314e-05
4.00337e-05
4.0037e-05
4.00407e-05
4.00444e-05
4.00479e-05
4.00514e-05
4.00548e-05
4.00319e-05
4.00317e-05
4.00328e-05
4.0035e-05
4.00378e-05
4.00408e-05
4.00438e-05
4.00469e-05
4.00502e-05
4.00349e-05
4.00337e-05
4.00337e-05
4.00347e-05
4.00363e-05
4.00382e-05
4.00404e-05
4.00428e-05
4.00457e-05
4.00382e-05
4.00367e-05
4.00358e-05
4.00358e-05
4.00362e-05
4.0037e-05
4.00381e-05
4.00396e-05
4.00416e-05
4.00407e-05
4.00396e-05
4.00385e-05
4.00378e-05
4.00374e-05
4.00371e-05
4.00371e-05
4.00375e-05
4.00385e-05
4.00414e-05
4.00412e-05
4.00404e-05
4.00397e-05
4.0039e-05
4.00381e-05
4.00372e-05
4.00366e-05
4.00403e-05
4.00411e-05
4.00412e-05
4.00409e-05
4.00404e-05
4.00394e-05
4.00382e-05
4.00369e-05
4.00378e-05
4.00396e-05
4.00405e-05
4.00408e-05
4.00408e-05
4.00403e-05
4.00393e-05
4.00378e-05
4.0037e-05
4.00385e-05
4.00395e-05
4.00402e-05
4.00404e-05
4.00401e-05
4.00392e-05
4.00339e-05
4.00358e-05
4.00372e-05
4.00384e-05
4.00393e-05
4.004e-05
4.00401e-05
4.00309e-05
4.00327e-05
4.00341e-05
4.00355e-05
4.0037e-05
4.00386e-05
4.00399e-05
4.0028e-05
4.00296e-05
4.00308e-05
4.00322e-05
4.00339e-05
4.00361e-05
4.00385e-05
4.00254e-05
4.00266e-05
4.00275e-05
4.00286e-05
4.00301e-05
4.00322e-05
4.00236e-05
4.00244e-05
4.0025e-05
4.00256e-05
4.00267e-05
4.00284e-05
4.00218e-05
4.00224e-05
4.00227e-05
4.0023e-05
4.00237e-05
4.00251e-05
4.00196e-05
4.00201e-05
4.00203e-05
4.00205e-05
4.0021e-05
4.00222e-05
4.00169e-05
4.00175e-05
4.00177e-05
4.00179e-05
4.00184e-05
4.00194e-05
4.00138e-05
4.00145e-05
4.00149e-05
4.00152e-05
4.00158e-05
4.00167e-05
4.00116e-05
4.00121e-05
4.00124e-05
4.00131e-05
4.0014e-05
4.00089e-05
4.00095e-05
4.001e-05
4.00108e-05
4.00116e-05
4.00062e-05
4.00067e-05
4.00072e-05
4.00078e-05
4.00086e-05
4.00051e-05
4.00053e-05
4.00056e-05
4.00063e-05
4.00045e-05
4.00048e-05
4.00053e-05
4.00061e-05
4.00139e-05
4.00131e-05
4.00121e-05
4.00113e-05
)
;

boundaryField
{
    inlet
    {
        type            freestream;
        freestreamValue uniform 4e-05;
        value           nonuniform List<scalar> 4(4.00139e-05 4.00131e-05 4.00121e-05 4.00113e-05);
    }
    outlet
    {
        type            freestream;
        freestreamValue nonuniform List<scalar> 0();
        value           nonuniform List<scalar> 0();
    }
    walls
    {
        type            fixedValue;
        value           uniform 0;
    }
    frontAndBack
    {
        type            empty;
    }
    procBoundary5to0
    {
        type            processor;
        value           nonuniform List<scalar> 4(4.01717e-05 4.01708e-05 4.01771e-05 4.01788e-05);
    }
    procBoundary5to1
    {
        type            processor;
        value           nonuniform List<scalar> 
13
(
4.94296e-05
3.97155e-05
3.97155e-05
4.02533e-05
4.01946e-05
4.01946e-05
4.02041e-05
4.02018e-05
4.02018e-05
4.01934e-05
4.01847e-05
4.01838e-05
4.01838e-05
)
;
    }
    procBoundary5to4
    {
        type            processor;
        value           nonuniform List<scalar> 
95
(
4.01757e-05
4.0189e-05
4.02108e-05
4.02108e-05
4.02215e-05
4.02356e-05
4.02356e-05
4.02388e-05
4.02548e-05
4.02548e-05
4.02574e-05
4.02574e-05
4.02574e-05
4.02574e-05
4.02434e-05
4.02393e-05
4.02393e-05
4.02335e-05
4.02335e-05
4.02188e-05
4.02116e-05
4.02116e-05
4.01978e-05
4.01911e-05
4.01911e-05
4.01789e-05
4.01736e-05
4.01736e-05
4.01628e-05
4.01527e-05
4.01486e-05
4.01486e-05
4.01394e-05
4.01306e-05
4.01274e-05
4.01274e-05
4.01194e-05
4.01117e-05
4.01092e-05
4.01092e-05
4.01021e-05
4.00953e-05
4.00934e-05
4.00934e-05
4.00872e-05
4.00814e-05
4.00761e-05
4.00713e-05
4.00702e-05
4.00702e-05
4.00661e-05
4.00624e-05
4.00592e-05
4.00562e-05
4.00558e-05
4.00558e-05
4.0053e-05
4.00501e-05
4.0047e-05
4.00437e-05
4.0043e-05
4.0043e-05
4.00395e-05
4.00361e-05
4.00332e-05
4.0031e-05
4.00299e-05
4.00301e-05
4.00309e-05
4.00309e-05
4.00331e-05
4.00364e-05
4.00394e-05
4.00409e-05
4.00405e-05
4.00385e-05
4.00356e-05
4.00348e-05
4.00348e-05
4.00318e-05
4.0029e-05
4.00262e-05
4.00239e-05
4.00224e-05
4.00208e-05
4.00186e-05
4.00159e-05
4.00129e-05
4.00109e-05
4.00109e-05
4.00081e-05
4.00056e-05
4.00049e-05
4.00042e-05
4.00145e-05
)
;
    }
    procBoundary5to6
    {
        type            processor;
        value           nonuniform List<scalar> 
86
(
0.0928685
0.0728591
0.050792
0.046448
0.0600139
0.0802199
0.106327
0.138643
0.17705
0.220742
0.26802
0.31469
0.357137
0.389081
0.405886
0.399605
0.36819
0.316016
0.251617
0.184526
0.124708
0.0774273
0.0435837
0.0215076
0.00947949
0.0035859
0.00112583
0.000281801
5.67833e-05
2.21467e-05
2.85451e-05
3.58939e-05
3.91277e-05
4.02488e-05
4.02488e-05
4.0292e-05
4.02685e-05
4.02481e-05
4.02326e-05
4.02193e-05
4.02071e-05
4.01955e-05
4.01844e-05
4.01735e-05
4.0163e-05
4.01529e-05
4.01299e-05
4.01299e-05
4.01214e-05
4.01133e-05
4.01058e-05
4.00988e-05
4.00923e-05
4.00863e-05
4.00809e-05
4.0076e-05
4.00671e-05
4.00671e-05
4.00629e-05
4.00585e-05
4.00538e-05
4.0049e-05
4.00444e-05
4.00404e-05
4.00366e-05
4.00366e-05
4.00359e-05
4.00363e-05
4.00377e-05
4.00394e-05
4.00408e-05
4.00407e-05
4.00349e-05
4.00349e-05
4.00309e-05
4.00275e-05
4.00243e-05
4.00212e-05
4.00183e-05
4.00154e-05
4.0013e-05
4.00097e-05
4.00068e-05
4.00068e-05
4.00063e-05
4.0011e-05
)
;
    }
}


// ************************************************************************* //
