/*--------------------------------*- C++ -*----------------------------------*\
| =========                 |                                                 |
| \\      /  F ield         | OpenFOAM: The Open Source CFD Toolbox           |
|  \\    /   O peration     | Version:  2306                                  |
|   \\  /    A nd           | Website:  www.openfoam.com                      |
|    \\/     M anipulation  |                                                 |
\*---------------------------------------------------------------------------*/
FoamFile
{
    version     2.0;
    format      ascii;
    arch        "LSB;label=32;scalar=64";
    class       volScalarField;
    location    "25";
    object      turbulenceProperties:k;
}
// * * * * * * * * * * * * * * * * * * * * * * * * * * * * * * * * * * * * * //

dimensions      [0 2 -2 0 0 0 0];

internalField   nonuniform List<scalar> 
1340
(
0.0091225
0.0107774
0.0129156
0.0158233
0.019511
0.0244284
0.0307955
0.0385933
0.0482072
0.0601577
0.0753501
0.0956709
0.124016
0.165393
0.226843
0.319809
0.462258
0.684297
1.03715
1.61029
2.57066
4.4295
7.63443
15.7209
8.4211
2.54478
0.456817
3.63398
6.41712
5.49519
3.26016
26.536
101.47
43.9397
36.4231
0.00762169
0.00638164
0.00508244
0.00404796
0.00342101
0.00354024
0.00434929
0.00252354
0.00251593
0.00247764
0.00240368
0.00231485
0.00221743
0.00209974
0.00195786
0.00180187
0.00163289
0.00145973
0.00129501
0.00114437
0.00100307
0.000953565
0.00106584
0.00166109
0.00344168
0.00834919
0.0230212
0.0699059
0.273109
0.863916
4.72675
13.7996
21.659
25.9133
31.8673
38.7898
38.6443
26.7091
13.9983
4.40568
49.8549
8.05412
0.00250551
0.00246263
0.00236823
0.00221853
0.00207176
0.00194335
0.00178208
0.0017373
0.00167264
0.00159342
0.00151762
0.00143176
0.00133449
0.00123488
0.00113521
0.00104317
0.000965871
0.000909432
0.000877337
0.00086633
0.000872707
0.000913246
0.000901706
0.000794149
0.000260262
0.000575797
0.000305531
0.00322249
0.00167514
0.0643362
1.32006
6.2044
18.8953
40.6277
51.6482
48.1791
18.2432
5.50995
23.2397
37.6406
3.03107
0.00181293
0.00181782
0.0017822
0.00170083
0.00161023
0.00153064
0.00138746
0.00137812
0.00136249
0.00134374
0.00132121
0.00128544
0.00123724
0.00117815
0.00111036
0.00103571
0.000957549
0.000881113
0.000811538
0.000750664
0.000697664
0.000648178
0.000587472
0.000516362
0.00041886
0.000327309
5.88078e-05
0.000227892
0.000491511
0.00973482
0.00620881
0.34982
4.11834
20.8985
43.579
34.5903
6.92919
0.772339
32.127
14.8735
1.72622
0.00138874
0.00138202
0.00135377
0.00130316
0.00125031
0.0010825
0.00107183
0.00105559
0.00103553
0.00101261
0.000979075
0.000936278
0.000887833
0.000834569
0.000777364
0.000717475
0.000657462
0.000600794
0.000550466
0.000508007
0.000475311
0.000454353
0.000439331
0.000418361
0.00038511
0.000300878
0.000169557
1.3437e-05
0
0.00441614
0.00135918
0.104958
3.18605
12.7687
9.30957
0.938037
1.65848
25.8619
5.45678
1.01351
0.0010856
0.00108146
0.00106082
0.00102465
0.0009898
0.00086501
0.000861009
0.000854252
0.000846896
0.000838702
0.000822565
0.000799899
0.000773219
0.000742042
0.000705943
0.000665029
0.00062053
0.000574626
0.00052926
0.000485329
0.000443523
0.000402152
0.000357278
0.000311533
0.000271348
0.000240286
0.000213329
0.000159821
8.24701e-06
0
0.00016401
0.0149708
0.0251193
0.612822
0.497774
0.162985
2.25247
16.5856
2.64065
1.02642
0.00086413
0.000859462
0.000844549
0.000819113
0.000702232
0.000700369
0.000696325
0.000692358
0.000687763
0.000675538
0.000658033
0.000637352
0.000612638
0.000583762
0.000551081
0.000515352
0.000478308
0.000441584
0.000406449
0.00037348
0.000343729
0.000317815
0.000294274
0.000271956
0.00025117
0.000227773
0.000233243
0.000126652
5.23192e-06
0
0
0.0227197
0.0219276
0.0260071
0.0340446
2.54313
9.87832
1.8398
1.25455
0.000700137
0.000695665
0.000684986
0.000666737
0.000577957
0.000578022
0.00057638
0.000574561
0.000573381
0.000566161
0.000554972
0.000541529
0.000525264
0.000506183
0.000484278
0.000459675
0.000433275
0.000405956
0.000378489
0.000351044
0.000324049
0.000295837
0.00026509
0.000233012
0.000201393
0.000171135
0.000155383
0.000162665
6.32667e-05
2.46421e-06
0
0
0.00500456
0.00542703
0.0326977
2.56741
6.02885
1.72895
1.4384
0.000575556
0.000571231
0.000563257
0.000549941
0.000481214
0.000481689
0.000481727
0.00048139
0.000480528
0.000476363
0.000469533
0.000461036
0.000449786
0.000435717
0.000419159
0.000399941
0.000378571
0.000355786
0.000332261
0.00030843
0.000284887
0.000261915
0.000239504
0.000217013
0.000192838
0.00016563
0.000137286
0.0001244
0.000118162
2.77163e-05
7.25448e-07
0
0
0
0.0318803
2.44452
4.24314
1.98272
1.63279
0.000478729
0.000474821
0.000468603
0.000406662
0.000403289
0.000398178
0.000393651
0.00038649
0.00037752
0.000365318
0.000350593
0.000333913
0.000315789
0.000296654
0.000276933
0.000257067
0.000237156
0.000216931
0.000197027
0.000178049
0.000158608
0.000136308
0.000113822
0.00010511
9.02936e-05
6.48367e-06
8.29235e-07
0
0
0.0340741
2.26215
3.75352
2.47985
2.66703
0.000340852
0.000336765
0.000330983
0.00032666
0.000318664
0.000307537
0.000294504
0.000280006
0.000264363
0.000247938
0.000231051
0.000214008
0.00019657
0.000178898
0.000161979
0.000146094
0.000130242
0.000113221
9.74797e-05
9.35474e-05
7.66136e-05
1.26629e-05
4.38571e-08
0
0.0367702
2.06926
3.91583
3.00626
4.21082
0.000286301
0.000280668
0.000277377
0.000269696
0.000259793
0.000248303
0.000235576
0.000221942
0.000207652
0.000193112
0.00017811
0.000162769
0.000147848
0.000133718
0.000120185
0.000108629
9.68469e-05
8.46245e-05
0.000100451
0.000125247
4.67366e-07
0
0.038654
1.91524
4.1529
3.85803
6.41072
0.000243922
0.000239782
0.000236634
0.000229015
0.000219983
0.000209757
0.000198591
0.000186578
0.000174199
0.000161253
0.00014795
0.000135156
0.000123066
0.000110976
0.000101323
9.44731e-05
8.05813e-05
9.63159e-05
0.000172737
7.12204e-07
0
0.0408358
1.85384
4.35875
5.97745
11.1673
0.000209031
0.000206703
0.00020168
0.000194976
0.000187002
0.000177965
0.00016794
0.000157429
0.000146259
0.000134573
0.00012333
0.000112933
0.00010247
9.3792e-05
8.90677e-05
7.72677e-05
9.4279e-05
0.000158339
7.1787e-07
0
0.042026
1.80894
4.837
10.1346
18.9583
0.000185339
0.000179662
0.000177926
0.000173294
0.000167064
0.000159688
0.000151324
0.000142352
0.000132725
0.000122565
0.00011264
0.000103526
9.45225e-05
8.66469e-05
8.2647e-05
7.23946e-05
9.24298e-05
0.000132297
6.53333e-07
0
0.0405868
1.60075
5.45917
15.0535
25.6904
0.000159159
0.000156136
0.000154143
0.000149141
0.000143122
0.000136183
0.000128561
0.000120271
0.00011145
0.000102702
9.47e-05
8.69651e-05
7.97613e-05
7.6323e-05
6.70095e-05
8.34315e-05
0.000118013
6.18061e-07
0
0.0367647
1.27342
5.67509
17.7304
26.9779
0.000137715
0.000136383
0.000132617
0.000127902
0.000122291
0.000115903
0.000108814
0.000101164
9.34466e-05
8.63745e-05
7.96797e-05
7.30478e-05
6.99689e-05
6.15092e-05
7.10103e-05
0.000109128
6.07715e-07
0
0.0313388
0.994472
5.31007
16.9678
23.1341
0.000123622
0.000119755
0.000118333
0.000114563
0.000109925
0.000104508
9.84525e-05
9.18144e-05
8.49944e-05
7.86655e-05
7.27738e-05
6.66285e-05
6.34257e-05
5.63843e-05
5.87688e-05
9.53881e-05
2.88563e-06
0
0.024427
0.773579
4.4833
13.4315
16.8709
0.000106685
0.0001055
0.000102384
9.86387e-05
9.41736e-05
8.90801e-05
8.33628e-05
7.7313e-05
7.15921e-05
6.62939e-05
6.05834e-05
5.69159e-05
5.13496e-05
4.76968e-05
7.77023e-05
2.12514e-05
1.30486e-07
0.0164131
0.530221
3.21943
8.48788
10.3006
9.6227e-05
9.29886e-05
9.17401e-05
8.8745e-05
8.49907e-05
8.06373e-05
7.56882e-05
7.03061e-05
6.51322e-05
6.02747e-05
5.50167e-05
5.06832e-05
4.6224e-05
3.88754e-05
5.93383e-05
3.44216e-05
2.61573e-07
0.00927462
0.295456
1.87562
3.84455
4.64533
8.32693e-05
8.22257e-05
7.96475e-05
7.65105e-05
7.28871e-05
6.86728e-05
6.39337e-05
5.92847e-05
5.478e-05
4.9952e-05
4.50268e-05
4.10285e-05
3.20602e-05
3.93651e-05
4.38278e-05
4.42021e-07
0.00382728
0.12142
1.01032
1.04129
1.21525
7.54346e-05
7.28556e-05
7.1629e-05
6.903e-05
6.60104e-05
6.23941e-05
5.8235e-05
5.40571e-05
4.98634e-05
4.53958e-05
4.01836e-05
3.59896e-05
2.6856e-05
2.43521e-05
3.95898e-05
1.10499e-06
0.000477063
0.0195708
0.560299
0.64554
0.57
6.56014e-05
6.46508e-05
6.22438e-05
5.96361e-05
5.65545e-05
5.30049e-05
4.93184e-05
4.54914e-05
4.1354e-05
3.62378e-05
3.14171e-05
2.28358e-05
1.44543e-05
2.46513e-05
2.07859e-06
2.14145e-08
0.0149773
0.251293
0.524032
0.547901
5.94179e-05
5.78349e-05
5.59814e-05
5.38775e-05
5.12949e-05
4.82742e-05
4.5054e-05
4.16396e-05
3.78422e-05
3.30936e-05
2.77572e-05
1.98888e-05
8.19745e-06
1.20265e-05
2.16721e-05
2.93178e-07
0.00326424
0.0768799
0.253771
0.303458
5.34887e-05
5.17157e-05
5.07772e-05
4.90192e-05
4.68219e-05
4.42128e-05
4.13771e-05
3.83475e-05
3.48998e-05
3.06164e-05
2.52542e-05
1.80353e-05
5.62839e-06
7.53075e-06
2.84921e-05
9.06366e-07
0.000414938
0.0131807
0.0839314
0.119017
4.68645e-05
4.62765e-05
4.46488e-05
4.28183e-05
4.06382e-05
3.82017e-05
3.5567e-05
3.25188e-05
2.87499e-05
2.38613e-05
1.74712e-05
7.82972e-06
9.11641e-06
2.99619e-05
1.4824e-06
1.37466e-08
0.00295711
0.0191641
0.0353474
4.29202e-05
4.18979e-05
4.06711e-05
3.92259e-05
3.74615e-05
3.54151e-05
3.31814e-05
3.05787e-05
2.73811e-05
2.32715e-05
1.80274e-05
1.18539e-05
1.21679e-05
2.85588e-05
3.32436e-05
3.33115e-07
3.8467e-05
0.00274029
0.00793133
3.90369e-05
3.79102e-05
3.73004e-05
3.61299e-05
3.47122e-05
3.29998e-05
3.11318e-05
2.89819e-05
2.63881e-05
2.31522e-05
1.91966e-05
1.55215e-05
1.59276e-05
2.60877e-05
5.27682e-05
3.72283e-06
9.10683e-09
2.77411e-06
0.00122515
3.46414e-05
3.42698e-05
3.32419e-05
3.21258e-05
3.07529e-05
2.92674e-05
2.75879e-05
2.56062e-05
2.32129e-05
2.04634e-05
1.83656e-05
1.93703e-05
2.56156e-05
4.83463e-05
3.70502e-05
2.92883e-06
1.78997e-06
3.20075e-05
3.18674e-05
3.12392e-05
3.04892e-05
2.96477e-05
2.85922e-05
2.74905e-05
2.62877e-05
2.49009e-05
2.32647e-05
2.15077e-05
2.04336e-05
2.18231e-05
2.66034e-05
4.09308e-05
5.98242e-05
3.6747e-05
1.27279e-05
1.40978e-05
2.91079e-05
2.84027e-05
2.80948e-05
2.74527e-05
2.66744e-05
2.58938e-05
2.50967e-05
2.42198e-05
2.32101e-05
2.22069e-05
2.18237e-05
2.33284e-05
2.7499e-05
3.69094e-05
5.47101e-05
6.518e-05
5.81806e-05
4.93163e-05
2.61058e-05
2.60258e-05
2.54646e-05
2.49423e-05
2.44408e-05
2.39803e-05
2.35163e-05
2.29959e-05
2.25392e-05
2.26143e-05
2.41106e-05
2.77541e-05
3.47371e-05
4.7307e-05
6.15618e-05
6.88207e-05
6.78289e-05
2.42329e-05
2.39704e-05
2.36089e-05
2.32994e-05
2.30378e-05
2.28613e-05
2.27289e-05
2.25838e-05
2.25172e-05
2.28877e-05
2.43269e-05
2.74438e-05
3.29548e-05
4.1978e-05
5.32989e-05
6.25185e-05
6.62374e-05
2.22885e-05
2.19857e-05
2.19304e-05
2.17766e-05
2.17066e-05
2.17426e-05
2.18512e-05
2.19782e-05
2.21848e-05
2.274e-05
2.4099e-05
2.67377e-05
3.11457e-05
3.78891e-05
4.63552e-05
5.41335e-05
2.02996e-05
2.04023e-05
2.03043e-05
2.0387e-05
2.05831e-05
2.08659e-05
2.1184e-05
2.15774e-05
2.22435e-05
2.35108e-05
2.57376e-05
2.9268e-05
3.4411e-05
4.07779e-05
4.68808e-05
1.88491e-05
1.88664e-05
1.88794e-05
1.90586e-05
1.93708e-05
1.9786e-05
2.02427e-05
2.076e-05
2.14814e-05
2.26471e-05
2.45219e-05
2.73473e-05
3.12969e-05
3.61191e-05
4.08356e-05
1.732e-05
1.74423e-05
1.75369e-05
1.77683e-05
1.81448e-05
1.86409e-05
1.91872e-05
1.97785e-05
2.05171e-05
2.15767e-05
2.31517e-05
2.54119e-05
2.84583e-05
3.21189e-05
3.57591e-05
1.58983e-05
1.60587e-05
1.62077e-05
1.64859e-05
1.6906e-05
1.74481e-05
1.80423e-05
1.86689e-05
1.93991e-05
2.03566e-05
2.16817e-05
2.34936e-05
2.58521e-05
2.86391e-05
3.14366e-05
1.45747e-05
1.46682e-05
1.49352e-05
1.52306e-05
1.56895e-05
1.62602e-05
1.68683e-05
1.7495e-05
1.81924e-05
1.90496e-05
2.01653e-05
2.16235e-05
2.34592e-05
2.55882e-05
2.77356e-05
1.34643e-05
1.37819e-05
1.40412e-05
1.45172e-05
1.50877e-05
1.56861e-05
1.62934e-05
1.69455e-05
1.77075e-05
1.86492e-05
1.98277e-05
2.12645e-05
2.28975e-05
2.45344e-05
1.24166e-05
1.26512e-05
1.29246e-05
1.33903e-05
1.39436e-05
1.45227e-05
1.50992e-05
1.56996e-05
1.63721e-05
1.7166e-05
1.81216e-05
1.92506e-05
2.04934e-05
2.17525e-05
1.13506e-05
1.16223e-05
1.19055e-05
1.23441e-05
1.28596e-05
1.33968e-05
1.39287e-05
1.44738e-05
1.5064e-05
1.57333e-05
1.65085e-05
1.73847e-05
1.83482e-05
1.93096e-05
1.03958e-05
1.0646e-05
1.09309e-05
1.13447e-05
1.18177e-05
1.23057e-05
1.27869e-05
1.32727e-05
1.37877e-05
1.43515e-05
1.49755e-05
1.56696e-05
1.64105e-05
1.71469e-05
9.50548e-06
9.69302e-06
9.99575e-06
1.03745e-05
1.0813e-05
1.12576e-05
1.16855e-05
1.21118e-05
1.25559e-05
1.30274e-05
1.35345e-05
1.40801e-05
1.4659e-05
1.52217e-05
8.83707e-06
9.13737e-06
9.44817e-06
9.85703e-06
1.02558e-05
1.06303e-05
1.10004e-05
1.13781e-05
1.17696e-05
1.21808e-05
1.26168e-05
1.3066e-05
1.35036e-05
8.0616e-06
8.2918e-06
8.58022e-06
8.94564e-06
9.30045e-06
9.63196e-06
9.95053e-06
1.0268e-05
1.05914e-05
1.09267e-05
1.12798e-05
1.16364e-05
7.30339e-06
7.51379e-06
7.77258e-06
8.09818e-06
8.41261e-06
8.70022e-06
8.96977e-06
9.23463e-06
9.50175e-06
9.77813e-06
1.00639e-05
1.03572e-05
6.60818e-06
6.78808e-06
7.01953e-06
7.31283e-06
7.59079e-06
7.83772e-06
8.06569e-06
8.28604e-06
8.50854e-06
8.73582e-06
8.97011e-06
9.20524e-06
5.97845e-06
6.11947e-06
6.32635e-06
6.58087e-06
6.82745e-06
7.04546e-06
7.2418e-06
7.42925e-06
7.61293e-06
7.79838e-06
7.98585e-06
8.17518e-06
5.52449e-06
5.70689e-06
5.91342e-06
6.13545e-06
6.32756e-06
6.49695e-06
6.65441e-06
6.80635e-06
6.95543e-06
7.10673e-06
7.25649e-06
4.98955e-06
5.13171e-06
5.31267e-06
5.50794e-06
5.67602e-06
5.82217e-06
5.95523e-06
6.07974e-06
6.20174e-06
6.32225e-06
6.44163e-06
4.49216e-06
4.61304e-06
4.7738e-06
4.94524e-06
5.08992e-06
5.21278e-06
5.32319e-06
5.42525e-06
5.52528e-06
5.62625e-06
5.72161e-06
4.04693e-06
4.14755e-06
4.2875e-06
4.43542e-06
4.55842e-06
4.66196e-06
4.75218e-06
4.83776e-06
4.92347e-06
5.00603e-06
5.08614e-06
3.64296e-06
3.72586e-06
3.8458e-06
3.97348e-06
4.07921e-06
4.16646e-06
4.24405e-06
4.31762e-06
4.38851e-06
4.45844e-06
4.52901e-06
3.27622e-06
3.34191e-06
3.44733e-06
3.5606e-06
3.65375e-06
3.72964e-06
3.79637e-06
3.85765e-06
3.91785e-06
3.97663e-06
2.94796e-06
3.00245e-06
3.09026e-06
3.18895e-06
3.27319e-06
3.34146e-06
3.39946e-06
3.45173e-06
3.49977e-06
3.54875e-06
2.69448e-06
2.768e-06
2.85676e-06
2.93419e-06
2.99478e-06
3.04483e-06
3.08762e-06
3.12727e-06
3.16544e-06
2.41555e-06
2.47875e-06
2.5588e-06
2.62793e-06
2.68161e-06
2.7246e-06
2.76026e-06
2.79251e-06
2.82402e-06
2.16198e-06
2.2165e-06
2.28962e-06
2.35214e-06
2.39941e-06
2.43596e-06
2.46664e-06
2.4942e-06
2.52028e-06
1.93401e-06
1.97986e-06
2.04584e-06
2.10188e-06
2.14393e-06
2.17702e-06
2.20343e-06
2.22653e-06
2.24702e-06
1.72941e-06
1.76627e-06
1.82405e-06
1.874e-06
1.91301e-06
1.94257e-06
1.96545e-06
1.98425e-06
2.00075e-06
1.54546e-06
1.5738e-06
1.6231e-06
1.66678e-06
1.70115e-06
1.72803e-06
1.74838e-06
1.76386e-06
1.3851e-06
1.40295e-06
1.44255e-06
1.47845e-06
1.50795e-06
1.53063e-06
1.54818e-06
1.56168e-06
1.24189e-06
1.25175e-06
1.2822e-06
1.31067e-06
1.33319e-06
1.35036e-06
1.36445e-06
1.37634e-06
1.119e-06
1.13804e-06
1.16431e-06
1.18071e-06
1.19215e-06
1.20149e-06
1.21014e-06
1.004e-06
1.01711e-06
1.03767e-06
1.04944e-06
1.05552e-06
1.05971e-06
1.06338e-06
9.05143e-07
9.1779e-07
9.37657e-07
9.46986e-07
9.50441e-07
9.50858e-07
9.50759e-07
8.20303e-07
8.34747e-07
8.55602e-07
8.65367e-07
8.67285e-07
8.64382e-07
8.60993e-07
7.51627e-07
7.66336e-07
7.85751e-07
7.93511e-07
7.92377e-07
7.84314e-07
6.94727e-07
7.07992e-07
7.25332e-07
7.31352e-07
7.27677e-07
7.14068e-07
6.40764e-07
6.52628e-07
6.68294e-07
6.73818e-07
6.69591e-07
6.55e-07
5.87515e-07
5.96751e-07
6.10007e-07
6.15368e-07
6.12559e-07
6.00604e-07
5.36119e-07
5.41018e-07
5.50386e-07
5.53857e-07
5.51326e-07
5.41293e-07
4.89645e-07
4.93642e-07
5.00714e-07
5.03877e-07
5.03714e-07
4.99449e-07
4.2846e-07
4.33731e-07
4.34914e-07
4.33587e-07
4.26313e-07
4.20076e-07
4.27018e-07
4.30204e-07
4.33554e-07
4.39138e-07
3.33986e-07
3.37121e-07
3.41008e-07
3.41791e-07
3.29906e-07
4.38905e-07
4.53063e-07
4.54299e-07
4.60444e-07
3.8457e-07
3.95263e-07
4.10187e-07
4.18974e-07
6.65886e-07
7.09614e-07
6.97167e-07
6.72214e-07
)
;

boundaryField
{
    inlet
    {
        type            calculated;
        value           nonuniform List<scalar> 4(2.45617e-06 2.63053e-06 2.67877e-06 2.7215e-06);
    }
    outlet
    {
        type            calculated;
        value           nonuniform List<scalar> 0();
    }
    walls
    {
        type            calculated;
        value           uniform 0;
    }
    frontAndBack
    {
        type            empty;
    }
    procBoundary5to0
    {
        type            processor;
        value           nonuniform List<scalar> 4(0.000404638 0.000402177 0.000398764 0.000393765);
    }
    procBoundary5to1
    {
        type            processor;
        value           nonuniform List<scalar> 
13
(
0.00585433
0.00180175
0.00180175
0.00143397
0.00119403
0.00119403
0.000952013
0.000795411
0.000795411
0.000649628
0.000537536
0.000458572
0.000458572
)
;
    }
    procBoundary5to4
    {
        type            processor;
        value           nonuniform List<scalar> 
95
(
0.000405108
0.000405905
0.00040702
0.00040702
0.000347404
0.000344915
0.000344915
0.000294665
0.000291106
0.000291106
0.000250349
0.000250349
0.000215402
0.000215402
0.000188768
0.000163918
0.000163918
0.000142434
0.000142434
0.000126141
0.000110305
0.000110305
9.81697e-05
8.6171e-05
8.6171e-05
7.69705e-05
6.77413e-05
6.77413e-05
6.07263e-05
5.44628e-05
4.82885e-05
4.82885e-05
4.36487e-05
3.95347e-05
3.55222e-05
3.55222e-05
3.22745e-05
2.93236e-05
2.65869e-05
2.65869e-05
2.43143e-05
2.22581e-05
2.04368e-05
2.04368e-05
1.87303e-05
1.71453e-05
1.56746e-05
1.43145e-05
1.32956e-05
1.32956e-05
1.21334e-05
1.10788e-05
1.0118e-05
9.23475e-06
8.63545e-06
8.63545e-06
7.84306e-06
7.10758e-06
6.43613e-06
5.82156e-06
5.39362e-06
5.39362e-06
4.8708e-06
4.39671e-06
3.96923e-06
3.57961e-06
3.22586e-06
2.90271e-06
2.65027e-06
2.65027e-06
2.38125e-06
2.13603e-06
1.91612e-06
1.71809e-06
1.54171e-06
1.38693e-06
1.25072e-06
1.12026e-06
1.12026e-06
1.00933e-06
9.10476e-07
8.25031e-07
7.54696e-07
6.97822e-07
6.4382e-07
5.91241e-07
5.41274e-07
4.93316e-07
4.29551e-07
4.29551e-07
4.16162e-07
3.31269e-07
4.24891e-07
3.66367e-07
6.54404e-07
)
;
    }
    procBoundary5to6
    {
        type            processor;
        value           nonuniform List<scalar> 
86
(
38.9913
3.01801
1.7437
1.2122
1.41502
1.93272
2.71931
3.74038
4.95069
6.32692
7.73833
8.99024
10.4782
12.2523
13.6292
13.6902
12.1027
9.35914
6.25286
3.48001
1.63658
0.787816
0.43976
0.22274
0.0929944
0.0310074
0.00835084
0.00178208
0.000216703
3.24595e-05
4.63988e-05
6.27119e-05
6.43264e-05
5.86512e-05
5.86512e-05
5.09014e-05
4.41886e-05
3.84863e-05
3.36293e-05
2.94657e-05
2.58868e-05
2.28053e-05
2.01151e-05
1.77643e-05
1.56841e-05
1.38595e-05
1.19792e-05
1.19792e-05
1.06292e-05
9.42548e-06
8.35668e-06
7.40017e-06
6.55799e-06
5.81231e-06
5.16301e-06
4.59496e-06
4.03486e-06
4.03486e-06
3.59676e-06
3.2041e-06
2.85574e-06
2.5457e-06
2.26704e-06
2.01771e-06
1.77543e-06
1.77543e-06
1.57169e-06
1.38631e-06
1.21713e-06
1.06537e-06
9.50005e-07
8.57983e-07
7.67403e-07
7.67403e-07
6.91624e-07
6.29668e-07
5.76394e-07
5.18906e-07
4.80757e-07
4.08142e-07
4.22092e-07
3.20227e-07
4.83134e-07
4.83134e-07
4.00676e-07
8.59043e-07
)
;
    }
}


// ************************************************************************* //
