/*--------------------------------*- C++ -*----------------------------------*\
| =========                 |                                                 |
| \\      /  F ield         | OpenFOAM: The Open Source CFD Toolbox           |
|  \\    /   O peration     | Version:  2306                                  |
|   \\  /    A nd           | Website:  www.openfoam.com                      |
|    \\/     M anipulation  |                                                 |
\*---------------------------------------------------------------------------*/
FoamFile
{
    version     2.0;
    format      ascii;
    arch        "LSB;label=32;scalar=64";
    class       volScalarField;
    location    "25";
    object      turbulenceProperties:L;
}
// * * * * * * * * * * * * * * * * * * * * * * * * * * * * * * * * * * * * * //

dimensions      [0 1 0 0 0 0 0];

internalField   nonuniform List<scalar> 
1340
(
0.0023966
0.00224494
0.00209671
0.00195269
0.00183938
0.00175044
0.00169117
0.00166469
0.00166931
0.00170681
0.00178274
0.00190596
0.00208705
0.00234507
0.00269662
0.00316619
0.00379081
0.00463036
0.00578145
0.00741311
0.00986079
0.0141501
0.0217952
0.042037
0.0534561
0.0598948
0.127537
0.0817883
0.0838647
0.0883618
0.0853621
0.0561779
0.0555658
0.0654368
0.0538408
0.0025781
0.00277618
0.00307374
0.0034178
0.00370399
0.00365392
0.00333434
0.00429505
0.00430095
0.00433335
0.00439864
0.00448143
0.00457832
0.00470467
0.00487211
0.00507867
0.00533512
0.00564296
0.00599152
0.00637404
0.00680951
0.0069815
0.00666724
0.00591573
0.00592932
0.00704561
0.00870092
0.0106523
0.0144522
0.0178411
0.0310931
0.0446741
0.0601352
0.0847858
0.127513
0.158665
0.159494
0.128372
0.111505
0.224756
0.0872444
0.133551
0.004311
0.00434934
0.00443619
0.00458465
0.00474489
0.00489823
0.00511843
0.00518409
0.00528362
0.00541382
0.00554794
0.00571236
0.0059172
0.00615157
0.00641639
0.00669421
0.00695794
0.00717196
0.00730367
0.00735226
0.00732682
0.00717095
0.00720011
0.00765065
0.0154172
0.00915403
0.0136297
0.00713197
0.0166774
0.023768
0.0382529
0.053923
0.0759412
0.119575
0.164704
0.167278
0.139128
0.15657
0.148554
0.105445
0.161789
0.00507465
0.00506779
0.00511785
0.00523851
0.00538354
0.00552187
0.00579942
0.00581893
0.00585219
0.00589304
0.00594339
0.00602588
0.00614243
0.0062948
0.00648434
0.00671426
0.00698325
0.00728029
0.00758651
0.00788887
0.00818405
0.00849226
0.00892169
0.00951598
0.0105414
0.0119231
0.036899
0.0148525
0.00972407
0.0142503
0.0451903
0.0446364
0.0619367
0.102026
0.145609
0.156796
0.13665
0.333909
0.138384
0.133418
0.157945
0.00579683
0.00581105
0.00587138
0.00598431
0.00610934
0.00656575
0.00659834
0.00664905
0.00671343
0.0067893
0.00690489
0.00706113
0.00725138
0.0074794
0.00774997
0.00806723
0.00842768
0.0088165
0.00921103
0.00958856
0.00991329
0.0101399
0.0103125
0.0105675
0.0110121
0.0124284
0.0169659
0.101305
0
0.0114186
0.0126725
0.0431075
0.0870245
0.124835
0.137452
0.116567
0.183551
0.143881
0.158864
0.189191
0.0065564
0.00656914
0.00663279
0.00674884
0.00686645
0.00734478
0.00736186
0.00739109
0.00742343
0.00745997
0.00753308
0.00763927
0.00777017
0.00793201
0.00813265
0.00837951
0.00867524
0.00901565
0.00939475
0.00981151
0.0102644
0.0107807
0.011439
0.0122516
0.0131307
0.0139598
0.0148079
0.0170634
0.131739
0
0.0178065
0.031396
0.135264
0.119701
0.117379
0.0839461
0.130832
0.151225
0.174171
0.224627
0.00734857
0.0073687
0.00743357
0.00754808
0.00815168
0.00816256
0.00818641
0.00821017
0.00823792
0.00831243
0.00842249
0.00855831
0.00872957
0.00894326
0.00920505
0.00951926
0.00988152
0.0102848
0.0107207
0.0111845
0.0116592
0.012126
0.0126028
0.013111
0.0136477
0.0143295
0.0142779
0.0193356
0.179839
0
0
0.0315129
0.0281271
0.0257407
0.0301812
0.10927
0.158455
0.189706
0.272031
0.00816388
0.00819027
0.00825396
0.00836612
0.00898538
0.00898494
0.00899793
0.00901252
0.00902218
0.00907983
0.00917116
0.00928459
0.0094276
0.00960405
0.00981929
0.0100791
0.0103822
0.0107264
0.0111094
0.0115363
0.012008
0.0125684
0.0132783
0.0141637
0.0152376
0.0165249
0.0173654
0.0171207
0.0284572
0.297277
0
0
0.0126839
0.0123135
0.0306412
0.106259
0.165739
0.215249
0.347466
0.0090041
0.00903829
0.00910213
0.0092116
0.00984718
0.0098424
0.00984223
0.00984606
0.00985529
0.00989857
0.00997058
0.0100624
0.0101878
0.0103513
0.0105542
0.0108053
0.0111066
0.0114572
0.0118565
0.0123067
0.0128058
0.0133564
0.0139682
0.0146752
0.0155696
0.0168008
0.0184452
0.0194439
0.0200604
0.0471794
0.735222
0
0
0
0.0327632
0.110076
0.17177
0.253436
0.445829
0.00987269
0.00991338
0.00997899
0.0107128
0.0107579
0.010827
0.0108894
0.0109902
0.0111203
0.0113049
0.0115403
0.0118254
0.0121605
0.0125472
0.0129869
0.01348
0.0140352
0.0146757
0.0154001
0.0162013
0.0171677
0.018516
0.0202611
0.0212176
0.0228069
0.135294
0.707731
0
0
0.0329028
0.113789
0.175745
0.30223
0.470036
0.0117018
0.011773
0.0118757
0.0119544
0.0121038
0.0123212
0.0125913
0.0129135
0.0132906
0.0137243
0.0142177
0.0147737
0.0154159
0.0161601
0.0169843
0.0178857
0.0189427
0.0203153
0.0219165
0.0225024
0.0246352
0.0892533
6.90967
0
0.0324182
0.116693
0.180579
0.364031
0.490236
0.0127685
0.0128964
0.0129731
0.0131568
0.0134055
0.0137125
0.0140785
0.014505
0.0149964
0.0155514
0.0161939
0.0169407
0.0177758
0.0186937
0.0197168
0.0207436
0.0219793
0.0234859
0.0217398
0.0193052
1.13802
0
0.0326993
0.12026
0.189458
0.418145
0.505403
0.0138334
0.0139527
0.0140455
0.0142775
0.0145679
0.0149191
0.0153333
0.0158198
0.0163729
0.0170181
0.0177676
0.0185903
0.0194845
0.0205167
0.0214761
0.0222636
0.0240289
0.0221398
0.0171737
0.812532
0
0.0336116
0.123869
0.203792
0.428396
0.474523
0.0149434
0.0150276
0.0152139
0.0154734
0.0158002
0.0161968
0.0166737
0.0172219
0.0178682
0.0186287
0.01946
0.0203384
0.0213502
0.0223191
0.0229308
0.0245337
0.0223732
0.0179129
0.795697
0
0.0347971
0.126385
0.221341
0.404129
0.431981
0.0158693
0.0161184
0.0161971
0.0164124
0.0167159
0.0170979
0.0175644
0.0181101
0.018756
0.0195188
0.0203612
0.0212408
0.0222287
0.0232188
0.0238018
0.0253456
0.0226421
0.019342
0.83612
0
0.0351124
0.127916
0.238693
0.380279
0.409159
0.0171246
0.01729
0.0174016
0.0176912
0.0180597
0.0185144
0.0190558
0.0197022
0.0204679
0.0213225
0.0222071
0.0231738
0.0241974
0.0247665
0.0263472
0.0237854
0.0204866
0.84346
0
0.0343838
0.128405
0.253513
0.367647
0.401993
0.0184095
0.0184995
0.0187605
0.0191034
0.019537
0.0200686
0.0207126
0.0214822
0.0223524
0.0232513
0.0242094
0.0252821
0.0258651
0.0275048
0.0256998
0.0214875
0.823649
0
0.0338866
0.127078
0.261653
0.359
0.399141
0.0194299
0.0197415
0.01986
0.0201844
0.020606
0.0211337
0.0217744
0.0225485
0.0234365
0.0243625
0.0253315
0.0264699
0.0271617
0.0287385
0.0281853
0.0230902
0.247817
0
0.034196
0.123448
0.261417
0.351459
0.394392
0.0209152
0.0210326
0.0213506
0.0217524
0.0222624
0.0228905
0.023663
0.0245722
0.0255362
0.0265398
0.0277577
0.0286655
0.0301324
0.0312396
0.0255992
0.0548855
2.78164
0.0335091
0.115249
0.258411
0.351797
0.391752
0.0220218
0.0224024
0.0225546
0.0229323
0.0234336
0.0240583
0.0248329
0.0257667
0.0267714
0.0278321
0.0291281
0.0303659
0.0317825
0.034583
0.0292464
0.0381659
1.61167
0.0295116
0.0984095
0.253247
0.379555
0.414672
0.0236731
0.0238232
0.024206
0.0246976
0.0253044
0.0260697
0.0270194
0.0280596
0.0291929
0.0305701
0.0322051
0.0337571
0.0380778
0.0352706
0.032567
1.05037
0.021719
0.0699143
0.224827
0.479601
0.52791
0.0248715
0.0253083
0.0255244
0.0260008
0.0265892
0.0273493
0.0283097
0.0293841
0.0305965
0.0320684
0.0340823
0.0360536
0.0416125
0.0441249
0.035093
0.498647
0.0122558
0.0312239
0.166501
0.358341
0.458719
0.0266703
0.0268661
0.0273809
0.0279735
0.0287259
0.0296727
0.0307625
0.0320315
0.0335986
0.0358871
0.0385779
0.0451605
0.0568252
0.0452653
0.285072
10.8233
0.0323776
0.111194
0.205686
0.251589
0.0280232
0.0284045
0.0288712
0.0294299
0.0301621
0.0310919
0.0321846
0.0334791
0.0351214
0.0375544
0.0410219
0.0484493
0.0753135
0.0645739
0.0479638
1.45535
0.0192584
0.0686843
0.130597
0.161415
0.029535
0.0300374
0.0303141
0.0308533
0.0315693
0.0324879
0.0335833
0.0348857
0.0365703
0.0390456
0.0429928
0.0509114
0.0908939
0.0797325
0.0406304
0.578103
0.0127862
0.0349406
0.0825519
0.106691
0.0315532
0.0317535
0.0323275
0.0330116
0.0338859
0.0349504
0.0362228
0.0378839
0.0402928
0.0442258
0.0517166
0.0771314
0.0715787
0.0408055
0.370616
14.0414
0.0213612
0.0475567
0.0673806
0.0329707
0.0333709
0.0338709
0.0344895
0.0352928
0.0362986
0.0375014
0.039066
0.0412864
0.044783
0.0508938
0.0627505
0.0618383
0.0413394
0.0379753
1.27346
0.0411267
0.0224582
0.0383326
0.0345711
0.0350816
0.0353676
0.0359363
0.0366632
0.0376028
0.0387153
0.0401268
0.0420545
0.0448984
0.0493104
0.0548526
0.0540715
0.0424964
0.030071
0.197647
17.3661
0.283819
0.0185446
0.0366988
0.0368977
0.0374643
0.0381099
0.0389516
0.0399286
0.0411271
0.0426904
0.0448389
0.047757
0.0504199
0.0490697
0.0426831
0.0314245
0.0366981
0.247669
0.375169
0.0448789
0.0382622
0.0386455
0.0391183
0.03967
0.0403959
0.041198
0.0421309
0.0432896
0.0447877
0.0465822
0.0477943
0.046246
0.0418668
0.0338693
0.0279297
0.0378664
0.0831616
0.0781819
0.0400343
0.0405287
0.0407506
0.0412248
0.0418223
0.0424485
0.0431182
0.0438931
0.0448391
0.0458421
0.0462442
0.0447301
0.0411898
0.0355735
0.0292641
0.0267051
0.0285679
0.031759
0.0422735
0.0423388
0.0428033
0.0432494
0.0436914
0.0441097
0.0445439
0.0450464
0.0455019
0.0454272
0.0439966
0.0410056
0.0366533
0.0314293
0.0275437
0.0259993
0.0261811
0.0438761
0.0441162
0.044453
0.0447477
0.0450015
0.0451755
0.045308
0.0454545
0.0455229
0.045154
0.0437989
0.0412373
0.037631
0.0333471
0.0296011
0.0273226
0.0265229
0.0457494
0.0460638
0.0461223
0.0462852
0.0463602
0.0463224
0.0462082
0.0460756
0.0458617
0.0452994
0.0440044
0.0417774
0.0387086
0.0350964
0.0317334
0.0293669
0.0479381
0.0478177
0.0479334
0.0478365
0.0476087
0.0472859
0.0469305
0.0465018
0.0458013
0.0445505
0.0425804
0.0399304
0.0368264
0.033831
0.0315541
0.0497478
0.0497255
0.0497087
0.049475
0.0490752
0.0485584
0.0480085
0.0474077
0.0466058
0.0453912
0.0436222
0.041308
0.0386144
0.0359454
0.0338073
0.0518968
0.051715
0.0515757
0.0512392
0.0507054
0.050027
0.0493106
0.0485688
0.0476875
0.0465026
0.0448937
0.0428514
0.0404937
0.0381173
0.0361263
0.0541672
0.0538963
0.0536485
0.0531943
0.0525297
0.0517079
0.0508502
0.0499906
0.0490416
0.0478751
0.0463898
0.0445657
0.042485
0.0403659
0.0385291
0.0565728
0.0563927
0.0558868
0.0553424
0.0545276
0.0535628
0.0525894
0.0516398
0.0506413
0.0494894
0.0481016
0.0464521
0.0445984
0.0427037
0.0410184
0.0588593
0.0581775
0.0576383
0.0566859
0.0556046
0.0545345
0.0535095
0.0524706
0.0513299
0.0500179
0.0485093
0.0468426
0.0451423
0.0436116
0.0612917
0.0607213
0.0600759
0.0590225
0.0578403
0.0566763
0.0555845
0.0545121
0.0533816
0.0521332
0.0507407
0.0492311
0.0477159
0.0463156
0.064105
0.0633516
0.062594
0.0614724
0.0602282
0.0590091
0.0578723
0.0567729
0.0556504
0.0544545
0.0531612
0.0518051
0.0504274
0.0491572
0.0669839
0.0661922
0.0653244
0.0641223
0.0628265
0.061569
0.0604003
0.0592854
0.0581684
0.0570149
0.0558152
0.0545657
0.0533207
0.0521644
0.0700502
0.0693695
0.0683113
0.0670531
0.0656802
0.0643708
0.0631822
0.062061
0.0609542
0.0598417
0.0587106
0.0575626
0.0564155
0.0553641
0.072651
0.0714475
0.070263
0.0687909
0.0674411
0.0662433
0.06512
0.0640306
0.0629573
0.0618863
0.0608082
0.0597549
0.0587798
0.0760647
0.0750017
0.0737308
0.0722097
0.0708197
0.069591
0.0684686
0.0674026
0.0663662
0.0653407
0.0643106
0.0633184
0.0799152
0.0787887
0.0774664
0.0758936
0.0744625
0.0732221
0.0721142
0.0710731
0.0700676
0.0690708
0.0680839
0.0671139
0.0840134
0.082893
0.0815155
0.0798645
0.0783893
0.0771453
0.0760479
0.0750305
0.0740436
0.0730746
0.0721147
0.0711886
0.088327
0.0873037
0.0858648
0.0841886
0.0826549
0.0813668
0.0802568
0.0792385
0.0782772
0.0773415
0.076429
0.0755396
0.0918842
0.0904044
0.0888122
0.0871911
0.085858
0.084732
0.0837242
0.0827849
0.0818935
0.0810177
0.0801781
0.0966839
0.0953357
0.0936986
0.0920235
0.0906515
0.0895071
0.0885021
0.0875917
0.0867264
0.0858965
0.0850976
0.101895
0.100552
0.0988451
0.0971174
0.095728
0.0945938
0.0936083
0.0927241
0.0918815
0.0910538
0.0902926
0.107354
0.106044
0.104299
0.102546
0.101154
0.100025
0.099072
0.0981925
0.0973345
0.0965291
0.0957665
0.113149
0.111883
0.110126
0.108343
0.10693
0.105806
0.104835
0.103938
0.103096
0.102285
0.101485
0.119314
0.118135
0.116316
0.114451
0.112984
0.111829
0.110843
0.10996
0.109112
0.108303
0.125781
0.124635
0.122851
0.120936
0.119371
0.118146
0.117134
0.116245
0.115445
0.114646
0.131565
0.129806
0.127774
0.126077
0.124796
0.123767
0.122907
0.122126
0.121388
0.138954
0.137171
0.135008
0.133221
0.131881
0.130838
0.12999
0.129238
0.128516
0.146877
0.145059
0.142724
0.140815
0.139421
0.138371
0.137509
0.136748
0.136039
0.155293
0.153484
0.150989
0.148962
0.147494
0.146369
0.14549
0.144733
0.144072
0.164223
0.1625
0.159905
0.15776
0.156143
0.15495
0.154046
0.153314
0.152681
0.173722
0.172151
0.169516
0.16728
0.165581
0.164288
0.163329
0.16261
0.183502
0.182332
0.179812
0.177615
0.175869
0.174561
0.173569
0.172816
0.193794
0.193029
0.190724
0.188641
0.187041
0.185848
0.184886
0.184085
0.204158
0.202443
0.200147
0.198752
0.197796
0.197025
0.19632
0.215532
0.214139
0.212007
0.210815
0.210208
0.209792
0.20943
0.226996
0.225427
0.223026
0.221926
0.221523
0.221474
0.221486
0.238444
0.236373
0.233475
0.232154
0.231898
0.232288
0.232746
0.249098
0.246697
0.24363
0.242436
0.24261
0.243855
0.259098
0.256659
0.253573
0.252528
0.253165
0.255567
0.269786
0.267323
0.264172
0.263087
0.263916
0.26684
0.281746
0.279558
0.276503
0.275297
0.275927
0.27866
0.294941
0.293603
0.291093
0.29018
0.290845
0.293529
0.308618
0.307367
0.305189
0.30423
0.304279
0.305576
0.329918
0.327907
0.327461
0.327962
0.330748
0.333192
0.330473
0.329247
0.327973
0.325882
0.373672
0.371931
0.369806
0.369382
0.375977
0.325965
0.320832
0.320395
0.31825
0.348231
0.343488
0.337182
0.333629
0.264645
0.256361
0.258639
0.263396
)
;

boundaryField
{
    inlet
    {
        type            calculated;
        value           nonuniform List<scalar> 4(0.137796 0.13315 0.131946 0.130906);
    }
    outlet
    {
        type            calculated;
        value           nonuniform List<scalar> 0();
    }
    walls
    {
        type            calculated;
        value           uniform 0;
    }
    frontAndBack
    {
        type            empty;
    }
    procBoundary5to0
    {
        type            processor;
        value           nonuniform List<scalar> 4(0.0107385 0.0107713 0.0108174 0.0108859);
    }
    procBoundary5to1
    {
        type            processor;
        value           nonuniform List<scalar> 
13
(
0.00294062
0.00508542
0.00508542
0.00570516
0.00625153
0.00625153
0.00700131
0.00765955
0.00765955
0.00847541
0.00931715
0.0100875
0.0100875
)
;
    }
    procBoundary5to4
    {
        type            processor;
        value           nonuniform List<scalar> 
95
(
0.0107323
0.010722
0.0107077
0.0107077
0.0115903
0.0116324
0.0116324
0.0125853
0.0126623
0.0126623
0.0136543
0.0136543
0.0147203
0.0147203
0.0157241
0.0168738
0.0168738
0.0181015
0.0181015
0.0192347
0.0205688
0.0205688
0.0218026
0.0232708
0.0232708
0.0246218
0.0262453
0.0262453
0.0277193
0.0292694
0.0310841
0.0310841
0.032694
0.0343524
0.0362406
0.0362406
0.0380197
0.0398864
0.0418888
0.0418888
0.0438022
0.0457802
0.0477764
0.0477764
0.049905
0.0521602
0.0545519
0.0570844
0.0592311
0.0592311
0.0620026
0.0648863
0.0678969
0.0710693
0.073494
0.073494
0.0771169
0.0810083
0.0851286
0.0895088
0.0929919
0.0929919
0.097855
0.102995
0.108399
0.114146
0.120241
0.126758
0.132658
0.132658
0.139951
0.147767
0.156017
0.164763
0.173933
0.183381
0.193108
0.204042
0.204042
0.214961
0.226329
0.237759
0.248591
0.258522
0.269145
0.280857
0.293532
0.307468
0.329498
0.329498
0.334755
0.375201
0.331297
0.356776
0.266957
)
;
    }
    procBoundary5to6
    {
        type            processor;
        value           nonuniform List<scalar> 
86
(
0.0543068
0.153141
0.140452
0.154045
0.184222
0.210701
0.235443
0.261764
0.290558
0.320449
0.351814
0.383237
0.402866
0.405884
0.401456
0.394363
0.386456
0.37719
0.367427
0.361191
0.355956
0.318531
0.239986
0.166403
0.113508
0.0743593
0.0449859
0.0243759
0.0162028
0.0425698
0.0328627
0.0272633
0.0268957
0.0282095
0.0282095
0.0302832
0.0325008
0.0348242
0.0372532
0.0397973
0.0424585
0.0452353
0.0481642
0.0512512
0.0545432
0.0580216
0.0624068
0.0624068
0.0662506
0.0703531
0.0747158
0.0793969
0.0843402
0.0895862
0.0950518
0.100755
0.10752
0.10752
0.113879
0.120654
0.127801
0.135358
0.143436
0.152039
0.16208
0.16208
0.172265
0.183421
0.195755
0.209234
0.221575
0.233154
0.246528
0.246528
0.259681
0.272156
0.284453
0.299795
0.31146
0.338032
0.332398
0.381617
0.310688
0.310688
0.341161
0.232999
)
;
    }
}


// ************************************************************************* //
