/*--------------------------------*- C++ -*----------------------------------*\
| =========                 |                                                 |
| \\      /  F ield         | OpenFOAM: The Open Source CFD Toolbox           |
|  \\    /   O peration     | Version:  2306                                  |
|   \\  /    A nd           | Website:  www.openfoam.com                      |
|    \\/     M anipulation  |                                                 |
\*---------------------------------------------------------------------------*/
FoamFile
{
    version     2.0;
    format      ascii;
    arch        "LSB;label=32;scalar=64";
    class       volScalarField;
    location    "25";
    object      turbulenceProperties:nuEff;
}
// * * * * * * * * * * * * * * * * * * * * * * * * * * * * * * * * * * * * * //

dimensions      [0 2 -1 0 0 0 0];

internalField   nonuniform List<scalar> 
1340
(
2.45237e-05
2.65962e-05
2.9106e-05
3.25206e-05
3.76117e-05
4.48992e-05
5.47324e-05
6.71034e-05
8.25338e-05
0.000101791
0.000126276
0.00015864
0.000202768
0.000266026
0.000358861
0.000498874
0.00071512
0.00105866
0.00162232
0.00258617
0.00433975
0.0081658
0.0165022
0.0456559
0.0424927
0.0261765
0.0236168
0.0427085
0.0581908
0.0567365
0.04222
0.0792626
0.153298
0.1188
0.0889979
2.2513e-05
2.06422e-05
1.89546e-05
1.76817e-05
1.6929e-05
1.76438e-05
1.94706e-05
1.57202e-05
1.56542e-05
1.55661e-05
1.54411e-05
1.52893e-05
1.51536e-05
1.50522e-05
1.49681e-05
1.49015e-05
1.48373e-05
1.47623e-05
1.46845e-05
1.46363e-05
1.45075e-05
1.51251e-05
1.78604e-05
3.04295e-05
7.53357e-05
0.000175401
0.000368823
0.000780715
0.00207831
0.00455135
0.018523
0.0454585
0.076654
0.118209
0.197142
0.270636
0.27154
0.1817
0.114262
0.129206
0.168713
0.103808
1.57757e-05
1.58695e-05
1.59575e-05
1.6054e-05
1.60986e-05
1.6035e-05
1.62492e-05
1.62557e-05
1.62721e-05
1.62972e-05
1.63271e-05
1.63516e-05
1.63673e-05
1.63824e-05
1.64032e-05
1.64328e-05
1.64732e-05
1.65244e-05
1.65851e-05
1.66657e-05
1.6715e-05
1.69924e-05
1.643e-05
1.47431e-05
1.05043e-05
1.24284e-05
1.07904e-05
9.6815e-05
0.000187149
0.00166088
0.0120463
0.0367936
0.0904133
0.208739
0.324173
0.317989
0.162751
0.10066
0.196134
0.177177
0.0771497
1.62466e-05
1.62446e-05
1.62253e-05
1.62055e-05
1.61861e-05
1.61933e-05
1.61733e-05
1.61675e-05
1.61666e-05
1.61752e-05
1.61922e-05
1.6211e-05
1.62257e-05
1.62365e-05
1.62476e-05
1.62604e-05
1.62757e-05
1.62937e-05
1.63157e-05
1.6343e-05
1.63784e-05
1.64294e-05
1.64736e-05
1.64672e-05
1.56736e-05
1.44099e-05
1.01537e-05
1.16989e-05
1.48823e-05
0.000392651
0.000984794
0.00724005
0.0344323
0.127741
0.263253
0.252558
0.0985204
0.0803741
0.214819
0.140923
0.0568408
1.61779e-05
1.61864e-05
1.61868e-05
1.61868e-05
1.61796e-05
1.61753e-05
1.61764e-05
1.61828e-05
1.61955e-05
1.62112e-05
1.62242e-05
1.62326e-05
1.62394e-05
1.62476e-05
1.62575e-05
1.62684e-05
1.62793e-05
1.629e-05
1.62997e-05
1.631e-05
1.63221e-05
1.63369e-05
1.63578e-05
1.63493e-05
1.62923e-05
1.49423e-05
1.21729e-05
1.0016e-05
1e-05
0.000209797
0.000118778
0.00383463
0.0425501
0.122174
0.114864
0.0309285
0.0647456
0.200395
0.101641
0.0521711
1.61779e-05
1.6187e-05
1.619e-05
1.61894e-05
1.61817e-05
1.61695e-05
1.61712e-05
1.61782e-05
1.61917e-05
1.62069e-05
1.62189e-05
1.62273e-05
1.6236e-05
1.62473e-05
1.62608e-05
1.6276e-05
1.62926e-05
1.63108e-05
1.63311e-05
1.63539e-05
1.63801e-05
1.64108e-05
1.64436e-05
1.64769e-05
1.65413e-05
1.66551e-05
1.65213e-05
1.43936e-05
1.00137e-05
1e-05
1.1336e-05
0.00106171
0.00588106
0.0256722
0.0226897
0.00929122
0.0537843
0.168673
0.0775208
0.0623341
1.61717e-05
1.61806e-05
1.61845e-05
1.61836e-05
1.61678e-05
1.61699e-05
1.61768e-05
1.61901e-05
1.62044e-05
1.62155e-05
1.62241e-05
1.62335e-05
1.62452e-05
1.62584e-05
1.62725e-05
1.62873e-05
1.63025e-05
1.63184e-05
1.63349e-05
1.6352e-05
1.63693e-05
1.63876e-05
1.64129e-05
1.64391e-05
1.65374e-05
1.64996e-05
1.81709e-05
1.30317e-05
1.0007e-05
1e-05
1e-05
0.00131062
0.00115037
0.00114656
0.00153492
0.0477316
0.136399
0.070479
0.0834536
1.61687e-05
1.6176e-05
1.61797e-05
1.61783e-05
1.61656e-05
1.6168e-05
1.6175e-05
1.6188e-05
1.62016e-05
1.62119e-05
1.62204e-05
1.62302e-05
1.62419e-05
1.62547e-05
1.62683e-05
1.62826e-05
1.62977e-05
1.63137e-05
1.63305e-05
1.63484e-05
1.63677e-05
1.63882e-05
1.64087e-05
1.6427e-05
1.6472e-05
1.63901e-05
1.6736e-05
1.83989e-05
1.14792e-05
1.00025e-05
1e-05
1e-05
0.000249929
0.00025274
0.00152722
0.0466376
0.111458
0.0775208
0.114136
1.61657e-05
1.61716e-05
1.61745e-05
1.61725e-05
1.61632e-05
1.61657e-05
1.61728e-05
1.61853e-05
1.61981e-05
1.62076e-05
1.62161e-05
1.62256e-05
1.62364e-05
1.62479e-05
1.626e-05
1.62726e-05
1.62859e-05
1.63e-05
1.63149e-05
1.63304e-05
1.63467e-05
1.6364e-05
1.63823e-05
1.64021e-05
1.64305e-05
1.6448e-05
1.63158e-05
1.7153e-05
1.81741e-05
1.05112e-05
1.00002e-05
1e-05
1e-05
1e-05
0.00161192
0.0471425
0.0969092
0.0977406
0.156024
1.61629e-05
1.61675e-05
1.61693e-05
1.6193e-05
1.62017e-05
1.62104e-05
1.62199e-05
1.62301e-05
1.62402e-05
1.62505e-05
1.62611e-05
1.62725e-05
1.62848e-05
1.6298e-05
1.6312e-05
1.6327e-05
1.63423e-05
1.63582e-05
1.63748e-05
1.63967e-05
1.64316e-05
1.6389e-05
1.63678e-05
1.77467e-05
1.70043e-05
1.00295e-05
1.00002e-05
1e-05
1e-05
0.00167319
0.0468798
0.0932564
0.130351
0.210231
1.62036e-05
1.62131e-05
1.62234e-05
1.6233e-05
1.62417e-05
1.62501e-05
1.62591e-05
1.62692e-05
1.62806e-05
1.62931e-05
1.63067e-05
1.63207e-05
1.63355e-05
1.63498e-05
1.63681e-05
1.63992e-05
1.63956e-05
1.63752e-05
1.66454e-05
1.7841e-05
1.46167e-05
1.00576e-05
1e-05
1e-05
0.0017123
0.0459807
0.0978712
0.172865
0.275509
1.62154e-05
1.62255e-05
1.62337e-05
1.62408e-05
1.62477e-05
1.62554e-05
1.62646e-05
1.62754e-05
1.62877e-05
1.63007e-05
1.63148e-05
1.63289e-05
1.63434e-05
1.63767e-05
1.6358e-05
1.64207e-05
1.65451e-05
1.6218e-05
1.80384e-05
1.62201e-05
1e-05
1e-05
0.00177051
0.0455888
0.105745
0.224937
0.350457
1.62162e-05
1.62254e-05
1.62322e-05
1.62377e-05
1.62434e-05
1.62506e-05
1.62596e-05
1.62704e-05
1.62822e-05
1.62952e-05
1.63092e-05
1.63214e-05
1.63564e-05
1.63325e-05
1.63906e-05
1.66584e-05
1.55771e-05
1.75344e-05
2.28574e-05
1.00001e-05
1e-05
0.00187002
0.0461982
0.11653
0.286846
0.434281
1.62158e-05
1.62232e-05
1.62284e-05
1.62332e-05
1.62388e-05
1.62461e-05
1.62552e-05
1.62659e-05
1.62776e-05
1.62911e-05
1.63021e-05
1.63356e-05
1.63168e-05
1.6357e-05
1.66756e-05
1.54494e-05
1.74952e-05
2.26908e-05
1.00001e-05
1e-05
0.00196349
0.0465622
0.133325
0.352343
0.515114
1.62061e-05
1.62136e-05
1.62193e-05
1.62239e-05
1.62284e-05
1.62338e-05
1.62411e-05
1.62505e-05
1.6261e-05
1.62736e-05
1.62841e-05
1.63146e-05
1.63055e-05
1.63285e-05
1.66432e-05
1.54386e-05
1.78725e-05
2.10536e-05
1.00001e-05
1e-05
0.00194714
0.0443318
0.152743
0.404075
0.567958
1.62036e-05
1.62102e-05
1.62148e-05
1.62186e-05
1.62227e-05
1.62284e-05
1.62365e-05
1.62459e-05
1.62575e-05
1.62676e-05
1.62949e-05
1.62966e-05
1.62938e-05
1.66254e-05
1.551e-05
1.75134e-05
2.11002e-05
1.00002e-05
1e-05
0.0018154
0.0396924
0.165403
0.423966
0.571822
1.62003e-05
1.62059e-05
1.62096e-05
1.6213e-05
1.62177e-05
1.62245e-05
1.62328e-05
1.62434e-05
1.62533e-05
1.62768e-05
1.62895e-05
1.62607e-05
1.66102e-05
1.56122e-05
1.68461e-05
2.21813e-05
1.00002e-05
1e-05
0.00165273
0.0347154
0.165132
0.404994
0.525764
1.61908e-05
1.61966e-05
1.62007e-05
1.62043e-05
1.62082e-05
1.62138e-05
1.6221e-05
1.62301e-05
1.62403e-05
1.62584e-05
1.62824e-05
1.62362e-05
1.65646e-05
1.57929e-05
1.62466e-05
2.27512e-05
1.00058e-05
1e-05
0.00147349
0.0297449
0.151598
0.352761
0.443647
1.61875e-05
1.61924e-05
1.6196e-05
1.61995e-05
1.62042e-05
1.62104e-05
1.62182e-05
1.62283e-05
1.62411e-05
1.6273e-05
1.62209e-05
1.6496e-05
1.60253e-05
1.56942e-05
2.28261e-05
1.04262e-05
1e-05
0.00118542
0.0229925
0.126989
0.280697
0.344339
1.61788e-05
1.6184e-05
1.6188e-05
1.61917e-05
1.61959e-05
1.62013e-05
1.62078e-05
1.62171e-05
1.62266e-05
1.62587e-05
1.62208e-05
1.63965e-05
1.62639e-05
1.53399e-05
2.26293e-05
1.17336e-05
1e-05
0.000787754
0.0146592
0.0949934
0.203821
0.244772
1.61759e-05
1.61807e-05
1.61844e-05
1.61883e-05
1.6193e-05
1.61985e-05
1.62065e-05
1.62151e-05
1.62406e-05
1.62305e-05
1.62907e-05
1.64531e-05
1.52324e-05
2.03517e-05
1.52266e-05
1.00001e-05
0.000375346
0.00668178
0.0618982
0.134038
0.159386
1.61683e-05
1.61732e-05
1.61773e-05
1.61813e-05
1.61858e-05
1.61906e-05
1.6197e-05
1.62054e-05
1.62224e-05
1.62381e-05
1.62157e-05
1.65333e-05
1.54202e-05
1.79252e-05
2.00516e-05
1.0001e-05
4.23437e-05
0.001206
0.0341417
0.0788576
0.0948551
1.61661e-05
1.61708e-05
1.61747e-05
1.61788e-05
1.6183e-05
1.61881e-05
1.61962e-05
1.62076e-05
1.62345e-05
1.61914e-05
1.64618e-05
1.58164e-05
1.62059e-05
2.23319e-05
1.0007e-05
1e-05
0.00109485
0.0152752
0.040787
0.0510103
1.61597e-05
1.61642e-05
1.61681e-05
1.61721e-05
1.61761e-05
1.61806e-05
1.61879e-05
1.61973e-05
1.62213e-05
1.62011e-05
1.63204e-05
1.62432e-05
1.53633e-05
2.18871e-05
1.1812e-05
1e-05
0.000307433
0.00522547
0.0180271
0.0243614
1.61537e-05
1.61581e-05
1.6162e-05
1.61659e-05
1.61697e-05
1.61738e-05
1.61802e-05
1.61892e-05
1.62063e-05
1.62126e-05
1.62225e-05
1.64328e-05
1.539e-05
1.87246e-05
1.71621e-05
1.00007e-05
3.91736e-05
0.00110828
0.00655967
0.0100901
1.61521e-05
1.61564e-05
1.61603e-05
1.61638e-05
1.61673e-05
1.61726e-05
1.61811e-05
1.61938e-05
1.62107e-05
1.61941e-05
1.63786e-05
1.58522e-05
1.6315e-05
2.15621e-05
1.00033e-05
1e-05
0.000324617
0.00181285
0.00347929
1.61466e-05
1.61508e-05
1.61546e-05
1.6158e-05
1.61613e-05
1.61658e-05
1.61733e-05
1.6184e-05
1.62004e-05
1.61962e-05
1.62711e-05
1.62121e-05
1.55947e-05
2.01219e-05
1.26007e-05
1.00001e-05
1.03942e-05
0.000328541
0.000944505
1.61414e-05
1.61454e-05
1.61492e-05
1.61526e-05
1.61557e-05
1.61597e-05
1.61663e-05
1.61759e-05
1.61894e-05
1.61972e-05
1.62136e-05
1.62934e-05
1.57937e-05
1.73306e-05
1.8461e-05
1.00129e-05
1e-05
1.00023e-05
0.000177022
1.61401e-05
1.61442e-05
1.61479e-05
1.61509e-05
1.61541e-05
1.61595e-05
1.61681e-05
1.61796e-05
1.61913e-05
1.61961e-05
1.62524e-05
1.6088e-05
1.6183e-05
1.8504e-05
1.18004e-05
1.00055e-05
1.00014e-05
1.04121e-05
1.61354e-05
1.61393e-05
1.61429e-05
1.61459e-05
1.61487e-05
1.61533e-05
1.61608e-05
1.6171e-05
1.61827e-05
1.61896e-05
1.6212e-05
1.6201e-05
1.60539e-05
1.69724e-05
1.6181e-05
1.12261e-05
1.01022e-05
1.0112e-05
1.61309e-05
1.61346e-05
1.61381e-05
1.6141e-05
1.61436e-05
1.61477e-05
1.61545e-05
1.61637e-05
1.61743e-05
1.61832e-05
1.61927e-05
1.62082e-05
1.61391e-05
1.63143e-05
1.67258e-05
1.52223e-05
1.29197e-05
1.18458e-05
1.61299e-05
1.61336e-05
1.61367e-05
1.61393e-05
1.61428e-05
1.61487e-05
1.6157e-05
1.61666e-05
1.61758e-05
1.6183e-05
1.6194e-05
1.61826e-05
1.61847e-05
1.63822e-05
1.63026e-05
1.55362e-05
1.4641e-05
1.61257e-05
1.61292e-05
1.61323e-05
1.61349e-05
1.61381e-05
1.61433e-05
1.61507e-05
1.61595e-05
1.61683e-05
1.61754e-05
1.61825e-05
1.61866e-05
1.61807e-05
1.62275e-05
1.62954e-05
1.61967e-05
1.59151e-05
1.61218e-05
1.61251e-05
1.61281e-05
1.61306e-05
1.61336e-05
1.61382e-05
1.6145e-05
1.61531e-05
1.61613e-05
1.61684e-05
1.61742e-05
1.61798e-05
1.6182e-05
1.61919e-05
1.62246e-05
1.62426e-05
1.61209e-05
1.6124e-05
1.61267e-05
1.61297e-05
1.61339e-05
1.61399e-05
1.61473e-05
1.61549e-05
1.61617e-05
1.61673e-05
1.61725e-05
1.61774e-05
1.61833e-05
1.61968e-05
1.62158e-05
1.61173e-05
1.61202e-05
1.61229e-05
1.61258e-05
1.61297e-05
1.61352e-05
1.61419e-05
1.6149e-05
1.61555e-05
1.6161e-05
1.61659e-05
1.61711e-05
1.61773e-05
1.61861e-05
1.61989e-05
1.6114e-05
1.61167e-05
1.61193e-05
1.6122e-05
1.61256e-05
1.61307e-05
1.6137e-05
1.61437e-05
1.61498e-05
1.61551e-05
1.61599e-05
1.6165e-05
1.61712e-05
1.61791e-05
1.61895e-05
1.61109e-05
1.61135e-05
1.61159e-05
1.61185e-05
1.61218e-05
1.61265e-05
1.61324e-05
1.61387e-05
1.61446e-05
1.61497e-05
1.61543e-05
1.61592e-05
1.61652e-05
1.61727e-05
1.61822e-05
1.61081e-05
1.61105e-05
1.61128e-05
1.6115e-05
1.61181e-05
1.61225e-05
1.61282e-05
1.61342e-05
1.61398e-05
1.61447e-05
1.61492e-05
1.61539e-05
1.61596e-05
1.61667e-05
1.61756e-05
1.61075e-05
1.61097e-05
1.61119e-05
1.6115e-05
1.61191e-05
1.61244e-05
1.613e-05
1.61353e-05
1.614e-05
1.61443e-05
1.61489e-05
1.61543e-05
1.61611e-05
1.61695e-05
1.61051e-05
1.6107e-05
1.61091e-05
1.6112e-05
1.6116e-05
1.61208e-05
1.61261e-05
1.6131e-05
1.61354e-05
1.61396e-05
1.6144e-05
1.61492e-05
1.61557e-05
1.61637e-05
1.61029e-05
1.61047e-05
1.61066e-05
1.61093e-05
1.6113e-05
1.61175e-05
1.61224e-05
1.6127e-05
1.61312e-05
1.61351e-05
1.61393e-05
1.61442e-05
1.61504e-05
1.61581e-05
1.6101e-05
1.61026e-05
1.61044e-05
1.61068e-05
1.61102e-05
1.61144e-05
1.61189e-05
1.61232e-05
1.61271e-05
1.61309e-05
1.61348e-05
1.61395e-05
1.61454e-05
1.61527e-05
1.60993e-05
1.61008e-05
1.61024e-05
1.61046e-05
1.61076e-05
1.61115e-05
1.61157e-05
1.61198e-05
1.61234e-05
1.61269e-05
1.61307e-05
1.61351e-05
1.61406e-05
1.61475e-05
1.6099e-05
1.61005e-05
1.61025e-05
1.61054e-05
1.61089e-05
1.61128e-05
1.61165e-05
1.612e-05
1.61232e-05
1.61267e-05
1.61309e-05
1.61361e-05
1.61425e-05
1.60974e-05
1.60988e-05
1.61007e-05
1.61034e-05
1.61067e-05
1.61102e-05
1.61136e-05
1.61167e-05
1.61198e-05
1.6123e-05
1.61269e-05
1.61317e-05
1.60959e-05
1.60972e-05
1.6099e-05
1.61015e-05
1.61046e-05
1.61078e-05
1.61109e-05
1.61138e-05
1.61166e-05
1.61195e-05
1.61231e-05
1.61275e-05
1.60943e-05
1.60956e-05
1.60974e-05
1.60998e-05
1.61026e-05
1.61056e-05
1.61085e-05
1.61112e-05
1.61137e-05
1.61164e-05
1.61196e-05
1.61236e-05
1.60925e-05
1.6094e-05
1.60958e-05
1.60981e-05
1.61007e-05
1.61035e-05
1.61062e-05
1.61087e-05
1.61111e-05
1.61135e-05
1.61164e-05
1.612e-05
1.60921e-05
1.60938e-05
1.60961e-05
1.60988e-05
1.61016e-05
1.61042e-05
1.61065e-05
1.61087e-05
1.61109e-05
1.61135e-05
1.61167e-05
1.60903e-05
1.60919e-05
1.60942e-05
1.60969e-05
1.60997e-05
1.61023e-05
1.61045e-05
1.61064e-05
1.61084e-05
1.61107e-05
1.61136e-05
1.60884e-05
1.609e-05
1.60922e-05
1.60949e-05
1.60977e-05
1.61003e-05
1.61025e-05
1.61044e-05
1.61062e-05
1.61083e-05
1.61108e-05
1.60866e-05
1.60881e-05
1.60902e-05
1.60928e-05
1.60956e-05
1.60982e-05
1.61004e-05
1.61023e-05
1.61041e-05
1.6106e-05
1.61083e-05
1.60851e-05
1.60863e-05
1.60882e-05
1.60907e-05
1.60934e-05
1.6096e-05
1.60983e-05
1.61003e-05
1.61021e-05
1.61039e-05
1.6106e-05
1.60841e-05
1.6085e-05
1.60865e-05
1.60887e-05
1.60912e-05
1.60937e-05
1.6096e-05
1.60981e-05
1.60999e-05
1.61018e-05
1.60838e-05
1.60842e-05
1.60853e-05
1.6087e-05
1.60892e-05
1.60915e-05
1.60937e-05
1.60958e-05
1.60977e-05
1.60995e-05
1.60841e-05
1.60846e-05
1.60858e-05
1.60875e-05
1.60895e-05
1.60915e-05
1.60934e-05
1.60953e-05
1.60972e-05
1.60848e-05
1.60847e-05
1.60853e-05
1.60865e-05
1.6088e-05
1.60896e-05
1.60912e-05
1.60929e-05
1.60947e-05
1.60864e-05
1.60858e-05
1.60858e-05
1.60863e-05
1.60872e-05
1.60882e-05
1.60894e-05
1.60907e-05
1.60922e-05
1.60882e-05
1.60874e-05
1.60869e-05
1.60869e-05
1.60871e-05
1.60875e-05
1.60881e-05
1.60889e-05
1.609e-05
1.60895e-05
1.60889e-05
1.60883e-05
1.6088e-05
1.60877e-05
1.60876e-05
1.60876e-05
1.60878e-05
1.60884e-05
1.60899e-05
1.60898e-05
1.60894e-05
1.6089e-05
1.60886e-05
1.60881e-05
1.60877e-05
1.60874e-05
1.60893e-05
1.60898e-05
1.60898e-05
1.60897e-05
1.60894e-05
1.60888e-05
1.60882e-05
1.60875e-05
1.6088e-05
1.60889e-05
1.60894e-05
1.60896e-05
1.60896e-05
1.60893e-05
1.60888e-05
1.6088e-05
1.60875e-05
1.60884e-05
1.60889e-05
1.60893e-05
1.60894e-05
1.60892e-05
1.60887e-05
1.60859e-05
1.60869e-05
1.60877e-05
1.60883e-05
1.60888e-05
1.60891e-05
1.60892e-05
1.60843e-05
1.60852e-05
1.6086e-05
1.60867e-05
1.60875e-05
1.60884e-05
1.60891e-05
1.60827e-05
1.60835e-05
1.60842e-05
1.60849e-05
1.60859e-05
1.60871e-05
1.60883e-05
1.60813e-05
1.60819e-05
1.60824e-05
1.6083e-05
1.60838e-05
1.60849e-05
1.60803e-05
1.60808e-05
1.60811e-05
1.60814e-05
1.6082e-05
1.60829e-05
1.60794e-05
1.60797e-05
1.60798e-05
1.608e-05
1.60804e-05
1.60812e-05
1.60782e-05
1.60784e-05
1.60785e-05
1.60786e-05
1.60789e-05
1.60796e-05
1.60767e-05
1.6077e-05
1.60772e-05
1.60772e-05
1.60775e-05
1.60781e-05
1.60751e-05
1.60754e-05
1.60756e-05
1.60758e-05
1.60761e-05
1.60766e-05
1.60739e-05
1.60741e-05
1.60743e-05
1.60747e-05
1.60751e-05
1.60724e-05
1.60727e-05
1.6073e-05
1.60734e-05
1.60739e-05
1.6071e-05
1.60712e-05
1.60715e-05
1.60718e-05
1.60723e-05
1.60704e-05
1.60705e-05
1.60707e-05
1.6071e-05
1.607e-05
1.60702e-05
1.60705e-05
1.60709e-05
1.60751e-05
1.60747e-05
1.60742e-05
1.60737e-05
)
;

boundaryField
{
    inlet
    {
        type            calculated;
        value           nonuniform List<scalar> 4(1.60751e-05 1.60747e-05 1.60742e-05 1.60737e-05);
    }
    outlet
    {
        type            calculated;
        value           nonuniform List<scalar> 0();
    }
    walls
    {
        type            calculated;
        value           nonuniform List<scalar> 
42
(
0.00198046
0.00223029
0.00249101
0.00271969
0.0029404
0.00314513
0.00332235
0.0034737
0.00359767
0.00369106
0.00375879
0.00380485
0.00383139
0.00384589
0.00384162
0.00381501
0.00375963
0.00366779
0.00352466
0.00331488
0.00300758
0.0025625
0.00193044
0.00108579
9.60401e-05
1.48595e-05
0.000890514
0.00114883
0.00132744
0.00119974
0.000359729
0.000344122
4.87544e-05
0.00310911
0.00211417
0.00171961
0.0014278
0.00110419
0.000766956
0.000548695
0.000620897
0.000932971
)
;
    }
    frontAndBack
    {
        type            empty;
    }
    procBoundary5to0
    {
        type            processor;
        value           nonuniform List<scalar> 4(1.61604e-05 1.61599e-05 1.61633e-05 1.61643e-05);
    }
    procBoundary5to1
    {
        type            processor;
        value           nonuniform List<scalar> 
13
(
2.2471e-05
1.59159e-05
1.59159e-05
1.62048e-05
1.61729e-05
1.61729e-05
1.6178e-05
1.61767e-05
1.61767e-05
1.61722e-05
1.61675e-05
1.6167e-05
1.6167e-05
)
;
    }
    procBoundary5to4
    {
        type            processor;
        value           nonuniform List<scalar> 
95
(
1.61626e-05
1.61698e-05
1.61816e-05
1.61816e-05
1.61874e-05
1.61951e-05
1.61951e-05
1.61969e-05
1.62056e-05
1.62056e-05
1.6207e-05
1.6207e-05
1.6207e-05
1.6207e-05
1.61994e-05
1.61972e-05
1.61972e-05
1.6194e-05
1.6194e-05
1.6186e-05
1.61821e-05
1.61821e-05
1.61746e-05
1.6171e-05
1.6171e-05
1.61643e-05
1.61614e-05
1.61614e-05
1.61556e-05
1.61501e-05
1.61479e-05
1.61479e-05
1.61429e-05
1.61381e-05
1.61364e-05
1.61364e-05
1.6132e-05
1.61279e-05
1.61265e-05
1.61265e-05
1.61227e-05
1.6119e-05
1.6118e-05
1.6118e-05
1.61147e-05
1.61115e-05
1.61086e-05
1.6106e-05
1.61055e-05
1.61055e-05
1.61032e-05
1.61013e-05
1.60995e-05
1.60979e-05
1.60977e-05
1.60977e-05
1.60962e-05
1.60946e-05
1.60929e-05
1.60912e-05
1.60908e-05
1.60908e-05
1.60889e-05
1.60871e-05
1.60855e-05
1.60843e-05
1.60837e-05
1.60838e-05
1.60843e-05
1.60843e-05
1.60854e-05
1.60872e-05
1.60888e-05
1.60896e-05
1.60894e-05
1.60884e-05
1.60868e-05
1.60864e-05
1.60864e-05
1.60847e-05
1.60832e-05
1.60817e-05
1.60805e-05
1.60797e-05
1.60788e-05
1.60776e-05
1.60762e-05
1.60746e-05
1.60735e-05
1.60735e-05
1.6072e-05
1.60707e-05
1.60703e-05
1.60699e-05
1.60754e-05
)
;
    }
    procBoundary5to6
    {
        type            processor;
        value           nonuniform List<scalar> 
86
(
0.0928785
0.0728691
0.050802
0.046458
0.0600239
0.0802299
0.106337
0.138653
0.17706
0.220752
0.26803
0.3147
0.357147
0.389091
0.405896
0.399615
0.3682
0.316026
0.251627
0.184536
0.124718
0.0774373
0.0435937
0.0215176
0.00948948
0.00359587
0.00113555
0.000287365
2.9217e-05
1.06523e-05
1.17418e-05
1.41071e-05
1.56099e-05
1.62024e-05
1.62024e-05
1.62259e-05
1.62131e-05
1.62019e-05
1.61935e-05
1.61863e-05
1.61796e-05
1.61734e-05
1.61673e-05
1.61614e-05
1.61557e-05
1.61502e-05
1.61377e-05
1.61377e-05
1.61331e-05
1.61287e-05
1.61247e-05
1.61209e-05
1.61174e-05
1.61141e-05
1.61112e-05
1.61086e-05
1.61038e-05
1.61038e-05
1.61015e-05
1.60991e-05
1.60966e-05
1.6094e-05
1.60915e-05
1.60894e-05
1.60873e-05
1.60873e-05
1.6087e-05
1.60872e-05
1.60879e-05
1.60889e-05
1.60896e-05
1.60896e-05
1.60864e-05
1.60864e-05
1.60843e-05
1.60824e-05
1.60807e-05
1.60791e-05
1.60775e-05
1.60759e-05
1.60746e-05
1.60729e-05
1.60713e-05
1.60713e-05
1.6071e-05
1.60735e-05
)
;
    }
}


// ************************************************************************* //
