/*--------------------------------*- C++ -*----------------------------------*\
| =========                 |                                                 |
| \\      /  F ield         | OpenFOAM: The Open Source CFD Toolbox           |
|  \\    /   O peration     | Version:  2306                                  |
|   \\  /    A nd           | Website:  www.openfoam.com                      |
|    \\/     M anipulation  |                                                 |
\*---------------------------------------------------------------------------*/
FoamFile
{
    version     2.0;
    format      ascii;
    arch        "LSB;label=32;scalar=64";
    class       volScalarField;
    location    "25";
    object      turbulenceProperties:epsilon;
}
// * * * * * * * * * * * * * * * * * * * * * * * * * * * * * * * * * * * * * //

dimensions      [0 2 -3 0 0 0 0];

internalField   nonuniform List<scalar> 
1340
(
0.059739
0.0818935
0.115031
0.167492
0.24346
0.358406
0.52508
0.748369
1.04187
1.42047
1.90642
2.55116
3.43849
4.71304
6.58341
9.38598
13.6231
20.0879
30.0196
45.2935
68.681
108.257
159.033
243.651
75.117
11.137
0.397796
13.9176
31.8503
23.9547
11.3312
399.824
3022.59
731.384
670.866
0.0424091
0.030174
0.0193697
0.012382
0.00887651
0.00947263
0.0141351
0.00484984
0.00482132
0.00467644
0.00440227
0.00408365
0.00374757
0.00336048
0.0029217
0.00247467
0.00203222
0.00162398
0.00127807
0.000997965
0.000766595
0.000693041
0.000857583
0.00188045
0.00559543
0.0177922
0.0659644
0.285107
1.62275
7.39551
54.3076
188.55
275.429
255.649
231.817
250.194
247.495
176.685
77.1796
6.76067
662.99
28.123
0.0047802
0.00461698
0.00426882
0.00374519
0.0032656
0.00287388
0.0024151
0.0022952
0.00212743
0.00193052
0.00175104
0.00155837
0.00135376
0.00115913
0.000979509
0.000827013
0.000708892
0.000628347
0.000584643
0.000569884
0.000578188
0.000632393
0.000617932
0.000480658
4.47499e-05
0.000248012
6.43839e-05
0.00421463
0.000675512
0.112816
6.51489
47.0931
177.719
355.856
370.304
328.497
92.0277
13.5736
123.92
359.867
5.35954
0.00249946
0.00251298
0.00241563
0.00220023
0.00197218
0.00178198
0.00146429
0.00144468
0.0014121
0.00137346
0.00132772
0.00125672
0.00116419
0.0010556
0.000937589
0.000815715
0.000697214
0.00059031
0.00050073
0.000428387
0.000369984
0.000319301
0.00026225
0.000202609
0.000133625
8.16078e-05
2.00826e-06
3.80606e-05
0.000184134
0.0110751
0.00177889
0.761659
22.1726
153.867
324.646
213.195
21.9329
0.334015
216.223
70.6463
2.35949
0.00146697
0.00145278
0.00139399
0.00129171
0.00118909
0.000891327
0.000873853
0.000847551
0.000815604
0.000779869
0.000729036
0.000666676
0.000599458
0.000529673
0.000459535
0.000391442
0.000328685
0.000274456
0.000230393
0.000196215
0.000171763
0.000156942
0.000146725
0.000133057
0.000112769
6.90008e-05
2.13834e-05
7.98923e-08
0
0.00422312
0.000649738
0.129614
10.7379
60.057
33.9568
1.28066
1.91202
150.2
13.1844
0.886185
0.000896443
0.000889583
0.00085595
0.000798572
0.000745196
0.000569161
0.000563904
0.000555076
0.000545535
0.000535003
0.000514594
0.000486612
0.00045468
0.000418737
0.00037897
0.000336298
0.000292782
0.000251052
0.000212961
0.000179061
0.000149527
0.00012292
9.70069e-05
7.37468e-05
5.59351e-05
4.38425e-05
3.45752e-05
1.94566e-05
2.954e-08
0
1.93824e-05
0.00958685
0.00483627
0.658548
0.49163
0.128796
4.24576
73.3931
4.04829
0.760696
0.000568
0.000561864
0.000542527
0.000510341
0.000375107
0.000373118
0.000368813
0.000364607
0.000359768
0.000347079
0.000329316
0.000308932
0.000285427
0.000259143
0.000230929
0.000201946
0.000173948
0.000148255
0.000125594
0.000106039
8.98125e-05
7.67761e-05
6.58176e-05
5.62074e-05
4.79261e-05
3.94189e-05
4.09949e-05
1.21127e-05
1.09343e-08
0
0
0.0178565
0.018969
0.0267731
0.0341993
6.09866
32.1958
2.16151
0.848775
0.000372872
0.000368115
0.000356896
0.000338134
0.000254091
0.000254146
0.000252698
0.000251096
0.000250055
0.000243789
0.000234242
0.000223024
0.00020982
0.000194845
0.000178338
0.00016067
0.000142738
0.000125298
0.00010891
9.36824e-05
7.98231e-05
6.65243e-05
5.3411e-05
4.12641e-05
3.082e-05
2.22613e-05
1.83275e-05
1.99114e-05
2.9057e-06
2.13814e-09
0
0
0.00458647
0.00533511
0.0317068
6.3615
14.676
1.73547
0.815811
0.000251984
0.000248207
0.000241323
0.000230049
0.000176148
0.000176494
0.000176518
0.000176265
0.000175627
0.00017259
0.000167672
0.000161653
0.000153855
0.000144375
0.000133605
0.00012163
0.000108974
9.62465e-05
8.39351e-05
7.23229e-05
6.16997e-05
5.21475e-05
4.36024e-05
3.57951e-05
2.82614e-05
2.08479e-05
1.43296e-05
1.17254e-05
1.0521e-05
5.08197e-07
1.38092e-10
0
0
0
0.0285483
5.7053
8.36115
1.81012
0.768972
0.000174334
0.000171496
0.000167033
0.000125785
0.000123703
0.000120584
0.000117854
0.000113602
0.000108386
0.000101489
9.34696e-05
8.47841e-05
7.58273e-05
6.69131e-05
5.83096e-05
5.02413e-05
4.27576e-05
3.57736e-05
2.95084e-05
2.40957e-05
1.91187e-05
1.41227e-05
9.84821e-06
8.34556e-06
6.18162e-06
2.00509e-08
1.75318e-10
0
0
0.0314112
4.91318
6.79919
2.12315
1.52262
8.83647e-05
8.62556e-05
8.33162e-05
8.11515e-05
7.7225e-05
7.19244e-05
6.59553e-05
5.96192e-05
5.31421e-05
4.67418e-05
4.05896e-05
3.48207e-05
2.93757e-05
2.43301e-05
1.99445e-05
1.62228e-05
1.28933e-05
9.74421e-06
7.21577e-06
6.60693e-06
4.47285e-06
8.29576e-08
2.17416e-13
0
0.0357386
4.19141
7.05097
2.3528
2.89619
6.2341e-05
5.99104e-05
5.85119e-05
5.5315e-05
5.13263e-05
4.68854e-05
4.22011e-05
3.74562e-05
3.27868e-05
2.83549e-05
2.41192e-05
2.01422e-05
1.66179e-05
1.35916e-05
1.09804e-05
8.96839e-06
7.12518e-06
5.44651e-06
7.60957e-06
1.19305e-05
4.61325e-11
0
0.0381887
3.62157
7.33999
2.97785
5.27721
4.52512e-05
4.37268e-05
4.25854e-05
3.98865e-05
3.68018e-05
3.34591e-05
2.99907e-05
2.6471e-05
2.30741e-05
1.97712e-05
1.66427e-05
1.38883e-05
1.15132e-05
9.36312e-06
7.80353e-06
6.77716e-06
4.94651e-06
7.01543e-06
2.17218e-05
1.21547e-10
0
0.0403416
3.34833
7.33733
5.60545
12.9225
3.32314e-05
3.24947e-05
3.09341e-05
2.89113e-05
2.65944e-05
2.40855e-05
2.14478e-05
1.88464e-05
1.62661e-05
1.37701e-05
1.15648e-05
9.69609e-06
7.98312e-06
6.68736e-06
6.02341e-06
4.549e-06
6.72322e-06
1.82767e-05
1.25603e-10
0
0.0406832
3.16316
7.89741
13.1181
31.3991
2.61261e-05
2.45495e-05
2.40771e-05
2.28394e-05
2.12265e-05
1.93931e-05
1.74145e-05
1.54101e-05
1.33958e-05
1.14229e-05
9.64762e-06
8.14867e-06
6.79314e-06
5.70784e-06
5.18695e-06
3.99337e-06
6.44888e-06
1.29272e-05
1.03779e-10
0
0.0382647
2.6016
8.78076
25.2368
52.2932
1.92668e-05
1.85414e-05
1.80708e-05
1.69169e-05
1.55786e-05
1.41044e-05
1.25696e-05
1.10004e-05
9.44556e-06
8.02065e-06
6.81892e-06
5.75046e-06
4.83729e-06
4.42384e-06
3.421e-06
5.26461e-06
1.02827e-05
9.46584e-11
0
0.0336879
1.83889
8.76276
33.3678
57.2764
1.44249e-05
1.41469e-05
1.33764e-05
1.24419e-05
1.1374e-05
1.02166e-05
9.0048e-06
7.78287e-06
6.64053e-06
5.67301e-06
4.82746e-06
4.0577e-06
3.71813e-06
2.88192e-06
3.82591e-06
8.71764e-06
9.45116e-11
0
0.0269016
1.28233
7.68435
31.9908
45.8073
1.16239e-05
1.09079e-05
1.06504e-05
9.98234e-06
9.19032e-06
8.30671e-06
7.37182e-06
6.41107e-06
5.49383e-06
4.70584e-06
4.02702e-06
3.37614e-06
3.05579e-06
2.42078e-06
2.62651e-06
6.62972e-06
3.25021e-09
0
0.0183447
0.905641
5.96684
23.0142
28.8711
8.65718e-06
8.46581e-06
7.97295e-06
7.40025e-06
6.74533e-06
6.03528e-06
5.28531e-06
4.54586e-06
3.89783e-06
3.34191e-06
2.79145e-06
2.46134e-06
2.00657e-06
1.73265e-06
4.39649e-06
2.93296e-07
2.78337e-12
0.0103111
0.550463
3.67317
11.5502
13.8664
7.04326e-06
6.57707e-06
6.40156e-06
5.99032e-06
5.49414e-06
4.94562e-06
4.35708e-06
3.75935e-06
3.2263e-06
2.76273e-06
2.30203e-06
1.9525e-06
1.62478e-06
1.15168e-06
2.56811e-06
8.69466e-07
1.36384e-11
0.00497316
0.268154
1.6667
3.26344
3.96737
5.27416e-06
5.14272e-06
4.82521e-06
4.45256e-06
4.04074e-06
3.58693e-06
3.10886e-06
2.6731e-06
2.28212e-06
1.89764e-06
1.54157e-06
1.27922e-06
7.83357e-07
1.15063e-06
1.46395e-06
4.59722e-11
0.00179133
0.099438
0.742198
0.364048
0.416985
4.32848e-06
4.03751e-06
3.90265e-06
3.62454e-06
3.31432e-06
2.96109e-06
2.57942e-06
2.22254e-06
1.89096e-06
1.56722e-06
1.22808e-06
9.84008e-07
5.49567e-07
4.4751e-07
1.16637e-06
3.82759e-10
0.000139702
0.0144081
0.413898
0.237832
0.154152
3.27358e-06
3.17935e-06
2.94699e-06
2.70519e-06
2.43281e-06
2.13697e-06
1.85001e-06
1.57398e-06
1.30058e-06
9.98819e-07
7.50053e-07
3.97053e-07
1.58905e-07
4.44299e-07
1.72735e-09
4.65757e-14
0.00930226
0.186153
0.303049
0.264877
2.68559e-06
2.54437e-06
2.38387e-06
2.20802e-06
2.00139e-06
1.77259e-06
1.54395e-06
1.31877e-06
1.08912e-06
8.32983e-07
5.85774e-07
3.00819e-07
5.12067e-08
1.06128e-07
3.45636e-07
1.7922e-11
0.00159124
0.0509969
0.160846
0.170171
2.1764e-06
2.03448e-06
1.96128e-06
1.8278e-06
1.66759e-06
1.4869e-06
1.30226e-06
1.11851e-06
9.26378e-07
7.12919e-07
4.85052e-07
2.47201e-07
2.41393e-08
4.25897e-08
6.15058e-07
2.45262e-10
0.000108621
0.00711642
0.0483996
0.0632359
1.67072e-06
1.62904e-06
1.51644e-06
1.39463e-06
1.25622e-06
1.11008e-06
9.62213e-07
8.04321e-07
6.28652e-07
4.3306e-07
2.32027e-07
4.66734e-08
6.31879e-08
6.60417e-07
8.00211e-10
1.7861e-14
0.00123697
0.00916649
0.0162062
1.40135e-06
1.33537e-06
1.2583e-06
1.17045e-06
1.06752e-06
9.54057e-07
8.37483e-07
7.11232e-07
5.70231e-07
4.11914e-07
2.47125e-07
1.0687e-07
1.12784e-07
6.06634e-07
8.29358e-07
2.48068e-11
9.53214e-07
0.00104954
0.00302784
1.15926e-06
1.09329e-06
1.05839e-06
9.93e-07
9.16588e-07
8.28377e-07
7.37234e-07
6.38905e-07
5.2964e-07
4.07698e-07
2.80272e-07
1.83183e-07
1.9317e-07
5.15208e-07
2.09456e-06
5.97174e-09
7.22301e-15
2.67501e-09
0.000379967
9.12898e-07
8.93408e-07
8.40608e-07
7.85099e-07
7.19424e-07
6.51589e-07
5.78936e-07
4.98734e-07
4.09845e-07
3.18502e-07
2.56501e-07
2.85479e-07
4.99093e-07
1.75776e-06
1.00978e-06
3.32546e-09
1.04887e-09
6.63005e-07
7.72557e-07
7.42392e-07
7.07166e-07
6.68663e-07
6.21893e-07
5.74883e-07
5.25667e-07
4.71652e-07
4.11688e-07
3.51847e-07
3.17557e-07
3.62229e-07
5.38541e-07
1.27043e-06
2.72227e-06
9.66629e-07
8.97208e-08
1.11251e-07
6.44563e-07
6.13705e-07
6.00464e-07
5.73323e-07
5.41271e-07
5.10052e-07
4.79123e-07
4.46213e-07
4.0977e-07
3.75102e-07
3.62256e-07
4.13912e-07
5.75264e-07
1.03576e-06
2.27221e-06
3.23787e-06
2.55253e-06
1.79184e-06
5.18464e-07
5.15287e-07
4.93298e-07
4.73268e-07
4.54422e-07
4.3745e-07
4.20675e-07
4.0225e-07
3.8642e-07
3.88992e-07
4.42154e-07
5.85908e-07
9.17823e-07
1.70112e-06
2.88155e-06
3.60828e-06
3.50604e-06
4.46748e-07
4.37116e-07
4.24028e-07
4.12979e-07
4.03754e-07
3.97586e-07
3.92982e-07
3.87972e-07
3.85677e-07
3.98463e-07
4.50141e-07
5.72873e-07
8.26065e-07
1.34016e-06
2.15999e-06
2.97284e-06
3.33976e-06
3.77935e-07
3.67732e-07
3.65882e-07
3.60766e-07
3.58446e-07
3.59632e-07
3.63225e-07
3.67452e-07
3.74383e-07
3.93348e-07
4.41757e-07
5.43785e-07
7.37857e-07
1.09192e-06
1.63423e-06
2.22856e-06
3.13497e-07
3.16674e-07
3.13637e-07
3.16194e-07
3.22301e-07
3.31211e-07
3.4138e-07
3.54169e-07
3.76364e-07
4.20466e-07
5.03877e-07
6.5158e-07
9.00678e-07
1.26475e-06
1.67154e-06
2.70299e-07
2.70792e-07
2.71164e-07
2.76332e-07
2.85457e-07
2.9782e-07
3.1172e-07
3.27849e-07
3.51023e-07
3.90149e-07
4.57409e-07
5.68878e-07
7.45047e-07
9.92302e-07
1.26832e-06
2.28226e-07
2.31458e-07
2.33974e-07
2.40187e-07
2.5047e-07
2.64348e-07
2.80065e-07
2.97588e-07
3.20222e-07
3.54147e-07
4.07728e-07
4.91215e-07
6.16038e-07
7.84694e-07
9.72612e-07
1.92297e-07
1.96196e-07
1.9985e-07
2.06769e-07
2.1744e-07
2.31605e-07
2.47644e-07
2.65139e-07
2.86279e-07
3.15233e-07
3.57602e-07
4.19862e-07
5.08382e-07
6.23887e-07
7.51703e-07
1.61612e-07
1.6369e-07
1.69702e-07
1.76482e-07
1.87274e-07
2.01144e-07
2.16466e-07
2.32846e-07
2.51775e-07
2.76058e-07
3.09337e-07
3.55685e-07
4.18632e-07
4.98055e-07
5.85138e-07
1.37925e-07
1.44507e-07
1.49995e-07
1.60336e-07
1.73183e-07
1.87191e-07
2.01961e-07
2.18447e-07
2.38533e-07
2.64573e-07
2.99064e-07
3.43973e-07
3.98824e-07
4.5787e-07
1.17297e-07
1.21769e-07
1.27089e-07
1.36411e-07
1.47916e-07
1.60454e-07
1.73445e-07
1.87509e-07
2.03914e-07
2.24166e-07
2.49816e-07
2.81909e-07
3.19478e-07
3.5993e-07
9.80203e-08
1.02769e-07
1.07837e-07
1.15928e-07
1.25813e-07
1.36542e-07
1.47598e-07
1.59373e-07
1.72633e-07
1.88312e-07
2.07324e-07
2.29911e-07
2.56098e-07
2.83631e-07
8.22236e-08
8.62297e-08
9.09051e-08
9.7918e-08
1.06253e-07
1.15207e-07
1.24391e-07
1.34021e-07
1.44621e-07
1.5669e-07
1.70609e-07
1.86789e-07
2.04865e-07
2.23658e-07
6.87439e-08
7.14828e-08
7.60173e-08
8.18869e-08
8.89542e-08
9.6419e-08
1.03886e-07
1.11603e-07
1.19937e-07
1.29111e-07
1.39356e-07
1.50817e-07
1.63471e-07
1.76258e-07
5.94159e-08
6.35224e-08
6.79167e-08
7.39213e-08
8.00221e-08
8.59719e-08
9.20618e-08
9.84921e-08
1.05385e-07
1.12876e-07
1.211e-07
1.29874e-07
1.38716e-07
4.94459e-08
5.23099e-08
5.60119e-08
6.0884e-08
6.58088e-08
7.05831e-08
7.53286e-08
8.02105e-08
8.53423e-08
9.08299e-08
9.67942e-08
1.0301e-07
4.05825e-08
4.29543e-08
4.59638e-08
4.98951e-08
5.38443e-08
5.75884e-08
6.12115e-08
6.48792e-08
6.86863e-08
7.27396e-08
7.70523e-08
8.16078e-08
3.32243e-08
3.50578e-08
3.7489e-08
4.06871e-08
4.38385e-08
4.67365e-08
4.94945e-08
5.22354e-08
5.50778e-08
5.80592e-08
6.12145e-08
6.44651e-08
2.71939e-08
2.84918e-08
3.04506e-08
3.29499e-08
3.54651e-08
3.77658e-08
3.98997e-08
4.19917e-08
4.40935e-08
4.62675e-08
4.85183e-08
5.08456e-08
2.32209e-08
2.47795e-08
2.66052e-08
2.86404e-08
3.04618e-08
3.21143e-08
3.36895e-08
3.52454e-08
3.6806e-08
3.84244e-08
4.00605e-08
1.89417e-08
2.00364e-08
2.14743e-08
2.30816e-08
2.45116e-08
2.579e-08
2.69822e-08
2.8122e-08
2.92618e-08
3.04098e-08
3.15688e-08
1.53536e-08
1.61909e-08
1.7339e-08
1.86065e-08
1.9711e-08
2.0674e-08
2.15588e-08
2.23934e-08
2.32266e-08
2.40831e-08
2.49062e-08
1.2461e-08
1.30883e-08
1.39864e-08
1.4968e-08
1.58096e-08
1.65357e-08
1.71819e-08
1.78061e-08
1.84426e-08
1.90662e-08
1.96812e-08
1.00974e-08
1.05622e-08
1.12531e-08
1.20126e-08
1.26604e-08
1.32076e-08
1.3704e-08
1.41832e-08
1.46527e-08
1.51232e-08
1.56057e-08
8.1668e-09
8.49756e-09
9.04206e-09
9.64596e-09
1.01572e-08
1.05834e-08
1.09654e-08
1.13223e-08
1.16783e-08
1.20313e-08
6.61226e-09
6.85895e-09
7.26598e-09
7.73745e-09
8.15157e-09
8.4951e-09
8.79251e-09
9.06492e-09
9.31893e-09
9.58156e-09
5.524e-09
5.82956e-09
6.20942e-09
6.55056e-09
6.82384e-09
7.05379e-09
7.25338e-09
7.44083e-09
7.62355e-09
4.43951e-09
4.67488e-09
4.98169e-09
5.25449e-09
5.47131e-09
5.6481e-09
5.79691e-09
5.93312e-09
6.06776e-09
3.55636e-09
3.73801e-09
3.98867e-09
4.20947e-09
4.38035e-09
4.51483e-09
4.62925e-09
4.73324e-09
4.83271e-09
2.8459e-09
2.98243e-09
3.18452e-09
3.36137e-09
3.49722e-09
3.60599e-09
3.69401e-09
3.77186e-09
3.8416e-09
2.2756e-09
2.37364e-09
2.53148e-09
2.67203e-09
2.78442e-09
2.87114e-09
2.93917e-09
2.99567e-09
3.04569e-09
1.81723e-09
1.88451e-09
2.00441e-09
2.11376e-09
2.20185e-09
2.27198e-09
2.32581e-09
2.36717e-09
1.4597e-09
1.49755e-09
1.58328e-09
1.66307e-09
1.7301e-09
1.78255e-09
1.82366e-09
1.85561e-09
1.17345e-09
1.19216e-09
1.25086e-09
1.30703e-09
1.35233e-09
1.38738e-09
1.41649e-09
1.44129e-09
9.52704e-10
9.854e-10
1.03142e-09
1.06068e-09
1.08133e-09
1.09835e-09
1.11422e-09
7.66959e-10
7.87115e-10
8.19255e-10
8.37946e-10
8.47677e-10
8.54421e-10
8.60345e-10
6.23361e-10
6.40901e-10
6.68946e-10
6.82322e-10
6.87307e-10
6.87909e-10
6.87765e-10
5.11983e-10
5.30171e-10
5.56991e-10
5.69777e-10
5.72303e-10
5.68477e-10
5.64026e-10
4.29847e-10
4.46834e-10
4.69761e-10
4.79085e-10
4.77715e-10
4.68041e-10
3.6723e-10
3.81388e-10
4.00297e-10
4.06969e-10
4.02889e-10
3.87959e-10
3.12398e-10
3.24072e-10
3.39818e-10
3.45458e-10
3.41138e-10
3.26431e-10
2.62634e-10
2.70956e-10
2.83128e-10
2.88126e-10
2.85501e-10
2.74465e-10
2.18694e-10
2.22709e-10
2.30488e-10
2.33405e-10
2.31276e-10
2.22934e-10
1.82423e-10
1.85413e-10
1.90764e-10
1.93182e-10
1.93056e-10
1.898e-10
1.39681e-10
1.43139e-10
1.43921e-10
1.43044e-10
1.38285e-10
1.34269e-10
1.38743e-10
1.40821e-10
1.43023e-10
1.4673e-10
8.48749e-11
8.64755e-11
8.84809e-11
8.88878e-11
8.28136e-11
1.46576e-10
1.56185e-10
1.57039e-10
1.61315e-10
1.12531e-10
1.18877e-10
1.28022e-10
1.33566e-10
3.37377e-10
3.83144e-10
3.69821e-10
3.43822e-10
)
;

boundaryField
{
    inlet
    {
        type            calculated;
        value           nonuniform List<scalar> 4(4.59023e-09 5.26508e-09 5.45996e-09 5.63552e-09);
    }
    outlet
    {
        type            calculated;
        value           nonuniform List<scalar> 0();
    }
    walls
    {
        type            calculated;
        value           uniform 0;
    }
    frontAndBack
    {
        type            empty;
    }
    procBoundary5to0
    {
        type            processor;
        value           nonuniform List<scalar> 4(0.000124548 0.000123038 0.000120957 0.000117944);
    }
    procBoundary5to1
    {
        type            processor;
        value           nonuniform List<scalar> 
13
(
0.0250299
0.00247113
0.00247113
0.00156395
0.00108447
0.00108447
0.000689393
0.000481244
0.000481244
0.00032101
0.000219791
0.00015996
0.00015996
)
;
    }
    procBoundary5to4
    {
        type            processor;
        value           nonuniform List<scalar> 
95
(
0.000124837
0.000125326
0.000126011
0.000126011
9.17991e-05
9.04859e-05
9.04859e-05
6.6041e-05
6.44534e-05
6.44534e-05
4.76685e-05
4.76685e-05
3.52892e-05
3.52892e-05
2.71024e-05
2.04366e-05
2.04366e-05
1.54308e-05
1.54308e-05
1.21026e-05
9.25482e-06
9.25482e-06
7.33061e-06
5.64823e-06
5.64823e-06
4.50659e-06
3.49068e-06
3.49068e-06
2.80521e-06
2.25642e-06
1.77382e-06
1.77382e-06
1.44934e-06
1.18903e-06
9.59922e-07
9.59922e-07
7.92433e-07
6.5416e-07
5.37758e-07
5.37758e-07
4.49758e-07
3.76909e-07
3.17752e-07
3.17752e-07
2.66903e-07
2.23646e-07
1.86926e-07
1.55893e-07
1.34492e-07
1.34492e-07
1.12007e-07
9.33829e-08
7.78884e-08
6.4884e-08
5.67358e-08
5.67358e-08
4.68017e-08
3.84357e-08
3.15169e-08
2.57855e-08
2.21339e-08
2.21339e-08
1.80509e-08
1.47081e-08
1.19872e-08
9.74939e-09
7.91765e-09
6.41082e-09
5.34422e-09
5.34422e-09
4.31433e-09
3.47148e-09
2.79347e-09
2.2459e-09
1.80845e-09
1.46355e-09
1.1902e-09
9.54863e-10
9.54863e-10
7.75122e-10
6.3073e-10
5.17904e-10
4.33365e-10
3.7051e-10
3.15385e-10
2.65976e-10
2.2292e-10
1.85169e-10
1.40394e-10
1.40394e-10
1.31779e-10
8.34995e-11
1.37365e-10
1.02131e-10
3.25843e-10
)
;
    }
    procBoundary5to6
    {
        type            processor;
        value           nonuniform List<scalar> 
86
(
736.682
5.62562
2.69378
1.42362
1.50136
2.0954
3.12958
4.54093
6.22943
8.16041
10.054
11.5577
13.8342
17.3622
20.5945
21.1058
17.9021
12.4731
6.99246
2.95335
0.966473
0.360718
0.199674
0.103805
0.0410526
0.0120655
0.00278741
0.000507121
3.23511e-05
7.13826e-07
1.58029e-06
2.99315e-06
3.15198e-06
2.61638e-06
2.61638e-06
1.97049e-06
1.48509e-06
1.12657e-06
8.60191e-07
6.60395e-07
5.09723e-07
3.95601e-07
3.07781e-07
2.40049e-07
1.87125e-07
1.46121e-07
1.09167e-07
1.09167e-07
8.59498e-08
6.75856e-08
5.31276e-08
4.16621e-08
3.27192e-08
2.57019e-08
2.02804e-08
1.60634e-08
1.23861e-08
1.23861e-08
9.8425e-09
7.81084e-09
6.20478e-09
4.9307e-09
3.91032e-09
3.09752e-09
2.39834e-09
2.39834e-09
1.87946e-09
1.46226e-09
1.12713e-09
8.63579e-10
6.86674e-10
5.60087e-10
4.48073e-10
4.48073e-10
3.63953e-10
3.01669e-10
2.52783e-10
2.04875e-10
1.75859e-10
1.26747e-10
1.3556e-10
7.80252e-11
1.77606e-10
1.77606e-10
1.22154e-10
5.61499e-10
)
;
    }
}


// ************************************************************************* //
