# p  FACE_DATA 300
# x y z  p
0.29787915 -0.05 -0.060005454 21616.306
0.29366024 -0.05 -0.059998184 21609.955
0.28948669 -0.05 -0.059982824 21605.344
0.28535801 -0.05 -0.05995956 21601.371
0.28127374 -0.05 -0.05992843 21598.834
0.27723341 -0.05 -0.059889544 21597.122
0.27323659 -0.05 -0.059843056 21596.424
0.2692828 -0.05 -0.059789027 21596.379
0.26537161 -0.05 -0.059727601 21596.828
0.26150257 -0.05 -0.05965892 21598.156
0.25767524 -0.05 -0.059583046 21600.584
0.2538892 -0.05 -0.059500074 21604.018
0.25014401 -0.05 -0.059410118 21608.445
0.24643926 -0.05 -0.059313284 21613.922
0.24277452 -0.05 -0.059209673 21620.458
0.23914938 -0.05 -0.059099387 21627.989
0.23556343 -0.05 -0.058982537 21636.263
0.23201627 -0.05 -0.058859254 21645.456
0.2285075 -0.05 -0.058729541 21656.291
0.22503671 -0.05 -0.058593532 21667.3
0.22160352 -0.05 -0.058451379 21679.561
0.21820754 -0.05 -0.058303115 21692.718
0.21484838 -0.05 -0.058148846 21706.881
0.21152567 -0.05 -0.05798866 21721.965
0.20823903 -0.05 -0.057822651 21738.069
0.20498809 -0.05 -0.057650874 21755.313
0.20177248 -0.05 -0.057473468 21773.037
0.19859184 -0.05 -0.057290478 21792.352
0.1954458 -0.05 -0.057101994 21811.675
0.19233402 -0.05 -0.056908168 21832.046
0.18925614 -0.05 -0.056708999 21853.646
0.18621181 -0.05 -0.056504562 21876.449
0.18320071 -0.05 -0.056294919 21900.431
0.18022246 -0.05 -0.056080229 21924.59
0.17727675 -0.05 -0.055860526 21950.574
0.17436324 -0.05 -0.05563585 21976.567
0.1714816 -0.05 -0.055406376 22003.519
0.16863151 -0.05 -0.055172052 22032.39
0.16581265 -0.05 -0.054932944 22061.709
0.16302469 -0.05 -0.054689208 22091.789
0.16026732 -0.05 -0.054440898 22122.664
0.15754024 -0.05 -0.054188056 22154.652
0.15484313 -0.05 -0.053930725 22187.613
0.15217569 -0.05 -0.053668978 22221.481
0.14953762 -0.05 -0.053402888 22256.535
0.14692863 -0.05 -0.053132457 22293.099
0.14434842 -0.05 -0.052857799 22329.404
0.14179669 -0.05 -0.052579044 22366.854
0.13927317 -0.05 -0.05229612 22406.225
0.13677758 -0.05 -0.052009061 22446.444
0.13430961 -0.05 -0.051717985 22487.476
0.13186901 -0.05 -0.051422993 22528.845
0.1294555 -0.05 -0.051124081 22572.008
0.12706881 -0.05 -0.050821224 22616.328
0.12470868 -0.05 -0.050514504 22661.555
0.12237483 -0.05 -0.05020403 22707.099
0.120067 -0.05 -0.049889836 22754.193
0.11778495 -0.05 -0.049571874 22802.442
0.11552842 -0.05 -0.049250263 22851.032
0.11329715 -0.05 -0.048924992 22901.454
0.1110909 -0.05 -0.048596121 22951.928
0.10890943 -0.05 -0.048263656 23005.191
0.10675251 -0.05 -0.047927554 23058.92
0.10461987 -0.05 -0.047587958 23113.279
0.1025113 -0.05 -0.047244937 23168.196
0.10042655 -0.05 -0.046898432 23225.082
0.098365405 -0.05 -0.046548446 23282.303
0.096327639 -0.05 -0.046195043 23340.926
0.094313028 -0.05 -0.045838237 23400.581
0.092321357 -0.05 -0.045478019 23462.496
0.090352417 -0.05 -0.04511438 23525.203
0.088405979 -0.05 -0.044747421 23588.687
0.086481845 -0.05 -0.044377096 23654.134
0.084579815 -0.05 -0.044003384 23720.331
0.082699669 -0.05 -0.043626384 23787.677
0.080841229 -0.05 -0.043246005 23857.561
0.0790043 -0.05 -0.042862236 23927.85
0.077188665 -0.05 -0.0424752 23999.344
0.07539416 -0.05 -0.042084789 24073.209
0.073620599 -0.05 -0.041690997 24147.728
0.071867788 -0.05 -0.041293877 24223.765
0.070135557 -0.05 -0.040893385 24301.281
0.068423742 -0.05 -0.040489457 24380.982
0.066732169 -0.05 -0.040082112 24461.753
0.065060663 -0.05 -0.039671361 24544.823
0.063409062 -0.05 -0.039257174 24629.505
0.061777219 -0.05 -0.038839488 24716.396
0.060164984 -0.05 -0.038418265 24803.945
0.058572196 -0.05 -0.037993513 24893.642
0.056998721 -0.05 -0.037565159 24985.669
0.055444419 -0.05 -0.03713316 25079.767
0.053909142 -0.05 -0.036697516 25175.39
0.052392764 -0.05 -0.036258171 25273.621
0.050895177 -0.05 -0.035815009 25374.009
0.049416244 -0.05 -0.035368033 25476.133
0.047955856 -0.05 -0.034917167 25581.06
0.046513915 -0.05 -0.034462309 25688.065
0.045090302 -0.05 -0.034003445 25797.42
0.043684931 -0.05 -0.033540468 25910.327
0.042297731 -0.05 -0.03307324 26026.737
0.040928604 -0.05 -0.032601735 26146.171
0.039577476 -0.05 -0.032125845 26269.532
0.038244292 -0.05 -0.03164545 26395.99
0.036928981 -0.05 -0.031160474 26526.489
0.0356315 -0.05 -0.030670795 26660.742
0.03435181 -0.05 -0.030176299 26799.688
0.033089918 -0.05 -0.029676761 26944.192
0.031845783 -0.05 -0.029172106 27091.6
0.030619394 -0.05 -0.028662209 27243.793
0.029410776 -0.05 -0.028146878 27399.795
0.028219949 -0.05 -0.027625962 27560.819
0.027046957 -0.05 -0.027099267 27726.393
0.025891857 -0.05 -0.026566614 27897.535
0.02475474 -0.05 -0.026027768 28074.078
0.023635681 -0.05 -0.025482558 28256.288
0.022534817 -0.05 -0.024930718 28444.915
0.021452274 -0.05 -0.024372036 28638.881
0.020388213 -0.05 -0.023806274 28839.167
0.019342865 -0.05 -0.023233111 29045.623
0.018316468 -0.05 -0.022652259 29258.655
0.017309264 -0.05 -0.02206346 29479.103
0.016321577 -0.05 -0.021466368 29709.208
0.015353757 -0.05 -0.020860644 29947.312
0.014406156 -0.05 -0.020245997 30194.033
0.013479274 -0.05 -0.019622013 30449.459
0.012573638 -0.05 -0.018988322 30713.276
0.0116898 -0.05 -0.018344552 30985.381
0.010828378 -0.05 -0.017690314 31265.391
0.0099901248 -0.05 -0.017025149 31554.065
0.0091759198 -0.05 -0.016348644 31850.528
0.008386597 -0.05 -0.0156605 32154.499
0.0076231725 -0.05 -0.014960218 32466.19
0.0068867853 -0.05 -0.014247452 32783.601
0.0061787359 -0.05 -0.013521943 33105.227
0.0055003792 -0.05 -0.012783302 33427.409
0.0048530826 -0.05 -0.012031363 33746.88
0.0042385571 -0.05 -0.011266143 34060.203
0.0036585397 -0.05 -0.010487553 34362.708
0.0031148318 -0.05 -0.0096957287 34646.504
0.0026094399 -0.05 -0.0088912322 34899.753
0.0021442246 -0.05 -0.0080745628 35113.99
0.0017210465 -0.05 -0.0072465895 35293.963
0.0013418093 -0.05 -0.0064087151 35428.157
0.0010080919 -0.05 -0.0055623679 35499.71
0.00072127228 -0.05 -0.0047092571 35506.258
0.00048251081 -0.05 -0.0038515496 35443.638
0.00029236329 -0.05 -0.0029916286 35306.079
0.0001508317 -0.05 -0.0021320102 35100.259
5.7495879e-05 -0.05 -0.0012752716 34824.474
1.1394864e-05 -0.05 -0.00042397109 34467.188
0.99768066 -0.05 -0.00033611804 26654.572
0.99304169 -0.05 -0.0010063364 26530.831
0.98840215 -0.05 -0.0016726212 26401.599
0.98376207 -0.05 -0.0023350721 26291.658
0.97912144 -0.05 -0.0029936636 26187.469
0.97448026 -0.05 -0.00364841 26090.867
0.96983855 -0.05 -0.0042993733 25999.512
0.96519632 -0.05 -0.0049465845 25913.167
0.96055357 -0.05 -0.0055900577 25831.098
0.95591031 -0.05 -0.0062298653 25752.748
0.95126654 -0.05 -0.0068660327 25677.965
0.94662228 -0.05 -0.0074985225 25606.415
0.94197752 -0.05 -0.0081274235 25537.613
0.9373323 -0.05 -0.008752761 25471.575
0.93268659 -0.05 -0.0093745713 25407.768
0.92804042 -0.05 -0.0099928964 25346.337
0.92339379 -0.05 -0.010607714 25287.066
0.91874669 -0.05 -0.011219031 25229.865
0.91409915 -0.05 -0.011826962 25174.194
0.90945116 -0.05 -0.012431486 25120.618
0.90480273 -0.05 -0.013032571 25068.41
0.90015387 -0.05 -0.013630361 25017.633
0.89550457 -0.05 -0.014224739 24968.62
0.89085486 -0.05 -0.014815813 24920.34
0.88620473 -0.05 -0.01540363 24873.707
0.88155418 -0.05 -0.0159881 24828.058
0.87690323 -0.05 -0.016569356 24783.364
0.87225187 -0.05 -0.017147383 24739.784
0.86760011 -0.05 -0.017722168 24697.19
0.86294795 -0.05 -0.018293719 24655.593
0.85829541 -0.05 -0.018862095 24614.689
0.85364248 -0.05 -0.01942729 24574.805
0.84898916 -0.05 -0.01998931 24535.472
0.84433547 -0.05 -0.020548224 24496.971
0.8396814 -0.05 -0.021103928 24459.479
0.83502695 -0.05 -0.021656533 24422.152
0.83037214 -0.05 -0.022206072 24385.776
0.82571696 -0.05 -0.022752481 24349.878
0.82106143 -0.05 -0.023295768 24314.85
0.81640553 -0.05 -0.023835961 24280.078
0.81174927 -0.05 -0.024373126 24245.867
0.80709266 -0.05 -0.024907211 24212.118
0.80243571 -0.05 -0.025438235 24178.803
0.7977784 -0.05 -0.025966147 24146.193
0.79312074 -0.05 -0.026490982 24113.669
0.78846275 -0.05 -0.027012845 24081.356
0.78380442 -0.05 -0.027531686 24049.565
0.77914575 -0.05 -0.028047403 24018.379
0.77448674 -0.05 -0.028560079 23987.121
0.76982739 -0.05 -0.029069752 23956.428
0.76516771 -0.05 -0.02957633 23926.128
0.7605077 -0.05 -0.030079852 23896.012
0.75584737 -0.05 -0.030580367 23866.02
0.75118671 -0.05 -0.03107785 23836.388
0.74652573 -0.05 -0.031572241 23807.136
0.74186441 -0.05 -0.032063551 23778.117
0.73720278 -0.05 -0.032551782 23749.38
0.73254083 -0.05 -0.03303698 23720.626
0.72787854 -0.05 -0.033519069 23692.46
0.72321595 -0.05 -0.033998064 23664.015
0.71855304 -0.05 -0.034473962 23636.269
0.71388981 -0.05 -0.034946671 23608.568
0.70922626 -0.05 -0.035416302 23580.747
0.7045624 -0.05 -0.03588285 23553.042
0.69989823 -0.05 -0.036346252 23525.498
0.69523375 -0.05 -0.036806454 23498.319
0.69056894 -0.05 -0.037263403 23471.336
0.68590382 -0.05 -0.037717206 23444.047
0.68123839 -0.05 -0.038167801 23417.365
0.67657265 -0.05 -0.038615123 23390.462
0.67190661 -0.05 -0.039059237 23363.727
0.66724025 -0.05 -0.039500049 23337.337
0.66257357 -0.05 -0.039937521 23311.042
0.6579066 -0.05 -0.040371712 23284.577
0.65323931 -0.05 -0.040802591 23258.333
0.64857171 -0.05 -0.041230085 23232.205
0.6439038 -0.05 -0.041654149 23206.312
0.63923558 -0.05 -0.042074786 23180.261
0.63456705 -0.05 -0.042492 23154.327
0.62989821 -0.05 -0.042905734 23128.448
0.62522906 -0.05 -0.043315943 23102.674
0.62055961 -0.05 -0.043722625 23076.759
0.61588983 -0.05 -0.044125719 23051.088
0.61121975 -0.05 -0.044525219 23025.122
0.60654937 -0.05 -0.044921074 22999.608
0.60187867 -0.05 -0.045313219 22973.877
0.59720766 -0.05 -0.045701683 22948.184
0.59253634 -0.05 -0.046086399 22922.577
0.58786471 -0.05 -0.046467288 22897.17
0.58319277 -0.05 -0.046844345 22871.61
0.57852051 -0.05 -0.047217535 22846.288
0.57384795 -0.05 -0.047586814 22820.82
0.56917507 -0.05 -0.047952124 22795.593
0.56450189 -0.05 -0.048313436 22770.082
0.55982839 -0.05 -0.048670677 22744.988
0.55515457 -0.05 -0.04902381 22719.553
0.55048045 -0.05 -0.04937281 22694.548
0.54580601 -0.05 -0.04971755 22669.587
0.54113126 -0.05 -0.050058049 22644.396
0.5364562 -0.05 -0.050394263 22619.205
0.53178083 -0.05 -0.050726133 22593.885
0.52710515 -0.05 -0.05105357 22568.947
0.52242915 -0.05 -0.051376464 22544.153
0.51775284 -0.05 -0.051694815 22519.295
0.51307623 -0.05 -0.052008601 22494.502
0.5083993 -0.05 -0.052317709 22469.987
0.50372205 -0.05 -0.052622098 22445.309
0.4990445 -0.05 -0.052921702 22420.945
0.49436664 -0.05 -0.053216428 22396.557
0.48968848 -0.05 -0.053506199 22372.496
0.48501001 -0.05 -0.053790938 22348.365
0.48033122 -0.05 -0.054070627 22324.348
0.47565213 -0.05 -0.05434516 22300.584
0.47097274 -0.05 -0.05461447 22276.751
0.46629305 -0.05 -0.054878504 22253.033
0.46161306 -0.05 -0.055137129 22229.594
0.45693277 -0.05 -0.055390258 22206.247
0.45225217 -0.05 -0.05563783 22183.039
0.44757129 -0.05 -0.055879797 22159.767
0.44289011 -0.05 -0.056116052 22136.96
0.43820865 -0.05 -0.056346461 22114.437
0.43352689 -0.05 -0.056570934 22092.177
0.42884486 -0.05 -0.056789429 22069.741
0.42416254 -0.05 -0.057001839 22047.662
0.41947994 -0.05 -0.057208045 22025.638
0.41479707 -0.05 -0.057407955 22004.106
0.41011393 -0.05 -0.057601449 21982.839
0.40543053 -0.05 -0.057788457 21961.826
0.40074687 -0.05 -0.057968847 21941.25
0.39606296 -0.05 -0.058142512 21920.809
0.3913788 -0.05 -0.05830933 21900.835
0.38669439 -0.05 -0.058469176 21881.102
0.38200975 -0.05 -0.058621944 21861.849
0.37732488 -0.05 -0.058767528 21842.973
0.37263978 -0.05 -0.058905769 21824.965
0.36795448 -0.05 -0.059036525 21807.26
0.36326896 -0.05 -0.059159726 21789.998
0.35858325 -0.05 -0.059275201 21773.408
0.35389735 -0.05 -0.059382803 21757.173
0.34921128 -0.05 -0.05948244 21741.301
0.34452504 -0.05 -0.059573923 21726.339
0.33983865 -0.05 -0.059657063 21712.094
0.33515211 -0.05 -0.059731741 21698.462
0.33046544 -0.05 -0.059797856 21685.249
0.32577866 -0.05 -0.059855197 21673.114
0.32109177 -0.05 -0.059903556 21661.529
0.31640481 -0.05 -0.059942821 21650.544
0.31171777 -0.05 -0.059972784 21639.98
0.30703069 -0.05 -0.059993273 21629.692
0.30234356 -0.05 -0.060004087 21621.64
