/*--------------------------------*- C++ -*----------------------------------*\
| =========                 |                                                 |
| \\      /  F ield         | OpenFOAM: The Open Source CFD Toolbox           |
|  \\    /   O peration     | Version:  2306                                  |
|   \\  /    A nd           | Website:  www.openfoam.com                      |
|    \\/     M anipulation  |                                                 |
\*---------------------------------------------------------------------------*/
FoamFile
{
    version     2.0;
    format      ascii;
    arch        "LSB;label=32;scalar=64";
    class       volScalarField;
    location    "375";
    object      nuTilda;
}
// * * * * * * * * * * * * * * * * * * * * * * * * * * * * * * * * * * * * * //

dimensions      [0 2 -1 0 0 0 0];

internalField   nonuniform List<scalar> 
1340
(
4.00638e-05
4.00652e-05
4.00644e-05
4.00292e-05
4.00664e-05
4.00652e-05
4.00255e-05
4.0029e-05
4.00676e-05
4.00662e-05
4.00087e-05
4.00129e-05
4.00252e-05
4.00288e-05
4.00689e-05
4.00673e-05
4.00182e-05
4.00101e-05
4.00086e-05
4.00128e-05
4.0025e-05
4.00286e-05
4.00703e-05
4.00686e-05
4.0042e-05
4.00349e-05
4.00271e-05
4.0019e-05
4.00106e-05
4.00086e-05
4.00126e-05
4.00248e-05
4.00283e-05
4.00717e-05
4.00701e-05
4.00594e-05
4.00541e-05
4.00492e-05
4.00431e-05
4.0036e-05
4.0028e-05
4.00198e-05
4.00111e-05
4.00086e-05
4.00125e-05
4.00246e-05
4.0028e-05
4.00732e-05
4.00718e-05
4.00826e-05
4.00787e-05
4.00736e-05
4.00673e-05
4.00608e-05
4.00554e-05
4.00504e-05
4.00443e-05
4.00371e-05
4.0029e-05
4.00206e-05
4.00117e-05
4.00086e-05
4.00123e-05
4.00244e-05
4.00276e-05
4.00747e-05
4.00736e-05
4.00945e-05
4.00931e-05
4.00914e-05
4.00894e-05
4.00871e-05
4.00842e-05
4.00803e-05
4.00752e-05
4.00689e-05
4.00623e-05
4.00567e-05
4.00517e-05
4.00456e-05
4.00383e-05
4.003e-05
4.00216e-05
4.00123e-05
4.00086e-05
4.00121e-05
4.00242e-05
4.00271e-05
4.00762e-05
4.00756e-05
4.00992e-05
4.00992e-05
4.00991e-05
4.0099e-05
4.00987e-05
4.00981e-05
4.00973e-05
4.00962e-05
4.00948e-05
4.00931e-05
4.00911e-05
4.00888e-05
4.00859e-05
4.00821e-05
4.0077e-05
4.00706e-05
4.00639e-05
4.00582e-05
4.00531e-05
4.0047e-05
4.00396e-05
4.00312e-05
4.00225e-05
4.0013e-05
4.00087e-05
4.00119e-05
4.00239e-05
4.00266e-05
4.00778e-05
4.00779e-05
4.01022e-05
4.01036e-05
4.01033e-05
4.01028e-05
4.01024e-05
4.01019e-05
4.01015e-05
4.01012e-05
4.01011e-05
4.01011e-05
4.0101e-05
4.0101e-05
4.01009e-05
4.01009e-05
4.01008e-05
4.01007e-05
4.01004e-05
4.00999e-05
4.00991e-05
4.0098e-05
4.00966e-05
4.00949e-05
4.00929e-05
4.00906e-05
4.00877e-05
4.00839e-05
4.00789e-05
4.00725e-05
4.00656e-05
4.00597e-05
4.00546e-05
4.00484e-05
4.00409e-05
4.00324e-05
4.00236e-05
4.00138e-05
4.00089e-05
4.00116e-05
4.00237e-05
4.0026e-05
4.00794e-05
4.00803e-05
4.38566e-06
1.15877e-06
0
0
0.000157044
0.000463052
0.0161313
0.0552321
0.112717
0.176149
0.235577
0.28569
0.324152
0.350499
0.365903
0.372716
0.373855
0.362868
0.331023
0.272246
0.189166
0.100104
0.0323008
0.00114789
0.000358259
0
0
0
5.02218e-06
1.96378e-05
4.02091e-05
4.33221e-05
4.07114e-05
3.96979e-05
3.99352e-05
4.01372e-05
4.01377e-05
4.01122e-05
4.01082e-05
4.01076e-05
4.01049e-05
4.01035e-05
4.01034e-05
4.01034e-05
4.01031e-05
4.01029e-05
4.01028e-05
4.01028e-05
4.01027e-05
4.01027e-05
4.01026e-05
4.01026e-05
4.01025e-05
4.01022e-05
4.01017e-05
4.01009e-05
4.00999e-05
4.00985e-05
4.00968e-05
4.00948e-05
4.00924e-05
4.00896e-05
4.00858e-05
4.00808e-05
4.00744e-05
4.00674e-05
4.00614e-05
4.00562e-05
4.00499e-05
4.00424e-05
4.00337e-05
4.00247e-05
4.00147e-05
4.00091e-05
4.00114e-05
4.00234e-05
4.00254e-05
4.00809e-05
4.00829e-05
4.03852e-05
8.4882e-06
2.22054e-06
0
0
4.85958e-06
0.002094
0.0082288
0.0367151
0.0876109
0.150437
0.213244
0.26835
0.312005
0.34292
0.36167
0.370819
0.373099
0.364476
0.336216
0.281395
0.201307
0.112134
0.0397945
0.00357063
0.000997668
0
0
0
3.15499e-06
1.17766e-05
3.8035e-05
4.43845e-05
4.1606e-05
3.98406e-05
3.98588e-05
4.00981e-05
4.01204e-05
4.00947e-05
4.00999e-05
4.01098e-05
4.01096e-05
4.01062e-05
4.01047e-05
4.01047e-05
4.01048e-05
4.01047e-05
4.01046e-05
4.01046e-05
4.01045e-05
4.01045e-05
4.01044e-05
4.01043e-05
4.01041e-05
4.01036e-05
4.01029e-05
4.01018e-05
4.01005e-05
4.00988e-05
4.00968e-05
4.00944e-05
4.00916e-05
4.00879e-05
4.00829e-05
4.00765e-05
4.00693e-05
4.00632e-05
4.00578e-05
4.00516e-05
4.00439e-05
4.00351e-05
4.0026e-05
4.00156e-05
4.00094e-05
4.00111e-05
4.00231e-05
4.00248e-05
4.00824e-05
4.00856e-05
4.33704e-05
4.05053e-05
1.38025e-05
3.59279e-06
0
0
0
0.000627311
0.0023027
0.0212392
0.0633739
0.123042
0.187926
0.247857
0.297106
0.333267
0.356324
0.368383
0.37198
0.365646
0.34089
0.290111
0.213364
0.124089
0.0476836
0.00675783
0.00181999
0
0
0
8.14022e-07
1.94145e-06
3.22242e-05
4.36566e-05
4.21663e-05
4.00202e-05
3.98651e-05
4.01832e-05
4.02142e-05
4.01226e-05
4.00874e-05
4.00985e-05
4.01095e-05
4.011e-05
4.01075e-05
4.01065e-05
4.01065e-05
4.01066e-05
4.01066e-05
4.01065e-05
4.01064e-05
4.01064e-05
4.01063e-05
4.0106e-05
4.01056e-05
4.01049e-05
4.01039e-05
4.01025e-05
4.01009e-05
4.00988e-05
4.00965e-05
4.00937e-05
4.009e-05
4.00851e-05
4.00786e-05
4.00714e-05
4.0065e-05
4.00596e-05
4.00533e-05
4.00456e-05
4.00366e-05
4.00273e-05
4.00167e-05
4.00097e-05
4.00109e-05
4.00228e-05
4.00242e-05
4.00839e-05
4.00886e-05
4.03593e-05
4.3042e-05
4.04817e-05
2.03149e-05
5.27912e-06
0
0
0
2.56699e-05
0.00262903
0.0102508
0.0421576
0.0956109
0.160546
0.224716
0.279831
0.321814
0.349734
0.365038
0.370052
0.365872
0.344544
0.297877
0.224391
0.135327
0.0555958
0.0102533
0.00270795
0
0
0
6.70695e-08
7.28564e-06
2.92899e-05
4.31314e-05
4.28121e-05
3.98854e-05
3.92589e-05
3.98398e-05
4.02103e-05
4.02093e-05
4.01254e-05
4.00954e-05
4.0102e-05
4.01097e-05
4.01104e-05
4.0109e-05
4.01084e-05
4.01085e-05
4.01085e-05
4.01085e-05
4.01084e-05
4.01083e-05
4.01081e-05
4.01077e-05
4.0107e-05
4.01061e-05
4.01047e-05
4.01031e-05
4.0101e-05
4.00987e-05
4.00959e-05
4.00923e-05
4.00874e-05
4.00809e-05
4.00736e-05
4.0067e-05
4.00615e-05
4.00551e-05
4.00474e-05
4.00382e-05
4.00287e-05
4.00178e-05
4.00102e-05
4.00106e-05
4.00224e-05
4.00235e-05
4.00852e-05
4.00916e-05
3.99245e-05
4.03212e-05
4.24471e-05
4.06827e-05
2.88381e-05
7.3861e-06
1.1146e-07
0
0
0
0.00095192
0.00358059
0.0244887
0.0683314
0.129712
0.196668
0.258253
0.307696
0.342231
0.362125
0.369573
0.367201
0.349021
0.306589
0.236677
0.148266
0.0651772
0.0135844
0.00396289
0.000132748
0
0
0
5.76029e-06
2.24925e-05
4.14258e-05
4.58577e-05
4.26667e-05
3.99658e-05
3.94808e-05
3.98852e-05
4.01587e-05
4.01776e-05
4.01262e-05
4.0104e-05
4.01066e-05
4.01112e-05
4.01117e-05
4.01109e-05
4.01105e-05
4.01106e-05
4.01106e-05
4.01105e-05
4.01103e-05
4.01099e-05
4.01093e-05
4.01083e-05
4.0107e-05
4.01054e-05
4.01034e-05
4.0101e-05
4.00982e-05
4.00946e-05
4.00899e-05
4.00834e-05
4.00759e-05
4.00692e-05
4.00635e-05
4.00571e-05
4.00493e-05
4.004e-05
4.00302e-05
4.00191e-05
4.00107e-05
4.00104e-05
4.00221e-05
4.00228e-05
4.00866e-05
4.00949e-05
4.0127e-05
4.00037e-05
4.0255e-05
4.12619e-05
4.10301e-05
3.6935e-05
1.5809e-05
4.15608e-06
3.45449e-08
0
0
3.33042e-05
0.0024779
0.00949768
0.0352796
0.0806068
0.140567
0.205074
0.264318
0.311618
0.343925
0.361436
0.364965
0.35429
0.322733
0.265363
0.186438
0.102812
0.040626
0.00592692
0.00197777
5.34864e-05
0
0
6.77155e-07
5.14169e-06
1.75549e-05
3.68722e-05
4.39878e-05
4.27389e-05
4.04097e-05
3.96525e-05
3.98695e-05
4.01206e-05
4.01633e-05
4.01261e-05
4.01073e-05
4.01096e-05
4.01136e-05
4.0114e-05
4.01134e-05
4.01131e-05
4.01131e-05
4.0113e-05
4.01127e-05
4.01121e-05
4.01112e-05
4.011e-05
4.01083e-05
4.01063e-05
4.01039e-05
4.01011e-05
4.00976e-05
4.00929e-05
4.00865e-05
4.00788e-05
4.00719e-05
4.0066e-05
4.00595e-05
4.00516e-05
4.00421e-05
4.0032e-05
4.00206e-05
4.00115e-05
4.00102e-05
4.00217e-05
4.00222e-05
4.00878e-05
4.00984e-05
4.01315e-05
4.01272e-05
4.0027e-05
4.01205e-05
4.05908e-05
4.20627e-05
4.0014e-05
3.32583e-05
5.57994e-06
1.55186e-06
0
0
0
7.65977e-05
0.00231534
0.00856882
0.0316104
0.0738561
0.131436
0.195342
0.25556
0.304552
0.338502
0.356434
0.358423
0.342611
0.303045
0.238173
0.158372
0.0824059
0.0297743
0.00262482
0.000958694
0
0
0
4.62228e-07
5.36731e-06
2.004e-05
3.83089e-05
4.41664e-05
4.23271e-05
4.01415e-05
3.96731e-05
3.99699e-05
4.0163e-05
4.01593e-05
4.012e-05
4.01105e-05
4.01152e-05
4.01177e-05
4.01173e-05
4.01167e-05
4.01164e-05
4.01161e-05
4.01156e-05
4.01148e-05
4.01135e-05
4.01119e-05
4.01099e-05
4.01075e-05
4.01047e-05
4.01012e-05
4.00965e-05
4.00901e-05
4.00823e-05
4.00751e-05
4.0069e-05
4.00623e-05
4.00543e-05
4.00446e-05
4.00342e-05
4.00224e-05
4.00125e-05
4.00099e-05
4.00213e-05
4.00215e-05
4.0089e-05
4.01021e-05
4.01108e-05
4.0121e-05
4.01115e-05
4.00725e-05
4.00528e-05
4.03978e-05
4.12781e-05
4.2128e-05
3.85876e-05
2.51043e-05
6.50551e-06
8.73262e-08
0
0
0
7.29905e-05
0.00202712
0.00742707
0.0294872
0.0707654
0.127861
0.192009
0.253015
0.302814
0.336891
0.352991
0.350861
0.326966
0.277415
0.206295
0.12761
0.0596424
0.0166964
0.004699
0.000137832
0
0
0
5.56269e-07
6.96125e-06
2.71221e-05
4.19006e-05
4.37715e-05
4.11359e-05
3.97079e-05
3.97746e-05
4.00917e-05
4.01745e-05
4.01382e-05
4.01148e-05
4.01156e-05
4.01195e-05
4.01203e-05
4.01201e-05
4.01199e-05
4.01194e-05
4.01185e-05
4.01173e-05
4.01157e-05
4.01136e-05
4.01112e-05
4.01084e-05
4.01049e-05
4.01003e-05
4.0094e-05
4.00861e-05
4.00786e-05
4.00722e-05
4.00653e-05
4.00572e-05
4.00473e-05
4.00366e-05
4.00244e-05
4.00136e-05
4.00098e-05
4.00208e-05
4.00209e-05
4.009e-05
4.01058e-05
4.01073e-05
4.01122e-05
4.01105e-05
4.00931e-05
4.00418e-05
4.01844e-05
4.06432e-05
4.2028e-05
4.13498e-05
3.61482e-05
1.3331e-05
3.51699e-06
0
0
0
0
6.68052e-05
0.00201455
0.00740696
0.0296085
0.0712663
0.129002
0.193945
0.255486
0.304789
0.336744
0.347962
0.338585
0.30473
0.245942
0.170697
0.0947775
0.037653
0.00639496
0.00191554
0
0
0
0
4.11918e-06
1.54404e-05
3.66544e-05
4.43823e-05
4.25878e-05
4.01987e-05
3.96902e-05
3.99917e-05
4.01693e-05
4.01611e-05
4.01294e-05
4.0123e-05
4.01243e-05
4.01238e-05
4.0123e-05
4.01228e-05
4.01224e-05
4.01213e-05
4.01197e-05
4.01176e-05
4.01152e-05
4.01123e-05
4.01088e-05
4.01043e-05
4.00981e-05
4.00901e-05
4.00824e-05
4.00756e-05
4.00685e-05
4.00603e-05
4.00502e-05
4.00391e-05
4.00266e-05
4.0015e-05
4.00098e-05
4.00202e-05
4.00202e-05
4.00908e-05
4.01096e-05
4.01047e-05
4.01059e-05
4.01077e-05
4.01117e-05
4.0095e-05
4.00714e-05
4.00319e-05
4.03498e-05
4.11112e-05
4.22407e-05
4.00086e-05
2.84309e-05
7.3452e-06
9.78453e-08
0
0
0
0
7.03538e-05
0.00225702
0.00838816
0.0320595
0.0755128
0.135038
0.201046
0.262219
0.308989
0.336003
0.340446
0.321378
0.276439
0.20879
0.131622
0.0629542
0.0193674
0.00528936
0.000114246
0
0
0
8.2252e-07
1.71355e-06
2.81363e-05
4.23304e-05
4.35821e-05
4.08716e-05
3.97115e-05
3.98651e-05
4.01139e-05
4.01481e-05
4.0123e-05
4.01221e-05
4.01298e-05
4.01305e-05
4.01279e-05
4.01261e-05
4.01252e-05
4.01238e-05
4.01218e-05
4.01193e-05
4.01164e-05
4.01129e-05
4.01085e-05
4.01024e-05
4.00945e-05
4.00864e-05
4.00793e-05
4.0072e-05
4.00636e-05
4.00534e-05
4.00419e-05
4.0029e-05
4.00166e-05
4.00099e-05
4.00196e-05
4.00195e-05
4.00914e-05
4.01133e-05
4.01045e-05
4.01049e-05
4.01054e-05
4.01071e-05
4.01088e-05
4.01056e-05
4.00804e-05
4.00347e-05
4.01107e-05
4.05119e-05
4.17929e-05
4.16622e-05
3.69158e-05
1.4109e-05
3.73489e-06
1.19051e-08
0
0
0
0
8.41457e-05
0.00259275
0.00966463
0.0367724
0.0836418
0.145927
0.21279
0.272051
0.31416
0.33346
0.328612
0.297631
0.240646
0.166215
0.0914653
0.0349141
0.00500544
0.00149496
2.0171e-05
0
0
5.05584e-08
4.87708e-06
1.8742e-05
3.90247e-05
4.4149e-05
4.17938e-05
3.99708e-05
3.98882e-05
4.01744e-05
4.02105e-05
4.0138e-05
4.0111e-05
4.0122e-05
4.01318e-05
4.01324e-05
4.01301e-05
4.01281e-05
4.01262e-05
4.01237e-05
4.01208e-05
4.01173e-05
4.0113e-05
4.0107e-05
4.00991e-05
4.00909e-05
4.00834e-05
4.00757e-05
4.00672e-05
4.00568e-05
4.0045e-05
4.00316e-05
4.00185e-05
4.00101e-05
4.0019e-05
4.00187e-05
4.00916e-05
4.01169e-05
4.01051e-05
4.01055e-05
4.01058e-05
4.01061e-05
4.01072e-05
4.01085e-05
4.01106e-05
4.00942e-05
4.00649e-05
4.00089e-05
4.02563e-05
4.09176e-05
4.23531e-05
3.93896e-05
3.10208e-05
1.62365e-06
5.65551e-07
0
0
0
0
0
0.000102476
0.00338803
0.0127981
0.0445895
0.0964042
0.161835
0.228599
0.283754
0.318361
0.327295
0.310213
0.265421
0.197343
0.120752
0.0545628
0.0144027
0.000836804
0.000271818
0
0
0
2.39678e-06
8.49001e-06
3.32841e-05
4.3638e-05
4.22867e-05
3.97353e-05
3.93977e-05
3.99768e-05
4.02605e-05
4.0223e-05
4.01466e-05
4.01257e-05
4.01306e-05
4.01342e-05
4.01332e-05
4.01309e-05
4.01283e-05
4.01253e-05
4.01218e-05
4.01175e-05
4.01117e-05
4.01039e-05
4.00955e-05
4.00877e-05
4.00797e-05
4.0071e-05
4.00603e-05
4.00482e-05
4.00344e-05
4.00206e-05
4.00106e-05
4.00184e-05
4.00179e-05
4.00918e-05
4.01204e-05
4.01062e-05
4.01065e-05
4.01069e-05
4.01072e-05
4.01076e-05
4.0108e-05
4.01098e-05
4.01111e-05
4.0109e-05
4.00818e-05
4.00372e-05
4.005e-05
4.05282e-05
4.15388e-05
4.21547e-05
3.6714e-05
2.19267e-05
5.71095e-06
1.27365e-07
0
0
0
0
0
0.000573545
0.00184912
0.0186448
0.056459
0.114181
0.182347
0.246933
0.294838
0.318013
0.313832
0.280999
0.221424
0.146064
0.0741135
0.0256058
0.00322857
0.000746653
0
0
0
2.65939e-07
7.02613e-06
2.79982e-05
4.44945e-05
4.58736e-05
4.15822e-05
3.94452e-05
3.95203e-05
4.00071e-05
4.01858e-05
4.01729e-05
4.01438e-05
4.01366e-05
4.01369e-05
4.0136e-05
4.01336e-05
4.01305e-05
4.0127e-05
4.01227e-05
4.01171e-05
4.01094e-05
4.0101e-05
4.00928e-05
4.00843e-05
4.00753e-05
4.00645e-05
4.00522e-05
4.00378e-05
4.00234e-05
4.00116e-05
4.00176e-05
4.00169e-05
4.00908e-05
4.0124e-05
4.01071e-05
4.01074e-05
4.01078e-05
4.01081e-05
4.01085e-05
4.01089e-05
4.01093e-05
4.01103e-05
4.01122e-05
4.0114e-05
4.01014e-05
4.00649e-05
4.00091e-05
4.02389e-05
4.09296e-05
4.23548e-05
4.08611e-05
3.40833e-05
1.63689e-05
4.33183e-06
1.26073e-07
0
0
0
0
2.0819e-05
0.00152889
0.00563843
0.0284769
0.0743182
0.139115
0.210489
0.272617
0.312668
0.32269
0.301688
0.249552
0.174078
0.0944626
0.0310691
0.0092917
0.00105704
0.000451086
0.000151607
3.01957e-05
0
1.13242e-06
9.68737e-07
3.17029e-05
4.40133e-05
4.38652e-05
4.11174e-05
3.99898e-05
3.99671e-05
4.01092e-05
4.01532e-05
4.01485e-05
4.0142e-05
4.01395e-05
4.01375e-05
4.01345e-05
4.0131e-05
4.01267e-05
4.01212e-05
4.01137e-05
4.01053e-05
4.00968e-05
4.00879e-05
4.00787e-05
4.00678e-05
4.00551e-05
4.00405e-05
4.00252e-05
4.00123e-05
4.00175e-05
4.00163e-05
4.00919e-05
4.01266e-05
4.01081e-05
4.01085e-05
4.01089e-05
4.01094e-05
4.01099e-05
4.01104e-05
4.01108e-05
4.01114e-05
4.01119e-05
4.01138e-05
4.01157e-05
4.01171e-05
4.009e-05
4.00521e-05
4.00222e-05
4.04455e-05
4.13927e-05
4.23493e-05
4.04449e-05
3.37297e-05
1.53047e-05
3.79651e-06
0
0
0
0
0
6.72088e-05
0.00173181
0.00594144
0.0276466
0.0690197
0.125988
0.188292
0.242951
0.278966
0.288118
0.26777
0.219576
0.153636
0.0889941
0.0431645
0.0175086
0.005594
0.00105938
0.000240227
0
3.23056e-08
5.39337e-06
2.04186e-05
3.52478e-05
4.04765e-05
4.0808e-05
4.03238e-05
4.01369e-05
4.0134e-05
4.01498e-05
4.0152e-05
4.01495e-05
4.01468e-05
4.01439e-05
4.01403e-05
4.0136e-05
4.01307e-05
4.01234e-05
4.01152e-05
4.01064e-05
4.00967e-05
4.00868e-05
4.00754e-05
4.00625e-05
4.00468e-05
4.00309e-05
4.00148e-05
4.00174e-05
4.0015e-05
4.00869e-05
4.01332e-05
)
;

boundaryField
{
    inlet
    {
        type            freestream;
        freestreamValue uniform 4e-05;
        value           nonuniform List<scalar> 
27
(
4.00638e-05
4.00644e-05
4.00652e-05
4.00662e-05
4.00673e-05
4.00686e-05
4.00701e-05
4.00718e-05
4.00736e-05
4.00756e-05
4.00779e-05
4.00803e-05
4.00829e-05
4.00856e-05
4.00886e-05
4.00916e-05
4.00949e-05
4.00984e-05
4.01021e-05
4.01058e-05
4.01096e-05
4.01133e-05
4.01169e-05
4.01204e-05
4.0124e-05
4.01266e-05
4.01332e-05
)
;
    }
    outlet
    {
        type            freestream;
        freestreamValue uniform 4e-05;
        value           nonuniform List<scalar> 
78
(
4.01081e-05
4.01085e-05
4.01089e-05
4.01094e-05
4.01099e-05
4.01104e-05
4.01108e-05
4.01114e-05
4.01119e-05
4.01138e-05
4.01157e-05
4.01171e-05
4.009e-05
4.00521e-05
4.00222e-05
4.04455e-05
4.13927e-05
4.23493e-05
4.04449e-05
3.37297e-05
1.53047e-05
3.79651e-06
0
0
0
0
0
6.72088e-05
0.00173181
0.00594144
0.0276466
0.0690197
0.125988
0.188292
0.242951
0.278966
0.288118
0.26777
0.219576
0.153636
0.0889941
0.0431645
0.0175086
0.005594
0.00105938
0.000240227
0
3.23056e-08
5.39337e-06
2.04186e-05
3.52478e-05
4.04765e-05
4.0808e-05
4.03238e-05
4.01369e-05
4.0134e-05
4.01498e-05
4.0152e-05
4.01495e-05
4.01468e-05
4.01439e-05
4.01403e-05
4.0136e-05
4.01307e-05
4.01234e-05
4.01152e-05
4.01064e-05
4.00967e-05
4.00868e-05
4.00754e-05
4.00625e-05
4.00468e-05
4.00309e-05
4.00148e-05
4.00174e-05
4.0015e-05
4.00869e-05
4.01332e-05
)
;
    }
    walls
    {
        type            fixedValue;
        value           nonuniform List<scalar> 0();
    }
    frontAndBack
    {
        type            empty;
    }
    procBoundary7to3
    {
        type            processor;
        value           nonuniform List<scalar> 
16
(
3.94321e-05
4.33042e-05
4.04934e-05
3.99081e-05
4.01147e-05
4.01429e-05
4.01176e-05
4.01088e-05
4.01058e-05
4.01058e-05
4.01043e-05
4.01041e-05
4.01048e-05
4.01059e-05
4.01068e-05
4.01077e-05
)
;
    }
    procBoundary7to6
    {
        type            processor;
        value           nonuniform List<scalar> 
91
(
4.00634e-05
4.00641e-05
4.00641e-05
4.00293e-05
4.00293e-05
4.00257e-05
4.00257e-05
4.00088e-05
4.0013e-05
4.0013e-05
4.00175e-05
4.00097e-05
4.00097e-05
4.00409e-05
4.00339e-05
4.00262e-05
4.00262e-05
4.00581e-05
4.00528e-05
4.0048e-05
4.0048e-05
4.0081e-05
4.00771e-05
4.0072e-05
4.00658e-05
4.00658e-05
4.00929e-05
4.00915e-05
4.00898e-05
4.00878e-05
4.00855e-05
4.00855e-05
4.00976e-05
4.00976e-05
4.00976e-05
4.00974e-05
4.0097e-05
4.00965e-05
4.00956e-05
4.00956e-05
4.01039e-05
4.01028e-05
4.01017e-05
4.01009e-05
4.01003e-05
4.00999e-05
4.00997e-05
4.00995e-05
4.00994e-05
4.00994e-05
4.00993e-05
4.00993e-05
4.00993e-05
3.72156e-08
0
0
0.00119609
0.00468769
0.0288165
0.0763541
0.137267
0.199231
0.254672
0.300023
0.333844
0.356264
0.36907
0.374833
0.37463
0.360942
0.325326
0.262644
0.176789
0.0878923
0.0258789
0.00677237
3.07759e-05
0
0
0
6.47639e-06
2.5808e-05
4.17624e-05
4.27903e-05
4.04485e-05
3.98159e-05
4.00414e-05
4.01508e-05
4.01245e-05
4.01029e-05
4.01029e-05
)
;
    }
}


// ************************************************************************* //
