/*--------------------------------*- C++ -*----------------------------------*\
| =========                 |                                                 |
| \\      /  F ield         | OpenFOAM: The Open Source CFD Toolbox           |
|  \\    /   O peration     | Version:  2306                                  |
|   \\  /    A nd           | Website:  www.openfoam.com                      |
|    \\/     M anipulation  |                                                 |
\*---------------------------------------------------------------------------*/
FoamFile
{
    version     2.0;
    format      ascii;
    arch        "LSB;label=32;scalar=64";
    class       volScalarField;
    location    "375";
    object      turbulenceProperties:L;
}
// * * * * * * * * * * * * * * * * * * * * * * * * * * * * * * * * * * * * * //

dimensions      [0 1 0 0 0 0 0];

internalField   nonuniform List<scalar> 
1340
(
0.222829
0.255622
0.221222
0.259562
0.259698
0.221257
0.401814
0.261244
0.262507
0.220804
0.425066
0.313718
0.403707
0.262612
0.264974
0.220063
0.356303
0.328734
0.431603
0.316647
0.405693
0.263867
0.267022
0.219318
0.300019
0.320219
0.32022
0.363664
0.333415
0.438799
0.319588
0.407653
0.264959
0.268524
0.218628
0.279127
0.28815
0.300322
0.306783
0.327646
0.326349
0.371624
0.338354
0.446618
0.32247
0.409594
0.265856
0.269485
0.218004
0.247781
0.256677
0.266171
0.276231
0.287251
0.295994
0.308333
0.314131
0.33569
0.332945
0.380207
0.343547
0.455076
0.325313
0.411504
0.266602
0.27002
0.217353
0.220288
0.226926
0.23395
0.241368
0.249197
0.257459
0.266162
0.275465
0.28527
0.296164
0.304582
0.317093
0.322144
0.344441
0.340068
0.389498
0.349036
0.464228
0.328168
0.413346
0.267247
0.270213
0.216781
0.195687
0.199894
0.2044
0.209221
0.21436
0.219829
0.225635
0.231787
0.238295
0.245172
0.252433
0.26009
0.268166
0.276646
0.285727
0.295231
0.305964
0.313996
0.326685
0.330891
0.353969
0.347763
0.399552
0.354846
0.474097
0.331061
0.415125
0.267813
0.269962
0.21622
0.178559
0.180025
0.181633
0.183402
0.185348
0.18749
0.18984
0.192412
0.19522
0.198272
0.201583
0.205163
0.20902
0.213166
0.217606
0.222353
0.22741
0.232786
0.238486
0.244515
0.250882
0.2576
0.264685
0.272144
0.280007
0.288228
0.297049
0.306196
0.316723
0.324297
0.337167
0.34042
0.36432
0.356058
0.410409
0.360986
0.484671
0.333985
0.416882
0.268311
0.269477
0.215672
5.04127
2.45371
0
0
0.0915777
0.187553
0.7065
0.680263
0.706169
0.741968
0.788215
0.852113
0.950237
1.12614
1.54719
4.83401
1.61163
1.18129
1.01195
0.920072
0.855039
0.791827
0.698822
0.318902
0.278666
0
0
0
2.92389
0.417247
0.182496
0.173817
0.184229
0.189934
0.190462
0.190977
0.192275
0.193723
0.195171
0.196728
0.198449
0.200346
0.202434
0.204734
0.207261
0.210029
0.213045
0.216318
0.21986
0.223679
0.22778
0.232169
0.236856
0.241841
0.247129
0.252723
0.258625
0.264839
0.271381
0.278265
0.285495
0.293108
0.301024
0.309539
0.31826
0.328525
0.335556
0.348606
0.350781
0.375551
0.364989
0.422091
0.367487
0.495944
0.337
0.418555
0.268771
0.268726
0.215133
0.239822
2.07348
8.00622
0
0
1.85912
0.340189
1.002
0.713866
0.728682
0.763311
0.808519
0.869509
0.960013
1.11431
1.44731
2.95529
1.95206
1.30747
1.08838
0.9759
0.901089
0.834731
0.743516
0.489518
0.473802
0
0
0
6.07423
0.948738
0.209687
0.186982
0.198067
0.207179
0.208675
0.208963
0.210198
0.211727
0.213229
0.21485
0.216692
0.218751
0.22102
0.223516
0.226258
0.229254
0.23251
0.236036
0.239838
0.243916
0.248273
0.252915
0.257839
0.263046
0.268534
0.2743
0.280348
0.286686
0.293337
0.300295
0.307613
0.315164
0.323314
0.331525
0.341459
0.347846
0.361069
0.362027
0.387702
0.374573
0.434638
0.374361
0.507973
0.340076
0.420304
0.269216
0.267965
0.214565
0.238674
0.256062
1.04308
7.24602
0
0
0
0.184089
0.528269
0.765091
0.750063
0.782404
0.826852
0.885545
0.969746
1.10698
1.38027
2.26607
2.54007
1.46371
1.17508
1.03704
0.950905
0.878894
0.786711
0.59854
0.704716
0
0
0
1.96518
9.00645
0.273228
0.207396
0.214189
0.22555
0.22816
0.228076
0.229277
0.231184
0.232989
0.234748
0.236707
0.238944
0.24144
0.244184
0.247186
0.25045
0.253989
0.257799
0.26188
0.266229
0.270844
0.27572
0.280851
0.286228
0.291847
0.2977
0.303802
0.310168
0.316795
0.323755
0.330858
0.338563
0.346167
0.355667
0.361292
0.374664
0.374255
0.400851
0.384893
0.448085
0.381617
0.52074
0.343372
0.422181
0.269541
0.267177
0.21397
0.268672
0.257005
0.267579
0.635086
4.9565
0
0
0
0.164201
0.416682
0.940836
0.776578
0.799861
0.843195
0.900101
0.97928
1.10311
1.33427
1.95212
3.89823
1.65635
1.27043
1.10144
1.00189
0.923268
0.831103
0.685002
0.892877
0
0
0
0.00101179
2.27691
0.337302
0.231249
0.231805
0.246613
0.252125
0.250781
0.250364
0.251942
0.254165
0.256342
0.258567
0.261034
0.263805
0.266861
0.270183
0.273778
0.27764
0.281765
0.28614
0.29076
0.29561
0.300674
0.305939
0.31139
0.317021
0.322833
0.328851
0.335071
0.341583
0.348143
0.355295
0.362168
0.371135
0.375835
0.389347
0.387375
0.414992
0.395809
0.462556
0.389145
0.535282
0.346535
0.424826
0.269877
0.266271
0.213158
0.287179
0.288262
0.27353
0.285134
0.428723
3.30099
0.00088641
0
0
0
0.239113
0.84511
0.82554
0.819273
0.859176
0.914241
0.988742
1.1002
1.29498
1.74293
4.81246
1.95783
1.39279
1.17557
1.0553
0.965028
0.865785
0.704429
1.3654
0.145836
0
0
0
3.30143
0.507592
0.264662
0.245206
0.257278
0.272425
0.277308
0.276811
0.277043
0.278902
0.281442
0.284097
0.286896
0.289961
0.293337
0.296997
0.300909
0.305081
0.309479
0.314088
0.31889
0.32385
0.328954
0.334167
0.339497
0.344917
0.350465
0.356148
0.362059
0.36792
0.374374
0.380307
0.388588
0.392163
0.405705
0.402007
0.430475
0.40797
0.47776
0.397643
0.548868
0.350352
0.426784
0.270434
0.265455
0.212652
0.306187
0.310795
0.307658
0.303534
0.309598
0.350478
1.12706
7.14829
1.87629e-05
0
0
0.142244
0.495006
1.06144
0.852085
0.871803
0.920962
0.988166
1.08265
1.23152
1.51293
2.31011
3.52579
1.75441
1.3658
1.18556
1.07266
0.976531
0.892648
0.700279
0.719533
0.15637
0
0
0.564837
4.43391
0.809956
0.331831
0.286313
0.291299
0.305284
0.312163
0.312901
0.313448
0.315557
0.318525
0.321702
0.325057
0.328677
0.332568
0.336726
0.341076
0.345584
0.350213
0.354938
0.359712
0.364483
0.369256
0.37399
0.378748
0.383519
0.388444
0.39318
0.398511
0.403079
0.410141
0.412298
0.425365
0.419905
0.448199
0.423107
0.493128
0.409495
0.55988
0.358832
0.437181
0.276721
0.272348
0.22064
0.332901
0.335913
0.334906
0.336788
0.338362
0.331378
0.348626
0.43718
5.65182
1.23639
0
0
0
0.0936394
0.480958
1.11669
0.880662
0.907182
0.964596
1.04242
1.15228
1.32818
1.67217
2.77644
3.09136
1.77406
1.41459
1.23585
1.11939
1.02048
0.926693
0.631498
0.497339
0
0
0
0.117277
4.77756
0.783834
0.372315
0.330406
0.338852
0.354448
0.360417
0.360787
0.362014
0.365003
0.368656
0.372413
0.37634
0.380498
0.384796
0.389188
0.393558
0.397866
0.402036
0.405991
0.409736
0.413198
0.416507
0.419629
0.422806
0.425622
0.429044
0.431465
0.43663
0.436628
0.448902
0.440859
0.469152
0.439813
0.511747
0.420629
0.572488
0.363644
0.436585
0.277302
0.269254
0.219724
0.365143
0.367569
0.364993
0.366778
0.371321
0.372874
0.368283
0.363304
0.400629
0.710592
5.25177
0.000192568
0
0
0
0.0889764
0.434536
1.17418
0.900449
0.936479
1.00478
1.09667
1.22828
1.44492
1.89484
3.82143
2.67062
1.75368
1.43872
1.26901
1.15069
1.0405
0.900674
1.90539
0.183495
0
0
0
0.130727
3.93316
0.627666
0.405511
0.387733
0.40455
0.418704
0.421578
0.422217
0.425018
0.429192
0.433597
0.437924
0.44223
0.446478
0.450426
0.453997
0.457061
0.459522
0.461373
0.462589
0.463364
0.463705
0.464023
0.463853
0.464428
0.463808
0.466432
0.463569
0.474726
0.463437
0.491793
0.457172
0.531989
0.431334
0.588353
0.367534
0.438022
0.277065
0.26705
0.218934
0.405601
0.401759
0.402611
0.406219
0.410141
0.412399
0.410599
0.40043
0.40822
0.481547
1.99427
5.77756
0
0
0
0
0.0881516
0.442092
1.16114
0.917333
0.967596
1.05038
1.16174
1.32459
1.60252
2.24128
8.86018
2.374
1.72016
1.44896
1.28816
1.16012
1.03556
0.821697
0.90147
0
0
0
0
7.20933
1.54425
0.547182
0.463138
0.469837
0.491578
0.50079
0.502161
0.504664
0.509224
0.514029
0.518339
0.522073
0.524926
0.526791
0.52748
0.526902
0.525131
0.522277
0.51874
0.514601
0.510556
0.506087
0.502791
0.498296
0.497813
0.491643
0.501303
0.486499
0.514617
0.474533
0.551942
0.44158
0.603718
0.370793
0.440068
0.276476
0.26589
0.21822
0.451201
0.445835
0.446283
0.449103
0.451697
0.454834
0.457665
0.457487
0.451342
0.441258
0.466584
0.712485
5.01074
0.000195208
0
0
0
0
0.0887546
0.49717
1.09349
0.9408
1.00787
1.10868
1.24514
1.45069
1.823
2.85326
4.3219
2.16383
1.68126
1.44544
1.28884
1.14924
1.00969
1.75338
0.177705
0
0
0
0.184418
0.988216
0.884113
0.601884
0.576685
0.600156
0.61815
0.621641
0.62308
0.626477
0.629812
0.631421
0.630688
0.627635
0.622214
0.614525
0.605096
0.594376
0.583215
0.571856
0.561254
0.550807
0.542453
0.533302
0.529225
0.519546
0.527258
0.508963
0.536271
0.491148
0.569898
0.451047
0.615914
0.373528
0.442185
0.275602
0.265725
0.217401
0.505702
0.499039
0.499027
0.501555
0.503719
0.50632
0.50811
0.511376
0.513624
0.511204
0.497017
0.497614
0.567388
2.12488
5.38863
3.94099e-07
0
0
0
0
0.0921835
0.597129
0.985769
0.969596
1.05979
1.18351
1.35321
1.62019
2.15597
4.43848
3.04776
2.00509
1.63642
1.42751
1.26917
1.11091
0.835438
0.764491
0.469705
0
0
2.43087e-05
6.3898
1.86476
0.850985
0.760774
0.779841
0.816084
0.82899
0.827988
0.823359
0.814773
0.799914
0.779418
0.755318
0.729424
0.703231
0.677755
0.65398
0.632056
0.612713
0.594963
0.580827
0.566803
0.559123
0.546295
0.551944
0.530494
0.556605
0.507074
0.586431
0.460021
0.626747
0.375927
0.444927
0.274669
0.266897
0.216376
0.550711
0.544332
0.543234
0.545688
0.548167
0.550056
0.551096
0.553436
0.556068
0.559562
0.558754
0.55215
0.535694
0.569956
0.747701
0.596379
0.0398122
0
0
0
0
0
0.100862
0.862814
0.943321
1.01141
1.12881
1.28104
1.49676
1.86077
2.73854
7.13872
2.51352
1.88041
1.58816
1.39783
1.22878
1.0438
3.25348
0.275744
0
0
0
0.807934
3.73874
2.05668
1.68187
1.51991
1.48734
1.44578
1.32778
1.19608
1.08396
0.990979
0.913322
0.848602
0.794735
0.749462
0.711438
0.678959
0.651677
0.627708
0.608824
0.591219
0.580761
0.566036
0.56954
0.546359
0.569942
0.518686
0.594905
0.46634
0.628739
0.37725
0.448292
0.273521
0.270654
0.214279
0.608951
0.599969
0.59909
0.602173
0.605013
0.605654
0.605187
0.608925
0.609759
0.610971
0.614444
0.616414
0.610458
0.598868
0.591188
0.669513
1.25177
6.36546
0.000589623
0
0
0
0
0
0.241331
1.19538
0.959106
1.07234
1.21938
1.40987
1.69546
2.24114
4.28525
3.45491
2.19002
1.76606
1.52691
1.34424
1.20086
1.24693
0.44327
0
0
0
0.00260264
5.14408
2.38714
1.13362
1.24817
1.45035
1.38951
1.22757
1.09327
0.9954
0.92029
0.858757
0.80739
0.763983
0.727465
0.696095
0.669468
0.645849
0.626947
0.609569
0.599298
0.585344
0.588826
0.56515
0.588449
0.534611
0.613842
0.476492
0.649144
0.380798
0.457242
0.273714
0.277998
0.210955
0.585193
0.581059
0.581412
0.584523
0.587526
0.589588
0.590807
0.594083
0.596282
0.598874
0.602963
0.606604
0.609367
0.610362
0.60697
0.596153
0.6184
0.732958
1.78541
6.89041
0.000806256
0
0
0
0
0.274163
0.448533
1.08734
1.01883
1.15838
1.33394
1.57195
1.95952
2.85971
7.26122
2.67665
1.97384
1.63447
1.38731
1.09064
1.13823
0.553473
0.300092
0.224363
0.514389
0
0.0332056
0.0302864
1.01661
0.739795
0.764111
0.812188
0.820308
0.799984
0.773453
0.747377
0.722203
0.698053
0.675537
0.654764
0.635942
0.61843
0.603667
0.590025
0.581775
0.570857
0.573034
0.553674
0.571529
0.526148
0.592016
0.471148
0.628918
0.377222
0.469453
0.271192
0.29182
0.200491
0.63147
0.629356
0.62864
0.627426
0.626627
0.625819
0.624249
0.622368
0.620801
0.619918
0.619072
0.617543
0.61618
0.61473
0.613481
0.607278
0.597319
0.591217
0.61561
0.710945
1.80487
6.98986
0
0
0
0
0
0.10967
0.55193
1.0057
1.07096
1.23372
1.43444
1.71247
2.18125
3.35815
6.43171
2.84204
2.17403
1.85383
1.65909
1.58553
1.76144
3.96749
0.810783
0.44734
0
3.11707e-06
5.87421
1.51553
0.761712
0.672503
0.671183
0.677446
0.676638
0.671495
0.665056
0.658173
0.651081
0.643961
0.637004
0.629812
0.623497
0.617002
0.615286
0.611412
0.620294
0.603212
0.629761
0.575679
0.672251
0.509645
0.768507
0.399363
0.515966
0.284315
0.292129
0.201782
)
;

boundaryField
{
    inlet
    {
        type            calculated;
        value           nonuniform List<scalar> 
27
(
0.0874114
0.0873538
0.0872482
0.0871087
0.086961
0.0868088
0.086648
0.0864799
0.0863054
0.086131
0.0859575
0.0857881
0.0856262
0.0854753
0.0853395
0.0852228
0.0851234
0.0853274
0.0853011
0.0853128
0.0853836
0.0855211
0.0857447
0.086066
0.0865342
0.0870077
0.0879907
)
;
    }
    outlet
    {
        type            calculated;
        value           nonuniform List<scalar> 
78
(
0.700427
0.696394
0.694628
0.692059
0.690141
0.688217
0.685054
0.681429
0.678321
0.676285
0.674305
0.671321
0.668444
0.665458
0.662836
0.655114
0.643915
0.637822
0.664491
0.763498
1.90297
6.83095
0
0
0
0
0
0.109415
0.552576
1.03547
1.07579
1.23592
1.4353
1.71185
2.17754
3.34037
6.6507
2.85671
2.1797
1.85633
1.65945
1.58316
1.7503
4.88548
0.830122
0.458704
0
2.55831e-06
5.48675
1.60504
0.803456
0.708746
0.707894
0.715694
0.716659
0.71362
0.709668
0.705548
0.701412
0.697281
0.693324
0.688705
0.685122
0.68027
0.682526
0.678899
0.69743
0.668122
0.720836
0.624294
0.820995
0.532311
1.48156
0.407059
0.545223
0.289215
0.291776
0.207398
)
;
    }
    walls
    {
        type            calculated;
        value           nonuniform List<scalar> 0();
    }
    frontAndBack
    {
        type            empty;
    }
    procBoundary7to3
    {
        type            processor;
        value           nonuniform List<scalar> 
16
(
0.200318
0.199248
0.226619
0.245407
0.260983
0.282211
0.311488
0.34466
0.40363
0.40363
0.449486
0.503525
0.548006
0.608252
0.579608
0.636215
)
;
    }
    procBoundary7to6
    {
        type            processor;
        value           nonuniform List<scalar> 
91
(
0.223099
0.251494
0.251494
0.257026
0.257026
0.400211
0.400211
0.41921
0.310865
0.310865
0.349608
0.324367
0.324367
0.293808
0.313382
0.314541
0.314541
0.271687
0.280949
0.292963
0.292963
0.239013
0.248076
0.257734
0.268011
0.268011
0.209895
0.216658
0.223815
0.231375
0.239357
0.239357
0.183532
0.187816
0.192402
0.197306
0.202536
0.208103
0.214017
0.214017
0.164543
0.166064
0.167729
0.169556
0.171563
0.173762
0.176169
0.178799
0.181662
0.184769
0.188135
0.191772
0.191772
0.000116335
0
0
0.238853
0.991059
0.65031
0.655251
0.682545
0.718493
0.765875
0.833164
0.940175
1.14301
1.70088
2.93467
1.38193
1.07597
0.94317
0.868035
0.811336
0.748412
0.658101
0.90458
0.254017
0
0
0
1.86272
0.264947
0.161185
0.159883
0.169012
0.172979
0.173591
0.174478
0.175827
0.177193
0.177193
)
;
    }
}


// ************************************************************************* //
