/*--------------------------------*- C++ -*----------------------------------*\
| =========                 |                                                 |
| \\      /  F ield         | OpenFOAM: The Open Source CFD Toolbox           |
|  \\    /   O peration     | Version:  2306                                  |
|   \\  /    A nd           | Website:  www.openfoam.com                      |
|    \\/     M anipulation  |                                                 |
\*---------------------------------------------------------------------------*/
FoamFile
{
    version     2.0;
    format      ascii;
    arch        "LSB;label=32;scalar=64";
    class       volScalarField;
    location    "425";
    object      div(phi);
}
// * * * * * * * * * * * * * * * * * * * * * * * * * * * * * * * * * * * * * //

dimensions      [0 0 -1 0 0 0 0];

internalField   nonuniform List<scalar> 
1340
(
1.26075e-08
1.96052e-08
3.84043e-09
2.11534e-08
3.6899e-09
5.04134e-09
1.41643e-08
1.36354e-09
7.11289e-09
1.87898e-09
9.38415e-09
1.547e-08
-1.99896e-09
7.06388e-09
1.10984e-09
3.58617e-09
-1.21604e-08
2.18391e-08
-1.88707e-09
-2.22759e-09
6.24662e-09
-7.928e-10
4.95e-09
7.39937e-10
1.5567e-09
-9.85748e-09
2.50425e-09
-4.61127e-09
-6.53229e-09
3.53372e-09
7.50376e-09
-2.24955e-09
4.97468e-09
-4.20661e-10
2.50587e-09
7.17784e-09
-2.26204e-08
8.01683e-09
-3.6184e-09
-2.43063e-09
-1.24732e-08
-1.55691e-09
6.37814e-09
-9.22149e-10
-2.57001e-09
6.01779e-09
-1.96731e-09
3.64988e-09
6.4241e-11
3.44407e-08
-1.3263e-08
-1.56534e-08
1.93553e-08
-1.78584e-08
4.51117e-10
-3.97005e-09
4.39229e-10
-7.71787e-09
3.25177e-09
-3.13829e-09
-6.84132e-09
3.17048e-09
7.45295e-09
-2.65491e-09
4.43416e-09
-1.21914e-09
1.96232e-09
2.27953e-08
-5.46122e-08
5.39582e-08
-4.66091e-08
3.1972e-08
-1.78625e-08
1.18462e-08
7.25143e-09
-1.44845e-08
2.66813e-10
-8.66371e-09
5.13252e-09
-1.96383e-09
1.22362e-09
-1.06512e-08
-2.0262e-09
5.86417e-09
-3.26248e-10
-3.2597e-09
6.28068e-09
-2.42893e-09
3.00993e-09
-3.07208e-10
-2.68466e-08
-2.07848e-08
-2.58569e-08
-3.4727e-08
-1.59193e-08
-3.5468e-08
-1.39358e-08
-2.17603e-08
6.43353e-09
-1.71522e-08
2.04208e-08
-1.22688e-08
2.36274e-08
-1.5818e-09
5.82782e-09
1.04732e-08
-5.19469e-09
5.85389e-09
-1.8035e-09
1.47936e-09
-8.05518e-09
3.73766e-09
-1.89977e-09
-6.9013e-09
2.44351e-09
7.16841e-09
-3.12362e-09
3.95165e-09
-1.5852e-09
1.41378e-09
-2.98712e-07
8.9831e-08
-1.23794e-07
4.77399e-08
-9.51518e-08
3.00699e-08
-5.62797e-08
1.63087e-08
-4.78695e-08
-2.22492e-09
-4.11139e-08
-1.04897e-08
-2.76025e-08
-1.97986e-08
-2.52911e-08
-2.86564e-08
-1.59216e-08
-2.70286e-08
-1.14668e-08
-8.42732e-09
-7.21249e-09
1.00301e-08
-1.88032e-09
1.95623e-08
-4.95412e-09
2.12039e-08
1.40716e-08
8.75717e-09
6.98919e-09
-6.91632e-10
6.85591e-09
-8.00506e-10
7.91179e-09
-8.56803e-09
-3.0156e-09
5.62888e-09
-5.89279e-11
-3.83219e-09
5.65556e-09
-2.69065e-09
2.47271e-09
-5.09654e-10
-1.11524e-06
1.55452e-06
2.69258e-07
1.05544e-06
3.16344e-08
8.50438e-07
-8.49545e-08
6.90093e-07
-1.72016e-07
5.58864e-07
-1.88551e-07
4.80827e-07
-2.04652e-07
4.35539e-07
-1.98598e-07
4.13812e-07
-2.04418e-07
3.89865e-07
-1.94641e-07
3.76116e-07
-1.99301e-07
3.68095e-07
-2.04186e-07
3.52407e-07
-2.01241e-07
3.22701e-07
-2.0813e-07
2.82543e-07
-1.91943e-07
2.19855e-07
-2.11983e-07
1.52443e-07
-2.23245e-07
1.08061e-07
-2.05813e-07
6.96832e-08
-1.63858e-07
4.34183e-08
-1.26933e-07
2.86242e-08
-9.34691e-08
1.31047e-08
-6.74518e-08
-6.056e-09
-5.86843e-08
-1.76709e-08
-4.78987e-08
-2.50314e-08
-3.36451e-08
-3.11926e-08
-2.9179e-08
-2.74641e-08
-2.40873e-08
-2.53977e-08
-1.61872e-08
-1.99774e-08
-1.1579e-08
-3.83803e-09
-2.48759e-09
4.81207e-09
-3.13561e-09
1.60833e-08
7.4092e-09
1.4068e-08
9.86953e-09
4.98602e-09
1.12736e-08
3.49647e-09
1.11722e-08
-5.42394e-09
7.48445e-09
4.92645e-10
-5.96735e-09
1.06253e-09
6.23438e-09
-3.70134e-09
3.76573e-09
-1.73493e-09
1.17862e-09
-2.11643e-06
9.89064e-07
-4.16884e-07
7.11639e-07
-4.63632e-07
5.94646e-07
-4.65211e-07
5.09359e-07
-4.59798e-07
4.23395e-07
-4.12156e-07
3.53459e-07
-3.73463e-07
3.07001e-07
-3.38328e-07
2.82409e-07
-3.08019e-07
2.58109e-07
-2.7217e-07
2.34056e-07
-2.44629e-07
2.16758e-07
-2.22744e-07
2.03527e-07
-2.00425e-07
1.85382e-07
-1.78641e-07
1.60373e-07
-1.54551e-07
1.37098e-07
-1.61852e-07
1.15873e-07
-1.28941e-07
8.83462e-08
-1.33564e-07
6.10861e-08
-1.22277e-07
3.69287e-08
-1.00377e-07
1.46011e-08
-8.78975e-08
-8.77276e-10
-7.32097e-08
-8.52297e-09
-5.39221e-08
-1.89934e-08
-4.07215e-08
-2.47968e-08
-3.59008e-08
-2.30175e-08
-2.51679e-08
-2.68153e-08
-1.92214e-08
-2.12232e-08
-1.86213e-08
-1.79973e-08
-1.3076e-08
-1.07079e-08
-8.66025e-09
-5.29987e-09
1.21815e-11
-1.76261e-10
5.20586e-09
5.98394e-09
5.39919e-09
6.77018e-09
3.91583e-09
1.03178e-08
1.47677e-09
1.45431e-08
-4.52007e-09
-2.22925e-09
4.36564e-09
9.3686e-10
-4.40794e-09
5.23675e-09
-2.92405e-09
2.29356e-09
-5.74396e-10
-2.11657e-06
1.00873e-06
-3.76638e-07
6.24981e-07
-4.82015e-07
4.75381e-07
-5.10598e-07
4.05191e-07
-4.98375e-07
3.56266e-07
-4.57294e-07
3.03877e-07
-4.0079e-07
2.58207e-07
-3.51603e-07
2.23232e-07
-3.14654e-07
1.94876e-07
-2.79075e-07
1.69432e-07
-2.4755e-07
1.48401e-07
-2.19515e-07
1.36516e-07
-2.00461e-07
1.25848e-07
-1.68993e-07
1.14746e-07
-1.50397e-07
9.08958e-08
-1.2114e-07
5.90926e-08
-1.39403e-07
3.70353e-08
-1.28183e-07
2.95539e-08
-1.08094e-07
3.07972e-08
-8.883e-08
3.29215e-08
-5.81768e-08
2.64678e-08
-3.80441e-08
8.6372e-09
-3.50773e-08
-3.05858e-09
-3.24853e-08
-1.1527e-08
-2.26341e-08
-1.98047e-08
-2.16714e-08
-1.76438e-08
-1.88444e-08
-1.87494e-08
-1.40049e-08
-1.71165e-08
-1.39269e-08
-1.27889e-08
-1.01682e-08
-8.63893e-09
-5.34528e-09
-3.34781e-09
-1.01725e-09
9.75344e-10
1.89351e-09
2.06656e-09
4.7677e-09
2.80855e-09
1.24211e-08
-4.71651e-09
6.54889e-09
1.25135e-09
-2.50412e-10
1.48347e-10
5.49967e-09
-4.11504e-09
3.22402e-09
-1.87603e-09
8.54469e-10
-1.62394e-06
8.32142e-07
-3.70589e-07
5.90434e-07
-3.99912e-07
4.74714e-07
-4.06627e-07
4.0331e-07
-3.94616e-07
3.61749e-07
-3.73612e-07
3.24052e-07
-3.28541e-07
2.83733e-07
-2.81343e-07
2.47025e-07
-2.46402e-07
2.18708e-07
-2.19633e-07
1.9159e-07
-1.95288e-07
1.65436e-07
-1.75627e-07
1.44063e-07
-1.59718e-07
1.26567e-07
-1.43385e-07
1.10045e-07
-1.25094e-07
9.55226e-08
-1.0799e-07
8.49287e-08
-9.0157e-08
6.98087e-08
-7.395e-08
5.38238e-08
-7.64457e-08
3.71981e-08
-6.38372e-08
2.31589e-08
-5.8558e-08
1.29433e-08
-5.13695e-08
1.09113e-08
-3.39239e-08
3.37109e-09
-2.22158e-08
-5.49511e-09
-2.32124e-08
-9.16638e-09
-1.7104e-08
-1.63694e-08
-1.42348e-08
-1.63071e-08
-1.49666e-08
-1.4912e-08
-1.15972e-08
-1.17978e-08
-9.12898e-09
-7.60641e-09
-5.77407e-09
-3.76555e-09
-2.50161e-09
-1.4214e-09
5.29051e-11
-1.18079e-10
-5.21251e-10
4.04159e-09
-2.45082e-09
1.11309e-08
-2.35486e-09
4.66778e-09
3.83146e-09
7.60989e-09
-2.68974e-09
4.46918e-09
-3.18157e-09
1.76575e-09
-7.15948e-10
-9.81313e-07
1.07039e-06
3.1563e-08
6.65279e-07
-1.70518e-07
4.75688e-07
-2.37064e-07
3.65976e-07
-2.73326e-07
2.98233e-07
-2.82982e-07
2.53545e-07
-2.8144e-07
2.15759e-07
-2.55211e-07
1.84112e-07
-2.26556e-07
1.6035e-07
-2.01692e-07
1.43651e-07
-1.7695e-07
1.29846e-07
-1.54729e-07
1.17092e-07
-1.35418e-07
1.07981e-07
-1.2061e-07
9.79022e-08
-1.04143e-07
8.72832e-08
-8.88592e-08
7.52353e-08
-7.49776e-08
6.7874e-08
-6.80428e-08
6.39752e-08
-4.69997e-08
6.25406e-08
-3.66944e-08
5.92836e-08
-2.27129e-08
5.263e-08
-7.6478e-09
3.44442e-08
-1.04735e-08
1.68837e-08
-1.69401e-08
3.06894e-09
-1.3631e-08
-9.61125e-09
-1.62342e-08
-1.17816e-08
-1.43596e-08
-1.2901e-08
-9.51079e-09
-1.1691e-08
-8.37799e-09
-8.92146e-09
-6.2627e-09
-5.81925e-09
-4.71356e-09
-2.55568e-09
-3.60472e-09
-1.14003e-09
-1.80241e-09
-6.18662e-10
-2.58357e-09
-1.2317e-09
9.07156e-09
-2.95374e-09
8.97993e-09
3.71609e-09
8.92197e-09
1.95613e-09
7.59405e-09
-3.38705e-09
2.79034e-09
-2.00038e-09
7.07909e-10
-1.11838e-06
6.26216e-07
-2.15588e-07
4.58527e-07
-2.59156e-07
3.78114e-07
-2.5467e-07
3.21121e-07
-2.5233e-07
2.7853e-07
-2.36543e-07
2.55211e-07
-2.20607e-07
2.40931e-07
-1.94995e-07
2.23043e-07
-1.65653e-07
2.00474e-07
-1.39524e-07
1.83363e-07
-1.20357e-07
1.68858e-07
-1.04271e-07
1.5588e-07
-9.36653e-08
1.43888e-07
-8.69235e-08
1.34092e-07
-8.30929e-08
1.21566e-07
-7.93398e-08
1.08087e-07
-7.1664e-08
9.38411e-08
-6.78302e-08
8.08382e-08
-5.74497e-08
6.84674e-08
-5.32732e-08
5.41325e-08
-4.00702e-08
3.72681e-08
-4.71812e-08
2.39774e-08
-4.24116e-08
1.38071e-08
-3.08205e-08
4.52396e-09
-3.25534e-08
6.14454e-10
-2.13799e-08
-3.49797e-09
-1.25936e-08
-6.10819e-09
-1.08303e-08
-7.88246e-09
-6.27861e-09
-7.87785e-09
-4.04116e-09
-6.37069e-09
-2.22732e-09
-4.19409e-09
-1.488e-09
-2.83953e-09
-4.57817e-10
-1.717e-09
-2.21371e-09
5.00788e-09
-2.10687e-09
7.90746e-09
2.26217e-09
6.33316e-09
5.03445e-09
8.13736e-09
2.51199e-10
5.10688e-09
-2.74505e-09
1.68647e-09
-7.48748e-10
-1.10909e-06
7.5627e-07
-3.74548e-09
5.12069e-07
-7.79723e-08
4.01521e-07
-9.58859e-08
3.31375e-07
-1.05129e-07
2.80036e-07
-1.02103e-07
2.42226e-07
-1.0243e-07
2.14463e-07
-9.86005e-08
1.92356e-07
-9.99364e-08
1.69364e-07
-9.21319e-08
1.50174e-07
-8.50384e-08
1.35803e-07
-7.45461e-08
1.26065e-07
-6.95319e-08
1.17697e-07
-6.28662e-08
1.12375e-07
-5.84081e-08
1.07528e-07
-5.42392e-08
9.99567e-08
-4.93355e-08
8.9349e-08
-4.55356e-08
7.70468e-08
-4.1762e-08
6.4197e-08
-3.8366e-08
5.28675e-08
-3.5129e-08
4.45989e-08
-2.70391e-08
3.46177e-08
-1.9367e-08
2.53208e-08
-2.38058e-08
1.80053e-08
-1.26574e-08
1.02639e-08
-1.16695e-08
4.43149e-09
-1.06559e-08
1.16697e-10
-5.07261e-09
-2.35063e-09
-3.59097e-09
-3.37096e-09
-1.28601e-09
-3.22093e-09
-2.35651e-11
-2.28419e-09
-2.12087e-10
-1.77015e-09
7.15485e-11
-1.46544e-09
-1.20636e-09
-5.65125e-12
3.27128e-10
1.82212e-09
3.53436e-10
5.11993e-09
5.10096e-09
3.87079e-09
7.36165e-09
-1.41528e-09
3.34901e-09
-1.72805e-09
6.61901e-10
-1.47941e-06
6.07108e-07
-1.60922e-07
4.28516e-07
-1.54238e-07
3.37752e-07
-1.4577e-07
2.68108e-07
-1.40616e-07
2.14947e-07
-1.38966e-07
1.75594e-07
-1.3146e-07
1.4768e-07
-1.25228e-07
1.28254e-07
-1.18183e-07
1.12917e-07
-1.12976e-07
9.80323e-08
-1.03967e-07
8.3962e-08
-9.57154e-08
7.16611e-08
-8.79994e-08
6.08375e-08
-8.34063e-08
5.21011e-08
-7.84118e-08
4.57578e-08
-7.43552e-08
4.20045e-08
-6.81419e-08
3.87931e-08
-6.01058e-08
3.64525e-08
-5.21358e-08
3.37236e-08
-4.41476e-08
3.14635e-08
-3.66636e-08
2.87357e-08
-3.06366e-08
2.86381e-08
-2.48698e-08
2.86761e-08
-1.2051e-08
2.6758e-08
-1.07054e-08
2.32181e-08
-6.33806e-09
1.87461e-08
-1.9776e-09
1.38828e-08
-1.38461e-09
8.6007e-09
6.22358e-10
4.07522e-09
1.20337e-09
1.64399e-10
1.39562e-09
-2.58958e-09
1.29386e-09
-4.21112e-09
1.8536e-09
-5.28921e-09
2.38529e-09
-6.71477e-09
2.17246e-09
-4.48176e-09
2.2251e-09
3.99753e-10
3.7063e-09
6.46776e-09
8.61489e-10
5.85755e-09
-2.16566e-09
1.8014e-09
-6.7917e-10
-5.28908e-07
3.02252e-07
-1.01608e-07
2.57114e-07
-9.77306e-08
2.1865e-07
-9.6296e-08
1.82098e-07
-9.54307e-08
1.50178e-07
-9.76452e-08
1.23202e-07
-9.52599e-08
1.01804e-07
-9.57401e-08
8.49212e-08
-9.30484e-08
7.3226e-08
-9.34181e-08
6.38407e-08
-8.74052e-08
5.58682e-08
-8.2201e-08
4.86812e-08
-7.48712e-08
4.39368e-08
-6.90274e-08
4.0417e-08
-6.24409e-08
3.84233e-08
-5.5853e-08
3.70805e-08
-4.93676e-08
3.54939e-08
-4.12865e-08
3.3057e-08
-3.57039e-08
3.00269e-08
-2.83413e-08
2.62116e-08
-2.45104e-08
2.03259e-08
-1.84778e-08
1.33695e-08
-2.42947e-08
9.87878e-09
-1.8886e-08
1.00056e-08
-1.17622e-08
1.05619e-08
-6.99545e-09
1.01757e-08
-5.15481e-10
7.18614e-09
3.62411e-10
2.5289e-09
-7.25475e-10
-1.39476e-09
-1.71998e-09
-3.77514e-09
-2.17316e-09
-4.60309e-09
-2.2532e-09
-4.62314e-09
-1.71155e-09
-6.12124e-09
-1.83824e-09
-3.87296e-09
-1.2734e-09
-1.77271e-09
6.60254e-10
2.74242e-09
1.74214e-09
6.69837e-09
-1.59422e-09
3.55418e-09
-1.44606e-09
6.95861e-10
-5.05056e-07
2.56015e-07
-7.31706e-08
2.21985e-07
-6.21697e-08
1.92098e-07
-6.08563e-08
1.61014e-07
-6.2272e-08
1.33142e-07
-6.66985e-08
1.09424e-07
-6.63034e-08
9.09969e-08
-6.97389e-08
7.69019e-08
-6.67863e-08
6.80471e-08
-6.54461e-08
6.27688e-08
-6.01648e-08
5.95262e-08
-5.52015e-08
5.60586e-08
-4.77708e-08
5.26724e-08
-4.11167e-08
4.91628e-08
-3.49705e-08
4.66006e-08
-2.98291e-08
4.43865e-08
-2.58088e-08
4.1328e-08
-2.26654e-08
3.7014e-08
-1.99046e-08
3.23767e-08
-1.74469e-08
2.78739e-08
-1.47493e-08
2.42228e-08
-1.31795e-08
2.20016e-08
-8.47944e-09
1.91024e-08
-4.57213e-09
1.61852e-08
-4.36597e-09
1.19262e-08
-1.59676e-09
7.69155e-09
-2.85248e-09
3.20616e-09
-3.62827e-09
-1.90026e-10
-3.79748e-09
-2.71435e-09
-3.63026e-09
-4.08288e-09
-3.37952e-09
-4.45529e-09
-2.9352e-09
-4.20333e-09
-2.37786e-09
-5.21976e-09
-2.20753e-09
-3.15284e-09
-1.62851e-09
-1.19452e-09
-3.37436e-10
8.56983e-10
4.8717e-09
-7.40695e-10
5.39376e-09
-1.8702e-09
1.96535e-09
-6.15056e-10
-1.5159e-07
2.324e-07
-7.40422e-09
2.04002e-07
-3.08067e-08
1.75061e-07
-4.5036e-08
1.48009e-07
-5.55191e-08
1.24429e-07
-5.94699e-08
1.05314e-07
-6.07708e-08
8.97029e-08
-5.84835e-08
7.71295e-08
-5.73655e-08
6.68124e-08
-5.43447e-08
5.8949e-08
-5.18924e-08
5.30756e-08
-4.84679e-08
4.74624e-08
-4.41606e-08
4.09485e-08
-3.95284e-08
3.49877e-08
-3.59659e-08
3.06589e-08
-3.26923e-08
2.72579e-08
-2.96234e-08
2.4221e-08
-2.65282e-08
2.13636e-08
-2.31795e-08
1.9247e-08
-1.964e-08
1.74978e-08
-1.61753e-08
1.6172e-08
-1.26165e-08
1.49878e-08
-1.02074e-08
1.54097e-08
-6.65226e-09
1.57706e-08
-1.15701e-09
1.54977e-08
1.15349e-09
1.30351e-08
2.96624e-09
9.04356e-09
2.17924e-09
4.47936e-09
5.15179e-10
8.1792e-10
-7.97139e-10
-1.38138e-09
-1.22552e-09
-2.36771e-09
-1.23393e-09
-2.68811e-09
-1.00791e-09
-3.46101e-09
-1.11539e-09
-1.81504e-09
-8.2022e-10
-4.23355e-10
-8.32256e-11
2.07324e-09
-5.94624e-11
5.9242e-09
-1.87808e-09
3.4818e-09
-1.15112e-09
1.57487e-10
-1.14661e-07
2.27322e-07
-3.2012e-08
1.71652e-07
-4.47797e-08
1.36916e-07
-4.80756e-08
1.12241e-07
-4.99377e-08
9.34497e-08
-4.90209e-08
7.92282e-08
-4.82691e-08
6.79266e-08
-4.52587e-08
5.93598e-08
-4.33e-08
5.25967e-08
-3.89403e-08
4.76879e-08
-3.54841e-08
4.41662e-08
-3.10146e-08
4.20917e-08
-2.64773e-08
4.02853e-08
-2.17557e-08
3.84207e-08
-1.67384e-08
3.60921e-08
-1.28063e-08
3.38026e-08
-9.46472e-09
3.13469e-08
-7.55954e-09
2.88309e-08
-6.01248e-09
2.58088e-08
-5.86288e-09
2.26367e-08
-5.00461e-09
1.91929e-08
-5.72055e-09
1.57238e-08
-4.35738e-09
1.14265e-08
-6.20352e-09
7.44595e-09
-7.04839e-09
4.5397e-09
-6.65538e-09
2.77974e-09
-5.80139e-09
1.9843e-09
-3.83861e-09
1.59937e-09
-1.93949e-09
9.86827e-10
-6.30473e-10
2.80478e-10
8.31929e-12
-1.64752e-10
2.99987e-10
-4.43999e-10
6.07574e-10
-8.30749e-10
7.33204e-10
-5.92121e-10
3.58088e-10
2.81454e-10
6.16606e-10
4.39687e-10
4.65768e-09
-1.71915e-09
4.35419e-09
-9.02289e-10
1.23207e-09
6.13079e-11
-7.33294e-08
1.5043e-07
-3.20106e-09
1.30786e-07
-1.98827e-08
1.12523e-07
-2.87541e-08
9.60805e-08
-3.5569e-08
8.17099e-08
-3.75252e-08
7.03025e-08
-3.78021e-08
6.12245e-08
-3.51093e-08
5.42176e-08
-3.24185e-08
4.89574e-08
-2.80536e-08
4.53611e-08
-2.31957e-08
4.27772e-08
-1.84832e-08
4.07039e-08
-1.45256e-08
3.86014e-08
-1.14188e-08
3.58581e-08
-8.89061e-09
3.25868e-08
-6.85381e-09
2.96049e-08
-5.1966e-09
2.6793e-08
-4.07102e-09
2.40988e-08
-3.48268e-09
2.14476e-08
-3.04825e-09
1.88644e-08
-2.93146e-09
1.63424e-08
-2.30902e-09
1.40571e-08
-2.16197e-09
1.25521e-08
-2.29583e-09
1.20402e-08
2.04277e-10
1.18245e-08
1.34314e-09
1.10304e-08
3.08791e-09
9.51809e-09
3.8781e-09
7.18605e-09
3.49911e-09
4.8931e-09
2.88824e-09
3.14027e-09
2.45609e-09
1.83433e-09
2.04303e-09
7.80656e-10
1.75277e-09
4.2958e-10
1.52953e-09
3.50752e-10
1.04984e-09
9.22276e-10
6.40252e-10
2.60183e-09
-1.34288e-09
3.86948e-09
-9.89878e-11
2.37494e-09
9.95989e-10
4.79143e-10
-1.39961e-08
1.08426e-07
-1.09172e-08
8.49882e-08
-2.14368e-08
7.16465e-08
-2.51037e-08
6.30968e-08
-2.44486e-08
5.71202e-08
-2.41492e-08
5.23299e-08
-2.23234e-08
4.84549e-08
-2.1608e-08
4.50851e-08
-1.99612e-08
4.22044e-08
-1.86347e-08
3.92547e-08
-1.69916e-08
3.62231e-08
-1.59816e-08
3.29482e-08
-1.50294e-08
2.93378e-08
-1.41365e-08
2.58776e-08
-1.37059e-08
2.29024e-08
-1.24499e-08
1.94636e-08
-1.07179e-08
1.52451e-08
-9.10242e-09
1.24566e-08
-7.71877e-09
1.16321e-08
-6.10031e-09
1.13045e-08
-5.1078e-09
1.02662e-08
-3.76903e-09
9.04805e-09
-3.55188e-09
7.47439e-09
-2.24182e-09
5.62845e-09
-2.76245e-09
3.66125e-09
-2.95231e-09
2.33847e-09
-2.48446e-09
1.77776e-09
-1.84205e-09
1.91958e-09
-3.21816e-10
2.2435e-09
1.0761e-09
2.17877e-09
1.6917e-09
1.8282e-09
1.76869e-09
1.38098e-09
1.68317e-09
1.59299e-09
2.06943e-09
1.02641e-09
1.56178e-09
6.01721e-10
1.14142e-09
-5.08106e-10
2.24783e-09
4.80703e-10
2.20497e-09
1.36162e-09
7.1438e-10
1.76516e-10
-1.84013e-08
3.44938e-08
-2.13513e-09
3.63078e-08
-1.2923e-09
3.67966e-08
-2.74233e-09
3.59169e-08
-2.6572e-09
3.48281e-08
-3.98442e-09
3.3754e-08
-3.43662e-09
3.32785e-08
-3.28348e-09
3.29474e-08
-1.99603e-09
3.27166e-08
-1.77249e-09
3.22116e-08
-7.82203e-10
3.16458e-08
-6.24854e-10
3.07442e-08
-6.79149e-11
2.97368e-08
-1.69886e-10
2.83774e-08
-4.92602e-10
2.67433e-08
-8.39857e-10
2.39064e-08
-1.28303e-09
2.03066e-08
-1.19717e-09
1.71873e-08
-1.43743e-09
1.47692e-08
-9.79159e-10
1.23964e-08
-7.96827e-10
9.90177e-09
-4.81246e-10
7.61732e-09
2.21215e-10
5.95226e-09
5.11672e-10
5.30038e-09
1.23775e-09
5.60947e-09
3.02257e-09
6.29983e-09
4.21467e-09
6.60604e-09
5.31534e-09
6.23628e-09
5.31953e-09
5.17155e-09
4.43728e-09
3.87698e-09
3.36925e-09
2.69404e-09
2.42484e-09
1.64006e-09
1.96549e-09
1.73015e-09
1.64238e-09
7.78175e-10
7.72654e-10
4.80657e-10
2.55255e-10
6.31505e-10
3.76553e-10
9.20429e-10
6.82381e-10
3.57219e-10
1.07988e-10
4.55258e-16
)
;

boundaryField
{
    inlet
    {
        type            extrapolatedCalculated;
        value           nonuniform List<scalar> 
27
(
1.26075e-08
3.84043e-09
5.04134e-09
1.87898e-09
3.58617e-09
7.39937e-10
2.50587e-09
6.4241e-11
1.96232e-09
-3.07208e-10
1.41378e-09
-5.09654e-10
1.17862e-09
-5.74396e-10
8.54469e-10
-7.15948e-10
7.07909e-10
-7.48748e-10
6.61901e-10
-6.7917e-10
6.95861e-10
-6.15056e-10
1.57487e-10
6.13079e-11
4.79143e-10
1.76516e-10
4.55258e-16
)
;
    }
    outlet
    {
        type            extrapolatedCalculated;
        value           nonuniform List<scalar> 
78
(
-1.84013e-08
3.44938e-08
-2.13513e-09
3.63078e-08
-1.2923e-09
3.67966e-08
-2.74233e-09
3.59169e-08
-2.6572e-09
3.48281e-08
-3.98442e-09
3.3754e-08
-3.43662e-09
3.32785e-08
-3.28348e-09
3.29474e-08
-1.99603e-09
3.27166e-08
-1.77249e-09
3.22116e-08
-7.82203e-10
3.16458e-08
-6.24854e-10
3.07442e-08
-6.79149e-11
2.97368e-08
-1.69886e-10
2.83774e-08
-4.92602e-10
2.67433e-08
-8.39857e-10
2.39064e-08
-1.28303e-09
2.03066e-08
-1.19717e-09
1.71873e-08
-1.43743e-09
1.47692e-08
-9.79159e-10
1.23964e-08
-7.96827e-10
9.90177e-09
-4.81246e-10
7.61732e-09
2.21215e-10
5.95226e-09
5.11672e-10
5.30038e-09
1.23775e-09
5.60947e-09
3.02257e-09
6.29983e-09
4.21467e-09
6.60604e-09
5.31534e-09
6.23628e-09
5.31953e-09
5.17155e-09
4.43728e-09
3.87698e-09
3.36925e-09
2.69404e-09
2.42484e-09
1.64006e-09
1.96549e-09
1.73015e-09
1.64238e-09
7.78175e-10
7.72654e-10
4.80657e-10
2.55255e-10
6.31505e-10
3.76553e-10
9.20429e-10
6.82381e-10
3.57219e-10
1.07988e-10
4.55258e-16
)
;
    }
    walls
    {
        type            extrapolatedCalculated;
        value           nonuniform List<scalar> 0();
    }
    frontAndBack
    {
        type            empty;
    }
    procBoundary7to3
    {
        type            processor;
        value           nonuniform List<scalar> 
16
(
5.38118e-06
2.57008e-06
2.28844e-06
2.3464e-06
2.24161e-06
1.3972e-06
1.48639e-06
1.09267e-06
3.96032e-07
3.96032e-07
3.72707e-07
2.85816e-07
3.44074e-07
1.83868e-07
1.53579e-07
4.2693e-08
)
;
    }
    procBoundary7to6
    {
        type            processor;
        value           nonuniform List<scalar> 
91
(
6.5101e-09
6.13699e-09
6.13699e-09
2.92601e-09
2.92601e-09
-4.18625e-09
-4.18625e-09
-7.09014e-09
-5.08272e-09
-5.08272e-09
-3.48956e-09
-1.07721e-08
-1.07721e-08
-1.19679e-08
-7.8847e-09
-1.89744e-08
-1.89744e-08
-3.81095e-08
1.45543e-09
-1.7496e-08
-1.7496e-08
-3.76685e-08
2.59538e-09
1.40976e-08
-3.74343e-08
-3.74343e-08
-3.32313e-08
3.16612e-08
-4.33503e-08
4.45733e-08
-4.99236e-08
-4.99236e-08
-1.35653e-08
-2.36805e-08
-2.06823e-08
-1.52049e-08
-3.29175e-08
9.8396e-09
-5.16001e-08
-5.16001e-08
-1.00819e-07
1.17203e-07
-7.84136e-08
5.20147e-08
-6.42415e-08
1.90158e-08
-4.22718e-08
-7.38393e-10
-2.54055e-08
-1.27945e-08
-2.17094e-08
-4.0185e-09
-4.0185e-09
1.92034e-06
-1.61185e-06
1.39999e-06
-1.84887e-06
1.21154e-06
-1.76493e-06
1.05624e-06
-1.57332e-06
8.88914e-07
-1.38681e-06
7.72682e-07
-1.24166e-06
6.86119e-07
-1.12124e-06
6.14692e-07
-9.89656e-07
5.45078e-07
-8.83357e-07
4.98498e-07
-7.89127e-07
4.64269e-07
-7.1143e-07
4.26234e-07
-6.00227e-07
3.79311e-07
-5.12937e-07
3.35628e-07
-4.23241e-07
2.92178e-07
-3.62421e-07
2.52875e-07
-2.88119e-07
1.98451e-07
-2.39712e-07
1.56761e-07
-2.8354e-07
3.35746e-07
3.35746e-07
)
;
    }
}


// ************************************************************************* //
