/*--------------------------------*- C++ -*----------------------------------*\
| =========                 |                                                 |
| \\      /  F ield         | OpenFOAM: The Open Source CFD Toolbox           |
|  \\    /   O peration     | Version:  2306                                  |
|   \\  /    A nd           | Website:  www.openfoam.com                      |
|    \\/     M anipulation  |                                                 |
\*---------------------------------------------------------------------------*/
FoamFile
{
    version     2.0;
    format      ascii;
    arch        "LSB;label=32;scalar=64";
    class       volScalarField;
    location    "425";
    object      magR;
}
// * * * * * * * * * * * * * * * * * * * * * * * * * * * * * * * * * * * * * //

dimensions      [0 2 -2 0 0 0 0];

internalField   nonuniform List<scalar> 
1340
(
1.08983e-06
8.27984e-07
1.10578e-06
8.03153e-07
8.01994e-07
1.10523e-06
3.34679e-07
7.92788e-07
7.84801e-07
1.10968e-06
2.99502e-07
5.49943e-07
3.31521e-07
7.84529e-07
7.70202e-07
1.11716e-06
4.26484e-07
5.00984e-07
2.90483e-07
5.39806e-07
3.28257e-07
7.77065e-07
7.58379e-07
1.12475e-06
6.01594e-07
5.2807e-07
5.28047e-07
4.09392e-07
4.87011e-07
2.81018e-07
5.29905e-07
3.25081e-07
7.70646e-07
7.49858e-07
1.13183e-06
6.95067e-07
6.52207e-07
6.00396e-07
5.75359e-07
5.04405e-07
5.08401e-07
3.92039e-07
4.72895e-07
2.71248e-07
5.20462e-07
3.21976e-07
7.65426e-07
7.44459e-07
1.13829e-06
8.82136e-07
8.22036e-07
7.64427e-07
7.09743e-07
6.56315e-07
6.18097e-07
5.69607e-07
5.48761e-07
4.8052e-07
4.88457e-07
3.74537e-07
4.58704e-07
2.6124e-07
5.11395e-07
3.18964e-07
7.61125e-07
7.41464e-07
1.14509e-06
1.11614e-06
1.05178e-06
9.89569e-07
9.29667e-07
8.72156e-07
8.17073e-07
7.64499e-07
7.1372e-07
6.65482e-07
6.17406e-07
5.83738e-07
5.38571e-07
5.21801e-07
4.56415e-07
4.68211e-07
3.5688e-07
4.44387e-07
2.51023e-07
5.02523e-07
3.161e-07
7.5743e-07
7.40363e-07
1.15112e-06
1.4145e-06
1.35557e-06
1.29645e-06
1.23739e-06
1.17876e-06
1.12083e-06
1.06388e-06
1.00815e-06
9.53829e-07
9.01059e-07
8.49957e-07
8.00641e-07
7.53135e-07
7.07656e-07
6.63376e-07
6.21337e-07
5.78492e-07
5.49265e-07
5.07411e-07
4.94581e-07
4.32176e-07
4.47721e-07
3.39143e-07
4.29952e-07
2.40659e-07
4.93768e-07
3.13369e-07
7.54207e-07
7.41708e-07
1.15707e-06
1.69926e-06
1.67167e-06
1.64214e-06
1.61058e-06
1.57689e-06
1.54105e-06
1.50311e-06
1.46316e-06
1.42136e-06
1.37791e-06
1.33301e-06
1.28688e-06
1.23981e-06
1.19204e-06
1.14389e-06
1.09556e-06
1.04736e-06
9.99542e-07
9.52331e-07
9.05937e-07
8.60528e-07
8.1622e-07
7.731e-07
7.31291e-07
6.9079e-07
6.51932e-07
6.13774e-07
5.77637e-07
5.39861e-07
5.14927e-07
4.76355e-07
4.67283e-07
4.07969e-07
4.27103e-07
3.21434e-07
4.15446e-07
2.30252e-07
4.85151e-07
3.10709e-07
7.51389e-07
7.44356e-07
1.16295e-06
1.98326e-08
1.18056e-09
0
0
4.88567e-05
0.000101669
0.00853661
0.108045
0.417723
0.924267
1.46497
1.84361
1.90861
1.58883
0.917331
0.0974872
0.88253
1.54742
1.7546
1.43548
0.802149
0.261342
0.0361475
0.000386515
4.36065e-05
0
0
0
3.14819e-08
4.30486e-07
1.63317e-06
1.82762e-06
1.60037e-06
1.50001e-06
1.49286e-06
1.48586e-06
1.46581e-06
1.4438e-06
1.42239e-06
1.3999e-06
1.37567e-06
1.34971e-06
1.32198e-06
1.29241e-06
1.26106e-06
1.22802e-06
1.19348e-06
1.15762e-06
1.12061e-06
1.08266e-06
1.04401e-06
1.0049e-06
9.6552e-07
9.26117e-07
8.86902e-07
8.48067e-07
8.09794e-07
7.72226e-07
7.3544e-07
6.99493e-07
6.64504e-07
6.30424e-07
5.9769e-07
5.6525e-07
5.3468e-07
5.01774e-07
4.80953e-07
4.45609e-07
4.40088e-07
3.83934e-07
4.06459e-07
3.03886e-07
4.00874e-07
2.19882e-07
4.76499e-07
3.08209e-07
7.48801e-07
7.48503e-07
1.16876e-06
9.49814e-07
2.18073e-08
1.44124e-09
0
0
8.46376e-08
0.000621163
0.0011025
0.043345
0.236991
0.636942
1.14082
1.56216
1.73243
1.55333
1.02421
0.258232
0.599114
1.2744
1.56484
1.36314
0.818285
0.296146
0.0472417
0.000903245
7.47363e-05
0
0
0
1.1481e-08
1.40462e-07
1.23442e-06
1.59584e-06
1.39193e-06
1.26165e-06
1.24353e-06
1.24102e-06
1.22649e-06
1.20866e-06
1.19167e-06
1.17375e-06
1.15384e-06
1.13217e-06
1.10901e-06
1.08435e-06
1.05821e-06
1.03071e-06
1.00203e-06
9.723e-07
9.41711e-07
9.10473e-07
8.78787e-07
8.46815e-07
8.14771e-07
7.82827e-07
7.51153e-07
7.19892e-07
6.89161e-07
6.59016e-07
6.29465e-07
6.00623e-07
5.72379e-07
5.45268e-07
5.18113e-07
4.92753e-07
4.64485e-07
4.47571e-07
4.1538e-07
4.13173e-07
3.60246e-07
3.85926e-07
2.86591e-07
3.86286e-07
2.09569e-07
4.67908e-07
3.05632e-07
7.46309e-07
7.52749e-07
1.17495e-06
9.66126e-07
8.23497e-07
7.26105e-08
4.27837e-09
0
0
0
0.000190081
0.000311419
0.0126235
0.117024
0.405522
0.847134
1.28484
1.53955
1.48663
1.09309
0.433458
0.351709
1.02339
1.38003
1.28314
0.825114
0.326768
0.0601863
0.00208265
0.000108938
0
0
0
7.23528e-10
3.81245e-09
7.43795e-07
1.28881e-06
1.19429e-06
1.06516e-06
1.04028e-06
1.04214e-06
1.03128e-06
1.01393e-06
9.98099e-07
9.83198e-07
9.66988e-07
9.48935e-07
9.29387e-07
9.08584e-07
8.86635e-07
8.63652e-07
8.39742e-07
8.15088e-07
7.89869e-07
7.64266e-07
7.38431e-07
7.12537e-07
6.8673e-07
6.61163e-07
6.35942e-07
6.11174e-07
5.86861e-07
5.63011e-07
5.39693e-07
5.16731e-07
4.94771e-07
4.72497e-07
4.51953e-07
4.28119e-07
4.1488e-07
3.85785e-07
3.86618e-07
3.37002e-07
3.65507e-07
2.69645e-07
3.71733e-07
1.99398e-07
4.58963e-07
3.02908e-07
7.44496e-07
7.57189e-07
1.18149e-06
7.50809e-07
8.30838e-07
7.51219e-07
1.79945e-07
9.82569e-09
0
0
0
2.26907e-06
0.000652715
0.00194269
0.0483032
0.23428
0.594519
1.02223
1.33926
1.39594
1.1269
0.573544
0.147766
0.800177
1.20611
1.1993
0.822448
0.352127
0.0732873
0.00366309
0.000150378
0
0
0
4.93744e-12
3.65801e-08
5.05481e-07
1.03214e-06
1.02408e-06
8.90542e-07
8.50443e-07
8.60982e-07
8.64926e-07
8.54059e-07
8.38866e-07
8.24544e-07
8.10401e-07
7.95152e-07
7.78511e-07
7.60757e-07
7.42142e-07
7.22766e-07
7.02784e-07
6.82342e-07
6.61625e-07
6.40758e-07
6.19894e-07
5.99183e-07
5.78727e-07
5.58634e-07
5.38957e-07
5.19717e-07
5.00864e-07
4.82431e-07
4.64204e-07
4.46866e-07
4.29047e-07
4.12903e-07
3.93179e-07
3.83397e-07
3.57239e-07
3.60873e-07
3.14428e-07
3.45626e-07
2.53034e-07
3.57488e-07
1.88692e-07
4.50621e-07
2.99147e-07
7.42647e-07
7.62371e-07
1.19054e-06
6.5732e-07
6.52876e-07
7.32457e-07
6.68523e-07
3.1582e-07
1.68887e-08
3.57711e-12
0
0
0
0.000259629
0.000294524
0.0144194
0.114052
0.373772
0.758935
1.11895
1.28291
1.14556
0.708053
0.096753
0.576873
1.02978
1.11531
0.824624
0.386856
0.0928282
0.00608221
0.00013785
1.34503e-05
0
0
0
2.17398e-08
2.62094e-07
7.79465e-07
9.40895e-07
8.30388e-07
7.29978e-07
7.03402e-07
7.06778e-07
7.06227e-07
6.96845e-07
6.84151e-07
6.71333e-07
6.58277e-07
6.44418e-07
6.29653e-07
6.14207e-07
5.98323e-07
5.82059e-07
5.65621e-07
5.49132e-07
5.32708e-07
5.16506e-07
5.00594e-07
4.85087e-07
4.69967e-07
4.55307e-07
4.40997e-07
4.27026e-07
4.13189e-07
4.00121e-07
3.86434e-07
3.74459e-07
3.58657e-07
3.52137e-07
3.29013e-07
3.35084e-07
2.92216e-07
3.25329e-07
2.37184e-07
3.42373e-07
1.79451e-07
4.40852e-07
2.96406e-07
7.39581e-07
7.67055e-07
1.19619e-06
5.7931e-07
5.61559e-07
5.73149e-07
5.91707e-07
5.68358e-07
4.40141e-07
7.14111e-08
4.11138e-09
2.75428e-13
0
0
2.697e-06
0.000410958
0.00131101
0.0281026
0.140181
0.382053
0.706373
0.97762
1.05018
0.84762
0.401546
0.175675
0.668742
0.915555
0.821382
0.495181
0.181634
0.0339237
0.00117073
0.000123451
2.54535e-06
0
0
2.6553e-10
1.30996e-08
1.25792e-07
4.90835e-07
6.77896e-07
6.48192e-07
5.82327e-07
5.55421e-07
5.53178e-07
5.51681e-07
5.44363e-07
5.3415e-07
5.23583e-07
5.12809e-07
5.01561e-07
4.89874e-07
4.77832e-07
4.65708e-07
4.53625e-07
4.417e-07
4.30008e-07
4.1866e-07
4.07764e-07
3.97281e-07
3.87278e-07
3.77602e-07
3.68258e-07
3.58969e-07
3.50365e-07
3.41045e-07
3.33348e-07
3.21956e-07
3.18587e-07
2.99304e-07
3.07129e-07
2.69563e-07
3.0247e-07
2.22629e-07
3.22839e-07
1.72457e-07
4.20252e-07
2.82434e-07
7.06323e-07
7.28654e-07
1.11108e-06
4.90072e-07
4.80983e-07
4.83395e-07
4.78197e-07
4.7476e-07
4.98944e-07
4.46273e-07
2.87083e-07
6.63607e-09
4.57093e-10
0
0
0
1.15433e-05
0.000380099
0.000964355
0.0211221
0.108689
0.3045
0.575955
0.806808
0.862423
0.672182
0.270375
0.220397
0.611563
0.752481
0.608893
0.328092
0.106851
0.016907
0.000281869
6.06187e-05
0
0
0
9.28206e-11
1.05641e-08
1.20071e-07
3.89946e-07
5.09972e-07
4.7809e-07
4.31801e-07
4.16794e-07
4.16281e-07
4.13691e-07
4.06891e-07
3.98772e-07
3.90724e-07
3.82598e-07
3.74265e-07
3.65933e-07
3.57705e-07
3.49793e-07
3.42247e-07
3.35173e-07
3.28664e-07
3.22673e-07
3.1728e-07
3.1225e-07
3.07613e-07
3.02999e-07
2.98995e-07
2.94235e-07
2.90934e-07
2.8408e-07
2.84073e-07
2.68743e-07
2.7863e-07
2.46024e-07
2.79928e-07
2.0672e-07
3.05971e-07
1.64917e-07
4.09182e-07
2.83169e-07
7.03308e-07
7.45453e-07
1.12027e-06
4.07344e-07
4.01836e-07
4.073e-07
4.03258e-07
3.93455e-07
3.90733e-07
4.02216e-07
4.1539e-07
3.36788e-07
1.23761e-07
6.6094e-09
1.28585e-12
0
0
0
1.18164e-05
0.00035694
0.000655289
0.0175823
0.0936416
0.265584
0.502788
0.695997
0.720422
0.518531
0.140019
0.282985
0.569976
0.609574
0.433218
0.201574
0.0538368
0.00562688
9.98389e-05
9.17348e-06
0
0
0
9.96911e-11
1.23021e-08
1.51382e-07
3.33228e-07
3.6845e-07
3.32675e-07
3.08828e-07
3.04691e-07
3.04086e-07
3.00156e-07
2.94277e-07
2.88278e-07
2.82588e-07
2.77096e-07
2.71832e-07
2.67072e-07
2.62874e-07
2.59348e-07
2.56565e-07
2.545e-07
2.53154e-07
2.52298e-07
2.51919e-07
2.51566e-07
2.51743e-07
2.51111e-07
2.51775e-07
2.4894e-07
2.52016e-07
2.40301e-07
2.52143e-07
2.23892e-07
2.59074e-07
1.91285e-07
2.90969e-07
1.56119e-07
4.00556e-07
2.81295e-07
7.04491e-07
7.57811e-07
1.12836e-06
3.302e-07
3.36465e-07
3.34938e-07
3.28975e-07
3.22646e-07
3.19289e-07
3.22701e-07
3.41831e-07
3.27627e-07
2.33388e-07
2.64385e-08
1.71047e-09
0
0
0
0
1.05238e-05
0.000340613
0.000666606
0.0170823
0.0889663
0.247389
0.457132
0.610222
0.593371
0.370319
0.0253356
0.333492
0.514545
0.472338
0.287844
0.109386
0.0216608
0.000991786
7.34913e-05
1.46236e-07
0
0
0
3.16024e-09
3.1504e-08
1.75491e-07
2.58424e-07
2.48334e-07
2.24272e-07
2.15854e-07
2.14927e-07
2.1293e-07
2.09106e-07
2.05167e-07
2.01743e-07
1.98848e-07
1.96674e-07
1.95266e-07
1.94742e-07
1.95156e-07
1.96462e-07
1.98604e-07
2.01312e-07
2.04554e-07
2.07801e-07
2.1148e-07
2.14255e-07
2.18129e-07
2.18545e-07
2.24057e-07
2.15498e-07
2.28806e-07
2.04473e-07
2.40464e-07
1.77702e-07
2.77623e-07
1.48255e-07
3.93543e-07
2.78674e-07
7.07493e-07
7.64438e-07
1.1358e-06
2.67012e-07
2.73398e-07
2.72735e-07
2.69286e-07
2.66158e-07
2.62463e-07
2.59171e-07
2.59675e-07
2.6771e-07
2.81932e-07
2.49306e-07
1.14695e-07
6.44533e-09
1.29511e-12
0
0
0
0
1.12133e-05
0.000338108
0.000964322
0.0190427
0.0920677
0.243336
0.427625
0.535931
0.471263
0.227536
0.101665
0.361655
0.443242
0.342059
0.170964
0.0491888
0.00591943
1.6132e-05
1.68091e-05
0
0
0
4.5202e-11
2.0326e-11
7.31555e-08
1.51006e-07
1.66377e-07
1.51072e-07
1.41784e-07
1.40263e-07
1.39718e-07
1.38197e-07
1.36699e-07
1.35977e-07
1.36274e-07
1.37583e-07
1.39971e-07
1.43479e-07
1.47972e-07
1.53346e-07
1.59261e-07
1.65644e-07
1.71954e-07
1.78532e-07
1.84067e-07
1.90433e-07
1.93371e-07
2.00636e-07
1.94803e-07
2.09053e-07
1.88293e-07
2.24471e-07
1.66677e-07
2.66092e-07
1.42429e-07
3.878e-07
2.76002e-07
7.11994e-07
7.65381e-07
1.14444e-06
2.12629e-07
2.1826e-07
2.18149e-07
2.15912e-07
2.14032e-07
2.11819e-07
2.10291e-07
2.07567e-07
2.058e-07
2.08079e-07
2.21573e-07
2.20882e-07
1.67874e-07
2.19831e-08
1.58103e-09
2.09351e-14
0
0
0
0
1.40293e-05
0.00030921
0.00157489
0.0235389
0.102108
0.249362
0.405594
0.462497
0.348338
0.0926728
0.190551
0.361241
0.354547
0.222228
0.0849595
0.0165036
0.000671192
6.94762e-05
3.69451e-07
0
0
1.69548e-14
2.42576e-09
2.26137e-08
7.52087e-08
9.65257e-08
9.01495e-08
8.15484e-08
7.89669e-08
7.92016e-08
8.00667e-08
8.17042e-08
8.47274e-08
8.92188e-08
9.49851e-08
1.01832e-07
1.09546e-07
1.17927e-07
1.26651e-07
1.35585e-07
1.44277e-07
1.5301e-07
1.60545e-07
1.68584e-07
1.73241e-07
1.81469e-07
1.77767e-07
1.92428e-07
1.74786e-07
2.10593e-07
1.5741e-07
2.55811e-07
1.37542e-07
3.82864e-07
2.726e-07
7.16844e-07
7.58647e-07
1.15539e-06
1.79053e-07
1.83225e-07
1.83899e-07
1.82228e-07
1.8057e-07
1.79321e-07
1.78631e-07
1.77103e-07
1.75403e-07
1.73177e-07
1.73833e-07
1.78537e-07
1.91273e-07
1.66608e-07
1.00144e-07
2.78286e-10
4.52399e-11
0
0
0
0
0
2.78136e-05
1.68009e-05
0.00312482
0.0319337
0.119628
0.261811
0.382646
0.381482
0.221752
0.0343769
0.249699
0.326633
0.25313
0.122381
0.0324193
0.00314465
1.21305e-06
1.65594e-05
0
0
0
3.6022e-10
1.30787e-09
1.26602e-08
1.95861e-08
2.39305e-08
2.46e-08
2.5937e-08
3.07502e-08
3.78966e-08
4.61141e-08
5.51475e-08
6.49165e-08
7.51982e-08
8.57412e-08
9.64158e-08
1.07e-07
1.17484e-07
1.27528e-07
1.37454e-07
1.46112e-07
1.54943e-07
1.6057e-07
1.6903e-07
1.66951e-07
1.81416e-07
1.66701e-07
2.01271e-07
1.52957e-07
2.4893e-07
1.36675e-07
3.80194e-07
2.68512e-07
7.22916e-07
7.3771e-07
1.17836e-06
1.46239e-07
1.50613e-07
1.51039e-07
1.49492e-07
1.48089e-07
1.47773e-07
1.47992e-07
1.46176e-07
1.45768e-07
1.45169e-07
1.43505e-07
1.4259e-07
1.45663e-07
1.5214e-07
1.56732e-07
1.20403e-07
4.36149e-08
3.62119e-09
2.70209e-12
0
0
0
0
1.31345e-08
9.721e-05
4.13914e-05
0.00621152
0.0454841
0.143842
0.27441
0.347981
0.283954
0.0904262
0.135221
0.269885
0.257649
0.150035
0.0498394
0.00745276
0.000110138
4.6452e-05
0
0
0
7.82024e-12
1.82947e-09
9.71094e-09
4.28569e-08
3.57638e-08
2.55239e-08
2.76996e-08
3.56549e-08
4.51311e-08
5.45492e-08
6.38621e-08
7.33692e-08
8.30259e-08
9.27487e-08
1.0231e-07
1.1175e-07
1.20823e-07
1.29828e-07
1.37778e-07
1.45748e-07
1.50786e-07
1.58059e-07
1.56191e-07
1.69549e-07
1.5638e-07
1.89454e-07
1.4367e-07
2.38427e-07
1.28221e-07
3.73127e-07
2.58107e-07
7.21906e-07
6.99227e-07
1.21598e-06
1.58e-07
1.6024e-07
1.60072e-07
1.58368e-07
1.56748e-07
1.55651e-07
1.55006e-07
1.53294e-07
1.52161e-07
1.50843e-07
1.48792e-07
1.46985e-07
1.45619e-07
1.45262e-07
1.47337e-07
1.54015e-07
1.41925e-07
1.01185e-07
2.71679e-08
2.76161e-09
3.3298e-12
0
0
0
0
1.05098e-06
0.000191093
0.000441753
0.0128167
0.0675228
0.178417
0.29414
0.317545
0.196168
0.0323161
0.208241
0.262081
0.185983
0.0760056
0.0132988
0.00109287
5.97075e-05
3.69952e-05
7.43924e-06
2.12781e-07
0
4.04816e-11
4.09702e-11
5.34497e-08
1.01037e-07
9.46118e-08
8.22121e-08
8.02454e-08
8.44168e-08
9.03973e-08
9.68669e-08
1.03765e-07
1.1109e-07
1.18637e-07
1.26298e-07
1.33895e-07
1.41593e-07
1.48609e-07
1.55563e-07
1.60006e-07
1.66185e-07
1.6492e-07
1.76654e-07
1.65777e-07
1.95607e-07
1.5446e-07
2.43892e-07
1.36645e-07
3.80321e-07
2.44935e-07
7.35683e-07
6.34876e-07
1.34702e-06
1.35408e-07
1.363e-07
1.3666e-07
1.37191e-07
1.37542e-07
1.37901e-07
1.386e-07
1.39442e-07
1.4015e-07
1.40553e-07
1.40942e-07
1.41645e-07
1.42262e-07
1.42917e-07
1.43484e-07
1.46674e-07
1.52307e-07
1.56389e-07
1.42757e-07
1.07678e-07
2.82538e-08
2.51351e-09
0
0
0
0
0
6.88955e-06
0.00016166
0.000572575
0.0109317
0.0513428
0.126552
0.198339
0.203542
0.113266
0.0328257
0.145511
0.16724
0.112606
0.0471742
0.0121527
0.00162101
3.23831e-05
2.79152e-05
4.70632e-06
0
9.01621e-14
2.06067e-09
3.13014e-08
9.30423e-08
1.19643e-07
1.20335e-07
1.17909e-07
1.1814e-07
1.19985e-07
1.22352e-07
1.24947e-07
1.277e-07
1.30552e-07
1.33429e-07
1.36501e-07
1.39285e-07
1.42235e-07
1.4303e-07
1.44846e-07
1.40726e-07
1.48799e-07
1.36522e-07
1.63348e-07
1.19801e-07
2.0836e-07
9.15646e-08
3.39213e-07
2.02915e-07
6.69211e-07
6.33693e-07
1.32948e-06
)
;

boundaryField
{
    inlet
    {
        type            calculated;
        value           nonuniform List<scalar> 
27
(
7.07658e-06
7.08594e-06
7.10284e-06
7.1255e-06
7.14971e-06
7.17477e-06
7.20139e-06
7.22939e-06
7.25863e-06
7.28804e-06
7.31749e-06
7.34643e-06
7.37426e-06
7.40035e-06
7.42397e-06
7.4444e-06
7.46183e-06
7.42614e-06
7.4307e-06
7.42876e-06
7.41656e-06
7.39287e-06
7.35453e-06
7.30002e-06
7.22155e-06
7.14427e-06
6.98519e-06
)
;
    }
    outlet
    {
        type            calculated;
        value           nonuniform List<scalar> 
78
(
1.09773e-07
1.11029e-07
1.11655e-07
1.12492e-07
1.13121e-07
1.13762e-07
1.14822e-07
1.16055e-07
1.17128e-07
1.17842e-07
1.18542e-07
1.19608e-07
1.20637e-07
1.21713e-07
1.2267e-07
1.25786e-07
1.30789e-07
1.34068e-07
1.22279e-07
9.32457e-08
2.53714e-08
2.36031e-09
0
0
0
0
0
6.9216e-06
0.000161244
0.000538259
0.0108259
0.0511369
0.126355
0.198424
0.20419
0.114462
0.0306371
0.143956
0.166313
0.11227
0.0471426
0.0121872
0.00164163
2.08483e-05
2.66115e-05
4.4743e-06
0
7.89842e-14
1.80173e-09
2.78661e-08
8.35902e-08
1.07685e-07
1.08146e-07
1.05615e-07
1.05286e-07
1.0621e-07
1.07423e-07
1.08697e-07
1.09992e-07
1.11304e-07
1.12578e-07
1.1409e-07
1.15281e-07
1.16921e-07
1.16137e-07
1.17362e-07
1.11195e-07
1.2114e-07
1.04063e-07
1.38706e-07
8.01904e-08
1.90752e-07
2.45156e-08
3.26187e-07
1.8179e-07
6.46166e-07
6.3501e-07
1.25704e-06
)
;
    }
    walls
    {
        type            calculated;
        value           nonuniform List<scalar> 0();
    }
    frontAndBack
    {
        type            empty;
    }
    procBoundary7to3
    {
        type            processor;
        value           nonuniform List<scalar> 
16
(
1.34353e-06
1.38296e-06
1.05122e-06
8.98789e-07
7.96526e-07
6.81689e-07
5.59507e-07
4.56963e-07
3.33503e-07
3.33503e-07
2.69146e-07
2.14581e-07
1.80906e-07
1.46626e-07
1.61065e-07
1.33369e-07
)
;
    }
    procBoundary7to6
    {
        type            processor;
        value           nonuniform List<scalar> 
91
(
1.0862e-06
8.55409e-07
8.55409e-07
8.19182e-07
8.19182e-07
3.3742e-07
3.3742e-07
3.07945e-07
5.60094e-07
5.60094e-07
4.42975e-07
5.14566e-07
5.14566e-07
6.27295e-07
5.51363e-07
5.47286e-07
5.47286e-07
7.33654e-07
6.86065e-07
6.30937e-07
6.30937e-07
9.48041e-07
8.80017e-07
8.15283e-07
7.53939e-07
7.53939e-07
1.22939e-06
1.15382e-06
1.08121e-06
1.0117e-06
9.45332e-07
9.45332e-07
1.60802e-06
1.5355e-06
1.46317e-06
1.39133e-06
1.32039e-06
1.25068e-06
1.18251e-06
1.18251e-06
2.001e-06
1.96445e-06
1.92559e-06
1.88427e-06
1.84042e-06
1.7941e-06
1.74537e-06
1.6944e-06
1.64138e-06
1.58663e-06
1.53035e-06
1.47285e-06
1.47285e-06
2.56673e-12
0
9.70765e-09
0.000419383
0.000372974
0.032191
0.222609
0.663196
1.26093
1.81344
2.12679
2.068
1.5934
0.77222
0.26757
1.20528
1.84542
1.9509
1.50093
0.778221
0.225977
0.0248821
6.97755e-05
1.19963e-05
0
0
0
5.63043e-08
7.99117e-07
2.07322e-06
2.14327e-06
1.89612e-06
1.80799e-06
1.7974e-06
1.78006e-06
1.7527e-06
1.7256e-06
1.7256e-06
)
;
    }
}


// ************************************************************************* //
