/*--------------------------------*- C++ -*----------------------------------*\
| =========                 |                                                 |
| \\      /  F ield         | OpenFOAM: The Open Source CFD Toolbox           |
|  \\    /   O peration     | Version:  2306                                  |
|   \\  /    A nd           | Website:  www.openfoam.com                      |
|    \\/     M anipulation  |                                                 |
\*---------------------------------------------------------------------------*/
FoamFile
{
    version     2.0;
    format      ascii;
    arch        "LSB;label=32;scalar=64";
    class       volScalarField;
    location    "425";
    object      turbulenceProperties:I;
}
// * * * * * * * * * * * * * * * * * * * * * * * * * * * * * * * * * * * * * //

dimensions      [0 0 0 0 0 0 0];

internalField   nonuniform List<scalar> 
1340
(
3.02094e-05
2.64679e-05
3.04408e-05
2.60157e-05
2.60487e-05
3.04457e-05
1.6809e-05
2.58544e-05
2.57677e-05
3.05165e-05
1.58701e-05
2.1515e-05
1.67317e-05
2.57262e-05
2.55261e-05
3.06279e-05
1.89125e-05
2.05118e-05
1.56332e-05
2.13213e-05
1.66515e-05
2.56105e-05
2.53291e-05
3.07409e-05
2.24272e-05
2.10249e-05
2.10376e-05
1.85358e-05
2.023e-05
1.53805e-05
2.11307e-05
1.65734e-05
2.55118e-05
2.51868e-05
3.08472e-05
2.40793e-05
2.33382e-05
2.24036e-05
2.19434e-05
2.05574e-05
2.06507e-05
1.81451e-05
1.99412e-05
1.5115e-05
2.09475e-05
1.64971e-05
2.54325e-05
2.50969e-05
3.09446e-05
2.7089e-05
2.61617e-05
2.52408e-05
2.43341e-05
2.34132e-05
2.2733e-05
2.18333e-05
2.14407e-05
2.00738e-05
2.025e-05
1.77418e-05
1.96463e-05
1.48379e-05
2.07703e-05
1.6423e-05
2.53684e-05
2.50478e-05
3.10465e-05
3.0466e-05
2.95769e-05
2.86931e-05
2.78169e-05
2.69501e-05
2.60938e-05
2.52501e-05
2.44077e-05
2.35795e-05
2.27231e-05
2.2105e-05
2.12417e-05
2.09179e-05
1.95727e-05
1.98342e-05
1.73251e-05
1.93441e-05
1.45494e-05
2.05956e-05
1.63526e-05
2.53142e-05
2.50311e-05
3.11377e-05
3.43809e-05
3.36456e-05
3.28938e-05
3.21278e-05
3.13512e-05
3.05668e-05
2.97777e-05
2.89865e-05
2.81959e-05
2.74075e-05
2.66233e-05
2.5845e-05
2.50735e-05
2.43127e-05
2.35486e-05
2.27997e-05
2.20093e-05
2.1455e-05
2.06293e-05
2.03753e-05
1.90548e-05
1.94036e-05
1.68955e-05
1.90341e-05
1.42506e-05
2.04217e-05
1.62855e-05
2.52679e-05
2.50561e-05
3.12278e-05
3.79231e-05
3.75967e-05
3.7246e-05
3.68691e-05
3.64643e-05
3.60305e-05
3.55676e-05
3.50757e-05
3.45555e-05
3.40086e-05
3.34361e-05
3.28397e-05
3.22219e-05
3.15848e-05
3.09313e-05
3.02634e-05
2.95842e-05
2.88965e-05
2.82029e-05
2.7506e-05
2.6808e-05
2.61103e-05
2.54143e-05
2.47219e-05
2.4033e-05
2.33539e-05
2.26676e-05
2.19982e-05
2.1275e-05
2.07857e-05
1.99989e-05
1.98152e-05
1.85222e-05
1.89599e-05
1.6455e-05
1.87172e-05
1.39439e-05
2.02492e-05
1.62201e-05
2.52283e-05
2.51034e-05
3.13166e-05
4.1429e-06
1.01083e-06
0
0
0.00019977
0.000287089
0.00263025
0.00938241
0.0185818
0.0279861
0.0358406
0.0410295
0.0426434
0.0396675
0.0305671
0.0100189
0.029987
0.0390903
0.0406646
0.0358201
0.0261337
0.0146573
0.00540272
0.000557444
0.000187366
0
0
0
5.19358e-06
1.91944e-05
3.72774e-05
3.93914e-05
3.6873e-05
3.56943e-05
3.55948e-05
3.54968e-05
3.52436e-05
3.49649e-05
3.46914e-05
3.44025e-05
3.40898e-05
3.3753e-05
3.33909e-05
3.3002e-05
3.25861e-05
3.21437e-05
3.16763e-05
3.11853e-05
3.06719e-05
3.01382e-05
2.95864e-05
2.90191e-05
2.8438e-05
2.78462e-05
2.7246e-05
2.66398e-05
2.60301e-05
2.54187e-05
2.48068e-05
2.4195e-05
2.35854e-05
2.29771e-05
2.2378e-05
2.17684e-05
2.11784e-05
2.05235e-05
2.00999e-05
1.93533e-05
1.92397e-05
1.79768e-05
1.85041e-05
1.60059e-05
1.83929e-05
1.36312e-05
2.00744e-05
1.61587e-05
2.51926e-05
2.51763e-05
3.14047e-05
2.8556e-05
4.33914e-06
1.11554e-06
0
0
8.54639e-06
0.000708838
0.000943863
0.00592572
0.0139262
0.0230609
0.0313273
0.0373495
0.0401447
0.0387625
0.0319618
0.0161738
0.0245797
0.0353967
0.0384081
0.0349565
0.026438
0.0156167
0.00617544
0.000851422
0.000245029
0
0
0
3.13455e-06
1.09599e-05
3.24076e-05
3.67814e-05
3.43664e-05
3.27228e-05
3.24771e-05
3.24326e-05
3.22317e-05
3.19864e-05
3.17502e-05
3.14998e-05
3.12206e-05
3.09154e-05
3.05868e-05
3.02344e-05
2.98574e-05
2.9457e-05
2.90348e-05
2.85918e-05
2.81302e-05
2.76521e-05
2.71599e-05
2.66554e-05
2.61413e-05
2.56199e-05
2.50933e-05
2.45639e-05
2.40332e-05
2.35021e-05
2.29706e-05
2.24406e-05
2.19102e-05
2.13894e-05
2.08552e-05
2.03442e-05
1.97582e-05
1.94009e-05
1.86954e-05
1.86516e-05
1.74216e-05
1.80387e-05
1.55501e-05
1.8062e-05
1.33126e-05
1.98993e-05
1.60952e-05
2.51584e-05
2.52509e-05
3.14977e-05
2.87513e-05
2.6563e-05
7.90939e-06
1.92002e-06
0
0
0
0.000391837
0.000501136
0.0031914
0.00974772
0.0182861
0.0267677
0.0335289
0.0374237
0.0374987
0.0326856
0.0207863
0.0187338
0.0316447
0.0360689
0.0339633
0.026594
0.0164227
0.00697121
0.00129203
0.000295567
0
0
0
7.86489e-07
1.80484e-06
2.51713e-05
3.30483e-05
3.1818e-05
3.00566e-05
2.9697e-05
2.97135e-05
2.955e-05
2.92928e-05
2.90552e-05
2.8829e-05
2.85818e-05
2.83053e-05
2.80039e-05
2.76805e-05
2.73361e-05
2.69718e-05
2.65885e-05
2.61885e-05
2.57739e-05
2.53471e-05
2.491e-05
2.44652e-05
2.40146e-05
2.35608e-05
2.31053e-05
2.26502e-05
2.21952e-05
2.17406e-05
2.12876e-05
2.08326e-05
2.03888e-05
1.9929e-05
1.94959e-05
1.89801e-05
1.86893e-05
1.80266e-05
1.80513e-05
1.68582e-05
1.75628e-05
1.50895e-05
1.77254e-05
1.29905e-05
1.97149e-05
1.60275e-05
2.51358e-05
2.53288e-05
3.15956e-05
2.53416e-05
2.66407e-05
2.5348e-05
1.24377e-05
2.90705e-06
0
0
0
4.41342e-05
0.000725017
0.00125029
0.00624455
0.0138287
0.0222605
0.0296337
0.0345469
0.0359567
0.0328666
0.0237226
0.0120783
0.027909
0.0337095
0.0328721
0.026592
0.0170664
0.00769409
0.00171265
0.000347017
0
0
0
6.4943e-08
5.58827e-06
2.07508e-05
2.95696e-05
2.94503e-05
2.74768e-05
2.68489e-05
2.70051e-05
2.70583e-05
2.68814e-05
2.66352e-05
2.64005e-05
2.61664e-05
2.59125e-05
2.56334e-05
2.53331e-05
2.50151e-05
2.46806e-05
2.43315e-05
2.397e-05
2.35987e-05
2.32195e-05
2.28348e-05
2.24472e-05
2.20586e-05
2.16708e-05
2.1285e-05
2.09017e-05
2.05199e-05
2.01403e-05
1.97585e-05
1.93891e-05
1.90024e-05
1.86457e-05
1.81995e-05
1.7976e-05
1.73559e-05
1.74486e-05
1.62913e-05
1.7086e-05
1.46234e-05
1.73893e-05
1.26418e-05
1.95416e-05
1.59316e-05
2.51125e-05
2.54188e-05
3.17268e-05
2.36949e-05
2.36122e-05
2.49967e-05
2.38907e-05
1.64538e-05
3.80816e-06
5.54246e-08
0
0
0
0.000457049
0.000486425
0.00340505
0.00960974
0.0175366
0.0253133
0.031259
0.0341064
0.0328104
0.0261463
0.00972164
0.0236427
0.0311569
0.0317591
0.0266864
0.0179156
0.00866176
0.00220514
0.000331866
0.000104336
0
0
0
4.30672e-06
1.49457e-05
2.57e-05
2.81984e-05
2.65091e-05
2.48664e-05
2.44075e-05
2.4459e-05
2.4443e-05
2.4275e-05
2.40481e-05
2.38168e-05
2.35791e-05
2.33246e-05
2.30511e-05
2.27621e-05
2.24615e-05
2.21501e-05
2.18315e-05
2.15076e-05
2.11808e-05
2.08539e-05
2.05284e-05
2.02068e-05
1.98888e-05
1.95762e-05
1.92668e-05
1.89606e-05
1.86528e-05
1.83582e-05
1.80447e-05
1.77666e-05
1.73917e-05
1.72367e-05
1.66645e-05
1.68217e-05
1.57126e-05
1.65841e-05
1.41638e-05
1.70244e-05
1.2333e-05
1.93356e-05
1.58625e-05
2.50695e-05
2.55003e-05
3.18146e-05
2.22235e-05
2.18808e-05
2.21037e-05
2.24531e-05
2.20066e-05
1.9383e-05
7.82297e-06
1.87727e-06
1.53659e-08
0
0
4.79922e-05
0.000574401
0.00102564
0.00475488
0.0106675
0.0177664
0.0244777
0.029273
0.0308745
0.0281702
0.0195861
0.0129793
0.0251323
0.0289449
0.0268596
0.0204355
0.0121837
0.00521853
0.000966576
0.000313973
4.62765e-05
0
0
4.75867e-07
3.34156e-06
1.03519e-05
2.04063e-05
2.39388e-05
2.34129e-05
2.22008e-05
2.16823e-05
2.16339e-05
2.15998e-05
2.14523e-05
2.12468e-05
2.10322e-05
2.08113e-05
2.05785e-05
2.03342e-05
2.00798e-05
1.98208e-05
1.95596e-05
1.92988e-05
1.904e-05
1.87858e-05
1.85389e-05
1.82987e-05
1.8067e-05
1.78405e-05
1.76196e-05
1.73977e-05
1.71902e-05
1.69627e-05
1.67734e-05
1.64877e-05
1.64045e-05
1.59032e-05
1.61134e-05
1.50989e-05
1.59986e-05
1.37285e-05
1.65388e-05
1.20949e-05
1.88859e-05
1.54896e-05
2.45085e-05
2.48592e-05
3.06737e-05
2.04214e-05
2.02309e-05
2.02817e-05
2.01717e-05
2.00967e-05
2.05946e-05
1.94867e-05
1.56495e-05
2.38272e-06
6.25364e-07
0
0
0
9.7848e-05
0.000551802
0.000878624
0.00411693
0.00937815
0.0158275
0.0220414
0.0264982
0.0278519
0.0249417
0.015956
0.0144124
0.0238036
0.0259896
0.0229331
0.0165337
0.00931239
0.00367859
0.000474021
0.000219938
0
0
0
2.81228e-07
2.99963e-06
1.01094e-05
1.81778e-05
2.07567e-05
2.0105e-05
1.91149e-05
1.87797e-05
1.87647e-05
1.87032e-05
1.85466e-05
1.83587e-05
1.81704e-05
1.79785e-05
1.77797e-05
1.7579e-05
1.73788e-05
1.71842e-05
1.69969e-05
1.68196e-05
1.6655e-05
1.65025e-05
1.63643e-05
1.62347e-05
1.61148e-05
1.5995e-05
1.58909e-05
1.57662e-05
1.56803e-05
1.54974e-05
1.55e-05
1.50784e-05
1.53563e-05
1.44325e-05
1.53989e-05
1.32355e-05
1.61084e-05
1.18335e-05
1.86432e-05
1.55161e-05
2.4465e-05
2.51513e-05
3.08098e-05
1.86034e-05
1.8477e-05
1.8602e-05
1.85094e-05
1.8283e-05
1.8218e-05
1.84797e-05
1.87758e-05
1.69201e-05
1.02764e-05
2.37604e-06
3.31427e-08
0
0
0
9.90131e-05
0.000534065
0.000723309
0.00375103
0.00869295
0.0147615
0.020565
0.02457
0.025395
0.0218249
0.0114181
0.0162058
0.0227682
0.0231683
0.0191813
0.01288
0.00658664
0.00211893
0.000281991
8.59524e-05
0
0
0
2.91343e-07
3.23599e-06
1.13432e-05
1.67864e-05
1.76419e-05
1.67734e-05
1.61652e-05
1.6055e-05
1.60367e-05
1.59312e-05
1.57734e-05
1.56108e-05
1.54549e-05
1.53031e-05
1.51562e-05
1.50223e-05
1.49033e-05
1.48028e-05
1.47232e-05
1.4664e-05
1.46257e-05
1.46018e-05
1.45919e-05
1.45831e-05
1.459e-05
1.45738e-05
1.45955e-05
1.45157e-05
1.46075e-05
1.42661e-05
1.4616e-05
1.37752e-05
1.48216e-05
1.2738e-05
1.57157e-05
1.15192e-05
1.8453e-05
1.54708e-05
2.44935e-05
2.53663e-05
3.09288e-05
1.67374e-05
1.68952e-05
1.68567e-05
1.67059e-05
1.65445e-05
1.64576e-05
1.65434e-05
1.70208e-05
1.66661e-05
1.40821e-05
4.74855e-06
1.20789e-06
0
0
0
0
9.35541e-05
0.00052113
0.000728714
0.00369367
0.00846719
0.0142418
0.0196065
0.0229993
0.02302
0.0183903
0.00483128
0.0174571
0.0214311
0.0202006
0.0155084
0.00943413
0.00416499
0.000888594
0.000241904
1.11484e-05
0
0
0
1.63987e-06
5.17703e-06
1.21958e-05
1.47715e-05
1.44863e-05
1.37739e-05
1.35139e-05
1.34834e-05
1.34195e-05
1.3298e-05
1.31719e-05
1.30612e-05
1.29669e-05
1.28957e-05
1.28495e-05
1.28324e-05
1.28463e-05
1.28898e-05
1.29605e-05
1.30495e-05
1.31554e-05
1.32608e-05
1.33795e-05
1.3469e-05
1.35925e-05
1.36078e-05
1.37806e-05
1.35168e-05
1.39303e-05
1.31708e-05
1.42863e-05
1.22832e-05
1.5358e-05
1.12308e-05
1.8298e-05
1.54047e-05
2.45535e-05
2.54847e-05
3.1039e-05
1.50412e-05
1.52199e-05
1.52014e-05
1.51048e-05
1.50168e-05
1.49122e-05
1.48185e-05
1.48318e-05
1.50567e-05
1.54471e-05
1.45335e-05
9.87666e-06
2.3432e-06
3.32167e-08
0
0
0
0
9.63591e-05
0.000518713
0.000875695
0.00389762
0.00861312
0.0141327
0.0189812
0.0215693
0.0205056
0.0143771
0.00962521
0.0180331
0.0197013
0.0170294
0.0118609
0.00629514
0.00217229
0.000113277
0.000115798
0
0
0
1.96098e-07
1.31489e-07
7.88247e-06
1.12965e-05
1.18536e-05
1.13028e-05
1.09526e-05
1.08933e-05
1.08715e-05
1.08121e-05
1.07534e-05
1.07252e-05
1.07371e-05
1.07889e-05
1.08826e-05
1.10187e-05
1.11906e-05
1.13929e-05
1.16117e-05
1.18434e-05
1.20683e-05
1.22988e-05
1.249e-05
1.27064e-05
1.28063e-05
1.30469e-05
1.28576e-05
1.33219e-05
1.2645e-05
1.38095e-05
1.19017e-05
1.50423e-05
1.10132e-05
1.81713e-05
1.5337e-05
2.46398e-05
2.55089e-05
3.11664e-05
1.34139e-05
1.35903e-05
1.35868e-05
1.35169e-05
1.34579e-05
1.33881e-05
1.33398e-05
1.32532e-05
1.31964e-05
1.32681e-05
1.36873e-05
1.36663e-05
1.19266e-05
4.32458e-06
1.15985e-06
4.22075e-09
0
0
0
0
0.000107196
0.000495611
0.00111832
0.00433262
0.00907631
0.0143276
0.018521
0.0200662
0.017626
0.00914851
0.0130971
0.0178658
0.0174466
0.0136011
0.00830447
0.00363241
0.000730497
0.000235066
1.77067e-05
0
0
3.79748e-09
1.43629e-06
4.38463e-06
7.97763e-06
9.02678e-06
8.72913e-06
8.30609e-06
8.17395e-06
8.18583e-06
8.23067e-06
8.31493e-06
8.46786e-06
8.68991e-06
8.96695e-06
9.28528e-06
9.63146e-06
9.99415e-06
1.03584e-05
1.0719e-05
1.10588e-05
1.13904e-05
1.16696e-05
1.19604e-05
1.21269e-05
1.24137e-05
1.22882e-05
1.27871e-05
1.21887e-05
1.3382e-05
1.15714e-05
1.47555e-05
1.08276e-05
1.80628e-05
1.52489e-05
2.47326e-05
2.5406e-05
3.13269e-05
1.23024e-05
1.24449e-05
1.24678e-05
1.2411e-05
1.23544e-05
1.23116e-05
1.22879e-05
1.22353e-05
1.21765e-05
1.20992e-05
1.21214e-05
1.22825e-05
1.27085e-05
1.18693e-05
9.21575e-06
4.86348e-07
1.961e-07
0
0
0
0
0
0.000149187
0.000115573
0.00157464
0.00504841
0.0098389
0.0147176
0.0180402
0.0182594
0.0140583
0.00555156
0.0148867
0.0168284
0.0145962
0.0100098
0.00510254
0.00158194
3.10476e-05
0.000114882
0
0
0
5.53394e-07
1.05448e-06
3.27634e-06
4.06657e-06
4.49687e-06
4.5624e-06
4.68539e-06
5.10132e-06
5.66322e-06
6.2477e-06
6.83303e-06
7.41436e-06
7.98081e-06
8.52296e-06
9.03915e-06
9.52375e-06
9.98099e-06
1.04006e-05
1.07998e-05
1.11369e-05
1.14709e-05
1.16798e-05
1.19858e-05
1.19137e-05
1.24212e-05
1.19088e-05
1.30882e-05
1.14118e-05
1.4562e-05
1.07982e-05
1.80071e-05
1.5141e-05
2.48461e-05
2.50633e-05
3.16492e-05
1.11105e-05
1.12755e-05
1.12915e-05
1.12335e-05
1.11807e-05
1.11688e-05
1.11771e-05
1.11084e-05
1.10929e-05
1.10702e-05
1.10068e-05
1.09717e-05
1.10881e-05
1.13293e-05
1.14973e-05
1.00893e-05
6.08295e-06
1.75331e-06
4.78966e-08
0
0
0
0
3.33555e-06
0.000277704
0.000181048
0.00221964
0.00603069
0.0108137
0.0151177
0.0172601
0.0157796
0.00896413
0.0109509
0.0153392
0.014787
0.0111247
0.00634092
0.00243709
0.000295781
0.00019224
0
0
0
8.15417e-08
1.24713e-06
2.87131e-06
6.01391e-06
5.49217e-06
4.64552e-06
4.84235e-06
5.49434e-06
6.1815e-06
6.79649e-06
7.35479e-06
7.88441e-06
8.38853e-06
8.86755e-06
9.31502e-06
9.73709e-06
1.01267e-05
1.04995e-05
1.08185e-05
1.11296e-05
1.13229e-05
1.15952e-05
1.15283e-05
1.20135e-05
1.15394e-05
1.27042e-05
1.10649e-05
1.42586e-05
1.04637e-05
1.78478e-05
1.48517e-05
2.48409e-05
2.44109e-05
3.21752e-05
1.15438e-05
1.16254e-05
1.16193e-05
1.15574e-05
1.14982e-05
1.1458e-05
1.14343e-05
1.13711e-05
1.13291e-05
1.128e-05
1.12032e-05
1.11352e-05
1.10836e-05
1.10695e-05
1.11467e-05
1.13926e-05
1.09405e-05
9.25035e-06
4.80028e-06
1.53065e-06
5.31536e-08
0
0
0
0
2.98087e-05
0.00038906
0.000591238
0.00319016
0.00736299
0.0120882
0.0157274
0.0165645
0.0131513
0.005355
0.0135248
0.0149942
0.0124459
0.00785182
0.00325639
0.000930396
0.000217528
0.000171516
7.72807e-05
1.34351e-05
0
1.85517e-07
1.86643e-07
6.73408e-06
9.23645e-06
8.93947e-06
8.34006e-06
8.24303e-06
8.45587e-06
8.75136e-06
9.06054e-06
9.37928e-06
9.70653e-06
1.00328e-05
1.03539e-05
1.06631e-05
1.09679e-05
1.1239e-05
1.15019e-05
1.16679e-05
1.18936e-05
1.18505e-05
1.22672e-05
1.18857e-05
1.29137e-05
1.14777e-05
1.44262e-05
1.0805e-05
1.80244e-05
1.44716e-05
2.50832e-05
2.32634e-05
3.3886e-05
1.06773e-05
1.07125e-05
1.07267e-05
1.07477e-05
1.07615e-05
1.07757e-05
1.08031e-05
1.0836e-05
1.08636e-05
1.08794e-05
1.08946e-05
1.09219e-05
1.0946e-05
1.09714e-05
1.09935e-05
1.11142e-05
1.13234e-05
1.14717e-05
1.09656e-05
9.53609e-06
4.89174e-06
1.45921e-06
0
0
0
0
0
7.54054e-05
0.000357665
0.000672901
0.00294557
0.00641681
0.0101638
0.0128688
0.0131833
0.00991196
0.00534636
0.0112032
0.0118939
0.00964816
0.00618356
0.0031189
0.00113604
0.000160513
0.000149097
6.13109e-05
0
8.75411e-09
1.32361e-06
5.15827e-06
8.88117e-06
1.0062e-05
1.00921e-05
9.99284e-06
1.0005e-05
1.0085e-05
1.01862e-05
1.02961e-05
1.04114e-05
1.05298e-05
1.0648e-05
1.07728e-05
1.08852e-05
1.10032e-05
1.1037e-05
1.11098e-05
1.09528e-05
1.12655e-05
1.07923e-05
1.18094e-05
1.01131e-05
1.33451e-05
8.84618e-06
1.70384e-05
1.31718e-05
2.39543e-05
2.32311e-05
3.3769e-05
)
;

boundaryField
{
    inlet
    {
        type            calculated;
        value           nonuniform List<scalar> 
27
(
7.72748e-05
7.73427e-05
7.74503e-05
7.75865e-05
7.77306e-05
7.78799e-05
7.80377e-05
7.82026e-05
7.83739e-05
7.85459e-05
7.87179e-05
7.88869e-05
7.90499e-05
7.92036e-05
7.93443e-05
7.94686e-05
7.95788e-05
7.94046e-05
7.94412e-05
7.94417e-05
7.93888e-05
7.92761e-05
7.90876e-05
7.88141e-05
7.84249e-05
7.80383e-05
7.72939e-05
)
;
    }
    outlet
    {
        type            calculated;
        value           nonuniform List<scalar> 
78
(
9.6209e-06
9.67581e-06
9.70311e-06
9.73945e-06
9.76674e-06
9.79441e-06
9.84003e-06
9.89281e-06
9.93855e-06
9.96889e-06
9.9986e-06
1.00436e-05
1.00869e-05
1.01319e-05
1.01719e-05
1.02998e-05
1.05012e-05
1.06309e-05
1.01566e-05
8.87745e-06
4.63562e-06
1.41406e-06
0
0
0
0
0
7.55819e-05
0.000357256
0.000653555
0.0029324
0.0064054
0.0101574
0.0128726
0.0132045
0.00996352
0.00516908
0.0111444
0.011862
0.0096347
0.00618211
0.00312358
0.00114327
0.000130335
0.000145619
5.97895e-05
0
8.19358e-09
1.23767e-06
4.86703e-06
8.41807e-06
9.54596e-06
9.56734e-06
9.45758e-06
9.44518e-06
9.48863e-06
9.54491e-06
9.60381e-06
9.6635e-06
9.72379e-06
9.78231e-06
9.85096e-06
9.90551e-06
9.97923e-06
9.94914e-06
1.00049e-05
9.74085e-06
1.01706e-05
9.42809e-06
1.08895e-05
8.27967e-06
1.27767e-05
4.57552e-06
1.67161e-05
1.24648e-05
2.35482e-05
2.32591e-05
3.28542e-05
)
;
    }
    walls
    {
        type            calculated;
        value           nonuniform List<scalar> 0();
    }
    frontAndBack
    {
        type            empty;
    }
    procBoundary7to3
    {
        type            processor;
        value           nonuniform List<scalar> 
16
(
3.40133e-05
3.44374e-05
3.00141e-05
2.7731e-05
2.60838e-05
2.41087e-05
2.18212e-05
1.97047e-05
1.6821e-05
1.6821e-05
1.51013e-05
1.34753e-05
1.23659e-05
1.11252e-05
1.16552e-05
1.05965e-05
)
;
    }
    procBoundary7to6
    {
        type            processor;
        value           nonuniform List<scalar> 
91
(
3.01652e-05
2.69083e-05
2.69083e-05
2.62655e-05
2.62655e-05
1.6875e-05
1.6875e-05
1.60884e-05
2.17073e-05
2.17073e-05
1.92684e-05
2.07817e-05
2.07817e-05
2.28905e-05
2.14745e-05
2.14091e-05
2.14091e-05
2.47231e-05
2.39227e-05
2.29542e-05
2.29542e-05
2.80575e-05
2.70462e-05
2.60471e-05
2.50629e-05
2.50629e-05
3.19367e-05
3.09438e-05
2.99603e-05
2.89891e-05
2.80315e-05
2.80315e-05
3.66134e-05
3.57655e-05
3.49024e-05
3.40266e-05
3.31417e-05
3.22513e-05
3.13583e-05
3.13583e-05
4.11383e-05
4.0739e-05
4.03123e-05
3.98557e-05
3.93678e-05
3.88482e-05
3.82967e-05
3.77137e-05
3.71003e-05
3.64588e-05
3.57901e-05
3.50964e-05
3.50964e-05
4.7197e-08
0
2.90229e-06
0.000584118
0.000550495
0.00511818
0.0135185
0.0235572
0.0329679
0.0403011
0.0446047
0.0449599
0.0402224
0.0283539
0.016738
0.0352276
0.0427816
0.0428716
0.0365758
0.0257031
0.0136209
0.00448439
0.000237125
9.86253e-05
0
0
0
6.95035e-06
2.61616e-05
4.20137e-05
4.26877e-05
4.0158e-05
3.92036e-05
3.90707e-05
3.88646e-05
3.85486e-05
3.82329e-05
3.82329e-05
)
;
    }
}


// ************************************************************************* //
