/*--------------------------------*- C++ -*----------------------------------*\
| =========                 |                                                 |
| \\      /  F ield         | OpenFOAM: The Open Source CFD Toolbox           |
|  \\    /   O peration     | Version:  2306                                  |
|   \\  /    A nd           | Website:  www.openfoam.com                      |
|    \\/     M anipulation  |                                                 |
\*---------------------------------------------------------------------------*/
FoamFile
{
    version     2.0;
    format      ascii;
    arch        "LSB;label=32;scalar=64";
    class       volSymmTensorField;
    location    "425";
    object      turbulenceProperties:devReff;
}
// * * * * * * * * * * * * * * * * * * * * * * * * * * * * * * * * * * * * * //

dimensions      [0 2 -2 0 0 0 0];

internalField   nonuniform List<symmTensor> 
1340
(
(1.51567e-07 3.94311e-08 -6.5253e-20 -2.16655e-07 -6.69225e-21 6.50876e-08)
(-1.07022e-07 -3.13008e-08 -6.43282e-20 1.62261e-07 -8.10173e-21 -5.52385e-08)
(1.55539e-07 4.35073e-08 3.39364e-20 -2.19592e-07 3.37366e-21 6.40525e-08)
(1.02209e-07 6.49882e-08 3.4538e-19 -1.47564e-07 3.83111e-20 4.53552e-08)
(-9.25687e-08 -3.37645e-08 8.53801e-23 1.52867e-07 -2.99036e-22 -6.02979e-08)
(1.43135e-07 5.17124e-08 -7.59514e-22 -2.14831e-07 1.79411e-22 7.16958e-08)
(-1.6235e-08 2.84921e-08 -1.75616e-19 4.88109e-08 -2.08148e-20 -3.25759e-08)
(9.96086e-08 6.07544e-08 5.64177e-21 -1.46633e-07 1.17725e-21 4.70239e-08)
(-8.39655e-08 -3.49504e-08 7.68616e-20 1.46636e-07 9.50337e-21 -6.26702e-08)
(1.37846e-07 5.57714e-08 -1.54177e-19 -2.13122e-07 -1.58505e-20 7.52764e-08)
(2.98856e-08 4.90588e-08 -4.19252e-19 -1.51926e-08 -4.85475e-20 -1.4693e-08)
(7.13491e-08 5.93791e-08 -2.29483e-19 -9.37001e-08 -2.54224e-20 2.2351e-08)
(-1.4297e-08 2.81718e-08 7.75136e-20 4.72166e-08 9.12895e-21 -3.29196e-08)
(9.96046e-08 5.57295e-08 -1.14383e-19 -1.46908e-07 -1.2715e-20 4.73035e-08)
(-7.94139e-08 -3.4802e-08 -3.23855e-19 1.42544e-07 -4.00646e-20 -6.31297e-08)
(1.3792e-07 5.75349e-08 1.48008e-19 -2.1398e-07 1.48772e-20 7.60607e-08)
(5.94311e-08 6.01891e-08 6.19689e-20 -5.33911e-08 7.13148e-21 -6.04003e-09)
(6.91774e-08 6.19023e-08 -1.65701e-20 -7.87266e-08 -1.9678e-21 9.54927e-09)
(3.04716e-08 4.65702e-08 1.6128e-21 -1.55532e-08 -2.95628e-22 -1.49184e-08)
(7.20499e-08 5.44421e-08 7.68298e-22 -9.45509e-08 -1.15869e-22 2.2501e-08)
(-1.25729e-08 2.78111e-08 5.4535e-20 4.57289e-08 6.55779e-21 -3.31561e-08)
(9.95117e-08 5.08397e-08 -5.77899e-21 -1.47122e-07 -8.98143e-22 4.76107e-08)
(-7.51752e-08 -3.46441e-08 1.95194e-22 1.38945e-07 -1.6819e-23 -6.37694e-08)
(1.37723e-07 5.91181e-08 -5.62017e-22 -2.148e-07 1.33584e-22 7.70763e-08)
(9.50688e-08 6.7271e-08 -1.39452e-19 -9.63939e-08 -1.61978e-20 1.32502e-09)
(8.18307e-08 6.34798e-08 -1.77821e-19 -7.95628e-08 -2.02186e-20 -2.26795e-09)
(7.925e-08 6.27936e-08 -2.22728e-19 -8.29864e-08 -2.48417e-20 3.73633e-09)
(5.91374e-08 5.58365e-08 -9.05326e-20 -5.29943e-08 -9.83402e-21 -6.14306e-09)
(6.94242e-08 5.70203e-08 1.0061e-20 -7.91535e-08 1.4787e-21 9.72934e-09)
(3.09001e-08 4.40097e-08 1.70521e-19 -1.58169e-08 1.96321e-20 -1.50832e-08)
(7.23599e-08 4.96645e-08 3.53624e-20 -9.51024e-08 3.71623e-21 2.27425e-08)
(-1.07616e-08 2.72033e-08 -1.22266e-19 4.42423e-08 -1.42992e-20 -3.34807e-08)
(9.89e-08 4.6413e-08 1.0973e-19 -1.4712e-07 1.20871e-20 4.82195e-08)
(-7.07621e-08 -3.48334e-08 1.81477e-22 1.35622e-07 -1.13084e-22 -6.48601e-08)
(1.36402e-07 6.05834e-08 2.78029e-22 -2.1518e-07 -6.18795e-23 7.87785e-08)
(1.20992e-07 6.04214e-08 -3.29546e-20 -1.20839e-07 -3.15422e-21 -1.52769e-10)
(1.10596e-07 6.16434e-08 1.63746e-19 -1.11118e-07 1.80378e-20 5.22241e-10)
(9.99468e-08 6.10947e-08 1.90363e-20 -9.90758e-08 1.88848e-21 -8.7095e-10)
(9.33357e-08 6.0638e-08 1.09703e-19 -9.47465e-08 1.20823e-20 1.41084e-09)
(8.04697e-08 5.76662e-08 4.45289e-22 -7.81604e-08 -3.36682e-22 -2.30926e-09)
(7.85427e-08 5.72259e-08 9.64232e-22 -8.23972e-08 -6.31035e-23 3.85452e-09)
(5.86273e-08 5.14839e-08 7.58643e-20 -5.2392e-08 8.51414e-21 -6.23522e-09)
(6.94021e-08 5.21821e-08 -9.58466e-21 -7.92872e-08 -1.18421e-21 9.88503e-09)
(3.12364e-08 4.13507e-08 -7.92466e-22 -1.59989e-08 2.03973e-22 -1.52375e-08)
(7.24704e-08 4.50339e-08 -1.61982e-22 -9.54519e-08 5.44592e-23 2.29814e-08)
(-9.01459e-09 2.63676e-08 3.50997e-22 4.2846e-08 -6.85451e-23 -3.38314e-08)
(9.82172e-08 4.23029e-08 -5.96614e-22 -1.47111e-07 1.57997e-22 4.88937e-08)
(-6.68489e-08 -3.52078e-08 2.79626e-19 1.32883e-07 3.49042e-20 -6.60344e-08)
(1.34995e-07 6.14705e-08 7.50858e-20 -2.15538e-07 7.63316e-21 8.05433e-08)
(1.68219e-07 3.3407e-08 -9.0633e-20 -1.68211e-07 -9.34995e-21 -8.02438e-12)
(1.54588e-07 4.05685e-08 6.70792e-20 -1.5459e-07 7.46114e-21 2.16264e-12)
(1.4139e-07 4.58667e-08 3.38681e-20 -1.41368e-07 3.36555e-21 -2.26403e-11)
(1.28823e-07 4.94546e-08 -1.25779e-20 -1.2887e-07 -1.48988e-21 4.72831e-11)
(1.16586e-07 5.21356e-08 1.82039e-22 -1.16413e-07 -2.15749e-23 -1.73228e-10)
(1.07136e-07 5.39829e-08 -6.18751e-22 -1.07671e-07 1.16205e-22 5.35302e-10)
(9.71144e-08 5.41164e-08 -6.97179e-23 -9.62058e-08 -2.83053e-22 -9.08552e-10)
(9.12168e-08 5.41801e-08 -1.1956e-19 -9.26672e-08 -1.32312e-20 1.45036e-09)
(7.88008e-08 5.19731e-08 -5.71172e-20 -7.6427e-08 -5.96846e-21 -2.37382e-09)
(7.75294e-08 5.17395e-08 7.15461e-20 -8.14576e-08 8.05527e-21 3.9282e-09)
(5.79217e-08 4.71479e-08 -7.2213e-20 -5.15897e-08 -8.26869e-21 -6.33202e-09)
(6.91483e-08 4.73998e-08 2.89895e-23 -7.91442e-08 -7.4139e-23 9.99588e-09)
(3.14578e-08 3.86171e-08 -1.54216e-19 -1.60791e-08 -1.77897e-20 -1.53787e-08)
(7.24458e-08 4.05251e-08 -3.19509e-20 -9.56179e-08 -3.37576e-21 2.31721e-08)
(-7.45806e-09 2.53667e-08 6.32656e-20 4.16128e-08 7.40975e-21 -3.41548e-08)
(9.76331e-08 3.83692e-08 -9.95011e-20 -1.47147e-07 -1.09859e-20 4.95135e-08)
(-6.36246e-08 -3.56385e-08 -2.36008e-19 1.30759e-07 -2.93374e-20 -6.71349e-08)
(1.34055e-07 6.16929e-08 -9.59624e-20 -2.16244e-07 -9.53815e-21 8.21896e-08)
(2.13478e-07 -3.87813e-08 -8.44697e-20 -2.13453e-07 -8.56018e-21 -2.44709e-11)
(2.03145e-07 -2.31976e-08 -1.27383e-20 -2.0312e-07 -9.68479e-22 -2.48706e-11)
(1.92159e-07 -9.15802e-09 -1.3212e-20 -1.92133e-07 -1.33473e-21 -2.62501e-11)
(1.80706e-07 3.33712e-09 -2.05104e-20 -1.80681e-07 -1.98727e-21 -2.47477e-11)
(1.68959e-07 1.42754e-08 -4.02211e-21 -1.68937e-07 -1.4643e-22 -2.24595e-11)
(1.57101e-07 2.35739e-08 5.73315e-20 -1.57076e-07 6.13999e-21 -2.50784e-11)
(1.45337e-07 3.11585e-08 6.59896e-20 -1.45326e-07 6.89385e-21 -1.00574e-11)
(1.33773e-07 3.69822e-08 -1.36738e-22 -1.33731e-07 -8.95231e-23 -4.23164e-11)
(1.22663e-07 4.11549e-08 2.85212e-20 -1.22704e-07 3.13973e-21 4.16955e-11)
(1.11652e-07 4.43995e-08 1.83621e-20 -1.11454e-07 1.91366e-21 -1.98625e-10)
(1.03181e-07 4.67457e-08 -4.25133e-23 -1.03722e-07 -6.54286e-23 5.40202e-10)
(9.38344e-08 4.7474e-08 -4.58186e-24 -9.28891e-08 2.25109e-23 -9.45274e-10)
(8.86716e-08 4.79802e-08 7.04123e-22 -9.01489e-08 -5.69942e-24 1.4773e-09)
(7.67809e-08 4.64705e-08 5.48417e-20 -7.43492e-08 5.88841e-21 -2.43171e-09)
(7.61698e-08 4.63982e-08 -6.81645e-20 -8.01516e-08 -7.62347e-21 3.98181e-09)
(5.6975e-08 4.288e-08 6.87376e-20 -5.05625e-08 7.83981e-21 -6.41252e-09)
(6.86274e-08 4.27144e-08 2.2897e-24 -7.87033e-08 8.14461e-23 1.00759e-08)
(3.15206e-08 3.58474e-08 1.47343e-19 -1.60305e-08 1.68475e-20 -1.54901e-08)
(7.22491e-08 3.61473e-08 3.07989e-20 -9.55709e-08 3.14946e-21 2.33219e-08)
(-6.12753e-09 2.42355e-08 -6.01947e-20 4.05701e-08 -7.13908e-21 -3.44426e-08)
(9.70787e-08 3.45874e-08 2.46824e-22 -1.47171e-07 6.65616e-23 5.00918e-08)
(-6.09604e-08 -3.61284e-08 4.01475e-19 1.29136e-07 4.97559e-20 -6.81754e-08)
(1.33355e-07 6.12903e-08 4.13127e-22 -2.17039e-07 -1.71376e-22 8.36835e-08)
(2.13811e-07 -1.72826e-07 -1.85681e-20 -2.13846e-07 -1.82408e-21 3.50788e-11)
(2.146e-07 -1.52862e-07 -4.23951e-20 -2.14623e-07 -3.90401e-21 2.33945e-11)
(2.13923e-07 -1.33172e-07 1.96299e-20 -2.13937e-07 1.90411e-21 1.45642e-11)
(2.11815e-07 -1.13934e-07 -3.69961e-20 -2.1182e-07 -3.73414e-21 4.72917e-12)
(2.08346e-07 -9.53303e-08 -1.2366e-20 -2.08344e-07 -8.98377e-22 -1.96009e-12)
(2.03604e-07 -7.75273e-08 4.53952e-20 -2.03596e-07 4.56574e-21 -8.07094e-12)
(1.97699e-07 -6.06748e-08 4.72891e-21 -1.97686e-07 3.23872e-22 -1.28842e-11)
(1.90758e-07 -4.49023e-08 4.53986e-22 -1.90741e-07 -1.81026e-22 -1.66981e-11)
(1.82924e-07 -3.03096e-08 -1.39914e-20 -1.82905e-07 -1.48956e-21 -1.9006e-11)
(1.74342e-07 -1.69629e-08 -1.02757e-20 -1.74321e-07 -1.01292e-21 -2.04534e-11)
(1.65163e-07 -4.90122e-09 1.17491e-22 -1.65142e-07 1.1475e-23 -2.1301e-11)
(1.55543e-07 5.8441e-09 1.43732e-23 -1.55524e-07 -1.59127e-23 -1.90601e-11)
(1.4564e-07 1.51563e-08 -3.33844e-22 -1.45615e-07 2.9639e-23 -2.49444e-11)
(1.35658e-07 2.29314e-08 -1.06019e-20 -1.35652e-07 -1.00694e-21 -6.49147e-12)
(1.25683e-07 2.90737e-08 9.14213e-23 -1.25636e-07 -5.36161e-23 -4.69947e-11)
(1.16011e-07 3.36461e-08 -2.73497e-20 -1.16061e-07 -2.93295e-21 4.93749e-11)
(1.06237e-07 3.7295e-08 -1.75518e-20 -1.06027e-07 -1.83763e-21 -2.0986e-10)
(9.87615e-08 4.00134e-08 -4.05062e-23 -9.93146e-08 3.98639e-23 5.5312e-10)
(9.01264e-08 4.12419e-08 -4.38558e-24 -8.91605e-08 2.89557e-22 -9.65901e-10)
(8.57099e-08 4.2111e-08 1.07928e-19 -8.72148e-08 1.20221e-20 1.50487e-09)
(7.44102e-08 4.12222e-08 2.82637e-20 -7.19404e-08 3.23774e-21 -2.46973e-09)
(7.44594e-08 4.12615e-08 1.11235e-19 -7.84853e-08 1.2241e-20 4.02586e-09)
(5.57765e-08 3.87289e-08 -6.55353e-20 -4.93119e-08 -7.53451e-21 -6.46463e-09)
(6.78286e-08 3.81672e-08 3.83051e-23 -7.7962e-08 -2.30327e-23 1.01334e-08)
(3.14078e-08 3.30744e-08 -1.00437e-19 -1.58412e-08 -1.12939e-20 -1.55666e-08)
(7.18636e-08 3.19188e-08 8.46902e-20 -9.5303e-08 9.66399e-21 2.34394e-08)
(-5.01267e-09 2.29941e-08 1.46365e-19 3.97065e-08 1.70335e-20 -3.46938e-08)
(9.6503e-08 3.09525e-08 -8.76429e-24 -1.47155e-07 -1.09945e-22 5.06525e-08)
(-5.88533e-08 -3.67105e-08 -2.60961e-22 1.28099e-07 5.92071e-23 -6.92456e-08)
(1.32837e-07 6.03703e-08 2.15837e-20 -2.17987e-07 2.19591e-21 8.51504e-08)
(8.04171e-08 -3.20331e-07 1.57346e-20 -8.04725e-08 1.42347e-21 5.53378e-11)
(9.19215e-08 -3.11623e-07 5.9515e-22 -9.19919e-08 6.00337e-23 7.03104e-11)
(1.03184e-07 -3.02017e-07 9.76755e-22 -1.03265e-07 1.1902e-22 8.08093e-11)
(1.14102e-07 -2.91485e-07 4.67578e-20 -1.14189e-07 4.31197e-21 8.68367e-11)
(1.24571e-07 -2.80014e-07 2.10219e-20 -1.24662e-07 1.96251e-21 9.11982e-11)
(1.34478e-07 -2.67619e-07 3.31068e-20 -1.34569e-07 3.04493e-21 9.03849e-11)
(1.43717e-07 -2.54337e-07 1.03516e-20 -1.43802e-07 9.50526e-22 8.49036e-11)
(1.52188e-07 -2.40217e-07 1.8868e-20 -1.52273e-07 1.70881e-21 8.45645e-11)
(1.59776e-07 -2.25351e-07 -1.08786e-20 -1.59849e-07 -1.2583e-21 7.32156e-11)
(1.66403e-07 -2.09827e-07 -6.5265e-20 -1.66471e-07 -6.06894e-21 6.76968e-11)
(1.71977e-07 -1.93762e-07 1.2523e-20 -1.72036e-07 1.26021e-21 5.93994e-11)
(1.76427e-07 -1.77283e-07 -1.71949e-20 -1.76477e-07 -1.70154e-21 4.95811e-11)
(1.79703e-07 -1.60532e-07 8.30112e-23 -1.79744e-07 3.02012e-23 4.1316e-11)
(1.81766e-07 -1.4366e-07 1.16188e-22 -1.81798e-07 -6.22111e-23 3.18184e-11)
(1.82603e-07 -1.26825e-07 -2.40255e-23 -1.82628e-07 9.76124e-24 2.56113e-11)
(1.82211e-07 -1.10184e-07 1.16705e-22 -1.82228e-07 -2.72614e-23 1.64893e-11)
(1.80623e-07 -9.3896e-08 4.09029e-23 -1.80633e-07 -3.30669e-23 1.01594e-11)
(1.77884e-07 -7.81151e-08 -1.53779e-22 -1.77888e-07 -4.87187e-23 4.58273e-12)
(1.74061e-07 -6.29906e-08 -2.36936e-20 -1.74059e-07 -2.19991e-21 -1.31019e-12)
(1.69241e-07 -4.86477e-08 4.79185e-20 -1.69236e-07 4.96367e-21 -4.82101e-12)
(1.63526e-07 -3.52069e-08 -3.97815e-21 -1.63517e-07 -5.75876e-22 -8.49956e-12)
(1.57026e-07 -2.27419e-08 9.90047e-21 -1.57016e-07 1.03193e-21 -1.06947e-11)
(1.49861e-07 -1.13169e-08 4.1233e-23 -1.49848e-07 -4.7763e-23 -1.30003e-11)
(1.42161e-07 -9.78592e-10 -6.33299e-22 -1.4215e-07 -2.12981e-22 -1.07566e-11)
(1.34054e-07 8.13575e-09 -5.154e-20 -1.34034e-07 -5.60059e-21 -1.96131e-11)
(1.25741e-07 1.58979e-08 -5.03146e-20 -1.25743e-07 -5.12133e-21 2.08859e-12)
(1.17278e-07 2.2172e-08 3.64609e-20 -1.17231e-07 3.98484e-21 -4.68869e-11)
(1.08999e-07 2.69719e-08 -2.89121e-20 -1.0906e-07 -3.19627e-21 6.07314e-11)
(1.00444e-07 3.08749e-08 1.66963e-20 -1.00229e-07 1.85619e-21 -2.14912e-10)
(9.39609e-08 3.38407e-08 -1.27173e-22 -9.45269e-08 -3.20899e-23 5.6607e-10)
(8.60596e-08 3.54735e-08 -6.16971e-23 -8.50825e-08 -7.43093e-23 -9.77146e-10)
(8.23869e-08 3.66237e-08 -3.89226e-20 -8.39137e-08 -4.36233e-21 1.52681e-09)
(7.17295e-08 3.62765e-08 -7.65864e-20 -6.92368e-08 -8.62263e-21 -2.49266e-09)
(7.24289e-08 3.63768e-08 -1.06113e-19 -7.6485e-08 -1.15415e-20 4.05602e-09)
(5.43411e-08 3.4733e-08 2.84795e-20 -4.7848e-08 3.35004e-21 -6.49315e-09)
(6.6769e-08 3.37919e-08 1.55564e-20 -7.6934e-08 1.84462e-21 1.0165e-08)
(3.11256e-08 3.03291e-08 7.67448e-20 -1.55219e-08 8.72416e-21 -1.56037e-08)
(7.13108e-08 2.78476e-08 5.28052e-20 -9.48357e-08 5.88932e-21 2.35248e-08)
(-4.10821e-09 2.16619e-08 -1.9061e-22 3.90072e-08 -2.42666e-23 -3.48989e-08)
(9.5929e-08 2.74323e-08 -8.55324e-24 -1.47111e-07 -5.47208e-24 5.11821e-08)
(-5.72135e-08 -3.73433e-08 -1.03282e-22 1.27462e-07 -2.76756e-23 -7.02486e-08)
(1.32548e-07 5.89465e-08 -2.06137e-20 -2.19099e-07 -2.05965e-21 8.6551e-08)
(-9.69534e-08 -6.08366e-08 -1.16976e-21 8.86976e-08 -4.86881e-23 8.25579e-09)
(-1.00211e-07 -2.49327e-08 1.80518e-22 9.29949e-08 -3.73779e-23 7.21637e-09)
(-9.98238e-08 -9.73159e-08 6.32465e-22 1.00823e-07 7.91647e-23 -9.9881e-10)
(-7.06965e-08 -4.00876e-07 -7.10217e-22 7.26258e-08 -2.55813e-23 -1.92929e-09)
(-6.14656e-07 -1.20915e-05 -1.2345e-20 6.18256e-07 -2.16045e-21 -3.60006e-09)
(-4.40918e-06 -2.48869e-05 9.46533e-20 4.37626e-06 6.45652e-21 3.29173e-08)
(-0.000546112 0.00201037 1.90853e-18 0.000545113 2.87109e-19 9.99064e-07)
(-0.00451464 0.0259636 -6.6931e-18 0.00451802 -5.08225e-19 -3.38703e-06)
(-0.0163178 0.100562 3.85048e-18 0.0163279 -2.53311e-19 -1.01488e-05)
(-0.0366439 0.222413 3.10001e-17 0.036643 2.82746e-18 8.302e-07)
(-0.0607075 0.352079 7.1586e-18 0.0606968 1.06133e-18 1.07516e-05)
(-0.0810753 0.442243 2.49869e-17 0.0810663 2.91931e-18 8.96706e-06)
(-0.0905321 0.456575 -3.96184e-17 0.0905224 -1.59545e-18 9.74563e-06)
(-0.0840548 0.37825 -1.26502e-16 0.0840447 -1.28594e-17 1.01169e-05)
(-0.060532 0.215369 4.05474e-17 0.0605295 -1.88783e-18 2.54121e-06)
(-0.0237415 0.00123912 2.60719e-16 0.0237431 2.40379e-17 -1.55904e-06)
(0.018326 -0.214444 3.57547e-17 -0.0183338 7.5034e-18 7.75447e-06)
(0.0546608 -0.373395 -5.22423e-17 -0.0546646 -4.66534e-18 3.85054e-06)
(0.0725564 -0.421709 7.84098e-18 -0.0725422 -1.05442e-18 -1.41496e-05)
(0.0648786 -0.344017 7.54731e-17 -0.0648578 7.49141e-18 -2.07949e-05)
(0.038488 -0.191806 -2.87675e-17 -0.0384795 -3.16218e-18 -8.49368e-06)
(0.0129998 -0.0623994 5.3413e-17 -0.0129997 5.6128e-18 -1.34509e-07)
(0.00175491 -0.00864148 -2.6888e-17 -0.00175473 -2.55967e-18 -1.87053e-07)
(6.15999e-06 -9.45061e-05 1.82468e-18 -6.19704e-06 1.35482e-19 3.70414e-08)
(-7.20687e-06 8.06608e-06 3.17835e-19 7.17821e-06 3.36408e-20 2.86572e-08)
(-8.69257e-08 -9.5115e-09 1.02874e-21 8.67389e-08 1.35894e-22 1.86772e-10)
(-2.66683e-08 -2.06158e-07 1.60204e-21 2.67668e-08 6.16778e-23 -9.84584e-11)
(-2.40998e-09 -2.58191e-07 1.21746e-20 2.49635e-09 1.13493e-21 -8.6371e-11)
(-2.06592e-09 -2.33321e-07 -7.88076e-22 2.06673e-09 -5.06924e-25 -8.05661e-13)
(-4.28435e-09 -2.15067e-07 3.93237e-21 4.26378e-09 4.03014e-22 2.05723e-11)
(-2.70862e-09 -3.16717e-07 -1.36402e-20 2.68791e-09 -1.11853e-21 2.07155e-11)
(5.9891e-09 -3.44069e-07 -2.18759e-20 -5.99642e-09 -2.09982e-21 7.32015e-12)
(1.43844e-08 -3.08411e-07 1.87305e-21 -1.43943e-08 1.08888e-22 9.9478e-12)
(2.25574e-08 -2.92272e-07 -8.39553e-21 -2.25684e-08 -8.14572e-22 1.09954e-11)
(3.17656e-08 -2.89061e-07 1.78687e-20 -3.17795e-08 1.63391e-21 1.38595e-11)
(4.13937e-08 -2.85685e-07 -5.58037e-21 -4.14115e-08 -4.35891e-22 1.78148e-11)
(5.0973e-08 -2.80172e-07 -1.55943e-20 -5.09955e-08 -1.44256e-21 2.25232e-11)
(6.05494e-08 -2.73974e-07 -1.39606e-20 -6.05755e-08 -1.33576e-21 2.60299e-11)
(7.01454e-08 -2.67389e-07 1.28895e-20 -7.01795e-08 1.19141e-21 3.41462e-11)
(7.965e-08 -2.60147e-07 1.66301e-25 -7.96892e-08 -4.60012e-24 3.91978e-11)
(8.89684e-08 -2.52128e-07 -2.483e-23 -8.90138e-08 3.40723e-23 4.53994e-11)
(9.80161e-08 -2.43322e-07 -1.55267e-23 -9.80656e-08 2.41346e-23 4.94979e-11)
(1.06712e-07 -2.33722e-07 -2.20617e-23 -1.06767e-07 1.66706e-23 5.54405e-11)
(1.14957e-07 -2.23334e-07 -1.17166e-23 -1.15011e-07 6.75237e-24 5.48422e-11)
(1.2267e-07 -2.12179e-07 -6.40857e-22 -1.22729e-07 -7.28626e-23 5.84753e-11)
(1.29756e-07 -2.00312e-07 -1.76038e-20 -1.29812e-07 -1.68097e-21 5.59487e-11)
(1.36137e-07 -1.87801e-07 1.12239e-22 -1.3619e-07 1.07932e-22 5.35431e-11)
(1.41733e-07 -1.74727e-07 4.96443e-20 -1.41784e-07 4.78691e-21 5.07346e-11)
(1.4647e-07 -1.61181e-07 6.17808e-23 -1.46516e-07 -1.00966e-22 4.57357e-11)
(1.50288e-07 -1.47268e-07 1.25833e-20 -1.50329e-07 1.2068e-21 4.08214e-11)
(1.53138e-07 -1.33113e-07 -3.20846e-21 -1.53172e-07 -3.2094e-22 3.40871e-11)
(1.54987e-07 -1.1884e-07 2.14781e-20 -1.55017e-07 2.15399e-21 2.92217e-11)
(1.55812e-07 -1.04577e-07 1.5634e-23 -1.55834e-07 -7.04824e-23 2.2412e-11)
(1.55614e-07 -9.04626e-08 5.28381e-24 -1.5563e-07 -2.28681e-23 1.68969e-11)
(1.54408e-07 -7.66323e-08 1.72667e-23 -1.5442e-07 8.68311e-23 1.22992e-11)
(1.52227e-07 -6.3223e-08 2.26613e-20 -1.52234e-07 2.10468e-21 6.59609e-12)
(1.49126e-07 -5.03569e-08 -5.0257e-20 -1.49129e-07 -5.12488e-21 2.37408e-12)
(1.45172e-07 -3.81509e-08 1.2702e-20 -1.45171e-07 1.46776e-21 -4.95066e-13)
(1.40441e-07 -2.6692e-08 -7.12261e-23 -1.40438e-07 -1.33463e-23 -3.44553e-12)
(1.35023e-07 -1.60488e-08 1.84437e-22 -1.35016e-07 -1.30283e-22 -7.16028e-12)
(1.29022e-07 -6.28223e-09 -2.83924e-20 -1.29018e-07 -3.00019e-21 -4.28562e-12)
(1.22536e-07 2.46295e-09 3.05114e-22 -1.22519e-07 4.19617e-23 -1.6099e-11)
(1.15756e-07 1.00417e-08 9.49555e-21 -1.15764e-07 8.90316e-22 8.89694e-12)
(1.08706e-07 1.62826e-08 -2.37064e-22 -1.08658e-07 3.1597e-23 -4.7576e-11)
(1.0175e-07 2.11577e-08 2.47431e-22 -1.0182e-07 -7.61876e-23 7.03501e-11)
(9.43771e-08 2.51743e-08 -1.59709e-20 -9.41574e-08 -1.81174e-21 -2.1962e-10)
(8.8864e-08 2.82707e-08 -3.66532e-20 -8.9438e-08 -4.00817e-21 5.73984e-10)
(8.17055e-08 3.02098e-08 -2.39193e-20 -8.07217e-08 -2.4971e-21 -9.8378e-10)
(7.87605e-08 3.15637e-08 1.19434e-20 -8.03004e-08 1.47882e-21 1.53995e-09)
(6.87811e-08 3.16737e-08 5.69099e-20 -6.62758e-08 6.29628e-21 -2.50537e-09)
(7.01128e-08 3.17854e-08 5.11005e-20 -7.418e-08 5.448e-21 4.06716e-09)
(5.26926e-08 3.09308e-08 -7.21101e-23 -4.61948e-08 -1.82966e-22 -6.4978e-09)
(6.54643e-08 2.96175e-08 -6.78602e-20 -7.56286e-08 -7.58929e-21 1.01644e-08)
(3.06631e-08 2.76457e-08 -1.46165e-22 -1.50564e-08 6.88996e-23 -1.56066e-08)
(7.05967e-08 2.3934e-08 -5.10058e-20 -9.41524e-08 -5.52544e-21 2.35557e-08)
(-3.4438e-09 2.02756e-08 3.89157e-20 3.84996e-08 4.61494e-21 -3.50558e-08)
(9.53795e-08 2.39725e-08 -2.08492e-22 -1.4703e-07 -2.11982e-23 5.16509e-08)
(-5.60838e-08 -3.79844e-08 -1.60233e-19 1.27295e-07 -1.98382e-20 -7.12114e-08)
(1.32583e-07 5.70307e-08 1.96362e-20 -2.20405e-07 2.00188e-21 8.78224e-08)
(-1.26266e-07 -1.37377e-07 -2.58129e-24 1.15296e-07 -8.26422e-23 1.09691e-08)
(-8.01015e-08 -5.81047e-08 1.82636e-21 7.41063e-08 1.54421e-22 5.9952e-09)
(-8.95026e-08 -1.97423e-08 6.85251e-22 9.02286e-08 1.14948e-22 -7.25968e-10)
(-8.57776e-08 -4.75461e-08 -5.6342e-22 8.73026e-08 -2.49132e-23 -1.52498e-09)
(-6.10102e-08 -2.65858e-07 -5.75815e-22 6.10836e-08 -6.44626e-23 -7.34585e-11)
(-2.57385e-08 -6.40242e-07 2.81833e-24 2.56054e-08 -8.8608e-24 1.33108e-10)
(-7.3067e-06 -0.000152027 2.21707e-22 7.29765e-06 -5.68111e-21 9.04536e-09)
(-0.000152839 0.000221731 1.04139e-18 0.00015244 1.103e-19 3.99245e-07)
(-0.00201686 0.0103792 -3.32797e-18 0.00201674 -3.48982e-19 1.18144e-07)
(-0.00959689 0.0569981 1.9166e-17 0.00960393 1.75649e-18 -7.034e-06)
(-0.0255899 0.153217 -1.00636e-17 0.0255957 -4.40419e-19 -5.88013e-06)
(-0.0474032 0.274155 2.31389e-19 0.0473966 -7.9952e-19 6.57889e-06)
(-0.0683733 0.37479 5.58576e-17 0.0683631 5.18574e-18 1.02095e-05)
(-0.0810411 0.414653 -1.98564e-18 0.0810318 1.34955e-18 9.3114e-06)
(-0.0796173 0.370358 -6.30325e-17 0.0796084 -5.71216e-18 8.85349e-06)
(-0.0618322 0.242005 -1.13228e-18 0.061829 1.59236e-19 3.24202e-06)
(-0.030199 0.0552628 -7.20917e-17 0.0302 -8.1203e-18 -9.54733e-07)
(0.00846715 -0.145863 8.04013e-17 -0.00847313 5.9e-18 5.98454e-06)
(0.0442019 -0.307634 5.32774e-17 -0.0442068 5.58976e-18 4.90695e-06)
(0.0648639 -0.376073 3.58148e-17 -0.0648546 2.67383e-18 -9.31515e-06)
(0.0620476 -0.326597 1.00352e-16 -0.062029 1.1805e-17 -1.8632e-05)
(0.0396654 -0.195582 -1.39972e-16 -0.0396543 -1.37889e-17 -1.11238e-05)
(0.0149748 -0.0706574 7.57727e-17 -0.0149741 7.17619e-18 -7.60444e-07)
(0.00239418 -0.0112722 -3.08993e-17 -0.00239412 -2.63192e-18 -6.34516e-08)
(3.04843e-05 -0.00021875 2.54853e-21 -3.05231e-05 -2.69402e-20 3.88583e-08)
(-1.09894e-05 1.4773e-05 2.131e-22 1.09475e-05 2.55821e-21 4.18295e-08)
(-8.85949e-08 5.89803e-08 -2.91977e-21 8.83772e-08 -2.35018e-22 2.17623e-10)
(-2.9015e-08 -1.45115e-07 -4.87327e-21 2.90761e-08 -4.82022e-22 -6.11225e-11)
(-5.73147e-10 -2.18348e-07 6.08629e-22 6.41243e-10 3.05428e-23 -6.80962e-11)
(1.35772e-09 -2.0222e-07 -1.22261e-21 -1.36594e-09 -1.15429e-22 8.21519e-12)
(-1.36019e-09 -1.7665e-07 5.18872e-22 1.3254e-09 3.6359e-24 3.47894e-11)
(2.35371e-10 -2.47103e-07 9.81355e-21 -2.80969e-10 9.27468e-22 4.55983e-11)
(8.31458e-09 -2.98336e-07 3.30961e-24 -8.35696e-09 -1.89861e-24 4.23754e-11)
(1.5395e-08 -2.65451e-07 1.49945e-20 -1.54347e-08 1.46195e-21 3.97144e-11)
(2.16551e-08 -2.45106e-07 -1.30729e-20 -2.16943e-08 -1.19168e-21 3.91724e-11)
(2.9053e-08 -2.40725e-07 3.43901e-21 -2.90962e-08 2.86345e-22 4.32241e-11)
(3.70917e-08 -2.38351e-07 -4.02585e-24 -3.71357e-08 -2.89739e-23 4.39953e-11)
(4.51115e-08 -2.34018e-07 1.72018e-20 -4.51517e-08 1.63595e-21 4.02189e-11)
(5.30966e-08 -2.28861e-07 -4.71265e-21 -5.31407e-08 -4.17142e-22 4.40423e-11)
(6.10903e-08 -2.23419e-07 6.09421e-21 -6.11315e-08 5.71381e-22 4.11508e-11)
(6.90215e-08 -2.17415e-07 3.19753e-21 -6.90636e-08 3.40013e-22 4.21103e-11)
(7.67863e-08 -2.1068e-07 -4.69892e-24 -7.68277e-08 2.98874e-23 4.14567e-11)
(8.4326e-08 -2.03235e-07 1.7368e-20 -8.43669e-08 1.69244e-21 4.09375e-11)
(9.15817e-08 -1.95112e-07 -3.26487e-24 -9.1622e-08 -3.5229e-24 4.03364e-11)
(9.84813e-08 -1.86319e-07 5.81993e-22 -9.85211e-08 9.98402e-23 3.97734e-11)
(1.04947e-07 -1.7687e-07 1.26326e-20 -1.04985e-07 1.21858e-21 3.83576e-11)
(1.10906e-07 -1.66815e-07 2.02444e-23 -1.10943e-07 -8.0646e-23 3.66304e-11)
(1.1629e-07 -1.5621e-07 -8.20878e-23 -1.16324e-07 1.00153e-22 3.38644e-11)
(1.21032e-07 -1.45118e-07 2.64827e-20 -1.21063e-07 2.60132e-21 3.1154e-11)
(1.25069e-07 -1.3362e-07 -1.19507e-20 -1.25097e-07 -1.25059e-21 2.7627e-11)
(1.2835e-07 -1.2181e-07 2.54965e-23 -1.28373e-07 -7.11813e-23 2.37657e-11)
(1.3083e-07 -1.09789e-07 -2.05364e-20 -1.30851e-07 -2.01706e-21 2.03106e-11)
(1.32476e-07 -9.76574e-08 1.32612e-23 -1.32491e-07 5.85194e-23 1.49435e-11)
(1.33269e-07 -8.55312e-08 4.51314e-24 -1.3328e-07 4.29629e-23 1.114e-11)
(1.33202e-07 -7.35269e-08 2.0989e-20 -1.3321e-07 2.16211e-21 7.2117e-12)
(1.32287e-07 -6.17626e-08 2.74695e-21 -1.32291e-07 2.77692e-22 3.5239e-12)
(1.30547e-07 -5.03562e-08 4.39303e-21 -1.30547e-07 3.58727e-22 -5.50073e-13)
(1.28024e-07 -3.94113e-08 -8.39355e-21 -1.28021e-07 -9.64115e-22 -2.97483e-12)
(1.24767e-07 -2.90215e-08 -2.27011e-20 -1.24762e-07 -2.13397e-21 -5.175e-12)
(1.20835e-07 -1.92521e-08 6.76042e-20 -1.20826e-07 7.27032e-21 -8.93093e-12)
(1.1631e-07 -1.01764e-08 2.76589e-20 -1.16305e-07 2.83535e-21 -4.98111e-12)
(1.11258e-07 -1.92913e-09 4.67722e-20 -1.11239e-07 4.98921e-21 -1.90424e-11)
(1.05862e-07 5.32829e-09 5.41577e-20 -1.05872e-07 5.59112e-21 1.02978e-11)
(1.00108e-07 1.13962e-08 -4.19555e-20 -1.00055e-07 -4.50346e-21 -5.29492e-11)
(9.43864e-08 1.62156e-08 5.80531e-20 -9.44608e-08 6.35033e-21 7.44226e-11)
(8.81375e-08 2.0221e-08 -1.50384e-20 -8.79122e-08 -1.79855e-21 -2.25339e-10)
(8.35572e-08 2.33383e-08 -3.09112e-23 -8.41318e-08 7.42612e-23 5.74679e-10)
(7.71352e-08 2.54864e-08 1.25787e-20 -7.61486e-08 1.32624e-21 -9.86599e-10)
(7.48921e-08 2.69736e-08 -1.05304e-20 -7.64319e-08 -1.09313e-21 1.53986e-09)
(6.56124e-08 2.7458e-08 4.4701e-20 -6.31073e-08 5.08287e-21 -2.50507e-09)
(6.75558e-08 2.75238e-08 3.40197e-20 -7.16143e-08 3.7544e-21 4.05843e-09)
(5.08468e-08 2.7363e-08 -5.69197e-24 -4.43714e-08 5.21551e-24 -6.47542e-09)
(6.39511e-08 2.56652e-08 4.36519e-20 -7.40697e-08 4.85346e-21 1.01186e-08)
(3.00086e-08 2.50751e-08 9.79821e-24 -1.44593e-08 -2.28432e-22 -1.55493e-08)
(6.97808e-08 2.01619e-08 -1.47621e-19 -9.32985e-08 -1.66044e-20 2.35177e-08)
(-3.07365e-09 1.88919e-08 -3.7187e-20 3.81843e-08 -4.27623e-21 -3.51106e-08)
(9.4954e-08 2.05254e-08 -9.52455e-20 -1.46933e-07 -1.03344e-20 5.19791e-08)
(-5.54276e-08 -3.85235e-08 1.61421e-19 1.27414e-07 2.0006e-20 -7.19868e-08)
(1.33145e-07 5.46577e-08 -1.8742e-20 -2.22035e-07 -1.88471e-21 8.88895e-08)
(-1.13358e-07 -1.45444e-07 -7.37015e-25 1.03456e-07 2.70373e-23 9.90219e-09)
(-1.04059e-07 -1.23713e-07 3.6034e-24 9.59013e-08 2.36238e-23 8.15801e-09)
(-7.17294e-08 -5.66292e-08 -6.58049e-22 7.2335e-08 -8.70332e-23 -6.05622e-10)
(-7.48902e-08 -1.94885e-08 9.51983e-22 7.62104e-08 7.37479e-23 -1.32015e-09)
(-7.23177e-08 -1.62047e-08 1.75734e-22 7.23601e-08 5.07593e-23 -4.24291e-11)
(-5.57132e-08 -1.55503e-07 -7.83481e-22 5.55024e-08 -7.75824e-23 2.10823e-10)
(-2.24359e-08 -4.7982e-07 5.02053e-22 2.25859e-08 3.415e-23 -1.49982e-10)
(-2.84148e-07 -4.70551e-05 2.29059e-22 2.98664e-07 4.58413e-22 -1.45157e-08)
(-1.86609e-05 -7.39647e-05 -2.50441e-22 1.85944e-05 6.34588e-22 6.656e-08)
(-0.000715495 0.00299575 1.95704e-20 0.000714704 6.96656e-21 7.91115e-07)
(-0.00499082 0.0281028 -3.26218e-20 0.00499417 -1.21042e-19 -3.35648e-06)
(-0.0165868 0.0975002 1.44248e-17 0.0165957 1.41733e-18 -8.88197e-06)
(-0.0353542 0.203552 2.23247e-19 0.0353539 2.4711e-19 2.65532e-07)
(-0.0560413 0.308292 -1.31959e-18 0.0560326 -6.34839e-19 8.73258e-06)
(-0.0711989 0.368648 4.07175e-17 0.0711913 4.11105e-18 7.62926e-06)
(-0.074309 0.354855 2.96993e-18 0.074302 6.50151e-19 6.98146e-06)
(-0.0619877 0.259271 3.08609e-17 0.0619837 2.18039e-18 3.99538e-06)
(-0.0354075 0.0996032 5.81802e-17 0.0354065 6.00986e-18 1.00274e-06)
(-0.000259093 -0.0857724 3.13406e-20 0.000252645 1.16161e-18 6.44789e-06)
(0.034409 -0.247194 -3.84723e-17 -0.0344179 -3.02286e-18 8.91781e-06)
(0.0571324 -0.331669 -4.40762e-17 -0.0571322 -6.58802e-18 -2.30383e-07)
(0.0586162 -0.30739 1.74405e-16 -0.0586064 1.79209e-17 -9.86254e-06)
(0.0402007 -0.197172 -1.34187e-16 -0.0401942 -1.16767e-17 -6.50174e-06)
(0.0166447 -0.077937 4.93729e-19 -0.0166449 -4.72009e-19 1.53806e-07)
(0.00310508 -0.0143484 -8.39193e-18 -0.00310516 -7.79395e-19 8.50921e-08)
(8.65216e-05 -0.000501228 -1.39395e-21 -8.65537e-05 -5.8536e-21 3.20321e-08)
(-1.61024e-05 2.13304e-05 -1.32777e-19 1.60557e-05 -1.28545e-20 4.67091e-08)
(-8.72087e-08 1.05307e-07 -4.06323e-24 8.71229e-08 1.62883e-23 8.57687e-11)
(-2.81842e-08 -9.37163e-08 -2.75593e-21 2.83735e-08 -2.63782e-22 -1.89336e-10)
(3.65077e-09 -1.81453e-07 -1.97436e-24 -3.46417e-09 -1.77316e-23 -1.86602e-10)
(5.61916e-09 -1.72531e-07 6.78959e-25 -5.55177e-09 -5.11682e-24 -6.73991e-11)
(6.38804e-10 -1.46739e-07 -1.31699e-22 -6.32426e-10 -8.05497e-24 -6.37866e-12)
(5.91801e-10 -1.72735e-07 -1.65859e-21 -5.85663e-10 -1.05794e-22 -6.13788e-12)
(7.79751e-09 -2.41955e-07 -2.09666e-20 -7.77788e-09 -2.06959e-21 -1.96286e-11)
(1.51003e-08 -2.26439e-07 1.34699e-20 -1.5088e-08 1.24285e-21 -1.23372e-11)
(2.04023e-08 -2.06241e-07 -3.29295e-21 -2.04088e-08 -2.80662e-22 6.53927e-12)
(2.6373e-08 -2.01103e-07 1.18215e-24 -2.63951e-08 -1.45354e-23 2.21199e-11)
(3.30641e-08 -1.9962e-07 -3.72999e-21 -3.30978e-08 -3.42405e-22 3.36853e-11)
(3.97738e-08 -1.96161e-07 -7.21773e-21 -3.98142e-08 -7.03939e-22 4.04326e-11)
(4.63867e-08 -1.91476e-07 -5.03199e-25 -4.64329e-08 -8.9588e-24 4.61938e-11)
(5.30251e-08 -1.8664e-07 -7.50368e-24 -5.30746e-08 2.97386e-23 4.94211e-11)
(5.96627e-08 -1.81547e-07 1.07002e-20 -5.97178e-08 1.05636e-21 5.51044e-11)
(6.61787e-08 -1.75883e-07 -1.3588e-20 -6.62334e-08 -1.30078e-21 5.4725e-11)
(7.25033e-08 -1.69559e-07 -3.32167e-21 -7.25591e-08 -3.13098e-22 5.58366e-11)
(7.85898e-08 -1.62621e-07 -4.55992e-24 -7.86468e-08 1.71289e-23 5.69957e-11)
(8.4384e-08 -1.55105e-07 -8.58023e-24 -8.44392e-08 9.95037e-24 5.52155e-11)
(8.98301e-08 -1.47038e-07 1.63738e-23 -8.98847e-08 -4.89101e-23 5.45598e-11)
(9.48642e-08 -1.38459e-07 -1.87588e-23 -9.4916e-08 -3.75867e-23 5.17621e-11)
(9.94286e-08 -1.29404e-07 -2.52645e-20 -9.94789e-08 -2.4031e-21 5.02947e-11)
(1.03463e-07 -1.19942e-07 3.10831e-20 -1.03509e-07 3.16277e-21 4.60002e-11)
(1.0692e-07 -1.10137e-07 2.93973e-21 -1.06963e-07 1.97799e-22 4.29091e-11)
(1.09752e-07 -1.00069e-07 1.82331e-23 -1.09792e-07 -7.02749e-24 4.02378e-11)
(1.11916e-07 -8.98226e-08 1.7832e-23 -1.11951e-07 -7.42664e-24 3.48444e-11)
(1.13388e-07 -7.9485e-08 3.82852e-24 -1.13419e-07 -8.15093e-23 3.14156e-11)
(1.14144e-07 -6.91556e-08 -2.01423e-20 -1.14171e-07 -2.01514e-21 2.70199e-11)
(1.14178e-07 -5.89377e-08 -2.65237e-21 -1.14201e-07 -1.93066e-22 2.24979e-11)
(1.13496e-07 -4.89299e-08 1.27685e-21 -1.13514e-07 1.95603e-22 1.82459e-11)
(1.12116e-07 -3.92348e-08 2.29621e-20 -1.12131e-07 2.41351e-21 1.50157e-11)
(1.10064e-07 -2.99318e-08 8.5916e-21 -1.10076e-07 5.41425e-22 1.10973e-11)
(1.0738e-07 -2.10901e-08 -9.18291e-20 -1.07386e-07 -9.66659e-21 6.22372e-12)
(1.04118e-07 -1.27832e-08 -1.61928e-20 -1.04128e-07 -1.43407e-21 1.00146e-11)
(1.00319e-07 -5.12695e-09 1.84197e-20 -1.0031e-07 1.79676e-21 -9.11137e-12)
(9.61545e-08 1.69591e-09 -8.87771e-20 -9.61781e-08 -9.40595e-21 2.36776e-11)
(9.15747e-08 7.48525e-09 3.15349e-20 -9.15288e-08 3.54187e-21 -4.5888e-11)
(8.6987e-08 1.21275e-08 -1.60612e-20 -8.70722e-08 -1.71177e-21 8.51655e-11)