/*--------------------------------*- C++ -*----------------------------------*\
| =========                 |                                                 |
| \\      /  F ield         | OpenFOAM: The Open Source CFD Toolbox           |
|  \\    /   O peration     | Version:  2306                                  |
|   \\  /    A nd           | Website:  www.openfoam.com                      |
|    \\/     M anipulation  |                                                 |
\*---------------------------------------------------------------------------*/
FoamFile
{
    version     2.0;
    format      ascii;
    arch        "LSB;label=32;scalar=64";
    class       volScalarField;
    location    "425";
    object      turbulenceProperties:epsilon;
}
// * * * * * * * * * * * * * * * * * * * * * * * * * * * * * * * * * * * * * //

dimensions      [0 2 -3 0 0 0 0];

internalField   nonuniform List<scalar> 
1340
(
6.71405e-10
3.87682e-10
6.91136e-10
3.64611e-10
3.63912e-10
6.90701e-10
6.34837e-11
3.5531e-10
3.48584e-10
6.96388e-10
5.06884e-11
1.70844e-10
6.23013e-11
3.47963e-10
3.35784e-10
7.05821e-10
1.02682e-10
1.41701e-10
4.76861e-11
1.6461e-10
6.10897e-11
3.41392e-10
3.25603e-10
7.1546e-10
2.04283e-10
1.57405e-10
1.57397e-10
9.46171e-11
1.33909e-10
4.46339e-11
1.58633e-10
5.99235e-11
3.35798e-10
3.18382e-10
7.24542e-10
2.72683e-10
2.40094e-10
2.03466e-10
1.86854e-10
1.43613e-10
1.45903e-10
8.67671e-11
1.26261e-10
4.1589e-11
1.53037e-10
5.87955e-11
3.31288e-10
3.13865e-10
7.32882e-10
4.39188e-10
3.81387e-10
3.29809e-10
2.84314e-10
2.43124e-10
2.15637e-10
1.83133e-10
1.69977e-10
1.30334e-10
1.3468e-10
7.91936e-11
1.18798e-10
3.8582e-11
1.47758e-10
5.77109e-11
3.27597e-10
3.11388e-10
7.41709e-10
7.03077e-10
6.24334e-10
5.52665e-10
4.87783e-10
4.29303e-10
3.7679e-10
3.29865e-10
2.87503e-10
2.49958e-10
2.15151e-10
1.92329e-10
1.6372e-10
1.53685e-10
1.17586e-10
1.23747e-10
7.19036e-11
1.115e-10
3.56282e-11
1.42682e-10
5.6689e-11
3.24445e-10
3.105e-10
7.49579e-10
1.12918e-09
1.03707e-09
9.48574e-10
8.64122e-10
7.8417e-10
7.08989e-10
6.38775e-10
5.73604e-10
5.13461e-10
4.5822e-10
4.07722e-10
3.61784e-10
3.20126e-10
2.82635e-10
2.48374e-10
2.17895e-10
1.88884e-10
1.70283e-10
1.45323e-10
1.38069e-10
1.05428e-10
1.13153e-10
6.49352e-11
1.04376e-10
3.27524e-11
1.37759e-10
5.5723e-11
3.21709e-10
3.1166e-10
7.57392e-10
1.6296e-09
1.57709e-09
1.52187e-09
1.46394e-09
1.40334e-09
1.34027e-09
1.27508e-09
1.20821e-09
1.14016e-09
1.07153e-09
1.00283e-09
9.34625e-10
8.67499e-10
8.01943e-10
7.38458e-10
6.7738e-10
6.19093e-10
5.6385e-10
5.11844e-10
4.6319e-10
4.17921e-10
3.75994e-10
3.37318e-10
3.01823e-10
2.69319e-10
2.39874e-10
2.12618e-10
1.88322e-10
1.64499e-10
1.49657e-10
1.28077e-10
1.23248e-10
9.3948e-11
1.02971e-10
5.83317e-11
9.74531e-11
2.99862e-11
1.32999e-10
5.47894e-11
3.19327e-10
3.13914e-10
7.65136e-10
1.061e-13
1.90856e-16
0
0
4.50239e-07
6.53748e-07
0.00013444
0.00628804
0.0460484
0.144246
0.27095
0.353834
0.334225
0.214201
0.0683977
0.000758368
0.0619621
0.196268
0.276634
0.225153
0.101216
0.0203429
0.00116535
2.12792e-06
9.81428e-08
0
0
0
2.49656e-13
8.98177e-11
1.50462e-09
1.86295e-09
1.44302e-09
1.27108e-09
1.25829e-09
1.24587e-09
1.21248e-09
1.17641e-09
1.14179e-09
1.10598e-09
1.06803e-09
1.0281e-09
9.8629e-10
9.42667e-10
8.97481e-10
8.5107e-10
8.03874e-10
7.56296e-10
7.08708e-10
6.61518e-10
6.15129e-10
5.69909e-10
5.26115e-10
4.8405e-10
4.43925e-10
4.05901e-10
3.70092e-10
3.36551e-10
3.05252e-10
2.76142e-10
2.49209e-10
2.24304e-10
2.01618e-10
1.80328e-10
1.61353e-10
1.42106e-10
1.3056e-10
1.12078e-10
1.09319e-10
8.32043e-11
9.32577e-11
5.21374e-11
9.0738e-11
2.7351e-11
1.28303e-10
5.39185e-11
3.17147e-10
3.17441e-10
7.7284e-10
5.08598e-10
1.36046e-13
3.05549e-16
0
0
1.79493e-12
5.48482e-06
4.39699e-06
0.00152256
0.0190699
0.0802119
0.181521
0.270462
0.286088
0.209259
0.0862622
0.00534833
0.028613
0.132533
0.216633
0.196427
0.0989324
0.0232393
0.00165798
6.55911e-06
1.61842e-07
0
0
0
2.67507e-14
7.70279e-12
8.63044e-10
1.41255e-09
1.08833e-09
8.98901e-10
8.73238e-10
8.69205e-10
8.48916e-10
8.24474e-10
8.01443e-10
7.77507e-10
7.51344e-10
7.23399e-10
6.94103e-10
6.63588e-10
6.31973e-10
5.99559e-10
5.66652e-10
5.33526e-10
5.00484e-10
4.67832e-10
4.35836e-10
4.047e-10
3.74652e-10
3.45851e-10
3.1843e-10
2.92478e-10
2.68041e-10
2.45106e-10
2.23619e-10
2.03596e-10
1.849e-10
1.67801e-10
1.51506e-10
1.37039e-10
1.21769e-10
1.13064e-10
9.73866e-11
9.63562e-11
7.32538e-11
8.40738e-11
4.63726e-11
8.42556e-11
2.48506e-11
1.23722e-10
5.30265e-11
3.15053e-10
3.21064e-10
7.81065e-10
5.20796e-10
3.82473e-10
2.05671e-12
3.68236e-15
0
0
0
1.71682e-06
1.25536e-06
0.000223266
0.00642843
0.039754
0.113577
0.198085
0.23726
0.197224
0.0997286
0.0151688
0.00989042
0.0851918
0.166173
0.168816
0.0949488
0.0255964
0.00226068
1.91477e-05
1.94508e-07
0
0
0
5.53853e-17
2.42633e-15
3.1068e-10
9.24808e-10
7.99506e-10
6.40435e-10
6.11105e-10
6.12798e-10
6.00048e-10
5.80164e-10
5.62241e-10
5.45562e-10
5.27707e-10
5.08186e-10
4.87467e-10
4.65891e-10
4.43653e-10
4.2095e-10
3.97965e-10
3.74941e-10
3.52098e-10
3.29642e-10
3.07732e-10
2.86529e-10
2.6615e-10
2.46702e-10
2.2824e-10
2.10808e-10
1.9437e-10
1.78894e-10
1.64383e-10
1.50694e-10
1.38159e-10
1.26002e-10
1.15284e-10
1.03448e-10
9.71505e-11
8.40036e-11
8.43682e-11
6.41057e-11
7.54127e-11
4.10515e-11
7.8028e-11
2.25014e-11
1.1904e-10
5.20895e-11
3.13533e-10
3.24868e-10
7.89801e-10
3.17992e-10
3.85744e-10
3.18351e-10
1.58918e-11
2.50007e-14
0
0
0
2.74395e-09
4.82335e-06
1.09586e-05
0.00164651
0.0170757
0.0654801
0.1383
0.190625
0.180082
0.107989
0.0268008
0.00175489
0.0520498
0.12558
0.14362
0.0896627
0.0272594
0.00287588
3.90141e-05
2.48946e-07
0
0
0
7.5642e-22
4.07206e-13
1.4108e-10
5.94652e-10
5.86272e-10
4.47818e-10
4.08951e-10
4.18626e-10
4.22079e-10
4.11541e-10
3.97116e-10
3.83702e-10
3.70645e-10
3.56821e-10
3.42041e-10
3.2662e-10
3.10832e-10
2.94813e-10
2.78737e-10
2.62757e-10
2.47045e-10
2.31707e-10
2.16863e-10
2.02615e-10
1.89017e-10
1.7612e-10
1.63932e-10
1.52438e-10
1.41579e-10
1.31351e-10
1.21614e-10
1.127e-10
1.03892e-10
9.62228e-11
8.72511e-11
8.29648e-11
7.20313e-11
7.35058e-11
5.58047e-11
6.74319e-11
3.61503e-11
7.2163e-11
2.01537e-11
1.14753e-10
5.08041e-11
3.11974e-10
3.29316e-10
8.01918e-10
2.43979e-10
2.40449e-10
3.00448e-10
2.51827e-10
5.48966e-11
8.74253e-14
4.8284e-22
0
0
0
2.10902e-06
7.21557e-07
0.000252615
0.00566257
0.0320343
0.087103
0.144185
0.159079
0.114039
0.0411737
0.000753332
0.0269541
0.0903683
0.12068
0.0854687
0.0300338
0.00393542
8.11641e-05
1.42882e-07
4.14086e-08
0
0
0
1.27999e-13
3.50841e-11
3.41496e-10
4.86916e-10
3.85724e-10
3.00835e-10
2.79637e-10
2.8207e-10
2.81439e-10
2.73997e-10
2.64141e-10
2.54351e-10
2.44552e-10
2.3436e-10
2.23743e-10
2.12901e-10
2.02032e-10
1.91198e-10
1.80551e-10
1.70178e-10
1.6015e-10
1.50557e-10
1.41423e-10
1.32798e-10
1.24648e-10
1.16994e-10
1.09756e-10
1.02913e-10
9.63519e-11
9.03544e-11
8.42797e-11
7.91385e-11
7.26015e-11
6.99872e-11
6.1098e-11
6.33751e-11
4.81989e-11
5.97447e-11
3.17637e-11
6.619e-11
1.82307e-11
1.09833e-10
4.98778e-11
3.09411e-10
3.33383e-10
8.09587e-10
1.89398e-10
1.78026e-10
1.85324e-10
1.96915e-10
1.81813e-10
1.09797e-10
2.25344e-12
3.89345e-15
1.59607e-24
0
0
4.09921e-09
2.02812e-06
5.38497e-06
0.000665911
0.007251
0.0308836
0.0723612
0.107536
0.105255
0.0621268
0.0132675
0.00251495
0.0375435
0.0772552
0.0756305
0.0391293
0.00954903
0.000843313
6.89856e-06
2.29742e-07
3.36156e-09
0
0
6.55249e-18
4.39148e-14
7.31884e-12
1.36547e-10
2.55452e-10
2.34954e-10
1.91222e-10
1.74289e-10
1.72797e-10
1.71756e-10
1.67212e-10
1.61012e-10
1.54712e-10
1.48409e-10
1.41969e-10
1.35429e-10
1.28853e-10
1.22398e-10
1.16129e-10
1.10103e-10
1.04352e-10
9.89169e-11
9.38352e-11
8.90727e-11
8.46442e-11
8.04677e-11
7.65349e-11
7.27233e-11
6.92794e-11
6.56435e-11
6.27152e-11
5.85029e-11
5.7286e-11
5.05621e-11
5.32417e-11
4.10155e-11
5.16434e-11
2.79852e-11
5.88532e-11
1.6838e-11
9.98128e-11
4.52992e-11
2.82238e-10
3.00894e-10
6.98576e-10
1.35537e-10
1.30559e-10
1.31901e-10
1.29049e-10
1.27035e-10
1.396e-10
1.12422e-10
4.64499e-11
1.17667e-14
2.94538e-17
0
0
0
5.30374e-08
1.85656e-06
3.22919e-06
0.000419828
0.00475732
0.0209805
0.0505036
0.0757499
0.0726294
0.0396963
0.00609958
0.00403067
0.0324686
0.0555775
0.0463072
0.0202226
0.00412309
0.000285833
9.0486e-07
1.14438e-07
0
0
0
6.61623e-19
2.91718e-14
7.04481e-12
8.61048e-11
1.44434e-10
1.28033e-10
1.05214e-10
9.814e-11
9.78303e-11
9.65697e-11
9.3422e-11
8.97402e-11
8.61566e-11
8.26091e-11
7.90495e-11
7.5569e-11
7.22092e-11
6.905e-11
6.6103e-11
6.33988e-11
6.09603e-11
5.87584e-11
5.68109e-11
5.50244e-11
5.34024e-11
5.18129e-11
5.04531e-11
4.886e-11
4.77704e-11
4.55473e-11
4.55459e-11
4.07635e-11
4.38189e-11
3.41649e-11
4.42328e-11
2.41293e-11
5.28653e-11
1.54028e-11
9.46328e-11
4.55471e-11
2.79878e-10
3.14967e-10
7.10308e-10
9.36434e-11
9.11266e-11
9.3622e-11
9.17821e-11
8.73782e-11
8.60945e-11
9.09814e-11
9.67356e-11
6.42068e-11
8.11483e-12
1.25606e-14
5.5168e-23
0
0
0
5.80232e-08
1.86989e-06
1.72014e-06
0.000311834
0.00368536
0.0164062
0.0391544
0.0569372
0.0509713
0.0237353
0.00165181
0.00678823
0.0295531
0.0398428
0.0270644
0.00947376
0.0014463
5.64778e-05
6.3171e-08
1.84978e-08
0
0
0
8.36955e-19
4.49909e-14
1.24149e-11
6.23038e-11
7.55633e-11
6.22738e-11
5.38777e-11
5.24355e-11
5.21872e-11
5.08358e-11
4.88688e-11
4.68995e-11
4.50662e-11
4.33312e-11
4.17004e-11
4.02526e-11
3.89972e-11
3.79581e-11
3.71481e-11
3.65525e-11
3.61671e-11
3.59231e-11
3.58154e-11
3.57154e-11
3.57659e-11
3.5587e-11
3.5776e-11
3.49757e-11
3.58461e-11
3.25916e-11
3.58836e-11
2.82944e-11
3.78876e-11
2.0661e-11
4.78095e-11
1.38071e-11
9.06894e-11
4.49518e-11
2.80836e-10
3.25498e-10
7.20628e-10
6.1534e-11
6.38892e-11
6.3311e-11
6.10792e-11
5.87593e-11
5.7522e-11
5.86831e-11
6.55347e-11
6.03514e-11
3.08659e-11
2.85281e-13
6.19386e-16
0
0
0
0
4.95509e-08
1.7132e-06
1.78471e-06
0.000293125
0.00330303
0.0141089
0.0320425
0.043344
0.0343541
0.0121112
5.48629e-05
0.00976956
0.0258424
0.0269843
0.0144403
0.00375656
0.000370899
4.58218e-06
8.43152e-08
8.61627e-12
0
0
0
2.19556e-15
4.13472e-13
1.74511e-11
3.70805e-11
3.45196e-11
2.83813e-11
2.63222e-11
2.60775e-11
2.55834e-11
2.46732e-11
2.37544e-11
2.29684e-11
2.23139e-11
2.18286e-11
2.15174e-11
2.1402e-11
2.14931e-11
2.17819e-11
2.22595e-11
2.28707e-11
2.36135e-11
2.43692e-11
2.524e-11
2.5907e-11
2.68529e-11
2.69558e-11
2.83333e-11
2.62104e-11
2.95484e-11
2.35989e-11
3.26401e-11
1.78313e-11
4.35247e-11
1.2454e-11
8.75433e-11
4.41214e-11
2.83235e-10
3.31214e-10
7.30119e-10
4.02368e-11
4.21837e-11
4.19793e-11
4.09237e-11
3.99802e-11
3.88802e-11
3.79147e-11
3.80308e-11
4.03282e-11
4.45418e-11
3.50852e-11
7.21274e-12
1.26842e-14
5.92194e-23
0
0
0
0
5.39216e-08
1.50655e-06
3.29753e-06
0.000336394
0.00333826
0.0130398
0.0270488
0.0325739
0.0213751
0.00458239
0.000902923
0.0121047
0.0211395
0.0166703
0.00660651
0.00114346
5.48472e-05
1.35511e-08
3.20243e-08
0
0
0
1.62067e-19
2.91778e-20
2.91782e-12
1.27795e-11
1.54235e-11
1.28532e-11
1.13561e-11
1.11096e-11
1.10167e-11
1.07772e-11
1.05454e-11
1.04344e-11
1.04799e-11
1.0682e-11
1.10562e-11
1.16174e-11
1.23563e-11
1.32702e-11
1.43139e-11
1.54842e-11
1.66865e-11
1.79878e-11
1.91207e-11
2.04664e-11
2.11032e-11
2.27193e-11
2.14179e-11
2.46667e-11
2.00118e-11
2.84426e-11
1.56877e-11
3.99843e-11
1.14962e-11
8.5007e-11
4.32825e-11
2.86844e-10
3.32039e-10
7.41198e-10
2.55157e-11
2.68847e-11
2.68572e-11
2.63091e-11
2.58528e-11
2.53211e-11
2.49588e-11
2.43193e-11
2.39023e-11
2.44081e-11
2.75596e-11
2.74011e-11
1.59727e-11
2.02462e-13
5.45131e-16
5.41436e-27
0
0
0
0
7.16649e-08
1.09728e-06
7.63697e-06
0.000449059
0.00370894
0.012672
0.0229905
0.023382
0.0114861
0.000765947
0.00328626
0.0130408
0.0155378
0.00884007
0.00235269
0.000227707
2.34909e-06
8.64962e-08
6.83069e-11
0
0
3.48723e-27
1.46888e-15
2.43814e-13
3.19922e-12
5.17459e-12
4.56204e-12
3.75432e-12
3.5211e-12
3.53952e-12
3.61693e-12
3.7671e-12
4.05131e-12
4.49209e-12
5.09138e-12
5.85187e-12
6.7721e-12
7.84795e-12
9.05207e-12
1.03742e-11
1.1747e-11
1.32123e-11
1.45458e-11
1.60392e-11
1.69381e-11
1.85855e-11
1.78353e-11
2.08993e-11
1.72436e-11
2.50343e-11
1.39918e-11
3.69547e-11
1.07216e-11
8.28577e-11
4.2225e-11
2.90759e-10
3.26243e-10
7.55349e-10
1.80937e-11
1.89464e-11
1.9086e-11
1.87406e-11
1.84011e-11
1.81473e-11
1.80078e-11
1.77018e-11
1.73649e-11
1.69294e-11
1.70471e-11
1.79475e-11
2.04922e-11
1.56913e-11
5.59741e-12
1.11725e-17
1.74099e-19
0
0
0
0
0
1.49816e-07
3.70257e-08
2.19135e-05
0.000678913
0.00441471
0.0125939
0.0190463
0.0152515
0.00459341
0.000107383
0.00597783
0.0119563
0.00965832
0.00368849
0.000571393
2.02796e-05
4.94468e-11
2.88897e-08
0
0
0
2.29775e-17
5.7022e-16
9.03663e-14
2.13598e-13
3.20838e-13
3.41832e-13
3.80278e-13
5.33813e-13
8.10175e-13
1.19975e-12
1.71617e-12
2.37817e-12
3.19111e-12
4.1486e-12
5.2459e-12
6.46089e-12
7.78906e-12
9.17785e-12
1.06622e-11
1.2048e-11
1.35484e-11
1.45507e-11
1.61248e-11
1.57309e-11
1.85753e-11
1.56852e-11
2.28666e-11
1.32115e-11
3.49923e-11
1.05864e-11
8.17017e-11
4.09712e-11
2.9567e-10
3.08503e-10
7.85375e-10
1.20692e-11
1.28021e-11
1.28746e-11
1.26121e-11
1.23765e-11
1.23237e-11
1.23603e-11
1.20588e-11
1.19916e-11
1.18942e-11
1.16243e-11
1.14762e-11
1.19608e-11
1.30057e-11
1.37705e-11
8.21647e-12
9.61955e-13
3.53342e-15
2.94041e-22
0
0
0
0
3.02986e-14
4.67202e-07
2.61539e-08
6.13998e-05
0.00108924
0.00538793
0.0122793
0.0145821
0.00813238
0.000764663
0.00173277
0.00771001
0.00891987
0.0045841
0.000996993
6.45537e-05
1.11784e-07
8.5993e-08
0
0
0
3.61856e-21
1.00073e-15
5.15399e-14
1.01818e-12
7.03409e-13
3.65993e-13
4.3368e-13
7.1844e-13
1.14978e-12
1.67897e-12
2.30126e-12
3.03766e-12
3.88998e-12
4.8544e-12
5.90681e-12
7.04718e-12
8.23814e-12
9.51193e-12
1.07126e-11
1.1988e-11
1.28313e-11
1.40995e-11
1.37683e-11
1.62248e-11
1.38026e-11
2.02611e-11
1.16547e-11
3.21043e-11
9.31634e-12
7.86995e-11
3.78559e-11
2.94836e-10
2.7717e-10
8.36062e-10
1.40888e-11
1.4491e-11
1.44605e-11
1.41543e-11
1.38663e-11
1.3673e-11
1.35597e-11
1.3262e-11
1.30666e-11
1.28412e-11
1.24948e-11
1.21943e-11
1.19704e-11
1.19049e-11
1.2223e-11
1.32872e-11
1.13441e-11
5.78385e-12
3.30802e-13
1.79058e-15
4.44246e-22
0
0
0
0
5.5855e-10
7.08652e-07
1.02687e-06
0.000171487
0.00182411
0.00680393
0.0122223
0.0109989
0.00366002
9.62515e-05
0.00427497
0.00818591
0.00591019
0.00181943
0.000169441
3.82567e-06
1.00342e-07
9.03254e-08
1.10083e-08
2.51424e-11
0
1.97841e-19
1.91041e-19
1.60019e-12
5.6739e-12
4.97908e-12
3.80312e-12
3.63514e-12
4.02312e-12
4.6117e-12
5.29483e-12
6.07585e-12
6.96404e-12
7.94243e-12
9.00139e-12
1.0117e-11
1.13139e-11
1.24629e-11
1.36568e-11
1.44484e-11
1.55861e-11
1.53502e-11
1.76126e-11
1.55115e-11
2.15968e-11
1.34713e-11
3.35863e-11
1.05743e-11
8.17272e-11
3.40674e-11
3.05956e-10
2.28275e-10
1.02477e-09
1.0348e-11
1.04849e-11
1.05403e-11
1.06226e-11
1.0677e-11
1.07329e-11
1.08419e-11
1.09742e-11
1.1086e-11
1.11499e-11
1.12117e-11
1.13239e-11
1.14237e-11
1.15303e-11
1.16231e-11
1.21322e-11
1.30436e-11
1.37028e-11
1.14936e-11
6.54451e-12
3.4711e-13
1.38878e-15
0
0
0
0
0
2.10888e-08
4.48513e-07
1.63984e-06
0.000128514
0.0011356
0.00377976
0.00621228
0.00507081
0.0013676
0.000111222
0.00235164
0.00378854
0.00245495
0.000743879
0.000101791
4.46511e-06
5.5785e-09
2.18896e-08
2.75445e-09
0
1.68957e-25
1.11226e-15
4.82166e-13
4.9012e-12
8.07046e-12
8.15609e-12
7.84158e-12
7.87621e-12
8.12428e-12
8.44771e-12
8.80984e-12
9.20253e-12
9.61843e-12
1.00473e-11
1.05156e-11
1.09492e-11
1.14186e-11
1.15469e-11
1.18427e-11
1.11784e-11
1.25e-11
1.05206e-11
1.50685e-11
8.10073e-12
2.45309e-11
4.74029e-12
6.50553e-11
2.33445e-11
2.53259e-10
2.27303e-10
9.98824e-10
)
;

boundaryField
{
    inlet
    {
        type            calculated;
        value           nonuniform List<scalar> 
27
(
2.83531e-08
2.8428e-08
2.8566e-08
2.87496e-08
2.89456e-08
2.91492e-08
2.93664e-08
2.95956e-08
2.9836e-08
3.00786e-08
3.03225e-08
3.05631e-08
3.07953e-08
3.10137e-08
3.1212e-08
3.13839e-08
3.15311e-08
3.12312e-08
3.12703e-08
3.12538e-08
3.11507e-08
3.09515e-08
3.06304e-08
3.0176e-08
2.95288e-08
2.88915e-08
2.76228e-08
)
;
    }
    outlet
    {
        type            calculated;
        value           nonuniform List<scalar> 
78
(
6.8211e-12
6.97793e-12
7.05676e-12
7.1628e-12
7.24314e-12
7.32526e-12
7.46238e-12
7.62342e-12
7.765e-12
7.8598e-12
7.95345e-12
8.09698e-12
8.23735e-12
8.38557e-12
8.5185e-12
8.94768e-12
9.64778e-12
1.01052e-11
8.45855e-12
4.91503e-12
2.79912e-13
1.22464e-15
0
0
0
0
0
2.12854e-08
4.46427e-07
1.45912e-06
0.000126223
0.00112754
0.00377066
0.00622126
0.00510547
0.00139694
9.72369e-05
0.00230368
0.00374923
0.00244172
0.000743228
0.000102401
4.57976e-06
2.42492e-09
1.99164e-08
2.49097e-09
0
1.29661e-25
8.50292e-16
3.8214e-13
3.95603e-12
6.5378e-12
6.58747e-12
6.29156e-12
6.25567e-12
6.3663e-12
6.5128e-12
6.66887e-12
6.82967e-12
6.9947e-12
7.15718e-12
7.35235e-12
7.50831e-12
7.72564e-12
7.62432e-12
7.78902e-12
6.99315e-12
8.30433e-12
6.12755e-12
1.08943e-11
3.63953e-12
2.06117e-11
3.3928e-13
6.02729e-11
1.87221e-11
2.36526e-10
2.28404e-10
8.94948e-10
)
;
    }
    walls
    {
        type            calculated;
        value           nonuniform List<scalar> 0();
    }
    frontAndBack
    {
        type            empty;
    }
    procBoundary7to3
    {
        type            processor;
        value           nonuniform List<scalar> 
16
(
1.0207e-09
1.06782e-09
6.23394e-10
4.56269e-10
3.58139e-10
2.62288e-10
1.76696e-10
1.17862e-10
6.27711e-11
6.27711e-11
4.08825e-11
2.59862e-11
1.84699e-11
1.21332e-11
1.46407e-11
1.00386e-11
)
;
    }
    procBoundary7to6
    {
        type            processor;
        value           nonuniform List<scalar> 
91
(
6.68165e-10
4.13769e-10
4.13769e-10
3.79218e-10
3.79218e-10
6.45069e-11
6.45069e-11
5.35807e-11
1.77202e-10
1.77202e-10
1.10775e-10
1.49487e-10
1.49487e-10
2.22111e-10
1.71598e-10
1.69075e-10
1.69075e-10
3.03801e-10
2.6567e-10
2.24693e-10
2.24693e-10
5.07266e-10
4.37087e-10
3.75153e-10
3.20827e-10
3.20827e-10
8.52998e-10
7.51363e-10
6.59769e-10
5.77665e-10
5.04365e-10
5.04365e-10
1.45931e-09
1.33064e-09
1.20823e-09
1.0925e-09
9.83936e-10
8.82795e-10
7.89179e-10
7.89179e-10
2.25969e-09
2.17791e-09
2.09261e-09
2.00377e-09
1.9116e-09
1.81657e-09
1.71925e-09
1.62029e-09
1.52047e-09
1.42073e-09
1.32173e-09
1.22427e-09
1.22427e-09
1.85446e-22
0
1.42416e-14
4.28995e-06
8.68874e-07
0.00106928
0.0193049
0.0953051
0.237359
0.384051
0.448383
0.380989
0.21195
0.0480542
0.00568069
0.115331
0.280633
0.347982
0.255152
0.101919
0.0172898
0.000724696
2.80932e-07
2.48635e-08
0
0
0
8.8995e-13
3.3638e-10
2.41591e-09
2.56923e-09
2.02738e-09
1.84616e-09
1.82356e-09
1.78803e-09
1.7336e-09
1.6805e-09
1.6805e-09
)
;
    }
}


// ************************************************************************* //
