# p  FACE_DATA 600
# x y z  p
0.29893883 -0.05 -0.060006728 21700.99
0.29682219 -0.05 -0.060005155 21697.853
0.29471691 -0.05 -0.060001576 21696.156
0.29262294 -0.05 -0.05999591 21694.615
0.29054021 -0.05 -0.059988277 21692.739
0.28846868 -0.05 -0.059978645 21692.122
0.28640827 -0.05 -0.059967019 21690.668
0.28435895 -0.05 -0.059953476 21689.968
0.28232063 -0.05 -0.05993795 21689.639
0.28029328 -0.05 -0.059920485 21689.293
0.27827682 -0.05 -0.059901123 21689.108
0.27627121 -0.05 -0.059879855 21689.31
0.27427639 -0.05 -0.05985667 21689.861
0.2722923 -0.05 -0.059831621 21690.326
0.27031889 -0.05 -0.059804697 21691.593
0.26835611 -0.05 -0.05977592 21692.42
0.26640388 -0.05 -0.059745343 21693.606
0.26446217 -0.05 -0.059712935 21695.088
0.26253092 -0.05 -0.059678711 21696.776
0.26061007 -0.05 -0.059642689 21698.808
0.25869958 -0.05 -0.059604861 21701.197
0.25679938 -0.05 -0.059565286 21703.353
0.25490942 -0.05 -0.05952394 21706.555
0.25302965 -0.05 -0.059480842 21709.133
0.25116001 -0.05 -0.059436049 21712.193
0.24930047 -0.05 -0.059389521 21715.551
0.24745095 -0.05 -0.059341283 21719.172
0.24561141 -0.05 -0.059291325 21723.456
0.24378182 -0.05 -0.05923967 21727.654
0.24196209 -0.05 -0.059186367 21731.985
0.24015219 -0.05 -0.059131421 21736.489
0.23835206 -0.05 -0.059074821 21741.326
0.23656166 -0.05 -0.059016618 21745.914
0.23478094 -0.05 -0.058956769 21751.967
0.23300984 -0.05 -0.05889526 21757.358
0.23124831 -0.05 -0.05883224 21762.357
0.22949632 -0.05 -0.058767617 21769.077
0.22775381 -0.05 -0.058701363 21775.366
0.22602072 -0.05 -0.058633589 21781.717
0.22429701 -0.05 -0.058564274 21788.316
0.22258262 -0.05 -0.058493448 21794.813
0.22087752 -0.05 -0.058421069 21802.725
0.21918166 -0.05 -0.058347133 21810.177
0.21749499 -0.05 -0.058271732 21817.693
0.21581745 -0.05 -0.058194856 21825.413
0.21414901 -0.05 -0.058116493 21833.581
0.21248962 -0.05 -0.058036649 21841.985
0.21083923 -0.05 -0.057955337 21850.751
0.20919779 -0.05 -0.057872577 21859.49
0.20756526 -0.05 -0.057788393 21868.575
0.20594158 -0.05 -0.057702763 21878.214
0.20432674 -0.05 -0.057615707 21887.723
0.20272065 -0.05 -0.057527278 21897.131
0.20112329 -0.05 -0.057437457 21907.198
0.19953461 -0.05 -0.05734625 21917.482
0.19795458 -0.05 -0.057253621 21928.81
0.19638314 -0.05 -0.057159665 21938.65
0.19482023 -0.05 -0.05706438 21950.236
0.19326583 -0.05 -0.056967732 21961.023
0.19171991 -0.05 -0.05686975 21972.843
0.19018239 -0.05 -0.056770463 21983.719
0.18865324 -0.05 -0.056669846 21996.453
0.18713243 -0.05 -0.056567899 22008.129
0.18561991 -0.05 -0.056464666 22021.182
0.18411564 -0.05 -0.056360132 22033.72
0.18261956 -0.05 -0.056254317 22047.168
0.18113166 -0.05 -0.056147258 22059.417
0.17965186 -0.05 -0.056038987 22072.744
0.17818015 -0.05 -0.05592942 22086.679
0.17671648 -0.05 -0.055818588 22100.58
0.1752608 -0.05 -0.05570656 22114.198
0.17381308 -0.05 -0.055593324 22128.648
0.17237329 -0.05 -0.055478844 22143.261
0.17094135 -0.05 -0.055363199 22157.425
0.16951726 -0.05 -0.055246341 22173.239
0.16810096 -0.05 -0.055128258 22188.266
0.16669242 -0.05 -0.05500905 22203.458
0.16529159 -0.05 -0.054888659 22219.622
0.16389844 -0.05 -0.054767078 22235.69
0.16251293 -0.05 -0.054644372 22251.563
0.16113501 -0.05 -0.054520532 22267.888
0.15976465 -0.05 -0.054395554 22284.202
0.15840181 -0.05 -0.054269449 22301.311
0.15704647 -0.05 -0.054142171 22319.179
0.15569856 -0.05 -0.05401378 22336.225
0.15435807 -0.05 -0.053884336 22353.36
0.15302494 -0.05 -0.053753791 22370.925
0.15169915 -0.05 -0.053622161 22388.582
0.15038066 -0.05 -0.053489407 22407.674
0.14906942 -0.05 -0.053355551 22425.98
0.1477654 -0.05 -0.053220679 22444.6
0.14646858 -0.05 -0.053084715 22464.342
0.1451789 -0.05 -0.052947683 22483.254
0.14389634 -0.05 -0.052809659 22502.241
0.14262085 -0.05 -0.05267058 22522.336
0.14135242 -0.05 -0.052530426 22542.717
0.14009099 -0.05 -0.052389231 22563.279
0.13883653 -0.05 -0.052247037 22583.478
0.137589 -0.05 -0.052103837 22604.338
0.13634838 -0.05 -0.051959625 22624.691
0.13511461 -0.05 -0.051814476 22645.236
0.1338877 -0.05 -0.051668228 22668.741
0.13266759 -0.05 -0.051520967 22688.847
0.13145422 -0.05 -0.051372868 22709.821
0.13024759 -0.05 -0.051223701 22733.213
0.12904768 -0.05 -0.051073498 22755.349
0.12785442 -0.05 -0.050922382 22777.677
0.12666779 -0.05 -0.050770304 22800.711
0.12548777 -0.05 -0.050617245 22824.38
0.12431431 -0.05 -0.050463216 22847.677
0.12314738 -0.05 -0.050308326 22869.709
0.12198694 -0.05 -0.050152493 22894.535
0.12083298 -0.05 -0.049995623 22919.243
0.11968546 -0.05 -0.049837846 22943.297
0.11854435 -0.05 -0.049679177 22967.809
0.11740961 -0.05 -0.049519574 22992.821
0.11628121 -0.05 -0.049359037 23018.25
0.11515913 -0.05 -0.049197589 23043.712
0.11404333 -0.05 -0.049035234 23069.498
0.11293377 -0.05 -0.048871989 23095.014
0.11183042 -0.05 -0.048707847 23120.971
0.11073327 -0.05 -0.048542821 23146.747
0.10964229 -0.05 -0.048376866 23174.188
0.10855744 -0.05 -0.048209982 23200.965
0.10747868 -0.05 -0.048042235 23228.166
0.106406 -0.05 -0.04787359 23255.948
0.10533935 -0.05 -0.047704062 23283.946
0.10427873 -0.05 -0.047533647 23312.413
0.10322407 -0.05 -0.047362394 23339.729
0.10217536 -0.05 -0.04719032 23367.978
0.10113259 -0.05 -0.047017348 23397.413
0.10009572 -0.05 -0.046843455 23427.702
0.099064719 -0.05 -0.046668685 23457.213
0.098039551 -0.05 -0.046493118 23485.884
0.097020189 -0.05 -0.046316733 23515.463
0.096006622 -0.05 -0.046139442 23546.583
0.094998822 -0.05 -0.045961241 23577.711
0.09399675 -0.05 -0.045782217 23608.119
0.093000378 -0.05 -0.045602371 23639.249
0.092009685 -0.05 -0.045421665 23670.633
0.091024643 -0.05 -0.045240119 23702.363
0.090045231 -0.05 -0.045057701 23735.211
0.089071419 -0.05 -0.044874427 23767.435
0.088103174 -0.05 -0.044690349 23799.825
0.087140475 -0.05 -0.044505439 23832.697
0.086183302 -0.05 -0.044319662 23866.4
0.08523163 -0.05 -0.044133032 23899.984
0.084285425 -0.05 -0.043945577 23933.76
0.083344663 -0.05 -0.043757308 23967.775
0.082409325 -0.05 -0.043568191 24003.118
0.081479395 -0.05 -0.04337819 24038.67
0.080554831 -0.05 -0.043187382 24073.209
0.079635606 -0.05 -0.042995792 24108.543
0.078721718 -0.05 -0.042803304 24145.471
0.077813136 -0.05 -0.042609969 24181.275
0.076909826 -0.05 -0.042415818 24218.591
0.07601178 -0.05 -0.042220793 24256.103
0.075118966 -0.05 -0.042024932 24293.762
0.074231361 -0.05 -0.041828237 24331.373
0.073348935 -0.05 -0.04163074 24368.921
0.07247168 -0.05 -0.041432371 24408.244
0.071599572 -0.05 -0.041233139 24446.695
0.070732584 -0.05 -0.041033074 24486.323
0.069870697 -0.05 -0.040832148 24525.62
0.069013884 -0.05 -0.040630397 24565.582
0.068162134 -0.05 -0.040427777 24606.276
0.067315419 -0.05 -0.040224307 24646.962
0.06647372 -0.05 -0.040019973 24689.031
0.065637027 -0.05 -0.039814748 24731.455
0.06480531 -0.05 -0.039608654 24774.229
0.063978543 -0.05 -0.039401719 24816.493
0.063156706 -0.05 -0.039193946 24859.352
0.062339788 -0.05 -0.038985285 24902.786
0.061527775 -0.05 -0.038775725 24946.958
0.060720649 -0.05 -0.038565255 24991.854
0.059918385 -0.05 -0.038353894 25037.026
0.059120963 -0.05 -0.03814165 25082.803
0.058328367 -0.05 -0.037928504 25129.011
0.057540574 -0.05 -0.037714473 25174.943
0.056757564 -0.05 -0.037499568 25221.334
0.055979326 -0.05 -0.037283751 25268.994
0.055205861 -0.05 -0.03706696 25318.27
0.054437143 -0.05 -0.036849222 25367.213
0.053673142 -0.05 -0.036630582 25416.419
0.052913841 -0.05 -0.036411033 25465.637
0.052159229 -0.05 -0.036190552 25516.192
0.051409301 -0.05 -0.035969101 25567.782
0.050664044 -0.05 -0.035746666 25619.825
0.049923426 -0.05 -0.035523297 25671.446
0.049187444 -0.05 -0.035298949 25724.996
0.048456093 -0.05 -0.035073588 25778.153
0.047729343 -0.05 -0.034847258 25831.826
0.047007184 -0.05 -0.034619944 25886.087
0.046289611 -0.05 -0.034391604 25941.816
0.045576607 -0.05 -0.034162251 25997.439
0.044868158 -0.05 -0.033931882 26054.408
0.044164259 -0.05 -0.033700464 26111.53
0.043464894 -0.05 -0.033468005 26169.481
0.042770054 -0.05 -0.033234488 26227.947
0.042079734 -0.05 -0.032999885 26287.917
0.041393929 -0.05 -0.032764174 26348.553
0.040712625 -0.05 -0.032527361 26409.75
0.040035798 -0.05 -0.032289471 26470.725
0.039363443 -0.05 -0.032050489 26533.031
0.038695563 -0.05 -0.031810365 26596.71
0.038032168 -0.05 -0.031569045 26662.097
0.037373226 -0.05 -0.031326581 26726.815
0.036718733 -0.05 -0.03108296 26793.179
0.036068678 -0.05 -0.030838173 26858.951
0.035423063 -0.05 -0.030592193 26927.909
0.034781926 -0.05 -0.030344894 26997.831
0.034145213 -0.05 -0.030096392 27066.9
0.033512917 -0.05 -0.029846677 27137.957
0.032885063 -0.05 -0.029595666 27210.062
0.032261651 -0.05 -0.029343341 27283.895
0.031642676 -0.05 -0.029089692 27357.88
0.031028119 -0.05 -0.028834753 27432.289
0.030417981 -0.05 -0.028578493 27508.369
0.029812303 -0.05 -0.028320809 27586.968
0.029211079 -0.05 -0.028061701 27665.573
0.028614285 -0.05 -0.027801211 27744.757
0.028021925 -0.05 -0.027539318 27824.927
0.027434034 -0.05 -0.027275938 27907.532
0.02685062 -0.05 -0.027011044 27990.302
0.026271654 -0.05 -0.026744689 28074.146
0.025697179 -0.05 -0.02647678 28160.381
0.025127212 -0.05 -0.026207275 28247.079
0.024561729 -0.05 -0.025936225 28334.438
0.024000753 -0.05 -0.025663583 28423.963
0.023444337 -0.05 -0.025389243 28515.367
0.022892447 -0.05 -0.025113275 28607.14
0.022345135 -0.05 -0.024835581 28703.154
0.02180243 -0.05 -0.024556113 28798.827
0.021264293 -0.05 -0.024274957 28896.815
0.020730799 -0.05 -0.023991978 28997.759
0.020201992 -0.05 -0.023707109 29100.348
0.019677841 -0.05 -0.023420417 29203.444
0.019158403 -0.05 -0.023131824 29309.878
0.018643727 -0.05 -0.022841258 29417.321
0.018133826 -0.05 -0.022548716 29527.009
0.017628739 -0.05 -0.022254151 29637.477
0.017128472 -0.05 -0.021957583 29749.89
0.016633127 -0.05 -0.021658866 29865.733
0.016142724 -0.05 -0.021358 29981.765
0.015657283 -0.05 -0.021054987 30100.521
0.015176888 -0.05 -0.020749728 30220.701
0.014701579 -0.05 -0.020442197 30342.889
0.014231398 -0.05 -0.020132368 30466.607
0.013766434 -0.05 -0.019820157 30593.341
0.013306742 -0.05 -0.019505528 30721.1
0.012852374 -0.05 -0.019188457 30851.74
0.012403438 -0.05 -0.018868841 30984.334
0.01195997 -0.05 -0.018546687 31118.62
0.011522076 -0.05 -0.018221915 31255.413
0.011089809 -0.05 -0.017894515 31393.388
0.0106633 -0.05 -0.017564386 31534.956
0.010242659 -0.05 -0.017231451 31676.93
0.009827894 -0.05 -0.016895788 31820.335
0.0094192167 -0.05 -0.016557218 31966.835
0.0090167438 -0.05 -0.016215673 32113.504
0.0086204858 -0.05 -0.015871238 32262.409
0.0082306648 -0.05 -0.015523765 32414.366
0.0078474301 -0.05 -0.015173186 32566.879
0.00747084 -0.05 -0.014819531 32720.219
0.0071010571 -0.05 -0.014462741 32874.533
0.0067383047 -0.05 -0.014102728 33030.449
0.0063827544 -0.05 -0.013739427 33187.195
0.0060345067 -0.05 -0.013372862 33343.835
0.0056937565 -0.05 -0.013003011 33500.299
0.0053606882 -0.05 -0.012629837 33655.811
0.0050354824 -0.05 -0.012253323 33810.262
0.0047183926 -0.05 -0.01187344 33963.376
0.0044096379 -0.05 -0.011490161 34114.436
0.0041094132 -0.05 -0.011103483 34262.738
0.0038179536 -0.05 -0.010713443 34407.559
0.0035354728 -0.05 -0.01032007 34548.028
0.0032621919 -0.05 -0.0099233916 34683.274
0.0029983702 -0.05 -0.0095234712 34812.537
0.0027442429 -0.05 -0.0091203468 34934.899
0.0025000604 -0.05 -0.0087141009 35049.372
0.0022660754 -0.05 -0.0083048554 35154.992
0.0020425146 -0.05 -0.0078926699 35250.613
0.0018296563 -0.05 -0.0074776735 35334.349
0.0016277487 -0.05 -0.0070600556 35404.139
0.0014369745 -0.05 -0.006639968 35460.423
0.0012575291 -0.05 -0.0062175973 35504.508
0.0010896146 -0.05 -0.0057931737 35533.024
0.00093341057 -0.05 -0.0053669215 35544.181
0.00078906403 -0.05 -0.0049390744 35538.109
0.00065670868 -0.05 -0.0045099017 35513.849
0.00053653171 -0.05 -0.0040796665 35472.018
0.00042862038 -0.05 -0.003648665 35413.348
0.00033294635 -0.05 -0.003217232 35334.222
0.00024951873 -0.05 -0.002785685 35233.582
0.00017832255 -0.05 -0.0023543467 35113.101
0.00011930806 -0.05 -0.0019235435 34972.608
7.2389968e-05 -0.05 -0.0014936046 34812.006
3.7448893e-05 -0.05 -0.0010648563 34632.056
1.4332163e-05 -0.05 -0.0006376208 34434.261
2.8544133e-06 -0.05 -0.00021221054 34218.88
0.99884037 -0.05 -0.00016828408 26496.618
0.99652103 -0.05 -0.00050440213 26439.229
0.99420154 -0.05 -0.00083952039 26368.041
0.99188191 -0.05 -0.0011736208 26308.801
0.98956214 -0.05 -0.0015067636 26250.697
0.98724224 -0.05 -0.001838948 26196.296
0.9849222 -0.05 -0.0021701637 26143.989
0.98260201 -0.05 -0.0025004302 26093.685
0.9802817 -0.05 -0.0028297328 26045.298
0.97796124 -0.05 -0.0031580577 25998.408
0.97564065 -0.05 -0.0034854377 25952.997
0.97331994 -0.05 -0.0038118591 25908.946
0.97099908 -0.05 -0.0041373159 25866.173
0.96867808 -0.05 -0.0044618578 25824.381
0.96635697 -0.05 -0.0047854478 25783.967
0.96403572 -0.05 -0.0051081172 25744.113
0.96171435 -0.05 -0.0054299032 25705.454
0.95939284 -0.05 -0.0057507069 25667.829
0.95707121 -0.05 -0.0060705875 25630.842
0.95474946 -0.05 -0.0063895914 25594.727
0.95242757 -0.05 -0.0067076389 25559.641
0.95010556 -0.05 -0.0070248024 25524.76
0.94778343 -0.05 -0.0073411104 25490.89
0.94546118 -0.05 -0.0076564368 25457.929
0.9431388 -0.05 -0.0079708659 25425.243
0.94081631 -0.05 -0.0082844406 25393.329
0.93849369 -0.05 -0.0085971026 25362.079
0.93617096 -0.05 -0.0089088655 25331.376
0.93384811 -0.05 -0.0092197818 25300.985
0.93152514 -0.05 -0.0095298292 25271.352
0.92920204 -0.05 -0.00983897 25242.19
0.92687884 -0.05 -0.010147248 25213.469
0.92455553 -0.05 -0.01045465 25185.291
0.92223209 -0.05 -0.01076119 25157.417
0.91990855 -0.05 -0.011066875 25130.159
0.91758488 -0.05 -0.011371653 25103.491
0.91526111 -0.05 -0.011675608 25076.703
0.91293723 -0.05 -0.011978761 25050.578
0.91061324 -0.05 -0.012281 25025.081
0.90828913 -0.05 -0.012582372 24999.668
0.90596492 -0.05 -0.012882964 24974.447
0.90364059 -0.05 -0.013182677 24950.207
0.90131615 -0.05 -0.013481494 24925.943
0.89899162 -0.05 -0.013779572 24901.509
0.89666698 -0.05 -0.014076841 24877.97
0.89434223 -0.05 -0.014373142 24855.115
0.89201737 -0.05 -0.01466868 24831.429
0.88969241 -0.05 -0.014963453 24808.926
0.88736734 -0.05 -0.0152573 24786.624
0.88504217 -0.05 -0.015550344 24764.3
0.88271689 -0.05 -0.015842646 24742.033
0.88039152 -0.05 -0.016134071 24720.834
0.87806604 -0.05 -0.016424635 24699.275
0.87574046 -0.05 -0.016714466 24677.979
0.87341478 -0.05 -0.017003468 24657.142
0.871089 -0.05 -0.017291665 24636.268
0.86876312 -0.05 -0.017579058 24615.891
0.86643714 -0.05 -0.017865646 24595.446
0.86411107 -0.05 -0.018151445 24575.481
0.86178489 -0.05 -0.018436407 24555.696
0.85945862 -0.05 -0.018720606 24535.762
0.85713225 -0.05 -0.019004019 24516.436
0.85480578 -0.05 -0.019286574 24497.431
0.85247922 -0.05 -0.019568356 24478.179
0.85015256 -0.05 -0.019849417 24459.068
0.84782581 -0.05 -0.020129657 24440.573
0.84549896 -0.05 -0.020409081 24421.894
0.84317202 -0.05 -0.020687756 24403.347
0.84084499 -0.05 -0.020965643 24385.178
0.83851785 -0.05 -0.021242672 24367.576
0.83619063 -0.05 -0.021518954 24349.288
0.83386332 -0.05 -0.021794529 24331.515
0.83153592 -0.05 -0.022069294 24313.923
0.82920841 -0.05 -0.022343258 24296.543
0.82688083 -0.05 -0.02261648 24278.872
0.82455315 -0.05 -0.022888925 24261.845
0.82222538 -0.05 -0.023160547 24244.884
0.81989751 -0.05 -0.023431389 24228.127
0.81756957 -0.05 -0.023701495 24211.141
0.81524153 -0.05 -0.023970846 24194.586
0.8129134 -0.05 -0.024239417 24177.94
0.81058518 -0.05 -0.02450723 24161.538
0.80825687 -0.05 -0.024774259 24145.275
0.80592849 -0.05 -0.02504053 24129.034
0.8036 -0.05 -0.025306023 24113.071
0.80127144 -0.05 -0.025570775 24096.77
0.79894279 -0.05 -0.025834763 24081.129
0.79661404 -0.05 -0.026097924 24065.47
0.79428522 -0.05 -0.026360374 24049.521
0.79195631 -0.05 -0.026622048 24034.323
0.78962731 -0.05 -0.026882938 24018.668
0.78729823 -0.05 -0.027143126 24003.227
0.78496906 -0.05 -0.027402516 23988.097
0.78263981 -0.05 -0.02766117 23972.478
0.78031048 -0.05 -0.027919081 23957.547
0.77798106 -0.05 -0.028176144 23942.796
0.77565155 -0.05 -0.028432494 23927.459
0.77332196 -0.05 -0.028688107 23912.832
0.77099228 -0.05 -0.028942907 23898.079
0.76866253 -0.05 -0.029196968 23883.307
0.7663327 -0.05 -0.029450285 23868.613
0.76400278 -0.05 -0.029702803 23854.303
0.76167277 -0.05 -0.029954568 23839.625
0.75934268 -0.05 -0.030205572 23825.524
0.75701251 -0.05 -0.030455803 23811.037
0.75468227 -0.05 -0.030705313 23796.703
0.75235194 -0.05 -0.030954045 23782.496
0.75002152 -0.05 -0.031202018 23768.236
0.74769103 -0.05 -0.031449207 23754.342
0.74536045 -0.05 -0.031695625 23740.192
0.74302979 -0.05 -0.031941289 23726.289
0.74069906 -0.05 -0.032186181 23712.305
0.73836824 -0.05 -0.032430305 23698.584
0.73603734 -0.05 -0.032673645 23684.883
0.73370637 -0.05 -0.032916233 23670.993
0.73137531 -0.05 -0.033158092 23657.073
0.72904417 -0.05 -0.033399148 23643.75
0.72671295 -0.05 -0.033639378 23630.301
0.72438166 -0.05 -0.03387888 23616.459
0.72205028 -0.05 -0.034117645 23602.941
0.71971882 -0.05 -0.034355552 23589.978
0.71738728 -0.05 -0.034592685 23576.261
0.71505567 -0.05 -0.034829099 23562.959
0.71272397 -0.05 -0.035064674 23549.914
0.71039219 -0.05 -0.035299486 23536.38
0.70806035 -0.05 -0.035533544 23523.317
0.70572841 -0.05 -0.035766778 23510.213
0.70339641 -0.05 -0.035999269 23496.775
0.70106432 -0.05 -0.03623098 23483.697
0.69873216 -0.05 -0.036461891 23470.398
0.69639992 -0.05 -0.036691978 23457.602
0.69406759 -0.05 -0.036921269 23444.371
0.69173519 -0.05 -0.037149739 23431.993
0.68940271 -0.05 -0.037377398 23418.85
0.68707015 -0.05 -0.037604327 23405.792
0.68473751 -0.05 -0.037830471 23392.688
0.68240481 -0.05 -0.038055756 23380.238
0.68007201 -0.05 -0.038280206 23367.381
0.67773914 -0.05 -0.038503859 23354.839
0.67540619 -0.05 -0.03872673 23341.782
0.67307317 -0.05 -0.038948784 23329.318
0.67074007 -0.05 -0.039170028 23316.187
0.66840689 -0.05 -0.039390456 23303.777
0.66607364 -0.05 -0.039610024 23291.019
0.6637403 -0.05 -0.039828774 23278.602
0.66140688 -0.05 -0.040046678 23266.002
0.65907339 -0.05 -0.040263799 23253.121
0.65673983 -0.05 -0.040480085 23240.736
0.65440619 -0.05 -0.040695489 23228.287
0.65207246 -0.05 -0.040910082 23215.601
0.64973866 -0.05 -0.041123838 23203.168
0.64740479 -0.05 -0.04133674 23190.566
0.64507083 -0.05 -0.041548788 23178.271
0.6427368 -0.05 -0.04175995 23166.003
0.64040268 -0.05 -0.041970278 23153.452
0.6380685 -0.05 -0.042179754 23141.192
0.63573424 -0.05 -0.042388356 23128.755
0.63339989 -0.05 -0.042596094 23116.505
0.63106547 -0.05 -0.042802945 23104.203
0.62873098 -0.05 -0.043008941 23091.742
0.6263964 -0.05 -0.043214055 23079.575
0.62406175 -0.05 -0.043418269 23067.338
0.62172701 -0.05 -0.043621601 23055.065
0.61939221 -0.05 -0.043824069 23042.548
0.61705733 -0.05 -0.044025645 23030.42
0.61472237 -0.05 -0.044226271 23018.462
0.61238733 -0.05 -0.044426006 23006.055
0.61005222 -0.05 -0.04462488 22993.662
0.60771702 -0.05 -0.044822825 22981.585
0.60538174 -0.05 -0.045019806 22969.7
0.6030464 -0.05 -0.045215861 22957.603
0.60071097 -0.05 -0.045411024 22945.443
0.59837546 -0.05 -0.045605254 22933.468
0.59603988 -0.05 -0.045798556 22921.175
0.59370422 -0.05 -0.045990938 22909.005
0.59136849 -0.05 -0.046182352 22896.996
0.58903267 -0.05 -0.046372791 22885.085
0.58669678 -0.05 -0.046562266 22873.067
0.5843608 -0.05 -0.046750814 22860.782
0.58202475 -0.05 -0.046938396 22848.932
0.57968862 -0.05 -0.047124972 22837.053
0.57735242 -0.05 -0.047310578 22824.982
0.57501614 -0.05 -0.04749525 22812.612
0.57267978 -0.05 -0.047678924 22800.879
0.57034334 -0.05 -0.04786155 22789.115
0.56800682 -0.05 -0.048043188 22777.148
0.56567024 -0.05 -0.048223861 22764.941
0.56333356 -0.05 -0.048403536 22753.033
0.56099681 -0.05 -0.048582153 22741.399
0.55865998 -0.05 -0.04875972 22729.62
0.55632308 -0.05 -0.048936314 22717.31
0.55398609 -0.05 -0.049111879 22705.614
0.55164903 -0.05 -0.049286359 22693.714
0.54931189 -0.05 -0.049459794 22681.92
0.54697467 -0.05 -0.049632163 22670.194
0.54463737 -0.05 -0.049803468 22658.449
0.5423 -0.05 -0.049973718 22646.583
0.53996254 -0.05 -0.050142913 22634.676
0.53762502 -0.05 -0.050311035 22622.83
0.53528741 -0.05 -0.050478054 22611.19
0.53294972 -0.05 -0.050643972 22599.349
0.53061196 -0.05 -0.050808824 22587.337
0.52827412 -0.05 -0.050972558 22575.717
0.5259362 -0.05 -0.051135143 22564.026
0.5235982 -0.05 -0.051296612 22552.357
0.52126012 -0.05 -0.051456922 22540.936
0.51892198 -0.05 -0.051616121 22528.944
0.51658374 -0.05 -0.051774162 22517.744
0.51424543 -0.05 -0.051931037 22505.763
0.51190704 -0.05 -0.05208678 22494.301
0.50956857 -0.05 -0.052241321 22482.806
0.50723003 -0.05 -0.052394685 22471.263
0.50489141 -0.05 -0.052546885 22459.511
0.50255271 -0.05 -0.05269791 22447.892
0.50021394 -0.05 -0.052847701 22436.574
0.49787509 -0.05 -0.052996281 22424.922
0.49553616 -0.05 -0.053143654 22413.465
0.49319715 -0.05 -0.053289801 22401.826
0.49085807 -0.05 -0.053434697 22390.623
0.48851891 -0.05 -0.05357832 22379.375
0.48617967 -0.05 -0.053720679 22368.266
0.48384035 -0.05 -0.053861795 22356.741
0.48150097 -0.05 -0.054001669 22345.376
0.4791615 -0.05 -0.054140241 22334.167
0.47682195 -0.05 -0.054277501 22323.044
0.47448234 -0.05 -0.054413462 22311.877
0.47214264 -0.05 -0.054548109 22300.83
0.46980287 -0.05 -0.054681459 22289.396
0.46746302 -0.05 -0.054813494 22278.262
0.4651231 -0.05 -0.054944178 22267.037
0.46278311 -0.05 -0.055073496 22256.127
0.46044304 -0.05 -0.055201437 22245.134
0.45810288 -0.05 -0.055328007 22234.277
0.45576266 -0.05 -0.055453195 22223.367
0.45342237 -0.05 -0.055576996 22212.598
0.451082 -0.05 -0.05569938 22201.93
0.44874156 -0.05 -0.055820362 22191.007
0.44640104 -0.05 -0.055939944 22180.284
0.44406046 -0.05 -0.056058045 22169.998
0.44171979 -0.05 -0.056174717 22158.915
0.43937906 -0.05 -0.05628996 22148.473
0.43703826 -0.05 -0.056403696 22137.916
0.43469738 -0.05 -0.056515954 22127.533
0.43235643 -0.05 -0.056626691 22117.406
0.43001541 -0.05 -0.056735938 22106.8
0.42767432 -0.05 -0.056843696 22096.448
0.42533316 -0.05 -0.056949929 22086.042
0.42299193 -0.05 -0.057054582 22076.336
0.42065064 -0.05 -0.05715767 22066.04
0.41830927 -0.05 -0.057259223 22056.063
0.41596783 -0.05 -0.057359191 22046.037
0.41362634 -0.05 -0.057457551 22036.458
0.41128476 -0.05 -0.057554292 22026.677
0.40894313 -0.05 -0.057649427 22016.95
0.40660142 -0.05 -0.057742965 22006.925
0.40425966 -0.05 -0.057834838 21997.706
0.40191783 -0.05 -0.057925023 21988.085
0.39957593 -0.05 -0.058013541 21978.847
0.39723398 -0.05 -0.058100379 21969.247
0.39489196 -0.05 -0.058185525 21960.166
0.39254988 -0.05 -0.058268918 21951.191
0.39020774 -0.05 -0.05835059 21942.018
0.38786553 -0.05 -0.058430541 21933.013
0.38552326 -0.05 -0.058508715 21924.35
0.38318094 -0.05 -0.058585094 21915.756
0.38083857 -0.05 -0.058659688 21907.154
0.37849613 -0.05 -0.058732482 21898.584
0.37615364 -0.05 -0.058803471 21889.98
0.37381109 -0.05 -0.058872605 21881.963
0.37146848 -0.05 -0.058939856 21873.909
0.36912583 -0.05 -0.059005237 21866.038
0.36678312 -0.05 -0.059068742 21858.047
0.36444037 -0.05 -0.059130354 21850.282
0.36209757 -0.05 -0.059190049 21842.399
0.35975471 -0.05 -0.059247824 21834.8
0.35741181 -0.05 -0.059303603 21827.78
0.35506886 -0.05 -0.059357402 21820.442
0.35272586 -0.05 -0.059409225 21813.515
0.35038283 -0.05 -0.059459044 21806.337
0.34803975 -0.05 -0.059506859 21799.558
0.34569662 -0.05 -0.059552581 21793.277
0.34335347 -0.05 -0.059596249 21786.445
0.34101027 -0.05 -0.059637862 21780.254
0.33866703 -0.05 -0.059677333 21774.243
0.33632377 -0.05 -0.059714702 21768.139
0.33398046 -0.05 -0.059749909 21762.804
0.33163712 -0.05 -0.059782951 21756.847
0.32929376 -0.05 -0.059813858 21751.272
0.32695037 -0.05 -0.059842535 21746.192
0.32460696 -0.05 -0.059868969 21741.265
0.32226351 -0.05 -0.059893141 21736.725
0.31992004 -0.05 -0.059915067 21731.822
0.31757656 -0.05 -0.059934727 21727.432
0.31523306 -0.05 -0.059952066 21723.171
0.31288954 -0.05 -0.059967055 21719.517
0.31054601 -0.05 -0.059979678 21715.796
0.30820246 -0.05 -0.059989926 21712.233
0.30585891 -0.05 -0.059997792 21708.093
0.30351535 -0.05 -0.060003209 21704.898
0.30117179 -0.05 -0.060006157 21702.297
