# p  FACE_DATA 600
# x y z  p
0.29893883 -0.05 0.060006728 11797.386
0.29682219 -0.05 0.060005155 11805.248
0.29471691 -0.05 0.060001576 11815.073
0.29262294 -0.05 0.05999591 11824.741
0.29054021 -0.05 0.059988277 11833.843
0.28846868 -0.05 0.059978645 11844.252
0.28640827 -0.05 0.059967018 11853.513
0.28435895 -0.05 0.059953476 11863.586
0.28232063 -0.05 0.05993795 11873.827
0.28029328 -0.05 0.059920485 11883.882
0.27827682 -0.05 0.059901123 11893.996
0.27627121 -0.05 0.059879855 11904.444
0.27427639 -0.05 0.05985667 11915.042
0.2722923 -0.05 0.059831621 11925.337
0.27031889 -0.05 0.059804697 11936.304
0.26835611 -0.05 0.05977592 11946.599
0.26640388 -0.05 0.059745343 11957.288
0.26446217 -0.05 0.059712935 11968.178
0.26253092 -0.05 0.059678711 11979.168
0.26061007 -0.05 0.059642689 11990.348
0.25869957 -0.05 0.059604861 12001.689
0.25679937 -0.05 0.059565286 12012.59
0.25490941 -0.05 0.05952394 12024.436
0.25302965 -0.05 0.059480841 12035.377
0.25116001 -0.05 0.059436049 12046.835
0.24930047 -0.05 0.059389522 12058.437
0.24745095 -0.05 0.059341283 12070.157
0.24561142 -0.05 0.059291325 12082.32
0.24378182 -0.05 0.05923967 12094.124
0.24196209 -0.05 0.059186367 12105.951
0.24015219 -0.05 0.059131421 12117.843
0.23835206 -0.05 0.059074821 12129.979
0.23656166 -0.05 0.059016618 12141.67
0.23478094 -0.05 0.058956769 12154.787
0.23300984 -0.05 0.05889526 12166.896
0.23124831 -0.05 0.05883224 12178.63
0.22949632 -0.05 0.058767617 12192.065
0.22775381 -0.05 0.058701363 12204.605
0.22602071 -0.05 0.058633589 12217.1
0.22429701 -0.05 0.058564274 12229.757
0.22258262 -0.05 0.058493448 12242.216
0.22087753 -0.05 0.058421069 12255.974
0.21918166 -0.05 0.058347132 12268.839
0.21749499 -0.05 0.058271731 12281.686
0.21581745 -0.05 0.058194856 12294.641
0.21414901 -0.05 0.058116493 12307.939
0.21248962 -0.05 0.05803665 12321.287
0.21083923 -0.05 0.057955337 12334.856
0.20919779 -0.05 0.057872577 12348.224
0.20756526 -0.05 0.057788393 12361.811
0.20594158 -0.05 0.057702763 12375.756
0.20432673 -0.05 0.057615706 12389.334
0.20272065 -0.05 0.057527277 12402.71
0.20112329 -0.05 0.057437457 12416.696
0.19953461 -0.05 0.05734625 12430.66
0.19795458 -0.05 0.057253621 12445.531
0.19638314 -0.05 0.057159665 12458.502
0.19482023 -0.05 0.05706438 12473.429
0.19326584 -0.05 0.056967732 12487.116
0.19171991 -0.05 0.056869749 12501.983
0.19018239 -0.05 0.056770463 12515.586
0.18865324 -0.05 0.056669846 12531.217
0.18713243 -0.05 0.056567899 12545.22
0.18561991 -0.05 0.056464666 12560.618
0.18411563 -0.05 0.056360132 12574.982
0.18261956 -0.05 0.056254318 12590.284
0.18113166 -0.05 0.056147258 12604.117
0.17965186 -0.05 0.056038987 12619.282
0.17818015 -0.05 0.05592942 12634.811
0.17671648 -0.05 0.055818588 12650.031
0.1752608 -0.05 0.05570656 12664.731
0.17381309 -0.05 0.055593325 12680.213
0.17237329 -0.05 0.055478844 12695.681
0.17094135 -0.05 0.055363199 12710.597
0.16951726 -0.05 0.055246341 12727.207
0.16810097 -0.05 0.055128259 12742.591
0.16669242 -0.05 0.05500905 12758.089
0.16529159 -0.05 0.054888659 12774.403
0.16389844 -0.05 0.054767078 12790.316
0.16251292 -0.05 0.054644372 12805.919
0.161135 -0.05 0.054520532 12821.985
0.15976465 -0.05 0.054395554 12837.891
0.15840181 -0.05 0.054269449 12854.446
0.15704647 -0.05 0.054142171 12871.44
0.15569857 -0.05 0.05401378 12887.288
0.15435807 -0.05 0.053884336 12903.361
0.15302494 -0.05 0.053753791 12919.911
0.15169915 -0.05 0.053622161 12936.449
0.15038066 -0.05 0.053489407 12954.184
0.14906942 -0.05 0.053355551 12970.586
0.1477654 -0.05 0.053220679 12987.27
0.14646858 -0.05 0.053084715 13004.957
0.1451789 -0.05 0.052947683 13021.576
0.14389634 -0.05 0.052809659 13038.43
0.14262085 -0.05 0.05267058 13056.339
0.14135242 -0.05 0.052530426 13074.182
0.14009099 -0.05 0.052389231 13091.923
0.13883652 -0.05 0.052247036 13109.108
0.137589 -0.05 0.052103837 13126.931
0.13634838 -0.05 0.051959625 13144.076
0.13511461 -0.05 0.051814476 13161.463
0.1338877 -0.05 0.051668228 13181.668
0.13266759 -0.05 0.051520967 13197.691
0.13145422 -0.05 0.051372868 13215.273
0.13024759 -0.05 0.051223701 13235.256
0.12904768 -0.05 0.051073499 13253.39
0.12785442 -0.05 0.050922382 13271.664
0.12666779 -0.05 0.050770303 13290.389
0.12548777 -0.05 0.050617245 13309.412
0.12431431 -0.05 0.050463216 13327.882
0.12314738 -0.05 0.050308326 13345.249
0.12198694 -0.05 0.050152493 13365.799
0.12083299 -0.05 0.049995623 13385.658
0.11968547 -0.05 0.049837846 13404.563
0.11854435 -0.05 0.049679176 13423.89
0.11740961 -0.05 0.049519574 13443.568
0.11628122 -0.05 0.049359037 13463.412
0.11515913 -0.05 0.049197589 13482.987
0.11404333 -0.05 0.049035234 13502.708
0.11293377 -0.05 0.048871989 13522.045
0.11183042 -0.05 0.048707847 13541.963
0.11073327 -0.05 0.048542821 13561.747
0.10964229 -0.05 0.048376866 13583.282
0.10855744 -0.05 0.048209982 13603.685
0.10747868 -0.05 0.048042235 13624.431
0.106406 -0.05 0.04787359 13645.446
0.10533935 -0.05 0.047704062 13666.307
0.10427873 -0.05 0.047533647 13687.383
0.10322407 -0.05 0.047362394 13707.095
0.10217537 -0.05 0.04719032 13728.148
0.10113259 -0.05 0.047017348 13750.375
0.10009572 -0.05 0.046843455 13773.172
0.099064719 -0.05 0.046668685 13794.712
0.098039551 -0.05 0.046493118 13815.405
0.097020189 -0.05 0.046316733 13837.315
0.096006622 -0.05 0.046139442 13860.681
0.094998822 -0.05 0.045961241 13883.619
0.09399675 -0.05 0.045782217 13905.538
0.093000378 -0.05 0.045602371 13928.182
0.092009685 -0.05 0.045421665 13950.89
0.091024643 -0.05 0.045240119 13973.824
0.090045231 -0.05 0.045057701 13997.765
0.089071419 -0.05 0.044874428 14020.642
0.088103174 -0.05 0.044690349 14043.727
0.087140475 -0.05 0.044505439 14067.353
0.086183303 -0.05 0.044319663 14091.762
0.08523163 -0.05 0.044133032 14115.676
0.084285425 -0.05 0.043945577 14139.684
0.083344663 -0.05 0.043757308 14163.957
0.082409326 -0.05 0.043568191 14189.739
0.081479394 -0.05 0.04337819 14215.408
0.080554831 -0.05 0.043187382 14239.738
0.079635605 -0.05 0.042995792 14265.18
0.078721718 -0.05 0.042803304 14292.304
0.077813136 -0.05 0.042609969 14317.527
0.076909826 -0.05 0.042415818 14344.295
0.07601178 -0.05 0.042220793 14370.719
0.075118966 -0.05 0.042024933 14397.104
0.074231361 -0.05 0.041828237 14423.332
0.073348934 -0.05 0.04163074 14449.455
0.072471679 -0.05 0.041432371 14477.612
0.071599572 -0.05 0.041233139 14504.318
0.070732583 -0.05 0.041033074 14532.487
0.069870697 -0.05 0.040832148 14559.891
0.069013884 -0.05 0.040630397 14587.916
0.068162134 -0.05 0.040427777 14616.566
0.067315419 -0.05 0.040224307 14645.076
0.06647372 -0.05 0.040019973 14675.298
0.065637027 -0.05 0.039814748 14705.686
0.06480531 -0.05 0.039608654 14736.315
0.063978543 -0.05 0.039401719 14766.173
0.063156705 -0.05 0.039193946 14796.874
0.062339788 -0.05 0.038985286 14828.257
0.061527775 -0.05 0.038775725 14860.345
0.060720649 -0.05 0.038565255 14892.83
0.059918385 -0.05 0.038353894 14925.173
0.059120963 -0.05 0.03814165 14957.878
0.058328367 -0.05 0.037928504 14990.704
0.057540575 -0.05 0.037714473 15022.855
0.056757564 -0.05 0.037499567 15055.514
0.055979327 -0.05 0.037283751 15089.662
0.055205861 -0.05 0.03706696 15125.511
0.054437144 -0.05 0.036849222 15160.363
0.053673142 -0.05 0.036630582 15195.386
0.052913841 -0.05 0.036411033 15230.237
0.052159229 -0.05 0.036190552 15266.404
0.051409301 -0.05 0.035969101 15303.537
0.050664044 -0.05 0.035746666 15341.458
0.049923426 -0.05 0.035523297 15379.247
0.049187444 -0.05 0.035298949 15419.776
0.048456093 -0.05 0.035073588 15459.352
0.047729344 -0.05 0.034847258 15499.282
0.047007184 -0.05 0.034619944 15539.417
0.046289611 -0.05 0.034391604 15580.821
0.045576607 -0.05 0.034162252 15621.578
0.044868158 -0.05 0.033931882 15663.901
0.044164259 -0.05 0.033700465 15705.953
0.043464894 -0.05 0.033468005 15749.003
0.042770054 -0.05 0.033234487 15792.922
0.042079734 -0.05 0.032999885 15838.962
0.041393929 -0.05 0.032764174 15885.6
0.040712625 -0.05 0.032527361 15932.602
0.040035798 -0.05 0.032289471 15979.217
0.039363443 -0.05 0.032050489 16027.441
0.038695563 -0.05 0.031810365 16076.94
0.038032168 -0.05 0.031569045 16127.789
0.037373226 -0.05 0.031326581 16177.385
0.036718733 -0.05 0.03108296 16229.196
0.036068678 -0.05 0.030838173 16280.57
0.035423063 -0.05 0.030592193 16336.048
0.034781926 -0.05 0.030344893 16391.727
0.034145213 -0.05 0.030096392 16445.617
0.033512917 -0.05 0.029846677 16502.218
0.032885063 -0.05 0.029595666 16560.226
0.032261651 -0.05 0.029343341 16620.629
0.031642677 -0.05 0.029089693 16680.881
0.031028119 -0.05 0.028834753 16741.408
0.030417982 -0.05 0.028578493 16803.642
0.029812303 -0.05 0.028320809 16868.419
0.029211079 -0.05 0.0280617 16932.326
0.028614285 -0.05 0.027801211 16997.198
0.028021925 -0.05 0.027539318 17063.557
0.027434034 -0.05 0.027275938 17133.233
0.026850619 -0.05 0.027011044 17202.612
0.026271654 -0.05 0.026744689 17273.709
0.025697179 -0.05 0.02647678 17348.355
0.025127212 -0.05 0.026207275 17423.157
0.024561729 -0.05 0.025936225 17498.734
0.024000753 -0.05 0.025663583 17577.389
0.023444336 -0.05 0.025389243 17658.16
0.022892447 -0.05 0.025113275 17738.585
0.022345135 -0.05 0.024835581 17825.017
0.02180243 -0.05 0.024556113 17908.763
0.021264293 -0.05 0.024274957 17995.227
0.0207308 -0.05 0.023991978 18085.045
0.020201992 -0.05 0.023707108 18176.296
0.019677842 -0.05 0.023420417 18267.052
0.019158403 -0.05 0.023131824 18362.34
0.018643727 -0.05 0.022841258 18457.574
0.018133826 -0.05 0.022548716 18555.968
0.017628739 -0.05 0.022254151 18654.962
0.017128471 -0.05 0.021957583 18757.563
0.016633127 -0.05 0.021658866 18866.711
0.016142724 -0.05 0.021358 18977.063
0.015657283 -0.05 0.021054987 19095.959
0.015176888 -0.05 0.020749728 19220.955
0.014701579 -0.05 0.020442196 19353.32
0.014231398 -0.05 0.020132367 19491.494
0.013766434 -0.05 0.019820157 19637.213
0.013306742 -0.05 0.019505528 19785.305
0.012852374 -0.05 0.019188457 19938.959
0.012403439 -0.05 0.018868841 20095.185
0.01195997 -0.05 0.018546687 20254.025
0.011522076 -0.05 0.018221915 20417.617
0.011089809 -0.05 0.017894514 20583.891
0.0106633 -0.05 0.017564386 20758.861
0.010242659 -0.05 0.01723145 20935.155
0.009827894 -0.05 0.016895788 21117.607
0.0094192167 -0.05 0.016557218 21309.994
0.0090167438 -0.05 0.016215673 21504.9
0.0086204858 -0.05 0.015871238 21706.026
0.0082306648 -0.05 0.015523765 21918.93
0.0078474301 -0.05 0.015173187 22135.697
0.00747084 -0.05 0.014819531 22359.004
0.0071010571 -0.05 0.014462741 22590.946
0.0067383047 -0.05 0.014102727 22834.007
0.0063827544 -0.05 0.013739427 23082.274
0.0060345067 -0.05 0.013372862 23333.801
0.0056937565 -0.05 0.013003011 23590.921
0.0053606882 -0.05 0.012629837 23855.581
0.0050354824 -0.05 0.012253323 24131.958
0.0047183926 -0.05 0.01187344 24419.652
0.0044096379 -0.05 0.011490161 24716.754
0.0041094132 -0.05 0.011103483 25022.759
0.0038179536 -0.05 0.010713443 25337.825
0.0035354728 -0.05 0.01032007 25661.59
0.0032621919 -0.05 0.0099233916 25994.456
0.0029983702 -0.05 0.0095234712 26335.487
0.0027442429 -0.05 0.0091203468 26683.667
0.0025000604 -0.05 0.0087141009 27038.669
0.0022660754 -0.05 0.0083048554 27400.326
0.0020425146 -0.05 0.0078926699 27768.669
0.0018296563 -0.05 0.0074776735 28142.731
0.0016277487 -0.05 0.0070600557 28520.275
0.0014369745 -0.05 0.006639968 28900.303
0.0012575291 -0.05 0.0062175973 29282.582
0.0010896146 -0.05 0.0057931737 29666.749
0.00093341056 -0.05 0.0053669215 30049.692
0.00078906403 -0.05 0.0049390744 30429.614
0.00065670868 -0.05 0.0045099018 30805.358
0.00053653171 -0.05 0.0040796665 31176.728
0.00042862038 -0.05 0.003648665 31539.062
0.00033294635 -0.05 0.003217232 31891.231
0.00024951873 -0.05 0.002785685 32233.124
0.00017832254 -0.05 0.0023543467 32563.106
0.00011930806 -0.05 0.0019235435 32878.864
7.2389968e-05 -0.05 0.0014936046 33179.052
3.7448892e-05 -0.05 0.0010648563 33463.049
1.4332163e-05 -0.05 0.0006376208 33730.713
2.8544133e-06 -0.05 0.00021221054 33979.272
0.99884037 -0.05 0.00016828408 26623.188
0.99652103 -0.05 0.00050440213 26609.145
0.99420154 -0.05 0.0008395204 26571.177
0.99188191 -0.05 0.0011736208 26540.61
0.98956214 -0.05 0.0015067636 26507.672
0.98724223 -0.05 0.001838948 26476.095
0.9849222 -0.05 0.0021701636 26444.461
0.98260202 -0.05 0.0025004302 26413.202
0.98028169 -0.05 0.0028297328 26382.141
0.97796124 -0.05 0.0031580577 26351.255
0.97564065 -0.05 0.0034854377 26320.519
0.97331994 -0.05 0.0038118591 26289.919
0.97099908 -0.05 0.0041373159 26259.437
0.96867809 -0.05 0.0044618578 26229.018
0.96635696 -0.05 0.0047854478 26198.761
0.96403572 -0.05 0.0051081172 26168.481
0.96171435 -0.05 0.0054299032 26138.339
0.95939284 -0.05 0.0057507069 26108.3
0.95707121 -0.05 0.0060705875 26078.279
0.95474946 -0.05 0.0063895914 26048.35
0.95242757 -0.05 0.0067076389 26018.561
0.95010556 -0.05 0.0070248024 25988.711
0.94778344 -0.05 0.0073411105 25959.014
0.94546118 -0.05 0.0076564368 25929.454
0.94313881 -0.05 0.007970866 25899.877
0.94081631 -0.05 0.0082844406 25870.423
0.93849369 -0.05 0.0085971026 25841.07
0.93617096 -0.05 0.0089088655 25811.801
0.9338481 -0.05 0.0092197817 25782.557
0.93152513 -0.05 0.0095298292 25753.466
0.92920205 -0.05 0.00983897 25724.456
0.92687884 -0.05 0.010147248 25695.53
0.92455553 -0.05 0.01045465 25666.724
0.92223209 -0.05 0.010761189 25637.965
0.91990855 -0.05 0.011066875 25609.361
0.91758488 -0.05 0.011371653 25580.914
0.91526111 -0.05 0.011675608 25552.412
0.91293723 -0.05 0.011978761 25524.096
0.91061324 -0.05 0.012281 25495.966
0.90828913 -0.05 0.012582372 25467.855
0.90596492 -0.05 0.012882964 25439.795
0.90364059 -0.05 0.013182677 25412.05
0.90131615 -0.05 0.013481494 25384.313
0.89899162 -0.05 0.013779572 25356.522
0.89666698 -0.05 0.014076842 25329.026
0.89434222 -0.05 0.014373142 25301.773
0.89201737 -0.05 0.014668681 25274.26
0.88969241 -0.05 0.014963453 25247.154
0.88736734 -0.05 0.0152573 25220.138
0.88504217 -0.05 0.015550344 25193.147
0.8827169 -0.05 0.015842646 25166.189
0.88039152 -0.05 0.016134071 25139.62
0.87806604 -0.05 0.016424635 25112.96
0.87574046 -0.05 0.016714466 25086.427
0.87341478 -0.05 0.017003468 25060.082
0.871089 -0.05 0.017291665 25033.76
0.86876312 -0.05 0.017579058 25007.646
0.86643714 -0.05 0.017865646 24981.539
0.86411107 -0.05 0.018151445 24955.643
0.86178489 -0.05 0.018436407 24929.855
0.85945862 -0.05 0.018720606 24904.045
0.85713225 -0.05 0.019004019 24878.489
0.85480578 -0.05 0.019286574 24853.095
0.85247921 -0.05 0.019568355 24827.663
0.85015256 -0.05 0.019849418 24802.319
0.84782581 -0.05 0.020129657 24777.251
0.84549896 -0.05 0.020409081 24752.162
0.84317202 -0.05 0.020687756 24727.162
0.84084499 -0.05 0.020965643 24702.33
0.83851786 -0.05 0.021242672 24677.77
0.83619063 -0.05 0.021518954 24653.004
0.83386332 -0.05 0.021794529 24628.475
0.83153592 -0.05 0.022069294 24604.055
0.82920841 -0.05 0.022343258 24579.775
0.82688083 -0.05 0.02261648 24555.421
0.82455316 -0.05 0.022888925 24531.348
0.82222538 -0.05 0.023160547 24507.336
0.81989751 -0.05 0.023431389 24483.456
0.81756956 -0.05 0.023701494 24459.537
0.81524153 -0.05 0.023970846 24435.83
0.8129134 -0.05 0.024239417 24412.132
0.81058518 -0.05 0.02450723 24388.573
0.80825687 -0.05 0.024774258 24365.112
0.80592849 -0.05 0.02504053 24341.713
0.8036 -0.05 0.025306023 24318.467
0.80127144 -0.05 0.025570774 24295.137
0.79894279 -0.05 0.025834763 24272.101
0.79661404 -0.05 0.026097924 24249.104
0.79428522 -0.05 0.026360374 24226.044
0.79195631 -0.05 0.026622048 24203.31
0.78962731 -0.05 0.026882938 24180.449
0.78729823 -0.05 0.027143126 24157.722
0.78496906 -0.05 0.027402517 24135.153
0.78263981 -0.05 0.02766117 24112.438
0.78031048 -0.05 0.027919081 24090.014
0.77798106 -0.05 0.028176144 24067.7
0.77565155 -0.05 0.028432494 24045.207
0.77332196 -0.05 0.028688107 24023.012
0.77099228 -0.05 0.028942908 24000.809
0.76866253 -0.05 0.029196968 23978.641
0.7663327 -0.05 0.029450285 23956.532
0.76400278 -0.05 0.029702803 23934.599
0.76167277 -0.05 0.029954568 23912.557
0.75934268 -0.05 0.030205573 23890.766
0.75701251 -0.05 0.030455803 23868.867
0.75468227 -0.05 0.030705313 23847.058
0.75235193 -0.05 0.030954045 23825.318
0.75002152 -0.05 0.031202018 23803.579
0.74769103 -0.05 0.031449207 23781.999
0.74536045 -0.05 0.031695625 23760.349
0.7430298 -0.05 0.031941289 23738.81
0.74069906 -0.05 0.032186181 23717.248
0.73836824 -0.05 0.032430305 23695.797
0.73603734 -0.05 0.032673645 23674.377
0.73370637 -0.05 0.032916233 23652.902
0.73137531 -0.05 0.033158092 23631.406
0.72904417 -0.05 0.033399148 23610.122
0.72671295 -0.05 0.033639377 23588.807
0.72438166 -0.05 0.03387888 23567.354
0.72205028 -0.05 0.034117645 23545.998
0.71971882 -0.05 0.034355552 23524.83
0.71738729 -0.05 0.034592685 23503.399
0.71505567 -0.05 0.034829099 23482.097
0.71272397 -0.05 0.035064674 23460.861
0.71039219 -0.05 0.035299486 23439.44
0.70806035 -0.05 0.035533544 23418.15
0.70572841 -0.05 0.035766778 23396.817
0.70339641 -0.05 0.035999269 23375.347
0.70106433 -0.05 0.03623098 23353.953
0.69873216 -0.05 0.036461892 23332.434
0.69639992 -0.05 0.036691978 23311.014
0.69406759 -0.05 0.036921269 23289.381
0.69173519 -0.05 0.03714974 23267.965
0.68940271 -0.05 0.037377398 23246.251
0.68707015 -0.05 0.037604327 23224.495
0.68473752 -0.05 0.03783047 23202.621
0.68240481 -0.05 0.038055756 23180.845
0.68007201 -0.05 0.038280206 23158.842
0.67773914 -0.05 0.038503859 23136.831
0.67540619 -0.05 0.03872673 23114.551
0.67307317 -0.05 0.038948784 23092.323
0.67074007 -0.05 0.039170028 23069.757
0.66840689 -0.05 0.039390456 23047.244
0.66607364 -0.05 0.039610024 23024.459
0.6637403 -0.05 0.039828774 23001.61
0.66140688 -0.05 0.040046679 22978.531
0.6590734 -0.05 0.040263799 22955.179
0.65673983 -0.05 0.040480084 22931.745
0.65440618 -0.05 0.040695489 22908.066
0.65207246 -0.05 0.040910082 22884.096
0.64973866 -0.05 0.041123838 22859.934
0.64740478 -0.05 0.04133674 22835.449
0.64507083 -0.05 0.041548788 22810.75
0.6427368 -0.05 0.04175995 22785.756
0.64040268 -0.05 0.041970278 22760.378
0.6380685 -0.05 0.042179753 22734.735
0.63573424 -0.05 0.042388355 22708.687
0.63339989 -0.05 0.042596094 22682.318
0.63106547 -0.05 0.042802945 22655.541
0.62873097 -0.05 0.04300894 22628.317
0.6263964 -0.05 0.043214055 22600.706
0.62406174 -0.05 0.043418269 22572.625
0.62172702 -0.05 0.043621601 22544.058
0.61939221 -0.05 0.043824069 22514.93
0.61705733 -0.05 0.044025645 22485.337
0.61472237 -0.05 0.044226271 22455.224
0.61238733 -0.05 0.044426006 22424.456
0.61005222 -0.05 0.04462488 22393.088
0.60771702 -0.05 0.044822825 22361.12
0.60538174 -0.05 0.045019806 22328.522
0.6030464 -0.05 0.045215861 22295.195
0.60071097 -0.05 0.045411024 22261.149
0.59837546 -0.05 0.045605254 22226.387
0.59603988 -0.05 0.045798556 22190.813
0.59370423 -0.05 0.045990938 22154.457
0.59136849 -0.05 0.046182352 22117.293
0.58903267 -0.05 0.046372791 22079.286
0.58669678 -0.05 0.046562266 22040.394
0.5843608 -0.05 0.046750814 22000.552
0.58202475 -0.05 0.046938396 21959.824
0.57968862 -0.05 0.047124972 21918.118
0.57735242 -0.05 0.047310579 21875.415
0.57501614 -0.05 0.047495251 21831.656
0.57267978 -0.05 0.047678924 21786.918
0.57034334 -0.05 0.04786155 21741.091
0.56800683 -0.05 0.048043188 21694.165
0.56567024 -0.05 0.048223861 21646.099
0.56333356 -0.05 0.048403536 21596.944
0.56099681 -0.05 0.048582153 21546.661
0.55865998 -0.05 0.04875972 21495.214
0.55632308 -0.05 0.048936314 21442.541
0.55398609 -0.05 0.049111879 21388.719
0.55164903 -0.05 0.049286359 21333.649
0.54931189 -0.05 0.049459794 21277.379
0.54697467 -0.05 0.049632163 21219.858
0.54463737 -0.05 0.049803468 21161.091
0.5423 -0.05 0.049973719 21101.093
0.53996254 -0.05 0.050142913 21039.904
0.53762502 -0.05 0.050311035 20977.472
0.53528742 -0.05 0.050478054 20913.74
0.53294973 -0.05 0.050643972 20848.743
0.53061196 -0.05 0.050808824 20782.554
0.52827412 -0.05 0.050972558 20715.106
0.5259362 -0.05 0.051135143 20646.426
0.5235982 -0.05 0.051296612 20576.561
0.52126012 -0.05 0.051456922 20505.435
0.51892198 -0.05 0.051616121 20433.103
0.51658374 -0.05 0.051774162 20359.733
0.51424543 -0.05 0.051931036 20285.194
0.51190704 -0.05 0.05208678 20209.575
0.50956857 -0.05 0.052241321 20132.836
0.50723003 -0.05 0.052394685 20055.045
0.50489141 -0.05 0.052546885 19976.217
0.50255271 -0.05 0.05269791 19896.401
0.50021394 -0.05 0.052847701 19815.621
0.49787509 -0.05 0.052996281 19733.908
0.49553616 -0.05 0.053143654 19651.341
0.49319715 -0.05 0.053289801 19567.936
0.49085807 -0.05 0.053434697 19483.794
0.48851891 -0.05 0.05357832 19398.946
0.48617967 -0.05 0.053720679 19313.494
0.48384036 -0.05 0.053861795 19227.456
0.48150096 -0.05 0.054001669 19140.885
0.4791615 -0.05 0.054140241 19053.741
0.47682195 -0.05 0.054277501 18966.018
0.47448234 -0.05 0.054413462 18877.702
0.47214264 -0.05 0.054548109 18788.839
0.46980287 -0.05 0.054681459 18699.485
0.46746302 -0.05 0.054813494 18609.797
0.4651231 -0.05 0.054944177 18519.82
0.4627831 -0.05 0.055073496 18429.677
0.46044304 -0.05 0.055201437 18339.344
0.45810288 -0.05 0.055328007 18248.635
0.45576266 -0.05 0.055453195 18157.008
0.45342237 -0.05 0.055576996 18063.62
0.451082 -0.05 0.05569938 17967.218
0.44874156 -0.05 0.055820362 17866.273
0.44640104 -0.05 0.055939944 17759.09
0.44406046 -0.05 0.056058044 17642.898
0.4417198 -0.05 0.056174717 17512.665
0.43937906 -0.05 0.05628996 17363.073
0.43703826 -0.05 0.056403696 17187.994
0.43469738 -0.05 0.056515954 16976.421
0.43235643 -0.05 0.056626691 16720.787
0.43001541 -0.05 0.056735938 16412.518
0.42767432 -0.05 0.056843696 16022.867
0.42533317 -0.05 0.056949929 15504.81
0.42299193 -0.05 0.057054582 14843.364
0.42065064 -0.05 0.05715767 14086.616
0.41830927 -0.05 0.057259222 13341.743
0.41596783 -0.05 0.057359191 12714.063
0.41362633 -0.05 0.057457551 12253.07
0.41128476 -0.05 0.057554292 11946.503
0.40894313 -0.05 0.057649427 11757.538
0.40660142 -0.05 0.057742965 11646.452
0.40425966 -0.05 0.057834838 11584.55
0.40191783 -0.05 0.057925023 11551.97
0.39957593 -0.05 0.058013541 11536.188
0.39723398 -0.05 0.058100378 11529.102
0.39489196 -0.05 0.058185525 11526.7
0.39254988 -0.05 0.058268918 11526.254
0.39020774 -0.05 0.058350591 11527.177
0.38786553 -0.05 0.058430541 11529.58
0.38552326 -0.05 0.058508715 11533.075
0.38318094 -0.05 0.058585094 11537.01
0.38083857 -0.05 0.058659688 11541.189
0.37849613 -0.05 0.058732482 11545.601
0.37615364 -0.05 0.058803471 11550.121
0.37381109 -0.05 0.058872605 11555.33
0.37146848 -0.05 0.058939856 11560.428
0.36912583 -0.05 0.059005237 11565.755
0.36678312 -0.05 0.059068742 11570.981
0.36444037 -0.05 0.059130353 11576.551
0.36209757 -0.05 0.059190049 11582.047
0.35975471 -0.05 0.059247824 11587.909
0.35741181 -0.05 0.059303603 11594.296
0.35506885 -0.05 0.059357402 11600.229
0.35272586 -0.05 0.059409225 11606.652
0.35038283 -0.05 0.059459045 11612.805
0.34803975 -0.05 0.059506859 11619.466
0.34569662 -0.05 0.059552581 11626.561
0.34335347 -0.05 0.059596249 11633.027
0.34101027 -0.05 0.059637862 11640.272
0.33866703 -0.05 0.059677333 11647.613
0.33632377 -0.05 0.059714702 11654.839
0.33398046 -0.05 0.059749909 11662.861
0.33163713 -0.05 0.059782951 11670.162
0.32929376 -0.05 0.059813858 11678.024
0.32695037 -0.05 0.059842535 11686.321
0.32460696 -0.05 0.059868968 11694.632
0.32226351 -0.05 0.059893141 11703.234
0.31992004 -0.05 0.059915067 11711.41
0.31757656 -0.05 0.059934727 11720.228
0.31523306 -0.05 0.059952066 11729.075
0.31288954 -0.05 0.059967055 11738.403
0.31054601 -0.05 0.059979678 11747.427
0.30820247 -0.05 0.059989926 11756.748
0.30585891 -0.05 0.059997793 11765.833
0.30351535 -0.05 0.060003209 11776.18
0.30117178 -0.05 0.060006157 11786.636
