/*--------------------------------*- C++ -*----------------------------------*\
| =========                 |                                                 |
| \\      /  F ield         | OpenFOAM: The Open Source CFD Toolbox           |
|  \\    /   O peration     | Version:  2306                                  |
|   \\  /    A nd           | Website:  www.openfoam.com                      |
|    \\/     M anipulation  |                                                 |
\*---------------------------------------------------------------------------*/
FoamFile
{
    version     2.0;
    format      ascii;
    arch        "LSB;label=32;scalar=64";
    class       volVectorField;
    location    "550";
    object      momentError;
}
// * * * * * * * * * * * * * * * * * * * * * * * * * * * * * * * * * * * * * //

dimensions      [0 1 -2 0 0 0 0];

internalField   nonuniform List<vector> 
1340
(
(-8.52663e-05 0.000148349 2.99402e-14)
(-9.92738e-05 8.56809e-05 -7.52055e-14)
(-5.62788e-05 2.46917e-05 9.5795e-14)
(-1.62072e-05 -2.41563e-05 -6.00386e-14)
(3.21185e-05 -4.58048e-05 -1.46125e-13)
(4.95124e-05 -4.53944e-05 -1.64675e-13)
(5.78032e-05 -3.98938e-05 1.32091e-14)
(5.77562e-05 -3.22534e-05 1.33035e-13)
(5.35267e-05 -2.47811e-05 3.99406e-14)
(4.74599e-05 -1.86321e-05 -5.0307e-14)
(4.08098e-05 -1.35867e-05 -3.5475e-14)
(3.41783e-05 -1.01309e-05 -2.1818e-14)
(2.81139e-05 -7.16653e-06 3.904e-14)
(2.20415e-05 -5.61756e-06 1.72961e-14)
(1.67352e-05 -4.14578e-06 2.50514e-14)
(1.17145e-05 -4.63506e-06 -3.38378e-14)
(1.10783e-05 -5.62787e-06 -2.46551e-14)
(1.4838e-05 -5.89334e-06 1.81841e-14)
(1.97747e-05 -5.65496e-06 1.24074e-14)
(2.59954e-05 -4.37734e-06 6.93019e-15)
(3.18767e-05 -4.34346e-06 -1.46248e-15)
(3.16135e-05 -1.64822e-06 -2.84511e-16)
(2.26228e-05 -5.64167e-06 2.3061e-16)
(2.30993e-05 -1.87655e-06 -4.51363e-16)
(3.19863e-05 -1.40356e-06 -1.86753e-15)
(3.47366e-05 -5.68426e-07 -1.26035e-15)
(6.23259e-05 2.86168e-06 -3.83957e-15)
(7.161e-05 4.82293e-06 -2.90601e-15)
(4.66582e-05 6.39563e-05 1.11416e-13)
(-6.94985e-06 8.04269e-05 5.95854e-14)
(-3.23976e-05 3.73975e-05 -8.25882e-14)
(-2.23874e-05 -4.13196e-06 -1.06483e-14)
(-3.49513e-07 -3.56228e-05 1.01897e-13)
(2.70114e-05 -4.68374e-05 -5.20992e-15)
(4.27603e-05 -4.64824e-05 1.22903e-14)
(5.10848e-05 -4.09149e-05 -2.47923e-14)
(5.28106e-05 -3.32494e-05 -3.25881e-14)
(5.0175e-05 -2.55894e-05 1.41526e-14)
(4.54917e-05 -1.89448e-05 1.7087e-14)
(3.96619e-05 -1.38156e-05 -5.80437e-14)
(3.37131e-05 -9.97818e-06 2.69297e-14)
(2.77917e-05 -7.3392e-06 1.78451e-14)
(2.22474e-05 -5.21603e-06 1.46789e-14)
(1.70286e-05 -4.05873e-06 3.19093e-14)
(1.30119e-05 -3.34269e-06 4.1782e-14)
(1.24354e-05 -4.79393e-06 1.76494e-14)
(1.58509e-05 -5.08604e-06 -1.51654e-14)
(2.04447e-05 -5.2196e-06 8.1609e-16)
(2.61671e-05 -4.68753e-06 -5.68208e-15)
(3.2477e-05 -3.84825e-06 -2.08585e-15)
(3.17675e-05 -2.11743e-06 3.93336e-16)
(2.65904e-05 7.04045e-07 -3.86158e-17)
(4.05914e-05 -4.09695e-06 2.82899e-16)
(4.64646e-05 -2.54107e-07 6.14061e-16)
(5.29052e-05 -1.50941e-07 1.84952e-15)
(5.38413e-05 3.6455e-06 2.35465e-15)
(8.14014e-05 1.20221e-05 7.65763e-16)
(5.67623e-05 3.00318e-05 1.35491e-14)
(2.4853e-05 3.50519e-05 -1.17648e-13)
(5.31725e-06 9.55032e-06 -7.91933e-14)
(4.21823e-06 -1.47929e-05 -8.81237e-14)
(1.64161e-05 -3.30115e-05 9.75413e-14)
(3.19604e-05 -4.0702e-05 1.4533e-14)
(4.3291e-05 -4.11921e-05 -1.36542e-14)
(4.95116e-05 -3.73233e-05 -8.08998e-14)
(5.08295e-05 -3.13525e-05 -5.80885e-14)
(4.85653e-05 -2.47528e-05 3.78568e-14)
(4.44077e-05 -1.88283e-05 -2.13741e-14)
(3.91558e-05 -1.40795e-05 -4.39724e-14)
(3.35241e-05 -1.06049e-05 -4.00354e-15)
(2.78426e-05 -7.99031e-06 -4.02395e-14)
(2.23739e-05 -6.43583e-06 -4.30004e-14)
(1.72328e-05 -5.71773e-06 -8.43256e-14)
(1.32344e-05 -6.6421e-06 -6.39436e-14)
(1.25106e-05 -8.75611e-06 -1.79987e-14)
(1.54981e-05 -9.32303e-06 3.95039e-15)
(1.98824e-05 -8.70017e-06 -1.1475e-15)
(2.51905e-05 -7.32911e-06 -1.05286e-14)
(3.1262e-05 -5.73223e-06 4.47391e-15)
(3.08937e-05 -2.14232e-06 5.81765e-16)
(2.55703e-05 -5.09589e-06 -1.81331e-16)
(3.15102e-05 -2.53169e-06 -9.43688e-18)
(3.89356e-05 -5.62005e-07 -5.3414e-16)
(4.31633e-05 -2.8267e-06 -9.83096e-16)
(5.38687e-05 -7.38211e-06 -1.46472e-15)
(4.19408e-05 9.31728e-07 1.86775e-15)
(7.68182e-05 -9.59288e-06 7.34768e-14)
(5.87358e-05 9.82783e-06 -1.8417e-13)
(3.56913e-05 1.23192e-05 1.69127e-13)
(2.45849e-05 -4.06225e-06 2.01465e-15)
(2.17976e-05 -1.87116e-05 -1.20416e-13)
(2.82245e-05 -3.08549e-05 -7.02475e-14)
(3.68221e-05 -3.69069e-05 -1.98383e-14)
(4.42305e-05 -3.80543e-05 5.95862e-14)
(4.83049e-05 -3.54754e-05 1.29282e-13)
(4.89091e-05 -3.05675e-05 2.11142e-14)
(4.67204e-05 -2.48251e-05 -4.73379e-14)
(4.29949e-05 -1.9375e-05 2.21984e-14)
(3.82925e-05 -1.47767e-05 5.00097e-14)
(3.30691e-05 -1.13851e-05 -3.67786e-15)
(2.77069e-05 -8.68076e-06 -7.78289e-15)
(2.24734e-05 -7.07319e-06 -2.14375e-14)
(1.76185e-05 -6.20818e-06 5.28071e-14)
(1.39011e-05 -6.92899e-06 3.09355e-14)
(1.31614e-05 -8.76128e-06 -1.07667e-14)
(1.57138e-05 -9.42364e-06 -1.69122e-14)
(1.98353e-05 -8.89965e-06 -6.96416e-15)
(2.50153e-05 -7.65224e-06 1.26256e-14)
(3.08463e-05 -6.22927e-06 -8.91386e-16)
(3.05652e-05 -2.757e-06 -5.13497e-16)
(2.60382e-05 -3.13375e-06 2.01665e-16)
(3.07518e-05 -7.71308e-06 -3.97985e-17)
(3.9087e-05 -4.48366e-06 -3.66981e-17)
(5.32144e-05 2.68538e-05 2.74258e-16)
(0.000159251 0.000351224 5.11863e-16)
(0.000691939 0.00200847 -3.23281e-15)
(6.96221e-05 -2.14206e-05 -6.87533e-14)
(5.785e-05 -5.08499e-06 -7.24484e-14)
(4.25825e-05 -3.35805e-06 1.5044e-13)
(3.49323e-05 -1.25324e-05 1.26936e-13)
(3.2841e-05 -2.10817e-05 3.56481e-14)
(3.63942e-05 -2.87068e-05 -5.19379e-14)
(4.15429e-05 -3.30689e-05 5.9181e-14)
(4.6006e-05 -3.4208e-05 4.5428e-14)
(4.82888e-05 -3.23536e-05 -3.9819e-15)
(4.7917e-05 -2.84492e-05 -9.37211e-14)
(4.54856e-05 -2.35285e-05 3.96395e-15)
(4.1935e-05 -1.88245e-05 3.73007e-15)
(3.75396e-05 -1.46934e-05 2.0686e-16)
(3.26656e-05 -1.14854e-05 1.51383e-14)
(2.7551e-05 -8.91145e-06 -5.43059e-15)
(2.25452e-05 -7.49643e-06 1.23011e-14)
(1.79062e-05 -6.88776e-06 -2.67244e-14)
(1.434e-05 -8.10292e-06 -1.53651e-14)
(1.34408e-05 -1.01181e-05 1.55018e-14)
(1.55695e-05 -1.12092e-05 2.09532e-14)
(1.94277e-05 -1.0651e-05 1.25528e-15)
(2.45461e-05 -9.16442e-06 -1.23697e-15)
(3.02579e-05 -6.93862e-06 -3.26002e-15)
(3.0283e-05 -2.90207e-06 6.54298e-16)
(2.61345e-05 -4.37573e-06 -1.04595e-16)
(3.08256e-05 -4.24327e-06 -5.30621e-16)
(3.95807e-05 1.06557e-06 -2.81109e-17)
(4.57354e-05 -4.91104e-05 7.81233e-17)
(4.8232e-05 -0.000544959 -6.93139e-17)
(-9.18832e-05 -0.00293479 -9.31037e-16)
(6.41325e-05 -4.67195e-05 4.6817e-15)
(6.29016e-05 -2.71883e-05 -7.8182e-14)
(5.59106e-05 -1.4914e-05 -2.9426e-14)
(4.62709e-05 -1.31951e-05 -3.50567e-14)
(4.12541e-05 -1.74601e-05 2.74177e-14)
(3.98526e-05 -2.23128e-05 1.35735e-13)
(4.20745e-05 -2.69181e-05 -3.0359e-14)
(4.53698e-05 -2.99554e-05 -5.88494e-14)
(4.78941e-05 -3.07974e-05 2.50168e-15)
(4.87081e-05 -2.9293e-05 -5.12986e-14)
(4.74188e-05 -2.60649e-05 1.70031e-14)
(4.46148e-05 -2.18432e-05 2.54112e-14)
(4.10803e-05 -1.77494e-05 3.93183e-14)
(3.69189e-05 -1.40942e-05 1.50491e-14)
(3.22999e-05 -1.10954e-05 -1.77031e-14)
(2.74237e-05 -8.73286e-06 2.27257e-14)
(2.26927e-05 -7.33596e-06 2.51828e-14)
(1.83025e-05 -6.95398e-06 1.82594e-14)
(1.49944e-05 -8.12788e-06 3.81567e-15)
(1.39551e-05 -1.01156e-05 -1.44099e-14)
(1.57008e-05 -1.12739e-05 1.18018e-14)
(1.91901e-05 -1.10391e-05 3.28036e-15)
(2.41625e-05 -9.55406e-06 -1.13711e-14)
(2.96848e-05 -7.39773e-06 1.22344e-15)
(3.00305e-05 -3.25994e-06 -1.18457e-16)
(2.63774e-05 -4.28298e-06 2.0561e-16)
(3.05514e-05 -5.86995e-06 6.67333e-16)
(3.79147e-05 -2.59892e-06 -1.60573e-16)
(3.74197e-05 1.26932e-05 -2.5137e-16)
(-1.29447e-06 0.000150127 5.63743e-16)
(-0.000239425 0.000918779 1.39658e-15)
(5.51811e-05 -4.38125e-05 7.38143e-15)
(5.60379e-05 -2.96487e-05 1.10946e-14)
(5.2133e-05 -1.99724e-05 8.0639e-14)
(4.74616e-05 -1.8773e-05 -1.01462e-13)
(4.45422e-05 -2.046e-05 -3.28009e-14)
(4.42068e-05 -2.28676e-05 -3.11479e-14)
(4.59721e-05 -2.54736e-05 1.17307e-13)
(4.82593e-05 -2.74113e-05 -4.64459e-14)
(4.96512e-05 -2.77339e-05 -4.56716e-15)
(4.93218e-05 -2.63145e-05 1.85391e-14)
(4.7288e-05 -2.33837e-05 1.77852e-14)
(4.40899e-05 -1.97984e-05 1.20879e-14)
(4.04907e-05 -1.63332e-05 -7.68257e-14)
(3.64181e-05 -1.32522e-05 -2.81418e-14)
(3.19771e-05 -1.05817e-05 3.58171e-14)
(2.73068e-05 -8.54537e-06 1.42873e-15)
(2.28242e-05 -7.25068e-06 3.63862e-14)
(1.87009e-05 -7.1338e-06 -1.03903e-14)
(1.55678e-05 -8.31516e-06 1.50663e-15)
(1.443e-05 -1.03773e-05 2.42355e-14)
(1.57561e-05 -1.17521e-05 -2.03631e-14)
(1.89441e-05 -1.18914e-05 -6.9899e-15)
(2.36553e-05 -1.06759e-05 6.58227e-15)
(2.90542e-05 -8.27591e-06 2.19799e-15)
(2.96438e-05 -4.0579e-06 -1.15789e-18)
(2.64731e-05 -4.64009e-06 -2.57145e-16)
(3.02293e-05 -5.41672e-06 6.37744e-16)
(3.78402e-05 -1.53873e-06 7.498e-17)
(4.39115e-05 -2.38159e-06 -1.08084e-15)
(5.55315e-05 -8.39881e-06 5.42561e-17)
(7.86686e-05 -3.57348e-05 -3.16331e-15)
(4.96332e-05 -4.39564e-05 3.14461e-15)
(5.03186e-05 -3.03722e-05 1.01651e-13)
(4.82802e-05 -2.30238e-05 1.36656e-13)
(4.65148e-05 -2.23548e-05 -5.29997e-14)
(4.59231e-05 -2.20396e-05 -7.253e-14)
(4.65456e-05 -2.29215e-05 -5.54113e-14)
(4.84626e-05 -2.43164e-05 -1.02164e-13)
(5.03539e-05 -2.52893e-05 -5.52873e-15)
(5.10367e-05 -2.50714e-05 -4.30501e-14)
(4.9995e-05 -2.34484e-05 5.78123e-14)
(4.73556e-05 -2.07311e-05 1.93966e-14)
(4.38449e-05 -1.76177e-05 -3.07512e-14)
(4.01503e-05 -1.47693e-05 -3.26307e-15)
(3.60995e-05 -1.21759e-05 -2.54406e-14)
(3.17463e-05 -9.88646e-06 2.79092e-15)
(2.72533e-05 -8.0718e-06 -1.77681e-14)
(2.29781e-05 -7.00662e-06 -3.338e-14)
(1.91489e-05 -6.98219e-06 1.47958e-14)
(1.61846e-05 -8.19234e-06 -2.76257e-14)
(1.49911e-05 -1.01562e-05 -1.00665e-14)
(1.59371e-05 -1.17401e-05 6.28577e-15)
(1.87917e-05 -1.21562e-05 3.97123e-15)
(2.31747e-05 -1.13467e-05 1.56324e-15)
(2.8373e-05 -8.92287e-06 -1.03509e-15)
(2.9204e-05 -4.85851e-06 -4.35145e-16)
(2.65489e-05 -4.75335e-06 -7.72645e-17)
(3.00078e-05 -5.57538e-06 -1.03053e-15)
(3.75231e-05 -2.34455e-06 5.53565e-16)
(4.43802e-05 -2.32997e-06 3.06439e-15)
(5.58753e-05 -2.71535e-06 5.12503e-17)
(7.1538e-05 1.26941e-05 2.49812e-15)
(3.92917e-05 -5.39149e-05 9.71645e-14)
(4.45368e-05 -4.07237e-05 6.4319e-14)
(4.61671e-05 -3.09871e-05 -1.65789e-13)
(4.5724e-05 -2.66044e-05 -1.14058e-13)
(4.4799e-05 -2.41862e-05 -3.87775e-14)
(4.56749e-05 -2.24506e-05 7.08573e-14)
(4.76548e-05 -2.25172e-05 7.3203e-14)
(4.98195e-05 -2.31874e-05 2.72944e-14)
(5.16826e-05 -2.34988e-05 2.50398e-14)
(5.19872e-05 -2.27248e-05 -2.67405e-14)
(5.05314e-05 -2.07577e-05 -8.73374e-14)
(4.7525e-05 -1.81109e-05 1.34148e-14)
(4.38391e-05 -1.54101e-05 2.70941e-14)
(4.00302e-05 -1.3065e-05 1.84378e-14)
(3.59592e-05 -1.09003e-05 5.1086e-14)
(3.164e-05 -8.99937e-06 -2.84807e-14)
(2.72846e-05 -7.39397e-06 -2.12613e-14)
(2.32163e-05 -6.57175e-06 -1.53181e-14)
(1.96198e-05 -6.65036e-06 -3.15588e-15)
(1.68337e-05 -7.85868e-06 2.46383e-14)
(1.55481e-05 -9.75172e-06 1.6455e-14)
(1.62106e-05 -1.14794e-05 1.90876e-14)
(1.86822e-05 -1.2266e-05 6.47008e-15)
(2.27694e-05 -1.18308e-05 2.82508e-17)
(2.76447e-05 -9.69655e-06 2.21315e-15)
(2.87289e-05 -5.5272e-06 -3.08462e-16)
(2.65244e-05 -5.04221e-06 3.02125e-16)
(2.97838e-05 -5.49457e-06 -3.79827e-16)
(3.71258e-05 -2.29602e-06 3.18566e-17)
(4.4519e-05 -1.59245e-06 -1.7601e-15)
(5.64677e-05 -2.83015e-06 4.24009e-16)
(7.41438e-05 1.58177e-07 4.63062e-15)
(3.9202e-05 -3.812e-05 1.02134e-13)
(4.24873e-05 -3.09281e-05 1.87092e-14)
(4.30739e-05 -2.78345e-05 -2.79247e-15)
(4.42671e-05 -2.52334e-05 -9.34346e-14)
(4.50435e-05 -2.23907e-05 -3.88165e-14)
(4.76421e-05 -2.16784e-05 5.64922e-14)
(5.04964e-05 -2.21306e-05 6.41652e-14)
(5.23027e-05 -2.1909e-05 1.04452e-13)
(5.25034e-05 -2.05738e-05 9.98124e-14)
(5.08136e-05 -1.83398e-05 -2.10587e-14)
(4.76858e-05 -1.56875e-05 -8.11415e-15)
(4.39412e-05 -1.33312e-05 1.57313e-14)
(4.0099e-05 -1.13551e-05 3.48482e-15)
(3.597e-05 -9.5661e-06 1.13504e-14)
(3.16657e-05 -7.9212e-06 3.09247e-14)
(2.73848e-05 -6.62097e-06 8.27739e-17)
(2.35129e-05 -5.94524e-06 -1.26205e-14)
(2.01269e-05 -6.1648e-06 -5.76311e-15)
(1.75038e-05 -7.30851e-06 2.63304e-15)
(1.61649e-05 -9.16208e-06 1.12642e-15)
(1.65768e-05 -1.09359e-05 -3.97039e-15)
(1.86852e-05 -1.20591e-05 -8.91575e-15)
(2.24209e-05 -1.19519e-05 5.54187e-16)
(2.69005e-05 -1.01783e-05 -1.41935e-15)
(2.81466e-05 -6.06587e-06 4.54781e-16)
(2.64437e-05 -5.26643e-06 6.53939e-17)
(2.95645e-05 -5.53376e-06 2.1646e-16)
(3.67521e-05 -2.59126e-06 1.74732e-15)
(4.45035e-05 -1.56803e-06 2.52536e-15)
(5.64015e-05 -1.93901e-06 -1.9277e-15)
(7.2959e-05 3.0797e-06 -6.47521e-15)
(3.86469e-05 -3.02052e-05 9.94014e-15)
(4.0028e-05 -2.64332e-05 7.45267e-14)
(4.26641e-05 -2.50405e-05 -9.30758e-14)
(4.50478e-05 -2.29054e-05 1.36615e-15)
(4.72752e-05 -2.14146e-05 2.55346e-14)
(5.03198e-05 -2.11671e-05 -1.08716e-13)
(5.23534e-05 -2.04874e-05 -1.63282e-13)
(5.25176e-05 -1.86617e-05 2.25665e-14)
(5.08513e-05 -1.61172e-05 2.43315e-14)
(4.77684e-05 -1.35465e-05 -1.70256e-14)
(4.41014e-05 -1.14192e-05 -1.64717e-14)
(4.02739e-05 -9.71329e-06 -3.75644e-14)
(3.61007e-05 -8.17132e-06 3.35301e-14)
(3.18025e-05 -6.73406e-06 2.93744e-14)
(2.76112e-05 -5.642e-06 9.06531e-15)
(2.38869e-05 -5.17536e-06 3.06019e-14)
(2.0692e-05 -5.47598e-06 2.85566e-14)
(1.81827e-05 -6.5844e-06 1.1427e-15)
(1.68223e-05 -8.32245e-06 -4.2473e-14)
(1.69944e-05 -1.01321e-05 -9.03096e-15)
(1.87985e-05 -1.14681e-05 -2.44326e-15)
(2.21246e-05 -1.1729e-05 -7.61527e-15)
(2.62176e-05 -1.02554e-05 -4.13656e-17)
(2.75332e-05 -6.49892e-06 -9.25468e-17)
(2.63301e-05 -5.33868e-06 2.19294e-16)
(2.93261e-05 -5.58832e-06 -2.34826e-16)
(3.63469e-05 -2.7863e-06 -1.81305e-16)
(4.43421e-05 -1.28086e-06 2.32952e-17)
(5.61427e-05 -6.77592e-07 -4.45354e-15)
(7.15424e-05 4.2129e-06 2.72921e-15)
(3.7914e-05 -2.60874e-05 -7.00859e-14)
(3.89206e-05 -2.23581e-05 7.50874e-14)
(4.35821e-05 -2.29071e-05 5.8373e-14)
(4.69999e-05 -2.19899e-05 7.79335e-14)
(4.98636e-05 -2.08119e-05 7.72713e-14)
(5.19183e-05 -1.92642e-05 -5.42474e-14)
(5.21359e-05 -1.6967e-05 -5.91123e-14)
(5.06114e-05 -1.41855e-05 4.22783e-14)
(4.77389e-05 -1.16767e-05 1.36122e-14)
(4.42607e-05 -9.67984e-06 2.77792e-15)
(4.04932e-05 -8.18517e-06 -5.2883e-15)
(3.6325e-05 -6.74319e-06 -8.11514e-14)
(3.20171e-05 -5.49665e-06 -3.57937e-14)
(2.7922e-05 -4.5503e-06 -1.46658e-14)
(2.43396e-05 -4.26248e-06 -3.1005e-14)
(2.12909e-05 -4.60951e-06 -1.60434e-14)
(1.88921e-05 -5.68403e-06 3.66989e-15)
(1.75092e-05 -7.31707e-06 2.51786e-14)
(1.75013e-05 -9.11444e-06 1.37406e-15)
(1.90014e-05 -1.06032e-05 1.15439e-14)
(2.19225e-05 -1.11396e-05 8.95672e-15)
(2.55553e-05 -1.00054e-05 1.08871e-15)
(2.68802e-05 -6.66436e-06 -1.28712e-15)
(2.61442e-05 -5.38235e-06 -2.04687e-16)
(2.90922e-05 -5.61598e-06 -2.23937e-16)
(3.59066e-05 -3.08681e-06 3.64189e-16)
(4.40652e-05 -1.17483e-06 -2.99432e-16)
(5.57797e-05 3.90076e-07 1.83727e-15)
(7.01254e-05 5.87357e-06 2.59549e-15)
(3.77293e-05 -2.20696e-05 9.77225e-14)
(3.92944e-05 -1.9816e-05 6.41963e-15)
(4.65766e-05 -2.26367e-05 -5.21812e-14)
(4.90962e-05 -2.05723e-05 4.4876e-14)
(5.10091e-05 -1.81462e-05 9.55723e-14)
(5.14164e-05 -1.53971e-05 1.66068e-14)
(5.01382e-05 -1.2537e-05 -6.74012e-14)
(4.7593e-05 -1.00545e-05 3.37442e-14)
(4.43621e-05 -8.20701e-06 1.38587e-14)
(4.07079e-05 -6.71712e-06 1.93074e-15)
(3.6565e-05 -5.35243e-06 1.99985e-15)
(3.23179e-05 -4.16045e-06 -5.01722e-14)
(2.83167e-05 -3.40891e-06 6.39131e-15)
(2.48711e-05 -3.19108e-06 3.20089e-15)
(2.19364e-05 -3.60444e-06 2.2448e-16)
(1.96302e-05 -4.57626e-06 -3.34465e-16)
(1.82172e-05 -6.13149e-06 9.53635e-15)
(1.80643e-05 -7.82634e-06 1.79728e-14)
(1.92761e-05 -9.42322e-06 -8.92412e-15)
(2.1807e-05 -1.0108e-05 -6.21538e-15)
(2.49721e-05 -9.36086e-06 1.65616e-15)
(2.62852e-05 -6.45668e-06 1.03168e-15)
(2.59585e-05 -5.26829e-06 -3.46442e-16)
(2.88736e-05 -5.54908e-06 -1.5546e-16)
(3.54271e-05 -3.2838e-06 -1.80243e-15)
(4.36675e-05 -9.35742e-07 2.26657e-15)
(5.52917e-05 1.43517e-06 1.93903e-15)
(6.86792e-05 7.39356e-06 -8.87376e-15)
(3.85048e-05 -1.9868e-05 -2.06118e-14)
(4.17944e-05 -1.92226e-05 3.45132e-14)
(4.90787e-05 -2.0855e-05 -2.64684e-14)
(4.98054e-05 -1.70317e-05 -3.31975e-14)
(5.04065e-05 -1.38958e-05 1.41589e-14)
(4.9442e-05 -1.10503e-05 3.36165e-14)
(4.72959e-05 -8.65356e-06 -4.79462e-14)
(4.43393e-05 -6.89902e-06 1.00895e-14)
(4.08554e-05 -5.36773e-06 2.92532e-14)
(3.67775e-05 -3.98262e-06 2.80917e-14)
(3.26358e-05 -2.81379e-06 2.81822e-14)
(2.87693e-05 -2.16959e-06 1.28359e-14)
(2.5442e-05 -2.02688e-06 5.79826e-15)
(2.26124e-05 -2.44786e-06 9.13038e-15)
(2.03688e-05 -3.35044e-06 1.09399e-14)
(1.89534e-05 -4.77177e-06 -1.34853e-14)
(1.86655e-05 -6.38043e-06 -1.64105e-14)
(1.96329e-05 -7.98748e-06 -7.62948e-16)
(2.17619e-05 -8.8207e-06 -2.97502e-15)
(2.44683e-05 -8.36306e-06 -1.56547e-15)
(2.56927e-05 -6.00222e-06 -4.87739e-16)
(2.57687e-05 -4.96973e-06 2.58055e-16)
(2.86545e-05 -5.3894e-06 1.64922e-15)
(3.4899e-05 -3.37046e-06 -1.76985e-15)
(4.3139e-05 -8.01525e-07 -4.7362e-15)
(5.46778e-05 2.3823e-06 6.0234e-15)
(6.72639e-05 8.83712e-06 2.14025e-15)
(3.93637e-05 -1.76756e-05 -3.65764e-14)
(4.62716e-05 -1.88563e-05 -5.9227e-14)
(4.91792e-05 -1.64536e-05 -2.1536e-14)
(4.91727e-05 -1.25643e-05 -2.56364e-14)
(4.8739e-05 -9.74603e-06 -1.09423e-15)
(4.69113e-05 -7.49155e-06 4.38309e-15)
(4.42474e-05 -5.66816e-06 -4.33725e-14)
(4.08757e-05 -4.10234e-06 7.7308e-15)
(3.69546e-05 -2.60097e-06 -2.5535e-14)
(3.29522e-05 -1.50491e-06 -1.64599e-14)
(2.92573e-05 -8.67889e-07 3.05061e-14)
(2.60489e-05 -7.98134e-07 -1.76402e-14)
(2.33134e-05 -1.15383e-06 -3.17496e-14)
(2.11198e-05 -2.0115e-06 2.42537e-15)
(1.9695e-05 -3.24426e-06 1.69043e-14)
(1.9301e-05 -4.76557e-06 2.45112e-15)
(2.00379e-05 -6.27584e-06 -3.65691e-15)
(2.17959e-05 -7.24153e-06 1.08234e-15)
(2.40681e-05 -6.99207e-06 2.94352e-16)
(2.52174e-05 -5.22953e-06 -6.61485e-16)
(2.56177e-05 -4.47215e-06 4.49128e-16)
(2.84569e-05 -4.96332e-06 -1.2675e-15)
(3.43706e-05 -3.28404e-06 -1.32135e-16)
(4.24999e-05 -5.54663e-07 -2.16983e-16)
(5.39394e-05 3.36536e-06 2.06697e-15)
(6.58033e-05 1.01821e-05 8.07296e-15)
(3.88725e-05 -1.7317e-05 -2.1852e-14)
(4.13696e-05 -1.52457e-05 -5.97841e-14)
(4.85819e-05 -1.59901e-05 -9.68118e-15)
(4.79878e-05 -1.14091e-05 4.24499e-15)
(4.78441e-05 -8.5975e-06 -2.73765e-14)
(4.64251e-05 -6.42432e-06 5.82457e-14)
(4.40078e-05 -4.52982e-06 5.85409e-14)
(4.07953e-05 -2.83752e-06 -1.39515e-15)
(3.70293e-05 -1.2822e-06 2.07571e-14)
(3.32422e-05 -1.9356e-07 -1.46694e-14)
(2.97262e-05 4.17413e-07 1.59347e-14)
(2.66539e-05 5.07918e-07 3.72979e-14)
(2.40018e-05 2.04331e-07 1.55836e-15)
(2.18605e-05 -5.38888e-07 -2.66311e-14)
(2.04254e-05 -1.62777e-06 -8.15158e-15)
(1.99532e-05 -3.0225e-06 7.64608e-15)
(2.04761e-05 -4.46979e-06 3.80748e-15)
(2.19001e-05 -5.46413e-06 6.89456e-15)
(2.3746e-05 -5.46503e-06 -2.8944e-15)
(2.48159e-05 -4.19676e-06 4.78928e-17)
(2.54727e-05 -3.79458e-06 -1.94228e-16)
(2.82672e-05 -4.28709e-06 1.13724e-16)
(3.38031e-05 -3.03237e-06 2.43659e-16)
(4.17223e-05 -2.14338e-07 -1.76922e-15)
(5.30685e-05 4.18219e-06 -1.3566e-14)
(6.43363e-05 1.13966e-05 -1.42098e-14)
(3.91288e-05 -1.36287e-05 -4.60342e-14)
(4.45828e-05 -1.32137e-05 9.5431e-15)
(4.75457e-05 -1.10583e-05 4.26144e-14)
(4.69731e-05 -7.52792e-06 2.86932e-14)
(4.59616e-05 -5.45746e-06 -2.17629e-14)
(4.36684e-05 -3.50245e-06 1.93878e-14)
(4.06387e-05 -1.60597e-06 -1.61458e-14)
(3.70457e-05 -5.73074e-08 6.79328e-16)
(3.34997e-05 1.07543e-06 1.84828e-14)
(3.01744e-05 1.65903e-06 -1.61892e-14)
(2.72456e-05 1.83288e-06 1.64406e-14)
(2.46816e-05 1.56807e-06 1.33425e-14)
(2.25877e-05 9.87698e-07 1.02309e-14)
(2.1154e-05 3.70321e-08 -8.59359e-15)
(2.06205e-05 -1.15402e-06 -6.72731e-15)
(2.09525e-05 -2.5696e-06 -2.51489e-15)
(2.20658e-05 -3.52951e-06 -4.99838e-15)
(2.35501e-05 -3.76826e-06 5.99287e-16)
(2.45375e-05 -2.9435e-06 1.96789e-15)
(2.53958e-05 -2.87883e-06 -2.088e-16)
(2.81007e-05 -3.36569e-06 1.18726e-15)
(3.32691e-05 -2.44241e-06 -7.04464e-16)
(4.08833e-05 2.65741e-07 1.52955e-15)
(5.2095e-05 5.08156e-06 9.63002e-15)
(6.27708e-05 1.26117e-05 7.21075e-15)
(3.84632e-05 -1.29722e-05 -7.79657e-14)
(3.99731e-05 -1.02615e-05 -4.35792e-14)
(4.66308e-05 -1.02581e-05 1.25076e-14)
(4.57181e-05 -6.72977e-06 -1.09356e-14)
(4.53685e-05 -4.56471e-06 -3.42822e-14)
(4.31865e-05 -2.4796e-06 -5.21845e-14)
(4.03245e-05 -4.92891e-07 2.35338e-14)
(3.69845e-05 1.11633e-06 -2.29739e-14)
(3.36793e-05 2.24119e-06 -1.05775e-14)
(3.05659e-05 2.8803e-06 -2.23707e-14)
(2.77845e-05 3.11826e-06 -4.10718e-14)
(2.53143e-05 2.97918e-06 -1.27659e-14)
(2.32682e-05 2.52833e-06 1.32926e-14)
(2.18441e-05 1.74942e-06 1.14182e-14)
(2.12687e-05 6.6185e-07 6.84964e-16)
(2.14544e-05 -6.30672e-07 4.40471e-15)
(2.22709e-05 -1.62222e-06 -2.54275e-15)
(2.34463e-05 -1.98428e-06 -6.59357e-17)
(2.433e-05 -1.60142e-06 7.90588e-16)
(2.53384e-05 -1.72976e-06 -5.64684e-16)
(2.7929e-05 -2.27823e-06 2.56327e-16)
(3.27268e-05 -1.57188e-06 1.23981e-15)
(3.99526e-05 8.9667e-07 -1.11484e-15)
(5.0909e-05 5.96151e-06 -1.6383e-15)
(6.11705e-05 1.36762e-05 7.72363e-15)
(3.79233e-05 -8.9886e-06 -8.89573e-14)
(4.27399e-05 -8.34084e-06 -1.20442e-14)
(4.54962e-05 -6.69739e-06 6.61014e-15)
(4.40176e-05 -3.7423e-06 4.7302e-14)
(4.2533e-05 -1.56815e-06 1.07966e-14)
(3.98127e-05 4.82858e-07 -1.75585e-14)
(3.67857e-05 2.15512e-06 3.19508e-14)
(3.37495e-05 3.28407e-06 9.19135e-16)
(3.08663e-05 4.01978e-06 2.48675e-14)
(2.82467e-05 4.3183e-06 1.1248e-14)
(2.58868e-05 4.33573e-06 2.94391e-15)
(2.38998e-05 4.01593e-06 2.15216e-15)
(2.25229e-05 3.44622e-06 -6.94553e-15)
(2.19201e-05 2.40895e-06 -3.21053e-15)
(2.19665e-05 1.26251e-06 1.16745e-15)
(2.25391e-05 2.47819e-07 1.31994e-15)
(2.34368e-05 -1.95706e-07 7.60295e-16)
(2.42488e-05 -1.5489e-07 -7.29533e-16)
(2.53268e-05 -4.42032e-07 4.34228e-17)
(2.78118e-05 -9.66434e-07 -2.52967e-15)
(3.22418e-05 -4.65624e-07 1.78009e-15)
(3.9059e-05 1.84541e-06 6.53283e-15)
(4.95546e-05 6.86457e-06 -2.57345e-15)
(5.95232e-05 1.4912e-05 -8.08336e-15)
(3.61684e-05 -7.62467e-06 2.50407e-14)
(4.01063e-05 -7.30207e-06 -2.6772e-15)
(4.39323e-05 -6.37532e-06 2.65378e-14)
(4.29473e-05 -3.37952e-06 -2.16546e-14)
(4.16043e-05 -9.35979e-07 1.36285e-14)
(3.92345e-05 1.25477e-06 -1.45133e-14)
(3.64763e-05 2.96776e-06 1.04244e-14)
(3.37173e-05 4.199e-06 1.15768e-14)
(3.10563e-05 5.0109e-06 -4.086e-15)
(2.8608e-05 5.46219e-06 1.69034e-14)
(2.63584e-05 5.59786e-06 -9.92642e-15)
(2.44454e-05 5.46271e-06 -1.06632e-14)
(2.31249e-05 4.97808e-06 9.05089e-15)
(2.2548e-05 4.08401e-06 -3.94531e-15)
(2.24683e-05 2.9909e-06 -8.01693e-15)
(2.28321e-05 2.03503e-06 4.13735e-16)
(2.34835e-05 1.49226e-06 4.71082e-16)
(2.42167e-05 1.33672e-06 -8.83034e-16)
(2.53132e-05 9.29265e-07 9.72876e-16)
(2.76738e-05 4.74058e-07 -7.83003e-16)
(3.1744e-05 8.17448e-07 -5.88053e-16)
(3.80993e-05 2.98237e-06 3.33842e-17)
(4.80064e-05 7.84385e-06 2.5252e-15)
(5.77876e-05 1.60689e-05 4.3503e-16)
(3.53792e-05 -7.27364e-06 1.76215e-14)
(3.57333e-05 -5.30453e-06 -5.9696e-15)
(4.31914e-05 -6.60741e-06 5.20584e-15)
(4.1496e-05 -3.10369e-06 6.02656e-15)
(4.04224e-05 -5.31205e-07 -1.20489e-14)
(3.84026e-05 1.79407e-06 1.32332e-14)
(3.59735e-05 3.58242e-06 -5.32166e-15)
(3.35186e-05 4.9531e-06 6.24156e-15)
(3.11004e-05 5.85634e-06 -2.04312e-14)
(2.8839e-05 6.45653e-06 -4.15813e-15)
(2.67205e-05 6.72823e-06 1.63894e-14)
(2.49284e-05 6.76163e-06 -8.85771e-15)
(2.37119e-05 6.32419e-06 -9.26703e-15)
(2.31502e-05 5.55293e-06 4.51092e-15)
(2.29796e-05 4.53505e-06 5.42047e-15)
(2.31478e-05 3.64121e-06 2.9601e-15)
(2.36081e-05 3.07247e-06 -1.93759e-15)
(2.42541e-05 2.78493e-06 3.06913e-16)
(2.53463e-05 2.35917e-06 -4.64631e-18)
(2.75672e-05 1.96213e-06 2.61317e-15)
(3.13035e-05 2.27723e-06 -2.93089e-15)
(3.71741e-05 4.26852e-06 -5.2953e-15)
(4.64531e-05 9.03105e-06 1.26508e-15)
(5.59582e-05 1.72364e-05 3.89944e-15)
(3.41758e-05 -4.91979e-06 -5.35642e-15)
(3.81206e-05 -4.60419e-06 1.10044e-14)
(4.13161e-05 -3.5335e-06 6.58952e-15)
(3.89147e-05 -1.75721e-07 -2.65219e-14)
(3.74693e-05 2.03599e-06 -2.28005e-14)
(3.53255e-05 4.05452e-06 -1.42408e-14)
(3.31624e-05 5.51248e-06 7.71999e-15)
(3.10144e-05 6.58335e-06 2.19053e-14)
(2.89329e-05 7.28688e-06 -1.4746e-14)
(2.69694e-05 7.73971e-06 -2.4015e-15)
(2.53083e-05 7.8189e-06 8.55896e-15)
(2.42332e-05 7.49028e-06 -1.64313e-15)
(2.37023e-05 6.76963e-06 -3.97151e-16)
(2.34599e-05 5.87701e-06 1.02485e-15)
(2.34586e-05 5.0453e-06 4.4716e-15)
(2.37418e-05 4.5148e-06 -9.28841e-16)
(2.4298e-05 4.15947e-06 -1.29666e-15)
(2.53495e-05 3.78379e-06 -6.07515e-16)
(2.74155e-05 3.46004e-06 2.95229e-16)
(3.08192e-05 3.82062e-06 1.68647e-15)
(3.61719e-05 5.67558e-06 2.66531e-15)
(4.47634e-05 1.03341e-05 3.2185e-15)
(5.39427e-05 1.84557e-05 -2.95654e-15)
(3.41057e-05 -4.7684e-06 -4.89231e-14)
(3.37457e-05 -3.01786e-06 -2.74709e-14)
(4.00069e-05 -3.34592e-06 2.30636e-15)
(3.74328e-05 -1.77133e-07 -2.43891e-15)
(3.62205e-05 2.20123e-06 -2.05945e-15)
(3.43961e-05 4.32047e-06 1.24847e-14)
(3.26265e-05 5.99192e-06 -6.07661e-16)
(3.0742e-05 7.1539e-06 -4.07951e-15)
(2.88828e-05 7.98445e-06 -3.41423e-15)
(2.71101e-05 8.51987e-06 2.59254e-15)
(2.5651e-05 8.61951e-06 5.31809e-15)
(2.47139e-05 8.34494e-06 4.45201e-15)
(2.42353e-05 7.72064e-06 4.04437e-15)
(2.39099e-05 6.94041e-06 1.85914e-15)
(2.37696e-05 6.23061e-06 2.08367e-15)
(2.39074e-05 5.76246e-06 4.18621e-16)
(2.43777e-05 5.42763e-06 6.27553e-17)
(2.53704e-05 5.12462e-06 1.51174e-16)
(2.72899e-05 4.93069e-06 1.15746e-15)
(3.03726e-05 5.36792e-06 1.64681e-15)
(3.52219e-05 7.19279e-06 -5.4506e-15)
(4.3101e-05 1.17056e-05 -6.102e-15)
(5.18233e-05 1.98594e-05 4.56469e-15)
(3.27498e-05 -2.74229e-06 -1.14965e-15)
(3.52804e-05 -2.09897e-06 7.55176e-15)
(3.72023e-05 -7.86975e-07 1.89296e-14)
(3.43777e-05 2.34129e-06 -6.15887e-15)
(3.3222e-05 4.59695e-06 1.12585e-14)
(3.17532e-05 6.36806e-06 9.19954e-15)
(3.03222e-05 7.65145e-06 3.00085e-15)
(2.86935e-05 8.55209e-06 2.19096e-15)
(2.71608e-05 9.05371e-06 -8.58825e-15)
(2.59103e-05 9.18331e-06 -5.36982e-15)
(2.5111e-05 8.91432e-06 2.94002e-15)
(2.46795e-05 8.41636e-06 1.29127e-15)
(2.42969e-05 7.7753e-06 -7.01178e-15)
(2.40197e-05 7.21868e-06 -6.37002e-15)
(2.40354e-05 6.84445e-06 1.9917e-15)
(2.44203e-05 6.58147e-06 -5.4445e-16)
(2.53321e-05 6.38886e-06 5.67992e-16)
(2.70856e-05 6.34674e-06 -3.30764e-15)
(2.98488e-05 6.91054e-06 1.19266e-15)
(3.418e-05 8.7491e-06 7.3206e-15)
(4.12826e-05 1.31794e-05 -1.84274e-15)
(4.95074e-05 2.13061e-05 -1.93481e-15)
(3.13188e-05 -2.47939e-06 -3.76456e-15)
(3.26579e-05 -1.65655e-06 -1.3135e-14)
(3.54783e-05 -8.10643e-07 -3.14334e-14)
(3.26785e-05 2.58016e-06 9.35483e-15)
(3.18046e-05 4.8263e-06 -1.00169e-14)
(3.08451e-05 6.70636e-06 6.19418e-15)
(2.97181e-05 8.02953e-06 -1.53594e-14)
(2.84902e-05 8.95103e-06 -7.66546e-15)
(2.71823e-05 9.37493e-06 2.24674e-14)
(2.61373e-05 9.43802e-06 -1.27651e-14)
(2.54735e-05 9.2078e-06 -5.46838e-15)
(2.50565e-05 8.82039e-06 -2.14899e-15)
(2.46135e-05 8.37264e-06 -2.08586e-15)
(2.4236e-05 7.98577e-06 5.63699e-15)
(2.41504e-05 7.74557e-06 2.07259e-15)
(2.44608e-05 7.57944e-06 1.10416e-15)
(2.52902e-05 7.53397e-06 -1.25137e-16)
(2.68801e-05 7.66033e-06 2.38576e-15)
(2.93407e-05 8.39235e-06 -2.25826e-15)
(3.31789e-05 1.02704e-05 -6.7307e-15)
(3.95083e-05 1.46684e-05 9.94278e-16)
(4.71375e-05 2.27072e-05 4.68896e-15)
(3.10514e-05 -2.34913e-06 4.88592e-15)
(2.89172e-05 -7.6598e-07 1.70076e-14)
(3.39586e-05 -3.3118e-07 9.47934e-15)
(3.09108e-05 2.77041e-06 -6.3525e-15)
(3.03135e-05 5.14373e-06 -3.23253e-15)
(2.9679e-05 6.95238e-06 -1.42267e-14)
(2.91092e-05 8.36849e-06 1.93694e-14)
(2.81865e-05 9.10035e-06 3.88031e-15)
(2.72363e-05 9.46587e-06 -1.07202e-16)
(2.63237e-05 9.43323e-06 1.62633e-14)
(2.57332e-05 9.27059e-06 2.06284e-15)
(2.53211e-05 9.04285e-06 -1.30643e-15)
(2.48098e-05 8.793e-06 -9.60739e-16)
(2.43594e-05 8.60052e-06 1.37386e-15)
(2.41931e-05 8.50484e-06 3.34059e-17)
(2.44253e-05 8.47615e-06 -5.7657e-16)
(2.51541e-05 8.5855e-06 -4.82825e-16)
(2.65696e-05 8.90365e-06 -7.21186e-18)
(2.87252e-05 9.81878e-06 -1.66016e-15)
(3.20541e-05 1.17826e-05 -5.97875e-15)
(3.75889e-05 1.61615e-05 -5.35564e-15)
(4.45705e-05 2.41217e-05 -7.04204e-15)
(2.82916e-05 -2.87169e-07 -6.84267e-15)
(2.86869e-05 1.11392e-06 1.57113e-15)
(3.07855e-05 2.78285e-06 2.10456e-14)
(2.82737e-05 5.56234e-06 -8.36204e-15)
(2.85076e-05 7.25908e-06 -7.52949e-16)
(2.82559e-05 8.42583e-06 8.66784e-15)
(2.79798e-05 9.05483e-06 -1.70576e-15)
(2.7197e-05 9.26052e-06 -4.536e-15)
(2.64985e-05 9.21349e-06 2.17008e-15)
(2.59132e-05 9.12872e-06 -7.98691e-16)
(2.54803e-05 9.09587e-06 -5.80596e-15)
(2.49171e-05 9.051e-06 2.83946e-15)
(2.44126e-05 9.05229e-06 -3.32286e-16)
(2.41969e-05 9.10799e-06 -6.63195e-16)
(2.43594e-05 9.23446e-06 -1.35985e-16)
(2.49929e-05 9.51178e-06 -1.76086e-16)
(2.62335e-05 1.00246e-05 -1.08847e-15)
(2.81048e-05 1.11272e-05 2.7662e-15)
(3.09547e-05 1.3195e-05 1.09587e-14)
(3.57272e-05 1.75455e-05 8.81781e-15)
(4.19563e-05 2.54346e-05 5.98605e-15)
(2.75365e-05 5.93716e-07 2.11751e-14)
(2.61968e-05 2.10124e-06 -1.00558e-15)
(2.874e-05 3.47818e-06 -1.74747e-14)
(2.66642e-05 5.73496e-06 1.16325e-14)
(2.72695e-05 7.23172e-06 1.87874e-14)
(2.76267e-05 8.00967e-06 -8.30521e-15)
(2.76265e-05 8.63232e-06 3.49509e-15)
(2.72467e-05 8.69606e-06 -8.36808e-16)
(2.65683e-05 8.80683e-06 -1.86027e-14)
(2.59886e-05 8.89571e-06 4.53447e-15)
(2.55005e-05 9.06146e-06 5.09541e-15)
(2.4894e-05 9.22953e-06 -8.00846e-16)
(2.43543e-05 9.40215e-06 3.20709e-16)
(2.40963e-05 9.62666e-06 -9.7617e-16)
(2.41864e-05 9.9154e-06 -1.23007e-15)
(2.47132e-05 1.03667e-05 2.87755e-16)
(2.57665e-05 1.10769e-05 -4.77524e-16)
(2.73514e-05 1.2368e-05 1.85479e-15)
(2.97219e-05 1.45553e-05 -4.54003e-15)
(3.37085e-05 1.88931e-05 -7.75744e-15)
(3.91778e-05 2.67076e-05 4.85132e-17)
(2.6829e-05 1.03964e-06 6.27801e-15)
(2.2914e-05 3.27545e-06 2.18317e-14)
(2.7524e-05 3.52202e-06 -1.66379e-15)
(2.53408e-05 5.65466e-06 -2.82273e-14)
(2.61269e-05 6.4244e-06 -1.30844e-14)