/*--------------------------------*- C++ -*----------------------------------*\
| =========                 |                                                 |
| \\      /  F ield         | OpenFOAM: The Open Source CFD Toolbox           |
|  \\    /   O peration     | Version:  2306                                  |
|   \\  /    A nd           | Website:  www.openfoam.com                      |
|    \\/     M anipulation  |                                                 |
\*---------------------------------------------------------------------------*/
FoamFile
{
    version     2.0;
    format      ascii;
    arch        "LSB;label=32;scalar=64";
    class       volScalarField;
    location    "475";
    object      magR;
}
// * * * * * * * * * * * * * * * * * * * * * * * * * * * * * * * * * * * * * //

dimensions      [0 2 -2 0 0 0 0];

internalField   nonuniform List<scalar> 
1340
(
8.17022e-07
1.6082e-06
1.82046e-07
7.4807e-07
8.14491e-07
1.61055e-06
2.01322e-07
3.23698e-07
1.78385e-07
7.50888e-07
8.1476e-07
1.61128e-06
3.72366e-07
3.27808e-07
3.0755e-07
2.11163e-07
3.31197e-07
1.76226e-07
7.53929e-07
8.16984e-07
1.61117e-06
5.32374e-07
4.93408e-07
4.61529e-07
4.31857e-07
4.00931e-07
3.71794e-07
3.2942e-07
3.11118e-07
2.21717e-07
3.38417e-07
1.75368e-07
7.57088e-07
8.20517e-07
1.61069e-06
7.47083e-07
7.00405e-07
6.53802e-07
6.08381e-07
5.6384e-07
5.21955e-07
4.8562e-07
4.55933e-07
4.28108e-07
3.98965e-07
3.71401e-07
3.31412e-07
3.15118e-07
2.3283e-07
3.45189e-07
1.75694e-07
7.60094e-07
8.24828e-07
1.60995e-06
1.01674e-06
9.73156e-07
9.29753e-07
8.86823e-07
8.44465e-07
8.02533e-07
7.6061e-07
7.18337e-07
6.75684e-07
6.33013e-07
5.91349e-07
5.50254e-07
5.1145e-07
4.7782e-07
4.50341e-07
4.24385e-07
3.97089e-07
3.7113e-07
3.33734e-07
3.19483e-07
2.44385e-07
3.51397e-07
1.77107e-07
7.62888e-07
8.29493e-07
1.60867e-06
1.37063e-06
1.3392e-06
1.30692e-06
1.27388e-06
1.24021e-06
1.20596e-06
1.17125e-06
1.13614e-06
1.10066e-06
1.06474e-06
1.02831e-06
9.91309e-07
9.53798e-07
9.15917e-07
8.77946e-07
8.40145e-07
8.02594e-07
7.65175e-07
7.27538e-07
6.89415e-07
6.5081e-07
6.12094e-07
5.74209e-07
5.36585e-07
5.00923e-07
4.70041e-07
4.44765e-07
4.2069e-07
3.95288e-07
3.70969e-07
3.36369e-07
3.24174e-07
2.56292e-07
3.5692e-07
1.7953e-07
7.65368e-07
8.33905e-07
1.60721e-06
1.34576e-06
1.4018e-06
1.238e-06
1.26845e-06
1.26995e-06
1.32781e-06
1.3587e-06
1.38913e-06
1.41567e-06
1.44075e-06
1.4638e-06
1.48471e-06
1.50294e-06
1.5186e-06
1.53223e-06
1.54307e-06
1.55151e-06
1.55762e-06
1.5615e-06
1.5633e-06
1.56306e-06
1.56092e-06
1.55711e-06
1.55174e-06
1.54492e-06
1.53675e-06
1.52741e-06
1.51702e-06
1.50555e-06
1.49321e-06
1.47996e-06
1.46588e-06
1.45102e-06
1.43535e-06
1.41894e-06
1.40177e-06
1.38379e-06
1.36508e-06
1.3455e-06
1.32509e-06
1.30388e-06
1.28175e-06
1.25873e-06
1.23477e-06
1.20997e-06
1.18426e-06
1.15774e-06
1.13052e-06
1.10262e-06
1.07416e-06
1.04523e-06
1.01579e-06
9.85808e-07
9.55224e-07
9.23947e-07
8.92023e-07
8.59553e-07
8.26766e-07
7.93879e-07
7.60972e-07
7.27953e-07
6.94532e-07
6.60516e-07
6.25946e-07
5.9118e-07
5.57056e-07
5.22904e-07
4.90423e-07
4.62307e-07
4.39209e-07
4.17015e-07
3.93542e-07
3.70898e-07
3.39302e-07
3.29169e-07
2.68473e-07
3.61692e-07
1.82863e-07
7.67266e-07
8.37826e-07
1.60582e-06
1.38282e-06
1.10325e-06
1.00994e-06
1.10197e-06
1.12269e-06
1.15907e-06
1.18114e-06
1.20549e-06
1.22725e-06
1.24789e-06
1.26671e-06
1.28364e-06
1.29858e-06
1.31154e-06
1.32273e-06
1.33172e-06
1.33885e-06
1.34426e-06
1.34784e-06
1.34975e-06
1.35015e-06
1.34908e-06
1.34669e-06
1.34312e-06
1.33841e-06
1.3327e-06
1.32616e-06
1.31872e-06
1.31053e-06
1.30166e-06
1.2921e-06
1.28193e-06
1.27113e-06
1.25976e-06
1.24779e-06
1.23519e-06
1.22199e-06
1.20815e-06
1.19361e-06
1.17835e-06
1.16235e-06
1.14558e-06
1.12795e-06
1.10946e-06
1.09017e-06
1.06999e-06
1.04902e-06
1.02733e-06
1.00495e-06
9.8201e-07
9.58551e-07
9.34553e-07
9.09969e-07
8.84743e-07
8.58752e-07
8.32015e-07
8.04593e-07
7.76674e-07
7.4844e-07
7.19958e-07
6.91173e-07
6.61858e-07
6.31873e-07
6.01277e-07
5.70408e-07
5.4e-07
5.09287e-07
4.8e-07
4.54635e-07
4.33666e-07
4.13351e-07
3.91829e-07
3.70913e-07
3.42507e-07
3.34442e-07
2.80824e-07
3.65668e-07
1.86878e-07
7.68921e-07
8.40798e-07
1.60508e-06
1.05616e-06
9.30997e-07
8.96667e-07
9.79779e-07
9.89378e-07
1.01464e-06
1.03262e-06
1.05189e-06
1.06939e-06
1.08574e-06
1.1004e-06
1.11389e-06
1.12572e-06
1.13599e-06
1.14477e-06
1.15202e-06
1.15774e-06
1.16221e-06
1.16526e-06
1.16693e-06
1.16756e-06
1.16708e-06
1.16561e-06
1.16313e-06
1.15994e-06
1.15601e-06
1.15137e-06
1.14612e-06
1.14034e-06
1.13404e-06
1.12726e-06
1.12004e-06
1.11236e-06
1.10425e-06
1.09572e-06
1.08671e-06
1.07723e-06
1.06725e-06
1.05672e-06
1.04557e-06
1.0338e-06
1.02136e-06
1.00813e-06
9.9419e-07
9.79455e-07
9.63896e-07
9.47645e-07
9.3068e-07
9.13096e-07
8.94974e-07
8.76344e-07
8.572e-07
8.37494e-07
8.17123e-07
7.95952e-07
7.73987e-07
7.5124e-07
7.27839e-07
7.0396e-07
6.79678e-07
6.54948e-07
6.29602e-07
6.03538e-07
5.76849e-07
5.49808e-07
5.23031e-07
4.95725e-07
4.6964e-07
4.46985e-07
4.28084e-07
4.09662e-07
3.90112e-07
3.70988e-07
3.45984e-07
3.39993e-07
2.93253e-07
3.68875e-07
1.91556e-07
7.69299e-07
8.43505e-07
1.60549e-06
9.00196e-07
8.32729e-07
8.06942e-07
8.67407e-07
8.72354e-07
8.92211e-07
9.06443e-07
9.21374e-07
9.34824e-07
9.47399e-07
9.58711e-07
9.6905e-07
9.78154e-07
9.86064e-07
9.92845e-07
9.98519e-07
1.00299e-06
1.00654e-06
1.00902e-06
1.0105e-06
1.0112e-06
1.01109e-06
1.0102e-06
1.00862e-06
1.00659e-06
1.00388e-06
1.00072e-06
9.97196e-07
9.93209e-07
9.88896e-07
9.84227e-07
9.79296e-07
9.73985e-07
9.68424e-07
9.6254e-07
9.56301e-07
9.49724e-07
9.42755e-07
9.3533e-07
9.27439e-07
9.19015e-07
9.09998e-07
9.00343e-07
8.90036e-07
8.78997e-07
8.67282e-07
8.54919e-07
8.41925e-07
8.28408e-07
8.14408e-07
7.99969e-07
7.85067e-07
7.69663e-07
7.53572e-07
7.36715e-07
7.19041e-07
7.00467e-07
6.8119e-07
6.61321e-07
6.40904e-07
6.19982e-07
5.9841e-07
5.76079e-07
5.53133e-07
5.29768e-07
5.06477e-07
4.82481e-07
4.5952e-07
4.39497e-07
4.22582e-07
4.06024e-07
3.88435e-07
3.7118e-07
3.49727e-07
3.45817e-07
3.05478e-07
3.71411e-07
1.95972e-07
7.68932e-07
8.44656e-07
1.60937e-06
7.97256e-07
7.38125e-07
7.13228e-07
7.5957e-07
7.63132e-07
7.78519e-07
7.89272e-07
8.00542e-07
8.10489e-07
8.20033e-07
8.2856e-07
8.36275e-07
8.43219e-07
8.49136e-07
8.54315e-07
8.58749e-07
8.62229e-07
8.64972e-07
8.6706e-07
8.68415e-07
8.69203e-07
8.69379e-07
8.6902e-07
8.68261e-07
8.67059e-07
8.65437e-07
8.63634e-07
8.6147e-07
8.58972e-07
8.56256e-07
8.53479e-07
8.5039e-07
8.47155e-07
8.43609e-07
8.39919e-07
8.36196e-07
8.31924e-07
8.2746e-07
8.22708e-07
8.17592e-07
8.11937e-07
8.05893e-07
7.99272e-07
7.92005e-07
7.84268e-07
7.75824e-07
7.66857e-07
7.57411e-07
7.47441e-07
7.37165e-07
7.26485e-07
7.15402e-07
7.03932e-07
6.91768e-07
6.78832e-07
6.65139e-07
6.50468e-07
6.35002e-07
6.18955e-07
6.02222e-07
5.84955e-07
5.67096e-07
5.48442e-07
5.29182e-07
5.09465e-07
4.89666e-07
4.68969e-07
4.49168e-07
4.31777e-07
4.16868e-07
4.02202e-07
3.86647e-07
3.71458e-07
3.53785e-07
3.52098e-07
3.17866e-07
3.73246e-07
2.04246e-07
7.64159e-07
8.49073e-07
1.61363e-06
6.82228e-07
6.31597e-07
6.09282e-07
6.44915e-07
6.46307e-07
6.57605e-07
6.64727e-07
6.71869e-07
6.79412e-07
6.85452e-07
6.91155e-07
6.9698e-07
7.01516e-07
7.05418e-07
7.09367e-07
7.12754e-07
7.14842e-07
7.17276e-07
7.18967e-07
7.20197e-07
7.21244e-07
7.21528e-07
7.21931e-07
7.22043e-07
7.2161e-07
7.21202e-07
7.2066e-07
7.19896e-07
7.19015e-07
7.17813e-07
7.16917e-07
7.1583e-07
7.14509e-07
7.12909e-07
7.11676e-07
7.10205e-07
7.08273e-07
7.06257e-07
7.04147e-07
7.0173e-07
6.98775e-07
6.95735e-07
6.91891e-07
6.87744e-07
6.83286e-07
6.77978e-07
6.72467e-07
6.66622e-07
6.60188e-07
6.53748e-07
6.46938e-07
6.39739e-07
6.32398e-07
6.24286e-07
6.1541e-07
6.05842e-07
5.95328e-07
5.83862e-07
5.71867e-07
5.59186e-07
5.45935e-07
5.32154e-07
5.17594e-07
5.02465e-07
4.86809e-07
4.70861e-07
4.53868e-07
4.37635e-07
4.23129e-07
4.10407e-07
3.979e-07
3.8471e-07
3.71976e-07
3.58861e-07
3.59181e-07
3.32438e-07
3.71744e-07
2.20323e-07
7.49683e-07
8.4123e-07
1.55937e-06
5.60022e-07
5.24421e-07
5.07916e-07
5.32047e-07
5.32148e-07
5.39527e-07
5.43209e-07
5.47542e-07
5.52327e-07
5.55568e-07
5.5922e-07
5.62948e-07
5.65503e-07
5.67886e-07
5.70795e-07
5.72949e-07
5.74214e-07
5.76342e-07
5.77407e-07
5.78762e-07
5.79988e-07
5.80263e-07
5.81288e-07
5.82204e-07
5.82358e-07
5.82966e-07
5.83308e-07
5.83714e-07
5.84263e-07
5.84449e-07
5.84834e-07
5.8542e-07
5.85621e-07
5.85814e-07
5.86504e-07
5.86674e-07
5.86801e-07
5.86886e-07
5.86902e-07
5.8659e-07
5.86086e-07
5.85311e-07
5.83986e-07
5.8268e-07
5.80751e-07
5.78451e-07
5.76096e-07
5.73423e-07
5.70452e-07
5.67535e-07
5.64481e-07
5.61079e-07
5.57607e-07
5.53463e-07
5.48617e-07
5.43049e-07
5.36597e-07
5.2926e-07
5.21402e-07
5.12944e-07
5.03971e-07
4.9449e-07
4.84337e-07
4.73614e-07
4.62253e-07
4.50423e-07
4.3747e-07
4.25056e-07
4.13606e-07
4.03258e-07
3.93154e-07
3.82667e-07
3.72959e-07
3.65001e-07
3.67528e-07
3.47988e-07
3.69118e-07
2.37893e-07
7.49027e-07
8.34317e-07
1.55714e-06
4.57254e-07
4.31041e-07
4.17626e-07
4.34687e-07
4.34316e-07
4.38214e-07
4.40526e-07
4.4374e-07
4.45379e-07
4.4784e-07
4.50436e-07
4.52173e-07
4.53805e-07
4.55579e-07
4.57616e-07
4.58649e-07
4.60148e-07
4.61605e-07
4.62356e-07
4.63901e-07
4.65136e-07
4.65672e-07
4.6697e-07
4.68138e-07
4.68784e-07
4.70221e-07
4.7112e-07
4.72138e-07
4.73553e-07
4.7471e-07
4.75866e-07
4.77484e-07
4.78698e-07
4.80072e-07
4.81824e-07
4.83136e-07
4.84554e-07
4.86038e-07
4.87353e-07
4.88439e-07
4.89553e-07
4.90266e-07
4.90871e-07
4.91371e-07
4.91325e-07
4.91343e-07
4.91307e-07
4.91071e-07
4.90857e-07
4.90677e-07
4.90606e-07
4.90289e-07
4.89802e-07
4.88944e-07
4.8733e-07
4.85069e-07
4.82053e-07
4.7825e-07
4.7406e-07
4.69359e-07
4.64228e-07
4.58711e-07
4.52601e-07
4.45883e-07
4.38532e-07
4.30561e-07
4.21451e-07
4.12667e-07
4.04125e-07
3.96127e-07
3.88509e-07
3.80856e-07
3.74563e-07
3.71804e-07
3.76804e-07
3.62815e-07
3.68053e-07
2.55417e-07
7.55998e-07
8.12757e-07
1.55666e-06
3.72734e-07
3.33407e-07
3.50917e-07
3.37967e-07
3.52752e-07
3.50925e-07
3.53287e-07
3.55259e-07
3.57073e-07
3.57969e-07
3.5959e-07
3.61392e-07
3.62635e-07
3.63666e-07
3.65178e-07
3.66765e-07
3.67421e-07
3.69022e-07
3.70232e-07
3.71212e-07
3.72799e-07
3.73869e-07
3.7516e-07
3.76489e-07
3.77892e-07
3.79274e-07
3.80947e-07
3.82482e-07
3.83996e-07
3.86003e-07
3.87818e-07
3.89585e-07
3.91922e-07
3.93818e-07
3.96011e-07
3.98494e-07
4.0053e-07
4.02874e-07
4.05234e-07
4.07367e-07
4.09532e-07
4.11601e-07
4.13489e-07
4.1536e-07
4.1701e-07
4.18593e-07
4.20186e-07
4.21812e-07
4.235e-07
4.25296e-07
4.27183e-07
4.29262e-07
4.31202e-07
4.32937e-07
4.34442e-07
4.35212e-07
4.35454e-07
4.351e-07
4.34083e-07
4.32825e-07
4.31221e-07
4.2927e-07
4.27053e-07
4.24312e-07
4.20984e-07
4.17059e-07
4.12438e-07
4.06717e-07
4.01131e-07
3.95189e-07
3.89403e-07
3.84245e-07
3.79473e-07
3.76844e-07
3.79127e-07
3.86513e-07
3.76319e-07
3.68218e-07
2.76867e-07
7.66877e-07
7.85114e-07
1.55578e-06
3.01596e-07
2.68931e-07
2.82327e-07
2.7096e-07
2.83592e-07
2.81487e-07
2.83593e-07
2.84379e-07
2.85822e-07
2.86885e-07
2.87583e-07
2.89011e-07
2.90071e-07
2.91253e-07
2.92386e-07
2.93547e-07
2.94539e-07
2.96028e-07
2.9736e-07
2.98495e-07
2.99908e-07
3.01224e-07
3.03071e-07
3.04411e-07
3.06154e-07
3.07907e-07
3.09719e-07
3.119e-07
3.13742e-07
3.16083e-07
3.18311e-07
3.20715e-07
3.23367e-07
3.25797e-07
3.28544e-07
3.31453e-07
3.3417e-07
3.36973e-07
3.39981e-07
3.42795e-07
3.45658e-07
3.48529e-07
3.51228e-07
3.5404e-07
3.56766e-07
3.59564e-07
3.62412e-07
3.65356e-07
3.68567e-07
3.71929e-07
3.75358e-07
3.79022e-07
3.82624e-07
3.85979e-07
3.89212e-07
3.91785e-07
3.93917e-07
3.95646e-07
3.96893e-07
3.98009e-07
3.98912e-07
3.99589e-07
4.0005e-07
4.00104e-07
3.99606e-07
3.9854e-07
3.96796e-07
3.94026e-07
3.91218e-07
3.8759e-07
3.83896e-07
3.81107e-07
3.7921e-07
3.80356e-07
3.87362e-07
3.96756e-07
3.88869e-07
3.7054e-07
3.05748e-07
7.81793e-07
7.52779e-07
1.55608e-06
2.40794e-07
2.14478e-07
2.24164e-07
2.14783e-07
2.25174e-07
2.23718e-07
2.25321e-07
2.26085e-07
2.27545e-07
2.2802e-07
2.29041e-07
2.305e-07
2.31339e-07
2.3265e-07
2.33876e-07
2.34889e-07
2.36367e-07
2.37804e-07
2.39316e-07
2.40563e-07
2.42216e-07
2.44031e-07
2.45682e-07
2.47494e-07
2.49579e-07
2.51359e-07
2.53669e-07
2.56084e-07
2.58119e-07
2.6078e-07
2.63266e-07
2.66043e-07
2.68887e-07
2.7156e-07
2.74644e-07
2.7788e-07
2.80781e-07
2.83971e-07
2.87335e-07
2.9049e-07
2.93751e-07
2.97211e-07
3.00408e-07
3.03807e-07
3.0741e-07
3.10928e-07
3.14718e-07
3.18615e-07
3.22849e-07
3.27221e-07
3.31684e-07
3.36439e-07
3.41066e-07
3.45536e-07
3.49954e-07
3.53838e-07
3.5741e-07
3.60775e-07
3.63854e-07
3.66897e-07
3.69809e-07
3.72637e-07
3.75321e-07
3.77636e-07
3.7951e-07
3.80858e-07
3.81562e-07
3.81338e-07
3.80875e-07
3.79293e-07
3.77641e-07
3.77253e-07
3.78314e-07
3.83339e-07
3.94561e-07
4.05037e-07
3.97675e-07
3.72596e-07
3.39136e-07
8.00356e-07
7.13007e-07
1.56067e-06
2.01896e-07
1.80974e-07
1.89102e-07
1.80947e-07
1.89868e-07
1.88545e-07
1.8934e-07
1.90517e-07
1.91402e-07
1.91717e-07
1.92793e-07
1.93906e-07
1.94663e-07
1.95587e-07
1.9684e-07
1.97736e-07
1.99154e-07
2.00468e-07
2.01588e-07
2.0292e-07
2.04603e-07
2.063e-07
2.07662e-07
2.09382e-07
2.11638e-07
2.13231e-07
2.15404e-07
2.17728e-07
2.19843e-07
2.22307e-07
2.24853e-07
2.27533e-07
2.30335e-07
2.33093e-07
2.36216e-07
2.39414e-07
2.42441e-07
2.4587e-07
2.49335e-07
2.52845e-07
2.56341e-07
2.60241e-07
2.63968e-07
2.67931e-07
2.72166e-07
2.76286e-07
2.80884e-07
2.85471e-07
2.90357e-07
2.95412e-07
3.00575e-07
3.05942e-07
3.1121e-07
3.16505e-07
3.21684e-07
3.26573e-07
3.31325e-07
3.35963e-07
3.40473e-07
3.45024e-07
3.49482e-07
3.53949e-07
3.58329e-07
3.62371e-07
3.6615e-07
3.69451e-07
3.72154e-07
3.74088e-07
3.75699e-07
3.76032e-07
3.76193e-07
3.77794e-07
3.81301e-07
3.89584e-07
4.03928e-07
4.14696e-07
4.07922e-07
3.8319e-07
3.88411e-07
8.29054e-07
6.75994e-07
1.58199e-06
1.64509e-07
1.46741e-07
1.53325e-07
1.46113e-07
1.55305e-07
1.53987e-07
1.55365e-07
1.56561e-07
1.56975e-07
1.57673e-07
1.59172e-07
1.60359e-07
1.61346e-07
1.62243e-07
1.63587e-07
1.65023e-07
1.66473e-07
1.67729e-07
1.68904e-07
1.70907e-07
1.72458e-07
1.74138e-07
1.75808e-07
1.77513e-07
1.79889e-07
1.81691e-07
1.83762e-07
1.85992e-07
1.88333e-07
1.90734e-07
1.93098e-07
1.95876e-07
1.98419e-07
2.01199e-07
2.04231e-07
2.07163e-07
2.10213e-07
2.13359e-07
2.16855e-07
2.20272e-07
2.23669e-07
2.27548e-07
2.3135e-07
2.3533e-07
2.39498e-07
2.43822e-07
2.48359e-07
2.52973e-07
2.57809e-07
2.62773e-07
2.67944e-07
2.73168e-07
2.78511e-07
2.83937e-07
2.89297e-07
2.94623e-07
2.99986e-07
3.05356e-07
3.10707e-07
3.16215e-07
3.21696e-07
3.27287e-07
3.32843e-07
3.38177e-07
3.43365e-07
3.48104e-07
3.52315e-07
3.55818e-07
3.5862e-07
3.60115e-07
3.62111e-07
3.66144e-07
3.72891e-07
3.85206e-07
4.02127e-07
4.10563e-07
4.00167e-07
3.77229e-07
4.20665e-07
8.46835e-07
6.13265e-07
1.61909e-06
1.73334e-07
1.61067e-07
1.65716e-07
1.60486e-07
1.65033e-07
1.64058e-07
1.65155e-07
1.65734e-07
1.65577e-07
1.66032e-07
1.67005e-07
1.67803e-07
1.68306e-07
1.68644e-07
1.69542e-07
1.70491e-07
1.71296e-07
1.72072e-07
1.72755e-07
1.74214e-07
1.75239e-07
1.76186e-07
1.77418e-07
1.78704e-07
1.80327e-07
1.81742e-07
1.83382e-07
1.85044e-07
1.86999e-07
1.89035e-07
1.91038e-07
1.93533e-07
1.95835e-07
1.98556e-07
2.0143e-07
2.04422e-07
2.07604e-07
2.10939e-07
2.14748e-07
2.18426e-07
2.22427e-07
2.26663e-07
2.30931e-07
2.3534e-07
2.39897e-07
2.44558e-07
2.49128e-07
2.53898e-07
2.58668e-07
2.63537e-07
2.68667e-07
2.73883e-07
2.79414e-07
2.85074e-07
2.90918e-07
2.96836e-07
3.0281e-07
3.08796e-07
3.14642e-07
3.20552e-07
3.26379e-07
3.32299e-07
3.38238e-07
3.44105e-07
3.49916e-07
3.55407e-07
3.6058e-07
3.65335e-07
3.69934e-07
3.73328e-07
3.7612e-07
3.80194e-07
3.865e-07
3.97905e-07
4.13271e-07
4.2019e-07
4.15158e-07
4.14287e-07
5.10574e-07
8.95248e-07
6.33995e-07
1.77977e-06
1.31637e-07
1.33189e-07
1.31647e-07
1.34668e-07
1.36065e-07
1.36545e-07
1.37341e-07
1.37918e-07
1.38806e-07
1.39747e-07
1.40326e-07
1.41248e-07
1.42176e-07
1.43149e-07
1.44098e-07
1.45019e-07
1.46148e-07
1.47215e-07
1.48309e-07
1.49546e-07
1.50669e-07
1.51988e-07
1.53225e-07
1.54558e-07
1.56008e-07
1.57497e-07
1.59008e-07
1.60536e-07
1.62267e-07
1.63945e-07
1.65757e-07
1.67664e-07
1.69562e-07
1.71683e-07
1.73785e-07
1.76071e-07
1.78403e-07
1.80839e-07
1.83409e-07
1.85945e-07
1.88661e-07
1.91361e-07
1.94068e-07
1.96777e-07
1.9955e-07
2.02248e-07
2.04959e-07
2.07802e-07
2.10699e-07
2.13848e-07
2.17208e-07
2.20852e-07
2.24822e-07
2.28973e-07
2.33407e-07
2.37974e-07
2.42747e-07
2.47652e-07
2.52672e-07
2.58014e-07
2.63527e-07
2.69327e-07
2.75286e-07
2.81319e-07
2.87356e-07
2.9308e-07
2.98473e-07
3.03275e-07
3.05991e-07
3.07105e-07
3.11105e-07
3.1942e-07
3.32403e-07
3.52136e-07
3.70583e-07
3.68276e-07
3.46871e-07
3.54141e-07
4.99956e-07
7.63735e-07
5.75805e-07
1.79265e-06
)
;

boundaryField
{
    inlet
    {
        type            calculated;
        value           nonuniform List<scalar> 
23
(
6.78295e-06
6.74894e-06
6.71594e-06
6.6839e-06
6.65214e-06
6.61991e-06
6.58629e-06
6.55058e-06
6.51185e-06
6.4693e-06
6.42179e-06
6.36972e-06
6.30992e-06
6.21614e-06
6.13776e-06
6.04256e-06
5.92426e-06
5.78016e-06
5.60693e-06
5.4038e-06
5.1622e-06
4.97833e-06
4.62616e-06
)
;
    }
    outlet
    {
        type            calculated;
        value           nonuniform List<scalar> 
82
(
1.04773e-07
1.04585e-07
1.06884e-07
1.08117e-07
1.09648e-07
1.10032e-07
1.1079e-07
1.11284e-07
1.12142e-07
1.13057e-07
1.13535e-07
1.14409e-07
1.15293e-07
1.16215e-07
1.17109e-07
1.17957e-07
1.19047e-07
1.20058e-07
1.21088e-07
1.22289e-07
1.23339e-07
1.24608e-07
1.25781e-07
1.27049e-07
1.28446e-07
1.2987e-07
1.31312e-07
1.32749e-07
1.34411e-07
1.35986e-07
1.37688e-07
1.39483e-07
1.41227e-07
1.43206e-07
1.45121e-07
1.47211e-07
1.49318e-07
1.51501e-07
1.53804e-07
1.56022e-07
1.58424e-07
1.60779e-07
1.63121e-07
1.65455e-07
1.67866e-07
1.702e-07
1.72559e-07
1.75094e-07
1.77697e-07
1.80589e-07
1.83696e-07
1.87078e-07
1.90764e-07
1.94573e-07
1.9863e-07
2.02793e-07
2.07191e-07
2.11798e-07
2.16638e-07
2.21974e-07
2.27617e-07
2.33652e-07
2.39888e-07
2.46186e-07
2.52464e-07
2.58353e-07
2.63749e-07
2.68217e-07
2.69986e-07
2.70199e-07
2.74368e-07
2.84029e-07
2.99818e-07
3.23607e-07
3.45135e-07
3.41096e-07
3.0944e-07
3.03267e-07
4.48031e-07
7.34272e-07
4.68517e-07
1.62421e-06
)
;
    }
    walls
    {
        type            calculated;
        value           nonuniform List<scalar> 0();
    }
    frontAndBack
    {
        type            empty;
    }
    procBoundary3to2
    {
        type            processor;
        value           nonuniform List<scalar> 
88
(
8.22948e-07
1.60519e-06
1.87196e-07
7.44923e-07
7.44923e-07
1.92304e-07
3.16022e-07
3.16022e-07
3.7322e-07
3.26659e-07
3.04515e-07
3.04515e-07
5.42728e-07
5.01216e-07
4.67175e-07
4.35683e-07
4.03041e-07
4.03041e-07
7.75441e-07
7.24789e-07
6.74324e-07
6.25197e-07
5.7726e-07
5.7726e-07
1.08024e-06
1.03076e-06
9.81736e-07
9.3353e-07
8.86256e-07
8.39742e-07
7.93503e-07
7.93503e-07
1.51654e-06
1.47722e-06
1.43719e-06
1.39659e-06
1.35548e-06
1.31404e-06
1.27233e-06
1.2304e-06
1.18832e-06
1.14595e-06
1.10326e-06
1.06017e-06
1.06017e-06
1.03811e-06
1.54737e-06
1.62711e-06
1.47801e-06
1.52435e-06
1.57182e-06
1.6116e-06
1.64511e-06
1.67492e-06
1.70158e-06
1.72647e-06
1.74804e-06
1.76639e-06
1.78198e-06
1.79427e-06
1.80375e-06
1.8102e-06
1.81371e-06
1.8147e-06
1.81311e-06
1.80919e-06
1.80311e-06
1.79493e-06
1.78498e-06
1.77345e-06
1.76024e-06
1.74568e-06
1.72988e-06
1.71287e-06
1.69473e-06
1.67549e-06
1.65534e-06
1.63415e-06
1.61196e-06
1.58896e-06
1.56491e-06
1.53999e-06
1.51413e-06
1.48727e-06
1.45954e-06
1.43085e-06
1.4012e-06
1.4012e-06
)
;
    }
    procBoundary3to6
    {
        type            processor;
        value           uniform 7.90277e-11;
    }
    procBoundary3to7
    {
        type            processor;
        value           nonuniform List<scalar> 
16
(
2.46888e-08
9.43249e-07
9.69394e-07
7.50987e-07
6.57895e-07
5.79971e-07
4.90678e-07
4.07609e-07
4.07609e-07
3.30088e-07
2.66855e-07
2.1259e-07
1.7915e-07
1.46353e-07
1.58007e-07
1.35258e-07
)
;
    }
}


// ************************************************************************* //
