/*--------------------------------*- C++ -*----------------------------------*\
| =========                 |                                                 |
| \\      /  F ield         | OpenFOAM: The Open Source CFD Toolbox           |
|  \\    /   O peration     | Version:  2306                                  |
|   \\  /    A nd           | Website:  www.openfoam.com                      |
|    \\/     M anipulation  |                                                 |
\*---------------------------------------------------------------------------*/
FoamFile
{
    version     2.0;
    format      ascii;
    arch        "LSB;label=32;scalar=64";
    class       volVectorField;
    location    "475";
    object      momentError;
}
// * * * * * * * * * * * * * * * * * * * * * * * * * * * * * * * * * * * * * //

dimensions      [0 1 -2 0 0 0 0];

internalField   nonuniform List<vector> 
1340
(
(1.93593e-07 -5.32295e-07 6.04177e-16)
(1.67366e-07 -6.82569e-07 -1.95205e-15)
(2.26199e-07 -5.92219e-07 5.9428e-15)
(2.26662e-07 -5.80429e-07 7.89902e-16)
(1.88626e-07 -5.11419e-07 1.19894e-15)
(2.54009e-07 -6.54115e-07 2.7942e-15)
(2.41009e-07 -6.87722e-07 9.75797e-17)
(2.38149e-07 -6.08291e-07 6.32711e-16)
(2.38611e-07 -5.70547e-07 7.02407e-16)
(2.41739e-07 -5.68454e-07 -3.9252e-16)
(1.7499e-07 -6.13928e-07 -5.39262e-16)
(2.60701e-07 -6.51692e-07 3.05654e-15)
(3.69678e-07 -1.07869e-06 -1.32701e-15)
(3.18576e-07 -9.30764e-07 2.76906e-15)
(2.62727e-07 -8.15478e-07 8.46652e-18)
(2.35376e-07 -6.6311e-07 1.68361e-18)
(2.68093e-07 -6.05077e-07 1.20545e-15)
(2.52462e-07 -6.36118e-07 -4.17098e-15)
(2.43696e-07 -6.0349e-07 -2.20927e-15)
(1.95885e-07 -5.69833e-07 1.56423e-17)
(1.99312e-07 -6.41562e-07 -5.43761e-15)
(7.3186e-07 -1.67998e-06 2.16818e-16)
(6.52693e-07 -1.49794e-06 -2.65772e-16)
(5.81389e-07 -1.39636e-06 1.83281e-16)
(5.13195e-07 -1.31285e-06 1.12155e-15)
(4.37929e-07 -1.19358e-06 -4.1213e-16)
(3.73782e-07 -1.01703e-06 2.70045e-15)
(3.23429e-07 -8.81032e-07 -8.21308e-16)
(2.82849e-07 -7.89891e-07 -1.39445e-15)
(2.49658e-07 -7.4359e-07 -1.75778e-17)
(2.81115e-07 -6.49268e-07 -1.83122e-16)
(2.45041e-07 -5.8457e-07 2.71574e-15)
(2.28648e-07 -5.76133e-07 1.51725e-15)
(1.89165e-07 -5.76202e-07 3.03891e-18)
(1.76626e-07 -6.24574e-07 4.39401e-16)
(1.83818e-06 -1.76197e-06 -9.60057e-16)
(1.58837e-06 -1.80687e-06 2.21602e-16)
(1.32668e-06 -1.80198e-06 3.47353e-16)
(1.1356e-06 -1.79809e-06 1.11301e-15)
(9.47155e-07 -1.7208e-06 1.02628e-15)
(8.01902e-07 -1.54867e-06 -3.98597e-16)
(6.95733e-07 -1.39811e-06 -6.26356e-16)
(6.11061e-07 -1.30046e-06 -5.6674e-16)
(5.31134e-07 -1.20661e-06 1.68754e-15)
(4.65062e-07 -1.14253e-06 -1.11343e-16)
(4.24256e-07 -1.09852e-06 -6.81548e-16)
(3.68806e-07 -9.47142e-07 8.58158e-16)
(3.17011e-07 -8.11328e-07 -6.31143e-16)
(2.76571e-07 -6.85333e-07 1.51701e-17)
(2.63928e-07 -6.18577e-07 -1.63044e-16)
(2.47649e-07 -5.83071e-07 6.20619e-16)
(2.21758e-07 -5.74112e-07 7.21119e-16)
(1.83403e-07 -5.66695e-07 2.62398e-17)
(1.51819e-07 -6.04676e-07 -2.31074e-16)
(4.07837e-06 -1.34747e-06 4.63403e-16)
(3.73984e-06 -1.40847e-06 8.07158e-16)
(3.42713e-06 -1.3955e-06 9.94069e-16)
(3.13504e-06 -1.35395e-06 -2.56756e-16)
(2.84742e-06 -1.2826e-06 7.71618e-16)
(2.59846e-06 -1.29739e-06 -7.49312e-16)
(2.30288e-06 -1.35132e-06 -2.28971e-15)
(2.01636e-06 -1.34588e-06 -1.15913e-15)
(1.71527e-06 -1.48886e-06 6.27323e-16)
(1.47304e-06 -1.52273e-06 1.01966e-16)
(1.24446e-06 -1.52929e-06 1.45314e-15)
(1.07411e-06 -1.55928e-06 -2.24408e-16)
(9.52291e-07 -1.60119e-06 -5.2147e-17)
(8.21342e-07 -1.48808e-06 8.048e-17)
(7.20811e-07 -1.39584e-06 -5.61819e-17)
(6.21668e-07 -1.30594e-06 -5.3995e-16)
(5.37098e-07 -1.16317e-06 1.07562e-15)
(4.50611e-07 -9.78632e-07 -9.69777e-16)
(3.88039e-07 -8.52663e-07 1.2337e-16)
(3.3543e-07 -7.49129e-07 1.72682e-15)
(2.9623e-07 -6.72132e-07 -3.73563e-17)
(2.72692e-07 -6.0808e-07 1.70588e-16)
(2.47964e-07 -5.68403e-07 -1.40742e-15)
(2.16367e-07 -5.65189e-07 -1.67632e-15)
(1.74877e-07 -5.57926e-07 -2.11107e-17)
(1.34549e-07 -5.82035e-07 6.30173e-16)
(7.61904e-06 1.31716e-06 -2.3941e-16)
(7.35878e-06 1.06277e-06 2.68111e-16)
(7.11135e-06 8.83555e-07 -1.10561e-16)
(6.83473e-06 7.05446e-07 -2.15841e-16)
(6.55837e-06 5.31551e-07 7.03259e-16)
(6.25635e-06 3.51069e-07 -5.63917e-16)
(5.95427e-06 1.68995e-07 9.91816e-17)
(5.63192e-06 -1.81492e-08 6.16017e-16)
(5.31035e-06 -1.97468e-07 -6.14679e-16)
(4.9649e-06 -3.7536e-07 -1.85811e-15)
(4.68867e-06 -5.63895e-07 3.37767e-17)
(4.43213e-06 -7.96962e-07 -3.54425e-16)
(3.91077e-06 -8.15777e-07 3.28142e-16)
(3.58831e-06 -9.07872e-07 3.45e-16)
(3.26515e-06 -9.69404e-07 -1.00426e-16)
(3.01192e-06 -9.37697e-07 -2.2343e-16)
(2.74231e-06 -9.49198e-07 7.12579e-16)
(2.52935e-06 -9.18267e-07 -2.74344e-16)
(2.35011e-06 -1.04316e-06 -4.00471e-16)
(2.28331e-06 -1.38537e-06 3.30263e-16)
(1.99165e-06 -1.44374e-06 -1.00442e-15)
(1.72441e-06 -1.5217e-06 6.39794e-16)
(1.47704e-06 -1.55905e-06 -3.79383e-16)
(1.24529e-06 -1.49074e-06 -5.21307e-16)
(1.00984e-06 -1.31581e-06 2.87799e-16)
(8.8073e-07 -1.23361e-06 2.0157e-16)
(7.67504e-07 -1.17804e-06 4.20729e-16)
(6.71481e-07 -1.11134e-06 -4.56518e-16)
(5.76587e-07 -1.02812e-06 -7.8118e-16)
(4.96031e-07 -9.22897e-07 2.68937e-16)
(4.22914e-07 -8.0859e-07 4.30352e-17)
(3.62163e-07 -7.13902e-07 -1.72225e-16)
(3.15509e-07 -6.39601e-07 1.24171e-17)
(2.80182e-07 -5.89344e-07 -1.38834e-16)
(2.48759e-07 -5.57423e-07 2.83384e-15)
(2.11242e-07 -5.53094e-07 -1.33357e-16)
(1.67119e-07 -5.42133e-07 2.68172e-16)
(1.19782e-07 -5.5857e-07 -9.54525e-17)
(-6.38476e-06 1.74988e-05 -7.58892e-17)
(-2.92558e-06 1.96589e-05 -2.39067e-17)
(2.50265e-07 1.8761e-05 -2.76964e-18)
(3.15303e-06 1.79088e-05 -2.61454e-17)
(5.89455e-06 1.70393e-05 -1.17637e-17)
(8.42711e-06 1.62023e-05 -8.89276e-18)
(1.07134e-05 1.53685e-05 2.48382e-17)
(1.27004e-05 1.45149e-05 6.72e-17)
(1.44184e-05 1.36747e-05 -2.89406e-17)
(1.5829e-05 1.2864e-05 -5.41056e-17)
(1.69762e-05 1.21045e-05 2.53284e-17)
(1.78339e-05 1.13795e-05 -5.02816e-17)
(1.84625e-05 1.06959e-05 -6.09803e-17)
(1.88419e-05 1.00454e-05 -5.36781e-17)
(1.90409e-05 9.43855e-06 -1.081e-16)
(1.90388e-05 8.8806e-06 -1.02428e-17)
(1.89088e-05 8.36435e-06 -8.98226e-17)
(1.86262e-05 7.89244e-06 -5.33861e-17)
(1.82668e-05 7.4534e-06 -1.20516e-16)
(1.77973e-05 7.0621e-06 -1.00084e-17)
(1.72951e-05 6.70666e-06 1.40504e-16)
(1.6717e-05 6.37982e-06 1.41573e-16)
(1.61392e-05 6.06453e-06 -8.45729e-17)
(1.55113e-05 5.78409e-06 5.85496e-17)
(1.49098e-05 5.52885e-06 1.26186e-16)
(1.42745e-05 5.28622e-06 1.14902e-17)
(1.3681e-05 5.04107e-06 -1.07145e-16)
(1.30667e-05 4.81462e-06 -7.39745e-18)
(1.25059e-05 4.61414e-06 2.56448e-17)
(1.19344e-05 4.42765e-06 -1.19007e-17)
(1.1421e-05 4.2358e-06 -9.52144e-17)
(1.09081e-05 4.0628e-06 8.12986e-17)
(1.0457e-05 3.90977e-06 -2.40956e-16)
(1.00069e-05 3.72952e-06 -9.33839e-17)
(9.61986e-06 3.57552e-06 1.70035e-16)
(9.24237e-06 3.41347e-06 3.12994e-17)
(8.91662e-06 3.25927e-06 2.10376e-17)
(8.60188e-06 3.09175e-06 -3.25512e-17)
(8.31771e-06 2.93848e-06 4.52523e-17)
(8.05485e-06 2.80464e-06 2.55538e-16)
(7.7487e-06 2.62986e-06 -9.47033e-17)
(7.67936e-06 2.60251e-06 2.14517e-18)
(7.9523e-06 2.30254e-06 1.81471e-17)
(7.19349e-06 1.77402e-06 -1.50997e-16)
(6.80279e-06 1.52765e-06 7.08089e-16)
(6.50432e-06 1.36624e-06 1.44934e-17)
(6.19748e-06 1.20214e-06 -6.57196e-16)
(5.9157e-06 1.03114e-06 5.98735e-16)
(5.61895e-06 8.54905e-07 3.82694e-16)
(5.34916e-06 6.79069e-07 -7.98501e-17)
(5.05698e-06 4.96299e-07 9.91127e-18)
(4.79153e-06 3.16172e-07 -6.37459e-16)
(4.50448e-06 1.42401e-07 -1.0041e-15)
(4.19898e-06 -1.91318e-08 -6.10042e-17)
(4.08814e-06 -2.10088e-07 -2.14372e-16)
(4.23753e-06 -6.25475e-07 3.17205e-16)
(3.91583e-06 -7.45928e-07 -7.38465e-17)
(3.60252e-06 -8.35392e-07 -1.43816e-15)
(3.29463e-06 -8.98504e-07 -4.97839e-17)
(3.04928e-06 -9.05137e-07 4.51483e-16)
(2.77117e-06 -9.47998e-07 2.13327e-16)
(2.54404e-06 -9.34772e-07 5.01242e-16)
(2.2375e-06 -9.0215e-07 4.15957e-16)
(2.0211e-06 -9.9677e-07 6.61478e-16)
(1.78369e-06 -1.09174e-06 1.12117e-15)
(1.54241e-06 -1.16121e-06 2.59625e-17)
(1.31007e-06 -1.16867e-06 1.34366e-16)
(1.10451e-06 -1.14442e-06 -1.80602e-16)
(9.62361e-07 -1.08572e-06 -1.64914e-16)
(8.49828e-07 -1.05217e-06 8.42911e-16)
(7.44375e-07 -1.01546e-06 -6.83903e-16)
(6.37314e-07 -9.37118e-07 -4.3027e-17)
(5.38365e-07 -8.39194e-07 -5.80651e-16)
(4.54281e-07 -7.44025e-07 7.62727e-16)
(3.86738e-07 -6.67061e-07 -3.1806e-16)
(3.32795e-07 -6.10348e-07 4.23992e-17)
(2.8684e-07 -5.66115e-07 8.82584e-17)
(2.47983e-07 -5.37524e-07 -1.91253e-15)
(2.0523e-07 -5.38149e-07 7.61452e-16)
(1.5907e-07 -5.26017e-07 1.7998e-16)
(1.08601e-07 -5.33871e-07 6.72516e-18)
(-1.67076e-05 2.01815e-05 -1.36772e-17)
(-1.64145e-05 2.13828e-05 -9.71952e-18)
(-1.49869e-05 2.06381e-05 8.61459e-18)
(-1.32379e-05 1.99097e-05 -1.06454e-18)
(-1.12568e-05 1.91635e-05 -1.19098e-17)
(-9.16222e-06 1.84567e-05 3.78997e-17)
(-7.01831e-06 1.7739e-05 1.29753e-17)
(-4.90158e-06 1.70103e-05 -1.01015e-17)
(-2.84281e-06 1.62733e-05 3.17881e-17)
(-9.00244e-07 1.55549e-05 -4.03382e-18)
(9.1254e-07 1.48472e-05 3.44895e-17)
(2.55785e-06 1.41587e-05 5.5203e-17)
(4.03913e-06 1.34719e-05 -3.68516e-17)
(5.33293e-06 1.28116e-05 4.63711e-17)
(6.45707e-06 1.21577e-05 -2.80629e-17)
(7.39765e-06 1.15399e-05 -9.07737e-17)
(8.18203e-06 1.0932e-05 -6.6038e-18)
(8.80147e-06 1.03629e-05 2.18896e-17)
(9.29016e-06 9.80054e-06 1.85419e-17)
(9.63983e-06 9.27987e-06 -2.34396e-17)
(9.8891e-06 8.77601e-06 -1.04072e-17)
(1.00284e-05 8.31894e-06 -3.38864e-18)
(1.00961e-05 7.86476e-06 -2.54929e-17)
(1.00782e-05 7.45185e-06 -4.17419e-17)
(1.00153e-05 7.05468e-06 1.26981e-17)
(9.88949e-06 6.7006e-06 5.61215e-17)
(9.73809e-06 6.33604e-06 -4.90649e-17)
(9.53742e-06 6.00325e-06 4.72291e-17)
(9.32748e-06 5.67702e-06 -2.22808e-17)
(9.08289e-06 5.38898e-06 4.61952e-17)
(8.84062e-06 5.07725e-06 -1.09869e-16)
(8.56878e-06 4.79938e-06 -1.16781e-16)
(8.31002e-06 4.52936e-06 -8.7148e-18)
(8.03142e-06 4.28433e-06 -1.98043e-16)
(7.76471e-06 3.99981e-06 -2.37219e-17)
(7.49027e-06 3.75938e-06 8.08302e-17)
(7.23083e-06 3.50572e-06 3.98053e-17)
(6.96829e-06 3.29458e-06 3.12096e-17)
(6.72227e-06 3.07415e-06 6.15686e-17)
(6.4797e-06 2.88809e-06 1.89223e-16)
(6.25876e-06 2.70551e-06 -1.58071e-17)
(5.92015e-06 2.50667e-06 -1.31151e-16)
(5.91977e-06 2.57436e-06 1.17846e-16)
(6.73099e-06 2.56575e-06 -2.65771e-16)
(6.54291e-06 2.30736e-06 -4.51899e-16)
(6.30897e-06 2.04196e-06 2.55262e-17)
(6.07831e-06 1.77482e-06 1.98754e-16)
(5.84715e-06 1.52144e-06 -2.89518e-16)
(5.61414e-06 1.26718e-06 2.64896e-16)
(5.38234e-06 1.02459e-06 1.16688e-16)
(5.14368e-06 7.88274e-07 2.15969e-16)
(4.90764e-06 5.64281e-07 4.9792e-16)
(4.66074e-06 3.53952e-07 5.40855e-16)
(4.4061e-06 1.69937e-07 -2.29365e-17)
(4.06081e-06 4.9672e-08 -4.91987e-17)
(3.65248e-06 1.93284e-08 1.66451e-16)
(3.42026e-06 -1.27804e-07 1.84738e-16)
(3.21691e-06 -2.50067e-07 1.12638e-15)
(2.99473e-06 -3.43044e-07 1.56581e-17)
(2.80709e-06 -4.20219e-07 -1.05767e-15)
(2.61863e-06 -4.7418e-07 1.09739e-16)
(2.43743e-06 -5.57501e-07 -5.13536e-16)
(2.26676e-06 -6.54605e-07 -2.63678e-16)
(2.0592e-06 -7.41845e-07 9.39334e-19)
(1.84263e-06 -8.29834e-07 -9.20629e-16)
(1.62196e-06 -9.14013e-07 1.0394e-16)
(1.38852e-06 -9.48346e-07 5.71388e-17)
(1.1909e-06 -9.21514e-07 -1.02324e-17)
(1.04078e-06 -9.16613e-07 1.32812e-16)
(9.33385e-07 -9.09588e-07 -4.40646e-16)
(8.09169e-07 -8.75961e-07 2.13085e-16)
(6.92714e-07 -8.20037e-07 1.085e-16)
(5.79746e-07 -7.4725e-07 4.22952e-17)
(4.82912e-07 -6.75016e-07 -1.82659e-15)
(4.08319e-07 -6.15582e-07 -5.39292e-16)
(3.45358e-07 -5.67797e-07 -1.50449e-17)
(2.9078e-07 -5.38203e-07 3.64595e-17)
(2.44939e-07 -5.19025e-07 -1.43926e-15)
(1.99468e-07 -5.18682e-07 4.97132e-16)
(1.51124e-07 -5.05039e-07 -4.05482e-16)
(9.92973e-08 -5.09645e-07 1.0739e-17)
(-1.25334e-05 1.98599e-05 -1.24918e-17)
(-1.43498e-05 2.00402e-05 -5.10685e-18)
(-1.49961e-05 1.87688e-05 1.23589e-17)
(-1.51224e-05 1.77088e-05 8.18475e-18)
(-1.48242e-05 1.67568e-05 -3.7943e-18)
(-1.41718e-05 1.58742e-05 -3.65687e-18)
(-1.32474e-05 1.50422e-05 1.3925e-17)
(-1.2108e-05 1.42739e-05 -1.00189e-17)
(-1.08273e-05 1.35662e-05 -3.13361e-18)
(-9.4514e-06 1.2904e-05 1.54859e-17)
(-8.04131e-06 1.22764e-05 -1.8975e-18)
(-6.62374e-06 1.16918e-05 2.28282e-17)
(-5.24816e-06 1.11419e-05 2.06496e-17)
(-3.92531e-06 1.06217e-05 -1.27979e-17)
(-2.69092e-06 1.01236e-05 3.66103e-17)
(-1.54166e-06 9.65644e-06 -1.04072e-17)
(-5.03381e-07 9.21187e-06 -2.52493e-17)
(4.38062e-07 8.79357e-06 3.12039e-17)
(1.26434e-06 8.39283e-06 1.58712e-17)
(1.99747e-06 8.01837e-06 2.3496e-18)
(2.62331e-06 7.66058e-06 -9.73895e-18)
(3.16926e-06 7.3319e-06 -6.92465e-17)
(3.62302e-06 7.02253e-06 3.68128e-18)
(4.01336e-06 6.74009e-06 -3.64917e-17)
(4.32856e-06 6.46852e-06 -1.08957e-17)
(4.59862e-06 6.2285e-06 1.85239e-17)
(4.8106e-06 6.00669e-06 3.52093e-17)
(4.9909e-06 5.80582e-06 3.40934e-18)
(5.12646e-06 5.60115e-06 8.41978e-18)
(5.24279e-06 5.42053e-06 -1.09539e-17)
(5.3257e-06 5.25095e-06 2.80933e-17)
(5.3937e-06 5.08746e-06 -5.90509e-17)
(5.43473e-06 4.90145e-06 -1.40993e-17)
(5.46758e-06 4.74448e-06 3.87772e-17)
(5.47829e-06 4.55667e-06 -1.15763e-16)
(5.47212e-06 4.36725e-06 -6.01312e-17)
(5.45024e-06 4.15935e-06 2.07932e-17)
(5.41272e-06 3.95404e-06 -1.70291e-17)
(5.36764e-06 3.71633e-06 -3.33271e-17)
(5.31094e-06 3.49151e-06 -5.14317e-17)
(5.24999e-06 3.25344e-06 3.91575e-17)
(5.13505e-06 3.01148e-06 -4.01232e-17)
(4.87513e-06 2.78747e-06 -1.14841e-16)
(4.37516e-06 2.57547e-06 4.64847e-17)
(4.30183e-06 2.35734e-06 -2.38342e-16)
(4.23367e-06 2.14628e-06 3.17632e-19)
(4.17103e-06 1.93139e-06 1.47438e-17)
(4.09721e-06 1.72771e-06 1.70964e-16)
(4.0281e-06 1.5249e-06 -3.33611e-16)
(3.94246e-06 1.33035e-06 1.43881e-19)
(3.85952e-06 1.13853e-06 3.58326e-16)
(3.75712e-06 9.50552e-07 -1.18637e-16)
(3.65894e-06 7.69468e-07 4.96314e-16)
(3.5248e-06 5.96184e-07 2.98447e-17)
(3.4103e-06 4.35249e-07 -6.52453e-17)
(3.29831e-06 2.57546e-07 -6.4333e-17)
(3.15292e-06 1.22875e-07 -4.20675e-18)
(2.9887e-06 -3.53741e-09 -6.34336e-16)
(2.83424e-06 -1.09498e-07 2.19446e-16)
(2.67182e-06 -2.01077e-07 6.07057e-16)
(2.51764e-06 -2.76282e-07 -1.34387e-16)
(2.35732e-06 -3.45633e-07 1.0079e-15)
(2.19304e-06 -4.17455e-07 1.48844e-17)
(2.02406e-06 -4.8841e-07 -1.84765e-16)
(1.84558e-06 -5.8543e-07 -2.21795e-16)
(1.64774e-06 -6.58998e-07 -2.70729e-16)
(1.44327e-06 -7.03198e-07 5.21065e-16)
(1.24611e-06 -7.33464e-07 1.23186e-16)
(1.11566e-06 -7.36069e-07 2.62856e-16)
(9.8245e-07 -7.47901e-07 -4.81885e-16)
(8.60812e-07 -7.31484e-07 1.51513e-16)
(7.27548e-07 -6.94237e-07 -1.12311e-16)
(6.05747e-07 -6.38713e-07 -1.171e-15)
(5.0733e-07 -5.93218e-07 -3.83444e-16)
(4.24193e-07 -5.56846e-07 1.39203e-16)
(3.53752e-07 -5.26286e-07 9.83187e-18)
(2.89982e-07 -5.04419e-07 1.81975e-16)
(2.39675e-07 -4.91194e-07 2.68096e-16)
(1.94155e-07 -4.97159e-07 -8.99735e-16)
(1.44234e-07 -4.84849e-07 -2.02938e-16)
(9.1663e-08 -4.85156e-07 -5.13723e-16)
(-1.70538e-06 1.37883e-05 6.81341e-18)
(-4.652e-06 1.46174e-05 -2.02385e-18)
(-6.96189e-06 1.40064e-05 -9.00853e-18)
(-8.72845e-06 1.33658e-05 -2.63982e-18)
(-1.00279e-05 1.27581e-05 5.94452e-18)
(-1.0885e-05 1.21527e-05 -2.58431e-19)
(-1.13441e-05 1.1556e-05 -4.50324e-18)
(-1.1456e-05 1.09928e-05 1.85887e-18)
(-1.1272e-05 1.04733e-05 -2.0158e-17)
(-1.0846e-05 9.98021e-06 -1.31692e-17)
(-1.02301e-05 9.50722e-06 -1.01649e-17)
(-9.47046e-06 9.05571e-06 -1.96625e-18)
(-8.61166e-06 8.63345e-06 2.68124e-17)
(-7.69117e-06 8.2274e-06 -7.72908e-18)
(-6.74376e-06 7.83574e-06 -3.10192e-17)
(-5.79568e-06 7.46012e-06 1.478e-17)
(-4.87067e-06 7.10449e-06 -1.0022e-17)
(-3.98434e-06 6.76307e-06 -4.74047e-17)
(-3.15207e-06 6.43375e-06 -6.82353e-18)
(-2.37976e-06 6.1225e-06 -5.62884e-19)
(-1.6756e-06 5.82757e-06 4.05251e-17)
(-1.03846e-06 5.55034e-06 5.26122e-17)
(-4.71332e-07 5.28485e-06 5.02295e-18)
(3.18939e-08 5.04166e-06 1.90137e-17)
(4.71118e-07 4.81115e-06 -3.24928e-19)
(8.55047e-07 4.60119e-06 3.36087e-17)
(1.18548e-06 4.40289e-06 -1.4956e-17)
(1.47285e-06 4.22917e-06 -3.48629e-18)
(1.71772e-06 4.06079e-06 -2.17749e-18)
(1.92974e-06 3.91281e-06 7.36819e-18)
(2.11028e-06 3.77027e-06 -2.85181e-18)
(2.26956e-06 3.65665e-06 2.88837e-17)
(2.40483e-06 3.53512e-06 -3.88646e-19)
(2.52331e-06 3.42443e-06 8.23061e-19)
(2.62741e-06 3.33632e-06 2.12033e-17)
(2.71936e-06 3.25921e-06 7.08656e-17)
(2.79997e-06 3.156e-06 -4.42136e-17)
(2.87201e-06 3.05825e-06 -2.93841e-18)
(2.9392e-06 2.94562e-06 4.89767e-17)
(3.00103e-06 2.8278e-06 4.60833e-18)
(3.06332e-06 2.68502e-06 -8.50583e-17)
(3.09019e-06 2.52888e-06 3.69077e-17)
(3.13252e-06 2.37633e-06 7.77289e-17)
(3.24281e-06 2.22792e-06 2.01302e-16)
(3.2712e-06 2.05826e-06 2.11841e-16)
(3.28907e-06 1.89132e-06 4.92789e-17)
(3.30145e-06 1.71837e-06 -7.55832e-18)
(3.3042e-06 1.55761e-06 -1.04034e-16)
(3.30049e-06 1.39605e-06 1.19912e-16)
(3.28554e-06 1.24385e-06 -5.447e-17)
(3.26196e-06 1.09259e-06 -2.77361e-16)
(3.22634e-06 9.47727e-07 -1.76935e-16)
(3.18026e-06 8.05371e-07 -7.99192e-17)
(3.10873e-06 6.69572e-07 -4.79423e-17)
(3.01913e-06 5.43396e-07 4.23706e-17)
(2.9252e-06 4.21298e-07 -4.06184e-16)
(2.82743e-06 3.01856e-07 -1.92448e-16)
(2.7213e-06 1.89824e-07 -2.25972e-16)
(2.60401e-06 8.97722e-08 -5.52792e-16)
(2.48317e-06 -2.75613e-09 1.25388e-16)
(2.35424e-06 -8.19632e-08 -1.40617e-16)
(2.22205e-06 -1.56045e-07 -5.43824e-16)
(2.08913e-06 -2.23275e-07 5.71102e-16)
(1.94683e-06 -3.00382e-07 7.14525e-16)
(1.79867e-06 -3.6625e-07 -1.12853e-16)
(1.61998e-06 -4.42656e-07 -3.32984e-16)
(1.44662e-06 -4.93672e-07 -7.9774e-18)
(1.26275e-06 -5.32216e-07 -6.46353e-17)
(1.12576e-06 -5.64704e-07 1.59066e-16)
(1.00411e-06 -5.81158e-07 1.27655e-16)
(8.70816e-07 -5.78939e-07 1.04693e-16)
(7.41624e-07 -5.50287e-07 3.01819e-16)
(6.27035e-07 -5.31253e-07 5.75301e-16)
(5.29295e-07 -5.0975e-07 2.44253e-16)
(4.39028e-07 -4.88407e-07 5.51216e-17)
(3.58056e-07 -4.68635e-07 -1.39369e-16)
(2.91294e-07 -4.63833e-07 -9.72112e-16)
(2.36722e-07 -4.65484e-07 4.26281e-16)
(1.89433e-07 -4.7152e-07 4.60118e-16)
(1.37845e-07 -4.59291e-07 6.12582e-16)
(8.39178e-08 -4.6082e-07 1.88946e-15)
(1.08518e-05 5.50603e-06 4.92369e-19)
(8.08328e-06 6.0366e-06 1.82256e-18)
(5.03409e-06 5.66076e-06 6.03163e-18)
(2.3161e-06 5.31592e-06 1.81877e-18)
(-8.1437e-08 5.06661e-06 -3.24238e-18)
(-2.12266e-06 4.85827e-06 -1.44194e-18)
(-3.8023e-06 4.68532e-06 -2.4625e-19)
(-5.12789e-06 4.54139e-06 -6.6587e-20)
(-6.11835e-06 4.41572e-06 3.03973e-20)
(-6.79949e-06 4.31101e-06 -8.03744e-18)
(-7.20551e-06 4.21683e-06 9.68418e-18)
(-7.37026e-06 4.12489e-06 -7.07689e-18)
(-7.33203e-06 4.03018e-06 -1.72594e-17)
(-7.12554e-06 3.94155e-06 -1.03235e-17)
(-6.78726e-06 3.8544e-06 -3.7721e-18)
(-6.34799e-06 3.76347e-06 3.27422e-18)
(-5.83836e-06 3.66646e-06 1.4137e-18)
(-5.28154e-06 3.56919e-06 -1.21919e-17)
(-4.70207e-06 3.46913e-06 -1.80754e-17)
(-4.11513e-06 3.36525e-06 -4.89521e-18)
(-3.5384e-06 3.25824e-06 3.11624e-18)
(-2.97939e-06 3.15092e-06 1.95866e-17)
(-2.45014e-06 3.04125e-06 -2.73346e-17)
(-1.95214e-06 2.93245e-06 6.02816e-18)
(-1.49266e-06 2.82655e-06 -2.2357e-17)
(-1.06841e-06 2.72802e-06 1.23661e-17)
(-6.84222e-07 2.63281e-06 3.37535e-17)
(-3.33426e-07 2.54705e-06 -2.59936e-17)
(-1.91032e-08 2.47041e-06 -4.72188e-17)
(2.6655e-07 2.40687e-06 -1.33377e-17)
(5.2115e-07 2.34952e-06 9.92066e-17)
(7.53018e-07 2.30327e-06 6.59202e-17)
(9.60913e-07 2.26624e-06 5.49406e-17)
(1.15035e-06 2.24087e-06 -4.93264e-19)
(1.32049e-06 2.19802e-06 -5.80115e-17)
(1.48078e-06 2.16542e-06 -6.42553e-17)
(1.62632e-06 2.11927e-06 4.87759e-17)
(1.76083e-06 2.06887e-06 -2.02058e-17)
(1.88513e-06 2.00321e-06 -6.40211e-17)
(2.00625e-06 1.94743e-06 4.9786e-17)
(2.11911e-06 1.8699e-06 -1.32365e-17)
(2.20408e-06 1.77935e-06 2.98583e-19)
(2.26972e-06 1.69718e-06 -3.83452e-17)
(2.33365e-06 1.61613e-06 3.23614e-18)
(2.40813e-06 1.51478e-06 -1.72667e-16)
(2.47329e-06 1.41764e-06 -1.14767e-16)
(2.53003e-06 1.3135e-06 -2.42464e-17)
(2.57491e-06 1.21803e-06 -2.30157e-16)
(2.6099e-06 1.1176e-06 -1.81432e-16)
(2.63142e-06 1.02496e-06 -5.94149e-17)
(2.64176e-06 9.28741e-07 -1.63984e-16)
(2.63763e-06 8.37068e-07 1.18346e-16)
(2.62238e-06 7.4287e-07 -3.20084e-16)
(2.5839e-06 6.50778e-07 -4.5249e-17)
(2.53356e-06 5.59168e-07 2.1404e-16)
(2.47952e-06 4.66144e-07 4.19959e-17)
(2.41323e-06 3.75809e-07 -1.03336e-16)
(2.33544e-06 2.86036e-07 9.20896e-16)
(2.24835e-06 2.02106e-07 5.36294e-17)
(2.15463e-06 1.20572e-07 -7.88565e-16)
(2.05199e-06 4.67115e-08 1.93107e-16)
(1.94482e-06 -2.17406e-08 -6.62627e-16)
(1.8351e-06 -8.57749e-08 -3.64857e-17)
(1.72314e-06 -1.43503e-07 8.00443e-17)
(1.59387e-06 -2.0823e-07 -1.72251e-15)
(1.46362e-06 -2.60785e-07 4.28747e-17)
(1.30496e-06 -3.11896e-07 7.87271e-17)
(1.16388e-06 -3.58696e-07 -2.46902e-16)
(1.04284e-06 -4.01045e-07 3.22968e-16)
(9.28568e-07 -4.22034e-07 -2.2835e-17)
(8.15544e-07 -4.23446e-07 1.06675e-16)
(7.05264e-07 -4.28984e-07 -7.12148e-16)
(6.0978e-07 -4.20114e-07 -6.83217e-16)
(5.12025e-07 -4.14594e-07 6.13202e-17)
(4.28941e-07 -4.07012e-07 -5.03105e-17)
(3.50057e-07 -4.07594e-07 1.24006e-16)
(2.88234e-07 -4.13378e-07 -6.68404e-16)
(2.30052e-07 -4.21711e-07 8.53178e-17)
(1.79222e-07 -4.38185e-07 -6.87664e-16)
(1.26304e-07 -4.2883e-07 -8.15957e-17)
(7.32186e-08 -4.30388e-07 1.4542e-15)
(1.94872e-05 -2.62919e-06 2.71323e-18)
(1.84333e-05 -2.32774e-06 4.04509e-18)
(1.61933e-05 -2.2855e-06 -1.0134e-18)
(1.38707e-05 -2.23335e-06 1.98564e-18)
(1.15339e-05 -2.08644e-06 1.75266e-18)
(9.26856e-06 -1.91327e-06 -1.57959e-17)
(7.14058e-06 -1.70626e-06 -9.37346e-18)
(5.19631e-06 -1.48789e-06 -3.43139e-18)
(3.46695e-06 -1.262e-06 -1.05412e-18)
(1.96824e-06 -1.03771e-06 4.02974e-18)
(7.08067e-07 -8.12066e-07 -9.10993e-18)
(-3.21053e-07 -5.9928e-07 1.24143e-17)
(-1.12891e-06 -3.98456e-07 2.13749e-18)
(-1.73415e-06 -2.17707e-07 7.6386e-18)
(-2.15584e-06 -4.96597e-08 1.90276e-17)
(-2.41967e-06 9.73881e-08 1.71568e-17)
(-2.54672e-06 2.26871e-07 1.49338e-17)
(-2.56147e-06 3.35736e-07 5.83704e-18)
(-2.4865e-06 4.30829e-07 2.60891e-17)
(-2.34169e-06 5.08897e-07 -1.29569e-17)
(-2.14597e-06 5.72916e-07 -3.83754e-17)
(-1.91516e-06 6.23439e-07 -8.38637e-18)
(-1.66293e-06 6.63432e-07 -2.42053e-18)
(-1.40102e-06 6.94812e-07 -1.11156e-17)
(-1.13831e-06 7.16943e-07 -8.53565e-18)
(-8.80962e-07 7.34327e-07 -2.84739e-17)
(-6.34998e-07 7.4669e-07 -5.44058e-18)
(-4.02533e-07 7.59283e-07 -1.47116e-18)
(-1.87039e-07 7.69918e-07 3.04876e-17)
(1.29624e-08 7.83788e-07 -9.33998e-18)
(1.95403e-07 7.97973e-07 1.04556e-17)
(3.6361e-07 8.19761e-07 3.1829e-17)
(5.15771e-07 8.43003e-07 2.61892e-17)
(6.57375e-07 8.72854e-07 6.96781e-17)
(7.86388e-07 9.06619e-07 5.22293e-18)
(9.06643e-07 9.45962e-07 -4.58968e-17)
(1.0166e-06 9.85858e-07 -6.54523e-17)
(1.11802e-06 1.02265e-06 2.13e-17)
(1.21009e-06 1.03973e-06 5.94645e-17)
(1.29796e-06 1.05434e-06 -3.5748e-17)
(1.38038e-06 1.05951e-06 6.22368e-17)
(1.44814e-06 1.05354e-06 -1.07358e-17)
(1.50676e-06 1.03105e-06 2.29812e-17)
(1.56843e-06 1.01013e-06 -1.29021e-16)
(1.62059e-06 9.74795e-07 -3.72188e-17)
(1.66417e-06 9.43303e-07 3.37693e-17)
(1.70045e-06 9.06136e-07 -4.37019e-17)
(1.72845e-06 8.73828e-07 -4.89911e-17)
(1.7499e-06 8.354e-07 7.6529e-17)
(1.76283e-06 7.98466e-07 3.90735e-18)
(1.77046e-06 7.57495e-07 1.43047e-16)
(1.7696e-06 7.12425e-07 2.39303e-16)
(1.76399e-06 6.60501e-07 2.83632e-17)
(1.74582e-06 6.04094e-07 7.124e-17)
(1.72269e-06 5.41698e-07 1.27021e-17)
(1.69697e-06 4.74253e-07 1.92177e-16)
(1.66503e-06 4.03803e-07 4.3355e-17)
(1.62571e-06 3.31948e-07 -3.20726e-16)
(1.57907e-06 2.59976e-07 3.08778e-16)
(1.5266e-06 1.89651e-07 8.12511e-17)
(1.46519e-06 1.22966e-07 -5.96109e-17)
(1.40068e-06 6.08725e-08 4.76695e-16)
(1.33029e-06 3.65276e-09 -1.44164e-16)
(1.2575e-06 -5.03906e-08 -1.21551e-16)
(1.17717e-06 -9.66498e-08 8.46012e-16)
(1.08657e-06 -1.40981e-07 -6.35406e-17)
(9.92853e-07 -1.82972e-07 -3.78665e-16)
(8.89442e-07 -2.31981e-07 -3.62418e-18)
(8.14713e-07 -2.68088e-07 -1.35285e-16)
(7.36068e-07 -2.96188e-07 -3.55639e-17)
(6.59952e-07 -3.16562e-07 -8.64119e-17)
(5.84174e-07 -3.24354e-07 4.53649e-16)
(5.0892e-07 -3.34316e-07 4.74124e-16)
(4.40423e-07 -3.39107e-07 2.05257e-16)
(3.72912e-07 -3.4533e-07 1.70744e-16)
(3.13829e-07 -3.52206e-07 -1.19521e-16)
(2.59521e-07 -3.71614e-07 7.25558e-16)
(2.09349e-07 -3.86858e-07 1.00231e-17)
(1.60847e-07 -4.09139e-07 8.06742e-16)
(1.08936e-07 -3.96924e-07 -4.10169e-16)
(6.20198e-08 -4.0546e-07 -2.34434e-15)
(1.68475e-05 -7.29472e-06 9.35512e-18)
(1.86366e-05 -7.24714e-06 -3.35633e-18)
(1.89556e-05 -7.19896e-06 -4.58596e-18)
(1.87301e-05 -7.09363e-06 7.12255e-19)
(1.80727e-05 -6.88283e-06 5.52536e-18)
(1.70779e-05 -6.63196e-06 7.54803e-18)
(1.58406e-05 -6.33855e-06 -4.12605e-18)
(1.4445e-05 -6.01759e-06 4.11807e-19)
(1.29646e-05 -5.67384e-06 9.21812e-18)
(1.1465e-05 -5.3218e-06 5.18914e-18)
(9.99596e-06 -4.96193e-06 -4.46882e-18)
(8.59703e-06 -4.60146e-06 -9.47271e-18)
(7.29945e-06 -4.24464e-06 5.92745e-19)
(6.12153e-06 -3.89311e-06 5.09869e-20)
(5.07441e-06 -3.54981e-06 -8.32084e-19)
(4.16336e-06 -3.2177e-06 1.6912e-18)
(3.3868e-06 -2.90223e-06 1.15566e-17)
(2.73821e-06 -2.59925e-06 5.93166e-18)
(2.20903e-06 -2.31458e-06 -1.27159e-17)
(1.78849e-06 -2.04549e-06 2.07713e-17)
(1.46333e-06 -1.79781e-06 1.41289e-17)
(1.22162e-06 -1.56695e-06 -5.88087e-18)
(1.04923e-06 -1.35505e-06 1.40577e-18)
(9.35424e-07 -1.15909e-06 1.58441e-17)
(8.67333e-07 -9.84011e-07 1.45155e-17)
(8.36529e-07 -8.23207e-07 1.71254e-17)
(8.31722e-07 -6.79375e-07 -1.37104e-17)
(8.47749e-07 -5.48511e-07 -3.2086e-19)
(8.75671e-07 -4.31503e-07 1.86099e-17)
(9.13319e-07 -3.25161e-07 4.01042e-18)
(9.5381e-07 -2.31192e-07 -2.61519e-17)
(9.973e-07 -1.43287e-07 -1.37061e-17)
(1.03862e-06 -6.21539e-08 -6.89178e-18)
(1.0798e-06 1.53606e-08 2.14534e-17)
(1.1169e-06 8.66238e-08 4.21317e-17)
(1.15338e-06 1.58538e-07 4.28884e-17)
(1.18432e-06 2.26626e-07 3.06003e-17)
(1.21386e-06 2.95548e-07 -2.08062e-17)
(1.23959e-06 3.58479e-07 -6.53465e-17)
(1.26907e-06 4.22155e-07 2.87859e-17)
(1.29942e-06 4.80473e-07 7.80787e-18)
(1.32617e-06 5.3613e-07 2.60392e-17)
(1.35283e-06 5.86827e-07 -5.20095e-17)
(1.37874e-06 6.33624e-07 9.48851e-17)
(1.40103e-06 6.71159e-07 -3.50677e-17)
(1.41944e-06 7.0259e-07 1.09239e-16)
(1.43588e-06 7.1845e-07 3.56579e-17)
(1.4484e-06 7.29102e-07 -7.1371e-17)
(1.46017e-06 7.28252e-07 5.11602e-17)
(1.46765e-06 7.20412e-07 1.23665e-16)
(1.47484e-06 7.01333e-07 3.39016e-17)
(1.47823e-06 6.77225e-07 -4.31892e-17)
(1.48096e-06 6.40476e-07 2.29649e-16)
(1.47575e-06 6.01952e-07 4.77538e-17)
(1.47149e-06 5.53691e-07 -1.14432e-16)
(1.4634e-06 5.02937e-07 -2.93825e-16)
(1.45003e-06 4.45131e-07 -2.58169e-17)
(1.42945e-06 3.87287e-07 -1.99263e-17)
(1.40279e-06 3.24518e-07 -2.52882e-16)
(1.36938e-06 2.62662e-07 1.9614e-16)
(1.3274e-06 2.00252e-07 1.18706e-16)
(1.28126e-06 1.39733e-07 2.0846e-16)
(1.22818e-06 8.18452e-08 1.96499e-16)
(1.17127e-06 2.71071e-08 -4.3618e-16)
(1.10536e-06 -2.13874e-08 5.38538e-16)
(1.03676e-06 -6.46155e-08 3.46216e-16)
(9.59905e-07 -1.11443e-07 2.22446e-17)
(8.80203e-07 -1.59355e-07 1.15354e-16)
(8.0221e-07 -2.05087e-07 -2.76979e-16)
(7.4071e-07 -2.44846e-07 -5.95467e-17)
(6.7249e-07 -2.68374e-07 -1.9748e-17)
(6.05968e-07 -2.91893e-07 4.83136e-16)
(5.39303e-07 -3.06344e-07 5.50308e-16)
(4.73809e-07 -3.21361e-07 4.84932e-16)
(4.09984e-07 -3.32941e-07 2.12761e-16)
(3.51174e-07 -3.54351e-07 1.05039e-16)
(2.95285e-07 -3.78754e-07 -7.47748e-16)
(2.38244e-07 -3.99825e-07 1.65537e-16)
(1.81551e-07 -4.24803e-07 7.20185e-16)
(1.25406e-07 -4.2e-07 -1.44847e-16)
(7.09083e-08 -4.21742e-07 -5.445e-16)
(1.98516e-06 -5.10733e-06 -2.26203e-18)
(5.39463e-06 -5.04754e-06 3.94658e-18)
(8.13344e-06 -5.10788e-06 1.72952e-18)
(1.02472e-05 -5.08216e-06 4.83009e-19)
(1.18259e-05 -5.00974e-06 5.45047e-19)
(1.28942e-05 -4.90434e-06 1.37325e-18)
(1.35067e-05 -4.77381e-06 5.04114e-18)
(1.37274e-05 -4.62363e-06 -2.62813e-20)
(1.36176e-05 -4.45826e-06 -7.03591e-18)
(1.32391e-05 -4.27523e-06 -2.25882e-18)
(1.26594e-05 -4.08032e-06 2.44806e-18)
(1.19302e-05 -3.87222e-06 -3.44037e-18)
(1.11043e-05 -3.65685e-06 -9.51573e-19)
(1.02242e-05 -3.43387e-06 -7.06163e-18)
(9.32806e-06 -3.20675e-06 2.71531e-18)
(8.44496e-06 -2.97785e-06 -1.72917e-18)
(7.59575e-06 -2.74906e-06 -4.2422e-18)
(6.7996e-06 -2.52297e-06 1.75858e-18)
(6.06569e-06 -2.30279e-06 3.98916e-18)
(5.4008e-06 -2.08685e-06 -1.17701e-17)
(4.80773e-06 -1.87733e-06 -9.83187e-18)
(4.28618e-06 -1.67824e-06 -2.55379e-18)
(3.83205e-06 -1.48976e-06 -1.63216e-18)
(3.44227e-06 -1.30993e-06 -1.16401e-17)
(3.11032e-06 -1.14189e-06 -1.07096e-17)
(2.83011e-06 -9.85237e-07 -9.58636e-18)
(2.59493e-06 -8.40965e-07 3.01325e-17)
(2.3987e-06 -7.08884e-07 -5.75227e-19)
(2.23472e-06 -5.88316e-07 -2.83138e-17)
(2.0981e-06 -4.79026e-07 3.98369e-18)
(1.98302e-06 -3.82145e-07 1.08294e-17)
(1.88587e-06 -2.94569e-07 2.50449e-18)
(1.8018e-06 -2.16154e-07 -7.97735e-18)
(1.7288e-06 -1.44825e-07 -3.74505e-17)
(1.6631e-06 -7.94904e-08 -7.4945e-18)
(1.60291e-06 -1.8731e-08 1.94051e-17)
(1.5452e-06 3.57254e-08 2.01457e-17)
(1.48971e-06 8.68736e-08 5.4964e-18)
(1.43718e-06 1.33766e-07 -1.71866e-17)
(1.39232e-06 1.77537e-07 -4.9383e-17)
(1.35329e-06 2.1585e-07 5.45578e-18)
(1.31686e-06 2.52422e-07 -3.66596e-17)
(1.2816e-06 2.91165e-07 2.83332e-17)
(1.25106e-06 3.28841e-07 -2.08904e-17)
(1.22246e-06 3.61113e-07 6.71942e-17)
(1.19856e-06 3.93432e-07 -9.34379e-17)
(1.17646e-06 4.1883e-07 3.5335e-17)
(1.15772e-06 4.41341e-07 4.73164e-17)
(1.1405e-06 4.57117e-07 -9.73629e-17)
(1.12619e-06 4.70841e-07 -8.85113e-17)
(1.11237e-06 4.73224e-07 -5.54348e-17)
(1.10015e-06 4.73859e-07 -6.3114e-17)
(1.08839e-06 4.65042e-07 -2.77508e-18)
(1.07539e-06 4.53954e-07 -1.44489e-16)
(1.06358e-06 4.35705e-07 8.82565e-17)
(1.05216e-06 4.13851e-07 1.53867e-16)
(1.03981e-06 3.85635e-07 -1.39045e-16)
(1.02414e-06 3.54912e-07 9.87645e-17)
(1.00731e-06 3.19782e-07 2.69873e-16)
(9.85759e-07 2.82755e-07 4.7493e-17)
(9.62107e-07 2.43932e-07 1.05054e-16)
(9.33337e-07 2.04789e-07 -1.83189e-16)
(9.04233e-07 1.66197e-07 -1.65729e-16)
(8.70192e-07 1.27509e-07 3.55163e-17)
(8.35175e-07 9.35705e-08 -5.61003e-16)