/*--------------------------------*- C++ -*----------------------------------*\
| =========                 |                                                 |
| \\      /  F ield         | OpenFOAM: The Open Source CFD Toolbox           |
|  \\    /   O peration     | Version:  2306                                  |
|   \\  /    A nd           | Website:  www.openfoam.com                      |
|    \\/     M anipulation  |                                                 |
\*---------------------------------------------------------------------------*/
FoamFile
{
    version     2.0;
    format      ascii;
    arch        "LSB;label=32;scalar=64";
    class       volScalarField;
    location    "475";
    object      turbulenceProperties:k;
}
// * * * * * * * * * * * * * * * * * * * * * * * * * * * * * * * * * * * * * //

dimensions      [0 2 -2 0 0 0 0];

internalField   nonuniform List<scalar> 
1340
(
7.04821e-07
1.38621e-06
1.57324e-07
6.44776e-07
7.0267e-07
1.38827e-06
1.73419e-07
2.78868e-07
1.54184e-07
6.4721e-07
7.02942e-07
1.38896e-06
3.20721e-07
2.82342e-07
2.64893e-07
1.81893e-07
2.85324e-07
1.52332e-07
6.49836e-07
7.04896e-07
1.38891e-06
4.5854e-07
4.24977e-07
3.97518e-07
3.71961e-07
3.45324e-07
3.20228e-07
2.8373e-07
2.67966e-07
1.90982e-07
2.91538e-07
1.51591e-07
6.5256e-07
7.07972e-07
1.38855e-06
6.43483e-07
6.03276e-07
5.63133e-07
5.24009e-07
4.85643e-07
4.49566e-07
4.18269e-07
3.92698e-07
3.68732e-07
3.43631e-07
3.19889e-07
2.85445e-07
2.71411e-07
2.0055e-07
2.97367e-07
1.51862e-07
6.5515e-07
7.11713e-07
1.38797e-06
8.75743e-07
8.38207e-07
8.00824e-07
7.63848e-07
7.27364e-07
6.91246e-07
6.55136e-07
6.18724e-07
5.81983e-07
5.45227e-07
5.09339e-07
4.73941e-07
4.40517e-07
4.1155e-07
3.87881e-07
3.65525e-07
3.42015e-07
3.19655e-07
2.87445e-07
2.7517e-07
2.10501e-07
3.02709e-07
1.53061e-07
6.57556e-07
7.15757e-07
1.38692e-06
1.18054e-06
1.15347e-06
1.12567e-06
1.09721e-06
1.06821e-06
1.03871e-06
1.00882e-06
9.78579e-07
9.48022e-07
9.17081e-07
8.85706e-07
8.53839e-07
8.21532e-07
7.88905e-07
7.56202e-07
7.23643e-07
6.91299e-07
6.59069e-07
6.2665e-07
5.93811e-07
5.60558e-07
5.27209e-07
4.94576e-07
4.62168e-07
4.3145e-07
4.0485e-07
3.83079e-07
3.62342e-07
3.40463e-07
3.19516e-07
2.89714e-07
2.7921e-07
2.20753e-07
3.07462e-07
1.55124e-07
6.59688e-07
7.19577e-07
1.38572e-06
1.15962e-06
1.2057e-06
1.06557e-06
1.09259e-06
1.09392e-06
1.14363e-06
1.17021e-06
1.19642e-06
1.21928e-06
1.24089e-06
1.26075e-06
1.27877e-06
1.29447e-06
1.30796e-06
1.3197e-06
1.32904e-06
1.33631e-06
1.34157e-06
1.34492e-06
1.34647e-06
1.34627e-06
1.34442e-06
1.34114e-06
1.33652e-06
1.33064e-06
1.32361e-06
1.31556e-06
1.30661e-06
1.29674e-06
1.28611e-06
1.2747e-06
1.26257e-06
1.24977e-06
1.23628e-06
1.22215e-06
1.20735e-06
1.19187e-06
1.17576e-06
1.15889e-06
1.14131e-06
1.12305e-06
1.10398e-06
1.08416e-06
1.06353e-06
1.04216e-06
1.02002e-06
9.97179e-07
9.73735e-07
9.49707e-07
9.25195e-07
9.00272e-07
8.74922e-07
8.49097e-07
8.22756e-07
7.95818e-07
7.68323e-07
7.40358e-07
7.12118e-07
6.83793e-07
6.55449e-07
6.27008e-07
5.9822e-07
5.6892e-07
5.39142e-07
5.09195e-07
4.79801e-07
4.50384e-07
4.22406e-07
3.98188e-07
3.78293e-07
3.59177e-07
3.38959e-07
3.19455e-07
2.92239e-07
2.83511e-07
2.31242e-07
3.11567e-07
1.57964e-07
6.61316e-07
7.22969e-07
1.38456e-06
1.18942e-06
9.49893e-07
8.69909e-07
9.49214e-07
9.66963e-07
9.98272e-07
1.01728e-06
1.03826e-06
1.05701e-06
1.07479e-06
1.091e-06
1.10558e-06
1.11846e-06
1.12962e-06
1.13926e-06
1.14701e-06
1.15314e-06
1.15781e-06
1.16089e-06
1.16254e-06
1.16289e-06
1.16197e-06
1.1599e-06
1.15683e-06
1.15278e-06
1.14786e-06
1.14222e-06
1.13581e-06
1.12876e-06
1.12112e-06
1.11289e-06
1.10413e-06
1.09483e-06
1.08504e-06
1.07473e-06
1.06388e-06
1.05251e-06
1.04059e-06
1.02807e-06
1.01493e-06
1.00114e-06
9.86703e-07
9.71519e-07
9.55594e-07
9.38982e-07
9.21593e-07
9.03539e-07
8.84853e-07
8.65583e-07
8.45822e-07
8.25618e-07
8.04949e-07
7.83776e-07
7.62049e-07
7.39664e-07
7.16637e-07
6.93019e-07
6.68973e-07
6.44654e-07
6.20122e-07
5.95328e-07
5.70077e-07
5.44248e-07
5.17894e-07
4.91304e-07
4.65111e-07
4.38654e-07
4.13428e-07
3.91579e-07
3.73519e-07
3.56021e-07
3.37483e-07
3.19467e-07
2.95e-07
2.88052e-07
2.41878e-07
3.14986e-07
1.61385e-07
6.62731e-07
7.25536e-07
1.38395e-06
9.09633e-07
8.01909e-07
7.7235e-07
8.43871e-07
8.52118e-07
8.73887e-07
8.89375e-07
9.05977e-07
9.21052e-07
9.35139e-07
9.47761e-07
9.59387e-07
9.69576e-07
9.78422e-07
9.85988e-07
9.92228e-07
9.97156e-07
1.00101e-06
1.00363e-06
1.00508e-06
1.00562e-06
1.00521e-06
1.00394e-06
1.00181e-06
9.99059e-07
9.95677e-07
9.91675e-07
9.8716e-07
9.82177e-07
9.76752e-07
9.70911e-07
9.64699e-07
9.58077e-07
9.51094e-07
9.43748e-07
9.35993e-07
9.27828e-07
9.19226e-07
9.10159e-07
9.00557e-07
8.90421e-07
8.79709e-07
8.68316e-07
8.56308e-07
8.43618e-07
8.30217e-07
8.16221e-07
8.01609e-07
7.86464e-07
7.70856e-07
7.54811e-07
7.38323e-07
7.21352e-07
7.03807e-07
6.85574e-07
6.66656e-07
6.47064e-07
6.2691e-07
6.06343e-07
5.85428e-07
5.64126e-07
5.42294e-07
5.19842e-07
4.96853e-07
4.7356e-07
4.50494e-07
4.26973e-07
4.04504e-07
3.84991e-07
3.6871e-07
3.52843e-07
3.36004e-07
3.19532e-07
2.97994e-07
2.92832e-07
2.52581e-07
3.17742e-07
1.65372e-07
6.63039e-07
7.27861e-07
1.38433e-06
7.75493e-07
7.17231e-07
6.95015e-07
7.47072e-07
7.51339e-07
7.68446e-07
7.80705e-07
7.93568e-07
8.05153e-07
8.15985e-07
8.25729e-07
8.34636e-07
8.42478e-07
8.49292e-07
8.55134e-07
8.60021e-07
8.63873e-07
8.66932e-07
8.69068e-07
8.70341e-07
8.70948e-07
8.70853e-07
8.70085e-07
8.68724e-07
8.66975e-07
8.64643e-07
8.61923e-07
8.58888e-07
8.55454e-07
8.5174e-07
8.47719e-07
8.43472e-07
8.38897e-07
8.34108e-07
8.29041e-07
8.23668e-07
8.18004e-07
8.12002e-07
8.05608e-07
7.98812e-07
7.91556e-07
7.83791e-07
7.75476e-07
7.66599e-07
7.57092e-07
7.47002e-07
7.36355e-07
7.25163e-07
7.13521e-07
7.01463e-07
6.89028e-07
6.76194e-07
6.62927e-07
6.49069e-07
6.34551e-07
6.1933e-07
6.03333e-07
5.8673e-07
5.69616e-07
5.52031e-07
5.34009e-07
5.15427e-07
4.96191e-07
4.76425e-07
4.56298e-07
4.36236e-07
4.15565e-07
3.95788e-07
3.78541e-07
3.63971e-07
3.4971e-07
3.34559e-07
3.19697e-07
3.01217e-07
2.97847e-07
2.63107e-07
3.19921e-07
1.69125e-07
6.62695e-07
7.28822e-07
1.38767e-06
6.86743e-07
6.35728e-07
6.14295e-07
6.54203e-07
6.57274e-07
6.70528e-07
6.7979e-07
6.89499e-07
6.98066e-07
7.06287e-07
7.13633e-07
7.20279e-07
7.2626e-07
7.31357e-07
7.35819e-07
7.39639e-07
7.42636e-07
7.44999e-07
7.46798e-07
7.47966e-07
7.48644e-07
7.48796e-07
7.48488e-07
7.47834e-07
7.46799e-07
7.45402e-07
7.4385e-07
7.41986e-07
7.39835e-07
7.37496e-07
7.35105e-07
7.32444e-07
7.29659e-07
7.26604e-07
7.23426e-07
7.20221e-07
7.16541e-07
7.12697e-07
7.08605e-07
7.04199e-07
6.99329e-07
6.94124e-07
6.88422e-07
6.82163e-07
6.755e-07
6.68228e-07
6.60505e-07
6.52369e-07
6.43783e-07
6.34933e-07
6.25735e-07
6.1619e-07
6.06312e-07
5.95836e-07
5.84696e-07
5.72903e-07
5.60267e-07
5.46947e-07
5.33125e-07
5.18712e-07
5.03838e-07
4.88455e-07
4.72387e-07
4.55795e-07
4.38811e-07
4.21755e-07
4.03928e-07
3.86871e-07
3.71891e-07
3.59049e-07
3.46417e-07
3.33019e-07
3.19936e-07
3.04711e-07
3.03256e-07
2.73775e-07
3.21494e-07
1.76196e-07
6.5856e-07
7.32614e-07
1.3914e-06
5.8765e-07
5.43984e-07
5.24774e-07
5.55458e-07
5.56657e-07
5.66389e-07
5.72523e-07
5.78675e-07
5.85173e-07
5.90375e-07
5.95288e-07
6.00305e-07
6.04213e-07
6.07574e-07
6.10976e-07
6.13894e-07
6.15692e-07
6.17789e-07
6.19246e-07
6.20306e-07
6.21208e-07
6.21452e-07
6.218e-07
6.21896e-07
6.21523e-07
6.21172e-07
6.20706e-07
6.20048e-07
6.19289e-07
6.18255e-07
6.17483e-07
6.16547e-07
6.15409e-07
6.14032e-07
6.1297e-07
6.11703e-07
6.1004e-07
6.08305e-07
6.06488e-07
6.04406e-07
6.01862e-07
5.99244e-07
5.95934e-07
5.92363e-07
5.88523e-07
5.83952e-07
5.79205e-07
5.74172e-07
5.68631e-07
5.63084e-07
5.57219e-07
5.5102e-07
5.44698e-07
5.37712e-07
5.30068e-07
5.21829e-07
5.12774e-07
5.02898e-07
4.92567e-07
4.81644e-07
4.7023e-07
4.58358e-07
4.45815e-07
4.32783e-07
4.19296e-07
4.05558e-07
3.9092e-07
3.76937e-07
3.64442e-07
3.53485e-07
3.42712e-07
3.3135e-07
3.20381e-07
3.09082e-07
3.09356e-07
2.86323e-07
3.20195e-07
1.89986e-07
6.46085e-07
7.25917e-07
1.3448e-06
4.82381e-07
4.51679e-07
4.37468e-07
4.58247e-07
4.58335e-07
4.6469e-07
4.67862e-07
4.71595e-07
4.75716e-07
4.78508e-07
4.81653e-07
4.84865e-07
4.87066e-07
4.89118e-07
4.91624e-07
4.9348e-07
4.9457e-07
4.96403e-07
4.9732e-07
4.98487e-07
4.99543e-07
4.9978e-07
5.00664e-07
5.01452e-07
5.01585e-07
5.02109e-07
5.02404e-07
5.02754e-07
5.03227e-07
5.03387e-07
5.03719e-07
5.04224e-07
5.04397e-07
5.04564e-07
5.05159e-07
5.05305e-07
5.05416e-07
5.05489e-07
5.05503e-07
5.05235e-07
5.04801e-07
5.04134e-07
5.02994e-07
5.01869e-07
5.00209e-07
4.98228e-07
4.962e-07
4.93898e-07
4.9134e-07
4.88827e-07
4.86198e-07
4.83268e-07
4.80279e-07
4.76712e-07
4.72538e-07
4.67743e-07
4.62187e-07
4.55868e-07
4.491e-07
4.41814e-07
4.34084e-07
4.25916e-07
4.1717e-07
4.07933e-07
3.98145e-07
3.87954e-07
3.76796e-07
3.66102e-07
3.5624e-07
3.47326e-07
3.38623e-07
3.2959e-07
3.21227e-07
3.1437e-07
3.16544e-07
2.99715e-07
3.17928e-07
2.05075e-07
6.4552e-07
7.20084e-07
1.34306e-06
3.93856e-07
3.71253e-07
3.59701e-07
3.74393e-07
3.74074e-07
3.77431e-07
3.79422e-07
3.82191e-07
3.83603e-07
3.85722e-07
3.87959e-07
3.89455e-07
3.9086e-07
3.92389e-07
3.94144e-07
3.95033e-07
3.96324e-07
3.97579e-07
3.98226e-07
3.99558e-07
4.00621e-07
4.01082e-07
4.02201e-07
4.03207e-07
4.03764e-07
4.05001e-07
4.05776e-07
4.06653e-07
4.07872e-07
4.08868e-07
4.09864e-07
4.11259e-07
4.12304e-07
4.13488e-07
4.14998e-07
4.16127e-07
4.1735e-07
4.18628e-07
4.19761e-07
4.20697e-07
4.21657e-07
4.22271e-07
4.22792e-07
4.23224e-07
4.23185e-07
4.23201e-07
4.23169e-07
4.22967e-07
4.22783e-07
4.22629e-07
4.22568e-07
4.22296e-07
4.21878e-07
4.2114e-07
4.19751e-07
4.17804e-07
4.15207e-07
4.11932e-07
4.08323e-07
4.04273e-07
3.99852e-07
3.95099e-07
3.89835e-07
3.84047e-07
3.77713e-07
3.70846e-07
3.62998e-07
3.55431e-07
3.48073e-07
3.41184e-07
3.34623e-07
3.2803e-07
3.22608e-07
3.20228e-07
3.24532e-07
3.12484e-07
3.17006e-07
2.20127e-07
6.51501e-07
7.01569e-07
1.34267e-06
3.21053e-07
2.87163e-07
3.02243e-07
2.91092e-07
3.03823e-07
3.02249e-07
3.04284e-07
3.05983e-07
3.07546e-07
3.08317e-07
3.09713e-07
3.11266e-07
3.12336e-07
3.13224e-07
3.14527e-07
3.15894e-07
3.16458e-07
3.17837e-07
3.1888e-07
3.19724e-07
3.21091e-07
3.22013e-07
3.23125e-07
3.2427e-07
3.25478e-07
3.26668e-07
3.2811e-07
3.29432e-07
3.30736e-07
3.32465e-07
3.34028e-07
3.35551e-07
3.37563e-07
3.39197e-07
3.41086e-07
3.43225e-07
3.44979e-07
3.46998e-07
3.49031e-07
3.50869e-07
3.52734e-07
3.54516e-07
3.56142e-07
3.57754e-07
3.59175e-07
3.60539e-07
3.61912e-07
3.63312e-07
3.64767e-07
3.66314e-07
3.6794e-07
3.69732e-07
3.71404e-07
3.72899e-07
3.74196e-07
3.7486e-07
3.75069e-07
3.74765e-07
3.73889e-07
3.72806e-07
3.71423e-07
3.69742e-07
3.6783e-07
3.65468e-07
3.626e-07
3.59217e-07
3.55236e-07
3.50306e-07
3.45495e-07
3.40376e-07
3.35392e-07
3.30949e-07
3.26838e-07
3.24571e-07
3.26534e-07
3.32894e-07
3.24114e-07
3.17144e-07
2.38564e-07
6.60837e-07
6.77788e-07
1.34187e-06
2.59777e-07
2.3163e-07
2.43166e-07
2.33379e-07
2.44256e-07
2.42444e-07
2.44257e-07
2.44934e-07
2.46177e-07
2.47093e-07
2.47694e-07
2.48924e-07
2.49837e-07
2.50855e-07
2.51831e-07
2.52831e-07
2.53685e-07
2.54968e-07
2.56115e-07
2.57093e-07
2.5831e-07
2.59444e-07
2.61035e-07
2.62189e-07
2.6369e-07
2.652e-07
2.66761e-07
2.68639e-07
2.70226e-07
2.72242e-07
2.74161e-07
2.76232e-07
2.78517e-07
2.8061e-07
2.82976e-07
2.85482e-07
2.87822e-07
2.90237e-07
2.92828e-07
2.95252e-07
2.97718e-07
3.00191e-07
3.02516e-07
3.04939e-07
3.07286e-07
3.09697e-07
3.1215e-07
3.14686e-07
3.17453e-07
3.20348e-07
3.23302e-07
3.26459e-07
3.29562e-07
3.32453e-07
3.35239e-07
3.37456e-07
3.39293e-07
3.40782e-07
3.41856e-07
3.42817e-07
3.43594e-07
3.44176e-07
3.44572e-07
3.44617e-07
3.44186e-07
3.43266e-07
3.41763e-07
3.39376e-07
3.36956e-07
3.3383e-07
3.30649e-07
3.28246e-07
3.26611e-07
3.27595e-07
3.33626e-07
3.41714e-07
3.34923e-07
3.19141e-07
2.63409e-07
6.73644e-07
6.49964e-07
1.34204e-06
2.07404e-07
1.84729e-07
1.93071e-07
1.84993e-07
1.93941e-07
1.92687e-07
1.94068e-07
1.94726e-07
1.95984e-07
1.96392e-07
1.97272e-07
1.98529e-07
1.99251e-07
2.0038e-07
2.01436e-07
2.02309e-07
2.03582e-07
2.0482e-07
2.06122e-07
2.07196e-07
2.0862e-07
2.10183e-07
2.11605e-07
2.13166e-07
2.14962e-07
2.16495e-07
2.18485e-07
2.20565e-07
2.22318e-07
2.2461e-07
2.26752e-07
2.29143e-07
2.31593e-07
2.33896e-07
2.36552e-07
2.3934e-07
2.41838e-07
2.44586e-07
2.47484e-07
2.50202e-07
2.53011e-07
2.55991e-07
2.58745e-07
2.61672e-07
2.64776e-07
2.67806e-07
2.71071e-07
2.74428e-07
2.78075e-07
2.81841e-07
2.85686e-07
2.89782e-07
2.93768e-07
2.97619e-07
3.01425e-07
3.04771e-07
3.07848e-07
3.10747e-07
3.13399e-07
3.16019e-07
3.18526e-07
3.20961e-07
3.23271e-07
3.25264e-07
3.26876e-07
3.28036e-07
3.2864e-07
3.28447e-07
3.28047e-07
3.26684e-07
3.25261e-07
3.24926e-07
3.25838e-07
3.30163e-07
3.39825e-07
3.48845e-07
3.42507e-07
3.20911e-07
2.92137e-07
6.89598e-07
6.15711e-07
1.34588e-06
1.73896e-07
1.55873e-07
1.62873e-07
1.5585e-07
1.63532e-07
1.62393e-07
1.63078e-07
1.64091e-07
1.64853e-07
1.65125e-07
1.66052e-07
1.6701e-07
1.67663e-07
1.68458e-07
1.69537e-07
1.7031e-07
1.71531e-07
1.72663e-07
1.73627e-07
1.74775e-07
1.76224e-07
1.77686e-07
1.78859e-07
1.8034e-07
1.82283e-07
1.83656e-07
1.85527e-07
1.87529e-07
1.89351e-07
1.91473e-07
1.93666e-07
1.95975e-07
1.98388e-07
2.00764e-07
2.03454e-07
2.06209e-07
2.08816e-07
2.11769e-07
2.14754e-07
2.17778e-07
2.20789e-07
2.24148e-07
2.27358e-07
2.30772e-07
2.3442e-07
2.37968e-07
2.41929e-07
2.45881e-07
2.50089e-07
2.54443e-07
2.58891e-07
2.63515e-07
2.68052e-07
2.72615e-07
2.77076e-07
2.81287e-07
2.85381e-07
2.89376e-07
2.9326e-07
2.97179e-07
3.01017e-07
3.04864e-07
3.08635e-07
3.12115e-07
3.15368e-07
3.18211e-07
3.20537e-07
3.22202e-07
3.23589e-07
3.23875e-07
3.24013e-07
3.25391e-07
3.2841e-07
3.3554e-07
3.47891e-07
3.57164e-07
3.51332e-07
3.30033e-07
3.34563e-07
7.14262e-07
5.83833e-07
1.364e-06
1.41695e-07
1.26387e-07
1.32058e-07
1.25847e-07
1.33763e-07
1.32628e-07
1.33815e-07
1.34845e-07
1.35202e-07
1.35803e-07
1.37094e-07
1.38117e-07
1.38967e-07
1.3974e-07
1.40897e-07
1.42134e-07
1.43383e-07
1.44465e-07
1.45476e-07
1.47202e-07
1.48538e-07
1.49986e-07
1.51424e-07
1.52892e-07
1.54939e-07
1.56491e-07
1.58275e-07
1.60196e-07
1.62212e-07
1.64281e-07
1.66317e-07
1.6871e-07
1.709e-07
1.73295e-07
1.75906e-07
1.78432e-07
1.81059e-07
1.83769e-07
1.8678e-07
1.89723e-07
1.92649e-07
1.9599e-07
1.99265e-07
2.02693e-07
2.06283e-07
2.10008e-07
2.13916e-07
2.1789e-07
2.22056e-07
2.26332e-07
2.30786e-07
2.35287e-07
2.39889e-07
2.44563e-07
2.49181e-07
2.53769e-07
2.58388e-07
2.63013e-07
2.67621e-07
2.72365e-07
2.77085e-07
2.819e-07
2.86684e-07
2.91276e-07
2.95743e-07
2.99824e-07
3.0345e-07
3.06465e-07
3.08878e-07
3.10166e-07
3.11884e-07
3.15357e-07
3.21166e-07
3.31769e-07
3.46339e-07
3.53604e-07
3.44655e-07
3.249e-07
3.62313e-07
7.29577e-07
5.29579e-07
1.39573e-06
1.49292e-07
1.38727e-07
1.4273e-07
1.38227e-07
1.42142e-07
1.41302e-07
1.42247e-07
1.42746e-07
1.42612e-07
1.43003e-07
1.43841e-07
1.44529e-07
1.44962e-07
1.45253e-07
1.46027e-07
1.46844e-07
1.47538e-07
1.48206e-07
1.48795e-07
1.50052e-07
1.50935e-07
1.51751e-07
1.52812e-07
1.53919e-07
1.55318e-07
1.56537e-07
1.5795e-07
1.59381e-07
1.61065e-07
1.62819e-07
1.64544e-07
1.66693e-07
1.68676e-07
1.7102e-07
1.73495e-07
1.76073e-07
1.78814e-07
1.81686e-07
1.84967e-07
1.88134e-07
1.91581e-07
1.95229e-07
1.98905e-07
2.02704e-07
2.06628e-07
2.10643e-07
2.1458e-07
2.18689e-07
2.22797e-07
2.26991e-07
2.3141e-07
2.35903e-07
2.40668e-07
2.45544e-07
2.50578e-07
2.55676e-07
2.60821e-07
2.65976e-07
2.71011e-07
2.76101e-07
2.81118e-07
2.86216e-07
2.9133e-07
2.96382e-07
3.01386e-07
3.06113e-07
3.10568e-07
3.14662e-07
3.18623e-07
3.21546e-07
3.23949e-07
3.27457e-07
3.32885e-07
3.42705e-07
3.55936e-07
3.61895e-07
3.57564e-07
3.56816e-07
4.39762e-07
7.71146e-07
5.47183e-07
1.53349e-06
1.13379e-07
1.14716e-07
1.13388e-07
1.1599e-07
1.17194e-07
1.17608e-07
1.18294e-07
1.18791e-07
1.19556e-07
1.20367e-07
1.20866e-07
1.21661e-07
1.22461e-07
1.23299e-07
1.24117e-07
1.2491e-07
1.25884e-07
1.26803e-07
1.27746e-07
1.28812e-07
1.2978e-07
1.30917e-07
1.31983e-07
1.33133e-07
1.34382e-07
1.35665e-07
1.36968e-07
1.38285e-07
1.39777e-07
1.41222e-07
1.42784e-07
1.44428e-07
1.46063e-07
1.47891e-07
1.49703e-07
1.51672e-07
1.53682e-07
1.55781e-07
1.57995e-07
1.6018e-07
1.6252e-07
1.64847e-07
1.67179e-07
1.69513e-07
1.71902e-07
1.74227e-07
1.76563e-07
1.79013e-07
1.8151e-07
1.84223e-07
1.87118e-07
1.90258e-07
1.93679e-07
1.97255e-07
2.01076e-07
2.0501e-07
2.09122e-07
2.13346e-07
2.17671e-07
2.22272e-07
2.2702e-07
2.32015e-07
2.37148e-07
2.42343e-07
2.47542e-07
2.52472e-07
2.57117e-07
2.61253e-07
2.63592e-07
2.64549e-07
2.67994e-07
2.75154e-07
2.86333e-07
3.03324e-07
3.19208e-07
3.17224e-07
2.98811e-07
3.05069e-07
4.3061e-07
6.58003e-07
4.96182e-07
1.54491e-06
)
;

boundaryField
{
    inlet
    {
        type            calculated;
        value           nonuniform List<scalar> 
23
(
5.81312e-06
5.78412e-06
5.75603e-06
5.72876e-06
5.7017e-06
5.67421e-06
5.64552e-06
5.61501e-06
5.58188e-06
5.54542e-06
5.50468e-06
5.45992e-06
5.40868e-06
5.32876e-06
5.26196e-06
5.18029e-06
5.07864e-06
4.95479e-06
4.80586e-06
4.63085e-06
4.42273e-06
4.2619e-06
3.95945e-06
)
;
    }
    outlet
    {
        type            calculated;
        value           nonuniform List<scalar> 
82
(
9.03751e-08
9.02151e-08
9.21967e-08
9.32626e-08
9.45862e-08
9.49185e-08
9.55734e-08
9.60013e-08
9.67427e-08
9.75335e-08
9.79471e-08
9.87028e-08
9.94673e-08
1.00264e-07
1.01037e-07
1.0177e-07
1.02712e-07
1.03586e-07
1.04477e-07
1.05515e-07
1.06423e-07
1.07519e-07
1.08533e-07
1.09629e-07
1.10836e-07
1.12067e-07
1.13313e-07
1.14555e-07
1.1599e-07
1.1735e-07
1.18821e-07
1.20371e-07
1.21877e-07
1.23587e-07
1.2524e-07
1.27045e-07
1.28863e-07
1.30748e-07
1.32736e-07
1.34651e-07
1.36725e-07
1.38758e-07
1.4078e-07
1.42795e-07
1.44876e-07
1.46892e-07
1.48928e-07
1.51116e-07
1.53363e-07
1.55857e-07
1.58538e-07
1.61455e-07
1.64634e-07
1.67918e-07
1.71417e-07
1.75006e-07
1.78799e-07
1.8277e-07
1.86941e-07
1.91538e-07
1.96398e-07
2.01595e-07
2.06964e-07
2.12386e-07
2.17792e-07
2.22863e-07
2.2751e-07
2.31362e-07
2.32889e-07
2.33073e-07
2.36662e-07
2.44973e-07
2.58548e-07
2.79001e-07
2.97513e-07
2.94041e-07
2.66887e-07
2.61677e-07
3.86291e-07
6.33263e-07
4.03522e-07
1.40106e-06
)
;
    }
    walls
    {
        type            calculated;
        value           nonuniform List<scalar> 0();
    }
    frontAndBack
    {
        type            empty;
    }
    procBoundary3to2
    {
        type            processor;
        value           nonuniform List<scalar> 
88
(
7.09897e-07
1.3836e-06
1.61742e-07
6.42062e-07
6.42062e-07
1.65653e-07
2.72258e-07
2.72258e-07
3.21456e-07
2.81352e-07
2.6228e-07
2.6228e-07
4.67458e-07
4.31702e-07
4.02382e-07
3.75257e-07
3.47141e-07
3.47141e-07
6.67909e-07
6.24279e-07
5.8081e-07
5.38493e-07
4.97203e-07
4.97203e-07
9.30437e-07
8.87819e-07
8.45599e-07
8.04078e-07
7.6336e-07
7.23296e-07
6.83468e-07
6.83468e-07
1.30622e-06
1.27235e-06
1.23787e-06
1.20291e-06
1.1675e-06
1.1318e-06
1.09588e-06
1.05977e-06
1.02352e-06
9.87027e-07
9.50261e-07
9.13149e-07
9.13149e-07
8.96206e-07
1.33072e-06
1.40014e-06
1.27308e-06
1.31304e-06
1.3538e-06
1.38804e-06
1.41689e-06
1.44257e-06
1.46554e-06
1.48698e-06
1.50556e-06
1.52137e-06
1.53481e-06
1.54539e-06
1.55356e-06
1.55912e-06
1.56215e-06
1.563e-06
1.56163e-06
1.55826e-06
1.55302e-06
1.54598e-06
1.53741e-06
1.52748e-06
1.5161e-06
1.50356e-06
1.48995e-06
1.4753e-06
1.45968e-06
1.44311e-06
1.42576e-06
1.4075e-06
1.3884e-06
1.36858e-06
1.34787e-06
1.3264e-06
1.30413e-06
1.281e-06
1.25711e-06
1.2324e-06
1.20687e-06
1.20687e-06
)
;
    }
    procBoundary3to6
    {
        type            processor;
        value           uniform 6.844e-11;
    }
    procBoundary3to7
    {
        type            processor;
        value           nonuniform List<scalar> 
16
(
2.1381e-08
8.12339e-07
8.33628e-07
6.46776e-07
5.66703e-07
4.99528e-07
4.22617e-07
3.51072e-07
3.51072e-07
2.84305e-07
2.29842e-07
1.83103e-07
1.54302e-07
1.26053e-07
1.36091e-07
1.16499e-07
)
;
    }
}


// ************************************************************************* //
