/*--------------------------------*- C++ -*----------------------------------*\
| =========                 |                                                 |
| \\      /  F ield         | OpenFOAM: The Open Source CFD Toolbox           |
|  \\    /   O peration     | Version:  2306                                  |
|   \\  /    A nd           | Website:  www.openfoam.com                      |
|    \\/     M anipulation  |                                                 |
\*---------------------------------------------------------------------------*/
FoamFile
{
    version     2.0;
    format      ascii;
    arch        "LSB;label=32;scalar=64";
    class       volSymmTensorField;
    location    "475";
    object      turbulenceProperties:R;
}
// * * * * * * * * * * * * * * * * * * * * * * * * * * * * * * * * * * * * * //

dimensions      [0 2 -2 0 0 0 0];

internalField   nonuniform List<symmTensor> 
1340
(
(4.90361e-07 2.98315e-08 -4.14968e-20 4.22542e-07 -5.37227e-21 4.96738e-07)
(8.43515e-07 3.63857e-08 2.09291e-20 1.0413e-06 2.42751e-21 8.87601e-07)
(1.03789e-07 -1.79814e-09 -8.12916e-20 9.73323e-08 -1.017e-20 1.13527e-07)
(3.89648e-07 9.89159e-09 -1.2723e-20 4.86519e-07 -1.43853e-21 4.13385e-07)
(4.86598e-07 3.12161e-08 6.13776e-21 4.23132e-07 6.62746e-22 4.95609e-07)
(8.45413e-07 3.60359e-08 -8.40781e-20 1.0428e-06 -9.51343e-21 8.88332e-07)
(1.00142e-07 -1.43917e-09 -0 1.29194e-07 -5.00773e-23 1.17502e-07)
(1.65587e-07 -5.4261e-09 -2.7507e-20 2.10434e-07 -3.24774e-21 1.81715e-07)
(1.00367e-07 -1.41869e-09 7.72586e-20 9.65469e-08 9.69122e-21 1.11455e-07)
(3.91135e-07 9.36065e-09 3.89288e-20 4.88449e-07 4.6003e-21 4.14836e-07)
(4.84389e-07 3.24179e-08 1.31107e-23 4.25223e-07 7.71922e-23 4.96272e-07)
(8.46864e-07 3.54822e-08 6.9266e-20 1.04319e-06 7.77847e-21 8.87854e-07)
(1.87317e-07 7.0172e-09 -3.50242e-20 2.40404e-07 -4.20694e-21 2.1372e-07)
(1.64467e-07 5.15105e-09 7.24607e-22 2.11707e-07 1.78231e-22 1.8851e-07)
(1.54368e-07 1.62398e-09 4.78726e-21 1.99592e-07 5.70935e-22 1.75828e-07)
(1.05199e-07 -2.55008e-09 -0 1.35463e-07 -1.00735e-23 1.23124e-07)
(1.69587e-07 -6.62558e-09 -1.25608e-22 2.1501e-07 -2.19985e-23 1.86051e-07)
(9.77963e-08 -1.08393e-09 5.53543e-22 9.66471e-08 9.52257e-23 1.1022e-07)
(3.92764e-07 9.01609e-09 3.25567e-22 4.90486e-07 6.01954e-23 4.16422e-07)
(4.83499e-07 3.34906e-08 2.87543e-24 4.28223e-07 2.49845e-24 4.98069e-07)
(8.47784e-07 3.45378e-08 3.73872e-22 1.04314e-06 6.88151e-23 8.869e-07)
(2.67612e-07 9.37096e-09 2.48268e-21 3.43786e-07 3.90359e-22 3.05682e-07)
(2.47941e-07 8.38228e-09 1.05397e-20 3.18707e-07 1.27598e-21 2.83306e-07)
(2.31855e-07 7.6416e-09 1.07127e-20 2.98154e-07 1.0835e-21 2.65028e-07)
(2.16951e-07 7.11537e-09 -3.72825e-20 2.79011e-07 -4.4666e-21 2.47961e-07)
(2.01368e-07 6.49383e-09 9.73394e-21 2.5904e-07 1.26044e-21 2.3024e-07)
(1.86672e-07 5.50203e-09 -1.48567e-20 2.40387e-07 -1.83118e-21 2.13396e-07)
(1.65007e-07 3.71894e-09 9.62165e-23 2.13028e-07 1.37092e-22 1.89425e-07)
(1.56079e-07 1.5855e-10 3.53847e-20 2.01954e-07 4.30206e-21 1.779e-07)
(1.10693e-07 -3.708e-09 -0 1.42129e-07 -7.19465e-23 1.29142e-07)
(1.73456e-07 -7.7627e-09 2.05019e-21 2.19368e-07 1.40978e-22 1.90253e-07)
(9.59934e-08 -7.76973e-10 -7.06307e-20 9.74956e-08 -8.83596e-21 1.09692e-07)
(3.94421e-07 8.8084e-09 -3.55524e-20 4.92584e-07 -4.20699e-21 4.18115e-07)
(4.83631e-07 3.44826e-08 -2.32402e-21 4.31748e-07 -2.29516e-22 5.00565e-07)
(8.48298e-07 3.31822e-08 9.14177e-21 1.04299e-06 1.03816e-21 8.85817e-07)
(3.74732e-07 8.70402e-09 2.05444e-20 4.83243e-07 2.13864e-21 4.28991e-07)
(3.5141e-07 8.80592e-09 -1.89822e-20 4.52956e-07 -2.31721e-21 4.02186e-07)
(3.28074e-07 8.59088e-09 -4.9468e-21 4.22766e-07 -6.17592e-22 3.75426e-07)
(3.05303e-07 8.17355e-09 -3.07325e-20 3.93384e-07 -3.58041e-21 3.49332e-07)
(2.82937e-07 7.66293e-09 -7.11218e-21 3.64569e-07 -6.88871e-22 3.23781e-07)
(2.61915e-07 7.07894e-09 4.98841e-21 3.37516e-07 6.22035e-22 2.99701e-07)
(2.43614e-07 6.27445e-09 2.54687e-21 3.14087e-07 2.80447e-22 2.78837e-07)
(2.28671e-07 5.71068e-09 5.23935e-23 2.9491e-07 2.56981e-23 2.61816e-07)
(2.14722e-07 5.34513e-09 6.23738e-21 2.76931e-07 6.77156e-22 2.4581e-07)
(2.00065e-07 4.86545e-09 -1.70831e-20 2.58085e-07 -1.96536e-21 2.29111e-07)
(1.86203e-07 3.9759e-09 3.24528e-20 2.40398e-07 3.90457e-21 2.13178e-07)
(1.65825e-07 2.25702e-09 -2.10643e-20 2.14509e-07 -2.727e-21 1.90555e-07)
(1.58096e-07 -1.32419e-09 -3.34103e-20 2.04498e-07 -3.99082e-21 1.80228e-07)
(1.16545e-07 -4.9066e-09 -0 1.4909e-07 7.32723e-23 1.35465e-07)
(1.77103e-07 -8.83373e-09 -1.95123e-21 2.23408e-07 -1.27668e-22 1.94223e-07)
(9.49003e-08 -4.85729e-10 6.70483e-20 9.90196e-08 8.3645e-21 1.09804e-07)
(3.95969e-07 8.71503e-09 3.36014e-20 4.94571e-07 3.95527e-21 4.19761e-07)
(4.84421e-07 3.53918e-08 2.21173e-21 4.35539e-07 2.19283e-22 5.03465e-07)
(8.48547e-07 3.1451e-08 -8.60168e-21 1.04277e-06 -9.69635e-22 8.8463e-07)
(5.09163e-07 -4.44722e-09 -2.22217e-21 6.58488e-07 -3.73735e-22 5.83835e-07)
(4.87271e-07 -2.49994e-09 -1.20159e-20 6.30332e-07 -1.45891e-21 5.58811e-07)
(4.65515e-07 -6.97816e-10 -2.14404e-20 6.02246e-07 -2.22486e-21 5.33888e-07)
(4.44034e-07 9.89099e-10 7.58386e-21 5.74426e-07 9.78227e-22 5.09236e-07)
(4.22873e-07 2.54006e-09 -1.95654e-21 5.46942e-07 -2.09489e-22 4.84914e-07)
(4.0195e-07 3.87607e-09 9.79568e-21 5.19708e-07 1.27271e-21 4.60834e-07)
(3.81037e-07 4.90144e-09 2.53082e-20 4.92474e-07 2.81525e-21 4.3676e-07)
(3.59936e-07 5.54662e-09 1.39768e-22 4.65026e-07 -4.18487e-23 4.12485e-07)
(3.38614e-07 5.81613e-09 1.49606e-20 4.37361e-07 1.70661e-21 3.87991e-07)
(3.17251e-07 5.78433e-09 -1.37182e-21 4.09714e-07 -2.19884e-22 3.63489e-07)
(2.96378e-07 5.56348e-09 1.31479e-21 3.82748e-07 2.09317e-22 3.39552e-07)
(2.75762e-07 5.2492e-09 1.35273e-20 3.56141e-07 1.54916e-21 3.1598e-07)
(2.56309e-07 4.84185e-09 -4.69358e-21 3.31057e-07 -6.11662e-22 2.93669e-07)
(2.39405e-07 4.20996e-09 -2.36131e-21 3.09337e-07 -2.57917e-22 2.74359e-07)
(2.25601e-07 3.81334e-09 7.83625e-23 2.91557e-07 2.68284e-23 2.58605e-07)
(2.12608e-07 3.59774e-09 -4.67723e-23 2.74769e-07 -3.80163e-24 2.43674e-07)
(1.98901e-07 3.24821e-09 -1.36985e-22 2.57097e-07 -8.06554e-23 2.28031e-07)
(1.85881e-07 2.44893e-09 -1.76966e-20 2.40401e-07 -2.06358e-21 2.13029e-07)
(1.66901e-07 7.73296e-10 2.00359e-20 2.16117e-07 2.46748e-21 1.91871e-07)
(1.60385e-07 -2.8181e-09 -1.33715e-22 2.07182e-07 -7.62914e-23 1.82772e-07)
(1.22697e-07 -6.13858e-09 -0 1.56277e-07 4.51312e-24 1.42027e-07)
(1.8046e-07 -9.83312e-09 1.85265e-21 2.27065e-07 1.133e-22 1.97893e-07)
(9.44592e-08 -2.03779e-10 -6.83459e-20 1.01167e-07 -8.44933e-21 1.10496e-07)
(3.9738e-07 8.72587e-09 1.12644e-22 4.9641e-07 1.1806e-22 4.21322e-07)
(4.85589e-07 3.62085e-08 -6.29188e-21 4.39388e-07 -8.12086e-22 5.06536e-07)
(8.48408e-07 2.93571e-08 -4.70432e-23 1.04226e-06 -3.43452e-24 8.83163e-07)
(6.96698e-07 -4.51244e-08 2.13661e-21 8.7735e-07 2.06192e-23 7.87033e-07)
(6.79531e-07 -4.15941e-08 -1.34535e-20 8.58429e-07 -1.40931e-21 7.68989e-07)
(6.62028e-07 -3.80635e-08 -2.69163e-22 8.3886e-07 3.00542e-22 7.50455e-07)
(6.44238e-07 -3.45373e-08 1.22133e-20 8.18701e-07 1.10397e-21 7.31482e-07)
(6.26238e-07 -3.1037e-08 -1.30381e-20 7.98033e-07 -1.47834e-21 7.12147e-07)
(6.08063e-07 -2.75876e-08 2.37922e-21 7.76882e-07 4.17337e-22 6.92484e-07)
(5.89772e-07 -2.42183e-08 9.21336e-22 7.55312e-07 4.62423e-23 6.72554e-07)
(5.71407e-07 -2.09753e-08 -2.21036e-21 7.33357e-07 -8.59494e-23 6.52394e-07)
(5.52988e-07 -1.79047e-08 1.54403e-20 7.11034e-07 1.88063e-21 6.32022e-07)
(5.34472e-07 -1.50501e-08 2.17023e-20 6.88295e-07 2.18902e-21 6.11394e-07)
(5.15821e-07 -1.24426e-08 1.61404e-21 6.65113e-07 2.35135e-23 5.90477e-07)
(4.96985e-07 -1.00829e-08 5.70297e-21 6.41461e-07 5.51468e-22 5.69232e-07)
(4.77973e-07 -7.94187e-09 -6.14786e-21 6.17398e-07 -7.17395e-22 5.47693e-07)
(4.58837e-07 -5.96754e-09 -6.81894e-23 5.93032e-07 2.85831e-22 5.25942e-07)
(4.39705e-07 -4.10537e-09 3.23236e-20 5.6856e-07 3.55828e-21 5.04139e-07)
(4.207e-07 -2.33571e-09 4.43249e-23 5.44154e-07 -3.51075e-22 4.82432e-07)
(4.01861e-07 -6.92621e-10 -1.83948e-20 5.19868e-07 -2.08359e-21 4.6087e-07)
(3.83122e-07 7.39693e-10 -3.7586e-21 4.95634e-07 -4.07315e-22 4.39382e-07)
(3.64295e-07 1.8642e-09 -1.72936e-20 4.71236e-07 -1.95397e-21 4.17769e-07)
(3.45229e-07 2.62052e-09 -4.06774e-21 4.46517e-07 -3.65513e-22 3.95876e-07)
(3.25912e-07 3.01756e-09 1.38759e-22 4.21497e-07 -5.23561e-23 3.73707e-07)
(3.06525e-07 3.13512e-09 -2.13454e-20 3.96416e-07 -2.45838e-21 3.51477e-07)
(2.87551e-07 3.08049e-09 -1.40627e-21 3.71891e-07 -8.73744e-23 3.2971e-07)
(2.68685e-07 2.93453e-09 -5.19757e-21 3.4752e-07 -6.01122e-22 3.08131e-07)
(2.50822e-07 2.68102e-09 -3.89706e-23 3.24454e-07 2.33889e-23 2.87623e-07)
(2.35327e-07 2.20807e-09 2.24845e-21 3.0448e-07 1.81006e-22 2.69892e-07)
(2.22648e-07 1.96706e-09 -1.82414e-20 2.88107e-07 -2.10049e-21 2.55403e-07)
(2.10607e-07 1.88816e-09 1.6585e-20 2.72526e-07 2.09971e-21 2.41552e-07)
(1.97866e-07 1.65485e-09 1.52572e-20 2.56067e-07 1.8523e-21 2.26994e-07)
(1.857e-07 9.30515e-10 2.77654e-20 2.40388e-07 3.19e-21 2.12944e-07)
(1.68225e-07 -7.24796e-10 -3.23154e-20 2.1784e-07 -3.97384e-21 1.93363e-07)
(1.62927e-07 -4.31745e-09 -5.52946e-23 2.09981e-07 7.25336e-23 1.85511e-07)
(1.29098e-07 -7.39619e-09 -0 1.63632e-07 -2.71545e-24 1.48777e-07)
(1.83459e-07 -1.07547e-08 -1.74774e-21 2.30268e-07 -1.78701e-22 2.01196e-07)
(9.46283e-08 7.728e-11 1.74564e-20 1.03894e-07 2.15259e-21 1.11726e-07)
(3.98592e-07 8.82718e-09 7.50494e-21 4.98038e-07 8.80327e-22 4.22746e-07)
(4.86768e-07 3.69345e-08 -7.37611e-21 4.42979e-07 -9.64417e-22 5.09408e-07)
(8.48062e-07 2.6893e-08 1.89064e-24 1.04171e-06 6.51454e-24 8.81657e-07)
(7.0102e-07 -5.24982e-08 1.4126e-21 8.58119e-07 1.86978e-22 7.60104e-07)
(7.25556e-07 -8.55651e-08 1.83695e-21 8.81195e-07 1.16075e-22 8.04648e-07)
(6.45698e-07 -7.43104e-08 -9.10395e-23 7.69177e-07 -4.26174e-23 7.16269e-07)
(6.65988e-07 -6.83755e-08 3.35029e-22 7.92065e-07 4.5889e-23 7.27118e-07)
(6.69339e-07 -7.10146e-08 4.21625e-22 7.88744e-07 3.64888e-23 7.29765e-07)
(7.00594e-07 -7.60185e-08 1.90972e-22 8.24437e-07 7.52329e-24 7.62231e-07)
(7.18396e-07 -7.9346e-08 1.00722e-22 8.41832e-07 -3.3808e-23 7.80185e-07)
(7.35847e-07 -8.20926e-08 -1.50702e-21 8.59434e-07 -1.59105e-22 7.97562e-07)
(7.5118e-07 -8.45652e-08 -5.93164e-22 8.74532e-07 1.60398e-23 8.12858e-07)
(7.65539e-07 -8.67431e-08 1.34047e-21 8.89011e-07 1.4225e-22 8.27239e-07)
(7.7867e-07 -8.87204e-08 -0 9.02347e-07 -3.77847e-23 8.40487e-07)
(7.90475e-07 -9.04234e-08 -7.11866e-23 9.14576e-07 6.22166e-23 8.5248e-07)
(8.00705e-07 -9.18635e-08 2.7077e-21 9.25273e-07 2.65144e-22 8.62962e-07)
(8.09389e-07 -9.30274e-08 8.12557e-23 9.34562e-07 1.18069e-23 8.71966e-07)
(8.16802e-07 -9.39301e-08 2.77706e-21 9.42824e-07 2.69976e-22 8.79767e-07)
(8.22591e-07 -9.4581e-08 1.68591e-22 9.49479e-07 -3.39687e-23 8.86006e-07)
(8.26925e-07 -9.49669e-08 5.43131e-22 9.54838e-07 9.09871e-23 8.90851e-07)
(8.29868e-07 -9.51113e-08 2.00096e-21 9.58911e-07 1.9915e-22 8.94365e-07)
(8.31471e-07 -9.50141e-08 9.67021e-22 9.61769e-07 1.07605e-22 8.96592e-07)
(8.31832e-07 -9.46951e-08 2.59402e-21 9.63481e-07 1.76361e-22 8.97626e-07)
(8.30976e-07 -9.41564e-08 -2.29589e-21 9.64066e-07 -3.48622e-22 8.97489e-07)
(8.28995e-07 -9.34174e-08 -3.29991e-21 9.63584e-07 -2.43381e-22 8.96268e-07)
(8.2601e-07 -9.24789e-08 1.10375e-21 9.62196e-07 1.58579e-22 8.94076e-07)
(8.22107e-07 -9.13652e-08 -7.8939e-22 9.59935e-07 -1.4747e-22 8.90994e-07)
(8.17348e-07 -9.00818e-08 -2.25149e-21 9.56859e-07 -2.45827e-22 8.87076e-07)
(8.11804e-07 -8.8641e-08 -1.9205e-21 9.53019e-07 -6.47102e-23 8.82389e-07)
(8.05574e-07 -8.70489e-08 3.82359e-21 9.48522e-07 3.84618e-22 8.77023e-07)
(7.98748e-07 -8.53267e-08 -1.29131e-21 9.43421e-07 -1.88926e-22 8.71059e-07)
(7.91313e-07 -8.34716e-08 4.8297e-22 9.37688e-07 3.94008e-23 8.64477e-07)
(7.83389e-07 -8.14977e-08 -1.6738e-21 9.31444e-07 -1.22635e-22 8.57391e-07)
(7.74967e-07 -7.9409e-08 2.64668e-21 9.24648e-07 3.18908e-22 8.49782e-07)
(7.66102e-07 -7.72142e-08 1.61755e-21 9.17343e-07 1.44313e-22 8.41696e-07)
(7.56832e-07 -7.49227e-08 1.89989e-21 9.09548e-07 2.4073e-22 8.33165e-07)
(7.47148e-07 -7.25334e-08 4.66556e-21 9.01239e-07 3.70821e-22 8.24167e-07)
(7.371e-07 -7.00608e-08 -3.55918e-21 8.92444e-07 -4.65363e-22 8.14747e-07)
(7.26679e-07 -6.75036e-08 -1.96854e-21 8.83144e-07 -1.38683e-22 8.04885e-07)
(7.15875e-07 -6.48715e-08 1.66589e-22 8.73295e-07 1.30963e-23 7.94562e-07)
(7.04738e-07 -6.2168e-08 -2.28358e-21 8.62954e-07 -2.4435e-22 7.83821e-07)
(6.932e-07 -5.93997e-08 -9.08636e-22 8.52006e-07 -1.15283e-22 7.72584e-07)
(6.81283e-07 -5.65666e-08 -3.62032e-21 8.40479e-07 -3.3177e-22 7.60865e-07)
(6.69016e-07 -5.36791e-08 1.25369e-21 8.28387e-07 2.05855e-22 7.48687e-07)
(6.56339e-07 -5.07357e-08 1.59538e-21 8.15649e-07 8.92374e-23 7.35982e-07)
(6.43274e-07 -4.77454e-08 -4.06135e-21 8.02276e-07 -3.95287e-22 7.22768e-07)
(6.29798e-07 -4.47048e-08 3.21571e-21 7.88238e-07 3.91315e-22 7.09015e-07)
(6.15961e-07 -4.1623e-08 -1.0657e-22 7.73586e-07 -6.50241e-23 6.94771e-07)
(6.01746e-07 -3.85063e-08 -3.06444e-27 7.58283e-07 -1.61883e-23 6.80015e-07)
(5.87198e-07 -3.53651e-08 6.54353e-23 7.42373e-07 5.82189e-23 6.64788e-07)
(5.72386e-07 -3.22173e-08 3.24308e-21 7.25926e-07 2.13773e-22 6.49159e-07)
(5.5733e-07 -2.9087e-08 -1.12107e-20 7.08943e-07 -1.217e-21 6.33142e-07)
(5.42101e-07 -2.60092e-08 4.62464e-24 6.91488e-07 1.15722e-22 6.16801e-07)
(5.26751e-07 -2.30266e-08 2.73762e-23 6.73608e-07 -4.15478e-23 6.00186e-07)
(5.11278e-07 -2.01887e-08 -4.28497e-21 6.5528e-07 -4.5408e-22 5.83285e-07)
(4.95652e-07 -1.75328e-08 1.61328e-22 6.36472e-07 7.01477e-23 5.66069e-07)
(4.79844e-07 -1.5088e-08 -5.04364e-22 6.1716e-07 -4.72049e-23 5.48508e-07)
(4.63788e-07 -1.28508e-08 1.65612e-23 5.97298e-07 -9.38467e-24 5.30549e-07)
(4.47489e-07 -1.07886e-08 -2.38652e-21 5.76938e-07 -2.59863e-22 5.12219e-07)
(4.30977e-07 -8.84994e-09 2.0182e-23 5.56163e-07 -8.67239e-23 4.93575e-07)
(4.14353e-07 -6.98901e-09 -1.38033e-20 5.35134e-07 -1.51359e-21 4.74749e-07)
(3.97723e-07 -5.1972e-09 3.46711e-24 5.13997e-07 2.05834e-22 4.55865e-07)
(3.81128e-07 -3.51978e-09 1.54722e-20 4.92802e-07 1.72177e-21 4.36969e-07)
(3.64518e-07 -2.04615e-09 -1.77612e-23 4.7149e-07 -6.18923e-24 4.18008e-07)
(3.47742e-07 -8.71915e-10 1.65263e-20 4.49882e-07 1.85813e-21 3.98816e-07)
(3.3069e-07 -5.00864e-11 -1.00732e-21 4.27868e-07 -2.79285e-22 3.79282e-07)
(3.13369e-07 4.35682e-10 -1.37466e-20 4.05486e-07 -1.56127e-21 3.5943e-07)
(2.95948e-07 6.67637e-10 -1.97173e-22 3.82975e-07 3.88837e-23 3.39467e-07)
(2.78856e-07 7.47573e-10 -1.60392e-23 3.60887e-07 1.41431e-23 3.1986e-07)
(2.61731e-07 7.3983e-10 5.02734e-21 3.38761e-07 5.9819e-22 3.00275e-07)
(2.45472e-07 6.16822e-10 4.30558e-21 3.17746e-07 4.81532e-22 2.81594e-07)
(2.31384e-07 2.87002e-10 4.1776e-23 2.9954e-07 -8.95002e-24 2.65452e-07)
(2.19806e-07 1.88619e-10 -1.26704e-22 2.84568e-07 -1.94965e-23 2.52212e-07)
(2.08709e-07 2.31411e-10 8.27533e-23 2.70203e-07 -4.05328e-23 2.39443e-07)
(1.96945e-07 9.74649e-11 -1.44739e-20 2.54985e-07 -1.79542e-21 2.25988e-07)
(1.85648e-07 -5.70497e-10 -2.23924e-20 2.4035e-07 -2.54028e-21 2.12912e-07)
(1.69789e-07 -2.23013e-09 3.19075e-20 2.19666e-07 3.92816e-21 1.95024e-07)
(1.65708e-07 -5.81697e-09 1.53808e-20 2.12885e-07 1.7715e-21 1.88429e-07)
(1.35705e-07 -8.67034e-09 -0 1.71108e-07 -4.42824e-23 1.55671e-07)
(1.86059e-07 -1.15932e-08 -5.0799e-21 2.32982e-07 -5.40691e-22 2.04093e-07)
(9.53506e-08 3.72479e-10 4.52569e-20 1.07144e-07 5.53559e-21 1.13433e-07)
(3.99448e-07 8.99675e-09 -3.48665e-20 4.99287e-07 -4.28896e-21 4.23898e-07)
(4.87829e-07 3.7596e-08 1.842e-21 4.46186e-07 2.95018e-22 5.11924e-07)
(8.476e-07 2.40601e-08 1.85218e-24 1.04126e-06 -1.6472e-24 8.80267e-07)
(7.12127e-07 -7.07256e-08 -1.32851e-22 8.88549e-07 -8.77021e-24 7.78171e-07)
(5.79579e-07 -6.48913e-08 1.9232e-22 6.86202e-07 1.77555e-23 6.34005e-07)
(5.33667e-07 -5.9401e-08 -2.11978e-22 6.2207e-07 -2.59689e-23 5.84081e-07)
(5.82201e-07 -6.23332e-08 -7.68865e-23 6.84397e-07 -2.78134e-24 6.31829e-07)
(5.94541e-07 -6.62201e-08 5.89859e-25 6.94359e-07 2.43873e-24 6.45026e-07)
(6.14756e-07 -6.91209e-08 1.69806e-25 7.16418e-07 -3.56843e-23 6.6537e-07)
(6.27764e-07 -7.13569e-08 -1.52343e-21 7.28566e-07 -1.31453e-22 6.78234e-07)
(6.41737e-07 -7.34613e-08 6.14635e-22 7.42644e-07 9.50759e-23 6.92146e-07)
(6.5426e-07 -7.53858e-08 5.91217e-23 7.55093e-07 -3.24358e-23 7.04673e-07)
(6.66033e-07 -7.71289e-08 -9.73357e-22 7.67037e-07 -9.57214e-23 7.16516e-07)
(6.76709e-07 -7.86813e-08 -0 7.77972e-07 -2.06398e-23 7.27327e-07)
(6.86237e-07 -8.00186e-08 -1.85289e-21 7.87886e-07 -1.98979e-22 7.37043e-07)
(6.94576e-07 -8.11495e-08 -7.5362e-22 7.96709e-07 -3.08775e-23 7.45628e-07)
(7.0172e-07 -8.20738e-08 1.56362e-25 8.04447e-07 -2.38383e-23 7.53075e-07)
(7.07771e-07 -8.27922e-08 -1.89574e-21 8.11258e-07 -1.45704e-22 7.59485e-07)
(7.12533e-07 -8.331e-08 1.72633e-21 8.16817e-07 2.47418e-22 7.64661e-07)
(7.1616e-07 -8.36247e-08 1.86038e-21 8.21373e-07 1.15416e-22 7.68756e-07)
(7.18744e-07 -8.37489e-08 -1.41459e-21 8.2502e-07 -1.97865e-22 7.71859e-07)
(7.20236e-07 -8.36929e-08 -1.14945e-21 8.27632e-07 -9.70993e-23 7.73917e-07)
(7.20723e-07 -8.34543e-08 -5.78733e-22 8.29347e-07 -3.58096e-23 7.75017e-07)
(7.20297e-07 -8.30495e-08 -3.22666e-22 8.30234e-07 3.74998e-23 7.75246e-07)
(7.18989e-07 -8.24833e-08 2.87034e-21 8.30313e-07 2.83892e-22 7.74631e-07)
(7.1689e-07 -8.17698e-08 1.97922e-24 8.29659e-07 -2.99941e-23 7.7326e-07)
(7.14081e-07 -8.09104e-08 1.2452e-21 8.28378e-07 1.50368e-22 7.71209e-07)
(7.10598e-07 -7.99217e-08 1.44516e-21 8.2645e-07 1.19536e-22 7.68509e-07)
(7.06517e-07 -7.88047e-08 1.83793e-22 8.23975e-07 -3.44905e-23 7.6523e-07)
(7.0194e-07 -7.75756e-08 -1.15884e-21 8.21035e-07 -1.2418e-22 7.6147e-07)
(6.96844e-07 -7.62341e-08 -6.18422e-22 8.17585e-07 -4.00166e-23 7.572e-07)
(6.91314e-07 -7.47889e-08 1.56596e-24 8.13709e-07 1.65847e-23 7.52499e-07)
(6.85395e-07 -7.32455e-08 3.37631e-22 8.09444e-07 3.03772e-23 7.47407e-07)
(6.7909e-07 -7.16073e-08 8.85541e-24 8.04769e-07 3.17136e-23 7.41918e-07)
(6.72452e-07 -6.98809e-08 2.31764e-21 7.99734e-07 2.33283e-22 7.36082e-07)
(6.65476e-07 -6.80708e-08 3.89193e-24 7.94305e-07 -3.57545e-23 7.29883e-07)
(6.58197e-07 -6.61761e-08 1.70004e-23 7.88524e-07 7.30597e-23 7.23352e-07)
(6.50616e-07 -6.42058e-08 3.99299e-21 7.82361e-07 4.19304e-22 7.16481e-07)
(6.42717e-07 -6.21577e-08 1.2153e-21 7.75788e-07 2.64656e-23 7.09247e-07)
(6.34526e-07 -6.00386e-08 -2.21984e-21 7.68819e-07 -2.1986e-22 7.01668e-07)
(6.26029e-07 -5.7848e-08 1.43715e-21 7.61426e-07 1.74892e-22 6.93722e-07)
(6.17198e-07 -5.55877e-08 -4.26398e-24 7.5356e-07 -4.60224e-23 6.85374e-07)
(6.08033e-07 -5.32623e-08 -1.70925e-21 7.45203e-07 -1.97025e-22 6.76616e-07)
(5.9852e-07 -5.08683e-08 -1.51447e-21 7.3634e-07 -1.14801e-22 6.67428e-07)
(5.88656e-07 -4.84102e-08 1.36549e-21 7.2695e-07 1.91194e-22 6.578e-07)
(5.78395e-07 -4.58887e-08 2.19285e-21 7.16963e-07 2.16348e-22 6.47679e-07)
(5.67741e-07 -4.32996e-08 1.16751e-21 7.06383e-07 2.11289e-22 6.37063e-07)
(5.56733e-07 -4.06542e-08 9.31946e-21 6.95242e-07 9.49509e-22 6.25989e-07)
(5.45321e-07 -3.79489e-08 1.06634e-24 6.83468e-07 -1.17174e-22 6.14398e-07)
(5.3358e-07 -3.51994e-08 6.65406e-24 6.71135e-07 -2.66547e-23 6.02362e-07)
(5.21541e-07 -3.24207e-08 -3.20878e-21 6.5826e-07 -2.5272e-22 5.89905e-07)
(5.09243e-07 -2.96367e-08 7.02715e-21 6.44864e-07 7.64618e-22 5.7706e-07)
(4.96755e-07 -2.68846e-08 1.18947e-22 6.31003e-07 -1.45262e-22 5.63887e-07)
(4.84117e-07 -2.4205e-08 -8.52999e-21 6.16702e-07 -9.08523e-22 5.50417e-07)
(4.71325e-07 -2.16433e-08 3.15352e-23 6.01935e-07 -1.29384e-23 5.36638e-07)
(4.58359e-07 -1.92363e-08 -9.88068e-21 5.8667e-07 -1.05298e-21 5.22523e-07)
(4.45182e-07 -1.70052e-08 4.85462e-22 5.70879e-07 1.66255e-22 5.08038e-07)
(4.31717e-07 -1.49411e-08 3.22531e-21 5.54497e-07 3.35972e-22 4.93115e-07)
(4.17953e-07 -1.30083e-08 -1.89623e-21 5.37559e-07 -2.71489e-22 4.77763e-07)
(4.03899e-07 -1.11575e-08 -5.46643e-21 5.2012e-07 -5.89964e-22 4.62018e-07)
(3.89641e-07 -9.34982e-09 -1.20954e-22 5.02318e-07 1.30679e-23 4.45987e-07)
(3.75266e-07 -7.58889e-09 3.24076e-24 4.84269e-07 -2.2581e-24 4.29774e-07)
(3.60813e-07 -5.92962e-09 1.25699e-22 4.66013e-07 2.32289e-23 4.13419e-07)
(3.46258e-07 -4.46519e-09 -1.19725e-23 4.4751e-07 -9.23823e-23 3.96889e-07)
(3.31484e-07 -3.28822e-09 -1.5691e-20 4.28615e-07 -1.7384e-21 3.80055e-07)
(3.16411e-07 -2.44377e-09 5.58731e-21 4.09251e-07 7.90021e-22 3.62835e-07)
(3.01054e-07 -1.90686e-09 1.30557e-20 3.89468e-07 1.56176e-21 3.45265e-07)
(2.85571e-07 -1.59544e-09 1.94353e-20 3.69496e-07 2.17648e-21 3.2754e-07)
(2.70333e-07 -1.41291e-09 -4.42977e-23 3.49822e-07 -1.46241e-22 3.10067e-07)
(2.54927e-07 -1.31302e-09 -1.16962e-20 3.29925e-07 -1.37677e-21 2.92456e-07)
(2.40272e-07 -1.33009e-09 -4.08115e-21 3.10976e-07 -4.58569e-22 2.75608e-07)
(2.27574e-07 -1.53381e-09 -7.55503e-21 2.94537e-07 -8.09884e-22 2.61048e-07)
(2.17065e-07 -1.50392e-09 1.17895e-20 2.80943e-07 1.4122e-21 2.49029e-07)
(2.06902e-07 -1.35634e-09 -3.67182e-21 2.67801e-07 -4.34186e-22 2.3734e-07)
(1.96121e-07 -1.41123e-09 1.41297e-20 2.53844e-07 1.81874e-21 2.25001e-07)
(1.85718e-07 -2.04382e-09 3.86861e-20 2.40287e-07 4.62388e-21 2.1293e-07)
(1.71579e-07 -3.73479e-09 1.76458e-20 2.21581e-07 2.00867e-21 1.9684e-07)
(1.68711e-07 -7.30957e-09 6.2585e-23 2.15881e-07 -3.48734e-23 1.91513e-07)
(1.42458e-07 -9.9483e-09 -0 1.78648e-07 1.2606e-23 1.6265e-07)
(1.88227e-07 -1.23451e-08 4.80755e-21 2.35185e-07 5.83491e-22 2.06559e-07)
(9.64956e-08 7.03476e-10 1.55366e-22 1.10802e-07 7.32816e-23 1.15472e-07)
(4.00094e-07 9.19981e-09 3.30962e-20 5.00386e-07 4.01968e-21 4.24982e-07)
(4.88546e-07 3.82302e-08 1.8855e-20 4.48754e-07 2.38603e-21 5.13772e-07)
(8.47238e-07 2.08484e-08 1.84215e-24 1.04128e-06 -1.67576e-23 8.79387e-07)
(5.53219e-07 -5.15978e-08 4.81532e-22 6.69534e-07 5.63347e-23 5.96512e-07)
(4.93909e-07 -5.51698e-08 4.98917e-22 5.74623e-07 4.09703e-23 5.35285e-07)
(4.76991e-07 -5.47899e-08 -2.59197e-23 5.49473e-07 -2.00604e-23 5.18235e-07)
(5.2018e-07 -5.83563e-08 -3.91582e-22 6.0579e-07 -3.77968e-23 5.61772e-07)
(5.26694e-07 -6.05306e-08 4.65686e-23 6.09169e-07 1.59694e-23 5.68373e-07)
(5.40929e-07 -6.23684e-08 1.56954e-22 6.2438e-07 1.68867e-23 5.82465e-07)
(5.51456e-07 -6.40851e-08 -2.02484e-24 6.34367e-07 -4.21609e-24 5.92926e-07)
(5.62486e-07 -6.57112e-08 5.74787e-25 6.45513e-07 -1.12066e-24 6.03955e-07)
(5.72487e-07 -6.71838e-08 -2.06292e-25 6.55611e-07 2.79115e-25 6.14005e-07)
(5.81783e-07 -6.85263e-08 -2.00003e-24 6.65097e-07 -1.27898e-24 6.23398e-07)
(5.90068e-07 -6.96994e-08 -0 6.73628e-07 9.71614e-25 6.31827e-07)
(5.97611e-07 -7.07146e-08 -3.18604e-24 6.81603e-07 -3.14238e-24 6.3956e-07)
(6.0417e-07 -7.15772e-08 2.01577e-25 6.88625e-07 -6.45038e-25 6.46357e-07)
(6.09783e-07 -7.22758e-08 5.40318e-25 6.94807e-07 1.10736e-23 6.52255e-07)
(6.14494e-07 -7.28199e-08 4.40743e-22 7.00182e-07 3.40049e-23 6.57299e-07)
(6.18273e-07 -7.32031e-08 -3.67123e-22 7.04727e-07 -4.63544e-23 6.61456e-07)
(6.21146e-07 -7.34421e-08 3.60435e-24 7.08414e-07 1.13761e-23 6.64752e-07)
(6.23232e-07 -7.35229e-08 -3.89297e-24 7.11488e-07 2.23449e-24 6.67307e-07)
(6.24478e-07 -7.34761e-08 -3.51659e-24 7.13729e-07 6.25623e-24 6.69062e-07)
(6.24893e-07 -7.32803e-08 5.56902e-22 7.15234e-07 6.29445e-23 6.70028e-07)
(6.24666e-07 -7.29617e-08 3.00546e-22 7.16187e-07 1.75149e-23 6.70388e-07)
(6.23765e-07 -7.25154e-08 9.47637e-24 7.16546e-07 -3.47037e-24 6.7011e-07)
(6.22267e-07 -7.1959e-08 -3.17125e-25 7.16354e-07 1.30839e-24 6.69267e-07)
(6.20166e-07 -7.12891e-08 3.56044e-24 7.15601e-07 8.6608e-25 6.6785e-07)
(6.17618e-07 -7.05144e-08 2.61569e-24 7.14489e-07 -2.84874e-23 6.66012e-07)
(6.14632e-07 -6.96489e-08 -1.77138e-21 7.12964e-07 -1.75326e-22 6.63757e-07)
(6.11216e-07 -6.8688e-08 2.23503e-22 7.11043e-07 5.25222e-23 6.6109e-07)
(6.07443e-07 -6.76422e-08 -2.43172e-24 7.08794e-07 -4.91062e-24 6.58082e-07)
(6.03348e-07 -6.65134e-08 -2.35948e-23 7.06246e-07 -8.30035e-24 6.5476e-07)
(5.98952e-07 -6.53062e-08 -3.26582e-22 7.03408e-07 -3.46672e-23 6.51144e-07)
(5.94279e-07 -6.40237e-08 1.1381e-24 7.00292e-07 7.06399e-25 6.4725e-07)
(5.89362e-07 -6.26698e-08 8.74966e-24 6.96927e-07 2.37081e-23 6.43109e-07)
(5.84185e-07 -6.12466e-08 1.28711e-21 6.93272e-07 1.32587e-22 6.38697e-07)
(5.7878e-07 -5.97531e-08 2.093e-24 6.89366e-07 -1.41913e-23 6.34042e-07)
(5.73153e-07 -5.81938e-08 1.16193e-23 6.85198e-07 -1.06722e-23 6.29145e-07)
(5.67283e-07 -5.657e-08 -1.15974e-21 6.80727e-07 -8.60418e-23 6.23977e-07)
(5.61173e-07 -5.48802e-08 2.10775e-21 6.75948e-07 2.10713e-22 6.18535e-07)
(5.54811e-07 -5.3125e-08 -1.37537e-21 6.7084e-07 -1.69075e-22 6.12801e-07)
(5.48185e-07 -5.13037e-08 -8.47642e-25 6.65376e-07 3.76464e-23 6.06757e-07)
(5.41258e-07 -4.94166e-08 1.6141e-21 6.59498e-07 1.82342e-22 6.00358e-07)
(5.34032e-07 -4.74604e-08 1.43536e-21 6.5321e-07 1.24516e-22 5.93601e-07)
(5.26487e-07 -4.54364e-08 8.84831e-24 6.46472e-07 -1.40071e-23 5.8646e-07)
(5.18562e-07 -4.33382e-08 6.50852e-24 6.39204e-07 -1.42142e-23 5.78867e-07)
(5.103e-07 -4.11678e-08 -1.07176e-21 6.31454e-07 -1.61857e-22 5.70861e-07)
(5.01669e-07 -3.89276e-08 -4.73445e-21 6.23165e-07 -4.76952e-22 5.62402e-07)
(4.92654e-07 -3.66154e-08 9.37863e-25 6.1431e-07 4.51729e-23 5.53471e-07)
(4.83335e-07 -3.42472e-08 5.87491e-24 6.04967e-07 9.92755e-24 5.4414e-07)
(4.7371e-07 -3.18344e-08 -2.76204e-23 5.95109e-07 -1.98925e-23 5.34399e-07)
(4.63842e-07 -2.94047e-08 -1.78028e-21 5.84783e-07 -1.9337e-22 5.24304e-07)
(4.53788e-07 -2.69911e-08 -1.11859e-22 5.74026e-07 9.09205e-24 5.13899e-07)
(4.43576e-07 -2.46349e-08 -6.57061e-23 5.62842e-07 1.98262e-23 5.03203e-07)
(4.33214e-07 -2.23757e-08 3.91728e-21 5.5122e-07 4.05081e-22 4.92212e-07)
(4.22681e-07 -2.0248e-08 -1.49677e-21 5.39124e-07 -1.95517e-22 4.80898e-07)
(4.11916e-07 -1.82645e-08 -5.5586e-24 5.26496e-07 -1.56293e-23 4.69202e-07)
(4.00835e-07 -1.64074e-08 -3.04883e-21 5.13265e-07 -2.96868e-22 4.57047e-07)
(3.89422e-07 -1.4642e-08 3.89183e-21 4.99454e-07 4.88032e-22 4.44436e-07)
(3.77662e-07 -1.2919e-08 5.14874e-21 4.85092e-07 6.25419e-22 4.31375e-07)
(3.6561e-07 -1.1207e-08 1.4008e-20 4.70271e-07 1.51034e-21 4.17939e-07)
(3.53356e-07 -9.52188e-09 -3.88366e-23 4.55103e-07 -1.73585e-22 4.04228e-07)
(3.40946e-07 -7.92689e-09 -1.2494e-20 4.39625e-07 -1.37845e-21 3.90285e-07)
(3.28367e-07 -6.51649e-09 3.31638e-21 4.23802e-07 4.47933e-22 3.76084e-07)
(3.15536e-07 -5.37955e-09 -1.30876e-22 4.07523e-07 -8.06888e-23 3.61529e-07)
(3.02393e-07 -4.55225e-09 -7.0153e-21 3.9073e-07 -8.84045e-22 3.46562e-07)
(2.8897e-07 -3.99813e-09 -1.80681e-20 3.735e-07 -2.09272e-21 3.31236e-07)
(2.7539e-07 -3.64241e-09 -1.66405e-20 3.56021e-07 -1.78515e-21 3.15708e-07)
(2.61959e-07 -3.38679e-09 9.17746e-21 3.38707e-07 1.12837e-21 3.00322e-07)
(2.48255e-07 -3.21108e-09 -7.46592e-22 3.21024e-07 -1.14531e-22 2.84667e-07)
(2.35202e-07 -3.14603e-09 3.88132e-21 3.04148e-07 4.47115e-22 2.69658e-07)
(2.23868e-07 -3.24004e-09 -1.08916e-21 2.89458e-07 -1.42511e-22 2.56655e-07)
(2.14386e-07 -3.09829e-09 4.37514e-23 2.77211e-07 1.2673e-23 2.45823e-07)
(2.0516e-07 -2.86494e-09 9.08107e-24 2.65306e-07 -5.62825e-23 2.35221e-07)
(1.95369e-07 -2.8624e-09 -1.60704e-20 2.52627e-07 -1.96164e-21 2.24012e-07)
(1.85894e-07 -3.48342e-09 -1.52378e-20 2.40188e-07 -1.76595e-21 2.12982e-07)
(1.73591e-07 -5.23306e-09 8.34746e-23 2.23586e-07 5.57928e-23 1.98811e-07)
(1.71933e-07 -8.792e-09 7.08843e-24 2.18971e-07 2.27441e-24 1.9476e-07)
(1.493e-07 -1.12166e-08 -0 1.862e-07 -6.6592e-24 1.69662e-07)
(1.89971e-07 -1.30166e-08 -4.72759e-21 2.36895e-07 -5.83858e-22 2.08618e-07)
(9.80513e-08 1.11519e-09 5.92979e-23 1.14869e-07 -2.19723e-23 1.17823e-07)
(3.99957e-07 9.37715e-09 -1.98919e-20 5.00673e-07 -2.4195e-21 4.25448e-07)
(4.89378e-07 3.89199e-08 -1.79008e-20 4.51014e-07 -2.27269e-21 5.15331e-07)
(8.47316e-07 1.73355e-08 2.41729e-22 1.04207e-06 6.11535e-23 8.79279e-07)
(4.74999e-07 -4.57432e-08 -4.35754e-22 5.66894e-07 -4.42529e-23 5.09093e-07)
(4.44326e-07 -5.14954e-08 9.6083e-25 5.11252e-07 1.16815e-23 4.78884e-07)
(4.31534e-07 -5.11482e-08 -1.14163e-25 4.92358e-07 9.17844e-24 4.66138e-07)
(4.62832e-07 -5.34543e-08 3.74036e-22 5.33874e-07 3.55529e-23 4.97438e-07)
(4.6667e-07 -5.47617e-08 -4.39345e-23 5.34833e-07 -1.44826e-23 5.01176e-07)
(4.7779e-07 -5.61639e-08 -1.48982e-22 5.4686e-07 -1.19609e-23 5.12242e-07)
(4.86063e-07 -5.74712e-08 -4.79036e-25 5.54826e-07 2.09571e-24 5.20522e-07)
(4.94565e-07 -5.86858e-08 -3.26211e-26 5.63507e-07 1.68072e-24 5.29064e-07)
(5.0222e-07 -5.97858e-08 1.5e-22 5.71289e-07 3.15621e-23 5.36798e-07)
(5.0932e-07 -6.07732e-08 9.0613e-22 5.78637e-07 8.76061e-23 5.44014e-07)
(5.15673e-07 -6.16427e-08 -0 5.85266e-07 -5.98108e-24 5.5052e-07)
(5.2141e-07 -6.2392e-08 4.88223e-22 5.91413e-07 3.45476e-23 5.56448e-07)
(5.26409e-07 -6.30236e-08 -7.04558e-22 5.9687e-07 -8.92718e-23 5.61678e-07)
(5.30684e-07 -6.35341e-08 -5.65913e-22 6.01676e-07 -2.88877e-23 5.66223e-07)
(5.34268e-07 -6.39243e-08 8.78908e-22 6.05883e-07 1.02635e-22 5.70116e-07)
(5.37176e-07 -6.41983e-08 3.52675e-22 6.09496e-07 1.97784e-23 5.73371e-07)
(5.39367e-07 -6.43596e-08 7.48916e-25 6.12431e-07 1.88008e-23 5.75948e-07)
(5.40975e-07 -6.44053e-08 1.2886e-21 6.14913e-07 1.49289e-22 5.77977e-07)
(5.41942e-07 -6.43475e-08 1.04053e-21 6.16791e-07 7.26374e-23 5.79403e-07)
(5.42302e-07 -6.41832e-08 -5.29542e-22 6.18125e-07 -7.19596e-23 5.80256e-07)
(5.42177e-07 -6.39224e-08 -2.88259e-22 6.19062e-07 -6.35381e-23 5.80656e-07)
(5.41555e-07 -6.35681e-08 -2.61455e-21 6.19561e-07 -2.59333e-22 5.80591e-07)
(5.40459e-07 -6.31256e-08 -1.5712e-24 6.1963e-07 2.91502e-23 5.8008e-07)
(5.38942e-07 -6.25982e-08 -6.98608e-22 6.1933e-07 -7.05301e-23 5.79176e-07)
(5.3713e-07 -6.19936e-08 -2.4216e-25 6.18818e-07 1.2703e-23 5.78001e-07)
(5.34924e-07 -6.13173e-08 -5.72467e-24 6.1791e-07 -4.65463e-24 5.76453e-07)
(5.3243e-07 -6.05638e-08 4.15381e-24 6.16779e-07 9.57133e-25 5.74637e-07)
(5.29711e-07 -5.97503e-08 -1.84941e-24 6.15453e-07 -2.94052e-25 5.72612e-07)