/*--------------------------------*- C++ -*----------------------------------*\
| =========                 |                                                 |
| \\      /  F ield         | OpenFOAM: The Open Source CFD Toolbox           |
|  \\    /   O peration     | Version:  2306                                  |
|   \\  /    A nd           | Website:  www.openfoam.com                      |
|    \\/     M anipulation  |                                                 |
\*---------------------------------------------------------------------------*/
FoamFile
{
    version     2.0;
    format      ascii;
    arch        "LSB;label=32;scalar=64";
    class       volSymmTensorField;
    location    "475";
    object      turbulenceProperties:devReff;
}
// * * * * * * * * * * * * * * * * * * * * * * * * * * * * * * * * * * * * * //

dimensions      [0 2 -2 0 0 0 0];

internalField   nonuniform List<symmTensor> 
1340
(
(5.37936e-08 7.83547e-08 -1.08995e-19 -1.24337e-07 -1.41107e-20 7.05433e-08)
(-2.12353e-07 9.58356e-08 5.5125e-20 3.08588e-07 6.39378e-21 -9.62347e-08)
(-2.88001e-09 -4.73487e-09 -2.14058e-19 -1.9882e-08 -2.67798e-20 2.2762e-08)
(-1.05849e-07 2.60438e-08 -3.34988e-20 1.49203e-07 -3.78754e-21 -4.33538e-08)
(4.76664e-08 8.19754e-08 1.61181e-20 -1.18998e-07 1.74041e-21 7.13316e-08)
(-2.10974e-07 9.49116e-08 -2.21446e-19 3.08908e-07 -2.50566e-20 -9.7934e-08)
(-4.07101e-08 -3.78712e-09 -0 3.57387e-08 -1.31777e-22 4.97134e-09)
(-5.34763e-08 -1.42764e-08 -7.23723e-20 6.45179e-08 -8.54497e-21 -1.10416e-08)
(-6.37935e-09 -3.73551e-09 2.03428e-19 -1.64373e-08 2.55177e-20 2.28167e-08)
(-1.06187e-07 2.46411e-08 1.02477e-19 1.49982e-07 1.21099e-20 -4.37957e-08)
(4.13803e-08 8.5114e-08 3.44226e-23 -1.1396e-07 2.0267e-22 7.25801e-08)
(-2.08347e-07 9.34514e-08 1.8243e-19 3.08737e-07 2.04866e-20 -1.00391e-07)
(-6.98699e-08 1.85038e-08 -9.23559e-20 7.01167e-08 -1.10934e-20 -2.46755e-10)
(-6.26269e-08 1.35764e-08 1.90982e-21 6.18839e-08 4.69758e-22 7.43058e-10)
(-5.85372e-08 4.27671e-09 1.26071e-20 6.05592e-08 1.50354e-21 -2.02205e-09)
(-4.22643e-08 -6.70956e-09 -0 3.73652e-08 -2.65047e-23 4.89911e-09)
(-5.42717e-08 -1.7431e-08 -3.30459e-22 6.52289e-08 -5.7875e-23 -1.09572e-08)
(-9.8948e-09 -2.85391e-09 1.45744e-21 -1.29205e-08 2.50722e-22 2.28153e-08)
(-1.06485e-07 2.37291e-08 8.56846e-22 1.50706e-07 1.58426e-22 -4.4221e-08)
(3.56179e-08 8.79116e-08 7.5479e-24 -1.09481e-07 6.55834e-24 7.38629e-08)
(-2.05847e-07 9.09632e-08 9.84678e-22 3.08673e-07 1.81241e-22 -1.02826e-07)
(-1.00521e-07 2.47361e-08 6.55341e-21 1.00551e-07 1.03041e-21 -3.03799e-11)
(-9.33474e-08 2.21179e-08 2.78108e-20 9.33802e-08 3.36688e-21 -3.28291e-11)
(-8.74706e-08 2.0159e-08 2.82607e-20 8.74301e-08 2.85833e-21 4.04752e-11)
(-8.18297e-08 1.8768e-08 -9.8339e-20 8.18641e-08 -1.17814e-20 -3.43107e-11)
(-7.60823e-08 1.71263e-08 2.56715e-20 7.60192e-08 3.32418e-21 6.31299e-11)
(-7.06975e-08 1.45073e-08 -3.91729e-20 7.09317e-08 -4.82829e-21 -2.3415e-10)
(-6.36349e-08 9.80077e-09 2.53566e-22 6.29178e-08 3.61287e-22 7.17089e-10)
(-5.94168e-08 4.17475e-10 9.31706e-20 6.13772e-08 1.13277e-20 -1.96038e-09)
(-4.37458e-08 -9.75487e-09 -0 3.89545e-08 -1.89274e-22 4.79124e-09)
(-5.49878e-08 -2.04212e-08 5.3934e-21 6.57903e-08 3.70867e-22 -1.08025e-08)
(-1.33405e-08 -2.04558e-09 -1.85954e-19 -9.38547e-09 -2.3263e-20 2.27259e-08)
(-1.06878e-07 2.31771e-08 -9.35473e-20 1.51413e-07 -1.10696e-20 -4.45345e-08)
(3.05728e-08 9.04955e-08 -6.09911e-21 -1.05588e-07 -6.02339e-22 7.5015e-08)
(-2.03859e-07 8.73933e-08 2.40771e-20 3.08903e-07 2.73424e-21 -1.05044e-07)
(-1.43534e-07 2.30263e-08 5.43496e-20 1.43529e-07 5.65773e-21 5.71262e-12)
(-1.34269e-07 2.32869e-08 -5.01976e-20 1.34265e-07 -6.12775e-21 4.23111e-12)
(-1.25153e-07 2.27079e-08 -1.30757e-20 1.25142e-07 -1.63245e-21 1.09568e-11)
(-1.16344e-07 2.15943e-08 -8.11943e-20 1.16364e-07 -9.45931e-21 -1.98689e-11)
(-1.07805e-07 2.02353e-08 -1.8781e-20 1.07756e-07 -1.81908e-21 4.88845e-11)
(-9.97594e-08 1.86843e-08 1.31665e-20 9.97839e-08 1.64181e-21 -2.45516e-11)
(-9.29567e-08 1.65548e-08 6.71977e-21 9.29816e-08 7.39944e-22 -2.48643e-11)
(-8.73876e-08 1.5064e-08 1.38207e-22 8.73423e-08 6.77881e-23 4.52943e-11)
(-8.20241e-08 1.40978e-08 1.64511e-20 8.20527e-08 1.786e-21 -2.85674e-11)
(-7.65343e-08 1.28309e-08 -4.50506e-20 7.64723e-08 -5.18293e-21 6.19787e-11)
(-7.13349e-08 1.04824e-08 8.55612e-20 7.15505e-08 1.02943e-20 -2.1565e-10)
(-6.44829e-08 5.94733e-09 -5.55051e-20 6.38009e-08 -7.18575e-21 6.82035e-10)
(-6.01427e-08 -3.48614e-09 -8.79579e-20 6.20192e-08 -1.05065e-20 -1.87651e-09)
(-4.5125e-08 -1.29063e-08 -0 4.0482e-08 1.92735e-22 4.64302e-09)
(-5.56135e-08 -2.3237e-08 -5.1327e-21 6.6193e-08 -3.3583e-22 -1.05795e-08)
(-1.66929e-08 -1.27872e-09 1.7651e-19 -5.84852e-09 2.20202e-20 2.25414e-08)
(-1.07323e-07 2.29256e-08 8.83913e-20 1.52058e-07 1.04046e-20 -4.47354e-08)
(2.60954e-08 9.28603e-08 5.80308e-21 -1.02159e-07 5.75351e-22 7.60634e-08)
(-2.02191e-07 8.28352e-08 -2.2655e-20 3.09347e-07 -2.55381e-21 -1.07155e-07)
(-1.97484e-07 -1.17625e-08 -5.87743e-21 1.97468e-07 -9.88495e-22 1.66227e-11)
(-1.89251e-07 -6.61393e-09 -3.17898e-20 1.89235e-07 -3.85975e-21 1.57197e-11)
(-1.80921e-07 -1.84661e-09 -5.67372e-20 1.80907e-07 -5.88758e-21 1.38378e-11)
(-1.72563e-07 2.61788e-09 2.00725e-20 1.72551e-07 2.58911e-21 1.13628e-11)
(-1.64204e-07 6.72331e-09 -5.17877e-21 1.64193e-07 -5.54497e-22 1.08853e-11)
(-1.55841e-07 1.02588e-08 2.59262e-20 1.55831e-07 3.36848e-21 9.41692e-12)
(-1.47443e-07 1.29699e-08 6.69692e-20 1.47434e-07 7.44957e-21 8.45313e-12)
(-1.39003e-07 1.46727e-08 3.69731e-22 1.38996e-07 -1.10704e-22 6.71302e-12)
(-1.3056e-07 1.53794e-08 3.956e-20 1.30554e-07 4.51275e-21 6.19443e-12)
(-1.22197e-07 1.52882e-08 -3.62579e-21 1.22185e-07 -5.81162e-22 1.18282e-11)
(-1.14073e-07 1.46973e-08 3.47333e-21 1.14092e-07 5.52962e-22 -1.8637e-11)
(-1.06143e-07 1.38602e-08 3.5718e-20 1.06092e-07 4.09046e-21 5.09876e-11)
(-9.86244e-08 1.27785e-08 -1.23872e-20 9.86488e-08 -1.61429e-21 -2.4341e-11)
(-9.22358e-08 1.11068e-08 -6.22964e-21 9.22576e-08 -6.80441e-22 -2.17418e-11)
(-8.70084e-08 1.00584e-08 2.06695e-22 8.69629e-08 7.07644e-23 4.55033e-11)
(-8.19552e-08 9.48836e-09 -1.23353e-22 8.19815e-08 -1.00261e-23 -2.62895e-11)
(-7.67572e-08 8.56536e-09 -3.61221e-22 7.67012e-08 -2.12684e-22 5.60726e-11)
(-7.17657e-08 6.45595e-09 -4.66522e-20 7.19622e-08 -5.44008e-21 -1.96515e-10)
(-6.51533e-08 2.03739e-09 5.27883e-20 6.45176e-08 6.50101e-21 6.35677e-10)
(-6.07013e-08 -7.41784e-09 -3.51966e-22 6.24759e-08 -2.00815e-22 -1.77463e-09)
(-4.63855e-08 -1.61446e-08 -0 4.19312e-08 1.18696e-23 4.45431e-09)
(-5.61465e-08 -2.58641e-08 4.87305e-21 6.64383e-08 2.98014e-22 -1.02919e-08)
(-1.99575e-08 -5.36426e-10 -1.79913e-19 -2.29998e-09 -2.22419e-20 2.22575e-08)
(-1.078e-07 2.29477e-08 2.96235e-22 1.52635e-07 3.10479e-22 -4.48349e-08)
(2.20807e-08 9.49807e-08 -1.65046e-20 -9.91104e-08 -2.13023e-21 7.70297e-08)
(-2.00707e-07 7.73228e-08 -1.23906e-22 3.09875e-07 -9.04606e-24 -1.09168e-07)
(-2.38472e-07 -1.19129e-07 5.6407e-21 2.38455e-07 5.44352e-23 1.63121e-11)
(-2.36183e-07 -1.09822e-07 -3.55216e-20 2.36167e-07 -3.72102e-21 1.57515e-11)
(-2.33482e-07 -1.00511e-07 -7.10756e-22 2.33462e-07 7.93614e-22 2.01915e-11)
(-2.3038e-07 -9.12093e-08 3.22539e-20 2.30357e-07 2.91547e-21 2.25345e-11)
(-2.26879e-07 -8.19739e-08 -3.44358e-20 2.26858e-07 -3.90455e-21 2.05698e-11)
(-2.22974e-07 -7.28708e-08 6.28457e-21 2.22953e-07 1.10237e-21 2.09944e-11)
(-2.18666e-07 -6.39781e-08 2.43392e-21 2.18646e-07 1.22159e-22 2.07697e-11)
(-2.1395e-07 -5.54178e-08 -5.83991e-21 2.13929e-07 -2.27083e-22 2.08862e-11)
(-2.08824e-07 -4.73124e-08 4.08002e-20 2.08805e-07 4.96948e-21 1.8553e-11)
(-2.03282e-07 -3.97767e-08 5.7358e-20 2.03264e-07 5.78547e-21 1.77625e-11)
(-1.97338e-07 -3.28927e-08 4.2668e-21 1.97322e-07 6.21591e-23 1.63234e-11)
(-1.91023e-07 -2.66616e-08 1.508e-20 1.91007e-07 1.45822e-21 1.58132e-11)
(-1.84395e-07 -2.10061e-08 -1.6261e-20 1.84382e-07 -1.8975e-21 1.3343e-11)
(-1.77528e-07 -1.57884e-08 -1.8041e-22 1.77515e-07 7.56228e-22 1.2633e-11)
(-1.70503e-07 -1.08642e-08 8.55393e-20 1.70492e-07 9.41642e-21 1.15472e-11)
(-1.63382e-07 -6.18209e-09 1.17318e-22 1.63372e-07 -9.29217e-22 9.52439e-12)
(-1.56182e-07 -1.8333e-09 -4.86891e-20 1.56173e-07 -5.51506e-21 9.10504e-12)
(-1.48894e-07 1.9577e-09 -9.94762e-21 1.48886e-07 -1.07801e-21 7.89814e-12)
(-1.41488e-07 4.93275e-09 -4.57594e-20 1.41481e-07 -5.17026e-21 7.05534e-12)
(-1.33965e-07 6.93174e-09 -1.07599e-20 1.3396e-07 -9.66845e-22 5.39206e-12)
(-1.26369e-07 7.97866e-09 3.6689e-22 1.26364e-07 -1.38434e-22 5.19331e-12)
(-1.18789e-07 8.28557e-09 -5.6412e-20 1.18778e-07 -6.49706e-21 1.04753e-11)
(-1.11382e-07 8.13709e-09 -3.71466e-21 1.11402e-07 -2.30799e-22 -1.95196e-11)
(-1.04096e-07 7.7477e-09 -1.37225e-20 1.04045e-07 -1.58707e-21 5.05814e-11)
(-9.71411e-08 7.07502e-09 -1.0284e-22 9.71673e-08 6.17216e-23 -2.61485e-11)
(-9.12025e-08 5.82485e-09 5.93137e-21 9.12225e-08 4.77491e-22 -1.99809e-11)
(-8.63458e-08 5.18805e-09 -4.81111e-20 8.63017e-08 -5.53997e-21 4.40386e-11)
(-8.16315e-08 4.97931e-09 4.37368e-20 8.16566e-08 5.53719e-21 -2.51023e-11)
(-7.67544e-08 4.36343e-09 4.02292e-20 7.67061e-08 4.88405e-21 4.82622e-11)
(-7.19907e-08 2.4528e-09 7.31885e-20 7.21665e-08 8.40871e-21 -1.75717e-10)
(-6.56414e-08 -1.90933e-09 -8.51284e-20 6.50603e-08 -1.04683e-20 5.81122e-10)
(-6.10892e-08 -1.13624e-08 -1.45521e-22 6.27447e-08 1.9089e-22 -1.65554e-09)
(-4.75192e-08 -1.94492e-08 -0 4.32912e-08 -7.14062e-24 4.22803e-09)
(-5.65874e-08 -2.82863e-08 -4.59676e-21 6.6525e-08 -4.70005e-22 -9.93763e-09)
(-2.31307e-08 2.03415e-10 4.59484e-20 1.25771e-09 5.66601e-21 2.1873e-08)
(-1.08316e-07 2.3207e-08 1.97308e-20 1.5313e-07 2.31441e-21 -4.48141e-08)
(1.84887e-08 9.68618e-08 -1.93441e-20 -9.63502e-08 -2.52921e-21 7.78615e-08)
(-1.9952e-07 7.08362e-08 4.97996e-24 3.10552e-07 1.71593e-23 -1.11032e-07)
(-1.97303e-07 -1.4374e-07 3.8677e-21 2.32835e-07 5.11947e-22 -3.55321e-08)
(-1.7908e-07 -1.95837e-07 4.20432e-21 1.77138e-07 2.65666e-22 1.94183e-09)
(-1.57748e-07 -1.81227e-07 -2.22025e-22 1.4339e-07 -1.03934e-22 1.43579e-08)
(-1.6573e-07 -1.81594e-07 8.89781e-22 1.69109e-07 1.21874e-22 -3.37908e-09)
(-1.59994e-07 -1.89543e-07 1.12535e-21 1.58706e-07 9.73912e-23 1.28796e-09)
(-1.6272e-07 -2.00072e-07 5.02618e-22 1.6322e-07 1.98005e-23 -5.00079e-10)
(-1.62082e-07 -2.08298e-07 2.64413e-22 1.61958e-07 -8.8752e-23 1.24197e-10)
(-1.62201e-07 -2.15574e-07 -3.95741e-21 1.62338e-07 -4.17808e-22 -1.37533e-10)
(-1.62056e-07 -2.22196e-07 -1.55855e-21 1.62052e-07 4.21447e-23 3.67807e-12)
(-1.62285e-07 -2.28065e-07 3.52437e-21 1.62348e-07 3.74002e-22 -6.31929e-11)
(-1.62622e-07 -2.33342e-07 -0 1.6266e-07 -9.93767e-23 -3.81819e-11)
(-1.63205e-07 -2.37889e-07 -1.8728e-22 1.63285e-07 1.63681e-22 -8.01415e-11)
(-1.63884e-07 -2.41749e-07 7.12563e-21 1.63931e-07 6.97758e-22 -4.72039e-11)
(-1.64739e-07 -2.44877e-07 2.1389e-22 1.64754e-07 3.10795e-23 -1.55531e-11)
(-1.65861e-07 -2.47311e-07 7.31177e-21 1.65942e-07 7.10826e-22 -8.10128e-11)
(-1.67053e-07 -2.49077e-07 4.43982e-22 1.67104e-07 -8.9456e-23 -5.11991e-11)
(-1.68433e-07 -2.50141e-07 1.4306e-21 1.68486e-07 2.39659e-22 -5.24034e-11)
(-1.69955e-07 -2.50564e-07 5.2714e-21 1.69999e-07 5.24648e-22 -4.40529e-11)
(-1.7163e-07 -2.50345e-07 2.54793e-21 1.7168e-07 2.8352e-22 -4.98516e-11)
(-1.73432e-07 -2.49538e-07 6.83568e-21 1.73485e-07 4.64741e-22 -5.31545e-11)
(-1.7535e-07 -2.48146e-07 -6.05075e-21 1.75406e-07 -9.18781e-22 -5.57883e-11)
(-1.7735e-07 -2.46222e-07 -8.69765e-21 1.77388e-07 -6.41485e-22 -3.83244e-11)
(-1.79465e-07 -2.43769e-07 2.90943e-21 1.79513e-07 4.18006e-22 -4.7752e-11)
(-1.81643e-07 -2.40851e-07 -2.08094e-21 1.81691e-07 -3.8875e-22 -4.84382e-11)
(-1.83873e-07 -2.37483e-07 -5.93561e-21 1.83921e-07 -6.48073e-22 -4.77013e-11)
(-1.86133e-07 -2.33697e-07 -5.06328e-21 1.86172e-07 -1.70605e-22 -3.92238e-11)
(-1.88423e-07 -2.2951e-07 1.00812e-20 1.88468e-07 1.01407e-21 -4.45058e-11)
(-1.90706e-07 -2.2498e-07 -3.40478e-21 1.90751e-07 -4.98139e-22 -4.51999e-11)
(-1.92961e-07 -2.20098e-07 1.2735e-21 1.93002e-07 1.03892e-22 -4.05868e-11)
(-1.95182e-07 -2.14903e-07 -4.41369e-21 1.95227e-07 -3.23378e-22 -4.47221e-11)
(-1.97335e-07 -2.09405e-07 6.97942e-21 1.9738e-07 8.40976e-22 -4.47448e-11)
(-1.99402e-07 -2.03627e-07 4.26577e-21 1.99447e-07 3.80578e-22 -4.52712e-11)
(-2.01357e-07 -1.97595e-07 5.0106e-21 2.01403e-07 6.34881e-22 -4.52716e-11)
(-2.03183e-07 -1.91305e-07 1.23053e-20 2.03229e-07 9.78031e-22 -4.60409e-11)
(-2.04849e-07 -1.84796e-07 -9.38785e-21 2.04894e-07 -1.22746e-21 -4.42837e-11)
(-2.06341e-07 -1.78064e-07 -5.1927e-21 2.06388e-07 -3.65822e-22 -4.64894e-11)
(-2.07621e-07 -1.71134e-07 4.39471e-22 2.07661e-07 3.45487e-23 -3.97168e-11)
(-2.08686e-07 -1.64017e-07 -6.02471e-21 2.0873e-07 -6.44664e-22 -4.35463e-11)
(-2.09491e-07 -1.56728e-07 -2.39746e-21 2.09525e-07 -3.04177e-22 -3.39945e-11)
(-2.10029e-07 -1.49268e-07 -9.55328e-21 2.10056e-07 -8.75472e-22 -2.73355e-11)
(-2.10284e-07 -1.41663e-07 3.3086e-21 2.1031e-07 5.43268e-22 -2.61744e-11)
(-2.10229e-07 -1.33911e-07 4.21081e-21 2.1025e-07 2.35531e-22 -2.07781e-11)
(-2.0985e-07 -1.26033e-07 -1.07207e-20 2.09864e-07 -1.04343e-21 -1.36085e-11)
(-2.09137e-07 -1.1802e-07 8.48941e-21 2.09142e-07 1.03307e-21 -5.59435e-12)
(-2.08084e-07 -1.09896e-07 -2.81375e-22 2.08089e-07 -1.71682e-22 -4.40211e-12)
(-2.06673e-07 -1.01679e-07 -8.09186e-27 2.06673e-07 -4.27463e-23 6.07272e-13)
(-2.049e-07 -9.33938e-08 1.72805e-22 2.04894e-07 1.53747e-22 5.64424e-12)
(-2.02761e-07 -8.50897e-08 8.56535e-21 2.02756e-07 5.64599e-22 5.5144e-12)
(-2.00239e-07 -7.68302e-08 -2.96117e-20 2.0023e-07 -3.21458e-21 8.66723e-12)
(-1.97324e-07 -6.87081e-08 1.22168e-23 1.97312e-07 3.05701e-22 1.16345e-11)
(-1.94006e-07 -6.08369e-08 7.23287e-23 1.93995e-07 -1.09771e-22 1.04997e-11)
(-1.90266e-07 -5.33477e-08 -1.13228e-20 1.90255e-07 -1.19988e-21 1.092e-11)
(-1.86097e-07 -4.63388e-08 4.26386e-22 1.86086e-07 1.85398e-22 1.18798e-11)
(-1.81509e-07 -3.98867e-08 -1.33334e-21 1.81499e-07 -1.24791e-22 1.04502e-11)
(-1.76526e-07 -3.39815e-08 4.3793e-23 1.76515e-07 -2.4816e-23 1.11557e-11)
(-1.71205e-07 -2.85366e-08 -6.31253e-21 1.71196e-07 -6.87357e-22 9.70022e-12)
(-1.65614e-07 -2.34152e-08 5.33976e-23 1.65604e-07 -2.29454e-22 9.35883e-12)
(-1.59823e-07 -1.84958e-08 -3.65293e-20 1.59814e-07 -4.00557e-21 8.81303e-12)
(-1.53881e-07 -1.3756e-08 9.17676e-24 1.53873e-07 5.44803e-22 7.53776e-12)
(-1.47798e-07 -9.31643e-09 4.09531e-20 1.47791e-07 4.55731e-21 7.27629e-12)
(-1.41558e-07 -5.41524e-09 -4.70061e-23 1.41551e-07 -1.63801e-23 6.21853e-12)
(-1.3513e-07 -2.30701e-09 4.37269e-20 1.35124e-07 4.91643e-21 5.75686e-12)
(-1.28519e-07 -1.32479e-10 -2.66436e-21 1.28515e-07 -7.38707e-22 4.43701e-12)
(-1.21775e-07 1.15188e-09 -3.63442e-20 1.21771e-07 -4.12777e-21 4.46866e-12)
(-1.14992e-07 1.76428e-09 -5.21045e-22 1.14983e-07 1.02753e-22 9.17355e-12)
(-1.08322e-07 1.97452e-09 -4.23634e-23 1.08342e-07 3.73553e-23 -1.94881e-11)
(-1.01702e-07 1.95309e-09 1.32717e-20 1.01651e-07 1.57917e-21 5.03659e-11)
(-9.53399e-08 1.62758e-09 1.1361e-20 9.53671e-08 1.2706e-21 -2.72472e-11)
(-8.98804e-08 7.57035e-10 1.10194e-22 8.98981e-08 -2.36078e-23 -1.77329e-11)
(-8.54176e-08 4.97437e-10 -3.34152e-22 8.53745e-08 -5.14172e-23 4.31375e-11)
(-8.1066e-08 6.10214e-10 2.18215e-22 8.10893e-08 -1.06882e-22 -2.328e-11)
(-7.6533e-08 2.56969e-10 -3.81608e-20 7.64925e-08 -4.73367e-21 4.05177e-11)
(-7.2013e-08 -1.50364e-09 -5.90188e-20 7.21653e-08 -6.69532e-21 -1.52301e-10)
(-6.59457e-08 -5.87389e-09 8.40402e-20 6.54248e-08 1.03463e-20 5.2087e-10)
(-6.13071e-08 -1.53059e-08 4.04705e-20 6.28279e-08 4.66124e-21 -1.5208e-09)
(-4.85258e-08 -2.27963e-08 -0 4.45572e-08 -1.16429e-22 3.96851e-09)
(-5.69445e-08 -3.04895e-08 -1.33599e-20 6.64615e-08 -1.42199e-21 -9.51697e-09)
(-2.621e-08 9.80341e-10 1.19113e-19 4.82879e-09 1.45693e-20 2.13813e-08)
(-1.08884e-07 2.36448e-08 -9.16345e-20 1.53508e-07 -1.1272e-20 -4.46242e-08)
(1.53364e-08 9.85725e-08 4.82951e-21 -9.38465e-08 7.73503e-22 7.85101e-08)
(-1.98727e-07 6.33789e-08 4.87899e-24 3.11402e-07 -4.33905e-24 -1.12675e-07)
(-1.82873e-07 -1.60029e-07 -3.00599e-22 2.16311e-07 -1.98441e-23 -3.34381e-08)
(-1.35808e-07 -1.64164e-07 4.86537e-22 1.3393e-07 4.49182e-23 1.87818e-09)
(-1.22374e-07 -1.57094e-07 -5.60606e-22 1.1142e-07 -6.86784e-23 1.09542e-08)
(-1.3484e-07 -1.66081e-07 -2.04857e-22 1.37451e-07 -7.41064e-24 -2.61141e-09)
(-1.31812e-07 -1.74221e-07 1.55188e-24 1.30802e-07 6.41616e-24 1.00949e-09)
(-1.33158e-07 -1.81329e-07 4.45464e-25 1.33538e-07 -9.3613e-23 -3.80079e-10)
(-1.3242e-07 -1.87393e-07 -4.00074e-21 1.32301e-07 -3.45213e-22 1.19655e-10)
(-1.32546e-07 -1.93046e-07 1.61517e-21 1.32624e-07 2.49846e-22 -7.82877e-11)
(-1.32554e-07 -1.98208e-07 1.55446e-22 1.32561e-07 -8.52817e-23 -7.58813e-12)
(-1.32813e-07 -2.02861e-07 -2.56008e-21 1.32845e-07 -2.51762e-22 -3.26343e-11)
(-1.3319e-07 -2.06996e-07 -0 1.33214e-07 -5.42995e-23 -2.37062e-11)
(-1.33729e-07 -2.1057e-07 -4.87592e-21 1.33761e-07 -5.23616e-22 -3.19312e-11)
(-1.34403e-07 -2.136e-07 -1.98366e-21 1.3443e-07 -8.1275e-23 -2.61886e-11)
(-1.35219e-07 -2.1608e-07 4.11663e-25 1.35234e-07 -6.27605e-23 -1.48995e-11)
(-1.3623e-07 -2.18015e-07 -4.99203e-21 1.36282e-07 -3.83681e-22 -5.21525e-11)
(-1.37318e-07 -2.19419e-07 4.54675e-21 1.37342e-07 6.51641e-22 -2.43172e-11)
(-1.38566e-07 -2.20284e-07 4.90062e-21 1.38586e-07 3.04027e-22 -1.96143e-11)
(-1.39975e-07 -2.20643e-07 -3.72684e-21 1.40016e-07 -5.21292e-22 -4.11355e-11)
(-1.41475e-07 -2.20524e-07 -3.02871e-21 1.41505e-07 -2.55849e-22 -2.93705e-11)
(-1.43108e-07 -2.1992e-07 -1.52509e-21 1.43139e-07 -9.43661e-23 -3.08602e-11)
(-1.44851e-07 -2.18875e-07 -8.50378e-22 1.44886e-07 9.88296e-23 -3.44556e-11)
(-1.46691e-07 -2.17401e-07 7.56533e-21 1.46725e-07 7.48252e-22 -3.40737e-11)
(-1.48611e-07 -2.15536e-07 5.21701e-24 1.48637e-07 -7.90611e-23 -2.5327e-11)
(-1.50628e-07 -2.13284e-07 3.28241e-21 1.50664e-07 3.96377e-22 -3.58136e-11)
(-1.52691e-07 -2.1069e-07 3.80973e-21 1.52719e-07 3.1512e-22 -2.73167e-11)
(-1.54815e-07 -2.07755e-07 4.84538e-22 1.54842e-07 -9.09283e-23 -2.71012e-11)
(-1.56979e-07 -2.04524e-07 -3.05522e-21 1.5701e-07 -3.27396e-22 -3.06294e-11)
(-1.59158e-07 -2.00996e-07 -1.63051e-21 1.59184e-07 -1.05506e-22 -2.53321e-11)
(-1.61348e-07 -1.97195e-07 4.12895e-24 1.61369e-07 4.37286e-23 -2.17073e-11)
(-1.63535e-07 -1.93134e-07 8.90266e-22 1.63558e-07 8.00989e-23 -2.27512e-11)
(-1.65694e-07 -1.88824e-07 2.33511e-23 1.65714e-07 8.36266e-23 -1.95339e-11)
(-1.67815e-07 -1.84281e-07 6.11177e-21 1.67835e-07 6.15183e-22 -1.99617e-11)
(-1.69868e-07 -1.79517e-07 1.02638e-23 1.69881e-07 -9.42923e-23 -1.27449e-11)
(-1.71853e-07 -1.74532e-07 4.48365e-23 1.71868e-07 1.92686e-22 -1.50945e-11)
(-1.73736e-07 -1.69347e-07 1.05317e-20 1.73749e-07 1.10594e-21 -1.30557e-11)
(-1.75499e-07 -1.63957e-07 3.20566e-21 1.75509e-07 6.981e-23 -9.9962e-12)
(-1.77126e-07 -1.58381e-07 -5.85589e-21 1.77135e-07 -5.79986e-22 -8.42413e-12)
(-1.78598e-07 -1.52616e-07 3.79152e-21 1.78608e-07 4.61404e-22 -9.79518e-12)
(-1.79889e-07 -1.46667e-07 -1.12504e-23 1.79897e-07 -1.21429e-22 -8.58412e-12)
(-1.80978e-07 -1.40546e-07 -4.51027e-21 1.80982e-07 -5.199e-22 -3.89066e-12)
(-1.81854e-07 -1.34243e-07 -3.99675e-21 1.81858e-07 -3.02963e-22 -3.46355e-12)
(-1.82499e-07 -1.27771e-07 3.60399e-21 1.82505e-07 5.04626e-22 -5.99977e-12)
(-1.82884e-07 -1.2113e-07 5.78833e-21 1.82884e-07 5.71082e-22 -5.60107e-13)
(-1.83005e-07 -1.14308e-07 3.08215e-21 1.83002e-07 5.57791e-22 2.69893e-12)
(-1.82849e-07 -1.07337e-07 2.46056e-20 1.82847e-07 2.50693e-21 1.78428e-12)
(-1.82393e-07 -1.00205e-07 2.81569e-24 1.82387e-07 -3.09401e-22 6.16195e-12)
(-1.81631e-07 -9.29545e-08 1.7572e-23 1.81623e-07 -7.03896e-23 7.58211e-12)
(-1.80546e-07 -8.56252e-08 -8.4746e-21 1.80537e-07 -6.67451e-22 8.82758e-12)
(-1.79117e-07 -7.82807e-08 1.85611e-20 1.79105e-07 2.01962e-21 1.13119e-11)
(-1.77326e-07 -7.10198e-08 3.14215e-22 1.77312e-07 -3.8373e-22 1.3274e-11)
(-1.75152e-07 -6.39498e-08 -2.25363e-20 1.7514e-07 -2.40033e-21 1.26948e-11)
(-1.72572e-07 -5.71914e-08 8.33304e-23 1.72558e-07 -3.41892e-23 1.38195e-11)
(-1.69571e-07 -5.08417e-08 -2.61147e-20 1.69556e-07 -2.78304e-21 1.53997e-11)
(-1.66157e-07 -4.49561e-08 1.2834e-21 1.66143e-07 4.39523e-22 1.36532e-11)
(-1.62347e-07 -3.95103e-08 8.529e-21 1.62333e-07 8.88445e-22 1.42714e-11)
(-1.58196e-07 -3.4409e-08 -5.01585e-21 1.58183e-07 -7.18135e-22 1.31092e-11)
(-1.53761e-07 -2.95215e-08 -1.44636e-20 1.53747e-07 -1.56098e-21 1.35259e-11)
(-1.49105e-07 -2.47441e-08 -3.20103e-22 1.49093e-07 3.4584e-23 1.23585e-11)
(-1.44262e-07 -2.00866e-08 8.57776e-24 1.44252e-07 -5.97683e-24 1.0658e-11)
(-1.3923e-07 -1.56948e-08 3.32706e-22 1.39219e-07 6.14834e-23 1.08444e-11)
(-1.33984e-07 -1.1817e-08 -3.16848e-23 1.33975e-07 -2.44486e-22 9.64655e-12)
(-1.28497e-07 -8.69986e-09 -4.15147e-20 1.28488e-07 -4.59939e-21 8.78304e-12)
(-1.22775e-07 -6.46329e-09 1.47773e-20 1.22768e-07 2.08945e-21 7.06912e-12)
(-1.16871e-07 -5.04103e-09 3.45143e-20 1.16864e-07 4.12871e-21 7.38136e-12)
(-1.10883e-07 -4.21565e-09 5.13542e-20 1.10872e-07 5.75095e-21 1.10716e-11)
(-1.04955e-07 -3.73144e-09 -1.16989e-22 1.04972e-07 -3.86216e-22 -1.71509e-11)
(-9.90096e-08 -3.46589e-09 -3.08736e-20 9.89575e-08 -3.63416e-21 5.21716e-11)
(-9.32588e-08 -3.50928e-09 -1.07676e-20 9.32855e-08 -1.20988e-21 -2.66645e-11)
(-8.8299e-08 -4.0454e-09 -1.99263e-20 8.8313e-08 -2.13606e-21 -1.40316e-11)
(-8.42467e-08 -3.96589e-09 3.10894e-20 8.42029e-08 3.72402e-21 4.37969e-11)
(-8.02762e-08 -3.57629e-09 -9.68158e-21 8.02967e-08 -1.14483e-21 -2.04587e-11)
(-7.61042e-08 -3.72041e-09 3.72501e-20 7.60711e-08 4.79474e-21 3.31192e-11)
(-7.18405e-08 -5.38617e-09 1.01951e-19 7.19679e-08 1.21855e-20 -1.27412e-10)
(-6.60667e-08 -9.83522e-09 4.64687e-20 6.56098e-08 5.28965e-21 4.56883e-10)
(-6.13583e-08 -1.92294e-08 1.64643e-22 6.27317e-08 -9.17418e-23 -1.37341e-09)
(-4.94056e-08 -2.61524e-08 -0 4.57312e-08 3.3139e-23 3.67441e-09)
(-5.72327e-08 -3.24649e-08 1.26428e-20 6.62561e-08 1.53445e-21 -9.02336e-09)
(-2.91966e-08 1.85132e-09 4.08872e-22 8.45283e-09 1.92853e-22 2.07438e-08)
(-1.09624e-07 2.41696e-08 8.69499e-20 1.53861e-07 1.05605e-20 -4.42371e-08)
(1.27267e-08 1.00211e-07 4.94238e-20 -9.15776e-08 6.25438e-21 7.88509e-08)
(-1.98633e-07 5.49238e-08 4.85304e-24 3.12571e-07 -4.41469e-23 -1.13939e-07)
(-1.37361e-07 -1.33218e-07 1.24324e-21 1.62946e-07 1.45448e-22 -2.55852e-08)
(-1.07897e-07 -1.4627e-07 1.32276e-21 1.06098e-07 1.08623e-22 1.79983e-09)
(-1.00429e-07 -1.45151e-07 -6.86675e-23 9.15937e-08 -5.31447e-23 8.83488e-09)
(-1.11524e-07 -1.53491e-07 -1.02996e-21 1.13651e-07 -9.94146e-23 -2.12711e-09)
(-1.08555e-07 -1.58776e-07 1.22153e-22 1.07783e-07 4.1889e-23 7.72812e-10)
(-1.09427e-07 -1.63811e-07 4.12242e-22 1.09759e-07 4.43532e-23 -3.32145e-10)
(-1.08977e-07 -1.68447e-07 -5.32227e-24 1.08953e-07 -1.10819e-23 2.43628e-11)
(-1.09121e-07 -1.72789e-07 1.51141e-24 1.09199e-07 -2.94678e-24 -7.80737e-11)
(-1.09283e-07 -1.76715e-07 -5.42616e-25 1.09361e-07 7.34163e-25 -7.81891e-11)
(-1.09561e-07 -1.80288e-07 -5.26193e-24 1.09634e-07 -3.36491e-24 -7.28644e-11)
(-1.09928e-07 -1.83417e-07 -0 1.09965e-07 2.55684e-24 -3.68169e-11)
(-1.10498e-07 -1.86131e-07 -8.38611e-24 1.10581e-07 -8.27117e-24 -8.24213e-11)
(-1.11136e-07 -1.8844e-07 5.30687e-25 1.11208e-07 -1.69818e-24 -7.1929e-11)
(-1.11906e-07 -1.90314e-07 1.42275e-24 1.11977e-07 2.91587e-23 -7.04412e-11)
(-1.128e-07 -1.9178e-07 1.16075e-21 1.12869e-07 8.95557e-23 -6.97715e-11)
(-1.13822e-07 -1.92818e-07 -9.67008e-22 1.139e-07 -1.22098e-22 -7.74735e-11)
(-1.14925e-07 -1.93475e-07 9.49523e-24 1.14974e-07 2.99689e-23 -4.84752e-11)
(-1.16217e-07 -1.93711e-07 -1.02568e-23 1.1631e-07 5.88722e-24 -9.32676e-11)
(-1.17552e-07 -1.93609e-07 -9.26618e-24 1.17624e-07 1.64851e-23 -7.2481e-11)
(-1.19003e-07 -1.93111e-07 1.46757e-21 1.19066e-07 1.65874e-22 -6.32068e-11)
(-1.20566e-07 -1.92288e-07 7.92077e-22 1.20633e-07 4.616e-23 -6.73373e-11)
(-1.22229e-07 -1.91125e-07 2.49764e-23 1.22309e-07 -9.14668e-24 -7.99378e-11)
(-1.2396e-07 -1.89671e-07 -8.35883e-25 1.24036e-07 3.44867e-24 -7.6501e-11)
(-1.25753e-07 -1.87915e-07 9.38519e-24 1.25813e-07 2.28295e-24 -5.97613e-11)
(-1.27643e-07 -1.85883e-07 6.89522e-24 1.27716e-07 -7.50954e-23 -7.30346e-11)
(-1.29576e-07 -1.8361e-07 -4.66975e-21 1.29648e-07 -4.62198e-22 -7.18493e-11)
(-1.31555e-07 -1.81085e-07 5.89228e-22 1.31624e-07 1.38466e-22 -6.90226e-11)
(-1.33571e-07 -1.78335e-07 -6.41111e-24 1.33636e-07 -1.29466e-23 -6.50688e-11)
(-1.35617e-07 -1.75367e-07 -6.22091e-23 1.35682e-07 -2.18844e-23 -6.51549e-11)
(-1.37677e-07 -1.72192e-07 -8.61096e-22 1.37741e-07 -9.14067e-23 -6.42039e-11)
(-1.39738e-07 -1.68819e-07 3.00096e-24 1.398e-07 1.86265e-24 -6.19546e-11)
(-1.41791e-07 -1.65258e-07 2.30725e-23 1.41854e-07 6.25174e-23 -6.2851e-11)
(-1.4381e-07 -1.61515e-07 3.39425e-21 1.43865e-07 3.49647e-22 -5.46911e-11)
(-1.45798e-07 -1.57586e-07 5.51986e-24 1.45851e-07 -3.74265e-23 -5.34838e-11)
(-1.47732e-07 -1.53485e-07 3.06456e-23 1.47786e-07 -2.81477e-23 -5.42189e-11)
(-1.49589e-07 -1.49214e-07 -3.05904e-21 1.49638e-07 -2.26951e-22 -4.90381e-11)
(-1.51361e-07 -1.44769e-07 5.56005e-21 1.51406e-07 5.55843e-22 -4.53174e-11)
(-1.5303e-07 -1.40152e-07 -3.62846e-21 1.53072e-07 -4.46046e-22 -4.27778e-11)
(-1.54579e-07 -1.35361e-07 -2.23644e-24 1.54621e-07 9.93274e-23 -4.22004e-11)
(-1.55984e-07 -1.30396e-07 4.25914e-21 1.56019e-07 4.81148e-22 -3.56135e-11)
(-1.57238e-07 -1.25248e-07 3.78792e-21 1.57273e-07 3.28599e-22 -3.43615e-11)
(-1.58321e-07 -1.1992e-07 2.33533e-23 1.58355e-07 -3.69689e-23 -3.37122e-11)
(-1.5921e-07 -1.14396e-07 1.71799e-23 1.59237e-07 -3.75199e-23 -2.70766e-11)
(-1.59903e-07 -1.08679e-07 -2.82934e-21 1.59932e-07 -4.27288e-22 -2.83859e-11)
(-1.60373e-07 -1.02776e-07 -1.24999e-20 1.60399e-07 -1.25925e-21 -2.57249e-11)
(-1.60606e-07 -9.6682e-08 2.4764e-24 1.60626e-07 1.19278e-22 -2.01554e-11)
(-1.6059e-07 -9.0438e-08 1.55141e-23 1.6061e-07 2.62161e-23 -2.02977e-11)
(-1.603e-07 -8.4075e-08 -7.29459e-23 1.60318e-07 -5.25364e-23 -1.79164e-11)
(-1.59712e-07 -7.76666e-08 -4.70226e-21 1.59728e-07 -5.10748e-22 -1.5253e-11)
(-1.58804e-07 -7.13e-08 -2.95489e-22 1.58818e-07 2.40177e-23 -1.37843e-11)
(-1.57545e-07 -6.50855e-08 -1.73595e-22 1.57556e-07 5.23809e-23 -1.12109e-11)
(-1.55908e-07 -5.91271e-08 1.03513e-20 1.55918e-07 1.07041e-21 -9.28391e-12)
(-1.53879e-07 -5.35165e-08 -3.95605e-21 1.53887e-07 -5.16762e-22 -7.90825e-12)
(-1.51456e-07 -4.82865e-08 -1.46955e-23 1.51463e-07 -4.13198e-23 -7.2559e-12)
(-1.48657e-07 -4.33894e-08 -8.06262e-21 1.48662e-07 -7.85066e-22 -4.45188e-12)
(-1.45531e-07 -3.87321e-08 1.0295e-20 1.45535e-07 1.29098e-21 -4.42658e-12)
(-1.42128e-07 -3.41835e-08 1.36235e-20 1.42131e-07 1.65485e-21 -3.16613e-12)
(-1.38495e-07 -2.966e-08 3.70728e-20 1.38497e-07 3.99719e-21 -2.02852e-12)
(-1.34654e-07 -2.52031e-08 -1.02795e-22 1.34656e-07 -4.59456e-22 -1.96559e-12)
(-1.30592e-07 -2.0981e-08 -3.30692e-20 1.30593e-07 -3.6485e-21 -6.96201e-13)
(-1.26277e-07 -1.72449e-08 8.77631e-21 1.26278e-07 1.18539e-21 -7.13518e-13)
(-1.21679e-07 -1.42321e-08 -3.46244e-22 1.2168e-07 -2.1347e-22 -4.79868e-13)
(-1.16808e-07 -1.20389e-08 -1.85526e-20 1.16807e-07 -2.33794e-21 4.96229e-13)
(-1.11723e-07 -1.05686e-08 -4.77608e-20 1.11722e-07 -5.53186e-21 6.52576e-13)
(-1.06516e-07 -9.62339e-09 -4.39647e-20 1.06512e-07 -4.71644e-21 4.69125e-12)
(-1.01323e-07 -8.94338e-09 2.42346e-20 1.01343e-07 2.97965e-21 -1.96168e-11)
(-9.60551e-08 -8.4751e-09 -1.9705e-21 9.60066e-08 -3.02285e-22 4.84809e-11)
(-9.09279e-08 -8.29949e-09 1.02393e-20 9.09585e-08 1.17953e-21 -3.06518e-11)
(-8.64816e-08 -8.54473e-09 -2.87235e-21 8.64948e-08 -3.75833e-22 -1.31669e-11)
(-8.28507e-08 -8.1696e-09 1.15364e-22 8.28076e-08 3.34162e-23 4.3113e-11)
(-7.92781e-08 -7.55342e-09 2.39423e-23 7.92984e-08 -1.48389e-22 -2.03801e-11)
(-7.54793e-08 -7.54541e-09 -4.23621e-20 7.54542e-08 -5.17096e-21 2.50898e-11)
(-7.14802e-08 -9.17875e-09 -4.01514e-20 7.1583e-08 -4.65325e-21 -1.02775e-10)
(-6.60107e-08 -1.37782e-08 2.19781e-22 6.56208e-08 1.46897e-22 3.89947e-10)
(-6.12512e-08 -2.31242e-08 1.86436e-23 6.24655e-08 5.98203e-24 -1.21432e-09)
(-5.01693e-08 -2.94822e-08 -0 4.68195e-08 -1.75032e-23 3.34981e-09)
(-5.74746e-08 -3.42286e-08 -1.24317e-20 6.59151e-08 -1.53532e-21 -8.4405e-09)
(-3.20934e-08 2.93447e-09 1.56034e-22 1.21598e-08 -5.78171e-23 1.99336e-08)
(-1.10478e-07 2.46257e-08 -5.22388e-20 1.54014e-07 -6.35395e-21 -4.3536e-08)
(1.08411e-08 1.01994e-07 -4.69111e-20 -8.96954e-08 -5.95585e-21 7.88543e-08)
(-1.99116e-07 4.5675e-08 6.36899e-22 3.14017e-07 1.61125e-22 -1.14901e-07)
(-1.11785e-07 -1.21759e-07 -1.15988e-21 1.3282e-07 -1.17792e-22 -2.10347e-08)
(-8.91591e-08 -1.35723e-07 2.53239e-24 8.72352e-08 3.07881e-23 1.92398e-09)
(-8.35933e-08 -1.34417e-07 -3.00018e-25 7.62501e-08 2.41208e-23 7.34326e-09)
(-9.24269e-08 -1.40293e-07 9.81676e-22 9.40271e-08 9.33103e-23 -1.60023e-09)
(-8.99121e-08 -1.43872e-07 -1.15426e-22 8.91682e-08 -3.80491e-23 7.43826e-10)
(-9.07288e-08 -1.47668e-07 -3.91707e-22 9.08743e-08 -3.14479e-23 -1.45524e-10)
(-9.04882e-08 -1.51146e-07 -1.25984e-24 9.03535e-08 5.51161e-24 1.34743e-10)
(-9.07041e-08 -1.54378e-07 -8.58125e-26 9.0654e-08 4.42126e-24 5.01125e-11)
(-9.09034e-08 -1.57304e-07 3.9467e-22 9.08267e-08 8.30441e-23 7.66943e-11)
(-9.12407e-08 -1.59934e-07 2.38463e-21 9.11784e-08 2.30549e-22 6.23285e-11)
(-9.16358e-08 -1.62255e-07 -0 9.15481e-08 -1.57433e-23 8.76532e-11)
(-9.21799e-08 -1.64257e-07 1.28533e-21 9.21149e-08 9.09525e-23 6.49976e-11)
(-9.27997e-08 -1.65948e-07 -1.85518e-21 9.27312e-08 -2.35063e-22 6.8469e-11)
(-9.35172e-08 -1.67318e-07 -1.49034e-21 9.34416e-08 -7.60763e-23 7.55769e-11)
(-9.43485e-08 -1.6837e-07 2.31495e-21 9.42774e-08 2.70329e-22 7.10456e-11)
(-9.52847e-08 -1.69113e-07 9.29024e-22 9.52228e-08 5.21007e-23 6.18877e-11)
(-9.62874e-08 -1.69557e-07 1.97304e-24 9.62023e-08 4.95312e-23 8.51711e-11)
(-9.74353e-08 -1.69695e-07 3.39519e-21 9.73759e-08 3.93345e-22 5.94501e-11)
(-9.86467e-08 -1.69558e-07 2.74183e-21 9.8582e-08 1.91402e-22 6.47292e-11)