/*--------------------------------*- C++ -*----------------------------------*\
| =========                 |                                                 |
| \\      /  F ield         | OpenFOAM: The Open Source CFD Toolbox           |
|  \\    /   O peration     | Version:  2306                                  |
|   \\  /    A nd           | Website:  www.openfoam.com                      |
|    \\/     M anipulation  |                                                 |
\*---------------------------------------------------------------------------*/
FoamFile
{
    version     2.0;
    format      ascii;
    arch        "LSB;label=32;scalar=64";
    class       volScalarField;
    location    "525";
    object      turbulenceProperties:L;
}
// * * * * * * * * * * * * * * * * * * * * * * * * * * * * * * * * * * * * * //

dimensions      [0 1 0 0 0 0 0];

internalField   nonuniform List<scalar> 
10720
(
0.00178916
0.00171338
0.00164699
0.00158336
0.00154548
0.00152527
0.00152699
0.0015552
0.00161195
0.0017001
0.00182524
0.0019934
0.00221098
0.00249244
0.00286019
0.00334528
0.00400926
0.00491162
0.00628113
0.00817051
0.011715
0.0166904
0.0291017
0.0467096
0.0546943
0.056472
0.0575908
0.0591744
0.0605996
0.0614548
0.0618523
0.0620463
0.0621885
0.0623455
0.0625863
0.062953
0.0638647
0.0650202
0.0833552
0.0018828
0.00198104
0.00214047
0.00233276
0.00260318
0.0029897
0.00351488
0.00403409
0.00396956
0.00348029
0.00297189
0.0026007
0.0023772
0.00228677
0.00231393
0.0024469
0.00268211
0.00302787
0.00350751
0.00416049
0.00506184
0.00630314
0.00810034
0.0106569
0.0146865
0.0206335
0.030445
0.0433102
0.0512757
0.0542886
0.0551795
0.0555188
0.0557283
0.0558724
0.0559807
0.0560831
0.0562072
0.0564335
0.0565273
0.00386726
0.00387791
0.00390033
0.00395797
0.00405249
0.00417004
0.00432273
0.00451617
0.00473544
0.00498438
0.0052624
0.00548441
0.00552549
0.00534578
0.00500191
0.00478965
0.00499067
0.00555526
0.00657218
0.00777
0.0101254
0.0130516
0.0187092
0.0301154
0.041505
0.0541999
0.0690745
0.0853509
0.10118
0.115547
0.129243
0.143042
0.155787
0.166565
0.175305
0.182077
0.186344
0.187666
0.183759
0.00388514
0.00391215
0.00396875
0.00405742
0.00418866
0.00438254
0.00464794
0.00495708
0.00530274
0.00572803
0.00624553
0.00682954
0.00747727
0.00820249
0.00901978
0.00994351
0.0110085
0.0122572
0.0138297
0.0160363
0.0198628
0.0282128
0.0605262
0.233845
0.116419
0.0106148
0.0213819
0.0578544
0.107137
0.156023
0.19457
0.215836
0.222319
0.221015
0.217005
0.212398
0.207405
0.198332
0.175243
0.00473349
0.00475256
0.00480736
0.00489476
0.00499151
0.00510471
0.00522736
0.00534568
0.00545431
0.0055436
0.00561617
0.00566002
0.00567331
0.00565286
0.00564555
0.00571504
0.00621144
0.00655155
0.0131958
0.00542894
0.0084796
0.00857002
0.0649651
0.015261
0.0250047
0.0337517
0.0441644
0.0586222
0.0772608
0.0983365
0.119602
0.139448
0.158542
0.178022
0.19762
0.216527
0.233691
0.249393
0.247295
0.00471494
0.00471755
0.0047236
0.00476587
0.00484411
0.00498485
0.0052009
0.00548586
0.0057979
0.006182
0.00669463
0.00733612
0.00809999
0.00899243
0.0100035
0.0111269
0.0123242
0.013544
0.0147006
0.0157429
0.0166075
0.017255
0.0176527
0.0178905
0.0179241
0.017957
0.0174186
0.0228417
0.0157179
0.0446896
0.101285
0.175196
0.221675
0.241581
0.252162
0.25886
0.261727
0.27318
0.246069
0.00514935
0.005144
0.00515695
0.00517856
0.00522402
0.00529399
0.0053853
0.00550622
0.00565495
0.00583439
0.00604764
0.00630024
0.00660061
0.00695722
0.00738498
0.00792917
0.00862519
0.00933866
0.0106058
0.0152405
0.0689273
0.033181
0
0.00629976
0.0152067
0.0279775
0.0181589
0.0504579
0.0747602
0.0820918
0.103089
0.127634
0.152214
0.175435
0.1985
0.222854
0.247516
0.272826
0.28118
0.00517721
0.0052203
0.00529015
0.0053781
0.00549484
0.00565982
0.00587259
0.00612761
0.00643188
0.00681955
0.00730439
0.00786759
0.00849127
0.00916733
0.00988483
0.0106366
0.011403
0.0121667
0.0129046
0.0136158
0.0142893
0.0149394
0.0156042
0.016409
0.0173811
0.018336
0.0191712
0.0198509
0.0207708
0.0221757
0.0255537
0.0322007
0.0458795
0.156852
0.239693
0.234642
0.245767
0.257586
0.24244
0.00594552
0.00595079
0.00597417
0.00601655
0.00608395
0.00617905
0.00630018
0.00644968
0.00662767
0.00682784
0.00704718
0.00727877
0.00751145
0.00773427
0.00793578
0.00811808
0.00832374
0.0086122
0.00891662
0.00943601
0.0105662
0.0140638
0.0708096
0.184284
0
0
0.00696208
0.0113176
0.0206031
0.0401074
0.0260439
0.127675
0.186884
0.184935
0.202605
0.224475
0.249909
0.280373
0.298321
0.00595323
0.00597438
0.00601722
0.00608774
0.00619156
0.00634814
0.00655208
0.00679455
0.00708528
0.0074518
0.00790072
0.00842915
0.00903611
0.0097266
0.0105027
0.011364
0.0123029
0.0133033
0.0143392
0.0153902
0.0164311
0.0174563
0.0184901
0.0196693
0.0211332
0.0228227
0.0244977
0.0258939
0.0265993
0.0276269
0.0253434
0.0584593
0.0235833
0.0398046
0.0281356
0.0517131
0.104075
0.113516
0.1923
0.00656695
0.00655299
0.00655432
0.00656605
0.00659855
0.00665224
0.00672626
0.00682574
0.00695176
0.00710484
0.0072884
0.0075038
0.00775225
0.0080362
0.00835809
0.00873621
0.00921273
0.00979565
0.0104441
0.0111515
0.0117969
0.0125617
0.013528
0.0238823
0.107106
0.196895
0.660398
0
0
0
0.0120255
0.034929
0.0167807
0.106114
0.312451
0.250126
0.257429
0.283146
0.305317
0.0065969
0.00663897
0.00670166
0.00678716
0.00690187
0.00706186
0.00726049
0.00749346
0.00777413
0.0081244
0.00854725
0.00904133
0.00960449
0.0102366
0.0109348
0.0116914
0.0124947
0.0133283
0.0141727
0.0150139
0.0158438
0.0166744
0.0175448
0.0185618
0.0198307
0.0213174
0.0229298
0.024603
0.0263294
0.0280806
0.0298967
0.0319123
0.0357078
0.0424145
0.0582325
0.0368998
0.059558
0.0620463
0.0995372
0.00730141
0.00728544
0.0072829
0.00729213
0.00732135
0.00737279
0.00744657
0.00754702
0.00767638
0.00783505
0.00802511
0.00824731
0.00850056
0.00878306
0.00909294
0.00942285
0.00975521
0.0100989
0.0104903
0.0109484
0.0114636
0.0120113
0.0123716
0.0131751
0.0157216
0.0226785
0.0770971
0.166984
0.246846
1.1936
0
0
0.0108898
0.0443821
0.0411862
0.220841
0.30992
0.294199
0.308986
0.00733156
0.00737299
0.00743457
0.00752192
0.00764003
0.00779999
0.00799229
0.00821903
0.00849252
0.00882626
0.00922326
0.00968447
0.0102112
0.0108063
0.0114711
0.0122037
0.0130002
0.0138516
0.014745
0.0156704
0.0166199
0.0175999
0.0186432
0.0198434
0.0213121
0.0230546
0.0250006
0.0270864
0.0292882
0.0315336
0.0335967
0.0351714
0.036177
0.0376519
0.0445791
0.0979822
0.351733
0
0.0513272
0.00802
0.00799277
0.00797674
0.0079703
0.00798123
0.00801132
0.00806001
0.00813202
0.00822925
0.00835218
0.00850432
0.00868698
0.00890151
0.00915009
0.00943469
0.00975635
0.0101278
0.0105732
0.0110903
0.0116549
0.0122361
0.0127857
0.013241
0.0135736
0.0141569
0.015357
0.017564
0.0216466
0.0287621
0.13795
0.234989
2.66836
0
0
0.0257237
0.0337628
0.192898
0.33564
0.316533
0.00806143
0.00811222
0.00818187
0.00827714
0.0084014
0.00856339
0.0087515
0.00897394
0.00924123
0.00956006
0.00993527
0.0103681
0.010861
0.0114179
0.0120402
0.0127258
0.0134717
0.014269
0.0151061
0.0159735
0.0168671
0.0177944
0.0187869
0.0199207
0.0212838
0.0228853
0.0246789
0.0266338
0.0287725
0.0311277
0.0336938
0.0364806
0.0395121
0.0428215
0.0458357
0.0500426
0.0591206
0.284887
0
0.00878105
0.00874665
0.00872185
0.00870646
0.00870701
0.00872574
0.00876257
0.00882236
0.00890708
0.00901804
0.00915853
0.00933037
0.0095352
0.00977519
0.0100513
0.0103659
0.0107187
0.0111018
0.0115181
0.0119729
0.0124631
0.0129682
0.013476
0.0139751
0.0145312
0.0153003
0.0163212
0.0176073
0.0191025
0.0223797
0.0283122
0.275106
0.357863
0
0
0.0239401
0.093728
0.307413
0.333334
0.00882884
0.00888514
0.00895955
0.00906132
0.00919029
0.00935355
0.00953962
0.00975926
0.0100207
0.0103267
0.0106823
0.0110895
0.0115516
0.0120733
0.0126578
0.0133056
0.0140158
0.0147845
0.0156053
0.0164724
0.0173842
0.0183501
0.0193999
0.0205974
0.0220196
0.0236911
0.0255795
0.0276555
0.0299298
0.0324174
0.0350824
0.0377962
0.0403486
0.0424659
0.0438514
0.043643
0.0421697
0.0402121
0.40839
0.00956368
0.00952016
0.00948432
0.00945685
0.00944415
0.00944742
0.00946717
0.00950816
0.00957192
0.00965988
0.00977552
0.00992059
0.010097
0.0103073
0.0105536
0.0108385
0.0111631
0.0115362
0.011966
0.0124444
0.012951
0.0134606
0.0139626
0.0144941
0.0151342
0.0159628
0.0169645
0.0180208
0.0190141
0.0199781
0.021115
0.0246155
0.0403423
0.22931
0
0
0.157039
0.0343363
0.35571
0.00962026
0.00968375
0.00976469
0.00987418
0.0100086
0.0101728
0.0103589
0.0105773
0.0108331
0.0111279
0.0114663
0.0118505
0.0122846
0.0127746
0.0133237
0.0139338
0.0146064
0.0153388
0.0161279
0.0169702
0.0178655
0.0188236
0.0198712
0.0210596
0.0224546
0.0240811
0.0259172
0.0279419
0.0301705
0.0326328
0.0353311
0.0382325
0.041292
0.0442905
0.0469448
0.0475609
0.0478598
0.037338
0.0587993
0.0103792
0.0103272
0.0102811
0.0102428
0.0102184
0.0102084
0.0102143
0.0102401
0.0102879
0.010359
0.0104571
0.0105841
0.0107424
0.0109348
0.0111634
0.0114305
0.0117388
0.0120887
0.0124793
0.0129097
0.0133711
0.0138523
0.0143465
0.0148827
0.0155384
0.016391
0.017446
0.0185954
0.019701
0.0206512
0.0214847
0.0221023
0.0235514
0.0308676
0.207016
0
0
0.0543127
0.322006
0.010444
0.0105144
0.0106013
0.0107185
0.0108587
0.011024
0.0112114
0.0114296
0.0116804
0.011965
0.0122885
0.0126526
0.0130615
0.0135217
0.0140379
0.0146131
0.0152507
0.0159512
0.0167135
0.0175373
0.018426
0.01939
0.0204542
0.0216631
0.0230726
0.0247102
0.0265663
0.0286262
0.0309028
0.0334188
0.0361671
0.0390849
0.0420445
0.0447668
0.0469618
0.0472696
0.0473331
0.0398973
0.0353489
0.0112264
0.0111651
0.0111084
0.0110586
0.0110217
0.0109979
0.0109887
0.0109984
0.0110288
0.0110812
0.0111593
0.011265
0.0114008
0.0115694
0.0117734
0.0120153
0.0122975
0.0126209
0.0129907
0.0134072
0.0138585
0.014332
0.014823
0.0153557
0.0159965
0.0168194
0.0178419
0.0189886
0.0201494
0.0212531
0.0223046
0.0231087
0.0235878
0.024101
0.0297535
0.248281
0
0.0367306
0.215431
0.0112998
0.0113779
0.0114712
0.0115963
0.0117424
0.0119099
0.0120995
0.0123182
0.0125647
0.0128409
0.0131511
0.0134971
0.0138833
0.0143171
0.0148029
0.0153453
0.0159498
0.0166184
0.0173534
0.0181562
0.019031
0.0199895
0.0210559
0.0222691
0.0236737
0.0252981
0.0271403
0.0291913
0.0314638
0.0339811
0.0367461
0.0397161
0.0428103
0.0457955
0.048337
0.0490727
0.0487935
0.0430425
0.0339929
0.0121089
0.0120381
0.0119706
0.0119094
0.0118602
0.0118231
0.0117993
0.0117937
0.0118078
0.0118429
0.0119028
0.0119893
0.0121051
0.0122532
0.0124361
0.0126564
0.0129168
0.0132178
0.0135614
0.0139481
0.0143719
0.0148242
0.0153048
0.0158338
0.0164641
0.0172585
0.0182361
0.0193397
0.0204773
0.0216025
0.0227257
0.0238128
0.0246886
0.0250962
0.0247115
0.0354507
3.87251
0.022666
0.123847
0.0121909
0.0122771
0.0123772
0.0125101
0.0126625
0.0128331
0.0130256
0.0132455
0.0134886
0.0137574
0.014056
0.0143863
0.0147525
0.0151617
0.0156202
0.016133
0.0167064
0.0173447
0.0180524
0.0188336
0.0196949
0.0206489
0.0217189
0.0229383
0.024346
0.0259691
0.0278132
0.0298755
0.0321691
0.0347164
0.0375212
0.0405382
0.0436713
0.0466752
0.0492044
0.0500326
0.049683
0.0448505
0.0355277
0.0130284
0.012948
0.0128693
0.0127963
0.0127346
0.0126836
0.0126452
0.0126242
0.0126217
0.0126396
0.0126811
0.0127483
0.0128436
0.0129701
0.0131303
0.013327
0.0135633
0.0138394
0.0141578
0.014521
0.0149253
0.0153618
0.0158316
0.0163527
0.0169695
0.0177354
0.0186696
0.019727
0.0208269
0.021926
0.0230286
0.0241405
0.0252136
0.0261126
0.0263914
0.0246642
2.22462
0.0428095
0.0629481
0.0131198
0.0132141
0.0133219
0.0134625
0.0136212
0.0137962
0.0139928
0.0142138
0.0144546
0.0147174
0.0150062
0.0153223
0.0156704
0.0160582
0.0164914
0.0169765
0.0175213
0.0181312
0.0188122
0.0195712
0.0204173
0.0213638
0.0224331
0.0236538
0.0250597
0.0266779
0.0285179
0.0305827
0.0328869
0.0354526
0.0382877
0.0413543
0.0445721
0.0477144
0.0504372
0.0514862
0.05126
0.0466192
0.0374579
0.0139876
0.0138974
0.013807
0.0137222
0.0136478
0.0135827
0.0135298
0.0134935
0.0134747
0.0134756
0.0134991
0.0135473
0.0136228
0.0137284
0.0138673
0.0140418
0.0142546
0.0145074
0.0148008
0.0151377
0.0155184
0.0159351
0.0163901
0.0168999
0.0175011
0.0182392
0.0191332
0.0201479
0.0212139
0.0222868
0.0233641
0.02444
0.0255165
0.0264309
0.0278296
0.0253438
0.0353592
0.909437
0.0205951
0.014089
0.0141917
0.0143075
0.0144565
0.0146218
0.0148021
0.0150034
0.0152261
0.0154653
0.0157233
0.0160035
0.0163076
0.0166401
0.0170085
0.0174193
0.0178791
0.0183969
0.01898
0.0196362
0.0203739
0.0212035
0.0221395
0.0232046
0.0244268
0.0258339
0.0274501
0.0292896
0.0313615
0.0336821
0.0362747
0.0391501
0.0422756
0.0455744
0.0488231
0.0516819
0.0529081
0.0528152
0.0484721
0.0394408
0.0149893
0.0148886
0.0147864
0.0146894
0.0146017
0.0145224
0.0144546
0.0144027
0.0143676
0.0143513
0.014357
0.0143866
0.0144425
0.0145277
0.0146446
0.0147963
0.0149855
0.0152143
0.0154825
0.0157943
0.0161521
0.0165495
0.0169885
0.0174839
0.0180672
0.018777
0.0196314
0.0206037
0.0216355
0.022684
0.0237417
0.0247933
0.0258442
0.0267217
0.0279792
0.0278584
0.026051
2.01456
0.0498944
0.0151007
0.0152128
0.015337
0.0154946
0.0156667
0.0158536
0.0160603
0.0162854
0.0165241
0.0167783
0.0170515
0.017345
0.0176635
0.018015
0.0184054
0.0188431
0.0193366
0.0198948
0.020527
0.0212434
0.0220563
0.0229813
0.0240413
0.0252612
0.0266667
0.0282803
0.0301198
0.0321985
0.0345353
0.037155
0.0400727
0.0432626
0.0466588
0.0500509
0.0531057
0.054572
0.0546263
0.050549
0.0415406
0.0160361
0.0159244
0.0158101
0.0157004
0.0155991
0.0155053
0.0154223
0.0153546
0.0153033
0.0152701
0.0152581
0.0152693
0.0153055
0.0153701
0.0154656
0.0155949
0.0157608
0.0159659
0.0162096
0.0164961
0.0168295
0.0172059
0.0176268
0.018105
0.0186679
0.0193487
0.0201643
0.0210947
0.0220914
0.0231143
0.0241525
0.0251903
0.0262151
0.0271438
0.0279443
0.0296942
0.0252524
1.01185
1.0229
0.0161577
0.0162795
0.016413
0.0165797
0.0167591
0.0169534
0.0171663
0.0173945
0.0176334
0.0178852
0.0181526
0.0184374
0.0187443
0.0190806
0.0194534
0.0198706
0.0203422
0.0208772
0.0214868
0.0221824
0.022978
0.0238911
0.0249445
0.0261618
0.0275654
0.0291784
0.0310195
0.0331068
0.0354628
0.038114
0.0410804
0.0443447
0.0478504
0.0513991
0.0546658
0.0563956
0.056615
0.0528072
0.0438186
0.0171307
0.0170077
0.016881
0.0167577
0.0166428
0.0165338
0.0164354
0.0163516
0.0162838
0.0162333
0.0162036
0.016196
0.016213
0.0162575
0.0163319
0.016439
0.0165816
0.0167627
0.0169821
0.0172435
0.0175519
0.0179068
0.018308
0.0187667
0.0193071
0.0199581
0.0207353
0.021624
0.0225844
0.02358
0.0245964
0.0256211
0.0266241
0.0276009
0.028232
0.0301052
0.0268633
0.0446481
0.781224
0.017263
0.017395
0.0175385
0.0177149
0.017902
0.0181047
0.0183246
0.0185567
0.0187969
0.0190474
0.0193105
0.019588
0.0198848
0.0202085
0.0205658
0.0209651
0.0214169
0.021931
0.0225196
0.0231957
0.0239743
0.0248736
0.0259177
0.0271316
0.0285358
0.0301487
0.0319923
0.0340896
0.0364665
0.0391528
0.0421737
0.0455225
0.0491541
0.052887
0.0564085
0.0584511
0.0588613
0.0552804
0.0463042
0.0182761
0.0181416
0.0180015
0.0178647
0.0177351
0.0176108
0.0174962
0.0173963
0.0173115
0.0172438
0.0171963
0.0171705
0.0171683
0.0171928
0.0172459
0.017331
0.0174505
0.0176074
0.0178028
0.018039
0.0183223
0.0186547
0.0190345
0.0194716
0.0199876
0.0206082
0.0213475
0.022195
0.0231183
0.0240846
0.0250776
0.0260857
0.0270751
0.0280536
0.0287588
0.0300235
0.0292506
0.0301768
0.119611
0.0184197
0.0185625
0.0187165
0.018903
0.0190989
0.0193106
0.0195384
0.0197752
0.0200179
0.0202681
0.0205282
0.0208002
0.0210887
0.0214017
0.0217459
0.0221296
0.0225638
0.0230593
0.0236285
0.0242856
0.0250477
0.0259347
0.0269709
0.0281799
0.0295814
0.0311947
0.0330432
0.0351531
0.0375545
0.0402811
0.0433646
0.0468103
0.050586
0.0545317
0.0583498
0.0607558
0.0613895
0.0580025
0.0490227
0.0194755
0.0193289
0.019175
0.0190239
0.0188794
0.0187389
0.018608
0.0184913
0.0183893
0.0183042
0.0182387
0.0181943
0.0181728
0.018177
0.0182092
0.0182721
0.0183687
0.0185018
0.0186735
0.0188849
0.0191424
0.019451
0.0198083
0.0202223
0.0207125
0.0213019
0.0220034
0.0228101
0.0236957
0.0246315
0.0255999
0.0265885
0.0275695
0.0285248
0.0293569
0.0301499
0.0310088
0.0293673
0.0438254
0.0196309
0.0197852
0.0199503
0.0201472
0.0203534
0.0205748
0.0208111
0.0210539
0.0213
0.0215512
0.0218097
0.0220776
0.0223599
0.0226639
0.0229968
0.0233673
0.0237863
0.0242649
0.0248168
0.025457
0.026203
0.0270766
0.028104
0.0293085
0.0307087
0.0323243
0.0341796
0.0363045
0.0387334
0.0415054
0.0446595
0.0482153
0.0521562
0.05635
0.0605188
0.0633566
0.0642571
0.0610065
0.0519855
0.0207323
0.0205728
0.0204047
0.0202386
0.0200785
0.0199213
0.0197737
0.0196397
0.0195202
0.0194171
0.0193335
0.0192703
0.0192296
0.0192138
0.0192251
0.0192661
0.01934
0.0194494
0.019597
0.0197829
0.0200144
0.0202983
0.0206319
0.0210212
0.0214843
0.0220418
0.0227059
0.0234722
0.0243198
0.0252236
0.0261665
0.027134
0.0281067
0.0290422
0.0299529
0.0305895
0.0318426
0.0307867
0.0338728
0.0209
0.0210663
0.021243
0.021451
0.0216684
0.0219007
0.0221462
0.0223959
0.0226466
0.0228999
0.0231586
0.0234243
0.0237018
0.0239989
0.0243226
0.024682
0.025088
0.025552
0.0260881
0.0267126
0.0274446
0.0283058
0.0293236
0.0305231
0.0319241
0.0335437
0.0354075
0.0375499
0.0400103
0.0428338
0.0460683
0.0497499
0.0538811
0.0583649
0.0629492
0.0663027
0.0675265
0.0643503
0.0552271
0.0220498
0.0218771
0.0216937
0.0215123
0.0213357
0.0211614
0.0209963
0.0208445
0.0207069
0.0205856
0.0204836
0.0204016
0.0203414
0.0203056
0.0202958
0.020315
0.020366
0.0204514
0.0205748
0.0207358
0.0209416
0.0211997
0.0215084
0.0218722
0.0223067
0.0228316
0.0234584
0.0241845
0.0249937
0.0258646
0.0267806
0.0277265
0.0286877
0.0296149
0.0305517
0.0312269
0.0323214
0.0325177
0.0326414
0.02223
0.0224095
0.0225985
0.0228182
0.0230479
0.0232917
0.0235475
0.0238051
0.0240617
0.0243189
0.0245787
0.0248434
0.0251181
0.0254104
0.0257273
0.0260775
0.0264726
0.0269244
0.0274471
0.0280577
0.028776
0.0296261
0.0306363
0.0318323
0.0332333
0.0348575
0.0367325
0.0388959
0.0413928
0.0442751
0.0476012
0.0514255
0.0557763
0.0605996
0.0656803
0.0696596
0.0712756
0.0680906
0.0587741
0.0234316
0.0232448
0.0230459
0.0228483
0.0226545
0.0224624
0.022279
0.022109
0.0219528
0.0218129
0.0216919
0.0215907
0.0215108
0.0214547
0.021424
0.0214213
0.0214496
0.0215114
0.0216104
0.0217467
0.0219265
0.0221579
0.0224407
0.0227778
0.023183
0.0236748
0.0242644
0.0249506
0.0257212
0.0265581
0.0274461
0.0283702
0.0293176
0.0302436
0.0311823
0.0319536
0.0328638
0.0338887
0.0335179
0.0236249
0.0238182
0.0240202
0.0242526
0.0244955
0.0247517
0.025019
0.0252857
0.0255493
0.0258116
0.0260746
0.0263402
0.0266138
0.0269028
0.0272143
0.0275579
0.0279446
0.028386
0.0288974
0.0294963
0.030203
0.0310429
0.0320461
0.033239
0.0346417
0.0362724
0.0381621
0.0403505
0.042889
0.0458373
0.0492666
0.0532529
0.0578568
0.0630782
0.0687556
0.0735066
0.075615
0.0723028
0.0626531
0.0248814
0.0246801
0.0244649
0.0242501
0.0240387
0.0238279
0.0236257
0.0234367
0.0232615
0.0231024
0.0229622
0.0228414
0.0227418
0.0226651
0.0226131
0.0225886
0.0225939
0.0226321
0.0227065
0.0228179
0.0229715
0.0231754
0.0234317
0.0237411
0.0241164
0.0245749
0.0251274
0.025774
0.0265059
0.0273081
0.0281672
0.0290685
0.0300011
0.0309278
0.0318672
0.0327226
0.0335738
0.034925
0.0349322
0.0250889
0.0252959
0.0255121
0.0257579
0.0260149
0.0262847
0.0265645
0.0268418
0.027114
0.0273829
0.0276501
0.027918
0.0281921
0.0284802
0.0287891
0.0291279
0.029508
0.0299414
0.0304436
0.0310324
0.0317291
0.0325603
0.0335576
0.0347492
0.0361559
0.0377971
0.039703
0.0419205
0.0445061
0.0475286
0.0510741
0.0552441
0.0601375
0.0658248
0.0722249
0.077944
0.0806812
0.077091
0.0669084
0.0264033
0.0261868
0.0259547
0.0257216
0.0254919
0.0252616
0.0250399
0.0248313
0.0246363
0.0244575
0.0242976
0.0241568
0.0240369
0.0239395
0.0238664
0.0238196
0.023802
0.0238164
0.0238661
0.0239526
0.0240797
0.024256
0.0244854
0.0247668
0.0251112
0.0255358
0.0260511
0.0266585
0.0273516
0.0281188
0.0289479
0.029826
0.0307434
0.0316696
0.0326156
0.0335299
0.0344201
0.0358601
0.036394
0.0266256
0.0268472
0.0270784
0.0273384
0.0276104
0.0278952
0.0281884
0.0284774
0.0287596
0.0290365
0.0293098
0.0295822
0.0298591
0.0301476
0.0304553
0.0307917
0.0311676
0.0315952
0.0320902
0.0326715
0.0333605
0.0341851
0.0351781
0.0363697
0.0377813
0.039435
0.0413613
0.0436125
0.046251
0.0493572
0.053033
0.0574094
0.0626335
0.0688654
0.0761465
0.0831059
0.0866735
0.0825665
0.0715674
0.0280018
0.0277691
0.0275191
0.0272673
0.0270182
0.0267678
0.0265256
0.0262969
0.0260812
0.0258822
0.0257019
0.0255408
0.0254002
0.0252819
0.0251872
0.0251181
0.0250775
0.0250679
0.0250927
0.0251543
0.0252549
0.0254028
0.0256046
0.0258571
0.0261705
0.0265612
0.0270399
0.0276085
0.0282628
0.0289945
0.0297932
0.0306476
0.031549
0.032475
0.0334314
0.0343911
0.0353603
0.0368424
0.0378099
0.0282392
0.0284762
0.0287234
0.0289984
0.0292865
0.0295873
0.029895
0.0301973
0.0304909
0.0307775
0.0310584
0.0313368
0.031618
0.0319095
0.0322182
0.0325538
0.0329276
0.0333521
0.0338423
0.0344176
0.0351009
0.0359212
0.0369129
0.0381073
0.0395273
0.0411948
0.0431458
0.0454349
0.0481329
0.051332
0.055152
0.0597587
0.0653598
0.0722268
0.0805834
0.0891638
0.0938696
0.0888864
0.0766736
0.0296812
0.0294314
0.0291626
0.0288914
0.028622
0.0283505
0.0280874
0.0278373
0.0276005
0.0273804
0.0271792
0.0269972
0.0268354
0.0266958
0.0265791
0.0264875
0.0264238
0.0263901
0.02639
0.0264262
0.0265001
0.0266199
0.0267931
0.0270165
0.0272986
0.0276556
0.0280977
0.0286279
0.0292439
0.0299398
0.0307077
0.0315381
0.0324236
0.0333477
0.0343181
0.0353185
0.0363719
0.0379155
0.0392178
0.0299341
0.0301873
0.0304515
0.0307424
0.0310475
0.0313658
0.0316894
0.0320059
0.0323123
0.0326103
0.032901
0.0331871
0.0334744
0.0337704
0.0340826
0.0344198
0.0347936
0.0352163
0.0357042
0.0362764
0.0369562
0.0377738
0.038766
0.0399648
0.0413954
0.0430807
0.0450596
0.0473918
0.0501564
0.0534571
0.0574366
0.0622984
0.0683229
0.0759252
0.0855984
0.0963449
0.102683
0.0962379
0.0822533
0.0314458
0.0311785
0.0308898
0.0305983
0.0303078
0.0300142
0.0297292
0.0294569
0.0291984
0.0289563
0.0287336
0.0285301
0.028347
0.0281854
0.0280466
0.0279324
0.027845
0.0277872
0.0277618
0.0277723
0.0278192
0.0279109
0.0280552
0.0282494
0.0285003
0.0288232
0.0292292
0.0297214
0.0302995
0.0309598
0.0316964
0.0325022
0.0333728
0.0342942
0.0352793
0.0363199
0.0374546
0.0390797
0.0406587
0.0317154
0.0319852
0.0322672
0.0325751
0.0328983
0.0332348
0.0335758
0.0339081
0.034229
0.0345401
0.0348421
0.035138
0.0354337
0.035736
0.036053
0.0363938
0.0367699
0.0371937
0.0376813
0.0382526
0.0389316
0.0397493
0.0407441
0.0419502
0.0433939
0.0451005
0.0471116
0.0494918
0.052329
0.0557401
0.0598921
0.0650323
0.0715246
0.0799672
0.0912446
0.104949
0.113773
0.104859
0.0883285
0.033301
0.0330151
0.0327058
0.032393
0.0320804
0.031764
0.0314559
0.0311608
0.0308795
0.030615
0.03037
0.0301444
0.029939
0.029755
0.0295936
0.0294561
0.029345
0.0292628
0.029212
0.0291966
0.0292166
0.0292801
0.0293954
0.0295598
0.0297795
0.0300692
0.0304394
0.0308942
0.0314347
0.0320596
0.0327652
0.0335463
0.0344009
0.0353211
0.0363201
0.0374037
0.0386162
0.0403324
0.0421573
0.0335881
0.033875
0.0341755
0.0345019
0.0348441
0.0351997
0.0355595
0.035909
0.036246
0.0365717
0.0368867
0.0371943
0.0375
0.0378113
0.0381351
0.0384815
0.0388619
0.0392888
0.0397785
0.0403511
0.0410312
0.0418515
0.0428516
0.0440678
0.0455285
0.0472591
0.0493059
0.0517384
0.0546534
0.058183
0.0625185
0.0679567
0.0749578
0.0843433
0.0975488
0.115363
0.128248
0.115008
0.0948888
0.035252
0.0349463
0.0346158
0.0342805
0.0339449
0.0336048
0.0332725
0.0329536
0.0326486
0.0323607
0.0320925
0.0318441
0.0316159
0.0314093
0.0312246
0.031064
0.0309287
0.0308215
0.0307451
0.0307036
0.0306967
0.0307319
0.0308179
0.0309527
0.0311414
0.031398
0.031733
0.0321512
0.0326549
0.0332448
0.0339194
0.0346762
0.0355152
0.0364333
0.0374474
0.0385732
0.0398623
0.0416705
0.0437195
0.0355573
0.0358622
0.0361817
0.036528
0.0368899
0.0372659
0.0376455
0.0380139
0.0383684
0.0387106
0.0390407
0.0393614
0.0396789
0.0400009
0.040334
0.0406883
0.041075
0.0415067
0.0420004
0.0425768
0.0432607
0.0440861
0.0450943
0.046323
0.0478022
0.0495608
0.0516464
0.0541356
0.0571332
0.0607871
0.0653145
0.0710635
0.0786022
0.08901
0.104465
0.128025
0.148186
0.126918
0.101871
0.0373041
0.036978
0.036625
0.0362665
0.0359067
0.0355416
0.0351844
0.0348406
0.0345107
0.0341987
0.0339067
0.0336346
0.0333831
0.0331531
0.0329449
0.03276
0.0326002
0.0324681
0.0323662
0.0322982
0.0322642
0.0322711
0.0323277
0.0324328
0.0325911
0.0328151
0.0331154
0.0334979
0.0339657
0.0345212
0.0351653
0.0358977
0.0367216
0.037638
0.0386674
0.0398338
0.0411993
0.0431013
0.0453517
0.0376285
0.0379522
0.0382916
0.0386584
0.0390413
0.0394387
0.0398394
0.040228
0.0406017
0.040962
0.0413084
0.0416449
0.0419765
0.0423104
0.0426543
0.0430183
0.0434136
0.0438526
0.0443527
0.0449349
0.0456248
0.0464569
0.0474756
0.0487202
0.050221
0.0520098
0.0541371
0.0566854
0.0597687
0.0635492
0.0682717
0.0743333
0.0824165
0.0938807
0.111825
0.14326
0.178185
0.14058
0.109139
0.0394633
0.0391157
0.0387395
0.0383566
0.0379716
0.0375804
0.0371972
0.0368276
0.0364719
0.0361348
0.035818
0.0355215
0.0352459
0.0349917
0.0347593
0.03455
0.0343655
0.0342081
0.0340801
0.0339851
0.033924
0.0339026
0.03393
0.0340059
0.034134
0.0343261
0.0345928
0.0349402
0.035373
0.035895
0.0365092
0.0372179
0.0380266
0.0389417
0.0399863
0.0411941
0.0426326
0.0446255
0.0470601
0.0398076
0.0401507
0.040511
0.0408993
0.0413041
0.041724
0.0421469
0.0425569
0.0429512
0.0433313
0.0436964
0.0440496
0.0443969
0.0447453
0.0451023
0.0454777
0.045883
0.0463311
0.0468396
0.0474292
0.0481268
0.0489686
0.0499999
0.0512621
0.0527875
0.0546083
0.0567796
0.0593886
0.0625579
0.0664632
0.0713749
0.0777393
0.0863437
0.0988218
0.119261
0.160583
0.231147
0.155271
0.116444
0.0417358
0.0413658
0.0409654
0.0405569
0.0401457
0.0397274
0.0393168
0.0389201
0.0385377
0.0381742
0.0378318
0.03751
0.0372095
0.0369306
0.0366735
0.0364392
0.0362294
0.0360459
0.0358914
0.0357697
0.0356817
0.0356322
0.0356303
0.0356774
0.0357759
0.0359371
0.0361709
0.0364844
0.0368833
0.0373727
0.0379578
0.0386433
0.0394377
0.0403514
0.0414115
0.0426592
0.0441716
0.0462522
0.0488481
0.0421009
0.0424639
0.0428461
0.0432569
0.0436843
0.0441275
0.044574
0.0450065
0.0454228
0.045824
0.0462092
0.0465812
0.0469462
0.0473107
0.0476822
0.0480712
0.0484879
0.0489469
0.0494655
0.0500649
0.0507729
0.0516258
0.0526711
0.0539525
0.0555035
0.0573584
0.0595745
0.0622434
0.0654951
0.0695193
0.0746062
0.0812433
0.0903049
0.103642
0.126173
0.177089
0.371303
0.168759
0.123426
0.0441282
0.0437349
0.0433093
0.042874
0.0424354
0.0419885
0.0415496
0.0411245
0.0407142
0.0403231
0.0399542
0.0396063
0.0392799
0.0389754
0.0386929
0.0384332
0.0381976
0.037988
0.0378072
0.0376584
0.0375432
0.0374655
0.0374348
0.0374535
0.037523
0.0376536
0.0378558
0.0381368
0.038503
0.0389611
0.0395182
0.0401814
0.040962
0.0418746
0.0429502
0.0442366
0.0458195
0.0479882
0.0507261
0.044515
0.0448986
0.0453033
0.0457375
0.0461882
0.0466558
0.0471264
0.0475829
0.0480224
0.0484461
0.0488532
0.0492455
0.0496291
0.0500117
0.0503996
0.0508028
0.0512336
0.0517052
0.0522351
0.0528455
0.053564
0.0544299
0.0554919
0.0567946
0.0583723
0.0602606
0.0625193
0.0652452
0.0685734
0.0727035
0.0779406
0.0847992
0.0942083
0.10813
0.131829
0.186644
0.537522
0.177408
0.12966
0.0466475
0.04623
0.0457781
0.045315
0.0448475
0.0443711
0.0439023
0.0434478
0.0430081
0.0425885
0.0421918
0.0418166
0.0414635
0.0411328
0.0408243
0.0405384
0.0402764
0.0400404
0.0398327
0.0396565
0.0395143
0.0394087
0.0393495
0.0393403
0.0393815
0.0394829
0.0396547
0.0399045
0.0402394
0.0406674
0.0411976
0.0418397
0.0426072
0.0435192
0.0446097
0.0459344
0.0475838
0.0498359
0.0527008
0.0470568
0.0474619
0.0478897
0.0483479
0.0488229
0.0493153
0.049811
0.0502924
0.050756
0.0512035
0.0516334
0.0520476
0.0524523
0.0528537
0.0532591
0.0536786
0.0541245
0.0546093
0.0551518
0.0557748
0.0565061
0.0573857
0.0584637
0.0597876
0.0613923
0.0633134
0.0656125
0.0683892
0.0717828
0.0759975
0.0813482
0.0883566
0.0979591
0.112083
0.135651
0.18548
0.284888
0.178995
0.134772
0.0493009
0.0488585
0.0483792
0.047887
0.0473895
0.046882
0.046382
0.0458962
0.045426
0.044977
0.0445513
0.0441478
0.0437672
0.0434093
0.0430739
0.0427612
0.0424725
0.0422096
0.0419747
0.0417712
0.0416017
0.0414685
0.0413811
0.0413445
0.0413585
0.0414318
0.0415744
0.0417942
0.0420994
0.0424991
0.043004
0.0436259
0.0443813
0.045293
0.0463988
0.0477591
0.049473
0.0518034
0.054779
0.0497339
0.0501611
0.0506126
0.0510955
0.0515951
0.0521129
0.0526346
0.0531412
0.05363
0.0541021
0.0545562
0.0549933
0.0554195
0.0558415
0.0562659
0.0567029
0.0571642
0.0576635
0.0582202
0.0588559
0.0596
0.060494
0.0615892
0.0629339
0.0645638
0.0665144
0.0688487
0.0716672
0.0751102
0.0793838
0.0848002
0.0918696
0.101482
0.115378
0.137529
0.177441
0.222671
0.175101
0.13856
0.0520967
0.0516284
0.0511204
0.0505981
0.050069
0.0495289
0.0489961
0.0484778
0.0479761
0.0474958
0.0470397
0.0466068
0.0461975
0.0458117
0.0454484
0.0451084
0.0447926
0.0445024
0.04424
0.0440089
0.0438123
0.0436517
0.043537
0.0434734
0.0434608
0.0435073
0.0436223
0.0438139
0.044091
0.0444642
0.0449452
0.0455482
0.0462926
0.0472044
0.0483253
0.0497199
0.0514946
0.0538978
0.0569701
0.0525538
0.0530041
0.0534798
0.0539877
0.0545124
0.0550562
0.055604
0.0561366
0.0566507
0.0571484
0.0576271
0.0580881
0.0585376
0.0589805
0.0594242
0.0598795
0.0603574
0.0608724
0.0614427
0.0620916
0.0628495
0.0637572
0.0648684
0.0662328
0.0678847
0.0698608
0.0722229
0.0750707
0.0785435
0.0828432
0.0882684
0.0952982
0.104727
0.11799
0.137837
0.167975
0.192856
0.168955
0.141073
0.0550434
0.0545481
0.0540103
0.0534566
0.0528944
0.0523202
0.0517531
0.0512008
0.0506654
0.0501524
0.0496646
0.0492013
0.0487623
0.0483475
0.0479555
0.0475873
0.0472436
0.0469256
0.0466356
0.046377
0.0461527
0.0459653
0.0458241
0.0457345
0.0456967
0.0457175
0.0458062
0.0459713
0.0462224
0.0465706
0.0470295
0.0476154
0.0483497
0.0492621
0.0503973
0.0518246
0.053656
0.0561265
0.0592824
0.0555251
0.0559992
0.0564999
0.0570328
0.0575829
0.0581525
0.0587266
0.059285
0.0598251
0.0603488
0.0608527
0.0613381
0.0618106
0.0622755
0.0627397
0.0632134
0.0637084
0.0642385