/*--------------------------------*- C++ -*----------------------------------*\
| =========                 |                                                 |
| \\      /  F ield         | OpenFOAM: The Open Source CFD Toolbox           |
|  \\    /   O peration     | Version:  2306                                  |
|   \\  /    A nd           | Website:  www.openfoam.com                      |
|    \\/     M anipulation  |                                                 |
\*---------------------------------------------------------------------------*/
FoamFile
{
    version     2.0;
    format      ascii;
    arch        "LSB;label=32;scalar=64";
    class       volScalarField;
    location    "525";
    object      turbulenceProperties:nuEff;
}
// * * * * * * * * * * * * * * * * * * * * * * * * * * * * * * * * * * * * * //

dimensions      [0 2 -1 0 0 0 0];

internalField   nonuniform List<scalar> 
10720
(
3.5808e-05
3.95347e-05
4.45224e-05
5.09851e-05
5.93089e-05
7.00253e-05
8.38546e-05
0.000101159
0.000122975
0.000150349
0.000185234
0.000230745
0.000291313
0.000374892
0.000495068
0.000673862
0.000955883
0.00140527
0.00222739
0.00359939
0.00691149
0.0127214
0.0339224
0.0760589
0.0937502
0.094678
0.0957123
0.0992414
0.102758
0.104496
0.104474
0.103227
0.100858
0.0974251
0.0928043
0.0869237
0.0784905
0.0690332
0.0538399
3.25824e-05
2.98038e-05
2.70736e-05
2.45837e-05
2.22497e-05
2.01071e-05
1.82445e-05
1.69612e-05
1.80965e-05
2.07909e-05
2.54813e-05
3.3227e-05
4.55759e-05
6.4454e-05
9.13874e-05
0.000127945
0.000177178
0.000246276
0.000349383
0.000511811
0.000783254
0.00125196
0.00212757
0.00377989
0.00733809
0.0147329
0.0324877
0.0663316
0.0934796
0.105035
0.108443
0.109385
0.109481
0.108985
0.107984
0.106587
0.104441
0.102006
0.0924734
1.50855e-05
1.49803e-05
1.48855e-05
1.48068e-05
1.47166e-05
1.46338e-05
1.45725e-05
1.45188e-05
1.44956e-05
1.45159e-05
1.45435e-05
1.48184e-05
1.58788e-05
1.86526e-05
2.6411e-05
4.68045e-05
9.38961e-05
0.000172735
0.000325376
0.000598585
0.00133189
0.00284121
0.00712318
0.020518
0.0395505
0.0633263
0.0925355
0.123659
0.148697
0.162659
0.167962
0.168795
0.167213
0.163862
0.159348
0.153847
0.148558
0.139902
0.147222
1.51691e-05
1.52823e-05
1.53788e-05
1.55098e-05
1.56441e-05
1.578e-05
1.59112e-05
1.60217e-05
1.59591e-05
1.58177e-05
1.56246e-05
1.53903e-05
1.51241e-05
1.48294e-05
1.44957e-05
1.41197e-05
1.36767e-05
1.31624e-05
1.25483e-05
1.18435e-05
1.1074e-05
1.04205e-05
1.00541e-05
1.00015e-05
1.00093e-05
0.000103721
0.000549957
0.00416678
0.0141256
0.0287297
0.0437373
0.0550727
0.0618355
0.0656174
0.0680152
0.0700054
0.071737
0.075309
0.0784705
1.62662e-05
1.62835e-05
1.63015e-05
1.63208e-05
1.63445e-05
1.6371e-05
1.64013e-05
1.64368e-05
1.64786e-05
1.65276e-05
1.65858e-05
1.66574e-05
1.67371e-05
1.6879e-05
1.68856e-05
1.65049e-05
1.46794e-05
1.39142e-05
1.04702e-05
0.000107577
0.000264948
1.54206e-05
0.0014839
0.000535134
0.00290492
0.00739533
0.0154553
0.0308687
0.0572755
0.093716
0.132768
0.164507
0.184927
0.196765
0.203453
0.206331
0.20759
0.201637
0.212144
1.62529e-05
1.62339e-05
1.62193e-05
1.61977e-05
1.61792e-05
1.61593e-05
1.61415e-05
1.61275e-05
1.61323e-05
1.61473e-05
1.61669e-05
1.61909e-05
1.62202e-05
1.6253e-05
1.62901e-05
1.6331e-05
1.63775e-05
1.64308e-05
1.64945e-05
1.65719e-05
1.66714e-05
1.67989e-05
1.69802e-05
1.71735e-05
1.74359e-05
1.71567e-05
1.72472e-05
1.24843e-05
9.36892e-05
0.000800356
0.00302747
0.00755202
0.0142629
0.0224462
0.0311674
0.0396108
0.04701
0.0536822
0.0631749
1.60861e-05
1.60837e-05
1.60831e-05
1.60835e-05
1.60844e-05
1.60871e-05
1.6092e-05
1.60987e-05
1.61088e-05
1.61224e-05
1.61403e-05
1.61638e-05
1.61945e-05
1.62331e-05
1.62844e-05
1.63463e-05
1.61988e-05
1.59696e-05
1.42492e-05
1.12231e-05
1.00152e-05
1.00829e-05
1e-05
9.41875e-05
0.000613912
0.00159682
0.000446209
0.00132291
0.00416827
0.0136061
0.0356613
0.0728245
0.118856
0.161352
0.193231
0.215358
0.231954
0.239205
0.255731
1.60868e-05
1.60891e-05
1.60923e-05
1.60945e-05
1.60983e-05
1.61003e-05
1.61016e-05
1.61025e-05
1.61004e-05
1.60977e-05
1.60942e-05
1.60905e-05
1.6087e-05
1.60836e-05
1.60803e-05
1.60768e-05
1.60731e-05
1.60691e-05
1.60641e-05
1.6059e-05
1.60536e-05
1.60479e-05
1.60411e-05
1.60348e-05
1.6028e-05
1.60304e-05
1.60231e-05
1.60826e-05
1.59987e-05
1.59529e-05
1.52071e-05
1.41745e-05
0.000236669
0.0010565
0.00305063
0.00690434
0.0131138
0.021858
0.039239
1.61112e-05
1.61118e-05
1.6112e-05
1.61129e-05
1.61145e-05
1.61164e-05
1.61191e-05
1.61227e-05
1.61274e-05
1.61336e-05
1.61416e-05
1.61522e-05
1.61661e-05
1.61839e-05
1.62081e-05
1.62361e-05
1.62816e-05
1.62816e-05
1.65219e-05
1.63514e-05
1.483e-05
1.18779e-05
1.00182e-05
1.00012e-05
1e-05
1e-05
7.54032e-05
0.000291004
0.00092571
0.00307239
0.000931254
0.00811031
0.0295659
0.0707205
0.124119
0.175048
0.217179
0.248065
0.278402
1.61112e-05
1.61099e-05
1.61106e-05
1.61095e-05
1.61104e-05
1.61092e-05
1.61071e-05
1.61052e-05
1.61041e-05
1.61039e-05
1.61039e-05
1.61038e-05
1.61041e-05
1.61046e-05
1.61056e-05
1.61068e-05
1.61084e-05
1.61102e-05
1.61124e-05
1.61149e-05
1.61177e-05
1.61207e-05
1.61241e-05
1.61279e-05
1.61329e-05
1.61372e-05
1.61504e-05
1.61301e-05
1.62727e-05
1.5695e-05
1.87087e-05
1.05813e-05
3.56193e-05
0.000257881
7.42886e-05
0.000320156
0.00105304
0.00175568
0.0137173
1.61051e-05
1.61048e-05
1.61051e-05
1.61054e-05
1.61055e-05
1.61059e-05
1.61065e-05
1.61073e-05
1.61085e-05
1.61102e-05
1.61125e-05
1.61157e-05
1.61201e-05
1.6126e-05
1.61341e-05
1.6145e-05
1.61605e-05
1.61706e-05
1.62347e-05
1.63143e-05
1.65937e-05
1.63741e-05
1.52596e-05
1.08112e-05
1.00128e-05
1.00025e-05
1.00001e-05
1e-05
1e-05
1e-05
0.000208765
0.00185855
0.000384214
0.00874721
0.0380576
0.0932447
0.160393
0.223991
0.278363
1.61046e-05
1.61039e-05
1.61048e-05
1.61046e-05
1.61063e-05
1.6106e-05
1.61047e-05
1.61035e-05
1.61025e-05
1.61019e-05
1.61014e-05
1.6101e-05
1.61007e-05
1.61005e-05
1.61005e-05
1.61006e-05
1.61007e-05
1.61009e-05
1.61011e-05
1.61014e-05
1.61016e-05
1.61018e-05
1.61018e-05
1.61015e-05
1.61014e-05
1.61017e-05
1.61021e-05
1.61039e-05
1.61035e-05
1.61125e-05
1.60929e-05
1.61758e-05
1.54989e-05
1.42066e-05
1.21131e-05
5.43471e-05
0.000251615
0.000464937
0.00241314
1.61053e-05
1.61055e-05
1.61057e-05
1.61057e-05
1.61059e-05
1.61059e-05
1.61061e-05
1.61065e-05
1.61069e-05
1.61076e-05
1.61087e-05
1.61102e-05
1.61122e-05
1.61151e-05
1.6119e-05
1.61246e-05
1.61321e-05
1.61399e-05
1.61486e-05
1.61642e-05
1.62259e-05
1.6333e-05
1.69177e-05
1.65773e-05
1.41176e-05
1.15252e-05
1.00597e-05
1.00088e-05
1.00034e-05
1e-05
1e-05
1e-05
6.49143e-05
0.00206251
0.00165179
0.0214838
0.0782838
0.16619
0.252345
1.61048e-05
1.61038e-05
1.61042e-05
1.61038e-05
1.61055e-05
1.61054e-05
1.61042e-05
1.61031e-05
1.61022e-05
1.61017e-05
1.61013e-05
1.61011e-05
1.6101e-05
1.61011e-05
1.6101e-05
1.6101e-05
1.61012e-05
1.61014e-05
1.61018e-05
1.61022e-05
1.61027e-05
1.61033e-05
1.6104e-05
1.61048e-05
1.61057e-05
1.6107e-05
1.61087e-05
1.61108e-05
1.61134e-05
1.61167e-05
1.6121e-05
1.6131e-05
1.62007e-05
1.57709e-05
1.33032e-05
1.03121e-05
1.00097e-05
1e-05
0.000584243
1.61049e-05
1.6105e-05
1.61053e-05
1.61053e-05
1.61051e-05
1.6105e-05
1.61048e-05
1.61047e-05
1.61046e-05
1.61046e-05
1.61047e-05
1.61049e-05
1.61053e-05
1.61059e-05
1.61068e-05
1.61082e-05
1.61102e-05
1.61126e-05
1.61147e-05
1.61196e-05
1.61186e-05
1.61172e-05
1.62089e-05
1.66278e-05
1.6946e-05
1.66554e-05
1.5458e-05
1.34809e-05
1.17596e-05
1.0026e-05
1.0007e-05
1e-05
1e-05
1e-05
0.000407498
0.000858981
0.017104
0.090366
0.200112
1.61043e-05
1.61031e-05
1.61031e-05
1.61027e-05
1.61043e-05
1.61045e-05
1.61036e-05
1.61026e-05
1.61017e-05
1.61013e-05
1.6101e-05
1.61008e-05
1.61007e-05
1.61008e-05
1.61009e-05
1.6101e-05
1.61011e-05
1.61011e-05
1.61012e-05
1.61013e-05
1.61014e-05
1.61016e-05
1.61017e-05
1.61019e-05
1.6102e-05
1.61022e-05
1.61024e-05
1.61027e-05
1.61029e-05
1.6103e-05
1.61035e-05
1.61011e-05
1.61122e-05
1.6067e-05
1.61939e-05
1.50335e-05
1.28783e-05
1.00191e-05
1e-05
1.61048e-05
1.61049e-05
1.61051e-05
1.61049e-05
1.61047e-05
1.61044e-05
1.61042e-05
1.61041e-05
1.6104e-05
1.61039e-05
1.61039e-05
1.6104e-05
1.61043e-05
1.61047e-05
1.61053e-05
1.61062e-05
1.61077e-05
1.61096e-05
1.61113e-05
1.61135e-05
1.6115e-05
1.61132e-05
1.60879e-05
1.61345e-05
1.63459e-05
1.66382e-05
1.69602e-05
1.70897e-05
1.69377e-05
1.48843e-05
1.26872e-05
1.00055e-05
1.0003e-05
1e-05
1e-05
0.000198544
0.00464764
0.0306391
0.132919
1.61042e-05
1.6103e-05
1.61026e-05
1.6102e-05
1.61036e-05
1.61038e-05
1.61031e-05
1.61022e-05
1.61015e-05
1.6101e-05
1.61008e-05
1.61007e-05
1.61006e-05
1.61007e-05
1.61008e-05
1.61009e-05
1.61011e-05
1.61012e-05
1.61013e-05
1.61013e-05
1.61014e-05
1.61015e-05
1.61016e-05
1.61018e-05
1.6102e-05
1.61024e-05
1.61029e-05
1.61036e-05
1.61044e-05
1.61055e-05
1.61068e-05
1.61084e-05
1.61113e-05
1.61113e-05
1.61407e-05
1.62192e-05
1.66752e-05
1.48392e-05
1.00035e-05
1.61047e-05
1.61047e-05
1.61048e-05
1.61045e-05
1.61042e-05
1.61039e-05
1.61036e-05
1.61034e-05
1.61031e-05
1.6103e-05
1.61028e-05
1.61027e-05
1.61026e-05
1.61026e-05
1.61025e-05
1.61025e-05
1.61026e-05
1.61027e-05
1.61029e-05
1.61034e-05
1.61051e-05
1.6108e-05
1.61028e-05
1.60856e-05
1.60922e-05
1.61519e-05
1.63004e-05
1.65539e-05
1.6903e-05
1.72791e-05
1.74515e-05
1.50667e-05
1.1179e-05
1.00109e-05
1e-05
1e-05
1.00304e-05
0.000480488
0.0724505
1.61042e-05
1.6103e-05
1.61023e-05
1.61015e-05
1.61029e-05
1.61033e-05
1.61027e-05
1.61018e-05
1.61012e-05
1.61009e-05
1.61007e-05
1.61005e-05
1.61005e-05
1.61005e-05
1.61006e-05
1.61007e-05
1.61009e-05
1.61011e-05
1.61012e-05
1.61014e-05
1.61015e-05
1.61016e-05
1.61016e-05
1.61016e-05
1.61016e-05
1.61017e-05
1.61019e-05
1.61022e-05
1.61025e-05
1.61029e-05
1.61034e-05
1.61041e-05
1.61038e-05
1.61091e-05
1.60889e-05
1.61778e-05
1.58203e-05
1.89089e-05
1.07676e-05
1.61046e-05
1.61045e-05
1.61043e-05
1.6104e-05
1.61036e-05
1.61033e-05
1.6103e-05
1.61028e-05
1.61026e-05
1.61025e-05
1.61024e-05
1.61023e-05
1.61023e-05
1.61024e-05
1.61025e-05
1.61027e-05
1.6103e-05
1.61035e-05
1.61041e-05
1.61046e-05
1.61051e-05
1.61063e-05
1.61078e-05
1.61039e-05
1.60934e-05
1.6085e-05
1.60898e-05
1.61309e-05
1.62252e-05
1.64669e-05
1.68552e-05
1.75911e-05
1.71553e-05
1.30405e-05
1.00154e-05
1e-05
1e-05
0.000815835
0.0333302
1.61042e-05
1.6103e-05
1.61021e-05
1.61012e-05
1.61024e-05
1.61028e-05
1.61024e-05
1.61016e-05
1.6101e-05
1.61007e-05
1.61006e-05
1.61004e-05
1.61003e-05
1.61003e-05
1.61004e-05
1.61005e-05
1.61007e-05
1.61009e-05
1.6101e-05
1.61012e-05
1.61014e-05
1.61015e-05
1.61016e-05
1.61017e-05
1.61018e-05
1.61018e-05
1.6102e-05
1.61022e-05
1.61026e-05
1.6103e-05
1.61035e-05
1.61044e-05
1.61043e-05
1.61089e-05
1.60936e-05
1.61647e-05
1.58591e-05
1.7185e-05
1.44644e-05
1.61044e-05
1.61041e-05
1.61039e-05
1.61035e-05
1.61032e-05
1.61028e-05
1.61025e-05
1.61023e-05
1.61021e-05
1.6102e-05
1.61019e-05
1.61018e-05
1.61018e-05
1.61017e-05
1.61017e-05
1.61018e-05
1.61018e-05
1.6102e-05
1.61022e-05
1.61026e-05
1.61032e-05
1.6104e-05
1.61054e-05
1.61066e-05
1.61057e-05
1.61017e-05
1.60944e-05
1.60876e-05
1.60813e-05
1.61053e-05
1.61672e-05
1.64876e-05
1.71828e-05
1.77726e-05
1.39072e-05
1.00097e-05
1e-05
0.000293048
0.0131295
1.61042e-05
1.61031e-05
1.6102e-05
1.6101e-05
1.61021e-05
1.61024e-05
1.6102e-05
1.61013e-05
1.61008e-05
1.61006e-05
1.61004e-05
1.61003e-05
1.61001e-05
1.61001e-05
1.61001e-05
1.61002e-05
1.61004e-05
1.61006e-05
1.61008e-05
1.6101e-05
1.61012e-05
1.61014e-05
1.61016e-05
1.61017e-05
1.61019e-05
1.6102e-05
1.6102e-05
1.61021e-05
1.61022e-05
1.61025e-05
1.61028e-05
1.61032e-05
1.61035e-05
1.61051e-05
1.61016e-05
1.61192e-05
1.60606e-05
1.6215e-05
1.62167e-05
1.61042e-05
1.61038e-05
1.61035e-05
1.61031e-05
1.61027e-05
1.61024e-05
1.61021e-05
1.61019e-05
1.61018e-05
1.61017e-05
1.61016e-05
1.61015e-05
1.61015e-05
1.61015e-05
1.61015e-05
1.61016e-05
1.61017e-05
1.61019e-05
1.61021e-05
1.61025e-05
1.61028e-05
1.61033e-05
1.61041e-05
1.61051e-05
1.61062e-05
1.6107e-05
1.61069e-05
1.61052e-05
1.60992e-05
1.60879e-05
1.60678e-05
1.60662e-05
1.62342e-05
1.67801e-05
1.84782e-05
1.23058e-05
1e-05
8.3316e-05
0.00435449
1.61042e-05
1.61031e-05
1.6102e-05
1.61008e-05
1.61018e-05
1.61021e-05
1.61018e-05
1.61011e-05
1.61007e-05
1.61004e-05
1.61002e-05
1.61001e-05
1.61e-05
1.60999e-05
1.60999e-05
1.61e-05
1.61001e-05
1.61003e-05
1.61005e-05
1.61007e-05
1.6101e-05
1.61012e-05
1.61014e-05
1.61016e-05
1.61018e-05
1.6102e-05
1.6102e-05
1.61021e-05
1.61022e-05
1.61023e-05
1.61026e-05
1.61029e-05
1.61033e-05
1.61037e-05
1.61047e-05
1.61029e-05
1.61172e-05
1.60552e-05
1.62699e-05
1.61039e-05
1.61034e-05
1.61031e-05
1.61027e-05
1.61023e-05
1.6102e-05
1.61017e-05
1.61016e-05
1.61015e-05
1.61014e-05
1.61014e-05
1.61014e-05
1.61013e-05
1.61013e-05
1.61014e-05
1.61014e-05
1.61015e-05
1.61016e-05
1.61017e-05
1.61019e-05
1.61023e-05
1.61027e-05
1.61032e-05
1.6104e-05
1.61049e-05
1.6106e-05
1.61074e-05
1.61092e-05
1.61108e-05
1.61094e-05
1.61019e-05
1.60727e-05
1.60455e-05
1.60704e-05
1.66452e-05
1.99094e-05
1e-05
1.13701e-05
0.00112182
1.6104e-05
1.61031e-05
1.6102e-05
1.61007e-05
1.61015e-05
1.61018e-05
1.61015e-05
1.61009e-05
1.61005e-05
1.61002e-05
1.61001e-05
1.60999e-05
1.60998e-05
1.60997e-05
1.60997e-05
1.60997e-05
1.60999e-05
1.61e-05
1.61002e-05
1.61005e-05
1.61007e-05
1.6101e-05
1.61012e-05
1.61015e-05
1.61017e-05
1.61019e-05
1.6102e-05
1.61021e-05
1.61021e-05
1.61022e-05
1.61023e-05
1.61025e-05
1.61028e-05
1.6103e-05
1.61041e-05
1.61021e-05
1.61127e-05
1.60821e-05
1.61504e-05
1.61036e-05
1.6103e-05
1.61027e-05
1.61023e-05
1.61019e-05
1.61016e-05
1.61014e-05
1.61013e-05
1.61013e-05
1.61012e-05
1.61012e-05
1.61013e-05
1.61013e-05
1.61013e-05
1.61013e-05
1.61014e-05
1.61015e-05
1.61015e-05
1.61017e-05
1.61019e-05
1.61021e-05
1.61024e-05
1.61028e-05
1.61033e-05
1.61041e-05
1.61049e-05
1.61061e-05
1.61076e-05
1.61099e-05
1.61127e-05
1.6115e-05
1.6113e-05
1.60792e-05
1.61015e-05
1.56276e-05
1.92694e-05
1.26908e-05
1.00004e-05
8.16381e-05
1.61038e-05
1.61031e-05
1.6102e-05
1.61006e-05
1.61013e-05
1.61016e-05
1.61013e-05
1.61007e-05
1.61003e-05
1.61e-05
1.60999e-05
1.60997e-05
1.60996e-05
1.60995e-05
1.60995e-05
1.60995e-05
1.60996e-05
1.60998e-05
1.61e-05
1.61002e-05
1.61004e-05
1.61007e-05
1.6101e-05
1.61013e-05
1.61015e-05
1.61017e-05
1.61019e-05
1.6102e-05
1.61021e-05
1.61021e-05
1.61022e-05
1.61023e-05
1.61025e-05
1.61028e-05
1.61033e-05
1.61031e-05
1.61056e-05
1.61023e-05
1.61083e-05
1.61032e-05
1.61027e-05
1.61023e-05
1.61019e-05
1.61016e-05
1.61013e-05
1.61012e-05
1.61011e-05
1.61011e-05
1.61012e-05
1.61012e-05
1.61013e-05
1.61013e-05
1.61013e-05
1.61014e-05
1.61014e-05
1.61015e-05
1.61016e-05
1.61017e-05
1.61018e-05
1.6102e-05
1.61022e-05
1.61026e-05
1.6103e-05
1.61035e-05
1.61043e-05
1.61052e-05
1.61063e-05
1.61078e-05
1.61101e-05
1.61126e-05
1.61203e-05
1.61034e-05
1.61644e-05
1.58118e-05
1.64233e-05
1.94574e-05
1e-05
1.07164e-05
1.61036e-05
1.6103e-05
1.61019e-05
1.61006e-05
1.61011e-05
1.61013e-05
1.6101e-05
1.61005e-05
1.61001e-05
1.60999e-05
1.60997e-05
1.60996e-05
1.60994e-05
1.60993e-05
1.60993e-05
1.60993e-05
1.60994e-05
1.60995e-05
1.60997e-05
1.60999e-05
1.61002e-05
1.61005e-05
1.61008e-05
1.6101e-05
1.61013e-05
1.61016e-05
1.61018e-05
1.6102e-05
1.61021e-05
1.61021e-05
1.61022e-05
1.61022e-05
1.61023e-05
1.61025e-05
1.61028e-05
1.61032e-05
1.61034e-05
1.61058e-05
1.6103e-05
1.61029e-05
1.61024e-05
1.6102e-05
1.61016e-05
1.61013e-05
1.61011e-05
1.6101e-05
1.6101e-05
1.61011e-05
1.61011e-05
1.61012e-05
1.61013e-05
1.61014e-05
1.61014e-05
1.61015e-05
1.61015e-05
1.61016e-05
1.61016e-05
1.61017e-05
1.61018e-05
1.6102e-05
1.61022e-05
1.61024e-05
1.61028e-05
1.61032e-05
1.61039e-05
1.61047e-05
1.61056e-05
1.61067e-05
1.61083e-05
1.61098e-05
1.61149e-05
1.61135e-05
1.61247e-05
1.61884e-05
1.52619e-05
2.21014e-05
1.00003e-05
1e-05
1.61034e-05
1.61029e-05
1.61019e-05
1.61005e-05
1.61009e-05
1.61011e-05
1.61008e-05
1.61004e-05
1.61e-05
1.60997e-05
1.60995e-05
1.60994e-05
1.60992e-05
1.60991e-05
1.60991e-05
1.60991e-05
1.60992e-05
1.60993e-05
1.60995e-05
1.60997e-05
1.60999e-05
1.61002e-05
1.61005e-05
1.61008e-05
1.61011e-05
1.61014e-05
1.61016e-05
1.61018e-05
1.6102e-05
1.61021e-05
1.61021e-05
1.61022e-05
1.61022e-05
1.61023e-05
1.61025e-05
1.61028e-05
1.6103e-05
1.61049e-05
1.61037e-05
1.61026e-05
1.61021e-05
1.61017e-05
1.61014e-05
1.61011e-05
1.6101e-05
1.61009e-05
1.6101e-05
1.61011e-05
1.61012e-05
1.61013e-05
1.61014e-05
1.61014e-05
1.61015e-05
1.61016e-05
1.61016e-05
1.61017e-05
1.61017e-05
1.61018e-05
1.61019e-05
1.6102e-05
1.61022e-05
1.61024e-05
1.61027e-05
1.61031e-05
1.61036e-05
1.61043e-05
1.61051e-05
1.61061e-05
1.61073e-05
1.61088e-05
1.61099e-05
1.6119e-05
1.60839e-05
1.63108e-05
1.53067e-05
1.94579e-05
1.16019e-05
1.00005e-05
1.61031e-05
1.61028e-05
1.61018e-05
1.61005e-05
1.61008e-05
1.61009e-05
1.61006e-05
1.61002e-05
1.60998e-05
1.60995e-05
1.60993e-05
1.60992e-05
1.6099e-05
1.6099e-05
1.60989e-05
1.60989e-05
1.6099e-05
1.60991e-05
1.60993e-05
1.60995e-05
1.60997e-05
1.61e-05
1.61003e-05
1.61006e-05
1.61009e-05
1.61012e-05
1.61014e-05
1.61017e-05
1.61019e-05
1.6102e-05
1.61021e-05
1.61022e-05
1.61022e-05
1.61022e-05
1.61024e-05
1.61026e-05
1.61028e-05
1.6104e-05
1.61038e-05
1.61023e-05
1.61018e-05
1.61014e-05
1.61011e-05
1.61009e-05
1.61008e-05
1.61009e-05
1.6101e-05
1.61011e-05
1.61012e-05
1.61013e-05
1.61014e-05
1.61015e-05
1.61016e-05
1.61016e-05
1.61017e-05
1.61018e-05
1.61018e-05
1.61019e-05
1.6102e-05
1.61021e-05
1.61022e-05
1.61024e-05
1.61026e-05
1.61029e-05
1.61034e-05
1.6104e-05
1.61047e-05
1.61056e-05
1.61066e-05
1.61082e-05
1.61078e-05
1.61188e-05
1.60815e-05
1.62442e-05
1.57417e-05
1.69224e-05
1.68335e-05
1.00885e-05
1.61028e-05
1.61026e-05
1.61017e-05
1.61005e-05
1.61006e-05
1.61007e-05
1.61005e-05
1.61e-05
1.60996e-05
1.60994e-05
1.60992e-05
1.6099e-05
1.60989e-05
1.60988e-05
1.60988e-05
1.60988e-05
1.60988e-05
1.60989e-05
1.60991e-05
1.60993e-05
1.60995e-05
1.60998e-05
1.61001e-05
1.61004e-05
1.61007e-05
1.6101e-05
1.61013e-05
1.61015e-05
1.61017e-05
1.61019e-05
1.6102e-05
1.61021e-05
1.61022e-05
1.61022e-05
1.61023e-05
1.61024e-05
1.61026e-05
1.61036e-05
1.61036e-05
1.61021e-05
1.61016e-05
1.61011e-05
1.61009e-05
1.61008e-05
1.61008e-05
1.61009e-05
1.6101e-05
1.61011e-05
1.61013e-05
1.61014e-05
1.61015e-05
1.61016e-05
1.61017e-05
1.61017e-05
1.61018e-05
1.61019e-05
1.61019e-05
1.6102e-05
1.61021e-05
1.61022e-05
1.61023e-05
1.61025e-05
1.61026e-05
1.61029e-05
1.61033e-05
1.61038e-05
1.61044e-05
1.61052e-05
1.61061e-05
1.61076e-05
1.61074e-05
1.61146e-05
1.60975e-05
1.61523e-05
1.6076e-05
1.58737e-05
1.84908e-05
1.17002e-05
1.61025e-05
1.61024e-05
1.61016e-05
1.61004e-05
1.61005e-05
1.61005e-05
1.61003e-05
1.60999e-05
1.60995e-05
1.60992e-05
1.6099e-05
1.60989e-05
1.60987e-05
1.60986e-05
1.60986e-05
1.60986e-05
1.60987e-05
1.60988e-05
1.60989e-05
1.60991e-05
1.60993e-05
1.60996e-05
1.60999e-05
1.61002e-05
1.61005e-05
1.61008e-05
1.6101e-05
1.61013e-05
1.61015e-05
1.61017e-05
1.61019e-05
1.61021e-05
1.61021e-05
1.61022e-05
1.61022e-05
1.61023e-05
1.61025e-05
1.61033e-05
1.61033e-05
1.61018e-05
1.61013e-05
1.61009e-05
1.61008e-05
1.61007e-05
1.61008e-05
1.61009e-05
1.6101e-05
1.61012e-05
1.61013e-05
1.61014e-05
1.61016e-05
1.61017e-05
1.61018e-05
1.61018e-05
1.61019e-05
1.6102e-05
1.61021e-05
1.61021e-05
1.61022e-05
1.61023e-05
1.61024e-05
1.61026e-05
1.61027e-05
1.61029e-05
1.61032e-05
1.61037e-05
1.61042e-05
1.61049e-05
1.61057e-05
1.61069e-05
1.61075e-05
1.61104e-05
1.61101e-05
1.61041e-05
1.61946e-05
1.57315e-05
1.75758e-05
1.46051e-05
1.61023e-05
1.61022e-05
1.61015e-05
1.61003e-05
1.61003e-05
1.61004e-05
1.61001e-05
1.60997e-05
1.60993e-05
1.60991e-05
1.60989e-05
1.60987e-05
1.60986e-05
1.60985e-05
1.60985e-05
1.60985e-05
1.60986e-05
1.60986e-05
1.60988e-05
1.60989e-05
1.60991e-05
1.60994e-05
1.60996e-05
1.60999e-05
1.61002e-05
1.61005e-05
1.61008e-05
1.61011e-05
1.61013e-05
1.61016e-05
1.61018e-05
1.61019e-05
1.61021e-05
1.61022e-05
1.61022e-05
1.61022e-05
1.61023e-05
1.6103e-05
1.6103e-05
1.61016e-05
1.61011e-05
1.61007e-05
1.61007e-05
1.61007e-05
1.61007e-05
1.61009e-05
1.6101e-05
1.61012e-05
1.61013e-05
1.61015e-05
1.61016e-05
1.61017e-05
1.61019e-05
1.61019e-05
1.6102e-05
1.61021e-05
1.61022e-05
1.61023e-05
1.61023e-05
1.61024e-05
1.61025e-05
1.61027e-05
1.61028e-05
1.6103e-05
1.61033e-05
1.61036e-05
1.61041e-05
1.61047e-05
1.61054e-05
1.61063e-05
1.61075e-05
1.61081e-05
1.61139e-05
1.60944e-05
1.61855e-05
1.58914e-05
1.66161e-05
1.61542e-05
1.6102e-05
1.6102e-05
1.61014e-05
1.61003e-05
1.61002e-05
1.61002e-05
1.60999e-05
1.60995e-05
1.60992e-05
1.60989e-05
1.60987e-05
1.60985e-05
1.60984e-05
1.60984e-05
1.60984e-05
1.60984e-05
1.60984e-05
1.60985e-05
1.60986e-05
1.60988e-05
1.60989e-05
1.60992e-05
1.60994e-05
1.60997e-05
1.61e-05
1.61003e-05
1.61006e-05
1.61008e-05
1.61011e-05
1.61014e-05
1.61016e-05
1.61018e-05
1.6102e-05
1.61021e-05
1.61022e-05
1.61022e-05
1.61022e-05
1.61028e-05
1.61028e-05
1.61014e-05
1.6101e-05
1.61006e-05
1.61006e-05
1.61006e-05
1.61007e-05
1.61009e-05
1.61011e-05
1.61012e-05
1.61014e-05
1.61016e-05
1.61017e-05
1.61018e-05
1.61019e-05
1.61021e-05
1.61022e-05
1.61022e-05
1.61023e-05
1.61024e-05
1.61025e-05
1.61026e-05
1.61027e-05
1.61028e-05
1.61029e-05
1.61031e-05
1.61033e-05
1.61036e-05
1.6104e-05
1.61046e-05
1.61052e-05
1.6106e-05
1.61072e-05
1.61074e-05
1.61126e-05
1.61003e-05
1.61461e-05
1.60441e-05
1.61713e-05
1.64174e-05
1.61018e-05
1.61018e-05
1.61013e-05
1.61002e-05
1.61001e-05
1.61e-05
1.60997e-05
1.60993e-05
1.6099e-05
1.60988e-05
1.60985e-05
1.60984e-05
1.60983e-05
1.60982e-05
1.60982e-05
1.60982e-05
1.60983e-05
1.60983e-05
1.60985e-05
1.60986e-05
1.60988e-05
1.6099e-05
1.60992e-05
1.60995e-05
1.60998e-05
1.61e-05
1.61003e-05
1.61006e-05
1.61009e-05
1.61011e-05
1.61014e-05
1.61016e-05
1.61018e-05
1.6102e-05
1.61021e-05
1.61021e-05
1.61022e-05
1.61027e-05
1.61027e-05
1.61012e-05
1.61008e-05
1.61005e-05
1.61005e-05
1.61006e-05
1.61007e-05
1.61009e-05
1.61011e-05
1.61013e-05
1.61014e-05
1.61016e-05
1.61018e-05
1.61019e-05
1.6102e-05
1.61022e-05
1.61023e-05
1.61024e-05
1.61025e-05
1.61025e-05
1.61026e-05
1.61027e-05
1.61028e-05
1.61029e-05
1.6103e-05
1.61032e-05
1.61034e-05
1.61037e-05
1.6104e-05
1.61045e-05
1.61051e-05
1.61058e-05
1.61068e-05
1.61073e-05
1.61103e-05
1.61068e-05
1.61195e-05
1.61138e-05
1.60618e-05
1.62859e-05
1.61015e-05
1.61016e-05
1.61011e-05
1.61001e-05
1.60999e-05
1.60998e-05
1.60995e-05
1.60992e-05
1.60988e-05
1.60986e-05
1.60984e-05
1.60982e-05
1.60982e-05
1.60981e-05
1.60981e-05
1.60981e-05
1.60981e-05
1.60982e-05
1.60983e-05
1.60984e-05
1.60986e-05
1.60988e-05
1.6099e-05
1.60993e-05
1.60995e-05
1.60998e-05
1.61001e-05
1.61004e-05
1.61006e-05
1.61009e-05
1.61012e-05
1.61014e-05
1.61016e-05
1.61018e-05
1.6102e-05
1.61021e-05
1.61021e-05
1.61025e-05
1.61026e-05
1.6101e-05
1.61007e-05
1.61004e-05
1.61005e-05
1.61006e-05
1.61007e-05
1.61009e-05
1.61011e-05
1.61013e-05
1.61015e-05
1.61017e-05
1.61018e-05
1.6102e-05
1.61021e-05
1.61023e-05
1.61024e-05
1.61025e-05
1.61026e-05
1.61027e-05
1.61028e-05
1.61029e-05
1.6103e-05
1.61031e-05
1.61032e-05
1.61033e-05
1.61035e-05
1.61038e-05
1.61041e-05
1.61045e-05
1.6105e-05
1.61056e-05
1.61065e-05
1.61072e-05
1.61088e-05
1.61098e-05
1.61095e-05
1.61273e-05
1.6074e-05
1.61651e-05
1.61013e-05
1.61014e-05
1.61009e-05
1.61e-05
1.60998e-05
1.60996e-05
1.60993e-05
1.6099e-05
1.60986e-05
1.60984e-05
1.60982e-05
1.60981e-05
1.6098e-05
1.6098e-05
1.60979e-05
1.60979e-05
1.6098e-05
1.6098e-05
1.60981e-05
1.60982e-05
1.60984e-05
1.60986e-05
1.60988e-05
1.6099e-05
1.60993e-05
1.60996e-05
1.60998e-05
1.61001e-05
1.61004e-05
1.61007e-05
1.61009e-05
1.61012e-05
1.61015e-05
1.61017e-05
1.61019e-05
1.6102e-05
1.6102e-05
1.61023e-05
1.61024e-05
1.61008e-05
1.61006e-05
1.61003e-05
1.61004e-05
1.61006e-05
1.61007e-05
1.61009e-05
1.61011e-05
1.61013e-05
1.61015e-05
1.61017e-05
1.61019e-05
1.61021e-05
1.61022e-05
1.61024e-05
1.61025e-05
1.61026e-05
1.61027e-05
1.61028e-05
1.61029e-05
1.6103e-05
1.61031e-05
1.61032e-05
1.61034e-05
1.61035e-05
1.61037e-05
1.61039e-05
1.61042e-05
1.61045e-05
1.6105e-05
1.61056e-05
1.61063e-05
1.61071e-05
1.6108e-05
1.61102e-05
1.61082e-05
1.61215e-05
1.61005e-05
1.61177e-05
1.61011e-05
1.61012e-05
1.61008e-05
1.60999e-05
1.60996e-05
1.60994e-05
1.60991e-05
1.60988e-05
1.60985e-05
1.60982e-05
1.60981e-05
1.60979e-05
1.60978e-05
1.60978e-05
1.60978e-05
1.60978e-05
1.60978e-05
1.60979e-05
1.6098e-05
1.60981e-05
1.60982e-05
1.60984e-05
1.60986e-05
1.60988e-05
1.60991e-05
1.60993e-05
1.60996e-05
1.60999e-05
1.61001e-05
1.61004e-05
1.61007e-05
1.6101e-05
1.61013e-05
1.61015e-05
1.61017e-05
1.61019e-05
1.61019e-05
1.61021e-05
1.61023e-05
1.61007e-05
1.61004e-05
1.61003e-05
1.61004e-05
1.61005e-05
1.61007e-05
1.61009e-05
1.61012e-05
1.61014e-05
1.61016e-05
1.61018e-05
1.6102e-05
1.61022e-05
1.61023e-05
1.61025e-05
1.61026e-05
1.61027e-05
1.61028e-05
1.6103e-05
1.61031e-05
1.61032e-05
1.61033e-05
1.61034e-05
1.61035e-05
1.61037e-05
1.61038e-05
1.6104e-05
1.61043e-05
1.61046e-05
1.6105e-05
1.61055e-05
1.61061e-05
1.6107e-05
1.61077e-05
1.61096e-05
1.61092e-05
1.61151e-05
1.61132e-05
1.61109e-05
1.61009e-05
1.6101e-05
1.61006e-05
1.60998e-05
1.60995e-05
1.60993e-05
1.60989e-05
1.60986e-05
1.60983e-05
1.6098e-05
1.60979e-05
1.60978e-05
1.60977e-05
1.60976e-05
1.60976e-05
1.60976e-05
1.60977e-05
1.60977e-05
1.60978e-05
1.60979e-05
1.6098e-05
1.60982e-05
1.60984e-05
1.60986e-05
1.60988e-05
1.60991e-05
1.60993e-05
1.60996e-05
1.60999e-05
1.61002e-05
1.61004e-05
1.61007e-05
1.6101e-05
1.61013e-05
1.61015e-05
1.61017e-05
1.61018e-05
1.6102e-05
1.61021e-05
1.61005e-05
1.61003e-05
1.61002e-05
1.61004e-05
1.61005e-05
1.61007e-05
1.61009e-05
1.61012e-05
1.61014e-05
1.61016e-05
1.61019e-05
1.61021e-05
1.61022e-05
1.61024e-05
1.61026e-05
1.61027e-05
1.61028e-05
1.6103e-05
1.61031e-05
1.61032e-05
1.61033e-05
1.61035e-05
1.61036e-05
1.61037e-05
1.61038e-05
1.6104e-05
1.61042e-05
1.61044e-05
1.61047e-05
1.61051e-05
1.61055e-05
1.61061e-05
1.61068e-05
1.61076e-05
1.6109e-05
1.61098e-05
1.61121e-05
1.61153e-05
1.61143e-05
1.61007e-05
1.61008e-05
1.61004e-05
1.60996e-05
1.60993e-05
1.60991e-05
1.60987e-05
1.60984e-05
1.60981e-05
1.60979e-05
1.60977e-05
1.60976e-05
1.60975e-05
1.60975e-05
1.60974e-05
1.60975e-05
1.60975e-05
1.60975e-05
1.60976e-05
1.60977e-05
1.60978e-05
1.6098e-05
1.60982e-05
1.60984e-05
1.60986e-05
1.60988e-05
1.60991e-05
1.60993e-05
1.60996e-05
1.60999e-05
1.61002e-05
1.61005e-05
1.61008e-05
1.61011e-05
1.61013e-05
1.61015e-05
1.61017e-05
1.61018e-05
1.6102e-05
1.61004e-05
1.61002e-05
1.61001e-05
1.61003e-05
1.61005e-05
1.61007e-05
1.6101e-05
1.61012e-05
1.61015e-05
1.61017e-05
1.61019e-05
1.61021e-05
1.61023e-05
1.61025e-05
1.61027e-05
1.61028e-05
1.6103e-05
1.61031e-05
1.61032e-05
1.61034e-05
1.61035e-05
1.61036e-05
1.61038e-05
1.61039e-05
1.6104e-05
1.61042e-05
1.61043e-05
1.61046e-05
1.61048e-05
1.61052e-05
1.61056e-05
1.61061e-05
1.61068e-05
1.61075e-05
1.61086e-05
1.61098e-05
1.61112e-05
1.61139e-05
1.61167e-05
1.61005e-05
1.61006e-05
1.61003e-05
1.60995e-05
1.60991e-05
1.60989e-05
1.60985e-05
1.60982e-05
1.60979e-05
1.60977e-05
1.60975e-05
1.60974e-05
1.60973e-05
1.60973e-05
1.60973e-05
1.60973e-05
1.60973e-05
1.60974e-05
1.60974e-05
1.60975e-05
1.60976e-05
1.60978e-05
1.60979e-05
1.60981e-05
1.60983e-05
1.60986e-05
1.60988e-05
1.6099e-05
1.60993e-05
1.60996e-05
1.60999e-05
1.61002e-05
1.61005e-05
1.61008e-05
1.61011e-05
1.61013e-05
1.61015e-05
1.61016e-05
1.61018e-05
1.61002e-05
1.61001e-05
1.61e-05
1.61003e-05
1.61005e-05
1.61007e-05
1.6101e-05
1.61012e-05
1.61015e-05
1.61017e-05
1.6102e-05
1.61022e-05
1.61024e-05
1.61026e-05
1.61028e-05
1.61029e-05
1.61031e-05
1.61032e-05
1.61034e-05
1.61035e-05
1.61037e-05
1.61038e-05
1.61039e-05
1.61041e-05
1.61042e-05
1.61044e-05
1.61045e-05
1.61047e-05
1.6105e-05
1.61053e-05
1.61057e-05
1.61062e-05
1.61068e-05
1.61075e-05
1.61084e-05
1.61095e-05
1.61111e-05
1.61125e-05
1.61168e-05
1.61004e-05
1.61004e-05
1.61001e-05
1.60993e-05
1.60989e-05
1.60986e-05
1.60983e-05
1.60979e-05
1.60976e-05
1.60974e-05
1.60973e-05
1.60972e-05
1.60971e-05
1.60971e-05
1.60971e-05
1.60971e-05
1.60971e-05
1.60972e-05
1.60972e-05
1.60973e-05
1.60974e-05
1.60975e-05
1.60977e-05
1.60979e-05
1.60981e-05
1.60983e-05
1.60985e-05
1.60988e-05
1.6099e-05
1.60993e-05
1.60996e-05
1.60999e-05
1.61002e-05
1.61005e-05
1.61008e-05
1.61011e-05
1.61013e-05
1.61014e-05
1.61017e-05
1.61001e-05
1.61e-05
1.61e-05
1.61002e-05
1.61004e-05
1.61007e-05
1.6101e-05
1.61013e-05
1.61015e-05
1.61018e-05
1.6102e-05
1.61022e-05
1.61025e-05
1.61027e-05
1.61028e-05
1.6103e-05
1.61032e-05
1.61034e-05
1.61035e-05
1.61037e-05
1.61038e-05
1.6104e-05
1.61041e-05
1.61043e-05
1.61044e-05
1.61045e-05
1.61047e-05
1.61049e-05
1.61051e-05
1.61054e-05
1.61058e-05
1.61062e-05
1.61068e-05
1.61075e-05
1.61083e-05
1.61093e-05
1.61109e-05
1.61117e-05
1.6116e-05
1.61002e-05
1.61002e-05
1.60999e-05
1.60991e-05
1.60987e-05
1.60984e-05
1.60981e-05
1.60977e-05
1.60974e-05
1.60972e-05
1.60971e-05
1.6097e-05
1.60969e-05
1.60969e-05
1.60969e-05
1.60969e-05
1.60969e-05
1.6097e-05
1.6097e-05
1.60971e-05
1.60972e-05
1.60973e-05
1.60974e-05
1.60976e-05
1.60978e-05
1.6098e-05
1.60982e-05
1.60985e-05
1.60987e-05
1.6099e-05
1.60993e-05
1.60996e-05
1.60999e-05
1.61002e-05
1.61005e-05
1.61008e-05
1.61011e-05
1.61012e-05
1.61016e-05
1.61e-05
1.60999e-05
1.60999e-05
1.61002e-05
1.61004e-05
1.61007e-05
1.6101e-05
1.61013e-05
1.61015e-05
1.61018e-05
1.61021e-05
1.61023e-05
1.61025e-05
1.61027e-05
1.61029e-05
1.61031e-05
1.61033e-05
1.61035e-05
1.61036e-05
1.61038e-05
1.6104e-05
1.61041e-05
1.61043e-05
1.61044e-05
1.61046e-05
1.61047e-05
1.61049e-05
1.61051e-05
1.61053e-05
1.61056e-05
1.61059e-05
1.61063e-05
1.61068e-05
1.61075e-05
1.61083e-05
1.61092e-05
1.61108e-05
1.61114e-05
1.61152e-05
1.61e-05
1.61e-05
1.60997e-05
1.6099e-05
1.60985e-05
1.60982e-05
1.60978e-05
1.60975e-05
1.60972e-05
1.6097e-05
1.60968e-05
1.60967e-05
1.60967e-05
1.60967e-05
1.60966e-05
1.60967e-05
1.60967e-05
1.60967e-05
1.60968e-05
1.60968e-05
1.60969e-05
1.6097e-05
1.60972e-05
1.60973e-05
1.60975e-05
1.60977e-05
1.60979e-05
1.60981e-05