/*--------------------------------*- C++ -*----------------------------------*\
| =========                 |                                                 |
| \\      /  F ield         | OpenFOAM: The Open Source CFD Toolbox           |
|  \\    /   O peration     | Version:  2306                                  |
|   \\  /    A nd           | Website:  www.openfoam.com                      |
|    \\/     M anipulation  |                                                 |
\*---------------------------------------------------------------------------*/
FoamFile
{
    version     2.0;
    format      ascii;
    arch        "LSB;label=32;scalar=64";
    class       volSymmTensorField;
    location    "225";
    object      turbulenceProperties:devReff;
}
// * * * * * * * * * * * * * * * * * * * * * * * * * * * * * * * * * * * * * //

dimensions      [0 2 -2 0 0 0 0];

internalField   nonuniform List<symmTensor> 
1340
(
(1.51689e-07 3.93529e-08 -6.5252e-20 -2.16803e-07 -6.69213e-21 6.51142e-08)
(-1.07009e-07 -3.11878e-08 -6.43279e-20 1.62247e-07 -8.10126e-21 -5.52381e-08)
(1.55678e-07 4.34257e-08 3.39359e-20 -2.19749e-07 3.37361e-21 6.40709e-08)
(1.02222e-07 6.49398e-08 3.45378e-19 -1.47566e-07 3.83105e-20 4.5344e-08)
(-9.25537e-08 -3.36437e-08 8.5703e-23 1.52848e-07 -2.9929e-22 -6.02947e-08)
(1.43286e-07 5.16353e-08 -7.59622e-22 -2.14996e-07 1.79428e-22 7.171e-08)
(-1.61914e-08 2.85297e-08 -1.75616e-19 4.87538e-08 -2.08135e-20 -3.25625e-08)
(9.96229e-08 6.07098e-08 5.64082e-21 -1.46636e-07 1.17778e-21 4.70131e-08)
(-8.39413e-08 -3.48247e-08 7.68604e-20 1.4661e-07 9.50289e-21 -6.26689e-08)
(1.37994e-07 5.57041e-08 -1.54174e-19 -2.13288e-07 -1.58507e-20 7.52944e-08)
(2.99408e-08 4.90659e-08 -4.19253e-19 -1.52603e-08 -4.85449e-20 -1.46805e-08)
(7.13613e-08 5.93571e-08 -2.29483e-19 -9.36982e-08 -2.54208e-20 2.23369e-08)
(-1.42462e-08 2.82091e-08 7.75142e-20 4.71528e-08 9.12837e-21 -3.29066e-08)
(9.96186e-08 5.56899e-08 -1.14382e-19 -1.46913e-07 -1.27151e-20 4.72944e-08)
(-7.93813e-08 -3.46714e-08 -3.23853e-19 1.42512e-07 -4.00619e-20 -6.31302e-08)
(1.38064e-07 5.74762e-08 1.48006e-19 -2.14146e-07 1.48774e-20 7.60827e-08)
(5.95129e-08 6.0151e-08 6.19687e-20 -5.34812e-08 7.13127e-21 -6.03169e-09)
(6.92202e-08 6.1866e-08 -1.657e-20 -7.87583e-08 -1.9679e-21 9.53813e-09)
(3.05343e-08 4.65756e-08 1.6156e-21 -1.56285e-08 -2.96245e-22 -1.49058e-08)
(7.20672e-08 5.44224e-08 7.6925e-22 -9.45538e-08 -1.16037e-22 2.24866e-08)
(-1.25161e-08 2.78481e-08 5.45341e-20 4.5659e-08 6.55754e-21 -3.31429e-08)
(9.95289e-08 5.08039e-08 -5.77848e-21 -1.4713e-07 -8.98298e-22 4.76014e-08)
(-7.5138e-08 -3.45072e-08 1.95981e-22 1.38908e-07 -1.70136e-23 -6.37697e-08)
(1.37868e-07 5.90652e-08 -5.62102e-22 -2.14968e-07 1.33599e-22 7.70993e-08)
(9.51932e-08 6.71886e-08 -1.39448e-19 -9.65147e-08 -1.61978e-20 1.32142e-09)
(8.1949e-08 6.34066e-08 -1.77818e-19 -7.96854e-08 -2.02175e-20 -2.2636e-09)
(7.934e-08 6.27223e-08 -2.22727e-19 -8.30693e-08 -2.48397e-20 3.72926e-09)
(5.92284e-08 5.57945e-08 -9.05323e-20 -5.30939e-08 -9.83256e-21 -6.13454e-09)
(6.94747e-08 5.69828e-08 1.00611e-20 -7.91925e-08 1.47929e-21 9.71781e-09)
(3.09702e-08 4.4013e-08 1.70522e-19 -1.58998e-08 1.96309e-20 -1.50703e-08)
(7.2383e-08 4.96465e-08 3.53623e-20 -9.51105e-08 3.71559e-21 2.27275e-08)
(-1.06991e-08 2.72402e-08 -1.22266e-19 4.41663e-08 -1.42982e-20 -3.34671e-08)
(9.89216e-08 4.638e-08 1.09729e-19 -1.47131e-07 1.20873e-20 4.82092e-08)
(-7.07213e-08 -3.46896e-08 1.82217e-22 1.35581e-07 -1.13347e-22 -6.48598e-08)
(1.36549e-07 6.05354e-08 2.78097e-22 -2.15351e-07 -6.18995e-23 7.88017e-08)
(1.21192e-07 6.02654e-08 -3.29535e-20 -1.21039e-07 -3.15276e-21 -1.52503e-10)
(1.10769e-07 6.152e-08 1.63742e-19 -1.1129e-07 1.8036e-20 5.20384e-10)
(1.00105e-07 6.09974e-08 1.9036e-20 -9.92352e-08 1.88775e-21 -8.69401e-10)
(9.34705e-08 6.05503e-08 1.09701e-19 -9.48777e-08 1.20811e-20 1.40715e-09)
(8.05981e-08 5.75882e-08 4.46104e-22 -7.82934e-08 -3.37424e-22 -2.30466e-09)
(7.86419e-08 5.71506e-08 9.66098e-22 -8.24892e-08 -6.32503e-23 3.84731e-09)
(5.87273e-08 5.14373e-08 7.58642e-20 -5.25011e-08 8.51353e-21 -6.22627e-09)
(6.94603e-08 5.2143e-08 -9.5847e-21 -7.93336e-08 -1.18439e-21 9.87328e-09)
(3.1314e-08 4.13517e-08 -7.94006e-22 -1.60897e-08 2.04354e-22 -1.52243e-08)
(7.24994e-08 4.50171e-08 -1.62219e-22 -9.54653e-08 5.45036e-23 2.2966e-08)
(-8.94644e-09 2.64041e-08 3.51701e-22 4.27639e-08 -6.87111e-23 -3.38174e-08)
(9.82424e-08 4.22726e-08 -5.97099e-22 -1.47125e-07 1.58392e-22 4.88829e-08)
(-6.68043e-08 -3.50573e-08 2.79623e-19 1.32838e-07 3.49021e-20 -6.60339e-08)
(1.35143e-07 6.14272e-08 7.50842e-20 -2.1571e-07 7.63319e-21 8.05675e-08)
(1.68572e-07 3.30598e-08 -9.06274e-20 -1.68563e-07 -9.34746e-21 -8.6721e-12)
(1.549e-07 4.02777e-08 6.70767e-20 -1.54901e-07 7.46089e-21 1.13736e-12)
(1.41666e-07 4.56233e-08 3.38667e-20 -1.41644e-07 3.36427e-21 -2.26833e-11)
(1.29064e-07 4.92495e-08 -1.25772e-20 -1.2911e-07 -1.49e-21 4.59349e-11)
(1.16798e-07 5.19686e-08 1.8248e-22 -1.16625e-07 -2.15848e-23 -1.72896e-10)
(1.07322e-07 5.38499e-08 -6.20108e-22 -1.07855e-07 1.16471e-22 5.33407e-10)
(9.72838e-08 5.40107e-08 -6.98679e-23 -9.63769e-08 -2.83736e-22 -9.06879e-10)
(9.13621e-08 5.40862e-08 -1.19559e-19 -9.28088e-08 -1.32301e-20 1.44672e-09)
(7.89393e-08 5.18894e-08 -5.71162e-20 -7.65703e-08 -5.96704e-21 -2.36892e-09)
(7.76378e-08 5.16597e-08 7.15452e-20 -8.15587e-08 8.05484e-21 3.92097e-09)
(5.80311e-08 4.70963e-08 -7.22128e-20 -5.17084e-08 -8.26841e-21 -6.3227e-09)
(6.92143e-08 4.73585e-08 2.904e-23 -7.91983e-08 -7.42933e-23 9.98401e-09)
(3.15427e-08 3.86152e-08 -1.54215e-19 -1.61776e-08 -1.77889e-20 -1.5365e-08)
(7.24803e-08 4.05094e-08 -3.19507e-20 -9.56367e-08 -3.37528e-21 2.31564e-08)
(-7.38439e-09 2.54023e-08 6.32651e-20 4.15247e-08 7.40929e-21 -3.41403e-08)
(9.76614e-08 3.83417e-08 -9.95002e-20 -1.47164e-07 -1.09862e-20 4.95025e-08)
(-6.35763e-08 -3.54815e-08 -2.36005e-19 1.30711e-07 -2.93355e-20 -6.71342e-08)
(1.34202e-07 6.16537e-08 -9.59604e-20 -2.16417e-07 -9.53826e-21 8.22152e-08)
(2.14125e-07 -3.96142e-08 -8.44592e-20 -2.141e-07 -8.55736e-21 -2.4804e-11)
(2.03727e-07 -2.39143e-08 -1.27372e-20 -2.03702e-07 -9.66862e-22 -2.51436e-11)
(1.92682e-07 -9.77335e-09 -1.32111e-20 -1.92655e-07 -1.33434e-21 -2.65908e-11)
(1.81174e-07 2.81287e-09 -2.05097e-20 -1.81149e-07 -1.98631e-21 -2.50642e-11)
(1.69375e-07 1.38337e-08 -4.02183e-21 -1.69352e-07 -1.45472e-22 -2.30789e-11)
(1.57471e-07 2.3204e-08 5.73291e-20 -1.57446e-07 6.13921e-21 -2.54364e-11)
(1.45664e-07 3.08483e-08 6.59854e-20 -1.45653e-07 6.89205e-21 -1.08919e-11)
(1.34064e-07 3.67223e-08 -1.37085e-22 -1.34022e-07 -8.98461e-23 -4.21875e-11)
(1.22918e-07 4.09355e-08 2.85201e-20 -1.22958e-07 3.13942e-21 4.03363e-11)
(1.11878e-07 4.422e-08 1.83614e-20 -1.1168e-07 1.91319e-21 -1.98109e-10)
(1.03379e-07 4.66021e-08 -4.26e-23 -1.03918e-07 -6.56009e-23 5.38343e-10)
(9.40157e-08 4.73591e-08 -4.59095e-24 -9.30722e-08 2.25122e-23 -9.43452e-10)
(8.88277e-08 4.7879e-08 7.05802e-22 -9.03013e-08 -5.76062e-24 1.47358e-09)
(7.69299e-08 4.63804e-08 5.48417e-20 -7.45032e-08 5.88747e-21 -2.42668e-09)
(7.62878e-08 4.63131e-08 -6.81636e-20 -8.02623e-08 -7.62301e-21 3.97442e-09)
(5.70939e-08 4.28225e-08 6.87373e-20 -5.06909e-08 7.83955e-21 -6.40295e-09)
(6.87014e-08 4.267e-08 2.29323e-24 -7.87653e-08 8.15894e-23 1.00639e-08)
(3.16129e-08 3.58421e-08 1.47343e-19 -1.61369e-08 1.68465e-20 -1.5476e-08)
(7.22891e-08 3.61322e-08 3.07993e-20 -9.55951e-08 3.14884e-21 2.3306e-08)
(-6.04849e-09 2.42699e-08 -6.01941e-20 4.04762e-08 -7.13877e-21 -3.44277e-08)
(9.711e-08 3.45621e-08 2.4703e-22 -1.47191e-07 6.69707e-23 5.00806e-08)
(-6.09091e-08 -3.5965e-08 4.01471e-19 1.29084e-07 4.97525e-20 -6.81744e-08)
(1.33501e-07 6.12543e-08 4.1324e-22 -2.17212e-07 -1.71738e-22 8.37103e-08)
(2.15184e-07 -1.75295e-07 -1.85631e-20 -2.15219e-07 -1.82293e-21 3.49882e-11)
(2.1584e-07 -1.55005e-07 -4.23843e-20 -2.15864e-07 -3.90031e-21 2.3381e-11)
(2.15045e-07 -1.35035e-07 1.96253e-20 -2.15059e-07 1.90319e-21 1.40719e-11)
(2.1283e-07 -1.15553e-07 -3.69884e-20 -2.12834e-07 -3.7329e-21 4.26276e-12)
(2.09264e-07 -9.67316e-08 -1.23633e-20 -2.09261e-07 -8.96088e-22 -2.24846e-12)
(2.0443e-07 -7.87311e-08 4.53877e-20 -2.04422e-07 4.56402e-21 -8.28367e-12)
(1.98443e-07 -6.17049e-08 4.7279e-21 -1.9843e-07 3.22863e-22 -1.32153e-11)
(1.91428e-07 -4.57852e-08 4.55795e-22 -1.91412e-07 -1.81655e-22 -1.65604e-11)
(1.83528e-07 -3.10689e-08 -1.39897e-20 -1.83509e-07 -1.48924e-21 -1.89551e-11)
(1.74885e-07 -1.76155e-08 -1.02744e-20 -1.74864e-07 -1.01241e-21 -2.04924e-11)
(1.65651e-07 -5.4582e-09 1.17861e-22 -1.65629e-07 1.16233e-23 -2.14038e-11)
(1.55978e-07 5.37357e-09 1.44154e-23 -1.55959e-07 -1.59238e-23 -1.95162e-11)
(1.46027e-07 1.47616e-08 -3.34943e-22 -1.46002e-07 2.98003e-23 -2.49653e-11)
(1.36002e-07 2.26001e-08 -1.06026e-20 -1.35995e-07 -1.00651e-21 -7.08108e-12)
(1.25989e-07 2.87958e-08 9.17421e-23 -1.25942e-07 -5.38251e-23 -4.66478e-11)
(1.16281e-07 3.34114e-08 -2.73491e-20 -1.16329e-07 -2.93249e-21 4.80979e-11)
(1.06476e-07 3.7102e-08 -1.75513e-20 -1.06267e-07 -1.83714e-21 -2.09192e-10)
(9.89722e-08 3.98579e-08 -4.05982e-23 -9.95235e-08 3.99717e-23 5.51324e-10)
(9.03199e-08 4.11165e-08 -4.39525e-24 -8.9356e-08 2.90262e-22 -9.63967e-10)
(8.58774e-08 4.20015e-08 1.07926e-19 -8.73784e-08 1.20212e-20 1.50106e-09)
(7.45699e-08 4.11246e-08 2.82625e-20 -7.21053e-08 3.23756e-21 -2.46461e-09)
(7.45874e-08 4.11702e-08 1.11234e-19 -7.86057e-08 1.22398e-20 4.01828e-09)
(5.5905e-08 3.86645e-08 -6.55351e-20 -4.94501e-08 -7.53442e-21 -6.45489e-09)
(6.79109e-08 3.81189e-08 3.83886e-23 -7.80322e-08 -2.30836e-23 1.01213e-08)
(3.15076e-08 3.30649e-08 -1.00437e-19 -1.59556e-08 -1.1293e-20 -1.5552e-08)
(7.19095e-08 3.19037e-08 8.469e-20 -9.53329e-08 9.66432e-21 2.34233e-08)
(-4.92839e-09 2.30267e-08 1.46365e-19 3.96068e-08 1.70322e-20 -3.46784e-08)
(9.65374e-08 3.09287e-08 -8.77359e-24 -1.47178e-07 -1.10162e-22 5.0641e-08)
(-5.87993e-08 -3.65408e-08 -2.61962e-22 1.28044e-07 5.94538e-23 -6.92442e-08)
(1.32982e-07 6.03365e-08 2.15832e-20 -2.1816e-07 2.196e-21 8.51782e-08)
(8.53013e-08 -3.33448e-07 1.5719e-20 -8.53556e-08 1.42092e-21 5.43132e-11)
(9.63171e-08 -3.23132e-07 5.94858e-22 -9.63883e-08 5.9065e-23 7.1202e-11)
(1.07139e-07 -3.12102e-07 9.76014e-22 -1.07221e-07 1.21318e-22 8.20851e-11)
(1.1766e-07 -3.00302e-07 4.67219e-20 -1.17748e-07 4.30647e-21 8.82368e-11)
(1.27773e-07 -2.87721e-07 2.10073e-20 -1.27865e-07 1.95902e-21 9.26076e-11)
(1.37367e-07 -2.74372e-07 3.30857e-20 -1.37458e-07 3.04052e-21 9.14106e-11)
(1.46327e-07 -2.60264e-07 1.03456e-20 -1.46413e-07 9.48681e-22 8.57299e-11)
(1.54547e-07 -2.45408e-07 1.88583e-20 -1.54632e-07 1.70599e-21 8.52796e-11)
(1.61905e-07 -2.29882e-07 -1.08739e-20 -1.61978e-07 -1.26037e-21 7.39681e-11)
(1.68326e-07 -2.13781e-07 -6.52377e-20 -1.68394e-07 -6.06224e-21 6.84354e-11)
(1.73716e-07 -1.97217e-07 1.25194e-20 -1.73776e-07 1.26083e-21 6.00673e-11)
(1.78e-07 -1.80298e-07 -1.71886e-20 -1.7805e-07 -1.70072e-21 4.96923e-11)
(1.81124e-07 -1.63154e-07 8.36769e-23 -1.81166e-07 3.07072e-23 4.13103e-11)
(1.83049e-07 -1.45933e-07 1.16905e-22 -1.83081e-07 -6.23051e-23 3.18219e-11)
(1.83762e-07 -1.28799e-07 -2.40693e-23 -1.83788e-07 9.73255e-24 2.53527e-11)
(1.83261e-07 -1.119e-07 1.17325e-22 -1.83277e-07 -2.73328e-23 1.60832e-11)
(1.81572e-07 -9.5381e-08 4.11042e-23 -1.81582e-07 -3.3106e-23 1.00415e-11)
(1.78739e-07 -7.93921e-08 -1.54485e-22 -1.78744e-07 -4.90867e-23 4.38036e-12)
(1.74831e-07 -6.4084e-08 -2.36896e-20 -1.7483e-07 -2.19802e-21 -1.44164e-12)
(1.69936e-07 -4.95845e-08 4.79112e-20 -1.69931e-07 4.96225e-21 -4.65485e-12)
(1.64152e-07 -3.60122e-08 -3.97729e-21 -1.64144e-07 -5.76453e-22 -8.27937e-12)
(1.57591e-07 -2.34346e-08 9.89957e-21 -1.5758e-07 1.03166e-21 -1.05985e-11)
(1.50369e-07 -1.19091e-08 4.13818e-23 -1.50356e-07 -4.78576e-23 -1.28973e-11)
(1.42615e-07 -1.48021e-09 -6.33554e-22 -1.42604e-07 -2.13489e-22 -1.09692e-11)
(1.34459e-07 7.71409e-09 -5.15363e-20 -1.34439e-07 -5.59978e-21 -1.94769e-11)
(1.26101e-07 1.55436e-08 -5.03115e-20 -1.26103e-07 -5.11936e-21 1.63307e-12)
(1.176e-07 2.18744e-08 3.6459e-20 -1.17553e-07 3.98434e-21 -4.64672e-11)
(1.09283e-07 2.67202e-08 -2.89106e-20 -1.09342e-07 -3.19597e-21 5.95521e-11)
(1.00697e-07 3.06669e-08 1.66957e-20 -1.00483e-07 1.85612e-21 -2.14021e-10)
(9.41846e-08 3.36721e-08 -1.27554e-22 -9.4749e-08 -3.21941e-23 5.64412e-10)
(8.62656e-08 3.53366e-08 -6.18841e-23 -8.52905e-08 -7.45273e-23 -9.7506e-10)
(8.25658e-08 3.65049e-08 -3.89226e-20 -8.40888e-08 -4.36219e-21 1.52298e-09)
(7.19001e-08 3.61706e-08 -7.6585e-20 -6.94126e-08 -8.62216e-21 -2.48741e-09)
(7.2567e-08 3.62784e-08 -1.06112e-19 -7.66152e-08 -1.154e-20 4.04827e-09)
(5.44794e-08 3.46608e-08 2.84797e-20 -4.7996e-08 3.35025e-21 -6.48332e-09)
(6.68599e-08 3.37386e-08 1.5556e-20 -7.70125e-08 1.84474e-21 1.01526e-08)
(3.1233e-08 3.03143e-08 7.67453e-20 -1.56442e-08 8.7236e-21 -1.55888e-08)
(7.13627e-08 2.78316e-08 5.28045e-20 -9.48713e-08 5.88916e-21 2.35086e-08)
(-4.01873e-09 2.16923e-08 -1.91019e-22 3.89018e-08 -2.4267e-23 -3.48831e-08)
(9.59664e-08 2.74093e-08 -8.56319e-24 -1.47137e-07 -5.46209e-24 5.11702e-08)
(-5.7157e-08 -3.71677e-08 -1.03727e-22 1.27404e-07 -2.75701e-23 -7.02469e-08)
(1.32692e-07 5.8914e-08 -2.06132e-20 -2.19272e-07 -2.05975e-21 8.65796e-08)
(-9.86962e-08 -9.53213e-08 -1.17266e-21 9.06754e-08 -4.90479e-23 8.02081e-09)
(-1.02342e-07 -4.93672e-08 1.80673e-22 9.52463e-08 -3.70892e-23 7.09597e-09)
(-1.02915e-07 -1.03765e-07 6.33024e-22 1.03969e-07 7.89664e-23 -1.05401e-09)
(-7.40559e-08 -3.97698e-07 -7.10927e-22 7.60065e-08 -2.57923e-23 -1.95058e-09)
(-6.56954e-08 -1.37221e-06 -1.35245e-21 6.61969e-08 -2.35703e-22 -5.01511e-10)
(-1.07906e-07 -8.94156e-07 2.70852e-21 1.07168e-07 1.84604e-22 7.37982e-10)
(-0.000414561 0.00130049 1.58386e-18 0.00041366 2.37715e-19 9.00686e-07)
(-0.00377303 0.0210711 -5.83042e-18 0.00377513 -4.42151e-19 -2.10455e-06)
(-0.0146018 0.0891318 3.48665e-18 0.0146118 -2.34056e-19 -9.94424e-06)
(-0.0342781 0.20751 2.88098e-17 0.034279 2.62141e-18 -8.72017e-07)
(-0.0582854 0.338232 6.75492e-18 0.0582742 1.00389e-18 1.11789e-05)
(-0.078885 0.431414 2.37672e-17 0.0788749 2.77626e-18 1.00602e-05)
(-0.0884578 0.448083 -3.78437e-17 0.0884487 -1.50052e-18 9.13684e-06)
(-0.0818324 0.370591 -1.20857e-16 0.0818238 -1.22697e-17 8.58898e-06)
(-0.058096 0.208144 3.87118e-17 0.0580947 -1.8569e-18 1.30286e-06)
(-0.0214493 -0.00381664 2.48521e-16 0.0214509 2.28643e-17 -1.58529e-06)
(0.019676 -0.213692 3.40112e-17 -0.0196837 7.16296e-18 7.74286e-06)
(0.053997 -0.362418 -4.94078e-17 -0.0539995 -4.39992e-18 2.50562e-06)
(0.0690881 -0.398213 7.36141e-18 -0.0690721 -9.97209e-19 -1.59847e-05)
(0.0591992 -0.312516 6.95257e-17 -0.0591791 6.89402e-18 -2.00914e-05)
(0.0330405 -0.164337 -2.56786e-17 -0.0330336 -2.81706e-18 -6.91951e-06)
(0.0101482 -0.0487703 4.50778e-17 -0.0101484 4.72813e-18 2.45494e-07)
(0.00116767 -0.00583497 -2.05764e-17 -0.00116756 -1.9542e-18 -1.15703e-07)
(3.64352e-07 -1.19197e-05 2.76208e-19 -3.70863e-07 2.0483e-20 6.51109e-09)
(-1.01212e-06 7.13848e-07 5.1368e-20 1.00765e-06 5.42612e-21 4.46998e-09)
(-6.40734e-08 -9.15307e-08 1.02716e-21 6.39234e-08 1.35297e-22 1.50013e-10)
(-1.04728e-08 -2.60758e-07 1.59966e-21 1.0564e-08 6.21971e-23 -9.12071e-11)
(7.70292e-09 -2.91566e-07 1.21601e-20 -7.63784e-09 1.13191e-21 -6.50851e-11)
(5.88419e-09 -2.59916e-07 -7.875e-22 -5.89326e-09 -1.03948e-24 9.0718e-12)
(3.78691e-09 -2.55499e-07 4.16565e-21 -3.81004e-09 4.25847e-22 2.31299e-11)
(9.15448e-09 -3.679e-07 -1.41784e-20 -9.17452e-09 -1.16304e-21 2.00303e-11)
(1.71551e-08 -3.73569e-07 -2.14891e-20 -1.71612e-08 -2.05933e-21 6.06402e-12)
(2.34837e-08 -3.34532e-07 1.85845e-21 -2.3493e-08 1.08637e-22 9.27856e-12)
(3.06243e-08 -3.17167e-07 -8.41093e-21 -3.06344e-08 -8.14312e-22 1.00654e-11)
(3.90426e-08 -3.10824e-07 1.78846e-20 -3.90556e-08 1.63395e-21 1.2994e-11)
(4.78694e-08 -3.04235e-07 -5.5726e-21 -4.78864e-08 -4.36988e-22 1.70363e-11)
(5.67493e-08 -2.96316e-07 -1.55695e-20 -5.67703e-08 -1.43945e-21 2.09742e-11)
(6.5736e-08 -2.88181e-07 -1.39439e-20 -6.57612e-08 -1.33136e-21 2.52293e-11)
(7.4804e-08 -2.79855e-07 1.28762e-20 -7.48383e-08 1.19002e-21 3.42692e-11)
(8.38285e-08 -2.71046e-07 3.12421e-25 -8.38679e-08 -5.34367e-24 3.93453e-11)
(9.27164e-08 -2.61639e-07 -2.59927e-23 -9.27621e-08 3.40933e-23 4.56985e-11)
(1.0138e-07 -2.51618e-07 -1.60627e-23 -1.0143e-07 2.41769e-23 4.98871e-11)
(1.09737e-07 -2.40969e-07 -2.24417e-23 -1.09793e-07 1.67039e-23 5.57667e-11)
(1.17684e-07 -2.29679e-07 -1.19589e-23 -1.17739e-07 6.73963e-24 5.5261e-11)
(1.2513e-07 -2.17729e-07 -6.40923e-22 -1.25189e-07 -7.34568e-23 5.91132e-11)
(1.31972e-07 -2.05152e-07 -1.75944e-20 -1.32029e-07 -1.67914e-21 5.67623e-11)
(1.38135e-07 -1.92016e-07 1.13597e-22 -1.38189e-07 1.10233e-22 5.4414e-11)
(1.43537e-07 -1.78403e-07 4.96238e-20 -1.43588e-07 4.78254e-21 5.16171e-11)
(1.481e-07 -1.64387e-07 6.24835e-23 -1.48147e-07 -1.02347e-22 4.62832e-11)
(1.5176e-07 -1.50055e-07 1.25792e-20 -1.51802e-07 1.20585e-21 4.12114e-11)
(1.54467e-07 -1.35528e-07 -3.20732e-21 -1.54501e-07 -3.20472e-22 3.43051e-11)
(1.56187e-07 -1.20934e-07 2.14719e-20 -1.56216e-07 2.1527e-21 2.92993e-11)
(1.56897e-07 -1.06396e-07 1.57526e-23 -1.5692e-07 -7.09878e-23 2.23431e-11)
(1.56595e-07 -9.20376e-08 5.32002e-24 -1.56612e-07 -2.28722e-23 1.69955e-11)
(1.55293e-07 -7.79878e-08 1.7413e-23 -1.55306e-07 8.71861e-23 1.23534e-11)
(1.53025e-07 -6.43842e-08 2.26579e-20 -1.53032e-07 2.10265e-21 6.70087e-12)
(1.49846e-07 -5.13515e-08 -5.025e-20 -1.49849e-07 -5.1228e-21 2.60591e-12)
(1.45821e-07 -3.90058e-08 1.27003e-20 -1.45821e-07 1.46816e-21 -1.70829e-13)
(1.41028e-07 -2.74278e-08 -7.1573e-23 -1.41024e-07 -1.34525e-23 -3.21912e-12)
(1.35551e-07 -1.66791e-08 1.8533e-22 -1.35544e-07 -1.30763e-22 -6.86272e-12)
(1.29495e-07 -6.81739e-09 -2.83896e-20 -1.29491e-07 -2.9994e-21 -4.27188e-12)
(1.22959e-07 2.01216e-09 3.06281e-22 -1.22943e-07 4.225e-23 -1.57692e-11)
(1.16133e-07 9.66255e-09 9.49595e-21 -1.16142e-07 8.89846e-22 8.53538e-12)
(1.09044e-07 1.59636e-08 -2.37895e-22 -1.08997e-07 3.16325e-23 -4.69642e-11)
(1.02049e-07 2.08873e-08 2.4828e-22 -1.02118e-07 -7.64439e-23 6.93643e-11)
(9.46443e-08 2.49499e-08 -1.59706e-20 -9.44259e-08 -1.8117e-21 -2.1843e-10)
(8.91009e-08 2.80877e-08 -3.66522e-20 -8.96735e-08 -4.00767e-21 5.72567e-10)
(8.1924e-08 3.006e-08 -2.39186e-20 -8.09425e-08 -2.49641e-21 -9.8149e-10)
(7.8951e-08 3.14345e-08 1.19433e-20 -8.04873e-08 1.47915e-21 1.53624e-09)
(6.89626e-08 3.15586e-08 5.69098e-20 -6.64627e-08 6.2957e-21 -2.49992e-09)
(7.0261e-08 3.16791e-08 5.11008e-20 -7.43204e-08 5.44708e-21 4.05937e-09)
(5.28406e-08 3.085e-08 -7.22819e-23 -4.63528e-08 -1.83396e-22 -6.48787e-09)
(6.55639e-08 2.95583e-08 -6.78598e-20 -7.57157e-08 -7.589e-21 1.01518e-08)
(3.07782e-08 2.76248e-08 -1.46492e-22 -1.51867e-08 6.90815e-23 -1.55915e-08)
(7.06546e-08 2.39163e-08 -5.10063e-20 -9.41938e-08 -5.52512e-21 2.35392e-08)
(-3.34907e-09 2.03029e-08 3.89153e-20 3.83887e-08 4.61481e-21 -3.50396e-08)
(9.54199e-08 2.39496e-08 -2.0871e-22 -1.47059e-07 -2.13636e-23 5.16386e-08)
(-5.60247e-08 -3.78033e-08 -1.60231e-19 1.27234e-07 -1.9837e-20 -7.12094e-08)
(1.32725e-07 5.69986e-08 1.96357e-20 -2.20577e-07 2.00212e-21 8.78518e-08)
(-1.30985e-07 -2.02625e-07 -2.64124e-24 1.19876e-07 -8.40634e-23 1.1109e-08)
(-8.17161e-08 -8.98185e-08 1.8377e-21 7.57342e-08 1.55252e-22 5.98195e-09)
(-9.10928e-08 -4.14607e-08 6.85938e-22 9.18341e-08 1.1458e-22 -7.41254e-10)
(-8.83935e-08 -5.69772e-08 -5.64004e-22 8.99213e-08 -2.50787e-23 -1.52787e-09)
(-6.45294e-08 -2.62136e-07 -5.76425e-22 6.46204e-08 -6.43796e-23 -9.10443e-11)
(-2.70239e-08 -6.48581e-07 2.81053e-24 2.69002e-08 -8.78496e-24 1.23718e-10)
(-4.31191e-06 -0.000129701 1.6186e-22 4.31225e-06 -4.33717e-21 -3.46556e-10)
(-0.000101505 3.47072e-05 7.9071e-19 0.000101236 8.36427e-20 2.69928e-07)
(-0.00159857 0.00781139 -2.80946e-18 0.00159809 -2.95044e-19 4.77014e-07)
(-0.00832539 0.0487171 1.70322e-17 0.00833135 1.55815e-18 -5.9653e-06)
(-0.0234823 0.139953 -9.23553e-18 0.0234895 -3.99597e-19 -7.12546e-06)
(-0.0450224 0.260318 2.19795e-19 0.0450171 -7.53518e-19 5.25288e-06)
(-0.0662023 0.363652 5.28479e-17 0.0661919 4.89469e-18 1.03733e-05)
(-0.0791347 0.406504 -1.93699e-18 0.0791259 1.29163e-18 8.77567e-06)
(-0.0777375 0.363793 -6.00987e-17 0.0777303 -5.43161e-18 7.22237e-06)
(-0.0598007 0.236018 -1.04134e-18 0.0597991 1.55547e-19 1.55134e-06)
(-0.028212 0.0507769 -6.85993e-17 0.0282138 -7.72323e-18 -1.79593e-06)
(0.00976714 -0.145908 7.63764e-17 -0.00977287 5.5812e-18 5.73093e-06)
(0.0438517 -0.299177 5.03665e-17 -0.0438551 5.28014e-18 3.42937e-06)
(0.0620119 -0.356301 3.35336e-17 -0.0619999 2.49377e-18 -1.20283e-05)
(0.0569523 -0.298303 9.24801e-17 -0.0569347 1.08726e-17 -1.76416e-05)
(0.034359 -0.16897 -1.25179e-16 -0.0343506 -1.2312e-17 -8.35081e-06)
(0.0119256 -0.056241 6.45821e-17 -0.0119249 6.10241e-18 -7.83251e-07)
(0.0016629 -0.00788475 -2.42275e-17 -0.00166265 -2.05976e-18 -2.45844e-07)
(8.30736e-06 -6.89379e-05 1.00473e-21 -8.32585e-06 -1.00957e-20 1.84962e-08)
(-3.91842e-06 3.94318e-06 8.17236e-23 3.90167e-06 1.02674e-21 1.67446e-08)
(-6.6251e-08 -2.16322e-08 -2.91554e-21 6.608e-08 -2.34628e-22 1.70923e-10)
(-1.2092e-08 -2.02659e-07 -4.86755e-21 1.21648e-08 -4.80561e-22 -7.28661e-11)
(9.95083e-09 -2.53152e-07 6.0773e-22 -9.89038e-09 3.0674e-23 -6.04553e-11)
(9.22983e-09 -2.28382e-07 -1.22155e-21 -9.23898e-09 -1.15166e-22 9.1472e-12)
(6.23089e-09 -2.07585e-07 5.36221e-22 -6.26112e-09 4.28014e-24 3.02306e-11)
(1.14329e-08 -2.9889e-07 1.04479e-20 -1.14727e-08 9.86151e-22 3.97904e-11)
(1.92651e-08 -3.22971e-07 3.07217e-24 -1.93006e-08 -1.5583e-24 3.55363e-11)
(2.40142e-08 -2.86094e-07 1.45847e-20 -2.40505e-08 1.41969e-21 3.6241e-11)
(2.92706e-08 -2.67285e-07 -1.30081e-20 -2.93078e-08 -1.1852e-21 3.72257e-11)
(3.60223e-08 -2.61465e-07 3.44135e-21 -3.60635e-08 2.87066e-22 4.1181e-11)
(4.3323e-08 -2.56259e-07 -3.48888e-24 -4.33644e-08 -2.81371e-23 4.13958e-11)
(5.06462e-08 -2.49487e-07 1.71772e-20 -5.06838e-08 1.63185e-21 3.76039e-11)
(5.80474e-08 -2.4241e-07 -4.70801e-21 -5.8089e-08 -4.16929e-22 4.16712e-11)
(6.55255e-08 -2.35271e-07 6.08878e-21 -6.55641e-08 5.70819e-22 3.85952e-11)
(7.2985e-08 -2.27724e-07 3.19411e-21 -7.30247e-08 3.39054e-22 3.96163e-11)
(8.03282e-08 -2.19634e-07 -4.78202e-24 -8.03672e-08 3.04869e-23 3.89921e-11)
(8.75001e-08 -2.11031e-07 1.73541e-20 -8.75388e-08 1.69001e-21 3.8691e-11)
(9.4436e-08 -2.01921e-07 -3.40164e-24 -9.44744e-08 -4.29135e-24 3.8436e-11)
(1.01051e-07 -1.92266e-07 5.81502e-22 -1.0109e-07 1.00265e-22 3.84325e-11)
(1.0726e-07 -1.82051e-07 1.26262e-20 -1.07297e-07 1.21722e-21 3.74311e-11)
(1.12987e-07 -1.71319e-07 2.06639e-23 -1.13023e-07 -8.1065e-23 3.60819e-11)
(1.18166e-07 -1.6013e-07 -8.31622e-23 -1.18199e-07 1.01079e-22 3.34707e-11)
(1.22725e-07 -1.48532e-07 2.64718e-20 -1.22756e-07 2.59875e-21 3.07167e-11)
(1.26597e-07 -1.36586e-07 -1.1946e-20 -1.26624e-07 -1.25048e-21 2.70387e-11)
(1.29728e-07 -1.24379e-07 2.57798e-23 -1.29751e-07 -7.13722e-23 2.31129e-11)
(1.32075e-07 -1.12013e-07 -2.0531e-20 -1.32094e-07 -2.01564e-21 1.95942e-11)
(1.33601e-07 -9.95874e-08 1.33843e-23 -1.33615e-07 5.9108e-23 1.42452e-11)
(1.34286e-07 -8.72032e-08 4.55072e-24 -1.34297e-07 4.3418e-23 1.05685e-11)
(1.34121e-07 -7.49673e-08 2.09843e-20 -1.34128e-07 2.16103e-21 6.72575e-12)
(1.33116e-07 -6.29972e-08 2.74611e-21 -1.33119e-07 2.77281e-22 3.1249e-12)
(1.31295e-07 -5.14135e-08 4.39314e-21 -1.31294e-07 3.58258e-22 -7.92718e-13)
(1.28699e-07 -4.03199e-08 -8.39222e-21 -1.28696e-07 -9.64234e-22 -3.07014e-12)
(1.25377e-07 -2.98041e-08 -2.26981e-20 -1.25372e-07 -2.13198e-21 -5.30442e-12)
(1.21385e-07 -1.99237e-08 6.75958e-20 -1.21376e-07 7.26894e-21 -8.88575e-12)
(1.16804e-07 -1.07481e-08 2.76564e-20 -1.16799e-07 2.83411e-21 -5.18926e-12)
(1.11702e-07 -2.41174e-09 4.67687e-20 -1.11683e-07 4.98814e-21 -1.88927e-11)
(1.06257e-07 4.92159e-09 5.41529e-20 -1.06267e-07 5.58895e-21 9.77133e-12)
(1.00463e-07 1.10533e-08 -4.19528e-20 -1.0041e-07 -4.50264e-21 -5.23595e-11)
(9.47011e-08 1.59245e-08 5.80501e-20 -9.47744e-08 6.34949e-21 7.33795e-11)
(8.84195e-08 1.99784e-08 -1.50375e-20 -8.81954e-08 -1.79882e-21 -2.24095e-10)
(8.3808e-08 2.31392e-08 -3.10738e-23 -8.43812e-08 7.4511e-23 5.73272e-10)
(7.73668e-08 2.53224e-08 1.25787e-20 -7.63825e-08 1.32593e-21 -9.84291e-10)
(7.50947e-08 2.68326e-08 -1.05302e-20 -7.66308e-08 -1.09283e-21 1.53616e-09)
(6.5805e-08 2.73324e-08 4.46998e-20 -6.33055e-08 5.08271e-21 -2.49951e-09)
(6.77144e-08 2.74085e-08 3.40187e-20 -7.1765e-08 3.75397e-21 4.05058e-09)
(5.10049e-08 2.72725e-08 -5.70741e-24 -4.45394e-08 5.20667e-24 -6.4655e-09)
(6.40597e-08 2.55989e-08 4.36518e-20 -7.41655e-08 4.85322e-21 1.01059e-08)
(3.01317e-08 2.5047e-08 9.82261e-24 -1.45976e-08 -2.2889e-22 -1.55341e-08)
(6.98448e-08 2.01417e-08 -1.47619e-19 -9.33459e-08 -1.66045e-20 2.3501e-08)
(-2.97349e-09 1.89152e-08 -3.71869e-20 3.80678e-08 -4.27574e-21 -3.50943e-08)
(9.49973e-08 2.05017e-08 -9.52442e-20 -1.46964e-07 -1.03345e-20 5.19664e-08)
(-5.5366e-08 -3.83376e-08 1.61419e-19 1.27351e-07 2.00048e-20 -7.19846e-08)
(1.33285e-07 5.46248e-08 -1.87415e-20 -2.22205e-07 -1.88497e-21 8.89194e-08)
(-1.14564e-07 -2.14109e-07 -7.43324e-25 1.0488e-07 2.67848e-23 9.68388e-09)
(-1.07189e-07 -1.80243e-07 3.66215e-24 9.9022e-08 2.38845e-23 8.1672e-09)
(-7.34846e-08 -8.46275e-08 -6.66461e-22 7.413e-08 -8.78933e-23 -6.45371e-10)
(-7.60913e-08 -4.23754e-08 9.53021e-22 7.74262e-08 7.38236e-23 -1.33491e-09)
(-7.44013e-08 -2.99154e-08 1.75905e-22 7.44644e-08 5.05083e-23 -6.31367e-11)
(-5.90084e-08 -1.54884e-07 -7.84304e-22 5.88056e-08 -7.75204e-23 2.02806e-10)
(-2.51199e-08 -4.77865e-07 5.02604e-22 2.52518e-08 3.42415e-23 -1.31954e-10)
(-2.92283e-08 -2.49936e-05 1.14797e-22 3.71439e-08 2.28098e-22 -7.91561e-09)
(-6.7498e-06 -4.97662e-05 -1.08828e-22 6.72473e-06 2.91006e-22 2.50716e-08)
(-0.000513276 0.00191608 1.43431e-20 0.000512529 5.43139e-21 7.47033e-07)
(-0.00413455 0.0227287 -2.71686e-20 0.00413696 -1.04888e-19 -2.41307e-06)
(-0.0148173 0.0864369 1.30032e-17 0.0148264 1.27542e-18 -9.12931e-06)
(-0.0330651 0.190075 2.08684e-19 0.0330668 2.29999e-19 -1.68303e-06)
(-0.0538444 0.29661 -1.26749e-18 0.0538361 -6.01698e-19 8.33702e-06)
(-0.0693565 0.360303 3.85732e-17 0.0693487 3.88861e-18 7.83123e-06)
(-0.0726697 0.348897 2.90448e-18 0.0726636 6.26815e-19 6.07974e-06)
(-0.0603063 0.254323 2.9343e-17 0.0603036 2.06188e-18 2.66291e-06)
(-0.033719 0.095779 5.5286e-17 0.0337187 5.70312e-18 3.287e-07)
(0.000956404 -0.0862764 1.77773e-20 -0.000962861 1.10686e-18 6.4575e-06)
(0.0343003 -0.240739 -3.63646e-17 -0.0343082 -2.84998e-18 7.92019e-06)
(0.0548236 -0.315136 -4.13052e-17 -0.0548223 -6.17687e-18 -1.33049e-06)
(0.0540909 -0.282119 1.60747e-16 -0.0540814 1.64968e-17 -9.56219e-06)
(0.0351473 -0.171858 -1.20345e-16 -0.0351418 -1.04519e-17 -5.45768e-06)
(0.0134637 -0.0629759 3.9104e-19 -0.0134638 -4.11332e-19 1.20721e-07)
(0.00221198 -0.0102671 -6.65659e-18 -0.00221196 -6.17243e-19 -2.08991e-08)
(3.61869e-05 -0.000224329 -6.58537e-22 -3.62156e-05 -3.07283e-21 2.86717e-08)
(-7.76689e-06 8.07703e-06 -7.16285e-20 7.74142e-06 -6.92535e-21 2.54677e-08)
(-6.54884e-08 2.76708e-08 -4.22816e-24 6.54436e-08 1.60786e-23 4.48124e-11)
(-1.06692e-08 -1.53135e-07 -2.75225e-21 1.0867e-08 -2.63082e-22 -1.97714e-10)
(1.43962e-08 -2.17363e-07 -1.95589e-24 -1.42246e-08 -1.75242e-23 -1.71606e-10)
(1.31605e-08 -1.98293e-07 9.60419e-25 -1.31017e-08 -5.08721e-24 -5.87888e-11)
(7.62661e-09 -1.7108e-07 -1.32525e-22 -7.62062e-09 -8.1498e-24 -5.99049e-12)
(1.07484e-08 -2.34841e-07 -1.94268e-21 -1.07415e-08 -1.24846e-22 -6.84907e-12)
(1.93458e-08 -2.8296e-07 -2.1441e-20 -1.93316e-08 -2.11317e-21 -1.42355e-11)
(2.38314e-08 -2.49698e-07 1.3205e-20 -2.38277e-08 1.21808e-21 -3.6555e-12)
(2.7704e-08 -2.27355e-07 -3.26999e-21 -2.77184e-08 -2.79155e-22 1.4368e-11)
(3.30032e-08 -2.20837e-07 1.51576e-24 -3.30317e-08 -1.45303e-23 2.85206e-11)
(3.90019e-08 -2.16738e-07 -3.72647e-21 -3.90404e-08 -3.42152e-22 3.85409e-11)
(4.50171e-08 -2.10804e-07 -7.20144e-21 -4.50614e-08 -7.01558e-22 4.42256e-11)
(5.10555e-08 -2.04241e-07 -6.99143e-25 -5.11045e-08 -8.58529e-24 4.90052e-11)
(5.72082e-08 -1.97823e-07 -8.19579e-24 -5.72596e-08 3.01459e-23 5.14153e-11)
(6.34025e-08 -1.91277e-07 1.06914e-20 -6.34588e-08 1.05411e-21 5.6313e-11)
(6.95163e-08 -1.84317e-07 -1.3578e-20 -6.95718e-08 -1.29957e-21 5.54468e-11)
(7.54902e-08 -1.76888e-07 -3.31922e-21 -7.55465e-08 -3.12036e-22 5.63282e-11)
(8.12719e-08 -1.69005e-07 -4.73098e-24 -8.13295e-08 1.72516e-23 5.76257e-11)
(8.67947e-08 -1.6066e-07 -8.78939e-24 -8.68507e-08 1.00885e-23 5.60357e-11)
(9.1996e-08 -1.51861e-07 1.68097e-23 -9.20516e-08 -4.88382e-23 5.55715e-11)
(9.68129e-08 -1.42646e-07 -1.91887e-23 -9.68657e-08 -3.857e-23 5.28307e-11)
(1.01185e-07 -1.33045e-07 -2.52542e-20 -1.01237e-07 -2.39968e-21 5.12739e-11)
(1.05048e-07 -1.23103e-07 3.10711e-20 -1.05095e-07 3.16111e-21 4.67654e-11)
(1.08349e-07 -1.12872e-07 2.93897e-21 -1.08392e-07 1.96651e-22 4.35354e-11)
(1.11041e-07 -1.02435e-07 1.83249e-23 -1.11081e-07 -7.17351e-24 4.07674e-11)
(1.13081e-07 -9.18731e-08 1.80369e-23 -1.13116e-07 -7.39836e-24 3.53171e-11)
(1.14441e-07 -8.12612e-08 3.86736e-24 -1.14473e-07 -8.19771e-23 3.18982e-11)
(1.15096e-07 -7.06871e-08 -2.01388e-20 -1.15123e-07 -2.01395e-21 2.75084e-11)
(1.15037e-07 -6.02513e-08 -2.65167e-21 -1.1506e-07 -1.9249e-22 2.29913e-11)
(1.14271e-07 -5.00548e-08 1.27669e-21 -1.1429e-07 1.96084e-22 1.87646e-11)
(1.12817e-07 -4.02012e-08 2.29582e-20 -1.12832e-07 2.41269e-21 1.56104e-11)
(1.10698e-07 -3.07644e-08 8.59099e-21 -1.10709e-07 5.39271e-22 1.15889e-11)
(1.07952e-07 -2.18059e-08 -9.18188e-20 -1.07959e-07 -9.66347e-21 6.8317e-12)
(1.04633e-07 -1.33939e-08 -1.61908e-20 -1.04644e-07 -1.43207e-21 1.03357e-11)
(1.00781e-07 -5.64378e-09 1.84176e-20 -1.00773e-07 1.79553e-21 -8.48156e-12)
(9.6568e-08 1.25957e-09 -8.87708e-20 -9.65916e-08 -9.40342e-21 2.363e-11)
(9.19459e-08 7.11671e-09 3.15331e-20 -9.19011e-08 3.54184e-21 -4.48634e-11)
(8.73171e-08 1.18143e-08 -1.60609e-20 -8.74015e-08 -1.71147e-21 8.44537e-11)