/*--------------------------------*- C++ -*----------------------------------*\
| =========                 |                                                 |
| \\      /  F ield         | OpenFOAM: The Open Source CFD Toolbox           |
|  \\    /   O peration     | Version:  2306                                  |
|   \\  /    A nd           | Website:  www.openfoam.com                      |
|    \\/     M anipulation  |                                                 |
\*---------------------------------------------------------------------------*/
FoamFile
{
    version     2.0;
    format      ascii;
    arch        "LSB;label=32;scalar=64";
    class       volScalarField;
    location    "225";
    object      div(phi);
}
// * * * * * * * * * * * * * * * * * * * * * * * * * * * * * * * * * * * * * //

dimensions      [0 0 -1 0 0 0 0];

internalField   nonuniform List<scalar> 
1340
(
-2.47789e-05
3.74198e-05
2.56289e-05
4.97932e-05
-3.0563e-05
2.9867e-05
3.29161e-05
0.000104936
-1.819e-05
3.11274e-05
1.62992e-05
1.86598e-05
-2.93063e-05
2.85784e-05
3.5293e-05
0.00010855
-1.21682e-05
2.7357e-05
8.51687e-06
3.28688e-06
-2.23343e-05
2.43638e-05
3.50047e-05
0.000100604
-6.82981e-06
1.90231e-05
3.04351e-06
-1.30406e-05
-1.53331e-05
2.03674e-05
3.26123e-05
8.28679e-05
-2.90295e-06
1.34381e-05
-2.62191e-06
-2.31221e-05
-9.62498e-06
1.71325e-05
2.96059e-05
6.59019e-05
-9.8489e-07
7.84453e-06
-5.68195e-06
-2.63657e-05
-5.42059e-06
1.4405e-05
2.58583e-05
5.11842e-05
1.8382e-07
4.54509e-06
-8.34869e-06
-2.78332e-05
-2.23148e-06
1.18941e-05
2.18987e-05
3.86119e-05
6.2854e-07
1.316e-06
-9.92548e-06
-2.48483e-05
-1.87916e-07
9.77502e-06
1.76476e-05
2.86168e-05
3.21901e-07
-5.14926e-07
-1.02822e-05
-2.25406e-05
1.29494e-06
7.9025e-06
1.38144e-05
2.0183e-05
5.47916e-07
-2.04327e-06
-1.04125e-05
-1.76954e-05
1.80914e-06
6.53252e-06
1.00071e-05
1.3682e-05
-5.08236e-07
-2.94462e-06
-9.26726e-06
-1.48738e-05
1.8982e-06
4.95392e-06
6.93139e-06
8.51568e-06
-8.74745e-07
-3.03932e-06
-9.00937e-06
-1.08246e-05
1.55866e-06
3.49477e-06
4.51962e-06
5.30309e-06
-1.16301e-06
-3.62719e-06
-6.98527e-06
-8.0338e-06
1.08887e-06
2.10526e-06
3.01981e-06
3.3439e-06
-1.4139e-06
-3.03957e-06
-5.62212e-06
-5.26425e-06
6.96886e-07
1.16434e-06
2.06866e-06
2.44887e-06
-9.73412e-07
-2.634e-06
-3.77788e-06
-3.13618e-06
4.54915e-07
5.76069e-07
1.57056e-06
1.94173e-06
-6.75756e-07
-1.90607e-06
-2.31372e-06
-1.77304e-06
2.35032e-07
3.72932e-07
1.17274e-06
1.50114e-06
-3.25766e-07
-1.20353e-06
-1.34324e-06
-9.96275e-07
1.40644e-07
2.51333e-07
8.2786e-07
1.07828e-06
-2.17816e-07
-6.90077e-07
-7.49171e-07
-5.90445e-07
1.60752e-08
1.75248e-07
5.4221e-07
7.35092e-07
-8.15704e-08
-3.67164e-07
-4.0557e-07
-3.53375e-07
5.1063e-08
1.11929e-07
3.3816e-07
4.67169e-07
1.55537e-07
-5.80868e-08
-1.7923e-07
-2.12406e-07
-2.0471e-07
8.06366e-08
7.95338e-09
5.9642e-08
1.96334e-07
2.87604e-07
7.51163e-08
-3.41109e-08
-7.8683e-08
-1.0177e-07
-1.24586e-07
1.99255e-08
-6.48772e-09
2.74742e-08
1.03852e-07
1.70885e-07
4.8273e-08
-1.08707e-08
-2.64055e-08
-4.90182e-08
-7.05988e-08
1.22848e-08
-1.01216e-08
6.2729e-09
4.84525e-08
9.42381e-08
2.63383e-08
2.14017e-09
-5.36688e-09
-2.32464e-08
-4.38034e-08
1.37052e-08
-4.1358e-09
-3.16629e-09
1.6563e-08
4.90924e-08
3.01439e-08
7.29997e-09
2.02944e-09
-1.19355e-08
-2.9024e-08
1.64872e-08
-2.51243e-09
-7.76448e-09
1.49792e-09
2.43665e-08
1.68227e-08
5.71205e-09
3.56826e-09
-5.28473e-09
-1.89943e-08
1.57011e-08
-1.8282e-10
-6.10356e-09
-4.05579e-09
1.34579e-08
1.73047e-08
7.70911e-09
5.28882e-09
1.8326e-09
-1.15507e-08
1.3965e-08
5.10436e-09
-3.36239e-10
-3.70622e-09
9.46027e-09
7.77306e-09
7.20793e-09
3.78489e-09
5.84052e-09
6.35377e-09
3.09412e-09
4.32459e-08
1.3979e-09
8.29488e-09
2.23934e-09
2.5022e-09
1.38376e-08
-5.84486e-09
1.08441e-08
3.96414e-09
6.89236e-09
1.83032e-08
1.39802e-08
3.37751e-08
4.72555e-09
8.83733e-09
4.60986e-09
8.83754e-09
2.00568e-08
-1.27481e-09
7.29585e-09
-2.19593e-09
4.15921e-09
1.40478e-08
1.67552e-08
1.6835e-08
5.27194e-10
3.13404e-09
-9.61689e-10
5.88994e-09
2.08102e-08
4.69035e-09
4.29061e-09
-3.08842e-09
9.96309e-10
1.53521e-08
5.71343e-09
1.44972e-08
1.54221e-09
3.2742e-09
6.36968e-09
3.35469e-09
2.46534e-08
2.01596e-09
7.59154e-09
6.02521e-10
1.18425e-08
4.61161e-09
1.29694e-08
-1.06807e-11
7.23698e-09
7.59846e-10
1.33995e-08
-2.19524e-09
2.31629e-08
-6.83295e-09
1.92351e-08
2.63299e-09
1.04297e-08
1.61274e-09
1.65996e-08
1.27215e-09
1.93546e-08
5.77771e-10
9.02212e-09
5.39111e-09
1.16314e-08
7.36557e-09
1.13358e-08
5.23305e-09
2.41616e-08
5.68664e-09
1.18081e-08
8.19843e-09
1.12331e-08
9.89608e-09
7.52389e-09
8.59816e-10
1.3185e-08
7.34815e-09
1.33525e-08
7.7119e-09
1.01253e-08
6.91984e-09
2.51906e-08
7.83792e-09
1.08498e-08
7.57984e-09
7.55514e-09
6.4197e-09
4.83542e-09
-1.78637e-09
7.16427e-09
4.93903e-09
3.95382e-09
2.90594e-09
-2.35981e-09
1.58242e-09
1.95919e-08
-6.03336e-10
2.0368e-09
-1.52785e-09
-1.10857e-09
-4.24553e-09
-4.58351e-09
-3.72016e-09
6.06307e-09
-2.10005e-10
3.97684e-09
-3.10512e-09
1.33277e-09
-6.9701e-09
3.00063e-08
1.03098e-08
1.38441e-08
6.7346e-09
1.0337e-08
1.25894e-09
9.60433e-09
5.72769e-08
2.35866e-08
2.43789e-08
2.00431e-08
1.90029e-08
1.43909e-08
1.43227e-08
8.26309e-09
4.37647e-08
3.0407e-08
2.71334e-08
2.45956e-08
2.0262e-08
1.82076e-08
1.50779e-08
1.21244e-08
4.97859e-08
2.75657e-08
2.5393e-08
1.91599e-08
1.9068e-08
1.14282e-08
1.48675e-08
2.62749e-09
4.00348e-08
2.36505e-08
1.74907e-08
1.38985e-08
9.13409e-09
5.16207e-09
6.46717e-09
-1.30055e-10
4.407e-08
1.23879e-08
7.40573e-09
-1.19132e-09
-1.25771e-09
-6.57555e-09
3.31274e-10
-3.88863e-09
-1.41133e-08
4.50648e-09
-6.14473e-09
-3.56961e-09
-8.21728e-09
-2.16393e-09
6.61765e-09
-5.48135e-09
7.56399e-08
2.21111e-08
3.23381e-08
1.58061e-08
4.06976e-08
1.84336e-08
3.71918e-08
-1.41866e-09
9.35511e-08
1.02468e-07
1.02325e-07
9.08017e-08
1.18295e-07
3.92085e-08
1.08625e-07
1.96114e-08
2.12589e-07
9.80801e-08
1.22888e-07
1.18644e-07
9.07015e-08
1.19885e-07
5.17208e-08
9.71832e-08
0.000696527
3.13104e-05
-2.05606e-05
0.000119547
-3.64229e-05
0.000115345
-4.41265e-05
8.84854e-05
-4.64308e-05
6.26346e-05
-3.80706e-05
4.29729e-05
-3.16646e-05
2.91641e-05
-2.24482e-05
1.98563e-05
-1.69437e-05
1.33356e-05
-1.10869e-05
8.42353e-06
-8.6148e-06
4.79817e-06
-6.40746e-06
2.55108e-06
-4.89835e-06
1.39978e-06
-3.53164e-06
1.06991e-06
-2.14974e-06
9.95499e-07
-1.16174e-06
8.66412e-07
-5.91725e-07
6.72824e-07
-2.7214e-07
4.45002e-07
-1.17049e-07
2.79298e-07
-4.19568e-08
1.6089e-07
8.92204e-09
8.48525e-08
1.82289e-08
4.3412e-08
1.64738e-08
1.89597e-08
9.52463e-09
7.65917e-09
2.44904e-09
3.69598e-09
1.2435e-09
6.70164e-09
-9.77503e-09
1.01176e-08
-4.82072e-09
1.86593e-08
1.23781e-08
1.63757e-08
2.81662e-08
-6.94478e-09
7.4365e-09
2.81734e-08
-5.8976e-09
1.37625e-08
9.18931e-09
1.04304e-08
9.13358e-09
-1.04925e-09
-3.82174e-09
-8.1181e-10
-1.1141e-08
1.46807e-08
2.07436e-08
2.32599e-08
1.63932e-08
1.60878e-08
2.36147e-08
5.51613e-08
7.85739e-08
2.01192e-07
0.000254842
-5.59738e-05
-1.74737e-06
-7.12031e-06
-4.74198e-06
1.33035e-05
-1.12272e-05
2.0676e-05
-1.52455e-05
2.16691e-05
-1.64351e-05
1.90743e-05
-1.68601e-05
1.53635e-05
-1.45805e-05
1.15231e-05
-1.26217e-05
8.13509e-06
-9.51884e-06
5.49568e-06
-7.4956e-06
3.5692e-06
-5.11222e-06
2.40255e-06
-3.69259e-06
1.7262e-06
-2.29052e-06
1.38918e-06
-1.34047e-06
1.12184e-06
-7.63369e-07
8.66864e-07
-4.19511e-07
6.11923e-07
-2.49873e-07
4.28041e-07
-1.26477e-07
2.72817e-07
-3.29129e-08
1.71339e-07
3.8981e-09
1.0151e-07
2.55747e-08
5.03979e-08
2.36995e-08
2.12253e-08
1.58796e-08
6.44503e-09
1.00758e-08
3.53893e-09
3.31575e-09
-3.21291e-09
3.22263e-09
-1.52038e-08
5.97574e-09
-8.00863e-09
5.55544e-09
5.52842e-09
-3.02106e-09
2.74745e-08
1.09597e-08
-1.10426e-08
2.39403e-08
3.70634e-09
5.82547e-09
6.58095e-09
6.49363e-09
6.09088e-09
-4.56476e-09
-1.16954e-08
9.05376e-09
5.13403e-09
1.20612e-08
-3.95935e-09
-2.21829e-09
-7.38132e-12
-7.84997e-09
-2.67921e-08
2.57405e-07
-2.81648e-08
6.53601e-05
-0.000103248
-4.80389e-06
-8.25692e-05
7.60287e-06
-5.90112e-05
1.05804e-05
-3.97433e-05
1.27971e-05
-2.43904e-05
1.00829e-05
-1.34654e-05
8.19221e-06
-5.62546e-06
5.0139e-06
-8.39367e-07
2.63221e-06
1.74881e-06
9.63332e-07
2.3356e-06
-5.78948e-07
1.80633e-06
-1.54005e-06
1.05469e-06
-1.88286e-06
5.59003e-07
-1.76483e-06
4.31354e-07
-1.31956e-06
5.03775e-07
-8.15474e-07
5.42617e-07
-4.8348e-07
5.0784e-07
-2.40136e-07
3.8975e-07
-1.04566e-07
2.86969e-07
-3.6293e-08
1.8973e-07
1.74783e-08
1.13099e-07
2.5407e-08
6.25983e-08
2.37342e-08
2.96638e-08
1.67178e-08
1.35877e-08
9.61046e-09
3.90593e-09
8.36282e-09
1.69727e-09
-6.71165e-09
-5.42469e-10
-1.6368e-08
-4.92873e-09
-1.455e-08
7.79199e-11
1.66106e-08
-9.65123e-09
3.91089e-09
2.74288e-08
-5.52073e-09
1.14839e-08
6.54796e-09
9.00692e-09
1.15245e-08
2.75624e-10
-3.2457e-09
-1.58387e-10
-1.23936e-08
1.22121e-08
1.60023e-08
1.74961e-08
1.72023e-08
2.20118e-08
2.17549e-08
6.26266e-08
1.53983e-07
4.00475e-08
2.54789e-06
-0.000101388
-2.06684e-05
-6.8463e-05
3.55322e-06
-4.46856e-05
1.4263e-05
-2.93065e-05
1.64472e-05
-1.89361e-05
1.67817e-05
-1.14793e-05
1.37394e-05
-6.38344e-06
1.13011e-05
-2.8015e-06
7.70924e-06
-5.86855e-07
5.27448e-06
6.81454e-07
2.8186e-06
1.25587e-06
1.27473e-06
1.45182e-06
4.45484e-07
1.40445e-06
-8.77845e-08
1.24958e-06
-1.3125e-07
1.03133e-06
-1.55033e-07
7.72256e-07
-1.24025e-07
5.35293e-07
-1.12018e-07
3.92811e-07
-5.87596e-08
2.75819e-07
4.58043e-09
1.94892e-07
1.9274e-08
1.29899e-07
3.2063e-08
7.43739e-08
2.63116e-08
3.70684e-08
1.80836e-08
1.43667e-08
1.26906e-08
8.65647e-09
5.09778e-09
4.16036e-09
2.57162e-09
-8.20865e-09
-4.96687e-09
-1.97291e-08
-5.62464e-09
-1.0761e-08
-1.22794e-08
2.23251e-08
1.25592e-08
-1.10206e-08
2.20581e-08
2.99809e-09
5.04889e-09
5.5201e-09
5.31544e-09
6.53884e-09
-2.97651e-09
-1.224e-08
8.81512e-09
4.16875e-09
1.41225e-08
-5.13896e-09
5.95156e-09
1.26468e-08
1.09207e-08
2.98955e-08
2.52033e-07
-5.13241e-08
0.000137536
1.38421e-05
3.16705e-05
7.11836e-06
1.94022e-05
-9.54325e-08
1.17187e-05
-3.89025e-06
7.45035e-06
-5.32178e-06
5.59915e-06
-5.33948e-06
4.54178e-06
-4.58764e-06
4.24158e-06
-3.42749e-06
3.72303e-06
-2.2155e-06
3.30446e-06
-1.11174e-06
2.6461e-06
-4.37045e-07
1.90496e-06
-1.52737e-07
8.72066e-07
-7.5375e-08
2.72942e-07
-1.8599e-08
-1.48286e-07
6.43495e-08
-2.45452e-07
1.97468e-07
-1.87084e-07
3.05195e-07
-5.65683e-08
3.01051e-07
1.45557e-08
2.61813e-07
3.0869e-08
1.92195e-07
5.11591e-08
1.23921e-07
3.72216e-08
7.37355e-08
2.60213e-08
3.95348e-08
1.66069e-08
2.18838e-08
9.6679e-09
8.12698e-09
8.91407e-09
3.73633e-09
1.46495e-09
-7.12228e-10
-1.05449e-08
-7.96172e-09
-2.21067e-08
-1.24762e-09
1.92702e-08
-8.84129e-09
6.2041e-10
2.64038e-08
-5.39433e-09
8.02067e-09
3.02743e-09
9.01658e-09
9.44919e-09
1.83086e-10
-4.11305e-09
1.95345e-09
-1.2625e-08
1.21627e-08
9.10332e-09
1.4029e-08
7.80625e-09
6.82467e-09
2.76769e-08
6.0709e-08
1.20895e-07
-8.81325e-09
4.88538e-05
-1.27589e-05
1.41026e-05
-9.38091e-06
1.32477e-05
-7.5743e-06
1.15105e-05
-6.03045e-06
1.00333e-05
-4.71194e-06
8.22853e-06
-3.738e-06
6.85908e-06
-2.97923e-06
5.37224e-06
-2.42271e-06
4.43927e-06
-1.90959e-06
3.3617e-06
-1.44746e-06
2.81196e-06
-9.39659e-07
1.98422e-06
-4.20367e-07
1.58599e-06
8.61188e-08
1.23041e-06
4.25519e-07
8.84999e-07
6.02502e-07
6.81405e-07
5.97885e-07
4.68006e-07
4.55067e-07
2.37436e-07
3.34648e-07
1.15844e-07
2.27693e-07
7.86777e-08
1.58282e-07
4.1759e-08
1.08856e-07
3.52403e-08
6.80135e-08
2.42688e-08
3.83251e-08
1.54931e-08
1.65742e-08
9.93527e-09
1.02917e-08
3.01748e-09
4.7592e-09
1.9554e-09
-3.02944e-09
-2.88034e-09
-1.61962e-08
4.72328e-09
1.35409e-09
-1.97088e-08
1.42672e-08
1.21827e-08
-1.17929e-08
1.82521e-08
1.16302e-09
5.36441e-09
5.96477e-09
5.20961e-09
-5.68266e-10
4.25532e-10
-1.2748e-08
8.80491e-09
4.46865e-09
1.53234e-08
-3.82553e-09
2.78048e-09
1.26381e-08
1.57905e-09
2.57481e-08
1.55822e-05
-2.07309e-05
2.26764e-06
-1.68719e-05
3.70931e-06
-1.43244e-05
4.36164e-06
-1.20119e-05
4.72017e-06
-9.86752e-06
4.55884e-06
-7.94468e-06
4.40525e-06
-6.22944e-06
3.92115e-06
-4.79537e-06
3.58613e-06
-3.58491e-06
3.04308e-06
-2.61822e-06
2.65127e-06
-1.80522e-06
2.14305e-06
-1.21088e-06
1.78545e-06
-7.88306e-07
1.15309e-06
-4.94965e-07
8.01602e-07
-2.66615e-07
4.45548e-07
-9.77914e-08
2.13211e-07
6.63486e-08
1.72067e-07
1.35019e-07
1.424e-07
1.49044e-07
9.31088e-08
1.18237e-07
7.54109e-08
7.75479e-08
4.11534e-08
4.62634e-08
2.13802e-08
2.58641e-08
9.96519e-09
1.75131e-08
4.04902e-09
6.47818e-09
3.44934e-09
1.70499e-09
-3.60576e-09
-8.58927e-10
-8.5829e-09
-1.76143e-09
-8.65923e-09
-1.99699e-08
9.27236e-09
-1.28426e-08
-1.7898e-08
2.00043e-08
-7.09188e-09
-3.52954e-09
5.49399e-09
4.04549e-09
8.86446e-10
1.6239e-09
-7.6533e-09
5.10212e-09
-6.46912e-09
1.72419e-08
7.61055e-09
1.95997e-08
5.50467e-10
-1.1286e-08
-7.67308e-06
-2.23431e-05
-5.68821e-06
-1.53184e-05
-4.1933e-07
-1.16191e-05
1.99228e-06
-9.2918e-06
3.29585e-06
-7.54903e-06
3.87625e-06
-6.12867e-06
3.95888e-06
-4.95472e-06
3.89037e-06
-3.94907e-06
3.47838e-06
-3.13628e-06
3.19527e-06
-2.42233e-06
2.64235e-06
-1.83232e-06
2.34882e-06
-1.25913e-06
1.80769e-06
-7.25428e-07
1.5919e-06
-2.36189e-07
1.32359e-06
9.71725e-08
1.0657e-06
2.72134e-07
8.76264e-07
2.60617e-07
5.70625e-07
1.86874e-07
3.25566e-07
1.02206e-07
1.82576e-07
5.2942e-08
7.89024e-08
3.07324e-08
4.03417e-08
1.99811e-08
1.96478e-08
1.34979e-08
9.24604e-09
3.47373e-09
2.72697e-09
2.5061e-09
-4.2877e-09
-1.38999e-09
-5.38552e-09
-6.13774e-09
-8.83e-09
-8.60295e-09
-1.49401e-08
-5.62834e-09
-2.67707e-08
-3.01717e-08
1.57573e-08
-2.51808e-08
-4.43648e-09
1.70561e-09
-2.45512e-09
5.21433e-09
-7.28755e-10
-6.60726e-09
1.37609e-09
-1.06111e-08
1.52164e-08
-2.20365e-09
1.99577e-08
-1.29444e-08
3.04405e-05
-3.43351e-06
5.79918e-06
-3.05935e-06
4.65242e-06
-3.61652e-06
3.52582e-06
-4.03966e-06
2.8393e-06
-4.16061e-06
2.35423e-06
-4.04802e-06
2.05569e-06
-3.7324e-06
1.85126e-06
-3.31479e-06
1.71946e-06
-2.84585e-06
1.65719e-06
-2.37552e-06
1.57637e-06
-1.92955e-06
1.53489e-06
-1.48487e-06
1.37411e-06
-1.07854e-06
1.30806e-06
-7.26791e-07
9.93136e-07
-4.67459e-07
8.11078e-07
-2.81937e-07
5.1277e-07
-1.51276e-07
3.53087e-07
-7.74946e-08
2.44027e-07
-3.63966e-08
1.44781e-07
-2.56657e-08
9.65173e-08
-2.46656e-08
4.71635e-08
-2.15245e-08
1.83442e-08
-1.68168e-08
2.28118e-09
-6.70302e-09
-5.1846e-09
-7.2307e-09
-5.49697e-09
-7.14981e-09
-1.1163e-08
-6.74572e-09
-8.98953e-09
-9.99647e-09
-7.78583e-09
-2.66249e-08
-4.1437e-08
1.10183e-08
-4.4732e-08
1.72952e-08
1.37347e-10
-3.51978e-09
8.28931e-09
-1.53799e-09
2.06187e-09
-2.73559e-09
-9.98941e-09
1.06674e-08
-1.16328e-08
5.35049e-06
-8.00143e-06
7.20344e-07
-6.19952e-06
1.38419e-06
-5.26427e-06
1.89578e-06
-4.61789e-06
2.12727e-06
-4.12774e-06
2.23679e-06
-3.6747e-06
2.22028e-06
-3.21692e-06
2.1135e-06
-2.7584e-06
1.98568e-06
-2.31771e-06
1.7857e-06
-1.93505e-06
1.65393e-06
-1.5908e-06
1.43098e-06
-1.29803e-06
1.33346e-06
-9.85058e-07
1.09585e-06
-6.64801e-07
1.05229e-06
-3.52926e-07
9.10909e-07
-1.4489e-07
7.97169e-07
-6.00093e-08
5.89948e-07
-6.07267e-08
3.61034e-07
-9.62119e-08
1.99381e-07
-1.096e-07
7.88141e-08
-9.45389e-08
2.96257e-08
-6.91529e-08
7.93617e-09
-4.20379e-08
-1.97051e-09
-3.15945e-08
-7.84156e-09
-1.92524e-08
-1.39515e-08
-1.41347e-08
-8.26122e-09
-9.40111e-09
-8.31866e-09
-4.33435e-10
-2.06883e-08
-3.92696e-08
2.26778e-09
-5.28402e-08
3.85294e-08
-2.84924e-08
6.55061e-09
5.46884e-09
8.23098e-10
1.14648e-08
8.394e-06
-5.25309e-06
1.32521e-06
-4.02572e-06
1.3418e-06
-3.47558e-06
1.43973e-06
-3.14468e-06
1.39324e-06
-2.9623e-06
1.39775e-06
-2.80982e-06
1.32281e-06
-2.63621e-06
1.26938e-06
-2.39597e-06
1.17715e-06
-2.1229e-06
1.09212e-06
-1.83621e-06
1.00991e-06
-1.56942e-06
9.27043e-07
-1.33361e-06
8.74194e-07
-1.10029e-06
7.65482e-07
-8.70077e-07
7.61955e-07
-6.60441e-07
5.89647e-07
-4.95856e-07
4.6586e-07
-3.56779e-07
3.33321e-07
-2.7447e-07
2.24629e-07
-2.18951e-07
1.25836e-07
-1.77233e-07
7.53138e-08
-1.50019e-07
2.85354e-08
-1.14835e-07
5.9583e-10
-8.9013e-08
-1.56279e-08
-5.61855e-08
-2.13416e-08
-3.57292e-08
-1.48059e-08
-1.51437e-08
-1.46558e-08
-9.95528e-10
-1.20022e-08
-1.99131e-08
-1.70044e-08
-1.66418e-08
-3.92211e-08
2.50734e-08
-2.97248e-08
-5.00325e-06
-1.01565e-05
-3.01419e-06
-6.6036e-06
-5.39164e-07
-4.66265e-06
5.13401e-07
-3.5501e-06
1.22151e-06
-2.89636e-06
1.5055e-06
-2.52983e-06
1.65639e-06
-2.2935e-06
1.64395e-06
-2.10053e-06
1.5183e-06
-1.90264e-06
1.3617e-06
-1.69074e-06
1.13395e-06
-1.48903e-06
9.66776e-07
-1.29346e-06
7.49152e-07
-1.12222e-06
6.47432e-07
-9.19857e-07
4.88801e-07
-6.95592e-07
5.12325e-07
-4.6956e-07
5.09785e-07
-3.31644e-07
4.42293e-07
-2.76924e-07
3.01977e-07
-2.70546e-07
1.71698e-07
-2.68717e-07
3.35486e-08
-2.12414e-07
-5.10485e-08
-2.03689e-07
-4.46331e-08
-1.27839e-07
-4.10475e-08
-7.57994e-08
-3.16889e-08
-3.27423e-08
-2.68534e-08
-7.19634e-09
-1.1634e-08
-1.32387e-08
1.38938e-05
-7.87199e-07
2.97977e-06
-8.41133e-07
2.15362e-06
-1.0945e-06
1.39675e-06
-1.28435e-06
1.01587e-06
-1.44319e-06
6.90067e-07
-1.62753e-06
5.78407e-07
-1.79354e-06
4.74777e-07
-1.92409e-06
4.53119e-07
-1.95888e-06
4.35625e-07
-1.91843e-06
4.22322e-07
-1.79527e-06
4.34369e-07
-1.63572e-06
4.20185e-07
-1.4491e-06
4.46897e-07
-1.23754e-06
4.29935e-07
-1.00079e-06
5.05175e-07
-7.85353e-07
4.71593e-07
-6.29864e-07
4.31213e-07
-5.31074e-07
3.55473e-07
-4.48639e-07
2.56502e-07
-4.46258e-07
2.97444e-07
-7.62269e-07
)
;

boundaryField
{
    inlet
    {
        type            extrapolatedCalculated;
        value           nonuniform List<scalar> 
13
(
2.12589e-07
9.80801e-08
1.22888e-07
1.18644e-07
9.07015e-08
1.19885e-07
5.17208e-08
9.71832e-08
2.01192e-07
-2.81648e-08
4.00475e-08
-5.13241e-08
-8.81325e-09
)
;
    }
    outlet
    {
        type            extrapolatedCalculated;
        value           nonuniform List<scalar> 0();
    }
    walls
    {
        type            extrapolatedCalculated;
        value           nonuniform List<scalar> 4(-2.47789e-05 3.74198e-05 2.56289e-05 4.97932e-05);
    }
    frontAndBack
    {
        type            empty;
    }
    procBoundary2to1
    {
        type            processor;
        value           nonuniform List<scalar> 
84
(
1.78224e-06
-7.37853e-06
4.05704e-06
-9.08936e-06
5.59919e-06
-8.2411e-06
6.19699e-06
-6.61303e-06
6.7495e-06
-4.89469e-06
6.17622e-06
-3.36321e-06
6.26927e-06
-1.57918e-06
5.25623e-06
6.06536e-07
5.41409e-06
2.7096e-06
5.67091e-06
4.1278e-06
5.30967e-06
4.17465e-06
4.33374e-06
3.56146e-06
3.10528e-06
2.45123e-06
1.8612e-06
1.52346e-06
9.99921e-07
8.75659e-07
5.2712e-07
5.40885e-07
2.81007e-07
2.88896e-07
1.31443e-07
1.79946e-07
-4.72345e-08
3.06875e-07
3.06875e-07
1.49602e-07
1.08098e-07
8.01555e-08
5.65848e-08
4.1409e-08
3.08163e-08
3.1511e-08
2.45613e-08
2.04203e-08
2.12633e-08
1.84914e-08
1.41671e-08
6.88398e-09
2.66099e-08
2.66099e-08
3.69879e-08
-2.78497e-09
3.18685e-08
-7.85849e-09
2.17899e-08
-4.10101e-09
1.04714e-08
-7.50719e-10
1.80247e-08
1.80247e-08
2.06968e-08
-4.12603e-09
1.75808e-08
-5.17146e-09
2.0278e-08
-4.42123e-09
2.33191e-08
-7.61431e-09
1.72009e-08
9.10491e-10
9.10491e-10
8.40745e-09
3.02188e-08
3.37191e-08
3.62603e-08
1.49885e-08
3.91517e-08
9.61746e-09
9.35342e-08
1.00047e-07
)
;
    }
    procBoundary2to3
    {
        type            processor;
        value           nonuniform List<scalar> 
88
(
3.1407e-07
6.98263e-08
3.22834e-08
3.1407e-07
6.7636e-08
4.68563e-09
3.22834e-08
1.24329e-08
2.82627e-08
1.32296e-08
4.68563e-09
2.94758e-08
-6.74782e-09
-9.8339e-09
5.39038e-11
-1.62322e-08
2.82627e-08
1.60099e-08
4.05141e-08
9.66091e-09
5.38971e-09
1.437e-08
-6.74782e-09
3.68826e-10
-4.19054e-08
2.22294e-08
-4.84486e-08
-1.06202e-08
-2.34368e-08
-6.19327e-09
4.05141e-08
3.87249e-09
1.29394e-07
-3.59877e-07
1.28477e-08
-2.40039e-07
4.32484e-08
-1.64238e-07
4.35832e-08
-1.13229e-07
5.37569e-08
-7.70728e-08
4.84128e-08
-4.19054e-08
-6.97478e-08
-1.97751e-05
-1.1452e-05
-1.42097e-05
-6.64894e-06
-1.052e-05
-3.25047e-06
-7.90516e-06
-1.31326e-06
-6.10997e-06
1.06296e-07
-4.82948e-06
8.48786e-07
-3.96142e-06
1.4007e-06
-3.34014e-06
1.65365e-06
-2.89566e-06
1.7433e-06
-2.52027e-06
1.72908e-06
-2.18816e-06
1.56121e-06
-1.86466e-06
1.40929e-06
-1.56762e-06
1.14943e-06
-1.29657e-06
9.83274e-07
-1.04063e-06
7.47044e-07
-7.82763e-07
7.05554e-07
-5.53817e-07
6.51555e-07
-4.21999e-07
5.32108e-07
-3.66684e-07
4.1297e-07
-3.55767e-07
2.64475e-07
-3.27398e-07
1.29394e-07
1.1416e-07
)
;
    }
    procBoundary2to6
    {
        type            processor;
        value           nonuniform List<scalar> 
13
(
-0.000508052
-0.000310428
-0.000174011
-0.00017385
3.99697e-05
-3.38423e-05
-4.13805e-05
-4.42399e-05
1.77187e-07
-1.85959e-05
-1.26102e-05
-2.19153e-05
1.92615e-06
)
;
    }
}


// ************************************************************************* //
