/*--------------------------------*- C++ -*----------------------------------*\
| =========                 |                                                 |
| \\      /  F ield         | OpenFOAM: The Open Source CFD Toolbox           |
|  \\    /   O peration     | Version:  2306                                  |
|   \\  /    A nd           | Website:  www.openfoam.com                      |
|    \\/     M anipulation  |                                                 |
\*---------------------------------------------------------------------------*/
FoamFile
{
    version     2.0;
    format      ascii;
    arch        "LSB;label=32;scalar=64";
    class       volScalarField;
    location    "225";
    object      magR;
}
// * * * * * * * * * * * * * * * * * * * * * * * * * * * * * * * * * * * * * //

dimensions      [0 2 -2 0 0 0 0];

internalField   nonuniform List<scalar> 
1340
(
59.2739
56.6561
53.6047
43.8986
1.7836
1.96442
2.36848
3.29807
0.384997
0.530193
0.634395
1.08346
0.014264
0.0468793
0.118632
0.430954
0.000607624
0.00165677
0.0039294
0.0839261
7.70268e-05
0.000283023
0.000898277
0.0096841
8.09663e-06
1.44743e-06
0
0.00208282
2.15897e-05
1.57009e-05
1.86996e-06
0
2.85598e-05
3.07173e-05
3.31908e-05
1.37225e-06
2.40458e-05
2.36846e-05
4.01994e-05
1.87264e-05
2.43446e-05
2.42082e-05
3.44836e-05
4.30774e-05
2.25793e-05
2.28109e-05
2.93375e-05
4.69937e-05
2.17191e-05
2.20125e-05
2.69745e-05
4.30578e-05
2.05088e-05
2.06766e-05
2.49656e-05
3.869e-05
1.94203e-05
1.9474e-05
2.30933e-05
3.48771e-05
1.82516e-05
1.8201e-05
2.12313e-05
3.14324e-05
1.70878e-05
1.69423e-05
1.94507e-05
2.82442e-05
1.59052e-05
1.56716e-05
1.77459e-05
2.5289e-05
1.47202e-05
1.44057e-05
1.61162e-05
2.25579e-05
1.35355e-05
1.31472e-05
1.45654e-05
2.00556e-05
1.23583e-05
1.19036e-05
1.30885e-05
1.77666e-05
1.11948e-05
1.06829e-05
1.16879e-05
1.56839e-05
1.0053e-05
9.49081e-06
1.03638e-05
1.37996e-05
8.94058e-06
8.33545e-06
9.11448e-06
1.2098e-05
7.86406e-06
7.22185e-06
7.94389e-06
1.05721e-05
6.83113e-06
6.15608e-06
6.85289e-06
9.20956e-06
5.85016e-06
5.14369e-06
5.84459e-06
8.00182e-06
4.92999e-06
4.18901e-06
4.92179e-06
6.93864e-06
4.08014e-06
3.29602e-06
4.09012e-06
6.01218e-06
3.31293e-06
2.46796e-06
3.35739e-06
5.21629e-06
2.64553e-06
1.70596e-06
2.73594e-06
4.54522e-06
2.10507e-06
1.01252e-06
2.24298e-06
3.99401e-06
1.7305e-06
3.90492e-07
1.89994e-06
3.55638e-06
1.55732e-06
1.89093e-07
1.72116e-06
3.22412e-06
1.57639e-06
6.7045e-07
1.69302e-06
2.98574e-06
1.72225e-06
1.09605e-06
1.77074e-06
2.82609e-06
1.92175e-06
1.46021e-06
1.90252e-06
2.72725e-06
2.127e-06
1.76577e-06
2.0499e-06
2.67146e-06
2.92327e-06
2.31313e-06
2.01569e-06
2.1895e-06
2.6424e-06
2.96752e-06
2.46794e-06
2.21384e-06
2.30899e-06
2.6266e-06
3.0007e-06
2.58759e-06
2.36467e-06
2.40323e-06
2.61469e-06
3.01653e-06
2.67156e-06
2.4724e-06
2.47033e-06
2.59999e-06
3.01184e-06
2.72127e-06
2.54141e-06
2.51064e-06
2.57822e-06
2.98605e-06
2.73953e-06
2.57613e-06
2.52572e-06
2.54704e-06
2.94021e-06
2.72985e-06
2.58108e-06
2.51789e-06
2.50549e-06
2.87604e-06
2.69579e-06
2.56049e-06
2.48985e-06
2.45361e-06
2.79592e-06
2.64102e-06
2.51822e-06
2.44418e-06
2.39188e-06
2.70269e-06
2.56934e-06
2.45824e-06
2.38377e-06
2.32134e-06
2.59896e-06
2.48407e-06
2.38402e-06
2.31133e-06
2.24339e-06
2.48711e-06
2.38809e-06
2.29838e-06
2.22903e-06
2.15905e-06
2.36918e-06
2.28393e-06
2.2039e-06
2.13893e-06
2.06948e-06
2.24705e-06
2.17367e-06
2.10269e-06
2.04275e-06
1.97571e-06
2.18594e-06
2.12203e-06
2.05898e-06
1.9964e-06
1.94186e-06
1.87856e-06
2.04905e-06
1.99513e-06
1.94125e-06
1.88639e-06
1.83741e-06
1.77872e-06
1.91306e-06
1.86774e-06
1.82181e-06
1.77402e-06
1.73059e-06
1.67696e-06
1.77922e-06
1.74121e-06
1.70223e-06
1.66088e-06
1.62282e-06
1.5744e-06
1.64913e-06
1.61735e-06
1.58441e-06
1.54885e-06
1.51585e-06
1.47253e-06
1.52452e-06
1.49802e-06
1.47027e-06
1.43983e-06
1.41147e-06
1.37299e-06
1.40668e-06
1.38459e-06
1.36129e-06
1.33532e-06
1.31112e-06
1.27716e-06
1.29581e-06
1.27741e-06
1.25787e-06
1.23581e-06
1.2153e-06
1.18556e-06
1.19103e-06
1.17568e-06
1.15935e-06
1.14072e-06
1.12348e-06
1.09772e-06
1.10255e-06
1.09067e-06
1.07787e-06
1.0643e-06
1.04869e-06
1.03441e-06
1.01242e-06
1.00344e-06
9.93522e-07
9.82946e-07
9.71745e-07
9.58837e-07
9.47263e-07
9.28773e-07
9.07705e-07
8.99446e-07
8.90731e-07
8.8159e-07
8.71068e-07
8.61967e-07
8.46635e-07
8.1642e-07
8.09559e-07
8.02432e-07
7.95062e-07
7.8661e-07
7.79732e-07
7.67145e-07
7.30852e-07
7.25149e-07
7.19335e-07
7.13456e-07
7.06742e-07
7.01729e-07
6.91379e-07
6.53346e-07
6.48556e-07
6.43798e-07
6.39182e-07
6.34e-07
6.30624e-07
6.22437e-07
5.8891e-07
5.84624e-07
5.80485e-07
5.76632e-07
5.72412e-07
5.70127e-07
5.63769e-07
5.37094e-07
5.33016e-07
5.29166e-07
5.25643e-07
5.21848e-07
5.20056e-07
5.14681e-07
4.90565e-07
4.86573e-07
4.8284e-07
4.7947e-07
4.75922e-07
4.74377e-07
4.69738e-07
4.45667e-07
4.4177e-07
4.38154e-07
4.34953e-07
4.31645e-07
4.30282e-07
4.26263e-07
4.05388e-07
4.00879e-07
3.96762e-07
3.9308e-07
3.89966e-07
3.8702e-07
3.86292e-07
3.84487e-07
3.60427e-07
3.55007e-07
3.49927e-07
3.45258e-07
3.4114e-07
3.3727e-07
3.3473e-07
3.30515e-07
3.03778e-07
2.98042e-07
2.93093e-07
2.89007e-07
2.86042e-07
2.84254e-07
2.86771e-07
2.92529e-07
2.25158e-07
2.14026e-07
2.03863e-07
1.94933e-07
1.87304e-07
1.80925e-07
1.75792e-07
1.68048e-07
1.80133e-07
1.7694e-07
1.7608e-07
1.77779e-07
1.83151e-07
1.92729e-07
2.15451e-07
2.48886e-07
1.99747e-07
1.98628e-07
1.97272e-07
1.95396e-07
1.93914e-07
1.99601e-07
2.35072e-07
2.73504e-07
5.40162e-07
5.60327e-07
5.77877e-07
5.94063e-07
6.12719e-07
6.40158e-07
7.07902e-07
7.64455e-07
1.01327e-06
1.01641e-06
1.01864e-06
1.0201e-06
1.02101e-06
1.02409e-06
1.04425e-06
9.94999e-07
1.93769e-06
1.93834e-06
1.93727e-06
1.93514e-06
1.93058e-06
1.92786e-06
1.91148e-06
1.77328e-06
12.75
3.47429
0.927848
0.288226
0.050618
0.00302877
0.000599235
0
1.63855e-06
2.79705e-05
4.94026e-05
4.9617e-05
4.50015e-05
4.06379e-05
3.68439e-05
3.33878e-05
3.01664e-05
2.71722e-05
2.44075e-05
2.18606e-05
1.9528e-05
1.7401e-05
1.54702e-05
1.37259e-05
1.21568e-05
1.07539e-05
9.50667e-06
8.4041e-06
7.43622e-06
6.59362e-06
5.86729e-06
5.24808e-06
4.72616e-06
4.29224e-06
3.93658e-06
3.64866e-06
3.41779e-06
3.23353e-06
3.08552e-06
2.96436e-06
2.86229e-06
2.7727e-06
2.69036e-06
2.61138e-06
2.53307e-06
2.45364e-06
2.372e-06
2.28771e-06
2.20086e-06
2.1114e-06
2.01962e-06
1.92583e-06
1.83024e-06
1.73312e-06
1.63486e-06
1.53627e-06
1.43858e-06
1.3432e-06
1.25133e-06
1.16338e-06
1.07888e-06
9.96637e-07
9.15867e-07
8.36446e-07
7.59499e-07
6.85908e-07
6.1901e-07
5.61851e-07
5.13878e-07
4.6974e-07
4.26704e-07
3.8619e-07
3.30884e-07
2.99091e-07
1.64964e-07
2.71475e-07
2.48822e-07
7.51325e-07
8.79617e-07
1.57583e-06
7.65175
2.497
0.481218
0.0763328
0.00782315
0.000463432
7.65056e-05
1.51204e-07
2.87601e-06
2.34427e-05
2.90455e-05
2.82361e-05
2.65082e-05
2.4975e-05
2.35745e-05
2.21983e-05
2.08251e-05
1.94553e-05
1.81093e-05
1.67917e-05
1.55137e-05
1.42816e-05
1.31019e-05
1.19858e-05
1.09355e-05
9.95497e-06
9.048e-06
8.21588e-06
7.45779e-06
6.77346e-06
6.1609e-06
5.61722e-06
5.13839e-06
4.72003e-06
4.3576e-06
4.04512e-06
3.77716e-06
3.54784e-06
3.35096e-06
3.18084e-06
3.03235e-06
2.90055e-06
2.7814e-06
2.6713e-06
2.56755e-06
2.46794e-06
2.37082e-06
2.27518e-06
2.18034e-06
2.08567e-06
1.9909e-06
1.89584e-06
1.80027e-06
1.70411e-06
1.60756e-06
1.5112e-06
1.41603e-06
1.32335e-06
1.23412e-06
1.14862e-06
1.06632e-06
9.86046e-07
9.07082e-07
8.29398e-07
7.54144e-07
6.82079e-07
6.1641e-07
5.59954e-07
5.12643e-07
4.69205e-07
4.26552e-07
3.86466e-07
3.31072e-07
3.00823e-07
1.63434e-07
2.84811e-07
2.17672e-07
7.54602e-07
8.72188e-07
1.61296e-06
4.80786
1.56784
0.217167
0.0144786
0.000592225
9.70698e-05
8.07361e-06
4.51702e-07
7.7055e-06
1.76787e-05
1.74914e-05
1.65802e-05
1.56603e-05
1.4904e-05
1.42126e-05
1.3542e-05
1.28926e-05
1.22598e-05
1.16411e-05
1.10452e-05
1.04654e-05
9.90277e-06
9.35377e-06
8.8232e-06
8.30941e-06
7.81092e-06
7.33027e-06
6.86926e-06
6.42799e-06
6.00907e-06
5.61392e-06
5.24383e-06
4.89985e-06
4.58253e-06
4.29208e-06
4.02763e-06
3.7884e-06
3.57274e-06
3.37852e-06
3.20335e-06
3.04508e-06
2.90102e-06
2.76884e-06
2.64626e-06
2.53135e-06
2.42243e-06
2.318e-06
2.21715e-06
2.11898e-06
2.02271e-06
1.92782e-06
1.83387e-06
1.74042e-06
1.64717e-06
1.55413e-06
1.46175e-06
1.37084e-06
1.2825e-06
1.19752e-06
1.11604e-06
1.03742e-06
9.60557e-07
8.84779e-07
8.10131e-07
7.37786e-07
6.68416e-07
6.05007e-07
5.50267e-07
5.04576e-07
4.62831e-07
4.21457e-07
3.82545e-07
3.2831e-07
2.99062e-07
1.65575e-07
2.90389e-07
2.0312e-07
7.48489e-07
8.54614e-07
1.61686e-06
2.87941
0.778671
0.0585012
0.000669584
0.000149951
2.44376e-08
9.09335e-08
1.62471e-06
9.88977e-06
1.23338e-05
1.1466e-05
1.10318e-05
1.06061e-05
1.02476e-05
9.88767e-06
9.52203e-06
9.16138e-06
8.80368e-06
8.45078e-06
8.10953e-06
7.77497e-06
7.45179e-06
7.13761e-06
6.83222e-06
6.53667e-06
6.24945e-06
5.96962e-06
5.69756e-06
5.43269e-06
5.17534e-06
4.92567e-06
4.68392e-06
4.45107e-06
4.22747e-06
4.01388e-06
3.81104e-06
3.61922e-06
3.43871e-06
3.26939e-06
3.11078e-06
2.96259e-06
2.82401e-06
2.69391e-06
2.57151e-06
2.45579e-06
2.34576e-06
2.24048e-06
2.13934e-06
2.04161e-06
1.94657e-06
1.85373e-06
1.7625e-06
1.67241e-06
1.58306e-06
1.49433e-06
1.40657e-06
1.32046e-06
1.23693e-06
1.15662e-06
1.07954e-06
1.00499e-06
9.31913e-07
8.59711e-07
7.88462e-07
7.19363e-07
6.53013e-07
5.92229e-07
5.39675e-07
4.95943e-07
4.56071e-07
4.16195e-07
3.78709e-07
3.25994e-07
2.9785e-07
1.70524e-07
2.94426e-07
1.96614e-07
7.40907e-07
8.32575e-07
1.60472e-06
1.40863
0.243463
0.00393747
0.000411867
0
9.65283e-09
1.82116e-07
5.22081e-06
9.23394e-06
9.01727e-06
8.51314e-06
8.36708e-06
8.20557e-06
8.06471e-06
7.9054e-06
7.73492e-06
7.5538e-06
7.35948e-06
7.1567e-06
6.94551e-06
6.72584e-06
6.50094e-06
6.27389e-06
6.04336e-06
5.81292e-06
5.58549e-06
5.35981e-06
5.13857e-06
4.92267e-06
4.71248e-06
4.50862e-06
4.31106e-06
4.12064e-06
3.93683e-06
3.75986e-06
3.59023e-06
3.42741e-06
3.27179e-06
3.1231e-06
2.98119e-06
2.84624e-06
2.71775e-06
2.59522e-06
2.47859e-06
2.36726e-06
2.26072e-06
2.15848e-06
2.06019e-06
1.96534e-06
1.87337e-06
1.78386e-06
1.69622e-06
1.61001e-06
1.52482e-06
1.44046e-06
1.35722e-06
1.27573e-06
1.19675e-06
1.12078e-06
1.04775e-06
9.7695e-07
9.07363e-07
8.38473e-07
7.70389e-07
7.04329e-07
6.40802e-07
5.82462e-07
5.31935e-07
4.89986e-07
4.51721e-07
4.13146e-07
3.7691e-07
3.2559e-07
2.98661e-07
1.77263e-07
3.00824e-07
1.91929e-07
7.41197e-07
8.2101e-07
1.60307e-06
0.461727
0.0314088
0.0012488
0
0
1.75121e-07
2.96149e-06
7.04241e-06
7.66185e-06
7.09963e-06
6.91223e-06
6.84961e-06
6.76242e-06
6.67571e-06
6.57385e-06
6.46566e-06
6.34678e-06
6.2186e-06
6.08473e-06
5.94323e-06
5.79558e-06
5.64214e-06
5.48512e-06
5.32304e-06
5.15791e-06
4.9913e-06
4.82188e-06
4.65232e-06
4.48293e-06
4.31443e-06
4.14795e-06
3.98386e-06
3.82351e-06
3.6669e-06
3.5146e-06
3.36735e-06
3.22482e-06
3.0876e-06
2.95535e-06
2.82812e-06
2.70614e-06
2.58884e-06
2.4761e-06
2.36797e-06
2.26394e-06
2.16385e-06
2.0674e-06
1.97438e-06
1.88447e-06
1.79722e-06
1.71234e-06
1.62929e-06
1.5477e-06
1.46717e-06
1.38752e-06
1.30903e-06
1.23226e-06
1.15785e-06
1.0862e-06
1.01718e-06
9.50065e-07
8.83922e-07
8.18305e-07
7.53382e-07
6.90358e-07
6.29645e-07
5.73704e-07
5.2516e-07
4.84969e-07
4.4825e-07
4.10955e-07
3.75937e-07
3.26031e-07
3.00473e-07
1.84923e-07
3.08585e-07
1.86391e-07
7.44496e-07
0.0626768
0.000107127
4.80939e-05
0
9.00296e-08
1.5577e-06
5.08703e-06
6.01451e-06
5.65496e-06
5.41285e-06
5.40368e-06
5.38998e-06
5.36037e-06
5.3253e-06
5.27877e-06
5.22656e-06
5.16432e-06
5.09326e-06
5.01592e-06
4.93103e-06
4.84002e-06
4.7429e-06
4.63994e-06
4.53259e-06
4.42185e-06
4.30718e-06
4.18938e-06
4.07018e-06
3.94886e-06
3.82643e-06
3.70348e-06
3.58015e-06
3.45737e-06
3.33537e-06
3.21455e-06
3.09551e-06
2.97841e-06
2.86388e-06
2.7518e-06
2.6426e-06
2.53652e-06
2.43328e-06
2.3332e-06
2.23619e-06
2.14204e-06
2.05089e-06
1.96248e-06
1.87678e-06
1.7936e-06
1.71263e-06
1.63368e-06
1.55633e-06
1.48025e-06
1.40509e-06
1.33076e-06
1.2575e-06
1.18581e-06
1.11629e-06
1.04921e-06
9.84416e-07
9.21199e-07
8.58713e-07
7.96576e-07
7.35022e-07
6.75242e-07
6.17519e-07
5.6413e-07
5.17736e-07
4.79463e-07
4.44402e-07
4.08535e-07
3.74864e-07
3.2656e-07
3.02598e-07
1.93195e-07
3.1645e-07
0.000502428
0.000237625
0
4.27903e-08
7.85352e-07
3.88137e-06
4.73021e-06
4.50712e-06
4.28515e-06
4.26338e-06
4.29251e-06
4.29591e-06
4.29215e-06
4.28195e-06
4.26379e-06
4.23979e-06
4.20819e-06
4.16984e-06
4.12581e-06
4.07563e-06
4.02015e-06
3.95963e-06
3.89375e-06
3.82392e-06
3.75082e-06
3.67367e-06
3.59357e-06
3.51128e-06
3.42633e-06
3.33959e-06
3.25136e-06
3.16163e-06
3.07114e-06
2.97996e-06
2.8883e-06
2.7966e-06
2.705e-06
2.61393e-06
2.52344e-06
2.43388e-06
2.3455e-06
2.25833e-06
2.1727e-06
2.08864e-06
2.0062e-06
1.92562e-06
1.84677e-06
1.7698e-06
1.69461e-06
1.62105e-06
1.54901e-06
1.47819e-06
1.40833e-06
1.33915e-06
1.27063e-06
1.20301e-06
1.13674e-06
1.07235e-06
1.01007e-06
9.49698e-07
8.90563e-07
8.31917e-07
7.73464e-07
7.15465e-07
6.59116e-07
6.04548e-07
5.53881e-07
5.09825e-07
4.73609e-07
4.40307e-07
4.06e-07
3.73775e-07
3.27278e-07
3.05106e-07
0.000245639
0
1.29405e-08
2.27295e-07
3.15527e-06
3.87714e-06
3.6795e-06
3.49583e-06
3.47274e-06
3.5146e-06
3.54149e-06
3.5547e-06
3.5634e-06
3.5655e-06
3.5614e-06
3.55116e-06
3.53459e-06
3.51262e-06
3.4853e-06
3.45272e-06
3.41528e-06
3.37359e-06
3.32804e-06
3.27839e-06
3.22591e-06
3.17063e-06
3.11252e-06
3.05211e-06
2.98955e-06
2.92527e-06
2.85922e-06
2.79166e-06
2.7232e-06
2.65338e-06
2.58269e-06
2.51145e-06
2.43953e-06
2.3673e-06
2.29487e-06
2.22232e-06
2.14989e-06
2.07774e-06
2.00596e-06
1.93474e-06
1.86418e-06
1.79451e-06
1.72571e-06
1.658e-06
1.59136e-06
1.52576e-06
1.46116e-06
1.39733e-06
1.3341e-06
1.27128e-06
1.20887e-06
1.14712e-06
1.08646e-06
1.02734e-06
9.6996e-07
9.14106e-07
8.59158e-07
8.04468e-07
7.49818e-07
6.95497e-07
6.42691e-07
5.91378e-07
5.43523e-07
5.01926e-07
4.6783e-07
4.36319e-07
4.03667e-07
0
6.42666e-10
1.35903e-08
2.23242e-06
3.3361e-06
3.00327e-06
2.8731e-06
2.856e-06
2.90043e-06
2.9398e-06
2.96377e-06
2.98277e-06
2.99738e-06
3.00614e-06
3.00977e-06
3.00861e-06
3.00195e-06
2.99038e-06
2.97434e-06
2.95379e-06
2.92905e-06
2.90041e-06
2.86842e-06
2.83303e-06
2.79502e-06
2.75456e-06
2.71145e-06
2.66628e-06
2.61921e-06
2.57057e-06
2.52012e-06
2.46835e-06
2.4156e-06
2.36131e-06
2.30614e-06
2.25012e-06
2.19318e-06
2.13564e-06
2.07745e-06
2.01874e-06
1.95966e-06
1.90026e-06
1.84071e-06
1.78109e-06
1.72149e-06
1.66215e-06
1.60307e-06
1.54446e-06
1.48636e-06
1.42878e-06
1.37174e-06
1.31506e-06
1.25865e-06
1.20234e-06
1.1462e-06
1.09044e-06
1.03547e-06
9.81694e-07
9.29257e-07
8.77976e-07
8.27278e-07
7.76602e-07
7.25837e-07
6.75292e-07
6.26107e-07
5.78133e-07
0
8.52018e-08
1.73602e-06
2.79368e-06
2.51626e-06
2.35631e-06
2.37063e-06
2.40982e-06
2.45221e-06
2.48078e-06
2.50354e-06
2.52327e-06
2.53855e-06
2.54954e-06
2.55599e-06
2.55856e-06
2.55688e-06
2.55089e-06
2.54142e-06
2.5283e-06
2.51183e-06
2.49218e-06
2.46977e-06
2.44481e-06
2.41768e-06
2.38838e-06
2.35685e-06
2.32364e-06
2.28876e-06
2.25243e-06
2.21458e-06
2.17546e-06
2.13523e-06
2.09368e-06
2.05114e-06
2.00762e-06
1.9631e-06
1.9178e-06
1.8716e-06
1.82463e-06
1.777e-06
1.72872e-06
1.67994e-06
1.63065e-06
1.58099e-06
1.53115e-06
1.48111e-06
1.43112e-06
1.3812e-06
1.33141e-06
1.28178e-06
1.23218e-06
1.18256e-06
1.13276e-06
1.08286e-06
1.03309e-06
9.83823e-07
9.35391e-07
8.87911e-07
8.41215e-07
7.94841e-07
7.51671e-08
1.25512e-06
2.33736e-06
2.11464e-06
1.97052e-06
1.98809e-06
2.03238e-06
2.06885e-06
2.09823e-06
2.121e-06
2.14145e-06
2.15893e-06
2.17269e-06
2.18314e-06
2.18966e-06
2.19306e-06
2.19314e-06
2.18966e-06
2.18342e-06
2.17419e-06
2.16236e-06
2.14801e-06
2.13167e-06
2.11333e-06
2.09322e-06
2.07144e-06
2.04794e-06
2.02317e-06
1.99709e-06
1.96986e-06
1.94142e-06
1.91197e-06
1.88152e-06
1.84993e-06
1.81747e-06
1.78406e-06
1.74971e-06
1.71454e-06
1.67838e-06
1.64137e-06
1.60362e-06
1.56498e-06
1.5255e-06
1.4854e-06
1.44465e-06
1.40336e-06
1.36162e-06
1.31958e-06
1.27733e-06
1.2349e-06
1.19235e-06
1.14955e-06
1.10649e-06
1.06315e-06
1.38691e-06
1.79719e-06
1.83789e-06
1.66979e-06
1.69975e-06
1.73961e-06
1.77141e-06
1.7962e-06
1.81731e-06
1.83563e-06
1.85254e-06
1.86646e-06
1.8774e-06
1.88585e-06
1.89129e-06
1.89422e-06
1.89439e-06
1.89191e-06
1.88714e-06
1.88009e-06
1.87105e-06
1.86022e-06
1.84769e-06
1.8337e-06
1.81837e-06
1.80157e-06
1.78364e-06
1.76472e-06
1.74483e-06
1.72406e-06
1.70237e-06
1.67996e-06
1.65666e-06
1.63253e-06
1.60774e-06
1.58206e-06
1.55567e-06
1.52847e-06
1.50034e-06
1.47135e-06
1.44158e-06
1.41131e-06
)
;

boundaryField
{
    inlet
    {
        type            calculated;
        value           nonuniform List<scalar> 
13
(
6.55692e-06
6.64456e-06
6.72153e-06
6.79063e-06
6.85724e-06
6.92532e-06
7.01373e-06
7.04053e-06
6.97811e-06
6.94161e-06
6.88964e-06
6.84405e-06
6.80717e-06
)
;
    }
    outlet
    {
        type            calculated;
        value           nonuniform List<scalar> 0();
    }
    walls
    {
        type            calculated;
        value           nonuniform List<scalar> 4(1.01204 0.960516 0.889867 0.707544);
    }
    frontAndBack
    {
        type            empty;
    }
    procBoundary2to1
    {
        type            processor;
        value           nonuniform List<scalar> 
84
(
61.0631
1.61274
0.251295
0.00266378
0.00018224
1.6864e-05
2.74515e-05
2.58748e-05
2.82779e-05
2.46677e-05
2.46527e-05
2.32704e-05
2.24592e-05
2.13739e-05
2.03553e-05
1.92755e-05
1.81882e-05
1.70796e-05
1.59607e-05
1.4836e-05
1.37111e-05
1.2593e-05
1.14906e-05
1.04126e-05
9.36677e-06
8.36242e-06
7.40996e-06
6.52028e-06
5.70391e-06
4.97263e-06
4.33841e-06
3.81289e-06
3.40549e-06
3.1186e-06
2.94458e-06
2.86434e-06
2.8515e-06
2.87879e-06
2.87879e-06
3.66429e-06
3.58671e-06
3.51694e-06
3.44688e-06
3.37102e-06
3.28639e-06
3.19184e-06
3.08726e-06
2.97355e-06
2.85228e-06
2.72508e-06
2.59353e-06
2.45901e-06
2.32281e-06
2.32281e-06
2.24977e-06
2.10222e-06
1.95731e-06
1.81598e-06
1.6796e-06
1.54973e-06
1.42752e-06
1.31305e-06
1.2053e-06
1.2053e-06
1.11384e-06
1.01291e-06
9.15683e-07
8.23169e-07
7.36597e-07
6.58281e-07
5.93397e-07
5.41431e-07
4.94841e-07
4.49838e-07
4.49838e-07
4.10266e-07
3.66098e-07
3.10257e-07
2.36984e-07
1.85525e-07
2.01262e-07
5.17231e-07
1.00868e-06
1.93451e-06
)
;
    }
    procBoundary2to3
    {
        type            processor;
        value           nonuniform List<scalar> 
88
(
8.15057e-07
1.60603e-06
1.81356e-07
8.15057e-07
7.47638e-07
2.02243e-07
1.81356e-07
3.24133e-07
3.72972e-07
3.28475e-07
2.02243e-07
3.08178e-07
5.33226e-07
4.94188e-07
4.62247e-07
4.32545e-07
3.72972e-07
4.01598e-07
7.4833e-07
7.0153e-07
6.54837e-07
6.09349e-07
5.33226e-07
5.64757e-07
1.01952e-06
9.75625e-07
9.31947e-07
8.88781e-07
8.46209e-07
8.0408e-07
7.4833e-07
7.62002e-07
1.38011e-06
1.34776e-06
1.31468e-06
1.2809e-06
1.24655e-06
1.21168e-06
1.1764e-06
1.14078e-06
1.10483e-06
1.06848e-06
1.03163e-06
1.01952e-06
9.94306e-07
1.71303e-06
1.47376e-06
1.48478e-06
1.47203e-06
1.5185e-06
1.5398e-06
1.55956e-06
1.5759e-06
1.59113e-06
1.60486e-06
1.61686e-06
1.6266e-06
1.63414e-06
1.64002e-06
1.64352e-06
1.64495e-06
1.6444e-06
1.64192e-06
1.6377e-06
1.63183e-06
1.62446e-06
1.61583e-06
1.60599e-06
1.59499e-06
1.58287e-06
1.56982e-06
1.55597e-06
1.54132e-06
1.52605e-06
1.51009e-06
1.4935e-06
1.47632e-06
1.45849e-06
1.44009e-06
1.4211e-06
1.40147e-06
1.38127e-06
1.36031e-06
1.33862e-06
1.31621e-06
1.29272e-06
1.38011e-06
1.26847e-06
)
;
    }
    procBoundary2to6
    {
        type            processor;
        value           nonuniform List<scalar> 
13
(
18.2479
13.266
8.6433
5.65631
3.41469
1.68166
0.539236
0.0658876
0.000459159
8.39258e-05
0
4.16259e-13
5.03512e-09
)
;
    }
}


// ************************************************************************* //
