/*--------------------------------*- C++ -*----------------------------------*\
| =========                 |                                                 |
| \\      /  F ield         | OpenFOAM: The Open Source CFD Toolbox           |
|  \\    /   O peration     | Version:  2306                                  |
|   \\  /    A nd           | Website:  www.openfoam.com                      |
|    \\/     M anipulation  |                                                 |
\*---------------------------------------------------------------------------*/
FoamFile
{
    version     2.0;
    format      ascii;
    arch        "LSB;label=32;scalar=64";
    class       volScalarField;
    location    "225";
    object      p;
}
// * * * * * * * * * * * * * * * * * * * * * * * * * * * * * * * * * * * * * //

dimensions      [0 2 -2 0 0 0 0];

internalField   nonuniform List<scalar> 
1340
(
7.01875
15.2981
29.2724
53.0525
7.92151
16.0679
29.9635
52.8082
8.63004
16.6879
30.4485
52.4068
9.30661
17.2654
30.8521
51.9571
10.0437
17.9099
31.2863
51.4981
10.8883
18.5989
31.7051
50.9993
11.6106
19.1951
32.0263
50.4257
12.4714
19.885
32.3734
49.8501
13.2722
20.5109
32.6383
49.2146
14.1272
21.1649
32.8839
48.5487
14.9747
21.797
33.081
47.8472
15.8412
22.427
33.2423
47.115
16.7108
23.0427
33.3635
46.3547
17.5869
23.6465
33.4485
45.5703
18.464
24.2343
33.4975
44.7656
19.34
24.8049
33.5131
43.9446
20.2113
25.3562
33.4972
43.1112
21.0747
25.8866
33.4526
42.2706
21.9264
26.3943
33.3817
41.4269
22.7629
26.8781
33.2872
40.5849
23.5802
27.3366
33.1721
39.749
24.3746
27.7685
33.0389
38.9239
25.142
28.1729
32.8902
38.1136
25.8785
28.5485
32.7285
37.3222
26.58
28.8946
32.5559
36.5531
27.2427
29.2099
32.3743
35.8094
27.8625
29.4936
32.185
35.0934
28.4356
29.7446
31.9894
34.4069
28.9584
29.9619
31.788
33.7511
29.4274
30.1442
31.5811
33.1263
29.8393
30.2902
31.3684
32.532
30.1912
30.3987
31.1493
31.9672
30.4805
30.4682
30.9228
31.4302
30.7051
30.4973
30.6874
30.9186
30.8632
30.4848
30.4414
30.4294
30.9537
30.4292
30.1828
29.9594
30.9759
30.3296
29.9095
29.5048
30.9298
30.1849
29.6193
29.0618
31.8347
30.8159
29.9946
29.31
28.6264
31.6624
30.6356
29.7581
28.9795
28.1947
31.4124
30.3904
29.4757
28.6259
27.7627
31.0886
30.0829
29.1478
28.2476
27.327
30.6957
29.716
28.7752
27.8435
26.8842
30.2389
29.2929
28.3594
27.4126
26.4314
29.7236
28.8176
27.9021
26.9544
25.9662
29.1554
28.2942
27.4056
26.4692
25.4866
28.5403
27.727
26.8724
25.9574
24.9912
27.8841
27.1207
26.3053
25.4199
24.4791
27.1926
26.48
25.7077
24.8581
23.95
26.4713
25.8096
25.0828
24.2737
23.4039
25.7258
25.1141
24.4341
23.6689
22.8415
24.9613
24.3981
23.7652
23.0458
22.2637
24.6404
24.1825
23.666
23.0797
22.407
21.672
23.8089
23.3942
22.922
22.3811
21.7551
21.0679
22.975
22.6003
22.1699
21.6728
21.0929
20.4534
22.1428
21.8048
21.4136
20.9583
20.423
19.8304
21.3154
21.0111
20.6563
20.2405
19.7482
19.2011
20.496
20.2224
19.9013
19.5225
19.0711
18.5678
19.6871
19.4414
19.1513
18.8071
18.3942
17.9325
18.8912
18.6707
18.409
18.0967
17.72
17.2975
18.11
17.9125
17.6766
17.3938
17.0507
16.6649
17.4921
17.3453
17.1685
16.9562
16.7004
16.3885
16.037
16.7291
16.5985
16.4404
16.2495
16.0185
15.7353
15.4157
15.9869
15.8709
15.7295
15.5581
15.3498
15.0929
14.8027
15.2666
15.1636
15.0374
14.8837
14.6959
14.4633
14.2003
14.5685
14.4773
14.3648
14.2271
14.0582
13.8477
13.6095
13.8941
13.8136
13.7135
13.5903
13.4385
13.2482
13.033
13.3465
13.2732
13.1814
13.0678
12.9274
12.7508
12.551
12.8902
12.8215
12.7352
12.6281
12.4953
12.3275
12.1379
12.4218
12.3579
12.2771
12.1765
12.0513
11.8925
11.7132
11.9432
11.8845
11.8095
11.7156
11.5981
11.4485
11.2794
11.4962
11.4567
11.4031
11.334
11.2469
11.1376
10.9974
10.839
11.0024
10.9684
10.9206
10.8577
10.7774
10.6757
10.5441
10.394
10.4986
10.4714
10.4314
10.3773
10.3069
10.2166
10.0992
9.96901
10.0112
9.98577
9.94745
9.89567
9.82859
9.74195
9.62404
9.47879
9.54042
9.53934
9.52505
9.49627
9.4517
9.39182
9.31959
9.26776
8.87481
8.84933
8.81649
8.77616
8.72424
8.64707
8.50999
8.27092
9.21663
9.26067
9.2826
9.2842
9.27324
9.27427
9.34172
9.58412
6.20578
6.19567
6.19356
6.1946
6.18083
6.09919
5.84182
5.23313
12.523
12.6009
12.6472
12.6777
12.7251
12.8715
13.2417
14.0394
106.942
103.797
100.242
96.5071
92.683
88.8555
85.0878
81.4284
77.8607
74.4121
71.0831
67.8841
64.8216
61.9012
59.127
56.5014
54.0253
51.6987
49.5195
47.4844
45.5892
43.8286
42.1964
40.6859
39.2901
38.0016
36.8131
35.7173
34.707
33.7752
32.9153
32.1207
31.385
30.7021
30.066
29.4708
28.9109
28.3805
27.8743
27.387
26.9137
26.4495
25.9901
25.5316
25.0703
24.6032
24.1279
23.6421
23.1446
22.6343
22.1108
21.5742
21.0248
20.4635
19.8915
19.3104
18.7216
18.1273
17.5291
16.9293
16.3297
15.7324
15.1392
14.5522
13.9733
13.4039
12.8472
12.379
11.9751
11.5601
11.1359
10.7056
10.2671
9.86118
9.35005
9.22779
8.06166
9.7564
4.81897
14.3757
47.3598
47.564
47.9529
48.3007
48.5771
48.755
48.824
48.7777
48.6136
48.3404
47.9586
47.4757
46.8981
46.2338
45.492
44.6828
43.8164
42.9039
41.9567
40.9862
40.0031
39.0177
38.0393
37.0766
36.1369
35.2259
34.3484
33.508
32.7067
31.9456
31.2247
30.5434
29.8998
29.292
28.7173
28.1728
27.6552
27.1609
26.6865
26.2282
25.7824
25.3454
24.914
24.4846
24.0542
23.6201
23.1799
22.7315
22.2732
21.8038
21.3225
20.829
20.3234
19.806
19.2776
18.7392
18.1923
17.6383
17.0789
16.516
15.9513
15.3868
14.8244
14.2661
13.7139
13.1691
12.6353
12.1852
11.7964
11.3963
10.9864
10.5704
10.1448
9.75382
9.25284
9.14495
8.00038
9.64519
4.90625
14.037
29.2491
29.3437
29.4368
29.5204
29.6239
29.7479
29.8949
30.06
30.2406
30.4314
30.625
30.8159
30.9969
31.1615
31.3035
31.4168
31.496
31.5366
31.535
31.4888
31.3966
31.2584
31.0753
30.8496
30.5847
30.2845
29.9536
29.5973
29.2206
28.8285
28.426
28.0172
27.6059
27.1951
26.7871
26.3836
25.9855
25.593
25.2059
24.8235
24.4445
24.0676
23.691
23.313
22.9316
22.545
22.1515
21.7496
21.3378
20.915
20.4805
20.0339
19.5749
19.1039
18.6212
18.1277
17.6245
17.1127
16.5939
16.0697
15.5418
15.0121
14.4824
13.9546
13.4309
12.9126
12.4033
11.9729
11.6007
11.217
10.8229
10.4226
10.0119
9.63546
9.15122
9.04303
7.95649
9.48287
5.04486
13.6475
27.8656
27.96
28.0288
28.0755
28.1055
28.1185
28.1166
28.0999
28.071
28.0306
27.9811
27.9241
27.8612
27.794
27.7238
27.6511
27.5767
27.5004
27.4215
27.3393
27.2523
27.1588
27.057
26.945
26.821
26.6833
26.5307
26.3623
26.1778
25.9773
25.7613
25.531
25.2876
25.0326
24.7676
24.494
24.2134
23.9267
23.6349
23.3383
23.0372
22.7313
22.4203
22.1032
21.7794
21.4478
21.1073
20.7568
20.3954
20.0223
19.6368
19.2385
18.8271
18.4029
17.9661
17.5173
17.0575
16.5877
16.1092
15.6234
15.132
14.6368
14.1396
13.6421
13.1466
12.6545
12.1694
11.7582
11.4019
11.0339
10.655
10.27
9.87369
9.51122
9.04192
8.93806
7.89107
9.35406
5.08587
13.398
23.6919
23.8059
23.9209
24.032
24.1401
24.2444
24.3438
24.4365
24.5213
24.5966
24.6611
24.7137
24.7533
24.7793
24.7911
24.7887
24.7721
24.7417
24.6983
24.6425
24.5754
24.498
24.4114
24.3164
24.2138
24.1043
23.988
23.8652
23.7358
23.5996
23.4562
23.3054
23.1468
22.98
22.805
22.6215
22.4296
22.2292
22.0203
21.8031
21.5774
21.343
21.0997
20.8471
20.5847
20.3119
20.028
19.7323
19.4241
19.103
18.7683
18.4197
18.0572
17.6807
17.2904
16.887
16.4711
16.0437
15.6059
15.1592
14.7049
14.2448
13.7807
13.3143
12.8477
12.3824
11.9223
11.5308
11.1906
10.8387
10.4756
10.1061
9.72462
9.37628
8.92191
8.82504
7.80843
9.23406
5.07518
13.1936
19.0112
19.1047
19.2035
19.3022
19.4044
19.5098
19.6183
19.7296
19.8434
19.9591
20.0762
20.1939
20.3112
20.4271
20.5404
20.65
20.7544
20.8523
20.9424
21.0235
21.0944
21.1543
21.2024
21.2381
21.2612
21.2716
21.2692
21.2545
21.2278
21.1894
21.1397
21.0793
21.0083
20.927
20.8355
20.734
20.6223
20.5003
20.368
20.2252
20.0715
19.9068
19.7307
19.5428
19.3427
19.1301
18.9043
18.665
18.4117
18.1438
17.8612
17.5635
17.2507
16.9227
16.5798
16.2225
15.8514
15.4673
15.0712
14.6645
14.2485
13.8247
13.3949
12.9609
12.5246
12.0877
11.6539
11.2833
10.9604
10.6256
10.2794
9.92643
9.56103
9.22747
8.78998
8.69879
7.71719
9.09631
15.8604
15.9473
16.0391
16.1316
16.2274
16.3256
16.4263
16.5294
16.6348
16.7425
16.8524
16.9643
17.0781
17.1935
17.3104
17.4285
17.5472
17.666
17.7844
17.9017
18.017
18.1293
18.2377
18.341
18.4383
18.5283
18.6099
18.6823
18.7446
18.796
18.836
18.864
18.8798
18.8833
18.8742
18.8525
18.8181
18.7711
18.7114
18.6389
18.5534
18.4548
18.3428
18.2171
18.0775
17.9235
17.7549
17.5712
17.3721
17.1572
16.9264
16.6793
16.416
16.1365
15.841
15.5299
15.2037
14.8631
14.5092
14.143
13.7658
13.3791
12.9845
12.5838
12.1789
11.7713
11.365
11.0163
10.7117
10.3951
10.0667
9.73118
9.38292
9.06466
8.64594
8.5585
13.6526
13.7338
13.8204
13.9086
14.0003
14.0947
14.1919
14.2918
14.3943
14.4992
14.6065
14.7158
14.827
14.9399
15.0543
15.1698
15.2862
15.4033
15.5207
15.6381
15.7552
15.8716
15.9868
16.1003
16.2117
16.3202
16.4252
16.5258
16.6214
16.7109
16.7936
16.8684
16.9346
16.9914
17.0378
17.0733
17.0973
17.1092
17.1084
17.0946
17.0675
17.0265
16.9714
16.9018
16.8173
16.7177
16.6024
16.4711
16.3236
16.1594
15.9785
15.7804
15.5653
15.3331
15.0839
14.8181
14.5361
14.2387
13.9265
13.6007
13.2623
12.9129
12.5538
12.1868
11.8138
11.4362
11.0581
10.732
10.4462
10.1483
9.83835
9.52094
9.1906
8.88793
11.8319
11.9042
11.9816
12.061
12.144
12.2299
12.3192
12.4115
12.507
12.6057
12.7074
12.8121
12.9196
13.0299
13.1427
13.2579
13.3751
13.4941
13.6145
13.7361
13.8584
13.9809
14.1034
14.2253
14.3461
14.4655
14.5827
14.6974
14.8089
14.9167
15.02
15.1183
15.2107
15.2965
15.375
15.4453
15.5066
15.5581
15.5991
15.6287
15.6462
15.651
15.6424
15.6199
15.5828
15.5306
15.4628
15.3789
15.2786
15.1614
15.027
14.8751
14.7057
14.5186
14.3139
14.0919
13.8529
13.5974
13.3261
13.04
12.7401
12.4276
12.104
11.7709
11.43
11.0829
10.7334
10.4303
10.1638
9.88498
9.59408
10.3077
10.3715
10.4397
10.5101
10.5838
10.6604
10.7401
10.823
10.9091
10.9983
11.0909
11.1867
11.2857
11.3879
11.4932
11.6016
11.7129
11.8271
11.9438
12.0629
12.1842
12.3073
12.4318
12.5574
12.6837
12.81
12.936
13.0611
13.1847
13.3061
13.4247
13.54
13.6511
13.7574
13.8581
13.9525
14.0399
14.1194
14.1902
14.2515
14.3025
14.3424
14.3703
14.3856
14.3875
14.3751
14.348
14.3054
14.2468
14.1716
14.0795
13.97
13.8429
13.698
13.5352
13.3547
13.1567
12.9416
12.71
12.4625
12.2002
11.9242
11.6357
11.3362
11.0275
10.711
9.05919
9.11568
9.17598
9.23838
9.30377
9.3719
9.44298
9.51702
9.5941
9.67425
9.75754
9.844
9.93365
10.0265
10.1225
10.2218
10.3241
10.4296
10.538
10.6494
10.7635
10.8801
10.9991
11.1203
11.2432
11.3677
11.4932
11.6194
11.7458
11.8719
11.9969
12.1205
12.2418
12.3601
12.4748
12.585
12.6901
12.789
12.8811
12.9654
13.0412
13.1076
13.1636
13.2086
13.2415
13.2616
13.2682
13.2604
13.2375
13.199
13.1441
13.0725
12.9836
12.8773
12.7532
12.6114
12.4519
12.275
12.0811
11.8708
11.6449
8.02223
8.07213
8.12529
8.18047
8.23835
8.29878
8.36194
8.42785
8.49662
8.56828
8.64292
8.72059
8.80134
8.88519
8.97218
9.06233
9.15564
9.25207
9.35162
9.45422
9.5598
9.66823
9.77941
9.89316
10.0093
10.1276
10.2477
10.3694
10.4924
10.6161
10.7403
10.8643
10.9876
11.1097
11.2298
11.3473
11.4614
11.5714
11.6764
11.7755
11.868
11.9529
12.0293
12.0963
12.153
12.1985
12.2319
12.2525
12.2593
12.2516
12.2287
12.19
12.1348
12.0629
7.14277
7.1867
7.23342
7.28203
7.33306
7.38643
7.44228
7.50066
7.56167
7.62537
7.69185
7.76117
7.83338
7.90856
7.98674
8.06798
8.1523
8.23971
8.33024
8.42386
8.52054
8.62024
8.72288
8.82836
8.93655
9.04728
9.16036
9.27557
9.39265
9.51129
9.63112
9.75176
9.87278
9.99367
10.1139
10.2329
10.35
10.4646
10.5758
10.6829
10.7851
10.8816
)
;

boundaryField
{
    inlet
    {
        type            freestreamPressure;
        freestreamValue uniform 0;
        value           nonuniform List<scalar> 
13
(
7.06772
7.11034
7.13513
7.15106
7.17647
7.25775
7.46514
7.91414
8.10358
7.91292
7.69357
7.55307
7.43794
)
;
    }
    outlet
    {
        type            freestreamPressure;
        freestreamValue nonuniform List<scalar> 0();
        value           nonuniform List<scalar> 0();
    }
    walls
    {
        type            zeroGradient;
    }
    frontAndBack
    {
        type            empty;
    }
    procBoundary2to1
    {
        type            processor;
        value           nonuniform List<scalar> 
84
(
1.18244
2.26225
3.08447
3.89701
4.72117
5.7345
6.58286
7.60548
8.56732
9.59967
10.6323
11.6966
12.7737
13.8683
14.9733
16.0866
17.2033
18.3189
19.4285
20.5268
21.6082
22.6668
23.6967
24.6916
25.6453
26.5516
27.4043
28.1977
28.9262
29.5845
30.1683
30.6735
31.0968
31.4355
31.6882
31.8538
31.9327
31.9257
31.9257
33.0517
32.8393
32.5422
32.1659
31.7166
31.2005
30.6245
29.9951
29.3193
28.6035
27.8543
27.0778
26.2797
25.4656
25.4656
25.0467
24.1733
23.3015
22.4348
21.5764
20.729
19.8949
19.0764
18.2749
18.2749
17.6124
16.8353
16.0805
15.349
14.6407
13.9572
13.4036
12.9431
12.4704
11.9872
11.9872
11.5221
11.023
10.5134
10.0235
9.5293
8.89143
9.15159
6.22288
12.4065
)
;
    }
    procBoundary2to3
    {
        type            processor;
        value           nonuniform List<scalar> 
88
(
5.06115
12.9612
7.61784
5.06115
8.93936
8.48935
7.61784
8.40439
9.29524
8.98347
8.48935
8.69664
10.3904
10.1107
9.86373
9.60453
9.29524
9.33312
11.4042
11.1501
10.8838
10.607
10.3904
10.3209
11.9737
11.8672
11.7432
11.6019
11.4434
11.2682
11.4042
11.0769
10.9713
11.0535
11.1272
11.1915
11.2454
11.288
11.3185
11.336
11.3397
11.3287
11.3026
11.9737
11.2606
6.3882
6.42683
6.46788
6.51066
6.5556
6.60266
6.65195
6.70355
6.75754
6.814
6.87299
6.9346
6.99889
7.06595
7.13581
7.20855
7.2842
7.36282
7.44443
7.52906
7.6167
7.70737
7.80101
7.8976
7.99704
8.09926
8.20411
8.31145
8.42108
8.53279
8.64628
8.76126
8.87739
8.99426
9.11142
9.22839
9.34461
9.45951
9.57243
9.6827
9.78957
10.9713
9.89227
)
;
    }
    procBoundary2to6
    {
        type            processor;
        value           nonuniform List<scalar> 
13
(
107.313
47.0442
29.0897
27.7346
23.5437
18.888
15.7543
13.559
11.7508
10.2375
8.99805
7.96891
7.09627
)
;
    }
}


// ************************************************************************* //
