/*--------------------------------*- C++ -*----------------------------------*\
| =========                 |                                                 |
| \\      /  F ield         | OpenFOAM: The Open Source CFD Toolbox           |
|  \\    /   O peration     | Version:  2306                                  |
|   \\  /    A nd           | Website:  www.openfoam.com                      |
|    \\/     M anipulation  |                                                 |
\*---------------------------------------------------------------------------*/
FoamFile
{
    version     2.0;
    format      ascii;
    arch        "LSB;label=32;scalar=64";
    class       surfaceScalarField;
    location    "225";
    object      phi;
}
// * * * * * * * * * * * * * * * * * * * * * * * * * * * * * * * * * * * * * //

dimensions      [0 3 -1 0 0 0 0];

oriented        oriented;

internalField   nonuniform List<scalar> 
2579
(
0.20179
0.00471395
0.19496
0.00683019
0.181097
0.0138638
0.161154
0.0199448
0.228818
0.00874482
0.223854
0.0117948
0.213481
0.0242384
0.195345
0.0380841
0.248213
0.0123668
0.243049
0.0169602
0.232736
0.0345515
0.214862
0.0559588
0.265479
0.0153617
0.260739
0.021701
0.250979
0.0443126
0.232549
0.0743934
0.279409
0.018136
0.275053
0.0260577
0.26648
0.0528861
0.248629
0.0922441
0.294693
0.0210473
0.290013
0.0307393
0.281622
0.0612778
0.26419
0.10968
0.310347
0.0240505
0.305462
0.0356245
0.297057
0.0696826
0.28014
0.126597
0.327069
0.027155
0.321997
0.0406975
0.31347
0.0782112
0.297066
0.143004
0.344614
0.030334
0.339365
0.045947
0.330812
0.0867648
0.314994
0.15882
0.363115
0.033605
0.357743
0.0513193
0.349179
0.0953302
0.333924
0.174078
0.382624
0.036928
0.377119
0.0568254
0.368566
0.103882
0.353941
0.188702
0.403159
0.0403143
0.397547
0.0624387
0.389068
0.112362
0.375082
0.202691
0.424829
0.0437236
0.419139
0.0681289
0.4107
0.120801
0.397397
0.215992
0.447639
0.0471616
0.441904
0.0738649
0.433591
0.129116
0.420944
0.228641
0.471697
0.0506109
0.465945
0.0796178
0.457729
0.13733
0.445783
0.240586
0.497055
0.0540473
0.4913
0.0853731
0.483247
0.145385
0.472021
0.251813
0.523776
0.0574603
0.51808
0.0910687
0.510181
0.153283
0.499646
0.262347
0.551971
0.0607851
0.546325
0.0967153
0.538659
0.16095
0.528822
0.272186
0.581679
0.0640474
0.57616
0.102234
0.568703
0.168406
0.559575
0.281312
0.613016
0.0671911
0.607636
0.107615
0.600428
0.175614
0.591988
0.289754
0.646054
0.0702274
0.640864
0.112804
0.633948
0.18253
0.626155
0.297545
0.680926
0.0730745
0.675922
0.117809
0.669309
0.189144
0.662211
0.304643
0.717696
0.0757529
0.712948
0.122556
0.706666
0.195426
0.700181
0.311127
0.756492
0.0782095
0.75203
0.127018
0.746078
0.201378
0.740212
0.316993
0.797419
0.0805048
0.793296
0.131141
0.787698
0.206976
0.782416
0.322274
0.840613
0.0825084
0.836759
0.134995
0.831661
0.212075
0.826929
0.327006
0.886239
0.0841492
0.882835
0.138399
0.877983
0.216926
0.873792
0.331197
0.934508
0.0855262
0.931205
0.141702
0.926925
0.221206
0.923278
0.334844
0.985176
0.0866284
0.982508
0.14437
0.97854
0.225173
0.975493
0.337891
1.0389
0.087423
1.0366
0.146668
1.03312
0.228658
1.03051
0.340494
1.09566
0.0879121
1.09365
0.148674
1.09063
0.231678
1.08835
0.34278
1.1555
0.0880786
1.15404
0.150136
1.15151
0.234209
1.14963
0.344658
1.21892
0.0876778
1.21774
0.151315
1.21545
0.236497
1.21424
0.345868
1.28556
0.0873393
1.28494
0.151931
1.28315
0.238291
1.28219
0.346826
1.35634
0.0864213
1.35587
0.152403
1.35469
0.239476
1.35413
0.347385
1.43101
0.085316
1.43108
0.152334
1.43001
0.240549
1.4298
0.347589
1.50986
0.0839037
1.51019
0.152003
1.50971
0.241033
1.50987
0.34743
1.59338
0.0822194
1.59411
0.151281
1.59385
0.241293
1.59421
0.347066
1.67969
0.0230351
1.68153
0.0803735
1.6825
0.150319
1.68253
0.241257
1.68336
0.346245
1.7727
0.0200856
1.7748
0.078276
1.77597
0.149141
1.77644
0.240786
1.77744
0.34525
1.87113
0.0169846
1.87334
0.0760624
1.87484
0.14764
1.87548
0.240146
1.87675
0.343982
1.97514
0.0138723
1.97757
0.0736355
1.97926
0.145945
1.98002
0.239393
1.98156
0.342443
2.08526
0.0106353
2.08776
0.0711384
2.08973
0.143974
2.09074
0.23838
2.09226
0.340922
2.20165
0.00740545
2.20434
0.0684441
2.20632
0.141995
2.20741
0.23729
2.2093
0.339033
2.32483
0.00419598
2.32757
0.0657003
2.32953
0.140039
2.33084
0.235979
2.33278
0.337096
2.45509
0.00076207
2.45773
0.0630598
2.45992
0.137845
2.46115
0.234752
2.46314
0.3351
2.59271
-0.00252969
2.5955
0.0602742
2.59765
0.135691
2.59905
0.23335
2.60093
0.333227
2.7382
-0.00577486
2.74101
0.0574614
2.7431
0.133602
2.74452
0.231927
2.74655
0.331201
2.89214
-0.00901154
2.89481
0.0547921
2.89709
0.131324
2.89828
0.230732
2.9003
0.329187
3.05488
-0.0123429
3.05747
0.0522115
3.05953
0.129255
3.06085
0.229416
3.06284
0.327199
3.22675
-0.015415
3.22932
0.0496359
3.23144
0.127134
3.23253
0.228334
3.23433
0.325398
3.40838
-0.0184892
3.41109
0.046922
3.41289
0.125339
3.41397
0.227255
3.41571
0.323655
3.59746
-0.0816306
3.60053
-0.0215645
3.60291
0.0445496
3.60474
0.123507
3.60557
0.226419
3.60715
0.322084
3.80029
-0.0854084
3.80329
-0.0245649
3.80566
0.0421786
3.80746
0.121701
3.80804
0.22584
3.80954
0.320591
4.01468
-0.0892507
4.01772
-0.0275995
4.01992
0.0399758
4.02151
0.120113
4.02199
0.22536
4.02329
0.319286
4.24103
-0.0929329
4.244
-0.0305674
4.24627
0.0377067
4.24758
0.1188
4.24786
0.225084
4.24884
0.318306
4.48021
-0.0968506
4.48304
-0.0333989
4.48502
0.0357343
4.48631
0.117502
4.48638
0.22502
4.48729
0.317393
4.73253
-0.100679
4.73533
-0.0362042
4.73743
0.0336354
4.73846
0.11647
4.73823
0.225252
4.73885
0.316776
4.99907
-0.104672
5.00191
-0.0390482
5.00375
0.0318011
5.0047
0.11552
5.00421
0.225741
5.00453
0.31646
5.28043
-0.108625
5.28319
-0.0418091
5.28497
0.0300273
5.2857
0.114792
5.28495
0.226486
5.28512
0.316292
5.57737
-0.112573
5.5801
-0.0445372
5.58168
0.0284517
5.58237
0.114097
5.58129
0.227568
5.5812
0.316385
5.88669
-0.186071
5.8908
-0.116687
5.8935
-0.0472369
5.89518
0.0267716
5.8955
0.113781
5.89424
0.228828
5.89376
0.316862
6.2175
-0.192082
6.22154
-0.120727
6.22428
-0.0499746
6.22584
0.0252043
6.22606
0.113569
6.2244
0.230484
6.22373
0.317532
6.56633
-0.198247
6.57059
-0.124992
6.57339
-0.0527702
6.57464
0.0239524
6.57478
0.113427
6.57281
0.232454
6.57191
0.318435
6.93451
-0.204731
6.93905
-0.129532
6.94183
-0.0555473
6.94304
0.0227424
6.94304
0.113429
6.93986
0.235634
6.93907
0.319219
7.32264
-0.212222
7.32673
-0.133617
7.32901
-0.0578325
7.33009
0.0216662
7.33061
0.112904
7.32859
0.237657
7.32616
0.321654
7.73068
-0.217959
7.73551
-0.138442
7.73848
-0.0608035
7.74023
0.0199103
7.73894
0.1142
7.73644
0.240155
7.73531
0.322786
5.66339
-0.245991
5.69478
-0.169834
5.73112
-0.0971441
5.7704
-0.0193668
5.81707
0.0675264
5.87539
0.181835
5.92693
0.271253
6.23313
-0.277817
6.26827
-0.204973
6.30579
-0.134664
6.35011
-0.0636799
6.40191
0.0157217
6.46564
0.118103
6.52332
0.21357
6.8587
-0.312275
6.89772
-0.243987
6.94034
-0.17729
6.98982
-0.113157
7.04563
-0.0400845
7.11619
0.0475433
7.17754
0.152212
7.54912
-0.349496
7.59083
-0.285696
7.63744
-0.223905
7.69092
-0.166636
7.75339
-0.102548
7.82971
-0.0287781
7.8999
0.0820136
8.26567
-0.457639
8.30835
-0.39218
8.35292
-0.330268
8.40617
-0.277149
8.46377
-0.224238
8.53309
-0.171873
8.61783
-0.113516
8.69321
0.00663154
9.09703
-0.497998
9.14276
-0.437911
9.19414
-0.381639
9.24906
-0.332075
9.31481
-0.289984
9.38981
-0.24688
9.48199
-0.205691
9.5665
-0.0778779
10.011
-0.542907
10.0599
-0.486831
10.1156
-0.437378
10.1788
-0.395183
10.2489
-0.360115
10.331
-0.328968
10.4344
-0.309129
10.5254
-0.168915
11.0156
-0.592509
11.0704
-0.541616
11.1319
-0.498918
11.1995
-0.462779
11.2768
-0.437366
11.3675
-0.419691
11.4803
-0.421936
11.5811
-0.269717
12.1167
-0.646694
12.1772
-0.602157
12.2432
-0.564846
12.3177
-0.537281
12.4031
-0.522812
12.502
-0.51858
12.6238
-0.543739
12.7325
-0.378416
13.3271
-0.704823
13.3926
-0.667714
13.466
-0.638237
13.5479
-0.619167
13.6409
-0.615857
13.7508
-0.628437
13.8893
-0.682278
14.0123
-0.501362
14.651
-0.768976
14.7227
-0.739391
14.8022
-0.717779
14.8915
-0.708487
14.9941
-0.718439
15.112
-0.746319
15.2537
-0.824021
15.3799
-0.627533
16.1472
-0.841615
16.2281
-0.820275
16.319
-0.808694
16.4198
-0.809262
16.5341
-0.832748
16.672
-0.884202
16.8501
-1.00219
17.0088
-0.786233
17.7783
17.8666
17.9638
18.0726
18.1956
18.3331
18.4908
18.6394
-0.177049
0.177471
-0.189603
0.207899
-0.202397
0.227656
-0.214173
0.244328
-0.225231
0.259686
-0.235651
0.274614
-0.245524
0.290011
-0.254791
0.306337
-0.263447
0.323648
-0.271464
0.341944
-0.278881
0.361357
-0.285667
0.38187
-0.291851
0.403579
-0.297444
0.426538
-0.302475
0.450814
-0.306958
0.476505
-0.310964
0.50365
-0.314493
0.532352
-0.317605
0.562687
-0.320343
0.594726
-0.322757
0.628569
-0.324893
0.664348
-0.326804
0.702091
-0.328535
0.741944
-0.330134
0.784014
-0.331641
0.828436
-0.333098
0.875249
-0.334541
0.924721
-0.336001
0.976952
-0.337506
1.03202
-0.33908
1.08992
-0.340733
1.15128
-0.342518
1.21602
-0.344412
1.28408
-0.346439
1.35615
-0.348608
1.43197
-0.350924
1.51218
-0.35339
1.59668
-0.356006
1.68597
-0.35877
1.7802
-0.361676
1.87966
-0.364718
1.9846
-0.367884
2.09543
-0.371151
2.21257
-0.374529
2.33616
-0.378003
2.46662
-0.38153
2.60445
-0.385106
2.75013
-0.388712
2.9039
-0.39233
3.06646
-0.395943
3.23794
-0.399533
3.4193
-0.403083
3.6107
-0.406577
3.81303
-0.41
4.02672
-0.413338
4.25217
-0.416581
4.49053
-0.419719
4.74198
-0.422747
5.00755
-0.42566
5.28803
-0.428439
5.58397
-0.431125
5.89645
-0.43367
6.22627
-0.436083
6.57433
-0.438365
6.94135
-0.440514
7.32831
-0.442535
7.73733
-0.443925
5.92832
-0.445322
6.52472
-0.446702
7.17892
-0.448107
7.90131
-0.449481
8.69459
-0.450815
9.56783
-0.4521
10.5267
-0.45314
11.5822
-0.454257
12.7336
-0.454389
14.0124
-0.457206
15.3827
-0.455407
17.007
18.6487
-0.190633
0.191261
-0.198555
0.215819
-0.204972
0.234073
-0.209976
0.249331
-0.214279
0.263988
-0.218579
0.278915
-0.223196
0.294628
-0.228132
0.311273
-0.233349
0.328864
-0.238812
0.347408
-0.24446
0.367004
-0.250275
0.387686
-0.256208
0.409511
-0.26221
0.432541
-0.268239
0.456842
-0.274257
0.482524
-0.280193
0.509586
-0.286033
0.538192
-0.291733
0.568386
-0.297259
0.600252
-0.302587
0.633896
-0.307695
0.669456
-0.312572
0.706968
-0.317214
0.746586
-0.321622
0.788422
-0.325803
0.832617
-0.329773
0.879219
-0.333551
0.928499
-0.337159
0.98056
-0.340622
1.03548
-0.343968
1.09327
-0.347237
1.15455
-0.350419
1.2192
-0.353576
1.28724
-0.35672
1.3593
-0.359872
1.43512
-0.36305
1.51536
-0.366271
1.5999
-0.369547
1.68925
-0.372887
1.78354
-0.376296
1.88307
-0.379778
1.98808
-0.383332
2.09898
-0.386968
2.2162
-0.390653
2.33984
-0.394381
2.47035
-0.398165
2.60824
-0.401982
2.75394
-0.405818
2.90774
-0.409659
3.0703
-0.41349
3.24177
-0.417296
3.42311
-0.421062
3.61446
-0.424772
3.81674
-0.428413
4.03036
-0.43197
4.25573
-0.435447
4.49401
-0.438806
4.74534
-0.44204
5.01079
-0.445172
5.29116
-0.448198
5.587
-0.451069
5.89932
-0.453823
6.22903
-0.456457
6.57696
-0.458922
6.94382
-0.461264
7.33065
-0.463472
7.73954
-0.46501
5.92985
-0.466527
6.52624
-0.468077
7.18048
-0.469594
7.90283
-0.471113
8.69611
-0.472593
9.56931
-0.474023
10.5282
-0.475194
11.5833
-0.476462
12.7349
-0.476724
14.0127
-0.479807
15.3858
-0.478536
17.0058
18.6581
-0.220389
0.20343
-0.228337
0.223764
-0.234495
0.240231
-0.23954
0.254374
-0.244085
0.268534
-0.248517
0.283345
-0.252913
0.299024
-0.257267
0.315626
-0.261548
0.333146
-0.265786
0.351645
-0.269989
0.371207
-0.274153
0.391849
-0.278296
0.413654
-0.282422
0.436667
-0.286559
0.460979
-0.290709
0.486673
-0.294887
0.513765
-0.299073
0.542378
-0.303295
0.572609
-0.307544
0.604501
-0.311827
0.638179
-0.316106
0.673736
-0.320403
0.711265
-0.324707
0.75089
-0.328986
0.792701
-0.333228
0.836859
-0.337444
0.883434
-0.341612
0.932667
-0.345728
0.984676
-0.349787
1.03954
-0.353787
1.09727
-0.357733
1.1585
-0.361628
1.2231
-0.365491
1.2911
-0.36931
1.36312
-0.373106
1.43892
-0.376892
1.51915
-0.380676
1.60368
-0.384459
1.69303
-0.388286
1.78737
-0.392115
1.8869
-0.395989
1.99195
-0.39991
2.10291
-0.403843
2.22013
-0.407823
2.34382
-0.411834
2.47436
-0.415884
2.61229
-0.419938
2.758
-0.424
2.9118
-0.428045
3.07435
-0.43209
3.24582
-0.43612
3.42714
-0.440082
3.61842
-0.444003
3.82066
-0.447869
4.03422
-0.451625
4.25949
-0.455302
4.49769
-0.458876
4.74892
-0.462341
5.01425
-0.46569
5.29451
-0.468918
5.59023
-0.472017
5.90242
-0.474983
6.23199
-0.477809
6.57979
-0.480508
6.94652
-0.483048
7.33319
-0.485433
7.74192
-0.487092
5.93151
-0.488781
6.52793
-0.490446
7.18214
-0.492142
7.90452
-0.493799
8.69776
-0.495447
9.57096
-0.497038
10.5298
-0.498335
11.5846
-0.499787
12.7363
-0.500134
14.013
-0.503586
15.3893
-0.502656
17.0048
18.6679
-0.249509
0.21176
-0.254912
0.229164
-0.258687
0.244006
-0.261949
0.257634
-0.265211
0.271796
-0.268625
0.286758
-0.272178
0.302577
-0.275843
0.31929
-0.279601
0.336905
-0.283443
0.355486
-0.287352
0.375118
-0.291319
0.395815
-0.295327
0.417663
-0.299366
0.440706
-0.303434
0.465048
-0.307495
0.490734
-0.311567
0.517837
-0.315636
0.546447
-0.319698
0.576672
-0.323753
0.608556
-0.327799
0.642225
-0.331849
0.677786
-0.335876
0.715292
-0.339912
0.754926
-0.34395
0.796739
-0.347993
0.840903
-0.352043
0.887484
-0.356102
0.936726
-0.360169
0.988744
-0.364244
1.04362
-0.368325
1.10135
-0.372412
1.16258
-0.376502
1.22719
-0.380595
1.2952
-0.384692
1.36721
-0.388792
1.44302
-0.392897
1.52325
-0.397009
1.60779
-0.401144
1.69717
-0.405268
1.79149
-0.409421
1.89105
-0.413592
1.99612
-0.417783
2.1071
-0.421995
2.22435
-0.426227
2.34805
-0.430476
2.47861
-0.434738
2.61655
-0.439009
2.76227
-0.443279
2.91607
-0.447542
3.07861
-0.451788
3.25006
-0.456004
3.43135
-0.46018
3.6226
-0.464302
3.82478
-0.468357
4.03828
-0.472347
4.26348
-0.476219
4.50156
-0.480004
4.7527
-0.483697
5.01794
-0.487261
5.29808
-0.490689
5.59366
-0.494004
5.90573
-0.497184
6.23517
-0.500221
6.58282
-0.503113
6.94941
-0.505857
7.33593
-0.508459
7.74452
-0.510261
5.93332
-0.512082
6.52975
-0.513915
7.18397
-0.515755
7.90636
-0.517589
8.6996
-0.519387
9.57276
-0.521143
10.5315
-0.522597
11.5861
-0.524231
12.738
-0.524751
14.0135
-0.528463
15.393
-0.52809
17.0045
18.6778
-0.285382
0.217658
-0.288895
0.232677
-0.291082
0.246195
-0.293084
0.259636
-0.295196
0.273908
-0.29745
0.289012
-0.299801
0.304929
-0.302273
0.321762
-0.304859
0.339492
-0.307566
0.358192
-0.310394
0.377946
-0.313346
0.398767
-0.316421
0.420738
-0.319627
0.443912
-0.322932
0.468353
-0.32636
0.494162
-0.329895
0.521372
-0.333528
0.55008
-0.337251
0.580395
-0.341055
0.61236
-0.344929
0.646099
-0.348863
0.68172
-0.352848
0.719276
-0.356874
0.758952
-0.360934
0.800799
-0.365023
0.844991
-0.369133
0.891595
-0.373264
0.940856
-0.377411
0.992891
-0.381574
1.04778
-0.385751
1.10553
-0.389944
1.16678
-0.394153
1.2314
-0.398377
1.29942
-0.402618
1.37145
-0.406877
1.44728
-0.411153
1.52753
-0.415448
1.61209
-0.419761
1.70148
-0.424094
1.79583
-0.428447
1.8954
-0.43283
2.00051
-0.437208
2.11147
-0.441617
2.22875
-0.446041
2.35248
-0.450479
2.48304
-0.454926
2.621
-0.459378
2.76672
-0.463828
2.92052
-0.46827
3.08305
-0.472707
3.2545
-0.477091
3.43574
-0.481449
3.62696
-0.485758
3.82909
-0.490003
4.04252
-0.494173
4.26765
-0.498257
4.50564
-0.502246
4.75669
-0.50613
5.02183
-0.509904
5.30185
-0.51356
5.59731
-0.517103
5.90927
-0.520482
6.23855
-0.523733
6.58607
-0.526836
6.95251
-0.529789
7.33889
-0.532597
7.74733
-0.534547
5.93527
-0.536523
6.53172
-0.538518
7.18597
-0.540524
7.90837
-0.542531
8.70161
-0.544506
9.57474
-0.546434
10.5334
-0.548067
11.5877
-0.549856
12.7398
-0.550643
14.0143
-0.554517
15.3968
-0.55485
-0.322634
0.221526
-0.324751
0.234794
-0.326251
0.247695
-0.32784
0.261224
-0.32954
0.275609
-0.33132
0.290791
-0.333193
0.306802
-0.335127
0.323695
-0.33716
0.341525
-0.339268
0.3603
-0.341455
0.380133
-0.343741
0.401053
-0.346121
0.423119
-0.3486
0.44639
-0.351178
0.470932
-0.353861
0.496844
-0.35665
0.524161
-0.359558
0.552988
-0.362566
0.583404
-0.365686
0.615479
-0.368906
0.649319
-0.372245
0.685059
-0.3757
0.722731
-0.379236
0.762488
-0.382879
0.804442
-0.386623
0.848735
-0.39044
0.895412
-0.394333
0.94475
-0.398296
0.996854
-0.402321
1.0518
-0.406402
1.10961
-0.410533
1.17091
-0.41471
1.23558
-0.418917
1.30363
-0.423174
1.37571
-0.427467
1.45157
-0.431794
1.53186
-0.436153
1.61645
-0.440544
1.70587
-0.444965
1.80025
-0.449428
1.89986
-0.453893
2.00497
-0.458396
2.11598
-0.462936
2.23329
-0.467484
2.35703
-0.47205
2.48761
-0.476615
2.62556
-0.481202
2.77131
-0.485792
2.92511
-0.49039
3.08765
-0.494949
3.25906
-0.499499
3.44029
-0.50403
3.63149
-0.508502
3.83356
-0.512905
4.04693
-0.517252
4.272
-0.52152
4.50991
-0.525698
4.76087
-0.529779
5.02591
-0.533755
5.30583
-0.537616
5.60117
-0.541354
5.91301
-0.544973
6.24217
-0.548421
6.58952
-0.551736
6.95583
-0.554902
7.34205
-0.557935
7.75036
-0.560022
5.93735
-0.562158
6.53386
-0.56432
7.18813
-0.566501
7.91055
-0.568704
8.70381
-0.570851
9.57688
-0.572962
10.5355
-0.574787
11.5895
-0.57676
12.7417
-0.577816
-0.359987
0.223602
-0.361189
0.235995
-0.362348
0.248855
-0.363657
0.262533
-0.365042
0.276994
-0.366495
0.292244
-0.368015
0.308323
-0.369607
0.325286
-0.371273
0.343191
-0.373016
0.362043
-0.374837
0.381954
-0.376741
0.402956
-0.378727
0.425106
-0.380801
0.448463
-0.382961
0.473093
-0.385212
0.499095
-0.387554
0.526504
-0.389991
0.555425
-0.392523
0.585936
-0.395154
0.618109
-0.397883
0.652049
-0.400715
0.687891
-0.40365
0.725666
-0.406689
0.765528
-0.409834
0.807587
-0.413084
0.851985
-0.416438
0.898766
-0.419896
0.948208
-0.423455
1.00041
-0.427113
1.05546
-0.430865
1.11336
-0.434707
1.17475
-0.438635
1.2395
-0.442643
1.30764
-0.446726
1.3798
-0.450879
1.45572
-0.455098
1.53608
-0.459378
1.62073
-0.463714
1.71021
-0.468103
1.80464
-0.472541
1.9043
-0.477024
2.00946
-0.481549
2.1205
-0.486112
2.23786
-0.490708
2.36162
-0.495333
2.49223
-0.499982
2.63021
-0.50465
2.77597
-0.509331
2.92979
-0.514016
3.09233
-0.518697
3.26374
-0.523366
3.44496
-0.528011
3.63613
-0.53262
3.83817
-0.537183
4.05149
-0.541686
4.2765
-0.546118
4.51434
-0.55047
4.76522
-0.554733
5.03017
-0.558898
5.30999
-0.56297
5.60525
-0.566895
5.91694
-0.570705
6.24598
-0.574377
6.59319
-0.577903
6.95935
-0.581282
7.34543
-0.584513
7.7536
-0.58677
5.93961
-0.58907
6.53616
-0.591405
7.19047
-0.593768
7.91291
-0.596145
8.70619
-0.598504
9.57924
-0.600809
10.5379
-0.602836
-0.398027
0.224596
-0.398853
0.23682
-0.399826
0.249827
-0.400881
0.263588
-0.401984
0.278096
-0.403141
0.2934
-0.404355
0.309536
-0.405639
0.326571
-0.406968
0.344519
-0.408374
0.363449
-0.40986
0.383441
-0.411411
0.404507
-0.413039
0.426734
-0.414738
0.450161
-0.416531
0.474885
-0.418421
0.500985
-0.420391
0.528474
-0.422443
0.557477
-0.4246
0.588094
-0.426855
0.620364
-0.429219
0.654414
-0.431664
0.690336
-0.434222
0.728224
-0.436896
0.768201
-0.439663
0.810354
-0.442526
0.854848
-0.445505
0.901746
-0.448593
0.951295
-0.451788
1.00361
-0.45509
1.05876
-0.458498
1.11677
-0.462012
1.17826
-0.46563
1.24312
-0.469361
1.31137
-0.473179
1.38361
-0.477093
1.45964
-0.481098
1.54008
-0.485191
1.62482
-0.489355
1.71437
-0.493622
1.8089
-0.497938
1.90862
-0.502334
2.01385
-0.506806
2.12497
-0.511311
2.24236
-0.515881
2.36619
-0.520497
2.49685
-0.525168
2.63488
-0.529859
2.78067
-0.534578
2.93451
-0.539302
3.09706
-0.544049
3.26849
-0.548811
3.44972
-0.553535
3.64086
-0.558249
3.84289
-0.562943
4.05618
-0.567562
4.28112
-0.57215
4.51893
-0.576655
4.76973
-0.581068
5.03459
-0.585407
5.31433
-0.589648
5.60949
-0.593778
5.92107
-0.597786
6.24999
-0.601676
6.59708
-0.60541
6.96309
-0.609
7.34902
-0.61243
7.75703
-0.61486
5.94204
-0.617328
6.53863
-0.619841
7.19298
-0.622392
7.91546
-0.624951
-0.62753
-0.437011
0.22521
-0.437758
0.237567
-0.438571
0.25064
-0.439431
0.264448
-0.440329
0.278995
-0.441283
0.294354
-0.442262
0.310516
-0.443303
0.327611
-0.444397
0.345612
-0.445547
0.364598
-0.446755
0.38465
-0.448027
0.405779
-0.449365
0.428072
-0.450783
0.451579
-0.452263
0.476366
-0.45381
0.502531
-0.455448
0.530112
-0.457171
0.559199
-0.458982
0.589905
-0.460885
0.622268
-0.462884
0.656413
-0.464994
0.692445
-0.467183
0.730414
-0.469488
0.770506
-0.471901
0.812767
-0.474423
0.85737
-0.477057
0.90438
-0.479803
0.954041
-0.482663
1.00647
-0.485637
1.06174
-0.488737
1.11987
-0.491928
1.18146
-0.495244
1.24644
-0.498673
1.31479
-0.502214
1.38715
-0.505863
1.46329
-0.509621
1.54384
-0.513483
1.62868
-0.517459
1.71835
-0.521509
1.81295
-0.525677
1.91279
-0.529921
2.0181
-0.534238
2.12929
-0.538645
2.24677
-0.543126
2.37067
-0.547672
2.5014
-0.552279
2.63949
-0.556939
2.78532
-0.561643
2.93921
-0.566385
3.1018
-0.571167
3.27327
-0.57594
3.45449
-0.580745
3.64566
-0.585529
3.84767
-0.590281
4.06093
-0.595027
4.28586
-0.599702
4.52361
-0.604337
4.77436
-0.608921
5.03917
-0.613416
5.31883
-0.61781
5.61388
-0.622134
5.92539
-0.626314
6.25417
-0.630384
6.60115
-0.63432
6.96702
-0.638118
7.35282
-0.641791
-0.644349
-0.646987
-0.649682
-0.477102
0.225784
-0.477756
0.238221
-0.478453
0.251337
-0.479167
0.265161
-0.479915
0.279743
-0.48069
0.295129
-0.481527
0.311352
-0.482385
0.328469
-0.483309
0.346537
-0.48427
0.365559
-0.48527
0.38565
-0.486336
0.406844
-0.487457
0.429193
-0.488639
0.452761
-0.489884
0.477611
-0.491195
0.503843
-0.492578
0.531494
-0.494046
0.560667
-0.495581
0.59144
-0.497198
0.623885
-0.498891
0.658105
-0.500685
0.694239
-0.502584
0.732313
-0.504559
0.772481
-0.506647
0.814855
-0.508853
0.859575
-0.511155
0.906683
-0.51357
0.956456
-0.516099
1.009
-0.518746
1.06439
-0.521498
1.12262
-0.524395
1.18435
-0.527401
1.24944
-0.530516
1.31791
-0.533764
1.3904
-0.537133
1.46666
-0.540621
1.54733
-0.544227
1.63229
-0.547949
1.72207
-0.551784
1.81679
-0.555728
1.91673
-0.559779
2.02215
-0.563931
2.13344
-0.568194
2.25103
-0.572535
2.37502
-0.576962
2.50582
-0.581456
2.64398
-0.586035
2.7899
-0.590679
2.94386
-0.595392
3.10651
-0.600125
3.278
-0.604907
3.45927
-0.609713
3.65047
-0.614531
3.85249
-0.619346
4.06575
-0.624147
4.29066
-0.628922
4.52838
-0.63366
4.7791
-0.638349
5.04386
-0.642979
5.32346
-0.64755
5.61845
-0.652006
-0.656389
-0.660629
-0.664759
-0.518393
0.226309
-0.518946
0.238774
-0.519508
0.251899
-0.520107
0.265761
-0.520737
0.280373
-0.521411
0.295802
-0.522095
0.312037
-0.522839
0.329212
-0.523599
0.347296
-0.52441
0.366371
-0.525277
0.386517
-0.526178
0.407745
-0.527129
0.430144
-0.528121
0.453752
-0.529191
0.47868
-0.530308
0.50496
-0.531488
0.532674
-0.532723
0.561902
-0.534038
0.592756
-0.535428
0.625274
-0.536906
0.659584
-0.538456
0.695788
-0.540079
0.733936
-0.541815
0.774218
-0.543634
0.816674
-0.545539
0.86148
-0.547557
0.908701
-0.549682
0.95858
-0.551915
1.01123
-0.554263
1.06673
-0.556726
1.12508
-0.559308
1.18693
-0.562012
1.25215
-0.564852
1.32075
-0.567805
1.39336
-0.570884
1.46974
-0.57409
1.55053
-0.577423
1.63562
-0.580881
1.72553
-0.584465
1.82037
-0.588158
1.92042
-0.591984
2.02597
-0.595939
2.1374
-0.599983
2.25508
-0.604147
2.37918
-0.608415
2.51009
-0.612794
2.64836
-0.617252
2.79436
-0.621793
2.9484
-0.626396
3.11112
-0.63108
3.28268
-0.635832
3.46402
-0.640601
3.65524
-0.645415
3.85731
-0.65026
-0.655097
-0.659927
-0.664739
-0.669507
-0.674263
-0.560949
0.226757
-0.561414
0.239238
-0.56191
0.252395
-0.56242
0.26627
-0.562956
0.280909
-0.563507
0.296354
-0.564111
0.31264
-0.564722
0.329824
-0.56539
0.347964
-0.566082
0.367063
-0.566799
0.387234
-0.567568
0.408514
-0.56838
0.430956
-0.569249
0.454621
-0.570144
0.479575
-0.571102
0.505918
-0.572115
0.533687
-0.573198
0.562985
-0.574332
0.59389
-0.575532
0.626474
-0.57679
0.660842
-0.578134
0.697132
-0.579568
0.73537
-0.58106
0.77571
-0.582651
0.818264
-0.584344
0.863173
-0.58612
0.910477
-0.587995
0.960456
-0.589974
1.01321
-0.59206
1.06882
-0.594256
1.12728
-0.596556
1.18923
-0.598998
1.25459
-0.601537
1.32329
-0.604213
1.39603
-0.607015
1.47254
-0.609946
1.55346
-0.613007
1.63868
-0.616199
1.72872
-0.619523
1.82369
-0.62299
1.92389
-0.626574
2.02956
-0.630274
-0.634113
-0.638087
-0.642166
-0.646347
-0.650649
-0.655053
-0.659566
-0.66415
-0.668796
-0.673534
-0.604915
-0.6053
-0.605716
-0.606154
-0.606614
-0.607098
-0.607607
-0.608155
-0.608707
-0.609303
-0.60993
-0.610605
-0.611305
-0.612033
-0.612816
-0.613656
-0.614533
-0.61545
-0.616434
-0.617477
-0.618594
-0.619754
-0.620997
-0.622313
-0.623721
-0.625188
-0.626753
-0.628412
-0.630166
-0.632021
-0.63398
-0.636062
-0.638232
-0.640532
-0.642953
-0.645498
-0.64817
-0.650985
-0.653907
-0.656976
-0.660179
)
;

boundaryField
{
    inlet
    {
        type            calculated;
        value           nonuniform List<scalar> 
13
(
-0.919883
-0.908538
-0.905858
-0.918064
-0.955741
-1.02168
-1.15992
-0.9348
-0.464704
-0.487986
-0.512443
-0.537973
-0.564695
)
;
    }
    outlet
    {
        type            calculated;
        value           nonuniform List<scalar> 0();
    }
    walls
    {
        type            calculated;
        value           uniform 0;
    }
    frontAndBack
    {
        type            empty;
        value           nonuniform List<scalar> 0();
    }
    procBoundary2to1
    {
        type            processor;
        value           nonuniform List<scalar> 
84
(
-0.206504
-0.23285
-0.251835
-0.268475
-0.282183
-0.297605
-0.31335
-0.330174
-0.347793
-0.366386
-0.385947
-0.406546
-0.428239
-0.451077
-0.475147
-0.500491
-0.527189
-0.555296
-0.584941
-0.616159
-0.64909
-0.683773
-0.720374
-0.758948
-0.799715
-0.842617
-0.88788
-0.935885
-0.986278
-1.03969
-1.09615
-1.15567
-1.21852
-1.28522
-1.35542
-1.42991
-1.50845
-1.5917
-0.025944
-1.67678
-1.76975
-1.86803
-1.97203
-2.08202
-2.19842
-2.32162
-2.45165
-2.58942
-2.73495
-2.8889
-3.05155
-3.22368
-3.4053
0.0777702
-3.5936
-3.79651
-4.01084
-4.23735
-4.47629
-4.7287
-4.99508
-5.27648
-5.57342
0.180426
-5.88104
-6.21149
-6.56017
-6.92803
-7.31515
-7.72494
-5.63536
-6.20131
-6.82425
-7.5119
0.42042
-8.22845
-9.05667
-9.96608
-10.966
-12.0625
-13.2689
-14.5868
-16.0746
-17.7001
)
;
    }
    procBoundary2to3
    {
        type            processor;
        value           nonuniform List<scalar> 
88
(
17.0048
18.6876
14.0154
-0.581887
15.4009
11.5916
-0.604979
12.7439
8.70875
9.58182
-0.630038
10.5404
7.7607
5.9446
6.54126
7.19567
-0.652426
7.91821
5.92985
6.25855
6.60539
6.97115
-0.66876
7.35682
4.0706
4.2955
4.53321
4.78391
5.04863
5.32821
-0.678933
5.62312
2.1411
2.25891
2.38315
2.51417
2.65254
2.79866
2.9528
3.11563
3.28727
3.46867
3.65997
-0.678309
3.86208
0.227148
0.239623
0.252811
0.266708
0.281369
0.296837
0.313149
0.330372
0.348517
0.367658
0.387862
0.409189
0.431656
0.455349
0.480358
0.506758
0.534564
0.563902
0.594874
0.627517
0.66196
0.698292
0.736612
0.777027
0.819672
0.86464
0.912043
0.962113
1.01496
1.07067
1.12924
1.19131
1.25676
1.32559
1.39845
1.47508
1.55614
1.6415
1.73164
1.82676
1.92709
-0.663518
2.0329
)
;
    }
    procBoundary2to6
    {
        type            processor;
        value           nonuniform List<scalar> 
13
(
0.160749
0.176851
0.208222
0.241179
0.279487
0.318768
0.357911
0.397033
0.436398
0.476528
0.517868
0.560501
0.604524
)
;
    }
}


// ************************************************************************* //
