/*--------------------------------*- C++ -*----------------------------------*\
| =========                 |                                                 |
| \\      /  F ield         | OpenFOAM: The Open Source CFD Toolbox           |
|  \\    /   O peration     | Version:  2306                                  |
|   \\  /    A nd           | Website:  www.openfoam.com                      |
|    \\/     M anipulation  |                                                 |
\*---------------------------------------------------------------------------*/
FoamFile
{
    version     2.0;
    format      ascii;
    arch        "LSB;label=32;scalar=64";
    class       volSymmTensorField;
    location    "225";
    object      turbulenceProperties:R;
}
// * * * * * * * * * * * * * * * * * * * * * * * * * * * * * * * * * * * * * //

dimensions      [0 2 -2 0 0 0 0];

internalField   nonuniform List<symmTensor> 
1340
(
(28.5825 14.0192 1.02509e-15 35.6266 1.64619e-16 32.1575)
(26.9264 13.2947 1.45111e-15 34.4486 2.67157e-16 30.7356)
(25.1292 12.4753 -2.90637e-16 32.9406 -3.64815e-17 29.0799)
(20.1491 10.0685 -4.55547e-15 27.4241 -7.83783e-16 23.7964)
(0.858307 0.416177 -4.91316e-16 1.10061 -8.64117e-17 0.941705)
(0.935864 0.456869 -1.22584e-15 1.2165 -5.16993e-16 1.04199)
(1.13631 0.553376 -2.52744e-15 1.45816 -2.40821e-18 1.25693)
(1.57939 0.778172 -2.04263e-15 1.98491 1.36465e-15 1.79773)
(0.197285 0.0932262 2.15957e-16 0.219499 -1.76314e-17 0.209139)
(0.268232 0.127883 -1.1747e-15 0.306375 2.12605e-16 0.287372)
(0.334207 0.15438 2.95035e-15 0.354218 5.33817e-16 0.342967)
(0.549792 0.261846 4.64054e-15 0.616579 9.51853e-16 0.595237)
(0.00861565 0.00335512 -1.74138e-16 0.00678668 -2.66021e-17 0.00778841)
(0.0269876 0.0112659 7.44011e-16 0.0233523 1.10078e-16 0.0258876)
(0.0710512 0.0280607 -4.87544e-16 0.0570405 -1.69121e-16 0.0647838)
(0.230784 0.104868 -3.29441e-16 0.231595 -1.41626e-15 0.23839)
(0.000437291 -8.72441e-05 -1.71148e-18 0.000205427 6.83627e-19 0.000347219)
(0.00126369 -0.000130192 -1.7854e-17 0.000503561 -1.49056e-17 0.000927623)
(0.00307336 0.000216758 5.63184e-17 0.00120767 4.0085e-18 0.00210766)
(0.0493548 0.019856 -2.91648e-16 0.0402626 5.27705e-17 0.0468837)
(5.08272e-05 -1.03264e-05 1.1432e-18 4.04606e-05 1.01766e-19 3.87221e-05)
(0.000216948 -3.35853e-05 -1.1735e-17 0.000107889 -2.27303e-19 0.000138347)
(0.000715426 -2.37861e-05 -1.62433e-17 0.000288886 -5.29526e-18 0.000458782)
(0.00624333 0.0020872 6.99232e-18 0.00408814 4.81904e-17 0.00542004)
(4.77727e-06 -6.11289e-08 -6.12089e-21 4.54467e-06 -7.71723e-22 4.69805e-06)
(8.39423e-07 -1.07903e-09 3.28523e-22 8.3121e-07 8.59918e-23 8.36363e-07)
(0 -0 0 0 0 0)
(0.00140353 0.000395233 2.21223e-17 0.000793967 1.95879e-18 0.00119391)
(1.34153e-05 -1.08846e-06 1.07925e-19 1.16876e-05 1.9166e-20 1.21316e-05)
(9.80452e-06 -3.41478e-07 -3.02037e-20 8.39558e-06 -1.29212e-20 8.92592e-06)
(1.08783e-06 1.62383e-10 5.33129e-23 1.07223e-06 1.26933e-23 1.07875e-06)
(0 0 0 0 -0 0)
(1.80736e-05 -1.18151e-06 -5.04655e-21 1.45728e-05 -5.67936e-21 1.65484e-05)
(1.98009e-05 -6.24823e-07 3.52298e-20 1.52751e-05 3.85196e-20 1.78149e-05)
(2.12428e-05 1.59722e-07 2.11344e-20 1.69017e-05 -2.17064e-20 1.9096e-05)
(7.93523e-07 1.98167e-09 -1.1309e-23 7.90775e-07 1.21161e-23 7.92504e-07)
(1.51804e-05 -1.18013e-06 3.97751e-20 1.25225e-05 5.26177e-21 1.3717e-05)
(1.52388e-05 -5.38449e-07 2.15734e-19 1.20006e-05 7.33286e-22 1.35699e-05)
(2.66215e-05 3.24795e-07 -2.54209e-19 1.95856e-05 2.28716e-20 2.28798e-05)
(1.10527e-05 4.0788e-07 1.02163e-20 1.05148e-05 4.8002e-21 1.08454e-05)
(1.53963e-05 -1.10039e-06 4.16991e-21 1.25408e-05 -8.33161e-21 1.39971e-05)
(1.55624e-05 -4.67839e-07 -2.46836e-19 1.21942e-05 -3.88486e-20 1.39539e-05)
(2.25346e-05 3.32367e-07 3.18092e-19 1.70806e-05 4.89113e-20 1.97316e-05)
(2.61367e-05 2.26469e-06 8.61659e-20 2.31841e-05 -3.27671e-20 2.49956e-05)
(1.4268e-05 -1.0533e-06 -9.4637e-20 1.16872e-05 -4.42026e-21 1.29398e-05)
(1.47059e-05 -4.44604e-07 1.60075e-19 1.14757e-05 2.35684e-20 1.31143e-05)
(1.90276e-05 3.24148e-07 -1.44808e-19 1.47157e-05 -6.463e-20 1.67892e-05)
(2.87134e-05 2.92459e-06 -1.82052e-19 2.49823e-05 -1.0207e-19 2.7253e-05)
(1.37268e-05 -9.95454e-07 1.09055e-19 1.12202e-05 1.33977e-20 1.24667e-05)
(1.41982e-05 -4.00061e-07 -2.24864e-19 1.10515e-05 -2.98876e-20 1.2669e-05)
(1.74582e-05 3.4857e-07 -1.50024e-20 1.35607e-05 2.39946e-20 1.54499e-05)
(2.62979e-05 2.70824e-06 -2.92168e-19 2.29079e-05 3.22797e-20 2.4959e-05)
(1.29591e-05 -9.47495e-07 -8.00782e-20 1.06046e-05 -1.4904e-20 1.17653e-05)
(1.33429e-05 -3.60302e-07 1.46913e-19 1.03801e-05 4.54287e-20 1.18946e-05)
(1.61516e-05 3.73531e-07 2.30084e-20 1.25563e-05 1.97997e-20 1.42991e-05)
(2.36015e-05 2.42842e-06 1.69267e-19 2.06312e-05 5.79359e-20 2.24152e-05)
(1.22697e-05 -8.96846e-07 1.66939e-20 1.00394e-05 7.4174e-21 1.11446e-05)
(1.25691e-05 -3.21592e-07 6.37116e-20 9.77215e-06 -1.40635e-20 1.1205e-05)
(1.49307e-05 3.91726e-07 1.20899e-19 1.16198e-05 -7.86371e-21 1.32305e-05)
(2.12548e-05 2.19722e-06 -8.27467e-20 1.86311e-05 -5.31188e-20 2.01959e-05)
(1.1528e-05 -8.47181e-07 1.12347e-20 9.4389e-06 5.0734e-24 1.04736e-05)
(1.17508e-05 -2.87273e-07 -9.30343e-20 9.13117e-06 -1.2787e-20 1.04715e-05)
(1.37157e-05 4.02126e-07 -1.59439e-19 1.06918e-05 -4.13347e-20 1.2166e-05)
(1.91369e-05 1.99437e-06 -9.43498e-20 1.68193e-05 3.53671e-20 1.81915e-05)
(1.07889e-05 -7.97295e-07 -4.40294e-21 8.83989e-06 1.4706e-21 9.80693e-06)
(1.09406e-05 -2.55985e-07 5.0171e-20 8.49735e-06 1.88141e-21 9.74721e-06)
(1.25534e-05 4.06134e-07 -6.54474e-20 9.80444e-06 2.17571e-20 1.11483e-05)
(1.71775e-05 1.80639e-06 2.25691e-19 1.51401e-05 1.67219e-20 1.63377e-05)
(1.00371e-05 -7.47972e-07 4.12621e-20 8.23271e-06 -2.5427e-21 9.12876e-06)
(1.01221e-05 -2.2774e-07 -1.469e-19 7.85848e-06 -1.85271e-20 9.0157e-06)
(1.14414e-05 4.04699e-07 9.73235e-20 8.95462e-06 2.64384e-20 1.01734e-05)
(1.53611e-05 1.63123e-06 -1.73242e-19 1.35829e-05 -1.65839e-20 1.46204e-05)
(9.28319e-06 -6.99085e-07 -1.14471e-19 7.62475e-06 -1.15462e-20 8.44934e-06)
(9.30604e-06 -2.02211e-07 3.53611e-20 7.22249e-06 2.46358e-20 8.28707e-06)
(1.03792e-05 3.98143e-07 7.26324e-20 8.14177e-06 -9.42228e-21 9.24115e-06)
(1.36825e-05 1.4683e-06 2.8089e-19 1.21427e-05 3.49596e-20 1.30341e-05)
(8.52892e-06 -6.50893e-07 5.79921e-20 7.01775e-06 1.22902e-20 7.76994e-06)
(8.49427e-06 -1.79264e-07 1.14141e-19 6.59075e-06 3.72892e-21 7.56271e-06)
(9.36934e-06 3.8725e-07 -7.04473e-20 7.36755e-06 -1.92499e-20 8.35372e-06)
(1.21448e-05 1.31793e-06 -1.68593e-19 1.08219e-05 -4.9088e-20 1.15821e-05)
(7.77891e-06 -6.03391e-07 -1.56314e-20 6.41511e-06 -4.87595e-21 7.09471e-06)
(7.69166e-06 -1.58528e-07 -8.70763e-20 5.96681e-06 -1.72196e-20 6.84693e-06)
(8.40854e-06 3.72832e-07 -4.14373e-20 6.62977e-06 6.90245e-21 7.50822e-06)
(1.0738e-05 1.17948e-06 3.20433e-20 9.61291e-06 2.28889e-20 1.02546e-05)
(7.03724e-06 -5.56646e-07 4.61937e-21 5.81995e-06 3.52256e-21 6.42725e-06)
(6.90353e-06 -1.39761e-07 1.33345e-20 5.35465e-06 8.12538e-21 6.14449e-06)
(7.49831e-06 3.55363e-07 4.90597e-20 5.92944e-06 1.4532e-20 6.70612e-06)
(9.45802e-06 1.05255e-06 1.90869e-21 8.51198e-06 -8.1021e-21 9.04767e-06)
(6.30897e-06 -5.1086e-07 3.27403e-20 5.23637e-06 1.68214e-21 5.77212e-06)
(6.13357e-06 -1.22723e-07 3.13702e-21 4.757e-06 -2.38539e-21 5.45855e-06)
(6.63851e-06 3.35784e-07 6.63806e-20 5.26687e-06 -7.28613e-21 5.94752e-06)
(8.29983e-06 9.36771e-07 -4.75313e-20 7.51523e-06 -2.42588e-21 7.95662e-06)
(5.59912e-06 -4.66156e-07 -2.60743e-20 4.66831e-06 -3.5356e-21 5.13382e-06)
(5.38709e-06 -1.07276e-07 -2.35552e-20 4.17791e-06 8.0477e-22 4.79385e-06)
(5.8281e-06 3.14391e-07 -1.30686e-19 4.64126e-06 -1.58645e-20 5.23145e-06)
(7.25381e-06 8.31245e-07 2.66918e-20 6.61452e-06 9.42108e-21 6.97202e-06)
(4.91184e-06 -4.22535e-07 1.86656e-20 4.11896e-06 6.26565e-22 4.51601e-06)
(4.66743e-06 -9.30481e-08 5.21946e-20 3.61983e-06 7.35069e-21 4.15327e-06)
(5.06922e-06 2.92098e-07 4.89136e-20 4.05481e-06 2.19274e-20 4.5603e-06)
(6.31565e-06 7.35587e-07 2.80047e-20 5.80635e-06 3.77038e-21 6.08991e-06)
(4.25209e-06 -3.80062e-07 -4.84073e-20 3.59222e-06 -3.77245e-21 3.92315e-06)
(3.97857e-06 -7.98397e-08 -2.33926e-21 3.08576e-06 -1.67384e-21 3.54029e-06)
(4.3622e-06 2.69456e-07 8.7883e-20 3.50819e-06 9.73966e-22 3.93455e-06)
(5.47745e-06 6.49116e-07 4.5143e-20 5.08448e-06 -5.15285e-21 5.30272e-06)
(3.62513e-06 -3.38869e-07 4.15802e-20 3.09242e-06 7.05598e-21 3.36006e-06)
(3.32413e-06 -6.74359e-08 3.369e-20 2.57841e-06 3.07322e-21 2.95811e-06)
(3.7087e-06 2.47013e-07 -6.65493e-20 3.00324e-06 -9.87941e-21 3.35607e-06)
(4.734e-06 5.71303e-07 -1.06809e-19 4.44463e-06 -9.54817e-21 4.60554e-06)
(3.03648e-06 -2.99065e-07 2.25141e-21 2.62421e-06 -2.16712e-21 2.83183e-06)
(2.70696e-06 -5.57346e-08 -1.08709e-20 2.09995e-06 -5.02433e-21 2.40918e-06)
(3.11017e-06 2.25199e-07 4.88755e-20 2.54172e-06 5.13556e-21 2.8265e-06)
(4.0788e-06 5.01491e-07 6.97673e-20 3.88167e-06 9.14844e-21 3.9922e-06)
(2.49197e-06 -2.60706e-07 -2.93817e-21 2.19266e-06 -9.236e-22 2.34391e-06)
(2.12969e-06 -4.45007e-08 -3.22237e-20 1.65233e-06 -4.00025e-21 1.89579e-06)
(2.56971e-06 2.04445e-07 -7.18982e-20 2.12693e-06 -8.58132e-21 2.3491e-06)
(3.50696e-06 4.39109e-07 -8.62823e-20 3.39168e-06 -1.39226e-20 3.4581e-06)
(1.99905e-06 -2.23854e-07 -9.38258e-21 1.80449e-06 -1.30974e-21 1.9034e-06)
(1.59444e-06 -3.36124e-08 -2.2536e-20 1.23713e-06 -8.77436e-22 1.41981e-06)
(2.09163e-06 1.85113e-07 3.491e-20 1.76348e-06 8.28236e-21 1.92841e-06)
(3.01447e-06 3.83673e-07 -8.13617e-21 2.97172e-06 9.44892e-21 2.99952e-06)
(1.5678e-06 -1.88577e-07 -9.25474e-21 1.46929e-06 -1.02156e-21 1.52016e-06)
(1.10199e-06 -2.29631e-08 -5.86954e-21 8.54934e-07 2.10332e-21 9.81818e-07)
(1.68287e-06 1.6749e-07 3.16166e-21 1.45856e-06 -1.11156e-21 1.57157e-06)
(2.59764e-06 3.34674e-07 8.33427e-20 2.619e-06 1.33029e-20 2.61306e-06)
(1.21405e-06 -1.54973e-07 -1.27749e-20 1.20241e-06 -1.07933e-21 1.2098e-06)
(6.53954e-07 -1.247e-08 3.05752e-20 5.06965e-07 2.95595e-21 5.8328e-07)
(1.35312e-06 1.51744e-07 1.22574e-20 1.22225e-06 -5.73019e-22 1.28844e-06)
(2.25328e-06 2.91658e-07 8.33637e-20 2.33114e-06 5.28326e-23 2.29576e-06)
(9.60266e-07 -1.23164e-07 -3.79099e-21 1.02607e-06 1.18917e-21 9.94669e-07)
(2.52026e-07 -2.14278e-09 -9.85217e-21 1.94844e-07 -1.88059e-21 2.25818e-07)
(1.11454e-06 1.3794e-07 -2.92961e-20 1.06697e-06 -3.63623e-21 1.09138e-06)
(1.9775e-06 2.54147e-07 -7.26925e-20 2.10488e-06 -1.41152e-20 2.04393e-06)
(8.26894e-07 -9.32214e-08 2.3285e-20 9.60622e-07 2.365e-21 8.95171e-07)
(9.67184e-08 8.04309e-09 1.36651e-20 1.19109e-07 -1.50541e-22 1.09934e-07)
(9.75162e-07 1.26136e-07 2.05194e-22 1.00112e-06 3.27459e-21 9.88623e-07)
(1.76531e-06 2.21696e-07 -5.24267e-20 1.93584e-06 -5.48266e-22 1.85279e-06)
(8.08662e-07 -6.52109e-08 -4.94459e-21 1.00084e-06 -1.14934e-21 9.06038e-07)
(3.38468e-07 1.80674e-08 -4.66791e-20 4.30344e-07 -4.22446e-21 3.86127e-07)
(9.26971e-07 1.16305e-07 3.56988e-20 1.01709e-06 1.6399e-21 9.72378e-07)
(1.60991e-06 1.93881e-07 2.51065e-20 1.81771e-06 2.95246e-21 1.71568e-06)
(8.6789e-07 -3.92248e-08 7.95767e-21 1.10919e-06 7.14637e-22 9.89709e-07)
(5.5311e-07 2.78809e-08 2.98042e-20 7.0464e-07 4.53149e-21 6.30343e-07)
(9.44035e-07 1.08338e-07 -4.39282e-20 1.08937e-06 -5.14233e-21 1.01693e-06)
(1.50241e-06 1.70285e-07 -4.71344e-20 1.742e-06 -5.30766e-21 1.62388e-06)
(9.62414e-07 -1.53443e-08 -7.48745e-21 1.24387e-06 -5.9013e-22 1.10418e-06)
(7.37192e-07 3.73901e-08 -1.41938e-20 9.389e-07 -2.57764e-21 8.39308e-07)
(9.96379e-07 1.02096e-07 2.19813e-20 1.18842e-06 3.07307e-21 1.09253e-06)
(1.43237e-06 1.50484e-07 1.41003e-20 1.69861e-06 5.88227e-21 1.56705e-06)
(1.0645e-06 6.44016e-09 1.30216e-20 1.37759e-06 1.79347e-21 1.22195e-06)
(8.92106e-07 4.65533e-08 3.52744e-21 1.13501e-06 3.4812e-22 1.01464e-06)
(1.06168e-06 9.7421e-08 -2.79438e-20 1.29244e-06 -2.03003e-21 1.1771e-06)
(1.38942e-06 1.34087e-07 6.52488e-20 1.67752e-06 5.65062e-21 1.53499e-06)
(1.46334e-06 1.22274e-08 -8.86955e-21 1.89328e-06 -8.75908e-23 1.67908e-06)
(1.15958e-06 2.60118e-08 3.8584e-21 1.49634e-06 -1.39485e-21 1.32874e-06)
(1.0193e-06 5.52292e-08 -1.65575e-20 1.29494e-06 2.37821e-22 1.15804e-06)
(1.12625e-06 9.4099e-08 4.77326e-20 1.38822e-06 6.09991e-21 1.25722e-06)
(1.36408e-06 1.20699e-07 -9.22013e-21 1.6695e-06 -3.1958e-21 1.51829e-06)
(1.48827e-06 3.6489e-08 2.39949e-20 1.91926e-06 2.63983e-21 1.70441e-06)
(1.24037e-06 4.33629e-08 -3.89155e-20 1.59342e-06 -4.04836e-21 1.41755e-06)
(1.12067e-06 6.33166e-08 5.94949e-20 1.42121e-06 5.66383e-21 1.27174e-06)
(1.18274e-06 9.18854e-08 3.83868e-21 1.46898e-06 -3.14825e-21 1.32581e-06)
(1.34849e-06 1.099e-07 3.00619e-21 1.66695e-06 6.49077e-22 1.50922e-06)
(1.50942e-06 5.73022e-08 -6.73679e-21 1.9363e-06 -1.75966e-21 1.72339e-06)
(1.30429e-06 5.85702e-08 7.63312e-21 1.66699e-06 2.80309e-21 1.48618e-06)
(1.19844e-06 7.07455e-08 -3.30462e-20 1.51673e-06 -5.67769e-21 1.35827e-06)
(1.22792e-06 9.05846e-08 -5.46722e-20 1.53206e-06 -5.18421e-21 1.37989e-06)
(1.33711e-06 1.01339e-07 -1.75602e-21 1.66465e-06 -1.37048e-21 1.50239e-06)
(1.52281e-06 7.4828e-08 -9.51156e-21 1.94115e-06 -3.75556e-22 1.73242e-06)
(1.35065e-06 7.16478e-08 2.3007e-20 1.71713e-06 2.79787e-21 1.53433e-06)
(1.25468e-06 7.74371e-08 -6.38553e-21 1.58428e-06 9.44182e-22 1.42006e-06)
(1.26041e-06 8.99967e-08 2.01368e-20 1.57665e-06 4.08659e-21 1.41841e-06)
(1.32598e-06 9.46913e-08 -3.46756e-20 1.65887e-06 -2.56309e-21 1.49396e-06)
(1.52627e-06 8.92373e-08 1.53976e-20 1.93236e-06 2.00991e-21 1.72967e-06)
(1.3799e-06 8.26417e-08 1.89639e-20 1.74503e-06 1.21045e-21 1.56282e-06)
(1.29154e-06 8.33046e-08 1.82051e-20 1.62673e-06 1.56023e-21 1.45963e-06)
(1.2801e-06 8.9883e-08 5.68946e-21 1.60326e-06 6.85542e-22 1.44155e-06)
(1.31251e-06 8.95962e-08 3.36972e-20 1.64733e-06 4.97147e-21 1.48147e-06)
(1.5191e-06 1.00756e-07 2.41722e-21 1.90996e-06 -2.04269e-22 1.71481e-06)
(1.39327e-06 9.1644e-08 -5.29687e-21 1.75269e-06 -1.68163e-21 1.57325e-06)
(1.3112e-06 8.82909e-08 -2.12436e-20 1.64701e-06 -2.42862e-21 1.47952e-06)
(1.28761e-06 9.00595e-08 2.4611e-20 1.61308e-06 1.92443e-21 1.4502e-06)
(1.29521e-06 8.57561e-08 1.68801e-20 1.62884e-06 7.11713e-22 1.46357e-06)
(1.50156e-06 1.0964e-07 -1.04261e-21 1.8749e-06 -3.83715e-23 1.68845e-06)
(1.39239e-06 9.87885e-08 -2.32086e-20 1.74249e-06 -2.27921e-21 1.56765e-06)
(1.31589e-06 9.23962e-08 1.4772e-20 1.64805e-06 1.95219e-21 1.48233e-06)
(1.28397e-06 9.03757e-08 -1.80002e-20 1.60774e-06 -3.12111e-21 1.4457e-06)
(1.27335e-06 8.29126e-08 -6.37625e-21 1.60298e-06 -1.97532e-21 1.43971e-06)
(1.47434e-06 1.16128e-07 4.93861e-21 1.82846e-06 5.08623e-22 1.65157e-06)
(1.37897e-06 1.04184e-07 4.70184e-21 1.71684e-06 1.61341e-21 1.54806e-06)
(1.30767e-06 9.55871e-08 -8.85362e-21 1.63265e-06 -1.35774e-21 1.47046e-06)
(1.27043e-06 9.06777e-08 -2.02197e-20 1.58909e-06 -1.11566e-21 1.4296e-06)
(1.2468e-06 8.08112e-08 -3.7167e-20 1.56996e-06 -3.29759e-21 1.40991e-06)
(1.43852e-06 1.20476e-07 -4.72074e-21 1.7723e-06 -5.04849e-22 1.60554e-06)
(1.35477e-06 1.07964e-07 2.23905e-20 1.67817e-06 2.0063e-21 1.51658e-06)
(1.28845e-06 9.7872e-08 -1.44963e-21 1.60337e-06 -1.41934e-24 1.44616e-06)
(1.2482e-06 9.084e-08 2.28721e-20 1.55887e-06 3.13774e-21 1.40337e-06)
(1.21567e-06 7.92326e-08 2.34115e-20 1.53021e-06 2.6042e-21 1.37445e-06)
(1.39548e-06 1.2296e-07 7.33308e-21 1.7083e-06 1.19575e-21 1.55199e-06)
(1.32168e-06 1.10308e-07 -1.74815e-20 1.62897e-06 -2.91803e-21 1.4754e-06)
(1.26019e-06 9.93002e-08 -2.67972e-21 1.56277e-06 -1.0853e-22 1.4117e-06)
(1.21867e-06 9.07944e-08 8.49207e-21 1.51902e-06 9.3779e-22 1.36868e-06)
(1.18039e-06 7.80061e-08 -3.61608e-20 1.4845e-06 -4.34723e-21 1.33393e-06)
(1.3465e-06 1.23819e-07 1.41854e-20 1.63817e-06 1.35524e-21 1.49241e-06)
(1.28134e-06 1.11355e-07 -2.29105e-20 1.57141e-06 -2.20779e-21 1.42642e-06)
(1.2246e-06 9.99068e-08 6.33867e-21 1.51315e-06 4.82981e-22 1.36906e-06)
(1.18315e-06 9.04605e-08 2.42838e-20 1.47136e-06 2.68834e-21 1.32708e-06)
(1.14159e-06 7.69766e-08 3.86777e-21 1.43381e-06 9.97029e-22 1.28915e-06)
(1.29279e-06 1.2328e-07 -8.08787e-21 1.56344e-06 -1.05411e-21 1.42817e-06)
(1.23517e-06 1.11243e-07 1.02998e-21 1.50736e-06 7.67949e-22 1.37129e-06)
(1.18305e-06 9.97256e-08 -1.3474e-20 1.45637e-06 -1.67552e-21 1.31987e-06)
(1.14266e-06 8.97805e-08 8.89251e-21 1.41733e-06 6.67678e-24 1.27982e-06)
(1.09971e-06 7.60086e-08 -9.03638e-21 1.37885e-06 -1.3071e-21 1.24069e-06)
(1.23537e-06 1.21533e-07 8.12559e-21 1.48544e-06 1.02653e-21 1.36044e-06)
(1.18444e-06 1.101e-07 1.23123e-20 1.43848e-06 1.03873e-21 1.31147e-06)
(1.13682e-06 9.8803e-08 -8.36886e-22 1.39411e-06 6.74941e-22 1.26561e-06)
(1.0982e-06 8.87027e-08 -2.64473e-20 1.35832e-06 -3.52044e-21 1.22809e-06)
(1.05528e-06 7.49705e-08 -1.45186e-20 1.32046e-06 -1.36896e-21 1.18923e-06)
(1.17521e-06 1.18765e-07 -3.15954e-21 1.40535e-06 -5.70771e-22 1.29031e-06)
(1.13019e-06 1.08047e-07 -2.20437e-20 1.36612e-06 -2.83067e-21 1.24815e-06)
(1.08692e-06 9.71762e-08 2.9762e-20 1.32778e-06 3.63104e-21 1.20747e-06)
(1.05056e-06 8.71934e-08 -2.22801e-20 1.2955e-06 -1.55976e-21 1.17286e-06)
(1.00874e-06 7.37649e-08 5.63697e-21 1.25935e-06 7.72503e-22 1.13536e-06)
(1.154e-06 1.25027e-07 1.90554e-21 1.35639e-06 6.2098e-23 1.25521e-06)
(1.11299e-06 1.15115e-07 -4.47365e-21 1.32399e-06 -8.06253e-22 1.21852e-06)
(1.07326e-06 1.05188e-07 -4.67738e-21 1.29135e-06 2.92656e-22 1.18228e-06)
(1.03418e-06 9.48916e-08 1.27497e-20 1.25848e-06 7.23647e-22 1.14644e-06)
(1.0004e-06 8.52264e-08 2.95375e-20 1.2298e-06 4.08207e-21 1.11493e-06)
(9.60451e-07 7.23038e-08 -4.12435e-21 1.1961e-06 -6.81368e-22 1.07953e-06)
(1.08489e-06 1.19657e-07 -4.95983e-21 1.2683e-06 -4.66142e-22 1.1766e-06)
(1.04925e-06 1.10717e-07 -2.44227e-20 1.24202e-06 -2.76144e-21 1.14565e-06)
(1.01433e-06 1.01613e-07 3.46838e-20 1.21508e-06 3.90837e-21 1.11468e-06)
(9.79223e-07 9.19853e-08 -1.73752e-20 1.1871e-06 -2.0547e-21 1.08326e-06)
(9.48237e-07 8.27787e-08 2.26508e-20 1.16202e-06 2.08695e-21 1.05496e-06)
(9.10715e-07 7.0517e-08 -8.67747e-21 1.13122e-06 -8.36143e-22 1.02216e-06)
(1.01563e-06 1.13736e-07 1.3129e-20 1.1814e-06 1.68697e-21 1.09852e-06)
(9.84731e-07 1.05724e-07 5.81779e-21 1.16024e-06 9.48295e-22 1.0725e-06)
(9.54099e-07 9.74346e-08 -1.74713e-20 1.13815e-06 -2.47155e-21 1.0461e-06)
(9.22757e-07 8.85324e-08 1.15395e-20 1.11453e-06 1.46011e-21 1.01873e-06)
(8.94648e-07 7.98816e-08 -2.70539e-21 1.09292e-06 -7.35241e-22 9.93628e-07)
(8.59873e-07 6.83778e-08 6.66372e-21 1.06525e-06 8.78257e-22 9.63688e-07)
(9.46933e-07 1.07433e-07 3.72398e-21 1.09638e-06 1.55628e-22 1.02166e-06)
(9.2018e-07 1.00288e-07 -4.01591e-21 1.07948e-06 -3.74509e-22 9.99842e-07)
(8.93406e-07 9.2795e-08 4.32586e-21 1.06152e-06 8.08935e-22 9.77435e-07)
(8.65586e-07 8.46358e-08 -1.05837e-20 1.04178e-06 -1.19451e-21 9.53762e-07)
(8.4035e-07 7.65954e-08 -7.24762e-21 1.02345e-06 -8.53357e-22 9.31752e-07)
(8.08478e-07 6.59058e-08 -4.59171e-22 9.98924e-07 -3.88916e-23 9.04752e-07)
(8.79738e-07 1.00942e-07 -1.43215e-20 1.01418e-06 -1.71238e-21 9.46965e-07)
(8.5661e-07 9.45963e-08 1.62749e-20 1.00081e-06 2.19019e-21 9.28717e-07)
(8.33278e-07 8.78638e-08 6.96483e-21 9.86334e-07 6.16086e-22 9.09779e-07)
(8.0871e-07 8.04425e-08 1.65814e-20 9.69996e-07 1.94248e-21 8.89424e-07)
(7.86257e-07 7.30413e-08 -4.0686e-21 9.54692e-07 -3.05922e-22 8.70337e-07)
(7.57284e-07 6.31865e-08 9.03064e-21 9.3318e-07 8.53321e-22 8.46208e-07)
(8.1504e-07 9.44519e-08 6.73994e-21 9.35783e-07 9.37835e-22 8.75413e-07)
(7.95068e-07 8.88373e-08 1.79187e-20 9.25309e-07 1.92406e-21 8.60195e-07)
(7.74781e-07 8.28195e-08 -1.53258e-20 9.13756e-07 -1.74575e-21 8.44243e-07)
(7.53165e-07 7.61123e-08 -1.36839e-20 9.00347e-07 -2.05225e-21 8.2682e-07)
(7.33322e-07 6.93522e-08 5.78691e-21 8.87749e-07 6.8999e-22 8.1041e-07)
(7.07146e-07 6.03243e-08 -1.89348e-20 8.69048e-07 -2.07091e-21 7.88997e-07)
(7.53591e-07 8.81113e-08 -2.60414e-21 8.61896e-07 -6.05032e-22 8.07745e-07)
(7.36344e-07 8.31581e-08 -8.03112e-21 8.53776e-07 -9.34679e-22 7.95066e-07)
(7.1873e-07 7.78024e-08 1.69505e-20 8.44647e-07 2.1552e-21 7.81664e-07)
(6.99762e-07 7.17727e-08 -2.42878e-20 8.33735e-07 -2.71015e-21 7.66807e-07)
(6.82315e-07 6.56395e-08 -5.35678e-21 8.23508e-07 -7.06317e-22 7.52796e-07)
(6.58799e-07 5.74174e-08 2.47612e-20 8.07393e-07 2.90527e-21 7.33923e-07)
(6.95551e-07 8.19805e-08 -2.73676e-20 7.92606e-07 -3.26654e-21 7.44079e-07)
(6.80648e-07 7.76205e-08 2.26713e-20 7.86383e-07 2.649e-21 7.3352e-07)
(6.65365e-07 7.28701e-08 -4.56068e-21 7.79245e-07 -5.88916e-22 7.22282e-07)
(6.48769e-07 6.74757e-08 4.84844e-21 7.70454e-07 8.45929e-22 7.09664e-07)
(6.33499e-07 6.19454e-08 2.21664e-21 7.62276e-07 4.79647e-23 6.97782e-07)
(6.12503e-07 5.44998e-08 -1.88076e-20 7.4854e-07 -2.33286e-21 6.81282e-07)
(6.40475e-07 7.60357e-08 8.58604e-21 7.27348e-07 1.21591e-21 6.83912e-07)
(6.27569e-07 7.22013e-08 -2.38528e-20 7.22623e-07 -3.06899e-21 6.751e-07)
(6.14333e-07 6.8e-08 1.5433e-20 7.1713e-07 1.95162e-21 6.65711e-07)
(5.99865e-07 6.3194e-08 5.67397e-21 7.10149e-07 5.51101e-22 6.55055e-07)
(5.8657e-07 5.82299e-08 -2.7614e-20 7.03743e-07 -3.35987e-21 6.45059e-07)
(5.6799e-07 5.1527e-08 1.24727e-20 6.92221e-07 1.68484e-21 6.30798e-07)
(5.98296e-07 7.32181e-08 2.99579e-22 6.67919e-07 -1.40621e-22 6.3311e-07)
(5.87479e-07 7.01864e-08 -5.64557e-21 6.65086e-07 -6.83675e-22 6.26283e-07)
(5.76307e-07 6.68188e-08 4.17579e-21 6.61564e-07 7.54528e-22 6.18937e-07)
(5.64865e-07 6.3109e-08 5.0122e-21 6.5743e-07 4.7293e-22 6.11131e-07)
(5.52323e-07 5.88418e-08 -1.18712e-20 6.52005e-07 -1.3454e-21 6.02209e-07)
(5.40847e-07 5.44044e-08 -5.48074e-21 6.47164e-07 -5.63066e-22 5.93921e-07)
(5.24587e-07 4.8408e-08 6.84346e-21 6.37696e-07 6.5332e-22 5.8177e-07)
(5.45331e-07 6.70336e-08 -2.67284e-20 6.07059e-07 -3.32806e-21 5.76196e-07)
(5.35938e-07 6.43783e-08 9.75119e-21 6.05061e-07 1.37796e-21 5.70499e-07)
(5.26303e-07 6.14223e-08 8.41315e-21 6.0255e-07 9.09979e-22 5.64426e-07)
(5.16451e-07 5.81504e-08 -2.85203e-21 5.99549e-07 -4.88895e-22 5.57983e-07)
(5.05661e-07 5.4371e-08 1.67929e-20 5.95479e-07 2.23351e-21 5.50607e-07)
(4.95877e-07 5.04156e-08 -1.72691e-20 5.92045e-07 -1.76411e-21 5.43886e-07)
(4.81815e-07 4.50789e-08 -9.01764e-21 5.84453e-07 -1.21549e-21 5.33688e-07)
(4.93965e-07 6.09569e-08 -7.12605e-22 5.48472e-07 1.14973e-22 5.21223e-07)
(4.8581e-07 5.86302e-08 1.88122e-20 5.47142e-07 2.26573e-21 5.1648e-07)
(4.77504e-07 5.60343e-08 -1.47196e-20 5.45439e-07 -1.88671e-21 5.11476e-07)
(4.69065e-07 5.3151e-08 -1.70581e-20 5.43389e-07 -2.07601e-21 5.06218e-07)
(4.59856e-07 4.98107e-08 1.37244e-20 5.40485e-07 1.69788e-21 5.00206e-07)
(4.51635e-07 4.62907e-08 3.60312e-20 5.38313e-07 4.45599e-21 4.94921e-07)
(4.39604e-07 4.15617e-08 -1.2432e-20 5.32376e-07 -1.62953e-21 4.86476e-07)
(4.44826e-07 5.5081e-08 6.61658e-21 4.92781e-07 7.68951e-22 4.68798e-07)
(4.37746e-07 5.30401e-08 -8.46233e-22 4.91981e-07 -1.27908e-22 4.64858e-07)
(4.30603e-07 5.07588e-08 -1.55567e-21 4.90938e-07 -7.9529e-23 4.60765e-07)
(4.23405e-07 4.82168e-08 -8.5533e-22 4.89679e-07 -4.58712e-23 4.56527e-07)
(4.15599e-07 4.52664e-08 2.40712e-20 4.87755e-07 2.77785e-21 4.51697e-07)
(4.08798e-07 4.21351e-08 -3.94062e-21 4.86698e-07 -7.02018e-22 4.47705e-07)
(3.98582e-07 3.7951e-08 -3.35281e-20 4.82165e-07 -3.95136e-21 4.40773e-07)
(3.98677e-07 4.95314e-08 -1.37135e-20 4.40648e-07 -1.71717e-21 4.19671e-07)
(3.92515e-07 4.77393e-08 1.64724e-20 4.40259e-07 2.01365e-21 4.16397e-07)
(3.86366e-07 4.57339e-08 4.1992e-21 4.39732e-07 6.38457e-22 4.13057e-07)
(3.80241e-07 4.3493e-08 -8.97831e-21 4.39112e-07 -1.21064e-21 4.09676e-07)
(3.73644e-07 4.08874e-08 -1.18128e-20 4.37979e-07 -1.44622e-21 4.05838e-07)
(3.6806e-07 3.80984e-08 4.26906e-21 4.37829e-07 4.61933e-22 4.02937e-07)
(3.59368e-07 3.43915e-08 3.25844e-21 4.34399e-07 7.39053e-22 3.97229e-07)
(3.56818e-07 4.44683e-08 5.95523e-21 3.93507e-07 7.19142e-22 3.75153e-07)
(3.51416e-07 4.28897e-08 -9.51511e-21 3.93405e-07 -1.26359e-21 3.72405e-07)
(3.46098e-07 4.11222e-08 2.44844e-20 3.9326e-07 2.93567e-21 3.69672e-07)
(3.40906e-07 3.91494e-08 -1.95136e-20 3.93154e-07 -2.35544e-21 3.67016e-07)
(3.35393e-07 3.68555e-08 2.73524e-20 3.92704e-07 3.36909e-21 3.64053e-07)
(3.30906e-07 3.43869e-08 -1.49191e-20 3.93324e-07 -1.88724e-21 3.62103e-07)
(3.23675e-07 3.11229e-08 3.03674e-20 3.9097e-07 3.70248e-21 3.57585e-07)
(3.21871e-07 4.01948e-08 -1.55475e-20 3.54451e-07 -2.09261e-21 3.38153e-07)
(3.16959e-07 3.87634e-08 -3.89446e-22 3.54442e-07 -1.0465e-23 3.35691e-07)
(3.12183e-07 3.716e-08 -1.08198e-20 3.54466e-07 -1.39011e-21 3.33312e-07)
(3.07598e-07 3.53669e-08 -6.33071e-22 3.54627e-07 3.98339e-23 3.31099e-07)
(3.02805e-07 3.32827e-08 -4.72255e-21 3.54567e-07 -8.12783e-22 3.28682e-07)
(2.99071e-07 3.10235e-08 -7.80517e-21 3.55678e-07 -8.43602e-22 3.27367e-07)
(2.93081e-07 2.8098e-08 1.08663e-20 3.54235e-07 1.03694e-21 3.23848e-07)
(2.93784e-07 3.67615e-08 -2.25356e-20 3.23019e-07 -2.73115e-21 3.0841e-07)
(2.89156e-07 3.54367e-08 -3.45897e-21 3.22966e-07 -3.6567e-22 3.06067e-07)
(2.84704e-07 3.39542e-08 1.3067e-20 3.22997e-07 1.6586e-21 3.03854e-07)
(2.80457e-07 3.22918e-08 1.78676e-23 3.23197e-07 -5.00982e-23 3.01832e-07)
(2.76062e-07 3.03608e-08 -1.13394e-20 3.2323e-07 -1.48241e-21 2.99656e-07)
(2.72736e-07 2.82554e-08 1.121e-21 3.2449e-07 4.83731e-22 2.98635e-07)
(2.67493e-07 2.55869e-08 -1.70423e-20 3.23463e-07 -2.30112e-21 2.95645e-07)
(2.68627e-07 3.3697e-08 3.22527e-21 2.94744e-07 5.65435e-22 2.81688e-07)
(2.64205e-07 3.247e-08 9.87549e-21 2.9458e-07 1.23377e-21 2.79397e-07)
(2.5997e-07 3.10953e-08 -7.68273e-21 2.94525e-07 -1.02323e-21 2.77256e-07)
(2.55963e-07 2.9556e-08 -1.08357e-20 2.9466e-07 -1.42812e-21 2.75322e-07)
(2.51858e-07 2.77669e-08 -2.06079e-20 2.94689e-07 -2.3528e-21 2.73287e-07)
(2.48814e-07 2.58126e-08 4.37275e-20 2.95951e-07 5.24645e-21 2.72407e-07)
(2.44156e-07 2.33719e-08 -2.91798e-20 2.95218e-07 -3.30487e-21 2.69805e-07)
(2.44357e-07 3.07353e-08 9.22695e-21 2.67462e-07 1.16903e-21 2.55898e-07)
(2.40141e-07 2.96024e-08 -3.2159e-21 2.67206e-07 -4.76606e-22 2.53656e-07)
(2.36116e-07 2.83299e-08 2.95594e-21 2.67078e-07 3.8453e-22 2.51579e-07)
(2.32346e-07 2.69066e-08 -1.69839e-20 2.67172e-07 -2.11018e-21 2.49741e-07)
(2.28516e-07 2.52502e-08 2.5735e-20 2.67201e-07 3.2523e-21 2.47843e-07)
(2.25712e-07 2.34356e-08 -2.51482e-20 2.68429e-07 -3.21653e-21 2.47072e-07)
(2.21568e-07 2.12147e-08 3.46395e-20 2.67904e-07 4.33379e-21 2.44816e-07)
(2.24593e-07 2.87304e-08 1.25426e-20 2.40928e-07 1.59757e-21 2.32809e-07)
(2.20148e-07 2.77857e-08 6.43553e-21 2.40192e-07 8.05793e-22 2.30222e-07)
(2.15967e-07 2.67311e-08 -5.53573e-21 2.39647e-07 -7.29569e-22 2.27856e-07)
(2.12057e-07 2.55547e-08 -4.99164e-21 2.39332e-07 -6.76858e-22 2.25739e-07)
(2.08475e-07 2.42413e-08 -1.10566e-20 2.39343e-07 -1.26893e-21 2.23946e-07)
(2.04981e-07 2.27198e-08 -1.09933e-20 2.39467e-07 -1.41248e-21 2.2224e-07)
(2.02661e-07 2.10653e-08 2.84511e-20 2.40964e-07 3.63965e-21 2.21808e-07)
(1.9986e-07 1.91075e-08 -1.59857e-20 2.41714e-07 -2.08141e-21 2.2075e-07)
(2.00041e-07 2.56336e-08 -6.30961e-21 2.13948e-07 -7.75504e-22 2.06889e-07)
(1.95232e-07 2.46928e-08 1.06381e-20 2.1252e-07 1.2424e-21 2.0379e-07)
(1.90656e-07 2.36462e-08 -1.10373e-20 2.11241e-07 -1.2796e-21 2.00893e-07)
(1.86349e-07 2.24891e-08 -9.77709e-21 2.10162e-07 -1.27186e-21 1.98236e-07)
(1.8236e-07 2.12034e-08 9.08392e-21 2.0939e-07 1.09766e-21 1.95903e-07)
(1.78511e-07 1.97311e-08 1.8137e-20 2.08758e-07 2.43885e-21 1.93717e-07)
(1.75298e-07 1.80368e-08 -3.30382e-21 2.08971e-07 -6.33561e-22 1.92341e-07)
(1.71416e-07 1.61371e-08 8.34363e-21 2.0792e-07 1.14794e-21 1.90014e-07)
(1.69253e-07 2.17924e-08 2.03977e-20 1.7955e-07 2.60397e-21 1.74489e-07)
(1.64381e-07 2.09065e-08 -2.398e-20 1.77895e-07 -3.12512e-21 1.71135e-07)
(1.59969e-07 1.99249e-08 2.78126e-20 1.76689e-07 3.57684e-21 1.68228e-07)
(1.56053e-07 1.8834e-08 -2.19485e-20 1.75981e-07 -2.73925e-21 1.65812e-07)
(1.52767e-07 1.76221e-08 -2.51945e-20 1.75936e-07 -3.22459e-21 1.64036e-07)
(1.50165e-07 1.62621e-08 3.62263e-20 1.76598e-07 4.58253e-21 1.62896e-07)
(1.49949e-07 1.49242e-08 -2.25096e-20 1.7988e-07 -2.8596e-21 1.64167e-07)
(1.51586e-07 1.35053e-08 1.77437e-20 1.85151e-07 2.18003e-21 1.6718e-07)
(1.2613e-07 1.63243e-08 3.05015e-21 1.32138e-07 2.93027e-22 1.29592e-07)
(1.18519e-07 1.52153e-08 -2.13242e-20 1.26814e-07 -2.64926e-21 1.23352e-07)
(1.11505e-07 1.40608e-08 1.38908e-20 1.2201e-07 1.62953e-21 1.17665e-07)
(1.05213e-07 1.28551e-08 -3.74312e-21 1.17904e-07 -3.25093e-22 1.12683e-07)
(9.96133e-08 1.15364e-08 -1.54361e-20 1.14577e-07 -1.83903e-21 1.0847e-07)
(9.46454e-08 1.00004e-08 4.0873e-20 1.11996e-07 4.95535e-21 1.05038e-07)
(9.00109e-08 7.7368e-09 -2.12431e-20 1.10234e-07 -2.48083e-21 1.02615e-07)
(8.48292e-08 5.54768e-09 4.29385e-21 1.06148e-07 3.68735e-22 9.85664e-08)
(1.01225e-07 1.2621e-08 -1.06609e-20 1.075e-07 -1.32909e-21 1.0162e-07)
(9.77992e-08 1.1697e-08 -1.08155e-20 1.07543e-07 -1.29797e-21 9.95179e-08)
(9.57131e-08 1.0631e-08 -1.74974e-20 1.08899e-07 -2.27317e-21 9.87829e-08)
(9.51401e-08 9.42467e-09 3.01031e-20 1.11673e-07 3.7624e-21 9.95249e-08)
(9.67658e-08 8.17442e-09 5.04187e-21 1.16512e-07 6.83855e-22 1.02333e-07)
(1.01164e-07 7.03366e-09 -9.76615e-21 1.23686e-07 -1.32243e-21 1.07299e-07)
(1.13283e-07 6.94621e-09 2.53902e-20 1.38694e-07 3.18631e-21 1.19387e-07)
(1.30736e-07 6.80014e-09 -3.82801e-20 1.60738e-07 -4.74871e-21 1.37562e-07)
(1.22083e-07 4.57486e-09 1.41024e-20 1.01348e-07 1.77367e-21 1.21166e-07)
(1.20917e-07 3.94731e-09 4.75571e-21 1.00913e-07 6.47749e-22 1.20904e-07)
(1.19585e-07 3.40949e-09 -2.08748e-20 1.00421e-07 -2.57223e-21 1.2045e-07)
(1.17786e-07 2.86765e-09 -1.43031e-20 9.97879e-08 -1.89013e-21 1.19717e-07)
(1.15805e-07 2.02287e-09 5.48967e-21 9.96405e-08 7.70536e-22 1.19396e-07)
(1.17048e-07 3.98595e-10 6.55012e-21 1.04013e-07 7.28545e-22 1.23779e-07)
(1.34218e-07 -3.86026e-09 -1.52678e-20 1.25667e-07 -1.93507e-21 1.46364e-07)
(1.56006e-07 -7.70241e-09 6.67915e-22 1.46901e-07 1.00196e-22 1.69611e-07)