/*--------------------------------*- C++ -*----------------------------------*\
| =========                 |                                                 |
| \\      /  F ield         | OpenFOAM: The Open Source CFD Toolbox           |
|  \\    /   O peration     | Version:  2306                                  |
|   \\  /    A nd           | Website:  www.openfoam.com                      |
|    \\/     M anipulation  |                                                 |
\*---------------------------------------------------------------------------*/
FoamFile
{
    version     2.0;
    format      ascii;
    arch        "LSB;label=32;scalar=64";
    class       volSymmTensorField;
    location    "225";
    object      turbulenceProperties:devReff;
}
// * * * * * * * * * * * * * * * * * * * * * * * * * * * * * * * * * * * * * //

dimensions      [0 2 -2 0 0 0 0];

internalField   nonuniform List<symmTensor> 
1340
(
(-3.54003 14.0205 1.02518e-15 3.50476 1.64634e-16 0.0352675)
(-3.77753 13.296 1.45125e-15 3.74544 2.67182e-16 0.03209)
(-3.92108 12.4765 -2.90666e-16 3.89108 -3.64851e-17 0.0300044)
(-3.64119 10.0696 -4.55596e-15 3.63466 -7.83867e-16 0.00653594)
(-0.108581 0.416237 -4.91386e-16 0.133752 -8.6424e-17 -0.0251711)
(-0.12894 0.456933 -1.22602e-15 0.151739 -5.17065e-16 -0.0227986)
(-0.14751 0.55345 -2.52778e-15 0.174383 -2.40853e-18 -0.0268732)
(-0.207976 0.778272 -2.04289e-15 0.197592 1.36483e-15 0.0103838)
(-0.0113589 0.0932497 2.16011e-16 0.0108607 -1.76359e-17 0.000498224)
(-0.0190982 0.12791 -1.17495e-15 0.0190528 2.1265e-16 4.54133e-05)
(-0.00959209 0.154409 2.9509e-15 0.0104224 5.33916e-16 -0.000830336)
(-0.0374165 0.261887 4.64128e-15 0.029381 9.52004e-16 0.00803549)
(0.000886681 0.00335997 -1.7439e-16 -0.000944928 -2.66406e-17 5.82463e-05)
(0.00157965 0.0112745 7.44577e-16 -0.00205843 1.10162e-16 0.000478781)
(0.00676243 0.0280735 -4.87767e-16 -0.00725461 -1.69199e-16 0.000492178)
(-0.00280593 0.104894 -3.29525e-16 -0.00199558 -1.41662e-15 0.00480151)
(0.000110746 -9.00357e-05 -1.76624e-18 -0.000128537 7.05501e-19 1.77916e-05)
(0.000368888 -0.000131435 -1.80245e-17 -0.000398499 -1.50479e-17 2.96112e-05)
(0.000949148 0.000217987 5.66378e-17 -0.000927126 4.03124e-18 -2.20227e-05)
(0.00385721 0.0198704 -2.9186e-16 -0.00524157 5.28089e-17 0.00138435)
(9.15476e-06 -1.26206e-05 1.39718e-18 -3.51498e-06 1.24375e-19 -5.63977e-06)
(6.51299e-05 -3.4969e-05 -1.22185e-17 -4.84213e-05 -2.36667e-19 -1.67087e-05)
(0.000232684 -2.43038e-05 -1.65968e-17 -0.000203138 -5.4105e-18 -2.95454e-05)
(0.000996924 0.00209581 7.02116e-18 -0.00116716 4.83892e-17 0.000170238)
(3.55863e-06 -2.09282e-06 -2.09555e-19 -4.40488e-06 -2.64208e-20 8.46252e-07)
(3.91579e-06 -1.12457e-06 3.42388e-19 -4.64319e-06 8.96208e-20 7.27397e-07)
(5.51345e-06 -8.96944e-08 5.11047e-21 -5.83094e-06 7.69037e-20 3.17492e-07)
(0.000277772 0.000402055 2.25041e-17 -0.00034231 1.9926e-18 6.45376e-05)
(2.99985e-06 -3.25279e-06 3.22529e-19 -2.16339e-06 5.72767e-20 -8.36464e-07)
(3.44376e-06 -1.54223e-06 -1.3641e-19 -2.91948e-06 -5.83563e-20 -5.24279e-07)
(4.3823e-06 8.65395e-08 2.84122e-20 -3.92797e-06 6.76467e-21 -4.54336e-07)
(3.94907e-06 6.2582e-06 4.32954e-21 -4.52849e-06 -1.23526e-19 5.7942e-07)
(4.36897e-06 -3.08123e-06 -1.31607e-20 -4.76061e-06 -1.4811e-20 3.91641e-07)
(5.41653e-06 -1.5592e-06 8.79132e-20 -5.8771e-06 9.61228e-20 4.60568e-07)
(6.69176e-06 4.94229e-07 6.53964e-20 -6.74075e-06 -6.71663e-20 4.89923e-08)
(3.78541e-06 5.972e-06 -3.4081e-20 -4.49767e-06 3.65133e-20 7.1226e-07)
(3.59766e-06 -3.09046e-06 1.04161e-19 -3.36283e-06 1.37793e-20 -2.34827e-07)
(4.44514e-06 -1.46326e-06 5.86269e-19 -4.35482e-06 1.99274e-21 -9.03222e-08)
(7.61852e-06 6.8878e-07 -5.39092e-19 -7.30218e-06 4.85028e-20 -3.1635e-07)
(3.62202e-06 5.94728e-06 1.48963e-19 -4.22071e-06 6.99916e-20 5.98686e-07)
(3.71851e-06 -2.88524e-06 1.09335e-20 -3.7685e-06 -2.18455e-20 4.99864e-08)
(4.49182e-06 -1.2668e-06 -6.68373e-19 -4.62835e-06 -1.05193e-19 1.3653e-07)
(6.57239e-06 7.93673e-07 7.59583e-19 -6.45146e-06 1.16797e-19 -1.20936e-07)
(4.44773e-06 7.38174e-06 2.80857e-19 -5.17626e-06 -1.06804e-19 7.28528e-07)
(3.43243e-06 -2.77466e-06 -2.49297e-19 -3.36608e-06 -1.1644e-20 -6.63554e-08)
(4.26005e-06 -1.17842e-06 4.2428e-19 -4.30168e-06 6.24682e-20 4.16241e-08)
(5.69356e-06 8.4525e-07 -3.77602e-19 -5.55015e-06 -1.6853e-19 -1.43412e-07)
(4.51644e-06 7.63302e-06 -4.75145e-19 -5.22152e-06 -2.66395e-19 7.05079e-07)
(3.31325e-06 -2.62678e-06 2.87772e-19 -3.30122e-06 3.53535e-20 -1.20301e-08)
(4.1068e-06 -1.05411e-06 -5.92487e-19 -4.18438e-06 -7.87498e-20 7.75869e-08)
(5.21982e-06 9.24227e-07 -3.97786e-20 -5.11448e-06 6.36211e-20 -1.05339e-07)
(4.08952e-06 7.0262e-06 -7.57993e-19 -4.7055e-06 8.37456e-20 6.15976e-07)
(3.12131e-06 -2.50051e-06 -2.11332e-19 -3.09222e-06 -3.93328e-20 -2.90885e-08)
(3.87595e-06 -9.49789e-07 3.87277e-19 -3.93414e-06 1.19754e-19 5.81895e-08)
(4.8019e-06 9.87744e-07 6.08421e-20 -4.70528e-06 5.2357e-20 -9.6624e-08)
(3.63796e-06 6.37618e-06 4.44436e-19 -4.16101e-06 1.52119e-19 5.23052e-07)
(2.9516e-06 -2.36666e-06 4.40531e-20 -2.93409e-06 1.95736e-20 -1.75103e-08)
(3.65915e-06 -8.48393e-07 1.68078e-19 -3.71953e-06 -3.71009e-20 6.03806e-08)
(4.40801e-06 1.03372e-06 3.19041e-19 -4.32923e-06 -2.07515e-20 -7.87847e-08)
(3.23716e-06 5.79444e-06 -2.18217e-19 -3.6819e-06 -1.40083e-19 4.4474e-07)
(2.76523e-06 -2.23567e-06 2.96477e-20 -2.74785e-06 1.33884e-23 -1.73834e-08)
(3.42951e-06 -7.58058e-07 -2.45499e-19 -3.48317e-06 -3.37424e-20 5.36643e-08)
(4.02177e-06 1.06081e-06 -4.20601e-19 -3.9553e-06 -1.09041e-19 -6.64698e-08)
(2.87014e-06 5.26266e-06 -2.48966e-19 -3.24563e-06 9.3325e-20 3.75495e-07)
(2.57847e-06 -2.10415e-06 -1.16199e-20 -2.5653e-06 3.88107e-21 -1.31629e-08)
(3.19898e-06 -6.75548e-07 1.32402e-19 -3.24868e-06 4.96504e-21 4.9701e-08)
(3.6534e-06 1.07152e-06 -1.72673e-19 -3.59942e-06 5.74028e-20 -5.39765e-08)
(2.5306e-06 4.76648e-06 5.95525e-19 -2.84538e-06 4.41236e-20 3.14778e-07)
(2.38655e-06 -1.9741e-06 1.08902e-19 -2.37573e-06 -6.71087e-21 -1.08168e-08)
(2.96467e-06 -6.01037e-07 -3.8769e-19 -3.00937e-06 -4.88955e-20 4.46999e-08)
(3.30243e-06 1.06787e-06 2.56805e-19 -3.25924e-06 6.97624e-20 -4.31878e-08)
(2.21563e-06 4.30435e-06 -4.57137e-19 -2.47664e-06 -4.37603e-20 2.61011e-07)
(2.1927e-06 -1.84515e-06 -3.02131e-19 -2.18456e-06 -3.04747e-20 -8.14208e-09)
(2.72945e-06 -5.33689e-07 9.33273e-20 -2.76958e-06 6.50204e-20 4.0136e-08)
(2.96925e-06 1.05065e-06 1.91669e-19 -2.93519e-06 -2.48643e-20 -3.40534e-08)
(1.92485e-06 3.87467e-06 7.41235e-19 -2.13856e-06 9.22543e-20 2.13705e-07)
(1.99733e-06 -1.71801e-06 1.53068e-19 -1.99134e-06 3.24395e-20 -5.9886e-09)
(2.49427e-06 -4.73143e-07 3.0126e-19 -2.52981e-06 9.84198e-21 3.55419e-08)
(2.65435e-06 1.02197e-06 -1.85913e-19 -2.62844e-06 -5.08013e-20 -2.59029e-08)
(1.65866e-06 3.47807e-06 -4.44924e-19 -1.83233e-06 -1.29546e-19 1.73673e-07)
(1.80192e-06 -1.59266e-06 -4.12593e-20 -1.79787e-06 -1.28701e-20 -4.05017e-09)
(2.26075e-06 -4.18427e-07 -2.29833e-19 -2.29189e-06 -4.54502e-20 3.11334e-08)
(2.35686e-06 9.83962e-07 -1.0936e-19 -2.33762e-06 1.82167e-20 -1.92401e-08)
(1.41505e-06 3.11284e-06 8.4568e-20 -1.55428e-06 6.04079e-20 1.39233e-07)
(1.60773e-06 -1.46929e-06 1.2193e-20 -1.60536e-06 9.29797e-21 -2.36658e-09)
(2.03058e-06 -3.68898e-07 3.51964e-20 -2.05769e-06 2.14469e-20 2.71095e-08)
(2.07714e-06 9.37893e-07 1.29481e-19 -2.0635e-06 3.83535e-20 -1.36471e-08)
(1.19329e-06 2.77796e-06 5.03756e-21 -1.30357e-06 -2.13837e-20 1.10279e-07)
(1.41608e-06 -1.34845e-06 8.64201e-20 -1.41511e-06 4.44011e-21 -9.63391e-10)
(1.80507e-06 -3.23932e-07 8.28024e-21 -1.82841e-06 -6.2963e-21 2.3338e-08)
(1.81465e-06 8.86242e-07 1.752e-19 -1.80555e-06 -1.92304e-20 -9.09566e-09)
(9.92225e-07 2.47247e-06 -1.25452e-19 -1.07861e-06 -6.40275e-21 8.63879e-08)
(1.22838e-06 -1.23045e-06 -6.88249e-20 -1.22856e-06 -9.33247e-21 1.80956e-10)
(1.58585e-06 -2.8316e-07 -6.21751e-20 -1.60582e-06 2.12423e-21 1.99751e-08)
(1.5691e-06 8.29797e-07 -3.44931e-19 -1.56342e-06 -4.18724e-20 -5.68125e-09)
(8.10364e-07 2.19399e-06 7.04505e-20 -8.76979e-07 2.4866e-20 6.66155e-08)
(1.04591e-06 -1.11531e-06 4.92693e-20 -1.04697e-06 1.65387e-21 1.06369e-09)
(1.37412e-06 -2.45607e-07 1.37771e-19 -1.39108e-06 1.94026e-20 1.69627e-08)
(1.34024e-06 7.70972e-07 1.29104e-19 -1.33723e-06 5.78757e-20 -3.01849e-09)
(6.46693e-07 1.94154e-06 7.39169e-20 -6.97571e-07 9.95171e-21 5.08777e-08)
(8.70019e-07 -1.0032e-06 -1.27775e-19 -8.71775e-07 -9.95764e-21 1.7556e-09)
(1.17116e-06 -2.10743e-07 -6.17464e-21 -1.18547e-06 -4.41822e-21 1.43077e-08)
(1.12763e-06 7.1122e-07 2.31964e-19 -1.1265e-06 2.57075e-21 -1.1297e-09)
(4.9949e-07 1.71333e-06 1.19154e-19 -5.37766e-07 -1.36009e-20 3.82767e-08)
(7.01935e-07 -8.94468e-07 1.09754e-19 -7.04197e-07 1.86247e-20 2.26151e-09)
(9.78179e-07 -1.78002e-07 8.89271e-20 -9.90207e-07 8.11199e-21 1.20275e-08)
(9.30938e-07 6.51991e-07 -1.75657e-19 -9.31119e-07 -2.60767e-20 1.81096e-10)
(3.67621e-07 1.50796e-06 -2.81923e-19 -3.96172e-07 -2.52024e-20 2.85514e-08)
(5.42799e-07 -7.89403e-07 5.94275e-21 -5.45413e-07 -5.72027e-21 2.6135e-09)
(7.96092e-07 -1.47116e-07 -2.86946e-20 -8.06157e-07 -1.32621e-20 1.00645e-08)
(7.49735e-07 5.94419e-07 1.29008e-19 -7.50699e-07 1.35554e-20 9.63855e-10)
(2.49645e-07 1.32369e-06 1.84152e-19 -2.70701e-07 2.41475e-20 2.10564e-08)
(3.93631e-07 -6.88155e-07 -7.75555e-21 -3.96426e-07 -2.43792e-21 2.79549e-09)
(6.25818e-07 -1.17464e-07 -8.50575e-20 -6.34216e-07 -1.0559e-20 8.39769e-09)
(5.83677e-07 5.39645e-07 -1.8978e-19 -5.85056e-07 -2.26509e-20 1.37892e-09)
(1.44419e-07 1.15905e-06 -2.27746e-19 -1.59866e-07 -3.67494e-20 1.54472e-08)
(2.55345e-07 -5.90888e-07 -2.47664e-20 -2.58218e-07 -3.45719e-21 2.8736e-09)
(4.68033e-07 -8.87234e-08 -5.9486e-20 -4.75105e-07 -2.31608e-21 7.0724e-09)
(4.32326e-07 4.88622e-07 9.21479e-20 -4.33842e-07 2.1862e-20 1.51594e-09)
(5.07598e-08 1.01273e-06 -2.14759e-20 -6.20681e-08 2.4941e-20 1.13083e-08)
(1.28598e-07 -4.97777e-07 -2.44293e-20 -1.3144e-07 -2.69656e-21 2.84285e-09)
(3.23114e-07 -6.06138e-08 -1.54933e-20 -3.29019e-07 5.55196e-21 5.90524e-09)
(2.95291e-07 4.42109e-07 8.34558e-21 -2.96788e-07 -2.9341e-21 1.49746e-09)
(-3.23521e-08 8.83395e-07 2.19989e-19 2.40161e-08 3.5114e-20 8.33597e-09)
(1.39787e-08 -4.0908e-07 -3.37219e-20 -1.67478e-08 -2.84909e-21 2.76907e-09)
(1.91517e-07 -3.29164e-08 8.07077e-20 -1.96481e-07 7.80266e-21 4.96394e-09)
(1.72064e-07 4.0055e-07 3.23554e-20 -1.7338e-07 -1.51257e-21 1.31605e-09)
(-1.05872e-07 7.69856e-07 2.20046e-19 9.96262e-08 1.39456e-22 6.24604e-09)
(-8.81701e-08 -3.25122e-07 -1.00073e-20 8.55256e-08 3.13911e-21 2.6445e-09)
(7.33739e-08 -5.6563e-09 -2.60067e-20 -7.75684e-08 -4.96419e-21 4.19445e-09)
(6.22443e-08 3.64118e-07 -7.73324e-20 -6.33353e-08 -9.5985e-21 1.09099e-09)
(-1.7054e-07 6.70847e-07 -1.91879e-19 1.65706e-07 -3.72585e-20 4.83358e-09)
(-1.77754e-07 -2.46088e-07 6.14684e-20 1.75267e-07 6.24319e-21 2.4864e-09)
(-3.13301e-08 2.12318e-08 3.60726e-20 2.77745e-08 -3.97393e-22 3.55556e-09)
(-3.46876e-08 3.32967e-07 5.41658e-22 3.38409e-08 8.64405e-21 8.4671e-10)
(-2.27019e-07 5.85196e-07 -1.38387e-19 2.23131e-07 -1.44722e-21 3.88813e-09)
(-2.54794e-07 -1.72151e-07 -1.30533e-20 2.52525e-07 -3.03415e-21 2.26937e-09)
(-1.22783e-07 4.7695e-08 -1.23225e-19 1.19754e-07 -1.11519e-20 3.0282e-09)
(-1.1925e-07 3.07022e-07 9.42377e-20 1.18634e-07 4.32901e-21 6.1666e-10)
(-2.75907e-07 5.11784e-07 6.62732e-20 2.72606e-07 7.79355e-21 3.30077e-09)
(-3.19551e-07 -1.03554e-07 2.10084e-20 3.17498e-07 1.88665e-21 2.05295e-09)
(-2.01307e-07 7.36037e-08 7.86812e-20 1.98722e-07 1.19628e-20 2.58474e-09)
(-1.92028e-07 2.86e-07 -1.15966e-19 1.91629e-07 -1.35752e-20 3.98849e-10)
(-3.17697e-07 4.49508e-07 -1.24423e-19 3.14754e-07 -1.40109e-20 2.9434e-09)
(-3.7245e-07 -4.05111e-08 -1.97679e-20 3.70631e-07 -1.55802e-21 1.81917e-09)
(-2.6737e-07 9.87116e-08 -3.74724e-20 2.65149e-07 -6.80508e-21 2.22102e-09)
(-2.53604e-07 2.69533e-07 5.80304e-20 2.53376e-07 8.11289e-21 2.27705e-10)
(-3.52792e-07 3.97254e-07 3.72226e-20 3.50036e-07 1.55282e-20 2.75517e-09)
(-4.14113e-07 1.70038e-08 3.43805e-20 4.12526e-07 4.73524e-21 1.58713e-09)
(-3.21612e-07 1.22909e-07 9.31306e-21 3.19702e-07 9.191e-22 1.91065e-09)
(-3.04654e-07 2.57203e-07 -7.37749e-20 3.04571e-07 -5.35952e-21 8.29735e-11)
(-3.81613e-07 3.53984e-07 1.72254e-19 3.78949e-07 1.49174e-20 2.6644e-09)
(-5.68304e-07 3.22867e-08 -2.34201e-20 5.66957e-07 -2.31285e-22 1.34732e-09)
(-4.45285e-07 6.86823e-08 1.01878e-20 4.4392e-07 -3.68299e-21 1.36461e-09)
(-3.64701e-07 1.45823e-07 -4.37173e-20 3.63079e-07 6.27927e-22 1.62125e-09)
(-3.45828e-07 2.48447e-07 1.26027e-19 3.45855e-07 1.61054e-20 -2.67402e-11)
(-4.04485e-07 3.18655e-07 -2.4342e-20 4.01846e-07 -8.43719e-21 2.63973e-09)
(-5.6963e-07 9.63562e-08 6.3363e-20 5.685e-07 6.97096e-21 1.13034e-09)
(-4.6671e-07 1.14505e-07 -1.0276e-19 4.65564e-07 -1.06901e-20 1.14575e-09)
(-3.97486e-07 1.67188e-07 1.57097e-19 3.96082e-07 1.49554e-20 1.40368e-09)
(-3.77848e-07 2.42618e-07 1.01358e-20 3.77949e-07 -8.31277e-21 -1.00503e-10)
(-4.2174e-07 2.90162e-07 7.9371e-21 4.19091e-07 1.71373e-21 2.64921e-09)
(-5.6414e-07 1.51328e-07 -1.77911e-20 5.632e-07 -4.64707e-21 9.39289e-10)
(-4.79397e-07 1.54672e-07 2.01576e-20 4.78442e-07 7.4024e-21 9.54736e-10)
(-4.20859e-07 1.86818e-07 -8.72652e-20 4.19662e-07 -1.49931e-20 1.1966e-09)
(-4.01484e-07 2.39201e-07 -1.44369e-19 4.01656e-07 -1.36896e-20 -1.72266e-10)
(-4.33757e-07 2.67579e-07 -4.63666e-21 4.31093e-07 -3.61867e-21 2.6637e-09)
(-5.52819e-07 1.97628e-07 -2.5121e-20 5.52051e-07 -9.91879e-22 7.68358e-10)
(-4.8433e-07 1.89223e-07 6.07618e-20 4.8355e-07 7.38921e-21 7.79809e-10)
(-4.35735e-07 2.04505e-07 -1.68636e-20 4.34713e-07 2.49351e-21 1.02235e-09)
(-4.17475e-07 2.37667e-07 5.3178e-20 4.17677e-07 1.0792e-20 -2.0154e-10)
(-4.40867e-07 2.50046e-07 -9.15659e-20 4.38168e-07 -6.76822e-21 2.69929e-09)
(-5.36622e-07 2.35705e-07 4.06699e-20 5.36001e-07 5.30883e-21 6.20458e-10)
(-4.82509e-07 2.18277e-07 5.00883e-20 4.81885e-07 3.19711e-21 6.24339e-10)
(-4.43078e-07 2.2002e-07 4.80823e-20 4.42209e-07 4.12079e-21 8.69171e-10)
(-4.26623e-07 2.37388e-07 1.50263e-20 4.26856e-07 1.81057e-21 -2.33233e-10)
(-4.43464e-07 2.36612e-07 8.899e-20 4.40751e-07 1.3129e-20 2.713e-09)
(-5.16494e-07 2.66154e-07 6.38524e-21 5.16e-07 -5.3959e-22 4.93611e-10)
(-4.74944e-07 2.42077e-07 -1.39916e-20 4.74458e-07 -4.44202e-21 4.85584e-10)
(-4.43862e-07 2.33211e-07 -5.61126e-20 4.4313e-07 -6.41494e-21 7.32127e-10)
(-4.29708e-07 2.37876e-07 6.50054e-20 4.29966e-07 5.08303e-21 -2.57415e-10)
(-4.41939e-07 2.26492e-07 4.45823e-20 4.39225e-07 1.87972e-21 2.71431e-09)
(-4.93339e-07 2.89647e-07 -2.75437e-21 4.92948e-07 -1.0137e-22 3.90197e-10)
(-4.62619e-07 2.60973e-07 -6.1311e-20 4.62249e-07 -6.02108e-21 3.70503e-10)
(-4.39042e-07 2.44078e-07 3.90223e-20 4.3841e-07 5.15697e-21 6.32215e-10)
(-4.27497e-07 2.38734e-07 -4.75488e-20 4.27762e-07 -8.24462e-21 -2.64411e-10)
(-4.36692e-07 2.19003e-07 -1.68421e-20 4.33978e-07 -5.21757e-21 2.71426e-09)
(-4.67957e-07 3.06817e-07 1.30481e-20 4.67655e-07 1.34381e-21 3.01972e-10)
(-4.46468e-07 2.75253e-07 1.24222e-20 4.46191e-07 4.26261e-21 2.77038e-10)
(-4.29553e-07 2.52531e-07 -2.33903e-20 4.29021e-07 -3.58701e-21 5.31224e-10)
(-4.20779e-07 2.39554e-07 -5.34168e-20 4.2106e-07 -2.94738e-21 -2.80451e-10)
(-4.28178e-07 2.13474e-07 -9.81817e-20 4.25487e-07 -8.71102e-21 2.69085e-09)
(-4.4109e-07 3.18335e-07 -1.24736e-20 4.40862e-07 -1.33397e-21 2.27864e-10)
(-4.27356e-07 2.85268e-07 5.91611e-20 4.27159e-07 5.30112e-21 1.96375e-10)
(-4.16251e-07 2.58592e-07 -3.83013e-21 4.15802e-07 -3.75011e-24 4.48561e-10)
(-4.1027e-07 2.40006e-07 6.04298e-20 4.10561e-07 8.29015e-21 -2.90818e-10)
(-4.1682e-07 2.09325e-07 6.18507e-20 4.14165e-07 6.88002e-21 2.65552e-09)
(-4.13407e-07 3.24929e-07 1.9378e-20 4.13231e-07 3.15982e-21 1.7559e-10)
(-4.06072e-07 2.91487e-07 -4.61946e-20 4.05938e-07 -7.71084e-21 1.34037e-10)
(-3.99965e-07 2.6239e-07 -7.08088e-21 3.99576e-07 -2.86779e-22 3.89293e-10)
(-3.9667e-07 2.39908e-07 2.24388e-20 3.96959e-07 2.47795e-21 -2.89711e-10)
(-4.03057e-07 2.06104e-07 -9.55424e-20 4.00439e-07 -1.14861e-20 2.61823e-09)
(-3.85466e-07 3.27227e-07 3.74892e-20 3.85338e-07 3.5816e-21 1.28431e-10)
(-3.83327e-07 2.9428e-07 -6.05461e-20 3.83247e-07 -5.83459e-21 8.01336e-11)
(-3.81439e-07 2.64018e-07 1.67508e-20 3.81109e-07 1.27634e-21 3.29527e-10)
(-3.80654e-07 2.39048e-07 6.41717e-20 3.80956e-07 7.10413e-21 -3.02048e-10)
(-3.87349e-07 2.03403e-07 1.02202e-20 3.84799e-07 2.63455e-21 2.55036e-09)
(-3.57717e-07 3.25832e-07 -2.13765e-20 3.57621e-07 -2.78605e-21 9.5679e-11)
(-3.59717e-07 2.94011e-07 2.72219e-21 3.59673e-07 2.02967e-21 4.40995e-11)
(-3.61311e-07 2.63563e-07 -3.56103e-20 3.61029e-07 -4.42821e-21 2.81192e-10)
(-3.62789e-07 2.37273e-07 2.35013e-20 3.63092e-07 1.76455e-23 -3.02587e-10)
(-3.70077e-07 2.00865e-07 -2.388e-20 3.6759e-07 -3.45423e-21 2.4867e-09)
(-3.30535e-07 3.21248e-07 2.14783e-20 3.30464e-07 2.71341e-21 7.07499e-11)
(-3.3575e-07 2.91021e-07 3.25443e-20 3.35735e-07 2.7456e-21 1.48958e-11)
(-3.40155e-07 2.61151e-07 -2.21201e-21 3.39908e-07 1.78397e-21 2.46927e-10)
(-3.4361e-07 2.34448e-07 -6.99023e-20 3.43916e-07 -9.3048e-21 -3.05261e-10)
(-3.51634e-07 1.98141e-07 -3.83715e-20 3.49226e-07 -3.61806e-21 2.40777e-09)
(-3.04214e-07 3.13965e-07 -8.35253e-21 3.04161e-07 -1.50889e-21 5.32271e-11)
(-3.11831e-07 2.85625e-07 -5.82731e-20 3.11842e-07 -7.48295e-21 -1.10284e-11)
(-3.18456e-07 2.5688e-07 7.86742e-20 3.1824e-07 9.59845e-21 2.16954e-10)
(-3.23581e-07 2.30485e-07 -5.88946e-20 3.23888e-07 -4.12303e-21 -3.0702e-10)
(-3.32369e-07 1.94977e-07 1.48998e-20 3.3005e-07 2.0419e-21 2.31926e-09)
(-2.6757e-07 3.3057e-07 5.03824e-21 2.67547e-07 1.64187e-22 2.31435e-11)
(-2.78962e-07 3.04357e-07 -1.18281e-20 2.78919e-07 -2.13169e-21 4.32009e-11)
(-2.88287e-07 2.78106e-07 -1.23665e-20 2.8832e-07 7.73749e-22 -3.31492e-11)
(-2.96604e-07 2.50875e-07 3.37076e-20 2.96407e-07 1.91318e-21 1.97062e-10)
(-3.0309e-07 2.25316e-07 7.80893e-20 3.03391e-07 1.07919e-20 -3.01506e-10)
(-3.12588e-07 1.91141e-07 -1.09031e-20 3.10369e-07 -1.80125e-21 2.21961e-09)
(-2.42512e-07 3.16423e-07 -1.31159e-20 2.42498e-07 -1.23267e-21 1.39427e-11)
(-2.54887e-07 2.92776e-07 -6.45827e-20 2.5486e-07 -7.30226e-21 2.76837e-11)
(-2.65405e-07 2.68696e-07 9.17149e-20 2.65446e-07 1.0335e-20 -4.10605e-11)
(-2.74923e-07 2.43232e-07 -4.59442e-20 2.74749e-07 -5.43312e-21 1.73648e-10)
(-2.82486e-07 2.18882e-07 5.98928e-20 2.82783e-07 5.51828e-21 -2.96478e-10)
(-2.9257e-07 1.86449e-07 -2.29434e-20 2.90463e-07 -2.21078e-21 2.107e-09)
(-2.19224e-07 3.0082e-07 3.4725e-20 2.19214e-07 4.46187e-21 9.98405e-12)
(-2.32115e-07 2.79626e-07 1.53873e-20 2.3209e-07 2.50812e-21 2.41614e-11)
(-2.43365e-07 2.57698e-07 -4.62086e-20 2.4341e-07 -6.53683e-21 -4.52857e-11)
(-2.5368e-07 2.34147e-07 3.05193e-20 2.53525e-07 3.86166e-21 1.54801e-10)
(-2.6205e-07 2.11263e-07 -7.15497e-21 2.62328e-07 -1.9445e-21 -2.77516e-10)
(-2.72556e-07 1.80829e-07 1.76226e-20 2.7057e-07 2.3226e-21 1.98661e-09)
(-1.97685e-07 2.8421e-07 9.85163e-21 1.97677e-07 4.11707e-22 7.63606e-12)
(-2.10723e-07 2.65304e-07 -1.06238e-20 2.10706e-07 -9.9074e-22 1.67162e-11)
(-2.22337e-07 2.4548e-07 1.14436e-20 2.22384e-07 2.13996e-21 -4.71873e-11)
(-2.33117e-07 2.23891e-07 -2.79976e-20 2.32978e-07 -3.15989e-21 1.39076e-10)
(-2.42048e-07 2.02617e-07 -1.91721e-20 2.42312e-07 -2.25738e-21 -2.64171e-10)
(-2.52807e-07 1.74331e-07 -1.21458e-21 2.50953e-07 -1.02874e-22 1.85344e-09)
(-1.77876e-07 2.67094e-07 -3.78949e-20 1.77869e-07 -4.53099e-21 6.76431e-12)
(-1.90783e-07 2.50302e-07 4.30636e-20 1.9077e-07 5.79524e-21 1.32057e-11)
(-2.02468e-07 2.32486e-07 1.84288e-20 2.02516e-07 1.63015e-21 -4.8296e-11)
(-2.13439e-07 2.12846e-07 4.38735e-20 2.13315e-07 5.13968e-21 1.24075e-10)
(-2.2271e-07 1.9326e-07 -1.07651e-20 2.22953e-07 -8.09441e-22 -2.43297e-10)
(-2.33553e-07 1.67178e-07 2.38931e-20 2.31831e-07 2.25771e-21 1.72158e-09)
(-1.59776e-07 2.49969e-07 1.78374e-20 1.59772e-07 2.482e-21 3.70999e-12)
(-1.72347e-07 2.35109e-07 4.74222e-20 1.72336e-07 5.09204e-21 1.15612e-11)
(-1.83876e-07 2.19182e-07 -4.05597e-20 1.83921e-07 -4.62011e-21 -4.5668e-11)
(-1.94813e-07 2.01429e-07 -3.6214e-20 1.947e-07 -5.43122e-21 1.12564e-10)
(-2.04231e-07 1.83537e-07 1.53148e-20 2.04453e-07 1.82602e-21 -2.21422e-10)
(-2.15019e-07 1.5964e-07 -5.01083e-20 2.13431e-07 -5.48037e-21 1.58739e-09)
(-1.43336e-07 2.3322e-07 -6.89285e-21 1.43333e-07 -1.60145e-21 3.13052e-12)
(-1.55419e-07 2.20109e-07 -2.12574e-20 1.55409e-07 -2.47398e-21 1.0418e-11)
(-1.66621e-07 2.05933e-07 4.48658e-20 1.66665e-07 5.70454e-21 -4.33665e-11)
(-1.77355e-07 1.89972e-07 -6.42863e-20 1.77252e-07 -7.17337e-21 1.02882e-10)
(-1.86755e-07 1.73738e-07 -1.41786e-20 1.8696e-07 -1.86951e-21 -2.04424e-10)
(-1.97379e-07 1.51972e-07 6.5538e-20 1.95919e-07 7.68966e-21 1.45995e-09)
(-1.28454e-07 2.17003e-07 -7.2442e-20 1.28452e-07 -8.64656e-21 1.08326e-12)
(-1.39945e-07 2.05462e-07 6.00111e-20 1.39936e-07 7.01192e-21 8.69571e-12)
(-1.50699e-07 1.92887e-07 -1.20721e-20 1.5074e-07 -1.55886e-21 -4.13453e-11)
(-1.61098e-07 1.78608e-07 1.28338e-20 1.61005e-07 2.23917e-21 9.24678e-11)
(-1.70343e-07 1.63969e-07 5.86743e-21 1.70529e-07 1.26962e-22 -1.86504e-10)
(-1.80713e-07 1.4426e-07 -4.97834e-20 1.79372e-07 -6.17504e-21 1.34163e-09)
(-1.14969e-07 2.01253e-07 2.27257e-20 1.14968e-07 3.21829e-21 1.50041e-12)
(-1.25798e-07 1.91103e-07 -6.31337e-20 1.25791e-07 -8.12304e-21 6.93735e-12)
(-1.36024e-07 1.79982e-07 4.08481e-20 1.36061e-07 5.16554e-21 -3.69106e-11)
(-1.45992e-07 1.67262e-07 1.50179e-20 1.45907e-07 1.45865e-21 8.45225e-11)
(-1.54981e-07 1.54123e-07 -7.30887e-20 1.55152e-07 -8.89288e-21 -1.71152e-10)
(-1.65019e-07 1.36382e-07 3.30129e-20 1.63796e-07 4.45945e-21 1.22298e-09)
(-9.21277e-08 1.93767e-07 7.92817e-22 9.21235e-08 -3.72144e-22 4.23637e-12)
(-1.02691e-07 1.85742e-07 -1.49405e-20 1.02689e-07 -1.80928e-21 1.58017e-12)
(-1.12813e-07 1.76828e-07 1.10507e-20 1.12809e-07 1.99677e-21 3.20231e-12)
(-1.22464e-07 1.67009e-07 1.32641e-20 1.22494e-07 1.25154e-21 -3.00076e-11)
(-1.31936e-07 1.55716e-07 -3.14154e-20 1.31858e-07 -3.56039e-21 7.82768e-11)
(-1.406e-07 1.43972e-07 -1.45039e-20 1.4075e-07 -1.49006e-21 -1.50454e-10)
(-1.50219e-07 1.28106e-07 1.81104e-20 1.49111e-07 1.72893e-21 1.10868e-09)
(-8.16606e-08 1.77359e-07 -7.07186e-20 8.16589e-08 -8.80544e-21 1.77653e-12)
(-9.14411e-08 1.70331e-07 2.57995e-20 9.14426e-08 3.64577e-21 -1.54857e-12)
(-1.00865e-07 1.62507e-07 2.2259e-20 1.00866e-07 2.40756e-21 -1.52659e-13)
(-1.09911e-07 1.53849e-07 -7.54563e-21 1.09942e-07 -1.29347e-21 -3.0768e-11)
(-1.18848e-07 1.43849e-07 4.44286e-20 1.18783e-07 5.90917e-21 6.48951e-11)
(-1.27147e-07 1.33382e-07 -4.5688e-20 1.27279e-07 -4.66722e-21 -1.32022e-10)
(-1.36263e-07 1.19265e-07 -2.38579e-20 1.35285e-07 -3.2158e-21 9.77702e-10)
(-7.20905e-08 1.61232e-07 -1.88485e-21 7.20824e-08 3.04105e-22 8.07475e-12)
(-8.11136e-08 1.55074e-07 4.97572e-20 8.11064e-08 5.99274e-21 7.25761e-12)
(-8.9844e-08 1.48204e-07 -3.89316e-20 8.98365e-08 -4.99014e-21 7.5556e-12)
(-9.82803e-08 1.40576e-07 -4.51158e-20 9.82967e-08 -5.49071e-21 -1.64385e-11)
(-1.06655e-07 1.3174e-07 3.62984e-20 1.06592e-07 4.49057e-21 6.32857e-11)
(-1.14574e-07 1.22428e-07 9.52939e-20 1.14668e-07 1.1785e-20 -9.33534e-11)
(-1.23109e-07 1.09922e-07 -3.28801e-20 1.22252e-07 -4.30975e-21 8.57126e-10)
(-6.33937e-08 1.45637e-07 1.74946e-20 6.34021e-08 2.03315e-21 -8.36554e-12)
(-7.16934e-08 1.40236e-07 -2.23741e-21 7.1703e-08 -3.38183e-22 -9.61927e-12)
(-7.97556e-08 1.34201e-07 -4.11301e-21 7.97654e-08 -2.10266e-22 -9.79279e-12)
(-8.75959e-08 1.27477e-07 -2.26134e-21 8.76229e-08 -1.21275e-22 -2.6957e-11)
(-9.53992e-08 1.19674e-07 6.36387e-20 9.53642e-08 7.34398e-21 3.49333e-11)
(-1.02933e-07 1.11392e-07 -1.04178e-20 1.03009e-07 -1.85593e-21 -7.61206e-11)
(-1.10837e-07 1.00331e-07 -8.86385e-20 1.10134e-07 -1.04462e-20 7.03188e-10)
(-5.54713e-08 1.30912e-07 -3.62449e-20 5.54573e-08 -4.53849e-21 1.39291e-11)
(-6.3101e-08 1.26171e-07 4.35349e-20 6.30833e-08 5.32188e-21 1.76847e-11)
(-7.05253e-08 1.20866e-07 1.10977e-20 7.05117e-08 1.68732e-21 1.36446e-11)
(-7.77895e-08 1.1494e-07 -2.37272e-20 7.77899e-08 -3.19939e-21 -3.7854e-13)
(-8.50303e-08 1.08051e-07 -3.12171e-20 8.49847e-08 -3.82183e-21 4.55329e-11)
(-9.21779e-08 1.00677e-07 1.12812e-20 9.21907e-08 1.22068e-21 -1.27933e-11)
(-9.94406e-08 9.08811e-08 8.61057e-21 9.88315e-08 1.95298e-21 6.09105e-10)
(-4.84571e-08 1.17483e-07 1.57334e-20 4.84731e-08 1.89994e-21 -1.59667e-11)
(-5.54589e-08 1.13307e-07 -2.51373e-20 5.54694e-08 -3.33818e-21 -1.05324e-11)
(-6.22885e-08 1.08633e-07 6.46811e-20 6.23008e-08 7.75522e-21 -1.23309e-11)
(-6.89971e-08 1.03418e-07 -5.15474e-20 6.90207e-08 -6.22216e-21 -2.36084e-11)
(-7.56989e-08 9.73547e-08 7.22521e-20 7.56903e-08 8.89952e-21 8.54571e-12)
(-8.24249e-08 9.08303e-08 -3.94075e-20 8.24462e-08 -4.985e-21 -2.13796e-11)
(-8.91077e-08 8.22074e-08 8.0212e-20 8.86451e-08 9.77968e-21 4.62529e-10)
(-4.30159e-08 1.06157e-07 -4.10622e-20 4.30296e-08 -5.52672e-21 -1.36985e-11)
(-4.94868e-08 1.02372e-07 -1.0285e-21 4.95035e-08 -2.76373e-23 -1.66468e-11)
(-5.58197e-08 9.81326e-08 -2.85731e-20 5.58407e-08 -3.67102e-21 -2.10414e-11)
(-6.20836e-08 9.3393e-08 -1.67174e-21 6.21072e-08 1.05189e-22 -2.35225e-11)
(-6.8338e-08 8.78855e-08 -1.24702e-20 6.83449e-08 -2.14621e-21 -6.85052e-12)
(-7.4727e-08 8.19157e-08 -2.06091e-20 7.47408e-08 -2.22748e-21 -1.38031e-11)
(-8.09023e-08 7.41892e-08 2.8691e-20 8.05684e-08 2.7379e-21 3.33892e-10)
(-3.86055e-08 9.70675e-08 -5.95043e-20 3.85904e-08 -7.21152e-21 1.5024e-11)
(-4.464e-08 9.35644e-08 -9.13279e-21 4.46292e-08 -9.65485e-22 1.08307e-11)
(-5.05535e-08 8.96452e-08 3.44993e-20 5.05468e-08 4.37901e-21 6.68929e-12)
(-5.64217e-08 8.52518e-08 4.71712e-23 5.64124e-08 -1.32261e-22 9.2985e-12)
(-6.22672e-08 8.01497e-08 -2.9935e-20 6.22506e-08 -3.91343e-21 1.65924e-11)
(-6.83276e-08 7.45871e-08 2.95915e-21 6.82889e-08 1.27693e-21 3.87246e-11)
(-7.40173e-08 6.75401e-08 -4.49854e-20 7.37235e-08 -6.07411e-21 2.93817e-10)
(-3.44762e-08 8.896e-08 8.51471e-21 3.4473e-08 1.49275e-21 3.13524e-12)
(-4.00958e-08 8.57158e-08 2.60698e-20 4.00891e-08 3.25698e-21 6.73719e-12)
(-4.56142e-08 8.20825e-08 -2.02802e-20 4.55994e-08 -2.70103e-21 1.4803e-11)
(-5.10808e-08 7.80148e-08 -2.86014e-20 5.10626e-08 -3.76961e-21 1.8202e-11)
(-5.65364e-08 7.32883e-08 -5.43928e-20 5.6513e-08 -6.21001e-21 2.33983e-11)
(-6.2225e-08 6.81258e-08 1.15408e-19 6.21822e-08 1.38467e-20 4.2789e-11)
(-6.74826e-08 6.16809e-08 -7.70087e-20 6.72757e-08 -8.7219e-21 2.06936e-10)
(-3.04842e-08 8.113e-08 2.43558e-20 3.05048e-08 3.08581e-21 -2.06518e-11)
(-3.5704e-08 7.81352e-08 -8.48833e-21 3.57348e-08 -1.258e-21 -3.07261e-11)
(-4.08451e-08 7.47723e-08 7.80174e-21 4.08756e-08 1.01491e-21 -3.04855e-11)
(-4.59394e-08 7.10117e-08 -4.48237e-20 4.59716e-08 -5.56918e-21 -3.22097e-11)
(-5.10316e-08 6.66363e-08 6.79155e-20 5.1058e-08 8.58295e-21 -2.64877e-11)
(-5.63639e-08 6.18434e-08 -6.63625e-20 5.63609e-08 -8.48798e-21 3.05011e-12)
(-6.12035e-08 5.59793e-08 9.14036e-20 6.10624e-08 1.14356e-20 1.41112e-10)
(-2.16003e-08 7.58323e-08 3.31055e-20 2.15144e-08 4.21672e-21 8.58965e-11)
(-2.64967e-08 7.33345e-08 1.69852e-20 2.64054e-08 2.12672e-21 9.12915e-11)
(-3.12902e-08 7.0547e-08 -1.46095e-20 3.12034e-08 -1.92543e-21 8.6838e-11)
(-3.60275e-08 6.74385e-08 -1.31728e-20 3.59496e-08 -1.78622e-21 7.78701e-11)
(-4.07604e-08 6.39685e-08 -2.91765e-20 4.06957e-08 -3.34849e-21 6.46368e-11)
(-4.55121e-08 5.99498e-08 -2.90076e-20 4.54835e-08 -3.72705e-21 2.86288e-11)
(-5.05274e-08 5.55804e-08 7.50677e-20 5.05343e-08 9.60315e-21 -6.9233e-12)
(-5.51802e-08 5.04118e-08 -4.21754e-20 5.52448e-08 -5.49142e-21 -6.45406e-11)
(-1.8257e-08 6.76448e-08 -1.66505e-20 1.84421e-08 -2.04649e-21 -1.85106e-10)
(-2.2733e-08 6.51576e-08 2.80711e-20 2.28852e-08 3.27835e-21 -1.52258e-10)
(-2.71084e-08 6.23915e-08 -2.91224e-20 2.72062e-08 -3.37628e-21 -9.78096e-11)
(-3.13962e-08 5.93342e-08 -2.57954e-20 3.14309e-08 -3.35561e-21 -3.47469e-11)
(-3.56795e-08 5.59382e-08 2.39649e-20 3.56294e-08 2.89581e-21 5.00816e-11)
(-3.99673e-08 5.20501e-08 4.78449e-20 3.98235e-08 6.43362e-21 1.43829e-10)
(-4.45932e-08 4.75768e-08 -8.71467e-21 4.42292e-08 -1.67118e-21 3.6399e-10)
(-4.84463e-08 4.2563e-08 2.2007e-20 4.78371e-08 3.0278e-21 6.09204e-10)
(-1.3657e-08 5.74856e-08 5.38065e-20 1.35032e-08 6.86895e-21 1.53762e-10)
(-1.78187e-08 5.51433e-08 -6.32502e-20 1.78244e-08 -8.24286e-21 -5.68275e-12)
(-2.19598e-08 5.25492e-08 7.3352e-20 2.21381e-08 9.43346e-21 -1.78366e-10)
(-2.60961e-08 4.96674e-08 -5.78808e-20 2.64564e-08 -7.22374e-21 -3.60328e-10)
(-3.02699e-08 4.64669e-08 -6.64345e-20 3.08242e-08 -8.5028e-21 -5.54275e-10)
(-3.44194e-08 4.28767e-08 9.55142e-20 3.5273e-08 1.20823e-20 -8.53649e-10)
(-3.87961e-08 3.93449e-08 -5.9342e-20 4.01109e-08 -7.53876e-21 -1.31477e-09)
(-4.31962e-08 3.56008e-08 4.67736e-20 4.5285e-08 5.74671e-21 -2.08886e-09)
(-8.32247e-09 4.30356e-08 8.04107e-21 7.51674e-09 7.72503e-22 8.05724e-10)
(-1.1535e-08 4.0107e-08 -5.62097e-20 1.03305e-08 -6.98336e-21 1.20447e-09)
(-1.46414e-08 3.70591e-08 3.6611e-20 1.30475e-08 4.29484e-21 1.59393e-09)
(-1.7711e-08 3.38771e-08 -9.86429e-21 1.57356e-08 -8.56722e-22 1.97543e-09)
(-2.09227e-08 3.0398e-08 -4.06739e-20 1.85076e-08 -4.84579e-21 2.41516e-09)
(-2.43645e-08 2.63472e-08 1.07685e-19 2.13486e-08 1.30555e-20 3.0159e-09)
(-2.88247e-08 2.03806e-08 -5.59594e-20 2.44483e-08 -6.5351e-21 4.37638e-09)
(-3.07775e-08 1.4612e-08 1.13095e-20 2.53727e-08 9.7121e-22 5.40474e-09)
(-5.85835e-09 3.32564e-08 -2.80916e-20 1.06765e-08 -3.50215e-21 -4.81814e-09)
(-1.0067e-08 3.08178e-08 -2.84954e-20 1.56058e-08 -3.41972e-21 -5.5388e-09)
(-1.42744e-08 2.80058e-08 -4.60942e-20 2.04619e-08 -5.98832e-21 -6.18748e-09)
(-1.83657e-08 2.48248e-08 7.9292e-20 2.51818e-08 9.91023e-21 -6.81613e-09)
(-2.22225e-08 2.15288e-08 1.32787e-20 2.97833e-08 1.80106e-21 -7.56071e-09)
(-2.51542e-08 1.85219e-08 -2.57174e-20 3.41527e-08 -3.48239e-21 -8.99847e-09)
(-2.76595e-08 1.82889e-08 6.68504e-20 3.92468e-08 8.38931e-21 -1.15872e-08)