/*--------------------------------*- C++ -*----------------------------------*\
| =========                 |                                                 |
| \\      /  F ield         | OpenFOAM: The Open Source CFD Toolbox           |
|  \\    /   O peration     | Version:  2306                                  |
|   \\  /    A nd           | Website:  www.openfoam.com                      |
|    \\/     M anipulation  |                                                 |
\*---------------------------------------------------------------------------*/
FoamFile
{
    version     2.0;
    format      ascii;
    arch        "LSB;label=32;scalar=64";
    class       volScalarField;
    location    "225";
    object      turbulenceProperties:nuEff;
}
// * * * * * * * * * * * * * * * * * * * * * * * * * * * * * * * * * * * * * //

dimensions      [0 2 -1 0 0 0 0];

internalField   nonuniform List<scalar> 
1340
(
0.106625
0.104475
0.102032
0.0925063
0.0700499
0.071782
0.0753607
0.0785445
0.039662
0.0470621
0.0537394
0.0632248
0.00692555
0.0131472
0.0219165
0.0392955
0.000322527
0.00105754
0.00177323
0.0137655
5.50106e-05
0.000252728
0.000469512
0.00243444
1.03009e-05
1.00096e-05
1e-05
0.000589362
1.50291e-05
1.28439e-05
1.00188e-05
1e-05
1.62194e-05
1.66871e-05
1.47748e-05
1.00033e-05
1.61776e-05
1.58222e-05
1.89233e-05
1.07363e-05
1.61652e-05
1.58556e-05
1.72049e-05
1.44258e-05
1.6119e-05
1.60588e-05
1.62204e-05
1.62114e-05
1.61021e-05
1.61167e-05
1.60552e-05
1.62721e-05
1.6101e-05
1.61121e-05
1.60815e-05
1.61514e-05
1.61018e-05
1.61046e-05
1.61017e-05
1.61081e-05
1.61015e-05
1.6102e-05
1.6105e-05
1.61022e-05
1.61009e-05
1.61013e-05
1.61037e-05
1.61025e-05
1.61003e-05
1.61008e-05
1.61025e-05
1.61023e-05
1.60999e-05
1.61003e-05
1.61017e-05
1.61017e-05
1.60996e-05
1.60999e-05
1.61011e-05
1.61011e-05
1.60994e-05
1.60996e-05
1.61007e-05
1.61006e-05
1.60992e-05
1.60994e-05
1.61003e-05
1.61002e-05
1.60992e-05
1.60993e-05
1.61001e-05
1.61e-05
1.60992e-05
1.60992e-05
1.60999e-05
1.60998e-05
1.60991e-05
1.60992e-05
1.60997e-05
1.60996e-05
1.60992e-05
1.60992e-05
1.60995e-05
1.60995e-05
1.60992e-05
1.60991e-05
1.60994e-05
1.60994e-05
1.60992e-05
1.60991e-05
1.60993e-05
1.60993e-05
1.60991e-05
1.60991e-05
1.60992e-05
1.60993e-05
1.6099e-05
1.6099e-05
1.60991e-05
1.60992e-05
1.60989e-05
1.6099e-05
1.6099e-05
1.60992e-05
1.60987e-05
1.60989e-05
1.60989e-05
1.60991e-05
1.60985e-05
1.60987e-05
1.60987e-05
1.6099e-05
1.60982e-05
1.60985e-05
1.60985e-05
1.60989e-05
1.60979e-05
1.60982e-05
1.60983e-05
1.60988e-05
1.60975e-05
1.60978e-05
1.6098e-05
1.60985e-05
1.60971e-05
1.60974e-05
1.60976e-05
1.60982e-05
1.60965e-05
1.60969e-05
1.60971e-05
1.60977e-05
1.60957e-05
1.6096e-05
1.60963e-05
1.60966e-05
1.60972e-05
1.6095e-05
1.60953e-05
1.60957e-05
1.60959e-05
1.60966e-05
1.60943e-05
1.60946e-05
1.60949e-05
1.60952e-05
1.60959e-05
1.60935e-05
1.60938e-05
1.60942e-05
1.60944e-05
1.60952e-05
1.60926e-05
1.60929e-05
1.60933e-05
1.60936e-05
1.60943e-05
1.60918e-05
1.6092e-05
1.60924e-05
1.60927e-05
1.60934e-05
1.60908e-05
1.60911e-05
1.60915e-05
1.60917e-05
1.60924e-05
1.60899e-05
1.60902e-05
1.60905e-05
1.60908e-05
1.60915e-05
1.6089e-05
1.60893e-05
1.60896e-05
1.60898e-05
1.60905e-05
1.60881e-05
1.60883e-05
1.60887e-05
1.60889e-05
1.60896e-05
1.60872e-05
1.60874e-05
1.60878e-05
1.6088e-05
1.60886e-05
1.60863e-05
1.60865e-05
1.60869e-05
1.60871e-05
1.60877e-05
1.60853e-05
1.60856e-05
1.60859e-05
1.60861e-05
1.60867e-05
1.60842e-05
1.60845e-05
1.60848e-05
1.6085e-05
1.60856e-05
1.60828e-05
1.60829e-05
1.60831e-05
1.60834e-05
1.60837e-05
1.60843e-05
1.60812e-05
1.60814e-05
1.60815e-05
1.60818e-05
1.60821e-05
1.60826e-05
1.60794e-05
1.60795e-05
1.60797e-05
1.60799e-05
1.60801e-05
1.60807e-05
1.60773e-05
1.60774e-05
1.60775e-05
1.60778e-05
1.60779e-05
1.60784e-05
1.60753e-05
1.60753e-05
1.60754e-05
1.60756e-05
1.60757e-05
1.60761e-05
1.60734e-05
1.60734e-05
1.60735e-05
1.60736e-05
1.60737e-05
1.6074e-05
1.60721e-05
1.60721e-05
1.60721e-05
1.60722e-05
1.60722e-05
1.60724e-05
1.60716e-05
1.60716e-05
1.60716e-05
1.60716e-05
1.60717e-05
1.60717e-05
1.60723e-05
1.60723e-05
1.60724e-05
1.60724e-05
1.60724e-05
1.60723e-05
1.60737e-05
1.60738e-05
1.60739e-05
1.6074e-05
1.6074e-05
1.60741e-05
1.60739e-05
1.6076e-05
1.60762e-05
1.60763e-05
1.60764e-05
1.60765e-05
1.60766e-05
1.60765e-05
1.6079e-05
1.60792e-05
1.60794e-05
1.60796e-05
1.60798e-05
1.60799e-05
1.60798e-05
1.60825e-05
1.60828e-05
1.60831e-05
1.60834e-05
1.60836e-05
1.60838e-05
1.60838e-05
1.60864e-05
1.60868e-05
1.60871e-05
1.60875e-05
1.60877e-05
1.60881e-05
1.60881e-05
1.60903e-05
1.60908e-05
1.60912e-05
1.60916e-05
1.60919e-05
1.60923e-05
1.60924e-05
1.60936e-05
1.60941e-05
1.60945e-05
1.6095e-05
1.60954e-05
1.60959e-05
1.60962e-05
1.60958e-05
1.60964e-05
1.60969e-05
1.60974e-05
1.60979e-05
1.60985e-05
1.60989e-05
1.60976e-05
1.60981e-05
1.60986e-05
1.60992e-05
1.60997e-05
1.61004e-05
1.61009e-05
1.60989e-05
1.60995e-05
1.61e-05
1.61006e-05
1.61011e-05
1.61018e-05
1.61024e-05
1.60996e-05
1.61002e-05
1.61008e-05
1.61013e-05
1.61019e-05
1.61025e-05
1.61032e-05
1.61038e-05
1.61016e-05
1.61023e-05
1.6103e-05
1.61037e-05
1.61044e-05
1.61051e-05
1.61059e-05
1.61066e-05
1.61055e-05
1.61064e-05
1.61074e-05
1.61083e-05
1.61092e-05
1.61102e-05
1.61113e-05
1.61122e-05
1.61114e-05
1.61126e-05
1.61138e-05
1.6115e-05
1.61163e-05
1.61176e-05
1.61191e-05
1.61204e-05
1.61162e-05
1.61174e-05
1.61187e-05
1.61199e-05
1.61211e-05
1.61225e-05
1.6124e-05
1.61254e-05
1.61141e-05
1.61149e-05
1.61156e-05
1.61164e-05
1.61171e-05
1.61179e-05
1.61187e-05
1.61196e-05
1.61068e-05
1.61078e-05
1.61088e-05
1.61099e-05
1.6111e-05
1.61122e-05
1.61136e-05
1.61148e-05
1.61135e-05
1.61165e-05
1.61196e-05
1.61227e-05
1.61259e-05
1.61294e-05
1.61333e-05
1.61369e-05
1.61101e-05
1.61113e-05
1.61125e-05
1.61136e-05
1.61145e-05
1.61155e-05
1.61164e-05
1.61173e-05
0.125741
0.0831349
0.0544933
0.0295375
0.00876524
0.000757971
0.000176456
1e-05
1.00046e-05
1.15009e-05
1.53497e-05
1.63544e-05
1.62545e-05
1.61409e-05
1.61107e-05
1.61078e-05
1.61077e-05
1.61067e-05
1.61054e-05
1.61042e-05
1.61033e-05
1.61025e-05
1.61019e-05
1.61014e-05
1.6101e-05
1.61006e-05
1.61004e-05
1.61002e-05
1.61e-05
1.60998e-05
1.60997e-05
1.60996e-05
1.60995e-05
1.60993e-05
1.60991e-05
1.60988e-05
1.60985e-05
1.6098e-05
1.60975e-05
1.60969e-05
1.60961e-05
1.60953e-05
1.60945e-05
1.60935e-05
1.60926e-05
1.60916e-05
1.60906e-05
1.60897e-05
1.60887e-05
1.60878e-05
1.60868e-05
1.60857e-05
1.60843e-05
1.60827e-05
1.60807e-05
1.60784e-05
1.6076e-05
1.60739e-05
1.60724e-05
1.60718e-05
1.60725e-05
1.60741e-05
1.60767e-05
1.60801e-05
1.60842e-05
1.60886e-05
1.60929e-05
1.60967e-05
1.60995e-05
1.61014e-05
1.61029e-05
1.61044e-05
1.61073e-05
1.61132e-05
1.61215e-05
1.61263e-05
1.61202e-05
1.61158e-05
1.61393e-05
1.61181e-05
0.148097
0.0865088
0.0435505
0.0177834
0.0036579
0.000274094
3.69292e-05
1.00001e-05
1.00546e-05
1.37311e-05
1.61508e-05
1.63627e-05
1.62019e-05
1.61278e-05
1.61138e-05
1.61127e-05
1.61116e-05
1.61098e-05
1.6108e-05
1.61065e-05
1.61051e-05
1.61041e-05
1.61032e-05
1.61025e-05
1.61019e-05
1.61014e-05
1.61011e-05
1.61008e-05
1.61005e-05
1.61003e-05
1.61001e-05
1.61e-05
1.60998e-05
1.60996e-05
1.60994e-05
1.60991e-05
1.60987e-05
1.60982e-05
1.60976e-05
1.6097e-05
1.60963e-05
1.60954e-05
1.60946e-05
1.60936e-05
1.60926e-05
1.60917e-05
1.60907e-05
1.60897e-05
1.60888e-05
1.60879e-05
1.60869e-05
1.60857e-05
1.60843e-05
1.60826e-05
1.60806e-05
1.60782e-05
1.60759e-05
1.60738e-05
1.60723e-05
1.60718e-05
1.60726e-05
1.60743e-05
1.6077e-05
1.60805e-05
1.60846e-05
1.60891e-05
1.60934e-05
1.60972e-05
1.60999e-05
1.61019e-05
1.61033e-05
1.61048e-05
1.61078e-05
1.6114e-05
1.61225e-05
1.61269e-05
1.61205e-05
1.61168e-05
1.61408e-05
1.61186e-05
0.148817
0.0802187
0.0298789
0.00739113
0.000547845
8.87662e-05
1.10088e-05
1.00035e-05
1.10972e-05
1.59908e-05
1.64066e-05
1.62858e-05
1.61563e-05
1.61213e-05
1.61172e-05
1.61162e-05
1.61142e-05
1.61118e-05
1.61097e-05
1.61079e-05
1.61064e-05
1.61051e-05
1.61041e-05
1.61033e-05
1.61026e-05
1.6102e-05
1.61016e-05
1.61012e-05
1.61009e-05
1.61007e-05
1.61005e-05
1.61003e-05
1.61001e-05
1.60999e-05
1.60996e-05
1.60993e-05
1.60989e-05
1.60984e-05
1.60978e-05
1.60971e-05
1.60964e-05
1.60955e-05
1.60946e-05
1.60937e-05
1.60927e-05
1.60917e-05
1.60908e-05
1.60898e-05
1.60889e-05
1.6088e-05
1.60869e-05
1.60858e-05
1.60843e-05
1.60826e-05
1.60805e-05
1.60781e-05
1.60757e-05
1.60737e-05
1.60722e-05
1.60719e-05
1.60727e-05
1.60746e-05
1.60774e-05
1.60809e-05
1.60851e-05
1.60896e-05
1.6094e-05
1.60978e-05
1.61005e-05
1.61023e-05
1.61037e-05
1.61053e-05
1.61085e-05
1.61149e-05
1.61235e-05
1.61275e-05
1.61209e-05
1.61179e-05
1.61424e-05
1.6119e-05
0.132315
0.063281
0.01521
0.000959272
0.000241065
1e-05
1.00004e-05
1.01176e-05
1.43012e-05
1.68987e-05
1.63263e-05
1.62079e-05
1.61312e-05
1.6121e-05
1.612e-05
1.61181e-05
1.61154e-05
1.61128e-05
1.61106e-05
1.61086e-05
1.6107e-05
1.61057e-05
1.61046e-05
1.61037e-05
1.6103e-05
1.61024e-05
1.61019e-05
1.61016e-05
1.61012e-05
1.6101e-05
1.61008e-05
1.61006e-05
1.61004e-05
1.61002e-05
1.60999e-05
1.60995e-05
1.60991e-05
1.60986e-05
1.6098e-05
1.60973e-05
1.60965e-05
1.60957e-05
1.60947e-05
1.60938e-05
1.60928e-05
1.60918e-05
1.60909e-05
1.60899e-05
1.6089e-05
1.6088e-05
1.6087e-05
1.60858e-05
1.60843e-05
1.60825e-05
1.60803e-05
1.60779e-05
1.60756e-05
1.60735e-05
1.60722e-05
1.60719e-05
1.60729e-05
1.60748e-05
1.60777e-05
1.60814e-05
1.60856e-05
1.60901e-05
1.60946e-05
1.60984e-05
1.6101e-05
1.61028e-05
1.61042e-05
1.61058e-05
1.61092e-05
1.61158e-05
1.61246e-05
1.61282e-05
1.61213e-05
1.61192e-05
1.61441e-05
1.61195e-05
0.101383
0.0377587
0.00321251
0.000799096
1e-05
1e-05
1.00028e-05
1.22701e-05
1.68927e-05
1.67533e-05
1.6195e-05
1.6161e-05
1.61225e-05
1.61234e-05
1.61219e-05
1.61191e-05
1.6116e-05
1.61133e-05
1.6111e-05
1.6109e-05
1.61074e-05
1.6106e-05
1.61049e-05
1.6104e-05
1.61033e-05
1.61027e-05
1.61022e-05
1.61018e-05
1.61015e-05
1.61013e-05
1.61011e-05
1.61009e-05
1.61007e-05
1.61005e-05
1.61001e-05
1.60998e-05
1.60993e-05
1.60988e-05
1.60982e-05
1.60974e-05
1.60967e-05
1.60958e-05
1.60949e-05
1.60939e-05
1.60929e-05
1.60919e-05
1.6091e-05
1.609e-05
1.60891e-05
1.60881e-05
1.60871e-05
1.60858e-05
1.60843e-05
1.60824e-05
1.60802e-05
1.60778e-05
1.60754e-05
1.60734e-05
1.60721e-05
1.6072e-05
1.60731e-05
1.60751e-05
1.60781e-05
1.60819e-05
1.60862e-05
1.60907e-05
1.60952e-05
1.6099e-05
1.61016e-05
1.61033e-05
1.61047e-05
1.61063e-05
1.61099e-05
1.61168e-05
1.61257e-05
1.61288e-05
1.61218e-05
1.61206e-05
1.61458e-05
1.61199e-05
0.0620285
0.0139008
0.00343614
1e-05
1e-05
1.0004e-05
1.11384e-05
1.61334e-05
1.72473e-05
1.63568e-05
1.61313e-05
1.6141e-05
1.61226e-05
1.61257e-05
1.61226e-05
1.61193e-05
1.61161e-05
1.61134e-05
1.61111e-05
1.61091e-05
1.61075e-05
1.61062e-05
1.61051e-05
1.61042e-05
1.61035e-05
1.61029e-05
1.61024e-05
1.61021e-05
1.61018e-05
1.61015e-05
1.61014e-05
1.61012e-05
1.6101e-05
1.61007e-05
1.61004e-05
1.61e-05
1.60995e-05
1.6099e-05
1.60983e-05
1.60976e-05
1.60968e-05
1.60959e-05
1.6095e-05
1.6094e-05
1.6093e-05
1.6092e-05
1.60911e-05
1.60901e-05
1.60892e-05
1.60882e-05
1.60872e-05
1.60859e-05
1.60843e-05
1.60823e-05
1.60801e-05
1.60776e-05
1.60752e-05
1.60732e-05
1.60721e-05
1.60721e-05
1.60733e-05
1.60754e-05
1.60785e-05
1.60824e-05
1.60868e-05
1.60913e-05
1.60959e-05
1.60996e-05
1.61021e-05
1.61038e-05
1.61052e-05
1.61069e-05
1.61107e-05
1.6118e-05
1.61268e-05
1.61295e-05
1.61222e-05
1.61221e-05
0.0238633
0.000499041
0.000109169
1e-05
1.00019e-05
1.05522e-05
1.55198e-05
1.74956e-05
1.6657e-05
1.61317e-05
1.61259e-05
1.6134e-05
1.61254e-05
1.61267e-05
1.61224e-05
1.6119e-05
1.61159e-05
1.61132e-05
1.6111e-05
1.61091e-05
1.61075e-05
1.61062e-05
1.61051e-05
1.61043e-05
1.61036e-05
1.61031e-05
1.61026e-05
1.61023e-05
1.6102e-05
1.61018e-05
1.61016e-05
1.61014e-05
1.61012e-05
1.6101e-05
1.61006e-05
1.61002e-05
1.60997e-05
1.60992e-05
1.60985e-05
1.60977e-05
1.60969e-05
1.6096e-05
1.60951e-05
1.60941e-05
1.60931e-05
1.60921e-05
1.60912e-05
1.60902e-05
1.60893e-05
1.60883e-05
1.60872e-05
1.60859e-05
1.60843e-05
1.60822e-05
1.60799e-05
1.60774e-05
1.6075e-05
1.60731e-05
1.6072e-05
1.60721e-05
1.60735e-05
1.60758e-05
1.6079e-05
1.60829e-05
1.60874e-05
1.6092e-05
1.60965e-05
1.61003e-05
1.61028e-05
1.61044e-05
1.61057e-05
1.61075e-05
1.61116e-05
1.61191e-05
1.6128e-05
1.61301e-05
0.00237304
0.000594399
1e-05
1.00008e-05
1.02421e-05
1.54036e-05
1.76736e-05
1.68982e-05
1.62017e-05
1.60922e-05
1.61358e-05
1.61313e-05
1.61275e-05
1.6126e-05
1.61215e-05
1.61182e-05
1.61153e-05
1.61127e-05
1.61106e-05
1.61088e-05
1.61073e-05
1.61061e-05
1.61051e-05
1.61043e-05
1.61037e-05
1.61032e-05
1.61028e-05
1.61025e-05
1.61023e-05
1.61021e-05
1.61019e-05
1.61017e-05
1.61015e-05
1.61012e-05
1.61009e-05
1.61004e-05
1.60999e-05
1.60994e-05
1.60987e-05
1.60979e-05
1.6097e-05
1.60961e-05
1.60952e-05
1.60942e-05
1.60932e-05
1.60922e-05
1.60913e-05
1.60904e-05
1.60894e-05
1.60884e-05
1.60873e-05
1.60859e-05
1.60842e-05
1.60821e-05
1.60797e-05
1.60772e-05
1.60748e-05
1.60729e-05
1.6072e-05
1.60723e-05
1.60737e-05
1.60761e-05
1.60795e-05
1.60835e-05
1.60881e-05
1.60927e-05
1.60973e-05
1.6101e-05
1.61034e-05
1.6105e-05
1.61063e-05
1.61082e-05
1.61126e-05
1.61204e-05
0.000596283
1e-05
1.00001e-05
1.00351e-05
1.55224e-05
1.79971e-05
1.70383e-05
1.62664e-05
1.60754e-05
1.61202e-05
1.61386e-05
1.61299e-05
1.61277e-05
1.61243e-05
1.61202e-05
1.61171e-05
1.61144e-05
1.6112e-05
1.61101e-05
1.61084e-05
1.6107e-05
1.61059e-05
1.6105e-05
1.61043e-05
1.61038e-05
1.61033e-05
1.61029e-05
1.61027e-05
1.61025e-05
1.61023e-05
1.61021e-05
1.6102e-05
1.61017e-05
1.61015e-05
1.61011e-05
1.61007e-05
1.61001e-05
1.60995e-05
1.60988e-05
1.6098e-05
1.60972e-05
1.60962e-05
1.60953e-05
1.60943e-05
1.60933e-05
1.60923e-05
1.60914e-05
1.60905e-05
1.60896e-05
1.60885e-05
1.60874e-05
1.60859e-05
1.60841e-05
1.6082e-05
1.60795e-05
1.60769e-05
1.60746e-05
1.60728e-05
1.60719e-05
1.60724e-05
1.6074e-05
1.60765e-05
1.608e-05
1.60842e-05
1.60888e-05
1.60935e-05
1.60981e-05
1.61018e-05
1.61041e-05
1.61056e-05
1.61069e-05
1e-05
1e-05
1.00002e-05
1.44117e-05
1.87392e-05
1.7062e-05
1.62843e-05
1.60668e-05
1.61029e-05
1.61394e-05
1.61348e-05
1.61286e-05
1.61261e-05
1.61221e-05
1.61186e-05
1.61158e-05
1.61133e-05
1.61112e-05
1.61094e-05
1.61079e-05
1.61067e-05
1.61057e-05
1.61049e-05
1.61043e-05
1.61038e-05
1.61034e-05
1.61031e-05
1.61029e-05
1.61027e-05
1.61025e-05
1.61024e-05
1.61022e-05
1.6102e-05
1.61017e-05
1.61013e-05
1.61009e-05
1.61003e-05
1.60997e-05
1.6099e-05
1.60981e-05
1.60973e-05
1.60963e-05
1.60954e-05
1.60944e-05
1.60934e-05
1.60924e-05
1.60915e-05
1.60906e-05
1.60897e-05
1.60886e-05
1.60874e-05
1.60859e-05
1.6084e-05
1.60818e-05
1.60793e-05
1.60767e-05
1.60744e-05
1.60726e-05
1.60719e-05
1.60726e-05
1.60743e-05
1.6077e-05
1.60806e-05
1.60849e-05
1.60895e-05
1.60943e-05
1e-05
1.00147e-05
1.37734e-05
1.91301e-05
1.71911e-05
1.62007e-05
1.60636e-05
1.609e-05
1.61363e-05
1.61388e-05
1.61303e-05
1.61267e-05
1.61234e-05
1.61197e-05
1.61169e-05
1.61143e-05
1.61121e-05
1.61102e-05
1.61087e-05
1.61074e-05
1.61063e-05
1.61055e-05
1.61048e-05
1.61042e-05
1.61038e-05
1.61035e-05
1.61032e-05
1.61031e-05
1.61029e-05
1.61028e-05
1.61026e-05
1.61025e-05
1.61022e-05
1.61019e-05
1.61015e-05
1.61011e-05
1.61005e-05
1.60998e-05
1.60991e-05
1.60983e-05
1.60974e-05
1.60964e-05
1.60955e-05
1.60945e-05
1.60935e-05
1.60925e-05
1.60916e-05
1.60907e-05
1.60898e-05
1.60887e-05
1.60875e-05
1.60859e-05
1.60839e-05
1.60816e-05
1.6079e-05
1.60764e-05
1.60741e-05
1.60725e-05
1.6072e-05
1.60728e-05
1.60747e-05
1.00133e-05
1.33782e-05
1.86012e-05
1.72905e-05
1.6105e-05
1.60355e-05
1.60921e-05
1.61318e-05
1.61408e-05
1.6132e-05
1.61268e-05
1.61238e-05
1.61204e-05
1.61174e-05
1.61149e-05
1.61127e-05
1.61108e-05
1.61092e-05
1.61079e-05
1.61068e-05
1.61059e-05
1.61052e-05
1.61046e-05
1.61042e-05
1.61038e-05
1.61036e-05
1.61034e-05
1.61032e-05
1.61031e-05
1.6103e-05
1.61029e-05
1.61027e-05
1.61024e-05
1.61021e-05
1.61017e-05
1.61012e-05
1.61006e-05
1.61e-05
1.60992e-05
1.60984e-05
1.60975e-05
1.60965e-05
1.60955e-05
1.60946e-05
1.60936e-05
1.60927e-05
1.60918e-05
1.60908e-05
1.60899e-05
1.60888e-05
1.60875e-05
1.60858e-05
1.60838e-05
1.60814e-05
1.45466e-05
1.79555e-05
1.71781e-05
1.60674e-05
1.59954e-05
1.61011e-05
1.61323e-05
1.61397e-05
1.61328e-05
1.61264e-05
1.61234e-05
1.61205e-05
1.61175e-05
1.61151e-05
1.6113e-05
1.61111e-05
1.61095e-05
1.61082e-05
1.61071e-05
1.61062e-05
1.61055e-05
1.61049e-05
1.61045e-05
1.61041e-05
1.61039e-05
1.61037e-05
1.61036e-05
1.61035e-05
1.61034e-05
1.61033e-05
1.61031e-05
1.61029e-05
1.61027e-05
1.61023e-05
1.61019e-05
1.61014e-05
1.61008e-05
1.61001e-05
1.60993e-05
1.60985e-05
1.60975e-05
1.60966e-05
)
;

boundaryField
{
    inlet
    {
        type            calculated;
        value           uniform 2e-05;
    }
    outlet
    {
        type            calculated;
        value           nonuniform List<scalar> 0();
    }
    walls
    {
        type            calculated;
        value           nonuniform List<scalar> 4(0.00273823 0.00267384 0.00258277 0.00232565);
    }
    frontAndBack
    {
        type            empty;
    }
    procBoundary2to1
    {
        type            processor;
        value           nonuniform List<scalar> 
84
(
0.108024
0.0680601
0.0312147
0.00306139
7.51125e-05
1.21496e-05
1.32905e-05
1.61934e-05
1.61411e-05
1.60888e-05
1.60929e-05
1.61006e-05
1.61036e-05
1.61027e-05
1.61016e-05
1.61008e-05
1.61003e-05
1.60999e-05
1.60995e-05
1.60993e-05
1.60992e-05
1.60991e-05
1.60991e-05
1.60991e-05
1.60991e-05
1.60992e-05
1.60992e-05
1.60991e-05
1.6099e-05
1.60989e-05
1.60987e-05
1.60985e-05
1.60983e-05
1.6098e-05
1.60976e-05
1.60972e-05
1.60968e-05
1.60963e-05
1.60963e-05
1.60954e-05
1.60947e-05
1.6094e-05
1.60932e-05
1.60924e-05
1.60915e-05
1.60906e-05
1.60897e-05
1.60888e-05
1.60879e-05
1.6087e-05
1.60861e-05
1.60851e-05
1.6084e-05
1.6084e-05
1.60826e-05
1.60811e-05
1.60793e-05
1.60773e-05
1.60752e-05
1.60734e-05
1.60721e-05
1.60716e-05
1.60722e-05
1.60722e-05
1.60736e-05
1.60758e-05
1.60787e-05
1.60822e-05
1.6086e-05
1.60899e-05
1.60931e-05
1.60953e-05
1.6097e-05
1.60984e-05
1.60984e-05
1.6099e-05
1.61009e-05
1.61045e-05
1.61102e-05
1.6115e-05
1.61133e-05
1.61059e-05
1.61106e-05
1.61087e-05
)
;
    }
    procBoundary2to3
    {
        type            processor;
        value           nonuniform List<scalar> 
88
(
1.61477e-05
1.61202e-05
1.61227e-05
1.61477e-05
1.61238e-05
1.61293e-05
1.61227e-05
1.61308e-05
1.61089e-05
1.61136e-05
1.61293e-05
1.61218e-05
1.60989e-05
1.61026e-05
1.61047e-05
1.61062e-05
1.61089e-05
1.61075e-05
1.60775e-05
1.60812e-05
1.60856e-05
1.60903e-05
1.60989e-05
1.60951e-05
1.60787e-05
1.60761e-05
1.60739e-05
1.60724e-05
1.6072e-05
1.6073e-05
1.60775e-05
1.60751e-05
1.60956e-05
1.60946e-05
1.60937e-05
1.60927e-05
1.60919e-05
1.6091e-05
1.609e-05
1.60889e-05
1.60875e-05
1.60857e-05
1.60836e-05
1.60787e-05
1.60811e-05
1.80159e-05
1.67745e-05
1.60637e-05
1.59792e-05
1.61068e-05
1.61381e-05
1.61368e-05
1.61314e-05
1.61252e-05
1.6122e-05
1.61195e-05
1.61169e-05
1.61146e-05
1.61126e-05
1.61109e-05
1.61094e-05
1.61081e-05
1.61071e-05
1.61063e-05
1.61056e-05
1.6105e-05
1.61046e-05
1.61042e-05
1.6104e-05
1.61038e-05
1.61037e-05
1.61036e-05
1.61036e-05
1.61035e-05
1.61034e-05
1.61033e-05
1.61031e-05
1.61028e-05
1.61025e-05
1.6102e-05
1.61015e-05
1.61009e-05
1.61001e-05
1.60994e-05
1.60985e-05
1.60976e-05
1.60956e-05
1.60966e-05
)
;
    }
    procBoundary2to6
    {
        type            processor;
        value           nonuniform List<scalar> 
13
(
0.170273
0.210307
0.213634
0.198153
0.168032
0.125534
0.0746179
0.0271278
0.00234579
0.000215234
1e-05
1e-05
1.00001e-05
)
;
    }
}


// ************************************************************************* //
