/*--------------------------------*- C++ -*----------------------------------*\
| =========                 |                                                 |
| \\      /  F ield         | OpenFOAM: The Open Source CFD Toolbox           |
|  \\    /   O peration     | Version:  2306                                  |
|   \\  /    A nd           | Website:  www.openfoam.com                      |
|    \\/     M anipulation  |                                                 |
\*---------------------------------------------------------------------------*/
FoamFile
{
    version     2.0;
    format      ascii;
    arch        "LSB;label=32;scalar=64";
    class       volScalarField;
    location    "325";
    object      div(phi);
}
// * * * * * * * * * * * * * * * * * * * * * * * * * * * * * * * * * * * * * //

dimensions      [0 0 -1 0 0 0 0];

internalField   nonuniform List<scalar> 
1340
(
8.98602e-09
1.32963e-08
1.76707e-09
1.86496e-08
3.6933e-09
1.36133e-09
1.21416e-08
3.38042e-09
4.10082e-09
6.25667e-10
9.44265e-09
1.31775e-08
5.8037e-10
5.91076e-09
1.35156e-09
-4.92795e-10
-1.13033e-08
2.09709e-08
-7.27814e-10
1.31753e-10
5.32463e-09
9.97009e-10
2.00593e-09
-2.54696e-10
3.05194e-09
-7.93422e-09
1.78811e-09
-3.59508e-09
-4.52163e-09
3.72801e-09
6.30708e-09
-7.14796e-11
3.71278e-09
-6.3452e-12
-1.62565e-09
8.16391e-09
-1.99397e-08
8.73417e-09
-2.66008e-09
-2.09314e-09
-1.06219e-08
-8.31918e-10
5.66621e-09
-2.90791e-10
-5.98885e-10
4.98007e-09
-3.09732e-10
6.03577e-10
-8.10609e-10
3.6468e-08
-1.19815e-08
-1.27986e-08
1.94987e-08
-1.63938e-08
4.72578e-10
-2.88513e-09
1.01253e-09
-6.45155e-09
2.88669e-09
-2.67639e-09
-5.22981e-09
3.33398e-09
6.20502e-09
-6.78289e-10
2.8619e-09
-7.80469e-10
-2.03966e-09
2.25755e-08
-5.35148e-08
5.46816e-08
-4.47064e-08
3.30225e-08
-1.68009e-08
1.26007e-08
7.36737e-09
-1.29213e-08
2.02359e-11
-7.69109e-09
5.38212e-09
-1.19457e-09
1.12494e-09
-9.19605e-09
-1.41403e-09
5.06314e-09
-1.61997e-11
-1.43541e-09
5.06892e-09
-9.28844e-10
-1.87494e-10
-1.11246e-09
-2.55797e-08
-2.00095e-08
-2.36175e-08
-3.29172e-08
-1.49351e-08
-3.38847e-08
-1.33747e-08
-2.08946e-08
6.6286e-09
-1.6367e-08
2.05524e-08
-1.1601e-08
2.38128e-08
-1.32954e-09
6.84867e-09
9.75619e-09
-4.66581e-09
5.62772e-09
-1.03751e-09
1.84142e-09
-6.82996e-09
3.28515e-09
-1.79662e-09
-5.59067e-09
2.69364e-09
5.99311e-09
-1.29041e-09
2.21866e-09
-1.21107e-09
-2.05642e-09
-3.11434e-07
9.8678e-08
-1.27142e-07
5.32596e-08
-9.71942e-08
3.45092e-08
-5.73802e-08
1.9946e-08
-4.8193e-08
6.74396e-10
-4.1153e-08
-7.54271e-09
-2.77095e-08
-1.72866e-08
-2.48245e-08
-2.64645e-08
-1.52909e-08
-2.56043e-08
-1.08643e-08
-7.93506e-09
-6.69992e-09
1.00197e-08
-1.62138e-09
1.95756e-08
-4.75793e-09
2.14485e-08
1.30791e-08
8.92373e-09
6.44947e-09
-9.94199e-11
7.03228e-09
-3.08054e-10
7.2082e-09
-7.47578e-09
-2.43693e-09
4.85399e-09
6.68524e-11
-2.12098e-09
4.4821e-09
-1.32841e-09
-6.94573e-10
-1.23046e-09
-1.70589e-07
1.55294e-06
5.61707e-07
1.07978e-06
2.86359e-07
8.71822e-07
1.30633e-07
7.07476e-07
-1.12255e-08
5.79427e-07
-5.88109e-08
5.12073e-07
-1.04823e-07
4.77355e-07
-1.15934e-07
4.64262e-07
-1.43093e-07
4.44423e-07
-1.48096e-07
4.33738e-07
-1.66586e-07
4.26138e-07
-1.83049e-07
4.05651e-07
-1.90101e-07
3.67245e-07
-2.03697e-07
3.17822e-07
-1.91443e-07
2.479e-07
-2.14146e-07
1.75506e-07
-2.22437e-07
1.26929e-07
-2.05578e-07
8.45233e-08
-1.62e-07
5.45257e-08
-1.24701e-07
3.7099e-08
-9.20011e-08
2.00475e-08
-6.57713e-08
-2.01649e-10
-5.69601e-08
-1.32124e-08
-4.62966e-08
-2.17944e-08
-3.24348e-08
-2.8635e-08
-2.79004e-08
-2.56271e-08
-2.28352e-08
-2.3962e-08
-1.52693e-08
-1.90376e-08
-1.09138e-08
-3.51891e-09
-2.27298e-09
4.9903e-09
-3.01753e-09
1.60897e-08
6.75026e-09
1.39426e-08
9.33286e-09
4.98865e-09
1.10615e-08
3.52508e-09
1.06113e-08
-4.44466e-09
6.8048e-09
2.55624e-10
-4.96786e-09
1.48478e-09
5.21118e-09
-1.96416e-09
1.79129e-09
-1.4827e-09
-1.77281e-09
-1.73038e-06
8.20172e-07
-3.87171e-07
6.0513e-07
-4.07467e-07
5.21072e-07
-3.9494e-07
4.58925e-07
-3.95062e-07
3.91406e-07
-3.52712e-07
3.37459e-07
-3.27925e-07
3.03894e-07
-2.98838e-07
2.90714e-07
-2.79195e-07
2.75443e-07
-2.49638e-07
2.58982e-07
-2.29099e-07
2.47087e-07
-2.1243e-07
2.35778e-07
-1.93958e-07
2.15038e-07
-1.76596e-07
1.84759e-07
-1.53356e-07
1.54515e-07
-1.63214e-07
1.26325e-07
-1.33299e-07
9.46934e-08
-1.37481e-07
6.57691e-08
-1.24461e-07
4.20591e-08
-1.00804e-07
2.05458e-08
-8.58857e-08
5.23404e-09
-7.03758e-08
-3.40967e-09
-5.15046e-08
-1.48009e-08
-3.87657e-08
-2.16262e-08
-3.40629e-08
-2.08005e-08
-2.37124e-08
-2.49744e-08
-1.79686e-08
-1.99157e-08
-1.74763e-08
-1.70746e-08
-1.23397e-08
-1.01351e-08
-8.19472e-09
-4.96116e-09
2.67967e-10
-2.21257e-10
5.14973e-09
5.7581e-09
5.28623e-09
6.63885e-09
3.87657e-09
9.92209e-09
1.79486e-09
1.33042e-08
-3.77724e-09
-1.71333e-09
3.80893e-09
8.42108e-10
-2.752e-09
3.93185e-09
-1.71748e-09
-8.05016e-10
-1.21128e-09
-1.77635e-06
9.17839e-07
-2.475e-07
5.64879e-07
-3.5283e-07
4.38269e-07
-3.92058e-07
3.84502e-07
-3.87562e-07
3.48812e-07
-3.69462e-07
3.06543e-07
-3.29244e-07
2.70426e-07
-2.97166e-07
2.43427e-07
-2.70364e-07
2.21611e-07
-2.4588e-07
1.99944e-07
-2.22702e-07
1.80679e-07
-2.0144e-07
1.68027e-07
-1.87865e-07
1.53237e-07
-1.61071e-07
1.36726e-07
-1.45836e-07
1.0825e-07
-1.18857e-07
7.29668e-08
-1.37128e-07
4.72286e-08
-1.26639e-07
3.65e-08
-1.07886e-07
3.51856e-08
-8.83456e-08
3.59528e-08
-5.81558e-08
2.91197e-08
-3.77667e-08
1.16086e-08
-3.39896e-08
-2.51961e-10
-3.09947e-08
-9.12227e-09
-2.13429e-08
-1.77348e-08
-2.02566e-08
-1.61596e-08
-1.75281e-08
-1.75161e-08
-1.29929e-08
-1.61261e-08
-1.30873e-08
-1.20705e-08
-9.59008e-09
-8.09998e-09
-4.99991e-09
-3.09875e-09
-9.036e-10
1.0323e-09
1.92033e-09
2.16249e-09
4.61651e-09
2.83159e-09
1.15133e-08
-3.5815e-09
6.19334e-09
8.32773e-10
1.56261e-11
7.11741e-10
4.53194e-09
-2.47294e-09
1.18995e-09
-1.73583e-09
-1.42799e-09
-1.84482e-06
6.21324e-07
-4.2461e-07
4.52289e-07
-4.01195e-07
3.78481e-07
-3.90288e-07
3.3201e-07
-3.69394e-07
3.08511e-07
-3.50865e-07
2.8633e-07
-3.0707e-07
2.58853e-07
-2.66222e-07
2.31537e-07
-2.34107e-07
2.11117e-07
-2.11113e-07
1.9093e-07
-1.88906e-07
1.70669e-07
-1.70523e-07
1.52763e-07
-1.55558e-07
1.3625e-07
-1.39309e-07
1.18859e-07
-1.22039e-07
1.02643e-07
-1.04755e-07
8.98203e-08
-8.95921e-08
7.2842e-08
-7.463e-08
5.5607e-08
-7.71741e-08
3.86344e-08
-6.47285e-08
2.48472e-08
-5.82502e-08
1.50774e-08
-5.02171e-08
1.29207e-08
-3.28704e-08
5.27193e-09
-2.12756e-08
-3.76336e-09
-2.19454e-08
-7.79286e-09
-1.59504e-08
-1.50673e-08
-1.31175e-08
-1.52347e-08
-1.38496e-08
-1.40288e-08
-1.07462e-08
-1.11098e-08
-8.48849e-09
-7.12008e-09
-5.33419e-09
-3.48403e-09
-2.25126e-09
-1.32393e-09
2.65858e-10
-8.99398e-12
-3.08102e-10
3.76885e-09
-1.52917e-09
1.0426e-08
-2.23725e-09
4.46999e-09
3.37735e-09
6.71544e-09
-1.31491e-09
3.1514e-09
-2.12491e-09
-9.18106e-10
-1.19733e-09
-1.25562e-06
9.19422e-07
-5.16883e-08
5.53136e-07
-2.12739e-07
3.95065e-07
-2.52719e-07
3.0886e-07
-2.75997e-07
2.58865e-07
-2.76703e-07
2.30037e-07
-2.72051e-07
2.05923e-07
-2.44568e-07
1.82623e-07
-2.16612e-07
1.62356e-07
-1.92565e-07
1.47482e-07
-1.69121e-07
1.36041e-07
-1.48506e-07
1.25281e-07
-1.2987e-07
1.15986e-07
-1.15927e-07
1.03838e-07
-1.00042e-07
9.12791e-08
-8.56906e-08
7.78572e-08
-7.22353e-08
6.90077e-08
-6.682e-08
6.35763e-08
-4.7605e-08
6.09937e-08
-3.81701e-08
5.75246e-08
-2.4575e-08
5.13098e-08
-9.39198e-09
3.41141e-08
-1.12608e-08
1.73322e-08
-1.67425e-08
3.91962e-09
-1.31275e-08
-8.49781e-09
-1.52923e-08
-1.08003e-08
-1.33405e-08
-1.20137e-08
-8.70606e-09
-1.0916e-08
-7.72052e-09
-8.26096e-09
-5.81795e-09
-5.25903e-09
-4.43592e-09
-2.13881e-09
-3.453e-09
-8.55657e-10
-1.66826e-09
-3.00536e-10
-2.50968e-09
-6.9217e-10
8.53991e-09
-2.61766e-09
8.35655e-09
3.03226e-09
8.02688e-09
2.54379e-09
6.37818e-09
-1.92396e-09
7.83675e-10
-1.89409e-09
-1.03704e-09
-1.05855e-06
7.03608e-07
-1.85154e-07
4.97944e-07
-2.51528e-07
3.97324e-07
-2.56771e-07
3.29189e-07
-2.61503e-07
2.80727e-07
-2.48925e-07
2.55143e-07
-2.3547e-07
2.40719e-07
-2.10245e-07
2.22823e-07
-1.7962e-07
1.99863e-07
-1.52671e-07
1.82207e-07
-1.31509e-07
1.67431e-07
-1.14406e-07
1.54162e-07
-1.01331e-07
1.41344e-07
-9.27009e-08
1.30171e-07
-8.64577e-08
1.16882e-07
-8.06003e-08
1.03677e-07
-7.15423e-08
9.05036e-08
-6.67394e-08
7.86766e-08
-5.62633e-08
6.73178e-08
-5.21754e-08
5.37101e-08
-3.93212e-08
3.73769e-08
-4.61121e-08
2.43752e-08
-4.12645e-08
1.43128e-08
-2.98874e-08
5.07773e-09
-3.11662e-08
1.08108e-09
-2.01347e-08
-3.08218e-09
-1.14883e-08
-5.74834e-09
-9.69106e-09
-7.52101e-09
-5.34901e-09
-7.52254e-09
-3.31212e-09
-6.0543e-09
-1.73519e-09
-3.9458e-09
-1.19952e-09
-2.6847e-09
-1.95356e-10
-1.62052e-09
-1.90039e-09
4.74794e-09
-1.83175e-09
7.33332e-09
1.88031e-09
5.62672e-09
5.05983e-09
7.0126e-09
1.28546e-09
3.57211e-09
-1.91311e-09
-5.81156e-10
-1.05697e-09
-9.18082e-07
8.53897e-07
6.00199e-08
5.85664e-07
-4.31469e-08
4.57234e-07
-7.90401e-08
3.75592e-07
-1.03342e-07
3.16681e-07
-1.08888e-07
2.73191e-07
-1.14877e-07
2.40245e-07
-1.15016e-07
2.13109e-07
-1.17213e-07
1.85647e-07
-1.09862e-07
1.61933e-07
-1.00382e-07
1.43074e-07
-8.88439e-08
1.29063e-07
-8.10869e-08
1.17382e-07
-7.26812e-08
1.09377e-07
-6.56947e-08
1.02703e-07
-5.94542e-08
9.44234e-08
-5.24552e-08
8.42408e-08
-4.7054e-08
7.2926e-08
-4.20978e-08
6.1169e-08
-3.80282e-08
5.08214e-08
-3.43927e-08
4.32446e-08
-2.65379e-08
3.37303e-08
-1.90263e-08
2.47512e-08
-2.31622e-08
1.76361e-08
-1.22635e-08
1.00906e-08
-1.09892e-08
4.41675e-09
-9.73361e-09
2.28772e-10
-4.23117e-09
-2.18724e-09
-2.81298e-09
-3.20138e-09
-7.48812e-10
-3.06935e-09
2.60498e-10
-2.15101e-09
-1.23467e-10
-1.64636e-09
1.24085e-10
-1.31707e-09
-1.19161e-09
1.68157e-10
1.72081e-10
1.86651e-09
4.89075e-11
5.03314e-09
4.2931e-09
4.29314e-09
6.00587e-09
-3.50272e-10
1.31364e-09
-1.6105e-09
-5.89405e-10
-1.22799e-06
8.19958e-07
2.08131e-09
6.05078e-07
-3.0244e-08
4.78585e-07
-6.55422e-08
3.77038e-07
-9.22622e-08
2.98659e-07
-1.15691e-07
2.40069e-07
-1.24419e-07
1.97829e-07
-1.27667e-07
1.67581e-07
-1.2724e-07
1.42948e-07
-1.23539e-07
1.19638e-07
-1.15301e-07
9.82902e-08
-1.04602e-07
8.08599e-08
-9.54601e-08
6.64027e-08
-8.80335e-08
5.50606e-08
-8.12565e-08
4.65406e-08
-7.50717e-08
4.12818e-08
-6.75335e-08
3.72888e-08
-5.8486e-08
3.47693e-08
-5.00063e-08
3.21162e-08
-4.18709e-08
2.99638e-08
-3.44526e-08
2.73151e-08
-2.8677e-08
2.72481e-08
-2.32803e-08
2.73034e-08
-1.10735e-08
2.54575e-08
-9.72561e-09
2.20909e-08
-5.43138e-09
1.78295e-08
-1.17689e-09
1.31683e-08
-6.39079e-10
8.07031e-09
1.19551e-09
3.67194e-09
1.65831e-09
-1.21206e-10
1.78207e-09
-2.76958e-09
1.60414e-09
-4.28098e-09
2.14139e-09
-5.27209e-09
2.67813e-09
-6.5691e-09
2.39784e-09
-4.37835e-09
2.36505e-09
1.23284e-10
3.80567e-09
5.47346e-09
1.68587e-09
4.1106e-09
-1.45193e-09
-9.19346e-11
-8.47459e-10
2.92918e-07
5.09722e-07
8.21515e-08
4.06393e-07
2.09418e-08
3.28091e-07
-2.54025e-08
2.64379e-07
-5.39326e-08
2.1352e-07
-7.67763e-08
1.72638e-07
-8.73422e-08
1.4086e-07
-9.46627e-08
1.15732e-07
-9.68108e-08
9.68307e-08
-9.79303e-08
8.09265e-08
-9.26737e-08
6.69867e-08
-8.56218e-08
5.54736e-08
-7.73831e-08
4.76749e-08
-6.968e-08
4.20524e-08
-6.21069e-08
3.83198e-08
-5.44529e-08
3.57835e-08
-4.74077e-08
3.35786e-08
-3.90857e-08
3.10666e-08
-3.34012e-08
2.82476e-08
-2.6268e-08
2.47654e-08
-2.2586e-08
1.9154e-08
-1.69194e-08
1.24745e-08
-2.2397e-08
9.21997e-09
-1.72746e-08
9.47465e-09
-1.05776e-08
1.01605e-08
-6.09505e-09
9.88747e-09
-5.77323e-11
7.02763e-09
7.34389e-10
2.53422e-09
-3.13403e-10
-1.25361e-09
-1.25962e-09
-3.53148e-09
-1.70924e-09
-4.29861e-09
-1.83304e-09
-4.314e-09
-1.31046e-09
-5.69839e-09
-1.4184e-09
-3.55919e-09
-9.28617e-10
-1.6456e-09
8.42143e-10
2.28105e-09
2.22497e-09
5.281e-09
-5.47732e-10
1.59096e-09
-1.32116e-09
-2.07197e-10
-6.8468e-07
2.59033e-07
-7.16525e-08
2.40721e-07
-6.22415e-08
2.13458e-07
-6.75917e-08
1.8187e-07
-7.29186e-08
1.5285e-07
-7.79238e-08
1.27543e-07
-7.7723e-08
1.069e-07
-7.93777e-08
9.03063e-08
-7.59331e-08
7.83531e-08
-7.22775e-08
6.98647e-08
-6.60922e-08
6.32378e-08
-5.89558e-08
5.70071e-08
-5.05342e-08
5.15745e-08
-4.24673e-08
4.68057e-08
-3.56832e-08
4.33589e-08
-2.97518e-08
4.06145e-08
-2.53165e-08
3.74224e-08
-2.17402e-08
3.33811e-08
-1.87476e-08
2.9203e-08
-1.61812e-08
2.51307e-08
-1.34613e-08
2.18757e-08
-1.20051e-08
2.00235e-08
-7.63435e-09
1.7577e-08
-4.08432e-09
1.51435e-08
-3.9454e-09
1.14034e-08
-1.36421e-09
7.56425e-09
-2.49371e-09
3.36738e-09
-3.14583e-09
1.29763e-10
-3.2288e-09
-2.31813e-09
-3.0254e-09
-3.64682e-09
-2.79689e-09
-4.02822e-09
-2.43365e-09
-3.84745e-09
-1.94467e-09
-4.70687e-09
-1.80051e-09
-2.70299e-09
-1.40462e-09
-8.70471e-10
-4.37417e-10
1.13278e-09
3.89369e-09
2.68605e-10
3.529e-09
-1.2681e-09
3.71347e-10
-6.08566e-10
-1.11267e-07
4.45099e-08
-1.69956e-07
3.35799e-08
-1.62411e-07
4.62916e-08
-1.35462e-07
5.78113e-08
-1.09794e-07
6.28181e-08
-9.05751e-08
6.25491e-08
-7.70619e-08
5.94105e-08
-6.66378e-08
5.44458e-08
-6.02197e-08
4.87968e-08
-5.47021e-08
4.41591e-08
-5.04415e-08
4.07249e-08
-4.60642e-08
3.67262e-08
-4.09563e-08
3.14186e-08
-3.59983e-08
2.65128e-08
-3.22806e-08
2.32912e-08
-2.8945e-08
2.09573e-08
-2.59693e-08
1.8905e-08
-2.30306e-08
1.70042e-08
-2.00043e-08
1.56811e-08
-1.67591e-08
1.45275e-08
-1.37224e-08
1.36188e-08
-1.04515e-08
1.28158e-08
-8.43816e-09
1.3583e-08
-5.29809e-09
1.43633e-08
-4.23326e-10
1.44918e-08
1.49349e-09
1.24465e-08
3.0131e-09
8.80447e-09
2.19384e-09
4.50065e-09
6.40488e-10
9.86946e-10
-5.48423e-10
-1.16155e-09
-9.41332e-10
-2.14478e-09
-9.70673e-10
-2.5182e-09
-7.62979e-10
-3.23458e-09
-8.1278e-10
-1.7056e-09
-5.82726e-10
-4.91744e-10
8.16368e-11
1.49257e-09
5.87616e-10
4.23933e-09
-8.84731e-10
1.62551e-09
-8.78645e-10
-1.32433e-10
-8.24408e-07
7.50068e-08
-1.19177e-07
8.92059e-08
-7.46013e-08
8.87869e-08
-5.51218e-08
7.84041e-08
-4.83896e-08
6.57696e-08
-4.48924e-08
5.47964e-08
-4.29305e-08
4.61912e-08
-3.98464e-08
3.95991e-08
-3.73402e-08
3.45267e-08
-3.34587e-08
3.14012e-08
-2.99627e-08
2.94592e-08
-2.57429e-08
2.8246e-08
-2.14656e-08
2.71273e-08
-1.70195e-08
2.62626e-08
-1.26685e-08
2.53194e-08
-9.16359e-09
2.45145e-08
-6.41282e-09
2.35324e-08
-4.82968e-09
2.23867e-08
-3.66391e-09
2.05878e-08
-3.60988e-09
1.84213e-08
-3.03833e-09
1.58139e-08
-3.76061e-09
1.31066e-08
-2.76492e-09
9.61331e-09
-4.65982e-09
6.403e-09
-5.74333e-09
4.07912e-09
-5.63948e-09
2.7011e-09
-5.07184e-09
2.07379e-09
-3.39992e-09
1.71465e-09
-1.71352e-09
1.0802e-09
-5.25552e-10
3.24355e-10
4.99311e-11
-1.98393e-10
2.80736e-10
-5.13218e-10
5.41223e-10
-8.63713e-10
6.51816e-10
-5.20179e-10
2.13525e-10
2.81783e-10
1.58491e-10
5.79743e-10
3.26334e-09
-6.03384e-10
2.58726e-09
-5.04062e-10
4.12908e-10
-5.86861e-11
3.69026e-07
1.57301e-07
1.64957e-08
1.0652e-07
-2.59214e-08
7.68964e-08
-4.11395e-08
5.92723e-08
-4.47564e-08
4.71632e-08
-4.34441e-08
3.84489e-08
-3.99259e-08
3.22302e-08
-3.51045e-08
2.79589e-08
-3.06782e-08
2.52888e-08
-2.56367e-08
2.40398e-08
-2.03849e-08
2.35745e-08
-1.55464e-08
2.33615e-08
-1.15314e-08
2.30251e-08
-8.29892e-09
2.22365e-08
-5.77722e-09
2.10634e-08
-3.81651e-09
1.99664e-08
-2.34042e-09
1.88303e-08
-1.29744e-09
1.76263e-08
-8.71857e-10
1.6185e-08
-5.04587e-10
1.46236e-08
-7.43303e-10
1.29382e-08
-3.47567e-10
1.13961e-08
-6.90614e-10
1.0524e-08
-1.08023e-09
1.0505e-08
7.91551e-10
1.06566e-08
1.51331e-09
1.01674e-08
2.87475e-09
8.89675e-09
3.4338e-09
6.77488e-09
3.04281e-09
4.59841e-09
2.46536e-09
2.84423e-09
2.03309e-09
1.48657e-09
1.63475e-09
4.80767e-10
1.44657e-09
9.55813e-11
1.30112e-09
-5.10692e-11
7.89947e-10
3.14003e-10
3.97472e-10
1.58007e-09
-5.1796e-10
2.46346e-09
1.02846e-10
1.15718e-09
4.54292e-10
1.96308e-10
-6.54496e-07
-4.73532e-08
-1.00576e-07
-9.32567e-09
-5.57846e-08
5.36095e-09
-3.46707e-08
8.55826e-09
-2.47926e-08
8.41068e-09
-1.93052e-08
7.88874e-09
-1.53814e-08
7.49108e-09
-1.36318e-08
7.52746e-09
-1.16382e-08
8.35346e-09
-1.02484e-08
9.41476e-09
-8.67172e-09
1.03714e-08
-7.81613e-09
1.06337e-08
-6.85388e-09
1.02387e-08
-6.33343e-09
9.68437e-09
-5.76164e-09
9.43542e-09
-5.40578e-09
8.66222e-09
-4.45449e-09
7.28243e-09
-4.14096e-09
6.8627e-09
-3.75527e-09
7.56294e-09
-3.25355e-09
7.94048e-09
-2.9644e-09
7.39769e-09
-2.49683e-09
6.62631e-09
-2.69409e-09
5.60461e-09
-2.13816e-09
4.28912e-09
-3.04951e-09
2.80493e-09
-3.4984e-09
1.78455e-09
-3.27083e-09
1.31908e-09
-2.69744e-09
1.405e-09
-1.33099e-09
1.59826e-09
-5.67898e-11
1.43927e-09
6.0291e-10
1.03043e-09
8.42292e-10
7.39042e-10
9.35752e-10
8.42851e-10
1.21463e-09
4.80977e-10
8.5093e-10
2.06581e-10
4.84181e-10
-2.9268e-10
1.37629e-09
3.96862e-10
1.17568e-09
7.1083e-10
3.31785e-10
7.82525e-11
1.86896e-08
2.47255e-08
2.37155e-08
2.46139e-08
2.424e-08
2.4886e-08
2.28146e-08
2.54723e-08
2.30575e-08
2.69516e-08
2.13972e-08
2.86491e-08
2.1707e-08
3.08854e-08
2.04557e-08
3.29536e-08
2.04336e-08
3.46472e-08
1.79931e-08
3.53998e-08
1.61027e-08
3.59387e-08
1.23612e-08
3.54191e-08
9.77288e-09
3.31331e-08
6.09488e-09
2.96361e-08
2.38909e-09
2.70438e-08
-9.08204e-10
2.41422e-08
-3.40485e-09
1.94236e-08
-4.51589e-09
1.42819e-08
-5.48677e-09
1.0537e-08
-5.56648e-09
8.01704e-09
-5.60527e-09
5.83038e-09
-5.37423e-09
3.763e-09
-4.70319e-09
2.24361e-09
-4.26167e-09
1.72839e-09
-3.61248e-09
2.16834e-09
-1.97054e-09
3.04581e-09
-7.30212e-10
3.65068e-09
6.8129e-10
3.69819e-09
1.40999e-09
3.13496e-09
1.4721e-09
2.32344e-09
1.29503e-09
1.52736e-09
1.06125e-09
9.48689e-10
9.39798e-10
9.43845e-10
7.85312e-10
3.2329e-10
3.62071e-10
1.52777e-10
6.74641e-11
3.07645e-10
2.35415e-10
5.07993e-10
3.71052e-10
1.77564e-10
4.78735e-11
4.55258e-16
)
;

boundaryField
{
    inlet
    {
        type            extrapolatedCalculated;
        value           nonuniform List<scalar> 
27
(
8.98602e-09
1.76707e-09
1.36133e-09
6.25667e-10
-4.92795e-10
-2.54696e-10
-1.62565e-09
-8.10609e-10
-2.03966e-09
-1.11246e-09
-2.05642e-09
-1.23046e-09
-1.77281e-09
-1.21128e-09
-1.42799e-09
-1.19733e-09
-1.03704e-09
-1.05697e-09
-5.89405e-10
-8.47459e-10
-2.07197e-10
-6.08566e-10
-1.32433e-10
-5.86861e-11
1.96308e-10
7.82525e-11
4.55258e-16
)
;
    }
    outlet
    {
        type            extrapolatedCalculated;
        value           nonuniform List<scalar> 
78
(
1.86896e-08
2.47255e-08
2.37155e-08
2.46139e-08
2.424e-08
2.4886e-08
2.28146e-08
2.54723e-08
2.30575e-08
2.69516e-08
2.13972e-08
2.86491e-08
2.1707e-08
3.08854e-08
2.04557e-08
3.29536e-08
2.04336e-08
3.46472e-08
1.79931e-08
3.53998e-08
1.61027e-08
3.59387e-08
1.23612e-08
3.54191e-08
9.77288e-09
3.31331e-08
6.09488e-09
2.96361e-08
2.38909e-09
2.70438e-08
-9.08204e-10
2.41422e-08
-3.40485e-09
1.94236e-08
-4.51589e-09
1.42819e-08
-5.48677e-09
1.0537e-08
-5.56648e-09
8.01704e-09
-5.60527e-09
5.83038e-09
-5.37423e-09
3.763e-09
-4.70319e-09
2.24361e-09
-4.26167e-09
1.72839e-09
-3.61248e-09
2.16834e-09
-1.97054e-09
3.04581e-09
-7.30212e-10
3.65068e-09
6.8129e-10
3.69819e-09
1.40999e-09
3.13496e-09
1.4721e-09
2.32344e-09
1.29503e-09
1.52736e-09
1.06125e-09
9.48689e-10
9.39798e-10
9.43845e-10
7.85312e-10
3.2329e-10
3.62071e-10
1.52777e-10
6.74641e-11
3.07645e-10
2.35415e-10
5.07993e-10
3.71052e-10
1.77564e-10
4.78735e-11
4.55258e-16
)
;
    }
    walls
    {
        type            extrapolatedCalculated;
        value           nonuniform List<scalar> 0();
    }
    frontAndBack
    {
        type            empty;
    }
    procBoundary7to3
    {
        type            processor;
        value           nonuniform List<scalar> 
16
(
5.50022e-06
2.42299e-06
1.9726e-06
1.85721e-06
1.92847e-06
1.60243e-06
1.74287e-06
1.3625e-06
6.14992e-07
6.14992e-07
3.60937e-07
9.57698e-08
1.39384e-07
1.78654e-07
-4.24002e-08
3.2362e-08
)
;
    }
    procBoundary7to6
    {
        type            processor;
        value           nonuniform List<scalar> 
91
(
3.51093e-11
6.57244e-09
6.57244e-09
6.33519e-09
6.33519e-09
1.53736e-10
1.53736e-10
-4.66424e-09
-7.5034e-10
-7.5034e-10
-1.73683e-09
-7.69082e-09
-7.69082e-09
-1.03797e-08
-7.29343e-09
-1.57398e-08
-1.57398e-08
-3.57582e-08
2.26421e-09
-1.51404e-08
-1.51404e-08
-3.66609e-08
3.98457e-09
1.42739e-08
-3.45172e-08
-3.45172e-08
-3.2459e-08
3.22759e-08
-4.20645e-08
4.53913e-08
-4.86081e-08
-4.86081e-08
-1.26733e-08
-2.18169e-08
-1.93459e-08
-1.43514e-08
-3.10875e-08
9.19592e-09
-4.99899e-08
-4.99899e-08
-1.11948e-07
1.18754e-07
-8.55782e-08
5.43122e-08
-6.82744e-08
2.16042e-08
-4.40835e-08
1.52013e-09
-2.60518e-08
-1.09175e-08
-2.23123e-08
-1.21012e-09
-1.21012e-09
1.34492e-06
-1.88577e-06
1.00632e-06
-1.97203e-06
9.36969e-07
-1.79468e-06
8.75209e-07
-1.56718e-06
7.70355e-07
-1.36315e-06
6.95305e-07
-1.22523e-06
6.37552e-07
-1.10591e-06
5.90196e-07
-9.86012e-07
5.39341e-07
-8.85023e-07
5.0895e-07
-8.001e-07
4.87359e-07
-7.28629e-07
4.57198e-07
-6.21694e-07
4.1146e-07
-5.36929e-07
3.64884e-07
-4.46719e-07
3.1657e-07
-3.84583e-07
2.7199e-07
-3.06571e-07
2.12073e-07
-2.54405e-07
1.68878e-07
-2.98268e-07
3.60995e-07
3.60995e-07
)
;
    }
}


// ************************************************************************* //
