/*--------------------------------*- C++ -*----------------------------------*\
| =========                 |                                                 |
| \\      /  F ield         | OpenFOAM: The Open Source CFD Toolbox           |
|  \\    /   O peration     | Version:  2306                                  |
|   \\  /    A nd           | Website:  www.openfoam.com                      |
|    \\/     M anipulation  |                                                 |
\*---------------------------------------------------------------------------*/
FoamFile
{
    version     2.0;
    format      ascii;
    arch        "LSB;label=32;scalar=64";
    class       volSymmTensorField;
    location    "325";
    object      turbulenceProperties:devReff;
}
// * * * * * * * * * * * * * * * * * * * * * * * * * * * * * * * * * * * * * //

dimensions      [0 2 -2 0 0 0 0];

internalField   nonuniform List<symmTensor> 
1340
(
(1.51589e-07 3.94452e-08 -6.52532e-20 -2.16687e-07 -6.69181e-21 6.5098e-08)
(-1.07045e-07 -3.13122e-08 -6.43283e-20 1.62294e-07 -8.10161e-21 -5.52491e-08)
(1.5556e-07 4.35224e-08 3.39366e-20 -2.19624e-07 3.37342e-21 6.40632e-08)
(1.02227e-07 6.50052e-08 3.45381e-19 -1.47591e-07 3.83093e-20 4.53647e-08)
(-9.25886e-08 -3.37769e-08 8.53781e-23 1.52898e-07 -2.99079e-22 -6.03097e-08)
(1.43154e-07 5.17287e-08 -7.59654e-22 -2.14862e-07 1.79445e-22 7.17083e-08)
(-1.62441e-08 2.84956e-08 -1.75616e-19 4.88274e-08 -2.08142e-20 -3.25834e-08)
(9.96253e-08 6.07705e-08 5.64156e-21 -1.46659e-07 1.17726e-21 4.70338e-08)
(-8.39845e-08 -3.49632e-08 7.68617e-20 1.46667e-07 9.50318e-21 -6.26823e-08)
(1.37863e-07 5.57877e-08 -1.54177e-19 -2.13153e-07 -1.58494e-20 7.52894e-08)
(2.98828e-08 4.90683e-08 -4.19253e-19 -1.51859e-08 -4.85459e-20 -1.46969e-08)
(7.13587e-08 5.93932e-08 -2.29483e-19 -9.37152e-08 -2.54213e-20 2.23565e-08)
(-1.43062e-08 2.81754e-08 7.75138e-20 4.72333e-08 9.1287e-21 -3.29271e-08)
(9.96214e-08 5.57444e-08 -1.14383e-19 -1.46935e-07 -1.27144e-20 4.73134e-08)
(-7.94326e-08 -3.4815e-08 -3.23855e-19 1.42574e-07 -4.00639e-20 -6.31419e-08)
(1.37937e-07 5.75511e-08 1.48009e-19 -2.14011e-07 1.48761e-20 7.60737e-08)
(5.94307e-08 6.02038e-08 6.1969e-20 -5.33889e-08 7.13123e-21 -6.04185e-09)
(6.91826e-08 6.19175e-08 -1.65701e-20 -7.87346e-08 -1.96773e-21 9.55204e-09)
(3.04686e-08 4.65796e-08 1.61294e-21 -1.55462e-08 -2.95645e-22 -1.49224e-08)
(7.20595e-08 5.44553e-08 7.68389e-22 -9.4566e-08 -1.15879e-22 2.25065e-08)
(-1.2582e-08 2.78148e-08 5.45351e-20 4.57457e-08 6.55761e-21 -3.31637e-08)
(9.95284e-08 5.08535e-08 -5.7789e-21 -1.47149e-07 -8.98138e-22 4.76207e-08)
(-7.51934e-08 -3.46573e-08 1.95186e-22 1.38975e-07 -1.68085e-23 -6.37817e-08)
(1.37741e-07 5.91341e-08 -5.62121e-22 -2.14831e-07 1.33609e-22 7.70894e-08)
(9.50705e-08 6.72906e-08 -1.39452e-19 -9.63961e-08 -1.61973e-20 1.32559e-09)
(8.1831e-08 6.34979e-08 -1.77821e-19 -7.95624e-08 -2.02179e-20 -2.26866e-09)
(7.92527e-08 6.28115e-08 -2.22729e-19 -8.29903e-08 -2.48407e-20 3.73763e-09)
(5.91367e-08 5.5851e-08 -9.05327e-20 -5.29918e-08 -9.83361e-21 -6.14491e-09)
(6.94293e-08 5.70351e-08 1.0061e-20 -7.91615e-08 1.47868e-21 9.73219e-09)
(3.08969e-08 4.4019e-08 1.70522e-19 -1.58097e-08 1.96314e-20 -1.50872e-08)
(7.23693e-08 4.9677e-08 3.53624e-20 -9.51174e-08 3.71604e-21 2.27482e-08)
(-1.07707e-08 2.72071e-08 -1.22266e-19 4.42591e-08 -1.42988e-20 -3.34884e-08)
(9.89164e-08 4.64258e-08 1.0973e-19 -1.47146e-07 1.20865e-20 4.82297e-08)
(-7.07797e-08 -3.48469e-08 1.8147e-22 1.35652e-07 -1.13089e-22 -6.48727e-08)
(1.36419e-07 6.05995e-08 2.7808e-22 -2.15211e-07 -6.189e-23 7.87919e-08)
(1.20992e-07 6.04452e-08 -3.29547e-20 -1.2084e-07 -3.15405e-21 -1.52753e-10)
(1.10597e-07 6.16652e-08 1.63746e-19 -1.11119e-07 1.80371e-20 5.22525e-10)
(9.99472e-08 6.11148e-08 1.90364e-20 -9.90761e-08 1.88838e-21 -8.71137e-10)
(9.33371e-08 6.06572e-08 1.09703e-19 -9.47485e-08 1.20818e-20 1.41144e-09)
(8.04697e-08 5.7684e-08 4.45323e-22 -7.81597e-08 -3.36705e-22 -2.30999e-09)
(7.85451e-08 5.72434e-08 9.64308e-22 -8.2401e-08 -6.31028e-23 3.85587e-09)
(5.86263e-08 5.14982e-08 7.58644e-20 -5.23892e-08 8.51381e-21 -6.2371e-09)
(6.94071e-08 5.21964e-08 -9.58467e-21 -7.9295e-08 -1.18418e-21 9.88793e-09)
(3.12331e-08 4.136e-08 -7.92533e-22 -1.59915e-08 2.03991e-22 -1.52416e-08)
(7.24797e-08 4.50456e-08 -1.62001e-22 -9.54669e-08 5.44686e-23 2.29872e-08)
(-9.02358e-09 2.63715e-08 3.51023e-22 4.28628e-08 -6.85469e-23 -3.38392e-08)
(9.82334e-08 4.23149e-08 -5.96704e-22 -1.47137e-07 1.58003e-22 4.89041e-08)
(-6.6866e-08 -3.52217e-08 2.79627e-19 1.32913e-07 3.49036e-20 -6.60472e-08)
(1.35012e-07 6.14864e-08 7.5086e-20 -2.15569e-07 7.63261e-21 8.0557e-08)
(1.68217e-07 3.34398e-08 -9.06334e-20 -1.68209e-07 -9.34956e-21 -7.90875e-12)
(1.54587e-07 4.05987e-08 6.70795e-20 -1.54589e-07 7.46088e-21 2.31328e-12)
(1.41389e-07 4.58946e-08 3.38682e-20 -1.41367e-07 3.36539e-21 -2.25626e-11)
(1.28823e-07 4.94804e-08 -1.25779e-20 -1.2887e-07 -1.48983e-21 4.74696e-11)
(1.16586e-07 5.21592e-08 1.82051e-22 -1.16412e-07 -2.15768e-23 -1.73236e-10)
(1.07137e-07 5.40044e-08 -6.18792e-22 -1.07672e-07 1.16209e-22 5.35579e-10)
(9.71145e-08 5.41362e-08 -6.97227e-23 -9.62057e-08 -2.83074e-22 -9.08765e-10)
(9.1218e-08 5.4199e-08 -1.1956e-19 -9.2669e-08 -1.32307e-20 1.45097e-09)
(7.88006e-08 5.19906e-08 -5.71173e-20 -7.6426e-08 -5.96818e-21 -2.37459e-09)
(7.75317e-08 5.17565e-08 7.15462e-20 -8.14612e-08 8.05496e-21 3.92958e-09)
(5.79206e-08 4.71621e-08 -7.22131e-20 -5.15866e-08 -8.26839e-21 -6.33394e-09)
(6.91532e-08 4.74136e-08 2.89921e-23 -7.91521e-08 -7.41449e-23 9.99884e-09)
(3.14543e-08 3.86263e-08 -1.54216e-19 -1.60715e-08 -1.77891e-20 -1.53828e-08)
(7.2455e-08 4.0536e-08 -3.1951e-20 -9.5633e-08 -3.37558e-21 2.3178e-08)
(-7.46695e-09 2.53707e-08 6.32657e-20 4.16296e-08 7.40952e-21 -3.41627e-08)
(9.76492e-08 3.83804e-08 -9.95013e-20 -1.47173e-07 -1.09853e-20 4.9524e-08)
(-6.36413e-08 -3.56527e-08 -2.36008e-19 1.30789e-07 -2.93368e-20 -6.7148e-08)
(1.34072e-07 6.17087e-08 -9.59628e-20 -2.16276e-07 -9.53741e-21 8.22036e-08)
(2.13472e-07 -3.87323e-08 -8.44703e-20 -2.13447e-07 -8.55985e-21 -2.44202e-11)
(2.0314e-07 -2.31523e-08 -1.27384e-20 -2.03115e-07 -9.68412e-22 -2.48087e-11)
(1.92155e-07 -9.11625e-09 -1.32121e-20 -1.92129e-07 -1.33467e-21 -2.61701e-11)
(1.80702e-07 3.37566e-09 -2.05106e-20 -1.80678e-07 -1.98718e-21 -2.46679e-11)
(1.68956e-07 1.43108e-08 -4.02213e-21 -1.68934e-07 -1.46397e-22 -2.23667e-11)
(1.57098e-07 2.36065e-08 5.73318e-20 -1.57073e-07 6.13977e-21 -2.49976e-11)
(1.45335e-07 3.11885e-08 6.59899e-20 -1.45325e-07 6.89356e-21 -9.93694e-12)
(1.33772e-07 3.70098e-08 -1.36746e-22 -1.33729e-07 -8.95289e-23 -4.22722e-11)
(1.22662e-07 4.11804e-08 2.85213e-20 -1.22704e-07 3.13961e-21 4.18624e-11)
(1.11652e-07 4.44227e-08 1.83621e-20 -1.11453e-07 1.91358e-21 -1.98667e-10)
(1.03181e-07 4.6767e-08 -4.25132e-23 -1.03722e-07 -6.54373e-23 5.40463e-10)
(9.38341e-08 4.74935e-08 -4.58186e-24 -9.28886e-08 2.25126e-23 -9.45519e-10)
(8.86724e-08 4.79988e-08 7.04172e-22 -9.01504e-08 -5.69531e-24 1.47792e-09)
(7.67804e-08 4.64878e-08 5.48418e-20 -7.43479e-08 5.88816e-21 -2.43251e-09)
(7.61719e-08 4.64149e-08 -6.81646e-20 -8.01551e-08 -7.62316e-21 3.98321e-09)
(5.69737e-08 4.28941e-08 6.87377e-20 -5.05592e-08 7.83951e-21 -6.41448e-09)
(6.86321e-08 4.27278e-08 2.28976e-24 -7.8711e-08 8.14537e-23 1.00789e-08)
(3.15171e-08 3.58566e-08 1.47343e-19 -1.60228e-08 1.68469e-20 -1.54943e-08)
(7.22582e-08 3.61577e-08 3.0799e-20 -9.55859e-08 3.14928e-21 2.33278e-08)
(-6.13634e-09 2.42396e-08 -6.01948e-20 4.05869e-08 -7.13887e-21 -3.44506e-08)
(9.70947e-08 3.45978e-08 2.46862e-22 -1.47197e-07 6.65519e-23 5.01025e-08)
(-6.09767e-08 -3.61429e-08 4.01476e-19 1.29165e-07 4.97549e-20 -6.81887e-08)
(1.33373e-07 6.13059e-08 4.13201e-22 -2.17071e-07 -1.71389e-22 8.36977e-08)
(2.13791e-07 -1.7273e-07 -1.85684e-20 -2.13826e-07 -1.82402e-21 3.49174e-11)
(2.14582e-07 -1.52775e-07 -4.23956e-20 -2.14606e-07 -3.90386e-21 2.32706e-11)
(2.13907e-07 -1.33093e-07 1.96301e-20 -2.13922e-07 1.90404e-21 1.44694e-11)
(2.11801e-07 -1.13862e-07 -3.69965e-20 -2.11806e-07 -3.73402e-21 4.65144e-12)
(2.08334e-07 -9.52651e-08 -1.23661e-20 -2.08332e-07 -8.98315e-22 -2.028e-12)
(2.03593e-07 -7.7468e-08 4.53956e-20 -2.03585e-07 4.56557e-21 -8.12924e-12)
(1.9769e-07 -6.06208e-08 4.72894e-21 -1.97677e-07 3.23847e-22 -1.29363e-11)
(1.9075e-07 -4.4853e-08 4.54006e-22 -1.90734e-07 -1.81034e-22 -1.67248e-11)
(1.82917e-07 -3.02642e-08 -1.39915e-20 -1.82898e-07 -1.4895e-21 -1.9018e-11)
(1.74336e-07 -1.69211e-08 -1.02758e-20 -1.74316e-07 -1.01287e-21 -2.04364e-11)
(1.65159e-07 -4.86268e-09 1.17494e-22 -1.65137e-07 1.14782e-23 -2.12779e-11)
(1.55539e-07 5.87952e-09 1.43739e-23 -1.5552e-07 -1.59139e-23 -1.90116e-11)
(1.45637e-07 1.51888e-08 -3.33864e-22 -1.45612e-07 2.9641e-23 -2.4911e-11)
(1.35656e-07 2.29613e-08 -1.0602e-20 -1.35649e-07 -1.0069e-21 -6.41069e-12)
(1.25681e-07 2.91012e-08 9.14273e-23 -1.25634e-07 -5.362e-23 -4.69896e-11)
(1.1601e-07 3.36715e-08 -2.73498e-20 -1.1606e-07 -2.93284e-21 4.95132e-11)
(1.06236e-07 3.73181e-08 -1.75519e-20 -1.06026e-07 -1.83755e-21 -2.09933e-10)
(9.87611e-08 4.00344e-08 -4.0506e-23 -9.93145e-08 3.98621e-23 5.53367e-10)
(9.01258e-08 4.12612e-08 -4.38556e-24 -8.91596e-08 2.89578e-22 -9.66177e-10)
(8.57105e-08 4.21292e-08 1.07929e-19 -8.7216e-08 1.20216e-20 1.50548e-09)
(7.44094e-08 4.12392e-08 2.82637e-20 -7.19388e-08 3.23762e-21 -2.47057e-09)
(7.44613e-08 4.12779e-08 1.11235e-19 -7.84886e-08 1.22405e-20 4.02728e-09)
(5.57749e-08 3.87428e-08 -6.55353e-20 -4.93083e-08 -7.53423e-21 -6.46663e-09)
(6.78331e-08 3.81802e-08 3.83083e-23 -7.79696e-08 -2.30345e-23 1.01365e-08)
(3.14041e-08 3.30837e-08 -1.00437e-19 -1.58333e-08 -1.12934e-20 -1.55708e-08)
(7.18727e-08 3.19285e-08 8.46903e-20 -9.5318e-08 9.66357e-21 2.34453e-08)
(-5.02139e-09 2.29982e-08 1.46366e-19 3.97233e-08 1.70329e-20 -3.4702e-08)
(9.65189e-08 3.09623e-08 -8.76523e-24 -1.47182e-07 -1.09956e-22 5.06633e-08)
(-5.88693e-08 -3.67252e-08 -2.60956e-22 1.28129e-07 5.92027e-23 -6.92592e-08)
(1.32855e-07 6.03856e-08 2.15838e-20 -2.1802e-07 2.19575e-21 8.51649e-08)
(8.03289e-08 -3.19975e-07 1.57352e-20 -8.03832e-08 1.42345e-21 5.42559e-11)
(9.18417e-08 -3.11302e-07 5.95165e-22 -9.1911e-08 6.00395e-23 6.92685e-11)
(1.03112e-07 -3.0173e-07 9.76783e-22 -1.03192e-07 1.19005e-22 7.98446e-11)
(1.14038e-07 -2.91228e-07 4.67591e-20 -1.14124e-07 4.31187e-21 8.59331e-11)
(1.24513e-07 -2.79784e-07 2.10225e-20 -1.24604e-07 1.96248e-21 9.03559e-11)
(1.34426e-07 -2.67413e-07 3.31075e-20 -1.34516e-07 3.04485e-21 8.96076e-11)
(1.4367e-07 -2.54151e-07 1.03518e-20 -1.43754e-07 9.50503e-22 8.41906e-11)
(1.52146e-07 -2.4005e-07 1.88684e-20 -1.5223e-07 1.70876e-21 8.39146e-11)
(1.59738e-07 -2.25201e-07 -1.08788e-20 -1.59811e-07 -1.25827e-21 7.26295e-11)
(1.6637e-07 -2.09693e-07 -6.52661e-20 -1.66437e-07 -6.06874e-21 6.7176e-11)
(1.71947e-07 -1.93641e-07 1.25232e-20 -1.72006e-07 1.26017e-21 5.89504e-11)
(1.76401e-07 -1.77173e-07 -1.71952e-20 -1.7645e-07 -1.70148e-21 4.92013e-11)
(1.79679e-07 -1.60434e-07 8.30094e-23 -1.7972e-07 3.02029e-23 4.10012e-11)
(1.81745e-07 -1.43571e-07 1.1619e-22 -1.81777e-07 -6.22149e-23 3.15587e-11)
(1.82585e-07 -1.26745e-07 -2.40264e-23 -1.8261e-07 9.76146e-24 2.53921e-11)
(1.82195e-07 -1.10111e-07 1.16709e-22 -1.82212e-07 -2.72616e-23 1.63007e-11)
(1.80609e-07 -9.38296e-08 4.09042e-23 -1.80619e-07 -3.30694e-23 9.99502e-12)
(1.77872e-07 -7.80548e-08 -1.53784e-22 -1.77876e-07 -4.87217e-23 4.43623e-12)
(1.7405e-07 -6.29359e-08 -2.36938e-20 -1.74049e-07 -2.19981e-21 -1.43883e-12)
(1.69232e-07 -4.85979e-08 4.79188e-20 -1.69227e-07 4.96349e-21 -4.92379e-12)
(1.63518e-07 -3.51612e-08 -3.97818e-21 -1.63509e-07 -5.75867e-22 -8.5826e-12)
(1.5702e-07 -2.26999e-08 9.90054e-21 -1.57009e-07 1.0319e-21 -1.0747e-11)
(1.49856e-07 -1.12782e-08 4.12312e-23 -1.49843e-07 -4.7763e-23 -1.30387e-11)
(1.42156e-07 -9.43083e-10 -6.33306e-22 -1.42145e-07 -2.12987e-22 -1.0762e-11)
(1.3405e-07 8.16828e-09 -5.15403e-20 -1.3403e-07 -5.60038e-21 -1.96286e-11)
(1.25738e-07 1.59277e-08 -5.03148e-20 -1.2574e-07 -5.1211e-21 2.12912e-12)
(1.17275e-07 2.21993e-08 3.6461e-20 -1.17228e-07 3.98469e-21 -4.69223e-11)
(1.08997e-07 2.69971e-08 -2.89122e-20 -1.09058e-07 -3.19614e-21 6.08417e-11)
(1.00443e-07 3.08978e-08 1.66963e-20 -1.00228e-07 1.85612e-21 -2.15017e-10)
(9.39601e-08 3.38615e-08 -1.27178e-22 -9.45264e-08 -3.2096e-23 5.66298e-10)
(8.60587e-08 3.54926e-08 -6.17007e-23 -8.50812e-08 -7.43149e-23 -9.77453e-10)
(8.23872e-08 3.66417e-08 -3.89227e-20 -8.39146e-08 -4.36216e-21 1.52741e-09)
(7.17284e-08 3.62933e-08 -7.65865e-20 -6.92349e-08 -8.62229e-21 -2.49353e-09)
(7.24306e-08 3.63929e-08 -1.06113e-19 -7.64881e-08 -1.1541e-20 4.05745e-09)
(5.43393e-08 3.47469e-08 2.84796e-20 -4.78441e-08 3.34993e-21 -6.49518e-09)
(6.67735e-08 3.38046e-08 1.55564e-20 -7.69415e-08 1.84455e-21 1.0168e-08)
(3.11218e-08 3.03383e-08 7.6745e-20 -1.55138e-08 8.72383e-21 -1.5608e-08)
(7.13197e-08 2.78568e-08 5.28053e-20 -9.48506e-08 5.88904e-21 2.35309e-08)
(-4.11685e-09 2.16662e-08 -1.90624e-22 3.9024e-08 -2.42736e-23 -3.49071e-08)
(9.59448e-08 2.74414e-08 -8.55415e-24 -1.47138e-07 -5.47464e-24 5.1193e-08)
(-5.72293e-08 -3.73584e-08 -1.03278e-22 1.27492e-07 -2.76892e-23 -7.02625e-08)
(1.32566e-07 5.89616e-08 -2.06137e-20 -2.19132e-07 -2.05948e-21 8.65658e-08)
(-9.69915e-08 -6.05284e-08 -1.16991e-21 8.87209e-08 -4.86778e-23 8.27059e-09)
(-1.00232e-07 -2.4651e-08 1.80514e-22 9.3002e-08 -3.73896e-23 7.22987e-09)
(-9.98448e-08 -9.7114e-08 6.32451e-22 1.00837e-07 7.91676e-23 -9.92094e-10)
(-7.07211e-08 -4.00705e-07 -7.10202e-22 7.26549e-08 -2.55701e-23 -1.93378e-09)
(-5.86917e-07 -1.15409e-05 -1.17835e-20 5.90442e-07 -2.06243e-21 -3.52523e-09)
(-4.19354e-06 -2.37055e-05 9.00602e-20 4.16241e-06 6.1424e-21 3.11249e-08)
(-0.000544406 0.00200212 1.90318e-18 0.000543413 2.86337e-19 9.93464e-07)
(-0.00450615 0.0259065 -6.68136e-18 0.00450953 -5.07286e-19 -3.37487e-06)
(-0.0162965 0.100414 3.84531e-18 0.0163066 -2.53273e-19 -1.01408e-05)
(-0.036609 0.222181 3.09662e-17 0.0366082 2.82429e-18 8.21422e-07)
(-0.0606604 0.351786 7.15193e-18 0.0606497 1.06051e-18 1.07699e-05)
(-0.0810141 0.441892 2.49659e-17 0.0810051 2.91711e-18 9.00161e-06)
(-0.0904533 0.456153 -3.95874e-17 0.0904435 -1.593e-18 9.77423e-06)
(-0.083958 0.377756 -1.2641e-16 0.0839479 -1.28502e-17 1.01531e-05)
(-0.060425 0.214842 4.0521e-17 0.0604224 -1.88917e-18 2.59669e-06)
(-0.0236385 0.000744406 2.60572e-16 0.02364 2.40235e-17 -1.46599e-06)
(0.0184079 -0.21483 3.57383e-17 -0.0184158 7.50136e-18 7.85752e-06)
(0.0547045 -0.373594 -5.22195e-17 -0.0547084 -4.66302e-18 3.94315e-06)
(0.0725512 -0.421677 7.83784e-18 -0.0725372 -1.05436e-18 -1.40479e-05)
(0.0648333 -0.343803 7.54323e-17 -0.0648126 7.48724e-18 -2.06875e-05)
(0.0384337 -0.191559 -2.8745e-17 -0.0384253 -3.15968e-18 -8.42125e-06)
(0.0129681 -0.0622582 5.33477e-17 -0.012968 5.60585e-18 -1.05938e-07)
(0.00174733 -0.00860759 -2.6834e-17 -0.00174715 -2.55443e-18 -1.75062e-07)
(5.99482e-06 -9.32852e-05 1.81034e-18 -6.03238e-06 1.34406e-19 3.75602e-08)
(-7.1586e-06 8.04064e-06 3.15407e-19 7.13005e-06 3.33831e-20 2.85502e-08)
(-8.69615e-08 -9.16177e-09 1.02878e-21 8.67745e-08 1.359e-22 1.87049e-10)
(-2.67815e-08 -2.05553e-07 1.6021e-21 2.68805e-08 6.16615e-23 -9.90366e-11)
(-2.57606e-09 -2.57459e-07 1.2175e-20 2.66376e-09 1.13493e-21 -8.76989e-11)
(-2.22418e-09 -2.32656e-07 -7.88101e-22 2.22644e-09 -4.93772e-25 -2.2634e-12)
(-4.4229e-09 -2.14576e-07 3.93414e-21 4.40329e-09 4.03188e-22 1.96124e-11)
(-2.89491e-09 -3.16172e-07 -1.36512e-20 2.87465e-09 -1.11936e-21 2.02625e-11)
(5.80166e-09 -3.43293e-07 -2.18779e-20 -5.80909e-09 -2.09994e-21 7.4343e-12)
(1.42254e-08 -3.07748e-07 1.87309e-21 -1.42355e-08 1.08872e-22 1.00724e-11)
(2.24184e-08 -2.91713e-07 -8.39626e-21 -2.24292e-08 -8.14618e-22 1.08544e-11)
(3.16382e-08 -2.88551e-07 1.78699e-20 -3.16516e-08 1.63394e-21 1.34104e-11)
(4.12761e-08 -2.85217e-07 -5.58057e-21 -4.12933e-08 -4.35861e-22 1.71577e-11)
(5.0866e-08 -2.79751e-07 -1.55948e-20 -5.08878e-08 -1.44254e-21 2.17789e-11)
(6.04527e-08 -2.73598e-07 -1.39611e-20 -6.04779e-08 -1.33577e-21 2.52382e-11)
(7.00577e-08 -2.67052e-07 1.28899e-20 -7.0091e-08 1.19139e-21 3.33402e-11)
(7.95707e-08 -2.59845e-07 1.64026e-25 -7.96091e-08 -4.59563e-24 3.83996e-11)
(8.8897e-08 -2.51858e-07 -2.4818e-23 -8.89416e-08 3.40734e-23 4.46066e-11)
(9.7952e-08 -2.43081e-07 -1.55216e-23 -9.80007e-08 2.41369e-23 4.87203e-11)
(1.06654e-07 -2.33506e-07 -2.20602e-23 -1.06709e-07 1.6672e-23 5.46883e-11)
(1.14905e-07 -2.2314e-07 -1.17147e-23 -1.14959e-07 6.75272e-24 5.41233e-11)
(1.22624e-07 -2.12005e-07 -6.40867e-22 -1.22681e-07 -7.28571e-23 5.77948e-11)
(1.29714e-07 -2.00156e-07 -1.76041e-20 -1.29769e-07 -1.68092e-21 5.53151e-11)
(1.36099e-07 -1.87661e-07 1.12233e-22 -1.36152e-07 1.07925e-22 5.29606e-11)
(1.417e-07 -1.74601e-07 4.96451e-20 -1.4175e-07 4.78676e-21 5.0211e-11)
(1.4644e-07 -1.61068e-07 6.17791e-23 -1.46486e-07 -1.00963e-22 4.52733e-11)
(1.50262e-07 -1.47167e-07 1.25835e-20 -1.50302e-07 1.20676e-21 4.04152e-11)
(1.53115e-07 -1.33021e-07 -3.2085e-21 -1.53149e-07 -3.20931e-22 3.37338e-11)
(1.54967e-07 -1.18758e-07 2.14784e-20 -1.54996e-07 2.15392e-21 2.89123e-11)
(1.55794e-07 -1.04502e-07 1.56319e-23 -1.55816e-07 -7.04826e-23 2.21363e-11)
(1.55597e-07 -9.03947e-08 5.28319e-24 -1.55614e-07 -2.287e-23 1.66524e-11)
(1.54394e-07 -7.65708e-08 1.72694e-23 -1.54406e-07 8.6834e-23 1.20769e-11)
(1.52215e-07 -6.31673e-08 2.26615e-20 -1.52221e-07 2.10458e-21 6.39675e-12)
(1.49116e-07 -5.03062e-08 -5.02574e-20 -1.49118e-07 -5.12468e-21 2.20218e-12)
(1.45162e-07 -3.81047e-08 1.27021e-20 -1.45162e-07 1.46771e-21 -6.43474e-13)
(1.40433e-07 -2.66495e-08 -7.12296e-23 -1.4043e-07 -1.3346e-23 -3.56156e-12)
(1.35016e-07 -1.60098e-08 1.8444e-22 -1.35009e-07 -1.30287e-22 -7.25877e-12)
(1.29016e-07 -6.24648e-09 -2.83926e-20 -1.29012e-07 -3.00007e-21 -4.3466e-12)
(1.22531e-07 2.49564e-09 3.05125e-22 -1.22515e-07 4.19671e-23 -1.61678e-11)
(1.15752e-07 1.00717e-08 9.4956e-21 -1.1576e-07 8.9027e-22 8.89008e-12)
(1.08703e-07 1.631e-08 -2.37074e-22 -1.08655e-07 3.15963e-23 -4.76575e-11)
(1.01747e-07 2.11828e-08 2.47443e-22 -1.01818e-07 -7.61889e-23 7.0427e-11)
(9.4375e-08 2.51972e-08 -1.5971e-20 -9.41553e-08 -1.81167e-21 -2.19762e-10)
(8.88628e-08 2.82915e-08 -3.66533e-20 -8.9437e-08 -4.00801e-21 5.74185e-10)
(8.17041e-08 3.02287e-08 -2.39194e-20 -8.072e-08 -2.49698e-21 -9.84123e-10)
(7.87605e-08 3.15815e-08 1.19434e-20 -8.0301e-08 1.47877e-21 1.54053e-09)
(6.87798e-08 3.16903e-08 5.691e-20 -6.62735e-08 6.29602e-21 -2.50627e-09)
(7.01143e-08 3.18013e-08 5.11007e-20 -7.41829e-08 5.44775e-21 4.06858e-09)
(5.26906e-08 3.09447e-08 -7.21151e-23 -4.61907e-08 -1.82982e-22 -6.49987e-09)
(6.54685e-08 2.96299e-08 -6.78603e-20 -7.56359e-08 -7.58895e-21 1.01674e-08)
(3.06592e-08 2.76549e-08 -1.46177e-22 -1.50483e-08 6.89057e-23 -1.56109e-08)
(7.06055e-08 2.39426e-08 -5.10059e-20 -9.41673e-08 -5.52516e-21 2.35617e-08)
(-3.45236e-09 2.02799e-08 3.89158e-20 3.85164e-08 4.6148e-21 -3.5064e-08)
(9.53953e-08 2.39809e-08 -2.08523e-22 -1.47057e-07 -2.11947e-23 5.1662e-08)
(-5.60994e-08 -3.79997e-08 -1.60234e-19 1.27325e-07 -1.98378e-20 -7.12255e-08)
(1.32601e-07 5.70454e-08 1.96362e-20 -2.20438e-07 2.00172e-21 8.78375e-08)
(-1.25627e-07 -1.36123e-07 -2.56828e-24 1.14706e-07 -8.22244e-23 1.09214e-08)
(-8.02495e-08 -5.79079e-08 1.82931e-21 7.42376e-08 1.54663e-22 6.01185e-09)
(-8.95233e-08 -1.95114e-08 6.85241e-22 9.02449e-08 1.14959e-22 -7.21514e-10)
(-8.57997e-08 -4.73414e-08 -5.63409e-22 8.73244e-08 -2.49042e-23 -1.52467e-09)
(-6.10351e-08 -2.65631e-07 -5.75803e-22 6.11105e-08 -6.44628e-23 -7.54142e-11)
(-2.5752e-08 -6.40073e-07 2.81898e-24 2.56223e-08 -8.86318e-24 1.29623e-10)
(-7.26926e-06 -0.00015152 2.2084e-22 7.26112e-06 -5.66077e-21 8.14306e-09)
(-0.000152097 0.00021949 1.03719e-18 0.000151702 1.09858e-19 3.95665e-07)
(-0.00201114 0.0103441 -3.31987e-18 0.00201101 -3.48161e-19 1.2275e-07)
(-0.00957837 0.0568749 1.91312e-17 0.00958538 1.75324e-18 -7.01145e-06)
(-0.0255552 0.152992 -1.00492e-17 0.0255611 -4.39501e-19 -5.87203e-06)
(-0.0473549 0.27386 2.31153e-19 0.0473483 -7.99042e-19 6.60998e-06)
(-0.0683128 0.374445 5.58e-17 0.0683025 5.18021e-18 1.02736e-05)
(-0.0809658 0.414252 -1.98385e-18 0.0809564 1.3492e-18 9.37363e-06)
(-0.0795252 0.369893 -6.29779e-17 0.0795163 -5.70691e-18 8.90384e-06)
(-0.0617276 0.241498 -1.13352e-18 0.0617243 1.58887e-19 3.29267e-06)
(-0.0300948 0.0547727 -7.20402e-17 0.0300957 -8.11478e-18 -8.69111e-07)
(0.00855393 -0.146261 8.03555e-17 -0.00856002 5.89584e-18 6.09412e-06)
(0.0442535 -0.307858 5.32495e-17 -0.0442585 5.58689e-18 4.99738e-06)
(0.0648664 -0.376068 3.5795e-17 -0.0648572 2.67207e-18 -9.23095e-06)
(0.0620052 -0.326391 1.00288e-16 -0.0619866 1.17977e-17 -1.85429e-05)
(0.0396072 -0.195316 -1.39846e-16 -0.0395962 -1.37762e-17 -1.10567e-05)
(0.0149367 -0.0704885 7.56702e-17 -0.014936 7.1662e-18 -7.39901e-07)
(0.00238357 -0.0112257 -3.08319e-17 -0.00238352 -2.62601e-18 -5.71923e-08)
(3.0019e-05 -0.000216219 2.53571e-21 -3.00583e-05 -2.6759e-20 3.92499e-08)
(-1.0934e-05 1.47548e-05 2.1184e-22 1.08925e-05 2.54163e-21 4.15418e-08)
(-8.86236e-08 5.92567e-08 -2.91988e-21 8.84077e-08 -2.3501e-22 2.15958e-10)
(-2.91103e-08 -1.44611e-07 -4.87345e-21 2.91732e-08 -4.82026e-22 -6.29025e-11)
(-7.34183e-10 -2.17663e-07 6.08653e-22 8.03855e-10 3.05376e-23 -6.96724e-11)
(1.19683e-09 -2.01569e-07 -1.22265e-21 -1.20392e-09 -1.15428e-22 7.08254e-12)
(-1.49397e-09 -1.76139e-07 5.1899e-22 1.45963e-09 3.62633e-24 3.4343e-11)
(6.53826e-11 -2.46643e-07 9.82382e-21 -1.11209e-10 9.284e-22 4.58265e-11)
(8.11693e-09 -2.97389e-07 3.30991e-24 -8.15994e-09 -1.90107e-24 4.30129e-11)
(1.5225e-08 -2.64691e-07 1.4989e-20 -1.52652e-08 1.46136e-21 4.02106e-11)
(2.15135e-08 -2.4455e-07 -1.30731e-20 -2.15528e-08 -1.19163e-21 3.93742e-11)
(2.89268e-08 -2.40246e-07 3.43934e-21 -2.897e-08 2.86348e-22 4.31745e-11)
(3.69753e-08 -2.37909e-07 -4.03409e-24 -3.70191e-08 -2.89846e-23 4.37981e-11)
(4.50051e-08 -2.33619e-07 1.72023e-20 -4.5045e-08 1.63594e-21 3.99461e-11)
(5.30005e-08 -2.28505e-07 -4.71283e-21 -5.30442e-08 -4.17131e-22 4.37259e-11)
(6.10033e-08 -2.23101e-07 6.09443e-21 -6.10441e-08 5.71371e-22 4.08018e-11)
(6.89425e-08 -2.17129e-07 3.19763e-21 -6.89842e-08 3.40013e-22 4.17193e-11)
(7.67148e-08 -2.10424e-07 -4.69565e-24 -7.67558e-08 2.98846e-23 4.10284e-11)
(8.42616e-08 -2.03007e-07 1.73684e-20 -8.43021e-08 1.6924e-21 4.04788e-11)
(9.15239e-08 -1.94909e-07 -3.26258e-24 -9.15637e-08 -3.51648e-24 3.986e-11)
(9.84294e-08 -1.86136e-07 5.82009e-22 -9.84687e-08 9.98385e-23 3.92885e-11)
(1.049e-07 -1.76707e-07 1.26329e-20 -1.04938e-07 1.21855e-21 3.78776e-11)
(1.10864e-07 -1.66669e-07 2.02357e-23 -1.10901e-07 -8.06486e-23 3.61639e-11)
(1.16253e-07 -1.56079e-07 -8.20804e-23 -1.16286e-07 1.00151e-22 3.34209e-11)
(1.20998e-07 -1.45e-07 2.64831e-20 -1.21029e-07 2.60124e-21 3.07402e-11)
(1.25039e-07 -1.33514e-07 -1.19509e-20 -1.25066e-07 -1.25055e-21 2.72459e-11)
(1.28323e-07 -1.21716e-07 2.54925e-23 -1.28347e-07 -7.11849e-23 2.34176e-11)
(1.30807e-07 -1.09703e-07 -2.05367e-20 -1.30827e-07 -2.01699e-21 1.99926e-11)
(1.32455e-07 -9.75802e-08 1.32589e-23 -1.3247e-07 5.85211e-23 1.46505e-11)
(1.3325e-07 -8.54613e-08 4.51244e-24 -1.33261e-07 4.29625e-23 1.08718e-11)
(1.33186e-07 -7.34638e-08 2.09893e-20 -1.33193e-07 2.16203e-21 6.96374e-12)
(1.32273e-07 -6.17055e-08 2.74697e-21 -1.32276e-07 2.77683e-22 3.29406e-12)
(1.30535e-07 -5.03044e-08 4.39307e-21 -1.30534e-07 3.58709e-22 -7.56087e-13)
(1.28013e-07 -3.93642e-08 -8.39362e-21 -1.2801e-07 -9.64085e-22 -3.15975e-12)
(1.24758e-07 -2.89784e-08 -2.27012e-20 -1.24752e-07 -2.13387e-21 -5.32989e-12)
(1.20827e-07 -1.92125e-08 6.76046e-20 -1.20818e-07 7.27004e-21 -9.06877e-12)
(1.16303e-07 -1.01403e-08 2.7659e-20 -1.16298e-07 2.83523e-21 -5.08095e-12)
(1.11253e-07 -1.89612e-09 4.67725e-20 -1.11234e-07 4.98901e-21 -1.91502e-11)
(1.05857e-07 5.35843e-09 5.41579e-20 -1.05867e-07 5.59086e-21 1.02548e-11)
(1.00104e-07 1.14237e-08 -4.19556e-20 -1.00051e-07 -4.50328e-21 -5.30668e-11)
(9.43834e-08 1.62408e-08 5.80533e-20 -9.44579e-08 6.35007e-21 7.44721e-11)
(8.8135e-08 2.02439e-08 -1.50384e-20 -8.79094e-08 -1.79848e-21 -2.25511e-10)
(8.35555e-08 2.3359e-08 -3.09111e-23 -8.41304e-08 7.42638e-23 5.74859e-10)
(7.71335e-08 2.55053e-08 1.25787e-20 -7.61465e-08 1.32618e-21 -9.8697e-10)
(7.48917e-08 2.69913e-08 -1.05304e-20 -7.64322e-08 -1.09308e-21 1.54043e-09)
(6.56107e-08 2.74745e-08 4.47011e-20 -6.31047e-08 5.08267e-21 -2.506e-09)
(6.7557e-08 2.75394e-08 3.40197e-20 -7.16169e-08 3.75423e-21 4.05984e-09)
(5.08446e-08 2.73768e-08 -5.69196e-24 -4.43671e-08 5.21593e-24 -6.47751e-09)
(6.39551e-08 2.56773e-08 4.3652e-20 -7.40768e-08 4.85324e-21 1.01217e-08)
(3.00046e-08 2.50844e-08 9.79829e-24 -1.4451e-08 -2.28455e-22 -1.55536e-08)
(6.97895e-08 2.017e-08 -1.47621e-19 -9.33134e-08 -1.66036e-20 2.35238e-08)
(-3.08217e-09 1.88963e-08 -3.71871e-20 3.82011e-08 -4.27608e-21 -3.5119e-08)
(9.49698e-08 2.05333e-08 -9.52457e-20 -1.4696e-07 -1.03338e-20 5.19904e-08)
(-5.54432e-08 -3.85391e-08 1.61422e-19 1.27444e-07 2.00056e-20 -7.2001e-08)
(1.33164e-07 5.46721e-08 -1.8742e-20 -2.22069e-07 -1.88456e-21 8.89048e-08)
(-1.13731e-07 -1.45322e-07 -7.39443e-25 1.03797e-07 2.7125e-23 9.93377e-09)
(-1.05237e-07 -1.2464e-07 3.64395e-24 9.69872e-08 2.38886e-23 8.24991e-09)
(-7.18988e-08 -5.65276e-08 -6.59373e-22 7.25044e-08 -8.72128e-23 -6.05671e-10)
(-7.49146e-08 -1.92983e-08 9.51971e-22 7.62328e-08 7.37408e-23 -1.31821e-09)
(-7.23439e-08 -1.60114e-08 1.7573e-22 7.23853e-08 5.07671e-23 -4.14153e-11)
(-5.57455e-08 -1.55254e-07 -7.83464e-22 5.55361e-08 -7.75804e-23 2.09441e-10)
(-2.24641e-08 -4.79569e-07 5.02042e-22 2.26172e-08 3.41443e-23 -1.53067e-10)
(-2.80213e-07 -4.66559e-05 2.27084e-22 2.94793e-07 4.54538e-22 -1.45803e-08)
(-1.84479e-05 -7.35637e-05 -2.48005e-22 1.83824e-05 6.28755e-22 6.55268e-08)
(-0.00071238 0.00297929 1.94905e-20 0.000711587 6.94082e-21 7.92657e-07)
(-0.00497688 0.0280146 -3.2534e-20 0.00498021 -1.20807e-19 -3.32398e-06)
(-0.0165553 0.0972992 1.4398e-17 0.0165641 1.41467e-18 -8.84481e-06)
(-0.0353063 0.203261 2.22959e-19 0.035306 2.46874e-19 2.97963e-07)
(-0.0559812 0.307951 -1.31819e-18 0.0559724 -6.34332e-19 8.79956e-06)
(-0.0711266 0.368264 4.06722e-17 0.0711189 4.10647e-18 7.69993e-06)
(-0.0742216 0.354418 2.96644e-18 0.0742146 6.49577e-19 7.02508e-06)
(-0.061887 0.258789 3.08324e-17 0.061883 2.17792e-18 4.0282e-06)
(-0.0353038 0.0991228 5.81308e-17 0.0353027 6.00479e-18 1.06868e-06)
(-0.000168698 -0.0861792 3.04112e-20 0.000162151 1.16116e-18 6.54738e-06)
(0.0344679 -0.247446 -3.84495e-17 -0.0344769 -3.02085e-18 8.99735e-06)
(0.0571431 -0.331697 -4.40493e-17 -0.0571429 -6.58452e-18 -1.67959e-07)
(0.0585781 -0.307201 1.74274e-16 -0.0585683 1.79073e-17 -9.79797e-06)
(0.0401401 -0.196895 -1.34051e-16 -0.0401336 -1.16643e-17 -6.4579e-06)
(0.0166006 -0.0777423 4.92184e-19 -0.0166008 -4.71543e-19 1.58682e-07)
(0.00309092 -0.014287 -8.37224e-18 -0.003091 -7.77535e-19 8.31088e-08)
(8.54898e-05 -0.000496236 -1.38201e-21 -8.55215e-05 -5.82151e-21 3.16807e-08)
(-1.60536e-05 2.13888e-05 -1.32042e-19 1.60074e-05 -1.27828e-20 4.61414e-08)
(-8.72237e-08 1.05545e-07 -4.06404e-24 8.71407e-08 1.62914e-23 8.29828e-11)
(-2.82545e-08 -9.32964e-08 -2.75603e-21 2.8446e-08 -2.63781e-22 -1.91448e-10)
(3.49512e-09 -1.80805e-07 -1.9747e-24 -3.30725e-09 -1.77354e-23 -1.87868e-10)
(5.45042e-09 -1.71889e-07 6.72587e-25 -5.38233e-09 -5.11782e-24 -6.80912e-11)
(5.0038e-10 -1.46207e-07 -1.317e-22 -4.93849e-10 -8.05375e-24 -6.53098e-12)
(4.49968e-10 -1.72529e-07 -1.66219e-21 -4.44138e-10 -1.06003e-22 -5.82961e-12)
(7.61483e-09 -2.41226e-07 -2.0968e-20 -7.59592e-09 -2.06966e-21 -1.89044e-11)
(1.49292e-08 -2.25691e-07 1.34638e-20 -1.49175e-08 1.24222e-21 -1.17544e-11)
(2.02594e-08 -2.05692e-07 -3.29282e-21 -2.02663e-08 -2.80626e-22 6.84328e-12)
(2.62475e-08 -2.00647e-07 1.17572e-24 -2.62698e-08 -1.45383e-23 2.22417e-11)
(3.29484e-08 -1.99198e-07 -3.73018e-21 -3.29821e-08 -3.42402e-22 3.37212e-11)
(3.96673e-08 -1.95774e-07 -7.21777e-21 -3.97077e-08 -7.03915e-22 4.04368e-11)
(4.6291e-08 -1.91135e-07 -5.00122e-25 -4.63372e-08 -8.96408e-24 4.61772e-11)
(5.29402e-08 -1.86341e-07 -7.48986e-24 -5.29895e-08 2.97365e-23 4.93634e-11)
(5.95867e-08 -1.81283e-07 1.07008e-20 -5.96417e-08 1.05638e-21 5.4992e-11)
(6.61098e-08 -1.75645e-07 -1.35886e-20 -6.61643e-08 -1.30077e-21 5.45534e-11)
(7.24405e-08 -1.69345e-07 -3.32176e-21 -7.24961e-08 -3.13097e-22 5.56129e-11)
(7.85328e-08 -1.62429e-07 -4.55642e-24 -7.85895e-08 1.7129e-23 5.67285e-11)
(8.43327e-08 -1.54934e-07 -8.58088e-24 -8.43877e-08 9.95134e-24 5.49154e-11)
(8.97842e-08 -1.46885e-07 1.63643e-23 -8.98384e-08 -4.89138e-23 5.42363e-11)
(9.48231e-08 -1.38322e-07 -1.87501e-23 -9.48745e-08 -3.75838e-23 5.14237e-11)
(9.93917e-08 -1.29282e-07 -2.5265e-20 -9.94417e-08 -2.40303e-21 4.99509e-11)
(1.0343e-07 -1.19832e-07 3.10836e-20 -1.03476e-07 3.16268e-21 4.56568e-11)
(1.06891e-07 -1.10038e-07 2.93977e-21 -1.06933e-07 1.97791e-22 4.25719e-11)
(1.09726e-07 -9.99802e-08 1.82355e-23 -1.09766e-07 -7.02757e-24 3.99087e-11)
(1.11893e-07 -8.97426e-08 1.78293e-23 -1.11928e-07 -7.42612e-24 3.45258e-11)
(1.13367e-07 -7.94128e-08 3.82774e-24 -1.13398e-07 -8.15122e-23 3.11103e-11)
(1.14126e-07 -6.90904e-08 -2.01425e-20 -1.14152e-07 -2.01506e-21 2.67294e-11)
(1.14162e-07 -5.8879e-08 -2.6524e-21 -1.14184e-07 -1.93053e-22 2.22203e-11)
(1.13482e-07 -4.88768e-08 1.27686e-21 -1.135e-07 1.95601e-22 1.79874e-11)
(1.12104e-07 -3.91866e-08 2.29623e-20 -1.12119e-07 2.41341e-21 1.47747e-11)
(1.10054e-07 -2.98878e-08 8.59166e-21 -1.10065e-07 5.41379e-22 1.08842e-11)
(1.07371e-07 -2.10499e-08 -9.18298e-20 -1.07377e-07 -9.6662e-21 6.02611e-12)
(1.04111e-07 -1.27465e-08 -1.61929e-20 -1.0412e-07 -1.43399e-21 9.85638e-12)
(1.00312e-07 -5.09352e-09 1.84198e-20 -1.00303e-07 1.79667e-21 -9.27832e-12)
(9.6149e-08 1.72635e-09 -8.87775e-20 -9.61726e-08 -9.40555e-21 2.35802e-11)
(9.15701e-08 7.51297e-09 3.1535e-20 -9.1524e-08 3.54173e-21 -4.60597e-11)