/*--------------------------------*- C++ -*----------------------------------*\
| =========                 |                                                 |
| \\      /  F ield         | OpenFOAM: The Open Source CFD Toolbox           |
|  \\    /   O peration     | Version:  2306                                  |
|   \\  /    A nd           | Website:  www.openfoam.com                      |
|    \\/     M anipulation  |                                                 |
\*---------------------------------------------------------------------------*/
FoamFile
{
    version     2.0;
    format      ascii;
    arch        "LSB;label=32;scalar=64";
    class       volScalarField;
    location    "325";
    object      turbulenceProperties:nuEff;
}
// * * * * * * * * * * * * * * * * * * * * * * * * * * * * * * * * * * * * * //

dimensions      [0 2 -1 0 0 0 0];

internalField   nonuniform List<scalar> 
1340
(
1.6102e-05
1.61028e-05
1.61023e-05
1.60833e-05
1.61034e-05
1.61028e-05
1.60813e-05
1.60833e-05
1.61041e-05
1.61033e-05
1.60723e-05
1.60746e-05
1.60812e-05
1.60832e-05
1.61048e-05
1.61039e-05
1.60774e-05
1.60731e-05
1.60723e-05
1.60745e-05
1.60811e-05
1.6083e-05
1.61055e-05
1.61046e-05
1.60902e-05
1.60864e-05
1.60822e-05
1.60778e-05
1.60733e-05
1.60723e-05
1.60744e-05
1.6081e-05
1.60829e-05
1.61063e-05
1.61054e-05
1.60996e-05
1.60967e-05
1.60941e-05
1.60908e-05
1.6087e-05
1.60827e-05
1.60783e-05
1.60736e-05
1.60722e-05
1.60743e-05
1.60809e-05
1.60827e-05
1.61071e-05
1.61063e-05
1.61121e-05
1.611e-05
1.61073e-05
1.61039e-05
1.61004e-05
1.60974e-05
1.60948e-05
1.60915e-05
1.60876e-05
1.60832e-05
1.60787e-05
1.60739e-05
1.60722e-05
1.60742e-05
1.60808e-05
1.60825e-05
1.61079e-05
1.61073e-05
1.61186e-05
1.61179e-05
1.61169e-05
1.61159e-05
1.61146e-05
1.6113e-05
1.61109e-05
1.61082e-05
1.61048e-05
1.61012e-05
1.60982e-05
1.60955e-05
1.60922e-05
1.60882e-05
1.60838e-05
1.60792e-05
1.60742e-05
1.60723e-05
1.60741e-05
1.60806e-05
1.60822e-05
1.61087e-05
1.61084e-05
1.61212e-05
1.61212e-05
1.61211e-05
1.61211e-05
1.61209e-05
1.61206e-05
1.61201e-05
1.61195e-05
1.61188e-05
1.61179e-05
1.61168e-05
1.61155e-05
1.6114e-05
1.61119e-05
1.61091e-05
1.61057e-05
1.61021e-05
1.6099e-05
1.60962e-05
1.60929e-05
1.60889e-05
1.60844e-05
1.60798e-05
1.60746e-05
1.60723e-05
1.6074e-05
1.60805e-05
1.6082e-05
1.61096e-05
1.61096e-05
1.61229e-05
1.61237e-05
1.61235e-05
1.61232e-05
1.6123e-05
1.61227e-05
1.61224e-05
1.61223e-05
1.61222e-05
1.61222e-05
1.61222e-05
1.61222e-05
1.61221e-05
1.61221e-05
1.61221e-05
1.6122e-05
1.61218e-05
1.61215e-05
1.61211e-05
1.61205e-05
1.61197e-05
1.61188e-05
1.61177e-05
1.61165e-05
1.61149e-05
1.61129e-05
1.61101e-05
1.61067e-05
1.6103e-05
1.60998e-05
1.6097e-05
1.60937e-05
1.60897e-05
1.60851e-05
1.60803e-05
1.60751e-05
1.60724e-05
1.60739e-05
1.60804e-05
1.60817e-05
1.61104e-05
1.61109e-05
1.00046e-05
1e-05
1e-05
1e-05
0.000149483
0.000455579
0.0160835
0.0551184
0.112539
0.175926
0.235324
0.285414
0.32386
0.350198
0.365608
0.372434
0.373596
0.362618
0.330769
0.271981
0.188882
0.0997162
0.0332823
0.002081
0.000580733
1e-05
1e-05
1e-05
1.00017e-05
1.04137e-05
1.62295e-05
1.80159e-05
1.6454e-05
1.59067e-05
1.60331e-05
1.61415e-05
1.61419e-05
1.61283e-05
1.61262e-05
1.61258e-05
1.61244e-05
1.61236e-05
1.61236e-05
1.61235e-05
1.61234e-05
1.61232e-05
1.61232e-05
1.61231e-05
1.61231e-05
1.61231e-05
1.6123e-05
1.6123e-05
1.61229e-05
1.61228e-05
1.61225e-05
1.61221e-05
1.61215e-05
1.61208e-05
1.61198e-05
1.61188e-05
1.61175e-05
1.6116e-05
1.61139e-05
1.61112e-05
1.61077e-05
1.61039e-05
1.61007e-05
1.60979e-05
1.60945e-05
1.60905e-05
1.60858e-05
1.60809e-05
1.60755e-05
1.60725e-05
1.60738e-05
1.60802e-05
1.60813e-05
1.61112e-05
1.61123e-05
1.62625e-05
1.00212e-05
1.00001e-05
1e-05
1e-05
1.00014e-05
0.00209356
0.00819708
0.0366142
0.0874296
0.150194
0.212961
0.26804
0.311677
0.342581
0.361329
0.370491
0.372796
0.364187
0.335925
0.281096
0.201069
0.112069
0.0399471
0.00368287
0.00102903
1e-05
1e-05
1e-05
1.00003e-05
1.00628e-05
1.5141e-05
1.872e-05
1.69669e-05
1.59838e-05
1.5994e-05
1.61212e-05
1.61327e-05
1.61189e-05
1.61217e-05
1.6127e-05
1.61268e-05
1.6125e-05
1.61242e-05
1.61242e-05
1.61243e-05
1.61242e-05
1.61241e-05
1.61241e-05
1.61241e-05
1.6124e-05
1.6124e-05
1.61239e-05
1.61238e-05
1.61235e-05
1.61231e-05
1.61226e-05
1.61218e-05
1.61209e-05
1.61198e-05
1.61186e-05
1.6117e-05
1.6115e-05
1.61123e-05
1.61088e-05
1.6105e-05
1.61017e-05
1.60988e-05
1.60954e-05
1.60913e-05
1.60865e-05
1.60816e-05
1.6076e-05
1.60727e-05
1.60736e-05
1.60801e-05
1.6081e-05
1.61121e-05
1.61138e-05
1.80241e-05
1.64434e-05
1.00808e-05
1.00004e-05
1e-05
1e-05
1e-05
0.000629498
0.00228504
0.021159
0.0632028
0.122789
0.187618
0.247515
0.296743
0.33289
0.355942
0.368011
0.371635
0.365318
0.340563
0.289779
0.212991
0.123862
0.0475426
0.00670755
0.00181398
1e-05
1e-05
1e-05
1e-05
1.00001e-05
1.28068e-05
1.82467e-05
1.72965e-05
1.60782e-05
1.59976e-05
1.61674e-05
1.61832e-05
1.61338e-05
1.61152e-05
1.61214e-05
1.61271e-05
1.61271e-05
1.61257e-05
1.61251e-05
1.61252e-05
1.61252e-05
1.61252e-05
1.61251e-05
1.61251e-05
1.61251e-05
1.6125e-05
1.61249e-05
1.61246e-05
1.61242e-05
1.61237e-05
1.6123e-05
1.6122e-05
1.6121e-05
1.61197e-05
1.61182e-05
1.61162e-05
1.61135e-05
1.611e-05
1.61061e-05
1.61027e-05
1.60997e-05
1.60963e-05
1.60922e-05
1.60873e-05
1.60823e-05
1.60766e-05
1.60729e-05
1.60735e-05
1.60799e-05
1.60806e-05
1.61129e-05
1.61154e-05
1.62305e-05
1.77952e-05
1.63513e-05
1.04866e-05
1.00023e-05
1e-05
1e-05
1e-05
1.11057e-05
0.00262286
0.010196
0.0420104
0.0953622
0.160221
0.224344
0.279433
0.321399
0.349314
0.364627
0.369667
0.365506
0.344184
0.297528
0.224068
0.13504
0.0554027
0.0101841
0.00269696
1e-05
1e-05
1e-05
1e-05
1.0008e-05
1.1953e-05
1.79103e-05
1.76859e-05
1.60028e-05
1.56804e-05
1.59848e-05
1.61818e-05
1.61795e-05
1.61339e-05
1.61185e-05
1.61227e-05
1.6127e-05
1.61274e-05
1.61266e-05
1.61262e-05
1.61262e-05
1.61263e-05
1.61262e-05
1.61262e-05
1.61261e-05
1.6126e-05
1.61258e-05
1.61254e-05
1.61249e-05
1.61242e-05
1.61232e-05
1.61221e-05
1.61209e-05
1.61194e-05
1.61174e-05
1.61148e-05
1.61113e-05
1.61073e-05
1.61038e-05
1.61008e-05
1.60973e-05
1.60931e-05
1.60882e-05
1.60831e-05
1.60772e-05
1.60731e-05
1.60734e-05
1.60797e-05
1.60803e-05
1.61136e-05
1.6117e-05
1.60159e-05
1.62259e-05
1.74497e-05
1.64617e-05
1.18359e-05
1.00084e-05
1e-05
1e-05
1e-05
1e-05
0.000951019
0.00354863
0.0243756
0.0681064
0.129385
0.196272
0.257817
0.307239
0.341768
0.36167
0.369136
0.366791
0.348625
0.306195
0.236284
0.147915
0.0649431
0.0134882
0.00394469
0.000123325
1e-05
1e-05
1e-05
1.00032e-05
1.07111e-05
1.68971e-05
1.97192e-05
1.75919e-05
1.60446e-05
1.57939e-05
1.60104e-05
1.61572e-05
1.6165e-05
1.61355e-05
1.61233e-05
1.6125e-05
1.61277e-05
1.6128e-05
1.61275e-05
1.61273e-05
1.61273e-05
1.61273e-05
1.61273e-05
1.61272e-05
1.6127e-05
1.61266e-05
1.61261e-05
1.61254e-05
1.61245e-05
1.61234e-05
1.61221e-05
1.61206e-05
1.61187e-05
1.61161e-05
1.61126e-05
1.61085e-05
1.61049e-05
1.61019e-05
1.60984e-05
1.60942e-05
1.60891e-05
1.60839e-05
1.60779e-05
1.60734e-05
1.60732e-05
1.60795e-05
1.60799e-05
1.61143e-05
1.61188e-05
1.61344e-05
1.60639e-05
1.62014e-05
1.67728e-05
1.66473e-05
1.45691e-05
1.01762e-05
1.00009e-05
1e-05
1e-05
1e-05
1.2982e-05
0.00247111
0.00944177
0.0351334
0.080347
0.140202
0.204633
0.263832
0.311111
0.343415
0.360938
0.364495
0.353838
0.322283
0.264915
0.186029
0.102502
0.0404494
0.00587047
0.00196885
2.50752e-05
1e-05
1e-05
1e-05
1.0002e-05
1.02717e-05
1.45686e-05
1.84534e-05
1.76424e-05
1.62826e-05
1.5878e-05
1.59987e-05
1.61366e-05
1.61586e-05
1.61366e-05
1.61256e-05
1.61268e-05
1.6129e-05
1.61292e-05
1.61289e-05
1.61287e-05
1.61287e-05
1.61287e-05
1.61285e-05
1.61282e-05
1.61277e-05
1.6127e-05
1.61261e-05
1.6125e-05
1.61237e-05
1.61222e-05
1.61203e-05
1.61177e-05
1.61143e-05
1.61101e-05
1.61064e-05
1.61032e-05
1.60997e-05
1.60954e-05
1.60903e-05
1.60849e-05
1.60787e-05
1.60738e-05
1.60731e-05
1.60793e-05
1.60796e-05
1.6115e-05
1.61207e-05
1.61389e-05
1.61347e-05
1.60797e-05
1.61321e-05
1.63922e-05
1.72409e-05
1.60816e-05
1.31083e-05
1.0003e-05
1e-05
1e-05
1e-05
1e-05
5.19512e-05
0.00230863
0.0085137
0.0314648
0.0735917
0.131053
0.194867
0.255027
0.303993
0.337942
0.355887
0.3579
0.3421
0.302538
0.237688
0.157958
0.0821161
0.0296235
0.0025842
0.000953928
1e-05
1e-05
1e-05
1e-05
1.00024e-05
1.04549e-05
1.52425e-05
1.85689e-05
1.73938e-05
1.61374e-05
1.58891e-05
1.60521e-05
1.61583e-05
1.61554e-05
1.6133e-05
1.61274e-05
1.61299e-05
1.61312e-05
1.6131e-05
1.61307e-05
1.61305e-05
1.61304e-05
1.61301e-05
1.61296e-05
1.61289e-05
1.6128e-05
1.61269e-05
1.61256e-05
1.61241e-05
1.61222e-05
1.61197e-05
1.61162e-05
1.6112e-05
1.61081e-05
1.61048e-05
1.61012e-05
1.60969e-05
1.60916e-05
1.6086e-05
1.60797e-05
1.60743e-05
1.6073e-05
1.60791e-05
1.60792e-05
1.61156e-05
1.61227e-05
1.61277e-05
1.61327e-05
1.6127e-05
1.61062e-05
1.60962e-05
1.62842e-05
1.6779e-05
1.72793e-05
1.53447e-05
1.10775e-05
1.00051e-05
1e-05
1e-05
1e-05
1e-05
4.73053e-05
0.00202002
0.00737053
0.0293366
0.0704878
0.127453
0.191496
0.252436
0.302206
0.33628
0.352391
0.350281
0.326396
0.276861
0.205791
0.127211
0.0593909
0.0165855
0.00467633
0.000129466
1e-05
1e-05
1e-05
1e-05
1.00067e-05
1.14538e-05
1.71871e-05
1.82849e-05
1.66773e-05
1.59004e-05
1.59428e-05
1.6117e-05
1.61628e-05
1.61427e-05
1.61297e-05
1.61301e-05
1.61322e-05
1.61326e-05
1.61325e-05
1.61324e-05
1.61321e-05
1.61316e-05
1.6131e-05
1.61301e-05
1.6129e-05
1.61277e-05
1.61261e-05
1.61242e-05
1.61217e-05
1.61183e-05
1.61141e-05
1.611e-05
1.61065e-05
1.61028e-05
1.60984e-05
1.60931e-05
1.60873e-05
1.60808e-05
1.6075e-05
1.60729e-05
1.60788e-05
1.60789e-05
1.61162e-05
1.61247e-05
1.61255e-05
1.61279e-05
1.61269e-05
1.61177e-05
1.60903e-05
1.61671e-05
1.64194e-05
1.72154e-05
1.68258e-05
1.42243e-05
1.0092e-05
1.00004e-05
1e-05
1e-05
1e-05
1e-05
3.96452e-05
0.00200633
0.00734604
0.0294467
0.0709671
0.128561
0.193389
0.254859
0.30413
0.336081
0.347308
0.337947
0.304107
0.245356
0.170196
0.0944168
0.0374569
0.00633563
0.00189871
1.00662e-05
1e-05
1e-05
1e-05
1.00006e-05
1.01105e-05
1.42415e-05
1.86147e-05
1.75074e-05
1.61515e-05
1.58932e-05
1.60604e-05
1.61585e-05
1.61545e-05
1.61375e-05
1.61341e-05
1.61348e-05
1.61345e-05
1.61341e-05
1.6134e-05
1.61337e-05
1.61331e-05
1.61323e-05
1.61311e-05
1.61298e-05
1.61282e-05
1.61264e-05
1.61239e-05
1.61206e-05
1.61162e-05
1.6112e-05
1.61084e-05
1.61046e-05
1.61001e-05
1.60947e-05
1.60887e-05
1.60819e-05
1.60757e-05
1.60729e-05
1.60785e-05
1.60785e-05
1.61166e-05
1.61268e-05
1.6124e-05
1.61246e-05
1.61256e-05
1.61277e-05
1.61188e-05
1.6106e-05
1.60849e-05
1.62566e-05
1.66812e-05
1.73451e-05
1.60805e-05
1.17406e-05
1.00082e-05
1e-05
1e-05
1e-05
1e-05
1e-05
4.38598e-05
0.00224673
0.008319
0.0318787
0.0751816
0.134551
0.200438
0.261539
0.308276
0.335286
0.339744
0.320692
0.27578
0.208198
0.13116
0.0626743
0.0188914
0.000555028
0.000260648
1e-05
1e-05
1e-05
1e-05
1e-05
1.16017e-05
1.73633e-05
1.81471e-05
1.65298e-05
1.59079e-05
1.59942e-05
1.61288e-05
1.61473e-05
1.61339e-05
1.61336e-05
1.61378e-05
1.61382e-05
1.61367e-05
1.61358e-05
1.61352e-05
1.61345e-05
1.61334e-05
1.61321e-05
1.61305e-05
1.61286e-05
1.61262e-05
1.61229e-05
1.61186e-05
1.61142e-05
1.61104e-05
1.61064e-05
1.61019e-05
1.60964e-05
1.60902e-05
1.60832e-05
1.60766e-05
1.60729e-05
1.60782e-05
1.60781e-05
1.61169e-05
1.61288e-05
1.61239e-05
1.61241e-05
1.61243e-05
1.61252e-05
1.61262e-05
1.61244e-05
1.61108e-05
1.60863e-05
1.61267e-05
1.63459e-05
1.70739e-05
1.70084e-05
1.45638e-05
1.01141e-05
1.00006e-05
1e-05
1e-05
1e-05
1e-05
1e-05
6.15133e-05
0.00257786
0.00957678
0.0364339
0.0832542
0.145384
0.212124
0.271314
0.313395
0.332692
0.32786
0.296903
0.239969
0.165624
0.0908876
0.0353924
0.00565451
0.00165331
1.05115e-05
1e-05
1e-05
1e-05
1.00017e-05
1.03625e-05
1.56344e-05
1.85597e-05
1.70689e-05
1.60491e-05
1.60093e-05
1.61629e-05
1.61815e-05
1.61419e-05
1.61275e-05
1.61336e-05
1.61389e-05
1.61392e-05
1.61379e-05
1.61369e-05
1.61358e-05
1.61345e-05
1.61329e-05
1.6131e-05
1.61286e-05
1.61254e-05
1.61211e-05
1.61166e-05
1.61126e-05
1.61085e-05
1.61039e-05
1.60982e-05
1.60919e-05
1.60847e-05
1.60776e-05
1.60731e-05
1.60779e-05
1.60777e-05
1.61171e-05
1.61307e-05
1.61242e-05
1.61244e-05
1.61245e-05
1.61247e-05
1.61253e-05
1.6126e-05
1.6127e-05
1.61182e-05
1.61024e-05
1.60724e-05
1.62052e-05
1.65704e-05
1.74124e-05
1.57577e-05
1.24037e-05
1e-05
1e-05
1e-05
1e-05
1e-05
1e-05
1e-05
0.000360393
0.0010896
0.0134942
0.0442726
0.0959915
0.161246
0.227877
0.282962
0.317542
0.326484
0.309417
0.26466
0.19668
0.120299
0.0544385
0.0144021
0.000872999
0.000282297
1e-05
1e-05
1e-05
1.00001e-05
1.00185e-05
1.31974e-05
1.82524e-05
1.73673e-05
1.59223e-05
1.57518e-05
1.6058e-05
1.62094e-05
1.61881e-05
1.61467e-05
1.61355e-05
1.61382e-05
1.61401e-05
1.61396e-05
1.61383e-05
1.61369e-05
1.61353e-05
1.61334e-05
1.61311e-05
1.61279e-05
1.61237e-05
1.61192e-05
1.61149e-05
1.61106e-05
1.61059e-05
1.61001e-05
1.60936e-05
1.60862e-05
1.60787e-05
1.60733e-05
1.60775e-05
1.60773e-05
1.61171e-05
1.61326e-05
1.61248e-05
1.61249e-05
1.61251e-05
1.61252e-05
1.61254e-05
1.61256e-05
1.61266e-05
1.61273e-05
1.61261e-05
1.61115e-05
1.60876e-05
1.60939e-05
1.63536e-05
1.69269e-05
1.72956e-05
1.44736e-05
1.06409e-05
1.0003e-05
1e-05
1e-05
1e-05
1e-05
1e-05
1.00485e-05
0.000601044
0.00190557
0.0185274
0.0561613
0.113682
0.181674
0.246142
0.29399
0.317147
0.312978
0.280164
0.220622
0.145482
0.0737423
0.0254283
0.00319304
0.000745473
1e-05
1e-05
1e-05
1e-05
1.0007e-05
1.16671e-05
1.88421e-05
1.97288e-05
1.69415e-05
1.57722e-05
1.58161e-05
1.60734e-05
1.61685e-05
1.6161e-05
1.61453e-05
1.61415e-05
1.61416e-05
1.61411e-05
1.61398e-05
1.61381e-05
1.61362e-05
1.61339e-05
1.61308e-05
1.61266e-05
1.61221e-05
1.61177e-05
1.61131e-05
1.61082e-05
1.61024e-05
1.60957e-05
1.6088e-05
1.60802e-05
1.60739e-05
1.60771e-05
1.60768e-05
1.61166e-05
1.61346e-05
1.61252e-05
1.61254e-05
1.61255e-05
1.61257e-05
1.61259e-05
1.61261e-05
1.61263e-05
1.61268e-05
1.61278e-05
1.61288e-05
1.6122e-05
1.61023e-05
1.60722e-05
1.61954e-05
1.65779e-05
1.74102e-05
1.65496e-05
1.34102e-05
1.0204e-05
1.0001e-05
1e-05
1e-05
1e-05
1e-05
1e-05
1.05644e-05
0.00152072
0.00557729
0.0282765
0.0739233
0.138509
0.209709
0.271723
0.311722
0.32174
0.300775
0.24873
0.173395
0.0939854
0.0308379
0.00923433
0.00105994
0.000455959
0.000145934
1.20561e-05
1e-05
1e-05
1e-05
1.26368e-05
1.8487e-05
1.83549e-05
1.66784e-05
1.60611e-05
1.6051e-05
1.61272e-05
1.61506e-05
1.61479e-05
1.61443e-05
1.6143e-05
1.61419e-05
1.61403e-05
1.61384e-05
1.61361e-05
1.61331e-05
1.6129e-05
1.61244e-05
1.61198e-05
1.6115e-05
1.611e-05
1.61042e-05
1.60973e-05
1.60894e-05
1.60812e-05
1.60743e-05
1.6077e-05
1.60764e-05
1.61172e-05
1.6136e-05
1.61257e-05
1.61259e-05
1.61261e-05
1.61264e-05
1.61266e-05
1.61269e-05
1.61271e-05
1.61274e-05
1.61276e-05
1.61286e-05
1.61297e-05
1.61304e-05
1.61158e-05
1.60953e-05
1.60791e-05
1.63081e-05
1.68407e-05
1.741e-05
1.63196e-05
1.32818e-05
1.01576e-05
1.00006e-05
1e-05
1e-05
1e-05
1e-05
1e-05
3.9829e-05
0.00172149
0.00587553
0.0274569
0.0686561
0.125434
0.187568
0.242101
0.278039
0.287168
0.266836
0.218716
0.152936
0.0885178
0.042898
0.0173886
0.0055547
0.00105576
0.000241018
1e-05
1e-05
1.00024e-05
1.04881e-05
1.38714e-05
1.6334e-05
1.65097e-05
1.6242e-05
1.61416e-05
1.61403e-05
1.61487e-05
1.61498e-05
1.61485e-05
1.6147e-05
1.61454e-05
1.61434e-05
1.61411e-05
1.61382e-05
1.61343e-05
1.61298e-05
1.61251e-05
1.61198e-05
1.61144e-05
1.61083e-05
1.61013e-05
1.60928e-05
1.60843e-05
1.60756e-05
1.6077e-05
1.60757e-05
1.61145e-05
1.61395e-05
)
;

boundaryField
{
    inlet
    {
        type            calculated;
        value           nonuniform List<scalar> 
27
(
1.6102e-05
1.61023e-05
1.61028e-05
1.61033e-05
1.61039e-05
1.61046e-05
1.61054e-05
1.61063e-05
1.61073e-05
1.61084e-05
1.61096e-05
1.61109e-05
1.61123e-05
1.61138e-05
1.61154e-05
1.6117e-05
1.61188e-05
1.61207e-05
1.61227e-05
1.61247e-05
1.61268e-05
1.61288e-05
1.61307e-05
1.61326e-05
1.61346e-05
1.6136e-05
1.61395e-05
)
;
    }
    outlet
    {
        type            calculated;
        value           nonuniform List<scalar> 
78
(
1.61257e-05
1.61259e-05
1.61261e-05
1.61264e-05
1.61266e-05
1.61269e-05
1.61271e-05
1.61274e-05
1.61276e-05
1.61286e-05
1.61297e-05
1.61304e-05
1.61158e-05
1.60953e-05
1.60791e-05
1.63081e-05
1.68407e-05
1.741e-05
1.63196e-05
1.32818e-05
1.01576e-05
1.00006e-05
1e-05
1e-05
1e-05
1e-05
1e-05
3.9829e-05
0.00172149
0.00587553
0.0274569
0.0686561
0.125434
0.187568
0.242101
0.278039
0.287168
0.266836
0.218716
0.152936
0.0885178
0.042898
0.0173886
0.0055547
0.00105576
0.000241018
1e-05
1e-05
1.00024e-05
1.04881e-05
1.38714e-05
1.6334e-05
1.65097e-05
1.6242e-05
1.61416e-05
1.61403e-05
1.61487e-05
1.61498e-05
1.61485e-05
1.6147e-05
1.61454e-05
1.61434e-05
1.61411e-05
1.61382e-05
1.61343e-05
1.61298e-05
1.61251e-05
1.61198e-05
1.61144e-05
1.61083e-05
1.61013e-05
1.60928e-05
1.60843e-05
1.60756e-05
1.6077e-05
1.60757e-05
1.61145e-05
1.61395e-05
)
;
    }
    walls
    {
        type            calculated;
        value           nonuniform List<scalar> 0();
    }
    frontAndBack
    {
        type            empty;
    }
    procBoundary7to3
    {
        type            processor;
        value           nonuniform List<scalar> 
16
(
1.57471e-05
1.79197e-05
1.63228e-05
1.60179e-05
1.61319e-05
1.61465e-05
1.61318e-05
1.61265e-05
1.61248e-05
1.61248e-05
1.61239e-05
1.61237e-05
1.6124e-05
1.61246e-05
1.61251e-05
1.61255e-05
)
;
    }
    procBoundary7to6
    {
        type            processor;
        value           nonuniform List<scalar> 
91
(
1.61018e-05
1.61022e-05
1.61022e-05
1.60834e-05
1.60834e-05
1.60815e-05
1.60815e-05
1.60724e-05
1.60746e-05
1.60746e-05
1.60771e-05
1.60729e-05
1.60729e-05
1.60897e-05
1.60859e-05
1.60817e-05
1.60817e-05
1.60989e-05
1.60961e-05
1.60935e-05
1.60935e-05
1.61113e-05
1.61092e-05
1.61064e-05
1.61031e-05
1.61031e-05
1.61178e-05
1.6117e-05
1.61161e-05
1.6115e-05
1.61137e-05
1.61137e-05
1.61203e-05
1.61203e-05
1.61203e-05
1.61202e-05
1.612e-05
1.61197e-05
1.61192e-05
1.61192e-05
1.61238e-05
1.61232e-05
1.61226e-05
1.61222e-05
1.61219e-05
1.61216e-05
1.61215e-05
1.61214e-05
1.61213e-05
1.61213e-05
1.61213e-05
1.61212e-05
1.61212e-05
1e-05
1e-05
1e-05
0.00120758
0.00469282
0.0287577
0.0762413
0.137106
0.199036
0.254453
0.299786
0.333592
0.356006
0.368819
0.374605
0.374419
0.360734
0.325111
0.26242
0.17658
0.0877361
0.0253644
0.000514503
0.000169703
1e-05
1e-05
1e-05
1.00041e-05
1.09916e-05
1.68869e-05
1.76367e-05
1.62906e-05
1.59611e-05
1.6087e-05
1.61482e-05
1.61347e-05
1.61233e-05
1.61233e-05
)
;
    }
}


// ************************************************************************* //
