/*--------------------------------*- C++ -*----------------------------------*\
| =========                 |                                                 |
| \\      /  F ield         | OpenFOAM: The Open Source CFD Toolbox           |
|  \\    /   O peration     | Version:  2306                                  |
|   \\  /    A nd           | Website:  www.openfoam.com                      |
|    \\/     M anipulation  |                                                 |
\*---------------------------------------------------------------------------*/
FoamFile
{
    version     2.0;
    format      ascii;
    arch        "LSB;label=32;scalar=64";
    class       volScalarField;
    location    "325";
    object      turbulenceProperties:k;
}
// * * * * * * * * * * * * * * * * * * * * * * * * * * * * * * * * * * * * * //

dimensions      [0 2 -2 0 0 0 0];

internalField   nonuniform List<scalar> 
1340
(
9.39547e-07
7.13983e-07
9.53254e-07
6.92385e-07
6.91752e-07
9.52955e-07
2.88925e-07
6.83497e-07
6.7703e-07
9.56872e-07
2.58141e-07
4.73938e-07
2.86223e-07
6.76392e-07
6.64487e-07
9.63331e-07
3.67403e-07
4.31614e-07
2.50379e-07
4.6521e-07
2.83427e-07
6.69974e-07
6.54337e-07
9.69888e-07
5.18221e-07
4.54889e-07
4.54885e-07
3.52679e-07
4.19578e-07
2.42234e-07
4.56686e-07
2.80709e-07
6.64461e-07
6.47043e-07
9.76026e-07
5.98717e-07
5.61805e-07
5.17178e-07
4.9562e-07
4.34501e-07
4.3796e-07
3.37731e-07
4.07419e-07
2.33825e-07
4.48557e-07
2.78055e-07
6.59983e-07
6.42439e-07
9.81629e-07
7.59807e-07
7.08052e-07
6.5844e-07
6.11347e-07
5.65333e-07
5.3242e-07
4.90654e-07
4.72706e-07
4.13925e-07
4.20778e-07
3.22653e-07
3.95194e-07
2.25213e-07
4.40752e-07
2.75479e-07
6.56296e-07
6.399e-07
9.87525e-07
9.61262e-07
9.0585e-07
8.52286e-07
8.00708e-07
7.51189e-07
7.03757e-07
6.58486e-07
6.14757e-07
5.73217e-07
5.31814e-07
5.02821e-07
4.63917e-07
4.4948e-07
3.93159e-07
4.03336e-07
3.07443e-07
3.82862e-07
2.16421e-07
4.33114e-07
2.73031e-07
6.5313e-07
6.3899e-07
9.92752e-07
1.21796e-06
1.16726e-06
1.11638e-06
1.06556e-06
1.01509e-06
9.65228e-07
9.16208e-07
8.68231e-07
8.21469e-07
7.76038e-07
7.32041e-07
6.89581e-07
6.48677e-07
6.09518e-07
5.71388e-07
5.35188e-07
4.9829e-07
4.73122e-07
4.37073e-07
4.26031e-07
3.72277e-07
3.85684e-07
2.92165e-07
3.70428e-07
2.07503e-07
4.25577e-07
2.70695e-07
6.5037e-07
6.40184e-07
9.97916e-07
1.46195e-06
1.43834e-06
1.41306e-06
1.38603e-06
1.35714e-06
1.32638e-06
1.2938e-06
1.25949e-06
1.22357e-06
1.18623e-06
1.14763e-06
1.10796e-06
1.06747e-06
1.02639e-06
9.84956e-07
9.43374e-07
9.019e-07
8.60745e-07
8.20112e-07
7.80181e-07
7.41093e-07
7.02952e-07
6.65832e-07
6.29838e-07
5.94969e-07
5.61513e-07
5.28657e-07
4.97542e-07
4.6501e-07
4.43541e-07
4.10319e-07
4.02514e-07
3.51423e-07
3.67922e-07
2.7691e-07
3.57932e-07
1.98547e-07
4.18159e-07
2.68419e-07
6.47958e-07
6.42496e-07
1.00301e-06
2.11485e-08
1.28887e-09
0
0
3.82843e-05
7.86843e-05
0.00691132
0.0876365
0.339065
0.750547
1.18987
1.49747
1.55006
1.28987
0.743903
0.0788345
0.718706
1.25856
1.42619
1.16616
0.651216
0.21196
0.0292683
0.000310107
3.52814e-05
0
0
0
2.73061e-08
3.73655e-07
1.40451e-06
1.56808e-06
1.37501e-06
1.28972e-06
1.28361e-06
1.27762e-06
1.26056e-06
1.24182e-06
1.22355e-06
1.20435e-06
1.18363e-06
1.1614e-06
1.13764e-06
1.11228e-06
1.08537e-06
1.05701e-06
1.02734e-06
9.96531e-07
9.64718e-07
9.32091e-07
8.98856e-07
8.65222e-07
8.31346e-07
7.97447e-07
7.63707e-07
7.30291e-07
6.97355e-07
6.65023e-07
6.33362e-07
6.02421e-07
5.72303e-07
5.42965e-07
5.14786e-07
4.86855e-07
4.60535e-07
4.32199e-07
4.14273e-07
3.83833e-07
3.79086e-07
3.30717e-07
3.50137e-07
2.61793e-07
3.4538e-07
1.89623e-07
4.10709e-07
2.66278e-07
6.45743e-07
6.46096e-07
1.00805e-06
8.1043e-07
3.95597e-08
2.53752e-09
0
0
6.62752e-08
0.000503246
0.000888668
0.0351164
0.192233
0.517005
0.926367
1.2687
1.40692
1.26111
0.83085
0.208315
0.488356
1.03671
1.27203
1.10738
0.66427
0.240157
0.0382437
0.00072568
6.05936e-05
0
0
0
1.0058e-08
1.23357e-07
1.0627e-06
1.36702e-06
1.1944e-06
1.08428e-06
1.06903e-06
1.06689e-06
1.05453e-06
1.03939e-06
1.02492e-06
1.00964e-06
9.92619e-07
9.7409e-07
9.54257e-07
9.33129e-07
9.10705e-07
8.87109e-07
8.6248e-07
8.36942e-07
8.10659e-07
7.83812e-07
7.56572e-07
7.2908e-07
7.01522e-07
6.74047e-07
6.468e-07
6.19906e-07
5.93464e-07
5.67524e-07
5.42094e-07
5.17271e-07
4.92961e-07
4.69626e-07
4.46248e-07
4.24416e-07
4.00076e-07
3.85515e-07
3.5779e-07
3.55899e-07
3.1031e-07
3.32448e-07
2.46894e-07
3.32813e-07
1.80748e-07
4.03312e-07
2.64067e-07
6.43607e-07
6.49774e-07
1.0134e-06
8.31862e-07
7.18295e-07
7.26851e-08
4.26108e-09
0
0
0
0.000153205
0.000251678
0.0102058
0.09483
0.328968
0.687647
1.04328
1.25019
1.20698
0.886926
0.35073
0.287257
0.832761
1.12191
1.04241
0.669782
0.264962
0.0487149
0.001676
8.86106e-05
0
0
0
6.79068e-10
3.79563e-09
6.43575e-07
1.10472e-06
1.02406e-06
9.14947e-07
8.94052e-07
8.95634e-07
8.8641e-07
8.71713e-07
8.58297e-07
8.45618e-07
8.31775e-07
8.16333e-07
7.996e-07
7.81782e-07
7.62968e-07
7.43254e-07
7.22733e-07
7.01566e-07
6.79905e-07
6.57908e-07
6.35704e-07
6.13446e-07
5.91258e-07
5.69273e-07
5.47583e-07
5.2628e-07
5.05364e-07
4.84845e-07
4.64782e-07
4.45022e-07
4.26124e-07
4.06952e-07
3.89268e-07
3.68747e-07
3.57353e-07
3.32296e-07
3.33022e-07
2.90286e-07
3.14857e-07
2.32297e-07
3.20277e-07
1.71993e-07
3.95606e-07
2.61724e-07
6.42053e-07
6.53613e-07
1.01906e-06
6.45284e-07
7.15117e-07
6.53696e-07
1.59549e-07
8.71479e-09
0
0
0
1.92594e-06
0.000528619
0.0015625
0.0390876
0.1899
0.482356
0.829818
1.08741
1.13334
0.914501
0.464645
0.121387
0.651406
0.980659
0.974342
0.667599
0.285496
0.0593082
0.00294948
0.0001226
0
0
0
4.91303e-12
3.1706e-08
4.37433e-07
8.84828e-07
8.77345e-07
7.64604e-07
7.3092e-07
7.39964e-07
7.43262e-07
7.33977e-07
7.21084e-07
7.08956e-07
6.96941e-07
6.83932e-07
6.69701e-07
6.54503e-07
6.38554e-07
6.21943e-07
6.04802e-07
5.87259e-07
5.69474e-07
5.51552e-07
5.33628e-07
5.15832e-07
4.98252e-07
4.80981e-07
4.64064e-07
4.4752e-07
4.31306e-07
4.15451e-07
3.99771e-07
3.84856e-07
3.69521e-07
3.55629e-07
3.38648e-07
3.30231e-07
3.07704e-07
3.10844e-07
2.70838e-07
2.9773e-07
2.17987e-07
3.08004e-07
1.62774e-07
3.88416e-07
2.58476e-07
6.40455e-07
6.58074e-07
1.02685e-06
5.6529e-07
5.61486e-07
6.29803e-07
5.76105e-07
2.73227e-07
1.46441e-08
3.11118e-12
0
0
0
0.000209177
0.000238969
0.0116415
0.0923445
0.303043
0.615815
0.908316
1.04151
0.929752
0.574052
0.0775576
0.469961
0.837465
0.906198
0.669391
0.313647
0.0751159
0.00489678
0.000113738
1.09589e-05
0
0
0
1.88998e-08
2.27838e-07
6.69286e-07
8.04373e-07
7.11201e-07
6.2658e-07
6.04339e-07
6.07438e-07
6.0703e-07
5.98975e-07
5.88114e-07
5.77195e-07
5.66076e-07
5.5425e-07
5.41626e-07
5.28404e-07
5.14797e-07
5.00855e-07
4.86759e-07
4.72611e-07
4.58514e-07
4.44604e-07
4.30939e-07
4.1762e-07
4.04629e-07
3.92031e-07
3.79732e-07
3.67722e-07
3.55824e-07
3.44586e-07
3.32812e-07
3.2251e-07
3.08908e-07
3.03302e-07
2.83387e-07
2.88627e-07
2.51703e-07
2.80243e-07
2.04332e-07
2.9498e-07
1.54814e-07
3.79998e-07
2.5611e-07
6.37819e-07
6.62125e-07
1.03175e-06
4.98267e-07
4.83057e-07
4.93136e-07
5.0898e-07
4.88943e-07
3.79135e-07
6.19842e-08
3.57318e-09
2.47251e-13
0
0
2.28412e-06
0.000332746
0.00105235
0.022715
0.113524
0.309744
0.573075
0.793418
0.852335
0.687637
0.325084
0.143839
0.544224
0.744162
0.666993
0.401675
0.147121
0.0274134
0.000938029
0.000100408
2.12658e-06
0
0
2.31002e-10
1.14188e-08
1.09973e-07
4.22741e-07
5.80292e-07
5.55098e-07
4.99453e-07
4.76757e-07
4.75142e-07
4.74071e-07
4.6786e-07
4.59126e-07
4.50112e-07
4.40929e-07
4.31333e-07
4.21348e-07
4.11048e-07
4.00672e-07
3.90323e-07
3.80104e-07
3.70081e-07
3.60351e-07
3.51005e-07
3.4201e-07
3.33425e-07
3.25118e-07
3.17094e-07
3.09115e-07
3.01723e-07
2.9371e-07
2.87095e-07
2.77291e-07
2.74398e-07
2.57793e-07
2.64543e-07
2.32187e-07
2.60548e-07
1.91792e-07
2.78148e-07
1.48782e-07
3.62248e-07
2.44072e-07
6.09166e-07
6.29037e-07
9.58408e-07
4.21627e-07
4.13812e-07
4.15868e-07
4.1139e-07
4.08326e-07
4.28733e-07
3.83985e-07
2.4777e-07
5.94949e-09
4.09499e-10
0
0
0
9.61441e-06
0.000307603
0.00077321
0.0170615
0.0879817
0.246779
0.467119
0.654604
0.699753
0.54512
0.218613
0.180024
0.497484
0.611383
0.494213
0.265979
0.0864804
0.013645
0.000223818
4.90219e-05
0
0
0
8.1147e-11
9.19424e-09
1.04621e-07
3.35307e-07
4.36071e-07
4.09052e-07
3.70029e-07
3.57534e-07
3.5736e-07
3.55305e-07
3.49555e-07
3.4265e-07
3.35808e-07
3.28895e-07
3.21797e-07
3.14692e-07
3.0767e-07
3.00912e-07
2.94465e-07
2.88419e-07
2.82856e-07
2.77734e-07
2.73122e-07
2.68819e-07
2.64851e-07
2.60899e-07
2.57471e-07
2.53387e-07
2.50557e-07
2.44663e-07
2.44666e-07
2.31467e-07
2.39992e-07
2.11909e-07
2.41128e-07
1.78088e-07
2.63618e-07
1.423e-07
3.52722e-07
2.44739e-07
6.06615e-07
6.4358e-07
9.66427e-07
3.50332e-07
3.45563e-07
3.50251e-07
3.46806e-07
3.38382e-07
3.35979e-07
3.45691e-07
3.56864e-07
2.89997e-07
1.07578e-07
5.76077e-09
1.1407e-12
0
0
0
9.85455e-06
0.000288491
0.000524106
0.0141938
0.075774
0.215177
0.407671
0.564552
0.584364
0.420304
0.11281
0.230677
0.463405
0.495022
0.351413
0.163285
0.0435231
0.00452922
7.79726e-05
7.47764e-06
0
0
0
8.6854e-11
1.06447e-08
1.30885e-07
2.85462e-07
3.14925e-07
2.84619e-07
2.64548e-07
2.61254e-07
2.60899e-07
2.57636e-07
2.52677e-07
2.47603e-07
2.42788e-07
2.38135e-07
2.33672e-07
2.29635e-07
2.26077e-07
2.23092e-07
2.20742e-07
2.19005e-07
2.17883e-07
2.17177e-07
2.16878e-07
2.16597e-07
2.1677e-07
2.16242e-07
2.16828e-07
2.14395e-07
2.17053e-07
2.06968e-07
2.17176e-07
1.92844e-07
2.23164e-07
1.64791e-07
2.50695e-07
1.34728e-07
3.45295e-07
2.43135e-07
6.07652e-07
6.54253e-07
9.73428e-07
2.83761e-07
2.89219e-07
2.87947e-07
2.8286e-07
2.7746e-07
2.74567e-07
2.77459e-07
2.93643e-07
2.81733e-07
2.01328e-07
2.33768e-08
1.51469e-09
0
0
0
0
8.79345e-06
0.000275141
0.000532861
0.0137862
0.0719732
0.20039
0.370569
0.494853
0.481141
0.299932
0.0202077
0.271472
0.418081
0.383336
0.233311
0.0885137
0.0174804
0.000793425
5.99649e-05
1.16044e-07
0
0
0
2.77187e-09
2.77007e-08
1.50792e-07
2.20472e-07
2.11991e-07
1.91774e-07
1.84797e-07
1.84139e-07
1.8253e-07
1.79344e-07
1.76051e-07
1.7319e-07
1.70776e-07
1.68976e-07
1.67828e-07
1.67434e-07
1.67843e-07
1.69014e-07
1.70899e-07
1.73264e-07
1.76086e-07
1.78906e-07
1.82096e-07
1.84501e-07
1.87852e-07
1.88217e-07
1.92972e-07
1.85604e-07
1.97075e-07
1.76118e-07
2.07133e-07
1.53091e-07
2.39197e-07
1.27956e-07
3.39253e-07
2.40879e-07
6.10243e-07
6.59973e-07
9.79822e-07
2.29422e-07
2.35009e-07
2.34512e-07
2.31593e-07
2.2895e-07
2.25803e-07
2.23005e-07
2.23409e-07
2.3023e-07
2.42337e-07
2.14729e-07
9.98156e-08
5.62547e-09
1.14448e-12
0
0
0
0
9.33951e-06
0.000273197
0.000772093
0.0153683
0.0744724
0.19707
0.346584
0.434496
0.381958
0.184008
0.0832376
0.294095
0.359902
0.277393
0.138434
0.039744
0.00476251
1.22181e-05
1.33575e-05
0
0
0
4.57283e-11
3.62407e-11
6.29359e-08
1.28563e-07
1.41476e-07
1.28759e-07
1.21068e-07
1.19894e-07
1.19519e-07
1.18312e-07
1.17123e-07
1.16595e-07
1.16935e-07
1.18137e-07
1.20261e-07
1.23341e-07
1.27261e-07
1.31931e-07
1.37061e-07
1.42586e-07
1.48044e-07
1.53728e-07
1.5851e-07
1.64004e-07
1.6654e-07
1.72803e-07
1.67782e-07
1.80063e-07
1.62183e-07
1.93357e-07
1.43595e-07
2.29263e-07
1.22938e-07
3.34302e-07
2.38578e-07
6.14119e-07
6.60795e-07
9.87234e-07
1.82829e-07
1.87765e-07
1.87736e-07
1.85854e-07
1.84274e-07
1.82397e-07
1.81107e-07
1.78783e-07
1.77258e-07
1.79192e-07
1.90631e-07
1.90204e-07
1.45056e-07
1.93959e-08
1.39524e-09
2.20945e-14
0
0
0
0
1.15945e-05
0.000249986
0.00126301
0.0189737
0.0826264
0.20194
0.328678
0.37485
0.282141
0.0745704
0.155247
0.293487
0.287648
0.180037
0.0686996
0.0133052
0.000535669
5.64843e-05
3.05112e-07
0
0
3.02103e-14
2.10125e-09
1.95337e-08
6.37042e-08
8.14165e-08
7.62503e-08
6.91889e-08
6.71349e-08
6.74478e-08
6.83101e-08
6.98401e-08
7.25526e-08
7.65136e-08
8.15573e-08
8.75178e-08
9.42123e-08
1.01469e-07
1.09013e-07
1.1673e-07
1.24233e-07
1.31769e-07
1.38268e-07
1.45199e-07
1.49213e-07
1.56301e-07
1.53114e-07
1.65747e-07
1.50552e-07
1.81405e-07
1.35614e-07
2.20407e-07
1.18725e-07
3.3005e-07
2.35646e-07
6.18297e-07
6.55004e-07
9.9662e-07
1.54302e-07
1.57949e-07
1.58532e-07
1.57101e-07
1.55687e-07
1.54622e-07
1.54039e-07
1.52734e-07
1.51275e-07
1.49365e-07
1.499e-07
1.53882e-07
1.64732e-07
1.43883e-07
8.69456e-08
2.93457e-10
4.53354e-11
0
0
0
0
0
5.32086e-05
6.59426e-05
0.00257806
0.0257032
0.0968003
0.212013
0.310027
0.309063
0.179382
0.0284329
0.203048
0.265121
0.20516
0.0990166
0.0261644
0.00252424
5.56154e-07
1.32257e-05
0
0
0
3.17504e-10
1.11315e-09
1.12453e-08
1.62532e-08
1.93999e-08
2.0208e-08
2.16099e-08
2.59743e-08
3.22979e-08
3.94959e-08
4.73598e-08
5.58292e-08
6.47208e-08
7.38249e-08
8.30345e-08
9.21606e-08
1.01197e-07
1.09853e-07
1.18405e-07
1.25864e-07
1.3347e-07
1.38314e-07
1.45598e-07
1.43807e-07
1.56266e-07
1.43594e-07
1.73377e-07
1.31781e-07
2.14476e-07
1.17975e-07
3.27739e-07
2.3212e-07
6.23498e-07
6.36947e-07
1.01624e-06
1.26189e-07
1.30007e-07
1.3035e-07
1.2901e-07
1.27796e-07
1.2752e-07
1.27713e-07
1.26157e-07
1.25812e-07
1.25299e-07
1.23865e-07
1.23065e-07
1.25669e-07
1.31173e-07
1.35113e-07
1.04212e-07
3.82208e-08
3.17304e-09
2.37672e-12
0
0
0
0
2.55448e-07
7.78813e-05
3.30235e-05
0.00499495
0.0367374
0.116375
0.222209
0.281877
0.2299
0.072837
0.110179
0.219172
0.208901
0.121441
0.0402475
0.005994
8.64553e-05
3.74005e-05
0
0
0
7.04891e-12
1.53689e-09
9.25016e-09
3.84118e-08
3.2034e-08
2.28689e-08
2.44779e-08
3.11925e-08
3.925e-08
4.7278e-08
5.52393e-08
6.33846e-08
7.16683e-08
8.00152e-08
8.82279e-08
9.6341e-08
1.04142e-07
1.11887e-07
1.18724e-07
1.2558e-07
1.2991e-07
1.36167e-07
1.34553e-07
1.46056e-07
1.34711e-07
1.63206e-07
1.23779e-07
2.05437e-07
1.10676e-07
3.21663e-07
2.23124e-07
6.22617e-07
6.03737e-07
1.04853e-06
1.36327e-07
1.38278e-07
1.38106e-07
1.36644e-07
1.35261e-07
1.34321e-07
1.33769e-07
1.32301e-07
1.31329e-07
1.30196e-07
1.28433e-07
1.26883e-07
1.25714e-07
1.25393e-07
1.27151e-07
1.32803e-07
1.22606e-07
8.77877e-08
2.39045e-08
2.42654e-09
2.94087e-12
0
0
0
0
8.62371e-07
0.000153497
0.000351712
0.010327
0.0545619
0.144363
0.23816
0.257121
0.158624
0.0265348
0.169245
0.212586
0.15061
0.0614199
0.0107054
0.000875785
4.85809e-05
2.99123e-05
6.03849e-06
1.80219e-07
0
3.9113e-11
5.62435e-11
4.73399e-08
8.81651e-08
8.23003e-08
7.1523e-08
6.97456e-08
7.32408e-08
7.82943e-08
8.37851e-08
8.96618e-08
9.59183e-08
1.02376e-07
1.0894e-07
1.15456e-07
1.22064e-07
1.28088e-07
1.34062e-07
1.37875e-07
1.43183e-07
1.42087e-07
1.52187e-07
1.42818e-07
1.68508e-07
1.33086e-07
2.10129e-07
1.17917e-07
3.27791e-07
2.11671e-07
6.34249e-07
5.47903e-07
1.16085e-06
1.16509e-07
1.17317e-07
1.17664e-07
1.18149e-07
1.18469e-07
1.18783e-07
1.19389e-07
1.2012e-07
1.20735e-07
1.21087e-07
1.21429e-07
1.22045e-07
1.22592e-07
1.2317e-07
1.23673e-07
1.26397e-07
1.31187e-07
1.34672e-07
1.23177e-07
9.32747e-08
2.49218e-08
2.21718e-09
0
0
0
0
0
5.69772e-06
0.000130104
0.000457732
0.00881303
0.0414923
0.102386
0.160537
0.164712
0.0914658
0.0269594
0.118169
0.135542
0.0911091
0.0380966
0.00979064
0.00130011
2.67257e-05
2.25456e-05
3.80424e-06
0
1.2235e-13
1.83487e-09
2.77945e-08
8.14014e-08
1.03978e-07
1.04366e-07
1.02179e-07
1.02296e-07
1.03805e-07
1.05772e-07
1.07946e-07
1.10266e-07
1.12679e-07
1.15121e-07
1.17736e-07
1.20109e-07
1.22629e-07
1.23294e-07
1.24842e-07
1.21281e-07
1.28231e-07
1.17638e-07
1.40765e-07
1.03217e-07
1.79584e-07
7.89723e-08
2.92452e-07
1.75237e-07
5.77049e-07
5.46738e-07
1.14608e-06
)
;

boundaryField
{
    inlet
    {
        type            calculated;
        value           nonuniform List<scalar> 
27
(
6.10582e-06
6.11389e-06
6.12873e-06
6.14841e-06
6.16935e-06
6.19102e-06
6.21406e-06
6.23829e-06
6.26359e-06
6.28903e-06
6.3145e-06
6.33952e-06
6.36358e-06
6.38613e-06
6.40654e-06
6.42418e-06
6.43926e-06
6.40859e-06
6.41264e-06
6.41097e-06
6.40043e-06
6.37995e-06
6.34681e-06
6.29959e-06
6.2317e-06
6.16411e-06
6.02731e-06
)
;
    }
    outlet
    {
        type            calculated;
        value           nonuniform List<scalar> 
78
(
9.44702e-08
9.56013e-08
9.61824e-08
9.6935e-08
9.74983e-08
9.80559e-08
9.89754e-08
1.00045e-07
1.00975e-07
1.01596e-07
1.02209e-07
1.03139e-07
1.04042e-07
1.04985e-07
1.05825e-07
1.085e-07
1.12778e-07
1.15606e-07
1.05629e-07
8.08015e-08
2.2372e-08
2.08164e-09
0
0
0
0
0
5.7242e-06
0.000129807
0.00043163
0.00873402
0.0413447
0.102263
0.160653
0.165275
0.0924445
0.0252368
0.116963
0.134839
0.0908646
0.0380805
0.00982021
0.00131682
1.76662e-05
2.15108e-05
3.61843e-06
0
1.07399e-13
1.60764e-09
2.47791e-08
7.32103e-08
9.367e-08
9.387e-08
9.15909e-08
9.12254e-08
9.19431e-08
9.29195e-08
9.39598e-08
9.50281e-08
9.612e-08
9.71884e-08
9.84685e-08
9.94771e-08
1.00879e-07
1.00193e-07
1.01248e-07
9.59272e-08
1.04513e-07
8.97736e-08
1.19683e-07
6.91764e-08
1.6461e-07
2.11588e-08
2.81499e-07
1.56932e-07
5.57663e-07
5.48067e-07
1.08485e-06
)
;
    }
    walls
    {
        type            calculated;
        value           nonuniform List<scalar> 0();
    }
    frontAndBack
    {
        type            empty;
    }
    procBoundary7to3
    {
        type            processor;
        value           nonuniform List<scalar> 
16
(
1.1578e-06
1.18796e-06
9.08381e-07
7.74212e-07
6.85477e-07
5.86516e-07
4.81465e-07
3.93157e-07
2.86564e-07
2.86564e-07
2.31163e-07
1.84402e-07
1.55834e-07
1.26496e-07
1.38959e-07
1.14692e-07
)
;
    }
    procBoundary7to6
    {
        type            processor;
        value           nonuniform List<scalar> 
91
(
9.37281e-07
7.37612e-07
7.37612e-07
7.06118e-07
7.06118e-07
2.91244e-07
2.91244e-07
2.65404e-07
4.82678e-07
4.82678e-07
3.81608e-07
4.43314e-07
4.43314e-07
5.40362e-07
4.74956e-07
4.71459e-07
4.71459e-07
6.31959e-07
5.90973e-07
5.43489e-07
5.43489e-07
8.16582e-07
7.58001e-07
7.02251e-07
6.49421e-07
6.49421e-07
1.05882e-06
9.93758e-07
9.31231e-07
8.71376e-07
8.14227e-07
8.14227e-07
1.38468e-06
1.32226e-06
1.26e-06
1.19817e-06
1.1371e-06
1.0771e-06
1.0184e-06
1.0184e-06
1.7219e-06
1.69059e-06
1.65727e-06
1.62182e-06
1.58417e-06
1.54438e-06
1.50252e-06
1.4587e-06
1.41312e-06
1.36604e-06
1.31763e-06
1.26817e-06
1.26817e-06
7.22836e-12
0
0
0.000334971
0.00029846
0.0260925
0.180691
0.538576
1.02425
1.47317
1.72764
1.67955
1.2935
0.625895
0.219028
0.981035
1.50073
1.58571
1.21939
0.631861
0.183312
0.0201504
5.53655e-05
9.66394e-06
0
0
0
4.85599e-08
6.89408e-07
1.78241e-06
1.84114e-06
1.63004e-06
1.55465e-06
1.54562e-06
1.53088e-06
1.50758e-06
1.48445e-06
1.48445e-06
)
;
    }
}


// ************************************************************************* //
