/*--------------------------------*- C++ -*----------------------------------*\
| =========                 |                                                 |
| \\      /  F ield         | OpenFOAM: The Open Source CFD Toolbox           |
|  \\    /   O peration     | Version:  2306                                  |
|   \\  /    A nd           | Website:  www.openfoam.com                      |
|    \\/     M anipulation  |                                                 |
\*---------------------------------------------------------------------------*/
FoamFile
{
    version     2.0;
    format      ascii;
    arch        "LSB;label=32;scalar=64";
    class       volScalarField;
    location    "475";
    object      nut;
}
// * * * * * * * * * * * * * * * * * * * * * * * * * * * * * * * * * * * * * //

dimensions      [0 2 -1 0 0 0 0];

internalField   nonuniform List<scalar> 
1340
(
6.10199e-06
6.10274e-06
6.10233e-06
6.08333e-06
6.10338e-06
6.10276e-06
6.08133e-06
6.08325e-06
6.10405e-06
6.10328e-06
6.07231e-06
6.07456e-06
6.08121e-06
6.08314e-06
6.10476e-06
6.10389e-06
6.07744e-06
6.07309e-06
6.07228e-06
6.07449e-06
6.0811e-06
6.08301e-06
6.1055e-06
6.10459e-06
6.09024e-06
6.08641e-06
6.08221e-06
6.07784e-06
6.07333e-06
6.07225e-06
6.07442e-06
6.08099e-06
6.08286e-06
6.10627e-06
6.10539e-06
6.09963e-06
6.09674e-06
6.0941e-06
6.09085e-06
6.08698e-06
6.0827e-06
6.07828e-06
6.0736e-06
6.07224e-06
6.07433e-06
6.08087e-06
6.08268e-06
6.10707e-06
6.10629e-06
6.11213e-06
6.11002e-06
6.10728e-06
6.10389e-06
6.10039e-06
6.09744e-06
6.09477e-06
6.09149e-06
6.08759e-06
6.08323e-06
6.07874e-06
6.07391e-06
6.07224e-06
6.07423e-06
6.08075e-06
6.08246e-06
6.10788e-06
6.10729e-06
6.11858e-06
6.11782e-06
6.1169e-06
6.11583e-06
6.11457e-06
6.11301e-06
6.11092e-06
6.10818e-06
6.10477e-06
6.10119e-06
6.09818e-06
6.09548e-06
6.09218e-06
6.08824e-06
6.0838e-06
6.07923e-06
6.07425e-06
6.07227e-06
6.07412e-06
6.08063e-06
6.08222e-06
6.10871e-06
6.10839e-06
6.12113e-06
6.12111e-06
6.12108e-06
6.121e-06
6.12082e-06
6.12052e-06
6.12009e-06
6.1195e-06
6.11874e-06
6.11782e-06
6.11674e-06
6.11549e-06
6.11393e-06
6.11186e-06
6.10913e-06
6.10569e-06
6.10205e-06
6.09897e-06
6.09623e-06
6.09291e-06
6.08893e-06
6.08441e-06
6.07976e-06
6.07463e-06
6.07232e-06
6.07401e-06
6.0805e-06
6.08195e-06
6.10955e-06
6.10959e-06
6.1227e-06
6.12346e-06
6.12327e-06
6.12302e-06
6.1228e-06
6.12252e-06
6.1223e-06
6.12218e-06
6.12212e-06
6.1221e-06
6.12208e-06
6.12206e-06
6.12203e-06
6.12201e-06
6.12198e-06
6.12191e-06
6.12175e-06
6.12146e-06
6.12104e-06
6.12046e-06
6.11971e-06
6.11879e-06
6.11771e-06
6.11645e-06
6.1149e-06
6.11285e-06
6.11013e-06
6.10667e-06
6.10296e-06
6.09981e-06
6.09703e-06
6.09369e-06
6.08966e-06
6.08506e-06
6.08033e-06
6.07505e-06
6.0724e-06
6.07388e-06
6.08036e-06
6.08164e-06
6.11039e-06
6.11089e-06
4.64887e-09
2.13231e-11
0
0
0.000141368
0.000452266
0.0161074
0.0551926
0.112664
0.176089
0.235512
0.28562
0.324077
0.350417
0.365814
0.372619
0.37375
0.362752
0.330895
0.272109
0.189032
0.0999965
0.0322402
0.001128
0.000350285
0
0
0
1.78415e-09
4.09273e-07
6.19347e-06
8.02464e-06
6.45764e-06
5.90594e-06
6.03266e-06
6.14161e-06
6.14188e-06
6.1281e-06
6.12594e-06
6.12558e-06
6.12417e-06
6.12341e-06
6.12337e-06
6.12336e-06
6.12322e-06
6.12309e-06
6.12304e-06
6.12303e-06
6.12301e-06
6.12298e-06
6.12296e-06
6.12293e-06
6.12287e-06
6.12272e-06
6.12245e-06
6.12204e-06
6.12147e-06
6.12072e-06
6.1198e-06
6.11872e-06
6.11746e-06
6.11593e-06
6.11389e-06
6.11119e-06
6.10772e-06
6.10393e-06
6.1007e-06
6.09788e-06
6.09452e-06
6.09045e-06
6.08577e-06
6.08094e-06
6.07552e-06
6.07251e-06
6.07375e-06
6.08021e-06
6.08131e-06
6.11122e-06
6.11229e-06
6.26769e-06
2.12923e-08
9.69732e-11
0
0
1.43938e-09
0.00209046
0.00821508
0.0366844
0.0875643
0.15038
0.213181
0.268282
0.311932
0.342841
0.361583
0.370724
0.372995
0.364361
0.336089
0.281258
0.201171
0.112022
0.039728
0.00354647
0.00099101
0
0
0
2.81641e-10
5.45953e-08
5.08051e-06
8.71326e-06
6.96662e-06
5.98126e-06
5.99202e-06
6.12058e-06
6.13249e-06
6.11859e-06
6.12142e-06
6.12679e-06
6.12671e-06
6.12486e-06
6.12407e-06
6.12408e-06
6.12413e-06
6.12408e-06
6.12403e-06
6.12401e-06
6.12398e-06
6.12395e-06
6.12393e-06
6.12387e-06
6.12374e-06
6.12348e-06
6.12309e-06
6.12253e-06
6.12179e-06
6.12088e-06
6.11979e-06
6.11853e-06
6.117e-06
6.11499e-06
6.11231e-06
6.10883e-06
6.10497e-06
6.10165e-06
6.09878e-06
6.0954e-06
6.09129e-06
6.08652e-06
6.08159e-06
6.07603e-06
6.07266e-06
6.07362e-06
6.08006e-06
6.08097e-06
6.11204e-06
6.11378e-06
8.02323e-06
6.44613e-06
8.06297e-08
3.77432e-10
0
0
0
0.000624334
0.00229442
0.0212169
0.0633346
0.122989
0.187865
0.247791
0.297035
0.33319
0.35624
0.36829
0.371877
0.365532
0.340764
0.289975
0.213228
0.123973
0.047611
0.00672873
0.00181232
0
0
0
1.35181e-12
4.71228e-11
2.77004e-06
8.23748e-06
7.29905e-06
6.07711e-06
5.99544e-06
6.16673e-06
6.18333e-06
6.13366e-06
6.11466e-06
6.12071e-06
6.12664e-06
6.1269e-06
6.12557e-06
6.12502e-06
6.12503e-06
6.12509e-06
6.12507e-06
6.12503e-06
6.125e-06
6.12497e-06
6.12492e-06
6.1248e-06
6.12457e-06
6.12419e-06
6.12364e-06
6.12292e-06
6.12201e-06
6.12092e-06
6.11965e-06
6.11813e-06
6.11615e-06
6.1135e-06
6.11e-06
6.10608e-06
6.10267e-06
6.09974e-06
6.09633e-06
6.09218e-06
6.08733e-06
6.0823e-06
6.0766e-06
6.07286e-06
6.07348e-06
6.07989e-06
6.08063e-06
6.11283e-06
6.11537e-06
6.22967e-06
7.79488e-06
6.35237e-06
4.85112e-07
2.26145e-09
0
0
0
1.14254e-06
0.00262532
0.0102362
0.0421269
0.0955647
0.160489
0.224653
0.279763
0.32174
0.349653
0.364948
0.369952
0.365761
0.34442
0.297741
0.224253
0.135207
0.0555171
0.0102192
0.00269903
0
0
0
6.71178e-17
7.90542e-09
1.93099e-06
7.9029e-06
7.69414e-06
6.00435e-06
5.67759e-06
5.98237e-06
6.1814e-06
6.18069e-06
6.13516e-06
6.11899e-06
6.12259e-06
6.12673e-06
6.12713e-06
6.12638e-06
6.12608e-06
6.12611e-06
6.12615e-06
6.12611e-06
6.12608e-06
6.12603e-06
6.12593e-06
6.12571e-06
6.12535e-06
6.12482e-06
6.1241e-06
6.12319e-06
6.1221e-06
6.12084e-06
6.11933e-06
6.11737e-06
6.11474e-06
6.11125e-06
6.10726e-06
6.10375e-06
6.10076e-06
6.09732e-06
6.09314e-06
6.0882e-06
6.08306e-06
6.07721e-06
6.0731e-06
6.07335e-06
6.07971e-06
6.08027e-06
6.11357e-06
6.11701e-06
6.01573e-06
6.22526e-06
7.45013e-06
6.46152e-06
1.83125e-06
8.40078e-09
4.35379e-16
0
0
0
0.000949335
0.00357188
0.0244667
0.0682936
0.129661
0.196609
0.258188
0.307625
0.342154
0.362039
0.369476
0.367092
0.348898
0.306454
0.236538
0.148141
0.065091
0.0135436
0.00395227
0.000114471
0
0
0
3.09793e-09
6.98611e-07
6.87514e-06
9.72946e-06
7.60345e-06
6.04788e-06
5.79268e-06
6.00644e-06
6.1534e-06
6.16351e-06
6.13562e-06
6.12364e-06
6.12508e-06
6.12758e-06
6.12785e-06
6.1274e-06
6.12723e-06
6.12724e-06
6.12724e-06
6.12719e-06
6.1271e-06
6.1269e-06
6.12656e-06
6.12605e-06
6.12535e-06
6.12445e-06
6.12336e-06
6.12209e-06
6.12058e-06
6.11865e-06
6.11606e-06
6.11258e-06
6.10852e-06
6.10491e-06
6.10185e-06
6.09838e-06
6.09416e-06
6.08914e-06
6.08388e-06
6.07789e-06
6.07341e-06
6.07323e-06
6.07951e-06
6.07992e-06
6.11431e-06
6.11879e-06
6.13428e-06
6.06373e-06
6.20107e-06
6.77351e-06
6.64574e-06
4.56763e-06
1.74266e-07
8.4114e-10
4.08562e-18
0
0
3.08775e-06
0.00247505
0.00948674
0.0352565
0.0805698
0.140518
0.205016
0.264254
0.311547
0.343846
0.361347
0.364864
0.354175
0.322604
0.265226
0.186309
0.102711
0.0405647
0.00590254
0.00197098
1.56846e-05
0
0
5.92262e-13
1.96892e-09
2.64248e-07
4.54041e-06
8.45149e-06
7.64968e-06
6.28875e-06
5.88227e-06
5.99783e-06
6.13274e-06
6.15577e-06
6.13559e-06
6.12543e-06
6.1267e-06
6.12888e-06
6.12911e-06
6.12876e-06
6.12863e-06
6.12863e-06
6.12858e-06
6.12842e-06
6.1281e-06
6.12761e-06
6.12693e-06
6.12604e-06
6.12494e-06
6.12366e-06
6.12216e-06
6.12025e-06
6.1177e-06
6.11423e-06
6.1101e-06
6.10636e-06
6.10319e-06
6.09967e-06
6.09541e-06
6.09028e-06
6.08487e-06
6.07872e-06
6.07381e-06
6.07309e-06
6.0793e-06
6.07956e-06
6.11496e-06
6.12068e-06
6.13875e-06
6.13459e-06
6.07951e-06
6.13201e-06
6.39226e-06
7.242e-06
6.07765e-06
3.1032e-06
2.77988e-09
1.66003e-11
0
0
0
4.25253e-05
0.00231296
0.00855984
0.0315908
0.073824
0.131392
0.195289
0.255499
0.304484
0.338424
0.356345
0.358319
0.342493
0.302914
0.238039
0.158253
0.0823193
0.0297259
0.00260705
0.00095342
0
0
0
1.28949e-13
2.33416e-09
4.44257e-07
5.21107e-06
8.57011e-06
7.39813e-06
6.14311e-06
5.89342e-06
6.05156e-06
6.15562e-06
6.1536e-06
6.13232e-06
6.12719e-06
6.12972e-06
6.13107e-06
6.13087e-06
6.13055e-06
6.13041e-06
6.13026e-06
6.12998e-06
6.12953e-06
6.12886e-06
6.12798e-06
6.12688e-06
6.12558e-06
6.12406e-06
6.12217e-06
6.11966e-06
6.11622e-06
6.112e-06
6.1081e-06
6.10479e-06
6.10119e-06
6.09687e-06
6.09163e-06
6.08604e-06
6.0797e-06
6.07433e-06
6.07297e-06
6.07906e-06
6.07922e-06
6.11561e-06
6.12269e-06
6.12752e-06
6.13257e-06
6.12682e-06
6.10601e-06
6.09606e-06
6.28429e-06
6.77956e-06
7.27976e-06
5.33975e-06
1.06614e-06
5.01653e-09
1.63946e-16
0
0
0
3.7911e-05
0.00202505
0.00741937
0.0294702
0.0707368
0.127821
0.191959
0.252957
0.302747
0.336813
0.3529
0.350755
0.326843
0.277283
0.206168
0.127505
0.0595727
0.0166615
0.00468973
0.000120715
0
0
0
2.69708e-13
6.5785e-09
1.43737e-06
7.14835e-06
8.30731e-06
6.69594e-06
5.91148e-06
5.94732e-06
6.1171e-06
6.16185e-06
6.14214e-06
6.12949e-06
6.12994e-06
6.13204e-06
6.1325e-06
6.13242e-06
6.1323e-06
6.13202e-06
6.13155e-06
6.13089e-06
6.13002e-06
6.12892e-06
6.1276e-06
6.12607e-06
6.12419e-06
6.12172e-06
6.11831e-06
6.11404e-06
6.10998e-06
6.10651e-06
6.10282e-06
6.09844e-06
6.09309e-06
6.08731e-06
6.08078e-06
6.07496e-06
6.0729e-06
6.0788e-06
6.07888e-06
6.11617e-06
6.12471e-06
6.12537e-06
6.12781e-06
6.12679e-06
6.11755e-06
6.09012e-06
6.1672e-06
6.41944e-06
7.2187e-06
6.82166e-06
4.21679e-06
8.84493e-08
4.31127e-10
0
0
0
0
3.02769e-05
0.00201269
0.00740005
0.0295931
0.0712401
0.128965
0.193898
0.25543
0.304723
0.336665
0.347869
0.338474
0.304604
0.245813
0.170581
0.0946897
0.0376015
0.00637393
0.0019098
0
0
0
0
8.11804e-10
1.58863e-07
4.44296e-06
8.71324e-06
7.55732e-06
6.17412e-06
5.90244e-06
6.06322e-06
6.15907e-06
6.15457e-06
6.13741e-06
6.13393e-06
6.13466e-06
6.1344e-06
6.13398e-06
6.13389e-06
6.13365e-06
6.13306e-06
6.13219e-06
6.13107e-06
6.12974e-06
6.12819e-06
6.12631e-06
6.12388e-06
6.12053e-06
6.11622e-06
6.11202e-06
6.10837e-06
6.10456e-06
6.10012e-06
6.09467e-06
6.0887e-06
6.08195e-06
6.07571e-06
6.07288e-06
6.07851e-06
6.07851e-06
6.1166e-06
6.12673e-06
6.1239e-06
6.12451e-06
6.12546e-06
6.12758e-06
6.11862e-06
6.10595e-06
6.08468e-06
6.25712e-06
6.68277e-06
7.34702e-06
6.0739e-06
1.71956e-06
8.14402e-09
2.57464e-16
0
0
0
0
3.4613e-05
0.00225528
0.00838168
0.032045
0.075488
0.135
0.200999
0.262164
0.308923
0.335923
0.340347
0.321262
0.276313
0.208669
0.131521
0.062887
0.0193337
0.00528048
9.16077e-05
0
0
0
1.34011e-12
2.63783e-11
1.65414e-06
7.40643e-06
8.18464e-06
6.5465e-06
5.91368e-06
5.99551e-06
6.12907e-06
6.14754e-06
6.13393e-06
6.13348e-06
6.13763e-06
6.13803e-06
6.1366e-06
6.13567e-06
6.13515e-06
6.13443e-06
6.13335e-06
6.132e-06
6.13042e-06
6.12854e-06
6.12616e-06
6.12287e-06
6.11855e-06
6.11422e-06
6.11038e-06
6.10642e-06
6.10191e-06
6.09636e-06
6.0902e-06
6.08324e-06
6.07658e-06
6.07293e-06
6.07819e-06
6.07813e-06
6.11691e-06
6.12873e-06
6.12377e-06
6.12399e-06
6.12423e-06
6.12511e-06
6.12607e-06
6.12436e-06
6.11075e-06
6.08611e-06
6.12698e-06
6.3463e-06
7.07864e-06
7.00347e-06
4.55175e-06
1.10443e-07
5.46377e-10
5.91311e-20
0
0
0
0
5.24809e-05
0.00259011
0.00965417
0.0366304
0.0836059
0.145889
0.212743
0.271997
0.314092
0.333375
0.328509
0.297513
0.240525
0.166106
0.091385
0.0348683
0.00498742
0.00148999
4.37028e-07
0
0
1.99912e-17
1.58999e-09
3.40762e-07
5.56282e-06
8.55514e-06
7.07811e-06
6.0514e-06
6.00784e-06
6.1619e-06
6.18141e-06
6.14203e-06
6.12745e-06
6.13342e-06
6.13872e-06
6.13907e-06
6.13784e-06
6.13676e-06
6.1357e-06
6.13439e-06
6.1328e-06
6.13091e-06
6.12856e-06
6.12535e-06
6.12105e-06
6.11661e-06
6.11258e-06
6.10844e-06
6.10385e-06
6.0982e-06
6.09186e-06
6.08466e-06
6.07761e-06
6.07309e-06
6.07785e-06
6.0777e-06
6.11703e-06
6.1307e-06
6.1241e-06
6.12429e-06
6.12448e-06
6.12463e-06
6.1252e-06
6.12591e-06
6.12702e-06
6.11818e-06
6.10235e-06
6.07218e-06
6.20597e-06
6.57282e-06
7.41526e-06
5.74653e-06
2.3902e-06
2.04573e-11
2.96915e-13
0
0
0
0
0
0.000358169
0.00110848
0.0135943
0.0445117
0.0964015
0.161816
0.22856
0.283702
0.318291
0.327205
0.310104
0.265304
0.197231
0.120662
0.0545056
0.0143759
0.000829076
0.000265067
0
0
0
9.37651e-11
1.47856e-08
3.11706e-06
8.22424e-06
7.37337e-06
5.92541e-06
5.7492e-06
6.05533e-06
6.20869e-06
6.18821e-06
6.14673e-06
6.13544e-06
6.1381e-06
6.14002e-06
6.13952e-06
6.13826e-06
6.13685e-06
6.13524e-06
6.13335e-06
6.13103e-06
6.12789e-06
6.12364e-06
6.11913e-06
6.1149e-06
6.11055e-06
6.10586e-06
6.10013e-06
6.09361e-06
6.08617e-06
6.07872e-06
6.07334e-06
6.07754e-06
6.07728e-06
6.11711e-06
6.13259e-06
6.12469e-06
6.12486e-06
6.12505e-06
6.12521e-06
6.12542e-06
6.12564e-06
6.12657e-06
6.12732e-06
6.12613e-06
6.11147e-06
6.08742e-06
6.09421e-06
6.35522e-06
6.92977e-06
7.29564e-06
4.46135e-06
6.28826e-07
2.97741e-09
7.3728e-16
0
0
0
0
5.39039e-08
0.000603764
0.00194478
0.0186667
0.0564609
0.114167
0.18232
0.246893
0.294782
0.317937
0.313736
0.280888
0.221312
0.145968
0.0740473
0.0255717
0.00321792
0.000743553
0
0
0
1.4259e-14
6.82476e-09
1.62287e-06
8.79383e-06
9.7426e-06
6.95408e-06
5.77352e-06
5.81327e-06
6.07154e-06
6.16803e-06
6.161e-06
6.14523e-06
6.14134e-06
6.14152e-06
6.14104e-06
6.13972e-06
6.13806e-06
6.13614e-06
6.13384e-06
6.13079e-06
6.12661e-06
6.12207e-06
6.11766e-06
6.11307e-06
6.10823e-06
6.1024e-06
6.09572e-06
6.08799e-06
6.08021e-06
6.07385e-06
6.0771e-06
6.07675e-06
6.11656e-06
6.13454e-06
6.12516e-06
6.12534e-06
6.12553e-06
6.12572e-06
6.12592e-06
6.12611e-06
6.12632e-06
6.12688e-06
6.12786e-06
6.12883e-06
6.12206e-06
6.1023e-06
6.07221e-06
6.19648e-06
6.57981e-06
7.416e-06
6.54239e-06
3.39645e-06
1.98707e-07
9.86193e-10
7.07975e-16
0
0
0
0
6.24038e-07
0.00153032
0.00564414
0.0284718
0.0743065
0.139095
0.210459
0.272572
0.312605
0.322604
0.301584
0.24944
0.173975
0.0943853
0.0310249
0.00928001
0.00105586
0.000448908
0.000137291
2.14354e-06
0
4.71907e-12
2.80467e-12
2.59665e-06
8.46988e-06
8.36888e-06
6.68621e-06
6.06196e-06
6.04994e-06
6.12653e-06
6.15035e-06
6.14775e-06
6.14424e-06
6.14293e-06
6.14181e-06
6.14023e-06
6.1383e-06
6.136e-06
6.13303e-06
6.12893e-06
6.12439e-06
6.11982e-06
6.11501e-06
6.11002e-06
6.10415e-06
6.09729e-06
6.08942e-06
6.08118e-06
6.07426e-06
6.07703e-06
6.07642e-06
6.11716e-06
6.13597e-06
6.12569e-06
6.12591e-06
6.12614e-06
6.12638e-06
6.12663e-06
6.1269e-06
6.12715e-06
6.12743e-06
6.12773e-06
6.12872e-06
6.12978e-06
6.13053e-06
6.11585e-06
6.09539e-06
6.07924e-06
6.30961e-06
6.84472e-06
7.41301e-06
6.31051e-06
3.26757e-06
1.52228e-07
5.8211e-10
0
0
0
0
0
3.09267e-05
0.00173158
0.00594125
0.0276423
0.0690113
0.125974
0.188269
0.242913
0.27891
0.288041
0.267679
0.219481
0.153553
0.0889339
0.0431295
0.0174922
0.0055878
0.00105733
0.000233769
0
3.46875e-18
2.36973e-09
4.75787e-07
3.84549e-06
6.32788e-06
6.51161e-06
6.2431e-06
6.14147e-06
6.13992e-06
6.14847e-06
6.14968e-06
6.14834e-06
6.14689e-06
6.14528e-06
6.14334e-06
6.14102e-06
6.13813e-06
6.1342e-06
6.12975e-06
6.12502e-06
6.11978e-06
6.11443e-06
6.10828e-06
6.10127e-06
6.09282e-06
6.08429e-06
6.07561e-06
6.077e-06
6.07569e-06
6.11447e-06
6.13951e-06
)
;

boundaryField
{
    inlet
    {
        type            freestream;
        freestreamValue uniform 1e-05;
        value           nonuniform List<scalar> 
27
(
6.10199e-06
6.10233e-06
6.10276e-06
6.10328e-06
6.10389e-06
6.10459e-06
6.10539e-06
6.10629e-06
6.10729e-06
6.10839e-06
6.10959e-06
6.11089e-06
6.11229e-06
6.11378e-06
6.11537e-06
6.11701e-06
6.11879e-06
6.12068e-06
6.12269e-06
6.12471e-06
6.12673e-06
6.12873e-06
6.1307e-06
6.13259e-06
6.13454e-06
6.13597e-06
6.13951e-06
)
;
    }
    outlet
    {
        type            freestream;
        freestreamValue uniform 1e-05;
        value           nonuniform List<scalar> 
78
(
6.12569e-06
6.12591e-06
6.12614e-06
6.12638e-06
6.12663e-06
6.1269e-06
6.12715e-06
6.12743e-06
6.12773e-06
6.12872e-06
6.12978e-06
6.13053e-06
6.11585e-06
6.09539e-06
6.07924e-06
6.30961e-06
6.84472e-06
7.41301e-06
6.31051e-06
3.26757e-06
1.52228e-07
5.8211e-10
0
0
0
0
0
3.09267e-05
0.00173158
0.00594125
0.0276423
0.0690113
0.125974
0.188269
0.242913
0.27891
0.288041
0.267679
0.219481
0.153553
0.0889339
0.0431295
0.0174922
0.0055878
0.00105733
0.000233769
0
3.46875e-18
2.36973e-09
4.75787e-07
3.84549e-06
6.32788e-06
6.51161e-06
6.2431e-06
6.14147e-06
6.13992e-06
6.14847e-06
6.14968e-06
6.14834e-06
6.14689e-06
6.14528e-06
6.14334e-06
6.14102e-06
6.13813e-06
6.1342e-06
6.12975e-06
6.12502e-06
6.11978e-06
6.11443e-06
6.10828e-06
6.10127e-06
6.09282e-06
6.08429e-06
6.07561e-06
6.077e-06
6.07569e-06
6.11447e-06
6.13951e-06
)
;
    }
    walls
    {
        type            nutUSpaldingWallFunction;
        value           nonuniform List<scalar> 0();
    }
    frontAndBack
    {
        type            empty;
    }
    procBoundary7to3
    {
        type            processor;
        value           nonuniform List<scalar> 
16
(
5.75373e-06
7.91973e-06
6.32172e-06
6.0176e-06
6.13173e-06
6.14628e-06
6.13157e-06
6.12627e-06
6.1246e-06
6.1246e-06
6.12371e-06
6.12355e-06
6.12392e-06
6.12453e-06
6.12499e-06
6.12548e-06
)
;
    }
    procBoundary7to6
    {
        type            processor;
        value           nonuniform List<scalar> 
91
(
6.10177e-06
6.10214e-06
6.10214e-06
6.08339e-06
6.08339e-06
6.08144e-06
6.08144e-06
6.07236e-06
6.07461e-06
6.07461e-06
6.07706e-06
6.07287e-06
6.07287e-06
6.08966e-06
6.08588e-06
6.08175e-06
6.08175e-06
6.09892e-06
6.09609e-06
6.09346e-06
6.09346e-06
6.1113e-06
6.10917e-06
6.10642e-06
6.10307e-06
6.10307e-06
6.11772e-06
6.11695e-06
6.11603e-06
6.11496e-06
6.11371e-06
6.11371e-06
6.12027e-06
6.12025e-06
6.12022e-06
6.12013e-06
6.11994e-06
6.11963e-06
6.11918e-06
6.11918e-06
6.12361e-06
6.123e-06
6.12241e-06
6.122e-06
6.1217e-06
6.12149e-06
6.12135e-06
6.12127e-06
6.12121e-06
6.12119e-06
6.12118e-06
6.12116e-06
6.12116e-06
6.48671e-16
0
0
0.00119954
0.0046909
0.0287835
0.0763091
0.137211
0.199169
0.254605
0.299952
0.333767
0.356181
0.36898
0.374736
0.374524
0.360825
0.325197
0.262506
0.176656
0.0877892
0.025824
0.00675819
2.17164e-06
0
0
0
4.87894e-09
1.17799e-06
7.07518e-06
7.6962e-06
6.31301e-06
5.96767e-06
6.08914e-06
6.14894e-06
6.13479e-06
6.12308e-06
6.12308e-06
)
;
    }
}


// ************************************************************************* //
