/*--------------------------------*- C++ -*----------------------------------*\
| =========                 |                                                 |
| \\      /  F ield         | OpenFOAM: The Open Source CFD Toolbox           |
|  \\    /   O peration     | Version:  2306                                  |
|   \\  /    A nd           | Website:  www.openfoam.com                      |
|    \\/     M anipulation  |                                                 |
\*---------------------------------------------------------------------------*/
FoamFile
{
    version     2.0;
    format      ascii;
    arch        "LSB;label=32;scalar=64";
    class       volScalarField;
    location    "475";
    object      nuTilda;
}
// * * * * * * * * * * * * * * * * * * * * * * * * * * * * * * * * * * * * * //

dimensions      [0 2 -1 0 0 0 0];

internalField   nonuniform List<scalar> 
1340
(
4.00638e-05
4.00652e-05
4.00644e-05
4.00292e-05
4.00664e-05
4.00652e-05
4.00255e-05
4.0029e-05
4.00676e-05
4.00662e-05
4.00087e-05
4.00129e-05
4.00252e-05
4.00288e-05
4.00689e-05
4.00673e-05
4.00182e-05
4.00101e-05
4.00086e-05
4.00128e-05
4.0025e-05
4.00286e-05
4.00703e-05
4.00686e-05
4.0042e-05
4.00349e-05
4.00271e-05
4.0019e-05
4.00106e-05
4.00086e-05
4.00126e-05
4.00248e-05
4.00283e-05
4.00717e-05
4.00701e-05
4.00594e-05
4.00541e-05
4.00492e-05
4.00431e-05
4.0036e-05
4.0028e-05
4.00198e-05
4.00111e-05
4.00086e-05
4.00125e-05
4.00246e-05
4.0028e-05
4.00732e-05
4.00718e-05
4.00826e-05
4.00787e-05
4.00736e-05
4.00673e-05
4.00608e-05
4.00554e-05
4.00504e-05
4.00443e-05
4.00371e-05
4.0029e-05
4.00206e-05
4.00117e-05
4.00086e-05
4.00123e-05
4.00244e-05
4.00276e-05
4.00747e-05
4.00736e-05
4.00945e-05
4.00931e-05
4.00914e-05
4.00894e-05
4.00871e-05
4.00842e-05
4.00803e-05
4.00752e-05
4.00689e-05
4.00623e-05
4.00567e-05
4.00517e-05
4.00456e-05
4.00383e-05
4.003e-05
4.00216e-05
4.00123e-05
4.00086e-05
4.00121e-05
4.00242e-05
4.00271e-05
4.00762e-05
4.00756e-05
4.00992e-05
4.00992e-05
4.00991e-05
4.0099e-05
4.00986e-05
4.00981e-05
4.00973e-05
4.00962e-05
4.00948e-05
4.00931e-05
4.00911e-05
4.00888e-05
4.00859e-05
4.00821e-05
4.0077e-05
4.00706e-05
4.00639e-05
4.00582e-05
4.00531e-05
4.0047e-05
4.00396e-05
4.00312e-05
4.00225e-05
4.0013e-05
4.00087e-05
4.00119e-05
4.00239e-05
4.00266e-05
4.00778e-05
4.00779e-05
4.01021e-05
4.01035e-05
4.01032e-05
4.01027e-05
4.01023e-05
4.01018e-05
4.01014e-05
4.01012e-05
4.01011e-05
4.0101e-05
4.0101e-05
4.01009e-05
4.01009e-05
4.01008e-05
4.01008e-05
4.01007e-05
4.01004e-05
4.00998e-05
4.0099e-05
4.0098e-05
4.00966e-05
4.00949e-05
4.00929e-05
4.00906e-05
4.00877e-05
4.00839e-05
4.00789e-05
4.00725e-05
4.00656e-05
4.00597e-05
4.00546e-05
4.00484e-05
4.00409e-05
4.00324e-05
4.00236e-05
4.00138e-05
4.00089e-05
4.00116e-05
4.00237e-05
4.0026e-05
4.00794e-05
4.00803e-05
6.38792e-06
1.6621e-06
0
0
0.000154964
0.000453996
0.0161074
0.0551926
0.112664
0.176089
0.235512
0.28562
0.324077
0.350417
0.365814
0.372619
0.37375
0.362752
0.330895
0.272109
0.189032
0.0999965
0.0322402
0.00112828
0.000353132
0
0
0
5.02736e-06
1.96667e-05
4.02325e-05
4.33299e-05
4.07112e-05
3.96968e-05
3.99348e-05
4.01371e-05
4.01376e-05
4.01121e-05
4.01081e-05
4.01074e-05
4.01048e-05
4.01034e-05
4.01034e-05
4.01033e-05
4.01031e-05
4.01029e-05
4.01028e-05
4.01027e-05
4.01027e-05
4.01026e-05
4.01026e-05
4.01025e-05
4.01024e-05
4.01022e-05
4.01017e-05
4.01009e-05
4.00998e-05
4.00985e-05
4.00968e-05
4.00948e-05
4.00924e-05
4.00896e-05
4.00858e-05
4.00808e-05
4.00744e-05
4.00674e-05
4.00614e-05
4.00562e-05
4.00499e-05
4.00424e-05
4.00337e-05
4.00247e-05
4.00147e-05
4.00091e-05
4.00114e-05
4.00234e-05
4.00254e-05
4.00809e-05
4.00829e-05
4.03683e-05
9.34861e-06
2.42723e-06
0
0
4.76453e-06
0.00209054
0.00821509
0.0366844
0.0875643
0.15038
0.213181
0.268282
0.311932
0.342841
0.361583
0.370724
0.372995
0.364361
0.336089
0.281258
0.201171
0.112022
0.039728
0.0035465
0.000991374
0
0
0
3.16867e-06
1.18368e-05
3.80607e-05
4.43831e-05
4.16005e-05
3.98387e-05
3.98588e-05
4.00982e-05
4.01202e-05
4.00945e-05
4.00997e-05
4.01097e-05
4.01095e-05
4.01061e-05
4.01047e-05
4.01047e-05
4.01048e-05
4.01047e-05
4.01046e-05
4.01045e-05
4.01045e-05
4.01044e-05
4.01044e-05
4.01043e-05
4.0104e-05
4.01036e-05
4.01028e-05
4.01018e-05
4.01004e-05
4.00987e-05
4.00967e-05
4.00944e-05
4.00916e-05
4.00879e-05
4.00829e-05
4.00764e-05
4.00693e-05
4.00632e-05
4.00578e-05
4.00516e-05
4.00439e-05
4.00351e-05
4.0026e-05
4.00156e-05
4.00094e-05
4.00111e-05
4.00231e-05
4.00248e-05
4.00824e-05
4.00856e-05
4.33276e-05
4.06906e-05
1.30539e-05
3.4093e-06
0
0
0
0.000625248
0.00229449
0.0212169
0.0633346
0.122989
0.187865
0.247791
0.297035
0.33319
0.35624
0.36829
0.371877
0.365532
0.340764
0.289975
0.213228
0.123973
0.047611
0.00672874
0.00181243
0
0
0
8.34014e-07
2.02654e-06
3.22708e-05
4.36609e-05
4.216e-05
4.00176e-05
3.98652e-05
4.01834e-05
4.02139e-05
4.01224e-05
4.00873e-05
4.00984e-05
4.01094e-05
4.01099e-05
4.01074e-05
4.01064e-05
4.01064e-05
4.01065e-05
4.01065e-05
4.01064e-05
4.01064e-05
4.01063e-05
4.01062e-05
4.0106e-05
4.01056e-05
4.01049e-05
4.01039e-05
4.01025e-05
4.01008e-05
4.00988e-05
4.00965e-05
4.00937e-05
4.009e-05
4.00851e-05
4.00786e-05
4.00714e-05
4.0065e-05
4.00596e-05
4.00533e-05
4.00456e-05
4.00366e-05
4.00273e-05
4.00167e-05
4.00097e-05
4.00109e-05
4.00228e-05
4.00242e-05
4.00839e-05
4.00886e-05
4.02989e-05
4.29665e-05
4.0522e-05
2.05352e-05
5.33441e-06
0
0
0
2.55784e-05
0.00262537
0.0102362
0.0421269
0.0955647
0.160489
0.224653
0.279763
0.32174
0.349653
0.364948
0.369952
0.365761
0.34442
0.297741
0.224253
0.135207
0.0555171
0.0102192
0.00269908
0
0
0
7.00089e-08
7.29529e-06
2.93281e-05
4.31381e-05
4.28052e-05
3.98819e-05
3.92595e-05
3.98408e-05
4.02103e-05
4.0209e-05
4.01251e-05
4.00953e-05
4.01019e-05
4.01096e-05
4.01103e-05
4.01089e-05
4.01084e-05
4.01084e-05
4.01085e-05
4.01084e-05
4.01084e-05
4.01083e-05
4.01081e-05
4.01077e-05
4.0107e-05
4.0106e-05
4.01047e-05
4.0103e-05
4.0101e-05
4.00987e-05
4.00959e-05
4.00923e-05
4.00874e-05
4.00809e-05
4.00735e-05
4.0067e-05
4.00615e-05
4.00551e-05
4.00474e-05
4.00382e-05
4.00287e-05
4.00178e-05
4.00102e-05
4.00106e-05
4.00224e-05
4.00235e-05
4.00852e-05
4.00916e-05
3.99032e-05
4.02908e-05
4.24092e-05
4.07182e-05
2.89223e-05
7.40708e-06
1.11728e-07
0
0
0
0.000949732
0.00357191
0.0244667
0.0682936
0.129661
0.196609
0.258188
0.307625
0.342154
0.362039
0.369476
0.367092
0.348898
0.306454
0.236538
0.148141
0.065091
0.0135436
0.00395229
0.000132202
0
0
0
5.77125e-06
2.25383e-05
4.14437e-05
4.58523e-05
4.26589e-05
3.99632e-05
3.94812e-05
3.98858e-05
4.01588e-05
4.01774e-05
4.0126e-05
4.01039e-05
4.01065e-05
4.01111e-05
4.01116e-05
4.01108e-05
4.01105e-05
4.01105e-05
4.01105e-05
4.01104e-05
4.01102e-05
4.01099e-05
4.01093e-05
4.01083e-05
4.0107e-05
4.01054e-05
4.01033e-05
4.0101e-05
4.00982e-05
4.00946e-05
4.00898e-05
4.00834e-05
4.00759e-05
4.00692e-05
4.00635e-05
4.00571e-05
4.00493e-05
4.004e-05
4.00302e-05
4.00191e-05
4.00107e-05
4.00104e-05
4.00221e-05
4.00228e-05
4.00866e-05
4.00949e-05
4.01235e-05
3.99927e-05
4.02465e-05
4.1268e-05
4.10447e-05
3.69564e-05
1.5847e-05
4.16565e-06
3.47743e-08
0
0
3.32235e-05
0.00247511
0.00948674
0.0352565
0.0805698
0.140518
0.205016
0.264254
0.311547
0.343846
0.361347
0.364864
0.354175
0.322604
0.265226
0.186309
0.102711
0.0405647
0.00590255
0.00197107
5.31253e-05
0
0
6.78535e-07
5.15279e-06
1.76031e-05
3.68956e-05
4.39887e-05
4.27336e-05
4.04066e-05
3.96519e-05
3.98697e-05
4.01207e-05
4.01632e-05
4.01259e-05
4.01072e-05
4.01095e-05
4.01135e-05
4.0114e-05
4.01133e-05
4.01131e-05
4.01131e-05
4.0113e-05
4.01127e-05
4.01121e-05
4.01112e-05
4.01099e-05
4.01083e-05
4.01063e-05
4.01039e-05
4.01011e-05
4.00976e-05
4.00929e-05
4.00865e-05
4.00788e-05
4.00719e-05
4.0066e-05
4.00595e-05
4.00516e-05
4.00421e-05
4.0032e-05
4.00206e-05
4.00115e-05
4.00102e-05
4.00217e-05
4.00222e-05
4.00878e-05
4.00984e-05
4.01318e-05
4.01241e-05
4.00221e-05
4.01193e-05
4.05939e-05
4.20651e-05
4.00186e-05
3.32681e-05
5.61699e-06
1.56126e-06
0
0
0
7.65095e-05
0.00231303
0.00855984
0.0315908
0.073824
0.131392
0.195289
0.255499
0.304484
0.338424
0.356345
0.358319
0.342493
0.302914
0.238039
0.158253
0.0823193
0.0297259
0.0026071
0.000953813
0
0
0
4.63498e-07
5.3768e-06
2.00808e-05
3.83302e-05
4.41683e-05
4.23238e-05
4.01398e-05
3.96731e-05
3.99701e-05
4.01629e-05
4.01592e-05
4.01199e-05
4.01104e-05
4.01151e-05
4.01176e-05
4.01172e-05
4.01166e-05
4.01164e-05
4.01161e-05
4.01156e-05
4.01147e-05
4.01135e-05
4.01119e-05
4.01099e-05
4.01074e-05
4.01046e-05
4.01011e-05
4.00965e-05
4.00901e-05
4.00823e-05
4.00751e-05
4.0069e-05
4.00623e-05
4.00543e-05
4.00446e-05
4.00342e-05
4.00224e-05
4.00125e-05
4.00099e-05
4.00213e-05
4.00215e-05
4.0089e-05
4.01021e-05
4.0111e-05
4.01204e-05
4.01097e-05
4.00712e-05
4.00528e-05
4.03985e-05
4.12785e-05
4.2128e-05
3.85916e-05
2.5125e-05
6.51071e-06
8.75223e-08
0
0
0
7.29141e-05
0.00202514
0.00741938
0.0294702
0.0707368
0.127821
0.191959
0.252957
0.302747
0.336813
0.3529
0.350755
0.326843
0.277283
0.206168
0.127505
0.0595727
0.0166615
0.00468974
0.000137379
0
0
0
5.574e-07
6.96752e-06
2.71483e-05
4.19083e-05
4.37684e-05
4.11328e-05
3.97072e-05
3.97749e-05
4.00918e-05
4.01744e-05
4.0138e-05
4.01147e-05
4.01155e-05
4.01194e-05
4.01202e-05
4.01201e-05
4.01199e-05
4.01193e-05
4.01185e-05
4.01173e-05
4.01157e-05
4.01136e-05
4.01112e-05
4.01084e-05
4.01049e-05
4.01003e-05
4.0094e-05
4.00861e-05
4.00786e-05
4.00722e-05
4.00653e-05
4.00572e-05
4.00473e-05
4.00366e-05
4.00244e-05
4.00136e-05
4.00098e-05
4.00208e-05
4.00209e-05
4.009e-05
4.01058e-05
4.01071e-05
4.01116e-05
4.01097e-05
4.00926e-05
4.00418e-05
4.01842e-05
4.06428e-05
4.20262e-05
4.13514e-05
3.61538e-05
1.3361e-05
3.52459e-06
0
0
0
0
6.6736e-05
0.00201278
0.00740006
0.0295931
0.0712401
0.128965
0.193898
0.25543
0.304723
0.336665
0.347869
0.338474
0.304604
0.245813
0.170581
0.0946897
0.0376015
0.00637394
0.0019099
0
0
0
0
4.12884e-06
1.54817e-05
3.6676e-05
4.43831e-05
4.25841e-05
4.0197e-05
3.96901e-05
3.99918e-05
4.01693e-05
4.0161e-05
4.01293e-05
4.01229e-05
4.01242e-05
4.01237e-05
4.0123e-05
4.01228e-05
4.01224e-05
4.01213e-05
4.01197e-05
4.01176e-05
4.01151e-05
4.01123e-05
4.01088e-05
4.01043e-05
4.00981e-05
4.00901e-05
4.00824e-05
4.00756e-05
4.00685e-05
4.00603e-05
4.00502e-05
4.00391e-05
4.00266e-05
4.0015e-05
4.00098e-05
4.00202e-05
4.00202e-05
4.00908e-05
4.01096e-05
4.01043e-05
4.01055e-05
4.01072e-05
4.01111e-05
4.00946e-05
4.00711e-05
4.00317e-05
4.0349e-05
4.11097e-05
4.22395e-05
4.00117e-05
2.8449e-05
7.34977e-06
9.79767e-08
0
0
0
0
7.02882e-05
0.00225535
0.00838169
0.032045
0.075488
0.135
0.200999
0.262164
0.308923
0.335923
0.340347
0.321262
0.276313
0.208669
0.131521
0.062887
0.0193337
0.00528049
0.000113835
0
0
0
8.32203e-07
1.7529e-06
2.81617e-05
4.23374e-05
4.35792e-05
4.08695e-05
3.97114e-05
3.98654e-05
4.01139e-05
4.0148e-05
4.01229e-05
4.01221e-05
4.01297e-05
4.01304e-05
4.01278e-05
4.01261e-05
4.01251e-05
4.01238e-05
4.01218e-05
4.01193e-05
4.01164e-05
4.01129e-05
4.01085e-05
4.01024e-05
4.00944e-05
4.00864e-05
4.00793e-05
4.0072e-05
4.00636e-05
4.00534e-05
4.00419e-05
4.0029e-05
4.00166e-05
4.00099e-05
4.00196e-05
4.00195e-05
4.00914e-05
4.01133e-05
4.01041e-05
4.01045e-05
4.0105e-05
4.01066e-05
4.01084e-05
4.01052e-05
4.008e-05
4.00343e-05
4.011e-05
4.0511e-05
4.17908e-05
4.16633e-05
3.6921e-05
1.4128e-05
3.73966e-06
1.20614e-08
0
0
0
0
8.40808e-05
0.00259016
0.00965417
0.0366304
0.0836059
0.145889
0.212743
0.271997
0.314092
0.333375
0.328509
0.297513
0.240525
0.166106
0.091385
0.0348683
0.00498743
0.00149015
1.99972e-05
0
0
5.17194e-08
4.88459e-06
1.87735e-05
3.90355e-05
4.41457e-05
4.17899e-05
3.99698e-05
3.98885e-05
4.01745e-05
4.02104e-05
4.01378e-05
4.01109e-05
4.01219e-05
4.01317e-05
4.01324e-05
4.01301e-05
4.01281e-05
4.01261e-05
4.01237e-05
4.01208e-05
4.01173e-05
4.0113e-05
4.0107e-05
4.00991e-05
4.00909e-05
4.00834e-05
4.00757e-05
4.00672e-05
4.00568e-05
4.0045e-05
4.00316e-05
4.00185e-05
4.00101e-05
4.0019e-05
4.00187e-05
4.00916e-05
4.01169e-05
4.01047e-05
4.01051e-05
4.01054e-05
4.01057e-05
4.01068e-05
4.01081e-05
4.01101e-05
4.00938e-05
4.00645e-05
4.00085e-05
4.02555e-05
4.09162e-05
4.23519e-05
3.93926e-05
3.10281e-05
1.64497e-06
5.70955e-07
0
0
0
0
0
0.000360896
0.00110877
0.0135943
0.0445117
0.0964015
0.161816
0.22856
0.283702
0.318291
0.327205
0.310104
0.265304
0.197231
0.120662
0.0545056
0.0143759
0.000829595
0.000269893
0
0
0
2.4069e-06
8.5328e-06
3.33079e-05
4.36405e-05
4.2283e-05
3.97336e-05
3.93978e-05
3.99771e-05
4.02604e-05
4.02229e-05
4.01465e-05
4.01257e-05
4.01306e-05
4.01341e-05
4.01332e-05
4.01309e-05
4.01283e-05
4.01253e-05
4.01218e-05
4.01175e-05
4.01117e-05
4.01039e-05
4.00955e-05
4.00877e-05
4.00796e-05
4.00709e-05
4.00603e-05
4.00482e-05
4.00344e-05
4.00206e-05
4.00106e-05
4.00184e-05
4.00179e-05
4.00918e-05
4.01204e-05
4.01058e-05
4.01061e-05
4.01065e-05
4.01068e-05
4.01071e-05
4.01076e-05
4.01093e-05
4.01107e-05
4.01085e-05
4.00813e-05
4.00368e-05
4.00494e-05
4.05271e-05
4.15375e-05
4.21544e-05
3.67177e-05
2.19399e-05
5.71426e-06
1.27454e-07
0
0
0
0
1.1799e-05
0.000604742
0.00194488
0.0186667
0.0564609
0.114167
0.18232
0.246893
0.294782
0.317937
0.313736
0.280888
0.221312
0.145968
0.0740473
0.0255717
0.00321796
0.000744199
0
0
0
2.6728e-07
7.03187e-06
2.80216e-05
4.45031e-05
4.58707e-05
4.15791e-05
3.94445e-05
3.95206e-05
4.00073e-05
4.01858e-05
4.01728e-05
4.01437e-05
4.01366e-05
4.01369e-05
4.0136e-05
4.01336e-05
4.01305e-05
4.0127e-05
4.01227e-05
4.01171e-05
4.01093e-05
4.0101e-05
4.00928e-05
4.00843e-05
4.00753e-05
4.00645e-05
4.00522e-05
4.00378e-05
4.00234e-05
4.00116e-05
4.00176e-05
4.00169e-05
4.00908e-05
4.0124e-05
4.01067e-05
4.0107e-05
4.01074e-05
4.01077e-05
4.01081e-05
4.01084e-05
4.01088e-05
4.01099e-05
4.01117e-05
4.01135e-05
4.01009e-05
4.00644e-05
4.00085e-05
4.0238e-05
4.09285e-05
4.23532e-05
4.08622e-05
3.40876e-05
1.63803e-05
4.3347e-06
1.26168e-07
0
0
0
0
2.18971e-05
0.00153047
0.00564415
0.0284718
0.0743065
0.139095
0.210459
0.272572
0.312605
0.322604
0.301584
0.24944
0.173975
0.0943853
0.0310249
0.00928001
0.00105618
0.000450664
0.000151439
3.01464e-05
0
1.14001e-06
1.00095e-06
3.17191e-05
4.40167e-05
4.38628e-05
4.11157e-05
3.99894e-05
3.99671e-05
4.01092e-05
4.01532e-05
4.01484e-05
4.01419e-05
4.01395e-05
4.01374e-05
4.01345e-05
4.01309e-05
4.01267e-05
4.01212e-05
4.01136e-05
4.01052e-05
4.00968e-05
4.00879e-05
4.00787e-05
4.00678e-05
4.00551e-05
4.00405e-05
4.00252e-05
4.00123e-05
4.00175e-05
4.00163e-05
4.00919e-05
4.01266e-05
4.01077e-05
4.01081e-05
4.01085e-05
4.01089e-05
4.01094e-05
4.01099e-05
4.01103e-05
4.01109e-05
4.01114e-05
4.01133e-05
4.01152e-05
4.01166e-05
4.00895e-05
4.00516e-05
4.00216e-05
4.04445e-05
4.13913e-05
4.23482e-05
4.04462e-05
3.37335e-05
1.53162e-05
3.79937e-06
0
0
0
0
0
6.7277e-05
0.0017317
0.00594126
0.0276423
0.0690113
0.125974
0.188269
0.242913
0.27891
0.288041
0.267679
0.219481
0.153553
0.0889339
0.0431295
0.0174922
0.00558781
0.00105765
0.000239834
0
3.338e-08
5.39717e-06
2.04341e-05
3.52551e-05
4.04776e-05
4.08075e-05
4.03234e-05
4.01368e-05
4.01339e-05
4.01497e-05
4.01519e-05
4.01495e-05
4.01468e-05
4.01438e-05
4.01402e-05
4.0136e-05
4.01306e-05
4.01234e-05
4.01151e-05
4.01064e-05
4.00967e-05
4.00868e-05
4.00754e-05
4.00625e-05
4.00468e-05
4.00309e-05
4.00148e-05
4.00174e-05
4.0015e-05
4.00869e-05
4.01332e-05
)
;

boundaryField
{
    inlet
    {
        type            freestream;
        freestreamValue uniform 4e-05;
        value           nonuniform List<scalar> 
27
(
4.00638e-05
4.00644e-05
4.00652e-05
4.00662e-05
4.00673e-05
4.00686e-05
4.00701e-05
4.00718e-05
4.00736e-05
4.00756e-05
4.00779e-05
4.00803e-05
4.00829e-05
4.00856e-05
4.00886e-05
4.00916e-05
4.00949e-05
4.00984e-05
4.01021e-05
4.01058e-05
4.01096e-05
4.01133e-05
4.01169e-05
4.01204e-05
4.0124e-05
4.01266e-05
4.01332e-05
)
;
    }
    outlet
    {
        type            freestream;
        freestreamValue uniform 4e-05;
        value           nonuniform List<scalar> 
78
(
4.01077e-05
4.01081e-05
4.01085e-05
4.01089e-05
4.01094e-05
4.01099e-05
4.01103e-05
4.01109e-05
4.01114e-05
4.01133e-05
4.01152e-05
4.01166e-05
4.00895e-05
4.00516e-05
4.00216e-05
4.04445e-05
4.13913e-05
4.23482e-05
4.04462e-05
3.37335e-05
1.53162e-05
3.79937e-06
0
0
0
0
0
6.7277e-05
0.0017317
0.00594126
0.0276423
0.0690113
0.125974
0.188269
0.242913
0.27891
0.288041
0.267679
0.219481
0.153553
0.0889339
0.0431295
0.0174922
0.00558781
0.00105765
0.000239834
0
3.338e-08
5.39717e-06
2.04341e-05
3.52551e-05
4.04776e-05
4.08075e-05
4.03234e-05
4.01368e-05
4.01339e-05
4.01497e-05
4.01519e-05
4.01495e-05
4.01468e-05
4.01438e-05
4.01402e-05
4.0136e-05
4.01306e-05
4.01234e-05
4.01151e-05
4.01064e-05
4.00967e-05
4.00868e-05
4.00754e-05
4.00625e-05
4.00468e-05
4.00309e-05
4.00148e-05
4.00174e-05
4.0015e-05
4.00869e-05
4.01332e-05
)
;
    }
    walls
    {
        type            fixedValue;
        value           nonuniform List<scalar> 0();
    }
    frontAndBack
    {
        type            empty;
    }
    procBoundary7to3
    {
        type            processor;
        value           nonuniform List<scalar> 
16
(
3.94065e-05
4.31648e-05
4.04665e-05
3.99067e-05
4.01188e-05
4.01457e-05
4.01185e-05
4.01087e-05
4.01056e-05
4.01056e-05
4.0104e-05
4.01037e-05
4.01044e-05
4.01055e-05
4.01064e-05
4.01073e-05
)
;
    }
    procBoundary7to6
    {
        type            processor;
        value           nonuniform List<scalar> 
91
(
4.00634e-05
4.00641e-05
4.00641e-05
4.00293e-05
4.00293e-05
4.00257e-05
4.00257e-05
4.00088e-05
4.0013e-05
4.0013e-05
4.00175e-05
4.00097e-05
4.00097e-05
4.00409e-05
4.00339e-05
4.00262e-05
4.00262e-05
4.00581e-05
4.00528e-05
4.0048e-05
4.0048e-05
4.0081e-05
4.00771e-05
4.0072e-05
4.00658e-05
4.00658e-05
4.00929e-05
4.00915e-05
4.00898e-05
4.00878e-05
4.00855e-05
4.00855e-05
4.00976e-05
4.00976e-05
4.00975e-05
4.00974e-05
4.0097e-05
4.00964e-05
4.00956e-05
4.00956e-05
4.01038e-05
4.01027e-05
4.01016e-05
4.01008e-05
4.01003e-05
4.00999e-05
4.00996e-05
4.00995e-05
4.00994e-05
4.00993e-05
4.00993e-05
4.00993e-05
4.00993e-05
1.23438e-07
0
0
0.00119979
0.00469092
0.0287835
0.0763091
0.137211
0.199169
0.254605
0.299952
0.333767
0.356181
0.36898
0.374736
0.374524
0.360825
0.325197
0.262506
0.176656
0.0877892
0.025824
0.0067582
3.02502e-05
0
0
0
6.46557e-06
2.57814e-05
4.1785e-05
4.28085e-05
4.04507e-05
3.98131e-05
4.004e-05
4.01506e-05
4.01245e-05
4.01028e-05
4.01028e-05
)
;
    }
}


// ************************************************************************* //
