/*--------------------------------*- C++ -*----------------------------------*\
| =========                 |                                                 |
| \\      /  F ield         | OpenFOAM: The Open Source CFD Toolbox           |
|  \\    /   O peration     | Version:  2306                                  |
|   \\  /    A nd           | Website:  www.openfoam.com                      |
|    \\/     M anipulation  |                                                 |
\*---------------------------------------------------------------------------*/
FoamFile
{
    version     2.0;
    format      ascii;
    arch        "LSB;label=32;scalar=64";
    class       volSymmTensorField;
    location    "475";
    object      turbulenceProperties:devReff;
}
// * * * * * * * * * * * * * * * * * * * * * * * * * * * * * * * * * * * * * //

dimensions      [0 2 -2 0 0 0 0];

internalField   nonuniform List<symmTensor> 
1340
(
(1.51568e-07 3.94315e-08 -6.5253e-20 -2.16656e-07 -6.69225e-21 6.50878e-08)
(-1.07023e-07 -3.13007e-08 -6.43282e-20 1.62261e-07 -8.10173e-21 -5.52387e-08)
(1.5554e-07 4.35077e-08 3.39364e-20 -2.19593e-07 3.37365e-21 6.40528e-08)
(1.0221e-07 6.49887e-08 3.4538e-19 -1.47565e-07 3.8311e-20 4.53554e-08)
(-9.25691e-08 -3.37645e-08 8.53807e-23 1.52867e-07 -2.99037e-22 -6.02981e-08)
(1.43136e-07 5.17128e-08 -7.59517e-22 -2.14832e-07 1.79412e-22 7.16961e-08)
(-1.62351e-08 2.84923e-08 -1.75616e-19 4.88112e-08 -2.08148e-20 -3.25761e-08)
(9.9609e-08 6.07549e-08 5.64176e-21 -1.46633e-07 1.17725e-21 4.70241e-08)
(-8.39659e-08 -3.49504e-08 7.68616e-20 1.46636e-07 9.50337e-21 -6.26704e-08)
(1.37846e-07 5.57717e-08 -1.54177e-19 -2.13123e-07 -1.58505e-20 7.52767e-08)
(2.98855e-08 4.90591e-08 -4.19252e-19 -1.51924e-08 -4.85475e-20 -1.46931e-08)
(7.13493e-08 5.93794e-08 -2.29483e-19 -9.37004e-08 -2.54224e-20 2.2351e-08)
(-1.42972e-08 2.81719e-08 7.75136e-20 4.72169e-08 9.12895e-21 -3.29197e-08)
(9.9605e-08 5.57299e-08 -1.14383e-19 -1.46909e-07 -1.2715e-20 4.73037e-08)
(-7.94143e-08 -3.4802e-08 -3.23855e-19 1.42544e-07 -4.00646e-20 -6.313e-08)
(1.3792e-07 5.75353e-08 1.48008e-19 -2.13981e-07 1.48771e-20 7.6061e-08)
(5.94311e-08 6.01894e-08 6.19689e-20 -5.33911e-08 7.13148e-21 -6.04004e-09)
(6.91774e-08 6.19026e-08 -1.65701e-20 -7.87268e-08 -1.96779e-21 9.54934e-09)
(3.04716e-08 4.65704e-08 1.61281e-21 -1.55531e-08 -2.9563e-22 -1.49185e-08)
(7.20501e-08 5.44424e-08 7.68301e-22 -9.45512e-08 -1.15869e-22 2.25011e-08)
(-1.2573e-08 2.78112e-08 5.4535e-20 4.57293e-08 6.55779e-21 -3.31562e-08)
(9.9512e-08 5.08401e-08 -5.77898e-21 -1.47123e-07 -8.98144e-22 4.76109e-08)
(-7.51756e-08 -3.46441e-08 1.95196e-22 1.38945e-07 -1.68191e-23 -6.37697e-08)
(1.37724e-07 5.91184e-08 -5.6202e-22 -2.148e-07 1.33584e-22 7.70766e-08)
(9.50689e-08 6.72715e-08 -1.39452e-19 -9.6394e-08 -1.61978e-20 1.3251e-09)
(8.18307e-08 6.34802e-08 -1.77821e-19 -7.95629e-08 -2.02186e-20 -2.26789e-09)
(7.92501e-08 6.27941e-08 -2.22728e-19 -8.29865e-08 -2.48417e-20 3.7364e-09)
(5.91374e-08 5.58369e-08 -9.05326e-20 -5.29943e-08 -9.83401e-21 -6.14306e-09)
(6.94243e-08 5.70207e-08 1.0061e-20 -7.91537e-08 1.4787e-21 9.72942e-09)
(3.09e-08 4.40099e-08 1.70521e-19 -1.58167e-08 1.96321e-20 -1.50833e-08)
(7.236e-08 4.96648e-08 3.53624e-20 -9.51026e-08 3.71622e-21 2.27426e-08)
(-1.07618e-08 2.72034e-08 -1.22266e-19 4.42427e-08 -1.42992e-20 -3.34809e-08)
(9.89003e-08 4.64133e-08 1.0973e-19 -1.4712e-07 1.20871e-20 4.82197e-08)
(-7.07624e-08 -3.48334e-08 1.81478e-22 1.35623e-07 -1.13085e-22 -6.48604e-08)
(1.36402e-07 6.05838e-08 2.78031e-22 -2.15181e-07 -6.18798e-23 7.87789e-08)
(1.20992e-07 6.0422e-08 -3.29546e-20 -1.2084e-07 -3.15421e-21 -1.52675e-10)
(1.10596e-07 6.1644e-08 1.63746e-19 -1.11118e-07 1.80378e-20 5.22333e-10)
(9.99468e-08 6.10953e-08 1.90363e-20 -9.9076e-08 1.88847e-21 -8.70868e-10)
(9.33358e-08 6.06385e-08 1.09703e-19 -9.47467e-08 1.20823e-20 1.41092e-09)
(8.04697e-08 5.76667e-08 4.45291e-22 -7.81605e-08 -3.36684e-22 -2.3092e-09)
(7.85427e-08 5.72264e-08 9.64237e-22 -8.23973e-08 -6.31037e-23 3.8546e-09)
(5.86273e-08 5.14842e-08 7.58643e-20 -5.23921e-08 8.51413e-21 -6.23521e-09)
(6.94022e-08 5.21825e-08 -9.58466e-21 -7.92873e-08 -1.18421e-21 9.88511e-09)
(3.12364e-08 4.1351e-08 -7.92471e-22 -1.59988e-08 2.03974e-22 -1.52376e-08)
(7.24706e-08 4.50342e-08 -1.61983e-22 -9.54522e-08 5.44595e-23 2.29815e-08)
(-9.01476e-09 2.63678e-08 3.50999e-22 4.28463e-08 -6.85454e-23 -3.38316e-08)
(9.82175e-08 4.23031e-08 -5.96617e-22 -1.47111e-07 1.57998e-22 4.88939e-08)
(-6.68492e-08 -3.52079e-08 2.79626e-19 1.32884e-07 3.49042e-20 -6.60347e-08)
(1.34995e-07 6.14708e-08 7.50858e-20 -2.15539e-07 7.63315e-21 8.05436e-08)
(1.68219e-07 3.34078e-08 -9.0633e-20 -1.68211e-07 -9.34994e-21 -7.92287e-12)
(1.54588e-07 4.05693e-08 6.70792e-20 -1.54591e-07 7.46113e-21 2.26272e-12)
(1.41391e-07 4.58675e-08 3.38681e-20 -1.41368e-07 3.36555e-21 -2.2543e-11)
(1.28823e-07 4.94553e-08 -1.25779e-20 -1.28871e-07 -1.48988e-21 4.73762e-11)
(1.16586e-07 5.21363e-08 1.8204e-22 -1.16413e-07 -2.15749e-23 -1.73143e-10)
(1.07136e-07 5.39835e-08 -6.18754e-22 -1.07672e-07 1.16206e-22 5.35386e-10)
(9.71145e-08 5.4117e-08 -6.97183e-23 -9.6206e-08 -2.83054e-22 -9.08476e-10)
(9.12169e-08 5.41806e-08 -1.1956e-19 -9.26674e-08 -1.32312e-20 1.45045e-09)
(7.88008e-08 5.19736e-08 -5.71172e-20 -7.64271e-08 -5.96845e-21 -2.37377e-09)
(7.75295e-08 5.17399e-08 7.15461e-20 -8.14577e-08 8.05527e-21 3.92828e-09)
(5.79218e-08 4.71483e-08 -7.2213e-20 -5.15898e-08 -8.26868e-21 -6.33201e-09)
(6.91485e-08 4.74002e-08 2.89897e-23 -7.91444e-08 -7.41394e-23 9.99597e-09)
(3.14578e-08 3.86173e-08 -1.54216e-19 -1.6079e-08 -1.77897e-20 -1.53788e-08)
(7.2446e-08 4.05253e-08 -3.19509e-20 -9.56182e-08 -3.37576e-21 2.31722e-08)
(-7.45822e-09 2.53668e-08 6.32656e-20 4.16132e-08 7.40974e-21 -3.41549e-08)
(9.76335e-08 3.83694e-08 -9.95011e-20 -1.47147e-07 -1.09858e-20 4.95137e-08)
(-6.36249e-08 -3.56385e-08 -2.36008e-19 1.3076e-07 -2.93373e-20 -6.71352e-08)
(1.34055e-07 6.16933e-08 -9.59624e-20 -2.16245e-07 -9.53813e-21 8.219e-08)
(2.13479e-07 -3.87802e-08 -8.44697e-20 -2.13454e-07 -8.56017e-21 -2.44328e-11)
(2.03146e-07 -2.31965e-08 -1.27383e-20 -2.03121e-07 -9.68475e-22 -2.482e-11)
(1.9216e-07 -9.15706e-09 -1.3212e-20 -1.92134e-07 -1.33472e-21 -2.61912e-11)
(1.80707e-07 3.33803e-09 -2.05104e-20 -1.80682e-07 -1.98726e-21 -2.46794e-11)
(1.68959e-07 1.42762e-08 -4.02211e-21 -1.68937e-07 -1.46427e-22 -2.23878e-11)
(1.57101e-07 2.35746e-08 5.73315e-20 -1.57076e-07 6.13999e-21 -2.50033e-11)
(1.45337e-07 3.11592e-08 6.59896e-20 -1.45327e-07 6.89384e-21 -9.98134e-12)
(1.33773e-07 3.69829e-08 -1.36739e-22 -1.33731e-07 -8.9524e-23 -4.22402e-11)
(1.22663e-07 4.11555e-08 2.85212e-20 -1.22705e-07 3.13972e-21 4.17722e-11)
(1.11652e-07 4.44001e-08 1.83621e-20 -1.11454e-07 1.91366e-21 -1.98555e-10)
(1.03182e-07 4.67463e-08 -4.25134e-23 -1.03722e-07 -6.54291e-23 5.40272e-10)
(9.38345e-08 4.74746e-08 -4.58187e-24 -9.28893e-08 2.25109e-23 -9.4521e-10)
(8.86717e-08 4.79807e-08 7.04127e-22 -9.01491e-08 -5.69946e-24 1.47738e-09)
(7.6781e-08 4.6471e-08 5.48417e-20 -7.43493e-08 5.88841e-21 -2.43166e-09)
(7.61699e-08 4.63986e-08 -6.81645e-20 -8.01518e-08 -7.62347e-21 3.98189e-09)
(5.69751e-08 4.28804e-08 6.87376e-20 -5.05626e-08 7.8398e-21 -6.41251e-09)
(6.86275e-08 4.27148e-08 2.2897e-24 -7.87035e-08 8.14465e-23 1.0076e-08)
(3.15206e-08 3.58477e-08 1.47343e-19 -1.60304e-08 1.68475e-20 -1.54902e-08)
(7.22493e-08 3.61476e-08 3.07989e-20 -9.55712e-08 3.14945e-21 2.3322e-08)
(-6.12768e-09 2.42357e-08 -6.01947e-20 4.05704e-08 -7.13908e-21 -3.44428e-08)
(9.7079e-08 3.45876e-08 2.46826e-22 -1.47171e-07 6.65621e-23 5.0092e-08)
(-6.09607e-08 -3.61285e-08 4.01475e-19 1.29136e-07 4.97558e-20 -6.81757e-08)
(1.33356e-07 6.12907e-08 4.13129e-22 -2.1704e-07 -1.71377e-22 8.36838e-08)
(2.13814e-07 -1.72825e-07 -1.85681e-20 -2.13849e-07 -1.82407e-21 3.48912e-11)
(2.14603e-07 -1.52861e-07 -4.23951e-20 -2.14626e-07 -3.904e-21 2.32506e-11)
(2.13925e-07 -1.33171e-07 1.96299e-20 -2.1394e-07 1.9041e-21 1.44534e-11)
(2.11817e-07 -1.13933e-07 -3.69962e-20 -2.11822e-07 -3.73414e-21 4.63853e-12)
(2.08348e-07 -9.53295e-08 -1.2366e-20 -2.08346e-07 -8.98371e-22 -2.03779e-12)
(2.03605e-07 -7.75265e-08 4.53952e-20 -2.03597e-07 4.56574e-21 -8.13594e-12)
(1.977e-07 -6.06739e-08 4.72891e-21 -1.97687e-07 3.2387e-22 -1.29344e-11)
(1.90759e-07 -4.49015e-08 4.53991e-22 -1.90743e-07 -1.81028e-22 -1.67297e-11)
(1.82925e-07 -3.03088e-08 -1.39914e-20 -1.82906e-07 -1.48955e-21 -1.90185e-11)
(1.74343e-07 -1.69621e-08 -1.02757e-20 -1.74322e-07 -1.01291e-21 -2.04481e-11)
(1.65164e-07 -4.90047e-09 1.17492e-22 -1.65143e-07 1.14754e-23 -2.12806e-11)
(1.55544e-07 5.84482e-09 1.43733e-23 -1.55525e-07 -1.59128e-23 -1.90293e-11)
(1.4564e-07 1.5157e-08 -3.33847e-22 -1.45615e-07 2.96394e-23 -2.49064e-11)
(1.35659e-07 2.29321e-08 -1.06019e-20 -1.35652e-07 -1.00694e-21 -6.44798e-12)
(1.25683e-07 2.90743e-08 9.14221e-23 -1.25637e-07 -5.36166e-23 -4.69482e-11)
(1.16012e-07 3.36467e-08 -2.73497e-20 -1.16061e-07 -2.93295e-21 4.94259e-11)
(1.06237e-07 3.72956e-08 -1.75518e-20 -1.06027e-07 -1.83762e-21 -2.09812e-10)
(9.87617e-08 4.00139e-08 -4.05064e-23 -9.93149e-08 3.98641e-23 5.53171e-10)
(9.01266e-08 4.12424e-08 -4.38559e-24 -8.91607e-08 2.89559e-22 -9.65854e-10)
(8.57101e-08 4.21115e-08 1.07928e-19 -8.7215e-08 1.20221e-20 1.50493e-09)
(7.44103e-08 4.12226e-08 2.82637e-20 -7.19406e-08 3.23774e-21 -2.46969e-09)
(7.44596e-08 4.12619e-08 1.11235e-19 -7.84855e-08 1.2241e-20 4.02594e-09)
(5.57766e-08 3.87293e-08 -6.55353e-20 -4.9312e-08 -7.5345e-21 -6.46462e-09)
(6.78287e-08 3.81675e-08 3.83053e-23 -7.79622e-08 -2.30329e-23 1.01335e-08)
(3.14078e-08 3.30747e-08 -1.00437e-19 -1.58411e-08 -1.12939e-20 -1.55667e-08)
(7.18639e-08 3.19191e-08 8.46902e-20 -9.53033e-08 9.66399e-21 2.34395e-08)
(-5.01281e-09 2.29942e-08 1.46365e-19 3.97068e-08 1.70335e-20 -3.4694e-08)
(9.65034e-08 3.09528e-08 -8.76432e-24 -1.47156e-07 -1.09945e-22 5.06526e-08)
(-5.88536e-08 -3.67105e-08 -2.60962e-22 1.281e-07 5.92074e-23 -6.92459e-08)
(1.32837e-07 6.03706e-08 2.15837e-20 -2.17988e-07 2.19591e-21 8.51507e-08)
(8.04304e-08 -3.20337e-07 1.57346e-20 -8.04846e-08 1.42347e-21 5.42582e-11)
(9.19335e-08 -3.11628e-07 5.9515e-22 -9.20028e-08 6.00317e-23 6.92842e-11)
(1.03195e-07 -3.02021e-07 9.76756e-22 -1.03275e-07 1.19025e-22 7.98368e-11)
(1.14112e-07 -2.91489e-07 4.67578e-20 -1.14198e-07 4.31196e-21 8.59224e-11)
(1.2458e-07 -2.80017e-07 2.10219e-20 -1.2467e-07 1.96251e-21 9.03444e-11)
(1.34486e-07 -2.67621e-07 3.31068e-20 -1.34576e-07 3.04492e-21 8.95918e-11)
(1.43724e-07 -2.54338e-07 1.03516e-20 -1.43808e-07 9.50522e-22 8.41729e-11)
(1.52194e-07 -2.40218e-07 1.8868e-20 -1.52278e-07 1.7088e-21 8.38993e-11)
(1.59781e-07 -2.25352e-07 -1.08786e-20 -1.59854e-07 -1.25831e-21 7.26187e-11)
(1.66408e-07 -2.09828e-07 -6.5265e-20 -1.66475e-07 -6.06892e-21 6.71706e-11)
(1.71981e-07 -1.93763e-07 1.2523e-20 -1.7204e-07 1.26021e-21 5.89455e-11)
(1.76431e-07 -1.77283e-07 -1.71949e-20 -1.7648e-07 -1.70154e-21 4.91986e-11)
(1.79706e-07 -1.60532e-07 8.30128e-23 -1.79747e-07 3.02025e-23 4.10011e-11)
(1.81769e-07 -1.4366e-07 1.1619e-22 -1.818e-07 -6.22119e-23 3.15601e-11)
(1.82605e-07 -1.26825e-07 -2.4026e-23 -1.82631e-07 9.76119e-24 2.53943e-11)
(1.82214e-07 -1.10184e-07 1.16707e-22 -1.8223e-07 -2.72615e-23 1.63041e-11)
(1.80625e-07 -9.38957e-08 4.09035e-23 -1.80635e-07 -3.30673e-23 9.99691e-12)
(1.77885e-07 -7.81146e-08 -1.53781e-22 -1.7789e-07 -4.87195e-23 4.44161e-12)
(1.74062e-07 -6.29901e-08 -2.36936e-20 -1.74061e-07 -2.1999e-21 -1.43139e-12)
(1.69242e-07 -4.86472e-08 4.79185e-20 -1.69238e-07 4.96366e-21 -4.91784e-12)
(1.63527e-07 -3.52064e-08 -3.97815e-21 -1.63518e-07 -5.75878e-22 -8.57394e-12)
(1.57027e-07 -2.27413e-08 9.90048e-21 -1.57017e-07 1.03193e-21 -1.07449e-11)
(1.49862e-07 -1.13163e-08 4.12333e-23 -1.49849e-07 -4.77632e-23 -1.30311e-11)
(1.42161e-07 -9.78012e-10 -6.333e-22 -1.42151e-07 -2.12982e-22 -1.07712e-11)
(1.34054e-07 8.13632e-09 -5.154e-20 -1.34035e-07 -5.60059e-21 -1.96158e-11)
(1.25741e-07 1.58984e-08 -5.03146e-20 -1.25743e-07 -5.12132e-21 2.09407e-12)
(1.17278e-07 2.21725e-08 3.64609e-20 -1.17231e-07 3.98484e-21 -4.6875e-11)
(1.08999e-07 2.69724e-08 -2.89121e-20 -1.0906e-07 -3.19627e-21 6.07517e-11)
(1.00444e-07 3.08754e-08 1.66963e-20 -1.0023e-07 1.85619e-21 -2.14892e-10)
(9.39612e-08 3.38412e-08 -1.27174e-22 -9.45273e-08 -3.20902e-23 5.66097e-10)
(8.60599e-08 3.5474e-08 -6.16975e-23 -8.50828e-08 -7.43099e-23 -9.77121e-10)
(8.23871e-08 3.66241e-08 -3.89226e-20 -8.3914e-08 -4.36232e-21 1.52685e-09)
(7.17296e-08 3.62769e-08 -7.65864e-20 -6.9237e-08 -8.62263e-21 -2.49263e-09)
(7.24291e-08 3.63772e-08 -1.06113e-19 -7.64852e-08 -1.15415e-20 4.05608e-09)
(5.43412e-08 3.47334e-08 2.84795e-20 -4.78481e-08 3.35004e-21 -6.49314e-09)
(6.67692e-08 3.37923e-08 1.55564e-20 -7.69343e-08 1.84462e-21 1.0165e-08)
(3.11256e-08 3.03294e-08 7.67449e-20 -1.55218e-08 8.72415e-21 -1.56038e-08)
(7.1311e-08 2.78479e-08 5.28052e-20 -9.4836e-08 5.88931e-21 2.3525e-08)
(-4.10834e-09 2.16621e-08 -1.90611e-22 3.90075e-08 -2.42668e-23 -3.48991e-08)
(9.59293e-08 2.74325e-08 -8.55327e-24 -1.47112e-07 -5.47214e-24 5.11823e-08)
(-5.72138e-08 -3.73434e-08 -1.03282e-22 1.27463e-07 -2.76758e-23 -7.0249e-08)
(1.32549e-07 5.89468e-08 -2.06137e-20 -2.191e-07 -2.05964e-21 8.65513e-08)
(-9.69621e-08 -6.08504e-08 -1.16995e-21 8.86929e-08 -4.86948e-23 8.26919e-09)
(-1.00204e-07 -2.4914e-08 1.80518e-22 9.29751e-08 -3.73781e-23 7.22895e-09)
(-9.98216e-08 -9.73156e-08 6.32465e-22 1.00815e-07 7.91643e-23 -9.93506e-10)
(-7.06995e-08 -4.00893e-07 -7.10218e-22 7.26334e-08 -2.55809e-23 -1.93386e-09)
(-5.94185e-07 -1.16877e-05 -1.19323e-20 5.97782e-07 -2.08823e-21 -3.59724e-09)
(-4.25685e-06 -2.40317e-05 9.1384e-20 4.22539e-06 6.23343e-21 3.14514e-08)
(-0.00054573 0.00200872 1.90724e-18 0.00054474 2.86914e-19 9.90166e-07)
(-0.00451368 0.0259571 -6.69171e-18 0.00451707 -5.08114e-19 -3.39372e-06)
(-0.016316 0.100549 3.85001e-18 0.0163261 -2.53294e-19 -1.01426e-05)
(-0.0366416 0.222397 3.09973e-17 0.0366407 2.82718e-18 8.46746e-07)
(-0.0607051 0.352062 7.15807e-18 0.0606943 1.06125e-18 1.07751e-05)
(-0.0810725 0.442226 2.49853e-17 0.0810635 2.91911e-18 8.99574e-06)
(-0.0905284 0.456555 -3.96159e-17 0.0905187 -1.59527e-18 9.77741e-06)
(-0.0840497 0.378224 -1.26494e-16 0.0840395 -1.28585e-17 1.01487e-05)
(-0.0605256 0.21534 4.05448e-17 0.060523 -1.88786e-18 2.57172e-06)
(-0.0237346 0.00121297 2.60702e-16 0.0237361 2.40361e-17 -1.52368e-06)
(0.0183317 -0.21446 3.57523e-17 -0.0183395 7.50295e-18 7.80614e-06)
(0.0546631 -0.373391 -5.22383e-17 -0.054667 -4.66493e-18 3.95571e-06)
(0.0725534 -0.421678 7.8403e-18 -0.0725394 -1.05435e-18 -1.40271e-05)
(0.0648709 -0.343965 7.54647e-17 -0.0648494 7.49054e-18 -2.14977e-05)
(0.0384849 -0.191786 -2.87672e-17 -0.0384754 -3.16244e-18 -9.5194e-06)
(0.0130192 -0.0624973 5.34996e-17 -0.0130198 5.6223e-18 6.96433e-07)
(0.00169685 -0.00835554 -2.60006e-17 -0.00169686 -2.4752e-18 1.59792e-08)
(3.33827e-06 -5.12137e-05 9.89947e-19 -3.35477e-06 7.34971e-20 1.65056e-08)
(-4.43592e-06 4.96715e-06 1.95669e-19 4.4188e-06 2.07112e-20 1.71202e-08)
(-8.68868e-08 -9.62128e-09 1.02874e-21 8.67001e-08 1.35896e-22 1.86744e-10)
(-2.66425e-08 -2.06212e-07 1.60204e-21 2.67428e-08 6.16785e-23 -1.00356e-10)
(-2.39293e-09 -2.5822e-07 1.21746e-20 2.4808e-09 1.13493e-21 -8.7878e-11)
(-2.05211e-09 -2.33344e-07 -7.8808e-22 2.05422e-09 -5.07523e-25 -2.1092e-12)
(-4.27019e-09 -2.15086e-07 3.93233e-21 4.25049e-09 4.03008e-22 1.9704e-11)
(-2.68325e-09 -3.16291e-07 -1.36205e-20 2.66303e-09 -1.11692e-21 2.02201e-11)
(6.01461e-09 -3.44284e-07 -2.18879e-20 -6.02197e-09 -2.10096e-21 7.36531e-12)
(1.4406e-08 -3.08498e-07 1.87346e-21 -1.4416e-08 1.08913e-22 1.00344e-11)
(2.2574e-08 -2.92292e-07 -8.39565e-21 -2.25848e-08 -8.1458e-22 1.08553e-11)
(3.17809e-08 -2.89079e-07 1.7869e-20 -3.17944e-08 1.63393e-21 1.345e-11)
(4.14081e-08 -2.85703e-07 -5.58047e-21 -4.14253e-08 -4.35901e-22 1.72112e-11)
(5.09859e-08 -2.80185e-07 -1.55945e-20 -5.10077e-08 -1.44257e-21 2.18283e-11)
(6.05609e-08 -2.73983e-07 -1.39607e-20 -6.05862e-08 -1.33576e-21 2.53145e-11)
(7.01556e-08 -2.67397e-07 1.28895e-20 -7.01891e-08 1.19141e-21 3.34259e-11)
(7.96593e-08 -2.60154e-07 1.66483e-25 -7.96977e-08 -4.60174e-24 3.84699e-11)
(8.89768e-08 -2.52133e-07 -2.48328e-23 -8.90215e-08 3.40724e-23 4.46738e-11)
(9.80236e-08 -2.43327e-07 -1.5528e-23 -9.80724e-08 2.41353e-23 4.87814e-11)
(1.06719e-07 -2.33726e-07 -2.2063e-23 -1.06773e-07 1.6671e-23 5.47427e-11)
(1.14963e-07 -2.23337e-07 -1.17171e-23 -1.15017e-07 6.7524e-24 5.41726e-11)
(1.22676e-07 -2.12181e-07 -6.40858e-22 -1.22734e-07 -7.2863e-23 5.78425e-11)
(1.29761e-07 -2.00314e-07 -1.76038e-20 -1.29816e-07 -1.68097e-21 5.53605e-11)
(1.36141e-07 -1.87803e-07 1.12242e-22 -1.36194e-07 1.07935e-22 5.30066e-11)
(1.41737e-07 -1.74728e-07 4.96443e-20 -1.41787e-07 4.7869e-21 5.02548e-11)
(1.46474e-07 -1.61182e-07 6.1782e-23 -1.46519e-07 -1.00968e-22 4.53152e-11)
(1.50291e-07 -1.47269e-07 1.25833e-20 -1.50332e-07 1.2068e-21 4.04592e-11)
(1.53141e-07 -1.33113e-07 -3.20846e-21 -1.53175e-07 -3.2094e-22 3.37752e-11)
(1.5499e-07 -1.18841e-07 2.14781e-20 -1.55019e-07 2.15399e-21 2.89493e-11)
(1.55814e-07 -1.04577e-07 1.56342e-23 -1.55836e-07 -7.04831e-23 2.21707e-11)
(1.55615e-07 -9.04627e-08 5.28388e-24 -1.55632e-07 -2.28684e-23 1.66809e-11)
(1.54409e-07 -7.66322e-08 1.72669e-23 -1.54421e-07 8.68319e-23 1.21046e-11)
(1.52229e-07 -6.32228e-08 2.26613e-20 -1.52235e-07 2.10467e-21 6.4244e-12)
(1.49128e-07 -5.03566e-08 -5.0257e-20 -1.4913e-07 -5.12487e-21 2.22575e-12)
(1.45173e-07 -3.81506e-08 1.2702e-20 -1.45172e-07 1.46776e-21 -6.18705e-13)
(1.40442e-07 -2.66916e-08 -7.12267e-23 -1.40439e-07 -1.33464e-23 -3.54429e-12)
(1.35024e-07 -1.60484e-08 1.84438e-22 -1.35017e-07 -1.30284e-22 -7.23622e-12)
(1.29023e-07 -6.28179e-09 -2.83924e-20 -1.29018e-07 -3.00019e-21 -4.34307e-12)
(1.22536e-07 2.4634e-09 3.05116e-22 -1.2252e-07 4.19623e-23 -1.61426e-11)
(1.15756e-07 1.00422e-08 9.49555e-21 -1.15765e-07 8.90314e-22 8.86475e-12)
(1.08706e-07 1.62831e-08 -2.37066e-22 -1.08659e-07 3.15972e-23 -4.75987e-11)
(1.0175e-07 2.11581e-08 2.47433e-22 -1.0182e-07 -7.61881e-23 7.03391e-11)
(9.43774e-08 2.51747e-08 -1.59709e-20 -9.41578e-08 -1.81174e-21 -2.19629e-10)
(8.88643e-08 2.82711e-08 -3.66532e-20 -8.94383e-08 -4.00817e-21 5.73983e-10)
(8.17057e-08 3.02102e-08 -2.39193e-20 -8.0722e-08 -2.4971e-21 -9.8378e-10)
(7.87608e-08 3.15641e-08 1.19434e-20 -8.03007e-08 1.47882e-21 1.53997e-09)
(6.87813e-08 3.16741e-08 5.69099e-20 -6.6276e-08 6.29627e-21 -2.50536e-09)
(7.01131e-08 3.17858e-08 5.11006e-20 -7.41803e-08 5.44799e-21 4.0672e-09)
(5.26927e-08 3.09312e-08 -7.21105e-23 -4.61949e-08 -1.82967e-22 -6.49781e-09)
(6.54645e-08 2.96179e-08 -6.78602e-20 -7.56289e-08 -7.58929e-21 1.01644e-08)
(3.06631e-08 2.7646e-08 -1.46166e-22 -1.50564e-08 6.89001e-23 -1.56067e-08)
(7.05969e-08 2.39343e-08 -5.10058e-20 -9.41527e-08 -5.52543e-21 2.35558e-08)
(-3.44391e-09 2.02758e-08 3.89157e-20 3.84998e-08 4.61494e-21 -3.50559e-08)
(9.53799e-08 2.39727e-08 -2.08493e-22 -1.47031e-07 -2.11984e-23 5.16511e-08)
(-5.60841e-08 -3.79845e-08 -1.60233e-19 1.27296e-07 -1.98382e-20 -7.12118e-08)
(1.32583e-07 5.7031e-08 1.96362e-20 -2.20406e-07 2.00188e-21 8.78228e-08)
(-1.25618e-07 -1.36678e-07 -2.56841e-24 1.14696e-07 -8.22329e-23 1.09222e-08)
(-8.02203e-08 -5.81868e-08 1.82937e-21 7.42112e-08 1.54674e-22 6.00909e-09)
(-8.94943e-08 -1.97457e-08 6.85256e-22 9.02189e-08 1.14949e-22 -7.24643e-10)
(-8.5769e-08 -4.75625e-08 -5.63421e-22 8.7294e-08 -2.49127e-23 -1.52492e-09)
(-6.10053e-08 -2.65874e-07 -5.75815e-22 6.10812e-08 -6.44625e-23 -7.58663e-11)
(-2.57345e-08 -6.40255e-07 2.81821e-24 2.56064e-08 -8.86069e-24 1.28103e-10)
(-7.30045e-06 -0.00015195 2.21552e-22 7.29252e-06 -5.67762e-21 7.92716e-09)
(-0.000152729 0.000221432 1.04075e-18 0.000152332 1.10231e-19 3.96501e-07)
(-0.00201631 0.0103758 -3.32721e-18 0.00201619 -3.48902e-19 1.18159e-07)
(-0.00959539 0.0569881 1.91632e-17 0.00960241 1.75622e-18 -7.01785e-06)
(-0.0255874 0.153201 -1.00625e-17 0.0255933 -4.40352e-19 -5.84678e-06)
(-0.0474003 0.274137 2.31376e-19 0.0473937 -7.99469e-19 6.62664e-06)
(-0.0683703 0.374773 5.58534e-17 0.06836 5.1853e-18 1.02657e-05)
(-0.0810377 0.414635 -1.98556e-18 0.0810283 1.34948e-18 9.36707e-06)
(-0.079613 0.370337 -6.30283e-17 0.0796041 -5.71173e-18 8.90275e-06)
(-0.0618268 0.241982 -1.13225e-18 0.0618235 1.59243e-19 3.28626e-06)
(-0.0301931 0.0552411 -7.20868e-17 0.030194 -8.11971e-18 -9.05608e-07)
(0.0084722 -0.145876 8.03959e-17 -0.00847823 5.89951e-18 6.03044e-06)
(0.0442041 -0.30763 5.32734e-17 -0.0442089 5.58931e-18 4.7931e-06)
(0.0648613 -0.376049 3.58116e-17 -0.0648515 2.67355e-18 -9.79016e-06)
(0.0620407 -0.326561 1.00341e-16 -0.0620229 1.18036e-17 -1.7824e-05)
(0.0396474 -0.195494 -1.39913e-16 -0.0396377 -1.37829e-17 -9.73411e-06)
(0.0149475 -0.0705229 7.56398e-17 -0.0149465 7.1635e-18 -9.99783e-07)
(0.00237581 -0.011185 -3.06688e-17 -0.00237561 -2.6123e-18 -2.03805e-07)
(2.92192e-05 -0.000209722 2.44432e-21 -2.92558e-05 -2.5832e-20 3.65195e-08)
(-1.06167e-05 1.42649e-05 2.05896e-22 1.05763e-05 2.47189e-21 4.04462e-08)
(-8.85655e-08 5.88763e-08 -2.91976e-21 8.83501e-08 -2.35017e-22 2.15346e-10)
(-2.89935e-08 -1.45182e-07 -4.87327e-21 2.90569e-08 -4.8202e-22 -6.3432e-11)
(-5.60079e-10 -2.18383e-07 6.08629e-22 6.29887e-10 3.05429e-23 -6.9808e-11)
(1.36811e-09 -2.02241e-07 -1.2226e-21 -1.3754e-09 -1.15428e-22 7.29083e-12)
(-1.34849e-09 -1.76563e-07 5.18556e-22 1.31383e-09 3.63389e-24 3.46622e-11)
(2.51105e-10 -2.46394e-07 9.78431e-21 -2.97239e-10 9.247e-22 4.61337e-11)
(8.32609e-09 -2.98105e-07 3.30657e-24 -8.3696e-09 -1.89687e-24 4.35139e-11)
(1.54035e-08 -2.65361e-07 1.49883e-20 -1.54441e-08 1.46133e-21 4.06075e-11)
(2.16639e-08 -2.45081e-07 -1.30707e-20 -2.17036e-08 -1.19148e-21 3.96982e-11)
(2.90626e-08 -2.40727e-07 3.43884e-21 -2.9106e-08 2.8633e-22 4.34609e-11)
(3.71014e-08 -2.38361e-07 -4.02501e-24 -3.71454e-08 -2.89731e-23 4.40513e-11)
(4.51205e-08 -2.34029e-07 1.72017e-20 -4.51607e-08 1.63595e-21 4.01764e-11)
(5.31047e-08 -2.2887e-07 -4.71265e-21 -5.31487e-08 -4.17141e-22 4.39329e-11)
(6.10977e-08 -2.23427e-07 6.09421e-21 -6.11386e-08 5.71379e-22 4.09794e-11)
(6.90281e-08 -2.17422e-07 3.19753e-21 -6.90699e-08 3.40012e-22 4.18772e-11)
(7.67922e-08 -2.10686e-07 -4.69914e-24 -7.68334e-08 2.98883e-23 4.11651e-11)
(8.43313e-08 -2.0324e-07 1.7368e-20 -8.43719e-08 1.69244e-21 4.0598e-11)
(9.15865e-08 -1.95116e-07 -3.26503e-24 -9.16264e-08 -3.5235e-24 3.99628e-11)
(9.84856e-08 -1.86322e-07 5.81993e-22 -9.8525e-08 9.9841e-23 3.93806e-11)
(1.0495e-07 -1.76873e-07 1.26326e-20 -1.04988e-07 1.21858e-21 3.79596e-11)
(1.1091e-07 -1.66817e-07 2.0245e-23 -1.10946e-07 -8.06474e-23 3.62392e-11)
(1.16293e-07 -1.56212e-07 -8.20898e-23 -1.16327e-07 1.00154e-22 3.34908e-11)
(1.21035e-07 -1.45119e-07 2.64827e-20 -1.21065e-07 2.60131e-21 3.08056e-11)
(1.25072e-07 -1.33621e-07 -1.19507e-20 -1.25099e-07 -1.25059e-21 2.73074e-11)
(1.28352e-07 -1.21811e-07 2.54969e-23 -1.28375e-07 -7.11822e-23 2.34739e-11)
(1.30832e-07 -1.09789e-07 -2.05364e-20 -1.30853e-07 -2.01705e-21 2.00427e-11)
(1.32477e-07 -9.7658e-08 1.32614e-23 -1.32492e-07 5.85204e-23 1.46942e-11)
(1.3327e-07 -8.55316e-08 4.5132e-24 -1.33281e-07 4.29633e-23 1.09078e-11)
(1.33204e-07 -7.35271e-08 2.0989e-20 -1.33211e-07 2.16211e-21 6.99542e-12)
(1.32289e-07 -6.17627e-08 2.74695e-21 -1.32292e-07 2.77692e-22 3.32532e-12)
(1.30549e-07 -5.03561e-08 4.39304e-21 -1.30548e-07 3.58726e-22 -7.29126e-13)
(1.28025e-07 -3.94112e-08 -8.39356e-21 -1.28022e-07 -9.64115e-22 -3.13204e-12)
(1.24768e-07 -2.90213e-08 -2.27011e-20 -1.24763e-07 -2.13397e-21 -5.30906e-12)
(1.20836e-07 -1.92518e-08 6.76042e-20 -1.20827e-07 7.27031e-21 -9.04373e-12)
(1.16311e-07 -1.01761e-08 2.76589e-20 -1.16306e-07 2.83534e-21 -5.07532e-12)
(1.11259e-07 -1.9288e-09 4.67722e-20 -1.1124e-07 4.98921e-21 -1.9122e-11)
(1.05862e-07 5.32863e-09 5.41577e-20 -1.05872e-07 5.59111e-21 1.02313e-11)
(1.00108e-07 1.13966e-08 -4.19555e-20 -1.00055e-07 -4.50346e-21 -5.30041e-11)
(9.43869e-08 1.62159e-08 5.80531e-20 -9.44613e-08 6.35032e-21 7.4381e-11)
(8.81379e-08 2.02214e-08 -1.50384e-20 -8.79125e-08 -1.79854e-21 -2.25377e-10)
(8.35575e-08 2.33386e-08 -3.09113e-23 -8.41322e-08 7.42617e-23 5.74652e-10)
(7.71355e-08 2.54868e-08 1.25787e-20 -7.61489e-08 1.32624e-21 -9.86626e-10)
(7.48924e-08 2.6974e-08 -1.05304e-20 -7.64322e-08 -1.09313e-21 1.53985e-09)
(6.56126e-08 2.74583e-08 4.4701e-20 -6.31075e-08 5.08287e-21 -2.50509e-09)
(6.75561e-08 2.75241e-08 3.40197e-20 -7.16145e-08 3.7544e-21 4.05846e-09)
(5.0847e-08 2.73633e-08 -5.692e-24 -4.43715e-08 5.2155e-24 -6.47544e-09)
(6.39513e-08 2.56655e-08 4.36519e-20 -7.407e-08 4.85346e-21 1.01187e-08)
(3.00087e-08 2.50754e-08 9.79825e-24 -1.44593e-08 -2.28434e-22 -1.55494e-08)
(6.97811e-08 2.01622e-08 -1.47621e-19 -9.32989e-08 -1.66043e-20 2.35178e-08)
(-3.07374e-09 1.88921e-08 -3.7187e-20 3.81845e-08 -4.27622e-21 -3.51108e-08)
(9.49544e-08 2.05256e-08 -9.52455e-20 -1.46934e-07 -1.03344e-20 5.19793e-08)
(-5.54279e-08 -3.85236e-08 1.61421e-19 1.27415e-07 2.00059e-20 -7.19871e-08)
(1.33146e-07 5.4658e-08 -1.8742e-20 -2.22036e-07 -1.88471e-21 8.88899e-08)
(-1.1367e-07 -1.45854e-07 -7.39047e-25 1.0374e-07 2.71169e-23 9.92997e-09)
(-1.05205e-07 -1.25094e-07 3.6434e-24 9.69601e-08 2.38877e-23 8.24505e-09)
(-7.18672e-08 -5.67598e-08 -6.59378e-22 7.24773e-08 -8.72088e-23 -6.10074e-10)
(-7.48809e-08 -1.95149e-08 9.51992e-22 7.62006e-08 7.37479e-23 -1.31968e-09)
(-7.23085e-08 -1.6235e-08 1.75734e-22 7.23505e-08 5.07593e-23 -4.20077e-11)
(-5.57073e-08 -1.55528e-07 -7.83482e-22 5.54984e-08 -7.75821e-23 2.08913e-10)
(-2.24319e-08 -4.79845e-07 5.02053e-22 2.25857e-08 3.41497e-23 -1.53792e-10)
(-2.83272e-07 -4.7008e-05 2.28809e-22 2.98003e-07 4.57919e-22 -1.47306e-08)
(-1.86338e-05 -7.39178e-05 -2.50131e-22 1.85676e-05 6.33828e-22 6.61483e-08)
(-0.000715205 0.00299422 1.9563e-20 0.000714411 6.96487e-21 7.94201e-07)
(-0.00498968 0.0280958 -3.26147e-20 0.00499301 -1.21022e-19 -3.33371e-06)
(-0.0165846 0.0974858 1.44229e-17 0.0165934 1.41713e-18 -8.83539e-06)
(-0.0353512 0.203534 2.23229e-19 0.0353508 2.47093e-19 3.2527e-07)
(-0.0560381 0.308274 -1.31951e-18 0.0560293 -6.34806e-19 8.79438e-06)
(-0.0711956 0.368631 4.07144e-17 0.0711879 4.1107e-18 7.68246e-06)
(-0.0743052 0.354838 2.96978e-18 0.0742981 6.50133e-19 7.02179e-06)
(-0.0619832 0.259252 3.08587e-17 0.0619792 2.1802e-18 4.02606e-06)
(-0.0354026 0.099585 5.8176e-17 0.0354016 6.0094e-18 1.02019e-06)
(-0.000254788 -0.0857849 3.12952e-20 0.000248365 1.16155e-18 6.42249e-06)
(0.034411 -0.247194 -3.84694e-17 -0.03442 -3.02261e-18 8.95709e-06)
(0.0571306 -0.33165 -4.40722e-17 -0.0571308 -6.58744e-18 1.32534e-07)
(0.0586108 -0.307353 1.74384e-16 -0.058601 1.79187e-17 -9.83795e-06)
(0.0402024 -0.197176 -1.34195e-16 -0.0401958 -1.16774e-17 -6.56345e-06)
(0.0166335 -0.0778838 4.93386e-19 -0.0166336 -4.71772e-19 1.79825e-07)
(0.00310216 -0.014335 -8.38561e-18 -0.00310224 -7.78806e-19 7.73413e-08)
(8.63985e-05 -0.000500569 -1.39223e-21 -8.64305e-05 -5.8472e-21 3.20105e-08)
(-1.6085e-05 2.13037e-05 -1.32643e-19 1.60384e-05 -1.28415e-20 4.65981e-08)
(-8.71842e-08 1.05216e-07 -4.06344e-24 8.71004e-08 1.62882e-23 8.37464e-11)
(-2.81651e-08 -9.37836e-08 -2.75593e-21 2.83565e-08 -2.63781e-22 -1.91434e-10)
(3.66093e-09 -1.81487e-07 -1.97435e-24 -3.47288e-09 -1.77315e-23 -1.88054e-10)
(5.62616e-09 -1.72551e-07 6.79229e-25 -5.5582e-09 -5.11697e-24 -6.79571e-11)
(6.4648e-10 -1.46757e-07 -1.31699e-22 -6.40323e-10 -8.05496e-24 -6.15766e-12)
(6.01984e-10 -1.7263e-07 -1.65737e-21 -5.96687e-10 -1.05716e-22 -5.29609e-12)
(7.80801e-09 -2.4187e-07 -2.09568e-20 -7.78974e-09 -2.06863e-21 -1.82715e-11)
(1.51068e-08 -2.26386e-07 1.34655e-20 -1.50956e-08 1.24244e-21 -1.1275e-11)
(2.04087e-08 -2.0623e-07 -3.29252e-21 -2.0416e-08 -2.80625e-22 7.24019e-12)
(2.63798e-08 -2.01109e-07 1.18245e-24 -2.64024e-08 -1.4535e-23 2.26151e-11)
(3.30709e-08 -1.9963e-07 -3.72996e-21 -3.31049e-08 -3.42401e-22 3.40829e-11)
(3.978e-08 -1.9617e-07 -7.21769e-21 -3.98208e-08 -7.03934e-22 4.07742e-11)
(4.63923e-08 -1.91484e-07 -5.03399e-25 -4.64388e-08 -8.95853e-24 4.64781e-11)
(5.30302e-08 -1.86647e-07 -7.50437e-24 -5.30798e-08 2.97391e-23 4.96352e-11)
(5.96673e-08 -1.81554e-07 1.07002e-20 -5.97225e-08 1.05636e-21 5.52382e-11)
(6.61827e-08 -1.75888e-07 -1.3588e-20 -6.62375e-08 -1.30077e-21 5.47787e-11)
(7.25069e-08 -1.69564e-07 -3.32167e-21 -7.25628e-08 -3.13096e-22 5.58195e-11)
(7.8593e-08 -1.62625e-07 -4.56009e-24 -7.86499e-08 1.71292e-23 5.69179e-11)
(8.4387e-08 -1.55109e-07 -8.58045e-24 -8.44421e-08 9.95071e-24 5.5089e-11)
(8.98328e-08 -1.47041e-07 1.63743e-23 -8.98872e-08 -4.89105e-23 5.43966e-11)
(9.48667e-08 -1.38461e-07 -1.87592e-23 -9.49183e-08 -3.75877e-23 5.1573e-11)
(9.94308e-08 -1.29406e-07 -2.52645e-20 -9.94809e-08 -2.4031e-21 5.00901e-11)
(1.03465e-07 -1.19944e-07 3.10831e-20 -1.03511e-07 3.16277e-21 4.57887e-11)
(1.06922e-07 -1.10138e-07 2.93973e-21 -1.06965e-07 1.97797e-22 4.26945e-11)
(1.09754e-07 -1.0007e-07 1.82334e-23 -1.09794e-07 -7.02769e-24 4.00212e-11)
(1.11918e-07 -8.98234e-08 1.78323e-23 -1.11953e-07 -7.42655e-24 3.46277e-11)
(1.13389e-07 -7.94855e-08 3.82857e-24 -1.1342e-07 -8.15103e-23 3.12007e-11)
(1.14145e-07 -6.9156e-08 -2.01423e-20 -1.14172e-07 -2.01513e-21 2.68093e-11)
(1.14179e-07 -5.89379e-08 -2.65237e-21 -1.14202e-07 -1.93065e-22 2.22952e-11)
(1.13497e-07 -4.893e-08 1.27685e-21 -1.13515e-07 1.95604e-22 1.8055e-11)
(1.12117e-07 -3.92348e-08 2.29621e-20 -1.12132e-07 2.4135e-21 1.48398e-11)
(1.10065e-07 -2.99318e-08 8.5916e-21 -1.10076e-07 5.41421e-22 1.09392e-11)
(1.07381e-07 -2.109e-08 -9.18291e-20 -1.07387e-07 -9.66658e-21 6.08317e-12)
(1.04119e-07 -1.2783e-08 -1.61928e-20 -1.04129e-07 -1.43406e-21 9.89011e-12)
(1.0032e-07 -5.12673e-09 1.84197e-20 -1.00311e-07 1.79676e-21 -9.2218e-12)
(9.61551e-08 1.69616e-09 -8.87771e-20 -9.61787e-08 -9.40594e-21 2.35804e-11)
(9.15753e-08 7.48551e-09 3.15349e-20 -9.15293e-08 3.54186e-21 -4.59727e-11)
(8.69875e-08 1.21278e-08 -1.60612e-20 -8.70726e-08 -1.71177e-21 8.50951e-11)