/*--------------------------------*- C++ -*----------------------------------*\
| =========                 |                                                 |
| \\      /  F ield         | OpenFOAM: The Open Source CFD Toolbox           |
|  \\    /   O peration     | Version:  2306                                  |
|   \\  /    A nd           | Website:  www.openfoam.com                      |
|    \\/     M anipulation  |                                                 |
\*---------------------------------------------------------------------------*/
FoamFile
{
    version     2.0;
    format      ascii;
    arch        "LSB;label=32;scalar=64";
    class       volVectorField;
    location    "275";
    object      momentError;
}
// * * * * * * * * * * * * * * * * * * * * * * * * * * * * * * * * * * * * * //

dimensions      [0 1 -2 0 0 0 0];

internalField   nonuniform List<vector> 
1340
(
(-0.000171727 -9.60964e-05 -2.94486e-15)
(-0.000182899 -0.000143733 -2.4045e-14)
(-0.000171147 -0.000166653 1.50574e-14)
(-0.000132423 -0.000183209 4.42718e-14)
(-8.90797e-05 -0.000216929 1.45139e-14)
(-0.000123156 5.5123e-05 -6.00171e-15)
(-0.000140594 4.4093e-06 9.6961e-15)
(-0.000137185 -2.85229e-05 2.38017e-14)
(-0.000111753 -6.2974e-05 -3.81603e-14)
(-8.41892e-05 -0.000105239 -2.82665e-14)
(-4.03284e-05 -0.000115585 -1.8164e-14)
(-8.17776e-05 0.000170272 2.60278e-15)
(-0.000105221 0.000119651 5.17237e-15)
(-0.000109544 7.86296e-05 -1.37184e-14)
(-9.54291e-05 3.29726e-05 1.79592e-14)
(-7.55129e-05 -1.33699e-05 3.21802e-14)
(-4.39486e-05 -3.64664e-05 1.62631e-15)
(-8.24276e-06 -5.7116e-05 1.14009e-14)
(-4.59401e-05 0.0002567 -1.68862e-15)
(-7.48233e-05 0.000206688 -7.01458e-15)
(-8.61511e-05 0.000161273 3.88188e-15)
(-8.06985e-05 0.000109093 1.97635e-16)
(-6.83238e-05 6.0854e-05 -2.05614e-14)
(-4.6228e-05 3.04392e-05 1.64719e-14)
(-1.9357e-05 6.80607e-06 -4.47721e-14)
(1.31837e-05 -1.11105e-05 6.26853e-15)
(-1.72575e-05 0.000319868 -1.88516e-15)
(-4.98247e-05 0.00027154 4.62864e-15)
(-6.63471e-05 0.000224251 4.25412e-15)
(-6.80507e-05 0.000168469 -1.87496e-14)
(-6.21307e-05 0.000119601 -5.85104e-14)
(-4.8325e-05 8.68624e-05 3.65974e-14)
(-2.88167e-05 6.24569e-05 -7.66478e-14)
(-6.14838e-06 4.46051e-05 2.59048e-14)
(1.80729e-05 2.81621e-05 1.37792e-13)
(5.83693e-06 0.000364417 8.91309e-16)
(-2.92569e-05 0.000318721 3.92449e-16)
(-4.96744e-05 0.00027131 -1.03303e-14)
(-5.70621e-05 0.000214008 -7.62175e-15)
(-5.66711e-05 0.000165317 3.01703e-15)
(-4.94709e-05 0.000133139 1.7036e-14)
(-3.70208e-05 0.000109731 9.66397e-16)
(-2.16886e-05 9.15083e-05 -7.22296e-14)
(-5.97634e-06 7.5208e-05 6.96898e-14)
(1.12666e-05 6.06947e-05 2.7345e-14)
(2.41069e-05 0.000394538 1.09011e-15)
(-1.24975e-05 0.000351596 -4.00238e-15)
(-3.57516e-05 0.000305332 1.48719e-15)
(-4.78599e-05 0.000248088 1.98363e-14)
(-5.20803e-05 0.000200345 4.59541e-14)
(-5.02492e-05 0.00017073 -7.60293e-14)
(-4.39406e-05 0.000148953 6.16812e-14)
(-3.55521e-05 0.000130743 -3.67922e-14)
(-2.53693e-05 0.000113134 -6.93654e-14)
(-1.48542e-05 9.60868e-05 8.47544e-15)
(3.83947e-05 0.000413412 -1.83108e-15)
(9.09031e-07 0.000373193 -1.53649e-16)
(-2.43091e-05 0.000328575 1.45155e-16)
(-4.00872e-05 0.00027271 1.59688e-14)
(-4.80074e-05 0.000225817 1.12262e-15)
(-5.04711e-05 0.000199613 3.17747e-14)
(-4.97413e-05 0.000180639 -1.61837e-14)
(-4.72086e-05 0.000162421 -4.82482e-14)
(-4.23837e-05 0.000143701 -3.13539e-14)
(-3.69026e-05 0.000125976 -6.74678e-14)
(-2.91018e-05 0.000109245 -1.83925e-14)
(4.91288e-05 0.000423276 -2.15131e-17)
(1.14173e-05 0.000385536 -6.79458e-15)
(-1.50178e-05 0.00034313 2.95859e-15)
(-3.33518e-05 0.000289536 9.02177e-15)
(-4.43653e-05 0.000244865 -1.16807e-14)
(-5.04378e-05 0.000221603 -1.19122e-14)
(-5.45498e-05 0.000205428 -1.99101e-14)
(-5.69473e-05 0.000187159 -1.52663e-14)
(-5.67446e-05 0.00016803 3.16847e-14)
(-5.46006e-05 0.000149341 8.43549e-14)
(-5.07274e-05 0.000130151 -4.37717e-14)
(5.69986e-05 0.000425991 -8.34964e-16)
(1.95886e-05 0.000390854 6.40814e-16)
(-7.51584e-06 0.000350732 -4.72588e-16)
(-2.75853e-05 0.000299994 -1.32223e-14)
(-4.13033e-05 0.000259397 9.08224e-15)
(-5.05693e-05 0.000238756 -6.56926e-15)
(-5.85295e-05 0.000223936 -1.35452e-15)
(-6.49301e-05 0.000205897 7.30552e-14)
(-6.85155e-05 0.000186632 7.48561e-15)
(-6.94189e-05 0.000167118 5.97162e-14)
(-6.88419e-05 0.000147757 6.8694e-14)
(-6.66528e-05 0.000132421 -3.4127e-14)
(6.27293e-05 0.000423122 1.35976e-16)
(2.59033e-05 0.000390466 -5.88039e-15)
(-1.51181e-06 0.000352786 -8.24446e-15)
(-2.27814e-05 0.000305086 -9.6893e-15)
(-3.85698e-05 0.000268992 1.21008e-14)
(-5.06035e-05 0.000250908 5.11887e-14)
(-6.16759e-05 0.000237046 -4.15967e-15)
(-7.12633e-05 0.000219306 2.46264e-14)
(-7.79927e-05 0.000200145 -1.82416e-15)
(-8.16439e-05 0.000180423 -7.13153e-14)
(-8.33334e-05 0.00016116 -3.71831e-14)
(-8.2332e-05 0.000144121 5.53544e-14)
(6.66906e-05 0.000416002 -3.45985e-18)
(3.06569e-05 0.00038569 2.6554e-15)
(3.21842e-06 0.000350337 8.61132e-15)
(-1.88151e-05 0.000305782 3.30088e-15)
(-3.60786e-05 0.000274007 1.10873e-15)
(-5.03966e-05 0.000258591 -6.98795e-15)
(-6.39928e-05 0.000245533 7.87802e-14)
(-7.61318e-05 0.000228227 -2.69482e-16)
(-8.5428e-05 0.00020939 -9.58025e-14)
(-9.13218e-05 0.000189798 -2.17987e-14)
(-9.48188e-05 0.000170509 1.28235e-14)
(-9.64432e-05 0.000152605 1.59221e-14)
(6.90308e-05 0.000405432 6.75428e-16)
(3.40761e-05 0.000377285 5.40288e-15)
(6.85362e-06 0.000344344 -3.1258e-15)
(-1.55997e-05 0.000302902 2.60587e-14)
(-3.38476e-05 0.000275396 2.40077e-14)
(-4.99517e-05 0.000262331 -3.5691e-16)
(-6.55515e-05 0.000250061 2.13585e-14)
(-7.96729e-05 0.000233217 -3.76762e-14)
(-9.10008e-05 0.000214883 -2.42383e-14)
(-9.87926e-05 0.000195735 -7.96679e-14)
(-0.000103616 0.000176397 5.24361e-14)
(-0.000108128 0.00015987 8.19294e-14)
(-0.00010877 0.000144819 -1.46981e-14)
(7.00015e-05 0.00039225 7.43195e-16)
(3.64387e-05 0.000366321 1.94242e-16)
(9.61499e-06 0.00033567 -8.64326e-15)
(-1.29994e-05 0.000297246 4.0184e-15)
(-3.1822e-05 0.000273667 -4.69639e-15)
(-4.93158e-05 0.000262873 -4.99271e-15)
(-6.64101e-05 0.000251237 -6.9133e-14)
(-8.20845e-05 0.000235 4.70158e-14)
(-9.49991e-05 0.000217255 1.99818e-14)
(-0.000104238 0.000198585 1.40363e-14)
(-0.000110557 0.000179705 -5.605e-14)
(-0.000116011 0.000163985 1.66035e-15)
(-0.000119278 0.000148603 -3.75824e-14)
(7.00373e-05 0.000377139 6.51361e-16)
(3.79124e-05 0.000353346 -2.03462e-15)
(1.16796e-05 0.000324853 4.32313e-15)
(-1.08634e-05 0.000289351 -1.1334e-14)
(-2.99761e-05 0.000269349 -3.33703e-14)
(-4.84847e-05 0.000260679 1.79771e-16)
(-6.66674e-05 0.000249655 -1.03101e-15)
(-8.34545e-05 0.000233984 -8.29398e-15)
(-9.76011e-05 0.000216969 4.82698e-14)
(-0.000108071 0.000198958 -1.92356e-14)
(-0.00011551 0.000180702 -5.63914e-15)
(-0.000121963 0.000165434 -6.53546e-15)
(-0.000127358 0.000151421 1.03572e-14)
(-0.000129907 0.00013848 -2.14156e-14)
(6.91772e-05 0.000360798 -1.48512e-15)
(3.86393e-05 0.000338982 -9.94945e-16)
(1.31339e-05 0.000312577 9.86083e-15)
(-9.13071e-06 0.000279834 -1.18456e-14)
(-2.82856e-05 0.000263182 5.62761e-15)
(-4.74778e-05 0.000256235 -1.95352e-14)
(-6.63878e-05 0.000245781 -8.88324e-16)
(-8.39798e-05 0.000230823 -2.06371e-14)
(-9.90305e-05 0.000214503 2.14886e-14)
(-0.000110422 0.000197172 -2.17588e-14)
(-0.000118783 0.000179613 3.31251e-15)
(-0.000126344 0.000165015 2.66961e-15)
(-0.000132919 0.000152187 3.21731e-14)
(-0.000136175 0.000139214 1.184e-14)
(6.77453e-05 0.00034357 3.0152e-18)
(3.86179e-05 0.000323684 8.88211e-16)
(1.40001e-05 0.000299225 1.4898e-15)
(-7.83815e-06 0.000269138 2.17067e-15)
(-2.67529e-05 0.000255449 3.0405e-14)
(-4.63116e-05 0.000250045 4.25893e-15)
(-6.56819e-05 0.0002401 -7.87636e-15)
(-8.37405e-05 0.00022577 5.93984e-15)
(-9.94279e-05 0.000210208 5.06582e-15)
(-0.000111552 0.000193648 5.36661e-14)
(-0.000120621 0.000176814 2.03872e-14)
(-0.000129111 0.000162963 5.3517e-15)
(-0.000136609 0.000151034 -5.20746e-14)
(-0.000141388 0.000138367 1.94384e-14)
(6.56676e-05 0.000325827 -4.67782e-16)
(3.81265e-05 0.000307644 -2.67534e-15)
(1.44287e-05 0.000285277 -6.08049e-15)
(-6.81273e-06 0.000257579 -2.63524e-15)
(-2.53121e-05 0.000246076 -1.28182e-14)
(-4.50531e-05 0.000242465 -1.37206e-15)
(-6.45905e-05 0.000232997 5.60501e-14)
(-8.29184e-05 0.00021933 1.36723e-14)
(-9.89637e-05 0.000204488 -4.42865e-14)
(-0.000111576 0.000188692 -9.69339e-15)
(-0.000121228 0.000172626 2.51321e-15)
(-0.000130496 0.000159572 2.42091e-14)
(-0.000138663 0.000148248 -1.49967e-14)
(-0.000145008 0.000136845 -2.8028e-14)
(-0.000149709 0.000126874 5.06894e-14)
(6.31313e-05 0.00030772 -1.12831e-15)
(3.73228e-05 0.000291512 -9.00802e-16)
(1.46702e-05 0.000270961 -9.09008e-16)
(-5.86162e-06 0.000246707 -9.40392e-16)
(-2.41366e-05 0.000237008 2.17952e-14)
(-4.37113e-05 0.000233785 5.72064e-16)
(-6.31937e-05 0.000224803 -4.33207e-15)
(-8.15456e-05 0.000211769 9.40351e-15)
(-9.77738e-05 0.000197677 3.38332e-14)
(-0.000110699 0.000182652 -6.37767e-14)
(-0.000120753 0.000167337 -3.1862e-14)
(-0.000130561 0.000155008 -4.83831e-15)
(-0.000139485 0.000144368 3.60045e-14)
(-0.000146787 0.000133797 -1.80613e-14)
(-0.000151887 0.000124147 -3.06508e-14)
(6.05162e-05 0.000289911 8.47331e-17)
(3.62519e-05 0.000275294 -7.47839e-16)
(1.48828e-05 0.000256547 1.30853e-15)
(-4.98445e-06 0.000235425 1.80221e-15)
(-2.30203e-05 0.000227239 1.88208e-14)
(-4.2293e-05 0.000224302 -1.9682e-14)
(-6.15234e-05 0.000215766 -4.71051e-16)
(-7.97565e-05 0.000203407 -2.16027e-14)
(-9.5969e-05 0.000190023 -1.67623e-14)
(-0.000109027 0.000175749 4.87711e-14)
(-0.000119352 0.000161209 -2.77087e-14)
(-0.000129586 0.000149567 -1.96983e-14)
(-0.000139008 0.000139519 -1.74498e-14)
(-0.000146995 0.000129759 3.33064e-14)
(-0.000153437 0.000120173 2.08361e-14)
(5.78439e-05 0.000272377 5.89092e-17)
(3.51581e-05 0.000259425 1.97551e-15)
(1.49761e-05 0.000242185 -6.51901e-15)
(-4.18732e-06 0.000223774 6.42983e-16)
(-2.19419e-05 0.000217001 -2.99616e-14)
(-4.07956e-05 0.000214261 2.1248e-15)
(-5.96647e-05 0.000206174 4.36317e-15)
(-7.76035e-05 0.000194436 -4.5222e-14)
(-9.3682e-05 0.000181759 1.12664e-14)
(-0.000106745 0.000168252 -3.26344e-15)
(-0.000117178 0.000154426 2.72098e-14)
(-0.000127609 0.000143427 1.78982e-15)
(-0.000137555 0.000134079 -2.22576e-14)
(-0.000145585 0.000124818 -2.44129e-14)
(-0.000153852 0.000116086 4.36105e-15)
(-0.000157465 0.000106962 1.8837e-14)
(5.53747e-05 0.0002555 8.38778e-16)
(3.38254e-05 0.000243744 2.46811e-15)
(1.47784e-05 0.000227897 -2.29795e-16)
(-3.54013e-06 0.000211928 5.88745e-16)
(-2.08859e-05 0.000206359 2.66586e-15)
(-3.92482e-05 0.00020385 -1.57619e-14)
(-5.7621e-05 0.000196166 1.2662e-14)
(-7.51839e-05 0.000185075 1.80485e-14)
(-9.09922e-05 0.000173102 -1.17176e-14)
(-0.000103937 0.000160304 -8.22515e-15)
(-0.000114388 0.000147222 3.96838e-15)
(-0.000124952 0.00013686 3.39826e-14)
(-0.000135074 0.000128151 4.41799e-14)
(-0.000143401 0.000119246 1.62114e-15)
(-0.000151729 0.000111409 -1.31142e-14)
(-0.000157121 0.000102 -2.77227e-14)
(3.23153e-05 0.000228304 2.84953e-16)
(1.43609e-05 0.000213897 -5.08079e-16)
(-3.03055e-06 0.000200025 1.16277e-14)
(-1.98715e-05 0.000195531 8.98937e-15)
(-3.76392e-05 0.0001932 8.001e-15)
(-5.54548e-05 0.000185962 -6.02698e-15)
(-7.2524e-05 0.000175471 4.16254e-14)
(-8.79752e-05 0.000164172 -2.36107e-14)
(-0.00010071 0.000152086 -1.21352e-14)
(-0.000111072 0.000139713 -4.0887e-14)
(-0.000121621 0.000129959 -2.24346e-14)
(-0.000131804 0.000121818 -3.22632e-14)
(-0.0001405 0.000113519 6.94406e-15)
(-0.000148524 0.000106045 9.86744e-15)
(-0.000155366 9.77883e-05 9.82979e-15)
(-0.000158525 8.94586e-05 -5.91578e-15)
(3.07381e-05 0.000213473 3.17328e-15)
(1.38319e-05 0.000200166 2.14239e-16)
(-2.62938e-06 0.000188238 -9.77419e-15)
(-1.88862e-05 0.000184629 -8.04279e-15)
(-3.60033e-05 0.000182485 4.80353e-15)
(-5.31775e-05 0.000175653 1.22904e-14)
(-6.97016e-05 0.000165772 -1.01237e-14)
(-8.47085e-05 0.000155127 1.7966e-14)
(-9.71562e-05 0.000143733 1.86465e-15)
(-0.000107372 0.000132059 -8.62473e-15)
(-0.00011787 0.000122913 2.38846e-15)
(-0.00012798 0.000115286 5.41134e-15)
(-0.000136589 0.000107581 -1.98494e-14)
(-0.000144988 0.000100503 9.83154e-16)
(-0.000152058 9.3348e-05 1.49979e-15)
(-0.000156252 8.52876e-05 2.36639e-15)
(2.91057e-05 0.00019901 -2.40423e-16)
(1.32313e-05 0.000186885 -5.61453e-15)
(-2.30193e-06 0.000176624 -3.24146e-15)
(-1.79383e-05 0.000173815 2.10664e-14)
(-3.43444e-05 0.000171805 -1.72002e-14)
(-5.08473e-05 0.000165377 1.30531e-14)
(-6.67443e-05 0.000156074 -1.11151e-14)
(-8.1268e-05 0.000146054 -1.56651e-14)
(-9.33624e-05 0.000135323 1.36482e-14)
(-0.000103352 0.0001243 2.78312e-14)
(-0.000113667 0.000115725 -1.96693e-14)
(-0.000123763 0.000108678 2.23628e-14)
(-0.000132275 0.0001015 1.55051e-14)
(-0.000140731 9.48982e-05 -1.92698e-14)
(-0.000148292 8.8491e-05 -8.25752e-15)
(-0.000153598 8.11369e-05 3.62608e-15)
(2.74931e-05 0.00018509 -2.06763e-15)
(1.25971e-05 0.000174016 2.91282e-15)
(-2.03428e-06 0.000165259 5.04419e-15)
(-1.7002e-05 0.000163089 -1.84933e-14)
(-3.26839e-05 0.000161233 2.46581e-14)
(-4.84517e-05 0.000155189 -3.94701e-15)
(-6.37171e-05 0.000146468 3.5246e-16)
(-7.76839e-05 0.000137056 -4.6123e-15)
(-8.93819e-05 0.000126944 -3.57438e-14)
(-9.91238e-05 0.000116586 1.81786e-14)
(-0.000109295 0.000108559 8.89226e-15)
(-0.00011917 0.000101995 -5.08905e-14)
(-0.000127542 9.51456e-05 8.95364e-15)
(-0.000136129 8.91969e-05 1.50732e-14)
(-0.000143811 8.33132e-05 -1.12056e-14)
(-0.00015036 7.6787e-05 -2.6112e-14)
(-0.00015507 7.04257e-05 -9.97405e-15)
(2.58866e-05 0.00017176 2.17969e-15)
(1.1929e-05 0.000161686 1.36812e-15)
(-1.80885e-06 0.000154227 -4.75047e-15)
(-1.60974e-05 0.00015264 8.68079e-15)
(-3.10189e-05 0.000150895 -9.89083e-15)
(-4.60493e-05 0.000145229 1.04273e-14)
(-6.06129e-05 0.00013702 -2.72069e-14)
(-7.40046e-05 0.000128189 -1.61308e-15)
(-8.52776e-05 0.000118702 2.61236e-14)
(-9.47039e-05 0.000108939 -6.7024e-15)
(-0.000104645 0.000101411 2.66149e-14)
(-0.000114338 9.51851e-05 1.71944e-14)
(-0.000122631 8.88184e-05 -7.02548e-15)
(-0.000131177 8.32466e-05 3.08948e-14)
(-0.000139024 7.78265e-05 1.69022e-14)
(-0.000145985 7.20118e-05 4.21573e-15)
(-0.000151257 6.59323e-05 -4.17998e-15)
(2.42829e-05 0.000159071 2.4877e-16)
(1.12418e-05 0.000149876 -6.65696e-15)
(-1.62694e-06 0.000143588 2.95538e-15)
(-1.52066e-05 0.000142446 6.40348e-15)
(-2.93671e-05 0.000140825 -7.25095e-15)
(-4.36271e-05 0.000135501 -1.05123e-14)
(-5.75024e-05 0.000127839 6.24939e-15)
(-7.02763e-05 0.000119546 -2.65354e-14)
(-8.1063e-05 0.000110615 1.82745e-15)
(-9.01672e-05 0.000101452 4.47397e-14)
(-9.98195e-05 9.43639e-05 7.83994e-16)
(-0.000109298 8.84617e-05 -2.59593e-15)
(-0.000117314 8.24436e-05 -1.45246e-14)
(-0.000125877 7.72552e-05 -7.64541e-15)
(-0.000133977 7.22805e-05 1.39514e-14)
(-0.000141241 6.71379e-05 -3.42879e-15)
(-0.000147317 6.12641e-05 9.53193e-16)
(2.27068e-05 0.000146995 -3.35811e-17)
(1.05496e-05 0.000138658 3.26053e-15)
(-1.46991e-06 0.000133355 2.03051e-15)
(-1.43466e-05 0.000132621 -1.20877e-14)
(-2.77317e-05 0.000131092 1.69634e-14)
(-4.12402e-05 0.000126113 4.97757e-15)
(-5.43772e-05 0.000118921 2.3669e-14)
(-6.65417e-05 0.000111159 3.7543e-14)
(-7.68336e-05 0.000102793 -4.6128e-14)
(-8.55455e-05 9.41646e-05 -4.30485e-14)
(-9.48302e-05 8.7471e-05 2.19189e-15)
(-0.000104022 8.19116e-05 4.49214e-15)
(-0.000111924 7.62375e-05 -1.17084e-14)
(-0.000120273 7.14452e-05 -2.33078e-14)
(-0.000128564 6.69207e-05 8.73455e-15)
(-0.000135798 6.20783e-05 1.01127e-15)
(-0.000142838 5.68092e-05 -2.2404e-14)
(-0.000146171 5.09339e-05 7.57778e-15)
(2.11911e-05 0.0001356 -6.30562e-16)
(9.87223e-06 0.000128014 4.91208e-15)
(-1.33744e-06 0.000123594 -2.37414e-15)
(-1.35009e-05 0.000123158 4.42263e-15)
(-2.61341e-05 0.000121735 -1.43375e-14)
(-3.88703e-05 0.00011707 -1.52015e-14)
(-5.1304e-05 0.000110349 1.58035e-14)
(-6.28089e-05 0.000103074 1.44538e-14)
(-7.25813e-05 9.52169e-05 1.54816e-14)
(-8.08939e-05 8.71408e-05 -8.84055e-15)
(-8.98086e-05 8.08448e-05 -1.10888e-14)
(-9.86349e-05 7.55933e-05 1.52389e-15)
(-0.000106259 7.02477e-05 5.54408e-15)
(-0.000114556 6.58201e-05 -1.08267e-14)
(-0.0001228 6.16559e-05 -2.2534e-15)
(-0.000130182 5.70858e-05 1.4629e-14)
(-0.000137399 5.23844e-05 -4.18977e-15)
(-0.000141089 4.65477e-05 -8.17032e-15)
(1.97378e-05 0.000124848 1.13203e-16)
(9.20939e-06 0.000117977 -2.09618e-15)
(-1.21711e-06 0.000114299 4.84118e-15)
(-1.26855e-05 0.000114138 8.48514e-15)
(-2.45622e-05 0.000112784 2.01258e-15)
(-3.6552e-05 0.00010843 -2.1982e-14)
(-4.8258e-05 0.000102139 -2.80532e-14)
(-5.91285e-05 9.53361e-05 6.22175e-15)
(-6.83772e-05 8.7988e-05 3.65273e-15)
(-7.62453e-05 8.04004e-05 2.92902e-14)
(-8.47131e-05 7.44769e-05 1.38464e-14)
(-9.31931e-05 6.95533e-05 5.02968e-15)
(-0.000100596 6.45797e-05 2.00296e-14)
(-0.000108621 6.04203e-05 1.63925e-15)
(-0.000116777 5.65718e-05 -1.39096e-14)
(-0.000124245 5.23072e-05 -5.24189e-15)
(-0.000131586 4.79684e-05 -2.65958e-15)
(-0.000135988 4.25169e-05 1.87059e-14)
(1.83401e-05 0.000114749 2.69208e-15)
(8.5707e-06 0.000108501 -3.70061e-15)
(-1.11314e-06 0.000105488 -2.52719e-15)
(-1.18861e-05 0.000105524 -2.37221e-15)
(-2.30346e-05 0.000104268 7.05909e-16)
(-3.42778e-05 0.000100186 2.09435e-14)
(-4.52846e-05 9.43253e-05 1.89358e-14)
(-5.5507e-05 8.79615e-05 -2.60864e-15)
(-6.42197e-05 8.10806e-05 4.81847e-15)
(-7.16622e-05 7.39963e-05 -1.45604e-14)
(-7.96972e-05 6.84447e-05 -2.06363e-14)
(-8.77445e-05 6.38274e-05 -9.09218e-15)
(-9.48061e-05 5.91671e-05 1.158e-15)
(-0.000102669 5.53414e-05 4.9127e-15)
(-0.000110567 5.17596e-05 -8.40319e-15)
(-0.00011803 4.78344e-05 1.08794e-14)
(-0.000125418 4.38111e-05 -6.27306e-15)
(-0.000130479 3.87905e-05 -1.23517e-14)
(-0.000131903 3.31138e-05 1.63861e-14)
(1.70127e-05 0.000105255 -2.49646e-16)
(7.96105e-06 9.96054e-05 3.0524e-15)
(-1.01425e-06 9.71442e-05 -3.69344e-15)
(-1.11208e-05 9.73622e-05 1.95801e-15)
(-2.15465e-05 9.61696e-05 -1.02799e-14)
(-3.20821e-05 9.23766e-05 -8.75306e-15)
(-4.23836e-05 8.69052e-05 2.61827e-15)
(-5.19863e-05 8.09655e-05 1.06946e-14)
(-6.01716e-05 7.45459e-05 3.53154e-15)
(-6.71626e-05 6.79128e-05 2.31412e-15)
(-7.47293e-05 6.27178e-05 -1.85876e-14)
(-8.23798e-05 5.84178e-05 -7.37894e-15)
(-8.91618e-05 5.41185e-05 6.20491e-15)
(-9.66495e-05 5.05358e-05 -2.57386e-15)
(-0.00010436 4.72246e-05 1.55439e-14)
(-0.000111686 4.36103e-05 1.21821e-14)
(-0.000118959 3.97483e-05 8.46155e-15)
(-0.000124275 3.51606e-05 -9.92428e-15)
(-0.000126029 2.95937e-05 -1.41134e-14)
(1.57683e-05 9.63744e-05 -5.17028e-16)
(7.38726e-06 9.1258e-05 6.28033e-16)
(-9.26728e-07 8.92902e-05 6.25238e-15)
(-1.0376e-05 8.9629e-05 5.75055e-15)
(-2.01204e-05 8.85293e-05 -4.51392e-15)
(-2.99484e-05 8.49899e-05 -3.19451e-15)
(-3.95892e-05 7.98993e-05 -1.12819e-14)
(-4.85608e-05 7.43556e-05 3.88173e-15)
(-5.62286e-05 6.83565e-05 -7.89548e-15)
(-6.27937e-05 6.21838e-05 1.47592e-14)
(-6.99293e-05 5.73346e-05 1.39192e-14)
(-7.71293e-05 5.33167e-05 5.74151e-15)
(-8.35393e-05 4.93013e-05 5.35538e-15)
(-9.07732e-05 4.60005e-05 1.23554e-14)
(-9.81189e-05 4.28939e-05 -4.94955e-15)
(-0.000105173 3.95101e-05 -2.24641e-14)
(-0.000112459 3.58779e-05 -5.41456e-15)
(-0.000117779 3.15792e-05 1.99202e-14)
(-0.000120013 2.62489e-05 2.14084e-15)
(1.4599e-05 8.80602e-05 1.08833e-16)
(6.83953e-06 8.34548e-05 -1.19436e-15)
(-8.46748e-07 8.18859e-05 2.26484e-15)
(-9.66738e-06 8.23444e-05 -2.99432e-15)
(-1.87389e-05 8.13121e-05 4.38375e-15)
(-2.79008e-05 7.80364e-05 1.2409e-14)
(-3.68814e-05 7.33016e-05 -5.04691e-15)
(-4.5263e-05 6.81427e-05 -1.32503e-14)
(-5.24272e-05 6.25569e-05 -1.75198e-14)
(-5.85601e-05 5.67913e-05 4.16071e-16)
(-6.52417e-05 5.22576e-05 -4.20843e-15)
(-7.20505e-05 4.85105e-05 -4.6711e-16)
(-7.81465e-05 4.47843e-05 1.02218e-14)
(-8.49523e-05 4.16602e-05 -1.46587e-14)
(-9.20169e-05 3.87631e-05 -4.35996e-15)
(-9.8701e-05 3.55988e-05 7.96853e-15)
(-0.000105688 3.22051e-05 -1.03987e-14)
(-0.000111021 2.82125e-05 4.45375e-15)
(-0.000113719 2.31989e-05 5.78065e-15)
(-0.000112909 1.77091e-05 -1.27484e-14)
(1.34923e-05 8.03277e-05 -6.23339e-17)
(6.31878e-06 7.61683e-05 1.42586e-15)
(-7.83145e-07 7.49719e-05 -5.21673e-15)
(-8.99085e-06 7.55034e-05 -4.89393e-15)
(-1.74277e-05 7.45609e-05 -1.4222e-15)
(-2.59368e-05 7.15154e-05 1.32252e-14)
(-3.42963e-05 6.71266e-05 -6.07144e-15)
(-4.20924e-05 6.23242e-05 -1.03103e-14)
(-4.87647e-05 5.71148e-05 1.44298e-14)
(-5.44953e-05 5.17549e-05 -6.30347e-15)
(-6.07593e-05 4.75167e-05 1.15742e-14)
(-6.71284e-05 4.3995e-05 -9.47154e-15)
(-7.28439e-05 4.04839e-05 -1.07952e-15)
(-7.93436e-05 3.75716e-05 1.35114e-14)
(-8.59843e-05 3.48339e-05 -2.04735e-14)
(-9.23507e-05 3.18748e-05 -4.35648e-15)
(-9.91585e-05 2.878e-05 2.17882e-14)
(-0.000104142 2.49528e-05 -9.28444e-16)
(-0.000106954 2.04296e-05 -2.84648e-15)
(-0.000106522 1.51714e-05 2.41914e-15)
(1.24441e-05 7.31281e-05 5.03503e-16)
(5.8186e-06 6.94154e-05 -1.8794e-15)
(-7.29213e-07 6.85158e-05 -2.59282e-15)
(-8.35807e-06 6.91096e-05 8.59339e-15)
(-1.61764e-05 6.82291e-05 -8.55325e-15)
(-2.40768e-05 6.54231e-05 -1.10329e-14)
(-3.18253e-05 6.13539e-05 1.56866e-14)
(-3.90745e-05 5.68892e-05 -5.71147e-15)
(-4.52741e-05 5.20499e-05 -6.03457e-15)
(-5.05967e-05 4.70456e-05 -8.22632e-16)
(-5.64263e-05 4.3075e-05 -3.45274e-15)
(-6.24048e-05 3.97701e-05 1.99025e-14)
(-6.77945e-05 3.64895e-05 9.58085e-16)
(-7.38529e-05 3.37112e-05 -5.43347e-15)
(-8.01743e-05 3.11509e-05 3.2334e-15)
(-8.61512e-05 2.83943e-05 -5.81946e-15)
(-9.24725e-05 2.549e-05 1.82559e-15)
(-9.75457e-05 2.20148e-05 1.22571e-14)
(-0.000100286 1.78487e-05 -4.06503e-15)
(-0.000100393 1.3119e-05 -2.07052e-15)
(1.14567e-05 6.64829e-05 -2.30746e-16)
(5.33825e-06 6.31551e-05 1.51685e-16)
(-6.90822e-07 6.25007e-05 1.23733e-15)
(-7.75967e-06 6.31438e-05 -6.44762e-15)
(-1.50038e-05 6.2342e-05 1.79104e-15)
(-2.23085e-05 5.97452e-05 -1.63107e-14)
(-2.94931e-05 5.59829e-05 8.49138e-15)
(-3.62014e-05 5.18395e-05 2.45758e-14)
(-4.19472e-05 4.73293e-05 -2.09973e-14)
(-4.68889e-05 4.26815e-05 -1.93402e-14)
(-5.23157e-05 3.89608e-05 -9.6677e-15)
(-5.78667e-05 3.58416e-05 -1.38559e-15)
(-6.28737e-05 3.27333e-05 5.62668e-15)
(-6.86154e-05 3.01362e-05 4.09451e-15)
(-7.45123e-05 2.77161e-05 2.22748e-15)
(-8.01867e-05 2.51565e-05 -1.5724e-14)
(-8.62309e-05 2.25257e-05 -1.67441e-14)
(-9.08623e-05 1.9332e-05 7.46737e-15)
(-9.37972e-05 1.56368e-05 4.94392e-15)
(-9.43186e-05 1.13954e-05 -6.91836e-15)
(-9.20729e-05 6.67295e-06 4.77971e-15)
(1.05207e-05 6.03479e-05 1.18052e-16)
(4.88792e-06 5.74427e-05 3.31609e-16)
(-6.702e-07 5.69518e-05 1.75185e-15)
(-7.20661e-06 5.7609e-05 1.24661e-15)
(-1.38934e-05 5.68652e-05 1.04664e-14)
(-2.06461e-05 5.44819e-05 1.9285e-14)
(-2.72791e-05 5.10003e-05 -2.16423e-14)
(-3.34861e-05 4.71596e-05 1.19143e-14)
(-3.8798e-05 4.29739e-05 1.04371e-14)
(-4.33608e-05 3.86379e-05 7.58081e-15)
(-4.83784e-05 3.51467e-05 -2.14521e-15)
(-5.35469e-05 3.22064e-05 8.36631e-15)
(-5.82332e-05 2.92948e-05 8.31797e-16)
(-6.35427e-05 2.68115e-05 -3.51314e-15)
(-6.91327e-05 2.45532e-05 5.70918e-15)
(-7.44525e-05 2.21846e-05 -1.32538e-15)
(-8.01048e-05 1.97337e-05 9.43707e-16)
(-8.48274e-05 1.69334e-05 -5.17533e-15)
(-8.75233e-05 1.35596e-05 -5.33783e-15)
(-8.78834e-05 9.56468e-06 8.53316e-15)
(-8.58009e-05 5.11733e-06 -3.64142e-15)
(9.6299e-06 5.4722e-05 4.31794e-16)
(4.4643e-06 5.22208e-05 -1.86074e-15)
(-6.62513e-07 5.18692e-05 -1.27203e-15)
(-6.68778e-06 5.24751e-05 2.29751e-15)
(-1.28548e-05 5.18013e-05 -6.83137e-15)
(-1.9076e-05 4.96041e-05 4.91206e-15)
(-2.52007e-05 4.63994e-05 -8.18651e-15)
(-3.09202e-05 4.28388e-05 -1.68196e-14)
(-3.58172e-05 3.89469e-05 -2.27183e-15)
(-4.00282e-05 3.49203e-05 9.26136e-15)
(-4.46686e-05 3.16473e-05 9.63132e-15)
(-4.94314e-05 2.88651e-05 3.50324e-15)
(-5.3753e-05 2.61007e-05 2.88631e-15)
(-5.87587e-05 2.37744e-05 -1.50723e-15)
(-6.39521e-05 2.16353e-05 5.88085e-15)
(-6.90031e-05 1.94328e-05 -2.44218e-15)
(-7.44317e-05 1.72222e-05 3.82159e-15)
(-7.8739e-05 1.46213e-05 7.06831e-15)
(-8.14616e-05 1.15012e-05 -1.71544e-15)
(-8.17972e-05 7.75368e-06 7.8083e-15)
(-7.97096e-05 3.6061e-06 -1.23728e-15)
(8.78709e-06 4.95617e-05 2.39029e-16)
(4.06076e-06 4.74297e-05 -3.9277e-16)
(-6.58004e-07 4.71714e-05 5.27931e-16)
(-6.20697e-06 4.77373e-05 -1.92337e-15)
(-1.18764e-05 4.71121e-05 -5.09889e-15)
(-1.76078e-05 4.50966e-05 -1.64764e-14)
(-2.32363e-05 4.21404e-05 1.80068e-14)
(-2.85105e-05 3.88489e-05 -1.04028e-14)
(-3.30147e-05 3.52475e-05 -2.87666e-16)
(-3.68788e-05 3.14957e-05 8.24897e-15)
(-4.1137e-05 2.84258e-05 -1.71342e-14)
(-4.55417e-05 2.58032e-05 -1.19023e-14)
(-4.95594e-05 2.32095e-05 -3.19356e-15)
(-5.41629e-05 2.09756e-05 3.15452e-15)
(-5.9067e-05 1.89625e-05 4.88649e-15)
(-6.38119e-05 1.69126e-05 -3.19563e-15)
(-6.89166e-05 1.48223e-05 -1.88606e-15)
(-7.31751e-05 1.24435e-05 7.0354e-15)
(-7.54905e-05 9.37675e-06 -4.97021e-16)
(-7.57165e-05 5.76841e-06 5.65655e-15)
(-7.40211e-05 1.95176e-06 -1.14221e-15)
(7.99861e-06 4.4852e-05 2.77451e-16)
(3.68294e-06 4.30191e-05 -5.28988e-16)
(-6.53469e-07 4.2848e-05 5.32513e-16)
(-5.74967e-06 4.33595e-05 -4.14359e-16)
(-1.09616e-05 4.27849e-05 6.04867e-15)
(-1.62192e-05 4.0928e-05 7.74181e-15)
(-2.13981e-05 3.82104e-05 -2.55407e-15)
(-2.62338e-05 3.51705e-05 1.79289e-15)
(-3.03677e-05 3.18301e-05 -2.56694e-15)
(-3.39129e-05 2.836e-05 -8.24402e-15)
(-3.78245e-05 2.5489e-05 9.11626e-15)
(-4.18519e-05 2.30107e-05 2.85405e-19)
(-4.55284e-05 2.05458e-05 -5.35556e-16)
(-4.9841e-05 1.8447e-05 -5.1549e-16)
(-5.43825e-05 1.65223e-05 -7.97887e-15)
(-5.88601e-05 1.45731e-05 3.26298e-15)
(-6.37142e-05 1.25984e-05 -4.22054e-15)
(-6.74196e-05 1.01281e-05 1.08859e-16)
(-6.96219e-05 7.06238e-06 6.65645e-15)
(-6.9886e-05 3.80022e-06 -6.06074e-15)
(-6.8485e-05 3.45111e-07 -1.96632e-15)
(-6.49918e-05 -2.98635e-06 -2.90815e-15)
(7.26413e-06 4.05425e-05 -3.02266e-16)
(3.33123e-06 3.89801e-05 -5.03089e-17)
(-6.43003e-07 3.88648e-05 -1.52074e-15)
(-5.31838e-06 3.93299e-05 -3.53833e-15)
(-1.00923e-05 3.8788e-05 -5.1475e-16)
(-1.49152e-05 3.70852e-05 -4.96203e-15)
(-1.9655e-05 3.45803e-05 -7.51336e-15)
(-2.40909e-05 3.17789e-05 3.5163e-15)
(-2.78753e-05 2.86989e-05 2.38421e-15)
(-3.11092e-05 2.54791e-05 3.84813e-15)
(-3.46737e-05 2.27977e-05 -6.43352e-15)
(-3.83702e-05 2.04713e-05 8.48553e-15)
(-4.17638e-05 1.81681e-05 -7.26556e-15)
(-4.56945e-05 1.61531e-05 -4.30169e-15)
(-4.99362e-05 1.43283e-05 1.28497e-14)
(-5.40789e-05 1.24744e-05 -3.40525e-15)
(-5.84082e-05 1.04084e-05 2.13721e-15)
(-6.18035e-05 7.91874e-06 -1.82968e-15)
(-6.38802e-05 5.17904e-06 -6.10181e-16)
(-6.43782e-05 2.21882e-06 3.38254e-15)
(-6.32487e-05 -7.51781e-07 3.66708e-15)
(-6.0097e-05 -3.66146e-06 -2.88656e-15)
(6.58029e-06 3.66166e-05 -6.47057e-16)
(3.00746e-06 3.52705e-05 5.8673e-16)
(-6.27289e-07 3.52102e-05 5.46376e-17)
(-4.90303e-06 3.56175e-05 2.45939e-15)
(-9.27256e-06 3.51096e-05 -1.66372e-15)
(-1.36774e-05 3.35339e-05 -2.94921e-17)
(-1.80153e-05 3.12355e-05 8.96071e-15)
(-2.20628e-05 2.86522e-05 9.45167e-15)
(-2.55162e-05 2.58082e-05 2.78932e-16)
(-2.84667e-05 2.28435e-05 1.31137e-14)
(-3.17195e-05 2.03533e-05 6.22016e-15)
(-3.50722e-05 1.81735e-05 -1.20356e-14)
(-3.81461e-05 1.60042e-05 4.28793e-16)
(-4.18002e-05 1.41221e-05 -5.06341e-15)
(-4.5679e-05 1.2395e-05 -1.51021e-15)
(-4.93929e-05 1.05379e-05 8.25078e-15)
(-5.32766e-05 8.51218e-06 -1.45883e-14)
(-5.64286e-05 6.28943e-06 -1.91106e-15)
(-5.85605e-05 3.83674e-06 8.16412e-15)
(-5.92033e-05 1.26273e-06 1.22846e-15)
(-5.84472e-05 -1.28826e-06 -1.4219e-15)
(-5.54607e-05 -3.93906e-06 -4.08678e-15)
(5.94842e-06 3.30225e-05 9.82112e-18)
(2.71422e-06 3.1878e-05 2.68822e-16)
(-6.01005e-07 3.18517e-05 1.71329e-15)
(-4.50707e-06 3.22116e-05 4.88879e-15)
(-8.49227e-06 3.1723e-05 2.16872e-15)
(-1.25156e-05 3.02697e-05 4.12882e-15)
(-1.64613e-05 2.81485e-05 3.7572e-16)
(-2.01544e-05 2.5769e-05 -1.38893e-14)
(-2.32952e-05 2.31556e-05 1.55919e-14)
(-2.59692e-05 2.04179e-05 1.25389e-15)
(-2.89112e-05 1.81125e-05 4.26411e-16)
(-3.19653e-05 1.60939e-05 6.35738e-15)
(-3.47764e-05 1.40949e-05 3.44714e-15)
(-3.80815e-05 1.23247e-05 7.24723e-15)
(-4.16022e-05 1.06805e-05 6.20817e-15)
(-4.49457e-05 8.93448e-06 -6.02813e-15)
(-4.85228e-05 7.12047e-06 2.55169e-15)
(-5.14448e-05 5.14481e-06 8.21783e-15)
(-5.3505e-05 3.00537e-06 -4.17069e-15)
(-5.44796e-05 7.8734e-07 -4.4583e-15)
(-5.38167e-05 -1.60726e-06 1.32591e-15)
(-5.10929e-05 -4.08415e-06 -3.61294e-15)
(5.37172e-06 2.97306e-05 2.36231e-16)
(2.45031e-06 2.87449e-05 -4.42086e-16)
(-5.67175e-07 2.8758e-05 -1.66285e-15)
(-4.12254e-06 2.90732e-05 -7.21202e-16)
(-7.75696e-06 2.86131e-05 3.67829e-15)
(-1.14125e-05 2.72659e-05 4.37775e-15)
(-1.50047e-05 2.53131e-05 -8.54749e-15)
(-1.83501e-05 2.31198e-05 -3.17621e-15)
(-2.11982e-05 2.07093e-05 -2.02584e-14)
(-2.36205e-05 1.82012e-05 9.55926e-16)
(-2.62889e-05 1.60788e-05 2.24987e-15)
(-2.90364e-05 1.4217e-05 -2.62819e-15)
(-3.15627e-05 1.23721e-05 -4.92955e-15)
(-3.45942e-05 1.07603e-05 5.79175e-15)
(-3.77979e-05 9.24892e-06 9.31984e-15)
(-4.08522e-05 7.67339e-06 -3.54472e-15)
(-4.41087e-05 6.04214e-06 -8.04648e-15)
(-4.68996e-05 4.31184e-06 4.41299e-15)
(-4.89776e-05 2.44917e-06 1.78043e-15)
(-4.97646e-05 3.88834e-07 -2.2944e-15)
(-4.92728e-05 -1.78261e-06 1.50443e-15)
(-4.69481e-05 -4.08002e-06 3.57122e-15)
(-4.28692e-05 -6.24124e-06 3.93401e-15)
(4.84764e-06 2.67104e-05 4.12559e-16)
(2.21201e-06 2.58828e-05 -1.22654e-15)
(-5.27851e-07 2.59208e-05 -1.3635e-15)
(-3.75859e-06 2.61993e-05 -8.91778e-16)
(-7.05798e-06 2.57583e-05 1.35942e-15)
(-1.03782e-05 2.45152e-05 -6.3334e-15)
(-1.36263e-05 2.2711e-05 1.83098e-15)
(-1.66562e-05 2.06912e-05 5.60016e-15)
(-1.92281e-05 1.84774e-05 6.97795e-15)
(-2.14094e-05 1.61691e-05 -1.04831e-14)
(-2.3811e-05 1.42182e-05 -8.94893e-16)
(-2.63046e-05 1.25176e-05 4.19908e-15)
(-2.86051e-05 1.08537e-05 -8.9838e-15)
(-3.1334e-05 9.38122e-06 4.00199e-16)
(-3.42517e-05 8.01682e-06 5.87935e-15)
(-3.70307e-05 6.60511e-06 -2.50208e-15)
(-4.0089e-05 5.16376e-06 -3.78531e-15)
(-4.26963e-05 3.61881e-06 -3.53559e-15)
(-4.46057e-05 1.90472e-06 6.24877e-15)
(-4.55931e-05 6.53288e-08 -1.08786e-15)
(-4.5002e-05 -1.97293e-06 -5.5913e-15)