/*--------------------------------*- C++ -*----------------------------------*\
| =========                 |                                                 |
| \\      /  F ield         | OpenFOAM: The Open Source CFD Toolbox           |
|  \\    /   O peration     | Version:  2306                                  |
|   \\  /    A nd           | Website:  www.openfoam.com                      |
|    \\/     M anipulation  |                                                 |
\*---------------------------------------------------------------------------*/
FoamFile
{
    version     2.0;
    format      ascii;
    arch        "LSB;label=32;scalar=64";
    class       volScalarField;
    location    "275";
    object      turbulenceProperties:L;
}
// * * * * * * * * * * * * * * * * * * * * * * * * * * * * * * * * * * * * * //

dimensions      [0 1 0 0 0 0 0];

internalField   nonuniform List<scalar> 
1340
(
0.00956299
0.00961957
0.00968306
0.00976399
0.00987348
0.0103784
0.0104432
0.0105136
0.0106005
0.0107177
0.0108579
0.0112255
0.011299
0.011377
0.0114703
0.0115954
0.0117416
0.011909
0.0121079
0.01219
0.0122761
0.0123763
0.0125091
0.0126615
0.0128321
0.0130247
0.0130274
0.0131187
0.013213
0.0133208
0.0134614
0.0136202
0.0137951
0.0139917
0.0142127
0.0139864
0.0140878
0.0141905
0.0143064
0.0144553
0.0146206
0.014801
0.0150022
0.015225
0.0154642
0.014988
0.0150994
0.0152115
0.0153357
0.0154933
0.0156654
0.0158523
0.016059
0.0162842
0.0165228
0.0160347
0.0161562
0.0162781
0.0164116
0.0165783
0.0167577
0.016952
0.017165
0.0173932
0.0176321
0.0178839
0.0171291
0.0172614
0.0173934
0.0175369
0.0177133
0.0179004
0.0181031
0.0183231
0.0185553
0.0187955
0.019046
0.0182744
0.018418
0.0185607
0.0187148
0.0189013
0.0190972
0.019309
0.0195368
0.0197736
0.0200163
0.0202665
0.0205267
0.0194736
0.019629
0.0197833
0.0199484
0.0201453
0.0203515
0.0205729
0.0208093
0.0210521
0.0212983
0.0215495
0.0218081
0.0207302
0.0208979
0.0210642
0.021241
0.0214489
0.0216664
0.0218987
0.0221443
0.022394
0.0226447
0.0228981
0.0231568
0.0220475
0.0222278
0.0224073
0.0225963
0.022816
0.0230456
0.0232895
0.0235453
0.023803
0.0240596
0.0243169
0.0245768
0.0248416
0.0234292
0.0236225
0.0238157
0.0240178
0.0242502
0.0244931
0.0247494
0.0250167
0.0252834
0.0255471
0.0258095
0.0260725
0.0263381
0.0248788
0.0250862
0.0252933
0.0255094
0.0257553
0.0260123
0.0262822
0.026562
0.0268393
0.0271115
0.0273805
0.0276478
0.0279158
0.0281899
0.0264004
0.0266227
0.0268443
0.0270755
0.0273355
0.0276076
0.0278924
0.0281856
0.0284746
0.0287569
0.0290339
0.0293073
0.0295798
0.0298567
0.0279987
0.028236
0.0284731
0.0287203
0.0289953
0.0292834
0.0295842
0.029892
0.0301944
0.030488
0.0307747
0.0310557
0.0313342
0.0316155
0.0296777
0.0299306
0.0301838
0.0304481
0.030739
0.0310441
0.0313625
0.0316861
0.0320027
0.0323092
0.0326073
0.032898
0.0331842
0.0334717
0.0337677
0.0314421
0.0317117
0.0319815
0.0322635
0.0325714
0.0328947
0.0332312
0.0335723
0.0339046
0.0342256
0.0345368
0.0348389
0.0351349
0.0354306
0.0357331
0.033297
0.0335841
0.033871
0.0341715
0.0344979
0.0348401
0.0351958
0.0355556
0.0359052
0.0362423
0.0365681
0.0368832
0.0371909
0.0374968
0.0378081
0.0352477
0.0355529
0.0358578
0.0361774
0.0365237
0.0368856
0.0372616
0.0376413
0.0380098
0.0383644
0.0387067
0.0390369
0.0393576
0.0396753
0.0399974
0.0403306
0.0372994
0.0376237
0.0379474
0.0382869
0.0386537
0.0390366
0.0394341
0.0398348
0.0402235
0.0405973
0.0409577
0.0413043
0.0416408
0.0419726
0.0423066
0.0426506
0.0398025
0.0401456
0.0405059
0.0408942
0.041299
0.0417189
0.0421419
0.0425521
0.0429464
0.0433266
0.0436918
0.0440451
0.0443926
0.0447411
0.0450982
0.0454738
0.0420954
0.0424584
0.0428406
0.0432514
0.0436788
0.0441221
0.0445686
0.0450012
0.0454176
0.0458188
0.0462042
0.0465763
0.0469414
0.0473061
0.0476777
0.0480668
0.044509
0.0448927
0.0452973
0.0457315
0.0461822
0.0466498
0.0471205
0.0475771
0.0480167
0.0484405
0.0488477
0.0492401
0.0496239
0.0500066
0.0503946
0.0507979
0.0470503
0.0474554
0.0478832
0.0483414
0.0488164
0.0493089
0.0498046
0.0502861
0.0507498
0.0511974
0.0516274
0.0520417
0.0524465
0.0528481
0.0532535
0.0536732
0.0541192
0.0497269
0.0501541
0.0506056
0.0510885
0.0515881
0.0521059
0.0526277
0.0531344
0.0536232
0.0540954
0.0545496
0.0549868
0.0554132
0.0558353
0.0562598
0.0566969
0.0571583
0.0525463
0.0529965
0.0534723
0.0539801
0.0545049
0.0550487
0.0555965
0.0561291
0.0566434
0.0571411
0.0576199
0.058081
0.0585306
0.0589736
0.0594174
0.0598728
0.0603508
0.055517
0.0559911
0.0564918
0.0570247
0.0575747
0.0581444
0.0587185
0.059277
0.0598171
0.0603409
0.0608449
0.0613303
0.0618029
0.0622679
0.0627322
0.063206
0.063701
0.0642312
0.0586484
0.0591467
0.0596728
0.0602307
0.0608058
0.0614016
0.0620017
0.0625856
0.0631516
0.0637009
0.0642302
0.0647406
0.0652365
0.0657237
0.0662081
0.0667003
0.0672122
0.0677575
0.0619498
0.0624727
0.0630247
0.0636075
0.0642074
0.0648285
0.0654538
0.0660629
0.0666538
0.0672281
0.0677827
0.0683174
0.0688367
0.0693456
0.0698504
0.0703607
0.0708884
0.071448
0.0654316
0.0659797
0.0665572
0.0671647
0.0677886
0.0684341
0.0690839
0.0697167
0.0703315
0.0709303
0.0715091
0.0720674
0.0726093
0.0731395
0.0736632
0.0741905
0.0747337
0.0753071
0.0759289
0.0691046
0.0696787
0.0702815
0.0709127
0.0715596
0.0722285
0.0729009
0.0735557
0.0741924
0.0748143
0.0754161
0.0759969
0.0765606
0.0771105
0.0776524
0.078196
0.0787529
0.0793368
0.0799674
0.0729809
0.0735812
0.0742091
0.0748626
0.075531
0.0762216
0.0769144
0.0775889
0.0782458
0.0788882
0.0795113
0.0801127
0.0806966
0.0812651
0.0818233
0.082381
0.0829496
0.0835428
0.0841804
0.0770733
0.0776998
0.0783524
0.0790264
0.0797147
0.0804246
0.0811349
0.081826
0.0824996
0.0831603
0.0838027
0.0844231
0.0850246
0.0856092
0.0861813
0.0867515
0.0873298
0.0879295
0.0885702
0.089276
0.0813956
0.0820486
0.0827241
0.0834173
0.0841228
0.0848489
0.0855727
0.0862764
0.086964
0.0876403
0.0882983
0.088935
0.0895519
0.0901504
0.0907341
0.0913134
0.0918977
0.0925008
0.0931427
0.0938465
0.0859626
0.0866421
0.087339
0.0880485
0.0887682
0.0895068
0.0902396
0.0909515
0.0916486
0.0923364
0.0930076
0.0936572
0.0942865
0.0948955
0.0954876
0.0960726
0.0966603
0.0972643
0.0979034
0.0985997
0.0907906
0.0914964
0.0922128
0.0929349
0.0936658
0.0944119
0.0951478
0.0958623
0.096564
0.0972595
0.0979397
0.0985986
0.0992364
0.0998525
0.10045
0.101037
0.101625
0.102225
0.102857
0.103543
0.104312
0.0958972
0.0966289
0.0973621
0.0980928
0.0988301
0.0995781
0.10031
0.101021
0.101722
0.10242
0.103105
0.103769
0.104411
0.10503
0.105628
0.106214
0.106797
0.10739
0.108012
0.108683
0.109432
0.101302
0.102058
0.102806
0.103539
0.104278
0.105021
0.10574
0.10644
0.107135
0.10783
0.108514
0.109178
0.10982
0.110436
0.111031
0.11161
0.112185
0.112767
0.113373
0.114025
0.114751
0.107025
0.107805
0.108563
0.109293
0.110027
0.110756
0.111453
0.112134
0.112815
0.113501
0.114178
0.114837
0.115471
0.116081
0.116666
0.117235
0.117796
0.118362
0.118949
0.119579
0.120276
0.113091
0.113893
0.114655
0.115376
0.116097
0.1168
0.117464
0.118116
0.118775
0.119445
0.120109
0.120754
0.121376
0.121972
0.122543
0.123095
0.123639
0.124186
0.124751
0.125355
0.126021
0.126786
0.119525
0.120346
0.121106
0.121809
0.122508
0.123173
0.123789
0.124402
0.125031
0.125676
0.126318
0.126942
0.127544
0.12812
0.128671
0.129204
0.129727
0.130251
0.130791
0.131366
0.132
0.132725
0.126354
0.127193
0.127943
0.128618
0.129284
0.129893
0.130447
0.13101
0.131598
0.132207
0.132817
0.133412
0.133987
0.134538
0.135064
0.135574
0.136073
0.136573
0.137087
0.137634
0.138235
0.138923
0.13361
0.134463
0.135193
0.135829
0.136448
0.136981
0.137455
0.137956
0.13849
0.139051
0.139619
0.140176
0.140718
0.141239
0.141741
0.142226
0.142703
0.143179
0.143669
0.144189
0.144761
0.145413
0.141328
0.14219
0.142888
0.143472
0.144027
0.14446
0.144834
0.145259
0.145724
0.146222
0.146737
0.14725
0.147756
0.148249
0.148726
0.149191
0.149648
0.150105
0.150574
0.151072
0.151619
0.152243
0.152977
0.149548
0.150413
0.151062
0.15158
0.152049
0.152352
0.152607
0.152941
0.153315
0.153735
0.154187
0.154654
0.155127
0.155596
0.156056
0.156507
0.156952
0.157396
0.157852
0.158335
0.158863
0.159464
0.16017
0.158311
0.159174
0.159756
0.16019
0.160546
0.160682
0.160798
0.161022
0.161279
0.161604
0.161992
0.162418
0.162866
0.163323
0.163778
0.164225
0.164665
0.165104
0.165552
0.166025
0.16654
0.167123
0.167807
0.167668
0.16852
0.169012
0.169342
0.169551
0.169479
0.169435
0.169524
0.16963
0.169847
0.170178
0.170577
0.171018
0.171478
0.171937
0.172389
0.172832
0.17327
0.173714
0.17418
0.174683
0.175248
0.175908
0.177675
0.178503
0.178879
0.179082
0.179099
0.178772
0.17855
0.17847
0.178382
0.178487
0.178782
0.179177
0.179628
0.180103
0.180575
0.181034
0.181478
0.181914
0.18235
0.182803
0.183288
0.183831
0.184461
0.188393
0.189184
0.189411
0.18946
0.189226
0.188593
0.188178
0.187882
0.187546
0.187554
0.187849
0.188263
0.188733
0.189223
0.189703
0.190161
0.190596
0.191018
0.191437
0.191868
0.192328
0.192841
0.193434
0.194119
0.199898
0.200633
0.200672
0.200532
0.199974
0.198982
0.198357
0.197774
0.197136
0.19709
0.197428
0.197869
0.198346
0.198834
0.199302
0.199741
0.200154
0.200551
0.200945
0.20135
0.201782
0.202265
0.202825
0.203474
0.212272
0.212928
0.212734
0.212366
0.211388
0.209987
0.20913
0.208151
0.207148
0.207134
0.207563
0.208006
0.20845
0.208906
0.209343
0.209751
0.210138
0.210512
0.210887
0.211276
0.211694
0.212165
0.212716
0.213356
0.225606
0.226152
0.225676
0.225034
0.223523
0.221677
0.220562
0.219037
0.217592
0.217713
0.218258
0.218645
0.219008
0.219417
0.219831
0.220226
0.220609
0.22099
0.221377
0.221783
0.222223
0.222719
0.223301
0.22398
0.239999
0.24039
0.239574
0.238596
0.236413
0.234105
0.232712
0.230514
0.22854
0.228853
0.229471
0.229728
0.229998
0.230399
0.230844
0.231286
0.231725
0.232167
0.232619
0.23309
0.233597
0.234164
0.234826
0.23559
0.255575
0.255752
0.254519
0.253105
0.250069
0.247278
0.245574
0.242587
0.240042
0.240618
0.241216
0.241281
0.241519
0.242016
0.24258
0.243139
0.243697
0.244255
0.24482
0.245401
0.246014
0.24669
0.247467
0.248351
0.272455
0.272374
0.270651
0.268668
0.264575
0.261264
0.259144
0.25493
0.251691
0.253042
0.253712
0.253503
0.253793
0.254516
0.25528
0.256002
0.256711
0.257413
0.258112
0.258816
0.259552
0.260353
0.261261
0.262284
0.263382
0.290483
0.290122
0.287933
0.285314
0.280081
0.276379
0.273859
0.267699
0.262865
0.265902
0.267131
0.266462
0.266744
0.26775
0.268748
0.269634
0.270493
0.271347
0.272184
0.273018
0.273883
0.274819
0.275868
0.277048
0.278312
0.307938
0.307375
0.304979
0.302006
0.296022
0.292695
0.290459
0.281796
0.274753
0.279571
0.281326
0.279871
0.279805
0.280873
0.281979
0.282931
0.283859
0.2848
0.285734
0.28667
0.287637
0.288688
0.28987
0.2912
0.292627
0.32425
0.323602
0.321284
0.318308
0.312208
0.310143
0.308364
0.29893
0.289489
0.294644
0.296134
0.293823
0.293064
0.293831
0.294852
0.295756
0.296648
0.297573
0.298519
0.299485
0.300492
0.301591
0.302846
0.304275
0.305815
0.341701
0.340965
0.33878
0.335701
0.329618
0.329
0.327013
0.318288
0.306935
0.311018
0.311776
0.30887
0.307368
0.307647
0.308477
0.3093
0.310128
0.311009
0.311929
0.312883
0.31389
0.315001
0.316285
0.317774
0.319392
0.361791
0.360959
0.358967
0.355581
0.349719
0.350404
0.347588
0.340036
0.32613
0.328358
0.328246
0.325046
0.322963
0.322751
0.323337
0.32403
0.324752
0.325569
0.326468
0.327418
0.328432
0.329563
0.330877
0.332435
0.334166
0.384598
0.383698
0.381967
0.378078
0.37281
0.374368
0.370429
0.364465
0.347094
0.346853
0.345555
0.34209
0.33951
0.338876
0.339272
0.339827
0.34036
0.340992
0.34178
0.342693
0.34372
0.344891
0.346285
0.347964
0.349875
0.410627
0.409785
0.40845
0.403934
0.3998
0.401204
0.396303
0.391855
0.369511
0.366259
0.363608
0.359803
0.356599
0.355438
0.355744
0.356478
0.357157
0.357775
0.358449
0.35926
0.36026
0.361501
0.363092
0.365072
0.367387
0.440205
0.439734
0.439111
0.434206
0.43204
0.431473
0.426623
0.422389
0.392893
0.386036
0.381885
0.378021
0.374528
0.372694
0.37238
0.37302
0.374167
0.375538
0.376935
0.378285
0.379668
0.381267
0.383358
0.38619
0.389785
0.473649
0.474022
0.474648
0.470362
0.471628
0.466948
0.465219
0.456898
0.416709
0.405819
0.399171
0.395328
0.393299
0.393002
0.393165
0.393172
0.393379
0.394419
0.396442
0.399168
0.402327
0.405859
0.409964
0.414928
0.420887
0.427856
0.511566
0.513378
0.516017
0.514341
0.520971
0.510764
0.519488
0.495158
0.439931
0.427197
0.416705
0.411367
0.41074
0.414349
0.42003
0.425018
0.427786
0.428787
0.429521
0.431224
0.43453
0.439672
0.446836
0.455949
0.466684
0.478581
0.554414
0.55918
0.566184
0.570661
0.58364
0.566142
0.594253
0.523811
0.458501
0.449176
0.43646
0.432164
0.43088
0.431639
0.437983
0.45062
0.465636
0.477441
0.482427
0.480734
0.475081
0.468646
0.464896
0.466812
0.474304
0.484386
0.598177
0.610064
0.629769
0.651382
0.674029
0.642692
0.673665
0.520969
0.467562
0.450643
0.421167
0.414441
0.422354
0.436435
0.446475
0.444513
0.434892
0.426492
0.422691
0.4224
0.423646
0.424395
0.421525
0.411694
0.396207
0.379799
0.630427
0.653476
0.699542
0.771761
0.843879
0.790084
0.743363
0.517563
0.495177
0.458181
0.405521
0.372275
0.345815
0.323772
0.306934
0.294844
0.28652
0.280252
0.274548
0.268696
0.262576
0.256382
0.250436
0.245381
0.241735
0.239016
0.647132
0.677085
0.745973
0.897651
1.22996
1.12494
0.786571
0.59553
0.49485
0.334457
0.270694
0.236503
0.216997
0.205575
0.198914
0.194823
0.19187
0.189212
0.186591
0.184045
0.181691
0.179528
0.177454
0.175182
0.172956
0.17114
)
;

boundaryField
{
    inlet
    {
        type            calculated;
        value           nonuniform List<scalar> 
26
(
0.703169
0.734844
0.809414
0.982273
1.44448
1.21047
0.786896
0.758682
0.358415
0.250469
0.199247
0.170462
0.152829
0.141361
0.133703
0.128405
0.124591
0.121707
0.119385
0.117384
0.115548
0.113741
0.111832
0.109751
0.107666
0.105785
)
;
    }
    outlet
    {
        type            calculated;
        value           nonuniform List<scalar> 0();
    }
    walls
    {
        type            calculated;
        value           nonuniform List<scalar> 0();
    }
    frontAndBack
    {
        type            empty;
    }
    procBoundary0to1
    {
        type            processor;
        value           nonuniform List<scalar> 
94
(
0.00906069
0.0100079
0.0100079
0.0110232
0.0110232
0.0120986
0.0120986
0.0132445
0.0132445
0.0144535
0.0144535
0.0157222
0.0167771
0.0167771
0.0181513
0.0193091
0.0193091
0.0207987
0.022076
0.0234226
0.0234226
0.0251163
0.0266119
0.0266119
0.0284781
0.0301453
0.031907
0.031907
0.03408
0.0360502
0.0381321
0.0381321
0.040685
0.0430147
0.0430147
0.0458792
0.0484837
0.0512289
0.0512289
0.0546042
0.0576578
0.0608659
0.0608659
0.0648156
0.0683556
0.072059
0.072059
0.0766232
0.0806691
0.0848865
0.0848865
0.0900782
0.0946418
0.0993838
0.0993838
0.105204
0.110298
0.115586
0.121077
0.121077
0.127689
0.133582
0.139734
0.146182
0.146182
0.153841
0.160999
0.168605
0.176674
0.185189
0.185189
0.194879
0.204196
0.214072
0.224735
0.236428
0.249306
0.249306
0.264502
0.279587
0.294066
0.30737
0.321044
0.335975
0.35194
0.369931
0.393931
0.393931
0.435862
0.491247
0.494263
0.365107
0.236676
0.169742
)
;
    }
    procBoundary0to4
    {
        type            processor;
        value           nonuniform List<scalar> 
72
(
0.00951948
0.0103264
0.0111642
0.0120371
0.0129469
0.0138962
0.0148873
0.015923
0.0170061
0.0181399
0.0193271
0.0205708
0.0218748
0.0232424
0.0246774
0.0261839
0.0277659
0.029428
0.0311748
0.0330111
0.034942
0.0369733
0.0394582
0.0394582
0.0417303
0.0441222
0.046641
0.049294
0.0520892
0.0550353
0.0581411
0.0614162
0.064871
0.0685169
0.0723655
0.0764297
0.0807235
0.0852621
0.0900617
0.0951402
0.100517
0.106213
0.112253
0.11866
0.125465
0.132699
0.140396
0.148597
0.157345
0.16669
0.176689
0.187406
0.198914
0.211299
0.224654
0.239084
0.254711
0.271653
0.289733
0.307189
0.323479
0.340925
0.361011
0.38381
0.409792
0.439233
0.472372
0.509701
0.551337
0.592774
0.622213
0.637393
)
;
    }
    procBoundary0to5
    {
        type            processor;
        value           nonuniform List<scalar> 4(0.00878044 0.00882823 0.00888453 0.00895894);
    }
}


// ************************************************************************* //
