/*--------------------------------*- C++ -*----------------------------------*\
| =========                 |                                                 |
| \\      /  F ield         | OpenFOAM: The Open Source CFD Toolbox           |
|  \\    /   O peration     | Version:  2306                                  |
|   \\  /    A nd           | Website:  www.openfoam.com                      |
|    \\/     M anipulation  |                                                 |
\*---------------------------------------------------------------------------*/
FoamFile
{
    version     2.0;
    format      ascii;
    arch        "LSB;label=32;scalar=64";
    class       volSymmTensorField;
    location    "275";
    object      turbulenceProperties:R;
}
// * * * * * * * * * * * * * * * * * * * * * * * * * * * * * * * * * * * * * //

dimensions      [0 2 -2 0 0 0 0];

internalField   nonuniform List<symmTensor> 
1340
(
(0.000371838 -2.99146e-05 -1.14162e-21 0.000308265 -4.42589e-22 0.000340012)
(0.000371648 -2.43337e-05 8.56563e-21 0.000300415 8.52413e-21 0.000336083)
(0.000370041 -1.84101e-05 1.88213e-20 0.000293281 1.0742e-20 0.000331641)
(0.000366486 -1.12047e-05 -2.99948e-20 0.000285816 -3.33352e-20 0.00032623)
(0.000359793 -3.25084e-06 -4.22016e-20 0.000278179 -3.58241e-20 0.000318975)
(0.000315425 -2.56855e-05 3.94926e-21 0.000261997 3.48422e-21 0.000288686)
(0.000315067 -2.10367e-05 1.12848e-20 0.000255168 5.99451e-21 0.000285154)
(0.000313654 -1.60902e-05 -2.64416e-20 0.000249006 -1.86503e-20 0.000281316)
(0.000310761 -1.00829e-05 3.81142e-21 0.000242653 6.80927e-21 0.000276773)
(0.000305283 -3.42343e-06 3.99041e-20 0.000236141 1.5838e-20 0.000270697)
(0.000297456 3.41604e-06 -2.96629e-20 0.000230097 -3.52837e-20 0.000263749)
(0.00026937 -2.22078e-05 -2.01869e-21 0.000224193 -1.87222e-21 0.000246761)
(0.000268918 -1.83037e-05 -8.44844e-21 0.000218222 -5.62573e-21 0.000243592)
(0.000267651 -1.41373e-05 -1.19434e-21 0.000212845 1.77641e-22 0.000240235)
(0.000265275 -9.08374e-06 1.56567e-20 0.000207393 1.02982e-20 0.000236387)
(0.000260761 -3.45904e-06 -9.44444e-21 0.000201807 -7.60501e-22 0.000231265)
(0.000254419 2.3346e-06 3.45523e-20 0.000196712 2.67415e-20 0.000225541)
(0.000246242 8.00469e-06 5.75945e-20 0.000192286 2.54127e-20 0.000219246)
(0.000231315 -1.93112e-05 2.64566e-21 0.000192927 1.86318e-21 0.000212106)
(0.000230836 -1.60086e-05 3.72455e-21 0.000187695 2.60277e-21 0.00020928)
(0.000229707 -1.24766e-05 9.91399e-21 0.000182985 3.39912e-21 0.000206335)
(0.000227734 -8.19267e-06 -2.70632e-20 0.000178268 -1.83961e-20 0.000203045)
(0.000224006 -3.40897e-06 -1.34302e-20 0.00017346 -9.87921e-21 0.000198711)
(0.000218824 1.53511e-06 -3.35927e-20 0.000169132 -2.08525e-20 0.000193958)
(0.000212226 6.40925e-06 -4.12527e-20 0.000165478 -1.13124e-20 0.000188841)
(0.000204151 1.08967e-05 3.47435e-20 0.000162453 6.63439e-21 0.00018331)
(0.000199616 -1.6877e-05 2.86453e-21 0.000166855 1.48673e-21 0.000183223)
(0.000199128 -1.4063e-05 6.06151e-22 0.000162241 3.9103e-23 0.000180696)
(0.000198134 -1.10528e-05 -8.09246e-21 0.00015811 -2.32614e-21 0.000178111)
(0.000196473 -7.39631e-06 2.49419e-20 0.000153993 1.66824e-20 0.00017527)
(0.000193381 -3.30271e-06 4.61945e-20 0.000149837 2.10167e-20 0.000171587)
(0.000189123 9.42539e-07 1.042e-21 0.00014614 5.19527e-21 0.000167615)
(0.00018373 5.15284e-06 8.79206e-20 0.000143075 3.67631e-20 0.000163399)
(0.000177099 9.06122e-06 -2.5682e-20 0.000140579 -2.49715e-20 0.000158846)
(0.000169426 1.22645e-05 -4.34423e-20 0.000138454 -1.33496e-20 0.000153939)
(0.000173 -1.48118e-05 2.71347e-21 0.000144934 1.27395e-21 0.000158956)
(0.000172515 -1.24029e-05 -4.86532e-21 0.000140851 -2.86292e-21 0.00015669)
(0.000171643 -9.82044e-06 -1.9139e-21 0.00013721 -1.30696e-21 0.000154419)
(0.000170239 -6.68632e-06 -3.52665e-21 0.000133606 1.31736e-21 0.000151952)
(0.000167656 -3.16248e-06 3.49934e-20 0.00012999 1.33296e-20 0.000148802)
(0.000164137 5.00843e-07 -3.81777e-20 0.000126813 -1.91617e-20 0.000145462)
(0.000159683 4.15683e-06 4.00681e-21 0.000124211 3.00982e-21 0.000141946)
(0.000154195 7.57113e-06 1.54894e-20 0.000122129 -1.85852e-21 0.000138169)
(0.000147869 1.03994e-05 -1.10529e-19 0.000120432 -3.09653e-20 0.000134149)
(0.000141084 1.25022e-05 2.65339e-20 0.000118983 1.51014e-20 0.000130028)
(0.000150493 -1.30459e-05 -3.94446e-21 0.000126369 -1.50137e-21 0.000138423)
(0.000150031 -1.09765e-05 3.27641e-21 0.000122754 2.80817e-21 0.000136396)
(0.000149258 -8.75021e-06 2.20366e-20 0.000119528 1.12774e-20 0.000134386)
(0.000148068 -6.04845e-06 6.23216e-21 0.000116359 1.40732e-22 0.000132239)
(0.0001459 -3.00191e-06 -2.64606e-20 0.0001132 -1.06743e-20 0.00012953)
(0.000142976 1.73685e-07 2.46641e-20 0.000110456 1.25239e-20 0.000126706)
(0.000139264 3.36036e-06 -6.69547e-21 0.000108222 -1.80209e-21 0.000123745)
(0.000134686 6.35244e-06 6.15821e-20 0.000106466 2.30216e-20 0.000120582)
(0.000129433 8.85455e-06 2.02208e-20 0.000105099 9.32061e-21 0.000117265)
(0.000123815 1.07427e-05 -1.21966e-20 0.000103994 -4.63272e-21 0.000113899)
(0.000131345 -1.1527e-05 4.04293e-22 0.000110551 -7.11128e-23 0.000120942)
(0.000130919 -9.74174e-06 -9.99959e-22 0.000107346 -1.34508e-21 0.000119134)
(0.000130234 -7.81624e-06 -1.88157e-20 0.000104482 -1.06894e-20 0.000117352)
(0.000129214 -5.47685e-06 -3.06946e-20 0.000101679 -1.57078e-20 0.000115468)
(0.000127388 -2.83097e-06 -3.7786e-20 9.89073e-05 -1.05762e-20 0.000113131)
(0.000124945 -6.77611e-08 5.46623e-20 9.65255e-05 2.01743e-20 0.000110727)
(0.000121826 2.71939e-06 -5.03757e-20 9.45906e-05 -2.11799e-20 0.000108212)
(0.000117981 5.34905e-06 1.21193e-20 9.30961e-05 9.84702e-21 0.000105544)
(0.000113593 7.56615e-06 3.02578e-20 9.19849e-05 9.44619e-21 0.000102788)
(0.00010891 9.26045e-06 2.10217e-20 9.11366e-05 7.98778e-21 0.000100019)
(0.00010405 1.0443e-05 1.98731e-20 9.04001e-05 5.56797e-21 9.7225e-05)
(0.000114969 -1.02137e-05 5.03625e-21 9.70013e-05 2.78311e-21 0.00010598)
(0.000114579 -8.66745e-06 7.78954e-21 9.41522e-05 4.23664e-21 0.000104366)
(0.000113974 -6.99648e-06 2.15834e-20 9.16049e-05 8.80529e-21 0.000102784)
(0.000113096 -4.96318e-06 -4.8703e-21 8.91163e-05 -2.33041e-21 0.000101124)
(0.000111549 -2.65661e-06 1.83096e-20 8.66743e-05 3.94058e-21 9.90973e-05)
(0.0001095 -2.4399e-07 -5.97334e-20 8.45973e-05 -2.09726e-20 9.70413e-05)
(0.00010686 2.20136e-06 5.15456e-20 8.29081e-05 2.7873e-20 9.48874e-05)
(0.000103612 4.51839e-06 6.98262e-20 8.16257e-05 1.74647e-20 9.26238e-05)
(9.99225e-05 6.48529e-06 -4.31598e-21 8.07123e-05 -6.42954e-21 9.03163e-05)
(9.59916e-05 8.00568e-06 2.94433e-20 8.00565e-05 -3.29274e-22 8.80206e-05)
(9.19212e-05 9.08647e-06 2.09005e-20 7.95241e-05 4.66817e-21 8.57221e-05)
(0.000100897 -9.0719e-06 -6.02292e-21 8.53376e-05 -2.51996e-21 9.31135e-05)
(0.000100541 -7.72877e-06 7.15631e-21 8.27988e-05 2.56706e-21 9.16698e-05)
(0.000100006 -6.27366e-06 -1.91607e-20 8.05273e-05 -9.30868e-21 9.02614e-05)
(9.92472e-05 -4.50092e-06 -1.56525e-20 7.8312e-05 -5.91827e-21 8.8794e-05)
(9.7934e-05 -2.48433e-06 -4.16711e-21 7.61549e-05 2.19968e-21 8.70325e-05)
(9.62008e-05 -3.70401e-07 6.21032e-20 7.43303e-05 2.24086e-20 8.52604e-05)
(9.3957e-05 1.77984e-06 -7.31341e-21 7.28492e-05 -8.96594e-21 8.34062e-05)
(9.1198e-05 3.82668e-06 -4.95958e-20 7.17399e-05 -2.25859e-20 8.14729e-05)
(8.80782e-05 5.57478e-06 -4.12493e-20 7.09822e-05 -1.5924e-20 7.95293e-05)
(8.47584e-05 6.93785e-06 -1.40609e-19 7.04691e-05 -3.23115e-20 7.7611e-05)
(8.13296e-05 7.92265e-06 1.91504e-20 7.0087e-05 1.14795e-20 7.57081e-05)
(7.7887e-05 8.54294e-06 7.68884e-20 6.97165e-05 1.21105e-20 7.38004e-05)
(8.87503e-05 -8.07449e-06 3.78255e-21 7.52515e-05 1.65491e-21 8.19983e-05)
(8.84283e-05 -6.90501e-06 1.32824e-21 7.29861e-05 1.22048e-21 8.07067e-05)
(8.79545e-05 -5.63433e-06 2.28133e-20 7.09557e-05 1.02033e-20 7.94503e-05)
(8.72982e-05 -4.08446e-06 3.55975e-20 6.89801e-05 1.26355e-20 7.81509e-05)
(8.61817e-05 -2.3164e-06 -1.30508e-20 6.70703e-05 -8.58965e-21 7.66156e-05)
(8.47023e-05 -4.58685e-07 -5.20445e-20 6.54556e-05 -1.85423e-20 7.50753e-05)
(8.27872e-05 1.43628e-06 8.43998e-21 6.41512e-05 1.38973e-21 7.34723e-05)
(8.04334e-05 3.24754e-06 -5.87536e-20 6.31861e-05 -1.54644e-20 7.18133e-05)
(7.77784e-05 4.80317e-06 2.79623e-20 6.25486e-05 1.66772e-20 7.01629e-05)
(7.49593e-05 6.0257e-06 6.11698e-20 6.21436e-05 2.16223e-20 6.85492e-05)
(7.20533e-05 6.9209e-06 -3.65383e-20 6.18705e-05 -1.18357e-20 6.69615e-05)
(6.91429e-05 7.49988e-06 -5.43194e-20 6.16246e-05 -1.60891e-20 6.53821e-05)
(7.8226e-05 -7.20008e-06 -4.33905e-21 6.64959e-05 -1.18863e-21 7.2359e-05)
(7.79367e-05 -6.17944e-06 1.37771e-20 6.44718e-05 5.42162e-21 7.12034e-05)
(7.75168e-05 -5.067e-06 -7.19563e-21 6.26535e-05 -3.30501e-21 7.00809e-05)
(7.69485e-05 -3.70894e-06 -5.55169e-21 6.08888e-05 -2.34717e-21 6.89285e-05)
(7.59961e-05 -2.15486e-06 -1.23434e-20 5.9193e-05 -5.9148e-21 6.75858e-05)
(7.47267e-05 -5.18511e-07 -3.77438e-20 5.77579e-05 -1.22596e-20 6.62395e-05)
(7.30832e-05 1.15544e-06 -2.26946e-20 5.66025e-05 -8.17795e-21 6.48457e-05)
(7.10667e-05 2.76147e-06 -2.19636e-21 5.57581e-05 4.01851e-21 6.34153e-05)
(6.87972e-05 4.14769e-06 2.59736e-20 5.52175e-05 1.32976e-20 6.20064e-05)
(6.63904e-05 5.24418e-06 2.71009e-20 5.48938e-05 6.87719e-21 6.064e-05)
(6.39142e-05 6.0559e-06 6.0424e-20 5.46987e-05 8.00013e-21 5.93063e-05)
(6.14387e-05 6.59226e-06 -1.25923e-20 5.45392e-05 -6.70444e-21 5.79878e-05)
(6.90757e-05 -6.43071e-06 -3.29074e-21 5.88684e-05 -1.73533e-21 6.39709e-05)
(6.88187e-05 -5.53856e-06 -2.0131e-20 5.70594e-05 -7.72091e-21 6.29376e-05)
(6.84442e-05 -4.56234e-06 -1.26107e-20 5.54265e-05 -4.71532e-21 6.19318e-05)
(6.79515e-05 -3.36975e-06 -1.0755e-20 5.38474e-05 -3.83476e-21 6.09078e-05)
(6.71366e-05 -2.00068e-06 -8.23957e-21 5.23375e-05 -1.59405e-21 5.97296e-05)
(6.6043e-05 -5.56365e-07 2.37569e-20 5.10579e-05 4.47886e-21 5.85486e-05)
(6.46274e-05 9.24952e-07 -1.06248e-19 5.00309e-05 -3.22736e-20 5.73318e-05)
(6.28927e-05 2.35131e-06 7.33783e-21 4.92876e-05 1.42835e-20 5.60928e-05)
(6.09429e-05 3.58767e-06 1.40678e-19 4.88232e-05 3.55095e-20 5.48825e-05)
(5.88775e-05 4.57145e-06 4.1813e-20 4.85604e-05 8.8252e-22 5.37172e-05)
(5.67547e-05 5.30686e-06 -1.05949e-19 4.84205e-05 -3.1392e-20 5.25873e-05)
(5.46398e-05 5.80155e-06 -7.95956e-20 4.83239e-05 -1.13878e-20 5.14805e-05)
(5.25788e-05 6.08352e-06 1.55619e-20 4.82018e-05 9.07143e-21 5.03884e-05)
(6.10955e-05 -5.75189e-06 3.62127e-21 5.22033e-05 1.19075e-21 5.66486e-05)
(6.08685e-05 -4.97032e-06 -5.77863e-21 5.05841e-05 -1.54636e-21 5.57249e-05)
(6.05355e-05 -4.11252e-06 2.17409e-20 4.91172e-05 6.15405e-21 5.48229e-05)
(6.01069e-05 -3.06286e-06 -5.48727e-20 4.77011e-05 -2.0829e-20 5.3911e-05)
(5.94069e-05 -1.85444e-06 -4.1608e-20 4.63529e-05 -1.24455e-20 5.28735e-05)
(5.8461e-05 -5.77199e-07 -2.1969e-20 4.52085e-05 -3.74958e-21 5.18334e-05)
(5.7238e-05 7.35865e-07 5.0278e-20 4.42928e-05 2.178e-20 5.07678e-05)
(5.57386e-05 2.00457e-06 6.53997e-20 4.3634e-05 1.12256e-20 4.96883e-05)
(5.40567e-05 3.10846e-06 -6.92823e-20 4.32317e-05 -2.27403e-20 4.86436e-05)
(5.22761e-05 3.99119e-06 5.63576e-20 4.30149e-05 1.35323e-20 4.76441e-05)
(5.04485e-05 4.6564e-06 5.51469e-21 4.2914e-05 6.27492e-21 4.66811e-05)
(4.86307e-05 5.11041e-06 -1.99794e-20 4.28581e-05 3.39132e-21 4.57434e-05)
(4.68647e-05 5.37799e-06 6.75369e-20 4.27882e-05 1.56738e-20 4.48248e-05)
(5.41173e-05 -5.15132e-06 -3.7108e-21 4.6363e-05 -1.54771e-21 5.02394e-05)
(5.39155e-05 -4.46525e-06 -8.00088e-21 4.49102e-05 -2.33796e-21 4.94116e-05)
(5.36223e-05 -3.71068e-06 1.49834e-20 4.35936e-05 6.23495e-21 4.86048e-05)
(5.32479e-05 -2.78514e-06 2.74566e-20 4.23209e-05 1.00526e-20 4.77903e-05)
(5.26453e-05 -1.71641e-06 4.37821e-20 4.11147e-05 1.49313e-20 4.68745e-05)
(5.18247e-05 -5.85424e-07 2.93555e-20 4.00888e-05 1.10241e-20 4.59558e-05)
(5.07639e-05 5.80468e-07 8.67499e-20 3.92694e-05 1.89037e-20 4.50189e-05)
(4.94638e-05 1.70997e-06 -1.30034e-19 3.86826e-05 -3.6554e-20 4.40751e-05)
(4.80058e-05 2.69653e-06 1.14533e-20 3.83296e-05 5.89174e-21 4.31672e-05)
(4.64634e-05 3.48921e-06 -2.45136e-20 3.81474e-05 -3.83825e-21 4.23041e-05)
(4.48822e-05 4.09046e-06 5.00703e-20 3.80735e-05 1.0953e-20 4.14776e-05)
(4.33138e-05 4.50608e-06 1.85358e-20 3.80464e-05 2.43153e-21 4.06789e-05)
(4.1794e-05 4.75746e-06 3.76233e-20 3.80118e-05 -3.36424e-23 3.99014e-05)
(4.03217e-05 4.87698e-06 1.73098e-20 3.79389e-05 -1.52472e-22 3.91295e-05)
(4.79993e-05 -4.61841e-06 3.66917e-21 4.12315e-05 1.50965e-21 4.46149e-05)
(4.78205e-05 -4.01563e-06 1.26284e-20 3.99272e-05 3.54474e-21 4.38725e-05)
(4.75623e-05 -3.35063e-06 -2.89369e-20 3.87439e-05 -9.32441e-21 4.31504e-05)
(4.72346e-05 -2.53345e-06 1.10725e-20 3.75986e-05 5.20757e-21 4.24217e-05)
(4.67151e-05 -1.5871e-06 3.58125e-20 3.65177e-05 1.01686e-20 4.16117e-05)
(4.60014e-05 -5.84184e-07 -8.90741e-21 3.55964e-05 -5.27809e-21 4.07982e-05)
(4.50778e-05 4.52601e-07 -4.69103e-20 3.48603e-05 -1.0839e-20 3.99711e-05)
(4.39474e-05 1.45974e-06 1.02748e-19 3.43362e-05 2.7695e-20 3.91432e-05)
(4.26794e-05 2.34221e-06 -8.63742e-20 3.40241e-05 -2.26951e-20 3.83513e-05)
(4.13378e-05 3.05374e-06 7.05239e-20 3.38676e-05 1.88679e-20 3.76016e-05)
(3.99644e-05 3.59683e-06 -2.66575e-20 3.38121e-05 -1.23009e-20 3.68881e-05)
(3.86044e-05 3.97626e-06 -2.95431e-20 3.38025e-05 -5.60431e-21 3.62025e-05)
(3.72891e-05 4.21072e-06 -6.47656e-20 3.37903e-05 -1.11084e-20 3.55384e-05)
(3.60184e-05 4.32907e-06 6.71483e-21 3.3748e-05 2.10181e-21 3.48824e-05)
(4.26227e-05 -4.14447e-06 -2.01444e-23 3.67116e-05 -1.00575e-23 3.9667e-05)
(4.24659e-05 -3.61453e-06 3.26116e-21 3.55412e-05 7.09784e-22 3.90023e-05)
(4.22382e-05 -3.02778e-06 -1.74274e-20 3.44763e-05 -4.9246e-21 3.83547e-05)
(4.19507e-05 -2.30503e-06 3.18142e-20 3.3444e-05 9.25289e-21 3.77017e-05)
(4.15022e-05 -1.46604e-06 -4.12249e-20 3.24743e-05 -1.17043e-20 3.69844e-05)
(4.08802e-05 -5.75542e-07 5.20007e-20 3.16456e-05 1.68446e-20 3.62624e-05)
(4.00737e-05 3.47383e-07 4.81912e-20 3.09826e-05 1.05358e-20 3.55301e-05)
(3.90883e-05 1.24613e-06 -4.61353e-20 3.05125e-05 -1.48428e-20 3.48018e-05)
(3.79812e-05 2.03605e-06 -5.91082e-21 3.02338e-05 2.91828e-21 3.41071e-05)
(3.68103e-05 2.67525e-06 6.56454e-21 3.00973e-05 -5.28e-21 3.34529e-05)
(3.56123e-05 3.16565e-06 -3.42803e-20 3.00539e-05 -5.59403e-21 3.28329e-05)
(3.44284e-05 3.51138e-06 4.41499e-20 3.00551e-05 1.00436e-20 3.22408e-05)
(3.32858e-05 3.7288e-06 2.78699e-20 3.00568e-05 9.97214e-21 3.16702e-05)
(3.2185e-05 3.84381e-06 3.86795e-21 3.00351e-05 -4.4951e-21 3.11092e-05)
(3.78883e-05 -3.72235e-06 -6.45646e-22 3.27228e-05 -2.64056e-22 3.53056e-05)
(3.77519e-05 -3.25592e-06 2.78124e-21 3.1672e-05 8.12119e-22 3.47106e-05)
(3.75515e-05 -2.73771e-06 -1.04298e-21 3.07133e-05 -8.5809e-22 3.41301e-05)
(3.72988e-05 -2.09781e-06 -1.83653e-20 2.9782e-05 -6.62691e-21 3.35442e-05)
(3.6911e-05 -1.35309e-06 -4.36522e-20 2.89106e-05 -1.28306e-20 3.29075e-05)
(3.63678e-05 -5.61436e-07 -3.03677e-20 2.8164e-05 -8.99114e-21 3.22655e-05)
(3.56616e-05 2.60965e-07 -5.18647e-20 2.75655e-05 -1.42747e-20 3.16153e-05)
(3.48e-05 1.06398e-06 2.05737e-20 2.71424e-05 6.58191e-21 3.09724e-05)
(3.38314e-05 1.77137e-06 1.01202e-20 2.68924e-05 9.74846e-22 3.03615e-05)
(3.2806e-05 2.34569e-06 -1.05989e-19 2.67713e-05 -2.05167e-20 2.97879e-05)
(3.17572e-05 2.78827e-06 -2.02128e-20 2.67352e-05 9.54369e-22 2.9246e-05)
(3.0722e-05 3.10273e-06 -4.35009e-20 2.67415e-05 -8.26571e-21 2.87309e-05)
(2.97255e-05 3.3035e-06 7.63646e-20 2.67511e-05 1.05467e-20 2.82373e-05)
(2.87683e-05 3.41372e-06 -7.90155e-20 2.67423e-05 -1.2279e-20 2.77547e-05)
(2.78421e-05 3.45168e-06 -3.22138e-20 2.66991e-05 -3.24578e-21 2.72703e-05)
(3.37124e-05 -3.34573e-06 3.83289e-21 2.91965e-05 1.43869e-21 3.14545e-05)
(3.35931e-05 -2.93476e-06 1.32801e-20 2.82516e-05 4.32499e-21 3.09212e-05)
(3.34176e-05 -2.4767e-06 2.38594e-20 2.73886e-05 7.37993e-21 3.04009e-05)
(3.3196e-05 -1.90958e-06 2.37299e-20 2.65481e-05 7.25603e-21 2.98754e-05)
(3.28598e-05 -1.24792e-06 3.67798e-20 2.57638e-05 1.0607e-20 2.9309e-05)
(3.23848e-05 -5.43355e-07 3.59089e-20 2.50906e-05 6.982e-21 2.87374e-05)
(3.17659e-05 1.90075e-07 -9.13587e-20 2.45499e-05 -2.38608e-20 2.81595e-05)
(3.10103e-05 9.08034e-07 -4.53814e-20 2.41674e-05 -6.9666e-21 2.75899e-05)
(3.01603e-05 1.54205e-06 6.29388e-20 2.39417e-05 1.55527e-20 2.70506e-05)
(2.92596e-05 2.05819e-06 1.23972e-19 2.38325e-05 3.04774e-20 2.65454e-05)
(2.83383e-05 2.45753e-06 6.02891e-20 2.38008e-05 9.34028e-21 2.60694e-05)
(2.74302e-05 2.7432e-06 -1.08926e-20 2.3809e-05 -2.62192e-21 2.56188e-05)
(2.65576e-05 2.92796e-06 -2.4925e-20 2.3822e-05 -6.16702e-21 2.51889e-05)
(2.57215e-05 3.03243e-06 9.43006e-20 2.38204e-05 1.71377e-20 2.47702e-05)
(2.49153e-05 3.07336e-06 -1.65547e-20 2.37911e-05 -3.68811e-21 2.43529e-05)
(3.00222e-05 -3.00903e-06 3.12054e-21 2.60727e-05 8.2386e-22 2.80476e-05)
(2.99181e-05 -2.64673e-06 -2.62524e-21 2.52227e-05 -1.08435e-21 2.75693e-05)
(2.97652e-05 -2.24159e-06 -9.30492e-21 2.4446e-05 -2.86163e-21 2.71036e-05)
(2.95712e-05 -1.7386e-06 -9.03611e-21 2.36874e-05 -4.34948e-21 2.66322e-05)
(2.92785e-05 -1.1501e-06 -9.86667e-20 2.29801e-05 -2.68317e-20 2.6127e-05)
(2.88631e-05 -5.22654e-07 -1.83804e-20 2.23727e-05 -1.766e-21 2.56176e-05)
(2.83203e-05 1.32113e-07 4.89293e-20 2.1884e-05 1.43039e-20 2.51035e-05)
(2.76561e-05 7.7446e-07 4.27817e-20 2.15373e-05 8.76314e-21 2.45977e-05)
(2.69085e-05 1.34298e-06 -1.01837e-19 2.13324e-05 -2.22075e-20 2.41201e-05)
(2.61151e-05 1.80701e-06 1.5972e-20 2.12326e-05 -1.61214e-22 2.36733e-05)
(2.53039e-05 2.16735e-06 -9.73639e-21 2.12037e-05 -1.86334e-21 2.32536e-05)
(2.4505e-05 2.42654e-06 2.20087e-21 2.12115e-05 2.17677e-21 2.28575e-05)
(2.37382e-05 2.59605e-06 -2.93834e-20 2.1225e-05 -2.95953e-21 2.24809e-05)
(2.30055e-05 2.69439e-06 -5.49421e-20 2.12271e-05 -1.24671e-20 2.21157e-05)
(2.23008e-05 2.73658e-06 4.27245e-22 2.12062e-05 3.11001e-22 2.17531e-05)
(2.67562e-05 -2.70769e-06 -8.72943e-22 2.33015e-05 -1.88259e-22 2.50291e-05)
(2.6666e-05 -2.38816e-06 9.01285e-21 2.25368e-05 2.55684e-21 2.46003e-05)
(2.65329e-05 -2.02952e-06 8.56399e-21 2.18372e-05 2.25902e-21 2.41833e-05)
(2.63637e-05 -1.58311e-06 3.01991e-21 2.11527e-05 7.16468e-22 2.37607e-05)
(2.61084e-05 -1.0592e-06 1.24133e-20 2.0514e-05 5.52858e-21 2.33093e-05)
(2.5745e-05 -5.00026e-07 8.05809e-20 1.99659e-05 1.91966e-20 2.28551e-05)
(2.52682e-05 8.4943e-08 -4.68364e-20 1.95236e-05 -1.27845e-20 2.23971e-05)
(2.46838e-05 6.59963e-07 3.20519e-20 1.92091e-05 1.19e-20 2.19472e-05)
(2.40246e-05 1.17004e-06 1.12302e-19 1.90221e-05 2.17158e-20 2.1523e-05)
(2.33244e-05 1.58729e-06 -8.39065e-20 1.89302e-05 -1.7302e-20 2.11268e-05)
(2.26081e-05 1.9123e-06 6.79399e-20 1.89022e-05 1.37859e-20 2.0755e-05)
(2.19029e-05 2.14742e-06 4.75918e-20 1.89084e-05 5.59906e-21 2.0405e-05)
(2.12278e-05 2.30262e-06 8.20812e-20 1.89211e-05 1.23789e-20 2.00737e-05)
(2.05838e-05 2.39462e-06 -8.30776e-21 1.89246e-05 -1.39782e-21 1.97538e-05)
(1.9966e-05 2.43687e-06 -3.43202e-20 1.89085e-05 -4.14236e-21 1.94369e-05)
(1.93699e-05 2.43952e-06 -4.06726e-20 1.88649e-05 -3.6973e-21 1.9117e-05)
(2.38622e-05 -2.43768e-06 9.93034e-22 2.08398e-05 -2.82189e-25 2.23513e-05)
(2.37841e-05 -2.15571e-06 -2.2605e-20 2.01515e-05 -5.89729e-21 2.19667e-05)
(2.36684e-05 -1.83809e-06 2.76745e-20 1.95212e-05 7.62657e-21 2.15932e-05)
(2.35212e-05 -1.44163e-06 -8.79008e-21 1.89034e-05 -1.64643e-21 2.12145e-05)
(2.32988e-05 -9.74994e-07 7.34194e-20 1.83267e-05 1.81983e-20 2.08112e-05)
(2.29805e-05 -4.76262e-07 -4.87962e-20 1.78314e-05 -1.34333e-20 2.04057e-05)
(2.25614e-05 4.66319e-08 7.68963e-21 1.7431e-05 4.64786e-21 1.99973e-05)
(2.20466e-05 5.61741e-07 1.1849e-19 1.71454e-05 2.1499e-20 1.95967e-05)
(2.14644e-05 1.01961e-06 -1.35468e-19 1.69743e-05 -2.98667e-20 1.9219e-05)
(2.08452e-05 1.39494e-06 5.56491e-20 1.6889e-05 1.44397e-20 1.88667e-05)
(2.02114e-05 1.68809e-06 -8.49185e-20 1.68615e-05 -2.07622e-20 1.85362e-05)
(1.95881e-05 1.90118e-06 -1.06494e-19 1.68655e-05 -1.91859e-20 1.82262e-05)
(1.89913e-05 2.04294e-06 -5.50453e-20 1.68754e-05 -9.96973e-21 1.79327e-05)
(1.84233e-05 2.12859e-06 1.9919e-20 1.68786e-05 5.98859e-21 1.76505e-05)
(1.78807e-05 2.17024e-06 5.52131e-20 1.68659e-05 8.05697e-21 1.7373e-05)
(1.73587e-05 2.17695e-06 2.47375e-20 1.68297e-05 5.11315e-21 1.70938e-05)
(2.1227e-05 -1.94652e-06 -7.98765e-21 1.80302e-05 -2.2963e-21 1.96277e-05)
(2.11269e-05 -1.66515e-06 -9.0298e-21 1.74625e-05 -2.34868e-21 1.92933e-05)
(2.09989e-05 -1.31281e-06 -3.45375e-21 1.69047e-05 -1.65809e-21 1.89537e-05)
(2.08053e-05 -8.96952e-07 -5.35353e-20 1.63838e-05 -1.21041e-20 1.85933e-05)
(2.05266e-05 -4.51885e-07 8.64588e-20 1.59364e-05 2.09617e-20 1.82312e-05)
(2.01581e-05 1.57915e-08 -3.56087e-20 1.55737e-05 -1.19287e-20 1.78668e-05)
(1.97041e-05 4.77491e-07 -1.53195e-19 1.5314e-05 -3.28639e-20 1.75097e-05)
(1.91896e-05 8.88557e-07 1.33361e-19 1.51574e-05 3.34277e-20 1.71732e-05)
(1.86412e-05 1.2263e-06 1.90514e-20 1.50778e-05 3.33177e-22 1.68591e-05)
(1.80793e-05 1.49071e-06 4.13292e-20 1.50503e-05 1.34653e-20 1.65647e-05)
(1.75267e-05 1.68382e-06 4.86877e-20 1.50516e-05 1.07309e-20 1.62887e-05)
(1.69987e-05 1.81324e-06 -4.66689e-21 1.50592e-05 2.74541e-21 1.60283e-05)
(1.64969e-05 1.8926e-06 1.08114e-20 1.5061e-05 -6.11671e-22 1.57785e-05)
(1.60185e-05 1.93299e-06 -5.70731e-20 1.50495e-05 -9.30698e-21 1.55337e-05)
(1.55597e-05 1.94258e-06 3.11179e-20 1.50184e-05 3.3025e-21 1.52887e-05)
(1.51105e-05 1.9277e-06 -5.85766e-20 1.49644e-05 -8.58375e-21 1.50373e-05)
(1.89555e-05 -1.75809e-06 -5.73704e-21 1.61416e-05 -1.29971e-21 1.75477e-05)
(1.88694e-05 -1.50878e-06 1.46991e-20 1.56304e-05 3.25518e-21 1.72486e-05)
(1.87583e-05 -1.19553e-06 -4.39494e-20 1.51267e-05 -1.10608e-20 1.69441e-05)
(1.85899e-05 -8.24689e-07 1.15008e-20 1.46561e-05 2.32342e-21 1.66219e-05)
(1.8346e-05 -4.27335e-07 -8.25939e-20 1.42519e-05 -1.98432e-20 1.62988e-05)
(1.8022e-05 -8.81762e-09 1.89492e-20 1.39234e-05 5.27374e-21 1.59735e-05)
(1.76214e-05 4.05189e-07 5.52277e-21 1.36872e-05 3.42495e-21 1.56548e-05)
(1.71663e-05 7.74465e-07 -6.9234e-21 1.35437e-05 -4.67382e-21 1.53547e-05)
(1.66801e-05 1.07844e-06 -1.96259e-20 1.34695e-05 -2.03633e-21 1.50744e-05)
(1.61815e-05 1.31697e-06 1.07e-19 1.34421e-05 1.79234e-20 1.48116e-05)
(1.5691e-05 1.49185e-06 -1.2623e-20 1.34408e-05 -4.4809e-21 1.45654e-05)
(1.52227e-05 1.6098e-06 9.56097e-20 1.34454e-05 1.34166e-20 1.43335e-05)
(1.47783e-05 1.68317e-06 -3.03683e-20 1.34455e-05 -5.57193e-21 1.41115e-05)
(1.43558e-05 1.72195e-06 3.37427e-20 1.34345e-05 7.25957e-21 1.38948e-05)
(1.39518e-05 1.73355e-06 -2.69531e-20 1.3407e-05 -5.15911e-21 1.36791e-05)
(1.35575e-05 1.72369e-06 4.44941e-20 1.336e-05 8.76079e-21 1.34586e-05)
(1.69355e-05 -1.58827e-06 -2.82421e-20 1.44583e-05 -7.11761e-21 1.56961e-05)
(1.68618e-05 -1.36724e-06 -3.53042e-21 1.39979e-05 1.61914e-22 1.54287e-05)
(1.67658e-05 -1.08867e-06 7.13203e-20 1.35433e-05 1.74806e-20 1.5156e-05)
(1.66196e-05 -7.5786e-07 6.17179e-22 1.31181e-05 -1.2796e-22 1.4868e-05)
(1.64064e-05 -4.02894e-07 5.16788e-20 1.27531e-05 1.168e-20 1.45796e-05)
(1.61216e-05 -2.82274e-08 -6.02103e-20 1.24556e-05 -1.43949e-20 1.42893e-05)
(1.57683e-05 3.43118e-07 8.27272e-21 1.2241e-05 3.02432e-21 1.40051e-05)
(1.53652e-05 6.74981e-07 -2.45637e-20 1.21093e-05 -3.44216e-21 1.37371e-05)
(1.49338e-05 9.48599e-07 2.12262e-20 1.204e-05 2.83975e-21 1.34866e-05)
(1.44911e-05 1.16382e-06 -5.68589e-20 1.20127e-05 -1.56918e-20 1.32518e-05)
(1.4055e-05 1.32217e-06 -3.01514e-20 1.20089e-05 -2.56417e-21 1.30316e-05)
(1.36392e-05 1.42964e-06 -1.069e-19 1.2011e-05 -1.80238e-20 1.28246e-05)
(1.32454e-05 1.49735e-06 3.05985e-20 1.20095e-05 7.32024e-21 1.26271e-05)
(1.28715e-05 1.53424e-06 1.47503e-20 1.19983e-05 9.67006e-22 1.24347e-05)
(1.25149e-05 1.54715e-06 -1.11925e-20 1.19733e-05 -1.78413e-22 1.22439e-05)
(1.21686e-05 1.54131e-06 -1.36604e-20 1.19322e-05 -1.83489e-21 1.20503e-05)
(1.51375e-05 -1.43507e-06 2.02984e-20 1.29565e-05 5.3503e-21 1.40463e-05)
(1.50747e-05 -1.23909e-06 3.35388e-20 1.25419e-05 7.72613e-21 1.38073e-05)
(1.49921e-05 -9.91279e-07 -3.013e-20 1.21317e-05 -8.57753e-21 1.35632e-05)
(1.48655e-05 -6.96113e-07 -7.995e-20 1.17477e-05 -1.77926e-20 1.33059e-05)
(1.46794e-05 -3.78899e-07 7.15019e-21 1.1418e-05 1.59216e-21 1.30486e-05)
(1.44293e-05 -4.33407e-08 -1.63895e-20 1.11489e-05 -2.44238e-21 1.27897e-05)
(1.41177e-05 2.89924e-07 5.02677e-20 1.09539e-05 1.15738e-20 1.25362e-05)
(1.37608e-05 5.88249e-07 6.94517e-20 1.08333e-05 1.23544e-20 1.22968e-05)
(1.3378e-05 8.34622e-07 -4.44628e-20 1.07687e-05 -8.56453e-21 1.20731e-05)
(1.29844e-05 1.02886e-06 -6.68375e-20 1.07418e-05 -8.56903e-21 1.1863e-05)
(1.25968e-05 1.17221e-06 1.30337e-19 1.0736e-05 2.26563e-20 1.1666e-05)
(1.22272e-05 1.27004e-06 6.66138e-20 1.07357e-05 1.23479e-20 1.1481e-05)
(1.18772e-05 1.33238e-06 -1.94879e-20 1.07324e-05 -6.20504e-21 1.13045e-05)
(1.15461e-05 1.36734e-06 7.83367e-21 1.07212e-05 8.44271e-22 1.11334e-05)
(1.12313e-05 1.38104e-06 5.68409e-20 1.06982e-05 8.9969e-21 1.09645e-05)
(1.09263e-05 1.37827e-06 5.0171e-20 1.06615e-05 7.18222e-21 1.07938e-05)
(1.06248e-05 1.36186e-06 7.72982e-21 1.06086e-05 6.98846e-22 1.06166e-05)
(1.35357e-05 -1.29679e-06 -4.8623e-21 1.16154e-05 -1.4187e-21 1.25749e-05)
(1.34825e-05 -1.12299e-06 -3.78379e-20 1.1242e-05 -8.90414e-21 1.23614e-05)
(1.34119e-05 -9.02484e-07 5.60634e-21 1.0872e-05 2.8505e-21 1.21431e-05)
(1.33026e-05 -6.3902e-07 1.21748e-19 1.05255e-05 2.65474e-20 1.19134e-05)
(1.31405e-05 -3.55428e-07 -9.22492e-20 1.02279e-05 -2.11074e-20 1.16841e-05)
(1.29212e-05 -5.48272e-08 8.23945e-21 9.98457e-06 2.64401e-21 1.14535e-05)
(1.26464e-05 2.44318e-07 -4.17532e-21 9.80754e-06 -1.16616e-21 1.12273e-05)
(1.23307e-05 5.12574e-07 -4.57441e-20 9.69736e-06 -7.3596e-21 1.10138e-05)
(1.1991e-05 7.34462e-07 1.266e-19 9.63726e-06 2.23032e-20 1.08139e-05)
(1.16411e-05 9.09829e-07 7.57384e-21 9.61107e-06 -2.60844e-21 1.0626e-05)
(1.12962e-05 1.03959e-06 -1.26135e-19 9.60371e-06 -2.37569e-20 1.04496e-05)
(1.09674e-05 1.12868e-06 3.25807e-20 9.60145e-06 4.59589e-21 1.0284e-05)
(1.06567e-05 1.18599e-06 -5.95923e-20 9.5968e-06 -9.59935e-21 1.01265e-05)
(1.03629e-05 1.21892e-06 -5.50528e-20 9.58539e-06 -8.99481e-21 9.97399e-06)
(1.00846e-05 1.23301e-06 -2.55571e-20 9.56391e-06 -4.39939e-21 9.82399e-06)
(9.81554e-06 1.23265e-06 9.26274e-21 9.531e-06 5.63323e-22 9.67322e-06)
(9.55098e-06 1.22043e-06 7.04733e-21 9.48453e-06 5.79097e-22 9.51763e-06)
(1.21077e-05 -1.17191e-06 -1.34541e-20 1.04168e-05 -2.90719e-21 1.12616e-05)
(1.20628e-05 -1.01775e-06 2.43072e-20 1.00807e-05 5.87963e-21 1.1071e-05)
(1.20029e-05 -8.21511e-07 1.69202e-20 9.74711e-06 2.27836e-21 1.08759e-05)
(1.1909e-05 -5.8632e-07 -1.32436e-19 9.43452e-06 -2.87235e-20 1.06713e-05)
(1.17681e-05 -3.32745e-07 9.59242e-20 9.16614e-06 2.21283e-20 1.0467e-05)
(1.1576e-05 -6.33428e-08 -3.43949e-20 8.94623e-06 -6.3977e-21 1.02616e-05)
(1.13341e-05 2.05308e-07 1.07977e-19 8.78584e-06 2.18263e-20 1.00602e-05)
(1.10548e-05 4.466e-07 7.6322e-20 8.6853e-06 1.14064e-20 9.86985e-06)
(1.07535e-05 6.4651e-07 -1.90193e-19 8.62976e-06 -3.68892e-20 9.69143e-06)
(1.04425e-05 8.04818e-07 -8.74054e-20 8.60445e-06 -1.28666e-20 9.52339e-06)
(1.01358e-05 9.22309e-07 3.65072e-20 8.59609e-06 9.39827e-21 9.3656e-06)
(9.8433e-06 1.00338e-06 -1.39091e-20 8.59232e-06 -3.12194e-21 9.21747e-06)
(9.56694e-06 1.05603e-06 4.3354e-20 8.58648e-06 9.2431e-21 9.07646e-06)
(9.30654e-06 1.08699e-06 -3.41798e-20 8.57518e-06 -4.21828e-21 8.94065e-06)
(9.06029e-06 1.10119e-06 -1.15877e-20 8.55527e-06 -1.61174e-21 8.80759e-06)
(8.82304e-06 1.10266e-06 -7.66237e-21 8.52549e-06 -2.1535e-22 8.67419e-06)
(8.59039e-06 1.09382e-06 -7.46681e-21 8.48444e-06 -1.49336e-21 8.53733e-06)
(1.08336e-05 -1.05907e-06 1.16722e-21 9.34483e-06 5.11603e-22 1.00886e-05)
(1.0796e-05 -9.22341e-07 2.8382e-20 9.04218e-06 6.20855e-21 9.91843e-06)
(1.07455e-05 -7.47657e-07 -3.13458e-20 8.74158e-06 -6.58085e-21 9.74436e-06)
(1.06654e-05 -5.37666e-07 7.15352e-20 8.45991e-06 1.58272e-20 9.56222e-06)
(1.05433e-05 -3.10843e-07 -3.6908e-20 8.21807e-06 -8.37801e-21 9.38057e-06)
(1.03754e-05 -6.93493e-08 5.61593e-20 8.01965e-06 1.093e-20 9.19799e-06)
(1.01627e-05 1.71952e-07 -1.02151e-19 7.87454e-06 -2.27592e-20 9.01888e-06)
(9.91605e-06 3.89039e-07 -1.1145e-20 7.78315e-06 -1.82471e-21 8.84941e-06)
(9.64895e-06 5.69223e-07 1.5844e-19 7.73201e-06 3.3162e-20 8.6903e-06)
(9.37263e-06 7.12146e-07 -8.67352e-21 7.70782e-06 5.36353e-24 8.54014e-06)
(9.0999e-06 8.18558e-07 -2.32466e-20 7.69889e-06 -3.73228e-21 8.39909e-06)
(8.83976e-06 8.92348e-07 -6.60657e-21 7.69413e-06 3.65076e-22 8.26666e-06)
(8.59429e-06 9.40688e-07 5.72048e-20 7.68765e-06 9.13862e-21 8.14076e-06)
(8.36319e-06 9.69668e-07 3.4089e-20 7.67642e-06 5.36622e-21 8.01964e-06)
(8.14518e-06 9.8378e-07 -3.59169e-20 7.6579e-06 -5.84143e-21 7.90137e-06)
(7.93591e-06 9.86659e-07 5.43587e-20 7.63108e-06 8.48738e-21 7.78342e-06)
(7.73126e-06 9.80531e-07 9.41387e-21 7.59473e-06 1.14541e-21 7.66291e-06)
(7.52671e-06 9.66691e-07 -4.60606e-20 7.54729e-06 -5.78657e-21 7.53696e-06)
(9.69593e-06 -9.57059e-07 -3.42336e-21 8.38522e-06 -1.08083e-21 9.04004e-06)
(9.66486e-06 -8.35794e-07 -4.35652e-20 8.11295e-06 -9.51595e-21 8.88833e-06)
(9.62262e-06 -6.80283e-07 1.01376e-20 7.84215e-06 2.61048e-21 8.73312e-06)
(9.55477e-06 -4.9278e-07 7.17217e-21 7.5886e-06 7.85364e-22 8.57134e-06)
(9.44944e-06 -2.89858e-07 -4.48274e-20 7.37094e-06 -9.1982e-21 8.41011e-06)
(9.30308e-06 -7.33298e-08 -4.60099e-20 7.1921e-06 -8.97343e-21 8.248e-06)
(9.1164e-06 1.43472e-07 -4.91791e-20 7.0611e-06 -9.87655e-21 8.08899e-06)
(8.89891e-06 3.3885e-07 -1.17521e-19 6.97835e-06 -2.05973e-20 7.93847e-06)
(8.66238e-06 5.01279e-07 5.74777e-20 6.93154e-06 9.77936e-21 7.79681e-06)
(8.41721e-06 6.30369e-07 1.157e-19 6.90887e-06 1.8475e-20 7.66294e-06)
(8.17483e-06 7.26792e-07 4.14392e-20 6.8998e-06 5.32117e-21 7.53702e-06)
(7.94351e-06 7.93928e-07 5.26488e-21 6.89436e-06 1.42763e-22 7.41865e-06)
(7.72547e-06 8.38309e-07 1.90452e-20 6.88761e-06 1.13678e-21 7.30635e-06)
(7.52049e-06 8.65382e-07 3.31593e-20 6.87671e-06 4.11009e-21 7.19843e-06)