/*--------------------------------*- C++ -*----------------------------------*\
| =========                 |                                                 |
| \\      /  F ield         | OpenFOAM: The Open Source CFD Toolbox           |
|  \\    /   O peration     | Version:  2306                                  |
|   \\  /    A nd           | Website:  www.openfoam.com                      |
|    \\/     M anipulation  |                                                 |
\*---------------------------------------------------------------------------*/
FoamFile
{
    version     2.0;
    format      ascii;
    arch        "LSB;label=32;scalar=64";
    class       volScalarField;
    location    "375";
    object      turbulenceProperties:epsilon;
}
// * * * * * * * * * * * * * * * * * * * * * * * * * * * * * * * * * * * * * //

dimensions      [0 2 -3 0 0 0 0];

internalField   nonuniform List<scalar> 
1340
(
0.000201521
0.000204585
0.000206972
0.000145537
0.00014816
0.000150392
0.000151832
0.000152428
0.000106524
0.000108716
0.000110685
0.000112176
0.000113151
0.000113529
0.000113128
7.88248e-05
8.06177e-05
8.22874e-05
8.36598e-05
8.47161e-05
8.53999e-05
8.55636e-05
8.51559e-05
5.88963e-05
6.03497e-05
6.17383e-05
6.29426e-05
6.39615e-05
6.47413e-05
6.51739e-05
6.5224e-05
6.48564e-05
4.43774e-05
4.55503e-05
4.66865e-05
4.77123e-05
4.86345e-05
4.93987e-05
4.99333e-05
5.02113e-05
5.01986e-05
3.36877e-05
3.46293e-05
3.55521e-05
3.64138e-05
3.72163e-05
3.79189e-05
3.84686e-05
3.88458e-05
3.90225e-05
3.89608e-05
2.57415e-05
2.6494e-05
2.72423e-05
2.79564e-05
2.86395e-05
2.92607e-05
2.97806e-05
3.0182e-05
3.04454e-05
3.0541e-05
3.04516e-05
1.97836e-05
2.03842e-05
2.09907e-05
2.15762e-05
2.21511e-05
2.26862e-05
2.31546e-05
2.35432e-05
2.38372e-05
2.40125e-05
2.40575e-05
1.52822e-05
1.57635e-05
1.62518e-05
1.67319e-05
1.72096e-05
1.76648e-05
1.80739e-05
1.84308e-05
1.87221e-05
1.89299e-05
1.90438e-05
1.90536e-05
1.18591e-05
1.22444e-05
1.26381e-05
1.30295e-05
1.34249e-05
1.38064e-05
1.41584e-05
1.4475e-05
1.47464e-05
1.49591e-05
1.51057e-05
1.51773e-05
9.24074e-06
9.54901e-06
9.86635e-06
1.01848e-05
1.05101e-05
1.08275e-05
1.11261e-05
1.14012e-05
1.16451e-05
1.1848e-05
1.20041e-05
1.21062e-05
1.2146e-05
7.2265e-06
7.47385e-06
7.72912e-06
7.98828e-06
8.25481e-06
8.51752e-06
8.7684e-06
9.00378e-06
9.21785e-06
9.40289e-06
9.55491e-06
9.66854e-06
9.7369e-06
5.66991e-06
5.8682e-06
6.07383e-06
6.28443e-06
6.50216e-06
6.71894e-06
6.92794e-06
7.12733e-06
7.31192e-06
7.47646e-06
7.61761e-06
7.73151e-06
7.81266e-06
7.85759e-06
4.46163e-06
4.62066e-06
4.7866e-06
4.95722e-06
5.13495e-06
5.31304e-06
5.48655e-06
5.65369e-06
5.8111e-06
5.95427e-06
6.08128e-06
6.18856e-06
6.2727e-06
6.33059e-06
3.52006e-06
3.64767e-06
3.7817e-06
3.91989e-06
4.06476e-06
4.2107e-06
4.35398e-06
4.4935e-06
4.62632e-06
4.74935e-06
4.86102e-06
4.95873e-06
5.03995e-06
5.10201e-06
2.78378e-06
2.88629e-06
2.9944e-06
3.10639e-06
3.22425e-06
3.34364e-06
3.46151e-06
3.57744e-06
3.68874e-06
3.79338e-06
3.88997e-06
3.97687e-06
4.05179e-06
4.11308e-06
4.15853e-06
2.20616e-06
2.28862e-06
2.37579e-06
2.46649e-06
2.56233e-06
2.65974e-06
2.7566e-06
2.85243e-06
2.94529e-06
3.03347e-06
3.1161e-06
3.19192e-06
3.25924e-06
3.31688e-06
3.36297e-06
1.75169e-06
1.81811e-06
1.88837e-06
1.96184e-06
2.03974e-06
2.11908e-06
2.19855e-06
2.27745e-06
2.35458e-06
2.42842e-06
2.49848e-06
2.56364e-06
2.62295e-06
2.67528e-06
2.71928e-06
1.39325e-06
1.4467e-06
1.5034e-06
1.56286e-06
1.62607e-06
1.69072e-06
1.7557e-06
1.82054e-06
1.88429e-06
1.94584e-06
2.00476e-06
2.06034e-06
2.11177e-06
2.15824e-06
2.19881e-06
2.2323e-06
1.10987e-06
1.15287e-06
1.19864e-06
1.24676e-06
1.298e-06
1.35064e-06
1.40369e-06
1.45689e-06
1.50942e-06
1.56052e-06
1.6098e-06
1.65679e-06
1.70082e-06
1.74142e-06
1.77772e-06
1.80903e-06
8.85327e-07
9.19958e-07
9.56876e-07
9.95812e-07
1.03737e-06
1.08015e-06
1.12341e-06
1.16699e-06
1.21017e-06
1.2524e-06
1.29342e-06
1.33285e-06
1.37023e-06
1.4052e-06
1.4372e-06
1.46558e-06
6.825e-07
7.07087e-07
7.3496e-07
7.64749e-07
7.96236e-07
8.29914e-07
8.64651e-07
8.99893e-07
9.35515e-07
9.7092e-07
1.00573e-06
1.03973e-06
1.07264e-06
1.10416e-06
1.13398e-06
1.16171e-06
1.18687e-06
1.20886e-06
5.45558e-07
5.65343e-07
5.87772e-07
6.11814e-07
6.3727e-07
6.64541e-07
6.9274e-07
7.21421e-07
7.50482e-07
7.79478e-07
8.08091e-07
8.36175e-07
8.63523e-07
8.89908e-07
9.15125e-07
9.38892e-07
9.60837e-07
9.80548e-07
4.36528e-07
4.52443e-07
4.70494e-07
4.89894e-07
5.10465e-07
5.32546e-07
5.55413e-07
5.78737e-07
6.0242e-07
6.26137e-07
6.49589e-07
6.72714e-07
6.95359e-07
7.17341e-07
7.38524e-07
7.58694e-07
7.77588e-07
7.9489e-07
3.49593e-07
3.62393e-07
3.76918e-07
3.92564e-07
4.0919e-07
4.27051e-07
4.45586e-07
4.64527e-07
4.83821e-07
5.03171e-07
5.22367e-07
5.41367e-07
5.60049e-07
5.78278e-07
5.95959e-07
6.12948e-07
6.29058e-07
6.4402e-07
6.57562e-07
2.80192e-07
2.90478e-07
3.02163e-07
3.14779e-07
3.28209e-07
3.42653e-07
3.57672e-07
3.73056e-07
3.88748e-07
4.04504e-07
4.20191e-07
4.35765e-07
4.51124e-07
4.66184e-07
4.80879e-07
4.951e-07
5.08699e-07
5.21495e-07
5.33268e-07
2.24717e-07
2.3298e-07
2.4238e-07
2.52546e-07
2.63391e-07
2.75071e-07
2.87233e-07
2.99718e-07
3.12454e-07
3.25285e-07
3.38088e-07
3.50826e-07
3.63426e-07
3.75823e-07
3.87985e-07
3.99818e-07
4.11216e-07
4.22048e-07
4.32152e-07
1.80324e-07
1.86963e-07
1.94522e-07
2.02708e-07
2.11465e-07
2.20904e-07
2.30747e-07
2.40865e-07
2.5121e-07
2.61648e-07
2.72082e-07
2.82476e-07
2.92787e-07
3.02967e-07
3.12996e-07
3.22795e-07
3.32295e-07
3.41392e-07
3.49965e-07
1.4477e-07
1.50101e-07
1.56174e-07
1.62766e-07
1.69834e-07
1.7746e-07
1.85425e-07
1.93622e-07
2.02022e-07
2.10499e-07
2.18984e-07
2.27461e-07
2.35886e-07
2.44226e-07
2.5246e-07
2.6054e-07
2.68418e-07
2.76009e-07
2.83214e-07
1.16272e-07
1.20548e-07
1.25423e-07
1.30733e-07
1.36433e-07
1.42594e-07
1.49035e-07
1.55678e-07
1.62486e-07
1.6937e-07
1.76272e-07
1.83174e-07
1.90044e-07
1.96859e-07
2.03603e-07
2.10245e-07
2.16744e-07
2.23036e-07
2.29047e-07
2.34682e-07
9.34108e-08
9.68383e-08
1.0075e-07
1.05025e-07
1.09621e-07
1.14596e-07
1.19804e-07
1.25185e-07
1.30706e-07
1.36293e-07
1.419e-07
1.47511e-07
1.53105e-07
1.58664e-07
1.64175e-07
1.69616e-07
1.74955e-07
1.80144e-07
1.85129e-07
1.89831e-07
7.50594e-08
7.78047e-08
8.09418e-08
8.43821e-08
8.80871e-08
9.21032e-08
9.63171e-08
1.00672e-07
1.05148e-07
1.09678e-07
1.14231e-07
1.1879e-07
1.2334e-07
1.27866e-07
1.32362e-07
1.36805e-07
1.41175e-07
1.45438e-07
1.49547e-07
1.5344e-07
6.03202e-08
6.25165e-08
6.50313e-08
6.77983e-08
7.0786e-08
7.4028e-08
7.74349e-08
8.0962e-08
8.45877e-08
8.82635e-08
9.19588e-08
9.5662e-08
9.93575e-08
1.03039e-07
1.06697e-07
1.10318e-07
1.13885e-07
1.17372e-07
1.2074e-07
1.23946e-07
4.84769e-08
5.02314e-08
5.2247e-08
5.44711e-08
5.68799e-08
5.94973e-08
6.22526e-08
6.5109e-08
6.80483e-08
7.10295e-08
7.40275e-08
7.70326e-08
8.00343e-08
8.30232e-08
8.59966e-08
8.89414e-08
9.18453e-08
9.46864e-08
9.74381e-08
1.00061e-07
3.89563e-08
4.03565e-08
4.19705e-08
4.37583e-08
4.56997e-08
4.78132e-08
5.00428e-08
5.23566e-08
5.474e-08
5.71575e-08
5.95904e-08
6.20301e-08
6.44662e-08
6.68919e-08
6.93051e-08
7.16955e-08
7.40537e-08
7.6363e-08
7.8601e-08
8.07371e-08
8.27329e-08
3.13002e-08
3.24167e-08
3.3708e-08
3.51453e-08
3.67098e-08
3.84174e-08
4.02217e-08
4.20974e-08
4.4031e-08
4.59932e-08
4.79676e-08
4.99479e-08
5.19237e-08
5.38917e-08
5.58487e-08
5.77871e-08
5.96984e-08
6.15696e-08
6.33835e-08
6.51156e-08
6.67354e-08
2.51422e-08
2.60314e-08
2.70641e-08
2.82191e-08
2.94805e-08
3.08606e-08
3.23219e-08
3.3844e-08
3.54137e-08
3.70066e-08
3.86101e-08
4.02174e-08
4.18208e-08
4.34169e-08
4.5003e-08
4.65729e-08
4.812e-08
4.96345e-08
5.11009e-08
5.25004e-08
5.38087e-08
2.01884e-08
2.08957e-08
2.17211e-08
2.2649e-08
2.36665e-08
2.47827e-08
2.59675e-08
2.72033e-08
2.84786e-08
2.97738e-08
3.10768e-08
3.23828e-08
3.36844e-08
3.49791e-08
3.62638e-08
3.75346e-08
3.87855e-08
4.00079e-08
4.11907e-08
4.23182e-08
4.33704e-08
1.6203e-08
1.67649e-08
1.74241e-08
1.81696e-08
1.8991e-08
1.98944e-08
2.08563e-08
2.18609e-08
2.28986e-08
2.39528e-08
2.5013e-08
2.60746e-08
2.71319e-08
2.8182e-08
2.92231e-08
3.02513e-08
3.12617e-08
3.22474e-08
3.31997e-08
3.41058e-08
3.49489e-08
1.29966e-08
1.34424e-08
1.39685e-08
1.45679e-08
1.52311e-08
1.59634e-08
1.67453e-08
1.75635e-08
1.84094e-08
1.92683e-08
2.01319e-08
2.09959e-08
2.18555e-08
2.27082e-08
2.35522e-08
2.43839e-08
2.51998e-08
2.59943e-08
2.67598e-08
2.74862e-08
2.81605e-08
2.87697e-08
1.04173e-08
1.07704e-08
1.11903e-08
1.16721e-08
1.22082e-08
1.28027e-08
1.34394e-08
1.4107e-08
1.47976e-08
1.54986e-08
1.62033e-08
1.69075e-08
1.76073e-08
1.83003e-08
1.89849e-08
1.96582e-08
2.03172e-08
2.09571e-08
2.15716e-08
2.2153e-08
2.26909e-08
2.31745e-08
8.34282e-09
8.62204e-09
8.95689e-09
9.34446e-09
9.77843e-09
1.02619e-08
1.07815e-08
1.13272e-08
1.1892e-08
1.24656e-08
1.30418e-08
1.36169e-08
1.41874e-08
1.47512e-08
1.5307e-08
1.58524e-08
1.63849e-08
1.69001e-08
1.73932e-08
1.78582e-08
1.82863e-08
1.86691e-08
6.67474e-09
6.89525e-09
7.16211e-09
7.47414e-09
7.82605e-09
8.21998e-09
8.64498e-09
9.09211e-09
9.5553e-09
1.00256e-08
1.04976e-08
1.09681e-08
1.14342e-08
1.18938e-08
1.23456e-08
1.27878e-08
1.32181e-08
1.36332e-08
1.40291e-08
1.44005e-08
1.47407e-08
1.50432e-08
5.33402e-09
5.50779e-09
5.72045e-09
5.97197e-09
6.25779e-09
6.57953e-09
6.92808e-09
7.29538e-09
7.67618e-09
8.06273e-09
8.45033e-09
8.83629e-09
9.21768e-09
9.59299e-09
9.96102e-09
1.03201e-08
1.06683e-08
1.1003e-08
1.13209e-08
1.16174e-08
1.18876e-08
1.21262e-08
4.25693e-09
4.39358e-09
4.56303e-09
4.766e-09
4.99867e-09
5.26225e-09
5.54879e-09
5.85141e-09
6.16535e-09
6.48402e-09
6.80321e-09
7.12048e-09
7.43333e-09
7.74046e-09
8.04087e-09
8.33298e-09
8.61514e-09
8.88529e-09
9.14056e-09
9.37748e-09
9.59203e-09
9.78001e-09
3.39214e-09
3.49939e-09
3.63437e-09
3.79846e-09
3.98842e-09
4.20491e-09
4.4412e-09
4.69125e-09
4.95088e-09
5.21432e-09
5.47788e-09
5.7394e-09
5.99676e-09
6.24876e-09
6.49443e-09
6.73251e-09
6.96162e-09
7.18004e-09
7.38534e-09
7.57489e-09
7.74523e-09
7.89316e-09
2.69833e-09
2.78231e-09
2.88984e-09
3.0228e-09
3.17834e-09
3.35665e-09
3.55213e-09
3.75942e-09
3.97476e-09
4.19317e-09
4.41145e-09
4.62772e-09
4.84005e-09
5.04732e-09
5.24876e-09
5.44336e-09
5.62998e-09
5.80696e-09
5.97248e-09
6.12431e-09
6.25969e-09
6.37614e-09
6.47108e-09
2.1422e-09
2.20779e-09
2.29346e-09
2.40152e-09
2.52922e-09
2.67655e-09
2.83883e-09
3.01118e-09
3.19038e-09
3.37202e-09
3.5534e-09
3.73283e-09
3.90852e-09
4.07952e-09
4.24526e-09
4.40486e-09
4.55728e-09
4.7012e-09
4.835e-09
4.95686e-09
5.06465e-09
5.15639e-09
5.23022e-09
1.6969e-09
1.74795e-09
1.81628e-09
1.90438e-09
2.00953e-09
2.13168e-09
2.26683e-09
2.41055e-09
2.56016e-09
2.71174e-09
2.86297e-09
3.01235e-09
3.15817e-09
3.29973e-09
3.43657e-09
3.56796e-09
3.69291e-09
3.81025e-09
3.91867e-09
4.01665e-09
4.10252e-09
4.17481e-09
4.23214e-09
1.34078e-09
1.38039e-09
1.43496e-09
1.50704e-09
1.59386e-09
1.69549e-09
1.80838e-09
1.92856e-09
2.05388e-09
2.18072e-09
2.30728e-09
2.43214e-09
2.55363e-09
2.67115e-09
2.78453e-09
2.89304e-09
2.99564e-09
3.09133e-09
3.1791e-09
3.25775e-09
3.32604e-09
3.38288e-09
3.42727e-09
1.05639e-09
1.08701e-09
1.13066e-09
1.18986e-09
1.26175e-09
1.34662e-09
1.44116e-09
1.5419e-09
1.64723e-09
1.75359e-09
1.85992e-09
1.96479e-09
2.0663e-09
2.16409e-09
2.25813e-09
2.34764e-09
2.43165e-09
2.50935e-09
2.58004e-09
2.64288e-09
2.69692e-09
2.74137e-09
2.77563e-09
8.29649e-10
8.53241e-10
8.88248e-10
9.37037e-10
9.96717e-10
1.06788e-09
1.14717e-09
1.23186e-09
1.32067e-09
1.40995e-09
1.49984e-09
1.58836e-09
1.67308e-09
1.75415e-09
1.83184e-09
1.90533e-09
1.97368e-09
2.03642e-09
2.09313e-09
2.14318e-09
2.18581e-09
2.22046e-09
2.24677e-09
6.49256e-10
6.674e-10
6.95542e-10
7.35875e-10
7.8552e-10
8.45411e-10
9.11851e-10
9.83338e-10
1.05834e-09
1.13324e-09
1.21019e-09
1.2852e-09
1.35511e-09
1.4215e-09
1.48532e-09
1.54545e-09
1.60098e-09
1.65168e-09
1.69735e-09
1.73742e-09
1.77124e-09
1.79836e-09
1.81854e-09
5.06134e-10
5.20074e-10
5.42756e-10
5.76167e-10
6.17531e-10
6.68073e-10
7.23484e-10
7.84213e-10
8.47354e-10
9.09944e-10
9.76815e-10
1.04034e-09
1.09697e-09
1.15081e-09
1.20342e-09
1.25309e-09
1.29869e-09
1.34023e-09
1.37754e-09
1.41001e-09
1.43709e-09
1.45838e-09
1.47379e-09
3.92894e-10
4.03587e-10
4.21946e-10
4.49674e-10
4.84276e-10
5.26977e-10
5.72848e-10
6.25057e-10
6.77242e-10
7.29279e-10
7.88381e-10
8.41416e-10
8.8645e-10
9.30718e-10
9.75267e-10
1.01718e-09
1.05532e-09
1.08998e-09
1.12094e-09
1.14758e-09
1.16941e-09
1.18618e-09
1.19792e-09
1.205e-09
3.03669e-10
3.11829e-10
3.26783e-10
3.49896e-10
3.7895e-10
4.15e-10
4.5285e-10
4.98492e-10
5.38924e-10
5.8386e-10
6.38691e-10
6.80724e-10
7.14448e-10
7.52154e-10
7.91562e-10
8.2753e-10
8.59603e-10
8.88691e-10
9.14572e-10
9.36537e-10
9.54157e-10
9.67366e-10
9.76326e-10
9.81335e-10
2.3467e-10
2.40851e-10
2.53075e-10
2.7227e-10
2.96544e-10
3.26557e-10
3.57621e-10
3.97389e-10
4.24795e-10
4.66933e-10
5.20804e-10
5.51819e-10
5.73832e-10
6.0746e-10
6.44371e-10
6.75953e-10
7.03054e-10
7.27655e-10
7.49473e-10
7.67655e-10
7.81894e-10
7.92295e-10
7.99125e-10
8.02901e-10
1.85702e-10
1.90373e-10
2.0025e-10
2.15672e-10
2.3531e-10
2.58845e-10
2.83128e-10
3.1482e-10
3.29758e-10
3.68822e-10
4.19578e-10
4.42278e-10
4.58319e-10
4.91643e-10
5.28776e-10
5.58964e-10
5.84041e-10
6.06778e-10
6.26932e-10
6.43578e-10
6.56482e-10
6.65703e-10
6.71626e-10
6.74755e-10
1.51024e-10
1.54551e-10
1.62284e-10
1.74221e-10
1.89417e-10
2.06553e-10
2.24507e-10
2.46331e-10
2.53943e-10
2.835e-10
3.27142e-10
3.46049e-10
3.63251e-10
3.96862e-10
4.33785e-10
4.64114e-10
4.89326e-10
5.12026e-10
5.32152e-10
5.48787e-10
5.61625e-10
5.70715e-10
5.76501e-10
5.7926e-10
1.22403e-10
1.25067e-10
1.31027e-10
1.40161e-10
1.51668e-10
1.63764e-10
1.7682e-10
1.90588e-10
1.94371e-10
2.135e-10
2.48573e-10
2.6549e-10
2.85381e-10
3.17416e-10
3.52125e-10
3.8187e-10
4.07061e-10
4.29516e-10
4.49324e-10
4.65687e-10
4.78214e-10
4.87011e-10
4.92548e-10
4.9527e-10
9.73506e-11
9.93526e-11
1.03883e-10
1.10767e-10
1.19271e-10
1.27573e-10
1.36943e-10
1.44832e-10
1.46546e-10
1.58358e-10
1.86125e-10
2.00673e-10
2.22231e-10
2.52045e-10
2.83603e-10
3.11711e-10
3.36114e-10
3.57725e-10
3.76644e-10
3.9231e-10
4.04292e-10
4.12661e-10
4.17753e-10
4.19927e-10
7.61989e-11
7.76947e-11
8.10745e-11
8.61595e-11
9.22147e-11
9.77165e-11
1.04167e-10
1.07899e-10
1.0845e-10
1.15129e-10
1.36815e-10
1.48777e-10
1.7085e-10
1.98309e-10
2.26435e-10
2.52219e-10
2.75255e-10
2.95654e-10
3.13373e-10
3.28006e-10
3.39207e-10
3.47075e-10
3.51996e-10
3.54453e-10
5.86341e-11
5.97383e-11
6.21767e-11
6.57983e-11
6.98651e-11
7.33554e-11
7.7442e-11
7.84661e-11
7.83747e-11
8.15716e-11
9.82351e-11
1.07869e-10
1.29286e-10
1.54221e-10
1.79014e-10
2.02227e-10
2.23567e-10
2.42605e-10
2.59061e-10
2.72529e-10
2.82595e-10
2.89146e-10
2.92328e-10
2.92681e-10
4.44232e-11
4.52115e-11
4.68425e-11
4.92101e-11
5.16466e-11
5.36847e-11
5.58352e-11
5.541e-11
5.4931e-11
5.59312e-11
6.8343e-11
7.61166e-11
9.59278e-11
1.18271e-10
1.40052e-10
1.60749e-10
1.8023e-10
1.97791e-10
2.13033e-10
2.25708e-10
2.35655e-10
2.42973e-10
2.48097e-10
2.51502e-10
3.32074e-11
3.37428e-11
3.469e-11
3.59588e-11
3.70495e-11
3.79352e-11
3.84762e-11
3.76004e-11
3.67553e-11
3.67173e-11
4.56689e-11
5.20767e-11
6.95908e-11
8.93367e-11
1.08474e-10
1.26919e-10
1.44664e-10
1.60659e-10
1.74027e-10
1.8429e-10
1.91128e-10
1.94314e-10
1.93941e-10
1.90946e-10
1.86902e-10
2.44955e-11
2.48477e-11
2.526e-11
2.56323e-11
2.56701e-11
2.55656e-11
2.48291e-11
2.40648e-11
2.26153e-11
2.27579e-11
2.91653e-11
3.44811e-11
4.94015e-11
6.66647e-11
8.33512e-11
9.96878e-11
1.16197e-10
1.3207e-10
1.46413e-10
1.58835e-10
1.69387e-10
1.78621e-10
1.87416e-10
1.9574e-10
2.01906e-10
1.78917e-11
1.80751e-11
1.80016e-11
1.76284e-11
1.69121e-11
1.60876e-11
1.47339e-11
1.43417e-11
1.22932e-11
1.38948e-11
1.80952e-11
2.20947e-11
3.44625e-11
4.96188e-11
6.42039e-11
7.81334e-11
9.1821e-11
1.04506e-10
1.15322e-10
1.23677e-10
1.289e-10
1.30481e-10
1.28807e-10
1.26172e-10
1.25476e-10
1.33883e-11
1.33145e-11
1.25928e-11
1.1393e-11
1.00312e-11
8.81293e-12
7.68038e-12
7.86881e-12
6.17293e-12
9.97842e-12
1.16769e-11
1.39177e-11
2.34395e-11
3.64058e-11
5.04532e-11
6.62375e-11
8.41857e-11
1.03461e-10
1.23336e-10
1.43978e-10
1.66488e-10
1.92729e-10
2.23549e-10
2.54608e-10
2.78135e-10
1.1028e-11
1.06486e-11
9.20975e-12
7.13411e-12
5.0868e-12
3.5367e-12
2.82001e-12
3.41709e-12
3.22212e-12
8.21737e-12
8.56129e-12
1.00968e-11
1.66772e-11
2.59987e-11
3.74329e-11
5.30647e-11
7.40638e-11
1.00077e-10
1.30348e-10
1.63909e-10
1.9916e-10
2.34175e-10
2.6753e-10
2.97129e-10
3.22648e-10
1.0014e-11
9.45934e-12
7.63195e-12
5.09064e-12
2.64837e-12
9.11946e-13
3.84215e-13
1.08811e-12
2.34283e-12
5.60327e-12
4.03483e-12
1.00265e-11
2.53337e-11
4.99263e-11
8.44167e-11
1.29831e-10
1.87262e-10
2.57051e-10
3.38045e-10
4.27601e-10
5.20104e-10
6.06534e-10
6.74494e-10
7.15944e-10
7.44694e-10
)
;

boundaryField
{
    inlet
    {
        type            calculated;
        value           nonuniform List<scalar> 
25
(
9.15291e-12
8.61275e-12
6.90451e-12
4.52816e-12
2.22599e-12
6.16527e-13
2.52759e-13
1.26857e-12
3.35878e-12
2.9486e-12
1.41472e-11
5.1064e-11
1.49384e-10
3.37397e-10
6.44034e-10
1.09979e-09
1.73758e-09
2.58729e-09
3.67157e-09
4.99932e-09
6.55604e-09
8.28423e-09
1.00812e-08
1.18004e-08
1.33567e-08
)
;
    }
    outlet
    {
        type            calculated;
        value           nonuniform List<scalar> 0();
    }
    walls
    {
        type            calculated;
        value           nonuniform List<scalar> 0();
    }
    frontAndBack
    {
        type            empty;
    }
    procBoundary4to0
    {
        type            processor;
        value           nonuniform List<scalar> 
72
(
0.000197878
0.00014264
0.000104216
7.69973e-05
5.74547e-05
4.32431e-05
3.27922e-05
2.5032e-05
1.92215e-05
1.48373e-05
1.15061e-05
8.9598e-06
7.00275e-06
5.49131e-06
4.31899e-06
3.40602e-06
2.69238e-06
2.13284e-06
1.6929e-06
1.34602e-06
1.07187e-06
8.54773e-07
8.54773e-07
6.59195e-07
5.26879e-07
4.21553e-07
3.37588e-07
2.70562e-07
2.16999e-07
1.74147e-07
1.39826e-07
1.12317e-07
9.02507e-08
7.2538e-08
5.83111e-08
4.68777e-08
3.76854e-08
3.02923e-08
2.43445e-08
1.95585e-08
1.57067e-08
1.26066e-08
1.01117e-08
8.1041e-09
6.48894e-09
5.18996e-09
4.14572e-09
3.30671e-09
2.63307e-09
2.09266e-09
1.65957e-09
1.31289e-09
1.03574e-09
8.14536e-10
6.38377e-10
4.98463e-10
3.87611e-10
3.00112e-10
2.32261e-10
1.83905e-10
1.49595e-10
1.21297e-10
9.65159e-11
7.55777e-11
5.816e-11
4.40332e-11
3.28515e-11
2.41406e-11
1.74975e-11
1.29105e-11
1.04634e-11
9.42346e-12
)
;
    }
    procBoundary4to5
    {
        type            processor;
        value           nonuniform List<scalar> 
95
(
0.000282834
0.000286066
0.000288093
0.000208087
0.000208087
0.000207798
0.000152074
0.000152074
0.000150548
0.000111886
0.000111886
8.41499e-05
8.41499e-05
6.40121e-05
4.98495e-05
4.98495e-05
3.8641e-05
3.8641e-05
3.01645e-05
2.39568e-05
2.39568e-05
1.8945e-05
1.51634e-05
1.51634e-05
1.21176e-05
9.75585e-06
9.75585e-06
7.86142e-06
6.35816e-06
5.14219e-06
5.14219e-06
4.18558e-06
3.39556e-06
2.75361e-06
2.75361e-06
2.25751e-06
1.83433e-06
1.48958e-06
1.48958e-06
1.22713e-06
9.97543e-07
8.10207e-07
8.10207e-07
6.69324e-07
5.43736e-07
4.41298e-07
3.57837e-07
2.8991e-07
2.8991e-07
2.39823e-07
1.9416e-07
1.57046e-07
1.26926e-07
1.02507e-07
1.02507e-07
8.45501e-08
6.82117e-08
5.50006e-08
4.43273e-08
3.57141e-08
3.57141e-08
2.92953e-08
2.35896e-08
1.89958e-08
1.52997e-08
1.23268e-08
9.93656e-09
8.01515e-09
8.01515e-09
6.54298e-09
5.28521e-09
4.27399e-09
3.45905e-09
2.79969e-09
2.26481e-09
1.83198e-09
1.48365e-09
1.48365e-09
1.20813e-09
9.83027e-10
8.04041e-10
6.7546e-10
5.79521e-10
4.95761e-10
4.19858e-10
3.55071e-10
2.91066e-10
2.53289e-10
2.53289e-10
1.82921e-10
2.05193e-10
1.27068e-10
2.92416e-10
3.48565e-10
7.47599e-10
)
;
    }
}


// ************************************************************************* //
