/*--------------------------------*- C++ -*----------------------------------*\
| =========                 |                                                 |
| \\      /  F ield         | OpenFOAM: The Open Source CFD Toolbox           |
|  \\    /   O peration     | Version:  2306                                  |
|   \\  /    A nd           | Website:  www.openfoam.com                      |
|    \\/     M anipulation  |                                                 |
\*---------------------------------------------------------------------------*/
FoamFile
{
    version     2.0;
    format      ascii;
    arch        "LSB;label=32;scalar=64";
    class       volScalarField;
    location    "375";
    object      turbulenceProperties:k;
}
// * * * * * * * * * * * * * * * * * * * * * * * * * * * * * * * * * * * * * //

dimensions      [0 2 -2 0 0 0 0];

internalField   nonuniform List<scalar> 
1340
(
0.000514661
0.000518558
0.000521574
0.000437368
0.000441291
0.000444604
0.000446726
0.000447602
0.000374184
0.000378012
0.000381421
0.000383981
0.000385645
0.00038629
0.000385606
0.000321878
0.000325518
0.000328871
0.000331603
0.000333689
0.000335033
0.000335354
0.000334554
0.00027823
0.000281642
0.000284863
0.000287628
0.000289947
0.000291709
0.000292682
0.000292794
0.000291968
0.000241513
0.000244684
0.000247716
0.000250423
0.000252831
0.00025481
0.000256185
0.000256897
0.000256865
0.000210424
0.000213344
0.000216168
0.000218772
0.000221169
0.000223247
0.00022486
0.000225959
0.000226473
0.000226294
0.00018394
0.000186609
0.000189226
0.00019169
0.000194018
0.00019611
0.000197845
0.000199174
0.000200041
0.000200355
0.000200062
0.000161255
0.000163684
0.000166101
0.000168402
0.00017063
0.000172679
0.000174452
0.00017591
0.000177005
0.000177655
0.000177821
0.000141727
0.000143941
0.000146153
0.000148296
0.000150398
0.000152375
0.000154129
0.000155643
0.000156869
0.000157737
0.000158211
0.000158251
0.000124849
0.000126861
0.000128884
0.000130865
0.000132835
0.000134709
0.000136416
0.000137933
0.00013922
0.00014022
0.000140906
0.000141239
0.000110208
0.000112031
0.000113877
0.0001157
0.000117534
0.000119295
0.000120929
0.000122415
0.000123717
0.000124791
0.00012561
0.000126143
0.00012635
9.74591e-05
9.91129e-05
0.000100791
0.000102467
0.000104163
0.000105807
0.000107354
0.000108785
0.000110071
0.00011117
0.000112066
0.00011273
0.000113128
8.63269e-05
8.78234e-05
8.93489e-05
9.08847e-05
9.24457e-05
9.39742e-05
9.54246e-05
9.67881e-05
9.80335e-05
9.91304e-05
0.000100062
0.000100807
0.000101335
0.000101626
7.65782e-05
7.7931e-05
7.9318e-05
8.07193e-05
8.21536e-05
8.35661e-05
8.49196e-05
8.62034e-05
8.73952e-05
8.84653e-05
8.94039e-05
9.01891e-05
9.08001e-05
9.12182e-05
6.80194e-05
6.92414e-05
7.0502e-05
7.17786e-05
7.30929e-05
7.43935e-05
7.56487e-05
7.68512e-05
7.79788e-05
7.90089e-05
7.99323e-05
8.07317e-05
8.13902e-05
8.18898e-05
6.04889e-05
6.15925e-05
6.27354e-05
6.38978e-05
6.50987e-05
6.62931e-05
6.74514e-05
6.85716e-05
6.96302e-05
7.06109e-05
7.15043e-05
7.22985e-05
7.29764e-05
7.35263e-05
7.39315e-05
5.38488e-05
5.48459e-05
5.58807e-05
5.69374e-05
5.80331e-05
5.91259e-05
6.01929e-05
6.12303e-05
6.22189e-05
6.31435e-05
6.39978e-05
6.47717e-05
6.54512e-05
6.60274e-05
6.64846e-05
4.79828e-05
4.88842e-05
4.98198e-05
5.07796e-05
5.1778e-05
5.27755e-05
5.37559e-05
5.4712e-05
5.56308e-05
5.64964e-05
5.73056e-05
5.80481e-05
5.87157e-05
5.92986e-05
5.97842e-05
4.2793e-05
4.3606e-05
4.44524e-05
4.53229e-05
4.62304e-05
4.71405e-05
4.80378e-05
4.89169e-05
4.9766e-05
5.05723e-05
5.13322e-05
5.2039e-05
5.26844e-05
5.3261e-05
5.37592e-05
5.41672e-05
3.81939e-05
3.89267e-05
3.96919e-05
4.04809e-05
4.13043e-05
4.21336e-05
4.2953e-05
4.37595e-05
4.45415e-05
4.52891e-05
4.59987e-05
4.66652e-05
4.72811e-05
4.78421e-05
4.83383e-05
4.87621e-05
3.41122e-05
3.47729e-05
3.54638e-05
3.61782e-05
3.69254e-05
3.7679e-05
3.84262e-05
3.91645e-05
3.98825e-05
4.05725e-05
4.12315e-05
4.18553e-05
4.24381e-05
4.29762e-05
4.34628e-05
4.38899e-05
2.99508e-05
3.04856e-05
3.10806e-05
3.17042e-05
3.23503e-05
3.30274e-05
3.37116e-05
3.43917e-05
3.50658e-05
3.57232e-05
3.63579e-05
3.69675e-05
3.7548e-05
3.80956e-05
3.86067e-05
3.90759e-05
3.94967e-05
3.9861e-05
2.6778e-05
2.72592e-05
2.77947e-05
2.83575e-05
2.89414e-05
2.95542e-05
3.01747e-05
3.07931e-05
3.14072e-05
3.20082e-05
3.25904e-05
3.31519e-05
3.36896e-05
3.42005e-05
3.46817e-05
3.51291e-05
3.55373e-05
3.59e-05
2.39532e-05
2.43859e-05
2.48676e-05
2.53752e-05
2.59024e-05
2.64568e-05
2.70188e-05
2.75803e-05
2.8139e-05
2.86876e-05
2.92199e-05
2.97355e-05
3.02318e-05
3.07059e-05
3.1156e-05
3.15786e-05
3.19694e-05
3.23231e-05
2.14358e-05
2.18247e-05
2.22577e-05
2.2715e-05
2.3191e-05
2.36918e-05
2.42005e-05
2.47095e-05
2.52174e-05
2.57168e-05
2.62028e-05
2.66751e-05
2.71314e-05
2.75694e-05
2.79878e-05
2.83839e-05
2.87545e-05
2.90944e-05
2.93987e-05
1.91904e-05
1.95395e-05
1.99287e-05
2.03404e-05
2.07698e-05
2.1222e-05
2.16821e-05
2.21435e-05
2.26044e-05
2.30579e-05
2.35008e-05
2.39323e-05
2.43505e-05
2.47536e-05
2.51407e-05
2.55098e-05
2.58577e-05
2.61809e-05
2.64748e-05
1.7186e-05
1.74991e-05
1.78487e-05
1.82191e-05
1.86062e-05
1.90143e-05
1.94301e-05
1.98479e-05
2.02652e-05
2.06772e-05
2.10802e-05
2.14736e-05
2.18558e-05
2.22255e-05
2.25823e-05
2.2924e-05
2.32485e-05
2.35527e-05
2.3833e-05
1.53952e-05
1.5676e-05
1.59897e-05
1.63227e-05
1.66716e-05
1.70396e-05
1.74151e-05
1.77928e-05
1.81709e-05
1.85446e-05
1.89108e-05
1.92686e-05
1.96171e-05
1.99553e-05
2.02829e-05
2.05979e-05
2.08988e-05
2.1183e-05
2.14473e-05
1.37942e-05
1.40459e-05
1.43272e-05
1.46265e-05
1.49406e-05
1.52724e-05
1.56114e-05
1.59528e-05
1.62951e-05
1.66335e-05
1.69655e-05
1.72907e-05
1.7608e-05
1.79166e-05
1.82161e-05
1.85054e-05
1.8783e-05
1.90468e-05
1.92938e-05
1.23622e-05
1.25874e-05
1.28394e-05
1.31084e-05
1.33911e-05
1.36901e-05
1.39959e-05
1.43045e-05
1.46139e-05
1.49203e-05
1.52212e-05
1.55164e-05
1.58047e-05
1.60856e-05
1.63588e-05
1.66235e-05
1.68785e-05
1.71218e-05
1.73509e-05
1.75631e-05
1.10804e-05
1.12819e-05
1.15075e-05
1.17491e-05
1.20034e-05
1.22728e-05
1.25486e-05
1.28273e-05
1.31071e-05
1.33843e-05
1.36569e-05
1.39243e-05
1.41858e-05
1.44411e-05
1.46897e-05
1.49312e-05
1.51643e-05
1.53876e-05
1.5599e-05
1.57959e-05
9.93251e-06
1.01125e-05
1.03144e-05
1.05313e-05
1.076e-05
1.10026e-05
1.12515e-05
1.15031e-05
1.1756e-05
1.20066e-05
1.22532e-05
1.24954e-05
1.27325e-05
1.2964e-05
1.31899e-05
1.34095e-05
1.36219e-05
1.38261e-05
1.40201e-05
1.42014e-05
8.90406e-06
9.06471e-06
9.24523e-06
9.43988e-06
9.64564e-06
9.86406e-06
1.00885e-05
1.03157e-05
1.05442e-05
1.07708e-05
1.0994e-05
1.12132e-05
1.14277e-05
1.16375e-05
1.18423e-05
1.20416e-05
1.22347e-05
1.24206e-05
1.25975e-05
1.27637e-05
7.98222e-06
8.12539e-06
8.28681e-06
8.46136e-06
8.64643e-06
8.84313e-06
9.04559e-06
9.25079e-06
9.4573e-06
9.66225e-06
9.86405e-06
1.00623e-05
1.02565e-05
1.04462e-05
1.06316e-05
1.08122e-05
1.09872e-05
1.11559e-05
1.13168e-05
1.14681e-05
7.15558e-06
7.28305e-06
7.42726e-06
7.5838e-06
7.75022e-06
7.92741e-06
8.11014e-06
8.29552e-06
8.48224e-06
8.66753e-06
8.85008e-06
9.02943e-06
9.20504e-06
9.37662e-06
9.54426e-06
9.70747e-06
9.86583e-06
1.00185e-05
1.01642e-05
1.03014e-05
1.0428e-05
6.41401e-06
6.5274e-06
6.65615e-06
6.79658e-06
6.94621e-06
7.10593e-06
7.2709e-06
7.4385e-06
7.60743e-06
7.77509e-06
7.94023e-06
8.10247e-06
8.26118e-06
8.41629e-06
8.56774e-06
8.71516e-06
8.85812e-06
8.99588e-06
9.12744e-06
9.25131e-06
9.36568e-06
5.74854e-06
5.84931e-06
5.96421e-06
6.09015e-06
6.22479e-06
6.36882e-06
6.51787e-06
6.66959e-06
6.8225e-06
6.97426e-06
7.12376e-06
7.27053e-06
7.41405e-06
7.55421e-06
7.69096e-06
7.82396e-06
7.95285e-06
8.07704e-06
8.19549e-06
8.30696e-06
8.40983e-06
5.15118e-06
5.24064e-06
5.34314e-06
5.45608e-06
5.5773e-06
5.70731e-06
5.84215e-06
5.97956e-06
6.11811e-06
6.25569e-06
6.39111e-06
6.52403e-06
6.65386e-06
6.78053e-06
6.90393e-06
7.02386e-06
7.13994e-06
7.25159e-06
7.35801e-06
7.45803e-06
7.55019e-06
4.6148e-06
4.69414e-06
4.78554e-06
4.88685e-06
4.99609e-06
5.11355e-06
5.23572e-06
5.36033e-06
5.48609e-06
5.61094e-06
5.73378e-06
5.8542e-06
5.97172e-06
6.08618e-06
6.19758e-06
6.30567e-06
6.41012e-06
6.5104e-06
6.60583e-06
6.69537e-06
6.77763e-06
4.13305e-06
4.20333e-06
4.2848e-06
4.37577e-06
4.47427e-06
4.58058e-06
4.69141e-06
4.80466e-06
4.919e-06
5.03245e-06
5.144e-06
5.25322e-06
5.35969e-06
5.46324e-06
5.56384e-06
5.66124e-06
5.75518e-06
5.84519e-06
5.93064e-06
6.0106e-06
6.08388e-06
6.14934e-06
3.70027e-06
3.76245e-06
3.83509e-06
3.9168e-06
4.00573e-06
4.10211e-06
4.20289e-06
4.306e-06
4.41014e-06
4.51341e-06
4.61488e-06
4.7141e-06
4.81067e-06
4.90443e-06
4.99532e-06
5.08312e-06
5.16763e-06
5.24838e-06
5.32478e-06
5.39606e-06
5.46118e-06
5.51907e-06
3.3114e-06
3.36636e-06
3.43111e-06
3.50456e-06
3.58501e-06
3.67257e-06
3.76441e-06
3.8585e-06
3.95353e-06
4.04776e-06
4.14025e-06
4.23055e-06
4.31826e-06
4.40324e-06
4.48543e-06
4.56465e-06
4.64068e-06
4.71308e-06
4.78134e-06
4.84484e-06
4.90256e-06
4.95361e-06
2.96191e-06
3.01044e-06
3.06814e-06
3.13427e-06
3.20721e-06
3.28694e-06
3.37084e-06
3.45692e-06
3.54388e-06
3.63005e-06
3.71451e-06
3.79686e-06
3.87668e-06
3.95383e-06
4.02824e-06
4.09975e-06
4.16816e-06
4.2331e-06
4.29412e-06
4.35059e-06
4.40169e-06
4.44663e-06
2.64778e-06
2.69056e-06
2.74202e-06
2.80165e-06
2.86791e-06
2.94072e-06
3.01761e-06
3.09657e-06
3.17636e-06
3.25535e-06
3.33268e-06
3.40794e-06
3.48071e-06
3.55087e-06
3.61835e-06
3.68299e-06
3.7446e-06
3.8029e-06
3.85744e-06
3.90764e-06
3.95281e-06
3.99229e-06
2.36539e-06
2.40305e-06
2.44896e-06
2.50283e-06
2.5632e-06
2.62991e-06
2.70057e-06
2.77323e-06
2.84666e-06
2.9193e-06
2.99029e-06
3.05923e-06
3.12571e-06
3.18963e-06
3.25094e-06
3.30947e-06
3.36503e-06
3.41739e-06
3.46613e-06
3.51077e-06
3.5507e-06
3.58533e-06
2.1115e-06
2.14462e-06
2.18559e-06
2.23439e-06
2.28958e-06
2.3509e-06
2.41605e-06
2.48314e-06
2.55092e-06
2.61791e-06
2.68326e-06
2.74656e-06
2.80747e-06
2.86585e-06
2.92165e-06
2.97472e-06
3.02491e-06
3.072e-06
3.11561e-06
3.15534e-06
3.19063e-06
3.22095e-06
1.88322e-06
1.9123e-06
1.94891e-06
1.99324e-06
2.04388e-06
2.10043e-06
2.16073e-06
2.22288e-06
2.28566e-06
2.34762e-06
2.40795e-06
2.46626e-06
2.52221e-06
2.57565e-06
2.62654e-06
2.67479e-06
2.72026e-06
2.76269e-06
2.80179e-06
2.83718e-06
2.86837e-06
2.89492e-06
2.9164e-06
1.67797e-06
1.70346e-06
1.7362e-06
1.77663e-06
1.82326e-06
1.87561e-06
1.93163e-06
1.98941e-06
2.04775e-06
2.10523e-06
2.16111e-06
2.215e-06
2.26653e-06
2.31558e-06
2.36215e-06
2.40615e-06
2.44743e-06
2.48577e-06
2.5209e-06
2.55247e-06
2.58007e-06
2.60334e-06
2.62191e-06
1.49342e-06
1.51572e-06
1.54506e-06
1.58209e-06
1.62518e-06
1.67384e-06
1.72609e-06
1.77997e-06
1.83437e-06
1.8879e-06
1.93983e-06
1.98979e-06
2.03738e-06
2.08255e-06
2.12529e-06
2.16554e-06
2.20313e-06
2.23786e-06
2.26948e-06
2.29767e-06
2.32211e-06
2.34248e-06
2.35851e-06
1.32749e-06
1.34696e-06
1.37332e-06
1.40739e-06
1.44737e-06
1.4928e-06
1.5417e-06
1.5921e-06
1.64302e-06
1.69299e-06
1.74142e-06
1.78792e-06
1.83203e-06
1.87372e-06
1.91307e-06
1.94999e-06
1.98427e-06
2.01571e-06
2.04412e-06
2.06926e-06
2.09083e-06
2.10863e-06
2.12242e-06
1.17832e-06
1.19528e-06
1.21904e-06
1.25055e-06
1.28777e-06
1.33038e-06
1.37629e-06
1.42358e-06
1.4714e-06
1.51816e-06
1.56351e-06
1.60698e-06
1.64797e-06
1.68652e-06
1.72277e-06
1.75659e-06
1.78774e-06
1.81608e-06
1.84148e-06
1.86378e-06
1.88273e-06
1.89819e-06
1.91001e-06
1.04424e-06
1.05898e-06
1.08049e-06
1.10976e-06
1.14456e-06
1.18472e-06
1.22791e-06
1.27243e-06
1.3175e-06
1.3613e-06
1.40403e-06
1.44486e-06
1.4829e-06
1.5184e-06
1.55166e-06
1.58248e-06
1.61061e-06
1.63601e-06
1.65864e-06
1.67835e-06
1.69496e-06
1.70835e-06
1.71844e-06
9.2376e-07
9.36579e-07
9.56122e-07
9.83454e-07
1.01609e-06
1.05411e-06
1.09475e-06
1.13685e-06
1.17941e-06
1.22043e-06
1.26118e-06
1.29968e-06
1.33456e-06
1.36687e-06
1.39721e-06
1.42521e-06
1.45059e-06
1.47338e-06
1.49361e-06
1.51114e-06
1.52578e-06
1.53741e-06
1.54602e-06
8.15611e-07
8.26767e-07
8.44605e-07
8.70213e-07
9.00909e-07
9.37051e-07
9.75137e-07
1.01524e-06
1.05532e-06
1.0936e-06
1.13307e-06
1.16933e-06
1.20074e-06
1.22985e-06
1.25765e-06
1.28334e-06
1.30648e-06
1.32721e-06
1.34556e-06
1.36133e-06
1.37433e-06
1.38448e-06
1.39178e-06
7.18601e-07
7.28314e-07
7.44696e-07
7.68776e-07
7.97806e-07
8.32236e-07
8.67702e-07
9.0638e-07
9.43458e-07
9.79032e-07
1.01793e-06
1.05161e-06
1.07939e-06
1.10601e-06
1.13217e-06
1.15624e-06
1.17772e-06
1.1969e-06
1.21378e-06
1.22812e-06
1.23975e-06
1.24861e-06
1.25477e-06
1.25847e-06
6.31756e-07
6.40189e-07
6.5536e-07
6.7814e-07
7.05734e-07
7.3854e-07
7.71484e-07
8.09429e-07
8.41614e-07
8.75999e-07
9.16209e-07
9.45876e-07
9.69022e-07
9.94263e-07
1.01998e-06
1.04289e-06
1.06291e-06
1.08074e-06
1.09637e-06
1.10946e-06
1.11984e-06
1.12757e-06
1.13278e-06
1.13568e-06
5.55363e-07
5.6263e-07
5.76732e-07
5.98204e-07
6.24301e-07
6.55132e-07
6.85583e-07
7.22698e-07
7.47202e-07
7.83385e-07
8.27341e-07
8.5162e-07
8.68439e-07
8.93522e-07
9.20268e-07
9.4255e-07
9.61259e-07
9.77933e-07
9.92485e-07
1.00445e-06
1.01372e-06
1.02045e-06
1.02483e-06
1.02725e-06
4.94034e-07
5.00209e-07
5.13021e-07
5.32409e-07
5.56121e-07
5.83268e-07
6.10014e-07
6.43248e-07
6.58332e-07
6.96234e-07
7.42596e-07
7.62419e-07
7.76121e-07
8.03841e-07
8.33644e-07
8.5711e-07
8.76126e-07
8.93017e-07
9.07726e-07
9.19698e-07
9.28872e-07
9.35373e-07
9.39526e-07
9.41713e-07
4.45523e-07
4.50696e-07
4.61834e-07
4.78518e-07
4.98951e-07
5.2103e-07
5.43204e-07
5.68992e-07
5.77716e-07
6.1041e-07
6.55711e-07
6.74393e-07
6.90952e-07
7.2221e-07
7.55059e-07
7.81009e-07
8.01941e-07
8.20331e-07
8.36298e-07
8.49268e-07
8.59145e-07
8.6607e-07
8.70449e-07
8.7253e-07
4.01091e-07
4.05433e-07
4.14982e-07
4.29201e-07
4.46472e-07
4.63934e-07
4.82072e-07
5.00488e-07
5.05429e-07
5.29716e-07
5.7157e-07
5.907e-07
6.12428e-07
6.45887e-07
6.80284e-07
7.08435e-07
7.31428e-07
7.51331e-07
7.6846e-07
7.82328e-07
7.92781e-07
8.00039e-07
8.04574e-07
8.06795e-07
3.57698e-07
3.61357e-07
3.69504e-07
3.81551e-07
3.95926e-07
4.09474e-07
4.24244e-07
4.36291e-07
4.38865e-07
4.56208e-07
4.94588e-07
5.13553e-07
5.40435e-07
5.75546e-07
6.10515e-07
6.40054e-07
6.64636e-07
6.85669e-07
7.03568e-07
7.1805e-07
7.28933e-07
7.3644e-07
7.4097e-07
7.42896e-07
3.16461e-07
3.19552e-07
3.26429e-07
3.3651e-07
3.48133e-07
3.58368e-07
3.70007e-07
3.76575e-07
3.77535e-07
3.88985e-07
4.24039e-07
4.42188e-07
4.73857e-07
5.10517e-07
5.45521e-07
5.75742e-07
6.0146e-07
6.23349e-07
6.41756e-07
6.56568e-07
6.67685e-07
6.75384e-07
6.80155e-07
6.82526e-07
2.77601e-07
2.80202e-07
2.85864e-07
2.94071e-07
3.03022e-07
3.10499e-07
3.1903e-07
3.21131e-07
3.20944e-07
3.27423e-07
3.59312e-07
3.76519e-07
4.12206e-07
4.50205e-07
4.85044e-07
5.15535e-07
5.42054e-07
5.64662e-07
5.83499e-07
5.98474e-07
6.09426e-07
6.16449e-07
6.19832e-07
6.20206e-07
2.41629e-07
2.43764e-07
2.48122e-07
2.54315e-07
2.60534e-07
2.65625e-07
2.70892e-07
2.69858e-07
2.68688e-07
2.71122e-07
2.99699e-07
3.16285e-07
3.55067e-07
3.94255e-07
4.29027e-07
4.59635e-07
4.8669e-07
5.0985e-07
5.29131e-07
5.44644e-07
5.56516e-07
5.65092e-07
5.71019e-07
5.74924e-07
2.08911e-07
2.10588e-07
2.13523e-07
2.17393e-07
2.20665e-07
2.23287e-07
2.24873e-07
2.22298e-07
2.19785e-07
2.19671e-07
2.4499e-07
2.61614e-07
3.02423e-07
3.42653e-07
3.77575e-07
4.08416e-07
4.36034e-07
4.59508e-07
4.78243e-07
4.92144e-07
5.01191e-07
5.05352e-07
5.04866e-07
5.00952e-07
4.9562e-07
1.79426e-07
1.80711e-07
1.82205e-07
1.83542e-07
1.83677e-07
1.83303e-07
1.80643e-07
1.7784e-07
1.724e-07
1.72944e-07
1.95782e-07
2.12878e-07
2.54806e-07
2.95998e-07
3.30976e-07
3.61962e-07
3.90786e-07
4.16624e-07
4.38665e-07
4.56895e-07
4.71827e-07
4.84517e-07
4.96302e-07
5.07204e-07
5.15131e-07
1.53344e-07
1.54128e-07
1.53814e-07
1.52212e-07
1.49087e-07
1.45407e-07
1.39155e-07
1.3729e-07
1.27107e-07
1.35134e-07
1.54213e-07
1.70406e-07
2.12821e-07
2.55367e-07
2.90484e-07
3.20451e-07
3.47388e-07
3.70607e-07
3.89314e-07
4.03171e-07
4.11595e-07
4.14113e-07
4.11448e-07
4.07217e-07
4.06094e-07
1.32649e-07
1.32283e-07
1.28647e-07
1.22366e-07
1.14819e-07
1.07621e-07
1.00468e-07
1.01693e-07
9.00706e-08
1.14517e-07
1.23881e-07
1.35246e-07
1.75516e-07
2.1874e-07
2.57506e-07
2.9505e-07
3.32632e-07
3.68752e-07
4.02615e-07
4.35005e-07
4.67776e-07
5.03293e-07
5.42043e-07
5.78474e-07
6.0461e-07
1.20389e-07
1.183e-07
1.10018e-07
9.68297e-08
8.17638e-08
6.81768e-08
6.08783e-08
6.70139e-08
6.50742e-08
1.03921e-07
1.06074e-07
1.15195e-07
1.48048e-07
1.8485e-07
2.21804e-07
2.64087e-07
3.11995e-07
3.62671e-07
4.13901e-07
4.64139e-07
5.11619e-07
5.54775e-07
5.92971e-07
6.24914e-07
6.51198e-07
1.14721e-07
1.11498e-07
1.00151e-07
8.17944e-08
5.89966e-08
3.46196e-08
2.24711e-08
3.78158e-08
5.54891e-08
8.5814e-08
7.282e-08
1.14793e-07
1.8247e-07
2.56158e-07
3.33088e-07
4.13081e-07
4.96105e-07
5.81245e-07
6.66558e-07
7.49672e-07
8.26795e-07
8.92856e-07
9.41551e-07
9.70052e-07
9.89339e-07
)
;

boundaryField
{
    inlet
    {
        type            calculated;
        value           nonuniform List<scalar> 
25
(
1.14262e-07
1.1084e-07
9.92408e-08
8.03683e-08
5.63489e-08
2.96551e-08
1.89879e-08
4.25385e-08
6.92173e-08
6.48533e-08
1.36356e-07
2.59058e-07
4.43091e-07
6.65907e-07
9.20024e-07
1.20227e-06
1.5112e-06
1.84405e-06
2.19673e-06
2.56335e-06
2.93544e-06
3.29974e-06
3.64008e-06
3.93826e-06
4.18993e-06
)
;
    }
    outlet
    {
        type            calculated;
        value           nonuniform List<scalar> 0();
    }
    walls
    {
        type            calculated;
        value           nonuniform List<scalar> 0();
    }
    frontAndBack
    {
        type            empty;
    }
    procBoundary4to0
    {
        type            processor;
        value           nonuniform List<scalar> 
72
(
0.000509988
0.000432993
0.000370108
0.000318125
0.000274804
0.000238407
0.000207608
0.000181387
0.000158947
0.000139648
0.000122977
0.00010852
9.59385e-05
8.49564e-05
7.53441e-05
6.69086e-05
5.94875e-05
5.29465e-05
4.71708e-05
4.20613e-05
3.75344e-05
3.35184e-05
3.35184e-05
2.9435e-05
2.63156e-05
2.35387e-05
2.10645e-05
1.88578e-05
1.68883e-05
1.51291e-05
1.35566e-05
1.21501e-05
1.08914e-05
9.76425e-06
8.75451e-06
7.84945e-06
7.03789e-06
6.30989e-06
5.65661e-06
5.07018e-06
4.54358e-06
4.07056e-06
3.64558e-06
3.26367e-06
2.92039e-06
2.61178e-06
2.33428e-06
2.08474e-06
1.86031e-06
1.65845e-06
1.4769e-06
1.31361e-06
1.16675e-06
1.03468e-06
9.15987e-07
8.09406e-07
7.13752e-07
6.28045e-07
5.52506e-07
4.91638e-07
4.43411e-07
3.99275e-07
3.5616e-07
3.15168e-07
2.76476e-07
2.40566e-07
2.07788e-07
1.78121e-07
1.51646e-07
1.3026e-07
1.17267e-07
1.11287e-07
)
;
    }
    procBoundary4to5
    {
        type            processor;
        value           nonuniform List<scalar> 
95
(
0.000609714
0.000613188
0.000615357
0.000522977
0.000522977
0.000522614
0.000447083
0.000447083
0.000444834
0.000383483
0.000383483
0.000332572
0.000332572
0.000290061
0.00025597
0.00025597
0.000225363
0.000225363
0.000199116
0.000177449
0.000177449
0.0001578
0.000141175
0.000141175
0.000126202
0.000113238
0.000113238
0.000101651
9.14165e-05
8.22117e-05
8.22117e-05
7.41715e-05
6.68059e-05
6.01603e-05
6.01603e-05
5.44722e-05
4.9102e-05
4.42478e-05
4.42478e-05
4.01612e-05
3.62098e-05
3.26331e-05
3.26331e-05
2.96605e-05
2.67334e-05
2.40839e-05
2.16872e-05
1.95206e-05
1.95206e-05
1.77544e-05
1.5975e-05
1.43673e-05
1.29163e-05
1.16075e-05
1.16075e-05
1.05419e-05
9.46871e-06
8.50247e-06
7.63303e-06
6.85142e-06
6.85142e-06
6.20526e-06
5.56828e-06
4.99678e-06
4.48437e-06
4.02519e-06
3.61391e-06
3.24575e-06
3.24575e-06
2.93256e-06
2.63566e-06
2.37014e-06
2.13224e-06
1.91828e-06
1.72532e-06
1.55172e-06
1.39643e-06
1.39643e-06
1.2601e-06
1.13666e-06
1.02798e-06
9.42204e-07
8.72727e-07
8.07195e-07
7.42834e-07
6.8312e-07
6.18493e-07
5.76963e-07
5.76963e-07
4.90313e-07
5.19307e-07
4.08661e-07
6.19938e-07
6.76848e-07
9.91268e-07
)
;
    }
}


// ************************************************************************* //
