/*--------------------------------*- C++ -*----------------------------------*\
| =========                 |                                                 |
| \\      /  F ield         | OpenFOAM: The Open Source CFD Toolbox           |
|  \\    /   O peration     | Version:  2306                                  |
|   \\  /    A nd           | Website:  www.openfoam.com                      |
|    \\/     M anipulation  |                                                 |
\*---------------------------------------------------------------------------*/
FoamFile
{
    version     2.0;
    format      ascii;
    arch        "LSB;label=32;scalar=64";
    class       volScalarField;
    location    "525";
    object      turbulenceProperties:epsilon;
}
// * * * * * * * * * * * * * * * * * * * * * * * * * * * * * * * * * * * * * //

dimensions      [0 2 -3 0 0 0 0];

internalField   nonuniform List<scalar> 
1340
(
978.922
912.872
836.941
619.391
1.34803
1.59537
2.20743
4.09714
0.110647
0.177007
0.222096
0.54991
0.000864867
0.00493389
0.0189512
0.139797
3.45512e-05
7.74485e-05
0.000256355
0.0150671
2.2952e-06
9.62166e-06
5.14009e-05
0.00113114
3.18713e-08
6.60235e-10
0
0.000219499
2.62514e-07
1.39395e-07
1.19639e-09
0
4.56771e-07
5.26645e-07
6.29683e-07
5.34505e-10
3.23731e-07
3.14783e-07
8.88786e-07
1.87374e-07
3.31744e-07
3.29124e-07
6.61746e-07
1.05592e-06
2.85489e-07
2.91927e-07
4.82779e-07
1.24106e-06
2.64162e-07
2.71713e-07
4.08915e-07
1.04065e-06
2.35569e-07
2.39778e-07
3.50383e-07
8.41201e-07
2.1125e-07
2.12745e-07
2.99858e-07
6.84103e-07
1.86641e-07
1.85899e-07
2.5354e-07
5.55899e-07
1.63645e-07
1.61123e-07
2.12873e-07
4.49006e-07
1.41812e-07
1.379e-07
1.77258e-07
3.60087e-07
1.21487e-07
1.16548e-07
1.46252e-07
2.86615e-07
1.02734e-07
9.70954e-08
1.19504e-07
2.26651e-07
8.56557e-08
7.96131e-08
9.65344e-08
1.77941e-07
7.03004e-08
6.41384e-08
7.70081e-08
1.3872e-07
5.66991e-08
5.06348e-08
6.05707e-08
1.07427e-07
4.48487e-08
3.90654e-08
4.68672e-08
8.25965e-08
3.47019e-08
2.93316e-08
3.56178e-08
6.30991e-08
2.61895e-08
2.13197e-08
2.6518e-08
4.78959e-08
1.92116e-08
1.48896e-08
1.92973e-08
3.61633e-08
1.36447e-08
9.87932e-09
1.36919e-08
2.71943e-08
9.34587e-09
6.11902e-09
9.46157e-09
2.04184e-08
6.16157e-09
3.43278e-09
6.37947e-09
1.53701e-08
3.92984e-09
1.64206e-09
4.23818e-09
1.1667e-08
2.48927e-09
5.79855e-10
2.84782e-09
9.0036e-09
1.6831e-09
8.70847e-11
2.04081e-09
7.13275e-09
1.36402e-09
1.98245e-11
1.67102e-09
5.85676e-09
1.39856e-09
2.51285e-10
1.61254e-09
5.01744e-09
1.66977e-09
6.73306e-10
1.76084e-09
4.49072e-09
2.07916e-09
1.19656e-09
2.03134e-09
4.17919e-09
2.54679e-09
1.75075e-09
2.3577e-09
4.00776e-09
4.81731e-09
3.01129e-09
2.28261e-09
2.69013e-09
3.91978e-09
4.9636e-09
3.4284e-09
2.7548e-09
2.99311e-09
3.87329e-09
5.07473e-09
3.76918e-09
3.14392e-09
3.24363e-09
3.83889e-09
5.12782e-09
4.01786e-09
3.43759e-09
3.42828e-09
3.79641e-09
5.11163e-09
4.16913e-09
3.633e-09
3.54221e-09
3.73395e-09
5.02436e-09
4.22565e-09
3.73377e-09
3.58603e-09
3.64521e-09
4.87098e-09
4.196e-09
3.74868e-09
3.56464e-09
3.52802e-09
4.66063e-09
4.09225e-09
3.68966e-09
3.48651e-09
3.38421e-09
4.40484e-09
3.9282e-09
3.56959e-09
3.36071e-09
3.21699e-09
4.11617e-09
3.71827e-09
3.40219e-09
3.1974e-09
3.03085e-09
3.80628e-09
3.47577e-09
3.20021e-09
3.00653e-09
2.83128e-09
3.48582e-09
3.21261e-09
2.97477e-09
2.79671e-09
2.6229e-09
3.1634e-09
2.9389e-09
2.73569e-09
2.57572e-09
2.41037e-09
2.84577e-09
2.66231e-09
2.49054e-09
2.34973e-09
2.19737e-09
2.69391e-09
2.53797e-09
2.38907e-09
2.2454e-09
2.1237e-09
1.98695e-09
2.36714e-09
2.2438e-09
2.12387e-09
2.00499e-09
1.90169e-09
1.78168e-09
2.06355e-09
1.96658e-09
1.87074e-09
1.7735e-09
1.68729e-09
1.58395e-09
1.78508e-09
1.70935e-09
1.63343e-09
1.55472e-09
1.48394e-09
1.39641e-09
1.53373e-09
1.47495e-09
1.41529e-09
1.35222e-09
1.29495e-09
1.22177e-09
1.3108e-09
1.26543e-09
1.21884e-09
1.16869e-09
1.12289e-09
1.06231e-09
1.11603e-09
1.08111e-09
1.0449e-09
1.00526e-09
9.68988e-10
9.19293e-10
9.47072e-10
9.20264e-10
8.92218e-10
8.61072e-10
8.32596e-10
7.92234e-10
8.00099e-10
7.79562e-10
7.5796e-10
7.3368e-10
7.11572e-10
6.79241e-10
6.85759e-10
6.70952e-10
6.55289e-10
6.38787e-10
6.20104e-10
6.0325e-10
5.77812e-10
5.68016e-10
5.56785e-10
5.44951e-10
5.32527e-10
5.18413e-10
5.05909e-10
4.86305e-10
4.64788e-10
4.56317e-10
4.47481e-10
4.38285e-10
4.27836e-10
4.18888e-10
4.04086e-10
3.75979e-10
3.69641e-10
3.63127e-10
3.56438e-10
3.48856e-10
3.42736e-10
3.31737e-10
3.01276e-10
2.96554e-10
2.91789e-10
2.86997e-10
2.81581e-10
2.7756e-10
2.69414e-10
2.40759e-10
2.37208e-10
2.33716e-10
2.30338e-10
2.26582e-10
2.24137e-10
2.18338e-10
1.95655e-10
1.92788e-10
1.90048e-10
1.87499e-10
1.84732e-10
1.83224e-10
1.79144e-10
1.62758e-10
1.60273e-10
1.57946e-10
1.5582e-10
1.53551e-10
1.52468e-10
1.49323e-10
1.35754e-10
1.33532e-10
1.31469e-10
1.29614e-10
1.2768e-10
1.26828e-10
1.24358e-10
1.12028e-10
1.10067e-10
1.08247e-10
1.06644e-10
1.05006e-10
1.04322e-10
1.02378e-10
9.27131e-11
9.06392e-11
8.87794e-11
8.7115e-11
8.57162e-11
8.44061e-11
8.40703e-11
8.32884e-11
7.32854e-11
7.10821e-11
6.90459e-11
6.71936e-11
6.55769e-11
6.40742e-11
6.30877e-11
6.15009e-11
5.20564e-11
5.00941e-11
4.84304e-11
4.70705e-11
4.60892e-11
4.54949e-11
4.6291e-11
4.81772e-11
2.8573e-11
2.58006e-11
2.33924e-11
2.13677e-11
1.97054e-11
1.83629e-11
1.73139e-11
1.5808e-11
1.82911e-11
1.7635e-11
1.74515e-11
1.77778e-11
1.88602e-11
2.08869e-11
2.61319e-11
3.49208e-11
2.27704e-11
2.25346e-11
2.22441e-11
2.1838e-11
2.15231e-11
2.28151e-11
3.16247e-11
4.2745e-11
1.6535e-10
1.77898e-10
1.89193e-10
1.99932e-10
2.12713e-10
2.32316e-10
2.84318e-10
3.31563e-10
5.83322e-10
5.86959e-10
5.89577e-10
5.91351e-10
5.92576e-10
5.9658e-10
6.20918e-10
5.63849e-10
2.12893e-09
2.13037e-09
2.12805e-09
2.12359e-09
2.11407e-09
2.1092e-09
2.07498e-09
1.78596e-09
38.8436
4.31369
0.464168
0.0822948
0.00852473
0.000353384
5.88787e-05
0
7.95042e-10
4.39932e-07
1.37869e-06
1.37785e-06
1.13388e-06
9.25847e-07
7.61597e-07
6.25688e-07
5.10955e-07
4.14707e-07
3.34741e-07
2.68644e-07
2.14461e-07
1.70349e-07
1.34686e-07
1.06062e-07
8.32235e-08
6.51372e-08
5.0908e-08
3.97854e-08
3.11496e-08
2.44894e-08
1.93876e-08
1.55057e-08
1.25695e-08
1.03626e-08
8.71191e-09
7.48036e-09
6.56111e-09
5.87059e-09
5.3441e-09
4.93264e-09
4.59913e-09
4.31605e-09
4.06422e-09
3.82995e-09
3.60441e-09
3.38267e-09
3.16223e-09
2.94227e-09
2.7237e-09
2.50732e-09
2.29469e-09
2.08701e-09
1.88536e-09
1.69091e-09
1.50492e-09
1.32918e-09
1.16573e-09
1.01643e-09
8.82254e-10
7.62682e-10
6.55974e-10
5.5983e-10
4.72801e-10
3.94356e-10
3.25111e-10
2.65136e-10
2.15918e-10
1.7791e-10
1.48846e-10
1.24353e-10
1.02589e-10
8.40332e-11
6.16397e-11
5.03726e-11
1.52234e-11
4.153e-11
3.53866e-11
3.19768e-10
4.40103e-10
1.40815e-09
11.8718
2.14727
0.15501
0.00939429
0.000480026
2.25208e-05
2.37467e-06
4.86675e-12
3.6905e-09
3.14257e-07
4.70876e-07
4.43769e-07
3.91666e-07
3.48095e-07
3.10368e-07
2.75336e-07
2.42446e-07
2.11713e-07
1.83537e-07
1.57887e-07
1.34838e-07
1.14324e-07
9.62613e-08
8.05927e-08
6.71119e-08
5.56317e-08
4.59659e-08
3.79067e-08
3.12394e-08
2.57725e-08
2.13222e-08
1.77237e-08
1.48293e-08
1.25113e-08
1.0662e-08
9.18625e-09
8.00864e-09
7.06477e-09
6.30204e-09
5.67883e-09
5.16148e-09
4.723e-09
4.34368e-09
4.00739e-09
3.70281e-09
3.42181e-09
3.15865e-09
2.9097e-09
2.67274e-09
2.44621e-09
2.22954e-09
2.02218e-09
1.82382e-09
1.63453e-09
1.45486e-09
1.28595e-09
1.12931e-09
9.86473e-10
8.58033e-10
7.43352e-10
6.40699e-10
5.47922e-10
4.63714e-10
3.8769e-10
3.20505e-10
2.62155e-10
2.14087e-10
1.76694e-10
1.48117e-10
1.2406e-10
1.0251e-10
8.41506e-11
6.17099e-11
5.09554e-11
1.49413e-11
4.56946e-11
2.71225e-11
3.22147e-10
4.32131e-10
1.47344e-09
4.68146
0.917303
0.0458213
0.000790364
1.7755e-05
2.4872e-06
2.62648e-08
6.0151e-11
3.3459e-08
1.75657e-07
1.70066e-07
1.52951e-07
1.3661e-07
1.2382e-07
1.12643e-07
1.02305e-07
9.2769e-08
8.39266e-08
7.57089e-08
6.81926e-08
6.12517e-08
5.48695e-08
4.89775e-08
4.35981e-08
3.86833e-08
3.41919e-08
3.01215e-08
2.64587e-08
2.31743e-08
2.02561e-08
1.76818e-08
1.54283e-08
1.34712e-08
1.17832e-08
1.03368e-08
9.10225e-09
8.05313e-09
7.16218e-09
6.40482e-09
5.75855e-09
5.20412e-09
4.72387e-09
4.3039e-09
3.93194e-09
3.59846e-09
3.29614e-09
3.01885e-09
2.76254e-09
2.52381e-09
2.30021e-09
2.09002e-09
1.89172e-09
1.7042e-09
1.52679e-09
1.35949e-09
1.20294e-09
1.05817e-09
9.26339e-10
8.07752e-10
7.01654e-10
6.06346e-10
5.19879e-10
4.41122e-10
3.69828e-10
3.06703e-10
2.51717e-10
2.06207e-10
1.70606e-10
1.43465e-10
1.20688e-10
1.00057e-10
8.24343e-11
6.06705e-11
5.03447e-11
1.53305e-11
4.74922e-11
2.36394e-11
3.16901e-10
4.1497e-10
1.48075e-09
1.90067
0.289785
0.00651893
1.15075e-05
2.3405e-06
6.70109e-14
2.07235e-12
1.33592e-09
5.66793e-08
8.51031e-08
7.3706e-08
6.83333e-08
6.32045e-08
5.90144e-08
5.49381e-08
5.0946e-08
4.71551e-08
4.35409e-08
4.0116e-08
3.69369e-08
3.39474e-08
3.11798e-08
2.86027e-08
2.62044e-08
2.39832e-08
2.19191e-08
1.99981e-08
1.82156e-08
1.65607e-08
1.50283e-08
1.36125e-08
1.23084e-08
1.11147e-08
1.00257e-08
9.03797e-09
8.14758e-09
7.3481e-09
6.63337e-09
5.99654e-09
5.42944e-09
4.92497e-09
4.47549e-09
4.07326e-09
3.71211e-09
3.38608e-09
3.09009e-09
2.81963e-09
2.5714e-09
2.34228e-09
2.12979e-09
1.93199e-09
1.74693e-09
1.57326e-09
1.40995e-09
1.25661e-09
1.1136e-09
9.81636e-10
8.61519e-10
7.53378e-10
6.56393e-10
5.68935e-10
4.89259e-10
4.16415e-10
3.50253e-10
2.9153e-10
2.40209e-10
1.97555e-10
1.64071e-10
1.38569e-10
1.17163e-10
9.75514e-11
8.07685e-11
5.97997e-11
4.9919e-11
1.62561e-11
4.88142e-11
2.21534e-11
3.10569e-10
3.94093e-10
1.45914e-09
0.601821
0.0485085
0.000133915
5.92131e-06
0
2.24853e-14
1.56259e-11
1.58817e-08
4.76896e-08
4.51259e-08
4.04433e-08
3.91071e-08
3.76375e-08
3.63723e-08
3.49627e-08
3.34841e-08
3.19462e-08
3.03344e-08
2.86949e-08
2.70339e-08
2.53567e-08
2.36939e-08
2.20711e-08
2.04809e-08
1.89496e-08
1.74961e-08
1.61109e-08
1.48084e-08
1.359e-08
1.24539e-08
1.13992e-08
1.04218e-08
9.52124e-09
8.6906e-09
7.92686e-09
7.22789e-09
6.58736e-09
6.00294e-09
5.47021e-09
4.985e-09
4.54443e-09
4.14393e-09
3.77934e-09
3.44785e-09
3.1456e-09
2.86946e-09
2.61642e-09
2.3841e-09
2.17008e-09
1.97221e-09
1.78872e-09
1.61769e-09
1.45776e-09
1.30788e-09
1.16744e-09
1.03667e-09
9.1611e-10
8.06322e-10
7.07304e-10
6.18223e-10
5.3756e-10
4.63759e-10
3.96042e-10
3.34333e-10
2.79431e-10
2.31275e-10
1.91063e-10
1.59373e-10
1.35235e-10
1.14917e-10
9.61087e-11
7.99864e-11
5.96378e-11
5.01776e-11
1.7567e-11
5.09574e-11
2.11065e-11
3.10845e-10
3.83368e-10
1.4564e-09
0.109239
0.00232299
1.3664e-05
0
2.10756e-17
1.54151e-14
4.91576e-09
2.7661e-08
3.21754e-08
2.77754e-08
2.64272e-08
2.59628e-08
2.53248e-08
2.46959e-08
2.3965e-08
2.31997e-08
2.23704e-08
2.14913e-08
2.05909e-08
1.96585e-08
1.87069e-08
1.77412e-08
1.67781e-08
1.58105e-08
1.4853e-08
1.3916e-08
1.29932e-08
1.21004e-08
1.12394e-08
1.04138e-08
9.62835e-09
8.8839e-09
8.18498e-09
7.52971e-09
6.91854e-09
6.35214e-09
5.82673e-09
5.34226e-09
4.89535e-09
4.48381e-09
4.10607e-09
3.75856e-09
3.43904e-09
3.14586e-09
2.87611e-09
2.62807e-09
2.39962e-09
2.18905e-09
1.99466e-09
1.81472e-09
1.64781e-09
1.49222e-09
1.34683e-09
1.21061e-09
1.083e-09
9.64178e-10
8.54582e-10
7.54627e-10
6.64227e-10
5.82578e-10
5.08305e-10
4.40044e-10
3.77163e-10
3.19686e-10
2.68414e-10
2.23256e-10
1.85331e-10
1.55312e-10
1.32455e-10
1.13136e-10
9.50749e-11
7.95589e-11
5.97876e-11
5.07772e-11
1.91205e-11
5.36213e-11
1.99023e-11
3.13624e-10
0.00570922
9.68056e-07
7.36367e-07
0
2.73526e-12
1.58785e-09
1.47084e-08
1.95201e-08
1.73989e-08
1.60288e-08
1.60066e-08
1.59389e-08
1.57835e-08
1.55952e-08
1.53412e-08
1.50557e-08
1.47146e-08
1.43272e-08
1.39099e-08
1.34566e-08
1.29773e-08
1.24735e-08
1.19488e-08
1.14127e-08
1.08712e-08
1.0323e-08
9.77322e-09
9.23132e-09
8.69491e-09
8.16904e-09
7.65679e-09
7.15893e-09
6.67942e-09
6.21899e-09
5.77888e-09
5.36076e-09
4.96449e-09
4.59149e-09
4.24046e-09
3.91173e-09
3.60498e-09
3.31839e-09
3.05185e-09
2.80407e-09
2.57359e-09
2.35988e-09
2.16141e-09
1.97728e-09
1.80635e-09
1.64743e-09
1.49948e-09
1.36121e-09
1.23169e-09
1.11006e-09
9.95985e-10
8.89565e-10
7.9121e-10
7.01286e-10
6.19643e-10
5.45556e-10
4.77804e-10
4.15232e-10
3.57337e-10
3.0424e-10
2.56742e-10
2.147e-10
1.79164e-10
1.50922e-10
1.29437e-10
1.1118e-10
9.39407e-11
7.90889e-11
5.99681e-11
5.14867e-11
2.08761e-11
5.63908e-11
5.29629e-06
3.34865e-06
0
5.366e-13
3.59814e-10
8.27095e-09
1.19162e-08
1.08239e-08
9.89451e-09
9.8246e-09
9.979e-09
1.00143e-08
1.0018e-08
9.9901e-09
9.92417e-09
9.83023e-09
9.70072e-09
9.54043e-09
9.35492e-09
9.14254e-09
8.90802e-09
8.65367e-09
8.37912e-09
8.09144e-09
7.7942e-09
7.48478e-09
7.16893e-09
6.85064e-09
6.52886e-09
6.20751e-09
5.88825e-09
5.57155e-09
5.2605e-09
4.95573e-09
4.65808e-09
4.36923e-09
4.08963e-09
3.82058e-09
3.56213e-09
3.31505e-09
3.07983e-09
2.85618e-09
2.6446e-09
2.44472e-09
2.25626e-09
2.07935e-09
1.91316e-09
1.75754e-09
1.61185e-09
1.47542e-09
1.34763e-09
1.22757e-09
1.11459e-09
1.00805e-09
9.07779e-10
8.1394e-10
7.26907e-10
6.47026e-10
5.74153e-10
5.07651e-10
4.46467e-10
3.8965e-10
3.36841e-10
2.88213e-10
2.44582e-10
2.05738e-10
1.72679e-10
1.46313e-10
1.26267e-10
1.09116e-10
9.27593e-11
7.86172e-11
6.02241e-11
5.23345e-11
3.85613e-06
0
3.97842e-14
2.55021e-11
5.56789e-09
7.82521e-09
7.0563e-09
6.4361e-09
6.39605e-09
6.56883e-09
6.69056e-09
6.76225e-09
6.81656e-09
6.84439e-09
6.84749e-09
6.82601e-09
6.77944e-09
6.71166e-09
6.6228e-09
6.51355e-09
6.38607e-09
6.24338e-09
6.08734e-09
5.91742e-09
5.7387e-09
5.55177e-09
5.35735e-09
5.15796e-09
4.9546e-09
4.74908e-09
4.54163e-09
4.33353e-09
4.12708e-09
3.92127e-09
3.71782e-09
3.51793e-09
3.3214e-09
3.12945e-09
2.94244e-09
2.76073e-09
2.58494e-09
2.41546e-09
2.25239e-09
2.09614e-09
1.94682e-09
1.80473e-09
1.66962e-09
1.54171e-09
1.42078e-09
1.30653e-09
1.19865e-09
1.09656e-09
9.9987e-10
9.08194e-10
8.21443e-10
7.39871e-10
6.63858e-10
5.93712e-10
5.29345e-10
4.7022e-10
4.15453e-10
3.64288e-10
3.16497e-10
2.72297e-10
2.32497e-10
1.96833e-10
1.66255e-10
1.41792e-10
1.23185e-10
1.07136e-10
9.16831e-11
0
5.52759e-18
5.23544e-15
2.68934e-09
5.60164e-09
4.55521e-09
4.2317e-09
4.21686e-09
4.37129e-09
4.51025e-09
4.60597e-09
4.68644e-09
4.7526e-09
4.79944e-09
4.82922e-09
4.84292e-09
4.83802e-09
4.81635e-09
4.77929e-09
4.72698e-09
4.66077e-09
4.58198e-09
4.49247e-09
4.39216e-09
4.28385e-09
4.16858e-09
4.04623e-09
3.91913e-09
3.78798e-09
3.65388e-09
3.51654e-09
3.37766e-09
3.23852e-09
3.09784e-09
2.95764e-09
2.81823e-09
2.67959e-09
2.54273e-09
2.40771e-09
2.27502e-09
2.14511e-09
2.0182e-09
1.8947e-09
1.77484e-09
1.65887e-09
1.5472e-09
1.4398e-09
1.33701e-09
1.23882e-09
1.14519e-09
1.05598e-09
9.70871e-10
8.89661e-10
8.12093e-10
7.38244e-10
6.68357e-10
6.02834e-10
5.41978e-10
4.85732e-10
4.3368e-10
3.85107e-10
3.39431e-10
2.96531e-10
2.5667e-10
2.20628e-10
1.88088e-10
0
1.9389e-12
1.43422e-09
3.79789e-09
3.069e-09
2.74626e-09
2.81164e-09
2.92704e-09
3.05108e-09
3.14348e-09
3.22237e-09
3.29313e-09
3.35194e-09
3.39902e-09
3.43339e-09
3.45674e-09
3.46766e-09
3.46588e-09
3.45371e-09
3.43082e-09
3.39823e-09
3.35633e-09
3.30635e-09
3.24887e-09
3.18524e-09
3.11583e-09
3.04089e-09
2.96208e-09
2.8795e-09
2.79385e-09
2.70525e-09
2.61454e-09
2.52238e-09
2.4284e-09
2.33362e-09
2.23819e-09
2.14225e-09
2.04647e-09
1.95076e-09
1.8556e-09
1.76136e-09
1.66813e-09
1.57631e-09
1.4861e-09
1.39779e-09
1.31177e-09
1.2281e-09
1.14718e-09
1.06908e-09
9.93863e-10
9.21561e-10
8.51966e-10
7.85007e-10
7.2054e-10
6.587e-10
5.99744e-10
5.44063e-10
4.91948e-10
4.43386e-10
3.98065e-10
3.55432e-10
1.24726e-12
6.00983e-10
2.5299e-09
2.06626e-09
1.83018e-09
1.89555e-09
2.00149e-09
2.0944e-09
2.17489e-09
2.24258e-09
2.30536e-09
2.36147e-09
2.40914e-09
2.44913e-09
2.47963e-09
2.50243e-09
2.51674e-09
2.52197e-09
2.52011e-09
2.51058e-09
2.49427e-09
2.47131e-09
2.44292e-09
2.40917e-09
2.37093e-09
2.32869e-09
2.28248e-09
2.2334e-09
2.18146e-09
2.12706e-09
2.07031e-09
2.0118e-09
1.95167e-09
1.8898e-09
1.82688e-09
1.7628e-09
1.69774e-09
1.63209e-09
1.56568e-09
1.4989e-09
1.43201e-09
1.36499e-09
1.29814e-09
1.23169e-09
1.16585e-09
1.10092e-09
1.03708e-09
9.7463e-10
9.13745e-10
8.54522e-10
7.97068e-10
7.41247e-10
6.87058e-10
6.34446e-10
6.07734e-10
1.33207e-09
1.48803e-09
1.23347e-09
1.31159e-09
1.39389e-09
1.46545e-09
1.52702e-09
1.58281e-09
1.6336e-09
1.68177e-09
1.72409e-09
1.76051e-09
1.79177e-09
1.81659e-09
1.83589e-09
1.84907e-09
1.85629e-09
1.85834e-09
1.85512e-09
1.84714e-09
1.83477e-09
1.81818e-09
1.79811e-09
1.77497e-09
1.74864e-09
1.71984e-09
1.68886e-09
1.65583e-09
1.62097e-09
1.58437e-09
1.54652e-09
1.50718e-09
1.46654e-09
1.42498e-09
1.38219e-09
1.33852e-09
1.29396e-09
1.24847e-09
1.20235e-09
1.15555e-09
1.10817e-09
)
;

boundaryField
{
    inlet
    {
        type            calculated;
        value           nonuniform List<scalar> 
13
(
2.2204e-08
2.28021e-08
2.33346e-08
2.38195e-08
2.42942e-08
2.47898e-08
2.54402e-08
2.56316e-08
2.51526e-08
2.487e-08
2.45024e-08
2.41872e-08
2.39314e-08
)
;
    }
    outlet
    {
        type            calculated;
        value           nonuniform List<scalar> 0();
    }
    walls
    {
        type            calculated;
        value           uniform 0;
    }
    frontAndBack
    {
        type            empty;
    }
    procBoundary2to1
    {
        type            processor;
        value           nonuniform List<scalar> 
84
(
1025.39
1.13459
0.0598482
6.81357e-05
1.07833e-05
1.54783e-07
4.25047e-07
3.75348e-07
4.47818e-07
3.40784e-07
3.40305e-07
3.03222e-07
2.82408e-07
2.55791e-07
2.32024e-07
2.08123e-07
1.85361e-07
1.63495e-07
1.42799e-07
1.23402e-07
1.05419e-07
8.89491e-08
7.40712e-08
6.08322e-08
4.92357e-08
3.92552e-08
3.08331e-08
2.38808e-08
1.82806e-08
1.38991e-08
1.05858e-08
8.18233e-09
6.53149e-09
5.48066e-09
4.88851e-09
4.62683e-09
4.58561e-09
4.67328e-09
4.67328e-09
7.5758e-09
7.25747e-09
6.97681e-09
6.70044e-09
6.40801e-09
6.08978e-09
5.74372e-09
5.37309e-09
4.98464e-09
4.58632e-09
4.18621e-09
3.79174e-09
3.40882e-09
3.04186e-09
3.04186e-09
2.85415e-09
2.49213e-09
2.16053e-09
1.85994e-09
1.5912e-09
1.35472e-09
1.1495e-09
9.72573e-10
8.19532e-10
8.19532e-10
6.99951e-10
5.78851e-10
4.73053e-10
3.82269e-10
3.06073e-10
2.44445e-10
1.98678e-10
1.65423e-10
1.38155e-10
1.14163e-10
1.14163e-10
9.49721e-11
7.56263e-11
5.43154e-11
3.16705e-11
1.94156e-11
2.30949e-11
1.51631e-10
5.78019e-10
2.12197e-09
)
;
    }
    procBoundary2to3
    {
        type            processor;
        value           nonuniform List<scalar> 
88
(
3.77902e-10
1.46189e-09
1.88299e-11
3.77902e-10
3.1628e-10
2.28792e-11
1.88299e-11
5.91618e-11
7.82579e-11
6.06483e-11
2.28792e-11
5.33826e-11
1.59971e-10
1.37409e-10
1.20225e-10
1.05262e-10
7.82579e-11
9.07255e-11
3.15058e-10
2.76913e-10
2.41284e-10
2.08919e-10
1.59971e-10
1.79443e-10
5.83537e-10
5.34589e-10
4.87972e-10
4.43953e-10
4.02557e-10
3.6357e-10
3.15058e-10
3.26574e-10
1.06035e-09
1.01229e-09
9.64085e-10
9.15956e-10
8.68177e-10
8.209e-10
7.74329e-10
7.28606e-10
6.83817e-10
6.39913e-10
5.9688e-10
5.83537e-10
5.54707e-10
1.09489e-09
8.558e-10
9.10247e-10
9.11529e-10
9.95035e-10
1.0417e-09
1.08898e-09
1.13102e-09
1.17141e-09
1.20914e-09
1.24392e-09
1.27465e-09
1.30134e-09
1.3248e-09
1.34362e-09
1.35836e-09
1.36909e-09
1.37594e-09
1.37913e-09
1.37872e-09
1.37497e-09
1.36827e-09
1.35887e-09
1.34696e-09
1.33277e-09
1.31662e-09
1.29879e-09
1.27924e-09
1.25837e-09
1.23614e-09
1.21274e-09
1.18829e-09
1.16277e-09
1.13635e-09
1.10902e-09
1.08075e-09
1.05174e-09
1.0218e-09
9.91035e-10
9.59569e-10
9.27279e-10
1.06035e-09
8.9428e-10
)
;
    }
    procBoundary2to6
    {
        type            processor;
        value           nonuniform List<scalar> 
13
(
59.8372
25.3272
10.5452
4.87444
2.1081
0.696288
0.125914
0.00583846
4.04161e-06
1.85815e-06
0
0
1.79678e-12
)
;
    }
}


// ************************************************************************* //
