/*--------------------------------*- C++ -*----------------------------------*\
| =========                 |                                                 |
| \\      /  F ield         | OpenFOAM: The Open Source CFD Toolbox           |
|  \\    /   O peration     | Version:  2306                                  |
|   \\  /    A nd           | Website:  www.openfoam.com                      |
|    \\/     M anipulation  |                                                 |
\*---------------------------------------------------------------------------*/
FoamFile
{
    version     2.0;
    format      ascii;
    arch        "LSB;label=32;scalar=64";
    class       volScalarField;
    location    "850";
    object      div(phi);
}
// * * * * * * * * * * * * * * * * * * * * * * * * * * * * * * * * * * * * * //

dimensions      [0 0 -1 0 0 0 0];

internalField   nonuniform List<scalar> 
1340
(
9.88361e-07
-1.14149e-06
-2.89518e-08
-1.94027e-06
1.9577e-06
1.12405e-06
-1.67092e-07
-6.60765e-07
-1.23426e-07
-3.2635e-07
9.61347e-07
3.14006e-07
-2.49349e-07
-2.19849e-07
-1.93338e-07
1.32093e-07
-2.15356e-07
3.758e-07
4.88988e-07
-7.68587e-09
-1.33922e-07
4.48072e-08
-6.84624e-08
1.39523e-07
-9.93793e-08
7.50253e-07
3.26478e-07
5.91264e-08
1.91696e-08
-2.62046e-08
1.42371e-07
-5.74716e-08
1.4074e-07
2.85796e-08
3.76369e-07
2.83471e-07
1.24465e-07
5.52798e-08
8.20278e-08
-4.1733e-08
1.06937e-07
-1.88769e-08
1.13984e-07
-9.31884e-08
-2.94692e-07
2.79228e-07
1.29377e-07
8.38495e-08
2.46888e-08
1.11801e-07
-5.5016e-08
8.30487e-08
2.1469e-09
-3.37221e-09
-8.8713e-08
2.2042e-07
1.40908e-07
9.39287e-08
8.17926e-08
-3.36876e-08
7.16291e-08
-4.3098e-08
5.16601e-08
3.02965e-09
-5.39708e-08
-1.43075e-07
2.29629e-07
1.28483e-07
9.23902e-08
3.53791e-08
8.70238e-08
-5.52461e-08
4.28341e-08
-2.39776e-08
4.36941e-08
9.53926e-09
-5.14452e-08
1.80898e-07
1.27453e-07
9.21919e-08
6.9823e-08
-3.18282e-08
5.33425e-08
-6.29258e-08
5.10768e-08
-1.01556e-10
3.78827e-08
-6.94672e-08
2.15531e-07
1.87285e-07
1.11459e-07
7.58292e-08
3.15288e-08
6.70185e-08
-6.19301e-08
2.76001e-08
-5.15111e-08
7.33383e-08
-2.66497e-09
8.45371e-08
-1.42954e-07
1.45312e-07
1.04113e-07
7.74469e-08
5.36697e-08
-3.58243e-08
3.27593e-08
-7.66187e-08
3.63742e-08
-1.72426e-08
3.39092e-08
-1.82061e-08
2.1237e-07
1.51724e-07
9.27001e-08
6.40869e-08
2.31462e-08
4.94547e-08
-6.64908e-08
1.58809e-08
-7.10832e-08
5.25486e-08
7.02352e-09
5.8474e-08
-1.26817e-07
1.40203e-07
1.2759e-07
8.73967e-08
6.29018e-08
4.06304e-08
-3.78116e-08
2.44992e-08
-8.58942e-08
2.43404e-08
-4.01457e-08
4.05122e-08
5.7938e-09
2.92643e-08
-3.25753e-08
1.34009e-07
7.40173e-08
4.79143e-08
1.66248e-08
3.73373e-08
-6.79258e-08
5.04842e-09
-8.67906e-08
4.14301e-08
9.69437e-09
3.56034e-08
-3.75437e-08
-5.13171e-08
1.99527e-08
1.03901e-07
7.47296e-08
4.87168e-08
2.93721e-08
-3.79229e-08
1.29749e-08
-8.88311e-08
9.44464e-09
-5.09296e-08
3.66317e-08
1.18057e-08
3.30512e-08
-1.13854e-08
-2.71842e-08
1.27072e-07
5.13815e-08
4.10004e-08
1.19224e-08
2.8316e-08
-6.56067e-08
1.74767e-10
-9.3643e-08
3.5008e-08
1.21894e-08
2.70236e-08
-4.76174e-08
-1.42087e-08
3.10064e-08
8.17566e-08
7.28101e-08
2.92884e-08
2.24192e-08
-3.47696e-08
1.10716e-08
-8.7968e-08
6.88094e-09
-5.83441e-08
2.88572e-08
1.66541e-10
3.5634e-08
1.09355e-08
-7.71138e-08
2.9485e-07
2.03936e-07
-3.06285e-08
9.8317e-09
2.69237e-09
2.19931e-08
-6.13578e-08
-3.40836e-09
-9.48322e-08
2.46801e-08
-1.76247e-09
1.8788e-08
-4.99288e-08
-6.34257e-08
2.03485e-07
-1.63321e-07
-5.10316e-08
3.47027e-08
-2.88616e-08
3.00347e-09
-3.39457e-08
5.99964e-09
-8.32084e-08
7.53812e-10
-6.54682e-08
1.61592e-08
-1.50014e-08
2.43229e-08
3.68478e-08
-1.35701e-07
4.5294e-07
2.25925e-07
-8.60664e-08
-4.20871e-08
-1.20654e-08
1.54781e-08
-5.6363e-08
-2.70284e-09
-9.22887e-08
2.00819e-08
-1.48105e-08
1.62537e-08
-5.99575e-08
-7.22685e-08
9.93387e-08
7.17362e-08
4.82588e-07
-6.34964e-08
-8.27043e-09
-1.74632e-08
6.99178e-10
-3.10999e-08
6.84274e-09
-7.74441e-08
2.69655e-09
-6.84015e-08
9.84336e-09
-2.14988e-08
1.49197e-08
-1.57639e-08
3.91771e-08
5.74019e-08
4.55117e-07
-4.37559e-08
-1.38509e-08
-6.73796e-09
1.34293e-08
-5.08999e-08
-2.85477e-09
-8.69494e-08
1.29734e-08
-1.8911e-08
6.83075e-09
-6.38398e-08
-6.80345e-08
1.02047e-07
1.47721e-07
1.0943e-08
3.89995e-07
-2.0455e-08
-2.62774e-09
5.45562e-09
-2.64519e-08
5.01405e-09
-7.02083e-08
1.96421e-10
-6.58921e-08
2.94051e-09
-2.25598e-08
9.27109e-09
-2.16271e-09
-6.06191e-09
1.57339e-07
7.65529e-08
-8.61388e-08
-2.19696e-09
-8.18498e-10
-1.46782e-09
1.32036e-08
-4.52234e-08
-5.24804e-10
-8.00509e-08
1.32176e-08
-1.84745e-08
8.96807e-09
-6.99476e-08
-4.67261e-08
8.20645e-08
1.77256e-07
-1.28737e-07
2.51768e-07
-1.73831e-08
3.98302e-09
8.16104e-09
-2.22281e-08
6.98258e-09
-6.32875e-08
3.79042e-09
-6.15604e-08
5.77622e-09
-2.45164e-08
1.08323e-08
-1.23229e-08
1.29215e-07
-3.99492e-10
1.53709e-07
-2.16862e-07
2.87068e-07
4.47608e-09
4.52412e-09
1.43141e-09
1.26841e-08
-3.98247e-08
2.14039e-10
-7.25356e-08
1.205e-08
-1.73656e-08
4.60701e-09
-7.40084e-08
3.02064e-08
6.57047e-08
1.93622e-07
-4.3958e-08
3.10925e-08
-1.44473e-07
-1.08956e-08
7.90682e-09
9.2892e-09
-1.87846e-08
6.08222e-09
-5.59834e-08
3.24783e-09
-5.60122e-08
3.89685e-09
-2.60422e-08
1.17046e-08
2.52213e-08
1.02884e-07
6.70434e-08
3.87746e-08
-1.79767e-07
2.38627e-07
1.09222e-08
7.40905e-09
2.76699e-09
1.22961e-08
-3.47674e-08
2.59426e-09
-6.49158e-08
1.40526e-08
-1.60279e-08
1.61631e-09
-6.2519e-08
8.31941e-09
1.1217e-07
6.2379e-08
-4.22735e-08
3.06495e-10
-2.18727e-07
2.91011e-07
-6.16588e-09
8.80547e-09
9.26052e-09
-1.59296e-08
7.73619e-09
-4.9355e-08
6.61074e-09
-5.0569e-08
4.91467e-09
-2.68601e-08
8.26484e-09
2.47094e-08
6.00043e-08
5.71931e-08
-1.58843e-08
-1.10213e-07
1.5249e-09
-8.05262e-08
1.14668e-08
7.75209e-09
3.20834e-09
1.14372e-08
-3.01269e-08
3.3185e-09
-5.73516e-08
1.26603e-08
-1.52216e-08
-1.32415e-09
-5.97853e-08
-1.83142e-09
8.14085e-08
3.98223e-08
-7.11625e-08
-1.275e-08
-2.49743e-07
2.19139e-07
-3.53562e-09
8.94221e-09
8.70309e-09
-1.35902e-08
6.9783e-09
-4.27838e-08
6.18486e-09
-4.51279e-08
3.11827e-09
-2.54314e-08
3.96006e-09
1.14224e-08
3.39827e-08
2.81555e-08
-2.9645e-08
-1.91261e-07
-8.35498e-09
-1.93472e-07
2.12995e-07
1.24507e-08
7.57335e-09
3.08296e-09
1.07447e-08
-2.59405e-08
5.16304e-09
-5.02551e-08
1.3745e-08
-1.36908e-08
-9.33266e-10
-5.716e-08
-1.00396e-08
5.57206e-08
1.75468e-08
-7.13749e-08
-6.0948e-08
-1.83382e-07
2.90418e-08
-1.11136e-07
-2.39992e-09
7.87732e-09
7.82943e-09
-1.15689e-08
8.05554e-09
-3.70623e-08
8.61018e-09
-3.9908e-08
4.11272e-09
-2.30851e-08
2.78572e-09
5.5937e-09
2.47138e-08
2.49795e-08
-1.68243e-08
-1.79503e-07
1.06065e-08
-2.43786e-07
2.69277e-07
1.04896e-08
6.54859e-09
2.79072e-09
9.72902e-09
-2.21835e-08
5.49406e-09
-4.35972e-08
1.23766e-08
-1.2283e-08
-1.38754e-09
-5.12443e-08
-8.48865e-09
5.43375e-08
2.51437e-08
-4.44753e-08
-2.6086e-08
-2.32536e-07
5.1147e-08
-1.7281e-07
2.08418e-07
-2.16714e-09
7.0551e-09
6.9173e-09
-9.84655e-09
7.22781e-09
-3.16721e-08
7.96792e-09
-3.48705e-08
3.16505e-09
-2.019e-08
4.0177e-09
8.38942e-09
2.84065e-08
3.51249e-08
3.15652e-09
-1.35962e-07
-4.11883e-09
-1.4923e-07
4.39176e-08
-7.50478e-08
9.94249e-09
5.7151e-09
2.35183e-09
8.94848e-09
-1.89019e-08
6.6028e-09
-3.76403e-08
1.30803e-08
-1.03163e-08
3.12599e-10
-4.32298e-08
-4.30976e-09
5.50835e-08
3.19238e-08
-2.58395e-08
3.15987e-09
-2.08727e-07
5.19515e-08
-1.76603e-07
2.68978e-08
-2.10681e-09
5.72487e-09
5.99239e-09
-8.36907e-09
7.76211e-09
-2.71368e-08
9.498e-09
-3.01786e-08
4.48479e-09
-1.66281e-08
6.2971e-09
1.15624e-08
2.98117e-08
3.7622e-08
1.53778e-08
-1.0807e-07
1.96757e-08
-1.84705e-07
-1.89515e-08
-1.15585e-07
6.07544e-08
7.75676e-09
4.62366e-09
1.94828e-09
7.95607e-09
-1.60492e-08
6.46889e-09
-3.22267e-08
1.19151e-08
-8.42277e-09
1.21108e-09
-3.57092e-08
-8.93248e-10
5.2155e-08
3.27326e-08
-1.78537e-08
1.42684e-08
-1.72218e-07
2.66378e-08
-1.22029e-07
5.44621e-08
-6.6256e-08
-2.28067e-09
4.93153e-09
5.13399e-09
-7.1432e-09
6.78444e-09
-2.29792e-08
8.58245e-09
-2.57756e-08
4.24383e-09
-1.32402e-08
8.48889e-09
1.31722e-08
2.79892e-08
3.48841e-08
2.06116e-08
-9.06235e-08
2.18218e-08
-1.59187e-07
3.8669e-08
-2.00967e-08
1.91251e-08
7.14165e-09
3.82755e-09
1.50083e-09
7.11182e-09
-1.36017e-08
6.84429e-09
-2.74663e-08
1.22865e-08
-6.34438e-09
3.33752e-09
-2.87566e-08
1.1196e-09
4.70431e-08
3.10099e-08
-1.49226e-08
1.42831e-08
-1.31728e-07
3.02031e-08
3.4268e-08
7.34488e-09
1.08859e-07
-2.33065e-09
3.77806e-09
4.30395e-09
-6.08854e-09
6.82543e-09
-1.94933e-08
9.34896e-09
-2.18024e-08
5.46962e-09
-1.00445e-08
1.01189e-08
1.41827e-08
2.52467e-08
2.82924e-08
2.0438e-08
-7.15982e-08
1.74266e-08
1.8742e-08
3.58887e-08
6.4729e-08
-2.49331e-08
6.15867e-08
5.26489e-09
2.91468e-09
1.13236e-09
6.15486e-09
-1.14552e-08
6.35831e-09
-2.31678e-08
1.11439e-08
-4.73469e-09
4.02364e-09
-2.26909e-08
1.889e-09
3.87222e-08
2.61963e-08
-1.62688e-08
4.23589e-09
3.89818e-09
2.86001e-08
-2.11542e-08
2.45723e-08
-8.36173e-08
3.88555e-08
-2.51254e-09
3.16501e-09
3.58009e-09
-5.15501e-09
5.77368e-09
-1.62784e-08
8.2439e-09
-1.82475e-08
5.07867e-09
-7.4416e-09
1.07816e-08
1.24123e-08
1.86e-08
2.08364e-08
7.36904e-09
1.45536e-08
-9.24695e-10
-3.7907e-08
6.71332e-09
-1.18585e-07
1.69421e-08
-7.43997e-08
4.76388e-09
2.29058e-09
7.6884e-10
5.31205e-09
-9.55203e-09
6.25139e-09
-1.94015e-08
1.0993e-08
-3.28345e-09
5.17219e-09
-1.83015e-08
6.29041e-10
3.04851e-08
1.29543e-08
1.1099e-08
-5.54656e-09
-3.73001e-08
5.80475e-09
-1.59339e-07
2.07495e-08
-1.33399e-07
1.10001e-07
-2.50454e-09
2.23472e-09
2.91516e-09
-4.30354e-09
5.55902e-09
-1.35295e-08
8.46115e-09
-1.51486e-08
5.61251e-09
-5.44566e-09
1.08367e-08
9.35818e-09
1.12401e-08
1.08941e-08
6.56216e-09
-1.29178e-08
-1.04051e-09
-9.75939e-08
1.4667e-08
-1.46429e-07
3.41783e-08
-9.16024e-08
1.13568e-07
3.22988e-09
1.6178e-09
5.19582e-10
4.51425e-09
-7.83137e-09
5.68128e-09
-1.60194e-08
9.74555e-09
-2.35318e-09
5.01855e-09
-1.52218e-08
-4.44016e-10
2.19113e-08
5.83404e-09
5.13044e-09
-1.2157e-08
-4.57587e-08
-4.16824e-10
-1.3539e-07
2.63194e-08
-6.89374e-08
2.80336e-08
-1.46793e-08
-2.59716e-09
1.83036e-09
2.39435e-09
-3.49232e-09
4.65013e-09
-1.09847e-08
7.32718e-09
-1.24718e-08
4.83462e-09
-4.23221e-09
9.96884e-09
7.50067e-09
7.72055e-09
8.72993e-09
6.68856e-09
-8.48103e-09
2.96732e-09
-7.94883e-08
2.69903e-08
-1.18104e-07
3.79178e-08
-3.80353e-08
6.52343e-08
2.89401e-09
1.20504e-09
3.24729e-10
3.80805e-09
-6.2813e-09
5.35142e-09
-1.30866e-08
9.21311e-09
-1.66914e-09
4.96428e-09
-1.27473e-08
-3.97477e-10
1.87819e-08
6.18802e-09
8.12119e-09
-4.89148e-09
-3.49984e-08
9.48976e-09
-1.10119e-07
3.54087e-08
-5.67662e-08
3.55946e-08
-3.61196e-08
-2.50709e-09
1.16862e-09
1.93073e-09
-2.75276e-09
4.31896e-09
-8.80501e-09
7.19584e-09
-1.02037e-08
4.76259e-09
-3.4483e-09
8.96487e-09
5.89627e-09
5.63614e-09
5.95539e-09
4.46046e-09
-9.40829e-09
2.44098e-09
-6.81849e-08
2.75031e-08
-1.0058e-07
4.04016e-08
-7.2321e-08
7.91698e-08
1.707e-09
7.63683e-10
1.80245e-10
3.13763e-09
-4.88827e-09
4.74772e-09
-1.04573e-08
7.97836e-09
-1.34363e-09
4.13727e-09
-1.12899e-08
-1.43704e-09
1.32592e-08
1.82446e-09
2.07979e-09
-9.68697e-09
-3.40646e-08
3.28652e-09
-9.2711e-08
3.42742e-08
-8.17152e-08
3.61695e-08
-5.21071e-08
8.24804e-08
-2.47974e-09
9.04751e-10
1.54626e-09
-2.06613e-09
3.51598e-09
-6.79096e-09
6.07541e-09
-8.2254e-09
3.77628e-09
-3.12042e-09
7.27689e-09
4.03137e-09
2.93129e-09
3.81546e-09
3.04604e-09
-7.62492e-09
3.09795e-09
-5.4558e-08
2.42194e-08
-8.45441e-08
3.59694e-08
-3.49538e-08
2.7844e-08
-5.44565e-09
1.43721e-09
4.63805e-10
5.29249e-11
2.47457e-09
-3.6428e-09
4.19688e-09
-8.12804e-09
7.25177e-09
-1.08543e-09
3.16099e-09
-9.98863e-09
-1.62331e-09
1.1377e-08
2.49519e-09
4.50569e-09
-4.11103e-09
-2.50925e-08
8.72108e-09
-7.59142e-08
3.47168e-08
-6.74314e-08
3.6818e-08
-1.48225e-08
5.19913e-08
-2.36462e-09
4.02724e-10
1.14507e-09
-1.45994e-09
2.96649e-09
-5.07865e-09
5.7243e-09
-6.53926e-09
3.33652e-09
-3.01504e-09
6.08213e-09
3.37121e-09
2.23395e-09
3.22076e-09
2.74429e-09
-6.66351e-09
3.85346e-09
-4.66004e-08
2.29702e-08
-7.10171e-08
3.51679e-08
-2.3406e-08
3.34098e-08
-5.64233e-12
4.68826e-10
1.07248e-10
-9.84191e-11
1.78172e-09
-2.57055e-09
3.53283e-09
-6.10435e-09
6.26059e-09
-1.45004e-09
2.25674e-09
-8.50041e-09
-2.10615e-09
8.70242e-09
7.42548e-10
1.65504e-09
-6.23426e-09
-2.34142e-08
5.10958e-09
-6.46207e-08
2.95816e-08
-4.96359e-08
3.59376e-08
-5.55285e-11
4.35027e-08
-2.29951e-09
1.8141e-10
6.86586e-10
-1.13281e-09
2.21433e-09
-3.87496e-09
4.59037e-09
-5.48197e-09
2.00412e-09
-3.03313e-09
4.78381e-09
3.10757e-09
1.96447e-09
9.29397e-10
2.99025e-09
-5.02929e-09
5.44147e-09
-3.69303e-08
2.14407e-08
-4.98838e-08
3.37553e-08
1.11046e-08
2.87622e-08
2.591e-08
-5.72572e-11
-3.94847e-10
-3.52157e-10
1.18964e-09
-2.35062e-09
2.85211e-09
-5.21487e-09
5.01774e-09
-9.00212e-10
2.30502e-09
-6.18534e-09
5.52092e-10
2.55094e-09
5.99973e-09
2.35445e-11
1.84002e-09
-1.85075e-08
1.11303e-08
-4.23785e-08
2.92305e-08
8.75404e-09
3.42276e-08
1.99036e-08
1.52441e-08
1.57132e-08
-2.02741e-09
-1.02528e-10
9.32429e-11
-1.41608e-09
1.737e-09
-3.84923e-09
4.20937e-09
-3.98919e-09
1.56877e-09
-2.02118e-09
5.78953e-09
-1.30604e-09
7.60111e-09
-5.42374e-09
1.12578e-08
-9.41457e-09
1.40421e-08
-1.94157e-08
2.67651e-08
9.94709e-09
3.30404e-08
1.00164e-09
2.17335e-08
-1.87077e-08
2.0667e-08
-8.97881e-10
-9.41723e-10
-6.75752e-10
8.84251e-10
-3.01601e-09
2.55695e-09
-4.36999e-09
3.47288e-09
-1.7624e-10
2.80012e-09
-5.13588e-09
2.13183e-09
-5.86856e-10
7.25965e-09
1.54117e-09
3.65115e-09
-2.42181e-09
8.17153e-09
7.59296e-09
1.83596e-08
-4.64171e-09
1.88385e-08
-3.51946e-08
1.29225e-08
-1.51362e-08
-2.28163e-09
-5.13769e-10
-3.28426e-10
-1.94857e-09
1.45693e-09
-3.52892e-09
3.40849e-09
-2.08654e-09
1.74741e-09
-1.10791e-09
5.28936e-09
-1.0724e-09
3.65254e-09
4.02623e-09
2.54642e-09
2.87767e-09
-1.83273e-09
1.19004e-09
1.66284e-09
-6.78001e-09
1.11055e-08
-3.84208e-08
1.12816e-08
-1.81057e-08
1.70946e-08
-8.44587e-10
-1.01374e-09
-8.6953e-10
6.57423e-10
-2.4961e-09
2.10504e-09
-2.84674e-09
2.83233e-09
1.7215e-10
3.00357e-09
-3.45064e-09
1.20808e-09
5.26052e-09
3.77541e-09
6.13501e-09
2.61045e-11
1.59525e-09
-1.23594e-09
-8.2993e-10
3.85395e-09
-2.87035e-08
9.30213e-09
-3.05458e-08
9.24185e-09
-1.2956e-08
-2.51519e-09
-8.45206e-10
-3.87765e-10
-1.54377e-09
1.25703e-09
-2.28356e-09
2.85991e-09
-1.11834e-09
2.16804e-09
-5.79708e-10
3.70024e-09
3.23988e-09
1.27563e-09
9.92586e-09
-1.82777e-09
9.40821e-09
-5.99499e-09
7.88557e-09
-5.52814e-09
-1.89794e-08
4.02031e-09
-4.03017e-08
8.72729e-09
-1.41561e-08
1.64609e-08
-1.17784e-09
-1.10969e-09
-8.44466e-10
6.11919e-10
-1.52186e-09
1.92089e-09
-1.59821e-09
2.52078e-09
4.19901e-10
2.51437e-09
-1.51566e-09
1.08189e-09
6.10779e-09
3.25826e-09
4.37612e-09
8.48755e-10
4.145e-09
2.79582e-10
-8.80016e-09
5.55686e-09
-3.39059e-08
1.08812e-08
-2.0189e-08
9.16304e-09
-8.43606e-09
-2.52754e-09
-9.83828e-10
-2.2679e-10
-9.05868e-10
1.29769e-09
-1.13546e-09
2.40555e-09
-5.45766e-10
2.08166e-09
-3.23723e-10
2.83736e-09
2.58962e-09
3.24577e-09
2.89737e-09
3.60394e-09
1.35712e-09
4.13258e-09
2.38158e-10
7.84144e-09
-1.78077e-08
1.30898e-08
-2.61098e-08
1.04129e-08
-5.7821e-09
1.40181e-08
-1.34912e-09
-9.81216e-10
-6.39066e-10
7.79754e-10
-6.50451e-10
1.78843e-09
-7.58925e-10
2.02746e-09
4.47424e-10
1.83701e-09
-1.23548e-09
3.15071e-09
3.1911e-09
3.70624e-09
2.67636e-09
2.09081e-09
3.31083e-09
1.95463e-09
-8.81595e-09
8.46514e-09
-2.23109e-08
1.30578e-08
-5.76238e-10
9.15257e-09
5.77476e-09
-2.58811e-09
-1.04649e-09
2.19343e-10
-5.38358e-10
1.2663e-09
-3.65363e-10
1.85565e-09
-2.21448e-10
1.60901e-09
-5.12392e-10
3.70034e-09
1.1136e-09
5.30513e-09
8.05561e-11
5.57281e-09
-1.93792e-09
6.22579e-09
-3.83771e-09
9.99759e-09
-1.02218e-08
1.52012e-08
1.88897e-09
1.27313e-08
4.99799e-09
4.30983e-09
3.54256e-09
-1.41986e-09
-5.00043e-10
-5.75035e-10
8.31919e-10
-1.49202e-10
1.23609e-09
-1.22444e-10
1.31529e-09
4.28606e-10
1.726e-09
-6.68872e-10
3.3591e-09
2.06894e-09
2.55733e-09
5.40866e-10
2.34581e-09
-9.12602e-10
4.2248e-09
-1.96799e-09
1.0043e-08
4.85404e-09
1.23236e-08
-2.39812e-09
6.93107e-09
-8.03985e-09
8.82829e-09
-8.96627e-10
-1.6485e-09
1.371e-09
-1.12721e-09
5.9065e-10
2.85115e-10
9.93336e-10
2.21713e-10
1.22428e-09
-9.6195e-11
2.74306e-09
1.78459e-09
1.78431e-09
1.88147e-09
4.9059e-10
2.37787e-09
-2.80672e-10
3.66839e-09
4.57549e-10
3.73758e-09
3.60431e-09
-4.24323e-09
8.12567e-09
-6.31607e-09
8.24361e-09
-3.14913e-09
-3.23293e-09
1.12161e-09
-1.29151e-09
8.39665e-11
-3.3047e-10
5.71931e-10
5.50492e-10
9.21376e-10
1.11354e-09
1.83243e-09
1.06978e-09
2.25429e-09
1.79122e-09
1.76207e-09
9.32424e-10
2.07671e-09
7.61993e-10
3.47025e-09
1.39593e-09
4.71477e-09
1.87726e-09
9.36391e-09
-5.71597e-09
9.10182e-09
-2.89102e-09
1.27889e-08
5.29563e-10
-7.89998e-10
-3.25106e-10
-5.89033e-10
-6.7407e-11
4.84528e-10
7.88578e-10
7.3616e-10
9.25437e-10
8.10933e-10
1.5651e-09
2.08672e-09
1.00118e-09
2.19667e-09
3.86803e-10
3.17261e-09
8.35275e-10
5.03267e-09
2.74099e-09
5.39172e-09
4.05e-09
-4.23536e-09
7.44903e-09
1.04908e-09
1.0276e-08
4.24725e-09
-9.055e-10
-1.68219e-10
-1.65638e-10
-7.90905e-11
1.15393e-10
1.92347e-10
1.72131e-10
1.71152e-10
1.50273e-10
3.567e-10
5.78578e-10
4.80259e-10
7.81168e-10
3.8817e-10
1.31129e-09
7.51092e-10
2.48437e-09
1.56875e-09
3.84626e-09
3.30982e-09
1.27847e-09
5.29238e-09
3.54486e-09
7.44425e-09
6.21631e-09
9.25346e-09
)
;

boundaryField
{
    inlet
    {
        type            extrapolatedCalculated;
        value           nonuniform List<scalar> 
26
(
-9.055e-10
-1.68219e-10
-1.65638e-10
-7.90905e-11
1.15393e-10
1.92347e-10
1.72131e-10
1.71152e-10
1.50273e-10
3.567e-10
5.78578e-10
4.80259e-10
7.81168e-10
3.8817e-10
1.31129e-09
7.51092e-10
2.48437e-09
1.56875e-09
3.84626e-09
3.30982e-09
1.27847e-09
5.29238e-09
3.54486e-09
7.44425e-09
6.21631e-09
9.25346e-09
)
;
    }
    outlet
    {
        type            extrapolatedCalculated;
        value           nonuniform List<scalar> 0();
    }
    walls
    {
        type            extrapolatedCalculated;
        value           nonuniform List<scalar> 0();
    }
    frontAndBack
    {
        type            empty;
    }
    procBoundary0to1
    {
        type            processor;
        value           nonuniform List<scalar> 
94
(
-2.77767e-06
-1.16995e-06
-1.16995e-06
-6.10112e-07
-6.10112e-07
-2.47963e-07
-2.47963e-07
-2.27547e-07
-2.27547e-07
-3.91129e-07
-3.91129e-07
-3.09724e-07
-1.71076e-07
-1.71076e-07
-8.29823e-08
-1.04051e-07
-1.04051e-07
-2.64981e-07
2.77093e-07
-3.47213e-07
-3.47213e-07
-1.8829e-07
-9.60164e-08
-9.60164e-08
-4.40439e-08
2.16996e-08
-2.38653e-08
-2.38653e-08
-1.80961e-08
7.64874e-07
-1.30697e-07
-1.30697e-07
3.87696e-07
-1.89566e-07
-1.89566e-07
-1.38558e-07
1.68759e-07
-4.1497e-07
-4.1497e-07
-2.53529e-07
1.72218e-07
-3.8253e-07
-3.8253e-07
-1.61901e-07
1.50422e-07
-3.01427e-07
-3.01427e-07
-1.65946e-07
1.96091e-07
-2.62227e-07
-2.62227e-07
-1.12288e-07
-9.06782e-08
-1.656e-07
-1.656e-07
-8.72854e-08
7.99108e-09
1.93329e-08
-4.37136e-08
-4.37136e-08
-4.28587e-09
-5.73908e-08
4.449e-08
-1.38413e-07
-1.38413e-07
-5.21371e-08
3.71662e-08
-1.86867e-08
4.93202e-08
-7.30387e-08
-7.30387e-08
-2.73382e-08
3.96743e-08
7.61287e-09
4.27814e-08
2.09709e-08
2.50506e-08
2.50506e-08
1.93507e-08
-1.01066e-08
1.66081e-08
-9.02615e-09
1.22508e-08
-6.43098e-09
9.9952e-09
4.97482e-10
5.64459e-09
5.64459e-09
5.1733e-09
-4.14033e-09
8.83977e-09
2.92786e-09
1.39636e-08
1.30587e-08
)
;
    }
    procBoundary0to4
    {
        type            processor;
        value           nonuniform List<scalar> 
72
(
1.70438e-06
5.90408e-07
9.66679e-07
3.68442e-07
3.17098e-07
2.86749e-07
1.73326e-07
2.25117e-07
1.23675e-07
1.84866e-07
9.11517e-08
1.58243e-07
7.55757e-08
1.3407e-07
6.43129e-08
1.32709e-07
6.7874e-08
1.24244e-07
3.58984e-08
2.4063e-07
2.06289e-08
1.34028e-07
1.27215e-07
1.27215e-07
4.91275e-09
-1.2018e-08
6.62929e-09
-1.28856e-08
1.01844e-08
-1.08419e-08
1.15907e-08
-6.69823e-09
1.27861e-08
-5.98077e-09
1.14154e-08
-4.46773e-09
1.08483e-08
-4.95988e-09
8.88613e-09
-4.18126e-09
8.06304e-09
-4.74051e-09
6.32621e-09
-4.09352e-09
5.5551e-09
-4.51408e-09
4.12781e-09
-3.8903e-09
3.46606e-09
-4.15368e-09
2.37248e-09
-3.53527e-09
1.78942e-09
-3.66356e-09
8.65649e-10
-3.22584e-09
4.30982e-10
-3.573e-09
1.02346e-10
-4.20508e-09
1.01389e-10
-3.71085e-09
-4.79663e-10
-3.11355e-09
-1.12054e-09
-2.95378e-09
-1.3936e-09
-2.48836e-09
-1.87912e-09
-2.9168e-10
-2.70505e-09
-5.20049e-10
)
;
    }
    procBoundary0to5
    {
        type            processor;
        value           nonuniform List<scalar> 4(2.22836e-07 1.82298e-07 -1.76147e-06 1.43021e-06);
    }
}


// ************************************************************************* //
