/*--------------------------------*- C++ -*----------------------------------*\
| =========                 |                                                 |
| \\      /  F ield         | OpenFOAM: The Open Source CFD Toolbox           |
|  \\    /   O peration     | Version:  2306                                  |
|   \\  /    A nd           | Website:  www.openfoam.com                      |
|    \\/     M anipulation  |                                                 |
\*---------------------------------------------------------------------------*/
FoamFile
{
    version     2.0;
    format      ascii;
    arch        "LSB;label=32;scalar=64";
    class       volScalarField;
    location    "950";
    object      div(phi);
}
// * * * * * * * * * * * * * * * * * * * * * * * * * * * * * * * * * * * * * //

dimensions      [0 0 -1 0 0 0 0];

internalField   nonuniform List<scalar> 
1340
(
3.00774e-05
7.66838e-05
-2.13394e-05
5.37253e-05
1.21357e-05
7.11665e-05
5.40802e-05
8.43831e-05
1.94073e-05
2.51893e-05
-4.16717e-05
9.65494e-06
7.99531e-06
4.71277e-05
3.56309e-05
6.42948e-05
1.9933e-05
1.69554e-05
-4.52417e-05
1.35283e-07
9.17768e-06
3.94762e-05
2.44449e-05
4.99819e-05
2.24071e-05
1.55218e-05
-4.87275e-05
-7.42843e-07
1.09347e-05
3.59777e-05
1.59825e-05
3.82496e-05
2.16794e-05
1.28149e-05
-5.0864e-05
-1.16131e-06
1.08923e-05
2.87494e-05
9.96004e-06
2.89168e-05
1.83094e-05
1.0931e-05
-4.91516e-05
6.45776e-07
1.0185e-05
2.15386e-05
5.60983e-06
2.12624e-05
1.48628e-05
9.10255e-06
-4.42055e-05
1.26363e-06
9.27431e-06
1.5262e-05
2.73108e-06
1.53297e-05
1.15749e-05
9.29866e-06
-3.94491e-05
2.46531e-06
7.95586e-06
1.07127e-05
8.69431e-07
1.15455e-05
8.79318e-06
8.854e-06
-3.40408e-05
2.87995e-06
6.3064e-06
6.71038e-06
-2.28439e-07
8.71597e-06
6.44697e-06
8.87487e-06
-2.94984e-05
3.17257e-06
4.61182e-06
3.7139e-06
-1.07217e-06
6.78303e-06
4.80021e-06
8.64609e-06
-2.42384e-05
3.14589e-06
3.2948e-06
1.66026e-06
-1.63344e-06
5.19257e-06
3.83351e-06
7.00043e-06
-2.01329e-05
3.22165e-06
2.28021e-06
4.73684e-07
-1.94267e-06
4.04856e-06
2.62665e-06
4.70229e-06
-1.50652e-05
3.03194e-06
1.73206e-06
1.17396e-07
-1.64904e-06
3.14542e-06
1.85066e-06
2.57876e-06
-1.11841e-05
2.88347e-06
1.29987e-06
2.14233e-07
-1.1426e-06
2.46131e-06
1.2642e-06
8.01015e-07
-7.54698e-06
2.56742e-06
1.6394e-06
3.49701e-07
-4.09478e-07
1.83419e-06
8.69632e-08
-8.17856e-08
-4.56642e-06
1.85688e-06
1.46409e-06
4.9172e-07
1.07852e-07
1.33716e-06
-1.48583e-07
-3.3931e-07
-2.54269e-06
1.15519e-06
-2.9448e-06
9.75711e-07
4.73318e-07
3.94159e-07
9.21919e-07
1.63041e-06
-4.74854e-08
-3.07001e-07
-1.3346e-06
6.41993e-07
-1.08026e-06
6.51558e-07
4.20396e-07
4.60888e-07
6.28544e-07
1.28758e-06
-3.40523e-08
-2.39061e-07
-5.95112e-07
2.41436e-07
-9.44165e-07
4.07374e-07
3.38701e-07
4.02086e-07
4.2544e-07
1.0881e-06
-4.51852e-08
-1.24287e-07
-2.85039e-07
7.38699e-08
-8.31254e-07
2.44055e-07
2.43663e-07
2.99292e-07
2.90181e-07
9.05789e-07
-3.53615e-08
-6.18477e-08
-1.46116e-07
1.06049e-08
-4.20958e-07
1.64192e-07
1.59995e-07
2.04888e-07
1.9865e-07
3.48211e-07
-6.47761e-08
-2.52979e-08
-7.89591e-08
-3.29649e-09
-3.04775e-07
9.19378e-08
9.19291e-08
1.41889e-07
1.31038e-07
1.95568e-07
-2.52292e-08
8.32214e-09
-3.13179e-08
-2.4406e-09
-3.00346e-07
-2.27525e-07
7.3744e-08
6.68554e-08
9.37363e-08
9.80698e-08
5.80862e-08
2.24955e-07
1.52233e-08
3.38373e-08
4.96606e-09
-6.25549e-10
-4.12687e-08
-1.35478e-07
7.06753e-08
5.25922e-08
6.77021e-08
7.16047e-08
6.04547e-08
1.83382e-07
3.36924e-08
4.98315e-08
1.78556e-08
1.0515e-08
1.63024e-08
-7.75347e-08
6.31605e-08
3.72252e-08
5.10489e-08
5.1976e-08
-9.68224e-09
1.24579e-07
2.75357e-08
4.99763e-08
2.95941e-08
1.20471e-08
-1.1871e-08
-5.30235e-08
4.68566e-08
3.13385e-08
3.80985e-08
4.41055e-08
-1.29183e-08
6.50387e-08
1.96837e-08
4.24556e-08
3.84277e-08
1.46566e-08
1.88877e-08
-3.45128e-08
-5.59208e-09
1.56471e-08
2.29263e-08
4.25477e-08
-3.80862e-08
-5.70815e-08
-4.72393e-08
-1.29411e-09
8.75718e-09
4.63213e-08
2.48777e-08
-2.47395e-08
-4.71897e-08
-1.16981e-08
-3.23721e-08
1.07685e-08
1.53108e-08
5.32726e-08
4.12244e-08
2.51045e-09
-4.04261e-08
4.70597e-09
1.76267e-09
3.95531e-08
2.59678e-08
-4.67395e-09
-1.28941e-08
1.77169e-08
-1.55622e-08
3.55328e-09
-8.62474e-09
3.93494e-08
3.80031e-08
2.04743e-08
-1.78583e-08
-3.2642e-09
-3.07772e-08
1.68021e-08
-4.74941e-09
5.67207e-09
-2.18491e-09
1.24133e-08
-2.80655e-08
1.11383e-08
-2.51083e-08
2.77508e-08
1.57423e-08
2.2304e-08
-2.87401e-09
2.33076e-08
-1.42021e-08
2.45485e-08
8.44267e-09
2.15385e-08
1.72617e-08
1.46059e-08
2.71472e-08
-2.45162e-09
2.65747e-08
6.93456e-09
1.92706e-08
2.34287e-08
1.50027e-08
1.77756e-08
7.19446e-09
2.07441e-08
1.27506e-09
1.86705e-08
1.9877e-09
1.0175e-08
1.08742e-08
1.17427e-08
1.31429e-08
8.88665e-09
1.16147e-08
9.78054e-09
1.59164e-08
2.32177e-08
5.79214e-09
8.76003e-09
1.02065e-08
9.1687e-09
1.01538e-08
1.05322e-08
1.38339e-08
-1.55989e-08
2.34513e-09
3.30889e-09
6.38836e-09
5.00806e-09
1.64716e-08
8.0586e-09
1.11073e-08
7.3933e-09
-1.622e-09
4.80855e-09
1.36853e-09
2.41798e-08
6.5164e-09
1.53827e-08
1.28397e-08
-1.2481e-08
5.07685e-09
-5.36908e-11
2.64422e-08
-1.52809e-09
2.82331e-08
4.01858e-09
8.71309e-09
-6.63778e-09
3.60894e-09
1.35698e-09
1.32003e-08
-2.58394e-09
1.86232e-08
-2.91139e-09
8.71142e-09
-1.79048e-09
1.58254e-09
1.90215e-09
5.80011e-09
8.54178e-10
8.43119e-09
-1.83285e-09
5.77832e-09
1.19017e-09
1.03529e-08
4.6074e-09
4.41039e-09
4.03167e-09
5.30962e-09
4.30446e-09
5.44452e-09
4.90078e-09
7.4487e-09
6.48642e-09
1.17968e-09
1.82875e-09
4.28609e-09
5.46949e-09
5.48239e-09
6.42589e-09
6.52162e-09
6.98274e-09
5.54008e-09
6.25619e-10
1.81651e-09
1.40164e-09
3.16835e-09
4.64883e-09
4.80723e-09
4.09991e-09
5.09999e-09
3.38925e-09
-4.05741e-09
-1.20057e-09
-3.10676e-10
1.10589e-09
7.03656e-10
1.79501e-09
1.80769e-09
1.59882e-09
5.34293e-10
-7.72212e-10
-4.25265e-09
-3.63493e-09
-2.41612e-09
-1.63407e-09
-1.2638e-09
-2.23127e-09
-3.96368e-10
-1.79143e-09
-2.19707e-08
-6.82951e-09
-5.83287e-09
-4.66691e-09
-4.98659e-09
-4.40581e-09
-3.91146e-09
-3.164e-09
-4.09653e-09
-1.3146e-08
-6.29345e-09
-6.46935e-09
-5.60916e-09
-6.36379e-09
-4.8498e-09
-6.38685e-09
-3.38612e-09
-3.68552e-09
-1.18592e-08
-5.76388e-09
-5.98023e-09
-5.89545e-09
-6.27267e-09
-6.76377e-09
-7.3522e-09
-6.41966e-09
-5.5089e-09
-6.11752e-09
-9.87378e-09
-6.50741e-09
-5.92463e-09
-6.66571e-09
-7.06435e-09
-7.03922e-09
-6.94292e-09
-5.76394e-09
-4.70637e-09
-4.63189e-09
-1.10544e-08
-4.83641e-09
-5.15497e-09
-4.45949e-09
-4.64576e-09
-4.01041e-09
-3.80908e-09
-2.80057e-09
-2.64458e-09
-2.11975e-09
0.000149053
-8.17741e-05
3.65119e-05
-4.70047e-05
3.46143e-05
-1.99997e-05
2.54485e-05
-3.0098e-06
2.0776e-05
7.78633e-06
1.50216e-05
1.13859e-05
8.90698e-06
1.06886e-05
4.85022e-06
8.83121e-06
2.29959e-06
6.86824e-06
1.62093e-06
4.79682e-06
1.00699e-06
2.95854e-06
9.75178e-07
1.59718e-06
1.22584e-06
7.91525e-07
1.36832e-06
5.0455e-07
1.39395e-06
5.51833e-07
1.35136e-06
5.66048e-07
1.06352e-06
5.64383e-07
6.66717e-07
4.85326e-07
4.131e-07
3.79e-07
2.23918e-07
2.77915e-07
1.26777e-07
1.89598e-07
7.94992e-08
1.29864e-07
5.71346e-08
7.61139e-08
5.16192e-08
4.93744e-08
3.31318e-08
3.75715e-08
2.12554e-08
3.06853e-08
-1.18776e-08
2.90632e-08
1.91635e-09
4.30501e-08
3.70502e-08
3.87628e-08
4.26309e-08
-9.97323e-09
2.75388e-08
1.54799e-08
3.53413e-08
1.48396e-08
1.51455e-08
9.75825e-09
-7.35206e-10
6.42285e-09
1.52672e-08
1.84459e-09
1.36672e-08
1.16353e-08
1.00815e-08
1.94649e-09
2.44474e-09
-2.78219e-09
-7.14421e-09
-9.12393e-09
-1.00369e-08
-6.08445e-09
6.70944e-05
-4.93104e-05
1.91089e-05
-3.7706e-05
2.1359e-05
-2.5836e-05
1.76137e-05
-1.54849e-05
1.61448e-05
-7.82845e-06
1.28394e-05
-3.03668e-06
9.4127e-06
-4.01891e-07
5.3519e-06
6.4208e-07
2.8564e-06
8.99074e-07
1.0991e-06
8.52148e-07
3.36208e-07
6.89477e-07
1.75982e-07
4.80501e-07
9.90528e-08
2.99559e-07
2.69427e-07
1.61404e-07
4.03625e-07
4.16479e-08
3.41978e-07
8.18954e-08
2.84317e-07
1.44237e-07
2.59121e-07
2.14071e-07
1.8488e-07
2.41067e-07
1.51101e-07
2.16116e-07
1.14459e-07
1.6617e-07
8.67363e-08
1.06619e-07
6.79079e-08
7.42341e-08
4.6962e-08
4.49236e-08
4.0613e-08
2.42147e-08
2.72479e-08
2.90158e-09
1.57215e-08
-1.97491e-08
1.80378e-08
-6.41629e-09
2.67723e-08
1.68087e-08
2.99217e-09
4.51787e-08
1.09431e-08
2.38267e-08
6.45167e-10
2.43064e-08
1.83833e-08
1.28919e-08
1.61199e-08
5.79149e-09
-3.52396e-09
1.8595e-08
7.42332e-09
6.33928e-09
5.83502e-11
9.35632e-10
-1.63905e-09
-8.23375e-09
-2.08628e-09
-1.29855e-08
-5.12881e-09
1.8415e-05
-3.07183e-05
2.98273e-06
-2.92124e-05
4.88061e-06
-2.57648e-05
5.0149e-06
-2.09254e-05
5.80222e-06
-1.70286e-05
5.57433e-06
-1.36631e-05
6.18149e-06
-9.14548e-06
5.22521e-06
-5.27068e-06
4.28078e-06
-2.57512e-06
3.07302e-06
-1.20069e-06
2.14928e-06
-7.29497e-07
1.15218e-06
-6.9712e-07
7.07965e-07
-7.30296e-07
3.71832e-07
-6.41626e-07
1.92303e-07
-3.59492e-07
2.36446e-07
-1.22889e-07
2.3407e-07
6.03191e-08
1.69577e-07
1.491e-07
1.55198e-07
1.72559e-07
1.13063e-07
1.62094e-07
8.73435e-08
1.32398e-07
6.71941e-08
1.0599e-07
5.4202e-08
6.60343e-08
4.97899e-08
4.14773e-08
3.4642e-08
2.61616e-08
2.83068e-08
1.72397e-08
-1.56059e-09
1.11701e-08
-2.35039e-08
7.82557e-09
-1.71824e-08
1.17685e-08
2.70201e-08
-7.61297e-09
2.52782e-08
1.14495e-08
3.38333e-08
1.19192e-08
1.21819e-08
7.01956e-09
-6.046e-09
3.32869e-09
1.58002e-08
5.27583e-09
1.22318e-08
7.14964e-09
1.38104e-08
-1.19446e-08
2.21089e-09
-1.16118e-09
-9.8503e-09
-1.71078e-09
-1.41566e-05
-3.84768e-05
-5.86283e-06
-2.71057e-05
1.25926e-06
-2.0494e-05
4.54214e-06
-1.52863e-05
5.29238e-06
-1.17429e-05
6.08464e-06
-9.49291e-06
5.99034e-06
-7.38178e-06
5.85516e-06
-5.09781e-06
4.66168e-06
-3.3419e-06
3.88462e-06
-2.01888e-06
2.72898e-06
-1.08403e-06
2.1392e-06
-4.25165e-07
1.61311e-06
-5.02383e-08
1.19836e-06
1.40732e-07
9.88592e-07
1.2966e-07
6.29222e-07
1.07123e-07
3.61087e-07
9.5469e-08
2.28155e-07
1.18718e-07
1.20364e-07
1.4272e-07
9.0476e-08
1.43162e-07
7.07652e-08
1.24214e-07
6.00307e-08
8.5888e-08
4.90391e-08
6.52111e-08
3.50733e-08
4.17622e-08
3.38507e-08
2.64906e-08
2.63708e-08
1.78019e-08
2.10239e-08
-1.38897e-09
5.4029e-09
-2.08341e-08
4.58303e-09
-1.42345e-08
-1.26944e-08
3.46797e-08
1.1327e-08
2.26937e-08
-2.77666e-09
1.94583e-08
1.01642e-08
9.40614e-09
1.62322e-08
3.74984e-09
1.23224e-09
1.06396e-08
5.75092e-09
6.58925e-09
1.89655e-09
2.87907e-10
-6.16338e-09
-1.04164e-08
4.87501e-09
2.42263e-05
-1.28985e-05
4.75855e-06
-1.17393e-05
4.68446e-06
-1.11112e-05
4.54985e-06
-9.89516e-06
4.06284e-06
-8.39906e-06
3.99079e-06
-7.36508e-06
3.85885e-06
-6.39713e-06
3.99651e-06
-4.91531e-06
3.52796e-06
-3.4743e-06
3.13017e-06
-2.26119e-06
2.50104e-06
-1.43687e-06
2.10549e-06
-9.50929e-07
1.4536e-06
-7.13992e-07
1.10795e-06
-5.40664e-07
6.57627e-07
-3.22392e-07
4.69597e-07
-1.14923e-07
3.67237e-07
5.06831e-08
2.5241e-07
1.26319e-07
1.98405e-07
1.37782e-07
1.23812e-07
1.21491e-07
7.72981e-08
9.72532e-08
4.75905e-08
8.46543e-08
3.60941e-08
5.72525e-08
3.488e-08
3.95555e-08
2.57824e-08
2.5714e-08
2.62488e-08
2.06481e-08
1.96708e-08
1.50554e-08
1.67386e-09
6.74334e-09
-2.48621e-08
-1.75241e-09
1.87529e-08
-8.23597e-09
1.61256e-08
-1.73458e-10
2.98821e-08
4.07964e-09
1.1752e-08
1.83535e-08
-4.22231e-09
8.44324e-09
-2.09438e-09
5.93258e-09
7.28416e-09
1.02122e-08
9.08682e-09
-1.75905e-08
6.79366e-09
5.54793e-09
2.06048e-05
-9.14487e-06
5.24193e-06
-6.89714e-06
5.05493e-06
-5.98245e-06
4.66955e-06
-5.2601e-06
4.23041e-06
-4.45896e-06
3.64373e-06
-3.87578e-06
3.4545e-06
-3.49044e-06
3.13042e-06
-3.07807e-06
2.88651e-06
-2.46936e-06
2.36262e-06
-1.89202e-06
2.11386e-06
-1.31415e-06
1.65964e-06
-7.74572e-07
1.52007e-06
-2.73916e-07
1.31161e-06
4.85473e-08
1.1592e-06
1.6324e-07
8.82325e-07
1.6483e-07
5.73172e-07
1.08575e-07
3.56866e-07
8.15928e-08
1.79973e-07
8.3087e-08
1.06263e-07
8.95397e-08
6.60784e-08
8.81596e-08
4.93436e-08
6.52886e-08
3.55811e-08
5.41201e-08
2.3118e-08
3.75566e-08
2.36994e-08
2.66743e-08
2.01278e-08
1.83847e-08
2.41468e-08
1.68572e-08
1.77475e-08
-1.52327e-09
1.1166e-08
-9.59841e-09
-2.05628e-08
1.10261e-08
-4.75884e-09
1.91967e-08
-1.03186e-08
1.49349e-08
6.69676e-09
-5.13416e-09
2.28828e-08
-3.56634e-09
8.49988e-09
-2.92922e-09
2.2692e-09
-6.21506e-10
3.04912e-09
1.02982e-08
1.50782e-05
-6.48636e-06
3.74121e-06
-5.1491e-06
3.38349e-06
-4.66e-06
3.09463e-06
-4.31557e-06
2.84727e-06
-3.88253e-06
2.50523e-06
-3.37784e-06
2.34323e-06
-3.03147e-06
2.22771e-06
-2.71579e-06
2.19112e-06
-2.21477e-06
1.95366e-06
-1.67758e-06
1.76127e-06
-1.17309e-06
1.48825e-06
-7.83705e-07
1.35429e-06
-5.41071e-07
1.03897e-06
-3.98661e-07
7.8635e-07
-2.45294e-07
5.87411e-07
-1.3224e-07
4.36049e-07
-2.33798e-08
2.96764e-07
3.85028e-08
2.24623e-07
5.86255e-08
1.38763e-07
5.76055e-08
8.16025e-08
5.02408e-08
4.17572e-08
5.49176e-08
2.65599e-08
4.36052e-08
2.43789e-08
3.48864e-08
1.73937e-08
2.38424e-08
1.97183e-08
2.09722e-08
1.94461e-08
2.09513e-08
1.58807e-08
1.79967e-08
-1.55658e-08
-1.35772e-08
-7.17178e-09
-2.8085e-08
-6.30491e-09
-2.57973e-08
1.73408e-08
-2.76655e-09
-3.9902e-09
2.09984e-08
-8.13838e-09
1.32497e-08
-9.81921e-09
1.06056e-08
6.69484e-09
1.76442e-08
1.16326e-05
-6.84964e-06
2.38121e-06
-4.26928e-06
2.9514e-06
-3.28199e-06
2.97092e-06
-2.78803e-06
2.81667e-06
-2.43266e-06
2.57796e-06
-2.05573e-06
2.29058e-06
-1.75567e-06
2.17212e-06
-1.55881e-06
2.00192e-06
-1.40253e-06
1.82978e-06
-1.18363e-06
1.5076e-06
-9.68104e-07
1.33761e-06
-7.17192e-07
1.05829e-06
-4.2814e-07
9.8471e-07
-1.55691e-07
9.33926e-07
-3.6503e-08
7.49808e-07
3.85099e-10
5.48027e-07
-3.08387e-08
3.5831e-07
-5.46003e-08
1.7873e-07
-4.21707e-08
9.66415e-08
-7.98399e-09
5.51867e-08
2.48417e-08
4.22006e-08
3.08165e-08
2.95333e-08
3.62579e-08
1.74699e-08
3.0636e-08
1.71571e-08
2.66276e-08
1.56064e-08
2.0145e-08
2.19906e-08
1.4139e-08
2.06662e-08
9.734e-10
-1.58208e-09
-1.53629e-08
-4.04535e-08
-1.77014e-08
-4.09459e-08
1.07068e-08
-1.51638e-08
5.24828e-09
9.17288e-09
-2.01015e-08
3.52844e-08
-2.06734e-09
1.57357e-08
1.26782e-05
-4.55476e-06
2.91224e-06
-3.40227e-06
2.73675e-06
-2.84494e-06
2.45044e-06
-2.53041e-06
2.18472e-06
-2.30477e-06
1.95442e-06
-2.05062e-06
1.71456e-06
-1.76402e-06
1.55554e-06
-1.56259e-06
1.45693e-06
-1.41409e-06
1.37124e-06
-1.21924e-06
1.19977e-06
-1.00419e-06
1.05285e-06
-7.84202e-07
8.84085e-07
-6.1633e-07
8.31902e-07
-4.9421e-07
5.82938e-07
-3.71214e-07
5.20168e-07
-2.64663e-07
4.0161e-07
-1.76204e-07
2.7473e-07
-1.05005e-07
2.11419e-07
-5.72808e-08
1.37833e-07
-2.82029e-08
8.66828e-08
-9.45287e-09
4.53652e-08
1.59244e-08
2.69517e-08
2.37528e-08
2.19454e-08
2.73925e-08
1.46472e-08
2.32398e-08
1.58092e-08
2.24611e-08
1.33794e-08
2.09428e-08
1.68957e-08
2.58751e-09
4.76727e-09
-2.9848e-08
-3.78698e-09
-4.41785e-08
1.48212e-08
-2.89243e-08
3.44013e-08
-3.08122e-09
-1.40907e-08
3.44117e-08
7.63172e-06
-3.00212e-06
2.30731e-06
-2.37469e-06
2.08745e-06
-1.97352e-06
1.89617e-06
-1.6661e-06
1.75018e-06
-1.48142e-06
1.61365e-06
-1.36116e-06
1.43112e-06
-1.24418e-06
1.23956e-06
-1.15869e-06
1.12026e-06
-1.12307e-06
1.00234e-06
-1.08756e-06
9.17069e-07
-9.88045e-07
7.57048e-07
-8.65158e-07
6.81521e-07
-6.79084e-07
5.43734e-07
-4.69352e-07
6.0397e-07
-3.12126e-07
5.22709e-07
-2.33365e-07
4.09684e-07
-2.02373e-07
3.05437e-07
-1.86341e-07
1.67296e-07
-1.53105e-07
9.46083e-08
-9.58652e-08
5.74334e-08
-3.53316e-08
4.78581e-08
-4.0407e-09
3.5362e-08
1.62214e-08
2.04608e-08
1.99573e-08
1.77483e-08
2.28053e-08
1.61577e-08
1.88968e-08
2.16048e-08
2.19099e-08
5.8505e-09
2.6568e-08
-1.70737e-08
2.89184e-08
-2.89344e-08
3.98269e-08
-4.17504e-08
4.59312e-08
7.69599e-06
-1.48446e-06
2.45642e-06
-1.41869e-06
2.06142e-06
-1.3715e-06
1.75171e-06
-1.23825e-06
1.50701e-06
-1.16657e-06
1.33559e-06
-1.13161e-06
1.16213e-06
-1.09722e-06
1.00726e-06
-1.03694e-06
8.74509e-07
-1.00722e-06
7.88094e-07
-9.87151e-07
7.19051e-07
-9.16196e-07
6.26179e-07
-8.04218e-07
5.53868e-07
-6.80341e-07
4.78544e-07
-5.64455e-07
4.40582e-07
-4.381e-07
3.69023e-07
-3.30987e-07
3.58097e-07
-2.38946e-07
2.73625e-07
-1.71275e-07
2.16258e-07
-1.12359e-07
1.59749e-07
-6.51295e-08
1.18321e-07
-3.62571e-08
7.29183e-08
-7.47393e-09
4.30207e-08
4.72392e-09
2.74722e-08
1.77132e-08
1.81148e-08
2.36458e-08
1.26629e-08
2.07347e-08
1.82061e-08
1.38471e-08
2.86345e-08
-7.38429e-09
4.55242e-08
2.39411e-06
-3.14714e-06
5.62813e-08
-2.14618e-06
7.33087e-07
-1.62995e-06
9.07126e-07
-1.28755e-06
9.2642e-07
-1.067e-06
8.85249e-07
-9.40058e-07
8.40673e-07
-8.5173e-07
7.64787e-07
-7.67085e-07
6.82658e-07
-7.01087e-07
6.2343e-07
-6.64861e-07
5.72949e-07
-6.30868e-07
5.27476e-07
-5.64892e-07
4.61847e-07
-4.90145e-07
4.09871e-07
-4.05019e-07
3.53184e-07
-3.37702e-07
3.45664e-07
-2.8965e-07
2.70019e-07
-2.59779e-07
2.20668e-07
-2.22209e-07
1.60314e-07
-1.59844e-07
1.09112e-07
-1.15736e-07
8.413e-08
-5.30752e-08
6.7396e-08
-2.11233e-08
4.37803e-08
-1.62662e-09
2.60199e-08
1.05735e-08
2.22918e-08
1.13121e-09
5.39712e-06
-1.43135e-06
1.72267e-06
-1.07225e-06
1.84425e-06
-9.68281e-07
1.70238e-06
-8.77723e-07
1.49553e-06
-7.57698e-07
1.30346e-06
-6.74711e-07
1.17415e-06
-6.14886e-07
1.06317e-06
-5.69355e-07
9.51808e-07
-5.17165e-07
8.55957e-07
-4.81031e-07
7.77226e-07
-4.57314e-07
7.09726e-07
-4.30632e-07
6.06835e-07
-3.90322e-07
5.24189e-07
-3.48027e-07
4.35935e-07
-3.02713e-07
3.74346e-07
-2.60225e-07
2.97184e-07
-2.04263e-07
2.45126e-07
-1.63224e-07
2.87584e-07
-3.48239e-07
)
;

boundaryField
{
    inlet
    {
        type            extrapolatedCalculated;
        value           nonuniform List<scalar> 
11
(
-1.10544e-08
-4.83641e-09
-5.15497e-09
-4.45949e-09
-4.64576e-09
-4.01041e-09
-3.80908e-09
-2.80057e-09
-2.64458e-09
-2.11975e-09
-6.08445e-09
)
;
    }
    outlet
    {
        type            extrapolatedCalculated;
        value           nonuniform List<scalar> 0();
    }
    walls
    {
        type            extrapolatedCalculated;
        value           nonuniform List<scalar> 4(3.00774e-05 7.66838e-05 -2.13394e-05 5.37253e-05);
    }
    frontAndBack
    {
        type            empty;
    }
    procBoundary6to2
    {
        type            processor;
        value           nonuniform List<scalar> 
13
(
-0.000139012
-8.89518e-05
-4.92483e-05
-7.94501e-05
-8.84355e-06
-2.28632e-05
-1.49291e-05
-1.24647e-05
-4.03266e-06
-6.7681e-06
-2.83578e-06
-6.28299e-06
-1.15353e-06
)
;
    }
    procBoundary6to3
    {
        type            processor;
        value           uniform -5.15952e-06;
    }
    procBoundary6to5
    {
        type            processor;
        value           nonuniform List<scalar> 
86
(
-8.89079e-06
-5.34297e-08
-7.60267e-06
1.01233e-06
-8.1664e-06
1.25601e-06
-9.54531e-06
1.3923e-06
-9.21533e-06
1.51216e-06
-8.57333e-06
1.64618e-06
-7.77174e-06
1.51804e-06
-7.09005e-06
1.43043e-06
-7.49349e-06
1.24159e-06
-7.21336e-06
1.00265e-06
-6.89358e-06
8.06939e-07
-5.99998e-06
9.13021e-07
-4.37479e-06
1.4714e-06
-2.98226e-06
2.09586e-06
-3.38258e-07
-1.09622e-07
1.12383e-06
-2.22955e-06
2.67617e-06
2.67617e-06
1.33993e-06
-1.04218e-06
1.02416e-06
-8.62851e-07
8.70571e-07
-7.40127e-07
8.12362e-07
-3.71154e-07
4.05737e-07
-1.13514e-07
-1.27727e-07
1.1239e-07
1.1239e-07
2.5154e-07
-1.99707e-07
1.67985e-07
-1.22571e-07
1.11672e-07
-8.901e-08
2.24427e-08
-5.20985e-08
9.54435e-08
9.54435e-08
1.08907e-07
2.19064e-08
-3.02115e-08
5.79904e-08
-1.71545e-08
1.8136e-08
1.23131e-08
1.23131e-08
1.57325e-08
6.21883e-09
2.41354e-08
-1.30882e-08
1.62916e-08
-1.4604e-08
-5.14673e-11
-5.14673e-11
-1.66698e-09
4.55767e-09
-2.82749e-10
2.83404e-09
-2.5461e-09
4.13322e-09
-1.14012e-08
-5.37808e-09
-9.27119e-09
-9.27119e-09
-6.76252e-09
-6.17845e-09
-5.61705e-09
)
;
    }
    procBoundary6to7
    {
        type            processor;
        value           nonuniform List<scalar> 
91
(
-1.29481e-08
-1.29481e-08
-1.97848e-08
-1.97848e-08
-2.12147e-08
-2.12147e-08
-1.44387e-08
-9.11448e-09
-1.44387e-08
-1.5288e-08
1.0896e-08
-9.11448e-09
-2.08083e-08
-2.72909e-09
8.64155e-09
1.0896e-08
-2.98357e-09
-7.79669e-09
2.03559e-08
-2.72909e-09
-8.29348e-09
-3.3631e-08
1.09254e-08
1.36529e-08
-7.79669e-09
-1.88143e-08
-1.88848e-08
5.05362e-08
-4.9925e-08
4.28134e-08
-3.3631e-08
-3.04824e-08
2.51899e-08
2.01626e-08
2.21634e-08
3.16826e-08
1.42698e-08
3.2401e-08
-1.88848e-08
1.25471e-08
3.00271e-07
-9.54137e-08
1.22385e-07
-5.18242e-08
9.36842e-08
-3.36968e-08
5.57135e-08
-1.97929e-08
4.71675e-08
-1.39496e-09
4.09026e-08
2.51899e-08
6.29103e-09
4.01253e-07
-1.43451e-06
-4.67442e-07
-9.8013e-07
-2.31632e-07
-7.80786e-07
-1.04426e-07
-6.23802e-07
9.70464e-09
-5.04986e-07
4.52383e-08
-4.48349e-07
8.20477e-08
-4.23229e-07
8.63767e-08
-4.13459e-07
1.09665e-07
-3.96536e-07
1.11832e-07
-3.92359e-07
1.30854e-07
-3.93977e-07
1.48049e-07
-3.8296e-07
1.59707e-07
-3.51696e-07
1.77299e-07
-3.06984e-07
1.7025e-07
-2.40467e-07
1.94716e-07
-1.70717e-07
2.04858e-07
-1.23656e-07
1.90694e-07
-8.26349e-08
3.00271e-07
1.50914e-07
)
;
    }
}


// ************************************************************************* //
