/*--------------------------------*- C++ -*----------------------------------*\
| =========                 |                                                 |
| \\      /  F ield         | OpenFOAM: The Open Source CFD Toolbox           |
|  \\    /   O peration     | Version:  2306                                  |
|   \\  /    A nd           | Website:  www.openfoam.com                      |
|    \\/     M anipulation  |                                                 |
\*---------------------------------------------------------------------------*/
FoamFile
{
    version     2.0;
    format      ascii;
    arch        "LSB;label=32;scalar=64";
    class       volScalarField;
    location    "950";
    object      turbulenceProperties:I;
}
// * * * * * * * * * * * * * * * * * * * * * * * * * * * * * * * * * * * * * //

dimensions      [0 0 0 0 0 0 0];

internalField   nonuniform List<scalar> 
1340
(
0.299225
0.307507
0.318099
0.40141
0.145245
0.154557
0.167084
0.320377
0.137358
0.1449
0.152877
0.257511
0.118666
0.130885
0.142669
0.216752
0.0834017
0.105606
0.125441
0.183959
0.0366786
0.0678534
0.0992695
0.152771
0.00955824
0.0260521
0.0646104
0.119297
0.00640383
0.00892914
0.0293739
0.0831444
0
0.00512768
0.0107625
0.0491651
0
0.000376228
0.00384929
0.0245012
0
0
0.00219229
0.0123213
4.54885e-05
0
0.000874533
0.00723002
0.000178072
5.14887e-06
0.000497936
0.00416898
0.000254393
4.68925e-05
0.000161591
0.00208811
0.000243594
0.000174905
1.95318e-05
0.000564122
0.000218379
0.00024841
1.18496e-05
0.000152039
0.000204508
0.000260074
1.90046e-05
6.12055e-07
0.000201904
0.000239604
0.000153677
2.32005e-05
0.00020284
0.000216789
0.000218261
8.02587e-05
0.000202405
0.000203707
0.000225895
0.000161459
0.000199815
0.000198289
0.000214031
0.000200382
0.00019598
0.000195413
0.000201445
0.000207548
0.000191749
0.000192259
0.000192714
0.000201598
0.00018748
0.00018823
0.00018667
0.000192701
0.000183214
0.000183614
0.000181556
0.000184294
0.00017888
0.000178741
0.00017649
0.000176822
0.000174441
0.000173787
0.000171278
0.000169974
0.00016989
0.000168793
0.000165971
0.0001635
0.000165229
0.000163755
0.00016063
0.00015728
0.000160482
0.000158688
0.000155308
0.000151293
0.000155668
0.0001536
0.00015001
0.000145519
0.000150794
0.00014851
0.000144767
0.000139946
0.000145882
0.00014342
0.000139578
0.00013457
0.000142999
0.000140947
0.000138357
0.000134455
0.000129368
0.000138098
0.000136003
0.000133332
0.000129416
0.000124334
0.00013318
0.000131072
0.000128356
0.000124469
0.00011946
0.000128266
0.000126165
0.00012344
0.000119619
0.000114738
0.000123374
0.0001213
0.000118598
0.000114874
0.000110161
0.00011852
0.000116492
0.000113841
0.000110242
0.000105725
0.000113721
0.000111754
0.000109175
0.000105726
0.000101426
0.000108993
0.000107099
0.000104613
0.000101329
9.7259e-05
0.00010435
0.000102539
0.00010016
9.70547e-05
9.32211e-05
9.98054e-05
9.80837e-05
9.5823e-05
9.2904e-05
8.93104e-05
9.53702e-05
9.37435e-05
9.16073e-05
8.888e-05
8.55221e-05
9.10538e-05
8.95254e-05
8.75185e-05
8.49827e-05
8.18565e-05
8.7966e-05
8.68653e-05
8.54349e-05
8.35592e-05
8.12119e-05
7.8311e-05
8.38382e-05
8.28115e-05
8.14788e-05
7.97329e-05
7.7569e-05
7.4884e-05
7.98521e-05
7.88968e-05
7.76599e-05
7.60415e-05
7.40539e-05
7.15743e-05
7.6012e-05
7.51258e-05
7.39813e-05
7.24856e-05
7.06655e-05
6.83805e-05
7.2321e-05
7.15002e-05
7.04442e-05
6.90665e-05
6.74035e-05
6.53021e-05
6.87808e-05
6.80222e-05
6.70495e-05
6.5783e-05
6.42669e-05
6.23376e-05
6.53911e-05
6.4691e-05
6.3797e-05
6.26352e-05
6.12548e-05
5.94857e-05
6.21517e-05
6.15061e-05
6.06852e-05
5.96208e-05
5.83656e-05
5.67456e-05
5.90607e-05
5.84655e-05
5.77126e-05
5.67385e-05
5.55974e-05
5.41155e-05
5.6542e-05
5.61153e-05
5.55669e-05
5.48763e-05
5.39854e-05
5.29482e-05
5.15941e-05
5.37084e-05
5.33122e-05
5.28066e-05
5.21734e-05
5.13588e-05
5.04157e-05
4.91793e-05
5.10161e-05
5.06481e-05
5.01815e-05
4.96004e-05
4.88554e-05
4.79972e-05
4.68689e-05
4.84616e-05
4.8119e-05
4.7688e-05
4.71541e-05
4.6472e-05
4.56901e-05
4.46611e-05
4.60403e-05
4.57208e-05
4.53218e-05
4.48306e-05
4.42056e-05
4.34918e-05
4.25534e-05
4.37454e-05
4.34474e-05
4.30777e-05
4.26252e-05
4.20517e-05
4.13989e-05
4.05434e-05
4.15665e-05
4.1289e-05
4.0947e-05
4.05305e-05
4.00046e-05
3.94071e-05
3.86278e-05
3.96987e-05
3.94899e-05
3.92327e-05
3.89176e-05
3.85355e-05
3.80543e-05
3.75079e-05
3.68004e-05
3.77021e-05
3.7507e-05
3.72688e-05
3.6979e-05
3.66292e-05
3.61903e-05
3.56919e-05
3.50525e-05
3.58008e-05
3.56167e-05
3.53946e-05
3.51266e-05
3.48055e-05
3.44048e-05
3.39502e-05
3.33738e-05
3.40029e-05
3.38263e-05
3.36161e-05
3.33655e-05
3.30682e-05
3.27002e-05
3.22839e-05
3.17648e-05
3.23014e-05
3.21286e-05
3.19257e-05
3.16873e-05
3.14075e-05
3.10644e-05
3.06781e-05
3.02054e-05
3.07608e-05
3.0594e-05
3.03993e-05
3.01724e-05
2.99078e-05
2.95838e-05
2.92203e-05
2.87806e-05
2.94676e-05
2.93065e-05
2.91205e-05
2.89053e-05
2.86548e-05
2.8347e-05
2.80022e-05
2.761e-05
2.84362e-05
2.83e-05
2.81312e-05
2.79417e-05
2.77289e-05
2.74844e-05
2.71882e-05
2.68517e-05
2.64865e-05
2.73616e-05
2.7221e-05
2.70466e-05
2.68515e-05
2.66347e-05
2.63883e-05
2.60955e-05
2.57715e-05
2.54542e-05
2.61817e-05
2.60291e-05
2.58453e-05
2.56419e-05
2.54186e-05
2.51671e-05
2.48682e-05
2.45207e-05
2.41498e-05
2.51906e-05
2.50458e-05
2.48687e-05
2.4669e-05
2.44467e-05
2.41978e-05
2.39127e-05
2.36176e-05
2.33904e-05
2.37133e-05
2.35397e-05
2.33417e-05
2.31277e-05
2.28969e-05
2.26375e-05
2.23206e-05
2.19157e-05
2.1451e-05
2.32359e-05
2.30889e-05
2.29096e-05
2.27047e-05
2.24789e-05
2.22376e-05
2.19938e-05
2.1812e-05
2.18056e-05
2.09229e-05
2.0733e-05
2.05236e-05
2.02958e-05
2.00449e-05
1.97472e-05
1.93402e-05
1.87691e-05
1.80543e-05
2.24327e-05
2.23259e-05
2.21871e-05
2.20153e-05
2.18286e-05
2.16546e-05
2.15767e-05
2.17269e-05
2.20971e-05
1.98242e-05
1.98098e-05
1.97394e-05
1.96118e-05
1.94333e-05
1.9188e-05
1.88475e-05
1.86524e-05
1.82866e-05
2.60573e-05
2.57584e-05
2.57668e-05
2.57721e-05
2.57601e-05
2.57452e-05
2.57689e-05
2.60153e-05
2.65983e-05
2.68873e-05
2.70547e-05
2.69734e-05
2.70526e-05
2.71495e-05
2.72316e-05
2.73053e-05
2.74105e-05
2.77588e-05
2.83421e-05
2.83272e-05
3.50896e-05
3.22555e-05
3.24855e-05
3.26778e-05
3.27908e-05
3.29221e-05
3.30968e-05
3.34362e-05
3.37179e-05
3.11565e-05
0.249466
0.222943
0.152649
0.227007
0.219449
0.189334
0.153472
0.114823
0.0749165
0.0389977
0.0157068
0.00702111
0.00404292
0.00202316
0.000429475
0.0001017
0
9.57608e-06
4.33352e-05
0.0001387
0.000185682
0.000196338
0.000191293
0.000182392
0.00017388
0.000166456
0.000159768
0.000153518
0.000147557
0.000141853
0.000136394
0.000131169
0.00012617
0.00012137
0.000116753
0.00011231
0.000108022
0.000103879
9.98722e-05
9.59925e-05
9.2231e-05
8.8582e-05
8.50446e-05
8.16087e-05
7.82756e-05
7.50429e-05
7.19076e-05
6.88692e-05
6.59267e-05
6.30799e-05
6.03288e-05
5.76718e-05
5.51098e-05
5.26416e-05
5.02669e-05
4.79849e-05
4.57945e-05
4.36945e-05
4.16836e-05
3.97603e-05
3.79226e-05
3.61659e-05
3.44833e-05
3.28642e-05
3.13105e-05
2.97976e-05
2.84035e-05
2.72776e-05
2.61504e-05
2.52083e-05
2.37833e-05
2.32915e-05
2.09043e-05
2.20241e-05
1.70171e-05
2.26473e-05
1.73006e-05
2.68726e-05
2.73113e-05
3.01653e-05
0.146346
0.166193
0.127214
0.0957454
0.141732
0.149122
0.135724
0.111556
0.0807881
0.0471418
0.0185205
0.00498063
0.00249585
0.00149368
0.000376091
9.98288e-05
0
5.06198e-06
2.3223e-05
0.000100682
0.000145407
0.000158628
0.000157399
0.000152033
0.000146536
0.000141689
0.00013727
0.000133043
0.000128909
0.000124863
0.000120914
0.000117066
0.000113325
0.000109677
0.000106117
0.000102644
9.92475e-05
9.59249e-05
9.26722e-05
8.94855e-05
8.63608e-05
8.32963e-05
8.02945e-05
7.73478e-05
7.44612e-05
7.1635e-05
6.88683e-05
6.61632e-05
6.35216e-05
6.09449e-05
5.84358e-05
5.5995e-05
5.3625e-05
5.13273e-05
4.91031e-05
4.69535e-05
4.48794e-05
4.28812e-05
4.09588e-05
3.91125e-05
3.73414e-05
3.56423e-05
3.40105e-05
3.24359e-05
3.09217e-05
2.9445e-05
2.80734e-05
2.6961e-05
2.58279e-05
2.49269e-05
2.34751e-05
2.30579e-05
2.05871e-05
2.18396e-05
1.66621e-05
2.24406e-05
1.69931e-05
2.65421e-05
2.69084e-05
0.103039
0.123804
0.120787
0.0844074
0.0734287
0.110793
0.119589
0.110628
0.0904788
0.0629907
0.0329171
0.00983609
0.00203597
0.000777253
1.0144e-05
2.27759e-06
0
1.14232e-06
5.20537e-06
6.4747e-05
0.000107547
0.000123226
0.000124878
0.000122246
0.000119273
0.00011677
0.000114569
0.000112437
0.000110254
0.000107998
0.000105672
0.000103287
0.000100859
9.83883e-05
9.58812e-05
9.33481e-05
9.07915e-05
8.8223e-05
8.56456e-05
8.30665e-05
8.04898e-05
7.79222e-05
7.53711e-05
7.28352e-05
7.03242e-05
6.78421e-05
6.53913e-05
6.2977e-05
6.06031e-05
5.82733e-05
5.59919e-05
5.37611e-05
5.15851e-05
4.94659e-05
4.74063e-05
4.54083e-05
4.34734e-05
4.16033e-05
3.97982e-05
3.80592e-05
3.63864e-05
3.47771e-05
3.32281e-05
3.17296e-05
3.02846e-05
2.88729e-05
2.75518e-05
2.64829e-05
2.53688e-05
2.45304e-05
2.30818e-05
2.27362e-05
2.02563e-05
2.1567e-05
1.64657e-05
2.2166e-05
1.69458e-05
2.62655e-05
0.0780051
0.0966461
0.10475
0.0955534
0.061921
0.0618582
0.0934717
0.102295
0.0957657
0.0783695
0.053479
0.0266179
0.00730871
0.000593554
0.00038081
0
0
0
1.04499e-05
4.70418e-05
9.01016e-05
0.0001095
0.000112975
0.000110632
0.000107452
0.000104861
0.000102781
0.000100911
9.9089e-05
9.72655e-05
9.54214e-05
9.35498e-05
9.16488e-05
8.97086e-05
8.77255e-05
8.57005e-05
8.36344e-05
8.15336e-05
7.94001e-05
7.72407e-05
7.50603e-05
7.28662e-05
7.06652e-05
6.84598e-05
6.62596e-05
6.40692e-05
6.18927e-05
5.97371e-05
5.76058e-05
5.55042e-05
5.34373e-05
5.14073e-05
4.94198e-05
4.74769e-05
4.55819e-05
4.37376e-05
4.19458e-05
4.02085e-05
3.85269e-05
3.69018e-05
3.53344e-05
3.38225e-05
3.2364e-05
3.09496e-05
2.95813e-05
2.82419e-05
2.69787e-05
2.59672e-05
2.48843e-05
2.41132e-05
2.26738e-05
2.24004e-05
1.99231e-05
2.12907e-05
1.62868e-05
2.19126e-05
1.68751e-05
0.0579418
0.0753804
0.0871708
0.089944
0.0794607
0.0498966
0.0526558
0.0800886
0.0889612
0.08443
0.0695644
0.0473929
0.0235278
0.0063007
0.000756489
0.00046099
0
0
0
1.53547e-05
6.47183e-05
9.66234e-05
0.000103035
0.000101567
9.88215e-05
9.63324e-05
9.43126e-05
9.25555e-05
9.08646e-05
8.91755e-05
8.74826e-05
8.57888e-05
8.40933e-05
8.23895e-05
8.06704e-05
7.89314e-05
7.71699e-05
7.53861e-05
7.35775e-05
7.17458e-05
6.98929e-05
6.80216e-05
6.61356e-05
6.42368e-05
6.23319e-05
6.04237e-05
5.85167e-05
5.66171e-05
5.47276e-05
5.28537e-05
5.10005e-05
4.9171e-05
4.73703e-05
4.56012e-05
4.3868e-05
4.21735e-05
4.05202e-05
3.89106e-05
3.73468e-05
3.58298e-05
3.43614e-05
3.29405e-05
3.15659e-05
3.02295e-05
2.89319e-05
2.76596e-05
2.64489e-05
2.54893e-05
2.44341e-05
2.37227e-05
2.22894e-05
2.20832e-05
1.96006e-05
2.1037e-05
1.60885e-05
2.17074e-05
0.0395093
0.0565454
0.0700145
0.0782449
0.0789161
0.0689659
0.0434786
0.0443775
0.0694848
0.0786361
0.075811
0.06324
0.0436911
0.0222329
0.00661208
0.000909131
0.00045409
0
0
0
1.55144e-05
6.36201e-05
8.87292e-05
8.94193e-05
8.64475e-05
8.45019e-05
8.31309e-05
8.19447e-05
8.08336e-05
7.97076e-05
7.8531e-05
7.7311e-05
7.60569e-05
7.47699e-05
7.34473e-05
7.2088e-05
7.06938e-05
6.92667e-05
6.78058e-05
6.63131e-05
6.47914e-05
6.32414e-05
6.16667e-05
6.00694e-05
5.84538e-05
5.68227e-05
5.51804e-05
5.35322e-05
5.18806e-05
5.02309e-05
4.85885e-05
4.69566e-05
4.53403e-05
4.37429e-05
4.21692e-05
4.06225e-05
3.91058e-05
3.76223e-05
3.61744e-05
3.4764e-05
3.33932e-05
3.20618e-05
3.07696e-05
2.95099e-05
2.82822e-05
2.70764e-05
2.59172e-05
2.50067e-05
2.39774e-05
2.33236e-05
2.18972e-05
2.17587e-05
1.92685e-05
2.07818e-05
0.0222199
0.0384859
0.0530194
0.0641909
0.0707064
0.0708064
0.0621156
0.0405297
0.0364371
0.0606577
0.0703359
0.069071
0.0586363
0.041459
0.0220685
0.00744065
0.000511943
0.000223337
0
0
0
1.50112e-05
6.0618e-05
8.07378e-05
7.8819e-05
7.48728e-05
7.33011e-05
7.2475e-05
7.16377e-05
7.08126e-05
7.0003e-05
6.91688e-05
6.83003e-05
6.73995e-05
6.64597e-05
6.54743e-05
6.44422e-05
6.33641e-05
6.22395e-05
6.10707e-05
5.98598e-05
5.86085e-05
5.73209e-05
5.59995e-05
5.4648e-05
5.32703e-05
5.18703e-05
5.0453e-05
4.90215e-05
4.75808e-05
4.61362e-05
4.46913e-05
4.32511e-05
4.18193e-05
4.04009e-05
3.89993e-05
3.76182e-05
3.62609e-05
3.49301e-05
3.36282e-05
3.23577e-05
3.1119e-05
2.99127e-05
2.87336e-05
2.75797e-05
2.64447e-05
2.53409e-05
2.44832e-05
2.34827e-05
2.28905e-05
2.14745e-05
2.14092e-05
0.00799916
0.0210395
0.0356345
0.0486082
0.0585422
0.0643599
0.0646574
0.0575139
0.0396566
0.0283727
0.0528251
0.0632455
0.0634871
0.0550623
0.0400505
0.0225163
0.00818166
0.000728591
0.000261533
0
0
0
1.30271e-05
5.14374e-05
7.34553e-05
7.14851e-05
6.68602e-05
6.53598e-05
6.4861e-05
6.41771e-05
6.34106e-05
6.26879e-05
6.19813e-05
6.1261e-05
6.05181e-05
5.97459e-05
5.89381e-05
5.80922e-05
5.72044e-05
5.62738e-05
5.53004e-05
5.42843e-05
5.32283e-05
5.21339e-05
5.10037e-05
4.98417e-05
4.86508e-05
4.74356e-05
4.6199e-05
4.49458e-05
4.36809e-05
4.24077e-05
4.11315e-05
3.98554e-05
3.85846e-05
3.73226e-05
3.60732e-05
3.48398e-05
3.36254e-05
3.24322e-05
3.12631e-05
3.01191e-05
2.90011e-05
2.79055e-05
2.68285e-05
2.57679e-05
2.47232e-05
2.39227e-05
2.29543e-05
0.000738751
0.00682096
0.0184664
0.031786
0.0438163
0.0531581
0.0588498
0.0597233
0.0542021
0.0397229
0.0200213
0.0455673
0.0569277
0.0586532
0.0521163
0.0391317
0.0231453
0.00915778
0.00132131
0.00035351
0
0
0
9.66411e-06
3.71499e-05
6.49872e-05
6.52795e-05
6.01874e-05
5.84372e-05
5.8254e-05
5.78616e-05
5.72306e-05
5.66015e-05
5.60022e-05
5.53958e-05
5.47654e-05
5.41063e-05
5.3417e-05
5.2693e-05
5.19323e-05
5.11335e-05
5.02958e-05
4.94202e-05
4.85073e-05
4.75588e-05
4.65768e-05
4.55636e-05
4.45233e-05
4.34578e-05
4.23713e-05
4.12682e-05
4.01513e-05
3.90258e-05
3.78945e-05
3.67621e-05
3.56323e-05
3.45086e-05
3.33946e-05
3.22931e-05
3.12064e-05
3.01374e-05
2.90873e-05
2.80576e-05
2.70463e-05
2.60471e-05
2.5063e-05
0.000366647
0.000457178
0.00504115
0.0151393
0.0273793
0.0388398
0.0479834
0.0538768
0.0555179
0.0515855
0.0400613
0.0154758
0.038626
0.0511326
0.0543194
0.0495697
0.0384438
0.023833
0.0102441
0.00202406
0.000426098
0
0
0
5.3755e-06
1.93385e-05
5.5339e-05
6.0389e-05
5.53289e-05
5.2682e-05
5.23244e-05
5.21249e-05
5.16625e-05
5.11494e-05
5.06603e-05
5.01667e-05
4.96478e-05
4.91001e-05
4.85207e-05
4.79072e-05
4.72578e-05
4.65715e-05
4.58488e-05
4.50901e-05
4.42963e-05
4.34688e-05
4.26097e-05
4.17221e-05
4.08075e-05
3.98693e-05
3.89115e-05
3.79364e-05
3.69486e-05
3.59509e-05
3.49473e-05
3.39415e-05
3.29369e-05
3.19367e-05
3.09438e-05
2.99604e-05
2.89891e-05
2.80315e-05
0
0.000307404
0.000538391
0.00327459
0.0115619
0.022708
0.0337612
0.0429341
0.0492245
0.0517252
0.0493085
0.0403524
0.0203898
0.0317631
0.0456819
0.0503122
0.0472553
0.0378383
0.0245223
0.0113775
0.00281009
0.000507541
2.01868e-05
0
0
6.01568e-07
3.6294e-08
4.14433e-05
5.3635e-05
5.08699e-05
4.7983e-05
4.73223e-05
4.71544e-05
4.68009e-05
4.63745e-05
4.59636e-05
4.55512e-05
4.51172e-05
4.46563e-05
4.41659e-05
4.3643e-05
4.30857e-05
4.24936e-05
4.1867e-05
4.1206e-05
4.05119e-05
3.97862e-05
3.90316e-05
3.82492e-05
3.7442e-05
3.66134e-05
3.57655e-05
3.49024e-05
3.40266e-05
3.31418e-05
3.22513e-05
3.13584e-05
0
0
9.52828e-05
0.000217414
0.00166453
0.00813823
0.0180113
0.0286383
0.0379398
0.0447329
0.0481342
0.0471474
0.0404355
0.0250699
0.024649
0.0404222
0.0464984
0.0450484
0.0372327
0.0251575
0.0125059
0.00366822
0.000265727
0.000100392
0
0
1.13392e-09
8.8885e-06
3.40522e-05
4.75221e-05
4.65699e-05
4.38554e-05
4.30199e-05
4.28616e-05
4.25851e-05
4.22223e-05
4.18671e-05
4.15125e-05
4.11385e-05
4.07392e-05
4.03124e-05
3.98559e-05
3.93679e-05
3.88483e-05
3.82968e-05
3.77138e-05
3.71004e-05
3.64589e-05
3.57901e-05
3.50965e-05
8.18891e-06
2.53387e-08
0
2.89263e-06
0.000584041
0.000550459
0.00511753
0.0135175
0.0235562
0.0329669
0.0403003
0.0446038
0.0449588
0.0402207
0.0283511
0.0167417
0.0352286
0.0427811
0.0428697
0.0365728
0.0256992
0.0136202
0.00457236
0.000117732
5.82777e-05
0
0
0
7.06444e-06
2.6647e-05
4.20868e-05
4.27304e-05
4.01768e-05
3.92067e-05
3.90719e-05
3.88658e-05
3.85494e-05
3.82334e-05
)
;

boundaryField
{
    inlet
    {
        type            calculated;
        value           nonuniform List<scalar> 
11
(
7.40325e-05
7.20688e-05
7.29304e-05
7.37177e-05
7.44093e-05
7.50201e-05
7.55874e-05
7.615e-05
7.67963e-05
7.52472e-05
7.72313e-05
)
;
    }
    outlet
    {
        type            calculated;
        value           nonuniform List<scalar> 0();
    }
    walls
    {
        type            calculated;
        value           uniform 0;
    }
    frontAndBack
    {
        type            empty;
    }
    procBoundary6to2
    {
        type            processor;
        value           nonuniform List<scalar> 
13
(
0.14164
0.0971447
0.0714673
0.0531309
0.0362015
0.0205363
0.00769986
0.000780187
0.000516901
0
0
7.4469e-06
3.06407e-05
)
;
    }
    procBoundary6to3
    {
        type            processor;
        value           uniform 3.33109e-05;
    }
    procBoundary6to5
    {
        type            processor;
        value           nonuniform List<scalar> 
86
(
0.296935
0.144812
0.135527
0.107723
0.0593127
0.0112878
0.00383411
0.00149942
0
0
4.88587e-05
0.000197316
0.000239358
0.000222401
0.000210477
0.000209723
0.0002106
0.000208936
0.000205482
0.000201665
0.00019806
0.000194616
0.000191131
0.000187479
0.000183634
0.000179611
0.000175428
0.000171107
0.000166661
0.000162098
0.000157434
0.000152685
0.000147867
0.000147867
0.000144743
0.000139832
0.000134895
0.000129949
0.000125014
0.000120109
0.000115252
0.00011046
0.000105748
0.000101131
9.66206e-05
9.22293e-05
9.22293e-05
8.87974e-05
8.46135e-05
8.05739e-05
7.66831e-05
7.29442e-05
6.93586e-05
6.5927e-05
6.26485e-05
5.9521e-05
5.9521e-05
5.68689e-05
5.40141e-05
5.13027e-05
4.87307e-05
4.62937e-05
4.39839e-05
4.17902e-05
4.17902e-05
3.98652e-05
3.78593e-05
3.59512e-05
3.41492e-05
3.24463e-05
3.08985e-05
2.95967e-05
2.95967e-05
2.85545e-05
2.74856e-05
2.63206e-05
2.53268e-05
2.38765e-05
2.33985e-05
2.10713e-05
2.26501e-05
1.96695e-05
1.96695e-05
2.50411e-05
2.69934e-05
3.05919e-05
)
;
    }
    procBoundary6to7
    {
        type            processor;
        value           nonuniform List<scalar> 
91
(
3.02095e-05
3.02095e-05
2.6468e-05
2.6468e-05
2.60157e-05
2.60157e-05
1.6809e-05
1.58702e-05
1.6809e-05
2.15151e-05
1.89125e-05
1.58702e-05
2.05118e-05
2.24272e-05
2.10249e-05
1.89125e-05
2.10376e-05
2.40793e-05
2.33383e-05
2.24272e-05
2.24036e-05
2.70891e-05
2.61617e-05
2.52409e-05
2.40793e-05
2.43342e-05
3.0466e-05
2.9577e-05
2.86931e-05
2.78169e-05
2.70891e-05
2.69501e-05
3.43809e-05
3.36456e-05
3.28938e-05
3.21279e-05
3.13512e-05
3.05668e-05
3.0466e-05
2.97777e-05
3.79234e-05
3.7597e-05
3.72462e-05
3.68693e-05
3.64644e-05
3.60307e-05
3.55677e-05
3.50758e-05
3.45556e-05
3.40087e-05
3.34362e-05
3.43809e-05
3.28398e-05
2.84992e-06
7.03975e-07
0
0
0.000199584
0.000286774
0.00262968
0.00938141
0.0185807
0.027985
0.0358397
0.0410286
0.0426424
0.0396661
0.0305649
0.010017
0.0299883
0.0390901
0.040663
0.0358172
0.0261286
0.0146471
0.00534539
0.000488896
0.00016857
0
0
0
5.16685e-06
1.90037e-05
3.72049e-05
3.93855e-05
3.68684e-05
3.56914e-05
3.55942e-05
3.54973e-05
3.79234e-05
3.52442e-05
)
;
    }
}


// ************************************************************************* //
