/*--------------------------------*- C++ -*----------------------------------*\
| =========                 |                                                 |
| \\      /  F ield         | OpenFOAM: The Open Source CFD Toolbox           |
|  \\    /   O peration     | Version:  2306                                  |
|   \\  /    A nd           | Website:  www.openfoam.com                      |
|    \\/     M anipulation  |                                                 |
\*---------------------------------------------------------------------------*/
FoamFile
{
    version     2.0;
    format      ascii;
    arch        "LSB;label=32;scalar=64";
    class       volVectorField;
    location    "525";
    object      momentError;
}
// * * * * * * * * * * * * * * * * * * * * * * * * * * * * * * * * * * * * * //

dimensions      [0 1 -2 0 0 0 0];

internalField   nonuniform List<vector> 
1340
(
(-7.52709e-05 0.000198148 -6.95742e-15)
(-6.99872e-05 0.000229633 2.41135e-14)
(-5.55751e-05 0.000265865 -4.72326e-14)
(-1.33227e-05 0.00024236 1.778e-14)
(9.35841e-06 0.0002437 1.10239e-13)
(2.81637e-05 0.000236812 -1.75099e-13)
(5.04525e-05 0.00025728 8.99984e-14)
(7.77925e-05 0.000263783 -1.11069e-13)
(0.000106147 0.000258992 -2.5463e-13)
(0.000123997 0.000227666 3.44117e-13)
(0.000125966 0.000182605 1.24149e-13)
(0.000122414 0.000140588 -2.28811e-13)
(0.000113193 0.000109995 -3.34526e-13)
(0.000101266 8.58279e-05 -5.72036e-14)
(8.14663e-05 6.1601e-05 -1.39768e-13)
(6.15042e-05 4.16121e-05 -3.10394e-13)
(2.99415e-07 8.49309e-06 -1.46757e-13)
(-0.000138186 -4.37986e-05 8.32706e-13)
(-9.29187e-05 -3.58776e-05 4.23307e-13)
(-0.00062663 -0.000222982 -5.95089e-13)
(-0.00167125 -0.000486558 1.05315e-13)
(-0.00205887 -0.000726048 1.53273e-13)
(-0.00258588 -0.00104242 -6.74722e-14)
(-0.0118439 -0.00173024 -1.51586e-13)
(-0.0250783 -0.00399972 3.57141e-14)
(-0.0185811 -0.00480154 -2.34989e-15)
(-0.00203796 -0.00297559 4.15496e-14)
(0.00825975 -0.00037674 -1.64622e-14)
(0.00622935 0.000588945 4.39637e-14)
(0.00337755 0.000623111 1.54495e-13)
(0.00202253 0.000408606 3.03041e-14)
(6.50822e-05 0.000255912 -1.28624e-13)
(-0.000871228 0.000161655 -7.91939e-15)
(-0.000393322 1.76868e-05 -2.15699e-13)
(-3.79717e-05 -0.000159011 -2.82306e-13)
(-8.2386e-05 0.000188383 -1.0766e-14)
(-8.40882e-05 0.000130058 2.65581e-14)
(-8.99326e-05 8.56416e-05 1.73226e-15)
(-7.92239e-05 3.37836e-05 3.61654e-14)
(-8.00568e-05 8.92583e-06 -3.2885e-14)
(-2.47027e-05 -6.80735e-05 -9.4022e-14)
(-3.08445e-06 -8.71163e-05 -1.07345e-13)
(-0.000104712 0.000187914 -1.31424e-14)
(-9.51109e-05 0.000216005 5.8845e-15)
(-7.63575e-05 0.000244229 7.8139e-15)
(-4.24431e-05 0.000233344 -3.36621e-14)
(-1.08551e-05 0.000226771 2.10326e-14)
(-1.33312e-07 0.000234259 8.03964e-14)
(3.22765e-05 0.000251896 1.03894e-13)
(5.54727e-05 0.000258578 1.00638e-13)
(8.40521e-05 0.00025051 -3.98773e-15)
(0.000100435 0.000216594 1.9068e-13)
(0.000106301 0.000175438 -2.08859e-13)
(0.000100951 0.00013141 -1.19528e-13)
(9.20979e-05 8.7908e-05 4.48617e-13)
(7.74113e-05 5.63707e-05 1.28258e-13)
(5.37416e-05 3.81393e-05 -1.19187e-13)
(4.20433e-05 2.16113e-05 -1.78004e-14)
(6.25719e-06 1.59525e-05 3.42057e-13)
(-0.000128777 2.13331e-05 -1.53339e-13)
(0.000595027 -0.000214278 -4.91942e-13)
(0.00705647 -0.0016269 1.88438e-13)
(0.0123029 -0.00353894 2.35436e-13)
(-0.000868495 0.000591732 4.67741e-14)
(-0.0577133 -0.021432 -1.30898e-13)
(-0.0255939 -0.00231093 1.92538e-13)
(0.0144344 -0.00189023 -4.19943e-14)
(0.0630137 0.00250542 -7.0462e-14)
(0.0602093 0.00550884 -3.01945e-14)
(0.0368122 0.00568027 5.5957e-15)
(0.00567767 0.00206234 -1.5005e-14)
(0.0032422 0.000693832 -1.58861e-14)
(0.00425691 0.00074549 -2.03941e-14)
(0.000291094 0.000490902 3.52746e-14)
(-0.000983499 9.27924e-05 -1.88214e-13)
(-0.000878222 -7.86319e-05 -2.24041e-13)
(-0.00037513 -0.000135289 1.62297e-13)
(-0.000112572 0.000161405 -4.63885e-15)
(-0.000129811 0.000122204 1.24099e-13)
(-0.000133685 8.023e-05 -7.98388e-15)
(-0.00013341 3.86729e-05 -1.29075e-13)
(-0.000117852 -2.02701e-06 -2.56851e-14)
(-8.43688e-05 -4.48254e-05 1.27346e-13)
(-7.9016e-05 0.000169573 -5.07371e-15)
(-7.33204e-05 0.000186098 -8.20211e-16)
(-5.49658e-05 0.000200449 -5.83697e-15)
(-2.40078e-05 0.000199529 1.55514e-14)
(-3.14053e-06 0.000196548 3.91317e-15)
(1.26815e-05 0.000212239 -3.37372e-14)
(3.36726e-05 0.000225533 -1.07609e-13)
(5.70173e-05 0.00023392 -9.54174e-14)
(8.05876e-05 0.000219156 -1.11322e-13)
(9.64987e-05 0.00019031 1.10097e-14)
(0.000101523 0.000153897 2.64052e-13)
(9.81376e-05 0.000120692 7.06209e-14)
(8.86155e-05 9.38733e-05 -9.93109e-14)
(7.60499e-05 7.11476e-05 -2.41053e-13)
(7.3614e-05 4.55527e-05 1.10245e-13)
(6.17803e-05 2.44123e-05 1.45922e-13)
(5.41139e-05 -2.47166e-05 -9.42421e-14)
(0.000111517 5.57323e-05 -1.89373e-13)
(-0.000673724 0.00184149 3.17156e-13)
(-0.00731691 0.00735807 -9.48693e-14)
(-0.00745777 0.00934123 -1.19587e-13)
(0.000987735 -0.000224285 1.78557e-13)
(0.0963163 0.0520608 7.39142e-14)
(0.00169188 0.000836418 -3.3524e-15)
(0.0161258 -0.000591544 -3.30846e-14)
(0.0205242 -0.00144247 3.55798e-15)
(-0.00477887 -0.000520679 -3.0598e-14)
(-0.0542548 -0.00121017 2.10713e-14)
(-0.0475835 -0.0027662 -3.31632e-14)
(-0.0131841 -0.000178187 -7.2099e-14)
(-0.0075524 0.00106484 6.96095e-14)
(-0.00612493 0.000233546 3.08521e-14)
(-0.000884823 -0.000366157 -1.21838e-13)
(-4.23299e-05 -0.000416332 7.82235e-14)
(-0.000115656 -0.000271751 1.65088e-14)
(-9.90886e-05 0.000141755 2.92179e-14)
(-0.000109144 0.000114295 -2.76868e-14)
(-0.000117529 7.99154e-05 -9.8343e-14)
(-0.000115798 4.89769e-05 4.48517e-14)
(-0.000104981 1.4874e-05 2.05983e-14)
(-8.70695e-05 -1.52352e-05 -6.45708e-14)
(-6.33799e-05 0.000141636 7.92673e-15)
(-5.35961e-05 0.000168648 -2.34386e-15)
(-4.23104e-05 0.000176423 6.65898e-17)
(-1.7037e-05 0.000180428 -7.13003e-15)
(-3.85773e-06 0.000183903 1.99584e-15)
(1.37753e-05 0.000199647 3.58143e-14)
(3.19599e-05 0.000215373 5.84656e-14)
(5.32381e-05 0.000214162 5.46314e-14)
(7.30079e-05 0.000200261 -1.33388e-13)
(8.60172e-05 0.000175171 -1.11642e-13)
(8.961e-05 0.000143911 1.41517e-13)
(8.75167e-05 0.000115403 2.56581e-13)
(8.04316e-05 9.05621e-05 1.35702e-13)
(7.23614e-05 6.79585e-05 -4.72147e-13)
(5.84116e-05 5.20296e-05 -1.62161e-13)
(3.04573e-05 4.3569e-05 3.8591e-13)
(6.25749e-06 3.71452e-05 8.39267e-14)
(-6.55149e-05 9.99105e-05 -1.2427e-13)
(-0.000146917 -9.84598e-05 -2.28419e-13)
(-0.000451304 -0.00261816 1.97907e-13)
(-0.00457692 -0.00633952 4.36136e-14)
(0.000129341 0.00163499 -2.22445e-13)
(-0.047385 -0.0237223 1.65592e-13)
(0.00288393 0.000252214 -1.14161e-13)
(-0.00442351 -0.00296619 -3.71978e-14)
(-0.00747867 -0.0058042 3.56447e-14)
(-0.0609617 0.00936649 -4.55843e-14)
(0.0130895 0.0059272 1.00933e-14)
(0.047144 -0.00241923 1.36289e-14)
(0.0124125 -0.00537278 2.09635e-14)
(-0.0233934 0.00234022 -9.02263e-15)
(0.00715298 -0.00147813 2.55469e-14)
(0.00752285 -0.000567364 2.07237e-13)
(0.00323722 -0.000711179 5.3462e-14)
(0.000404555 -0.000363478 -7.58496e-14)
(-8.14843e-05 0.000124887 1.88164e-14)
(-9.28192e-05 0.000106921 -3.68743e-14)
(-0.000101425 8.19247e-05 -4.04092e-15)
(-9.94278e-05 5.64723e-05 -3.37242e-14)
(-9.41766e-05 2.82304e-05 -2.08221e-14)
(-5.25102e-05 0.000124219 -4.04106e-15)
(-3.99509e-05 0.000143659 4.77979e-15)
(-2.72318e-05 0.000157041 5.65043e-17)
(-1.00682e-05 0.000163409 -4.17632e-15)
(3.33743e-06 0.000171029 -2.88316e-14)
(1.78698e-05 0.000185802 3.46357e-14)
(3.69111e-05 0.00019481 1.2634e-14)
(5.62869e-05 0.000190441 -7.01524e-14)
(7.25984e-05 0.000176297 -5.82309e-14)
(8.33426e-05 0.00015402 -1.21381e-13)
(8.63334e-05 0.000127872 1.74614e-14)
(8.39665e-05 0.000104584 -1.32354e-13)
(7.71675e-05 8.4698e-05 8.04616e-15)
(6.66615e-05 6.86807e-05 3.54352e-13)
(5.40183e-05 5.5725e-05 -2.34206e-13)
(4.26092e-05 4.14609e-05 -1.67665e-13)
(3.04474e-05 2.84633e-05 1.01579e-13)
(1.39214e-05 2.98119e-05 -1.31965e-13)
(-9.14406e-06 6.12383e-05 8.48917e-14)
(-3.75567e-05 8.56568e-05 -1.4397e-13)
(-0.000258341 -4.99984e-05 -1.61817e-13)
(-8.42554e-05 0.000311765 1.83267e-13)
(0.0010309 0.00104256 -4.05349e-14)
(0.000973708 5.49349e-05 8.96866e-14)
(0.000529934 -0.00283462 5.67709e-14)
(-0.0039556 -0.00398912 6.31542e-15)
(0.0437276 -0.00699054 1.08821e-13)
(0.00321141 0.00399903 -2.11473e-14)
(-0.0160032 0.0109908 2.25347e-14)
(0.00089984 -0.000839938 -5.53725e-14)
(-0.0133319 -0.00576707 -1.55689e-13)
(0.00409896 0.000779375 1.36571e-15)
(0.00431572 -0.000689532 1.40173e-13)
(0.00711282 -0.000585433 -3.31463e-14)
(0.00225834 -0.000294965 -1.04853e-13)
(-6.08149e-05 0.000111353 2.02826e-14)
(-7.41377e-05 9.98366e-05 1.43635e-14)
(-7.9903e-05 8.20977e-05 -3.19922e-14)
(-8.29188e-05 5.98836e-05 7.88747e-14)
(-8.0426e-05 3.69132e-05 1.86884e-13)
(-3.83197e-05 0.000111904 1.93827e-15)
(-2.97654e-05 0.000124652 5.06791e-16)
(-1.92041e-05 0.000139521 3.16249e-15)
(-5.48399e-06 0.00015286 -2.45878e-15)
(6.53995e-06 0.00016017 -1.08435e-15)
(2.10369e-05 0.000172034 1.63381e-14)
(3.91234e-05 0.000177537 7.60514e-15)
(5.60955e-05 0.000170695 4.04773e-14)
(7.01982e-05 0.000158304 6.79653e-14)
(7.88104e-05 0.000138825 -3.20432e-14)
(8.10559e-05 0.000117254 -7.79472e-15)
(7.86429e-05 9.84892e-05 7.50086e-14)
(7.23922e-05 8.26114e-05 -1.45507e-13)
(6.26006e-05 6.95247e-05 -2.89384e-13)
(5.1021e-05 5.87363e-05 1.75229e-13)
(3.66797e-05 5.10214e-05 2.68354e-13)
(1.44565e-05 5.67182e-05 -3.55848e-13)
(-6.16825e-06 6.99261e-05 6.06679e-14)
(-2.21256e-05 7.55824e-05 1.11899e-13)
(-6.6889e-05 4.91519e-05 -1.12965e-13)
(-0.000190031 9.22598e-05 8.56211e-14)
(-0.000212465 0.000494533 -8.73357e-14)
(0.000416657 0.000978564 -1.69251e-13)
(0.00135263 -1.53129e-05 -5.03159e-14)
(0.00104243 -0.00234488 -1.16204e-13)
(-0.000800015 -0.00283647 5.63234e-14)
(-0.00125484 -0.000780474 -1.62129e-14)
(-0.00580009 0.00252705 -1.09013e-14)
(-0.00196485 0.00293815 2.13823e-14)
(-0.0236607 0.00450263 4.23932e-14)
(0.0174129 -0.00300433 3.28948e-14)
(-0.00812956 -0.00030411 -4.52613e-14)
(-0.000591894 -0.000457221 -1.16442e-13)
(0.00192193 3.82926e-05 -1.48656e-13)
(0.00201777 0.000149602 3.37772e-14)
(-4.70302e-05 0.000102191 8.5949e-15)
(-5.63739e-05 9.49817e-05 -2.06929e-14)
(-6.28139e-05 8.03381e-05 1.04909e-14)
(-6.64493e-05 6.12369e-05 -5.8338e-15)
(-2.31437e-05 9.99638e-05 3.09102e-15)
(-1.81608e-05 0.00011378 5.82452e-16)
(-1.15617e-05 0.00012742 -1.1264e-15)
(4.73598e-07 0.000141862 4.16962e-15)
(1.21741e-05 0.000149673 -8.69019e-15)
(2.59352e-05 0.000157351 -1.09432e-15)
(4.32549e-05 0.000158091 2.35995e-14)
(5.81965e-05 0.000151522 -1.11468e-14)
(7.03882e-05 0.000139635 -3.96142e-14)
(7.7756e-05 0.00012298 2.65385e-14)
(7.95165e-05 0.000105106 -6.07785e-14)
(7.7587e-05 8.98977e-05 -1.50861e-13)
(7.14838e-05 7.74722e-05 1.06603e-13)
(6.20478e-05 6.70246e-05 3.77166e-13)
(5.00703e-05 5.92361e-05 -1.38922e-14)
(3.64065e-05 5.39383e-05 -4.01368e-13)
(2.43832e-05 5.10029e-05 3.32533e-13)
(1.0766e-05 5.43823e-05 2.33369e-13)
(-6.46293e-06 5.97913e-05 1.24569e-13)
(-2.94446e-05 6.08566e-05 5.87362e-14)
(-9.87374e-05 9.9749e-05 -2.88417e-14)
(-8.42187e-05 0.000400648 1.61935e-13)
(0.000430451 0.000813927 1.11966e-13)
(0.00101119 0.000250959 -1.01888e-14)
(0.000294201 -0.00124495 2.14257e-13)
(-0.00137439 -0.00151452 -6.57046e-14)
(-0.00220355 6.94412e-05 -7.65321e-15)
(-2.40101e-05 0.00138201 5.67703e-15)
(0.00173866 0.00159104 -2.01421e-14)
(0.0043987 0.000373885 -2.08064e-14)
(0.00180025 -0.000620253 -1.5257e-14)
(-0.00190075 -0.000580754 4.77715e-14)
(-0.00253622 -0.000355888 -2.27679e-14)
(-0.00101793 0.000125893 -1.27981e-13)
(-0.000512163 0.00058779 -2.08073e-14)
(-3.32759e-05 9.42161e-05 -9.66502e-15)
(-4.15725e-05 8.92385e-05 1.2194e-14)
(-4.96203e-05 7.72728e-05 -2.61343e-14)
(-5.54181e-05 5.91789e-05 -3.94507e-15)
(-1.64429e-05 9.1881e-05 1.40113e-15)
(-1.24784e-05 0.000106649 1.51054e-15)
(-5.87026e-06 0.000120348 -9.49551e-16)
(5.81436e-06 0.000132415 -1.91882e-15)
(1.66465e-05 0.000138605 -3.80277e-15)
(3.07156e-05 0.000145566 1.65054e-14)
(4.58404e-05 0.00014432 1.38751e-14)
(5.91855e-05 0.000136112 -5.19114e-14)
(6.94465e-05 0.000124987 2.17311e-14)
(7.55875e-05 0.000110805 1.11285e-13)
(7.74928e-05 9.55612e-05 4.63176e-14)
(7.58707e-05 8.38717e-05 2.13133e-14)
(7.05202e-05 7.40677e-05 -1.87882e-13)
(6.15668e-05 6.58428e-05 -4.29855e-13)
(5.00252e-05 5.95862e-05 -3.04036e-13)
(3.73655e-05 5.54545e-05 1.20067e-13)
(2.44535e-05 5.61493e-05 -7.38522e-14)
(9.12931e-06 6.46856e-05 -3.77114e-13)
(-7.85956e-06 7.48725e-05 -1.94584e-13)
(-2.75878e-05 9.17138e-05 1.60888e-13)
(-7.00999e-05 0.000143616 1.60969e-13)
(-3.12516e-05 0.000367013 -9.33448e-14)
(0.000364341 0.000621903 -3.83133e-14)
(0.0007712 0.000140067 2.39894e-15)
(0.000221517 -0.000957309 -6.09651e-14)
(-0.0010489 -0.00103242 6.32922e-14)
(-0.00139398 0.000310931 7.21974e-15)
(-0.00058714 0.00138213 4.32083e-15)
(0.000533742 0.00123766 -4.41498e-15)
(0.00120524 0.000601213 5.21806e-14)
(0.00174183 -0.000172225 3.49626e-14)
(0.000287501 -0.000530056 -3.4449e-15)
(-0.000967318 -0.000404655 1.13108e-13)
(-0.000931722 -0.000211257 7.80691e-14)
(0.000882701 -0.00198655 -4.04135e-14)
(-2.45281e-05 8.57856e-05 7.39127e-15)
(-3.39127e-05 8.27143e-05 -1.20441e-14)
(-4.28959e-05 6.97249e-05 3.26933e-15)
(-5.05775e-05 5.36314e-05 6.10927e-14)
(-1.47755e-05 8.38904e-05 2.41731e-15)
(-8.6803e-06 9.55576e-05 4.02435e-15)
(-3.21828e-06 0.000113665 -1.76075e-16)
(8.876e-06 0.000122401 2.1522e-19)
(2.06809e-05 0.000122667 -2.54026e-15)
(3.33972e-05 0.000132225 -6.73417e-15)
(4.7894e-05 0.000130096 -4.93856e-15)
(5.99864e-05 0.000124574 -5.2368e-14)
(6.87175e-05 0.000114641 -1.00713e-15)
(7.36125e-05 0.00010082 1.92803e-14)
(7.55306e-05 8.74622e-05 -2.32914e-14)
(7.55797e-05 7.7441e-05 1.41246e-13)
(7.06991e-05 6.9793e-05 1.49071e-13)
(6.2513e-05 6.3039e-05 2.69491e-14)
(5.15684e-05 5.78248e-05 2.76871e-13)
(3.91709e-05 5.50123e-05 -5.76105e-14)
(2.71956e-05 5.58675e-05 -7.29773e-16)
(1.61247e-05 5.99135e-05 2.14469e-13)
(2.38023e-06 7.04538e-05 9.99258e-14)
(-1.17274e-05 8.98489e-05 -2.94233e-14)
(-2.96432e-05 0.000136771 -1.21911e-13)
(1.9338e-05 0.00028241 -1.15867e-14)
(0.000296663 0.000423869 -9.36596e-14)
(0.00056083 5.8758e-05 -8.1038e-14)
(0.000130461 -0.000717942 4.88754e-14)
(-0.000838303 -0.000730838 -3.10924e-14)
(-0.00116644 0.000362602 -5.64895e-14)
(-0.000381277 0.00121774 6.45113e-15)
(0.000665585 0.00101759 -3.1152e-15)
(0.00130098 0.000341903 -3.83241e-15)
(0.00133202 -0.000242995 8.20593e-14)
(0.000734199 -0.000519526 -2.93309e-14)
(-0.000124541 -0.000414047 -3.90374e-14)
(-0.000584053 -0.000161594 2.27051e-13)
(0.000759812 -0.000275079 3.70597e-14)
(-2.23343e-05 7.87787e-05 -1.31444e-14)
(-3.05473e-05 7.40401e-05 -3.10176e-14)
(-4.00609e-05 6.37473e-05 5.06888e-14)
(2.12518e-05 0.000114616 9.00192e-15)
(3.45425e-05 0.00011133 -2.93906e-15)
(4.72611e-05 0.000115432 2.92742e-14)
(5.92352e-05 0.000112804 2.04786e-14)
(6.68527e-05 0.000104928 5.16008e-15)
(7.2216e-05 9.41832e-05 -1.7069e-15)
(7.41815e-05 8.07452e-05 7.12004e-15)
(7.43646e-05 7.22091e-05 -3.14154e-14)
(7.15706e-05 6.5918e-05 -1.37085e-13)
(6.37084e-05 5.98494e-05 3.64126e-14)
(5.36372e-05 5.5394e-05 1.8814e-14)
(4.17665e-05 5.30622e-05 5.25268e-14)
(3.05348e-05 5.38312e-05 -4.53497e-16)
(1.97107e-05 5.96937e-05 -9.4064e-14)
(8.44843e-06 7.23377e-05 -1.38998e-13)
(-1.4798e-06 9.24507e-05 -1.19687e-13)
(-5.60133e-06 0.000133134 -6.96968e-14)
(4.24964e-05 0.000230086 -5.64245e-14)
(0.000238499 0.00029577 1.91327e-14)
(0.00040747 9.41082e-07 6.7224e-14)
(7.88686e-05 -0.000562399 -3.61852e-14)
(-0.0006413 -0.000550251 -1.3766e-14)
(-0.000861708 0.000307558 4.44591e-14)
(-0.000197361 0.00102017 2.10508e-15)
(0.000649212 0.000875264 2.45305e-14)
(0.00102561 0.000278032 -3.05758e-14)
(0.000918573 -0.000261005 -1.01142e-13)
(0.000512537 -0.000505273 -5.51578e-14)
(3.35285e-05 -0.000414311 3.49528e-14)
(-0.000378413 -0.000178984 -1.5019e-14)
(-0.000378299 2.16951e-05 2.03711e-14)
(4.65351e-05 0.000103785 -3.581e-15)
(5.54835e-05 9.40688e-05 -2.51515e-14)
(6.39062e-05 9.51955e-05 -5.04028e-14)
(6.98582e-05 8.47192e-05 2.86055e-14)
(7.27514e-05 7.64125e-05 2.54463e-14)
(7.42708e-05 6.83816e-05 1.48726e-14)
(7.19316e-05 6.19844e-05 6.21604e-14)
(6.56065e-05 5.64978e-05 4.23968e-15)
(5.61726e-05 5.21554e-05 3.3348e-14)
(4.49912e-05 4.99906e-05 -5.10102e-14)
(3.40854e-05 5.04803e-05 -5.4952e-14)
(2.459e-05 5.55674e-05 6.4311e-14)
(1.64429e-05 6.73358e-05 1.26944e-13)
(1.06593e-05 8.58341e-05 6.41835e-14)
(1.36128e-05 0.000117587 4.55233e-14)
(5.69972e-05 0.000179446 3.34392e-14)
(0.000192958 0.000204569 6.3147e-14)
(0.000292586 -1.98512e-05 -3.60479e-14)
(3.63754e-05 -0.000417477 -5.67999e-14)
(-0.000496949 -0.000397224 3.56761e-15)
(-0.000662644 0.000256906 -1.98226e-14)
(-0.000138891 0.00083538 -6.76142e-15)
(0.000569356 0.00075051 -4.18716e-14)
(0.000885844 0.000245959 2.24091e-14)
(0.000731464 -0.000243259 5.69523e-14)
(0.000361877 -0.000474086 1.25275e-13)
(5.16326e-05 -0.000404111 1.23567e-14)
(-0.000154814 -0.000203193 -1.15972e-13)
(-0.000207657 -1.05791e-05 2.2701e-15)
(5.9606e-05 8.35591e-05 -6.97183e-14)
(6.22362e-05 6.67083e-05 -7.26876e-14)
(7.26812e-05 7.45757e-05 -1.3191e-14)
(7.23634e-05 6.39355e-05 -3.21642e-14)
(7.25369e-05 5.92843e-05 7.23979e-14)
(6.70866e-05 5.30634e-05 -2.92286e-14)
(5.87192e-05 4.88107e-05 -1.44818e-13)
(4.84502e-05 4.63005e-05 1.01109e-13)
(3.79229e-05 4.64074e-05 9.97248e-14)
(2.92711e-05 5.06797e-05 -5.34645e-15)
(2.29365e-05 6.15455e-05 -1.5751e-13)
(2.0372e-05 7.81966e-05 -1.28566e-13)
(2.64414e-05 0.00010123 6.84404e-14)
(6.32262e-05 0.000138241 1.07518e-13)
(0.000156079 0.000139373 -3.91569e-14)
(0.000210904 -2.94746e-05 -1.51391e-14)
(1.25518e-05 -0.000304878 -1.08544e-14)
(-0.000378919 -0.000275773 7.1525e-16)
(-0.000502268 0.000220798 -1.02558e-14)
(-9.44817e-05 0.000681759 4.37248e-15)
(0.000492472 0.000637178 6.88289e-15)
(0.000781473 0.000223511 -2.79159e-14)
(0.000648922 -0.000208956 -1.53714e-14)
(0.000306727 -0.000424924 -2.90564e-14)
(4.70519e-05 -0.000375887 -1.75881e-13)
(-5.41826e-05 -0.000206839 -1.05622e-14)
(-7.13012e-05 -3.18234e-05 6.21861e-14)
(5.99885e-05 6.68308e-05 -1.29143e-13)
(6.16559e-05 5.40259e-05 3.31761e-14)
(7.45337e-05 6.62731e-05 1.13825e-13)
(7.12648e-05 5.46411e-05 -7.85721e-14)
(6.82462e-05 4.98862e-05 -6.54237e-14)
(6.09121e-05 4.54083e-05 8.22986e-14)
(5.16497e-05 4.23382e-05 -1.48634e-13)
(4.18915e-05 4.18648e-05 1.24895e-14)
(3.37031e-05 4.48616e-05 2.11844e-13)
(2.88851e-05 5.38102e-05 8.33493e-14)
(2.8626e-05 6.85878e-05 1.47033e-13)
(3.57282e-05 8.41596e-05 -3.25669e-14)
(6.51119e-05 0.000104518 -9.97093e-14)
(0.000127075 9.34047e-05 2.22645e-14)
(0.000153114 -3.0632e-05 5.13017e-14)
(1.25942e-06 -0.000217118 4.03145e-14)
(-0.000282992 -0.00018246 2.74456e-15)
(-0.000370932 0.000192446 2.26924e-14)
(-5.58078e-05 0.000556196 -4.35788e-15)
(0.0004216 0.000537148 1.46641e-14)
(0.000681851 0.000203469 1.44837e-14)
(0.000586032 -0.000171763 6.59595e-16)
(0.000287405 -0.000369092 -7.27212e-14)
(4.89491e-05 -0.000337698 6.7167e-15)
(-2.23314e-05 -0.000194826 1.43264e-13)
(1.33286e-05 -5.05207e-05 9.93908e-14)
(5.926e-05 5.40283e-05 6.09829e-15)
(6.54759e-05 4.92045e-05 -1.82432e-15)
(7.38596e-05 5.59493e-05 4.82409e-14)
(6.77634e-05 4.58745e-05 -2.60452e-14)
(6.28577e-05 4.21673e-05 5.76901e-14)
(5.42789e-05 3.83421e-05 2.32846e-13)
(4.54525e-05 3.70069e-05 -6.85719e-14)
(3.77416e-05 3.87991e-05 -5.85598e-14)
(3.37361e-05 4.59419e-05 2.7092e-14)
(3.50214e-05 5.83492e-05 -3.62114e-14)
(4.19958e-05 6.8648e-05 1.62665e-14)
(6.45701e-05 7.77551e-05 1.46943e-14)
(0.00010471 6.17698e-05 -2.73916e-14)
(0.000113336 -2.81943e-05 -1.43005e-14)
(-1.7778e-06 -0.000150997 -2.81001e-14)
(-0.000205557 -0.000114306 3.27029e-15)
(-0.000265973 0.000168707 3.22246e-15)
(-2.30407e-05 0.000452875 1.71419e-15)
(0.000360577 0.000450396 -1.78332e-15)
(0.000588554 0.000183594 -1.75387e-14)
(0.000525403 -0.000137151 5.06858e-15)
(0.000277438 -0.000315549 7.22808e-14)
(6.33613e-05 -0.000298757 8.3159e-14)
(-6.08305e-06 -0.000178132 -1.66964e-13)
(4.38002e-05 -5.33307e-05 -2.47372e-13)
(6.03607e-05 5.21928e-05 4.15141e-14)
(5.95913e-05 4.22404e-05 2.33553e-14)
(7.16993e-05 5.10217e-05 -1.69822e-14)
(6.78466e-05 4.29592e-05 1.91843e-14)
(6.42251e-05 3.85616e-05 9.76339e-15)
(5.65623e-05 3.44053e-05 -3.74977e-14)
(4.85198e-05 3.2137e-05 5.73932e-14)
(4.15332e-05 3.29192e-05 -1.57664e-13)
(3.77445e-05 3.83225e-05 -2.20164e-13)
(3.97093e-05 4.80135e-05 -9.04123e-14)
(4.63657e-05 5.50919e-05 1.69243e-14)
(6.30408e-05 5.72448e-05 9.73626e-15)
(8.81314e-05 4.05347e-05 2.63439e-14)
(8.69825e-05 -2.3417e-05 4.52241e-14)
(4.93614e-07 -0.000101571 -2.27311e-14)
(-0.000143431 -6.53693e-05 -1.98893e-14)
(-0.000182792 0.000147706 6.96144e-16)
(4.84559e-06 0.000367489 -6.97702e-15)
(0.00031065 0.000374462 4.96286e-15)
(0.000506649 0.000162289 5.40259e-14)
(0.000468421 -0.000108744 4.56724e-14)
(0.000268522 -0.000269495 -1.85575e-14)
(8.43204e-05 -0.000264832 -1.73672e-14)
(1.4892e-05 -0.000166012 1.06664e-13)
(5.92055e-05 -5.79575e-05 2.06967e-13)
(6.01181e-05 4.4933e-05 1.06423e-14)
(6.02462e-05 3.58687e-05 -1.3202e-14)
(7.09944e-05 4.30338e-05 3.43365e-14)
(6.40691e-05 3.44217e-05 -3.71147e-15)
(5.842e-05 3.02846e-05 -1.58009e-13)
(5.10391e-05 2.74078e-05 -5.08947e-14)
(4.48561e-05 2.73826e-05 1.92063e-13)
(4.12645e-05 3.12665e-05 3.43129e-15)
(4.2931e-05 3.86539e-05 5.68647e-14)
(4.93003e-05 4.34038e-05 1.20088e-14)
(6.09817e-05 4.1901e-05 8.10408e-14)
(7.63766e-05 2.63619e-05 1.60166e-14)
(7.01357e-05 -1.77205e-05 -1.13302e-14)
(6.05896e-06 -6.55874e-05 5.91851e-16)
(-9.40367e-05 -3.09777e-05 2.34002e-14)
(-0.000117513 0.000128538 -7.99693e-15)
(2.76915e-05 0.000297243 6.33272e-15)
(0.000270235 0.00030801 -1.84104e-15)
(0.000436323 0.000140539 -1.53537e-14)
(0.000416069 -8.72054e-05 -4.35963e-14)
(0.000257739 -0.000230811 -4.2227e-14)
(0.000103618 -0.000236271 -6.37745e-15)
(3.80158e-05 -0.000158158 1.84781e-14)
(7.12694e-05 -6.53996e-05 -7.5597e-14)
(5.90864e-05 3.67528e-05 9.87957e-16)
(6.14618e-05 3.07217e-05 2.03496e-14)
(6.76868e-05 3.40671e-05 -2.73925e-14)
(5.85742e-05 2.55914e-05 1.39086e-15)
(5.32898e-05 2.31975e-05 -3.54642e-14)
(4.7634e-05 2.23848e-05 -1.11733e-13)
(4.41914e-05 2.49943e-05 8.70886e-14)
(4.5258e-05 3.03768e-05 -3.19975e-14)
(5.13065e-05 3.38269e-05 -5.95439e-14)
(5.90897e-05 3.0603e-05 -9.3877e-14)
(6.84216e-05 1.74141e-05 -3.16425e-14)
(6.03162e-05 -1.21875e-05 -3.53826e-14)
(1.35697e-05 -3.95567e-05 4.00273e-14)
(-5.47062e-05 -7.85684e-06 1.04221e-14)
(-6.65365e-05 0.000111206 -1.9895e-14)
(4.62171e-05 0.000239269 6.08952e-15)
(0.000237562 0.000250651 2.27505e-14)
(0.000376774 0.000118809 -3.12274e-14)
(0.000369375 -7.11948e-05 -3.98124e-14)
(0.000246066 -0.000198612 2.37451e-14)
(0.000119472 -0.000212067 2.21698e-14)
(6.01768e-05 -0.000153227 -1.16801e-14)
(8.198e-05 -7.56493e-05 -4.78597e-14)
(5.88853e-05 3.56605e-05 -2.24607e-14)
(5.62422e-05 2.56898e-05 -3.15874e-14)
(6.61013e-05 2.9645e-05 5.29245e-14)
(5.88849e-05 2.17898e-05 3.58947e-14)
(5.46961e-05 1.88395e-05 2.06218e-14)
(4.99625e-05 1.8023e-05 9.64533e-14)
(4.65549e-05 1.96534e-05 -5.56955e-14)
(4.70155e-05 2.33868e-05 8.7326e-14)
(5.25174e-05 2.62174e-05 6.90811e-15)
(5.75597e-05 2.23348e-05 1.2699e-14)
(6.31719e-05 1.18752e-05 1.08839e-13)
(5.52722e-05 -7.52982e-06 2.35735e-14)
(2.17251e-05 -2.14163e-05 -4.37133e-14)
(-2.35955e-05 6.48354e-06 -2.99285e-14)
(-2.73018e-05 9.5235e-05 3.62108e-15)
(6.06258e-05 0.000191155 -3.73355e-15)
(0.000210875 0.000201445 -6.55408e-15)
(0.000326344 9.79096e-05 1.44152e-14)
(0.000327737 -5.94763e-05 3.97881e-14)
(0.000233436 -0.000171456 1.82962e-14)
(0.000130677 -0.000191311 3.30505e-14)
(7.86814e-05 -0.000149138 3.9182e-15)
(9.24398e-05 -8.66013e-05 5.74034e-15)
(5.61998e-05 2.63266e-05 -3.78052e-14)
(5.61008e-05 1.89081e-05 -3.02668e-14)
(6.2326e-05 2.06924e-05 4.47409e-15)
(5.47692e-05 1.4877e-05 -6.34299e-14)
(5.20406e-05 1.45478e-05 -9.33958e-14)
(4.85992e-05 1.53477e-05 1.97773e-14)
(4.83687e-05 1.77977e-05 -2.00571e-14)
(5.29664e-05 1.99788e-05 5.90282e-14)
(5.66304e-05 1.65781e-05 -5.67834e-14)
(6.01175e-05 8.40926e-06 -9.09064e-14)
(5.34659e-05 -3.65098e-06 -1.67955e-14)
(3.00994e-05 -9.31308e-06 2.59418e-14)
(9.92562e-07 1.47335e-05 1.71596e-14)
(2.94502e-06 8.03396e-05 1.33761e-14)
(7.17201e-05 0.000151432 -2.45076e-16)
(0.000189305 0.00015941 -1.28257e-15)
(0.000284043 7.8312e-05 -2.18217e-15)
(0.000291504 -5.12302e-05 -1.27378e-14)
(0.00022095 -0.000148361 -1.5193e-14)
(0.000138918 -0.000173251 -1.78592e-15)
(9.40351e-05 -0.000145056 5.82895e-15)
(0.000100688 -9.73079e-05 3.47595e-14)
(5.60647e-05 2.46961e-05 -9.84656e-14)
(5.13773e-05 1.49418e-05 -5.03379e-14)
(6.05212e-05 1.69707e-05 1.60347e-14)
(5.50395e-05 1.17591e-05 -1.9404e-14)
(5.33052e-05 1.13432e-05 5.1274e-14)
(5.04741e-05 1.19177e-05 8.31392e-14)
(4.94116e-05 1.35219e-05 -1.50067e-14)
(5.28333e-05 1.49165e-05 -4.82204e-14)
(5.61107e-05 1.23646e-05 5.03099e-14)
(5.84219e-05 6.22149e-06 -3.95463e-14)
(5.35943e-05 -8.58743e-07 4.39508e-14)
(3.79453e-05 -1.77345e-06 -2.08077e-15)
(2.0168e-05 1.82845e-05 2.46835e-15)
(2.57127e-05 6.64557e-05 -4.14469e-15)
(7.97155e-05 0.000118191 -1.0816e-15)
(0.000171436 0.000123714 2.73113e-15)
(0.00024841 5.99375e-05 2.23677e-15)
(0.000259595 -4.56363e-05 4.99877e-15)
(0.000208064 -0.000129587 1.43265e-14)
(0.000143413 -0.000157644 -3.66658e-14)
(0.000105092 -0.000141676 -3.9143e-14)
(0.000107333 -0.000107214 3.03238e-14)
(5.24281e-05 1.54764e-05 -7.33935e-14)
(5.02804e-05 8.9717e-06 5.64392e-14)
(5.84979e-05 1.10866e-05 4.81803e-14)
(5.36142e-05 8.46608e-06 -1.86071e-14)
(5.20712e-05 9.54918e-06 -5.08358e-15)
(5.02977e-05 1.03496e-05 -9.66929e-15)
(5.25985e-05 1.11194e-05 -7.43759e-14)
(5.59338e-05 9.19224e-06 1.19145e-14)
(5.76202e-05 4.93835e-06 1.00259e-13)
(5.49474e-05 9.76897e-07 -3.38513e-14)
(4.50457e-05 2.69322e-06 -1.16595e-14)
(3.52425e-05 1.87519e-05 -3.1134e-14)
(4.2841e-05 5.38661e-05 6.32427e-15)
(8.55103e-05 9.06072e-05 -2.80391e-15)
(0.000156792 9.37827e-05 -1.22078e-14)
(0.000218893 4.32637e-05 -1.80775e-14)
(0.000232116 -4.20635e-05 -6.48006e-15)
(0.00019572 -0.000114278 1.39242e-14)
(0.00014578 -0.00014401 5.12655e-14)
(0.000113471 -0.000138238 3.3138e-14)
(0.000111217 -0.000115726 -3.85774e-14)
(5.25923e-05 1.42062e-05 9.87421e-14)
(4.70838e-05 6.78742e-06 4.01051e-14)
(5.70034e-05 7.70135e-06 -5.10087e-14)
(5.38445e-05 6.41117e-06 -3.5994e-15)
(5.3263e-05 7.48071e-06 3.82997e-14)
(5.10044e-05 7.88265e-06 -2.75288e-14)
(5.22807e-05 8.10725e-06 7.68171e-14)
(5.58542e-05 6.69956e-06 7.52069e-14)
(5.73117e-05 3.88469e-06 -2.51736e-14)
(5.66876e-05 1.9679e-06 1.14157e-14)
(5.10856e-05 4.6944e-06 1.76013e-14)
(4.66829e-05 1.71745e-05 2.72176e-14)
(5.5263e-05 4.21849e-05 3.80735e-16)
(8.90909e-05 6.7655e-05 -5.90288e-15)
(0.000144343 6.84766e-05 7.78013e-15)
(0.000194088 2.83612e-05 1.64835e-14)
(0.000207993 -4.04941e-05 -1.2908e-14)
(0.000183237 -0.000102274 -2.41566e-14)
(0.000145132 -0.000132862 -5.47129e-14)
(0.000118005 -0.000135443 -5.97033e-14)
(0.000113023 -0.00012378 1.09882e-14)
(4.85264e-05 6.73561e-06 2.83247e-14)
(4.78357e-05 3.43263e-06 5.65427e-14)
(5.81818e-05 6.42743e-06 1.33093e-14)
(5.32562e-05 6.00601e-06 7.98824e-15)
(5.17138e-05 6.27038e-06 -3.00914e-14)
(5.19326e-05 5.79126e-06 -5.32615e-14)
(5.58458e-05 4.80394e-06 -3.09719e-14)
(5.73242e-05 3.02287e-06 -2.81731e-14)
(5.84987e-05 2.35175e-06 -3.34642e-14)
(5.61699e-05 5.15381e-06 -2.48987e-14)
(5.53823e-05 1.45552e-05 -1.80405e-14)
(6.43075e-05 3.1835e-05 -4.90597e-16)
(9.1223e-05 4.88632e-05 1.03081e-14)
(0.000134011 4.76056e-05 -2.96143e-15)
(0.000173604 1.5508e-05 -3.38128e-15)
(0.000187377 -4.00885e-05 1.59781e-14)
(0.000171434 -9.26908e-05 -8.73641e-15)
(0.000143006 -0.000123483 -6.48072e-14)
(0.000120489 -0.000132259 -4.29672e-14)
(0.000112432 -0.000130174 -3.03175e-15)
(4.84862e-05 6.0753e-06 9.71763e-15)
(4.67514e-05 3.33546e-06 -1.79268e-14)
(5.68948e-05 6.47183e-06 4.20104e-15)
(5.34792e-05 5.81862e-06 -1.47874e-14)
(5.17046e-05 4.99083e-06 4.85849e-14)
(5.13585e-05 3.90561e-06 2.85377e-14)
(5.56693e-05 3.1251e-06 -3.61143e-14)
(5.72455e-05 2.13268e-06 6.02941e-15)
(6.00277e-05 2.02845e-06 2.41335e-14)
(6.00729e-05 4.52002e-06 -2.1034e-15)
(6.1627e-05 1.11332e-05 9.89857e-15)
(7.0357e-05 2.25969e-05 2.924e-15)
(9.18359e-05 3.31733e-05 -4.64866e-15)
(0.00012491 3.03336e-05 -1.67994e-15)
(0.00015622 4.1581e-06 -3.1682e-15)
(0.000169247 -4.071e-05 -1.24166e-14)
(0.000159591 -8.56987e-05 -5.38331e-15)
(0.000138653 -0.000115911 4.24551e-14)
(0.000119726 -0.000129666 6.71125e-14)
(0.000109945 -0.000135951 6.92062e-15)
(4.72981e-05 6.71152e-06 1.0908e-14)
(4.51707e-05 4.52306e-06 -1.47512e-14)
(5.60264e-05 7.49165e-06 -1.27381e-14)
(5.26092e-05 5.7945e-06 -3.01018e-14)
(5.1309e-05 3.83709e-06 9.11806e-15)
(5.08273e-05 2.34702e-06 -2.88865e-14)
(5.51676e-05 1.64214e-06 3.32953e-14)
(5.73371e-05 1.21516e-06 2.40717e-14)
(6.12264e-05 1.35284e-06 -1.0652e-14)
(6.30275e-05 3.31558e-06 3.90971e-15)
(6.61001e-05 7.5859e-06 -3.80548e-15)
(7.4373e-05 1.46494e-05 -3.9096e-15)
(9.16102e-05 2.04555e-05 7.33574e-16)
(0.000117151 1.63816e-05 4.21229e-15)
(0.000141826 -5.33359e-06 8.48102e-15)
(0.000153706 -4.17122e-05 1.76872e-14)
(0.000148495 -8.03348e-05 3.32177e-15)
(0.000133464 -0.000109384 2.46073e-14)
(0.000117415 -0.000126747 1.34754e-15)
(0.0001058 -0.000139556 -3.6826e-14)
(4.654e-05 8.51994e-06 -1.01934e-13)
(4.69443e-05 6.71701e-06 -3.24844e-14)
(5.51248e-05 5.89096e-06 -1.59991e-14)
(4.99433e-05 2.58463e-06 2.37442e-15)
(5.04676e-05 1.07129e-06 3.18237e-14)
(5.42196e-05 2.86708e-07 -1.48826e-14)
(5.74562e-05 1.00226e-07 -3.65508e-14)
(6.195e-05 3.58146e-07 -3.37566e-15)
(6.50548e-05 1.59796e-06 1.70074e-14)
(6.89182e-05 3.99053e-06 6.77448e-15)
(7.6526e-05 7.61877e-06 9.4349e-17)
(9.03518e-05 9.98842e-06 -3.71931e-15)
(0.000110035 4.81115e-06 -2.72122e-16)
(0.000129365 -1.34427e-05 -8.63202e-15)
(0.000139813 -4.33526e-05 -6.80346e-15)
(0.000137507 -7.65834e-05 4.43246e-14)
(0.000126714 -0.000104212 1.65216e-14)