/*--------------------------------*- C++ -*----------------------------------*\
| =========                 |                                                 |
| \\      /  F ield         | OpenFOAM: The Open Source CFD Toolbox           |
|  \\    /   O peration     | Version:  2306                                  |
|   \\  /    A nd           | Website:  www.openfoam.com                      |
|    \\/     M anipulation  |                                                 |
\*---------------------------------------------------------------------------*/
FoamFile
{
    version     2.0;
    format      ascii;
    arch        "LSB;label=32;scalar=64";
    class       volSymmTensorField;
    location    "525";
    object      turbulenceProperties:devReff;
}
// * * * * * * * * * * * * * * * * * * * * * * * * * * * * * * * * * * * * * //

dimensions      [0 2 -2 0 0 0 0];

internalField   nonuniform List<symmTensor> 
1340
(
(0.00163714 0.0042578 -9.50052e-22 -0.00177373 -2.23883e-20 0.000136594)
(0.00238853 0.00488004 -1.2444e-22 -0.00248647 1.40368e-19 9.79407e-05)
(0.00361106 0.00546063 -2.7648e-20 -0.00380828 -4.34988e-19 0.000197225)
(0.00524592 0.00621489 1.19073e-19 -0.00549191 8.78824e-19 0.00024598)
(0.00742492 0.00687341 -2.25916e-19 -0.00769357 -8.34226e-19 0.000268644)
(0.010404 0.00726188 -1.72317e-19 -0.0107954 -4.50646e-19 0.000391443)
(0.014299 0.00737459 3.25999e-19 -0.0147853 1.25251e-18 0.000486258)
(0.0191876 0.00685906 -8.31323e-19 -0.0197702 -2.26133e-18 0.000582587)
(0.0252391 0.00535157 -2.0651e-19 -0.0259856 6.04418e-19 0.000746566)
(0.0325645 0.00260624 6.13778e-19 -0.033465 1.25948e-18 0.000900457)
(0.0413422 -0.00189799 1.57979e-18 -0.0424337 5.77708e-19 0.00109149)
(0.0519596 -0.008734 -3.5524e-18 -0.0532775 -3.29928e-18 0.00131783)
(0.0649577 -0.0188219 6.72791e-19 -0.0665509 8.68396e-19 0.00159319)
(0.0812469 -0.0337492 2.68636e-18 -0.0832018 1.27312e-18 0.00195483)
(0.102368 -0.056169 -4.07746e-18 -0.104834 -6.36945e-18 0.00246626)
(0.13053 -0.0904045 -4.36536e-18 -0.133705 -2.58502e-18 0.00317454)
(0.169882 -0.14506 1.92126e-17 -0.174189 1.779e-17 0.00430664)
(0.224283 -0.232429 1.78591e-17 -0.230164 3.3791e-17 0.00588053)
(0.310932 -0.388888 -3.53878e-17 -0.319548 -5.48547e-17 0.00861517)
(0.426452 -0.64176 -1.37791e-18 -0.438627 1.45542e-17 0.0121748)
(0.666807 -1.2142 -2.7223e-17 -0.686202 5.20469e-17 0.0193947)
(0.945549 -2.11448 -1.24402e-17 -0.971667 4.18837e-17 0.0261182)
(1.76559 -5.12886 -1.43152e-16 -1.81775 -6.41889e-16 0.05216)
(2.42862 -10.312 3.31459e-16 -2.51206 5.58902e-16 0.0834465)
(1.52872 -11.6482 4.24131e-17 -1.56981 -7.12352e-16 0.0410944)
(0.526696 -11.23 3.65809e-16 -0.515184 5.81273e-16 -0.0115116)
(-0.145888 -11.0457 -8.1851e-17 0.175806 -7.84425e-17 -0.0299174)
(-0.665125 -11.2291 2.74506e-16 0.689988 2.30564e-16 -0.0248629)
(-1.13648 -11.4433 7.29068e-16 1.15295 1.20849e-15 -0.0164726)
(-1.57194 -11.4561 4.0061e-16 1.5803 1.99762e-15 -0.00835754)
(-1.95815 -11.242 -1.4116e-15 1.95642 -1.93149e-15 0.00172658)
(-2.27391 -10.8356 -4.74975e-16 2.26341 -7.26159e-16 0.0104957)
(-2.49392 -10.2219 -3.2169e-17 2.47897 -4.36821e-15 0.0149504)
(-2.60539 -9.41486 -2.58332e-15 2.59001 -7.29981e-15 0.0153808)
(-2.58946 -8.40635 1.00631e-15 2.57526 9.23203e-16 0.0142082)
(0.000968053 0.00371303 2.39399e-21 -0.00101994 5.55972e-20 5.18856e-05)
(0.000549691 0.00319714 -3.57155e-21 -0.000639717 2.57122e-23 9.00256e-05)
(0.000179308 0.0026111 -1.95659e-20 -0.000226375 -1.37148e-19 4.70669e-05)
(-6.70789e-05 0.00208971 4.98095e-21 3.29506e-05 9.36021e-20 3.41282e-05)
(-0.00017926 0.0015969 3.91902e-21 0.000160972 -1.82537e-20 1.82878e-05)
(-0.000172607 0.0011672 -3.38575e-20 0.000173003 1.10833e-19 -3.95663e-07)
(-8.40105e-05 0.000835305 -2.02266e-19 0.000108118 1.62794e-19 -2.41076e-05)
(0.000579433 -0.000460528 1.22857e-22 -0.00052005 4.00306e-21 -5.93829e-05)
(0.000492605 -0.000547355 2.90331e-20 -0.000425489 7.03537e-20 -6.7116e-05)
(0.000371416 -0.000622949 -2.69199e-20 -0.000291097 -4.74605e-20 -8.03188e-05)
(0.000250519 -0.000652178 -1.81361e-20 -0.00015859 -5.16564e-20 -9.1929e-05)
(0.00013315 -0.00064511 1.2227e-19 -3.25565e-05 2.37308e-19 -0.000100593)
(2.3141e-05 -0.000610486 4.76159e-20 8.61802e-05 7.38713e-20 -0.000109321)
(-6.029e-05 -0.000551403 2.2581e-19 0.000177198 2.07449e-19 -0.000116908)
(-0.000116636 -0.000479008 -1.16705e-19 0.000238471 -2.24589e-20 -0.000121835)
(-0.000149303 -0.000404777 1.64896e-19 0.000274582 1.14263e-19 -0.000125279)
(-0.000158011 -0.000336002 -5.85649e-21 0.000285259 2.50081e-22 -0.000127247)
(-0.000150112 -0.000278307 -2.23006e-19 0.000277009 -1.90525e-19 -0.000126896)
(-0.000132662 -0.00023995 2.87171e-19 0.00025889 3.57498e-19 -0.000126228)
(-0.000110888 -0.00022612 1.76603e-19 0.000240754 8.8744e-20 -0.000129866)
(-8.62534e-05 -0.00024579 -3.68423e-20 0.000231115 1.99827e-20 -0.000144862)
(-4.85445e-05 -0.000344618 -2.26871e-19 0.000241474 3.73456e-20 -0.00019293)
(6.24955e-05 -0.000658598 4.77363e-19 0.000258287 5.46263e-19 -0.000320782)
(0.000455361 -0.00154865 8.55426e-19 0.000142133 -9.35401e-19 -0.000597495)
(0.00150215 -0.00354909 -4.4188e-18 -0.000499229 -5.72737e-18 -0.00100292)
(0.00420733 -0.00868051 5.06249e-19 -0.00253862 7.46875e-18 -0.00166871)
(0.0104879 -0.0211622 7.37476e-18 -0.00790326 -2.07124e-18 -0.00258467)
(0.0295524 -0.0626791 1.55234e-17 -0.0251323 6.1518e-18 -0.00442015)
(0.0741145 -0.174792 -2.35792e-17 -0.0678939 -2.25794e-17 -0.00622067)
(0.195492 -0.54627 7.43597e-17 -0.187683 1.87684e-16 -0.00780849)
(0.505217 -1.78614 1.55885e-19 -0.502442 -1.54899e-16 -0.00277492)
(0.749798 -3.55027 -2.73596e-16 -0.773522 1.69829e-16 0.0237247)
(0.790271 -5.39745 -9.72347e-17 -0.84466 -6.60492e-16 0.0543888)
(0.603474 -7.14851 1.18409e-18 -0.675394 7.56805e-17 0.0719193)
(0.204277 -8.39145 -2.94432e-16 -0.279889 -4.44673e-16 0.0756114)
(-0.295492 -8.63403 -4.93542e-16 0.229459 -2.83223e-15 0.0660327)
(-0.707047 -7.89625 -1.66977e-16 0.665807 -3.54613e-15 0.0412394)
(-0.931182 -6.69133 5.22924e-16 0.922765 4.89624e-15 0.00841735)
(-0.998202 -5.47775 -9.55182e-16 1.01636 -3.75728e-17 -0.0181538)
(-0.984346 -4.49817 -7.18982e-15 1.01414 1.34209e-15 -0.029793)
(-0.930794 -3.75343 8.77244e-15 0.960439 1.59514e-14 -0.0296451)
(-0.863805 -3.18637 -1.48867e-15 0.887818 -8.63704e-16 -0.0240135)
(0.000645655 -0.00034501 9.36998e-21 -0.000595427 2.31774e-20 -5.02283e-05)
(0.000684421 -0.000224612 -1.27043e-20 -0.00063747 -9.60292e-20 -4.69503e-05)
(0.000691694 -7.63945e-05 -1.86441e-20 -0.000654664 -1.11219e-19 -3.70304e-05)
(0.000654249 8.66809e-05 -7.12344e-21 -0.000627664 1.6531e-19 -2.65843e-05)
(0.000565078 0.000235301 1.92652e-21 -0.000550957 4.34556e-20 -1.41215e-05)
(0.000429276 0.000348908 3.78247e-20 -0.000425619 -1.45276e-19 -3.65731e-06)
(0.000333681 -0.000312808 1.72579e-21 -0.000360069 2.38757e-21 2.63878e-05)
(0.00025836 -0.000372282 -2.7296e-20 -0.000290235 -6.63199e-20 3.1875e-05)
(0.00016085 -0.000413559 -6.02087e-21 -0.000197977 -3.03305e-21 3.71263e-05)
(5.20705e-05 -0.000426362 2.27884e-20 -9.69438e-05 4.92238e-20 4.48733e-05)
(-5.44256e-05 -0.000413077 -7.20971e-20 3.54564e-06 -1.46642e-19 5.088e-05)
(-0.000154783 -0.000372457 -8.20729e-20 9.79079e-05 -1.34513e-19 5.68754e-05)
(-0.000238945 -0.000308489 -1.66416e-19 0.000175434 -2.45978e-19 6.35111e-05)
(-0.0003 -0.000230744 -1.34057e-20 0.000231133 -1.99281e-21 6.88671e-05)
(-0.000337765 -0.000145421 -7.30692e-20 0.000264305 -1.74014e-19 7.34608e-05)
(-0.000352964 -6.11088e-05 3.05788e-19 0.000275454 3.47969e-19 7.75099e-05)
(-0.000348657 1.659e-05 -5.00761e-20 0.000268535 6.81112e-20 8.01224e-05)
(-0.000331378 8.39143e-05 3.41324e-20 0.000250344 2.10022e-20 8.10342e-05)
(-0.000307335 0.000139295 -2.33538e-19 0.00022752 -2.97234e-19 7.9815e-05)
(-0.000281359 0.000184856 1.50372e-19 0.000204138 -1.39598e-20 7.72213e-05)
(-0.000253977 0.000218701 4.36308e-20 0.000181522 1.35396e-19 7.24554e-05)
(-0.00022401 0.00023781 5.34494e-20 0.000159037 2.56525e-20 6.49736e-05)
(-0.000179239 0.000226922 -2.40503e-19 0.000127521 -1.40075e-19 5.17178e-05)
(-0.00015264 0.00022365 2.0859e-19 0.000110176 1.55489e-19 4.2464e-05)
(-0.000102344 0.000169004 5.071e-20 7.59574e-05 6.62509e-22 2.63868e-05)
(-0.000915042 0.00164937 -2.11605e-18 0.00070778 -3.1836e-19 0.000207262)
(-0.00180547 0.00345927 5.24898e-18 0.00147018 -2.06144e-18 0.00033529)
(-6.63337e-05 0.000131106 7.30064e-21 5.76752e-05 1.25175e-19 8.65853e-06)
(-0.00134217 0.00153442 5.94635e-18 0.0014328 -8.78268e-18 -9.06348e-05)
(0.00125984 -0.00469242 -2.28686e-18 -0.00101567 -2.44369e-18 -0.000244178)
(0.0118917 -0.0525971 4.35113e-18 -0.010109 1.53647e-17 -0.00178272)
(0.031522 -0.189399 -2.79707e-17 -0.0274479 7.65531e-18 -0.00407408)
(0.0527794 -0.486918 1.46231e-17 -0.0468167 1.13793e-18 -0.0059627)
(0.0635076 -1.10707 -1.42194e-17 -0.056327 7.59011e-17 -0.00718065)
(0.0252959 -2.19775 -4.3988e-16 -0.0185057 2.45957e-16 -0.00679017)
(-0.119877 -3.63051 2.16921e-16 0.123067 3.532e-16 -0.00318948)
(-0.387141 -4.91372 1.56372e-15 0.38194 -5.86681e-16 0.00520088)
(-0.691761 -5.52409 -2.76507e-15 0.677355 2.16252e-15 0.014406)
(-0.905554 -5.36733 5.13938e-16 0.889824 9.32761e-15 0.0157298)
(-0.983123 -4.78728 -4.86903e-17 0.974732 -6.36768e-15 0.00839093)
(-0.964888 -4.12832 3.05769e-15 0.96342 -2.30078e-15 0.00146814)
(0.000395295 -0.000236804 -3.54252e-21 -0.000419381 -6.74348e-21 2.40862e-05)
(0.000435596 -0.000154352 -1.34281e-20 -0.000454967 -1.89999e-20 1.93711e-05)
(0.000460048 -5.32795e-05 5.56878e-20 -0.000474973 1.20065e-19 1.49256e-05)
(0.000454763 5.43797e-05 1.14453e-20 -0.000464206 -1.35568e-20 9.44314e-06)
(0.000415687 0.000160468 7.89573e-21 -0.000421152 -8.89554e-20 5.46419e-06)
(0.000342125 0.00024805 -2.46538e-20 -0.000344106 6.37274e-20 1.98095e-06)
(0.00030628 -0.000258223 9.51568e-21 -0.000296876 1.62784e-20 -9.40393e-06)
(0.000259298 -0.000306082 -1.32542e-20 -0.000248912 -2.38931e-20 -1.03863e-05)
(0.000195911 -0.00034741 -6.02783e-21 -0.000182639 -3.32171e-21 -1.32724e-05)
(0.000125024 -0.000374211 7.16065e-20 -0.000109146 1.04795e-19 -1.5878e-05)
(5.17748e-05 -0.000382635 4.5507e-20 -3.28945e-05 8.24868e-20 -1.88803e-05)
(-2.12931e-05 -0.000372943 5.77214e-20 4.3669e-05 1.10845e-19 -2.23759e-05)
(-8.66745e-05 -0.000347085 8.81562e-20 0.000112589 1.01992e-19 -2.59149e-05)
(-0.000139539 -0.000308085 -5.05818e-20 0.000168993 -7.85515e-20 -2.94547e-05)
(-0.000178415 -0.000260562 -1.80919e-19 0.00021168 -1.79248e-19 -3.32644e-05)
(-0.000202004 -0.000209912 2.34922e-19 0.000238693 1.323e-19 -3.66891e-05)
(-0.000211574 -0.000160037 1.97567e-19 0.000251484 1.67323e-19 -3.99103e-05)
(-0.000209291 -0.000114101 2.55705e-19 0.00025182 1.22495e-19 -4.25287e-05)
(-0.000197728 -7.42123e-05 -4.20852e-19 0.000241973 -1.34782e-19 -4.42449e-05)
(-0.000179863 -4.12308e-05 -3.58068e-19 0.000224681 -2.40533e-19 -4.48182e-05)
(-0.000157739 -1.50509e-05 4.7381e-19 0.000202211 1.49029e-19 -4.44719e-05)
(-0.000133134 7.47439e-06 9.57786e-20 0.000175307 5.89818e-20 -4.21734e-05)
(-0.000107455 2.6591e-05 -7.08912e-20 0.000145547 7.31686e-21 -3.80917e-05)
(-8.50134e-05 4.31436e-05 -2.30782e-19 0.000118158 -1.51199e-19 -3.31442e-05)
(-6.20235e-05 5.46946e-05 5.18257e-20 8.70632e-05 -1.98842e-20 -2.50397e-05)
(-4.30376e-05 5.86061e-05 2.00341e-19 5.90413e-05 6.18119e-20 -1.60038e-05)
(-3.80954e-05 7.09257e-05 -2.6889e-19 4.90742e-05 -7.73423e-20 -1.09788e-05)
(-4.03754e-05 9.39035e-05 1.43957e-19 4.85869e-05 2.05625e-20 -8.21145e-06)
(-3.74296e-05 0.000112358 -4.38603e-20 4.34993e-05 -9.51017e-21 -6.06971e-06)
(-0.00024148 0.00109873 -8.53051e-19 0.000288144 4.18377e-19 -4.66643e-05)
(-0.00059172 0.00637273 3.53782e-18 0.000862559 -1.1292e-18 -0.000270839)
(0.000510932 0.0129178 -7.50393e-18 8.34961e-05 9.95799e-18 -0.000594428)
(0.000449269 0.00233521 1.99936e-20 -0.000321654 -4.60812e-20 -0.000127615)
(0.00162811 0.00224822 3.01279e-18 -0.00136273 -1.06962e-18 -0.000265373)
(0.00476172 -0.0115367 7.07355e-18 -0.00419794 1.78977e-17 -0.00056378)
(0.0100848 -0.109376 2.70616e-17 -0.00882847 -1.2286e-16 -0.00125637)
(-0.000302139 -0.47852 -6.65184e-17 0.00251949 -3.96429e-16 -0.00221735)
(-0.0768497 -1.29968 2.07834e-15 0.0795665 5.51864e-16 -0.0027168)
(-0.263613 -2.42433 2.97109e-15 0.264495 6.72594e-16 -0.000881662)
(-0.514235 -3.34435 -1.64347e-15 0.510824 -2.23441e-15 0.0034103)
(-0.715559 -3.72264 -7.33319e-15 0.709604 1.42205e-15 0.00595533)
(0.000342224 -0.000198497 -1.46076e-20 -0.000335899 -2.97426e-20 -6.32501e-06)
(0.000364714 -0.000135329 -5.02369e-21 -0.000359228 2.03041e-20 -5.48568e-06)
(0.000373312 -5.72454e-05 4.83501e-20 -0.000370622 9.21873e-20 -2.69014e-06)
(0.00036393 2.51556e-05 -2.06945e-20 -0.00036261 -1.16223e-21 -1.32004e-06)
(0.000332411 0.000105542 1.80247e-20 -0.000332513 1.1422e-19 1.02046e-07)
(0.000222634 -0.000196128 -1.35347e-20 -0.000225649 -2.01606e-20 3.01561e-06)
(0.000184148 -0.000231624 2.65854e-21 -0.000188508 4.23597e-21 4.35984e-06)
(0.000134444 -0.000261248 1.61108e-20 -0.000139278 1.74974e-20 4.83418e-06)
(7.79987e-05 -0.000279187 -9.89662e-20 -8.41632e-05 -1.40665e-19 6.16454e-06)
(1.8932e-05 -0.000283319 -7.24487e-20 -2.64808e-05 -8.47329e-20 7.54883e-06)
(-4.04422e-05 -0.00027307 1.69306e-19 3.16123e-05 2.02667e-19 8.8299e-06)
(-9.4835e-05 -0.000249163 -1.79755e-19 8.42688e-05 -2.23209e-19 1.05662e-05)
(-0.000140347 -0.000213788 -8.12619e-20 0.000127929 -5.40597e-20 1.24181e-05)
(-0.00017474 -0.000169936 -1.93186e-19 0.000160477 -1.44566e-19 1.42627e-05)
(-0.00019668 -0.000121817 -3.59989e-20 0.000180319 -6.55051e-20 1.63605e-05)
(-0.000206279 -7.2869e-05 2.41759e-20 0.000187824 -8.72367e-21 1.84546e-05)
(-0.000204704 -2.62633e-05 -1.32279e-19 0.000184162 -1.75438e-19 2.05423e-05)
(-0.000193971 1.5445e-05 4.30642e-19 0.000171446 2.94944e-19 2.25255e-05)
(-0.000176466 5.07379e-05 -1.41749e-19 0.000152269 -2.47893e-20 2.41963e-05)
(-0.000154503 7.9433e-05 -3.47387e-19 0.000128934 -1.51909e-19 2.55693e-05)
(-0.00013052 0.000100452 2.30334e-19 0.000104582 4.60958e-21 2.59376e-05)
(-0.000106131 0.000113137 -1.6736e-19 8.13169e-05 -9.65294e-20 2.48146e-05)
(-8.17563e-05 0.000118016 2.28539e-21 5.90845e-05 1.22191e-19 2.26718e-05)
(-5.96943e-05 0.000118141 -4.03238e-20 3.96049e-05 -3.16796e-20 2.00894e-05)
(-3.92402e-05 0.000110923 -2.8503e-19 2.26672e-05 -1.96934e-19 1.6573e-05)
(-2.21811e-05 9.47313e-05 1.98233e-19 1.03272e-05 1.92445e-19 1.18539e-05)
(-1.15774e-05 7.54068e-05 3.94488e-21 4.40433e-06 -1.21617e-19 7.17312e-06)
(-6.76657e-06 6.98845e-05 3.843e-20 2.12939e-06 1.1759e-20 4.63719e-06)
(-2.52095e-06 7.98495e-05 1.11652e-19 -1.2206e-06 -5.00057e-21 3.74154e-06)
(3.77391e-06 8.69991e-05 -3.76448e-20 -6.75302e-06 -1.19922e-20 2.97911e-06)
(9.47313e-06 8.9207e-05 1.26741e-19 -1.15712e-05 2.02421e-20 2.09806e-06)
(9.62725e-05 0.000671998 -5.22143e-20 -0.000105486 1.18623e-21 9.21387e-06)
(0.000420602 0.00257072 -4.08761e-19 -0.000437388 -2.52944e-19 1.67864e-05)
(0.00146766 0.0078556 2.31652e-20 -0.0014807 2.02577e-18 1.30436e-05)
(0.00519438 0.022818 -6.64554e-17 -0.00514849 5.4863e-18 -4.58839e-05)
(0.00153315 0.00482862 -6.12061e-18 -0.00150742 1.02356e-18 -2.57232e-05)
(0.0107002 0.0121537 2.80548e-17 -0.0104703 -1.63759e-16 -0.000229886)
(0.0187108 -0.0983869 5.75498e-16 -0.0178819 -7.06118e-16 -0.000828976)
(-0.0256591 -0.584246 -2.98285e-15 0.0276493 1.58977e-16 -0.00199017)
(-0.182191 -1.48985 4.83428e-15 0.184003 1.81625e-15 -0.00181169)
(0.000253108 -0.000152903 8.63746e-21 -0.000256266 3.53072e-21 3.15744e-06)
(0.000274184 -0.000106572 -3.12486e-20 -0.000275956 -4.49325e-20 1.77281e-06)
(0.000285724 -4.96654e-05 3.9901e-21 -0.000287343 2.03317e-20 1.61918e-06)
(0.000283464 1.1771e-05 1.70416e-20 -0.000284288 -5.6858e-20 8.23691e-07)
(0.000264476 7.30933e-05 -1.38576e-19 -0.000265053 -1.99266e-19 5.76423e-07)
(0.00018413 -0.000161014 1.18696e-20 -0.000183018 1.37883e-20 -1.11164e-06)
(0.000155879 -0.000189721 -2.9849e-20 -0.000154872 -3.58774e-20 -1.00703e-06)
(0.000118628 -0.000214942 -2.41029e-21 -0.000117023 -4.98742e-21 -1.60468e-06)
(7.60892e-05 -0.00023239 -1.24403e-20 -7.41975e-05 -6.48759e-21 -1.89168e-06)
(3.1036e-05 -0.000239974 9.86365e-20 -2.87668e-05 1.13518e-19 -2.26912e-06)
(-1.54507e-05 -0.000237317 7.56357e-20 1.84274e-05 6.24058e-20 -2.97673e-06)
(-5.93402e-05 -0.00022451 9.61788e-22 6.29578e-05 3.04985e-20 -3.61757e-06)
(-9.76928e-05 -0.000202637 1.87631e-19 0.000102082 1.81804e-19 -4.38914e-06)
(-0.00012879 -0.000173559 -2.34317e-20 0.000134176 -3.12878e-21 -5.38569e-06)
(-0.000151049 -0.000140082 -6.47896e-20 0.000157472 -3.04223e-20 -6.42342e-06)
(-0.000164113 -0.000104705 1.27242e-19 0.000171715 4.74846e-20 -7.60199e-06)
(-0.000168495 -6.98242e-05 -1.71248e-19 0.000177395 -6.63708e-20 -8.90003e-06)
(-0.000165282 -3.76052e-05 -3.02169e-19 0.000175526 -2.36204e-19 -1.02437e-05)
(-0.000155964 -9.36205e-06 -1.26175e-19 0.000167619 3.2522e-20 -1.16554e-05)
(-0.000142207 1.41205e-05 5.44194e-19 0.000155243 2.45774e-19 -1.30364e-05)
(-0.000125184 3.22702e-05 -3.93014e-19 0.000139473 -1.79134e-19 -1.42894e-05)
(-0.000105668 4.62071e-05 -9.43973e-20 0.000120204 8.18609e-20 -1.4536e-05)
(-8.50573e-05 5.5854e-05 1.76266e-19 9.89421e-05 1.14893e-19 -1.38848e-05)
(-6.51582e-05 6.1853e-05 -1.11228e-19 7.76877e-05 -9.02717e-22 -1.25295e-05)
(-4.68581e-05 6.43851e-05 -3.63092e-20 5.75021e-05 9.09055e-20 -1.06441e-05)
(-3.11318e-05 6.50285e-05 5.093e-20 3.96822e-05 -3.27177e-20 -8.55034e-06)
(-1.70987e-05 6.2624e-05 -3.7199e-19 2.33034e-05 3.60092e-20 -6.20471e-06)
(-4.99324e-06 5.80204e-05 3.35789e-21 8.85114e-06 -5.6341e-20 -3.8579e-06)
(3.63407e-06 4.19167e-05 -1.67771e-19 -2.03058e-06 1.68759e-20 -1.60349e-06)
(9.17403e-06 3.89726e-05 4.21809e-20 -8.28307e-06 1.23572e-20 -8.90956e-07)
(1.29948e-05 3.78397e-05 -1.31994e-20 -1.22504e-05 -5.56376e-20 -7.44357e-07)
(1.44826e-05 3.72674e-05 -2.76889e-21 -1.37667e-05 -2.58641e-22 -7.15883e-07)
(1.4734e-05 3.90206e-05 6.52256e-21 -1.41691e-05 1.56551e-22 -5.64955e-07)
(1.50971e-05 4.33365e-05 6.65366e-20 -1.47253e-05 -2.26521e-20 -3.71784e-07)
(1.60494e-05 4.935e-05 5.31159e-20 -1.57552e-05 8.57384e-20 -2.94194e-07)
(0.000363557 0.00115567 -3.37636e-19 -0.000357057 6.96898e-19 -6.49952e-06)
(0.00346314 0.010728 -3.58032e-17 -0.00340721 1.1632e-17 -5.59345e-05)
(0.000713695 0.00193445 -1.03188e-17 -0.00070617 -6.95517e-18 -7.52528e-06)
(0.0136424 0.0234967 -9.21217e-17 -0.0135576 1.01809e-16 -8.48012e-05)
(0.0322785 -0.0498802 6.48329e-16 -0.031959 -7.43234e-16 -0.000319491)
(0.000206326 -0.000126629 -1.3e-20 -0.000206073 -1.90252e-20 -2.53125e-07)
(0.000221507 -9.01459e-05 4.62525e-21 -0.000221021 1.27758e-21 -4.85377e-07)
(0.000229939 -4.55186e-05 1.2398e-20 -0.000230081 1.25919e-20 1.4169e-07)
(0.000228572 2.66981e-06 -1.11715e-20 -0.0002286 -5.19315e-20 2.77052e-08)
(0.000147374 -0.000131417 -5.84064e-21 -0.000147571 -5.50012e-21 1.97342e-07)
(0.000124516 -0.000154214 1.67074e-22 -0.000125117 -1.48062e-21 6.01325e-07)
(9.46633e-05 -0.000174373 4.14445e-20 -9.51769e-05 4.51987e-20 5.13591e-07)
(6.05169e-05 -0.000188434 1.6233e-21 -6.12772e-05 -8.72419e-22 7.60305e-07)
(2.4193e-05 -0.000194893 -1.42919e-19 -2.51765e-05 -1.51803e-19 9.83458e-07)
(-1.36277e-05 -0.000193275 3.28421e-20 1.24981e-05 3.87103e-20 1.1296e-06)
(-4.9933e-05 -0.000183401 3.2057e-20 4.8504e-05 1.98549e-20 1.42896e-06)
(-8.23753e-05 -0.000165934 -7.42299e-20 8.05892e-05 -1.08077e-19 1.7861e-06)
(-0.000109456 -0.000142037 -1.1091e-19 0.00010733 -6.5442e-20 2.12523e-06)
(-0.000129683 -0.00011369 4.20835e-20 0.000127091 5.54151e-20 2.59282e-06)
(-0.000142474 -8.27895e-05 -2.52053e-19 0.000139355 -2.08582e-19 3.11979e-06)
(-0.000147819 -5.12644e-05 1.6785e-19 0.000144114 1.06856e-19 3.70468e-06)
(-0.000146232 -2.10474e-05 3.41091e-19 0.00014184 1.93342e-19 4.39243e-06)
(-0.000138686 6.52066e-06 4.39601e-19 0.000133533 1.65659e-19 5.15302e-06)
(-0.000126322 3.03982e-05 -5.87921e-19 0.000120323 -4.40357e-19 5.99969e-06)
(-0.000110476 5.00204e-05 3.16238e-19 0.000103483 2.41787e-19 6.99277e-06)
(-9.2708e-05 6.48378e-05 3.38245e-19 8.50177e-05 7.81714e-20 7.6903e-06)
(-7.44864e-05 7.43454e-05 2.15735e-19 6.67368e-05 -4.7024e-20 7.7496e-06)
(-5.67357e-05 7.87595e-05 1.10171e-19 4.95509e-05 5.87599e-20 7.18482e-06)
(-4.0545e-05 7.88283e-05 -1.44374e-20 3.43474e-05 8.07305e-20 6.19764e-06)
(-2.66129e-05 7.58797e-05 1.09933e-19 2.16982e-05 -1.81324e-20 4.91469e-06)
(-1.48523e-05 7.13444e-05 3.66118e-19 1.12746e-05 1.54163e-19 3.57774e-06)
(-4.10459e-06 6.79529e-05 -1.58044e-19 1.59102e-06 -2.13015e-20 2.51356e-06)
(6.94808e-06 5.96931e-05 4.1277e-19 -8.67412e-06 9.72732e-20 1.72604e-06)
(1.43123e-05 4.32623e-05 -5.73342e-20 -1.5403e-05 2.23356e-21 1.09071e-06)
(1.62455e-05 2.81117e-05 -1.84778e-20 -1.68871e-05 1.28602e-20 6.41602e-07)
(1.56392e-05 1.8858e-05 4.78156e-21 -1.60615e-05 2.0709e-21 4.22264e-07)
(1.53719e-05 1.50761e-05 -1.76527e-20 -1.57751e-05 7.4991e-21 4.03188e-07)
(1.47794e-05 1.36585e-05 -4.25944e-20 -1.52055e-05 -2.43524e-20 4.26127e-07)
(1.44129e-05 1.44207e-05 -3.75369e-21 -1.48025e-05 2.93205e-20 3.89581e-07)
(1.44371e-05 1.75888e-05 2.66382e-21 -1.47413e-05 -2.09966e-20 3.04209e-07)
(1.49818e-05 2.348e-05 1.54795e-19 -1.51712e-05 1.21803e-19 1.89396e-07)
(0.000104586 0.000204166 -1.61068e-18 -0.000105007 1.51316e-18 4.21448e-07)
(0.00358769 0.00781335 -1.63871e-17 -0.00358462 1.01045e-17 -3.06779e-06)
(0.00285223 0.00572271 -3.72219e-17 -0.00285848 1.44587e-18 6.25643e-06)
(0.000165499 -0.000104416 1.85118e-21 -0.000166032 6.08344e-21 5.33871e-07)
(0.000178239 -7.57516e-05 2.82461e-20 -0.000178351 2.4961e-20 1.12875e-07)
(0.000185937 -4.06947e-05 -2.81916e-20 -0.000186314 -1.01533e-20 3.76935e-07)
(0.000186051 -2.5216e-06 6.96957e-20 -0.000186163 6.73277e-20 1.12433e-07)
(0.000121489 -0.00010985 -2.61492e-22 -0.000121307 -7.60165e-22 -1.821e-07)
(0.000103208 -0.000128531 -1.83374e-21 -0.000103203 -1.50081e-21 -5.19817e-09)
(7.93067e-05 -0.000145313 -5.40665e-21 -7.91153e-05 -4.81166e-21 -1.91377e-07)
(5.19065e-05 -0.000157459 -2.98911e-20 -5.17434e-05 -2.75683e-20 -1.63092e-07)
(2.26716e-05 -0.000163767 3.70022e-20 -2.24708e-05 4.13613e-20 -2.00814e-07)
(-8.10814e-06 -0.000163866 1.93461e-19 8.42784e-06 1.63695e-19 -3.19701e-07)
(-3.80686e-05 -0.000157519 -1.16696e-20 3.84529e-05 -3.19166e-20 -3.84282e-07)
(-6.53869e-05 -0.000145087 -8.46907e-20 6.58719e-05 -7.00796e-20 -4.84968e-07)
(-8.89604e-05 -0.000127306 2.23846e-19 8.96221e-05 2.05918e-19 -6.61713e-07)
(-0.000107463 -0.00010559 9.01128e-20 0.000108291 5.69578e-20 -8.27908e-07)
(-0.000120241 -8.13165e-05 -7.34012e-20 0.000121302 -1.25263e-20 -1.06157e-06)
(-0.000127148 -5.59479e-05 -2.73565e-19 0.000128498 -1.32807e-19 -1.35041e-06)
(-0.000128365 -3.10416e-05 -5.13251e-19 0.000130033 -3.90799e-19 -1.66791e-06)
(-0.000124465 -7.80959e-06 -5.90985e-19 0.000126524 -3.53037e-19 -2.05906e-06)
(-0.000116292 1.27659e-05 -3.34023e-20 0.000118805 1.34953e-19 -2.51232e-06)
(-0.000104885 2.99201e-05 2.94246e-20 0.000107924 -6.38581e-20 -3.03917e-06)
(-9.11359e-05 4.32509e-05 -4.43098e-19 9.47478e-05 -2.03423e-19 -3.61195e-06)
(-7.58294e-05 5.28199e-05 -2.88285e-19 7.96995e-05 -1.24185e-19 -3.87011e-06)
(-6.00109e-05 5.88587e-05 7.35351e-20 6.37899e-05 6.73596e-21 -3.77907e-06)
(-4.48518e-05 6.17757e-05 3.06187e-19 4.82135e-05 4.11996e-20 -3.36173e-06)
(-3.10886e-05 6.22393e-05 -1.28565e-19 3.38363e-05 -5.32575e-20 -2.74769e-06)
(-1.90769e-05 6.11037e-05 -7.98779e-20 2.1149e-05 -1.50492e-19 -2.0721e-06)
(-8.22092e-06 5.92509e-05 1.51837e-20 9.65488e-06 5.60881e-21 -1.43396e-06)
(2.44352e-06 5.6689e-05 -1.41783e-19 -1.5617e-06 -1.37556e-19 -8.81821e-07)
(1.25069e-05 5.05399e-05 1.01859e-19 -1.19926e-05 2.18961e-20 -5.14239e-07)
(1.9271e-05 3.99959e-05 3.26375e-20 -1.88688e-05 -2.33663e-20 -4.02126e-07)
(2.0832e-05 2.77979e-05 1.31095e-21 -2.04564e-05 -8.91717e-21 -3.75535e-07)
(1.84847e-05 1.74337e-05 3.0666e-20 -1.82194e-05 9.2518e-21 -2.65331e-07)
(1.56536e-05 1.0674e-05 1.75316e-20 -1.55198e-05 1.27861e-20 -1.33734e-07)
(1.28404e-05 6.17268e-06 1.25464e-19 -1.27813e-05 6.69812e-21 -5.90581e-08)
(1.23143e-05 4.21563e-06 -5.24655e-20 -1.22836e-05 5.99185e-20 -3.06722e-08)
(1.19296e-05 3.79347e-06 1.31068e-19 -1.19299e-05 -1.76721e-19 2.71926e-10)
(1.19096e-05 5.78531e-06 3.15071e-19 -1.19359e-05 1.93557e-19 2.63161e-08)
(1.2601e-05 1.11987e-05 -6.68271e-21 -1.26042e-05 1.51858e-19 3.20651e-09)
(0.000570605 0.000804665 5.1038e-18 -0.000570751 -2.33593e-18 1.46725e-07)
(0.000135994 -8.80028e-05 -4.84431e-21 -0.000136137 -7.45095e-21 1.42797e-07)
(0.000146334 -6.48445e-05 -1.52512e-20 -0.000146262 -1.06645e-20 -7.19885e-08)
(0.00015289 -3.66114e-05 2.37002e-20 -0.000153094 8.92254e-21 2.03453e-07)
(0.000153599 -5.71484e-06 -9.81544e-20 -0.000153614 -7.1689e-20 1.53748e-08)
(0.000100425 -9.25808e-05 -9.23309e-21 -0.00010038 -6.74464e-21 -4.49095e-08)
(8.53481e-05 -0.000107944 -2.91098e-20 -8.54719e-05 -2.61263e-20 1.2383e-07)
(6.57063e-05 -0.000121836 -6.70307e-21 -6.57377e-05 -6.72508e-21 3.13601e-08)
(4.31743e-05 -0.000132025 9.97984e-20 -4.32836e-05 8.75875e-20 1.093e-07)
(1.91523e-05 -0.000137568 -6.66524e-20 -1.92932e-05 -5.91477e-20 1.40899e-07)
(-6.30395e-06 -0.000138169 -7.02081e-20 6.17364e-06 -7.30983e-20 1.30305e-07)
(-3.13131e-05 -0.00013355 -1.72708e-19 3.11215e-05 -1.25347e-19 1.91561e-07)
(-5.44465e-05 -0.000123915 -1.18195e-19 5.41893e-05 -8.23757e-20 2.57251e-07)
(-7.48102e-05 -0.000109743 1.30399e-19 7.45257e-05 8.5071e-20 2.84416e-07)
(-9.12692e-05 -9.204e-05 3.60546e-20 9.08953e-05 -1.69513e-21 3.73939e-07)
(-0.000103215 -7.18033e-05 5.63068e-20 0.000102756 6.35067e-20 4.59408e-07)
(-0.000110356 -5.01442e-05 5.07978e-19 0.000109803 3.09031e-19 5.53421e-07)
(-0.000112647 -2.83315e-05 -1.73611e-19 0.000111955 -1.94164e-20 6.9175e-07)
(-0.00011037 -7.40901e-06 3.80914e-19 0.000109528 3.28503e-19 8.4227e-07)
(-0.000104077 1.17012e-05 5.07885e-20 0.000103048 3.91609e-20 1.02957e-06)
(-9.44711e-05 2.82096e-05 -8.98628e-20 9.31966e-05 -4.38097e-20 1.27444e-06)
(-8.2374e-05 4.17092e-05 2.70926e-19 8.078e-05 1.86697e-19 1.59407e-06)
(-6.88487e-05 5.17387e-05 1.03127e-19 6.70113e-05 7.49949e-20 1.83741e-06)
(-5.48456e-05 5.81688e-05 4.9464e-20 5.30049e-05 -2.46524e-20 1.84073e-06)
(-4.12928e-05 6.12506e-05 -1.8067e-19 3.96238e-05 -1.57757e-19 1.66905e-06)
(-2.88463e-05 6.16182e-05 -2.09988e-21 2.74997e-05 4.03116e-21 1.34651e-06)
(-1.78078e-05 6.01477e-05 -1.0132e-19 1.68258e-05 3.55052e-21 9.8196e-07)
(-7.79079e-06 5.75147e-05 -1.48861e-19 7.12016e-06 -8.17464e-21 6.7062e-07)
(1.69398e-06 5.3852e-05 3.92181e-20 -2.19023e-06 5.0668e-20 4.9625e-07)
(1.04267e-05 4.85303e-05 -6.82047e-21 -1.0816e-05 -4.23367e-20 3.89249e-07)
(1.71704e-05 4.11688e-05 -1.17982e-19 -1.73955e-05 3.91348e-21 2.25082e-07)
(2.09346e-05 3.30382e-05 -1.14063e-20 -2.09857e-05 4.22248e-21 5.11466e-08)
(2.1969e-05 2.54132e-05 3.56631e-21 -2.19602e-05 -8.60214e-21 -8.89257e-09)
(2.15009e-05 1.87955e-05 -2.43838e-20 -2.15243e-05 4.28836e-21 2.33964e-08)
(1.8346e-05 1.16393e-05 2.80458e-20 -1.83796e-05 -1.42238e-19 3.35708e-08)
(1.49966e-05 6.09704e-06 1.66136e-19 -1.50099e-05 -3.22969e-20 1.33767e-08)
(1.12084e-05 2.08846e-06 -2.78353e-19 -1.12124e-05 -1.21434e-20 4.04829e-09)
(1.05715e-05 -6.3627e-08 3.19673e-19 -1.05862e-05 -1.77381e-19 1.46616e-08)
(1.01745e-05 -8.90536e-07 3.11958e-19 -1.01915e-05 -4.2305e-21 1.7079e-08)
(1.02503e-05 1.1213e-06 -3.70698e-19 -1.02819e-05 5.51496e-20 3.15684e-08)
(0.000112439 -7.47738e-05 5.95572e-21 -0.000112598 7.88153e-21 1.58453e-07)
(0.000121139 -5.58784e-05 4.48132e-20 -0.000121115 3.0328e-20 -2.38204e-08)
(0.000126915 -3.28602e-05 -2.87348e-20 -0.000127098 -3.1916e-20 1.82745e-07)
(1.64274e-05 -0.000116919 4.18178e-20 -1.64346e-05 3.67742e-20 7.24154e-09)
(-4.79076e-06 -0.000117889 5.93797e-20 4.82395e-06 4.97111e-20 -3.3194e-08)
(-2.57744e-05 -0.000114632 2.51055e-19 2.57944e-05 1.93038e-19 -1.99806e-08)
(-4.54007e-05 -0.000107268 -4.26514e-20 4.54279e-05 -3.26473e-20 -2.72469e-08)
(-6.29851e-05 -9.61254e-05 8.76576e-20 6.30457e-05 4.21686e-20 -6.05712e-08)
(-7.75824e-05 -8.19269e-05 -1.73351e-19 7.76523e-05 -1.00347e-19 -6.98143e-08)
(-8.86353e-05 -6.54151e-05 1.28585e-19 8.87378e-05 7.11104e-20 -1.02545e-07)
(-9.58333e-05 -4.744e-05 -3.21099e-19 9.59894e-05 -2.51023e-19 -1.56098e-07)
(-9.90439e-05 -2.89843e-05 1.12597e-20 9.92487e-05 3.39852e-20 -2.04782e-07)
(-9.83849e-05 -1.09118e-05 5.13719e-20 9.86573e-05 -2.77581e-20 -2.72412e-07)
(-9.41839e-05 5.92578e-06 8.5721e-20 9.4546e-05 1.71489e-20 -3.62053e-07)
(-8.69634e-05 2.081e-05 1.39853e-20 8.74265e-05 1.21727e-20 -4.63096e-07)
(-7.73946e-05 3.3225e-05 -1.03641e-19 7.80017e-05 -9.6711e-20 -6.07155e-07)
(-6.61827e-05 4.27966e-05 -1.99867e-19 6.69167e-05 -6.29883e-20 -7.34057e-07)
(-5.40123e-05 4.94635e-05 -1.71869e-19 5.4822e-05 -5.02734e-20 -8.09733e-07)
(-4.17315e-05 5.33709e-05 -1.25544e-19 4.25134e-05 3.44706e-20 -7.81963e-07)
(-3.00041e-05 5.49562e-05 -7.96884e-20 3.0678e-05 -8.45416e-21 -6.73956e-07)
(-1.9248e-05 5.47396e-05 -8.53904e-21 1.97678e-05 3.71895e-20 -5.1982e-07)
(-9.35674e-06 5.31665e-05 9.76744e-20 9.71756e-06 6.16896e-20 -3.60825e-07)
(-1.16312e-07 5.01424e-05 -6.99708e-21 3.03481e-07 -3.85619e-20 -1.87169e-07)
(8.12609e-06 4.5268e-05 -5.28068e-20 -8.06614e-06 -8.13546e-21 -5.99462e-08)
(1.44306e-05 3.87002e-05 9.17678e-20 -1.43772e-05 2.71301e-20 -5.34664e-08)
(1.81537e-05 3.16671e-05 1.21343e-20 -1.80499e-05 4.41977e-21 -1.03765e-07)
(1.9759e-05 2.5485e-05 1.44701e-20 -1.96599e-05 -1.49166e-20 -9.91462e-08)
(2.03363e-05 2.04693e-05 1.00507e-20 -2.02986e-05 -4.88802e-21 -3.77593e-08)
(2.05001e-05 1.6096e-05 -2.42517e-19 -2.05021e-05 8.1568e-20 1.92326e-09)
(2.0123e-05 1.17844e-05 -2.03569e-19 -2.01215e-05 -5.87238e-20 -1.4538e-09)
(1.66425e-05 6.46376e-06 1.31162e-19 -1.6632e-05 2.69259e-19 -1.05133e-08)
(1.16732e-05 2.03655e-06 -1.68449e-19 -1.167e-05 -2.03902e-19 -3.14375e-09)
(9.82895e-06 -6.80858e-07 4.45326e-20 -9.82243e-06 -1.21473e-19 -6.52641e-09)
(9.20179e-06 -2.85177e-06 1.96476e-19 -9.22127e-06 4.2759e-20 1.94804e-08)