/*--------------------------------*- C++ -*----------------------------------*\
| =========                 |                                                 |
| \\      /  F ield         | OpenFOAM: The Open Source CFD Toolbox           |
|  \\    /   O peration     | Version:  2306                                  |
|   \\  /    A nd           | Website:  www.openfoam.com                      |
|    \\/     M anipulation  |                                                 |
\*---------------------------------------------------------------------------*/
FoamFile
{
    version     2.0;
    format      ascii;
    arch        "LSB;label=32;scalar=64";
    class       volScalarField;
    location    "375";
    object      nuTilda;
}
// * * * * * * * * * * * * * * * * * * * * * * * * * * * * * * * * * * * * * //

dimensions      [0 2 -1 0 0 0 0];

internalField   nonuniform List<scalar> 
1340
(
0.106577
0.104431
0.101996
0.0924632
0.0699951
0.0717267
0.0752987
0.07846
0.0396004
0.0469996
0.0536718
0.0631645
0.00689418
0.0131036
0.0218476
0.0392286
0.000313732
0.00104333
0.00174566
0.013707
7.79061e-05
0.000247322
0.000456612
0.00240303
1.83612e-05
7.68664e-06
0
0.000575283
3.79627e-05
3.26041e-05
9.09515e-06
0
4.02798e-05
4.10963e-05
3.75516e-05
5.93011e-06
4.02038e-05
3.9534e-05
4.46732e-05
2.30907e-05
4.01796e-05
3.96081e-05
4.19696e-05
3.67252e-05
4.00956e-05
3.99869e-05
4.0272e-05
4.02753e-05
4.00654e-05
4.0092e-05
3.99768e-05
4.03722e-05
4.0064e-05
4.00836e-05
4.0027e-05
4.01533e-05
4.00659e-05
4.00705e-05
4.00644e-05
4.00756e-05
4.0066e-05
4.00664e-05
4.00709e-05
4.00657e-05
4.00654e-05
4.00656e-05
4.00692e-05
4.00669e-05
4.00649e-05
4.00653e-05
4.00676e-05
4.00672e-05
4.00646e-05
4.0065e-05
4.00668e-05
4.00667e-05
4.00644e-05
4.00647e-05
4.00662e-05
4.00662e-05
4.00642e-05
4.00644e-05
4.00658e-05
4.00658e-05
4.00642e-05
4.00643e-05
4.00654e-05
4.00654e-05
4.00641e-05
4.00642e-05
4.00651e-05
4.00651e-05
4.0064e-05
4.0064e-05
4.00648e-05
4.00649e-05
4.00638e-05
4.00639e-05
4.00645e-05
4.00646e-05
4.00636e-05
4.00637e-05
4.00641e-05
4.00643e-05
4.00633e-05
4.00635e-05
4.00638e-05
4.00641e-05
4.0063e-05
4.00633e-05
4.00635e-05
4.00638e-05
4.00626e-05
4.0063e-05
4.00631e-05
4.00635e-05
4.00622e-05
4.00626e-05
4.00627e-05
4.00633e-05
4.00617e-05
4.00622e-05
4.00624e-05
4.00631e-05
4.00611e-05
4.00617e-05
4.0062e-05
4.00628e-05
4.00605e-05
4.00611e-05
4.00615e-05
4.00624e-05
4.00598e-05
4.00604e-05
4.00609e-05
4.00619e-05
4.0059e-05
4.00597e-05
4.00602e-05
4.00613e-05
4.00581e-05
4.00588e-05
4.00594e-05
4.00606e-05
4.00571e-05
4.00579e-05
4.00584e-05
4.00598e-05
4.0056e-05
4.00568e-05
4.00574e-05
4.00588e-05
4.0054e-05
4.00547e-05
4.00555e-05
4.00562e-05
4.00576e-05
4.00527e-05
4.00534e-05
4.00542e-05
4.00548e-05
4.00563e-05
4.00512e-05
4.00519e-05
4.00527e-05
4.00533e-05
4.00548e-05
4.00496e-05
4.00503e-05
4.00511e-05
4.00517e-05
4.00532e-05
4.00479e-05
4.00486e-05
4.00494e-05
4.005e-05
4.00515e-05
4.00462e-05
4.00468e-05
4.00476e-05
4.00482e-05
4.00497e-05
4.00444e-05
4.0045e-05
4.00457e-05
4.00463e-05
4.00478e-05
4.00426e-05
4.00431e-05
4.00439e-05
4.00444e-05
4.00458e-05
4.00408e-05
4.00413e-05
4.0042e-05
4.00426e-05
4.00439e-05
4.0039e-05
4.00395e-05
4.00402e-05
4.00408e-05
4.00421e-05
4.00373e-05
4.00378e-05
4.00385e-05
4.0039e-05
4.00402e-05
4.00355e-05
4.0036e-05
4.00367e-05
4.00372e-05
4.00384e-05
4.00337e-05
4.00342e-05
4.00348e-05
4.00353e-05
4.00365e-05
4.00316e-05
4.0032e-05
4.00327e-05
4.00332e-05
4.00343e-05
4.00287e-05
4.00291e-05
4.00295e-05
4.00301e-05
4.00306e-05
4.00318e-05
4.00258e-05
4.00261e-05
4.00265e-05
4.0027e-05
4.00275e-05
4.00287e-05
4.00223e-05
4.00226e-05
4.00229e-05
4.00234e-05
4.00238e-05
4.00249e-05
4.00185e-05
4.00187e-05
4.00189e-05
4.00194e-05
4.00197e-05
4.00207e-05
4.00146e-05
4.00147e-05
4.00149e-05
4.00152e-05
4.00155e-05
4.00163e-05
4.00111e-05
4.00112e-05
4.00113e-05
4.00115e-05
4.00116e-05
4.00123e-05
4.00085e-05
4.00085e-05
4.00086e-05
4.00087e-05
4.00088e-05
4.00092e-05
4.00075e-05
4.00075e-05
4.00075e-05
4.00075e-05
4.00075e-05
4.00076e-05
4.00085e-05
4.00086e-05
4.00086e-05
4.00086e-05
4.00087e-05
4.00085e-05
4.00112e-05
4.00114e-05
4.00115e-05
4.00117e-05
4.00117e-05
4.00118e-05
4.00115e-05
4.00154e-05
4.00157e-05
4.0016e-05
4.00162e-05
4.00163e-05
4.00165e-05
4.00162e-05
4.0021e-05
4.00215e-05
4.00218e-05
4.00222e-05
4.00224e-05
4.00227e-05
4.00225e-05
4.00276e-05
4.00282e-05
4.00287e-05
4.00292e-05
4.00296e-05
4.003e-05
4.00299e-05
4.00349e-05
4.00356e-05
4.00362e-05
4.00368e-05
4.00373e-05
4.00379e-05
4.0038e-05
4.00422e-05
4.0043e-05
4.00437e-05
4.00445e-05
4.00451e-05
4.00458e-05
4.0046e-05
4.00482e-05
4.00491e-05
4.005e-05
4.00509e-05
4.00517e-05
4.00525e-05
4.0053e-05
4.00524e-05
4.00534e-05
4.00544e-05
4.00553e-05
4.00563e-05
4.00574e-05
4.00581e-05
4.00557e-05
4.00567e-05
4.00577e-05
4.00587e-05
4.00597e-05
4.00609e-05
4.00618e-05
4.00582e-05
4.00592e-05
4.00602e-05
4.00613e-05
4.00623e-05
4.00635e-05
4.00646e-05
4.00595e-05
4.00606e-05
4.00616e-05
4.00627e-05
4.00638e-05
4.00649e-05
4.00662e-05
4.00673e-05
4.00632e-05
4.00645e-05
4.00658e-05
4.00671e-05
4.00684e-05
4.00697e-05
4.00712e-05
4.00724e-05
4.00704e-05
4.00722e-05
4.00739e-05
4.00756e-05
4.00774e-05
4.00792e-05
4.00813e-05
4.00829e-05
4.00814e-05
4.00836e-05
4.00859e-05
4.00882e-05
4.00905e-05
4.00929e-05
4.00956e-05
4.0098e-05
4.00903e-05
4.00926e-05
4.00949e-05
4.00971e-05
4.00995e-05
4.0102e-05
4.01048e-05
4.01074e-05
4.00864e-05
4.00878e-05
4.00892e-05
4.00906e-05
4.0092e-05
4.00935e-05
4.0095e-05
4.00967e-05
4.00729e-05
4.00747e-05
4.00766e-05
4.00786e-05
4.00807e-05
4.00829e-05
4.00856e-05
4.00877e-05
4.00853e-05
4.00909e-05
4.00965e-05
4.01023e-05
4.01083e-05
4.01147e-05
4.01219e-05
4.01286e-05
4.00789e-05
4.00813e-05
4.00834e-05
4.00854e-05
4.00873e-05
4.0089e-05
4.00908e-05
4.00923e-05
0.126625
0.0830826
0.0542619
0.0293397
0.00866193
0.000730454
0.000172872
0
6.42627e-06
2.77402e-05
3.8672e-05
4.05271e-05
4.03397e-05
4.01351e-05
4.00814e-05
4.00769e-05
4.00773e-05
4.00761e-05
4.00743e-05
4.00727e-05
4.00713e-05
4.00701e-05
4.00692e-05
4.00683e-05
4.00676e-05
4.00669e-05
4.00663e-05
4.00657e-05
4.00652e-05
4.00648e-05
4.00644e-05
4.0064e-05
4.00635e-05
4.00629e-05
4.00622e-05
4.00614e-05
4.00605e-05
4.00594e-05
4.00582e-05
4.00569e-05
4.00554e-05
4.00537e-05
4.00519e-05
4.005e-05
4.00481e-05
4.00462e-05
4.00442e-05
4.00423e-05
4.00405e-05
4.00387e-05
4.00367e-05
4.00345e-05
4.00319e-05
4.00287e-05
4.00249e-05
4.00206e-05
4.00162e-05
4.00122e-05
4.00092e-05
4.00078e-05
4.00088e-05
4.00118e-05
4.00167e-05
4.00231e-05
4.00307e-05
4.00389e-05
4.0047e-05
4.0054e-05
4.00591e-05
4.00628e-05
4.00655e-05
4.00683e-05
4.00737e-05
4.00847e-05
4.01002e-05
4.01091e-05
4.00977e-05
4.00896e-05
4.01331e-05
4.00938e-05
0.149904
0.0867166
0.0431562
0.0174858
0.00355466
0.0002567
6.09783e-05
2.75141e-06
1.22696e-05
3.51825e-05
4.01739e-05
4.05362e-05
4.02452e-05
4.01127e-05
4.00885e-05
4.00871e-05
4.00856e-05
4.00829e-05
4.008e-05
4.00776e-05
4.00755e-05
4.00737e-05
4.00722e-05
4.00709e-05
4.00697e-05
4.00687e-05
4.00679e-05
4.00672e-05
4.00665e-05
4.00659e-05
4.00654e-05
4.00649e-05
4.00643e-05
4.00637e-05
4.00629e-05
4.0062e-05
4.00611e-05
4.00599e-05
4.00587e-05
4.00573e-05
4.00557e-05
4.0054e-05
4.00522e-05
4.00503e-05
4.00483e-05
4.00463e-05
4.00444e-05
4.00425e-05
4.00407e-05
4.00388e-05
4.00369e-05
4.00346e-05
4.0032e-05
4.00287e-05
4.00248e-05
4.00204e-05
4.0016e-05
4.0012e-05
4.0009e-05
4.00078e-05
4.0009e-05
4.00122e-05
4.00172e-05
4.00238e-05
4.00315e-05
4.00397e-05
4.00479e-05
4.0055e-05
4.006e-05
4.00636e-05
4.00663e-05
4.00691e-05
4.00748e-05
4.00862e-05
4.0102e-05
4.01103e-05
4.00984e-05
4.00914e-05
4.0136e-05
4.00947e-05
0.151259
0.0808175
0.0294904
0.00713117
0.000501101
9.78197e-05
2.33195e-05
6.07051e-06
2.57542e-05
3.99503e-05
4.06132e-05
4.0397e-05
4.01641e-05
4.01026e-05
4.00959e-05
4.00945e-05
4.00913e-05
4.00875e-05
4.00841e-05
4.00811e-05
4.00785e-05
4.00764e-05
4.00745e-05
4.00729e-05
4.00715e-05
4.00703e-05
4.00693e-05
4.00684e-05
4.00676e-05
4.0067e-05
4.00664e-05
4.00658e-05
4.00651e-05
4.00644e-05
4.00636e-05
4.00627e-05
4.00616e-05
4.00604e-05
4.00591e-05
4.00576e-05
4.0056e-05
4.00543e-05
4.00524e-05
4.00505e-05
4.00485e-05
4.00466e-05
4.00446e-05
4.00427e-05
4.00409e-05
4.0039e-05
4.00371e-05
4.00348e-05
4.0032e-05
4.00286e-05
4.00246e-05
4.00202e-05
4.00157e-05
4.00117e-05
4.00089e-05
4.00078e-05
4.00092e-05
4.00126e-05
4.00178e-05
4.00246e-05
4.00324e-05
4.00407e-05
4.00489e-05
4.0056e-05
4.0061e-05
4.00645e-05
4.00671e-05
4.007e-05
4.0076e-05
4.00878e-05
4.01039e-05
4.01114e-05
4.00992e-05
4.00935e-05
4.01389e-05
4.00956e-05
0.135184
0.0642286
0.0149379
0.000796642
0.000199798
1.62296e-06
3.50107e-06
1.49726e-05
3.66134e-05
4.14868e-05
4.04638e-05
4.02583e-05
4.01205e-05
4.01036e-05
4.01023e-05
4.00992e-05
4.00948e-05
4.00904e-05
4.00866e-05
4.00833e-05
4.00805e-05
4.00781e-05
4.00761e-05
4.00743e-05
4.00728e-05
4.00715e-05
4.00704e-05
4.00694e-05
4.00686e-05
4.00679e-05
4.00673e-05
4.00666e-05
4.00659e-05
4.00651e-05
4.00642e-05
4.00633e-05
4.00622e-05
4.00609e-05
4.00596e-05
4.00581e-05
4.00564e-05
4.00546e-05
4.00527e-05
4.00508e-05
4.00488e-05
4.00468e-05
4.00449e-05
4.0043e-05
4.00411e-05
4.00393e-05
4.00372e-05
4.00349e-05
4.0032e-05
4.00286e-05
4.00245e-05
4.00199e-05
4.00154e-05
4.00115e-05
4.00087e-05
4.00079e-05
4.00095e-05
4.00131e-05
4.00185e-05
4.00254e-05
4.00334e-05
4.00417e-05
4.005e-05
4.00571e-05
4.0062e-05
4.00654e-05
4.0068e-05
4.0071e-05
4.00773e-05
4.00896e-05
4.01059e-05
4.01126e-05
4.00999e-05
4.00959e-05
4.0142e-05
4.00964e-05
0.104405
0.0387299
0.00296894
0.000730868
0
1.48322e-06
6.39719e-06
3.10385e-05
4.15453e-05
4.12025e-05
4.02317e-05
4.0176e-05
4.01069e-05
4.01095e-05
4.01069e-05
4.01022e-05
4.0097e-05
4.00924e-05
4.00884e-05
4.00849e-05
4.00819e-05
4.00794e-05
4.00772e-05
4.00754e-05
4.00738e-05
4.00724e-05
4.00713e-05
4.00703e-05
4.00695e-05
4.00688e-05
4.00681e-05
4.00674e-05
4.00666e-05
4.00658e-05
4.00649e-05
4.00639e-05
4.00627e-05
4.00615e-05
4.006e-05
4.00585e-05
4.00568e-05
4.0055e-05
4.0053e-05
4.00511e-05
4.00491e-05
4.00471e-05
4.00451e-05
4.00432e-05
4.00414e-05
4.00395e-05
4.00374e-05
4.0035e-05
4.00321e-05
4.00285e-05
4.00243e-05
4.00196e-05
4.00151e-05
4.00112e-05
4.00086e-05
4.00079e-05
4.00098e-05
4.00136e-05
4.00192e-05
4.00263e-05
4.00344e-05
4.00428e-05
4.00512e-05
4.00583e-05
4.0063e-05
4.00663e-05
4.00689e-05
4.0072e-05
4.00787e-05
4.00915e-05
4.01079e-05
4.01137e-05
4.01007e-05
4.00985e-05
4.01452e-05
4.00972e-05
0.0648585
0.0145652
0.00358744
0
3.50058e-07
1.52443e-06
2.59968e-05
4.02236e-05
4.20518e-05
4.05085e-05
4.01228e-05
4.01419e-05
4.0109e-05
4.01152e-05
4.01096e-05
4.01039e-05
4.00985e-05
4.00937e-05
4.00896e-05
4.00861e-05
4.0083e-05
4.00804e-05
4.00782e-05
4.00763e-05
4.00747e-05
4.00733e-05
4.00722e-05
4.00712e-05
4.00704e-05
4.00696e-05
4.00689e-05
4.00682e-05
4.00674e-05
4.00665e-05
4.00656e-05
4.00645e-05
4.00633e-05
4.0062e-05
4.00605e-05
4.00589e-05
4.00572e-05
4.00553e-05
4.00534e-05
4.00513e-05
4.00493e-05
4.00473e-05
4.00454e-05
4.00435e-05
4.00417e-05
4.00398e-05
4.00376e-05
4.00351e-05
4.00321e-05
4.00284e-05
4.0024e-05
4.00193e-05
4.00148e-05
4.0011e-05
4.00085e-05
4.0008e-05
4.00101e-05
4.00142e-05
4.002e-05
4.00272e-05
4.00355e-05
4.0044e-05
4.00524e-05
4.00595e-05
4.00641e-05
4.00673e-05
4.00698e-05
4.00731e-05
4.00802e-05
4.00936e-05
4.01101e-05
4.0115e-05
4.01016e-05
4.01013e-05
0.0257819
0.000602201
0.000147084
0
5.48263e-06
2.27658e-05
3.93435e-05
4.24259e-05
4.1038e-05
4.01159e-05
4.01175e-05
4.0131e-05
4.01159e-05
4.01183e-05
4.01107e-05
4.01047e-05
4.00992e-05
4.00945e-05
4.00904e-05
4.00869e-05
4.00838e-05
4.00812e-05
4.0079e-05
4.00771e-05
4.00755e-05
4.00741e-05
4.0073e-05
4.00721e-05
4.00712e-05
4.00705e-05
4.00697e-05
4.00689e-05
4.00681e-05
4.00672e-05
4.00662e-05
4.00651e-05
4.00639e-05
4.00625e-05
4.0061e-05
4.00593e-05
4.00575e-05
4.00556e-05
4.00537e-05
4.00516e-05
4.00496e-05
4.00476e-05
4.00457e-05
4.00438e-05
4.0042e-05
4.004e-05
4.00378e-05
4.00353e-05
4.00321e-05
4.00282e-05
4.00238e-05
4.0019e-05
4.00145e-05
4.00107e-05
4.00084e-05
4.00082e-05
4.00105e-05
4.00148e-05
4.00208e-05
4.00283e-05
4.00366e-05
4.00452e-05
4.00537e-05
4.00607e-05
4.00653e-05
4.00683e-05
4.00708e-05
4.00742e-05
4.00818e-05
4.00958e-05
4.01123e-05
4.01162e-05
0.00295507
0.00073197
0
4.39529e-06
1.8398e-05
3.89155e-05
4.27716e-05
4.1414e-05
4.02467e-05
4.00542e-05
4.01375e-05
4.01278e-05
4.01214e-05
4.01187e-05
4.01105e-05
4.01047e-05
4.00994e-05
4.00948e-05
4.00908e-05
4.00873e-05
4.00844e-05
4.00818e-05
4.00796e-05
4.00778e-05
4.00762e-05
4.00749e-05
4.00738e-05
4.00729e-05
4.00721e-05
4.00713e-05
4.00705e-05
4.00697e-05
4.00688e-05
4.00679e-05
4.00669e-05
4.00657e-05
4.00644e-05
4.0063e-05
4.00615e-05
4.00598e-05
4.00579e-05
4.0056e-05
4.0054e-05
4.00519e-05
4.00499e-05
4.00479e-05
4.0046e-05
4.00441e-05
4.00422e-05
4.00403e-05
4.0038e-05
4.00353e-05
4.0032e-05
4.0028e-05
4.00235e-05
4.00186e-05
4.00141e-05
4.00104e-05
4.00083e-05
4.00083e-05
4.0011e-05
4.00155e-05
4.00217e-05
4.00294e-05
4.00378e-05
4.00465e-05
4.0055e-05
4.0062e-05
4.00664e-05
4.00694e-05
4.00718e-05
4.00755e-05
4.00836e-05
4.00982e-05
0.000808966
0
2.70112e-06
1.15265e-05
3.95994e-05
4.33176e-05
4.16611e-05
4.03458e-05
4.00294e-05
4.011e-05
4.01438e-05
4.01271e-05
4.01236e-05
4.01171e-05
4.01097e-05
4.01042e-05
4.00991e-05
4.00947e-05
4.00909e-05
4.00876e-05
4.00847e-05
4.00822e-05
4.00801e-05
4.00784e-05
4.00769e-05
4.00756e-05
4.00746e-05
4.00737e-05
4.00729e-05
4.00721e-05
4.00713e-05
4.00705e-05
4.00696e-05
4.00686e-05
4.00675e-05
4.00663e-05
4.0065e-05
4.00635e-05
4.00619e-05
4.00602e-05
4.00583e-05
4.00563e-05
4.00543e-05
4.00522e-05
4.00502e-05
4.00482e-05
4.00463e-05
4.00444e-05
4.00425e-05
4.00405e-05
4.00382e-05
4.00354e-05
4.0032e-05
4.00278e-05
4.00231e-05
4.00182e-05
4.00137e-05
4.00101e-05
4.00082e-05
4.00085e-05
4.00114e-05
4.00162e-05
4.00227e-05
4.00305e-05
4.00392e-05
4.00479e-05
4.00565e-05
4.00634e-05
4.00677e-05
4.00705e-05
4.00729e-05
0
4.45336e-07
1.90672e-06
3.71625e-05
4.44752e-05
4.16788e-05
4.0381e-05
4.0012e-05
4.00833e-05
4.01467e-05
4.01385e-05
4.01269e-05
4.01224e-05
4.01148e-05
4.01085e-05
4.01033e-05
4.00985e-05
4.00943e-05
4.00907e-05
4.00876e-05
4.00849e-05
4.00826e-05
4.00806e-05
4.00789e-05
4.00775e-05
4.00763e-05
4.00754e-05
4.00745e-05
4.00737e-05
4.00729e-05
4.00721e-05
4.00712e-05
4.00703e-05
4.00693e-05
4.00681e-05
4.00669e-05
4.00655e-05
4.0064e-05
4.00623e-05
4.00606e-05
4.00586e-05
4.00566e-05
4.00546e-05
4.00525e-05
4.00505e-05
4.00485e-05
4.00466e-05
4.00447e-05
4.00428e-05
4.00408e-05
4.00384e-05
4.00354e-05
4.00318e-05
4.00275e-05
4.00227e-05
4.00178e-05
4.00133e-05
4.00099e-05
4.00081e-05
4.00088e-05
4.0012e-05
4.0017e-05
4.00238e-05
4.00318e-05
4.00405e-05
4.00494e-05
0
8.4459e-06
3.4788e-05
4.52378e-05
4.18653e-05
4.0231e-05
4.00096e-05
4.00628e-05
4.01446e-05
4.01477e-05
4.01322e-05
4.01254e-05
4.01193e-05
4.01123e-05
4.01069e-05
4.0102e-05
4.00976e-05
4.00938e-05
4.00904e-05
4.00875e-05
4.0085e-05
4.00828e-05
4.0081e-05
4.00795e-05
4.00782e-05
4.00771e-05
4.00761e-05
4.00753e-05
4.00745e-05
4.00737e-05
4.00728e-05
4.00719e-05
4.0071e-05
4.00699e-05
4.00688e-05
4.00675e-05
4.0066e-05
4.00645e-05
4.00628e-05
4.00609e-05
4.0059e-05
4.0057e-05
4.00549e-05
4.00528e-05
4.00508e-05
4.00488e-05
4.00469e-05
4.0045e-05
4.00431e-05
4.0041e-05
4.00385e-05
4.00354e-05
4.00317e-05
4.00272e-05
4.00223e-05
4.00173e-05
4.00129e-05
4.00096e-05
4.00081e-05
4.00091e-05
4.00126e-05
7.97793e-06
3.27362e-05
4.43538e-05
4.21178e-05
4.00268e-05
3.9971e-05
4.0069e-05
4.01399e-05
4.01539e-05
4.01375e-05
4.01279e-05
4.01222e-05
4.01157e-05
4.01098e-05
4.01049e-05
4.01005e-05
4.00965e-05
4.0093e-05
4.009e-05
4.00873e-05
4.0085e-05
4.00831e-05
4.00814e-05
4.008e-05
4.00788e-05
4.00778e-05
4.00769e-05
4.00761e-05
4.00753e-05
4.00745e-05
4.00736e-05
4.00727e-05
4.00717e-05
4.00706e-05
4.00694e-05
4.0068e-05
4.00666e-05
4.00649e-05
4.00632e-05
4.00613e-05
4.00593e-05
4.00573e-05
4.00552e-05
4.00531e-05
4.00511e-05
4.00491e-05
4.00472e-05
4.00454e-05
4.00434e-05
4.00412e-05
4.00386e-05
4.00354e-05
4.00315e-05
4.00268e-05
3.41846e-05
4.32198e-05
4.20256e-05
3.99663e-05
3.98926e-05
4.00943e-05
4.01424e-05
4.01554e-05
4.01415e-05
4.01297e-05
4.01238e-05
4.0118e-05
4.01122e-05
4.01073e-05
4.01029e-05
4.00989e-05
4.00953e-05
4.00922e-05
4.00895e-05
4.00871e-05
4.00851e-05
4.00833e-05
4.00819e-05
4.00806e-05
4.00795e-05
4.00786e-05
4.00777e-05
4.00769e-05
4.00761e-05
4.00752e-05
4.00744e-05
4.00734e-05
4.00724e-05
4.00712e-05
4.007e-05
4.00686e-05
4.0067e-05
4.00654e-05
4.00635e-05
4.00616e-05
4.00596e-05
4.00575e-05
)
;

boundaryField
{
    inlet
    {
        type            freestream;
        freestreamValue uniform 4e-05;
        value           uniform 4e-05;
    }
    outlet
    {
        type            freestream;
        freestreamValue nonuniform List<scalar> 0();
        value           nonuniform List<scalar> 0();
    }
    walls
    {
        type            fixedValue;
        value           uniform 0;
    }
    frontAndBack
    {
        type            empty;
    }
    procBoundary2to1
    {
        type            processor;
        value           nonuniform List<scalar> 
84
(
0.107973
0.0680049
0.031157
0.00304058
9.29408e-05
3.00319e-05
3.38328e-05
4.02334e-05
4.01354e-05
4.00396e-05
4.00483e-05
4.00631e-05
4.00689e-05
4.00677e-05
4.00662e-05
4.00653e-05
4.00648e-05
4.00645e-05
4.00643e-05
4.00643e-05
4.00641e-05
4.00641e-05
4.0064e-05
4.00638e-05
4.00636e-05
4.00633e-05
4.0063e-05
4.00626e-05
4.00621e-05
4.00616e-05
4.00611e-05
4.00605e-05
4.00599e-05
4.00591e-05
4.00583e-05
4.00574e-05
4.00564e-05
4.00553e-05
4.00553e-05
4.00534e-05
4.00521e-05
4.00506e-05
4.0049e-05
4.00474e-05
4.00456e-05
4.00439e-05
4.00421e-05
4.00403e-05
4.00386e-05
4.00368e-05
4.00351e-05
4.00333e-05
4.00312e-05
4.00312e-05
4.00284e-05
4.00255e-05
4.00221e-05
4.00183e-05
4.00145e-05
4.00111e-05
4.00085e-05
4.00074e-05
4.00084e-05
4.00084e-05
4.0011e-05
4.00151e-05
4.00205e-05
4.0027e-05
4.00341e-05
4.00413e-05
4.00473e-05
4.00514e-05
4.00547e-05
4.00572e-05
4.00572e-05
4.00584e-05
4.00619e-05
4.00686e-05
4.00791e-05
4.0088e-05
4.0085e-05
4.00712e-05
4.00799e-05
4.00764e-05
)
;
    }
    procBoundary2to3
    {
        type            processor;
        value           nonuniform List<scalar> 
88
(
4.01486e-05
4.00978e-05
4.01025e-05
4.01486e-05
4.01045e-05
4.01146e-05
4.01025e-05
4.01175e-05
4.00768e-05
4.00855e-05
4.01146e-05
4.01007e-05
4.0058e-05
4.00648e-05
4.00689e-05
4.00717e-05
4.00768e-05
4.00741e-05
4.00179e-05
4.00249e-05
4.00332e-05
4.0042e-05
4.0058e-05
4.00509e-05
4.00218e-05
4.00168e-05
4.00124e-05
4.00093e-05
4.00081e-05
4.00095e-05
4.00179e-05
4.00133e-05
4.00555e-05
4.00534e-05
4.00514e-05
4.00495e-05
4.00476e-05
4.00457e-05
4.00437e-05
4.00414e-05
4.00387e-05
4.00353e-05
4.00312e-05
4.00218e-05
4.00264e-05
4.2867e-05
4.14953e-05
3.99656e-05
3.98639e-05
4.01099e-05
4.01569e-05
4.01528e-05
4.01426e-05
4.01307e-05
4.01244e-05
4.01192e-05
4.01137e-05
4.01089e-05
4.01047e-05
4.01008e-05
4.00973e-05
4.00942e-05
4.00915e-05
4.00891e-05
4.0087e-05
4.00852e-05
4.00837e-05
4.00824e-05
4.00812e-05
4.00802e-05
4.00794e-05
4.00785e-05
4.00777e-05
4.00769e-05
4.0076e-05
4.00751e-05
4.00741e-05
4.00731e-05
4.00719e-05
4.00705e-05
4.00691e-05
4.00675e-05
4.00658e-05
4.00639e-05
4.00619e-05
4.00599e-05
4.00555e-05
4.00578e-05
)
;
    }
    procBoundary2to6
    {
        type            processor;
        value           nonuniform List<scalar> 
13
(
0.17298
0.214024
0.217852
0.202702
0.172752
0.130249
0.078918
0.030017
0.00323008
0.000426437
0
0
8.54464e-06
)
;
    }
}


// ************************************************************************* //
