/*--------------------------------*- C++ -*----------------------------------*\
| =========                 |                                                 |
| \\      /  F ield         | OpenFOAM: The Open Source CFD Toolbox           |
|  \\    /   O peration     | Version:  2306                                  |
|   \\  /    A nd           | Website:  www.openfoam.com                      |
|    \\/     M anipulation  |                                                 |
\*---------------------------------------------------------------------------*/
FoamFile
{
    version     2.0;
    format      ascii;
    arch        "LSB;label=32;scalar=64";
    class       volScalarField;
    location    "375";
    object      turbulenceProperties:I;
}
// * * * * * * * * * * * * * * * * * * * * * * * * * * * * * * * * * * * * * //

dimensions      [0 0 0 0 0 0 0];

internalField   nonuniform List<scalar> 
1340
(
0.244662
0.246102
0.249517
0.255936
0.0396025
0.042467
0.0476502
0.0611851
0.0179021
0.0214169
0.0239676
0.0337469
0.0033975
0.00626039
0.0101596
0.0207131
0.000703826
0.0011788
0.00183908
0.00900962
0.000254802
0.00048847
0.000880781
0.00303561
8.49772e-05
3.62047e-05
0
0.00140604
0.00013732
0.000119072
4.18874e-05
0
0.000158026
0.000165873
0.000176202
3.7589e-05
0.000145179
0.000145883
0.000192921
0.000138568
0.000146269
0.000147662
0.000178847
0.000207591
0.000141067
0.000143451
0.000165192
0.000215712
0.000138544
0.000141034
0.000158505
0.000205941
0.000134818
0.000136812
0.00015254
0.000194805
0.000131376
0.000132893
0.000146743
0.000184573
0.000127546
0.000128591
0.000140729
0.000174862
0.00012359
0.000124171
0.000134716
0.000165426
0.000119404
0.000119523
0.000128686
0.000156233
0.000115027
0.000114683
0.000122638
0.000147287
0.000110449
0.00010964
0.000116585
0.000138638
0.000105675
0.000104399
0.000110508
0.000130273
0.000100706
9.89682e-05
0.000104417
0.000122208
9.55484e-05
9.33416e-05
9.831e-05
0.000114462
9.02108e-05
8.75265e-05
9.21792e-05
0.000107023
8.46985e-05
8.15145e-05
8.60411e-05
9.99149e-05
7.90237e-05
7.52983e-05
7.98986e-05
9.3137e-05
7.32022e-05
6.88619e-05
7.37709e-05
8.67103e-05
6.72587e-05
6.21708e-05
6.76826e-05
8.0651e-05
6.12352e-05
5.51694e-05
6.16875e-05
7.49914e-05
5.52165e-05
4.77572e-05
5.58781e-05
6.97781e-05
4.93741e-05
3.97237e-05
5.04283e-05
6.50666e-05
4.40697e-05
3.06253e-05
4.56389e-05
6.09276e-05
3.99781e-05
1.90661e-05
4.19739e-05
5.74296e-05
3.79425e-05
1.31687e-05
3.99104e-05
5.46217e-05
3.81874e-05
2.4846e-05
3.95387e-05
5.25068e-05
3.99204e-05
3.17835e-05
4.0399e-05
5.10307e-05
4.21682e-05
3.66888e-05
4.18476e-05
5.00832e-05
4.43554e-05
4.03389e-05
4.3413e-05
4.95242e-05
5.20895e-05
4.62405e-05
4.30886e-05
4.48434e-05
4.92135e-05
5.24618e-05
4.77472e-05
4.5142e-05
4.60288e-05
4.90307e-05
5.27276e-05
4.88689e-05
4.66335e-05
4.69335e-05
4.88851e-05
5.28333e-05
4.96274e-05
4.76578e-05
4.75558e-05
4.87127e-05
5.27542e-05
5.00548e-05
4.82888e-05
4.79119e-05
4.8474e-05
5.24851e-05
5.01858e-05
4.85844e-05
4.80232e-05
4.81458e-05
5.2033e-05
5.00557e-05
4.85939e-05
4.79132e-05
4.77158e-05
5.14113e-05
4.96982e-05
4.83597e-05
4.76085e-05
4.7183e-05
5.06374e-05
4.91445e-05
4.79173e-05
4.71316e-05
4.65494e-05
4.97309e-05
4.8424e-05
4.72994e-05
4.65054e-05
4.58208e-05
4.87101e-05
4.75626e-05
4.65338e-05
4.57514e-05
4.50065e-05
4.75928e-05
4.65827e-05
4.56432e-05
4.48868e-05
4.41135e-05
4.63936e-05
4.55036e-05
4.46481e-05
4.39275e-05
4.31501e-05
4.51245e-05
4.43397e-05
4.35632e-05
4.28854e-05
4.21222e-05
4.44843e-05
4.37945e-05
4.31025e-05
4.24005e-05
4.17697e-05
4.10344e-05
4.30099e-05
4.24107e-05
4.18012e-05
4.11689e-05
4.05881e-05
3.98904e-05
4.1502e-05
4.09815e-05
4.04455e-05
3.98785e-05
3.9349e-05
3.86946e-05
3.99705e-05
3.95187e-05
3.90485e-05
3.85422e-05
3.80639e-05
3.74561e-05
3.8431e-05
3.80394e-05
3.76279e-05
3.71776e-05
3.67492e-05
3.61886e-05
3.6903e-05
3.65639e-05
3.62045e-05
3.58052e-05
3.54242e-05
3.49099e-05
3.54033e-05
3.51097e-05
3.47962e-05
3.44431e-05
3.41062e-05
3.36367e-05
3.39377e-05
3.36835e-05
3.34103e-05
3.30989e-05
3.28025e-05
3.23769e-05
3.24976e-05
3.22772e-05
3.20395e-05
3.1766e-05
3.15071e-05
3.11248e-05
3.12393e-05
3.10623e-05
3.0871e-05
3.06648e-05
3.04261e-05
3.02026e-05
2.98632e-05
2.97684e-05
2.96142e-05
2.94484e-05
2.92705e-05
2.90643e-05
2.88748e-05
2.85771e-05
2.82821e-05
2.81474e-05
2.8004e-05
2.78517e-05
2.76754e-05
2.75185e-05
2.72602e-05
2.67949e-05
2.66771e-05
2.65537e-05
2.64243e-05
2.62751e-05
2.61497e-05
2.59269e-05
2.53279e-05
2.52246e-05
2.51184e-05
2.50094e-05
2.48841e-05
2.47867e-05
2.45938e-05
2.39267e-05
2.38351e-05
2.37434e-05
2.36527e-05
2.35502e-05
2.34794e-05
2.33183e-05
2.27024e-05
2.26164e-05
2.25325e-05
2.24528e-05
2.23646e-05
2.23127e-05
2.21805e-05
2.16702e-05
2.15849e-05
2.15034e-05
2.14272e-05
2.13445e-05
2.13012e-05
2.11843e-05
2.06989e-05
2.06118e-05
2.05294e-05
2.04535e-05
2.03729e-05
2.03339e-05
2.02285e-05
1.97186e-05
1.96302e-05
1.95464e-05
1.9471e-05
1.93924e-05
1.93563e-05
1.92605e-05
1.87993e-05
1.86924e-05
1.85944e-05
1.85049e-05
1.84278e-05
1.83541e-05
1.83319e-05
1.82847e-05
1.77178e-05
1.75824e-05
1.74541e-05
1.73343e-05
1.72272e-05
1.71251e-05
1.70555e-05
1.69434e-05
1.62589e-05
1.61031e-05
1.59669e-05
1.58526e-05
1.57678e-05
1.57147e-05
1.57804e-05
1.59357e-05
1.39906e-05
1.3638e-05
1.33075e-05
1.30091e-05
1.27473e-05
1.25231e-05
1.23383e-05
1.20583e-05
1.25138e-05
1.24004e-05
1.23682e-05
1.24254e-05
1.261e-05
1.29351e-05
1.36793e-05
1.47067e-05
1.32191e-05
1.31852e-05
1.31429e-05
1.30826e-05
1.30349e-05
1.32255e-05
1.43482e-05
1.54662e-05
2.17156e-05
2.21178e-05
2.24615e-05
2.27737e-05
2.31289e-05
2.36444e-05
2.48721e-05
2.5854e-05
2.96957e-05
2.97416e-05
2.97743e-05
2.9796e-05
2.98094e-05
2.98543e-05
3.01387e-05
2.93963e-05
4.104e-05
4.10411e-05
4.10228e-05
4.09937e-05
4.09422e-05
4.09184e-05
4.07698e-05
3.92993e-05
0.141772
0.064557
0.0318501
0.0173224
0.00715794
0.00173039
0.00076799
0
4.19733e-05
0.000172372
0.000225852
0.000225052
0.000213505
0.000202184
0.000191857
0.000182031
0.000172476
0.000163198
0.000154232
0.000145573
0.000137241
0.000129244
0.000121591
0.000114293
0.000107354
0.000100785
9.45967e-05
8.87982e-05
8.34026e-05
7.84243e-05
7.38787e-05
6.97801e-05
6.61369e-05
6.29532e-05
6.02203e-05
5.7914e-05
5.59958e-05
5.44135e-05
5.3106e-05
5.20108e-05
5.1068e-05
5.02241e-05
4.94365e-05
4.86702e-05
4.78997e-05
4.71078e-05
4.62834e-05
4.5419e-05
4.45133e-05
4.35637e-05
4.25714e-05
4.15358e-05
4.04564e-05
3.93332e-05
3.81674e-05
3.69654e-05
3.57383e-05
3.45018e-05
3.32708e-05
3.20514e-05
3.0838e-05
2.96134e-05
2.83639e-05
2.70836e-05
2.57871e-05
2.44875e-05
2.32466e-05
2.21363e-05
2.1162e-05
2.02236e-05
1.92663e-05
1.83219e-05
1.69498e-05
1.61117e-05
1.19434e-05
1.53569e-05
1.47504e-05
2.56224e-05
2.76201e-05
3.70355e-05
0.097208
0.050866
0.0214477
0.00838869
0.00266627
0.000642467
0.000262334
1.26622e-05
5.51581e-05
0.000152365
0.000168309
0.00016563
0.000160288
0.000155394
0.000150773
0.000146103
0.000141311
0.00013639
0.000131402
0.000126352
0.000121278
0.000116199
0.000111144
0.000106161
0.000101268
9.64959e-05
9.18781e-05
8.74439e-05
8.32141e-05
7.92145e-05
7.54641e-05
7.19798e-05
6.87723e-05
6.58478e-05
6.32086e-05
6.08443e-05
5.87434e-05
5.68841e-05
5.52389e-05
5.37783e-05
5.24699e-05
5.12803e-05
5.01813e-05
4.91445e-05
4.81474e-05
4.71717e-05
4.62025e-05
4.52293e-05
4.42442e-05
4.32407e-05
4.2215e-05
4.11626e-05
4.00793e-05
3.89622e-05
3.78109e-05
3.66295e-05
3.54277e-05
3.42197e-05
3.30179e-05
3.18269e-05
3.06397e-05
2.94397e-05
2.82136e-05
2.69572e-05
2.56857e-05
2.44102e-05
2.31902e-05
2.20924e-05
2.11308e-05
2.02071e-05
1.92586e-05
1.83249e-05
1.69519e-05
1.61558e-05
1.18864e-05
1.57266e-05
1.38012e-05
2.56648e-05
2.74968e-05
3.74374e-05
0.0714815
0.0386046
0.013871
0.00350446
0.00069765
0.000284578
8.21118e-05
2.09946e-05
8.65106e-05
0.00012879
0.000127741
0.00012434
0.000120819
0.000117837
0.000115036
0.000112254
0.000109493
0.000106736
0.000103971
0.000101236
9.85025e-05
9.57753e-05
9.30383e-05
9.0315e-05
8.75979e-05
8.48799e-05
8.21763e-05
7.94999e-05
7.68545e-05
7.42585e-05
7.17262e-05
6.92732e-05
6.69157e-05
6.46673e-05
6.25407e-05
6.05416e-05
5.86763e-05
5.69431e-05
5.53373e-05
5.38498e-05
5.24698e-05
5.11816e-05
4.99715e-05
4.8823e-05
4.77217e-05
4.6655e-05
4.56102e-05
4.45787e-05
4.35518e-05
4.25224e-05
4.14848e-05
4.04327e-05
3.93603e-05
3.82627e-05
3.71383e-05
3.59901e-05
3.48261e-05
3.36592e-05
3.24995e-05
3.13499e-05
3.02021e-05
2.90394e-05
2.78495e-05
2.66291e-05
2.53941e-05
2.41547e-05
2.29662e-05
2.1893e-05
2.09572e-05
2.00634e-05
1.9138e-05
1.8227e-05
1.6877e-05
1.61046e-05
1.19617e-05
1.5877e-05
1.3335e-05
2.55528e-05
2.72238e-05
3.74596e-05
0.053138
0.0266864
0.00708352
0.000696345
0.00033095
4.48133e-06
9.60613e-06
4.04912e-05
9.62326e-05
0.000106605
0.000102756
0.000100795
9.88159e-05
9.71095e-05
9.53618e-05
9.35547e-05
9.17383e-05
8.99024e-05
8.80547e-05
8.62306e-05
8.44048e-05
8.26037e-05
8.08153e-05
7.90388e-05
7.7281e-05
7.55343e-05
7.37939e-05
7.20631e-05
7.03385e-05
6.86222e-05
6.69159e-05
6.52224e-05
6.35501e-05
6.19029e-05
6.02888e-05
5.87162e-05
5.71905e-05
5.57172e-05
5.43005e-05
5.29404e-05
5.16377e-05
5.03896e-05
4.91901e-05
4.80346e-05
4.69165e-05
4.58291e-05
4.47649e-05
4.37186e-05
4.26835e-05
4.16536e-05
4.06237e-05
3.95865e-05
3.85363e-05
3.74677e-05
3.63777e-05
3.5269e-05
3.41486e-05
3.30275e-05
3.19144e-05
3.08105e-05
2.97064e-05
2.85857e-05
2.74368e-05
2.62571e-05
2.50634e-05
2.38646e-05
2.27136e-05
2.16735e-05
2.07701e-05
1.991e-05
1.90125e-05
1.81303e-05
1.68129e-05
1.60677e-05
1.21368e-05
1.59843e-05
1.31199e-05
2.54178e-05
2.68763e-05
3.7302e-05
0.0362026
0.0147789
0.00177286
0.000572877
0
3.42869e-06
1.46658e-05
6.98507e-05
9.16e-05
9.03141e-05
8.78224e-05
8.70778e-05
8.62373e-05
8.54951e-05
8.46458e-05
8.37273e-05
8.27394e-05
8.16654e-05
8.05283e-05
7.93256e-05
7.80538e-05
7.6729e-05
7.5367e-05
7.39574e-05
7.25201e-05
7.10726e-05
6.96064e-05
6.81385e-05
6.66748e-05
6.5218e-05
6.37733e-05
6.23415e-05
6.093e-05
5.95361e-05
5.8163e-05
5.68162e-05
5.54931e-05
5.41986e-05
5.29333e-05
5.16974e-05
5.04941e-05
4.93216e-05
4.81776e-05
4.7063e-05
4.59741e-05
4.49081e-05
4.38613e-05
4.28309e-05
4.18127e-05
4.0802e-05
3.97945e-05
3.87834e-05
3.77633e-05
3.67289e-05
3.56768e-05
3.46095e-05
3.35334e-05
3.24579e-05
3.13904e-05
3.03308e-05
2.92688e-05
2.81888e-05
2.708e-05
2.59407e-05
2.47881e-05
2.36299e-05
2.25165e-05
2.15095e-05
2.06377e-05
1.98083e-05
1.8937e-05
1.8082e-05
1.6798e-05
1.60855e-05
1.23726e-05
1.61546e-05
1.29613e-05
2.54173e-05
2.66911e-05
3.72661e-05
0.0205183
0.0053513
0.00104332
0
7.16513e-07
3.10009e-06
5.23171e-05
7.9335e-05
8.24738e-05
7.94213e-05
7.84258e-05
7.808e-05
7.75959e-05
7.71114e-05
7.65363e-05
7.59201e-05
7.52346e-05
7.44867e-05
7.36961e-05
7.28491e-05
7.19524e-05
7.10061e-05
7.00221e-05
6.89892e-05
6.79184e-05
6.68182e-05
6.56782e-05
6.4515e-05
6.33298e-05
6.21266e-05
6.09128e-05
5.96911e-05
5.84713e-05
5.72539e-05
5.6044e-05
5.48481e-05
5.36645e-05
5.24993e-05
5.13514e-05
5.0222e-05
4.91143e-05
4.8025e-05
4.69542e-05
4.59034e-05
4.48692e-05
4.38515e-05
4.2848e-05
4.18571e-05
4.08764e-05
3.99023e-05
3.89315e-05
3.79579e-05
3.69771e-05
3.59837e-05
3.4975e-05
3.39531e-05
3.29241e-05
3.18964e-05
3.08759e-05
2.98612e-05
2.88422e-05
2.78035e-05
2.67358e-05
2.56381e-05
2.45282e-05
2.34122e-05
2.23369e-05
2.13635e-05
2.0524e-05
1.97251e-05
1.88806e-05
1.80532e-05
1.68047e-05
1.613e-05
1.26355e-05
1.63592e-05
1.27714e-05
2.54674e-05
0.00769418
0.000342835
0.000225272
0
9.54582e-06
3.96775e-05
6.73752e-05
7.24315e-05
7.03114e-05
6.88542e-05
6.88321e-05
6.8762e-05
6.85966e-05
6.83951e-05
6.81192e-05
6.7805e-05
6.74232e-05
6.69808e-05
6.64937e-05
6.59516e-05
6.53625e-05
6.47249e-05
6.40391e-05
6.33139e-05
6.25542e-05
6.17546e-05
6.09191e-05
6.00594e-05
5.91692e-05
5.82545e-05
5.7319e-05
5.63627e-05
5.53922e-05
5.44089e-05
5.34157e-05
5.24171e-05
5.14145e-05
5.04134e-05
4.94133e-05
4.84179e-05
4.74301e-05
4.64478e-05
4.54748e-05
4.45107e-05
4.35542e-05
4.26075e-05
4.16683e-05
4.07368e-05
3.98113e-05
3.88896e-05
3.79692e-05
3.70452e-05
3.61135e-05
3.51695e-05
3.42113e-05
3.32408e-05
3.2264e-05
3.12883e-05
3.03182e-05
2.93518e-05
2.83786e-05
2.73846e-05
2.6361e-05
2.53084e-05
2.42447e-05
2.31738e-05
2.21393e-05
2.12027e-05
2.03988e-05
1.96329e-05
1.88183e-05
1.80215e-05
1.68132e-05
1.61825e-05
1.29138e-05
1.65637e-05
0.00077753
0.000489147
0
6.50649e-06
2.7857e-05
5.81125e-05
6.37921e-05
6.22151e-05
6.07976e-05
6.06869e-05
6.09284e-05
6.09852e-05
6.09944e-05
6.09564e-05
6.08605e-05
6.07215e-05
6.05266e-05
6.02815e-05
5.99931e-05
5.96568e-05
5.92777e-05
5.88573e-05
5.83921e-05
5.78915e-05
5.73593e-05
5.6788e-05
5.61854e-05
5.55569e-05
5.48979e-05
5.42141e-05
5.35071e-05
5.27757e-05
5.20255e-05
5.12564e-05
5.04694e-05
4.96678e-05
4.88521e-05
4.80258e-05
4.71891e-05
4.63446e-05
4.54948e-05
4.46397e-05
4.37824e-05
4.29231e-05
4.20626e-05
4.12036e-05
4.03446e-05
3.94873e-05
3.86308e-05
3.77739e-05
3.69151e-05
3.60504e-05
3.51765e-05
3.42896e-05
3.33884e-05
3.24752e-05
3.15552e-05
3.06354e-05
2.97193e-05
2.88043e-05
2.78801e-05
2.69337e-05
2.59578e-05
2.49535e-05
2.39394e-05
2.29168e-05
2.19264e-05
2.10303e-05
2.02649e-05
1.95342e-05
1.87527e-05
1.79892e-05
1.68266e-05
1.62448e-05
0.000517914
0
3.59731e-06
1.51209e-05
5.24821e-05
5.727e-05
5.57348e-05
5.44284e-05
5.43377e-05
5.47049e-05
5.496e-05
5.51096e-05
5.52238e-05
5.52846e-05
5.52958e-05
5.5258e-05
5.51695e-05
5.50376e-05
5.48614e-05
5.46409e-05
5.4379e-05
5.40802e-05
5.37468e-05
5.33754e-05
5.29753e-05
5.25459e-05
5.20869e-05
5.16023e-05
5.10925e-05
5.05603e-05
5.00045e-05
4.94266e-05
4.88316e-05
4.82149e-05
4.75801e-05
4.69296e-05
4.62616e-05
4.55791e-05
4.48824e-05
4.41721e-05
4.34499e-05
4.2717e-05
4.19738e-05
4.1222e-05
4.04625e-05
3.96973e-05
3.89259e-05
3.81505e-05
3.73709e-05
3.65868e-05
3.57971e-05
3.49986e-05
3.41889e-05
3.33651e-05
3.25261e-05
3.16744e-05
3.08153e-05
2.99546e-05
2.90951e-05
2.82339e-05
2.73611e-05
2.64649e-05
2.55394e-05
2.45863e-05
2.36246e-05
2.26529e-05
2.17092e-05
2.08568e-05
2.01319e-05
1.94376e-05
1.86916e-05
0
4.86231e-07
2.24892e-06
4.36256e-05
5.25997e-05
4.98257e-05
4.88818e-05
4.88323e-05
4.92764e-05
4.96668e-05
4.99307e-05
5.01503e-05
5.033e-05
5.04577e-05
5.05404e-05
5.05813e-05
5.05741e-05
5.05234e-05
5.04323e-05
5.03005e-05
5.01304e-05
4.99244e-05
4.96861e-05
4.94139e-05
4.91139e-05
4.87875e-05
4.84329e-05
4.80552e-05
4.7655e-05
4.72343e-05
4.67904e-05
4.63274e-05
4.58484e-05
4.53472e-05
4.48298e-05
4.42959e-05
4.37442e-05
4.31774e-05
4.25945e-05
4.19966e-05
4.13844e-05
4.07582e-05
4.0119e-05
3.94673e-05
3.88038e-05
3.81304e-05
3.74467e-05
3.67549e-05
3.6055e-05
3.5347e-05
3.46302e-05
3.39022e-05
3.31612e-05
3.24043e-05
3.16315e-05
3.08449e-05
3.00494e-05
2.92503e-05
2.84497e-05
2.76445e-05
2.68253e-05
2.59817e-05
2.5109e-05
2.421e-05
2.33032e-05
2.23847e-05
0
8.19961e-06
3.72253e-05
4.76657e-05
4.50464e-05
4.37729e-05
4.40281e-05
4.44753e-05
4.49423e-05
4.5281e-05
4.55647e-05
4.58156e-05
4.60221e-05
4.61865e-05
4.6307e-05
4.63901e-05
4.64316e-05
4.64309e-05
4.63958e-05
4.63247e-05
4.62205e-05
4.60838e-05
4.59179e-05
4.57238e-05
4.55051e-05
4.5262e-05
4.49943e-05
4.47068e-05
4.43986e-05
4.40714e-05
4.37242e-05
4.33591e-05
4.29778e-05
4.25774e-05
4.2161e-05
4.1728e-05
4.12778e-05
4.08123e-05
4.03299e-05
3.98316e-05
3.93181e-05
3.87887e-05
3.82445e-05
3.76854e-05
3.71121e-05
3.65263e-05
3.59274e-05
3.53176e-05
3.4697e-05
3.40656e-05
3.34232e-05
3.27677e-05
3.20975e-05
3.14101e-05
3.07059e-05
2.99868e-05
2.92572e-05
2.85217e-05
2.77818e-05
2.70343e-05
2.62708e-05
7.37963e-06
2.99375e-05
4.29376e-05
4.07347e-05
3.94713e-05
3.98195e-05
4.03672e-05
4.08303e-05
4.1219e-05
4.15379e-05
4.18278e-05
4.20827e-05
4.22964e-05
4.24742e-05
4.26095e-05
4.27111e-05
4.27764e-05
4.28032e-05
4.28002e-05
4.27648e-05
4.27006e-05
4.26076e-05
4.24905e-05
4.2349e-05
4.2186e-05
4.20029e-05
4.17992e-05
4.15789e-05
4.13411e-05
4.10871e-05
4.08163e-05
4.05307e-05
4.02302e-05
3.9913e-05
3.95818e-05
3.92351e-05
3.88726e-05
3.84956e-05
3.81018e-05
3.76924e-05
3.72678e-05
3.68264e-05
3.6369e-05
3.58959e-05
3.54072e-05
3.49038e-05
3.43859e-05
3.3855e-05
3.33115e-05
3.27555e-05
3.21871e-05
3.16041e-05
3.10054e-05
3.03888e-05
2.99308e-05
3.64706e-05
3.74617e-05
3.57037e-05
3.62565e-05
3.68164e-05
3.72821e-05
3.76694e-05
3.80105e-05
3.83136e-05
3.85952e-05
3.88382e-05
3.90444e-05
3.92196e-05
3.9358e-05
3.94656e-05
3.954e-05
3.95825e-05
3.95977e-05
3.9585e-05
3.9547e-05
3.94854e-05
3.94009e-05
3.92968e-05
3.9175e-05
3.90342e-05
3.88779e-05
3.87071e-05
3.85219e-05
3.8323e-05
3.81103e-05
3.7886e-05
3.7648e-05
3.73968e-05
3.7134e-05
3.68569e-05
3.65669e-05
3.62631e-05
3.59442e-05
3.56114e-05
3.52632e-05
3.4899e-05
)
;

boundaryField
{
    inlet
    {
        type            calculated;
        value           nonuniform List<scalar> 
13
(
7.48356e-05
7.53303e-05
7.57608e-05
7.61456e-05
7.6518e-05
7.69054e-05
7.74204e-05
7.75914e-05
7.72295e-05
7.69936e-05
7.6686e-05
7.64202e-05
7.6201e-05
)
;
    }
    outlet
    {
        type            calculated;
        value           nonuniform List<scalar> 0();
    }
    walls
    {
        type            calculated;
        value           uniform 0;
    }
    frontAndBack
    {
        type            empty;
    }
    procBoundary2to1
    {
        type            processor;
        value           nonuniform List<scalar> 
84
(
0.243552
0.0371133
0.0142957
0.00145461
0.000386835
0.000119847
0.000153852
0.000149171
0.000156153
0.000146066
0.000146252
0.000142327
0.000140052
0.000136859
0.00013379
0.000130426
0.000126921
0.000123211
0.000119315
0.000115234
0.000110969
0.000106528
0.000101925
9.7177e-05
9.23072e-05
8.7346e-05
8.23358e-05
7.73342e-05
7.24162e-05
6.76885e-05
6.32889e-05
5.93865e-05
5.61677e-05
5.37832e-05
5.2285e-05
5.15806e-05
5.14678e-05
5.17074e-05
5.17074e-05
5.84465e-05
5.77982e-05
5.71992e-05
5.65853e-05
5.59127e-05
5.51552e-05
5.43e-05
5.33441e-05
5.22923e-05
5.11525e-05
4.99351e-05
4.86511e-05
4.73099e-05
4.59192e-05
4.59192e-05
4.51606e-05
4.35918e-05
4.20028e-05
4.04016e-05
3.88019e-05
3.72218e-05
3.56773e-05
3.41737e-05
3.27015e-05
3.27015e-05
3.14055e-05
2.99142e-05
2.8411e-05
2.69095e-05
2.54307e-05
2.40199e-05
2.27914e-05
2.17599e-05
2.07911e-05
1.9813e-05
1.9813e-05
1.89132e-05
1.78578e-05
1.64325e-05
1.4355e-05
1.27011e-05
1.32651e-05
2.12484e-05
2.96282e-05
4.10105e-05
)
;
    }
    procBoundary2to3
    {
        type            processor;
        value           nonuniform List<scalar> 
88
(
2.65941e-05
3.72821e-05
1.25946e-05
2.65941e-05
2.55141e-05
1.32105e-05
1.25946e-05
1.67604e-05
1.79628e-05
1.68512e-05
1.32105e-05
1.63214e-05
2.14904e-05
2.06841e-05
2.00013e-05
1.93443e-05
1.79628e-05
1.86356e-05
2.54822e-05
2.46651e-05
2.38227e-05
2.29734e-05
2.14904e-05
2.21103e-05
2.97544e-05
2.91039e-05
2.84414e-05
2.77707e-05
2.70927e-05
2.64045e-05
2.54822e-05
2.56985e-05
3.4519e-05
3.41233e-05
3.37113e-05
3.32836e-05
3.28415e-05
3.2385e-05
3.19149e-05
3.14317e-05
3.09352e-05
3.04236e-05
2.98957e-05
2.97544e-05
2.93494e-05
3.46652e-05
3.25615e-05
3.30443e-05
3.30553e-05
3.37925e-05
3.41839e-05
3.45669e-05
3.48972e-05
3.52064e-05
3.54885e-05
3.57431e-05
3.59641e-05
3.61534e-05
3.63179e-05
3.64491e-05
3.65518e-05
3.6627e-05
3.66762e-05
3.67011e-05
3.67022e-05
3.66811e-05
3.66405e-05
3.65816e-05
3.65056e-05
3.64135e-05
3.63073e-05
3.61884e-05
3.60561e-05
3.59129e-05
3.5758e-05
3.55924e-05
3.54163e-05
3.52294e-05
3.50322e-05
3.48242e-05
3.46047e-05
3.43744e-05
3.41313e-05
3.38755e-05
3.36071e-05
3.33243e-05
3.4519e-05
3.30271e-05
)
;
    }
    procBoundary2to6
    {
        type            processor;
        value           nonuniform List<scalar> 
13
(
0.250225
0.14653
0.103059
0.0780138
0.0579474
0.0395277
0.0222319
0.00800607
0.000740636
0.000366856
0
0
8.00423e-06
)
;
    }
}


// ************************************************************************* //
