/*--------------------------------*- C++ -*----------------------------------*\
| =========                 |                                                 |
| \\      /  F ield         | OpenFOAM: The Open Source CFD Toolbox           |
|  \\    /   O peration     | Version:  2306                                  |
|   \\  /    A nd           | Website:  www.openfoam.com                      |
|    \\/     M anipulation  |                                                 |
\*---------------------------------------------------------------------------*/
FoamFile
{
    version     2.0;
    format      ascii;
    arch        "LSB;label=32;scalar=64";
    class       volScalarField;
    location    "375";
    object      turbulenceProperties:epsilon;
}
// * * * * * * * * * * * * * * * * * * * * * * * * * * * * * * * * * * * * * //

dimensions      [0 2 -3 0 0 0 0];

internalField   nonuniform List<scalar> 
1340
(
978.917
912.868
836.938
619.391
1.348
1.59534
2.20737
4.09699
0.110643
0.177002
0.222091
0.549893
0.000864781
0.00493353
0.01895
0.139791
3.4549e-05
7.74452e-05
0.000256325
0.0150658
2.29493e-06
9.62103e-06
5.13949e-05
0.00113099
3.18809e-08
6.60301e-10
0
0.000219473
2.62506e-07
1.39404e-07
1.1965e-09
0
4.5675e-07
5.26617e-07
6.29728e-07
5.3466e-10
3.23716e-07
3.14769e-07
8.88744e-07
1.87431e-07
3.31727e-07
3.29111e-07
6.61709e-07
1.05596e-06
2.85475e-07
2.91915e-07
4.8276e-07
1.24102e-06
2.64149e-07
2.71702e-07
4.08902e-07
1.04061e-06
2.35558e-07
2.39768e-07
3.50373e-07
8.41174e-07
2.11239e-07
2.12737e-07
2.9985e-07
6.84084e-07
1.86632e-07
1.85892e-07
2.53534e-07
5.55885e-07
1.63638e-07
1.61117e-07
2.12868e-07
4.48996e-07
1.41806e-07
1.37895e-07
1.77254e-07
3.60079e-07
1.21482e-07
1.16544e-07
1.46249e-07
2.8661e-07
1.0273e-07
9.70923e-08
1.19502e-07
2.26647e-07
8.56522e-08
7.96107e-08
9.65331e-08
1.77938e-07
7.02976e-08
6.41365e-08
7.70072e-08
1.38719e-07
5.6697e-08
5.06334e-08
6.05702e-08
1.07426e-07
4.4847e-08
3.90644e-08
4.68668e-08
8.2596e-08
3.47007e-08
2.93309e-08
3.56176e-08
6.30988e-08
2.61886e-08
2.13192e-08
2.6518e-08
4.78957e-08
1.9211e-08
1.48893e-08
1.92973e-08
3.61632e-08
1.36442e-08
9.87914e-09
1.36919e-08
2.71942e-08
9.34557e-09
6.11893e-09
9.46162e-09
2.04183e-08
6.16139e-09
3.43274e-09
6.37952e-09
1.53701e-08
3.92974e-09
1.64206e-09
4.23822e-09
1.16669e-08
2.48921e-09
5.7986e-10
2.84783e-09
9.00353e-09
1.68308e-09
8.70903e-11
2.0408e-09
7.13265e-09
1.364e-09
1.98212e-11
1.67099e-09
5.85664e-09
1.39854e-09
2.51268e-10
1.61248e-09
5.01731e-09
1.66975e-09
6.73273e-10
1.76077e-09
4.49058e-09
2.07913e-09
1.19651e-09
2.03125e-09
4.17904e-09
2.54675e-09
1.75068e-09
2.35759e-09
4.0076e-09
4.81727e-09
3.01123e-09
2.28254e-09
2.69001e-09
3.91962e-09
4.96356e-09
3.42833e-09
2.75472e-09
2.99299e-09
3.87314e-09
5.07468e-09
3.76911e-09
3.14383e-09
3.24352e-09
3.83874e-09
5.12776e-09
4.01778e-09
3.4375e-09
3.42817e-09
3.79627e-09
5.11156e-09
4.16905e-09
3.63291e-09
3.5421e-09
3.73382e-09
5.02429e-09
4.22557e-09
3.73369e-09
3.58592e-09
3.64509e-09
4.87092e-09
4.19592e-09
3.74859e-09
3.56454e-09
3.52791e-09
4.66056e-09
4.09218e-09
3.68958e-09
3.48642e-09
3.38411e-09
4.40478e-09
3.92813e-09
3.56952e-09
3.36063e-09
3.2169e-09
4.11612e-09
3.71821e-09
3.40213e-09
3.19733e-09
3.03077e-09
3.80623e-09
3.47571e-09
3.20015e-09
3.00647e-09
2.83121e-09
3.48577e-09
3.21256e-09
2.97471e-09
2.79665e-09
2.62284e-09
3.16336e-09
2.93885e-09
2.73564e-09
2.57567e-09
2.41031e-09
2.84573e-09
2.66228e-09
2.4905e-09
2.34969e-09
2.19733e-09
2.69388e-09
2.53794e-09
2.38904e-09
2.24536e-09
2.12366e-09
1.98691e-09
2.36712e-09
2.24378e-09
2.12384e-09
2.00496e-09
1.90166e-09
1.78165e-09
2.06352e-09
1.96656e-09
1.87071e-09
1.77347e-09
1.68726e-09
1.58392e-09
1.78506e-09
1.70933e-09
1.63341e-09
1.5547e-09
1.48392e-09
1.39639e-09
1.53372e-09
1.47494e-09
1.41527e-09
1.35221e-09
1.29493e-09
1.22175e-09
1.31079e-09
1.26542e-09
1.21883e-09
1.16868e-09
1.12288e-09
1.0623e-09
1.11602e-09
1.0811e-09
1.04489e-09
1.00525e-09
9.68976e-10
9.1928e-10
9.47064e-10
9.20256e-10
8.9221e-10
8.61062e-10
8.32587e-10
7.92224e-10
8.00092e-10
7.79555e-10
7.57953e-10
7.33672e-10
7.11564e-10
6.79232e-10
6.85754e-10
6.70946e-10
6.55284e-10
6.38781e-10
6.20097e-10
6.03244e-10
5.77806e-10
5.68012e-10
5.56781e-10
5.44947e-10
5.32523e-10
5.18408e-10
5.05904e-10
4.863e-10
4.64785e-10
4.56314e-10
4.47477e-10
4.38281e-10
4.27832e-10
4.18884e-10
4.04082e-10
3.75976e-10
3.69638e-10
3.63124e-10
3.56435e-10
3.48853e-10
3.42732e-10
3.31733e-10
3.01274e-10
2.96552e-10
2.91787e-10
2.86994e-10
2.81578e-10
2.77557e-10
2.69411e-10
2.40758e-10
2.37206e-10
2.33714e-10
2.30336e-10
2.2658e-10
2.24135e-10
2.18335e-10
1.95654e-10
1.92787e-10
1.90047e-10
1.87498e-10
1.8473e-10
1.83222e-10
1.79142e-10
1.62758e-10
1.60272e-10
1.57945e-10
1.55819e-10
1.5355e-10
1.52466e-10
1.49322e-10
1.35753e-10
1.33531e-10
1.31469e-10
1.29613e-10
1.27679e-10
1.26827e-10
1.24356e-10
1.12027e-10
1.10066e-10
1.08247e-10
1.06643e-10
1.05006e-10
1.04321e-10
1.02377e-10
9.27127e-11
9.06387e-11
8.87789e-11
8.71144e-11
8.57155e-11
8.44053e-11
8.40694e-11
8.32874e-11
7.32852e-11
7.10818e-11
6.90455e-11
6.71932e-11
6.55763e-11
6.40735e-11
6.30869e-11
6.15001e-11
5.20563e-11
5.00939e-11
4.84301e-11
4.70702e-11
4.60888e-11
4.54944e-11
4.62904e-11
4.81765e-11
2.85729e-11
2.58004e-11
2.33922e-11
2.13675e-11
1.9705e-11
1.83624e-11
1.73133e-11
1.58074e-11
1.82911e-11
1.76349e-11
1.74513e-11
1.77774e-11
1.88598e-11
2.08864e-11
2.61314e-11
3.49202e-11
2.27712e-11
2.25354e-11
2.22449e-11
2.18389e-11
2.15239e-11
2.28159e-11
3.16255e-11
4.27457e-11
1.6535e-10
1.77898e-10
1.89193e-10
1.99931e-10
2.12713e-10
2.32316e-10
2.84319e-10
3.31564e-10
5.83327e-10
5.86965e-10
5.89582e-10
5.91357e-10
5.92582e-10
5.96586e-10
6.20923e-10
5.63854e-10
2.12894e-09
2.13038e-09
2.12806e-09
2.1236e-09
2.11408e-09
2.10921e-09
2.07499e-09
1.78598e-09
38.8464
4.31364
0.464125
0.082284
0.00852321
0.000353286
5.88618e-05
0
7.95289e-10
4.40043e-07
1.37867e-06
1.37778e-06
1.13381e-06
9.258e-07
7.61562e-07
6.25661e-07
5.10935e-07
4.14691e-07
3.34729e-07
2.68635e-07
2.14455e-07
1.70345e-07
1.34683e-07
1.06059e-07
8.32217e-08
6.51359e-08
5.09071e-08
3.97846e-08
3.1149e-08
2.44889e-08
1.93872e-08
1.55054e-08
1.25692e-08
1.03623e-08
8.71163e-09
7.4801e-09
6.56087e-09
5.87036e-09
5.34389e-09
4.93244e-09
4.59895e-09
4.31588e-09
4.06407e-09
3.82981e-09
3.60429e-09
3.38256e-09
3.16213e-09
2.94218e-09
2.72363e-09
2.50725e-09
2.29464e-09
2.08696e-09
1.88532e-09
1.69088e-09
1.50489e-09
1.32915e-09
1.16571e-09
1.01642e-09
8.8224e-10
7.62671e-10
6.55965e-10
5.59823e-10
4.72795e-10
3.94351e-10
3.25107e-10
2.65132e-10
2.15915e-10
1.77908e-10
1.48844e-10
1.24352e-10
1.02588e-10
8.40321e-11
6.16387e-11
5.03718e-11
1.52227e-11
4.15293e-11
3.53875e-11
3.19768e-10
4.40108e-10
1.40815e-09
11.8725
2.14728
0.154986
0.00939159
0.000479868
2.25102e-05
2.37227e-06
4.87195e-12
3.69442e-09
3.14282e-07
4.7084e-07
4.43729e-07
3.91632e-07
3.48067e-07
3.10345e-07
2.75316e-07
2.4243e-07
2.11699e-07
1.83525e-07
1.57878e-07
1.34831e-07
1.14319e-07
9.62568e-08
8.05891e-08
6.7109e-08
5.56295e-08
4.59641e-08
3.79052e-08
3.12382e-08
2.57716e-08
2.13215e-08
1.7723e-08
1.48287e-08
1.25108e-08
1.06616e-08
9.18589e-09
8.00832e-09
7.06449e-09
6.30178e-09
5.6786e-09
5.16128e-09
4.72282e-09
4.34352e-09
4.00725e-09
3.70268e-09
3.42169e-09
3.15855e-09
2.90961e-09
2.67266e-09
2.44614e-09
2.22948e-09
2.02214e-09
1.82378e-09
1.6345e-09
1.45483e-09
1.28592e-09
1.12929e-09
9.86456e-10
8.58018e-10
7.4334e-10
6.40689e-10
5.47914e-10
4.63708e-10
3.87684e-10
3.205e-10
2.62151e-10
2.14084e-10
1.76692e-10
1.48115e-10
1.24058e-10
1.02509e-10
8.41495e-11
6.17089e-11
5.09545e-11
1.49406e-11
4.56937e-11
2.71234e-11
3.22147e-10
4.32137e-10
1.47345e-09
4.68186
0.917332
0.0458125
0.000789976
1.77437e-05
2.48518e-06
2.62129e-08
6.01816e-11
3.34737e-08
1.75652e-07
1.7005e-07
1.52937e-07
1.36598e-07
1.23809e-07
1.12634e-07
1.02297e-07
9.27618e-08
8.39205e-08
7.57036e-08
6.8188e-08
6.12478e-08
5.48661e-08
4.89747e-08
4.35957e-08
3.86813e-08
3.41902e-08
3.01201e-08
2.64575e-08
2.31733e-08
2.02552e-08
1.7681e-08
1.54277e-08
1.34707e-08
1.17827e-08
1.03364e-08
9.10187e-09
8.0528e-09
7.16188e-09
6.40455e-09
5.75831e-09
5.20392e-09
4.72368e-09
4.30374e-09
3.93179e-09
3.59833e-09
3.29602e-09
3.01876e-09
2.76245e-09
2.52374e-09
2.30015e-09
2.08997e-09
1.89167e-09
1.70416e-09
1.52676e-09
1.35946e-09
1.20291e-09
1.05814e-09
9.26322e-10
8.07738e-10
7.01642e-10
6.06336e-10
5.19871e-10
4.41116e-10
3.69823e-10
3.06698e-10
2.51713e-10
2.06204e-10
1.70603e-10
1.43463e-10
1.20687e-10
1.00055e-10
8.24331e-11
6.06694e-11
5.03438e-11
1.53298e-11
4.74912e-11
2.36403e-11
3.169e-10
4.14976e-10
1.48075e-09
1.9009
0.289812
0.00651744
1.149e-05
2.33709e-06
6.68751e-14
2.07525e-12
1.33765e-09
5.66888e-08
8.51008e-08
7.37035e-08
6.83315e-08
6.32029e-08
5.90129e-08
5.49367e-08
5.09447e-08
4.71538e-08
4.35396e-08
4.01148e-08
3.69358e-08
3.39463e-08
3.11788e-08
2.86017e-08
2.62034e-08
2.39824e-08
2.19183e-08
1.99973e-08
1.82149e-08
1.65601e-08
1.50277e-08
1.36119e-08
1.23079e-08
1.11142e-08
1.00253e-08
9.03759e-09
8.14724e-09
7.34779e-09
6.63309e-09
5.99629e-09
5.42921e-09
4.92477e-09
4.47531e-09
4.0731e-09
3.71197e-09
3.38596e-09
3.08999e-09
2.81953e-09
2.57131e-09
2.3422e-09
2.12973e-09
1.93193e-09
1.74688e-09
1.57322e-09
1.40992e-09
1.25658e-09
1.11358e-09
9.81615e-10
8.61502e-10
7.53364e-10
6.56381e-10
5.68926e-10
4.89251e-10
4.16409e-10
3.50247e-10
2.91525e-10
2.40206e-10
1.97552e-10
1.64068e-10
1.38567e-10
1.17161e-10
9.75499e-11
8.07672e-11
5.97986e-11
4.9918e-11
1.62553e-11
4.88131e-11
2.21542e-11
3.10568e-10
3.94099e-10
1.45914e-09
0.60194
0.0485187
0.000133832
5.91807e-06
0
2.25845e-14
1.56908e-11
1.58871e-08
4.76889e-08
4.51224e-08
4.04408e-08
3.91049e-08
3.76354e-08
3.63705e-08
3.49609e-08
3.34825e-08
3.19448e-08
3.03331e-08
2.86937e-08
2.70327e-08
2.53557e-08
2.36929e-08
2.20702e-08
2.04801e-08
1.89488e-08
1.74954e-08
1.61103e-08
1.48078e-08
1.35894e-08
1.24534e-08
1.13988e-08
1.04213e-08
9.52083e-09
8.69022e-09
7.92651e-09
7.22757e-09
6.58707e-09
6.00268e-09
5.46997e-09
4.98479e-09
4.54424e-09
4.14376e-09
3.77919e-09
3.44772e-09
3.14548e-09
2.86935e-09
2.61633e-09
2.38402e-09
2.17001e-09
1.97215e-09
1.78867e-09
1.61764e-09
1.45773e-09
1.30784e-09
1.16741e-09
1.03664e-09
9.16091e-10
8.06306e-10
7.0729e-10
6.18211e-10
5.3755e-10
4.63751e-10
3.96035e-10
3.34327e-10
2.79426e-10
2.31271e-10
1.9106e-10
1.5937e-10
1.35233e-10
1.14915e-10
9.61071e-11
7.9985e-11
5.96365e-11
5.01765e-11
1.7566e-11
5.09562e-11
2.11072e-11
3.10844e-10
3.83374e-10
1.45641e-09
0.109281
0.00232422
1.36653e-05
0
2.15207e-17
1.57412e-14
4.91906e-09
2.76605e-08
3.21711e-08
2.77717e-08
2.64241e-08
2.59598e-08
2.5322e-08
2.46933e-08
2.39625e-08
2.31974e-08
2.23683e-08
2.14893e-08
2.05891e-08
1.96569e-08
1.87054e-08
1.77399e-08
1.67768e-08
1.58094e-08
1.4852e-08
1.39151e-08
1.29924e-08
1.20997e-08
1.12388e-08
1.04132e-08
9.62782e-09
8.88342e-09
8.18455e-09
7.52932e-09
6.9182e-09
6.35182e-09
5.82645e-09
5.34201e-09
4.89513e-09
4.48361e-09
4.10589e-09
3.75839e-09
3.43889e-09
3.14574e-09
2.87599e-09
2.62797e-09
2.39953e-09
2.18897e-09
1.99459e-09
1.81466e-09
1.64776e-09
1.49218e-09
1.3468e-09
1.21058e-09
1.08298e-09
9.64155e-10
8.54563e-10
7.54611e-10
6.64214e-10
5.82567e-10
5.08295e-10
4.40036e-10
3.77157e-10
3.1968e-10
2.68409e-10
2.23252e-10
1.85328e-10
1.55309e-10
1.32453e-10
1.13134e-10
9.50732e-11
7.95575e-11
5.97863e-11
5.07759e-11
1.91195e-11
5.362e-11
1.99029e-11
3.13624e-10
0.0057142
9.69975e-07
7.37252e-07
0
2.73833e-12
1.58949e-09
1.47077e-08
1.95164e-08
1.73955e-08
1.60259e-08
1.60039e-08
1.59363e-08
1.5781e-08
1.55929e-08
1.53389e-08
1.50536e-08
1.47126e-08
1.43253e-08
1.39081e-08
1.3455e-08
1.29758e-08
1.24721e-08
1.19475e-08
1.14116e-08
1.08702e-08
1.03221e-08
9.77239e-09
9.23058e-09
8.69424e-09
8.16845e-09
7.65626e-09
7.15845e-09
6.67899e-09
6.2186e-09
5.77854e-09
5.36045e-09
4.96422e-09
4.59124e-09
4.24024e-09
3.91153e-09
3.6048e-09
3.31823e-09
3.05172e-09
2.80394e-09
2.57348e-09
2.35979e-09
2.16133e-09
1.97721e-09
1.80629e-09
1.64737e-09
1.49943e-09
1.36117e-09
1.23165e-09
1.11003e-09
9.95959e-10
8.89542e-10
7.91191e-10
7.0127e-10
6.1963e-10
5.45545e-10
4.77795e-10
4.15224e-10
3.57331e-10
3.04234e-10
2.56737e-10
2.14696e-10
1.79161e-10
1.50919e-10
1.29435e-10
1.11178e-10
9.39389e-11
7.90873e-11
5.99666e-11
5.14854e-11
2.0875e-11
5.63895e-11
5.31281e-06
3.3515e-06
0
5.37655e-13
3.60495e-10
8.27071e-09
1.19127e-08
1.08208e-08
9.89186e-09
9.82217e-09
9.97662e-09
1.00121e-08
1.00158e-08
9.98802e-09
9.9222e-09
9.82838e-09
9.69899e-09
9.53881e-09
9.35342e-09
9.14115e-09
8.90674e-09
8.65249e-09
8.37805e-09
8.09046e-09
7.79331e-09
7.48397e-09
7.1682e-09
6.84998e-09
6.52825e-09
6.20697e-09
5.88776e-09
5.57111e-09
5.2601e-09
4.95537e-09
4.65776e-09
4.36895e-09
4.08937e-09
3.82035e-09
3.56193e-09
3.31487e-09
3.07967e-09
2.85603e-09
2.64447e-09
2.4446e-09
2.25615e-09
2.07926e-09
1.91308e-09
1.75747e-09
1.61179e-09
1.47537e-09
1.34759e-09
1.22753e-09
1.11455e-09
1.00802e-09
9.07754e-10
8.13919e-10
7.26888e-10
6.47011e-10
5.7414e-10
5.0764e-10
4.46458e-10
3.89643e-10
3.36834e-10
2.88207e-10
2.44577e-10
2.05734e-10
1.72675e-10
1.4631e-10
1.26264e-10
1.09114e-10
9.27574e-11
7.86155e-11
6.02227e-11
5.23331e-11
3.86063e-06
0
3.98905e-14
2.55715e-11
5.56781e-09
7.82171e-09
7.0533e-09
6.4336e-09
6.39374e-09
6.56657e-09
6.68837e-09
6.76014e-09
6.81455e-09
6.84248e-09
6.84568e-09
6.82431e-09
6.77784e-09
6.71017e-09
6.62142e-09
6.51227e-09
6.3849e-09
6.2423e-09
6.08636e-09
5.91653e-09
5.73788e-09
5.55103e-09
5.35667e-09
5.15735e-09
4.95404e-09
4.74858e-09
4.54118e-09
4.33312e-09
4.12672e-09
3.92094e-09
3.71752e-09
3.51767e-09
3.32116e-09
3.12923e-09
2.94225e-09
2.76056e-09
2.58479e-09
2.41532e-09
2.25227e-09
2.09603e-09
1.94673e-09
1.80465e-09
1.66955e-09
1.54165e-09
1.42072e-09
1.30648e-09
1.19861e-09
1.09652e-09
9.99838e-10
9.08166e-10
8.21419e-10
7.3985e-10
6.6384e-10
5.93697e-10
5.29332e-10
4.70209e-10
4.15444e-10
3.6428e-10
3.16491e-10
2.72291e-10
2.32493e-10
1.96829e-10
1.66251e-10
1.41789e-10
1.23182e-10
1.07134e-10
9.16812e-11
0
5.46342e-18
5.17533e-15
2.68891e-09
5.59834e-09
4.55235e-09
4.22939e-09
4.2147e-09
4.36918e-09
4.50818e-09
4.60398e-09
4.68453e-09
4.75077e-09
4.7977e-09
4.82757e-09
4.84136e-09
4.83656e-09
4.81499e-09
4.77803e-09
4.72581e-09
4.65968e-09
4.58098e-09
4.49156e-09
4.39133e-09
4.28309e-09
4.16789e-09
4.04561e-09
3.91857e-09
3.78746e-09
3.65342e-09
3.51612e-09
3.37728e-09
3.23818e-09
3.09753e-09
2.95736e-09
2.81798e-09
2.67937e-09
2.54253e-09
2.40753e-09
2.27486e-09
2.14497e-09
2.01808e-09
1.89459e-09
1.77474e-09
1.65878e-09
1.54712e-09
1.43973e-09
1.33695e-09
1.23877e-09
1.14514e-09
1.05594e-09
9.70835e-10
8.8963e-10
8.12066e-10
7.3822e-10
6.68337e-10
6.02817e-10
5.41963e-10
4.8572e-10
4.33669e-10
3.85098e-10
3.39423e-10
2.96525e-10
2.56664e-10
2.20624e-10
1.88084e-10
0
1.93678e-12
1.43286e-09
3.79506e-09
3.06631e-09
2.74415e-09
2.80965e-09
2.92508e-09
3.04916e-09
3.14162e-09
3.22058e-09
3.29141e-09
3.3503e-09
3.39746e-09
3.43191e-09
3.45535e-09
3.46635e-09
3.46466e-09
3.45258e-09
3.42977e-09
3.39726e-09
3.35544e-09
3.30553e-09
3.24812e-09
3.18455e-09
3.1152e-09
3.04032e-09
2.96156e-09
2.87903e-09
2.79343e-09
2.70487e-09
2.61419e-09
2.52207e-09
2.42812e-09
2.33337e-09
2.23796e-09
2.14205e-09
2.04629e-09
1.9506e-09
1.85546e-09
1.76123e-09
1.66801e-09
1.5762e-09
1.486e-09
1.3977e-09
1.3117e-09
1.22804e-09
1.14712e-09
1.06902e-09
9.93819e-10
9.21522e-10
8.51933e-10
7.84977e-10
7.20514e-10
6.58678e-10
5.99725e-10
5.44046e-10
4.91934e-10
4.43374e-10
3.98055e-10
3.55423e-10
1.24456e-12
5.99586e-10
2.52721e-09
2.06388e-09
1.82823e-09
1.89372e-09
1.99967e-09
2.09261e-09
2.17315e-09
2.2409e-09
2.30375e-09
2.35993e-09
2.40767e-09
2.44774e-09
2.47831e-09
2.50119e-09
2.51558e-09
2.52089e-09
2.51911e-09
2.50964e-09
2.49341e-09
2.47051e-09
2.44219e-09
2.4085e-09
2.37032e-09
2.32813e-09
2.28197e-09
2.23294e-09
2.18103e-09
2.12667e-09
2.06997e-09
2.01148e-09
1.95139e-09
1.88955e-09
1.82665e-09
1.7626e-09
1.69755e-09
1.63192e-09
1.56553e-09
1.49876e-09
1.43189e-09
1.36489e-09
1.29804e-09
1.23161e-09
1.16578e-09
1.10086e-09
1.03701e-09
9.74576e-10
9.13698e-10
8.54481e-10
7.97033e-10
7.41216e-10
6.87031e-10
6.34422e-10
6.05997e-10
1.32956e-09
1.4859e-09
1.23167e-09
1.30987e-09
1.39218e-09
1.46377e-09
1.52539e-09
1.58124e-09
1.63208e-09
1.68032e-09
1.72271e-09
1.7592e-09
1.79052e-09
1.81542e-09
1.83479e-09
1.84803e-09
1.85533e-09
1.85744e-09
1.85429e-09
1.84637e-09
1.83406e-09
1.81753e-09
1.79751e-09
1.77442e-09
1.74814e-09
1.71939e-09
1.68845e-09
1.65545e-09
1.62062e-09
1.58406e-09
1.54623e-09
1.50692e-09
1.46631e-09
1.42477e-09
1.382e-09
1.33835e-09
1.29381e-09
1.24833e-09
1.20223e-09
1.15544e-09
1.10807e-09
)
;

boundaryField
{
    inlet
    {
        type            calculated;
        value           nonuniform List<scalar> 
13
(
2.2204e-08
2.28022e-08
2.33347e-08
2.38196e-08
2.42943e-08
2.47899e-08
2.54404e-08
2.56317e-08
2.51528e-08
2.48701e-08
2.45025e-08
2.41874e-08
2.39315e-08
)
;
    }
    outlet
    {
        type            calculated;
        value           nonuniform List<scalar> 0();
    }
    walls
    {
        type            calculated;
        value           uniform 0;
    }
    frontAndBack
    {
        type            empty;
    }
    procBoundary2to1
    {
        type            processor;
        value           nonuniform List<scalar> 
84
(
1025.38
1.13457
0.0598456
6.81241e-05
1.07824e-05
1.54761e-07
4.25048e-07
3.75334e-07
4.47797e-07
3.40768e-07
3.40289e-07
3.03207e-07
2.82394e-07
2.55778e-07
2.32013e-07
2.08113e-07
1.85353e-07
1.63488e-07
1.42793e-07
1.23397e-07
1.05415e-07
8.89456e-08
7.40684e-08
6.08299e-08
4.92339e-08
3.92539e-08
3.08322e-08
2.38801e-08
1.82801e-08
1.38988e-08
1.05857e-08
8.18222e-09
6.53144e-09
5.48064e-09
4.8885e-09
4.62683e-09
4.5856e-09
4.67326e-09
4.67326e-09
7.57578e-09
7.25745e-09
6.97678e-09
6.70039e-09
6.40797e-09
6.08973e-09
5.74366e-09
5.37304e-09
4.98459e-09
4.58628e-09
4.18617e-09
3.7917e-09
3.40878e-09
3.04183e-09
3.04183e-09
2.85413e-09
2.4921e-09
2.16051e-09
1.85993e-09
1.59119e-09
1.35471e-09
1.14949e-09
9.72566e-10
8.19526e-10
8.19526e-10
6.99947e-10
5.78848e-10
4.7305e-10
3.82267e-10
3.06071e-10
2.44444e-10
1.98677e-10
1.65423e-10
1.38155e-10
1.14163e-10
1.14163e-10
9.49718e-11
7.56261e-11
5.43153e-11
3.16705e-11
1.94156e-11
2.30957e-11
1.51631e-10
5.78024e-10
2.12197e-09
)
;
    }
    procBoundary2to3
    {
        type            processor;
        value           nonuniform List<scalar> 
88
(
3.77908e-10
1.4619e-09
1.88303e-11
3.77908e-10
3.16279e-10
2.2878e-11
1.88303e-11
5.91604e-11
7.82562e-11
6.06467e-11
2.2878e-11
5.33811e-11
1.59968e-10
1.37406e-10
1.20222e-10
1.0526e-10
7.82562e-11
9.07234e-11
3.1505e-10
2.76907e-10
2.41278e-10
2.08914e-10
1.59968e-10
1.79439e-10
5.83515e-10
5.34571e-10
4.87956e-10
4.43939e-10
4.02545e-10
3.6356e-10
3.1505e-10
3.26566e-10
1.06026e-09
1.01221e-09
9.64012e-10
9.15891e-10
8.6812e-10
8.2085e-10
7.74285e-10
7.28567e-10
6.83783e-10
6.39883e-10
5.96855e-10
5.83515e-10
5.54684e-10
1.09237e-09
8.53894e-10
9.08549e-10
9.09896e-10
9.9341e-10
1.0401e-09
1.08744e-09
1.12953e-09
1.16997e-09
1.20777e-09
1.24261e-09
1.2734e-09
1.30016e-09
1.32368e-09
1.34257e-09
1.35738e-09
1.36818e-09
1.37508e-09
1.37833e-09
1.37799e-09
1.37429e-09
1.36765e-09
1.35829e-09
1.34643e-09
1.33228e-09
1.31617e-09
1.29838e-09
1.27887e-09
1.25803e-09
1.23583e-09
1.21246e-09
1.18803e-09
1.16254e-09
1.13614e-09
1.10883e-09
1.08058e-09
1.05159e-09
1.02166e-09
9.90909e-10
9.59455e-10
9.27179e-10
1.06026e-09
8.94193e-10
)
;
    }
    procBoundary2to6
    {
        type            processor;
        value           nonuniform List<scalar> 
13
(
59.8492
25.3303
10.5462
4.87492
2.10837
0.696445
0.125973
0.00584511
4.05355e-06
1.86304e-06
0
0
1.79298e-12
)
;
    }
}


// ************************************************************************* //
