/*--------------------------------*- C++ -*----------------------------------*\
| =========                 |                                                 |
| \\      /  F ield         | OpenFOAM: The Open Source CFD Toolbox           |
|  \\    /   O peration     | Version:  2306                                  |
|   \\  /    A nd           | Website:  www.openfoam.com                      |
|    \\/     M anipulation  |                                                 |
\*---------------------------------------------------------------------------*/
FoamFile
{
    version     2.0;
    format      ascii;
    arch        "LSB;label=32;scalar=64";
    class       volScalarField;
    location    "375";
    object      turbulenceProperties:nut;
}
// * * * * * * * * * * * * * * * * * * * * * * * * * * * * * * * * * * * * * //

dimensions      [0 2 -1 0 0 0 0];

internalField   nonuniform List<scalar> 
1340
(
0.106577
0.104431
0.101996
0.0924632
0.0699951
0.0717267
0.0752987
0.07846
0.0396004
0.0469996
0.0536718
0.0631645
0.00689417
0.0131036
0.0218476
0.0392286
0.000310138
0.001043
0.00174555
0.013707
4.4342e-05
0.000241606
0.000454902
0.00240297
3.12162e-07
9.74139e-09
0
0.000574204
5.03359e-06
2.87855e-06
1.90789e-08
0
6.21925e-06
6.67513e-06
4.83967e-06
3.45322e-09
6.17784e-06
5.82029e-06
8.90876e-06
7.67865e-07
6.16468e-06
5.85917e-06
7.18486e-06
4.46469e-06
6.11918e-06
6.06059e-06
6.21501e-06
6.21677e-06
6.10287e-06
6.11724e-06
6.05519e-06
6.26987e-06
6.10212e-06
6.1127e-06
6.08213e-06
6.1504e-06
6.10314e-06
6.1056e-06
6.1023e-06
6.10835e-06
6.10317e-06
6.10339e-06
6.10581e-06
6.10301e-06
6.10286e-06
6.10298e-06
6.10492e-06
6.10368e-06
6.10259e-06
6.10281e-06
6.10406e-06
6.10385e-06
6.10243e-06
6.10263e-06
6.1036e-06
6.10359e-06
6.10233e-06
6.10248e-06
6.10332e-06
6.1033e-06
6.10223e-06
6.10233e-06
6.10306e-06
6.10305e-06
6.1022e-06
6.10226e-06
6.10287e-06
6.10286e-06
6.10216e-06
6.1022e-06
6.1027e-06
6.10271e-06
6.1021e-06
6.10213e-06
6.10254e-06
6.10258e-06
6.10201e-06
6.10203e-06
6.10235e-06
6.10244e-06
6.1019e-06
6.10192e-06
6.10216e-06
6.10228e-06
6.10175e-06
6.10183e-06
6.10199e-06
6.10215e-06
6.10156e-06
6.10171e-06
6.10182e-06
6.10202e-06
6.10135e-06
6.10156e-06
6.10161e-06
6.10186e-06
6.10111e-06
6.10136e-06
6.10143e-06
6.10173e-06
6.10084e-06
6.10113e-06
6.10124e-06
6.10161e-06
6.10054e-06
6.10085e-06
6.10101e-06
6.10146e-06
6.1002e-06
6.10054e-06
6.10074e-06
6.10125e-06
6.09982e-06
6.10019e-06
6.10041e-06
6.10099e-06
6.09939e-06
6.09978e-06
6.10004e-06
6.10067e-06
6.09891e-06
6.09932e-06
6.0996e-06
6.10028e-06
6.09837e-06
6.09879e-06
6.09909e-06
6.09982e-06
6.09777e-06
6.0982e-06
6.09852e-06
6.09928e-06
6.09674e-06
6.0971e-06
6.09754e-06
6.09787e-06
6.09866e-06
6.096e-06
6.09636e-06
6.09681e-06
6.09715e-06
6.09796e-06
6.09521e-06
6.09556e-06
6.09601e-06
6.09635e-06
6.09717e-06
6.09435e-06
6.0947e-06
6.09514e-06
6.09548e-06
6.0963e-06
6.09344e-06
6.09378e-06
6.09421e-06
6.09455e-06
6.09537e-06
6.0925e-06
6.09282e-06
6.09324e-06
6.09357e-06
6.09438e-06
6.09153e-06
6.09184e-06
6.09225e-06
6.09257e-06
6.09335e-06
6.09055e-06
6.09085e-06
6.09125e-06
6.09156e-06
6.09231e-06
6.08959e-06
6.08988e-06
6.09026e-06
6.09056e-06
6.09128e-06
6.08864e-06
6.08892e-06
6.08929e-06
6.08958e-06
6.09027e-06
6.08771e-06
6.08798e-06
6.08834e-06
6.08862e-06
6.08928e-06
6.08676e-06
6.08703e-06
6.08738e-06
6.08766e-06
6.0883e-06
6.08576e-06
6.08602e-06
6.08636e-06
6.08664e-06
6.08727e-06
6.08463e-06
6.08488e-06
6.08521e-06
6.08549e-06
6.08611e-06
6.08308e-06
6.08329e-06
6.08352e-06
6.08384e-06
6.08412e-06
6.08473e-06
6.0815e-06
6.08167e-06
6.08189e-06
6.08218e-06
6.08245e-06
6.08305e-06
6.07963e-06
6.07978e-06
6.07996e-06
6.08023e-06
6.08046e-06
6.08104e-06
6.07757e-06
6.07768e-06
6.07782e-06
6.07804e-06
6.07824e-06
6.07877e-06
6.07547e-06
6.07554e-06
6.07564e-06
6.07581e-06
6.07596e-06
6.07641e-06
6.07359e-06
6.07363e-06
6.07369e-06
6.07381e-06
6.07389e-06
6.07424e-06
6.07221e-06
6.07223e-06
6.07225e-06
6.07232e-06
6.07235e-06
6.07257e-06
6.07164e-06
6.07164e-06
6.07164e-06
6.07166e-06
6.07166e-06
6.07174e-06
6.07221e-06
6.07225e-06
6.07228e-06
6.07228e-06
6.07229e-06
6.07223e-06
6.07365e-06
6.07376e-06
6.07384e-06
6.0739e-06
6.07392e-06
6.07397e-06
6.07382e-06
6.07593e-06
6.0761e-06
6.07624e-06
6.07635e-06
6.07642e-06
6.07651e-06
6.07636e-06
6.07894e-06
6.07918e-06
6.07938e-06
6.07956e-06
6.07969e-06
6.07984e-06
6.07973e-06
6.08251e-06
6.08282e-06
6.0831e-06
6.08335e-06
6.08356e-06
6.08379e-06
6.08375e-06
6.08639e-06
6.08677e-06
6.08712e-06
6.08745e-06
6.08773e-06
6.08804e-06
6.08809e-06
6.09034e-06
6.09077e-06
6.09118e-06
6.09156e-06
6.09191e-06
6.09229e-06
6.09242e-06
6.0936e-06
6.09409e-06
6.09456e-06
6.09502e-06
6.09545e-06
6.09593e-06
6.09618e-06
6.09586e-06
6.09639e-06
6.09691e-06
6.09743e-06
6.09795e-06
6.09852e-06
6.09893e-06
6.09762e-06
6.09816e-06
6.09869e-06
6.09924e-06
6.09979e-06
6.10041e-06
6.10092e-06
6.09898e-06
6.09952e-06
6.10007e-06
6.10063e-06
6.1012e-06
6.10185e-06
6.10241e-06
6.09967e-06
6.10025e-06
6.10083e-06
6.10141e-06
6.102e-06
6.10261e-06
6.10329e-06
6.10388e-06
6.10167e-06
6.10237e-06
6.10307e-06
6.10376e-06
6.10447e-06
6.10519e-06
6.10599e-06
6.10665e-06
6.10556e-06
6.10651e-06
6.10744e-06
6.10838e-06
6.10934e-06
6.11032e-06
6.11143e-06
6.11233e-06
6.11149e-06
6.11271e-06
6.11393e-06
6.11516e-06
6.11642e-06
6.11773e-06
6.11918e-06
6.12049e-06
6.11632e-06
6.11755e-06
6.11877e-06
6.12001e-06
6.12128e-06
6.12262e-06
6.12413e-06
6.12557e-06
6.11421e-06
6.11497e-06
6.11573e-06
6.11648e-06
6.11724e-06
6.11804e-06
6.11884e-06
6.11977e-06
6.10693e-06
6.10791e-06
6.10892e-06
6.10997e-06
6.1111e-06
6.11229e-06
6.11375e-06
6.11491e-06
6.11363e-06
6.11661e-06
6.11965e-06
6.12278e-06
6.12604e-06
6.1295e-06
6.1334e-06
6.13705e-06
6.11016e-06
6.11144e-06
6.1126e-06
6.11367e-06
6.11466e-06
6.11558e-06
6.11657e-06
6.11741e-06
0.126625
0.0830826
0.0542619
0.0293397
0.00866192
0.000729783
0.000161672
0
4.76144e-09
1.56136e-06
5.37972e-06
6.35521e-06
6.25203e-06
6.14055e-06
6.1115e-06
6.10908e-06
6.1093e-06
6.10863e-06
6.10767e-06
6.10679e-06
6.10605e-06
6.10542e-06
6.1049e-06
6.10444e-06
6.10402e-06
6.10365e-06
6.10333e-06
6.10304e-06
6.10277e-06
6.10254e-06
6.10233e-06
6.1021e-06
6.10184e-06
6.10152e-06
6.10115e-06
6.10072e-06
6.10022e-06
6.09965e-06
6.099e-06
6.09826e-06
6.09744e-06
6.09655e-06
6.09559e-06
6.09457e-06
6.09353e-06
6.09248e-06
6.09144e-06
6.09042e-06
6.08943e-06
6.08844e-06
6.0874e-06
6.08622e-06
6.08481e-06
6.0831e-06
6.08105e-06
6.07873e-06
6.07635e-06
6.07419e-06
6.07257e-06
6.07181e-06
6.07235e-06
6.07399e-06
6.07661e-06
6.08006e-06
6.08415e-06
6.08855e-06
6.09292e-06
6.09672e-06
6.09948e-06
6.10145e-06
6.10293e-06
6.10443e-06
6.10734e-06
6.11327e-06
6.12167e-06
6.1265e-06
6.12032e-06
6.11595e-06
6.13946e-06
6.11822e-06
0.149904
0.0867166
0.0431562
0.0174858
0.00355463
0.000251381
2.36486e-05
1.60111e-10
6.29955e-08
3.81651e-06
6.16159e-06
6.36024e-06
6.20037e-06
6.12845e-06
6.11531e-06
6.11458e-06
6.11379e-06
6.11229e-06
6.11077e-06
6.10944e-06
6.10831e-06
6.10735e-06
6.10654e-06
6.10583e-06
6.10521e-06
6.10467e-06
6.10421e-06
6.10381e-06
6.10345e-06
6.10316e-06
6.10289e-06
6.1026e-06
6.10228e-06
6.10193e-06
6.10152e-06
6.10105e-06
6.10052e-06
6.09991e-06
6.09923e-06
6.09846e-06
6.09762e-06
6.0967e-06
6.09572e-06
6.0947e-06
6.09364e-06
6.09258e-06
6.09154e-06
6.09052e-06
6.08953e-06
6.08853e-06
6.08748e-06
6.08628e-06
6.08484e-06
6.08307e-06
6.08097e-06
6.07862e-06
6.07621e-06
6.07407e-06
6.0725e-06
6.07183e-06
6.07247e-06
6.0742e-06
6.0769e-06
6.08043e-06
6.08459e-06
6.08902e-06
6.09343e-06
6.09724e-06
6.09996e-06
6.1019e-06
6.10335e-06
6.10488e-06
6.10794e-06
6.11408e-06
6.12263e-06
6.12711e-06
6.1207e-06
6.11692e-06
6.14102e-06
6.1187e-06
0.151259
0.0808175
0.0294904
0.00713116
0.00049968
7.07617e-05
7.97961e-07
3.79188e-09
1.17319e-06
6.04093e-06
6.40298e-06
6.28347e-06
6.15626e-06
6.12297e-06
6.11934e-06
6.11858e-06
6.11685e-06
6.1148e-06
6.11294e-06
6.11133e-06
6.10995e-06
6.10878e-06
6.10777e-06
6.1069e-06
6.10615e-06
6.1055e-06
6.10495e-06
6.10448e-06
6.10407e-06
6.10372e-06
6.1034e-06
6.10307e-06
6.10271e-06
6.10232e-06
6.10188e-06
6.10138e-06
6.10082e-06
6.10018e-06
6.09947e-06
6.09868e-06
6.09781e-06
6.09687e-06
6.09587e-06
6.09483e-06
6.09376e-06
6.0927e-06
6.09165e-06
6.09064e-06
6.08965e-06
6.08865e-06
6.08757e-06
6.08634e-06
6.08486e-06
6.08304e-06
6.08089e-06
6.07849e-06
6.07607e-06
6.07394e-06
6.07241e-06
6.07185e-06
6.0726e-06
6.07443e-06
6.07723e-06
6.08085e-06
6.08507e-06
6.08954e-06
6.09398e-06
6.0978e-06
6.10048e-06
6.10237e-06
6.10379e-06
6.10536e-06
6.10859e-06
6.11498e-06
6.12366e-06
6.12772e-06
6.1211e-06
6.11805e-06
6.14262e-06
6.11918e-06
0.135184
0.0642286
0.0149379
0.000796079
0.000191218
1.93841e-11
4.19736e-10
1.39109e-07
4.41545e-06
6.90019e-06
6.32023e-06
6.2075e-06
6.13262e-06
6.1235e-06
6.12278e-06
6.12112e-06
6.11872e-06
6.11636e-06
6.11431e-06
6.11254e-06
6.11102e-06
6.10973e-06
6.10862e-06
6.10766e-06
6.10683e-06
6.10614e-06
6.10554e-06
6.10503e-06
6.1046e-06
6.10423e-06
6.10388e-06
6.10351e-06
6.10313e-06
6.10271e-06
6.10224e-06
6.10171e-06
6.10112e-06
6.10046e-06
6.09972e-06
6.0989e-06
6.09801e-06
6.09705e-06
6.09603e-06
6.09497e-06
6.0939e-06
6.09283e-06
6.09179e-06
6.09077e-06
6.08978e-06
6.08877e-06
6.08768e-06
6.08641e-06
6.08488e-06
6.083e-06
6.08079e-06
6.07835e-06
6.07592e-06
6.07381e-06
6.07234e-06
6.07187e-06
6.07274e-06
6.07468e-06
6.07758e-06
6.0813e-06
6.08559e-06
6.0901e-06
6.09457e-06
6.09839e-06
6.10102e-06
6.10285e-06
6.10425e-06
6.10587e-06
6.10929e-06
6.11594e-06
6.12473e-06
6.12835e-06
6.12152e-06
6.11932e-06
6.14428e-06
6.11963e-06
0.104405
0.0387299
0.0029689
0.000730199
0
1.3522e-11
4.67589e-09
2.39321e-06
6.93432e-06
6.73586e-06
6.19301e-06
6.16273e-06
6.12528e-06
6.12669e-06
6.12531e-06
6.12274e-06
6.11994e-06
6.11742e-06
6.11526e-06
6.11339e-06
6.11179e-06
6.11043e-06
6.10925e-06
6.10824e-06
6.10738e-06
6.10666e-06
6.10605e-06
6.10552e-06
6.10508e-06
6.1047e-06
6.10432e-06
6.10394e-06
6.10353e-06
6.10308e-06
6.10259e-06
6.10204e-06
6.10143e-06
6.10074e-06
6.09997e-06
6.09913e-06
6.09821e-06
6.09723e-06
6.0962e-06
6.09513e-06
6.09404e-06
6.09297e-06
6.09193e-06
6.09091e-06
6.08992e-06
6.0889e-06
6.08779e-06
6.08648e-06
6.08489e-06
6.08295e-06
6.08068e-06
6.0782e-06
6.07576e-06
6.07367e-06
6.07226e-06
6.0719e-06
6.0729e-06
6.07495e-06
6.07797e-06
6.08178e-06
6.08614e-06
6.09069e-06
6.09519e-06
6.09901e-06
6.10159e-06
6.10336e-06
6.10473e-06
6.10642e-06
6.11004e-06
6.11698e-06
6.12584e-06
6.12899e-06
6.12196e-06
6.12073e-06
6.14604e-06
6.12003e-06
0.0648585
0.0145652
0.00358742
0
4.19553e-14
1.50889e-11
1.21645e-06
6.1886e-06
7.23403e-06
6.34491e-06
6.13388e-06
6.14421e-06
6.12644e-06
6.12978e-06
6.12677e-06
6.12368e-06
6.12072e-06
6.11815e-06
6.11593e-06
6.11402e-06
6.11239e-06
6.11098e-06
6.10977e-06
6.10874e-06
6.10787e-06
6.10714e-06
6.10652e-06
6.106e-06
6.10555e-06
6.10515e-06
6.10476e-06
6.10436e-06
6.10393e-06
6.10346e-06
6.10295e-06
6.10237e-06
6.10173e-06
6.10102e-06
6.10023e-06
6.09936e-06
6.09842e-06
6.09742e-06
6.09636e-06
6.09528e-06
6.09419e-06
6.09312e-06
6.09207e-06
6.09106e-06
6.09006e-06
6.08903e-06
6.08789e-06
6.08655e-06
6.0849e-06
6.08289e-06
6.08056e-06
6.07804e-06
6.07559e-06
6.07353e-06
6.07219e-06
6.07195e-06
6.07309e-06
6.07526e-06
6.07838e-06
6.08229e-06
6.08672e-06
6.09131e-06
6.09584e-06
6.09965e-06
6.10218e-06
6.10389e-06
6.10524e-06
6.10701e-06
6.11085e-06
6.11809e-06
6.127e-06
6.12965e-06
6.12242e-06
6.12228e-06
0.0257819
0.000601215
0.000132213
0
2.52337e-09
7.26563e-07
5.72101e-06
7.46032e-06
6.64188e-06
6.13014e-06
6.13102e-06
6.13833e-06
6.13014e-06
6.13147e-06
6.12732e-06
6.1241e-06
6.12112e-06
6.11857e-06
6.11636e-06
6.11445e-06
6.11281e-06
6.1114e-06
6.1102e-06
6.10917e-06
6.10831e-06
6.10758e-06
6.10697e-06
6.10645e-06
6.10601e-06
6.1056e-06
6.1052e-06
6.10477e-06
6.10433e-06
6.10384e-06
6.1033e-06
6.10271e-06
6.10204e-06
6.1013e-06
6.10048e-06
6.09959e-06
6.09862e-06
6.0976e-06
6.09653e-06
6.09544e-06
6.09435e-06
6.09327e-06
6.09223e-06
6.09122e-06
6.09022e-06
6.08917e-06
6.088e-06
6.0866e-06
6.08489e-06
6.08281e-06
6.08041e-06
6.07786e-06
6.07541e-06
6.07338e-06
6.07213e-06
6.07202e-06
6.07329e-06
6.07559e-06
6.07883e-06
6.08284e-06
6.08734e-06
6.09198e-06
6.09654e-06
6.10033e-06
6.10279e-06
6.10444e-06
6.10577e-06
6.10764e-06
6.11173e-06
6.11929e-06
6.12821e-06
6.13033e-06
0.00295502
0.000731302
0
1.04249e-09
3.1464e-07
5.50196e-06
7.67322e-06
6.85792e-06
6.2012e-06
6.09681e-06
6.14184e-06
6.13662e-06
6.13316e-06
6.13164e-06
6.12726e-06
6.12412e-06
6.12122e-06
6.11874e-06
6.11658e-06
6.11471e-06
6.1131e-06
6.11172e-06
6.11054e-06
6.10954e-06
6.1087e-06
6.10799e-06
6.1074e-06
6.1069e-06
6.10646e-06
6.10604e-06
6.10562e-06
6.10519e-06
6.10472e-06
6.10422e-06
6.10366e-06
6.10303e-06
6.10234e-06
6.10158e-06
6.10073e-06
6.09981e-06
6.09883e-06
6.09778e-06
6.0967e-06
6.0956e-06
6.0945e-06
6.09343e-06
6.09239e-06
6.09138e-06
6.09037e-06
6.08931e-06
6.0881e-06
6.08665e-06
6.08487e-06
6.08271e-06
6.08025e-06
6.07766e-06
6.07521e-06
6.07324e-06
6.07207e-06
6.07211e-06
6.07352e-06
6.07595e-06
6.07932e-06
6.08343e-06
6.088e-06
6.09268e-06
6.09727e-06
6.10104e-06
6.10343e-06
6.10502e-06
6.10634e-06
6.10831e-06
6.11268e-06
6.12057e-06
0.00080842
0
1.48722e-10
4.91083e-08
5.85458e-06
8.01685e-06
7.00218e-06
6.25536e-06
6.08346e-06
6.12696e-06
6.14525e-06
6.13624e-06
6.1343e-06
6.13082e-06
6.12683e-06
6.12384e-06
6.12108e-06
6.1187e-06
6.11662e-06
6.11483e-06
6.11328e-06
6.11195e-06
6.11082e-06
6.10986e-06
6.10906e-06
6.10838e-06
6.10782e-06
6.10733e-06
6.10689e-06
6.10647e-06
6.10604e-06
6.10559e-06
6.10511e-06
6.10458e-06
6.104e-06
6.10336e-06
6.10264e-06
6.10185e-06
6.10098e-06
6.10003e-06
6.09902e-06
6.09796e-06
6.09687e-06
6.09576e-06
6.09466e-06
6.09359e-06
6.09255e-06
6.09154e-06
6.09053e-06
6.08944e-06
6.0882e-06
6.08669e-06
6.08483e-06
6.0826e-06
6.08007e-06
6.07744e-06
6.07501e-06
6.07308e-06
6.07202e-06
6.07223e-06
6.07379e-06
6.07635e-06
6.07984e-06
6.08407e-06
6.08871e-06
6.09342e-06
6.09804e-06
6.10178e-06
6.10409e-06
6.10562e-06
6.10693e-06
0
1.09894e-13
3.69286e-11
4.66065e-06
8.77503e-06
7.01259e-06
6.27467e-06
6.07408e-06
6.11255e-06
6.14686e-06
6.14239e-06
6.13611e-06
6.13366e-06
6.12957e-06
6.12615e-06
6.12332e-06
6.12073e-06
6.1185e-06
6.11654e-06
6.11484e-06
6.11338e-06
6.11213e-06
6.11106e-06
6.11016e-06
6.10941e-06
6.10877e-06
6.10824e-06
6.10776e-06
6.10733e-06
6.1069e-06
6.10646e-06
6.10599e-06
6.1055e-06
6.10495e-06
6.10435e-06
6.10367e-06
6.10293e-06
6.10211e-06
6.10121e-06
6.10025e-06
6.09922e-06
6.09814e-06
6.09703e-06
6.09592e-06
6.09482e-06
6.09375e-06
6.09272e-06
6.09171e-06
6.09069e-06
6.08958e-06
6.08828e-06
6.08671e-06
6.08476e-06
6.08245e-06
6.07986e-06
6.07721e-06
6.07479e-06
6.07293e-06
6.07199e-06
6.07237e-06
6.07408e-06
6.07679e-06
6.08042e-06
6.08475e-06
6.08946e-06
6.09421e-06
0
1.41931e-08
3.6614e-06
9.29656e-06
7.12276e-06
6.19263e-06
6.07279e-06
6.10146e-06
6.1457e-06
6.14739e-06
6.13899e-06
6.13532e-06
6.132e-06
6.12823e-06
6.12527e-06
6.12262e-06
6.12024e-06
6.11817e-06
6.11636e-06
6.11479e-06
6.11343e-06
6.11227e-06
6.11129e-06
6.11046e-06
6.10976e-06
6.10916e-06
6.10865e-06
6.1082e-06
6.10776e-06
6.10732e-06
6.10687e-06
6.1064e-06
6.10588e-06
6.10531e-06
6.10468e-06
6.10398e-06
6.10321e-06
6.10236e-06
6.10144e-06
6.10045e-06
6.0994e-06
6.09831e-06
6.09719e-06
6.09607e-06
6.09498e-06
6.09392e-06
6.09289e-06
6.09188e-06
6.09085e-06
6.08971e-06
6.08836e-06
6.0867e-06
6.08468e-06
6.08228e-06
6.07963e-06
6.07696e-06
6.07456e-06
6.07278e-06
6.07197e-06
6.07254e-06
6.07441e-06
1.13024e-08
2.92234e-06
8.6936e-06
7.27362e-06
6.08204e-06
6.05207e-06
6.10478e-06
6.14316e-06
6.15075e-06
6.14185e-06
6.13663e-06
6.13357e-06
6.13004e-06
6.12687e-06
6.12423e-06
6.1218e-06
6.11966e-06
6.11778e-06
6.11613e-06
6.1147e-06
6.11346e-06
6.11241e-06
6.11151e-06
6.11075e-06
6.11011e-06
6.10956e-06
6.10908e-06
6.10863e-06
6.10819e-06
6.10775e-06
6.10729e-06
6.10679e-06
6.10626e-06
6.10566e-06
6.10501e-06
6.10428e-06
6.10348e-06
6.10261e-06
6.10166e-06
6.10064e-06
6.09957e-06
6.09847e-06
6.09735e-06
6.09623e-06
6.09514e-06
6.09408e-06
6.09307e-06
6.09206e-06
6.09101e-06
6.08983e-06
6.08842e-06
6.08668e-06
6.08456e-06
6.08208e-06
3.43238e-06
7.95461e-06
7.21835e-06
6.04954e-06
6.01007e-06
6.11848e-06
6.14452e-06
6.15154e-06
6.14402e-06
6.13762e-06
6.13443e-06
6.13129e-06
6.12814e-06
6.12548e-06
6.1231e-06
6.12094e-06
6.11903e-06
6.11735e-06
6.11588e-06
6.1146e-06
6.1135e-06
6.11255e-06
6.11175e-06
6.11107e-06
6.11048e-06
6.10997e-06
6.10951e-06
6.10907e-06
6.10863e-06
6.10817e-06
6.1077e-06
6.10719e-06
6.10663e-06
6.10601e-06
6.10533e-06
6.10457e-06
6.10374e-06
6.10284e-06
6.10186e-06
6.10083e-06
6.09974e-06
6.09862e-06
)
;

boundaryField
{
    inlet
    {
        type            freestream;
        freestreamValue uniform 1e-05;
        value           uniform 1e-05;
    }
    outlet
    {
        type            freestream;
        freestreamValue nonuniform List<scalar> 0();
        value           nonuniform List<scalar> 0();
    }
    walls
    {
        type            nutUSpaldingWallFunction;
        value           nonuniform List<scalar> 4(0.00272753 0.00266325 0.00257245 0.00231613);
    }
    frontAndBack
    {
        type            empty;
    }
    procBoundary2to1
    {
        type            processor;
        value           nonuniform List<scalar> 
84
(
0.107973
0.0680049
0.031157
0.00304054
6.42826e-05
2.11287e-06
3.30336e-06
6.19393e-06
6.14069e-06
6.08893e-06
6.09361e-06
6.10162e-06
6.10477e-06
6.10412e-06
6.10328e-06
6.1028e-06
6.10254e-06
6.10238e-06
6.10229e-06
6.10224e-06
6.10218e-06
6.10218e-06
6.10212e-06
6.10201e-06
6.10187e-06
6.10172e-06
6.10154e-06
6.10133e-06
6.1011e-06
6.10084e-06
6.10055e-06
6.10023e-06
6.09987e-06
6.09948e-06
6.09904e-06
6.09855e-06
6.09801e-06
6.0974e-06
6.0974e-06
6.09639e-06
6.09567e-06
6.09488e-06
6.09403e-06
6.09314e-06
6.0922e-06
6.09125e-06
6.09028e-06
6.08933e-06
6.08839e-06
6.08746e-06
6.08652e-06
6.08553e-06
6.08441e-06
6.08441e-06
6.08292e-06
6.08136e-06
6.07953e-06
6.0775e-06
6.07544e-06
6.07358e-06
6.07221e-06
6.07163e-06
6.07216e-06
6.07216e-06
6.07354e-06
6.07575e-06
6.07867e-06
6.08216e-06
6.08597e-06
6.08987e-06
6.09308e-06
6.09531e-06
6.09707e-06
6.09843e-06
6.09843e-06
6.09909e-06
6.10096e-06
6.1046e-06
6.11024e-06
6.11507e-06
6.11342e-06
6.106e-06
6.1107e-06
6.10877e-06
)
;
    }
    procBoundary2to3
    {
        type            processor;
        value           nonuniform List<scalar> 
88
(
6.14789e-06
6.12038e-06
6.12291e-06
6.14789e-06
6.124e-06
6.12946e-06
6.12291e-06
6.13102e-06
6.10904e-06
6.11372e-06
6.12946e-06
6.12194e-06
6.09885e-06
6.10256e-06
6.10478e-06
6.10624e-06
6.10904e-06
6.10756e-06
6.07727e-06
6.08104e-06
6.08548e-06
6.09025e-06
6.09885e-06
6.09505e-06
6.07937e-06
6.07669e-06
6.07433e-06
6.07263e-06
6.07198e-06
6.07275e-06
6.07727e-06
6.07479e-06
6.0975e-06
6.09638e-06
6.0953e-06
6.09426e-06
6.09325e-06
6.09223e-06
6.09116e-06
6.08994e-06
6.08846e-06
6.08663e-06
6.08441e-06
6.07937e-06
6.08184e-06
7.73263e-06
6.90517e-06
6.04913e-06
5.99474e-06
6.12692e-06
6.15237e-06
6.15013e-06
6.14464e-06
6.13815e-06
6.13473e-06
6.13191e-06
6.12899e-06
6.12637e-06
6.12407e-06
6.12197e-06
6.12008e-06
6.11841e-06
6.11694e-06
6.11565e-06
6.11452e-06
6.11356e-06
6.11273e-06
6.11202e-06
6.11141e-06
6.11087e-06
6.1104e-06
6.10995e-06
6.10951e-06
6.10906e-06
6.1086e-06
6.10811e-06
6.10758e-06
6.10699e-06
6.10635e-06
6.10564e-06
6.10485e-06
6.10399e-06
6.10305e-06
6.10205e-06
6.101e-06
6.0999e-06
6.0975e-06
6.09877e-06
)
;
    }
    procBoundary2to6
    {
        type            processor;
        value           nonuniform List<scalar> 
13
(
0.17298
0.214024
0.217852
0.202702
0.172752
0.130249
0.078918
0.030017
0.00323005
0.000424478
0
0
1.48677e-08
)
;
    }
}


// ************************************************************************* //
