/*--------------------------------*- C++ -*----------------------------------*\
| =========                 |                                                 |
| \\      /  F ield         | OpenFOAM: The Open Source CFD Toolbox           |
|  \\    /   O peration     | Version:  2306                                  |
|   \\  /    A nd           | Website:  www.openfoam.com                      |
|    \\/     M anipulation  |                                                 |
\*---------------------------------------------------------------------------*/
FoamFile
{
    version     2.0;
    format      ascii;
    arch        "LSB;label=32;scalar=64";
    class       volScalarField;
    location    "375";
    object      turbulenceProperties:k;
}
// * * * * * * * * * * * * * * * * * * * * * * * * * * * * * * * * * * * * * //

dimensions      [0 2 -2 0 0 0 0];

internalField   nonuniform List<scalar> 
1340
(
48.1501
46.0269
43.5544
35.6747
1.44802
1.59463
1.92188
2.6727
0.312037
0.429962
0.514674
0.878556
0.0115103
0.0379025
0.0959179
0.349087
0.000490789
0.00133999
0.00315333
0.0677423
6.42797e-05
0.000229959
0.000722151
0.00777146
7.12254e-06
1.25942e-06
0
0.00167504
1.85581e-05
1.36003e-05
1.62652e-06
0
2.45063e-05
2.63358e-05
2.8744e-05
1.20861e-06
2.06296e-05
2.03325e-05
3.44218e-05
1.65067e-05
2.08829e-05
2.07915e-05
2.95545e-05
3.72298e-05
1.93711e-05
1.95867e-05
2.51942e-05
4.03948e-05
1.86331e-05
1.8898e-05
2.31814e-05
3.69928e-05
1.75958e-05
1.77526e-05
2.14591e-05
3.32532e-05
1.66628e-05
1.67218e-05
1.98523e-05
2.99859e-05
1.56622e-05
1.56311e-05
1.82549e-05
2.70304e-05
1.46656e-05
1.45523e-05
1.67269e-05
2.4293e-05
1.36523e-05
1.34627e-05
1.52637e-05
2.1755e-05
1.26362e-05
1.23767e-05
1.38646e-05
1.94091e-05
1.162e-05
1.12967e-05
1.25328e-05
1.72598e-05
1.06103e-05
1.02293e-05
1.12641e-05
1.52931e-05
9.61234e-06
9.18146e-06
1.00606e-05
1.35029e-05
8.63255e-06
8.15788e-06
8.92254e-06
1.18827e-05
7.67761e-06
7.16555e-06
7.8486e-06
1.04193e-05
6.75348e-06
6.209e-06
6.84213e-06
9.10688e-06
5.86698e-06
5.29351e-06
5.90377e-06
7.93428e-06
5.02497e-06
4.42381e-06
5.03625e-06
6.89434e-06
4.23481e-06
3.60345e-06
4.2422e-06
5.97857e-06
3.50479e-06
2.83593e-06
3.52648e-06
5.18047e-06
2.84576e-06
2.12412e-06
2.89569e-06
4.49466e-06
2.27269e-06
1.4691e-06
2.36021e-06
3.91595e-06
1.80879e-06
8.73011e-07
1.93471e-06
3.44005e-06
1.48734e-06
3.38332e-07
1.63779e-06
3.06185e-06
1.33895e-06
1.61407e-07
1.48199e-06
2.77449e-06
1.3558e-06
5.7468e-07
1.45581e-06
2.56799e-06
1.48144e-06
9.40703e-07
1.52128e-06
2.42946e-06
1.65309e-06
1.25405e-06
1.63395e-06
2.34367e-06
1.82957e-06
1.51691e-06
1.76032e-06
2.29509e-06
2.51626e-06
1.98943e-06
1.73207e-06
1.88033e-06
2.26975e-06
2.55418e-06
2.12274e-06
1.9028e-06
1.98339e-06
2.25625e-06
2.58261e-06
2.22574e-06
2.03275e-06
2.06473e-06
2.24621e-06
2.59608e-06
2.29799e-06
2.12557e-06
2.12269e-06
2.23375e-06
2.59197e-06
2.34084e-06
2.18515e-06
2.15767e-06
2.21529e-06
2.56975e-06
2.35665e-06
2.21525e-06
2.17097e-06
2.18881e-06
2.53022e-06
2.34837e-06
2.21966e-06
2.16448e-06
2.15334e-06
2.47497e-06
2.31915e-06
2.20212e-06
2.14063e-06
2.10899e-06
2.4061e-06
2.27219e-06
2.16599e-06
2.10166e-06
2.05623e-06
2.32592e-06
2.21064e-06
2.11459e-06
2.04996e-06
1.99585e-06
2.23665e-06
2.13733e-06
2.05086e-06
1.98783e-06
1.92902e-06
2.14042e-06
2.05483e-06
1.9773e-06
1.91721e-06
1.85668e-06
2.03903e-06
1.96534e-06
1.89618e-06
1.8399e-06
1.77986e-06
1.93395e-06
1.87057e-06
1.80922e-06
1.75733e-06
1.6994e-06
1.88164e-06
1.82637e-06
1.77198e-06
1.71787e-06
1.67067e-06
1.61598e-06
1.76383e-06
1.71726e-06
1.67073e-06
1.6233e-06
1.58093e-06
1.53023e-06
1.64683e-06
1.60767e-06
1.56801e-06
1.52671e-06
1.48914e-06
1.44282e-06
1.53169e-06
1.49884e-06
1.46518e-06
1.42945e-06
1.39652e-06
1.35471e-06
1.41976e-06
1.39229e-06
1.36384e-06
1.3331e-06
1.30457e-06
1.26717e-06
1.31252e-06
1.28961e-06
1.26564e-06
1.23933e-06
1.21481e-06
1.18158e-06
1.21109e-06
1.19199e-06
1.17186e-06
1.14941e-06
1.12849e-06
1.09917e-06
1.11565e-06
1.09975e-06
1.08286e-06
1.06379e-06
1.04605e-06
1.02038e-06
1.02544e-06
1.01219e-06
9.9807e-07
9.81953e-07
9.67045e-07
9.4482e-07
9.49347e-07
9.39041e-07
9.28016e-07
9.16256e-07
9.02757e-07
8.90405e-07
8.71428e-07
8.64015e-07
8.5543e-07
8.4629e-07
8.36588e-07
8.25426e-07
8.15411e-07
7.99456e-07
7.81574e-07
7.74419e-07
7.66884e-07
7.58963e-07
7.49861e-07
7.41979e-07
7.28751e-07
7.02953e-07
6.97003e-07
6.90835e-07
6.84442e-07
6.77124e-07
6.71158e-07
6.603e-07
6.2926e-07
6.24309e-07
6.19273e-07
6.14167e-07
6.08344e-07
6.03985e-07
5.95056e-07
5.62525e-07
5.58361e-07
5.54236e-07
5.50216e-07
5.45711e-07
5.42759e-07
5.35692e-07
5.07105e-07
5.03376e-07
4.99786e-07
4.96424e-07
4.92747e-07
4.90731e-07
4.85238e-07
4.62515e-07
4.5897e-07
4.55626e-07
4.5255e-07
4.49242e-07
4.47655e-07
4.43015e-07
4.22407e-07
4.18936e-07
4.15688e-07
4.12744e-07
4.09654e-07
4.08286e-07
4.04289e-07
3.83724e-07
3.80351e-07
3.77194e-07
3.74391e-07
3.71505e-07
3.70293e-07
3.66827e-07
3.49082e-07
3.45155e-07
3.41596e-07
3.38379e-07
3.35652e-07
3.33077e-07
3.32414e-07
3.30864e-07
3.10361e-07
3.0566e-07
3.0125e-07
2.97182e-07
2.93585e-07
2.90202e-07
2.87959e-07
2.84315e-07
2.61576e-07
2.56599e-07
2.52302e-07
2.48734e-07
2.46128e-07
2.44536e-07
2.46667e-07
2.51642e-07
1.93795e-07
1.84153e-07
1.75348e-07
1.67588e-07
1.60937e-07
1.55358e-07
1.50855e-07
1.44145e-07
1.55056e-07
1.52249e-07
1.51455e-07
1.52864e-07
1.57449e-07
1.65693e-07
1.85334e-07
2.14246e-07
1.73005e-07
1.72108e-07
1.70995e-07
1.69427e-07
1.68201e-07
1.73176e-07
2.03886e-07
2.37037e-07
4.66191e-07
4.83558e-07
4.98673e-07
5.12631e-07
5.28764e-07
5.52592e-07
6.11321e-07
6.60163e-07
8.75634e-07
8.78364e-07
8.80324e-07
8.81652e-07
8.8257e-07
8.85551e-07
9.03438e-07
8.60925e-07
1.67281e-06
1.67338e-06
1.67247e-06
1.67072e-06
1.66697e-06
1.66505e-06
1.65149e-06
1.53217e-06
10.4551
2.82209
0.748099
0.231622
0.0405044
0.00239471
0.000475658
0
1.4449e-06
2.45739e-05
4.25353e-05
4.25723e-05
3.86129e-05
3.48853e-05
3.16386e-05
2.8677e-05
2.59147e-05
2.33467e-05
2.09754e-05
1.87907e-05
1.67892e-05
1.49632e-05
1.33051e-05
1.18069e-05
1.04587e-05
9.25274e-06
8.17991e-06
7.23131e-06
6.39854e-06
5.6734e-06
5.04797e-06
4.5144e-06
4.06454e-06
3.69051e-06
3.38383e-06
3.13554e-06
2.93656e-06
2.77773e-06
2.65024e-06
2.54617e-06
2.45858e-06
2.38172e-06
2.31119e-06
2.24359e-06
2.17652e-06
2.10851e-06
2.03865e-06
1.96647e-06
1.89202e-06
1.8153e-06
1.73663e-06
1.65617e-06
1.57413e-06
1.49074e-06
1.40636e-06
1.3217e-06
1.23776e-06
1.15578e-06
1.0768e-06
1.00117e-06
9.28496e-07
8.57761e-07
7.88277e-07
7.19923e-07
6.53673e-07
5.90312e-07
5.32714e-07
4.83564e-07
4.42306e-07
4.04282e-07
3.67204e-07
3.3234e-07
2.84636e-07
2.57312e-07
1.41455e-07
2.33643e-07
2.15673e-07
6.48314e-07
7.60612e-07
1.36049e-06
6.28886
2.03418
0.385533
0.0604096
0.00615678
0.000358351
5.9849e-05
1.39735e-07
2.65803e-06
2.03344e-05
2.48791e-05
2.41602e-05
2.26915e-05
2.13899e-05
2.01971e-05
1.90232e-05
1.78509e-05
1.66811e-05
1.55315e-05
1.44054e-05
1.33124e-05
1.2258e-05
1.12481e-05
1.0292e-05
9.39186e-06
8.55093e-06
7.77266e-06
7.05845e-06
6.40772e-06
5.82009e-06
5.29381e-06
4.82645e-06
4.4148e-06
4.0551e-06
3.74342e-06
3.47471e-06
3.24436e-06
3.04718e-06
2.87799e-06
2.73198e-06
2.60456e-06
2.49147e-06
2.38933e-06
2.29497e-06
2.20603e-06
2.12067e-06
2.03749e-06
1.95555e-06
1.87423e-06
1.79305e-06
1.71179e-06
1.63025e-06
1.54822e-06
1.46568e-06
1.38278e-06
1.30002e-06
1.21827e-06
1.13862e-06
1.06191e-06
9.88402e-07
9.17622e-07
8.48589e-07
7.80665e-07
7.13813e-07
6.49026e-07
5.86984e-07
5.30452e-07
4.81908e-07
4.41222e-07
4.03805e-07
3.67063e-07
3.32573e-07
2.84798e-07
2.58796e-07
1.40138e-07
2.45078e-07
1.88818e-07
6.50722e-07
7.53695e-07
1.39167e-06
3.96701
1.28354
0.173271
0.0111887
0.000444508
7.39809e-05
6.16221e-06
4.03136e-07
6.85011e-06
1.51931e-05
1.49576e-05
1.41821e-05
1.34004e-05
1.2757e-05
1.21676e-05
1.15958e-05
1.10421e-05
1.05027e-05
9.97526e-06
9.46714e-06
8.97242e-06
8.49211e-06
8.02322e-06
7.56979e-06
7.13037e-06
6.70366e-06
6.292e-06
5.89705e-06
5.51892e-06
5.15975e-06
4.82074e-06
4.50308e-06
4.20779e-06
3.93533e-06
3.68589e-06
3.45879e-06
3.25336e-06
3.06811e-06
2.90136e-06
2.75109e-06
2.6153e-06
2.4917e-06
2.37836e-06
2.27326e-06
2.17473e-06
2.08136e-06
1.99189e-06
1.90546e-06
1.82126e-06
1.73871e-06
1.65737e-06
1.57678e-06
1.49659e-06
1.41655e-06
1.33668e-06
1.25736e-06
1.17927e-06
1.10337e-06
1.03033e-06
9.60279e-07
8.92682e-07
8.26588e-07
7.61411e-07
6.97175e-07
6.34898e-07
5.7518e-07
5.20597e-07
4.73533e-07
4.34238e-07
3.98281e-07
3.62644e-07
3.29164e-07
2.82389e-07
2.57241e-07
1.41952e-07
2.49852e-07
1.76278e-07
6.45403e-07
7.38579e-07
1.39512e-06
2.38966
0.643155
0.0465132
0.00045101
0.000101878
1.86802e-08
8.5871e-08
1.52648e-06
8.62658e-06
1.05919e-05
9.84589e-06
9.47851e-06
9.1148e-06
8.80737e-06
8.49775e-06
8.18315e-06
7.87278e-06
7.56503e-06
7.26138e-06
6.9677e-06
6.67976e-06
6.40167e-06
6.13139e-06
5.8687e-06
5.61446e-06
5.36742e-06
5.12681e-06
4.89299e-06
4.66543e-06
4.44433e-06
4.2298e-06
4.02209e-06
3.82207e-06
3.63001e-06
3.44656e-06
3.27238e-06
3.10768e-06
2.95268e-06
2.80737e-06
2.67132e-06
2.54419e-06
2.42531e-06
2.31376e-06
2.2088e-06
2.10957e-06
2.01526e-06
1.92504e-06
1.83835e-06
1.75454e-06
1.67306e-06
1.59348e-06
1.51524e-06
1.43794e-06
1.36127e-06
1.28511e-06
1.20977e-06
1.13583e-06
1.06407e-06
9.95044e-07
9.2879e-07
8.64705e-07
8.01876e-07
7.39781e-07
6.78474e-07
6.18994e-07
5.61879e-07
5.09559e-07
4.64375e-07
4.26765e-07
3.9242e-07
3.58075e-07
3.25821e-07
2.80355e-07
2.56151e-07
1.46174e-07
2.53305e-07
1.70647e-07
6.38923e-07
7.19763e-07
1.3849e-06
1.18177
0.204348
0.00297149
0.00031003
0
1.11027e-08
2.03182e-07
4.6101e-06
7.92951e-06
7.7099e-06
7.29171e-06
7.16993e-06
7.03352e-06
6.91432e-06
6.779e-06
6.63409e-06
6.47993e-06
6.31433e-06
6.14131e-06
5.96089e-06
5.77302e-06
5.58051e-06
5.386e-06
5.18834e-06
4.99061e-06
4.79539e-06
4.60164e-06
4.4117e-06
4.22631e-06
4.0458e-06
3.8707e-06
3.70103e-06
3.53751e-06
3.37968e-06
3.22775e-06
3.08216e-06
2.94242e-06
2.80886e-06
2.68133e-06
2.55965e-06
2.44392e-06
2.33374e-06
2.22871e-06
2.12873e-06
2.03328e-06
1.94198e-06
1.85438e-06
1.77014e-06
1.68881e-06
1.60998e-06
1.53326e-06
1.45811e-06
1.38416e-06
1.31107e-06
1.23867e-06
1.16723e-06
1.09726e-06
1.02942e-06
9.64137e-07
9.0138e-07
8.40523e-07
7.807e-07
7.21457e-07
6.62875e-07
6.06013e-07
5.51331e-07
5.01117e-07
4.57678e-07
4.216e-07
3.8864e-07
3.55417e-07
3.2424e-07
2.79976e-07
2.56814e-07
1.51954e-07
2.58806e-07
1.66566e-07
6.39208e-07
7.09903e-07
1.38361e-06
0.396871
0.0274277
0.00104375
0
4.91718e-10
9.20594e-09
2.6222e-06
6.03041e-06
6.51739e-06
6.04409e-06
5.89359e-06
5.84168e-06
5.76931e-06
5.69726e-06
5.6123e-06
5.52195e-06
5.42235e-06
5.31473e-06
5.2022e-06
5.08304e-06
4.95849e-06
4.82881e-06
4.6959e-06
4.55849e-06
4.4183e-06
4.27666e-06
4.13243e-06
3.98793e-06
3.84345e-06
3.69959e-06
3.55733e-06
3.41704e-06
3.27988e-06
3.14585e-06
3.01548e-06
2.8894e-06
2.76733e-06
2.64978e-06
2.53653e-06
2.42757e-06
2.32306e-06
2.22258e-06
2.12601e-06
2.03337e-06
1.94423e-06
1.8585e-06
1.77589e-06
1.69618e-06
1.61912e-06
1.54436e-06
1.47162e-06
1.40042e-06
1.33045e-06
1.26137e-06
1.19304e-06
1.12569e-06
1.05978e-06
9.95869e-07
9.34316e-07
8.75009e-07
8.17332e-07
7.60477e-07
7.04052e-07
6.48192e-07
5.93947e-07
5.41689e-07
4.93543e-07
4.5181e-07
4.17243e-07
3.85617e-07
3.53501e-07
3.23372e-07
2.80327e-07
2.58344e-07
1.58531e-07
2.65485e-07
1.61745e-07
6.42061e-07
0.0572175
0.000113932
4.91239e-05
0
8.82e-08
1.52396e-06
4.39459e-06
5.07911e-06
4.78617e-06
4.58975e-06
4.5866e-06
4.57695e-06
4.55454e-06
4.52732e-06
4.49028e-06
4.44829e-06
4.39761e-06
4.33932e-06
4.27566e-06
4.20542e-06
4.12984e-06
4.04888e-06
3.96281e-06
3.8729e-06
3.77992e-06
3.68337e-06
3.58396e-06
3.48318e-06
3.38047e-06
3.27666e-06
3.17226e-06
3.0674e-06
2.96289e-06
2.85895e-06
2.75593e-06
2.65436e-06
2.55437e-06
2.45654e-06
2.36077e-06
2.26741e-06
2.17669e-06
2.08838e-06
2.00275e-06
1.91973e-06
1.83914e-06
1.76112e-06
1.68544e-06
1.61205e-06
1.5408e-06
1.47145e-06
1.40383e-06
1.33753e-06
1.27231e-06
1.20785e-06
1.1441e-06
1.08125e-06
1.01972e-06
9.60027e-07
9.02414e-07
8.46749e-07
7.9243e-07
7.38725e-07
6.85297e-07
6.3234e-07
5.8089e-07
5.31208e-07
4.85263e-07
4.4538e-07
4.12463e-07
3.8227e-07
3.51386e-07
3.22416e-07
2.8075e-07
2.60143e-07
1.65649e-07
2.72255e-07
0.000590662
0.000233485
0
4.12957e-08
7.57068e-07
3.2948e-06
3.97042e-06
3.77654e-06
3.60632e-06
3.59302e-06
3.6214e-06
3.6278e-06
3.62846e-06
3.62342e-06
3.61143e-06
3.5943e-06
3.57055e-06
3.54093e-06
3.50634e-06
3.46631e-06
3.42157e-06
3.37237e-06
3.31845e-06
3.261e-06
3.20055e-06
3.13638e-06
3.0695e-06
3.00059e-06
2.92928e-06
2.85628e-06
2.78187e-06
2.70603e-06
2.62941e-06
2.5521e-06
2.47428e-06
2.39634e-06
2.3184e-06
2.24084e-06
2.16372e-06
2.08733e-06
2.01191e-06
1.93748e-06
1.86434e-06
1.7925e-06
1.72202e-06
1.65313e-06
1.58569e-06
1.51983e-06
1.45548e-06
1.39252e-06
1.33085e-06
1.27018e-06
1.21031e-06
1.15102e-06
1.09227e-06
1.03427e-06
9.77407e-07
9.22139e-07
8.68657e-07
8.16803e-07
7.66003e-07
7.15608e-07
6.65354e-07
6.1546e-07
5.66967e-07
5.20003e-07
4.76399e-07
4.38526e-07
4.0738e-07
3.78705e-07
3.49169e-07
3.21453e-07
2.81349e-07
2.62276e-07
0.000263444
0
1.27025e-08
2.24472e-07
2.7043e-06
3.22032e-06
3.05e-06
2.90864e-06
2.89884e-06
2.93795e-06
2.96515e-06
2.98098e-06
2.99294e-06
2.99906e-06
2.99974e-06
2.99504e-06
2.98481e-06
2.96986e-06
2.95015e-06
2.92573e-06
2.89696e-06
2.86443e-06
2.82842e-06
2.78867e-06
2.74625e-06
2.70116e-06
2.65345e-06
2.60361e-06
2.55177e-06
2.4983e-06
2.44313e-06
2.3865e-06
2.32897e-06
2.27016e-06
2.21048e-06
2.15024e-06
2.08932e-06
2.02805e-06
1.96652e-06
1.90483e-06
1.84319e-06
1.78174e-06
1.72054e-06
1.65979e-06
1.59958e-06
1.5401e-06
1.48133e-06
1.42346e-06
1.36649e-06
1.31039e-06
1.25513e-06
1.20049e-06
1.14634e-06
1.09252e-06
1.03903e-06
9.86087e-07
9.34057e-07
8.8333e-07
8.34073e-07
7.86114e-07
7.38919e-07
6.91927e-07
6.44949e-07
5.98225e-07
5.52783e-07
5.08625e-07
4.67454e-07
4.31698e-07
4.02378e-07
3.75254e-07
3.47138e-07
0
2.33283e-10
4.99145e-09
1.87841e-06
2.73078e-06
2.45037e-06
2.35839e-06
2.35355e-06
2.39644e-06
2.43438e-06
2.4601e-06
2.4815e-06
2.49897e-06
2.51127e-06
2.51906e-06
2.52265e-06
2.52139e-06
2.51575e-06
2.50607e-06
2.49233e-06
2.47483e-06
2.45383e-06
2.42976e-06
2.40249e-06
2.3727e-06
2.34057e-06
2.30598e-06
2.26948e-06
2.23119e-06
2.19135e-06
2.14978e-06
2.10691e-06
2.06306e-06
2.01776e-06
1.97157e-06
1.92455e-06
1.87662e-06
1.82807e-06
1.77887e-06
1.72916e-06
1.67907e-06
1.62864e-06
1.57802e-06
1.52729e-06
1.47655e-06
1.42599e-06
1.3756e-06
1.32559e-06
1.27599e-06
1.22682e-06
1.17807e-06
1.12959e-06
1.08132e-06
1.0331e-06
9.85003e-07
9.37218e-07
8.90091e-07
8.43967e-07
7.98974e-07
7.54952e-07
7.11421e-07
6.67903e-07
6.24274e-07
5.80805e-07
5.38489e-07
4.97199e-07
0
6.66421e-08
1.37363e-06
2.25226e-06
2.01156e-06
1.89943e-06
1.92161e-06
1.96077e-06
2.00206e-06
2.0322e-06
2.05755e-06
2.08004e-06
2.09856e-06
2.11326e-06
2.12394e-06
2.13117e-06
2.13455e-06
2.13403e-06
2.1303e-06
2.12324e-06
2.11315e-06
2.1001e-06
2.08442e-06
2.06624e-06
2.04592e-06
2.02352e-06
1.99905e-06
1.97298e-06
1.9453e-06
1.91616e-06
1.88554e-06
1.85366e-06
1.82071e-06
1.78647e-06
1.75127e-06
1.71509e-06
1.67793e-06
1.64e-06
1.60119e-06
1.56165e-06
1.52148e-06
1.48066e-06
1.43934e-06
1.39754e-06
1.35538e-06
1.31302e-06
1.27045e-06
1.22788e-06
1.18535e-06
1.14289e-06
1.10053e-06
1.05816e-06
1.01573e-06
9.73122e-07
9.30425e-07
8.87808e-07
8.45589e-07
8.04069e-07
7.63352e-07
7.23289e-07
6.83461e-07
5.41775e-08
8.91684e-07
1.83427e-06
1.65092e-06
1.55011e-06
1.57756e-06
1.62121e-06
1.65856e-06
1.69019e-06
1.71631e-06
1.7402e-06
1.76128e-06
1.779e-06
1.79373e-06
1.80489e-06
1.8132e-06
1.8184e-06
1.82031e-06
1.81966e-06
1.81624e-06
1.81035e-06
1.80202e-06
1.79166e-06
1.77925e-06
1.76509e-06
1.74931e-06
1.73188e-06
1.71317e-06
1.69315e-06
1.67191e-06
1.64947e-06
1.626e-06
1.60152e-06
1.57594e-06
1.54949e-06
1.52208e-06
1.49373e-06
1.46457e-06
1.43446e-06
1.40354e-06
1.37187e-06
1.33938e-06
1.30617e-06
1.27231e-06
1.23783e-06
1.20287e-06
1.16747e-06
1.13178e-06
1.09586e-06
1.05975e-06
1.0235e-06
9.8701e-07
9.50246e-07
9.13135e-07
8.94057e-07
1.32747e-06
1.40062e-06
1.27225e-06
1.31195e-06
1.35275e-06
1.38715e-06
1.41606e-06
1.44173e-06
1.46472e-06
1.4862e-06
1.50482e-06
1.52066e-06
1.53414e-06
1.54476e-06
1.55297e-06
1.55857e-06
1.56163e-06
1.56252e-06
1.56119e-06
1.55785e-06
1.55265e-06
1.54563e-06
1.53709e-06
1.52719e-06
1.51584e-06
1.50332e-06
1.48973e-06
1.4751e-06
1.4595e-06
1.44294e-06
1.42561e-06
1.40737e-06
1.38827e-06
1.36847e-06
1.34777e-06
1.32631e-06
1.30405e-06
1.28093e-06
1.25705e-06
1.23234e-06
1.20681e-06
)
;

boundaryField
{
    inlet
    {
        type            calculated;
        value           nonuniform List<scalar> 
13
(
5.62782e-06
5.70312e-06
5.76932e-06
5.82897e-06
5.88676e-06
5.9465e-06
6.02401e-06
6.04662e-06
5.98987e-06
5.95611e-06
5.91193e-06
5.87379e-06
5.84264e-06
)
;
    }
    outlet
    {
        type            calculated;
        value           nonuniform List<scalar> 0();
    }
    walls
    {
        type            calculated;
        value           uniform 0;
    }
    frontAndBack
    {
        type            empty;
    }
    procBoundary2to1
    {
        type            processor;
        value           nonuniform List<scalar> 
84
(
49.6015
1.30942
0.203558
0.00214547
0.000150495
1.44358e-05
2.36914e-05
2.22141e-05
2.42619e-05
2.11631e-05
2.11484e-05
1.99631e-05
1.92659e-05
1.83355e-05
1.74629e-05
1.6539e-05
1.56084e-05
1.46589e-05
1.36997e-05
1.27353e-05
1.17709e-05
1.08124e-05
9.86678e-06
8.94165e-06
8.04435e-06
7.18291e-06
6.36591e-06
5.60244e-06
4.90171e-06
4.27412e-06
3.73007e-06
3.27939e-06
2.92996e-06
2.68394e-06
2.53481e-06
2.46603e-06
2.45502e-06
2.47837e-06
2.47837e-06
3.15551e-06
3.08849e-06
3.02818e-06
2.96759e-06
2.90211e-06
2.82912e-06
2.74756e-06
2.65743e-06
2.55956e-06
2.45516e-06
2.34562e-06
2.23237e-06
2.11664e-06
1.99947e-06
1.99947e-06
1.93679e-06
1.80979e-06
1.68509e-06
1.56347e-06
1.44611e-06
1.33433e-06
1.22911e-06
1.13057e-06
1.03782e-06
1.03782e-06
9.5912e-07
8.72216e-07
7.88492e-07
7.08809e-07
6.34249e-07
5.66814e-07
5.11007e-07
4.66286e-07
4.26126e-07
3.87364e-07
3.87364e-07
3.53309e-07
3.15278e-07
2.67191e-07
2.04029e-07
1.59751e-07
1.74234e-07
4.46432e-07
8.7164e-07
1.67007e-06
)
;
    }
    procBoundary2to3
    {
        type            processor;
        value           nonuniform List<scalar> 
88
(
7.04827e-07
1.38621e-06
1.57326e-07
7.04827e-07
6.44776e-07
1.73415e-07
1.57326e-07
2.78865e-07
3.20718e-07
2.82338e-07
1.73415e-07
2.6489e-07
4.58536e-07
4.24973e-07
3.97514e-07
3.71957e-07
3.20718e-07
3.4532e-07
6.43477e-07
6.03271e-07
5.63128e-07
5.24004e-07
4.58536e-07
4.85639e-07
8.7573e-07
8.38195e-07
8.00814e-07
7.63839e-07
7.27356e-07
6.91239e-07
6.43477e-07
6.55129e-07
1.18049e-06
1.15343e-06
1.12563e-06
1.09717e-06
1.06818e-06
1.03869e-06
1.00879e-06
9.78556e-07
9.48002e-07
9.17063e-07
8.8569e-07
8.7573e-07
8.53825e-07
1.2025e-06
1.06099e-06
1.0927e-06
1.09342e-06
1.14272e-06
1.16931e-06
1.19562e-06
1.21853e-06
1.24014e-06
1.26001e-06
1.27805e-06
1.29378e-06
1.30729e-06
1.31906e-06
1.32844e-06
1.33574e-06
1.34104e-06
1.34441e-06
1.346e-06
1.34583e-06
1.34402e-06
1.34077e-06
1.33617e-06
1.33032e-06
1.32331e-06
1.31529e-06
1.30637e-06
1.29651e-06
1.28591e-06
1.27451e-06
1.2624e-06
1.24962e-06
1.23614e-06
1.22202e-06
1.20724e-06
1.19176e-06
1.17566e-06
1.15881e-06
1.14124e-06
1.12298e-06
1.10392e-06
1.18049e-06
1.08411e-06
)
;
    }
    procBoundary2to6
    {
        type            processor;
        value           nonuniform List<scalar> 
13
(
15.1677
10.976
7.14533
4.68604
2.84497
1.41979
0.470024
0.0624416
0.000539409
0.000132872
0
0
6.39372e-08
)
;
    }
}


// ************************************************************************* //
