/*--------------------------------*- C++ -*----------------------------------*\
| =========                 |                                                 |
| \\      /  F ield         | OpenFOAM: The Open Source CFD Toolbox           |
|  \\    /   O peration     | Version:  2306                                  |
|   \\  /    A nd           | Website:  www.openfoam.com                      |
|    \\/     M anipulation  |                                                 |
\*---------------------------------------------------------------------------*/
FoamFile
{
    version     2.0;
    format      ascii;
    arch        "LSB;label=32;scalar=64";
    class       volVectorField;
    location    "0";
    object      wallShearStress;
}
// * * * * * * * * * * * * * * * * * * * * * * * * * * * * * * * * * * * * * //

dimensions      [1 -1 -2 0 0 0 0];

internalField   uniform (0 0 0);

boundaryField
{
    upperSurface
    {
        type            calculated;
        value           nonuniform List<vector> 
150
(
(-6.8748468 0 -0.47643986)
(-6.9229199 0 -0.47073748)
(-6.969885 -3.2410803e-21 -0.46463271)
(-7.01574 0 -0.45821876)
(-7.0604869 5.5493649e-21 -0.45148843)
(-7.1040938 0 -0.44437304)
(-7.1465628 0 -0.43691252)
(-7.1879104 3.8107561e-21 -0.42912912)
(-7.2281393 0 -0.42102764)
(-7.2672323 0 -0.41255534)
(-7.3052046 3.2367791e-21 -0.40371247)
(-7.3421114 0 -0.39460745)
(-7.3778966 2.5873889e-22 -0.38506238)
(-7.4126542 0 -0.37526035)
(-7.4463759 0 -0.36513233)
(-7.4790489 0 -0.3545749)
(-7.5107783 0 -0.34374734)
(-7.5415178 0 -0.33250639)
(-7.5713796 0 -0.32098104)
(-7.6003889 0 -0.30912102)
(-7.628536 0 -0.29685401)
(-7.6559376 2.3068642e-20 -0.28429614)
(-7.6825419 2.6488947e-20 -0.27127698)
(-7.7085942 0 -0.25805958)
(-7.7339304 0 -0.24432731)
(-7.758713 0 -0.23023895)
(-7.7830592 0 -0.21583968)
(-7.8068991 0 -0.2009464)
(-7.8304319 0 -0.18572212)
(-7.8536639 0 -0.17006499)
(-7.8766455 0 -0.15395347)
(-7.8994586 0 -0.13737175)
(-7.9222146 0 -0.12033696)
(-7.9450303 0 -0.10287248)
(-7.9678953 0 -0.08487742)
(-7.9908294 9.5056072e-20 -0.066275105)
(-8.0140174 0 -0.047134272)
(-8.0375609 0 -0.02745135)
(-8.0614884 0 -0.0071519645)
(-8.0858072 0 0.013849002)
(-8.11068 0 0.035510353)
(-8.1361033 0 0.05792766)
(-8.1622969 -1.6134925e-19 0.081023967)
(-8.1888687 0 0.10515273)
(-8.2165187 0 0.12991)
(-8.2446869 0 0.15573818)
(-8.2737865 -2.1509459e-19 0.18243757)
(-8.3036475 0 0.21016347)
(-8.3341399 -2.4796802e-19 0.23902428)
(-8.3654342 0 0.26894386)
(-8.3974948 0 0.29995799)
(-8.4299649 -3.0682667e-19 0.33223129)
(-8.4628558 0 0.36570303)
(-8.496079 3.5383011e-19 0.40032825)
(-8.5292736 0 0.4361441)
(-8.5622153 0 0.47306217)
(-8.5949421 0 0.51082021)
(-8.6261044 0 0.54957348)
(-8.6565816 0 0.58854846)
(-8.6848386 -5.4546857e-19 0.62765558)
(-8.7112527 0 0.66599135)
(-8.7348974 0 0.70278991)
(-8.7553237 0 0.73679927)
(-8.7727362 0 0.76623614)
(-8.7871911 0 0.78884574)
(-8.7988631 0 0.80164746)
(-8.808815 0 0.80073916)
(-8.8190775 0 0.78135867)
(-8.8320412 -5.1631855e-19 0.73786825)
(-8.8507279 -5.5040007e-19 0.66418194)
(-8.8785504 0 0.55487483)
(-8.9182067 0 0.4065981)
(-8.9706453 0 0.21975985)
(-9.0350442 0 0.0016246041)
(-9.1080037 0 -0.23660816)
(-6.9801296 -0 -0.80704184)
(-6.9773573 -0 -0.80322357)
(-6.9746406 -1.9945103e-19 -0.79943686)
(-6.9720171 -0 -0.79573369)
(-6.969474 -0 -0.79209636)
(-6.9669901 1.944291e-19 -0.78850137)
(-6.9645891 -0 -0.78498831)
(-6.9622725 -0 -0.78154529)
(-6.9599745 -0 -0.77810372)
(-6.9577762 -1.8813241e-19 -0.77476835)
(-6.9556239 1.866187e-19 -0.77146303)
(-6.953499 -1.8510894e-19 -0.76816548)
(-6.9514399 -0 -0.76492513)
(-6.9494544 -1.8217954e-19 -0.76176399)
(-6.9474757 -0 -0.75858589)
(-6.9455565 -0 -0.75546687)
(-6.943681 -0 -0.75238576)
(-6.9418225 -0 -0.74929066)
(-6.9400145 -0 -0.74625241)
(-6.9382273 -0 -0.74320386)
(-6.9364871 -0 -0.7402085)
(-6.9347444 -0 -0.73718105)
(-6.9330569 -0 -0.73421464)
(-6.9313583 -1.6822305e-19 -0.73120062)
(-6.9297101 -0 -0.72823746)
(-6.9280513 -0 -0.72522165)
(-6.9264409 -1.6414979e-19 -0.72226089)
(-6.9248122 -0 -0.7192347)
(-6.9232182 -0 -0.71623837)
(-6.921616 1.6002353e-19 -0.71319705)
(-6.9200117 -0 -0.71011495)
(-6.9184629 -0 -0.70709517)
(-6.9168824 -0 -0.70398509)
(-6.9153088 1.544077e-19 -0.70084787)
(-6.9137304 -0 -0.69767075)
(-6.9121658 1.5151483e-19 -0.69448)
(-6.9105977 -0 -0.69123411)
(-6.9090294 -0 -0.68795226)
(-6.9074426 -0 -0.68459062)
(-6.905868 1.4548972e-19 -0.68120682)
(-6.9042804 -0 -0.67774999)
(-6.9026919 -0 -0.67423031)
(-6.9010877 -7.034577e-20 -0.67062516)
(-6.8994899 -0 -0.66698407)
(-6.89787 6.8670434e-20 -0.66323026)
(-6.8962555 -0 -0.65941918)
(-6.8946292 -6.6923239e-20 -0.65551434)
(-6.8929863 -0 -0.65150587)
(-6.8913311 -0 -0.64739283)
(-6.889687 -6.4140332e-20 -0.64321545)
(-6.8880332 -0 -0.63891526)
(-6.8863574 6.216136e-20 -0.63446415)
(-6.8846925 -6.1137859e-20 -0.62993635)
(-6.8830217 -0 -0.62528121)
(-6.8813324 5.8997571e-20 -0.62046413)
(-6.8796566 -0 -0.61552701)
(-6.8779769 -5.6734654e-20 -0.61044535)
(-6.8763017 -0 -0.60521307)
(-6.8746318 5.4331729e-20 -0.59980251)
(-6.872979 -5.3081632e-20 -0.59426371)
(-6.8713264 -5.178024e-20 -0.58849711)
(-6.8697059 -0 -0.58259588)
(-6.868101 2.4534423e-20 -0.57648031)
(-6.8665236 2.382262e-20 -0.57016963)
(-6.8649788 2.3086613e-20 -0.56364424)
(-6.8634672 -0 -0.55688869)
(-6.8620147 -0 -0.54991757)
(-6.8606074 2.0721502e-20 -0.54267248)
(-6.8592703 -0 -0.53520626)
(-6.8580097 -0 -0.52747233)
(-6.8568302 -0 -0.51941726)
(-6.8557513 8.5805627e-21 -0.51110742)
(-6.8547891 -0 -0.50244449)
(-6.8539548 3.7927185e-21 -0.49347192)
(-6.8532685 -0 -0.48413563)
)
;
    }
    lowerSurface
    {
        type            calculated;
        value           nonuniform List<vector> 
150
(
(-6.8752627 0 -0.4843754)
(-6.9242882 0 -0.49684636)
(-6.972239 -4.7070092e-21 -0.50954854)
(-7.0191029 0 -0.52238684)
(-7.0648828 1.1268602e-20 -0.53536778)
(-7.1095537 0 -0.54855425)
(-7.1531134 0 -0.56190534)
(-7.1955761 1.4459811e-20 -0.57539996)
(-7.236944 0 -0.58903255)
(-7.2772053 0 -0.60285163)
(-7.316375 3.6381145e-20 -0.61685744)
(-7.3544975 0 -0.6309494)
(-7.3915347 0 -0.64529334)
(-7.4275622 0 -0.65972082)
(-7.4625786 0 -0.67429706)
(-7.4965816 0 -0.68911952)
(-7.5296607 -5.5124089e-20 -0.70404555)
(-7.5617839 0 -0.71920638)
(-7.5930507 0 -0.73449032)
(-7.6234917 0 -0.7499478)
(-7.6531043 0 -0.76564508)
(-7.6819942 -7.5522088e-20 -0.78148417)
(-7.7101263 -8.0237379e-20 -0.79761915)
(-7.7377209 0 -0.81382954)
(-7.7646448 0 -0.83039266)
(-7.7910454 0 -0.84717628)
(-7.8170358 0 -0.86415094)
(-7.8425642 0 -0.88147705)
(-7.8678145 0 -0.89902448)
(-7.8928031 0 -0.9168864)
(-7.9175829 0 -0.93508565)
(-7.9422376 0 -0.95364356)
(-7.9668774 0 -0.97255453)
(-7.9916174 0 -0.99180793)
(-8.016457 0 -1.0114899)
(-8.0414235 -1.6785145e-19 -1.0316667)
(-8.0666956 0 -1.0522933)
(-8.0923757 0 -1.0733793)
(-8.1184995 0 -1.0949877)
(-8.1450823 0 -1.1171864)
(-8.1722832 0 -1.1399493)
(-8.2001077 0 -1.1633493)
(-8.2287688 2.4618264e-19 -1.1873345)
(-8.2579054 0 -1.2121467)
(-8.2881821 0 -1.237509)
(-8.3190771 -2.9058978e-19 -1.2637105)
(-8.3509857 3.0723129e-19 -1.2906101)
(-8.3837504 0 -1.3182911)
(-8.4172491 3.4378079e-19 -1.3467941)
(-8.4516442 0 -1.37604)
(-8.4869008 0 -1.40601)
(-8.5226725 4.0800459e-19 -1.4367363)
(-8.5589616 0 -1.468105)
(-8.5956705 -4.5831884e-19 -1.4999903)
(-8.6324341 0 -1.5322755)
(-8.669012 0 -1.5647412)
(-8.7054109 0 -1.5970509)
(-8.7402751 0 -1.6289327)
(-8.7744086 0 -1.6597234)
(-8.8062402 6.5623697e-19 -1.6888237)
(-8.8360502 -6.9742625e-19 -1.7152861)
(-8.8628108 0 -1.7379431)
(-8.8859256 0 -1.7552332)
(-8.905404 0 -1.7652174)
(-8.9210547 0 -1.7654234)
(-8.9327286 0 -1.7526593)
(-8.9410826 0 -1.7230777)
(-8.9476701 0 -1.6723344)
(-8.9543262 5.5801847e-19 -1.5954693)
(-8.9634994 5.8764601e-19 -1.4876276)
(-8.9781335 0 -1.3452837)
(-9.0007008 0 -1.1674839)
(-9.0323286 0 -0.95722938)
(-9.0730866 3.4675288e-19 -0.72426894)
(-9.1208168 0 -0.48109641)
(-6.9459335 0 -0.15454238)
(-6.9435566 0 -0.15826891)
(-6.9412322 0 -0.16196603)
(-6.9389923 0 -0.16558321)
(-6.9368261 0 -0.16913789)
(-6.9347148 -8.6371145e-20 -0.17265249)
(-6.9326779 0 -0.17608791)
(-6.9307184 0 -0.17945739)
(-6.9287772 0 -0.18282527)
(-6.9269249 8.006378e-20 -0.1860908)
(-6.9251155 -7.8547336e-20 -0.18932819)
(-6.9233328 7.7035033e-20 -0.1925587)
(-6.9216099 0 -0.19573493)
(-6.9199526 7.410049e-20 -0.19883459)
(-6.9183037 0 -0.20195107)
(-6.9167083 0 -0.20501067)
(-6.9151528 0 -0.20803386)
(-6.9136157 0 -0.21107227)
(-6.9121232 0 -0.21405511)
(-6.9106527 0 -0.21704986)
(-6.9092237 0 -0.21999257)
(-6.9077956 0 -0.22296707)
(-6.9064163 0 -0.22588246)
(-6.905031 6.0120501e-20 -0.22884493)
(-6.9036907 0 -0.23175852)
(-6.9023455 0 -0.23472454)
(-6.9010428 0 -0.23763704)
(-6.8997287 0 -0.24061434)
(-6.8984463 0 -0.24356291)
(-6.8971604 0 -0.24655596)
(-6.8958766 0 -0.24958979)
(-6.8946419 0 -0.25256353)
(-6.8933849 0 -0.25562617)
(-6.8921377 -4.6284041e-20 -0.2587163)
(-6.8908897 0 -0.26184566)
(-6.8896572 0 -0.26498915)
(-6.8884268 0 -0.26818799)
(-6.8872 0 -0.27142235)
(-6.885963 0 -0.27473567)
(-6.8847406 -3.7354875e-20 -0.27807154)
(-6.8835128 0 -0.28147979)
(-6.8822907 0 -0.28495128)
(-6.8810617 1.6275683e-20 -0.28850749)
(-6.879843 0 -0.29209944)
(-6.878614 -1.4598675e-20 -0.29580344)
(-6.8773964 0 -0.29956507)
(-6.8761767 1.2849867e-20 -0.3034199)
(-6.8749513 0 -0.30737734)
(-6.8737244 0 -0.31143869)
(-6.8725156 1.0064779e-20 -0.31556506)
(-6.8713098 0 -0.31981424)
(-6.8700978 -8.0843522e-21 -0.32421343)
(-6.8689048 7.0601643e-21 -0.32868962)
(-6.8677192 0 -0.33329284)
(-6.8665321 0 -0.33805686)
(-6.865371 -3.8026725e-21 -0.34294224)
(-6.8642212 0 -0.34797152)
(-6.8630917 0 -0.35315171)
(-6.8619863 -2.5049929e-22 -0.35851101)
(-6.8609113 0 -0.36399876)
(-6.8598605 -2.3020517e-21 -0.36971483)
(-6.858856 0 -0.3755669)
(-6.8578895 2.507179e-21 -0.38163411)
(-6.8569712 3.219206e-21 -0.38789755)
(-6.8561079 3.9553721e-21 -0.39437724)
(-6.8553021 0 -0.40108818)
(-6.854578 -5.5037833e-21 -0.40801809)
(-6.8539281 0 -0.4152237)
(-6.8533716 0 -0.42265336)
(-6.85292 0 -0.43035433)
(-6.8525833 0 -0.43838016)
(-6.852374 4.9409027e-21 -0.44666462)
(-6.8523188 0 -0.45530815)
(-6.8524242 2.9680372e-21 -0.46426643)
(-6.8527161 0 -0.47359501)
)
;
    }
    inlet
    {
        type            calculated;
        value           uniform (0 0 0);
    }
    outlet
    {
        type            calculated;
        value           uniform (0 0 0);
    }
    back
    {
        type            empty;
    }
    front
    {
        type            empty;
    }
}


// ************************************************************************* //
