/*--------------------------------*- C++ -*----------------------------------*\
| =========                 |                                                 |
| \\      /  F ield         | OpenFOAM: The Open Source CFD Toolbox           |
|  \\    /   O peration     | Version:  2306                                  |
|   \\  /    A nd           | Website:  www.openfoam.com                      |
|    \\/     M anipulation  |                                                 |
\*---------------------------------------------------------------------------*/
FoamFile
{
    version     2.0;
    format      ascii;
    arch        "LSB;label=32;scalar=64";
    class       volScalarField;
    location    "725";
    object      div(phi);
}
// * * * * * * * * * * * * * * * * * * * * * * * * * * * * * * * * * * * * * //

dimensions      [0 0 -1 0 0 0 0];

internalField   nonuniform List<scalar> 
1340
(
-2.82985e-05
-7.80103e-05
2.32175e-05
-6.23721e-05
-1.15455e-05
-7.10569e-05
-5.18605e-05
-8.32245e-05
-1.8572e-05
-2.64439e-05
4.15715e-05
-1.26135e-05
-7.74281e-06
-4.73137e-05
-3.33519e-05
-6.21137e-05
-1.91358e-05
-1.80783e-05
4.53296e-05
-3.15851e-06
-8.89683e-06
-3.99018e-05
-2.25928e-05
-4.8966e-05
-2.14227e-05
-1.67151e-05
4.90051e-05
-1.78273e-06
-1.06092e-05
-3.66494e-05
-1.53921e-05
-3.82598e-05
-2.07089e-05
-1.39694e-05
5.16049e-05
-1.03808e-06
-1.06465e-05
-2.93407e-05
-1.04677e-05
-2.97274e-05
-1.74405e-05
-1.1974e-05
5.02099e-05
-2.20143e-06
-9.9465e-06
-2.19434e-05
-6.45918e-06
-2.24367e-05
-1.40577e-05
-9.9806e-06
4.54829e-05
-2.20875e-06
-9.01171e-06
-1.54757e-05
-3.44641e-06
-1.65096e-05
-1.09018e-05
-9.99701e-06
4.08229e-05
-2.93364e-06
-7.66478e-06
-1.08063e-05
-1.34167e-06
-1.2535e-05
-8.22452e-06
-9.38642e-06
3.53346e-05
-3.04027e-06
-6.00454e-06
-6.72525e-06
-4.54191e-08
-9.43921e-06
-6.048e-06
-9.21251e-06
3.06763e-05
-3.20868e-06
-4.32735e-06
-3.67739e-06
9.50005e-07
-7.27167e-06
-4.47004e-06
-8.8863e-06
2.52143e-05
-3.12044e-06
-3.05732e-06
-1.59305e-06
1.60551e-06
-5.49388e-06
-3.58635e-06
-7.13427e-06
2.09476e-05
-3.21863e-06
-2.10626e-06
-3.91917e-07
1.96774e-06
-4.23417e-06
-2.44901e-06
-4.71969e-06
1.56741e-05
-3.06131e-06
-1.62324e-06
-3.79073e-08
1.67883e-06
-3.26567e-06
-1.70844e-06
-2.52711e-06
1.16554e-05
-2.95237e-06
-1.24033e-06
-1.52814e-07
1.15822e-06
-2.55149e-06
-1.17652e-06
-6.75082e-07
7.89133e-06
-2.66081e-06
-1.57722e-06
-3.01215e-07
4.0101e-07
-1.90808e-06
-2.57405e-08
2.30579e-07
4.80599e-06
-1.94106e-06
-1.4112e-06
-4.57002e-07
-1.29715e-07
-1.39945e-06
1.91348e-07
4.72847e-07
2.70349e-06
-1.2147e-06
2.71825e-06
-9.39566e-07
-4.47357e-07
-4.19022e-07
-9.71578e-07
-1.65887e-06
8.83354e-08
4.08052e-07
1.43778e-06
-6.763e-07
1.0032e-06
-6.26073e-07
-4.01276e-07
-4.81592e-07
-6.65746e-07
-1.31317e-06
6.24672e-08
3.05858e-07
6.5658e-07
-2.53355e-07
8.97163e-07
-3.89725e-07
-3.25162e-07
-4.15542e-07
-4.50927e-07
-1.11089e-06
6.01795e-08
1.62666e-07
3.2317e-07
-7.45883e-08
8.02014e-07
-2.34725e-07
-2.34032e-07
-3.06031e-07
-3.06319e-07
-9.27461e-07
4.07379e-08
8.21846e-08
1.6957e-07
-7.19264e-09
4.10365e-07
-1.58873e-07
-1.52626e-07
-2.07497e-07
-2.08036e-07
-3.67616e-07
6.5745e-08
3.55451e-08
9.25186e-08
7.27958e-09
3.0046e-07
-8.91299e-08
-8.70964e-08
-1.42465e-07
-1.36234e-07
-2.0843e-07
2.46718e-08
-3.96024e-09
3.84894e-08
5.54411e-09
2.67213e-07
2.24987e-07
-7.33997e-08
-6.40135e-08
-9.38172e-08
-1.01007e-07
-6.26427e-08
-2.31581e-07
-1.67247e-08
-3.28129e-08
-1.54623e-09
2.70971e-09
2.58049e-08
1.32801e-07
-7.19983e-08
-5.14476e-08
-6.76567e-08
-7.34051e-08
-6.61727e-08
-1.89419e-07
-3.57544e-08
-5.0069e-08
-1.64111e-08
-9.19053e-09
-2.79034e-08
7.54603e-08
-6.4881e-08
-3.66308e-08
-5.10813e-08
-5.31822e-08
3.00107e-09
-1.30275e-07
-2.90842e-08
-5.08103e-08
-2.91373e-08
-1.11291e-08
-9.7871e-10
5.07647e-08
-4.88998e-08
-3.12218e-08
-3.80896e-08
-4.54365e-08
7.79975e-09
-7.01244e-08
-2.1291e-08
-4.34971e-08
-3.90071e-08
-1.30702e-08
-2.98984e-08
3.36578e-08
3.67503e-09
-1.59431e-08
-2.22466e-08
-4.32584e-08
2.61491e-08
5.86718e-08
4.44659e-08
-7.23422e-11
-9.91991e-09
-4.75108e-08
-2.41091e-08
2.62094e-08
4.5303e-08
9.98102e-09
3.07836e-08
-1.18637e-08
-1.49545e-08
-5.45037e-08
-4.30465e-08
-3.29835e-09
3.94941e-08
-6.55698e-09
-2.90781e-09
-4.07528e-08
-2.5667e-08
3.89119e-09
1.27365e-08
-1.96393e-08
1.38374e-08
-3.90129e-09
9.25761e-09
-3.97915e-08
-4.03621e-08
-2.13161e-08
1.62557e-08
3.48407e-09
3.04438e-08
-1.63229e-08
5.1207e-09
-4.34355e-09
3.70043e-10
-1.164e-08
2.6889e-08
-1.07267e-08
2.558e-08
-2.74666e-08
-2.00642e-08
-2.1494e-08
1.78502e-09
-2.37408e-08
1.40306e-08
-2.50672e-08
-8.89756e-09
-2.45432e-08
-1.71728e-08
-1.50607e-08
-2.78981e-08
1.96227e-09
-2.74308e-08
-7.51895e-09
-1.96676e-08
-2.43303e-08
-1.52544e-08
-1.81434e-08
-7.66981e-09
-2.13387e-08
-1.90896e-09
-1.87458e-08
-2.98319e-09
-1.15754e-08
-1.10458e-08
-1.2019e-08
-1.35978e-08
-9.43707e-09
-1.19444e-08
-1.03558e-08
-1.67845e-08
-2.4432e-08
-5.91966e-09
-8.97788e-09
-1.07039e-08
-9.52203e-09
-1.05089e-08
-1.12655e-08
-1.4607e-08
1.53006e-08
-2.18957e-09
-3.5799e-09
-6.58978e-09
-5.27924e-09
-1.74232e-08
-8.38368e-09
-1.18052e-08
-7.26086e-09
1.35143e-09
-4.64619e-09
-1.85258e-09
-2.56853e-08
-6.68476e-09
-1.64102e-08
-1.2953e-08
1.12662e-08
-4.52494e-09
-7.1662e-10
-2.7913e-08
8.89114e-10
-2.94493e-08
-4.40044e-09
-8.76963e-09
5.63702e-09
-3.70474e-09
-1.68396e-09
-1.40836e-08
1.93664e-09
-1.95126e-08
2.46531e-09
-8.33446e-09
1.25197e-09
-2.14155e-09
-2.19885e-09
-6.26318e-09
-1.39821e-09
-8.9603e-09
1.33171e-09
-5.69087e-09
-1.68651e-09
-1.05941e-08
-5.38531e-09
-4.8374e-09
-4.46046e-09
-5.82947e-09
-4.84572e-09
-5.82237e-09
-5.36111e-09
-7.97369e-09
-7.20913e-09
-1.87678e-09
-2.10094e-09
-4.79132e-09
-5.99295e-09
-5.9884e-09
-6.9713e-09
-7.13244e-09
-7.488e-09
-6.17798e-09
-1.30135e-09
-2.05805e-09
-1.76081e-09
-3.53992e-09
-5.13549e-09
-5.24781e-09
-4.59165e-09
-5.43161e-09
-3.89342e-09
3.48284e-09
1.21676e-09
4.48674e-11
-1.30347e-09
-9.23133e-10
-2.03569e-09
-2.10668e-09
-1.72976e-09
-7.72266e-10
1.44375e-10
4.43472e-09
3.57454e-09
2.4898e-09
1.54747e-09
1.27554e-09
2.17547e-09
4.6354e-10
1.67258e-09
2.25785e-08
7.12988e-09
5.92323e-09
4.84644e-09
5.1567e-09
4.5561e-09
4.03707e-09
3.35013e-09
4.15363e-09
1.27918e-08
6.83211e-09
6.34074e-09
6.12628e-09
6.29231e-09
5.30697e-09
6.31404e-09
3.77152e-09
3.88883e-09
1.17286e-08
6.00901e-09
5.95542e-09
6.1322e-09
6.2862e-09
7.03161e-09
7.40143e-09
6.64809e-09
5.70264e-09
6.28986e-09
9.55786e-09
6.5198e-09
5.77464e-09
6.72557e-09
6.98606e-09
7.09824e-09
6.89014e-09
5.84225e-09
4.65775e-09
4.8808e-09
1.0473e-08
4.79805e-09
4.95926e-09
4.45126e-09
4.50759e-09
4.00453e-09
3.72945e-09
2.76898e-09
2.65992e-09
2.01329e-09
-0.000149545
7.47126e-05
-3.49044e-05
4.24896e-05
-3.27611e-05
1.7201e-05
-2.40633e-05
1.09282e-06
-1.97178e-05
-9.23384e-06
-1.42849e-05
-1.25288e-05
-8.39386e-06
-1.16154e-05
-4.52715e-06
-9.61223e-06
-2.04248e-06
-7.51351e-06
-1.43414e-06
-5.26978e-06
-8.09636e-07
-3.25486e-06
-8.19387e-07
-1.75267e-06
-1.12567e-06
-8.54474e-07
-1.33615e-06
-5.3116e-07
-1.41779e-06
-5.75035e-07
-1.40256e-06
-5.92266e-07
-1.11388e-06
-5.94206e-07
-7.02193e-07
-5.13978e-07
-4.35387e-07
-4.02742e-07
-2.36184e-07
-2.95094e-07
-1.33181e-07
-2.00455e-07
-8.28884e-08
-1.35954e-07
-5.91276e-08
-7.91341e-08
-5.30837e-08
-5.09058e-08
-3.40907e-08
-3.85876e-08
-2.18243e-08
-3.10637e-08
1.29507e-08
-2.93669e-08
-1.39505e-09
-4.39706e-08
-3.79088e-08
-3.98577e-08
-4.30357e-08
9.42842e-09
-2.89012e-08
-1.7211e-08
-3.66584e-08
-1.63573e-08
-1.63965e-08
-1.03646e-08
4.01068e-11
-6.92483e-09
-1.5523e-08
-2.92671e-09
-1.47654e-08
-1.25493e-08
-1.08374e-08
-2.14827e-09
-2.48032e-09
3.40739e-09
7.36718e-09
1.01847e-08
9.74763e-09
6.45559e-09
-6.49903e-05
4.72468e-05
-1.79091e-05
3.59261e-05
-2.02077e-05
2.44056e-05
-1.67367e-05
1.43815e-05
-1.54126e-05
6.95436e-06
-1.22342e-05
2.35503e-06
-8.89266e-06
-8.69758e-08
-4.94833e-06
-9.77119e-07
-2.53836e-06
-1.12831e-06
-8.45085e-07
-1.01994e-06
-1.16566e-07
-8.17084e-07
-6.0528e-09
-5.76055e-07
4.24498e-08
-3.64866e-07
-1.76779e-07
-2.0088e-07
-3.53384e-07
-6.20161e-08
-3.21503e-07
-9.70197e-08
-2.8284e-07
-1.60019e-07
-2.67448e-07
-2.31745e-07
-1.94819e-07
-2.58403e-07
-1.59776e-07
-2.30381e-07
-1.20831e-07
-1.76197e-07
-9.11825e-08
-1.12611e-07
-7.11077e-08
-7.76354e-08
-4.92106e-08
-4.67541e-08
-4.24716e-08
-2.52356e-08
-2.85208e-08
-3.17912e-09
-1.62431e-08
2.02234e-08
-1.88015e-08
6.45385e-09
-2.80978e-08
-1.74456e-08
-4.14095e-09
-4.69798e-08
-1.25581e-08
-2.53508e-08
-2.25485e-09
-2.60707e-08
-1.97326e-08
-1.39761e-08
-1.64498e-08
-6.19813e-09
2.77498e-09
-1.95479e-08
-8.47938e-09
-7.30506e-09
-5.15563e-10
-1.40647e-09
1.38944e-09
8.25829e-09
2.76439e-09
1.26875e-08
6.17564e-09
-1.45309e-05
3.09791e-05
-1.73235e-06
2.96085e-05
-3.85252e-06
2.60942e-05
-4.2448e-06
2.11929e-05
-5.20155e-06
1.72556e-05
-5.1045e-06
1.38306e-05
-5.86527e-06
9.20787e-06
-5.07931e-06
5.24986e-06
-4.2385e-06
2.50383e-06
-3.10082e-06
1.12124e-06
-2.19025e-06
6.7154e-07
-1.17822e-06
6.66623e-07
-7.28543e-07
7.22218e-07
-3.89365e-07
6.41049e-07
-2.12917e-07
3.5253e-07
-2.60602e-07
1.10691e-07
-2.54357e-07
-7.54051e-08
-1.82821e-07
-1.6426e-07
-1.64015e-07
-1.86034e-07
-1.18954e-07
-1.73211e-07
-9.17482e-08
-1.40673e-07
-7.05729e-08
-1.11697e-07
-5.68792e-08
-6.93252e-08
-5.2175e-08
-4.33719e-08
-3.65636e-08
-2.74425e-08
-2.99942e-08
-1.82469e-08
1.04369e-09
-1.21875e-08
2.39412e-08
-8.74791e-09
1.74449e-08
-1.31042e-08
-2.82977e-08
6.39667e-09
-2.73359e-08
-1.35265e-08
-3.59135e-08
-1.34813e-08
-1.35268e-08
-7.55494e-09
5.66022e-09
-4.00134e-09
-1.66834e-08
-6.31839e-09
-1.33679e-08
-7.76895e-09
-1.52741e-08
1.26047e-08
-2.36877e-09
1.67816e-09
9.4225e-09
3.00025e-09
1.56145e-05
3.90978e-05
5.84855e-06
2.76687e-05
-1.38656e-06
2.09297e-05
-4.7355e-06
1.56066e-05
-5.48232e-06
1.19792e-05
-6.2711e-06
9.67742e-06
-6.14094e-06
7.53463e-06
-5.97679e-06
5.22343e-06
-4.72876e-06
3.44782e-06
-3.9308e-06
2.09928e-06
-2.73251e-06
1.13089e-06
-2.11894e-06
4.38773e-07
-1.57565e-06
3.97245e-08
-1.14649e-06
-1.62157e-07
-9.42712e-07
-1.48497e-07
-5.89996e-07
-1.21561e-07
-3.33183e-07
-1.07086e-07
-2.12818e-07
-1.29738e-07
-1.13339e-07
-1.53616e-07
-8.894e-08
-1.52705e-07
-7.13974e-08
-1.31565e-07
-6.1515e-08
-9.06842e-08
-5.08101e-08
-6.84214e-08
-3.67487e-08
-4.37402e-08
-3.57049e-08
-2.78254e-08
-2.80693e-08
-1.89482e-08
-2.24488e-08
8.34907e-10
-6.0991e-09
2.11196e-08
-5.45937e-09
1.43439e-08
1.21227e-08
-3.69526e-08
-1.33258e-08
-2.46119e-08
1.4029e-09
-2.13796e-08
-1.13084e-08
-1.06646e-08
-1.71438e-08
-4.36387e-09
-2.011e-09
-1.16358e-08
-6.49751e-09
-7.66428e-09
-2.37775e-09
-3.71461e-10
6.24035e-09
1.03017e-08
-4.12413e-09
-2.2849e-05
1.29977e-05
-4.43704e-06
1.20415e-05
-4.40222e-06
1.14902e-05
-4.32348e-06
1.03055e-05
-3.91022e-06
8.79791e-06
-3.88093e-06
7.75205e-06
-3.80166e-06
6.76911e-06
-4.00391e-06
5.215e-06
-3.57321e-06
3.6948e-06
-3.20426e-06
2.40879e-06
-2.5728e-06
1.52624e-06
-2.1645e-06
9.99537e-07
-1.47377e-06
7.38702e-07
-1.10545e-06
5.50851e-07
-6.35009e-07
3.20189e-07
-4.47313e-07
1.03686e-07
-3.52585e-07
-6.67723e-08
-2.43732e-07
-1.42403e-07
-1.95043e-07
-1.50972e-07
-1.22047e-07
-1.31268e-07
-7.66063e-08
-1.04138e-07
-4.76193e-08
-8.97105e-08
-3.68236e-08
-6.04125e-08
-3.62672e-08
-4.15849e-08
-2.7246e-08
-2.71036e-08
-2.79678e-08
-2.18425e-08
-2.11749e-08
-1.6164e-08
-2.27849e-09
-7.64087e-09
2.5457e-08
1.57688e-09
-1.97379e-08
7.19408e-09
-1.78637e-08
-1.35959e-09
-3.22743e-08
-5.2613e-09
-1.32682e-08
-1.95714e-08
3.80753e-09
-9.59554e-09
1.73219e-09
-6.90583e-09
-8.42672e-09
-1.11658e-08
-1.01315e-08
1.8558e-08
-7.07579e-09
-5.02279e-09
-1.98641e-05
9.20286e-06
-5.05348e-06
6.94589e-06
-4.90727e-06
6.04157e-06
-4.58822e-06
5.34948e-06
-4.17952e-06
4.58331e-06
-3.64123e-06
4.02435e-06
-3.4895e-06
3.67193e-06
-3.20504e-06
3.27199e-06
-2.9996e-06
2.6417e-06
-2.4807e-06
2.02956e-06
-2.2464e-06
1.40333e-06
-1.77456e-06
8.12853e-07
-1.62479e-06
2.6636e-07
-1.39349e-06
-8.33757e-08
-1.21891e-06
-2.04725e-07
-9.1943e-07
-2.00905e-07
-5.91313e-07
-1.34322e-07
-3.64509e-07
-9.93183e-08
-1.81003e-07
-9.60158e-08
-1.05889e-07
-9.94143e-08
-6.55071e-08
-9.56197e-08
-4.93193e-08
-7.02004e-08
-3.60802e-08
-5.76112e-08
-2.39361e-08
-3.98364e-08
-2.50708e-08
-2.82527e-08
-2.15989e-08
-1.96287e-08
-2.58749e-08
-1.81097e-08
-1.90463e-08
1.06569e-09
-1.15462e-08
1.03754e-08
2.05321e-08
-1.19301e-08
3.65818e-09
-2.09948e-08
9.6833e-09
-1.68213e-08
-7.50122e-09
4.84048e-09
-2.47607e-08
3.03604e-09
-9.83691e-09
2.41553e-09
-2.81454e-09
6.47424e-11
-3.47846e-09
-1.07583e-08
-1.46362e-05
6.25649e-06
-3.58163e-06
5.02281e-06
-3.20474e-06
4.6082e-06
-2.9474e-06
4.32821e-06
-2.70809e-06
3.9548e-06
-2.41308e-06
3.49811e-06
-2.27923e-06
3.19873e-06
-2.20304e-06
2.91474e-06
-2.20985e-06
2.40729e-06
-2.00418e-06
1.83656e-06
-1.83748e-06
1.28466e-06
-1.56676e-06
8.49165e-07
-1.43223e-06
5.72059e-07
-1.09482e-06
4.07885e-07
-8.21913e-07
2.40034e-07
-6.06947e-07
1.2089e-07
-4.46049e-07
9.13852e-09
-3.00898e-07
-5.24063e-08
-2.27366e-07
-7.01703e-08
-1.39388e-07
-6.6296e-08
-8.13465e-08
-5.65331e-08
-4.12348e-08
-6.00347e-08
-2.6605e-08
-4.72446e-08
-2.52537e-08
-3.7502e-08
-1.85305e-08
-2.56053e-08
-2.13368e-08
-2.24666e-08
-2.11886e-08
-2.24574e-08
-1.72833e-08
-1.916e-08
1.6593e-08
1.3655e-08
7.80943e-09
2.83832e-08
5.88979e-09
2.61513e-08
-1.94237e-08
2.06433e-09
3.31752e-09
-2.28621e-08
7.93259e-09
-1.48993e-08
9.81018e-09
-1.19901e-08
-7.91479e-09
-1.89832e-08
-1.0992e-05
6.78456e-06
-2.15756e-06
4.24864e-06
-2.78046e-06
3.29362e-06
-2.82592e-06
2.83233e-06
-2.72435e-06
2.50404e-06
-2.51509e-06
2.15014e-06
-2.26941e-06
1.87267e-06
-2.18185e-06
1.69997e-06
-2.03715e-06
1.54916e-06
-1.89094e-06
1.30982e-06
-1.57315e-06
1.06411e-06
-1.41099e-06
7.77808e-07
-1.12148e-06
4.54321e-07
-1.04198e-06
1.54101e-07
-9.82109e-07
2.23834e-08
-7.81734e-07
-1.7169e-08
-5.6598e-07
1.80088e-08
-3.66418e-07
4.62016e-08
-1.79296e-07
3.59625e-08
-9.52829e-08
2.22492e-09
-5.3725e-08
-3.05252e-08
-4.17163e-08
-3.54338e-08
-2.97613e-08
-4.01794e-08
-1.80983e-08
-3.35851e-08
-1.84138e-08
-2.89508e-08
-1.71073e-08
-2.1925e-08
-2.40514e-08
-1.54307e-08
-2.26631e-08
-1.58918e-09
1.44965e-09
1.60497e-08
4.2016e-08
1.78002e-08
4.2686e-08
-1.24954e-08
1.50225e-08
-6.72063e-09
-1.03663e-08
2.08113e-08
-3.8168e-08
1.45247e-09
-1.75162e-08
-1.24646e-05
4.55221e-06
-2.79969e-06
3.37377e-06
-2.65604e-06
2.82547e-06
-2.37283e-06
2.53416e-06
-2.12537e-06
2.33285e-06
-1.89887e-06
2.10123e-06
-1.67975e-06
1.83463e-06
-1.53424e-06
1.65693e-06
-1.45067e-06
1.52448e-06
-1.38249e-06
1.32391e-06
-1.22105e-06
1.08856e-06
-1.0838e-06
8.42958e-07
-9.14469e-07
6.53604e-07
-8.62513e-07
5.16038e-07
-6.00068e-07
3.80623e-07
-5.32168e-07
2.66085e-07
-4.07799e-07
1.73027e-07
-2.75999e-07
9.95633e-08
-2.12129e-07
5.14032e-08
-1.37385e-07
2.29483e-08
-8.60281e-08
5.01239e-09
-4.46759e-08
-2.04073e-08
-2.69459e-08
-2.76214e-08
-2.27806e-08
-3.06798e-08
-1.57632e-08
-2.57024e-08
-1.7409e-08
-2.46773e-08
-1.4865e-08
-2.3207e-08
-1.97373e-08
-2.33824e-09
-6.54238e-09
3.2406e-08
2.83643e-09
4.70621e-08
-1.69127e-08
3.00771e-08
-3.77651e-08
2.6096e-09
1.41044e-08
-3.74772e-08
-7.20805e-06
3.08183e-06
-2.18802e-06
2.45792e-06
-2.00435e-06
2.06254e-06
-1.85205e-06
1.76178e-06
-1.72467e-06
1.58431e-06
-1.60881e-06
1.46768e-06
-1.43858e-06
1.34983e-06
-1.25608e-06
1.26337e-06
-1.14633e-06
1.22662e-06
-1.03076e-06
1.18074e-06
-9.51664e-07
1.05973e-06
-7.87597e-07
9.15835e-07
-7.11987e-07
7.08509e-07
-5.67248e-07
4.80908e-07
-6.27221e-07
3.13063e-07
-5.38525e-07
2.30436e-07
-4.16909e-07
2.00045e-07
-3.07456e-07
1.85635e-07
-1.64328e-07
1.52724e-07
-9.09503e-08
9.41593e-08
-5.46948e-08
3.18331e-08
-4.69249e-08
2.32962e-10
-3.54222e-08
-1.99836e-08
-2.08717e-08
-2.29848e-08
-1.8756e-08
-2.53893e-08
-1.76207e-08
-2.06027e-08
-2.42091e-08
-2.56637e-08
-5.72965e-09
-3.08487e-08
2.05751e-08
-3.34171e-08
3.17654e-08
-4.34505e-08
4.46808e-08
-5.00393e-08
-7.48765e-06
1.74921e-06
-2.42854e-06
1.62493e-06
-2.08209e-06
1.5303e-06
-1.79509e-06
1.36462e-06
-1.55664e-06
1.27323e-06
-1.38215e-06
1.22606e-06
-1.20548e-06
1.18101e-06
-1.04148e-06
1.11106e-06
-9.05277e-07
1.07432e-06
-8.10443e-07
1.04555e-06
-7.38622e-07
9.60266e-07
-6.40114e-07
8.33647e-07
-5.65364e-07
6.99165e-07
-4.87583e-07
5.77468e-07
-4.45027e-07
4.46637e-07
-3.69991e-07
3.36179e-07
-3.57747e-07
2.41141e-07
-2.70731e-07
1.71193e-07
-2.13789e-07
1.10565e-07
-1.57403e-07
6.22614e-08
-1.16792e-07
3.335e-08
-7.16588e-08
4.3372e-09
-4.22278e-08
-7.53055e-09
-2.72892e-08
-2.05067e-08
-1.84353e-08
-2.58213e-08
-1.36028e-08
-2.37845e-08
-2.0769e-08
-1.52485e-08
-3.30729e-08
9.93317e-09
-5.18407e-08
-2.66077e-06
3.30085e-06
-9.08317e-08
2.28551e-06
-7.84434e-07
1.76054e-06
-9.63908e-07
1.40058e-06
-9.82106e-07
1.16266e-06
-9.41831e-07
1.02095e-06
-8.91722e-07
9.21853e-07
-8.15292e-07
8.25695e-07
-7.23951e-07
7.46604e-07
-6.61129e-07
6.95456e-07
-6.01962e-07
6.47305e-07
-5.49026e-07
5.68806e-07
-4.75e-07
4.87226e-07
-4.16021e-07
4.00112e-07
-3.54926e-07
3.35438e-07
-3.41943e-07
2.91553e-07
-2.61468e-07
2.65209e-07
-2.10328e-07
2.28351e-07
-1.4903e-07
1.64426e-07
-1.00774e-07
1.17062e-07
-7.83993e-08
5.18674e-08
-6.4253e-08
1.88774e-08
-4.22971e-08
-8.54716e-10
-2.54363e-08
-1.28894e-08
-2.17159e-08
-4.1296e-09
-5.16331e-06
1.92596e-06
-1.61188e-06
1.40361e-06
-1.85007e-06
1.21409e-06
-1.7666e-06
1.05796e-06
-1.57491e-06
8.90008e-07
-1.38828e-06
7.73333e-07
-1.24289e-06
6.86499e-07
-1.12234e-06
6.14886e-07
-9.90541e-07
5.45102e-07
-8.84129e-07
4.9833e-07
-7.89762e-07
4.63941e-07
-7.11967e-07
4.25819e-07
-6.00633e-07
3.7888e-07
-5.13259e-07
3.35206e-07
-4.23483e-07
2.91773e-07
-3.62621e-07
2.52494e-07
-2.88273e-07
1.98079e-07
-2.39819e-07
1.56371e-07
-2.83526e-07
3.35224e-07
)
;

boundaryField
{
    inlet
    {
        type            extrapolatedCalculated;
        value           nonuniform List<scalar> 
11
(
1.0473e-08
4.79805e-09
4.95926e-09
4.45126e-09
4.50759e-09
4.00453e-09
3.72945e-09
2.76898e-09
2.65992e-09
2.01329e-09
6.45559e-09
)
;
    }
    outlet
    {
        type            extrapolatedCalculated;
        value           nonuniform List<scalar> 0();
    }
    walls
    {
        type            extrapolatedCalculated;
        value           nonuniform List<scalar> 4(-2.82985e-05 -7.80103e-05 2.32175e-05 -6.23721e-05);
    }
    frontAndBack
    {
        type            empty;
    }
    procBoundary6to2
    {
        type            processor;
        value           nonuniform List<scalar> 
13
(
0.000128082
8.60935e-05
4.89463e-05
7.95493e-05
8.35652e-06
2.29919e-05
1.43479e-05
1.256e-05
4.20913e-06
6.89205e-06
3.37666e-06
6.46724e-06
2.14171e-06
)
;
    }
    procBoundary6to3
    {
        type            processor;
        value           uniform 5.37068e-06;
    }
    procBoundary6to5
    {
        type            processor;
        value           nonuniform List<scalar> 
86
(
6.8896e-06
-1.8922e-06
6.56786e-06
-2.34353e-06
7.19409e-06
-2.3497e-06
8.43089e-06
-2.26011e-06
8.14853e-06
-2.16254e-06
7.53252e-06
-2.15556e-06
6.7852e-06
-1.90687e-06
6.15548e-06
-1.74037e-06
6.57215e-06
-1.49913e-06
6.33697e-06
-1.20954e-06
6.06199e-06
-9.62857e-07
5.27711e-06
-1.02745e-06
3.81433e-06
-1.59319e-06
2.59001e-06
-2.22468e-06
1.93577e-07
-4.75545e-09
-1.14242e-06
2.09136e-06
-2.62864e-06
-2.62864e-06
-1.36227e-06
9.20989e-07
-1.05705e-06
7.76156e-07
-8.99299e-07
6.84165e-07
-8.37475e-07
3.4348e-07
-4.28071e-07
1.05234e-07
1.0707e-07
-1.08973e-07
-1.08973e-07
-2.52455e-07
1.8582e-07
-1.72385e-07
1.1252e-07
-1.17471e-07
8.11855e-08
-2.80569e-08
4.23414e-08
-9.5902e-08
-9.5902e-08
-1.08599e-07
-2.55036e-08
3.0214e-08
-5.89528e-08
1.74458e-08
-2.18228e-08
-9.36403e-09
-9.36403e-09
-1.46852e-08
-6.32947e-09
-2.40489e-08
1.33461e-08
-1.64706e-08
1.46565e-08
1.76393e-09
1.76393e-09
2.01462e-09
-4.89541e-09
1.53666e-10
-3.03227e-09
2.63966e-09
-4.16231e-09
1.19824e-08
5.52513e-09
1.02196e-08
1.02196e-08
7.19798e-09
6.26783e-09
5.66542e-09
)
;
    }
    procBoundary6to7
    {
        type            processor;
        value           nonuniform List<scalar> 
91
(
1.2588e-08
1.2588e-08
1.95698e-08
1.95698e-08
2.11647e-08
2.11647e-08
1.41512e-08
9.39434e-09
1.41512e-08
1.54661e-08
-1.22157e-08
9.39434e-09
2.1879e-08
1.54527e-09
-9.87863e-09
-1.22157e-08
2.47313e-09
7.16802e-09
-2.26586e-08
1.54527e-09
8.02199e-09
3.45053e-08
-1.3318e-08
-1.56591e-08
7.16802e-09
1.93706e-08
2.29393e-08
-5.47495e-08
5.40977e-08
-4.67049e-08
3.45053e-08
3.20325e-08
-2.69414e-08
-2.08046e-08
-2.59925e-08
-3.48236e-08
-1.59782e-08
-3.55745e-08
2.29393e-08
-1.39983e-08
-2.98835e-07
8.95122e-08
-1.2384e-07
4.74752e-08
-9.51838e-08
2.9836e-08
-5.62977e-08
1.61036e-08
-4.78751e-08
-2.40343e-09
-4.10989e-08
-2.69414e-08
-1.06695e-08
-1.14137e-06
1.55084e-06
2.61482e-07
1.05243e-06
2.55082e-08
8.48394e-07
-8.9635e-08
6.88863e-07
-1.75409e-07
5.58048e-07
-1.91194e-07
4.80126e-07
-2.06808e-07
4.34879e-07
-2.00475e-07
4.13189e-07
-2.05994e-07
3.89257e-07
-1.96011e-07
3.75466e-07
-2.00463e-07
3.67409e-07
-2.05172e-07
3.5175e-07
-2.01988e-07
3.22121e-07
-2.08713e-07
2.82027e-07
-1.92358e-07
2.19374e-07
-2.12277e-07
1.51976e-07
-2.23501e-07
1.07621e-07
-2.05981e-07
6.92782e-08
-2.98835e-07
-1.64009e-07
)
;
    }
}


// ************************************************************************* //
