/*--------------------------------*- C++ -*----------------------------------*\
| =========                 |                                                 |
| \\      /  F ield         | OpenFOAM: The Open Source CFD Toolbox           |
|  \\    /   O peration     | Version:  2306                                  |
|   \\  /    A nd           | Website:  www.openfoam.com                      |
|    \\/     M anipulation  |                                                 |
\*---------------------------------------------------------------------------*/
FoamFile
{
    version     2.0;
    format      ascii;
    arch        "LSB;label=32;scalar=64";
    class       volScalarField;
    location    "725";
    object      turbulenceProperties:nuEff;
}
// * * * * * * * * * * * * * * * * * * * * * * * * * * * * * * * * * * * * * //

dimensions      [0 2 -1 0 0 0 0];

internalField   nonuniform List<scalar> 
1340
(
0.086923
0.0784902
0.0690336
0.0538415
0.153847
0.148558
0.139902
0.147221
0.20633
0.207588
0.201635
0.212143
0.215352
0.231949
0.239201
0.25573
0.175032
0.217168
0.248057
0.278399
0.0932223
0.160375
0.223978
0.278359
0.0214699
0.0782632
0.166164
0.252337
0.000854794
0.0170839
0.0902827
0.20011
0.000197491
0.00463682
0.0303427
0.133059
1e-05
3.9589e-05
0.00306538
0.073074
1e-05
1e-05
0.00142177
0.0333667
1.00098e-05
1e-05
0.000291683
0.013069
1.23231e-05
1e-05
8.33794e-05
0.00435659
2.03834e-05
1.00117e-05
1.13507e-05
0.0011197
1.927e-05
1.23601e-05
1.00003e-05
8.05386e-05
1.64319e-05
1.96629e-05
1e-05
1.06931e-05
1.52669e-05
2.21164e-05
1.00004e-05
1e-05
1.53068e-05
1.94659e-05
1.16133e-05
1.00005e-05
1.57423e-05
1.69277e-05
1.6853e-05
1.00903e-05
1.60763e-05
1.58754e-05
1.85002e-05
1.16935e-05
1.61947e-05
1.57323e-05
1.75803e-05
1.46055e-05
1.61855e-05
1.58917e-05
1.66181e-05
1.61538e-05
1.61461e-05
1.60442e-05
1.61721e-05
1.64174e-05
1.61195e-05
1.61138e-05
1.60621e-05
1.6286e-05
1.61095e-05
1.61273e-05
1.60741e-05
1.61652e-05
1.61082e-05
1.61215e-05
1.61005e-05
1.61178e-05
1.61092e-05
1.61151e-05
1.61132e-05
1.61109e-05
1.61098e-05
1.61121e-05
1.61153e-05
1.61143e-05
1.61098e-05
1.61112e-05
1.61139e-05
1.61167e-05
1.61096e-05
1.61111e-05
1.61125e-05
1.61168e-05
1.61093e-05
1.61109e-05
1.61117e-05
1.6116e-05
1.61092e-05
1.61108e-05
1.61114e-05
1.61152e-05
1.61091e-05
1.61106e-05
1.61111e-05
1.61146e-05
1.61083e-05
1.6109e-05
1.61104e-05
1.6111e-05
1.61142e-05
1.61084e-05
1.61091e-05
1.61104e-05
1.61108e-05
1.61138e-05
1.61085e-05
1.61091e-05
1.61103e-05
1.61107e-05
1.61135e-05
1.61086e-05
1.61092e-05
1.61103e-05
1.61107e-05
1.61133e-05
1.61087e-05
1.61093e-05
1.61104e-05
1.61107e-05
1.61131e-05
1.61089e-05
1.61094e-05
1.61104e-05
1.61107e-05
1.6113e-05
1.61091e-05
1.61096e-05
1.61105e-05
1.61108e-05
1.6113e-05
1.61093e-05
1.61098e-05
1.61107e-05
1.61109e-05
1.61129e-05
1.61095e-05
1.611e-05
1.61108e-05
1.61111e-05
1.61129e-05
1.61097e-05
1.61101e-05
1.6111e-05
1.61112e-05
1.6113e-05
1.61099e-05
1.61103e-05
1.61111e-05
1.61114e-05
1.61131e-05
1.611e-05
1.61105e-05
1.61113e-05
1.61116e-05
1.61132e-05
1.61097e-05
1.61102e-05
1.61107e-05
1.61114e-05
1.61117e-05
1.61133e-05
1.61098e-05
1.61103e-05
1.61108e-05
1.61116e-05
1.61119e-05
1.61134e-05
1.61099e-05
1.61104e-05
1.61109e-05
1.61117e-05
1.6112e-05
1.61135e-05
1.61099e-05
1.61105e-05
1.6111e-05
1.61117e-05
1.61121e-05
1.61135e-05
1.61099e-05
1.61105e-05
1.6111e-05
1.61118e-05
1.61122e-05
1.61136e-05
1.61098e-05
1.61104e-05
1.6111e-05
1.61117e-05
1.61122e-05
1.61135e-05
1.61097e-05
1.61103e-05
1.61108e-05
1.61116e-05
1.61122e-05
1.61135e-05
1.61094e-05
1.611e-05
1.61107e-05
1.61114e-05
1.6112e-05
1.61133e-05
1.61091e-05
1.61097e-05
1.61104e-05
1.61112e-05
1.61118e-05
1.61131e-05
1.6108e-05
1.61086e-05
1.61093e-05
1.611e-05
1.61108e-05
1.61115e-05
1.61127e-05
1.61074e-05
1.61081e-05
1.61088e-05
1.61095e-05
1.61103e-05
1.61111e-05
1.61123e-05
1.61068e-05
1.61074e-05
1.61081e-05
1.61089e-05
1.61097e-05
1.61105e-05
1.61118e-05
1.61059e-05
1.61066e-05
1.61073e-05
1.61081e-05
1.6109e-05
1.61098e-05
1.61111e-05
1.6105e-05
1.61057e-05
1.61065e-05
1.61072e-05
1.61082e-05
1.6109e-05
1.61103e-05
1.61039e-05
1.61047e-05
1.61054e-05
1.61062e-05
1.61072e-05
1.61081e-05
1.61093e-05
1.61026e-05
1.61034e-05
1.61042e-05
1.6105e-05
1.6106e-05
1.6107e-05
1.61083e-05
1.61001e-05
1.61009e-05
1.61017e-05
1.61026e-05
1.61035e-05
1.61045e-05
1.61056e-05
1.61069e-05
1.60979e-05
1.60987e-05
1.60996e-05
1.61005e-05
1.61015e-05
1.61026e-05
1.61038e-05
1.61052e-05
1.60953e-05
1.60962e-05
1.6097e-05
1.6098e-05
1.6099e-05
1.61002e-05
1.61015e-05
1.6103e-05
1.60927e-05
1.60935e-05
1.60943e-05
1.60953e-05
1.60963e-05
1.60974e-05
1.60987e-05
1.61003e-05
1.609e-05
1.60908e-05
1.60916e-05
1.60924e-05
1.60934e-05
1.60945e-05
1.60957e-05
1.60972e-05
1.60874e-05
1.60881e-05
1.60889e-05
1.60897e-05
1.60906e-05
1.60917e-05
1.60928e-05
1.60942e-05
1.60849e-05
1.60857e-05
1.60864e-05
1.60873e-05
1.60882e-05
1.60893e-05
1.60904e-05
1.60917e-05
1.60817e-05
1.60823e-05
1.60831e-05
1.60839e-05
1.60847e-05
1.60857e-05
1.60867e-05
1.60879e-05
1.60892e-05
1.6079e-05
1.60796e-05
1.60803e-05
1.6081e-05
1.60818e-05
1.60827e-05
1.60837e-05
1.60848e-05
1.60862e-05
1.60763e-05
1.60768e-05
1.60774e-05
1.6078e-05
1.60787e-05
1.60794e-05
1.60803e-05
1.60814e-05
1.60826e-05
1.60735e-05
1.6074e-05
1.60745e-05
1.6075e-05
1.60756e-05
1.60762e-05
1.6077e-05
1.60779e-05
1.6079e-05
1.60712e-05
1.60714e-05
1.60717e-05
1.6072e-05
1.60724e-05
1.60728e-05
1.60734e-05
1.60741e-05
1.6075e-05
1.60714e-05
1.60713e-05
1.60712e-05
1.60711e-05
1.60711e-05
1.60711e-05
1.60713e-05
1.60715e-05
1.6072e-05
1.60742e-05
1.6074e-05
1.60739e-05
1.60737e-05
1.60735e-05
1.60732e-05
1.6073e-05
1.60728e-05
1.60727e-05
1.60775e-05
1.60774e-05
1.60772e-05
1.60769e-05
1.60766e-05
1.60763e-05
1.60759e-05
1.60755e-05
1.60749e-05
1.60817e-05
1.60818e-05
1.60818e-05
1.60819e-05
1.6082e-05
1.6082e-05
1.6082e-05
1.6082e-05
1.60819e-05
1.60849e-05
1.60849e-05
1.60849e-05
1.60847e-05
1.60846e-05
1.60843e-05
1.60841e-05
1.60838e-05
1.60837e-05
1.60836e-05
1.60905e-05
1.60914e-05
1.60924e-05
1.60935e-05
1.60945e-05
1.60956e-05
1.60968e-05
1.60979e-05
1.60994e-05
1.61007e-05
1.61e-05
1.61002e-05
1.61003e-05
1.61004e-05
1.61004e-05
1.61004e-05
1.61004e-05
1.61007e-05
1.61012e-05
1.61016e-05
0.172971
0.215413
0.255595
0.300092
0.326427
0.329411
0.307339
0.258837
0.186572
0.105377
0.0438626
0.0154559
0.00481832
0.00112157
4.40242e-05
1.01706e-05
1e-05
1e-05
1.00093e-05
1.11291e-05
1.41788e-05
1.60964e-05
1.6486e-05
1.63432e-05
1.61908e-05
1.61259e-05
1.61136e-05
1.6117e-05
1.61201e-05
1.61204e-05
1.61194e-05
1.61183e-05
1.61174e-05
1.61168e-05
1.61162e-05
1.61157e-05
1.61153e-05
1.61149e-05
1.61146e-05
1.61144e-05
1.61142e-05
1.61141e-05
1.6114e-05
1.61139e-05
1.61139e-05
1.61139e-05
1.61139e-05
1.61139e-05
1.61139e-05
1.61139e-05
1.61138e-05
1.61138e-05
1.61137e-05
1.61135e-05
1.61132e-05
1.61128e-05
1.61123e-05
1.61117e-05
1.61109e-05
1.611e-05
1.61089e-05
1.61076e-05
1.6106e-05
1.61038e-05
1.61011e-05
1.6098e-05
1.60949e-05
1.60924e-05
1.60899e-05
1.60868e-05
1.60832e-05
1.60795e-05
1.60755e-05
1.60721e-05
1.60726e-05
1.60748e-05
1.60818e-05
1.60835e-05
1.61016e-05
1.61018e-05
0.214007
0.258746
0.288645
0.317027
0.345774
0.357748
0.345396
0.305908
0.239469
0.153063
0.0689601
0.0208385
0.00565749
0.00140772
9.74837e-05
1.10649e-05
1e-05
1e-05
1.00022e-05
1.08366e-05
1.38941e-05
1.60265e-05
1.65118e-05
1.63754e-05
1.6207e-05
1.61309e-05
1.61147e-05
1.61176e-05
1.6121e-05
1.61214e-05
1.61203e-05
1.6119e-05
1.6118e-05
1.61173e-05
1.61167e-05
1.61162e-05
1.61158e-05
1.61154e-05
1.61151e-05
1.61149e-05
1.61147e-05
1.61145e-05
1.61144e-05
1.61143e-05
1.61143e-05
1.61143e-05
1.61143e-05
1.61143e-05
1.61143e-05
1.61142e-05
1.61142e-05
1.61142e-05
1.61141e-05
1.61139e-05
1.61137e-05
1.61133e-05
1.61128e-05
1.61122e-05
1.61114e-05
1.61105e-05
1.61094e-05
1.61082e-05
1.61065e-05
1.61043e-05
1.61016e-05
1.60985e-05
1.60954e-05
1.60928e-05
1.60903e-05
1.60873e-05
1.60836e-05
1.60799e-05
1.60757e-05
1.60723e-05
1.60725e-05
1.60747e-05
1.60817e-05
1.60834e-05
1.61021e-05
0.217832
0.269179
0.30381
0.326783
0.347912
0.366385
0.368542
0.346296
0.296155
0.219077
0.12485
0.0439016
0.0072203
0.000817272
0.000188934
1e-05
1e-05
1e-05
1e-05
1.04202e-05
1.32897e-05
1.58742e-05
1.65531e-05
1.64244e-05
1.62313e-05
1.61381e-05
1.61151e-05
1.61168e-05
1.61209e-05
1.61219e-05
1.61209e-05
1.61196e-05
1.61186e-05
1.61178e-05
1.61173e-05
1.61168e-05
1.61163e-05
1.61159e-05
1.61156e-05
1.61154e-05
1.61152e-05
1.6115e-05
1.61149e-05
1.61148e-05
1.61148e-05
1.61148e-05
1.61148e-05
1.61148e-05
1.61147e-05
1.61147e-05
1.61147e-05
1.61147e-05
1.61146e-05
1.61145e-05
1.61142e-05
1.61138e-05
1.61134e-05
1.61127e-05
1.6112e-05
1.61111e-05
1.611e-05
1.61087e-05
1.61071e-05
1.61049e-05
1.61022e-05
1.60991e-05
1.60959e-05
1.60933e-05
1.60908e-05
1.60877e-05
1.6084e-05
1.60802e-05
1.6076e-05
1.60724e-05
1.60725e-05
1.60747e-05
1.60816e-05
1.60834e-05
0.202681
0.258544
0.300421
0.328244
0.346529
0.362713
0.37481
0.371364
0.344267
0.289391
0.20742
0.110584
0.0326231
0.000732415
0.000164968
1e-05
1e-05
1e-05
1.00003e-05
1.01512e-05
1.23361e-05
1.53624e-05
1.65358e-05
1.65154e-05
1.62801e-05
1.61501e-05
1.61152e-05
1.61155e-05
1.61204e-05
1.61223e-05
1.61217e-05
1.61204e-05
1.61193e-05
1.61185e-05
1.61179e-05
1.61174e-05
1.6117e-05
1.61166e-05
1.61163e-05
1.6116e-05
1.61158e-05
1.61156e-05
1.61155e-05
1.61154e-05
1.61154e-05
1.61153e-05
1.61153e-05
1.61153e-05
1.61153e-05
1.61153e-05
1.61153e-05
1.61153e-05
1.61152e-05
1.61151e-05
1.61148e-05
1.61144e-05
1.6114e-05
1.61133e-05
1.61126e-05
1.61117e-05
1.61106e-05
1.61093e-05
1.61077e-05
1.61055e-05
1.61028e-05
1.60996e-05
1.60965e-05
1.60938e-05
1.60913e-05
1.60881e-05
1.60844e-05
1.60805e-05
1.60764e-05
1.60725e-05
1.60724e-05
1.60747e-05
1.60814e-05
0.172732
0.232725
0.281673
0.317727
0.341534
0.356932
0.369876
0.378306
0.37211
0.343202
0.286812
0.203247
0.106173
0.0281645
0.00724036
1e-05
1e-05
1e-05
1e-05
1e-05
1.09951e-05
1.47831e-05
1.65154e-05
1.65922e-05
1.63588e-05
1.61837e-05
1.61173e-05
1.61121e-05
1.61192e-05
1.61225e-05
1.61224e-05
1.61213e-05
1.61201e-05
1.61193e-05
1.61187e-05
1.61182e-05
1.61177e-05
1.61173e-05
1.61169e-05
1.61167e-05
1.61164e-05
1.61163e-05
1.61161e-05
1.6116e-05
1.6116e-05
1.6116e-05
1.6116e-05
1.61159e-05
1.61159e-05
1.61159e-05
1.61159e-05
1.61159e-05
1.61158e-05
1.61157e-05
1.61154e-05
1.61151e-05
1.61146e-05
1.6114e-05
1.61132e-05
1.61123e-05
1.61112e-05
1.611e-05
1.61084e-05
1.61062e-05
1.61035e-05
1.61002e-05
1.6097e-05
1.60943e-05
1.60918e-05
1.60886e-05
1.60849e-05
1.60809e-05
1.60767e-05
1.60727e-05
1.60724e-05
1.60746e-05
0.130231
0.193702
0.249331
0.294166
0.327083
0.348807
0.362595
0.373404
0.379793
0.372528
0.343482
0.287306
0.204084
0.106405
0.0297805
0.00773576
1.00334e-05
1e-05
1e-05
1e-05
1e-05
1.19266e-05
1.64537e-05
1.70021e-05
1.64541e-05
1.62172e-05
1.61362e-05
1.61117e-05
1.61155e-05
1.61225e-05
1.61237e-05
1.61223e-05
1.6121e-05
1.61201e-05
1.61195e-05
1.61189e-05
1.61185e-05
1.6118e-05
1.61177e-05
1.61174e-05
1.61171e-05
1.61169e-05
1.61168e-05
1.61167e-05
1.61166e-05
1.61166e-05
1.61166e-05
1.61166e-05
1.61166e-05
1.61165e-05
1.61165e-05
1.61165e-05
1.61165e-05
1.61163e-05
1.61161e-05
1.61157e-05
1.61153e-05
1.61146e-05
1.61139e-05
1.6113e-05
1.61119e-05
1.61106e-05
1.6109e-05
1.61069e-05
1.61041e-05
1.61009e-05
1.60976e-05
1.60949e-05
1.60923e-05
1.60891e-05
1.60854e-05
1.60813e-05
1.60771e-05
1.60729e-05
0.0789031
0.142601
0.203893
0.257091
0.299958
0.331578
0.352549
0.365604
0.374972
0.3803
0.373013
0.344891
0.290118
0.208003
0.111275
0.0348941
0.00042986
0.00012277
1e-05
1e-05
1e-05
1.00092e-05
1.24385e-05
1.75928e-05
1.7263e-05
1.62946e-05
1.60979e-05
1.61148e-05
1.61168e-05
1.61174e-05
1.61224e-05
1.61239e-05
1.61224e-05
1.6121e-05
1.61203e-05
1.61198e-05
1.61193e-05
1.61189e-05
1.61185e-05
1.61181e-05
1.61179e-05
1.61177e-05
1.61175e-05
1.61174e-05
1.61173e-05
1.61173e-05
1.61173e-05
1.61173e-05
1.61173e-05
1.61172e-05
1.61172e-05
1.61172e-05
1.61172e-05
1.6117e-05
1.61168e-05
1.61164e-05
1.6116e-05
1.61154e-05
1.61146e-05
1.61137e-05
1.61126e-05
1.61114e-05
1.61097e-05
1.61076e-05
1.61049e-05
1.61016e-05
1.60982e-05
1.60955e-05
1.60929e-05
1.60897e-05
1.60859e-05
1.60817e-05
0.0300099
0.0828724
0.145802
0.206056
0.25849
0.301003
0.332671
0.35388
0.36687
0.375291
0.380196
0.373586
0.347122
0.294505
0.214338
0.119936
0.0402689
0.00135758
0.000414914
1e-05
1e-05
1e-05
1.00077e-05
1.1932e-05
1.80008e-05
1.75888e-05
1.62157e-05
1.60017e-05
1.61121e-05
1.61392e-05
1.6125e-05
1.61212e-05
1.61227e-05
1.61225e-05
1.61214e-05
1.61207e-05
1.61202e-05
1.61197e-05
1.61193e-05
1.61189e-05
1.61187e-05
1.61184e-05
1.61183e-05
1.61181e-05
1.61181e-05
1.6118e-05
1.6118e-05
1.6118e-05
1.6118e-05
1.61179e-05
1.61179e-05
1.61179e-05
1.61179e-05
1.61177e-05
1.61175e-05
1.61172e-05
1.61167e-05
1.61161e-05
1.61153e-05
1.61144e-05
1.61134e-05
1.61121e-05
1.61105e-05
1.61084e-05
1.61056e-05
1.61023e-05
1.60989e-05
1.60961e-05
1.60935e-05
0.00323446
0.0283196
0.0794107
0.141512
0.201854
0.254868
0.298276
0.331043
0.353288
0.366766
0.37462
0.379513
0.374055
0.349792
0.299902
0.222854
0.129807
0.0472458
0.00387035
0.00109365
1e-05
1e-05
1e-05
1.00034e-05
1.08086e-05
1.75697e-05
1.80854e-05
1.62474e-05
1.58606e-05
1.60531e-05
1.61479e-05
1.61372e-05
1.61232e-05
1.61219e-05
1.61224e-05
1.61218e-05
1.61211e-05
1.61206e-05
1.61202e-05
1.61198e-05
1.61195e-05
1.61192e-05
1.6119e-05
1.61189e-05
1.61188e-05
1.61188e-05
1.61187e-05
1.61187e-05
1.61187e-05
1.61187e-05
1.61187e-05
1.61186e-05
1.61186e-05
1.61185e-05
1.61183e-05
1.6118e-05
1.61175e-05
1.61169e-05
1.61161e-05
1.61152e-05
1.61141e-05
1.61129e-05
1.61113e-05
1.61092e-05
1.61064e-05
1.61031e-05
0.000434286
0.00169679
0.0227708
0.0700398
0.130997
0.192195
0.246857
0.292196
0.326949
0.350951
0.365512
0.373526
0.378496
0.37436
0.352608
0.306014
0.232453
0.14071
0.0557668
0.007775
0.00212183
1e-05
1e-05
1e-05
1.00005e-05
1.00894e-05
1.61937e-05
1.90256e-05
1.67994e-05
1.58998e-05
1.59913e-05
1.6131e-05
1.61422e-05
1.6126e-05
1.61219e-05
1.61224e-05
1.61222e-05
1.61216e-05
1.61211e-05
1.61207e-05
1.61204e-05
1.61201e-05
1.61199e-05
1.61197e-05
1.61196e-05
1.61196e-05
1.61195e-05
1.61195e-05
1.61195e-05
1.61195e-05
1.61194e-05
1.61194e-05
1.61194e-05
1.61193e-05
1.61191e-05
1.61188e-05
1.61183e-05
1.61177e-05
1.6117e-05
1.6116e-05
1.6115e-05
1.61137e-05
1e-05
0.000348962
0.00140071
0.016713
0.0570264
0.115599
0.177708
0.234742
0.282879
0.32044
0.34696
0.363391
0.372525
0.377536
0.374654
0.355509
0.312495
0.242428
0.152328
0.065519
0.0128849
0.00346324
1e-05
1e-05
1e-05
1e-05
1e-05
1.30042e-05
1.84559e-05
1.72166e-05
1.60485e-05
1.59758e-05
1.61132e-05
1.61427e-05
1.61286e-05
1.61229e-05
1.6123e-05
1.61228e-05
1.61222e-05
1.61217e-05
1.61213e-05
1.6121e-05
1.61208e-05
1.61206e-05
1.61205e-05
1.61204e-05
1.61203e-05
1.61203e-05
1.61203e-05
1.61203e-05
1.61203e-05
1.61202e-05
1.61202e-05
1.61201e-05
1.61199e-05
1.61196e-05
1.61192e-05
1e-05
1e-05
2.84639e-05
0.000180723
0.0103786
0.0427597
0.0968082
0.159076
0.218728
0.270323
0.311461
0.341286
0.360395
0.371126
0.376374
0.374787
0.358336
0.318979
0.252526
0.164411
0.0762033
0.0194158
0.00511774
1.00974e-05
1e-05
1e-05
1e-05
1.00079e-05
1.19061e-05
1.75915e-05
1.73998e-05
1.61606e-05
1.59661e-05
1.60956e-05
1.61401e-05
1.61287e-05
1.61224e-05
1.61233e-05
1.61236e-05
1.6123e-05
1.61224e-05
1.6122e-05
1.61217e-05
1.61215e-05
1.61214e-05
1.61213e-05
1.61212e-05
1.61212e-05
1.61212e-05
1.61212e-05
1e-05
1e-05
1e-05
1e-05
0.00122832
0.00476838
0.0288206
0.0763278
0.137223
0.199177
0.254613
0.299959
0.333774
0.356189
0.368988
0.374745
0.374534
0.360837
0.325211
0.262523
0.17668
0.0878137
0.0254026
0.00052135
0.000171826
1e-05
1e-05
1e-05
1.00041e-05
1.09839e-05
1.68822e-05
1.7641e-05
1.62915e-05
1.59604e-05
1.60866e-05
1.6148e-05
1.61345e-05
1.6123e-05
)
;

boundaryField
{
    inlet
    {
        type            calculated;
        value           nonuniform List<scalar> 
11
(
1.61e-05
1.61002e-05
1.61003e-05
1.61004e-05
1.61004e-05
1.61004e-05
1.61004e-05
1.61007e-05
1.61012e-05
1.61016e-05
1.61018e-05
)
;
    }
    outlet
    {
        type            calculated;
        value           nonuniform List<scalar> 0();
    }
    walls
    {
        type            calculated;
        value           nonuniform List<scalar> 4(0.00177418 0.00157477 0.00135098 0.000597974);
    }
    frontAndBack
    {
        type            empty;
    }
    procBoundary6to2
    {
        type            processor;
        value           nonuniform List<scalar> 
13
(
0.126629
0.1499
0.15125
0.135173
0.104396
0.0648521
0.0257813
0.00296184
0.000817038
1e-05
1e-05
1.00113e-05
1.32961e-05
)
;
    }
    procBoundary6to3
    {
        type            processor;
        value           uniform 1.57363e-05;
    }
    procBoundary6to5
    {
        type            processor;
        value           nonuniform List<scalar> 
86
(
0.0928027
0.159348
0.20345
0.193217
0.124087
0.0380296
0.00164176
0.000405053
1e-05
1e-05
1.00155e-05
1.3918e-05
1.84827e-05
1.66678e-05
1.56355e-05
1.58127e-05
1.61901e-05
1.63113e-05
1.62444e-05
1.61523e-05
1.6104e-05
1.60944e-05
1.61003e-05
1.61068e-05
1.61098e-05
1.61102e-05
1.61096e-05
1.6109e-05
1.61086e-05
1.61084e-05
1.61083e-05
1.61083e-05
1.61083e-05
1.61083e-05
1.61076e-05
1.61077e-05
1.61078e-05
1.6108e-05
1.61082e-05
1.61084e-05
1.61086e-05
1.61088e-05
1.6109e-05
1.61092e-05
1.61094e-05
1.61096e-05
1.61096e-05
1.61093e-05
1.61094e-05
1.61095e-05
1.61095e-05
1.61094e-05
1.61093e-05
1.61091e-05
1.61089e-05
1.61085e-05
1.61085e-05
1.61075e-05
1.61068e-05
1.61061e-05
1.61053e-05
1.61044e-05
1.61032e-05
1.61019e-05
1.61019e-05
1.60993e-05
1.60971e-05
1.60946e-05
1.6092e-05
1.60893e-05
1.60867e-05
1.60842e-05
1.60842e-05
1.6081e-05
1.60784e-05
1.60758e-05
1.60732e-05
1.6071e-05
1.60715e-05
1.60743e-05
1.60776e-05
1.60816e-05
1.60816e-05
1.60846e-05
1.60898e-05
1.60997e-05
)
;
    }
    procBoundary6to7
    {
        type            processor;
        value           nonuniform List<scalar> 
91
(
1.6102e-05
1.6102e-05
1.61027e-05
1.61027e-05
1.60833e-05
1.60833e-05
1.60813e-05
1.60723e-05
1.60813e-05
1.60746e-05
1.60774e-05
1.60723e-05
1.60731e-05
1.60902e-05
1.60864e-05
1.60774e-05
1.60822e-05
1.60996e-05
1.60967e-05
1.60902e-05
1.60941e-05
1.61121e-05
1.611e-05
1.61073e-05
1.60996e-05
1.61039e-05
1.61186e-05
1.61178e-05
1.61169e-05
1.61158e-05
1.61121e-05
1.61146e-05
1.61211e-05
1.61211e-05
1.61211e-05
1.6121e-05
1.61208e-05
1.61205e-05
1.61186e-05
1.61201e-05
1.61227e-05
1.61235e-05
1.61233e-05
1.6123e-05
1.61228e-05
1.61225e-05
1.61223e-05
1.61222e-05
1.61221e-05
1.61221e-05
1.61221e-05
1.61211e-05
1.61221e-05
1.0003e-05
1e-05
1e-05
1e-05
0.000156151
0.000477209
0.0161229
0.0552029
0.112672
0.176096
0.235519
0.285627
0.324084
0.350424
0.365822
0.372627
0.373759
0.362762
0.330907
0.27212
0.189015
0.0998213
0.0333382
0.00209375
0.000584217
1e-05
1e-05
1e-05
1.00017e-05
1.0408e-05
1.62221e-05
1.80217e-05
1.64551e-05
1.59049e-05
1.6032e-05
1.61413e-05
1.61227e-05
1.61418e-05
)
;
    }
}


// ************************************************************************* //
