/*--------------------------------*- C++ -*----------------------------------*\
| =========                 |                                                 |
| \\      /  F ield         | OpenFOAM: The Open Source CFD Toolbox           |
|  \\    /   O peration     | Version:  2306                                  |
|   \\  /    A nd           | Website:  www.openfoam.com                      |
|    \\/     M anipulation  |                                                 |
\*---------------------------------------------------------------------------*/
FoamFile
{
    version     2.0;
    format      ascii;
    arch        "LSB;label=32;scalar=64";
    class       volScalarField;
    location    "725";
    object      turbulenceProperties:epsilon;
}
// * * * * * * * * * * * * * * * * * * * * * * * * * * * * * * * * * * * * * //

dimensions      [0 2 -3 0 0 0 0];

internalField   nonuniform List<scalar> 
1340
(
334.407
232.45
147.195
25.8514
26.5018
21.7493
17.6577
22.3829
31.968
23.9942
16.9514
20.4198
32.394
26.598
19.7608
21.4013
16.8959
21.0063
19.76
21.7929
1.65565
7.5137
13.9847
19.8546
0.033304
0.415557
4.8994
14.1002
0.00375542
0.0288443
0.464333
6.38404
0.000186242
0.0103154
0.0254757
1.52308
0
1.69621e-05
0.00392183
0.191683
0
0
0.000844993
0.0275622
2.68641e-09
0
0.000103832
0.00834683
1.12015e-06
1.21508e-13
3.11935e-05
0.00278939
4.99146e-06
2.81458e-09
5.68096e-07
0.000699427
4.21784e-06
9.54956e-07
4.73083e-11
4.35088e-05
2.76081e-06
3.87464e-06
4.99327e-12
3.55195e-07
2.1205e-06
4.56698e-06
4.35444e-11
6.44936e-18
2.00536e-06
3.35713e-06
4.75263e-07
8.2231e-11
2.03175e-06
2.284e-06
2.01817e-06
2.25396e-08
2.00293e-06
1.78758e-06
2.30653e-06
4.99876e-07
1.89224e-06
1.60571e-06
1.87867e-06
1.25159e-06
1.74224e-06
1.51425e-06
1.48894e-06
1.45876e-06
1.58847e-06
1.41843e-06
1.25603e-06
1.31563e-06
1.44399e-06
1.30297e-06
1.11226e-06
1.11365e-06
1.30974e-06
1.17961e-06
1.00079e-06
9.44105e-07
1.18338e-06
1.05901e-06
8.98447e-07
8.10075e-07
1.06391e-06
9.45957e-07
8.01051e-07
6.99821e-07
9.51341e-07
8.41209e-07
7.09793e-07
6.05782e-07
8.45782e-07
7.44461e-07
6.25621e-07
5.24142e-07
7.47772e-07
6.55649e-07
5.49044e-07
4.53145e-07
6.57517e-07
5.74593e-07
4.79686e-07
3.91346e-07
5.74873e-07
5.01131e-07
4.17432e-07
3.37537e-07
4.99873e-07
4.34854e-07
3.61732e-07
2.90762e-07
4.86461e-07
4.32298e-07
3.75589e-07
3.12162e-07
2.50034e-07
4.18013e-07
3.7184e-07
3.22907e-07
2.68377e-07
2.14614e-07
3.57173e-07
3.18189e-07
2.76338e-07
2.29871e-07
1.83853e-07
3.03535e-07
2.70888e-07
2.35433e-07
1.96169e-07
1.57158e-07
2.56613e-07
2.29491e-07
1.99729e-07
1.66818e-07
1.34036e-07
2.15855e-07
1.9351e-07
1.68748e-07
1.41389e-07
1.14048e-07
1.80707e-07
1.62437e-07
1.42001e-07
1.19444e-07
9.68081e-08
1.50607e-07
1.35779e-07
1.19047e-07
1.00586e-07
8.19699e-08
1.24996e-07
1.13042e-07
9.94478e-08
8.44495e-08
6.92318e-08
1.03336e-07
9.37609e-08
8.27938e-08
7.06921e-08
5.83274e-08
8.51247e-08
7.75031e-08
6.87096e-08
5.90123e-08
4.90134e-08
6.98932e-08
6.38618e-08
5.68547e-08
4.91297e-08
4.10849e-08
6.12333e-08
5.72198e-08
5.2468e-08
4.69161e-08
4.07963e-08
3.43545e-08
4.98563e-08
4.67228e-08
4.29968e-08
3.86186e-08
3.3795e-08
2.86575e-08
4.0503e-08
3.80632e-08
3.51535e-08
3.17164e-08
2.79324e-08
2.38501e-08
3.28421e-08
3.09478e-08
2.86828e-08
2.59944e-08
2.30377e-08
1.98052e-08
2.65883e-08
2.512e-08
2.33619e-08
2.12667e-08
1.89637e-08
1.64125e-08
2.14982e-08
2.03621e-08
1.90001e-08
1.73709e-08
1.55826e-08
1.35747e-08
1.73653e-08
1.64872e-08
1.5434e-08
1.417e-08
1.27842e-08
1.12075e-08
1.40173e-08
1.33387e-08
1.2525e-08
1.15458e-08
1.04738e-08
9.23845e-09
1.13099e-08
1.07853e-08
1.01571e-08
9.39931e-09
8.57076e-09
7.60457e-09
9.45357e-09
9.12346e-09
8.71796e-09
8.23272e-09
7.64658e-09
7.00652e-09
6.25201e-09
7.6165e-09
7.35995e-09
7.04598e-09
6.67112e-09
6.21776e-09
5.72321e-09
5.13471e-09
6.13871e-09
5.93894e-09
5.69546e-09
5.40542e-09
5.05451e-09
4.67214e-09
4.21353e-09
4.95077e-09
4.79474e-09
4.60544e-09
4.38063e-09
4.1086e-09
3.81258e-09
3.45544e-09
3.9961e-09
3.87382e-09
3.72621e-09
3.55151e-09
3.34033e-09
3.11067e-09
2.83254e-09
3.22833e-09
3.13229e-09
3.01694e-09
2.88089e-09
2.7166e-09
2.53803e-09
2.32144e-09
2.60937e-09
2.53399e-09
2.44387e-09
2.3379e-09
2.21004e-09
2.071e-09
1.90245e-09
2.15752e-09
2.10849e-09
2.04954e-09
1.97934e-09
1.897e-09
1.79768e-09
1.68949e-09
1.5587e-09
1.74114e-09
1.70253e-09
1.65645e-09
1.60185e-09
1.538e-09
1.46107e-09
1.37709e-09
1.27609e-09
1.40484e-09
1.37414e-09
1.33786e-09
1.29519e-09
1.24556e-09
1.18596e-09
1.12081e-09
1.04307e-09
1.13491e-09
1.11008e-09
1.08108e-09
1.04735e-09
1.00844e-09
9.61985e-10
9.11286e-10
8.51529e-10
9.17856e-10
8.97344e-10
8.73715e-10
8.46597e-10
8.15613e-10
7.78911e-10
7.38997e-10
6.92678e-10
7.49909e-10
7.33042e-10
7.13726e-10
6.9171e-10
6.66714e-10
6.37115e-10
6.05022e-10
5.68111e-10
6.28134e-10
6.13951e-10
5.97875e-10
5.79686e-10
5.59055e-10
5.34534e-10
5.07977e-10
4.79122e-10
5.42714e-10
5.32002e-10
5.18977e-10
5.04633e-10
4.88871e-10
4.71233e-10
4.50548e-10
4.27851e-10
4.04275e-10
4.6313e-10
4.53374e-10
4.41513e-10
4.28518e-10
4.14403e-10
3.98784e-10
3.80838e-10
3.61641e-10
3.43553e-10
3.86499e-10
3.77328e-10
3.66514e-10
3.54812e-10
3.42279e-10
3.28562e-10
3.12819e-10
2.95224e-10
2.77309e-10
3.29721e-10
3.22014e-10
3.12795e-10
3.0263e-10
2.91605e-10
2.7962e-10
2.66352e-10
2.53077e-10
2.43124e-10
2.57726e-10
2.5013e-10
2.41675e-10
2.32771e-10
2.2344e-10
2.13284e-10
2.01375e-10
1.86905e-10
1.71309e-10
2.36578e-10
2.30537e-10
2.23334e-10
2.15309e-10
2.06713e-10
1.97806e-10
1.89085e-10
1.827e-10
1.82287e-10
1.54789e-10
1.49186e-10
1.43188e-10
1.36866e-10
1.30145e-10
1.22498e-10
1.12612e-10
9.97735e-11
8.53077e-11
2.03878e-10
1.99943e-10
1.94926e-10
1.88854e-10
1.82409e-10
1.76534e-10
1.73869e-10
1.78633e-10
1.91025e-10
1.23618e-10
1.23235e-10
1.2147e-10
1.18332e-10
1.14048e-10
1.08356e-10
1.00809e-10
9.65871e-11
8.90908e-11
3.68954e-10
3.52241e-10
3.52565e-10
3.52699e-10
3.51867e-10
3.5085e-10
3.51935e-10
3.65408e-10
3.99316e-10
4.17232e-10
4.24561e-10
4.19502e-10
4.24492e-10
4.30662e-10
4.35956e-10
4.40736e-10
4.47542e-10
4.7057e-10
5.10621e-10
5.08365e-10
1.2158e-09
8.67705e-10
8.92599e-10
9.14097e-10
9.26893e-10
9.41772e-10
9.61936e-10
1.00238e-09
1.03843e-09
7.59404e-10
59.8361
10.1208
1.69097
12.1379
19.8989
21.7489
18.5403
11.4702
4.19119
0.674402
0.0458722
0.00526193
0.00188347
0.000524433
1.82082e-05
5.91358e-08
0
1.38649e-12
1.2927e-09
2.37523e-07
8.34354e-07
1.06387e-06
9.76167e-07
8.22179e-07
6.91402e-07
5.90441e-07
5.08992e-07
4.40313e-07
3.81006e-07
3.29642e-07
2.85165e-07
2.46654e-07
2.13332e-07
1.8441e-07
1.59277e-07
1.37444e-07
1.18444e-07
1.01913e-07
8.75371e-08
7.50425e-08
6.41898e-08
5.4778e-08
4.66393e-08
3.96039e-08
3.35449e-08
2.83402e-08
2.38803e-08
2.00708e-08
1.68268e-08
1.40734e-08
1.17439e-08
9.77855e-09
8.1261e-09
6.74055e-09
5.58206e-09
4.61602e-09
3.8124e-09
3.14543e-09
2.59298e-09
2.13629e-09
1.75932e-09
1.44816e-09
1.19101e-09
9.77769e-10
8.01663e-10
6.54454e-10
5.37797e-10
4.55613e-10
3.83487e-10
3.29962e-10
2.60488e-10
2.38746e-10
1.54319e-10
1.89539e-10
6.7261e-11
2.10678e-10
7.13042e-11
4.16372e-10
4.38843e-10
6.68172e-10
25.327
18.7488
3.86914
1.09078
6.21422
10.9724
12.0374
9.34229
4.62124
1.05928
0.0621141
0.00108791
0.000252046
0.000132165
1.1217e-05
1.3158e-07
0
9.33058e-14
9.09556e-11
6.45032e-08
3.1267e-07
4.49931e-07
4.41994e-07
3.90589e-07
3.42142e-07
3.0335e-07
2.70899e-07
2.42191e-07
2.16167e-07
1.92587e-07
1.71309e-07
1.52169e-07
1.35005e-07
1.19587e-07
1.0574e-07
9.33284e-08
8.21912e-08
7.22173e-08
6.32954e-08
5.53263e-08
4.82195e-08
4.18972e-08
3.62949e-08
3.13342e-08
2.69635e-08
2.31264e-08
1.97681e-08
1.68412e-08
1.43011e-08
1.21055e-08
1.02161e-08
8.59617e-09
7.21335e-09
6.03753e-09
5.04143e-09
4.20064e-09
3.49338e-09
2.9003e-09
2.40437e-09
1.99086e-09
1.64686e-09
1.36092e-09
1.12321e-09
9.25011e-10
7.60555e-10
6.22555e-10
5.12166e-10
4.34022e-10
3.64306e-10
3.15e-10
2.46916e-10
2.29041e-10
1.45016e-10
1.83102e-10
6.17773e-11
2.0294e-10
6.63521e-11
3.95911e-10
4.13774e-10
10.5451
12.4273
7.09197
1.27722
0.683319
4.01619
7.22765
7.8199
5.60813
2.30635
0.354922
0.00849475
9.46614e-05
1.82871e-05
8.61415e-06
0
0
1.54508e-16
1.4536e-13
1.05899e-08
9.56231e-08
1.67289e-07
1.77786e-07
1.64927e-07
1.51022e-07
1.40137e-07
1.31148e-07
1.22841e-07
1.14671e-07
1.06574e-07
9.85985e-08
9.08165e-08
8.33025e-08
7.60756e-08
6.91694e-08
6.2622e-08
5.64434e-08
5.06605e-08
4.52735e-08
4.02874e-08
3.56963e-08
3.14952e-08
2.76757e-08
2.42138e-08
2.10996e-08
1.83127e-08
1.583e-08
1.36311e-08
1.16934e-08
9.99478e-09
8.51359e-09
7.22762e-09
6.11704e-09
5.16197e-09
4.3443e-09
3.64718e-09
3.05509e-09
2.55407e-09
2.13144e-09
1.7761e-09
1.47815e-09
1.2286e-09
1.01973e-09
8.44353e-10
6.97817e-10
5.74129e-10
4.74097e-10
4.03243e-10
3.38481e-10
2.94956e-10
2.30451e-10
2.16251e-10
1.35769e-10
1.73953e-10
5.88753e-11
1.93009e-10
6.5609e-11
3.79222e-10
4.87443
7.10067
6.49699
3.27552
0.479248
0.458696
2.65812
4.83853
5.24432
3.63615
1.36109
0.177948
0.00356734
7.5825e-06
3.63309e-06
0
0
0
2.80006e-12
2.44436e-09
4.68209e-08
1.0505e-07
1.19763e-07
1.11014e-07
9.96492e-08
9.11243e-08
8.47723e-08
7.93843e-08
7.43802e-08
6.95917e-08
6.4961e-08
6.04716e-08
5.61237e-08
5.18998e-08
4.78009e-08
4.38394e-08
4.00264e-08
3.63822e-08
3.29159e-08
2.96422e-08
2.65695e-08
2.37065e-08
2.10568e-08
1.86167e-08
1.63879e-08
1.43636e-08
1.25354e-08
1.08953e-08
9.43167e-09
8.13333e-09
6.9883e-09
5.983e-09
5.10572e-09
4.34342e-09
3.68427e-09
3.11693e-09
2.63052e-09
2.2152e-09
1.8618e-09
1.56209e-09
1.30873e-09
1.09484e-09
9.14502e-10
7.61943e-10
6.33441e-10
5.24258e-10
4.34904e-10
3.72001e-10
3.12794e-10
2.74951e-10
2.14273e-10
2.0349e-10
1.26916e-10
1.65039e-10
5.6317e-11
1.84169e-10
6.45078e-11
2.10813
3.79822
4.61315
3.78949
1.81202
0.244837
0.295078
1.72418
3.21739
3.54545
2.44532
0.892042
0.115751
0.00238321
4.54767e-05
0
0
0
1.30495e-17
1.16774e-14
1.21996e-08
6.35469e-08
8.29768e-08
7.88967e-08
7.1237e-08
6.47909e-08
5.99323e-08
5.59607e-08
5.23281e-08
4.88689e-08
4.55647e-08
4.24174e-08
3.94205e-08
3.65579e-08
3.38158e-08
3.11864e-08
2.86671e-08
2.62597e-08
2.39623e-08
2.17786e-08
1.97122e-08
1.77664e-08
1.59439e-08
1.42447e-08
1.26718e-08
1.1223e-08
9.89664e-09
8.69049e-09
7.59906e-09
6.61776e-09
5.74099e-09
4.96143e-09
4.27255e-09
3.66674e-09
3.13691e-09
2.67574e-09
2.27614e-09
1.93141e-09
1.63521e-09
1.38162e-09
1.1653e-09
9.81142e-10
8.24639e-10
6.91255e-10
5.77974e-10
4.81115e-10
4.00832e-10
3.44664e-10
2.90227e-10
2.57139e-10
1.99808e-10
1.9195e-10
1.18759e-10
1.57146e-10
5.35812e-11
1.77204e-10
0.696316
1.75327
2.76869
3.10408
2.45014
1.1684
0.164102
0.173456
1.11955
2.18764
2.48629
1.75034
0.660077
0.093802
0.00259233
3.74052e-05
1.35755e-10
0
0
5.05346e-17
3.00728e-14
1.29436e-08
4.55288e-08
4.76485e-08
4.18696e-08
3.84633e-08
3.62242e-08
3.43853e-08
3.27334e-08
3.11159e-08
2.94808e-08
2.78453e-08
2.62275e-08
2.46334e-08
2.30633e-08
2.15199e-08
2.00098e-08
1.85392e-08
1.71107e-08
1.57298e-08
1.44019e-08
1.31302e-08
1.19195e-08
1.07726e-08
9.69314e-09
8.68253e-09
7.74242e-09
6.87391e-09
6.07562e-09
5.34688e-09
4.68613e-09
4.09024e-09
3.55631e-09
3.08047e-09
2.65906e-09
2.28774e-09
1.96224e-09
1.67829e-09
1.43172e-09
1.21848e-09
1.03482e-09
8.77034e-10
7.41824e-10
6.25698e-10
5.26228e-10
4.4064e-10
3.68689e-10
3.18615e-10
2.68607e-10
2.39845e-10
1.85818e-10
1.80658e-10
1.10776e-10
1.49488e-10
0.125921
0.58549
1.33291
1.99957
2.18806
1.7284
0.855264
0.139246
0.088368
0.71746
1.50753
1.79407
1.3191
0.533521
0.088321
0.00355683
2.24547e-06
3.08826e-07
0
0
3.00923e-21
2.08783e-11
9.96789e-09
3.17634e-08
2.90073e-08
2.38122e-08
2.19782e-08
2.10913e-08
2.02195e-08
1.93882e-08
1.85986e-08
1.78077e-08
1.70075e-08
1.62023e-08
1.53885e-08
1.45633e-08
1.37297e-08
1.28925e-08
1.20552e-08
1.12238e-08
1.04038e-08
9.59972e-09
8.81753e-09
8.06135e-09
7.33553e-09
6.64377e-09
5.98902e-09
5.37391e-09
4.79951e-09
4.26707e-09
3.77714e-09
3.32899e-09
2.92196e-09
2.55441e-09
2.22477e-09
1.93075e-09
1.67002e-09
1.44003e-09
1.23814e-09
1.06173e-09
9.08271e-10
7.75198e-10
6.60148e-10
5.60544e-10
4.74432e-10
3.99851e-10
3.36153e-10
2.92118e-10
2.46622e-10
2.22112e-10
1.71599e-10
1.69076e-10
0.00583874
0.0981115
0.432009
0.967603
1.45007
1.60391
1.30375
0.689223
0.140348
0.0355382
0.444611
1.03822
1.31524
1.02733
0.453925
0.089341
0.00482726
9.10926e-06
5.01635e-07
0
0
0
1.15025e-11
5.12333e-09
2.18816e-08
1.97453e-08
1.52549e-08
1.39876e-08
1.36087e-08
1.30894e-08
1.25212e-08
1.20045e-08
1.15156e-08
1.10318e-08
1.05472e-08
1.00584e-08
9.56288e-09
9.06112e-09
8.55306e-09
8.04086e-09
7.52712e-09
7.01465e-09
6.50751e-09
6.0088e-09
5.52204e-09
5.05071e-09
4.59752e-09
4.16532e-09
3.7558e-09
3.37086e-09
3.01177e-09
2.67891e-09
2.37278e-09
2.09285e-09
1.83876e-09
1.6095e-09
1.40388e-09
1.22051e-09
1.05784e-09
9.14208e-10
7.88012e-10
6.77532e-10
5.81134e-10
4.96995e-10
4.23525e-10
3.59474e-10
3.03803e-10
2.65672e-10
2.24695e-10
4.04222e-06
0.00331365
0.0619395
0.289701
0.677918
1.05249
1.20647
1.0283
0.591169
0.153407
0.00950208
0.261551
0.708964
0.973249
0.817519
0.398732
0.0921746
0.00652798
3.50426e-05
6.39924e-07
0
0
0
3.17118e-12
1.31226e-09
1.3527e-08
1.3785e-08
1.00742e-08
8.98895e-09
8.89728e-09
8.68299e-09
8.3361e-09
8.00091e-09
7.69202e-09
7.3883e-09
7.08113e-09
6.76904e-09
6.45236e-09
6.1303e-09
5.80339e-09
5.47265e-09
5.13954e-09
4.80618e-09
4.47453e-09
4.14685e-09
3.82544e-09
3.51242e-09
3.21013e-09
2.91998e-09
2.64379e-09
2.38294e-09
2.13813e-09
1.91031e-09
1.69951e-09
1.50593e-09
1.32934e-09
1.16919e-09
1.02486e-09
8.95467e-10
7.80036e-10
6.77592e-10
5.8703e-10
5.07269e-10
4.3709e-10
3.75155e-10
3.20828e-10
1.86313e-06
1.14091e-06
0.00124512
0.0323154
0.177047
0.456535
0.757576
0.91815
0.832107
0.524889
0.170943
0.00362338
0.142177
0.476315
0.72245
0.659241
0.356021
0.0956539
0.0087033
9.70611e-05
7.01609e-07
0
0
0
2.38175e-13
7.63642e-11
7.25666e-09
1.01036e-08
7.22438e-09
5.96309e-09
5.81429e-09
5.73778e-09
5.55091e-09
5.34815e-09
5.16064e-09
4.9763e-09
4.78718e-09
4.59261e-09
4.39238e-09
4.1866e-09
3.97573e-09
3.7606e-09
3.54257e-09
3.32303e-09
3.10342e-09
2.88534e-09
2.67038e-09
2.46032e-09
2.25627e-09
2.0597e-09
1.87189e-09
1.69358e-09
1.52573e-09
1.3687e-09
1.2229e-09
1.08844e-09
9.65216e-10
8.53e-10
7.51366e-10
6.59771e-10
5.77667e-10
5.04367e-10
0
1.15589e-06
2.68186e-06
0.000305284
0.013726
0.097372
0.292086
0.534558
0.698162
0.680535
0.472986
0.18849
0.0115676
0.0679802
0.311531
0.534264
0.534486
0.319523
0.0988303
0.0112971
0.000218975
8.74109e-07
0
0
0
1.12875e-16
1.44023e-15
2.30639e-09
6.35466e-09
5.1587e-09
4.1136e-09
3.90056e-09
3.85285e-09
3.74688e-09
3.62071e-09
3.50238e-09
3.38647e-09
3.26722e-09
3.14355e-09
3.01527e-09
2.88224e-09
2.74471e-09
2.60341e-09
2.45924e-09
2.31313e-09
2.16619e-09
2.01959e-09
1.87462e-09
1.73218e-09
1.59339e-09
1.45931e-09
1.33065e-09
1.20824e-09
1.09251e-09
9.83939e-10
8.82798e-10
7.89181e-10
2.51743e-31
0
5.66175e-08
5.51223e-07
3.31088e-05
0.00455629
0.0470644
0.174503
0.364889
0.524142
0.555734
0.42653
0.202916
0.0278871
0.0256811
0.195498
0.390779
0.432717
0.28636
0.101049
0.0141906
0.000435254
1.58816e-06
1.01822e-11
0
0
2.47098e-22
2.50903e-12
9.78577e-10
3.89111e-09
3.6195e-09
2.87229e-09
2.66939e-09
2.63548e-09
2.57323e-09
2.49184e-09
2.41402e-09
2.33813e-09
2.25975e-09
2.17795e-09
2.09264e-09
2.0038e-09
1.91162e-09
1.81659e-09
1.71926e-09
1.6203e-09
1.52048e-09
1.42074e-09
1.32174e-09
1.22428e-09
3.71868e-22
2.03498e-22
0
1.40299e-14
4.28859e-06
8.68827e-07
0.00106872
0.0193
0.0952928
0.237344
0.38404
0.448374
0.380978
0.211935
0.0480439
0.00568426
0.115345
0.280639
0.347962
0.255114
0.10189
0.0172814
0.000724087
2.79184e-07
2.47249e-08
0
0
0
8.792e-13
3.33131e-10
2.41911e-09
2.57421e-09
2.02844e-09
1.84592e-09
1.82347e-09
1.78813e-09
1.7337e-09
1.68057e-09
)
;

boundaryField
{
    inlet
    {
        type            calculated;
        value           nonuniform List<scalar> 
11
(
2.3806e-08
2.13889e-08
2.24277e-08
2.34137e-08
2.43053e-08
2.51116e-08
2.58792e-08
2.66631e-08
2.76063e-08
2.55017e-08
2.83056e-08
)
;
    }
    outlet
    {
        type            calculated;
        value           nonuniform List<scalar> 0();
    }
    walls
    {
        type            calculated;
        value           uniform 0;
    }
    frontAndBack
    {
        type            empty;
    }
    procBoundary6to2
    {
        type            processor;
        value           nonuniform List<scalar> 
13
(
38.8433
11.8715
4.68133
1.90064
0.601835
0.109247
0.00570992
5.29844e-06
3.85646e-06
0
0
1.2455e-12
5.81099e-10
)
;
    }
    procBoundary6to3
    {
        type            processor;
        value           uniform 1.02094e-09;
    }
    procBoundary6to5
    {
        type            processor;
        value           nonuniform List<scalar> 
86
(
416.591
34.2683
44.1726
37.1744
9.07366
0.0461573
0.0122339
0.00115975
0
0
4.66067e-09
2.12148e-06
4.59671e-06
3.4436e-06
2.75394e-06
2.69524e-06
2.7176e-06
2.61112e-06
2.42322e-06
2.22966e-06
2.05649e-06
1.89982e-06
1.75083e-06
1.6052e-06
1.46291e-06
1.32526e-06
1.19349e-06
1.06864e-06
9.51311e-07
8.41824e-07
7.40509e-07
6.47536e-07
5.62889e-07
5.62889e-07
5.38396e-07
4.6151e-07
3.93353e-07
3.33408e-07
2.81097e-07
2.35789e-07
1.96833e-07
1.63569e-07
1.35352e-07
1.11565e-07
9.163e-08
7.50138e-08
7.50138e-08
6.45213e-08
5.24115e-08
4.24851e-08
3.43775e-08
2.77766e-08
2.2417e-08
1.8076e-08
1.45672e-08
1.17356e-08
1.17356e-08
9.71651e-09
7.82177e-09
6.29952e-09
5.07723e-09
4.09594e-09
3.30727e-09
2.67169e-09
2.67169e-09
2.19741e-09
1.77286e-09
1.43038e-09
1.15585e-09
9.35345e-10
7.64085e-10
6.39713e-10
6.39713e-10
5.52144e-10
4.71851e-10
3.94979e-10
3.37075e-10
2.65017e-10
2.4337e-10
1.59285e-10
2.11962e-10
1.19827e-10
1.19827e-10
3.14639e-10
4.20716e-10
7.01645e-10
)
;
    }
    procBoundary6to7
    {
        type            processor;
        value           nonuniform List<scalar> 
91
(
6.71412e-10
6.71412e-10
3.87686e-10
3.87686e-10
3.64615e-10
3.64615e-10
6.34846e-11
5.06888e-11
6.34846e-11
1.70845e-10
1.02683e-10
5.06888e-11
1.41703e-10
2.04284e-10
1.57406e-10
1.02683e-10
1.57398e-10
2.72685e-10
2.40096e-10
2.04284e-10
2.03468e-10
4.3919e-10
3.81389e-10
3.2981e-10
2.72685e-10
2.84316e-10
7.03079e-10
6.24336e-10
5.52667e-10
4.87785e-10
4.3919e-10
4.29304e-10
1.12919e-09
1.03707e-09
9.48577e-10
8.64124e-10
7.84172e-10
7.08991e-10
7.03079e-10
6.38777e-10
1.62965e-09
1.57713e-09
1.5219e-09
1.46397e-09
1.40336e-09
1.34029e-09
1.2751e-09
1.20822e-09
1.14017e-09
1.07153e-09
1.00283e-09
1.12919e-09
9.34629e-10
1.06597e-13
1.91726e-16
0
0
4.48979e-07
6.51946e-07
0.000134323
0.00628575
0.0460398
0.144232
0.270938
0.353826
0.334217
0.21419
0.0683877
0.000758004
0.0619725
0.196276
0.276621
0.225122
0.101189
0.0203336
0.00116445
2.12251e-06
9.79173e-08
0
0
0
2.48485e-13
8.95088e-11
1.50614e-09
1.86481e-09
1.44339e-09
1.27101e-09
1.2583e-09
1.24595e-09
1.62965e-09
1.21255e-09
)
;
    }
}


// ************************************************************************* //
