/*--------------------------------*- C++ -*----------------------------------*\
| =========                 |                                                 |
| \\      /  F ield         | OpenFOAM: The Open Source CFD Toolbox           |
|  \\    /   O peration     | Version:  2306                                  |
|   \\  /    A nd           | Website:  www.openfoam.com                      |
|    \\/     M anipulation  |                                                 |
\*---------------------------------------------------------------------------*/
FoamFile
{
    version     2.0;
    format      ascii;
    arch        "LSB;label=32;scalar=64";
    class       volVectorField;
    location    "725";
    object      U;
}
// * * * * * * * * * * * * * * * * * * * * * * * * * * * * * * * * * * * * * //

dimensions      [0 1 -1 0 0 0 0];

internalField   nonuniform List<vector> 
1340
(
(13.5774 -2.2087 -5.02565e-16)
(11.7314 -2.06649 8.63952e-16)
(9.72615 -1.8221 2.14963e-15)
(3.48781 -1.07567 1.69583e-14)
(17.1189 -2.7795 -4.99511e-15)
(15.1493 -2.63284 1.57993e-15)
(13.0647 -2.36661 -6.59333e-16)
(7.06373 -1.47591 4.49216e-15)
(20.4314 -3.21348 1.06792e-14)
(18.025 -3.02211 -2.38966e-15)
(15.5376 -2.65349 -3.71428e-16)
(9.75592 -1.88534 -6.25321e-15)
(24.0052 -3.63047 -2.50227e-15)
(21.0747 -3.39206 3.31662e-15)
(18.0884 -2.91011 6.54331e-16)
(12.3261 -2.20259 3.04666e-15)
(27.5897 -3.97651 3.56962e-16)
(24.2477 -3.73128 4.7475e-16)
(20.7887 -3.16246 -4.46088e-17)
(14.9285 -2.47018 -3.74009e-15)
(30.0279 -4.13085 -3.40904e-15)
(27.0866 -3.96974 -4.23913e-15)
(23.5161 -3.38281 -3.56994e-17)
(17.5878 -2.71581 1.02121e-15)
(30.25 -4.01966 6.90926e-15)
(28.6131 -4.00922 1.10108e-15)
(25.8276 -3.51155 -6.53665e-17)
(20.2006 -2.92696 6.55761e-16)
(29.3624 -3.79846 -7.48947e-15)
(28.511 -3.8506 1.7563e-15)
(27.1016 -3.48939 2.31439e-16)
(22.46 -3.06416 1.84052e-15)
(28.8605 -3.62214 2.75764e-15)
(27.8175 -3.64098 -1.48862e-15)
(27.2399 -3.33293 -7.48308e-16)
(23.9943 -3.08617 -1.38521e-15)
(28.861 -3.48979 -1.28685e-15)
(27.479 -3.48143 1.41195e-15)
(26.8405 -3.13449 2.40841e-16)
(24.7095 -2.99197 -1.67874e-15)
(28.9714 -3.36177 -7.59519e-16)
(27.5273 -3.35908 -1.86267e-15)
(26.5196 -2.96225 1.02136e-16)
(24.8895 -2.82136 7.50896e-16)
(29.0094 -3.22286 -1.18248e-15)
(27.6674 -3.23548 -1.22068e-15)
(26.4492 -2.82405 -8.7009e-17)
(24.9072 -2.62516 1.60497e-15)
(28.9894 -3.07596 4.227e-15)
(27.746 -3.09614 6.38547e-17)
(26.5163 -2.69897 3.63255e-16)
(24.9611 -2.43397 -1.62651e-15)
(28.9583 -2.92477 -5.53463e-15)
(27.7653 -2.94556 1.86537e-15)
(26.5981 -2.5706 1.81493e-16)
(25.0776 -2.2565 1.70173e-15)
(28.934 -2.77002 4.13435e-15)
(27.7667 -2.79012 -8.90112e-16)
(26.6525 -2.43481 -7.4789e-16)
(25.219 -2.08939 -1.64879e-15)
(28.9149 -2.61124 -3.14443e-16)
(27.7729 -2.63216 8.03168e-17)
(26.6879 -2.29397 8.36252e-16)
(25.3553 -1.92799 4.91312e-16)
(28.896 -2.4484 -8.07249e-16)
(27.786 -2.47149 3.3834e-16)
(26.7203 -2.15031 1.3442e-17)
(25.4789 -1.77028 -1.48229e-16)
(28.8755 -2.28177 -3.2309e-16)
(27.8018 -2.30765 3.15892e-16)
(26.7572 -2.00479 -7.3451e-16)
(25.593 -1.61606 3.40445e-16)
(28.8535 -2.11172 2.01744e-15)
(27.8174 -2.14077 -7.0611e-16)
(26.7988 -1.85757 -5.47683e-16)
(25.7023 -1.4655 5.07855e-16)
(28.83 -1.93856 -1.99158e-16)
(27.8318 -1.97115 1.42597e-16)
(26.8431 -1.70839 9.93812e-17)
(25.8087 -1.31845 -1.27382e-16)
(28.8051 -1.76265 6.19999e-17)
(27.8449 -1.79924 6.43163e-16)
(26.8884 -1.55739 8.86514e-16)
(25.9122 -1.17479 -1.6333e-16)
(28.7786 -1.58436 1.02203e-15)
(27.8568 -1.62549 -6.68912e-16)
(26.9339 -1.40475 -2.63651e-16)
(26.0124 -1.03391 -3.78124e-17)
(28.7502 -1.40409 -1.99406e-15)
(27.8673 -1.45028 6.47403e-16)
(26.9792 -1.25078 2.45575e-16)
(26.1087 -0.895597 -3.14539e-17)
(28.7199 -1.22236 2.97575e-16)
(27.876 -1.27398 -3.31936e-16)
(27.0237 -1.09563 -3.31085e-16)
(26.201 -0.759273 3.77423e-17)
(28.6873 -1.03966 3.0607e-16)
(27.8827 -1.09708 9.30369e-16)
(27.067 -0.939725 6.25315e-16)
(26.2891 -0.624752 -1.72749e-16)
(28.6524 -0.85648 5.68359e-16)
(27.8872 -0.919957 -4.5437e-16)
(27.1085 -0.783228 -9.68229e-16)
(26.3729 -0.491699 1.39546e-16)
(28.6151 -0.673477 -5.65356e-16)
(27.8891 -0.74318 -1.41798e-15)
(27.1479 -0.626645 -1.06776e-16)
(26.4521 -0.360024 -1.61688e-16)
(28.5751 -0.491145 -5.02628e-16)
(27.8882 -0.567047 7.78567e-16)
(27.1846 -0.470112 -1.58677e-16)
(26.5267 -0.229418 2.92606e-16)
(28.5325 -0.310094 8.52576e-16)
(27.8842 -0.392185 5.57935e-16)
(27.2182 -0.314138 6.74323e-16)
(26.5964 -0.0997549 -2.46826e-16)
(28.487 -0.13097 -9.64232e-16)
(27.8771 -0.218956 -6.26429e-16)
(27.2482 -0.158962 -3.7556e-16)
(26.6611 0.0290894 5.94989e-16)
(28.4388 0.0457032 1.16274e-15)
(27.8666 -0.0479187 9.49269e-16)
(27.2744 -0.00505188 9.79e-16)
(26.7207 0.15719 -1.05298e-15)
(28.3878 0.219329 -5.53335e-16)
(27.8526 0.120558 -6.29131e-16)
(27.2965 0.147255 -5.94083e-16)
(26.775 0.28444 4.32536e-16)
(28.3341 0.38932 -3.04749e-16)
(27.8349 0.285959 8.67846e-16)
(27.3142 0.297621 -2.47849e-16)
(26.8239 0.410821 -2.41129e-16)
(28.7026 0.74196 1.2792e-15)
(28.2776 0.555204 4.86217e-16)
(27.8136 0.447841 -2.74016e-16)
(27.3273 0.4456 1.01223e-15)
(26.8672 0.536173 1.56295e-16)
(28.611 0.899481 -1.41658e-15)
(28.2186 0.716443 5.0489e-16)
(27.7886 0.605819 -1.11867e-15)
(27.3358 0.590867 -7.00946e-16)
(26.9048 0.660299 -5.38247e-16)
(28.5182 1.05135 3.45615e-16)
(28.1572 0.872616 -5.87396e-16)
(27.76 0.75948 2.76916e-16)
(27.3394 0.733068 -1.00427e-17)
(26.9368 0.782992 1.89363e-16)
(28.4245 1.1972 -2.03788e-16)
(28.0935 1.02334 5.62258e-17)
(27.7277 0.908466 7.50848e-16)
(27.3384 0.871868 3.90804e-16)
(26.9631 0.904002 6.4404e-16)
(28.3302 1.33676 6.24637e-16)
(28.0278 1.16826 -9.80384e-17)
(27.6921 1.05244 -7.63657e-16)
(27.3326 1.00693 5.04496e-16)
(26.9837 1.02304 -2.41303e-16)
(28.2357 1.46981 -8.99597e-16)
(27.9602 1.3071 2.12456e-16)
(27.6532 1.19112 7.49933e-16)
(27.3222 1.13797 1.26476e-16)
(26.9987 1.13982 5.44999e-17)
(28.1412 1.59618 -4.14128e-16)
(27.8912 1.43965 -5.36112e-16)
(27.6112 1.32426 -5.61525e-16)
(27.3074 1.26473 -1.1732e-15)
(27.0083 1.25406 -3.07841e-16)
(28.0471 1.7158 3.65213e-16)
(27.8209 1.56575 -3.35844e-17)
(27.5663 1.45165 2.86796e-16)
(27.2883 1.38694 4.84408e-16)
(27.0126 1.36546 -2.30348e-16)
(27.9537 1.82865 4.47585e-16)
(27.7496 1.6853 8.18481e-16)
(27.5189 1.57316 1.08462e-16)
(27.2652 1.50441 3.84954e-16)
(27.0117 1.47374 -1.30077e-17)
(27.8612 1.93475 -4.92078e-17)
(27.6777 1.79827 -3.83445e-16)
(27.4692 1.68866 -4.71971e-16)
(27.2383 1.61696 4.57709e-17)
(27.0061 1.57865 5.83252e-16)
(27.77 2.0342 -7.28638e-16)
(27.6054 1.90467 2.83242e-16)
(27.4175 1.79812 3.79857e-16)
(27.208 1.72445 -3.59302e-16)
(26.9958 1.67995 -5.84842e-16)
(27.6801 2.12713 2.61133e-17)
(27.5329 2.00458 4.90133e-16)
(27.3641 1.90151 1.00738e-16)
(27.1746 1.82679 3.01746e-16)
(26.9813 1.77742 2.50403e-17)
(27.7027 2.34157 4.4392e-18)
(27.592 2.21372 -9.874e-17)
(27.4606 2.09811 -1.56778e-16)
(27.3094 1.99888 5.15338e-16)
(27.1383 1.92392 -4.13992e-16)
(26.9629 1.8709 5.89107e-16)
(27.6039 2.41312 1.14493e-16)
(27.5057 2.29419 1.33868e-16)
(27.3887 2.18541 1.49244e-16)
(27.2536 2.0903 -6.7255e-16)
(27.0996 2.01581 4.26036e-17)
(26.9408 1.96022 -5.04184e-16)
(27.5084 2.47922 -8.72185e-17)
(27.4213 2.36877 2.40992e-16)
(27.3175 2.26669 3.4274e-18)
(27.197 2.1759 -2.86784e-16)
(27.0588 2.10249 4.11761e-16)
(26.9155 2.04529 2.04481e-16)
(27.4161 2.54013 -3.13142e-16)
(27.3391 2.43773 -1.66338e-16)
(27.2472 2.34216 -3.67929e-16)
(27.14 2.25581 3.93201e-16)
(27.0162 2.184 -6.13263e-16)
(26.8872 2.12604 -2.24828e-16)
(27.3271 2.59615 3.70054e-16)
(27.2592 2.50135 6.2375e-17)
(27.1778 2.41205 4.21325e-16)
(27.0827 2.33022 -4.52938e-16)
(26.9721 2.26043 -3.04161e-17)
(26.8564 2.20243 1.5196e-16)
(27.2413 2.64758 -1.4893e-16)
(27.1815 2.5599 1.37349e-16)
(27.1097 2.47663 6.53786e-17)
(27.0255 2.39933 4.6922e-17)
(26.9269 2.3319 1.59118e-16)
(26.8234 2.27447 4.18671e-16)
(27.1588 2.69468 2.48883e-17)
(27.1062 2.61369 -3.43679e-17)
(27.0429 2.53618 -1.32886e-16)
(26.9685 2.46336 3.982e-17)
(26.8808 2.39854 -1.1762e-16)
(26.7885 2.34218 -3.46209e-16)
(27.0795 2.73776 -6.47956e-16)
(27.0333 2.66299 -3.66197e-17)
(26.9776 2.59095 -2.15511e-17)
(26.912 2.52253 2.4085e-16)
(26.8342 2.46051 3.86731e-16)
(26.752 2.40563 6.23045e-17)
(27.0033 2.77707 1.98467e-16)
(26.9628 2.70811 -7.76974e-17)
(26.9139 2.64123 1.00296e-16)
(26.8561 2.5771 -4.3518e-16)
(26.7872 2.51799 -3.12349e-16)
(26.7142 2.46492 -2.96424e-16)
(26.959 2.8775 -1.4495e-16)
(26.9301 2.8129 -2.29266e-16)
(26.8947 2.74932 7.31732e-17)
(26.8518 2.68731 1.6232e-16)
(26.801 2.62731 2.85825e-16)
(26.7401 2.57118 8.14263e-17)
(26.6755 2.52014 4.90799e-16)
(26.8851 2.90486 2.20641e-16)
(26.8599 2.84549 -1.53291e-16)
(26.8289 2.78689 1.98184e-16)
(26.7914 2.72944 5.3345e-17)
(26.7468 2.67341 -8.49401e-17)
(26.693 2.62028 -2.0062e-16)
(26.636 2.57145 6.2708e-17)
(26.8145 2.92965 -1.60802e-16)
(26.7925 2.87508 3.00748e-16)
(26.7655 2.82107 2.58429e-17)
(26.7327 2.76789 -3.93703e-16)
(26.6936 2.71565 3.86679e-16)
(26.6463 2.66549 -1.93064e-16)
(26.5961 2.61897 -2.09738e-16)
(26.7471 2.95208 -2.47131e-16)
(26.7279 2.90189 -5.77374e-18)
(26.7043 2.85213 -3.48263e-17)
(26.6757 2.80292 4.49605e-16)
(26.6415 2.75426 9.73613e-18)
(26.6 2.70703 -3.22696e-16)
(26.5558 2.66289 5.66628e-16)
(26.6826 2.97232 -5.55047e-17)
(26.6659 2.92615 7.50567e-17)
(26.6454 2.88029 4.58539e-17)
(26.6205 2.83477 -1.2282e-16)
(26.5907 2.7895 2.13255e-16)
(26.5542 2.7451 -2.47819e-16)
(26.5155 2.70335 9.37545e-17)
(26.6209 2.99055 -2.45247e-17)
(26.6064 2.94804 -1.63238e-16)
(26.5886 2.90576 1.94986e-17)
(26.567 2.86366 -9.24852e-17)
(26.541 2.82157 3.51369e-17)
(26.5091 2.77992 -2.38231e-16)
(26.4753 2.74054 2.29203e-16)
(26.5619 3.00691 1.08624e-16)
(26.5494 2.96775 -5.72749e-17)
(26.534 2.92875 -7.49079e-17)
(26.5152 2.88981 3.82354e-16)
(26.4927 2.8507 2.74629e-16)
(26.4648 2.81168 -1.86239e-16)
(26.4353 2.77462 2.01548e-17)
(26.5141 3.05787 -1.37953e-17)
(26.5056 3.02156 1.27186e-16)
(26.4947 2.98545 -8.56737e-17)
(26.4814 2.94945 1.32611e-16)
(26.4652 2.91343 -1.32155e-17)
(26.4456 2.8771 5.07034e-17)
(26.4213 2.84057 -3.27445e-17)
(26.3957 2.80577 9.87196e-17)
(26.4591 3.06818 -7.37541e-17)
(26.4518 3.03464 -1.93357e-16)
(26.4425 3.0013 1.607e-16)
(26.431 2.96804 1.75548e-16)
(26.4169 2.9347 5.53533e-17)
(26.4 2.90096 -2.0536e-16)
(26.3788 2.86679 1.51423e-16)
(26.3566 2.83417 -2.44522e-16)
(26.4069 3.07731 -5.96656e-17)
(26.4006 3.0463 8.63459e-17)
(26.3926 3.01547 9.31219e-18)
(26.3827 2.98472 -2.15517e-16)
(26.3705 2.95383 1.27612e-16)
(26.3559 2.92248 3.96011e-17)
(26.3375 2.89053 1.2883e-16)
(26.3182 2.85999 -3.12382e-17)
(26.3573 3.08533 -1.08054e-16)
(26.3519 3.0566 5.74055e-17)
(26.345 3.02806 -3.18365e-17)
(26.3365 2.99959 -1.48882e-16)
(26.326 2.97096 4.75754e-16)
(26.3134 2.94183 -3.36769e-16)
(26.2974 2.91196 -1.44335e-16)
(26.2808 2.88338 -3.66837e-17)
(26.3101 3.09238 1.25271e-16)
(26.3056 3.06571 -8.17513e-18)
(26.2998 3.03926 5.15387e-17)
(26.2925 3.01287 -1.24439e-16)
(26.2835 2.9863 -8.87376e-17)
(26.2726 2.95921 5.54773e-17)
(26.2588 2.93129 6.96733e-17)
(26.2444 2.90457 9.32339e-17)
(26.2654 3.09834 7.25259e-17)
(26.2616 3.07356 -9.4579e-18)
(26.2567 3.049 -1.74471e-16)
(26.2505 3.02451 -2.43056e-18)
(26.2429 2.99985 1.39689e-16)
(26.2336 2.97463 -2.8522e-16)
(26.2217 2.94854 6.18955e-17)
(26.2093 2.92356 -1.69255e-16)
(26.2289 3.10275 1.30987e-16)
(26.2255 3.07941 -1.40551e-16)
(26.2212 3.05633 2.27036e-16)
(26.2157 3.03334 -5.96798e-17)
(26.209 3.01018 -7.30483e-17)
(26.2007 2.98651 -6.32718e-17)
(26.1902 2.96193 2.26789e-16)
(26.1792 2.93847 -9.74767e-17)
(26.2014 3.12864 -2.72706e-17)
(26.1992 3.10613 -7.36094e-17)
(26.1962 3.08397 2.62255e-17)
(26.1921 3.06208 4.24083e-17)
(26.1871 3.04031 -1.18328e-16)
(26.1808 3.0184 7.2993e-17)
(26.1732 2.996 2.47734e-16)
(26.1635 2.97271 -3.01853e-16)
(26.1534 2.95055 1.39284e-16)
(26.1713 3.1304 -7.30253e-18)
(26.1694 3.10897 2.2217e-17)
(26.1666 3.08791 -1.55189e-16)
(26.1629 3.06715 8.46309e-17)
(26.1583 3.04653 5.72513e-17)
(26.1525 3.0258 2.78335e-17)
(26.1455 3.00461 -2.09658e-16)
(26.1366 2.98255 7.90401e-17)
(26.1274 2.9616 1.23876e-16)
(26.1408 3.13233 1.75443e-18)
(26.139 3.11209 1.38015e-16)
(26.1366 3.09223 1.15772e-16)
(26.1333 3.07269 -4.28989e-17)
(26.1291 3.05331 3.00814e-17)
(26.1239 3.03383 -7.96368e-17)
(26.1176 3.01391 1.64317e-16)
(26.1094 2.99316 -5.40581e-16)
(26.1009 2.97358 2.37089e-16)
(26.1108 3.13249 1.4145e-19)
(26.1092 3.11308 1.24631e-16)
(26.107 3.09408 -2.6035e-16)
(26.1041 3.07544 -1.63937e-17)
(26.1003 3.057 1.48194e-16)
(26.0956 3.03853 -1.78181e-16)
(26.0898 3.01968 3.49177e-16)
(26.0825 2.99997 -3.43395e-16)
(26.0751 2.98132 3.48863e-16)
(26.0798 3.13577 -3.31348e-17)
(26.0785 3.11778 -8.72378e-17)
(26.0766 3.10019 1.19646e-16)
(26.0741 3.08295 7.40985e-17)
(26.0708 3.06589 -3.5453e-16)
(26.0667 3.04876 2.37365e-16)
(26.0616 3.03126 2.1292e-16)
(26.0549 3.01305 -9.00948e-17)
(26.0476 2.99615 -1.19955e-16)
(26.0523 3.12985 -1.72004e-17)
(26.0512 3.11195 -2.95706e-17)
(26.0497 3.09453 7.37087e-17)
(26.0474 3.07756 -5.53079e-18)
(26.0443 3.06091 -9.93712e-17)
(26.0405 3.04432 -1.40666e-16)
(26.0359 3.02745 2.12436e-16)
(26.0303 3.00963 -2.66309e-17)
(26.0251 2.99273 4.18164e-17)
(26.0191 3.14335 3.11058e-17)
(26.0183 3.12792 -2.60822e-17)
(26.0172 3.11285 -1.13353e-16)
(26.0156 3.09807 -2.4383e-17)
(26.0134 3.08343 1.76594e-17)
(26.0106 3.06873 2.08208e-17)
(26.0068 3.05373 3.38238e-17)
(26.0009 3.03839 -4.45627e-17)
(25.9938 3.02461 7.93328e-17)
(26.0015 3.11169 -1.84232e-17)
(26.001 3.09419 -5.82122e-17)
(25.9999 3.07737 -2.76722e-17)
(25.9981 3.06121 6.14113e-17)
(25.9957 3.04556 2.01812e-17)
(25.9927 3.03013 -9.55149e-18)
(25.9893 3.01452 1.22952e-16)
(25.9864 2.99754 -6.09344e-17)
(25.985 2.98133 -9.30241e-17)
(25.9556 3.17327 1.58572e-16)
(25.9558 3.16142 -5.82171e-17)
(25.9559 3.14965 1.79832e-17)
(25.9558 3.13797 -1.97257e-16)
(25.9553 3.1263 -5.47931e-17)
(25.9541 3.11453 2.07995e-16)
(25.9517 3.10257 1.44628e-16)
(25.9455 3.09128 -1.77712e-16)
(25.9363 3.08171 2.37126e-17)
(25.9683 3.0624 4.86723e-17)
(25.9693 3.04191 1.29113e-17)
(25.969 3.02279 7.52101e-18)
(25.9682 3.00481 1.12445e-16)
(25.9668 2.9878 -1.34723e-16)
(25.9649 2.97162 1.68654e-16)
(25.9628 2.95586 -1.82829e-17)
(25.9613 2.94003 -1.87672e-16)
(25.964 2.92165 -7.58204e-17)
(25.9702 2.90484 1.79287e-17)
(25.8756 3.29032 7.52146e-18)
(25.8766 3.28482 4.92819e-18)
(25.8781 3.27767 -6.22474e-18)
(25.88 3.27038 -5.64983e-17)
(25.8818 3.26316 -4.24987e-17)
(25.8834 3.25581 2.34096e-17)
(25.884 3.2484 -2.68575e-17)
(25.8827 3.24095 -2.63685e-17)
(25.8735 3.23637 4.36534e-17)
(25.8589 3.23123 6.31522e-17)
(26.0056 2.85597 -3.70115e-18)
(26.0054 2.8316 -8.30258e-17)
(26.007 2.80852 3.7563e-17)
(26.0106 2.78651 2.1632e-16)
(26.0135 2.76563 -3.95218e-16)
(26.0152 2.74571 1.15767e-16)
(26.0173 2.72615 4.10104e-16)
(26.0219 2.70634 -3.92785e-16)
(26.0358 2.68457 6.58579e-17)
(26.058 2.66617 -1.17016e-17)
(12.6861 0.750958 2.5495e-17)
(9.65906 0.43584 -1.11281e-18)
(9.40637 0.191379 -4.12223e-17)
(10.7867 0.024001 -1.70024e-18)
(12.8954 -0.0707711 6.1856e-18)
(15.3173 -0.119393 -9.13155e-18)
(17.8453 -0.137187 -8.99108e-19)
(20.2647 -0.14192 1.28002e-18)
(22.2499 -0.150388 2.52473e-18)
(23.4675 -0.174154 8.77364e-18)
(23.8986 -0.211627 -2.91385e-18)
(23.9698 -0.257242 1.08621e-17)
(24.0487 -0.30212 -2.18821e-18)
(24.2007 -0.337333 2.45261e-18)
(24.3854 -0.358651 -1.05421e-17)
(24.5656 -0.366165 9.07968e-18)
(24.7298 -0.36162 1.35725e-17)
(24.8815 -0.346259 -5.48539e-18)
(25.0258 -0.321041 -1.44898e-17)
(25.1651 -0.286879 4.57213e-18)
(25.2998 -0.244785 1.15375e-18)
(25.4294 -0.195111 2.34454e-17)
(25.5533 -0.139256 -3.10192e-17)
(25.6714 -0.0772791 1.24809e-17)
(25.7837 -0.0103063 -1.7091e-17)
(25.8901 0.0615572 1.04434e-17)
(25.9908 0.137607 -1.69161e-17)
(26.0857 0.217543 1.31535e-19)
(26.1748 0.300844 -1.9739e-17)
(26.2582 0.387019 -2.63454e-17)
(26.3357 0.475752 -9.46133e-18)
(26.4075 0.56659 1.75757e-19)
(26.4735 0.65925 3.85738e-18)
(26.5337 0.753422 6.79927e-19)
(26.5881 0.84874 2.54406e-17)
(26.6366 0.944887 8.15643e-19)
(26.6792 1.04154 1.7279e-18)
(26.7161 1.13831 -1.91991e-17)
(26.7472 1.23487 -2.63188e-18)
(26.7726 1.33081 2.45596e-18)
(26.7924 1.42583 -3.16471e-17)
(26.8069 1.5195 -2.07109e-16)
(26.8161 1.61153 1.2494e-17)
(26.8202 1.70157 2.46773e-17)
(26.8196 1.78929 -1.48986e-17)
(26.8145 1.87444 -4.60883e-18)
(26.8051 1.95674 1.42888e-16)
(26.7919 2.03598 -2.67328e-17)
(26.775 2.11199 2.43297e-17)
(26.7549 2.1846 1.87721e-17)
(26.7318 2.25372 -6.94686e-17)
(26.7061 2.31928 1.56723e-16)
(26.6782 2.38122 7.79003e-18)
(26.6483 2.43956 -2.28677e-17)
(26.6168 2.49431 -1.32977e-16)
(26.5838 2.54553 1.0132e-16)
(26.5498 2.59329 7.80232e-19)
(26.515 2.6377 -1.51405e-16)
(26.4796 2.67885 -1.40042e-17)
(26.4437 2.71687 4.55083e-17)
(26.4076 2.7519 -2.70029e-16)
(26.3715 2.78407 6.6551e-17)
(26.3355 2.81352 -2.06503e-19)
(26.2998 2.84042 3.61801e-18)
(26.2648 2.86489 -2.06241e-16)
(26.2305 2.88714 1.04569e-16)
(26.1973 2.90717 -4.27936e-20)
(26.1686 2.92294 6.06865e-18)
(26.1438 2.93582 6.42999e-19)
(26.1188 2.94753 -3.04547e-16)
(26.0931 2.96059 -7.58263e-17)
(26.0685 2.96854 3.04586e-17)
(26.0412 2.98525 8.10842e-17)
(26.0207 2.98064 -2.42079e-19)
(25.988 3.01663 -1.16201e-19)
(25.9835 2.96876 5.82457e-19)
(25.9302 3.07799 6.05583e-17)
(25.9726 2.8907 5.04232e-18)
(25.8524 3.23196 -3.19024e-17)
(26.068 2.65488 1.82381e-19)
(18.4288 1.08707 -2.56044e-17)
(15.8072 0.846249 4.48748e-18)
(14.3115 0.604315 2.18663e-17)
(14.1913 0.410941 7.98876e-18)
(15.1407 0.290676 -5.14288e-18)
(16.7315 0.233313 2.40604e-17)
(18.6497 0.226657 6.73044e-18)
(20.6599 0.26107 -1.91757e-18)
(22.5035 0.32106 -4.84584e-17)
(23.858 0.381941 -6.07081e-17)
(24.4801 0.420036 1.98362e-17)
(24.5487 0.431511 -2.63057e-17)
(24.5247 0.431659 -1.02923e-17)
(24.5839 0.431935 -4.59676e-18)
(24.691 0.432098 1.70919e-17)
(24.8027 0.431059 -1.26065e-17)
(24.905 0.429411 -1.59269e-17)
(25 0.428353 5.34941e-18)
(25.0931 0.429111 1.14869e-17)
(25.187 0.432766 -1.88114e-17)
(25.2819 0.439886 -1.45036e-17)
(25.377 0.451451 -5.66373e-18)
(25.4713 0.467473 1.60932e-17)
(25.5644 0.488806 -4.54584e-19)
(25.6556 0.515195 -8.34663e-20)
(25.7448 0.547028 -2.81587e-18)
(25.8315 0.583965 8.90605e-18)
(25.9153 0.626059 -1.28005e-17)
(25.9959 0.673138 7.59548e-18)
(26.073 0.724932 -5.30846e-18)
(26.1464 0.781231 -4.25622e-18)
(26.2157 0.841629 8.53307e-18)
(26.2809 0.905792 -2.51171e-17)
(26.3417 0.973366 4.04391e-19)
(26.3979 1.04391 1.8995e-17)
(26.4495 1.11704 2.0029e-17)
(26.4962 1.19236 -1.78744e-17)
(26.538 1.2694 -2.71129e-17)
(26.5749 1.34781 -2.01279e-18)
(26.6068 1.42711 6.65095e-17)
(26.6337 1.50694 -6.05796e-18)
(26.6556 1.58684 1.85837e-16)
(26.6727 1.66646 1.07864e-17)
(26.6849 1.74538 4.10521e-17)
(26.6926 1.82323 -1.34849e-17)
(26.6957 1.89968 -7.76593e-17)
(26.6946 1.97441 -1.29485e-16)
(26.6895 2.04711 -2.56964e-17)
(26.6805 2.11754 1.96811e-17)
(26.6681 2.18546 3.04482e-17)
(26.6524 2.25069 3.7827e-17)
(26.6338 2.31307 4.00775e-17)
(26.6125 2.37249 3.79463e-17)
(26.5889 2.42888 -8.74318e-18)
(26.5632 2.48217 -2.69496e-18)
(26.5357 2.53235 -2.10624e-16)
(26.5067 2.57944 8.56961e-19)
(26.4764 2.62348 1.24806e-16)
(26.4452 2.66451 5.57005e-18)
(26.4132 2.70262 -4.85132e-17)
(26.3806 2.7379 1.65335e-16)
(26.3476 2.77044 -1.28163e-16)
(26.3144 2.80036 2.53821e-16)
(26.2812 2.82779 4.29629e-18)
(26.2485 2.85283 -5.76906e-17)
(26.2162 2.87569 2.64775e-18)
(26.1848 2.89634 -5.24514e-20)
(26.1576 2.91262 7.4919e-18)
(26.1339 2.92602 7.92667e-19)
(26.11 2.93811 1.85146e-16)
(26.0853 2.95194 7.39596e-17)
(26.0617 2.95993 -3.08169e-17)
(26.0353 2.97804 -8.237e-17)
(26.0157 2.9725 -8.03515e-17)
(25.984 3.01136 -6.12923e-17)
(25.9795 2.96059 5.28925e-17)
(25.929 3.07515 -6.18029e-17)
(25.9677 2.88265 -3.45062e-18)
(25.8567 3.23079 8.07332e-19)
(21.1396 1.27178 -4.96115e-18)
(19.332 1.13343 9.20369e-19)
(17.7553 0.96379 -8.90401e-19)
(16.8623 0.797983 -1.6025e-18)
(16.8446 0.670438 -1.55952e-17)
(17.6129 0.595107 4.6128e-19)
(18.9294 0.569086 -4.64146e-18)
(20.5483 0.583981 -4.33042e-18)
(22.2339 0.629182 6.44604e-18)
(23.7175 0.687298 1.99964e-17)
(24.6975 0.733242 -7.39553e-18)
(25.0316 0.748203 -9.46959e-18)
(25.0098 0.741091 1.52848e-17)
(24.9994 0.73566 -2.15579e-18)
(25.0641 0.737271 1.61698e-17)
(25.1442 0.742021 -2.68058e-17)
(25.2122 0.748199 -1.01319e-17)
(25.2703 0.755638 1.55853e-17)
(25.3255 0.76453 4.00101e-17)
(25.3816 0.775152 1.21539e-17)
(25.4395 0.787359 2.10127e-17)
(25.499 0.801413 5.05224e-19)
(25.5596 0.817255 -7.04225e-18)
(25.6209 0.835346 -4.11522e-17)
(25.6826 0.855676 3.28921e-17)
(25.7446 0.878699 8.06379e-18)
(25.8067 0.904462 5.36597e-18)
(25.8686 0.933291 1.22712e-17)
(25.9298 0.965372 -1.49887e-17)
(25.9902 1.00081 6.23614e-18)
(26.0494 1.03977 -1.92891e-18)
(26.1069 1.08221 1.55419e-18)
(26.1626 1.12811 5.09439e-19)
(26.2159 1.1774 2.53704e-19)
(26.2666 1.22988 7.95909e-18)
(26.3144 1.28536 -1.88046e-17)
(26.359 1.34359 2.39329e-17)
(26.4002 1.40425 2.20569e-18)
(26.4377 1.46707 -1.55952e-18)
(26.4714 1.53164 -6.22002e-17)
(26.501 1.59766 -3.59709e-17)
(26.5266 1.6647 -1.40818e-16)
(26.5481 1.73243 9.09224e-18)
(26.5654 1.80045 2.92186e-17)
(26.5785 1.86839 1.03071e-17)
(26.5875 1.9359 -1.1293e-17)
(26.5925 2.00263 1.05838e-16)
(26.5936 2.06825 -2.31807e-17)
(26.5911 2.13246 2.58227e-17)
(26.5849 2.19499 -2.10985e-17)
(26.5755 2.25561 -1.4745e-17)
(26.5629 2.31409 -1.20528e-17)
(26.5476 2.37026 4.77685e-18)
(26.5296 2.42398 -1.22784e-16)
(26.5092 2.47514 -7.17961e-17)
(26.4868 2.52367 1.8279e-16)
(26.4625 2.5695 8.31969e-19)
(26.4367 2.61264 -2.46538e-16)
(26.4096 2.65307 -1.31294e-17)
(26.3813 2.69083 5.09838e-17)
(26.3522 2.72597 4.46439e-19)
(26.3223 2.75855 6.04521e-17)
(26.292 2.78864 -4.26022e-16)
(26.2614 2.81634 -8.70558e-17)
(26.231 2.84175 2.38732e-16)
(26.2008 2.86502 3.96746e-17)
(26.1713 2.88614 1.51045e-17)
(26.1455 2.90283 7.53493e-18)
(26.1231 2.91666 7.99023e-19)
(26.1004 2.92904 1.02689e-16)
(26.0767 2.94356 2.13314e-16)
(26.0543 2.95153 -2.40428e-19)
(26.0289 2.97093 -8.12307e-17)
(26.01 2.96455 1.40208e-16)
(25.98 3.00596 6.09666e-17)
(25.9743 2.95278 1.94997e-16)
(25.9287 3.0718 1.80243e-17)
(25.9608 2.87539 -1.60656e-16)
(22.6114 1.42466 2.62466e-18)
(21.3087 1.34535 2.42897e-19)
(19.965 1.23968 -9.41303e-18)
(18.8585 1.1217 3.2852e-18)
(18.2483 1.01442 3.43772e-18)
(18.2788 0.938347 1.08318e-19)
(18.9265 0.904466 3.36509e-18)
(20.0436 0.912764 -2.56858e-19)
(21.4366 0.956329 1.11123e-18)
(22.8877 1.02273 -1.64509e-17)
(24.1382 1.09172 5.63334e-18)
(24.9178 1.13703 -1.0806e-18)
(25.1627 1.14374 1.28356e-17)
(25.1515 1.12733 -1.48694e-17)
(25.1611 1.11136 -5.50566e-18)
(25.2257 1.1016 -1.38507e-17)
(25.2945 1.09497 -1.19242e-18)
(25.3489 1.08983 -2.31473e-18)
(25.3956 1.08653 -2.73112e-17)
(25.4416 1.08579 -1.17095e-17)
(25.4889 1.08775 -9.12837e-18)
(25.5373 1.09248 -2.4296e-17)
(25.5862 1.09983 2.40255e-17)
(25.6353 1.10992 1.03547e-18)
(25.6845 1.1226 -8.93886e-20)
(25.7339 1.138 -8.47288e-18)
(25.7834 1.15601 -1.5702e-17)
(25.8329 1.17671 2.23178e-18)
(25.8823 1.20013 1.80698e-17)
(25.9315 1.22625 -1.7828e-17)
(25.9803 1.25517 3.07817e-18)
(26.0284 1.28688 5.23956e-20)
(26.0757 1.3214 7.35422e-19)
(26.1218 1.35874 -1.47898e-20)
(26.1666 1.39884 8.21094e-18)
(26.2096 1.44167 -1.10332e-17)
(26.2507 1.4871 -6.72575e-19)
(26.2894 1.53499 -1.49493e-17)
(26.3257 1.58519 -2.03227e-17)
(26.3591 1.63745 1.17699e-18)
(26.3895 1.69155 1.14282e-17)
(26.4167 1.74718 2.34553e-17)
(26.4405 1.8041 7.66272e-18)
(26.4609 1.86195 1.06554e-17)
(26.4776 1.92043 -1.3799e-17)
(26.4908 1.9792 2.74017e-17)
(26.5003 2.03795 -9.69259e-18)
(26.5063 2.09634 -2.06578e-17)
(26.5087 2.15408 1.95305e-17)
(26.5078 2.21086 5.11684e-17)
(26.5035 2.26644 -3.31739e-17)
(26.4962 2.32055 -1.11269e-17)
(26.4859 2.37298 -4.37988e-17)
(26.4729 2.42354 1.06364e-16)
(26.4573 2.47208 6.65998e-17)
(26.4395 2.51846 -1.77984e-16)
(26.4196 2.56259 7.93871e-19)
(26.3979 2.60441 2.19474e-16)
(26.3746 2.64385 -5.71434e-17)
(26.3499 2.68092 -5.40593e-17)
(26.3241 2.71561 -1.37123e-16)
(26.2973 2.74794 5.59543e-17)
(26.2697 2.77796 3.99361e-16)
(26.2417 2.80574 1.48667e-16)
(26.2135 2.83132 -1.81319e-16)
(26.1854 2.85485 8.79287e-17)
(26.1577 2.87632 -6.55694e-17)
(26.1335 2.89331 7.42847e-18)
(26.1122 2.90752 7.8993e-19)
(26.0906 2.92013 -5.60682e-18)
(26.0681 2.93527 -2.14695e-16)
(26.0467 2.94321 -2.40134e-19)
(26.0225 2.96381 2.03195e-17)
(26.0041 2.95667 -1.36581e-16)
(25.9759 3.00044 2.68324e-16)
(25.9693 2.94509 -4.26318e-18)
(25.9278 3.06826 -8.09923e-19)
(23.7136 1.58129 -1.22476e-18)
(22.7517 1.52809 3.96504e-19)
(21.6637 1.45516 1.5009e-19)
(20.6007 1.36624 6.34864e-19)
(19.7467 1.27381 -3.89165e-18)
(19.2805 1.19337 4.55881e-18)
(19.3172 1.13995 -1.82515e-18)
(19.8606 1.12306 -4.68449e-19)
(20.8131 1.14398 3.89222e-18)
(22.02 1.1972 -9.7157e-18)
(23.2862 1.27087 -1.61353e-18)
(24.3709 1.34486 -1.67598e-17)
(25.0434 1.39447 -1.0426e-17)
(25.2703 1.40804 -2.36399e-18)
(25.2777 1.39982 1.99543e-18)
(25.2875 1.39019 1.29118e-17)
(25.3374 1.38465 2.17559e-18)
(25.3908 1.38064 -6.66629e-18)
(25.4326 1.37653 1.63192e-18)
(25.4693 1.37285 3.23104e-19)
(25.5068 1.3703 7.56961e-18)
(25.5464 1.36929 3.35353e-17)
(25.5871 1.3699 -8.23326e-18)
(25.6283 1.37236 3.80196e-19)
(25.6698 1.37678 -8.31184e-18)
(25.7117 1.38341 1.11382e-19)
(25.7538 1.39232 -5.97484e-19)
(25.7961 1.40368 1.81967e-19)
(25.8385 1.41756 7.64082e-18)
(25.8809 1.43403 -2.68896e-18)
(25.9231 1.45314 4.92464e-18)
(25.965 1.47492 4.23376e-18)
(26.0065 1.49937 -3.60177e-18)
(26.0473 1.52648 3.86415e-19)
(26.0872 1.55623 6.14166e-18)
(26.1261 1.58857 6.59027e-18)
(26.1636 1.62344 1.06369e-18)
(26.1996 1.66073 -4.39799e-18)
(26.2338 1.70036 2.49091e-17)
(26.266 1.74216 -3.81994e-18)
(26.2959 1.78599 -6.22225e-18)
(26.3233 1.83162 1.02754e-17)
(26.348 1.87886 1.85095e-17)
(26.3699 1.92746 2.98829e-17)
(26.3888 1.97715 -4.17807e-17)
(26.4046 2.02766 5.23385e-18)
(26.4173 2.0787 -8.56571e-18)
(26.4268 2.12999 -1.84844e-17)
(26.433 2.18124 1.76842e-17)
(26.4361 2.23215 -2.60645e-18)
(26.4361 2.28246 -4.16174e-17)
(26.433 2.33192 -1.0405e-17)
(26.4271 2.38027 9.28414e-18)
(26.4183 2.42731 -7.43213e-18)
(26.407 2.47283 -2.34228e-18)
(26.3933 2.51669 1.52382e-16)
(26.3774 2.55873 7.75178e-19)
(26.3595 2.59886 -1.15011e-16)
(26.3398 2.63697 2.70681e-19)
(26.3185 2.67301 -1.57001e-18)
(26.2958 2.70695 9.12507e-18)
(26.272 2.73878 -3.73229e-18)
(26.2471 2.76848 -2.27383e-16)
(26.2216 2.79611 -8.04847e-17)
(26.1957 2.82168 1.63898e-16)
(26.1696 2.84532 -8.55987e-17)
(26.1438 2.86699 5.02227e-17)
(26.1211 2.88418 1.12115e-16)
(26.101 2.89869 -1.44528e-16)
(26.0806 2.91146 -2.64953e-16)
(26.0592 2.92716 -9.8304e-19)
(26.0388 2.93503 -2.50578e-19)
(26.0157 2.95675 -7.44785e-17)
(25.998 2.94888 7.51327e-17)
(25.9714 2.99487 -7.18998e-18)
(25.9642 2.93749 -4.3677e-18)
(24.5527 1.72514 -6.37105e-20)
(23.8717 1.68834 2.98966e-19)
(23.0208 1.63577 1.50143e-18)
(22.0917 1.56756 5.25832e-19)
(21.2018 1.49028 3.25474e-18)
(20.4893 1.41301 -2.97474e-18)
(20.0924 1.34748 6.85447e-19)
(20.1101 1.30589 -3.91797e-19)
(20.561 1.29656 1.08899e-17)
(21.3787 1.32128 1.73461e-17)
(22.437 1.37559 -1.49046e-18)
(23.5614 1.44836 1.00858e-18)
(24.5334 1.52076 4.41932e-18)
(25.1556 1.57094 1.20579e-17)
(25.3935 1.58892 2.27278e-18)
(25.4206 1.58611 -2.13805e-18)
(25.426 1.58014 -1.93717e-18)
(25.4603 1.5774 1.10258e-18)
(25.5004 1.57629 2.74185e-18)
(25.5326 1.57528 8.45885e-18)
(25.5607 1.57443 2.04589e-18)
(25.5898 1.57429 -2.42602e-18)
(25.6208 1.57508 -1.06569e-17)
(25.6527 1.57689 2.84003e-17)
(25.6851 1.57976 -1.56835e-17)
(25.718 1.58387 -5.02997e-19)
(25.7514 1.58937 8.63832e-19)
(25.7853 1.59642 -9.53103e-20)
(25.8196 1.60518 -6.42178e-18)
(25.8543 1.6158 -4.70825e-19)
(25.8893 1.62842 -1.07604e-17)
(25.9245 1.64314 8.87852e-19)
(25.9597 1.66008 4.17239e-18)
(25.9947 1.67929 2.29428e-19)
(26.0293 1.70084 3.9287e-18)
(26.0635 1.72474 2.62602e-18)
(26.0969 1.75099 -7.55404e-18)
(26.1293 1.77955 -1.03742e-17)
(26.1606 1.81038 -1.48176e-17)
(26.1905 1.84338 8.60327e-18)
(26.2187 1.87846 6.66707e-18)
(26.2451 1.91547 1.52262e-17)
(26.2695 1.95427 -6.73131e-18)
(26.2916 1.99465 -2.04024e-17)
(26.3113 2.03642 -4.70037e-18)
(26.3285 2.07937 1.5253e-17)
(26.343 2.12324 -7.49264e-18)
(26.3548 2.16779 -1.63932e-17)
(26.3637 2.21278 1.589e-17)
(26.3697 2.25791 2.76544e-17)
(26.3729 2.30296 3.7011e-17)
(26.3733 2.34765 -9.68697e-18)
(26.3709 2.39175 4.67935e-17)
(26.3658 2.43503 -7.06426e-18)
(26.3582 2.47728 -2.2478e-18)
(26.3481 2.51831 -1.47861e-16)
(26.3357 2.55796 7.57194e-19)
(26.3213 2.59608 8.93914e-17)
(26.3049 2.63254 5.27671e-17)
(26.2868 2.66727 -1.56941e-18)
(26.2671 2.70018 2.01156e-16)
(26.2461 2.73123 -3.78058e-18)
(26.2239 2.76038 -2.43924e-19)
(26.2008 2.78764 -4.1299e-17)
(26.1771 2.81301 -8.85347e-18)
(26.1531 2.83657 -3.08085e-17)
(26.1292 2.8583 -5.56754e-20)
(26.108 2.87558 -9.60998e-17)
(26.0891 2.8903 1.4576e-16)
(26.0699 2.90315 4.14769e-18)
(26.0497 2.91933 -1.41104e-16)
(26.0303 2.92709 4.83777e-17)
(26.0085 2.94982 1.31515e-16)
(25.9915 2.94126 -3.90914e-19)
(25.111 1.85168 -4.90643e-19)
(24.6912 1.82884 2.38915e-19)
(24.0744 1.79263 3.30239e-19)
(23.3195 1.74179 3.5231e-19)
(22.5041 1.67988 1.5593e-19)
(21.724 1.61177 -4.62093e-20)
(21.0918 1.54476 4.33876e-19)
(20.7229 1.48882 -2.47711e-19)
(20.7069 1.45437 -4.15743e-19)
(21.0727 1.44904 -1.20439e-18)
(21.7758 1.47497 3.47507e-19)
(22.7117 1.52846 -8.89848e-19)
(23.7247 1.5992 1.67844e-18)
(24.6199 1.66992 -2.92063e-19)
(25.2219 1.72105 1.3505e-18)
(25.4833 1.74278 4.34834e-19)
(25.5318 1.74322 -2.54478e-18)
(25.5341 1.73814 7.52527e-19)
(25.5553 1.73522 1.93315e-18)
(25.5861 1.73428 -5.88729e-19)
(25.6131 1.73384 -1.25423e-18)
(25.6368 1.73366 -1.94642e-18)
(25.6608 1.73411 1.6082e-18)
(25.686 1.73543 -1.24223e-18)
(25.7119 1.73764 1.52922e-18)
(25.738 1.74079 -5.581e-19)
(25.7644 1.74496 4.92436e-18)
(25.7913 1.75027 -3.95903e-18)