/*--------------------------------*- C++ -*----------------------------------*\
| =========                 |                                                 |
| \\      /  F ield         | OpenFOAM: The Open Source CFD Toolbox           |
|  \\    /   O peration     | Version:  2306                                  |
|   \\  /    A nd           | Website:  www.openfoam.com                      |
|    \\/     M anipulation  |                                                 |
\*---------------------------------------------------------------------------*/
FoamFile
{
    version     2.0;
    format      ascii;
    arch        "LSB;label=32;scalar=64";
    class       volScalarField;
    location    "125";
    object      div(phi);
}
// * * * * * * * * * * * * * * * * * * * * * * * * * * * * * * * * * * * * * //

dimensions      [0 0 -1 0 0 0 0];

internalField   nonuniform List<scalar> 
10720
(
0.00257345
-0.00186327
0.000967239
-0.000886966
0.000659321
0.000443322
0.000471021
0.00087931
0.000527413
0.000462799
0.00036875
0.00028001
0.000214742
0.000180553
0.000164637
0.0001798
0.000194475
0.00024625
0.000264606
0.000354719
0.000290598
0.00038715
-1.73502e-05
-9.39214e-05
-0.000192238
-4.20847e-05
0.000119248
0.000156448
0.000169249
0.000219139
0.00106672
-0.000517022
0.000261476
0.000493198
0.00117475
-0.000319793
-0.000865794
0.000857143
0.000702135
-0.00159356
0.0034432
5.78689e-05
0.00130054
0.000170947
-0.000248312
-0.00197423
-0.000567395
-0.000106635
5.2944e-05
5.00508e-05
0.00012744
8.451e-05
0.000133893
8.57522e-05
0.000119286
5.66812e-05
8.11047e-05
-2.3226e-05
-1.16854e-06
-0.000113511
-9.7089e-05
-0.000119692
-0.00011551
-9.47918e-05
-8.24273e-05
-4.24111e-05
-1.37344e-05
-0.000126756
-1.80481e-05
-1.99531e-05
-7.26257e-05
-0.000157635
-0.000277345
-0.000626578
-9.96099e-06
-0.000192008
-0.00061388
-0.00103235
0.000739872
-0.00057372
0.000494329
-0.000430582
0.000611977
0.000452876
0.000943086
0.000354674
0.000521799
0.000387395
0.000315133
0.000257861
0.000230961
0.000204244
0.000192989
0.000190349
0.000182055
0.000194132
0.000177529
0.000194066
0.000111538
7.00612e-05
-0.000236502
-0.000338712
-0.00035026
-0.000129945
0.000108053
0.000341206
0.000419527
0.000513781
0.00113091
-0.000116832
0.00045555
0.000515924
0.000877014
0.000484606
-0.000454787
0.000273325
0.000537958
0.00079992
0.00106112
0.000431689
0.000416939
-0.000111073
-0.000803514
0.000207672
-0.000128192
4.76746e-05
4.80678e-05
9.21081e-05
0.000109937
0.000117683
0.000147972
0.000117279
0.000134644
7.94578e-05
7.8872e-05
-7.2778e-06
-1.51424e-05
-9.2241e-05
-6.89723e-05
-4.07693e-05
-3.11899e-06
-1.74168e-05
-9.50606e-05
-0.00016213
-0.000231258
-0.000378284
-0.000130515
-0.000229149
-0.000281101
-0.00034943
-0.000378947
-0.000606285
-0.000470429
-0.000412997
-0.000763342
-0.00125544
-0.0019445
0.00110141
-0.00115901
0.000783182
0.0003318
0.000694205
0.000421111
0.000681491
0.000307348
0.000269642
0.000212494
0.000179808
0.000161544
0.000152798
0.000169753
0.000184308
0.000217614
0.000239792
0.000277381
0.000296289
0.000303541
0.000277213
0.000158266
6.53518e-05
1.09067e-05
2.04822e-05
-1.69065e-05
4.4144e-05
-7.24774e-05
-6.40473e-06
0.000328015
-0.000313059
6.85349e-05
0.00023127
0.00068699
-0.000475876
-0.000468752
0.000523447
0.00013493
0.00165167
-0.000391774
0.000350123
-0.000272257
-0.000241817
0.000296914
-0.000312472
0.000230652
0.000157686
0.000114026
0.000118214
8.74933e-05
0.000128991
9.26834e-05
0.000120512
7.24705e-05
7.36558e-05
2.81512e-05
-6.42326e-06
-3.82534e-05
-9.60682e-05
-0.000104961
-0.000143148
-0.000140276
-0.000135459
-9.33165e-05
-1.36602e-05
1.63992e-05
-5.95294e-06
-6.61847e-06
1.45059e-05
2.83789e-05
-9.19639e-05
-0.000223909
-0.000580629
0.000210556
-6.98965e-05
-0.000424052
-0.000654766
0.00119252
-0.000776927
0.000492611
0.000104965
0.000326218
0.000706404
0.000571278
9.60718e-05
0.000249619
0.000182438
0.000151675
0.000160741
0.000158768
0.000183379
0.000198387
0.000219147
0.000246394
0.000254926
0.000275057
0.000256498
0.000231626
0.000127398
-4.34103e-05
-0.000210515
-0.000234549
-0.000168652
8.94033e-06
0.00021929
0.000318239
0.000455435
0.000800804
6.44645e-05
0.000425732
0.00045249
0.000734391
0.000466951
-0.000222704
0.000207397
0.000249465
-0.00044732
-1.9827e-05
-0.000221029
-0.000513953
9.90811e-05
-0.00036918
0.000417457
0.000215097
0.000153667
0.000142769
0.000100901
0.000111519
0.000123377
0.000119857
0.000129813
9.12165e-05
7.8499e-05
1.43793e-05
-1.42479e-05
-7.8854e-05
-0.000103566
-0.000113961
-7.96141e-05
-4.37105e-05
-2.998e-05
-7.00187e-05
-0.00011707
-0.000192567
-0.000294746
-0.000180484
-0.000268274
-0.000295515
-0.000385103
-0.000413784
-0.000663746
-0.000495911
-0.000486558
-0.000805175
-0.00125425
0.000885868
0.000177005
0.000198979
0.000178205
0.00075703
0.000221653
0.000140919
0.000322511
0.000103636
9.27411e-05
0.000104627
0.000107627
0.000120834
0.000138899
0.000150894
0.000181096
0.000196719
0.000231353
0.000239301
0.000270927
0.000258082
0.000248623
0.000173899
0.00011112
5.26751e-05
-5.58858e-06
-1.18306e-06
-4.10909e-05
-9.22055e-05
-0.00010569
9.60881e-05
-0.000241713
3.60216e-06
0.000193005
0.000652867
-0.000608961
-0.0004085
0.000475515
5.89273e-05
-0.000368822
-4.50265e-05
-0.000801671
9.089e-05
-0.000483492
0.00023913
0.000142324
0.000235954
0.000191989
0.000123874
9.49085e-05
0.000107901
9.41378e-05
0.000133162
9.45106e-05
0.000109181
5.17546e-05
4.6521e-05
-4.92007e-06
-2.21782e-05
-6.96696e-05
-8.21214e-05
-0.000117297
-0.000124206
-0.000128956
-9.13171e-05
-2.32253e-05
3.85989e-05
2.6419e-05
-4.58657e-06
5.74899e-05
8.8468e-05
-2.78313e-05
-0.000167382
-0.000526694
0.00035787
-4.40687e-06
-0.000329486
-0.000465499
-4.25148e-05
0.000432308
0.000452372
0.000558679
0.000102747
0.000455718
0.000241813
-1.82083e-05
8.3111e-05
8.15643e-05
0.000100612
0.000103829
0.000149698
0.000164989
0.000203275
0.000228322
0.000260821
0.000292432
0.000298121
0.000305593
0.000258033
0.000201144
5.24929e-05
-5.58187e-05
-0.000158206
-0.000142839
-8.55948e-05
9.61492e-05
0.000194121
0.000365686
0.000584131
0.000182738
0.000412783
0.000477556
0.000768031
0.000445936
-0.00011704
0.000233649
0.000187045
-1.9263e-05
-0.000558415
-0.000172005
-0.000463519
0.000165834
0.000119051
0.000264164
0.000193626
0.000173745
0.000118502
0.000101961
9.02724e-05
0.000110476
0.000116851
0.000118301
9.64954e-05
5.06036e-05
2.00205e-05
-3.52341e-05
-7.49725e-05
-0.000109735
-0.000117714
-9.54959e-05
-6.26674e-05
-3.30155e-05
-3.7909e-05
-5.9419e-05
-0.000109915
-0.000180682
-0.000159201
-0.000229446
-0.00027353
-0.000348991
-0.00039647
-0.000614479
-0.000452801
-0.000487259
-0.000754158
-0.0011074
-0.000144234
0.000681295
0.000398034
0.000333633
0.00055548
6.00275e-05
3.43142e-05
0.000132065
5.87185e-05
8.49759e-05
9.04934e-05
0.000118126
0.000129723
0.000143789
0.000158447
0.00016294
0.000185947
0.000191044
0.000212456
0.000207021
0.000216242
0.000184782
0.000165597
0.00010885
7.18331e-05
8.47818e-06
-2.48447e-05
-4.05743e-05
-0.000156056
-0.000132792
-6.76396e-05
-0.00022028
-4.26757e-05
0.000151791
0.000601373
-0.000779394
-0.000447238
0.000489431
1.78441e-05
3.07092e-05
-0.000397858
-8.30369e-05
7.88888e-05
0.00025732
0.000164849
0.000159762
0.000216389
0.000141298
0.000105429
7.60234e-05
7.26308e-05
0.000103785
0.000102562
0.000122871
7.93621e-05
7.31832e-05
3.00337e-05
2.74152e-05
-2.19527e-05
-2.48925e-05
-6.74044e-05
-7.0156e-05
-0.000101698
-9.69632e-05
-8.60993e-05
-2.92362e-05
2.76248e-05
2.44233e-05
1.35154e-05
5.82424e-05
0.000128768
1.33624e-05
-0.000117007
-0.000418841
0.000464056
0.000100671
-0.000224991
-0.000229714
0.0007854
0.000459805
0.000576396
0.000334912
0.000128683
0.000179415
6.77396e-05
-4.2543e-06
4.86652e-05
0.000106049
0.000122535
0.000153427
0.000155306
0.000201391
0.000209855
0.000243314
0.000265508
0.000294528
0.000312068
0.00030024
0.000285024
0.000216304
0.000145261
2.89045e-05
-4.14629e-05
-0.000110322
-9.72677e-05
-2.76675e-05
6.43367e-05
0.000207045
0.000376331
0.000196301
0.000355641
0.000444212
0.000713047
0.000372435
-4.46e-05
0.000276377
0.000168051
-0.000202596
4.15496e-05
-6.78008e-05
0.000580752
0.000201702
0.000216802
0.00017309
0.000177803
0.000133083
9.96359e-05
6.82579e-05
7.64604e-05
8.41212e-05
0.000116549
0.000105254
8.58601e-05
4.98195e-05
2.27111e-05
-2.12166e-05
-5.44456e-05
-9.20727e-05
-0.000100021
-9.29475e-05
-6.66425e-05
-3.62298e-05
-2.07549e-05
-1.83017e-05
-4.05226e-05
-8.28371e-05
-0.000100096
-0.000160417
-0.000217925
-0.000301822
-0.000364423
-0.000547506
-0.000377267
-0.000446503
-0.000652115
-0.000862858
0.000491856
0.000535698
0.000146152
0.000527494
2.28416e-05
-5.29161e-05
6.21529e-05
7.85199e-05
9.94646e-05
0.000109045
0.000146302
0.000145185
0.00016873
0.000169847
0.000172612
0.000173332
0.00016825
0.000178245
0.000168239
0.000176043
0.000154078
0.00015612
0.00011858
0.000115251
5.48171e-05
4.01494e-05
-3.06283e-05
-4.50489e-05
-0.000151346
-0.000166147
-0.000123585
-0.00016469
-9.77588e-05
0.000126239
0.000472526
-0.000838282
-0.000433128
0.000476194
-1.44251e-05
0.000211383
-0.000152841
0.000460109
6.72232e-05
0.000408855
0.000170856
0.000142824
0.000106717
0.000126906
7.14193e-05
5.38028e-05
6.00499e-05
8.10389e-05
0.000105257
9.33849e-05
8.08451e-05
5.1014e-05
5.1214e-05
1.92264e-05
1.44404e-05
-2.11279e-05
-2.59128e-05
-5.22706e-05
-6.10601e-05
-7.55519e-05
-6.74003e-05
-3.79217e-05
8.43088e-06
4.45028e-06
2.50382e-06
6.33601e-05
0.000117616
4.68548e-05
-8.58478e-05
-0.00032679
0.000507811
0.000153358
-0.000143016
-5.48727e-05
0.000685572
0.000750663
0.000984088
2.77098e-05
0.000498253
0.00030241
1.8778e-05
5.05895e-05
0.000132239
7.45773e-05
0.000119781
0.00015757
0.00020444
0.000204415
0.000239939
0.000243798
0.000264064
0.000279907
0.000292593
0.000289347
0.000265125
0.000230427
0.000172171
0.000101125
3.07268e-05
-4.28767e-05
-7.47946e-05
-8.32487e-05
-2.83615e-05
5.37425e-05
0.000216092
0.000136734
0.000256486
0.000394241
0.000621735
0.000282353
2.34827e-05
0.000276592
0.00014176
8.58314e-05
0.000295809
-9.51401e-07
0.000589717
0.000247278
9.64315e-05
0.000103077
0.000277333
5.42474e-05
5.57062e-05
5.08449e-05
5.03387e-05
8.46535e-05
9.15099e-05
9.50755e-05
6.55804e-05
5.9349e-05
2.77485e-05
1.48688e-05
-3.28065e-05
-5.19272e-05
-7.92145e-05
-7.25097e-05
-6.53872e-05
-3.85958e-05
-1.93304e-05
-5.16151e-06
-2.92741e-06
-2.37015e-05
-3.93793e-05
-8.39617e-05
-0.00014877
-0.000234421
-0.00032942
-0.000485968
-0.000310323
-0.000402402
-0.000557051
-0.000646608
0.000806937
0.000561435
4.20092e-05
0.000464265
0.000232332
-3.57997e-05
0.000410776
0.000289047
-9.84302e-06
0.000185578
0.000198761
0.000170775
0.000169243
0.000192599
0.000185743
0.000179139
0.000166943
0.000155878
0.000152993
0.000130633
0.00013199
0.000100145
0.000112711
6.62434e-05
8.16421e-05
8.38787e-06
2.34052e-05
-7.31128e-05
-0.000100333
-0.000185356
-0.000100682
-0.000188586
-7.43038e-05
8.33226e-05
0.00036909
-0.00080089
-0.000421412
0.000425771
-3.49867e-05
0.000244063
0.000186921
0.000195392
0.000308267
0.000330248
0.000274415
0.000218802
0.000117824
5.55375e-05
1.17315e-05
2.42625e-05
4.89706e-05
6.9051e-05
8.53747e-05
7.36951e-05
6.17421e-05
5.39647e-05
4.75326e-05
3.95314e-05
1.74875e-05
3.19287e-06
-1.60449e-05
-2.37978e-05
-4.31924e-05
-4.91581e-05
-5.60957e-05
-3.86479e-05
-1.05543e-05
-1.79659e-05
-1.17987e-06
3.8249e-05
0.000112086
3.59529e-05
-5.63078e-05
-0.000253084
0.000502898
0.00020099
-8.86658e-05
3.61247e-05
0.000423356
0.000468831
0.000500752
7.64338e-05
0.000135914
0.000396042
0.00024383
5.99605e-05
0.00056557
7.08609e-05
7.34442e-05
0.000202329
0.00019053
0.000221484
0.000221094
0.000234038
0.000234659
0.000242118
0.00025151
0.000251474
0.000233121
0.000214542
0.00017491
0.0001341
7.71839e-05
1.90202e-05
-3.16113e-05
-7.36917e-05
-6.93114e-05
-3.21753e-05
9.31693e-05
5.41652e-05
0.000142
0.000307688
0.000533111
0.000194336
6.23047e-05
0.000252629
0.000105534
0.000357308
0.000241832
0.000245704
8.23254e-05
0.000298257
0.000146868
0.000271803
0.000151331
1.47478e-06
-2.00968e-05
1.08761e-05
4.24126e-05
6.30771e-05
7.79224e-05
6.43144e-05
6.56072e-05
5.01523e-05
5.96455e-05
2.58977e-05
9.89211e-06
-3.08347e-05
-4.22151e-05
-5.91651e-05
-5.33779e-05
-4.39873e-05
-2.67873e-05
-1.04249e-05
6.86564e-07
4.8745e-07
-3.1546e-06
-2.55515e-05
-7.72372e-05
-0.000163632
-0.000272467
-0.000425268
-0.000243848
-0.000352101
-0.000465599
-0.000472961
0.000460207
0.000489445
-3.57014e-05
0.000298566
0.000252837
6.08326e-05
0.000196457
0.000482529
1.23185e-05
0.000458827
0.000233709
0.000120158
0.000159933
0.000167627
0.000179813
0.00016076
0.000147338
0.000133206
0.000119161
0.000110971
8.79406e-05
8.93744e-05
6.38492e-05
7.29049e-05
3.91956e-05
4.21687e-05
-8.49833e-07
-1.81901e-05
-9.38167e-05
-0.000125641
-9.01807e-05
-0.000128775
-9.80649e-05
0.000100909
0.000265941
-0.000745198
-0.000401307
0.000361191
-4.2051e-05
0.000171847
0.000234666
0.000151908
0.000320566
4.11291e-05
0.000239397
0.000219828
0.000190843
-3.74488e-05
-1.3204e-05
1.79147e-05
3.63753e-05
6.19284e-05
5.77916e-05
6.0716e-05
4.80493e-05
5.97099e-05
5.22481e-05
4.79728e-05
2.35048e-05
1.12051e-05
-4.69701e-06
-1.34784e-05
-2.70662e-05
-3.64227e-05
-4.40336e-05
-3.75638e-05
-2.22207e-05
-2.82931e-05
-1.15448e-05
2.43641e-05
7.43574e-05
2.6862e-05
-6.02885e-05
-0.000184885
0.000485251
0.00022616
-4.90415e-05
9.25695e-05
0.00021615
0.000139012
0.00032569
1.11444e-06
6.1057e-05
0.00028756
0.000256132
1.38592e-05
0.000420926
0.000198182
0.000159286
0.000152697
0.000180637
0.000174489
0.000182956
0.000179496
0.000178428
0.000182093
0.000193417
0.000197941
0.00019765
0.000178858
0.000169633
0.000132511
0.000111405
5.42825e-05
2.65012e-05
-4.06958e-05
-4.24263e-05
-6.24711e-05
3.42177e-05
-2.19998e-05
4.25986e-05
0.000195226
0.000436346
0.000123679
8.67512e-05
0.000228855
7.21281e-05
0.000297773
0.000176252
0.000202836
6.9041e-06
0.000255245
2.24451e-05
0.000189518
0.000120828
6.39224e-05
-1.42122e-05
1.57382e-05
3.58785e-05
5.40719e-05
5.41202e-05
5.50417e-05
4.99717e-05
6.74102e-05
5.67251e-05
5.08323e-05
1.70222e-05
1.19812e-06
-2.77878e-05
-3.65038e-05
-4.86115e-05
-4.31348e-05
-3.78226e-05
-2.44356e-05
-1.20601e-05
-3.93539e-06
6.70019e-06
1.91168e-06
-2.42326e-05
-9.57739e-05
-0.000206355
-0.000358784
-0.000188089
-0.000301856
-0.000387495
-0.000334013
0.00031314
0.000216438
-0.000101334
0.000206928
0.000167385
1.29984e-06
8.01117e-05
0.000380303
3.11027e-05
9.42043e-05
0.000405067
1.3836e-05
0.000114906
0.000137949
0.000124709
0.00011685
0.000103091
9.77058e-05
9.09778e-05
8.02314e-05
7.17078e-05
5.91585e-05
5.72706e-05
4.41614e-05
4.45689e-05
2.33958e-05
2.47081e-05
-1.46409e-05
-3.24324e-05
-8.82435e-05
-4.50261e-05
-0.000102892
-6.75982e-05
0.000101476
0.000215941
-0.000641455
-0.000384461
0.000302812
-3.54813e-05
8.62045e-05
0.000155745
8.18331e-05
0.000239037
-3.69449e-05
0.000175619
9.58526e-06
8.27851e-05
-2.11995e-05
1.86536e-05
1.52879e-05
4.08203e-05
4.12205e-05
5.21868e-05
4.00659e-05
5.81693e-05
5.27939e-05
6.34698e-05
3.82849e-05
3.07549e-05
8.60258e-06
2.12981e-06
-1.08218e-05
-1.8803e-05
-2.87163e-05
-3.58796e-05
-3.29993e-05
-2.73319e-05
-2.87146e-05
-1.64528e-05
9.64066e-06
4.36679e-05
8.36174e-06
-7.79287e-05
-0.000147273
0.000426807
0.000234362
-1.53173e-05
0.000106302
8.15201e-05
6.19627e-05
0.000241823
-2.78605e-05
1.64397e-06
0.000194276
0.000164845
-8.01477e-05
0.000255213
0.000213059
-7.16657e-05
0.000361316
2.86722e-05
0.00011231
0.000106796
0.000105998
0.000115448
0.000122259
0.000137725
0.000156433
0.00015468
0.000157818
0.000141895
0.000137188
0.000110232
9.32632e-05
5.64843e-05
2.1229e-05
-7.53815e-06
-2.62121e-05
3.99916e-06
-4.82844e-05
-2.98701e-05
9.3404e-05
0.00032375
6.1701e-05
9.13769e-05
0.000204124
4.54621e-05
0.000175904
0.000103374
0.000125873
-4.67728e-05
0.000174746
-3.21885e-05
0.000116057
2.8806e-06
3.68235e-05
2.74479e-05
2.63214e-05
2.84899e-05
3.89366e-05
4.23823e-05
4.22146e-05
5.47733e-05
5.82103e-05
5.97794e-05
4.05194e-05
2.99302e-05
3.77431e-06
-8.08443e-06
-2.97228e-05
-3.62537e-05
-4.50325e-05
-4.30121e-05
-3.82986e-05
-2.93716e-05
-1.82028e-05
-3.79675e-06
4.94481e-06
2.09488e-06
-4.65417e-05
-0.000140362
-0.000286224
-0.000132785
-0.000250629
-0.000314955
-0.000229044
0.000139271
0.000184213
-8.77521e-05
0.000136661
0.000113187
-4.00117e-05
1.43181e-05
0.000269318
-2.97943e-05
3.00824e-05
0.000254245
-2.58008e-05
0.000194743
7.5817e-05
6.71399e-05
6.2042e-05
6.6131e-05
6.98669e-05
7.37557e-05
6.69139e-05
6.00787e-05
4.95379e-05
4.72046e-05
3.80909e-05
3.85487e-05
2.49526e-05
2.93682e-05
4.34619e-06
2.94345e-06
-4.15759e-05
-6.21344e-06
-6.99151e-05
-3.71907e-05
0.000104026
0.000180311
-0.000550122
-0.000365979
0.000246913
-2.03576e-05
2.24741e-05
8.80048e-05
3.15128e-05
0.000163998
-5.70944e-05
0.000116478
-2.39052e-05
7.2929e-05
1.62022e-05
3.06794e-05
2.20537e-05
2.13818e-05
3.83431e-05
3.05061e-05
4.81391e-05
4.3301e-05
6.11349e-05
4.20461e-05
4.12247e-05
1.80226e-05
1.2518e-05
-2.73572e-06
-7.2006e-06
-1.73623e-05
-2.24928e-05
-2.91655e-05
-2.83129e-05
-2.40409e-05
-2.58534e-05
-1.46916e-05
-2.3092e-07
2.07065e-05
-7.61987e-06
-9.13098e-05
-0.000122822
0.00038058
0.00023735
2.51638e-06
0.00010615
4.07954e-05
1.65485e-05
0.000166309
-4.66852e-05
-1.2574e-05
0.000127531
0.000106957
-0.000104776
0.000166361
0.000123368
-3.92154e-05
8.0099e-05
9.82938e-05
1.36894e-05
4.93741e-05
6.14771e-05
6.97531e-05
9.2625e-05
0.000106262
0.000124684
0.000133843
0.00013035
0.000129238
0.000120373
0.000114593
0.000101585
8.56595e-05
6.0333e-05
3.69511e-05
1.68174e-05
9.15942e-06
-4.18659e-05
-5.7898e-05
2.2111e-05
0.000217003
1.00716e-05
7.90129e-05
0.000181391
2.74577e-05
0.000128459
5.39853e-05
7.60941e-05
-6.04706e-05
0.000119201
-4.99212e-05
8.40363e-05
-9.59652e-06
3.91681e-05
1.69792e-05
3.16146e-05
3.9184e-05
7.94091e-06
2.7706e-05
3.81397e-05
4.60435e-05
4.84109e-05
4.05894e-05
3.53572e-05
1.87139e-05
1.08755e-05
-7.90151e-06
-1.72818e-05
-3.24184e-05
-4.07268e-05
-4.59465e-05
-4.58315e-05
-4.15307e-05
-3.31535e-05
-1.92389e-05
-5.37227e-06
4.61983e-06
-2.03778e-05
-8.7767e-05
-0.000218419
-8.2345e-05
-0.000192727
-0.00025495
-0.000149619
0.000136286
9.15694e-05
-8.43238e-05
0.0001049
6.79435e-05
-4.98882e-05
-1.22504e-05
0.000183952
-4.17866e-05
7.91527e-07
0.000124837
3.93969e-05
4.1955e-05
7.05267e-05
3.99305e-05
3.95128e-05
5.80347e-05
6.8555e-05
7.15493e-05
6.96053e-05
5.63876e-05
5.24095e-05
3.96136e-05
4.3111e-05
3.0278e-05
3.60004e-05
2.13261e-05
2.90334e-05
6.73602e-06
1.019e-05
-6.03465e-06
-1.90059e-05
-2.35388e-05
0.000103776
0.000176399
-0.000435458
-0.000327965
0.000194695
-1.22426e-05
5.00811e-06
5.25933e-05
1.43339e-05
0.000112312
-6.39908e-05
8.31084e-05
-3.54912e-05
5.85497e-05
1.56705e-05
1.58635e-05
4.25391e-05
5.77587e-06
2.06229e-05
2.05483e-05
2.56026e-05
4.57694e-05
3.28925e-05
3.94951e-05
2.02081e-05
1.89815e-05
2.41943e-06
-4.76399e-07
-1.08774e-05
-1.33824e-05
-2.2206e-05
-2.28774e-05
-2.32991e-05
-1.97075e-05
-1.87232e-05
-1.2638e-05
-2.54277e-06
7.031e-06
-1.94276e-05
-8.5141e-05
-0.000129658
0.000303439
0.000214555
2.13335e-05
9.52481e-05
2.16013e-05
1.51259e-05
0.000132989
-4.07032e-05
-2.07634e-05
9.17289e-05
6.03667e-05
-9.38647e-05
0.000114758
7.4548e-05
-4.44218e-05
1.99911e-05
1.56236e-05
3.9716e-05
-4.77215e-06
4.17026e-05
6.83055e-05
7.60207e-05
9.77657e-05
0.000106934
0.000116137
0.000112287
0.000110059
0.000105809
0.000103639
0.00010059
9.29272e-05
8.21796e-05
6.26038e-05
5.02146e-05
2.02886e-05
-1.53337e-05
-5.56215e-05
-1.7004e-07
0.0001306
-2.09002e-05
4.92875e-05
0.000150388
2.42396e-05
8.29411e-05
3.48406e-05
4.48125e-05
-5.87536e-05
8.41863e-05
-4.79854e-05
6.26671e-05
-8.92095e-06
2.75273e-05
2.71225e-05
1.69193e-05
5.32909e-05
-1.17906e-05
1.09655e-05
2.6436e-05
3.02922e-05
3.01343e-05
2.66814e-05
1.90601e-05
1.47704e-05
3.55961e-06
-2.66141e-06
-1.51446e-05
-2.82264e-05
-3.83973e-05
-4.46318e-05
-4.75129e-05
-4.6144e-05
-4.15626e-05
-3.10438e-05
-1.82539e-05
-3.95084e-06
-1.50912e-05
-5.84218e-05
-0.000164232
-4.21524e-05
-0.00013341
-0.000193374
-0.000102136
6.98665e-05
9.60525e-05
-6.02672e-05
7.706e-05
4.8781e-05
-4.96476e-05
-1.3435e-05
0.000133865
-3.98008e-05
-8.14018e-06
7.79141e-05
-1.02586e-05
1.75221e-05
-7.53343e-06
5.04919e-05
5.0302e-05
5.19783e-05
6.91602e-05
7.08305e-05
6.89969e-05
6.05116e-05
4.73601e-05
4.38929e-05
3.56191e-05
3.69515e-05
2.7746e-05
3.00836e-05
2.20614e-05
2.28834e-05
1.18915e-05
1.09451e-05
-8.44369e-06
3.36042e-06
8.91641e-05
0.000174262
-0.000364428
-0.000312352
0.000147693
-4.1123e-06
-5.94665e-06
3.44699e-05
4.95542e-06
8.05842e-05
-5.26109e-05
6.03392e-05
-3.06503e-05
4.40071e-05
1.05581e-05
1.70764e-05
2.92664e-05
-5.59796e-06
1.85e-05
6.21873e-06
2.73223e-05
1.7782e-05
2.83887e-05
1.4248e-05
1.84628e-05
4.1591e-06
3.48145e-06
-7.01141e-06
-1.00244e-05
-1.90857e-05
-1.99969e-05
-2.11881e-05
-1.88188e-05
-1.47808e-05
-1.34839e-05
-7.67487e-06
-3.55398e-06
1.07895e-06
-2.12696e-05
-7.76303e-05
-0.000129279
0.000266289
0.000201197
2.64029e-05
8.49555e-05
1.45621e-05
7.83124e-06
9.69195e-05
-3.87847e-05
-1.3476e-05
6.67678e-05
4.40277e-05
-7.61178e-05
8.2617e-05
4.47684e-05
-4.5449e-05
1.27734e-05
-1.23205e-05
2.56396e-05
2.72991e-05
-5.62593e-06
1.62261e-05
7.22044e-05
8.46067e-05
9.22576e-05
9.54363e-05
9.24121e-05
8.81031e-05
8.63745e-05
8.51965e-05
8.70058e-05
8.57277e-05
8.19894e-05
7.06059e-05
6.11908e-05
3.21563e-05
8.02816e-06
-3.34951e-05
9.07013e-06
7.42586e-05
-3.80741e-05
2.30484e-05
0.000114349
3.06261e-05
7.26393e-05
2.15026e-05
2.97644e-05
-4.90974e-05
6.03536e-05
-4.12607e-05
4.58799e-05
-1.25274e-05
2.00405e-05
1.50881e-05
1.17375e-05
3.99653e-05
-3.94596e-07
1.81903e-05
1.33799e-05
2.01619e-05
1.5723e-05
1.37792e-05
9.43144e-06
4.93253e-06
1.83856e-06
-4.91347e-06
-1.68837e-05
-2.7431e-05
-3.68024e-05
-4.07668e-05
-4.34318e-05
-4.39651e-05
-4.20476e-05
-3.60739e-05
-2.67777e-05
-1.49638e-05
-2.01387e-05
-4.88846e-05
-0.000121085
-1.49827e-05
-8.21005e-05
-0.000139069
-7.43825e-05
7.89611e-05
5.21851e-05
-5.12428e-05
6.44408e-05
3.25228e-05
-4.13349e-05
-1.13469e-05
9.74278e-05
-3.56969e-05
-5.77513e-06
5.07038e-05
-1.36391e-05
9.95135e-06
1.54532e-05
-1.34218e-05
4.29659e-05
0.000125587
6.08029e-05
6.96996e-05
6.40258e-05
5.3435e-05
4.41954e-05
3.6325e-05
3.48159e-05
3.02113e-05
2.83321e-05
2.24549e-05
2.28785e-05
1.51207e-05
1.66893e-05
4.406e-06
5.4667e-06
8.90156e-06
7.35075e-05
0.000152729
-0.000271622
-0.000251224
9.78014e-05
3.54095e-06
-5.52445e-06
2.56771e-05
5.01836e-06
5.7765e-05
-4.52665e-05
4.39831e-05
-2.88601e-05
3.07348e-05
5.14182e-06
1.07954e-05
4.35134e-06
7.82687e-06
1.54313e-05
9.74088e-06
1.01697e-05
1.77818e-05
5.98354e-06
1.38186e-05
3.03606e-06
5.17194e-06
-3.70644e-06
-8.87535e-06
-1.83174e-05
-2.17394e-05
-2.2345e-05
-1.93171e-05
-1.54461e-05
-1.12356e-05
-8.88633e-06
-4.8889e-06
-3.60157e-06
-3.3999e-07
-2.41219e-05
-5.93538e-05
-0.000115013
0.000201767
0.000158153
3.89551e-05
6.27922e-05
8.95358e-06
1.03626e-05
8.01955e-05
-2.84659e-05
-1.20523e-05
5.44191e-05
2.72344e-05
-5.76505e-05
6.45063e-05
3.14447e-05
-3.49983e-05
1.17914e-05
8.01329e-06
3.98382e-06
6.99912e-05
6.36865e-05
4.7578e-05
0.000121049
8.74174e-05
7.21539e-05
7.08781e-05
6.78081e-05
6.59205e-05
6.28884e-05
6.43352e-05
6.55941e-05
7.01552e-05
6.75826e-05
6.59024e-05
5.65738e-05
3.99238e-05
2.26194e-05
-6.62418e-06
2.90659e-05
5.30112e-05
-3.18471e-05
1.28655e-05
7.88454e-05
3.96245e-05
5.28823e-05
1.63852e-05
1.76095e-05
-4.00896e-05
4.36358e-05
-3.32026e-05
3.30671e-05
-1.2321e-05
1.33182e-05
7.43088e-06
1.19392e-05
7.3897e-06
1.02488e-05
1.53386e-05
8.88227e-06
2.74347e-06
2.27149e-05
6.49316e-07
5.07402e-06
1.61988e-06
-1.69571e-06
-1.07933e-05
-1.90025e-05
-2.9842e-05
-3.27226e-05
-3.46856e-05
-3.56538e-05
-3.68527e-05
-3.69923e-05
-3.47981e-05
-2.95641e-05
-2.31847e-05
-2.71166e-05
-4.80354e-05
-9.50354e-05
-7.55777e-06
-5.01774e-05
-9.40146e-05
-6.10201e-05
4.52569e-05
5.3279e-05
-3.6522e-05
4.96553e-05
2.64678e-05
-3.38053e-05
-5.47588e-06
7.77226e-05
-2.57937e-05
-2.28008e-06
4.38897e-05
-1.60883e-06
2.07236e-05
5.31018e-05
8.56071e-06
0.000137592
0.000125405
8.18424e-05
6.20022e-05
5.10396e-05
4.14078e-05
3.34739e-05
2.90859e-05
2.70489e-05
2.56902e-05
2.19855e-05
1.9199e-05
1.53436e-05
1.26302e-05
9.32824e-06
4.32363e-06
5.50654e-06
9.54204e-06
6.05286e-05
0.000125434
-0.000197157
-0.00019412
5.5063e-05
8.71009e-07
-1.10509e-05
1.85064e-05
1.77057e-06
4.16479e-05
-3.4156e-05
3.18897e-05
-2.2733e-05
2.18119e-05
2.3178e-06
6.75673e-06
9.59814e-07
6.59378e-06
1.45143e-05
1.30074e-06
6.11939e-06
3.3285e-05
7.78647e-06
6.9733e-06
-1.58546e-06
-4.05824e-07
-6.07657e-06
-1.53856e-05
-2.39253e-05
-2.54827e-05
-2.2805e-05
-1.70223e-05
-1.25729e-05
-8.73704e-06
-6.54739e-06
-3.84337e-06
-3.80789e-06
-3.19718e-06
-2.26435e-05
-4.775e-05
-9.88918e-05
0.000149892
0.000129218
3.22675e-05
5.39125e-05
4.75507e-07
3.88243e-06
5.92416e-05
-2.57302e-05
-5.58477e-06
4.3402e-05
2.46461e-05
-4.38438e-05
5.39244e-05
2.93204e-05
-2.17384e-05
2.49783e-05
2.58174e-05
1.64031e-05
0.000129915
6.4368e-05
0.000154828
6.59135e-05
5.19287e-05
4.54081e-05
4.46745e-05
4.58171e-05
4.36412e-05
4.31937e-05
4.21972e-05
4.67212e-05
4.92672e-05
5.22817e-05
5.17438e-05
4.87303e-05
4.02967e-05
3.00862e-05
1.62622e-05
4.76593e-05
6.42236e-05
-1.65433e-05
1.32818e-05
5.10108e-05
4.67553e-05
4.52838e-05
8.8311e-06
1.09768e-05
-3.16581e-05
3.12272e-05
-2.62821e-05
2.37875e-05
-1.1891e-05
8.82408e-06
3.1051e-06
7.16461e-06
1.02364e-05
1.54015e-06
2.03677e-05
3.31266e-05
2.25729e-05
2.46392e-05
-6.90638e-06
3.14519e-06
-8.39164e-06
-1.03779e-05
-1.50381e-05
-2.37722e-05
-2.6586e-05
-2.73566e-05
-2.57322e-05
-2.62344e-05
-2.78496e-05
-2.92282e-05
-2.97087e-05
-2.81207e-05
-2.66949e-05
-3.09717e-05
-5.16216e-05
-7.2876e-05
-1.10806e-05
-3.15529e-05
-6.51884e-05
-5.19082e-05
4.39675e-05
2.33435e-05
-3.46238e-05
4.19674e-05
1.90606e-05
-2.63522e-05
-2.66379e-06
6.3355e-05
-1.81871e-05
3.40056e-06
4.76621e-05
1.03851e-05
2.88546e-05
7.20121e-05
-2.05301e-05
0.000119758
-6.84563e-06
3.2224e-05
3.25558e-05
2.84839e-05
2.5062e-05
2.14709e-05
2.00042e-05
1.93336e-05
1.97946e-05
1.71018e-05
1.50879e-05
1.13301e-05
9.37319e-06
5.6018e-06
3.89913e-06
3.1046e-06
9.19042e-06
5.53685e-05
8.54537e-05
-0.000122451
-0.000134456
2.65983e-05
-2.43727e-07
-9.19943e-06
1.19237e-05
1.54764e-06
2.89015e-05
-2.78556e-05
2.31175e-05
-1.92052e-05
1.48676e-05
-1.10255e-06
2.6885e-06
1.79271e-06
5.57027e-06
7.55174e-06
3.37033e-05
1.68109e-05
6.33314e-05
-6.18359e-06
2.74602e-05
-2.71435e-05
-1.23017e-05
-1.96893e-05
-2.49898e-05
-2.58367e-05
-2.55709e-05
-1.88058e-05
-1.37195e-05
-9.8591e-06
-7.26194e-06
-5.58427e-06
-4.2766e-06
-4.96376e-06
-6.06752e-06
-2.09105e-05
-4.17918e-05
-7.30619e-05
9.81867e-05
9.17793e-05
2.898e-05
3.92953e-05
-1.1572e-05
4.7114e-06
4.86495e-05
-2.04041e-05
-5.1549e-06
3.75532e-05
1.86463e-05
-3.31592e-05
4.80535e-05
3.17744e-05
-1.04023e-05
3.13294e-05
3.04737e-05
2.63197e-06
0.000106785
-4.7674e-05
9.96507e-05
-2.26398e-05
-1.02066e-05
1.87667e-05
2.5593e-05
2.82292e-05
2.83126e-05
2.67438e-05
2.71561e-05
2.94974e-05
3.35173e-05
3.6138e-05
3.88955e-05
3.83498e-05
3.6845e-05
3.12786e-05
3.30888e-05
5.22127e-05
7.90774e-05
-1.58657e-06
2.20806e-05
3.65073e-05
4.68065e-05
1.66312e-05
3.20106e-06
4.58601e-06
-2.51349e-05
2.20209e-05
-1.99315e-05
1.68986e-05
-1.04985e-05
4.40231e-06
1.26081e-06
4.10738e-06
5.6935e-07
2.65735e-05
-1.25354e-05
0.000120326
-2.65559e-06
6.49407e-05
-3.86281e-05
-1.37174e-05
-3.15881e-05
-3.18298e-05
-2.58669e-05
-2.22073e-05
-2.10078e-05
-1.74378e-05
-1.65627e-05
-1.69919e-05
-1.90799e-05
-2.12028e-05
-2.33651e-05
-2.4248e-05
-2.58181e-05
-3.19561e-05
-4.90176e-05
-5.78964e-05
-1.73345e-05
-2.64745e-05
-4.90259e-05
-4.43293e-05
2.24421e-05
1.15451e-05
-2.83647e-05
3.34897e-05
1.64227e-05
-2.08649e-05
1.67275e-07
5.62494e-05
-1.15647e-05
6.04578e-06
4.77024e-05
1.5316e-05
2.55946e-05
5.80287e-05
-3.83109e-05
8.18052e-05
-5.51472e-05
4.1154e-05
5.3944e-05
1.14282e-05
1.73665e-05
1.62126e-05
1.3776e-05
1.46927e-05
1.44051e-05
1.44025e-05
1.15233e-05
1.03122e-05
7.16693e-06
5.61583e-06
3.00145e-06
3.51334e-06
9.08762e-06
5.06923e-05
6.62611e-05
-6.34047e-05
-8.32909e-05
4.68741e-06
-2.62266e-06
-4.58046e-06
3.01353e-07
-3.07384e-06
1.95915e-05
-2.04835e-05
1.65918e-05
-1.40734e-05
9.37075e-06
-2.34809e-06
-8.77287e-08
1.62783e-07
6.27913e-06
-8.07353e-06
6.62449e-05
-1.02897e-05
7.37399e-05
-1.09168e-06
-1.38038e-05
-2.42716e-05
-5.02153e-05
-3.25757e-05
-2.31054e-05
-2.3136e-05
-1.69161e-05
-1.27074e-05
-9.02745e-06
-7.24381e-06
-6.00015e-06
-5.48232e-06
-5.07776e-06
-6.31063e-06
-7.90741e-06
-1.93348e-05
-3.51116e-05
-5.36801e-05
5.09897e-05
6.5114e-05
2.10814e-05
3.16268e-05
-1.1208e-05
1.29878e-05
4.1139e-05
-1.81e-05
-1.30483e-06
3.10706e-05
1.90655e-05
-2.68819e-05
4.25092e-05
3.05353e-05
-6.33841e-06
2.92275e-05
2.4661e-05
-1.86926e-06
8.00975e-05
-3.52144e-05
5.55428e-05
2.3445e-05
1.83346e-06
4.985e-05
2.92913e-05
2.36821e-05
2.08539e-05
1.81727e-05
1.72309e-05
1.84821e-05
2.12504e-05
2.41329e-05
2.69508e-05
2.88234e-05
2.99157e-05
2.90547e-05
4.00485e-05
5.47569e-05
3.21957e-05
1.65836e-05
2.47708e-05
3.23652e-05
3.98485e-05
1.79914e-06
9.13712e-07
1.45261e-06
-1.97233e-05
1.55093e-05
-1.49813e-05
1.17792e-05
-8.87051e-06
1.1649e-06
4.56439e-07
1.74904e-07
-2.20435e-06
7.84937e-06
1.53979e-05
7.60805e-05
6.61297e-05
-1.71037e-05
8.26843e-06
-5.9288e-05
-3.31841e-05
-2.16608e-05
-1.97515e-05
-1.53293e-05
-9.99251e-06
-8.47416e-06
-8.086e-06
-9.25669e-06
-1.21277e-05
-1.41e-05
-1.77702e-05
-1.87662e-05
-2.3318e-05
-2.78563e-05
-4.52682e-05
-4.41635e-05
-2.243e-05
-2.22728e-05
-4.02382e-05
-3.64196e-05
3.94998e-05
1.71702e-05
-2.25474e-05
2.99329e-05
1.26951e-05
-1.66697e-05
3.58997e-07
4.78595e-05
-8.92747e-06
5.36732e-06
4.3212e-05
1.25728e-05
2.00126e-05
4.36024e-05
-3.90371e-05
7.62643e-05
-9.31636e-06
7.37061e-05
5.96201e-05
3.04926e-05
2.36468e-05
1.72804e-05
1.37127e-05
1.18975e-05
1.25122e-05
1.12256e-05
1.04682e-05
8.33241e-06
7.29674e-06
4.94815e-06
4.05643e-06
4.506e-06
1.18151e-05
2.96867e-05
5.57661e-05
-4.2779e-05
-5.54298e-05
-4.58255e-06