/*--------------------------------*- C++ -*----------------------------------*\
| =========                 |                                                 |
| \\      /  F ield         | OpenFOAM: The Open Source CFD Toolbox           |
|  \\    /   O peration     | Version:  2306                                  |
|   \\  /    A nd           | Website:  www.openfoam.com                      |
|    \\/     M anipulation  |                                                 |
\*---------------------------------------------------------------------------*/
FoamFile
{
    version     2.0;
    format      ascii;
    arch        "LSB;label=32;scalar=64";
    class       volVectorField;
    location    "125";
    object      momentError;
}
// * * * * * * * * * * * * * * * * * * * * * * * * * * * * * * * * * * * * * //

dimensions      [0 1 -2 0 0 0 0];

internalField   nonuniform List<vector> 
10720
(
(2.57375 -12.8063 -6.86824e-15)
(1.78147 -12.7156 1.21195e-14)
(0.372276 -10.6547 -2.93193e-14)
(-0.503616 -10.1241 2.07771e-14)
(-1.14486 -9.11028 6.84118e-14)
(-1.5897 -8.0217 -1.17213e-13)
(-1.93233 -6.96582 7.0525e-14)
(-2.05529 -5.82382 -9.12478e-14)
(-2.01942 -4.77736 -1.99599e-13)
(-1.89469 -3.8692 2.79303e-13)
(-1.6751 -3.01576 1.03282e-13)
(-1.46181 -2.49057 -1.93782e-13)
(-0.79506 -1.40072 -2.88288e-13)
(-0.349851 -0.779698 -5.03855e-14)
(-0.0354653 -0.311821 -1.239e-13)
(0.261759 0.0783974 -2.78657e-13)
(0.547629 0.397187 -1.33976e-13)
(0.831222 0.613603 7.62119e-13)
(1.09857 0.743769 3.96674e-13)
(1.3333 0.793877 -5.64441e-13)
(1.51303 0.766613 1.0448e-13)
(1.54161 0.656902 1.45977e-13)
(1.34429 0.4573 -5.9413e-14)
(0.757419 0.284913 -1.58474e-13)
(0.344386 0.215492 3.94509e-14)
(0.189451 0.133463 -1.46978e-15)
(0.169804 0.04746 3.88116e-14)
(0.137661 -0.000293045 -1.5695e-14)
(0.100162 -0.0109227 4.20242e-14)
(0.0719599 -0.00870826 1.50755e-13)
(0.0550767 -0.00493233 3.21509e-14)
(-0.0139956 0.00300618 -1.25503e-13)
(-0.0580974 0.00806066 1.05672e-15)
(-0.0911038 0.0122864 -2.07753e-13)
(-0.12423 0.0187523 -2.78982e-13)
(-0.152075 0.0254319 1.11946e-13)
(-0.193329 0.0342725 -1.10987e-14)
(-0.193656 0.0282107 5.52787e-15)
(-0.320162 0.0307303 -7.2066e-14)
(2.85978 -11.6814 -1.4549e-14)
(2.89896 -9.26041 3.69127e-14)
(2.96489 -7.13778 -4.04128e-16)
(2.83696 -5.28178 4.15335e-14)
(2.26457 -3.09886 -3.28224e-14)
(1.09522 -1.02511 -1.21737e-13)
(-0.0183826 0.253109 2.04762e-14)
(0.0460322 -0.15208 -2.36864e-14)
(0.938496 -1.24531 -1.28553e-13)
(1.28199 -1.22202 1.00476e-13)
(1.25783 -0.964878 -5.2737e-14)
(1.19147 -0.784615 -1.34313e-13)
(1.12591 -0.64994 -1.49006e-13)
(1.03013 -0.527397 1.12281e-14)
(0.913756 -0.424526 1.17428e-13)
(0.804888 -0.349036 3.41461e-14)
(0.713215 -0.290018 -4.32064e-14)
(0.629772 -0.242043 -2.98305e-14)
(0.555104 -0.202326 -1.86678e-14)
(0.489271 -0.170072 3.24176e-14)
(0.432935 -0.142802 1.35255e-14)
(0.383598 -0.119972 1.94091e-14)
(0.340895 -0.0998423 -2.47641e-14)
(0.302164 -0.082373 -1.71708e-14)
(0.264577 -0.0655545 1.16327e-14)
(0.227206 -0.0564495 4.95516e-15)
(0.198272 -0.0434106 2.10553e-15)
(0.177552 -0.0188836 -2.16669e-16)
(0.161728 -0.00365179 1.30207e-17)
(0.133889 0.00248519 1.08036e-15)
(0.11801 0.00539192 -1.32471e-15)
(0.106418 0.00769459 -4.92511e-15)
(0.0969307 0.00923971 1.81898e-17)
(0.0885955 0.0100138 -1.66629e-14)
(0.0819413 0.010396 -1.94269e-14)
(0.077638 0.0108936 4.63862e-15)
(0.0762314 0.011607 7.32189e-16)
(0.0887215 0.013294 -7.97361e-15)
(0.0994166 0.0284592 -1.91798e-14)
(-0.610564 -9.52231 -1.67199e-14)
(-1.4218 -9.50204 1.0791e-15)
(-2.25036 -8.06803 -6.40874e-16)
(-3.22899 -7.77226 -1.27001e-14)
(-3.87199 -7.14315 1.32475e-14)
(-4.29704 -6.41859 4.6926e-14)
(-4.70129 -5.64434 7.85233e-14)
(-4.86856 -4.82919 7.40325e-14)
(-4.84392 -4.05107 -2.52672e-15)
(-4.72133 -3.32412 1.5304e-13)
(-4.5039 -2.71556 -1.75267e-13)
(-4.13023 -2.05915 -9.61595e-14)
(-4.06368 -2.26424 3.82417e-13)
(-3.88923 -2.1741 1.12957e-13)
(-3.72248 -1.8784 -1.03893e-13)
(-3.29367 -1.70068 -1.39993e-14)
(-2.93228 -1.49685 3.05025e-13)
(-2.55316 -1.33647 -1.5549e-13)
(-2.14062 -1.18807 -4.38155e-13)
(-1.67258 -1.02986 1.72312e-13)
(-1.12631 -0.845387 2.15623e-13)
(-0.509545 -0.613309 3.91831e-14)
(0.0848147 -0.343978 -9.98022e-14)
(0.540181 -0.0671052 1.7789e-13)
(0.513029 0.0615435 -3.79115e-14)
(0.371857 0.0428562 -6.65586e-14)
(0.31277 0.00672338 -2.86401e-14)
(0.259326 -0.00865649 4.97631e-15)
(0.167773 -0.0053133 -1.63146e-14)
(0.0685645 0.00101983 -2.125e-14)
(-0.00874692 0.00766772 -1.96268e-14)
(-0.0173655 0.0112871 4.29869e-14)
(-0.042596 0.0150232 -1.82122e-13)
(-0.0783548 0.0199358 -2.10012e-13)
(-0.123011 0.0283431 1.60153e-13)
(-0.169146 0.0389356 -3.36888e-14)
(-0.242038 0.0566738 3.44634e-14)
(-0.314741 0.070648 -1.13794e-14)
(-0.215976 0.0504335 -5.03829e-14)
(-0.116112 -8.86958 -2.57747e-15)
(0.497422 -7.34782 1.5188e-13)
(1.02498 -5.71736 -1.37562e-14)
(1.36933 -4.37454 -1.47504e-13)
(1.49279 -2.88257 -1.55603e-14)
(1.06173 -1.47174 1.20011e-13)
(0.56744 -0.662674 4.46815e-14)
(0.59534 -0.765145 1.16161e-13)
(1.01808 -1.13731 -2.78425e-14)
(1.30145 -1.00019 -4.00516e-14)
(1.38035 -0.769379 9.62231e-14)
(1.3625 -0.584341 -6.48517e-15)
(1.30415 -0.431898 1.39523e-14)
(1.20992 -0.303241 -1.99691e-14)
(1.09515 -0.210382 -2.90405e-14)
(0.979361 -0.153094 1.11744e-14)
(0.876388 -0.111971 1.61667e-14)
(0.782216 -0.0823761 -5.0463e-14)
(0.697272 -0.0602817 2.33449e-14)
(0.621385 -0.044836 1.52886e-14)
(0.555294 -0.0320502 1.27485e-14)
(0.496767 -0.0218985 2.63268e-14)
(0.444926 -0.0122866 3.13699e-14)
(0.396813 -0.00206842 1.31773e-14)
(0.351579 0.0109366 -1.07258e-14)
(0.30837 0.0223855 1.00463e-15)
(0.268644 0.0271575 -1.37776e-15)
(0.237084 0.0283499 -1.17197e-16)
(0.20769 0.0262118 -1.26617e-16)
(0.193282 0.017866 -3.21576e-16)
(0.173221 0.016029 1.95626e-15)
(0.152366 0.0154218 2.22113e-15)
(0.133399 0.0149338 4.24264e-15)
(0.117573 0.014511 1.08788e-14)
(0.104234 0.014359 6.0864e-15)
(0.0961914 0.0149041 -4.13784e-15)
(0.081682 0.0145452 -1.50775e-15)
(0.0936373 0.0196855 1.67579e-15)
(0.056944 0.0181292 7.05908e-15)
(0.668493 -7.92451 -8.19239e-15)
(0.186687 -7.88368 4.89787e-15)
(-0.410293 -6.79358 3.0873e-15)
(-1.02842 -6.79388 3.40457e-15)
(-1.44331 -6.45741 2.07142e-15)
(-1.80652 -5.96275 -1.4599e-14)
(-2.14875 -5.47281 -7.63378e-14)
(-2.34937 -4.9101 -6.89288e-14)
(-2.43538 -4.30437 -9.17431e-14)
(-2.45318 -3.72306 1.153e-14)
(-2.37734 -3.17337 2.13092e-13)
(-2.24713 -2.66934 6.27074e-14)
(-2.07245 -2.1876 -8.85807e-14)
(-1.89468 -1.72555 -2.08805e-13)
(-1.66776 -1.36315 9.87379e-14)
(-1.75642 -0.872476 1.28714e-13)
(-1.71434 -0.638575 -8.5091e-14)
(-1.68176 -0.484703 -1.65007e-13)
(-1.68722 -0.387621 2.8704e-13)
(-1.73824 -0.335554 -8.83522e-14)
(-1.82497 -0.332897 -1.18769e-13)
(-1.87501 -0.345153 1.75011e-13)
(-1.79119 -0.282772 5.29744e-14)
(-1.47081 -0.132559 -1.16607e-15)
(-1.01976 0.0425331 -3.02085e-14)
(-0.612166 0.132826 4.24773e-15)
(-0.385676 0.113945 -2.82219e-14)
(-0.303029 0.0615984 2.00486e-14)
(-0.227184 0.0396836 -3.0692e-14)
(-0.174088 0.0338186 -7.07527e-14)
(-0.153567 0.0327558 6.78469e-14)
(-0.161328 0.0339769 2.71912e-14)
(-0.173847 0.0359589 -1.16817e-13)
(-0.192629 0.0409165 6.99949e-14)
(-0.225335 0.051081 2.61927e-14)
(-0.267913 0.0641728 -3.67831e-14)
(-0.343999 0.0859774 -1.03456e-13)
(-0.419913 0.0990463 2.54231e-14)
(-0.470809 0.0882229 1.49261e-14)
(0.991483 -7.42901 3.61223e-14)
(1.189 -6.24802 -3.38689e-14)
(1.32121 -4.86262 -1.15686e-13)
(1.36932 -3.8055 4.71872e-14)
(1.29709 -2.70115 -5.60616e-16)
(1.02603 -1.61971 -6.54882e-14)
(0.805178 -1.11254 2.60369e-14)
(0.907047 -1.1518 -1.20938e-13)
(1.16718 -1.25671 -9.53776e-14)
(1.31517 -1.15437 -7.73885e-14)
(1.3505 -0.992157 1.00617e-13)
(1.31673 -0.833401 1.92631e-14)
(1.24576 -0.684718 -1.78242e-14)
(1.14942 -0.55278 -7.81485e-14)
(1.03929 -0.448229 -5.35737e-14)
(0.927572 -0.368738 3.4729e-14)
(0.825825 -0.305115 -1.97755e-14)
(0.734424 -0.253523 -3.8728e-14)
(0.652604 -0.211804 -3.24375e-15)
(0.579876 -0.178011 -3.38147e-14)
(0.516724 -0.149127 -3.56181e-14)
(0.461122 -0.123973 -6.79754e-14)
(0.411516 -0.100673 -4.90624e-14)
(0.365199 -0.0782588 -1.24785e-14)
(0.321534 -0.0565568 2.18824e-15)
(0.280111 -0.0394489 3.34583e-16)
(0.242024 -0.0287846 -5.11406e-15)
(0.209942 -0.0202036 1.20773e-15)
(0.182961 -0.0128382 -6.12156e-17)
(0.161371 -0.00383869 5.93627e-18)
(0.143885 0.00388415 -6.79642e-16)
(0.128944 0.00785132 -2.04856e-15)
(0.116051 0.00990505 -3.11911e-15)
(0.105057 0.0110483 -3.43753e-15)
(0.0956949 0.0119488 -4.78334e-15)
(0.0894722 0.0128896 -3.84128e-15)
(0.0821238 0.0143684 1.28368e-14)
(0.0922419 0.0175203 7.60277e-15)
(0.08326 0.0219329 -9.37757e-14)
(0.0868271 -6.51081 9.41417e-15)
(-0.372412 -6.46639 -3.86426e-15)
(-0.845477 -5.65071 3.94616e-15)
(-1.41717 -5.68533 -8.02843e-15)
(-1.80719 -5.38907 -8.91738e-15)
(-2.16665 -4.97717 2.01073e-14)
(-2.52032 -4.5746 4.1899e-14)
(-2.74231 -4.08824 4.23033e-14)
(-2.86736 -3.56019 -1.04182e-13)
(-2.92846 -3.04867 -9.02215e-14)
(-2.8884 -2.55359 1.1233e-13)
(-2.78886 -2.08808 2.14239e-13)
(-2.63584 -1.66604 1.19206e-13)
(-2.43541 -1.31874 -4.06601e-13)
(-2.22198 -1.04484 -1.43443e-13)
(-1.94201 -0.89507 3.38849e-13)
(-1.69646 -0.796532 7.97655e-14)
(-1.49623 -0.674471 -1.14639e-13)
(-1.30715 -0.576936 -2.11727e-13)
(-1.15219 -0.493672 1.85534e-13)
(-1.06066 -0.42562 4.11567e-14)
(-1.04841 -0.358566 -2.11456e-13)
(-1.11201 -0.274928 1.55272e-13)
(-1.11699 -0.135478 -1.02423e-13)
(-0.975694 0.00300506 -3.55563e-14)
(-0.771339 0.0640601 3.26356e-14)
(-0.597607 0.0503802 -4.16599e-14)
(-0.510092 0.0405314 9.17091e-15)
(-0.418543 0.0298344 1.31451e-14)
(-0.342405 0.0313281 2.02126e-14)
(-0.326793 0.0483817 -1.12914e-14)
(-0.246042 0.0448174 2.38471e-14)
(-0.254868 0.0520075 2.00821e-13)
(-0.274381 0.0568028 6.70387e-14)
(-0.308423 0.0686074 -8.67193e-14)
(-0.346165 0.0855318 -1.10329e-13)
(-0.429049 0.114173 2.03869e-14)
(-0.520309 0.130695 -2.81682e-14)
(-0.619121 0.123487 5.19091e-14)
(0.447527 -6.11937 2.12515e-14)
(0.736716 -5.26685 -3.9613e-14)
(0.968007 -4.19207 -8.79705e-15)
(1.09432 -3.37919 -2.77836e-14)
(1.09505 -2.51524 8.86662e-16)
(0.95637 -1.66172 6.9675e-14)
(0.878028 -1.3492 -1.8343e-13)
(1.02745 -1.39695 1.60879e-13)
(1.20573 -1.36896 2.95065e-16)
(1.31306 -1.22217 -1.14073e-13)
(1.34621 -1.03688 -7.8165e-14)
(1.32133 -0.851742 -1.99483e-14)
(1.25809 -0.679742 4.77104e-14)
(1.17154 -0.529214 1.24469e-13)
(1.07148 -0.406752 2.14697e-14)
(0.965749 -0.311278 -4.32979e-14)
(0.866189 -0.237995 1.94726e-14)
(0.774519 -0.181767 4.39098e-14)
(0.691294 -0.139023 -3.43505e-15)
(0.616032 -0.106489 -6.4876e-15)
(0.549724 -0.0808377 -1.82127e-14)
(0.490512 -0.0599538 4.28211e-14)
(0.436756 -0.0419555 2.42477e-14)
(0.386202 -0.0255979 -8.93407e-15)
(0.33916 -0.00996466 -1.11003e-14)
(0.295736 0.00256366 -4.97923e-15)
(0.255937 0.0101789 6.46737e-15)
(0.221421 0.0151276 -3.79379e-16)
(0.191802 0.0181011 -7.37616e-18)
(0.166461 0.0199772 -1.00732e-16)
(0.145714 0.0162321 -7.05575e-16)
(0.129128 0.0146043 -3.78376e-16)
(0.115012 0.0136454 1.64931e-15)
(0.103036 0.0130486 3.83429e-15)
(0.0927191 0.0126037 4.75537e-15)
(0.086253 0.0150136 7.76896e-15)
(0.0795323 0.013816 -1.28707e-14)
(0.0836986 0.015993 -2.08501e-14)
(0.0921653 0.0294264 -2.94278e-15)
(0.232357 -5.56056 -4.43694e-15)
(-0.112081 -5.52106 7.74567e-15)
(-0.472526 -4.89495 -3.61462e-15)
(-0.916397 -4.99584 2.30956e-15)
(-1.21903 -4.79245 -8.72008e-15)
(-1.50738 -4.49142 2.11132e-14)
(-1.80591 -4.22585 6.96061e-16)
(-1.99682 -3.86795 -4.51802e-14)
(-2.12437 -3.4663 -4.56435e-14)
(-2.20028 -3.0708 -9.65359e-14)
(-2.19463 -2.66828 1.61425e-14)
(-2.13693 -2.28004 -1.13644e-13)
(-2.03401 -1.92277 7.48757e-15)
(-1.88965 -1.60753 3.01e-13)
(-1.7334 -1.33483 -1.99658e-13)
(-1.56537 -1.10624 -1.48777e-13)
(-1.44793 -0.842772 8.73303e-14)
(-1.36979 -0.614593 -1.16229e-13)
(-1.27212 -0.454978 7.89096e-14)
(-1.16241 -0.338641 -1.36523e-13)
(-1.05644 -0.25503 -1.45216e-13)
(-0.960737 -0.190381 1.67079e-13)
(-0.88683 -0.127726 -3.72447e-14)
(-0.819203 -0.0510625 8.21984e-14)
(-0.719401 0.0230662 5.19914e-14)
(-0.588768 0.0584161 5.48476e-15)
(-0.469783 0.0477393 9.90448e-14)
(-0.364214 0.0194327 -1.9267e-14)
(-0.351189 0.0215301 2.09248e-14)
(-0.328491 0.0285656 -5.13209e-14)
(-0.262099 0.0348089 -1.44159e-13)
(-0.223362 0.0445748 -1.70923e-15)
(-0.193989 0.0433989 1.31696e-13)
(-0.189239 0.0503982 -2.81952e-14)
(-0.24652 0.0653885 -1.06158e-13)
(-0.340349 0.0901726 1.16768e-13)
(-0.469306 0.129676 -4.31992e-14)
(-0.595658 0.159333 -1.61254e-14)
(-0.74328 0.166838 4.43313e-16)
(0.497503 -5.22813 2.22142e-14)
(0.693577 -4.55559 1.72717e-14)
(0.856043 -3.67745 -3.18394e-14)
(0.957755 -3.01866 7.90556e-14)
(0.965973 -2.31386 1.81824e-13)
(0.891017 -1.68004 -2.71009e-14)
(0.893502 -1.47784 -8.2878e-14)
(1.07359 -1.50797 1.00759e-13)
(1.20768 -1.42372 1.43746e-13)
(1.28625 -1.26638 2.36063e-14)
(1.31296 -1.08929 -4.35509e-14)
(1.29032 -0.913664 5.26535e-14)
(1.22993 -0.749636 4.7153e-14)
(1.14877 -0.605394 1.83339e-16)
(1.05602 -0.485873 -8.88355e-14)
(0.955338 -0.389359 1.60608e-15)
(0.858765 -0.313688 3.01321e-15)
(0.768272 -0.254116 9.35447e-17)
(0.685776 -0.207045 1.36322e-14)
(0.610568 -0.16931 -5.65233e-15)
(0.543885 -0.138332 1.04373e-14)
(0.484232 -0.11201 -2.2066e-14)
(0.429958 -0.0886574 -1.18774e-14)
(0.378919 -0.0671853 1.1355e-14)
(0.33195 -0.0475903 1.45279e-14)
(0.289268 -0.0317605 4.02566e-16)
(0.25028 -0.0209045 -3.63974e-16)
(0.216256 -0.0133921 -1.36248e-15)
(0.187005 -0.00784264 1.14922e-16)
(0.161696 -0.0043759 1.64421e-16)
(0.140443 0.00100772 1.36518e-15)
(0.12388 0.00395461 3.02259e-16)
(0.10974 0.0066379 -5.93081e-15)
(0.0977159 0.0088901 -6.27263e-15)
(0.0877358 0.0113829 2.02436e-17)
(0.0795173 0.00953225 -1.81228e-16)
(0.074205 0.0161555 7.61609e-15)
(0.0739645 0.0159927 -1.14265e-14)
(0.0869801 0.0279942 7.71261e-15)
(0.141308 -4.77444 1.59429e-15)
(-0.163396 -4.74027 1.50094e-15)
(-0.466668 -4.24393 3.80961e-15)
(-0.856037 -4.34989 -1.2915e-15)
(-1.12686 -4.19233 -1.11598e-15)
(-1.38742 -3.94163 4.07906e-15)
(-1.66553 -3.72436 4.89777e-15)
(-1.8537 -3.42167 2.96561e-14)
(-1.99192 -3.07878 4.81819e-14)
(-2.08893 -2.73444 -2.44711e-14)
(-2.11203 -2.37444 -7.6098e-15)
(-2.08649 -2.02042 6.34806e-14)
(-2.01922 -1.68959 -1.19523e-13)
(-1.91003 -1.38673 -2.42097e-13)
(-1.77858 -1.11914 1.49799e-13)
(-1.63533 -0.886181 2.33327e-13)
(-1.49602 -0.667984 -3.09752e-13)
(-1.34437 -0.576565 5.35242e-14)
(-1.2279 -0.490256 1.03148e-13)
(-1.11911 -0.415481 -9.93514e-14)
(-1.0244 -0.347323 7.54767e-14)
(-0.941256 -0.278818 -7.69091e-14)
(-0.863926 -0.198065 -1.5895e-13)
(-0.775204 -0.100768 -4.57043e-14)
(-0.658103 -0.010166 -1.06794e-13)
(-0.527108 0.038168 5.14008e-14)
(-0.4172 0.0403757 -1.47736e-14)
(-0.347577 0.0272345 -1.00949e-14)
(-0.311247 0.0240673 1.96693e-14)
(-0.278345 0.0287232 3.89001e-14)
(-0.231943 0.0311558 3.05227e-14)
(-0.224022 0.0395661 -4.15975e-14)
(-0.171145 0.0392597 -1.08748e-13)
(-0.130344 0.0418867 -1.376e-13)
(-0.10083 0.0483997 2.74893e-14)
(-0.138657 0.0675454 7.49492e-14)
(-0.327623 0.115518 8.61311e-14)
(-0.577281 0.169747 4.14297e-14)
(-0.828061 0.203925 3.56862e-14)
(0.383223 -4.49716 9.83311e-15)
(0.567348 -3.96274 -2.37492e-14)
(0.719614 -3.24484 1.17785e-14)
(0.824554 -2.70902 -1.84517e-14)
(0.851649 -2.13241 1.65696e-14)
(0.834286 -1.69284 -8.69833e-14)
(0.899525 -1.56551 -3.0132e-14)
(1.06131 -1.54489 -1.65725e-14)
(1.1753 -1.44065 3.14961e-14)
(1.23863 -1.28324 1.29843e-13)
(1.26368 -1.11143 -2.72609e-14)
(1.24862 -0.940619 -5.92073e-14)
(1.19766 -0.778068 7.43775e-15)
(1.12683 -0.63257 -5.05252e-14)
(1.04448 -0.508657 1.36299e-14)
(0.952746 -0.404989 2.39308e-14)
(0.862141 -0.321153 3.73966e-14)
(0.775546 -0.253849 1.31841e-14)
(0.695247 -0.200061 -1.61149e-14)
(0.621126 -0.157017 1.88758e-14)
(0.554367 -0.122365 2.10755e-14)
(0.493897 -0.0939032 1.49964e-14)
(0.438303 -0.0698532 2.74222e-15)
(0.385804 -0.0488792 -1.11044e-14)
(0.337579 -0.0304103 8.44803e-15)
(0.294335 -0.015486 2.65017e-15)
(0.254973 -0.00511821 -6.99815e-15)
(0.220426 0.00202724 6.81127e-16)
(0.190575 0.00703645 1.90844e-16)
(0.164831 0.010853 -1.66744e-16)
(0.142455 0.0125595 -1.34518e-15)
(0.12564 0.0132456 4.70496e-16)
(0.111484 0.0135355 3.65729e-15)
(0.0992652 0.0137367 7.56053e-16)
(0.0889198 0.0137278 -6.88493e-16)
(0.0804261 0.0146383 -5.82492e-15)
(0.0751318 0.0147071 3.73483e-15)
(0.0732879 0.0179962 3.36746e-14)
(0.0813869 0.0317775 2.79429e-14)
(0.131296 -4.15702 3.49293e-15)
(-0.12274 -4.13966 9.20341e-16)
(-0.373236 -3.74832 -3.45501e-15)
(-0.700162 -3.86131 2.82244e-16)
(-0.929728 -3.74083 2.48944e-16)
(-1.15598 -3.55115 4.14277e-15)
(-1.40012 -3.39562 1.46942e-14)
(-1.56705 -3.14783 -7.04889e-15)
(-1.69528 -2.86383 -2.6483e-14)
(-1.79187 -2.58011 2.34512e-14)
(-1.82517 -2.27727 -5.19297e-14)
(-1.81718 -1.9758 -1.24274e-13)
(-1.77245 -1.68993 8.57782e-14)
(-1.68881 -1.422 3.18602e-13)
(-1.58197 -1.18057 -1.83802e-14)
(-1.46227 -0.96698 -3.45981e-13)
(-1.32869 -0.789092 2.87581e-13)
(-1.22966 -0.610066 2.04896e-13)
(-1.15434 -0.485637 1.15748e-13)
(-1.07568 -0.3865 5.44978e-14)
(-1.00312 -0.305388 -2.77988e-14)
(-0.934779 -0.237087 1.51674e-13)
(-0.86722 -0.16941 1.06166e-13)
(-0.783938 -0.0924554 -1.00679e-14)
(-0.66993 -0.0183374 1.97015e-13)
(-0.54204 0.0257114 -6.01313e-14)
(-0.432594 0.0327011 -6.96217e-15)
(-0.358169 0.0242359 5.23086e-15)
(-0.311205 0.021106 -1.85053e-14)
(-0.276738 0.025674 -1.90258e-14)
(-0.246321 0.0316954 -1.41572e-14)
(-0.217369 0.0358801 4.4238e-14)
(-0.191023 0.0384901 -2.13042e-14)
(-0.160171 0.0410533 -1.18067e-13)
(-0.115004 0.0454869 -1.87966e-14)
(-0.0379344 0.0527687 -9.83293e-14)
(-0.0593073 0.0851389 -6.05365e-14)
(-0.328551 0.141182 6.30873e-15)
(-0.791418 0.214323 -3.10768e-14)
(0.335108 -3.91927 -1.02609e-14)
(0.491596 -3.48306 1.2382e-14)
(0.621266 -2.88557 -2.44717e-14)
(0.715311 -2.44174 -4.54244e-15)
(0.750885 -1.96045 4.3952e-15)
(0.778676 -1.67132 1.70142e-14)
(0.870836 -1.57081 6.94642e-14)
(1.01835 -1.53222 -1.02679e-13)
(1.12204 -1.42439 -3.58472e-14)
(1.17906 -1.27396 -2.54658e-14)
(1.20508 -1.11377 1.11716e-13)
(1.19661 -0.954034 -4.04586e-14)
(1.15503 -0.800186 -1.03406e-14)
(1.09459 -0.661066 1.54888e-14)
(1.02198 -0.540495 1.72192e-14)
(0.938593 -0.437202 1.32187e-14)
(0.854404 -0.352071 -6.83466e-14)
(0.772071 -0.282766 -2.60217e-14)
(0.694237 -0.226778 3.18955e-14)
(0.621447 -0.181516 1.88462e-15)
(0.555143 -0.144888 3.11368e-14)
(0.494342 -0.114619 -7.81867e-15)
(0.438094 -0.0888547 7.2904e-16)
(0.384948 -0.0662417 1.94938e-14)
(0.336468 -0.046527 -1.51138e-14)
(0.29339 -0.0305235 -5.03873e-15)
(0.254347 -0.0188352 3.96921e-15)
(0.219934 -0.0105138 1.04076e-15)
(0.190105 -0.00446553 -7.40485e-17)
(0.164378 -7.23232e-05 1.8806e-16)
(0.141951 0.00269915 -7.83929e-16)
(0.124996 0.0058834 3.05e-16)
(0.111227 0.0077142 2.1685e-15)
(0.0993144 0.00908721 3.57864e-16)
(0.0891539 0.0102672 -9.31501e-17)
(0.0811225 0.0113477 4.49365e-15)
(0.0753386 0.0135102 -2.86392e-15)
(0.0742193 0.0170092 2.25691e-15)
(0.0805388 0.0287889 -4.04847e-14)
(0.102465 -3.646 1.80041e-15)
(-0.117235 -3.6512 2.79393e-15)
(-0.332667 -3.33257 1.40688e-16)
(-0.617061 -3.43662 -3.44535e-15)
(-0.820582 -3.34388 -1.57713e-16)
(-1.02114 -3.18331 6.61456e-15)
(-1.24212 -3.06027 5.72073e-15)
(-1.39875 -2.85821 -3.69364e-14)
(-1.52373 -2.62018 1.7211e-14)
(-1.62259 -2.37529 8.50373e-14)
(-1.66499 -2.10639 3.89416e-14)
(-1.6724 -1.83596 2.29686e-14)
(-1.64726 -1.57616 -1.5927e-13)
(-1.58574 -1.32814 -3.6481e-13)
(-1.50159 -1.10015 -2.59077e-13)
(-1.39952 -0.896788 1.02706e-13)
(-1.28747 -0.713855 -6.37303e-14)
(-1.17081 -0.566337 -3.35389e-13)
(-1.09964 -0.465905 -1.81422e-13)
(-1.02717 -0.388782 1.45746e-13)
(-0.960977 -0.319124 1.4917e-13)
(-0.899053 -0.253146 -9.1514e-14)
(-0.838439 -0.184184 -3.44887e-14)
(-0.765865 -0.108499 -6.37731e-16)
(-0.666805 -0.0368576 -5.61799e-14)
(-0.552592 0.00936054 5.80117e-14)
(-0.45058 0.0233683 6.59687e-15)
(-0.376519 0.0212721 3.9782e-15)
(-0.326801 0.0212509 -4.10141e-15)
(-0.288229 0.0267735 4.81442e-14)
(-0.253618 0.033147 3.22485e-14)
(-0.224063 0.0380275 -3.06767e-15)
(-0.20099 0.0413378 1.04984e-13)
(-0.18323 0.0445483 7.26745e-14)
(-0.166161 0.0494581 -3.8141e-14)
(-0.121007 0.0565153 6.5798e-14)
(0.0303824 0.0632396 5.59686e-14)
(0.0243062 0.102549 -3.25054e-14)
(-0.54141 0.179498 -3.48083e-14)
(0.281056 -3.44134 7.90324e-15)
(0.420124 -3.08115 -1.23456e-14)
(0.536999 -2.58071 5.80379e-16)
(0.624806 -2.20544 6.78676e-14)
(0.665983 -1.80004 6.07531e-15)
(0.716588 -1.60717 9.64612e-14)
(0.838942 -1.56819 1.34456e-13)
(0.958638 -1.48623 -3.9682e-14)
(1.05612 -1.38268 -7.18977e-14)
(1.11106 -1.2444 -5.14302e-14)
(1.13971 -1.09889 -9.39245e-14)
(1.13835 -0.952469 -2.07092e-15)
(1.10639 -0.808751 -3.90325e-14)
(1.05675 -0.67687 5.72493e-14)
(0.994262 -0.560019 1.84134e-14)
(0.920116 -0.45726 -2.87553e-14)
(0.843467 -0.37048 -5.41064e-15)
(0.766613 -0.298197 -2.26166e-14)
(0.692486 -0.238634 2.92268e-15)
(0.622045 -0.189712 -1.475e-14)
(0.556993 -0.149745 -2.91031e-14)
(0.496588 -0.116687 1.26285e-14)
(0.44014 -0.0888182 -2.28773e-14)
(0.386564 -0.0648131 -8.25822e-15)
(0.337908 -0.0443284 4.57231e-15)
(0.294847 -0.027774 2.64815e-15)
(0.255897 -0.0154179 9.13168e-16)
(0.221438 -0.00650594 -5.76411e-16)
(0.191436 -3.57379e-05 -1.8501e-16)
(0.165514 0.00460122 -9.36671e-17)
(0.142925 0.00806324 1.10918e-15)
(0.125401 0.00981078 -1.09343e-15)
(0.111821 0.0111329 -3.85783e-15)
(0.100079 0.0120564 -3.55444e-16)
(0.0900378 0.0129282 6.1782e-16)
(0.0820117 0.0138225 -3.08021e-15)
(0.076168 0.0158738 -2.41746e-15)
(0.0749225 0.0200873 1.81093e-15)
(0.0812167 0.031048 -2.08952e-14)
(0.0838511 -3.21907 2.84671e-15)
(-0.0970245 -3.33905 5.47353e-15)
(-0.29126 -2.98508 -1.85892e-16)
(-0.538225 -3.07405 -4.9389e-15)
(-0.719434 -3.05849 -5.1564e-15)
(-0.894027 -2.86775 -7.61266e-16)
(-1.09169 -2.77242 -1.40429e-15)
(-1.23415 -2.6058 -3.58048e-14)
(-1.35036 -2.4055 -1.53415e-17)
(-1.44924 -2.20598 1.19834e-14)
(-1.49566 -1.97505 -1.83489e-14)
(-1.51086 -1.73818 1.16422e-13)
(-1.49771 -1.50814 1.22418e-13)
(-1.4513 -1.28521 2.72565e-14)
(-1.38332 -1.07793 2.38205e-13)
(-1.29787 -0.890055 -5.04365e-14)
(-1.19933 -0.72248 6.21174e-16)
(-1.0938 -0.578521 1.90476e-13)
(-1.03179 -0.462545 9.13104e-14)
(-0.977082 -0.378 -2.9098e-14)
(-0.922766 -0.306058 -1.11679e-13)
(-0.868856 -0.240124 -8.27329e-15)
(-0.812735 -0.175302 -8.6117e-14)
(-0.745256 -0.107998 -7.31363e-14)
(-0.655469 -0.0446959 4.44869e-14)
(-0.552587 -0.00102528 -2.82963e-14)
(-0.458774 0.0163456 -5.17813e-14)
(-0.387617 0.0185191 5.899e-15)
(-0.337555 0.0205477 -2.87879e-15)
(-0.298133 0.0267116 -3.57838e-15)
(-0.262767 0.0336012 7.59335e-14)
(-0.231061 0.0388622 -2.72774e-14)
(-0.205483 0.0426335 -3.63682e-14)
(-0.187493 0.0464177 2.10917e-13)
(-0.176638 0.0523665 3.48121e-14)
(-0.176747 0.0613887 -7.71504e-14)
(-0.106183 0.0715658 -1.44123e-14)
(0.149582 0.0924951 2.16877e-14)
(-0.19065 0.116948 -8.27479e-15)
(0.239502 -3.04198 -1.44645e-14)
(0.362487 -2.74133 -3.526e-14)
(0.468613 -2.31718 5.49404e-14)
(0.55172 -1.99365 1.05931e-13)
(0.594279 -1.65727 6.51651e-14)
(0.658341 -1.52843 -1.62125e-13)
(0.791211 -1.51699 -1.01391e-13)
(0.908726 -1.45261 -3.76601e-14)
(0.986343 -1.32955 5.75371e-14)
(1.03884 -1.20028 6.50564e-14)
(1.07071 -1.06997 2.10883e-14)
(1.07616 -0.938453 1.2666e-14)
(1.05356 -0.807066 -2.3568e-14)
(1.0144 -0.684618 -8.32865e-14)
(0.961552 -0.573707 1.10836e-14)
(0.896584 -0.474111 2.44656e-14)
(0.827735 -0.388304 1.6801e-14)
(0.756529 -0.315318 4.63927e-14)
(0.686634 -0.254226 -2.52905e-14)
(0.619068 -0.203403 -1.90788e-14)
(0.555681 -0.161506 -1.23464e-14)
(0.496003 -0.126714 -3.14332e-15)
(0.439715 -0.0974173 2.04518e-14)
(0.386095 -0.0723232 1.30597e-14)
(0.337553 -0.0511485 1.48311e-14)
(0.294753 -0.0340838 4.69189e-15)
(0.25612 -0.0211114 -1.95728e-16)
(0.221832 -0.011578 1.36438e-15)
(0.191868 -0.00462613 -2.16043e-16)
(0.16593 0.000472614 8.93523e-18)
(0.143326 0.00399589 -1.07323e-17)
(0.125372 0.00673437 -1.33694e-16)
(0.112085 0.00866909 1.62462e-15)
(0.100596 0.0100897 1.06529e-15)
(0.0907545 0.0113584 -1.72683e-15)
(0.082857 0.0125794 3.20125e-16)
(0.0772075 0.0148335 6.77111e-16)
(0.0756212 0.0198959 -6.67068e-15)
(0.0815755 0.0315285 7.59257e-15)
(0.0661542 -2.85723 -3.50923e-15)
(-0.0927993 -2.96514 -7.76229e-17)
(-0.254621 -2.75385 -3.66198e-15)
(-0.478244 -2.75113 -1.337e-15)
(-0.635808 -2.67659 1.55324e-15)
(-0.798086 -2.65931 -3.5223e-15)
(-0.978554 -2.54444 1.79166e-14)
(-1.10369 -2.3721 1.11119e-14)
(-1.21259 -2.20159 5.58197e-15)
(-1.30879 -2.03536 -1.32027e-15)
(-1.35941 -1.8374 8.38833e-15)
(-1.38144 -1.62856 -2.82297e-14)
(-1.37741 -1.42199 -1.12469e-13)
(-1.34319 -1.21882 3.1012e-14)
(-1.28964 -1.02785 1.55408e-14)
(-1.21826 -0.852241 4.49979e-14)
(-1.1331 -0.693707 -1.13349e-15)
(-1.04109 -0.553144 -8.14105e-14)
(-0.970033 -0.446048 -1.2427e-13)
(-0.926853 -0.368017 -1.07541e-13)
(-0.880751 -0.303105 -6.39667e-14)
(-0.83385 -0.240279 -5.14204e-14)
(-0.783669 -0.17755 1.85457e-14)
(-0.722721 -0.113659 6.14139e-14)
(-0.641632 -0.0542659 -3.29605e-14)
(-0.548571 -0.011287 -1.24898e-14)
(-0.461987 0.00934509 4.08289e-14)
(-0.393674 0.0154281 1.92981e-15)
(-0.343807 0.0194607 2.2657e-14)
(-0.304319 0.0261699 -2.81516e-14)
(-0.269203 0.0333208 -9.34895e-14)
(-0.237466 0.0389036 -5.10521e-14)
(-0.210409 0.0431279 3.22779e-14)
(-0.188979 0.0470732 -1.43019e-14)
(-0.173935 0.0539787 1.92658e-14)
(-0.165969 0.0618987 2.85319e-14)
(-0.213433 0.0852815 4.89903e-15)
(0.0441398 0.103542 -1.73243e-14)
(0.0112389 0.0673229 5.19217e-14)
(0.203577 -2.70215 -2.62835e-14)
(0.313555 -2.44715 1.68191e-14)
(0.41028 -2.08605 4.4621e-14)
(0.487869 -1.8073 5.63562e-15)
(0.538375 -1.55794 1.15034e-13)
(0.61721 -1.47457 1.74842e-14)
(0.739317 -1.44889 -1.76254e-14)
(0.846975 -1.38526 -9.2711e-14)
(0.929176 -1.28986 -3.28598e-14)
(0.969708 -1.1544 6.16876e-14)
(1.00142 -1.03306 6.38665e-14)
(1.01221 -0.91491 1.0551e-13)
(0.997872 -0.796085 9.51261e-14)
(0.968495 -0.684022 -1.90038e-14)
(0.925381 -0.580454 -8.44109e-15)
(0.869261 -0.485161 1.63421e-14)
(0.808237 -0.401407 3.11275e-15)
(0.743203 -0.328567 8.18431e-15)
(0.677944 -0.266419 2.76585e-14)
(0.613759 -0.213876 -1.09539e-15)
(0.552626 -0.169994 -1.15971e-14)
(0.494237 -0.133238 -5.56168e-15)
(0.438586 -0.102238 3.0964e-15)
(0.385276 -0.0758365 1.32153e-15)
(0.337135 -0.0537821 -2.74712e-15)
(0.294714 -0.0360561 -6.64447e-15)
(0.256436 -0.0223929 6.30713e-16)
(0.222358 -0.0121779 -8.50697e-16)
(0.192457 -0.00464964 2.69043e-16)
(0.166501 0.000880785 8.34244e-17)
(0.143858 0.00490814 1.99063e-17)
(0.125352 0.00753533 -4.2598e-17)
(0.112332 0.00957736 -1.89656e-16)
(0.101077 0.0109543 5.51603e-16)
(0.0914039 0.012217 3.31098e-16)
(0.0835878 0.013504 1.16717e-15)
(0.0780501 0.0158636 -1.78527e-14)
(0.0761081 0.0212844 3.33037e-15)
(0.0819733 0.0321087 1.354e-14)
(0.0517432 -2.5463 -6.49442e-15)
(-0.0886502 -2.64407 -3.45556e-15)
(-0.231502 -2.46091 1.35113e-15)
(-0.427206 -2.47052 5.55132e-15)
(-0.567521 -2.4087 -1.23719e-15)
(-0.707834 -2.31206 -5.145e-16)
(-0.866533 -2.25467 3.32924e-16)
(-0.999379 -2.22897 -1.72543e-14)
(-1.09595 -2.03711 -3.89745e-14)
(-1.18404 -1.8821 2.22254e-14)
(-1.23449 -1.70901 1.69548e-14)
(-1.26113 -1.52603 1.4096e-14)
(-1.26377 -1.34226 5.34548e-14)
(-1.23878 -1.15897 9.72567e-16)
(-1.19623 -0.985033 2.94022e-14)
(-1.13637 -0.823251 -4.32207e-14)
(-1.06313 -0.675266 -4.80915e-14)
(-0.981769 -0.544754 5.56649e-14)
(-0.906294 -0.43384 1.1354e-13)
(-0.875301 -0.356095 5.9808e-14)
(-0.838173 -0.293722 4.30241e-14)
(-0.79836 -0.233407 3.04579e-14)
(-0.754248 -0.174411 5.72043e-14)
(-0.699814 -0.115634 -3.27659e-14)
(-0.626955 -0.0611404 -5.20126e-14)
(-0.542745 -0.0199424 3.1027e-15)
(-0.462876 0.0026922 -1.82153e-14)
(-0.397534 0.011845 -6.20212e-15)
(-0.348063 0.0176658 -3.8665e-14)
(-0.308551 0.0249507 2.06343e-14)
(-0.273811 0.0324889 5.25558e-14)
(-0.242564 0.0385348 1.16076e-13)
(-0.215825 0.0433768 1.15051e-14)
(-0.19237 0.0476676 -1.07549e-13)
(-0.177038 0.0547969 1.94922e-15)
(-0.146556 0.0634433 -1.89623e-14)
(-0.206788 0.0800241 1.90704e-14)
(-0.102101 0.115825 1.53021e-14)
(0.0215401 0.0506268 1.05639e-14)
(0.173854 -2.40976 1.02296e-14)
(0.272544 -2.19183 2.61213e-14)
(0.360077 -1.88325 -3.94675e-14)
(0.431732 -1.64166 -3.38943e-14)
(0.488047 -1.45823 -2.35409e-14)
(0.571579 -1.39395 1.67023e-14)
(0.692966 -1.39025 7.82964e-14)
(0.785806 -1.31146 -8.58159e-14)
(0.862381 -1.2243 -7.87011e-15)
(0.908028 -1.11076 1.71487e-14)
(0.937189 -0.995929 -9.89161e-14)
(0.950393 -0.887421 -1.5276e-13)
(0.942208 -0.779361 1.73696e-14)
(0.921109 -0.677256 2.41989e-14)
(0.886644 -0.581481 -1.6537e-14)
(0.838936 -0.491562 -1.49694e-14)
(0.785434 -0.410934 -3.45351e-14)
(0.726733 -0.339426 3.21178e-14)
(0.666442 -0.277321 2.68578e-14)
(0.605942 -0.223954 8.50573e-15)
(0.547395 -0.178797 2.71611e-14)
(0.490716 -0.140632 2.48619e-14)
(0.435969 -0.108306 1.0398e-15)
(0.383378 -0.0808468 -3.5165e-14)
(0.335888 -0.0580789 -7.45951e-15)
(0.294031 -0.0398455 -1.76927e-15)
(0.256224 -0.025662 -5.55672e-15)
(0.222476 -0.0149205 9.85761e-17)
(0.192746 -0.00694276 -4.0142e-17)
(0.166854 -0.00103481 1.01361e-16)
(0.144249 0.00323486 -1.379e-16)
(0.12521 0.00628414 2.87328e-16)
(0.112493 0.00865282 6.01313e-16)
(0.101493 0.0102389 -1.12383e-15)
(0.0920023 0.0117418 1.16711e-15)
(0.0842791 0.013305 -2.05423e-15)
(0.0788287 0.0158512 1.72143e-14)
(0.0766018 0.0216872 4.13212e-15)
(0.0819963 0.0325091 -6.3795e-14)
(0.039666 -2.27717 2.83989e-15)
(-0.0849487 -2.36472 1.42046e-15)
(-0.211803 -2.20542 6.9664e-15)
(-0.384487 -2.22363 5.59121e-15)
(-0.510258 -2.17259 4.08865e-15)
(-0.636325 -2.09051 -2.00655e-15)
(-0.779122 -2.04481 -1.44153e-15)
(-0.886723 -1.94622 3.13129e-14)
(-0.980274 -1.82676 -5.53334e-14)
(-1.09671 -1.81886 -5.67435e-14)
(-1.1248 -1.58391 -8.74425e-15)
(-1.15573 -1.42629 -2.60698e-14)
(-1.16291 -1.26209 5.95287e-14)
(-1.14519 -1.09609 -2.58929e-14)
(-1.11128 -0.937096 -1.24742e-13)
(-1.06135 -0.787797 8.60041e-14)
(-0.99838 -0.649999 9.13529e-14)