/*--------------------------------*- C++ -*----------------------------------*\
| =========                 |                                                 |
| \\      /  F ield         | OpenFOAM: The Open Source CFD Toolbox           |
|  \\    /   O peration     | Version:  2306                                  |
|   \\  /    A nd           | Website:  www.openfoam.com                      |
|    \\/     M anipulation  |                                                 |
\*---------------------------------------------------------------------------*/
FoamFile
{
    version     2.0;
    format      ascii;
    arch        "LSB;label=32;scalar=64";
    class       volScalarField;
    location    "125";
    object      nuTilda;
}
// * * * * * * * * * * * * * * * * * * * * * * * * * * * * * * * * * * * * * //

dimensions      [0 2 -1 0 0 0 0];

internalField   nonuniform List<scalar> 
10720
(
5.88297e-05
6.17148e-05
6.53903e-05
6.9937e-05
7.56031e-05
8.27486e-05
9.19519e-05
0.00010369
0.000119038
0.000139249
0.000166177
0.000202892
0.000253892
0.000325423
0.000428064
0.000581047
0.000814464
0.0011966
0.00181719
0.00301215
0.00503393
0.0101984
0.0194411
0.0521524
0.0918872
0.106931
0.108346
0.108529
0.109722
0.110611
0.110062
0.107945
0.104737
0.100678
0.0956488
0.0895451
0.0812273
0.071412
0.0481926
5.62201e-05
5.38235e-05
5.13254e-05
4.8843e-05
4.63352e-05
4.39431e-05
4.21598e-05
4.31667e-05
4.63499e-05
5.11339e-05
5.76897e-05
6.65883e-05
7.87225e-05
9.55875e-05
0.000119308
0.000153421
0.000203625
0.000279533
0.000398357
0.000589369
0.000914806
0.00147403
0.00254725
0.00452248
0.00897777
0.0177965
0.0400532
0.0753309
0.0996761
0.109094
0.111722
0.112419
0.112358
0.111706
0.110553
0.10902
0.106733
0.104183
0.094677
3.84466e-05
3.82374e-05
3.80405e-05
3.78655e-05
3.76615e-05
3.7463e-05
3.72954e-05
3.71307e-05
3.70142e-05
3.69506e-05
3.69359e-05
3.70447e-05
3.73302e-05
3.90413e-05
4.37733e-05
5.39568e-05
7.51305e-05
0.000118511
0.000202211
0.000391526
0.000745199
0.0017538
0.00362672
0.00970189
0.0223071
0.0392039
0.0606087
0.0854684
0.110165
0.129146
0.139245
0.142448
0.142146
0.140085
0.136936
0.133022
0.129165
0.123284
0.124603
3.86125e-05
3.88296e-05
3.90155e-05
3.92546e-05
3.94841e-05
3.96958e-05
3.9851e-05
3.98026e-05
3.95754e-05
3.92416e-05
3.88299e-05
3.83503e-05
3.78062e-05
3.71919e-05
3.64685e-05
3.56154e-05
3.45369e-05
3.3169e-05
3.1303e-05
2.87136e-05
2.48916e-05
1.94477e-05
1.20873e-05
5.48992e-06
2.64241e-05
0.000163031
0.000923367
0.00581504
0.0171691
0.0325521
0.0476164
0.0586057
0.0650178
0.068528
0.0707086
0.072528
0.0741045
0.0775526
0.080788
4.03003e-05
4.03284e-05
4.03566e-05
4.03871e-05
4.04247e-05
4.0466e-05
4.05122e-05
4.05654e-05
4.06267e-05
4.06972e-05
4.07803e-05
4.08777e-05
4.09957e-05
4.11289e-05
4.13407e-05
4.13909e-05
3.97514e-05
3.81968e-05
2.80019e-05
8.28342e-05
0.000155874
0.000112799
0.00016116
7.56699e-05
0.00060223
0.00227586
0.0057947
0.0130974
0.0271027
0.049667
0.07897
0.10899
0.132936
0.148443
0.157587
0.162685
0.166034
0.164271
0.173117
4.02754e-05
4.02454e-05
4.02173e-05
4.01854e-05
4.01555e-05
4.01362e-05
4.01216e-05
4.01309e-05
4.01554e-05
4.01908e-05
4.02315e-05
4.02747e-05
4.03243e-05
4.03785e-05
4.04394e-05
4.05065e-05
4.05826e-05
4.06696e-05
4.07739e-05
4.09007e-05
4.1062e-05
4.12711e-05
4.15493e-05
4.18681e-05
4.21364e-05
4.16492e-05
4.10124e-05
3.13627e-05
0.000179831
0.00108652
0.00379378
0.00894508
0.0162864
0.0249819
0.034011
0.0425412
0.0498624
0.0563102
0.0658579
4.00557e-05
4.00555e-05
4.00583e-05
4.00617e-05
4.00645e-05
4.0069e-05
4.00758e-05
4.00848e-05
4.00987e-05
4.0118e-05
4.0144e-05
4.01787e-05
4.0224e-05
4.02829e-05
4.03554e-05
4.04668e-05
4.05096e-05
4.04628e-05
3.896e-05
3.45854e-05
2.2066e-05
2.9369e-05
3.51422e-05
1.55336e-05
0.000125833
0.000483543
0.0012572
0.000179623
0.000975412
0.00377307
0.0122886
0.0309315
0.0603838
0.0956281
0.12818
0.153295
0.172537
0.184439
0.201004
4.0053e-05
4.00578e-05
4.00555e-05
4.00586e-05
4.00572e-05
4.00638e-05
4.0068e-05
4.00672e-05
4.00638e-05
4.00596e-05
4.00545e-05
4.0049e-05
4.00429e-05
4.00373e-05
4.00318e-05
4.00268e-05
4.00222e-05
4.0018e-05
4.00141e-05
4.00105e-05
4.00067e-05
4.00025e-05
3.99971e-05
3.99938e-05
3.99888e-05
4.0018e-05
3.99531e-05
4.03808e-05
3.88265e-05
4.4572e-05
2.27825e-05
2.62362e-05
0.000310185
0.001346
0.00373578
0.0081819
0.0149763
0.0241809
0.0419898
4.00926e-05
4.00946e-05
4.00977e-05
4.00998e-05
4.01007e-05
4.01009e-05
4.0101e-05
4.01027e-05
4.01062e-05
4.01118e-05
4.01199e-05
4.01311e-05
4.01462e-05
4.01663e-05
4.0193e-05
4.02281e-05
4.0276e-05
4.03141e-05
4.0498e-05
4.06935e-05
3.88571e-05
3.06673e-05
1.39262e-05
6.96767e-06
4.35631e-06
0
0
3.90311e-05
0.000214898
0.000858761
0.000543589
0.00181984
0.00779313
0.0259051
0.0588008
0.101051
0.142932
0.178238
0.209723
4.00888e-05
4.00896e-05
4.0085e-05
4.00829e-05
4.00754e-05
4.00741e-05
4.00746e-05
4.00762e-05
4.00787e-05
4.00813e-05
4.00839e-05
4.00865e-05
4.00891e-05
4.00914e-05
4.0094e-05
4.00967e-05
4.00999e-05
4.01033e-05
4.01072e-05
4.01114e-05
4.0116e-05
4.01211e-05
4.01268e-05
4.01334e-05
4.01423e-05
4.01503e-05
4.0177e-05
4.01386e-05
4.04348e-05
3.89709e-05
4.61987e-05
2.85398e-06
7.99816e-05
0.000325287
0.000273184
0.000222233
0.0008032
0.00215361
0.0152835
4.00838e-05
4.0085e-05
4.00879e-05
4.00906e-05
4.00929e-05
4.00959e-05
4.00994e-05
4.01032e-05
4.01076e-05
4.01126e-05
4.01183e-05
4.01253e-05
4.01338e-05
4.01444e-05
4.01582e-05
4.01765e-05
4.0202e-05
4.023e-05
4.02773e-05
4.03525e-05
4.06072e-05
4.06289e-05
3.83003e-05
3.20951e-05
2.20942e-05
8.32015e-06
6.1688e-06
4.11467e-06
0
0
0.000121972
0.000413
0.00181194
0.000979838
0.00887383
0.0348157
0.0825099
0.14255
0.197541
4.00813e-05
4.00834e-05
4.0081e-05
4.00802e-05
4.00742e-05
4.00722e-05
4.00736e-05
4.00764e-05
4.00791e-05
4.00812e-05
4.00828e-05
4.00842e-05
4.00854e-05
4.00862e-05
4.0087e-05
4.00876e-05
4.00882e-05
4.00887e-05
4.00892e-05
4.00895e-05
4.00896e-05
4.00895e-05
4.00891e-05
4.00878e-05
4.00868e-05
4.00868e-05
4.00874e-05
4.00896e-05
4.00931e-05
4.00963e-05
4.01453e-05
3.99699e-05
3.88427e-05
2.87956e-05
7.63799e-06
5.75795e-05
0.000190398
0.000561837
0.00287545
4.00818e-05
4.00828e-05
4.00854e-05
4.00877e-05
4.00897e-05
4.0092e-05
4.00943e-05
4.00964e-05
4.00985e-05
4.01004e-05
4.01019e-05
4.0103e-05
4.01036e-05
4.0103e-05
4.0103e-05
4.01043e-05
4.01077e-05
4.01125e-05
4.01196e-05
4.01257e-05
4.01665e-05
4.03408e-05
4.08626e-05
4.07689e-05
3.9922e-05
3.64966e-05
3.05433e-05
2.0071e-05
8.26505e-06
6.32716e-06
1.69614e-06
0
0
0.000225712
0.00213055
0.00301847
0.0236305
0.0850405
0.163071
4.00799e-05
4.00823e-05
4.00812e-05
4.00808e-05
4.00751e-05
4.00736e-05
4.00749e-05
4.00773e-05
4.00799e-05
4.00821e-05
4.0084e-05
4.00856e-05
4.00871e-05
4.00881e-05
4.00892e-05
4.00901e-05
4.00912e-05
4.00923e-05
4.00936e-05
4.00951e-05
4.00967e-05
4.00985e-05
4.01006e-05
4.0103e-05
4.01059e-05
4.01096e-05
4.0114e-05
4.01198e-05
4.01261e-05
4.01369e-05
4.01285e-05
4.0253e-05
4.02417e-05
3.81249e-05
3.22239e-05
2.29906e-05
7.47093e-06
0
0.000688379
4.00786e-05
4.00799e-05
4.00827e-05
4.00854e-05
4.00879e-05
4.00909e-05
4.0094e-05
4.00969e-05
4.01e-05
4.01032e-05
4.01064e-05
4.01099e-05
4.01137e-05
4.0118e-05
4.01229e-05
4.01286e-05
4.01355e-05
4.01441e-05
4.01521e-05
4.01576e-05
4.01622e-05
4.01647e-05
4.02245e-05
4.04853e-05
4.087e-05
4.15971e-05
4.14724e-05
4.02643e-05
3.61624e-05
3.02556e-05
8.01078e-06
6.98202e-06
4.37444e-08
0
0
0.000736243
0.0014749
0.0333413
0.112982
4.00769e-05
4.00793e-05
4.00793e-05
4.00798e-05
4.00746e-05
4.00731e-05
4.00746e-05
4.0077e-05
4.00796e-05
4.00817e-05
4.00836e-05
4.00852e-05
4.00867e-05
4.00877e-05
4.00887e-05
4.00896e-05
4.00905e-05
4.00914e-05
4.00924e-05
4.00934e-05
4.00944e-05
4.00955e-05
4.00966e-05
4.00978e-05
4.00989e-05
4.01002e-05
4.01015e-05
4.01029e-05
4.01043e-05
4.01051e-05
4.01068e-05
4.01101e-05
4.00964e-05
4.00784e-05
4.06818e-05
4.0559e-05
3.12088e-05
8.37822e-06
0
4.0076e-05
4.00776e-05
4.00806e-05
4.00835e-05
4.00863e-05
4.00892e-05
4.00921e-05
4.00946e-05
4.00971e-05
4.00995e-05
4.01018e-05
4.01041e-05
4.01065e-05
4.01088e-05
4.01111e-05
4.01133e-05
4.01154e-05
4.01172e-05
4.01196e-05
4.01235e-05
4.0129e-05
4.0136e-05
4.01353e-05
4.01498e-05
4.02102e-05
4.04759e-05
4.09075e-05
4.14577e-05
4.20203e-05
4.20824e-05
3.81536e-05
3.15627e-05
2.03252e-07
4.03809e-06
0
0
0.000398644
0.00257006
0.0625997
4.00743e-05
4.00765e-05
4.00771e-05
4.00783e-05
4.00737e-05
4.00723e-05
4.00738e-05
4.00762e-05
4.00786e-05
4.00807e-05
4.00826e-05
4.00843e-05
4.00858e-05
4.0087e-05
4.00881e-05
4.0089e-05
4.009e-05
4.0091e-05
4.0092e-05
4.00931e-05
4.00943e-05
4.00956e-05
4.00971e-05
4.00987e-05
4.01007e-05
4.0103e-05
4.01058e-05
4.01091e-05
4.01131e-05
4.01176e-05
4.01231e-05
4.01296e-05
4.01362e-05
4.01246e-05
4.02196e-05
4.04832e-05
4.12184e-05
3.44865e-05
5.122e-06
4.00736e-05
4.00755e-05
4.00789e-05
4.0082e-05
4.00847e-05
4.00876e-05
4.00902e-05
4.00925e-05
4.00948e-05
4.0097e-05
4.00993e-05
4.01017e-05
4.01042e-05
4.0107e-05
4.01099e-05
4.01132e-05
4.01169e-05
4.01212e-05
4.01258e-05
4.01302e-05
4.01344e-05
4.01393e-05
4.01437e-05
4.01412e-05
4.01298e-05
4.01269e-05
4.01874e-05
4.03577e-05
4.07621e-05
4.14042e-05
4.23181e-05
4.25295e-05
3.69752e-05
1.86471e-05
6.03304e-06
0
0
0.00117453
0.0286407
4.00718e-05
4.00736e-05
4.00747e-05
4.00764e-05
4.00725e-05
4.00713e-05
4.00726e-05
4.00749e-05
4.00773e-05
4.00794e-05
4.00813e-05
4.0083e-05
4.00845e-05
4.00858e-05
4.0087e-05
4.0088e-05
4.0089e-05
4.009e-05
4.0091e-05
4.0092e-05
4.00931e-05
4.00943e-05
4.00957e-05
4.00972e-05
4.00988e-05
4.01008e-05
4.0103e-05
4.01056e-05
4.01085e-05
4.01117e-05
4.01151e-05
4.01194e-05
4.01232e-05
4.01301e-05
4.00985e-05
4.03336e-05
3.98138e-05
4.46257e-05
1.97678e-05
4.00715e-05
4.00738e-05
4.00774e-05
4.00804e-05
4.00829e-05
4.00855e-05
4.00876e-05
4.00896e-05
4.00917e-05
4.00936e-05
4.00956e-05
4.00978e-05
4.01e-05
4.01024e-05
4.0105e-05
4.01077e-05
4.01107e-05
4.01138e-05
4.01173e-05
4.01213e-05
4.0126e-05
4.01314e-05
4.01379e-05
4.01443e-05
4.0147e-05
4.01395e-05
4.01261e-05
4.01143e-05
4.01538e-05
4.02762e-05
4.07545e-05
4.15901e-05
4.31424e-05
4.12307e-05
2.53535e-05
6.15525e-06
0
0.000240398
0.0115111
4.00695e-05
4.00709e-05
4.00721e-05
4.00742e-05
4.00709e-05
4.00699e-05
4.00712e-05
4.00734e-05
4.00757e-05
4.00777e-05
4.00796e-05
4.00814e-05
4.0083e-05
4.00843e-05
4.00856e-05
4.00867e-05
4.00878e-05
4.00888e-05
4.00898e-05
4.00908e-05
4.00919e-05
4.00931e-05
4.00944e-05
4.00959e-05
4.00976e-05
4.00997e-05
4.01021e-05
4.01049e-05
4.01082e-05
4.0112e-05
4.01162e-05
4.01215e-05
4.01257e-05
4.01375e-05
4.01096e-05
4.02685e-05
3.96729e-05
4.22807e-05
3.57717e-05
4.00696e-05
4.00722e-05
4.00758e-05
4.00786e-05
4.0081e-05
4.00831e-05
4.0085e-05
4.00867e-05
4.00885e-05
4.00904e-05
4.00923e-05
4.00943e-05
4.00966e-05
4.00989e-05
4.01015e-05
4.01043e-05
4.01074e-05
4.01108e-05
4.01146e-05
4.01187e-05
4.0123e-05
4.01278e-05
4.01332e-05
4.01395e-05
4.01465e-05
4.01525e-05
4.01544e-05
4.01474e-05
4.01323e-05
4.01071e-05
4.01316e-05
4.02975e-05
4.10183e-05
4.27637e-05
4.25403e-05
2.50554e-05
6.55417e-07
8.77707e-05
0.00400778
4.00674e-05
4.00683e-05
4.00696e-05
4.00718e-05
4.00691e-05
4.00683e-05
4.00695e-05
4.00716e-05
4.00738e-05
4.00758e-05
4.00778e-05
4.00796e-05
4.00812e-05
4.00826e-05
4.0084e-05
4.00852e-05
4.00862e-05
4.00873e-05
4.00883e-05
4.00893e-05
4.00903e-05
4.00914e-05
4.00927e-05
4.00941e-05
4.00958e-05
4.00977e-05
4.01e-05
4.01027e-05
4.01058e-05
4.01093e-05
4.01132e-05
4.01177e-05
4.01223e-05
4.013e-05
4.01263e-05
4.01721e-05
4.00488e-05
4.04228e-05
4.02115e-05
4.00678e-05
4.00706e-05
4.00741e-05
4.00767e-05
4.00788e-05
4.00807e-05
4.00823e-05
4.00838e-05
4.00854e-05
4.00871e-05
4.0089e-05
4.0091e-05
4.00931e-05
4.00954e-05
4.00979e-05
4.01006e-05
4.01036e-05
4.01067e-05
4.01102e-05
4.01141e-05
4.01184e-05
4.01231e-05
4.01284e-05
4.01342e-05
4.01407e-05
4.01481e-05
4.01562e-05
4.01636e-05
4.01666e-05
4.01602e-05
4.01362e-05
4.01016e-05
4.01165e-05
4.05838e-05
4.24699e-05
4.47618e-05
8.04133e-06
2.62553e-05
0.00114349
4.00653e-05
4.00659e-05
4.00672e-05
4.00694e-05
4.00672e-05
4.00666e-05
4.00677e-05
4.00697e-05
4.00718e-05
4.00739e-05
4.00758e-05
4.00776e-05
4.00793e-05
4.00808e-05
4.00821e-05
4.00833e-05
4.00845e-05
4.00855e-05
4.00865e-05
4.00875e-05
4.00885e-05
4.00896e-05
4.00909e-05
4.00923e-05
4.0094e-05
4.0096e-05
4.00983e-05
4.0101e-05
4.01041e-05
4.01076e-05
4.01116e-05
4.01162e-05
4.01213e-05
4.01269e-05
4.01334e-05
4.01365e-05
4.01693e-05
4.00607e-05
4.04679e-05
4.00661e-05
4.00689e-05
4.00723e-05
4.00746e-05
4.00764e-05
4.00781e-05
4.00795e-05
4.00809e-05
4.00825e-05
4.00841e-05
4.00858e-05
4.00878e-05
4.00899e-05
4.00922e-05
4.00947e-05
4.00973e-05
4.01002e-05
4.01033e-05
4.01067e-05
4.01105e-05
4.01146e-05
4.01192e-05
4.01242e-05
4.01297e-05
4.01357e-05
4.01424e-05
4.015e-05
4.01589e-05
4.01689e-05
4.01787e-05
4.01828e-05
4.01732e-05
4.01188e-05
4.00989e-05
3.99662e-05
4.54122e-05
3.12644e-05
5.26054e-06
0.000184359
4.00635e-05
4.00636e-05
4.00648e-05
4.0067e-05
4.00653e-05
4.00648e-05
4.00659e-05
4.00678e-05
4.00697e-05
4.00718e-05
4.00738e-05
4.00756e-05
4.00773e-05
4.00788e-05
4.00801e-05
4.00814e-05
4.00825e-05
4.00836e-05
4.00846e-05
4.00856e-05
4.00867e-05
4.00878e-05
4.00891e-05
4.00906e-05
4.00922e-05
4.00942e-05
4.00965e-05
4.00991e-05
4.01021e-05
4.01056e-05
4.01095e-05
4.01139e-05
4.0119e-05
4.01243e-05
4.01316e-05
4.01333e-05
4.01618e-05
4.01042e-05
4.02524e-05
4.00644e-05
4.00672e-05
4.00703e-05
4.00723e-05
4.00739e-05
4.00754e-05
4.00768e-05
4.00782e-05
4.00797e-05
4.00813e-05
4.00829e-05
4.00849e-05
4.0087e-05
4.00892e-05
4.00915e-05
4.0094e-05
4.00968e-05
4.00997e-05
4.0103e-05
4.01066e-05
4.01106e-05
4.0115e-05
4.01199e-05
4.01252e-05
4.0131e-05
4.01373e-05
4.01443e-05
4.01522e-05
4.01616e-05
4.0173e-05
4.0185e-05
4.0203e-05
4.01839e-05
4.02365e-05
3.96823e-05
4.11693e-05
4.61854e-05
1.92952e-06
4.26883e-05
4.00617e-05
4.00614e-05
4.00624e-05
4.00647e-05
4.00633e-05
4.0063e-05
4.0064e-05
4.00658e-05
4.00676e-05
4.00695e-05
4.00716e-05
4.00734e-05
4.00751e-05
4.00766e-05
4.0078e-05
4.00793e-05
4.00805e-05
4.00816e-05
4.00827e-05
4.00838e-05
4.00849e-05
4.0086e-05
4.00873e-05
4.00888e-05
4.00904e-05
4.00924e-05
4.00946e-05
4.00971e-05
4.01e-05
4.01034e-05
4.01072e-05
4.01116e-05
4.01165e-05
4.01219e-05
4.01283e-05
4.01338e-05
4.01459e-05
4.01444e-05
4.01667e-05
4.00626e-05
4.00654e-05
4.00682e-05
4.007e-05
4.00714e-05
4.00728e-05
4.00742e-05
4.00755e-05
4.0077e-05
4.00786e-05
4.00802e-05
4.0082e-05
4.0084e-05
4.00861e-05
4.00883e-05
4.00908e-05
4.00934e-05
4.00963e-05
4.00994e-05
4.01029e-05
4.01067e-05
4.01109e-05
4.01156e-05
4.01207e-05
4.01262e-05
4.01323e-05
4.0139e-05
4.01465e-05
4.01549e-05
4.01653e-05
4.01754e-05
4.01965e-05
4.01985e-05
4.02414e-05
4.02733e-05
3.87094e-05
4.94474e-05
3.00682e-06
8.01219e-08
4.00599e-05
4.00593e-05
4.00602e-05
4.00624e-05
4.00613e-05
4.00611e-05
4.00621e-05
4.00638e-05
4.00656e-05
4.00673e-05
4.00693e-05
4.00712e-05
4.00729e-05
4.00744e-05
4.00758e-05
4.00772e-05
4.00784e-05
4.00796e-05
4.00808e-05
4.00819e-05
4.0083e-05
4.00842e-05
4.00854e-05
4.00868e-05
4.00884e-05
4.00902e-05
4.00923e-05
4.00947e-05
4.00975e-05
4.01007e-05
4.01043e-05
4.01085e-05
4.01133e-05
4.01186e-05
4.01246e-05
4.01313e-05
4.01386e-05
4.01503e-05
4.01535e-05
4.00609e-05
4.00635e-05
4.0066e-05
4.00676e-05
4.00689e-05
4.00703e-05
4.00716e-05
4.0073e-05
4.00744e-05
4.00759e-05
4.00775e-05
4.00792e-05
4.00811e-05
4.00831e-05
4.00853e-05
4.00876e-05
4.00901e-05
4.00929e-05
4.00959e-05
4.00993e-05
4.01029e-05
4.0107e-05
4.01114e-05
4.01163e-05
4.01216e-05
4.01274e-05
4.01338e-05
4.01409e-05
4.01489e-05
4.01585e-05
4.01679e-05
4.01826e-05
4.02029e-05
4.01689e-05
4.05572e-05
3.86598e-05
4.57992e-05
2.7673e-05
3.6295e-06
4.00583e-05
4.00573e-05
4.0058e-05
4.00601e-05
4.00593e-05
4.00592e-05
4.00601e-05
4.00618e-05
4.00635e-05
4.00651e-05
4.0067e-05
4.00689e-05
4.00706e-05
4.00722e-05
4.00737e-05
4.0075e-05
4.00763e-05
4.00776e-05
4.00787e-05
4.00799e-05
4.0081e-05
4.00821e-05
4.00833e-05
4.00846e-05
4.00861e-05
4.00878e-05
4.00898e-05
4.00921e-05
4.00948e-05
4.00978e-05
4.01013e-05
4.01053e-05
4.01098e-05
4.0115e-05
4.01208e-05
4.01274e-05
4.01344e-05
4.01455e-05
4.01525e-05
4.00591e-05
4.00615e-05
4.00638e-05
4.00652e-05
4.00665e-05
4.00679e-05
4.00692e-05
4.00705e-05
4.00719e-05
4.00733e-05
4.00748e-05
4.00765e-05
4.00782e-05
4.00801e-05
4.00822e-05
4.00845e-05
4.00869e-05
4.00895e-05
4.00925e-05
4.00957e-05
4.00992e-05
4.01031e-05
4.01073e-05
4.0112e-05
4.0117e-05
4.01226e-05
4.01287e-05
4.01355e-05
4.01431e-05
4.01521e-05
4.01621e-05
4.0171e-05
4.02023e-05
4.01389e-05
4.0477e-05
3.94918e-05
4.17818e-05
4.14027e-05
1.31478e-05
4.00566e-05
4.00555e-05
4.0056e-05
4.00579e-05
4.00574e-05
4.00573e-05
4.00582e-05
4.00597e-05
4.00614e-05
4.0063e-05
4.00647e-05
4.00666e-05
4.00684e-05
4.007e-05
4.00715e-05
4.00729e-05
4.00742e-05
4.00754e-05
4.00766e-05
4.00777e-05
4.00788e-05
4.00799e-05
4.0081e-05
4.00823e-05
4.00837e-05
4.00854e-05
4.00873e-05
4.00896e-05
4.00921e-05
4.0095e-05
4.00984e-05
4.01022e-05
4.01065e-05
4.01115e-05
4.01171e-05
4.01234e-05
4.01305e-05
4.01401e-05
4.01498e-05
4.00573e-05
4.00595e-05
4.00616e-05
4.00629e-05
4.00642e-05
4.00656e-05
4.00668e-05
4.00681e-05
4.00694e-05
4.00707e-05
4.00722e-05
4.00737e-05
4.00753e-05
4.00772e-05
4.00792e-05
4.00814e-05
4.00838e-05
4.00863e-05
4.00891e-05
4.00922e-05
4.00956e-05
4.00993e-05
4.01034e-05
4.01079e-05
4.01127e-05
4.0118e-05
4.01238e-05
4.01303e-05
4.01376e-05
4.01459e-05
4.01562e-05
4.01628e-05
4.01928e-05
4.01533e-05
4.03055e-05
4.01486e-05
3.97797e-05
4.43091e-05
2.80634e-05
4.0055e-05
4.00537e-05
4.0054e-05
4.00558e-05
4.00554e-05
4.00554e-05
4.00563e-05
4.00577e-05
4.00593e-05
4.00609e-05
4.00625e-05
4.00643e-05
4.00661e-05
4.00677e-05
4.00692e-05
4.00706e-05
4.00719e-05
4.00732e-05
4.00743e-05
4.00754e-05
4.00765e-05
4.00776e-05
4.00787e-05
4.008e-05
4.00814e-05
4.00831e-05
4.0085e-05
4.00871e-05
4.00896e-05
4.00924e-05
4.00956e-05
4.00993e-05
4.01035e-05
4.01082e-05
4.01136e-05
4.01197e-05
4.01267e-05
4.01355e-05
4.01459e-05
4.00555e-05
4.00575e-05
4.00595e-05
4.00607e-05
4.0062e-05
4.00633e-05
4.00644e-05
4.00656e-05
4.00669e-05
4.00681e-05
4.00695e-05
4.0071e-05
4.00726e-05
4.00743e-05
4.00763e-05
4.00784e-05
4.00807e-05
4.00832e-05
4.00859e-05
4.00889e-05
4.00921e-05
4.00957e-05
4.00997e-05
4.0104e-05
4.01086e-05
4.01136e-05
4.01192e-05
4.01254e-05
4.01324e-05
4.01401e-05
4.01501e-05
4.0157e-05
4.01788e-05
4.01754e-05
4.01883e-05
4.04033e-05
3.94123e-05
4.3004e-05
3.69366e-05
4.00534e-05
4.0052e-05
4.00522e-05
4.00538e-05
4.00536e-05
4.00536e-05
4.00544e-05
4.00558e-05
4.00573e-05
4.00588e-05
4.00604e-05
4.00621e-05
4.00638e-05
4.00654e-05
4.00669e-05
4.00683e-05
4.00696e-05
4.00709e-05
4.0072e-05
4.00731e-05
4.00742e-05
4.00753e-05
4.00765e-05
4.00778e-05
4.00792e-05
4.00809e-05
4.00827e-05
4.00848e-05
4.00872e-05
4.00899e-05
4.0093e-05
4.00965e-05
4.01005e-05
4.01051e-05
4.01103e-05
4.01162e-05
4.0123e-05
4.01315e-05
4.01418e-05
4.00537e-05
4.00555e-05
4.00574e-05
4.00586e-05
4.00598e-05
4.0061e-05
4.00621e-05
4.00632e-05
4.00644e-05
4.00656e-05
4.00669e-05
4.00684e-05
4.007e-05
4.00716e-05
4.00735e-05
4.00756e-05
4.00778e-05
4.00802e-05
4.00829e-05
4.00857e-05
4.00888e-05
4.00923e-05
4.00961e-05
4.01002e-05
4.01046e-05
4.01094e-05
4.01147e-05
4.01206e-05
4.01273e-05
4.01347e-05
4.01439e-05
4.01521e-05
4.01659e-05
4.01855e-05
4.01433e-05
4.04053e-05
3.97019e-05
4.12879e-05
4.0335e-05
4.00518e-05
4.00504e-05
4.00504e-05
4.00519e-05
4.00517e-05
4.00518e-05
4.00525e-05
4.00538e-05
4.00553e-05
4.00567e-05
4.00583e-05
4.00598e-05
4.00615e-05
4.00631e-05
4.00646e-05
4.0066e-05
4.00673e-05
4.00686e-05
4.00698e-05
4.00709e-05
4.0072e-05
4.00732e-05
4.00743e-05
4.00756e-05
4.0077e-05
4.00786e-05
4.00804e-05
4.00824e-05
4.00847e-05
4.00873e-05
4.00903e-05
4.00936e-05
4.00975e-05
4.01019e-05
4.01069e-05
4.01126e-05
4.01193e-05
4.01274e-05
4.01376e-05
4.00519e-05
4.00536e-05
4.00554e-05
4.00566e-05
4.00577e-05
4.00588e-05
4.00598e-05
4.00609e-05
4.0062e-05
4.00632e-05
4.00645e-05
4.00659e-05
4.00674e-05
4.00691e-05
4.00709e-05
4.00729e-05
4.00751e-05
4.00775e-05
4.008e-05
4.00827e-05
4.00858e-05
4.00891e-05
4.00927e-05
4.00966e-05
4.01008e-05
4.01054e-05
4.01105e-05
4.01161e-05
4.01225e-05
4.01295e-05
4.0138e-05
4.01471e-05
4.01561e-05
4.01829e-05
4.01413e-05
4.03173e-05
4.00342e-05
4.03295e-05
4.09494e-05
4.00502e-05
4.00489e-05
4.00487e-05
4.005e-05
4.00499e-05
4.005e-05
4.00507e-05
4.00519e-05
4.00533e-05
4.00547e-05
4.00562e-05
4.00577e-05
4.00593e-05
4.00609e-05
4.00623e-05
4.00637e-05
4.0065e-05
4.00663e-05
4.00675e-05
4.00687e-05
4.00698e-05
4.0071e-05
4.00721e-05
4.00734e-05
4.00748e-05
4.00763e-05
4.0078e-05
4.00799e-05
4.00821e-05
4.00846e-05
4.00874e-05
4.00906e-05
4.00943e-05
4.00985e-05
4.01033e-05
4.01088e-05
4.01152e-05
4.01231e-05
4.01332e-05
4.00502e-05
4.00518e-05
4.00535e-05
4.00546e-05
4.00556e-05
4.00566e-05
4.00576e-05
4.00586e-05
4.00597e-05
4.00608e-05
4.00621e-05
4.00635e-05
4.0065e-05
4.00667e-05
4.00684e-05
4.00704e-05
4.00725e-05
4.00748e-05
4.00772e-05
4.00799e-05
4.00828e-05
4.0086e-05
4.00894e-05
4.00932e-05
4.00972e-05
4.01016e-05
4.01064e-05
4.01118e-05
4.01178e-05
4.01245e-05
4.01323e-05
4.01417e-05
4.01489e-05
4.01734e-05
4.01529e-05
4.02322e-05
4.02213e-05
4.00415e-05
4.06651e-05
4.00486e-05
4.00473e-05
4.00471e-05
4.00482e-05
4.00482e-05
4.00483e-05
4.00489e-05
4.00501e-05
4.00514e-05
4.00527e-05
4.00542e-05
4.00556e-05
4.00571e-05
4.00586e-05
4.00601e-05
4.00615e-05
4.00628e-05
4.00641e-05
4.00653e-05
4.00665e-05
4.00676e-05
4.00687e-05
4.00699e-05
4.00711e-05
4.00724e-05
4.00739e-05
4.00756e-05
4.00774e-05
4.00795e-05
4.00819e-05
4.00846e-05
4.00876e-05
4.00911e-05
4.00951e-05
4.00997e-05
4.0105e-05
4.01111e-05
4.01187e-05
4.01285e-05
4.00485e-05
4.005e-05
4.00517e-05
4.00527e-05
4.00536e-05
4.00546e-05
4.00554e-05
4.00564e-05
4.00575e-05
4.00586e-05
4.00599e-05
4.00613e-05
4.00628e-05
4.00643e-05
4.00661e-05
4.00679e-05
4.007e-05
4.00722e-05
4.00746e-05
4.00772e-05
4.008e-05
4.00831e-05
4.00864e-05
4.009e-05
4.00938e-05
4.0098e-05
4.01026e-05
4.01077e-05
4.01134e-05
4.01198e-05
4.0127e-05
4.0136e-05
4.01433e-05
4.0162e-05
4.0162e-05
4.0181e-05
4.02725e-05
4.00633e-05
4.03393e-05
4.00471e-05
4.00458e-05
4.00456e-05
4.00465e-05
4.00465e-05
4.00466e-05
4.00472e-05
4.00483e-05
4.00495e-05
4.00508e-05
4.00522e-05
4.00536e-05
4.00549e-05
4.00564e-05
4.00579e-05
4.00592e-05
4.00606e-05
4.00618e-05
4.0063e-05
4.00642e-05
4.00653e-05
4.00664e-05
4.00676e-05
4.00688e-05
4.00701e-05
4.00716e-05
4.00732e-05
4.0075e-05
4.0077e-05
4.00793e-05
4.00819e-05
4.00848e-05
4.00881e-05
4.00919e-05
4.00963e-05
4.01013e-05
4.01072e-05
4.01144e-05
4.01237e-05
4.00468e-05
4.00484e-05
4.00499e-05
4.00508e-05
4.00517e-05
4.00526e-05
4.00534e-05
4.00544e-05
4.00554e-05
4.00566e-05
4.00578e-05
4.00591e-05
4.00606e-05
4.00621e-05
4.00638e-05
4.00656e-05
4.00676e-05
4.00698e-05
4.00721e-05
4.00746e-05
4.00773e-05
4.00802e-05
4.00834e-05
4.00868e-05
4.00905e-05
4.00945e-05
4.0099e-05
4.01038e-05
4.01093e-05
4.01153e-05
4.01221e-05
4.01304e-05
4.01383e-05
4.01518e-05
4.01637e-05
4.01601e-05
4.02518e-05
4.01526e-05
4.01846e-05
4.00456e-05
4.00444e-05
4.00441e-05
4.00449e-05
4.00449e-05
4.0045e-05
4.00456e-05
4.00466e-05
4.00477e-05
4.00489e-05
4.00502e-05
4.00516e-05
4.00529e-05
4.00543e-05
4.00557e-05
4.0057e-05
4.00583e-05
4.00596e-05
4.00608e-05
4.00619e-05
4.0063e-05
4.00641e-05
4.00653e-05
4.00665e-05
4.00678e-05
4.00693e-05
4.00708e-05
4.00726e-05
4.00745e-05
4.00767e-05
4.00792e-05
4.00819e-05
4.00851e-05
4.00887e-05
4.00929e-05
4.00977e-05
4.01034e-05
4.01103e-05
4.01191e-05
4.00453e-05
4.00468e-05
4.00482e-05
4.0049e-05
4.00498e-05
4.00507e-05
4.00515e-05
4.00525e-05
4.00535e-05
4.00546e-05
4.00558e-05
4.00571e-05
4.00585e-05
4.00599e-05
4.00616e-05
4.00633e-05
4.00652e-05
4.00673e-05
4.00696e-05
4.0072e-05
4.00746e-05
4.00774e-05
4.00805e-05
4.00838e-05
4.00873e-05
4.00912e-05
4.00954e-05
4.01001e-05
4.01053e-05
4.01111e-05
4.01176e-05
4.01252e-05
4.01334e-05
4.01436e-05
4.01594e-05
4.01554e-05
4.02134e-05
4.02107e-05
4.01578e-05
4.00441e-05
4.0043e-05
4.00427e-05
4.00434e-05
4.00434e-05
4.00434e-05
4.0044e-05
4.00449e-05
4.0046e-05
4.00471e-05
4.00484e-05
4.00496e-05
4.00509e-05
4.00522e-05
4.00535e-05
4.00549e-05
4.00561e-05
4.00573e-05
4.00585e-05
4.00597e-05
4.00608e-05
4.00619e-05
4.0063e-05
4.00642e-05
4.00655e-05
4.00669e-05
4.00684e-05
4.00701e-05
4.00719e-05
4.0074e-05
4.00763e-05
4.00789e-05
4.00819e-05
4.00854e-05
4.00894e-05
4.00939e-05
4.00994e-05
4.0106e-05
4.01145e-05
4.00438e-05
4.00452e-05
4.00466e-05
4.00473e-05
4.0048e-05
4.00489e-05
4.00497e-05
4.00506e-05
4.00516e-05
4.00527e-05
4.00538e-05
4.00551e-05
4.00564e-05
4.00579e-05
4.00594e-05
4.00611e-05
4.0063e-05
4.0065e-05
4.00672e-05
4.00695e-05
4.0072e-05
4.00748e-05
4.00777e-05
4.00809e-05
4.00843e-05
4.0088e-05
4.0092e-05
4.00965e-05
4.01014e-05
4.0107e-05
4.01132e-05
4.01203e-05
4.01284e-05
4.01372e-05
4.01521e-05
4.0155e-05
4.01833e-05
4.02242e-05
4.01791e-05
4.00427e-05
4.00417e-05
4.00414e-05
4.00419e-05
4.00419e-05
4.00419e-05
4.00424e-05
4.00433e-05
4.00443e-05
4.00453e-05
4.00465e-05
4.00477e-05
4.00489e-05
4.00501e-05
4.00514e-05
4.00527e-05
4.0054e-05
4.00552e-05
4.00563e-05
4.00575e-05
4.00586e-05
4.00597e-05
4.00607e-05
4.00619e-05
4.00631e-05
4.00645e-05
4.00659e-05
4.00675e-05
4.00693e-05
4.00713e-05
4.00735e-05
4.0076e-05
4.00788e-05
4.00821e-05
4.00858e-05
4.00902e-05
4.00953e-05
4.01016e-05
4.01097e-05
4.00424e-05
4.00438e-05
4.0045e-05
4.00457e-05
4.00464e-05
4.00472e-05
4.0048e-05
4.00489e-05
4.00499e-05
4.00509e-05
4.0052e-05
4.00532e-05
4.00545e-05
4.00559e-05
4.00574e-05
4.00591e-05
4.00608e-05
4.00628e-05
4.00649e-05
4.00672e-05
4.00696e-05
4.00722e-05
4.0075e-05
4.00781e-05
4.00813e-05
4.00848e-05
4.00887e-05
4.0093e-05
4.00978e-05
4.0103e-05
4.0109e-05
4.01157e-05
4.01234e-05
4.01318e-05
4.01443e-05
4.01532e-05
4.01661e-05
4.0212e-05
4.02003e-05
4.00414e-05
4.00405e-05
4.00401e-05
4.00406e-05
4.00405e-05
4.00405e-05
4.00409e-05
4.00417e-05
4.00426e-05
4.00436e-05
4.00447e-05
4.00459e-05
4.0047e-05
4.00482e-05
4.00494e-05
4.00506e-05
4.00518e-05
4.0053e-05
4.00541e-05
4.00552e-05
4.00563e-05
4.00574e-05
4.00584e-05
4.00595e-05
4.00607e-05
4.00621e-05
4.00635e-05
4.0065e-05
4.00667e-05
4.00686e-05
4.00707e-05
4.00731e-05
4.00758e-05
4.00789e-05
4.00824e-05
4.00866e-05
4.00915e-05
4.00974e-05
4.0105e-05
4.00411e-05
4.00423e-05
4.00435e-05
4.00441e-05
4.00449e-05
4.00457e-05
4.00464e-05
4.00473e-05
4.00482e-05
4.00492e-05
4.00502e-05
4.00514e-05
4.00527e-05
4.0054e-05
4.00555e-05
4.00571e-05
4.00588e-05
4.00607e-05
4.00627e-05
4.00649e-05
4.00672e-05
4.00697e-05
4.00724e-05
4.00753e-05
4.00784e-05
4.00818e-05
4.00855e-05
4.00896e-05
4.00941e-05
4.00992e-05
4.01049e-05
4.01113e-05
4.01186e-05
4.01267e-05
4.01373e-05
4.0149e-05
4.01574e-05
4.01931e-05
4.02063e-05
4.00402e-05
4.00393e-05
4.00389e-05
4.00393e-05
4.00392e-05
4.00392e-05
4.00395e-05
4.00402e-05
4.00411e-05
4.0042e-05
4.0043e-05
4.00441e-05
4.00452e-05
4.00463e-05
4.00474e-05
4.00486e-05
4.00497e-05
4.00509e-05
4.0052e-05
4.0053e-05
4.00541e-05
4.00551e-05
4.00561e-05
4.00572e-05
4.00584e-05
4.00597e-05
4.00611e-05
4.00626e-05
4.00642e-05
4.00661e-05
4.00681e-05
4.00703e-05
4.00729e-05
4.00758e-05
4.00792e-05
4.00831e-05
4.00878e-05
4.00934e-05
4.01005e-05
4.00399e-05
4.0041e-05
4.00421e-05
4.00427e-05
4.00434e-05
4.00442e-05
4.00449e-05
4.00457e-05
4.00466e-05
4.00475e-05
4.00486e-05
4.00497e-05
4.00509e-05
4.00522e-05
4.00537e-05
4.00552e-05
4.00568e-05
4.00586e-05
4.00606e-05
4.00627e-05
4.00649e-05
4.00673e-05
4.00699e-05
4.00727e-05
4.00757e-05
4.00789e-05
4.00824e-05
4.00863e-05
4.00907e-05
4.00955e-05
4.01009e-05
4.0107e-05
4.01139e-05
4.01218e-05
4.01312e-05
4.01431e-05
4.01519e-05
4.0177e-05
4.01998e-05
4.0039e-05
4.00382e-05
4.00378e-05
4.00381e-05
4.00379e-05
4.00379e-05
4.00382e-05
4.00388e-05
4.00395e-05
4.00404e-05
4.00413e-05
4.00423e-05
4.00434e-05
4.00444e-05
4.00455e-05
4.00466e-05
4.00477e-05
4.00488e-05
4.00498e-05
4.00509e-05
4.00519e-05
4.00529e-05
4.00539e-05
4.0055e-05
4.00561e-05
4.00574e-05
4.00587e-05
4.00602e-05
4.00618e-05
4.00635e-05
4.00654e-05
4.00676e-05
4.007e-05
4.00728e-05
4.0076e-05
4.00798e-05
4.00842e-05
4.00895e-05
4.00962e-05
4.00387e-05
4.00398e-05
4.00408e-05
4.00414e-05
4.00421e-05
4.00428e-05
4.00435e-05
4.00443e-05
4.00451e-05
4.0046e-05
4.0047e-05
4.00481e-05
4.00493e-05
4.00506e-05
4.00519e-05
4.00534e-05
4.0055e-05
4.00567e-05
4.00586e-05
4.00606e-05
4.00627e-05
4.0065e-05
4.00675e-05
4.00701e-05
4.0073e-05
4.00761e-05
4.00794e-05
4.00832e-05
4.00873e-05
4.00919e-05
4.0097e-05
4.01028e-05
4.01094e-05
4.01169e-05
4.01256e-05
4.01368e-05
4.01468e-05
4.01655e-05
4.0188e-05
4.00379e-05
4.00371e-05
4.00368e-05
4.00369e-05
4.00368e-05
4.00366e-05
4.00369e-05
4.00374e-05
4.00381e-05
4.00389e-05
4.00397e-05
4.00407e-05
4.00416e-05
4.00426e-05
4.00436e-05
4.00446e-05
4.00457e-05
4.00467e-05
4.00478e-05
4.00487e-05
4.00497e-05
4.00507e-05
4.00517e-05
4.00527e-05
4.00539e-05
4.00551e-05
4.00564e-05
4.00578e-05
4.00593e-05
4.00609e-05
4.00628e-05
4.00648e-05
4.00671e-05
4.00698e-05
4.00728e-05
4.00764e-05
4.00805e-05
4.00856e-05
4.00919e-05
4.00377e-05
4.00387e-05
4.00397e-05
4.00402e-05
4.00409e-05
4.00415e-05
4.00422e-05
4.00429e-05
4.00437e-05
4.00446e-05
4.00456e-05
4.00466e-05
4.00478e-05
4.0049e-05
4.00503e-05
4.00517e-05
4.00532e-05
4.00548e-05
4.00566e-05
4.00586e-05
4.00606e-05
4.00628e-05
4.00651e-05
4.00677e-05
4.00703e-05
4.00733e-05
4.00765e-05
4.008e-05
4.0084e-05
4.00884e-05
4.00933e-05
4.00988e-05
4.0105e-05
4.01121e-05
4.01203e-05
4.01306e-05
4.01411e-05
4.0157e-05
4.01759e-05
4.00369e-05
4.00362e-05
4.00358e-05
4.00359e-05
4.00357e-05
4.00355e-05
4.00356e-05
4.00361e-05
4.00367e-05
4.00374e-05
4.00382e-05
4.0039e-05
4.00399e-05
4.00409e-05
4.00418e-05
4.00427e-05
4.00437e-05
4.00447e-05
4.00457e-05
4.00467e-05
4.00476e-05
4.00486e-05
4.00495e-05
4.00505e-05
4.00516e-05
4.00528e-05
4.0054e-05
4.00554e-05
4.00568e-05