/*--------------------------------*- C++ -*----------------------------------*\
| =========                 |                                                 |
| \\      /  F ield         | OpenFOAM: The Open Source CFD Toolbox           |
|  \\    /   O peration     | Version:  2306                                  |
|   \\  /    A nd           | Website:  www.openfoam.com                      |
|    \\/     M anipulation  |                                                 |
\*---------------------------------------------------------------------------*/
FoamFile
{
    version     2.0;
    format      ascii;
    arch        "LSB;label=32;scalar=64";
    class       volScalarField;
    location    "125";
    object      p;
}
// * * * * * * * * * * * * * * * * * * * * * * * * * * * * * * * * * * * * * //

dimensions      [0 2 -2 0 0 0 0];

internalField   nonuniform List<scalar> 
10720
(
33.0706
-30.8325
-106.5
-183.033
-256.133
-331.527
-400.332
-460.205
-513.647
-557.446
-592.89
-620.926
-641.806
-656.578
-665.936
-669.312
-667.293
-658.714
-644.651
-624.377
-599.775
-571.906
-544.335
-515.834
-480.812
-438.79
-395.255
-354.994
-319.012
-285.261
-252.033
-218.949
-185.908
-152.629
-118.82
-83.5636
-46.9211
-4.26427
31.4387
95.0541
150.867
207.885
259.4
300.773
327.259
337.51
336.816
325.42
304.294
278.949
253.163
228.252
205.013
183.992
164.588
146.673
129.712
113.394
97.1554
80.9497
64.4448
47.7555
31.3346
17.1974
6.40532
-2.21181
-8.92983
-13.6092
-16.3469
-17.3885
-16.8678
-14.8657
-11.3862
-6.41817
0.428153
9.70027
24.8641
50.0959
105.321
56.933
1.96483
-57.3652
-119.255
-183.463
-246.812
-307.256
-363.969
-415.216
-460.485
-499.488
-532.227
-558.837
-579.159
-592.828
-599.941
-600.351
-594.824
-583.315
-567.182
-547.535
-526.628
-502.96
-471.999
-433.361
-392.013
-352.877
-317.392
-283.924
-250.913
-217.986
-185.069
-151.923
-118.255
-83.1294
-46.596
-3.95124
31.0766
148.307
188.615
227.918
264.625
295.186
316.55
326.949
327.227
317.952
301.175
280.221
257.636
234.79
212.601
191.688
172.011
153.524
135.952
119.039
102.391
85.888
69.3049
52.7343
36.6391
22.5993
11.5772
2.7752
-4.28039
-9.61149
-13.1027
-14.7876
-14.7748
-13.1741
-10.0146
-5.29419
1.3672
10.5008
25.5881
49.8344
112.926
69.5928
20.1109
-35.0133
-93.059
-153.52
-214.805
-274.487
-331.048
-383.375
-430.187
-470.996
-505.514
-533.328
-554.364
-568.92
-577.306
-579.337
-575.334
-565.475
-550.672
-531.968
-511.042
-487.426
-458.216
-422.617
-384.194
-347.196
-313.114
-280.691
-248.54
-216.293
-183.882
-151.085
-117.644
-82.6786
-46.268
-3.72779
31.1339
151.466
188.016
223.464
256.012
282.64
301.533
311.746
313.43
306.883
293.612
275.791
255.497
234.211
212.968
192.481
172.996
154.536
136.957
120.041
103.482
87.1091
70.7628
54.51
38.7622
24.7626
13.4489
4.37322
-2.86668
-8.27854
-11.7763
-13.4643
-13.5058
-12.0167
-9.00158
-4.42427
2.11274
11.1514
26.0958
49.4359
123.873
87.364
45.2193
-1.61303
-51.3846
-104.137
-158.309
-212.248
-264.729
-314.584
-360.691
-402.308
-438.85
-469.873
-495.107
-514.583
-528.349
-535.998
-537.527
-533.086
-523.271
-508.927
-491.252
-470.179
-443.795
-411.425
-375.909
-341.003
-308.262
-276.821
-245.509
-213.979
-182.166
-149.865
-116.818
-82.1545
-45.9601
-3.64981
31.2254
156.211
186.689
216.584
244.509
267.686
284.73
294.832
297.722
293.493
283.296
268.714
251.381
232.565
213.224
194.061
175.432
157.464
140.141
123.339
106.852
90.542
74.3129
58.2359
42.6925
28.7021
17.1465
7.80295
0.296362
-5.42219
-9.29625
-11.4029
-11.8475
-10.703
-7.96009
-3.58218
2.81429
11.7522
26.5169
48.9904
124.029
91.5804
53.9494
11.9132
-32.8521
-80.8024
-130.638
-180.901
-230.668
-278.806
-324.206
-366.053
-403.617
-436.299
-463.646
-485.45
-501.335
-511.176
-514.858
-512.612
-504.932
-492.598
-476.583
-457.007
-432.502
-402.446
-369.076
-335.691
-303.891
-273.141
-242.46
-211.516
-180.238
-148.417
-115.796
-81.5152
-45.6458
-3.69284
31.1278
152.82
179.817
206.41
231.318
252.078
267.8
277.794
281.607
279.275
271.632
259.842
245.174
228.658
211.152
193.336
175.63
158.256
141.304
124.739
108.45
92.3341
76.3388
60.5414
45.2873
31.4095
19.7085
10.1372
2.39124
-3.5755
-7.69792
-10.0133
-10.624
-9.61027
-6.98058
-2.70389
3.59794
12.4362
26.9792
48.5363
122.139
93.3338
59.7988
22.3682
-17.4567
-60.385
-105.232
-150.829
-196.508
-241.258
-284.144
-324.406
-361.285
-394.119
-422.378
-445.669
-463.618
-476.129
-483.006
-484.276
-480.209
-471.341
-458.345
-441.353
-419.415
-392.065
-361.153
-329.608
-299.053
-269.222
-239.302
-208.996
-178.259
-146.919
-114.733
-80.8566
-45.3704
-3.89199
30.8117
147.728
171.661
195.432
217.868
236.712
251.401
261.265
265.745
264.89
259.311
249.896
237.649
223.393
207.851
191.639
175.172
158.718
142.429
126.345
110.428
94.6271
78.9307
63.4307
48.4501
34.6923
22.8828
13.1075
5.14496
-1.04972
-5.41526
-7.98136
-8.84546
-8.08366
-5.69408
-1.63077
4.48816
13.1608
27.4214
48.0356
117.881
91.8729
61.5251
27.6461
-8.30653
-47.2381
-88.0943
-129.86
-172.096
-213.913
-254.513
-293.229
-329.305
-362.066
-390.932
-415.395
-435.029
-449.476
-458.478
-461.939
-460.068
-453.322
-442.247
-427.042
-407.107
-382.087
-353.428
-323.641
-294.303
-265.368
-236.195
-206.519
-176.31
-145.422
-113.653
-80.2011
-45.1662
-4.26818
30.2519
141.02
162.612
184.191
204.674
221.995
235.834
245.538
250.493
250.775
246.849
239.41
229.262
217.057
203.385
188.779
173.618
158.18
142.66
127.155
111.69
96.27
80.9222
65.7553
51.0727
37.477
25.6232
15.6905
7.5384
1.12999
-3.47569
-6.2918
-7.39567
-6.85058
-4.64921
-0.741973
5.24491
13.787
27.7613
47.4557
112.69
89.0397
61.4028
30.5897
-2.00001
-37.3759
-74.5724
-112.704
-151.488
-190.171
-228.07
-264.631
-299.169
-331.037
-359.642
-384.435
-404.906
-420.665
-431.456
-437.119
-437.695
-433.459
-424.76
-411.755
-394.068
-371.458
-345.092
-317.138
-289.116
-261.168
-232.821
-203.85
-174.237
-143.855
-112.531
-79.5182
-44.9937
-4.77362
29.4177
133.767
153.411
173.17
192.034
208.094
221.203
230.716
236.001
237.15
234.536
228.721
220.366
209.991
198.07
185.05
171.255
156.949
142.343
127.566
112.69
97.7632
82.8485
68.0713
53.7196
40.3268
28.4869
18.4425
10.131
3.53197
-1.29442
-4.34345
-5.67912
-5.35746
-3.36588
0.35119
6.16153
14.5214
28.1348
46.8765
106.931
85.2453
59.8784
31.6385
1.8797
-30.4593
-64.5033
-99.452
-135.155
-170.955
-206.288
-240.709
-273.605
-304.382
-332.472
-357.308
-378.347
-395.155
-407.366
-414.736
-417.175
-414.869
-408.071
-396.928
-381.222
-360.798
-336.58
-310.409
-283.714
-256.78
-229.283
-201.041
-172.051
-142.208
-111.363
-78.8109
-44.8196
-5.34045
28.3304
126.288
144.318
162.559
180.054
195.051
207.517
216.816
222.324
224.13
222.555
218.069
211.226
202.448
192.116
180.595
168.15
155.015
141.393
127.427
113.221
98.8586
84.433
70.0838
56.0904
42.9337
31.1569
21.0435
12.601
5.83068
0.796653
-2.48139
-4.04906
-3.95135
-2.16707
1.36464
7.00347
15.1803
28.4163
46.2302
100.97
80.9683
57.5594
31.5341
4.22667
-25.4617
-56.7189
-88.8116
-121.683
-154.758
-187.577
-219.786
-250.844
-280.24
-307.438
-331.878
-353.021
-370.389
-383.591
-392.353
-396.473
-396.016
-391.113
-381.865
-368.143
-349.854
-327.741
-303.364
-278.043
-252.173
-225.566
-198.088
-169.753
-140.477
-110.142
-78.0826
-44.6321
-5.95784
27.0551
118.86
135.515
152.455
168.773
182.858
194.743
203.812
209.459
211.759
211.008
207.606
202.027
194.628
185.714
175.582
164.438
152.482
139.892
126.81
113.355
99.635
85.7647
71.8968
58.3019
45.4242
33.7659
23.6348
15.0985
8.18518
2.96503
-0.526438
-2.31658
-2.44029
-0.867993
2.46668
7.91318
15.8769
28.683
45.5535
94.994
76.4451
54.7326
30.6389
5.4517
-21.9267
-50.7248
-80.2925
-110.618
-141.194
-171.657
-201.73
-230.944
-258.855
-284.986
-308.811
-329.799
-347.466
-361.37
-371.212
-376.688
-377.77
-374.51
-366.971
-355.08
-338.784
-318.675
-296.056
-272.126
-247.355
-221.67
-194.99
-167.34
-138.664
-108.87
-77.3408
-44.4414
-6.64317
25.6399
111.616
127.086
142.897
158.192
171.481
182.835
191.659
197.378
200.05
199.95
197.429
192.907
186.688
179.023
170.152
160.235
149.427
137.878
125.72
113.071
100.051
86.7893
73.4456
60.2834
47.7219
36.2294
26.127
17.5314
10.5002
5.11268
1.41935
-0.587729
-0.93135
0.428432
3.56322
8.81077
16.5476
28.8972
44.8385
89.1285
71.8545
51.6363
29.2366
5.90922
-19.4295
-46.0581
-73.3693
-101.385
-129.678
-157.938
-185.957
-213.334
-239.698
-264.622
-287.623
-308.202
-325.879
-340.187
-350.812
-357.399
-359.821
-358.058
-352.126
-341.974
-327.568
-309.379
-288.486
-265.963
-242.324
-217.597
-191.746
-164.815
-136.77
-107.548
-76.5861
-44.2669
-7.40563
24.1008
104.644
119.077
133.898
148.288
160.869
171.731
180.305
186.043
188.987
189.402
187.6
183.958
178.743
172.168
164.431
155.648
145.936
135.416
124.197
112.391
100.119
87.5147
74.7384
62.0475
49.842
38.5643
28.5398
19.9248
12.8065
7.27567
3.398
1.18497
0.626546
1.77246
4.70006
9.73328
17.2196
29.0762
44.0911
83.4513
67.3026
48.4071
27.511
5.82711
-17.7069
-42.4028
-67.6895
-93.6367
-119.847
-146.067
-172.153
-197.756
-222.564
-246.215
-268.273
-288.273
-305.752
-320.242
-331.402
-338.86
-342.395
-341.933
-337.451
-328.904
-316.263
-299.892
-280.679
-259.566
-237.086
-213.345
-188.355
-162.175
-134.794
-106.176
-75.8194
-44.1218
-8.23971
22.4562
97.9829
111.506
125.443
139.026
150.967
161.372
169.696
175.409
178.549
179.369
178.154
175.244
170.882
165.253
158.521
150.772
142.09
132.565
122.282
111.337
99.8427
87.9314
75.7592
63.5751
51.7628
40.744
30.844
22.2488
15.0738
9.42381
5.37913
2.97052
2.20227
3.13431
5.85035
10.6593
17.8771
29.2139
43.3143
78.0042
62.8589
45.1492
25.5934
5.37497
-16.5459
-39.5147
-62.9887
-87.0625
-111.38
-135.721
-159.992
-183.901
-207.181
-229.53
-250.564
-269.85
-286.957
-301.427
-312.9
-321.01
-325.461
-326.129
-322.957
-315.891
-304.895
-290.243
-272.655
-252.947
-231.644
-208.916
-184.815
-159.418
-132.733
-104.754
-75.037
-44.0052
-9.14255
20.7262
91.6578
104.367
117.513
130.365
141.725
151.701
159.773
165.434
168.708
169.845
169.108
166.807
163.168
158.355
152.51
145.695
137.966
129.388
120.019
109.935
99.2366
88.0445
76.5074
64.8627
53.4794
42.7621
33.0324
24.4977
17.2994
11.557
7.36559
4.77489
3.80444
4.52354
7.02301
11.5948
18.524
29.315
42.5118
72.8119
58.5699
41.925
23.5792
4.67436
-15.801
-37.2143
-59.0548
-81.4359
-104.026
-126.639
-149.226
-171.529
-193.337
-214.39
-234.354
-252.84
-269.446
-283.739
-295.343
-303.91
-309.089
-310.717
-308.702
-302.983
-293.506
-280.467
-264.44
-246.119
-226.006
-204.313
-181.128
-156.544
-130.588
-103.282
-74.2417
-43.9133
-10.1106
18.9172
85.6738
97.6497
110.075
122.267
133.092
142.663
150.487
156.07
159.434
160.817
160.465
158.673
155.647
151.538
146.471
140.492
133.637
125.945
117.455
108.218
98.3179
87.8614
76.9832
65.9053
54.9826
44.6059
35.0896
26.6559
19.4679
13.6609
9.34427
6.5861
5.42198
5.93013
8.2093
12.5338
19.156
29.3801
41.6886
67.8833
54.4616
38.7845
21.5322
3.81279
-15.3534
-35.3613
-55.7271
-76.5684
-97.5843
-118.62
-139.637
-160.431
-180.832
-200.619
-219.497
-237.123
-253.133
-267.119
-278.703
-287.554
-293.294
-295.721
-294.719
-290.212
-282.13
-270.597
-256.061
-239.101
-220.181
-199.54
-177.296
-153.553
-128.358
-101.758
-73.4313
-43.8432
-11.1382
17.0284
80.0286
91.3384
103.107
114.693
125.025
134.211
141.79
147.277
150.695
152.266
152.228
150.857
148.351
144.848
140.461
135.226
129.163
122.294
114.636
106.22
97.11
87.3939
77.1896
66.7012
56.2685
46.2678
37.0055
28.7121
21.5691
15.7266
11.3082
8.39913
7.05163
7.35216
9.40774
13.4739
19.7716
29.4115
40.8481
63.2239
50.5498
35.7527
19.5009
2.85687
-15.1215
-33.8539
-52.8768
-72.3201
-91.9007
-111.483
-131.053
-150.436
-169.499
-188.062
-205.862
-222.6
-237.947
-251.526
-262.967
-271.952
-278.103
-281.18
-281.048
-277.619
-270.806
-260.67
-247.547
-231.913
-214.182
-194.605
-173.321
-150.446
-126.043
-100.183
-72.6082
-43.7956
-12.217
15.0633
74.7125
85.4152
96.5793
107.609
117.481
126.301
133.638
139.018
142.455
144.173
144.388
143.364
141.302
138.32
134.526
129.949
124.601
118.488
111.609
103.98
95.6399
86.6594
77.1359
67.253
57.3337
47.7405
38.7693
30.6544
23.5908
17.7428
13.2471
10.2053
8.68605
8.78354
10.6135
14.4125
20.3698
29.4122
39.9956
58.8295
46.8402
32.855
17.5149
1.85493
-15.0394
-32.6076
-50.4101
-68.5735
-86.8405
-105.09
-123.325
-141.393
-159.198
-176.583
-193.327
-209.168
-223.808
-236.903
-248.103
-257.096
-263.525
-267.115
-267.719
-265.238
-259.57
-250.72
-238.93
-224.577
-208.023
-189.516
-169.208
-147.225
-123.644
-98.5578
-71.7688
-43.7684
-13.3398
13.0338
69.7149
79.859
90.4663
100.978
110.421
118.893
125.991
131.252
134.689
136.516
136.934
136.202
134.513
131.981
128.702
124.707
119.999
114.574
108.42
101.533
93.9356
85.677
76.8334
67.5657
58.1784
49.0193
40.3726
32.472
25.5221
19.6989
15.1514
11.9965
10.3186
10.2191
11.822
15.3453
20.9476
29.3844
39.1355
54.6943
43.3369
30.097
15.6008
0.841246
-15.0592
-31.5613
-48.2429
-65.2396
-82.3017
-99.3256
-116.327
-133.177
-149.794
-166.058
-181.782
-196.73
-210.639
-223.198
-234.081
-242.979
-249.567
-253.547
-254.76
-253.102
-248.457
-240.783
-230.24
-217.118
-201.72
-184.284
-164.963
-143.893
-121.162
-96.8819
-70.9151
-43.7616
-14.4976
10.9532
65.0212
74.6496
84.7411
94.7715
103.807
111.949
118.812
123.948
127.365
129.27
129.855
129.365
127.991
125.847
123.018
119.534
115.396
110.596
105.108
98.9164
92.027
84.4684
76.2955
67.6466
58.8052
50.102
41.8089
34.1557
27.3523
21.5841
17.0112
13.7638
11.9416
11.6525
13.0288
16.27
21.5052
29.3317
38.2737
50.8087
40.0373
27.4893
13.7703
-0.158156
-15.143
-30.6643
-46.3206
-62.2422
-78.1981
-94.0939
-109.956
-125.672
-141.177
-156.383
-171.123
-185.197
-198.369
-210.356
-220.86
-229.581
-236.228
-240.487
-242.193
-241.239
-237.5
-230.894
-221.511
-209.562
-195.293
-178.919
-160.595
-140.455
-118.599
-95.1557
-70.0434
-43.7703
-15.6828
8.834
60.6177
69.7678
79.3791
88.9572
97.6098
105.435
112.069
117.075
120.457
122.417
123.137
122.849
121.742
119.929
117.492
114.458
110.829
106.59
101.711
96.1657
89.9442
83.0577
75.5403
67.5072
59.2185
50.9878
43.073
35.697
29.0713
23.3879
18.816
15.4979
13.547
13.0774
14.2283
17.1819
22.0399
29.2562
37.4142
47.1636
36.9374
25.0315
12.0363
-1.12439
-15.2641
-29.8806
-44.5897
-59.5241
-74.4605
-89.3164
-104.126
-118.79
-133.261
-147.464
-161.264
-174.489
-186.926
-198.321
-208.403
-216.883
-223.502
-227.943
-230.038
-229.678
-226.731
-221.088
-212.776
-201.936
-188.761
-173.437
-156.111
-136.916
-115.958
-93.38
-69.1542
-43.7922
-16.8851
6.68908
56.4901
65.1941
74.3562
83.5096
91.7988
99.3225
105.732
110.605
113.941
115.935
116.764
116.644
115.764
114.236
112.141
109.504
106.325
102.59
98.2644
93.3138
87.7172
81.4701
74.5873
67.16
59.4255
51.6785
44.162
37.0895
30.6703
25.1004
20.556
17.1895
15.1267
14.4867
15.4154
18.0784
22.5518
29.1621
36.5628
43.7481
34.0306
22.725
10.4023
-2.04473
-15.3997
-29.1786
-43.0149
-57.0336
-71.03
-84.9267
-98.7623
-112.45
-125.956
-139.218
-152.126
-164.531
-176.245
-187.04
-196.668
-204.859
-211.377
-215.918
-218.306
-218.438
-216.179
-211.395
-204.066
-194.27
-182.148
-167.854
-151.523
-133.282
-113.242
-91.5557
-68.2436
-43.8207
-18.0955
4.53155
52.6241
60.9104
69.6502
78.4025
86.3483
93.5826
99.7747
104.512
107.792
109.806
110.721
110.743
110.055
108.771
106.975
104.687
101.907
98.6221
94.7969
90.3914
85.3752
79.7307
73.4557
66.6193
59.4353
52.1784
45.0751
38.3279
32.1413
26.7121
22.2212
18.8288
16.6716
15.8731
16.5839
18.9546
23.0387
29.0513
35.7237
40.5521
31.3102
20.5656
8.87383
-2.9106
-15.5357
-28.5367
-41.5617
-54.7366
-67.8614
-80.8697
-93.8035
-106.586
-119.191
-131.574
-143.636
-155.253
-166.266
-176.461
-185.617
-193.482
-199.842
-204.41
-207.011
-207.54
-205.869
-201.847
-195.412
-186.591
-175.476
-162.188
-146.843
-129.561
-110.455
-89.6834
-67.3116
-43.8531
-19.3037
2.37367
49.0039
56.8996
65.2415
73.6151
81.2338
88.1914
94.1704
98.7716
101.989
104.01
104.992
105.134
104.61
103.539
102.001
100.019
97.5929
94.7094
91.3345
87.4255
82.9451
77.8646
72.1673
65.9022
59.2595
52.4932
45.8134
39.4091
33.4779
28.2146
23.8022
20.4066
18.1729
17.2291
17.728
19.8078
23.5011
28.9278
34.9023
37.5632
28.7683
18.5517
7.44939
-3.71518
-15.6586
-27.9357
-40.2088
-52.5973
-64.9165
-77.1025
-89.1995
-101.14
-112.906
-124.464
-135.728
-146.599
-156.93
-166.532
-175.207
-182.722
-188.877
-193.414
-196.154
-196.998
-195.823
-192.47
-186.845
-178.928
-168.769
-156.456
-142.084
-125.763
-107.602
-87.7647
-66.3542
-43.8807
-20.4999
0.229278
45.6169
53.1436
61.1109
69.1263
76.4343
83.1244
88.897
93.3615
96.513
98.5303
99.5643
99.8055
99.4243
98.5351
97.2218
95.5113
93.3971
90.8706
87.9001
84.4412
80.452
75.8958
70.7436
65.0259
58.9107
52.6307
46.3792
40.3315
34.675
29.6
25.2899
21.9133
19.6216
18.5467
18.8415
20.6329
23.9368
28.7934
34.1023
34.7711
26.3974
16.6765
6.12967
-4.45429
-15.7616
-27.3619
-38.9327
-50.5928
-62.1624
-73.584
-84.9045
-96.0627
-107.048
-117.835
-128.35
-138.51
-148.185
-157.209
-165.4
-172.549
-178.465
-182.921
-185.738
-186.823
-186.062
-183.292
-178.393
-171.31
-162.054
-150.68
-137.263
-121.897
-104.687
-85.8011
-65.3701
-43.8996
-21.6731
-1.88814
42.4487
49.6277
57.2406
64.9166
71.9268
78.3612
83.9326
88.263
91.3438
93.3489
94.4227
94.7474
94.4893
93.7583
92.642
91.1671
89.3289
87.1205
84.5118
81.4595
77.9187
73.8466
69.2049
64.0083
58.4026
52.6006
46.7779
41.0954
35.7292
30.8627
26.6763
23.3401
21.009
19.8181
19.9182
21.4272
24.3464
28.6514
33.3282
32.165
24.1889
14.9366
4.91094
-5.1275
-15.8371
-26.8047
-37.7215
-48.7002
-59.5725
-70.2849
-80.8827
-91.313
-101.572
-111.637
-121.45
-130.934
-139.981
-148.447
-156.16
-162.931
-168.586
-172.92
-175.761
-177.023
-176.602
-174.334
-170.081
-163.763
-155.354
-144.88
-132.393
-117.973
-101.719
-83.7937
-64.3558
-43.9
-22.813
-3.96445
39.4879
46.3374
53.6147
60.9668
67.6937
73.8815
79.2581
83.4558
86.4638
88.4505
89.5539
89.9485
89.797
89.2044
88.2586
86.9889
85.3964
83.4709
81.1855
78.4988
75.3655
71.7381
67.5712
62.8662
57.7495
52.4129
47.0153
41.7024
36.6381
31.9967
27.9539
24.6784
22.3266
21.0354
20.9517
22.1857
24.7278
28.5033
32.5828
29.7355
22.1345
13.3246
3.79201
-5.73345
-15.8825
-26.2565
-36.5598
-46.9041
-57.1254
-67.1764
-77.1027
-86.8562
-96.4361
-105.829
-114.982
-123.829
-132.281
-140.204
-147.449
-153.84
-159.216
-163.397
-166.219
-167.602
-167.455
-165.616
-161.936
-156.313
-148.694
-139.078
-127.494
-114.005
-98.7031
-81.7462
-63.3098
-43.8772
-23.9103
-5.98673
36.7212
43.2591
50.2178
57.2623
63.7167
69.6688
74.8557
78.9228
81.8563
83.8196
84.9443
85.3974
85.337
84.8669
84.0693
82.9802
81.606
79.9316
77.9335
75.575
72.8101
69.5894
65.8619
61.6186
56.9669
52.0797
47.099
42.1563
37.4016
32.9988
29.1167
25.9208
23.5664
22.1909
21.9359
22.9056
25.0814
28.3513
31.8694
27.4705
20.226
11.8363
2.76869
-6.27347
-15.8936
-25.7102
-35.4407
-45.1892
-54.8033
-64.2383
-73.5387
-82.6609
-91.6092
-100.372
-108.908
-117.155
-125.041
-132.444
-139.233
-145.247
-150.333
-154.339
-157.105
-158.563
-158.631
-157.155
-153.979
-148.984
-142.098
-133.295
-122.581
-110.005
-95.6473
-79.6594
-62.2286
-43.8227
-24.9542
-7.94221
34.1377
40.3799
47.0361
53.7861
59.981
65.7055
70.7091
74.6474
77.5058
79.4419
80.5811
81.0832
81.1021
80.7385
80.0725
79.1431
77.9594
76.5066
74.7657
72.7008
70.2682
67.4178
64.095
60.2818
56.0695
51.6127
47.0378
42.4615
38.0202
33.8662
30.1597
27.0601
24.7205
23.2771
22.8649
23.5821
25.4053
28.1964
31.1896
25.362
18.4555
10.4642
1.83819
-6.74819
-15.8711
-25.1625
-34.3535
-43.5457
-52.5916
-61.4496
-70.1668
-78.7011
-87.0588
-95.235
-103.19
-110.878
-118.224
-125.131
-131.48
-137.122
-141.915
-145.727
-148.411
-149.904
-150.137
-148.965
-146.229
-141.8
-135.591
-127.552
-117.674
-105.986
-92.5604
-77.5373
-61.1109
-43.7292
-25.9358
-9.81892
31.7265
37.6879
44.0556
50.5248
56.4703
61.9765
66.8023
70.6148
73.3977
75.3035
76.4515
76.9946
77.0821
76.8134
76.2621
75.4737
74.4557
73.2016
71.6896
69.8871
67.7533
65.2384
62.2861
58.8718
55.0719
51.0245
46.8412
42.6244
38.4969
34.5983
31.0787
28.0909
25.7824
24.2872
23.7328
24.2125
25.6996
28.0399
30.5453
23.4
16.8154
9.20424
0.994927
-7.1602
-15.8123
-24.6094
-33.2941
-41.9625
-50.4761
-58.7964
-66.9675
-74.953
-82.7605
-90.3868
-97.8013
-104.96
-111.8
-118.237
-124.162
-129.44
-133.939
-137.547
-140.125
-141.622
-141.978
-141.057
-138.702
-134.781
-129.191
-121.869
-112.788
-101.962
-89.4499
-75.3831
-59.9534
-43.5896
-26.8452
-11.6048
29.4773
35.1715
41.2643
47.4648
53.1717
58.467
63.1213
66.8104
69.5183
71.3913
72.5436
73.121
73.268
73.0817
72.6353
71.9683
71.0967
70.0197
68.7111
67.1426
65.2761
63.0642
60.45
57.4036
53.9887
50.3279
46.5193
42.6519
38.8348
35.195
31.8716
29.0081
26.746
25.2148
24.5343
24.7925
25.9621
27.8816
29.9363
21.5775
15.2989
8.04784
0.235871
-7.51159
-15.7196
-24.0497
-32.2566
-40.4342
-48.4487
-56.264
-63.9254
-71.3981
-78.691
-85.8053
-92.7114
-99.376
-105.739
-111.73
-117.248
-122.174
-126.384
-129.78
-132.237
-133.712
-134.154
-133.438
-131.414
-127.944
-122.92
-116.267
-107.942
-97.9462
-86.3261
-73.1997
-58.756
-43.3982
-27.6749
-13.2906
27.3807
32.8206
38.6506
44.5942
50.0716
55.1645
59.652
63.2217
65.855
67.6936
68.8459
69.4517
69.6507
69.5367
69.1822
68.6234
67.8841
66.9605
65.8332
64.4733
62.8459
60.9068
58.5998
55.8909
52.8334
49.5354
46.0827
42.552
39.0392
35.6585
32.537
29.8085
27.6066
26.0547
25.2645
25.3195
26.1927
27.7222
29.3632
19.8861
13.8984
6.98982
-0.445266
-7.80573
-15.5924
-23.4817
-31.2397
-38.9541
-46.4997
-53.8432
-61.0265
-68.0197
-74.8322
-81.4664
-87.8997
-94.0988
-100.016
-105.582
-110.712
-115.301
-119.229
-122.409
-124.735
-126.167
-126.665
-126.116
-124.374
-121.304
-116.796
-110.763
-103.153
-93.9521
-83.1971
-70.9921
-57.5168
-43.1478
-28.417
-14.8672
25.4277
30.6251
36.2038
41.9006
47.1585
52.0558
56.3826
59.8355
62.3951
64.1981
65.3476
65.977
66.2211
66.1711
65.897
65.4381
64.8116
64.0235
63.0585
61.8842
60.4701
58.7759
56.7469
54.3467
51.6188
48.6592
45.5421
42.333
39.1156
35.9912
33.0749
30.4897
28.3598
26.802
25.9191
25.7898
26.3891
27.5603
28.8243
18.3181
12.6072
6.02346
-1.0519
-8.04516
-15.4333
-22.9052
-30.2379
-37.5176
-44.6223
-51.5222
-58.2587
-64.8033
-71.1667
-77.3536
-83.3421
-89.1077
-94.6043
-99.7714
-104.534
-108.797
-112.452
-115.419
-117.606
-118.979
-119.509
-119.092
-117.591
-114.877
-110.835
-105.375
-98.4355
-89.9937
-80.0729
-68.7636
-56.2356
-42.8349
-29.0654
-16.3266
23.6092
28.5753
33.9136
39.3742
44.4204
49.1302
53.3011
56.6404
59.1275
60.8941
62.0381
62.6865
62.9698
62.9765
62.7739
62.4019
61.878
61.2107
60.3873
59.3774
58.1542
56.6793
54.901
52.7818
50.3569
47.7108
44.9082
42.0042
39.071
36.1975
33.487
31.0507
29.0033
27.4532
26.4945
26.2011
26.5507
27.3956
28.3186
16.8648
11.4183
5.14466
-1.58948
-8.2333
-15.2428
-22.3197
-29.2521
-36.1199
-42.8102
-49.2943
-55.6112
-61.7358
-67.6797
-73.4473
-79.0227
-84.3801
-89.4842
-94.2749
-98.6907
-102.643
-106.033
-108.791
-110.835
-112.139
-112.681
-112.368
-111.072
-108.67
-105.049
-100.117
-93.8057
-86.0829
-76.9621
-66.5208
-54.9126
-42.4535
-29.6139
-17.6624
21.9175
26.6624
31.7706
37.0043
41.8477
46.3762
50.3967
53.6254
56.0413
57.7708
58.907
59.5709
59.8882
59.9449
59.8061
59.5119
59.0784
58.5179
57.8179
56.9555
55.9023
54.6234
53.0704
51.2058
49.0581
46.7014
44.1914
41.5746
38.9125
36.2824
33.7755
31.4918
29.5352
28.0054
26.9876
26.5506
26.6752
27.226
27.8429
15.5202
10.3255
4.3467
-2.06116
-8.37323
-15.0239
-21.7264
-28.279
-34.7601
-41.0596
-47.152
-53.0761
-58.8075
-64.3582
-69.7351
-74.9217
-79.9
-84.6337
-89.0743
-93.1601
-96.8163
-99.9562
-102.51
-104.41
-105.637
-106.175
-105.943
-104.821
-102.694
-99.4519
-95.0034
-89.2766
-82.2325
-73.875
-64.2673
-53.5488
-42.0025
-30.0594
-18.8697
20.344
24.8777
29.7655
34.7816
39.4296
43.7839
47.6587
50.7803
53.1263
54.8181
55.9449
56.6209
56.9681
57.0688
56.9869
56.7605
56.4097
55.9408
55.3504
54.6196
53.7176
52.6132
51.262
49.6276
47.7323
45.6411
43.402
41.0537
38.6481
36.2517
33.9444
31.8147
29.9555
28.4572
27.3965
26.8365
26.7618
27.0503
27.395
14.2762
9.32237
3.62576
-2.47231
-8.46836
-14.7773
-21.1251
-27.3195
-33.4341
-39.3656
-45.0907
-50.6453
-56.0081
-61.1917
-66.2018
-71.0275
-75.6486
-80.0376
-84.1478
-87.9248
-91.3028
-94.2025
-96.5598
-98.3177
-99.4626
-99.9855
-99.8139
-98.8394
-96.9528
-94.0513
-90.0449
-84.8603
-78.4532
-70.8194
-62.0101
-52.1454
-41.479
-30.3977
-19.9443
18.8819
23.2134
27.89
32.6971
37.1576
41.3435
45.0776
48.0949
50.3726
52.0269
53.1426
53.8281
54.2007
54.3405
54.3085
54.1431
53.8637
53.4781
52.9854
52.3692
51.6005
50.6516
49.4816
48.0544
46.3879
44.5393
42.5496
40.4507
38.286
36.1122
33.9984
32.0218
30.2648
28.808
27.7196
27.057
26.8083
26.8658
26.9708
13.1274
8.40348
2.97544
-2.82609
-8.52164
-14.5067
-20.5176
-26.3719
-32.1413
-37.7258
-43.1041
-48.3125
-53.3298
-58.1689
-62.8378
-67.3239
-71.6139
-75.6789
-79.4808
-82.9682
-86.0836
-88.755
-90.924
-92.5435
-93.6044
-94.1033
-93.9768
-93.1264
-91.4512
-88.8552
-85.2514
-80.5673
-74.7554
-67.8048
-59.7531
-50.7056
-40.8827
-30.628
-20.8844
17.524
21.6621
26.1362
30.7425
35.0223
39.0462
42.6442
45.5603
47.771
49.3877
50.491
51.1836
51.5783
51.7524
51.7648
51.6531
51.4377
51.1253
50.7186
50.202
49.5526
48.7425
47.7334
46.4923
45.0325
43.4044
41.6431
39.7745
37.8345
35.871
33.9429
32.1171
30.4653
29.0583
27.9569
27.2113
26.8139
26.6706
26.5672
12.0668
7.56297
2.3922
-3.12739
-8.53656
-14.2129
-19.9045
-25.4376
-30.8791
-36.1366
-41.1896
-46.072
-50.7654
-55.2826
-59.6308
-63.8018
-67.7802
-71.5447
-75.057
-78.2742
-81.143
-83.5981
-85.5885
-87.0745
-88.0509
-88.5201
-88.4263
-87.6805
-86.1905
-83.8679
-80.63
-76.4064
-71.148
-64.8378
-57.5038
-49.232
-40.2139
-30.7489
-21.6882
16.2638
20.2167
24.4962
28.9096
33.0159
36.8833
40.3497
43.1677
45.3128
46.8921
47.9816
48.6791
49.0928
49.2969
49.3486
49.2848
49.125
48.8794
48.5459
48.1172
47.5744
46.887
46.0211
44.9461
43.6726
42.2443
40.6911
39.0339
37.3021
35.5357
33.7844
32.1052
30.56
29.2099
28.1082
27.2988
26.7768
26.4618
26.1793
11.0894
6.7957
1.87023
-3.37918
-8.51605
-13.8991
-19.2872
-24.5149
-29.648
-34.5966
-39.3426
-43.9192
-48.3087
-52.5242
-56.574
-60.4484
-64.1383
-67.6202
-70.8641
-73.8275
-76.4649
-78.7174
-80.5391
-81.8973
-82.7909
-83.2264
-83.1553
-82.4979
-81.1706
-79.0924
-76.1861
-72.3849
-67.639
-61.9271
-55.2665
-47.7288
-39.475
-30.7622
-22.3571
15.0946
18.8702
22.9634
27.1913
31.1302
34.8469
38.186
40.9086
42.9897
44.5318
45.6067
46.307
46.7366
46.9672
47.0534
47.0315
46.9214
46.7329
46.4661
46.1155
45.6646
45.0855
44.3469
43.4202
42.3139
41.0658
39.7014
38.2372
36.6971
35.1141
33.5297
31.9919
30.5531
29.2656
28.1752
27.3197
26.6965
26.2373
25.8035
10.1891
6.09658
1.4062
-3.58627
-8.46323
-13.5667
-18.6667
-23.6061
-28.446
-33.1033
-37.5606
-41.8493
-45.9539
-49.8872
-53.6567
-57.2566
-60.6751
-63.8958
-66.8873
-69.6156
-72.0362
-74.0979
-75.7621
-76.9995
-77.8126
-78.2121
-78.1564
-77.5739
-76.3895
-74.5297
-71.9237
-68.5081
-64.2346
-59.078
-53.0485
-46.2
-38.6681
-30.6692
-22.8918
14.0111
17.6167
21.5309
25.5803
29.3584
32.9296
36.1454
38.7753
40.7939
42.2988
43.3582
44.0596
44.5026
44.7561
44.8726
44.8878
44.8211
44.6836
44.4749
44.1926
43.8215
43.3384
42.7129
41.9182
40.9612
39.875
38.681
37.3921
36.0275
34.6141
33.1861
31.7833
30.4495
29.2288
28.1598
27.2743
26.5716
25.9943
25.4351
9.36114
5.46101
0.994813
-3.75133
-8.38098
-13.219
-18.0449
-22.71
-27.2737
-31.6557
-35.8405
-39.8591
-43.6963
-47.365
-50.8738
-54.2152
-57.3831
-60.3583
-63.1166
-65.625
-67.8431
-69.7283
-71.2447
-72.3679
-73.1043
-73.4673
-73.4213
-72.9022
-71.8437
-70.1791
-67.8441
-64.7801
-60.94
-56.2975
-50.8535
-44.6507
-37.7978
-30.474
-23.2957
13.0073
16.45
20.1926
24.0704
27.6933
31.1241
34.2206
36.7606
38.7179
40.1858
41.2289
41.9298
42.3837
42.6571
42.8002
42.8476
42.8194
42.7258
42.5698
42.3453
42.0438
41.6459
41.1204
40.4427
39.6186
38.6772
37.6364
36.506
35.3012
34.0436
32.7611
31.4862
30.2551
29.1039
28.0649
27.1642
26.4021
25.7309
25.0702
8.6001
4.8843
0.63314
-3.8787
-8.27221
-12.857
-17.4227
-21.8286
-26.1299
-30.2521
-34.1808
-37.9449
-41.5313
-44.9526
-48.2165
-51.319
-54.2509
-56.9998
-59.54
-61.8444
-63.8751
-65.5954
-66.9737
-67.9903
-68.6544
-68.9814
-68.9408
-68.4761
-67.5283
-66.0382
-63.9478
-61.203
-57.7597
-53.5895
-48.6887
-43.086
-36.8683
-30.1803
-23.5726
12.0783
15.3648
18.9424
22.6551
26.1286
29.4237
32.4049
34.8574
36.7547
38.1858
39.2117
39.9105
40.3732
40.6636
40.8297
40.9055
40.9105
40.8559
40.7443
40.5721
40.3319
40.0074
39.5694
38.9953
38.2896
37.4771
36.5732
35.5856
34.5256
33.4104
32.2624
31.1079
29.9759
28.8958
27.8939
26.991
26.1879
25.4446
24.7044
7.90207
4.36238
0.316382
-3.97081
-8.13939
-12.4837
-16.802
-20.9612
-25.0151
-28.8917
-32.5785
-36.1038
-39.4549
-42.6442
-45.6805
-48.5581
-51.2729
-53.8093
-56.1485
-58.2627
-60.1205
-61.6873
-62.9371
-63.855
-64.4514
-64.7433
-64.7055
-64.2876
-63.4377
-62.1037
-60.2335
-57.7782
-54.6962
-50.959
-46.5577
-41.5112
-35.8854
-29.7943
-23.7278
11.2187
14.3556
17.7749
21.3288
24.6582
27.8225
30.6918
33.059
34.8975
36.2921
37.3003
37.9952
38.4647
38.7694
38.9555
39.0558
39.0901
39.0689
38.9968
38.8694
38.6828
38.4214
38.0606
37.5785
36.9769
36.2786
35.4971
34.6373
33.7078
32.722
31.6976
30.6555
29.6186
28.6102
27.6509
26.7571
25.9295
25.1343
24.3345
7.26202
3.89113
0.0419075
-4.03156
-7.98555
-12.1003
-16.1837
-20.1097
-23.9284
-27.5734
-31.0328
-34.3331
-37.4636
-40.4361
-43.2585
-45.9283
-48.4388
-50.78
-52.931
-54.8704
-56.5669
-57.9928
-59.124
-59.9505
-60.4841
-60.743
-60.7057
-60.3284
-59.5654
-58.3709
-56.6988
-54.5052
-51.751
-48.409
-44.4663
-39.932
-34.855
-29.3216
-23.767
10.4242
13.4175
16.6848
20.0858
23.2764
26.3142
29.0751
31.3595
33.1404
34.4985
35.488
36.1779
36.6521
36.9686
37.1718
37.2934
37.3527
37.361
37.3223
37.2356
37.0936
36.8867
36.5947
36.1928
35.6827
35.0858
34.4127
33.6669
32.8545
31.9857
31.0743
30.1365
29.19
28.2528
27.3406
26.4654
25.6275
24.7983
23.9568
6.67633
3.4669
-0.194701
-4.0631
-7.8128
-11.7094
-15.5694
-19.2735
-22.8707
-26.2967
-29.5411
-32.6303
-35.5537
-38.3231
-40.9471
-43.4215
-45.7439
-47.9019
-49.8803
-51.6566
-53.2064
-54.5008
-55.5225
-56.2655
-56.7415
-56.9692
-56.9315
-56.5897
-55.9039
-54.834
-53.34
-51.3822
-48.9255
-45.9422
-42.4179
-38.3541
-33.7838
-28.7697
-23.6973
9.69015
12.5458
15.6672
18.9211
21.9778
24.8935
27.5494
29.7531