/*--------------------------------*- C++ -*----------------------------------*\
| =========                 |                                                 |
| \\      /  F ield         | OpenFOAM: The Open Source CFD Toolbox           |
|  \\    /   O peration     | Version:  2306                                  |
|   \\  /    A nd           | Website:  www.openfoam.com                      |
|    \\/     M anipulation  |                                                 |
\*---------------------------------------------------------------------------*/
FoamFile
{
    version     2.0;
    format      ascii;
    arch        "LSB;label=32;scalar=64";
    class       surfaceScalarField;
    location    "125";
    object      phi;
}
// * * * * * * * * * * * * * * * * * * * * * * * * * * * * * * * * * * * * * //

dimensions      [0 3 -1 0 0 0 0];

oriented        oriented;

internalField   nonuniform List<scalar> 
21254
(
-0.201684
0.221698
-0.0200122
0.243993
-0.0222963
0.263784
-0.0197905
0.281772
-0.0179889
0.298941
-0.0171683
0.313149
-0.0142071
0.32477
-0.01162
0.334473
-0.00970195
0.341349
-0.00687502
0.346311
-0.00496064
0.34952
-0.00320881
0.350786
-0.00126556
0.350311
0.000475829
0.347638
0.00267389
0.342354
0.00528383
0.33443
0.00792466
0.323321
0.0111106
0.308643
0.0146781
0.289668
0.0189768
0.265974
0.0236958
0.236842
0.029133
0.203598
0.0332468
0.170142
0.0334556
0.144917
0.0252249
0.134822
0.0100927
0.137747
-0.00292503
0.146401
-0.00865269
0.155535
-0.00913294
0.162494
-0.00695625
0.166439
-0.00394276
0.167076
-0.000621976
0.164428
0.00264044
0.159126
0.00530678
0.15153
0.00760464
0.141398
0.0101559
0.127634
0.0137573
0.108183
0.0194297
0.0782145
0.0299916
0.0760805
0.00215515
-0.178672
-0.0230133
-0.15464
-0.0240283
-0.125615
-0.0290256
-0.0941471
-0.0314662
-0.061288
-0.0328589
-0.0277726
-0.0335157
0.00461627
-0.0323918
0.0348532
-0.0302378
0.0624261
-0.0275731
0.0864875
-0.0240613
0.106864
-0.0203767
0.123899
-0.0170345
0.138028
-0.0141282
0.149679
-0.0116514
0.159596
-0.00991676
0.168062
-0.00846487
0.175549
-0.0074875
0.182272
-0.0067225
0.188529
-0.00625719
0.194422
-0.00589258
0.200108
-0.00568714
0.205557
-0.00544898
0.210677
-0.00512113
0.214781
-0.00410512
0.217695
-0.00291441
0.219766
-0.00207175
0.221068
-0.00130259
0.221858
-0.000789688
0.22224
-0.000383139
0.222137
0.000102614
0.221338
0.000798138
0.219807
0.00153053
0.217542
0.00226197
0.214574
0.00296323
0.210803
0.00375784
0.205896
0.00490687
0.198868
0.00702329
0.184687
0.0141642
0.165367
0.0192892
-0.184065
0.205345
-0.0412913
0.22721
-0.0441623
0.250196
-0.0427752
0.271775
-0.0395684
0.292953
-0.0383459
0.312799
-0.0340523
0.330872
-0.0296911
0.347427
-0.026257
0.3621
-0.0215466
0.374947
-0.0178074
0.386033
-0.014294
0.395457
-0.0106882
0.40365
-0.00771678
0.411116
-0.00479113
0.41792
-0.00151983
0.423716
0.00212941
0.428311
0.00651674
0.431554
0.0114357
0.432552
0.017979
0.430839
0.0254102
0.424893
0.0350797
0.413642
0.0444982
0.396023
0.051073
0.373122
0.0481229
0.348435
0.0347773
0.324229
0.0212799
0.301014
0.0145636
0.279274
0.0126106
0.259733
0.0125903
0.243175
0.0126222
0.229678
0.0128919
0.218373
0.0139432
0.207653
0.0160344
0.196252
0.0190166
0.183279
0.0231473
0.167308
0.0297401
0.146973
0.0397527
0.112952
0.0640208
0.081958
0.0331661
-0.162406
-0.0446716
-0.139212
-0.047221
-0.112092
-0.0561445
-0.0834888
-0.0600694
-0.0531614
-0.0631863
-0.0214863
-0.0651922
0.0101949
-0.0640726
0.0397483
-0.0597915
0.0663046
-0.0541293
0.0898834
-0.04764
0.110331
-0.0408245
0.128018
-0.0347212
0.143326
-0.0294351
0.15647
-0.0247953
0.167933
-0.0213791
0.178012
-0.0185439
0.186999
-0.0164742
0.195204
-0.0149271
0.20288
-0.0139331
0.210127
-0.0131394
0.217103
-0.0126642
0.223873
-0.0122192
0.230357
-0.0116051
0.236072
-0.00982061
0.240731
-0.00757358
0.244518
-0.00585912
0.247309
-0.00409505
0.249005
-0.00248905
0.249593
-0.000974999
0.249236
0.000457273
0.248157
0.0018744
0.246499
0.00318369
0.244281
0.00447373
0.241508
0.00572908
0.238106
0.00714644
0.233778
0.00922391
0.228559
0.0122311
0.217712
0.0249901
0.199203
0.0377587
-0.178992
0.200701
-0.063003
0.222675
-0.0661351
0.246459
-0.0665605
0.26831
-0.0614183
0.289232
-0.059267
0.309348
-0.0541674
0.327379
-0.0477211
0.343698
-0.0425749
0.357869
-0.0357168
0.370106
-0.0300443
0.380421
-0.0246081
0.388951
-0.0192172
0.395458
-0.0142237
0.400343
-0.00967578
0.403335
-0.00451091
0.405253
0.000212416
0.406135
0.00563572
0.406758
0.010813
0.407362
0.0173771
0.408563
0.0242105
0.410854
0.0327911
0.41393
0.0414232
0.416192
0.048813
0.414923
0.049392
0.409112
0.040588
0.399773
0.0306191
0.38796
0.026377
0.373624
0.0269471
0.356187
0.0300266
0.335502
0.0333068
0.312592
0.0358066
0.289298
0.0372322
0.267243
0.038091
0.246731
0.0395334
0.226727
0.043167
0.205148
0.0513072
0.180101
0.0647861
0.143007
0.101131
0.0978668
0.0783107
-0.1572
-0.0664617
-0.133494
-0.0709267
-0.10523
-0.0844081
-0.0759355
-0.0893646
-0.0454188
-0.0937035
-0.0138359
-0.0967745
0.0172461
-0.0951553
0.046032
-0.0885769
0.0722478
-0.0803447
0.0958327
-0.0712245
0.116485
-0.0614767
0.134442
-0.0526775
0.150077
-0.0450697
0.163667
-0.0383851
0.175535
-0.0332469
0.18604
-0.0290489
0.195449
-0.0258824
0.204032
-0.0235097
0.211994
-0.0218953
0.219497
-0.020643
0.226726
-0.0198938
0.233684
-0.0191779
0.240259
-0.0181807
0.246135
-0.0156977
0.251011
-0.0124515
0.25501
-0.00985863
0.2582
-0.00728532
0.260617
-0.00490556
0.262327
-0.00268488
0.263331
-0.000546877
0.263679
0.0015259
0.263327
0.00353634
0.262275
0.00552479
0.260443
0.00755607
0.257745
0.00983166
0.253831
0.0131425
0.248388
0.0176727
0.237658
0.0357073
0.219288
0.0561072
-0.172929
0.195509
-0.0855814
0.218255
-0.0888815
0.243326
-0.0916306
0.266266
-0.0843581
0.288601
-0.0816022
0.310113
-0.0756777
0.329938
-0.0675444
0.347945
-0.0605822
0.364313
-0.0520835
0.378816
-0.0445472
0.391574
-0.0373653
0.402578
-0.0302209
0.411847
-0.0234921
0.419429
-0.0172571
0.425661
-0.010742
0.43024
-0.00436643
0.433155
0.00272187
0.434105
0.00986525
0.433364
0.0181196
0.430971
0.0266044
0.42749
0.0362738
0.423817
0.0450974
0.420401
0.0522287
0.416779
0.053012
0.41187
0.0454946
0.405694
0.0367932
0.398927
0.0331442
0.392022
0.0338549
0.38464
0.037413
0.375719
0.0422346
0.363866
0.047673
0.34773
0.0533692
0.326977
0.0588533
0.302655
0.0638646
0.27641
0.0694306
0.248406
0.0793231
0.217325
0.0958611
0.175566
0.142896
0.123112
0.130774
-0.150622
-0.0887694
-0.126786
-0.0947626
-0.0979076
-0.113287
-0.0683372
-0.118936
-0.0375987
-0.124442
-0.00573651
-0.128638
0.0253696
-0.12626
0.0539688
-0.117176
0.0799345
-0.10631
0.103316
-0.0946056
0.123822
-0.0819825
0.14176
-0.070615
0.157557
-0.0608661
0.171459
-0.0522869
0.183801
-0.045589
0.194809
-0.0400566
0.204798
-0.035871
0.213943
-0.0326539
0.222478
-0.030431
0.23054
-0.0287054
0.238237
-0.0275913
0.245631
-0.0265722
0.252651
-0.0252018
0.258961
-0.0220081
0.264304
-0.0177952
0.268748
-0.0143026
0.272345
-0.0108842
0.275147
-0.00771021
0.277188
-0.00472952
0.278539
-0.00190027
0.279225
0.000834818
0.279264
0.0034927
0.278643
0.00613736
0.277343
0.00884791
0.275227
0.011931
0.271928
0.0164288
0.266858
0.0227288
0.25666
0.0458796
0.237663
0.0750605
-0.169914
0.193362
-0.109028
0.21702
-0.112539
0.243493
-0.118103
0.267201
-0.108065
0.290509
-0.104909
0.313048
-0.0982155
0.33368
-0.0881764
0.352547
-0.0794479
0.369901
-0.0694371
0.385118
-0.0597643
0.398564
-0.0508111
0.410168
-0.0418242
0.420173
-0.0334967
0.428261
-0.0253449
0.434608
-0.017088
0.439191
-0.00894876
0.442185
-0.000270948
0.443713
0.00833781
0.443637
0.0181977
0.442297
0.0279463
0.439645
0.0389277
0.435886
0.0488583
0.431168
0.0569483
0.425328
0.0588526
0.418185
0.0526381
0.41007
0.0449076
0.401698
0.041517
0.393645
0.0419069
0.386117
0.0449394
0.379151
0.0491993
0.372451
0.0543748
0.365149
0.0606667
0.355569
0.0684331
0.341368
0.0780704
0.320644
0.0901716
0.292862
0.107088
0.258156
0.130555
0.211816
0.189252
0.154411
0.188181
-0.146561
-0.112123
-0.121993
-0.11933
-0.0918625
-0.14342
-0.0614149
-0.149383
-0.0299088
-0.155949
0.00263148
-0.161177
0.0342243
-0.157853
0.0630156
-0.145966
0.0889799
-0.132274
0.112316
-0.117941
0.132741
-0.102408
0.150653
-0.0885267
0.166544
-0.0767565
0.180628
-0.0663701
0.193235
-0.0581959
0.204639
-0.0514596
0.215021
-0.0462528
0.224572
-0.0422054
0.233497
-0.0393553
0.241934
-0.0371425
0.249973
-0.0356311
0.257654
-0.0342533
0.264933
-0.0324817
0.271522
-0.0285988
0.277152
-0.0234267
0.281861
-0.0190118
0.285689
-0.0147125
0.288687
-0.0107081
0.290877
-0.00691909
0.292294
-0.00331724
0.292988
0.000141838
0.293026
0.00345632
0.292413
0.00675014
0.291129
0.0101274
0.289146
0.0139012
0.286133
0.0194511
0.281531
0.0273304
0.272644
0.0547555
0.254256
0.093432
-0.167575
0.192035
-0.133488
0.216963
-0.137466
0.244786
-0.145926
0.269641
-0.132919
0.293921
-0.129188
0.317737
-0.12203
0.339265
-0.109704
0.359304
-0.0994866
0.377562
-0.0876946
0.393907
-0.0761096
0.408574
-0.0654769
0.421381
-0.0546312
0.432531
-0.0446463
0.442008
-0.0348211
0.449691
-0.0247696
0.455881
-0.0151377
0.460264
-0.0046533
0.462913
0.00569129
0.463951
0.0171618
0.463257
0.0286416
0.460968
0.0412188
0.457349
0.0524794
0.45239
0.0619077
0.445961
0.0652812
0.437955
0.0606422
0.428719
0.0541419
0.418878
0.0513566
0.408913
0.0518732
0.399008
0.0548481
0.389271
0.0589424
0.379932
0.0637244
0.371154
0.0694481
0.362978
0.076619
0.35465
0.0864099
0.343803
0.101039
0.325978
0.124927
0.296615
0.159914
0.250277
0.235598
0.189936
0.248529
-0.143247
-0.136451
-0.117839
-0.14474
-0.0863665
-0.174892
-0.0547494
-0.181002
-0.022188
-0.18851
0.0113204
-0.194685
0.0437047
-0.190236
0.0729699
-0.175231
0.0991539
-0.158457
0.122559
-0.141346
0.142967
-0.122816
0.160809
-0.106368
0.176681
-0.0926282
0.19085
-0.0805393
0.203624
-0.0709694
0.215269
-0.0631031
0.225952
-0.0569357
0.235884
-0.0521372
0.245193
-0.0486644
0.254015
-0.0459657
0.262445
-0.0440616
0.270501
-0.0423099
0.278123
-0.040105
0.285122
-0.0355988
0.291158
-0.0294627
0.296223
-0.024077
0.300413
-0.0189038
0.303724
-0.0140199
0.306197
-0.0093949
0.307868
-0.00499114
0.308779
-0.000773701
0.308959
0.0032712
0.308409
0.00729272
0.307154
0.0113726
0.305048
0.0159903
0.30187
0.0226165
0.296912
0.032272
0.288219
0.0634216
0.270236
0.111372
-0.166326
0.1921
-0.159262
0.218084
-0.163449
0.247458
-0.175298
0.273556
-0.159016
0.299051
-0.154681
0.323914
-0.146893
0.346549
-0.132339
0.367391
-0.120328
0.386618
-0.106922
0.403823
-0.0933136
0.41924
-0.0808937
0.432994
-0.0683845
0.444958
-0.0566102
0.455196
-0.0450587
0.463766
-0.0333381
0.47051
-0.0218808
0.475578
-0.00972063
0.478896
0.00237489
0.480551
0.0155082
0.480562
0.0286327
0.479063
0.0427196
0.476161
0.0553824
0.472023
0.0660471
0.466318
0.0709875
0.458938
0.0680231
0.450093
0.0629876
0.440339
0.0611096
0.430119
0.0620923
0.419585
0.0653797
0.408676
0.0698495
0.397434
0.0749648
0.38599
0.0808876
0.37464
0.0879684
0.363772
0.0972817
0.353666
0.111162
0.342608
0.135961
0.324145
0.178361
0.286148
0.273613
0.227604
0.307074
-0.140793
-0.161984
-0.114277
-0.171257
-0.08133
-0.20784
-0.0483772
-0.213954
-0.0145744
-0.222312
0.0202117
-0.229471
0.053639
-0.223663
0.0836412
-0.205232
0.110266
-0.185082
0.133927
-0.165006
0.154399
-0.143287
0.172223
-0.124192
0.188076
-0.108481
0.202262
-0.0947246
0.215114
-0.0838209
0.226914
-0.0749032
0.237852
-0.0678731
0.248071
-0.0623559
0.257713
-0.0583062
0.266876
-0.0551287
0.275637
-0.0528226
0.284008
-0.0506816
0.291965
-0.0480631
0.299256
-0.0428906
0.305653
-0.0358607
0.311074
-0.0294994
0.31555
-0.0233798
0.319133
-0.0176023
0.321819
-0.0120805
0.323675
-0.00684708
0.324704
-0.00180109
0.324974
0.00300377
0.324492
0.00777447
0.323217
0.0126444
0.321101
0.0180947
0.31783
0.0259018
0.312668
0.0374376
0.303977
0.0721048
0.28653
0.128809
-0.16569
0.192794
-0.186364
0.220187
-0.19084
0.251222
-0.206332
0.278511
-0.186304
0.305265
-0.181435
0.331345
-0.172972
0.354962
-0.155957
0.376947
-0.142313
0.396947
-0.126922
0.415019
-0.111386
0.431407
-0.097281
0.445959
-0.0829357
0.458745
-0.0693957
0.469884
-0.056196
0.479316
-0.0427693
0.487011
-0.0295741
0.493007
-0.0157154
0.497261
-0.00187666
0.499722
0.013049
0.500439
0.0279181
0.499555
0.0436071
0.497103
0.0578358
0.493212
0.0699392
0.487843
0.0763573
0.480806
0.0750594
0.472278
0.0715143
0.462763
0.0706236
0.452658
0.0721966
0.442087
0.0759515
0.431043
0.0808981
0.41939
0.0866258
0.407089
0.0931923
0.394063
0.101003
0.38047
0.110887
0.366735
0.124919
0.353796
0.148913
0.340678
0.191477
0.314334
0.299968
0.263625
0.35779
-0.138922
-0.188753
-0.111234
-0.198944
-0.0765681
-0.242506
-0.0420803
-0.24844
-0.0068249
-0.257567
0.0293845
-0.265679
0.0640911
-0.258369
0.0950164
-0.236157
0.122257
-0.212322
0.14631
-0.189058
0.166957
-0.163934
0.184813
-0.142047
0.20065
-0.124318
0.214819
-0.108892
0.227684
-0.0966855
0.239602
-0.0868207
0.250687
-0.0789575
0.26113
-0.072799
0.271033
-0.0682099
0.280499
-0.0645949
0.289561
-0.0618851
0.298268
-0.05939
0.306554
-0.0563498
0.314213
-0.05055
0.320977
-0.0426252
0.326763
-0.0352855
0.331589
-0.0282066
0.335489
-0.0215032
0.338452
-0.0150447
0.340524
-0.00892105
0.341757
-0.00303675
0.342159
0.00259639
0.34176
0.00816559
0.340525
0.01387
0.338344
0.0202598
0.334955
0.029278
0.329585
0.0427916
0.320748
0.0809155
0.303818
0.145702
-0.165773
0.194249
-0.214839
0.22308
-0.21967
0.25581
-0.239061
0.284475
-0.214967
0.312669
-0.209628
0.340079
-0.200383
0.364881
-0.180759
0.387731
-0.165162
0.408787
-0.147977
0.427648
-0.130246
0.4447
-0.114332
0.460011
-0.098246
0.473596
-0.0829803
0.485478
-0.068077
0.495662
-0.0529517
0.504176
-0.0380877
0.51091
-0.0224482
0.515837
-0.00680186
0.518974
0.00991356
0.520327
0.026566
0.520029
0.0439068
0.518136
0.0597309
0.514707
0.0733696
0.509726
0.0813396
0.503082
0.0817041
0.494874
0.0797221
0.485524
0.0799736
0.475485
0.0822342
0.464935
0.0864989
0.453832
0.091998
0.442122
0.0983332
0.429702
0.105608
0.416391
0.114312
0.401961
0.125321
0.386245
0.140649
0.369446
0.165682
0.35435
0.206557
0.334903
0.319435
0.293837
0.398855
-0.137527
-0.216997
-0.108486
-0.227986
-0.0720307
-0.278959
-0.0359506
-0.28452
0.000968362
-0.294484
0.0387975
-0.303507
0.0750104
-0.294581
0.10704
-0.268186
0.13506
-0.240342
0.15965
-0.213648
0.180585
-0.184868
0.198557
-0.160019
0.214416
-0.140177
0.228567
-0.123043
0.241432
-0.10955
0.253365
-0.098754
0.264569
-0.0901607
0.275165
-0.0833948
0.285275
-0.0783195
0.294995
-0.074315
0.304367
-0.0712569
0.313354
-0.0683772
0.321948
-0.0649443
0.329952
-0.058555
0.337097
-0.0497711
0.343224
-0.0414133
0.348392
-0.0333757
0.352576
-0.025687
0.355821
-0.0182899
0.358127
-0.0112262
0.359526
-0.00443426
0.360064
0.00206022
0.359732
0.00849956
0.358525
0.0150744
0.356333
0.0224414
0.352864
0.0327649
0.347311
0.0483502
0.338444
0.0897761
0.322116
0.162028
-0.166233
0.196312
-0.244916
0.226686
-0.250041
0.261294
-0.273664
0.291413
-0.245086
0.320897
-0.23911
0.349753
-0.229237
0.375701
-0.206707
0.399656
-0.189116
0.421661
-0.169982
0.441359
-0.149943
0.459218
-0.132191
0.475349
-0.114376
0.489595
-0.097225
0.502148
-0.080629
0.513139
-0.0639413
0.522318
-0.047265
0.529785
-0.0299135
0.535431
-0.0124453
0.539328
0.00601942
0.541421
0.0244756
0.541665
0.0436659
0.540303
0.0610947
0.537304
0.0763713
0.532699
0.0859452
0.526379
0.088025
0.518391
0.0877089
0.509194
0.0891704
0.499184
0.0922421
0.488497
0.0971852
0.477233
0.103263
0.46532
0.110251
0.452682
0.11825
0.439201
0.1278
0.424622
0.139912
0.408571
0.156721
0.390072
0.184193
0.371045
0.225585
0.35219
0.338302
0.316901
0.434151
-0.1366
-0.24663
-0.106089
-0.258496
-0.0676703
-0.317378
-0.029721
-0.322466
0.00890931
-0.333113
0.0485886
-0.343186
0.0863852
-0.332377
0.119692
-0.301491
0.148661
-0.26931
0.173945
-0.238931
0.195272
-0.206194
0.213425
-0.178172
0.22936
-0.156112
0.243503
-0.137185
0.256346
-0.122393
0.268293
-0.1107
0.279531
-0.101398
0.290226
-0.0940893
0.300517
-0.0886105
0.310444
-0.0842431
0.320026
-0.0808384
0.32931
-0.0776628
0.338218
-0.073853
0.346555
-0.0668922
0.354047
-0.0572645
0.360557
-0.047923
0.366052
-0.038871
0.370574
-0.0302088
0.374095
-0.0218119
0.376645
-0.0137769
0.378263
-0.00605411
0.378936
0.00138359
0.378715
0.00871387
0.377555
0.0162247
0.375332
0.0246479
0.371758
0.0363275
0.366071
0.0540214
0.357184
0.0986387
0.341428
0.177752
-0.16723
0.198888
-0.27657
0.230846
-0.281996
0.267378
-0.310196
0.299156
-0.276862
0.33024
-0.270192
0.360557
-0.259555
0.387644
-0.233791
0.412791
-0.214261
0.435799
-0.192991
0.456402
-0.170545
0.475017
-0.150805
0.491751
-0.131109
0.506747
-0.11222
0.52009
-0.0939704
0.531632
-0.0754821
0.541536
-0.0571673
0.549676
-0.0380518
0.556056
-0.0188241
0.560556
0.0015204
0.563252
0.0217812
0.564124
0.0427956
0.563229
0.0619908
0.560679
0.0789224
0.556483
0.0901425
0.550545
0.093964
0.542918
0.095336
0.533899
0.0981892
0.523884
0.102257
0.513137
0.10793
0.501629
0.114767
0.489411
0.122467
0.476434
0.131221
0.462593
0.141639
0.447695
0.154812
0.431458
0.172971
0.412833
0.202786
0.391442
0.246957
0.37041
0.359354
0.336135
0.468424
-0.135932
-0.277927
-0.103902
-0.290525
-0.0634023
-0.357877
-0.023508
-0.362359
0.0170937
-0.373713
0.058673
-0.384764
0.0982657
-0.371968
0.133001
-0.336226
0.163072
-0.299381
0.189133
-0.264992
0.21098
-0.228042
0.229406
-0.196598
0.245478
-0.172183
0.259647
-0.151353
0.272474
-0.13522
0.284394
-0.12262
0.295645
-0.112649
0.306409
-0.104852
0.316786
-0.098988
0.326874
-0.0943307
0.336699
-0.0906629
0.346231
-0.0871951
0.355406
-0.0830289
0.364079
-0.075566
0.371925
-0.0651103
0.378785
-0.0547844
0.384644
-0.0447307
0.389481
-0.0350453
0.393309
-0.0256411
0.396111
-0.0165781
0.397916
-0.00785881
0.39877
0.000532504
0.398644
0.0088408
0.397537
0.0173301
0.395295
0.0268817
0.39166
0.0399817
0.385829
0.0598606
0.376947
0.107517
0.361835
0.192866
-0.168505
0.201953
-0.310016
0.235665
-0.315706
0.274232
-0.34876
0.307613
-0.310243
0.340297
-0.302875
0.372183
-0.291439
0.400751
-0.262357
0.427024
-0.240534
0.451084
-0.217048
0.472559
-0.19202
0.492034
-0.17028
0.509591
-0.148664
0.525172
-0.1278
0.539101
-0.107898
0.551368
-0.0877471
0.561914
-0.0677116
0.570669
-0.0468043
0.577635
-0.0257882
0.582767
-0.00360861
0.586088
0.0184626
0.587552
0.0413346
0.58721
0.062335
0.585117
0.0810177
0.581314
0.0939476
0.575735
0.0995449
0.568427
0.102644
0.55962
0.106996
0.549706
0.112169
0.53887
0.118765
0.527197
0.126439
0.514684
0.134982
0.501305
0.144603
0.487018
0.15593
0.471608
0.170233
0.454881
0.189718
0.436202
0.221473
0.414055
0.269107
0.390968
0.382454
0.356348
0.503049
-0.135561
-0.31087
-0.101807
-0.324277
-0.0591588
-0.400524
-0.0171672
-0.40435
0.0254972
-0.416375
0.0691502
-0.428416
0.110708
-0.413524
0.146979
-0.372496
0.178264
-0.330666
0.205266
-0.291993
0.227732
-0.250508
0.246525
-0.21539
0.262768
-0.188425
0.277004
-0.165588
0.289825
-0.148041
0.301729
-0.134523
0.312953
-0.123873
0.323735
-0.115633
0.3342
-0.109453
0.344401
-0.104532
0.354386
-0.100648
0.364128
-0.0969371
0.373599
-0.0925011
0.382583
-0.0845505
0.390774
-0.0733017
0.39799
-0.0620016
0.404188
-0.0509282
0.409369
-0.0402265
0.413475
-0.0297478
0.416554
-0.0196565
0.418588
-0.00989399
0.419601
-0.000481953
0.419611
0.00882489
0.418546
0.0183862
0.41631
0.0291017
0.412601
0.0436809
0.406653
0.065793
0.397837
0.116309
0.383377
0.2073
-0.170218
0.205389
-0.345185
0.240957
-0.351271
0.281676
-0.389478
0.316899
-0.345464
0.351324
-0.337299
0.384841
-0.324956
0.414813
-0.292328
0.4424
-0.268117
0.467514
-0.242162
0.489956
-0.214459
0.51024
-0.190561
0.528507
-0.166929
0.544866
-0.144158
0.559463
-0.122493
0.57231
-0.100593
0.583413
-0.0788131
0.592792
-0.056182
0.600394
-0.0333885
0.606132
-0.00934556
0.609958
0.0146384
0.611964
0.0393293
0.6121
0.0622008
0.610453
0.0826652
0.607098
0.0973042
0.601973
0.104671
0.594997
0.10962
0.586449
0.115544
0.576625
0.121993
0.565756
0.129631
0.553942
0.138249
0.541185
0.147737
0.527449
0.158335
0.512676
0.1707
0.496709
0.186204
0.479323
0.207115
0.460169
0.240594
0.43782
0.291437
0.413635
0.406658
0.37896
0.537722
-0.13537
-0.345717
-0.0999364
-0.35971
-0.0549218
-0.445538
-0.010726
-0.448544
0.0341915
-0.461292
0.0801275
-0.47435
0.123681
-0.457076
0.161676
-0.410489
0.194295
-0.363286
0.22234
-0.320038
0.245523
-0.273692
0.264763
-0.23463
0.281274
-0.204936
0.29563
-0.179943
0.308466
-0.160877
0.320346
-0.146402
0.331545
-0.135072
0.342318
-0.126405
0.352803
-0.119938
0.363094
-0.114822
0.373206
-0.11076
0.38315
-0.106881
0.392855
-0.102207
0.402149
-0.0938442
0.410664
-0.081818
0.418226
-0.0695645
0.42477
-0.0574726
0.430258
-0.0457151
0.434687
-0.0341768
0.438037
-0.0230077
0.440311
-0.0121669
0.441521
-0.00168953
0.441653
0.00869398
0.440668
0.0193684
0.438427
0.0313353
0.434686
0.0474435
0.428651
0.0718388
0.419865
0.125092
0.406102
0.221068
-0.172148
0.209263
-0.382298
0.24679
-0.388798
0.289802
-0.432488
0.326907
-0.382569
0.36311
-0.373501
0.398377
-0.360221
0.429882
-0.323831
0.458773
-0.297009
0.4851
-0.268485
0.508527
-0.237884
0.529753
-0.211786
0.548779
-0.185953
0.565822
-0.1612
0.581062
-0.137733
0.594424
-0.113953
0.606166
-0.0905532
0.616123
-0.0661373
0.62427
-0.041533
0.6306
-0.0156734
0.635021
0.01022
0.637526
0.0368266
0.638171
0.0615589
0.636987
0.0838514
0.634041
0.100252
0.629293
0.10942
0.622667
0.116247
0.614401
0.12381
0.604731
0.131662
0.593864
0.140498
0.581926
0.150186
0.568926
0.160738
0.554864
0.172396
0.539638
0.185927
0.523158
0.202691
0.505119
0.225171
0.485244
0.260475
0.462479
0.314207
0.437845
0.431305
0.403687
0.571884
-0.135503
-0.382359
-0.0980429
-0.397169
-0.0506326
-0.492946
-0.00405941
-0.495117
0.0431961
-0.508545
0.0914861
-0.52264
0.137315
-0.502903
0.177122
-0.450295
0.211232
-0.397395
0.240422
-0.349227
0.264421
-0.297691
0.284174
-0.254382
0.301013
-0.221774
0.31552
-0.194451
0.328403
-0.173759
0.340286
-0.158284
0.35146
-0.146246
0.362185
-0.13713
0.372673
-0.130426
0.383018
-0.125167
0.393233
-0.120975
0.403326
-0.116974
0.413263
-0.112144
0.422829
-0.103411
0.431655
-0.0906451
0.439549
-0.0774584
0.446431
-0.064355
0.452262
-0.0515473
0.457003
-0.038917
0.460634
-0.0266391
0.463145
-0.014678
0.46454
-0.00308529
0.464822
0.00840871
0.46392
0.0202627
0.461701
0.0335393
0.45792
0.0512157
0.451831
0.0779132
0.443165
0.133736
0.43007
0.234143
-0.174358
0.213572
-0.42151
0.253125
-0.428348
0.298542
-0.477906
0.337602
-0.421628
0.37573
-0.411628
0.412933
-0.397424
0.445962
-0.356858
0.476285
-0.327329
0.50395
-0.296149
0.528463
-0.262396
0.550568
-0.233888
0.57042
-0.205805
0.588079
-0.178858
0.603968
-0.15362
0.618043
-0.128027
0.630318
-0.102827
0.640835
-0.0766535
0.649506
-0.0502024
0.656273
-0.0224395
0.661197
0.00529723
0.664233
0.0337915
0.665304
0.0604893
0.66457
0.0845867
0.662055
0.102768
0.657729
0.113747
0.651518
0.122459
0.643503
0.131825
0.634001
0.141163
0.623203
0.151295
0.611173
0.162214
0.597975
0.173934
0.583584
0.186784
0.567978
0.201531
0.550979
0.219694
0.532317
0.243843
0.511698
0.281063
0.488335
0.337549
0.463318
0.45634
0.43006
0.60514
-0.135711
-0.421006
-0.0963531
-0.436525
-0.0462838
-0.543015
0.00278553
-0.544184
0.0525401
-0.5583
0.103411
-0.573509
0.151557
-0.551049
0.19336
-0.492098
0.229022
-0.433058
0.259498
-0.379703
0.284393
-0.322586
0.304781
-0.274771
0.322009
-0.239002
0.336737
-0.209178
0.349712
-0.186734
0.361593
-0.170164
0.372727
-0.15738
0.383433
-0.147834
0.393897
-0.140889
0.404247
-0.135516
0.414531
-0.131259
0.424769
-0.127212
0.434901
-0.122278
0.444716
-0.113226
0.453856
-0.0997854
0.462064
-0.0856672
0.469274
-0.0715659
0.47542
-0.0576937
0.480473
-0.043971
0.484378
-0.0305448
0.487148
-0.0174477
0.488767
-0.00470253
0.489185
0.00799068
0.488393
0.0210515
0.486215
0.0357113
0.482413
0.0550379
0.476297
0.0840412
0.467722
0.142311
0.455341
0.246531
-0.176901
0.218273
-0.462882
0.259956
-0.47003
0.307886
-0.525834
0.34901
-0.462752
0.389243
-0.45186
0.428395
-0.436574
0.463119
-0.391581
0.494987
-0.359198
0.52394
-0.325099
0.549539
-0.287994
0.572627
-0.256977
0.593343
-0.226517
0.611839
-0.197354
0.628337
-0.170116
0.642973
-0.142661
0.655798
-0.11565
0.666827
-0.0876811
0.676008
-0.0593821
0.683364
-0.0297935
0.688742
-7.82793e-05
0.692198
0.030338
0.693759
0.0589304
0.693424
0.0849242
0.691318
0.104876
0.687381
0.117687
0.681543
0.128299
0.673866
0.139504
0.66456
0.15047
0.653814
0.16204
0.641725
0.174302
0.628361
0.187298
0.613699
0.201444
0.597675
0.217554
0.580182
0.237192
0.56096
0.263081
0.539682
0.302344
0.515592
0.361644
0.490117
0.481828
0.457783
0.637477
-0.136093
-0.461812
-0.0945896
-0.478028
-0.0418047
-0.595798
0.00989968
-0.595889
0.0623107
-0.610709
0.115885
-0.627083
0.166547
-0.60171
0.210447
-0.535997
0.247828
-0.470439
0.279649
-0.411523
0.305565
-0.348501
0.326629
-0.295834
0.344313
-0.256685
0.359309
-0.224173
0.372414
-0.19984
0.384333
-0.182082
0.395445
-0.168491
0.406101
-0.15849
0.416531
-0.151319
0.426881
-0.145866
0.437198
-0.141576
0.447525
-0.137539
0.457833
-0.132586
0.467911
-0.123303
0.477315
-0.109191
0.485819
-0.0941718
0.493343
-0.0790915
0.499808
-0.0641594
0.505173
-0.0493359
0.50938
-0.0347524
0.512406
-0.0204736
0.51422
-0.00651602
0.514828
0.00738057
0.514135
0.0217387
0.512013
0.03782
0.508215
0.0588293
0.502089
0.0901532
0.493669
0.150712
0.48202
0.258165
-0.179641
0.223239
-0.506478
0.267246
-0.514035
0.317849
-0.576438
0.361203
-0.506104
0.403588
-0.494244
0.444771
-0.477757
0.481338
-0.428148
0.514808
-0.392665
0.545134
-0.355426
0.571953
-0.314812
0.596154
-0.281176
0.617716
-0.248079
0.636965
-0.216601
0.654164
-0.187314
0.669373
-0.157869
0.682765
-0.129041
0.694297
-0.0992124
0.703996
-0.06908
0.711765
-0.0375621
0.717638
-0.00594927
0.721521
0.0264552
0.723463
0.0569893
0.723564
0.0848241
0.72185
0.106592
0.718339
0.121199
0.712864
0.133775
0.705499
0.14687
0.696413
0.159555
0.685751
0.172702
0.673654
0.186397
0.660142
0.20081
0.645224
0.216359
0.628839
0.233937
0.610871
0.255164
0.59111
0.282851
0.569176
0.324248
0.544428
0.38637
0.518422
0.507851
0.486846
0.669051
-0.136608
-0.504845
-0.0928885
-0.521747
-0.0372291
-0.651457
0.0173134
-0.650429
0.0725116
-0.665908
0.128913
-0.683483
0.182292
-0.65509
0.228403
-0.582107
0.267636
-0.509672
0.300919
-0.444806
0.327908
-0.375489
0.349741
-0.317668
0.367963
-0.274907
0.383283
-0.239492
0.39655
-0.213107
0.40855
-0.194081
0.419658
-0.179599
0.43028
-0.169111
0.440663
-0.161702
0.450979
-0.156182
0.461325
-0.151922
0.471723
-0.147936
0.482178
-0.143041
0.492451
-0.133577
0.50211
-0.11885
0.510912
-0.102975
0.518735
-0.086915
0.525522
-0.0709468
0.53118
-0.0549947
0.535679
-0.0392519
0.538966
-0.0237604
0.541024
-0.00857354
0.541796
0.00660881
0.541217
0.0223128
0.539174
0.0398572
0.535391
0.0626335
0.529316
0.0962415
0.521044
0.158984
0.510095
0.269121
-0.182682
0.22868
-0.552476
0.275121
-0.560476
0.328419
-0.629734
0.37422
-0.551906
0.418779
-0.538803
0.462218
-0.521194
0.500631
-0.466559
0.535806
-0.427841
0.567661
-0.387279
0.595775
-0.342924
0.620956
-0.306357
0.643534
-0.270657
0.663538
-0.236604
0.681433
-0.205209
0.697344
-0.17378
0.711248
-0.142944
0.723318
-0.111281
0.733476
-0.0792368
0.741741
-0.0458248
0.748008
-0.0122142
0.752289
0.0221767
0.754667
0.0546138
0.755097
0.0843964
0.753765
0.107926
0.750614
0.124353
0.745506
0.138885
0.738479
0.153899
0.729634
0.168401
0.719136
0.183202
0.707031
0.198503
0.693403
0.214439
0.678246
0.231514
0.661517
0.250663
0.643117
0.273564
0.62278
0.3032
0.600284
0.346745
0.574913
0.411746
0.548318
0.534458
0.517396
0.699975
-0.137304
-0.550222
-0.0912024
-0.567848
-0.0324586
-0.7102
0.0250022
-0.707891
0.0831999
-0.724104
0.142627
-0.74291
0.198772
-0.711233
0.247318
-0.630654
0.288483
-0.550836
0.323376
-0.479699
0.351543
-0.403656
0.374225
-0.340349
0.393035
-0.293716
0.408727
-0.255184
0.422219
-0.226598
0.434298
-0.206159
0.445443
-0.190744
0.456021
-0.179688
0.466357
-0.172038
0.476635
-0.166459
0.486974
-0.162261
0.497425
-0.158387
0.50801
-0.153627
0.518479
-0.144047
0.528378
-0.12875
0.537432
-0.11203
0.545534
-0.0950181
0.552603
-0.0780174
0.558574
-0.0609661
0.56335
-0.0440286
0.566915
-0.0273255
0.569187
-0.0108457
0.570162
0.00563304
0.569741
0.0227293
0.567755
0.0418318
0.564052
0.0663317
0.55802
0.102262
0.549974
0.167012
0.539734
0.279349
-0.185942
0.234469
-0.601001
0.283385
-0.609392
0.339732
-0.686082
0.387856
-0.600028
0.434919
-0.585865
0.480621
-0.566897
0.521126
-0.507064
0.558031
-0.464744
0.591458
-0.420707
0.620895
-0.372361
0.647335
-0.332796
0.670834
-0.294155
0.69176
-0.257529
0.710392
-0.22384
0.726907
-0.190294
0.741399
-0.157435
0.753954
-0.123835
0.764554
-0.0898364
0.773203
-0.0544725
0.779891
-0.0189006
0.784595
0.017474
0.787268
0.051942
0.788062
0.0836032
0.787105
0.108884
0.784315
0.127143
0.779606
0.143596
0.772902
0.160603
0.764296
0.177008
0.753921
0.193578
0.741875
0.210549
0.728167
0.228146
0.712807
0.246874
0.695765
0.267704
0.67694
0.292396
0.656112
0.324037
0.63304
0.36979
0.607107
0.437658
0.579975
0.561605
0.549598
0.730351
-0.138094
-0.59807
-0.0894872
-0.616454
-0.0275242
-0.772163
0.0330187
-0.768432
0.0943651
-0.785452
0.156994
-0.805537
0.216156
-0.770396
0.2672
-0.681697
0.310455
-0.594091
0.347025
-0.516268
0.376474
-0.433104
0.400087
-0.363962
0.419552
-0.313181
0.43569
-0.271322
0.44944
-0.240348
0.461661
-0.21838
0.472836
-0.201918
0.483405
-0.190256
0.493693
-0.182325
0.50395
-0.176716
0.514254
-0.172565
0.524748
-0.168882
0.535425
-0.164304
0.546069
-0.154692
0.556184
-0.138864
0.565464
-0.121311
0.573849
-0.103404
0.581198
-0.0853674
0.587433
-0.0672009
0.592519
-0.0491159
0.596338
-0.0311446
0.598859
-0.0133656
0.600008
0.00448288
0.599736
0.0229968
0.597883
0.0436773
0.594235
0.0699979
0.588324
0.108187
0.580482
0.174857
0.57096
0.288878
-0.189478
0.240625
-0.652148
0.292212
-0.660978
0.351611
-0.745479
0.402442
-0.65086
0.45195
-0.635373
0.500168
-0.615114
0.542691
-0.549586
0.581533
-0.503588
0.616649
-0.455821
0.647555
-0.403266
0.675163
-0.360405
0.699795
-0.318787
0.721587
-0.279321
0.740998
-0.24325
0.758136
-0.207433
0.77324
-0.172538
0.786273
-0.136867
0.79732
-0.100882
0.806424
-0.0635744
0.813463
-0.0259378
0.818487
0.0124521
0.821512
0.0489194
0.822629
0.0824897
0.821996
0.10952