/*--------------------------------*- C++ -*----------------------------------*\
| =========                 |                                                 |
| \\      /  F ield         | OpenFOAM: The Open Source CFD Toolbox           |
|  \\    /   O peration     | Version:  2306                                  |
|   \\  /    A nd           | Website:  www.openfoam.com                      |
|    \\/     M anipulation  |                                                 |
\*---------------------------------------------------------------------------*/
FoamFile
{
    version     2.0;
    format      ascii;
    arch        "LSB;label=32;scalar=64";
    class       volScalarField;
    location    "125";
    object      turbulenceProperties:epsilon;
}
// * * * * * * * * * * * * * * * * * * * * * * * * * * * * * * * * * * * * * //

dimensions      [0 2 -3 0 0 0 0];

internalField   nonuniform List<scalar> 
10720
(
0.171464
0.228526
0.310212
0.434901
0.597556
0.823318
1.13258
1.53378
2.05664
2.72998
3.5903
4.71494
6.22336
8.26364
11.1016
15.1969
21.2007
30.5619
44.7919
70.1432
107.592
192.959
311.934
691.192
1037.16
1092.06
1039.94
990.594
952.43
910.225
855.599
787.213
707.906
619.677
522.074
418.366
297.619
189.945
38.8325
0.126183
0.093826
0.0627802
0.040685
0.0241319
0.013237
0.00786101
0.00766097
0.0122502
0.0240348
0.0487082
0.0951514
0.17534
0.303302
0.494381
0.772803
1.18252
1.80768
2.80885
4.47498
7.41886
12.6994
23.2073
43.3013
89.522
182.897
420.567
801.983
1069
1171.91
1195.19
1190.9
1171.81
1140.31
1097.39
1045.13
972.401
890.548
658.037
0.00654166
0.00650679
0.00637576
0.00604088
0.00553757
0.00497006
0.0043303
0.0036582
0.00303995
0.00247952
0.00199968
0.00162651
0.00135178
0.00129836
0.00161522
0.00274585
0.00627823
0.0162958
0.0443725
0.141854
0.459584
1.81452
5.93434
21.9321
57.0596
95.5892
126.708
144.124
143.424
124.92
96.1376
68.9825
48.838
35.4741
26.889
21.2492
17.8659
15.4995
18.33
0.00640055
0.00618831
0.00583041
0.00531771
0.00463097
0.00381576
0.00307538
0.00245015
0.00187231
0.00137583
0.000991403
0.000706421
0.000497372
0.00034521
0.000236773
0.000161256
0.000108543
7.20908e-05
4.60686e-05
2.71236e-05
1.30385e-05
4.1149e-06
4.77824e-07
1.38203e-08
1.53268e-05
0.00174399
0.0119334
0.0808968
0.229932
0.402439
0.575481
0.749298
0.928039
1.1156
1.31322
1.53522
1.78953
2.43993
4.44999
0.00299126
0.00292069
0.00277014
0.00255603
0.00233872
0.00210853
0.00188371
0.00168918
0.00152744
0.00140382
0.00131232
0.00124816
0.00120717
0.00119274
0.00120994
0.0012252
0.00107131
0.000931042
0.000271049
0.00792779
0.0177479
0.00878551
0.00730257
0.000451636
0.00145119
0.0706038
0.498266
2.09486
6.57408
15.6271
28.0727
38.1942
40.6751
35.9898
28.5387
21.6012
16.6623
12.2995
15.6959
0.0030477
0.00305163
0.00303701
0.00292945
0.00271378
0.00237544
0.00199156
0.00164806
0.00132159
0.000998857
0.000713233
0.00048827
0.00032392
0.000209545
0.000134803
8.74774e-05
5.84352e-05
4.083e-05
3.0393e-05
2.41548e-05
2.05142e-05
1.86021e-05
1.79624e-05
1.81534e-05
1.8838e-05
1.9196e-05
2.02574e-05
7.43625e-06
0.000349919
0.00139247
0.00262688
0.00487956
0.0137552
0.0370962
0.0802117
0.142334
0.220293
0.266457
0.654669
0.0020517
0.00206079
0.00204046
0.00200425
0.00193589
0.0018366
0.00171653
0.00157349
0.00141781
0.00125539
0.00109265
0.000936736
0.000791464
0.000655397
0.000531729
0.000418758
0.000311774
0.000225427
0.000146501
7.78662e-05
1.26547e-05
5.5981e-05
0.00016651
6.80972e-06
0.00544714
0.0209197
0.0425774
0.00379179
0.00904363
0.00349973
0.0727124
0.937817
4.11808
9.80303
15.0795
16.975
16.1401
13.166
15.1557
0.00200947
0.00194916
0.00185877
0.00174675
0.00159935
0.00142113
0.00123679
0.00104971
0.000857652
0.000673682
0.00051418
0.000386464
0.000288263
0.000214423
0.000160366
0.000121082
9.28918e-05
7.26545e-05
5.82259e-05
4.76482e-05
3.98242e-05
3.3757e-05
2.8684e-05
2.36872e-05
1.89853e-05
1.55212e-05
1.30783e-05
1.17712e-05
8.53062e-06
1.04204e-05
4.45122e-07
3.71234e-07
2.27284e-05
1.31303e-05
0.000166939
0.00150029
0.00734445
0.0251306
0.172071
0.00118478
0.00117919
0.00115954
0.00112526
0.00107514
0.00100923
0.00093196
0.000846202
0.000756189
0.000667888
0.000584716
0.000509745
0.000444681
0.000390413
0.000346432
0.000313613
0.000286892
0.000259591
0.000230051
0.000196426
0.000135113
4.44557e-05
1.34098e-06
6.29513e-08
8.32757e-09
0
0
0.000137073
0.0043842
0.0182587
0.00996955
0.0200371
0.0194131
0.0500079
0.976916
4.16754
8.64438
11.0893
14.184
0.00117769
0.00116112
0.00112842
0.00107482
0.000996843
0.000899326
0.000797826
0.000692185
0.000581947
0.000474086
0.000375142
0.000289674
0.000218976
0.000162374
0.000118706
8.6044e-05
6.22828e-05
4.53826e-05
3.36113e-05
2.54479e-05
1.98065e-05
1.58358e-05
1.2914e-05
1.04295e-05
8.14355e-06
6.26658e-06
4.997e-06
4.26771e-06
4.06267e-06
3.44449e-06
5.87863e-06
2.96817e-11
1.71659e-05
7.6046e-05
4.51551e-05
2.59635e-05
6.09063e-05
0.000331926
0.0189332
0.000783536
0.000789424
0.000788073
0.000780973
0.000765276
0.000740563
0.000708135
0.000667677
0.000620686
0.000569215
0.00051457
0.000458737
0.000403522
0.000350305
0.000300332
0.000254565
0.00021112
0.000168713
0.000131054
0.000100124
7.69848e-05
5.83169e-05
3.67314e-05
1.5439e-05
2.81387e-06
3.17823e-08
7.1956e-09
1.09353e-09
0
0
0.000587266
0.00310156
0.0163484
0.00743892
0.0236651
0.0425899
1.1884
5.23071
11.0811
0.000770062
0.000752308
0.000726649
0.000690434
0.000642971
0.000586577
0.000528294
0.000466311
0.000400621
0.000335425
0.000274113
0.000219497
0.000172921
0.000134455
0.000103685
7.97898e-05
6.16432e-05
4.80801e-05
3.80555e-05
3.0638e-05
2.50881e-05
2.07879e-05
1.72463e-05
1.39909e-05
1.08974e-05
8.26974e-06
6.26108e-06
4.79162e-06
3.71189e-06
2.9177e-06
2.3025e-06
1.70679e-06
1.08133e-06
2.18268e-07
3.96055e-10
1.17772e-06
7.86036e-06
6.83093e-05
0.00147757
0.000514607
0.000518858
0.000519306
0.000516024
0.000507837
0.000493921
0.000474725
0.000450143
0.000420789
0.000387928
0.000352624
0.000316227
0.000280175
0.000245516
0.000213325
0.000184164
0.000158841
0.000137784
0.000119223
0.000101659
8.4992e-05
7.02944e-05
5.90213e-05
4.63189e-05
3.32156e-05
1.7784e-05
6.4275e-06
7.98283e-07
1.19092e-08
3.00464e-09
7.50877e-12
0
0
0.000624476
0.00895253
0.0106393
0.0140341
0.827313
5.90176
0.000506065
0.000495202
0.000479711
0.000456784
0.000427683
0.000394124
0.000358969
0.000321136
0.00028105
0.000240884
0.000202265
0.000166693
0.000135108
0.000107853
8.50209e-05
6.64434e-05
5.16838e-05
4.02024e-05
3.14295e-05
2.47821e-05
1.97518e-05
1.58872e-05
1.28046e-05
1.01502e-05
7.76967e-06
5.78237e-06
4.27406e-06
3.18971e-06
2.4184e-06
1.88259e-06
1.54158e-06
1.35324e-06
1.21498e-06
9.05393e-07
4.29556e-07
1.01012e-07
6.70585e-10
0
0.000279898
0.000351538
0.000356132
0.000358785
0.000359356
0.000357361
0.000352009
0.000343497
0.00033151
0.000316186
0.0002981
0.000277517
0.000255127
0.000231665
0.000207737
0.000184031
0.000161106
0.000139455
0.00011862
9.86857e-05
8.0729e-05
6.55156e-05
5.32769e-05
4.40342e-05
3.7246e-05
3.11845e-05
2.5696e-05
1.8807e-05
1.22763e-05
6.06192e-06
2.28884e-06
5.4141e-09
2.50852e-09
2.82305e-19
0
0
0.00117819
0.00325862
0.0311501
1.74733
0.000344494
0.000336361
0.000325777
0.000310339
0.000291718
0.000271064
0.000249103
0.000225268
0.000200207
0.000174933
0.000150197
0.000126893
0.00010562
8.66884e-05
7.0302e-05
5.65329e-05
4.52348e-05
3.61746e-05
2.90408e-05
2.34753e-05
1.91279e-05
1.56762e-05
1.28314e-05
1.03339e-05
8.0726e-06
6.14237e-06
4.61897e-06
3.46438e-06
2.58873e-06
1.92428e-06
1.42748e-06
1.05391e-06
7.72304e-07
5.68813e-07
4.50932e-07
3.84234e-07
1.30984e-07
8.91255e-10
0
0.000244102
0.000247856
0.000250709
0.000252143
0.000252065
0.000250011
0.00024585
0.000239344
0.000230499
0.00021954
0.000206599
0.000192033
0.000176297
0.000159833
0.00014317
0.000126773
0.000110979
9.62858e-05
8.298e-05
7.09129e-05
6.00027e-05
5.03164e-05
4.19862e-05
3.49635e-05
2.876e-05
2.32989e-05
1.84833e-05
1.4574e-05
1.15954e-05
8.99738e-06
4.93566e-06
1.89611e-06
2.63655e-16
1.69667e-10
0
0
0.000291671
0.00303308
0.262297
0.000238917
0.000233119
0.000225927
0.000215481
0.000203301
0.000190151
0.000176009
0.000160655
0.000144622
0.000128409
0.000112362
9.6956e-05
8.25501e-05
6.93589e-05
5.75655e-05
4.72983e-05
3.85722e-05
3.13141e-05
2.53913e-05
2.06192e-05
1.67899e-05
1.36894e-05
1.11151e-05
8.88741e-06
6.91894e-06
5.25119e-06
3.93316e-06
2.93698e-06
2.19112e-06
1.63533e-06
1.23037e-06
9.4732e-07
7.54924e-07
6.30307e-07
5.61102e-07
5.69361e-07
6.30371e-07
5.06779e-07
2.9142e-10
0.000172944
0.000175997
0.000178695
0.000180607
0.000181512
0.000181245
0.000179709
0.000176704
0.000172107
0.000166028
0.00015844
0.000149518
0.000139493
0.000128607
0.000117169
0.000105476
9.38321e-05
8.25025e-05
7.14713e-05
6.10078e-05
5.15386e-05
4.3313e-05
3.63757e-05
3.04906e-05
2.52021e-05
2.02678e-05
1.59158e-05
1.24734e-05
1.00953e-05
8.50965e-06
7.43931e-06
6.19147e-06
3.08283e-06
1.54627e-07
9.40205e-10
0
0
0.000880518
0.0331963
0.000168932
0.000164673
0.000159585
0.000152398
0.000144246
0.000135594
0.00012627
0.000116198
0.000105762
9.51655e-05
8.4604e-05
7.43368e-05
6.45471e-05
5.53626e-05
4.69344e-05
3.93845e-05
3.27681e-05
2.7101e-05
2.2336e-05
1.83876e-05
1.51375e-05
1.24474e-05
1.01778e-05
8.20626e-06
6.4647e-06
4.97756e-06
3.78077e-06
2.85561e-06
2.1469e-06
1.60499e-06
1.19622e-06
8.9251e-07
6.69737e-07
5.14954e-07
4.11759e-07
3.89657e-07
3.71447e-07
9.65724e-07
9.94653e-08
0.00012434
0.000126822
0.000129111
0.000130923
0.000132191
0.000132687
0.000132322
0.000131011
0.000128638
0.000125269
0.000120755
0.00011519
0.000108685
0.000101374
9.34537e-05
8.51414e-05
7.66365e-05
6.81952e-05
6.00032e-05
5.22326e-05
4.50263e-05
3.85095e-05
3.27443e-05
2.76608e-05
2.30225e-05
1.86612e-05
1.47189e-05
1.14751e-05
9.07484e-06
7.38035e-06
6.31352e-06
5.65869e-06
5.45305e-06
4.03908e-06
5.25272e-07
1.03409e-09
0
9.86962e-05
0.00855639
0.000121284
0.00011813
0.000114481
0.000109459
0.000103902
9.8068e-05
9.1792e-05
8.50729e-05
7.81586e-05
7.1152e-05
6.41051e-05
5.71917e-05
5.05077e-05
4.41169e-05
3.81086e-05
3.25805e-05
2.75943e-05
2.31895e-05
1.93751e-05
1.61203e-05
1.33658e-05
1.10341e-05
9.03838e-06
7.29886e-06
5.77043e-06
4.46533e-06
3.40564e-06
2.57871e-06
1.94266e-06
1.4569e-06
1.09218e-06
8.25764e-07
6.35945e-07
5.08342e-07
4.25642e-07
4.11543e-07
3.93133e-07
7.53723e-07
9.91718e-07
9.05934e-05
9.25851e-05
9.4497e-05
9.60917e-05
9.73781e-05
9.82232e-05
9.85416e-05
9.81771e-05
9.71025e-05
9.52925e-05
9.2776e-05
8.94356e-05
8.53416e-05
8.05674e-05
7.52159e-05
6.94167e-05
6.33148e-05
5.70944e-05
5.08731e-05
4.47488e-05
3.89154e-05
3.35757e-05
2.87985e-05
2.45352e-05
2.06211e-05
1.69352e-05
1.3564e-05
1.07195e-05
8.51747e-06
6.87895e-06
5.68066e-06
4.83692e-06
4.40945e-06
4.50207e-06
3.95186e-06
4.84218e-07
4.45356e-14
2.90864e-05
0.00292091
8.82568e-05
8.58867e-05
8.32304e-05
7.96698e-05
7.58304e-05
7.17963e-05
6.74934e-05
6.2946e-05
5.83014e-05
5.3592e-05
4.88428e-05
4.41514e-05
3.95655e-05
3.51062e-05
3.08347e-05
2.68127e-05
2.30875e-05
1.97059e-05
1.66915e-05
1.40498e-05
1.176e-05
9.78056e-06
8.05837e-06
6.5449e-06
5.21517e-06
4.07435e-06
3.13711e-06
2.39503e-06
1.81699e-06
1.37038e-06
1.03049e-06
7.77025e-07
5.91585e-07
4.62864e-07
3.77769e-07
3.52167e-07
3.45906e-07
5.39433e-07
1.273e-06
6.67516e-05
6.83319e-05
6.98895e-05
7.1243e-05
7.24178e-05
7.33213e-05
7.39028e-05
7.40591e-05
7.37414e-05
7.28483e-05
7.14292e-05
6.9491e-05
6.69396e-05
6.38311e-05
6.02261e-05
5.61987e-05
5.18445e-05
4.72813e-05
4.26408e-05
3.80071e-05
3.34982e-05
2.92682e-05
2.53772e-05
2.18153e-05
1.84971e-05
1.53574e-05
1.24663e-05
9.99003e-06
8.02816e-06
6.53623e-06
5.39605e-06
4.52477e-06
3.88416e-06
3.58009e-06
3.79971e-06
4.39784e-06
3.11451e-09
6.47579e-07
0.00084892
6.4966e-05
6.31722e-05
6.12146e-05
5.86549e-05
5.59594e-05
5.31348e-05
5.01234e-05
4.69934e-05
4.38378e-05
4.06414e-05
3.74087e-05
3.41938e-05
3.10285e-05
2.79168e-05
2.48797e-05
2.19609e-05
1.91947e-05
1.66196e-05
1.42626e-05
1.21407e-05
1.02547e-05
8.58765e-06
7.11324e-06
5.80673e-06
4.65533e-06
3.66334e-06
2.84003e-06
2.18032e-06
1.66159e-06
1.25817e-06
9.49605e-07
7.18932e-07
5.50867e-07
4.34365e-07
3.57591e-07
3.3123e-07
3.27041e-07
4.5678e-07
1.07831e-06
4.96749e-05
5.09197e-05
5.21755e-05
5.32973e-05
5.43225e-05
5.51926e-05
5.58524e-05
5.6235e-05
5.62918e-05
5.60157e-05
5.52696e-05
5.4168e-05
5.26336e-05
5.0662e-05
4.828e-05
4.55283e-05
4.24635e-05
3.91619e-05
3.5731e-05
3.22161e-05
2.87082e-05
2.53449e-05
2.2191e-05
1.9253e-05
1.64808e-05
1.38376e-05
1.13808e-05
9.24156e-06
7.51134e-06
6.1713e-06
5.13555e-06
4.33221e-06
3.70383e-06
3.26819e-06
2.92903e-06
4.39663e-06
1.09496e-06
4.63449e-10
0.000123022
4.82997e-05
4.69365e-05
4.54765e-05
4.36177e-05
4.16951e-05
3.96849e-05
3.75549e-05
3.53656e-05
3.31879e-05
3.10034e-05
2.87801e-05
2.65641e-05
2.43691e-05
2.2188e-05
2.00316e-05
1.79202e-05
1.58753e-05
1.39277e-05
1.21018e-05
1.04166e-05
8.88113e-06
7.49494e-06
6.24855e-06
5.1336e-06
4.14573e-06
3.28894e-06
2.57051e-06
1.9875e-06
1.52386e-06
1.1599e-06
8.78963e-07
6.66806e-07
5.10255e-07
3.99946e-07
3.25895e-07
2.97092e-07
2.89445e-07
3.908e-07
8.67343e-07
3.72879e-05
3.8263e-05
3.92681e-05
4.0184e-05
4.10549e-05
4.18385e-05
4.24851e-05
4.29537e-05
4.32045e-05
4.3214e-05
4.29375e-05
4.23233e-05
4.14491e-05
4.0226e-05
3.86702e-05
3.68096e-05
3.46766e-05
3.23117e-05
2.9798e-05
2.71696e-05
2.44889e-05
2.18555e-05
1.93324e-05
1.6934e-05
1.46372e-05
1.24257e-05
1.03481e-05
8.50864e-06
6.98906e-06
5.78913e-06
4.8505e-06
4.12084e-06
3.54626e-06
3.15193e-06
2.72091e-06
2.9808e-06
4.37814e-06
4.54877e-12
5.81603e-06
3.62216e-05
3.5177e-05
3.40835e-05
3.27187e-05
3.13248e-05
2.98749e-05
2.83528e-05
2.68105e-05
2.52803e-05
2.37615e-05
2.22433e-05
2.06974e-05
1.91637e-05
1.76309e-05
1.60971e-05
1.45727e-05
1.30687e-05
1.1604e-05
1.0199e-05
8.87162e-06
7.63551e-06
6.4967e-06
5.45497e-06
4.51028e-06
3.66712e-06
2.93138e-06
2.3083e-06
1.79643e-06
1.38486e-06
1.05893e-06
8.05328e-07
6.12514e-07
4.6944e-07
3.67849e-07
2.9887e-07
2.69607e-07
2.59084e-07
3.3522e-07
7.01199e-07
2.81994e-05
2.89649e-05
2.9766e-05
3.05078e-05
3.12373e-05
3.19179e-05
3.25121e-05
3.29891e-05
3.3322e-05
3.34849e-05
3.34599e-05
3.31836e-05
3.26874e-05
3.19665e-05
3.09796e-05
2.97459e-05
2.82827e-05
2.66115e-05
2.47883e-05
2.28408e-05
2.08087e-05
1.87611e-05
1.67598e-05
1.48234e-05
1.29397e-05
1.11057e-05
9.36319e-06
7.79483e-06
6.47121e-06
5.40428e-06
4.55652e-06
3.89164e-06
3.3679e-06
2.99587e-06
2.72714e-06
2.26072e-06
5.16565e-06
3.05434e-11
3.91347e-18
2.73734e-05
2.65633e-05
2.57402e-05
2.47297e-05
2.3705e-05
2.26481e-05
2.15487e-05
2.04505e-05
1.93611e-05
1.83036e-05
1.72429e-05
1.61698e-05
1.50926e-05
1.40096e-05
1.29171e-05
1.18148e-05
1.07104e-05
9.61464e-06
8.54182e-06
7.50619e-06
6.52043e-06
5.59387e-06
4.73151e-06
3.93992e-06
3.22686e-06
2.59948e-06
2.06249e-06
1.61599e-06
1.25293e-06
9.62632e-07
7.34761e-07
5.60059e-07
4.29201e-07
3.35142e-07
2.70322e-07
2.40405e-07
2.2782e-07
2.83557e-07
5.66368e-07
2.14669e-05
2.20691e-05
2.27048e-05
2.33059e-05
2.39092e-05
2.44869e-05
2.50113e-05
2.54605e-05
2.58089e-05
2.60435e-05
2.61389e-05
2.60851e-05
2.58284e-05
2.54212e-05
2.48185e-05
2.40174e-05
2.30281e-05
2.18636e-05
2.05544e-05
1.91304e-05
1.76087e-05
1.60356e-05
1.44663e-05
1.29199e-05
1.13916e-05
9.88384e-06
8.43341e-06
7.10639e-06
5.96292e-06
5.02199e-06
4.26212e-06
3.6572e-06
3.18242e-06
2.81727e-06
2.64731e-06
2.12215e-06
3.79223e-06
5.43574e-07
9.41471e-11
2.08268e-05
2.01955e-05
1.95691e-05
1.88165e-05
1.80548e-05
1.72761e-05
1.64752e-05
1.56839e-05
1.49082e-05
1.41509e-05
1.34075e-05
1.26655e-05
1.18988e-05
1.11306e-05
1.03498e-05
9.55421e-06
8.74491e-06
7.92923e-06
7.11499e-06
6.31323e-06
5.53423e-06
4.78705e-06
4.07957e-06
3.42148e-06
2.8229e-06
2.29106e-06
1.83124e-06
1.44437e-06
1.12617e-06
8.69248e-07
6.65762e-07
5.08449e-07
3.89634e-07
3.03311e-07
2.43029e-07
2.13094e-07
1.99062e-07
2.38259e-07
4.54669e-07
1.64376e-05
1.69116e-05
1.74162e-05
1.79024e-05
1.83965e-05
1.8882e-05
1.93325e-05
1.97342e-05
2.00694e-05
2.0326e-05
2.04848e-05
2.0535e-05
2.04592e-05
2.02325e-05
1.98892e-05
1.93843e-05
1.87293e-05
1.79301e-05
1.70025e-05
1.59726e-05
1.48458e-05
1.36501e-05
1.24326e-05
1.1211e-05
9.98369e-06
8.75602e-06
7.55892e-06
6.44551e-06
5.46651e-06
4.64406e-06
3.96899e-06
3.42243e-06
2.99289e-06
2.64843e-06
2.47808e-06
2.15359e-06
2.58484e-06
2.4152e-06
2.61397e-08
1.59403e-05
1.54471e-05
1.4966e-05
1.44014e-05
1.38312e-05
1.32508e-05
1.26621e-05
1.20861e-05
1.15282e-05
1.09807e-05
1.04578e-05
9.93394e-06
9.39351e-06
8.84399e-06
8.28416e-06
7.709e-06
7.11707e-06
6.51154e-06
5.89679e-06
5.27962e-06
4.66869e-06
4.07218e-06
3.49764e-06
2.95477e-06
2.45506e-06
2.00746e-06
1.61646e-06
1.28356e-06
1.00655e-06
7.80573e-07
5.99884e-07
4.58925e-07
3.51476e-07
2.72483e-07
2.16531e-07
1.86853e-07
1.71853e-07
1.98489e-07
3.62218e-07
1.26524e-05
1.30249e-05
1.3427e-05
1.38185e-05
1.42234e-05
1.46254e-05
1.50075e-05
1.53569e-05
1.56622e-05
1.59134e-05
1.60975e-05
1.62007e-05
1.62224e-05
1.61251e-05
1.59414e-05
1.56385e-05
1.52163e-05
1.46792e-05
1.40325e-05
1.32968e-05
1.24716e-05
1.15737e-05
1.06397e-05
9.68542e-06
8.71058e-06
7.7205e-06
6.74101e-06
5.81486e-06
4.98431e-06
4.27212e-06
3.67764e-06
3.18875e-06
2.79985e-06
2.48846e-06
2.29108e-06
2.1367e-06
2.01301e-06
2.8171e-06
6.12116e-07
1.22645e-05
1.18785e-05
1.15061e-05
1.10798e-05
1.06492e-05
1.0213e-05
9.77625e-06
9.35378e-06
8.94749e-06
8.55327e-06
8.17465e-06
7.80307e-06
7.42453e-06
7.02753e-06
6.62539e-06
6.20939e-06
5.77661e-06
5.3277e-06
4.86507e-06
4.393e-06
3.91688e-06
3.4434e-06
2.97984e-06
2.53613e-06
2.12309e-06
1.74898e-06
1.41856e-06
1.1339e-06
8.94267e-07
6.96702e-07
5.37175e-07
4.11558e-07
3.14905e-07
2.43011e-07
1.91371e-07
1.62341e-07
1.46774e-07
1.63856e-07
2.86122e-07
9.78325e-06
1.00769e-05
1.03979e-05
1.07136e-05
1.10431e-05
1.1375e-05
1.16938e-05
1.19927e-05
1.22622e-05
1.24947e-05
1.26801e-05
1.28098e-05
1.28784e-05
1.28736e-05
1.27789e-05
1.26157e-05
1.23547e-05
1.20018e-05
1.15586e-05
1.10403e-05
1.0444e-05
9.77862e-06
9.06998e-06
8.33241e-06
7.56632e-06
6.77592e-06
5.98184e-06
5.21819e-06
4.51995e-06
3.90894e-06
3.38984e-06
2.95675e-06
2.60568e-06
2.32881e-06
2.11875e-06
2.0338e-06
1.79816e-06
2.32523e-06
1.58064e-06
9.4807e-06
9.1779e-06
8.8879e-06
8.56377e-06
8.23595e-06
7.90592e-06
7.5791e-06
7.26603e-06
6.96755e-06
6.68121e-06
6.40526e-06
6.13933e-06
5.86984e-06
5.58711e-06
5.29677e-06
4.99432e-06
4.67745e-06
4.345e-06
3.99736e-06
3.63727e-06
3.26859e-06
2.89584e-06
2.52482e-06
2.16471e-06
1.82553e-06
1.51482e-06
1.23738e-06
9.95587e-07
7.89646e-07
6.17996e-07
4.77976e-07
3.66625e-07
2.80112e-07
2.15002e-07
1.67576e-07
1.39535e-07
1.23814e-07
1.33954e-07
2.24275e-07
7.59578e-06
7.82829e-06
8.0846e-06
8.33922e-06
8.60682e-06
8.87849e-06
9.14273e-06
9.39528e-06
9.6281e-06
9.83595e-06
1.00114e-05
1.01478e-05
1.02386e-05
1.02809e-05
1.02532e-05
1.01744e-05
1.00229e-05
9.79869e-06
9.50265e-06
9.14482e-06
8.72044e-06
8.23444e-06
7.70339e-06
7.13998e-06
6.5447e-06
5.92001e-06
5.28219e-06
4.65814e-06
4.07651e-06
3.55725e-06
3.10794e-06
2.72766e-06
2.41297e-06
2.16627e-06
1.96232e-06
1.8837e-06
1.69798e-06
1.83298e-06
1.89461e-06
7.35937e-06
7.12134e-06
6.89458e-06
6.64638e-06
6.39517e-06
6.14362e-06
5.89718e-06
5.66345e-06
5.44246e-06
5.2327e-06
5.02916e-06
4.83775e-06
4.6453e-06
4.44308e-06
4.23185e-06
4.01135e-06
3.77888e-06
3.53257e-06
3.27199e-06
2.99838e-06
2.7139e-06
2.42221e-06
2.12767e-06
1.83757e-06
1.5606e-06
1.30417e-06
1.07276e-06
8.68708e-07
6.92834e-07
5.44594e-07
4.22397e-07
3.24216e-07
2.4719e-07
1.88555e-07
1.45258e-07
1.1853e-07
1.03023e-07
1.08237e-07
1.7425e-07
5.91891e-06
6.10346e-06
6.30911e-06
6.51372e-06
6.7308e-06
6.95248e-06
7.17027e-06
7.3815e-06
7.5801e-06
7.76178e-06
7.92065e-06
8.0521e-06
8.15179e-06
8.21452e-06
8.23501e-06
8.20137e-06
8.12638e-06
7.99183e-06
7.80032e-06
7.5579e-06
7.26145e-06
6.9121e-06
6.51941e-06
6.0942e-06
5.63725e-06
5.14903e-06
4.64174e-06
4.13658e-06
3.65663e-06
3.21948e-06
2.8341e-06
2.50293e-06
2.22361e-06
2.00264e-06
1.81525e-06
1.7225e-06
1.60131e-06
1.52596e-06
1.73039e-06
5.73427e-06
5.54649e-06
5.36841e-06
5.17709e-06
4.98353e-06
4.79075e-06
4.60361e-06
4.42762e-06
4.26263e-06
4.10709e-06
3.95874e-06
3.81601e-06
3.67752e-06
3.5353e-06
3.37892e-06
3.21757e-06
3.04674e-06
2.86401e-06
2.66877e-06
2.46145e-06
2.24323e-06
2.01607e-06
1.78335e-06
1.55103e-06
1.32661e-06
1.11639e-06
9.24482e-07
7.53289e-07
6.03975e-07
4.76694e-07
3.70658e-07
2.84563e-07
2.16313e-07
1.63803e-07
1.24512e-07
9.93635e-08
8.44301e-08
8.63516e-08
1.34206e-07
4.62764e-06
4.77456e-06
4.93926e-06
5.10398e-06
5.27966e-06
5.45976e-06
5.6389e-06
5.81438e-06
5.98197e-06
6.13808e-06
6.27877e-06
6.39992e-06
6.49889e-06
6.57027e-06
6.61338e-06
6.61516e-06
6.58571e-06
6.5113e-06
6.39282e-06
6.23287e-06
6.03088e-06
5.78425e-06
5.49821e-06
5.18188e-06
4.83552e-06
4.45832e-06
4.05907e-06
3.65426e-06
3.26209e-06
2.89769e-06
2.57021e-06
2.28409e-06
2.03854e-06
1.84044e-06
1.6725e-06
1.56754e-06
1.48286e-06
1.34128e-06
1.45885e-06
4.48279e-06
4.33467e-06
4.19445e-06
4.04592e-06
3.89578e-06
3.74736e-06
3.60417e-06
3.47078e-06
3.34664e-06
3.23038e-06
3.12095e-06
3.01412e-06
2.91382e-06
2.8104e-06
2.69773e-06
2.57843e-06
2.4521e-06
2.31643e-06
2.17018e-06
2.01332e-06
1.84637e-06
1.67032e-06
1.48744e-06
1.30248e-06
1.12159e-06
9.50234e-07
7.91912e-07
6.49123e-07
5.23127e-07
4.14502e-07
3.23019e-07
2.47928e-07
1.87745e-07
1.40965e-07
1.05536e-07
8.21557e-08
6.80334e-08
6.7895e-08
1.02473e-07
3.62882e-06
3.74608e-06
3.87825e-06
4.01075e-06
4.15232e-06
4.2988e-06
4.44547e-06
4.59068e-06
4.73086e-06
4.86357e-06
4.98537e-06
5.0938e-06
5.18624e-06
5.2594e-06
5.31153e-06
5.33667e-06
5.33328e-06
5.29958e-06
5.23179e-06
5.13042e-06
4.99642e-06
4.82617e-06
4.62155e-06
4.38986e-06
4.13062e-06
3.8426e-06
3.5319e-06
3.21097e-06
2.89381e-06
2.5932e-06
2.31769e-06
2.0727e-06
1.85879e-06
1.68192e-06
1.53227e-06
1.42331e-06
1.34938e-06
1.20722e-06
1.22505e-06
3.51463e-06
3.39818e-06
3.2874e-06
3.17131e-06
3.05429e-06
2.93943e-06
2.82922e-06
2.72723e-06
2.63301e-06
2.54547e-06
2.46377e-06
2.38492e-06
2.30904e-06
2.23417e-06
2.15377e-06
2.06391e-06
1.97055e-06
1.86977e-06
1.76023e-06
1.64171e-06
1.51422e-06
1.37815e-06
1.23498e-06
1.08834e-06
9.43208e-07
8.04147e-07
6.7439e-07
5.55968e-07
4.50265e-07
3.58091e-07
2.79586e-07
2.14426e-07
1.61671e-07
1.2022e-07
8.84587e-08
6.6961e-08
5.38412e-08
5.24776e-08
7.74652e-08
2.85319e-06
2.94704e-06
3.05304e-06
3.15968e-06
3.27372e-06
3.3926e-06
3.51256e-06
3.63227e-06
3.74892e-06
3.86052e-06
3.96484e-06
4.0597e-06
4.14332e-06
4.21345e-06
4.26777e-06
4.30406e-06
4.31678e-06
4.31113e-06
4.27712e-06
4.21649e-06
4.13101e-06
4.01629e-06
3.87272e-06
3.70553e-06
3.51435e-06
3.29727e-06
3.05831e-06
2.80658e-06
2.55278e-06
2.30724e-06
2.07781e-06
1.86995e-06
1.68525e-06
1.52863e-06
1.39508e-06
1.28915e-06
1.21365e-06
1.08831e-06
1.04414e-06
2.76277e-06
2.67123e-06
2.58355e-06
2.49226e-06
2.4008e-06
2.31144e-06
2.2262e-06
2.14776e-06
2.07567e-06
2.00922e-06
1.94757e-06
1.88873e-06
1.83142e-06
1.77627e-06
1.71721e-06
1.65135e-06
1.58199e-06
1.5067e-06
1.42449e-06
1.33473e-06
1.23735e-06
1.13237e-06
1.02071e-06
9.05001e-07
7.89217e-07
6.76937e-07
5.71085e-07
4.73358e-07
3.85142e-07
3.07318e-07
2.40297e-07
1.84042e-07
1.3806e-07
1.01536e-07
7.32597e-08
5.37208e-08
4.17297e-08
3.97739e-08
5.79607e-08
2.24865e-06
2.32412e-06
2.40912e-06
2.49458e-06
2.58658e-06
2.68309e-06
2.78104e-06
2.87927e-06
2.97599e-06
3.06924e-06
3.15758e-06
3.23933e-06
3.31334e-06
3.37772e-06
3.43064e-06
3.47196e-06
3.49485e-06
3.50428e-06
3.49232e-06
3.45985e-06
3.40822e-06
3.33374e-06
3.23552e-06
3.11742e-06
2.97863e-06
2.81716e-06
2.63549e-06
2.4402e-06
2.23934e-06
2.04091e-06
1.85172e-06
1.67696e-06
1.51893e-06
1.38129e-06
1.26224e-06
1.1629e-06
1.08404e-06
9.73707e-07
9.00226e-07
2.17692e-06
2.10487e-06
2.03533e-06
1.96329e-06
1.89162e-06
1.82177e-06
1.75548e-06
1.69472e-06
1.6392e-06
1.58832e-06
1.54148e-06
1.49718e-06
1.45337e-06
1.4124e-06
1.36928e-06
1.3209e-06
1.26865e-06
1.21207e-06
1.15018e-06
1.08219e-06
1.00786e-06
9.26988e-07
8.40076e-07
7.4907e-07
6.5702e-07
5.66859e-07
4.80865e-07
4.00632e-07
3.27372e-07
2.61994e-07
2.05075e-07
1.56764e-07
1.1688e-07
8.48779e-08
5.98864e-08
4.23381e-08
3.15678e-08
2.94593e-08
4.28764e-08
1.77623e-06
1.83663e-06
1.90478e-06
1.97335e-06
2.04765e-06
2.12598e-06
2.20581e-06
2.28639e-06
2.36606e-06
2.44363e-06
2.51786e-06
2.58756e-06
2.65191e-06
2.70952e-06
2.75912e-06
2.79995e-06
2.8293e-06
2.8458e-06
2.84826e-06
2.83471e-06
2.80623e-06
2.76018e-06
2.69522e-06
2.61368e-06
2.5148e-06
2.39653e-06
2.26028e-06
2.1106e-06
1.95337e-06
1.79477e-06
1.64036e-06
1.49479e-06
1.36069e-06
1.241e-06
1.13498e-06
1.04363e-06
9.64117e-07
8.63628e-07
7.79289e-07
1.71901e-06
1.66228e-06
1.60708e-06
1.55005e-06
1.49364e-06
1.4388e-06
1.38698e-06
1.3397e-06
1.29666e-06
1.25739e-06
1.22149e-06
1.18773e-06
1.15488e-06
1.12292e-06
1.09118e-06
1.05639e-06
1.01609e-06
9.73627e-07
9.26894e-07
8.7531e-07
8.18624e-07
7.56476e-07
6.88985e-07
6.17628e-07
5.44667e-07
4.72459e-07
4.02867e-07
3.37242e-07
2.76654e-07
2.21995e-07
1.73874e-07
1.32587e-07
9.81607e-08
7.02721e-08
4.83365e-08
3.27499e-08
2.32197e-08
2.1231e-08
3.13566e-08
1.4061e-06
1.45426e-06
1.50872e-06
1.56378e-06
1.62389e-06
1.68753e-06
1.75243e-06
1.81834e-06
1.88379e-06
1.94805e-06
2.01001e-06
2.06895e-06
2.1241e-06
2.1747e-06
2.21969e-06
2.25809e-06
2.28894e-06
2.30904e-06
2.32106e-06
2.31954e-06
2.30676e-06
2.28055e-06
2.23949e-06
2.18474e-06
2.11574e-06
2.03057e-06
1.92971e-06
1.81636e-06
1.69462e-06
1.56913e-06
1.4444e-06
1.32434e-06
1.21133e-06
1.10827e-06
1.01447e-06
9.31329e-07
8.54073e-07
7.60774e-07
6.74243e-07
1.36013e-06
1.31539e-06
1.27152e-06
1.22627e-06
1.18171e-06
1.13854e-06
1.09782e-06
1.06082e-06
1.02723e-06
9.96703e-07
9.68981e-07
9.43011e-07
9.18015e-07
8.935e-07
8.69601e-07
8.43347e-07
8.13364e-07
7.81287e-07
7.45864e-07
7.06712e-07
6.63411e-07
6.15609e-07
5.63228e-07
5.07326e-07
4.49632e-07
3.91965e-07
3.35836e-07
2.82377e-07
2.32495e-07
1.87009e-07
1.46523e-07
1.11415e-07
8.18507e-08
5.76808e-08
3.85522e-08
2.48414e-08
1.65245e-08
1.47985e-08
2.26524e-08
1.11511e-06
1.1536e-06
1.19701e-06
1.2414e-06
1.28997e-06
1.3415e-06
1.39429e-06
1.44806e-06
1.50167e-06
1.55464e-06
1.60618e-06
1.6556e-06
1.70256e-06
1.74629e-06
1.7862e-06
1.82128e-06
1.85154e-06
1.87341e-06
1.88946e-06
1.89541e-06
1.89289e-06
1.88024e-06
1.85598e-06
1.82081e-06
1.77393e-06
1.71368e-06
1.64017e-06
1.55545e-06
1.46231e-06
1.36407e-06
1.26426e-06
1.16614e-06
1.0718e-06
9.83579e-07
9.01328e-07
8.26054e-07
7.53177e-07
6.66614e-07
5.81932e-07
1.07813e-06
1.04276e-06
1.00789e-06
9.71882e-07
9.36589e-07
9.02509e-07
8.70382e-07
8.41288e-07
8.14926e-07
7.91058e-07
7.69497e-07
7.49348e-07
7.30193e-07
7.11038e-07
6.92897e-07
6.73298e-07
6.50973e-07
6.26414e-07
5.9949e-07
5.69687e-07
5.36571e-07
4.99719e-07
4.5903e-07
4.15272e-07
3.69716e-07
3.23811e-07
2.78692e-07
2.35307e-07
1.94406e-07
1.56708e-07
1.22798e-07
9.30804e-08
6.78128e-08
4.69784e-08
3.04109e-08
1.84682e-08
1.13002e-08
9.89449e-09
1.61614e-08
8.85695e-07
9.16429e-07
9.51109e-07
9.87e-07
1.02626e-06
1.06793e-06
1.11079e-06
1.15455e-06
1.19844e-06
1.24198e-06
1.28464e-06
1.32591e-06
1.3655e-06
1.40286e-06
1.43761e-06
1.46896e-06
1.49668e-06
1.51936e-06
1.53634e-06
1.54678e-06
1.5507e-06
1.54689e-06
1.53422e-06
1.51285e-06
1.4821e-06
1.44051e-06
1.38787e-06
1.32543e-06
1.25504e-06
1.17904e-06
1.10001e-06
1.02051e-06
9.42403e-07
8.67573e-07
7.95945e-07
7.28405e-07
6.61012e-07
5.81731e-07
5.01181e-07
8.56044e-07
8.27975e-07
8.00243e-07
7.71523e-07
7.43539e-07
7.16545e-07
6.91127e-07
6.68142e-07
6.47356e-07
6.28567e-07
6.11656e-07
5.95988e-07
5.81124e-07
5.66538e-07
5.51913e-07
5.3725e-07
5.21112e-07
5.01847e-07
4.81275e-07
4.58518e-07
4.33124e-07
4.04672e-07
3.73068e-07
3.38864e-07
3.02991e-07
2.66505e-07
2.30342e-07
1.95232e-07
1.6181e-07
1.30685e-07
1.02399e-07
7.73592e-08
5.58664e-08
3.80122e-08
2.37569e-08
1.34498e-08
7.3514e-09
6.27556e-09
1.14071e-08
7.04433e-07
7.29235e-07
7.56785e-07
7.85824e-07
8.17532e-07
8.51198e-07
8.85931e-07
9.21538e-07
9.57377e-07
9.93071e-07
1.02827e-06
1.06253e-06
1.09569e-06
1.12734e-06
1.15715e-06
1.18474e-06
1.20952e-06
1.23109e-06
1.24788e-06
1.26106e-06
1.26862e-06
1.27039e-06
1.2655e-06
1.25371e-06
1.23445e-06
1.20648e-06
1.16949e-06
1.1241e-06
1.07155e-06
1.01337e-06
9.5142e-07
8.87642e-07
8.23461e-07
7.60469e-07
6.98598e-07
6.38657e-07
5.77205e-07
5.0554e-07
4.30848e-07
6.80704e-07
6.58361e-07
6.36307e-07
6.13409e-07
5.91162e-07
5.69735e-07
5.49575e-07
5.31349e-07
5.14882e-07
5.00016e-07
4.867e-07
4.74391e-07
4.62736e-07
4.51601e-07
4.40012e-07
4.2876e-07
4.16364e-07
4.01982e-07
3.86132e-07
3.6864e-07
3.49089e-07
3.27099e-07
3.02536e-07
2.75788e-07
2.47567e-07
2.18626e-07
1.89706e-07
1.61372e-07
1.34143e-07
1.08537e-07
8.50339e-08
6.40309e-08
4.58347e-08
3.06165e-08
1.84299e-08
9.61282e-09
4.48132e-09
3.71618e-09
8.00533e-09
5.60836e-07
5.80926e-07
6.03018e-07
6.26393e-07
6.51975e-07
6.79175e-07
7.0729e-07
7.36204e-07
7.65441e-07
7.94641e-07
8.23578e-07
8.51926e-07
8.7954e-07
9.0617e-07
9.31545e-07
9.55384e-07
9.77211e-07
9.97054e-07
1.01328e-06
1.02704e-06
1.03638e-06
1.04152e-06
1.04158e-06
1.03628e-06
1.0251e-06
1.00701e-06
9.81557e-07
9.4912e-07
9.10368e-07
8.66294e-07
8.18161e-07
7.67393e-07
7.151e-07
6.62458e-07
6.09477e-07
5.56702e-07
5.01502e-07
4.3765e-07
3.69741e-07
5.41962e-07
5.2418e-07
5.06629e-07
4.88362e-07
4.70661e-07
4.53623e-07
4.37591e-07
4.23104e-07
4.10011e-07
3.98194e-07
3.87631e-07
3.77916e-07
3.68773e-07
3.60031e-07
3.5112e-07
3.41968e-07
3.3268e-07
3.22149e-07
3.09558e-07
2.96104e-07
2.8104e-07
2.64021e-07
2.44919e-07
2.2401e-07
2.01806e-07
1.78881e-07
1.55782e-07
1.32968e-07
1.10848e-07
8.98591e-08
7.04085e-08
5.28628e-08
3.75323e-08
2.46293e-08
1.42753e-08
6.78891e-09
2.51216e-09
2.00909e-09
5.64186e-09
4.47077e-07
4.63119e-07
4.80957e-07
4.99819e-07
5.20455e-07
5.42407e-07
5.65174e-07
5.88654e-07
6.12434e-07
6.36294e-07
6.60035e-07
6.83396e-07
7.06299e-07
7.28544e-07
7.49949e-07
7.70341e-07
7.89371e-07
8.0691e-07
8.22416e-07
8.35269e-07
8.45297e-07