/*--------------------------------*- C++ -*----------------------------------*\
| =========                 |                                                 |
| \\      /  F ield         | OpenFOAM: The Open Source CFD Toolbox           |
|  \\    /   O peration     | Version:  2306                                  |
|   \\  /    A nd           | Website:  www.openfoam.com                      |
|    \\/     M anipulation  |                                                 |
\*---------------------------------------------------------------------------*/
FoamFile
{
    version     2.0;
    format      ascii;
    arch        "LSB;label=32;scalar=64";
    class       volSymmTensorField;
    location    "125";
    object      turbulenceProperties:devReff;
}
// * * * * * * * * * * * * * * * * * * * * * * * * * * * * * * * * * * * * * //

dimensions      [0 2 -2 0 0 0 0];

internalField   nonuniform List<symmTensor> 
10720
(
(0.00143719 0.00323958 -2.17786e-21 -0.00153891 -1.85635e-20 0.000101718)
(0.00202181 0.00371884 9.99761e-21 -0.00209424 1.16189e-19 7.24299e-05)
(0.00297437 0.00416643 -4.04498e-20 -0.00312419 -3.40876e-19 0.000149821)
(0.00426096 0.004755 1.11649e-19 -0.00444922 6.77456e-19 0.000188262)
(0.00599406 0.00528263 -1.76021e-19 -0.0062016 -6.31312e-19 0.00020754)
(0.0083931 0.00561044 -1.51838e-19 -0.00869934 -3.7327e-19 0.000306234)
(0.011583 0.00573238 3.00143e-19 -0.0119676 1.00014e-18 0.000384633)
(0.0156555 0.00535502 -7.17803e-19 -0.016122 -1.81106e-18 0.000466531)
(0.0207675 0.00415458 -1.69061e-19 -0.0213731 4.41999e-19 0.000605658)
(0.0270115 0.00189922 5.44452e-19 -0.0277489 1.04391e-18 0.000737419)
(0.0344715 -0.00188094 1.33309e-18 -0.0353752 5.2741e-19 0.000903694)
(0.0434686 -0.00770811 -2.99668e-18 -0.0445802 -2.73548e-18 0.0011116)
(0.0545521 -0.0163652 5.52498e-19 -0.0559125 7.17754e-19 0.00136044)
(0.0683354 -0.0291241 2.30364e-18 -0.0700098 1.10768e-18 0.00167443)
(0.0859261 -0.0481614 -3.54741e-18 -0.0880384 -5.29546e-18 0.00211222)
(0.109325 -0.0772215 -3.8824e-18 -0.112037 -2.11672e-18 0.00271203)
(0.140687 -0.122542 1.54801e-17 -0.144342 1.41085e-17 0.00365477)
(0.185903 -0.196936 1.69996e-17 -0.190961 2.6292e-17 0.00505737)
(0.247746 -0.318213 -2.83528e-17 -0.255027 -4.0419e-17 0.00728107)
(0.350655 -0.54612 -3.72972e-18 -0.361656 1.11139e-17 0.0110016)
(0.482725 -0.919717 -2.21253e-17 -0.499183 3.36918e-17 0.0164585)
(0.771727 -1.82338 1.4725e-17 -0.799322 2.2917e-17 0.0275944)
(1.08603 -3.30313 -1.09298e-16 -1.12878 -2.4575e-16 0.0427488)
(1.93935 -8.25553 1.78181e-16 -2.03466 2.6384e-16 0.0953094)
(1.96564 -13.6569 1.69574e-17 -2.08509 -5.04165e-16 0.119458)
(0.989476 -15.2492 4.6016e-16 -1.05655 4.20407e-16 0.0670746)
(0.0263619 -15.0129 -5.43045e-17 -0.0462367 -6.92058e-17 0.0198749)
(-0.714554 -14.6474 2.63246e-16 0.711275 1.92696e-16 0.0032787)
(-1.33198 -14.3969 8.08225e-16 1.3294 1.03845e-15 0.00258131)
(-1.86839 -14.0683 5.97721e-16 1.86288 1.73756e-15 0.0055105)
(-2.3095 -13.53 -1.52563e-15 2.30005 -1.68633e-15 0.00945134)
(-2.6398 -12.7692 -5.95112e-16 2.62559 -6.28325e-16 0.0142102)
(-2.86008 -11.8401 2.67751e-16 2.84155 -4.26214e-15 0.0185252)
(-2.96337 -10.7739 -2.69712e-15 2.94375 -6.39582e-15 0.019619)
(-2.93462 -9.55684 9.23482e-16 2.91634 8.15953e-16 0.0182767)
(-2.76537 -8.20574 1.37431e-15 2.75087 1.08869e-15 0.0144941)
(-2.39299 -6.5322 -1.03989e-16 2.37833 -5.0176e-16 0.0146612)
(-1.86895 -4.86328 -1.75912e-15 1.86461 1.46213e-16 0.00434171)
(-0.86402 -1.73008 -3.41388e-16 0.869406 -3.45063e-15 -0.00538578)
(0.000922679 0.00282853 6.32105e-21 -0.000959607 4.29712e-20 3.69271e-05)
(0.000602453 0.00243346 -6.16269e-21 -0.000666933 -1.00772e-20 6.44797e-05)
(0.000321968 0.00199245 -4.54882e-20 -0.000354932 -9.6943e-20 3.29641e-05)
(0.000140739 0.00159944 3.71967e-20 -0.000164645 6.03238e-20 2.39065e-05)
(6.44129e-05 0.00122914 -6.71502e-21 -7.12061e-05 1.31934e-20 6.79315e-06)
(8.02146e-05 0.000911745 -7.11105e-20 -6.05138e-05 1.98634e-19 -1.97008e-05)
(0.000164767 0.000694118 -1.39881e-19 -0.000122377 1.35627e-19 -4.23899e-05)
(0.000307926 0.000632873 1.88083e-19 -0.000273198 -1.10746e-19 -3.47274e-05)
(0.0005304 0.000702461 2.29161e-19 -0.000519568 -1.15221e-19 -1.08324e-05)
(0.00085232 0.000911112 -1.15978e-19 -0.000857329 1.64904e-20 5.00943e-06)
(0.00131603 0.00133386 -4.45844e-20 -0.00133172 1.68878e-19 1.56923e-05)
(0.00198962 0.00210008 2.83532e-19 -0.00201703 6.57354e-20 2.74072e-05)
(0.00295404 0.00340851 4.90561e-19 -0.00300097 -8.59771e-20 4.69358e-05)
(0.00428382 0.00550685 -6.21648e-20 -0.00435876 -2.29643e-19 7.49444e-05)
(0.00602499 0.00862948 8.02321e-21 -0.0061285 -1.85499e-19 0.000103512)
(0.00820351 0.0131078 1.31906e-19 -0.00834808 -8.10505e-20 0.000144574)
(0.0109986 0.0195053 -2.89545e-19 -0.0111883 6.48491e-19 0.000189674)
(0.0147621 0.0289891 8.12196e-19 -0.0150166 2.17751e-19 0.000254442)
(0.0202115 0.0438054 3.6888e-19 -0.0205542 -1.13005e-18 0.000342755)
(0.0283511 0.0680035 -1.58152e-18 -0.0288482 -2.33997e-19 0.000497114)
(0.041298 0.110116 -5.26123e-18 -0.0420512 -1.59028e-18 0.000753259)
(0.0614676 0.184619 -3.5637e-18 -0.0627113 -7.0082e-19 0.00124368)
(0.095746 0.331298 7.4689e-18 -0.0980169 -9.51621e-19 0.00227091)
(0.146205 0.609335 -1.07041e-17 -0.150806 1.58369e-18 0.00460058)
(0.234686 1.24631 5.13904e-18 -0.244769 -4.34247e-18 0.0100828)
(0.350612 2.52703 -1.56506e-16 -0.371412 9.1471e-18 0.0207994)
(0.527098 5.77899 -9.59077e-17 -0.576784 5.61337e-18 0.0496864)
(0.497822 10.9793 7.72943e-17 -0.591332 -3.23596e-18 0.0935103)
(0.0106594 14.5986 9.50142e-18 -0.121895 4.50728e-19 0.111236)
(-0.670643 15.9792 6.1666e-17 0.569626 -1.30382e-17 0.101017)
(-1.34009 16.2912 -4.67029e-16 1.25644 3.60747e-18 0.0836496)
(-1.9523 16.2517 1.62474e-16 1.88375 3.07954e-17 0.0685462)
(-2.49865 16.0394 -2.01398e-15 2.44175 -2.06422e-16 0.0569042)
(-2.97126 15.688 -3.64472e-15 2.92337 -3.29853e-17 0.0478893)
(-3.36883 15.2142 1.13796e-15 3.32763 1.58357e-16 0.0412045)
(-3.69674 14.6419 1.08278e-15 3.66069 1.35877e-16 0.0360512)
(-3.93926 13.8644 1.52119e-15 3.90643 2.51142e-16 0.0328263)
(-4.08599 13.0009 -3.03678e-16 4.05535 -4.28261e-17 0.0306433)
(-3.80456 10.4964 -4.75613e-15 3.79915 -8.20622e-16 0.00541371)
(0.000563916 -0.000402115 2.81785e-22 -0.000515935 2.95409e-21 -4.7981e-05)
(0.000486699 -0.000491457 2.51841e-20 -0.000431103 6.40973e-20 -5.55953e-05)
(0.000375747 -0.00057064 -2.14729e-20 -0.000307819 -3.94932e-20 -6.79279e-05)
(0.000261308 -0.000606976 -2.16606e-20 -0.000182267 -5.11095e-20 -7.90411e-05)
(0.000147841 -0.000608669 1.14478e-19 -6.01071e-05 2.14525e-19 -8.77338e-05)
(3.95046e-05 -0.000582542 4.47155e-20 5.70259e-05 6.98674e-20 -9.65305e-05)
(-4.5235e-05 -0.000531115 2.086e-19 0.000149493 1.95145e-19 -0.000104258)
(-0.000104812 -0.000464976 -1.02351e-19 0.000214395 -2.19108e-20 -0.000109583)
(-0.00014174 -0.000394884 1.5035e-19 0.000255255 1.07904e-19 -0.000113515)
(-0.000155439 -0.000328219 -2.93924e-21 0.00027128 5.83346e-22 -0.000115841)
(-0.00015296 -0.000269978 -2.1034e-19 0.000269455 -1.79193e-19 -0.000116495)
(-0.000139966 -0.000223842 2.69387e-19 0.00025639 3.26829e-19 -0.000116424)
(-0.00012045 -0.00019231 1.55578e-19 0.000235613 7.89249e-20 -0.000115163)
(-0.000100452 -0.000182341 -2.938e-20 0.000217503 1.42164e-20 -0.000117051)
(-8.18042e-05 -0.000204597 -1.45871e-19 0.000212943 2.3299e-20 -0.000131139)
(-5.84353e-05 -0.000302455 2.63037e-19 0.000237765 2.90916e-19 -0.00017933)
(1.66855e-05 -0.000647306 4.11188e-19 0.000308146 -4.80693e-19 -0.000324831)
(0.000329202 -0.0016439 -2.72888e-18 0.000315774 -3.2562e-18 -0.000644977)
(0.00122316 -0.00393411 4.76356e-19 -9.87503e-05 4.27206e-18 -0.00112441)
(0.00362698 -0.0100117 4.82902e-18 -0.00165834 -1.37316e-18 -0.00196864)
(0.00920454 -0.0249399 8.48964e-18 -0.00603309 3.72251e-18 -0.00317145)
(0.0264165 -0.0762099 -1.5705e-17 -0.0205495 -1.13023e-17 -0.00586697)
(0.0605234 -0.199889 4.24979e-17 -0.0518352 7.18806e-17 -0.00868818)
(0.1566 -0.635382 3.22548e-19 -0.141545 -5.37575e-17 -0.015055)
(0.298534 -1.56951 -1.51658e-16 -0.280636 6.31932e-17 -0.0178975)
(0.374566 -2.71305 -9.01842e-17 -0.368434 -3.04127e-16 -0.00613242)
(0.340341 -3.90431 -3.82397e-18 -0.353294 4.09332e-17 0.0129528)
(0.179175 -4.96018 -2.1039e-16 -0.205459 -2.4329e-16 0.0262838)
(-0.0900369 -5.62127 -4.16327e-16 0.0613077 -1.77895e-15 0.0287291)
(-0.388621 -5.66804 -1.87869e-16 0.368374 -2.35976e-15 0.0202461)
(-0.615866 -5.13817 4.55418e-16 0.610976 3.55518e-15 0.00489)
(-0.732563 -4.37147 -7.61382e-16 0.744627 -1.54106e-16 -0.0120638)
(-0.759342 -3.64537 -6.713e-15 0.784717 1.16207e-15 -0.0253748)
(-0.736315 -3.06159 7.67984e-15 0.766707 1.18742e-14 -0.0303917)
(-0.695374 -2.6193 -1.30275e-15 0.722822 -4.95655e-16 -0.0274482)
(-0.642468 -2.28589 3.19109e-15 0.665411 -4.36685e-15 -0.0229426)
(-0.609955 -2.05767 -1.43564e-15 0.625323 1.30448e-15 -0.0153683)
(-0.496866 -1.88621 3.0823e-15 0.527625 -4.0623e-17 -0.0307592)
(-0.679476 -2.03627 5.71481e-15 0.595504 8.25354e-15 0.0839723)
(0.000619767 -0.000287178 9.29057e-21 -0.00058065 1.51963e-20 -3.91168e-05)
(0.000647806 -0.000168426 -1.28688e-20 -0.000613037 -1.01193e-19 -3.47681e-05)
(0.000644357 -2.52822e-05 -2.11573e-20 -0.000619821 -7.16835e-20 -2.45361e-05)
(0.00059579 0.000128593 -9.44449e-21 -0.000581977 1.70685e-19 -1.38132e-05)
(0.000495988 0.00026483 1.20921e-20 -0.000493269 1.93587e-20 -2.71873e-06)
(0.000357012 0.000358986 4.31358e-20 -0.00036147 -1.9961e-19 4.45796e-06)
(0.000216612 0.00039727 -3.51851e-21 -0.000226417 -2.24871e-19 9.80547e-06)
(9.67572e-05 0.000392945 -3.24346e-19 -0.000108191 4.7967e-20 1.14337e-05)
(-1.28772e-05 0.000356054 4.17609e-20 5.85857e-06 1.59348e-19 7.01867e-06)
(-9.465e-05 0.000291741 -1.90301e-20 9.54203e-05 -8.90961e-20 -7.70377e-07)
(-0.000136453 0.000220695 -6.08462e-20 0.000144866 -6.22967e-20 -8.41278e-06)
(-0.000147646 0.000159045 -5.37113e-20 0.000161663 -6.00265e-20 -1.4017e-05)
(-0.000141295 0.000111371 -7.74529e-21 0.000158837 1.78439e-20 -1.75424e-05)
(-0.000126057 7.7488e-05 3.25994e-20 0.000145518 7.88736e-20 -1.94609e-05)
(-0.000107889 5.52085e-05 6.10895e-20 0.000128038 1.64231e-20 -2.01494e-05)
(-9.0447e-05 4.11176e-05 -9.51174e-20 0.000110374 3.08305e-21 -1.99265e-05)
(-7.49553e-05 3.25869e-05 9.05045e-20 9.40592e-05 1.14961e-21 -1.91039e-05)
(-6.19747e-05 2.75745e-05 -1.38661e-20 7.99148e-05 -2.11469e-20 -1.79401e-05)
(-5.13514e-05 2.44659e-05 -3.89727e-20 6.79499e-05 4.47523e-20 -1.65985e-05)
(-4.27821e-05 2.23653e-05 -2.93223e-20 5.80569e-05 2.34583e-20 -1.52748e-05)
(-3.59712e-05 2.07335e-05 -6.99039e-20 5.01019e-05 5.67069e-20 -1.41307e-05)
(-3.10768e-05 1.95201e-05 -9.39392e-20 4.45484e-05 3.81323e-20 -1.34716e-05)
(-2.80011e-05 1.88089e-05 -1.29222e-19 4.1651e-05 1.36502e-20 -1.36499e-05)
(-2.59363e-05 1.90152e-05 5.97417e-20 4.06914e-05 6.1219e-22 -1.47551e-05)
(-2.69827e-05 2.37535e-05 -5.26954e-21 4.52347e-05 2.78171e-21 -1.8252e-05)
(-0.000358029 0.000395836 8.4071e-19 0.000638645 3.53221e-20 -0.000280617)
(-0.00201192 0.00269776 4.70061e-18 0.00376206 -2.1547e-19 -0.00175014)
(-0.0118854 0.0192203 1.35948e-18 0.0228876 3.15776e-19 -0.0110022)
(-0.0307867 0.062719 -7.97462e-19 0.0599448 -1.71945e-19 -0.0291581)
(-0.0488789 0.128751 5.94799e-17 0.0938375 6.41443e-18 -0.0449587)
(-0.0611753 0.203948 4.52093e-16 0.111757 -5.32481e-18 -0.0505815)
(-0.0692245 0.272444 2.66036e-16 0.11643 1.84899e-17 -0.0472056)
(-0.0771224 0.328032 1.91036e-15 0.117401 1.06384e-16 -0.0402786)
(-0.0872688 0.373549 2.7309e-15 0.121008 -7.11882e-18 -0.0337393)
(-0.100661 0.413094 -6.25247e-16 0.129514 -2.98771e-17 -0.028853)
(-0.115989 0.452312 -5.24901e-16 0.142028 -6.25689e-17 -0.0260388)
(-0.137564 0.491654 -1.31558e-15 0.161199 -4.11766e-16 -0.0236352)
(-0.156089 0.589716 -2.64586e-15 0.184375 -7.42137e-17 -0.0282861)
(-0.218997 0.820634 -2.10836e-15 0.207363 1.26351e-15 0.0116345)
(0.000346209 -0.000267753 2.34744e-21 -0.000365866 4.24652e-21 1.96564e-05)
(0.000279556 -0.000328634 -2.9021e-20 -0.000304051 -5.7823e-20 2.4495e-05)
(0.000191106 -0.000374303 -4.92812e-21 -0.000220371 -6.12821e-21 2.92654e-05)
(9.06359e-05 -0.000394032 2.56106e-20 -0.000126689 4.53972e-20 3.60531e-05)
(-9.72469e-06 -0.000389078 -6.92917e-20 -3.19514e-05 -1.28199e-19 4.16761e-05)
(-0.000106139 -0.000357963 -7.61167e-20 5.87295e-05 -1.21457e-19 4.74093e-05)
(-0.000188713 -0.00030373 -1.58313e-19 0.00013501 -2.2497e-19 5.37028e-05)
(-0.000250549 -0.000234984 -1.10608e-20 0.000191593 -3.15857e-21 5.89563e-05)
(-0.000290887 -0.000157597 -7.68536e-20 0.000227268 -1.5928e-19 6.3619e-05)
(-0.000309673 -7.97182e-05 2.88526e-19 0.000241837 3.17863e-19 6.78364e-05)
(-0.000309669 -7.12743e-06 -4.2453e-20 0.000238745 6.2005e-20 7.09234e-05)
(-0.000295162 5.70386e-05 3.65993e-20 0.00022193 2.00922e-20 7.32327e-05)
(-0.000270783 0.000110731 -2.21781e-19 0.00019629 -2.73449e-19 7.44921e-05)
(-0.000242502 0.000153696 1.37961e-19 0.000168758 -1.1453e-20 7.37434e-05)
(-0.000214588 0.000188323 4.13295e-20 0.000142985 1.24879e-19 7.1603e-05)
(-0.000188177 0.000213899 5.35201e-20 0.000120413 2.39291e-20 6.77642e-05)
(-0.000155935 0.000220143 -2.47466e-19 9.66168e-05 -1.42321e-19 5.93178e-05)
(-0.000129757 0.000221486 2.15729e-19 7.87655e-05 1.62463e-19 5.09916e-05)
(-8.68142e-05 0.00017593 5.27752e-20 5.24474e-05 -8.56548e-22 3.43667e-05)
(-0.000393705 0.00092603 -1.13672e-18 0.000242434 -1.62e-19 0.000151271)
(-0.000828105 0.00222787 2.88391e-18 0.00053067 -1.18078e-18 0.000297435)
(-0.000418671 0.00129001 3.9215e-20 0.000283329 7.83696e-19 0.000135342)
(-0.000390246 0.00150497 5.50626e-19 0.000273861 -8.67487e-19 0.000116385)
(-2.03786e-05 0.000220963 -2.10215e-19 8.71546e-06 -2.25396e-19 1.16631e-05)
(0.000797709 -0.00109633 1.13051e-18 -0.000743903 2.89045e-18 -5.38064e-05)
(0.00481176 -0.0174042 -8.25649e-18 -0.0042705 1.35932e-18 -0.000541265)
(0.0120808 -0.0752412 5.3452e-18 -0.0105475 2.26157e-19 -0.00153329)
(0.0200843 -0.233651 -3.85764e-18 -0.0171009 2.92393e-17 -0.0029834)
(0.0180144 -0.596925 -2.07432e-16 -0.0136102 1.04178e-16 -0.00440417)
(-0.0207786 -1.24593 8.36593e-17 0.0253239 1.73393e-16 -0.00454534)
(-0.128469 -2.10194 9.82591e-16 0.130507 -3.34413e-16 -0.00203807)
(-0.302503 -2.86994 -1.81942e-15 0.299369 1.4435e-15 0.003134)
(-0.483827 -3.25358 5.09229e-16 0.475448 6.39715e-15 0.00837928)
(-0.603112 -3.21371 -8.1993e-17 0.593978 -4.5788e-15 0.0091343)
(-0.642828 -2.93021 2.51493e-15 0.637106 -1.91599e-15 0.00572254)
(-0.614419 -2.57916 -1.2035e-14 0.613873 6.58968e-16 0.000546034)
(-0.57257 -2.28178 4.22413e-15 0.57137 -1.41579e-15 0.00120023)
(-0.39177 -1.97073 4.56092e-15 0.401771 -1.11426e-15 -0.010001)
(-0.632983 -2.2453 -9.58697e-15 0.621458 2.87673e-15 0.0115249)
(0.000398366 -0.00019182 -4.84964e-21 -0.000415806 -9.02496e-21 1.74398e-05)
(0.000430215 -0.000111353 -1.37068e-20 -0.000443415 -6.6944e-21 1.31999e-05)
(0.0004449 -1.39384e-05 7.02907e-20 -0.000454745 1.13251e-19 9.84498e-06)
(0.000430705 8.80378e-05 8.75293e-21 -0.000436233 -3.78606e-20 5.52835e-06)
(0.000382507 0.000185094 6.34315e-21 -0.000384724 -8.57411e-20 2.21658e-06)
(0.000302463 0.000259792 -2.88556e-20 -0.000302155 8.66577e-20 -3.07874e-07)
(0.000204649 0.000302078 5.83219e-20 -0.000205231 1.53237e-19 5.81428e-07)
(0.000106329 0.00031432 1.58268e-19 -0.000107629 1.27617e-19 1.30022e-06)
(1.79135e-05 0.000296679 6.85285e-20 -1.87344e-05 -1.1089e-19 8.20871e-07)
(-4.96258e-05 0.000253616 8.15765e-20 4.83612e-05 6.4937e-20 1.26456e-06)
(-9.02011e-05 0.000199227 -8.29795e-20 8.74798e-05 2.43189e-20 2.72125e-06)
(-0.00010777 0.000146221 -5.64014e-21 0.000103202 5.78642e-20 4.56852e-06)
(-0.000109749 0.000100681 2.20899e-20 0.000103236 -6.08228e-20 6.5129e-06)
(-0.000102182 6.46516e-05 1.23817e-19 9.37774e-05 -7.66559e-20 8.40478e-06)
(-9.02009e-05 3.82717e-05 9.81646e-22 8.0353e-05 -8.14126e-21 9.84791e-06)
(-7.72108e-05 1.96923e-05 -1.11756e-20 6.62245e-05 4.28352e-20 1.09863e-05)
(-6.51062e-05 7.14009e-06 9.37127e-20 5.33638e-05 -8.54308e-20 1.17424e-05)
(-5.4706e-05 -1.24486e-06 1.20077e-20 4.24796e-05 9.15185e-21 1.22264e-05)
(-4.63313e-05 -6.9444e-06 1.01946e-19 3.39182e-05 -1.11578e-20 1.24131e-05)
(-3.9603e-05 -1.11915e-05 1.07305e-19 2.7096e-05 1.26846e-20 1.2507e-05)
(-3.41599e-05 -1.46758e-05 2.73755e-19 2.16683e-05 -3.9246e-20 1.24915e-05)
(-2.9396e-05 -1.8082e-05 3.45594e-19 1.68569e-05 -5.28873e-20 1.25391e-05)
(-2.45194e-05 -2.17963e-05 1.98989e-19 1.18188e-05 4.1857e-21 1.27006e-05)
(-1.80382e-05 -2.53363e-05 4.44175e-20 4.63678e-06 -6.85864e-21 1.34014e-05)
(-9.94484e-06 -2.69633e-05 -4.95544e-20 -4.66214e-06 1.56996e-20 1.4607e-05)
(-1.96623e-06 -2.57531e-05 1.87765e-19 -1.36533e-05 -1.89873e-20 1.56195e-05)
(4.70693e-06 -2.30362e-05 -5.0687e-20 -2.1423e-05 6.41172e-22 1.67161e-05)
(7.10999e-06 -1.42131e-05 -3.21656e-20 -2.01078e-05 3.41006e-22 1.29978e-05)
(0.00012384 -0.000136061 5.58826e-20 -0.000297151 1.12931e-21 0.000173311)
(0.000709607 -0.000296786 -2.05595e-18 -0.00157554 3.6975e-20 0.000865937)
(0.00187772 0.000923989 -1.13486e-17 -0.00403276 1.50977e-18 0.00215505)
(0.00270477 0.00674252 -6.71072e-17 -0.00592921 -3.52176e-18 0.00322444)
(0.00184335 0.020299 -1.58871e-16 -0.00513445 6.72182e-18 0.0032911)
(-0.00144574 0.0429182 -3.847e-16 -0.00095087 -8.23262e-18 0.00239661)
(-0.00726998 0.0735636 -9.49702e-16 0.0060983 -1.29851e-16 0.00117169)
(-0.0139943 0.109183 2.34397e-16 0.0139299 1.18442e-17 6.44812e-05)
(-0.0227992 0.146458 -1.24753e-15 0.0231246 8.80151e-17 -0.00032536)
(-0.0120661 0.172792 3.17568e-15 0.0131676 5.57663e-16 -0.00110153)
(-0.04439 0.290656 4.92286e-15 0.036452 9.96581e-16 0.00793803)
(0.00030106 -0.000220573 8.87233e-21 -0.000294747 1.35942e-20 -6.3125e-06)
(0.000259551 -0.000269195 -1.15401e-20 -0.000252372 -2.04209e-20 -7.17873e-06)
(0.00020229 -0.000312279 -5.52871e-21 -0.000192679 -6.55816e-21 -9.61054e-06)
(0.00013668 -0.000341881 6.5117e-20 -0.000124752 9.29834e-20 -1.19281e-05)
(6.76604e-05 -0.00035437 4.44592e-20 -5.31321e-05 7.48599e-20 -1.45284e-05)
(-2.32903e-06 -0.000349591 5.96678e-20 1.99384e-05 9.91989e-20 -1.76094e-05)
(-6.61488e-05 -0.000328843 8.53173e-20 8.69637e-05 9.57033e-20 -2.0815e-05)
(-0.000118888 -0.000294831 -4.62162e-20 0.000142961 -6.90876e-20 -2.40733e-05)
(-0.000158835 -0.000251784 -1.73091e-19 0.000186442 -1.67281e-19 -2.76074e-05)
(-0.000184393 -0.000204784 2.16326e-19 0.000215237 1.23105e-19 -3.08435e-05)
(-0.000196546 -0.000157728 1.87091e-19 0.000230514 1.56297e-19 -3.39678e-05)
(-0.000197426 -0.000113846 2.43807e-19 0.000234236 1.18227e-19 -3.681e-05)
(-0.000189338 -7.53724e-05 -3.93008e-19 0.000228634 -1.29089e-19 -3.92966e-05)
(-0.000174571 -4.30464e-05 -3.44142e-19 0.000215576 -2.27085e-19 -4.10045e-05)
(-0.000155519 -1.74527e-05 4.47676e-19 0.000197398 1.41482e-19 -4.18796e-05)
(-0.000133602 2.04762e-06 9.34119e-20 0.000175389 5.5345e-20 -4.1787e-05)
(-0.000109786 1.84265e-05 -6.78658e-20 0.00014945 7.07138e-21 -3.96632e-05)
(-8.65604e-05 3.16102e-05 -2.26318e-19 0.000123007 -1.46871e-19 -3.64469e-05)
(-6.34331e-05 4.18846e-05 5.48331e-20 9.42429e-05 -2.10815e-20 -3.08098e-05)
(-4.2781e-05 4.78817e-05 2.30988e-19 6.59519e-05 7.12504e-20 -2.31708e-05)
(-2.71813e-05 4.93629e-05 -2.71812e-19 4.20777e-05 -7.79146e-20 -1.48964e-05)
(-2.72093e-05 7.32295e-05 1.63668e-19 4.03729e-05 2.14752e-20 -1.31635e-05)
(-2.85657e-05 0.000109192 -5.67238e-20 4.00468e-05 -1.26092e-20 -1.14811e-05)
(-1.56725e-05 9.49124e-05 -8.70189e-20 2.19347e-05 4.44325e-20 -6.26225e-06)
(-8.02402e-05 0.00114081 6.34684e-19 0.000136221 -2.07743e-19 -5.59805e-05)
(7.64762e-05 0.00457207 -2.16807e-18 0.000119489 2.94793e-18 -0.000195965)
(0.000958543 0.0103823 7.41156e-20 -0.00054736 -1.1906e-19 -0.000411182)
(0.000196485 0.00117323 3.89641e-19 -0.000152283 -1.40724e-19 -4.42019e-05)
(0.00121297 0.00408176 1.77749e-18 -0.00104004 4.01252e-18 -0.000172924)
(0.00433454 0.00303614 5.80665e-18 -0.0038784 -3.39075e-17 -0.000456147)
(0.00953096 -0.0413046 -2.46073e-17 -0.0085511 -1.32446e-16 -0.000979855)
(0.00312042 -0.240921 8.91612e-16 -0.00161808 2.27576e-16 -0.00150235)
(-0.0485538 -0.703607 1.59014e-15 0.0499911 3.55449e-16 -0.00143731)
(-0.168949 -1.35894 -1.09019e-15 0.169139 -1.38021e-15 -0.000189539)
(-0.327042 -1.93912 -4.96081e-15 0.324677 1.03337e-15 0.00236509)
(-0.445728 -2.23776 3.61153e-15 0.443051 3.47762e-15 0.00267708)
(-0.506911 -2.30552 -7.89709e-15 0.502436 -3.8125e-17 0.00447535)
(-0.388622 -2.16885 -1.06744e-14 0.394184 1.63754e-15 -0.00556196)
(-0.560191 -2.40632 7.99095e-15 0.538705 -3.31346e-15 0.0214855)
(0.000331376 -0.000161407 -1.46257e-20 -0.000327666 -2.65795e-20 -3.70959e-06)
(0.000348808 -9.98454e-05 -7.01137e-21 -0.000345802 2.74403e-20 -3.00598e-06)
(0.000352319 -2.52372e-05 4.74845e-20 -0.000351734 7.50496e-20 -5.85152e-07)
(0.000337981 5.23147e-05 -2.73983e-20 -0.000338209 6.05261e-21 2.28126e-07)
(0.000301856 0.000126068 1.61832e-20 -0.000302389 1.04444e-19 5.32566e-07)
(0.000246177 0.0001862 6.37397e-20 -0.000245935 -3.69677e-20 -2.42539e-07)
(0.000177976 0.000226247 5.70678e-20 -0.000177933 -1.38124e-21 -4.38657e-08)
(0.000105148 0.000243315 -1.32453e-19 -0.000105761 -7.38994e-20 6.13076e-07)
(3.62941e-05 0.000236874 -6.34941e-20 -3.72059e-05 6.46003e-21 9.11855e-07)
(-2.01793e-05 0.000211541 1.44023e-19 1.92776e-05 3.64189e-20 9.01754e-07)
(-5.94751e-05 0.000175921 5.49804e-20 5.89884e-05 -6.26271e-21 4.8676e-07)
(-8.22007e-05 0.000138271 7.33557e-20 8.25133e-05 -4.26441e-20 -3.12615e-07)
(-9.19228e-05 0.000103685 -1.30994e-19 9.32115e-05 -5.09349e-20 -1.28865e-06)
(-9.26073e-05 7.46487e-05 -1.42686e-19 9.49111e-05 3.18794e-20 -2.30377e-06)
(-8.78281e-05 5.21191e-05 1.86768e-20 9.11789e-05 2.95223e-20 -3.35076e-06)
(-8.04804e-05 3.54135e-05 4.1428e-20 8.47414e-05 -1.21227e-20 -4.26104e-06)
(-7.24503e-05 2.35018e-05 -1.14817e-19 7.7488e-05 1.53605e-22 -5.03766e-06)
(-6.47943e-05 1.51392e-05 -2.63429e-22 7.04409e-05 -1.44852e-20 -5.6466e-06)
(-5.80722e-05 9.16851e-06 -4.11485e-20 6.41945e-05 -4.39597e-21 -6.12232e-06)
(-5.23155e-05 4.55921e-06 9.26548e-20 5.87334e-05 -4.35224e-20 -6.41789e-06)
(-4.74087e-05 6.77632e-07 -1.02885e-19 5.40331e-05 -1.98536e-20 -6.62446e-06)
(-4.30281e-05 -3.0126e-06 -2.01883e-19 4.978e-05 -8.65665e-21 -6.7519e-06)
(-3.86751e-05 -6.81427e-06 1.45596e-20 4.55308e-05 -2.18624e-20 -6.85576e-06)
(-3.36137e-05 -1.04227e-05 5.52044e-20 4.05165e-05 -2.13925e-20 -6.90282e-06)
(-2.80682e-05 -1.26201e-05 1.57043e-19 3.51975e-05 -1.16606e-20 -7.12931e-06)
(-2.32332e-05 -1.31653e-05 -1.50141e-19 3.09463e-05 1.34732e-21 -7.71315e-06)
(-1.94165e-05 -1.28222e-05 -2.42311e-20 2.77781e-05 2.96425e-21 -8.36156e-06)
(-1.66541e-05 -1.22905e-05 1.55854e-20 2.56892e-05 -6.52896e-22 -9.03511e-06)
(-1.31487e-05 -1.07027e-05 -6.99216e-21 2.18437e-05 9.67927e-23 -8.69497e-06)
(-1.2585e-05 -1.14392e-05 -1.20998e-20 2.24479e-05 -2.81785e-21 -9.86297e-06)
(-4.97535e-06 -5.32606e-06 -1.13202e-20 9.57139e-06 -2.68966e-21 -4.59604e-06)
(-2.97314e-06 -4.00253e-06 3.82066e-20 6.42566e-06 1.67617e-21 -3.45252e-06)
(-3.01812e-05 -5.74456e-05 2.77701e-18 8.95005e-05 3.34708e-19 -5.93194e-05)
(3.71323e-05 4.01877e-05 2.4954e-17 8.52046e-05 1.70372e-18 -0.000122337)
(0.000362151 0.00106579 9.87657e-17 -0.000286984 8.4953e-18 -7.51666e-05)
(0.00112976 0.00480519 -2.11133e-16 -0.0012895 -2.84202e-17 0.00015974)
(0.00175072 0.0146598 8.69467e-16 -0.00242237 1.25137e-16 0.000671655)
(0.00733226 0.0340158 -5.58496e-16 -0.00795419 -1.70922e-16 0.000621935)
(-0.00469767 0.119974 -3.82947e-16 -0.000424909 -1.40388e-15 0.00512258)
(0.000224967 -0.000168162 -1.36435e-20 -0.000226869 -1.74149e-20 1.9026e-06)
(0.000191231 -0.000204413 2.26784e-21 -0.000194216 2.41124e-21 2.98518e-06)
(0.000146461 -0.000235909 1.65482e-20 -0.000149835 1.87032e-20 3.37487e-06)
(9.44969e-05 -0.000256778 -9.76728e-20 -9.88864e-05 -1.23351e-19 4.3895e-06)
(3.91902e-05 -0.000264839 -7.17319e-20 -4.47616e-05 -8.27446e-20 5.57138e-06)
(-1.73951e-05 -0.000259347 1.63356e-19 1.07278e-05 1.84545e-19 6.66727e-06)
(-7.01801e-05 -0.000240554 -1.70888e-19 6.20473e-05 -1.99832e-19 8.13275e-06)
(-0.000115295 -0.000210322 -7.45362e-20 0.000105559 -5.26442e-20 9.73621e-06)
(-0.000150436 -0.000171371 -1.82246e-19 0.000139086 -1.34827e-19 1.13497e-05)
(-0.000174044 -0.000127547 -3.66464e-20 0.00016084 -6.07153e-20 1.32034e-05)
(-0.000186025 -8.21795e-05 2.34204e-20 0.000170963 -7.10645e-21 1.5062e-05)
(-0.000187319 -3.82906e-05 -1.30656e-19 0.000170376 -1.62649e-19 1.6943e-05)
(-0.000179526 1.76393e-06 4.09254e-19 0.000160663 2.75552e-19 1.88629e-05)
(-0.00016465 3.63885e-05 -1.31126e-19 0.00014392 -2.22624e-20 2.07298e-05)
(-0.000144736 6.46492e-05 -3.31133e-19 0.000122355 -1.44466e-19 2.23805e-05)
(-0.00012204 8.67577e-05 2.17359e-19 9.81619e-05 5.28506e-21 2.38776e-05)
(-9.85817e-05 0.000101643 -1.59368e-19 7.43998e-05 -9.04591e-20 2.41818e-05)
(-7.56942e-05 0.000109412 2.01034e-21 5.24341e-05 1.16427e-19 2.32601e-05)
(-5.39803e-05 0.00011116 -3.85771e-20 3.25247e-05 -3.0112e-20 2.14556e-05)
(-3.4064e-05 0.000107528 -2.75608e-19 1.50495e-05 -1.89059e-19 1.90145e-05)
(-1.59475e-05 9.36465e-05 1.98704e-19 9.28732e-07 1.93953e-19 1.50187e-05)
(-3.11971e-06 6.82029e-05 4.42378e-21 -6.45337e-06 -1.22507e-19 9.57309e-06)
(2.74396e-06 5.35711e-05 3.77106e-20 -8.92344e-06 1.1598e-20 6.17948e-06)
(6.75426e-06 5.40581e-05 1.05465e-19 -1.16784e-05 -4.86702e-21 4.92418e-06)
(1.05782e-05 5.60998e-05 -3.57052e-20 -1.46441e-05 -1.17998e-20 4.06594e-06)
(1.3695e-05 5.72474e-05 1.19929e-19 -1.69864e-05 1.96694e-20 3.29148e-06)
(1.5413e-05 5.81925e-05 -6.74151e-21 -1.79598e-05 2.03031e-22 2.54675e-06)
(2.49915e-05 9.33697e-05 -2.05866e-20 -2.78849e-05 -1.34276e-20 2.89347e-06)
(0.000360043 0.00135429 -1.65763e-20 -0.000386844 4.54182e-19 2.6801e-05)
(0.00149838 0.00545247 -1.77427e-17 -0.00155675 1.44748e-18 5.83665e-05)
(0.000975506 0.0032006 -3.38007e-18 -0.000988667 5.96152e-19 1.31609e-05)
(0.00307221 0.00801837 5.84904e-18 -0.00307012 -3.69055e-17 -2.08829e-06)
(0.010527 0.0139081 1.42192e-16 -0.0104398 -1.87024e-16 -8.72379e-05)
(0.0185835 -0.0474878 -1.05516e-15 -0.0181541 5.25209e-17 -0.000429439)
(-0.0102988 -0.338834 2.29997e-15 0.0112312 9.06656e-16 -0.000932397)
(-0.111809 -0.910923 -5.25804e-16 0.113144 2.72936e-16 -0.0013345)
(-0.264124 -1.54988 -1.03061e-15 0.262507 2.71353e-15 0.00161654)
(-0.298876 -1.96523 6.00104e-16 0.305446 4.89827e-17 -0.00657027)
(-0.489311 -2.39216 -1.39179e-14 0.460955 3.80261e-15 0.0283556)
(0.000250443 -0.00012493 9.12258e-21 -0.000252511 8.75817e-22 2.06866e-06)
(0.000266757 -7.9438e-05 -3.26094e-20 -0.000267787 -3.79991e-20 1.03015e-06)
(0.000273188 -2.44692e-05 7.10671e-22 -0.0002744 1.92903e-20 1.21217e-06)
(0.000265886 3.3709e-05 2.17516e-20 -0.000266439 -6.77122e-20 5.52917e-07)
(0.00024207 9.02496e-05 -1.54862e-19 -0.000242178 -1.86966e-19 1.08042e-07)
(0.00020308 0.000138143 -1.57735e-19 -0.000202657 9.60646e-20 -4.22387e-07)
(0.000153569 0.000172889 2.09128e-19 -0.000153346 8.48476e-20 -2.23094e-07)
(9.87193e-05 0.000191337 -7.54287e-20 -9.87895e-05 -1.61745e-19 7.02291e-08)
(4.49698e-05 0.000192213 -7.80824e-20 -4.51526e-05 2.26815e-20 1.82823e-07)
(-1.38627e-06 0.000178181 -5.1158e-20 1.14262e-06 -9.03775e-20 2.43656e-07)
(-3.62627e-05 0.000154329 1.41096e-20 3.59757e-05 3.09428e-20 2.86997e-07)
(-5.88768e-05 0.000126303 -4.27618e-20 5.85079e-05 -4.13581e-20 3.68848e-07)
(-7.08463e-05 9.83956e-05 -8.99331e-20 7.02937e-05 1.00064e-19 5.52615e-07)
(-7.46405e-05 7.32182e-05 9.87706e-20 7.38097e-05 3.48408e-20 8.30803e-07)
(-7.28111e-05 5.22202e-05 7.45404e-20 7.16544e-05 -3.18772e-20 1.15674e-06)
(-6.77596e-05 3.5599e-05 -1.53314e-20 6.62225e-05 -2.49165e-20 1.53706e-06)
(-6.12551e-05 2.29463e-05 4.41521e-20 5.93164e-05 5.73556e-21 1.93869e-06)
(-5.4488e-05 1.34983e-05 -6.96135e-20 5.21582e-05 1.73053e-20 2.32978e-06)
(-4.81556e-05 6.44558e-06 4.92629e-20 4.54821e-05 -3.34054e-21 2.67343e-06)
(-4.25025e-05 9.8691e-07 -6.20622e-20 3.95261e-05 -2.02059e-20 2.97646e-06)
(-3.75233e-05 -3.48252e-06 6.33147e-20 3.43113e-05 8.10637e-22 3.21204e-06)
(-3.29752e-05 -7.44243e-06 7.93609e-20 2.95767e-05 9.94938e-21 3.39845e-06)
(-2.84407e-05 -1.11515e-05 -9.02531e-21 2.4907e-05 6.1483e-21 3.53367e-06)
(-2.32799e-05 -1.44108e-05 -1.52728e-19 1.95621e-05 4.87155e-21 3.71785e-06)
(-1.75059e-05 -1.63806e-05 -5.41127e-20 1.35684e-05 -1.29664e-20 3.93749e-06)
(-1.1996e-05 -1.67973e-05 -1.6435e-20 7.88276e-06 1.34038e-20 4.11326e-06)
(-7.19729e-06 -1.62819e-05 6.16437e-20 2.77842e-06 -8.29554e-22 4.41887e-06)
(-3.07309e-06 -1.52364e-05 1.70722e-21 -1.77404e-06 9.72613e-23 4.84713e-06)
(4.12459e-07 -1.40172e-05 -3.22322e-21 -5.74392e-06 -1.70912e-22 5.33146e-06)
(3.04384e-06 -1.18759e-05 3.84949e-20 -8.37299e-06 1.42825e-21 5.32915e-06)
(6.13949e-06 -1.34357e-05 3.5383e-20 -1.2778e-05 1.43215e-21 6.63852e-06)
(3.61718e-06 -5.9135e-06 -8.84995e-20 -6.53436e-06 -6.61193e-21 2.91717e-06)
(2.14182e-05 -2.97006e-05 -1.25659e-18 -3.46364e-05 -8.88209e-20 1.32182e-05)
(0.00012216 -0.000151064 -1.40692e-18 -0.000176782 1.3732e-19 5.46222e-05)
(9.81491e-05 -0.000106878 7.70452e-19 -0.000126863 2.23817e-19 2.8714e-05)
(8.09588e-05 -6.57557e-05 -1.22495e-18 -9.2239e-05 7.71044e-20 1.12802e-05)
(0.000290728 -9.64526e-05 -1.45669e-17 -0.000309595 -8.53137e-18 1.88671e-05)
(0.00117583 0.00032001 7.06167e-17 -0.00113681 5.85212e-18 -3.902e-05)
(0.00415994 0.0234515 -3.30927e-16 -0.00568931 4.87559e-17 0.00152937)
(0.000183479 -0.000137571 1.2221e-20 -0.000182826 1.24521e-20 -6.52449e-07)
(0.000158597 -0.000166719 -2.96598e-20 -0.000158064 -3.10806e-20 -5.33573e-07)
(0.000125023 -0.000193028 -1.7939e-21 -0.000124041 -5.45763e-21 -9.82184e-07)
(8.58298e-05 -0.0002122 -1.02661e-20 -8.45723e-05 -8.56244e-21 -1.25748e-06)
(4.36671e-05 -0.000222243 9.42824e-20 -4.21401e-05 1.01623e-19 -1.52709e-06)
(-5.1458e-07 -0.000222637 7.09347e-20 2.59776e-06 5.95761e-20 -2.08318e-06)
(-4.29161e-05 -0.000213152 3.30465e-21 4.55234e-05 2.53943e-20 -2.60732e-06)
(-8.0636e-05 -0.000194687 1.8e-19 8.38732e-05 1.67183e-19 -3.23723e-06)
(-0.000111909 -0.000168887 -2.00016e-20 0.000115974 -1.28199e-21 -4.06506e-06)