# p  FACE_DATA 300
# x y z  p
0.29787915 -0.05 -0.060005454 21033.6
0.29366024 -0.05 -0.059998184 21018.836
0.28948669 -0.05 -0.059982824 21005.734
0.28535801 -0.05 -0.05995956 20993.245
0.28127374 -0.05 -0.05992843 20982.385
0.27723341 -0.05 -0.059889544 20972.184
0.27323659 -0.05 -0.059843056 20963.106
0.2692828 -0.05 -0.059789027 20955.095
0.26537161 -0.05 -0.059727601 20947.651
0.26150257 -0.05 -0.05965892 20941.069
0.25767524 -0.05 -0.059583046 20935.479
0.2538892 -0.05 -0.059500074 20930.738
0.25014401 -0.05 -0.059410118 20926.808
0.24643926 -0.05 -0.059313284 20923.633
0.24277452 -0.05 -0.059209673 20921.142
0.23914938 -0.05 -0.059099387 20919.479
0.23556343 -0.05 -0.058982537 20918.677
0.23201627 -0.05 -0.058859254 20918.726
0.2285075 -0.05 -0.058729541 20921.238
0.22503671 -0.05 -0.058593532 20924.901
0.22160352 -0.05 -0.058451379 20931.475
0.21820754 -0.05 -0.058303115 20940.526
0.21484838 -0.05 -0.058148846 20952.634
0.21152567 -0.05 -0.05798866 20967.681
0.20823903 -0.05 -0.057822651 20986.434
0.20498809 -0.05 -0.057650874 21008.732
0.20177248 -0.05 -0.057473468 21034.569
0.19859184 -0.05 -0.057290478 21064.721
0.1954458 -0.05 -0.057101994 21098.295
0.19233402 -0.05 -0.056908168 21136.098
0.18925614 -0.05 -0.056708999 21179.076
0.18621181 -0.05 -0.056504562 21226.462
0.18320071 -0.05 -0.056294919 21278.815
0.18022246 -0.05 -0.056080229 21334.545
0.17727675 -0.05 -0.055860526 21396.154
0.17436324 -0.05 -0.05563585 21460.977
0.1714816 -0.05 -0.055406376 21530.322
0.16863151 -0.05 -0.055172052 21604.222
0.16581265 -0.05 -0.054932944 21681.706
0.16302469 -0.05 -0.054689208 21762.696
0.16026732 -0.05 -0.054440898 21847.488
0.15754024 -0.05 -0.054188056 21935.466
0.15484313 -0.05 -0.053930725 22023.432
0.15217569 -0.05 -0.053668978 22107.54
0.14953762 -0.05 -0.053402888 22186.892
0.14692863 -0.05 -0.053132457 22262.212
0.14434842 -0.05 -0.052857799 22331.2
0.14179669 -0.05 -0.052579044 22393.227
0.13927317 -0.05 -0.05229612 22448.689
0.13677758 -0.05 -0.052009061 22494.988
0.13430961 -0.05 -0.051717985 22532.834
0.13186901 -0.05 -0.051422993 22560.885
0.1294555 -0.05 -0.051124081 22582.141
0.12706881 -0.05 -0.050821224 22594.051
0.12470868 -0.05 -0.050514504 22600.146
0.12237483 -0.05 -0.05020403 22601.763
0.120067 -0.05 -0.049889836 22600.656
0.11778495 -0.05 -0.049571874 22596.094
0.11552842 -0.05 -0.049250263 22589.028
0.11329715 -0.05 -0.048924992 22581.811
0.1110909 -0.05 -0.048596121 22574.142
0.10890943 -0.05 -0.048263656 22569.467
0.10675251 -0.05 -0.047927554 22566.444
0.10461987 -0.05 -0.047587958 22565.15
0.1025113 -0.05 -0.047244937 22565.653
0.10042655 -0.05 -0.046898432 22570.394
0.098365405 -0.05 -0.046548446 22578.109
0.096327639 -0.05 -0.046195043 22590.096
0.094313028 -0.05 -0.045838237 22605.583
0.092321357 -0.05 -0.045478019 22625.798
0.090352417 -0.05 -0.04511438 22649.284
0.088405979 -0.05 -0.044747421 22676.226
0.086481845 -0.05 -0.044377096 22707.794
0.084579815 -0.05 -0.044003384 22742.73
0.082699669 -0.05 -0.043626384 22781.102
0.080841229 -0.05 -0.043246005 22824.225
0.0790043 -0.05 -0.042862236 22869.715
0.077188665 -0.05 -0.0424752 22918.302
0.07539416 -0.05 -0.042084789 22971.027
0.073620599 -0.05 -0.041690997 23025.869
0.071867788 -0.05 -0.041293877 23083.578
0.070135557 -0.05 -0.040893385 23143.901
0.068423742 -0.05 -0.040489457 23207.267
0.066732169 -0.05 -0.040082112 23272.552
0.065060663 -0.05 -0.039671361 23341.222
0.063409062 -0.05 -0.039257174 23412.975
0.061777219 -0.05 -0.038839488 23488.486
0.060164984 -0.05 -0.038418265 23564.904
0.058572196 -0.05 -0.037993513 23642.779
0.056998721 -0.05 -0.037565159 23723.668
0.055444419 -0.05 -0.03713316 23807.784
0.053909142 -0.05 -0.036697516 23894.178
0.052392764 -0.05 -0.036258171 23983.82
0.050895177 -0.05 -0.035815009 24076.093
0.049416244 -0.05 -0.035368033 24170.542
0.047955856 -0.05 -0.034917167 24268.322
0.046513915 -0.05 -0.034462309 24368.437
0.045090302 -0.05 -0.034003445 24471.056
0.043684931 -0.05 -0.033540468 24577.373
0.042297731 -0.05 -0.03307324 24687.363
0.040928604 -0.05 -0.032601735 24800.849
0.039577476 -0.05 -0.032125845 24919.305
0.038244292 -0.05 -0.03164545 25041.718
0.036928981 -0.05 -0.031160474 25168.269
0.0356315 -0.05 -0.030670795 25298.69
0.03435181 -0.05 -0.030176299 25434.237
0.033089918 -0.05 -0.029676761 25575.179
0.031845783 -0.05 -0.029172106 25719.731
0.030619394 -0.05 -0.028662209 25870.542
0.029410776 -0.05 -0.028146878 26025.597
0.028219949 -0.05 -0.027625962 26186.089
0.027046957 -0.05 -0.027099267 26351.663
0.025891857 -0.05 -0.026566614 26523.486
0.02475474 -0.05 -0.026027768 26701.403
0.023635681 -0.05 -0.025482558 26885.635
0.022534817 -0.05 -0.024930718 27076.965
0.021452274 -0.05 -0.024372036 27274.357
0.020388213 -0.05 -0.023806274 27479.277
0.019342865 -0.05 -0.023233111 27691.423
0.018316468 -0.05 -0.022652259 27911.02
0.017309264 -0.05 -0.02206346 28138.442
0.016321577 -0.05 -0.021466368 28376.194
0.015353757 -0.05 -0.020860644 28623.631
0.014406156 -0.05 -0.020245997 28881.514
0.013479274 -0.05 -0.019622013 29150.474
0.012573638 -0.05 -0.018988322 29429.782
0.0116898 -0.05 -0.018344552 29719.755
0.010828378 -0.05 -0.017690314 30020.371
0.0099901248 -0.05 -0.017025149 30332.364
0.0091759198 -0.05 -0.016348644 30654.469
0.008386597 -0.05 -0.0156605 30986.78
0.0076231725 -0.05 -0.014960218 31330.617
0.0068867853 -0.05 -0.014247452 31683.934
0.0061787359 -0.05 -0.013521943 32046.996
0.0055003792 -0.05 -0.012783302 32417.981
0.0048530826 -0.05 -0.012031363 32792.488
0.0042385571 -0.05 -0.011266143 33167.14
0.0036585397 -0.05 -0.010487553 33537.048
0.0031148318 -0.05 -0.0096957287 33897.266
0.0026094399 -0.05 -0.0088912322 34240.999
0.0021442246 -0.05 -0.0080745628 34557.444
0.0017210465 -0.05 -0.0072465895 34832.333
0.0013418093 -0.05 -0.0064087151 35059.911
0.0010080919 -0.05 -0.0055623679 35247.509
0.00072127228 -0.05 -0.0047092571 35375.539
0.00048251081 -0.05 -0.0038515496 35431.34
0.00029236329 -0.05 -0.0029916286 35417.167
0.0001508317 -0.05 -0.0021320102 35328.752
5.7495879e-05 -0.05 -0.0012752716 35163.681
1.1394864e-05 -0.05 -0.00042397109 34931.185
0.99768066 -0.05 -0.00033611804 26738.588
0.99304169 -0.05 -0.0010063364 26609.682
0.98840215 -0.05 -0.0016726212 26475.927
0.98376207 -0.05 -0.0023350721 26361.605
0.97912144 -0.05 -0.0029936636 26253.098
0.97448026 -0.05 -0.00364841 26152.206
0.96983855 -0.05 -0.0042993733 26056.594
0.96519632 -0.05 -0.0049465845 25966.034
0.96055357 -0.05 -0.0055900577 25879.796
0.95591031 -0.05 -0.0062298653 25797.331
0.95126654 -0.05 -0.0068660327 25718.487
0.94662228 -0.05 -0.0074985225 25642.946
0.94197752 -0.05 -0.0081274235 25570.245
0.9373323 -0.05 -0.008752761 25500.398
0.93268659 -0.05 -0.0093745713 25432.861
0.92804042 -0.05 -0.0099928964 25367.747
0.92339379 -0.05 -0.010607714 25304.825
0.91874669 -0.05 -0.011219031 25243.997
0.91409915 -0.05 -0.011826962 25184.734
0.90945116 -0.05 -0.012431486 25127.6
0.90480273 -0.05 -0.013032571 25071.899
0.90015387 -0.05 -0.013630361 25017.724
0.89550457 -0.05 -0.014224739 24965.421
0.89085486 -0.05 -0.014815813 24913.976
0.88620473 -0.05 -0.01540363 24864.291
0.88155418 -0.05 -0.0159881 24815.691
0.87690323 -0.05 -0.016569356 24768.121
0.87225187 -0.05 -0.017147383 24721.703
0.86760011 -0.05 -0.017722168 24676.282
0.86294795 -0.05 -0.018293719 24631.858
0.85829541 -0.05 -0.018862095 24588.138
0.85364248 -0.05 -0.01942729 24545.461
0.84898916 -0.05 -0.01998931 24503.364
0.84433547 -0.05 -0.020548224 24462.118
0.8396814 -0.05 -0.021103928 24421.882
0.83502695 -0.05 -0.021656533 24381.808
0.83037214 -0.05 -0.022206072 24342.687
0.82571696 -0.05 -0.022752481 24304.05
0.82106143 -0.05 -0.023295768 24266.292
0.81640553 -0.05 -0.023835961 24228.804
0.81174927 -0.05 -0.024373126 24191.905
0.80709266 -0.05 -0.024907211 24155.515
0.80243571 -0.05 -0.025438235 24119.628
0.7977784 -0.05 -0.025966147 24084.521
0.79312074 -0.05 -0.026490982 24049.57
0.78846275 -0.05 -0.027012845 24014.868
0.78380442 -0.05 -0.027531686 23980.675
0.77914575 -0.05 -0.028047403 23947.04
0.77448674 -0.05 -0.028560079 23913.289
0.76982739 -0.05 -0.029069752 23880.069
0.76516771 -0.05 -0.02957633 23847.221
0.7605077 -0.05 -0.030079852 23814.541
0.75584737 -0.05 -0.030580367 23781.966
0.75118671 -0.05 -0.03107785 23749.726
0.74652573 -0.05 -0.031572241 23717.84
0.74186441 -0.05 -0.032063551 23686.142
0.73720278 -0.05 -0.032551782 23654.669
0.73254083 -0.05 -0.03303698 23623.134
0.72787854 -0.05 -0.033519069 23592.179
0.72321595 -0.05 -0.033998064 23560.959
0.71855304 -0.05 -0.034473962 23530.464
0.71388981 -0.05 -0.034946671 23500.02
0.70922626 -0.05 -0.035416302 23469.432
0.7045624 -0.05 -0.03588285 23438.91
0.69989823 -0.05 -0.036346252 23408.502
0.69523375 -0.05 -0.036806454 23378.413
0.69056894 -0.05 -0.037263403 23348.463
0.68590382 -0.05 -0.037717206 23318.164
0.68123839 -0.05 -0.038167801 23288.477
0.67657265 -0.05 -0.038615123 23258.52
0.67190661 -0.05 -0.039059237 23228.616
0.66724025 -0.05 -0.039500049 23198.972
0.66257357 -0.05 -0.039937521 23169.37
0.6579066 -0.05 -0.040371712 23139.548
0.65323931 -0.05 -0.040802591 23109.935
0.64857171 -0.05 -0.041230085 23080.449
0.6439038 -0.05 -0.041654149 23051.224
0.63923558 -0.05 -0.042074786 23021.853
0.63456705 -0.05 -0.042492 22992.601
0.62989821 -0.05 -0.042905734 22963.396
0.62522906 -0.05 -0.043315943 22934.297
0.62055961 -0.05 -0.043722625 22905.064
0.61588983 -0.05 -0.044125719 22876.088
0.61121975 -0.05 -0.044525219 22846.79
0.60654937 -0.05 -0.044921074 22817.906
0.60187867 -0.05 -0.045313219 22788.751
0.59720766 -0.05 -0.045701683 22759.595
0.59253634 -0.05 -0.046086399 22730.495
0.58786471 -0.05 -0.046467288 22701.589
0.58319277 -0.05 -0.046844345 22672.495
0.57852051 -0.05 -0.047217535 22643.597
0.57384795 -0.05 -0.047586814 22614.52
0.56917507 -0.05 -0.047952124 22585.714
0.56450189 -0.05 -0.048313436 22556.668
0.55982839 -0.05 -0.048670677 22528.038
0.55515457 -0.05 -0.04902381 22498.963
0.55048045 -0.05 -0.04937281 22470.222
0.54580601 -0.05 -0.04971755 22441.488
0.54113126 -0.05 -0.050058049 22412.545
0.5364562 -0.05 -0.050394263 22383.579
0.53178083 -0.05 -0.050726133 22354.364
0.52710515 -0.05 -0.05105357 22325.379
0.52242915 -0.05 -0.051376464 22296.384
0.51775284 -0.05 -0.051694815 22267.175
0.51307623 -0.05 -0.052008601 22237.88
0.5083993 -0.05 -0.052317709 22208.735
0.50372205 -0.05 -0.052622098 22179.319
0.4990445 -0.05 -0.052921702 22150.142
0.49436664 -0.05 -0.053216428 22120.869
0.48968848 -0.05 -0.053506199 22091.872
0.48501001 -0.05 -0.053790938 22062.714
0.48033122 -0.05 -0.054070627 22033.52
0.47565213 -0.05 -0.05434516 22004.42
0.47097274 -0.05 -0.05461447 21975.153
0.46629305 -0.05 -0.054878504 21945.978
0.46161306 -0.05 -0.055137129 21917.041
0.45693277 -0.05 -0.055390258 21888.063
0.45225217 -0.05 -0.05563783 21859.05
0.44757129 -0.05 -0.055879797 21829.818
0.44289011 -0.05 -0.056116052 21800.92
0.43820865 -0.05 -0.056346461 21772.199
0.43352689 -0.05 -0.056570934 21743.71
0.42884486 -0.05 -0.056789429 21715.079
0.42416254 -0.05 -0.057001839 21686.807
0.41947994 -0.05 -0.057208045 21658.414
0.41479707 -0.05 -0.057407955 21630.218
0.41011393 -0.05 -0.057601449 21602.056
0.40543053 -0.05 -0.057788457 21574.05
0.40074687 -0.05 -0.057968847 21546.453
0.39606296 -0.05 -0.058142512 21518.939
0.3913788 -0.05 -0.05830933 21491.738
0.38669439 -0.05 -0.058469176 21464.507
0.38200975 -0.05 -0.058621944 21437.482
0.37732488 -0.05 -0.058767528 21410.638
0.37263978 -0.05 -0.058905769 21384.563
0.36795448 -0.05 -0.059036525 21358.704
0.36326896 -0.05 -0.059159726 21333.172
0.35858325 -0.05 -0.059275201 21308.168
0.35389735 -0.05 -0.059382803 21283.391
0.34921128 -0.05 -0.05948244 21258.911
0.34452504 -0.05 -0.059573923 21235.239
0.33983865 -0.05 -0.059657063 21212.054
0.33515211 -0.05 -0.059731741 21189.25
0.33046544 -0.05 -0.059797856 21166.711
0.32577866 -0.05 -0.059855197 21145.236
0.32109177 -0.05 -0.059903556 21124.321
0.31640481 -0.05 -0.059942821 21104.01
0.31171777 -0.05 -0.059972784 21084.093
0.30703069 -0.05 -0.059993273 21064.59
0.30234356 -0.05 -0.060004087 21047.516
