/*--------------------------------*- C++ -*----------------------------------*\
| =========                 |                                                 |
| \\      /  F ield         | OpenFOAM: The Open Source CFD Toolbox           |
|  \\    /   O peration     | Version:  2306                                  |
|   \\  /    A nd           | Website:  www.openfoam.com                      |
|    \\/     M anipulation  |                                                 |
\*---------------------------------------------------------------------------*/
FoamFile
{
    version     2.0;
    format      ascii;
    arch        "LSB;label=32;scalar=64";
    class       volScalarField;
    location    "425";
    object      div(phi);
}
// * * * * * * * * * * * * * * * * * * * * * * * * * * * * * * * * * * * * * //

dimensions      [0 0 -1 0 0 0 0];

internalField   nonuniform List<scalar> 
1340
(
1.04187e-08
-3.348e-08
-5.16865e-09
-6.67721e-09
3.56705e-10
-4.99755e-09
1.08447e-08
-1.62334e-08
1.50148e-09
1.46814e-09
-1.5617e-09
-6.7695e-09
7.17569e-09
6.50348e-09
-1.24923e-09
3.07705e-09
2.82851e-09
-2.16095e-09
-2.96628e-09
3.7933e-10
-2.14541e-09
-3.63037e-09
7.51606e-09
5.41026e-09
1.10097e-08
-5.64101e-10
8.3465e-09
4.411e-09
7.72367e-09
-5.48453e-12
-4.57271e-09
9.31415e-10
2.08314e-09
-1.84163e-09
-3.84344e-09
-6.57382e-08
-8.4087e-09
-2.25344e-08
3.70428e-09
-2.21136e-08
9.97723e-09
6.24144e-09
-1.85259e-09
-2.57792e-09
1.05934e-08
4.02662e-09
5.01373e-09
-2.03469e-09
1.85374e-09
3.17932e-09
-2.03626e-09
-2.87164e-09
6.25911e-10
-6.53852e-10
-4.31729e-09
-1.82766e-08
2.13881e-08
9.24622e-09
1.187e-09
1.32894e-08
-3.05285e-08
-9.38585e-09
-2.07087e-08
-9.79086e-09
-2.79465e-08
9.03672e-09
4.94966e-10
-2.21125e-09
-2.03785e-09
4.71372e-09
-2.00379e-09
5.9219e-09
2.22872e-09
6.79827e-09
-2.06097e-10
-4.27196e-09
9.24598e-10
2.32015e-09
-1.66594e-09
-2.21235e-09
-1.25477e-07
-2.61462e-08
-3.8686e-08
-4.15794e-09
-2.88993e-08
7.37758e-09
-2.28772e-08
9.49096e-09
-2.05872e-08
1.2422e-08
-2.32366e-08
1.78347e-08
-1.993e-08
1.97052e-08
-1.45502e-08
2.08064e-08
-1.18863e-08
1.72092e-09
-1.38879e-08
-1.75914e-08
-1.44255e-08
-2.72154e-08
6.02548e-10
-1.50651e-08
7.24164e-09
-2.05303e-11
-2.05475e-09
-9.38977e-09
7.55483e-09
2.50203e-09
5.06493e-09
-2.60026e-09
1.11581e-09
3.60059e-09
-1.44167e-09
-2.31863e-09
8.8946e-10
2.02835e-10
5.38118e-06
-8.27966e-07
2.35479e-06
-5.71029e-07
2.30164e-06
-4.76603e-07
2.16394e-06
-3.8592e-07
2.00231e-06
-2.97307e-07
1.82235e-06
-2.16031e-07
1.644e-06
-1.48893e-07
1.44824e-06
-9.93193e-08
1.26547e-06
-6.78606e-08
1.06757e-06
-5.4137e-08
8.96328e-07
-5.31997e-08
7.11047e-07
-6.14423e-08
5.71826e-07
-7.04331e-08
4.1725e-07
-7.55201e-08
3.25674e-07
-6.67501e-08
2.1772e-07
-3.63108e-08
1.7404e-07
5.62241e-09
1.54294e-07
3.05312e-08
1.13198e-07
5.02538e-08
9.08454e-08
5.82987e-08
7.79596e-08
5.75814e-08
4.79553e-08
6.27882e-08
4.49227e-08
6.09982e-08
3.35935e-08
5.26289e-08
2.144e-08
4.16164e-08
1.16267e-08
3.05737e-08
4.3964e-09
2.04341e-08
1.57963e-09
1.38328e-08
-2.63854e-10
9.00153e-09
1.18328e-09
3.65189e-09
-4.64674e-09
-9.54661e-09
-1.05051e-08
-1.52106e-08
-4.89443e-09
-2.60356e-08
8.42691e-09
-8.25657e-09
-8.91961e-11
-1.52642e-08
6.6476e-09
-5.37704e-09
4.12073e-09
4.00023e-11
5.78807e-09
3.61584e-10
-3.39736e-09
1.06914e-09
2.61264e-09
-1.14807e-09
-1.37276e-09
2.57008e-06
-1.16625e-06
8.37182e-07
-9.06607e-07
9.28292e-07
-8.14288e-07
9.27488e-07
-7.43453e-07
8.66913e-07
-6.80337e-07
7.94271e-07
-6.17497e-07
7.11527e-07
-5.57398e-07
6.26922e-07
-4.97603e-07
5.53587e-07
-4.38048e-07
4.80547e-07
-3.77502e-07
4.25136e-07
-3.16003e-07
3.72972e-07
-2.56905e-07
3.32041e-07
-2.02818e-07
2.88849e-07
-1.57081e-07
2.48678e-07
-1.19188e-07
2.05241e-07
-1.0046e-07
1.67127e-07
-9.12302e-08
7.20223e-08
-6.58909e-08
5.57716e-08
-2.68195e-08
4.85405e-08
1.49743e-08
5.04971e-08
4.73068e-08
6.75526e-08
5.92384e-08
5.95143e-08
5.6101e-08
4.42289e-08
4.66539e-08
2.945e-08
3.69782e-08
1.82005e-08
2.68847e-08
1.04116e-08
1.87798e-08
5.69447e-09
1.15149e-08
3.43713e-09
6.45687e-09
2.11284e-09
2.24279e-09
-1.13346e-09
-4.70759e-09
-5.66987e-09
-4.33629e-09
-2.11926e-08
2.64658e-09
-1.69083e-08
5.94967e-09
-1.82277e-08
6.04546e-09
-1.4456e-08
8.00969e-09
1.07563e-09
4.81871e-09
-2.89451e-09
8.35311e-10
3.2557e-09
-5.35371e-10
-2.22175e-09
1.05194e-09
4.67152e-10
2.28844e-06
-1.14812e-06
3.63982e-07
-7.88446e-07
5.05286e-07
-6.11701e-07
5.6301e-07
-4.83738e-07
6.25164e-07
-3.81489e-07
6.4121e-07
-3.0493e-07
6.51613e-07
-2.45468e-07
6.32017e-07
-2.00306e-07
6.04534e-07
-1.64295e-07
5.6489e-07
-1.33806e-07
5.18564e-07
-1.08537e-07
4.7297e-07
-8.49872e-08
4.17671e-07
-6.60163e-08
3.74884e-07
-4.74787e-08
3.14074e-07
-3.22993e-08
2.7536e-07
-7.71851e-09
2.14389e-07
1.99129e-08
2.1366e-07
3.30167e-08
1.70247e-07
2.96349e-08
1.17922e-07
1.78815e-08
8.38272e-08
7.98138e-09
3.85111e-08
5.38815e-09
1.83144e-08
1.09463e-08
1.13734e-08
1.64401e-08
8.50313e-09
1.8345e-08
6.19626e-09
1.64397e-08
3.61615e-09
1.20817e-08
1.53208e-09
7.44663e-09
4.93479e-10
3.67267e-09
2.64674e-10
8.58311e-10
-2.04726e-10
-2.43403e-09
-1.11651e-09
-7.9831e-09
-7.1355e-10
-1.31871e-08
3.98061e-09
-9.10515e-09
6.91047e-09
-1.6991e-08
1.23438e-08
-3.3559e-09
4.09144e-09
-4.69818e-09
4.52639e-09
5.80577e-10
-2.47206e-09
2.43726e-10
2.32348e-09
-9.32082e-10
-8.18886e-10
2.3464e-06
-7.47259e-07
4.75859e-07
-6.42621e-07
3.71496e-07
-5.61881e-07
3.31246e-07
-4.6755e-07
3.55555e-07
-3.82308e-07
3.59103e-07
-3.22881e-07
3.61799e-07
-2.80375e-07
3.42998e-07
-2.51198e-07
3.223e-07
-2.25382e-07
2.96276e-07
-2.00781e-07
2.76162e-07
-1.74114e-07
2.55658e-07
-1.4742e-07
2.40918e-07
-1.20802e-07
2.23396e-07
-9.69415e-08
2.06483e-07
-7.62351e-08
1.85149e-07
-6.11166e-08
1.63869e-07
-5.38961e-08
1.22614e-07
-4.25287e-08
8.50602e-08
-2.99871e-08
7.24918e-08
-1.51312e-08
4.54937e-08
-4.69747e-09
3.82317e-08
2.31663e-09
2.65169e-08
3.55182e-09
1.40201e-08
3.58868e-09
4.79695e-09
3.47793e-09
-5.50007e-10
3.55018e-09
-2.93797e-09
3.60054e-09
-3.06252e-09
3.24307e-09
-1.90082e-09
2.59676e-09
-4.91999e-10
1.81039e-09
5.87255e-10
7.96456e-10
9.30409e-10
3.84187e-10
-2.75358e-09
1.65625e-09
-1.18056e-09
3.94255e-09
-1.27782e-08
1.29122e-08
-9.26015e-09
7.50981e-09
-6.14712e-09
5.67096e-09
-4.51256e-09
6.07121e-12
-9.38893e-10
-1.18278e-09
-2.13099e-09
1.00512e-09
6.25774e-10
2.24161e-06
-8.26861e-07
2.35785e-07
-5.71771e-07
2.45787e-07
-4.40894e-07
2.72915e-07
-3.36719e-07
2.92114e-07
-2.58318e-07
3.19249e-07
-1.98905e-07
3.24395e-07
-1.56126e-07
3.38559e-07
-1.24629e-07
3.30637e-07
-1.04784e-07
3.22039e-07
-9.24221e-08
2.99989e-07
-8.53999e-08
2.73013e-07
-8.03828e-08
2.44252e-07
-7.39363e-08
2.1613e-07
-6.73596e-08
1.90346e-07
-5.9317e-08
1.64614e-07
-5.24998e-08
1.39693e-07
-4.51855e-08
1.16394e-07
-4.56431e-08
9.03544e-08
-5.03271e-08
4.63911e-08
-5.66605e-08
1.87006e-08
-5.63352e-08
-6.4616e-09
-5.09218e-08
-1.89697e-08
-3.75958e-08
-1.86567e-08
-2.23254e-08
-1.36964e-08
-8.7882e-09
-8.25551e-09
9.53894e-10
-3.56978e-09
5.65946e-09
-1.05323e-09
6.53122e-09
3.58369e-10
5.32633e-09
1.35314e-09
3.35697e-09
2.4269e-09
1.58359e-09
3.60664e-09
1.22064e-09
4.14844e-09
1.36388e-09
3.71671e-09
-3.72308e-09
1.17661e-08
-1.09059e-08
1.12686e-08
-7.91936e-09
6.54291e-09
-8.14627e-09
3.60694e-09
-4.13003e-09
-3.19875e-09
-3.10886e-09
1.16173e-09
-6.7136e-10
-5.25534e-10
1.3972e-06
-6.04373e-07
3.31854e-07
-4.27799e-07
3.72324e-07
-3.57977e-07
3.69502e-07
-3.11764e-07
3.45525e-07
-2.76939e-07
3.23897e-07
-2.48749e-07
2.93622e-07
-2.27967e-07
2.62693e-07
-2.10502e-07
2.30984e-07
-1.95425e-07
2.03099e-07
-1.80073e-07
1.78601e-07
-1.65124e-07
1.58648e-07
-1.4893e-07
1.42935e-07
-1.32973e-07
1.2999e-07
-1.157e-07
1.20622e-07
-9.8974e-08
1.12734e-07
-8.2114e-08
1.06598e-07
-6.72383e-08
9.65481e-08
-5.33504e-08
8.99335e-08
-4.24321e-08
7.37703e-08
-3.37835e-08
6.35439e-08
-2.56951e-08
4.31428e-08
-1.53562e-08
3.59601e-08
-2.80959e-09
3.14347e-08
7.4878e-09
2.63817e-08
1.37634e-08
2.25128e-08
1.50425e-08
1.47655e-08
1.29923e-08
7.2259e-09
1.0363e-08
2.02685e-09
8.21622e-09
-4.86747e-10
6.76946e-09
-8.57398e-10
5.8434e-09
7.10412e-10
5.41194e-09
2.97739e-09
5.72852e-09
1.28269e-09
7.73399e-09
-1.02975e-08
1.16628e-08
-1.10193e-08
8.41812e-09
-9.72132e-09
6.40622e-09
-6.53733e-09
-1.13904e-09
-4.32595e-09
-1.09942e-09
-2.37344e-09
4.41985e-10
4.1999e-10
1.48639e-06
-8.57277e-07
6.92604e-08
-6.35803e-07
9.51789e-08
-5.12719e-07
1.12253e-07
-4.17677e-07
1.24059e-07
-3.45323e-07
1.27111e-07
-2.88708e-07
1.25864e-07
-2.42123e-07
1.29634e-07
-2.02636e-07
1.28303e-07
-1.70732e-07
1.3098e-07
-1.44434e-07
1.26466e-07
-1.24377e-07
1.24301e-07
-1.08499e-07
1.15726e-07
-9.70194e-08
1.07963e-07
-8.81321e-08
9.72806e-08
-8.14584e-08
8.47488e-08
-7.50137e-08
7.40983e-08
-6.77021e-08
6.33358e-08
-5.92085e-08
5.59023e-08
-4.98124e-08
4.86707e-08
-4.03208e-08
4.23307e-08
-3.12527e-08
3.61245e-08
-2.49685e-08
2.99284e-08
-2.18913e-08
1.52392e-08
-2.01175e-08
6.36663e-09
-1.71813e-08
-3.06663e-09
-1.28573e-08
-7.1789e-09
-6.69314e-09
-6.85559e-09
-8.76828e-10
-5.03135e-09
3.28766e-09
-2.90382e-09
5.51549e-09
-1.19972e-09
6.20583e-09
7.59622e-10
6.12449e-09
3.07271e-09
4.84667e-09
2.57123e-09
-4.67079e-09
4.98956e-09
-1.20239e-08
9.55563e-09
-9.68723e-09
8.17625e-09
-8.62184e-09
2.79254e-09
-6.13766e-09
-2.10728e-09
-4.46139e-09
5.88352e-10
-9.11265e-10
-5.06653e-10
1.09267e-06
-7.45285e-07
4.57306e-08
-4.84748e-07
1.13667e-07
-3.71305e-07
1.28852e-07
-3.01222e-07
1.26583e-07
-2.50884e-07
1.20781e-07
-2.10864e-07
1.18531e-07
-1.77984e-07
1.144e-07
-1.51423e-07
1.11642e-07
-1.29225e-07
1.06654e-07
-1.10565e-07
1.04105e-07
-9.44706e-08
9.89377e-08
-8.0993e-08
9.59572e-08
-6.98711e-08
9.02466e-08
-6.11533e-08
8.36467e-08
-5.41568e-08
7.62165e-08
-4.80034e-08
6.84042e-08
-4.27093e-08
6.1586e-08
-3.74985e-08
5.29477e-08
-3.2762e-08
4.74114e-08
-2.72843e-08
3.88464e-08
-2.19403e-08
3.54338e-08
-1.52056e-08
2.73988e-08
-7.69686e-09
2.58873e-08
2.42609e-10
2.35957e-08
5.81765e-09
1.99042e-08
8.94957e-09
1.66931e-08
9.45971e-09
1.1524e-08
8.42567e-09
6.81808e-09
7.26971e-09
3.43634e-09
6.40362e-09
1.46927e-09
5.94099e-09
1.23992e-09
5.33866e-09
2.33433e-09
4.95739e-09
1.50019e-09
4.43632e-09
-1.9868e-09
6.91265e-09
-8.33203e-09
6.14424e-09
-1.00093e-08
5.0861e-09
-7.56826e-09
-2.14549e-11
-6.33024e-09
-1.01374e-10
-3.80464e-09
-2.20987e-10
1.51365e-10
-3.98411e-07
3.96032e-07
-3.82138e-07
1.32772e-07
-3.24926e-07
1.45881e-07
-2.8005e-07
1.4538e-07
-2.44507e-07
1.41709e-07
-2.14672e-07
1.3368e-07
-1.89402e-07
1.24766e-07
-1.66989e-07
1.1483e-07
-1.46945e-07
1.06442e-07
-1.28618e-07
9.7181e-08
-1.12359e-07
9.08967e-08
-9.83007e-08
8.26463e-08
-8.71865e-08
7.43466e-08
-7.8123e-08
6.51548e-08
-7.06848e-08
5.67967e-08
-6.42608e-08
4.90136e-08
-5.86414e-08
4.09686e-08
-5.3127e-08
3.49422e-08
-4.73174e-08
2.9204e-08
-4.11193e-08
2.55884e-08
-3.46876e-08
2.23411e-08
-2.83552e-08
1.97025e-08
-2.2353e-08
1.73206e-08
-1.79069e-08
1.50376e-08
-1.53938e-08
7.33733e-09
-1.35337e-08
3.09109e-09
-1.08199e-08
-1.42679e-09
-7.19662e-09
-2.85488e-09
-2.5715e-09
-1.78308e-09
1.43977e-09
-4.98516e-10
3.87851e-09
4.12628e-10
4.68315e-09
5.91886e-10
4.62521e-09
1.28278e-09
4.43493e-09
1.11926e-09
3.16979e-09
2.03372e-09
-5.83374e-09
1.94834e-09
-9.66834e-09
4.16255e-09
-8.23443e-09
2.58436e-09
-7.78042e-09
9.43307e-11
-6.4374e-09
5.47351e-10
-1.13113e-09
-6.4717e-10
-4.22928e-07
3.72707e-07
-3.07827e-07
8.06072e-08
-2.62921e-07
9.42117e-08
-2.2166e-07
1.01942e-07
-1.88356e-07
1.02779e-07
-1.61885e-07
9.83968e-08
-1.39408e-07
9.2846e-08
-1.19083e-07
9.13532e-08
-1.01154e-07
8.77833e-08
-8.66222e-08
8.40861e-08
-7.47058e-08
7.85003e-08
-6.49067e-08
7.34033e-08
-5.66505e-08
6.71917e-08
-4.97276e-08
6.1701e-08
-4.40791e-08
5.56466e-08
-3.95113e-08
4.87158e-08
-3.57513e-08
4.25456e-08
-3.20467e-08
3.65025e-08
-2.87197e-08
3.1883e-08
-2.53003e-08
2.64528e-08
-2.2173e-08
2.3308e-08
-1.85483e-08
1.85732e-08
-1.50284e-08
1.72296e-08
-1.06437e-08
1.30452e-08
-5.68302e-09
1.29682e-08
-2.38137e-10
1.28416e-08
3.93164e-09
1.18256e-08
6.56681e-09
1.11832e-08
7.3278e-09
8.73826e-09
6.61401e-09
5.79799e-09
5.45084e-09
3.02671e-09
4.38169e-09
1.12039e-09
3.28736e-09
5.53595e-10
2.53817e-09
-3.97911e-10
2.02547e-09
-6.72456e-10
1.26681e-09
-3.85532e-09
1.69457e-09
-7.71114e-09
2.18761e-09
-8.4611e-09
1.26759e-09
-7.53395e-09
1.71829e-09
-3.22724e-09
-5.90254e-10
-2.02537e-10
-1.00964e-07
2.85816e-07
-2.11709e-07
9.76495e-08
-1.8905e-07
9.68997e-08
-1.6469e-07
9.34713e-08
-1.43399e-07
8.73777e-08
-1.25495e-07
8.02331e-08
-1.10464e-07
7.2731e-08
-9.78008e-08
6.41651e-08
-8.66872e-08
5.66872e-08
-7.65057e-08
5.07527e-08
-6.71298e-08
4.51371e-08
-5.88618e-08
4.15904e-08
-5.18795e-08
3.70997e-08
-4.66618e-08
3.25123e-08
-4.25888e-08
2.75134e-08
-3.93501e-08
2.30331e-08
-3.65294e-08
1.90337e-08
-3.40043e-08
1.4845e-08
-3.13434e-08
1.20172e-08
-2.83123e-08
9.42516e-09
-2.48451e-08
8.17201e-09
-2.10995e-08
7.3182e-09
-1.73016e-08
6.71578e-09
-1.37134e-08
6.37205e-09
-1.10691e-08
5.66914e-09
-9.52272e-09
1.83604e-09
-8.13382e-09
2.00649e-10
-6.12921e-09
-1.40496e-09
-3.77028e-09
-1.71172e-09
-1.18733e-09
-1.06819e-09
6.18978e-10
-7.68179e-10
1.21257e-09
-1.05151e-09
1.05599e-09
-1.36184e-09
9.00015e-10
-1.85063e-09
7.96707e-10
-1.90279e-09
2.70064e-11
-1.00346e-09
-5.36046e-09
-1.16253e-10
-7.0794e-09
1.58574e-09
-7.16248e-09
2.80741e-09
-5.12919e-09
4.18342e-10
-1.28486e-09
-6.51746e-10
-3.31223e-08
3.44074e-07
-1.07573e-07
8.97501e-08
-1.02448e-07
7.45241e-08
-9.58744e-08
6.35119e-08
-8.87922e-08
5.40758e-08
-8.11001e-08
4.77255e-08
-7.26349e-08
4.27887e-08
-6.36474e-08
3.95868e-08
-5.44093e-08
3.96024e-08
-4.57737e-08
3.87752e-08
-3.86529e-08
3.79562e-08
-3.29146e-08
3.58926e-08
-2.83946e-08
3.37182e-08
-2.47564e-08
3.08375e-08
-2.17768e-08
2.82247e-08
-1.94527e-08
2.53404e-08
-1.76465e-08
2.17213e-08
-1.61653e-08
1.8668e-08
-1.45333e-08
1.58066e-08
-1.30247e-08
1.37736e-08
-1.14228e-08
1.12057e-08
-9.95073e-09
9.90385e-09
-8.10862e-09
7.9101e-09
-6.2935e-09
7.74349e-09
-4.03681e-09
5.86123e-09
-1.41054e-09
6.30311e-09
1.40463e-09
6.82052e-09
3.28986e-09
6.28029e-09
3.98621e-09
5.70291e-09
3.3758e-09
3.56886e-09
1.94351e-09
9.41162e-10
7.41987e-10
-1.01107e-09
-1.57871e-10
-1.94221e-09
-6.65292e-10
-2.56839e-09
-5.68906e-10
-3.16103e-09
-2.02853e-10
-1.67837e-09
-5.06528e-10
-3.10356e-09
1.71387e-10
-5.94336e-09
3.13066e-09
-6.17562e-09
1.42298e-09
-3.02119e-09
-1.00947e-09
-8.02968e-10
-4.14764e-08
1.83868e-07
-8.81973e-08
5.78137e-08
-8.39857e-08
4.96013e-08
-7.81784e-08
4.26586e-08
-7.1973e-08
3.72079e-08
-6.54646e-08
3.24624e-08
-5.89768e-08
2.94711e-08
-5.32272e-08
2.63201e-08
-4.87161e-08
2.05212e-08
-4.46956e-08
1.61193e-08
-4.02242e-08
1.28716e-08
-3.56389e-08
1.05781e-08
-3.13396e-08
8.86922e-09
-2.76557e-08
7.29982e-09
-2.47363e-08
5.34294e-09
-2.23372e-08
3.68482e-09
-2.02469e-08
2.39889e-09
-1.83977e-08
1.44848e-09
-1.68354e-08
2.10161e-10
-1.53523e-08
-3.9516e-10
-1.3816e-08
-1.03844e-09
-1.20945e-08
-1.13598e-09
-1.02519e-08
-5.7899e-10
-8.4411e-09
-4.80235e-10
-6.95138e-09
1.42209e-10
-6.24625e-09
-9.76829e-11
-6.5064e-09
-2.48716e-09
-6.87192e-09
-3.78326e-09
-6.72734e-09
-5.11364e-09
-6.01269e-09
-5.577e-09
-4.73978e-09
-4.9868e-09
-3.67257e-09
-4.49318e-09
-2.91635e-09
-4.11266e-09
-2.07077e-09
-3.70637e-09
-1.21559e-09
-3.84034e-09
-5.34174e-10
-1.74889e-09
-6.86626e-10
-9.40548e-10
-4.03278e-09
2.71433e-09
-5.70029e-09
1.32025e-09
-4.48517e-09
-1.53178e-09
-2.07395e-09
-8.51694e-10
5.59419e-09
1.53579e-07
-1.9442e-08
2.38686e-08
-2.54956e-08
1.58858e-08
-2.58706e-08
1.27083e-08
-2.44405e-08
1.11055e-08
-2.25208e-08
9.23991e-09
-2.03645e-08
8.3065e-09
-1.77829e-08
7.66377e-09
-1.49475e-08
7.55604e-09
-1.19715e-08
8.59145e-09
-9.28066e-09
8.99769e-09
-7.27604e-09
9.22143e-09
-5.99413e-09
8.55873e-09
-5.38578e-09
7.40217e-09
-5.30529e-09
5.81531e-09
-5.54967e-09
3.91215e-09
-6.00952e-09
2.01807e-09
-6.49521e-09
2.06611e-10
-7.01873e-09
-1.44685e-09
-7.46486e-09
-2.71236e-09
-7.92652e-09
-3.77332e-09
-8.29043e-09
-4.7441e-09
-8.55938e-09
-5.12929e-09
-8.47086e-09
-5.70779e-09
-8.16617e-09
-5.13064e-09
-7.38581e-09
-5.69382e-09
-6.00902e-09
-4.5471e-09
-4.27128e-09
-3.10849e-09
-2.90718e-09
-2.53481e-09
-2.258e-09
-1.89692e-09
-2.25129e-09
-2.49645e-09
-2.40964e-09
-3.04111e-09
-2.31028e-09
-3.01659e-09
-2.06032e-09
-2.7424e-09
-1.65161e-09
-3.427e-09
-1.45221e-09
-2.38261e-09
-5.31615e-10
-1.86677e-09
1.67728e-09
-3.63096e-09
-2.26141e-11
-4.36662e-09
-2.02565e-09
-2.36052e-09
-1.28313e-09
-3.0118e-10
4.18608e-09
4.2693e-08
1.15639e-08
2.32074e-09
2.59314e-09
-8.58674e-09
-2.26185e-09
-1.50406e-08
-5.01918e-09
-1.80971e-08
-6.4709e-09
-1.93013e-08
-7.35555e-09
-1.96985e-08
-8.08071e-09
-1.9286e-08
-8.73731e-09
-1.9364e-08
-9.55327e-09
-1.85684e-08
-1.06406e-08
-1.91538e-08
-1.23709e-08
-1.99751e-08
-1.46154e-08
-2.18046e-08
-1.73043e-08
-2.45212e-08
-2.00025e-08
-2.67957e-08
-2.22563e-08
-2.90601e-08
-2.38513e-08
-2.99178e-08
-2.45327e-08
-3.01771e-08
-2.43148e-08
-2.89813e-08
-2.31959e-08
-2.68826e-08
-2.135e-08
-2.40716e-08
-1.90421e-08
-2.05513e-08
-1.64663e-08
-1.73932e-08
-1.40017e-08
-1.37589e-08
-1.17758e-08
-1.14924e-08
-1.01229e-08
-8.87358e-09
-9.35802e-09
-7.98061e-09
-9.35315e-09
-8.55109e-09
-9.40779e-09
-8.56874e-09
-8.79851e-09
-8.46493e-09
-7.49753e-09
-7.19115e-09
-5.77431e-09
-5.46111e-09
-4.15219e-09
-4.02729e-09
-2.72447e-09
-2.91475e-09
-1.98895e-09
-3.34409e-09
-1.61293e-09
-1.53434e-09
-9.73695e-10
-4.76015e-10
-1.41633e-09
-9.67511e-10
-2.21773e-09
-1.35911e-09
-1.21287e-09
-6.64168e-10
-2.43616e-10
-4.08569e-16
)
;

boundaryField
{
    inlet
    {
        type            extrapolatedCalculated;
        value           nonuniform List<scalar> 
23
(
-3.348e-08
-4.99755e-09
-6.7695e-09
-2.14541e-09
-3.84344e-09
-6.53852e-10
-2.21235e-09
2.02835e-10
-1.37276e-09
4.67152e-10
-8.18886e-10
6.25774e-10
-5.25534e-10
4.1999e-10
-5.06653e-10
1.51365e-10
-6.4717e-10
-2.02537e-10
-6.51746e-10
-8.02968e-10
-8.51694e-10
-3.0118e-10
-4.08569e-16
)
;
    }
    outlet
    {
        type            extrapolatedCalculated;
        value           nonuniform List<scalar> 
82
(
4.18608e-09
1.15639e-08
4.2693e-08
2.32074e-09
2.59314e-09
-8.58674e-09
-2.26185e-09
-1.50406e-08
-5.01918e-09
-1.80971e-08
-6.4709e-09
-1.93013e-08
-7.35555e-09
-1.96985e-08
-8.08071e-09
-1.9286e-08
-8.73731e-09
-1.9364e-08
-9.55327e-09
-1.85684e-08
-1.06406e-08
-1.91538e-08
-1.23709e-08
-1.99751e-08
-1.46154e-08
-2.18046e-08
-1.73043e-08
-2.45212e-08
-2.00025e-08
-2.67957e-08
-2.22563e-08
-2.90601e-08
-2.38513e-08
-2.99178e-08
-2.45327e-08
-3.01771e-08
-2.43148e-08
-2.89813e-08
-2.31959e-08
-2.68826e-08
-2.135e-08
-2.40716e-08
-1.90421e-08
-2.05513e-08
-1.64663e-08
-1.73932e-08
-1.40017e-08
-1.37589e-08
-1.17758e-08
-1.14924e-08
-1.01229e-08
-8.87358e-09
-9.35802e-09
-7.98061e-09
-9.35315e-09
-8.55109e-09
-9.40779e-09
-8.56874e-09
-8.79851e-09
-8.46493e-09
-7.49753e-09
-7.19115e-09
-5.77431e-09
-5.46111e-09
-4.15219e-09
-4.02729e-09
-2.72447e-09
-2.91475e-09
-1.98895e-09
-3.34409e-09
-1.61293e-09
-1.53434e-09
-9.73695e-10
-4.76015e-10
-1.41633e-09
-9.67511e-10
-2.21773e-09
-1.35911e-09
-1.21287e-09
-6.64168e-10
-2.43616e-10
-4.08569e-16
)
;
    }
    walls
    {
        type            extrapolatedCalculated;
        value           nonuniform List<scalar> 0();
    }
    frontAndBack
    {
        type            empty;
    }
    procBoundary3to2
    {
        type            processor;
        value           nonuniform List<scalar> 
88
(
-2.52455e-09
-5.37534e-09
5.07927e-09
2.32007e-09
2.32007e-09
2.69893e-09
5.84477e-09
5.84477e-09
1.39414e-08
8.07396e-09
1.16181e-08
1.16181e-08
2.50157e-08
7.17917e-09
1.13698e-09
-5.84448e-10
1.97234e-08
1.97234e-08
1.63701e-08
-1.3255e-08
-3.62025e-09
-1.95872e-08
2.26748e-08
2.26748e-08
-3.42659e-09
7.58729e-09
5.82477e-09
5.44545e-09
2.23189e-08
-3.31281e-08
2.91472e-08
2.91472e-08
-7.90827e-08
-1.99812e-08
-6.31677e-08
-7.57594e-09
-4.29244e-08
-5.89857e-09
-3.21058e-08
-5.17964e-09
-2.08826e-08
-8.07719e-09
-1.21025e-08
-5.26403e-09
-5.26403e-09
2.13205e-06
-2.16093e-06
-6.28828e-07
-1.34446e-06
-3.30476e-07
-1.01063e-06
-2.56269e-07
-8.44392e-07
-2.2541e-07
-7.48039e-07
-2.17805e-07
-6.89973e-07
-2.0267e-07
-6.44256e-07
-1.89007e-07
-6.0344e-07
-1.58285e-07
-5.59286e-07
-1.27079e-07
-5.15419e-07
-1.03517e-07
-4.66394e-07
-7.52686e-08
-4.14209e-07
-5.81884e-08
-3.56663e-07
-4.42073e-08
-2.95816e-07
-2.40209e-08
-2.49385e-07
-2.60531e-08
-2.17443e-07
-8.26974e-08
-1.83869e-07
-9.05036e-08
-1.37942e-07
-1.00026e-07
-8.83238e-08
-7.06529e-08
-6.5704e-08
-5.70343e-08
-4.49621e-08
-4.49621e-08
)
;
    }
    procBoundary3to6
    {
        type            processor;
        value           uniform -5.16018e-06;
    }
    procBoundary3to7
    {
        type            processor;
        value           nonuniform List<scalar> 
16
(
-1.11524e-06
-2.11643e-06
-2.11657e-06
-1.62394e-06
-9.81313e-07
-1.11838e-06
-1.10909e-06
-1.47941e-06
-1.47941e-06
-5.28908e-07
-5.05056e-07
-1.5159e-07
-1.14661e-07
-7.33294e-08
-1.39961e-08
-1.84013e-08
)
;
    }
}


// ************************************************************************* //
