/*--------------------------------*- C++ -*----------------------------------*\
| =========                 |                                                 |
| \\      /  F ield         | OpenFOAM: The Open Source CFD Toolbox           |
|  \\    /   O peration     | Version:  2306                                  |
|   \\  /    A nd           | Website:  www.openfoam.com                      |
|    \\/     M anipulation  |                                                 |
\*---------------------------------------------------------------------------*/
FoamFile
{
    version     2.0;
    format      ascii;
    arch        "LSB;label=32;scalar=64";
    class       volVectorField;
    location    "425";
    object      momentError;
}
// * * * * * * * * * * * * * * * * * * * * * * * * * * * * * * * * * * * * * //

dimensions      [0 1 -2 0 0 0 0];

internalField   nonuniform List<vector> 
1340
(
(1.0669e-07 -5.46175e-07 6.04176e-16)
(1.17241e-07 -6.26263e-07 -1.95205e-15)
(1.44028e-07 -6.54019e-07 5.94279e-15)
(1.14849e-07 -6.2665e-07 7.899e-16)
(9.66026e-08 -5.22158e-07 1.19894e-15)
(2.0578e-07 -5.97646e-07 2.79419e-15)
(2.05294e-07 -6.50688e-07 9.75795e-17)
(1.90198e-07 -6.22005e-07 6.32709e-16)
(1.60938e-07 -6.0466e-07 7.02405e-16)
(1.36002e-07 -6.08893e-07 -3.9252e-16)
(9.17781e-08 -6.26657e-07 -5.39261e-16)
(2.21659e-07 -5.97192e-07 3.05653e-15)
(3.16741e-07 -9.80589e-07 -1.32701e-15)
(2.72834e-07 -8.4692e-07 2.76906e-15)
(2.20894e-07 -7.46136e-07 8.46647e-18)
(1.8739e-07 -6.07287e-07 1.6836e-18)
(2.18576e-07 -6.01935e-07 1.20545e-15)
(1.82047e-07 -6.89562e-07 -4.17097e-15)
(1.50011e-07 -6.478e-07 -2.20926e-15)
(1.23945e-07 -5.77027e-07 1.56422e-17)
(1.64851e-07 -5.92457e-07 -5.43761e-15)
(6.57291e-07 -1.45521e-06 2.16817e-16)
(5.6733e-07 -1.3021e-06 -2.65771e-16)
(4.99355e-07 -1.23371e-06 1.83281e-16)
(4.34366e-07 -1.17922e-06 1.12155e-15)
(3.60687e-07 -1.07092e-06 -4.12129e-16)
(2.96562e-07 -8.85322e-07 2.70045e-15)
(2.55868e-07 -7.71333e-07 -8.21306e-16)
(2.25111e-07 -7.12203e-07 -1.39444e-15)
(2.00079e-07 -7.04846e-07 -1.75778e-17)
(2.32688e-07 -6.57725e-07 -1.83122e-16)
(1.78276e-07 -6.30193e-07 2.71573e-15)
(1.48522e-07 -6.07329e-07 1.51725e-15)
(1.28623e-07 -5.77217e-07 3.03887e-18)
(1.40948e-07 -5.83716e-07 4.394e-16)
(1.66933e-06 -1.28844e-06 -9.60055e-16)
(1.43745e-06 -1.38978e-06 2.21601e-16)
(1.1931e-06 -1.43557e-06 3.47352e-16)
(1.01585e-06 -1.48259e-06 1.11301e-15)
(8.33263e-07 -1.43805e-06 1.02628e-15)
(6.83345e-07 -1.27604e-06 -3.98596e-16)
(5.69607e-07 -1.14636e-06 -6.26355e-16)
(4.92884e-07 -1.08793e-06 -5.66739e-16)
(4.19537e-07 -1.02648e-06 1.68754e-15)
(3.62342e-07 -1.00508e-06 -1.11343e-16)
(3.34517e-07 -1.00798e-06 -6.81547e-16)
(2.92733e-07 -8.72585e-07 8.58156e-16)
(2.52395e-07 -7.54907e-07 -6.31141e-16)
(2.19626e-07 -6.50826e-07 1.51701e-17)
(2.09727e-07 -6.24985e-07 -1.63044e-16)
(1.81536e-07 -6.17654e-07 6.20618e-16)
(1.4985e-07 -5.93357e-07 7.21118e-16)
(1.31228e-07 -5.64289e-07 2.62397e-17)
(1.15612e-07 -5.73283e-07 -2.31074e-16)
(3.49314e-06 -2.66895e-07 4.63402e-16)
(3.21001e-06 -4.55407e-07 8.07156e-16)
(2.95032e-06 -5.57963e-07 9.94066e-16)
(2.70895e-06 -6.19782e-07 -2.56756e-16)
(2.46881e-06 -6.40158e-07 7.71616e-16)
(2.2668e-06 -7.42196e-07 -7.4931e-16)
(2.00676e-06 -8.34811e-07 -2.2897e-15)
(1.75138e-06 -8.10994e-07 -1.15913e-15)
(1.48189e-06 -1.01671e-06 6.27322e-16)
(1.26483e-06 -1.10835e-06 1.01966e-16)
(1.05971e-06 -1.16652e-06 1.45313e-15)
(9.10337e-07 -1.26757e-06 -2.24407e-16)
(8.04236e-07 -1.38982e-06 -5.21469e-17)
(6.73216e-07 -1.30139e-06 8.04798e-17)
(5.84307e-07 -1.24091e-06 -5.61817e-17)
(4.93813e-07 -1.17919e-06 -5.39948e-16)
(4.19308e-07 -1.06552e-06 1.07561e-15)
(3.4653e-07 -9.00884e-07 -9.69775e-16)
(2.9889e-07 -7.88941e-07 1.2337e-16)
(2.5952e-07 -6.99708e-07 1.72682e-15)
(2.2937e-07 -6.40403e-07 -3.73563e-17)
(2.10871e-07 -6.10974e-07 1.70587e-16)
(1.80716e-07 -5.93728e-07 -1.40742e-15)
(1.49694e-07 -5.76247e-07 -1.67632e-15)
(1.27622e-07 -5.55154e-07 -2.11107e-17)
(9.708e-08 -5.61124e-07 6.30172e-16)
(4.43485e-06 4.63268e-06 -2.39409e-16)
(4.4921e-06 4.09009e-06 2.6811e-16)
(4.54181e-06 3.64269e-06 -1.10561e-16)
(4.53772e-06 3.21311e-06 -2.1584e-16)
(4.50833e-06 2.80419e-06 7.03257e-16)
(4.4315e-06 2.40623e-06 -5.63916e-16)
(4.33156e-06 2.02192e-06 9.91814e-17)
(4.19203e-06 1.64797e-06 6.16016e-16)
(4.03255e-06 1.29589e-06 -6.14677e-16)
(3.83299e-06 9.64949e-07 -1.85811e-15)
(3.69765e-06 6.08483e-07 3.37766e-17)
(3.53713e-06 3.0614e-07 -3.54424e-16)
(3.11234e-06 3.52893e-07 3.28141e-16)
(2.87818e-06 1.27255e-07 3.44999e-16)
(2.63289e-06 -5.51953e-08 -1.00426e-16)
(2.45005e-06 -1.32907e-07 -2.2343e-16)
(2.24244e-06 -2.4153e-07 7.12577e-16)
(2.08483e-06 -2.97661e-07 -2.74343e-16)
(1.96158e-06 -5.42098e-07 -4.0047e-16)
(1.93984e-06 -1.00918e-06 3.30262e-16)
(1.69465e-06 -1.10888e-06 -1.00441e-15)
(1.46578e-06 -1.2241e-06 6.39792e-16)
(1.25068e-06 -1.2974e-06 -3.79383e-16)
(1.04721e-06 -1.26983e-06 -5.21305e-16)
(8.3156e-07 -1.13062e-06 2.87798e-16)
(7.0616e-07 -1.06863e-06 2.0157e-16)
(6.08106e-07 -1.04033e-06 4.20728e-16)
(5.23936e-07 -1.00003e-06 -4.56517e-16)
(4.42645e-07 -9.42933e-07 -7.81178e-16)
(3.76184e-07 -8.56547e-07 2.68937e-16)
(3.18553e-07 -7.55811e-07 4.30351e-17)
(2.72253e-07 -6.72641e-07 -1.72225e-16)
(2.37443e-07 -6.12263e-07 1.24171e-17)
(2.10682e-07 -5.90696e-07 -1.38833e-16)
(1.79512e-07 -5.76787e-07 2.83383e-15)
(1.47478e-07 -5.60491e-07 -1.33357e-16)
(1.22026e-07 -5.42304e-07 2.68172e-16)
(8.08226e-08 -5.48645e-07 -9.54523e-17)
(-2.38095e-05 2.29601e-05 -7.58894e-17)
(-2.84762e-05 2.79732e-05 -2.39067e-17)
(-3.02565e-05 2.79269e-05 -2.76962e-18)
(-3.14244e-05 2.77286e-05 -2.61454e-17)
(-3.20788e-05 2.75344e-05 -1.17638e-17)
(-3.22523e-05 2.72368e-05 -8.89271e-18)
(-3.19707e-05 2.69549e-05 2.48383e-17)
(-3.13509e-05 2.66338e-05 6.71999e-17)
(-3.04204e-05 2.62607e-05 -2.89407e-17)
(-2.92701e-05 2.58068e-05 -5.41055e-17)
(-2.79176e-05 2.53122e-05 2.53285e-17)
(-2.64468e-05 2.47788e-05 -5.02816e-17)
(-2.48609e-05 2.42254e-05 -6.09801e-17)
(-2.32377e-05 2.36328e-05 -5.36781e-17)
(-2.15629e-05 2.30104e-05 -1.081e-16)
(-1.99084e-05 2.2367e-05 -1.02428e-17)
(-1.82455e-05 2.16983e-05 -8.98224e-17)
(-1.66438e-05 2.10076e-05 -5.33859e-17)
(-1.50628e-05 2.02859e-05 -1.20516e-16)
(-1.35673e-05 1.95539e-05 -1.00083e-17)
(-1.21106e-05 1.88063e-05 1.40504e-16)
(-1.07561e-05 1.80409e-05 1.41572e-16)
(-9.44817e-06 1.72486e-05 -8.45725e-17)
(-8.25101e-06 1.64592e-05 5.85494e-17)
(-7.1019e-06 1.56725e-05 1.26186e-16)
(-6.06626e-06 1.48807e-05 1.14899e-17)
(-5.07763e-06 1.40808e-05 -1.07144e-16)
(-4.19907e-06 1.32961e-05 -7.39745e-18)
(-3.35926e-06 1.25428e-05 2.56447e-17)
(-2.61904e-06 1.18106e-05 -1.19008e-17)
(-1.91154e-06 1.1091e-05 -9.5214e-17)
(-1.288e-06 1.04077e-05 8.12984e-17)
(-6.84711e-07 9.76721e-06 -2.40956e-16)
(-1.5542e-07 9.12805e-06 -9.33834e-17)
(3.61346e-07 8.54507e-06 1.70034e-16)
(8.215e-07 7.98471e-06 3.12992e-17)
(1.26663e-06 7.46552e-06 2.10376e-17)
(1.66643e-06 6.96497e-06 -3.25513e-17)
(2.0431e-06 6.50391e-06 4.52522e-17)
(2.38508e-06 6.08949e-06 2.55537e-16)
(2.62618e-06 5.69714e-06 -9.4703e-17)
(3.19546e-06 5.28584e-06 2.14522e-18)
(3.79933e-06 4.90259e-06 1.81469e-17)
(3.32168e-06 4.85753e-06 -1.50997e-16)
(3.33494e-06 4.37001e-06 7.08086e-16)
(3.40074e-06 3.96655e-06 1.44935e-17)
(3.4257e-06 3.58068e-06 -6.57194e-16)
(3.44572e-06 3.2052e-06 5.98734e-16)
(3.42072e-06 2.8393e-06 3.82693e-16)
(3.39627e-06 2.48694e-06 -7.98498e-17)
(3.32347e-06 2.13992e-06 9.9115e-18)
(3.25424e-06 1.80634e-06 -6.37457e-16)
(3.13896e-06 1.49101e-06 -1.0041e-15)
(2.98515e-06 1.20096e-06 -6.1004e-17)
(3.03668e-06 7.89778e-07 -2.14372e-16)
(3.31573e-06 1.2424e-07 3.17204e-16)
(3.11043e-06 -7.68489e-08 -7.38462e-17)
(2.89302e-06 -2.42192e-07 -1.43816e-15)
(2.66618e-06 -3.74338e-07 -4.97837e-17)
(2.49046e-06 -4.44716e-07 4.51482e-16)
(2.27085e-06 -5.45666e-07 2.13326e-16)
(2.09822e-06 -5.93687e-07 5.01241e-16)
(1.84298e-06 -5.97457e-07 4.15955e-16)
(1.67616e-06 -7.21491e-07 6.61476e-16)
(1.48244e-06 -8.45204e-07 1.12117e-15)
(1.27868e-06 -9.42046e-07 2.59624e-17)
(1.07894e-06 -9.8049e-07 1.34366e-16)
(8.95974e-07 -9.85205e-07 -1.80602e-16)
(7.59382e-07 -9.42831e-07 -1.64914e-16)
(6.65364e-07 -9.3277e-07 8.42908e-16)
(5.76466e-07 -9.20364e-07 -6.83902e-16)
(4.85995e-07 -8.6556e-07 -4.30268e-17)
(4.0287e-07 -7.86205e-07 -5.8065e-16)
(3.35132e-07 -7.04017e-07 7.62725e-16)
(2.83624e-07 -6.36416e-07 -3.18059e-16)
(2.44373e-07 -5.90196e-07 4.23992e-17)
(2.10519e-07 -5.69129e-07 8.82581e-17)
(1.77014e-07 -5.55014e-07 -1.91253e-15)
(1.43183e-07 -5.46199e-07 7.6145e-16)
(1.14524e-07 -5.31279e-07 1.79979e-16)
(6.8026e-08 -5.34934e-07 6.72515e-18)
(-6.45902e-06 4.94548e-06 -1.36771e-17)
(-1.06905e-05 7.61009e-06 -9.71944e-18)
(-1.39243e-05 8.32108e-06 8.61457e-18)
(-1.67162e-05 8.90037e-06 -1.06451e-18)
(-1.90628e-05 9.54152e-06 -1.19098e-17)
(-2.09505e-05 1.01207e-05 3.78997e-17)
(-2.23745e-05 1.06613e-05 1.29752e-17)
(-2.33856e-05 1.11512e-05 -1.01016e-17)
(-2.39969e-05 1.15598e-05 3.1788e-17)
(-2.42648e-05 1.19039e-05 -4.03377e-18)
(-2.42133e-05 1.2174e-05 3.44895e-17)
(-2.39013e-05 1.24017e-05 5.52028e-17)
(-2.33534e-05 1.25658e-05 -3.68513e-17)
(-2.26267e-05 1.26921e-05 4.6371e-17)
(-2.17377e-05 1.27499e-05 -2.80627e-17)
(-2.07395e-05 1.27828e-05 -9.07735e-17)
(-1.96389e-05 1.27596e-05 -6.60368e-18)
(-1.84847e-05 1.27131e-05 2.18897e-17)
(-1.72763e-05 1.26048e-05 1.85419e-17)
(-1.60557e-05 1.24784e-05 -2.34394e-17)
(-1.48152e-05 1.23064e-05 -1.04074e-17)
(-1.35943e-05 1.21225e-05 -3.38874e-18)
(-1.23784e-05 1.1881e-05 -2.54928e-17)
(-1.12064e-05 1.16268e-05 -4.17419e-17)
(-1.00568e-05 1.13364e-05 1.26979e-17)
(-8.96639e-06 1.1041e-05 5.61213e-17)
(-7.91165e-06 1.06909e-05 -4.90646e-17)
(-6.92962e-06 1.03327e-05 4.72288e-17)
(-5.9893e-06 9.94559e-06 -2.22807e-17)
(-5.12382e-06 9.5649e-06 4.6195e-17)
(-4.30296e-06 9.13484e-06 -1.09868e-16)
(-3.56253e-06 8.71616e-06 -1.16781e-16)
(-2.86149e-06 8.28793e-06 -8.71464e-18)
(-2.23368e-06 7.87239e-06 -1.98042e-16)
(-1.6496e-06 7.41536e-06 -2.3722e-17)
(-1.12635e-06 6.99886e-06 8.08299e-17)
(-6.4196e-07 6.57382e-06 3.9805e-17)
(-2.10742e-07 6.19682e-06 3.12094e-17)
(1.91164e-07 5.82014e-06 6.15683e-17)
(5.51536e-07 5.4733e-06 1.89223e-16)
(8.48308e-07 5.15456e-06 -1.58071e-17)
(9.88117e-07 4.84738e-06 -1.31151e-16)
(1.65064e-06 4.49331e-06 1.17846e-16)
(3.03293e-06 3.94288e-06 -2.6577e-16)
(3.24613e-06 3.61822e-06 -4.51898e-16)
(3.35999e-06 3.2667e-06 2.55262e-17)
(3.44309e-06 2.92612e-06 1.98754e-16)
(3.49514e-06 2.60109e-06 -2.89517e-16)
(3.51598e-06 2.27904e-06 2.64895e-16)
(3.5127e-06 1.96971e-06 1.16688e-16)
(3.4782e-06 1.66997e-06 2.15968e-16)
(3.42483e-06 1.38328e-06 4.97919e-16)
(3.33667e-06 1.11062e-06 5.40853e-16)
(3.21576e-06 8.61271e-07 -2.29364e-17)
(3.00046e-06 6.53172e-07 -4.91985e-17)
(2.70415e-06 5.71176e-07 1.6645e-16)
(2.58325e-06 3.78064e-07 1.84738e-16)
(2.47249e-06 2.09901e-07 1.12637e-15)
(2.33007e-06 7.01778e-08 1.56581e-17)
(2.21206e-06 -5.3403e-08 -1.05767e-15)
(2.08259e-06 -1.51439e-07 1.09738e-16)
(1.95738e-06 -2.79856e-07 -5.13534e-16)
(1.8355e-06 -4.07653e-07 -2.63677e-16)
(1.67592e-06 -5.21107e-07 9.39312e-19)
(1.50387e-06 -6.32268e-07 -9.20626e-16)
(1.3234e-06 -7.37568e-07 1.03939e-16)
(1.12664e-06 -7.94808e-07 5.71387e-17)
(9.54797e-07 -7.91325e-07 -1.02323e-17)
(8.13021e-07 -7.99242e-07 1.32811e-16)
(7.28009e-07 -8.12673e-07 -4.40645e-16)
(6.23911e-07 -8.00562e-07 2.13085e-16)
(5.27155e-07 -7.65413e-07 1.085e-16)
(4.31755e-07 -7.10317e-07 4.22951e-17)
(3.52159e-07 -6.49877e-07 -1.82658e-15)
(2.95188e-07 -5.97752e-07 -5.39291e-16)
(2.49305e-07 -5.57436e-07 -1.50449e-17)
(2.09835e-07 -5.46461e-07 3.64594e-17)
(1.73003e-07 -5.38432e-07 -1.43926e-15)
(1.38574e-07 -5.30838e-07 4.97131e-16)
(1.06488e-07 -5.17034e-07 -4.05481e-16)
(5.78095e-08 -5.2111e-07 1.0739e-17)
(9.61092e-06 -8.72469e-06 -1.24917e-17)
(7.21383e-06 -8.26966e-06 -5.1068e-18)
(4.24959e-06 -7.94795e-06 1.23588e-17)
(1.35245e-06 -7.54413e-06 8.18471e-18)
(-1.41819e-06 -6.92086e-06 -3.79428e-18)
(-3.9773e-06 -6.23282e-06 -3.65686e-18)
(-6.28491e-06 -5.48645e-06 1.39249e-17)
(-8.29806e-06 -4.70498e-06 -1.00189e-17)
(-1.00092e-05 -3.91077e-06 -3.1336e-18)
(-1.14046e-05 -3.12382e-06 1.54858e-17)
(-1.2504e-05 -2.35949e-06 -1.89749e-18)
(-1.33094e-05 -1.61177e-06 2.2828e-17)
(-1.38569e-05 -8.98464e-07 2.06495e-17)
(-1.41566e-05 -2.22489e-07 -1.27978e-17)
(-1.42505e-05 4.02083e-07 3.66101e-17)
(-1.41495e-05 9.87452e-07 -1.04071e-17)
(-1.38963e-05 1.52259e-06 -2.52491e-17)
(-1.34991e-05 2.01866e-06 3.12037e-17)
(-1.2999e-05 2.46419e-06 1.5871e-17)
(-1.23984e-05 2.87332e-06 2.34953e-18)
(-1.17352e-05 3.23481e-06 -9.7389e-18)
(-1.10073e-05 3.56907e-06 -6.9246e-17)
(-1.02483e-05 3.86313e-06 3.68126e-18)
(-9.45369e-06 4.1307e-06 -3.64915e-17)
(-8.65297e-06 4.35412e-06 -1.08955e-17)
(-7.83736e-06 4.56123e-06 1.85238e-17)
(-7.0341e-06 4.73523e-06 3.5209e-17)
(-6.23436e-06 4.88505e-06 3.4093e-18)
(-5.46113e-06 4.98397e-06 8.41974e-18)
(-4.70245e-06 5.06568e-06 -1.09538e-17)
(-3.98028e-06 5.11632e-06 2.80931e-17)
(-3.28643e-06 5.1364e-06 -5.90506e-17)
(-2.63571e-06 5.09958e-06 -1.40992e-17)
(-2.01672e-06 5.06109e-06 3.8777e-17)
(-1.44571e-06 4.96727e-06 -1.15762e-16)
(-9.19541e-07 4.85195e-06 -6.01309e-17)
(-4.38476e-07 4.70201e-06 2.07931e-17)
(-3.47754e-09 4.54231e-06 -1.70291e-17)
(3.94711e-07 4.34289e-06 -3.33269e-17)
(7.52323e-07 4.14096e-06 -5.14316e-17)
(1.04408e-06 3.91597e-06 3.91573e-17)
(1.22688e-06 3.68344e-06 -4.01229e-17)
(1.35195e-06 3.39819e-06 -1.14841e-16)
(1.17556e-06 3.19778e-06 4.64847e-17)
(1.42826e-06 2.99768e-06 -2.38341e-16)
(1.64224e-06 2.80144e-06 3.17681e-19)
(1.83736e-06 2.59621e-06 1.47439e-17)
(1.99599e-06 2.38845e-06 1.70963e-16)
(2.13753e-06 2.17437e-06 -3.3361e-16)
(2.241e-06 1.96069e-06 1.43872e-19)
(2.329e-06 1.74591e-06 3.58324e-16)
(2.37907e-06 1.53038e-06 -1.18636e-16)
(2.41534e-06 1.31782e-06 4.96312e-16)
(2.39538e-06 1.10811e-06 2.98446e-17)
(2.39244e-06 8.94642e-07 -6.5245e-17)
(2.37607e-06 6.81624e-07 -6.43329e-17)
(2.32044e-06 5.14716e-07 -4.20688e-18)
(2.23546e-06 3.55428e-07 -6.34333e-16)
(2.15376e-06 2.14607e-07 2.19445e-16)
(2.05678e-06 8.78565e-08 6.07055e-16)
(1.96193e-06 -2.03691e-08 -1.34387e-16)
(1.8569e-06 -1.24308e-07 1.00789e-15)
(1.74057e-06 -2.23752e-07 1.48845e-17)
(1.61738e-06 -3.18894e-07 -1.84764e-16)
(1.48273e-06 -4.36136e-07 -2.21795e-16)
(1.32679e-06 -5.2681e-07 -2.70728e-16)
(1.16063e-06 -5.88484e-07 5.21063e-16)
(9.9288e-07 -6.3587e-07 1.23186e-16)
(8.73919e-07 -6.48558e-07 2.62855e-16)
(7.65678e-07 -6.77026e-07 -4.81884e-16)
(6.6691e-07 -6.79164e-07 1.51512e-16)
(5.54913e-07 -6.59931e-07 -1.1231e-16)
(4.5123e-07 -6.19621e-07 -1.171e-15)
(3.70945e-07 -5.84441e-07 -3.83443e-16)
(3.06605e-07 -5.53989e-07 1.39203e-16)
(2.54513e-07 -5.28536e-07 9.83185e-18)
(2.07074e-07 -5.21018e-07 1.81974e-16)
(1.6818e-07 -5.15696e-07 2.68096e-16)
(1.34882e-07 -5.16064e-07 -8.99733e-16)
(9.9405e-08 -5.04272e-07 -2.02937e-16)
(5.0114e-08 -5.06119e-07 -5.13722e-16)
(1.62753e-05 -1.5327e-05 6.81336e-18)
(1.62917e-05 -1.4891e-05 -2.02383e-18)
(1.49736e-05 -1.44715e-05 -9.00849e-18)
(1.3292e-05 -1.40739e-05 -2.63982e-18)
(1.13587e-05 -1.35516e-05 5.94449e-18)
(9.27448e-06 -1.29573e-05 -2.58416e-19)
(7.13709e-06 -1.22998e-05 -4.5032e-18)
(5.02594e-06 -1.15737e-05 1.85887e-18)
(3.00535e-06 -1.07866e-05 -2.0158e-17)
(1.12376e-06 -9.96069e-06 -1.31691e-17)
(-5.85683e-07 -9.11581e-06 -1.01649e-17)
(-2.10147e-06 -8.26069e-06 -1.96619e-18)
(-3.41291e-06 -7.406e-06 2.68123e-17)
(-4.5175e-06 -6.56715e-06 -7.72909e-18)
(-5.42199e-06 -5.75702e-06 -3.10191e-17)
(-6.13486e-06 -4.97771e-06 1.47798e-17)
(-6.67153e-06 -4.23564e-06 -1.00221e-17)
(-7.04524e-06 -3.53188e-06 -4.74046e-17)
(-7.27588e-06 -2.87373e-06 -6.82348e-18)
(-7.37704e-06 -2.25371e-06 -5.62856e-19)
(-7.36931e-06 -1.67918e-06 4.05251e-17)
(-7.2646e-06 -1.14119e-06 5.2612e-17)
(-7.08169e-06 -6.47869e-07 5.02296e-18)
(-6.82998e-06 -1.84915e-07 1.90137e-17)
(-6.52646e-06 2.35782e-07 -3.24897e-19)
(-6.17753e-06 6.27926e-07 3.36085e-17)
(-5.79693e-06 9.81861e-07 -1.49559e-17)
(-5.38844e-06 1.31392e-06 -3.48622e-18)
(-4.96453e-06 1.60328e-06 -2.17748e-18)
(-4.52759e-06 1.86863e-06 7.36815e-18)
(-4.08792e-06 2.09491e-06 -2.85189e-18)
(-3.64522e-06 2.30906e-06 2.88834e-17)
(-3.20962e-06 2.47469e-06 -3.88652e-19)
(-2.78167e-06 2.61386e-06 8.22991e-19)
(-2.36565e-06 2.73844e-06 2.12032e-17)
(-1.9634e-06 2.84424e-06 7.08653e-17)
(-1.57814e-06 2.89819e-06 -4.42133e-17)
(-1.21086e-06 2.93505e-06 -2.93845e-18)
(-8.60718e-07 2.93849e-06 4.89765e-17)
(-5.28352e-07 2.91346e-06 4.60831e-18)
(-2.2981e-07 2.84478e-06 -8.50578e-17)
(-2.7602e-09 2.75335e-06 3.69075e-17)
(3.00088e-07 2.61783e-06 7.77286e-17)
(6.39357e-07 2.51112e-06 2.01301e-16)
(8.82667e-07 2.39129e-06 2.1184e-16)
(1.09596e-06 2.26965e-06 4.92787e-17)
(1.29264e-06 2.13116e-06 -7.55828e-18)
(1.46668e-06 1.99103e-06 -1.04033e-16)
(1.62202e-06 1.84128e-06 1.19911e-16)
(1.75321e-06 1.69116e-06 -5.44698e-17)
(1.86421e-06 1.53536e-06 -2.7736e-16)
(1.95103e-06 1.37985e-06 -1.76934e-16)
(2.016e-06 1.22204e-06 -7.99189e-17)
(2.0432e-06 1.06763e-06 -4.7942e-17)
(2.04978e-06 9.101e-07 4.23705e-17)
(2.03667e-06 7.61347e-07 -4.06182e-16)
(2.01403e-06 6.15704e-07 -1.92448e-16)
(1.97745e-06 4.74755e-07 -2.25971e-16)
(1.92566e-06 3.44246e-07 -5.5279e-16)
(1.86607e-06 2.22274e-07 1.25388e-16)
(1.79468e-06 1.16021e-07 -1.40617e-16)
(1.71662e-06 1.38625e-08 -5.43822e-16)
(1.63078e-06 -7.83714e-08 5.71101e-16)
(1.53355e-06 -1.76961e-07 7.14523e-16)
(1.42867e-06 -2.61573e-07 -1.12852e-16)
(1.29165e-06 -3.52352e-07 -3.32983e-16)
(1.15686e-06 -4.16522e-07 -7.97743e-18)
(1.00431e-06 -4.68203e-07 -6.46351e-17)
(8.80749e-07 -5.07091e-07 1.59065e-16)
(7.85065e-07 -5.36975e-07 1.27655e-16)
(6.7574e-07 -5.4978e-07 1.04692e-16)
(5.67669e-07 -5.35313e-07 3.01818e-16)
(4.72193e-07 -5.2968e-07 5.753e-16)
(3.93703e-07 -5.17388e-07 2.44252e-16)
(3.22122e-07 -5.00378e-07 5.51215e-17)
(2.58973e-07 -4.83652e-07 -1.39368e-16)
(2.08628e-07 -4.90279e-07 -9.72109e-16)
(1.66616e-07 -4.97187e-07 4.2628e-16)
(1.32028e-07 -4.98242e-07 4.60117e-16)
(9.31445e-08 -4.85962e-07 6.1258e-16)
(4.32324e-08 -4.90036e-07 1.88946e-15)
(1.19444e-05 -1.51335e-05 4.92302e-19)
(1.41435e-05 -1.50489e-05 1.82253e-18)
(1.50722e-05 -1.48913e-05 6.03163e-18)
(1.53715e-05 -1.45965e-05 1.81877e-18)
(1.51587e-05 -1.42096e-05 -3.24239e-18)
(1.45129e-05 -1.37293e-05 -1.44193e-18)
(1.35289e-05 -1.31855e-05 -2.46225e-19)
(1.22968e-05 -1.2581e-05 -6.65852e-20)
(1.08968e-05 -1.1932e-05 3.03904e-20)
(9.40325e-06 -1.12367e-05 -8.03742e-18)
(7.87772e-06 -1.05124e-05 9.6842e-18)
(6.37166e-06 -9.77029e-06 -7.07687e-18)
(4.92505e-06 -9.02553e-06 -1.72595e-17)
(3.57005e-06 -8.27441e-06 -1.03235e-17)
(2.32555e-06 -7.52874e-06 -3.77209e-18)
(1.20749e-06 -6.797e-06 3.2742e-18)
(2.19856e-07 -6.08982e-06 1.41365e-18)
(-6.32532e-07 -5.40474e-06 -1.21919e-17)
(-1.35604e-06 -4.74991e-06 -1.80753e-17)
(-1.95259e-06 -4.12718e-06 -4.89525e-18)
(-2.43406e-06 -3.54175e-06 3.11629e-18)
(-2.80537e-06 -2.99066e-06 1.95865e-17)
(-3.08098e-06 -2.47896e-06 -2.73346e-17)
(-3.26649e-06 -2.00183e-06 6.02814e-18)
(-3.37638e-06 -1.55948e-06 -2.2357e-17)
(-3.41504e-06 -1.1457e-06 1.23662e-17)
(-3.39699e-06 -7.65517e-07 3.37534e-17)
(-3.32474e-06 -4.10071e-07 -2.59935e-17)
(-3.21095e-06 -8.10933e-08 -4.72187e-17)
(-3.05734e-06 2.26957e-07 -1.33376e-17)
(-2.87628e-06 5.07676e-07 9.92063e-17)
(-2.66857e-06 7.66763e-07 6.59199e-17)
(-2.44232e-06 1.00383e-06 5.49403e-17)
(-2.20051e-06 1.22134e-06 -4.93356e-19)
(-1.95068e-06 1.39253e-06 -5.80113e-17)
(-1.69061e-06 1.54673e-06 -6.4255e-17)
(-1.42866e-06 1.66382e-06 4.87756e-17)
(-1.16637e-06 1.7558e-06 -2.02056e-17)
(-9.06747e-07 1.81559e-06 -6.40208e-17)
(-6.45639e-07 1.86451e-06 4.97857e-17)
(-4.01542e-07 1.87328e-06 -1.32365e-17)
(-2.0304e-07 1.86105e-06 2.98574e-19)
(1.66239e-08 1.82185e-06 -3.83451e-17)
(2.17768e-07 1.7872e-06 3.23598e-18)
(4.21408e-07 1.73676e-06 -1.72666e-16)
(6.11477e-07 1.67857e-06 -1.14766e-16)
(7.90488e-07 1.60256e-06 -2.42464e-17)
(9.53281e-07 1.52578e-06 -2.30156e-16)
(1.10187e-06 1.43772e-06 -1.81431e-16)
(1.23156e-06 1.34988e-06 -5.94146e-17)
(1.34462e-06 1.25295e-06 -1.63983e-16)
(1.43749e-06 1.15585e-06 1.18346e-16)
(1.51393e-06 1.05298e-06 -3.20083e-16)
(1.56134e-06 9.51e-07 -4.52487e-17)
(1.59472e-06 8.39764e-07 2.14039e-16)
(1.61267e-06 7.27011e-07 4.19957e-17)
(1.61476e-06 6.15552e-07 -1.03336e-16)
(1.60227e-06 5.00788e-07 9.20893e-16)
(1.57688e-06 3.90836e-07 5.36292e-17)
(1.54182e-06 2.84835e-07 -7.88562e-16)
(1.49527e-06 1.88786e-07 1.93106e-16)
(1.44116e-06 9.7375e-08 -6.62625e-16)
(1.37838e-06 1.25353e-08 -3.64856e-17)
(1.31103e-06 -6.35997e-08 8.00438e-17)
(1.22492e-06 -1.43727e-07 -1.72251e-15)
(1.13499e-06 -2.07956e-07 4.28745e-17)
(1.01469e-06 -2.69342e-07 7.87268e-17)
(9.05343e-07 -3.25278e-07 -2.46901e-16)
(7.98758e-07 -3.72522e-07 3.22967e-16)
(7.10356e-07 -4.01923e-07 -2.28349e-17)
(6.20654e-07 -4.14147e-07 1.06674e-16)
(5.32339e-07 -4.30796e-07 -7.12146e-16)
(4.57309e-07 -4.33059e-07 -6.83215e-16)
(3.78639e-07 -4.34415e-07 6.13201e-17)
(3.13552e-07 -4.29451e-07 -5.03103e-17)
(2.51558e-07 -4.32236e-07 1.24005e-16)
(2.06089e-07 -4.4721e-07 -6.68403e-16)
(1.60624e-07 -4.58743e-07 8.53177e-17)
(1.22674e-07 -4.71107e-07 -6.87663e-16)
(8.12403e-08 -4.60601e-07 -8.15957e-17)
(3.39275e-08 -4.65906e-07 1.4542e-15)
(-1.25182e-06 -7.84467e-06 2.71319e-18)
(1.86121e-06 -7.80418e-06 4.04507e-18)
(4.51856e-06 -7.80692e-06 -1.01339e-18)
(6.61e-06 -7.72155e-06 1.98563e-18)
(8.1966e-06 -7.58885e-06 1.75265e-18)
(9.29056e-06 -7.40032e-06 -1.57959e-17)
(9.93959e-06 -7.16894e-06 -9.37344e-18)
(1.01918e-05 -6.90593e-06 -3.43138e-18)
(1.01073e-05 -6.60879e-06 -1.05412e-18)
(9.74919e-06 -6.29128e-06 4.02973e-18)
(9.17447e-06 -5.94537e-06 -9.10993e-18)
(8.4423e-06 -5.58651e-06 1.24143e-17)
(7.6043e-06 -5.21594e-06 2.1375e-18)
(6.70483e-06 -4.84389e-06 7.63861e-18)
(5.78336e-06 -4.46443e-06 1.90276e-17)
(4.8714e-06 -4.08798e-06 1.71568e-17)
(3.99342e-06 -3.71623e-06 1.49338e-17)
(3.16741e-06 -3.35227e-06 5.83702e-18)
(2.40756e-06 -2.99652e-06 2.60891e-17)
(1.7206e-06 -2.65212e-06 -1.29569e-17)
(1.11167e-06 -2.32129e-06 -3.83753e-17)
(5.81261e-07 -2.00581e-06 -8.38632e-18)
(1.28028e-07 -1.70618e-06 -2.42051e-18)
(-2.51354e-07 -1.42206e-06 -1.11156e-17)
(-5.61708e-07 -1.15728e-06 -8.53564e-18)
(-8.07388e-07 -9.08173e-07 -2.84738e-17)
(-9.95115e-07 -6.77128e-07 -5.4406e-18)
(-1.12937e-06 -4.59353e-07 -1.47113e-18)
(-1.2173e-06 -2.58447e-07 3.04875e-17)
(-1.26223e-06 -7.00363e-08 -9.33994e-18)
(-1.27146e-06 1.03623e-07 1.04556e-17)
(-1.24755e-06 2.69943e-07 3.18288e-17)
(-1.19712e-06 4.22225e-07 2.61891e-17)
(-1.12092e-06 5.6561e-07 6.96779e-17)
(-1.0261e-06 6.98464e-07 5.22293e-18)
(-9.13834e-07 8.24041e-07 -4.58966e-17)
(-7.8862e-07 9.38819e-07 -6.5452e-17)
(-6.53136e-07 1.04058e-06 2.12999e-17)
(-5.12167e-07 1.11604e-06 5.94643e-17)
(-3.64283e-07 1.17853e-06 -3.57477e-17)
(-2.22404e-07 1.224e-06 6.22365e-17)
(-9.62145e-08 1.25148e-06 -1.07357e-17)
(3.91025e-08 1.24726e-06 2.29811e-17)
(1.75812e-07 1.24141e-06 -1.2902e-16)
(3.03205e-07 1.21994e-06 -3.72185e-17)
(4.22026e-07 1.19333e-06 3.37692e-17)
(5.33012e-07 1.15606e-06 -4.37018e-17)
(6.34356e-07 1.12042e-06 -4.89908e-17)
(7.2734e-07 1.07588e-06 7.65287e-17)
(8.09681e-07 1.03018e-06 3.90738e-18)
(8.83874e-07 9.78494e-07 1.43047e-16)
(9.4739e-07 9.2138e-07 2.39302e-16)
(1.00354e-06 8.57157e-07 2.83631e-17)
(1.04487e-06 7.88607e-07 7.12397e-17)
(1.07816e-06 7.10363e-07 1.2702e-17)
(1.10282e-06 6.2669e-07 1.92176e-16)
(1.11916e-06 5.3967e-07 4.33548e-17)
(1.12587e-06 4.49244e-07 -3.20725e-16)
(1.12219e-06 3.5866e-07 3.08777e-16)
(1.1106e-06 2.70879e-07 8.12508e-17)
(1.08777e-06 1.8811e-07 -5.96106e-17)
(1.05944e-06 1.09845e-07 4.76694e-16)
(1.02054e-06 3.78924e-08 -1.44164e-16)
(9.77946e-07 -2.88285e-08 -1.21551e-16)
(9.25575e-07 -8.56657e-08 8.46009e-16)
(8.61875e-07 -1.37756e-07 -6.35405e-17)
(7.92558e-07 -1.8644e-07 -3.78664e-16)
(7.09938e-07 -2.40603e-07 -3.62418e-18)
(6.41096e-07 -2.80762e-07 -1.35284e-16)
(5.80876e-07 -3.12906e-07 -3.55638e-17)
(5.21787e-07 -3.39511e-07 -8.64117e-17)
(4.61998e-07 -3.54041e-07 4.53648e-16)
(4.00752e-07 -3.70073e-07 4.74123e-16)
(3.44879e-07 -3.77857e-07 2.05256e-16)
(2.88955e-07 -3.84231e-07 1.70744e-16)
(2.40847e-07 -3.91242e-07 -1.19521e-16)
(1.97342e-07 -4.15621e-07 7.25557e-16)
(1.55377e-07 -4.30487e-07 1.00231e-17)
(1.15219e-07 -4.48328e-07 8.0674e-16)
(7.04365e-08 -4.32144e-07 -4.10168e-16)
(2.89123e-08 -4.43507e-07 -2.34434e-15)
(-1.50813e-05 1.95723e-06 9.35511e-18)
(-1.2959e-05 2.00653e-06 -3.35633e-18)
(-1.0105e-05 1.53297e-06 -4.58596e-18)
(-7.39429e-06 1.15696e-06 7.12258e-19)
(-4.86235e-06 8.12692e-07 5.52536e-18)
(-2.57748e-06 5.11084e-07 7.54803e-18)
(-5.80076e-07 2.45899e-07 -4.12603e-18)
(1.10637e-06 1.19269e-08 4.1181e-19)
(2.478e-06 -1.84859e-07 9.21811e-18)
(3.54086e-06 -3.51922e-07 5.18914e-18)
(4.31432e-06 -4.87998e-07 -4.46881e-18)
(4.82551e-06 -5.94042e-07 -9.47271e-18)
(5.10528e-06 -6.72773e-07 5.92748e-19)
(5.18889e-06 -7.23272e-07 5.09877e-20)
(5.11055e-06 -7.46871e-07 -8.32092e-19)
(4.9059e-06 -7.44949e-07 1.69119e-18)
(4.60429e-06 -7.26362e-07 1.15565e-17)
(4.23604e-06 -6.85369e-07 5.93166e-18)
(3.82503e-06 -6.28693e-07 -1.27158e-17)
(3.39244e-06 -5.57359e-07 2.07712e-17)
(2.95557e-06 -4.77498e-07 1.41288e-17)
(2.52834e-06 -3.88646e-07 -5.88086e-18)
(2.11966e-06 -2.94627e-07 1.40578e-18)
(1.73901e-06 -1.94785e-07 1.5844e-17)
(1.38949e-06 -9.74353e-08 1.45154e-17)
(1.07562e-06 4.18995e-10 1.71253e-17)
(7.96956e-07 9.39708e-08 -1.37103e-17)
(5.55375e-07 1.84496e-07 -3.20846e-19)
(3.48161e-07 2.69562e-07 1.86098e-17)
(1.75767e-07 3.49073e-07 4.01039e-18)
(3.37578e-08 4.1964e-07 -2.61518e-17)
(-7.78221e-08 4.87236e-07 -1.37061e-17)
(-1.63533e-07 5.4894e-07 -6.89176e-18)
(-2.23431e-07 6.05843e-07 2.14532e-17)
(-2.62027e-07 6.54658e-07 4.21315e-17)
(-2.77716e-07 7.0325e-07 4.28883e-17)
(-2.74985e-07 7.47824e-07 3.06002e-17)
(-2.53144e-07 7.94307e-07 -2.08061e-17)
(-2.1947e-07 8.36998e-07 -6.53463e-17)
(-1.71117e-07 8.81301e-07 2.87858e-17)
(-1.1562e-07 9.207e-07 7.80782e-18)
(-5.95956e-08 9.59632e-07 2.6039e-17)
(1.47735e-08 9.8532e-07 -5.20092e-17)
(9.19748e-08 1.00804e-06 9.48847e-17)
(1.70267e-07 1.01924e-06 -3.50676e-17)
(2.47922e-07 1.02047e-06 1.09239e-16)
(3.25597e-07 1.00614e-06 3.56578e-17)
(4.00428e-07 9.87885e-07 -7.13708e-17)
(4.74796e-07 9.5875e-07 5.11599e-17)
(5.44453e-07 9.23211e-07 1.23665e-16)
(6.13104e-07 8.78198e-07 3.39014e-17)
(6.77154e-07 8.29562e-07 -4.3189e-17)
(7.39957e-07 7.70656e-07 2.29648e-16)
(7.92359e-07 7.12596e-07 4.77536e-17)
(8.43413e-07 6.43763e-07 -1.14431e-16)
(8.86094e-07 5.73803e-07 -2.93823e-16)
(9.22043e-07 4.97908e-07 -2.58167e-17)
(9.48119e-07 4.2177e-07 -1.99261e-17)
(9.65152e-07 3.41901e-07 -2.52881e-16)
(9.7302e-07 2.64045e-07 1.9614e-16)
(9.69786e-07 1.87006e-07 1.18706e-16)
(9.59445e-07 1.1183e-07 2.08459e-16)
(9.3798e-07 4.13353e-08 1.96498e-16)
(9.10854e-07 -2.34291e-08 -4.36178e-16)
(8.72373e-07 -7.90534e-08 5.38536e-16)
(8.29707e-07 -1.26712e-07 3.46215e-16)
(7.76466e-07 -1.7644e-07 2.22445e-17)
(7.1637e-07 -2.25324e-07 1.15354e-16)
(6.42092e-07 -2.70722e-07 -2.76978e-16)
(5.98939e-07 -3.12437e-07 -5.95465e-17)
(5.48572e-07 -3.40391e-07 -1.9748e-17)
(4.97931e-07 -3.6796e-07 4.83134e-16)
(4.44979e-07 -3.85395e-07 5.50306e-16)
(3.91456e-07 -4.00012e-07 4.84931e-16)
(3.38335e-07 -4.08105e-07 2.12761e-16)
(2.89438e-07 -4.26382e-07 1.05039e-16)
(2.42805e-07 -4.51208e-07 -7.47746e-16)
(1.91882e-07 -4.67708e-07 1.65536e-16)
(1.41265e-07 -4.84514e-07 7.20183e-16)
(9.0358e-08 -4.68475e-07 -1.44846e-16)
(4.2015e-08 -4.6854e-07 -5.44499e-16)
(-1.67519e-05 5.80341e-06 -2.26201e-18)
(-1.68564e-05 6.01911e-06 3.94657e-18)
(-1.57813e-05 5.51387e-06 1.72951e-18)
(-1.44164e-05 5.11804e-06 4.83004e-19)
(-1.28517e-05 4.75022e-06 5.45043e-19)
(-1.11679e-05 4.40435e-06 1.37324e-18)
(-9.44305e-06 4.07109e-06 5.04113e-18)
(-7.74583e-06 3.74862e-06 -2.62769e-20)
(-6.1297e-06 3.43695e-06 -7.03588e-18)
(-4.63728e-06 3.13737e-06 -2.25881e-18)
(-3.29936e-06 2.85272e-06 2.44805e-18)
(-2.13282e-06 2.58593e-06 -3.44035e-18)
(-1.14614e-06 2.33817e-06 -9.51565e-19)
(-3.37674e-07 2.10974e-06 -7.06159e-18)
(3.00459e-07 1.90262e-06 2.7153e-18)
(7.81746e-07 1.71799e-06 -1.72917e-18)
(1.1221e-06 1.5543e-06 -4.24219e-18)
(1.34116e-06 1.41107e-06 1.75857e-18)
(1.45732e-06 1.28771e-06 3.98915e-18)
(1.49015e-06 1.18414e-06 -1.17701e-17)
(1.45722e-06 1.09995e-06 -9.83184e-18)
(1.37486e-06 1.03071e-06 -2.55377e-18)
(1.25701e-06 9.74947e-07 -1.63214e-18)
(1.11673e-06 9.34155e-07 -1.16401e-17)
(9.63652e-07 9.03849e-07 -1.07095e-17)
(8.06432e-07 8.81798e-07 -9.58634e-18)
(6.51411e-07 8.66495e-07 3.01324e-17)
(5.03558e-07 8.55248e-07 -5.75229e-19)
(3.66301e-07 8.47071e-07 -2.83137e-17)
(2.4222e-07 8.40907e-07 3.98369e-18)
(1.31934e-07 8.33598e-07 1.08294e-17)
(3.65849e-08 8.26408e-07 2.50449e-18)
(-4.41683e-08 8.18115e-07 -7.97733e-18)
(-1.09841e-07 8.08667e-07 -3.74504e-17)
(-1.61589e-07 7.97464e-07 -7.49447e-18)
(-1.99023e-07 7.84963e-07 1.9405e-17)
(-2.24014e-07 7.68984e-07 2.01456e-17)
(-2.381e-07 7.54183e-07 5.49636e-18)
(-2.44794e-07 7.39937e-07 -1.71865e-17)
(-2.40885e-07 7.27432e-07 -4.93827e-17)
(-2.27655e-07 7.13549e-07 5.45572e-18)
(-2.07922e-07 7.03829e-07 -3.66594e-17)
(-1.76037e-07 6.9595e-07 2.83331e-17)
(-1.3672e-07 6.90068e-07 -2.08902e-17)
(-9.28647e-08 6.7964e-07 6.71938e-17)
(-4.31498e-08 6.70909e-07 -9.34374e-17)
(9.04373e-09 6.58772e-07 3.53348e-17)
(6.39899e-08 6.47157e-07 4.73163e-17)
(1.19909e-07 6.31276e-07 -9.73624e-17)
(1.76865e-07 6.15506e-07 -8.8511e-17)
(2.32914e-07 5.90715e-07 -5.54345e-17)
(2.88422e-07 5.6687e-07 -6.31137e-17)
(3.42859e-07 5.3589e-07 -2.77506e-18)
(3.92181e-07 5.05754e-07 -1.44488e-16)
(4.39376e-07 4.68911e-07 8.82561e-17)
(4.82572e-07 4.30681e-07 1.53866e-16)
(5.22547e-07 3.87728e-07 -1.39045e-16)
(5.55789e-07 3.43385e-07 9.8764e-17)
(5.84639e-07 2.95891e-07 2.69872e-16)
(6.05652e-07 2.47441e-07 4.74927e-17)
(6.21707e-07 1.9799e-07 1.05054e-16)