/*--------------------------------*- C++ -*----------------------------------*\
| =========                 |                                                 |
| \\      /  F ield         | OpenFOAM: The Open Source CFD Toolbox           |
|  \\    /   O peration     | Version:  2306                                  |
|   \\  /    A nd           | Website:  www.openfoam.com                      |
|    \\/     M anipulation  |                                                 |
\*---------------------------------------------------------------------------*/
FoamFile
{
    version     2.0;
    format      ascii;
    arch        "LSB;label=32;scalar=64";
    class       volScalarField;
    location    "425";
    object      turbulenceProperties:L;
}
// * * * * * * * * * * * * * * * * * * * * * * * * * * * * * * * * * * * * * //

dimensions      [0 1 0 0 0 0 0];

internalField   nonuniform List<scalar> 
1340
(
0.257288
0.183447
0.544511
0.268982
0.257683
0.18331
0.518643
0.409008
0.550027
0.268477
0.257635
0.183265
0.381365
0.406463
0.419645
0.506422
0.404355
0.553362
0.267936
0.25728
0.183268
0.318937
0.331295
0.342548
0.354122
0.367527
0.381659
0.405469
0.417234
0.494229
0.400023
0.554713
0.267378
0.256722
0.183292
0.269215
0.278044
0.287787
0.298342
0.309906
0.322106
0.333942
0.344645
0.35567
0.368432
0.381862
0.404251
0.41458
0.482298
0.396085
0.554219
0.266851
0.256048
0.18333
0.230772
0.23588
0.241321
0.247092
0.253212
0.259744
0.266808
0.274549
0.283085
0.292476
0.302608
0.31371
0.325398
0.336658
0.346779
0.357227
0.369303
0.382003
0.402844
0.411742
0.470765
0.392575
0.552046
0.266365
0.255326
0.1834
0.198772
0.201089
0.203557
0.206179
0.208959
0.211904
0.21502
0.218316
0.221806
0.225515
0.229473
0.233715
0.238264
0.243139
0.248339
0.253863
0.259733
0.266009
0.272805
0.280249
0.288445
0.297432
0.307092
0.317681
0.3288
0.339433
0.348947
0.358794
0.370144
0.382087
0.401265
0.408754
0.459706
0.38953
0.548365
0.265936
0.254649
0.183479
0.200533
0.199704
0.209986
0.206484
0.206469
0.202025
0.19972
0.197511
0.195647
0.193933
0.192396
0.191032
0.189866
0.188881
0.188036
0.187371
0.186857
0.186488
0.186253
0.186144
0.186156
0.186282
0.186508
0.186829
0.18724
0.187735
0.188308
0.18895
0.189668
0.190449
0.191299
0.192215
0.193196
0.194247
0.195366
0.196558
0.19783
0.19918
0.200623
0.202162
0.203799
0.20555
0.20742
0.209422
0.211557
0.213839
0.216274
0.218861
0.221612
0.224528
0.227613
0.230886
0.23437
0.23809
0.242084
0.246376
0.250984
0.25591
0.261156
0.266742
0.272726
0.279213
0.286315
0.294119
0.302648
0.311785
0.321811
0.332302
0.342262
0.351148
0.360372
0.370965
0.382125
0.399529
0.405644
0.449162
0.386957
0.543416
0.265611
0.254053
0.183555
0.199641
0.222216
0.231593
0.22157
0.21967
0.21623
0.214189
0.212009
0.210119
0.208373
0.206817
0.205447
0.204259
0.203244
0.202381
0.201693
0.201153
0.200745
0.200476
0.200332
0.2003
0.200378
0.200554
0.200818
0.20117
0.201599
0.202095
0.202663
0.203294
0.203984
0.204737
0.205546
0.206416
0.207345
0.208336
0.209395
0.210522
0.211723
0.213008
0.214381
0.215851
0.217424
0.219115
0.220933
0.222878
0.224969
0.227205
0.229591
0.232132
0.234827
0.237682
0.240713
0.243941
0.247392
0.251105
0.255106
0.259414
0.264033
0.268966
0.274235
0.279888
0.286022
0.292733
0.300093
0.308111
0.316672
0.326086
0.335892
0.345139
0.353386
0.361966
0.371776
0.382119
0.397658
0.402437
0.439179
0.384852
0.537628
0.265331
0.253605
0.183595
0.227089
0.241301
0.245673
0.235099
0.234009
0.231074
0.229049
0.22694
0.225077
0.223377
0.221885
0.220536
0.219374
0.218379
0.217539
0.216852
0.216314
0.215895
0.215611
0.215455
0.215395
0.215437
0.215572
0.2158
0.216095
0.21646
0.216895
0.217389
0.217939
0.218542
0.219197
0.219901
0.220658
0.221466
0.222325
0.223243
0.224222
0.225268
0.226386
0.227588
0.228879
0.230267
0.231772
0.23339
0.235138
0.237027
0.23905
0.241218
0.243529
0.245981
0.24858
0.251339
0.254277
0.257425
0.260823
0.264496
0.268468
0.272747
0.277333
0.282244
0.287525
0.293258
0.299527
0.306382
0.313831
0.321769
0.330518
0.339578
0.34808
0.355683
0.363594
0.372595
0.382082
0.395657
0.399142
0.429776
0.38318
0.531111
0.265272
0.253201
0.183569
0.245368
0.255081
0.259047
0.249888
0.249185
0.246392
0.24445
0.242462
0.240714
0.239114
0.2377
0.23643
0.235328
0.234383
0.233581
0.232917
0.232397
0.231986
0.2317
0.231529
0.231448
0.231459
0.23156
0.231741
0.231973
0.232284
0.232649
0.233059
0.233525
0.234032
0.234585
0.235174
0.235813
0.236488
0.237208
0.237979
0.238801
0.23968
0.240629
0.241649
0.242752
0.243951
0.245254
0.246669
0.248212
0.249881
0.251681
0.253614
0.255674
0.257861
0.260176
0.262632
0.265245
0.268059
0.271106
0.274415
0.278027
0.281931
0.286134
0.290656
0.295522
0.300804
0.306583
0.312882
0.319712
0.326986
0.335025
0.343298
0.351034
0.357992
0.36522
0.3734
0.381985
0.393537
0.39577
0.421094
0.381874
0.525189
0.265345
0.253036
0.183347
0.260752
0.270941
0.275584
0.267044
0.266416
0.263765
0.261958
0.260107
0.258506
0.256998
0.255674
0.254493
0.253444
0.252561
0.251796
0.251146
0.250639
0.250242
0.249941
0.249746
0.249633
0.249607
0.249658
0.249767
0.249939
0.250172
0.250432
0.250745
0.251109
0.251506
0.251913
0.252369
0.252849
0.253379
0.253934
0.254497
0.255148
0.255834
0.25657
0.25737
0.258264
0.259229
0.260299
0.26149
0.262775
0.2642
0.265739
0.26739
0.269166
0.271034
0.273017
0.275122
0.277352
0.279777
0.282427
0.285317
0.288514
0.292004
0.295765
0.299846
0.304242
0.308998
0.314213
0.319885
0.326022
0.332553
0.339818
0.347232
0.354159
0.360439
0.366952
0.374263
0.381844
0.391277
0.392227
0.412811
0.380938
0.514546
0.26618
0.252382
0.183101
0.281881
0.292946
0.298234
0.289859
0.289533
0.28702
0.285466
0.283937
0.28235
0.281099
0.279934
0.27876
0.277857
0.277087
0.276315
0.275659
0.275257
0.274791
0.274468
0.274234
0.274036
0.273983
0.273906
0.273885
0.273967
0.274044
0.274147
0.274292
0.274459
0.274688
0.274859
0.275066
0.275319
0.275627
0.275865
0.276149
0.276524
0.276917
0.27733
0.277806
0.278391
0.278997
0.27977
0.280611
0.281524
0.282622
0.283777
0.285017
0.286401
0.287807
0.289316
0.290937
0.292618
0.29451
0.296623
0.298953
0.301579
0.304524
0.307701
0.311171
0.314927
0.318983
0.323443
0.328281
0.333524
0.339131
0.345427
0.35178
0.357762
0.363266
0.368932
0.375206
0.381581
0.388504
0.388345
0.403666
0.381712
0.495526
0.268742
0.253545
0.186245
0.311129
0.321548
0.32672
0.319199
0.319149
0.316938
0.315844
0.314575
0.313195
0.312268
0.311236
0.310196
0.309488
0.308833
0.308042
0.30746
0.307119
0.306551
0.306268
0.305909
0.305586
0.305514
0.305244
0.305004
0.304964
0.304805
0.304715
0.304609
0.304466
0.304417
0.304316
0.304163
0.30411
0.304058
0.303878
0.303833
0.303799
0.303775
0.30377
0.303849
0.303979
0.304178
0.304522
0.304862
0.305366
0.305972
0.306595
0.307307
0.308105
0.308894
0.309726
0.310661
0.311624
0.312785
0.31416
0.315764
0.317654
0.319846
0.322247
0.324895
0.327778
0.330909
0.334364
0.338134
0.34227
0.346741
0.351843
0.356949
0.361859
0.366473
0.371154
0.376209
0.381082
0.385227
0.383914
0.394548
0.38307
0.476955
0.268865
0.254572
0.186364
0.344269
0.35464
0.360307
0.353155
0.353301
0.351715
0.350778
0.34949
0.348832
0.347857
0.346838
0.346159
0.345524
0.34484
0.344063
0.343668
0.343102
0.342555
0.342273
0.341699
0.341243
0.341045
0.340569
0.340143
0.339908
0.339387
0.339063
0.338696
0.338189
0.337776
0.337365
0.336791
0.336363
0.33588
0.335267
0.334811
0.334319
0.333807
0.333354
0.332982
0.332601
0.332358
0.332152
0.331981
0.331995
0.331988
0.331999
0.332077
0.332148
0.332206
0.332228
0.332332
0.332494
0.332781
0.333329
0.334101
0.335142
0.336471
0.337955
0.339646
0.341521
0.343573
0.34589
0.348492
0.351407
0.354651
0.35847
0.362269
0.36608
0.369758
0.373368
0.377105
0.380269
0.381692
0.379164
0.386405
0.383628
0.460366
0.267634
0.25791
0.186389
0.381152
0.402991
0.392882
0.400378
0.391924
0.392966
0.391664
0.390583
0.389592
0.389103
0.38822
0.387243
0.38657
0.386012
0.385201
0.384357
0.384005
0.383162
0.382527
0.382015
0.381194
0.380643
0.379983
0.379308
0.3786
0.377907
0.377073
0.376314
0.375569
0.37459
0.373711
0.37286
0.371745
0.370847
0.369817
0.368662
0.367722
0.366649
0.365578
0.364617
0.36365
0.362734
0.361903
0.361085
0.360368
0.359685
0.359001
0.358306
0.357589
0.356831
0.356039
0.355173
0.354369
0.353655
0.353038
0.352722
0.35262
0.352762
0.353174
0.353688
0.354348
0.355156
0.356082
0.357237
0.358652
0.360343
0.362362
0.364907
0.367443
0.370198
0.372939
0.375436
0.377795
0.379121
0.377993
0.374376
0.379411
0.383545
0.442228
0.265743
0.262397
0.186443
0.423574
0.448587
0.43781
0.446931
0.436919
0.438588
0.436993
0.436421
0.435343
0.434555
0.434043
0.432978
0.432192
0.431316
0.430479
0.429624
0.428896
0.42781
0.426845
0.426027
0.425016
0.424081
0.422781
0.421845
0.420637
0.419434
0.418201
0.416733
0.415505
0.41396
0.412506
0.410954
0.409263
0.407731
0.406021
0.404232
0.402583
0.400903
0.399123
0.397479
0.395828
0.394192
0.392672
0.391108
0.389609
0.388088
0.386558
0.384996
0.383312
0.381573
0.379823
0.377978
0.376191
0.374548
0.372985
0.371755
0.370744
0.369932
0.36935
0.368834
0.36842
0.368112
0.367905
0.367887
0.368123
0.368622
0.369438
0.37074
0.372072
0.373811
0.375606
0.376981
0.377929
0.377372
0.373959
0.369516
0.37324
0.382345
0.420865
0.263211
0.267954
0.186428
0.474051
0.502388
0.491277
0.501881
0.490205
0.491821
0.4901
0.489304
0.487764
0.487286
0.486226
0.484709
0.48385
0.482501
0.481247
0.480217
0.478721
0.477276
0.475768
0.474533
0.47291
0.471146
0.469558
0.467834
0.465872
0.464216
0.462095
0.459908
0.458088
0.455741
0.453581
0.451206
0.44881
0.446593
0.444075
0.44148
0.439191
0.436714
0.434148
0.431781
0.429376
0.426867
0.424587
0.422204
0.41972
0.417337
0.414814
0.412267
0.409552
0.406803
0.404053
0.401183
0.398449
0.395858
0.393348
0.391179
0.389217
0.387396
0.385755
0.384154
0.382643
0.381194
0.379835
0.378676
0.377747
0.377085
0.376744
0.376859
0.377092
0.377879
0.378706
0.378904
0.378381
0.375907
0.370538
0.365723
0.369086
0.381291
0.399647
0.260154
0.275306
0.186159
0.51791
0.547145
0.535083
0.546955
0.533937
0.535789
0.534656
0.533007
0.531781
0.531356
0.529887
0.528381
0.527368
0.526138
0.524476
0.523299
0.521446
0.519744
0.518307
0.516609
0.514485
0.512369
0.510688
0.508589
0.505872
0.503979
0.501431
0.498747
0.496341
0.493582
0.490779
0.487879
0.4849
0.482021
0.478823
0.475612
0.472632
0.469323
0.466049
0.462801
0.459633
0.456174
0.452941
0.449577
0.446063
0.442723
0.439082
0.435537
0.431854
0.42814
0.424443
0.420699
0.417119
0.41361
0.410264
0.407178
0.404246
0.401446
0.39878
0.396145
0.393616
0.39113
0.388739
0.386572
0.38458
0.382865
0.381479
0.380496
0.379683
0.379516
0.379437
0.378636
0.376901
0.372888
0.366223
0.361443
0.364422
0.375987
0.37346
0.255629
0.28272
0.184916
0.573883
0.607733
0.594421
0.608857
0.590521
0.593005
0.59034
0.588061
0.58727
0.585959
0.58319
0.581027
0.579252
0.577652
0.575282
0.572781
0.570289
0.568158
0.566186
0.562865
0.560335
0.55763
0.554981
0.552313
0.548658
0.545933
0.54285
0.539587
0.536226
0.53284
0.529569
0.525801
0.522421
0.518799
0.514933
0.511276
0.507553
0.503797
0.499718
0.495827
0.492046
0.487834
0.483807
0.479698
0.475504
0.471267
0.466941
0.46266
0.458298
0.453944
0.449538
0.445215
0.440919
0.436682
0.432614
0.428683
0.424834
0.421083
0.417444
0.413798
0.410263
0.406751
0.403349
0.400164
0.397138
0.394432
0.392075
0.390145
0.388621
0.387815
0.386747
0.384617
0.381133
0.375008
0.367048
0.363261
0.367935
0.378949
0.358886
0.252937
0.296846
0.1828
0.558946
0.579859
0.571653
0.580882
0.572832
0.574532
0.572621
0.571618
0.571885
0.571099
0.56943
0.568071
0.567217
0.566645
0.565139
0.563562
0.562233
0.560962
0.55985
0.5575
0.555867
0.55437
0.552442
0.550453
0.54797
0.545833
0.543388
0.540943
0.538109
0.535205
0.532392
0.528951
0.525832
0.522218
0.518481
0.514673
0.510713
0.506661
0.502148
0.497903
0.493405
0.488773
0.484236
0.479677
0.4751
0.470549
0.466212
0.461809
0.457528
0.453279
0.448927
0.444628
0.440201
0.435805
0.431403
0.427079
0.422847
0.418731
0.414826
0.41099
0.407312
0.403674
0.400123
0.396706
0.393405
0.390363
0.387558
0.385033
0.382634
0.380892
0.379479
0.377448
0.374369
0.368982
0.362071
0.359077
0.361232
0.361608
0.325764
0.24603
0.292028
0.174395
0.640862
0.637209
0.640884
0.633723
0.63053
0.629476
0.627698
0.626428
0.624458
0.622383
0.621123
0.619112
0.617103
0.615014
0.612991
0.611047
0.608684
0.606475
0.604232
0.601727
0.599477
0.596867
0.59445
0.591877
0.589117
0.586324
0.583528
0.580742
0.577633
0.574669
0.571518
0.568256
0.565066
0.561563
0.558155
0.55452
0.550883
0.54716
0.543312
0.539595
0.535696
0.531902
0.528179
0.524529
0.52087
0.517381
0.513945
0.510413
0.506887
0.503137
0.499227
0.495086
0.490692
0.486221
0.481579
0.476937
0.472227
0.467532
0.462871
0.458061
0.453253
0.448356
0.443486
0.438715
0.434092
0.429839
0.425944
0.422562
0.420685
0.419926
0.417224
0.411769
0.403667
0.392214
0.38234
0.383528
0.395153
0.391089
0.329229
0.26635
0.306664
0.17375
)
;

boundaryField
{
    inlet
    {
        type            calculated;
        value           nonuniform List<scalar> 
23
(
0.0972132
0.0974567
0.0976942
0.0979264
0.0981585
0.098396
0.0986458
0.0989134
0.0992065
0.099532
0.0998997
0.100308
0.100782
0.101535
0.102178
0.10298
0.104006
0.105297
0.106916
0.108918
0.111451
0.113535
0.117791
)
;
    }
    outlet
    {
        type            calculated;
        value           nonuniform List<scalar> 
82
(
0.717464
0.718179
0.710509
0.706481
0.701642
0.700504
0.698183
0.6967
0.69409
0.691324
0.689907
0.687296
0.684678
0.681975
0.679376
0.676933
0.67383
0.670984
0.66812
0.664827
0.661983
0.658597
0.655514
0.652226
0.648663
0.645091
0.641533
0.638047
0.634087
0.6304
0.626487
0.62244
0.618582
0.61429
0.610222
0.605874
0.601584
0.597233
0.592744
0.588516
0.584036
0.579741
0.575563
0.571486
0.567366
0.563459
0.559591
0.555522
0.551435
0.547001
0.542354
0.537429
0.532213
0.526981
0.521574
0.516198
0.510697
0.505124
0.499463
0.493441
0.487306
0.480992
0.474721
0.468632
0.462787
0.4575
0.452809
0.449028
0.447555
0.447381
0.443982
0.436396
0.424802
0.408952
0.396035
0.39836
0.418117
0.42227
0.347602
0.271503
0.340054
0.182452
)
;
    }
    walls
    {
        type            calculated;
        value           nonuniform List<scalar> 0();
    }
    frontAndBack
    {
        type            empty;
    }
    procBoundary3to2
    {
        type            processor;
        value           nonuniform List<scalar> 
88
(
0.256365
0.183619
0.537023
0.269548
0.269548
0.530656
0.413942
0.413942
0.380928
0.407176
0.421729
0.421729
0.315879
0.328704
0.340471
0.352563
0.366563
0.366563
0.264246
0.273326
0.283374
0.294301
0.306282
0.306282
0.223886
0.229195
0.234846
0.240831
0.24717
0.253924
0.261219
0.261219
0.188967
0.191465
0.194112
0.196913
0.199876
0.203003
0.206302
0.209787
0.213469
0.217378
0.221542
0.225997
0.225997
0.231872
0.188513
0.183265
0.191454
0.188493
0.185666
0.183365
0.181493
0.179867
0.178446
0.17715
0.176049
0.175128
0.174357
0.173756
0.173295
0.172984
0.172814
0.172765
0.172839
0.173025
0.173315
0.173708
0.174191
0.174755
0.175409
0.176139
0.176941
0.177816
0.178765
0.179788
0.180878
0.182047
0.183295
0.184617
0.186029
0.187528
0.189121
0.190821
0.192624
0.194545
0.196592
0.196592
)
;
    }
    procBoundary3to6
    {
        type            processor;
        value           uniform 0.000714714;
    }
    procBoundary3to7
    {
        type            processor;
        value           nonuniform List<scalar> 
16
(
3.45346
0.238993
0.238946
0.268684
0.286942
0.305776
0.332459
0.364646
0.364646
0.405002
0.450376
0.504688
0.549967
0.608537
0.585455
0.632393
)
;
    }
}


// ************************************************************************* //
