/*--------------------------------*- C++ -*----------------------------------*\
| =========                 |                                                 |
| \\      /  F ield         | OpenFOAM: The Open Source CFD Toolbox           |
|  \\    /   O peration     | Version:  2306                                  |
|   \\  /    A nd           | Website:  www.openfoam.com                      |
|    \\/     M anipulation  |                                                 |
\*---------------------------------------------------------------------------*/
FoamFile
{
    version     2.0;
    format      ascii;
    arch        "LSB;label=32;scalar=64";
    class       volVectorField;
    location    "425";
    object      U;
}
// * * * * * * * * * * * * * * * * * * * * * * * * * * * * * * * * * * * * * //

dimensions      [0 1 -1 0 0 0 0];

internalField   nonuniform List<vector> 
1340
(
(25.5598 3.32915 -1.26852e-16)
(25.6222 2.89347 1.57782e-16)
(25.5177 3.17157 -3.8991e-16)
(25.5111 3.08359 -6.93393e-17)
(25.5621 3.32751 2.01998e-17)
(25.6357 2.89609 -6.64352e-16)
(25.5481 3.12283 0)
(25.5359 3.11858 -1.52606e-16)
(25.5211 3.16851 3.86991e-16)
(25.5188 3.08297 2.2896e-16)
(25.5654 3.32562 3.59838e-19)
(25.6493 2.89865 5.76623e-16)
(25.5574 3.07676 -2.20798e-16)
(25.5598 3.09023 4.19017e-18)
(25.5598 3.1017 2.94055e-17)
(25.554 3.11907 0)
(25.5414 3.11574 1.72288e-18)
(25.5251 3.1654 -3.33585e-18)
(25.5268 3.08274 -1.71624e-18)
(25.5699 3.32351 5.00662e-19)
(25.6628 2.90121 -7.29303e-19)
(25.5512 3.00617 1.86339e-17)
(25.5555 3.02085 7.36244e-17)
(25.5586 3.03314 7.34358e-17)
(25.5615 3.04593 -2.49874e-16)
(25.5643 3.05892 6.18285e-17)
(25.5669 3.07216 -8.74414e-17)
(25.5684 3.08596 -1.88816e-18)
(25.5675 3.09788 2.112e-16)
(25.5605 3.11546 0)
(25.5473 3.11314 1.36535e-17)
(25.5297 3.16228 -3.72051e-16)
(25.5352 3.08288 -2.16497e-16)
(25.5755 3.32122 -7.58835e-18)
(25.6764 2.90386 7.63781e-17)
(25.5379 2.9083 1.69364e-16)
(25.5443 2.92777 -1.53144e-16)
(25.5504 2.94683 -3.97058e-17)
(25.556 2.96543 -2.39481e-16)
(25.561 2.98357 -5.30399e-17)
(25.5655 3.00109 3.56979e-17)
(25.5687 3.01584 1.58947e-17)
(25.571 3.02825 -1.20847e-18)
(25.5732 3.04119 4.76537e-17)
(25.5752 3.05438 -1.15266e-16)
(25.5769 3.06789 2.1626e-16)
(25.5776 3.08197 -1.33472e-16)
(25.5757 3.09433 -2.11259e-16)
(25.5675 3.11203 0)
(25.5537 3.11082 -9.73933e-18)
(25.5351 3.15918 3.63421e-16)
(25.544 3.08341 2.12155e-16)
(25.5822 3.31878 8.93769e-18)
(25.6902 2.9067 -7.76603e-17)
(25.53 2.76785 -2.20605e-17)
(25.5331 2.78744 -1.06621e-16)
(25.5365 2.8071 -1.80181e-16)
(25.5402 2.8268 6.55825e-17)
(25.5444 2.84648 -2.10066e-17)
(25.549 2.86611 8.26298e-17)
(25.5539 2.88562 2.10452e-16)
(25.559 2.90495 -4.87625e-18)
(25.5641 2.92402 1.2397e-16)
(25.5688 2.94278 -1.06449e-17)
(25.5732 2.96115 1.62341e-17)
(25.577 2.97916 1.02177e-16)
(25.5803 2.99662 -3.62095e-17)
(25.5826 3.01139 -1.83606e-17)
(25.584 3.02385 -1.26605e-18)
(25.5854 3.03691 3.42717e-18)
(25.5866 3.05026 8.83533e-19)
(25.5876 3.06399 -1.13653e-16)
(25.5874 3.0783 1.28821e-16)
(25.5844 3.09108 -4.14283e-19)
(25.575 3.10882 0)
(25.5604 3.1088 1.32545e-17)
(25.5411 3.15614 -3.79533e-16)
(25.5534 3.08437 -2.10008e-18)
(25.59 3.3162 -2.28347e-17)
(25.704 2.90981 -8.02336e-19)
(25.5702 2.57657 1.74919e-17)
(25.5671 2.59025 -1.00888e-16)
(25.5644 2.60445 -2.78316e-18)
(25.562 2.61915 9.64397e-17)
(25.5599 2.63436 -1.04242e-16)
(25.5583 2.65005 1.6585e-17)
(25.5571 2.66621 7.57636e-18)
(25.5564 2.68281 -2.10617e-17)
(25.5562 2.69983 1.29129e-16)
(25.5565 2.71724 1.8224e-16)
(25.5573 2.73498 1.36403e-17)
(25.5585 2.75303 4.94532e-17)
(25.56 2.77133 -5.2505e-17)
(25.5618 2.78983 1.53659e-18)
(25.564 2.8085 2.77125e-16)
(25.5666 2.82729 -1.89066e-18)
(25.5696 2.84615 -1.53398e-16)
(25.5729 2.86503 -3.33636e-17)
(25.5766 2.88389 -1.45127e-16)
(25.5805 2.90265 -3.74069e-17)
(25.5842 2.92125 -1.21257e-18)
(25.5877 2.93961 -1.6374e-16)
(25.5908 2.95769 -6.05243e-18)
(25.5935 2.97548 -4.24552e-17)
(25.5956 2.99281 -3.56328e-19)
(25.5969 3.00754 1.42806e-17)
(25.5976 3.02001 -1.26463e-16)
(25.5982 3.03313 1.15911e-16)
(25.5987 3.04659 1.02228e-16)
(25.5988 3.06051 1.87197e-16)
(25.5977 3.07501 -2.08849e-16)
(25.5937 3.08817 -4.41362e-19)
(25.583 3.10587 0)
(25.5677 3.1071 -8.73265e-18)
(25.548 3.15321 1.04861e-16)
(25.5632 3.08577 4.45887e-17)
(25.599 3.31352 -2.6776e-17)
(25.7181 2.91331 -8.37679e-19)
(25.7174 2.39774 2.34446e-18)
(25.7172 2.39948 2.29732e-18)
(25.7173 2.40008 -1.52981e-19)
(25.7172 2.40155 5.63758e-19)
(25.7171 2.40283 7.59822e-19)
(25.7168 2.40428 3.51873e-19)
(25.7163 2.40577 3.84016e-20)
(25.7157 2.40735 -3.02439e-18)
(25.7149 2.40901 -1.24063e-18)
(25.714 2.41075 2.92711e-18)
(25.7129 2.4126 0)
(25.7117 2.41454 -4.71788e-19)
(25.7103 2.4166 6.66046e-18)
(25.7087 2.41878 2.10362e-19)
(25.7069 2.42107 7.47688e-18)
(25.705 2.42351 7.60661e-19)
(25.7029 2.42608 1.90523e-18)
(25.7006 2.42881 6.08832e-18)
(25.6982 2.43171 3.05009e-18)
(25.6956 2.43478 8.54418e-18)
(25.6929 2.43803 -7.86442e-18)
(25.69 2.44149 -1.16963e-17)
(25.6869 2.44516 4.45859e-18)
(25.6837 2.44905 -2.73758e-18)
(25.6804 2.45319 -8.60657e-18)
(25.677 2.45758 -8.2985e-18)
(25.6734 2.46224 1.63148e-17)
(25.6698 2.46719 -5.73004e-18)
(25.666 2.47244 2.21242e-18)
(25.6622 2.478 -7.93008e-18)
(25.6583 2.48391 1.29705e-17)
(25.6543 2.49016 8.26149e-18)
(25.6503 2.49679 9.89148e-18)
(25.6462 2.5038 2.51411e-17)
(25.6421 2.51122 -1.84905e-17)
(25.638 2.51905 -1.12637e-17)
(25.6339 2.52732 9.45825e-19)
(25.6298 2.53603 -1.33958e-17)
(25.6258 2.54521 -5.41468e-18)
(25.6218 2.55487 -2.43942e-17)
(25.6179 2.56501 8.20664e-18)
(25.6141 2.57565 1.15729e-17)
(25.6104 2.58679 -2.68862e-17)
(25.6069 2.59845 2.23427e-17)
(25.6036 2.61061 6.03185e-18)
(25.6005 2.6233 -6.23091e-19)
(25.5977 2.63649 -3.89329e-18)
(25.5952 2.6502 2.81092e-17)
(25.593 2.66441 -8.54263e-17)
(25.5913 2.67911 -2.89264e-19)
(25.59 2.69428 -2.23749e-18)
(25.5891 2.70991 -3.84028e-17)
(25.5886 2.72596 -6.51623e-18)
(25.5885 2.7424 -4.49569e-18)
(25.5887 2.7592 -6.24445e-19)
(25.5893 2.77631 -1.71602e-17)
(25.5901 2.79369 1.50258e-18)
(25.5913 2.81131 -1.19137e-16)
(25.5928 2.82912 -1.8679e-18)
(25.5946 2.84709 1.29983e-16)
(25.5969 2.86517 -5.65335e-19)
(25.5994 2.8833 1.33238e-16)
(25.6021 2.90142 -1.07903e-17)
(25.6047 2.91946 -1.07303e-16)
(25.607 2.93736 9.63045e-18)
(25.6089 2.95506 5.24963e-18)
(25.6104 2.97257 3.54256e-17)
(25.6114 2.9897 3.07962e-17)
(25.6118 3.00432 -2.10448e-18)
(25.6117 3.01677 4.03228e-18)
(25.6116 3.02989 -9.59707e-19)
(25.6113 3.04343 -9.98366e-17)
(25.6106 3.05749 -1.47993e-16)
(25.6086 3.07212 2.1192e-16)
(25.6035 3.08564 9.64449e-17)
(25.5915 3.10322 0)
(25.5754 3.10575 -2.8374e-17)
(25.5556 3.15043 2.58458e-16)
(25.5737 3.08766 -2.26998e-16)
(25.609 3.31078 9.8313e-18)
(25.7324 2.9173 -8.83999e-19)
(25.7428 2.44914 -2.11637e-19)
(25.7426 2.45056 1.83955e-19)
(25.7426 2.45107 -3.0381e-19)
(25.7425 2.45229 -1.4523e-19)
(25.7422 2.45335 -3.45042e-20)
(25.7418 2.45456 -1.60116e-20)
(25.7413 2.45579 -2.61078e-18)
(25.7407 2.45711 1.17836e-18)
(25.74 2.45849 1.63677e-19)
(25.7391 2.45994 -1.94494e-18)
(25.7381 2.46148 0)
(25.7369 2.4631 -3.99734e-18)
(25.7356 2.46482 -1.96261e-18)
(25.7342 2.46663 -9.72834e-21)
(25.7326 2.46855 -4.72172e-18)
(25.7309 2.47058 4.35649e-18)
(25.729 2.47274 4.84295e-18)
(25.727 2.47502 -3.97982e-18)
(25.7249 2.47745 -3.26582e-18)
(25.7226 2.48002 -2.04785e-18)
(25.7201 2.48275 -5.62344e-19)
(25.7176 2.48565 9.33899e-18)
(25.7149 2.48874 1.435e-19)
(25.7121 2.49202 4.49243e-18)
(25.7091 2.4955 5.677e-18)
(25.7061 2.4992 6.90851e-19)
(25.7029 2.50314 -5.08014e-18)
(25.6997 2.50733 -2.08294e-18)
(25.6963 2.51178 -1.03454e-19)
(25.6929 2.51651 1.77735e-18)
(25.6893 2.52153 -6.04413e-19)
(25.6857 2.52686 9.79649e-18)
(25.6821 2.53252 -4.58456e-19)
(25.6783 2.53852 -1.16117e-18)
(25.6745 2.54488 2.14762e-17)
(25.6707 2.55162 6.6412e-18)
(25.6669 2.55875 -1.15164e-17)
(25.663 2.56629 8.75126e-18)
(25.6592 2.57426 4.9682e-19)
(25.6553 2.58266 -9.66357e-18)
(25.6515 2.59152 -9.18661e-18)
(25.6478 2.60084 8.39517e-18)
(25.6441 2.61065 1.5762e-17)
(25.6406 2.62093 6.01302e-18)
(25.6372 2.63172 6.55613e-17)
(25.634 2.64301 -5.72562e-19)
(25.631 2.6548 -3.59512e-18)
(25.6282 2.6671 -2.03682e-17)
(25.6257 2.67991 5.40706e-17)
(25.6236 2.69322 5.70826e-19)
(25.6218 2.70701 -6.39664e-17)
(25.6204 2.72129 -1.35788e-18)
(25.6193 2.73601 -7.99694e-17)
(25.6185 2.75117 3.52396e-18)
(25.618 2.76672 2.38632e-17)
(25.6177 2.78263 -1.13799e-17)
(25.6177 2.79888 -4.05981e-17)
(25.618 2.81542 6.67506e-19)
(25.6185 2.83222 -1.83565e-18)
(25.6195 2.84925 -2.57909e-18)
(25.6207 2.86647 -5.61396e-19)
(25.6222 2.88382 -1.27414e-16)
(25.6238 2.90124 3.99288e-17)
(25.6253 2.91866 1.04174e-16)
(25.6265 2.93603 1.55741e-16)
(25.6274 2.95329 5.34927e-18)
(25.6278 2.97044 -8.94248e-17)
(25.6277 2.98731 -3.13824e-17)
(25.6272 3.00178 -5.39769e-17)
(25.6264 3.01415 8.44286e-17)
(25.6255 3.02724 -2.57507e-17)
(25.6245 3.04081 9.50711e-17)
(25.623 3.05496 2.58946e-16)
(25.6201 3.06968 1.09916e-16)
(25.6138 3.08352 -4.43304e-18)
(25.6006 3.10092 0)
(25.5836 3.10478 3.33931e-17)
(25.564 3.14785 -5.60044e-18)
(25.5848 3.09008 2.18004e-16)
(25.6202 3.30797 7.74893e-17)
(25.7471 2.92191 -9.45462e-19)
(25.7648 2.49611 4.92744e-19)
(25.7645 2.49727 5.27206e-19)
(25.7644 2.49772 -1.49274e-20)
(25.7642 2.49873 -5.17996e-19)
(25.7639 2.49962 3.3086e-20)
(25.7635 2.50062 2.0618e-19)
(25.763 2.50166 1.22966e-19)
(25.7623 2.50276 8.77251e-21)
(25.7616 2.50391 3.75502e-20)
(25.7608 2.50514 6.17861e-20)
(25.7599 2.50643 0)
(25.7588 2.50779 1.56806e-19)
(25.7576 2.50923 -1.47438e-19)
(25.7563 2.51075 -8.209e-21)
(25.7549 2.51237 1.05541e-18)
(25.7534 2.51408 -1.02329e-18)
(25.7517 2.5159 -2.87256e-19)
(25.75 2.51782 1.17401e-19)
(25.7481 2.51987 1.82162e-19)
(25.7461 2.52204 1.25031e-18)
(25.7439 2.52435 1.21048e-18)
(25.7417 2.5268 -3.90028e-19)
(25.7393 2.52941 1.22603e-19)
(25.7369 2.53219 -8.02258e-20)
(25.7343 2.53514 1.15991e-19)
(25.7316 2.53828 -5.79814e-18)
(25.7288 2.54163 5.25895e-19)
(25.726 2.54519 4.61559e-19)
(25.723 2.54898 -1.75859e-19)
(25.7199 2.55301 -1.04827e-18)
(25.7168 2.5573 -5.25097e-19)
(25.7136 2.56186 -1.32776e-18)
(25.7103 2.56671 4.98608e-18)
(25.7069 2.57186 -1.0171e-18)
(25.7035 2.57733 -1.47306e-19)
(25.7 2.58314 -5.53697e-18)
(25.6965 2.5893 1.11932e-17)
(25.6929 2.59583 -6.62655e-18)
(25.6893 2.60274 4.42414e-19)
(25.6857 2.61006 9.31751e-18)
(25.6821 2.61779 8.33864e-18)
(25.6785 2.62596 -5.20596e-19)
(25.675 2.63457 7.15607e-19)
(25.6716 2.64364 -8.22111e-18)
(25.6682 2.65318 -2.92236e-17)
(25.665 2.6632 -5.24705e-19)
(25.6619 2.67371 -3.30974e-18)
(25.659 2.68471 3.5701e-18)
(25.6564 2.69622 -1.20588e-17)
(25.654 2.70822 -1.08488e-18)
(25.6519 2.72072 3.1689e-18)
(25.6501 2.73371 2.56335e-17)
(25.6486 2.74716 -1.02294e-17)
(25.6473 2.76107 -4.3432e-19)
(25.6462 2.7754 -2.47986e-17)
(25.6453 2.79014 3.28219e-17)
(25.6446 2.80524 4.30952e-17)
(25.6441 2.8207 1.05087e-16)
(25.6439 2.83648 -1.79564e-18)
(25.644 2.85255 -9.62631e-17)
(25.6444 2.86887 2.43606e-17)
(25.6449 2.8854 2.44725e-18)
(25.6456 2.90207 -5.83564e-17)
(25.6461 2.91883 -1.36292e-16)
(25.6463 2.93561 -1.21178e-16)
(25.6461 2.95238 7.25116e-17)
(25.6455 2.96912 -3.91786e-18)
(25.6444 2.98567 2.73092e-17)
(25.643 2.99994 -6.87195e-18)
(25.6416 3.01218 1.96189e-19)
(25.64 3.02521 2.03496e-19)
(25.6382 3.03875 -1.09748e-16)
(25.6359 3.05296 -1.06782e-16)
(25.6321 3.06773 -8.2512e-18)
(25.6246 3.08183 -4.68289e-18)
(25.6103 3.099 0)
(25.5924 3.10423 -2.5361e-17)
(25.5732 3.14551 -6.00008e-18)
(25.5968 3.09313 -1.33079e-16)
(25.6324 3.30508 -7.25599e-17)
(25.7624 2.92727 -1.03172e-18)
(25.7837 2.53908 -5.59074e-19)
(25.7834 2.54003 -1.06634e-19)
(25.7832 2.54042 1.70268e-20)
(25.7829 2.54126 4.63613e-19)
(25.7826 2.54201 -8.3235e-20)
(25.7822 2.54286 -2.20506e-19)
(25.7816 2.54373 1.03387e-19)
(25.7811 2.54465 7.38275e-21)
(25.7804 2.54563 2.49742e-19)
(25.7796 2.54666 1.42942e-18)
(25.7788 2.54774 0)
(25.7778 2.5489 9.43795e-19)
(25.7768 2.55011 -1.34769e-18)
(25.7756 2.5514 -1.03211e-18)
(25.7744 2.55277 1.6853e-18)
(25.773 2.55422 5.87495e-19)
(25.7716 2.55576 -2.44233e-19)
(25.77 2.55739 2.87333e-18)
(25.7684 2.55912 2.49096e-18)
(25.7666 2.56097 -1.53068e-18)
(25.7648 2.56293 -4.33341e-19)
(25.7628 2.56501 -6.97234e-18)
(25.7608 2.56724 1.05174e-19)
(25.7587 2.5696 -1.98856e-18)
(25.7564 2.57212 9.98448e-20)
(25.7541 2.5748 5.25363e-19)
(25.7517 2.57765 -2.77205e-19)
(25.7492 2.5807 3.9958e-19)
(25.7466 2.58394 6.38011e-21)
(25.7439 2.58739 1.35712e-18)
(25.7411 2.59107 -4.57529e-19)
(25.7383 2.59499 -1.15962e-18)
(25.7353 2.59916 -5.60331e-18)
(25.7323 2.60359 -8.92759e-19)
(25.7293 2.60832 -1.29642e-19)
(25.7262 2.61334 1.09006e-18)
(25.723 2.61867 -8.96769e-18)
(25.7198 2.62434 6.83977e-18)
(25.7165 2.63035 3.94045e-19)
(25.7132 2.63673 -1.66992e-17)
(25.7099 2.64349 7.50871e-18)
(25.7065 2.65064 -6.89196e-18)
(25.7032 2.65821 6.46434e-19)
(25.6999 2.6662 -3.37565e-17)
(25.6967 2.67464 5.81844e-18)
(25.6936 2.68352 -4.79727e-19)
(25.6906 2.69288 -3.03897e-18)
(25.6877 2.70271 2.07502e-17)
(25.685 2.71303 1.16802e-17)
(25.6826 2.72383 4.48634e-19)
(25.6803 2.73513 5.34433e-17)
(25.6783 2.74691 -3.96637e-18)
(25.6764 2.75916 2.10088e-17)
(25.6748 2.77188 1.64659e-17)
(25.6732 2.78504 7.52594e-18)
(25.6718 2.79863 3.47865e-17)
(25.6706 2.81263 2.08698e-17)
(25.6695 2.82702 -1.18182e-16)
(25.6686 2.84178 8.27485e-17)
(25.668 2.85689 1.32784e-16)
(25.6677 2.87231 -2.35953e-17)
(25.6675 2.88799 1.2183e-16)
(25.6673 2.90389 -3.24819e-17)
(25.6669 2.91994 -2.86117e-17)
(25.6661 2.9361 2.85633e-16)
(25.665 2.95231 1.3201e-18)
(25.6635 2.9686 -1.71186e-17)
(25.6615 2.98478 -2.02677e-18)
(25.6593 2.99881 -5.73567e-17)
(25.6572 3.0109 2.02076e-19)
(25.6549 3.02381 -4.59291e-17)
(25.6525 3.03731 1.00055e-16)
(25.6495 3.05152 9.24237e-17)
(25.6447 3.0663 -2.57897e-17)
(25.636 3.08063 -4.93657e-18)
(25.6205 3.09751 0)
(25.6018 3.10415 3.07127e-16)
(25.5833 3.14343 -1.04129e-16)
(25.6097 3.09693 1.23051e-16)
(25.6454 3.30203 2.3147e-18)
(25.7783 2.93343 -4.81905e-16)
(25.8003 2.5786 3.65009e-19)
(25.8 2.5794 -9.0967e-20)
(25.7998 2.57972 1.45333e-20)
(25.7995 2.58043 -3.82908e-19)
(25.7991 2.58106 2.51835e-20)
(25.7987 2.58178 1.53176e-19)
(25.7982 2.58251 8.84667e-20)
(25.7976 2.5833 6.32155e-21)
(25.797 2.58412 6.94117e-21)
(25.7963 2.585 -8.30044e-20)
(25.7955 2.58592 0)
(25.7947 2.5869 -6.62945e-19)
(25.7938 2.58794 1.0646e-18)
(25.7927 2.58904 1.37644e-18)
(25.7917 2.5902 5.56167e-19)
(25.7905 2.59143 -7.63433e-19)
(25.7892 2.59275 -2.10689e-19)
(25.7879 2.59414 -1.76741e-19)
(25.7865 2.59562 -8.79079e-20)
(25.785 2.5972 9.4535e-19)
(25.7834 2.59887 9.08183e-19)
(25.7817 2.60066 3.46794e-19)
(25.78 2.60256 2.83401e-18)
(25.7781 2.60458 1.79654e-18)
(25.7762 2.60674 8.69434e-20)
(25.7742 2.60903 3.16779e-18)
(25.7721 2.61148 -6.75151e-18)
(25.77 2.6141 2.34206e-18)
(25.7677 2.61688 2.86517e-18)
(25.7654 2.61985 5.76968e-18)
(25.763 2.62301 -8.39587e-18)
(25.7605 2.62639 -1.36418e-17)
(25.758 2.62998 -2.24678e-18)
(25.7554 2.63382 -4.64267e-18)
(25.7527 2.63789 6.41746e-18)
(25.7499 2.64224 8.32744e-18)
(25.7471 2.64687 6.57435e-18)
(25.7442 2.65179 -2.86799e-18)
(25.7413 2.65702 1.99937e-18)
(25.7383 2.66259 1.62369e-17)
(25.7353 2.66849 -8.66934e-18)
(25.7322 2.67476 1.01306e-17)
(25.7292 2.68141 -2.91384e-18)
(25.7261 2.68845 3.12848e-17)
(25.7231 2.6959 2.28625e-17)
(25.7202 2.70377 2.97177e-17)
(25.7173 2.71208 -7.23089e-19)
(25.7145 2.72085 3.22763e-17)
(25.7119 2.73008 1.81896e-17)
(25.7095 2.73979 1.70582e-17)
(25.7072 2.74997 -1.39765e-17)
(25.705 2.76063 -4.43101e-17)
(25.703 2.77176 4.37441e-17)
(25.7011 2.78336 -1.83605e-18)
(25.6992 2.79541 -5.6048e-17)
(25.6975 2.80791 -5.50922e-17)
(25.6958 2.82084 -2.80217e-19)
(25.6942 2.83419 -1.12269e-17)
(25.6928 2.84795 -1.31186e-16)
(25.6917 2.86211 -5.68468e-18)
(25.6907 2.87662 -6.6256e-19)
(25.6898 2.89145 -2.01246e-17)
(25.6889 2.90656 2.85708e-17)
(25.6877 2.92188 1.01584e-17)
(25.6861 2.93739 -1.0027e-17)
(25.6841 2.95304 -2.66288e-18)
(25.6817 2.96883 2.00348e-17)
(25.6789 2.98461 7.0457e-17)
(25.676 2.99836 4.59757e-18)
(25.6733 3.01027 2.07635e-19)
(25.6704 3.02305 4.25487e-17)
(25.6673 3.03646 -3.69068e-18)
(25.6636 3.05064 -7.37175e-18)
(25.6579 3.0654 -8.10559e-18)
(25.648 3.07991 -5.19603e-18)
(25.6312 3.09648 0)
(25.6119 3.1046 -2.71805e-16)
(25.5941 3.14161 1.10699e-16)
(25.6239 3.10172 -7.40741e-17)
(25.6586 3.29864 -4.58463e-18)
(25.7963 2.94057 3.83005e-16)
(25.8189 2.62376 -3.95805e-20)
(25.8186 2.62441 -1.61322e-19)
(25.8183 2.62467 -1.03022e-19)
(25.818 2.62525 8.40597e-20)
(25.8177 2.62576 -7.73054e-20)
(25.8173 2.62634 1.28456e-19)
(25.8168 2.62695 9.19199e-19)
(25.8163 2.62758 1.19724e-19)
(25.8158 2.62826 3.45695e-19)
(25.8152 2.62898 -1.28896e-19)
(25.8145 2.62973 0)
(25.8138 2.63053 5.23225e-19)
(25.813 2.63138 -1.22377e-18)
(25.8122 2.63228 4.87323e-21)
(25.8113 2.63323 -1.7814e-18)
(25.8103 2.63425 -1.12588e-18)
(25.8093 2.63533 -1.35722e-18)
(25.8082 2.63647 -1.0845e-18)
(25.8071 2.6377 -4.3823e-19)
(25.8058 2.63899 -2.44115e-18)
(25.8046 2.64038 3.43159e-18)
(25.8032 2.64185 1.75038e-18)
(25.8018 2.64341 -3.24133e-19)
(25.8003 2.64509 -3.01704e-19)
(25.7987 2.64687 9.9912e-19)
(25.7971 2.64877 1.03614e-18)
(25.7954 2.6508 3.12834e-18)
(25.7936 2.65296 2.29534e-18)
(25.7918 2.65527 -3.54953e-18)
(25.7899 2.65773 -5.32507e-18)
(25.7879 2.66036 2.40382e-18)
(25.7858 2.66317 1.56557e-18)
(25.7837 2.66617 1.04158e-18)
(25.7815 2.66937 -8.4688e-18)
(25.7793 2.67277 -7.75779e-18)
(25.7769 2.67641 -1.44511e-18)
(25.7745 2.68029 5.77856e-18)
(25.7721 2.68443 3.4094e-18)
(25.7695 2.68883 -8.61639e-18)
(25.7669 2.69352 -1.22072e-17)
(25.7643 2.69852 1.068e-18)
(25.7616 2.70383 -1.68926e-17)
(25.7589 2.70949 7.58541e-18)
(25.7562 2.71549 -1.54481e-17)
(25.7535 2.72187 1.45242e-17)
(25.7508 2.72863 -4.65213e-17)
(25.7481 2.7358 2.5288e-19)
(25.7456 2.74339 4.74e-18)
(25.7431 2.75141 -3.84606e-17)
(25.7407 2.75987 -1.76981e-17)
(25.7384 2.7688 -2.97558e-17)
(25.7362 2.77818 -7.58948e-18)
(25.734 2.78802 -5.42011e-17)
(25.7319 2.79833 -4.33132e-17)
(25.7297 2.80909 5.18396e-17)
(25.7276 2.8203 3.86035e-17)
(25.7255 2.83198 -1.94939e-17)
(25.7234 2.8441 6.91789e-17)
(25.7215 2.85666 9.87092e-17)
(25.7198 2.86967 -1.31479e-17)
(25.7181 2.88308 3.29065e-17)
(25.7164 2.89687 -1.10079e-16)
(25.7146 2.911 -5.63665e-17)
(25.7125 2.92543 1.14784e-16)
(25.71 2.94011 -2.40496e-16)
(25.707 2.95504 -3.24461e-17)
(25.7037 2.97019 1.22858e-16)
(25.6998 2.98544 -1.07816e-16)
(25.696 2.99883 4.55471e-17)
(25.6926 3.01049 1.1463e-17)
(25.689 3.02305 -5.12493e-18)
(25.6852 3.03632 -1.37976e-16)
(25.6805 3.05043 -1.5776e-16)
(25.6736 3.06511 -1.00366e-16)
(25.6622 3.07979 -6.96289e-17)
(25.644 3.0959 0)
(25.6239 3.10587 2.38356e-16)
(25.6073 3.13982 -1.54934e-16)
(25.6402 3.10822 -1.90094e-16)
(25.6749 3.29468 1.2745e-16)
(25.8136 2.94833 1.39838e-16)
(25.8382 2.67113 -1.54205e-19)
(25.8379 2.67163 -2.82099e-19)
(25.8377 2.67185 3.44809e-19)
(25.8374 2.6723 -2.60359e-20)
(25.8371 2.67271 -5.45297e-20)
(25.8368 2.67318 -3.49845e-19)
(25.8364 2.67366 -2.64179e-19)
(25.836 2.67417 1.37073e-19)
(25.8355 2.67471 -3.17647e-19)
(25.8351 2.67529 -5.34378e-19)
(25.8345 2.67589 0)
(25.834 2.67654 3.58663e-19)
(25.8334 2.67722 4.4646e-19)
(25.8327 2.67794 1.71956e-19)
(25.8321 2.67871 1.657e-19)
(25.8313 2.67953 5.76733e-19)
(25.8305 2.6804 -3.9219e-19)
(25.8297 2.68132 -4.1493e-19)
(25.8288 2.68231 9.99845e-20)
(25.8279 2.68335 1.11887e-18)
(25.827 2.68447 -2.79519e-18)
(25.8259 2.68566 -8.63796e-19)
(25.8249 2.68692 2.5375e-19)
(25.8237 2.68827 -5.30689e-19)
(25.8225 2.68971 -2.11021e-18)
(25.8213 2.69125 -1.68077e-18)
(25.82 2.69289 -2.05102e-18)
(25.8187 2.69464 9.453e-19)
(25.8173 2.69651 -2.41839e-18)
(25.8158 2.69851 2.02289e-18)
(25.8143 2.70064 1.92933e-18)
(25.8127 2.70292 1.10544e-18)
(25.811 2.70536 -6.63549e-19)
(25.8093 2.70795 1.05789e-18)
(25.8075 2.71073 -8.44368e-19)
(25.8056 2.7137 -3.99963e-18)
(25.8037 2.71686 -7.50662e-18)
(25.8017 2.72025 -5.32292e-18)
(25.7997 2.72386 1.14889e-17)
(25.7975 2.72771 1.87267e-17)
(25.7953 2.73182 -1.08214e-17)
(25.7931 2.73622 1.10477e-17)
(25.7908 2.74089 1.15587e-18)
(25.7885 2.74588 7.80346e-18)
(25.7862 2.7512 -1.73098e-17)
(25.7838 2.75685 2.59432e-17)
(25.7815 2.76287 -8.662e-18)
(25.7792 2.76926 2.65147e-18)
(25.7769 2.77606 3.7525e-17)
(25.7747 2.78325 -1.27384e-17)
(25.7725 2.79088 5.73758e-18)
(25.7703 2.79893 2.94692e-17)
(25.7681 2.80742 -2.7937e-17)
(25.7658 2.81635 4.73945e-17)
(25.7634 2.82574 -3.04886e-17)
(25.761 2.83558 1.19868e-17)
(25.7585 2.84588 5.10043e-17)
(25.7561 2.85666 -5.39249e-17)
(25.7537 2.8679 -7.07322e-17)
(25.7514 2.87963 -3.74105e-17)
(25.7491 2.8918 -9.83735e-17)
(25.7466 2.90441 4.74445e-17)
(25.7439 2.91741 2.3263e-17)
(25.7409 2.93079 -5.84681e-18)
(25.7374 2.94452 1.17811e-16)
(25.7334 2.95858 -9.7438e-18)
(25.729 2.97297 -1.84343e-16)
(25.724 2.98757 9.63412e-17)
(25.7193 3.00049 6.37794e-17)
(25.7151 3.01183 -3.27838e-18)
(25.7107 3.02412 3.7708e-17)
(25.706 3.03718 -2.86351e-18)
(25.7002 3.05115 2.92266e-17)
(25.6919 3.0657 -4.38517e-17)
(25.6787 3.08048 -1.44651e-18)
(25.659 3.09614 0)
(25.638 3.10803 -2.18581e-16)
(25.6235 3.13885 1.66893e-16)
(25.6578 3.116 3.83103e-17)
(25.6962 3.29187 -1.21551e-16)
(25.8265 2.95761 9.32022e-17)
(25.8547 2.7114 7.39326e-20)
(25.8545 2.7118 7.49315e-21)
(25.8543 2.71199 -1.68517e-19)
(25.8541 2.71236 -4.57194e-20)
(25.8538 2.71269 -2.87544e-20)
(25.8536 2.71308 -2.41792e-20)
(25.8533 2.71346 -4.65652e-20)
(25.853 2.71388 -1.93258e-19)
(25.8526 2.71433 1.82428e-19)
(25.8523 2.71479 4.44337e-19)
(25.8519 2.71529 0)
(25.8515 2.71582 -6.3383e-20)
(25.851 2.71638 2.52908e-19)
(25.8505 2.71697 -1.73963e-19)
(25.85 2.71761 6.36682e-19)
(25.8495 2.71828 -8.25037e-19)
(25.8489 2.71899 6.79529e-19)
(25.8483 2.71976 -1.46421e-19)
(25.8477 2.72056 7.04833e-20)
(25.847 2.72142 -3.52385e-19)
(25.8463 2.72235 1.57268e-18)
(25.8456 2.72333 1.48129e-18)
(25.8448 2.72437 1.40473e-19)
(25.844 2.72548 5.93314e-19)
(25.8431 2.72667 2.05552e-18)
(25.8422 2.72793 1.68749e-18)
(25.8412 2.72929 1.0856e-18)
(25.8402 2.73073 -4.14581e-18)
(25.8392 2.73228 4.11627e-18)
(25.8381 2.73393 1.78549e-18)
(25.837 2.73569 -3.66069e-18)
(25.8358 2.73757 2.07577e-19)
(25.8345 2.73959 -1.4925e-18)
(25.8332 2.74174 4.87488e-18)
(25.8318 2.74404 3.15583e-18)
(25.8304 2.7465 -5.81436e-19)
(25.8289 2.74913 -7.73262e-19)
(25.8273 2.75194 2.3282e-18)
(25.8257 2.75496 2.21488e-19)
(25.824 2.75817 -6.70907e-18)
(25.8223 2.76161 4.29066e-18)
(25.8205 2.76528 3.27663e-18)
(25.8186 2.76921 -6.57344e-18)
(25.8167 2.77341 -2.32409e-18)
(25.8148 2.77789 -3.16269e-18)
(25.8129 2.78267 -1.02344e-18)
(25.811 2.78778 -5.44404e-18)
(25.809 2.79323 -5.98443e-18)
(25.8071 2.79903 -2.28915e-17)
(25.8051 2.8052 2.06702e-17)
(25.8031 2.81176 2.98183e-17)
(25.8011 2.81872 -2.93548e-17)
(25.7989 2.82609 3.40882e-17)
(25.7967 2.83388 -2.30286e-17)
(25.7943 2.8421 2.54751e-17)
(25.7918 2.85076 -4.24788e-17)
(25.7892 2.85989 -3.34881e-17)
(25.7865 2.86949 3.33567e-17)
(25.7839 2.87958 1.19964e-17)
(25.7812 2.89016 -1.47395e-17)
(25.7785 2.90121 9.76458e-17)
(25.7755 2.91273 -5.41122e-18)
(25.7722 2.9247 8.49691e-18)
(25.7684 2.9371 2.52935e-17)
(25.7642 2.94991 8.43642e-19)
(25.7594 2.96315 9.85058e-17)
(25.7541 2.97679 1.52239e-16)
(25.7482 2.99074 -7.55636e-17)
(25.7428 3.00319 -4.94847e-18)
(25.738 3.0142 -1.35447e-17)
(25.7329 3.02619 8.37711e-18)
(25.7274 3.03903 8.11707e-18)
(25.7206 3.05282 4.0522e-17)
(25.7109 3.06723 4.18436e-17)
(25.696 3.08203 -2.63062e-17)
(25.6748 3.09735 0)
(25.6532 3.11097 -4.70527e-17)
(25.6412 3.13921 -1.68908e-16)
(25.6766 3.12451 9.17876e-17)
(25.7197 3.29111 1.65507e-16)
(25.8383 2.96924 -8.97494e-17)
(25.8699 2.74568 -7.44099e-20)
(25.8701 2.74555 7.89709e-20)
(25.8697 2.74601 -1.94042e-21)
(25.8695 2.74618 -8.11868e-21)
(25.8694 2.74648 8.33034e-20)
(25.8692 2.74677 7.68207e-20)
(25.869 2.74708 9.94973e-20)
(25.8688 2.74741 9.03027e-20)
(25.8686 2.74776 -1.30088e-19)
(25.8683 2.74813 -1.32891e-19)
(25.8681 2.74852 -3.45189e-19)
(25.8678 2.74894 0)
(25.8675 2.74938 -6.4436e-21)
(25.8672 2.74985 -3.69541e-19)
(25.8669 2.75035 -5.28418e-19)
(25.8665 2.75089 -5.66468e-19)
(25.8662 2.75145 5.27908e-19)
(25.8658 2.75205 -2.99763e-19)
(25.8653 2.75269 5.83703e-19)
(25.8649 2.75337 3.37079e-20)
(25.8644 2.7541 3.56854e-20)
(25.864 2.75487 -6.97769e-19)
(25.8634 2.75569 -4.66986e-19)
(25.8629 2.75657 -1.51558e-18)
(25.8623 2.7575 -5.30232e-20)
(25.8617 2.7585 2.31354e-20)
(25.8611 2.75957 1.13245e-18)
(25.8604 2.76071 8.19355e-19)
(25.8597 2.76192 8.01922e-19)
(25.859 2.76322 -1.95428e-18)
(25.8582 2.76461 -1.71871e-19)
(25.8574 2.76609 2.88012e-18)
(25.8565 2.76767 -2.05019e-18)
(25.8556 2.76937 -3.97761e-19)
(25.8547 2.77118 -6.2397e-19)
(25.8537 2.77312 5.60106e-19)
(25.8526 2.77519 2.07335e-18)
(25.8515 2.77741 8.10332e-19)
(25.8503 2.77979 9.944e-19)
(25.8491 2.78234 -1.3949e-18)
(25.8478 2.78506 3.6866e-19)
(25.8464 2.78797 1.56661e-18)
(25.8451 2.79109 -4.66605e-18)
(25.8436 2.79444 7.60759e-18)
(25.8422 2.79802 1.48096e-18)
(25.8407 2.80185 3.8083e-18)
(25.8391 2.80595 -2.62233e-18)
(25.8376 2.81034 -1.00657e-17)
(25.836 2.81504 -1.08877e-17)
(25.8345 2.82005 7.12541e-18)
(25.8328 2.8254 -8.39441e-18)
(25.8311 2.8311 -1.79205e-17)
(25.8293 2.83717 7.77227e-18)
(25.8273 2.84361 -7.00644e-18)
(25.8252 2.85046 4.00485e-18)
(25.8228 2.85771 -2.30399e-17)
(25.8204 2.86539 4.03009e-17)
(25.8178 2.87353 -9.06126e-18)
(25.8152 2.88214 -1.92518e-17)
(25.8125 2.89123 -2.90954e-17)
(25.8096 2.90082 -4.70544e-19)
(25.8066 2.9109 -2.54062e-17)
(25.8033 2.92146 8.24344e-18)
(25.7996 2.9325 -3.54763e-17)
(25.7953 2.94402 -3.04631e-17)
(25.7905 2.95601 8.75507e-18)
(25.7851 2.96848 -3.04056e-17)
(25.7791 2.98141 -7.27871e-17)
(25.7726 2.99477 3.80503e-17)
(25.7665 3.00677 -4.27652e-17)
(25.7613 3.01745 9.06114e-18)
(25.7556 3.02916 -4.6758e-17)
(25.7494 3.04178 1.37346e-17)
(25.7416 3.05537 -6.22886e-17)
(25.7306 3.06965 -4.93674e-17)
(25.714 3.08443 2.40093e-17)
(25.6916 3.09955 0)
(25.6697 3.11478 6.31213e-17)
(25.6607 3.14102 -4.38339e-17)
(25.6974 3.13408 1.26644e-16)
(25.7446 3.29223 -9.19924e-17)
(25.8514 2.98386 -1.11318e-16)
(25.8838 2.77455 -1.22726e-19)
(25.884 2.77442 -1.50034e-19)
(25.8837 2.77484 2.7568e-20)
(25.8836 2.77499 1.18935e-20)
(25.8835 2.77525 3.31819e-20)
(25.8834 2.7755 3.08769e-20)
(25.8833 2.77577 7.08709e-20)
(25.8832 2.77606 1.75673e-21)
(25.883 2.77636 1.22435e-19)
(25.8829 2.77669 -2.19574e-20)
(25.8827 2.77703 7.61371e-21)
(25.8826 2.77739 0)
(25.8824 2.77778 5.22203e-20)
(25.8822 2.77819 2.557e-19)
(25.882 2.77862 1.54702e-19)
(25.8818 2.77908 1.24298e-19)
(25.8816 2.77957 3.47806e-20)
(25.8814 2.78009 -9.41659e-20)
(25.8811 2.78065 -3.4968e-19)
(25.8809 2.78124 2.5456e-21)
(25.8806 2.78187 1.54342e-19)
(25.8803 2.78253 -2.4909e-19)
(25.88 2.78324 1.22083e-20)
(25.8796 2.78401 -1.05205e-19)
(25.8793 2.78481 -3.63081e-19)
(25.8789 2.78568 -3.58788e-19)
(25.8785 2.78659 -1.00067e-18)
(25.8781 2.78758 -7.0125e-19)
(25.8777 2.78863 1.78926e-18)
(25.8772 2.78974 4.57391e-19)
(25.8767 2.79094 -1.60384e-18)
(25.8762 2.79221 -9.32852e-19)
(25.8756 2.79358 2.33958e-18)
(25.875 2.79504 -7.22704e-19)
(25.8744 2.7966 9.74729e-19)
(25.8737 2.79827 -9.02827e-19)
(25.873 2.80005 -8.65635e-19)
(25.8722 2.80196 3.3612e-18)
(25.8714 2.80401 4.6987e-19)
(25.8705 2.8062 -2.51321e-18)
(25.8696 2.80855 -2.64626e-18)
(25.8687 2.81107 2.4926e-18)
(25.8677 2.81377 1.47533e-18)
(25.8666 2.81667 -3.56167e-18)
(25.8656 2.81977 5.77139e-18)
(25.8645 2.8231 -5.69314e-18)
(25.8634 2.82668 -3.05041e-18)
(25.8623 2.8305 -1.2221e-18)
(25.8611 2.8346 5.58681e-19)
(25.8598 2.83899 -2.83312e-18)
(25.8585 2.84369 -1.0306e-17)
(25.8571 2.8487 1.47966e-17)
(25.8555 2.85406 -7.05888e-18)
(25.8538 2.85976 -4.08081e-18)
(25.8519 2.86583 -1.0602e-17)
(25.8497 2.8723 6.91415e-18)
(25.8474 2.87918 -1.84787e-17)
(25.845 2.8865 5.45855e-18)
(25.8425 2.89428 1.1466e-17)
(25.8398 2.90254 2.1066e-17)
(25.8369 2.91129 -4.83222e-19)
(25.8338 2.92053 -8.80945e-18)
(25.8303 2.93028 -3.03496e-18)
(25.8262 2.94052 2.83225e-17)
(25.8216 2.95126 4.61513e-17)
(25.8164 2.96252 -1.00278e-17)
(25.8106 2.97431 -5.23481e-19)
(25.8041 2.98662 -8.48499e-18)
(25.7971 2.99943 -4.54966e-17)
(25.7906 3.01103 1.82424e-17)
(25.785 3.02143 -1.23711e-18)
(25.7789 3.03288 3.89312e-18)
(25.7721 3.04528 7.07881e-17)
(25.7634 3.05869 3.19177e-17)
(25.751 3.07285 2.0789e-17)
(25.7329 3.08761 2.67314e-17)
(25.7095 3.10269 0)
(25.6879 3.11945 6.52487e-17)
(25.6822 3.14425 -3.23388e-18)
(25.7207 3.14486 -3.24698e-17)
(25.7714 3.29512 -4.22519e-17)
(25.866 3.00187 -9.4972e-17)
(25.898 2.79841 -1.83915e-20)
(25.898 2.79827 3.34886e-21)
(25.8979 2.79866 -1.02293e-19)
(25.8979 2.7988 4.19843e-20)
(25.8978 2.79903 5.81607e-21)
(25.8978 2.79925 -8.36304e-20)
(25.8977 2.79949 -1.05961e-19)
(25.8977 2.79974 -8.54713e-20)
(25.8976 2.80001 -5.90274e-20)
(25.8976 2.80029 3.54231e-20)
(25.8975 2.80059 2.75805e-20)
(25.8975 2.80091 0)
(25.8974 2.80125 -1.59782e-19)
(25.8973 2.80161 -5.77016e-20)
(25.8972 2.802 2.56978e-19)
(25.8971 2.8024 7.83509e-20)
(25.897 2.80283 2.11189e-19)
(25.8969 2.80329 2.4978e-19)
(25.8968 2.80378 7.44217e-20)
(25.8967 2.80431 -2.63314e-19)
(25.8966 2.80486 -1.35752e-19)
(25.8965 2.80545 3.00945e-19)
(25.8963 2.80608 1.86335e-19)
(25.8962 2.80675 3.08886e-19)
(25.896 2.80747 -2.29046e-20)
(25.8958 2.80823 -2.17296e-19)
(25.8956 2.80904 -8.25851e-19)
(25.8954 2.80992 5.6219e-19)
(25.8952 2.81084 -8.02955e-19)
(25.895 2.81183 3.4057e-19)
(25.8947 2.81289 -9.18064e-21)
(25.8944 2.81402 8.99532e-19)
(25.8941 2.81523 -8.63896e-19)
(25.8938 2.81652 1.39732e-18)
(25.8934 2.8179 -2.73156e-19)
(25.893 2.81937 -5.73393e-19)
(25.8926 2.82096 9.26702e-19)
(25.8921 2.82265 -4.64745e-19)
(25.8916 2.82446 1.17462e-18)
(25.8911 2.82641 1.25827e-18)
(25.8905 2.82849 1.4555e-18)
(25.8899 2.83072 -5.0574e-19)
(25.8893 2.83312 -1.28269e-18)
(25.8886 2.83569 -1.1807e-18)