/*--------------------------------*- C++ -*----------------------------------*\
| =========                 |                                                 |
| \\      /  F ield         | OpenFOAM: The Open Source CFD Toolbox           |
|  \\    /   O peration     | Version:  2306                                  |
|   \\  /    A nd           | Website:  www.openfoam.com                      |
|    \\/     M anipulation  |                                                 |
\*---------------------------------------------------------------------------*/
FoamFile
{
    version     2.0;
    format      ascii;
    arch        "LSB;label=32;scalar=64";
    class       volScalarField;
    location    "325";
    object      magR;
}
// * * * * * * * * * * * * * * * * * * * * * * * * * * * * * * * * * * * * * //

dimensions      [0 2 -2 0 0 0 0];

internalField   nonuniform List<scalar> 
1340
(
0.000597566
0.000602092
0.000605593
0.000507823
0.000512378
0.000516223
0.000518688
0.000519704
0.00043446
0.000438905
0.000442863
0.000445835
0.000447767
0.000448516
0.000447721
0.000373729
0.000377955
0.000381849
0.00038502
0.000387442
0.000389002
0.000389375
0.000388446
0.00032305
0.000327011
0.000330752
0.000333962
0.000336654
0.000338699
0.000339829
0.00033996
0.000339
0.000280418
0.0002841
0.000287621
0.000290763
0.00029356
0.000295857
0.000297453
0.00029828
0.000298242
0.000244321
0.000247712
0.000250991
0.000254014
0.000256797
0.00025921
0.000261082
0.000262359
0.000262955
0.000262747
0.000213571
0.00021667
0.000219709
0.00022257
0.000225272
0.000227702
0.000229716
0.000231259
0.000232266
0.00023263
0.00023229
0.000187231
0.000190052
0.000192858
0.00019553
0.000198117
0.000200496
0.000202555
0.000204248
0.000205519
0.000206273
0.000206467
0.000164558
0.000167129
0.000169698
0.000172186
0.000174627
0.000176921
0.000178958
0.000180717
0.000182139
0.000183147
0.000183697
0.000183744
0.000144961
0.000147297
0.000149647
0.000151946
0.000154234
0.00015641
0.000158392
0.000160153
0.000161647
0.000162809
0.000163605
0.000163992
0.000127962
0.000130078
0.000132222
0.000134339
0.000136468
0.000138513
0.00014041
0.000142135
0.000143648
0.000144894
0.000145845
0.000146464
0.000146705
0.000113159
0.00011508
0.000117028
0.000118974
0.000120943
0.000122852
0.000124648
0.00012631
0.000127803
0.00012908
0.000130119
0.00013089
0.000131352
0.000100234
0.000101971
0.000103743
0.000105526
0.000107338
0.000109113
0.000110797
0.00011238
0.000113826
0.0001151
0.000116182
0.000117047
0.00011766
0.000117997
8.89148e-05
9.04855e-05
9.2096e-05
9.3723e-05
9.53884e-05
9.70284e-05
9.86e-05
0.000100091
0.000101475
0.000102717
0.000103807
0.000104718
0.000105428
0.000105913
7.89773e-05
8.03961e-05
8.18598e-05
8.3342e-05
8.48682e-05
8.63783e-05
8.78357e-05
8.9232e-05
9.05412e-05
9.17373e-05
9.28095e-05
9.37376e-05
9.45023e-05
9.50824e-05
7.02337e-05
7.1515e-05
7.28421e-05
7.41918e-05
7.55861e-05
7.69729e-05
7.83179e-05
7.96186e-05
8.08477e-05
8.19865e-05
8.30237e-05
8.3946e-05
8.47331e-05
8.53716e-05
8.5842e-05
6.25239e-05
6.36816e-05
6.48831e-05
6.61102e-05
6.73823e-05
6.86512e-05
6.98901e-05
7.10946e-05
7.22425e-05
7.33161e-05
7.4308e-05
7.52066e-05
7.59956e-05
7.66646e-05
7.71954e-05
5.5713e-05
5.67595e-05
5.78459e-05
5.89604e-05
6.01196e-05
6.12778e-05
6.24162e-05
6.35263e-05
6.45931e-05
6.55982e-05
6.65378e-05
6.73999e-05
6.81751e-05
6.88518e-05
6.94157e-05
4.96871e-05
5.06311e-05
5.16139e-05
5.26245e-05
5.36783e-05
5.4735e-05
5.57769e-05
5.67977e-05
5.77836e-05
5.87198e-05
5.96021e-05
6.04227e-05
6.11722e-05
6.18417e-05
6.24201e-05
6.28938e-05
4.43471e-05
4.51979e-05
4.60864e-05
4.70025e-05
4.79587e-05
4.89215e-05
4.9873e-05
5.08094e-05
5.17174e-05
5.25855e-05
5.34094e-05
5.41832e-05
5.48984e-05
5.55498e-05
5.61259e-05
5.6618e-05
3.96078e-05
4.0375e-05
4.11772e-05
4.20067e-05
4.28743e-05
4.37494e-05
4.4617e-05
4.54741e-05
4.63078e-05
4.7109e-05
4.78742e-05
4.85985e-05
4.92752e-05
4.99e-05
5.0465e-05
5.09609e-05
3.47761e-05
3.5397e-05
3.60879e-05
3.6812e-05
3.75622e-05
3.83484e-05
3.91427e-05
3.99325e-05
4.07152e-05
4.14785e-05
4.22155e-05
4.29232e-05
4.35973e-05
4.42331e-05
4.48266e-05
4.53714e-05
4.586e-05
4.6283e-05
3.10921e-05
3.16509e-05
3.22726e-05
3.29261e-05
3.36041e-05
3.43156e-05
3.50361e-05
3.57541e-05
3.64671e-05
3.7165e-05
3.7841e-05
3.84929e-05
3.91174e-05
3.97105e-05
4.02692e-05
4.07888e-05
4.12627e-05
4.16838e-05
2.78122e-05
2.83147e-05
2.8874e-05
2.94633e-05
3.00755e-05
3.07192e-05
3.13718e-05
3.20237e-05
3.26725e-05
3.33094e-05
3.39275e-05
3.45261e-05
3.51025e-05
3.5653e-05
3.61756e-05
3.66663e-05
3.712e-05
3.75308e-05
2.48893e-05
2.53408e-05
2.58437e-05
2.63746e-05
2.69273e-05
2.75088e-05
2.80994e-05
2.86904e-05
2.92802e-05
2.986e-05
3.04243e-05
3.09727e-05
3.15026e-05
3.20112e-05
3.24969e-05
3.29569e-05
3.33871e-05
3.37819e-05
3.41352e-05
2.22822e-05
2.26875e-05
2.31394e-05
2.36175e-05
2.41161e-05
2.4641e-05
2.51753e-05
2.5711e-05
2.62462e-05
2.67728e-05
2.72871e-05
2.77881e-05
2.82736e-05
2.87417e-05
2.91912e-05
2.96197e-05
3.00237e-05
3.0399e-05
3.07402e-05
1.99548e-05
2.03184e-05
2.07243e-05
2.11544e-05
2.16039e-05
2.20777e-05
2.25605e-05
2.30456e-05
2.35302e-05
2.40085e-05
2.44764e-05
2.49333e-05
2.53771e-05
2.58063e-05
2.62206e-05
2.66174e-05
2.69942e-05
2.73474e-05
2.76728e-05
1.78755e-05
1.82016e-05
1.85659e-05
1.89525e-05
1.93576e-05
1.97849e-05
2.02209e-05
2.06595e-05
2.10985e-05
2.15324e-05
2.19576e-05
2.2373e-05
2.27777e-05
2.31703e-05
2.35507e-05
2.39166e-05
2.42659e-05
2.45959e-05
2.49028e-05
1.60166e-05
1.63088e-05
1.66355e-05
1.6983e-05
1.73478e-05
1.7733e-05
1.81266e-05
1.8523e-05
1.89205e-05
1.93134e-05
1.96989e-05
2.00765e-05
2.04449e-05
2.08032e-05
2.1151e-05
2.14869e-05
2.18093e-05
2.21155e-05
2.24023e-05
1.43539e-05
1.46154e-05
1.49081e-05
1.52204e-05
1.55486e-05
1.58958e-05
1.62509e-05
1.66092e-05
1.69684e-05
1.73242e-05
1.76736e-05
1.80164e-05
1.83511e-05
1.86773e-05
1.89945e-05
1.93018e-05
1.95979e-05
1.98803e-05
2.01465e-05
2.03928e-05
1.28656e-05
1.30995e-05
1.33615e-05
1.3642e-05
1.39373e-05
1.42501e-05
1.45703e-05
1.4894e-05
1.52189e-05
1.55407e-05
1.58572e-05
1.61677e-05
1.64714e-05
1.67678e-05
1.70565e-05
1.73368e-05
1.76076e-05
1.78668e-05
1.81123e-05
1.83409e-05
1.15328e-05
1.17418e-05
1.19762e-05
1.22281e-05
1.24936e-05
1.27753e-05
1.30643e-05
1.33564e-05
1.36501e-05
1.39411e-05
1.42274e-05
1.45086e-05
1.47839e-05
1.50527e-05
1.5315e-05
1.557e-05
1.58167e-05
1.60537e-05
1.62789e-05
1.64895e-05
1.03386e-05
1.05252e-05
1.07348e-05
1.09608e-05
1.11997e-05
1.14533e-05
1.17139e-05
1.19777e-05
1.2243e-05
1.25062e-05
1.27653e-05
1.30198e-05
1.32689e-05
1.35125e-05
1.37503e-05
1.39817e-05
1.42059e-05
1.44218e-05
1.46272e-05
1.48202e-05
9.26828e-06
9.43452e-06
9.62195e-06
9.82463e-06
1.00395e-05
1.02679e-05
1.0503e-05
1.07413e-05
1.0981e-05
1.1219e-05
1.14533e-05
1.16835e-05
1.1909e-05
1.21293e-05
1.23446e-05
1.25542e-05
1.27575e-05
1.29533e-05
1.31402e-05
1.33159e-05
8.30846e-06
8.45647e-06
8.62392e-06
8.80569e-06
8.99892e-06
9.20467e-06
9.41684e-06
9.63209e-06
9.8489e-06
1.0064e-05
1.0276e-05
1.04843e-05
1.06882e-05
1.08874e-05
1.1082e-05
1.12715e-05
1.14554e-05
1.16327e-05
1.18019e-05
1.19612e-05
1.21081e-05
7.44742e-06
7.57908e-06
7.72857e-06
7.89163e-06
8.06538e-06
8.25084e-06
8.44239e-06
8.637e-06
8.83314e-06
9.02782e-06
9.21957e-06
9.40796e-06
9.59223e-06
9.77233e-06
9.94819e-06
1.01194e-05
1.02853e-05
1.04453e-05
1.05981e-05
1.07419e-05
1.08747e-05
6.67473e-06
6.79173e-06
6.92516e-06
7.07139e-06
7.22772e-06
7.39497e-06
7.56804e-06
7.7442e-06
7.92175e-06
8.09797e-06
8.27155e-06
8.44197e-06
8.60861e-06
8.77136e-06
8.93014e-06
9.08458e-06
9.23423e-06
9.37843e-06
9.51596e-06
9.6454e-06
9.76484e-06
5.98113e-06
6.085e-06
6.20402e-06
6.33517e-06
6.47592e-06
6.62687e-06
6.78344e-06
6.94299e-06
7.10387e-06
7.26362e-06
7.42087e-06
7.5752e-06
7.72594e-06
7.87303e-06
8.01631e-06
8.15556e-06
8.29035e-06
8.41999e-06
8.54355e-06
8.65969e-06
8.76669e-06
5.35833e-06
5.45045e-06
5.55658e-06
5.67423e-06
5.80107e-06
5.93746e-06
6.07931e-06
6.224e-06
6.37002e-06
6.515e-06
6.65763e-06
6.79745e-06
6.93391e-06
7.06681e-06
7.19616e-06
7.32167e-06
7.44294e-06
7.55938e-06
7.67019e-06
7.77415e-06
7.86967e-06
4.79896e-06
4.88056e-06
4.97517e-06
5.0808e-06
5.19516e-06
5.31861e-06
5.44731e-06
5.5788e-06
5.71157e-06
5.8433e-06
5.97282e-06
6.09964e-06
6.22326e-06
6.3435e-06
6.46031e-06
6.5734e-06
6.68248e-06
6.787e-06
6.88621e-06
6.97905e-06
7.06414e-06
7.14015e-06
4.29645e-06
4.36865e-06
4.453e-06
4.54787e-06
4.65114e-06
4.76305e-06
4.88007e-06
4.9998e-06
5.12072e-06
5.24063e-06
5.35845e-06
5.47366e-06
5.58579e-06
5.69466e-06
5.80019e-06
5.90214e-06
6.00027e-06
6.09402e-06
6.18273e-06
6.2655e-06
6.34111e-06
6.40833e-06
3.84493e-06
3.90874e-06
3.98393e-06
4.06922e-06
4.16264e-06
4.26431e-06
4.37094e-06
4.48019e-06
4.59055e-06
4.69996e-06
4.80735e-06
4.9122e-06
5.01405e-06
5.11272e-06
5.20814e-06
5.30013e-06
5.38841e-06
5.47247e-06
5.55174e-06
5.62546e-06
5.69249e-06
5.75177e-06
3.43913e-06
3.49548e-06
3.56249e-06
3.63927e-06
3.72396e-06
3.81654e-06
3.91397e-06
4.01391e-06
4.11489e-06
4.21495e-06
4.31301e-06
4.40863e-06
4.50132e-06
4.5909e-06
4.67729e-06
4.76033e-06
4.83976e-06
4.91516e-06
4.98602e-06
5.05159e-06
5.11092e-06
5.1631e-06
3.07439e-06
3.12407e-06
3.18381e-06
3.25306e-06
3.33e-06
3.41454e-06
3.50382e-06
3.5955e-06
3.68815e-06
3.77988e-06
3.86967e-06
3.95705e-06
4.04155e-06
4.12301e-06
4.20136e-06
4.27641e-06
4.34796e-06
4.41565e-06
4.47898e-06
4.53726e-06
4.58972e-06
4.63556e-06
2.7465e-06
2.79023e-06
2.84354e-06
2.9061e-06
2.97619e-06
3.05366e-06
3.1357e-06
3.22007e-06
3.30533e-06
3.38968e-06
3.47211e-06
3.55215e-06
3.62935e-06
3.70357e-06
3.77476e-06
3.84271e-06
3.90723e-06
3.96802e-06
4.02462e-06
4.07645e-06
4.12282e-06
4.16302e-06
2.4517e-06
2.49016e-06
2.53774e-06
2.5944e-06
2.65848e-06
2.72969e-06
2.80534e-06
2.88323e-06
2.96194e-06
3.03973e-06
3.11561e-06
3.18911e-06
3.25983e-06
3.32762e-06
3.3924e-06
3.45403e-06
3.51231e-06
3.56698e-06
3.61762e-06
3.66375e-06
3.70472e-06
3.73994e-06
2.18664e-06
2.22041e-06
2.26292e-06
2.3144e-06
2.3732e-06
2.43886e-06
2.50888e-06
2.58104e-06
2.65394e-06
2.72588e-06
2.79593e-06
2.86365e-06
2.92861e-06
2.99066e-06
3.04975e-06
3.10578e-06
3.15857e-06
3.20783e-06
3.25323e-06
3.29432e-06
3.33054e-06
3.36138e-06
3.38632e-06
1.94832e-06
1.97792e-06
2.01594e-06
2.06289e-06
2.11703e-06
2.17782e-06
2.24287e-06
2.30995e-06
2.37769e-06
2.44444e-06
2.50933e-06
2.5719e-06
2.63173e-06
2.68869e-06
2.74276e-06
2.79384e-06
2.84177e-06
2.88629e-06
2.92708e-06
2.96374e-06
2.9958e-06
3.02281e-06
3.04438e-06
1.73403e-06
1.75993e-06
1.794e-06
1.837e-06
1.88704e-06
1.94354e-06
2.00421e-06
2.06677e-06
2.12994e-06
2.19209e-06
2.25239e-06
2.3104e-06
2.36566e-06
2.4181e-06
2.46773e-06
2.51446e-06
2.55812e-06
2.59844e-06
2.63515e-06
2.66789e-06
2.69626e-06
2.71992e-06
2.73853e-06
1.54137e-06
1.56398e-06
1.59459e-06
1.63416e-06
1.68057e-06
1.73332e-06
1.79011e-06
1.84863e-06
1.90775e-06
1.96578e-06
2.02201e-06
2.076e-06
2.12722e-06
2.17562e-06
2.22132e-06
2.26418e-06
2.30398e-06
2.3405e-06
2.37349e-06
2.40267e-06
2.42773e-06
2.44838e-06
2.4644e-06
1.36817e-06
1.38786e-06
1.41546e-06
1.45204e-06
1.49526e-06
1.54474e-06
1.59805e-06
1.65295e-06
1.70848e-06
1.76278e-06
1.81543e-06
1.86591e-06
1.91351e-06
1.95826e-06
2.00036e-06
2.03962e-06
2.07579e-06
2.1087e-06
2.13819e-06
2.16408e-06
2.18609e-06
2.20404e-06
2.21777e-06
1.21248e-06
1.2296e-06
1.25458e-06
1.28857e-06
1.32898e-06
1.3756e-06
1.42576e-06
1.47745e-06
1.52978e-06
1.58064e-06
1.63025e-06
1.67767e-06
1.72183e-06
1.76305e-06
1.80167e-06
1.83746e-06
1.87013e-06
1.89962e-06
1.92589e-06
1.94878e-06
1.96806e-06
1.98361e-06
1.99533e-06
1.07259e-06
1.08748e-06
1.11017e-06
1.14191e-06
1.1798e-06
1.22395e-06
1.27114e-06
1.32003e-06
1.36945e-06
1.41708e-06
1.46439e-06
1.5091e-06
1.5496e-06
1.5871e-06
1.62233e-06
1.65485e-06
1.68431e-06
1.71078e-06
1.73427e-06
1.75462e-06
1.77162e-06
1.78513e-06
1.79512e-06
9.47019e-07
9.59974e-07
9.80688e-07
1.01042e-06
1.04607e-06
1.08803e-06
1.13226e-06
1.17882e-06
1.22536e-06
1.26981e-06
1.31564e-06
1.35774e-06
1.39421e-06
1.42801e-06
1.46029e-06
1.49012e-06
1.51699e-06
1.54106e-06
1.56236e-06
1.58067e-06
1.59577e-06
1.60755e-06
1.61603e-06
8.34378e-07
8.45658e-07
8.64681e-07
8.92643e-07
9.26351e-07
9.66331e-07
1.00751e-06
1.05242e-06
1.09547e-06
1.13678e-06
1.18194e-06
1.22105e-06
1.2533e-06
1.28421e-06
1.31459e-06
1.34254e-06
1.36748e-06
1.38975e-06
1.40935e-06
1.426e-06
1.4395e-06
1.44979e-06
1.45695e-06
1.46125e-06
7.33541e-07
7.43334e-07
7.60951e-07
7.87403e-07
8.19445e-07
8.57537e-07
8.9579e-07
9.39848e-07
9.7722e-07
1.01714e-06
1.06383e-06
1.09828e-06
1.12515e-06
1.15446e-06
1.18432e-06
1.21092e-06
1.23417e-06
1.25488e-06
1.27302e-06
1.28821e-06
1.30028e-06
1.30925e-06
1.3153e-06
1.31867e-06
6.44839e-07
6.53278e-07
6.69655e-07
6.94588e-07
7.2489e-07
7.6069e-07
7.96048e-07
8.39143e-07
8.67595e-07
9.09608e-07
9.60645e-07
9.88834e-07
1.00836e-06
1.03749e-06
1.06854e-06
1.09441e-06
1.11614e-06
1.1355e-06
1.15239e-06
1.16629e-06
1.17706e-06
1.18486e-06
1.18996e-06
1.19277e-06
5.7363e-07
5.80801e-07
5.95679e-07
6.18192e-07
6.45726e-07
6.77247e-07
7.08302e-07
7.46892e-07
7.64405e-07
8.08414e-07
8.62244e-07
8.85259e-07
9.01169e-07
9.33355e-07
9.6796e-07
9.95207e-07
1.01729e-06
1.0369e-06
1.05398e-06
1.06788e-06
1.07853e-06
1.08608e-06
1.0909e-06
1.09345e-06
5.17304e-07
5.23311e-07
5.36245e-07
5.55618e-07
5.79344e-07
6.04981e-07
6.30727e-07
6.60671e-07
6.70799e-07
7.08758e-07
7.61355e-07
7.83049e-07
8.02275e-07
8.3857e-07
8.76712e-07
9.06842e-07
9.31147e-07
9.525e-07
9.7104e-07
9.86101e-07
9.97569e-07
1.00561e-06
1.0107e-06
1.01312e-06
4.65712e-07
4.70755e-07
4.81843e-07
4.98354e-07
5.18408e-07
5.38684e-07
5.59745e-07
5.81128e-07
5.86865e-07
6.1506e-07
6.6365e-07
6.85869e-07
7.11097e-07
7.4995e-07
7.89889e-07
8.22574e-07
8.49272e-07
8.72382e-07
8.92271e-07
9.08373e-07
9.2051e-07
9.28938e-07
9.34206e-07
9.36787e-07
4.15326e-07
4.19577e-07
4.29037e-07
4.43026e-07
4.59718e-07
4.75449e-07
4.92598e-07
5.06586e-07
5.09575e-07
5.29707e-07
5.74256e-07
5.96291e-07
6.27504e-07
6.68274e-07
7.08877e-07
7.43176e-07
7.71718e-07
7.9614e-07
8.16922e-07
8.33738e-07
8.46374e-07
8.55091e-07
8.60352e-07
8.6259e-07
3.67446e-07
3.71036e-07
3.79021e-07
3.90727e-07
4.04224e-07
4.16107e-07
4.29623e-07
4.37248e-07
4.38363e-07
4.51652e-07
4.92333e-07
5.13427e-07
5.50199e-07
5.92768e-07
6.33411e-07
6.68502e-07
6.98362e-07
7.23777e-07
7.4515e-07
7.62349e-07
7.75256e-07
7.84197e-07
7.89738e-07
7.92493e-07
3.22324e-07
3.25346e-07
3.3192e-07
3.4145e-07
3.51844e-07
3.60525e-07
3.70431e-07
3.72871e-07
3.72653e-07
3.80171e-07
4.17172e-07
4.37177e-07
4.78614e-07
5.22739e-07
5.63191e-07
5.98595e-07
6.29386e-07
6.55635e-07
6.77507e-07
6.94894e-07
7.07611e-07
7.15766e-07
7.19696e-07
7.20131e-07
2.80557e-07
2.83036e-07
2.88096e-07
2.95288e-07
3.02509e-07
3.0842e-07
3.14537e-07
3.13336e-07
3.11978e-07
3.14802e-07
3.47952e-07
3.67238e-07
4.1227e-07
4.57776e-07
4.98149e-07
5.33689e-07
5.65103e-07
5.91994e-07
6.14382e-07
6.32394e-07
6.46179e-07
6.56137e-07
6.6302e-07
6.67556e-07
2.42567e-07
2.44515e-07
2.47923e-07
2.52417e-07
2.56216e-07
2.59261e-07
2.61102e-07
2.58113e-07
2.55196e-07
2.55064e-07
2.84431e-07
3.0376e-07
3.51145e-07
3.97861e-07
4.3841e-07
4.7422e-07
5.06287e-07
5.33543e-07
5.55296e-07
5.71436e-07
5.8194e-07
5.8677e-07
5.86205e-07
5.81659e-07
5.75465e-07
2.08332e-07
2.09824e-07
2.11558e-07
2.13111e-07
2.13268e-07
2.12834e-07
2.09746e-07
2.06492e-07
2.00177e-07
2.0081e-07
2.27299e-07
2.47173e-07
2.95858e-07
3.4369e-07
3.84304e-07
4.20282e-07
4.53751e-07
4.83752e-07
5.09343e-07
5.3051e-07
5.47846e-07
5.62576e-07
5.76254e-07
5.88905e-07
5.98101e-07
1.78047e-07
1.78957e-07
1.78593e-07
1.76732e-07
1.73104e-07
1.68832e-07
1.61572e-07
1.59409e-07
1.47585e-07
1.56911e-07
1.79038e-07
1.9786e-07
2.4711e-07
2.96515e-07
3.3729e-07
3.72084e-07
4.0336e-07
4.30317e-07
4.5203e-07
4.68109e-07
4.77873e-07
4.80767e-07
4.77633e-07
4.72676e-07
4.71334e-07
1.54018e-07
1.53592e-07
1.4937e-07
1.42076e-07
1.33315e-07
1.24958e-07
1.16653e-07
1.18078e-07
1.04578e-07
1.32974e-07
1.4383e-07
1.57037e-07
2.03797e-07
2.53988e-07
2.98999e-07
3.42585e-07
3.86207e-07
4.28124e-07
4.67411e-07
5.04974e-07
5.42964e-07
5.84127e-07
6.29039e-07
6.71274e-07
7.01586e-07
1.39782e-07
1.37355e-07
1.27738e-07
1.12424e-07
9.49315e-08
7.91575e-08
7.06862e-08
7.78141e-08
7.5542e-08
1.20673e-07
1.2317e-07
1.33749e-07
1.71906e-07
2.1462e-07
2.57489e-07
3.06529e-07
3.62086e-07
4.20838e-07
4.80216e-07
5.38417e-07
5.93387e-07
6.43307e-07
6.87475e-07
7.24457e-07
7.54968e-07
1.332e-07
1.29457e-07
1.1628e-07
9.49646e-08
6.84933e-08
4.01903e-08
2.60928e-08
4.39139e-08
6.44364e-08
9.96282e-08
8.453e-08
1.331e-07
2.11571e-07
2.97021e-07
3.86212e-07
4.78949e-07
5.75196e-07
6.7389e-07
7.72769e-07
8.69075e-07
9.5841e-07
1.0349e-06
1.0913e-06
1.12439e-06
1.14688e-06
)
;

boundaryField
{
    inlet
    {
        type            calculated;
        value           nonuniform List<scalar> 
25
(
1.33892e-07
1.29879e-07
1.16283e-07
9.41642e-08
6.60189e-08
3.47445e-08
2.22337e-08
4.97928e-08
8.10561e-08
7.5773e-08
1.58048e-07
3.00178e-07
5.13488e-07
7.71773e-07
1.06633e-06
1.39349e-06
1.75158e-06
2.13739e-06
2.54619e-06
2.97111e-06
3.40239e-06
3.82462e-06
4.21914e-06
4.56491e-06
4.85683e-06
)
;
    }
    outlet
    {
        type            calculated;
        value           nonuniform List<scalar> 0();
    }
    walls
    {
        type            calculated;
        value           nonuniform List<scalar> 0();
    }
    frontAndBack
    {
        type            empty;
    }
    procBoundary4to0
    {
        type            processor;
        value           nonuniform List<scalar> 
72
(
0.00059214
0.000502743
0.000429728
0.000369372
0.000319072
0.000276812
0.000241052
0.000210608
0.000184552
0.000162145
0.000142788
0.000126002
0.000111394
9.86427e-05
8.7482e-05
7.76875e-05
6.9071e-05
6.14762e-05
5.47702e-05
4.88376e-05
4.35813e-05
3.89184e-05
3.89184e-05
3.41772e-05
3.05552e-05
2.7331e-05
2.44582e-05
2.18959e-05
1.96092e-05
1.75666e-05
1.57407e-05
1.41076e-05
1.26461e-05
1.13374e-05
1.0165e-05
9.11412e-06
8.17181e-06
7.32652e-06
6.56798e-06
5.88707e-06
5.27563e-06
4.72641e-06
4.23295e-06
3.78951e-06
3.39092e-06
3.03258e-06
2.71038e-06
2.42063e-06
2.16003e-06
1.92565e-06
1.71485e-06
1.52525e-06
1.35473e-06
1.20138e-06
1.06357e-06
9.39813e-07
8.28747e-07
7.2923e-07
6.4152e-07
5.70846e-07
5.1485e-07
4.63602e-07
4.1354e-07
3.65943e-07
3.21017e-07
2.79321e-07
2.41263e-07
2.06816e-07
1.76075e-07
1.51245e-07
1.36158e-07
1.29213e-07
)
;
    }
    procBoundary4to5
    {
        type            processor;
        value           nonuniform List<scalar> 
95
(
0.000707931
0.000711964
0.000714482
0.000607222
0.000607222
0.0006068
0.000519101
0.000519101
0.00051649
0.000445257
0.000445257
0.000386145
0.000386145
0.000336787
0.000297204
0.000297204
0.000261667
0.000261667
0.000231192
0.000206034
0.000206034
0.00018322
0.000163917
0.000163917
0.000146533
0.00013148
0.00013148
0.000118026
0.000106144
9.54561e-05
9.54561e-05
8.61208e-05
7.75686e-05
6.98525e-05
6.98525e-05
6.3248e-05
5.70127e-05
5.13765e-05
5.13765e-05
4.66315e-05
4.20435e-05
3.78906e-05
3.78906e-05
3.44392e-05
3.10405e-05
2.79641e-05
2.51813e-05
2.26656e-05
2.26656e-05
2.0615e-05
1.85488e-05
1.66821e-05
1.49973e-05
1.34777e-05
1.34777e-05
1.22404e-05
1.09943e-05
9.8724e-06
8.86288e-06
7.95535e-06
7.95535e-06
7.20508e-06
6.46546e-06
5.80189e-06
5.20693e-06
4.67375e-06
4.19622e-06
3.76873e-06
3.76873e-06
3.40508e-06
3.06035e-06
2.75205e-06
2.4758e-06
2.22737e-06
2.00332e-06
1.80175e-06
1.62143e-06
1.62143e-06
1.46315e-06
1.31981e-06
1.19362e-06
1.09402e-06
1.01335e-06
9.37255e-07
8.62522e-07
7.93185e-07
7.18143e-07
6.69924e-07
6.69924e-07
5.693e-07
6.02942e-07
4.74283e-07
7.1936e-07
7.84746e-07
1.14921e-06
)
;
    }
}


// ************************************************************************* //
