/*--------------------------------*- C++ -*----------------------------------*\
| =========                 |                                                 |
| \\      /  F ield         | OpenFOAM: The Open Source CFD Toolbox           |
|  \\    /   O peration     | Version:  2306                                  |
|   \\  /    A nd           | Website:  www.openfoam.com                      |
|    \\/     M anipulation  |                                                 |
\*---------------------------------------------------------------------------*/
FoamFile
{
    version     2.0;
    format      ascii;
    arch        "LSB;label=32;scalar=64";
    class       surfaceScalarField;
    location    "325";
    object      phi;
}
// * * * * * * * * * * * * * * * * * * * * * * * * * * * * * * * * * * * * * //

dimensions      [0 3 -1 0 0 0 0];

oriented        oriented;

internalField   nonuniform List<scalar> 
2584
(
0.249699
-0.249966
0.284345
-0.272633
-0.243368
0.253562
-0.281976
0.29014
-0.30921
0.321944
-0.275173
0.353021
-0.26778
-0.256262
0.258144
-0.315748
0.296762
-0.347829
0.330173
-0.308584
0.362865
-0.300472
0.394741
-0.288138
0.423283
-0.258413
-0.23595
0.26323
-0.351383
0.30401
-0.388609
0.339277
-0.343851
0.373725
-0.33492
0.407246
-0.321658
0.437212
-0.288379
0.464778
-0.263516
-0.236911
0.268892
-0.388985
0.311974
-0.431692
0.349135
-0.381012
0.38537
-0.371155
0.420655
-0.356943
0.452173
-0.319898
0.481059
-0.292402
0.50737
-0.263222
-0.232128
0.275082
-0.428613
0.320581
-0.477191
0.359702
-0.420133
0.397874
-0.409327
0.435116
-0.394185
0.468168
-0.35295
0.498505
-0.322739
0.52618
-0.290897
-0.25664
0.281794
-0.470374
0.329811
-0.525208
0.371003
-0.461325
0.411297
-0.449621
0.450499
-0.433387
0.485262
-0.387713
0.517163
-0.35464
0.54614
-0.319874
0.571757
-0.282257
-0.25069
0.288977
-0.514467
0.339678
-0.575909
0.383109
-0.504756
0.425568
-0.49208
0.46681
-0.47463
0.503434
-0.424338
0.536952
-0.388158
0.567317
-0.350239
0.594173
-0.309112
0.618411
-0.274929
-0.241303
0.296771
-0.561004
0.350165
-0.629303
0.396063
-0.550654
0.440696
-0.536713
0.484213
-0.518146
0.522691
-0.462816
0.55793
-0.423396
0.589842
-0.382151
0.618012
-0.337282
0.643241
-0.300158
-0.263935
0.304955
-0.610015
0.361417
-0.685765
0.409632
-0.598869
0.456789
-0.58387
0.502577
-0.563934
0.543167
-0.503406
0.580142
-0.460371
0.613642
-0.415651
0.64315
-0.36679
0.669663
-0.326671
0.69323
-0.287502
-0.250386
0.313716
-0.661702
0.373235
-0.745284
0.424174
-0.649808
0.473779
-0.633475
0.522099
-0.612254
0.564711
-0.546018
0.603643
-0.499303
0.638845
-0.450854
0.669842
-0.397787
0.697536
-0.354365
0.722259
-0.312225
-0.272269
0.323052
-0.716243
0.385839
-0.808071
0.439474
-0.703443
0.491803
-0.685804
0.542641
-0.663092
0.587554
-0.590931
0.628497
-0.540246
0.665492
-0.487848
0.697914
-0.430209
0.726992
-0.383444
0.752779
-0.338012
0.775638
-0.295128
-0.256067
0.332891
-0.773727
0.399131
-0.874311
0.45569
-0.760002
0.510797
-0.740911
0.564392
-0.716688
0.611638
-0.638176
0.65477
-0.583379
0.693607
-0.526685
0.727723
-0.464325
0.75813
-0.413851
0.785154
-0.365036
0.809031
-0.319005
-0.277226
0.343353
-0.834391
0.413187
-0.944145
0.472728
-0.819544
0.530914
-0.799096
0.587329
-0.773103
0.637095
-0.687942
0.682378
-0.628662
0.723314
-0.567621
0.75907
-0.50008
0.791
-0.445781
0.81926
-0.393295
0.8442
-0.343946
0.866343
-0.299369
-0.255558
0.354352
-0.89832
0.42801
-1.0178
0.49083
-0.882364
0.552048
-0.860314
0.611516
-0.832571
0.663917
-0.740343
0.711654
-0.676399
0.754557
-0.610525
0.792133
-0.537656
0.825593
-0.479242
0.855254
-0.422957
0.881347
-0.370038
0.904474
-0.322495
-0.275867
0.366001
-0.965703
0.443664
-1.09547
0.509891
-0.94859
0.574397
-0.92482
0.63708
-0.895254
0.692254
-0.795517
0.742417
-0.726563
0.787601
-0.655708
0.827069
-0.577124
0.862196
-0.514369
0.893218
-0.453978
0.920458
-0.397278
0.944622
-0.34666
-0.297032
0.378241
-1.03673
0.460131
-1.17736
0.529922
-1.01838
0.597921
-0.992819
0.663945
-0.961278
0.722057
-0.853628
0.774873
-0.779379
0.822394
-0.703229
0.863825
-0.618555
0.900709
-0.551252
0.933253
-0.486522
0.961801
-0.425827
0.987047
-0.371906
1.00912
-0.319108
-0.2688
0.39123
-1.11168
0.477558
-1.26368
0.551128
-1.09195
0.622784
-1.06448
0.692329
-1.03082
0.75351
-0.914809
0.809097
-0.834966
0.859103
-0.753235
0.902651
-0.662104
0.941335
-0.589936
0.975398
-0.520584
1.00537
-0.455797
1.03155
-0.398086
1.05481
-0.342374
-0.288838
0.40482
-1.1906
0.495899
-1.35476
0.573394
-1.16945
0.648911
-1.13999
0.722212
-1.10413
0.786578
-0.979175
0.845135
-0.893523
0.897692
-0.805793
0.943481
-0.707892
0.98405
-0.630506
1.01994
-0.556478
1.05102
-0.486876
1.07882
-0.42588
1.10274
-0.3663
-0.309808
0.419227
-1.27386
0.515202
-1.45074
0.596879
-1.25112
0.676444
-1.21956
0.753668
-1.18135
0.821515
-1.04702
0.883119
-0.955127
0.938407
-0.861081
0.986652
-0.756137
1.0293
-0.673158
1.06668
-0.593856
1.09965
-0.519843
1.12831
-0.454543
1.15352
-0.391506
1.17525
-0.331539
-0.272294
0.434371
-1.36163
0.535531
-1.5519
0.621652
-1.33724
0.705512
-1.30342
0.786842
-1.26268
0.858309
-1.11849
0.923163
-1.01998
0.981345
-0.919263
1.03182
-0.806611
1.07677
-0.718111
1.11614
-0.63322
1.15046
-0.554169
1.18068
-0.484764
1.20693
-0.417752
1.22968
-0.354294
-0.291848
0.450288
-1.45413
0.556968
-1.65858
0.647699
-1.42798
0.736057
-1.39178
0.821778
-1.3484
0.897026
-1.19374
0.965291
-1.08825
1.02649
-0.980461
1.07981
-0.859928
1.12681
-0.76511
1.16819
-0.674608
1.20421
-0.590189
1.23582
-0.516375
1.2633
-0.445229
1.28691
-0.377901
-0.312096
0.369552
-1.53631
0.467093
-1.55168
0.579535
-1.77102
0.675156
-1.5236
0.768269
-1.48489
0.858577
-1.43871
0.937807
-1.27297
1.00969
-1.16013
1.07418
-1.04496
1.13008
-0.915823
1.17965
-0.814679
1.22293
-0.717895
1.26072
-0.627979
1.29381
-0.549458
1.32252
-0.473945
1.34739
-0.40277
1.36837
-0.333079
-0.264583
0.381969
-1.63834
0.484784
-1.65449
0.60329
-1.88952
0.70409
-1.62439
0.802216
-1.58301
0.897362
-1.53385
0.980857
-1.35646
1.05654
-1.23581
1.12429
-1.11271
1.18312
-0.974651
1.2352
-0.866759
1.28078
-0.763471
1.32038
-0.667587
1.35509
-0.584166
1.38502
-0.503877
1.41095
-0.428695
1.43287
-0.354998
-0.28288
0.395016
-1.74591
0.503403
-1.76288
0.628349
-2.01447
0.73457
-1.73062
0.837949
-1.68639
0.938215
-1.63412
1.02611
-1.44436
1.10584
-1.31554
1.17716
-1.18403
1.23917
-1.03666
1.29374
-0.921328
1.34155
-0.811277
1.38316
-0.709197
1.41954
-0.620548
1.45102
-0.535363
1.47787
-0.455545
1.50082
-0.377943
-0.301997
0.408738
-1.85927
0.523005
-1.87714
0.654696
-2.14616
0.766661
-1.84258
0.875606
-1.79534
0.981215
-1.73973
1.07386
-1.537
1.15764
-1.39932
1.2329
-1.25929
1.29793
-1.10169
1.35551
-0.978909
1.40577
-0.861535
1.44943
-0.752861
1.48739
-0.658508
1.5203
-0.56827
1.5487
-0.483945
1.57256
-0.401808
1.59227
-0.321705
-0.241847
0.423203
-1.97883
0.543628
-1.99757
0.682481
-2.28502
0.80048
-1.96058
0.915296
-1.91015
1.02656
-1.85099
1.12401
-1.63445
1.21245
-1.48777
1.29164
-1.33847
1.36011
-1.17017
1.42041
-1.03921
1.4734
-0.914527
1.51923
-0.798696
1.55921
-0.698488
1.59363
-0.602686
1.62313
-0.513449
1.64812
-0.426796
1.66872
-0.342301
-0.25833
0.438398
-2.10486
0.565356
-2.12453
0.71169
-2.43135
0.836069
-2.08496
0.957045
-2.03113
1.07429
-1.96824
1.17709
-1.73725
1.27023
-1.5809
1.35335
-1.42159
1.4255
-1.24232
1.48911
-1.10281
1.54459
-0.970002
1.5926
-0.846708
1.63458
-0.740466
1.67062
-0.63873
1.7016
-0.544431
1.72755
-0.452742
1.74912
-0.363875
-0.275357
0.454418
-2.2377
0.588244
-2.25835
0.742551
-2.58566
0.873605
-2.21601
1.00111
-2.15864
1.1247
-2.09183
1.23296
-1.84551
1.33087
-1.67882
1.4185
-1.50922
1.49443
-1.31825
1.56133
-1.16971
1.6196
-1.02827
1.67023
-0.897338
1.71404
-0.784284
1.75208
-0.67677
1.78424
-0.576587
1.81152
-0.480023
1.83386
-0.386211
-0.293272
0.471245
-2.37776
0.612367
-2.39948
0.774978
-2.74827
0.913113
-2.35415
1.04752
-2.29305
1.17766
-2.22196
1.29174
-1.95959
1.39488
-1.78195
1.48723
-1.60158
1.56708
-1.39809
1.63738
-1.24001
1.69877
-1.08967
1.75169
-0.950262
1.79802
-0.83061
1.83756
-0.71631
1.87143
-0.610459
1.89986
-0.508449
1.92325
-0.409598
-0.311781
0.488986
-2.52543
0.637716
-2.54821
0.809166
-2.91972
0.954761
-2.49974
1.09633
-2.43462
1.23359
-2.35922
1.35358
-2.07958
1.46237
-1.89074
1.55947
-1.69868
1.64351
-1.48213
1.71754
-1.31404
1.78211
-1.15424
1.83791
-1.00606
1.88623
-0.878926
1.92797
-0.758054
1.96346
-0.645945
1.99312
-0.538117
2.0174
-0.433875
2.03665
-0.331032
-0.230633
0.50764
-2.68111
0.664461
-2.70503
0.845197
-3.10045
0.998653
-2.6532
1.14794
-2.58391
1.29243
-2.50371
1.41906
-2.20621
1.53355
-2.00523
1.63584
-1.80097
1.72431
-1.57059
1.80215
-1.39188
1.86994
-1.22203
1.92863
-1.06475
1.97949
-0.929789
2.02308
-0.801648
2.06033
-0.68319
2.09147
-0.569261
2.11682
-0.459228
2.13694
-0.351148
-0.245383
0.527318
-2.84527
0.692626
-2.87033
0.88314
-3.29097
1.04491
-2.81497
1.20222
-2.74122
1.35453
-2.65602
1.48781
-2.3395
1.60844
-2.12585
1.71623
-1.90877
1.80929
-1.66366
1.89122
-1.47381
1.96261
-1.29342
2.02421
-1.12634
2.07766
-0.983237
2.12347
-0.847462
2.16241
-0.722123
2.19489
-0.601745
2.22153
-0.48587
2.24231
-0.371921
-0.260998
0.547995
-3.01831
0.722306
-3.04464
0.923128
-3.49179
1.09367
-2.98551
1.25936
-2.90691
1.41996
-2.81662
1.56047
-2.48001
1.68755
-2.25293
1.8009
-2.02212
1.89905
-1.7618
1.98518
-1.55994
2.06023
-1.36847
2.125
-1.19111
2.18117
-1.03941
2.2293
-0.895589
2.27001
-0.762838
2.30411
-0.635848
2.33182
-0.513575
2.3536
-0.393707
-0.277271
0.569792
-3.20078
0.753541
-3.22839
0.96528
-3.70353
1.14495
-3.16519
1.31977
-3.08172
1.48892
-2.98577
1.63687
-2.62796
1.77067
-2.38672
1.89033
-2.14179
1.99346
-1.86493
2.08425
-1.65074
2.16308
-1.4473
2.23132
-1.25935
2.29026
-1.09835
2.34079
-0.946119
2.38366
-0.805706
2.41941
-0.671597
2.4483
-0.542463
2.4711
-0.41651
-0.293862
0.592735
-3.39317
0.786464
-3.42212
1.00971
-3.92678
1.19922
-3.3547
1.38337
-3.26587
1.56152
-3.16392
1.71766
-2.78409
1.85852
-2.52759
1.98433
-2.2676
2.09309
-1.97368
2.18855
-1.7462
2.2717
-1.53045
2.34332
-1.33097
2.40537
-1.1604
2.45837
-0.999122
2.50319
-0.850523
2.54063
-0.709041
2.57115
-0.572978
2.59474
-0.440109
2.61218
-0.311293
-0.186621
0.616927
-3.59601
0.82119
-3.62639
1.05649
-4.16208
1.25616
-3.55437
1.45032
-3.46003
1.63821
-3.35181
1.80247
-2.94835
1.95104
-2.67615
2.08373
-2.40029
2.19817
-2.08813
2.29877
-1.8468
2.38617
-1.61785
2.46136
-1.40616
2.52652
-1.22556
2.58234
-1.05494
2.62958
-0.897771
2.66871
-0.748164
2.70046
-0.604735
2.72523
-0.464879
2.74335
-0.329406
-0.198479
0.642394
-3.80991
0.857733
-3.84172
1.10585
-4.4102
1.31642
-3.76494
1.52091
-3.66452
1.71903
-3.54993
1.89216
-3.12148
2.04875
-2.83274
2.18821
-2.53976
2.3088
-2.20871
2.41467
-1.95267
2.5066
-1.70978
2.58589
-1.48545
2.65448
-1.29414
2.71293
-1.11339
2.76245
-0.947294
2.80369
-0.789405
2.83695
-0.637995
2.86268
-0.490604
2.88167
-0.3484
-0.210868
0.669212
-4.03544
0.896281
-4.06879
1.15786
-4.67178
1.37976
-3.98684
1.59548
-3.88024
1.80413
-3.75857
1.98671
-3.30406
2.15154
-2.99757
2.29869
-2.68691
2.4255
-2.33553
2.53701
-2.06418
2.6338
-1.80657
2.7172
-1.56886
2.78939
-1.36633
2.85082
-1.17483
2.90294
-0.999415
2.94599
-0.832452
2.98083
-0.672833
3.00792
-0.517699
3.0276
-0.36808
-0.223752
0.697503
-4.27323
0.936922
-4.30821
1.2127
-4.94756
1.44665
-4.22079
1.67395
-4.10754
1.89399
-3.97861
2.08625
-3.49633
2.25999
-3.1713
2.41485
-2.84177
2.54862
-2.4693
2.66592
-2.18148
2.76804
-1.90869
2.85568
-1.65649
2.93143
-1.44208
2.9962
-1.2396
3.0507
-1.05391
3.09606
-0.877811
3.13269
-0.709464
3.16103
-0.546046
3.18137
-0.388413
-0.237057
0.727304
-4.52401
0.979744
-4.56065
1.27051
-5.23833
1.51712
-4.4674
1.75684
-4.34725
1.98866
-4.21043
2.19128
-3.69895
2.37429
-3.35431
2.53758
-3.00506
2.67848
-2.6102
2.80202
-2.30502
2.90918
-2.01585
3.00162
-1.74894
3.08139
-1.52184
3.1494
-1.30761
3.20679
-1.11131
3.25438
-0.925398
3.29272
-0.747807
3.32231
-0.575628
3.34377
-0.409872
3.3576
-0.250888
-0.104549
0.758677
-4.78842
1.02488
-4.82686
1.33137
-5.54482
1.5915
-4.72752
1.8441
-4.59985
2.08836
-4.45469
2.30195
-3.91255
2.49496
-3.54731
2.66703
-3.17714
2.81526
-2.75843
2.94544
-2.4352
3.05836
-2.12877
3.15555
-1.84612
3.23943
-1.60573
3.31102
-1.3792
3.37135
-1.17164
3.42137
-0.975426
3.46149
-0.787923
3.49251
-0.606644
3.51492
-0.432287
3.52936
-0.265329
-0.111665
0.791822
-5.06727
1.07247
-5.1075
1.39578
-5.86814
1.66984
-5.00157
1.93607
-4.86608
2.19376
-4.71238
2.41877
-4.13755
2.62208
-3.75062
2.80322
-3.35828
2.95949
-2.91469
3.09654
-2.57226
3.21555
-2.24778
3.3179
-1.94847
3.40618
-1.69401
3.48143
-1.45445
3.5449
-1.23511
3.59727
-1.0278
3.63943
-0.830085
3.67207
-0.639287
3.69551
-0.455719
3.71035
-0.280175
-0.119286
0.826702
-5.36133
1.12268
-5.40348
1.46347
-6.20893
1.75246
-5.29056
2.0333
-5.14692
2.30475
-4.98383
2.54202
-4.37483
2.75606
-3.96466
2.9471
-3.54932
3.11174
-3.07933
3.25608
-2.7166
3.38136
-2.37307
3.4891
-2.05621
3.58197
-1.78687
3.66103
-1.53351
3.72784
-1.30193
3.78294
-1.08289
3.82726
-0.874406
3.86136
-0.673389
3.88588
-0.480234
3.90149
-0.295782
-0.126955
0.863494
-5.67142
1.17559
-5.71557
1.53494
-6.56829
1.83973
-5.59534
2.13561
-5.44281
2.42176
-5.26997
2.67188
-4.62496
2.89761
-4.19039
3.09876
-3.75046
3.27204
-3.25261
3.42426
-2.86881
3.55611
-2.50492
3.66951
-2.1696
3.76733
-1.88469
3.8507
-1.61687
3.92074
-1.37197
3.97871
-1.14087
4.02531
-0.921005
4.06103
-0.709108
4.08657
-0.505779
4.10301
-0.312218
-0.134878
0.902312
-5.99845
1.23141
-6.04467
1.61034
-6.94722
1.93162
-5.91663
2.24355
-5.75473
2.54516
-5.57159
2.80865
-4.88845
3.04654
-4.42828
3.25859
-3.96251
3.44135
-3.43538
3.60146
-3.02893
3.74047
-2.64393
3.85976
-2.2889
3.96279
-1.98772
4.05033
-1.70442
4.12421
-1.44585
4.18514
-1.20179
4.23405
-0.96992
4.27149
-0.746543
4.29851
-0.532805
4.31546
-0.329161
-0.143141
0.943213
-6.34332
1.29024
-6.39169
1.6898
-7.34678
2.02846
-6.25528
2.35738
-6.08365
2.67549
-5.8897
2.95323
-5.16619
3.20394
-4.67899
3.42731
-4.18588
3.61986
-3.62792
3.78859
-3.19765
3.93489
-2.79023
4.06059
-2.4146
4.16901
-2.09614
4.26121
-1.79661
4.33874
-1.52338
4.40289
-1.26594
4.45433
-1.02136
4.49376
-0.785968
4.52194
-0.56099
4.53971
-0.34693
-0.151563
0.986356
-6.70702
1.35233
-6.75767
1.77362
-7.76807
2.13075
-6.61241
2.47754
-6.43045
2.81271
-6.22486
3.10546
-5.45895
3.36969
-4.94321
3.6052
-4.42139
3.80798
-3.8307
3.98572
-3.37539
4.13977
-2.94428
4.27233
-2.54716
4.38632
-2.21013
4.48348
-1.89378
4.56515
-1.60505
4.63251
-1.3333
4.68647
-1.07532
4.72798
-0.827482
4.75751
-0.590515
4.77603
-0.365459
4.78507
-0.160598
0.0135255
1.03188
-7.0906
1.41782
-7.14361
1.86214
-8.21239
2.23861
-6.98888
2.60418
-6.79602
2.95751
-6.57819
3.26617
-5.7676
3.54469
-5.22173
3.79265
-4.66935
4.00627
-4.04432
4.1936
-3.56273
4.35606
-3.10674
4.49538
-2.68649
4.61561
-2.33036
4.71773
-1.99589
4.80381
-1.69113
4.87475
-1.40424
4.93142
-1.13199
4.97495
-0.871011
5.00598
-0.621541
5.02547
-0.384949
5.03467
-0.169796
0.0125307
1.07988
-7.49515
1.48686
-7.5506
1.95523
-8.68076
2.35239
-7.38604
2.73774
-7.18138
3.11029
-6.95074
3.43559
-6.0929
3.72898
-5.51513
3.99043
-4.9308
4.21574
-4.26962
4.41289
-3.75988
4.58395
-3.2778
4.7308
-2.83334
4.85749
-2.45705
4.96501
-2.10342
5.05543
-1.78156
5.13002
-1.47882
5.18989
-1.19187
5.23554
-0.916658
5.26804
-0.654036
5.28853
-0.405445
5.29803
-0.179291
0.0115336
1.13052
-7.92177
1.55979
-7.97988
2.05377
-9.17474
2.47232
-7.80459
2.87865
-7.5877
3.27135
-7.34344
3.61422
-6.43576
3.92354
-5.82445
4.19912
-5.20638
4.43626
-4.50676
4.64435
-3.96798
4.82447
-3.45792
4.97921
-2.98807
5.1123
-2.59014
5.22565
-2.21677
5.32089
-1.8768
5.39941
-1.55734
5.46218
-1.25464
5.51017
-0.964654
5.54441
-0.688274
5.56581
-0.426848
5.57588
-0.189355
0.0107648
1.18395
-8.37174
1.6366
-8.43253
2.15755
-9.69569
2.59885
-8.24589
3.02735
-8.0162
3.44127
-7.75737
3.80271
-6.79719
4.12883
-6.15057
4.4191
-5.49665
4.66911
-4.75677
4.88809
-4.18696
5.07787
-3.64769
5.24084
-3.15105
5.38127
-2.73056
5.50059
-2.33608
5.60079
-1.977
5.68339
-1.63995
5.74953
-1.32078
5.80002
-1.01514
5.83604
-0.724303
5.85842
-0.449225
5.86892
-0.199854
0.00990362
1.24027
-8.84632
1.71758
-8.90984
2.26697
-10.2451
2.73239
-8.71131
3.18402
-8.46784
3.62047
-8.19382
4.00143
-7.17815
4.34506
-6.49421
4.65103
-5.80262
4.91456
-5.0203
5.14538
-4.41778
5.34543
-3.84774
5.51703
-3.32265
5.66485
-2.87838
5.79039
-2.46163
5.89612
-2.08272
5.98296
-1.72678
6.05259
-1.39041
6.10574
-1.06829
6.14345
-0.762005
6.16696
-0.472743
6.17797
-0.210858
0.00914516
1.29992
-9.34695
1.80319
-9.41311
2.38245
-10.8243
2.87321
-9.20206
3.34956
-8.94419
3.80953
-8.65378
4.21123
-7.57985
4.57338
-6.85635
4.89583
-6.12507
5.17349
-5.29797
5.41664
-4.66092
5.62735
-4.05845
5.80812
-3.50342
5.96384
-3.0341
6.09615
-2.59394
6.20724
-2.1938
6.299
-1.81854
6.37205
-1.46347
6.42804
-1.12428
6.46772
-0.801692
6.49253
-0.49755
6.50394
-0.22227
0.0083032
1.36248
-9.87484
1.89357
-9.94419
2.50433
-11.4351
3.02186
-9.7196
3.52381
-9.44614
4.00895
-9.13893
4.43228
-8.00318
4.81407
-7.23814
5.15403
-6.46502
5.44664
-5.59058
5.70284
-4.91713
5.92476
-4.28038
6.11534
-3.694
6.27937
-3.19812
6.41872
-2.73329
6.53586
-2.31094
6.63216
-1.91485
6.70927
-1.54058
6.76819
-1.18319
6.80989
-0.843393
6.83592
-0.523577
6.8479
-0.234257
0.00758912
1.42875
-10.4316
1.9888
-10.5042
2.63297
-12.0793
3.17864
-10.2653
3.70775
-9.97524
4.21945
-9.65063
4.66557
-8.4493
5.06793
-7.6405
5.42618
-6.82327
5.73453
-5.89893
6.00446
-5.18705
6.23835
-4.51427
6.43915
-3.8948
6.61197
-3.37094
6.75891
-2.88023
6.88221
-2.43425
6.98381
-2.01645
7.06499
-1.62175
7.12624
-1.24444
7.17099
-0.88815
7.19839
-0.550972
7.21046
-0.246327
7.21186
0.00619134
0.19353
1.49877
-11.019
2.08904
-11.0945
2.7685
-12.7587
3.34383
-10.8406
3.90215
-10.5336
4.44106
-10.1895
4.91161
-8.91986
5.33584
-8.06472
5.71349
-7.20092
6.03835
-6.2238
6.32293
-5.47163
6.56942
-4.76076
6.78108
-4.10647
6.96308
-3.55294
7.11778
-3.03492
7.24766
-2.56412
7.35441
-2.1232
7.44019
-1.70754
7.50571
-1.30996
7.55169
-0.934131
7.58017
-0.579451
7.59342
-0.259585
7.59359
0.00603043
0.199947
1.57234
-11.6384
2.19551
-11.7177
2.9117
-13.4749
3.51837
-11.4473
4.1069
-11.1221
4.6754
-10.758
5.17136
-9.41582
5.61848
-8.51184
6.01661
-7.59905
6.35874
-6.56593
6.65868
-5.77157
6.9186
-5.02068
7.14144
-4.3293
7.33334
-3.74485
7.49659
-3.19817
7.63254
-2.70008
7.74552
-2.23618
7.8357
-1.79772
7.90495
-1.3792
7.95232
-0.981498
7.98232
-0.609455
7.99726
-0.274519
7.99808
0.00520874
0.209364
1.13494
-12.0887
1.61038
-12.1931
2.21126
-14.0758
2.79333
-12.0293
3.45516
-11.7839
4.22787
-11.5307
5.0594
-10.2474
5.99459
-9.44702
7.04639
-8.65086
8.62663
-8.14617
8.23717
-5.38212
7.84616
-4.62966
7.5103
-3.99344
7.21596
-3.45051
6.95977
-2.94198
6.73638
-2.47669
6.54052
-2.04032
6.3705
-1.6277
6.2238
-1.2325
6.10209
-0.859784
5.99965
-0.507019
5.91765
-0.19252
5.85472
0.0681397
0.25419
1.24423
-12.584
1.76682
-12.7157
2.42722
-14.7362
3.06687
-12.669
3.7939
-12.511
4.64231
-12.3792
5.55554
-11.1606
6.58184
-10.4733
7.73638
-9.80539
9.47002
-9.87981
9.04352
-4.95562
8.61518
-4.20132
8.2471
-3.62537
7.92618
-3.12959
7.64481
-2.6606
7.39943
-2.23132
7.18498
-1.82587
6.99827
-1.44098
6.83929
-1.07352
6.70316
-0.723661
6.59191
-0.395762
6.50285
-0.103461
6.43454
0.136448
0.305238
1.36352
-13.1287
1.93794
-13.2901
2.66424
-15.4625
3.36684
-13.3716
4.1657
-13.3098
5.09793
-13.3114
6.10036
-12.163
7.22709
-11.6001
8.49413
-11.0724
10.3972
-11.7829
9.92903
-4.48741
9.46112
-3.73341
9.05797
-3.22222
8.70551
-2.77713
8.39792
-2.35301
8.12862
-1.96202
7.89369
-1.59093
7.68981
-1.23711
7.51423
-0.89794
7.3646
-0.574023
7.24292
-0.274085
7.14384
-0.00438252
7.0673
0.212988
0.358807
1.49435
-13.7278
2.12615
-13.9219
2.92406
-16.2604
3.69653
-14.144
4.57411
-14.1874
5.59793
-14.3352
6.69888
-13.264
7.93627
-12.8374
9.32689
-12.4631
11.4152
-13.8712
10.9032
-3.97536
10.3909
-3.22115
9.94681
-2.77813
9.56053
-2.39085
9.22452
-2.017
8.92802
-1.66552
8.67071
-1.33362
8.44651
-1.01291
8.25387
-0.705297
8.09162
-0.411772
7.9565
-0.138971
7.84842
0.103698
7.76727
0.294134
0.420366
1.63751
-14.3866
2.33256
-14.617
3.20948
-17.1373
4.05842
-14.993
5.02258
-15.1516
6.1473
-15.4599
7.35666
-14.4733
8.71545
-14.1962
10.2429
-13.9905
12.536
-16.1643
11.9753
-3.41467
11.411
-2.65683
10.9272
-2.29437
10.5034
-1.96705
10.1316
-1.64516
9.80962
-1.34359
9.52535
-1.04935
9.28025
-0.767808
9.06868
-0.493731
8.89075
-0.233843
8.7418
0.00997989
8.62431
0.221185
8.53171
0.386738
0.484946
1.7945
-15.1112
2.55833
-15.3808
3.52292
-18.1019
4.45566
-15.9257
5.51529
-16.2112
6.75089
-16.6955
8.07974
-15.8022
9.57231
-15.6888
11.249
-15.6672
13.7674
-18.6827
13.1518
-2.7991
12.5341
-2.03915
12.0026
-1.76285
11.5373
-1.5017
11.1311
-1.23902
10.7751
-0.987519
10.4656
-0.739917
10.195
-0.497194
9.96267
-0.261396
9.76592
-0.0370903
9.60395
0.17195
9.47407
0.351067
9.37486
0.485943
0.558085
1.96669
-15.9082
2.80654
-16.2207
3.86655
-19.1619
4.892
-16.9512
6.05662
-17.3758
7.41452
-18.0534
8.87437
-17.262
10.5149
-17.3293
12.3579
-17.5102
15.1255
-21.4503
14.4486
-2.12223
13.7705
-1.36102
13.1854
-1.17772
12.6745
-0.990889
12.229
-0.793457
11.8377
-0.596283
11.4957
-0.397918
11.2002
-0.201631
10.9464
-0.0075732
10.7302
0.179071
10.5522
0.349994
10.4095
0.493745
10.3008
0.594666
0.638684
2.15505
-16.7847
3.07854
-17.1442
4.24439
-20.3278
5.37161
-18.0784
6.65155
-18.6558
8.14418
-19.5461
9.74872
-18.8666
11.5513
-19.1319
13.5764
-19.5353
16.6205
-24.4944
15.8741
-1.37581
15.1283
-0.615261
14.4862
-0.53553
13.9243
-0.429
13.4349
-0.304133
13.006
-0.167304
12.6317
-0.023635
12.3064
0.123701
12.0264
0.272382
11.7901
0.415326
11.594
0.546112
11.4379
0.649904
11.3164
0.716168
11.2289
0.726122
0.725014
2.36156
-17.7485
3.37723
-18.1598
4.65873
-21.6093
5.89822
-19.3179
7.30544
-20.063
8.94651
-21.1871
10.711
-20.6311
12.693
-21.1138
14.9201
-21.7624
18.2666
-27.841
17.4473
-0.556486
16.626
0.206055
15.9192
0.171264
15.3023
0.187897
14.7628
0.235376
14.2907
0.304776
13.879
0.388033
13.5204
0.482377
13.2135
0.579251
12.954
0.674841
12.7382
0.761896
12.5673
0.820826
12.4359
0.847556
12.3408
0.821165
0.795556
2.5878
-18.8085
3.70473
-19.2768
5.11414
-23.0187
6.47714
-20.6809
8.02477
-21.6106
9.82933
-22.9917
11.7698
-22.5715
13.9491
-23.2931
16.4005
-24.2138
20.0826
-31.523
19.179
0.347076
18.2736
1.11148
17.4948
0.950034
16.8146
0.868089
16.221
0.829012
15.703
0.822775
15.2498
0.841225
14.8564
0.87579
14.5186
0.91699
14.2319
0.961616
13.9961
0.997659
13.8058
1.01113
13.6595
0.99385
13.5531
0.927585
0.872584
2.83595
-19.9744
4.06441
-20.5052
5.6145
-24.5688
7.11348
-22.1799
8.81598
-23.3131
10.8018
-24.9775
12.9363
-24.706
15.3358
-25.6927
18.033
-26.911
22.0857
-35.5757
21.0883
1.34448
20.09
2.10984
19.2308
1.80926
18.4811
1.6177
17.8277
1.48241
17.2565
1.39407
16.7566
1.3411
16.3251
1.30731
15.9537
1.28837
15.6415
1.27377
15.3822
1.25701
15.1767
1.21658
15.0209
1.14962
14.9073
1.04126
0.955529
3.10713
-21.2568
4.45865
-21.8567
6.16412
-26.2743
7.81357
-23.8293
9.68709
-25.1866
11.8721
-27.1625
14.2215
-27.0554
16.8625
-28.3337
19.8332
-29.8816
24.2937
-40.0363
23.1931
2.44513
22.0899
3.21302
21.1423
2.75691
20.3168
2.44317
19.5965
2.20272
18.964
2.02653
18.4157
1.8894
17.9377
1.78531
17.529
1.69714
17.1802
1.62254
16.8934
1.54376
16.6616
1.44843
16.4819
1.32935
16.3514
1.17173
1.05139
3.4038
4.89071
6.76782
8.58396
10.6467
13.0535
15.6419
18.5498
21.8203
26.7282
25.5142
24.2944
23.2469
22.3321
21.5357
20.8411
20.2351
19.7125
19.2647
18.8906
18.5848
18.3464
18.1659
18.0358
)
;

boundaryField
{
    inlet
    {
        type            calculated;
        value           nonuniform List<scalar> 
25
(
-22.6672
-23.3437
-28.1514
-25.6455
-27.2494
-29.5693
-29.6438
-31.2416
-33.1521
-44.9442
3.6592
4.43278
3.80443
3.35798
2.99908
2.72112
2.4954
2.30792
2.14492
1.99668
1.84958
1.68682
1.50982
1.30182
1.14574
)
;
    }
    outlet
    {
        type            calculated;
        value           nonuniform List<scalar> 0();
    }
    walls
    {
        type            calculated;
        value           nonuniform List<scalar> 0();
    }
    frontAndBack
    {
        type            empty;
        value           nonuniform List<scalar> 0();
    }
    procBoundary4to0
    {
        type            processor;
        value           nonuniform List<scalar> 
72
(
-0.21927
-0.221552
-0.224372
-0.227595
-0.23129
-0.235454
-0.240033
-0.244883
-0.250235
-0.255943
-0.262029
-0.268511
-0.275406
-0.282689
-0.290423
-0.298619
-0.307218
-0.316279
-0.325895
-0.335967
-0.3466
-0.357785
1.43956
-0.272796
-0.27994
-0.287446
-0.29538
-0.303646
-0.312367
-0.32157
-0.331192
-0.341315
-0.351964
-0.363159
-0.374947
-0.387321
-0.400353
-0.41408
-0.428495
-0.443684
-0.459709
-0.476532
-0.494261
-0.512976
-0.532643
-0.553404
-0.575283
-0.598342
-0.622653
-0.648299
-0.67533
-0.703899
-0.733977
-0.765687
-0.799288
-0.834599
-0.87194
-0.911407
-0.952968
-0.684647
-0.748877
-0.818836
-0.895244
-0.978721
-1.0699
-1.16973
-1.27854
-1.39774
-1.52776
-1.67004
-1.82477
-1.99343
)
;
    }
    procBoundary4to5
    {
        type            processor;
        value           nonuniform List<scalar> 
95
(
0.219537
0.237987
0.213245
0.314468
0.236704
0.225975
0.383308
0.229871
0.209723
0.449509
0.211839
0.48985
0.208725
0.530773
0.550692
0.227593
0.594855
0.219714
0.640001
0.665873
0.229388
0.714228
0.744142
0.235667
0.796038
0.83019
0.236052
0.885849
0.924782
0.965788
0.249473
1.02845
1.07485
1.12371
0.253642
1.1939
1.24924
1.30716
0.246987
1.38597
1.45117
1.51994
0.225838
1.60828
1.6852
1.76615
1.85177
1.94176
0.216037
2.05125
2.15169
2.25792
2.36988
2.48769
0.17505
2.62375
2.75521
2.89406
3.04049
3.19467
0.0974614
3.36469
3.53648
3.71797
3.90915
4.11093
4.32372
4.54813
-0.0145071
4.78605
5.03566
5.29902
5.57665
5.86978
6.17873
6.50478
6.84862
-0.185305
7.20363
7.58717
7.98866
5.80989
6.38349
7.01373
7.70572
8.46713
9.30173
10.2202
-0.661498
11.1654
12.2703
13.4761
14.8243
16.2555
17.9415
)
;
    }
}


// ************************************************************************* //
