/*--------------------------------*- C++ -*----------------------------------*\
| =========                 |                                                 |
| \\      /  F ield         | OpenFOAM: The Open Source CFD Toolbox           |
|  \\    /   O peration     | Version:  2306                                  |
|   \\  /    A nd           | Website:  www.openfoam.com                      |
|    \\/     M anipulation  |                                                 |
\*---------------------------------------------------------------------------*/
FoamFile
{
    version     2.0;
    format      ascii;
    arch        "LSB;label=32;scalar=64";
    class       volScalarField;
    location    "325";
    object      turbulenceProperties:epsilon;
}
// * * * * * * * * * * * * * * * * * * * * * * * * * * * * * * * * * * * * * //

dimensions      [0 2 -3 0 0 0 0];

internalField   nonuniform List<scalar> 
1340
(
0.000201543
0.000204607
0.000206993
0.000145553
0.000148175
0.000150408
0.000151848
0.000152444
0.000106536
0.000108727
0.000110697
0.000112188
0.000113163
0.000113541
0.00011314
7.88335e-05
8.06265e-05
8.22964e-05
8.3669e-05
8.47254e-05
8.54093e-05
8.5573e-05
8.51652e-05
5.89029e-05
6.03564e-05
6.17452e-05
6.29497e-05
6.39687e-05
6.47485e-05
6.51812e-05
6.52313e-05
6.48636e-05
4.43824e-05
4.55555e-05
4.66918e-05
4.77177e-05
4.86401e-05
4.94043e-05
4.9939e-05
5.02171e-05
5.02043e-05
3.36916e-05
3.46333e-05
3.55563e-05
3.6418e-05
3.72206e-05
3.79233e-05
3.84731e-05
3.88503e-05
3.9027e-05
3.89653e-05
2.57445e-05
2.64971e-05
2.72456e-05
2.79597e-05
2.86429e-05
2.92641e-05
2.97842e-05
3.01856e-05
3.0449e-05
3.05446e-05
3.04552e-05
1.9786e-05
2.03866e-05
2.09932e-05
2.15788e-05
2.21537e-05
2.2689e-05
2.31574e-05
2.3546e-05
2.384e-05
2.40153e-05
2.40604e-05
1.5284e-05
1.57654e-05
1.62538e-05
1.67339e-05
1.72117e-05
1.7667e-05
1.80762e-05
1.84331e-05
1.87244e-05
1.89322e-05
1.90462e-05
1.90559e-05
1.18606e-05
1.22459e-05
1.26397e-05
1.30312e-05
1.34265e-05
1.38081e-05
1.41601e-05
1.44768e-05
1.47482e-05
1.4961e-05
1.51076e-05
1.51792e-05
9.2419e-06
9.5502e-06
9.86759e-06
1.01861e-05
1.05115e-05
1.08289e-05
1.11275e-05
1.14027e-05
1.16466e-05
1.18495e-05
1.20056e-05
1.21077e-05
1.21475e-05
7.22742e-06
7.47481e-06
7.73012e-06
7.9893e-06
8.25587e-06
8.51862e-06
8.76953e-06
9.00494e-06
9.21903e-06
9.4041e-06
9.55614e-06
9.66978e-06
9.73815e-06
5.67064e-06
5.86896e-06
6.07462e-06
6.28524e-06
6.503e-06
6.71981e-06
6.92885e-06
7.12826e-06
7.31287e-06
7.47743e-06
7.6186e-06
7.73251e-06
7.81367e-06
7.85861e-06
4.46222e-06
4.62127e-06
4.78724e-06
4.95788e-06
5.13563e-06
5.31375e-06
5.48727e-06
5.65444e-06
5.81187e-06
5.95506e-06
6.08208e-06
6.18938e-06
6.27353e-06
6.33143e-06
3.52053e-06
3.64816e-06
3.78221e-06
3.92041e-06
4.0653e-06
4.21126e-06
4.35457e-06
4.4941e-06
4.62694e-06
4.74999e-06
4.86167e-06
4.95939e-06
5.04063e-06
5.1027e-06
2.78416e-06
2.88668e-06
2.9948e-06
3.10681e-06
3.22469e-06
3.3441e-06
3.46198e-06
3.57792e-06
3.68924e-06
3.7939e-06
3.8905e-06
3.97741e-06
4.05234e-06
4.11364e-06
4.1591e-06
2.20646e-06
2.28893e-06
2.37611e-06
2.46683e-06
2.56269e-06
2.66011e-06
2.75698e-06
2.85283e-06
2.94569e-06
3.03389e-06
3.11653e-06
3.19236e-06
3.25969e-06
3.31734e-06
3.36343e-06
1.75193e-06
1.81837e-06
1.88864e-06
1.96211e-06
2.04002e-06
2.11938e-06
2.19885e-06
2.27777e-06
2.35491e-06
2.42876e-06
2.49883e-06
2.564e-06
2.62332e-06
2.67566e-06
2.71966e-06
1.39345e-06
1.4469e-06
1.50362e-06
1.56308e-06
1.6263e-06
1.69096e-06
1.75595e-06
1.8208e-06
1.88456e-06
1.94612e-06
2.00504e-06
2.06063e-06
2.11207e-06
2.15855e-06
2.19912e-06
2.23262e-06
1.11003e-06
1.15303e-06
1.19881e-06
1.24694e-06
1.29819e-06
1.35084e-06
1.40389e-06
1.4571e-06
1.50964e-06
1.56075e-06
1.61003e-06
1.65703e-06
1.70106e-06
1.74166e-06
1.77797e-06
1.80929e-06
8.85454e-07
9.20091e-07
9.57015e-07
9.95957e-07
1.03752e-06
1.0803e-06
1.12357e-06
1.16716e-06
1.21035e-06
1.25259e-06
1.29361e-06
1.33305e-06
1.37043e-06
1.4054e-06
1.4374e-06
1.46579e-06
6.826e-07
7.07191e-07
7.35068e-07
7.64862e-07
7.96353e-07
8.30036e-07
8.64779e-07
9.00025e-07
9.35652e-07
9.71062e-07
1.00588e-06
1.03988e-06
1.0728e-06
1.10432e-06
1.13415e-06
1.16188e-06
1.18704e-06
1.20904e-06
5.45639e-07
5.65427e-07
5.87859e-07
6.11905e-07
6.37364e-07
6.6464e-07
6.92843e-07
7.21529e-07
7.50593e-07
7.79594e-07
8.08211e-07
8.36299e-07
8.63651e-07
8.9004e-07
9.1526e-07
9.39031e-07
9.60979e-07
9.80692e-07
4.36593e-07
4.52511e-07
4.70564e-07
4.89968e-07
5.10542e-07
5.32626e-07
5.55496e-07
5.78824e-07
6.02511e-07
6.26231e-07
6.49686e-07
6.72815e-07
6.95463e-07
7.17448e-07
7.38634e-07
7.58807e-07
7.77703e-07
7.95008e-07
3.49647e-07
3.62448e-07
3.76975e-07
3.92624e-07
4.09252e-07
4.27116e-07
4.45654e-07
4.64597e-07
4.83894e-07
5.03247e-07
5.22446e-07
5.41449e-07
5.60134e-07
5.78365e-07
5.96049e-07
6.1304e-07
6.29152e-07
6.44116e-07
6.5766e-07
2.80235e-07
2.90523e-07
3.0221e-07
3.14827e-07
3.2826e-07
3.42706e-07
3.57727e-07
3.73113e-07
3.88807e-07
4.04566e-07
4.20255e-07
4.35831e-07
4.51193e-07
4.66255e-07
4.80952e-07
4.95175e-07
5.08775e-07
5.21574e-07
5.33348e-07
2.24752e-07
2.33016e-07
2.42418e-07
2.52585e-07
2.63432e-07
2.75114e-07
2.87277e-07
2.99764e-07
3.12502e-07
3.25336e-07
3.3814e-07
3.5088e-07
3.63482e-07
3.75881e-07
3.88045e-07
3.9988e-07
4.11279e-07
4.22112e-07
4.32217e-07
1.80353e-07
1.86993e-07
1.94552e-07
2.0274e-07
2.11499e-07
2.20938e-07
2.30784e-07
2.40903e-07
2.51249e-07
2.61689e-07
2.72125e-07
2.8252e-07
2.92832e-07
3.03014e-07
3.13044e-07
3.22845e-07
3.32346e-07
3.41445e-07
3.50018e-07
1.44793e-07
1.50125e-07
1.56199e-07
1.62792e-07
1.69861e-07
1.77488e-07
1.85454e-07
1.93653e-07
2.02053e-07
2.10532e-07
2.19019e-07
2.27497e-07
2.35923e-07
2.44264e-07
2.525e-07
2.60581e-07
2.68459e-07
2.76052e-07
2.83258e-07
1.16291e-07
1.20567e-07
1.25443e-07
1.30754e-07
1.36455e-07
1.42617e-07
1.49059e-07
1.55703e-07
1.62512e-07
1.69397e-07
1.763e-07
1.83204e-07
1.90075e-07
1.9689e-07
2.03636e-07
2.10278e-07
2.16778e-07
2.23071e-07
2.29083e-07
2.34718e-07
9.3426e-08
9.6854e-08
1.00767e-07
1.05042e-07
1.09639e-07
1.14615e-07
1.19824e-07
1.25206e-07
1.30727e-07
1.36315e-07
1.41923e-07
1.47535e-07
1.5313e-07
1.58689e-07
1.64202e-07
1.69643e-07
1.74983e-07
1.80173e-07
1.85158e-07
1.89861e-07
7.50718e-08
7.78174e-08
8.0955e-08
8.4396e-08
8.81015e-08
9.21183e-08
9.63328e-08
1.00689e-07
1.05165e-07
1.09696e-07
1.14249e-07
1.18809e-07
1.2336e-07
1.27887e-07
1.32383e-07
1.36827e-07
1.41197e-07
1.45461e-07
1.49571e-07
1.53464e-07
6.03303e-08
6.25269e-08
6.5042e-08
6.78095e-08
7.07977e-08
7.40402e-08
7.74477e-08
8.09754e-08
8.46016e-08
8.8278e-08
9.19739e-08
9.56777e-08
9.93737e-08
1.03055e-07
1.06715e-07
1.10336e-07
1.13903e-07
1.17391e-07
1.20759e-07
1.23965e-07
4.8485e-08
5.02398e-08
5.22557e-08
5.44802e-08
5.68894e-08
5.95072e-08
6.2263e-08
6.51198e-08
6.80596e-08
7.10413e-08
7.40397e-08
7.70454e-08
8.00475e-08
8.30369e-08
8.60108e-08
8.8956e-08
9.18603e-08
9.47018e-08
9.74539e-08
1.00077e-07
3.89629e-08
4.03633e-08
4.19776e-08
4.37657e-08
4.57074e-08
4.78213e-08
5.00512e-08
5.23654e-08
5.47492e-08
5.71671e-08
5.96004e-08
6.20405e-08
6.4477e-08
6.6903e-08
6.93166e-08
7.17074e-08
7.40659e-08
7.63755e-08
7.86138e-08
8.07502e-08
8.27461e-08
3.13056e-08
3.24222e-08
3.37137e-08
3.51513e-08
3.6716e-08
3.84239e-08
4.02286e-08
4.21045e-08
4.40385e-08
4.6001e-08
4.79757e-08
4.99563e-08
5.19324e-08
5.39008e-08
5.5858e-08
5.77967e-08
5.97083e-08
6.15798e-08
6.33939e-08
6.51262e-08
6.67462e-08
2.51466e-08
2.60358e-08
2.70687e-08
2.82239e-08
2.94856e-08
3.08658e-08
3.23274e-08
3.38498e-08
3.54197e-08
3.7013e-08
3.86167e-08
4.02243e-08
4.18279e-08
4.34243e-08
4.50106e-08
4.65808e-08
4.81281e-08
4.96428e-08
5.11094e-08
5.25091e-08
5.38175e-08
2.01919e-08
2.08993e-08
2.17248e-08
2.26529e-08
2.36706e-08
2.47869e-08
2.5972e-08
2.7208e-08
2.84835e-08
2.97789e-08
3.10821e-08
3.23884e-08
3.36902e-08
3.49851e-08
3.627e-08
3.7541e-08
3.8792e-08
4.00147e-08
4.11976e-08
4.23253e-08
4.33776e-08
1.62058e-08
1.67678e-08
1.74271e-08
1.81728e-08
1.89943e-08
1.98979e-08
2.086e-08
2.18647e-08
2.29026e-08
2.39569e-08
2.50173e-08
2.60791e-08
2.71366e-08
2.81869e-08
2.92281e-08
3.02565e-08
3.1267e-08
3.22529e-08
3.32054e-08
3.41116e-08
3.49548e-08
1.29989e-08
1.34447e-08
1.3971e-08
1.45705e-08
1.52337e-08
1.59663e-08
1.67483e-08
1.75666e-08
1.84126e-08
1.92717e-08
2.01354e-08
2.09995e-08
2.18593e-08
2.27122e-08
2.35563e-08
2.43882e-08
2.52042e-08
2.59988e-08
2.67644e-08
2.74909e-08
2.81653e-08
2.87745e-08
1.04192e-08
1.07723e-08
1.11922e-08
1.16742e-08
1.22103e-08
1.28049e-08
1.34418e-08
1.41095e-08
1.48002e-08
1.55014e-08
1.62062e-08
1.69105e-08
1.76105e-08
1.83036e-08
1.89882e-08
1.96616e-08
2.03208e-08
2.09607e-08
2.15754e-08
2.21568e-08
2.26948e-08
2.31784e-08
8.3443e-09
8.62357e-09
8.95848e-09
9.34613e-09
9.78017e-09
1.02637e-08
1.07834e-08
1.13292e-08
1.18942e-08
1.24679e-08
1.30441e-08
1.36193e-08
1.41899e-08
1.47539e-08
1.53097e-08
1.58553e-08
1.63878e-08
1.69031e-08
1.73963e-08
1.78613e-08
1.82895e-08
1.86723e-08
6.67593e-09
6.89648e-09
7.16339e-09
7.47549e-09
7.82746e-09
8.22146e-09
8.64654e-09
9.09375e-09
9.55702e-09
1.00274e-08
1.04994e-08
1.09701e-08
1.14362e-08
1.18959e-08
1.23478e-08
1.27901e-08
1.32205e-08
1.36356e-08
1.40316e-08
1.4403e-08
1.47433e-08
1.50459e-08
5.33497e-09
5.50878e-09
5.72148e-09
5.97305e-09
6.25892e-09
6.58072e-09
6.92934e-09
7.29671e-09
7.67758e-09
8.0642e-09
8.45187e-09
8.8379e-09
9.21935e-09
9.59473e-09
9.96282e-09
1.0322e-08
1.06702e-08
1.1005e-08
1.13229e-08
1.16195e-08
1.18897e-08
1.21284e-08
4.2577e-09
4.39437e-09
4.56385e-09
4.76687e-09
4.99958e-09
5.26321e-09
5.54981e-09
5.85249e-09
6.16648e-09
6.48522e-09
6.80446e-09
7.12179e-09
7.43469e-09
7.74188e-09
8.04234e-09
8.3345e-09
8.61671e-09
8.8869e-09
9.14221e-09
9.37916e-09
9.59375e-09
9.78175e-09
3.39275e-09
3.50002e-09
3.63503e-09
3.79916e-09
3.98915e-09
4.20569e-09
4.44202e-09
4.69212e-09
4.9518e-09
5.21528e-09
5.4789e-09
5.74046e-09
5.99787e-09
6.24992e-09
6.49562e-09
6.73375e-09
6.9629e-09
7.18136e-09
7.38669e-09
7.57627e-09
7.74664e-09
7.89459e-09
2.69882e-09
2.78282e-09
2.89036e-09
3.02336e-09
3.17893e-09
3.35728e-09
3.5528e-09
3.76012e-09
3.97551e-09
4.19395e-09
4.41228e-09
4.62859e-09
4.84096e-09
5.04826e-09
5.24973e-09
5.44437e-09
5.63102e-09
5.80803e-09
5.97359e-09
6.12544e-09
6.26084e-09
6.37731e-09
6.47226e-09
2.14259e-09
2.20819e-09
2.29388e-09
2.40197e-09
2.52969e-09
2.67705e-09
2.83937e-09
3.01174e-09
3.19098e-09
3.37266e-09
3.55408e-09
3.73353e-09
3.90925e-09
4.08028e-09
4.24606e-09
4.40569e-09
4.55814e-09
4.70207e-09
4.8359e-09
4.95778e-09
5.06559e-09
5.15735e-09
5.23118e-09
1.69721e-09
1.74827e-09
1.81662e-09
1.90473e-09
2.00991e-09
2.13208e-09
2.26726e-09
2.411e-09
2.56064e-09
2.71225e-09
2.86351e-09
3.01292e-09
3.15877e-09
3.30036e-09
3.43722e-09
3.56864e-09
3.69361e-09
3.81097e-09
3.91941e-09
4.01741e-09
4.10329e-09
4.17559e-09
4.23294e-09
1.34103e-09
1.38064e-09
1.43522e-09
1.50732e-09
1.59416e-09
1.69581e-09
1.80873e-09
1.92893e-09
2.05427e-09
2.18114e-09
2.30772e-09
2.4326e-09
2.55412e-09
2.67167e-09
2.78506e-09
2.89359e-09
2.99621e-09
3.09192e-09
3.1797e-09
3.25837e-09
3.32667e-09
3.38352e-09
3.42792e-09
1.05658e-09
1.08721e-09
1.13087e-09
1.19008e-09
1.26199e-09
1.34687e-09
1.44144e-09
1.54219e-09
1.64755e-09
1.75393e-09
1.86028e-09
1.96517e-09
2.0667e-09
2.16451e-09
2.25856e-09
2.3481e-09
2.43212e-09
2.50984e-09
2.58053e-09
2.64339e-09
2.69744e-09
2.74189e-09
2.77617e-09
8.298e-10
8.53399e-10
8.88414e-10
9.37215e-10
9.96907e-10
1.06809e-09
1.14739e-09
1.2321e-09
1.32093e-09
1.41022e-09
1.50014e-09
1.58867e-09
1.6734e-09
1.75449e-09
1.8322e-09
1.90569e-09
1.97407e-09
2.03682e-09
2.09354e-09
2.14359e-09
2.18623e-09
2.22089e-09
2.24721e-09
6.49375e-10
6.67523e-10
6.95672e-10
7.36015e-10
7.85671e-10
8.45576e-10
9.12029e-10
9.83531e-10
1.05855e-09
1.13347e-09
1.21043e-09
1.28546e-09
1.35538e-09
1.42178e-09
1.48561e-09
1.54575e-09
1.60129e-09
1.65201e-09
1.69768e-09
1.73776e-09
1.77159e-09
1.79871e-09
1.8189e-09
5.06226e-10
5.2017e-10
5.42858e-10
5.76277e-10
6.1765e-10
6.68203e-10
7.23627e-10
7.84368e-10
8.47523e-10
9.10124e-10
9.77009e-10
1.04054e-09
1.09719e-09
1.15103e-09
1.20366e-09
1.25334e-09
1.29895e-09
1.3405e-09
1.37781e-09
1.41029e-09
1.43737e-09
1.45867e-09
1.47409e-09
3.92966e-10
4.03662e-10
4.22026e-10
4.49761e-10
4.8437e-10
5.27081e-10
5.72962e-10
6.25182e-10
6.77378e-10
7.29425e-10
7.88539e-10
8.41583e-10
8.86627e-10
9.30903e-10
9.75461e-10
1.01738e-09
1.05553e-09
1.09019e-09
1.12117e-09
1.14781e-09
1.16964e-09
1.18642e-09
1.19816e-09
1.20525e-09
3.03724e-10
3.11887e-10
3.26845e-10
3.49964e-10
3.79025e-10
4.15082e-10
4.52941e-10
4.98592e-10
5.39033e-10
5.83979e-10
6.3882e-10
6.8086e-10
7.14591e-10
7.52305e-10
7.91721e-10
8.27695e-10
8.59775e-10
8.88869e-10
9.14755e-10
9.36724e-10
9.54348e-10
9.6756e-10
9.76525e-10
9.81538e-10
2.34712e-10
2.40895e-10
2.53124e-10
2.72324e-10
2.96603e-10
3.26623e-10
3.57693e-10
3.9747e-10
4.24881e-10
4.67029e-10
5.20909e-10
5.5193e-10
5.73947e-10
6.07582e-10
6.44501e-10
6.76089e-10
7.03195e-10
7.27802e-10
7.49624e-10
7.6781e-10
7.82051e-10
7.92456e-10
7.99289e-10
8.03069e-10
1.85737e-10
1.90409e-10
2.00289e-10
2.15715e-10
2.35358e-10
2.58898e-10
2.83186e-10
3.14885e-10
3.29825e-10
3.68898e-10
4.19663e-10
4.42367e-10
4.58411e-10
4.91742e-10
5.28883e-10
5.59077e-10
5.8416e-10
6.06902e-10
6.2706e-10
6.4371e-10
6.56617e-10
6.6584e-10
6.71766e-10
6.74899e-10
1.51052e-10
1.5458e-10
1.62316e-10
1.74256e-10
1.89456e-10
2.06595e-10
2.24554e-10
2.46382e-10
2.53996e-10
2.83558e-10
3.27208e-10
3.46118e-10
3.63324e-10
3.96942e-10
4.33873e-10
4.64209e-10
4.89426e-10
5.1213e-10
5.32261e-10
5.489e-10
5.61741e-10
5.70834e-10
5.76622e-10
5.79385e-10
1.22425e-10
1.25091e-10
1.31053e-10
1.40189e-10
1.51699e-10
1.63798e-10
1.76856e-10
1.90628e-10
1.94411e-10
2.13545e-10
2.48624e-10
2.65543e-10
2.85438e-10
3.17481e-10
3.52197e-10
3.81948e-10
4.07144e-10
4.29603e-10
4.49415e-10
4.65783e-10
4.78312e-10
4.87111e-10
4.92651e-10
4.95376e-10
9.73685e-11
9.93713e-11
1.03903e-10
1.10789e-10
1.19295e-10
1.27599e-10
1.36971e-10
1.44862e-10
1.46577e-10
1.58392e-10
1.86163e-10
2.00713e-10
2.22276e-10
2.52097e-10
2.83661e-10
3.11775e-10
3.36183e-10
3.57798e-10
3.76721e-10
3.9239e-10
4.04374e-10
4.12746e-10
4.17841e-10
4.20017e-10
7.62127e-11
7.77093e-11
8.10901e-11
8.61764e-11
9.22332e-11
9.77362e-11
1.04189e-10
1.07921e-10
1.08473e-10
1.15153e-10
1.36843e-10
1.48807e-10
1.70885e-10
1.9835e-10
2.26482e-10
2.52271e-10
2.75312e-10
2.95715e-10
3.13437e-10
3.28073e-10
3.39276e-10
3.47146e-10
3.52069e-10
3.5453e-10
5.86447e-11
5.97494e-11
6.21885e-11
6.58111e-11
6.9879e-11
7.33701e-11
7.74579e-11
7.84823e-11
7.83913e-11
8.15892e-11
9.82556e-11
1.07891e-10
1.29313e-10
1.54254e-10
1.79051e-10
2.0227e-10
2.23614e-10
2.42655e-10
2.59115e-10
2.72585e-10
2.82653e-10
2.89205e-10
2.9239e-10
2.92744e-10
4.44311e-11
4.52198e-11
4.68513e-11
4.92196e-11
5.16567e-11
5.36954e-11
5.58466e-11
5.54215e-11
5.49428e-11
5.59435e-11
6.83575e-11
7.61324e-11
9.59479e-11
1.18296e-10
1.40082e-10
1.60783e-10
1.80268e-10
1.97832e-10
2.13078e-10
2.25754e-10
2.35704e-10
2.43024e-10
2.4815e-10
2.51557e-10
3.32133e-11
3.37489e-11
3.46964e-11
3.59656e-11
3.70566e-11
3.79427e-11
3.8484e-11
3.76083e-11
3.67632e-11
3.67257e-11
4.56788e-11
5.20877e-11
6.96056e-11
8.9356e-11
1.08498e-10
1.26946e-10
1.44695e-10
1.60693e-10
1.74063e-10
1.84329e-10
1.91168e-10
1.94354e-10
1.93981e-10
1.90986e-10
1.86942e-10
2.44998e-11
2.48521e-11
2.52646e-11
2.56369e-11
2.56749e-11
2.55705e-11
2.4834e-11
2.40699e-11
2.26202e-11
2.27634e-11
2.91719e-11
3.44887e-11
4.94125e-11
6.66795e-11
8.33695e-11
9.97097e-11
1.16223e-10
1.32099e-10
1.46445e-10
1.5887e-10
1.69425e-10
1.78661e-10
1.87459e-10
1.95787e-10
2.01956e-10
1.78948e-11
1.80782e-11
1.80046e-11
1.76314e-11
1.69151e-11
1.60905e-11
1.47367e-11
1.43448e-11
1.22958e-11
1.38986e-11
1.80995e-11
2.21e-11
3.44705e-11
4.96304e-11
6.42186e-11
7.81509e-11
9.18413e-11
1.04529e-10
1.15347e-10
1.23704e-10
1.28928e-10
1.3051e-10
1.28836e-10
1.26202e-10
1.25508e-10
1.33906e-11
1.33166e-11
1.25947e-11
1.13948e-11
1.00327e-11
8.8144e-12
7.6818e-12
7.87065e-12
6.1744e-12
9.98156e-12
1.16801e-11
1.39212e-11
2.34453e-11
3.64148e-11
5.04657e-11
6.6254e-11
8.42068e-11
1.03487e-10
1.23367e-10
1.44016e-10
1.66532e-10
1.92782e-10
2.23612e-10
2.54682e-10
2.78217e-10
1.10298e-11
1.06502e-11
9.21097e-12
7.13494e-12
5.08736e-12
3.53716e-12
2.82059e-12
3.41812e-12
3.2232e-12
8.22031e-12
8.56402e-12
1.00998e-11
1.66816e-11
2.60052e-11
3.74421e-11
5.30782e-11
7.40834e-11
1.00105e-10
1.30385e-10
1.63958e-10
1.99221e-10
2.34249e-10
2.67616e-10
2.97227e-10
3.22756e-10
1.00156e-11
9.46062e-12
7.6328e-12
5.09102e-12
2.64843e-12
9.11899e-13
3.84343e-13
1.08866e-12
2.34386e-12
5.60531e-12
4.0363e-12
1.00303e-11
2.53427e-11
4.99433e-11
8.44442e-11
1.29872e-10
1.8732e-10
2.57129e-10
3.38145e-10
4.27726e-10
5.20254e-10
6.06708e-10
6.74688e-10
7.16149e-10
7.44907e-10
)
;

boundaryField
{
    inlet
    {
        type            calculated;
        value           nonuniform List<scalar> 
25
(
9.15428e-12
8.61387e-12
6.90523e-12
4.52846e-12
2.226e-12
6.16449e-13
2.5289e-13
1.26921e-12
3.36016e-12
2.94962e-12
1.41523e-11
5.10827e-11
1.49439e-10
3.3752e-10
6.44266e-10
1.10018e-09
1.73819e-09
2.58818e-09
3.67282e-09
5.00101e-09
6.55824e-09
8.287e-09
1.00846e-08
1.18044e-08
1.33612e-08
)
;
    }
    outlet
    {
        type            calculated;
        value           nonuniform List<scalar> 0();
    }
    walls
    {
        type            calculated;
        value           nonuniform List<scalar> 0();
    }
    frontAndBack
    {
        type            empty;
    }
    procBoundary4to0
    {
        type            processor;
        value           nonuniform List<scalar> 
72
(
0.000197899
0.000142655
0.000104228
7.70058e-05
5.74611e-05
4.32481e-05
3.2796e-05
2.5035e-05
1.92238e-05
1.48391e-05
1.15076e-05
8.96093e-06
7.00364e-06
5.49202e-06
4.31956e-06
3.40647e-06
2.69274e-06
2.13313e-06
1.69313e-06
1.34621e-06
1.07202e-06
8.54897e-07
8.54897e-07
6.59292e-07
5.26957e-07
4.21616e-07
3.37639e-07
2.70603e-07
2.17033e-07
1.74174e-07
1.39848e-07
1.12335e-07
9.02654e-08
7.25499e-08
5.83208e-08
4.68856e-08
3.76918e-08
3.02975e-08
2.43487e-08
1.95619e-08
1.57095e-08
1.26088e-08
1.01135e-08
8.10553e-09
6.4901e-09
5.19089e-09
4.14646e-09
3.30731e-09
2.63355e-09
2.09304e-09
1.65987e-09
1.31313e-09
1.03593e-09
8.14684e-10
6.38493e-10
4.98553e-10
3.8768e-10
3.00166e-10
2.32303e-10
1.83939e-10
1.49623e-10
1.21319e-10
9.65331e-11
7.5591e-11
5.81701e-11
4.40408e-11
3.28571e-11
2.41447e-11
1.75006e-11
1.29128e-11
1.04652e-11
9.4251e-12
)
;
    }
    procBoundary4to5
    {
        type            processor;
        value           nonuniform List<scalar> 
95
(
0.000282863
0.000286095
0.000288123
0.000208109
0.000208109
0.00020782
0.000152091
0.000152091
0.000150564
0.000111898
0.000111898
8.41592e-05
8.41592e-05
6.40193e-05
4.98552e-05
4.98552e-05
3.86455e-05
3.86455e-05
3.0168e-05
2.39596e-05
2.39596e-05
1.89474e-05
1.51653e-05
1.51653e-05
1.21191e-05
9.7571e-06
9.7571e-06
7.86246e-06
6.359e-06
5.14289e-06
5.14289e-06
4.18616e-06
3.39603e-06
2.75399e-06
2.75399e-06
2.25783e-06
1.8346e-06
1.4898e-06
1.4898e-06
1.22732e-06
9.9769e-07
8.10327e-07
8.10327e-07
6.69424e-07
5.43817e-07
4.41365e-07
3.57892e-07
2.89955e-07
2.89955e-07
2.39861e-07
1.9419e-07
1.57071e-07
1.26947e-07
1.02524e-07
1.02524e-07
8.45638e-08
6.82227e-08
5.50096e-08
4.43347e-08
3.572e-08
3.572e-08
2.93003e-08
2.35936e-08
1.89991e-08
1.53024e-08
1.2329e-08
9.93834e-09
8.0166e-09
8.0166e-09
6.54419e-09
5.2862e-09
4.2748e-09
3.45971e-09
2.80024e-09
2.26525e-09
1.83234e-09
1.48396e-09
1.48396e-09
1.20838e-09
9.83234e-10
8.04212e-10
6.75606e-10
5.79648e-10
4.9587e-10
4.1995e-10
3.55149e-10
2.9113e-10
2.53346e-10
2.53346e-10
1.82961e-10
2.05244e-10
1.27101e-10
2.92503e-10
3.48683e-10
7.47813e-10
)
;
    }
}


// ************************************************************************* //
