/*--------------------------------*- C++ -*----------------------------------*\
| =========                 |                                                 |
| \\      /  F ield         | OpenFOAM: The Open Source CFD Toolbox           |
|  \\    /   O peration     | Version:  2306                                  |
|   \\  /    A nd           | Website:  www.openfoam.com                      |
|    \\/     M anipulation  |                                                 |
\*---------------------------------------------------------------------------*/
FoamFile
{
    version     2.0;
    format      ascii;
    arch        "LSB;label=32;scalar=64";
    class       volSymmTensorField;
    location    "325";
    object      turbulenceProperties:R;
}
// * * * * * * * * * * * * * * * * * * * * * * * * * * * * * * * * * * * * * //

dimensions      [0 2 -2 0 0 0 0];

internalField   nonuniform List<symmTensor> 
1340
(
(0.000370172 -3.47574e-05 1.29722e-21 0.000316061 2.96315e-22 0.000343144)
(0.000366593 -3.91705e-05 2.07292e-20 0.000324869 1.66698e-20 0.00034571)
(0.000361513 -4.24566e-05 -8.406e-21 0.000333954 -6.41139e-21 0.000347736)
(0.000314306 -2.97462e-05 5.98396e-21 0.000268866 4.43313e-21 0.000291612)
(0.000311728 -3.34582e-05 -4.49099e-21 0.000276697 -3.51259e-21 0.000294206)
(0.000307982 -3.62469e-05 -1.32377e-20 0.000284845 -9.02158e-21 0.000296428)
(0.000303059 -3.78691e-05 8.88024e-20 0.000292596 6.4727e-20 0.000297845)
(0.000296878 -3.82718e-05 -2.05923e-20 0.000299952 -1.60095e-20 0.000298421)
(0.00026865 -2.56385e-05 2.53252e-21 0.000230278 1.97163e-21 0.00024948)
(0.000266796 -2.87798e-05 -1.00852e-20 0.000237253 -6.61534e-21 0.000252016)
(0.000264021 -3.1156e-05 -4.46213e-20 0.000244562 -2.96962e-20 0.0002543)
(0.000260363 -3.25669e-05 -4.13964e-21 0.000251635 -4.32475e-21 0.000256005)
(0.000255741 -3.29711e-05 -6.43597e-21 0.000258482 -2.25821e-21 0.000257109)
(0.000250445 -3.22837e-05 5.79717e-20 0.000264633 3.69682e-20 0.000257543)
(0.000244563 -3.05277e-05 8.34608e-21 0.000269601 9.06003e-21 0.00025709)
(0.000230864 -2.22258e-05 -5.67024e-21 0.000198322 -3.03724e-21 0.000214605)
(0.00022952 -2.48967e-05 -3.3776e-20 0.000204532 -2.13246e-20 0.00021702)
(0.000227444 -2.6925e-05 1.34777e-20 0.000211071 9.30612e-21 0.000219265)
(0.00022469 -2.81443e-05 9.99387e-21 0.000217468 6.13162e-21 0.000221084)
(0.000221187 -2.85238e-05 4.07341e-20 0.000223757 2.5279e-20 0.000222471)
(0.000217184 -2.79927e-05 -5.89827e-20 0.000229547 -4.00547e-20 0.000223372)
(0.000212735 -2.65665e-05 7.58717e-20 0.000234422 3.84698e-20 0.000223588)
(0.000207896 -2.4287e-05 -1.96672e-19 0.000238198 -1.0916e-19 0.000223051)
(0.000199348 -1.93638e-05 9.67621e-21 0.000171641 5.78126e-21 0.000185503)
(0.000198371 -2.16454e-05 8.74259e-21 0.000177176 5.4791e-21 0.000187768)
(0.00019681 -2.33808e-05 2.87536e-21 0.000183025 2.28554e-21 0.000189924)
(0.000194725 -2.44324e-05 -4.85766e-21 0.000188799 -3.10197e-21 0.000191764)
(0.000192068 -2.4778e-05 3.66738e-20 0.000194551 1.94806e-20 0.000193307)
(0.00018903 -2.43566e-05 -3.14592e-20 0.000199934 -1.76013e-20 0.000194486)
(0.000185655 -2.31804e-05 -9.82425e-20 0.000204606 -5.68775e-20 0.000195136)
(0.000181991 -2.12822e-05 1.04987e-19 0.000208422 7.23256e-20 0.000195208)
(0.000178158 -1.87598e-05 3.48061e-20 0.00021115 2.19979e-20 0.00019466)
(0.000172849 -1.69435e-05 -1.64355e-21 0.000149182 -4.43041e-22 0.000161023)
(0.000172144 -1.88994e-05 -4.69277e-21 0.000154123 -2.29922e-21 0.000163128)
(0.000170954 -2.03864e-05 -1.88884e-20 0.000159348 -1.02033e-20 0.000165158)
(0.000169366 -2.12915e-05 8.9826e-21 0.00016455 3.96856e-21 0.000166959)
(0.000167344 -2.15983e-05 -2.84516e-20 0.000169786 -1.70378e-20 0.000168563)
(0.000165022 -2.12532e-05 6.64316e-20 0.000174741 3.81348e-20 0.000169886)
(0.000162454 -2.0269e-05 -3.78208e-21 0.000179142 6.57646e-21 0.000170803)
(0.000159679 -1.86727e-05 3.66701e-20 0.00018287 7.26072e-21 0.000171275)
(0.000156781 -1.65412e-05 2.87732e-20 0.000185721 7.32799e-21 0.000171256)
(0.000150426 -1.48818e-05 -2.01658e-20 0.000130153 -1.1063e-20 0.000140294)
(0.000149915 -1.65628e-05 3.08607e-20 0.000134563 1.63528e-20 0.000142235)
(0.000149003 -1.78396e-05 -2.30563e-20 0.000139234 -1.16088e-20 0.000144124)
(0.000147794 -1.8618e-05 1.30917e-20 0.000143919 4.8293e-21 0.000145856)
(0.000146246 -1.88846e-05 -7.65936e-20 0.000148665 -3.77431e-20 0.000147454)
(0.000144472 -1.85948e-05 4.20392e-20 0.000153207 1.89721e-20 0.000148842)
(0.000142519 -1.77606e-05 1.03938e-19 0.00015731 4.86964e-20 0.000149917)
(0.000140418 -1.64044e-05 -1.476e-19 0.000160878 -7.57307e-20 0.000150649)
(0.000138238 -1.45893e-05 -7.24372e-20 0.000163742 -3.20406e-20 0.000150992)
(0.000135979 -1.23738e-05 6.09607e-20 0.000165762 2.48926e-20 0.000150873)
(0.000131336 -1.31139e-05 1.02809e-20 0.000113929 4.9544e-21 0.000122636)
(0.000130964 -1.4562e-05 5.34645e-21 0.000117865 3.03707e-21 0.000124412)
(0.000130265 -1.56607e-05 1.52234e-20 0.000122048 7.64735e-21 0.000126161)
(0.000129341 -1.63286e-05 -4.4086e-20 0.000126261 -2.17642e-20 0.000127801)
(0.000128151 -1.65563e-05 8.304e-20 0.000130556 4.16601e-20 0.000129352)
(0.000126794 -1.63065e-05 -1.56995e-19 0.000134701 -7.50493e-20 0.000130749)
(0.000125312 -1.55911e-05 -6.51374e-20 0.000138496 -3.07301e-20 0.000131906)
(0.000123722 -1.44276e-05 8.33671e-20 0.000141859 4.86986e-20 0.000132791)
(0.000122085 -1.28699e-05 4.27374e-20 0.00014465 2.1138e-20 0.00013337)
(0.000120403 -1.09678e-05 -3.97173e-20 0.000146752 -2.42814e-20 0.000133579)
(0.000118683 -8.77172e-06 -1.11284e-20 0.000148081 -4.47103e-21 0.000133383)
(0.000114999 -1.15881e-05 -1.08082e-20 0.000100019 -4.74835e-21 0.000107511)
(0.000114725 -1.28391e-05 -8.21644e-21 0.000103535 -4.28076e-21 0.000109127)
(0.000114192 -1.37858e-05 2.65057e-20 0.000107286 1.2528e-20 0.000110743)
(0.000113479 -1.43579e-05 6.50583e-21 0.000111071 3.32845e-21 0.000112274)
(0.000112567 -1.45499e-05 3.82409e-20 0.000114954 1.75673e-20 0.000113759)
(0.000111528 -1.43293e-05 2.222e-19 0.000118723 1.08023e-19 0.000115127)
(0.000110404 -1.37084e-05 3.83306e-20 0.000122212 1.75089e-20 0.00011631)
(0.000109208 -1.27025e-05 3.72254e-20 0.000125353 1.10116e-20 0.00011728)
(0.000107993 -1.13581e-05 -3.02642e-20 0.000128027 -1.41261e-20 0.000118012)
(0.000106752 -9.71466e-06 -2.64749e-20 0.000130134 -9.62395e-21 0.000118445)
(0.0001055 -7.81455e-06 -2.29413e-20 0.000131609 -8.98526e-21 0.000118555)
(0.000100946 -1.0265e-05 8.81795e-21 8.80331e-05 3.56781e-21 9.44912e-05)
(0.000100751 -1.13486e-05 2.84681e-20 9.11835e-05 1.27723e-20 9.59648e-05)
(0.000100338 -1.21644e-05 2.98068e-20 9.45424e-05 1.33505e-20 9.74445e-05)
(9.97923e-05 -1.26544e-05 -4.44031e-20 9.79491e-05 -2.08257e-20 9.88694e-05)
(9.90913e-05 -1.28134e-05 -7.43062e-20 0.000101453 -3.50833e-20 0.000100271)
(9.83007e-05 -1.26153e-05 -4.91495e-20 0.000104877 -2.79462e-20 0.00010159)
(9.74489e-05 -1.20708e-05 -5.11427e-20 0.000108068 -2.17032e-20 0.00010276)
(9.65563e-05 -1.11944e-05 -2.95307e-20 0.000110981 -1.57276e-20 0.000103769)
(9.56619e-05 -1.0026e-05 4.88704e-20 0.000113508 2.27889e-20 0.000104586)
(9.4762e-05 -8.59911e-06 -2.23503e-21 0.000115566 -1.13575e-21 0.000105165)
(9.38623e-05 -6.94808e-06 9.31136e-21 0.000117097 4.74134e-21 0.000105481)
(9.29722e-05 -5.12135e-06 -2.54569e-20 0.000118041 -1.16379e-20 0.000105508)
(8.8811e-05 -9.11305e-06 -3.34161e-21 7.76639e-05 -1.09168e-21 8.32383e-05)
(8.86727e-05 -1.00527e-05 -2.71556e-20 8.04865e-05 -1.18495e-20 8.4578e-05)
(8.83538e-05 -1.07567e-05 -3.095e-20 8.35001e-05 -1.38684e-20 8.59307e-05)
(8.79346e-05 -1.11754e-05 -6.07215e-21 8.65634e-05 -1.55108e-21 8.72478e-05)
(8.73987e-05 -1.13052e-05 2.37176e-20 8.97268e-05 1.04318e-20 8.85616e-05)
(8.67953e-05 -1.11237e-05 -1.85541e-20 9.28276e-05 -7.40817e-21 8.98128e-05)
(8.61569e-05 -1.06422e-05 8.66325e-20 9.57418e-05 3.83551e-20 9.095e-05)
(8.54969e-05 -9.87363e-06 -6.67275e-20 9.84252e-05 -2.73991e-20 9.19608e-05)
(8.48488e-05 -8.85266e-06 -8.85497e-21 0.000100788 -6.14268e-21 9.28198e-05)
(8.42093e-05 -7.60803e-06 -2.43918e-20 0.000102763 -4.31245e-21 9.34865e-05)
(8.35842e-05 -6.16818e-06 2.54625e-20 0.000104302 1.76259e-21 9.39433e-05)
(8.29793e-05 -4.57341e-06 -4.6094e-20 0.000105351 -1.02242e-20 9.41658e-05)
(7.8294e-05 -8.10581e-06 -1.67721e-20 6.86586e-05 -6.89591e-21 7.34767e-05)
(7.81959e-05 -8.92183e-06 1.47085e-20 7.11888e-05 5.84474e-21 7.46909e-05)
(7.79493e-05 -9.52964e-06 -5.04661e-21 7.3894e-05 -1.93914e-21 7.59253e-05)
(7.76277e-05 -9.88684e-06 -1.11895e-20 7.665e-05 -4.01139e-21 7.71375e-05)
(7.72187e-05 -9.99071e-06 -3.71881e-20 7.95033e-05 -1.58631e-20 7.83602e-05)
(7.67604e-05 -9.82233e-06 -2.95294e-20 8.23088e-05 -1.08888e-20 7.95358e-05)
(7.62862e-05 -9.39323e-06 3.82255e-20 8.49618e-05 1.51046e-20 8.06245e-05)
(7.58055e-05 -8.71486e-06 1.91777e-20 8.74245e-05 9.86869e-21 8.1615e-05)
(7.53463e-05 -7.81774e-06 -3.09863e-20 8.96195e-05 -1.17261e-20 8.24842e-05)
(7.49071e-05 -6.72706e-06 1.07395e-19 9.14903e-05 4.1243e-20 8.31995e-05)
(7.44915e-05 -5.46639e-06 -1.35681e-19 9.29983e-05 -5.12652e-20 8.37454e-05)
(7.41034e-05 -4.06906e-06 1.38573e-19 9.40969e-05 5.08395e-20 8.41011e-05)
(7.37363e-05 -2.56555e-06 -1.19807e-19 9.47406e-05 -2.9291e-20 8.42393e-05)
(6.91453e-05 -7.2219e-06 -1.11085e-21 6.08085e-05 -4.48825e-22 6.49769e-05)
(6.90791e-05 -7.93165e-06 -2.05987e-20 6.30807e-05 -8.01833e-21 6.60787e-05)
(6.88863e-05 -8.45633e-06 3.85402e-21 6.55086e-05 1.81659e-21 6.72007e-05)
(6.86425e-05 -8.76064e-06 1.62373e-20 6.79903e-05 6.78934e-21 6.83148e-05)
(6.83305e-05 -8.84167e-06 1.42173e-20 7.05623e-05 6.28713e-21 6.94457e-05)
(6.79853e-05 -8.68399e-06 4.8056e-20 7.30992e-05 2.05661e-20 7.05433e-05)
(6.76383e-05 -8.29919e-06 7.50525e-20 7.55095e-05 2.60703e-20 7.15742e-05)
(6.72954e-05 -7.69722e-06 3.33144e-20 7.77615e-05 1.01624e-20 7.2528e-05)
(6.69813e-05 -6.90543e-06 -4.24703e-20 7.9789e-05 -1.20224e-20 7.3386e-05)
(6.66935e-05 -5.94563e-06 -1.77265e-21 8.15429e-05 -6.13172e-21 7.41187e-05)
(6.64363e-05 -4.83782e-06 6.11844e-21 8.29937e-05 1.41295e-20 7.47154e-05)
(6.62137e-05 -3.6109e-06 -3.38157e-20 8.41021e-05 -2.15304e-20 7.51585e-05)
(6.60177e-05 -2.28812e-06 1.19994e-19 8.48284e-05 4.86697e-20 7.54239e-05)
(6.11648e-05 -6.44385e-06 4.51773e-21 5.39455e-05 1.95754e-21 5.75548e-05)
(6.11203e-05 -7.06161e-06 -3.49038e-20 5.59858e-05 -1.28508e-20 5.85521e-05)
(6.09697e-05 -7.51487e-06 3.51338e-20 5.8168e-05 1.32404e-20 5.95718e-05)
(6.0786e-05 -7.77338e-06 -2.00283e-20 6.04024e-05 -7.84725e-21 6.05928e-05)
(6.0549e-05 -7.83448e-06 -1.88743e-20 6.27204e-05 -7.39443e-21 6.16341e-05)
(6.02929e-05 -7.68596e-06 5.23225e-20 6.50136e-05 1.85933e-20 6.26541e-05)
(6.0042e-05 -7.33845e-06 -6.9103e-20 6.71989e-05 -3.06347e-20 6.36208e-05)
(5.98058e-05 -6.80169e-06 -2.04012e-20 6.92536e-05 -7.28364e-21 6.45294e-05)
(5.96023e-05 -6.0999e-06 1.08441e-19 7.11171e-05 3.69183e-20 6.53603e-05)
(5.94313e-05 -5.25235e-06 -4.13273e-20 7.2751e-05 -1.55874e-20 6.60913e-05)
(5.92948e-05 -4.27596e-06 1.4296e-19 7.41295e-05 4.27508e-20 6.67122e-05)
(5.91971e-05 -3.19513e-06 -7.711e-20 7.52208e-05 -2.31339e-20 6.72094e-05)
(5.9131e-05 -2.02947e-06 1.17782e-20 7.59906e-05 -1.24901e-20 6.7561e-05)
(5.90962e-05 -8.02528e-07 1.77369e-20 7.64133e-05 4.99352e-21 6.7755e-05)
(5.41833e-05 -5.75703e-06 1.44377e-20 4.79278e-05 5.33152e-21 5.10553e-05)
(5.41543e-05 -6.29515e-06 -1.97073e-20 4.9761e-05 -6.78047e-21 5.19569e-05)
(5.4038e-05 -6.68679e-06 -4.67144e-21 5.17247e-05 -2.01677e-21 5.28838e-05)
(5.38988e-05 -6.90553e-06 -3.28142e-20 5.37348e-05 -1.2293e-20 5.38157e-05)
(5.37209e-05 -6.94962e-06 -5.05548e-20 5.58248e-05 -1.69747e-20 5.47723e-05)
(5.35328e-05 -6.80887e-06 4.81785e-20 5.78954e-05 1.42581e-20 5.5715e-05)
(5.33578e-05 -6.49377e-06 -8.49261e-20 5.98757e-05 -2.83031e-20 5.66169e-05)
(5.32014e-05 -6.01291e-06 -3.98291e-20 6.17441e-05 -1.40425e-20 5.74727e-05)
(5.30823e-05 -5.38828e-06 -1.10411e-19 6.34519e-05 -3.95868e-20 5.82678e-05)
(5.29979e-05 -4.63695e-06 -3.01496e-20 6.49634e-05 -1.19696e-20 5.8981e-05)
(5.29523e-05 -3.77378e-06 -1.44038e-19 6.62605e-05 -5.54007e-20 5.96067e-05)
(5.29464e-05 -2.81966e-06 3.72599e-20 6.73133e-05 1.90636e-20 6.01303e-05)
(5.29772e-05 -1.79071e-06 -1.99554e-19 6.80975e-05 -5.55421e-20 6.05375e-05)
(5.30429e-05 -7.06168e-07 3.50366e-20 6.85893e-05 1.86961e-20 6.08161e-05)
(4.80608e-05 -5.14927e-06 -1.0455e-20 4.26381e-05 -3.53832e-21 4.5349e-05)
(4.80424e-05 -5.61828e-06 2.13975e-20 4.42859e-05 7.76445e-21 4.61636e-05)
(4.79536e-05 -5.95656e-06 3.78711e-21 4.60539e-05 1.09561e-21 4.7006e-05)
(4.78487e-05 -6.14107e-06 -6.93889e-20 4.78632e-05 -2.31956e-20 4.78548e-05)
(4.77169e-05 -6.17065e-06 7.81686e-20 4.97472e-05 2.72924e-20 4.87315e-05)
(4.75815e-05 -6.03685e-06 -1.08658e-19 5.1616e-05 -3.93038e-20 4.95995e-05)
(4.74638e-05 -5.74977e-06 9.40942e-20 5.34078e-05 3.43485e-20 5.0436e-05)
(4.73697e-05 -5.31746e-06 -1.58969e-20 5.51057e-05 -3.93403e-21 5.12374e-05)
(4.73137e-05 -4.75984e-06 8.38679e-20 5.66646e-05 3.1159e-20 5.19897e-05)
(4.7295e-05 -4.09203e-06 -6.37392e-20 5.80572e-05 -2.15447e-20 5.26762e-05)
(4.73161e-05 -3.3268e-06 -5.3779e-20 5.92675e-05 -5.71344e-21 5.32918e-05)
(4.7378e-05 -2.48177e-06 9.30394e-20 6.02712e-05 3.11031e-20 5.3825e-05)
(4.74791e-05 -1.5716e-06 1.61289e-19 6.10483e-05 5.76968e-20 5.4264e-05)
(4.76165e-05 -6.11467e-07 1.10286e-19 6.15772e-05 2.73723e-20 5.45969e-05)
(4.26799e-05 -4.61031e-06 1.04122e-20 3.79778e-05 3.44484e-21 4.03283e-05)
(4.26691e-05 -5.01928e-06 -1.05087e-20 3.94601e-05 -3.1888e-21 4.10641e-05)
(4.26003e-05 -5.31115e-06 6.76241e-21 4.10512e-05 2.28807e-21 4.18278e-05)
(4.25226e-05 -5.46626e-06 4.78049e-21 4.26811e-05 2.67608e-21 4.26007e-05)
(4.24259e-05 -5.4834e-06 -5.2829e-20 4.43785e-05 -1.87385e-20 4.34018e-05)
(4.23316e-05 -5.35598e-06 -6.05253e-20 4.60647e-05 -1.79707e-20 4.41989e-05)
(4.22571e-05 -5.0934e-06 -4.39836e-20 4.76842e-05 -1.49978e-20 4.49708e-05)
(4.22107e-05 -4.70361e-06 -1.33231e-20 4.92245e-05 -1.72977e-21 4.57174e-05)
(4.22016e-05 -4.20397e-06 4.06569e-21 5.06446e-05 1.50658e-21 4.64237e-05)
(4.22314e-05 -3.60861e-06 -1.02627e-21 5.19227e-05 2.1558e-21 4.70773e-05)
(4.23009e-05 -2.9286e-06 1.03408e-19 5.30445e-05 3.28655e-20 4.76728e-05)
(4.24126e-05 -2.17927e-06 1.9232e-20 5.3992e-05 -1.88581e-21 4.82023e-05)
(4.25625e-05 -1.3726e-06 -3.84007e-20 5.47458e-05 -1.68406e-20 4.86544e-05)
(4.27511e-05 -5.21546e-07 -2.86629e-20 5.52908e-05 -1.43348e-20 4.90208e-05)
(4.29747e-05 3.55803e-07 -1.55795e-19 5.56071e-05 -3.88647e-20 4.92911e-05)
(3.79408e-05 -4.13128e-06 1.40287e-20 3.38629e-05 4.48814e-21 3.59013e-05)
(3.79357e-05 -4.48809e-06 3.27916e-20 3.51975e-05 1.07438e-20 3.65661e-05)
(3.78819e-05 -4.73966e-06 -5.00745e-20 3.66294e-05 -1.56203e-20 3.72577e-05)
(3.78251e-05 -4.86942e-06 7.26184e-20 3.80975e-05 2.40233e-20 3.79602e-05)
(3.77558e-05 -4.87617e-06 1.22168e-20 3.96272e-05 4.84811e-21 3.86912e-05)
(3.76922e-05 -4.7546e-06 9.34e-20 4.11473e-05 3.16907e-20 3.94205e-05)
(3.76518e-05 -4.5139e-06 7.17659e-20 4.2611e-05 2.19295e-20 4.01313e-05)
(3.76404e-05 -4.16138e-06 5.60743e-20 4.40057e-05 1.92368e-20 4.08229e-05)
(3.76666e-05 -3.71265e-06 8.56311e-20 4.52974e-05 2.33715e-20 4.14823e-05)
(3.77311e-05 -3.18062e-06 -3.74883e-20 4.64659e-05 -1.25107e-20 4.20986e-05)
(3.78352e-05 -2.57469e-06 -4.54412e-20 4.75011e-05 -1.93548e-20 4.26681e-05)
(3.79807e-05 -1.90845e-06 -6.01141e-20 4.83874e-05 -1.75345e-20 4.31842e-05)
(3.8165e-05 -1.19235e-06 7.33741e-20 4.91092e-05 1.92827e-20 4.36371e-05)
(3.83884e-05 -4.37158e-07 2.72417e-20 4.96543e-05 5.85947e-21 4.40212e-05)
(3.86473e-05 3.42311e-07 5.67267e-20 5.00048e-05 2.64246e-20 4.43262e-05)
(3.37592e-05 -3.7048e-06 -2.66967e-20 3.02227e-05 -8.15838e-21 3.19904e-05)
(3.37585e-05 -4.01618e-06 -2.73647e-21 3.14252e-05 -8.86403e-22 3.25914e-05)
(3.37158e-05 -4.23278e-06 8.27347e-20 3.2714e-05 2.60446e-20 3.32167e-05)
(3.36751e-05 -4.34072e-06 -1.68888e-21 3.40365e-05 -1.12346e-21 3.38548e-05)
(3.36273e-05 -4.33884e-06 -3.67143e-20 3.54151e-05 -1.11023e-20 3.45208e-05)
(3.35868e-05 -4.22274e-06 -1.14259e-20 3.6785e-05 -6.10545e-21 3.51866e-05)
(3.35724e-05 -4.00164e-06 -9.16134e-20 3.81072e-05 -2.95582e-20 3.58398e-05)
(3.35862e-05 -3.68187e-06 2.43862e-20 3.93683e-05 8.21342e-21 3.64772e-05)
(3.36382e-05 -3.2779e-06 -1.08671e-19 4.05411e-05 -3.30568e-20 3.709e-05)
(3.37271e-05 -2.80118e-06 2.41826e-20 4.16066e-05 6.10804e-21 3.7667e-05)
(3.3855e-05 -2.26041e-06 -4.58138e-20 4.25577e-05 -1.08423e-20 3.82065e-05)
(3.40225e-05 -1.66711e-06 -9.05255e-21 4.33803e-05 -1.38929e-22 3.87015e-05)
(3.42291e-05 -1.03034e-06 -9.4954e-20 4.40639e-05 -3.29355e-20 3.91466e-05)
(3.44738e-05 -3.59392e-07 -4.95442e-20 4.45966e-05 -1.00359e-20 3.95351e-05)
(3.4754e-05 3.33249e-07 5.87966e-20 4.49638e-05 9.46598e-21 3.98589e-05)
(3.00641e-05 -3.32461e-06 5.22942e-21 2.69977e-05 1.62181e-21 2.85303e-05)
(3.00653e-05 -3.59618e-06 -3.35153e-20 2.80803e-05 -1.01159e-20 2.90725e-05)
(3.00317e-05 -3.78251e-06 -5.30453e-20 2.92414e-05 -1.65428e-20 2.96381e-05)
(3.00029e-05 -3.87167e-06 -1.10813e-20 3.04325e-05 -2.75854e-21 3.02168e-05)
(2.99709e-05 -3.86256e-06 5.08981e-20 3.16741e-05 1.53277e-20 3.08223e-05)
(2.99489e-05 -3.75187e-06 -5.89238e-20 3.29092e-05 -1.7304e-20 3.14296e-05)
(2.99532e-05 -3.54831e-06 -5.75496e-21 3.41018e-05 1.93197e-21 3.20275e-05)
(2.99857e-05 -3.25759e-06 1.06056e-19 3.52415e-05 2.8697e-20 3.26136e-05)
(3.00553e-05 -2.89329e-06 7.69689e-20 3.63038e-05 2.36223e-20 3.318e-05)
(3.0161e-05 -2.46531e-06 -9.52177e-20 3.72735e-05 -2.82595e-20 3.37173e-05)
(3.03039e-05 -1.98163e-06 3.70704e-20 3.81437e-05 1.57604e-20 3.4224e-05)
(3.04857e-05 -1.45232e-06 2.28994e-20 3.89044e-05 6.79943e-21 3.46952e-05)
(3.07051e-05 -8.85522e-07 -7.21616e-20 3.95457e-05 -1.11987e-20 3.51255e-05)
(3.09615e-05 -2.88465e-07 7.44601e-20 4.00583e-05 2.03942e-20 3.55098e-05)
(3.12534e-05 3.27803e-07 -6.41243e-20 4.04305e-05 -2.11449e-20 3.58421e-05)
(3.15779e-05 9.52903e-07 5.73358e-20 4.06503e-05 1.74494e-20 3.61139e-05)
(2.67937e-05 -2.9851e-06 2.52555e-21 2.41356e-05 7.50071e-22 2.5464e-05)
(2.67957e-05 -3.22193e-06 7.00471e-22 2.51105e-05 3.37543e-22 2.59528e-05)
(2.6769e-05 -3.38196e-06 -1.71405e-20 2.61564e-05 -4.82078e-21 2.64641e-05)
(2.67496e-05 -3.45504e-06 1.47387e-20 2.72294e-05 4.58832e-21 2.69886e-05)
(2.67292e-05 -3.44001e-06 -3.66223e-20 2.83473e-05 -1.01811e-20 2.75381e-05)
(2.67213e-05 -3.3346e-06 7.86036e-20 2.94605e-05 2.36765e-20 2.80914e-05)
(2.67391e-05 -3.14686e-06 5.07005e-20 3.05357e-05 1.13985e-20 2.86374e-05)
(2.67852e-05 -2.88219e-06 -1.77142e-19 3.15651e-05 -5.34815e-20 2.9175e-05)
(2.68666e-05 -2.55294e-06 1.83592e-20 3.2526e-05 7.23033e-21 2.96966e-05)
(2.6983e-05 -2.16811e-06 6.8897e-21 3.34068e-05 4.0147e-21 3.01949e-05)
(2.71349e-05 -1.73471e-06 9.11783e-20 3.42011e-05 2.23979e-20 3.0668e-05)
(2.73239e-05 -1.26197e-06 5.9704e-20 3.49007e-05 1.0297e-20 3.11124e-05)
(2.75485e-05 -7.56345e-07 1.095e-19 3.54975e-05 3.29043e-20 3.1523e-05)
(2.78094e-05 -2.24797e-07 -3.32854e-20 3.59848e-05 -1.00036e-20 3.1897e-05)
(2.81041e-05 3.23768e-07 -3.77e-20 3.63515e-05 -6.34992e-21 3.22278e-05)
(2.84317e-05 8.80423e-07 8.4114e-20 3.65892e-05 1.66385e-20 3.25103e-05)
(2.38949e-05 -2.68153e-06 7.50582e-21 2.15916e-05 2.08351e-21 2.27427e-05)
(2.38974e-05 -2.88804e-06 4.56253e-20 2.24701e-05 1.29434e-20 2.31835e-05)
(2.38756e-05 -3.0252e-06 3.0544e-21 2.3412e-05 1.15882e-21 2.36452e-05)
(2.38631e-05 -3.08448e-06 4.25704e-20 2.43786e-05 1.24821e-20 2.412e-05)
(2.3852e-05 -3.06476e-06 8.57306e-21 2.53856e-05 2.15442e-21 2.46186e-05)
(2.38541e-05 -2.9644e-06 -3.98964e-20 2.63879e-05 -1.30189e-20 2.51215e-05)
(2.38817e-05 -2.79105e-06 -8.67793e-20 2.73571e-05 -2.51747e-20 2.56193e-05)
(2.39372e-05 -2.54976e-06 -8.5831e-21 2.8286e-05 3.07467e-21 2.61114e-05)
(2.40259e-05 -2.25166e-06 7.15237e-20 2.91544e-05 2.0266e-20 2.65904e-05)
(2.41481e-05 -1.90511e-06 -3.97695e-20 2.99524e-05 -1.12893e-20 2.70503e-05)
(2.4304e-05 -1.5162e-06 -6.5334e-20 3.06753e-05 -2.08373e-20 2.74897e-05)
(2.44949e-05 -1.0932e-06 -1.44419e-19 3.13161e-05 -3.78711e-20 2.79056e-05)
(2.47198e-05 -6.41927e-07 7.98502e-20 3.18683e-05 1.79034e-20 2.82941e-05)
(2.49792e-05 -1.68044e-07 8.52044e-20 3.23266e-05 1.72126e-20 2.86528e-05)
(2.52719e-05 3.20705e-07 -2.23673e-20 3.26827e-05 -5.11759e-21 2.89773e-05)
(2.55961e-05 8.16603e-07 -1.49208e-20 3.2928e-05 -2.81782e-21 2.9262e-05)
(2.12908e-05 -2.1949e-06 -1.21165e-21 1.86464e-05 -4.24519e-22 1.99689e-05)
(2.13228e-05 -2.40984e-06 2.64546e-21 1.9328e-05 7.53287e-22 2.03248e-05)
(2.13247e-05 -2.58978e-06 -2.68986e-20 2.01192e-05 -7.48859e-21 2.07218e-05)
(2.13068e-05 -2.70711e-06 -1.99788e-20 2.09678e-05 -5.27584e-21 2.11385e-05)
(2.12993e-05 -2.75459e-06 5.12232e-20 2.18382e-05 1.36153e-20 2.1568e-05)
(2.1295e-05 -2.73115e-06 -7.88318e-20 2.27449e-05 -2.14809e-20 2.20198e-05)
(2.13043e-05 -2.63568e-06 2.39196e-21 2.36474e-05 1.67941e-21 2.24763e-05)
(2.13386e-05 -2.47546e-06 -2.0545e-20 2.45204e-05 -2.66746e-21 2.29295e-05)
(2.14e-05 -2.25517e-06 5.36773e-20 2.53579e-05 1.4165e-20 2.33789e-05)
(2.14927e-05 -1.98493e-06 4.24349e-20 2.61416e-05 1.0085e-20 2.38174e-05)
(2.16171e-05 -1.67243e-06 4.92722e-20 2.68636e-05 1.40753e-20 2.42405e-05)
(2.17735e-05 -1.32302e-06 2.81704e-21 2.752e-05 2.5288e-22 2.46468e-05)
(2.19628e-05 -9.44247e-07 4.37591e-21 2.81049e-05 5.81209e-21 2.50339e-05)
(2.21843e-05 -5.40931e-07 -1.40862e-20 2.86136e-05 -7.00125e-21 2.53989e-05)
(2.24382e-05 -1.18064e-07 -9.77959e-20 2.90413e-05 -2.43707e-20 2.57397e-05)
(2.27238e-05 3.17567e-07 -3.96095e-21 2.93813e-05 3.56388e-21 2.60525e-05)
(2.30396e-05 7.59455e-07 9.48126e-20 2.96266e-05 1.84181e-20 2.63329e-05)
(2.33824e-05 1.19883e-06 9.92852e-21 2.97695e-05 -1.88192e-21 2.65759e-05)
(1.90099e-05 -1.97743e-06 3.41142e-21 1.66965e-05 9.06277e-22 1.78535e-05)
(1.90376e-05 -2.16639e-06 -1.78033e-20 1.73111e-05 -4.69276e-21 1.81738e-05)
(1.90387e-05 -2.32309e-06 -2.18596e-20 1.80237e-05 -5.74582e-21 1.85311e-05)
(1.90238e-05 -2.42321e-06 1.72368e-20 1.87882e-05 4.76469e-21 1.89071e-05)
(1.90199e-05 -2.46064e-06 -3.41441e-20 1.9572e-05 -9.07805e-21 1.92952e-05)
(1.90205e-05 -2.43434e-06 5.28741e-20 2.03881e-05 1.5093e-20 1.97042e-05)
(1.90351e-05 -2.34371e-06 3.14949e-20 2.12006e-05 8.89439e-21 2.01182e-05)
(1.90739e-05 -2.19556e-06 9.21681e-20 2.19867e-05 2.42122e-20 2.05302e-05)
(1.91384e-05 -1.99424e-06 -7.85175e-20 2.27409e-05 -2.18886e-20 2.09397e-05)
(1.92327e-05 -1.74898e-06 -5.20095e-21 2.34479e-05 -1.68997e-21 2.13405e-05)
(1.93568e-05 -1.46683e-06 3.79188e-20 2.41002e-05 6.08293e-21 2.17286e-05)
(1.95108e-05 -1.15247e-06 -8.02787e-20 2.4695e-05 -1.86106e-20 2.21029e-05)
(1.96955e-05 -8.12733e-07 1.09231e-20 2.52273e-05 3.44723e-21 2.24615e-05)
(1.99105e-05 -4.51968e-07 3.66087e-21 2.56934e-05 2.40528e-21 2.28021e-05)
(2.0156e-05 -7.44519e-08 6.03486e-20 2.60897e-05 1.61777e-20 2.31227e-05)
(2.04315e-05 3.1397e-07 5.1842e-20 2.64109e-05 6.56142e-21 2.34212e-05)
(2.07358e-05 7.08003e-07 -9.14429e-20 2.66509e-05 -2.21307e-20 2.36932e-05)
(2.10665e-05 1.09973e-06 -5.08757e-20 2.68037e-05 -5.41328e-21 2.39351e-05)
(1.69817e-05 -1.78197e-06 -8.67486e-22 1.49581e-05 -4.28098e-22 1.59702e-05)
(1.70053e-05 -1.94806e-06 1.65971e-21 1.55121e-05 4.26769e-22 1.62581e-05)
(1.70054e-05 -2.08442e-06 7.73233e-21 1.6154e-05 2.19841e-21 1.65796e-05)
(1.69928e-05 -2.16962e-06 5.79106e-20 1.68427e-05 1.51551e-20 1.69187e-05)
(1.69913e-05 -2.19851e-06 1.58217e-20 1.75483e-05 4.00324e-21 1.72692e-05)
(1.69955e-05 -2.17009e-06 2.25312e-20 1.82829e-05 4.84871e-21 1.76391e-05)
(1.70136e-05 -2.08413e-06 -1.30173e-20 1.9014e-05 -3.8874e-21 1.80141e-05)
(1.7055e-05 -1.9471e-06 1.52485e-20 1.97215e-05 5.16827e-21 1.83882e-05)
(1.7121e-05 -1.76297e-06 3.76091e-21 2.04005e-05 1.95598e-21 1.87607e-05)
(1.72151e-05 -1.54021e-06 -2.45137e-20 2.10377e-05 -7.55304e-21 1.91266e-05)
(1.73367e-05 -1.28515e-06 -7.2121e-20 2.1626e-05 -1.79926e-20 1.94814e-05)
(1.74864e-05 -1.0022e-06 6.99558e-20 2.21639e-05 2.04203e-20 1.98251e-05)
(1.76649e-05 -6.97325e-07 -9.05287e-21 2.26472e-05 -1.5055e-21 2.0156e-05)
(1.78714e-05 -3.74291e-07 3.71697e-20 2.30729e-05 5.83974e-21 2.04722e-05)
(1.81064e-05 -3.67793e-08 -4.97187e-20 2.34381e-05 -1.36298e-20 2.07722e-05)
(1.83695e-05 3.09806e-07 -1.03724e-19 2.37385e-05 -2.65682e-20 2.1054e-05)
(1.86598e-05 6.61142e-07 6.2455e-20 2.39693e-05 1.77578e-20 2.13144e-05)
(1.89754e-05 1.01041e-06 1.21905e-19 2.41253e-05 2.48031e-20 2.15504e-05)
(1.51765e-05 -1.60615e-06 -1.73472e-21 1.34065e-05 -3.20554e-22 1.42918e-05)
(1.51961e-05 -1.75211e-06 1.66904e-20 1.3906e-05 4.20681e-21 1.45505e-05)
(1.51952e-05 -1.87066e-06 1.3658e-20 1.44841e-05 3.46414e-21 1.48395e-05)
(1.51841e-05 -1.94292e-06 -2.73618e-20 1.51043e-05 -7.04702e-21 1.51451e-05)
(1.51845e-05 -1.96458e-06 -3.39765e-20 1.57397e-05 -9.08505e-21 1.54615e-05)
(1.5191e-05 -1.93466e-06 -7.48646e-20 1.64006e-05 -1.85029e-20 1.57957e-05)
(1.52113e-05 -1.85326e-06 -2.28671e-20 1.70582e-05 -3.95592e-21 1.61351e-05)
(1.5254e-05 -1.72646e-06 1.84425e-19 1.76945e-05 4.54122e-20 1.64742e-05)
(1.53201e-05 -1.55795e-06 1.81708e-20 1.83057e-05 1.52833e-21 1.68129e-05)
(1.54123e-05 -1.35545e-06 -2.52761e-20 1.88792e-05 -6.52587e-21 1.7146e-05)
(1.55302e-05 -1.12471e-06 -1.4508e-20 1.94094e-05 -5.971e-22 1.74699e-05)
(1.56743e-05 -8.69683e-07 4.20585e-20 1.98951e-05 6.83513e-21 1.77847e-05)
(1.5845e-05 -5.95784e-07 3.62315e-20 2.03329e-05 7.57331e-21 1.80891e-05)
(1.60418e-05 -3.06424e-07 -6.87752e-20 2.07202e-05 -1.82319e-20 1.8381e-05)
(1.62649e-05 -4.7838e-09 2.54788e-20 2.1055e-05 6.78443e-21 1.86598e-05)
(1.65142e-05 3.0467e-07 -7.1763e-20 2.13338e-05 -1.1648e-20 1.8924e-05)
(1.67893e-05 6.18012e-07 -1.98429e-20 2.1553e-05 -2.14445e-21 1.9171e-05)
(1.70878e-05 9.29362e-07 -6.50522e-20 2.17076e-05 -1.2362e-20 1.93977e-05)
(1.74076e-05 1.23309e-06 6.07802e-20 2.17937e-05 1.66971e-21 1.96005e-05)
(1.35683e-05 -1.4479e-06 -4.5527e-21 1.20207e-05 -1.11555e-21 1.27948e-05)
(1.35843e-05 -1.57611e-06 -1.00334e-20 1.24707e-05 -2.44614e-21 1.3027e-05)
(1.35824e-05 -1.67909e-06 1.88652e-20 1.29913e-05 4.63811e-21 1.32867e-05)
(1.35724e-05 -1.74013e-06 1.96294e-20 1.35497e-05 5.01589e-21 1.35619e-05)
(1.35739e-05 -1.75571e-06 3.48718e-20 1.41217e-05 8.67395e-21 1.38473e-05)
(1.3582e-05 -1.72483e-06 7.46798e-20 1.47162e-05 1.92417e-20 1.4149e-05)
(1.36038e-05 -1.64791e-06 1.44847e-20 1.53077e-05 1.14002e-21 1.4456e-05)
(1.36468e-05 -1.53058e-06 -5.17479e-20 1.58801e-05 -1.51815e-20 1.47634e-05)
(1.37119e-05 -1.37631e-06 -7.45731e-20 1.64296e-05 -1.84642e-20 1.50707e-05)
(1.38009e-05 -1.19201e-06 -2.90356e-20 1.69452e-05 -3.36695e-21 1.53732e-05)
(1.39142e-05 -9.83161e-07 3.00068e-20 1.74226e-05 5.97259e-21 1.56684e-05)
(1.40518e-05 -7.53287e-07 -9.35326e-20 1.78604e-05 -2.22924e-20 1.59561e-05)
(1.42138e-05 -5.07029e-07 -1.17259e-22 1.82559e-05 -6.29877e-22 1.62349e-05)
(1.43999e-05 -2.47535e-07 -5.90174e-20 1.86074e-05 -1.023e-20 1.65037e-05)
(1.46105e-05 2.23814e-08 -1.56141e-20 1.89131e-05 -5.81868e-21 1.67617e-05)
(1.48453e-05 2.98674e-07 1.33491e-20 1.91703e-05 4.70432e-21 1.70078e-05)
(1.51039e-05 5.78171e-07 1.08239e-19 1.93758e-05 2.50175e-20 1.72397e-05)
(1.53846e-05 8.5574e-07 1.262e-19 1.9526e-05 2.4134e-20 1.74553e-05)
(1.56853e-05 1.12639e-06 -8.23722e-20 1.96171e-05 -1.53124e-20 1.76511e-05)
(1.21346e-05 -1.30536e-06 8.76545e-22 1.07817e-05 1.23967e-22 1.14584e-05)
(1.21472e-05 -1.41795e-06 7.15069e-21 1.11871e-05 1.72128e-21 1.16667e-05)
(1.21442e-05 -1.50729e-06 -3.66757e-20 1.16559e-05 -8.64439e-21 1.18999e-05)
(1.2135e-05 -1.55863e-06 2.44631e-20 1.21586e-05 5.45054e-21 1.21476e-05)
(1.21372e-05 -1.5691e-06 -6.01043e-20 1.26734e-05 -1.41868e-20 1.24048e-05)
(1.21463e-05 -1.53772e-06 5.4721e-20 1.32081e-05 1.15509e-20 1.26771e-05)
(1.21688e-05 -1.4651e-06 -1.99477e-19 1.37399e-05 -4.77451e-20 1.29546e-05)
(1.22114e-05 -1.35656e-06 1.18868e-20 1.42546e-05 4.47209e-21 1.32329e-05)
(1.22743e-05 -1.21522e-06 -2.26414e-20 1.47481e-05 -3.2458e-21 1.35112e-05)
(1.236e-05 -1.04754e-06 1.48784e-19 1.52116e-05 3.29976e-20 1.3786e-05)
(1.24681e-05 -8.5838e-07 -4.46936e-20 1.5641e-05 -1.1809e-20 1.40545e-05)
(1.25985e-05 -6.50929e-07 1.00812e-20 1.60352e-05 4.68149e-21 1.43169e-05)
(1.27514e-05 -4.29444e-07 -7.92385e-22 1.63919e-05 1.11536e-21 1.45717e-05)
(1.29264e-05 -1.96739e-07 4.16237e-20 1.67098e-05 1.14427e-20 1.48182e-05)
(1.31241e-05 4.48424e-08 -8.3881e-20 1.6988e-05 -1.85601e-20 1.50559e-05)
(1.33439e-05 2.91683e-07 -3.77e-20 1.72238e-05 -5.33301e-21 1.52839e-05)
(1.35856e-05 5.41035e-07 4.78317e-20 1.74148e-05 6.17122e-21 1.55001e-05)
(1.3848e-05 7.88378e-07 -5.56766e-20 1.75581e-05 -1.62932e-20 1.5703e-05)
(1.41292e-05 1.02959e-06 8.38095e-20 1.76506e-05 1.61325e-20 1.58898e-05)
(1.08552e-05 -1.1769e-06 -2.19624e-21 9.67307e-06 -4.87864e-22 1.02644e-05)
(1.0865e-05 -1.27574e-06 -1.92228e-20 1.00383e-05 -4.43351e-21 1.04512e-05)
(1.08611e-05 -1.35314e-06 2.17426e-20 1.04603e-05 5.10877e-21 1.06606e-05)
(1.08522e-05 -1.3961e-06 -4.13932e-20 1.09127e-05 -9.51314e-21 1.08831e-05)
(1.08549e-05 -1.40232e-06 7.64517e-20 1.1376e-05 1.7882e-20 1.1115e-05)
(1.08645e-05 -1.37081e-06 -9.22471e-21 1.18568e-05 -2.96267e-21 1.13606e-05)
(1.08871e-05 -1.30238e-06 1.58627e-20 1.23348e-05 5.66741e-21 1.16112e-05)
(1.09286e-05 -1.20199e-06 1.28823e-20 1.27971e-05 3.35762e-21 1.18628e-05)
(1.09893e-05 -1.07252e-06 -2.49957e-20 1.32405e-05 -6.30118e-21 1.21149e-05)
(1.1071e-05 -9.1986e-07 -9.26449e-20 1.3657e-05 -2.09393e-20 1.23641e-05)
(1.11735e-05 -7.4842e-07 -1.16061e-20 1.40428e-05 -2.1925e-21 1.26082e-05)
(1.12963e-05 -5.61148e-07 7.71451e-21 1.43971e-05 2.92387e-21 1.28468e-05)
(1.14399e-05 -3.61865e-07 4.23522e-20 1.47183e-05 1.04561e-20 1.30791e-05)
(1.16038e-05 -1.5301e-07 7.12499e-20 1.50053e-05 1.57144e-20 1.33045e-05)
(1.17884e-05 6.32292e-08 -4.26975e-20 1.52575e-05 -7.6067e-21 1.35229e-05)
(1.19933e-05 2.83824e-07 4.6148e-20 1.54727e-05 1.32445e-20 1.3733e-05)
(1.22183e-05 5.06262e-07 3.0999e-21 1.5649e-05 -1.83498e-21 1.39335e-05)