/*--------------------------------*- C++ -*----------------------------------*\
| =========                 |                                                 |
| \\      /  F ield         | OpenFOAM: The Open Source CFD Toolbox           |
|  \\    /   O peration     | Version:  2306                                  |
|   \\  /    A nd           | Website:  www.openfoam.com                      |
|    \\/     M anipulation  |                                                 |
\*---------------------------------------------------------------------------*/
FoamFile
{
    version     2.0;
    format      ascii;
    arch        "LSB;label=32;scalar=64";
    class       volScalarField;
    location    "325";
    object      turbulenceProperties:L;
}
// * * * * * * * * * * * * * * * * * * * * * * * * * * * * * * * * * * * * * //

dimensions      [0 1 0 0 0 0 0];

internalField   nonuniform List<scalar> 
1340
(
0.00951987
0.00948403
0.00945657
0.0103268
0.0102808
0.0102425
0.0102181
0.0102081
0.0111647
0.011108
0.0110583
0.0110214
0.0109975
0.0109883
0.0109981
0.0120377
0.0119702
0.011909
0.0118599
0.0118227
0.011799
0.0117933
0.0118074
0.0129475
0.0128689
0.0127959
0.0127342
0.0126832
0.0126448
0.0126238
0.0126213
0.0126392
0.0138969
0.0138066
0.0137218
0.0136474
0.0135822
0.0135294
0.013493
0.0134743
0.0134752
0.0148881
0.0147859
0.014689
0.0146013
0.0145219
0.0144542
0.0144022
0.0143672
0.0143509
0.0143566
0.0159239
0.0158096
0.0156999
0.0155986
0.0155048
0.0154218
0.0153541
0.0153028
0.0152695
0.0152576
0.0152688
0.0170071
0.0168804
0.0167571
0.0166423
0.0165332
0.0164348
0.0163511
0.0162832
0.0162328
0.0162031
0.0161955
0.018141
0.0180009
0.0178641
0.0177345
0.0176102
0.0174956
0.0173957
0.0173109
0.0172432
0.0171957
0.0171699
0.0171677
0.0193283
0.0191744
0.0190233
0.0188788
0.0187382
0.0186074
0.0184907
0.0183887
0.0183035
0.0182381
0.0181937
0.0181722
0.0205721
0.020404
0.0202379
0.0200778
0.0199206
0.019773
0.019639
0.0195195
0.0194165
0.0193328
0.0192697
0.0192289
0.0192131
0.0218763
0.021693
0.0215116
0.021335
0.0211606
0.0209955
0.0208437
0.0207062
0.0205849
0.0204829
0.0204009
0.0203407
0.0203049
0.023244
0.0230451
0.0228475
0.0226537
0.0224616
0.0222782
0.0221082
0.021952
0.0218121
0.0216911
0.0215899
0.02151
0.0214539
0.0214232
0.0246792
0.0244641
0.0242492
0.0240378
0.0238271
0.0236248
0.0234358
0.0232607
0.0231015
0.0229614
0.0228406
0.0227409
0.0226643
0.0226123
0.0261859
0.0259538
0.0257207
0.025491
0.0252607
0.025039
0.0248304
0.0246354
0.0244566
0.0242967
0.0241559
0.0240361
0.0239386
0.0238655
0.027768
0.0275181
0.0272663
0.0270172
0.0267668
0.0265246
0.0262959
0.0260803
0.0258813
0.0257009
0.0255399
0.0253992
0.025281
0.0251863
0.0251172
0.0294303
0.0291615
0.0288903
0.0286209
0.0283495
0.0280863
0.0278363
0.0275995
0.0273793
0.0271782
0.0269962
0.0268344
0.0266948
0.0265781
0.0264865
0.0311774
0.0308886
0.0305972
0.0303066
0.0300131
0.0297281
0.0294558
0.0291973
0.0289552
0.0287325
0.028529
0.0283459
0.0281844
0.0280455
0.0279314
0.0330138
0.0327046
0.0323917
0.0320792
0.0317628
0.0314547
0.0311596
0.0308784
0.0306138
0.0303688
0.0301432
0.0299378
0.0297539
0.0295924
0.029455
0.0293439
0.034945
0.0346145
0.0342792
0.0339436
0.0336035
0.0332712
0.0329523
0.0326473
0.0323595
0.0320913
0.0318428
0.0316146
0.0314081
0.0312234
0.0310628
0.0309275
0.0369766
0.0366236
0.0362651
0.0359053
0.0355402
0.035183
0.0348393
0.0345094
0.0341974
0.0339054
0.0336333
0.0333818
0.0331518
0.0329436
0.0327587
0.0325989
0.0394618
0.0391142
0.0387379
0.0383551
0.0379702
0.037579
0.0371957
0.0368261
0.0364705
0.0361334
0.0358166
0.0355201
0.0352445
0.0349903
0.0347579
0.0345486
0.0343641
0.0342067
0.0417342
0.0413641
0.0409638
0.0405553
0.0401441
0.0397258
0.0393152
0.0389185
0.0385362
0.0381727
0.0378303
0.0375085
0.037208
0.0369291
0.036672
0.0364377
0.0362279
0.0360445
0.0441264
0.0437332
0.0433075
0.0428723
0.0424337
0.0419869
0.0415479
0.0411228
0.0407126
0.0403215
0.0399526
0.0396047
0.0392783
0.0389739
0.0386914
0.0384316
0.038196
0.0379865
0.0466456
0.0462281
0.0457762
0.0453131
0.0448457
0.0443693
0.0439005
0.0434461
0.0430063
0.0425868
0.0421901
0.0418149
0.0414618
0.0411311
0.0408226
0.0405368
0.0402748
0.0400388
0.0398311
0.0492989
0.0488565
0.0483772
0.0478851
0.0473875
0.0468801
0.0463801
0.0458944
0.0454241
0.0449752
0.0445494
0.044146
0.0437654
0.0434076
0.0430721
0.0427594
0.0424708
0.0422079
0.041973
0.0520945
0.0516263
0.0511183
0.050596
0.050067
0.0495269
0.0489941
0.0484758
0.0479741
0.0474938
0.0470377
0.0466049
0.0461956
0.0458098
0.0454466
0.0451065
0.0447907
0.0445005
0.0442381
0.0550411
0.0545458
0.0540081
0.0534544
0.0528922
0.052318
0.0517509
0.0511987
0.0506633
0.0501503
0.0496625
0.0491993
0.0487603
0.0483455
0.0479535
0.0475854
0.0472416
0.0469237
0.0466337
0.0581474
0.0576241
0.0570556
0.056469
0.0558721
0.055262
0.0546588
0.0540709
0.0534999
0.052953
0.0524324
0.051937
0.051467
0.0510219
0.0506007
0.0502038
0.0498313
0.0494851
0.0491674
0.061423
0.0608709
0.0602706
0.0596491
0.0590162
0.0583682
0.0577271
0.0571012
0.0564935
0.0559105
0.0553551
0.0548261
0.0543238
0.0538475
0.053396
0.0529692
0.0525676
0.0521929
0.0518471
0.0515331
0.0648784
0.0642965
0.0636631
0.0630053
0.0623343
0.0616465
0.0609654
0.0602995
0.0596524
0.0590315
0.0584396
0.0578758
0.0573398
0.0568309
0.0563479
0.0558905
0.0554592
0.0550555
0.0546811
0.0543393
0.0685248
0.0679122
0.0672444
0.0665483
0.0658373
0.0651077
0.0643836
0.0636757
0.0629872
0.0623264
0.061696
0.0610954
0.060524
0.0599812
0.0594653
0.0589765
0.0585148
0.0580813
0.0576781
0.0573088
0.072374
0.0717299
0.0710262
0.0702902
0.0695366
0.0687625
0.0679934
0.0672405
0.0665082
0.0658047
0.0651335
0.0644938
0.0638856
0.0633073
0.0627575
0.0622361
0.0617431
0.0612794
0.0608475
0.0604503
0.0764389
0.0757625
0.0750211
0.0742434
0.0734446
0.0726233
0.0718061
0.0710053
0.0702259
0.0694772
0.0687629
0.0680823
0.0674348
0.0668196
0.0662344
0.0656793
0.0651539
0.0646596
0.0641983
0.0637734
0.0807334
0.0800239
0.0792433
0.0784213
0.0775749
0.0767031
0.0758342
0.0749822
0.0741524
0.0733556
0.0725952
0.0718707
0.0711819
0.0705277
0.0699057
0.0693156
0.0687571
0.0682314
0.0677405
0.067288
0.0668785
0.0852728
0.084529
0.0837076
0.0828384
0.0819414
0.0810154
0.0800912
0.0791839
0.0782999
0.0774512
0.0766416
0.0758705
0.0751383
0.0744428
0.073782
0.0731553
0.0725627
0.0720051
0.0714843
0.0710042
0.0705695
0.0900733
0.0892942
0.0884299
0.087511
0.0865595
0.0855753
0.0845913
0.0836238
0.0826814
0.081777
0.0809145
0.0800937
0.0793148
0.0785756
0.077874
0.0772094
0.0765813
0.0759903
0.0754393
0.0749315
0.0744719
0.0951526
0.0943371
0.093428
0.0924561
0.091446
0.0903986
0.0893495
0.088317
0.0873114
0.086346
0.0854264
0.0845518
0.083723
0.0829374
0.0821929
0.0814883
0.0808232
0.0801987
0.0796168
0.0790812
0.0785972
0.10053
0.0996773
0.098721
0.0976924
0.0966187
0.0955027
0.0943821
0.0932787
0.0922035
0.091172
0.0901902
0.0892579
0.0883754
0.0875405
0.0867503
0.0860036
0.0853002
0.0846408
0.0840273
0.0834637
0.0829557
0.106228
0.105336
0.10433
0.10324
0.102097
0.100906
0.0997069
0.098525
0.0973733
0.0962696
0.0952202
0.0942252
0.0932848
0.0923965
0.0915575
0.0907667
0.0900229
0.0893272
0.0886815
0.0880898
0.0875577
0.0870906
0.112268
0.111337
0.110277
0.109121
0.107903
0.106628
0.105342
0.104074
0.102837
0.101654
0.100531
0.0994672
0.0984639
0.0975183
0.0966272
0.0957891
0.0950027
0.0942692
0.0935906
0.0929705
0.0924147
0.0919289
0.118677
0.117704
0.116589
0.115361
0.114059
0.112691
0.111308
0.109943
0.108614
0.107342
0.106137
0.104998
0.103926
0.102918
0.101971
0.101083
0.100251
0.0994786
0.0987659
0.0981168
0.0975375
0.0970338
0.125483
0.124468
0.123292
0.121985
0.12059
0.119118
0.117627
0.116153
0.114719
0.11335
0.112054
0.110832
0.109685
0.10861
0.107602
0.10666
0.105781
0.104967
0.104218
0.10354
0.102937
0.102416
0.132718
0.131659
0.130418
0.129023
0.127524
0.125935
0.124321
0.122726
0.121174
0.119695
0.118299
0.116985
0.115756
0.114607
0.113533
0.112533
0.111603
0.110745
0.109959
0.109251
0.108625
0.108086
0.140417
0.139312
0.138001
0.136507
0.134891
0.133169
0.131415
0.129682
0.127999
0.126397
0.124887
0.123472
0.122152
0.120922
0.119777
0.118713
0.117729
0.116824
0.116
0.11526
0.11461
0.114056
0.148619
0.147467
0.146079
0.144475
0.142723
0.14085
0.138938
0.137048
0.135215
0.133474
0.131839
0.130311
0.12889
0.12757
0.126346
0.125214
0.124171
0.123216
0.122351
0.121578
0.120904
0.120334
0.157369
0.156168
0.154694
0.152965
0.151058
0.149011
0.146917
0.144849
0.142846
0.140948
0.139171
0.137516
0.135983
0.134565
0.133255
0.132047
0.130939
0.12993
0.129021
0.128214
0.127515
0.126929
0.126461
0.166716
0.165464
0.163897
0.162021
0.159936
0.157688
0.155385
0.153112
0.150915
0.148841
0.146904
0.145106
0.143447
0.14192
0.140514
0.139224
0.138045
0.136976
0.136018
0.135175
0.13445
0.133848
0.133373
0.176716
0.175412
0.173738
0.171693
0.169402
0.166922
0.164376
0.161869
0.159451
0.157174
0.155056
0.153097
0.151299
0.149649
0.148137
0.146754
0.145496
0.144363
0.143354
0.142472
0.141721
0.141103
0.140623
0.187435
0.186076
0.184281
0.182037
0.179506
0.176754
0.173928
0.171153
0.16848
0.165975
0.16365
0.161508
0.159552
0.157768
0.156137
0.154652
0.15331
0.15211
0.151049
0.150129
0.149353
0.148722
0.148238
0.198945
0.197529
0.195595
0.193115
0.190304
0.187232
0.184083
0.180999
0.178034
0.17527
0.17271
0.170358
0.168226
0.166292
0.164533
0.162942
0.161516
0.160251
0.159142
0.158188
0.15739
0.156748
0.156262
0.211332
0.209856
0.207757
0.204998
0.201858
0.198408
0.194887
0.191447
0.188144
0.185092
0.182254
0.17966
0.177342
0.175256
0.173368
0.171671
0.170165
0.168839
0.167684
0.166696
0.165878
0.165227
0.164741
0.22469
0.223147
0.220855
0.217765
0.214239
0.21034
0.206399
0.202541
0.198853
0.195482
0.192298
0.189428
0.186937
0.184714
0.182698
0.180894
0.179305
0.177912
0.176704
0.175676
0.174831
0.174169
0.173684
0.239123
0.237504
0.234983
0.2315
0.227522
0.223091
0.21869
0.214328
0.210218
0.206506
0.202877
0.199707
0.197078
0.194731
0.192567
0.190629
0.188934
0.187452
0.18617
0.185089
0.184211
0.183535
0.183053
0.254752
0.253047
0.250249
0.246298
0.241776
0.236722
0.231833
0.226833
0.22233
0.218254
0.214043
0.210587
0.20786
0.205343
0.202956
0.200833
0.198993
0.197392
0.196014
0.194867
0.193951
0.193262
0.192787
0.192503
0.271697
0.269902
0.26676
0.262241
0.257063
0.251288
0.245864
0.240032
0.235397
0.230731
0.225611
0.222044
0.219376
0.216573
0.213826
0.211463
0.209463
0.207727
0.206242
0.205022
0.204069
0.203369
0.2029
0.202641
0.289781
0.287903
0.284362
0.279211
0.273313
0.266804
0.260811
0.254026
0.249825
0.243987
0.237417
0.234008
0.231731
0.228455
0.22511
0.222433
0.220258
0.218372
0.216765
0.21547
0.214482
0.213775
0.213317
0.213066
0.30724
0.305338
0.301501
0.29596
0.289581
0.282762
0.276493
0.269255
0.266152
0.258806
0.250597
0.247317
0.245124
0.24086
0.236515
0.233255
0.230709
0.228517
0.226658
0.225178
0.224063
0.223283
0.222789
0.22253
0.323533
0.321671
0.317769
0.31218
0.30572
0.299172
0.293002
0.286284
0.284114
0.2764
0.266681
0.262961
0.25979
0.254106
0.248517
0.244353
0.241143
0.238424
0.236137
0.234327
0.232976
0.232043
0.231459
0.231182
0.340982
0.339151
0.335226
0.329626
0.323187
0.317046
0.311024
0.305247
0.30375
0.296704
0.285633
0.28097
0.275941
0.268698
0.261817
0.256562
0.252497
0.24913
0.246338
0.244145
0.24253
0.241428
0.240746
0.240414
0.361071
0.359238
0.355256
0.349602
0.343196
0.33747
0.331542
0.326932
0.32597
0.319712
0.307057
0.301334
0.293743
0.284642
0.27637
0.269917
0.264879
0.260785
0.257446
0.254837
0.252927
0.251635
0.250864
0.250539
0.383874
0.382012
0.377967
0.372262
0.365994
0.360729
0.355008
0.351897
0.351448
0.346234
0.331614
0.324738
0.313699
0.302225
0.292368
0.284592
0.278441
0.273509
0.269558
0.2665
0.264272
0.262761
0.261838
0.261383
0.40986
0.407952
0.403892
0.398215
0.392289
0.387536
0.382318
0.381063
0.381171
0.377379
0.360244
0.351917
0.336338
0.321831
0.310058
0.30075
0.293301
0.28737
0.282693
0.279134
0.276615
0.275034
0.274282
0.274199
0.439306
0.437378
0.43352
0.428208
0.423065
0.41899
0.414895
0.415686
0.416587
0.41471
0.394445
0.383965
0.36239
0.343909
0.329679
0.318513
0.309534
0.302423
0.296862
0.292604
0.289466
0.287261
0.285766
0.284794
0.47245
0.470565
0.467319
0.463141
0.459693
0.456984
0.455367
0.457993
0.4606
0.460718
0.436266
0.42218
0.392666
0.368897
0.351425
0.337897
0.327022
0.31856
0.312258
0.307817
0.305027
0.303769
0.303915
0.305099
0.306736
0.509785
0.50797
0.505883
0.504036
0.503849
0.504361
0.508057
0.512039
0.52005
0.519232
0.488017
0.468015
0.427784
0.396907
0.37535
0.358926
0.345437
0.334554
0.326042
0.319472
0.314376
0.310232
0.306526
0.303214
0.300871
0.551428
0.550024
0.550584
0.553474
0.55924
0.566268
0.578843
0.582753
0.605638
0.587376
0.549858
0.523088
0.468079
0.427316
0.400658
0.381467
0.366381
0.354719
0.346093
0.340094
0.336596
0.335571
0.336656
0.3384
0.338867
0.592871
0.593692
0.602019
0.617273
0.637225
0.658177
0.681187
0.677064
0.719398
0.638039
0.613469
0.587141
0.51542
0.461704
0.425539
0.397547
0.374418
0.355609
0.340327
0.327413
0.315736
0.304392
0.29331
0.283924
0.277719
0.622313
0.627785
0.650979
0.693875
0.755059
0.826803
0.874881
0.8339
0.846217
0.669753
0.662935
0.636167
0.561188
0.502243
0.458506
0.420204
0.3866
0.358576
0.335652
0.316968
0.301902
0.289922
0.280429
0.273168
0.267599
0.637494
0.64664
0.682277
0.754921
0.888744
1.15938
1.43674
1.10934
0.916262
0.736988
0.799993
0.637265
0.505491
0.426647
0.374155
0.335985
0.306588
0.283248
0.264503
0.249412
0.237496
0.228543
0.222555
0.219262
0.217115
)
;

boundaryField
{
    inlet
    {
        type            calculated;
        value           nonuniform List<scalar> 
25
(
0.693289
0.703911
0.743893
0.826579
0.986942
1.35891
1.69403
1.13538
0.89053
0.919982
0.584726
0.424243
0.324396
0.264619
0.225129
0.196941
0.175663
0.159022
0.145699
0.134879
0.126042
0.118881
0.113188
0.108819
0.1055
)
;
    }
    outlet
    {
        type            calculated;
        value           nonuniform List<scalar> 0();
    }
    walls
    {
        type            calculated;
        value           nonuniform List<scalar> 0();
    }
    frontAndBack
    {
        type            empty;
    }
    procBoundary4to0
    {
        type            processor;
        value           nonuniform List<scalar> 
72
(
0.00956339
0.0103789
0.0112261
0.0121085
0.013028
0.0139872
0.0149888
0.0160356
0.0171302
0.0182755
0.0194749
0.0207316
0.022049
0.0234308
0.0248805
0.0264024
0.0280008
0.0296801
0.0314446
0.0332997
0.0352507
0.0373027
0.0373027
0.039806
0.0420993
0.0445132
0.0470549
0.0497318
0.0525516
0.0555228
0.0586547
0.0619567
0.065439
0.0691126
0.0729895
0.0770826
0.0814056
0.0859733
0.0908022
0.0959096
0.101315
0.10704
0.113107
0.119541
0.126372
0.133629
0.141349
0.149569
0.158335
0.167694
0.177702
0.188422
0.199929
0.212305
0.225641
0.240037
0.255615
0.272498
0.290529
0.307987
0.324303
0.341756
0.361849
0.38466
0.410693
0.440275
0.473725
0.511649
0.554506
0.598279
0.630538
0.647248
)
;
    }
    procBoundary4to5
    {
        type            processor;
        value           nonuniform List<scalar> 
95
(
0.0087464
0.00872159
0.0087062
0.00944387
0.00944387
0.00944714
0.010214
0.010214
0.0102398
0.0110285
0.0110285
0.0118425
0.0118425
0.0126807
0.0134987
0.0134987
0.0143862
0.0143862
0.015305
0.0162125
0.0162125
0.0171922
0.0181764
0.0181764
0.0192244
0.020295
0.020295
0.0214206
0.0225878
0.0238187
0.0238187
0.0250765
0.0264228
0.0278439
0.0278439
0.0292616
0.0308203
0.0324668
0.0324668
0.0340787
0.03589
0.0378057
0.0378057
0.0396549
0.0417695
0.0440071
0.0463751
0.048881
0.048881
0.0512547
0.054034
0.056977
0.0600922
0.0633895
0.0633895
0.0665163
0.0701846
0.0740652
0.0781696
0.0825079
0.0825079
0.0866973
0.0915219
0.0966139
0.101984
0.107644
0.113604
0.119873
0.119873
0.126112
0.133025
0.140278
0.147896
0.155925
0.164412
0.173364
0.182748
0.182748
0.192378
0.202554
0.21299
0.222472
0.231156
0.240355
0.250549
0.261269
0.274579
0.28429
0.28429
0.308391
0.299659
0.3378
0.274264
0.26248
0.216904
)
;
    }
}


// ************************************************************************* //
