/*--------------------------------*- C++ -*----------------------------------*\
| =========                 |                                                 |
| \\      /  F ield         | OpenFOAM: The Open Source CFD Toolbox           |
|  \\    /   O peration     | Version:  2306                                  |
|   \\  /    A nd           | Website:  www.openfoam.com                      |
|    \\/     M anipulation  |                                                 |
\*---------------------------------------------------------------------------*/
FoamFile
{
    version     2.0;
    format      ascii;
    arch        "LSB;label=32;scalar=64";
    class       volVectorField;
    location    "325";
    object      U;
}
// * * * * * * * * * * * * * * * * * * * * * * * * * * * * * * * * * * * * * //

dimensions      [0 1 -1 0 0 0 0];

internalField   nonuniform List<vector> 
1340
(
(18.5697 14.7744 -5.33568e-19)
(19.3779 15.4693 1.84118e-17)
(20.2847 16.132 -1.85368e-17)
(19.2329 14.06 1.4078e-17)
(19.9862 14.6973 -3.89528e-18)
(20.8286 15.3053 1.82442e-17)
(21.7228 15.8374 -9.97762e-17)
(22.7079 16.3097 1.14789e-17)
(19.8239 13.4114 1.20204e-17)
(20.5294 13.9975 -1.90775e-17)
(21.3158 14.5562 -1.78177e-17)
(22.1466 15.0445 1.25302e-17)
(23.06 15.4792 3.23951e-17)
(24.0297 15.8394 -1.42129e-16)
(25.0362 16.109 -5.85556e-17)
(20.353 12.8189 -1.82968e-17)
(21.016 13.3589 -5.35526e-17)
(21.7531 13.8733 9.36448e-18)
(22.528 14.322 -3.24487e-18)
(23.3784 14.722 -9.55044e-17)
(24.279 15.0542 1.93527e-16)
(25.2113 15.3042 -3.2099e-16)
(26.1793 15.4693 1.02763e-15)
(20.8286 12.2747 2.68781e-17)
(21.4538 12.7732 1.42135e-17)
(22.1468 13.2473 1.96682e-17)
(22.8723 13.6598 3.29227e-17)
(23.6669 14.0278 -5.56011e-17)
(24.5063 14.3335 9.19533e-17)
(25.3729 14.5642 4.30811e-16)
(26.2713 14.7181 -5.7405e-16)
(27.1889 14.7887 -2.69516e-16)
(21.2578 11.7725 3.84488e-18)
(21.8488 12.2333 -5.88698e-19)
(22.5023 12.6707 -1.38423e-17)
(23.1835 13.0503 1.45503e-18)
(23.9282 13.3887 8.66011e-17)
(24.7129 13.6696 -1.90662e-16)
(25.5207 13.8817 -3.65152e-17)
(26.3568 14.0239 -1.5382e-16)
(27.2094 14.0905 -1.78486e-16)
(21.6464 11.3072 -5.46049e-17)
(22.2062 11.7336 5.05209e-17)
(22.8238 12.1375 -1.31582e-18)
(23.4651 12.487 4.55455e-18)
(24.1648 12.798 1.61224e-16)
(24.9003 13.0557 -9.258e-17)
(25.6554 13.25 -4.56567e-16)
(26.4354 13.3801 7.12123e-16)
(27.2295 13.4416 4.93679e-16)
(28.0326 13.4306 -3.85687e-16)
(21.9992 10.8745 2.41744e-17)
(22.5305 11.2694 3.24547e-18)
(23.1151 11.6428 6.89284e-18)
(23.7202 11.9645 3.33487e-17)
(24.3791 12.2502 -1.66991e-16)
(25.0701 12.4863 4.56137e-16)
(25.7775 12.6635 3.0326e-16)
(26.5068 12.7819 -4.36123e-16)
(27.2478 12.8374 -3.16783e-16)
(27.9962 12.827 2.62582e-16)
(28.7524 12.7475 9.45903e-17)
(22.3202 10.4709 -2.15297e-17)
(22.8251 10.8371 -8.36311e-18)
(23.3796 11.1822 -1.87134e-18)
(23.9514 11.4785 -1.01447e-17)
(24.5732 11.7408 -4.68277e-17)
(25.2235 11.9567 -6.65432e-16)
(25.8876 12.1178 -1.93131e-16)
(26.5708 12.2246 -1.64274e-16)
(27.2635 12.2738 1.61144e-16)
(27.962 12.2627 1.61039e-16)
(28.6673 12.1887 2.02763e-16)
(22.613 10.0936 2.39294e-17)
(23.0934 10.4332 4.57796e-17)
(23.6199 10.7523 3.98384e-18)
(24.1613 11.0251 2.24066e-17)
(24.7488 11.2658 1.29424e-16)
(25.362 11.4628 1.56308e-16)
(25.9864 11.6089 1.99214e-16)
(26.6275 11.7045 1.81917e-16)
(27.2762 11.7471 -3.05795e-16)
(27.9291 11.7344 -1.97006e-17)
(28.5876 11.6645 -1.04069e-16)
(29.2474 11.5344 2.06638e-16)
(22.8804 9.73989 -5.21348e-18)
(23.338 10.055 -3.66373e-17)
(23.8386 10.3502 5.59845e-18)
(24.3517 10.6013 1.73826e-17)
(24.9077 10.8219 -5.29498e-17)
(25.4866 11.0014 5.75064e-17)
(26.0747 11.1332 -3.54795e-16)
(26.6772 11.2182 3.11681e-16)
(27.2855 11.2542 6.45182e-17)
(27.8966 11.2394 1.49222e-16)
(28.5121 11.1722 -1.46876e-16)
(29.1283 11.0502 3.2064e-16)
(23.125 9.40771 -4.01693e-17)
(23.5612 9.70012 1.76414e-17)
(24.0376 9.9731 -1.43026e-17)
(24.5245 10.2042 -4.34268e-18)
(25.0513 10.4062 7.36862e-17)
(25.5986 10.5694 9.59384e-17)
(26.1531 10.688 -1.39335e-16)
(26.7201 10.7629 -1.29294e-16)
(27.2913 10.7922 2.11455e-16)
(27.8639 10.7749 -7.55571e-16)
(28.4399 10.7095 1.09646e-15)
(29.0158 10.594 -1.20759e-15)
(29.5905 10.4254 1.08452e-15)
(23.3491 9.09515 9.74998e-20)
(23.7653 9.36653 -1.4205e-17)
(24.219 9.61897 9.39321e-18)
(24.6814 9.83158 -8.92277e-18)
(25.1809 10.0163 -1.42621e-17)
(25.6989 10.1644 -1.35526e-16)
(26.2224 10.2705 -2.8514e-16)
(26.7565 10.3358 -1.74101e-16)
(27.2934 10.3589 2.16455e-16)
(27.8306 10.3388 5.33642e-17)
(28.3701 10.2745 -1.11774e-16)
(28.9088 10.1644 4.20908e-16)
(29.446 10.0056 -1.17314e-15)
(23.5547 8.80061 4.97793e-18)
(23.9519 9.05245 -4.36488e-17)
(24.3842 9.28586 -9.06984e-19)
(24.8238 9.48127 2.53079e-17)
(25.2979 9.65004 6.4612e-17)
(25.7884 9.78402 -1.3664e-16)
(26.2831 9.87854 3.12501e-16)
(26.7868 9.9348 1.30807e-16)
(27.292 9.95177 -6.48261e-16)
(27.7964 9.92887 3.15476e-16)
(28.3021 9.86521 -1.0492e-15)
(28.8064 9.75944 6.25276e-16)
(29.3088 9.60924 5.36365e-17)
(29.8083 9.4118 -1.81526e-16)
(23.7433 8.52265 2.52846e-17)
(24.1226 8.75635 -1.5896e-17)
(24.5348 8.97207 2.83645e-18)
(24.953 9.15153 4.74433e-17)
(25.4032 9.30547 1.31646e-16)
(25.8682 9.42636 -1.17916e-16)
(26.336 9.51009 3.3773e-16)
(26.8114 9.55789 1.84986e-16)
(27.2871 9.56909 6.60808e-16)
(27.7612 9.5433 2.09168e-16)
(28.2355 9.47988 1.18744e-15)
(28.7079 9.37777 -4.11992e-16)
(29.1779 9.23494 1.93317e-15)
(29.645 9.04885 -4.02898e-16)
(23.9166 8.26002 -1.81784e-17)
(24.279 8.47684 1.74044e-17)
(24.6721 8.67608 -1.01179e-17)
(25.07 8.84076 9.03411e-17)
(25.4979 8.98093 -1.75503e-16)
(25.9389 9.08967 3.52484e-16)
(26.3816 9.16334 -3.8149e-16)
(26.8305 9.20328 7.76403e-17)
(27.2789 9.20902 -5.18432e-16)
(27.7247 9.18043 4.12112e-16)
(28.17 9.11701 3.99595e-16)
(28.6126 9.01798 -7.37311e-16)
(29.0526 8.88154 -1.62977e-15)
(29.4894 8.70547 -1.26807e-15)
(24.0759 8.01161 1.97245e-17)
(24.4221 8.21273 -3.66647e-18)
(24.7972 8.39662 -1.00525e-17)
(25.176 8.54758 -3.24242e-17)
(25.5828 8.67495 9.70236e-17)
(26.0013 8.77239 1.68988e-16)
(26.4204 8.83676 1.82874e-16)
(26.8447 8.86936 6.23744e-17)
(27.2675 8.86998 -2.41483e-17)
(27.687 8.83867 -8.90427e-18)
(28.1052 8.7751 -8.17366e-16)
(28.5202 8.67871 -1.68967e-16)
(28.9322 8.54793 4.11171e-16)
(29.3408 8.38079 3.16815e-16)
(29.744 8.17505 1.83219e-15)
(24.2224 7.77645 2.30289e-17)
(24.5532 7.96292 2.22776e-17)
(24.9112 8.13253 1.60648e-17)
(25.272 8.27073 -9.43842e-17)
(25.6588 8.38623 -1.91707e-17)
(26.056 8.4732 -3.06601e-16)
(26.4531 8.52894 -3.08413e-16)
(26.8542 8.55472 -3.09911e-16)
(27.2531 8.55058 -5.52838e-16)
(27.648 8.5167 1.96875e-16)
(28.041 8.4529 3.68765e-16)
(28.4303 8.35877 5.66078e-16)
(28.8162 8.23304 -6.70788e-16)
(29.1984 8.07386 -2.87294e-16)
(29.5754 7.87928 -7.75452e-16)
(24.3571 7.55363 -4.66231e-17)
(24.6733 7.72642 -7.35278e-18)
(25.015 7.88273 -3.22219e-17)
(25.3586 8.00908 -3.17253e-18)
(25.7266 8.11355 6.89359e-17)
(26.1038 8.19084 3.93852e-17)
(26.4801 8.23859 4.29429e-16)
(26.8594 8.25805 -1.44283e-16)
(27.2359 8.24949 6.35339e-16)
(27.6079 8.21323 -1.65385e-16)
(27.9773 8.14914 3.16772e-16)
(28.3426 8.05707 8.62347e-18)
(28.7041 7.93584 9.52234e-16)
(29.0617 7.78388 6.01608e-16)
(29.4141 7.59942 -6.30485e-16)
(24.481 7.34236 1.21108e-17)
(24.7833 7.50237 -8.73347e-18)
(25.1094 7.64631 3.57671e-17)
(25.4368 7.76165 2.19843e-17)
(25.7869 7.85588 -1.41692e-16)
(26.1452 7.92421 1.89967e-16)
(26.5018 7.96457 9.9913e-18)
(26.8607 7.97823 -5.47625e-16)
(27.2162 7.96559 -5.3635e-16)
(27.5666 7.92712 6.39724e-16)
(27.914 7.86277 -3.32901e-16)
(28.2568 7.77254 -2.54673e-16)
(28.5955 7.65542 6.68204e-16)
(28.9302 7.51 -8.26295e-16)
(29.2596 7.33474 7.98324e-16)
(29.5822 7.12785 -7.94378e-16)
(24.595 7.14191 4.27026e-18)
(24.8839 7.29001 2.03044e-18)
(25.1953 7.42241 1.55884e-17)
(25.5072 7.52752 -1.14785e-17)
(25.8403 7.61226 9.85456e-17)
(26.1806 7.67228 -2.93576e-16)
(26.5187 7.70582 -2.68963e-16)
(26.8584 7.71415 9.72891e-16)
(27.194 7.69778 -1.151e-16)
(27.5243 7.65729 -7.19734e-17)
(27.851 7.59274 -7.05631e-16)
(28.1729 7.5042 -4.51333e-16)
(28.4903 7.39085 -1.1247e-15)
(28.8035 7.25144 3.13686e-16)
(29.1114 7.0846 5.00889e-16)
(29.4126 6.88873 -1.09473e-15)
(24.6999 6.95163 1.20205e-17)
(24.9761 7.08861 1.78679e-17)
(25.2732 7.21024 4.58807e-18)
(25.5705 7.30584 -8.02447e-17)
(25.8874 7.38179 -3.78504e-17)
(26.2107 7.43413 1.40099e-16)
(26.5313 7.46141 4.08643e-16)
(26.8527 7.46485 4.6659e-17)
(27.1698 7.44509 -4.83241e-16)
(27.481 7.4028 2.6969e-16)
(27.7884 7.33808 5.28759e-16)
(28.0906 7.25115 1.35048e-15)
(28.388 7.1413 -6.80791e-16)
(28.6811 7.00743 -9.19899e-16)
(28.9688 6.84835 2.35356e-16)
(29.2501 6.66259 2.07124e-16)
(24.5707 6.64099 -7.58056e-19)
(24.7964 6.77092 7.09244e-18)
(25.0603 6.8975 -9.51811e-18)
(25.344 7.00912 1.99961e-17)
(25.6271 7.09589 -9.86586e-17)
(25.9287 7.16369 2.06024e-16)
(26.2359 7.20895 -5.32889e-18)
(26.5398 7.23048 8.22189e-17)
(26.8441 7.22944 -2.83204e-16)
(27.1435 7.20662 -2.44846e-16)
(27.4369 7.16273 -3.56413e-16)
(27.7261 7.09795 -1.88591e-17)
(28.0098 7.01256 -6.83622e-17)
(28.2886 6.90599 1.5222e-16)
(28.5629 6.77727 1.10775e-15)
(28.8317 6.62535 1.37912e-16)
(29.0942 6.44896 -1.21987e-15)
(29.3486 6.24683 -1.69342e-16)
(24.6693 6.47862 6.29236e-18)
(24.8852 6.59922 -2.18319e-17)
(25.1373 6.71611 3.07628e-18)
(25.408 6.8184 -2.46594e-17)
(25.6778 6.89697 4.73537e-17)
(25.9647 6.95722 -1.44347e-16)
(26.2565 6.99595 -1.01681e-16)
(26.5447 7.01221 -4.53729e-16)
(26.8326 7.00711 4.12062e-16)
(27.1155 6.98155 4.26058e-17)
(27.3921 6.93626 -2.65107e-16)
(27.6642 6.8715 6.41157e-16)
(27.9306 6.78763 -9.72767e-17)
(28.1919 6.68416 -9.07914e-18)
(28.4485 6.56026 -6.58942e-16)
(28.6997 6.41502 -6.40046e-16)
(28.9446 6.24729 1.14788e-15)
(29.1817 6.05597 7.34898e-16)
(24.7604 6.32416 -2.71612e-18)
(24.9668 6.43604 1.01439e-18)
(25.2076 6.54387 7.19778e-18)
(25.4659 6.63746 -5.32516e-17)
(25.7229 6.70844 -2.908e-17)
(25.9959 6.76171 -6.69529e-17)
(26.273 6.79443 4.64418e-17)
(26.5462 6.80587 -1.03668e-16)
(26.8188 6.7971 -6.87606e-17)
(27.086 6.76907 1.54882e-16)
(27.3468 6.72261 5.70268e-16)
(27.6027 6.65799 -5.82284e-16)
(27.8529 6.57563 5.05206e-17)
(28.0978 6.47512 -3.45194e-16)
(28.3378 6.35575 5.01684e-16)
(28.5724 6.21675 1.31911e-15)
(28.8009 6.05709 -7.56086e-16)
(29.0217 5.87579 -1.70483e-15)
(24.8444 6.17719 -3.84216e-18)
(25.0418 6.28091 1.73254e-17)
(25.2718 6.38029 -7.63204e-18)
(25.5182 6.46578 1.49848e-17)
(25.763 6.52971 6.4489e-17)
(26.0226 6.57655 2.35275e-16)
(26.2858 6.60375 1.18824e-16)
(26.5448 6.6108 -9.04957e-16)
(26.8027 6.5987 -1.1657e-16)
(27.0551 6.56851 1.89303e-16)
(27.3009 6.52107 1.03789e-16)
(27.5417 6.45668 -3.25757e-16)
(27.7766 6.37582 -3.56187e-16)
(28.0061 6.27817 7.30163e-16)
(28.2306 6.16311 -2.96464e-16)
(28.4497 6.02998 8.2006e-16)
(28.6627 5.87785 2.34103e-16)
(28.8683 5.70589 9.41662e-16)
(29.0648 5.51355 -8.78385e-16)
(24.9221 6.03731 -6.4659e-18)
(25.1106 6.13341 -7.22556e-18)
(25.3303 6.22489 -8.99018e-18)
(25.5653 6.30285 -3.03132e-17)
(25.7983 6.36025 -7.49678e-17)
(26.0453 6.40115 -2.64802e-16)
(26.2951 6.42331 -5.77498e-17)
(26.5406 6.42637 2.87057e-16)
(26.7847 6.41128 4.54521e-16)
(27.023 6.37918 1.68392e-16)
(27.2547 6.33096 -2.63703e-16)
(27.4812 6.26691 7.72842e-16)
(27.7017 6.18757 7.84147e-19)
(27.9167 6.0927 5.50113e-16)
(28.1267 5.98174 1.85292e-16)
(28.3312 5.85413 -1.04844e-16)
(28.5297 5.70908 -1.36586e-15)
(28.7211 5.54585 -1.87811e-15)
(28.9037 5.36399 1.17569e-15)
(24.9937 5.90416 1.19126e-18)
(25.1739 5.99313 6.0469e-18)
(25.3835 6.07725 2.66286e-18)
(25.6076 6.1482 -3.79394e-17)
(25.8294 6.19955 1.18093e-16)
(26.0642 6.23499 -1.91024e-16)
(26.3014 6.25252 8.33641e-16)
(26.534 6.25195 -3.18613e-17)
(26.7649 6.23421 1.47939e-16)
(26.9899 6.20047 -9.97536e-16)
(27.2082 6.15166 3.23975e-16)
(27.4213 6.08806 -9.84384e-17)
(27.6283 6.01027 -6.16121e-19)
(27.8297 5.91808 -4.58024e-16)
(28.026 5.81106 9.06327e-16)
(28.2169 5.6887 5.04461e-16)
(28.4018 5.55031 -5.77475e-16)
(28.5798 5.39526 8.36229e-16)
(28.7494 5.2232 -1.28429e-15)
(25.0598 5.77739 -2.10345e-18)
(25.2319 5.8597 -1.11971e-17)
(25.4319 5.93696 7.88822e-19)
(25.6455 6.0014 5.0882e-17)
(25.8566 6.04716 -1.74323e-16)
(26.0797 6.07757 4.67106e-17)
(26.3048 6.09087 -6.42309e-17)
(26.5252 6.08704 -6.57276e-17)
(26.7436 6.06695 1.43073e-16)
(26.956 6.03181 6.35479e-16)
(27.1617 5.98257 8.07567e-17)
(27.362 5.91953 -6.00061e-17)
(27.5563 5.84331 -3.59332e-16)
(27.7449 5.75378 -7.39317e-16)
(27.9284 5.65053 4.39738e-16)
(28.1065 5.53315 -5.74387e-16)
(28.2787 5.40106 -6.62684e-17)
(28.4442 5.25371 3.95633e-16)
(28.6017 5.09081 9.89127e-16)
(25.1207 5.65669 5.01419e-18)
(25.285 5.73278 6.63268e-18)
(25.4759 5.80363 2.15535e-18)
(25.6793 5.86203 -4.04504e-18)
(25.8802 5.90263 4.18235e-17)
(26.0922 5.92842 9.83117e-17)
(26.3057 5.93787 -5.65229e-17)
(26.5145 5.9311 -3.83785e-16)
(26.7209 5.90894 2.4916e-16)
(26.9214 5.87263 -9.46123e-16)
(27.1151 5.82313 5.32529e-16)
(27.3035 5.76076 -4.58373e-16)
(27.4857 5.68615 -3.59625e-16)
(27.6623 5.59921 -1.1e-15)
(27.8338 5.49961 3.78232e-16)
(27.9999 5.387 -1.06355e-15)
(28.1602 5.26088 1.43439e-16)
(28.314 5.12078 1.10993e-16)
(28.46 4.96649 5.00483e-16)
(25.1769 5.54176 -5.31792e-18)
(25.3337 5.61203 1.11354e-18)
(25.5157 5.67693 2.45585e-18)
(25.7095 5.72972 -5.55519e-17)
(25.9005 5.76556 4.85571e-18)
(26.1018 5.78711 7.9382e-17)
(26.3043 5.79307 1.33915e-16)
(26.5019 5.78368 4.98404e-16)
(26.6971 5.75971 -7.29486e-16)
(26.8862 5.72245 3.38813e-16)
(27.0687 5.67285 -3.30067e-16)
(27.2457 5.61123 8.55331e-16)
(27.4166 5.53826 7.21256e-16)
(27.5819 5.45388 1.12855e-15)
(27.7422 5.3578 7.69248e-16)
(27.897 5.24976 9.45794e-16)
(28.0462 5.12931 -2.35625e-16)
(28.189 4.99606 1.13412e-16)
(28.3244 4.84988 -1.39035e-16)
(28.4508 4.69094 -3.902e-16)
(25.2287 5.43233 -8.32745e-18)
(25.3783 5.49717 2.15998e-17)
(25.5517 5.55651 -2.3193e-18)
(25.7362 5.60411 3.61163e-17)
(25.9177 5.63556 1.37883e-16)
(26.1089 5.65323 -2.86742e-16)
(26.3009 5.65603 2.08393e-17)
(26.4879 5.6443 5.37344e-16)
(26.6722 5.61877 -1.31516e-16)
(26.8507 5.58075 -2.88265e-16)
(27.0224 5.5312 7.65024e-16)
(27.1887 5.47043 -2.50335e-16)
(27.349 5.39913 -8.38105e-17)
(27.5037 5.31728 -7.55089e-16)
(27.6533 5.22463 3.26564e-16)
(27.7976 5.12096 -1.03824e-15)
(27.9364 5.0059 -1.04159e-15)
(28.0689 4.87916 5.98437e-16)
(28.1943 4.74062 -2.65186e-16)
(28.3112 4.59051 -5.54855e-16)
(25.2764 5.32812 -5.22925e-18)
(25.4191 5.3879 -1.89952e-18)
(25.5843 5.44208 -3.70062e-17)
(25.7598 5.48487 3.00417e-17)
(25.9323 5.51227 -6.40337e-17)
(26.1136 5.52641 2.88276e-16)
(26.2956 5.52635 2.70361e-17)
(26.4725 5.51255 -3.1198e-16)
(26.6466 5.48569 5.02155e-16)
(26.8148 5.4471 -6.93983e-16)
(26.9764 5.39773 -3.81286e-16)
(27.1326 5.3379 2.63971e-16)
(27.2828 5.2683 -3.86546e-16)
(27.4275 5.18894 -3.08951e-16)
(27.5672 5.09962 -4.0224e-16)
(27.7017 5.00016 -1.76054e-16)
(27.8307 4.89026 2.33206e-16)
(27.9537 4.76967 -9.79953e-16)
(28.0698 4.63835 -1.1354e-17)
(28.1778 4.49656 2.49591e-16)
(25.3203 5.2289 -9.86997e-18)
(25.4563 5.28395 1.67797e-18)
(25.6135 5.33334 1.45789e-17)
(25.7804 5.37167 4.84541e-17)
(25.9443 5.39536 -1.70448e-16)
(26.1163 5.40627 7.69245e-17)
(26.2886 5.40365 -3.93746e-17)
(26.4559 5.38802 -5.41504e-16)
(26.6203 5.36005 3.53294e-16)
(26.7788 5.32106 3.0526e-16)
(26.9308 5.272 4.87921e-16)
(27.0774 5.21318 -4.29774e-16)
(27.2182 5.14531 -3.37291e-17)
(27.3535 5.06842 6.56711e-16)
(27.4839 4.98233 2.65251e-16)
(27.6091 4.88693 -5.32173e-16)
(27.7289 4.78196 3.69489e-16)
(27.843 4.66722 1.40592e-15)
(27.9504 4.54272 -3.63563e-17)
(28.0501 4.40876 3.22951e-16)
(25.3607 5.13443 1.22417e-17)
(25.4902 5.18507 -5.50399e-18)
(25.6398 5.23 -2.29142e-17)
(25.7985 5.26422 -4.09896e-17)
(25.954 5.28451 1.5145e-16)
(26.117 5.29249 9.50096e-17)
(26.2801 5.28757 5.30597e-17)
(26.4383 5.27035 1.04462e-16)
(26.5934 5.24145 -5.85774e-16)
(26.7427 5.20221 -4.08064e-16)
(26.8856 5.15358 -4.11293e-16)
(27.0232 5.09585 8.42019e-16)
(27.155 5.02973 -2.18237e-16)
(27.2815 4.95527 -3.57244e-16)
(27.4031 4.87234 -9.03958e-16)
(27.5197 4.78086 6.98762e-16)
(27.631 4.6806 5.09421e-16)
(27.7367 4.57143 -1.92444e-16)
(27.8361 4.45339 -7.77251e-16)
(27.9281 4.32681 2.60271e-16)
(25.3978 5.04449 -2.63106e-18)
(25.5211 5.09103 -4.84176e-18)
(25.6634 5.13182 3.02691e-17)
(25.8141 5.16224 -2.95587e-18)
(25.9616 5.17941 -3.73755e-17)
(26.1161 5.18473 1.12133e-16)
(26.2704 5.17776 -5.98009e-16)
(26.4197 5.15916 5.73158e-17)
(26.566 5.12953 1.85411e-16)
(26.7066 5.09019 5.07931e-16)
(26.8409 5.04208 3.34017e-16)
(26.97 4.9855 -4.24926e-17)
(27.0934 4.92115 -6.98869e-16)
(27.2116 4.8491 4.80466e-16)
(27.325 4.76924 3.52418e-16)
(27.4334 4.68154 4.16362e-16)
(27.5368 4.58579 -3.79249e-16)
(27.6347 4.48192 -1.22579e-15)
(27.7266 4.37001 3.73231e-16)
(27.8114 4.25039 -6.01844e-17)
(27.8881 4.12396 -1.132e-16)
(25.4319 4.95888 6.82724e-19)
(25.5492 5.00159 4.86531e-18)
(25.6844 5.03855 -4.64551e-18)
(25.8275 5.06547 6.85862e-18)
(25.9673 5.07978 -6.35807e-17)
(26.1136 5.0827 -3.58982e-17)
(26.2595 5.07391 1.79337e-16)
(26.4005 5.05413 -6.09506e-17)
(26.5383 5.02392 5.27247e-17)
(26.6706 4.98461 1.29622e-16)
(26.7968 4.93712 -1.29605e-16)
(26.9178 4.88174 -2.4016e-16)
(27.0333 4.81918 -1.71301e-16)
(27.1437 4.74951 -5.1886e-16)
(27.2494 4.67265 3.39213e-16)
(27.3502 4.58859 4.64283e-16)
(27.4462 4.49717 3.29425e-16)
(27.5369 4.39836 7.54778e-16)
(27.6217 4.29224 -2.34449e-16)
(27.6998 4.17921 3.55239e-16)
(27.7703 4.06012 -4.7828e-16)
(25.4632 4.87739 -4.25631e-19)
(25.5747 4.91654 -3.7793e-18)
(25.7031 4.94995 3.91985e-18)
(25.8388 4.97364 1.87746e-17)
(25.9712 4.98535 -1.53618e-16)
(26.1097 4.98611 2.77071e-16)
(26.2475 4.9757 -2.47593e-16)
(26.3805 4.95493 1.92484e-16)
(26.5104 4.9243 5.71058e-17)
(26.6348 4.88513 1.17157e-16)
(26.7533 4.83835 1.55259e-16)
(26.8667 4.78422 8.00321e-16)
(26.9747 4.72345 -4.13643e-16)
(27.0778 4.65613 5.85569e-16)
(27.1762 4.58219 -8.65126e-16)
(27.27 4.50164 -3.77488e-16)
(27.359 4.41438 2.9408e-16)
(27.4429 4.32038 -9.83178e-16)
(27.5213 4.21977 4.70474e-16)
(27.5933 4.11295 -4.14974e-16)
(27.658 4.00077 -2.90836e-16)
(25.4919 4.79985 -4.69541e-18)
(25.5978 4.83569 -7.72562e-19)
(25.7197 4.86581 2.08118e-17)
(25.8483 4.88653 1.00459e-16)
(25.9736 4.89587 -3.2005e-17)
(26.1045 4.89468 -1.40505e-16)
(26.2347 4.88286 6.87156e-16)
(26.3601 4.86125 -3.85174e-16)
(26.4824 4.83034 -1.16332e-16)
(26.5993 4.79143 6.68981e-16)
(26.7104 4.74542 -1.32333e-15)
(26.8167 4.69259 1.53161e-15)
(26.9177 4.63361 -2.20498e-16)
(27.0138 4.5686 -4.07455e-16)
(27.1055 4.4975 -8.58262e-16)
(27.1926 4.42035 -1.71224e-16)
(27.2752 4.33707 1.84265e-16)
(27.3528 4.24766 -5.92128e-16)
(27.4251 4.15228 1.11122e-15)
(27.4914 4.05132 -6.74225e-16)
(27.5508 3.94565 2.79827e-16)
(25.5182 4.72607 -1.28371e-18)
(25.6187 4.75883 3.2954e-18)
(25.7342 4.78591 -2.60269e-17)
(25.856 4.80391 -4.35743e-18)
(25.9746 4.81108 -5.92408e-17)
(26.0983 4.80815 -1.66667e-16)
(26.2211 4.7951 -5.21248e-16)
(26.3392 4.77281 1.36855e-16)
(26.4543 4.74174 -4.52288e-16)
(26.5641 4.70319 -3.34202e-17)
(26.6683 4.65802 -5.91981e-16)
(26.7677 4.6065 -6.00887e-16)
(26.8621 4.54932 1.09415e-15)
(26.9518 4.48657 6.05425e-16)
(27.0371 4.41824 -1.53542e-16)
(27.118 4.34437 1.23535e-15)
(27.1945 4.26491 5.55046e-16)
(27.2664 4.17987 3.95597e-16)
(27.3331 4.08945 -1.40871e-16)
(27.394 3.99405 -4.89126e-16)
(27.4486 3.89449 7.07367e-17)
(25.5423 4.65588 2.33062e-19)
(25.6376 4.68579 -2.55038e-19)
(25.747 4.71006 3.80737e-18)
(25.8622 4.72556 -5.88757e-17)
(25.9743 4.73077 -7.83364e-17)
(26.091 4.72628 1.61845e-16)
(26.2068 4.71217 1.14896e-16)
(26.318 4.68934 9.18027e-17)
(26.4262 4.65822 -1.03024e-16)
(26.5292 4.6201 -7.42065e-16)
(26.6269 4.57582 7.49104e-16)
(26.7199 4.52565 1.83641e-16)
(26.808 4.47025 -8.38009e-16)
(26.8916 4.40974 -2.34116e-16)
(26.971 4.34409 -1.96988e-16)
(27.0461 4.27339 3.77772e-16)
(27.117 4.19758 -7.55482e-16)
(27.1834 4.11672 4.09575e-16)
(27.2449 4.031 3.4954e-16)
(27.301 3.94084 1.23141e-16)
(27.3511 3.84704 3.69024e-16)
(27.3943 3.75112 2.97431e-16)
(25.5643 4.58913 -1.05896e-18)
(25.6545 4.61639 1.48071e-18)
(25.7581 4.63806 1.63701e-17)
(25.867 4.65127 3.66717e-17)
(25.9728 4.65471 2.63268e-16)
(26.0829 4.64884 -2.97411e-17)
(26.1919 4.63381 -3.319e-16)
(26.2965 4.61057 1.69511e-16)
(26.3981 4.57951 3.09984e-16)
(26.4948 4.54189 4.64607e-16)
(26.5862 4.49855 7.84152e-16)
(26.6732 4.44975 9.63663e-16)
(26.7555 4.39612 -8.64815e-16)
(26.8333 4.33779 -4.22591e-17)
(26.9071 4.27475 -5.26753e-16)
(26.9769 4.20709 -2.65131e-16)
(27.0425 4.13479 6.86534e-17)
(27.1039 4.0579 1.44275e-15)
(27.1606 3.97664 -1.13691e-15)
(27.2122 3.89143 -5.7957e-16)
(27.2581 3.80304 4.95678e-16)
(27.2976 3.71294 -2.76496e-16)
(25.5844 4.52567 -1.5159e-18)
(25.6698 4.55047 -3.93836e-18)
(25.7676 4.56974 -2.02094e-17)
(25.8705 4.58086 -3.56265e-18)
(25.9703 4.5827 -2.77708e-17)
(26.0739 4.5756 1.29398e-16)
(26.1765 4.5598 1.74505e-16)
(26.2749 4.53626 1.33139e-16)
(26.3702 4.50534 -3.82327e-16)
(26.4608 4.46829 -2.02828e-16)
(26.5464 4.42593 -2.37085e-16)
(26.6276 4.3785 -3.16481e-16)
(26.7043 4.32662 1.05534e-15)
(26.7768 4.27043 -2.16196e-16)
(26.8454 4.20992 7.34665e-16)
(26.9101 4.14519 -1.16063e-16)
(26.9709 4.07624 7.19859e-18)
(27.0276 4.00314 -9.50812e-16)
(27.0798 3.92611 1.58512e-15)
(27.1273 3.84556 -8.74191e-17)
(27.1694 3.76227 1.86162e-16)
(27.2055 3.67763 -1.84061e-16)
(25.6028 4.46534 2.23541e-18)
(25.6834 4.48786 -1.91298e-18)
(25.7758 4.50493 2.38286e-17)
(25.8728 4.51414 -6.60703e-17)
(25.9667 4.51453 1.02327e-16)
(26.0643 4.50636 -3.48893e-16)
(26.1608 4.48991 7.28828e-17)
(26.2531 4.46617 -5.57423e-16)
(26.3424 4.43547 5.64213e-16)
(26.4273 4.39905 -6.9569e-16)
(26.5073 4.3577 -4.45265e-16)
(26.5831 4.31164 3.71258e-16)
(26.6546 4.26149 -7.3136e-16)
(26.7221 4.20738 -3.60989e-16)
(26.7858 4.14931 -1.02033e-15)
(26.8458 4.08741 6.46387e-17)
(26.902 4.02166 4.63522e-17)
(26.9544 3.95217 1.57976e-16)
(27.0025 3.87914 -4.37671e-16)
(27.0462 3.803 -2.15402e-16)
(27.0847 3.7245 3.175e-16)
(27.1178 3.64496 6.44761e-18)
(25.6195 4.40802 -7.29129e-19)
(25.6956 4.42842 -6.9767e-18)
(25.7826 4.44347 9.44806e-18)
(25.874 4.45093 -2.92178e-17)
(25.9624 4.45002 -5.19979e-17)
(26.0541 4.4409 1.86443e-18)
(26.1446 4.42393 -2.26727e-16)
(26.2312 4.40008 6.06517e-16)
(26.3149 4.36968 1.95625e-16)
(26.3943 4.33393 4.87049e-16)
(26.469 4.2936 -3.89724e-16)
(26.5398 4.24891 4.00768e-16)
(26.6064 4.20046 -2.42358e-16)
(26.6691 4.14838 1.5681e-15)
(26.7283 4.09268 3.5646e-16)
(26.7838 4.03348 5.75345e-16)
(26.8358 3.9708 5.47712e-17)
(26.8842 3.90473 -5.04828e-16)
(26.9285 3.8355 3.92333e-16)
(26.9686 3.76352 4.4724e-18)
(27.004 3.6895 -2.33184e-16)
(27.0342 3.61473 -2.25239e-16)
(25.6347 4.35356 -6.05273e-18)
(25.7063 4.37201 -3.27169e-18)
(25.7883 4.38519 5.11219e-17)
(25.8742 4.39106 1.16203e-16)
(25.9572 4.389 1.82626e-17)
(26.0433 4.37906 -1.21166e-16)
(26.1282 4.36166 5.67666e-16)
(26.2093 4.33778 -5.97003e-16)
(26.2876 4.30774 -6.53236e-16)
(26.3618 4.2727 -2.46216e-16)
(26.4315 4.23341 5.50348e-16)
(26.4975 4.19008 8.08209e-17)
(26.5595 4.14329 5.00293e-16)
(26.6178 4.09319 -7.69737e-16)
(26.6726 4.03977 -9.50033e-16)
(26.7241 3.98317 6.87395e-16)
(26.7722 3.92341 -1.30579e-15)
(26.8168 3.86059 3.63818e-16)
(26.8577 3.79495 -5.18015e-16)
(26.8945 3.72688 7.19557e-17)
(26.927 3.65708 6.29095e-16)
(26.9546 3.58677 1.86338e-16)
(25.6485 4.30185 1.33295e-18)
(25.7159 4.31849 7.04025e-18)
(25.7929 4.32996 -6.28196e-17)
(25.8735 4.33438 -3.68052e-17)
(25.9514 4.33128 -1.0413e-16)
(26.032 4.32064 4.95467e-16)
(26.1115 4.30291 -1.01871e-16)
(26.1874 4.27908 -3.32068e-17)
(26.2605 4.24944 -9.86521e-17)
(26.3298 4.21514 7.94026e-16)
(26.3948 4.1769 -1.01824e-15)
(26.4562 4.13491 8.69631e-16)
(26.5139 4.08976 4.75469e-17)
(26.568 4.04156 2.09888e-16)
(26.6189 3.99035 7.59038e-16)
(26.6666 3.93623 -5.37515e-16)
(26.711 3.87925 1.00508e-15)
(26.7522 3.81952 -1.01592e-16)
(26.7898 3.75727 -4.55217e-16)
(26.8237 3.69288 1.27125e-16)
(26.8534 3.62704 -2.04354e-16)
(26.8787 3.5609 5.78318e-16)
(25.661 4.25276 -3.31608e-18)
(25.7242 4.26773 -1.02674e-17)
(25.7965 4.27763 2.98213e-17)
(25.872 4.28074 -9.40447e-17)
(25.9449 4.27671 -1.78685e-17)
(26.0204 4.26547 -1.19479e-17)
(26.0947 4.2475 -6.21857e-16)
(26.1655 4.22378 5.91023e-16)
(26.2338 4.19459 -3.8944e-16)
(26.2984 4.16105 -8.31847e-16)
(26.3589 4.12386 4.26878e-16)
(26.4161 4.08321 -9.50946e-16)
(26.4696 4.03964 7.28916e-16)
(26.5199 3.9933 -3.60554e-16)
(26.567 3.94419 -1.29535e-15)
(26.6111 3.89245 5.54458e-16)
(26.6522 3.83812 -7.22634e-17)
(26.6902 3.78132 -1.85475e-16)
(26.7248 3.72226 -1.82454e-16)
(26.7559 3.66134 1.4252e-16)
(26.7832 3.5992 -4.22831e-16)
(26.8063 3.53695 2.32558e-17)
(26.825 3.47604 -1.31725e-16)
(25.6723 4.20618 2.33886e-18)
(25.7316 4.2196 -4.75168e-18)
(25.7992 4.22806 2.53432e-17)
(25.8698 4.22999 1.04833e-16)
(25.9379 4.22515 -2.41484e-16)
(26.0084 4.2134 -1.3294e-16)
(26.0777 4.19526 5.15347e-16)
(26.1437 4.17171 -5.42384e-16)
(26.2074 4.14301 1.01605e-15)
(26.2675 4.11025 -7.34113e-16)
(26.3238 4.07411 -9.21745e-17)
(26.3769 4.03476 -6.74504e-16)
(26.4266 3.99274 -6.49507e-16)
(26.4732 3.94818 4.02772e-16)
(26.5169 3.9011 -1.18888e-16)
(26.5577 3.85163 -8.89196e-16)
(26.5956 3.79981 -4.99145e-16)
(26.6306 3.74577 5.55989e-16)
(26.6625 3.68973 -1.94906e-17)
(26.6911 3.63206 -4.22413e-16)
(26.7161 3.57338 3.94539e-16)
(26.7373 3.51477 2.35434e-16)
(26.7544 3.45757 4.49746e-17)
(25.6825 4.16199 1.7636e-18)
(25.7379 4.17399 2.55993e-18)
(25.801 4.18113 7.22844e-18)
(25.8669 4.18199 -9.32422e-17)
(25.9304 4.17643 1.34305e-16)
(25.996 4.16426 1.25913e-16)
(26.0606 4.14603 -6.29574e-16)
(26.1221 4.1227 3.53522e-16)
(26.1813 4.09453 -4.70261e-16)
(26.2372 4.06256 7.77967e-16)
(26.2895 4.02745 1.23927e-16)
(26.3388 3.98938 5.42291e-16)
(26.3849 3.94885 7.92346e-17)
(26.4281 3.90601 -5.07607e-16)
(26.4685 3.86087 8.79775e-16)
(26.5062 3.81356 9.91481e-17)
(26.5412 3.76413 -4.25242e-16)
(26.5734 3.7127 7.17794e-16)
(26.6028 3.6595 2.32938e-16)
(26.629 3.60488 -5.53993e-16)
(26.652 3.54944 9.8095e-17)
(26.6714 3.4942 2.56476e-17)
(26.6871 3.44045 2.25725e-17)
(25.6917 4.1201 5.14271e-19)
(25.7433 4.13079 2.0896e-18)
(25.802 4.13672 3.81262e-17)
(25.8633 4.13662 -1.01525e-16)
(25.9224 4.13043 -1.2894e-16)
(25.9834 4.11793 2.9332e-16)
(26.0434 4.09965 -8.979e-17)
(26.1005 4.0766 4.67797e-16)
(26.1555 4.04897 4.9655e-16)
(26.2074 4.0178 -1.20096e-16)
(26.256 3.98372 2.91348e-16)
(26.3017 3.94689 9.9324e-17)
(26.3444 3.90781 -4.83588e-16)
(26.3843 3.86662 7.86141e-16)
(26.4217 3.82333 -7.53145e-16)
(26.4565 3.77807 1.57418e-15)
(26.4887 3.7309 -7.141e-16)
(26.5184 3.68194 -2.65136e-16)
(26.5455 3.6314 9.90133e-16)
(26.5696 3.57964 -1.14249e-16)
(26.5907 3.52722 4.51516e-17)
(26.6085 3.47513 -6.52175e-16)
(26.6228 3.42457 2.67191e-16)
(25.6999 4.0804 1.21136e-18)
(25.7479 4.08987 -3.01153e-18)
(25.8024 4.09471 -8.06819e-17)
(25.8592 4.09374 1.24838e-16)
(25.914 4.08702 7.30275e-17)
(25.9706 4.07425 1.11559e-16)
(26.0262 4.056 -6.59349e-17)
(26.0792 4.03326 -7.8491e-17)
(26.1302 4.0062 -7.27125e-16)
(26.1782 3.97583 6.82188e-16)
(26.2232 3.94275 2.5788e-16)
(26.2655 3.90713 -4.0648e-17)
(26.305 3.86945 -3.97316e-16)
(26.3419 3.82984 -5.26523e-16)
(26.3764 3.78832 8.91738e-16)
(26.4085 3.74501 -7.69336e-16)
(26.4383 3.69997 3.49813e-18)
(26.4656 3.65332 5.26133e-16)
(26.4905 3.60529 -2.02983e-16)
(26.5127 3.55619 5.37647e-16)
(26.5321 3.5066 -3.41947e-16)
(26.5484 3.45742 -9.08157e-17)
(26.5616 3.40983 3.05741e-16)
(25.7073 4.04279 -3.98673e-18)
(25.7517 4.05115 8.51853e-18)
(25.8021 4.05499 2.39095e-17)
(25.8547 4.05325 4.94935e-17)
(25.9053 4.04607 -4.99367e-17)
(25.9576 4.0331 -1.50909e-16)
(26.009 4.01494 -2.70115e-17)
(26.058 3.99255 1.11814e-16)
(26.1051 3.96606 -4.60727e-17)
(26.1496 3.93649 -6.68845e-16)
(26.1911 3.90441 4.2964e-16)
(26.2302 3.86995 3.13276e-17)
(26.2667 3.83361 3.67439e-16)
(26.3008 3.79552 7.56286e-16)
(26.3326 3.75568 -8.78628e-16)
(26.3623 3.71422 1.29317e-15)
(26.3897 3.67119 -2.00356e-16)
(26.4149 3.62672 4.86106e-16)
(26.4379 3.58103 -4.87891e-16)
(26.4583 3.53443 -7.18908e-16)
(26.4762 3.48745 3.91846e-16)
(26.4912 3.44098 4.02505e-16)
(26.5033 3.39613 -2.45688e-16)
(25.7139 4.00718 1.80734e-18)
(25.7548 4.01451 4.51787e-19)
(25.8012 4.01745 1.34696e-17)
(25.8496 4.01503 5.76849e-17)
(25.8962 4.00747 -2.07075e-16)
(25.9444 3.99436 2.85944e-16)
(25.9919 3.97633 -1.96712e-16)
(26.037 3.95433 -1.60818e-16)
(26.0805 3.92843 1.21578e-16)
(26.1215 3.89968 2.98085e-17)
(26.1598 3.86855 -1.15573e-15)
(26.1959 3.8352 1.04007e-15)
(26.2296 3.80015 -4.8459e-16)
(26.261 3.76352 7.1987e-16)
(26.2904 3.72528 -2.138e-16)
(26.3178 3.68556 -6.09684e-16)
(26.3431 3.64443 -2.8716e-16)
(26.3664 3.60201 2.26103e-16)
(26.3876 3.5585 2.66629e-16)
(26.4064 3.51422 -1.35618e-16)
(26.4229 3.46968 1.94611e-16)
(26.4367 3.42572 -4.40308e-16)
(26.4478 3.38339 -1.56157e-16)
(25.7197 3.97348 -2.27325e-18)
(25.7573 3.97986 5.6445e-20)
(25.7998 3.98198 -1.23856e-17)
(25.8442 3.97897 -7.8507e-17)
(25.8869 3.9711 -3.85143e-18)
(25.9311 3.95792 -1.72265e-16)
(25.9748 3.94008 1.21672e-17)
(26.0162 3.91849 3.27776e-16)
(26.0563 3.89319 -2.05915e-16)
(26.094 3.86526 5.03143e-16)
(26.1292 3.83506 1.07303e-15)
(26.1624 3.80276 -1.54044e-15)
(26.1935 3.76896 3.69761e-16)
(26.2226 3.73373 -1.51251e-16)
(26.2498 3.69702 -6.7727e-17)
(26.2751 3.65894 4.55347e-16)
(26.2985 3.61958 -3.34193e-16)
(26.32 3.57907 1.41999e-16)
(26.3395 3.5376 -7.33474e-16)
(26.3569 3.49548 4.90474e-18)
(26.3721 3.45319 8.47958e-17)
(26.3849 3.41155 1.69638e-16)
(26.3951 3.37154 -4.75801e-17)
(25.7249 3.94159 5.67274e-19)
(25.7591 3.9471 4.27178e-18)
(25.7979 3.94848 -3.34334e-18)
(25.8384 3.94496 2.72068e-16)
(25.8774 3.93685 -3.07314e-16)
(25.9178 3.92365 4.19702e-17)
(25.9578 3.90606 2.53788e-16)
(25.9957 3.88491 -1.70476e-16)
(26.0325 3.8602 3.51944e-17)
(26.0671 3.83315 -7.71047e-16)
(26.0993 3.80381 -2.62856e-16)
(26.1299 3.77252 5.20747e-16)
(26.1587 3.73996 -8.01622e-16)
(26.1857 3.70608 3.64033e-16)