# p  FACE_DATA 300
# x y z  p
0.29787915 -0.05 0.060005454 11712.116
0.29366024 -0.05 0.059998184 11729.581
0.28948669 -0.05 0.059982824 11749.081
0.28535801 -0.05 0.05995956 11768.448
0.28127374 -0.05 0.05992843 11788.964
0.27723342 -0.05 0.059889544 11809.335
0.27323659 -0.05 0.059843055 11830.278
0.2692828 -0.05 0.059789027 11851.562
0.26537161 -0.05 0.059727601 11872.816
0.26150257 -0.05 0.05965892 11894.536
0.25767524 -0.05 0.059583046 11916.836
0.2538892 -0.05 0.059500074 11939.508
0.25014401 -0.05 0.059410118 11962.556
0.24643926 -0.05 0.059313284 11986.022
0.24277452 -0.05 0.059209674 12009.848
0.23914938 -0.05 0.059099387 12033.983
0.23556344 -0.05 0.058982537 12058.196
0.23201627 -0.05 0.058859254 12082.696
0.2285075 -0.05 0.058729541 12108.186
0.22503671 -0.05 0.058593532 12133.11
0.22160352 -0.05 0.058451379 12158.847
0.21820754 -0.05 0.058303115 12184.774
0.21484838 -0.05 0.058148846 12211.095
0.21152567 -0.05 0.05798866 12237.736
0.20823903 -0.05 0.057822651 12264.817
0.20498809 -0.05 0.057650874 12292.369
0.20177248 -0.05 0.057473468 12319.63
0.19859184 -0.05 0.057290478 12348.006
0.1954458 -0.05 0.057101994 12375.641
0.19233402 -0.05 0.056908168 12403.958
0.18925614 -0.05 0.056708999 12432.786
0.18621181 -0.05 0.056504563 12461.979
0.1832007 -0.05 0.056294919 12491.592
0.18022246 -0.05 0.05608023 12520.664
0.17727675 -0.05 0.055860526 12551.155
0.17436324 -0.05 0.055635849 12580.868
0.1714816 -0.05 0.055406376 12611.034
0.16863151 -0.05 0.055172052 12642.417
0.16581265 -0.05 0.054932944 12673.511
0.16302469 -0.05 0.054689208 12705.129
0.16026733 -0.05 0.054440898 12737.25
0.15754024 -0.05 0.054188056 12769.938
0.15484313 -0.05 0.053930725 12802.786
0.15217569 -0.05 0.053668978 12835.775
0.14953762 -0.05 0.053402889 12869.124
0.14692863 -0.05 0.053132457 12903.199
0.14434842 -0.05 0.052857799 12936.378
0.14179669 -0.05 0.052579044 12970.457
0.13927317 -0.05 0.05229612 13006.001
0.13677757 -0.05 0.052009061 13041.634
0.13430961 -0.05 0.051717985 13077.348
0.13186901 -0.05 0.051422994 13112.988
0.1294555 -0.05 0.05112408 13150.049
0.12706881 -0.05 0.050821224 13187.449
0.12470868 -0.05 0.050514504 13224.98
0.12237483 -0.05 0.05020403 13262.165
0.12006701 -0.05 0.049889836 13300.576
0.11778495 -0.05 0.049571874 13339.64
0.11552842 -0.05 0.049250263 13378.325
0.11329715 -0.05 0.048924992 13418.279
0.1110909 -0.05 0.048596121 13457.71
0.10890943 -0.05 0.048263656 13499.652
0.10675251 -0.05 0.047927554 13541.06
0.10461987 -0.05 0.047587958 13582.558
0.1025113 -0.05 0.047244937 13624.236
0.10042655 -0.05 0.046898432 13668.063
0.098365405 -0.05 0.046548446 13711.984
0.096327639 -0.05 0.046195043 13756.697
0.094313028 -0.05 0.045838237 13801.459
0.092321357 -0.05 0.045478019 13847.619
0.090352417 -0.05 0.04511438 13893.56
0.088405979 -0.05 0.044747421 13939.887
0.086481845 -0.05 0.044377096 13987.753
0.084579815 -0.05 0.044003384 14035.671
0.082699669 -0.05 0.043626385 14084.266
0.080841229 -0.05 0.043246005 14134.734
0.0790043 -0.05 0.042862236 14184.514
0.077188666 -0.05 0.0424752 14234.876
0.07539416 -0.05 0.04208479 14287.059
0.073620599 -0.05 0.041690997 14339.298
0.071867788 -0.05 0.041293877 14393.27
0.070135557 -0.05 0.040893384 14448.597
0.068423743 -0.05 0.040489458 14505.147
0.066732169 -0.05 0.040082112 14561.066
0.065060663 -0.05 0.039671361 14618.357
0.063409062 -0.05 0.039257174 14676.524
0.061777219 -0.05 0.038839488 14736.945
0.060164984 -0.05 0.038418265 14797.662
0.058572196 -0.05 0.037993513 14859.993
0.056998721 -0.05 0.037565159 14923.453
0.055444419 -0.05 0.03713316 14987.79
0.053909142 -0.05 0.036697516 15052.82
0.052392764 -0.05 0.03625817 15120.853
0.050895177 -0.05 0.035815009 15191.077
0.049416244 -0.05 0.035368033 15262.001
0.047955856 -0.05 0.034917167 15333.649
0.046513915 -0.05 0.034462309 15405.396
0.045090302 -0.05 0.034003445 15480.102
0.043684931 -0.05 0.033540468 15559.755
0.042297731 -0.05 0.03307324 15642.348
0.040928604 -0.05 0.032601734 15726.729
0.039577476 -0.05 0.032125845 15814.733
0.038244291 -0.05 0.03164545 15904.845
0.036928981 -0.05 0.031160474 15997.967
0.0356315 -0.05 0.030670795 16094.648
0.03435181 -0.05 0.030176299 16198.005
0.033089918 -0.05 0.029676761 16312.075
0.031845783 -0.05 0.029172106 16433.951
0.030619394 -0.05 0.02866221 16564.564
0.029410776 -0.05 0.028146878 16703.58
0.028219949 -0.05 0.027625962 16854.219
0.027046957 -0.05 0.027099267 17010.281
0.025891857 -0.05 0.026566614 17169.847
0.02475474 -0.05 0.026027768 17333.863
0.023635681 -0.05 0.025482558 17503.614
0.022534817 -0.05 0.024930717 17679.22
0.021452274 -0.05 0.024372036 17859.025
0.020388213 -0.05 0.023806274 18045.116
0.019342865 -0.05 0.023233111 18237.113
0.018316468 -0.05 0.022652259 18439.299
0.017309264 -0.05 0.02206346 18655.707
0.016321577 -0.05 0.021466368 18888.374
0.015353757 -0.05 0.020860645 19130.567
0.014406156 -0.05 0.020245997 19384.478
0.013479274 -0.05 0.019622013 19651.824
0.012573638 -0.05 0.018988323 19936.75
0.0116898 -0.05 0.018344552 20246.346
0.010828378 -0.05 0.017690314 20584.22
0.0099901249 -0.05 0.017025149 20947.889
0.0091759198 -0.05 0.016348644 21332.945
0.008386597 -0.05 0.0156605 21742.574
0.0076231725 -0.05 0.014960218 22179.19
0.0068867853 -0.05 0.014247452 22640.484
0.0061787359 -0.05 0.013521944 23133.785
0.0055003792 -0.05 0.012783302 23657.488
0.0048530826 -0.05 0.012031363 24213.94
0.0042385571 -0.05 0.011266143 24811.626
0.0036585397 -0.05 0.010487553 25452.809
0.0031148319 -0.05 0.0096957287 26128.022
0.0026094399 -0.05 0.0088912322 26830.51
0.0021442246 -0.05 0.0080745628 27556.46
0.0017210465 -0.05 0.0072465895 28301.296
0.0013418093 -0.05 0.0064087151 29063.672
0.0010080919 -0.05 0.0055623679 29829.178
0.00072127228 -0.05 0.0047092571 30585.976
0.00048251081 -0.05 0.0038515496 31326.737
0.00029236329 -0.05 0.0029916287 32034.662
0.0001508317 -0.05 0.0021320102 32693.934
5.7495879e-05 -0.05 0.0012752716 33295.86
1.1394864e-05 -0.05 0.00042397109 33835.046
0.99768066 -0.05 0.00033611804 26535.356
0.99304169 -0.05 0.0010063364 26502.06
0.98840215 -0.05 0.0016726212 26440.058
0.98376207 -0.05 0.0023350721 26385.388
0.97912143 -0.05 0.0029936636 26328.251
0.97448026 -0.05 0.00364841 26272.135
0.96983855 -0.05 0.0042993733 26215.834
0.96519632 -0.05 0.0049465845 26159.749
0.96055356 -0.05 0.0055900577 26103.734
0.95591031 -0.05 0.0062298653 26047.799
0.95126654 -0.05 0.0068660327 25992.007
0.94662227 -0.05 0.0074985225 25936.37
0.94197753 -0.05 0.0081274235 25880.865
0.9373323 -0.05 0.008752761 25825.581
0.93268659 -0.05 0.0093745713 25770.446
0.92804042 -0.05 0.0099928964 25715.562
0.92339378 -0.05 0.010607714 25660.931
0.91874669 -0.05 0.011219031 25606.586
0.91409914 -0.05 0.011826962 25552.426
0.90945116 -0.05 0.012431486 25498.677
0.90480273 -0.05 0.013032571 25445.169
0.90015387 -0.05 0.013630361 25391.975
0.89550457 -0.05 0.014224739 25339.247
0.89085486 -0.05 0.014815813 25286.688
0.88620473 -0.05 0.01540363 25234.632
0.88155418 -0.05 0.0159881 25182.88
0.87690323 -0.05 0.016569356 25131.45
0.87225187 -0.05 0.017147383 25080.401
0.86760011 -0.05 0.017722168 25029.71
0.86294796 -0.05 0.018293719 24979.405
0.85829541 -0.05 0.018862095 24929.406
0.85364248 -0.05 0.019427289 24879.846
0.84898916 -0.05 0.01998931 24830.571
0.84433547 -0.05 0.020548224 24781.687
0.83968139 -0.05 0.021103928 24733.276
0.83502695 -0.05 0.021656533 24685.034
0.83037214 -0.05 0.022206072 24637.24
0.82571697 -0.05 0.022752481 24589.712
0.82106143 -0.05 0.023295768 24542.61
0.81640552 -0.05 0.023835961 24495.715
0.81174928 -0.05 0.024373126 24449.141
0.80709266 -0.05 0.024907211 24402.847
0.80243571 -0.05 0.025438235 24356.837
0.7977784 -0.05 0.025966147 24311.225
0.79312074 -0.05 0.026490982 24265.789
0.78846275 -0.05 0.027012845 24220.557
0.78380442 -0.05 0.027531686 24175.622
0.77914574 -0.05 0.028047403 24131.021
0.77448674 -0.05 0.028560079 24086.483
0.7698274 -0.05 0.029069753 24042.214
0.76516772 -0.05 0.02957633 23998.143
0.7605077 -0.05 0.030079852 23954.192
0.75584737 -0.05 0.030580367 23910.314
0.75118671 -0.05 0.03107785 23866.571
0.74652573 -0.05 0.031572241 23822.954
0.74186441 -0.05 0.032063551 23779.407
0.73720278 -0.05 0.032551782 23735.923
0.73254082 -0.05 0.03303698 23692.382
0.72787854 -0.05 0.033519069 23648.952
0.72321595 -0.05 0.033998064 23605.303
0.71855304 -0.05 0.034473962 23561.728
0.71388981 -0.05 0.03494667 23517.979
0.70922626 -0.05 0.035416302 23473.974
0.7045624 -0.05 0.035882849 23429.718
0.69989823 -0.05 0.036346252 23385.165
0.69523375 -0.05 0.036806454 23340.337
0.69056894 -0.05 0.037263403 23295.132
0.68590382 -0.05 0.037717206 23249.34
0.68123839 -0.05 0.038167801 23203.152
0.67657265 -0.05 0.038615123 23156.233
0.67190661 -0.05 0.039059237 23108.611
0.66724025 -0.05 0.039500049 23060.232
0.66257357 -0.05 0.039937521 23010.937
0.6579066 -0.05 0.040371712 22960.542
0.65323931 -0.05 0.040802591 22909.016
0.64857171 -0.05 0.041230085 22856.215
0.6439038 -0.05 0.041654149 22802.063
0.63923558 -0.05 0.042074786 22746.34
0.63456705 -0.05 0.042492 22688.965
0.62989822 -0.05 0.042905734 22629.759
0.62522907 -0.05 0.043315943 22568.566
0.6205596 -0.05 0.043722625 22505.176
0.61588983 -0.05 0.044125719 22439.485
0.61121975 -0.05 0.044525219 22371.208
0.60654937 -0.05 0.044921074 22300.301
0.60187867 -0.05 0.045313219 22226.451
0.59720766 -0.05 0.045701683 22149.545
0.59253634 -0.05 0.046086399 22069.428
0.58786471 -0.05 0.046467288 21985.913
0.58319277 -0.05 0.046844345 21898.727
0.57852051 -0.05 0.047217535 21807.818
0.57384795 -0.05 0.047586814 21713.138
0.56917507 -0.05 0.047952124 21614.632
0.56450189 -0.05 0.048313436 21512.029
0.55982839 -0.05 0.048670677 21405.287
0.55515457 -0.05 0.04902381 21294.335
0.55048045 -0.05 0.04937281 21179.405
0.54580601 -0.05 0.04971755 21060.3
0.54113126 -0.05 0.050058049 20936.946
0.5364562 -0.05 0.050394263 20809.311
0.53178083 -0.05 0.050726133 20677.65
0.52710515 -0.05 0.051053569 20542.166
0.52242915 -0.05 0.051376464 20402.89
0.51775284 -0.05 0.051694815 20259.891
0.51307623 -0.05 0.052008601 20113.846
0.5083993 -0.05 0.052317708 19965.096
0.50372205 -0.05 0.052622097 19813.247
0.4990445 -0.05 0.052921701 19658.141
0.49436664 -0.05 0.053216429 19499.777
0.48968848 -0.05 0.053506199 19338.774
0.48501001 -0.05 0.053790938 19176.153
0.48033122 -0.05 0.054070626 19013.251
0.47565213 -0.05 0.05434516 18851.355
0.47097274 -0.05 0.054614471 18691.463
0.46629305 -0.05 0.054878504 18533.732
0.46161306 -0.05 0.055137129 18376.347
0.45693276 -0.05 0.055390258 18216.39
0.45225217 -0.05 0.05563783 18040.485
0.44757129 -0.05 0.055879797 17823.508
0.44289011 -0.05 0.056116052 17554.742
0.43820865 -0.05 0.05634646 17208.052
0.43352689 -0.05 0.056570934 16554.543
0.42884485 -0.05 0.056789428 15358.195
0.42416254 -0.05 0.057001839 13940.296
0.41947995 -0.05 0.057208045 12797.497
0.41479707 -0.05 0.057407955 12095.918
0.41011393 -0.05 0.057601449 11751.001
0.40543053 -0.05 0.057788457 11573.73
0.40074687 -0.05 0.057968848 11499.1
0.39606296 -0.05 0.058142512 11465.244
0.3913788 -0.05 0.05830933 11452.826
0.38669439 -0.05 0.058469176 11449.553
0.38200975 -0.05 0.058621944 11450.47
0.37732488 -0.05 0.058767528 11456.421
0.37263978 -0.05 0.058905769 11465.32
0.36795448 -0.05 0.059036526 11475.543
0.36326896 -0.05 0.059159727 11486.708
0.35858325 -0.05 0.059275201 11498.81
0.35389736 -0.05 0.059382803 11511.392
0.34921128 -0.05 0.05948244 11524.517
0.34452504 -0.05 0.059573923 11538.613
0.33983865 -0.05 0.059657062 11553.208
0.33515211 -0.05 0.059731741 11568.251
0.33046544 -0.05 0.059797856 11583.649
0.32577866 -0.05 0.059855197 11600.139
0.32109177 -0.05 0.059903555 11616.996
0.31640481 -0.05 0.059942821 11634.36
0.31171778 -0.05 0.059972784 11652.041
0.30703069 -0.05 0.059993273 11670.354
0.30234357 -0.05 0.060004087 11691.055
