/*--------------------------------*- C++ -*----------------------------------*\
| =========                 |                                                 |
| \\      /  F ield         | OpenFOAM: The Open Source CFD Toolbox           |
|  \\    /   O peration     | Version:  2306                                  |
|   \\  /    A nd           | Website:  www.openfoam.com                      |
|    \\/     M anipulation  |                                                 |
\*---------------------------------------------------------------------------*/
FoamFile
{
    version     2.0;
    format      ascii;
    arch        "LSB;label=32;scalar=64";
    class       volScalarField;
    location    "425";
    object      div(phi);
}
// * * * * * * * * * * * * * * * * * * * * * * * * * * * * * * * * * * * * * //

dimensions      [0 0 -1 0 0 0 0];

internalField   nonuniform List<scalar> 
1340
(
7.39472e-06
1.53044e-06
2.05253e-07
1.16584e-07
-4.27569e-07
-2.71718e-07
-5.8566e-07
-3.14745e-07
-4.9324e-07
-2.46751e-07
-5.3355e-07
-1.97273e-07
-6.13823e-07
-3.63944e-09
-3.30277e-07
1.04981e-06
1.63336e-06
1.79917e-06
1.75818e-06
1.24708e-06
1.19379e-06
-1.55276e-06
2.81102e-06
1.09642e-06
1.47656e-06
1.57288e-06
2.5712e-06
2.53379e-06
5.53964e-06
1.34751e-06
4.67582e-07
2.39201e-07
-6.23484e-08
-2.29676e-07
-3.92564e-07
-6.07989e-07
-5.15458e-07
-6.17797e-07
-4.28044e-07
-5.70976e-07
-3.52837e-07
-5.31409e-07
-1.50183e-07
-2.29131e-07
7.19363e-07
1.10419e-06
1.53436e-06
1.48338e-06
1.46848e-06
1.09557e-06
-1.06351e-06
2.17979e-06
9.25761e-07
1.41746e-06
1.43518e-06
2.71095e-06
2.70967e-06
1.38717e-06
1.46994e-07
6.17974e-09
8.57759e-08
-7.22977e-08
-7.50622e-08
-4.36647e-07
-3.80049e-07
-5.42923e-07
-3.58361e-07
-4.25876e-07
-3.52064e-07
-3.55512e-07
-3.83452e-07
-2.04859e-07
-1.4607e-07
6.49319e-07
1.19901e-06
1.5848e-06
1.46021e-06
1.46888e-06
9.91057e-07
-1.05146e-06
2.29095e-06
9.76418e-07
1.4538e-06
1.36331e-06
2.23032e-06
1.9882e-06
1.7497e-06
-1.34843e-07
-2.48164e-07
-5.02318e-08
-5.56396e-08
6.90847e-08
-1.31674e-07
-3.75971e-07
-5.17422e-07
-6.54961e-07
-5.29851e-07
-5.65314e-07
-4.19269e-07
-5.02379e-07
-3.37253e-07
-3.26407e-07
-6.69581e-08
3.0405e-07
8.24554e-07
1.0921e-06
1.39556e-06
1.42612e-06
1.20699e-06
-5.72671e-07
1.74273e-06
9.76907e-07
1.41557e-06
1.46788e-06
2.67986e-06
2.60374e-06
4.03033e-07
-2.18935e-07
-4.08875e-07
-2.87164e-07
6.25143e-09
7.91738e-08
-1.43934e-07
-2.86184e-07
-6.13412e-07
-5.06645e-07
-6.08158e-07
-3.80435e-07
-4.77008e-07
-3.24536e-07
-4.16922e-07
-2.10574e-07
-2.03467e-07
3.80875e-07
6.90808e-07
1.28342e-06
1.31926e-06
1.54347e-06
1.01828e-06
-3.6595e-07
1.42973e-06
9.65983e-07
1.18228e-06
1.2709e-06
1.76243e-06
1.59516e-06
1.85055e-06
1.49354e-07
-4.88792e-07
-4.05134e-07
-2.20325e-07
7.31575e-08
8.86238e-08
-4.25243e-08
-3.65576e-07
-5.68919e-07
-6.7137e-07
-6.09464e-07
-4.96124e-07
-5.04099e-07
-4.18661e-07
-3.94347e-07
-2.74178e-07
-1.35304e-07
1.192e-07
4.90018e-07
7.62435e-07
1.20146e-06
1.30257e-06
1.33491e-06
-2.0824e-07
1.42421e-06
1.08236e-06
1.33833e-06
1.38845e-06
2.36159e-06
2.24965e-06
-2.91861e-07
2.00166e-07
-1.35299e-07
-4.38964e-07
-1.26298e-07
7.04587e-08
1.46762e-07
-2.34408e-08
-3.80024e-07
-5.43064e-07
-7.0657e-07
-5.32365e-07
-5.44457e-07
-3.93449e-07
-4.79986e-07
-2.89622e-07
-3.87016e-07
-7.50812e-08
-6.08014e-08
5.69619e-07
6.13552e-07
1.36868e-06
1.15482e-06
1.41662e-06
-3.81912e-07
1.27243e-06
7.26871e-07
1.10213e-06
9.44693e-07
1.45118e-06
1.03748e-06
1.27263e-06
1.31352e-07
-1.86875e-07
-2.99642e-07
-3.92283e-08
1.67385e-07
2.04297e-07
-4.28478e-08
-3.11316e-07
-6.28202e-07
-6.32698e-07
-5.91091e-07
-4.85838e-07
-4.93618e-07
-4.17789e-07
-3.95955e-07
-2.53034e-07
-1.95851e-07
1.40249e-08
2.23843e-07
5.02396e-07
8.878e-07
1.11934e-06
1.22004e-06
7.01501e-08
1.23771e-06
1.30807e-06
1.39046e-06
1.37713e-06
2.08087e-06
1.97743e-06
2.91092e-06
-1.00008e-06
1.47176e-07
1.97006e-08
-8.15911e-09
-3.23011e-08
2.16942e-07
2.08295e-07
-1.15172e-08
-3.32114e-07
-5.87437e-07
-6.09461e-07
-5.71176e-07
-4.59607e-07
-5.06343e-07
-3.86058e-07
-4.35054e-07
-2.44345e-07
-2.95546e-07
-5.60987e-09
7.2234e-08
5.20618e-07
7.18198e-07
1.1645e-06
9.9894e-07
-1.38358e-08
7.82016e-07
1.01268e-06
8.05152e-07
8.80361e-07
9.87883e-07
7.79415e-07
1.24634e-06
-5.97666e-08
1.25929e-07
-6.38072e-07
2.2771e-07
2.81955e-07
2.17353e-07
8.28551e-09
-3.64871e-07
-5.20161e-07
-5.93731e-07
-4.69199e-07
-5.04799e-07
-4.25852e-07
-4.81566e-07
-3.16782e-07
-3.2514e-07
-1.51296e-07
-1.38907e-07
1.21634e-07
2.05554e-07
6.40358e-07
7.42288e-07
1.01277e-06
1.56092e-07
1.1668e-06
1.43368e-06
1.57029e-06
1.47155e-06
1.88573e-06
1.8393e-06
6.63131e-07
-7.0527e-07
4.90836e-08
1.99805e-07
3.71042e-07
2.61805e-07
-2.81077e-08
-2.99993e-07
-5.09059e-07
-4.9412e-07
-4.73028e-07
-4.5354e-07
-4.59404e-07
-4.52948e-07
-3.66599e-07
-3.34287e-07
-2.28808e-07
-2.11265e-07
1.9089e-08
8.59748e-08
5.2399e-07
5.53409e-07
8.43716e-07
-1.31006e-07
7.27359e-07
8.33608e-07
1.02028e-06
6.14616e-07
8.28348e-07
4.58037e-07
2.87942e-07
-4.51701e-07
3.82547e-07
4.92115e-07
2.73342e-07
-3.61189e-08
-2.81888e-07
-4.44369e-07
-4.08828e-07
-4.39699e-07
-3.93722e-07
-5.01469e-07
-3.79416e-07
-4.00217e-07
-2.32032e-07
-2.66575e-07
-1.02171e-07
-8.73074e-08
1.20109e-07
2.73375e-07
4.98157e-07
5.89214e-07
2.7126e-07
9.47129e-07
1.49629e-06
1.65367e-06
1.6809e-06
1.82366e-06
1.76207e-06
2.60542e-07
3.25232e-07
3.85855e-07
1.94109e-07
-2.13206e-08
-2.85821e-07
-3.33379e-07
-3.9565e-07
-3.49971e-07
-4.43898e-07
-4.29316e-07
-4.50381e-07
-3.50078e-07
-3.28778e-07
-2.66285e-07
-2.39847e-07
-1.46758e-07
-6.15348e-08
1.46523e-07
2.32605e-07
3.67996e-07
-1.13464e-07
4.43266e-07
8.53709e-07
8.21369e-07
8.0429e-07
4.90133e-07
3.64564e-07
4.18124e-07
2.84874e-07
1.70564e-07
-6.29777e-08
-2.28197e-07
-2.83969e-07
-3.20184e-07
-3.19332e-07
-4.38146e-07
-4.05956e-07
-4.3231e-07
-3.00724e-07
-3.14928e-07
-1.97299e-07
-2.18681e-07
-8.72912e-08
-7.4764e-08
1.3326e-07
1.71119e-07
3.47467e-07
1.80075e-07
8.24107e-07
1.25936e-06
1.7102e-06
1.74467e-06
1.94403e-06
1.75051e-06
3.3044e-07
1.17189e-07
-7.60097e-08
-1.61474e-07
-2.6749e-07
-2.34925e-07
-3.62951e-07
-3.58723e-07
-4.5761e-07
-3.52024e-07
-3.70068e-07
-2.748e-07
-3.02373e-07
-2.37051e-07
-2.43416e-07
-1.5914e-07
-9.91206e-08
-2.78392e-09
-4.59319e-10
-1.16381e-07
2.06905e-07
5.99082e-07
7.71736e-07
6.74436e-07
4.9596e-07
1.67742e-07
1.86707e-07
4.54697e-08
-5.679e-08
-1.25121e-07
-1.85662e-07
-2.26466e-07
-3.3183e-07
-3.72069e-07
-4.0905e-07
-3.3218e-07
-3.3199e-07
-2.36912e-07
-2.61892e-07
-1.64286e-07
-1.95267e-07
-6.4248e-08
-6.44424e-08
8.83396e-08
8.07384e-08
2.16473e-07
5.40943e-07
1.07252e-06
1.47363e-06
1.79049e-06
1.96339e-06
1.82712e-06
9.67094e-08
3.53525e-08
-1.27007e-07
-1.1766e-07
-2.5865e-07
-2.68072e-07
-4.00469e-07
-3.17024e-07
-3.60565e-07
-2.58125e-07
-2.94849e-07
-2.29681e-07
-2.69729e-07
-2.23084e-07
-2.45114e-07
-1.54989e-07
-1.89019e-07
-1.02132e-07
-2.17794e-07
1.07068e-07
2.43143e-07
6.25564e-07
4.92087e-07
4.61164e-07
-7.98528e-08
1.18313e-07
-2.21245e-07
5.32449e-08
-9.13829e-08
-2.11676e-07
-2.93587e-07
-3.35732e-07
-3.08487e-07
-3.05266e-07
-2.38353e-07
-2.53247e-07
-1.82027e-07
-2.11933e-07
-1.27197e-07
-1.21066e-07
-5.31784e-08
-1.31465e-08
4.52711e-08
1.53387e-07
4.026e-07
8.12413e-07
1.20629e-06
1.66047e-06
1.86909e-06
1.94353e-06
2.8024e-07
2.02309e-08
-4.56589e-08
-1.38599e-07
-3.02351e-07
-2.43949e-07
-3.09073e-07
-2.10886e-07
-2.57111e-07
-1.81126e-07
-2.30662e-07
-1.82043e-07
-2.29932e-07
-1.55876e-07
-2.2174e-07
-1.2589e-07
-2.2743e-07
-9.87925e-08
-1.26465e-07
2.03627e-07
1.99955e-07
4.94913e-07
1.52206e-07
-4.3913e-08
-2.66914e-07
2.06741e-07
3.46275e-08
-1.42731e-07
-2.1349e-07
-2.39187e-07
-2.31491e-07
-2.02825e-07
-2.04692e-07
-1.62323e-07
-1.8125e-07
-1.29243e-07
-8.93763e-08
-5.89308e-08
-3.38299e-08
7.8162e-09
4.20293e-08
1.62058e-07
2.98425e-07
6.58959e-07
9.21016e-07
1.47156e-06
1.64703e-06
1.9837e-06
3.63543e-07
2.77231e-08
3.05634e-08
-1.56287e-07
-1.4085e-07
-2.20666e-07
-1.41843e-07
-1.95072e-07
-1.16671e-07
-1.67191e-07
-1.12246e-07
-1.40723e-07
-7.64665e-08
-1.28083e-07
-9.01422e-08
-1.37544e-07
-1.04414e-07
-1.32404e-07
-5.53257e-08
2.31789e-08
1.29657e-07
2.1888e-07
8.33143e-08
-1.8207e-07
2.01976e-07
-3.58949e-08
-8.04068e-08
-1.45876e-07
-1.40023e-07
-1.3887e-07
-1.22168e-07
-1.10517e-07
-1.18082e-07
-9.2964e-08
-3.68954e-08
1.54681e-09
2.34515e-08
2.42077e-08
5.31926e-08
8.59987e-08
1.81186e-07
2.78096e-07
5.52816e-07
7.34315e-07
1.24141e-06
1.3858e-06
1.81227e-06
1.09751e-07
-6.6213e-08
-6.28716e-08
-1.43016e-07
-6.85152e-08
-1.2647e-07
-5.27049e-08
-9.96637e-08
-4.66184e-08
-4.68747e-08
2.12754e-08
1.20019e-08
1.20338e-08
-2.93625e-08
-2.89258e-08
-5.93e-08
-2.51139e-08
-5.28165e-08
6.13769e-08
-3.91465e-10
1.65303e-07
-1.01428e-07
-2.745e-07
5.77408e-08
-6.95625e-08
-3.06783e-08
-1.64203e-07
-3.26374e-08
-6.05558e-08
-4.5954e-08
-3.49511e-08
1.83105e-08
6.51445e-08
1.11148e-07
8.83645e-08
8.74554e-08
9.10372e-08
1.39251e-07
2.00358e-07
2.92452e-07
4.79426e-07
6.20033e-07
1.02645e-06
1.12512e-06
1.59008e-06
-1.27679e-08
-1.83528e-08
-2.22317e-07
-7.29332e-08
-4.34095e-08
-9.75315e-09
4.38104e-09
1.78666e-08
8.88678e-08
1.28621e-07
1.31532e-07
8.96403e-08
4.7695e-08
2.90431e-08
2.41729e-08
3.09127e-08
1.91204e-08
6.5409e-08
5.6864e-09
1.02436e-07
-1.5881e-07
-2.36163e-07
3.848e-08
-2.65191e-07
-1.40651e-07
-1.4657e-07
2.42077e-08
-1.08531e-08
5.80185e-08
8.15817e-08
1.16504e-07
1.73363e-07
1.64594e-07
1.35231e-07
1.1093e-07
1.19722e-07
1.64516e-07
2.10554e-07
2.96153e-07
4.15194e-07
5.45711e-07
8.19705e-07
9.45863e-07
1.2576e-06
3.2429e-08
-3.65933e-07
3.39427e-08
-1.60282e-07
1.83019e-07
8.90663e-08
1.60835e-07
1.96783e-07
2.05044e-07
1.8423e-07
1.20966e-07
8.38523e-08
6.92778e-08
7.35893e-08
7.10993e-08
7.00923e-08
7.59125e-08
3.72826e-08
6.2237e-08
-1.24068e-07
-2.74464e-07
-7.50145e-07
3.49475e-08
-3.48762e-07
2.50054e-07
9.78469e-08
2.42418e-07
2.45657e-07
2.33972e-07
2.13219e-07
1.78956e-07
1.27702e-07
1.10022e-07
1.22352e-07
1.60418e-07
1.99809e-07
2.72706e-07
3.50395e-07
4.67071e-07
6.48327e-07
7.55551e-07
9.88525e-07
1.43718e-07
-3.92555e-07
1.74148e-08
1.29939e-07
2.04745e-07
3.71686e-07
2.90438e-07
2.38177e-07
2.25918e-07
1.656e-07
1.16127e-07
8.63158e-08
8.49593e-08
9.04179e-08
9.33756e-08
9.09128e-08
8.5103e-08
5.77315e-08
4.98937e-08
-9.15731e-08
-2.21699e-07
-3.7143e-07
1.71359e-07
-4.093e-09
4.44199e-07
3.12896e-07
2.33821e-07
2.48511e-07
2.06667e-07
1.38142e-07
1.01386e-07
8.79798e-08
1.02613e-07
1.37991e-07
1.67449e-07
2.29086e-07
2.76776e-07
3.82987e-07
4.86711e-07
6.08954e-07
7.48277e-07
1.94629e-07
-1.91164e-07
2.80652e-07
2.59941e-07
1.91916e-07
2.61294e-07
2.59021e-07
2.04773e-07
1.43105e-07
8.7142e-08
7.4028e-08
7.82372e-08
9.06514e-08
9.17181e-08
9.65673e-08
8.12951e-08
7.28225e-08
4.66854e-08
-5.57795e-08
-1.60283e-07
1.44749e-07
1.02782e-07
1.82832e-07
1.56603e-07
3.04157e-07
1.82394e-07
2.3711e-07
1.37142e-07
7.74986e-08
5.57371e-08
8.37448e-08
9.38369e-08
1.36635e-07
1.61568e-07
2.15877e-07
2.8227e-07
3.60637e-07
4.50005e-07
5.77069e-07
-1.6149e-07
2.36629e-07
-7.2429e-08
3.18699e-07
4.95896e-08
3.11888e-07
2.29621e-07
1.45751e-07
7.88049e-08
6.40471e-08
6.22369e-08
7.95734e-08
7.97467e-08
8.67104e-08
7.69252e-08
7.52463e-08
4.56096e-08
-2.06437e-08
-8.11552e-08
4.20451e-07
-2.24837e-07
2.01942e-07
-3.89127e-08
2.36286e-07
2.37465e-07
1.90573e-07
1.69877e-07
7.77497e-08
5.36807e-08
5.0174e-08
7.1026e-08
8.74438e-08
1.14974e-07
1.48274e-07
1.99437e-07
2.45525e-07
3.63105e-07
3.99349e-07
2.59931e-07
-3.1274e-08
1.14825e-07
1.0394e-07
2.00071e-07
2.65982e-07
1.68592e-07
9.35803e-08
4.83483e-08
5.88851e-08
5.61193e-08
7.11533e-08
6.7153e-08
7.46999e-08
6.6418e-08
6.93755e-08
2.77681e-08
-4.77072e-08
-1.67273e-07
1.35126e-07
-8.35257e-08
1.93313e-07
2.5535e-07
2.32002e-07
1.67846e-07
7.89866e-08
4.50342e-08
3.74188e-08
4.53902e-08
5.78335e-08
7.53869e-08
1.0105e-07
1.33811e-07
1.98278e-07
2.29802e-07
3.42367e-07
3.87725e-07
-2.12527e-07
1.01923e-07
1.41079e-07
1.91021e-07
2.54615e-07
1.29223e-07
5.75077e-08
4.34887e-08
3.66522e-08
5.04192e-08
5.53641e-08
6.65617e-08
6.71624e-08
8.37558e-08
7.66825e-08
8.16516e-08
-1.14078e-07
1.6955e-07
1.44023e-08
1.01693e-07
2.72205e-07
1.42988e-07
4.43358e-08
2.7762e-08
2.47806e-08
2.4689e-08
3.5205e-08
4.80848e-08
5.98202e-08
7.80692e-08
1.08468e-07
1.36735e-07
1.34358e-07
4.99524e-07
-1.45063e-07
7.28758e-08
1.81962e-07
1.31125e-07
1.09889e-08
1.10839e-08
3.51622e-08
2.02857e-08
4.07825e-08
5.23801e-08
6.69565e-08
7.21536e-08
8.37338e-08
8.28746e-08
9.15563e-08
1.25245e-07
3.10831e-07
7.85369e-09
8.58195e-08
-1.91248e-08
8.19295e-09
3.87413e-08
9.56934e-09
7.44959e-08
5.73722e-08
5.88615e-08
6.32007e-08
7.04379e-08
7.46143e-08
8.60207e-08
1.00651e-07
1.66122e-07
1.73073e-07
-5.77636e-08
2.57879e-08
3.30446e-08
-2.3848e-09
1.67281e-07
7.44537e-08
6.46107e-08
7.50211e-08
8.27652e-08
8.70934e-08
8.40127e-08
9.45057e-08
7.94394e-08
7.5033e-08
-1.89868e-07
5.54174e-08
4.55055e-08
1.17579e-08
2.6468e-07
6.3721e-08
5.07403e-08
5.56859e-08
7.03762e-08
7.68755e-08
7.31879e-08
7.22188e-08
7.262e-08
7.01599e-08
9.69935e-08
2.69561e-07
-4.37588e-09
3.51522e-09
2.85138e-07
2.22418e-08
1.48383e-08
9.23038e-09
4.98266e-08
6.35337e-08
7.45148e-08
7.40201e-08
7.73006e-08
6.87121e-08
7.78849e-08
4.33354e-08
1.18091e-07
2.38043e-07
6.36503e-09
-3.10815e-09
-2.65341e-08
2.95975e-08
3.22261e-08
5.8867e-08
4.75704e-08
5.85301e-08
4.98343e-08
4.92308e-08
4.86687e-08
5.55227e-08
9.66872e-08
1.69082e-08
3.93331e-09
-3.2723e-08
1.52868e-08
-2.47231e-09
4.1018e-08
9.12934e-09
6.03209e-08
3.73668e-08
4.31025e-08
5.5015e-08
4.36681e-08
4.30986e-08
1.70032e-07
-1.44399e-09
-2.24294e-08
1.74961e-08
-9.7876e-09
4.04206e-08
-1.04288e-08
7.7518e-08
6.82316e-09
6.70118e-08
4.40204e-08
3.2117e-08
2.9938e-08
3.84983e-08
8.92254e-08
3.62315e-08
6.26321e-09
4.81836e-08
-7.56905e-09
8.59582e-08
-2.17963e-08
1.45305e-07
4.27133e-08
3.5108e-08
2.48961e-08
3.82194e-08
2.08824e-08
-1.89026e-09
8.83918e-09
5.62453e-08
2.62444e-09
7.82723e-08
-2.31902e-08
2.28271e-07
2.9515e-08
3.28684e-08
5.57353e-09
1.77187e-08
1.31397e-08
2.13924e-08
-1.66935e-08
5.26073e-08
-5.60116e-09
4.94892e-08
-2.20681e-08
2.38345e-07
-7.74845e-09
2.53204e-08
-3.1337e-08
2.02982e-09
-6.85124e-10
3.52581e-09
9.3712e-09
4.39134e-08
-3.71845e-08
1.32405e-08
-2.09391e-08
1.81639e-07
-2.77739e-08
2.93537e-08
-5.59747e-08
1.20566e-08
-2.3929e-08
4.72767e-09
-1.00589e-08
-4.6135e-09
4.82337e-09
-1.2487e-08
1.03423e-07
-1.85415e-08
3.31078e-08
-5.65765e-08
2.76106e-08
-4.54229e-08
2.14204e-08
-4.14402e-08
-3.32373e-09
-2.42642e-08
6.14013e-08
3.9972e-08
2.5454e-09
2.02139e-08
-3.25061e-08
3.87909e-08
-3.97971e-08
4.72776e-08
-4.88257e-08
2.76403e-08
-3.92609e-08
3.64624e-08
-4.26504e-08
2.50673e-08
-8.78453e-09
6.39413e-09
5.04079e-08
-1.63735e-08
6.00399e-08
-3.70673e-08
6.11347e-08
-4.36039e-08
7.1541e-08
1.41917e-07
-5.22703e-08
1.29872e-08
5.02462e-08
7.51834e-10
5.6396e-08
-2.22197e-08
7.59918e-08
-3.46028e-08
1.16135e-07
-6.10363e-08
5.52421e-08
2.42469e-08
8.17912e-10
3.43649e-08
-1.14138e-08
6.7108e-08
-2.83861e-08
1.65556e-07
-2.96093e-08
7.25755e-08
-3.6165e-08
-6.01729e-09
6.06811e-09
-3.92073e-10
4.74729e-08
-2.4098e-08
1.68431e-07
-2.99727e-08
8.28778e-08
-7.21545e-08
2.08718e-08
-2.73725e-09
5.87522e-09
2.35099e-08
-1.77435e-08
1.29203e-07
-4.36972e-08
1.18969e-07
-4.08977e-08
6.6425e-08
-4.88779e-08
9.95401e-09
-3.1978e-09
-4.5431e-10
8.20913e-08
-3.68695e-08
1.31735e-07
-4.62736e-08
5.48392e-08
-5.98225e-08
7.46896e-08
-3.73927e-08
5.03179e-09
4.37142e-08
-2.227e-08
1.1996e-07
-5.13715e-08
7.79188e-08
-3.41981e-08
3.84876e-08
2.86311e-08
8.96354e-09
-2.34753e-08
8.64186e-08
-5.07697e-08
9.12436e-08
-4.38832e-08
2.20116e-08
-4.39629e-08
-3.96273e-08
-2.40247e-08
3.92659e-08
-4.72448e-08
8.40166e-08
-5.34056e-08
2.56784e-08
-4.3714e-08
1.94107e-08
-6.92987e-09
3.4639e-09
-3.5256e-08
6.37422e-08
-5.46116e-08
4.83289e-08
-4.75604e-08
3.57029e-08
-4.29739e-08
-2.46747e-08
3.10566e-08
-4.70224e-08
6.16566e-08
-4.24791e-08
2.14663e-08
-4.44104e-08
-2.0536e-08
5.81603e-09
-3.2376e-08
4.53442e-08
-5.15134e-08
3.16396e-08
-3.32127e-08
2.24237e-08
-2.59374e-08
-2.56226e-08
1.36253e-08
-4.5533e-08
3.44919e-08
-4.20746e-08
1.46332e-08
-3.73106e-08
-1.99067e-08
-2.24675e-08
1.90699e-08
-4.45165e-08
1.89459e-08
-3.2202e-08
1.24525e-08
1.12863e-08
6.59022e-09
-2.39623e-08
3.17748e-08
-3.94911e-08
1.07459e-08
-3.60976e-08
-1.67899e-08
-8.51874e-09
2.15553e-08
-3.6054e-08
2.82729e-08
-2.92564e-08
1.17363e-08
9.84025e-09
6.86866e-09
-1.61109e-08
3.21762e-08
-2.57517e-08
5.60923e-09
-2.45312e-08
-1.2517e-08
-7.4574e-09
2.0642e-08
-2.00022e-08
1.17377e-08
-1.58049e-08
8.1032e-10
6.83569e-09
7.09858e-09
-1.32757e-08
1.99765e-08
-1.38014e-08
6.61687e-09
-1.85494e-08
-1.02102e-08
-8.2606e-09
1.77843e-08
-1.17666e-08
1.77257e-08
-1.9091e-08
-4.91628e-10
7.53878e-09
-1.15398e-08
1.4213e-08
-8.99186e-09
1.4679e-08
-5.62463e-09
-1.04257e-08
7.10965e-09
-1.29573e-08
6.28763e-09
-1.27538e-08
-5.21206e-09
-1.1101e-08
2.06394e-10
-1.05978e-08
2.60219e-09
5.05858e-09
3.13306e-09
-7.89118e-09
3.26574e-09
-1.09904e-08
-9.12452e-09
-9.85228e-09
-1.82667e-09
-1.2016e-08
-2.53475e-09
-2.7739e-09
4.44029e-10
-8.2279e-09
9.15839e-10
-1.14577e-08
-1.66816e-08
-1.34016e-08
-8.84469e-09
-1.50366e-08
-8.18272e-09
-1.73022e-08
-7.27113e-09
-8.41435e-09
-5.80539e-09
-8.63414e-09
)
;

boundaryField
{
    inlet
    {
        type            extrapolatedCalculated;
        value           nonuniform List<scalar> 5(-1.73022e-08 -7.27113e-09 -8.41435e-09 -5.80539e-09 -8.63414e-09);
    }
    outlet
    {
        type            extrapolatedCalculated;
        value           nonuniform List<scalar> 0();
    }
    walls
    {
        type            extrapolatedCalculated;
        value           nonuniform List<scalar> 
28
(
7.39472e-06
1.53044e-06
2.05253e-07
1.16584e-07
-4.27569e-07
-2.71718e-07
-5.8566e-07
-3.14745e-07
-4.9324e-07
-2.46751e-07
-5.3355e-07
-1.97273e-07
-6.13823e-07
-3.63944e-09
-3.30277e-07
1.04981e-06
1.63336e-06
1.79917e-06
1.75818e-06
1.24708e-06
1.19379e-06
-1.55276e-06
2.81102e-06
1.09642e-06
1.47656e-06
1.57288e-06
2.5712e-06
2.53379e-06
)
;
    }
    frontAndBack
    {
        type            empty;
    }
    procBoundary1to0
    {
        type            processor;
        value           nonuniform List<scalar> 
94
(
-1.99426e-06
-1.99426e-06
-9.58822e-07
-9.58822e-07
-3.53531e-07
-3.53531e-07
-7.35098e-07
-7.35098e-07
-3.62742e-07
-3.62742e-07
3.13429e-07
3.13429e-07
1.02272e-07
1.61162e-07
1.61162e-07
6.10427e-08
-2.03954e-07
-2.03954e-07
1.5527e-07
-2.07304e-07
-1.28227e-07
-1.28227e-07
4.09986e-08
-9.93308e-09
-9.93308e-09
3.73137e-08
-2.65577e-08
-2.86368e-07
-2.86368e-07
1.73103e-07
-4.45161e-07
-4.7195e-07
-4.7195e-07
-4.44277e-07
-3.78786e-07
-3.78786e-07
9.15664e-08
-2.46792e-07
-2.81694e-07
-2.81694e-07
1.4863e-07
-2.34597e-07
-2.86213e-07
-2.86213e-07
8.77249e-08
-2.15531e-07
-2.0921e-07
-2.0921e-07
1.17158e-07
-2.66041e-07
-2.04585e-07
-2.04585e-07
7.98775e-08
-2.33678e-08
-5.48243e-08
-5.48243e-08
6.76719e-08
-1.76955e-08
-1.05528e-07
-5.74058e-08
-5.74058e-08
-3.84541e-08
7.84779e-08
-1.09052e-07
-1.12603e-07
-1.12603e-07
1.71126e-08
-6.53496e-08
3.83486e-08
-7.92467e-08
-8.25444e-08
-8.25444e-08
6.58687e-09
-5.23602e-08
9.65954e-10
-4.40256e-08
-2.53823e-08
-1.47439e-08
-1.47439e-08
-2.10139e-08
1.64488e-08
-1.77305e-08
1.37556e-08
-1.70988e-08
8.88734e-09
-1.43909e-08
-6.03304e-09
-3.45313e-09
-3.45313e-09
-9.23474e-09
3.79805e-09
-1.42292e-08
-5.20314e-09
-1.18696e-08
)
;
    }
    procBoundary1to2
    {
        type            processor;
        value           nonuniform List<scalar> 
84
(
7.18918e-07
2.37905e-07
1.2162e-06
8.55159e-07
1.86226e-06
1.56652e-06
1.90795e-06
2.1249e-06
1.97412e-06
2.63048e-06
1.69803e-06
2.89905e-06
1.4185e-06
3.08417e-06
1.05956e-06
3.02439e-06
6.26198e-07
2.8143e-06
3.43951e-07
2.38669e-06
-1.91367e-07
1.91434e-06
-2.86282e-07
1.47696e-06
-4.11251e-07
1.11451e-06
-3.2306e-07
8.52858e-07
-1.62484e-07
6.68499e-07
-7.37441e-08
4.89782e-07
3.28802e-08
3.75375e-07
5.83136e-08
2.23822e-07
9.14641e-08
2.44612e-07
1.53298e-07
1.53298e-07
1.3764e-07
1.27715e-07
5.46137e-08
1.11809e-07
3.65747e-08
6.89314e-08
2.6507e-08
6.3271e-08
1.54688e-08
1.3644e-08
-1.51918e-09
-2.98549e-09
-1.48413e-08
-8.53543e-08
-8.53543e-08
7.4487e-08
-8.44785e-08
7.16278e-08
-6.41335e-08
3.0954e-08
-4.24828e-08
1.19985e-08
-2.76158e-08
-6.06228e-08
-6.06228e-08
1.15645e-08
-3.09308e-08
6.15729e-09
-3.27381e-08
-1.83918e-10
-3.15732e-08
-1.98806e-09
-1.85231e-08
-1.54839e-09
1.51611e-08
1.51611e-08
-3.1747e-09
7.14728e-09
-1.16517e-08
-5.50856e-10
-1.83223e-08
-4.04584e-09
-2.38164e-08
-1.37059e-08
)
;
    }
    procBoundary1to5
    {
        type            processor;
        value           nonuniform List<scalar> 
13
(
2.19428e-06
2.19428e-06
8.13213e-07
1.81282e-06
1.81282e-06
1.3514e-06
1.16564e-06
1.16564e-06
1.08859e-06
1.66594e-06
-2.07397e-06
-2.07397e-06
-1.46649e-06
)
;
    }
}


// ************************************************************************* //
