/*--------------------------------*- C++ -*----------------------------------*\
| =========                 |                                                 |
| \\      /  F ield         | OpenFOAM: The Open Source CFD Toolbox           |
|  \\    /   O peration     | Version:  2306                                  |
|   \\  /    A nd           | Website:  www.openfoam.com                      |
|    \\/     M anipulation  |                                                 |
\*---------------------------------------------------------------------------*/
FoamFile
{
    version     2.0;
    format      ascii;
    arch        "LSB;label=32;scalar=64";
    class       surfaceScalarField;
    location    "425";
    object      phi;
}
// * * * * * * * * * * * * * * * * * * * * * * * * * * * * * * * * * * * * * //

dimensions      [0 3 -1 0 0 0 0];

oriented        oriented;

internalField   nonuniform List<scalar> 
2568
(
0.00991991
-0.0318695
0.0388807
-0.0289607
0.0644589
-0.0255782
0.0864122
-0.0219533
0.105105
-0.0186923
0.120826
-0.0157218
0.133921
-0.0130947
0.145107
-0.0111856
0.154705
-0.00959877
0.163194
-0.00848857
0.170803
-0.00760945
0.177843
-0.00703907
0.184431
-0.00658805
0.190736
-0.00630547
0.196743
-0.00600705
0.202376
-0.00563325
0.206984
-0.00460733
0.210386
-0.00340194
0.212907
-0.0025216
0.214604
-0.00169709
0.215706
-0.00110134
0.216351
-0.000645558
0.216533
-0.000182074
0.216037
0.000496218
0.214777
0.00126044
0.212751
0.00202562
0.209999
0.0027519
0.00356209
-0.0156145
-0.0666214
0.0152083
-0.0626923
0.0433623
-0.0571148
0.068412
-0.0506279
0.0901897
-0.0437311
0.109073
-0.0375761
0.125518
-0.0321667
0.139747
-0.0273234
0.15221
-0.0236481
0.163208
-0.0205973
0.173036
-0.0183166
0.182001
-0.0165746
0.19036
-0.015398
0.198224
-0.0144518
0.205756
-0.0138375
0.213027
-0.013278
0.219969
-0.0125751
0.226124
-0.0107621
0.231218
-0.00849672
0.235442
-0.00674566
0.238699
-0.00495394
0.240897
-0.00329931
0.241988
-0.00173614
0.242078
-0.000272005
0.241392
0.00118208
0.240115
0.00253717
0.238266
0.00387472
0.235842
0.00517596
0.00663853
-0.00749514
-0.0985182
0.0222863
-0.0924738
0.0495768
-0.0844052
0.0742822
-0.0753333
0.0960771
-0.065526
0.115137
-0.0566363
0.131846
-0.0488755
0.14648
-0.0419578
0.159348
-0.0365155
0.170787
-0.0320361
0.181062
-0.028592
0.190441
-0.0259534
0.199131
-0.0240879
0.207296
-0.0226173
0.215124
-0.021665
0.222627
-0.0207809
0.229708
-0.0196561
0.236066
-0.0171205
0.241413
-0.0138435
0.24586
-0.0111932
0.249477
-0.00857049
0.252301
-0.00612367
0.254398
-0.00383254
0.255758
-0.00163249
0.25644
0.000500307
0.256406
0.00257131
0.255662
0.00461907
0.254134
0.00670314
0.00903299
-0.0303627
-0.131955
0.00144719
-0.130328
0.0308542
-0.121881
0.0576739
-0.111225
0.082006
-0.0996653
0.103499
-0.0870189
0.122395
-0.0755325
0.139126
-0.0656063
0.153945
-0.0567766
0.167172
-0.0497423
0.179031
-0.0438953
0.189816
-0.0393776
0.199706
-0.0358433
0.208931
-0.0333124
0.217628
-0.0313147
0.225909
-0.0299455
0.233838
-0.0287104
0.241356
-0.027174
0.24814
-0.0239047
0.253942
-0.0196452
0.258822
-0.016074
0.262834
-0.0125824
0.26603
-0.00931887
0.26844
-0.00624267
0.270134
-0.00332693
0.271145
-0.000510496
0.271494
0.00222192
0.271176
0.00493715
0.270174
0.00770539
0.0108423
-0.0212464
-0.164999
0.0109649
-0.162539
0.0404111
-0.151327
0.067098
-0.137912
0.0912165
-0.123784
0.112466
-0.108269
0.131192
-0.0942583
0.147895
-0.0823088
0.162793
-0.0716756
0.176206
-0.0631548
0.188395
-0.0560839
0.199536
-0.0505191
0.209815
-0.0461222
0.219425
-0.0429228
0.228505
-0.0403947
0.237147
-0.0385866
0.245389
-0.0369527
0.253196
-0.0349809
0.260291
-0.0310002
0.266412
-0.0257654
0.271589
-0.0212512
0.275863
-0.0168565
0.279286
-0.0127425
0.281881
-0.00883721
0.283681
-0.00512737
0.284732
-0.00156062
0.285098
0.00185561
0.284788
0.00524703
0.283786
0.00870736
0.0125593
-0.0458911
-0.191896
-0.01192
-0.19897
0.0210109
-0.19547
0.0508215
-0.181137
0.0776179
-0.164708
0.101689
-0.147855
0.122791
-0.129371
0.141332
-0.112799
0.157911
-0.0988877
0.172792
-0.0865563
0.186282
-0.0766447
0.198639
-0.0684415
0.210027
-0.0619068
0.22064
-0.0567355
0.230606
-0.0528882
0.240052
-0.0498413
0.249071
-0.0476054
0.257683
-0.0455648
0.265834
-0.0431316
0.273338
-0.038504
0.279862
-0.0322903
0.285397
-0.0267855
0.290033
-0.0214926
0.293768
-0.0164774
0.296644
-0.0117136
0.298694
-0.00717745
0.299962
-0.00282826
0.300476
0.00134154
0.300245
0.00547806
0.299294
0.00965882
0.0143683
-0.0377393
-0.226003
-0.00252151
-0.234188
0.0313953
-0.229387
0.0618762
-0.211618
0.0890317
-0.191864
0.113272
-0.172095
0.134328
-0.150427
0.152747
-0.131218
0.169206
-0.115347
0.184007
-0.101357
0.197487
-0.0901248
0.209931
-0.080885
0.22151
-0.0734856
0.232366
-0.0675914
0.242632
-0.063155
0.252403
-0.0596117
0.261748
-0.05695
0.27068
-0.0544969
0.279175
-0.0516268
0.286988
-0.0463168
0.293888
-0.039191
0.299795
-0.0326923
0.304735
-0.0264325
0.308761
-0.0205035
0.311871
-0.014823
0.314127
-0.00943363
0.315534
-0.00423531
0.316155
0.000720441
0.316005
0.00562843
0.315042
0.0106214
0.0161841
-0.0295084
-0.261547
0.00707744
-0.270773
0.042215
-0.264525
0.073585
-0.242988
0.101292
-0.219571
0.125842
-0.196644
0.146995
-0.17158
0.165357
-0.14958
0.181713
-0.131703
0.19641
-0.116054
0.209827
-0.103542
0.22231
-0.0933685
0.233976
-0.085151
0.245005
-0.0786209
0.255496
-0.0736463
0.265543
-0.069658
0.275174
-0.066581
0.284433
-0.0637566
0.293257
-0.0604502
0.301438
-0.0544984
0.30871
-0.0464628
0.314986
-0.0389679
0.320282
-0.0317283
0.324631
-0.0248524
0.328022
-0.0182149
0.330501
-0.0119124
0.332118
-0.00585207
0.332879
-4.07088e-05
0.332822
0.00568518
0.331912
0.0115322
0.0180496
-0.0585298
-0.0213305
-0.298746
0.0168393
-0.308943
0.0534508
-0.301136
0.0858815
-0.275419
0.114322
-0.248012
0.139353
-0.221675
0.160722
-0.192949
0.179129
-0.167987
0.195431
-0.148005
0.210033
-0.130656
0.22337
-0.116879
0.235801
-0.1058
0.247516
-0.0968664
0.258648
-0.0897522
0.269304
-0.0843021
0.279574
-0.0799283
0.289493
-0.0765
0.299024
-0.0732881
0.308154
-0.0695794
0.316684
-0.0630293
0.324342
-0.0541208
0.330967
-0.0455926
0.336614
-0.0373753
0.341258
-0.0294965
0.344944
-0.021901
0.347669
-0.0146374
0.349467
-0.00764991
0.350379
-0.00095214
0.350401
0.00566332
0.349529
0.0124033
0.0199164
-0.0130746
0.0269369
-0.348955
0.0650904
-0.33929
0.0987689
-0.309098
0.128114
-0.277358
0.153795
-0.247355
0.1755
-0.214654
0.194022
-0.18651
0.210335
-0.164317
0.224864
-0.145185
0.23811
-0.130124
0.250482
-0.118173
0.262176
-0.10856
0.273348
-0.100925
0.284139
-0.0950928
0.294582
-0.0903716
0.304689
-0.0866067
0.314501
-0.0830998
0.323936
-0.0790152
0.332798
-0.0718906
0.340804
-0.0621271
0.347813
-0.0526018
0.353792
-0.0433542
0.358779
-0.0344836
0.362749
-0.0258708
0.365727
-0.0176152
0.367752
-0.00967444
0.368808
-0.00200859
0.368952
0.00552003
0.368138
0.0132168
0.0218018
0.0372719
0.0771967
-0.379215
0.112274
-0.344175
0.142693
-0.307777
0.1691
-0.273762
0.191281
-0.236836
0.210028
-0.205257
0.226424
-0.180713
0.240914
-0.159676
0.25408
-0.14329
0.266368
-0.130461
0.278012
-0.120205
0.289201
-0.112113
0.300031
-0.105923
0.310595
-0.100936
0.320913
-0.0969245
0.330952
-0.0931388
0.340646
-0.0887097
0.349838
-0.0810823
0.358196
-0.0704845
0.365557
-0.0599632
0.371903
-0.0497001
0.377211
-0.0397916
0.381495
-0.0301548
0.384733
-0.0208535
0.386956
-0.0118972
0.388206
-0.00325812
0.388455
0.00527061
0.387706
0.0139661
0.0236959
0.0898339
0.126418
-0.380758
0.158018
-0.339377
0.185334
-0.301078
0.2081
-0.259601
0.227171
-0.224328
0.243682
-0.197224
0.258194
-0.174188
0.271299
-0.156395
0.283509
-0.14267
0.295072
-0.131768
0.306223
-0.123264
0.317092
-0.116792
0.327728
-0.111572
0.338173
-0.10737
0.348399
-0.103364
0.358371
-0.0986825
0.367865
-0.0905762
0.376562
-0.0791818
0.384278
-0.0676786
0.390963
-0.0563854
0.396618
-0.0454468
0.401186
-0.0347224
0.404708
-0.0243754
0.407167
-0.0143563
0.408586
-0.00467666
0.408981
0.00487544
0.408284
0.0146626
0.0255723
0.141257
0.174163
-0.372284
0.202493
-0.329407
0.225939
-0.283047
0.245418
-0.243807
0.262165
-0.213971
0.276747
-0.188769
0.289821
-0.16947
0.301957
-0.154807
0.313439
-0.143249
0.324526
-0.134351
0.335366
-0.127632
0.346048
-0.122255
0.356586
-0.117907
0.366986
-0.113764
0.377172
-0.108869
0.386962
-0.100366
0.395976
-0.0881965
0.404032
-0.0757343
0.411062
-0.0634151
0.417026
-0.0514111
0.421918
-0.0396146
0.425718
-0.0281754
0.428424
-0.0170615
0.430048
-0.00630158
0.430575
0.00434936
0.429969
0.0152679
0.0274425
0.191202
0.220645
-0.358851
0.244881
-0.307283
0.264843
-0.263769
0.281878
-0.231007
0.296575
-0.203466
0.309647
-0.182542
0.321737
-0.166897
0.333145
-0.154657
0.344137
-0.145343
0.354932
-0.138426
0.365623
-0.132946
0.376226
-0.12851
0.386743
-0.124281
0.397138
-0.119264
0.407184
-0.110412
0.416498
-0.0975099
0.424877
-0.0841131
0.43224
-0.0707787
0.438547
-0.0577175
0.443752
-0.0448199
0.447836
-0.03226
0.450785
-0.0200104
0.452603
-0.00811906
0.453288
0.00366459
0.452774
0.0157813
0.0292807
0.239779
-0.389563
0.264879
-0.332382
0.28545
-0.28434
0.302848
-0.248404
0.317726
-0.218344
0.330857
-0.195674
0.342901
-0.178941
0.354225
-0.165981
0.36515
-0.156269
0.375874
-0.14915
0.386528
-0.143599
0.397158
-0.139141
0.407786
-0.134909
0.41835
-0.129827
0.428626
-0.120688
0.438237
-0.10712
0.44692
-0.092796
0.454604
-0.0784632
0.461221
-0.0643341
0.466738
-0.0503375
0.471099
-0.0366204
0.474311
-0.0232223
0.476358
-0.0101659
0.477187
0.00283523
0.476793
0.0161758
0.0310687
0.259978
0.286077
-0.358481
0.307299
-0.305563
0.325119
-0.266224
0.340242
-0.233467
0.353462
-0.208894
0.365512
-0.19099
0.376768
-0.177237
0.387604
-0.167104
0.398248
-0.159795
0.408858
-0.154209
0.419484
-0.149766
0.430165
-0.14559
0.440875
-0.140537
0.451387
-0.131201
0.461246
-0.116979
0.47021
-0.10176
0.478199
-0.0864519
0.485128
-0.0712634
0.490953
-0.0561629
0.495615
-0.0412824
0.499086
-0.0266927
0.501333
-0.0124129
0.502358
0.00181017
0.502071
0.0164629
0.0327915
0.308432
-0.385633
0.330397
-0.327529
0.348738
-0.284564
0.364153
-0.248883
0.377513
-0.222253
0.389606
-0.203084
0.400826
-0.188457
0.411584
-0.177862
0.422142
-0.170353
0.432675
-0.164743
0.443287
-0.160378
0.454003
-0.156306
0.464827
-0.151362
0.475513
-0.141886
0.485602
-0.127069
0.494847
-0.111005
0.50312
-0.0947253
0.510361
-0.0785045
0.516475
-0.0622763
0.521426
-0.0462333
0.525157
-0.0304243
0.527652
-0.0149073
0.528845
0.000616793
0.528681
0.0166275
0.0344274
0.332074
0.354871
-0.350325
0.373776
-0.303469
0.389543
-0.26465
0.403098
-0.235808
0.415244
-0.215229
0.426467
-0.199681
0.437146
-0.18854
0.447615
-0.180823
0.458071
-0.175198
0.468636
-0.170943
0.479366
-0.167036
0.490286
-0.162281
0.501137
-0.152738
0.511442
-0.137374
0.520919
-0.120481
0.529455
-0.103261
0.536966
-0.0860162
0.543383
-0.0686929
0.548606
-0.0514564
0.552614
-0.034432
0.555324
-0.0176173
0.556724
-0.000783249
0.556723
0.0166291
0.0359985
0.380713
-0.374039
0.400252
-0.323009
0.416446
-0.280845
0.430241
-0.249602
0.442502
-0.227491
0.453727
-0.210905
0.464363
-0.199176
0.474748
-0.191208
0.485142
-0.185593
0.495634
-0.181435
0.506371
-0.177772
0.517348
-0.173259
0.528339
-0.163729
0.538834
-0.147869
0.548514
-0.130161
0.557313
-0.112061
0.56509
-0.0937927
0.571759
-0.0753627
0.577285
-0.0569821
0.581543
-0.03869
0.584499
-0.0205737
0.586077
-0.0023612
0.586229
0.0164775
0.0374311
0.408017
-0.398698
0.428282
-0.343274
0.444941
-0.297504
0.459022
-0.263683
0.471446
-0.239914
0.482708
-0.222167
0.493326
-0.209795
0.50365
-0.201532
0.513947
-0.195889
0.524388
-0.191877
0.53508
-0.188464
0.54612
-0.184299
0.557229
-0.174838
0.56787
-0.158509
0.57776
-0.140051
0.586761
-0.121062
0.59478
-0.101812
0.601736
-0.0823194
0.607493
-0.0627388
0.612012
-0.0432087
0.615217
-0.0237783
0.617022
-0.0041667
0.617338
0.0161618
0.0387551
0.436893
0.457923
-0.364304
0.475108
-0.314689
0.489518
-0.278093
0.502128
-0.252524
0.513479
-0.233519
0.52407
-0.220386
0.534352
-0.211813
0.544579
-0.206116
0.554958
-0.202256
0.565635
-0.199141
0.57669
-0.195353
0.587892
-0.18604
0.598687
-0.169304
0.608724
-0.150088
0.617923
-0.13026
0.626175
-0.110064
0.633363
-0.089508
0.639389
-0.0687643
0.64416
-0.0479804
0.647603
-0.0272211
0.649604
-0.00616699
0.650102
0.0156633
0.0399124
0.489225
-0.386174
0.506993
-0.332457
0.521808
-0.292909
0.534647
-0.265363
0.546107
-0.244979
0.556761
-0.23104
0.567
-0.222052
0.577153
-0.216269
0.587467
-0.21257
0.598097
-0.209771
0.609176
-0.206432
0.620473
-0.197337
0.631362
-0.180193
0.641546
-0.160272
0.650928
-0.139642
0.659375
-0.118511
0.666776
-0.0969087
0.673041
-0.0750298
0.678048
-0.0529871
0.681714
-0.0308873
0.683955
-0.00840774
0.684635
0.0149837
0.04092
0.522321
0.540748
-0.350884
0.555962
-0.308122
0.569085
-0.278485
0.580695
-0.256589
0.591387
-0.241732
0.601626
-0.232291
0.611756
-0.226399
0.621995
-0.222809
0.632597
-0.220373
0.643702
-0.217537
0.655023
-0.208657
0.666019
-0.19119
0.6764
-0.170652
0.685796
-0.149039
0.694449
-0.127163
0.702111
-0.104572
0.708554
-0.0814721
0.713782
-0.0582156
0.717756
-0.0348614
0.720202
-0.0108536
0.721052
0.0141339
0.0417433
0.576374
-0.370012
0.592095
-0.323843
0.605533
-0.291923
0.617334
-0.268391
0.628124
-0.252522
0.638366
-0.242533
0.648492
-0.236525
0.658715
-0.233032
0.669217
-0.230875
0.68028
-0.2286
0.691778
-0.220156
0.702811
-0.202223
0.713202
-0.181043
0.722943
-0.158781
0.731633
-0.135852
0.739339
-0.112278
0.746135
-0.0882674
0.751598
-0.0636786
0.755563
-0.0388266
0.758242
-0.013533
0.759472
0.0129049
0.0424127
0.614035
-0.3899
0.630254
-0.340062
0.644132
-0.305801
0.656112
-0.280371
0.667059
-0.263469
0.677339
-0.252812
0.687338
-0.246524
0.697513
-0.243207
0.7081
-0.241463
0.719329
-0.239829
0.730653
-0.23148
0.741884
-0.213453
0.752294
-0.191454
0.762094
-0.16858
0.771009
-0.144768
0.778993
-0.120262
0.785739
-0.0950135
0.791436
-0.0693754
0.795782
-0.043172
0.798607
-0.0163582
0.799876
0.0116353
0.0427198
0.653875
0.67073
-0.356917
0.684842
-0.319913
0.697216
-0.292745
0.708232
-0.274485
0.71862
-0.2632
0.728705
-0.256609
0.738945
-0.253447
0.749509
-0.252027
0.760516
-0.250836
0.772107
-0.243071
0.7833
-0.224646
0.793826
-0.201979
0.803542
-0.178297
0.812539
-0.153765
0.820652
-0.128374
0.827697
-0.102059
0.833484
-0.0751628
0.838076
-0.047764
0.841171
-0.0194529
0.842601
0.0102059
0.0428492
0.7133
-0.37443
0.728026
-0.334639
0.740542
-0.30526
0.751827
-0.28577
0.762253
-0.273626
0.77255
-0.266906
0.782645
-0.263543
0.793063
-0.262445
0.804295
-0.262068
0.815807
-0.254583
0.827082
-0.235921
0.837701
-0.212598
0.847672
-0.188268
0.856729
-0.162822
0.864828
-0.136474
0.871904
-0.109134
0.878011
-0.08127
0.882713
-0.0524668
0.885949
-0.0226886
0.887792
0.00836329
0.0429066
0.758336
-0.392553
0.773516
-0.349819
0.786494
-0.318238
0.79788
-0.297156
0.808558
-0.284305
0.818742
-0.27709
0.828954
-0.273755
0.839576
-0.273066
0.8507
-0.273193
0.862379
-0.266261
0.873708
-0.24725
0.884296
-0.223186
0.894145
-0.198117
0.90336
-0.172037
0.911664
-0.144777
0.918994
-0.116464
0.924911
-0.0871872
0.929835
-0.0573907
0.933453
-0.0263067
0.935342
0.00647388
0.042509
0.805981
0.82171
-0.365549
0.834972
-0.3315
0.846801
-0.308985
0.857548
-0.295052
0.867884
-0.287426
0.878089
-0.283959
0.888716
-0.283693
0.899966
-0.284443
0.911685
-0.27798
0.922972
-0.258538
0.933749
-0.233963
0.943703
-0.208071
0.952819
-0.181153
0.961063
-0.153022
0.968382
-0.123782
0.974826
-0.0936313
0.97971
-0.0622741
0.983456
-0.0300529
0.985639
0.00429043
0.0420149
0.87246
-0.381775
0.886343
-0.345383
0.898303
-0.320945
0.909246
-0.305995
0.919736
-0.297916
0.930187
-0.29441
0.940829
-0.294336
0.95212
-0.295734
0.963888
-0.289747
0.975343
-0.269994
0.98608
-0.244699
0.996009
-0.218
1.00525
-0.190393
1.01366
-0.161434
1.02107
-0.131191
1.02729
-0.0998485
1.03248
-0.0674719
1.03622
-0.0337925
1.0387
0.00181178
0.0411695
0.92627
0.940378
-0.359491
0.952825
-0.333391
0.964094
-0.317264
0.97465
-0.308472
0.985157
-0.304917
0.995825
-0.305003
1.00727
-0.307176
1.01922
-0.301697
1.03073
-0.281507
1.04143
-0.255397
1.05156
-0.228135
1.0608
-0.199627
1.06912
-0.169753
1.07647
-0.13855
1.08293
-0.106309
1.08831
-0.0728453
1.09228
-0.0377662
1.0948
-0.000708661
0.0399673
0.997764
-0.374297
1.01038
-0.346008
1.0219
-0.328787
1.03277
-0.31934
1.04332
-0.315464
1.05427
-0.315955
1.06577
-0.318674
1.07779
-0.313717
1.08953
-0.293245
1.10028
-0.266153
1.11027
-0.238117
1.11948
-0.208844
1.12782
-0.178087
1.13548
-0.146209
1.14192
-0.112754
1.14721
-0.0781323
1.1514
-0.0419583
1.15421
-0.00351641
0.0386543
1.05817
-0.389547
1.07133
-0.35917
1.08311
-0.340562
1.09408
-0.330315
1.10496
-0.326341
1.11599
-0.326983
1.12767
-0.330356
1.1399
-0.325945
1.15158
-0.304927
1.16255
-0.277128
1.1725
-0.248063
1.1817
-0.218042
1.19016
-0.186548
1.19762
-0.153668
1.20415
-0.119288
1.20958
-0.0835651
1.21386
-0.0462361
1.21682
-0.00647951
0.0371088
1.12196
1.13568
-0.37289
1.14774
-0.352617
1.1592
-0.341776
1.17005
-0.337196
1.18127
-0.338204
1.19331
-0.342392
1.20553
-0.338164
1.21743
-0.316829
1.22837
-0.288067
1.23852
-0.258217
1.24782
-0.227341
1.25616
-0.19489
1.26353
-0.161038
1.27014
-0.125899
1.27559
-0.0890076
1.27994
-0.050586
1.28317
-0.00971312
0.0352083
1.20358
-0.386961
1.21604
-0.365078
1.22766
-0.3534
1.23899
-0.348525
1.25045
-0.349658
1.26245
-0.354397
1.27504
-0.350753
1.28707
-0.328853
1.29811
-0.299108
1.30836
-0.268472
1.31752
-0.236499
1.32586
-0.203229
1.3335
-0.168679
1.33993
-0.132332
1.3455
-0.0945703
1.34991
-0.0549975
1.35316
-0.0129607
0.0330855
1.27524
-0.401509
1.28827
-0.37811
1.30029
-0.365419
1.31175
-0.35999
1.32347
-0.361375
1.33573
-0.366662
1.34869
-0.363713
1.36088
-0.341037
1.37203
-0.310263
1.38215
-0.278594
1.39142
-0.245767
1.39988
-0.21169
1.4073
-0.176098
1.4138
-0.138826
1.41947
-0.100241
1.42405
-0.0595823
1.42742
-0.016334
0.0307486
1.35115
1.36455
-0.391502
1.37674
-0.377607
1.38875
-0.372003
1.40072
-0.373351
1.4134
-0.379334
1.42642
-0.376736
1.43885
-0.353467
1.45015
-0.321566
1.46052
-0.28896
1.46979
-0.255035
1.47825
-0.220155
1.48557
-0.183419
1.49224
-0.145497
1.49777
-0.105771
1.50228
-0.0640843
1.50589
-0.0199448
0.0283323
1.4451
-0.405469
1.45788
-0.390396
1.47007
-0.384191
1.48234
-0.385616
1.49532
-0.392321
1.50865
-0.390059
1.52141
-0.366225
1.53297
-0.333136
1.54324
-0.299228
1.55264
-0.264433
1.561
-0.228512
1.56847
-0.19089
1.57495
-0.151978
1.58057
-0.111396
1.58523
-0.0687403
1.58895
-0.0236592
1.5301
-0.419833
1.54335
-0.403645
1.55598
-0.396818
1.56857
-0.39821
1.58201
-0.405758
1.5958
-0.403846
1.60876
-0.379189
1.62039
-0.34477
1.63094
-0.309776
1.64037
-0.273862
1.64875
-0.236894
1.65626
-0.198395
1.66267
-0.158393
1.66827
-0.116992
1.67295
-0.0734201
-0.0273445
1.62002
1.63375
-0.417383
1.64674
-0.409807
1.65982
-0.411284
1.67346
-0.419401
1.68775
-0.418138
1.70105
-0.392491
1.71291
-0.356625
1.72365
-0.320511
1.73312
-0.283335
1.74154
-0.245318
1.74897
-0.205823
1.75557
-0.164991
1.76101
-0.122436
1.76571
-0.0781191
-0.0312363
1.72915
-0.431529
1.74263
-0.423291
1.75628
-0.424938
1.77046
-0.433579
1.7849
-0.432572
1.79871
-0.406308
1.81091
-0.368823
1.82173
-0.331329
1.83139
-0.293
1.83988
-0.2538
1.84736
-0.21331
1.85366
-0.171293
1.85933
-0.128101
1.86404
-0.0828336
-0.0350788
1.82995
-0.44644
1.84407
-0.437417
1.85804
-0.438902
1.87273
-0.448275
1.88784
-0.447675
1.90182
-0.420291
1.9144
-0.381403
1.92546
-0.34239
1.93522
-0.302758
1.94378
-0.262363
1.95122
-0.220747
1.95772
-0.1778
1.96324
-0.133621
1.96797
-0.0875637
-0.0389898
1.9365
1.95106
-0.451969
1.96553
-0.453379
1.98078
-0.463517
1.99649
-0.463385
2.01103
-0.434832
2.02391
-0.394281
2.0351
-0.353585
2.0451
-0.312758
2.05376
-0.271024
2.0613
-0.22828
2.06778
-0.18428
2.07328
-0.139129
2.07803
-0.0923119
-0.0428393
2.06411
-0.467217
2.0793
-0.468568
2.09503
-0.479243
2.11121
-0.479563
2.12636
-0.449991
2.13955
-0.407468
2.15116
-0.365195
2.16118
-0.32278
2.16998
-0.279816
2.17762
-0.235927
2.18409
-0.190749
2.18972
-0.14476
2.19437
-0.0969575
-0.0467469
2.18345
-0.483065
2.19922
-0.484342
2.21581
-0.49583
2.23262
-0.496374
2.24817
-0.465538
2.26185
-0.421148
2.27378
-0.37713
2.2841
-0.333101
2.29305
-0.288762
2.30071
-0.243592
2.30731
-0.19735
2.31271
-0.150155
2.31739
-0.101633
-0.050839
2.30965
2.32605
-0.500742
2.34318
-0.512956
2.36079
-0.513984
2.37687
-0.481622
2.39106
-0.435332
2.40335
-0.389428
2.41401
-0.343754
2.42313
-0.297889
2.43084
-0.251297
2.43735
-0.203859
2.44302
-0.155826
2.44761
-0.106221
-0.0547437
2.46006
-0.518058
2.47784
-0.530736
2.49619
-0.532332
2.51308
-0.498517
2.52769
-0.449944
2.54039
-0.40212
2.55128
-0.354642
2.56062
-0.307233
2.56839
-0.259071
2.5752
-0.210666
2.58067
-0.161296
2.58543
-0.110981
-0.0585897
2.60134
-0.535913
2.62012
-0.54951
2.6392
-0.551413
2.65673
-0.516054
2.67191
-0.465119
2.68515
-0.415361
2.69643
-0.365929
2.7059
-0.316697
2.71402
-0.267189
2.72066
-0.217305
2.72631
-0.166955
2.73089
-0.115558
-0.0625087
2.75085
-0.554735
2.77035
-0.569009
2.79022
-0.571286
2.80863
-0.53446
2.82458
-0.481071
2.83803
-0.42881
2.84963
-0.377524
2.85949
-0.326562
2.86774
-0.275435
2.87448
-0.224048
2.88023
-0.172703
2.88489
-0.120215
-0.0663851
2.9084
2.92906
-0.589679
2.94988
-0.592103
2.96902
-0.553596
2.98547
-0.497519
2.99968
-0.443022
3.01174
-0.389584
3.02179
-0.336615
3.0302
-0.28384
3.03732
-0.231173
3.04293
-0.178315
3.04756
-0.124845
-0.0702331
3.09655
-0.611159
3.11846
-0.614013
3.13844
-0.573582
3.15574
-0.514818
3.17048
-0.457758
3.18292
-0.402025
3.19344
-0.347139
3.20204
-0.292437
3.20908
-0.238211
3.21483
-0.184064
3.2197
-0.129719
-0.0740647
3.27352
-0.633738
3.29637
-0.636861
3.31735
-0.594566
3.33539
-0.532855
3.35083
-0.473197
3.36369
-0.414884
3.37447
-0.357924
3.38354
-0.301507
3.39077
-0.245441
3.39668
-0.189976
3.40133
-0.134361
3.46029
-0.657334
3.48432
-0.660888
3.50625
-0.616501
3.52518
-0.55178
3.54125
-0.489266
3.55481
-0.428448
3.56601
-0.369128
3.57522
-0.310712
3.58267
-0.252896
3.58865
-0.195957
-0.139169
3.65759
3.68284
-0.686135
3.7059
-0.639567
3.72565
-0.571527
3.74237
-0.505984
3.75655
-0.442631
3.76821
-0.380788
3.77771
-0.320211
3.78542
-0.260609
3.79163
-0.20216
-0.143916
3.89248
-0.712815
3.91667
-0.663756
3.93729
-0.59215
3.95495
-0.523646
3.96954
-0.457222
3.98182
-0.39307
3.99165
-0.330039
3.99966
-0.268613
4.00574
-0.208241
-0.148883
4.11355
-0.740542
4.13909
-0.689297
4.16084
-0.613906
4.17913
-0.541934
4.19467
-0.472764
4.20723
-0.405632
4.21756
-0.340361
4.22576
-0.276816
4.23225
-0.214733
-0.153845
4.34723
-0.770012
4.37374
-0.715801
4.39671
-0.636882
4.41603
-0.561247
4.43206
-0.488795
4.44532
-0.418896
4.45605
-0.351087
4.46449
-0.285255
4.47104
-0.22129
-0.158959
4.59361
-0.800902
4.62179
-0.743983
4.64563
-0.660725
4.6659
-0.581511
4.68271
-0.505611
4.69672
-0.4329
4.70776
-0.362133
4.7166
-0.294093
4.72339
-0.228074
-0.164134
4.85372
4.88322
-0.773488
4.90849
-0.68599
4.92976
-0.602781
4.9474
-0.523258
4.96182
-0.447314
4.9736
-0.373917
4.98263
-0.303118
4.9898
-0.235251
-0.169273
5.15931
-0.804514
5.18581
-0.712483
5.20813
-0.625101
5.22678
-0.541911
5.2419
-0.462432
5.25409
-0.386108
5.26359
-0.312623
5.27082
-0.242478
-0.174796
5.45061
-0.837276
5.47848
-0.740352
5.50203
-0.648653
5.52149
-0.561371
5.53749
-0.478432
5.55013
-0.398748
5.56016
-0.322651
5.5676
-0.249923
5.75807
-0.871651
5.78743
-0.769715
5.81213
-0.673355
5.83256
-0.581795
5.84923
-0.495107
5.86262
-0.412135
5.87296
-0.332991
-0.257878
6.08248
-0.907954
6.11333
-0.800569
6.13925
-0.699271
6.16084
-0.603384
6.17836
-0.512629
6.19229
-0.426062
6.20311
-0.343814
-0.266128
6.42481
-0.946135
6.45722
-0.832974
6.48452
-0.726572
6.50718
-0.626043
6.52559
-0.531044
6.54023
-0.440697
6.55157
-0.355159
-0.274592
6.78521
6.81962
-0.867384
6.84871
-0.755663
6.87251
-0.649841
6.89187
-0.550401
6.9065
-0.45533
6.91905
-0.367708
-0.283436
7.20301
-0.903968
7.23223
-0.784879
7.25781
-0.675421
7.27727
-0.569864
7.29436
-0.472417
7.30651
-0.379861
-0.291942
7.60546
-0.940517
7.63835
-0.817764
7.66379
-0.700859
7.68556
-0.591641
7.70237
-0.48922
7.71417
-0.391661
-0.302577
5.52911
-0.947624
5.53772
-0.826376
5.55048
-0.713621
5.56746
-0.608622
5.58616
-0.507919
5.60916
-0.414662
-0.328674
6.08484
-0.952693
6.09515
-0.836685
6.1095
-0.727972
6.12673
-0.625854
6.14815
-0.529336
6.17379
-0.440307
-0.356081
6.6967
-0.958433
6.70758
-0.847558
6.72369
-0.744088
6.74259
-0.644755
6.76687
-0.55361
6.79402
-0.467459
-0.38619
7.37107
-0.965045
7.38398
-0.86047
7.39946
-0.759567
7.42146
-0.666759
7.44748
-0.579624
7.47755
-0.497534
8.11304
-0.974002
8.12563
-0.87306
8.1445
-0.778439
8.16851
-0.69077
8.19643
-0.607544
-0.529416
8.92779
-0.981706
8.94277
-0.888042
8.96268
-0.798345
8.98887
-0.716965
9.02014
-0.638808
-0.56581
9.82657
9.84168
-0.903153
9.86407
-0.82073
9.89262
-0.745523
9.92613
-0.672315
-0.605596
10.8306
-0.919741
10.8543
-0.844471
10.8854
-0.776579
10.9225
-0.709466
-0.648913
11.916
-0.937915
11.9425
-0.870902
11.9748
-0.808868
12.0155
-0.750228
-0.695679
13.1068
-0.958056
13.1351
-0.899153
13.1729
-0.846716
13.2166
-0.7939
-0.747782
14.4137
-0.978491
14.4446
-0.930059
14.4824
-0.88447
14.5309
-0.842431
-0.803391
15.87
-1.00388
15.907
-0.966977
15.9531
-0.930585
16.0097
-0.899042
-0.86796
17.4905
17.5255
17.5737
17.6313
)
;

boundaryField
{
    inlet
    {
        type            calculated;
        value           nonuniform List<scalar> 5(-1.02866 -1.00206 -0.978751 -0.956631 -0.936419);
    }
    outlet
    {
        type            calculated;
        value           nonuniform List<scalar> 0();
    }
    walls
    {
        type            calculated;
        value           uniform 0;
    }
    frontAndBack
    {
        type            empty;
        value           nonuniform List<scalar> 0();
    }
    procBoundary1to0
    {
        type            processor;
        value           nonuniform List<scalar> 
94
(
-0.287834
0.0519624
-0.337634
0.00461546
-0.390842
-0.0479584
-0.42109
-0.102964
-0.419051
-0.156819
-0.406667
-0.209067
-0.227936
-0.421606
-0.281279
-0.303755
-0.413952
-0.356999
-0.383357
-0.411137
-0.424454
-0.467355
-0.499507
-0.408987
-0.557246
-0.594147
-0.633145
-0.410631
-0.695788
-0.740212
-0.787105
-0.411429
-0.856235
-0.909324
-0.398721
-0.982958
-1.04292
-1.10619
-0.405317
-1.18951
-1.26069
-1.33587
-0.416798
-1.43113
-1.51574
-1.60499
-0.434856
-1.715
-1.81504
-1.921
-0.46195
-2.04886
-2.1676
-2.29307
-0.499644
-2.44274
-2.58349
-2.73203
-2.88872
-0.574411
-3.07507
-3.25094
-3.43669
-3.63267
-0.682252
-3.8658
-4.08582
-4.31776
-4.56272
-4.82135
-0.833266
-5.12829
-5.41785
-5.72369
-6.04617
-6.38663
-6.746
-0.985346
-7.16643
-7.56891
-5.522
-6.07977
-6.69096
-7.36446
-8.10409
-8.92008
-9.81737
-0.990902
-10.814
-11.8979
-13.0867
-14.3933
-15.8447
-17.4657
)
;
    }
    procBoundary1to2
    {
        type            processor;
        value           nonuniform List<scalar> 
84
(
0.206437
0.232766
0.25174
0.268365
0.282069
0.297485
0.313226
0.330046
0.347663
0.366253
0.385812
0.406408
0.428099
0.450936
0.475005
0.500348
0.527045
0.555152
0.584796
0.616014
0.648945
0.683627
0.720229
0.758802
0.799569
0.842471
0.887734
0.93574
0.986133
1.03955
1.096
1.15552
1.21837
1.28507
1.35528
1.42976
1.5083
1.59155
0.0257233
1.67664
1.7696
1.86789
1.97189
2.08188
2.19828
2.32148
2.45151
2.58928
2.73481
2.88876
3.05141
3.22353
3.40516
-0.0778983
3.59346
3.79637
4.0107
4.23721
4.47616
4.72856
4.99494
5.27634
5.57329
-0.180482
5.88091
6.21136
6.56004
6.92789
7.31502
7.7248
5.63526
6.2012
6.82413
7.51177
-0.420407
8.22832
9.05653
9.96592
10.9658
12.0623
13.2687
14.5865
16.0743
17.6998
)
;
    }
    procBoundary1to5
    {
        type            processor;
        value           nonuniform List<scalar> 
13
(
0.0219496
0.0343795
0.0478564
0.039392
0.0995617
0.0627559
0.0542901
0.158996
0.0787915
0.0718456
0.0650524
0.251538
0.0948253
)
;
    }
}


// ************************************************************************* //
