/*--------------------------------*- C++ -*----------------------------------*\
| =========                 |                                                 |
| \\      /  F ield         | OpenFOAM: The Open Source CFD Toolbox           |
|  \\    /   O peration     | Version:  2306                                  |
|   \\  /    A nd           | Website:  www.openfoam.com                      |
|    \\/     M anipulation  |                                                 |
\*---------------------------------------------------------------------------*/
FoamFile
{
    version     2.0;
    format      ascii;
    arch        "LSB;label=32;scalar=64";
    class       volSymmTensorField;
    location    "425";
    object      turbulenceProperties:devReff;
}
// * * * * * * * * * * * * * * * * * * * * * * * * * * * * * * * * * * * * * //

dimensions      [0 2 -2 0 0 0 0];

internalField   nonuniform List<symmTensor> 
1340
(
(5.4785e-05 0.000636922 1.39725e-19 -1.7087e-05 -5.5181e-20 -3.7698e-05)
(0.000231363 0.000621222 2.26703e-19 -0.000204969 -1.14671e-19 -2.6394e-05)
(0.00047132 0.000742216 -1.54451e-19 -0.000468029 3.90398e-20 -3.29052e-06)
(0.000812382 0.00102678 -3.88387e-20 -0.000823026 1.83171e-19 1.06435e-05)
(0.00130644 0.00156641 2.49336e-19 -0.00132443 1.03713e-19 1.79828e-05)
(0.00202429 0.00252565 4.59462e-19 -0.00205446 -7.15379e-20 3.01701e-05)
(0.00305566 0.00413714 -8.14078e-21 -0.00310696 -2.58798e-19 5.13004e-05)
(0.0044731 0.00664462 -8.04471e-20 -0.00454804 -1.73497e-19 7.49414e-05)
(0.00629924 0.0103378 2.69068e-20 -0.00640794 -5.82064e-20 0.000108705)
(0.00863915 0.015635 -1.97155e-19 -0.0087849 6.7012e-19 0.000145755)
(0.0117402 0.0234246 7.42379e-19 -0.0119383 2.75948e-19 0.000198175)
(0.0161482 0.0354501 3.28026e-19 -0.0164166 -1.21848e-18 0.000268373)
(0.0226884 0.0549989 -1.32086e-18 -0.023079 -3.46435e-19 0.000390542)
(0.0329408 0.088617 -4.44085e-18 -0.0335317 -2.02922e-18 0.000590927)
(0.0490728 0.148528 -3.35497e-18 -0.0500522 -8.97226e-19 0.000979407)
(0.0757042 0.263753 6.22756e-18 -0.077482 -5.78858e-19 0.00177782)
(0.116282 0.48777 -7.46704e-18 -0.119918 1.2081e-18 0.00363662)
(0.183243 0.979451 4.06953e-18 -0.191089 -7.22374e-18 0.00784627)
(0.277943 2.01763 -1.26415e-16 -0.294318 2.61692e-18 0.016375)
(0.410054 4.53273 -7.83241e-17 -0.448529 1.22982e-17 0.038475)
(0.421168 9.36904 6.59254e-17 -0.501476 8.2445e-19 0.0803079)
(0.00812317 13.292 8.69846e-18 -0.112266 -1.25589e-19 0.104143)
(-0.62875 14.9598 6.28582e-17 0.530418 4.34428e-19 0.0983314)
(-1.26785 15.3986 -4.37185e-16 1.18561 -4.89379e-18 0.0822436)
(-1.85323 15.4185 1.57308e-16 1.78589 2.09303e-17 0.067338)
(-2.3774 15.2563 -1.88904e-15 2.3216 -1.53207e-16 0.0557946)
(-2.83317 14.9562 -3.45856e-15 2.78627 -2.36944e-16 0.0469016)
(-3.21856 14.534 1.05847e-15 3.17823 1.08395e-16 0.0403268)
(0.000271226 0.00040598 7.02567e-20 -0.000274639 -2.2467e-19 3.41372e-06)
(0.000131121 0.000406958 -3.17857e-19 -0.000140194 8.39356e-21 9.07273e-06)
(2.28712e-05 0.000374118 4.8857e-20 -3.33807e-05 2.16475e-19 1.05095e-05)
(-6.63166e-05 0.000316361 1.24435e-21 6.00916e-05 -1.29263e-19 6.225e-06)
(-0.000121768 0.000243629 -8.32673e-20 0.000123188 -7.89498e-20 -1.4202e-06)
(-0.000141757 0.000176672 -6.00705e-20 0.00015008 -8.49748e-20 -8.32293e-06)
(-0.000139971 0.000124397 -1.12034e-20 0.000152778 1.86594e-20 -1.28069e-05)
(-0.00012757 8.66285e-05 3.75292e-20 0.000142839 1.0099e-19 -1.52692e-05)
(-0.000111044 6.08897e-05 6.47339e-20 0.000127503 2.50095e-20 -1.64583e-05)
(-9.41908e-05 4.40024e-05 -9.21267e-20 0.000110951 -4.69899e-21 -1.67605e-05)
(-7.86826e-05 3.33875e-05 8.27056e-20 9.51006e-05 8.54248e-21 -1.6418e-05)
(-6.53908e-05 2.68724e-05 -9.8492e-21 8.10452e-05 -2.88777e-20 -1.56544e-05)
(-5.43343e-05 2.27331e-05 -3.38118e-20 6.89939e-05 5.37887e-20 -1.46595e-05)
(-4.52857e-05 1.99641e-05 -2.57777e-20 5.8919e-05 2.80593e-20 -1.36333e-05)
(-3.79975e-05 1.79326e-05 -6.20008e-20 5.07309e-05 6.97498e-20 -1.27334e-05)
(-3.26724e-05 1.64692e-05 -8.73212e-20 4.49201e-05 4.53004e-20 -1.22477e-05)
(-2.91895e-05 1.55186e-05 -1.25798e-19 4.16893e-05 1.08383e-20 -1.24998e-05)
(-2.68697e-05 1.54958e-05 5.61071e-20 4.05156e-05 5.32815e-21 -1.36459e-05)
(-2.46032e-05 1.7263e-05 -3.9946e-21 3.96875e-05 5.47728e-21 -1.50844e-05)
(-0.000235313 0.000213508 5.26712e-19 0.000404619 1.37772e-19 -0.000169306)
(-0.00119751 0.0013569 2.69671e-18 0.00216781 -1.92561e-19 -0.000970305)
(-0.00866897 0.0119941 1.08353e-18 0.0162508 -4.51443e-19 -0.00758182)
(-0.026227 0.0459315 -7.54124e-19 0.0499596 1.0319e-19 -0.0237326)
(-0.0449443 0.102717 4.96455e-17 0.0849992 2.01652e-18 -0.0400549)
(-0.0579723 0.170679 4.02655e-16 0.105298 9.71984e-18 -0.0473253)
(-0.0659771 0.235243 2.39536e-16 0.111231 1.31181e-17 -0.0452536)
(-0.0730169 0.289383 1.76247e-15 0.11202 1.20939e-16 -0.0390027)
(-0.0819869 0.33494 2.54475e-15 0.11474 1.69242e-16 -0.032753)
(-0.0941524 0.375377 -5.70586e-16 0.122123 -9.71529e-17 -0.0279709)
(0.000244197 0.00030301 2.37584e-20 -0.00024389 1.44099e-19 -3.06872e-07)
(0.00014106 0.000319908 1.56358e-19 -0.000141806 1.67851e-19 7.4626e-07)
(4.81365e-05 0.000309273 5.31701e-20 -4.95974e-05 -1.33522e-19 1.4609e-06)
(-2.83439e-05 0.000273934 1.18441e-19 2.72884e-05 7.01951e-20 1.05542e-06)
(-7.85706e-05 0.000221401 -8.35354e-20 7.72413e-05 2.14691e-20 1.32924e-06)
(-0.00010266 0.000166968 -1.20561e-20 0.000100154 7.06288e-20 2.50593e-06)
(-0.000108698 0.000119366 5.26009e-21 0.000104634 -6.34548e-20 4.06424e-06)
(-0.000104073 8.10064e-05 1.1335e-19 9.83161e-05 -7.97959e-20 5.7573e-06)
(-9.40452e-05 5.20542e-05 8.56305e-21 8.68706e-05 -1.25372e-20 7.17462e-06)
(-8.20395e-05 3.10428e-05 -1.26635e-20 7.36757e-05 5.23558e-20 8.36379e-06)
(-7.02286e-05 1.64114e-05 8.1135e-20 6.10085e-05 -9.58403e-20 9.22009e-06)
(-5.97403e-05 6.31469e-06 1.31938e-20 4.98981e-05 1.15876e-20 9.84218e-06)
(-5.10626e-05 -7.62429e-07 9.35633e-20 4.08713e-05 -6.54354e-21 1.01913e-05)
(-4.39373e-05 -6.08776e-06 1.00026e-19 3.34927e-05 2.24105e-20 1.04446e-05)
(-3.80777e-05 -1.0408e-05 2.55857e-19 2.74927e-05 -3.37975e-20 1.0585e-05)
(-3.29294e-05 -1.44532e-05 3.31048e-19 2.21556e-05 -5.00794e-20 1.07737e-05)
(-2.77599e-05 -1.86722e-05 1.96865e-19 1.66897e-05 1.70535e-20 1.10702e-05)
(-2.10892e-05 -2.26159e-05 4.53301e-20 9.23585e-06 -9.27043e-21 1.18533e-05)
(-1.29581e-05 -2.48038e-05 -4.86227e-20 -2.34577e-07 2.34837e-20 1.31927e-05)
(-4.80904e-06 -2.40849e-05 1.81522e-19 -9.43756e-06 -2.94962e-20 1.42466e-05)
(2.16952e-06 -2.25522e-05 -4.88551e-20 -1.80224e-05 -4.75359e-21 1.58529e-05)
(5.47538e-06 -1.38325e-05 -3.13946e-20 -1.76537e-05 6.47197e-22 1.21783e-05)
(5.62369e-05 -7.33798e-05 2.7616e-20 -0.000143676 -8.68424e-22 8.74387e-05)
(0.000481016 -0.000275628 -1.44017e-18 -0.00111255 -5.44895e-20 0.000631536)
(0.00145033 0.000425604 -8.65025e-18 -0.00322073 -7.86821e-20 0.00177039)
(0.00231358 0.00468906 -5.48357e-17 -0.00521488 -3.18043e-18 0.00290131)
(0.0018583 0.0154474 -1.34331e-16 -0.00506981 -4.43265e-18 0.00321151)
(-0.0006863 0.0342909 -3.34075e-16 -0.00190545 -2.28703e-17 0.00259175)
(-0.00552592 0.0608579 -8.55039e-16 0.00398054 -7.65531e-17 0.00154538)
(0.000278549 0.000174405 5.52694e-20 -0.000278829 -1.58031e-20 2.79876e-07)
(0.000208874 0.000222873 5.97609e-20 -0.000208618 -1.55036e-21 -2.56145e-07)
(0.000134091 0.000246333 -1.47488e-19 -0.000134121 -8.91342e-20 2.9923e-08)
(6.20828e-05 0.000246781 -8.05825e-20 -6.28875e-05 6.96673e-21 8.04675e-07)
(-4.81609e-07 0.000226456 1.33622e-19 -6.61475e-07 6.0301e-20 1.14308e-06)
(-4.60145e-05 0.000192083 6.23688e-20 4.50227e-05 -5.11785e-21 9.91789e-07)
(-7.36466e-05 0.000153527 7.38462e-20 7.31322e-05 -4.55935e-20 5.14408e-07)
(-8.69238e-05 0.000117332 -1.14039e-19 8.71757e-05 -7.47459e-20 -2.51862e-07)
(-9.02497e-05 8.6393e-05 -1.41383e-19 9.13693e-05 2.6689e-20 -1.1196e-06)
(-8.73193e-05 6.17587e-05 1.29049e-20 8.93386e-05 3.73722e-20 -2.01939e-06)
(-8.10776e-05 4.30063e-05 4.37228e-20 8.39014e-05 -1.30119e-20 -2.82387e-06)
(-7.35833e-05 2.93006e-05 -1.07379e-19 7.71376e-05 -8.50131e-21 -3.55423e-06)
(-6.6111e-05 1.94554e-05 -4.12428e-21 7.02675e-05 -1.70995e-20 -4.15646e-06)
(-5.93561e-05 1.23042e-05 -4.12363e-20 6.40056e-05 -8.0715e-21 -4.64949e-06)
(-5.34503e-05 6.79484e-06 8.66504e-20 5.8436e-05 -4.99181e-20 -4.9857e-06)
(-4.83435e-05 2.2499e-06 -9.43814e-20 5.35919e-05 -3.27922e-20 -5.24841e-06)
(-4.37598e-05 -1.90785e-06 -1.96269e-19 4.92024e-05 -2.3168e-20 -5.44264e-06)
(-3.92321e-05 -6.02088e-06 8.88899e-21 4.48497e-05 -2.97494e-20 -5.61761e-06)
(-3.40472e-05 -9.84475e-06 5.03137e-20 3.97791e-05 -2.86278e-20 -5.73185e-06)
(-2.84136e-05 -1.2248e-05 1.5248e-19 3.44236e-05 -1.06385e-20 -6.00997e-06)
(-2.34555e-05 -1.29978e-05 -1.4286e-19 3.00706e-05 -8.27343e-21 -6.61513e-06)
(-1.95444e-05 -1.28635e-05 -2.45766e-20 2.68443e-05 7.64381e-21 -7.29991e-06)
(-1.65195e-05 -1.23523e-05 1.47862e-20 2.44677e-05 1.29323e-21 -7.94826e-06)
(-1.3684e-05 -1.14347e-05 -6.83168e-21 2.18799e-05 -2.7464e-22 -8.19592e-06)
(-1.08696e-05 -1.02011e-05 -9.94623e-21 1.87108e-05 4.83166e-22 -7.8412e-06)
(-7.46386e-06 -8.18658e-06 -1.60131e-20 1.38331e-05 -8.46197e-22 -6.3692e-06)
(-4.21078e-06 -5.75736e-06 4.61074e-20 8.61728e-06 1.33049e-21 -4.4065e-06)
(-3.0336e-05 -5.73353e-05 2.01217e-18 7.7382e-05 1.30934e-19 -4.7046e-05)
(-6.16719e-07 -4.59161e-05 1.88052e-17 0.000110332 1.7489e-18 -0.000109715)
(0.000235729 0.00060006 7.85171e-17 -0.000134707 1.03422e-17 -0.000101022)
(0.000228057 0.000127523 -1.41948e-19 -0.000228065 7.28583e-20 8.48411e-09)
(0.00017833 0.000168591 1.98759e-19 -0.000178004 1.03191e-19 -3.25337e-07)
(0.000122699 0.000192328 -6.43113e-20 -0.00012258 -1.86802e-19 -1.19077e-07)
(6.67711e-05 0.00019883 -8.78173e-20 -6.69509e-05 2.49287e-20 1.79774e-07)
(1.59934e-05 0.000188953 -5.98842e-20 -1.63329e-05 -1.03991e-19 3.39577e-07)
(-2.36406e-05 0.000167061 2.09742e-20 2.33372e-05 3.1666e-20 3.03435e-07)
(-5.04749e-05 0.000139406 -3.93064e-20 5.01957e-05 -5.14047e-20 2.79222e-07)
(-6.58569e-05 0.000110987 -8.11803e-20 6.55264e-05 1.0921e-19 3.30485e-07)
(-7.23438e-05 8.47906e-05 8.61061e-20 7.18771e-05 5.05158e-20 4.66761e-07)
(-7.25481e-05 6.24351e-05 7.31689e-20 7.18744e-05 -3.36505e-20 6.73721e-07)
(-6.88982e-05 4.43326e-05 -1.50338e-20 6.79432e-05 -3.01135e-20 9.54976e-07)
(-6.32425e-05 3.0267e-05 4.36825e-20 6.19784e-05 9.72942e-21 1.26412e-06)
(-5.69267e-05 1.95705e-05 -6.47136e-20 5.53453e-05 1.65351e-20 1.58136e-06)
(-5.07691e-05 1.14598e-05 4.58169e-20 4.88921e-05 -1.20508e-21 1.87695e-06)
(-4.5112e-05 5.13603e-06 -6.03068e-20 4.29596e-05 -2.81628e-20 2.15232e-06)
(-4.00221e-05 -2.30001e-08 5.8181e-20 3.7644e-05 4.86267e-21 2.37815e-06)
(-3.53181e-05 -4.52336e-06 7.79908e-20 3.27491e-05 1.70601e-20 2.56901e-06)
(-3.06274e-05 -8.65394e-06 -5.44325e-21 2.79075e-05 7.15659e-21 2.71989e-06)
(-2.53523e-05 -1.22589e-05 -1.46136e-19 2.2432e-05 7.01084e-23 2.92032e-06)
(-1.95036e-05 -1.45491e-05 -5.43768e-20 1.63509e-05 -2.32193e-20 3.15276e-06)
(-1.39163e-05 -1.52711e-05 -1.60215e-20 1.05754e-05 2.46893e-20 3.34088e-06)
(-9.03127e-06 -1.50183e-05 5.92788e-20 5.38496e-06 7.35979e-22 3.64631e-06)
(-4.81579e-06 -1.41933e-05 2.1374e-21 7.45426e-07 -4.86844e-22 4.07036e-06)
(-1.23692e-06 -1.3132e-05 -3.3556e-21 -3.32324e-06 2.86602e-22 4.56015e-06)
(1.6363e-06 -1.12934e-05 3.75536e-20 -6.35336e-06 1.74121e-22 4.71706e-06)
(4.36923e-06 -1.18025e-05 3.32649e-20 -1.00256e-05 1.07552e-21 5.65632e-06)
(3.23021e-06 -5.83784e-06 -8.99589e-20 -6.13159e-06 -4.97867e-21 2.90139e-06)
(1.18618e-05 -1.72198e-05 -7.62864e-19 -1.98401e-05 -5.91689e-20 7.97826e-06)
(8.60297e-05 -0.000108038 -1.05725e-18 -0.000127926 -1.29058e-19 4.1896e-05)
(0.000243502 -0.000265466 2.05515e-18 -0.000322297 2.22798e-20 7.87953e-05)
(0.000215033 5.09688e-05 -2.8915e-20 -0.000215173 7.40053e-21 1.40367e-07)
(0.000188789 9.47594e-05 1.25271e-19 -0.000188613 8.92934e-20 -1.7565e-07)
(0.000152186 0.00012954 -7.85879e-20 -0.000151958 -1.3409e-19 -2.27214e-07)
(0.000109982 0.000151927 3.96256e-20 -0.000109929 6.61536e-20 -5.29333e-08)
(6.63323e-05 0.000161115 -4.54964e-20 -6.63964e-05 -9.55937e-21 6.41232e-08)
(2.54145e-05 0.000157496 -1.38157e-19 -2.56001e-05 -5.727e-21 1.85609e-07)
(-8.39882e-06 0.000143914 9.90115e-20 8.1891e-06 2.2203e-20 2.09713e-07)
(-3.32669e-05 0.000124487 -1.8835e-20 3.3072e-05 2.71138e-20 1.94898e-07)
(-4.95259e-05 0.000102905 5.65507e-20 4.9356e-05 4.46448e-20 1.69896e-07)
(-5.84929e-05 8.17608e-05 2.03888e-20 5.8398e-05 -5.09776e-20 9.48985e-08)
(-6.18067e-05 6.27385e-05 -1.53666e-20 6.18299e-05 -3.71259e-20 -2.31701e-08)
(-6.12904e-05 4.658e-05 -5.93969e-20 6.14513e-05 2.33885e-20 -1.60894e-07)
(-5.84059e-05 3.34659e-05 -7.22225e-20 5.87316e-05 3.37542e-20 -3.25682e-07)
(-5.4335e-05 2.31163e-05 2.96928e-20 5.48365e-05 -2.05971e-21 -5.01517e-07)
(-4.98785e-05 1.50325e-05 -1.20945e-20 5.0557e-05 -1.38772e-20 -6.78488e-07)
(-4.54782e-05 8.6102e-06 -6.11225e-20 4.6324e-05 -1.59687e-24 -8.45777e-07)
(-4.1289e-05 3.34082e-06 -6.86019e-20 4.22949e-05 -1.62067e-20 -1.00594e-06)
(-3.72447e-05 -1.22374e-06 -5.7948e-20 3.83916e-05 4.19473e-21 -1.14686e-06)
(-3.31017e-05 -5.35501e-06 6.15859e-20 3.43719e-05 -2.73438e-20 -1.27025e-06)
(-2.84754e-05 -8.96462e-06 -1.51443e-20 2.98273e-05 2.82865e-20 -1.35196e-06)
(-2.33963e-05 -1.14526e-05 -9.23457e-20 2.48273e-05 2.17876e-20 -1.43094e-06)
(-1.85375e-05 -1.25505e-05 1.23061e-19 2.01314e-05 -7.17756e-21 -1.59386e-06)
(-1.43671e-05 -1.26963e-05 9.78356e-21 1.61506e-05 -7.33182e-21 -1.7835e-06)
(-1.0934e-05 -1.23093e-05 1.79501e-21 1.29212e-05 -7.16199e-22 -1.98714e-06)
(-8.14046e-06 -1.15633e-05 4.46162e-21 1.03807e-05 1.00395e-22 -2.24019e-06)
(-5.93063e-06 -1.05763e-05 -4.5294e-20 8.4751e-06 -1.88976e-21 -2.54448e-06)
(-4.21822e-06 -9.42772e-06 -2.6162e-20 7.06309e-06 -2.73642e-21 -2.84487e-06)
(-2.80078e-06 -8.26434e-06 1.3278e-19 5.79663e-06 1.06297e-20 -2.99585e-06)
(-1.42255e-06 -6.75722e-06 9.9404e-20 4.20469e-06 6.99208e-21 -2.78214e-06)
(-1.56301e-07 -5.09584e-06 -7.72071e-20 2.41544e-06 -5.46872e-21 -2.25914e-06)
(6.78536e-07 -2.89295e-06 5.53925e-20 6.27908e-07 6.99255e-21 -1.30644e-06)
(0.000176721 3.60668e-05 -3.51074e-21 -0.000176813 -2.54029e-20 9.24711e-08)
(0.000157611 7.17123e-05 -4.23222e-20 -0.000157449 2.17709e-20 -1.62007e-07)
(0.000130246 0.000101162 4.8124e-20 -0.0001301 4.68565e-20 -1.46249e-07)
(9.77023e-05 0.000121486 1.12912e-19 -9.76821e-05 4.9547e-20 -2.01856e-08)
(6.32623e-05 0.000131596 7.706e-20 -6.32757e-05 -1.96717e-21 1.33807e-08)
(3.01694e-05 0.000131766 -2.18215e-20 -3.024e-05 1.92635e-20 7.06317e-08)
(1.62115e-06 0.000123786 -1.03854e-19 -1.70179e-06 -3.9018e-20 8.06365e-08)
(-2.06545e-05 0.000110378 7.31814e-20 2.05739e-05 5.02766e-20 8.06234e-08)
(-3.64923e-05 9.4198e-05 3.65425e-21 3.63955e-05 -5.72936e-20 9.67613e-08)
(-4.64655e-05 7.7322e-05 3.91479e-21 4.63637e-05 -2.612e-20 1.01826e-07)
(-5.15075e-05 6.12969e-05 -5.85317e-20 5.14098e-05 2.32422e-20 9.77535e-08)
(-5.29076e-05 4.69806e-05 3.36961e-20 5.27934e-05 3.58007e-20 1.14136e-07)
(-5.1767e-05 3.4791e-05 1.47758e-19 5.1626e-05 1.22799e-20 1.40998e-07)
(-4.90888e-05 2.47362e-05 -5.38557e-20 4.8907e-05 -8.97412e-22 1.81816e-07)
(-4.56298e-05 1.65726e-05 -1.11945e-20 4.53963e-05 -1.23535e-21 2.33501e-07)
(-4.18727e-05 9.90757e-06 -7.70759e-20 4.15736e-05 4.99533e-20 2.99082e-07)
(-3.80549e-05 4.36139e-06 -5.84839e-20 3.76868e-05 8.92412e-21 3.68084e-07)
(-3.42068e-05 -4.10158e-07 6.64251e-20 3.37703e-05 1.66167e-20 4.36555e-07)
(-3.01865e-05 -4.61954e-06 -1.54244e-19 2.96825e-05 1.63011e-20 5.03991e-07)
(-2.57306e-05 -8.21993e-06 5.17713e-20 2.51363e-05 4.78625e-22 5.94278e-07)
(-2.08522e-05 -1.07729e-05 1.02255e-19 2.01532e-05 1.53706e-21 6.99038e-07)
(-1.60746e-05 -1.20367e-05 -4.20845e-20 1.5315e-05 -1.16918e-20 7.5961e-07)
(-1.18188e-05 -1.23357e-05 -4.57346e-20 1.09964e-05 8.12598e-22 8.22408e-07)
(-8.15482e-06 -1.20369e-05 -1.09959e-20 7.22739e-06 6.25058e-22 9.27425e-07)
(-5.00825e-06 -1.13172e-05 -1.34647e-21 3.94224e-06 4.85323e-23 1.06601e-06)
(-2.34343e-06 -1.02825e-05 5.47333e-21 1.11647e-06 1.43791e-21 1.22696e-06)
(-1.23676e-07 -9.05821e-06 -7.11187e-20 -1.30476e-06 -2.2883e-21 1.42843e-06)
(1.65399e-06 -7.77207e-06 1.63104e-19 -3.27149e-06 5.44166e-21 1.6175e-06)
(3.00188e-06 -6.51959e-06 6.87999e-21 -4.72639e-06 -1.4634e-21 1.72451e-06)
(3.84457e-06 -5.13333e-06 1.06225e-19 -5.48551e-06 1.09468e-20 1.64094e-06)
(3.92391e-06 -3.53004e-06 4.92136e-20 -5.24491e-06 -1.5198e-21 1.321e-06)
(0.000146978 2.56468e-05 -1.2555e-21 -0.00014697 6.77501e-21 -8.61688e-09)
(0.000132698 5.50541e-05 -6.47949e-21 -0.000132563 -6.07372e-20 -1.34772e-07)
(0.000111819 8.00697e-05 -2.10902e-19 -0.00011174 -9.94762e-20 -7.93786e-08)
(8.63548e-05 9.82067e-05 4.64663e-20 -8.63401e-05 7.2986e-20 -1.47404e-08)
(5.89259e-05 0.000108328 -1.37508e-20 -5.89155e-05 4.96322e-21 -1.03329e-08)
(3.20368e-05 0.00011068 1.1163e-19 -3.20722e-05 3.81585e-20 3.54137e-08)
(8.07265e-06 0.000106382 -7.43306e-21 -8.116e-06 3.69425e-20 4.33456e-08)
(-1.15034e-05 9.72925e-05 4.72129e-20 1.14602e-05 -1.65768e-20 4.32614e-08)
(-2.63135e-05 8.5321e-05 -4.10192e-20 2.62513e-05 1.34005e-20 6.22233e-08)
(-3.65348e-05 7.20645e-05 -7.50528e-20 3.64685e-05 2.17156e-20 6.63151e-08)
(-4.26502e-05 5.8827e-05 1.98036e-20 4.26007e-05 9.9089e-21 4.95028e-08)
(-4.55201e-05 4.64588e-05 3.26947e-20 4.54853e-05 -1.33487e-20 3.47585e-08)
(-4.59299e-05 3.54718e-05 3.07434e-20 4.59179e-05 -5.87665e-20 1.19916e-08)
(-4.46759e-05 2.60504e-05 4.30881e-20 4.46951e-05 1.51164e-20 -1.91932e-08)
(-4.24022e-05 1.81523e-05 -3.95914e-20 4.24591e-05 2.23278e-20 -5.69282e-08)
(-3.95763e-05 1.15506e-05 1.47428e-19 3.96731e-05 6.442e-21 -9.67911e-08)
(-3.64615e-05 5.98197e-06 -3.46561e-20 3.65981e-05 2.05322e-20 -1.36653e-07)
(-3.31484e-05 1.1839e-06 6.84369e-20 3.33258e-05 -2.68784e-20 -1.77384e-07)
(-2.95756e-05 -3.01131e-06 1.05067e-19 2.97916e-05 6.70194e-21 -2.16038e-07)
(-2.55866e-05 -6.58326e-06 2.09592e-21 2.5825e-05 -2.36406e-20 -2.38388e-07)
(-2.12149e-05 -9.21176e-06 -2.88727e-20 2.14673e-05 -1.8882e-20 -2.52476e-07)
(-1.68774e-05 -1.06815e-05 -2.64465e-20 1.71821e-05 4.01122e-21 -3.04682e-07)
(-1.29601e-05 -1.12167e-05 5.34473e-21 1.33342e-05 3.48313e-22 -3.74095e-07)
(-9.57551e-06 -1.11412e-05 1.10728e-20 1.00055e-05 5.17326e-22 -4.29988e-07)
(-6.69586e-06 -1.06361e-05 4.5134e-21 7.18314e-06 -8.18307e-23 -4.87275e-07)
(-4.30693e-06 -9.81559e-06 1.27289e-20 4.87183e-06 2.98063e-22 -5.64897e-07)
(-2.40142e-06 -8.80662e-06 5.01654e-20 3.06971e-06 4.61306e-21 -6.68286e-07)
(-9.22394e-07 -7.71307e-06 -2.85778e-19 1.70962e-06 -2.07488e-20 -7.87226e-07)
(2.41984e-07 -6.61017e-06 -1.14027e-19 6.3973e-07 -4.62454e-21 -8.81714e-07)
(1.21835e-06 -5.52602e-06 -6.30043e-21 -2.83462e-07 -1.18974e-20 -9.34884e-07)
(2.12089e-06 -4.55224e-06 -1.58095e-19 -1.18618e-06 -1.84284e-20 -9.34711e-07)
(0.000128036 -7.55632e-06 -8.53641e-20 -0.000128038 -6.51039e-20 1.92292e-09)
(0.000123359 1.82453e-05 -4.90587e-20 -0.000123321 -3.49709e-20 -3.80922e-08)
(0.000112568 4.27565e-05 -1.24391e-20 -0.000112467 -3.21324e-21 -1.01234e-07)
(9.63453e-05 6.4118e-05 3.07418e-20 -9.63175e-05 7.87621e-20 -2.78254e-08)
(7.61728e-05 8.01534e-05 6.98337e-20 -7.61593e-05 4.50901e-20 -1.34758e-08)
(5.41329e-05 8.98316e-05 4.95481e-20 -5.41145e-05 -3.23383e-20 -1.84738e-08)
(3.21339e-05 9.33775e-05 -6.7512e-20 -3.21489e-05 -4.20148e-20 1.50441e-08)
(1.20278e-05 9.15019e-05 1.41179e-19 -1.20457e-05 6.27437e-21 1.78544e-08)
(-4.97455e-06 8.54925e-05 -2.06091e-20 4.9593e-06 -6.33141e-20 1.52453e-08)
(-1.84642e-05 7.67364e-05 1.2044e-19 1.84336e-05 2.58465e-20 3.05287e-08)
(-2.84029e-05 6.64403e-05 9.27501e-20 2.83629e-05 1.28625e-20 3.99774e-08)
(-3.49895e-05 5.56545e-05 -4.41337e-20 3.4954e-05 -1.84424e-20 3.54491e-08)
(-3.8774e-05 4.51286e-05 7.56218e-21 3.87365e-05 -2.06597e-20 3.75604e-08)
(-4.02818e-05 3.5395e-05 -1.13316e-19 4.0247e-05 5.20103e-21 3.48181e-08)
(-4.01053e-05 2.67247e-05 -1.76983e-20 4.00722e-05 -1.35588e-20 3.31201e-08)
(-3.87661e-05 1.91987e-05 7.92824e-20 3.87334e-05 4.0556e-21 3.27274e-08)
(-3.66801e-05 1.27381e-05 1.58573e-21 3.66442e-05 -2.22589e-20 3.59413e-08)
(-3.41179e-05 7.19209e-06 6.91599e-20 3.40762e-05 1.30558e-20 4.16728e-08)
(-3.12099e-05 2.37797e-06 -7.76839e-20 3.11596e-05 -1.30815e-20 5.02821e-08)
(-2.7955e-05 -1.81686e-06 -5.92304e-20 2.78903e-05 -1.31192e-20 6.46937e-08)
(-2.42791e-05 -5.37557e-06 -1.17423e-19 2.41879e-05 3.82883e-21 9.12824e-08)
(-2.02314e-05 -8.06223e-06 -8.83941e-20 2.0103e-05 1.35842e-20 1.28381e-07)
(-1.61415e-05 -9.68684e-06 -9.49344e-21 1.59936e-05 2.09825e-21 1.4787e-07)
(-1.23575e-05 -1.04017e-05 -3.36314e-20 1.22017e-05 1.49294e-21 1.55824e-07)
(-9.01556e-06 -1.04809e-05 -1.12623e-21 8.83503e-06 -7.97722e-22 1.80529e-07)
(-6.11427e-06 -1.01009e-05 -4.2749e-21 5.89613e-06 -3.93807e-22 2.18134e-07)
(-3.64824e-06 -9.37419e-06 -1.60368e-21 3.39112e-06 -7.90882e-22 2.57113e-07)
(-1.60817e-06 -8.4186e-06 3.52303e-20 1.30622e-06 -1.71377e-22 3.01942e-07)
(5.24564e-08 -7.3473e-06 5.20047e-22 -4.14672e-07 8.75142e-22 3.62216e-07)
(1.37199e-06 -6.24124e-06 2.31422e-19 -1.78484e-06 2.09483e-20 4.12844e-07)
(2.44343e-06 -5.15246e-06 -3.69171e-19 -2.88258e-06 -2.59058e-20 4.39145e-07)
(3.33239e-06 -4.0938e-06 2.05361e-20 -3.78704e-06 1.73616e-20 4.54657e-07)
(0.000104357 1.29174e-05 -1.5222e-19 -0.000104307 -1.55361e-20 -4.973e-08)
(9.61105e-05 3.35437e-05 2.17911e-19 -9.60361e-05 1.7296e-19 -7.44017e-08)
(8.3316e-05 5.18631e-05 1.34053e-19 -8.33151e-05 1.90281e-20 -8.80743e-10)
(6.71501e-05 6.59688e-05 9.64959e-20 -6.71424e-05 -1.86881e-20 -7.78828e-09)
(4.9283e-05 7.50009e-05 -1.51627e-19 -4.92619e-05 -6.75896e-20 -2.10184e-08)
(3.11696e-05 7.91281e-05 -9.45279e-20 -3.11773e-05 -1.80969e-20 7.67389e-09)
(1.42837e-05 7.88172e-05 -1.91309e-19 -1.4288e-05 -6.14869e-20 4.32536e-09)
(-3.87796e-07 7.49907e-05 -1.96434e-19 3.83957e-07 1.03188e-20 3.83918e-09)
(-1.24587e-05 6.86654e-05 -9.57221e-20 1.24408e-05 -3.19559e-20 1.79687e-08)
(-2.18103e-05 6.07416e-05 2.90219e-20 2.17832e-05 1.97136e-21 2.71162e-08)
(-2.84784e-05 5.20482e-05 -1.79475e-20 2.84551e-05 4.6509e-21 2.32496e-08)
(-3.27926e-05 4.32186e-05 -5.04031e-20 3.27657e-05 2.04818e-20 2.69185e-08)
(-3.50868e-05 3.47326e-05 5.56406e-20 3.5064e-05 1.12398e-20 2.27663e-08)
(-3.57816e-05 2.69026e-05 -6.79603e-20 3.57661e-05 -1.89689e-20 1.55172e-08)
(-3.52683e-05 1.98906e-05 -7.33071e-21 3.52615e-05 -1.70682e-20 6.89126e-09)
(-3.39026e-05 1.37032e-05 2.16181e-20 3.39051e-05 -1.58758e-20 -2.48654e-09)
(-3.19312e-05 8.28667e-06 6.65121e-20 3.19438e-05 -2.86621e-20 -1.26315e-08)
(-2.94988e-05 3.54007e-06 -2.8241e-20 2.95213e-05 1.36743e-21 -2.2574e-08)
(-2.66483e-05 -6.02873e-07 -1.63402e-20 2.66787e-05 3.15053e-20 -3.03572e-08)
(-2.33672e-05 -4.12668e-06 -1.77904e-20 2.34004e-05 2.93026e-20 -3.32259e-08)
(-1.97179e-05 -6.84768e-06 6.54715e-20 1.97464e-05 8.92602e-21 -2.84317e-08)
(-1.5974e-05 -8.60395e-06 -7.93976e-22 1.60114e-05 8.25987e-21 -3.73763e-08)
(-1.24449e-05 -9.49564e-06 2.24299e-20 1.25057e-05 3.58815e-21 -6.08507e-08)
(-9.28414e-06 -9.74674e-06 -2.98168e-21 9.36269e-06 3.78491e-22 -7.85578e-08)
(-6.51872e-06 -9.52586e-06 -2.39947e-21 6.60944e-06 9.03749e-23 -9.07223e-08)
(-4.15827e-06 -8.9456e-06 -8.68859e-21 4.26675e-06 -3.3156e-22 -1.08474e-07)
(-2.20651e-06 -8.12187e-06 -3.66502e-20 2.33931e-06 -2.06181e-21 -1.32797e-07)
(-6.35816e-07 -7.16429e-06 -9.84583e-20 7.99356e-07 -6.13055e-21 -1.63541e-07)
(6.19196e-07 -6.1474e-06 6.70787e-21 -4.29155e-07 -1.47918e-21 -1.90041e-07)
(1.65913e-06 -5.12826e-06 3.33906e-19 -1.44677e-06 4.42462e-20 -2.12356e-07)
(2.54498e-06 -4.09771e-06 2.41275e-19 -2.33593e-06 6.72998e-21 -2.09057e-07)
(8.25151e-05 2.6536e-05 -2.01204e-19 -8.24664e-05 -1.13063e-19 -4.87172e-08)
(7.23108e-05 4.2305e-05 -1.53395e-19 -7.23229e-05 -2.67811e-20 1.20623e-08)
(5.92147e-05 5.4704e-05 1.14163e-19 -5.92118e-05 9.39444e-20 -2.86079e-09)
(4.46063e-05 6.30062e-05 1.87081e-19 -4.45849e-05 4.45855e-20 -2.13826e-08)
(2.96005e-05 6.73439e-05 3.11094e-20 -2.96039e-05 -2.80848e-21 3.33433e-09)
(1.53901e-05 6.80217e-05 1.39418e-19 -1.53917e-05 9.54704e-20 1.59711e-09)
(2.76899e-06 6.57269e-05 1.80659e-19 -2.76596e-06 7.26654e-20 -3.02428e-09)
(-7.92266e-06 6.12202e-05 -6.50249e-20 7.9163e-06 -1.99032e-20 6.35743e-09)
(-1.65273e-05 5.51806e-05 3.92586e-20 1.65121e-05 1.83717e-22 1.51782e-08)
(-2.3001e-05 4.82427e-05 -1.34603e-20 2.29868e-05 6.38325e-21 1.42213e-08)
(-2.75468e-05 4.09134e-05 9.93047e-20 2.7529e-05 5.39847e-21 1.7837e-08)
(-3.03436e-05 3.36164e-05 -3.60024e-20 3.03266e-05 -7.2885e-22 1.6935e-08)
(-3.16771e-05 2.66497e-05 -9.60781e-20 3.1661e-05 3.70235e-20 1.60252e-08)
(-3.18301e-05 2.02125e-05 -3.61248e-20 3.18184e-05 3.355e-21 1.17193e-08)
(-3.10777e-05 1.43844e-05 -8.42688e-20 3.10697e-05 1.36797e-20 7.97043e-09)
(-2.96324e-05 9.17693e-06 -8.98205e-20 2.96268e-05 -1.35257e-21 5.59729e-09)
(-2.76406e-05 4.55092e-06 -9.73757e-20 2.76361e-05 1.90259e-20 4.51256e-09)
(-2.51701e-05 4.83102e-07 1.58366e-19 2.5164e-05 -1.61921e-20 6.04054e-09)
(-2.22461e-05 -2.99376e-06 1.23416e-19 2.22339e-05 -3.88923e-21 1.22633e-08)
(-1.89464e-05 -5.732e-06 2.09762e-20 1.89214e-05 -1.4542e-20 2.50622e-08)
(-1.55015e-05 -7.5934e-06 8.16434e-20 1.54701e-05 -8.81447e-21 3.1341e-08)
(-1.21834e-05 -8.63397e-06 1.86862e-20 1.21561e-05 -4.64148e-21 2.72303e-08)
(-9.15411e-06 -9.03415e-06 5.46782e-21 9.12553e-06 9.78296e-22 2.85791e-08)
(-6.46311e-06 -8.94844e-06 -4.04947e-22 6.42511e-06 3.46888e-22 3.80002e-08)
(-4.13266e-06 -8.48685e-06 -5.17802e-22 4.08491e-06 4.79766e-22 4.77458e-08)
(-2.17495e-06 -7.75883e-06 1.83469e-20 2.11838e-06 1.96084e-21 5.65688e-08)
(-5.66462e-07 -6.87215e-06 2.62984e-20 4.96693e-07 3.65551e-21 6.97692e-08)
(7.33218e-07 -5.90538e-06 5.34307e-20 -8.14981e-07 4.04631e-21 8.17632e-08)
(1.80709e-06 -4.91665e-06 1.19363e-19 -1.89052e-06 -4.0038e-21 8.34342e-08)
(2.70773e-06 -3.89999e-06 -4.25299e-19 -2.79854e-06 -5.48836e-20 9.08055e-08)
(6.29661e-05 3.47688e-05 4.93411e-20 -6.29822e-05 2.69394e-20 1.61447e-08)
(5.22638e-05 4.56677e-05 7.03427e-20 -5.2261e-05 -3.91369e-20 -2.79763e-09)
(4.0222e-05 5.3225e-05 -2.39971e-19 -4.02054e-05 -1.26555e-19 -1.65591e-08)
(2.77183e-05 5.75409e-05 -1.96774e-19 -2.77187e-05 -1.98247e-21 3.90629e-10)
(1.5712e-05 5.88303e-05 3.61794e-20 -1.57091e-05 -3.65835e-21 -2.9077e-09)
(4.87115e-06 5.76051e-05 1.68655e-19 -4.86357e-06 -2.83842e-20 -7.58023e-09)
(-4.52174e-06 5.44514e-05 -4.66901e-20 4.51925e-06 1.11356e-20 2.48917e-09)
(-1.23218e-05 4.988e-05 -2.66957e-20 1.23118e-05 -2.30788e-21 1.00131e-08)
(-1.84439e-05 4.43824e-05 -6.72985e-21 1.8438e-05 -1.13721e-20 5.89753e-09)
(-2.29997e-05 3.83597e-05 -3.47738e-20 2.29882e-05 -8.73592e-22 1.1516e-08)
(-2.60783e-05 3.21558e-05 7.51428e-20 2.60672e-05 9.85995e-21 1.10874e-08)
(-2.78624e-05 2.60411e-05 1.48027e-19 2.78522e-05 3.73666e-20 1.02398e-08)
(-2.85369e-05 2.0221e-05 2.27716e-20 2.85282e-05 1.10519e-20 8.76333e-09)
(-2.83092e-05 1.48121e-05 1.05085e-19 2.8303e-05 1.22372e-20 6.18356e-09)
(-2.73491e-05 9.87822e-06 4.5354e-20 2.73472e-05 1.361e-20 1.8741e-09)
(-2.57894e-05 5.42775e-06 7.44916e-20 2.57925e-05 5.25275e-21 -3.0821e-09)
(-2.37051e-05 1.4759e-06 -1.04582e-19 2.37106e-05 -2.00824e-20 -5.44529e-09)
(-2.11463e-05 -1.93274e-06 -1.64833e-20 2.11494e-05 -2.66938e-20 -3.11188e-09)
(-1.82026e-05 -4.66855e-06 -6.27074e-20 1.82005e-05 -5.17908e-22 2.12131e-09)
(-1.50717e-05 -6.60745e-06 -8.77705e-20 1.50686e-05 -7.65488e-22 3.08486e-09)
(-1.19936e-05 -7.7782e-06 -4.02266e-20 1.19985e-05 -1.35177e-21 -4.86807e-09)
(-9.13347e-06 -8.31913e-06 9.34704e-21 9.14499e-06 -9.37463e-22 -1.15192e-08)
(-6.55972e-06 -8.36923e-06 4.6169e-21 6.57304e-06 -1.86584e-22 -1.33155e-08)
(-4.3077e-06 -8.03418e-06 4.61543e-21 4.32402e-06 1.22569e-21 -1.63259e-08)
(-2.3981e-06 -7.41762e-06 -5.61838e-22 2.42029e-06 -1.12433e-21 -2.21862e-08)
(-8.20424e-07 -6.62367e-06 -6.17205e-21 8.49826e-07 2.59873e-21 -2.9402e-08)
(4.64209e-07 -5.72841e-06 -6.87256e-21 -4.28172e-07 -1.02008e-20 -3.60367e-08)
(1.53469e-06 -4.78768e-06 -2.08032e-19 -1.48898e-06 -9.95561e-21 -4.57161e-08)
(2.44392e-06 -3.79954e-06 2.00772e-20 -2.40404e-06 2.68753e-20 -3.98757e-08)
(4.61826e-05 3.83469e-05 -2.71106e-19 -4.6181e-05 -1.17575e-19 -1.5581e-09)
(3.61803e-05 4.51883e-05 5.70801e-20 -3.61655e-05 8.29383e-20 -1.48164e-08)
(2.5701e-05 4.93517e-05 1.46293e-19 -2.57016e-05 2.53725e-20 6.29854e-10)
(1.55278e-05 5.09929e-05 -1.77349e-19 -1.5526e-05 -7.45204e-20 -1.76317e-09)
(6.2173e-06 5.05043e-05 -1.75986e-19 -6.21111e-06 -1.81166e-20 -6.18941e-09)
(-2.00454e-06 4.83487e-05 1.00329e-19 2.00523e-06 2.46667e-20 -6.88253e-10)
(-9.00184e-06 4.49207e-05 5.28146e-20 8.99721e-06 -1.15161e-21 4.62346e-09)
(-1.46748e-05 4.05927e-05 -9.01239e-20 1.46719e-05 -4.92576e-21 2.94997e-09)
(-1.90952e-05 3.5676e-05 7.82381e-20 1.90882e-05 3.50574e-21 6.96997e-09)
(-2.22864e-05 3.0451e-05 -5.51893e-20 2.22789e-05 -2.65512e-20 7.50434e-09)
(-2.43557e-05 2.51491e-05 1.33194e-19 2.43475e-05 -2.6244e-20 8.16507e-09)
(-2.54196e-05 1.99587e-05 5.46464e-20 2.54122e-05 -9.76593e-21 7.34887e-09)
(-2.56209e-05 1.5008e-05 -6.30879e-21 2.56151e-05 -2.195e-20 5.807e-09)
(-2.50843e-05 1.03923e-05 2.05736e-20 2.50812e-05 -9.46324e-21 3.14672e-09)
(-2.39196e-05 6.15896e-06 -2.01948e-20 2.39187e-05 -1.33388e-20 8.44082e-10)
(-2.22013e-05 2.3548e-06 -6.18005e-21 2.22009e-05 1.41546e-20 4.05852e-10)
(-1.9993e-05 -9.61503e-07 -1.27509e-19 1.99906e-05 1.47106e-20 2.48738e-09)
(-1.7387e-05 -3.67443e-06 9.94086e-22 1.73794e-05 8.53369e-21 7.61382e-09)
(-1.45565e-05 -5.6674e-06 6.06708e-20 1.45455e-05 9.5443e-21 1.09118e-08)
(-1.17129e-05 -6.94474e-06 8.57393e-22 1.1705e-05 4.17887e-21 7.85843e-09)
(-9.01897e-06 -7.61052e-06 -1.12094e-20 9.01376e-06 -2.76329e-22 5.21376e-09)
(-6.55745e-06 -7.78483e-06 -6.23443e-21 6.55082e-06 -2.5183e-22 6.63189e-09)
(-4.37465e-06 -7.5664e-06 1.98774e-20 4.36586e-06 -7.42153e-23 8.79102e-09)
(-2.49948e-06 -7.05204e-06 -1.35294e-20 2.48978e-06 -1.40295e-21 9.70078e-09)
(-9.2991e-07 -6.34122e-06 9.90767e-20 9.18526e-07 1.24913e-20 1.13846e-08)