/*--------------------------------*- C++ -*----------------------------------*\
| =========                 |                                                 |
| \\      /  F ield         | OpenFOAM: The Open Source CFD Toolbox           |
|  \\    /   O peration     | Version:  2306                                  |
|   \\  /    A nd           | Website:  www.openfoam.com                      |
|    \\/     M anipulation  |                                                 |
\*---------------------------------------------------------------------------*/
FoamFile
{
    version     2.0;
    format      ascii;
    arch        "LSB;label=32;scalar=64";
    class       volVectorField;
    location    "425";
    object      U;
}
// * * * * * * * * * * * * * * * * * * * * * * * * * * * * * * * * * * * * * //

dimensions      [0 1 -1 0 0 0 0];

internalField   nonuniform List<vector> 
1340
(
(1.36442 2.18878 5.48267e-15)
(3.3227 -0.13955 -1.645e-15)
(5.55304 -2.15992 5.08787e-16)
(7.84881 -3.66178 1.74118e-15)
(9.96514 -4.62796 2.6223e-15)
(11.8356 -5.18648 8.17034e-16)
(13.4723 -5.46194 -1.38869e-15)
(14.9001 -5.55118 -1.24463e-15)
(16.1499 -5.51723 6.67131e-16)
(17.2526 -5.4077 2.5056e-16)
(18.2406 -5.2515 8.37575e-16)
(19.145 -5.06815 -6.87904e-16)
(19.9876 -4.86041 -1.35718e-16)
(20.7866 -4.6298 -5.97331e-16)
(21.5528 -4.36685 2.95511e-16)
(22.2875 -4.05759 8.09202e-16)
(22.9598 -3.67699 -2.71813e-16)
(23.5021 -3.22513 -3.03574e-16)
(23.897 -2.74548 -2.94815e-16)
(24.175 -2.27773 -8.4048e-18)
(24.3721 -1.77844 9.25956e-18)
(24.5037 -1.18113 1.23701e-19)
(24.5699 -0.513059 -3.41363e-18)
(24.5504 0.159842 7.46711e-17)
(24.4305 0.789602 5.57341e-17)
(24.2114 1.3536 1.25386e-16)
(23.9018 1.84542 3.63918e-16)
(23.5017 2.26734 9.76369e-18)
(2.40265 6.03979 -2.72086e-15)
(3.58771 3.43887 -4.60251e-15)
(5.08028 1.14184 3.07484e-15)
(6.84374 -0.758235 -1.62471e-15)
(8.73747 -2.12441 2.21164e-16)
(10.5866 -3.01234 -5.08469e-16)
(12.3097 -3.54996 2.78653e-17)
(13.8829 -3.83702 1.49371e-16)
(15.3008 -3.95452 5.00022e-16)
(16.5749 -3.95473 -9.10415e-16)
(17.7215 -3.88207 9.77872e-16)
(18.7646 -3.76161 -2.29133e-16)
(19.7282 -3.6112 -4.23717e-16)
(20.6353 -3.42809 -2.94983e-16)
(21.5012 -3.20995 -6.66833e-16)
(22.3383 -2.93941 -7.29364e-16)
(23.1483 -2.59509 -7.90762e-16)
(23.9088 -2.13663 3.15246e-16)
(24.5677 -1.57144 -2.11975e-17)
(25.099 -0.963323 1.34856e-16)
(25.5135 -0.336453 9.9363e-17)
(25.8055 0.27377 5.90543e-18)
(25.967 0.821307 -1.18736e-19)
(26.0005 1.28865 2.20389e-18)
(25.935 1.684 -4.2831e-17)
(25.7971 2.03013 -1.90084e-17)
(25.5971 2.3467 -1.76895e-16)
(25.3362 2.64221 -1.28574e-16)
(25.0049 2.92011 -2.58304e-17)
(4.92875 6.75359 1.24971e-15)
(5.69824 4.40204 1.86471e-15)
(6.78419 2.29669 1.61156e-15)
(8.13894 0.507243 -1.39258e-15)
(9.63651 -0.905589 -1.02371e-15)
(11.1564 -1.96301 2.63522e-16)
(12.6271 -2.72629 9.917e-16)
(14.0131 -3.25345 1.40283e-15)
(15.2976 -3.59509 -2.76235e-16)
(16.4787 -3.7945 -3.25745e-17)
(17.5627 -3.88966 9.48137e-16)
(18.5631 -3.90677 1.80342e-17)
(19.497 -3.86401 7.18347e-16)
(20.3814 -3.76665 6.41893e-16)
(21.2291 -3.6168 1.49357e-15)
(22.0489 -3.40625 1.55607e-15)
(22.8409 -3.12155 6.87044e-16)
(23.5858 -2.7423 1.34654e-16)
(24.2405 -2.28355 -1.24782e-16)
(24.7807 -1.79447 3.59525e-16)
(25.2165 -1.29722 -6.97839e-17)
(25.5617 -0.796782 -3.84929e-17)
(25.8216 -0.289634 2.7218e-18)
(25.9965 0.226062 3.64362e-19)
(26.0885 0.75003 1.64399e-17)
(26.0991 1.2719 3.98126e-17)
(26.028 1.7735 5.6579e-17)
(25.8751 2.23925 1.60157e-17)
(25.6309 2.66169 -1.9207e-16)
(6.83597 9.3807 7.95862e-16)
(7.03836 7.15954 -9.87521e-16)
(7.54196 5.05824 1.19223e-17)
(8.32465 3.13443 3.43403e-16)
(9.35357 1.45262 2.38277e-15)
(10.5377 0.066029 1.75325e-16)
(11.7926 -1.01957 6.77824e-16)
(13.0582 -1.83598 -1.85335e-15)
(14.2937 -2.42409 -1.14695e-15)
(15.4739 -2.82326 3.4468e-16)
(16.5866 -3.07257 1.98567e-16)
(17.6289 -3.20614 -9.5281e-16)
(18.6051 -3.25103 9.43224e-17)
(19.525 -3.22692 -2.30267e-16)
(20.3999 -3.14325 5.9828e-16)
(21.2393 -3.00324 -6.30137e-16)
(22.0491 -2.80141 -9.16664e-16)
(22.8287 -2.52653 1.14682e-16)
(23.5615 -2.16106 2.2466e-16)
(24.2117 -1.71068 4.3646e-16)
(24.7554 -1.21289 -3.19581e-16)
(25.1975 -0.69076 -4.04892e-17)
(25.549 -0.155344 1.39243e-17)
(25.8149 0.382868 -4.18089e-18)
(25.9979 0.908834 -2.53674e-18)
(26.1032 1.40673 3.72565e-18)
(26.1373 1.86089 -8.6735e-18)
(26.1041 2.26812 -8.03669e-18)
(26.0052 2.63151 2.09652e-17)
(25.831 2.95774 1.99222e-16)
(8.76624 9.35139 -1.15389e-15)
(8.83377 7.39032 3.56815e-15)
(9.15435 5.5043 -2.81213e-15)
(9.71853 3.75574 -1.11536e-17)
(10.5023 2.19691 3.554e-17)
(11.4407 0.868526 -3.5014e-16)
(12.471 -0.216337 -5.13727e-16)
(13.5452 -1.07518 -1.03629e-15)
(14.6254 -1.73503 1.26899e-15)
(15.6841 -2.22166 5.40885e-16)
(16.7052 -2.56474 -1.13598e-16)
(17.6806 -2.79059 2.87751e-16)
(18.6082 -2.92145 -5.25889e-16)
(19.4922 -2.974 3.54804e-16)
(20.3393 -2.95804 -3.43153e-16)
(21.1556 -2.87699 3.86278e-16)
(21.9449 -2.72765 3.54808e-16)
(22.7052 -2.50189 -6.26405e-17)
(23.4217 -2.18892 -5.2909e-16)
(24.0639 -1.79482 -1.31486e-16)
(24.6086 -1.35144 -4.53574e-17)
(25.0564 -0.88403 1.09783e-16)
(25.4161 -0.405349 1.21351e-18)
(25.6917 0.0752285 -3.11543e-18)
(25.8851 0.547582 1.95157e-17)
(26.0001 1.0035 8.5912e-18)
(26.0419 1.44299 -3.93364e-18)
(26.0147 1.86613 5.6422e-18)
(25.9218 2.26939 6.91055e-18)
(25.7576 2.64969 3.31942e-17)
(10.644 10.9597 -5.55115e-16)
(10.3999 9.24905 1.10167e-15)
(10.3732 7.50027 -9.85793e-16)
(10.5651 5.80007 -8.66023e-16)
(10.9701 4.2107 -9.55903e-16)
(11.5678 2.7712 -9.56734e-16)
(12.3122 1.51454 1.47025e-15)
(13.1562 0.457811 -7.14316e-16)
(14.0634 -0.407418 7.96162e-16)
(15.0016 -1.09774 1.52567e-16)
(15.945 -1.62896 -2.39961e-16)
(16.8762 -2.02233 -6.69018e-16)
(17.7842 -2.2978 -5.28995e-16)
(18.6627 -2.47364 2.909e-16)
(19.5108 -2.56455 -1.29497e-16)
(20.331 -2.58038 -3.94683e-16)
(21.1259 -2.52571 -3.48826e-16)
(21.8966 -2.39966 -2.48027e-16)
(22.6398 -2.19656 3.10335e-16)
(23.3417 -1.90896 -1.02686e-16)
(23.9761 -1.54127 -2.94843e-16)
(24.5208 -1.1188 3.28822e-16)
(24.973 -0.664953 2.20525e-17)
(25.3388 -0.192138 2.18066e-18)
(25.6213 0.290654 4.27139e-18)
(25.8222 0.772908 -2.63189e-17)
(25.9447 1.24529 -4.03261e-18)
(25.9938 1.69806 1.21776e-17)
(25.9733 2.12131 -5.33434e-18)
(25.8861 2.509 -2.1252e-17)
(25.7266 2.85955 8.90378e-17)
(12.0724 10.6324 -2.65681e-16)
(11.7992 9.10498 1.1745e-16)
(11.7087 7.53176 1.17133e-15)
(11.8083 5.99134 8.67973e-16)
(12.095 4.54394 3.71305e-16)
(12.5513 3.2176 -9.53252e-16)
(13.1432 2.03936 -4.59991e-16)
(13.8349 1.02659 7.47801e-16)
(14.5985 0.174555 8.08987e-17)
(15.4083 -0.52718 -3.10976e-17)
(16.2414 -1.08799 -5.43312e-16)
(17.0817 -1.52286 4.44802e-16)
(17.9172 -1.8462 9.94292e-16)
(18.7389 -2.07167 -5.59118e-16)
(19.543 -2.21084 -6.36306e-17)
(20.3284 -2.27223 -5.74026e-16)
(21.0949 -2.25989 -2.90155e-16)
(21.8413 -2.17375 3.04522e-16)
(22.5631 -2.00988 -7.26867e-16)
(23.2474 -1.76357 2.51315e-16)
(23.8712 -1.43908 3.35617e-16)
(24.4131 -1.05727 -1.13909e-16)
(24.8679 -0.640094 -9.69812e-17)
(25.2389 -0.200993 -1.88843e-17)
(25.5288 0.249871 -1.3653e-18)
(25.7385 0.7013 1.91752e-18)
(25.8708 1.14251 -3.97846e-17)
(25.93 1.56551 6.92481e-17)
(25.9195 1.96678 -7.03332e-18)
(25.8417 2.34277 6.28699e-17)
(25.6907 2.692 7.57959e-17)
(13.3039 10.3121 -3.24756e-18)
(13.0123 8.93628 -1.87338e-16)
(12.8778 7.51062 -1.97368e-15)
(12.9103 6.1086 7.97199e-16)
(13.1079 4.78659 -1.15075e-16)
(13.4558 3.56428 1.03492e-15)
(13.9274 2.46461 -5.7273e-16)
(14.4947 1.50386 5.34908e-16)
(15.1365 0.678668 -7.77632e-16)
(15.8326 -0.0178875 -5.96437e-16)
(16.5639 -0.590795 3.09768e-16)
(17.3167 -1.05034 3.35084e-16)
(18.0793 -1.40597 3.36381e-16)
(18.842 -1.66704 1.97802e-16)
(19.5989 -1.84204 -2.32212e-16)
(20.3465 -1.93775 9.28452e-16)
(21.0821 -1.95757 -2.70922e-16)
(21.8026 -1.9019 4.35132e-16)
(22.5022 -1.76802 4.53144e-16)
(23.1686 -1.55318 -1.63619e-18)
(23.7808 -1.26129 -8.82279e-17)
(24.3185 -0.909136 -6.98842e-17)
(24.7744 -0.516718 1.51973e-17)
(25.1495 -0.0976469 1.99062e-17)
(25.4453 0.337751 6.49641e-18)
(25.6624 0.77852 1.16104e-17)
(25.8026 1.21416 2.723e-17)
(25.8697 1.63647 -1.33561e-16)
(25.8665 2.03745 -6.92421e-17)
(25.7955 2.41089 1.23344e-17)
(25.6507 2.75341 -1.52751e-16)
(14.7938 11.1733 -4.67413e-16)
(14.377 10.0023 -2.8457e-16)
(14.0746 8.75404 -6.76245e-16)
(13.9097 7.45411 -1.69555e-16)
(13.8931 6.17254 8.67457e-16)
(14.0229 4.96108 6.57966e-16)
(14.2869 3.83382 -1.8951e-16)
(14.6633 2.81013 1.5873e-15)
(15.1292 1.90492 -3.97367e-17)
(15.6685 1.1149 1.16167e-15)
(16.2653 0.434886 4.70267e-16)
(16.9044 -0.137951 -4.24339e-16)
(17.5746 -0.610475 3.84451e-17)
(18.2654 -0.988612 -8.82586e-16)
(18.9676 -1.27827 5.82572e-17)
(19.6744 -1.48503 5.13054e-16)
(20.3805 -1.61358 2.18538e-17)
(21.0817 -1.66635 3.5009e-16)
(21.7731 -1.64353 -4.4121e-16)
(22.4481 -1.54307 -2.83693e-16)
(23.0946 -1.36344 -5.06028e-16)
(23.6931 -1.1082 -3.14194e-16)
(24.2245 -0.79113 -2.01566e-17)
(24.6796 -0.430249 -8.77756e-17)
(25.0576 -0.0392456 -1.65337e-18)
(25.3587 0.371187 -6.41252e-18)
(25.5829 0.789912 -1.57499e-18)
(25.7315 1.20604 3.22457e-17)
(25.8074 1.61032 -1.69271e-17)
(25.8132 1.99637 1.37192e-16)
(25.7508 2.35839 -3.07072e-16)
(25.6142 2.69278 3.5307e-17)
(15.3212 9.70481 -7.70845e-16)
(15.0135 8.56531 2.17223e-15)
(14.8273 7.37396 1.16279e-15)
(14.7743 6.19795 4.17616e-16)
(14.8523 5.08417 -1.73147e-15)
(15.0508 4.04295 -9.84634e-16)
(15.3512 3.09107 -1.78507e-15)
(15.7346 2.24189 -1.64129e-15)
(16.1881 1.49156 -3.74851e-16)
(16.6991 0.83551 2.54169e-16)
(17.2558 0.272287 -2.68285e-16)
(17.8494 -0.203126 -3.42984e-16)
(18.4714 -0.593971 3.70832e-16)
(19.1133 -0.903552 -4.94483e-16)
(19.7686 -1.13497 5.42369e-17)
(20.4311 -1.29079 1.94441e-16)
(21.0954 -1.37204 3.94608e-16)
(21.7556 -1.3785 -1.78727e-16)
(22.4044 -1.30839 -1.00074e-16)
(23.0296 -1.16067 -8.19006e-17)
(23.6131 -0.938588 2.49201e-16)
(24.1363 -0.653458 -1.22822e-17)
(24.5889 -0.321105 5.51055e-17)
(24.9684 0.0451314 -7.82616e-18)
(25.2737 0.434413 -4.219e-18)
(25.5041 0.835716 -1.34081e-17)
(25.6601 1.23805 -3.69237e-17)
(25.7441 1.63213 -1.0999e-16)
(25.758 2.01012 1.97081e-17)
(25.7034 2.36483 3.0747e-16)
(25.5744 2.69147 3.59922e-16)
(15.8494 8.37456 -1.40182e-15)
(15.6486 7.27824 -9.12315e-16)
(15.5686 6.19516 1.09956e-15)
(15.6067 5.16809 1.53286e-15)
(15.7536 4.20468 2.42979e-16)
(15.9933 3.31975 1.0655e-15)
(16.3093 2.52534 1.00162e-15)
(16.6909 1.81681 -6.01248e-16)
(17.1283 1.18952 4.0276e-16)
(17.6121 0.642594 -1.04193e-16)
(18.1359 0.17218 6.91635e-16)
(18.6929 -0.223629 -4.24356e-16)
(19.2762 -0.546059 -6.91997e-16)
(19.8797 -0.796139 -2.40621e-16)
(20.4972 -0.974726 -5.78913e-16)
(21.1227 -1.08157 -5.11058e-16)
(21.7497 -1.1157 -4.51929e-16)
(22.3703 -1.07506 8.40748e-16)
(22.9728 -0.958797 5.19917e-16)
(23.5395 -0.769752 8.38052e-17)
(24.0526 -0.517076 2.83303e-16)
(24.5011 -0.214631 4.79238e-17)
(24.8805 0.124797 1.29552e-17)
(25.189 0.490323 -1.42028e-18)
(25.4249 0.870956 -2.48227e-18)
(25.5881 1.25567 2.46021e-17)
(25.6801 1.63465 -3.66678e-18)
(25.7024 2.00007 7.06644e-17)
(25.6561 2.34447 1.53425e-16)
(25.5354 2.66244 -6.54157e-16)
(16.3881 7.17248 7.09304e-17)
(16.2878 6.17178 6.52126e-16)
(16.2951 5.22194 -1.9288e-15)
(16.4012 4.32907 -1.29103e-15)
(16.592 3.50614 8.64178e-16)
(16.8527 2.76402 1.26294e-15)
(17.1743 2.09749 -6.53872e-16)
(17.5488 1.50174 -9.16198e-17)
(17.9687 0.97588 -5.2975e-17)
(18.4294 0.516311 -1.73187e-16)
(18.9262 0.122051 6.36754e-16)
(19.4534 -0.206842 8.75197e-16)
(20.0058 -0.469913 8.18411e-17)
(20.5778 -0.666493 6.24467e-16)
(21.1633 -0.795092 2.15942e-16)
(21.7555 -0.853882 3.37309e-16)
(22.3466 -0.840474 -5.25727e-16)
(22.9248 -0.753741 -4.34927e-17)
(23.4733 -0.595859 -2.67159e-16)
(23.9745 -0.374266 -3.05659e-16)
(24.417 -0.100866 -1.14819e-16)
(24.7951 0.212352 2.83425e-17)
(25.1055 0.554635 9.41463e-18)
(25.346 0.915205 6.14685e-18)
(25.5156 1.28308 1.27252e-18)
(25.6151 1.64824 -3.65649e-17)
(25.6455 2.00233 1.05066e-17)
(25.6074 2.33703 -2.56215e-16)
(25.4951 2.64594 1.7143e-17)
(16.9419 6.1333 -1.71331e-15)
(16.9253 5.25275 4.50948e-16)
(16.9989 4.42373 8.16112e-16)
(17.15 3.65783 -1.4115e-15)
(17.3653 2.96511 -9.60808e-16)
(17.6368 2.33992 8.58289e-16)
(17.9576 1.77693 1.83599e-16)
(18.3218 1.27495 -5.86137e-16)
(18.7263 0.830555 5.51088e-16)
(19.1677 0.443011 -2.86188e-16)
(19.6418 0.113089 9.60985e-16)
(20.1447 -0.157838 2.50389e-16)
(20.6715 -0.367949 -3.39959e-17)
(21.2165 -0.514627 1.30349e-16)
(21.7729 -0.595256 -9.95402e-17)
(22.3332 -0.606931 -6.19365e-17)
(22.886 -0.548085 -5.91303e-16)
(23.4146 -0.420055 2.63534e-17)
(23.9023 -0.228685 2.20219e-16)
(24.3371 0.0158545 -7.76827e-18)
(24.7122 0.302532 -3.08506e-17)
(25.0234 0.620899 -1.36598e-17)
(25.2676 0.960397 4.01076e-17)
(25.443 1.31016 -1.96132e-17)
(25.5497 1.65996 1.23601e-16)
(25.588 2.00113 -3.18147e-16)
(25.5581 2.3249 5.40291e-16)
(25.4545 2.62408 3.0523e-16)
(17.5037 5.26561 1.03696e-16)
(17.5514 4.49456 -5.80365e-16)
(17.6703 3.78124 5.53637e-17)
(17.8482 3.1349 5.44705e-16)
(18.0776 2.54943 -7.42518e-16)
(18.3527 2.01932 2.0643e-16)
(18.6685 1.54291 -5.72533e-17)
(19.023 1.11659 -3.50301e-16)
(19.4141 0.739641 -5.40187e-16)
(19.8389 0.413161 -4.83685e-16)
(20.2945 0.138988 -2.30576e-16)
(20.7771 -0.0803779 -3.44888e-16)
(21.2815 -0.241503 -1.5597e-16)
(21.8017 -0.341001 -2.17012e-16)
(22.3303 -0.375314 8.01221e-17)
(22.8563 -0.342193 4.93528e-16)
(23.3639 -0.242186 7.57282e-17)
(23.8365 -0.0797255 9.71691e-17)
(24.2619 0.136692 6.66593e-17)
(24.6325 0.397117 2.45316e-17)
(24.9432 0.691559 6.33249e-18)
(25.1899 1.00978 -3.11874e-17)
(25.3704 1.34114 -2.6996e-17)
(25.4837 1.67532 2.16222e-16)
(25.5297 2.00333 -5.21582e-17)
(25.508 2.31584 -4.84626e-16)
(25.4132 2.6048 3.67877e-16)
(18.0631 4.54625 -8.61321e-17)
(18.1556 3.88123 9.54755e-16)
(18.3024 3.27809 -2.5939e-16)
(18.4966 2.73051 2.25302e-16)
(18.7327 2.2327 -1.38118e-16)
(19.0066 1.78266 8.17917e-16)
(19.3171 1.37646 1.80949e-16)
(19.6628 1.01305 -2.69524e-17)
(20.0421 0.693514 5.93611e-16)
(20.4531 0.419859 -3.74842e-16)
(20.893 0.195026 2.96946e-18)
(21.3575 0.0229624 6.32828e-16)
(21.8413 -0.0923129 6.43354e-17)
(22.3376 -0.146671 -2.38041e-16)
(22.8361 -0.137165 -2.16798e-16)
(23.3214 -0.0633681 1.49705e-16)
(23.7773 0.0715567 2.79452e-18)
(24.1918 0.260653 -2.5516e-17)
(24.5564 0.495105 1.96966e-17)
(24.8652 0.765528 3.60428e-18)
(25.1135 1.0621 -9.9194e-18)
(25.2982 1.37444 9.44718e-17)
(25.4176 1.69225 -1.30039e-16)
(25.4709 2.00628 1.28378e-16)
(25.4574 2.3068 -5.23652e-16)
(25.3716 2.58496 -4.28324e-17)
(18.5376 4.58257 4.0597e-16)
(18.6085 3.96201 6.95861e-16)
(18.7296 3.39906 3.23696e-18)
(18.894 2.88726 6.80464e-16)
(19.097 2.42073 4.23946e-17)
(19.3347 1.99701 -1.05118e-15)
(19.6063 1.61193 -1.97409e-16)
(19.9115 1.26405 -1.45415e-16)
(20.2491 0.95417 4.05794e-17)
(20.6185 0.68422 1.37319e-16)
(21.0176 0.457279 -4.97682e-16)
(21.4433 0.277601 -2.604e-16)
(21.891 0.149622 3.62046e-16)
(22.3548 0.0779327 3.9751e-16)
(22.8251 0.0661143 -2.3862e-16)
(23.2871 0.115605 -1.13358e-17)
(23.7251 0.22456 -3.06705e-16)
(24.1271 0.387379 5.74708e-17)
(24.4843 0.596396 1.52219e-17)
(24.79 0.842955 -4.42842e-19)
(25.0387 1.11772 2.41006e-17)
(25.2267 1.41069 -5.67506e-18)
(25.3515 1.71166 1.24658e-16)
(25.4119 2.01118 3.66015e-16)
(25.4064 2.29916 1.10013e-15)
(25.3297 2.56601 3.87218e-17)
(19.0315 4.02671 7.18859e-16)
(19.131 3.50104 -3.27838e-16)
(19.2705 3.02294 -7.18829e-16)
(19.445 2.58631 -3.70595e-16)
(19.6514 2.18852 -2.02286e-16)
(19.8891 1.82497 -1.95988e-16)
(20.158 1.4939 3.29384e-16)
(20.4579 1.19572 -6.73029e-16)
(20.7887 0.932075 1.64324e-16)
(21.1495 0.705945 -4.19903e-16)
(21.5378 0.521586 -3.02259e-16)
(21.9502 0.383702 -1.68068e-16)
(22.3816 0.297272 4.23953e-17)
(22.8233 0.266593 2.80922e-16)
(23.2613 0.29398 3.96076e-17)
(23.6802 0.378654 1.49058e-16)
(24.0684 0.516352 5.41722e-17)
(24.4167 0.700593 -7.57919e-17)
(24.7178 0.923534 -7.14458e-18)
(24.9659 1.17642 -1.93615e-17)
(25.1562 1.44968 -6.4511e-17)
(25.2859 1.73331 2.69138e-17)
(25.3527 2.01771 -4.51888e-16)
(25.3551 2.29258 -5.04982e-16)
(25.2877 2.54761 -2.34802e-16)
(19.4268 4.07814 5.43073e-16)
(19.5083 3.58709 -4.32001e-16)
(19.6265 3.14046 1.35842e-16)
(19.7769 2.73224 3.59616e-16)
(19.9562 2.35953 1.07892e-15)
(20.1641 2.01749 -8.57696e-17)
(20.4009 1.70391 1.43326e-16)
(20.6667 1.41882 3.92749e-16)
(20.9621 1.16346 2.2492e-16)
(21.287 0.940542 7.73752e-16)
(21.6398 0.75422 5.13505e-16)
(22.0179 0.609207 -3.92902e-17)
(22.4174 0.510681 -4.43174e-16)
(22.8304 0.463446 3.60175e-17)
(23.2438 0.47075 -1.70889e-16)
(23.6427 0.532929 5.37176e-17)
(24.0158 0.646871 2.6843e-17)
(24.3539 0.807205 -2.97439e-17)
(24.6493 1.00697 1.7664e-18)
(24.8954 1.23807 1.2345e-17)
(25.0872 1.49143 -5.18585e-17)
(25.2209 1.75734 9.61802e-18)
(25.2938 2.02613 5.87924e-17)
(25.3038 2.28736 -1.00081e-16)
(25.2456 2.53008 -6.8414e-16)
(19.8629 3.65942 1.22787e-15)
(19.9631 3.24221 -9.26719e-17)
(20.0927 2.86079 -1.29901e-16)
(20.2486 2.51213 -8.73708e-16)
(20.4305 2.19117 5.28408e-16)
(20.6388 1.89533 -4.74704e-16)
(20.874 1.62423 3.36622e-17)
(21.1372 1.37868 -2.71871e-16)
(21.4287 1.16097 -2.69744e-16)
(21.748 0.974939 -1.22282e-16)
(22.0933 0.825248 -1.4115e-16)
(22.4616 0.717148 1.46587e-16)
(22.8461 0.65579 7.95749e-17)
(23.2345 0.645215 -4.45585e-17)
(23.6127 0.686768 -1.54909e-17)
(23.9696 0.778408 -5.41865e-17)
(24.2963 0.915828 2.28717e-17)
(24.5847 1.09299 7.16282e-18)
(24.8278 1.30251 2.20991e-17)
(25.02 1.53588 8.02544e-17)
(25.1569 1.78375 -3.2753e-16)
(25.2354 2.03647 -3.48578e-18)
(25.2527 2.28357 3.01274e-16)
(25.2038 2.51357 2.60529e-16)
(20.1962 3.72016 2.16469e-17)
(20.2811 3.33037 -5.67007e-16)
(20.3928 2.97415 1.37661e-16)
(20.5284 2.64833 2.73548e-17)
(20.6876 2.34778 2.41313e-17)
(20.8707 2.06957 2.23659e-16)
(21.0786 1.81293 -5.20511e-16)
(21.3125 1.57821 9.15796e-17)
(21.5734 1.36725 -2.68399e-16)
(21.8613 1.1835 -1.34687e-17)
(22.1754 1.03133 3.06817e-16)
(22.5134 0.915895 -1.25541e-16)
(22.8698 0.842709 -4.19866e-17)
(23.2331 0.816465 2.8625e-16)
(23.5901 0.839329 5.16493e-17)
(23.9301 0.910236 -2.62616e-17)
(24.2442 1.02589 3.39373e-17)
(24.5244 1.18117 -6.13702e-18)
(24.7633 1.36946 -2.41165e-17)
(24.9549 1.58288 8.77503e-17)
(25.0943 1.8125 -1.03194e-16)
(25.1777 2.0488 1.123e-16)
(25.2021 2.28134 -3.34149e-16)
(25.1624 2.49822 7.47821e-16)
(20.5095 3.77086 -8.67712e-17)
(20.5813 3.40661 5.23349e-16)
(20.6776 3.07398 -4.21365e-16)
(20.7956 2.76979 2.89755e-16)
(20.9349 2.48879 -3.72364e-16)
(21.0958 2.22786 2.89134e-17)
(21.2793 1.98586 -7.2002e-17)
(21.4868 1.76264 2.56634e-16)
(21.7197 1.55956 2.27222e-16)
(21.9785 1.37967 -2.43402e-16)
(22.263 1.22699 -5.35373e-17)
(22.5721 1.10648 3.36431e-16)
(22.9011 1.02368 -8.44909e-17)
(23.2395 0.983843 -7.78041e-17)
(23.5749 0.989937 -1.65569e-16)
(23.8972 1.04174 4.77263e-17)
(24.1979 1.13689 -1.23307e-17)
(24.4688 1.27115 1.76656e-18)
(24.7025 1.43871 -3.34775e-17)
(24.8925 1.63233 -5.01505e-17)
(25.0334 1.8436 3.68694e-16)
(25.1212 2.0632 -1.0343e-16)
(25.1521 2.2808 -3.45657e-17)
(25.1215 2.48423 -6.4702e-16)
(20.8646 3.47244 -5.26611e-16)
(20.9477 3.16189 -1.79228e-16)
(21.0504 2.87807 5.34356e-17)
(21.1722 2.61572 5.2431e-16)
(21.3136 2.37151 1.80325e-16)
(21.4754 2.14401 2.0738e-16)
(21.6592 1.93264 -5.30405e-16)
(21.8666 1.73832 6.99498e-17)
(22.0985 1.56357 2.70712e-16)
(22.3554 1.41201 -2.01125e-16)
(22.6369 1.28827 5.69401e-17)
(22.9393 1.19788 -1.06256e-17)
(23.2532 1.14652 7.14466e-17)
(23.567 1.13777 -1.35011e-16)
(23.8711 1.1722 -2.16361e-17)
(24.1575 1.2482 6.2959e-17)
(24.4182 1.36244 1.95101e-18)
(24.6456 1.50989 4.11087e-17)
(24.833 1.68402 -1.11725e-16)
(24.9747 1.87694 -5.22503e-17)
(25.0661 2.07967 -2.41657e-16)
(25.1032 2.28203 1.02871e-16)
(25.0815 2.47176 2.26856e-16)
(21.132 3.52923 4.48003e-16)
(21.2035 3.23927 5.62411e-16)
(21.2929 2.97454 -1.04664e-16)
(21.3996 2.72982 2.84738e-16)
(21.5237 2.50167 -1.76488e-16)
(21.6663 2.28833 -1.18929e-17)
(21.8288 2.0889 1.02232e-16)
(22.013 1.90387 6.22736e-17)
(22.2203 1.73525 -3.69109e-17)
(22.4515 1.5862 -1.0265e-16)
(22.7069 1.46095 -1.00219e-16)
(22.9839 1.3649 -1.06185e-16)
(23.2738 1.30398 -1.32264e-16)
(23.566 1.28232 -9.32245e-17)
(23.8517 1.30103 -3.39238e-17)
(24.1233 1.35933 -1.46238e-17)
(24.3729 1.45464 -2.57441e-18)
(24.593 1.58272 -3.35136e-17)
(24.7769 1.73776 -4.84403e-17)
(24.9185 1.91248 9.42824e-17)
(25.0127 2.09825 4.36112e-16)
(25.0556 2.28517 -8.32959e-17)
(25.0425 2.46099 -2.26667e-16)
(21.4458 3.30723 -1.0362e-16)
(21.5236 3.06037 -5.37275e-16)
(21.6168 2.83229 1.04375e-16)
(21.7258 2.61941 -2.11284e-16)
(21.8513 2.4198 -7.73285e-17)
(21.9948 2.23223 -2.90853e-16)
(22.1582 2.0568 -7.64933e-18)
(22.3429 1.89505 1.20676e-16)
(22.5504 1.74961 6.89264e-17)
(22.7814 1.62428 -7.56033e-18)
(23.034 1.52426 -9.71399e-17)
(23.3008 1.45558 7.71601e-17)
(23.5717 1.4228 3.19636e-16)
(23.8389 1.42753 -2.6665e-17)
(24.0951 1.4696 2.61266e-17)
(24.3329 1.54718 -1.30544e-18)
(24.545 1.65678 1.89024e-17)
(24.7244 1.79328 1.54878e-16)
(24.865 1.95004 -4.31314e-16)
(24.9615 2.11891 2.18246e-17)
(25.0096 2.29027 6.53281e-17)
(25.0047 2.45207 7.81914e-17)
(21.6751 3.36691 -9.97793e-18)
(21.7427 3.13672 6.63769e-16)
(21.8243 2.92421 -6.42096e-17)
(21.9198 2.72578 1.10586e-16)
(22.0302 2.53935 -3.40023e-17)
(22.1567 2.36339 2.36992e-17)
(22.3013 2.19765 5.74757e-16)
(22.4657 2.04323 -5.14913e-16)
(22.6513 1.9023 1.69601e-16)
(22.8595 1.77818 2.93858e-16)
(23.0891 1.6757 -2.61873e-17)
(23.3335 1.60096 1.89685e-16)
(23.5838 1.55877 -1.57969e-16)
(23.8325 1.5512 -8.37864e-17)
(24.0731 1.57855 -7.43134e-17)
(24.2986 1.63964 -6.73826e-18)
(24.5018 1.73172 -3.23967e-17)
(24.676 1.85035 -6.85815e-17)
(24.8148 1.98952 3.42307e-16)
(24.9128 2.14161 5.77773e-17)
(24.9655 2.29741 -1.89856e-16)
(24.9685 2.44517 -2.11901e-16)
(21.892 3.41912 -5.72603e-17)
(21.9507 3.20448 -4.3183e-16)
(22.022 3.00654 4.19477e-16)
(22.1058 2.82171 -3.50104e-16)
(22.2027 2.64782 4.5613e-16)
(22.3142 2.48312 -1.46408e-16)
(22.4419 2.32703 -3.49589e-16)
(22.5877 2.18024 1.42384e-16)
(22.7534 2.04447 -3.12397e-16)
(22.9405 1.92255 -2.13967e-16)
(23.1485 1.81893 -8.93665e-18)
(23.3716 1.73965 4.58892e-17)
(23.6017 1.68969 -3.63799e-17)
(23.8322 1.67142 -2.30864e-17)
(24.0572 1.68555 2.26157e-17)
(24.2699 1.73149 1.37777e-17)
(24.4637 1.80709 3.81102e-17)
(24.6319 1.90861 4.41885e-17)
(24.7681 2.03071 2.87476e-16)
(24.8669 2.16629 3.51928e-16)
(24.9236 2.30663 3.00623e-16)
(24.934 2.44039 3.79937e-16)
(22.148 3.2645 2.11791e-16)
(22.2102 3.08017 -5.02417e-16)
(22.2836 2.90814 8.06486e-17)
(22.3687 2.74611 2.78256e-16)
(22.4668 2.59221 -3.15647e-16)
(22.5794 2.44559 1.03343e-16)
(22.7086 2.30656 -9.25137e-18)
(22.856 2.17641 1.07e-17)
(23.0237 2.05749 -9.20869e-17)
(23.2114 1.95387 2.54442e-16)
(23.4143 1.87141 -4.83228e-17)
(23.6251 1.81518 2.73812e-18)
(23.8379 1.78775 1.06811e-17)
(24.0472 1.79015 1.37122e-17)
(24.2469 1.82225 -3.03404e-18)
(24.4308 1.8825 1.15265e-17)
(24.5923 1.9678 -6.34169e-17)
(24.7253 2.07341 -4.17676e-16)
(24.8241 2.19287 -7.08172e-16)
(24.8842 2.31796 -2.11997e-16)
(24.9015 2.43786 -5.73924e-16)
(22.3352 3.31756 -6.21373e-17)
(22.3894 3.14591 2.40268e-16)
(22.4536 2.98581 -3.33897e-17)
(22.5281 2.83496 -4.594e-16)
(22.6143 2.69136 -1.72142e-17)
(22.7135 2.55391 1.07639e-16)
(22.8276 2.42264 -2.69305e-16)
(22.9586 2.29842 4.10822e-16)
(23.1083 2.18316 7.94191e-17)
(23.2773 2.08049 -2.04523e-16)
(23.4612 1.99606 -3.24521e-17)
(23.6535 1.93491 -3.95966e-17)
(23.8491 1.89974 5.86665e-18)
(24.0429 1.89185 6.03757e-17)
(24.2296 1.91146 -1.11912e-18)
(24.4032 1.95752 -7.3853e-18)
(24.5575 2.02753 5.17264e-17)
(24.6865 2.1174 -7.81513e-17)
(24.7848 2.22123 7.33164e-16)
(24.8476 2.33138 -1.57383e-16)
(24.8712 2.43768 6.24514e-16)
(22.5125 3.36432 -2.24679e-16)
(22.5597 3.20444 -4.18776e-16)
(22.6158 3.05548 4.59522e-16)
(22.681 2.91512 3.10649e-16)
(22.7566 2.78127 -4.05361e-17)
(22.8438 2.65266 3.96379e-17)
(22.9445 2.52903 1.74098e-16)
(23.0605 2.41093 9.51272e-17)
(23.1939 2.29979 2.12916e-16)
(23.3455 2.19883 -7.15975e-17)
(23.5116 2.11343 6.13961e-17)
(23.6865 2.0486 1.76272e-16)
(23.8654 2.00705 1.03204e-16)
(24.0442 1.99023 -3.39467e-17)
(24.2179 1.99868 9.43603e-18)
(24.3809 2.03177 7.63408e-17)
(24.5275 2.08752 -8.87072e-17)
(24.652 2.16243 1.42583e-16)
(24.7491 2.25124 -9.552e-16)
(24.8141 2.34689 1.61092e-16)
(24.8433 2.43989 -6.71449e-16)
(22.7215 3.25643 1.40133e-16)
(22.7704 3.11785 2.84181e-16)
(22.8275 2.9873 -1.96938e-16)
(22.8936 2.86263 4.54445e-16)
(22.9702 2.74245 -3.50698e-16)
(23.0588 2.62627 7.66054e-17)
(23.1613 2.51432 -3.52124e-16)
(23.2799 2.40764 -6.13806e-17)
(23.4155 2.30902 -6.48125e-17)
(23.5651 2.22355 -2.55169e-16)
(23.7235 2.1561 -1.70951e-16)
(23.8866 2.1094 -1.19526e-16)
(24.0508 2.08495 -2.9859e-17)
(24.2116 2.08352 1.37259e-17)
(24.364 2.10484 -1.30947e-16)
(24.5026 2.14741 1.46435e-16)
(24.6221 2.20824 -1.09499e-16)
(24.7173 2.28272 7.3359e-16)
(24.7838 2.3644 1.07407e-16)
(24.818 2.44453 7.33501e-16)
(22.8752 3.30244 1.26977e-16)
(22.9178 3.17349 -1.53682e-16)
(22.9676 3.05208 -3.97299e-16)
(23.0254 2.93604 -3.59572e-16)
(23.0925 2.82387 4.60951e-16)
(23.1703 2.71489 -8.49993e-17)
(23.2607 2.60905 3.86024e-16)
(23.3659 2.50703 9.91926e-17)
(23.4868 2.41123 -1.47445e-17)
(23.621 2.32641 1.02867e-18)
(23.764 2.2573 9.17859e-17)
(23.9122 2.20654 1.2442e-16)
(24.0623 2.17568 2.03982e-17)
(24.2105 2.16562 -1.59219e-17)
(24.3523 2.17638 7.57678e-17)
(24.4827 2.20685 -7.12833e-17)
(24.5968 2.25458 1.19555e-17)
(24.6896 2.31552 -1.42191e-16)
(24.757 2.38384 -6.45046e-16)
(24.7955 2.45162 8.45373e-17)
(23.0581 3.22302 -2.31602e-16)
(23.1014 3.1101 -1.56277e-17)
(23.1519 3.00213 4.81317e-16)
(23.2106 2.89752 -7.77692e-17)
(23.2788 2.79543 -7.36869e-17)
(23.3583 2.69558 -6.82868e-17)
(23.4513 2.59833 -2.26802e-17)
(23.5589 2.5057 9.69254e-17)
(23.679 2.42215 5.6184e-17)
(23.8076 2.35218 5.5579e-17)
(23.9417 2.29836 -4.48508e-17)
(24.0784 2.26219 4.89264e-17)
(24.2144 2.24468 1.88697e-19)
(24.3458 2.24605 -2.59174e-17)
(24.4679 2.26555 6.71735e-17)
(24.5762 2.30117 -8.38068e-17)
(24.6662 2.34943 9.48962e-18)
(24.7339 2.40511 3.94194e-16)
(24.776 2.4611 -4.12971e-16)
(23.1917 3.26692 3.54595e-16)
(23.2293 3.16189 1.28471e-16)
(23.2732 3.06144 -1.1752e-16)
(23.3244 2.96393 -1.58084e-16)
(23.3841 2.8684 -2.22175e-16)
(23.4539 2.77438 1.99276e-16)
(23.536 2.68193 -1.35968e-16)
(23.6314 2.59273 1.98938e-16)
(23.7385 2.5109 -9.41384e-17)
(23.8539 2.44077 -1.78764e-17)
(23.9747 2.38474 1.86551e-17)
(24.0988 2.34428 -4.28579e-17)
(24.2231 2.32042 -1.24839e-17)
(24.3442 2.31357 -4.17395e-17)
(24.458 2.32321 4.58809e-17)
(24.5604 2.34776 2.49926e-16)
(24.6471 2.38424 3.1027e-17)
(24.7145 2.42808 1.60787e-16)
(24.7596 2.47293 -6.5982e-17)
(23.3188 3.30568 1.05216e-16)
(23.3514 3.20797 -1.31311e-16)
(23.3895 3.11451 -1.92022e-17)
(23.4341 3.02364 -1.89985e-16)
(23.4862 2.93432 -1.95919e-16)
(23.5473 2.8459 -1.97524e-16)
(23.6195 2.7582 2.65396e-16)
(23.704 2.67259 -3.94165e-18)
(23.7993 2.59288 5.93911e-17)
(23.9024 2.52315 3.427e-17)
(24.011 2.46568 -8.56968e-17)
(24.1231 2.42185 4.74717e-17)
(24.2363 2.39268 -2.15199e-18)
(24.3475 2.37866 5.10615e-17)
(24.4531 2.37955 -1.14987e-16)
(24.5493 2.39407 8.13002e-17)
(24.6325 2.41975 -6.81559e-16)
(24.6991 2.45258 3.29604e-16)
(24.7464 2.487 4.73174e-16)
(23.4679 3.2488 3.51721e-16)
(23.5009 3.16182 -8.04105e-17)
(23.5396 3.07717 -1.23637e-16)
(23.5849 2.99369 -1.00374e-17)
(23.6384 2.91063 1.55797e-16)
(23.7017 2.8276 -1.00856e-16)
(23.7763 2.74564 -5.55462e-17)
(23.8608 2.66832 -1.89522e-17)
(23.9527 2.59946 -7.37345e-17)
(24.05 2.54121 5.73885e-17)
(24.151 2.49481 3.29593e-17)
(24.2536 2.46127 4.88754e-19)
(24.3553 2.44113 4.53947e-17)
(24.4528 2.43433 1.48642e-17)
(24.5429 2.43988 -3.79502e-16)
(24.6222 2.45573 3.29608e-16)
(24.6875 2.47845 -4.46241e-16)
(24.7365 2.50318 -5.55139e-16)
(23.579 3.28481 1.41263e-17)
(23.6075 3.20384 3.30818e-16)
(23.641 3.12496 -2.32254e-16)
(23.6804 3.04697 5.77611e-18)
(23.7269 2.96901 6.52975e-17)
(23.7824 2.89049 1.34627e-16)
(23.848 2.81224 5.68042e-17)
(23.9228 2.7375 -2.04357e-16)
(24.0045 2.6699 9.30252e-17)
(24.0913 2.61141 -1.13767e-17)
(24.182 2.56317 2.70042e-17)
(24.2748 2.52611 1.03588e-17)
(24.3674 2.50082 -4.08654e-17)
(24.4571 2.48734 -6.88764e-17)
(24.5411 2.48495 3.79015e-16)
(24.6163 2.49197 1.66348e-16)
(24.6799 2.5055 2.08927e-16)
(24.7299 2.52134 3.3104e-16)
(23.6851 3.31641 -4.12912e-16)
(23.7095 3.241 1.19732e-16)
(23.7384 3.16748 -1.04064e-16)
(23.7725 3.09463 3.31932e-16)
(23.813 3.02149 -4.74733e-17)
(23.8614 2.94733 -1.24769e-16)
(23.9191 2.87275 7.83669e-17)
(23.985 2.80072 7.70829e-17)
(24.0574 2.73467 1.51254e-16)
(24.1347 2.67641 -8.74517e-17)
(24.2159 2.62694 -2.33228e-17)
(24.2994 2.58715 -7.21398e-18)
(24.3834 2.55759 -2.12603e-17)
(24.4657 2.53841 5.36468e-17)
(24.5436 2.52908 -2.76141e-16)
(24.6146 2.52826 1.03649e-17)
(24.6763 2.53352 -1.8396e-17)
(24.7266 2.54128 1.7898e-16)
(23.8071 3.27371 -8.06357e-17)
(23.832 3.20516 1.54647e-16)
(23.8614 3.13709 -1.63615e-16)
(23.8965 3.0685 -5.71672e-17)
(23.9387 2.99852 1.10787e-16)
(23.9891 2.92753 -2.12865e-16)
(24.0472 2.8583 4.78555e-18)
(24.1112 2.79403 -2.99198e-18)
(24.1798 2.73637 -7.21126e-18)
(24.2522 2.68623 2.7879e-17)
(24.3272 2.64438 -1.0308e-17)
(24.4032 2.61136 -4.00296e-17)
(24.4783 2.58739 1.691e-16)
(24.5503 2.57209 2.44322e-16)
(24.6171 2.5644 2.28419e-16)
(24.6764 2.56231 4.52972e-19)
(24.7266 2.56282 -2.65743e-17)
(23.9005 3.30234 1.08627e-16)
(23.9218 3.23839 -4.69616e-17)
(23.9471 3.17478 -1.25284e-16)
(23.9774 3.11045 7.1339e-17)
(24.0141 3.04445 -9.66494e-17)
(24.0581 2.97698 -8.72435e-17)
(24.1091 2.91057 8.81267e-17)
(24.1655 2.84824 -6.37114e-17)
(24.2262 2.79151 -1.96802e-18)
(24.2907 2.74114 8.13213e-18)
(24.3578 2.69784 9.73435e-18)
(24.4263 2.66211 2.23871e-17)
(24.4947 2.63418 -3.1469e-16)
(24.561 2.61382 -1.39788e-16)
(24.6235 2.60018 1.86473e-16)
(24.6802 2.59166 -2.86398e-16)
(23.9899 3.32725 2.32557e-17)
(24.008 3.26755 -7.35964e-17)