/*--------------------------------*- C++ -*----------------------------------*\
| =========                 |                                                 |
| \\      /  F ield         | OpenFOAM: The Open Source CFD Toolbox           |
|  \\    /   O peration     | Version:  2306                                  |
|   \\  /    A nd           | Website:  www.openfoam.com                      |
|    \\/     M anipulation  |                                                 |
\*---------------------------------------------------------------------------*/
FoamFile
{
    version     2.0;
    format      ascii;
    arch        "LSB;label=32;scalar=64";
    class       volScalarField;
    location    "775";
    object      magR;
}
// * * * * * * * * * * * * * * * * * * * * * * * * * * * * * * * * * * * * * //

dimensions      [0 2 -2 0 0 0 0];

internalField   nonuniform List<scalar> 
1340
(
1.08983e-06
8.27989e-07
1.10578e-06
8.03158e-07
8.01998e-07
1.10523e-06
3.34682e-07
7.92792e-07
7.84806e-07
1.10968e-06
2.99504e-07
5.49946e-07
3.31523e-07
7.84533e-07
7.70207e-07
1.11717e-06
4.26486e-07
5.00986e-07
2.90484e-07
5.39809e-07
3.28259e-07
7.77069e-07
7.58383e-07
1.12476e-06
6.01596e-07
5.28072e-07
5.28049e-07
4.09393e-07
4.87013e-07
2.81019e-07
5.29907e-07
3.25083e-07
7.7065e-07
7.49862e-07
1.13184e-06
6.95069e-07
6.52209e-07
6.00398e-07
5.75362e-07
5.04407e-07
5.08403e-07
3.92041e-07
4.72897e-07
2.71249e-07
5.20464e-07
3.21979e-07
7.65429e-07
7.44464e-07
1.1383e-06
8.82138e-07
8.22039e-07
7.6443e-07
7.09745e-07
6.56317e-07
6.181e-07
5.69609e-07
5.48764e-07
4.80522e-07
4.8846e-07
3.74538e-07
4.58706e-07
2.61242e-07
5.11397e-07
3.18966e-07
7.61129e-07
7.41468e-07
1.1451e-06
1.11614e-06
1.05178e-06
9.89572e-07
9.2967e-07
8.72159e-07
8.17076e-07
7.64502e-07
7.13722e-07
6.65484e-07
6.17409e-07
5.83741e-07
5.38574e-07
5.21803e-07
4.56417e-07
4.68213e-07
3.56881e-07
4.44389e-07
2.51024e-07
5.02525e-07
3.16102e-07
7.57434e-07
7.40367e-07
1.15113e-06
1.4145e-06
1.35558e-06
1.29645e-06
1.2374e-06
1.17876e-06
1.12083e-06
1.06388e-06
1.00815e-06
9.53833e-07
9.01062e-07
8.4996e-07
8.00644e-07
7.53138e-07
7.07659e-07
6.63379e-07
6.2134e-07
5.78494e-07
5.49267e-07
5.07414e-07
4.94583e-07
4.32178e-07
4.47723e-07
3.39145e-07
4.29954e-07
2.40661e-07
4.9377e-07
3.13372e-07
7.54211e-07
7.41713e-07
1.15708e-06
1.6993e-06
1.6717e-06
1.64217e-06
1.61061e-06
1.57691e-06
1.54107e-06
1.50312e-06
1.46318e-06
1.42137e-06
1.37793e-06
1.33302e-06
1.28689e-06
1.23982e-06
1.19205e-06
1.14389e-06
1.09557e-06
1.04737e-06
9.99548e-07
9.52335e-07
9.05942e-07
8.60532e-07
8.16223e-07
7.73104e-07
7.31294e-07
6.90793e-07
6.51935e-07
6.13777e-07
5.7764e-07
5.39864e-07
5.14929e-07
4.76357e-07
4.67286e-07
4.07971e-07
4.27105e-07
3.21436e-07
4.15448e-07
2.30254e-07
4.85153e-07
3.10711e-07
7.51393e-07
7.4436e-07
1.16295e-06
2.46871e-08
1.5026e-09
0
0
4.73161e-05
9.81125e-05
0.00852947
0.108017
0.417666
0.924193
1.46489
1.84353
1.90852
1.58871
0.917199
0.0974502
0.882605
1.54741
1.75448
1.43526
0.802061
0.261748
0.0349505
0.000208622
2.66538e-05
0
0
0
3.1964e-08
4.30486e-07
1.63007e-06
1.82893e-06
1.60092e-06
1.50012e-06
1.49296e-06
1.48595e-06
1.46588e-06
1.44385e-06
1.42243e-06
1.39994e-06
1.3757e-06
1.34973e-06
1.322e-06
1.29243e-06
1.26107e-06
1.22803e-06
1.1935e-06
1.15764e-06
1.12062e-06
1.08267e-06
1.04402e-06
1.00491e-06
9.65528e-07
9.26124e-07
8.86907e-07
8.48072e-07
8.09798e-07
7.7223e-07
7.35443e-07
6.99496e-07
6.64507e-07
6.30427e-07
5.97693e-07
5.65252e-07
5.34683e-07
5.01776e-07
4.80955e-07
4.45612e-07
4.4009e-07
3.83936e-07
4.06461e-07
3.03887e-07
4.00876e-07
2.19883e-07
4.76501e-07
3.08211e-07
7.48805e-07
7.48508e-07
1.16877e-06
9.43233e-07
4.58739e-08
2.93843e-09
0
0
7.88195e-08
0.000620836
0.00110118
0.0433301
0.236946
0.636869
1.14074
1.56208
1.73235
1.55323
1.0241
0.25813
0.599182
1.27439
1.56474
1.36298
0.817909
0.295579
0.0468757
0.000865815
7.21556e-05
0
0
0
1.10084e-08
1.33196e-07
1.22885e-06
1.59436e-06
1.39126e-06
1.26142e-06
1.24351e-06
1.24106e-06
1.22654e-06
1.2087e-06
1.19171e-06
1.17379e-06
1.15387e-06
1.1322e-06
1.10903e-06
1.08437e-06
1.05823e-06
1.03073e-06
1.00204e-06
9.72312e-07
9.41721e-07
9.10483e-07
8.78795e-07
8.46822e-07
8.14777e-07
7.82833e-07
7.51158e-07
7.19896e-07
6.89165e-07
6.5902e-07
6.29469e-07
6.00626e-07
5.72382e-07
5.45271e-07
5.18116e-07
4.92756e-07
4.64487e-07
4.47573e-07
4.15382e-07
4.13175e-07
3.60248e-07
3.85928e-07
2.86592e-07
3.86288e-07
2.0957e-07
4.6791e-07
3.05634e-07
7.46312e-07
7.52753e-07
1.17496e-06
9.69379e-07
8.3594e-07
8.39782e-08
4.91746e-09
0
0
0
0.000189878
0.000311194
0.0126167
0.116992
0.405457
0.847051
1.28475
1.53947
1.48654
1.093
0.433369
0.351771
1.02339
1.37995
1.28299
0.825126
0.326541
0.0601288
0.00207979
0.000108809
0
0
0
6.5129e-10
3.26998e-09
7.42594e-07
1.28822e-06
1.19389e-06
1.06504e-06
1.04029e-06
1.04218e-06
1.03132e-06
1.01396e-06
9.98131e-07
9.83226e-07
9.67013e-07
9.48956e-07
9.29405e-07
9.086e-07
8.86649e-07
8.63664e-07
8.39752e-07
8.15097e-07
7.89877e-07
7.64273e-07
7.38437e-07
7.12543e-07
6.86735e-07
6.61167e-07
6.35946e-07
6.11178e-07
5.86864e-07
5.63014e-07
5.39696e-07
5.16734e-07
4.94774e-07
4.725e-07
4.51955e-07
4.28121e-07
4.14883e-07
3.85788e-07
3.8662e-07
3.37004e-07
3.65509e-07
2.69646e-07
3.71735e-07
1.99399e-07
4.58965e-07
3.0291e-07
7.445e-07
7.57193e-07
1.1815e-06
7.50973e-07
8.33117e-07
7.60406e-07
1.84282e-07
1.00525e-08
0
0
0
2.26368e-06
0.000652561
0.00194062
0.0482845
0.234228
0.59444
1.02215
1.33918
1.39586
1.12682
0.573466
0.147817
0.800192
1.20605
1.19909
0.822135
0.35196
0.0732516
0.00365918
0.000150266
0
0
0
4.23479e-12
3.65503e-08
5.05178e-07
1.03213e-06
1.02398e-06
8.90508e-07
8.50482e-07
8.61034e-07
8.64965e-07
8.54088e-07
8.38892e-07
8.24568e-07
8.10421e-07
7.95169e-07
7.78525e-07
7.60769e-07
7.42152e-07
7.22775e-07
7.02792e-07
6.82348e-07
6.61631e-07
6.40763e-07
6.19898e-07
5.99187e-07
5.78731e-07
5.58637e-07
5.38961e-07
5.19721e-07
5.00867e-07
4.82434e-07
4.64207e-07
4.46869e-07
4.29049e-07
4.12906e-07
3.93182e-07
3.83399e-07
3.57241e-07
3.60875e-07
3.14429e-07
3.45628e-07
2.53036e-07
3.5749e-07
1.88694e-07
4.50623e-07
2.99149e-07
7.42651e-07
7.62375e-07
1.19054e-06
6.57883e-07
6.53334e-07
7.33324e-07
6.70131e-07
3.16107e-07
1.69021e-08
3.56913e-12
0
0
0
0.000259447
0.00029454
0.0144112
0.114018
0.373705
0.758851
1.11887
1.28284
1.14549
0.707984
0.0967056
0.576894
1.02972
1.11515
0.824441
0.386745
0.0927875
0.00607627
0.000137828
1.34316e-05
0
0
0
2.17432e-08
2.62191e-07
7.79688e-07
9.40896e-07
8.30353e-07
7.29996e-07
7.03447e-07
7.06819e-07
7.0626e-07
6.96867e-07
6.84168e-07
6.71349e-07
6.5829e-07
6.44429e-07
6.29662e-07
6.14214e-07
5.9833e-07
5.82064e-07
5.65626e-07
5.49137e-07
5.32712e-07
5.1651e-07
5.00597e-07
4.8509e-07
4.6997e-07
4.5531e-07
4.41e-07
4.27029e-07
4.13192e-07
4.00123e-07
3.86437e-07
3.74462e-07
3.58659e-07
3.52139e-07
3.29015e-07
3.35086e-07
2.92218e-07
3.25331e-07
2.37186e-07
3.42375e-07
1.79453e-07
4.40854e-07
2.96408e-07
7.39585e-07
7.6706e-07
1.1962e-06
5.79958e-07
5.62031e-07
5.73574e-07
5.92271e-07
5.68794e-07
4.40221e-07
7.12831e-08
4.10355e-09
2.75565e-13
0
0
2.69267e-06
0.000410876
0.00130959
0.0280907
0.140145
0.38199
0.706296
0.977545
1.05011
0.847559
0.401493
0.175702
0.668724
0.915477
0.82127
0.495076
0.181575
0.0339063
0.00116928
0.000123347
2.53767e-06
0
0
2.65634e-10
1.31128e-08
1.25952e-07
4.91037e-07
6.77958e-07
6.48194e-07
5.82338e-07
5.55421e-07
5.53158e-07
5.51673e-07
5.44364e-07
5.34154e-07
5.23591e-07
5.12816e-07
5.01568e-07
4.8988e-07
4.77837e-07
4.65713e-07
4.5363e-07
4.41704e-07
4.30012e-07
4.18664e-07
4.07767e-07
3.97284e-07
3.87281e-07
3.77604e-07
3.6826e-07
3.58972e-07
3.50367e-07
3.41047e-07
3.33351e-07
3.21958e-07
3.18589e-07
2.99306e-07
3.07131e-07
2.69565e-07
3.02471e-07
2.22631e-07
3.22841e-07
1.72458e-07
4.20254e-07
2.82436e-07
7.06326e-07
7.28658e-07
1.11109e-06
4.90667e-07
4.81427e-07
4.83628e-07
4.78403e-07
4.74963e-07
4.99096e-07
4.46354e-07
2.87078e-07
6.63954e-09
4.57237e-10
0
0
0
1.15357e-05
0.000380013
0.000963326
0.021113
0.10866
0.304448
0.575887
0.806739
0.862361
0.672128
0.270334
0.220409
0.611533
0.752405
0.608793
0.328011
0.106812
0.0168975
0.000281351
6.05389e-05
0
0
0
9.29429e-11
1.05752e-08
1.20216e-07
3.9011e-07
5.10015e-07
4.77787e-07
4.31625e-07
4.16742e-07
4.16256e-07
4.13683e-07
4.06893e-07
3.98778e-07
3.90731e-07
3.82605e-07
3.74272e-07
3.65939e-07
3.5771e-07
3.49797e-07
3.42251e-07
3.35176e-07
3.28667e-07
3.22676e-07
3.17282e-07
3.12253e-07
3.07615e-07
3.03001e-07
2.98997e-07
2.94237e-07
2.90935e-07
2.84082e-07
2.84075e-07
2.68745e-07
2.78631e-07
2.46025e-07
2.79929e-07
2.06721e-07
3.05972e-07
1.64919e-07
4.09184e-07
2.83171e-07
7.03311e-07
7.45457e-07
1.12027e-06
4.07599e-07
4.01961e-07
4.07315e-07
4.03265e-07
3.93478e-07
3.90767e-07
4.02238e-07
4.1539e-07
3.36796e-07
1.23812e-07
6.61101e-09
1.28772e-12
0
0
0
1.18084e-05
0.000356836
0.000654513
0.0175745
0.0936164
0.265536
0.502725
0.695933
0.720364
0.518485
0.139991
0.282982
0.569931
0.609493
0.433131
0.201515
0.053814
0.0056229
9.97298e-05
9.1557e-06
0
0
0
9.9816e-11
1.2324e-08
1.51685e-07
3.33135e-07
3.69099e-07
3.32916e-07
3.08911e-07
3.04743e-07
3.04114e-07
3.00173e-07
2.9429e-07
2.88289e-07
2.82597e-07
2.77103e-07
2.71838e-07
2.67077e-07
2.62878e-07
2.59352e-07
2.56569e-07
2.54503e-07
2.53157e-07
2.52301e-07
2.51921e-07
2.51568e-07
2.51744e-07
2.51113e-07
2.51776e-07
2.48942e-07
2.52018e-07
2.40303e-07
2.52144e-07
2.23893e-07
2.59075e-07
1.91286e-07
2.90971e-07
1.5612e-07
4.00558e-07
2.81297e-07
7.04494e-07
7.57815e-07
1.12837e-06
3.30081e-07
3.36326e-07
3.34828e-07
3.28905e-07
3.22612e-07
3.19277e-07
3.22699e-07
3.41825e-07
3.27649e-07
2.33426e-07
2.64828e-08
1.7126e-09
0
0
0
0
1.05155e-05
0.000340517
0.000665822
0.0170748
0.0889422
0.247344
0.457072
0.610161
0.593319
0.370283
0.0253274
0.333472
0.514486
0.472258
0.287774
0.109349
0.0216495
0.000990099
7.36827e-05
0
0
0
0
3.7355e-09
3.87833e-08
1.80877e-07
2.60321e-07
2.49153e-07
2.24594e-07
2.15986e-07
2.14987e-07
2.1296e-07
2.09124e-07
2.0518e-07
2.01752e-07
1.98855e-07
1.9668e-07
1.95271e-07
1.94746e-07
1.95159e-07
1.96465e-07
1.98606e-07
2.01314e-07
2.04556e-07
2.07803e-07
2.11482e-07
2.14256e-07
2.18131e-07
2.18546e-07
2.24058e-07
2.15499e-07
2.28807e-07
2.04474e-07
2.40465e-07
1.77702e-07
2.77624e-07
1.48256e-07
3.93545e-07
2.78676e-07
7.07496e-07
7.64443e-07
1.13581e-06
2.6685e-07
2.73247e-07
2.72657e-07
2.69245e-07
2.66149e-07
2.62482e-07
2.59209e-07
2.59723e-07
2.67765e-07
2.82002e-07
2.49399e-07
1.14791e-07
6.44823e-09
1.29605e-12
0
0
0
0
1.12047e-05
0.000338031
0.000963339
0.0190346
0.0920424
0.243283
0.427566
0.535875
0.47122
0.227511
0.101662
0.361618
0.443176
0.341986
0.170907
0.0491563
0.00602352
0.000149295
6.71467e-06
0
0
0
1.28272e-10
4.0743e-10
7.5079e-08
1.51887e-07
1.66818e-07
1.51241e-07
1.41864e-07
1.40306e-07
1.39743e-07
1.38213e-07
1.3671e-07
1.35986e-07
1.36281e-07
1.37588e-07
1.39975e-07
1.43482e-07
1.47974e-07
1.53348e-07
1.59263e-07
1.65645e-07
1.71955e-07
1.78533e-07
1.84068e-07
1.90434e-07
1.93372e-07
2.00637e-07
1.94804e-07
2.09054e-07
1.88294e-07
2.24472e-07
1.66678e-07
2.66093e-07
1.4243e-07
3.87801e-07
2.76004e-07
7.11997e-07
7.65385e-07
1.14445e-06
2.12586e-07
2.18231e-07
2.18182e-07
2.15967e-07
2.14106e-07
2.1191e-07
2.10394e-07
2.07677e-07
2.05911e-07
2.08192e-07
2.21691e-07
2.2102e-07
1.67995e-07
2.20196e-08
1.58231e-09
2.12084e-14
0
0
0
0
1.40204e-05
0.000309194
0.00157377
0.0234974
0.102123
0.249318
0.405543
0.462451
0.348305
0.092662
0.190532
0.361191
0.354476
0.222198
0.0850987
0.0161777
0.000586808
6.23837e-05
3.24907e-07
0
0
3.39909e-13
2.41189e-09
2.2333e-08
7.50037e-08
9.64995e-08
9.0157e-08
8.15662e-08
7.89857e-08
7.92173e-08
8.00788e-08
8.17134e-08
8.47343e-08
8.9224e-08
9.49891e-08
1.01835e-07
1.09549e-07
1.17929e-07
1.26653e-07
1.35586e-07
1.44278e-07
1.53011e-07
1.60546e-07
1.68584e-07
1.73242e-07
1.81469e-07
1.77767e-07
1.92429e-07
1.74786e-07
2.10594e-07
1.57411e-07
2.55812e-07
1.37542e-07
3.82866e-07
2.72602e-07
7.16848e-07
7.58652e-07
1.1554e-06
1.79149e-07
1.8332e-07
1.84013e-07
1.82339e-07
1.8068e-07
1.79433e-07
1.78745e-07
1.77218e-07
1.75517e-07
1.73288e-07
1.73941e-07
1.78644e-07
1.91391e-07
1.66726e-07
1.00219e-07
2.82068e-10
4.56674e-11
0
0
0
0
0
6.67818e-05
8.28417e-05
0.00320517
0.0318219
0.119633
0.261766
0.382597
0.381443
0.221731
0.0343717
0.249664
0.326585
0.253071
0.122291
0.0323027
0.00311727
1.1398e-06
1.57749e-05
0
0
0
3.44198e-10
1.23805e-09
1.25993e-08
1.95846e-08
2.39464e-08
2.46168e-08
2.59517e-08
3.07609e-08
3.79038e-08
4.61189e-08
5.5151e-08
6.49191e-08
7.52003e-08
8.57429e-08
9.64173e-08
1.07001e-07
1.17485e-07
1.27529e-07
1.37455e-07
1.46113e-07
1.54943e-07
1.60571e-07
1.69031e-07
1.66951e-07
1.81416e-07
1.66701e-07
2.01272e-07
1.52957e-07
2.48931e-07
1.36675e-07
3.80195e-07
2.68514e-07
7.2292e-07
7.37714e-07
1.17836e-06
1.46353e-07
1.50721e-07
1.51147e-07
1.49595e-07
1.48189e-07
1.4787e-07
1.48084e-07
1.46265e-07
1.45854e-07
1.45253e-07
1.43585e-07
1.42667e-07
1.45738e-07
1.52219e-07
1.56819e-07
1.20477e-07
4.36527e-08
3.6222e-09
2.70327e-12
0
0
0
0
3.10815e-07
9.77192e-05
4.13514e-05
0.00620396
0.045467
0.143808
0.274365
0.347938
0.283925
0.0904195
0.1352
0.269853
0.25766
0.149975
0.049809
0.00744772
0.000109809
4.63125e-05
0
0
0
7.39144e-12
1.825e-09
9.66273e-09
4.27898e-08
3.57148e-08
2.54982e-08
2.76864e-08
3.56471e-08
4.51261e-08
5.4546e-08
6.38602e-08
7.33683e-08
8.30258e-08
9.27491e-08
1.0231e-07
1.1175e-07
1.20824e-07
1.29829e-07
1.37779e-07
1.45749e-07
1.50786e-07
1.5806e-07
1.56191e-07
1.6955e-07
1.5638e-07
1.89455e-07
1.4367e-07
2.38428e-07
1.28222e-07
3.73129e-07
2.58109e-07
7.2191e-07
6.99231e-07
1.21598e-06
1.58009e-07
1.60247e-07
1.60081e-07
1.58374e-07
1.56751e-07
1.55653e-07
1.55007e-07
1.53296e-07
1.52163e-07
1.50846e-07
1.48794e-07
1.46986e-07
1.45619e-07
1.4526e-07
1.47335e-07
1.54017e-07
1.41941e-07
1.01197e-07
2.71822e-08
2.76261e-09
3.33222e-12
0
0
0
0
1.04738e-06
0.000190893
0.000440934
0.0128094
0.0675028
0.178381
0.294097
0.31751
0.196151
0.0323088
0.208204
0.262005
0.185916
0.0759774
0.013292
0.00109231
5.9679e-05
3.69721e-05
7.43256e-06
2.12274e-07
0
4.01433e-11
3.97416e-11
5.3432e-08
1.01004e-07
9.45789e-08
8.21929e-08
8.02345e-08
8.441e-08
9.03928e-08
9.6864e-08
1.03763e-07
1.11089e-07
1.18637e-07
1.26298e-07
1.33896e-07
1.41594e-07
1.4861e-07
1.55564e-07
1.60007e-07
1.66186e-07
1.64921e-07
1.76655e-07
1.65778e-07
1.95608e-07
1.5446e-07
2.43893e-07
1.36646e-07
3.80323e-07
2.44937e-07
7.35686e-07
6.3488e-07
1.34702e-06
1.3526e-07
1.36158e-07
1.36542e-07
1.37082e-07
1.37439e-07
1.37802e-07
1.38506e-07
1.39353e-07
1.40065e-07
1.40471e-07
1.40862e-07
1.41567e-07
1.42187e-07
1.42843e-07
1.43413e-07
1.46603e-07
1.52236e-07
1.56323e-07
1.4271e-07
1.0765e-07
2.82705e-08
2.51515e-09
0
0
0
0
0
6.87573e-06
0.000161595
0.000571984
0.010927
0.0513294
0.126529
0.19831
0.203519
0.113256
0.0328154
0.145476
0.167198
0.112573
0.0471576
0.0121476
0.00162023
3.2344e-05
2.78768e-05
4.69954e-06
0
8.74606e-14
2.06043e-09
3.13031e-08
9.30361e-08
1.19625e-07
1.20318e-07
1.17897e-07
1.18132e-07
1.1998e-07
1.22348e-07
1.24944e-07
1.27698e-07
1.30551e-07
1.33429e-07
1.36501e-07
1.39286e-07
1.42236e-07
1.43031e-07
1.44846e-07
1.40727e-07
1.488e-07
1.36523e-07
1.63349e-07
1.19802e-07
2.08361e-07
9.15653e-08
3.39214e-07
2.02917e-07
6.69214e-07
6.33697e-07
1.32949e-06
)
;

boundaryField
{
    inlet
    {
        type            calculated;
        value           nonuniform List<scalar> 
27
(
7.07661e-06
7.08598e-06
7.10288e-06
7.12554e-06
7.14975e-06
7.17481e-06
7.20143e-06
7.22943e-06
7.25867e-06
7.28808e-06
7.31754e-06
7.34647e-06
7.37431e-06
7.40039e-06
7.42401e-06
7.44445e-06
7.46187e-06
7.42618e-06
7.43075e-06
7.4288e-06
7.4166e-06
7.39292e-06
7.35457e-06
7.30006e-06
7.22159e-06
7.14431e-06
6.98524e-06
)
;
    }
    outlet
    {
        type            calculated;
        value           nonuniform List<scalar> 
78
(
1.09596e-07
1.1086e-07
1.11513e-07
1.1236e-07
1.12997e-07
1.13643e-07
1.1471e-07
1.15949e-07
1.17027e-07
1.17744e-07
1.18448e-07
1.19516e-07
1.20548e-07
1.21627e-07
1.22587e-07
1.25704e-07
1.30708e-07
1.33993e-07
1.22224e-07
9.32101e-08
2.53837e-08
2.36173e-09
0
0
0
0
0
6.90772e-06
0.000161179
0.000537683
0.0108212
0.0511235
0.126331
0.198396
0.204166
0.114451
0.0306271
0.143921
0.166271
0.112237
0.047126
0.012182
0.00164084
2.08227e-05
2.65746e-05
4.46778e-06
0
7.66122e-14
1.80142e-09
2.78666e-08
8.35824e-08
1.07666e-07
1.08129e-07
1.05603e-07
1.05278e-07
1.06204e-07
1.07419e-07
1.08694e-07
1.0999e-07
1.11303e-07
1.12578e-07
1.1409e-07
1.15281e-07
1.16921e-07
1.16138e-07
1.17363e-07
1.11196e-07
1.2114e-07
1.04064e-07
1.38706e-07
8.01906e-08
1.90753e-07
2.45162e-08
3.26189e-07
1.81791e-07
6.46169e-07
6.35014e-07
1.25705e-06
)
;
    }
    walls
    {
        type            calculated;
        value           nonuniform List<scalar> 0();
    }
    frontAndBack
    {
        type            empty;
    }
    procBoundary7to3
    {
        type            processor;
        value           nonuniform List<scalar> 
16
(
1.34574e-06
1.38281e-06
1.05615e-06
9.00185e-07
7.97245e-07
6.82217e-07
5.60012e-07
4.57245e-07
3.33399e-07
3.33399e-07
2.68925e-07
2.14473e-07
1.80972e-07
1.4674e-07
1.61069e-07
1.33191e-07
)
;
    }
    procBoundary7to6
    {
        type            processor;
        value           nonuniform List<scalar> 
91
(
1.08621e-06
8.55413e-07
8.55413e-07
8.19187e-07
8.19187e-07
3.37422e-07
3.37422e-07
3.07946e-07
5.60097e-07
5.60097e-07
4.42977e-07
5.14568e-07
5.14568e-07
6.27297e-07
5.51365e-07
5.47288e-07
5.47288e-07
7.33656e-07
6.86067e-07
6.30939e-07
6.30939e-07
9.48044e-07
8.8002e-07
8.15285e-07
7.53941e-07
7.53941e-07
1.22939e-06
1.15383e-06
1.08121e-06
1.0117e-06
9.45335e-07
9.45335e-07
1.60803e-06
1.5355e-06
1.46317e-06
1.39133e-06
1.32039e-06
1.25069e-06
1.18251e-06
1.18251e-06
2.00101e-06
1.96446e-06
1.9256e-06
1.88428e-06
1.84044e-06
1.79411e-06
1.74538e-06
1.69441e-06
1.64139e-06
1.58664e-06
1.53036e-06
1.47286e-06
1.47286e-06
1.0083e-11
0
0
0.000412756
0.000367591
0.0321512
0.222545
0.663116
1.26085
1.81336
2.1267
2.06789
1.59326
0.77206
0.267697
1.20536
1.84539
1.95074
1.50069
0.777975
0.225835
0.0252884
0.000916325
8.39027e-07
0
0
0
6.1173e-08
8.71525e-07
2.10525e-06
2.15367e-06
1.90003e-06
1.80903e-06
1.79774e-06
1.78024e-06
1.7528e-06
1.72565e-06
1.72565e-06
)
;
    }
}


// ************************************************************************* //
