/*--------------------------------*- C++ -*----------------------------------*\
| =========                 |                                                 |
| \\      /  F ield         | OpenFOAM: The Open Source CFD Toolbox           |
|  \\    /   O peration     | Version:  2306                                  |
|   \\  /    A nd           | Website:  www.openfoam.com                      |
|    \\/     M anipulation  |                                                 |
\*---------------------------------------------------------------------------*/
FoamFile
{
    version     2.0;
    format      ascii;
    arch        "LSB;label=32;scalar=64";
    class       volScalarField;
    location    "775";
    object      nut;
}
// * * * * * * * * * * * * * * * * * * * * * * * * * * * * * * * * * * * * * //

dimensions      [0 2 -1 0 0 0 0];

internalField   nonuniform List<scalar> 
1340
(
6.10199e-06
6.10274e-06
6.10233e-06
6.08333e-06
6.10338e-06
6.10276e-06
6.08133e-06
6.08325e-06
6.10405e-06
6.10328e-06
6.07231e-06
6.07456e-06
6.08121e-06
6.08314e-06
6.10476e-06
6.10389e-06
6.07744e-06
6.07309e-06
6.07228e-06
6.07449e-06
6.0811e-06
6.08302e-06
6.1055e-06
6.10459e-06
6.09024e-06
6.08641e-06
6.08221e-06
6.07784e-06
6.07333e-06
6.07225e-06
6.07442e-06
6.08099e-06
6.08286e-06
6.10627e-06
6.10539e-06
6.09963e-06
6.09674e-06
6.0941e-06
6.09085e-06
6.08698e-06
6.0827e-06
6.07828e-06
6.0736e-06
6.07224e-06
6.07433e-06
6.08087e-06
6.08268e-06
6.10707e-06
6.10629e-06
6.11213e-06
6.11002e-06
6.10728e-06
6.10389e-06
6.10039e-06
6.09744e-06
6.09477e-06
6.09149e-06
6.08759e-06
6.08323e-06
6.07874e-06
6.07391e-06
6.07224e-06
6.07423e-06
6.08075e-06
6.08246e-06
6.10788e-06
6.10729e-06
6.11858e-06
6.11782e-06
6.1169e-06
6.11583e-06
6.11457e-06
6.11301e-06
6.11092e-06
6.10818e-06
6.10477e-06
6.10119e-06
6.09818e-06
6.09548e-06
6.09218e-06
6.08824e-06
6.0838e-06
6.07923e-06
6.07425e-06
6.07227e-06
6.07412e-06
6.08063e-06
6.08222e-06
6.10871e-06
6.10839e-06
6.12113e-06
6.12111e-06
6.12108e-06
6.121e-06
6.12082e-06
6.12052e-06
6.12009e-06
6.1195e-06
6.11874e-06
6.11782e-06
6.11674e-06
6.11549e-06
6.11393e-06
6.11186e-06
6.10913e-06
6.10569e-06
6.10205e-06
6.09897e-06
6.09623e-06
6.09291e-06
6.08893e-06
6.08441e-06
6.07976e-06
6.07463e-06
6.07232e-06
6.07401e-06
6.0805e-06
6.08195e-06
6.10955e-06
6.10959e-06
6.1227e-06
6.12346e-06
6.12327e-06
6.12302e-06
6.1228e-06
6.12253e-06
6.1223e-06
6.12218e-06
6.12212e-06
6.1221e-06
6.12208e-06
6.12206e-06
6.12203e-06
6.12201e-06
6.12198e-06
6.12191e-06
6.12175e-06
6.12146e-06
6.12104e-06
6.12046e-06
6.11971e-06
6.11879e-06
6.11771e-06
6.11645e-06
6.1149e-06
6.11285e-06
6.11013e-06
6.10667e-06
6.10296e-06
6.09981e-06
6.09703e-06
6.09369e-06
6.08966e-06
6.08506e-06
6.08033e-06
6.07505e-06
6.0724e-06
6.07388e-06
6.08036e-06
6.08164e-06
6.11039e-06
6.11089e-06
4.64834e-09
2.13207e-11
0
0
0.000141354
0.000452217
0.0161072
0.0551921
0.112663
0.176087
0.235511
0.285619
0.324075
0.350415
0.365813
0.372618
0.373749
0.362751
0.330894
0.272108
0.189031
0.099996
0.03224
0.00112796
0.000350273
0
0
0
1.78427e-09
4.09302e-07
6.19351e-06
8.02461e-06
6.45763e-06
5.90595e-06
6.03266e-06
6.14161e-06
6.14188e-06
6.1281e-06
6.12594e-06
6.12558e-06
6.12417e-06
6.12341e-06
6.12337e-06
6.12336e-06
6.12322e-06
6.1231e-06
6.12304e-06
6.12303e-06
6.12301e-06
6.12298e-06
6.12296e-06
6.12293e-06
6.12287e-06
6.12272e-06
6.12245e-06
6.12204e-06
6.12147e-06
6.12072e-06
6.1198e-06
6.11872e-06
6.11746e-06
6.11593e-06
6.11389e-06
6.11119e-06
6.10772e-06
6.10393e-06
6.1007e-06
6.09788e-06
6.09452e-06
6.09045e-06
6.08577e-06
6.08094e-06
6.07552e-06
6.07251e-06
6.07375e-06
6.08021e-06
6.08131e-06
6.11122e-06
6.11229e-06
6.26766e-06
2.12917e-08
9.69706e-11
0
0
1.43877e-09
0.00209041
0.00821489
0.0366839
0.0875633
0.150379
0.213179
0.26828
0.31193
0.342839
0.361581
0.370722
0.372994
0.36436
0.336088
0.281257
0.20117
0.112021
0.0397276
0.00354638
0.000990984
0
0
0
2.81686e-10
5.46054e-08
5.08056e-06
8.71319e-06
6.96658e-06
5.98127e-06
5.99203e-06
6.12059e-06
6.13249e-06
6.1186e-06
6.12142e-06
6.12679e-06
6.12671e-06
6.12486e-06
6.12407e-06
6.12408e-06
6.12413e-06
6.12408e-06
6.12403e-06
6.12401e-06
6.12398e-06
6.12395e-06
6.12393e-06
6.12387e-06
6.12374e-06
6.12348e-06
6.12309e-06
6.12253e-06
6.12179e-06
6.12088e-06
6.11979e-06
6.11853e-06
6.117e-06
6.11499e-06
6.11231e-06
6.10883e-06
6.10497e-06
6.10165e-06
6.09878e-06
6.0954e-06
6.09129e-06
6.08652e-06
6.08159e-06
6.07603e-06
6.07266e-06
6.07362e-06
6.08006e-06
6.08097e-06
6.11204e-06
6.11378e-06
8.02323e-06
6.44612e-06
8.0631e-08
3.77438e-10
0
0
0
0.000624299
0.00229428
0.0212164
0.0633336
0.122988
0.187863
0.247789
0.297033
0.333188
0.356238
0.368288
0.371876
0.365531
0.340763
0.289974
0.213226
0.123972
0.0476105
0.00672857
0.00181228
0
0
0
1.35308e-12
4.72008e-11
2.77017e-06
8.23747e-06
7.299e-06
6.07711e-06
5.99545e-06
6.16673e-06
6.18333e-06
6.13366e-06
6.11467e-06
6.12071e-06
6.12664e-06
6.1269e-06
6.12557e-06
6.12502e-06
6.12503e-06
6.12509e-06
6.12507e-06
6.12503e-06
6.125e-06
6.12497e-06
6.12492e-06
6.12481e-06
6.12457e-06
6.12419e-06
6.12364e-06
6.12292e-06
6.12201e-06
6.12092e-06
6.11965e-06
6.11813e-06
6.11615e-06
6.1135e-06
6.11e-06
6.10608e-06
6.10267e-06
6.09974e-06
6.09633e-06
6.09218e-06
6.08733e-06
6.0823e-06
6.0766e-06
6.07286e-06
6.07348e-06
6.07989e-06
6.08063e-06
6.11283e-06
6.11537e-06
6.22968e-06
7.79488e-06
6.35236e-06
4.85123e-07
2.2615e-09
0
0
0
1.14227e-06
0.00262523
0.0102358
0.042126
0.0955633
0.160487
0.22465
0.279761
0.321738
0.349651
0.364946
0.36995
0.365759
0.344418
0.29774
0.224251
0.135206
0.0555164
0.010219
0.00269896
0
0
0
6.72289e-17
7.90583e-09
1.93108e-06
7.90292e-06
7.69408e-06
6.00434e-06
5.67761e-06
5.98239e-06
6.1814e-06
6.18068e-06
6.13516e-06
6.11899e-06
6.12259e-06
6.12673e-06
6.12713e-06
6.12639e-06
6.12608e-06
6.12612e-06
6.12615e-06
6.12612e-06
6.12608e-06
6.12603e-06
6.12593e-06
6.12571e-06
6.12535e-06
6.12482e-06
6.1241e-06
6.12319e-06
6.1221e-06
6.12084e-06
6.11933e-06
6.11737e-06
6.11474e-06
6.11125e-06
6.10726e-06
6.10375e-06
6.10076e-06
6.09732e-06
6.09314e-06
6.0882e-06
6.08306e-06
6.07721e-06
6.0731e-06
6.07335e-06
6.07971e-06
6.08027e-06
6.11357e-06
6.11701e-06
6.01573e-06
6.22526e-06
7.45013e-06
6.46153e-06
1.83128e-06
8.40093e-09
4.35413e-16
0
0
0
0.000949276
0.00357164
0.0244659
0.0682922
0.129659
0.196606
0.258185
0.307622
0.342151
0.362037
0.369474
0.36709
0.348896
0.306452
0.236536
0.14814
0.0650901
0.0135432
0.00395217
0.000114464
0
0
0
3.09821e-09
6.98679e-07
6.87527e-06
9.7294e-06
7.60338e-06
6.04786e-06
5.79269e-06
6.00645e-06
6.1534e-06
6.16351e-06
6.13562e-06
6.12364e-06
6.12508e-06
6.12758e-06
6.12785e-06
6.1274e-06
6.12723e-06
6.12724e-06
6.12724e-06
6.1272e-06
6.1271e-06
6.1269e-06
6.12656e-06
6.12605e-06
6.12535e-06
6.12445e-06
6.12336e-06
6.12209e-06
6.12058e-06
6.11865e-06
6.11606e-06
6.11258e-06
6.10852e-06
6.10491e-06
6.10185e-06
6.09838e-06
6.09416e-06
6.08914e-06
6.08388e-06
6.07789e-06
6.07341e-06
6.07323e-06
6.07951e-06
6.07992e-06
6.11431e-06
6.11879e-06
6.13428e-06
6.06373e-06
6.20108e-06
6.77351e-06
6.64575e-06
4.56764e-06
1.7428e-07
8.41203e-10
4.08768e-18
0
0
3.08699e-06
0.00247495
0.00948635
0.0352555
0.0805682
0.140516
0.205014
0.264251
0.311544
0.343843
0.361344
0.364861
0.354172
0.322602
0.265224
0.186307
0.102709
0.0405639
0.00590229
0.0019709
1.5681e-05
0
0
5.92321e-13
1.96918e-09
2.64292e-07
4.54058e-06
8.45149e-06
7.64961e-06
6.28872e-06
5.88227e-06
5.99783e-06
6.13274e-06
6.15577e-06
6.13559e-06
6.12543e-06
6.1267e-06
6.12888e-06
6.12911e-06
6.12876e-06
6.12863e-06
6.12863e-06
6.12859e-06
6.12842e-06
6.1281e-06
6.12761e-06
6.12693e-06
6.12604e-06
6.12495e-06
6.12366e-06
6.12216e-06
6.12025e-06
6.1177e-06
6.11423e-06
6.1101e-06
6.10636e-06
6.10319e-06
6.09967e-06
6.09541e-06
6.09028e-06
6.08487e-06
6.07872e-06
6.07381e-06
6.07309e-06
6.0793e-06
6.07956e-06
6.11496e-06
6.12068e-06
6.13876e-06
6.13459e-06
6.07952e-06
6.13201e-06
6.39226e-06
7.24199e-06
6.07768e-06
3.10324e-06
2.78128e-09
1.66079e-11
0
0
0
4.25212e-05
0.00231286
0.00855944
0.0315899
0.0738223
0.13139
0.195286
0.255495
0.30448
0.338421
0.356342
0.358317
0.34249
0.302911
0.238037
0.158251
0.082318
0.0297252
0.00260686
0.000953365
0
0
0
1.28971e-13
2.33446e-09
4.44321e-07
5.21127e-06
8.57013e-06
7.39808e-06
6.14309e-06
5.89343e-06
6.05156e-06
6.15563e-06
6.1536e-06
6.13232e-06
6.12719e-06
6.12972e-06
6.13107e-06
6.13087e-06
6.13056e-06
6.13042e-06
6.13026e-06
6.12998e-06
6.12953e-06
6.12886e-06
6.12798e-06
6.12688e-06
6.12558e-06
6.12406e-06
6.12217e-06
6.11966e-06
6.11622e-06
6.112e-06
6.1081e-06
6.10479e-06
6.10119e-06
6.09687e-06
6.09163e-06
6.08604e-06
6.0797e-06
6.07433e-06
6.07297e-06
6.07906e-06
6.07922e-06
6.11561e-06
6.12269e-06
6.12752e-06
6.13257e-06
6.12682e-06
6.10601e-06
6.09606e-06
6.28429e-06
6.77956e-06
7.27976e-06
5.33979e-06
1.06622e-06
5.01691e-09
1.63992e-16
0
0
0
3.79067e-05
0.00202495
0.00741895
0.0294691
0.070735
0.127818
0.191956
0.252954
0.302744
0.33681
0.352897
0.350751
0.32684
0.27728
0.206165
0.127503
0.0595715
0.016661
0.00468958
0.000120707
0
0
0
2.69748e-13
6.57901e-09
1.43748e-06
7.14844e-06
8.30724e-06
6.69589e-06
5.91148e-06
5.94733e-06
6.1171e-06
6.16185e-06
6.14214e-06
6.12949e-06
6.12994e-06
6.13204e-06
6.1325e-06
6.13242e-06
6.1323e-06
6.13202e-06
6.13155e-06
6.13089e-06
6.13002e-06
6.12892e-06
6.1276e-06
6.12607e-06
6.12419e-06
6.12172e-06
6.11831e-06
6.11404e-06
6.10999e-06
6.10651e-06
6.10282e-06
6.09844e-06
6.09309e-06
6.08731e-06
6.08078e-06
6.07496e-06
6.0729e-06
6.0788e-06
6.07888e-06
6.11617e-06
6.12471e-06
6.12538e-06
6.12781e-06
6.12679e-06
6.11755e-06
6.09012e-06
6.1672e-06
6.41944e-06
7.21868e-06
6.82169e-06
4.21684e-06
8.84741e-08
4.31244e-10
0
0
0
0
3.02723e-05
0.00201257
0.00739959
0.029592
0.0712381
0.128962
0.193895
0.255426
0.304719
0.336661
0.347865
0.33847
0.304601
0.24581
0.170578
0.094688
0.0376005
0.00637362
0.00190971
0
0
0
0
8.1198e-10
1.58902e-07
4.44319e-06
8.71323e-06
7.55724e-06
6.17411e-06
5.90245e-06
6.06323e-06
6.15907e-06
6.15457e-06
6.13741e-06
6.13394e-06
6.13466e-06
6.1344e-06
6.13399e-06
6.13389e-06
6.13365e-06
6.13307e-06
6.13219e-06
6.13107e-06
6.12974e-06
6.12819e-06
6.12631e-06
6.12388e-06
6.12053e-06
6.11622e-06
6.11202e-06
6.10837e-06
6.10456e-06
6.10012e-06
6.09467e-06
6.0887e-06
6.08195e-06
6.07571e-06
6.07288e-06
6.07851e-06
6.07851e-06
6.1166e-06
6.12673e-06
6.1239e-06
6.12451e-06
6.12547e-06
6.12758e-06
6.11862e-06
6.10595e-06
6.08468e-06
6.25712e-06
6.68276e-06
7.34701e-06
6.07395e-06
1.71971e-06
8.14474e-09
2.57525e-16
0
0
0
0
3.46076e-05
0.00225515
0.00838115
0.0320438
0.0754857
0.134997
0.200995
0.262159
0.308918
0.335918
0.340343
0.321258
0.27631
0.208666
0.131519
0.0628855
0.0193331
0.0052803
9.15984e-05
0
0
0
1.34165e-12
2.64373e-11
1.6543e-06
7.40653e-06
8.18457e-06
6.54647e-06
5.91369e-06
5.99552e-06
6.12908e-06
6.14754e-06
6.13393e-06
6.13349e-06
6.13763e-06
6.13803e-06
6.1366e-06
6.13567e-06
6.13515e-06
6.13443e-06
6.13335e-06
6.132e-06
6.13042e-06
6.12854e-06
6.12616e-06
6.12287e-06
6.11855e-06
6.11422e-06
6.11038e-06
6.10642e-06
6.10191e-06
6.09636e-06
6.0902e-06
6.08324e-06
6.07658e-06
6.07293e-06
6.07819e-06
6.07813e-06
6.11691e-06
6.12873e-06
6.12378e-06
6.124e-06
6.12423e-06
6.12511e-06
6.12608e-06
6.12437e-06
6.11075e-06
6.08611e-06
6.12697e-06
6.3463e-06
7.0786e-06
7.00351e-06
4.55184e-06
1.10469e-07
5.465e-10
5.92939e-20
0
0
0
0
5.24738e-05
0.00258995
0.00965353
0.0366289
0.0836033
0.145885
0.212738
0.271992
0.314087
0.333371
0.328504
0.297509
0.240521
0.166103
0.0913829
0.0348673
0.0049871
0.0014899
4.36786e-07
0
0
2.00359e-17
1.59028e-09
3.40829e-07
5.56296e-06
8.55504e-06
7.07802e-06
6.05139e-06
6.00785e-06
6.16191e-06
6.18141e-06
6.14203e-06
6.12745e-06
6.13342e-06
6.13872e-06
6.13907e-06
6.13784e-06
6.13676e-06
6.1357e-06
6.13439e-06
6.1328e-06
6.13091e-06
6.12856e-06
6.12535e-06
6.12105e-06
6.11661e-06
6.11258e-06
6.10844e-06
6.10385e-06
6.0982e-06
6.09186e-06
6.08466e-06
6.07761e-06
6.07309e-06
6.07785e-06
6.0777e-06
6.11703e-06
6.1307e-06
6.1241e-06
6.12429e-06
6.12448e-06
6.12463e-06
6.12521e-06
6.12591e-06
6.12702e-06
6.11818e-06
6.10235e-06
6.07219e-06
6.20597e-06
6.57281e-06
7.41524e-06
5.74661e-06
2.3903e-06
2.05137e-11
2.97513e-13
0
0
0
0
0
0.000358111
0.00110827
0.0135935
0.0445099
0.0963985
0.161812
0.228555
0.283697
0.318286
0.3272
0.3101
0.265299
0.197227
0.120659
0.054504
0.0143753
0.000828959
0.000265033
0
0
0
9.38176e-11
1.47956e-08
3.11734e-06
8.22427e-06
7.37328e-06
5.92539e-06
5.74922e-06
6.05534e-06
6.2087e-06
6.18821e-06
6.14673e-06
6.13544e-06
6.1381e-06
6.14002e-06
6.13952e-06
6.13826e-06
6.13685e-06
6.13524e-06
6.13335e-06
6.13103e-06
6.12789e-06
6.12364e-06
6.11913e-06
6.1149e-06
6.11055e-06
6.10586e-06
6.10013e-06
6.09361e-06
6.08617e-06
6.07872e-06
6.07334e-06
6.07754e-06
6.07728e-06
6.11711e-06
6.13259e-06
6.12469e-06
6.12486e-06
6.12505e-06
6.12521e-06
6.12542e-06
6.12564e-06
6.12657e-06
6.12732e-06
6.12613e-06
6.11147e-06
6.08743e-06
6.09421e-06
6.35521e-06
6.92975e-06
7.29564e-06
4.46143e-06
6.28913e-07
2.97781e-09
7.37422e-16
0
0
0
0
5.38625e-08
0.00060367
0.00194442
0.0186656
0.0564586
0.114163
0.182315
0.246888
0.294776
0.317931
0.313731
0.280884
0.221308
0.145965
0.0740452
0.0255707
0.00321767
0.000743494
0
0
0
1.42686e-14
6.82558e-09
1.62306e-06
8.79403e-06
9.74247e-06
6.954e-06
5.77352e-06
5.81329e-06
6.07155e-06
6.16803e-06
6.161e-06
6.14523e-06
6.14134e-06
6.14152e-06
6.14104e-06
6.13972e-06
6.13806e-06
6.13614e-06
6.13384e-06
6.13079e-06
6.12661e-06
6.12207e-06
6.11766e-06
6.11307e-06
6.10823e-06
6.1024e-06
6.09572e-06
6.08799e-06
6.08021e-06
6.07385e-06
6.0771e-06
6.07675e-06
6.11656e-06
6.13454e-06
6.12517e-06
6.12534e-06
6.12553e-06
6.12572e-06
6.12592e-06
6.12611e-06
6.12632e-06
6.12688e-06
6.12786e-06
6.12883e-06
6.12206e-06
6.1023e-06
6.07222e-06
6.19647e-06
6.5798e-06
7.41596e-06
6.54245e-06
3.39655e-06
1.98745e-07
9.86374e-10
7.08155e-16
0
0
0
0
6.23579e-07
0.00153018
0.00564357
0.0284703
0.0743036
0.139091
0.210454
0.272566
0.312599
0.322598
0.301578
0.249436
0.173971
0.0943827
0.0310236
0.00927966
0.00105582
0.000448889
0.000137282
2.14294e-06
0
4.72478e-12
2.82144e-12
2.59689e-06
8.46998e-06
8.36878e-06
6.68616e-06
6.06195e-06
6.04994e-06
6.12654e-06
6.15035e-06
6.14775e-06
6.14424e-06
6.14293e-06
6.14181e-06
6.14023e-06
6.1383e-06
6.136e-06
6.13303e-06
6.12893e-06
6.12439e-06
6.11982e-06
6.11501e-06
6.11002e-06
6.10415e-06
6.09729e-06
6.08942e-06
6.08118e-06
6.07426e-06
6.07703e-06
6.07642e-06
6.11716e-06
6.13597e-06
6.12569e-06
6.12591e-06
6.12614e-06
6.12638e-06
6.12663e-06
6.1269e-06
6.12715e-06
6.12743e-06
6.12773e-06
6.12872e-06
6.12978e-06
6.13053e-06
6.11585e-06
6.09539e-06
6.07924e-06
6.3096e-06
6.8447e-06
7.41299e-06
6.31058e-06
3.26767e-06
1.52267e-07
5.82258e-10
0
0
0
0
0
3.09185e-05
0.00173143
0.00594069
0.0276408
0.0690086
0.12597
0.188264
0.242907
0.278904
0.288035
0.267673
0.219476
0.153549
0.0889311
0.0431279
0.0174914
0.00558752
0.00105725
0.000233751
0
3.48949e-18
2.37009e-09
4.75864e-07
3.84566e-06
6.32792e-06
6.5116e-06
6.24309e-06
6.14147e-06
6.13993e-06
6.14848e-06
6.14968e-06
6.14834e-06
6.14689e-06
6.14528e-06
6.14334e-06
6.14102e-06
6.13813e-06
6.1342e-06
6.12975e-06
6.12502e-06
6.11978e-06
6.11443e-06
6.10828e-06
6.10127e-06
6.09282e-06
6.08429e-06
6.07561e-06
6.077e-06
6.07569e-06
6.11447e-06
6.13951e-06
)
;

boundaryField
{
    inlet
    {
        type            freestream;
        freestreamValue uniform 1e-05;
        value           nonuniform List<scalar> 
27
(
6.10199e-06
6.10233e-06
6.10276e-06
6.10328e-06
6.10389e-06
6.10459e-06
6.10539e-06
6.10629e-06
6.10729e-06
6.10839e-06
6.10959e-06
6.11089e-06
6.11229e-06
6.11378e-06
6.11537e-06
6.11701e-06
6.11879e-06
6.12068e-06
6.12269e-06
6.12471e-06
6.12673e-06
6.12873e-06
6.1307e-06
6.13259e-06
6.13454e-06
6.13597e-06
6.13951e-06
)
;
    }
    outlet
    {
        type            freestream;
        freestreamValue uniform 1e-05;
        value           nonuniform List<scalar> 
78
(
6.12569e-06
6.12591e-06
6.12614e-06
6.12638e-06
6.12663e-06
6.1269e-06
6.12715e-06
6.12743e-06
6.12773e-06
6.12872e-06
6.12978e-06
6.13053e-06
6.11585e-06
6.09539e-06
6.07924e-06
6.3096e-06
6.8447e-06
7.41299e-06
6.31058e-06
3.26767e-06
1.52267e-07
5.82258e-10
0
0
0
0
0
3.09185e-05
0.00173143
0.00594069
0.0276408
0.0690086
0.12597
0.188264
0.242907
0.278904
0.288035
0.267673
0.219476
0.153549
0.0889311
0.0431279
0.0174914
0.00558752
0.00105725
0.000233751
0
3.48949e-18
2.37009e-09
4.75864e-07
3.84566e-06
6.32792e-06
6.5116e-06
6.24309e-06
6.14147e-06
6.13993e-06
6.14848e-06
6.14968e-06
6.14834e-06
6.14689e-06
6.14528e-06
6.14334e-06
6.14102e-06
6.13813e-06
6.1342e-06
6.12975e-06
6.12502e-06
6.11978e-06
6.11443e-06
6.10828e-06
6.10127e-06
6.09282e-06
6.08429e-06
6.07561e-06
6.077e-06
6.07569e-06
6.11447e-06
6.13951e-06
)
;
    }
    walls
    {
        type            nutUSpaldingWallFunction;
        value           nonuniform List<scalar> 0();
    }
    frontAndBack
    {
        type            empty;
    }
    procBoundary7to3
    {
        type            processor;
        value           nonuniform List<scalar> 
16
(
5.75369e-06
7.91973e-06
6.32173e-06
6.01761e-06
6.13173e-06
6.14628e-06
6.13157e-06
6.12628e-06
6.12461e-06
6.12461e-06
6.12371e-06
6.12355e-06
6.12392e-06
6.12453e-06
6.12499e-06
6.12548e-06
)
;
    }
    procBoundary7to6
    {
        type            processor;
        value           nonuniform List<scalar> 
91
(
6.10177e-06
6.10214e-06
6.10214e-06
6.08339e-06
6.08339e-06
6.08144e-06
6.08144e-06
6.07236e-06
6.07461e-06
6.07461e-06
6.07706e-06
6.07287e-06
6.07287e-06
6.08966e-06
6.08588e-06
6.08175e-06
6.08175e-06
6.09892e-06
6.09609e-06
6.09346e-06
6.09346e-06
6.1113e-06
6.10917e-06
6.10642e-06
6.10307e-06
6.10307e-06
6.11772e-06
6.11695e-06
6.11603e-06
6.11496e-06
6.11371e-06
6.11371e-06
6.12027e-06
6.12025e-06
6.12022e-06
6.12013e-06
6.11994e-06
6.11963e-06
6.11918e-06
6.11918e-06
6.12361e-06
6.123e-06
6.12242e-06
6.122e-06
6.1217e-06
6.12149e-06
6.12136e-06
6.12127e-06
6.12122e-06
6.12119e-06
6.12118e-06
6.12116e-06
6.12116e-06
6.4722e-16
0
0
0.00119953
0.00469084
0.0287833
0.0763086
0.13721
0.199168
0.254604
0.299951
0.333766
0.35618
0.368979
0.374735
0.374524
0.360824
0.325197
0.262506
0.176656
0.0877888
0.0258238
0.00675815
2.17132e-06
0
0
0
4.87909e-09
1.17803e-06
7.07519e-06
7.69617e-06
6.31301e-06
5.96768e-06
6.08915e-06
6.14894e-06
6.13479e-06
6.12308e-06
6.12308e-06
)
;
    }
}


// ************************************************************************* //
