/*--------------------------------*- C++ -*----------------------------------*\
| =========                 |                                                 |
| \\      /  F ield         | OpenFOAM: The Open Source CFD Toolbox           |
|  \\    /   O peration     | Version:  2306                                  |
|   \\  /    A nd           | Website:  www.openfoam.com                      |
|    \\/     M anipulation  |                                                 |
\*---------------------------------------------------------------------------*/
FoamFile
{
    version     2.0;
    format      ascii;
    arch        "LSB;label=32;scalar=64";
    class       volScalarField;
    location    "775";
    object      turbulenceProperties:epsilon;
}
// * * * * * * * * * * * * * * * * * * * * * * * * * * * * * * * * * * * * * //

dimensions      [0 2 -3 0 0 0 0];

internalField   nonuniform List<scalar> 
1340
(
6.71412e-10
3.87686e-10
6.91143e-10
3.64615e-10
3.63916e-10
6.90708e-10
6.34846e-11
3.55314e-10
3.48588e-10
6.96395e-10
5.06889e-11
1.70845e-10
6.23023e-11
3.47967e-10
3.35788e-10
7.05828e-10
1.02683e-10
1.41703e-10
4.76865e-11
1.64611e-10
6.10906e-11
3.41395e-10
3.25606e-10
7.15467e-10
2.04284e-10
1.57406e-10
1.57398e-10
9.46179e-11
1.3391e-10
4.46343e-11
1.58635e-10
5.99244e-11
3.35801e-10
3.18386e-10
7.2455e-10
2.72685e-10
2.40096e-10
2.03468e-10
1.86856e-10
1.43614e-10
1.45904e-10
8.67678e-11
1.26262e-10
4.15894e-11
1.53039e-10
5.87963e-11
3.31291e-10
3.13869e-10
7.32889e-10
4.39191e-10
3.81389e-10
3.29811e-10
2.84316e-10
2.43126e-10
2.15639e-10
1.83134e-10
1.69978e-10
1.30335e-10
1.34682e-10
7.91943e-11
1.18799e-10
3.85824e-11
1.47759e-10
5.77118e-11
3.276e-10
3.11391e-10
7.41717e-10
7.03081e-10
6.24338e-10
5.52668e-10
4.87786e-10
4.29305e-10
3.76793e-10
3.29868e-10
2.87506e-10
2.4996e-10
2.15153e-10
1.92331e-10
1.63721e-10
1.53686e-10
1.17587e-10
1.23748e-10
7.19042e-11
1.11501e-10
3.56286e-11
1.42683e-10
5.66899e-11
3.24448e-10
3.10504e-10
7.49586e-10
1.1292e-09
1.03708e-09
9.48584e-10
8.6413e-10
7.84177e-10
7.08995e-10
6.3878e-10
5.73609e-10
5.13465e-10
4.58224e-10
4.07725e-10
3.61786e-10
3.20129e-10
2.82637e-10
2.48376e-10
2.17897e-10
1.88885e-10
1.70284e-10
1.45324e-10
1.3807e-10
1.05429e-10
1.13154e-10
6.49358e-11
1.04377e-10
3.27528e-11
1.37761e-10
5.57238e-11
3.21712e-10
3.11664e-10
7.574e-10
1.62966e-09
1.57714e-09
1.52192e-09
1.46398e-09
1.40338e-09
1.3403e-09
1.27511e-09
1.20824e-09
1.14018e-09
1.07155e-09
1.00285e-09
9.34641e-10
8.67513e-10
8.01955e-10
7.38468e-10
6.77389e-10
6.19101e-10
5.63856e-10
5.11849e-10
4.63194e-10
4.17925e-10
3.75997e-10
3.37321e-10
3.01825e-10
2.69321e-10
2.39876e-10
2.1262e-10
1.88324e-10
1.645e-10
1.49658e-10
1.28078e-10
1.23249e-10
9.39489e-11
1.02972e-10
5.83323e-11
9.74542e-11
2.99866e-11
1.33e-10
5.47902e-11
3.1933e-10
3.13918e-10
7.65144e-10
1.73601e-13
3.28413e-16
0
0
4.35146e-07
6.30932e-07
0.000134308
0.00628615
0.0460419
0.144237
0.270943
0.353827
0.334214
0.214183
0.0683826
0.000757844
0.0619771
0.196281
0.27662
0.225111
0.101195
0.0203734
0.00112665
1.14713e-06
5.99e-08
0
0
0
2.58332e-13
8.98163e-11
1.49907e-09
1.86548e-09
1.44399e-09
1.27125e-09
1.25844e-09
1.24603e-09
1.2126e-09
1.17649e-09
1.14186e-09
1.10603e-09
1.06808e-09
1.02814e-09
9.86326e-10
9.42699e-10
8.97509e-10
8.51094e-10
8.03895e-10
7.56315e-10
7.08723e-10
6.61531e-10
6.15141e-10
5.69918e-10
5.26123e-10
4.84057e-10
4.43931e-10
4.05905e-10
3.70096e-10
3.36554e-10
3.05255e-10
2.76145e-10
2.49212e-10
2.24306e-10
2.0162e-10
1.80329e-10
1.61355e-10
1.42107e-10
1.30561e-10
1.12079e-10
1.0932e-10
8.32052e-11
9.32587e-11
5.2138e-11
9.0739e-11
2.73514e-11
1.28304e-10
5.39193e-11
3.1715e-10
3.17444e-10
7.72848e-10
5.01782e-10
7.23468e-13
1.51766e-15
0
0
1.52923e-12
5.48259e-06
4.38929e-06
0.00152188
0.0190658
0.0802032
0.181513
0.270456
0.286081
0.209248
0.0862501
0.00534451
0.0286216
0.132542
0.216626
0.196406
0.0988836
0.0231914
0.00164468
6.28551e-06
1.56177e-07
0
0
0
2.43363e-14
6.83873e-12
8.55355e-10
1.41011e-09
1.08734e-09
8.98592e-10
8.73206e-10
8.69261e-10
8.48981e-10
8.24531e-10
8.01492e-10
7.7755e-10
7.51381e-10
7.23431e-10
6.94131e-10
6.63612e-10
6.31994e-10
5.99577e-10
5.66668e-10
5.33539e-10
5.00496e-10
4.67842e-10
4.35844e-10
4.04706e-10
3.74657e-10
3.45855e-10
3.18434e-10
2.92482e-10
2.68044e-10
2.45109e-10
2.23621e-10
2.03599e-10
1.84902e-10
1.67803e-10
1.51507e-10
1.37041e-10
1.21771e-10
1.13065e-10
9.73876e-11
9.63573e-11
7.32546e-11
8.40747e-11
4.63731e-11
8.42565e-11
2.48509e-11
1.23724e-10
5.30273e-11
3.15056e-10
3.21068e-10
7.81073e-10
5.24105e-10
3.93749e-10
2.84796e-12
5.03685e-15
0
0
0
1.71514e-06
1.25511e-06
0.000223099
0.00642626
0.0397471
0.113568
0.198078
0.237255
0.197217
0.0997195
0.0151637
0.00989463
0.0852001
0.166171
0.168797
0.0949463
0.0255757
0.00225809
1.9116e-05
1.94252e-07
0
0
0
4.37121e-17
1.71775e-15
3.0964e-10
9.24027e-10
7.98998e-10
6.40294e-10
6.1111e-10
6.12843e-10
6.00091e-10
5.80203e-10
5.62276e-10
5.45593e-10
5.27733e-10
5.08208e-10
4.87486e-10
4.65907e-10
4.43667e-10
4.20962e-10
3.97975e-10
3.74949e-10
3.52105e-10
3.29648e-10
3.07738e-10
2.86534e-10
2.66154e-10
2.46705e-10
2.28242e-10
2.10811e-10
1.94373e-10
1.78896e-10
1.64385e-10
1.50696e-10
1.38161e-10
1.26003e-10
1.15286e-10
1.03449e-10
9.71516e-11
8.40046e-11
8.43692e-11
6.41064e-11
7.54136e-11
4.1052e-11
7.80289e-11
2.25017e-11
1.19042e-10
5.20903e-11
3.13536e-10
3.24872e-10
7.89809e-10
3.18128e-10
3.8776e-10
3.25953e-10
1.67458e-11
2.63169e-14
0
0
0
2.72989e-09
4.82331e-06
1.09405e-05
0.00164567
0.0170713
0.0654717
0.138292
0.190621
0.180078
0.107983
0.0267957
0.00175624
0.0520561
0.125581
0.143597
0.0896251
0.0272438
0.00287403
3.89617e-05
2.48769e-07
0
0
0
5.35483e-22
4.06452e-13
1.409e-10
5.94641e-10
5.86167e-10
4.47786e-10
4.08988e-10
4.18677e-10
4.22117e-10
4.11569e-10
3.97141e-10
3.83724e-10
3.70663e-10
3.56836e-10
3.42054e-10
3.26631e-10
3.1084e-10
2.9482e-10
2.78743e-10
2.62762e-10
2.47049e-10
2.31711e-10
2.16866e-10
2.02618e-10
1.89019e-10
1.76122e-10
1.63934e-10
1.52439e-10
1.41581e-10
1.31352e-10
1.21615e-10
1.12702e-10
1.03894e-10
9.6224e-11
8.72522e-11
8.29658e-11
7.20321e-11
7.35067e-11
5.58054e-11
6.74327e-11
3.61507e-11
7.21638e-11
2.0154e-11
1.14754e-10
5.08048e-11
3.11977e-10
3.2932e-10
8.01926e-10
2.44391e-10
2.40784e-10
3.01142e-10
2.53008e-10
5.49995e-11
8.75744e-14
4.80426e-22
0
0
0
2.10781e-06
7.22266e-07
0.000252414
0.00566047
0.0320282
0.0870951
0.14418
0.159076
0.114035
0.0411692
0.000752658
0.0269586
0.0903686
0.120664
0.0854475
0.0300231
0.00393316
8.10642e-05
1.42928e-07
4.13344e-08
0
0
0
1.28041e-13
3.51116e-11
3.41687e-10
4.86925e-10
3.85696e-10
3.00851e-10
2.79672e-10
2.82103e-10
2.81465e-10
2.74014e-10
2.64154e-10
2.54362e-10
2.44562e-10
2.34368e-10
2.2375e-10
2.12906e-10
2.02037e-10
1.91201e-10
1.80554e-10
1.70181e-10
1.60153e-10
1.50559e-10
1.41425e-10
1.328e-10
1.2465e-10
1.16995e-10
1.09758e-10
1.02914e-10
9.63531e-11
9.03555e-11
8.42808e-11
7.91395e-11
7.26024e-11
6.9988e-11
6.10988e-11
6.33759e-11
4.81995e-11
5.97453e-11
3.17641e-11
6.61907e-11
1.8231e-11
1.09834e-10
4.98786e-11
3.09414e-10
3.33387e-10
8.09595e-10
1.89819e-10
1.78326e-10
1.85598e-10
1.97284e-10
1.82088e-10
1.09837e-10
2.24426e-12
3.87658e-15
1.59779e-24
0
0
4.08566e-09
2.02826e-06
5.37591e-06
0.000665542
0.00724884
0.0308785
0.0723551
0.107531
0.105252
0.0621237
0.0132652
0.00251597
0.0375454
0.0772513
0.0756201
0.0391195
0.00954505
0.00084275
6.88803e-06
2.29536e-07
3.34387e-09
0
0
6.55804e-18
4.40137e-14
7.33933e-12
1.3666e-10
2.55499e-10
2.34957e-10
1.9123e-10
1.74289e-10
1.72785e-10
1.71752e-10
1.67212e-10
1.61015e-10
1.54716e-10
1.48414e-10
1.41973e-10
1.35433e-10
1.28856e-10
1.22401e-10
1.16131e-10
1.10105e-10
1.04354e-10
9.89185e-11
9.38367e-11
8.90741e-11
8.46454e-11
8.04688e-11
7.6536e-11
7.27243e-11
6.92803e-11
6.56443e-11
6.2716e-11
5.85036e-11
5.72866e-11
5.05627e-11
5.32423e-11
4.10159e-11
5.1644e-11
2.79855e-11
5.88538e-11
1.68383e-11
9.98139e-11
4.52999e-11
2.8224e-10
3.00898e-10
6.98584e-10
1.35865e-10
1.308e-10
1.32029e-10
1.2916e-10
1.27143e-10
1.39685e-10
1.12463e-10
4.64475e-11
1.178e-14
2.94751e-17
0
0
0
5.29909e-08
1.85658e-06
3.22389e-06
0.000419593
0.00475588
0.0209769
0.0504989
0.0757462
0.0726269
0.039694
0.00609837
0.00403154
0.0324691
0.0555733
0.0462992
0.0202166
0.0041212
0.000285628
9.02925e-07
1.14271e-07
0
0
0
6.63562e-19
2.92402e-14
7.06338e-12
8.61766e-11
1.44459e-10
1.2788e-10
1.05131e-10
9.81163e-11
9.78188e-11
9.65663e-11
9.34233e-11
8.97432e-11
8.616e-11
8.26124e-11
7.90524e-11
7.55715e-11
7.22113e-11
6.90518e-11
6.61046e-11
6.34001e-11
6.09615e-11
5.87595e-11
5.68118e-11
5.50253e-11
5.34032e-11
5.18136e-11
5.04537e-11
4.88606e-11
4.7771e-11
4.55479e-11
4.55464e-11
4.0764e-11
4.38194e-11
3.41652e-11
4.42332e-11
2.41296e-11
5.28658e-11
1.54031e-11
9.46338e-11
4.55478e-11
2.79881e-10
3.1497e-10
7.10316e-10
9.37608e-11
9.11834e-11
9.36292e-11
9.17856e-11
8.73883e-11
8.61094e-11
9.09916e-11
9.67358e-11
6.42097e-11
8.12212e-12
1.2568e-14
5.53522e-23
0
0
0
5.79689e-08
1.86976e-06
1.717e-06
0.000311658
0.00368424
0.0164034
0.0391506
0.056934
0.0509691
0.0237337
0.00165133
0.00678885
0.029552
0.0398379
0.0270584
0.00947046
0.00144554
5.64283e-05
6.30656e-08
1.8455e-08
0
0
0
8.39282e-19
4.51691e-14
1.2468e-11
6.22712e-11
7.58151e-11
6.23613e-11
5.39062e-11
5.24532e-11
5.21967e-11
5.08416e-11
4.8873e-11
4.69029e-11
4.50689e-11
4.33334e-11
4.17022e-11
4.02541e-11
3.89985e-11
3.79592e-11
3.7149e-11
3.65533e-11
3.61678e-11
3.59238e-11
3.5816e-11
3.57159e-11
3.57664e-11
3.55875e-11
3.57764e-11
3.49761e-11
3.58465e-11
3.2592e-11
3.5884e-11
2.82947e-11
3.7888e-11
2.06612e-11
4.781e-11
1.38073e-11
9.06903e-11
4.49525e-11
2.80838e-10
3.25502e-10
7.20636e-10
6.14897e-11
6.38363e-11
6.32693e-11
6.10533e-11
5.8747e-11
5.75178e-11
5.86821e-11
6.55325e-11
6.03593e-11
3.08762e-11
2.86349e-13
6.21179e-16
0
0
0
0
4.94946e-08
1.71312e-06
1.7815e-06
0.000292963
0.00330203
0.0141064
0.0320392
0.0433413
0.0343522
0.0121102
5.4834e-05
0.00976956
0.0258401
0.0269797
0.0144364
0.003755
0.000370663
4.5735e-06
8.45324e-08
0
0
0
0
3.19823e-15
6.5739e-13
1.85427e-11
3.75925e-11
3.47369e-11
2.84608e-11
2.63535e-11
2.60917e-11
2.55905e-11
2.46774e-11
2.37573e-11
2.29705e-11
2.23155e-11
2.18299e-11
2.15185e-11
2.14029e-11
2.14939e-11
2.17825e-11
2.226e-11
2.28712e-11
2.3614e-11
2.43696e-11
2.52404e-11
2.59073e-11
2.68532e-11
2.69561e-11
2.83335e-11
2.62107e-11
2.95487e-11
2.35992e-11
3.26404e-11
1.78314e-11
4.3525e-11
1.24541e-11
8.75442e-11
4.41221e-11
2.83238e-10
3.31218e-10
7.30127e-10
4.0188e-11
4.21372e-11
4.19551e-11
4.09115e-11
3.99777e-11
3.88858e-11
3.79258e-11
3.80447e-11
4.03448e-11
4.45643e-11
3.51112e-11
7.2253e-12
1.26973e-14
5.93248e-23
0
0
0
0
5.38647e-08
1.50663e-06
3.29255e-06
0.000336218
0.00333725
0.013037
0.0270458
0.0325717
0.0213738
0.00458195
0.000902984
0.0121039
0.0211366
0.0166665
0.00660402
0.00114258
5.58056e-05
1.25519e-07
1.20701e-08
0
0
0
1.69377e-18
2.48034e-17
3.08331e-12
1.29225e-11
1.55011e-11
1.28811e-11
1.13687e-11
1.11164e-11
1.10205e-11
1.07797e-11
1.05472e-11
1.04357e-11
1.04809e-11
1.06828e-11
1.10568e-11
1.16179e-11
1.23568e-11
1.32705e-11
1.43142e-11
1.54845e-11
1.66868e-11
1.7988e-11
1.9121e-11
2.04666e-11
2.11034e-11
2.27196e-11
2.14181e-11
2.46669e-11
2.0012e-11
2.84429e-11
1.56878e-11
3.99847e-11
1.14964e-11
8.50078e-11
4.32832e-11
2.86847e-10
3.32043e-10
7.41206e-10
2.55054e-11
2.68774e-11
2.68654e-11
2.63227e-11
2.58707e-11
2.5343e-11
2.49834e-11
2.43449e-11
2.3928e-11
2.44347e-11
2.75891e-11
2.74351e-11
1.59957e-11
2.03193e-13
5.46174e-16
5.57545e-27
0
0
0
0
7.16102e-08
1.09759e-06
7.62912e-06
0.000448224
0.00370938
0.0126699
0.0229883
0.0233805
0.0114855
0.000765867
0.00328605
0.0130392
0.0155346
0.00883848
0.00235645
0.000223199
2.05315e-06
7.76648e-08
5.15052e-11
0
0
2.96544e-24
1.44991e-15
2.3715e-13
3.18219e-12
5.17225e-12
4.5629e-12
3.75597e-12
3.52278e-12
3.54093e-12
3.61802e-12
3.76794e-12
4.05198e-12
4.49262e-12
5.09181e-12
5.85222e-12
6.7724e-12
7.84822e-12
9.05231e-12
1.03744e-11
1.17472e-11
1.32125e-11
1.4546e-11
1.60394e-11
1.69383e-11
1.85857e-11
1.78355e-11
2.08994e-11
1.72437e-11
2.50345e-11
1.39919e-11
3.6955e-11
1.07217e-11
8.28585e-11
4.22257e-11
2.90762e-10
3.26247e-10
7.55358e-10
1.81129e-11
1.8966e-11
1.91097e-11
1.87635e-11
1.84235e-11
1.817e-11
1.80308e-11
1.77249e-11
1.73875e-11
1.69511e-11
1.70682e-11
1.79692e-11
2.05176e-11
1.57135e-11
5.60581e-12
1.15171e-17
1.77844e-19
0
0
0
0
0
3.67958e-07
1.84092e-07
2.24725e-05
0.000676508
0.00441476
0.012592
0.0190445
0.0152505
0.00459316
0.000107366
0.00597706
0.0119545
0.00965601
0.00368558
0.000569281
2.01006e-05
4.65796e-11
2.74969e-08
0
0
0
2.07381e-17
5.03888e-16
8.9477e-14
2.1359e-13
3.21283e-13
3.42303e-13
3.80708e-13
5.34186e-13
8.10483e-13
1.2e-12
1.71638e-12
2.37836e-12
3.19129e-12
4.14877e-12
5.24607e-12
6.46106e-12
7.78922e-12
9.17802e-12
1.06624e-11
1.20482e-11
1.35486e-11
1.45509e-11
1.6125e-11
1.5731e-11
1.85755e-11
1.56853e-11
2.28668e-11
1.32115e-11
3.49925e-11
1.05865e-11
8.17024e-11
4.09718e-11
2.95673e-10
3.08506e-10
7.85384e-10
1.20881e-11
1.28205e-11
1.28931e-11
1.26296e-11
1.23933e-11
1.23399e-11
1.23757e-11
1.20735e-11
1.20059e-11
1.19079e-11
1.16374e-11
1.14886e-11
1.19731e-11
1.30193e-11
1.37859e-11
8.2266e-12
9.63743e-13
3.53595e-15
2.94362e-22
0
0
0
0
3.71778e-11
4.69728e-07
2.61498e-08
6.13159e-05
0.00108878
0.00538664
0.0122776
0.0145809
0.00813193
0.000764661
0.00173251
0.00770915
0.00892018
0.00458211
0.000996314
6.45034e-05
1.11431e-07
8.57197e-08
0
0
0
3.18709e-21
9.95053e-16
5.10109e-14
1.01506e-12
7.01517e-13
3.65262e-13
4.33267e-13
7.18125e-13
1.14952e-12
1.67877e-12
2.30112e-12
3.03759e-12
3.88996e-12
4.85443e-12
5.90688e-12
7.04728e-12
8.23827e-12
9.51207e-12
1.07128e-11
1.19882e-11
1.28314e-11
1.40996e-11
1.37684e-11
1.6225e-11
1.38027e-11
2.02612e-11
1.16547e-11
3.21045e-11
9.31643e-12
7.87002e-11
3.78564e-11
2.94839e-10
2.77174e-10
8.36071e-10
1.40904e-11
1.44922e-11
1.44622e-11
1.41554e-11
1.38669e-11
1.36733e-11
1.35599e-11
1.32622e-11
1.3067e-11
1.28417e-11
1.24952e-11
1.21946e-11
1.19705e-11
1.19045e-11
1.22227e-11
1.32875e-11
1.13466e-11
5.78532e-12
3.31213e-13
1.79224e-15
4.4501e-22
0
0
0
0
5.54364e-10
7.08081e-07
1.02442e-06
0.000171374
0.00182352
0.00680264
0.0122209
0.0109981
0.00365994
9.6221e-05
0.00427423
0.00818347
0.00590792
0.00181867
0.000169342
3.82334e-06
1.00283e-07
9.02526e-08
1.0995e-08
2.50179e-11
0
1.9416e-19
1.78417e-19
1.59913e-12
5.67021e-12
4.97567e-12
3.80137e-12
3.63416e-12
4.02247e-12
4.61124e-12
5.29452e-12
6.07567e-12
6.96397e-12
7.94244e-12
9.00146e-12
1.01171e-11
1.1314e-11
1.24631e-11
1.3657e-11
1.44486e-11
1.55863e-11
1.53503e-11
1.76128e-11
1.55116e-11
2.1597e-11
1.34714e-11
3.35865e-11
1.05744e-11
8.17279e-11
3.4068e-11
3.0596e-10
2.28277e-10
1.02478e-09
1.03254e-11
1.04631e-11
1.05222e-11
1.06056e-11
1.06609e-11
1.07175e-11
1.08272e-11
1.09602e-11
1.10725e-11
1.11368e-11
1.1199e-11
1.13115e-11
1.14116e-11
1.15185e-11
1.16115e-11
1.21204e-11
1.30314e-11
1.36913e-11
1.14861e-11
6.54114e-12
3.47603e-13
1.39096e-15
0
0
0
0
0
2.10265e-08
4.48449e-07
1.63763e-06
0.00012845
0.00113529
0.00377911
0.00621159
0.00507046
0.00136756
0.000111173
0.00235103
0.00378751
0.00245415
0.00074358
0.000101741
4.4628e-06
5.56827e-09
2.18515e-08
2.74933e-09
0
1.57801e-25
1.11208e-15
4.82253e-13
4.90056e-12
8.06798e-12
8.1538e-12
7.84002e-12
7.87517e-12
8.12355e-12
8.44722e-12
8.80953e-12
9.20236e-12
9.61836e-12
1.00474e-11
1.05156e-11
1.09494e-11
1.14187e-11
1.1547e-11
1.18428e-11
1.11785e-11
1.25002e-11
1.05207e-11
1.50686e-11
8.1008e-12
2.45311e-11
4.74036e-12
6.50558e-11
2.33449e-11
2.53262e-10
2.27306e-10
9.98835e-10
)
;

boundaryField
{
    inlet
    {
        type            calculated;
        value           nonuniform List<scalar> 
27
(
2.83534e-08
2.84283e-08
2.85663e-08
2.87499e-08
2.89459e-08
2.91495e-08
2.93667e-08
2.95959e-08
2.98363e-08
3.00789e-08
3.03229e-08
3.05634e-08
3.07957e-08
3.10141e-08
3.12124e-08
3.13842e-08
3.15315e-08
3.12315e-08
3.12707e-08
3.12542e-08
3.11511e-08
3.09518e-08
3.06308e-08
3.01764e-08
2.95292e-08
2.88919e-08
2.76231e-08
)
;
    }
    outlet
    {
        type            calculated;
        value           nonuniform List<scalar> 
78
(
6.79911e-12
6.95678e-12
7.03892e-12
7.14609e-12
7.22722e-12
7.31004e-12
7.44785e-12
7.60954e-12
7.75164e-12
7.84683e-12
7.94081e-12
8.08463e-12
8.22533e-12
8.37383e-12
8.50705e-12
8.93609e-12
9.63589e-12
1.00941e-11
8.45099e-12
4.91132e-12
2.80252e-13
1.22644e-15
0
0
0
0
0
2.12225e-08
4.46368e-07
1.45705e-06
0.00012616
0.00112723
0.00377001
0.00622058
0.00510511
0.0013969
9.71918e-05
0.00230308
0.00374821
0.00244093
0.000742929
0.000102351
4.57738e-06
2.42044e-09
1.98812e-08
2.48626e-09
0
1.21082e-25
8.50059e-16
3.82182e-13
3.9553e-12
6.5355e-12
6.58537e-12
6.29012e-12
6.25468e-12
6.3656e-12
6.5123e-12
6.66855e-12
6.82947e-12
6.9946e-12
7.15716e-12
7.35238e-12
7.50838e-12
7.72573e-12
7.62441e-12
7.78912e-12
6.99324e-12
8.30443e-12
6.12761e-12
1.08945e-11
3.63955e-12
2.06118e-11
3.39297e-13
6.02735e-11
1.87225e-11
2.36529e-10
2.28407e-10
8.94958e-10
)
;
    }
    walls
    {
        type            calculated;
        value           nonuniform List<scalar> 0();
    }
    frontAndBack
    {
        type            empty;
    }
    procBoundary7to3
    {
        type            processor;
        value           nonuniform List<scalar> 
16
(
1.024e-09
1.0676e-09
6.2907e-10
4.5765e-10
3.58773e-10
2.62692e-10
1.77014e-10
1.18007e-10
6.27319e-11
6.27319e-11
4.08155e-11
2.59601e-11
1.84835e-11
1.21521e-11
1.46414e-11
1.00119e-11
)
;
    }
    procBoundary7to6
    {
        type            processor;
        value           nonuniform List<scalar> 
91
(
6.68171e-10
4.13773e-10
4.13773e-10
3.79222e-10
3.79222e-10
6.45079e-11
6.45079e-11
5.35813e-11
1.77204e-10
1.77204e-10
1.10776e-10
1.49488e-10
1.49488e-10
2.22112e-10
1.71599e-10
1.69076e-10
1.69076e-10
3.03803e-10
2.65672e-10
2.24695e-10
2.24695e-10
5.07269e-10
4.3709e-10
3.75155e-10
3.20829e-10
3.20829e-10
8.53001e-10
7.51367e-10
6.59772e-10
5.77668e-10
5.04368e-10
5.04368e-10
1.45932e-09
1.33065e-09
1.20824e-09
1.09251e-09
9.83942e-10
8.828e-10
7.89184e-10
7.89184e-10
2.25972e-09
2.17793e-09
2.09263e-09
2.00379e-09
1.91162e-09
1.81659e-09
1.71927e-09
1.6203e-09
1.52049e-09
1.42075e-09
1.32175e-09
1.22428e-09
1.22428e-09
4.02899e-21
0
0
4.2226e-06
8.56557e-07
0.00106791
0.0192992
0.095295
0.23735
0.384044
0.448374
0.38097
0.211925
0.0480373
0.00568642
0.115354
0.280646
0.347961
0.255105
0.101878
0.017275
0.000736376
3.69444e-06
3.91109e-10
0
0
0
1.07237e-12
4.05616e-10
2.48805e-09
2.59295e-09
2.0355e-09
1.84823e-09
1.82423e-09
1.78839e-09
1.7338e-09
1.6806e-09
1.6806e-09
)
;
    }
}


// ************************************************************************* //
