/*--------------------------------*- C++ -*----------------------------------*\
| =========                 |                                                 |
| \\      /  F ield         | OpenFOAM: The Open Source CFD Toolbox           |
|  \\    /   O peration     | Version:  2306                                  |
|   \\  /    A nd           | Website:  www.openfoam.com                      |
|    \\/     M anipulation  |                                                 |
\*---------------------------------------------------------------------------*/
FoamFile
{
    version     2.0;
    format      ascii;
    arch        "LSB;label=32;scalar=64";
    class       volSymmTensorField;
    location    "775";
    object      turbulenceProperties:R;
}
// * * * * * * * * * * * * * * * * * * * * * * * * * * * * * * * * * * * * * //

dimensions      [0 2 -2 0 0 0 0];

internalField   nonuniform List<symmTensor> 
1340
(
(6.83709e-07 1.49429e-08 -2.47282e-20 5.44167e-07 -2.53608e-21 6.50936e-07)
(4.35331e-07 -1.18626e-08 -2.43796e-20 5.37387e-07 -3.07046e-21 4.54957e-07)
(6.94352e-07 1.64882e-08 1.28609e-20 5.52187e-07 1.27852e-21 6.59681e-07)
(5.00161e-07 2.45813e-08 1.30636e-19 4.05686e-07 1.44907e-20 4.78656e-07)
(4.25987e-07 -1.27972e-08 3.23603e-23 5.19011e-07 -1.13339e-22 4.38219e-07)
(6.89454e-07 1.95986e-08 -2.87848e-22 5.53788e-07 6.79952e-23 6.62379e-07)
(1.8643e-07 1.07747e-08 -6.64112e-20 2.11028e-07 -7.87134e-21 1.80251e-07)
(4.93253e-07 2.29797e-08 2.13391e-21 4.00115e-07 4.45278e-22 4.73363e-07)
(4.19432e-07 -1.32476e-08 2.91335e-20 5.06839e-07 3.60214e-21 4.27504e-07)
(6.90062e-07 2.1138e-08 -5.84343e-20 5.57042e-07 -6.00747e-21 6.66348e-07)
(1.83361e-07 1.85351e-08 -1.58399e-19 1.6633e-07 -1.83418e-20 1.66519e-07)
(3.42864e-07 2.24394e-08 -8.67214e-20 2.80492e-07 -9.6071e-21 3.24348e-07)
(1.85362e-07 1.06534e-08 2.93123e-20 2.08624e-07 3.45217e-21 1.78319e-07)
(4.88516e-07 2.10788e-08 -4.3263e-20 3.95277e-07 -4.80919e-21 4.68734e-07)
(4.12793e-07 -1.31923e-08 -1.22762e-19 4.9693e-07 -1.51871e-20 4.18966e-07)
(6.94399e-07 2.18078e-08 5.60998e-20 5.61017e-07 5.6389e-21 6.70953e-07)
(2.67372e-07 2.27523e-08 2.34249e-20 2.24724e-07 2.69577e-21 2.42623e-07)
(3.13837e-07 2.33894e-08 -6.26088e-21 2.57952e-07 -7.43515e-22 2.91307e-07)
(1.78409e-07 1.75948e-08 6.09336e-22 1.6102e-07 -1.11692e-22 1.6126e-07)
(3.37312e-07 2.05736e-08 2.90339e-22 2.74354e-07 -4.37866e-23 3.18587e-07)
(1.84149e-07 1.05169e-08 2.06225e-20 2.06197e-07 2.47984e-21 1.76366e-07)
(4.84203e-07 1.92291e-08 -2.18576e-21 3.90919e-07 -3.39701e-22 4.64572e-07)
(4.07632e-07 -1.31334e-08 7.39975e-23 4.88804e-07 -6.37598e-24 4.11956e-07)
(6.98699e-07 2.24094e-08 -2.13039e-22 5.65072e-07 5.06364e-23 6.7571e-07)
(3.81428e-07 2.54627e-08 -5.27831e-20 3.08958e-07 -6.13096e-21 3.45946e-07)
(3.34189e-07 2.40183e-08 -6.72799e-20 2.73124e-07 -7.64986e-21 3.02369e-07)
(3.3319e-07 2.37484e-08 -8.42347e-20 2.71833e-07 -9.39499e-21 3.04631e-07)
(2.57448e-07 2.11078e-08 -3.42237e-20 2.15059e-07 -3.71751e-21 2.3277e-07)
(3.05909e-07 2.15454e-08 3.80157e-21 2.49768e-07 5.58728e-22 2.83353e-07)
(1.73141e-07 1.66274e-08 6.44246e-20 1.55491e-07 7.41718e-21 1.55768e-07)
(3.31748e-07 1.8768e-08 1.33632e-20 2.68465e-07 1.40434e-21 3.12998e-07)
(1.83023e-07 1.02869e-08 -4.62347e-20 2.03823e-07 -5.40722e-21 1.74432e-07)
(4.80297e-07 1.75545e-08 4.1502e-20 3.87247e-07 4.57159e-21 4.61128e-07)
(4.0444e-07 -1.32062e-08 6.88026e-23 4.82686e-07 -4.28731e-23 4.06678e-07)
(7.02294e-07 2.29667e-08 1.05399e-22 5.69012e-07 -2.3458e-23 6.80449e-07)
(4.44954e-07 2.2892e-08 -1.24854e-20 3.53332e-07 -1.19503e-21 3.99056e-07)
(4.16393e-07 2.33481e-08 6.20197e-20 3.32418e-07 6.83191e-21 3.74702e-07)
(3.826e-07 2.3134e-08 7.20819e-21 3.07239e-07 7.15078e-22 3.44425e-07)
(3.6571e-07 2.29535e-08 4.15256e-20 2.94515e-07 4.57348e-21 3.30914e-07)
(3.20087e-07 2.18199e-08 1.68489e-22 2.60064e-07 -1.27394e-22 2.88765e-07)
(3.21643e-07 2.16439e-08 3.64688e-22 2.60773e-07 -2.38667e-23 2.93395e-07)
(2.47293e-07 1.94633e-08 2.868e-20 2.05323e-07 3.21871e-21 2.22772e-07)
(2.97797e-07 1.97178e-08 -3.62168e-21 2.41613e-07 -4.47469e-22 2.75308e-07)
(1.67663e-07 1.56228e-08 -2.99403e-22 1.49817e-07 7.70633e-23 1.50105e-07)
(3.26372e-07 1.7018e-08 -6.12117e-23 2.62915e-07 2.05797e-23 3.0767e-07)
(1.81914e-07 9.9708e-09 1.32728e-22 2.01525e-07 -2.592e-23 1.7253e-07)
(4.77053e-07 1.59996e-08 -2.25648e-22 3.84267e-07 5.97569e-23 4.58399e-07)
(4.02852e-07 -1.33493e-08 1.06022e-19 4.78582e-07 1.32341e-20 4.03161e-07)
(7.05499e-07 2.33051e-08 2.84669e-20 5.72603e-07 2.89391e-21 6.84855e-07)
(5.70339e-07 1.26733e-08 -3.43816e-20 4.42714e-07 -3.54689e-21 5.06522e-07)
(5.30647e-07 1.53867e-08 2.5441e-20 4.13385e-07 2.82977e-21 4.72017e-07)
(4.92548e-07 1.73913e-08 1.28415e-20 3.85337e-07 1.27609e-21 4.3893e-07)
(4.56368e-07 1.87452e-08 -4.76742e-21 3.58693e-07 -5.64712e-22 4.07557e-07)
(4.21036e-07 1.97543e-08 6.89745e-23 3.32753e-07 -8.17467e-24 3.76796e-07)
(3.955e-07 2.04481e-08 -2.34374e-22 3.14134e-07 4.40168e-23 3.55121e-07)
(3.63851e-07 2.04931e-08 -2.64009e-23 2.90644e-07 -1.07187e-22 3.26731e-07)
(3.49637e-07 2.05103e-08 -4.52598e-20 2.80027e-07 -5.00871e-21 3.15656e-07)
(3.05742e-07 1.9667e-08 -2.16133e-20 2.47004e-07 -2.25848e-21 2.75026e-07)
(3.09809e-07 1.95699e-08 2.70612e-20 2.49675e-07 3.04678e-21 2.81971e-07)
(2.36978e-07 1.7825e-08 -2.73009e-20 1.95576e-07 -3.12606e-21 2.12686e-07)
(2.89554e-07 1.79113e-08 1.09544e-23 2.33518e-07 -2.80154e-23 2.67202e-07)
(1.62007e-07 1.459e-08 -5.82643e-20 1.44047e-07 -6.72112e-21 1.44311e-07)
(3.2116e-07 1.5314e-08 -1.20738e-20 2.57651e-07 -1.27565e-21 3.0254e-07)
(1.80785e-07 9.59219e-09 2.39231e-20 1.99341e-07 2.80191e-21 1.7069e-07)
(4.74374e-07 1.45115e-08 -3.76318e-20 3.81797e-07 -4.1549e-21 4.56175e-07)
(4.0238e-07 -1.35137e-08 -8.94908e-20 4.76088e-07 -1.11243e-20 4.01049e-07)
(7.09078e-07 2.33919e-08 -3.63854e-20 5.76257e-07 -3.61651e-21 6.89412e-07)
(7.21923e-07 -1.47208e-08 -3.20645e-20 5.5986e-07 -3.24942e-21 6.40878e-07)
(6.8104e-07 -8.80457e-09 -4.83507e-21 5.26833e-07 -3.67603e-22 6.03922e-07)
(6.41142e-07 -3.47531e-09 -5.0144e-21 4.9529e-07 -5.06572e-22 5.68201e-07)
(6.02393e-07 1.26685e-09 -7.78355e-21 4.65249e-07 -7.54151e-22 5.33807e-07)
(5.64905e-07 5.4171e-09 -1.52616e-21 4.36692e-07 -5.55607e-23 5.00785e-07)
(5.28767e-07 8.94391e-09 2.17506e-20 4.09573e-07 2.32941e-21 4.69156e-07)
(4.94105e-07 1.18189e-08 2.503e-20 3.83856e-07 2.61485e-21 4.38975e-07)
(4.60548e-07 1.40239e-08 -5.18511e-23 3.59111e-07 -3.39473e-23 4.09806e-07)
(4.28622e-07 1.56007e-08 1.08114e-20 3.35611e-07 1.19016e-21 3.8214e-07)
(3.96828e-07 1.68245e-08 6.95791e-21 3.12287e-07 7.2514e-22 3.54445e-07)
(3.74275e-07 1.77081e-08 -1.61046e-23 2.95898e-07 -2.47853e-23 3.35393e-07)
(3.4479e-07 1.7979e-08 -1.73519e-24 2.74076e-07 8.52504e-24 3.08896e-07)
(3.33195e-07 1.81646e-08 2.66569e-22 2.65497e-07 -2.15769e-24 3.00185e-07)
(2.91138e-07 1.7586e-08 2.07536e-20 2.33947e-07 2.22834e-21 2.61162e-07)
(2.97671e-07 1.75506e-08 -2.57837e-20 2.38541e-07 -2.88362e-21 2.70365e-07)
(2.26483e-07 1.62123e-08 2.59883e-20 1.85825e-07 2.96407e-21 2.02517e-07)
(2.81139e-07 1.61414e-08 8.65248e-25 2.25464e-07 3.07776e-23 2.59013e-07)
(1.5617e-07 1.35436e-08 5.56677e-20 1.38204e-07 6.36514e-21 1.38408e-07)
(3.15995e-07 1.36596e-08 1.16384e-20 2.52579e-07 1.19012e-21 2.97506e-07)
(1.79656e-07 9.16433e-09 -2.27616e-20 1.97314e-07 -2.69953e-21 1.68949e-07)
(4.72054e-07 1.30809e-08 9.33484e-23 3.79679e-07 2.51735e-23 4.54283e-07)
(4.02781e-07 -1.37006e-08 1.52246e-19 4.74869e-07 1.88683e-20 4.00045e-07)
(7.12302e-07 2.32418e-08 1.56661e-22 5.7943e-07 -6.49871e-23 6.93466e-07)
(8.93388e-07 -6.56207e-08 -7.05025e-21 7.31006e-07 -6.92593e-22 8.12217e-07)
(8.59854e-07 -5.80404e-08 -1.60972e-20 6.96878e-07 -1.48233e-21 7.78379e-07)
(8.25646e-07 -5.05641e-08 7.45335e-21 6.63188e-07 7.22976e-22 7.44425e-07)
(7.90934e-07 -4.32591e-08 -1.40471e-20 6.30082e-07 -1.41782e-21 7.10511e-07)
(7.55948e-07 -3.61949e-08 -4.69518e-21 5.97736e-07 -3.41097e-22 6.76841e-07)
(7.20881e-07 -2.94346e-08 1.72353e-20 5.66278e-07 1.73349e-21 6.43575e-07)
(6.85937e-07 -2.30351e-08 1.79536e-21 5.35826e-07 1.22959e-22 6.10874e-07)
(6.51296e-07 -1.7046e-08 1.7235e-22 5.06466e-07 -6.87243e-23 5.78872e-07)
(6.17128e-07 -1.15052e-08 -5.31118e-21 4.78257e-07 -5.65441e-22 5.47682e-07)
(5.83564e-07 -6.4382e-09 -3.90033e-21 4.51221e-07 -3.8447e-22 5.17381e-07)
(5.5073e-07 -1.85977e-09 4.45913e-23 4.2537e-07 4.35524e-24 4.88038e-07)
(5.18755e-07 2.21807e-09 5.45436e-24 4.00711e-07 -6.03858e-24 4.59722e-07)
(4.87711e-07 5.75093e-09 -1.26668e-22 3.77203e-07 1.12457e-23 4.32443e-07)
(4.578e-07 8.6991e-09 -4.02173e-21 3.54881e-07 -3.81971e-22 4.06337e-07)
(4.28577e-07 1.1026e-08 3.46704e-23 3.33268e-07 -2.03332e-23 3.80896e-07)
(4.00756e-07 1.27556e-08 -1.03683e-20 3.12777e-07 -1.11189e-21 3.56795e-07)
(3.72435e-07 1.41336e-08 -6.65145e-21 2.91995e-07 -6.96388e-22 3.32095e-07)
(3.52809e-07 1.5159e-08 -1.53455e-23 2.77769e-07 1.51022e-23 3.15603e-07)
(3.25496e-07 1.56201e-08 -1.66098e-24 2.57593e-07 1.09667e-22 2.90996e-07)
(3.16446e-07 1.59438e-08 4.08626e-20 2.50975e-07 4.55166e-21 2.84565e-07)
(2.76325e-07 1.56009e-08 1.06965e-20 2.20938e-07 1.22534e-21 2.47229e-07)
(2.8526e-07 1.56086e-08 4.20779e-20 2.27404e-07 4.63054e-21 2.58617e-07)
(2.15847e-07 1.46436e-08 -2.47789e-20 1.76113e-07 -2.8488e-21 1.92314e-07)
(2.7255e-07 1.44236e-08 1.44757e-23 2.17455e-07 -8.70417e-24 2.50747e-07)
(1.50182e-07 1.24961e-08 -3.79463e-20 1.32331e-07 -4.26695e-21 1.32435e-07)
(3.10825e-07 1.20615e-08 3.20025e-20 2.47656e-07 3.6518e-21 2.92527e-07)
(1.7852e-07 8.69479e-09 5.53449e-20 1.9543e-07 6.44085e-21 1.67297e-07)
(4.69995e-07 1.17059e-08 -3.31454e-24 3.77847e-07 -4.15797e-23 4.52655e-07)
(4.04373e-07 -1.39225e-08 -9.89701e-23 4.75275e-07 2.24544e-23 4.00432e-07)
(7.15553e-07 2.28957e-08 8.18565e-21 5.82502e-07 8.32801e-22 6.97468e-07)
(1.00628e-06 -1.21649e-07 5.97533e-21 9.45167e-07 5.40571e-22 9.75752e-07)
(9.94796e-07 -1.18351e-07 2.2603e-22 9.2494e-07 2.27992e-23 9.59907e-07)
(9.82116e-07 -1.147e-07 3.70951e-22 9.03704e-07 4.52029e-23 9.42956e-07)
(9.6814e-07 -1.10698e-07 1.77572e-20 8.81435e-07 1.63755e-21 9.24836e-07)
(9.52768e-07 -1.06339e-07 7.98329e-21 8.58113e-07 7.45282e-22 9.05492e-07)
(9.35947e-07 -1.01629e-07 1.25723e-20 8.33772e-07 1.15631e-21 8.84911e-07)
(9.17666e-07 -9.65823e-08 3.93093e-21 8.08479e-07 3.60952e-22 8.6312e-07)
(8.97945e-07 -9.12191e-08 7.16487e-21 7.82326e-07 6.48894e-22 8.40183e-07)
(8.76821e-07 -8.55734e-08 -4.13098e-21 7.55445e-07 -4.77823e-22 8.16175e-07)
(8.54391e-07 -7.96782e-08 -2.47833e-20 7.27985e-07 -2.30457e-21 7.91226e-07)
(8.30724e-07 -7.35777e-08 4.7554e-21 7.00088e-07 4.78545e-22 7.6544e-07)
(8.05926e-07 -6.73197e-08 -6.52946e-21 6.71915e-07 -6.46127e-22 7.38948e-07)
(7.8014e-07 -6.09588e-08 3.15225e-23 6.43644e-07 1.14688e-23 7.11915e-07)
(7.53495e-07 -5.45517e-08 4.41209e-23 6.15437e-07 -2.36237e-23 6.84484e-07)
(7.26161e-07 -4.81589e-08 -9.12336e-24 5.8747e-07 3.70661e-24 6.5683e-07)
(6.98262e-07 -4.18396e-08 4.43168e-23 5.59874e-07 -1.03519e-23 6.29077e-07)
(6.69984e-07 -3.56539e-08 1.55319e-23 5.32806e-07 -1.25563e-23 6.01401e-07)
(6.41482e-07 -2.96607e-08 -5.8392e-23 5.06391e-07 -1.84992e-23 5.73939e-07)
(6.12918e-07 -2.39167e-08 -8.99627e-21 4.80739e-07 -8.35287e-22 5.46828e-07)
(5.84446e-07 -1.84698e-08 1.81932e-20 4.55935e-07 1.88455e-21 5.20187e-07)
(5.56197e-07 -1.33657e-08 -1.51027e-21 4.32037e-07 -2.18627e-22 4.94112e-07)
(5.28282e-07 -8.63265e-09 3.75828e-21 4.09069e-07 3.91728e-22 4.6867e-07)
(5.00797e-07 -4.29517e-09 1.56507e-23 3.87038e-07 -1.81292e-23 4.4391e-07)
(4.73861e-07 -3.71086e-10 -2.40347e-22 3.6596e-07 -8.08301e-23 4.19905e-07)
(4.47521e-07 3.08746e-09 -1.95572e-20 3.45793e-07 -2.12518e-21 3.96646e-07)
(4.22045e-07 6.03157e-09 -1.90882e-20 3.26638e-07 -1.94291e-21 3.74343e-07)
(3.96913e-07 8.40948e-09 1.38286e-20 3.07969e-07 1.51134e-21 3.52414e-07)
(3.73009e-07 1.02264e-08 -1.09617e-20 2.90334e-07 -1.21183e-21 3.31706e-07)
(3.48061e-07 1.17017e-08 6.32783e-21 2.72006e-07 7.0349e-22 3.09911e-07)
(3.31276e-07 1.28216e-08 -4.81831e-23 2.59862e-07 -1.21582e-23 2.95891e-07)
(3.06125e-07 1.34364e-08 -2.3369e-23 2.41302e-07 -2.81462e-23 2.73158e-07)
(2.99516e-07 1.38673e-08 -1.47376e-20 2.36548e-07 -1.65174e-21 2.68899e-07)
(2.61412e-07 1.37302e-08 -2.89866e-20 2.08059e-07 -3.26352e-21 2.33321e-07)
(2.72655e-07 1.37617e-08 -4.01429e-20 2.1632e-07 -4.36621e-21 2.46789e-07)
(2.05138e-07 1.31335e-08 1.07687e-20 1.66498e-07 1.26673e-21 1.82135e-07)
(2.63822e-07 1.27707e-08 5.87904e-21 2.09514e-07 6.97115e-22 2.42431e-07)
(1.44106e-07 1.14589e-08 2.89954e-20 1.26482e-07 3.29612e-21 1.26451e-07)
(3.05672e-07 1.0523e-08 1.99537e-20 2.42889e-07 2.22541e-21 2.87614e-07)
(1.77344e-07 8.19097e-09 -7.20745e-23 1.93648e-07 -9.17586e-24 1.65702e-07)
(4.68169e-07 1.03743e-08 -3.23462e-24 3.76257e-07 -2.06942e-24 4.51247e-07)
(4.06534e-07 -1.41637e-08 -3.91731e-23 4.76578e-07 -1.0497e-23 4.0159e-07)
(7.18843e-07 2.23587e-08 -7.8188e-21 5.85462e-07 -7.81226e-22 7.01396e-07)
(1.4208e-08 -2.82712e-11 -5.4358e-25 1.42943e-08 -2.26244e-26 1.42569e-08)
(8.67316e-10 -5.31146e-14 3.84876e-28 8.67728e-10 -7.96928e-29 8.67545e-10)
(0 -0 0 0 0 0)
(0 -0 -0 0 -0 0)
(2.52646e-05 -1.09145e-05 -1.1143e-20 2.63777e-05 -1.95009e-21 2.58161e-05)
(4.90217e-05 -2.35095e-05 8.93976e-20 5.73195e-05 6.09793e-21 5.32167e-05)
(0.00407697 0.00200742 1.90603e-18 0.00516675 2.86732e-19 0.00462335)
(0.0540245 0.0259521 -6.69043e-18 0.0630535 -5.08017e-19 0.058534)
(0.21003 0.100539 3.84963e-18 0.242669 -2.53271e-19 0.226335)
(0.464207 0.222383 3.09953e-17 0.537484 2.827e-18 0.500847)
(0.733162 0.352045 7.15773e-18 0.854556 1.0612e-18 0.793875)
(0.91799 0.442208 2.49843e-17 1.08012 2.919e-18 0.999069)
(0.943754 0.456538 -3.96145e-17 1.12479 -1.59521e-18 1.03429)
(0.776921 0.378211 -1.2649e-16 0.945004 -1.2858e-17 0.860978)
(0.436532 0.215331 4.05436e-17 0.557576 -1.88782e-18 0.497058)
(0.0290776 0.00121002 2.60695e-16 0.0765458 2.40354e-17 0.0528094)
(0.49664 -0.214456 3.57513e-17 0.459969 7.50274e-18 0.478316)
(0.893244 -0.373382 -5.22368e-17 0.783916 -4.66479e-18 0.838586)
(1.02335 -0.421665 7.84005e-18 0.878262 -1.05432e-18 0.950786)
(0.842676 -0.343952 7.54617e-17 0.712961 7.49024e-18 0.777786)
(0.473142 -0.191774 -2.87656e-17 0.396186 -3.16226e-18 0.434649)
(0.154866 -0.0624904 5.3494e-17 0.12883 5.62172e-18 0.141849)
(0.0206369 -0.0083528 -2.59923e-17 0.0172444 -2.47441e-18 0.0189407)
(0.000116369 -5.07604e-05 9.81211e-19 0.000109735 7.28485e-20 0.000113076)
(1.0141e-05 4.82927e-06 1.90232e-19 1.87497e-05 2.01356e-20 1.44703e-05)
(0 -0 0 0 0 0)
(0 -0 0 0 0 0)
(0 -0 0 0 0 0)
(1.8454e-08 -4.16265e-11 -1.40589e-25 1.84547e-08 -9.05241e-29 1.84544e-08)
(2.48277e-07 -8.45723e-09 1.54623e-22 2.48612e-07 1.58467e-23 2.48446e-07)
(9.34894e-07 -1.20969e-07 -5.20944e-21 9.3694e-07 -4.27187e-22 9.35929e-07)
(1.05116e-06 -1.53273e-07 -9.74454e-21 1.04581e-06 -9.35352e-22 1.04849e-06)
(9.24634e-07 -1.21047e-07 7.35106e-22 9.13326e-07 4.2735e-23 9.18986e-07)
(8.69901e-07 -1.08528e-07 -3.11735e-21 8.53135e-07 -3.02457e-22 8.61524e-07)
(8.69273e-07 -1.08771e-07 6.72362e-21 8.45352e-07 6.14804e-22 8.5732e-07)
(8.68967e-07 -1.08704e-07 -2.12328e-21 8.37451e-07 -1.65853e-22 8.53219e-07)
(8.61089e-07 -1.06608e-07 -5.9336e-21 8.22282e-07 -5.4889e-22 8.41698e-07)
(8.52057e-07 -1.04103e-07 -5.30456e-21 8.06026e-07 -5.07541e-22 8.29056e-07)
(8.43401e-07 -1.01578e-07 4.89647e-21 7.90087e-07 4.52595e-22 8.16763e-07)
(8.34096e-07 -9.8823e-08 6.32354e-26 7.73562e-07 -1.74803e-24 8.03851e-07)
(8.23714e-07 -9.57629e-08 -9.43178e-24 7.56109e-07 1.29412e-23 7.89937e-07)
(8.12239e-07 -9.2411e-08 -5.89726e-24 7.37766e-07 9.1662e-24 7.7503e-07)
(7.99617e-07 -8.87643e-08 -8.37913e-24 7.18537e-07 6.33135e-24 7.59108e-07)
(7.8577e-07 -8.48188e-08 -4.44995e-24 6.98429e-07 2.56444e-24 7.4213e-07)
(7.70693e-07 -8.0581e-08 -2.43383e-22 6.77493e-07 -2.76716e-23 7.24126e-07)
(7.54411e-07 -7.60732e-08 -6.68542e-21 6.55832e-07 -6.38383e-22 7.05153e-07)
(7.37003e-07 -7.13213e-08 4.2626e-23 6.33578e-07 4.09903e-23 6.85321e-07)
(7.18538e-07 -6.63561e-08 1.88534e-20 6.10864e-07 1.81792e-21 6.6473e-07)
(6.99083e-07 -6.12115e-08 2.34629e-23 5.87814e-07 -3.83444e-23 6.43475e-07)
(6.78741e-07 -5.59278e-08 4.77875e-21 5.64574e-07 4.58301e-22 6.21681e-07)
(6.57629e-07 -5.05518e-08 -1.21846e-21 5.41301e-07 -1.21882e-22 5.99484e-07)
(6.35875e-07 -4.51313e-08 8.15665e-21 5.18145e-07 8.18011e-22 5.77027e-07)
(6.13575e-07 -3.97144e-08 5.93729e-24 4.95221e-07 -2.67669e-23 5.54411e-07)
(5.90873e-07 -3.43537e-08 2.00659e-24 4.72674e-07 -8.68445e-24 5.31783e-07)
(5.67895e-07 -2.91007e-08 6.55704e-24 4.50618e-07 3.29742e-23 5.09263e-07)
(5.44766e-07 -2.40075e-08 8.6052e-21 4.29152e-07 7.99209e-22 4.86962e-07)
(5.21609e-07 -1.91207e-08 -1.9083e-20 4.08358e-07 -1.94596e-21 4.64984e-07)
(4.98531e-07 -1.44849e-08 4.82269e-21 3.88293e-07 5.57278e-22 4.43412e-07)
(4.75608e-07 -1.01332e-08 -2.70409e-23 3.68973e-07 -5.06691e-24 4.22288e-07)
(4.52905e-07 -6.09192e-09 7.00134e-23 3.50397e-07 -4.94563e-23 4.01647e-07)
(4.3053e-07 -2.3842e-09 -1.07765e-20 3.3259e-07 -1.13873e-21 3.81557e-07)
(4.08493e-07 9.34927e-10 1.1579e-22 3.15495e-07 1.59245e-23 3.61985e-07)
(3.87116e-07 3.81026e-09 3.60278e-21 2.99273e-07 3.37801e-22 3.43199e-07)
(3.65803e-07 6.17646e-09 -8.99222e-23 2.83353e-07 1.19852e-23 3.24551e-07)
(3.45598e-07 8.02279e-09 9.38215e-23 2.68408e-07 -2.8889e-23 3.07043e-07)
(3.23895e-07 9.54212e-09 -6.05352e-21 2.52434e-07 -6.86709e-22 2.88039e-07)
(3.09839e-07 1.07122e-08 -1.38882e-20 2.42279e-07 -1.51873e-21 2.76385e-07)
(2.86824e-07 1.14437e-08 -9.06065e-21 2.25297e-07 -9.45902e-22 2.55502e-07)
(2.82529e-07 1.19524e-08 4.52261e-21 2.22297e-07 5.59984e-22 2.53288e-07)
(2.46497e-07 1.19891e-08 2.15412e-20 1.95376e-07 2.38322e-21 2.19514e-07)
(2.59927e-07 1.20256e-08 1.9333e-20 2.05336e-07 2.06115e-21 2.34939e-07)
(1.9444e-07 1.16965e-08 -2.72683e-23 1.57046e-07 -6.91883e-23 1.72057e-07)
(2.54964e-07 1.11937e-08 -2.56468e-20 2.0164e-07 -2.86827e-21 2.34064e-07)
(1.37983e-07 1.04452e-08 -5.52243e-23 1.20709e-07 2.60318e-23 1.20501e-07)
(3.00436e-07 9.044e-09 -1.92734e-20 2.38182e-07 -2.08788e-21 2.82661e-07)
(1.76168e-07 7.66665e-09 1.47147e-20 1.92028e-07 1.74499e-21 1.64215e-07)
(4.66483e-07 9.06553e-09 -7.88437e-23 3.74813e-07 -8.01637e-24 4.49947e-07)
(4.0936e-07 -1.44081e-08 -6.07789e-20 4.78918e-07 -7.52492e-21 4.03622e-07)
(7.22222e-07 2.16351e-08 7.4491e-21 5.88313e-07 7.59423e-22 7.05242e-07)
(4.93152e-07 -5.26582e-08 -9.89565e-25 5.85741e-07 -3.1683e-23 5.45758e-07)
(2.63144e-08 -1.23622e-10 3.88678e-24 2.66425e-08 3.28629e-25 2.64976e-08)
(1.69564e-09 -1.91459e-13 6.64491e-27 1.69738e-09 1.11465e-27 1.6965e-09)
(0 -0 -0 0 -0 0)
(0 -0 -0 0 -0 0)
(4.55027e-08 -9.21044e-11 4.05418e-28 4.55101e-08 -1.27467e-27 4.55064e-08)
(0.000329184 -0.000151224 2.20492e-22 0.000343707 -5.65047e-21 0.000336457)
(0.000444223 0.000221149 1.03946e-18 0.000748904 1.10095e-19 0.000597157)
(0.0214661 0.0103728 -3.32625e-18 0.0254974 -3.48802e-19 0.0234819)
(0.118813 0.0569808 1.91608e-17 0.138009 1.756e-18 0.128401)
(0.319552 0.153189 -1.00617e-17 0.370729 -4.40317e-19 0.345131)
(0.570801 0.274123 2.31363e-19 0.66559 -7.99428e-19 0.618206)
(0.778168 0.374757 5.5851e-17 0.914892 5.18508e-18 0.846545)
(0.857771 0.414619 -1.98548e-18 1.01983 1.34943e-18 0.938815)
(0.76213 0.370324 -6.30261e-17 0.921342 -5.71153e-18 0.841749)
(0.493165 0.241973 -1.13222e-18 0.616811 1.59237e-19 0.554993)
(0.109696 0.0552367 -7.20846e-17 0.170081 -8.11946e-18 0.139887)
(0.333186 -0.145875 8.03935e-17 0.316235 5.89933e-18 0.324719)
(0.734833 -0.307624 5.32718e-17 0.646422 5.58914e-18 0.690635)
(0.912836 -0.376038 3.58105e-17 0.783127 2.67346e-18 0.847967)
(0.800677 -0.326548 1.00337e-16 0.676618 1.18031e-17 0.738621)
(0.482893 -0.195483 -1.39905e-16 0.403612 -1.37822e-17 0.443238)
(0.175129 -0.0705158 7.56326e-17 0.145238 7.16282e-18 0.160182)
(0.0277784 -0.011182 -3.06608e-17 0.0230283 -2.61162e-18 0.025403)
(0.000498345 -0.000209121 2.43741e-21 0.000440038 -2.57587e-20 0.000469246)
(2.85937e-05 1.41225e-05 2.03835e-22 4.95748e-05 2.44714e-21 3.91443e-05)
(0 0 -0 0 -0 0)
(0 -0 -0 0 -0 0)
(0 -0 0 0 0 0)
(6.35574e-09 -5.69657e-12 -3.44381e-26 6.35566e-09 -3.25137e-27 6.3557e-09)
(7.68892e-08 -9.58872e-10 2.81622e-24 7.69036e-08 1.97349e-26 7.68967e-08)
(7.06319e-07 -8.30075e-08 3.29629e-21 7.06135e-07 3.11528e-22 7.0625e-07)
(9.17371e-07 -1.388e-07 1.5396e-24 9.09598e-07 -8.83222e-25 9.13515e-07)
(8.04613e-07 -1.08957e-07 6.15426e-21 7.91948e-07 6.00031e-22 7.98305e-07)
(7.325e-07 -9.17246e-08 -4.89194e-21 7.1627e-07 -4.4593e-22 7.24407e-07)
(7.24986e-07 -9.01964e-08 1.28849e-21 7.03192e-07 1.07285e-22 7.14113e-07)
(7.26701e-07 -9.04986e-08 -1.52822e-24 6.98512e-07 -1.10004e-23 7.12632e-07)
(7.21417e-07 -8.8961e-08 6.53895e-21 6.87099e-07 6.21877e-22 7.04281e-07)
(7.14194e-07 -8.6878e-08 -1.78892e-21 6.73861e-07 -1.58346e-22 6.94053e-07)
(7.07473e-07 -8.48359e-08 2.31401e-21 6.61059e-07 2.16957e-22 6.8429e-07)
(7.00206e-07 -8.26008e-08 1.21478e-21 6.47741e-07 1.29175e-22 6.73998e-07)
(6.91717e-07 -8.00411e-08 -1.78525e-24 6.33353e-07 1.13549e-23 6.62558e-07)
(6.82134e-07 -7.71981e-08 6.59705e-21 6.18054e-07 6.42855e-22 6.50117e-07)
(6.71585e-07 -7.41065e-08 -1.24008e-24 6.01999e-07 -1.33824e-24 6.36815e-07)
(6.60049e-07 -7.07665e-08 2.21047e-22 5.85222e-07 3.79205e-23 6.22658e-07)
(6.4749e-07 -6.71781e-08 4.79801e-21 5.67753e-07 4.6283e-22 6.07643e-07)
(6.33965e-07 -6.33584e-08 7.68924e-24 5.49702e-07 -3.06306e-23 5.91854e-07)
(6.19538e-07 -5.93302e-08 -3.11783e-23 5.31187e-07 3.80393e-23 5.75381e-07)
(6.04267e-07 -5.5117e-08 1.00583e-20 5.12316e-07 9.87996e-22 5.58309e-07)
(5.88235e-07 -5.07499e-08 -4.53894e-21 4.93219e-07 -4.74982e-22 5.40742e-07)
(5.71544e-07 -4.62643e-08 9.68384e-24 4.74038e-07 -2.70353e-23 5.22804e-07)
(5.54291e-07 -4.16982e-08 -7.79981e-21 4.54902e-07 -7.66085e-22 5.04608e-07)
(5.36556e-07 -3.70905e-08 5.0367e-24 4.35921e-07 2.22262e-23 4.86247e-07)
(5.18457e-07 -3.24844e-08 1.7141e-24 4.17222e-07 1.63173e-23 4.67846e-07)
(5.00088e-07 -2.79245e-08 7.97136e-21 3.98908e-07 8.2114e-22 4.49502e-07)
(4.81551e-07 -2.34555e-08 1.04321e-21 3.81071e-07 1.05459e-22 4.31313e-07)
(4.62938e-07 -1.91226e-08 1.66826e-21 3.63786e-07 1.36226e-22 4.13362e-07)
(4.4433e-07 -1.49652e-08 -3.18721e-21 3.47103e-07 -3.66095e-22 3.95715e-07)
(4.2578e-07 -1.10189e-08 -8.61929e-21 3.31036e-07 -8.10238e-22 3.78405e-07)
(4.07314e-07 -7.30875e-09 2.56656e-20 3.15568e-07 2.76013e-21 3.61436e-07)
(3.89029e-07 -3.86273e-09 1.04992e-20 3.00729e-07 1.07628e-21 3.44876e-07)
(3.70888e-07 -7.31971e-10 1.77518e-20 2.86441e-07 1.89359e-21 3.28654e-07)
(3.53265e-07 2.02208e-09 2.05507e-20 2.7292e-07 2.1216e-21 3.13099e-07)
(3.3548e-07 4.32342e-09 -1.59161e-20 2.59546e-07 -1.70842e-21 2.97483e-07)
(3.18735e-07 6.14951e-09 2.2015e-20 2.4712e-07 2.40818e-21 2.8297e-07)
(3.00122e-07 7.66545e-09 -5.70066e-21 2.33386e-07 -6.81781e-22 2.66625e-07)
(2.88663e-07 8.84412e-09 -1.17137e-23 2.25118e-07 2.81411e-23 2.57217e-07)
(2.67738e-07 9.65533e-09 4.76525e-21 2.09668e-07 5.02424e-22 2.38142e-07)
(2.65612e-07 1.02152e-08 -3.9879e-21 2.08304e-07 -4.13973e-22 2.37833e-07)
(2.31698e-07 1.03943e-08 1.69214e-20 1.82972e-07 1.9241e-21 2.05913e-07)
(2.47171e-07 1.04141e-08 1.28717e-20 1.94514e-07 1.42052e-21 2.23146e-07)
(1.83813e-07 1.03481e-08 -2.15255e-24 1.47804e-07 1.97235e-24 1.62135e-07)
(2.46017e-07 9.70046e-09 1.64985e-20 1.93851e-07 1.83439e-21 2.25671e-07)
(1.31819e-07 9.47416e-09 3.70203e-24 1.15018e-07 -8.63081e-23 1.14606e-07)
(2.95197e-07 7.61856e-09 -5.57803e-20 2.33575e-07 -6.27416e-21 2.77715e-07)
(1.74834e-07 7.14333e-09 -1.40608e-20 1.90434e-07 -1.61689e-21 1.6272e-07)
(4.64897e-07 7.76172e-09 -3.60168e-20 3.73428e-07 -3.90793e-21 4.48647e-07)
(4.12058e-07 -1.46138e-08 6.12346e-20 4.81419e-07 7.58918e-21 4.05776e-07)
(7.26011e-07 2.0738e-08 -7.11094e-21 5.9125e-07 -7.15083e-22 7.0922e-07)
(5.05142e-07 -6.49265e-08 -3.28996e-25 6.01925e-07 1.20714e-23 5.60164e-07)
(4.38637e-07 -4.90297e-08 1.42805e-24 5.17877e-07 9.36289e-24 4.83104e-07)
(4.79063e-08 -4.53986e-10 -5.27411e-24 4.90609e-08 -6.97549e-25 4.84763e-08)
(2.83627e-09 -7.36484e-13 3.59304e-26 2.84197e-09 2.78342e-27 2.83905e-09)
(0 -0 0 0 0 0)
(0 -0 -0 0 -0 0)
(0 -0 0 0 0 0)
(0.000102633 -4.62644e-05 2.2519e-22 0.000103205 4.50676e-22 0.000102898)
(0.000150094 -7.35946e-05 -2.49031e-22 0.000187131 6.31042e-22 0.000168711)
(0.0061225 0.00299271 1.95533e-20 0.0075514 6.96142e-21 0.00683814)
(0.0584126 0.0280908 -3.2609e-20 0.0683935 -1.21001e-19 0.063398)
(0.203146 0.0974766 1.44215e-17 0.23632 1.417e-18 0.21972)
(0.423691 0.203521 2.23215e-19 0.494389 2.47078e-19 0.459041)
(0.640209 0.308259 -1.31945e-18 0.752271 -6.34777e-19 0.696253)
(0.76309 0.368616 4.07127e-17 0.905468 4.11054e-18 0.83429)
(0.731297 0.354824 2.96967e-18 0.879895 6.5011e-19 0.805607)
(0.530347 0.259242 3.08576e-17 0.654305 2.18012e-18 0.592332)
(0.199454 0.0995794 5.81742e-17 0.270255 6.00921e-18 0.234856)
(0.19038 -0.0857851 3.12887e-20 0.190882 1.16152e-18 0.190641)
(0.589017 -0.247189 -3.84682e-17 0.520187 -3.02251e-18 0.554615)
(0.804964 -0.331641 -4.40708e-17 0.690705 -6.58723e-18 0.747835)
(0.753895 -0.307342 1.74377e-16 0.636688 1.7918e-17 0.695277)
(0.487359 -0.197166 -1.34188e-16 0.406965 -1.16768e-17 0.447152)
(0.193594 -0.0778765 4.93338e-19 0.16033 -4.71732e-19 0.176962)
(0.0356869 -0.0143317 -8.38376e-18 0.029484 -7.78633e-19 0.0325856)
(0.00121336 -0.000499801 -1.39011e-21 0.0010408 -5.83839e-21 0.00112713)
(4.29706e-05 2.11874e-05 -1.31912e-19 7.49174e-05 -1.27707e-20 5.90135e-05)
(0 0 -0 0 0 0)
(0 -0 -0 0 -0 0)
(0 -0 -0 0 -0 0)
(3.76023e-10 -2.3347e-14 9.18993e-32 3.76022e-10 -6.92368e-31 3.76023e-10)
(1.88793e-09 -6.92687e-13 -6.21625e-28 1.88792e-09 -3.80199e-29 1.88793e-09)
(4.27775e-07 -3.74474e-08 -3.59528e-22 4.27516e-07 -2.29326e-23 4.27644e-07)
(7.41909e-07 -1.09245e-07 -9.46573e-21 7.34865e-07 -9.34353e-22 7.38374e-07)
(6.91218e-07 -9.55175e-08 5.68152e-21 6.78475e-07 5.24223e-22 6.84839e-07)
(6.19277e-07 -7.79532e-08 -1.24457e-21 6.03846e-07 -1.06076e-22 6.11566e-07)
(6.07282e-07 -7.53791e-08 4.43193e-25 5.87498e-07 -5.44806e-24 5.97403e-07)
(6.11006e-07 -7.61468e-08 -1.42278e-21 5.85764e-07 -1.30607e-22 5.98404e-07)
(6.07347e-07 -7.49517e-08 -2.75774e-21 5.76934e-07 -2.68959e-22 5.92164e-07)
(5.99846e-07 -7.27972e-08 -1.91373e-25 5.64554e-07 -3.40585e-24 5.82226e-07)
(5.93249e-07 -7.0822e-08 -2.84747e-24 5.52986e-07 1.12844e-23 5.73146e-07)
(5.8722e-07 -6.89316e-08 4.06265e-21 5.4189e-07 4.01078e-22 5.64587e-07)
(5.80396e-07 -6.68207e-08 -5.16218e-21 5.30089e-07 -4.94174e-22 5.55274e-07)
(5.72432e-07 -6.44198e-08 -1.26196e-21 5.17317e-07 -1.18951e-22 5.44906e-07)
(5.63514e-07 -6.17753e-08 -1.73222e-24 5.03783e-07 6.50681e-24 5.33681e-07)
(5.53768e-07 -5.89169e-08 -3.25925e-24 4.89639e-07 3.77973e-24 5.21735e-07)
(5.43232e-07 -5.58526e-08 6.21967e-24 4.74966e-07 -1.85785e-23 5.0913e-07)
(5.31946e-07 -5.25939e-08 -7.12563e-24 4.59857e-07 -1.42776e-23 4.95931e-07)
(5.1995e-07 -4.91544e-08 -9.59668e-21 4.44394e-07 -9.12811e-22 4.822e-07)
(5.07326e-07 -4.55599e-08 1.18068e-20 4.28707e-07 1.20137e-21 4.68042e-07)
(4.94157e-07 -4.18352e-08 1.11664e-21 4.12913e-07 7.51323e-23 4.5356e-07)
(4.80531e-07 -3.80107e-08 6.92585e-24 3.97138e-07 -2.66942e-24 4.38857e-07)
(4.66518e-07 -3.41185e-08 6.77344e-24 3.81483e-07 -2.82091e-24 4.2402e-07)
(4.52208e-07 -3.01914e-08 1.45423e-24 3.66057e-07 -3.09607e-23 4.0915e-07)
(4.37676e-07 -2.62672e-08 -7.65061e-21 3.50954e-07 -7.65404e-22 3.9433e-07)
(4.23006e-07 -2.23853e-08 -1.00741e-21 3.36264e-07 -7.33287e-23 3.79648e-07)
(4.08263e-07 -1.85831e-08 4.84939e-22 3.22045e-07 7.42889e-23 3.65164e-07)
(3.93514e-07 -1.48999e-08 8.72019e-21 3.08352e-07 9.16564e-22 3.50942e-07)
(3.78771e-07 -1.13659e-08 3.26249e-21 2.95176e-07 2.05594e-22 3.3698e-07)
(3.64052e-07 -8.00753e-09 -3.48664e-20 2.82508e-07 -3.67028e-21 3.23283e-07)
(3.4942e-07 -4.85284e-09 -6.14744e-21 2.70361e-07 -5.44426e-22 3.09896e-07)
(3.34787e-07 -1.94593e-09 6.99176e-21 2.58632e-07 6.82015e-22 2.96704e-07)
(3.2059e-07 6.43772e-10 -3.36913e-20 2.47599e-07 -3.56959e-21 2.84108e-07)
(3.06054e-07 2.84009e-09 1.19644e-20 2.36583e-07 1.34379e-21 2.71292e-07)
(2.92505e-07 4.59975e-09 -6.09148e-21 2.2649e-07 -6.49218e-22 2.59546e-07)
(2.7684e-07 6.07487e-09 6.48349e-21 2.14902e-07 6.67857e-22 2.45745e-07)
(2.67827e-07 7.22116e-09 -2.01687e-20 2.0841e-07 -2.2044e-21 2.38448e-07)
(2.48954e-07 8.08198e-09 7.43633e-21 1.94462e-07 8.77622e-22 2.21152e-07)
(2.48826e-07 8.66144e-09 3.80658e-21 1.94595e-07 4.027e-22 2.22583e-07)
(2.17084e-07 8.95857e-09 3.33614e-21 1.70885e-07 3.60328e-22 1.92573e-07)
(2.34399e-07 8.93499e-09 -1.44124e-20 1.83848e-07 -1.59561e-21 2.1141e-07)
(1.73318e-07 9.10595e-09 -2.06661e-24 1.38817e-07 9.70737e-25 1.52427e-07)
(2.37025e-07 8.28779e-09 -1.5707e-20 1.86165e-07 -1.73634e-21 2.17282e-07)
(1.25665e-07 8.56953e-09 -8.69061e-24 1.09451e-07 1.06715e-22 1.08821e-07)
(2.89711e-07 6.22876e-09 7.06263e-20 2.28848e-07 7.83663e-21 2.7252e-07)
(1.73297e-07 6.66422e-09 -1.91055e-23 1.88818e-07 -3.89574e-23 1.61188e-07)
(4.63788e-07 6.42933e-09 3.44329e-20 3.72384e-07 3.69329e-21 4.47691e-07)
(4.14662e-07 -1.47347e-08 -7.43366e-20 4.84163e-07 -9.19598e-21 4.08103e-07)
(7.30198e-07 1.96749e-08 5.94329e-23 5.94271e-07 4.0859e-24 7.13318e-07)
(3.98684e-07 -4.62665e-08 -2.1209e-25 4.60786e-07 -9.28015e-24 4.34059e-07)
(4.36724e-07 -5.63494e-08 4.7596e-25 5.15351e-07 -2.34693e-23 4.81061e-07)
(3.9997e-07 -4.37647e-08 1.06715e-21 4.73355e-07 1.17467e-22 4.36286e-07)
(1.03461e-07 -2.65513e-09 -6.33116e-23 1.09282e-07 -4.77105e-24 1.06298e-07)
(5.78999e-09 -5.08858e-12 -8.33462e-29 5.81765e-09 -8.21018e-27 5.80383e-09)
(0 -0 0 0 0 0)
(0 -0 -0 0 -0 0)
(0 -0 0 0 -0 0)
(1.30629e-06 -7.39484e-08 3.14522e-27 1.3048e-06 2.55681e-25 1.30553e-06)
(0.000349186 -0.000159075 8.89365e-23 0.000358051 7.24192e-22 0.000353687)
(0.00086844 0.00043647 -1.06539e-21 0.0012343 1.37919e-20 0.00105229)