/*--------------------------------*- C++ -*----------------------------------*\
| =========                 |                                                 |
| \\      /  F ield         | OpenFOAM: The Open Source CFD Toolbox           |
|  \\    /   O peration     | Version:  2306                                  |
|   \\  /    A nd           | Website:  www.openfoam.com                      |
|    \\/     M anipulation  |                                                 |
\*---------------------------------------------------------------------------*/
FoamFile
{
    version     2.0;
    format      ascii;
    arch        "LSB;label=32;scalar=64";
    class       volScalarField;
    location    "775";
    object      turbulenceProperties:I;
}
// * * * * * * * * * * * * * * * * * * * * * * * * * * * * * * * * * * * * * //

dimensions      [0 0 0 0 0 0 0];

internalField   nonuniform List<scalar> 
1340
(
3.02095e-05
2.6468e-05
3.04409e-05
2.60157e-05
2.60488e-05
3.04458e-05
1.6809e-05
2.58545e-05
2.57678e-05
3.05166e-05
1.58702e-05
2.15151e-05
1.67317e-05
2.57262e-05
2.55262e-05
3.06279e-05
1.89125e-05
2.05118e-05
1.56333e-05
2.13214e-05
1.66515e-05
2.56106e-05
2.53292e-05
3.0741e-05
2.24272e-05
2.10249e-05
2.10376e-05
1.85359e-05
2.02301e-05
1.53805e-05
2.11307e-05
1.65735e-05
2.55118e-05
2.51869e-05
3.08472e-05
2.40793e-05
2.33383e-05
2.24036e-05
2.19434e-05
2.05574e-05
2.06508e-05
1.81451e-05
1.99412e-05
1.5115e-05
2.09475e-05
1.64972e-05
2.54326e-05
2.5097e-05
3.09447e-05
2.70891e-05
2.61617e-05
2.52409e-05
2.43342e-05
2.34133e-05
2.2733e-05
2.18333e-05
2.14408e-05
2.00738e-05
2.025e-05
1.77419e-05
1.96464e-05
1.4838e-05
2.07703e-05
1.64231e-05
2.53684e-05
2.50479e-05
3.10466e-05
3.0466e-05
2.9577e-05
2.86931e-05
2.78169e-05
2.69501e-05
2.60939e-05
2.52502e-05
2.44077e-05
2.35796e-05
2.27231e-05
2.21051e-05
2.12417e-05
2.0918e-05
1.95728e-05
1.98342e-05
1.73251e-05
1.93441e-05
1.45495e-05
2.05956e-05
1.63526e-05
2.53143e-05
2.50311e-05
3.11378e-05
3.4381e-05
3.36457e-05
3.28939e-05
3.21279e-05
3.13513e-05
3.05669e-05
2.97777e-05
2.89866e-05
2.8196e-05
2.74076e-05
2.66233e-05
2.58451e-05
2.50735e-05
2.43127e-05
2.35486e-05
2.27997e-05
2.20093e-05
2.1455e-05
2.06293e-05
2.03754e-05
1.90548e-05
1.94037e-05
1.68956e-05
1.90342e-05
1.42507e-05
2.04218e-05
1.62855e-05
2.52679e-05
2.50561e-05
3.12279e-05
3.79235e-05
3.75971e-05
3.72463e-05
3.68693e-05
3.64645e-05
3.60307e-05
3.55678e-05
3.50759e-05
3.45557e-05
3.40087e-05
3.34362e-05
3.28398e-05
3.2222e-05
3.15849e-05
3.09314e-05
3.02634e-05
2.95843e-05
2.88966e-05
2.8203e-05
2.75061e-05
2.6808e-05
2.61104e-05
2.54143e-05
2.47219e-05
2.40331e-05
2.33539e-05
2.26676e-05
2.19982e-05
2.12751e-05
2.07857e-05
1.9999e-05
1.98152e-05
1.85222e-05
1.89599e-05
1.6455e-05
1.87172e-05
1.3944e-05
2.02493e-05
1.62201e-05
2.52283e-05
2.51035e-05
3.13167e-05
4.6222e-06
1.14039e-06
0
0
0.000196647
0.000282027
0.00262914
0.00938118
0.0185806
0.027985
0.0358397
0.0410286
0.0426423
0.0396661
0.0305649
0.010017
0.0299882
0.03909
0.0406629
0.0358172
0.0261322
0.0146687
0.00531251
0.000409545
0.000146522
0
0
0
5.23319e-06
1.91944e-05
3.72423e-05
3.94054e-05
3.68793e-05
3.56955e-05
3.55959e-05
3.54979e-05
3.52444e-05
3.49655e-05
3.46919e-05
3.4403e-05
3.40902e-05
3.37533e-05
3.33912e-05
3.30022e-05
3.25863e-05
3.21439e-05
3.16765e-05
3.11855e-05
3.06721e-05
3.01383e-05
2.95865e-05
2.90192e-05
2.84382e-05
2.78463e-05
2.72461e-05
2.66399e-05
2.60301e-05
2.54188e-05
2.48068e-05
2.41951e-05
2.35855e-05
2.29771e-05
2.2378e-05
2.17685e-05
2.11785e-05
2.05236e-05
2.01e-05
1.93534e-05
1.92398e-05
1.79768e-05
1.85042e-05
1.6006e-05
1.8393e-05
1.36312e-05
2.00745e-05
1.61588e-05
2.51926e-05
2.51764e-05
3.14048e-05
2.84579e-05
6.29335e-06
1.59285e-06
0
0
8.24741e-06
0.000708651
0.000943297
0.00592469
0.0139249
0.0230596
0.0313261
0.0373485
0.0401437
0.0387613
0.0319601
0.0161706
0.0245811
0.0353965
0.0384067
0.0349544
0.0264318
0.0156017
0.00615147
0.000833595
0.000240761
0
0
0
3.06936e-06
1.06727e-05
3.2335e-05
3.67646e-05
3.43583e-05
3.27199e-05
3.24768e-05
3.24331e-05
3.22323e-05
3.1987e-05
3.17507e-05
3.15003e-05
3.1221e-05
3.09157e-05
3.05871e-05
3.02347e-05
2.98576e-05
2.94572e-05
2.90349e-05
2.8592e-05
2.81303e-05
2.76523e-05
2.71601e-05
2.66555e-05
2.61414e-05
2.56199e-05
2.50934e-05
2.45639e-05
2.40332e-05
2.35021e-05
2.29706e-05
2.24407e-05
2.19102e-05
2.13895e-05
2.08553e-05
2.03443e-05
1.97582e-05
1.94009e-05
1.86954e-05
1.86516e-05
1.74217e-05
1.80387e-05
1.55501e-05
1.80621e-05
1.33127e-05
1.98993e-05
1.60952e-05
2.51585e-05
2.5251e-05
3.14977e-05
2.8799e-05
2.67609e-05
8.50594e-06
2.05843e-06
0
0
0
0.000391628
0.000500955
0.00319054
0.00974639
0.0182846
0.0267663
0.0335278
0.0374227
0.0374977
0.0326842
0.0207842
0.0187354
0.0316447
0.0360678
0.033961
0.0265941
0.016417
0.00696788
0.00129115
0.000295394
0
0
0
7.46195e-07
1.67151e-06
2.5151e-05
3.30409e-05
3.18127e-05
3.00549e-05
2.96971e-05
2.9714e-05
2.95506e-05
2.92933e-05
2.90556e-05
2.88294e-05
2.85822e-05
2.83056e-05
2.80041e-05
2.76807e-05
2.73363e-05
2.6972e-05
2.65887e-05
2.61886e-05
2.5774e-05
2.53472e-05
2.49101e-05
2.44652e-05
2.40147e-05
2.35608e-05
2.31054e-05
2.26502e-05
2.21953e-05
2.17406e-05
2.12876e-05
2.08327e-05
2.03889e-05
1.9929e-05
1.94959e-05
1.89801e-05
1.86894e-05
1.80267e-05
1.80514e-05
1.68582e-05
1.75629e-05
1.50896e-05
1.77255e-05
1.29905e-05
1.97149e-05
1.60275e-05
2.51359e-05
2.53289e-05
3.15956e-05
2.53444e-05
2.66768e-05
2.5501e-05
1.25866e-05
2.94041e-06
0
0
0
4.40818e-05
0.000724931
0.00124962
0.00624333
0.0138271
0.022259
0.0296325
0.0345458
0.0359558
0.0328655
0.023721
0.0120803
0.0279092
0.0337085
0.0328691
0.0265869
0.0170623
0.00769221
0.00171173
0.000346887
0
0
0
6.01447e-08
5.586e-06
2.07446e-05
2.95693e-05
2.94489e-05
2.74763e-05
2.68495e-05
2.70059e-05
2.70589e-05
2.68818e-05
2.66356e-05
2.64008e-05
2.61667e-05
2.59127e-05
2.56336e-05
2.53333e-05
2.50153e-05
2.46807e-05
2.43317e-05
2.39701e-05
2.35988e-05
2.32195e-05
2.28349e-05
2.24473e-05
2.20586e-05
2.16708e-05
2.12851e-05
2.09017e-05
2.05199e-05
2.01404e-05
1.97586e-05
1.93892e-05
1.90024e-05
1.86458e-05
1.81995e-05
1.7976e-05
1.73559e-05
1.74486e-05
1.62914e-05
1.70861e-05
1.46234e-05
1.73893e-05
1.26418e-05
1.95416e-05
1.59317e-05
2.51126e-05
2.54189e-05
3.17269e-05
2.3705e-05
2.36205e-05
2.50114e-05
2.39192e-05
1.64613e-05
3.80967e-06
5.53628e-08
0
0
0
0.000456889
0.000486438
0.00340407
0.00960828
0.017535
0.0253119
0.0312578
0.0341054
0.0328094
0.026145
0.00971926
0.0236431
0.0311559
0.0317567
0.0266833
0.017913
0.00865986
0.00220406
0.000331839
0.000104265
0
0
0
4.30706e-06
1.49485e-05
2.57037e-05
2.81984e-05
2.65086e-05
2.48667e-05
2.44083e-05
2.44597e-05
2.44435e-05
2.42753e-05
2.40484e-05
2.38171e-05
2.35793e-05
2.33248e-05
2.30513e-05
2.27622e-05
2.24616e-05
2.21502e-05
2.18315e-05
2.15077e-05
2.11808e-05
2.0854e-05
2.05285e-05
2.02069e-05
1.98889e-05
1.95763e-05
1.92669e-05
1.89606e-05
1.86529e-05
1.83582e-05
1.80447e-05
1.77667e-05
1.73917e-05
1.72367e-05
1.66646e-05
1.68218e-05
1.57127e-05
1.65841e-05
1.41638e-05
1.70244e-05
1.2333e-05
1.93356e-05
1.58625e-05
2.50695e-05
2.55003e-05
3.18147e-05
2.22359e-05
2.189e-05
2.21119e-05
2.24638e-05
2.2015e-05
1.93848e-05
7.81595e-06
1.87548e-06
1.53697e-08
0
0
4.79538e-05
0.000574344
0.00102508
0.00475386
0.0106662
0.0177649
0.0244763
0.0292719
0.0308735
0.0281692
0.0195848
0.0129803
0.0251319
0.0289436
0.0268577
0.0204333
0.0121816
0.00521719
0.000965978
0.00031384
4.6208e-05
0
0
4.7596e-07
3.34324e-06
1.03584e-05
2.04105e-05
2.39399e-05
2.3413e-05
2.22011e-05
2.16822e-05
2.16335e-05
2.15997e-05
2.14524e-05
2.12469e-05
2.10323e-05
2.08114e-05
2.05786e-05
2.03343e-05
2.00799e-05
1.98209e-05
1.95597e-05
1.92989e-05
1.90401e-05
1.87859e-05
1.8539e-05
1.82988e-05
1.80671e-05
1.78406e-05
1.76196e-05
1.73977e-05
1.71902e-05
1.69628e-05
1.67735e-05
1.64878e-05
1.64045e-05
1.59033e-05
1.61134e-05
1.5099e-05
1.59986e-05
1.37285e-05
1.65388e-05
1.20949e-05
1.88859e-05
1.54896e-05
2.45086e-05
2.48593e-05
3.06738e-05
2.04337e-05
2.02402e-05
2.02866e-05
2.0176e-05
2.0101e-05
2.05977e-05
1.94884e-05
1.56494e-05
2.38334e-06
6.25463e-07
0
0
0
9.7817e-05
0.000551738
0.000878154
0.00411604
0.0093769
0.0158261
0.0220401
0.026497
0.0278509
0.0249407
0.0159548
0.0144128
0.023803
0.0259882
0.0229312
0.0165316
0.00931068
0.00367756
0.000473586
0.000219794
0
0
0
2.81413e-07
3.00121e-06
1.01155e-05
1.81816e-05
2.07576e-05
2.00987e-05
1.91111e-05
1.87785e-05
1.87641e-05
1.8703e-05
1.85467e-05
1.83588e-05
1.81706e-05
1.79786e-05
1.77799e-05
1.75792e-05
1.73789e-05
1.71843e-05
1.6997e-05
1.68197e-05
1.66551e-05
1.65025e-05
1.63643e-05
1.62348e-05
1.61149e-05
1.5995e-05
1.58909e-05
1.57663e-05
1.56803e-05
1.54974e-05
1.55e-05
1.50784e-05
1.53563e-05
1.44325e-05
1.53989e-05
1.32355e-05
1.61085e-05
1.18335e-05
1.86433e-05
1.55161e-05
2.44651e-05
2.51514e-05
3.08099e-05
1.86092e-05
1.84799e-05
1.86023e-05
1.85096e-05
1.82835e-05
1.82188e-05
1.84802e-05
1.87758e-05
1.69203e-05
1.02786e-05
2.37633e-06
3.31669e-08
0
0
0
9.89804e-05
0.000533987
0.000722879
0.00375019
0.00869177
0.0147602
0.0205636
0.0245689
0.0253939
0.0218239
0.0114169
0.0162057
0.0227673
0.0231667
0.0191794
0.0128782
0.00658525
0.00211819
0.000281837
8.58708e-05
0
0
0
2.91526e-07
3.23886e-06
1.13545e-05
1.6784e-05
1.76572e-05
1.67795e-05
1.61673e-05
1.60564e-05
1.60374e-05
1.59316e-05
1.57737e-05
1.5611e-05
1.54551e-05
1.53033e-05
1.51564e-05
1.50224e-05
1.49035e-05
1.48029e-05
1.47233e-05
1.46641e-05
1.46258e-05
1.46018e-05
1.45919e-05
1.45831e-05
1.459e-05
1.45738e-05
1.45955e-05
1.45157e-05
1.46075e-05
1.42661e-05
1.46161e-05
1.37753e-05
1.48217e-05
1.2738e-05
1.57158e-05
1.15193e-05
1.84531e-05
1.54709e-05
2.44936e-05
2.53663e-05
3.09289e-05
1.67344e-05
1.68917e-05
1.68539e-05
1.67041e-05
1.65436e-05
1.64572e-05
1.65433e-05
1.70206e-05
1.66666e-05
1.40832e-05
4.75251e-06
1.20864e-06
0
0
0
0
9.35185e-05
0.000521055
0.000728285
0.00369285
0.00846603
0.0142405
0.0196052
0.0229982
0.023019
0.0183894
0.00483051
0.0174566
0.0214299
0.0201989
0.0155065
0.00943249
0.00416391
0.000887838
0.000242219
0
0
0
0
1.78289e-06
5.74394e-06
1.23801e-05
1.4825e-05
1.45099e-05
1.37837e-05
1.3518e-05
1.34852e-05
1.34204e-05
1.32986e-05
1.31723e-05
1.30615e-05
1.29671e-05
1.28959e-05
1.28496e-05
1.28325e-05
1.28464e-05
1.28898e-05
1.29606e-05
1.30496e-05
1.31555e-05
1.32609e-05
1.33795e-05
1.3469e-05
1.35925e-05
1.36079e-05
1.37806e-05
1.35168e-05
1.39303e-05
1.31709e-05
1.42863e-05
1.22833e-05
1.5358e-05
1.12309e-05
1.82981e-05
1.54048e-05
2.45536e-05
2.54847e-05
3.10391e-05
1.50367e-05
1.52157e-05
1.51992e-05
1.51037e-05
1.50166e-05
1.49128e-05
1.48196e-05
1.48331e-05
1.50582e-05
1.5449e-05
1.45362e-05
9.88078e-06
2.34373e-06
3.32288e-08
0
0
0
0
9.63237e-05
0.000518654
0.000875248
0.00389679
0.00861192
0.0141311
0.0189799
0.0215682
0.0205046
0.0143763
0.00962506
0.0180322
0.0196998
0.0170276
0.0118589
0.00629307
0.00219131
0.000344579
7.36898e-05
0
0
0
3.3034e-07
5.88692e-07
7.98513e-06
1.13291e-05
1.18691e-05
1.1309e-05
1.09557e-05
1.08949e-05
1.08724e-05
1.08127e-05
1.07539e-05
1.07255e-05
1.07374e-05
1.07891e-05
1.08827e-05
1.10188e-05
1.11907e-05
1.1393e-05
1.16117e-05
1.18434e-05
1.20684e-05
1.22988e-05
1.249e-05
1.27064e-05
1.28064e-05
1.30469e-05
1.28576e-05
1.33219e-05
1.26451e-05
1.38095e-05
1.19017e-05
1.50423e-05
1.10132e-05
1.81713e-05
1.53371e-05
2.46398e-05
2.5509e-05
3.11665e-05
1.34125e-05
1.35894e-05
1.35878e-05
1.35186e-05
1.34602e-05
1.3391e-05
1.33431e-05
1.32567e-05
1.32e-05
1.32717e-05
1.36909e-05
1.36705e-05
1.19309e-05
4.32816e-06
1.16032e-06
4.2482e-09
0
0
0
0
0.000107163
0.000495598
0.00111792
0.0043288
0.00907695
0.0143263
0.0185198
0.0200652
0.0176251
0.00914798
0.0130965
0.0178646
0.0174448
0.0136002
0.00831127
0.00359636
0.000683036
0.000222745
1.6606e-05
0
0
1.70032e-08
1.43218e-06
4.35735e-06
7.96686e-06
9.0256e-06
8.72951e-06
8.307e-06
8.17493e-06
8.18664e-06
8.23129e-06
8.31539e-06
8.46821e-06
8.69017e-06
8.96714e-06
9.28542e-06
9.63157e-06
9.99423e-06
1.03585e-05
1.0719e-05
1.10589e-05
1.13905e-05
1.16696e-05
1.19605e-05
1.21269e-05
1.24137e-05
1.22882e-05
1.27871e-05
1.21887e-05
1.3382e-05
1.15715e-05
1.47555e-05
1.08276e-05
1.80629e-05
1.52489e-05
2.47326e-05
2.5406e-05
3.13269e-05
1.23057e-05
1.24481e-05
1.24716e-05
1.24147e-05
1.23581e-05
1.23154e-05
1.22918e-05
1.22393e-05
1.21805e-05
1.21031e-05
1.21252e-05
1.22862e-05
1.27125e-05
1.18734e-05
9.21915e-06
4.89641e-07
1.97024e-07
0
0
0
0
0
0.00023045
0.000256338
0.00159475
0.00503956
0.00983906
0.0147163
0.018039
0.0182584
0.0140576
0.00555114
0.0148856
0.0168272
0.0145945
0.0100061
0.00509336
0.00157504
3.00958e-05
0.000112137
0
0
0
5.40948e-07
1.02595e-06
3.26848e-06
4.06644e-06
4.49838e-06
4.56397e-06
4.68671e-06
5.10221e-06
5.66376e-06
6.24802e-06
6.83324e-06
7.41451e-06
7.98092e-06
8.52305e-06
9.03922e-06
9.52381e-06
9.98104e-06
1.04007e-05
1.07998e-05
1.1137e-05
1.14709e-05
1.16798e-05
1.19858e-05
1.19137e-05
1.24212e-05
1.19088e-05
1.30883e-05
1.14118e-05
1.45621e-05
1.07982e-05
1.80071e-05
1.51411e-05
2.48462e-05
2.50634e-05
3.16493e-05
1.11148e-05
1.12795e-05
1.12955e-05
1.12374e-05
1.11845e-05
1.11725e-05
1.11806e-05
1.11118e-05
1.10962e-05
1.10734e-05
1.10099e-05
1.09746e-05
1.1091e-05
1.13322e-05
1.15005e-05
1.00924e-05
6.08558e-06
1.75355e-06
4.79071e-08
0
0
0
0
1.62256e-05
0.00027843
0.00018096
0.00221829
0.00602955
0.0108124
0.0151165
0.017259
0.0157788
0.00896379
0.01095
0.0153383
0.0147873
0.0111225
0.00633898
0.00243627
0.000295339
0.000191951
0
0
0
7.92747e-08
1.2456e-06
2.86418e-06
6.00922e-06
5.48842e-06
4.64319e-06
4.84119e-06
5.49374e-06
6.18116e-06
6.79629e-06
7.35468e-06
7.88437e-06
8.38852e-06
8.86757e-06
9.31505e-06
9.73713e-06
1.01267e-05
1.04995e-05
1.08185e-05
1.11296e-05
1.13229e-05
1.15952e-05
1.15284e-05
1.20135e-05
1.15394e-05
1.27043e-05
1.10649e-05
1.42586e-05
1.04637e-05
1.78479e-05
1.48518e-05
2.48409e-05
2.44109e-05
3.21753e-05
1.15441e-05
1.16256e-05
1.16197e-05
1.15576e-05
1.14983e-05
1.14581e-05
1.14343e-05
1.13711e-05
1.13291e-05
1.12801e-05
1.12033e-05
1.11352e-05
1.10836e-05
1.10694e-05
1.11466e-05
1.13927e-05
1.09411e-05
9.25091e-06
4.80154e-06
1.53092e-06
5.31729e-08
0
0
0
0
2.97577e-05
0.000388856
0.000590688
0.00318925
0.00736188
0.012087
0.0157262
0.0165636
0.0131508
0.00535439
0.0135236
0.014992
0.0124436
0.00785036
0.00325556
0.000930159
0.000217477
0.000171462
7.72464e-05
1.34191e-05
0
1.8474e-07
1.83823e-07
6.73296e-06
9.23494e-06
8.93792e-06
8.33909e-06
8.24248e-06
8.45552e-06
8.75114e-06
9.06041e-06
9.37921e-06
9.7065e-06
1.00328e-05
1.03539e-05
1.06631e-05
1.09679e-05
1.12391e-05
1.15019e-05
1.16679e-05
1.18937e-05
1.18505e-05
1.22672e-05
1.18858e-05
1.29138e-05
1.14777e-05
1.44262e-05
1.0805e-05
1.80244e-05
1.44717e-05
2.50832e-05
2.32635e-05
3.38861e-05
1.06714e-05
1.07069e-05
1.07221e-05
1.07434e-05
1.07575e-05
1.07718e-05
1.07994e-05
1.08325e-05
1.08603e-05
1.08762e-05
1.08915e-05
1.09189e-05
1.09431e-05
1.09686e-05
1.09908e-05
1.11115e-05
1.13207e-05
1.14693e-05
1.09639e-05
9.53483e-06
4.89317e-06
1.45968e-06
0
0
0
0
0
7.53321e-05
0.000357592
0.000672552
0.00294493
0.00641596
0.0101628
0.0128678
0.0131825
0.00991149
0.00534551
0.0112019
0.0118924
0.00964676
0.00618247
0.00311825
0.00113576
0.000160416
0.000148995
6.1267e-05
0
8.62197e-09
1.32353e-06
5.15841e-06
8.88087e-06
1.00612e-05
1.00913e-05
9.99235e-06
1.00047e-05
1.00848e-05
1.01861e-05
1.0296e-05
1.04114e-05
1.05297e-05
1.0648e-05
1.07729e-05
1.08853e-05
1.10032e-05
1.10371e-05
1.11098e-05
1.09528e-05
1.12655e-05
1.07923e-05
1.18094e-05
1.01132e-05
1.33451e-05
8.84621e-06
1.70384e-05
1.31718e-05
2.39544e-05
2.32311e-05
3.37691e-05
)
;

boundaryField
{
    inlet
    {
        type            calculated;
        value           nonuniform List<scalar> 
27
(
7.7275e-05
7.73429e-05
7.74506e-05
7.75867e-05
7.77308e-05
7.78801e-05
7.80379e-05
7.82028e-05
7.83741e-05
7.85461e-05
7.87181e-05
7.88871e-05
7.90501e-05
7.92038e-05
7.93446e-05
7.94688e-05
7.9579e-05
7.94048e-05
7.94414e-05
7.9442e-05
7.93891e-05
7.92764e-05
7.90879e-05
7.88143e-05
7.84251e-05
7.80385e-05
7.72941e-05
)
;
    }
    outlet
    {
        type            calculated;
        value           nonuniform List<scalar> 
78
(
9.61314e-06
9.66847e-06
9.69697e-06
9.73376e-06
9.76136e-06
9.78931e-06
9.83524e-06
9.8883e-06
9.93427e-06
9.96477e-06
9.99462e-06
1.00397e-05
1.00832e-05
1.01284e-05
1.01685e-05
1.02964e-05
1.0498e-05
1.06279e-05
1.01544e-05
8.87575e-06
4.63673e-06
1.41448e-06
0
0
0
0
0
7.55084e-05
0.000357184
0.000653206
0.00293177
0.00640454
0.0101564
0.0128717
0.0132037
0.00996304
0.00516823
0.0111431
0.0118605
0.00963331
0.00618102
0.00312292
0.001143
0.000130256
0.000145518
5.97462e-05
0
8.06962e-09
1.23756e-06
4.86708e-06
8.41767e-06
9.54512e-06
9.56658e-06
9.45704e-06
9.4448e-06
9.48837e-06
9.54473e-06
9.60369e-06
9.66343e-06
9.72375e-06
9.7823e-06
9.85097e-06
9.90553e-06
9.97926e-06
9.94917e-06
1.00049e-05
9.74088e-06
1.01706e-05
9.42811e-06
1.08895e-05
8.27968e-06
1.27767e-05
4.57558e-06
1.67161e-05
1.24648e-05
2.35483e-05
2.32592e-05
3.28543e-05
)
;
    }
    walls
    {
        type            calculated;
        value           nonuniform List<scalar> 0();
    }
    frontAndBack
    {
        type            empty;
    }
    procBoundary7to3
    {
        type            processor;
        value           nonuniform List<scalar> 
16
(
3.40411e-05
3.44356e-05
3.00836e-05
2.77523e-05
2.60955e-05
2.4118e-05
2.18311e-05
1.97108e-05
1.68184e-05
1.68184e-05
1.50951e-05
1.34719e-05
1.23681e-05
1.11295e-05
1.16553e-05
1.05894e-05
)
;
    }
    procBoundary7to6
    {
        type            processor;
        value           nonuniform List<scalar> 
91
(
3.01653e-05
2.69084e-05
2.69084e-05
2.62655e-05
2.62655e-05
1.68751e-05
1.68751e-05
1.60885e-05
2.17074e-05
2.17074e-05
1.92685e-05
2.07818e-05
2.07818e-05
2.28905e-05
2.14745e-05
2.14092e-05
2.14092e-05
2.47232e-05
2.39227e-05
2.29543e-05
2.29543e-05
2.80576e-05
2.70463e-05
2.60471e-05
2.5063e-05
2.5063e-05
3.19367e-05
3.09438e-05
2.99604e-05
2.89891e-05
2.80315e-05
2.80315e-05
3.66134e-05
3.57655e-05
3.49025e-05
3.40266e-05
3.31418e-05
3.22513e-05
3.13584e-05
3.13584e-05
4.11384e-05
4.07391e-05
4.03124e-05
3.98558e-05
3.93679e-05
3.88483e-05
3.82968e-05
3.77138e-05
3.71004e-05
3.64589e-05
3.57902e-05
3.50965e-05
3.50965e-05
9.35447e-08
0
0
0.000579485
0.000546507
0.00511501
0.0135165
0.0235558
0.0329668
0.0403002
0.0446038
0.0449587
0.0402206
0.028351
0.0167419
0.0352286
0.0427811
0.0428696
0.0365726
0.025699
0.0136165
0.00452086
0.000859223
2.6827e-05
0
0
0
7.24462e-06
2.73188e-05
4.23334e-05
4.27899e-05
4.01989e-05
3.92147e-05
3.90743e-05
3.88666e-05
3.85497e-05
3.82335e-05
3.82335e-05
)
;
    }
}


// ************************************************************************* //
