/*--------------------------------*- C++ -*----------------------------------*\
| =========                 |                                                 |
| \\      /  F ield         | OpenFOAM: The Open Source CFD Toolbox           |
|  \\    /   O peration     | Version:  2306                                  |
|   \\  /    A nd           | Website:  www.openfoam.com                      |
|    \\/     M anipulation  |                                                 |
\*---------------------------------------------------------------------------*/
FoamFile
{
    version     2.0;
    format      ascii;
    arch        "LSB;label=32;scalar=64";
    class       volScalarField;
    location    "775";
    object      turbulenceProperties:L;
}
// * * * * * * * * * * * * * * * * * * * * * * * * * * * * * * * * * * * * * //

dimensions      [0 1 0 0 0 0 0];

internalField   nonuniform List<scalar> 
1340
(
0.222829
0.255623
0.221222
0.259563
0.259699
0.221257
0.401815
0.261245
0.262508
0.220804
0.425065
0.313719
0.403708
0.262613
0.264975
0.220063
0.356302
0.328734
0.431602
0.316648
0.405695
0.263868
0.267023
0.219318
0.300018
0.320219
0.32022
0.363663
0.333416
0.438798
0.319589
0.407654
0.26496
0.268525
0.218628
0.279126
0.288149
0.300322
0.306783
0.327645
0.326349
0.371623
0.338354
0.446617
0.322471
0.409595
0.265857
0.269486
0.218004
0.24778
0.256676
0.266169
0.27623
0.287249
0.295993
0.308332
0.31413
0.335689
0.332945
0.380206
0.343547
0.455075
0.325313
0.411506
0.266602
0.270021
0.217353
0.220285
0.226924
0.233947
0.241366
0.249195
0.257457
0.26616
0.275463
0.285268
0.296163
0.304581
0.317092
0.322143
0.34444
0.340067
0.389497
0.349036
0.464226
0.328169
0.413348
0.267248
0.270214
0.216781
0.19568
0.199887
0.204395
0.209215
0.214356
0.219825
0.225631
0.231784
0.238291
0.245169
0.25243
0.260087
0.268163
0.276644
0.285725
0.295229
0.305963
0.313994
0.326684
0.33089
0.353968
0.347762
0.39955
0.354845
0.474096
0.331062
0.415128
0.267814
0.269963
0.21622
0.178532
0.18
0.181611
0.183382
0.18533
0.187473
0.189825
0.192398
0.195207
0.198261
0.201572
0.205153
0.209012
0.213158
0.217599
0.222346
0.227404
0.232781
0.23848
0.24451
0.250878
0.257596
0.264681
0.272141
0.280004
0.288225
0.297047
0.306194
0.316721
0.324295
0.337165
0.340418
0.364318
0.356057
0.410407
0.360985
0.484669
0.333985
0.416885
0.268312
0.269478
0.215671
2.94194
5.80647
0
0
0.0910135
0.18558
0.706338
0.680117
0.706026
0.741822
0.788063
0.851951
0.950059
1.12594
1.54696
4.8342
1.6112
1.18103
1.01174
0.919876
0.854836
0.791578
0.698427
0.316351
0.276924
0
0
0
2.91817
0.416202
0.182329
0.173729
0.184169
0.189882
0.190413
0.190931
0.192234
0.193686
0.195137
0.196698
0.198423
0.200321
0.202412
0.204714
0.207243
0.210013
0.21303
0.216304
0.219847
0.223667
0.22777
0.23216
0.236847
0.241833
0.247122
0.252716
0.258619
0.264834
0.271375
0.27826
0.28549
0.293104
0.301021
0.309535
0.318257
0.328522
0.335554
0.348603
0.350779
0.375549
0.364987
0.422088
0.367487
0.495942
0.337
0.418557
0.268771
0.268727
0.215133
0.239751
1.79595
8.37826
0
0
1.91501
0.339792
1.00259
0.713729
0.728535
0.763158
0.80836
0.86934
0.959828
1.1141
1.44706
2.95517
1.95153
1.30717
1.08814
0.975689
0.900874
0.834479
0.743142
0.488123
0.472648
0
0
0
6.037
0.941109
0.209457
0.186906
0.198013
0.207117
0.208611
0.208906
0.210148
0.211682
0.213189
0.214814
0.21666
0.218722
0.220994
0.223492
0.226237
0.229235
0.232493
0.23602
0.239823
0.243902
0.248261
0.252904
0.257829
0.263037
0.268525
0.274293
0.280341
0.28668
0.293331
0.30029
0.307608
0.31516
0.32331
0.331521
0.341455
0.347843
0.361066
0.362025
0.387699
0.374571
0.434635
0.37436
0.507971
0.340076
0.420306
0.269217
0.267966
0.214565
0.238623
0.254851
1.13107
7.56447
0
0
0
0.183747
0.526741
0.764985
0.749909
0.782245
0.826686
0.88537
0.969555
1.10676
1.38001
2.26575
2.53934
1.46338
1.17482
1.03681
0.950679
0.878637
0.786347
0.597538
0.703671
0
0
0
2.10892
9.11144
0.272638
0.207279
0.214121
0.225476
0.228081
0.228006
0.229217
0.23113
0.23294
0.234704
0.236668
0.238909
0.241408
0.244156
0.24716
0.250427
0.253967
0.25778
0.261863
0.266213
0.27083
0.275707
0.280839
0.286217
0.291837
0.297691
0.303794
0.31016
0.316788
0.323749
0.330853
0.338558
0.346163
0.355663
0.361288
0.37466
0.374252
0.400847
0.384891
0.448082
0.381616
0.520738
0.343372
0.422184
0.269542
0.267179
0.21397
0.268657
0.257042
0.267112
0.625135
4.88606
0
0
0
0.164953
0.416216
0.941035
0.776424
0.799695
0.843023
0.89992
0.979085
1.10289
1.33401
1.95177
3.89703
1.65596
1.27015
1.10119
1.00165
0.923001
0.830741
0.684177
0.891718
0
0
0
0.00115405
2.27108
0.336561
0.231089
0.231718
0.246524
0.252024
0.250691
0.250288
0.251876
0.254106
0.25629
0.25852
0.260991
0.263767
0.266826
0.270152
0.273749
0.277614
0.281742
0.286119
0.29074
0.295593
0.300658
0.305925
0.311377
0.317009
0.322823
0.328841
0.335063
0.341575
0.348136
0.355289
0.362163
0.37113
0.375831
0.389342
0.387372
0.414987
0.395806
0.462552
0.389144
0.535279
0.346535
0.424829
0.269878
0.266272
0.213158
0.286824
0.288029
0.273433
0.28466
0.42683
3.28531
0.000892939
0
0
0
0.238778
0.842853
0.825402
0.819101
0.858998
0.914055
0.988542
1.09998
1.29472
1.74258
4.81184
1.95739
1.39248
1.1753
1.05505
0.964746
0.865412
0.703651
1.3634
0.145698
0
0
0
3.29027
0.50584
0.26439
0.245081
0.257184
0.27232
0.277197
0.276711
0.276958
0.278828
0.281376
0.284038
0.286843
0.289914
0.293294
0.296959
0.300874
0.305049
0.30945
0.314062
0.318866
0.323829
0.328935
0.33415
0.339482
0.344903
0.350452
0.356137
0.362049
0.367911
0.374366
0.3803
0.388582
0.392158
0.4057
0.402003
0.43047
0.407967
0.477755
0.397641
0.548866
0.350352
0.426787
0.270435
0.265457
0.212652
0.305608
0.310369
0.307379
0.303205
0.309221
0.349972
1.12224
7.13841
1.91564e-05
0
0
0.142608
0.494509
1.06166
0.85192
0.871622
0.920774
0.987966
1.08243
1.23127
1.51261
2.30959
3.52527
1.75406
1.36552
1.18529
1.07237
0.976192
0.892181
0.699061
0.718744
0.156982
0
0
0.569592
4.41751
0.806134
0.331379
0.286123
0.291165
0.305156
0.312035
0.312783
0.313345
0.315467
0.318445
0.32163
0.324992
0.328619
0.332516
0.336679
0.341033
0.345546
0.350179
0.354907
0.359685
0.364458
0.369234
0.373971
0.378731
0.383504
0.388431
0.393169
0.398501
0.40307
0.410133
0.412291
0.425359
0.4199
0.448193
0.423103
0.493123
0.409493
0.559877
0.358831
0.437184
0.276721
0.27235
0.22064
0.332259
0.335427
0.334601
0.336484
0.338028
0.331066
0.34829
0.436667
5.60597
1.25769
0
0
0
0.0936148
0.480525
1.11689
0.880494
0.906997
0.964401
1.04221
1.15205
1.32791
1.6718
2.77568
3.09104
1.77374
1.4143
1.23556
1.11907
1.02009
0.926117
0.629439
0.49644
0
0
0
0.118581
4.76241
0.780862
0.371795
0.330144
0.338653
0.354262
0.360241
0.36063
0.361878
0.364882
0.368549
0.372318
0.376254
0.380421
0.384728
0.389127
0.393503
0.397817
0.401993
0.405953
0.409704
0.41317
0.416482
0.419608
0.422788
0.425606
0.429031
0.431453
0.43662
0.43662
0.448893
0.440852
0.469144
0.439808
0.51174
0.420627
0.572484
0.363644
0.436588
0.277302
0.269256
0.219724
0.364532
0.367085
0.364659
0.366459
0.370976
0.372512
0.36793
0.362965
0.400211
0.709171
5.24641
0.000193513
0
0
0
0.0889581
0.43416
1.17446
0.900282
0.936292
1.00458
1.09645
1.22803
1.44461
1.89439
3.81988
2.67038
1.75338
1.43843
1.2687
1.15033
1.04003
0.899859
1.90185
0.183378
0
0
0
0.131951
3.92418
0.626168
0.405024
0.387409
0.40427
0.418437
0.421334
0.422003
0.424831
0.429026
0.433449
0.437793
0.442114
0.446375
0.450336
0.453918
0.456993
0.459463
0.461323
0.462546
0.463329
0.463675
0.463998
0.463832
0.464412
0.463794
0.46642
0.463558
0.474716
0.46343
0.491785
0.457167
0.531981
0.431331
0.58835
0.367534
0.438026
0.277065
0.267051
0.218934
0.405075
0.401303
0.402198
0.40579
0.40969
0.411933
0.410136
0.399989
0.407742
0.480915
1.9859
5.78936
0
0
0
0
0.088143
0.441726
1.1614
0.917169
0.967412
1.05018
1.16152
1.32433
1.60217
2.24068
8.85255
2.3738
1.71988
1.44865
1.28781
1.15969
1.03496
0.820352
0.901071
0
0
0
0
7.20167
1.5359
0.546048
0.462542
0.469372
0.491151
0.500396
0.501812
0.504359
0.508956
0.513792
0.518132
0.521893
0.52477
0.526658
0.527367
0.526808
0.525054
0.522215
0.51869
0.514561
0.510524
0.506061
0.50277
0.49828
0.497799
0.491631
0.501291
0.48649
0.514607
0.474527
0.551933
0.441577
0.603715
0.370792
0.440072
0.276477
0.265892
0.21822
0.450513
0.445211
0.445694
0.448511
0.451098
0.454219
0.457045
0.456872
0.450747
0.440675
0.465929
0.711024
5.0061
0.000195394
0
0
0
0
0.0887382
0.496778
1.09362
0.940643
1.00768
1.10846
1.2449
1.45039
1.82257
2.85223
4.32305
2.16363
1.68097
1.44511
1.28843
1.14872
1.00885
1.75021
0.177602
0
0
0
0.192061
1.06271
0.881244
0.600624
0.575779
0.599367
0.617424
0.620999
0.622525
0.625998
0.6294
0.631072
0.630397
0.627399
0.622024
0.614376
0.604981
0.594288
0.583148
0.571804
0.561215
0.550778
0.54243
0.533283
0.52921
0.519533
0.527245
0.508954
0.536261
0.491141
0.569889
0.451043
0.615911
0.373527
0.442188
0.275603
0.265727
0.217401
0.504739
0.498171
0.498227
0.500777
0.50295
0.505546
0.50734
0.510605
0.512861
0.510455
0.496309
0.496875
0.566507
2.11876
5.39083
4.09015e-07
0
0
0
0
0.0921501
0.596536
0.985527
0.967757
1.05953
1.18328
1.35294
1.61985
2.15538
4.43537
3.04796
2.00487
1.63611
1.42712
1.26869
1.11023
0.833785
0.764046
0.475871
0
0
2.62435e-05
6.40269
1.85498
0.84817
0.758765
0.778119
0.814471
0.827536
0.826757
0.82236
0.813989
0.799321
0.778986
0.755011
0.72921
0.703082
0.677652
0.653906
0.632003
0.612674
0.594935
0.580806
0.566786
0.559108
0.546282
0.551931
0.530484
0.556595
0.507066
0.586422
0.460017
0.626744
0.375927
0.444931
0.27467
0.266899
0.216376
0.549821
0.543532
0.542508
0.544993
0.547491
0.54939
0.550449
0.552797
0.555439
0.558942
0.558153
0.551559
0.5351
0.569276
0.746873
0.620205
0.0408611
0
0
0
0
0
0.178777
0.493268
0.972427
1.01052
1.12875
1.28087
1.49649
1.86034
2.73752
7.1477
2.51349
1.88014
1.58781
1.39738
1.22818
1.04276
3.14643
0.274991
0
0
0
0.82847
3.83584
2.06108
1.67312
1.50781
1.47805
1.43924
1.32416
1.19428
1.08305
0.990508
0.913064
0.848454
0.794645
0.749404
0.711398
0.67893
0.651656
0.627692
0.608811
0.591208
0.58075
0.566025
0.569529
0.546349
0.569932
0.518678
0.594896
0.466336
0.628737
0.377249
0.448296
0.273522
0.270656
0.214279
0.6083
0.599422
0.598577
0.601674
0.604521
0.605174
0.604737
0.608486
0.60934
0.610569
0.614052
0.616039
0.610097
0.598483
0.590747
0.669002
1.25083
6.36453
0.000588589
0
0
0
0
0.617165
0.247707
1.22465
0.959757
1.07235
1.21924
1.40965
1.69512
2.24049
4.28209
3.45559
2.18986
1.76574
1.52648
1.34368
1.20001
1.2436
0.442837
0
0
0
0.00266116
5.17504
2.41302
1.1404
1.25626
1.45857
1.39395
1.22974
1.09442
0.996047
0.920672
0.858989
0.807534
0.764074
0.727521
0.69613
0.66949
0.645862
0.626954
0.609571
0.599297
0.585339
0.588821
0.565143
0.588443
0.534605
0.613834
0.476488
0.649143
0.380797
0.457246
0.273715
0.278
0.210956
0.585438
0.581339
0.58164
0.584766
0.587784
0.589853
0.591082
0.594371
0.59658
0.59918
0.603281
0.606937
0.609716
0.610732
0.607337
0.596479
0.618665
0.733358
1.78594
6.88659
0.000805522
0
0
0
0
0.255833
0.44858
1.08848
1.01878
1.15825
1.33376
1.57168
1.95906
2.85854
7.26861
2.67675
1.97359
1.63407
1.38677
1.08981
1.13713
0.553679
0.300112
0.224402
0.516135
0
0.0336754
0.0331717
1.01851
0.741246
0.765483
0.813384
0.821224
0.800644
0.773919
0.747704
0.722429
0.698209
0.675643
0.654837
0.635991
0.618462
0.603688
0.590039
0.581782
0.570859
0.573033
0.55367
0.571526
0.526143
0.592012
0.471144
0.628919
0.377221
0.469458
0.271193
0.291822
0.200491
0.632739
0.630647
0.629762
0.62852
0.627704
0.626875
0.625281
0.623378
0.621791
0.620894
0.620032
0.618486
0.617105
0.615641
0.614382
0.608165
0.598177
0.592026
0.616391
0.711819
1.80532
6.98638
0
0
0
0
0
0.109637
0.551659
1.006
1.07091
1.2336
1.43425
1.71217
2.18068
3.35643
6.43957
2.84225
2.17382
1.85345
1.65856
1.58477
1.75991
3.97885
0.811212
0.447612
0
3.42529e-06
5.86413
1.51668
0.762672
0.673305
0.67186
0.678
0.677079
0.671843
0.665329
0.658385
0.651244
0.644086
0.637099
0.629884
0.623551
0.617041
0.615314
0.61143
0.620309
0.603218
0.629767
0.575677
0.672255
0.509641
0.768526
0.399362
0.515976
0.284316
0.292131
0.201782
)
;

boundaryField
{
    inlet
    {
        type            calculated;
        value           nonuniform List<scalar> 
27
(
0.0874116
0.087354
0.0872484
0.0871089
0.0869612
0.0868091
0.0866483
0.0864801
0.0863056
0.0861313
0.0859578
0.0857884
0.0856264
0.0854756
0.0853398
0.0852231
0.0851237
0.0853277
0.0853014
0.0853131
0.0853839
0.0855214
0.085745
0.0860664
0.0865345
0.0870081
0.0879911
)
;
    }
    outlet
    {
        type            calculated;
        value           nonuniform List<scalar> 
78
(
0.702371
0.69836
0.696315
0.693691
0.691738
0.689772
0.686561
0.682887
0.679737
0.677669
0.675658
0.672635
0.669719
0.666701
0.664053
0.656298
0.645049
0.638887
0.665517
0.764648
1.90387
6.82672
0
0
0
0
0
0.109383
0.552301
1.03581
1.07574
1.2358
1.43511
1.71155
2.17697
3.33866
6.65962
2.85692
2.1795
1.85596
1.65892
1.58241
1.74879
4.9002
0.830604
0.45901
0
2.80818e-06
5.47284
1.6066
0.804606
0.709693
0.708698
0.716359
0.717197
0.714052
0.710012
0.705821
0.701626
0.697448
0.693453
0.688803
0.685195
0.680323
0.682564
0.678922
0.697447
0.668125
0.72084
0.624288
0.820991
0.532306
1.48177
0.407058
0.545233
0.289216
0.291778
0.207399
)
;
    }
    walls
    {
        type            calculated;
        value           nonuniform List<scalar> 0();
    }
    frontAndBack
    {
        type            empty;
    }
    procBoundary7to3
    {
        type            processor;
        value           nonuniform List<scalar> 
16
(
0.200377
0.199651
0.226608
0.245192
0.260641
0.281774
0.310989
0.344162
0.403054
0.403054
0.448771
0.502514
0.547044
0.607496
0.579852
0.637634
)
;
    }
    procBoundary7to6
    {
        type            processor;
        value           nonuniform List<scalar> 
91
(
0.223099
0.251495
0.251495
0.257026
0.257026
0.400212
0.400212
0.419209
0.310866
0.310866
0.349608
0.324368
0.324368
0.293808
0.313382
0.314541
0.314541
0.271686
0.280948
0.292962
0.292962
0.239012
0.248075
0.257733
0.26801
0.26801
0.209893
0.216656
0.223813
0.231373
0.239356
0.239356
0.183527
0.187811
0.192398
0.197302
0.202533
0.2081
0.214014
0.214014
0.164523
0.166046
0.167713
0.169542
0.171549
0.17375
0.176158
0.178789
0.181653
0.184761
0.188127
0.191764
0.191764
0.00423993
0
0
0.239168
0.990884
0.650121
0.655115
0.68241
0.718356
0.765731
0.83301
0.940007
1.14282
1.7007
2.9333
1.38157
1.07573
0.942974
0.867854
0.811144
0.748165
0.657678
0.904183
0.259438
0
0
0
1.86666
0.265194
0.161058
0.159779
0.168955
0.172944
0.173555
0.174442
0.175793
0.177164
0.177164
)
;
    }
}


// ************************************************************************* //
