/*--------------------------------*- C++ -*----------------------------------*\
| =========                 |                                                 |
| \\      /  F ield         | OpenFOAM: The Open Source CFD Toolbox           |
|  \\    /   O peration     | Version:  2306                                  |
|   \\  /    A nd           | Website:  www.openfoam.com                      |
|    \\/     M anipulation  |                                                 |
\*---------------------------------------------------------------------------*/
FoamFile
{
    version     2.0;
    format      ascii;
    arch        "LSB;label=32;scalar=64";
    class       volScalarField;
    location    "375";
    object      nut;
}
// * * * * * * * * * * * * * * * * * * * * * * * * * * * * * * * * * * * * * //

dimensions      [0 2 -1 0 0 0 0];

internalField   nonuniform List<scalar> 
1340
(
0.0869112
0.0784775
0.0690199
0.0538227
0.153845
0.148556
0.139898
0.147221
0.206341
0.2076
0.201644
0.212155
0.215379
0.231974
0.239222
0.255752
0.175079
0.21721
0.248093
0.278432
0.0932769
0.160433
0.22403
0.278403
0.0214956
0.0783192
0.166238
0.252395
0.000853357
0.0171171
0.0904085
0.200168
0.000189643
0.00464373
0.0306624
0.132972
0
3.35009e-08
0.000482129
0.072487
0
0
0.000809107
0.0333471
9.66216e-09
0
0.000283339
0.0131324
2.29949e-06
6.39757e-12
7.34758e-05
0.00434977
9.9057e-06
2.82292e-11
1.3785e-06
0.00111364
9.27338e-06
2.68376e-06
3.63838e-10
7.22598e-05
6.42548e-06
9.45184e-06
4.48399e-11
7.29835e-07
5.26179e-06
1.2108e-05
2.84522e-10
1.72688e-16
5.30579e-06
9.46459e-06
1.59508e-06
5.21787e-10
5.74091e-06
6.92528e-06
6.82932e-06
8.78242e-08
6.07572e-06
5.87426e-06
8.49257e-06
1.6962e-06
6.19467e-06
5.73124e-06
7.57806e-06
4.60222e-06
6.1856e-06
5.89109e-06
6.61718e-06
6.1537e-06
6.14624e-06
6.04398e-06
6.1716e-06
6.41774e-06
6.11954e-06
6.1138e-06
6.06179e-06
6.28621e-06
6.10955e-06
6.12732e-06
6.07397e-06
6.16525e-06
6.10827e-06
6.12159e-06
6.10052e-06
6.11782e-06
6.10921e-06
6.11517e-06
6.11327e-06
6.11091e-06
6.10981e-06
6.11211e-06
6.11537e-06
6.11438e-06
6.10982e-06
6.11125e-06
6.11395e-06
6.11674e-06
6.10958e-06
6.11109e-06
6.11252e-06
6.11684e-06
6.10934e-06
6.11097e-06
6.11176e-06
6.11605e-06
6.10918e-06
6.11078e-06
6.1114e-06
6.11525e-06
6.1091e-06
6.1106e-06
6.11116e-06
6.11465e-06
6.10832e-06
6.10907e-06
6.11046e-06
6.11098e-06
6.11421e-06
6.10838e-06
6.10908e-06
6.11038e-06
6.11084e-06
6.11386e-06
6.10847e-06
6.10913e-06
6.11034e-06
6.11075e-06
6.11357e-06
6.1086e-06
6.10921e-06
6.11035e-06
6.11071e-06
6.11334e-06
6.10874e-06
6.10931e-06
6.11039e-06
6.11071e-06
6.11317e-06
6.10891e-06
6.10945e-06
6.11046e-06
6.11076e-06
6.11305e-06
6.10909e-06
6.10961e-06
6.11056e-06
6.11084e-06
6.11298e-06
6.10928e-06
6.10978e-06
6.11068e-06
6.11095e-06
6.11295e-06
6.10948e-06
6.10996e-06
6.11083e-06
6.11109e-06
6.11296e-06
6.10968e-06
6.11015e-06
6.11098e-06
6.11125e-06
6.11301e-06
6.10987e-06
6.11034e-06
6.11114e-06
6.11142e-06
6.11308e-06
6.11005e-06
6.11052e-06
6.1113e-06
6.11159e-06
6.11318e-06
6.10972e-06
6.1102e-06
6.11069e-06
6.11145e-06
6.11176e-06
6.11328e-06
6.10983e-06
6.11033e-06
6.11082e-06
6.11158e-06
6.11192e-06
6.11337e-06
6.10991e-06
6.11042e-06
6.11093e-06
6.11168e-06
6.11205e-06
6.11346e-06
6.10994e-06
6.11047e-06
6.11099e-06
6.11174e-06
6.11215e-06
6.11353e-06
6.10992e-06
6.11046e-06
6.11101e-06
6.11176e-06
6.11221e-06
6.11356e-06
6.10983e-06
6.1104e-06
6.11097e-06
6.11173e-06
6.11222e-06
6.11354e-06
6.10967e-06
6.11026e-06
6.11085e-06
6.11163e-06
6.11217e-06
6.11346e-06
6.10943e-06
6.11003e-06
6.11066e-06
6.11145e-06
6.11204e-06
6.11331e-06
6.10909e-06
6.10972e-06
6.11037e-06
6.11118e-06
6.11183e-06
6.11307e-06
6.10803e-06
6.10864e-06
6.1093e-06
6.10998e-06
6.11082e-06
6.11151e-06
6.11275e-06
6.10745e-06
6.10808e-06
6.10877e-06
6.10948e-06
6.11033e-06
6.11108e-06
6.11232e-06
6.10675e-06
6.10741e-06
6.10811e-06
6.10885e-06
6.10973e-06
6.11053e-06
6.11176e-06
6.10594e-06
6.10662e-06
6.10734e-06
6.10811e-06
6.109e-06
6.10984e-06
6.11109e-06
6.10502e-06
6.10571e-06
6.10645e-06
6.10724e-06
6.10815e-06
6.10904e-06
6.11028e-06
6.10393e-06
6.10466e-06
6.10543e-06
6.10624e-06
6.10718e-06
6.1081e-06
6.10935e-06
6.10259e-06
6.10336e-06
6.10418e-06
6.10504e-06
6.10602e-06
6.107e-06
6.10826e-06
6.10008e-06
6.10086e-06
6.10169e-06
6.10257e-06
6.1035e-06
6.10455e-06
6.10561e-06
6.10694e-06
6.09787e-06
6.09869e-06
6.09956e-06
6.10049e-06
6.10149e-06
6.10262e-06
6.1038e-06
6.10522e-06
6.09534e-06
6.09616e-06
6.09704e-06
6.09799e-06
6.09903e-06
6.1002e-06
6.10146e-06
6.10298e-06
6.0927e-06
6.09349e-06
6.09433e-06
6.09526e-06
6.09627e-06
6.09744e-06
6.09871e-06
6.10027e-06
6.09003e-06
6.09077e-06
6.09157e-06
6.09244e-06
6.09339e-06
6.0945e-06
6.09572e-06
6.09723e-06
6.08739e-06
6.08812e-06
6.0889e-06
6.08974e-06
6.09065e-06
6.09168e-06
6.09283e-06
6.09423e-06
6.0849e-06
6.08565e-06
6.08645e-06
6.0873e-06
6.08822e-06
6.08925e-06
6.09038e-06
6.09171e-06
6.08166e-06
6.08234e-06
6.08308e-06
6.08387e-06
6.08473e-06
6.08567e-06
6.08672e-06
6.08788e-06
6.08923e-06
6.07898e-06
6.07959e-06
6.08025e-06
6.08098e-06
6.08178e-06
6.08266e-06
6.08368e-06
6.08482e-06
6.08617e-06
6.07626e-06
6.07678e-06
6.07735e-06
6.07798e-06
6.07867e-06
6.07945e-06
6.08035e-06
6.08137e-06
6.08261e-06
6.07354e-06
6.07398e-06
6.07446e-06
6.07499e-06
6.07558e-06
6.07625e-06
6.07703e-06
6.07792e-06
6.07901e-06
6.07117e-06
6.07139e-06
6.07166e-06
6.07199e-06
6.07238e-06
6.07285e-06
6.07343e-06
6.07411e-06
6.075e-06
6.07139e-06
6.07127e-06
6.07116e-06
6.0711e-06
6.07109e-06
6.07114e-06
6.07129e-06
6.07153e-06
6.07196e-06
6.07421e-06
6.07404e-06
6.07386e-06
6.07367e-06
6.07346e-06
6.07325e-06
6.07303e-06
6.07284e-06
6.07268e-06
6.07754e-06
6.07737e-06
6.07716e-06
6.07691e-06
6.07662e-06
6.07629e-06
6.0759e-06
6.07547e-06
6.07494e-06
6.08166e-06
6.08176e-06
6.08185e-06
6.08192e-06
6.08198e-06
6.08202e-06
6.08199e-06
6.082e-06
6.08186e-06
6.08489e-06
6.08493e-06
6.08487e-06
6.08474e-06
6.08455e-06
6.08431e-06
6.08409e-06
6.08383e-06
6.08371e-06
6.0836e-06
6.0905e-06
6.0914e-06
6.0924e-06
6.09345e-06
6.09453e-06
6.09563e-06
6.09679e-06
6.09793e-06
6.09938e-06
6.1007e-06
6.10005e-06
6.10024e-06
6.10035e-06
6.10039e-06
6.10038e-06
6.10035e-06
6.10045e-06
6.1007e-06
6.10118e-06
6.10157e-06
0.17298
0.215432
0.255617
0.300122
0.326466
0.329458
0.307393
0.258903
0.186704
0.105754
0.0439355
0.0155299
0.00482968
0.00112054
3.76792e-05
2.00632e-07
0
1.85373e-11
9.31938e-09
1.13163e-06
4.1792e-06
6.09798e-06
6.48712e-06
6.34375e-06
6.19103e-06
6.12596e-06
6.11368e-06
6.11703e-06
6.12011e-06
6.12045e-06
6.11946e-06
6.11836e-06
6.11748e-06
6.11678e-06
6.11621e-06
6.11572e-06
6.1153e-06
6.11494e-06
6.11465e-06
6.11442e-06
6.11424e-06
6.1141e-06
6.11401e-06
6.11396e-06
6.11393e-06
6.11392e-06
6.11392e-06
6.11391e-06
6.1139e-06
6.11386e-06
6.11385e-06
6.11381e-06
6.1137e-06
6.11351e-06
6.11323e-06
6.11283e-06
6.11232e-06
6.11167e-06
6.11089e-06
6.10998e-06
6.10892e-06
6.10764e-06
6.10597e-06
6.10377e-06
6.10107e-06
6.09799e-06
6.09494e-06
6.09239e-06
6.0899e-06
6.08683e-06
6.08323e-06
6.07954e-06
6.07545e-06
6.07215e-06
6.07259e-06
6.07476e-06
6.08176e-06
6.08349e-06
6.10157e-06
6.10177e-06
0.214024
0.258774
0.288679
0.317064
0.345816
0.357799
0.345453
0.30597
0.239531
0.153077
0.0689977
0.020883
0.00566263
0.0014044
9.02989e-05
1.14899e-06
0
4.4846e-12
2.20007e-09
8.37031e-07
3.89322e-06
6.02734e-06
6.51275e-06
6.37601e-06
6.20727e-06
6.13096e-06
6.11475e-06
6.11766e-06
6.12103e-06
6.12147e-06
6.12037e-06
6.11909e-06
6.11807e-06
6.11735e-06
6.11676e-06
6.11625e-06
6.11581e-06
6.11544e-06
6.11512e-06
6.11487e-06
6.11467e-06
6.11453e-06
6.11442e-06
6.11435e-06
6.11432e-06
6.1143e-06
6.11429e-06
6.11428e-06
6.11426e-06
6.11422e-06
6.11422e-06
6.1142e-06
6.11412e-06
6.11395e-06
6.11368e-06
6.11331e-06
6.11281e-06
6.11217e-06
6.1114e-06
6.11049e-06
6.10944e-06
6.10817e-06
6.10652e-06
6.10433e-06
6.10162e-06
6.09852e-06
6.09543e-06
6.09284e-06
6.09034e-06
6.08726e-06
6.08363e-06
6.07987e-06
6.07574e-06
6.07226e-06
6.07253e-06
6.07472e-06
6.08167e-06
6.08344e-06
6.10214e-06
0.217852
0.26921
0.30385
0.326829
0.34796
0.366439
0.368603
0.346363
0.29623
0.21916
0.124919
0.0439518
0.00722643
0.000812297
0.000180259
0
0
3.82996e-14
1.83458e-11
4.20059e-07
3.28844e-06
5.87477e-06
6.55411e-06
6.42513e-06
6.2316e-06
6.13825e-06
6.11514e-06
6.11685e-06
6.12091e-06
6.12191e-06
6.12097e-06
6.11968e-06
6.11862e-06
6.11789e-06
6.11731e-06
6.1168e-06
6.11636e-06
6.11598e-06
6.11566e-06
6.11539e-06
6.11519e-06
6.11503e-06
6.11492e-06
6.11485e-06
6.11481e-06
6.11479e-06
6.11478e-06
6.11478e-06
6.11476e-06
6.11472e-06
6.11471e-06
6.11471e-06
6.11463e-06
6.11447e-06
6.11422e-06
6.11385e-06
6.11336e-06
6.11273e-06
6.11196e-06
6.11105e-06
6.11001e-06
6.10874e-06
6.10709e-06
6.10491e-06
6.1022e-06
6.09906e-06
6.09593e-06
6.09331e-06
6.09079e-06
6.08768e-06
6.08403e-06
6.0802e-06
6.07604e-06
6.07238e-06
6.07247e-06
6.07469e-06
6.08156e-06
6.08339e-06
0.202702
0.258575
0.300462
0.328293
0.346584
0.362769
0.374872
0.371433
0.344345
0.289475
0.207503
0.110658
0.0326542
0.00072938
0.000156775
0
0
0
3.37013e-10
1.50769e-07
2.33448e-06
5.3621e-06
6.53666e-06
6.51627e-06
6.28052e-06
6.15027e-06
6.11526e-06
6.11552e-06
6.12041e-06
6.12229e-06
6.12172e-06
6.12043e-06
6.11932e-06
6.11855e-06
6.11796e-06
6.11746e-06
6.11701e-06
6.11661e-06
6.11628e-06
6.11601e-06
6.11579e-06
6.11563e-06
6.11551e-06
6.11543e-06
6.11539e-06
6.11536e-06
6.11535e-06
6.11535e-06
6.11533e-06
6.11529e-06
6.11528e-06
6.11528e-06
6.11521e-06
6.11506e-06
6.11481e-06
6.11445e-06
6.11396e-06
6.11333e-06
6.11256e-06
6.11166e-06
6.11061e-06
6.10934e-06
6.10771e-06
6.10553e-06
6.10281e-06
6.09963e-06
6.09646e-06
6.0938e-06
6.09127e-06
6.08814e-06
6.08445e-06
6.08055e-06
6.07636e-06
6.07252e-06
6.07241e-06
6.07465e-06
6.08144e-06
0.172752
0.232754
0.281711
0.317774
0.341589
0.356992
0.369939
0.378375
0.372186
0.343287
0.286903
0.203341
0.106248
0.0281955
0.007241
0
0
0
8.03473e-15
3.769e-12
9.92165e-07
4.78186e-06
6.51675e-06
6.5932e-06
6.35936e-06
6.18388e-06
6.1174e-06
6.11219e-06
6.11939e-06
6.12263e-06
6.12246e-06
6.12131e-06
6.12017e-06
6.11933e-06
6.11871e-06
6.11819e-06
6.11773e-06
6.11732e-06
6.11697e-06
6.11669e-06
6.11646e-06
6.11628e-06
6.11615e-06
6.11606e-06
6.11601e-06
6.11598e-06
6.11597e-06
6.11596e-06
6.11595e-06
6.11591e-06
6.11589e-06
6.11589e-06
6.11583e-06
6.11568e-06
6.11544e-06
6.11508e-06
6.1146e-06
6.11397e-06
6.1132e-06
6.1123e-06
6.11124e-06
6.10998e-06
6.10835e-06
6.10619e-06
6.10345e-06
6.10024e-06
6.09702e-06
6.09433e-06
6.09177e-06
6.08862e-06
6.0849e-06
6.08092e-06
6.0767e-06
6.07269e-06
6.07236e-06
6.07461e-06
0.130249
0.193729
0.249366
0.294209
0.327134
0.348865
0.362659
0.373471
0.379866
0.372609
0.343572
0.287405
0.204184
0.106486
0.0298184
0.00773819
3.82104e-08
0
0
4.88494e-14
1.58129e-11
1.9202e-06
6.45193e-06
7.00456e-06
6.45526e-06
6.21751e-06
6.13615e-06
6.11128e-06
6.11513e-06
6.12241e-06
6.12381e-06
6.12238e-06
6.12102e-06
6.12016e-06
6.11953e-06
6.11899e-06
6.11851e-06
6.11808e-06
6.11771e-06
6.11741e-06
6.11716e-06
6.11697e-06
6.11683e-06
6.11673e-06
6.11667e-06
6.11664e-06
6.11662e-06
6.11661e-06
6.1166e-06
6.11656e-06
6.11654e-06
6.11653e-06
6.11648e-06
6.11634e-06
6.1161e-06
6.11575e-06
6.11527e-06
6.11465e-06
6.11388e-06
6.11297e-06
6.11191e-06
6.11065e-06
6.10904e-06
6.10688e-06
6.10414e-06
6.10089e-06
6.09762e-06
6.09488e-06
6.0923e-06
6.08912e-06
6.08537e-06
6.08132e-06
6.07706e-06
6.07287e-06
0.078918
0.142626
0.203926
0.257131
0.300005
0.331633
0.35261
0.365671
0.375043
0.380376
0.373098
0.344985
0.290222
0.20811
0.111364
0.0349402
0.000434425
0.000117406
0
0
1.31193e-17
9.17285e-09
2.42928e-06
7.59051e-06
7.26589e-06
6.29547e-06
6.09946e-06
6.11724e-06
6.11851e-06
6.11795e-06
6.12242e-06
6.12387e-06
6.12247e-06
6.1211e-06
6.12036e-06
6.11984e-06
6.11935e-06
6.11889e-06
6.1185e-06
6.11817e-06
6.1179e-06
6.11769e-06
6.11754e-06
6.11743e-06
6.11736e-06
6.11732e-06
6.1173e-06
6.11729e-06
6.11728e-06
6.11724e-06
6.11722e-06
6.11721e-06
6.11716e-06
6.11703e-06
6.1168e-06
6.11646e-06
6.11598e-06
6.11536e-06
6.11459e-06
6.11368e-06
6.11262e-06
6.11136e-06
6.10975e-06
6.1076e-06
6.10486e-06
6.10158e-06
6.09825e-06
6.09547e-06
6.09287e-06
6.08966e-06
6.08588e-06
6.08175e-06
0.030017
0.0828944
0.145834
0.206095
0.258535
0.301054
0.332729
0.353945
0.36694
0.375365
0.380276
0.373674
0.34722
0.294613
0.21445
0.120032
0.0403225
0.00136748
0.000410197
0
0
0
7.6388e-09
1.922e-06
7.99691e-06
7.59351e-06
6.20888e-06
5.98936e-06
6.10567e-06
6.13825e-06
6.12563e-06
6.1216e-06
6.1228e-06
6.12249e-06
6.12144e-06
6.12071e-06
6.12022e-06
6.11976e-06
6.11934e-06
6.11898e-06
6.11869e-06
6.11846e-06
6.11828e-06
6.11816e-06
6.11808e-06
6.11804e-06
6.11801e-06
6.118e-06
6.11799e-06
6.11796e-06
6.11793e-06
6.11792e-06
6.11787e-06
6.11775e-06
6.11753e-06
6.11719e-06
6.11672e-06
6.11611e-06
6.11534e-06
6.11442e-06
6.11336e-06
6.1121e-06
6.11051e-06
6.10837e-06
6.10562e-06
6.1023e-06
6.09892e-06
6.09609e-06
6.09346e-06
0.00323005
0.0283306
0.0794425
0.14155
0.201899
0.254917
0.298331
0.331103
0.353355
0.366838
0.374696
0.379595
0.374145
0.349892
0.300013
0.222969
0.129908
0.0473065
0.00388621
0.00109041
0
0
0
3.40085e-09
8.01725e-07
7.55823e-06
8.10886e-06
6.28314e-06
5.87416e-06
6.04985e-06
6.14415e-06
6.13613e-06
6.12319e-06
6.12198e-06
6.12245e-06
6.12188e-06
6.1212e-06
6.12068e-06
6.12023e-06
6.11984e-06
6.11952e-06
6.11927e-06
6.11908e-06
6.11893e-06
6.11884e-06
6.11879e-06
6.11876e-06
6.11875e-06
6.11874e-06
6.11871e-06
6.11868e-06
6.11866e-06
6.11862e-06
6.11851e-06
6.1183e-06
6.11797e-06
6.11751e-06
6.1169e-06
6.11613e-06
6.11521e-06
6.11414e-06
6.11289e-06
6.1113e-06
6.10917e-06
6.10643e-06
6.10308e-06
0.000424478
0.00168737
0.0228424
0.0700487
0.13104
0.192242
0.246908
0.292253
0.327012
0.35102
0.365587
0.373605
0.378581
0.374453
0.35271
0.306126
0.23257
0.140814
0.055834
0.00779684
0.00212011
0
0
0
4.6283e-10
8.78987e-08
5.69313e-06
8.85604e-06
6.76287e-06
5.90472e-06
5.99609e-06
6.12998e-06
6.141e-06
6.12573e-06
6.12193e-06
6.12247e-06
6.12227e-06
6.12169e-06
6.12119e-06
6.12078e-06
6.12042e-06
6.12013e-06
6.11991e-06
6.11975e-06
6.11964e-06
6.11958e-06
6.11955e-06
6.11953e-06
6.11952e-06
6.11949e-06
6.11946e-06
6.11944e-06
6.11941e-06
6.11931e-06
6.1191e-06
6.11878e-06
6.11833e-06
6.11772e-06
6.11696e-06
6.11604e-06
6.11497e-06
6.11371e-06
0
7.13628e-05
0.000346468
0.0164879
0.0571725
0.115629
0.17776
0.234797
0.282938
0.320504
0.34703
0.363467
0.372607
0.377623
0.374749
0.355612
0.312609
0.242547
0.152436
0.0655923
0.0129126
0.00346283
0
0
0
1.06401e-11
1.19641e-09
3.42251e-06
8.2636e-06
7.18479e-06
6.04757e-06
5.97926e-06
6.11422e-06
6.14241e-06
6.12847e-06
6.12289e-06
6.12308e-06
6.12288e-06
6.12222e-06
6.12171e-06
6.12135e-06
6.12105e-06
6.12081e-06
6.12062e-06
6.12049e-06
6.12041e-06
6.12037e-06
6.12035e-06
6.12034e-06
6.12031e-06
6.12028e-06
6.12026e-06
6.12023e-06
6.12014e-06
6.11995e-06
6.11964e-06
6.11919e-06
0
0
3.89246e-10
0.00245738
0.00979451
0.0428176
0.0968409
0.159121
0.218782
0.270382
0.311525
0.341356
0.360471
0.371209
0.376462
0.374883
0.35844
0.319094
0.252646
0.164522
0.0762813
0.0194419
0.00512842
0
0
0
1.30261e-15
9.11759e-09
2.19291e-06
7.76491e-06
7.44006e-06
6.17775e-06
5.97478e-06
6.09892e-06
6.14088e-06
6.12886e-06
6.12254e-06
6.12335e-06
6.12368e-06
6.12305e-06
6.12246e-06
6.12204e-06
6.12174e-06
6.12152e-06
6.12139e-06
6.1213e-06
6.12124e-06
6.12121e-06
6.1212e-06
6.12118e-06
1.48677e-08
5.35951e-18
0
0
0.00119584
0.00468767
0.0288165
0.0763541
0.137267
0.199231
0.254672
0.300023
0.333844
0.356264
0.36907
0.374833
0.37463
0.360942
0.325326
0.262644
0.176789
0.0878923
0.0258789
0.00677236
2.31773e-06
0
0
0
4.91164e-09
1.18269e-06
7.06183e-06
7.68487e-06
6.31182e-06
5.96914e-06
6.08993e-06
6.14909e-06
6.13483e-06
6.12314e-06
)
;

boundaryField
{
    inlet
    {
        type            freestream;
        freestreamValue uniform 1e-05;
        value           nonuniform List<scalar> 
11
(
6.10005e-06
6.10024e-06
6.10035e-06
6.10039e-06
6.10038e-06
6.10035e-06
6.10045e-06
6.1007e-06
6.10118e-06
6.10157e-06
6.10177e-06
)
;
    }
    outlet
    {
        type            freestream;
        freestreamValue nonuniform List<scalar> 0();
        value           nonuniform List<scalar> 0();
    }
    walls
    {
        type            nutUSpaldingWallFunction;
        value           nonuniform List<scalar> 4(0.00176409 0.00156466 0.00134086 0.000587773);
    }
    frontAndBack
    {
        type            empty;
    }
    procBoundary6to2
    {
        type            processor;
        value           nonuniform List<scalar> 
13
(
0.126625
0.149904
0.151259
0.135184
0.104405
0.0648585
0.0257819
0.00295502
0.00080842
0
0
1.13024e-08
3.43238e-06
)
;
    }
    procBoundary6to3
    {
        type            processor;
        value           uniform 5.76705e-06;
    }
    procBoundary6to5
    {
        type            processor;
        value           nonuniform List<scalar> 
86
(
0.0927919
0.159347
0.203463
0.193252
0.124148
0.0380733
0.00164793
0.000399039
0
0
1.5398e-08
3.89967e-06
8.47591e-06
6.64564e-06
5.62746e-06
5.81137e-06
6.18825e-06
6.31099e-06
6.24448e-06
6.15253e-06
6.10415e-06
6.09448e-06
6.10034e-06
6.10688e-06
6.10986e-06
6.1102e-06
6.10959e-06
6.10899e-06
6.10862e-06
6.10843e-06
6.10834e-06
6.10829e-06
6.10829e-06
6.10829e-06
6.10761e-06
6.10772e-06
6.10786e-06
6.10801e-06
6.10819e-06
6.10838e-06
6.10858e-06
6.10879e-06
6.109e-06
6.1092e-06
6.10939e-06
6.10957e-06
6.10957e-06
6.10929e-06
6.1094e-06
6.10946e-06
6.10947e-06
6.10943e-06
6.10932e-06
6.10914e-06
6.10887e-06
6.1085e-06
6.1085e-06
6.10745e-06
6.10685e-06
6.10613e-06
6.1053e-06
6.10436e-06
6.10324e-06
6.10186e-06
6.10186e-06
6.09934e-06
6.0971e-06
6.09458e-06
6.09197e-06
6.08934e-06
6.08671e-06
6.08419e-06
6.08419e-06
6.08103e-06
6.07842e-06
6.07578e-06
6.07316e-06
6.071e-06
6.07151e-06
6.07434e-06
6.07764e-06
6.08156e-06
6.08156e-06
6.08461e-06
6.08979e-06
6.09971e-06
)
;
    }
    procBoundary6to7
    {
        type            processor;
        value           nonuniform List<scalar> 
91
(
6.10199e-06
6.10199e-06
6.10274e-06
6.10274e-06
6.08333e-06
6.08333e-06
6.08133e-06
6.07231e-06
6.08133e-06
6.07456e-06
6.07744e-06
6.07231e-06
6.07309e-06
6.09024e-06
6.08641e-06
6.07744e-06
6.08221e-06
6.09963e-06
6.09674e-06
6.09024e-06
6.0941e-06
6.11213e-06
6.11002e-06
6.10728e-06
6.09963e-06
6.1039e-06
6.11859e-06
6.11783e-06
6.11691e-06
6.11583e-06
6.11213e-06
6.11458e-06
6.12115e-06
6.12112e-06
6.12109e-06
6.12101e-06
6.12083e-06
6.12053e-06
6.11859e-06
6.1201e-06
6.12277e-06
6.12352e-06
6.12332e-06
6.12307e-06
6.12284e-06
6.12256e-06
6.12234e-06
6.12221e-06
6.12215e-06
6.12212e-06
6.1221e-06
6.12115e-06
6.12208e-06
1.03339e-09
5.03748e-12
0
0
0.00014376
0.000461389
0.0161313
0.0552321
0.112717
0.176149
0.235577
0.28569
0.324152
0.350499
0.365903
0.372716
0.373855
0.362868
0.331023
0.272246
0.189166
0.100104
0.0323008
0.00114761
0.000355492
0
0
0
1.77681e-09
4.06912e-07
6.18074e-06
8.01969e-06
6.45776e-06
5.90656e-06
6.03287e-06
6.14167e-06
6.12277e-06
6.14196e-06
)
;
    }
}


// ************************************************************************* //
