/*--------------------------------*- C++ -*----------------------------------*\
| =========                 |                                                 |
| \\      /  F ield         | OpenFOAM: The Open Source CFD Toolbox           |
|  \\    /   O peration     | Version:  2306                                  |
|   \\  /    A nd           | Website:  www.openfoam.com                      |
|    \\/     M anipulation  |                                                 |
\*---------------------------------------------------------------------------*/
FoamFile
{
    version     2.0;
    format      ascii;
    arch        "LSB;label=32;scalar=64";
    class       volScalarField;
    location    "375";
    object      nuTilda;
}
// * * * * * * * * * * * * * * * * * * * * * * * * * * * * * * * * * * * * * //

dimensions      [0 2 -1 0 0 0 0];

internalField   nonuniform List<scalar> 
1340
(
0.0869112
0.0784775
0.0690199
0.0538227
0.153845
0.148556
0.139898
0.147221
0.206341
0.2076
0.201644
0.212155
0.215379
0.231974
0.239222
0.255752
0.175079
0.21721
0.248093
0.278432
0.0932769
0.160433
0.22403
0.278403
0.0214956
0.0783192
0.166238
0.252395
0.000853847
0.0171171
0.0904085
0.200168
0.000198342
0.00464375
0.0306624
0.132972
0
1.04726e-05
0.000483655
0.072487
0
0
0.000809653
0.0333471
7.67095e-06
0
0.000287602
0.0131324
3.07115e-05
1.23012e-06
9.98736e-05
0.00434979
4.60979e-05
1.78287e-06
2.68545e-05
0.00111393
4.52044e-05
3.19993e-05
3.37818e-06
9.89525e-05
4.06536e-05
4.54601e-05
2.00153e-06
2.27921e-05
3.84337e-05
4.89824e-05
3.17674e-06
8.86664e-08
3.8523e-05
4.54782e-05
2.78954e-05
3.69686e-06
3.93818e-05
4.15298e-05
4.13647e-05
1.33372e-05
4.0015e-05
3.96367e-05
4.40511e-05
2.83473e-05
4.02347e-05
3.93632e-05
4.26178e-05
3.70334e-05
4.02181e-05
3.96686e-05
4.09945e-05
4.01594e-05
4.01456e-05
3.9956e-05
4.01923e-05
4.06397e-05
4.00963e-05
4.00857e-05
3.99891e-05
4.0402e-05
4.00778e-05
4.01107e-05
4.00118e-05
4.01806e-05
4.00754e-05
4.01001e-05
4.00611e-05
4.00931e-05
4.00772e-05
4.00882e-05
4.00847e-05
4.00803e-05
4.00783e-05
4.00825e-05
4.00886e-05
4.00867e-05
4.00783e-05
4.00809e-05
4.00859e-05
4.00911e-05
4.00778e-05
4.00806e-05
4.00833e-05
4.00913e-05
4.00774e-05
4.00804e-05
4.00819e-05
4.00898e-05
4.00771e-05
4.00801e-05
4.00812e-05
4.00883e-05
4.00769e-05
4.00797e-05
4.00808e-05
4.00872e-05
4.00755e-05
4.00769e-05
4.00795e-05
4.00804e-05
4.00864e-05
4.00756e-05
4.00769e-05
4.00793e-05
4.00802e-05
4.00858e-05
4.00758e-05
4.0077e-05
4.00793e-05
4.008e-05
4.00852e-05
4.0076e-05
4.00772e-05
4.00793e-05
4.00799e-05
4.00848e-05
4.00763e-05
4.00774e-05
4.00793e-05
4.00799e-05
4.00845e-05
4.00766e-05
4.00776e-05
4.00795e-05
4.008e-05
4.00843e-05
4.00769e-05
4.00779e-05
4.00797e-05
4.00802e-05
4.00841e-05
4.00773e-05
4.00782e-05
4.00799e-05
4.00804e-05
4.00841e-05
4.00777e-05
4.00786e-05
4.00801e-05
4.00806e-05
4.00841e-05
4.0078e-05
4.00789e-05
4.00804e-05
4.00809e-05
4.00842e-05
4.00784e-05
4.00793e-05
4.00807e-05
4.00812e-05
4.00843e-05
4.00787e-05
4.00796e-05
4.0081e-05
4.00816e-05
4.00845e-05
4.00781e-05
4.0079e-05
4.00799e-05
4.00813e-05
4.00819e-05
4.00847e-05
4.00783e-05
4.00792e-05
4.00801e-05
4.00815e-05
4.00822e-05
4.00849e-05
4.00785e-05
4.00794e-05
4.00803e-05
4.00817e-05
4.00824e-05
4.0085e-05
4.00785e-05
4.00795e-05
4.00805e-05
4.00818e-05
4.00826e-05
4.00852e-05
4.00785e-05
4.00795e-05
4.00805e-05
4.00819e-05
4.00827e-05
4.00852e-05
4.00783e-05
4.00794e-05
4.00804e-05
4.00818e-05
4.00827e-05
4.00852e-05
4.0078e-05
4.00791e-05
4.00802e-05
4.00816e-05
4.00826e-05
4.0085e-05
4.00776e-05
4.00787e-05
4.00798e-05
4.00813e-05
4.00824e-05
4.00847e-05
4.00769e-05
4.00781e-05
4.00793e-05
4.00808e-05
4.0082e-05
4.00843e-05
4.0075e-05
4.00761e-05
4.00773e-05
4.00786e-05
4.00801e-05
4.00814e-05
4.00837e-05
4.00739e-05
4.00751e-05
4.00763e-05
4.00777e-05
4.00792e-05
4.00806e-05
4.00829e-05
4.00726e-05
4.00738e-05
4.00751e-05
4.00765e-05
4.00781e-05
4.00796e-05
4.00819e-05
4.00711e-05
4.00724e-05
4.00737e-05
4.00751e-05
4.00768e-05
4.00783e-05
4.00806e-05
4.00694e-05
4.00707e-05
4.00721e-05
4.00735e-05
4.00752e-05
4.00768e-05
4.00791e-05
4.00674e-05
4.00687e-05
4.00702e-05
4.00717e-05
4.00734e-05
4.00751e-05
4.00774e-05
4.00649e-05
4.00663e-05
4.00678e-05
4.00694e-05
4.00712e-05
4.00731e-05
4.00754e-05
4.00602e-05
4.00617e-05
4.00632e-05
4.00649e-05
4.00666e-05
4.00685e-05
4.00705e-05
4.0073e-05
4.00561e-05
4.00577e-05
4.00593e-05
4.0061e-05
4.00629e-05
4.0065e-05
4.00671e-05
4.00698e-05
4.00515e-05
4.0053e-05
4.00546e-05
4.00564e-05
4.00583e-05
4.00605e-05
4.00628e-05
4.00656e-05
4.00466e-05
4.0048e-05
4.00496e-05
4.00513e-05
4.00532e-05
4.00554e-05
4.00577e-05
4.00606e-05
4.00416e-05
4.0043e-05
4.00445e-05
4.00461e-05
4.00478e-05
4.00499e-05
4.00522e-05
4.0055e-05
4.00367e-05
4.00381e-05
4.00395e-05
4.00411e-05
4.00428e-05
4.00447e-05
4.00468e-05
4.00494e-05
4.00321e-05
4.00335e-05
4.0035e-05
4.00365e-05
4.00383e-05
4.00402e-05
4.00423e-05
4.00447e-05
4.00261e-05
4.00273e-05
4.00287e-05
4.00302e-05
4.00318e-05
4.00335e-05
4.00355e-05
4.00376e-05
4.00401e-05
4.00211e-05
4.00222e-05
4.00235e-05
4.00248e-05
4.00263e-05
4.00279e-05
4.00298e-05
4.00319e-05
4.00344e-05
4.0016e-05
4.0017e-05
4.00181e-05
4.00192e-05
4.00205e-05
4.0022e-05
4.00236e-05
4.00255e-05
4.00278e-05
4.0011e-05
4.00118e-05
4.00127e-05
4.00137e-05
4.00148e-05
4.0016e-05
4.00175e-05
4.00191e-05
4.00212e-05
4.00066e-05
4.0007e-05
4.00075e-05
4.00081e-05
4.00088e-05
4.00097e-05
4.00108e-05
4.00121e-05
4.00137e-05
4.0007e-05
4.00068e-05
4.00066e-05
4.00064e-05
4.00064e-05
4.00065e-05
4.00068e-05
4.00073e-05
4.0008e-05
4.00122e-05
4.00119e-05
4.00116e-05
4.00112e-05
4.00108e-05
4.00104e-05
4.001e-05
4.00097e-05
4.00094e-05
4.00184e-05
4.00181e-05
4.00177e-05
4.00172e-05
4.00167e-05
4.00161e-05
4.00154e-05
4.00146e-05
4.00136e-05
4.00261e-05
4.00263e-05
4.00264e-05
4.00266e-05
4.00267e-05
4.00267e-05
4.00267e-05
4.00267e-05
4.00265e-05
4.00321e-05
4.00322e-05
4.0032e-05
4.00318e-05
4.00314e-05
4.0031e-05
4.00306e-05
4.00301e-05
4.00299e-05
4.00297e-05
4.00425e-05
4.00442e-05
4.0046e-05
4.0048e-05
4.005e-05
4.0052e-05
4.00542e-05
4.00563e-05
4.00589e-05
4.00614e-05
4.00602e-05
4.00605e-05
4.00607e-05
4.00608e-05
4.00608e-05
4.00608e-05
4.00609e-05
4.00614e-05
4.00623e-05
4.0063e-05
0.17298
0.215432
0.255617
0.300122
0.326466
0.329458
0.307393
0.258903
0.186704
0.105754
0.0439355
0.0155299
0.0048297
0.00112083
7.27313e-05
1.64202e-05
0
1.60493e-06
7.60193e-06
2.5515e-05
3.60653e-05
4.00564e-05
4.07639e-05
4.05064e-05
4.0228e-05
4.01082e-05
4.00854e-05
4.00916e-05
4.00973e-05
4.0098e-05
4.00961e-05
4.00941e-05
4.00925e-05
4.00912e-05
4.00901e-05
4.00892e-05
4.00884e-05
4.00878e-05
4.00872e-05
4.00868e-05
4.00865e-05
4.00862e-05
4.00861e-05
4.00859e-05
4.00859e-05
4.00859e-05
4.00859e-05
4.00859e-05
4.00858e-05
4.00858e-05
4.00857e-05
4.00857e-05
4.00855e-05
4.00851e-05
4.00846e-05
4.00839e-05
4.00829e-05
4.00817e-05
4.00803e-05
4.00786e-05
4.00766e-05
4.00742e-05
4.00712e-05
4.00671e-05
4.00621e-05
4.00564e-05
4.00507e-05
4.0046e-05
4.00414e-05
4.00357e-05
4.0029e-05
4.00221e-05
4.00145e-05
4.00084e-05
4.00092e-05
4.00133e-05
4.00263e-05
4.00295e-05
4.0063e-05
4.00634e-05
0.214024
0.258774
0.288679
0.317064
0.345816
0.357799
0.345453
0.30597
0.239531
0.153077
0.0689977
0.020883
0.00566264
0.00140458
0.000112811
2.56157e-05
0
1.12558e-06
5.29783e-06
2.36074e-05
3.53737e-05
3.99249e-05
4.08096e-05
4.05646e-05
4.02578e-05
4.01174e-05
4.00874e-05
4.00928e-05
4.0099e-05
4.00998e-05
4.00978e-05
4.00954e-05
4.00936e-05
4.00922e-05
4.00911e-05
4.00902e-05
4.00894e-05
4.00887e-05
4.00881e-05
4.00876e-05
4.00873e-05
4.0087e-05
4.00868e-05
4.00867e-05
4.00866e-05
4.00866e-05
4.00866e-05
4.00865e-05
4.00865e-05
4.00864e-05
4.00864e-05
4.00864e-05
4.00862e-05
4.00859e-05
4.00854e-05
4.00847e-05
4.00838e-05
4.00826e-05
4.00812e-05
4.00795e-05
4.00776e-05
4.00752e-05
4.00722e-05
4.00681e-05
4.00631e-05
4.00573e-05
4.00516e-05
4.00468e-05
4.00422e-05
4.00365e-05
4.00297e-05
4.00227e-05
4.00151e-05
4.00086e-05
4.00091e-05
4.00132e-05
4.00261e-05
4.00294e-05
4.00641e-05
0.217852
0.26921
0.30385
0.326829
0.34796
0.366439
0.368603
0.346363
0.29623
0.21916
0.124919
0.0439518
0.00722643
0.000812839
0.000189708
0
0
3.4217e-07
1.60077e-06
1.9797e-05
3.37915e-05
3.96377e-05
4.0883e-05
4.0653e-05
4.03024e-05
4.01309e-05
4.00881e-05
4.00913e-05
4.00988e-05
4.01007e-05
4.00989e-05
4.00965e-05
4.00946e-05
4.00932e-05
4.00921e-05
4.00912e-05
4.00904e-05
4.00897e-05
4.00891e-05
4.00886e-05
4.00882e-05
4.00879e-05
4.00877e-05
4.00876e-05
4.00875e-05
4.00875e-05
4.00875e-05
4.00875e-05
4.00874e-05
4.00874e-05
4.00873e-05
4.00873e-05
4.00872e-05
4.00869e-05
4.00864e-05
4.00858e-05
4.00848e-05
4.00837e-05
4.00822e-05
4.00806e-05
4.00786e-05
4.00763e-05
4.00732e-05
4.00692e-05
4.00642e-05
4.00584e-05
4.00526e-05
4.00477e-05
4.0043e-05
4.00373e-05
4.00305e-05
4.00234e-05
4.00156e-05
4.00088e-05
4.0009e-05
4.00131e-05
4.00259e-05
4.00293e-05
0.202702
0.258575
0.300462
0.328293
0.346584
0.362769
0.374872
0.371433
0.344345
0.289475
0.207503
0.110658
0.0326542
0.000730051
0.000168503
0
0
0
3.31411e-06
1.52791e-05
3.08347e-05
3.86366e-05
4.08521e-05
4.08158e-05
4.03917e-05
4.0153e-05
4.00884e-05
4.00888e-05
4.00979e-05
4.01014e-05
4.01003e-05
4.00979e-05
4.00959e-05
4.00944e-05
4.00934e-05
4.00924e-05
4.00916e-05
4.00909e-05
4.00902e-05
4.00897e-05
4.00893e-05
4.0089e-05
4.00888e-05
4.00887e-05
4.00886e-05
4.00885e-05
4.00885e-05
4.00885e-05
4.00885e-05
4.00884e-05
4.00884e-05
4.00884e-05
4.00883e-05
4.0088e-05
4.00875e-05
4.00869e-05
4.0086e-05
4.00848e-05
4.00834e-05
4.00817e-05
4.00797e-05
4.00774e-05
4.00744e-05
4.00703e-05
4.00653e-05
4.00594e-05
4.00535e-05
4.00486e-05
4.00439e-05
4.00381e-05
4.00312e-05
4.0024e-05
4.00162e-05
4.00091e-05
4.00089e-05
4.00131e-05
4.00257e-05
0.172752
0.232754
0.281711
0.317774
0.341589
0.356992
0.369939
0.378375
0.372186
0.343287
0.286903
0.203341
0.106248
0.0281955
0.007241
0
0
0
2.31572e-07
1.07771e-06
2.46631e-05
3.7427e-05
4.08167e-05
4.09522e-05
4.05346e-05
4.02149e-05
4.00923e-05
4.00827e-05
4.0096e-05
4.0102e-05
4.01017e-05
4.00995e-05
4.00974e-05
4.00959e-05
4.00947e-05
4.00938e-05
4.00929e-05
4.00922e-05
4.00915e-05
4.0091e-05
4.00906e-05
4.00902e-05
4.009e-05
4.00898e-05
4.00897e-05
4.00897e-05
4.00897e-05
4.00897e-05
4.00896e-05
4.00896e-05
4.00895e-05
4.00895e-05
4.00894e-05
4.00891e-05
4.00887e-05
4.0088e-05
4.00871e-05
4.0086e-05
4.00846e-05
4.00829e-05
4.00809e-05
4.00786e-05
4.00756e-05
4.00716e-05
4.00665e-05
4.00605e-05
4.00546e-05
4.00496e-05
4.00448e-05
4.0039e-05
4.00321e-05
4.00247e-05
4.00169e-05
4.00094e-05
4.00088e-05
4.0013e-05
0.130249
0.193729
0.249366
0.294209
0.327134
0.348865
0.362659
0.373471
0.379866
0.372609
0.343572
0.287405
0.204184
0.106486
0.0298184
0.00773819
1.08236e-05
0
0
3.63629e-07
1.5424e-06
2.92849e-05
4.0701e-05
4.16652e-05
4.0707e-05
4.02766e-05
4.0127e-05
4.0081e-05
4.00881e-05
4.01016e-05
4.01042e-05
4.01015e-05
4.0099e-05
4.00974e-05
4.00963e-05
4.00953e-05
4.00944e-05
4.00936e-05
4.00929e-05
4.00923e-05
4.00919e-05
4.00915e-05
4.00913e-05
4.00911e-05
4.0091e-05
4.00909e-05
4.00909e-05
4.00909e-05
4.00908e-05
4.00908e-05
4.00907e-05
4.00907e-05
4.00906e-05
4.00904e-05
4.00899e-05
4.00893e-05
4.00884e-05
4.00872e-05
4.00858e-05
4.00841e-05
4.00822e-05
4.00798e-05
4.00768e-05
4.00728e-05
4.00678e-05
4.00617e-05
4.00557e-05
4.00506e-05
4.00458e-05
4.00399e-05
4.0033e-05
4.00254e-05
4.00175e-05
4.00097e-05
0.078918
0.142626
0.203926
0.257131
0.300005
0.331633
0.35261
0.365671
0.375043
0.380376
0.373098
0.344985
0.290222
0.20811
0.111364
0.0349402
0.000436297
0.000134627
0
0
4.65502e-08
7.57184e-06
3.1162e-05
4.2638e-05
4.21049e-05
4.04188e-05
4.00591e-05
4.0092e-05
4.00944e-05
4.00933e-05
4.01016e-05
4.01043e-05
4.01017e-05
4.00992e-05
4.00978e-05
4.00968e-05
4.00959e-05
4.00951e-05
4.00944e-05
4.00937e-05
4.00932e-05
4.00929e-05
4.00926e-05
4.00924e-05
4.00922e-05
4.00922e-05
4.00921e-05
4.00921e-05
4.00921e-05
4.0092e-05
4.0092e-05
4.0092e-05
4.00919e-05
4.00916e-05
4.00912e-05
4.00906e-05
4.00897e-05
4.00885e-05
4.00871e-05
4.00854e-05
4.00835e-05
4.00811e-05
4.00782e-05
4.00742e-05
4.00691e-05
4.0063e-05
4.00569e-05
4.00517e-05
4.00469e-05
4.00409e-05
4.00339e-05
4.00262e-05
0.030017
0.0828944
0.145834
0.206095
0.258535
0.301054
0.332729
0.353945
0.36694
0.375365
0.380276
0.373674
0.34722
0.294613
0.21445
0.120032
0.0403225
0.00136767
0.000412292
0
0
0
7.23294e-06
2.92921e-05
4.32863e-05
4.26428e-05
4.02608e-05
3.98538e-05
4.00706e-05
4.01309e-05
4.01075e-05
4.01001e-05
4.01023e-05
4.01017e-05
4.00998e-05
4.00985e-05
4.00975e-05
4.00967e-05
4.00959e-05
4.00952e-05
4.00947e-05
4.00943e-05
4.0094e-05
4.00937e-05
4.00936e-05
4.00935e-05
4.00935e-05
4.00934e-05
4.00934e-05
4.00934e-05
4.00933e-05
4.00933e-05
4.00932e-05
4.0093e-05
4.00926e-05
4.00919e-05
4.00911e-05
4.00899e-05
4.00885e-05
4.00868e-05
4.00848e-05
4.00825e-05
4.00796e-05
4.00756e-05
4.00705e-05
4.00644e-05
4.00581e-05
4.00528e-05
4.0048e-05
0.00323008
0.0283306
0.0794425
0.14155
0.201899
0.254917
0.298331
0.331103
0.353355
0.366838
0.374696
0.379595
0.374145
0.349892
0.300013
0.222969
0.129908
0.0473065
0.00388624
0.00109071
0
0
0
5.90749e-06
2.33477e-05
4.25856e-05
4.34615e-05
4.03964e-05
3.96365e-05
3.99669e-05
4.01417e-05
4.01269e-05
4.0103e-05
4.01008e-05
4.01017e-05
4.01006e-05
4.00993e-05
4.00984e-05
4.00976e-05
4.00968e-05
4.00962e-05
4.00958e-05
4.00954e-05
4.00952e-05
4.0095e-05
4.00949e-05
4.00948e-05
4.00948e-05
4.00948e-05
4.00947e-05
4.00947e-05
4.00947e-05
4.00946e-05
4.00944e-05
4.0094e-05
4.00934e-05
4.00925e-05
4.00914e-05
4.009e-05
4.00883e-05
4.00863e-05
4.0084e-05
4.0081e-05
4.00771e-05
4.0072e-05
4.00658e-05
0.000426437
0.0016875
0.0228424
0.0700487
0.13104
0.192242
0.246908
0.292253
0.327012
0.35102
0.365587
0.373605
0.378581
0.374453
0.35271
0.306126
0.23257
0.140814
0.055834
0.00779684
0.00212019
0
0
0
3.58767e-06
1.334e-05
3.92896e-05
4.45953e-05
4.12495e-05
3.96945e-05
3.98665e-05
4.01156e-05
4.01359e-05
4.01077e-05
4.01007e-05
4.01017e-05
4.01013e-05
4.01002e-05
4.00993e-05
4.00986e-05
4.00979e-05
4.00974e-05
4.0097e-05
4.00967e-05
4.00965e-05
4.00964e-05
4.00963e-05
4.00963e-05
4.00962e-05
4.00962e-05
4.00961e-05
4.00961e-05
4.0096e-05
4.00958e-05
4.00955e-05
4.00949e-05
4.0094e-05
4.00929e-05
4.00915e-05
4.00898e-05
4.00878e-05
4.00855e-05
0
9.82739e-05
0.000349376
0.0164879
0.0571725
0.115629
0.17776
0.234797
0.282938
0.320504
0.34703
0.363467
0.372607
0.377623
0.374749
0.355612
0.312609
0.242547
0.152436
0.0655923
0.0129126
0.00346286
0
0
0
1.39695e-06
4.54928e-06
3.4158e-05
4.37012e-05
4.19695e-05
3.99626e-05
3.98349e-05
4.00864e-05
4.01385e-05
4.01128e-05
4.01025e-05
4.01028e-05
4.01025e-05
4.01012e-05
4.01003e-05
4.00996e-05
4.00991e-05
4.00986e-05
4.00983e-05
4.0098e-05
4.00979e-05
4.00978e-05
4.00978e-05
4.00978e-05
4.00977e-05
4.00976e-05
4.00976e-05
4.00976e-05
4.00974e-05
4.0097e-05
4.00965e-05
4.00956e-05
0
0
3.43567e-06
0.00245744
0.00979451
0.0428176
0.0968409
0.159121
0.218782
0.270382
0.311525
0.341356
0.360471
0.371209
0.376462
0.374883
0.35844
0.319094
0.252646
0.164522
0.0762813
0.0194419
0.00512843
0
0
0
1.46943e-07
7.5604e-06
3.03283e-05
4.29187e-05
4.23927e-05
4.02036e-05
3.98265e-05
4.00581e-05
4.01357e-05
4.01135e-05
4.01018e-05
4.01033e-05
4.01039e-05
4.01028e-05
4.01017e-05
4.01009e-05
4.01003e-05
4.00999e-05
4.00997e-05
4.00995e-05
4.00994e-05
4.00994e-05
4.00993e-05
4.00993e-05
8.54464e-06
3.72156e-08
0
0
0.00119609
0.00468769
0.0288165
0.0763541
0.137267
0.199231
0.254672
0.300023
0.333844
0.356264
0.36907
0.374833
0.37463
0.360942
0.325326
0.262644
0.176789
0.0878923
0.0258789
0.00677237
3.07759e-05
0
0
0
6.47639e-06
2.5808e-05
4.17624e-05
4.27903e-05
4.04485e-05
3.98159e-05
4.00414e-05
4.01508e-05
4.01245e-05
4.01029e-05
)
;

boundaryField
{
    inlet
    {
        type            freestream;
        freestreamValue uniform 4e-05;
        value           nonuniform List<scalar> 
11
(
4.00602e-05
4.00605e-05
4.00607e-05
4.00608e-05
4.00608e-05
4.00608e-05
4.00609e-05
4.00614e-05
4.00623e-05
4.0063e-05
4.00634e-05
)
;
    }
    outlet
    {
        type            freestream;
        freestreamValue nonuniform List<scalar> 0();
        value           nonuniform List<scalar> 0();
    }
    walls
    {
        type            fixedValue;
        value           uniform 0;
    }
    frontAndBack
    {
        type            empty;
    }
    procBoundary6to2
    {
        type            processor;
        value           nonuniform List<scalar> 
13
(
0.126625
0.149904
0.151259
0.135184
0.104405
0.0648585
0.0257819
0.00295507
0.000808966
0
0
7.97793e-06
3.41846e-05
)
;
    }
    procBoundary6to3
    {
        type            processor;
        value           uniform 3.94321e-05;
    }
    procBoundary6to5
    {
        type            processor;
        value           nonuniform List<scalar> 
86
(
0.0927919
0.159347
0.203463
0.193252
0.124148
0.0380733
0.00164807
0.00040125
0
0
8.61994e-06
3.53897e-05
4.40258e-05
4.10446e-05
3.9162e-05
3.9517e-05
4.02229e-05
4.0447e-05
4.03259e-05
4.01572e-05
4.00678e-05
4.00499e-05
4.00607e-05
4.00728e-05
4.00784e-05
4.0079e-05
4.00779e-05
4.00767e-05
4.00761e-05
4.00757e-05
4.00755e-05
4.00755e-05
4.00755e-05
4.00755e-05
4.00742e-05
4.00744e-05
4.00746e-05
4.00749e-05
4.00753e-05
4.00756e-05
4.0076e-05
4.00764e-05
4.00768e-05
4.00771e-05
4.00775e-05
4.00778e-05
4.00778e-05
4.00773e-05
4.00775e-05
4.00776e-05
4.00776e-05
4.00776e-05
4.00774e-05
4.0077e-05
4.00765e-05
4.00758e-05
4.00758e-05
4.00739e-05
4.00728e-05
4.00715e-05
4.00699e-05
4.00682e-05
4.00661e-05
4.00635e-05
4.00635e-05
4.00589e-05
4.00547e-05
4.005e-05
4.00452e-05
4.00403e-05
4.00354e-05
4.00308e-05
4.00308e-05
4.00249e-05
4.00201e-05
4.00151e-05
4.00103e-05
4.00063e-05
4.00072e-05
4.00125e-05
4.00186e-05
4.00259e-05
4.00259e-05
4.00315e-05
4.00412e-05
4.00596e-05
)
;
    }
    procBoundary6to7
    {
        type            processor;
        value           nonuniform List<scalar> 
91
(
4.00638e-05
4.00638e-05
4.00652e-05
4.00652e-05
4.00292e-05
4.00292e-05
4.00255e-05
4.00087e-05
4.00255e-05
4.00129e-05
4.00182e-05
4.00087e-05
4.00101e-05
4.0042e-05
4.00349e-05
4.00182e-05
4.00271e-05
4.00594e-05
4.00541e-05
4.0042e-05
4.00492e-05
4.00826e-05
4.00787e-05
4.00736e-05
4.00594e-05
4.00673e-05
4.00945e-05
4.00931e-05
4.00914e-05
4.00894e-05
4.00826e-05
4.00871e-05
4.00992e-05
4.00992e-05
4.00991e-05
4.0099e-05
4.00987e-05
4.00981e-05
4.00945e-05
4.00973e-05
4.01022e-05
4.01036e-05
4.01033e-05
4.01028e-05
4.01024e-05
4.01019e-05
4.01015e-05
4.01012e-05
4.01011e-05
4.01011e-05
4.0101e-05
4.00992e-05
4.0101e-05
4.38566e-06
1.15877e-06
0
0
0.000157044
0.000463052
0.0161313
0.0552321
0.112717
0.176149
0.235577
0.28569
0.324152
0.350499
0.365903
0.372716
0.373855
0.362868
0.331023
0.272246
0.189166
0.100104
0.0323008
0.00114789
0.000358259
0
0
0
5.02218e-06
1.96378e-05
4.02091e-05
4.33221e-05
4.07114e-05
3.96979e-05
3.99352e-05
4.01372e-05
4.01022e-05
4.01377e-05
)
;
    }
}


// ************************************************************************* //
