/*--------------------------------*- C++ -*----------------------------------*\
| =========                 |                                                 |
| \\      /  F ield         | OpenFOAM: The Open Source CFD Toolbox           |
|  \\    /   O peration     | Version:  2306                                  |
|   \\  /    A nd           | Website:  www.openfoam.com                      |
|    \\/     M anipulation  |                                                 |
\*---------------------------------------------------------------------------*/
FoamFile
{
    version     2.0;
    format      ascii;
    arch        "LSB;label=32;scalar=64";
    class       volScalarField;
    location    "375";
    object      p;
}
// * * * * * * * * * * * * * * * * * * * * * * * * * * * * * * * * * * * * * //

dimensions      [0 2 -2 0 0 0 0];

internalField   nonuniform List<scalar> 
1340
(
-90.0465
-51.5437
-6.90354
26.0606
-89.6787
-51.2553
-6.60252
25.7492
-89.2534
-50.9354
-6.35426
25.8688
-88.7732
-50.6366
-6.25504
26.072
-88.1741
-50.3456
-6.2967
26.1322
-87.5221
-50.0839
-6.50955
26.0137
-86.8922
-49.9148
-6.93107
25.6909
-86.245
-49.8197
-7.54536
25.112
-85.5634
-49.7363
-8.25775
24.2584
-84.8515
-49.6363
-9.01036
23.1794
-84.1177
-49.5151
-9.81234
21.9409
-83.3705
-49.3912
-10.6797
20.5691
-82.6096
-49.2859
-11.6129
19.07
-81.8315
-49.2063
-12.609
17.4578
-81.0348
-49.1479
-13.6655
15.7454
-80.2191
-49.1074
-14.7756
13.9388
-79.3841
-49.0826
-15.9314
12.0445
-78.5283
-49.0727
-17.1238
10.0734
-77.6506
-49.0758
-18.3441
8.03762
-76.749
-49.089
-19.5836
5.9501
-75.8215
-49.1079
-20.8328
3.82514
-74.8659
-49.1281
-22.0817
1.67764
-73.8796
-49.1442
-23.321
-0.478316
-72.8605
-49.1496
-24.5399
-2.62722
-71.8052
-49.1382
-25.7281
-4.75415
-70.712
-49.102
-26.875
-6.84387
-69.5776
-49.0344
-27.9717
-8.88114
-68.4001
-48.9287
-29.0074
-10.8522
-67.1772
-48.7757
-29.9734
-12.7436
-65.907
-48.5703
-30.86
-14.5429
-64.5887
-48.3054
-31.6599
-16.2395
-63.2219
-47.9753
-32.3657
-17.8235
-61.8058
-47.5756
-32.971
-19.2858
-72.6881
-60.3424
-47.1017
-33.4704
-20.6199
-70.2388
-58.8327
-46.552
-33.8605
-21.8199
-67.7823
-57.2791
-45.9249
-34.138
-22.8819
-65.3249
-55.685
-45.2199
-34.3019
-23.8034
-62.8735
-54.0545
-44.4384
-34.3516
-24.5833
-60.435
-52.3919
-43.5828
-34.2889
-25.2223
-58.0158
-50.7027
-42.6567
-34.1162
-25.722
-55.6227
-48.9924
-41.6645
-33.8374
-26.0856
-53.2616
-47.2673
-40.6118
-33.4575
-26.3178
-50.9387
-45.5332
-39.5047
-32.9825
-26.424
-48.6592
-43.7967
-38.3501
-32.4192
-26.4107
-46.4281
-42.0641
-37.155
-31.7754
-26.2851
-47.6374
-44.2496
-40.3413
-35.9267
-31.0589
-26.0554
-45.1493
-42.1277
-38.6341
-34.6729
-30.2782
-25.73
-42.7564
-40.0653
-36.9481
-33.4006
-29.4417
-25.3178
-40.4586
-38.0651
-35.2882
-32.1169
-28.558
-24.8279
-38.2554
-36.1289
-33.6586
-30.8284
-27.6354
-24.2692
-36.1454
-34.2582
-32.0634
-29.5414
-26.6817
-23.6509
-34.1273
-32.4538
-30.5058
-28.2616
-25.7048
-22.9815
-32.1988
-30.7158
-28.9887
-26.994
-24.7116
-22.2695
-30.3577
-29.0443
-27.5142
-25.7433
-23.7086
-21.5228
-29.5896
-28.6012
-27.4386
-26.084
-24.5133
-22.7018
-20.7487
-27.8022
-26.9264
-25.8977
-24.6993
-23.3074
-21.6965
-19.9542
-26.1062
-25.3304
-24.4205
-23.3608
-22.1283
-20.6974
-19.1455
-24.497
-23.8099
-23.0054
-22.0687
-20.9782
-19.7085
-18.3281
-22.9701
-22.3616
-21.6505
-20.8231
-19.8589
-18.7332
-17.507
-21.5209
-20.9823
-20.3539
-19.6234
-18.7714
-17.7744
-16.6866
-20.1451
-19.6685
-19.1136
-18.469
-17.7167
-16.8344
-15.8707
-19.1983
-18.8384
-18.417
-17.9272
-17.3588
-16.695
-15.9151
-15.0624
-17.9155
-17.5967
-17.2244
-16.7925
-16.2917
-15.7066
-15.018
-14.2645
-16.6978
-16.4158
-16.0873
-15.7068
-15.2661
-14.7512
-14.1438
-13.479
-15.5409
-15.2921
-15.0027
-14.6682
-14.281
-13.8283
-13.2936
-12.7082
-14.4402
-14.2212
-13.967
-13.6735
-13.3342
-12.9371
-12.4673
-11.9527
-13.3925
-13.2006
-12.9781
-12.7214
-12.4246
-12.0774
-11.6657
-11.2148
-12.549
-12.3759
-12.1754
-11.9442
-11.6772
-11.3647
-10.9941
-10.5886
-11.986
-11.8479
-11.6878
-11.5024
-11.2888
-11.0423
-10.7544
-10.4127
-10.0391
-11.2608
-11.1334
-10.9872
-10.8176
-10.6218
-10.3962
-10.1327
-9.8201
-9.4806
-10.5162
-10.3986
-10.2654
-10.1108
-9.93208
-9.7266
-9.48703
-9.20174
-8.88962
-9.77442
-9.66966
-9.55168
-9.41383
-9.25349
-9.06856
-8.85304
-8.59762
-8.3267
-8.98266
-8.88593
-8.77904
-8.65472
-8.51066
-8.34516
-8.15157
-7.91733
-7.65299
-8.27783
-8.2
-8.11309
-8.00879
-7.88479
-7.74063
-7.57376
-7.38085
-7.1961
-7.33979
-7.26266
-7.18108
-7.08671
-6.9772
-6.85102
-6.69928
-6.50228
-6.24719
-6.89397
-6.85207
-6.80271
-6.73664
-6.6524
-6.55263
-6.44377
-6.33863
-6.30235
-5.37803
-5.31681
-5.25797
-5.19326
-5.11943
-5.03181
-4.9107
-4.7146
-4.37544
-5.99124
-6.01827
-6.02081
-6.01675
-5.99988
-5.96665
-5.92489
-5.9036
-5.95449
-6.21284
-2.5157
-2.44827
-2.38987
-2.34773
-2.30929
-2.26769
-2.21448
-2.10463
-1.85689
-1.28992
-6.76582
-6.64701
-6.66823
-6.79427
-6.88714
-6.93176
-6.97485
-7.09104
-7.38649
-8.06388
106.904
106.175
105.23
103.999
102.272
99.8586
96.5404
92.137
86.6754
80.5076
74.1521
67.9836
62.1218
56.5458
51.2159
46.1159
41.2455
36.6065
32.197
28.0105
24.0375
20.2689
16.6956
13.3091
10.1018
7.06632
4.19577
1.48335
-1.07546
-3.48419
-5.74471
-7.8576
-9.82336
-11.6413
-13.3105
-14.8305
-16.2009
-17.4218
-18.4941
-19.4192
-20.1994
-20.8381
-21.3396
-21.7089
-21.9519
-22.0755
-22.0871
-21.9943
-21.8057
-21.5299
-21.1755
-20.7514
-20.266
-19.7279
-19.1449
-18.5246
-17.8742
-17.2002
-16.5084
-15.8044
-15.0928
-14.3779
-13.6633
-12.9521
-12.2473
-11.5503
-10.8649
-10.2783
-9.75517
-9.22719
-8.65506
-8.13233
-7.45188
-7.07686
-6.04487
-6.30113
-4.11193
-6.40256
-0.929198
-8.53894
46.9936
46.4794
45.9938
45.5453
45.1074
44.7192
44.4083
44.1468
43.8396
43.357
42.6154
41.6094
40.3456
38.8224
37.0576
35.0834
32.9346
30.6431
28.2384
25.7486
23.1998
20.617
18.0226
15.4364
12.8761
10.3572
7.89475
5.50205
3.19071
0.969635
-1.15387
-3.17356
-5.08489
-6.88341
-8.5653
-10.1276
-11.5675
-12.883
-14.0725
-15.135
-16.0703
-16.8792
-17.5631
-18.1241
-18.5657
-18.8921
-19.108
-19.2189
-19.2312
-19.1517
-18.9874
-18.7459
-18.4346
-18.0611
-17.633
-17.1575
-16.6415
-16.0917
-15.5142
-14.9148
-14.2987
-13.6704
-13.0345
-12.3943
-11.7535
-11.1142
-10.4802
-9.93422
-9.44467
-8.95124
-8.40883
-7.91946
-7.26317
-6.91999
-5.91203
-6.18244
-4.05553
-6.27262
-1.02557
29.2645
28.9692
28.6451
28.3118
27.9329
27.4872
26.9714
26.385
25.7294
25.0097
24.2393
23.4503
22.6712
21.9014
21.1256
20.3233
19.4761
18.5699
17.5936
16.539
15.4016
14.1802
12.877
11.4974
10.0497
8.54388
6.99155
5.40461
3.79639
2.18041
0.570203
-1.02072
-2.5801
-4.09614
-5.55801
-6.95613
-8.28187
-9.52767
-10.687
-11.7543
-12.7251
-13.5963
-14.3656
-15.0314
-15.5938
-16.0537
-16.4128
-16.6738
-16.8404
-16.917
-16.9086
-16.8207
-16.6594
-16.4309
-16.1416
-15.7981
-15.4067
-14.9737
-14.505
-14.0064
-13.4832
-12.9403
-12.3823
-11.8132
-11.237
-10.6563
-10.0749
-9.571
-9.11641
-8.65796
-8.1479
-7.69019
-7.06625
-6.74327
-5.78479
-6.0305
-4.03041
-6.08399
27.85
27.6607
27.4546
27.2399
27.0031
26.7257
26.3898
25.9771
25.4663
24.8367
24.0779
23.2043
22.258
21.2741
20.2654
19.2355
18.1872
17.1237
16.0477
14.96
13.8596
12.7447
11.613
10.4622
9.29039
8.09626
6.87951
5.64061
4.38194
3.10692
1.82055
0.529294
-0.759645
-2.0381
-3.29723
-4.52813
-5.72178
-6.86953
-7.96308
-8.99477
-9.95784
-10.8465
-11.6557
-12.3814
-13.0208
-13.5721
-14.0345
-14.4083
-14.6946
-14.8956
-15.0144
-15.0545
-15.0203
-14.9167
-14.7488
-14.5222
-14.2424
-13.9151
-13.546
-13.1405
-12.7038
-12.241
-11.7566
-11.255
-10.7404
-10.2158
-9.68513
-9.22159
-8.79979
-8.37384
-7.89414
-7.46643
-6.87227
-6.57134
-5.65265
-5.89188
-3.97824
23.6006
23.3951
23.1847
22.9829
22.7822
22.576
22.3561
22.1143
21.8425
21.5294
21.1599
20.719
20.203
19.6219
18.9833
18.2892
17.5407
16.7391
15.8867
14.9871
14.0443
13.0624
12.0455
10.9979
9.92389
8.82734
7.71209
6.5816
5.43945
4.28896
3.13354
1.9771
0.82359
-0.322503
-1.45607
-2.57165
-3.66327
-4.72468
-5.74936
-6.73081
-7.66274
-8.53919
-9.35463
-10.104
-10.7833
-11.3891
-11.9187
-12.3708
-12.7445
-13.0402
-13.259
-13.4028
-13.4742
-13.4766
-13.414
-13.2905
-13.1109
-12.8799
-12.6027
-12.2842
-11.9293
-11.5428
-11.1294
-10.6934
-10.239
-9.76979
-9.28934
-8.86583
-8.47665
-8.08306
-7.6338
-7.23642
-6.67128
-6.39527
-5.51041
-5.75627
18.9529
18.775
18.5895
18.4103
18.2301
18.0462
17.8559
17.6535
17.4329
17.189
16.9158
16.6054
16.2512
15.8543
15.4215
14.957
14.4613
13.934
13.3727
12.7749
12.139
11.4641
10.7496
9.99571
9.2033
8.37413
7.51067
6.61594
5.69365
4.74782
3.78282
2.80345
1.8145
0.820989
-0.171839
-1.15872
-2.1342
-3.09276
-4.02867
-4.93625
-5.80981
-6.64379
-7.43277
-8.1716
-8.85568
-9.48081
-10.0434
-10.5408
-10.9707
-11.332
-11.6241
-11.8475
-12.0031
-12.0928
-12.1191
-12.085
-11.994
-11.85
-11.6571
-11.4196
-11.142
-10.8287
-10.4841
-10.1123
-9.71761
-9.30364
-8.8738
-8.49091
-8.13527
-7.77506
-7.35764
-6.99162
-6.45716
-6.20683
15.8213
15.6747
15.5191
15.366
15.2101
15.0502
14.8867
14.7171
14.536
14.3384
14.1193
13.873
13.5926
13.2734
12.9176
12.5319
12.1208
11.6867
11.2311
10.7534
10.2524
9.72705
9.17661
8.60022
7.99709
7.3667
6.70876
6.02341
5.31131
4.5736
3.81197
3.02886
2.22712
1.41024
0.582208
-0.25258
-1.08933
-1.92305
-2.7484
-3.55997
-4.35232
-5.11999
-5.85761
-6.5599
-7.22198
-7.83923
-8.40742
-8.92291
-9.38257
-9.784
-10.1255
-10.406
-10.6253
-10.7837
-10.8825
-10.9232
-10.9083
-10.8405
-10.723
-10.5594
-10.3533
-10.1086
-9.82938
-9.51939
-9.18264
-8.82293
-8.44328
-8.10107
-7.77931
-7.45283
-7.06807
-6.73382
13.6173
13.4933
13.3599
13.2269
13.0905
12.9503
12.8078
12.6628
12.5133
12.3553
12.1849
11.9979
11.7893
11.5531
11.2847
10.9843
10.6563
10.3042
9.92961
9.53452
9.11892
8.68186
8.22289
7.74196
7.23909
6.71428
6.16763
5.59936
5.00987
4.39968
3.76955
3.12059
2.45414
1.77193
1.07622
0.369602
-0.344804
-1.0635
-1.78252
-2.49759
-3.20418
-3.89756
-4.57287
-5.22515
-5.84963
-6.44164
-6.99672
-7.51079
-7.98016
-8.40168
-8.77271
-9.09123
-9.3559
-9.56594
-9.72132
-9.82263
-9.87102
-9.86823
-9.81644
-9.71828
-9.57674
-9.395
-9.17649
-8.9247
-8.64319
-8.33572
-8.00488
-7.7026
-7.41431
11.8026
11.6975
11.5839
11.4691
11.3499
11.2261
11.0996
10.9713
10.8408
10.7069
10.5666
10.4167
10.254
10.0745
9.87346
9.64664
9.39356
9.11709
8.81969
8.50287
8.16818
7.8156
7.44392
7.05231
6.64049
6.20828
5.75563
5.28262
4.78958
4.27696
3.74545
3.196
2.62968
2.04784
1.45212
0.84442
0.226917
-0.397855
-1.02705
-1.65748
-2.28569
-2.90794
-3.52026
-4.11845
-4.69828
-5.25545
-5.78575
-6.28511
-6.74965
-7.1759
-7.56072
-7.90142
-8.1959
-8.44253
-8.64033
-8.7889
-8.88841
-8.93961
-8.94375
-8.90256
-8.81822
-8.69319
-8.5303
-8.33253
-8.10296
-7.84517
10.287
10.1977
10.1015
10.0039
9.90138
9.79301
9.68079
9.56614
9.44952
9.33089
9.20932
9.08262
8.94804
8.80302
8.64434
8.46792
8.27005
8.04988
7.80954
7.55117
7.27626
6.98639
6.68181
6.36143
6.02431
5.67001
5.29824
4.90876
4.50144
4.07628
3.63347
3.17348
2.69688
2.20454
1.69761
1.17745
0.645733
0.104388
-0.444362
-0.998009
-1.55379
-2.10872
-2.65952
-3.2027
-3.73464
-4.25161
-4.74976
-5.22533
-5.67456
-6.09394
-6.48016
-6.8302
-7.14148
-7.41179
-7.63945
-7.8233
-7.96266
-8.05745
-8.10805
-8.11539
-8.08084
-8.00614
9.04465
8.96831
8.88622
8.80283
8.71552
8.62237
8.52408
8.42218
8.31769
8.21116
8.10275
7.99184
7.87678
7.75532
7.62524
7.48384
7.32756
7.15301
6.95897
6.74689
6.51871
6.27585
6.01987
5.75134
5.46938
5.17313
4.86217
4.53628
4.19529
3.83905
3.46749
3.08074
2.679
2.26266
1.83236
1.3889
0.93334
0.466992
-0.00853996
-0.491402
-0.979481
-1.47041
-1.96155
-2.45002
-2.93278
-3.40659
-3.86809
-4.31386
-4.74044
-5.14445
-5.52263
-5.87185
-6.18929
-6.47242
-6.71908
-6.92754
-7.09652
8.01297
7.94745
7.87702
7.80524
7.73009
7.65035
7.56596
7.47696
7.38407
7.28841
7.19073
7.09127
6.98971
6.88483
6.7748
6.6577
6.53124
6.39235
6.23787
6.06632
5.87855
5.67622
5.46065
5.23329
4.99492
4.74489
4.48231
4.20673
3.91803
3.61604
3.30068
2.97193
2.62986
2.27465
1.90667
1.52639
1.13449
0.731828
0.319488
-0.101215
-0.528752
-0.96135
-1.39698
-1.83336
-2.26801
-2.69826
-3.12122
-3.53393
-3.93327
-4.31615
7.13822
7.08176
7.02112
6.9592
6.89429
6.82532
6.75263
6.67622
6.59548
6.51065
6.42283
6.33295
6.24138
6.14797
6.05191
5.95169
5.84562
5.7318
5.60759
5.47008
5.31759
5.1505
4.97018
4.77789
4.57498
4.36238
4.13964
3.90588
3.66061
3.40366
3.13494
2.85437
2.56189
2.25756
1.94156
1.61417
1.27582
0.927085
)
;

boundaryField
{
    inlet
    {
        type            freestreamPressure;
        freestreamValue uniform 0;
        value           nonuniform List<scalar> 
11
(
-3.17464
-2.91866
-2.9296
-2.98656
-3.02891
-3.04998
-3.07038
-3.12302
-3.25494
-3.41482
-3.76575
)
;
    }
    outlet
    {
        type            freestreamPressure;
        freestreamValue nonuniform List<scalar> 0();
        value           nonuniform List<scalar> 0();
    }
    walls
    {
        type            zeroGradient;
    }
    frontAndBack
    {
        type            empty;
    }
    procBoundary6to2
    {
        type            processor;
        value           nonuniform List<scalar> 
13
(
106.545
47.3145
29.4197
27.9794
23.7483
19.0755
15.9269
13.7105
11.8834
10.3569
9.10553
8.06608
7.18454
)
;
    }
    procBoundary6to3
    {
        type            processor;
        value           uniform 6.38769;
    }
    procBoundary6to5
    {
        type            processor;
        value           nonuniform List<scalar> 
86
(
-127.659
-127.194
-126.636
-125.884
-124.863
-123.761
-122.644
-121.487
-120.287
-119.03
-117.716
-116.348
-114.927
-113.45
-111.919
-110.331
-108.686
-106.985
-105.225
-103.409
-101.535
-99.6046
-97.6183
-95.5772
-93.483
-91.3365
-89.1417
-86.8998
-84.6147
-82.2903
-79.9303
-77.5397
-75.1238
-75.1238
-83.8257
-80.4898
-77.1855
-73.9226
-70.7097
-67.5554
-64.4672
-61.4516
-58.5146
-55.661
-52.8951
-50.2197
-50.2197
-50.5092
-47.709
-45.0351
-42.4851
-40.0558
-37.744
-35.5457
-33.4568
-31.4729
-31.4729
-30.4182
-28.5382
-26.7599
-25.0775
-23.4855
-21.9784
-20.551
-20.551
-19.5011
-18.1845
-16.9363
-15.752
-14.6263
-13.556
-12.6972
-12.6972
-12.1036
-11.3709
-10.6196
-9.86767
-9.07087
-8.34821
-7.41404
-6.92875
-5.44412
-5.44412
-5.90052
-2.55554
-6.35443
)
;
    }
    procBoundary6to7
    {
        type            processor;
        value           nonuniform List<scalar> 
91
(
-8.35235
-8.35235
-1.17339
-1.17339
-5.94134
-5.94134
-3.90473
-5.35795
-3.90473
-5.61011
-6.23156
-5.35795
-6.00664
-7.12116
-6.76913
-6.23156
-6.46641
-7.56124
-7.29766
-7.12116
-7.04209
-7.89342
-7.74514
-7.56381
-7.56124
-7.35278
-7.22521
-7.31329
-7.36092
-7.36875
-7.89342
-7.33782
-4.67947
-5.0202
-5.33545
-5.62255
-5.8791
-6.10299
-7.22521
-6.29248
0.568732
0.201694
-0.172908
-0.553763
-0.939323
-1.32781
-1.71728
-2.10556
-2.49025
-2.86884
-3.23867
-4.67947
-3.59695
6.33889
6.2865
6.23294
6.17682
6.11713
6.054
5.98776
5.91828
5.84489
5.76738
5.68661
5.60364
5.51901
5.43276
5.34434
5.25255
5.15589
5.05277
4.94097
4.81781
4.68144
4.53186
4.37021
4.19763
4.01541
3.82464
3.62504
3.41578
3.19632
2.9665
2.72626
2.47551
2.21417
1.94232
1.66006
1.36765
0.568732
1.06543
)
;
    }
}


// ************************************************************************* //
