/*--------------------------------*- C++ -*----------------------------------*\
| =========                 |                                                 |
| \\      /  F ield         | OpenFOAM: The Open Source CFD Toolbox           |
|  \\    /   O peration     | Version:  2306                                  |
|   \\  /    A nd           | Website:  www.openfoam.com                      |
|    \\/     M anipulation  |                                                 |
\*---------------------------------------------------------------------------*/
FoamFile
{
    version     2.0;
    format      ascii;
    arch        "LSB;label=32;scalar=64";
    class       volScalarField;
    location    "375";
    object      turbulenceProperties:k;
}
// * * * * * * * * * * * * * * * * * * * * * * * * * * * * * * * * * * * * * //

dimensions      [0 2 -2 0 0 0 0];

internalField   nonuniform List<scalar> 
1340
(
25.4121
20.1321
15.0235
5.55854
9.5186
8.47347
7.40899
8.55749
12.1072
10.5212
8.71563
9.81218
12.4523
11.71
10.2498
11.0294
8.11011
10.0711
10.4385
11.613
1.85436
5.17821
8.34596
11.0845
0.126101
0.851659
4.2568
8.89519
0.00848505
0.104795
0.967478
5.33132
0.000911537
0.0326934
0.132474
2.12158
0
5.01302e-06
0.0025825
0.553606
0
0
0.00295179
0.142907
2.52728e-06
0
0.000816656
0.0494962
3.85379e-05
6.30224e-08
0.0002648
0.0164264
7.99667e-05
1.26331e-07
2.83558e-05
0.00416821
7.50916e-05
3.8178e-05
4.3139e-07
0.000314552
6.02393e-05
7.12138e-05
1.44182e-07
2.34337e-05
5.27209e-05
7.89328e-05
3.48558e-07
3.28168e-10
5.12914e-05
6.70188e-05
2.53612e-05
5.26081e-07
5.16453e-05
5.48638e-05
5.14787e-05
6.33905e-06
5.13036e-05
4.84505e-05
5.53516e-05
2.61395e-05
4.9877e-05
4.59126e-05
4.9838e-05
4.05108e-05
4.78592e-05
4.45959e-05
4.42728e-05
4.37891e-05
4.56957e-05
4.31724e-05
4.06322e-05
4.16053e-05
4.35661e-05
4.13831e-05
3.82305e-05
3.82694e-05
4.14909e-05
3.93765e-05
3.62653e-05
3.52289e-05
3.94385e-05
3.73091e-05
3.43629e-05
3.26301e-05
3.73949e-05
3.52612e-05
3.24478e-05
3.03281e-05
3.53613e-05
3.32515e-05
3.05438e-05
2.82172e-05
3.33418e-05
3.1281e-05
2.86757e-05
2.62472e-05
3.13505e-05
2.93559e-05
2.68634e-05
2.44049e-05
2.93977e-05
2.74815e-05
2.51094e-05
2.26798e-05
2.74882e-05
2.56647e-05
2.34235e-05
2.1063e-05
2.56325e-05
2.39074e-05
2.18048e-05
1.95492e-05
2.52863e-05
2.38371e-05
2.22186e-05
2.02558e-05
1.81284e-05
2.344e-05
2.21075e-05
2.06016e-05
1.87816e-05
1.67953e-05
2.16671e-05
2.04505e-05
1.90582e-05
1.73821e-05
1.55452e-05
1.99741e-05
1.88693e-05
1.75912e-05
1.60574e-05
1.43724e-05
1.83655e-05
1.73678e-05
1.62025e-05
1.48075e-05
1.32731e-05
1.68439e-05
1.59483e-05
1.4893e-05
1.36323e-05
1.22435e-05
1.54117e-05
1.46119e-05
1.36618e-05
1.25298e-05
1.12802e-05
1.40697e-05
1.33591e-05
1.2509e-05
1.14982e-05
1.03798e-05
1.28177e-05
1.21894e-05
1.1433e-05
1.05356e-05
9.53927e-06
1.16544e-05
1.11013e-05
1.04319e-05
9.63935e-06
8.75586e-06
1.05777e-05
1.00931e-05
9.50325e-06
8.80712e-06
8.02639e-06
9.58477e-06
9.16187e-06
8.64464e-06
8.03591e-06
7.34859e-06
8.97135e-06
8.67236e-06
8.30446e-06
7.85281e-06
7.32274e-06
6.71978e-06
8.09514e-06
7.83662e-06
7.51765e-06
7.12463e-06
6.66484e-06
6.13738e-06
7.29639e-06
7.07322e-06
6.79749e-06
6.45664e-06
6.05924e-06
5.59898e-06
6.57022e-06
6.37792e-06
6.1401e-06
5.84527e-06
5.50279e-06
5.10216e-06
5.91166e-06
5.74611e-06
5.54139e-06
5.28706e-06
4.99259e-06
4.64464e-06
5.31577e-06
5.1734e-06
4.99738e-06
4.77832e-06
4.52568e-06
4.22406e-06
4.77755e-06
4.65519e-06
4.50406e-06
4.31569e-06
4.09922e-06
3.83813e-06
4.29237e-06
4.18718e-06
4.05745e-06
3.89563e-06
3.71037e-06
3.48469e-06
3.85561e-06
3.76514e-06
3.65383e-06
3.5149e-06
3.3564e-06
3.16157e-06
3.52502e-06
3.46293e-06
3.3851e-06
3.28955e-06
3.17028e-06
3.0347e-06
2.86665e-06
3.16403e-06
3.11029e-06
3.04323e-06
2.96117e-06
2.85878e-06
2.74274e-06
2.5979e-06
2.84054e-06
2.79394e-06
2.73607e-06
2.6655e-06
2.57753e-06
2.47812e-06
2.35336e-06
2.55093e-06
2.51041e-06
2.46036e-06
2.39956e-06
2.32386e-06
2.23858e-06
2.13116e-06
2.29181e-06
2.25648e-06
2.21308e-06
2.16057e-06
2.09536e-06
2.02204e-06
1.92953e-06
2.05992e-06
2.02905e-06
1.99134e-06
1.94592e-06
1.88962e-06
1.82646e-06
1.7468e-06
1.85194e-06
1.825e-06
1.79226e-06
1.75297e-06
1.70436e-06
1.64988e-06
1.58132e-06
1.68397e-06
1.66473e-06
1.6413e-06
1.61295e-06
1.57904e-06
1.53715e-06
1.49018e-06
1.43134e-06
1.51277e-06
1.49591e-06
1.47553e-06
1.45101e-06
1.42179e-06
1.38578e-06
1.34537e-06
1.29509e-06
1.35884e-06
1.34391e-06
1.32605e-06
1.30474e-06
1.2795e-06
1.24851e-06
1.21374e-06
1.17089e-06
1.22134e-06
1.2079e-06
1.19202e-06
1.17328e-06
1.15128e-06
1.12445e-06
1.09442e-06
1.05793e-06
1.09835e-06
1.086e-06
1.07161e-06
1.05485e-06
1.03537e-06
1.01181e-06
9.85545e-07
9.54162e-07
9.92783e-07
9.81556e-07
9.68538e-07
9.53484e-07
9.36099e-07
9.15085e-07
8.91741e-07
8.64114e-07
9.08604e-07
8.98288e-07
8.8645e-07
8.72863e-07
8.57191e-07
8.38182e-07
8.17096e-07
7.93553e-07
8.44562e-07
8.36187e-07
8.25888e-07
8.14396e-07
8.01577e-07
7.86985e-07
7.69519e-07
7.49887e-07
7.28936e-07
7.80182e-07
7.71922e-07
7.61758e-07
7.50465e-07
7.38003e-07
7.23962e-07
7.07485e-07
6.89425e-07
6.71964e-07
7.12716e-07
7.04211e-07
6.94047e-07
6.82878e-07
6.70709e-07
6.57134e-07
6.41198e-07
6.22905e-07
6.03711e-07
6.58285e-07
6.50547e-07
6.41168e-07
6.30664e-07
6.1907e-07
6.06215e-07
5.91658e-07
5.76727e-07
5.65274e-07
5.81993e-07
5.73353e-07
5.63579e-07
5.53101e-07
5.41901e-07
5.29443e-07
5.1445e-07
4.95623e-07
4.74495e-07
5.57605e-07
5.50439e-07
5.41772e-07
5.31949e-07
5.21222e-07
5.0987e-07
4.98502e-07
4.90014e-07
4.89461e-07
4.51035e-07
4.42797e-07
4.33803e-07
4.24119e-07
4.13574e-07
4.0124e-07
3.84709e-07
3.62115e-07
3.34837e-07
5.17641e-07
5.12622e-07
5.06149e-07
4.98203e-07
4.89628e-07
4.81678e-07
4.78029e-07
4.84532e-07
5.01058e-07
4.03076e-07
4.02452e-07
3.99559e-07
3.94365e-07
3.8716e-07
3.77375e-07
3.63996e-07
3.56292e-07
3.42187e-07
6.96362e-07
6.80407e-07
6.8072e-07
6.80849e-07
6.80045e-07
6.79062e-07
6.80111e-07
6.93007e-07
7.24447e-07
7.40521e-07
7.47005e-07
7.42541e-07
7.46946e-07
7.52356e-07
7.56967e-07
7.61108e-07
7.66963e-07
7.86449e-07
8.19237e-07
8.17426e-07
1.26412e-06
1.06793e-06
1.08314e-06
1.09611e-06
1.10376e-06
1.11258e-06
1.12443e-06
1.14782e-06
1.16828e-06
9.99068e-07
15.1677
6.96283
3.09823
8.99679
12.0154
12.6197
11.2554
8.12583
4.17298
1.26189
0.211921
0.0427311
0.0142474
0.00362837
0.000184428
1.0882e-05
0
8.56332e-08
1.77402e-06
1.8295e-05
3.31058e-05
3.73969e-05
3.58443e-05
3.28861e-05
3.0149e-05
2.78579e-05
2.58646e-05
2.40566e-05
2.23781e-05
2.08152e-05
1.93601e-05
1.80054e-05
1.67451e-05
1.55687e-05
1.44689e-05
1.34407e-05
1.24772e-05
1.15738e-05
1.07265e-05
9.93149e-06
9.18531e-06
8.48524e-06
7.82956e-06
7.21491e-06
6.64012e-06
6.10329e-06
5.60251e-06
5.13624e-06
4.70288e-06
4.30094e-06
3.92889e-06
3.5851e-06
3.26818e-06
2.97654e-06
2.70871e-06
2.46319e-06
2.23854e-06
2.03331e-06
1.84614e-06
1.67569e-06
1.52067e-06
1.37966e-06
1.25118e-06
1.13365e-06
1.02649e-06
9.27463e-07
8.40745e-07
7.7384e-07
7.09949e-07
6.5854e-07
5.85116e-07
5.60163e-07
4.50352e-07
4.99105e-07
2.97318e-07
5.26204e-07
3.0613e-07
7.39759e-07
7.59479e-07
9.37136e-07
10.976
10.3848
4.98372
2.77163
6.90993
9.34056
9.61382
7.97163
4.9616
1.89924
0.308949
0.0225089
0.00563796
0.00203549
0.000170592
1.41675e-05
0
2.40531e-08
5.10018e-07
9.64742e-06
2.02743e-05
2.43157e-05
2.41199e-05
2.26678e-05
2.12089e-05
1.99678e-05
1.88691e-05
1.78415e-05
1.68558e-05
1.591e-05
1.50054e-05
1.41423e-05
1.33209e-05
1.25372e-05
1.1789e-05
1.10755e-05
1.03937e-05
9.7427e-06
9.12106e-06
8.52757e-06
7.96107e-06
7.42083e-06
6.9069e-06
6.41756e-06
5.95318e-06
5.51335e-06
5.09734e-06
4.70489e-06
4.33558e-06
3.9889e-06
3.66442e-06
3.36137e-06
3.07916e-06
2.81704e-06
2.57419e-06
2.34975e-06
2.14283e-06
1.95248e-06
1.77773e-06
1.61765e-06
1.47127e-06
1.33745e-06
1.21504e-06
1.10264e-06
9.99825e-07
9.04578e-07
8.20466e-07
7.55282e-07
6.91966e-07
6.43436e-07
5.69669e-07
5.48659e-07
4.36567e-07
4.90556e-07
2.84941e-07
5.16449e-07
2.95308e-07
7.21353e-07
7.37468e-07
7.14533
8.62307
6.92111
3.047
2.29779
5.71815
7.6945
7.75915
6.07762
3.35314
0.993491
0.0912578
0.00390311
0.000576289
0.000191242
0
0
1.30686e-09
2.72553e-08
4.03975e-06
1.12345e-05
1.48231e-05
1.52983e-05
1.47309e-05
1.40912e-05
1.35717e-05
1.31287e-05
1.27062e-05
1.22766e-05
1.18353e-05
1.13838e-05
1.09254e-05
1.04636e-05
9.99948e-06
9.53481e-06
9.07233e-06
8.61316e-06
8.16001e-06
7.71398e-06
7.27683e-06
6.84966e-06
6.43399e-06
6.03126e-06
5.64145e-06
5.26619e-06
4.9061e-06
4.56143e-06
4.23278e-06
3.92041e-06
3.6245e-06
3.34517e-06
3.0822e-06
2.83553e-06
2.60478e-06
2.38959e-06
2.18949e-06
2.0039e-06
1.83223e-06
1.67379e-06
1.52791e-06
1.39387e-06
1.27077e-06
1.15772e-06
1.05347e-06
9.577e-07
8.68684e-07
7.89385e-07
7.28009e-07
6.66989e-07
6.22628e-07
5.50347e-07
5.3312e-07
4.22418e-07
4.78142e-07
2.78167e-07
5.03654e-07
2.9365e-07
7.05986e-07
4.68604
6.38791
6.5869
4.88927
1.92228
1.9221
4.7051
6.31973
6.33574
4.83782
2.50663
0.662199
0.0509719
0.000352392
0.000117259
0
0
0
1.00942e-07
2.05069e-06
7.91526e-06
1.17396e-05
1.25553e-05
1.20876e-05
1.14471e-05
1.0944e-05
1.05551e-05
1.02142e-05
9.88715e-06
9.56367e-06
9.24005e-06
8.91506e-06
8.5886e-06
8.2591e-06
7.92627e-06
7.59073e-06
7.25312e-06
6.91508e-06
6.57743e-06
6.24179e-06
5.90944e-06
5.58199e-06
5.26081e-06
4.94662e-06
4.64108e-06
4.345e-06
4.05908e-06
3.78425e-06
3.52091e-06
3.2696e-06
3.03073e-06
2.80428e-06
2.59054e-06
2.38935e-06
2.20059e-06
2.02408e-06
1.85945e-06
1.70636e-06
1.56434e-06
1.4329e-06
1.31156e-06
1.1996e-06
1.09636e-06
1.00074e-06
9.12456e-07
8.30098e-07
7.56052e-07
6.99239e-07
6.41181e-07
6.01142e-07
5.30678e-07
5.17151e-07
4.08413e-07
4.65731e-07
2.72056e-07
4.91985e-07
2.91175e-07
2.84497
4.43251
5.37422
5.17346
3.70947
1.39455
1.55672
3.80703
5.15859
5.20141
3.94974
2.00894
0.523358
0.0387185
0.0027071
0
0
0
4.01153e-10
8.16981e-09
4.1566e-06
9.12854e-06
1.04503e-05
1.01915e-05
9.67965e-06
9.22846e-06
8.87479e-06
8.57571e-06
8.29285e-06
8.01411e-06
7.73846e-06
7.46642e-06
7.19785e-06
6.93161e-06
6.6666e-06
6.40219e-06
6.13816e-06
5.87479e-06
5.61194e-06
5.35014e-06
5.09001e-06
4.83228e-06
4.57773e-06
4.32694e-06
4.08107e-06
3.84071e-06
3.60662e-06
3.37971e-06
3.16037e-06
2.94927e-06
2.74697e-06
2.55367e-06
2.36976e-06
2.19534e-06
2.03055e-06
1.87536e-06
1.72967e-06
1.59331e-06
1.46606e-06
1.34759e-06
1.2376e-06
1.13561e-06
1.0411e-06
9.5319e-07
8.71591e-07
7.95209e-07
7.25832e-07
6.73056e-07
6.17619e-07
5.81345e-07
5.12453e-07
5.02273e-07
3.95071e-07
4.54458e-07
2.65366e-07
4.82592e-07
1.41979
2.74749
3.91709
4.50512
4.22073
3.01024
1.15072
1.19915
3.0737
4.25606
4.35752
3.34461
1.73171
0.471668
0.0415281
0.00253904
5.65782e-07
0
0
7.01863e-10
1.19246e-08
4.17793e-06
7.73761e-06
7.92735e-06
7.42217e-06
7.11057e-06
6.89947e-06
6.7217e-06
6.55836e-06
6.39454e-06
6.22441e-06
6.04933e-06
5.87098e-06
5.68979e-06
5.50549e-06
5.31811e-06
5.12815e-06
4.93614e-06
4.74217e-06
4.5468e-06
4.35066e-06
4.15416e-06
3.95802e-06
3.76279e-06
3.56931e-06
3.37813e-06
3.19001e-06
3.00578e-06
2.82587e-06
2.65099e-06
2.4818e-06
2.31864e-06
2.16202e-06
2.0122e-06
1.8695e-06
1.73407e-06
1.60597e-06
1.48524e-06
1.37181e-06
1.26553e-06
1.16626e-06
1.07367e-06
9.87443e-07
9.06865e-07
8.3166e-07
7.61025e-07
6.96121e-07
6.47122e-07
5.94169e-07
5.61456e-07
4.94186e-07
4.87275e-07
3.81561e-07
4.43246e-07
0.470024
1.36238
2.45783
3.38027
3.81945
3.56922
2.58918
1.0643
0.85764
2.46219
3.53534
3.70911
2.91767
1.57175
0.468028
0.0526498
0.000150187
3.09741e-05
0
0
9.0498e-12
2.24221e-07
3.64192e-06
6.47919e-06
6.1889e-06
5.59539e-06
5.37432e-06
5.26534e-06
5.15515e-06
5.04765e-06
4.94364e-06
4.83743e-06
4.72757e-06
4.61434e-06
4.497e-06
4.37479e-06
4.24776e-06
4.11624e-06
3.98036e-06
3.84068e-06
3.69774e-06
3.55199e-06
3.40422e-06
3.25499e-06
3.10501e-06
2.955e-06
2.80562e-06
2.65765e-06
2.51161e-06
2.36821e-06
2.22812e-06
2.09177e-06
1.95973e-06
1.83234e-06
1.71003e-06
1.59304e-06
1.48158e-06
1.37578e-06
1.2757e-06
1.18132e-06
1.09262e-06
1.00941e-06
9.31498e-07
8.58351e-07
7.8967e-07
7.24947e-07
6.64696e-07
6.1963e-07
5.69335e-07
5.40302e-07
4.74903e-07
4.71397e-07
0.0624416
0.42524
1.18338
2.10524
2.88641
3.27578
3.10496
2.32859
1.0702
0.54406
1.93797
2.9361
3.18601
2.5942
1.47163
0.488659
0.0658818
0.000530573
6.81856e-05
0
0
0
1.68186e-07
2.62547e-06
5.3829e-06
5.11069e-06
4.4748e-06
4.28146e-06
4.22606e-06
4.14681e-06
4.0563e-06
3.9717e-06
3.88995e-06
3.80738e-06
3.72286e-06
3.63561e-06
3.54496e-06
3.45074e-06
3.35263e-06
3.25072e-06
3.14519e-06
3.03625e-06
2.92446e-06
2.81018e-06
2.69397e-06
2.57645e-06
2.45816e-06
2.33977e-06
2.22179e-06
2.10486e-06
1.9896e-06
1.87645e-06
1.76598e-06
1.65855e-06
1.55462e-06
1.45447e-06
1.35839e-06
1.26658e-06
1.17916e-06
1.09619e-06
1.01772e-06
9.43684e-07
8.73975e-07
8.08233e-07
7.46102e-07
6.8737e-07
6.31904e-07
5.90917e-07
5.43436e-07
0.000539409
0.0457088
0.330806
0.954776
1.74415
2.44182
2.82817
2.75071
2.1547
1.11857
0.281066
1.48506
2.42778
2.75116
2.33524
1.40633
0.516316
0.0829702
0.00174734
0.000124867
0
0
0
9.2695e-08
1.37139e-06
4.22465e-06
4.28098e-06
3.64931e-06
3.43922e-06
3.41752e-06
3.37653e-06
3.30917e-06
3.24223e-06
3.17911e-06
3.11575e-06
3.05034e-06
2.9824e-06
2.91184e-06
2.83827e-06
2.76159e-06
2.68177e-06
2.5989e-06
2.51322e-06
2.42498e-06
2.33452e-06
2.24224e-06
2.14856e-06
2.05404e-06
1.95902e-06
1.86408e-06
1.76974e-06
1.67638e-06
1.58456e-06
1.49458e-06
1.4069e-06
1.32183e-06
1.23966e-06
1.16063e-06
1.08489e-06
1.01256e-06
9.43726e-07
8.78399e-07
8.16545e-07
7.57958e-07
7.02205e-07
6.49372e-07
0.000132872
0.000206576
0.0252005
0.224362
0.718196
1.39669
2.03887
2.44193
2.45905
2.02353
1.17863
0.173557
1.09344
1.99077
2.37982
2.11823
1.35711
0.547554
0.104062
0.00411353
0.000182126
0
0
0
2.86478e-08
3.70864e-07
2.95465e-06
3.63325e-06
3.07545e-06
2.79898e-06
2.7642e-06
2.74521e-06
2.7002e-06
2.65063e-06
2.60386e-06
2.557e-06
2.50799e-06
2.45654e-06
2.40243e-06
2.34551e-06
2.28571e-06
2.22304e-06
2.15766e-06
2.08975e-06
2.01954e-06
1.94731e-06
1.87338e-06
1.7982e-06
1.72203e-06
1.64532e-06
1.56852e-06
1.49195e-06
1.4161e-06
1.34125e-06
1.26781e-06
1.19608e-06
1.12635e-06
1.05885e-06
9.93771e-07
9.31232e-07
8.71365e-07
8.14206e-07
0
2.42852e-05
7.20258e-05
0.0105164
0.132269
0.500346
1.07431
1.67017
2.09518
2.20158
1.90988
1.23396
0.309643
0.755124
1.61063
2.05491
1.92734
1.31289
0.579036
0.128483
0.00794593
0.000259749
0
0
0
3.70674e-09
3.61374e-08
1.86773e-06
2.86985e-06
2.60242e-06
2.32386e-06
2.2636e-06
2.24976e-06
2.21852e-06
2.18089e-06
2.14504e-06
2.10931e-06
2.07189e-06
2.03233e-06
1.99048e-06
1.94611e-06
1.89914e-06
1.84964e-06
1.79771e-06
1.74351e-06
1.68725e-06
1.62917e-06
1.56962e-06
1.50882e-06
1.44712e-06
1.38491e-06
1.32246e-06
1.26017e-06
1.1983e-06
1.13721e-06
1.07718e-06
1.01847e-06
0
0
3.88081e-08
0.000652071
0.00261363
0.0659242
0.318369
0.785662
1.33202
1.77466
1.96142
1.79874
1.27497
0.479732
0.463394
1.27612
1.7644
1.75203
1.26845
0.608223
0.15527
0.0137375
0.00042649
0
0
0
3.53078e-11
8.4589e-08
1.23569e-06
2.29436e-06
2.19198e-06
1.94501e-06
1.87331e-06
1.86091e-06
1.8386e-06
1.80923e-06
1.78079e-06
1.75263e-06
1.72305e-06
1.69162e-06
1.65819e-06
1.62264e-06
1.58491e-06
1.54504e-06
1.5031e-06
1.45922e-06
1.41358e-06
1.36644e-06
1.31798e-06
1.26847e-06
6.39372e-08
7.94364e-13
0
0
0.000334353
0.000298302
0.0261807
0.181046
0.539276
1.02519
1.4743
1.72897
1.68115
1.29534
0.627783
0.217519
0.979876
1.50041
1.58634
1.22067
0.633063
0.18389
0.020618
0.000747354
7.51255e-07
0
0
0
5.31142e-08
7.54869e-07
1.8087e-06
1.84987e-06
1.63511e-06
1.5577e-06
1.5478e-06
1.53265e-06
1.50909e-06
1.48579e-06
)
;

boundaryField
{
    inlet
    {
        type            calculated;
        value           nonuniform List<scalar> 
11
(
5.59374e-06
5.30217e-06
5.4294e-06
5.54746e-06
5.65209e-06
5.74508e-06
5.83223e-06
5.9199e-06
6.02371e-06
5.78956e-06
6.09954e-06
)
;
    }
    outlet
    {
        type            calculated;
        value           nonuniform List<scalar> 0();
    }
    walls
    {
        type            calculated;
        value           uniform 0;
    }
    frontAndBack
    {
        type            empty;
    }
    procBoundary6to2
    {
        type            processor;
        value           nonuniform List<scalar> 
13
(
10.4551
6.28886
3.96701
2.38966
1.18177
0.396871
0.0572175
0.000590662
0.000263444
0
0
5.41775e-08
8.94057e-07
)
;
    }
    procBoundary6to3
    {
        type            processor;
        value           uniform 1.16036e-06;
    }
    procBoundary6to5
    {
        type            processor;
        value           nonuniform List<scalar> 
86
(
29.3079
11.0157
14.1321
12.6362
5.00601
0.198099
0.0212691
0.00323299
0
0
3.2418e-06
5.26911e-05
7.81449e-05
6.72271e-05
6.00845e-05
5.9489e-05
5.97641e-05
5.86007e-05
5.64487e-05
5.41399e-05
5.1991e-05
4.99701e-05
4.7971e-05
4.5933e-05
4.385e-05
4.17361e-05
3.9607e-05
3.7478e-05
3.53608e-05
3.32638e-05
3.1198e-05
2.91738e-05
2.72002e-05
2.72002e-05
2.66019e-05
2.46293e-05
2.27381e-05
2.09339e-05
1.92217e-05
1.76046e-05
1.60847e-05
1.46627e-05
1.33382e-05
1.21095e-05
1.09745e-05
9.92967e-06
9.92967e-06
9.20907e-06
8.29999e-06
7.47279e-06
6.72204e-06
6.04232e-06
5.42817e-06
4.87434e-06
4.37575e-06
3.9275e-06
3.9275e-06
3.5737e-06
3.20638e-06
2.87751e-06
2.5833e-06
2.32027e-06
2.08495e-06
1.87393e-06
1.87393e-06
1.69947e-06
1.52649e-06
1.37114e-06
1.23255e-06
1.10876e-06
1.00212e-06
9.16939e-07
9.16939e-07
8.51868e-07
7.87493e-07
7.20492e-07
6.65586e-07
5.90168e-07
5.65553e-07
4.57538e-07
5.27803e-07
3.96847e-07
3.96847e-07
6.43064e-07
7.43612e-07
9.60321e-07
)
;
    }
    procBoundary6to7
    {
        type            processor;
        value           nonuniform List<scalar> 
91
(
9.39405e-07
9.39405e-07
7.13842e-07
7.13842e-07
6.92255e-07
6.92255e-07
2.88857e-07
2.58104e-07
2.88857e-07
4.73854e-07
3.67358e-07
2.58104e-07
4.31549e-07
5.18164e-07
4.5484e-07
3.67358e-07
4.54826e-07
5.98667e-07
5.61753e-07
5.18164e-07
5.17129e-07
7.59778e-07
7.08017e-07
6.58401e-07
5.98667e-07
6.11304e-07
9.61305e-07
9.05877e-07
8.52299e-07
8.00709e-07
7.59778e-07
7.51178e-07
1.21822e-06
1.16748e-06
1.11657e-06
1.06571e-06
1.01522e-06
9.65329e-07
9.61305e-07
9.16286e-07
1.46316e-06
1.43943e-06
1.41404e-06
1.3869e-06
1.35792e-06
1.32708e-06
1.29443e-06
1.26005e-06
1.22407e-06
1.18667e-06
1.14801e-06
1.21822e-06
1.10829e-06
1.00709e-08
6.32303e-10
0
0
3.92871e-05
8.12743e-05
0.00695113
0.0878957
0.339703
0.751501
1.19101
1.49877
1.55157
1.29161
0.745732
0.0792645
0.717489
1.25811
1.42671
1.1674
0.65261
0.2131
0.0284861
0.000172751
2.2038e-05
0
0
0
2.7601e-08
3.71255e-07
1.40121e-06
1.57105e-06
1.37757e-06
1.29158e-06
1.2853e-06
1.27921e-06
1.46316e-06
1.262e-06
)
;
    }
}


// ************************************************************************* //
