/*--------------------------------*- C++ -*----------------------------------*\
| =========                 |                                                 |
| \\      /  F ield         | OpenFOAM: The Open Source CFD Toolbox           |
|  \\    /   O peration     | Version:  2306                                  |
|   \\  /    A nd           | Website:  www.openfoam.com                      |
|    \\/     M anipulation  |                                                 |
\*---------------------------------------------------------------------------*/
FoamFile
{
    version     2.0;
    format      ascii;
    arch        "LSB;label=32;scalar=64";
    class       volSymmTensorField;
    location    "375";
    object      turbulenceProperties:devReff;
}
// * * * * * * * * * * * * * * * * * * * * * * * * * * * * * * * * * * * * * //

dimensions      [0 2 -2 0 0 0 0];

internalField   nonuniform List<symmTensor> 
1340
(
(-2.43532 -7.22695 1.21994e-15 2.42432 1.14383e-15 0.0109973)
(-2.07483 -5.67526 -1.22449e-16 2.06161 -5.25248e-16 0.0132171)
(-1.60188 -4.21335 -1.54828e-15 1.60255 -2.10346e-17 -0.000671327)
(-0.759331 -1.48424 -3.64198e-16 0.762259 -3.32802e-15 -0.00292791)
(-0.781588 -2.74363 3.42275e-15 0.80205 -4.99298e-15 -0.0204611)
(-0.730797 -2.43285 -1.5038e-15 0.743898 1.52312e-15 -0.0131011)
(-0.561988 -2.14574 3.25243e-15 0.594718 4.03371e-16 -0.0327307)
(-0.851052 -2.43458 5.79845e-15 0.751873 8.24881e-15 0.099179)
(-0.878603 -3.5241 -1.43666e-14 0.881575 5.20366e-16 -0.00297209)
(-0.79867 -3.05394 4.95864e-15 0.797647 -1.62552e-15 0.00102261)
(-0.531931 -2.55846 5.14286e-15 0.547042 -1.52316e-15 -0.0151111)
(-0.844265 -2.82258 -1.01088e-14 0.82703 3.05688e-15 0.0172344)
(-0.793 -3.651 4.79373e-15 0.790464 4.89487e-15 0.00253627)
(-0.801334 -3.42109 -1.01682e-14 0.796616 -1.30105e-16 0.00471819)
(-0.574064 -3.02003 -1.30306e-14 0.584054 1.88267e-15 -0.00999061)
(-0.813046 -3.21072 9.2262e-15 0.785275 -3.4875e-15 0.0277706)
(-0.40085 -2.39987 -9.96228e-16 0.40155 4.27329e-16 -0.000700863)
(-0.586102 -2.96447 -1.75053e-15 0.582125 3.98527e-15 0.003977)
(-0.525621 -3.08631 6.73596e-16 0.536111 2.434e-16 -0.0104908)
(-0.77249 -3.40104 -1.72711e-14 0.735228 4.32363e-15 0.0372619)
(-0.0172571 -0.556071 2.80888e-15 0.0188546 -1.64899e-15 -0.00159754)
(-0.203041 -1.54029 1.02219e-14 0.202245 -1.62792e-15 0.000796025)
(-0.332085 -2.48104 5.2154e-16 0.342345 -9.15944e-17 -0.0102598)
(-0.674239 -3.25965 3.62108e-15 0.638034 -3.42059e-15 0.0362047)
(0.0290317 0.0243066 -1.25398e-15 -0.0289906 3.18075e-16 -4.11112e-05)
(0.0319167 -0.25348 -1.31587e-15 -0.0326628 -8.04705e-16 0.000746137)
(-0.0704779 -1.2749 1.17137e-15 0.0781005 -2.67019e-16 -0.00762261)
(-0.474593 -2.62843 3.1056e-15 0.444174 -9.00601e-16 0.0304192)
(0.00133918 0.00219931 5.29203e-17 -0.0013369 1.28617e-18 -2.27633e-06)
(0.0230904 0.0211895 -4.15171e-16 -0.0233994 1.40583e-16 0.000308957)
(0.0619925 -0.283878 -1.87083e-15 -0.0588529 3.43955e-16 -0.00313959)
(-0.216902 -1.58587 9.84404e-15 0.193547 -5.70649e-16 0.0233551)
(0.000229199 0.000160446 -4.44664e-18 -0.000228271 -1.88928e-18 -9.2808e-07)
(0.00601071 0.00774501 9.11386e-17 -0.00609084 -7.77746e-18 8.01361e-05)
(0.0400723 0.00322698 1.89476e-15 -0.0391245 -2.29941e-16 -0.000947792)
(-0.0285471 -0.635739 -4.57925e-15 0.0125748 1.49481e-15 0.0159723)
(9.17662e-06 -3.19489e-06 1.04665e-19 -9.12619e-06 5.18401e-20 -5.04304e-08)
(9.20997e-06 3.03754e-06 -1.77246e-19 -9.37361e-06 2.61477e-20 1.63636e-07)
(0.000646504 0.0004639 -9.92322e-18 -0.000629264 4.29025e-19 -1.72395e-05)
(0.0321464 -0.161475 -3.50032e-15 -0.0410324 1.49713e-16 0.00888598)
(8.92106e-06 -3.7508e-06 7.08036e-20 -8.86765e-06 -1.03582e-20 -5.34049e-08)
(7.49413e-06 -5.22089e-06 2.38809e-19 -7.62764e-06 1.66105e-20 1.33509e-07)
(0.000854953 0.000305815 -5.84881e-18 -0.000827606 1.15285e-18 -2.73476e-05)
(0.0253772 -0.0325704 5.76595e-16 -0.0292166 -2.59316e-16 0.00383939)
(9.05498e-06 -1.52275e-06 8.26355e-20 -9.01135e-06 -8.45473e-20 -4.36262e-08)
(7.63476e-06 -5.63455e-06 1.49059e-19 -7.74563e-06 -4.64267e-20 1.10868e-07)
(0.000243452 -7.52997e-05 1.32678e-18 -0.000235034 -2.34018e-19 -8.41765e-06)
(0.0105617 -0.00951102 6.12072e-16 -0.0119118 -1.79848e-17 0.00135006)
(1.09966e-05 -4.95711e-07 -4.23293e-19 -1.09516e-05 1.17808e-19 -4.49947e-08)
(8.02784e-06 -3.65529e-06 -1.00272e-20 -8.1351e-06 -4.39492e-20 1.07259e-07)
(6.23763e-05 -4.04631e-05 -1.62313e-18 -6.03063e-05 1.26139e-19 -2.06998e-06)
(0.00316046 -0.0035737 -2.22391e-16 -0.00355501 2.19349e-17 0.000394547)
(1.7316e-05 -6.53612e-07 9.41796e-19 -1.7249e-05 -7.70695e-20 -6.69718e-08)
(8.06009e-06 -2.4162e-06 -2.50162e-19 -8.16365e-06 3.97127e-20 1.0356e-07)
(8.30229e-06 -5.19735e-06 -8.82075e-20 -8.05769e-06 2.50757e-20 -2.44606e-07)
(0.000719637 -0.000995931 6.48307e-17 -0.000806662 -6.11724e-18 8.70249e-05)
(1.62881e-05 -9.38052e-07 -7.13958e-19 -1.62285e-05 -7.42398e-20 -5.96087e-08)
(9.94922e-06 -2.71204e-06 1.6097e-19 -1.00688e-05 1.52747e-20 1.19602e-07)
(7.17504e-06 -3.81954e-06 3.38362e-19 -6.99168e-06 -3.90777e-20 -1.83367e-07)
(4.80716e-05 -7.0342e-05 -5.19038e-18 -5.34366e-05 5.75946e-19 5.36498e-06)
(1.34976e-05 -8.8967e-07 7.14435e-20 -1.34527e-05 9.7974e-20 -4.49002e-08)
(1.47424e-05 -4.2803e-06 -2.96662e-20 -1.49041e-05 -2.65478e-20 1.61762e-07)
(6.93589e-06 -3.41702e-06 -3.50434e-19 -6.78096e-06 1.95695e-20 -1.54923e-07)
(5.87918e-06 -8.35163e-06 1.8177e-19 -6.46559e-06 -3.72046e-20 5.86411e-07)
(1.21799e-05 -7.66196e-07 1.09839e-19 -1.21434e-05 -8.39088e-21 -3.64515e-08)
(1.62189e-05 -4.92739e-06 -9.71156e-20 -1.63803e-05 3.29423e-21 1.61367e-07)
(6.62857e-06 -3.31714e-06 2.04736e-20 -6.49976e-06 1.60848e-20 -1.28814e-07)
(5.17945e-06 -7.02438e-06 -1.22338e-19 -5.63576e-06 9.2243e-21 4.56311e-07)
(1.1835e-05 -6.68486e-07 3.53377e-20 -1.18037e-05 -5.03012e-20 -3.13433e-08)
(1.38358e-05 -4.20443e-06 -7.28896e-20 -1.39595e-05 2.86171e-20 1.23696e-07)
(7.32362e-06 -3.82363e-06 3.13507e-19 -7.19953e-06 -1.60019e-20 -1.24094e-07)
(4.88802e-06 -6.41384e-06 1.58991e-19 -5.26661e-06 -1.87431e-20 3.78597e-07)
(1.17656e-05 -5.88632e-07 -2.89713e-19 -1.17384e-05 1.74888e-20 -2.72076e-08)
(1.16398e-05 -3.4543e-06 1.62445e-19 -1.17326e-05 -8.8543e-21 9.27717e-08)
(1.01401e-05 -5.45906e-06 2.80471e-19 -9.99263e-06 -3.2198e-20 -1.47434e-07)
(4.64243e-06 -5.96908e-06 4.14737e-19 -4.95737e-06 -1.83536e-20 3.14943e-07)
(1.15906e-05 -5.05054e-07 3.08259e-20 -1.15677e-05 3.06099e-20 -2.29323e-08)
(1.05356e-05 -3.03338e-06 -3.69824e-20 -1.06104e-05 -1.86099e-20 7.47331e-08)
(1.06406e-05 -5.80743e-06 -9.62524e-20 -1.0511e-05 -1.8594e-20 -1.29537e-07)
(5.06704e-06 -6.40482e-06 -3.64771e-20 -5.36555e-06 1.17719e-20 2.98503e-07)
(1.12391e-05 -4.08643e-07 -9.70757e-21 -1.12201e-05 -1.91148e-20 -1.89714e-08)
(1.00496e-05 -2.80189e-06 -1.33283e-19 -1.01121e-05 2.06631e-20 6.24861e-08)
(9.6593e-06 -5.28007e-06 -4.57426e-19 -9.56218e-06 3.20205e-20 -9.71235e-08)
(5.96593e-06 -7.3881e-06 -2.59284e-19 -6.2687e-06 1.14642e-20 3.02767e-07)
(1.07879e-05 -3.02966e-07 -1.48609e-19 -1.07729e-05 3.59501e-20 -1.49805e-08)
(9.74813e-06 -2.6235e-06 1.39841e-19 -9.80054e-06 -7.49246e-21 5.24093e-08)
(8.71488e-06 -4.7363e-06 1.16702e-19 -8.64346e-06 4.05887e-21 -7.1418e-08)
(6.23705e-06 -7.53307e-06 -1.5504e-19 -6.50636e-06 4.24235e-21 2.69309e-07)
(1.03103e-05 -1.92602e-07 2.9476e-19 -1.02988e-05 -2.09816e-21 -1.14974e-08)
(9.42956e-06 -2.43638e-06 -1.41918e-19 -9.4733e-06 2.89877e-21 4.37403e-08)
(8.08887e-06 -4.3444e-06 -9.6574e-20 -8.03665e-06 4.43775e-21 -5.22168e-08)
(6.00521e-06 -7.0375e-06 3.40129e-19 -6.22433e-06 -1.23042e-20 2.19114e-07)
(9.83618e-06 -8.01456e-08 -4.20845e-20 -9.82737e-06 -2.9834e-20 -8.80657e-09)
(9.05239e-06 -2.23076e-06 7.48183e-20 -9.08811e-06 -6.57756e-21 3.57172e-08)
(7.6553e-06 -4.0405e-06 1.33497e-19 -7.61753e-06 -9.92378e-21 -3.77717e-08)
(5.65409e-06 -6.40461e-06 -2.19334e-19 -5.82673e-06 9.16109e-21 1.72638e-07)
(9.36895e-06 3.27593e-08 -4.6952e-20 -9.36282e-06 -1.6374e-21 -6.1299e-09)
(8.6394e-06 -2.0137e-06 -1.9241e-19 -8.66799e-06 8.07019e-21 2.85895e-08)
(7.29319e-06 -3.75884e-06 -2.21746e-19 -7.26675e-06 1.39076e-20 -2.64432e-08)
(5.33576e-06 -5.81752e-06 2.46958e-19 -5.47056e-06 -6.62801e-21 1.348e-07)
(8.90379e-06 1.44802e-07 -8.93976e-20 -8.89968e-06 1.27882e-20 -4.11139e-09)
(8.21494e-06 -1.79468e-06 1.00558e-19 -8.23719e-06 2.32829e-20 2.22521e-08)
(6.94643e-06 -3.47348e-06 3.35785e-19 -6.92861e-06 -1.46574e-22 -1.78264e-08)
(5.06438e-06 -5.29462e-06 -2.41299e-19 -5.16815e-06 5.33884e-21 1.03765e-07)
(8.43882e-06 2.55705e-07 9.37258e-20 -8.43624e-06 9.17939e-21 -2.58274e-09)
(7.79206e-06 -1.57747e-06 2.83595e-19 -7.80935e-06 -1.98148e-20 1.72894e-08)
(6.60294e-06 -3.18032e-06 2.07816e-20 -6.59187e-06 -8.21439e-21 -1.10623e-08)
(4.82435e-06 -4.81621e-06 1.30243e-19 -4.90324e-06 -3.02026e-21 7.88856e-08)
(7.97448e-06 3.62297e-07 7.71858e-20 -7.97354e-06 -1.59254e-20 -9.42424e-10)
(7.37356e-06 -1.36585e-06 -1.64205e-19 -7.38691e-06 -1.73219e-20 1.33512e-08)
(6.26369e-06 -2.88566e-06 4.00868e-20 -6.25805e-06 -7.7341e-21 -5.64263e-09)
(4.60286e-06 -4.36954e-06 -2.46611e-19 -4.66254e-06 2.85718e-21 5.9677e-08)
(7.51208e-06 4.64924e-07 -1.37878e-19 -7.51192e-06 6.267e-21 -1.65597e-10)
(6.96024e-06 -1.15914e-06 -1.10204e-19 -6.97001e-06 1.52793e-20 9.77249e-09)
(5.93122e-06 -2.59331e-06 -2.14232e-19 -5.92917e-06 4.3707e-21 -2.04944e-09)
(4.3931e-06 -3.94879e-06 1.59638e-19 -4.43761e-06 -3.95832e-21 4.45188e-08)
(7.05438e-06 5.61632e-07 1.53926e-19 -7.0548e-06 -2.72723e-21 4.21952e-10)
(6.55283e-06 -9.60812e-07 1.2214e-19 -6.55993e-06 -3.7854e-21 7.09426e-09)
(5.60681e-06 -2.30796e-06 1.04063e-19 -5.60756e-06 -1.94655e-21 7.47784e-10)
(4.19288e-06 -3.552e-06 -3.57012e-19 -4.22619e-06 5.93874e-21 3.33043e-08)
(6.60355e-06 6.50844e-07 -1.82948e-19 -6.60473e-06 -4.68073e-21 1.1871e-09)
(6.15278e-06 -7.70647e-07 -1.8426e-19 -6.15776e-06 -7.12241e-22 4.98036e-09)
(5.29008e-06 -2.03155e-06 -2.69748e-19 -5.29226e-06 3.41761e-22 2.18315e-09)
(3.99969e-06 -3.17893e-06 5.68444e-19 -4.02421e-06 4.955e-21 2.45179e-08)
(6.16107e-06 7.31887e-07 9.07377e-20 -6.16252e-06 1.34534e-20 1.45026e-09)
(5.76118e-06 -5.91301e-07 1.2495e-19 -5.76481e-06 1.52522e-21 3.63137e-09)
(4.98172e-06 -1.76649e-06 1.57923e-19 -4.98517e-06 1.18729e-20 3.44832e-09)
(3.81245e-06 -2.82801e-06 -2.28048e-19 -3.83017e-06 -8.80794e-21 1.7717e-08)
(5.72925e-06 8.04046e-07 4.77054e-20 -5.7309e-06 -7.37962e-21 1.64648e-09)
(5.37887e-06 -4.23165e-07 -1.69486e-19 -5.38111e-06 -5.4412e-21 2.24322e-09)
(4.68089e-06 -1.5151e-06 6.24175e-20 -4.68495e-06 -1.22821e-20 4.05622e-09)
(3.6297e-06 -2.49957e-06 9.54929e-20 -3.64248e-06 4.26556e-21 1.27761e-08)
(5.35099e-06 1.9855e-06 -1.85805e-19 -5.35247e-06 9.37431e-21 1.47751e-09)
(5.30981e-06 8.66333e-07 -7.58437e-20 -5.31163e-06 -8.66169e-21 1.82013e-09)
(5.00762e-06 -2.67203e-07 5.43731e-20 -5.00898e-06 1.57209e-20 1.35872e-09)
(4.38795e-06 -1.27815e-06 -2.5834e-19 -4.39205e-06 -1.21502e-21 4.09611e-09)
(3.45012e-06 -2.19291e-06 -6.55558e-20 -3.45889e-06 4.89732e-22 8.77055e-09)
(4.91956e-06 1.94664e-06 2.08257e-19 -4.92099e-06 1.39502e-20 1.42731e-09)
(4.90437e-06 9.18523e-07 -8.38595e-20 -4.90609e-06 5.18777e-21 1.71788e-09)
(4.64831e-06 -1.24649e-07 2.18029e-19 -4.64916e-06 6.26108e-22 8.5304e-10)
(4.10352e-06 -1.05725e-06 1.73111e-19 -4.10765e-06 1.15591e-20 4.13e-09)
(3.27317e-06 -1.90753e-06 1.97793e-19 -3.27887e-06 5.88801e-21 5.70196e-09)
(4.50654e-06 1.89967e-06 -5.18683e-20 -4.50782e-06 -1.06705e-20 1.28188e-09)
(4.51463e-06 9.6015e-07 9.76571e-20 -4.51636e-06 6.07049e-21 1.72701e-09)
(4.30181e-06 4.25017e-09 -5.88283e-20 -4.30224e-06 -1.36968e-20 4.30593e-10)
(3.8277e-06 -8.5329e-07 -4.82117e-21 -3.83174e-06 -7.48474e-21 4.0352e-09)
(3.09844e-06 -1.64336e-06 -7.95083e-20 -3.1018e-06 -9.78488e-21 3.36333e-09)
(4.11351e-06 1.84525e-06 3.02351e-20 -4.11465e-06 -4.32059e-22 1.1313e-09)
(4.14171e-06 9.91284e-07 -1.3582e-20 -4.1434e-06 -3.19877e-21 1.68596e-09)
(3.96904e-06 1.19124e-07 -1.44684e-19 -3.96914e-06 1.92634e-21 1.02783e-10)
(3.56088e-06 -6.66685e-07 -9.22521e-20 -3.56469e-06 -6.44572e-21 3.80948e-09)
(2.92565e-06 -1.4001e-06 -2.10202e-19 -2.9271e-06 -4.79081e-21 1.45033e-09)
(3.74167e-06 1.78426e-06 -9.68202e-20 -3.74275e-06 -7.74723e-22 1.08129e-09)
(3.78681e-06 1.01233e-06 1.96857e-20 -3.78838e-06 -8.24374e-22 1.56881e-09)
(3.65084e-06 2.19926e-07 1.43681e-19 -3.65073e-06 6.29631e-21 -1.04315e-10)
(3.30346e-06 -4.97663e-07 -1.20754e-19 -3.30699e-06 -3.21853e-21 3.52705e-09)
(2.75497e-06 -1.17727e-06 7.36792e-20 -2.75492e-06 5.91251e-21 -4.58926e-11)
(3.39177e-06 1.7176e-06 1.43796e-19 -3.39278e-06 1.37679e-20 1.00346e-09)
(3.45084e-06 1.02339e-06 -3.62085e-20 -3.45232e-06 1.66937e-21 1.48043e-09)
(3.34787e-06 3.06689e-07 -1.41423e-19 -3.34769e-06 -7.73583e-21 -1.83724e-10)
(3.05602e-06 -3.4618e-07 -2.82142e-20 -3.05931e-06 7.24935e-21 3.29627e-09)
(2.58664e-06 -9.74608e-07 -1.87831e-20 -2.58536e-06 -8.28708e-22 -1.27968e-09)
(3.06435e-06 1.64635e-06 7.11164e-20 -3.06524e-06 -3.21549e-21 8.87333e-10)
(3.13434e-06 1.02523e-06 9.74609e-20 -3.13571e-06 6.56851e-21 1.36641e-09)
(3.06055e-06 3.79795e-07 1.12836e-19 -3.06027e-06 7.87191e-21 -2.80913e-10)
(2.81883e-06 -2.12014e-07 2.65095e-19 -2.82191e-06 1.07013e-20 3.08058e-09)
(2.42115e-06 -7.91371e-07 9.02717e-20 -2.41891e-06 6.42138e-21 -2.24537e-09)
(2.75967e-06 1.57142e-06 -5.7361e-20 -2.76046e-06 -7.83708e-21 7.9041e-10)
(2.83776e-06 1.01853e-06 5.59964e-21 -2.83904e-06 -6.30043e-21 1.28515e-09)
(2.78934e-06 4.39905e-07 -5.73626e-20 -2.78899e-06 -6.18838e-21 -3.45519e-10)
(2.59231e-06 -9.46078e-08 -1.08047e-19 -2.59516e-06 -1.3863e-20 2.85053e-09)
(2.2589e-06 -6.2724e-07 6.2977e-20 -2.25585e-06 1.61889e-21 -3.04859e-09)
(2.4776e-06 1.49386e-06 -7.69542e-20 -2.47831e-06 -2.33546e-21 7.12966e-10)
(2.56121e-06 1.00408e-06 -1.43839e-19 -2.5624e-06 -7.32159e-21 1.19096e-09)
(2.53446e-06 4.87559e-07 -2.14859e-20 -2.53411e-06 2.12815e-21 -3.50696e-10)
(2.37682e-06 6.74393e-09 -8.85085e-20 -2.3795e-06 -2.90015e-21 2.67785e-09)
(2.1006e-06 -4.80986e-07 -2.67414e-21 -2.09692e-06 -4.14461e-21 -3.67104e-09)
(2.21774e-06 1.41467e-06 8.87168e-21 -2.21838e-06 5.67938e-21 6.41197e-10)
(2.30463e-06 9.82774e-07 7.09514e-20 -2.30571e-06 7.02105e-21 1.07967e-09)
(2.29595e-06 5.2379e-07 9.18442e-20 -2.29558e-06 4.80517e-21 -3.73503e-10)
(2.17262e-06 9.29002e-08 -1.11372e-20 -2.17511e-06 3.17011e-21 2.48396e-09)
(1.94676e-06 -3.52225e-07 -1.54185e-19 -1.94263e-06 -6.68295e-21 -4.13391e-09)
(1.97954e-06 1.33477e-06 1.25103e-19 -1.9801e-06 9.51245e-21 5.63478e-10)
(2.06772e-06 9.55641e-07 -5.36622e-20 -2.06869e-06 -6.94459e-21 9.6883e-10)
(2.07377e-06 5.49446e-07 -7.48024e-20 -2.07339e-06 -7.76921e-21 -3.76892e-10)
(1.97997e-06 1.6482e-07 7.47592e-20 -1.98232e-06 3.06346e-21 2.34974e-09)
(1.79802e-06 -2.39672e-07 1.55471e-19 -1.79349e-06 1.24956e-20 -4.53215e-09)
(1.7622e-06 1.25497e-06 -2.3374e-21 -1.76268e-06 -2.65537e-21 4.89397e-10)
(1.84999e-06 9.23536e-07 -9.04856e-20 -1.8509e-06 -4.92126e-21 9.12191e-10)
(1.86774e-06 5.65604e-07 -2.06744e-20 -1.86736e-06 -2.016e-21 -3.83309e-10)
(1.79894e-06 2.23653e-07 -6.55994e-20 -1.80117e-06 -4.51946e-21 2.22958e-09)
(1.65495e-06 -1.42428e-07 -7.18158e-21 -1.65015e-06 -5.48216e-21 -4.80069e-09)
(1.42798e-06 1.43573e-06 -5.67834e-22 -1.42851e-06 -6.16356e-22 5.2927e-10)
(1.56476e-06 1.17608e-06 1.84778e-20 -1.56518e-06 1.07407e-21 4.18055e-10)
(1.65074e-06 8.87516e-07 2.70453e-20 -1.65155e-06 3.83134e-21 8.13609e-10)
(1.67749e-06 5.73325e-07 -1.04825e-19 -1.6771e-06 -5.09152e-21 -3.91837e-10)
(1.62958e-06 2.70524e-07 9.04236e-20 -1.63167e-06 7.39648e-21 2.0963e-09)
(1.51806e-06 -5.9399e-08 -1.51169e-19 -1.51309e-06 -8.47494e-21 -4.97177e-09)
(1.26043e-06 1.32284e-06 -1.78909e-20 -1.26089e-06 -1.45944e-21 4.61017e-10)
(1.38616e-06 1.09877e-06 -2.56184e-20 -1.38652e-06 -3.37087e-21 3.60295e-10)
(1.46924e-06 8.48472e-07 -2.84296e-20 -1.46996e-06 -3.46301e-21 7.22935e-10)
(1.50257e-06 5.73754e-07 1.35407e-19 -1.50218e-06 1.32954e-20 -3.86909e-10)
(1.47184e-06 3.06621e-07 -1.03125e-20 -1.47381e-06 -3.85745e-21 1.9766e-09)
(1.38777e-06 1.05483e-08 1.30313e-19 -1.3827e-06 1.11496e-20 -5.06699e-09)
(1.1103e-06 1.21636e-06 1.78592e-20 -1.11069e-06 3.16553e-21 3.90459e-10)
(1.22523e-06 1.02357e-06 -4.62279e-20 -1.22553e-06 -3.06107e-21 2.99242e-10)
(1.30456e-06 8.07208e-07 1.36418e-21 -1.30523e-06 1.44099e-21 6.73927e-10)
(1.34242e-06 5.67891e-07 5.97722e-20 -1.34203e-06 1.42043e-21 -3.86591e-10)
(1.32557e-06 3.33148e-07 -9.48258e-20 -1.32745e-06 -5.04203e-21 1.87821e-09)
(1.26443e-06 6.86065e-08 -5.59702e-20 -1.25934e-06 -5.52489e-21 -5.09684e-09)
(9.76221e-07 1.11638e-06 6.3398e-20 -9.7656e-07 4.28222e-21 3.38533e-10)
(1.08076e-06 9.51001e-07 3.29302e-20 -1.08101e-06 3.46038e-21 2.46462e-10)
(1.1557e-06 7.64616e-07 7.20889e-20 -1.1563e-06 5.27982e-21 5.99078e-10)
(1.19637e-06 5.56806e-07 -7.96796e-20 -1.19597e-06 -6.15639e-21 -3.94999e-10)
(1.1905e-06 3.51275e-07 1.37009e-19 -1.19228e-06 1.21516e-20 1.78112e-09)
(1.1483e-06 1.15904e-07 6.06822e-20 -1.14322e-06 5.51368e-21 -5.08122e-09)
(8.56851e-07 1.02291e-06 -7.36215e-20 -8.57139e-07 -7.59078e-21 2.882e-10)
(9.51483e-07 8.81406e-07 -1.2348e-20 -9.51691e-07 -2.10123e-21 2.07799e-10)
(1.02166e-06 7.21291e-07 -8.50435e-20 -1.02221e-06 -9.22843e-21 5.45358e-10)
(1.0637e-06 5.41474e-07 9.75272e-20 -1.06331e-06 9.34596e-21 -3.88386e-10)
(1.06631e-06 3.62171e-07 9.02989e-21 -1.06798e-06 -1.35192e-21 1.67358e-09)
(1.03952e-06 1.53594e-07 -3.41247e-20 -1.03452e-06 -4.80025e-21 -4.99901e-09)
(7.50887e-07 9.35874e-07 2.96815e-20 -7.51129e-07 3.99487e-21 2.42175e-10)
(8.36188e-07 8.1511e-07 -3.07503e-20 -8.36345e-07 -2.41038e-21 1.57709e-10)
(9.01358e-07 6.77945e-07 -1.583e-20 -9.0184e-07 2.43616e-22 4.82082e-10)
(9.43613e-07 5.2278e-07 -1.04906e-20 -9.43223e-07 -2.31328e-21 -3.906e-10)
(9.52603e-07 3.66857e-07 -3.63021e-20 -9.54185e-07 -2.69929e-21 1.58186e-09)
(9.38153e-07 1.82785e-07 -1.07883e-19 -9.3328e-07 -7.99445e-21 -4.87313e-09)
(6.57052e-07 8.55112e-07 -6.9358e-21 -6.57261e-07 8.553e-22 2.08573e-10)
(7.33658e-07 7.52247e-07 8.24188e-21 -7.33793e-07 1.1715e-21 1.35493e-10)
(7.93753e-07 6.35036e-07 2.88046e-20 -7.94195e-07 2.92829e-21 4.41545e-10)
(8.35327e-07 5.01529e-07 -8.08335e-21 -8.3494e-07 -1.18054e-21 -3.86786e-10)
(8.48901e-07 3.6639e-07 2.41112e-20 -8.50392e-07 1.31185e-21 1.49138e-09)
(8.44155e-07 2.04569e-07 8.70431e-20 -8.39429e-07 8.87255e-21 -4.72627e-09)
(5.74149e-07 7.80448e-07 1.4096e-19 -5.74323e-07 1.3865e-20 1.73778e-10)
(6.42698e-07 6.92998e-07 8.24033e-21 -6.42797e-07 1.2567e-21 9.86786e-11)
(6.97766e-07 5.93043e-07 5.53079e-21 -6.9815e-07 1.26752e-23 3.841e-10)
(7.37975e-07 4.78449e-07 -5.15777e-20 -7.37595e-07 -3.39644e-21 -3.79314e-10)
(7.54694e-07 3.6167e-07 -8.71778e-20 -7.56092e-07 -7.74776e-21 1.39806e-09)
(7.57415e-07 2.19942e-07 -1.54164e-20 -7.52867e-07 -1.87835e-21 -4.54866e-09)
(5.01068e-07 7.11601e-07 -4.438e-20 -5.01214e-07 -5.83011e-21 1.45217e-10)
(5.62225e-07 6.37357e-07 1.8935e-20 -5.62302e-07 1.56177e-21 7.68614e-11)
(6.12393e-07 5.5229e-07 -2.12445e-20 -6.12747e-07 -2.81437e-21 3.53845e-10)
(6.50741e-07 4.54172e-07 1.01672e-19 -6.50366e-07 9.53301e-21 -3.74933e-10)
(6.69414e-07 3.53534e-07 7.15102e-20 -6.70728e-07 7.60517e-21 1.31368e-09)
(6.77739e-07 2.29827e-07 7.64929e-20 -6.7339e-07 6.26926e-21 -4.34899e-09)
(3.76035e-07 7.01272e-07 3.50497e-20 -3.76119e-07 3.32842e-21 8.45781e-11)
(4.36759e-07 6.48286e-07 5.43571e-20 -4.36885e-07 6.66707e-21 1.25662e-10)
(4.91174e-07 5.8535e-07 -1.71857e-20 -4.91224e-07 -2.19808e-21 4.98613e-11)
(5.36626e-07 5.13085e-07 -3.94795e-20 -5.3694e-07 -3.64635e-21 3.13603e-10)
(5.72794e-07 4.29225e-07 -6.75612e-20 -5.72426e-07 -7.42726e-21 -3.68026e-10)
(5.92488e-07 3.42724e-07 -2.11456e-20 -5.93718e-07 -2.24255e-21 1.23011e-09)
(6.04866e-07 2.35114e-07 -1.30356e-19 -6.00728e-07 -1.34139e-20 -4.13779e-09)
(3.26912e-07 6.35048e-07 -5.20375e-20 -3.26978e-07 -5.75679e-21 6.6143e-11)
(3.8026e-07 5.90207e-07 3.91875e-20 -3.80363e-07 2.92294e-21 1.02805e-10)
(4.28548e-07 5.36904e-07 -4.65428e-20 -4.28587e-07 -4.67531e-21 3.8318e-11)
(4.69567e-07 4.75592e-07 -1.05124e-20 -4.69849e-07 -2.06782e-23 2.81963e-10)
(5.0333e-07 4.04065e-07 2.2706e-20 -5.02977e-07 1.9381e-21 -3.52884e-10)
(5.23328e-07 3.29878e-07 4.71438e-20 -5.24477e-07 5.28744e-21 1.14914e-09)
(5.38489e-07 2.36567e-07 -1.78968e-20 -5.34575e-07 5.18574e-23 -3.9143e-09)
(2.83887e-07 5.74976e-07 3.84372e-20 -2.83942e-07 5.35189e-21 5.54185e-11)
(3.30707e-07 5.37043e-07 -7.39636e-20 -3.30794e-07 -8.17979e-21 8.69493e-11)
(3.73449e-07 4.9195e-07 -6.34829e-21 -3.73477e-07 -5.59948e-22 2.73496e-11)
(4.10322e-07 4.39983e-07 9.74386e-20 -4.10568e-07 9.57588e-21 2.45902e-10)
(4.41572e-07 3.79075e-07 -9.67371e-20 -4.41231e-07 -9.88875e-21 -3.41038e-10)
(4.61329e-07 3.15583e-07 4.61222e-20 -4.62395e-07 4.57831e-21 1.06622e-09)
(4.78263e-07 2.34897e-07 5.72349e-20 -4.74574e-07 4.7794e-21 -3.68958e-09)
(2.4624e-07 5.20573e-07 6.23624e-20 -2.46284e-07 6.7837e-21 4.36774e-11)
(2.87281e-07 4.88497e-07 5.7276e-22 -2.87352e-07 6.91288e-22 7.08958e-11)
(3.25048e-07 4.50364e-07 7.47898e-21 -3.25064e-07 1.06065e-21 1.62878e-11)
(3.58068e-07 4.06361e-07 -1.14542e-19 -3.58285e-07 -1.25555e-20 2.167e-10)
(3.86793e-07 3.5455e-07 -3.4287e-21 -3.86466e-07 -3.85755e-22 -3.26639e-10)
(4.05913e-07 3.00299e-07 8.05978e-20 -4.0691e-07 8.65972e-21 9.96695e-10)
(4.2382e-07 2.3072e-07 -1.59528e-19 -4.20362e-07 -1.66948e-20 -3.4589e-09)
(2.13323e-07 4.71366e-07 1.55402e-20 -2.13358e-07 1.37779e-21 3.5053e-11)
(2.49259e-07 4.44247e-07 -2.10353e-20 -2.49322e-07 -1.95474e-21 6.27908e-11)
(2.82583e-07 4.12006e-07 -1.1794e-20 -2.82591e-07 -1.50929e-21 7.61773e-12)
(3.12052e-07 3.74773e-07 3.17794e-20 -3.12251e-07 4.55534e-21 1.98856e-10)
(3.38302e-07 3.30751e-07 -5.70848e-20 -3.3799e-07 -6.10929e-21 -3.11506e-10)
(3.56499e-07 2.84473e-07 6.29346e-20 -3.57423e-07 6.30526e-21 9.23946e-10)
(3.74761e-07 2.24608e-07 -2.78222e-20 -3.71526e-07 -2.06513e-21 -3.23434e-09)
(1.84559e-07 4.26862e-07 8.47464e-21 -1.84584e-07 5.13892e-22 2.55817e-11)
(2.15994e-07 4.03946e-07 4.54365e-20 -2.16046e-07 5.23693e-21 5.20218e-11)
(2.45352e-07 3.76704e-07 -4.1328e-21 -2.45349e-07 -2.55397e-22 -2.87871e-12)
(2.71574e-07 3.45227e-07 2.68461e-20 -2.71749e-07 1.92212e-21 1.75127e-10)
(2.95437e-07 3.07855e-07 -7.7401e-21 -2.95137e-07 -9.95383e-22 -3.00095e-10)
(3.12534e-07 2.68427e-07 6.27372e-20 -3.13392e-07 6.58904e-21 8.58181e-10)
(3.30687e-07 2.17035e-07 -6.83833e-20 -3.27674e-07 -6.87368e-21 -3.01312e-09)
(1.5946e-07 3.8651e-07 -2.97056e-20 -1.59482e-07 -3.76017e-21 2.14776e-11)
(1.86938e-07 3.67167e-07 1.68979e-20 -1.86983e-07 1.62926e-21 4.47654e-11)
(2.12751e-07 3.4418e-07 2.15699e-20 -2.12747e-07 2.40444e-21 -3.58725e-12)
(2.36031e-07 3.17598e-07 -1.07559e-19 -2.36189e-07 -1.17014e-20 1.57795e-10)
(2.5761e-07 2.85926e-07 -7.55417e-20 -2.57331e-07 -8.43535e-21 -2.795e-10)
(2.73502e-07 2.52394e-07 5.07849e-20 -2.74296e-07 4.92381e-21 7.94036e-10)
(2.91198e-07 2.08389e-07 -6.42424e-21 -2.88402e-07 -5.55085e-22 -2.79626e-09)
(1.12351e-07 3.63235e-07 3.16437e-21 -1.1237e-07 6.54676e-22 1.9201e-11)
(1.37601e-07 3.49769e-07 -3.57489e-20 -1.37615e-07 -3.63892e-21 1.45758e-11)
(1.61598e-07 3.33467e-07 2.47764e-20 -1.61632e-07 2.39424e-21 3.39278e-11)
(1.8426e-07 3.14104e-07 -3.81527e-20 -1.84249e-07 -4.65413e-21 -1.05617e-11)
(2.04866e-07 2.91703e-07 2.67479e-21 -2.05004e-07 7.64176e-22 1.37811e-10)
(2.24297e-07 2.64916e-07 -1.46844e-20 -2.24029e-07 -8.44882e-22 -2.67771e-10)
(2.38926e-07 2.36463e-07 9.63158e-21 -2.39658e-07 5.39525e-22 7.32145e-10)
(2.55914e-07 1.98902e-07 -3.22666e-20 -2.53327e-07 -2.963e-21 -2.58687e-09)
(9.66463e-08 3.27618e-07 2.18006e-20 -9.66687e-08 2.54544e-21 2.23668e-11)
(1.18631e-07 3.16242e-07 5.87655e-20 -1.18649e-07 6.96066e-21 1.76228e-11)
(1.39571e-07 3.02502e-07 -5.06045e-20 -1.39606e-07 -5.7202e-21 3.57836e-11)
(1.5944e-07 2.86199e-07 -5.45605e-20 -1.59433e-07 -5.62506e-21 -7.15747e-12)
(1.77632e-07 2.6734e-07 -1.9306e-20 -1.77761e-07 -2.53929e-21 1.28798e-10)
(1.95052e-07 2.44725e-07 5.75204e-20 -1.94806e-07 6.47041e-21 -2.45529e-10)
(2.08403e-07 2.20641e-07 -4.38666e-20 -2.09081e-07 -5.02305e-21 6.77346e-10)
(2.2449e-07 1.88703e-07 7.80547e-20 -2.22111e-07 8.57315e-21 -2.37899e-09)
(8.29665e-08 2.9541e-07 1.93663e-20 -8.29738e-08 2.38728e-21 7.33715e-12)
(1.02118e-07 2.85765e-07 -2.69751e-20 -1.02121e-07 -3.47168e-21 2.77628e-12)
(1.2039e-07 2.74151e-07 -3.21208e-21 -1.2041e-07 -2.46455e-22 1.91823e-11)
(1.37802e-07 2.60395e-07 6.67251e-20 -1.37782e-07 8.08796e-21 -1.98709e-11)
(1.53844e-07 2.44496e-07 -3.95468e-20 -1.53949e-07 -4.89704e-21 1.04396e-10)
(1.6941e-07 2.25398e-07 -1.35718e-20 -1.69174e-07 -1.28563e-21 -2.35108e-10)
(1.81532e-07 2.05012e-07 -4.19515e-20 -1.82141e-07 -4.19236e-21 6.09527e-10)
(1.96582e-07 1.77917e-07 8.68174e-21 -1.94398e-07 5.6777e-22 -2.1837e-09)
(7.10426e-08 2.66497e-07 3.63481e-20 -7.10706e-08 3.97647e-21 2.80224e-11)
(8.7732e-08 2.5827e-07 -1.84094e-20 -8.77534e-08 -1.96997e-21 2.14324e-11)
(1.0369e-07 2.48397e-07 9.90681e-21 -1.03722e-07 9.6941e-22 3.20493e-11)
(1.18945e-07 2.36738e-07 4.7438e-20 -1.18943e-07 5.51623e-21 -1.35241e-12)
(1.33081e-07 2.23286e-07 -1.53008e-19 -1.3319e-07 -1.71073e-20 1.08614e-10)
(1.46965e-07 2.07114e-07 1.0879e-19 -1.46762e-07 1.18202e-20 -2.03831e-10)
(1.57927e-07 1.89823e-07 4.35821e-20 -1.58494e-07 5.054e-21 5.67338e-10)
(1.71878e-07 1.6686e-07 1.00786e-20 -1.69912e-07 8.69546e-22 -1.96586e-09)
(6.04814e-08 2.40565e-07 -4.09926e-20 -6.046e-08 -5.0969e-21 -2.14417e-11)
(7.50106e-08 2.33507e-07 3.26128e-21 -7.49971e-08 4.53643e-22 -1.35059e-11)
(8.89478e-08 2.25063e-07 -1.79832e-20 -8.8946e-08 -1.94406e-21 -1.72864e-12)
(1.02331e-07 2.15121e-07 4.14916e-20 -1.02295e-07 4.49097e-21 -3.59935e-11)
(1.14777e-07 2.03676e-07 2.77702e-20 -1.14849e-07 3.73332e-21 7.2074e-11)
(1.27149e-07 1.89905e-07 -1.81354e-20 -1.26933e-07 -2.03023e-21 -2.15293e-10)
(1.37041e-07 1.75155e-07 -1.99828e-20 -1.37521e-07 -2.49203e-21 4.79977e-10)
(1.49884e-07 1.55618e-07 -3.2681e-20 -1.48071e-07 -3.47497e-21 -1.81286e-09)
(5.13393e-08 2.18264e-07 -2.5642e-20 -5.13562e-08 -2.93186e-21 1.69092e-11)
(6.40141e-08 2.12236e-07 2.95508e-21 -6.40308e-08 4.58776e-22 1.67337e-11)
(7.62003e-08 2.05033e-07 6.23712e-20 -7.62226e-08 6.96675e-21 2.22946e-11)
(8.79659e-08 1.96553e-07 -3.336e-22 -8.79425e-08 3.17147e-23 -2.33935e-11)
(9.89603e-08 1.86795e-07 -4.77447e-20 -9.9022e-08 -5.59565e-21 6.16617e-11)
(1.09969e-07 1.75025e-07 9.78847e-20 -1.09773e-07 1.11582e-20 -1.96199e-10)
(1.1891e-07 1.62369e-07 -1.85827e-20 -1.19318e-07 -2.26535e-21 4.08013e-10)
(1.30683e-07 1.45623e-07 6.12567e-20 -1.29038e-07 7.05857e-21 -1.64571e-09)
(4.4842e-08 2.00253e-07 -4.94785e-20 -4.49347e-08 -5.66605e-21 9.26682e-11)
(5.60564e-08 1.94974e-07 5.32391e-20 -5.6175e-08 6.20886e-21 1.18641e-10)
(6.6859e-08 1.88692e-07 -8.76462e-20 -6.70013e-08 -1.04816e-20 1.42377e-10)
(7.72888e-08 1.81329e-07 2.25596e-20 -7.74157e-08 2.63285e-21 1.26894e-10)
(8.70648e-08 1.72855e-07 2.84567e-20 -8.72898e-08 3.34527e-21 2.25037e-10)
(9.6922e-08 1.62597e-07 2.50581e-20 -9.69376e-08 2.18161e-21 1.55684e-11)
(1.0495e-07 1.5156e-07 -7.89226e-20 -1.05574e-07 -8.36429e-21 6.23774e-10)
(1.15907e-07 1.37173e-07 4.14097e-20 -1.14706e-07 4.04632e-21 -1.20121e-09)
(2.90588e-08 1.88565e-07 1.01175e-20 -2.88031e-08 1.25083e-21 -2.55715e-10)
(3.92875e-08 1.8476e-07 2.79662e-20 -3.91544e-08 3.52735e-21 -1.33108e-10)
(4.93154e-08 1.79928e-07 -1.10508e-20 -4.91923e-08 -1.25861e-21 -1.23082e-10)
(5.90074e-08 1.74252e-07 -1.72572e-20 -5.88609e-08 -1.84385e-21 -1.46484e-10)
(6.83593e-08 1.6769e-07 4.62841e-20 -6.81514e-08 5.22117e-21 -2.07924e-10)
(7.70985e-08 1.60195e-07 -2.82487e-20 -7.69443e-08 -3.2489e-21 -1.54242e-10)
(8.59527e-08 1.51168e-07 -9.34905e-20 -8.55646e-08 -1.06924e-20 -3.88113e-10)
(9.31564e-08 1.41405e-07 1.08635e-19 -9.32634e-08 1.25953e-20 1.07032e-10)
(1.03222e-07 1.28889e-07 -5.95544e-20 -1.01548e-07 -6.96203e-21 -1.67359e-09)
(2.53184e-08 1.74414e-07 2.84437e-21 -2.52944e-08 2.98677e-22 -2.39891e-11)
(3.4457e-08 1.70909e-07 -8.4696e-21 -3.46977e-08 -1.37802e-21 2.407e-10)
(4.34959e-08 1.66438e-07 6.16746e-20 -4.38532e-08 7.19946e-21 3.57285e-10)
(5.23416e-08 1.61175e-07 -3.40363e-20 -5.27145e-08 -3.78682e-21 3.72869e-10)
(6.0871e-08 1.55121e-07 -2.39316e-20 -6.12207e-08 -3.02902e-21 3.49708e-10)
(6.8804e-08 1.48243e-07 -1.11704e-20 -6.92444e-08 -1.18318e-21 4.40432e-10)
(7.67828e-08 1.40063e-07 7.94028e-20 -7.70807e-08 9.3097e-21 2.97911e-10)
(8.32143e-08 1.31334e-07 -2.72368e-20 -8.40883e-08 -2.69101e-21 8.73983e-10)
(9.22991e-08 1.20673e-07 -5.31353e-20 -9.17804e-08 -6.44306e-21 -5.18658e-10)
(2.07669e-08 1.59718e-07 -7.57958e-22 -1.98736e-08 -7.85728e-23 -8.93253e-10)
(2.85587e-08 1.56561e-07 -5.61205e-20 -2.78781e-08 -6.78309e-21 -6.80612e-10)
(3.63517e-08 1.52588e-07 -4.81689e-20 -3.57224e-08 -5.65352e-21 -6.2925e-10)
(4.41039e-08 1.47926e-07 1.71117e-20 -4.33915e-08 2.13482e-21 -7.12434e-10)
(5.1617e-08 1.42591e-07 -1.31331e-20 -5.08017e-08 -1.65806e-21 -8.15342e-10)
(5.86423e-08 1.36533e-07 3.22367e-20 -5.78501e-08 4.07479e-21 -7.92222e-10)
(6.58412e-08 1.29258e-07 -6.44776e-20 -6.48271e-08 -8.36811e-21 -1.01414e-09)
(7.18386e-08 1.21195e-07 2.0051e-19 -7.1104e-08 2.36028e-20 -7.3455e-10)
(8.01821e-08 1.11084e-07 -9.98923e-20 -7.78479e-08 -1.15156e-20 -2.33419e-09)
(1.8818e-08 1.47471e-07 -1.13501e-21 -1.96228e-08 -2.58049e-23 8.04799e-10)
(2.58957e-08 1.44547e-07 -5.22704e-20 -2.71661e-08 -6.07937e-21 1.27041e-09)
(3.30325e-08 1.40839e-07 1.10166e-19 -3.45484e-08 1.30267e-20 1.51587e-09)
(4.0187e-08 1.36442e-07 6.71208e-21 -4.17462e-08 8.14096e-22 1.55921e-09)
(4.70576e-08 1.314e-07 -6.3175e-20 -4.86193e-08 -7.05402e-21 1.56174e-09)
(5.33795e-08 1.25735e-07 7.35976e-20 -5.50635e-08 8.31138e-21 1.68403e-09)
(5.95926e-08 1.19179e-07 -1.40689e-19 -6.13155e-08 -1.63989e-20 1.72298e-09)
(6.45386e-08 1.12401e-07 1.29208e-19 -6.70085e-08 1.43805e-20 2.46996e-09)
(7.17828e-08 1.0496e-07 -1.52421e-19 -7.35694e-08 -1.69641e-20 1.78655e-09)