/*--------------------------------*- C++ -*----------------------------------*\
| =========                 |                                                 |
| \\      /  F ield         | OpenFOAM: The Open Source CFD Toolbox           |
|  \\    /   O peration     | Version:  2306                                  |
|   \\  /    A nd           | Website:  www.openfoam.com                      |
|    \\/     M anipulation  |                                                 |
\*---------------------------------------------------------------------------*/
FoamFile
{
    version     2.0;
    format      ascii;
    arch        "LSB;label=32;scalar=64";
    class       volScalarField;
    location    "375";
    object      turbulenceProperties:nuEff;
}
// * * * * * * * * * * * * * * * * * * * * * * * * * * * * * * * * * * * * * //

dimensions      [0 2 -1 0 0 0 0];

internalField   nonuniform List<scalar> 
1340
(
0.0869212
0.0784875
0.0690299
0.0538327
0.153855
0.148566
0.139908
0.147231
0.206351
0.20761
0.201654
0.212165
0.215389
0.231984
0.239232
0.255762
0.175089
0.21722
0.248103
0.278442
0.0932869
0.160443
0.22404
0.278413
0.0215056
0.0783292
0.166248
0.252405
0.000863357
0.0171271
0.0904185
0.200178
0.000199643
0.00465373
0.0306724
0.132982
1e-05
1.00335e-05
0.000492129
0.072497
1e-05
1e-05
0.000819107
0.0333571
1.00097e-05
1e-05
0.000293339
0.0131424
1.22995e-05
1e-05
8.34758e-05
0.00435977
1.99057e-05
1e-05
1.13785e-05
0.00112364
1.92734e-05
1.26838e-05
1.00004e-05
8.22598e-05
1.64255e-05
1.94518e-05
1e-05
1.07298e-05
1.52618e-05
2.2108e-05
1.00003e-05
1e-05
1.53058e-05
1.94646e-05
1.15951e-05
1.00005e-05
1.57409e-05
1.69253e-05
1.68293e-05
1.00878e-05
1.60757e-05
1.58743e-05
1.84926e-05
1.16962e-05
1.61947e-05
1.57312e-05
1.75781e-05
1.46022e-05
1.61856e-05
1.58911e-05
1.66172e-05
1.61537e-05
1.61462e-05
1.6044e-05
1.61716e-05
1.64177e-05
1.61195e-05
1.61138e-05
1.60618e-05
1.62862e-05
1.61095e-05
1.61273e-05
1.6074e-05
1.61653e-05
1.61083e-05
1.61216e-05
1.61005e-05
1.61178e-05
1.61092e-05
1.61152e-05
1.61133e-05
1.61109e-05
1.61098e-05
1.61121e-05
1.61154e-05
1.61144e-05
1.61098e-05
1.61113e-05
1.6114e-05
1.61167e-05
1.61096e-05
1.61111e-05
1.61125e-05
1.61168e-05
1.61093e-05
1.6111e-05
1.61118e-05
1.6116e-05
1.61092e-05
1.61108e-05
1.61114e-05
1.61152e-05
1.61091e-05
1.61106e-05
1.61112e-05
1.61146e-05
1.61083e-05
1.61091e-05
1.61105e-05
1.6111e-05
1.61142e-05
1.61084e-05
1.61091e-05
1.61104e-05
1.61108e-05
1.61139e-05
1.61085e-05
1.61091e-05
1.61103e-05
1.61108e-05
1.61136e-05
1.61086e-05
1.61092e-05
1.61103e-05
1.61107e-05
1.61133e-05
1.61087e-05
1.61093e-05
1.61104e-05
1.61107e-05
1.61132e-05
1.61089e-05
1.61094e-05
1.61105e-05
1.61108e-05
1.6113e-05
1.61091e-05
1.61096e-05
1.61106e-05
1.61108e-05
1.6113e-05
1.61093e-05
1.61098e-05
1.61107e-05
1.61109e-05
1.61129e-05
1.61095e-05
1.611e-05
1.61108e-05
1.61111e-05
1.6113e-05
1.61097e-05
1.61102e-05
1.6111e-05
1.61112e-05
1.6113e-05
1.61099e-05
1.61103e-05
1.61111e-05
1.61114e-05
1.61131e-05
1.611e-05
1.61105e-05
1.61113e-05
1.61116e-05
1.61132e-05
1.61097e-05
1.61102e-05
1.61107e-05
1.61114e-05
1.61118e-05
1.61133e-05
1.61098e-05
1.61103e-05
1.61108e-05
1.61116e-05
1.61119e-05
1.61134e-05
1.61099e-05
1.61104e-05
1.61109e-05
1.61117e-05
1.6112e-05
1.61135e-05
1.61099e-05
1.61105e-05
1.6111e-05
1.61117e-05
1.61121e-05
1.61135e-05
1.61099e-05
1.61105e-05
1.6111e-05
1.61118e-05
1.61122e-05
1.61136e-05
1.61098e-05
1.61104e-05
1.6111e-05
1.61117e-05
1.61122e-05
1.61135e-05
1.61097e-05
1.61103e-05
1.61109e-05
1.61116e-05
1.61122e-05
1.61135e-05
1.61094e-05
1.611e-05
1.61107e-05
1.61115e-05
1.6112e-05
1.61133e-05
1.61091e-05
1.61097e-05
1.61104e-05
1.61112e-05
1.61118e-05
1.61131e-05
1.6108e-05
1.61086e-05
1.61093e-05
1.611e-05
1.61108e-05
1.61115e-05
1.61127e-05
1.61075e-05
1.61081e-05
1.61088e-05
1.61095e-05
1.61103e-05
1.61111e-05
1.61123e-05
1.61068e-05
1.61074e-05
1.61081e-05
1.61089e-05
1.61097e-05
1.61105e-05
1.61118e-05
1.61059e-05
1.61066e-05
1.61073e-05
1.61081e-05
1.6109e-05
1.61098e-05
1.61111e-05
1.6105e-05
1.61057e-05
1.61065e-05
1.61072e-05
1.61082e-05
1.6109e-05
1.61103e-05
1.61039e-05
1.61047e-05
1.61054e-05
1.61062e-05
1.61072e-05
1.61081e-05
1.61093e-05
1.61026e-05
1.61034e-05
1.61042e-05
1.6105e-05
1.6106e-05
1.6107e-05
1.61083e-05
1.61001e-05
1.61009e-05
1.61017e-05
1.61026e-05
1.61035e-05
1.61045e-05
1.61056e-05
1.61069e-05
1.60979e-05
1.60987e-05
1.60996e-05
1.61005e-05
1.61015e-05
1.61026e-05
1.61038e-05
1.61052e-05
1.60953e-05
1.60962e-05
1.6097e-05
1.6098e-05
1.6099e-05
1.61002e-05
1.61015e-05
1.6103e-05
1.60927e-05
1.60935e-05
1.60943e-05
1.60953e-05
1.60963e-05
1.60974e-05
1.60987e-05
1.61003e-05
1.609e-05
1.60908e-05
1.60916e-05
1.60924e-05
1.60934e-05
1.60945e-05
1.60957e-05
1.60972e-05
1.60874e-05
1.60881e-05
1.60889e-05
1.60897e-05
1.60906e-05
1.60917e-05
1.60928e-05
1.60942e-05
1.60849e-05
1.60857e-05
1.60864e-05
1.60873e-05
1.60882e-05
1.60893e-05
1.60904e-05
1.60917e-05
1.60817e-05
1.60823e-05
1.60831e-05
1.60839e-05
1.60847e-05
1.60857e-05
1.60867e-05
1.60879e-05
1.60892e-05
1.6079e-05
1.60796e-05
1.60803e-05
1.6081e-05
1.60818e-05
1.60827e-05
1.60837e-05
1.60848e-05
1.60862e-05
1.60763e-05
1.60768e-05
1.60774e-05
1.6078e-05
1.60787e-05
1.60794e-05
1.60803e-05
1.60814e-05
1.60826e-05
1.60735e-05
1.6074e-05
1.60745e-05
1.6075e-05
1.60756e-05
1.60762e-05
1.6077e-05
1.60779e-05
1.6079e-05
1.60712e-05
1.60714e-05
1.60717e-05
1.6072e-05
1.60724e-05
1.60728e-05
1.60734e-05
1.60741e-05
1.6075e-05
1.60714e-05
1.60713e-05
1.60712e-05
1.60711e-05
1.60711e-05
1.60711e-05
1.60713e-05
1.60715e-05
1.6072e-05
1.60742e-05
1.6074e-05
1.60739e-05
1.60737e-05
1.60735e-05
1.60732e-05
1.6073e-05
1.60728e-05
1.60727e-05
1.60775e-05
1.60774e-05
1.60772e-05
1.60769e-05
1.60766e-05
1.60763e-05
1.60759e-05
1.60755e-05
1.60749e-05
1.60817e-05
1.60818e-05
1.60818e-05
1.60819e-05
1.6082e-05
1.6082e-05
1.6082e-05
1.6082e-05
1.60819e-05
1.60849e-05
1.60849e-05
1.60849e-05
1.60847e-05
1.60846e-05
1.60843e-05
1.60841e-05
1.60838e-05
1.60837e-05
1.60836e-05
1.60905e-05
1.60914e-05
1.60924e-05
1.60935e-05
1.60945e-05
1.60956e-05
1.60968e-05
1.60979e-05
1.60994e-05
1.61007e-05
1.61e-05
1.61002e-05
1.61003e-05
1.61004e-05
1.61004e-05
1.61004e-05
1.61004e-05
1.61007e-05
1.61012e-05
1.61016e-05
0.17299
0.215442
0.255627
0.300132
0.326476
0.329468
0.307403
0.258913
0.186714
0.105764
0.0439455
0.0155399
0.00483968
0.00113054
4.76792e-05
1.02006e-05
1e-05
1e-05
1.00093e-05
1.11316e-05
1.41792e-05
1.6098e-05
1.64871e-05
1.63437e-05
1.6191e-05
1.6126e-05
1.61137e-05
1.6117e-05
1.61201e-05
1.61204e-05
1.61195e-05
1.61184e-05
1.61175e-05
1.61168e-05
1.61162e-05
1.61157e-05
1.61153e-05
1.61149e-05
1.61147e-05
1.61144e-05
1.61142e-05
1.61141e-05
1.6114e-05
1.6114e-05
1.61139e-05
1.61139e-05
1.61139e-05
1.61139e-05
1.61139e-05
1.61139e-05
1.61138e-05
1.61138e-05
1.61137e-05
1.61135e-05
1.61132e-05
1.61128e-05
1.61123e-05
1.61117e-05
1.61109e-05
1.611e-05
1.61089e-05
1.61076e-05
1.6106e-05
1.61038e-05
1.61011e-05
1.6098e-05
1.60949e-05
1.60924e-05
1.60899e-05
1.60868e-05
1.60832e-05
1.60795e-05
1.60755e-05
1.60721e-05
1.60726e-05
1.60748e-05
1.60818e-05
1.60835e-05
1.61016e-05
1.61018e-05
0.214034
0.258784
0.288689
0.317074
0.345826
0.357809
0.345463
0.30598
0.239541
0.153087
0.0690077
0.020893
0.00567263
0.0014144
0.000100299
1.1149e-05
1e-05
1e-05
1.00022e-05
1.0837e-05
1.38932e-05
1.60273e-05
1.65127e-05
1.6376e-05
1.62073e-05
1.6131e-05
1.61148e-05
1.61177e-05
1.6121e-05
1.61215e-05
1.61204e-05
1.61191e-05
1.61181e-05
1.61173e-05
1.61168e-05
1.61163e-05
1.61158e-05
1.61154e-05
1.61151e-05
1.61149e-05
1.61147e-05
1.61145e-05
1.61144e-05
1.61144e-05
1.61143e-05
1.61143e-05
1.61143e-05
1.61143e-05
1.61143e-05
1.61142e-05
1.61142e-05
1.61142e-05
1.61141e-05
1.61139e-05
1.61137e-05
1.61133e-05
1.61128e-05
1.61122e-05
1.61114e-05
1.61105e-05
1.61094e-05
1.61082e-05
1.61065e-05
1.61043e-05
1.61016e-05
1.60985e-05
1.60954e-05
1.60928e-05
1.60903e-05
1.60873e-05
1.60836e-05
1.60799e-05
1.60757e-05
1.60723e-05
1.60725e-05
1.60747e-05
1.60817e-05
1.60834e-05
1.61021e-05
0.217862
0.26922
0.30386
0.326839
0.34797
0.366449
0.368613
0.346373
0.29624
0.21917
0.124929
0.0439618
0.00723643
0.000822297
0.000190259
1e-05
1e-05
1e-05
1e-05
1.04201e-05
1.32884e-05
1.58748e-05
1.65541e-05
1.64251e-05
1.62316e-05
1.61382e-05
1.61151e-05
1.61169e-05
1.61209e-05
1.61219e-05
1.6121e-05
1.61197e-05
1.61186e-05
1.61179e-05
1.61173e-05
1.61168e-05
1.61164e-05
1.6116e-05
1.61157e-05
1.61154e-05
1.61152e-05
1.6115e-05
1.61149e-05
1.61149e-05
1.61148e-05
1.61148e-05
1.61148e-05
1.61148e-05
1.61148e-05
1.61147e-05
1.61147e-05
1.61147e-05
1.61146e-05
1.61145e-05
1.61142e-05
1.61139e-05
1.61134e-05
1.61127e-05
1.6112e-05
1.61111e-05
1.611e-05
1.61087e-05
1.61071e-05
1.61049e-05
1.61022e-05
1.60991e-05
1.60959e-05
1.60933e-05
1.60908e-05
1.60877e-05
1.6084e-05
1.60802e-05
1.6076e-05
1.60724e-05
1.60725e-05
1.60747e-05
1.60816e-05
1.60834e-05
0.202712
0.258585
0.300472
0.328303
0.346594
0.362779
0.374882
0.371443
0.344355
0.289485
0.207513
0.110668
0.0326642
0.00073938
0.000166775
1e-05
1e-05
1e-05
1.00003e-05
1.01508e-05
1.23345e-05
1.53621e-05
1.65367e-05
1.65163e-05
1.62805e-05
1.61503e-05
1.61153e-05
1.61155e-05
1.61204e-05
1.61223e-05
1.61217e-05
1.61204e-05
1.61193e-05
1.61185e-05
1.6118e-05
1.61175e-05
1.6117e-05
1.61166e-05
1.61163e-05
1.6116e-05
1.61158e-05
1.61156e-05
1.61155e-05
1.61154e-05
1.61154e-05
1.61154e-05
1.61154e-05
1.61153e-05
1.61153e-05
1.61153e-05
1.61153e-05
1.61153e-05
1.61152e-05
1.61151e-05
1.61148e-05
1.61144e-05
1.6114e-05
1.61133e-05
1.61126e-05
1.61117e-05
1.61106e-05
1.61093e-05
1.61077e-05
1.61055e-05
1.61028e-05
1.60996e-05
1.60965e-05
1.60938e-05
1.60913e-05
1.60881e-05
1.60844e-05
1.60805e-05
1.60764e-05
1.60725e-05
1.60724e-05
1.60747e-05
1.60814e-05
0.172762
0.232764
0.281721
0.317784
0.341599
0.357002
0.369949
0.378385
0.372196
0.343297
0.286913
0.203351
0.106258
0.0282055
0.007251
1e-05
1e-05
1e-05
1e-05
1e-05
1.09922e-05
1.47819e-05
1.65167e-05
1.65932e-05
1.63594e-05
1.61839e-05
1.61174e-05
1.61122e-05
1.61194e-05
1.61226e-05
1.61225e-05
1.61213e-05
1.61202e-05
1.61193e-05
1.61187e-05
1.61182e-05
1.61177e-05
1.61173e-05
1.6117e-05
1.61167e-05
1.61165e-05
1.61163e-05
1.61161e-05
1.61161e-05
1.6116e-05
1.6116e-05
1.6116e-05
1.6116e-05
1.61159e-05
1.61159e-05
1.61159e-05
1.61159e-05
1.61158e-05
1.61157e-05
1.61154e-05
1.61151e-05
1.61146e-05
1.6114e-05
1.61132e-05
1.61123e-05
1.61112e-05
1.611e-05
1.61084e-05
1.61062e-05
1.61035e-05
1.61002e-05
1.6097e-05
1.60943e-05
1.60918e-05
1.60886e-05
1.60849e-05
1.60809e-05
1.60767e-05
1.60727e-05
1.60724e-05
1.60746e-05
0.130259
0.193739
0.249376
0.294219
0.327144
0.348875
0.362669
0.373481
0.379876
0.372619
0.343582
0.287415
0.204194
0.106496
0.0298284
0.00774819
1.00382e-05
1e-05
1e-05
1e-05
1e-05
1.19202e-05
1.64519e-05
1.70046e-05
1.64553e-05
1.62175e-05
1.61362e-05
1.61113e-05
1.61151e-05
1.61224e-05
1.61238e-05
1.61224e-05
1.6121e-05
1.61202e-05
1.61195e-05
1.6119e-05
1.61185e-05
1.61181e-05
1.61177e-05
1.61174e-05
1.61172e-05
1.6117e-05
1.61168e-05
1.61167e-05
1.61167e-05
1.61166e-05
1.61166e-05
1.61166e-05
1.61166e-05
1.61166e-05
1.61165e-05
1.61165e-05
1.61165e-05
1.61163e-05
1.61161e-05
1.61158e-05
1.61153e-05
1.61146e-05
1.61139e-05
1.6113e-05
1.61119e-05
1.61107e-05
1.6109e-05
1.61069e-05
1.61041e-05
1.61009e-05
1.60976e-05
1.60949e-05
1.60923e-05
1.60891e-05
1.60854e-05
1.60813e-05
1.60771e-05
1.60729e-05
0.078928
0.142636
0.203936
0.257141
0.300015
0.331643
0.35262
0.365681
0.375053
0.380386
0.373108
0.344995
0.290232
0.20812
0.111374
0.0349502
0.000444425
0.000127406
1e-05
1e-05
1e-05
1.00092e-05
1.24293e-05
1.75905e-05
1.72659e-05
1.62955e-05
1.60995e-05
1.61172e-05
1.61185e-05
1.61179e-05
1.61224e-05
1.61239e-05
1.61225e-05
1.61211e-05
1.61204e-05
1.61198e-05
1.61193e-05
1.61189e-05
1.61185e-05
1.61182e-05
1.61179e-05
1.61177e-05
1.61175e-05
1.61174e-05
1.61174e-05
1.61173e-05
1.61173e-05
1.61173e-05
1.61173e-05
1.61172e-05
1.61172e-05
1.61172e-05
1.61172e-05
1.6117e-05
1.61168e-05
1.61165e-05
1.6116e-05
1.61154e-05
1.61146e-05
1.61137e-05
1.61126e-05
1.61114e-05
1.61098e-05
1.61076e-05
1.61049e-05
1.61016e-05
1.60983e-05
1.60955e-05
1.60929e-05
1.60897e-05
1.60859e-05
1.60817e-05
0.030027
0.0829044
0.145844
0.206105
0.258545
0.301064
0.332739
0.353955
0.36695
0.375375
0.380286
0.373684
0.34723
0.294623
0.21446
0.120042
0.0403325
0.00137748
0.000420197
1e-05
1e-05
1e-05
1.00076e-05
1.1922e-05
1.79969e-05
1.75935e-05
1.62089e-05
1.59894e-05
1.61057e-05
1.61383e-05
1.61256e-05
1.61216e-05
1.61228e-05
1.61225e-05
1.61214e-05
1.61207e-05
1.61202e-05
1.61198e-05
1.61193e-05
1.6119e-05
1.61187e-05
1.61185e-05
1.61183e-05
1.61182e-05
1.61181e-05
1.6118e-05
1.6118e-05
1.6118e-05
1.6118e-05
1.6118e-05
1.61179e-05
1.61179e-05
1.61179e-05
1.61178e-05
1.61175e-05
1.61172e-05
1.61167e-05
1.61161e-05
1.61153e-05
1.61144e-05
1.61134e-05
1.61121e-05
1.61105e-05
1.61084e-05
1.61056e-05
1.61023e-05
1.60989e-05
1.60961e-05
1.60935e-05
0.00324005
0.0283406
0.0794525
0.14156
0.201909
0.254927
0.298341
0.331113
0.353365
0.366848
0.374706
0.379605
0.374155
0.349902
0.300023
0.222979
0.129918
0.0473165
0.00389621
0.00110041
1e-05
1e-05
1e-05
1.00034e-05
1.08017e-05
1.75582e-05
1.81089e-05
1.62831e-05
1.58742e-05
1.60498e-05
1.61442e-05
1.61361e-05
1.61232e-05
1.6122e-05
1.61225e-05
1.61219e-05
1.61212e-05
1.61207e-05
1.61202e-05
1.61198e-05
1.61195e-05
1.61193e-05
1.61191e-05
1.61189e-05
1.61188e-05
1.61188e-05
1.61188e-05
1.61187e-05
1.61187e-05
1.61187e-05
1.61187e-05
1.61187e-05
1.61186e-05
1.61185e-05
1.61183e-05
1.6118e-05
1.61175e-05
1.61169e-05
1.61161e-05
1.61152e-05
1.61141e-05
1.61129e-05
1.61113e-05
1.61092e-05
1.61064e-05
1.61031e-05
0.000434478
0.00169737
0.0228524
0.0700587
0.13105
0.192252
0.246918
0.292263
0.327022
0.35103
0.365597
0.373615
0.378591
0.374463
0.35272
0.306136
0.23258
0.140824
0.055844
0.00780684
0.00213011
1e-05
1e-05
1e-05
1.00005e-05
1.00879e-05
1.56931e-05
1.8856e-05
1.67629e-05
1.59047e-05
1.59961e-05
1.613e-05
1.6141e-05
1.61257e-05
1.61219e-05
1.61225e-05
1.61223e-05
1.61217e-05
1.61212e-05
1.61208e-05
1.61204e-05
1.61201e-05
1.61199e-05
1.61198e-05
1.61196e-05
1.61196e-05
1.61195e-05
1.61195e-05
1.61195e-05
1.61195e-05
1.61195e-05
1.61194e-05
1.61194e-05
1.61193e-05
1.61191e-05
1.61188e-05
1.61183e-05
1.61177e-05
1.6117e-05
1.6116e-05
1.6115e-05
1.61137e-05
1e-05
8.13628e-05
0.000356468
0.0164979
0.0571825
0.115639
0.17777
0.234807
0.282948
0.320514
0.34704
0.363477
0.372617
0.377633
0.374759
0.355622
0.312619
0.242557
0.152446
0.0656023
0.0129226
0.00347283
1e-05
1e-05
1e-05
1e-05
1.00012e-05
1.34225e-05
1.82636e-05
1.71848e-05
1.60476e-05
1.59793e-05
1.61142e-05
1.61424e-05
1.61285e-05
1.61229e-05
1.61231e-05
1.61229e-05
1.61222e-05
1.61217e-05
1.61213e-05
1.6121e-05
1.61208e-05
1.61206e-05
1.61205e-05
1.61204e-05
1.61204e-05
1.61203e-05
1.61203e-05
1.61203e-05
1.61203e-05
1.61203e-05
1.61202e-05
1.61201e-05
1.61199e-05
1.61196e-05
1.61192e-05
1e-05
1e-05
1.00004e-05
0.00246738
0.00980451
0.0428276
0.0968509
0.159131
0.218792
0.270392
0.311535
0.341366
0.360481
0.371219
0.376472
0.374893
0.35845
0.319104
0.252656
0.164532
0.0762913
0.0194519
0.00513842
1e-05
1e-05
1e-05
1e-05
1.00091e-05
1.21929e-05
1.77649e-05
1.74401e-05
1.61778e-05
1.59748e-05
1.60989e-05
1.61409e-05
1.61289e-05
1.61225e-05
1.61234e-05
1.61237e-05
1.61231e-05
1.61225e-05
1.6122e-05
1.61217e-05
1.61215e-05
1.61214e-05
1.61213e-05
1.61212e-05
1.61212e-05
1.61212e-05
1.61212e-05
1.00149e-05
1e-05
1e-05
1e-05
0.00120584
0.00469767
0.0288265
0.0763641
0.137277
0.199241
0.254682
0.300033
0.333854
0.356274
0.36908
0.374843
0.37464
0.360952
0.325336
0.262654
0.176799
0.0879023
0.0258889
0.00678236
1.23177e-05
1e-05
1e-05
1e-05
1.00049e-05
1.11827e-05
1.70618e-05
1.76849e-05
1.63118e-05
1.59691e-05
1.60899e-05
1.61491e-05
1.61348e-05
1.61231e-05
)
;

boundaryField
{
    inlet
    {
        type            calculated;
        value           nonuniform List<scalar> 
11
(
1.61e-05
1.61002e-05
1.61003e-05
1.61004e-05
1.61004e-05
1.61004e-05
1.61004e-05
1.61007e-05
1.61012e-05
1.61016e-05
1.61018e-05
)
;
    }
    outlet
    {
        type            calculated;
        value           nonuniform List<scalar> 0();
    }
    walls
    {
        type            calculated;
        value           nonuniform List<scalar> 4(0.00177409 0.00157466 0.00135086 0.000597773);
    }
    frontAndBack
    {
        type            empty;
    }
    procBoundary6to2
    {
        type            processor;
        value           nonuniform List<scalar> 
13
(
0.126635
0.149914
0.151269
0.135194
0.104415
0.0648685
0.0257919
0.00296502
0.00081842
1e-05
1e-05
1.00113e-05
1.34324e-05
)
;
    }
    procBoundary6to3
    {
        type            processor;
        value           uniform 1.57671e-05;
    }
    procBoundary6to5
    {
        type            processor;
        value           nonuniform List<scalar> 
86
(
0.0928019
0.159357
0.203473
0.193262
0.124158
0.0380833
0.00165793
0.000409039
1e-05
1e-05
1.00154e-05
1.38997e-05
1.84759e-05
1.66456e-05
1.56275e-05
1.58114e-05
1.61882e-05
1.6311e-05
1.62445e-05
1.61525e-05
1.61042e-05
1.60945e-05
1.61003e-05
1.61069e-05
1.61099e-05
1.61102e-05
1.61096e-05
1.6109e-05
1.61086e-05
1.61084e-05
1.61083e-05
1.61083e-05
1.61083e-05
1.61083e-05
1.61076e-05
1.61077e-05
1.61079e-05
1.6108e-05
1.61082e-05
1.61084e-05
1.61086e-05
1.61088e-05
1.6109e-05
1.61092e-05
1.61094e-05
1.61096e-05
1.61096e-05
1.61093e-05
1.61094e-05
1.61095e-05
1.61095e-05
1.61094e-05
1.61093e-05
1.61091e-05
1.61089e-05
1.61085e-05
1.61085e-05
1.61075e-05
1.61069e-05
1.61061e-05
1.61053e-05
1.61044e-05
1.61032e-05
1.61019e-05
1.61019e-05
1.60993e-05
1.60971e-05
1.60946e-05
1.6092e-05
1.60893e-05
1.60867e-05
1.60842e-05
1.60842e-05
1.6081e-05
1.60784e-05
1.60758e-05
1.60732e-05
1.6071e-05
1.60715e-05
1.60743e-05
1.60776e-05
1.60816e-05
1.60816e-05
1.60846e-05
1.60898e-05
1.60997e-05
)
;
    }
    procBoundary6to7
    {
        type            processor;
        value           nonuniform List<scalar> 
91
(
1.6102e-05
1.6102e-05
1.61027e-05
1.61027e-05
1.60833e-05
1.60833e-05
1.60813e-05
1.60723e-05
1.60813e-05
1.60746e-05
1.60774e-05
1.60723e-05
1.60731e-05
1.60902e-05
1.60864e-05
1.60774e-05
1.60822e-05
1.60996e-05
1.60967e-05
1.60902e-05
1.60941e-05
1.61121e-05
1.611e-05
1.61073e-05
1.60996e-05
1.61039e-05
1.61186e-05
1.61178e-05
1.61169e-05
1.61158e-05
1.61121e-05
1.61146e-05
1.61211e-05
1.61211e-05
1.61211e-05
1.6121e-05
1.61208e-05
1.61205e-05
1.61186e-05
1.61201e-05
1.61228e-05
1.61235e-05
1.61233e-05
1.61231e-05
1.61228e-05
1.61226e-05
1.61223e-05
1.61222e-05
1.61222e-05
1.61221e-05
1.61221e-05
1.61211e-05
1.61221e-05
1.0001e-05
1e-05
1e-05
1e-05
0.00015376
0.000471389
0.0161413
0.0552421
0.112727
0.176159
0.235587
0.2857
0.324162
0.350509
0.365913
0.372726
0.373865
0.362878
0.331033
0.272256
0.189176
0.100114
0.0323108
0.00115761
0.000365492
1e-05
1e-05
1e-05
1.00018e-05
1.04069e-05
1.61807e-05
1.80197e-05
1.64578e-05
1.59066e-05
1.60329e-05
1.61417e-05
1.61228e-05
1.6142e-05
)
;
    }
}


// ************************************************************************* //
