/*--------------------------------*- C++ -*----------------------------------*\
| =========                 |                                                 |
| \\      /  F ield         | OpenFOAM: The Open Source CFD Toolbox           |
|  \\    /   O peration     | Version:  2306                                  |
|   \\  /    A nd           | Website:  www.openfoam.com                      |
|    \\/     M anipulation  |                                                 |
\*---------------------------------------------------------------------------*/
FoamFile
{
    version     2.0;
    format      ascii;
    arch        "LSB;label=32;scalar=64";
    class       volScalarField;
    location    "375";
    object      turbulenceProperties:L;
}
// * * * * * * * * * * * * * * * * * * * * * * * * * * * * * * * * * * * * * //

dimensions      [0 1 0 0 0 0 0];

internalField   nonuniform List<scalar> 
1340
(
0.0629542
0.063866
0.0650217
0.0833594
0.182082
0.18635
0.187673
0.183767
0.216538
0.233702
0.249406
0.247309
0.222868
0.247531
0.272843
0.281198
0.224486
0.249925
0.280392
0.298343
0.250119
0.257438
0.283164
0.305341
0.221034
0.309888
0.29421
0.30901
0.0338472
0.193076
0.335628
0.316553
0.0239942
0.0937796
0.307617
0.333349
0
0.151472
0.0347524
0.355737
0
0
0.0544159
0.322107
0.24854
0
0.0367497
0.21554
0.0354804
3.917
0.0226755
0.123927
0.024666
2.30084
0.0427248
0.0630015
0.0253416
0.0353874
0.904924
0.0206249
0.0278564
0.0260544
2.03286
0.0495759
0.0296944
0.0252504
1.03811
0.972158
0.0301066
0.0268598
0.0447107
0.783377
0.0300246
0.0292481
0.0301818
0.119969
0.0301503
0.0310084
0.0293666
0.0438591
0.0305896
0.0318433
0.0307853
0.0338791
0.0312269
0.0323221
0.032517
0.0326426
0.0319536
0.0328642
0.0338889
0.033518
0.0327226
0.033574
0.0349256
0.0349323
0.03353
0.0344203
0.0358606
0.0363944
0.0343912
0.0353604
0.0368428
0.0378104
0.0353186
0.0363721
0.037916
0.0392183
0.03632
0.0374548
0.0390801
0.0406592
0.0374038
0.0386164
0.0403328
0.0421578
0.0385733
0.0398625
0.0416709
0.04372
0.0398339
0.0411995
0.0431017
0.0453522
0.0411942
0.0426327
0.0446258
0.0470605
0.0426593
0.0441718
0.0462525
0.0488486
0.0429502
0.0442367
0.0458197
0.0479885
0.0507266
0.0446097
0.0459345
0.047584
0.0498362
0.0527012
0.0463989
0.0477592
0.0494732
0.0518036
0.0547794
0.0483254
0.04972
0.0514948
0.0538981
0.0569705
0.0503973
0.0518247
0.0536562
0.0561267
0.0592828
0.0526244
0.0540819
0.0559654
0.0584961
0.061725
0.0550153
0.0565011
0.0584328
0.0610153
0.0643066
0.0575793
0.0590909
0.0610661
0.0636937
0.0670378
0.0603259
0.0618613
0.063875
0.0665398
0.0699289
0.0632652
0.0648221
0.0668699
0.0695645
0.0729902
0.066407
0.0679828
0.0700609
0.0727771
0.076235
0.0697621
0.0713541
0.0734579
0.0761894
0.0796732
0.0721076
0.0733401
0.0749472
0.0770725
0.0798134
0.0833176
0.0759098
0.0771518
0.0787717
0.0809154
0.08366
0.0871812
0.0799569
0.0812086
0.0828394
0.0849981
0.0877412
0.0912767
0.0842597
0.0855207
0.0871613
0.0893326
0.0920707
0.0956176
0.0888291
0.0900998
0.0917491
0.0939302
0.0966607
0.100216
0.0936757
0.094956
0.096614
0.098804
0.101525
0.105087
0.0988114
0.100102
0.101768
0.103965
0.106675
0.110244
0.104246
0.105548
0.107222
0.109427
0.112125
0.1157
0.109992
0.111306
0.112989
0.115201
0.11789
0.121468
0.115034
0.116061
0.117388
0.119081
0.1213
0.123981
0.127563
0.121419
0.122464
0.123806
0.12551
0.127738
0.130413
0.133999
0.128146
0.129211
0.13057
0.132288
0.134527
0.137199
0.140789
0.135225
0.136312
0.137692
0.139425
0.141678
0.144352
0.147946
0.142664
0.143777
0.14518
0.146934
0.149203
0.151885
0.155484
0.150479
0.15162
0.153049
0.154825
0.157115
0.159809
0.163413
0.158704
0.159871
0.161325
0.163124
0.165434
0.168143
0.17175
0.166429
0.167389
0.16858
0.170055
0.171872
0.174199
0.176923
0.180524
0.175593
0.176581
0.177796
0.179293
0.181126
0.183465
0.186201
0.189781
0.18527
0.186297
0.187548
0.189074
0.190931
0.193286
0.196036
0.199592
0.19542
0.196505
0.19781
0.199384
0.20128
0.203668
0.206444
0.209975
0.20607
0.207238
0.208625
0.210277
0.212246
0.214704
0.217547
0.221097
0.216747
0.217984
0.219444
0.22117
0.223215
0.225764
0.228701
0.232329
0.226563
0.227861
0.229378
0.231157
0.233261
0.235892
0.238917
0.242436
0.234994
0.236169
0.237637
0.239308
0.241215
0.243441
0.246189
0.249392
0.252952
0.244496
0.245801
0.247436
0.249291
0.251387
0.253814
0.256753
0.260096
0.263454
0.255804
0.257344
0.259222
0.261334
0.263695
0.266405
0.269696
0.273628
0.277945
0.266167
0.267746
0.269698
0.271935
0.27447
0.277365
0.280757
0.284369
0.287236
0.283074
0.285199
0.287661
0.290374
0.293359
0.296791
0.301085
0.306751
0.313506
0.289198
0.291074
0.293393
0.29609
0.299121
0.302432
0.305861
0.308499
0.308674
0.321555
0.324533
0.327879
0.331601
0.335802
0.340924
0.348171
0.358868
0.373199
0.300159
0.301625
0.303547
0.305958
0.308625
0.311161
0.312347
0.310243
0.305083
0.340155
0.340419
0.341649
0.343891
0.347076
0.351547
0.357949
0.361798
0.369179
0.258797
0.261813
0.261753
0.261728
0.261883
0.262072
0.26187
0.259422
0.25373
0.250961
0.249875
0.250625
0.249886
0.248987
0.248228
0.247553
0.246607
0.243533
0.238611
0.238876
0.192089
0.20899
0.207517
0.206286
0.205571
0.204754
0.203672
0.201586
0.199813
0.216073
0.162183
0.298117
0.530276
0.365362
0.343904
0.338646
0.334567
0.331645
0.333734
0.34376
0.348497
0.274325
0.147748
0.0679443
0.0206227
0.0832198
0
2.94425
0.297978
0.0540083
0.0375138
0.0353164
0.0361204
0.0376906
0.0393443
0.040922
0.042468
0.0440354
0.0456574
0.0473406
0.0490873
0.0509002
0.0527809
0.0547386
0.0567807
0.0589124
0.0611447
0.0634862
0.0659459
0.0685344
0.0712638
0.0741453
0.0771874
0.0804081
0.0838161
0.0874245
0.0912481
0.0952999
0.099594
0.104144
0.108963
0.114068
0.119471
0.125187
0.13123
0.137615
0.144355
0.151464
0.158957
0.166845
0.175142
0.183874
0.193083
0.202844
0.213167
0.224257
0.235536
0.245505
0.256312
0.266126
0.282327
0.288544
0.3218
0.305677
0.396045
0.297705
0.390314
0.25109
0.247822
0.223099
0.23589
0.293218
0.472181
0.695422
0.480373
0.427486
0.406827
0.395707
0.392664
0.405591
0.453274
0.50826
0.275377
0.113679
0.031734
0.0612983
0
6.56717
0.664892
0.0763076
0.0479932
0.0437887
0.0440368
0.0454028
0.0469118
0.0483362
0.0497211
0.0511334
0.0526077
0.054149
0.0557571
0.0574331
0.0591772
0.0609986
0.0629043
0.0648987
0.0669934
0.0691954
0.0715145
0.0739612
0.0765474
0.0792848
0.0821815
0.0852571
0.0885199
0.0919831
0.095663
0.0995729
0.103727
0.108141
0.112827
0.117803
0.123083
0.128682
0.134615
0.140897
0.147544
0.154568
0.161987
0.169812
0.178059
0.186753
0.195934
0.205677
0.215992
0.227076
0.23843
0.248503
0.259622
0.269232
0.28613
0.291553
0.326842
0.308329
0.404555
0.300503
0.397401
0.254273
0.251494
0.297591
0.334758
0.421737
0.683682
0.838192
0.559555
0.485219
0.454039
0.438764
0.437022
0.457632
0.531265
0.422365
0.123639
0.0501078
0
0
6.74864
5.19258
0.126074
0.0647456
0.0560607
0.0553032
0.0563312
0.0575574
0.0586314
0.0596081
0.0605913
0.0616432
0.0627822
0.0640148
0.0653439
0.0667698
0.0683017
0.0699461
0.0717067
0.0735931
0.0756088
0.0777639
0.0800656
0.0825244
0.0851484
0.0879453
0.0909329
0.094117
0.0975097
0.101127
0.104979
0.109081
0.113447
0.118088
0.123023
0.128262
0.133823
0.139718
0.145963
0.152573
0.15956
0.166941
0.174728
0.182936
0.191591
0.200726
0.210422
0.220691
0.23172
0.243079
0.253116
0.264438
0.273694
0.291109
0.295772
0.33227
0.312306
0.409451
0.304296
0.398521
0.257026
0.341919
0.373573
0.427482
0.542137
0.912785
0.95546
0.631055
0.539511
0.499534
0.480568
0.478574
0.496545
0.528133
0.142007
0.0568574
0
0
0
1.88807
0.198036
0.0782286
0.062934
0.0610421
0.062207
0.06387
0.0652942
0.0664792
0.0675796
0.0686892
0.0698416
0.071054
0.0723372
0.0736989
0.0751545
0.076716
0.0783931
0.0801968
0.0821335
0.0842152
0.0864497
0.0888474
0.0914162
0.0941653
0.0971098
0.100255
0.103615
0.107202
0.111027
0.115104
0.119445
0.124063
0.128975
0.13419
0.139726
0.145595
0.151811
0.158388
0.165341
0.172682
0.180428
0.188589
0.197192
0.206267
0.215895
0.226097
0.237045
0.24838
0.258271
0.269708
0.278543
0.296456
0.300304
0.33792
0.31644
0.414023
0.307884
0.400211
0.373983
0.403683
0.443726
0.510149
0.647614
1.10385
1.08267
0.708106
0.598362
0.549625
0.527134
0.523855
0.536277
0.523227
0.508178
0
0
0
1.30502
10.6216
0.114546
0.0713569
0.0669031
0.0677672
0.0694756
0.0711122
0.0725005
0.0737527
0.0750016
0.0762955
0.0776425
0.079044
0.0805048
0.0820362
0.0836506
0.0853604
0.0871768
0.0891094
0.0911723
0.0933762
0.0957324
0.0982522
0.100947
0.103831
0.106913
0.110208
0.113728
0.117484
0.121492
0.125765
0.130314
0.135156
0.140302
0.145769
0.151569
0.157715
0.164223
0.171106
0.178377
0.186052
0.194142
0.202673
0.211671
0.221215
0.231337
0.24219
0.253498
0.263247
0.274805
0.283246
0.301681
0.30472
0.343579
0.320341
0.41921
0.310865
0.399146
0.426772
0.46007
0.506141
0.581435
0.734221
1.23447
1.24534
0.79117
0.659507
0.600991
0.57384
0.566569
0.566164
0.534297
0.560756
0.443723
0
0
2.92465
7.76187
0.108851
0.0777325
0.0769716
0.0793681
0.081022
0.0822312
0.0833052
0.0843372
0.0854126
0.0865723
0.0878158
0.0891393
0.0905473
0.0920502
0.0936576
0.0953764
0.0972136
0.0991817
0.10129
0.103548
0.105969
0.108563
0.111343
0.114321
0.117512
0.120927
0.124578
0.128482
0.132652
0.137099
0.141841
0.146889
0.152259
0.157963
0.164015
0.170431
0.177222
0.184403
0.19199
0.199993
0.208437
0.217346
0.226795
0.236826
0.24757
0.258851
0.26847
0.280176
0.28822
0.307207
0.309374
0.349608
0.324367
0.420325
0.446188
0.474971
0.510679
0.560529
0.640974
0.800172
1.29428
1.47876
0.885161
0.724563
0.654087
0.620414
0.606136
0.5944
0.556027
0.129998
0.0885358
0
0
0.00447342
0.839763
0.1151
0.085387
0.0872217
0.0913591
0.0931611
0.0941253
0.0951263
0.0961338
0.0971411
0.0982022
0.0993362
0.100547
0.10185
0.103263
0.104795
0.106456
0.108258
0.110209
0.112319
0.1146
0.117061
0.119714
0.122571
0.125644
0.128945
0.132486
0.136283
0.140349
0.144694
0.149335
0.154284
0.159557
0.165165
0.171122
0.177442
0.184138
0.191224
0.198715
0.206623
0.21497
0.223778
0.233117
0.243041
0.253656
0.2649
0.274362
0.286222
0.293808
0.313382
0.314541
0.438632
0.464171
0.489514
0.518664
0.55566
0.607375
0.689497
0.846951
1.29519
1.85823
0.997457
0.796299
0.710313
0.667912
0.645499
0.626994
0.573633
0.21681
0.182318
0
0
0
0.991801
0.137305
0.0938904
0.0961433
0.102131
0.104343
0.10506
0.106069
0.107242
0.108377
0.10951
0.110691
0.11194
0.113275
0.114714
0.11627
0.117959
0.119793
0.121786
0.123952
0.126299
0.128841
0.13159
0.134558
0.137758
0.1412
0.1449
0.14887
0.153122
0.157671
0.162527
0.167709
0.173224
0.179088
0.185313
0.191912
0.198898
0.206288
0.214092
0.22233
0.231026
0.240236
0.250037
0.260497
0.271687
0.280949
0.292963
0.507836
0.483866
0.504355
0.528968
0.558228
0.595679
0.647762
0.728971
0.878997
1.26652
2.58074
1.13741
0.876809
0.770275
0.716875
0.686549
0.660158
0.599694
0.339477
0.356413
0
0
0
1.47684
0.203177
0.105726
0.105351
0.113121
0.116385
0.116809
0.117549
0.118737
0.119951
0.121136
0.122362
0.123666
0.125067
0.126573
0.128202
0.12997
0.13189
0.133976
0.136241
0.138697
0.141359
0.144238
0.147349
0.150701
0.154313
0.158194
0.162355
0.166815
0.17158
0.176669
0.182092
0.187859
0.193985
0.200481
0.20736
0.214638
0.222327
0.230445
0.239013
0.248076
0.257734
0.268011
0.135086
0.428718
0.525419
0.540001
0.564616
0.593975
0.631408
0.682907
0.761464
0.901046
1.22962
3.27463
1.322
0.969072
0.834863
0.768039
0.728979
0.69487
0.632007
0.443896
0.573666
0
0
0
3.39317
0.495933
0.125515
0.114888
0.123447
0.129021
0.129862
0.130361
0.131448
0.132665
0.133849
0.135071
0.136384
0.137805
0.139348
0.141028
0.142861
0.14486
0.147039
0.149409
0.151984
0.154777
0.157801
0.161066
0.16459
0.168383
0.172456
0.176825
0.181499
0.186495
0.191821
0.197488
0.203509
0.209895
0.216658
0.223815
0.231375
0.239357
0
0.0737517
0.150322
0.587085
0.57402
0.5969
0.626238
0.66341
0.713756
0.788745
0.916924
1.19477
2.44506
1.58679
1.07823
0.905837
0.822226
0.772947
0.731485
0.668189
0.528946
0.784563
0
0
0
10.7704
2.68852
0.158606
0.12879
0.134453
0.141653
0.143499
0.143995
0.145018
0.146257
0.147472
0.148716
0.150053
0.151505
0.15309
0.154825
0.156728
0.158811
0.161088
0.163573
0.166278
0.169216
0.172396
0.175835
0.179544
0.183532
0.187816
0.192402
0.197306
0.202536
0.208103
0.214017
0
0
2.9847
0.351402
0.699568
0.608932
0.626705
0.655508
0.692189
0.741123
0.812226
0.929378
1.16571
1.95699
2.01937
1.21177
0.985345
0.880273
0.819115
0.770302
0.706876
0.605694
0.906775
0
0
0
0.0344712
1.36784
0.198638
0.143625
0.146687
0.154896
0.157738
0.158319
0.159297
0.160579
0.161853
0.163148
0.164543
0.166064
0.167729
0.169556
0.171563
0.173762
0.176169
0.178799
0.181662
0.184769
0.188135
0.191772
1.48079
0.000116335
0
0
0.238853
0.991059
0.65031
0.655251
0.682545
0.718493
0.765875
0.833164
0.940175
1.14301
1.70088
2.93467
1.38193
1.07597
0.94317
0.868035
0.811336
0.748412
0.658101
0.90458
0.254017
0
0
0
1.86272
0.264947
0.161185
0.159883
0.169012
0.172979
0.173591
0.174478
0.175827
0.177193
)
;

boundaryField
{
    inlet
    {
        type            calculated;
        value           nonuniform List<scalar> 
11
(
0.0913158
0.0937931
0.0926876
0.091696
0.0908433
0.0901051
0.0894294
0.0887648
0.0879967
0.0897587
0.0874482
)
;
    }
    outlet
    {
        type            calculated;
        value           nonuniform List<scalar> 0();
    }
    walls
    {
        type            calculated;
        value           uniform 0;
    }
    frontAndBack
    {
        type            empty;
    }
    procBoundary6to2
    {
        type            processor;
        value           nonuniform List<scalar> 
13
(
0.142996
0.218271
0.277306
0.31932
0.350692
0.375934
0.393568
0.443983
0.181993
0
0
1.66359
0.229223
)
;
    }
    procBoundary6to3
    {
        type            processor;
        value           uniform 0.200318;
    }
    procBoundary6to5
    {
        type            processor;
        value           nonuniform List<scalar> 
86
(
0.0625874
0.17531
0.19763
0.198511
0.202611
0.312356
0.0412639
0.0257682
0
0
0.207179
0.0297694
0.0247129
0.026391
0.0278298
0.0279797
0.0279444
0.0282318
0.0287585
0.0293567
0.0299529
0.0305517
0.0311823
0.0318672
0.0326156
0.0334314
0.0343182
0.0352794
0.0363201
0.0374474
0.0386674
0.0399863
0.0414116
0.0414116
0.0418746
0.0435192
0.045293
0.0472044
0.049262
0.0514749
0.0538521
0.056403
0.0591372
0.0620648
0.0651955
0.0685397
0.0685397
0.0711707
0.0749671
0.0790075
0.0833026
0.0878633
0.0927006
0.0978252
0.103248
0.108981
0.108981
0.114248
0.120614
0.12732
0.134374
0.141786
0.149573
0.15777
0.15777
0.165668
0.174802
0.184438
0.194529
0.205099
0.215734
0.225531
0.225531
0.233984
0.243358
0.254419
0.264703
0.281106
0.287159
0.319262
0.297256
0.342814
0.342814
0.269308
0.250443
0.220388
)
;
    }
    procBoundary6to7
    {
        type            processor;
        value           nonuniform List<scalar> 
91
(
0.222829
0.222829
0.255622
0.255622
0.259562
0.259562
0.401814
0.425066
0.401814
0.313718
0.356303
0.425066
0.328734
0.300019
0.320219
0.356303
0.32022
0.279127
0.28815
0.300019
0.300322
0.247781
0.256677
0.266171
0.279127
0.276231
0.220288
0.226926
0.23395
0.241368
0.247781
0.249197
0.195687
0.199894
0.2044
0.209221
0.21436
0.219829
0.220288
0.225635
0.178559
0.180025
0.181633
0.183402
0.185348
0.18749
0.18984
0.192412
0.19522
0.198272
0.201583
0.195687
0.205163
5.04127
2.45371
0
0
0.0915777
0.187553
0.7065
0.680263
0.706169
0.741968
0.788215
0.852113
0.950237
1.12614
1.54719
4.83401
1.61163
1.18129
1.01195
0.920072
0.855039
0.791827
0.698822
0.318902
0.278666
0
0
0
2.92389
0.417247
0.182496
0.173817
0.184229
0.189934
0.190462
0.190977
0.178559
0.192275
)
;
    }
}


// ************************************************************************* //
