/*--------------------------------*- C++ -*----------------------------------*\
| =========                 |                                                 |
| \\      /  F ield         | OpenFOAM: The Open Source CFD Toolbox           |
|  \\    /   O peration     | Version:  2306                                  |
|   \\  /    A nd           | Website:  www.openfoam.com                      |
|    \\/     M anipulation  |                                                 |
\*---------------------------------------------------------------------------*/
FoamFile
{
    version     2.0;
    format      ascii;
    arch        "LSB;label=32;scalar=64";
    class       volScalarField;
    location    "750";
    object      turbulenceProperties:epsilon;
}
// * * * * * * * * * * * * * * * * * * * * * * * * * * * * * * * * * * * * * //

dimensions      [0 2 -3 0 0 0 0];

internalField   nonuniform List<scalar> 
1340
(
6.71412e-10
3.87686e-10
6.91143e-10
3.64615e-10
3.63916e-10
6.90708e-10
6.34845e-11
3.55314e-10
3.48588e-10
6.96395e-10
5.06887e-11
1.70845e-10
6.23021e-11
3.47967e-10
3.35788e-10
7.05827e-10
1.02682e-10
1.41702e-10
4.76864e-11
1.64611e-10
6.10904e-11
3.41395e-10
3.25606e-10
7.15467e-10
2.04284e-10
1.57406e-10
1.57398e-10
9.46176e-11
1.3391e-10
4.46342e-11
1.58635e-10
5.99243e-11
3.35802e-10
3.18386e-10
7.24549e-10
2.72684e-10
2.40095e-10
2.03467e-10
1.86855e-10
1.43613e-10
1.45904e-10
8.67675e-11
1.26262e-10
4.15893e-11
1.53039e-10
5.87962e-11
3.31291e-10
3.13869e-10
7.32889e-10
4.39189e-10
3.81388e-10
3.29809e-10
2.84315e-10
2.43125e-10
2.15638e-10
1.83134e-10
1.69978e-10
1.30335e-10
1.34681e-10
7.9194e-11
1.18799e-10
3.85823e-11
1.47759e-10
5.77117e-11
3.27601e-10
3.11391e-10
7.41716e-10
7.03077e-10
6.24334e-10
5.52665e-10
4.87784e-10
4.29303e-10
3.76791e-10
3.29866e-10
2.87504e-10
2.49959e-10
2.15152e-10
1.9233e-10
1.63721e-10
1.53686e-10
1.17586e-10
1.23748e-10
7.1904e-11
1.11501e-10
3.56285e-11
1.42683e-10
5.66898e-11
3.24448e-10
3.10504e-10
7.49586e-10
1.12918e-09
1.03707e-09
9.48573e-10
8.64121e-10
7.84169e-10
7.08988e-10
6.38775e-10
5.73604e-10
5.13461e-10
4.58221e-10
4.07722e-10
3.61784e-10
3.20127e-10
2.82635e-10
2.48374e-10
2.17896e-10
1.88884e-10
1.70283e-10
1.45323e-10
1.3807e-10
1.05428e-10
1.13154e-10
6.49355e-11
1.04376e-10
3.27527e-11
1.37761e-10
5.57237e-11
3.21712e-10
3.11664e-10
7.574e-10
1.62963e-09
1.57711e-09
1.52189e-09
1.46395e-09
1.40335e-09
1.34028e-09
1.27509e-09
1.20822e-09
1.14017e-09
1.07153e-09
1.00283e-09
9.34628e-10
8.67502e-10
8.01945e-10
7.38459e-10
6.77382e-10
6.19094e-10
5.6385e-10
5.11844e-10
4.6319e-10
4.17922e-10
3.75994e-10
3.37319e-10
3.01823e-10
2.6932e-10
2.39875e-10
2.12619e-10
1.88323e-10
1.64499e-10
1.49657e-10
1.28078e-10
1.23249e-10
9.39485e-11
1.02972e-10
5.83321e-11
9.74539e-11
2.99865e-11
1.33e-10
5.47901e-11
3.1933e-10
3.13918e-10
7.65144e-10
1.44731e-14
3.13356e-17
0
0
4.3681e-07
6.3481e-07
0.000134343
0.00628641
0.0460427
0.144238
0.270944
0.353828
0.334215
0.214184
0.0683826
0.000757876
0.0619776
0.196282
0.276622
0.225112
0.101169
0.0203123
0.00114037
1.63423e-06
7.93306e-08
0
0
0
2.44103e-13
8.60087e-11
1.4933e-09
1.86183e-09
1.44227e-09
1.27065e-09
1.25819e-09
1.24591e-09
1.21254e-09
1.17646e-09
1.14183e-09
1.10601e-09
1.06805e-09
1.02812e-09
9.86309e-10
9.42684e-10
8.97495e-10
8.51082e-10
8.03884e-10
7.56305e-10
7.08714e-10
6.61523e-10
6.15133e-10
5.69912e-10
5.26117e-10
4.84052e-10
4.43926e-10
4.05902e-10
3.70093e-10
3.36552e-10
3.05253e-10
2.76143e-10
2.4921e-10
2.24305e-10
2.01619e-10
1.80328e-10
1.61354e-10
1.42107e-10
1.3056e-10
1.12078e-10
1.0932e-10
8.32048e-11
9.32583e-11
5.21377e-11
9.07388e-11
2.73513e-11
1.28304e-10
5.39193e-11
3.1715e-10
3.17444e-10
7.72847e-10
5.02855e-10
5.59989e-13
1.20633e-15
0
0
1.57158e-12
5.48275e-06
4.39044e-06
0.00152195
0.0190655
0.0802035
0.181513
0.270457
0.286081
0.209248
0.0862494
0.00534431
0.0286224
0.132545
0.216628
0.196393
0.0988862
0.0232258
0.00165582
6.57667e-06
1.62244e-07
0
0
0
2.5283e-14
7.2604e-12
8.60349e-10
1.41126e-09
1.08757e-09
8.98615e-10
8.73189e-10
8.69245e-10
8.48968e-10
8.24521e-10
8.01483e-10
7.77542e-10
7.51373e-10
7.23424e-10
6.94125e-10
6.63605e-10
6.31988e-10
5.99571e-10
5.66662e-10
5.33534e-10
5.00491e-10
4.67837e-10
4.3584e-10
4.04703e-10
3.74654e-10
3.45852e-10
3.18431e-10
2.92479e-10
2.68042e-10
2.45107e-10
2.23619e-10
2.03597e-10
1.84901e-10
1.67802e-10
1.51506e-10
1.3704e-10
1.2177e-10
1.13065e-10
9.73871e-11
9.63569e-11
7.32543e-11
8.40744e-11
4.63729e-11
8.42563e-11
2.48508e-11
1.23724e-10
5.30273e-11
3.15056e-10
3.21068e-10
7.81073e-10
5.20321e-10
3.89531e-10
3.84652e-12
6.71064e-15
0
0
0
1.71113e-06
1.2513e-06
0.000222113
0.0064257
0.0397445
0.113567
0.198078
0.237255
0.197217
0.0997189
0.0151634
0.00989505
0.0852012
0.166167
0.168794
0.0949378
0.025584
0.00226039
1.91809e-05
1.94896e-07
0
0
0
5.29875e-17
2.35355e-15
3.11398e-10
9.24986e-10
7.99363e-10
6.40397e-10
6.11143e-10
6.12856e-10
6.00096e-10
5.80206e-10
5.62278e-10
5.45595e-10
5.27734e-10
5.08209e-10
4.87486e-10
4.65907e-10
4.43666e-10
4.20961e-10
3.97974e-10
3.74948e-10
3.52103e-10
3.29647e-10
3.07736e-10
2.86532e-10
2.66152e-10
2.46703e-10
2.28241e-10
2.1081e-10
1.94372e-10
1.78895e-10
1.64384e-10
1.50695e-10
1.3816e-10
1.26002e-10
1.15285e-10
1.03448e-10
9.71511e-11
8.40042e-11
8.43689e-11
6.41061e-11
7.54133e-11
4.10519e-11
7.80287e-11
2.25017e-11
1.19042e-10
5.20903e-11
3.13536e-10
3.24871e-10
7.89809e-10
3.17543e-10
3.89066e-10
3.25803e-10
1.62091e-11
2.54824e-14
0
0
0
2.33398e-08
1.02779e-07
1.14956e-05
0.00164347
0.0170744
0.0654728
0.138293
0.190621
0.180077
0.107982
0.0267954
0.00175634
0.0520564
0.125579
0.143595
0.0896328
0.0272483
0.00287437
3.89725e-05
2.48887e-07
0
0
0
7.33712e-22
4.08181e-13
1.41392e-10
5.95053e-10
5.86321e-10
4.47848e-10
4.09012e-10
4.18679e-10
4.2212e-10
4.11572e-10
3.97145e-10
3.83728e-10
3.70667e-10
3.56839e-10
3.42057e-10
3.26633e-10
3.10842e-10
2.94821e-10
2.78744e-10
2.62763e-10
2.47049e-10
2.31711e-10
2.16866e-10
2.02617e-10
1.89018e-10
1.76121e-10
1.63933e-10
1.52439e-10
1.4158e-10
1.31352e-10
1.21615e-10
1.12701e-10
1.03893e-10
9.62236e-11
8.72518e-11
8.29654e-11
7.20319e-11
7.35065e-11
5.58052e-11
6.74326e-11
3.61506e-11
7.21637e-11
2.0154e-11
1.14754e-10
5.08048e-11
3.11977e-10
3.2932e-10
8.01926e-10
2.43951e-10
2.40765e-10
3.02079e-10
2.5261e-10
5.45841e-11
8.68867e-14
4.78497e-22
0
0
5.28768e-16
2.15794e-06
7.36584e-07
0.000252066
0.00566125
0.0320279
0.0870952
0.144179
0.159076
0.114035
0.041169
0.000752646
0.0269585
0.0903692
0.120668
0.0854518
0.0300239
0.00393314
8.10663e-05
1.42965e-07
4.13359e-08
0
0
0
1.28396e-13
3.51967e-11
3.41824e-10
4.87069e-10
3.85715e-10
3.00764e-10
2.79634e-10
2.82081e-10
2.81455e-10
2.74012e-10
2.64156e-10
2.54365e-10
2.44565e-10
2.34371e-10
2.23753e-10
2.12909e-10
2.02039e-10
1.91203e-10
1.80556e-10
1.70182e-10
1.60153e-10
1.50559e-10
1.41425e-10
1.328e-10
1.2465e-10
1.16995e-10
1.09757e-10
1.02914e-10
9.6353e-11
9.03554e-11
8.42807e-11
7.91395e-11
7.26023e-11
6.99879e-11
6.10987e-11
6.33758e-11
4.81995e-11
5.97453e-11
3.17641e-11
6.61907e-11
1.8231e-11
1.09834e-10
4.98786e-11
3.09415e-10
3.33387e-10
8.09595e-10
1.89525e-10
1.78225e-10
1.8569e-10
1.97252e-10
1.81985e-10
1.09695e-10
2.2358e-12
3.86095e-15
8.24923e-25
0
0
1.74261e-07
4.7199e-07
5.62384e-06
0.000664755
0.00725086
0.0308793
0.0723556
0.107531
0.105252
0.0621235
0.0132652
0.00251593
0.0375454
0.0772518
0.0756202
0.0391192
0.00954492
0.000842737
6.888e-06
2.29542e-07
3.33795e-09
0
0
6.5744e-18
4.434e-14
7.40973e-12
1.36551e-10
2.54368e-10
2.34571e-10
1.91027e-10
1.74216e-10
1.72768e-10
1.71752e-10
1.67215e-10
1.61018e-10
1.54719e-10
1.48416e-10
1.41974e-10
1.35434e-10
1.28857e-10
1.22401e-10
1.16132e-10
1.10106e-10
1.04354e-10
9.89185e-11
9.38366e-11
8.9074e-11
8.46453e-11
8.04687e-11
7.65359e-11
7.27242e-11
6.92803e-11
6.56443e-11
6.27159e-11
5.85036e-11
5.72866e-11
5.05627e-11
5.32423e-11
4.10159e-11
5.1644e-11
2.79855e-11
5.88538e-11
1.68383e-11
9.98139e-11
4.52999e-11
2.82241e-10
3.00898e-10
6.98583e-10
1.35831e-10
1.30846e-10
1.32146e-10
1.29254e-10
1.27195e-10
1.39729e-10
1.12441e-10
4.60729e-11
6.08752e-15
1.61131e-17
0
0
1.98347e-13
5.80682e-08
1.86172e-06
3.23418e-06
0.000419702
0.00475615
0.0209772
0.0504989
0.075746
0.0726267
0.0396939
0.00609837
0.00403154
0.0324691
0.0555731
0.0462989
0.0202165
0.00412117
0.000285624
9.02382e-07
1.13584e-07
3.09435e-11
0
0
6.70034e-19
2.50606e-14
5.868e-12
8.49374e-11
1.43586e-10
1.27745e-10
1.05164e-10
9.81398e-11
9.78372e-11
9.65766e-11
9.34279e-11
8.9745e-11
8.61606e-11
8.26125e-11
7.90523e-11
7.55713e-11
7.22111e-11
6.90515e-11
6.61043e-11
6.33999e-11
6.09613e-11
5.87592e-11
5.68116e-11
5.50251e-11
5.34032e-11
5.18136e-11
5.04538e-11
4.88606e-11
4.77711e-11
4.55479e-11
4.55464e-11
4.0764e-11
4.38194e-11
3.41653e-11
4.42333e-11
2.41296e-11
5.28659e-11
1.5403e-11
9.46339e-11
4.55477e-11
2.79881e-10
3.1497e-10
7.10315e-10
9.39115e-11
9.13437e-11
9.37692e-11
9.19014e-11
8.74781e-11
8.61754e-11
9.1032e-11
9.6663e-11
6.35312e-11
7.25226e-12
1.11942e-14
5.36145e-23
0
0
0
5.83863e-08
1.87064e-06
1.71779e-06
0.00031167
0.00368428
0.0164034
0.0391506
0.056934
0.0509691
0.0237336
0.0016513
0.00678889
0.0295521
0.0398379
0.0270584
0.00947035
0.00144504
5.55262e-05
1.12326e-08
4.94921e-08
0
0
0
6.93289e-19
4.41802e-14
1.22043e-11
6.25281e-11
7.60378e-11
6.24076e-11
5.39534e-11
5.247e-11
5.22041e-11
5.0844e-11
4.88735e-11
4.69026e-11
4.50684e-11
4.33329e-11
4.17018e-11
4.02538e-11
3.89982e-11
3.7959e-11
3.71489e-11
3.65532e-11
3.61678e-11
3.59238e-11
3.58161e-11
3.5716e-11
3.57665e-11
3.55876e-11
3.57766e-11
3.49763e-11
3.58466e-11
3.25921e-11
3.58841e-11
2.82948e-11
3.78881e-11
2.06613e-11
4.78101e-11
1.38073e-11
9.06904e-11
4.49525e-11
2.80839e-10
3.25502e-10
7.20635e-10
6.16145e-11
6.39543e-11
6.335e-11
6.11114e-11
5.8787e-11
5.75407e-11
5.86727e-11
6.53842e-11
6.00871e-11
3.08883e-11
2.77441e-13
5.99614e-16
0
0
0
0
4.95515e-08
1.71326e-06
1.78177e-06
0.000292971
0.00330207
0.0141063
0.0320393
0.0433413
0.0343522
0.0121101
5.48284e-05
0.0097697
0.0258403
0.0269797
0.014436
0.00375529
0.000376372
4.78513e-06
8.75007e-08
5.61948e-16
0
0
0
2.81412e-15
5.65132e-13
1.87556e-11
3.73896e-11
3.47674e-11
2.84471e-11
2.63528e-11
2.60902e-11
2.55895e-11
2.46764e-11
2.37564e-11
2.29698e-11
2.2315e-11
2.18295e-11
2.15181e-11
2.14026e-11
2.14937e-11
2.17824e-11
2.226e-11
2.28712e-11
2.3614e-11
2.43697e-11
2.52405e-11
2.59074e-11
2.68534e-11
2.69562e-11
2.83337e-11
2.62108e-11
2.95488e-11
2.35993e-11
3.26405e-11
1.78315e-11
4.35252e-11
1.24541e-11
8.75444e-11
4.4122e-11
2.83238e-10
3.31217e-10
7.30126e-10
4.02362e-11
4.218e-11
4.1976e-11
4.09235e-11
3.99831e-11
3.88841e-11
3.79156e-11
3.80144e-11
4.02624e-11
4.44902e-11
3.48721e-11
6.59157e-12
1.15312e-14
5.91466e-23
0
0
0
0
5.38768e-08
1.50579e-06
3.29106e-06
0.000335377
0.00333717
0.0130368
0.0270463
0.0325719
0.0213737
0.00458184
0.00090305
0.0121041
0.0211366
0.0166646
0.00659854
0.00114362
5.54639e-05
8.72536e-10
1.55132e-08
0
0
0
9.58176e-20
1.1801e-14
2.58076e-12
1.30479e-11
1.54381e-11
1.28754e-11
1.13635e-11
1.11144e-11
1.10193e-11
1.07789e-11
1.05466e-11
1.04353e-11
1.04806e-11
1.06826e-11
1.10567e-11
1.16178e-11
1.23567e-11
1.32705e-11
1.43142e-11
1.54846e-11
1.66869e-11
1.79882e-11
1.91211e-11
2.04668e-11
2.11036e-11
2.27197e-11
2.14183e-11
2.46671e-11
2.00121e-11
2.8443e-11
1.56879e-11
3.99848e-11
1.14964e-11
8.5008e-11
4.32831e-11
2.86847e-10
3.32042e-10
7.41206e-10
2.54976e-11
2.68673e-11
2.68505e-11
2.63082e-11
2.58566e-11
2.53283e-11
2.49674e-11
2.43267e-11
2.39067e-11
2.44136e-11
2.7545e-11
2.73059e-11
1.59132e-11
2.02458e-13
5.4448e-16
5.97965e-27
0
0
0
0
1.3635e-07
7.50957e-08
8.05906e-06
0.000449078
0.00371119
0.0126708
0.0229892
0.0233806
0.0114853
0.000765803
0.00328618
0.0130393
0.0155357
0.0088399
0.00235338
0.000224561
2.19796e-06
8.2291e-08
0
0
0
0
1.50899e-15
2.58602e-13
3.20727e-12
5.18441e-12
4.56414e-12
3.75669e-12
3.52249e-12
3.54069e-12
3.61776e-12
3.76775e-12
4.05185e-12
4.49254e-12
5.09177e-12
5.85222e-12
6.77243e-12
7.84827e-12
9.05238e-12
1.03745e-11
1.17473e-11
1.32126e-11
1.45461e-11
1.60395e-11
1.69384e-11
1.85858e-11
1.78356e-11
2.08996e-11
1.72438e-11
2.50346e-11
1.3992e-11
3.69552e-11
1.07217e-11
8.28587e-11
4.22256e-11
2.90762e-10
3.26247e-10
7.55358e-10
1.80947e-11
1.89469e-11
1.90916e-11
1.87467e-11
1.84086e-11
1.81566e-11
1.80185e-11
1.7713e-11
1.73757e-11
1.69394e-11
1.7052e-11
1.79299e-11
2.04861e-11
1.5699e-11
5.6105e-12
1.23473e-17
1.87064e-19
0
0
0
0
8.80477e-15
9.31588e-08
5.63677e-07
2.1201e-05
0.000677753
0.00441435
0.0125915
0.0190444
0.0152503
0.00459302
0.000107387
0.00597719
0.0119547
0.00965531
0.00368733
0.00057107
2.05491e-05
2.2355e-10
4.4775e-09
0
0
0
2.51173e-17
6.29716e-16
9.06112e-14
2.13602e-13
3.22177e-13
3.42326e-13
3.80818e-13
5.34208e-13
8.10531e-13
1.20005e-12
1.71646e-12
2.37844e-12
3.19138e-12
4.14887e-12
5.24617e-12
6.46117e-12
7.78933e-12
9.17813e-12
1.06625e-11
1.20483e-11
1.35487e-11
1.4551e-11
1.61251e-11
1.57312e-11
1.85756e-11
1.56854e-11
2.28669e-11
1.32116e-11
3.49927e-11
1.05865e-11
8.17026e-11
4.09717e-11
2.95674e-10
3.08506e-10
7.85384e-10
1.2078e-11
1.28107e-11
1.28853e-11
1.26218e-11
1.23857e-11
1.23328e-11
1.23695e-11
1.20682e-11
1.20011e-11
1.19034e-11
1.16325e-11
1.14819e-11
1.19663e-11
1.30135e-11
1.37821e-11
8.22643e-12
9.64748e-13
3.54001e-15
2.9461e-22
0
0
0
0
0
4.47383e-07
2.49895e-08
6.12464e-05
0.00108858
0.00538649
0.0122775
0.0145808
0.0081318
0.00076461
0.0017326
0.00770919
0.00891892
0.0045825
0.000996682
6.32766e-05
1.02828e-07
8.34973e-08
0
0
0
3.98793e-21
9.47675e-16
4.82661e-14
1.05071e-12
7.00321e-13
3.66436e-13
4.33464e-13
7.18423e-13
1.14973e-12
1.67897e-12
2.30131e-12
3.03776e-12
3.89012e-12
4.85458e-12
5.90702e-12
7.0474e-12
8.23838e-12
9.51217e-12
1.07128e-11
1.19882e-11
1.28315e-11
1.40997e-11
1.37685e-11
1.62251e-11
1.38027e-11
2.02613e-11
1.16548e-11
3.21047e-11
9.31648e-12
7.87005e-11
3.78564e-11
2.94839e-10
2.77174e-10
8.36071e-10
1.4089e-11
1.449e-11
1.44601e-11
1.4153e-11
1.38648e-11
1.36715e-11
1.35586e-11
1.32611e-11
1.3066e-11
1.28407e-11
1.2494e-11
1.21929e-11
1.19687e-11
1.19032e-11
1.2222e-11
1.32876e-11
1.13469e-11
5.78649e-12
3.31502e-13
1.79361e-15
4.24461e-22
0
0
0
0
4.55777e-10
7.07283e-07
1.02345e-06
0.000171375
0.00182354
0.00680268
0.0122209
0.010998
0.00365984
9.62306e-05
0.00427416
0.00818377
0.00590896
0.00181994
0.000166413
6.43624e-07
1.35698e-07
9.07373e-08
1.10835e-08
2.58447e-11
0
7.23825e-20
2.05399e-15
1.40442e-12
5.7583e-12
4.96792e-12
3.80378e-12
3.63438e-12
4.02282e-12
4.6115e-12
5.29475e-12
6.07588e-12
6.96415e-12
7.9426e-12
9.0016e-12
1.01172e-11
1.13141e-11
1.24632e-11
1.3657e-11
1.44487e-11
1.55864e-11
1.53504e-11
1.76129e-11
1.55117e-11
2.15971e-11
1.34715e-11
3.35867e-11
1.05745e-11
8.17282e-11
3.40679e-11
3.0596e-10
2.28277e-10
1.02478e-09
1.03295e-11
1.04662e-11
1.05243e-11
1.06072e-11
1.06623e-11
1.07186e-11
1.08282e-11
1.09609e-11
1.10731e-11
1.11373e-11
1.11994e-11
1.13118e-11
1.14119e-11
1.15188e-11
1.16119e-11
1.2121e-11
1.30321e-11
1.36919e-11
1.14856e-11
6.53244e-12
3.3177e-13
1.32678e-15
0
0
0
0
0
2.09723e-08
4.48355e-07
1.63741e-06
0.000128452
0.0011353
0.00377911
0.00621155
0.00507038
0.00136752
0.000111181
0.00235114
0.00378719
0.00245297
0.000750039
0.00010295
4.48616e-06
5.60607e-09
2.2028e-08
2.77259e-09
0
0
1.06759e-15
4.75695e-13
4.89182e-12
8.066e-12
8.15322e-12
7.8401e-12
7.87532e-12
8.12372e-12
8.44738e-12
8.80968e-12
9.20249e-12
9.61848e-12
1.00475e-11
1.05157e-11
1.09494e-11
1.14188e-11
1.15471e-11
1.18429e-11
1.11786e-11
1.25002e-11
1.05208e-11
1.50687e-11
8.10085e-12
2.45312e-11
4.74039e-12
6.5056e-11
2.33449e-11
2.53262e-10
2.27306e-10
9.98835e-10
)
;

boundaryField
{
    inlet
    {
        type            calculated;
        value           nonuniform List<scalar> 
27
(
2.83534e-08
2.84283e-08
2.85663e-08
2.87499e-08
2.89459e-08
2.91495e-08
2.93667e-08
2.95959e-08
2.98363e-08
3.00789e-08
3.03229e-08
3.05634e-08
3.07957e-08
3.10141e-08
3.12123e-08
3.13842e-08
3.15315e-08
3.12315e-08
3.12707e-08
3.12542e-08
3.11511e-08
3.09518e-08
3.06308e-08
3.01764e-08
2.95292e-08
2.88919e-08
2.76231e-08
)
;
    }
    outlet
    {
        type            calculated;
        value           nonuniform List<scalar> 
78
(
6.80335e-12
6.95999e-12
7.04127e-12
7.14786e-12
7.22876e-12
7.3114e-12
7.44901e-12
7.61049e-12
7.75242e-12
7.84751e-12
7.94141e-12
8.08515e-12
8.22581e-12
8.37433e-12
8.50762e-12
8.93677e-12
9.63668e-12
1.00947e-11
8.45073e-12
4.90485e-12
2.67491e-13
1.16987e-15
0
0
0
0
0
2.11678e-08
4.46274e-07
1.45686e-06
0.000126162
0.00112724
0.00377001
0.00622054
0.00510503
0.00139686
9.71995e-05
0.00230319
0.00374789
0.00243975
0.000749382
0.000103567
4.60134e-06
2.43643e-09
2.00419e-08
2.50729e-09
0
0
8.16054e-16
3.76986e-13
3.94826e-12
6.53391e-12
6.58491e-12
6.29019e-12
6.25481e-12
6.36575e-12
6.51244e-12
6.66867e-12
6.82958e-12
6.9947e-12
7.15725e-12
7.35245e-12
7.50844e-12
7.72577e-12
7.62445e-12
7.78916e-12
6.99328e-12
8.30445e-12
6.12764e-12
1.08945e-11
3.63958e-12
2.06119e-11
3.39298e-13
6.02736e-11
1.87224e-11
2.36529e-10
2.28407e-10
8.94957e-10
)
;
    }
    walls
    {
        type            calculated;
        value           nonuniform List<scalar> 0();
    }
    frontAndBack
    {
        type            empty;
    }
    procBoundary7to3
    {
        type            processor;
        value           nonuniform List<scalar> 
16
(
8.98619e-10
1.07627e-09
6.25176e-10
4.56683e-10
3.58297e-10
2.62394e-10
1.7695e-10
1.18127e-10
6.28845e-11
6.28845e-11
4.08912e-11
2.59631e-11
1.84665e-11
1.21407e-11
1.46413e-11
1.00182e-11
)
;
    }
    procBoundary7to6
    {
        type            processor;
        value           nonuniform List<scalar> 
91
(
6.68171e-10
4.13773e-10
4.13773e-10
3.79222e-10
3.79222e-10
6.45077e-11
6.45077e-11
5.35811e-11
1.77204e-10
1.77204e-10
1.10776e-10
1.49488e-10
1.49488e-10
2.22112e-10
1.71599e-10
1.69076e-10
1.69076e-10
3.03802e-10
2.65671e-10
2.24694e-10
2.24694e-10
5.07267e-10
4.37088e-10
3.75153e-10
3.20827e-10
3.20827e-10
8.52996e-10
7.51362e-10
6.59769e-10
5.77665e-10
5.04366e-10
5.04366e-10
1.4593e-09
1.33064e-09
1.20823e-09
1.0925e-09
9.83933e-10
8.82793e-10
7.89177e-10
7.89177e-10
2.25969e-09
2.1779e-09
2.0926e-09
2.00376e-09
1.91159e-09
1.81656e-09
1.71924e-09
1.62028e-09
1.52047e-09
1.42073e-09
1.32173e-09
1.22427e-09
1.22427e-09
8.28567e-24
0
0
4.2006e-06
8.5407e-07
0.00106809
0.0192992
0.095295
0.23735
0.384045
0.448374
0.380972
0.211926
0.0480385
0.00568612
0.115353
0.280647
0.347964
0.255108
0.101878
0.0172848
0.000753282
6.58694e-08
6.80519e-09
0
0
0
9.57931e-13
3.64399e-10
2.43233e-09
2.57898e-09
2.03101e-09
1.84668e-09
1.82373e-09
1.78821e-09
1.73371e-09
1.68055e-09
1.68055e-09
)
;
    }
}


// ************************************************************************* //
