/*--------------------------------*- C++ -*----------------------------------*\
| =========                 |                                                 |
| \\      /  F ield         | OpenFOAM: The Open Source CFD Toolbox           |
|  \\    /   O peration     | Version:  2306                                  |
|   \\  /    A nd           | Website:  www.openfoam.com                      |
|    \\/     M anipulation  |                                                 |
\*---------------------------------------------------------------------------*/
FoamFile
{
    version     2.0;
    format      ascii;
    arch        "LSB;label=32;scalar=64";
    class       volScalarField;
    location    "750";
    object      turbulenceProperties:k;
}
// * * * * * * * * * * * * * * * * * * * * * * * * * * * * * * * * * * * * * //

dimensions      [0 2 -2 0 0 0 0];

internalField   nonuniform List<scalar> 
1340
(
9.39407e-07
7.13838e-07
9.5311e-07
6.92252e-07
6.91608e-07
9.52811e-07
2.88855e-07
6.83365e-07
6.76888e-07
9.56726e-07
2.58104e-07
4.73852e-07
2.86152e-07
6.76263e-07
6.64345e-07
9.63184e-07
3.67359e-07
4.31548e-07
2.50344e-07
4.65126e-07
2.83356e-07
6.69847e-07
6.54196e-07
9.6974e-07
5.18165e-07
4.54841e-07
4.54826e-07
3.52638e-07
4.19515e-07
2.422e-07
4.56605e-07
2.80638e-07
6.64336e-07
6.46902e-07
9.75877e-07
5.9867e-07
5.61756e-07
5.17131e-07
4.95569e-07
4.34457e-07
4.37905e-07
3.37693e-07
4.07358e-07
2.33793e-07
4.48478e-07
2.77984e-07
6.5986e-07
6.42298e-07
9.81478e-07
7.59786e-07
7.08023e-07
6.58406e-07
6.11308e-07
5.65292e-07
5.32376e-07
4.90612e-07
4.7266e-07
4.13885e-07
4.20727e-07
3.22619e-07
3.95137e-07
2.25182e-07
4.40675e-07
2.75408e-07
6.56173e-07
6.39758e-07
9.87373e-07
9.61327e-07
9.05895e-07
8.52314e-07
8.00722e-07
7.51189e-07
7.03747e-07
6.58466e-07
6.14731e-07
5.73185e-07
5.31779e-07
5.02782e-07
4.63881e-07
4.49438e-07
3.93123e-07
4.03288e-07
3.07412e-07
3.82807e-07
2.16391e-07
4.3304e-07
2.72959e-07
6.53008e-07
6.38847e-07
9.92599e-07
1.2183e-06
1.16755e-06
1.11662e-06
1.06576e-06
1.01526e-06
9.65363e-07
9.16315e-07
8.68313e-07
8.21531e-07
7.7608e-07
7.32067e-07
6.89592e-07
6.48676e-07
6.09507e-07
5.71369e-07
5.35163e-07
4.98261e-07
4.73089e-07
4.37042e-07
4.25993e-07
3.72245e-07
3.8564e-07
2.92136e-07
3.70376e-07
2.07474e-07
4.25504e-07
2.70623e-07
6.50249e-07
6.4004e-07
9.97761e-07
1.46358e-06
1.43981e-06
1.41437e-06
1.38719e-06
1.35817e-06
1.3273e-06
1.29462e-06
1.26022e-06
1.22421e-06
1.18679e-06
1.14812e-06
1.10839e-06
1.06784e-06
1.0267e-06
9.85225e-07
9.43601e-07
9.02091e-07
8.60901e-07
8.20239e-07
7.80281e-07
7.4117e-07
7.03008e-07
6.6587e-07
6.29861e-07
5.94978e-07
5.61511e-07
5.28647e-07
4.97524e-07
4.64988e-07
4.43513e-07
4.10292e-07
4.02481e-07
3.51395e-07
3.67881e-07
2.76885e-07
3.57883e-07
1.98519e-07
4.18087e-07
2.68347e-07
6.47837e-07
6.42351e-07
1.00285e-06
7.08434e-09
4.58016e-10
0
0
3.88663e-05
8.02678e-05
0.00693534
0.0878093
0.339521
0.751273
1.1908
1.49859
1.55142
1.29145
0.745582
0.0792181
0.717465
1.25788
1.42621
1.1667
0.651802
0.212142
0.0287614
0.000241537
2.86849e-05
0
0
0
2.6993e-08
3.65425e-07
1.40113e-06
1.57112e-06
1.37763e-06
1.29197e-06
1.28584e-06
1.27976e-06
1.26251e-06
1.24355e-06
1.22511e-06
1.20574e-06
1.18487e-06
1.16251e-06
1.13862e-06
1.11316e-06
1.08615e-06
1.05769e-06
1.02794e-06
9.9706e-07
9.6518e-07
9.32492e-07
8.99202e-07
8.65519e-07
8.31599e-07
7.97661e-07
7.63884e-07
7.30436e-07
6.97472e-07
6.65115e-07
6.33432e-07
6.02472e-07
5.72337e-07
5.42984e-07
5.14792e-07
4.86852e-07
4.60524e-07
4.32183e-07
4.14251e-07
3.8381e-07
3.79056e-07
3.30693e-07
3.501e-07
2.61771e-07
3.45333e-07
1.89596e-07
4.10639e-07
2.66205e-07
6.45622e-07
6.4595e-07
1.00789e-06
8.13206e-07
3.5445e-08
2.2979e-09
0
0
6.90933e-08
0.000504701
0.000895286
0.0352236
0.192607
0.517705
0.927299
1.2698
1.40821
1.26261
0.832481
0.209828
0.487076
1.03595
1.27197
1.10788
0.664899
0.240633
0.0383622
0.000736423
6.09243e-05
0
0
0
9.69667e-09
1.18467e-07
1.06245e-06
1.37083e-06
1.19757e-06
1.0866e-06
1.07114e-06
1.06891e-06
1.05639e-06
1.04105e-06
1.0264e-06
1.01097e-06
9.93809e-07
9.75148e-07
9.55195e-07
9.3396e-07
9.11439e-07
8.87756e-07
8.63049e-07
8.37442e-07
8.11094e-07
7.84189e-07
7.56897e-07
7.29359e-07
7.01759e-07
6.74246e-07
6.46965e-07
6.2004e-07
5.93572e-07
5.67609e-07
5.42157e-07
5.17316e-07
4.9299e-07
4.69641e-07
4.46253e-07
4.24411e-07
4.00065e-07
3.85498e-07
3.57773e-07
3.55874e-07
3.10291e-07
3.32415e-07
2.46875e-07
3.32769e-07
1.80722e-07
4.03243e-07
2.63994e-07
6.43486e-07
6.49627e-07
1.01324e-06
8.30461e-07
7.15858e-07
8.31847e-08
4.83786e-09
0
0
0
0.000154011
0.000252243
0.0102104
0.0950933
0.329569
0.688554
1.04436
1.25142
1.2084
0.888489
0.352278
0.285957
0.831913
1.12173
1.04291
0.670678
0.265527
0.0489281
0.00169649
8.87313e-05
0
0
0
6.14397e-10
3.25734e-09
6.43216e-07
1.10818e-06
1.02751e-06
9.1742e-07
8.96116e-07
8.97596e-07
8.88226e-07
8.73315e-07
8.59692e-07
8.4685e-07
8.3288e-07
8.17328e-07
8.00489e-07
7.8257e-07
7.63664e-07
7.43866e-07
7.23271e-07
7.02036e-07
6.80314e-07
6.58261e-07
6.36009e-07
6.13706e-07
5.91478e-07
5.69457e-07
5.47734e-07
5.26402e-07
5.05462e-07
4.8492e-07
4.64837e-07
4.4506e-07
4.26147e-07
4.06964e-07
3.8927e-07
3.68742e-07
3.57341e-07
3.32283e-07
3.33002e-07
2.9027e-07
3.14828e-07
2.3228e-07
3.20236e-07
1.71968e-07
3.9554e-07
2.61651e-07
6.41932e-07
6.53464e-07
1.01889e-06
6.46162e-07
7.17837e-07
6.54657e-07
1.57173e-07
8.58173e-09
0
0
0
5.57517e-06
1.38468e-05
0.00165743
0.0391976
0.190439
0.483222
0.830899
1.08861
1.13468
0.915983
0.466163
0.120163
0.650469
0.980375
0.974722
0.668364
0.28615
0.0595529
0.00297544
0.000122198
0
0
0
4.21847e-12
3.17132e-08
4.37434e-07
8.87956e-07
8.80898e-07
7.67121e-07
7.32815e-07
7.41695e-07
7.44955e-07
7.35587e-07
7.22529e-07
7.10201e-07
6.98014e-07
6.84875e-07
6.7054e-07
6.55247e-07
6.39211e-07
6.22521e-07
6.0531e-07
5.87701e-07
5.69858e-07
5.51884e-07
5.33913e-07
5.16074e-07
4.98455e-07
4.81149e-07
4.64202e-07
4.47631e-07
4.31393e-07
4.15517e-07
3.99819e-07
3.84887e-07
3.69539e-07
3.55636e-07
3.38649e-07
3.30224e-07
3.07695e-07
3.10827e-07
2.70826e-07
2.97704e-07
2.17974e-07
3.07966e-07
1.6275e-07
3.88351e-07
2.58403e-07
6.40334e-07
6.57924e-07
1.02668e-06
5.66179e-07
5.62656e-07
6.31927e-07
5.76554e-07
2.72314e-07
1.45861e-08
3.08543e-12
0
0
1.91939e-09
0.000215924
0.000244181
0.0116986
0.092697
0.30378
0.616866
0.909518
1.04281
0.931155
0.575513
0.0786105
0.468951
0.837055
0.90652
0.670213
0.31439
0.0754261
0.00493954
0.000112056
1.1034e-05
0
0
0
1.88533e-08
2.27167e-07
6.7125e-07
8.08094e-07
7.14305e-07
6.28689e-07
6.06004e-07
6.08815e-07
6.08271e-07
6.00184e-07
5.89266e-07
5.78232e-07
5.66985e-07
5.55045e-07
5.42325e-07
5.2902e-07
5.15339e-07
5.01329e-07
4.87171e-07
4.72968e-07
4.58821e-07
4.44866e-07
4.3116e-07
4.17804e-07
4.04781e-07
3.92155e-07
3.7983e-07
3.67798e-07
3.5588e-07
3.44625e-07
3.32837e-07
3.22524e-07
3.08914e-07
3.033e-07
2.83384e-07
2.88615e-07
2.51695e-07
2.80222e-07
2.04322e-07
2.94946e-07
1.54791e-07
3.79934e-07
2.56036e-07
6.37698e-07
6.61974e-07
1.03158e-06
4.99128e-07
4.83971e-07
4.94108e-07
5.09798e-07
4.89539e-07
3.79422e-07
6.16187e-08
3.54744e-09
1.77891e-13
0
0
2.56695e-05
7.77906e-05
0.00111365
0.022808
0.113956
0.310525
0.574149
0.79464
0.853629
0.688972
0.32637
0.142826
0.543601
0.744188
0.667604
0.402441
0.147599
0.0275618
0.0009505
0.000100269
2.1669e-06
0
0
2.30301e-10
1.13934e-08
1.09521e-07
4.23337e-07
5.81426e-07
5.57091e-07
5.01222e-07
4.78377e-07
4.76459e-07
4.75149e-07
4.68848e-07
4.60063e-07
4.50968e-07
4.41687e-07
4.31998e-07
4.21931e-07
4.11558e-07
4.01115e-07
3.90707e-07
3.80436e-07
3.70365e-07
3.60591e-07
3.51206e-07
3.42177e-07
3.33562e-07
3.25228e-07
3.1718e-07
3.0918e-07
3.0177e-07
2.93743e-07
2.87115e-07
2.77304e-07
2.74403e-07
2.57795e-07
2.64537e-07
2.32183e-07
2.60532e-07
1.91785e-07
2.78119e-07
1.48761e-07
3.6219e-07
2.44002e-07
6.09052e-07
6.28893e-07
9.58253e-07
4.22553e-07
4.14725e-07
4.16746e-07
4.12194e-07
4.09071e-07
4.29528e-07
3.84417e-07
2.46943e-07
4.28756e-09
3.02769e-10
0
0
2.5051e-08
1.03401e-05
0.000309756
0.000785619
0.0171672
0.0883346
0.247486
0.468135
0.655791
0.701005
0.546367
0.219753
0.179169
0.49711
0.611623
0.494881
0.266636
0.0868261
0.0137357
0.000228571
4.89162e-05
2.22937e-07
0
0
8.08388e-11
8.55135e-09
9.56797e-08
3.33828e-07
4.36978e-07
4.10848e-07
3.71809e-07
3.59052e-07
3.58575e-07
3.56312e-07
3.50454e-07
3.43466e-07
3.36535e-07
3.29534e-07
3.22356e-07
3.15178e-07
3.08091e-07
3.01276e-07
2.94776e-07
2.88683e-07
2.83077e-07
2.77917e-07
2.73272e-07
2.6894e-07
2.64946e-07
2.60973e-07
2.57525e-07
2.53425e-07
2.50582e-07
2.44681e-07
2.44675e-07
2.31472e-07
2.39989e-07
2.11908e-07
2.41116e-07
1.78084e-07
2.63592e-07
1.4228e-07
3.52666e-07
2.44668e-07
6.065e-07
6.43432e-07
9.66269e-07
3.51346e-07
3.46512e-07
3.51079e-07
3.47554e-07
3.39082e-07
3.36648e-07
3.46328e-07
3.5728e-07
2.88728e-07
1.01663e-07
5.4382e-09
1.09952e-12
0
0
0
9.9979e-06
0.000290205
0.000532299
0.0142868
0.076101
0.215853
0.408662
0.565718
0.585578
0.421472
0.113797
0.230034
0.463293
0.495452
0.352089
0.163808
0.0437296
0.004498
1.44451e-05
1.93219e-05
0
0
0
7.94042e-11
1.05682e-08
1.29886e-07
2.8729e-07
3.17811e-07
2.86708e-07
2.66229e-07
2.62555e-07
2.61952e-07
2.58535e-07
2.53468e-07
2.48299e-07
2.43396e-07
2.38664e-07
2.3413e-07
2.30029e-07
2.26413e-07
2.23376e-07
2.20979e-07
2.192e-07
2.18041e-07
2.17304e-07
2.16978e-07
2.16674e-07
2.16826e-07
2.16283e-07
2.16855e-07
2.14414e-07
2.17064e-07
2.06975e-07
2.17175e-07
1.92846e-07
2.23154e-07
1.64789e-07
2.50672e-07
1.34709e-07
3.4524e-07
2.43064e-07
6.07537e-07
6.54101e-07
9.73266e-07
2.84587e-07
2.89942e-07
2.88568e-07
2.8342e-07
2.77966e-07
2.75036e-07
2.77845e-07
2.93793e-07
2.81379e-07
2.01419e-07
2.26114e-08
1.46008e-09
0
0
0
0
8.90633e-06
0.000276829
0.00054131
0.0138802
0.0723009
0.201061
0.371551
0.495995
0.482305
0.300999
0.0205874
0.271078
0.418223
0.383894
0.233924
0.0888954
0.0178693
0.000842099
6.1991e-05
1.74022e-09
0
0
0
3.05615e-09
3.13798e-08
1.569e-07
2.23091e-07
2.14433e-07
1.93386e-07
1.8606e-07
1.85171e-07
1.83412e-07
1.80109e-07
1.76715e-07
1.73763e-07
1.71269e-07
1.69395e-07
1.68183e-07
1.67731e-07
1.68087e-07
1.69212e-07
1.71057e-07
1.73389e-07
1.76182e-07
1.78979e-07
1.82148e-07
1.84538e-07
1.87876e-07
1.88234e-07
1.92982e-07
1.85611e-07
1.97075e-07
1.76119e-07
2.07125e-07
1.53089e-07
2.39175e-07
1.27938e-07
3.39199e-07
2.40808e-07
6.10126e-07
6.59819e-07
9.79657e-07
2.29975e-07
2.35465e-07
2.34896e-07
2.31933e-07
2.29249e-07
2.26072e-07
2.23232e-07
2.23582e-07
2.30274e-07
2.42428e-07
2.1407e-07
9.50694e-08
5.35e-09
1.12093e-12
0
0
0
0
9.45993e-06
0.000274637
0.000782681
0.0154342
0.0748183
0.197758
0.34757
0.435611
0.383051
0.18494
0.0826434
0.293959
0.360252
0.277968
0.138815
0.0399948
0.00486647
1.1827e-06
6.89037e-06
0
0
0
3.09924e-11
5.46746e-09
5.97363e-08
1.31334e-07
1.43126e-07
1.30187e-07
1.2218e-07
1.20847e-07
1.20352e-07
1.19035e-07
1.17743e-07
1.1712e-07
1.17375e-07
1.18501e-07
1.20557e-07
1.23578e-07
1.27448e-07
1.32076e-07
1.37171e-07
1.42668e-07
1.48103e-07
1.53769e-07
1.58537e-07
1.6402e-07
1.66551e-07
1.7281e-07
1.67786e-07
1.80061e-07
1.62183e-07
1.93349e-07
1.43593e-07
2.29242e-07
1.2292e-07
3.34249e-07
2.38508e-07
6.14001e-07
6.60641e-07
9.87065e-07
1.83072e-07
1.87925e-07
1.87867e-07
1.8596e-07
1.84357e-07
1.82464e-07
1.81155e-07
1.78809e-07
1.7727e-07
1.79203e-07
1.90631e-07
1.8976e-07
1.44517e-07
1.90362e-08
1.36842e-09
1.89474e-14
0
0
0
0
1.96519e-05
1.75295e-05
0.00135144
0.0191368
0.0830544
0.202681
0.329675
0.375925
0.283134
0.0753211
0.154885
0.29361
0.288171
0.180649
0.0690862
0.0132318
0.000510659
5.37401e-05
0
0
0
0
2.12615e-09
2.01068e-08
6.4888e-08
8.30486e-08
7.76001e-08
7.02637e-08
6.80338e-08
6.82249e-08
6.89655e-08
7.03763e-08
7.29797e-08
7.68467e-08
8.18121e-08
8.77089e-08
9.43528e-08
1.01571e-07
1.09084e-07
1.16779e-07
1.24265e-07
1.31787e-07
1.38277e-07
1.45201e-07
1.49213e-07
1.563e-07
1.53112e-07
1.65742e-07
1.50549e-07
1.81396e-07
1.3561e-07
2.20387e-07
1.18707e-07
3.29997e-07
2.35576e-07
6.18176e-07
6.5485e-07
9.96447e-07
1.54223e-07
1.57813e-07
1.58415e-07
1.56977e-07
1.55555e-07
1.54487e-07
1.53899e-07
1.52586e-07
1.51123e-07
1.49207e-07
1.49732e-07
1.53635e-07
1.64535e-07
1.43579e-07
8.66342e-08
2.51948e-10
4.04474e-11
0
0
0
0
6.55793e-09
1.50199e-05
0.000206149
0.0024578
0.0259156
0.0972378
0.212777
0.311009
0.31007
0.18024
0.0279431
0.202951
0.26548
0.205706
0.0994572
0.0263412
0.00259047
4.4555e-06
2.75075e-06
0
0
0
3.24576e-10
1.18399e-09
1.09466e-08
1.68393e-08
2.06331e-08
2.12067e-08
2.23624e-08
2.64963e-08
3.26449e-08
3.97207e-08
4.75012e-08
5.59148e-08
6.47697e-08
7.38497e-08
8.30433e-08
9.21591e-08
1.01189e-07
1.09839e-07
1.18388e-07
1.25846e-07
1.33452e-07
1.38299e-07
1.45586e-07
1.43796e-07
1.56256e-07
1.43585e-07
1.73365e-07
1.31775e-07
2.14456e-07
1.17956e-07
3.27687e-07
2.32052e-07
6.23375e-07
6.36797e-07
1.01606e-06
1.26e-07
1.29766e-07
1.30143e-07
1.28805e-07
1.27595e-07
1.27323e-07
1.27512e-07
1.25949e-07
1.25599e-07
1.25084e-07
1.23648e-07
1.22846e-07
1.25463e-07
1.30987e-07
1.34916e-07
1.03914e-07
3.77996e-08
3.13848e-09
2.34197e-12
0
0
0
0
0
7.56737e-05
3.21261e-05
0.00503731
0.0369526
0.116897
0.223028
0.282835
0.230799
0.0734989
0.109906
0.219361
0.20942
0.121923
0.0405043
0.00593917
8.23795e-05
3.66743e-05
0
0
0
7.07174e-12
1.54654e-09
8.14212e-09
3.74509e-08
3.06409e-08
2.19824e-08
2.38588e-08
3.07172e-08
3.8872e-08
4.69812e-08
5.50029e-08
6.31923e-08
7.151e-08
7.98842e-08
8.81188e-08
9.62494e-08
1.04065e-07
1.1182e-07
1.18668e-07
1.25532e-07
1.29872e-07
1.36137e-07
1.34528e-07
1.46036e-07
1.34693e-07
1.6319e-07
1.23768e-07
2.05416e-07
1.10655e-07
3.2161e-07
2.23055e-07
6.22494e-07
6.03593e-07
1.04834e-06
1.36086e-07
1.3801e-07
1.37867e-07
1.36395e-07
1.34999e-07
1.34055e-07
1.335e-07
1.32028e-07
1.31053e-07
1.29918e-07
1.28151e-07
1.26594e-07
1.25419e-07
1.25099e-07
1.26849e-07
1.32514e-07
1.22215e-07
8.73777e-08
2.35453e-08
2.3933e-09
2.82578e-12
0
0
0
0
8.29145e-07
0.000155005
0.00035807
0.0104126
0.0548727
0.145005
0.239069
0.2581
0.159448
0.0262651
0.169244
0.212989
0.151155
0.0618029
0.0106189
0.000149514
6.5665e-05
3.02244e-05
6.13145e-06
1.86324e-07
0
2.24224e-11
2.19851e-09
4.33883e-08
8.75311e-08
8.12404e-08
7.07814e-08
6.91112e-08
7.27095e-08
7.78567e-08
8.34284e-08
8.93704e-08
9.56799e-08
1.0218e-07
1.08779e-07
1.15323e-07
1.21953e-07
1.27996e-07
1.33985e-07
1.37813e-07
1.43135e-07
1.42047e-07
1.52154e-07
1.42789e-07
1.68484e-07
1.33065e-07
2.10104e-07
1.1789e-07
3.27738e-07
2.116e-07
6.34125e-07
5.47772e-07
1.16064e-06
1.16524e-07
1.17292e-07
1.17618e-07
1.1808e-07
1.18386e-07
1.18698e-07
1.19304e-07
1.20033e-07
1.20645e-07
1.20995e-07
1.21332e-07
1.21939e-07
1.22475e-07
1.23043e-07
1.23537e-07
1.26262e-07
1.31057e-07
1.34514e-07
1.22908e-07
9.28948e-08
2.39729e-08
2.13293e-09
0
0
0
0
0
5.80723e-06
0.000131337
0.000464886
0.00888259
0.0417254
0.102854
0.161205
0.165437
0.0920637
0.0266769
0.118261
0.135903
0.0914668
0.0386667
0.00999177
0.00132403
2.6473e-05
2.28442e-05
3.85952e-06
0
0
1.75228e-09
2.69292e-08
8.02195e-08
1.03002e-07
1.03592e-07
1.01535e-07
1.01746e-07
1.03338e-07
1.05378e-07
1.07614e-07
1.09987e-07
1.12445e-07
1.14925e-07
1.17573e-07
1.19972e-07
1.22516e-07
1.23201e-07
1.24769e-07
1.21218e-07
1.28183e-07
1.17595e-07
1.40735e-07
1.03187e-07
1.79561e-07
7.89322e-08
2.92406e-07
1.75162e-07
5.76935e-07
5.46603e-07
1.14586e-06
)
;

boundaryField
{
    inlet
    {
        type            calculated;
        value           nonuniform List<scalar> 
27
(
6.10466e-06
6.11272e-06
6.12754e-06
6.14721e-06
6.16813e-06
6.18979e-06
6.21282e-06
6.23703e-06
6.26231e-06
6.28774e-06
6.31319e-06
6.3382e-06
6.36225e-06
6.38478e-06
6.40517e-06
6.4228e-06
6.43787e-06
6.40719e-06
6.41123e-06
6.40955e-06
6.399e-06
6.37851e-06
6.34537e-06
6.29814e-06
6.23026e-06
6.16267e-06
6.02587e-06
)
;
    }
    outlet
    {
        type            calculated;
        value           nonuniform List<scalar> 
78
(
9.45662e-08
9.56486e-08
9.62056e-08
9.6931e-08
9.74781e-08
9.80337e-08
9.8952e-08
1.00019e-07
1.00947e-07
1.01565e-07
1.02171e-07
1.03091e-07
1.03982e-07
1.04913e-07
1.05742e-07
1.08416e-07
1.12698e-07
1.155e-07
1.05427e-07
8.04946e-08
2.15257e-08
2.00284e-09
0
0
0
0
0
5.83424e-06
0.000131031
0.000438508
0.00880306
0.0415771
0.10273
0.161321
0.166002
0.093046
0.0249431
0.117049
0.135196
0.0912201
0.0386498
0.0100217
0.00134092
1.74523e-05
2.17901e-05
3.67023e-06
0
0
1.53201e-09
2.39729e-08
7.20689e-08
9.27047e-08
9.30968e-08
9.09467e-08
9.06759e-08
9.14763e-08
9.25255e-08
9.36289e-08
9.47516e-08
9.58899e-08
9.69975e-08
9.8311e-08
9.9348e-08
1.00775e-07
1.00112e-07
1.01186e-07
9.5877e-08
1.04478e-07
8.97457e-08
1.19665e-07
6.91646e-08
1.64593e-07
2.11173e-08
2.81453e-07
1.56864e-07
5.5755e-07
5.47926e-07
1.08464e-06
)
;
    }
    walls
    {
        type            calculated;
        value           nonuniform List<scalar> 0();
    }
    frontAndBack
    {
        type            empty;
    }
    procBoundary7to3
    {
        type            processor;
        value           nonuniform List<scalar> 
16
(
1.08581e-06
1.19444e-06
9.06742e-07
7.74652e-07
6.86274e-07
5.87306e-07
4.82284e-07
3.94048e-07
2.87505e-07
2.87505e-07
2.3184e-07
1.84736e-07
1.55799e-07
1.26327e-07
1.38728e-07
1.14754e-07
)
;
    }
    procBoundary7to6
    {
        type            processor;
        value           nonuniform List<scalar> 
91
(
9.37136e-07
7.37462e-07
7.37462e-07
7.05982e-07
7.05982e-07
2.91173e-07
2.91173e-07
2.65366e-07
4.8259e-07
4.8259e-07
3.81562e-07
4.43245e-07
4.43245e-07
5.40302e-07
4.74903e-07
4.71396e-07
4.71396e-07
6.31906e-07
5.90918e-07
5.43437e-07
5.43437e-07
8.16551e-07
7.57963e-07
7.02209e-07
6.49375e-07
6.49375e-07
1.05887e-06
9.93787e-07
9.31245e-07
8.71376e-07
8.14215e-07
8.14215e-07
1.38498e-06
1.32251e-06
1.26022e-06
1.19834e-06
1.13724e-06
1.07721e-06
1.01849e-06
1.01849e-06
1.72345e-06
1.69197e-06
1.6585e-06
1.62291e-06
1.58514e-06
1.54524e-06
1.50328e-06
1.45937e-06
1.41371e-06
1.36656e-06
1.31808e-06
1.26856e-06
1.26856e-06
5.58424e-13
0
0
0.000333788
0.000297952
0.0261407
0.180906
0.539043
1.02494
1.47407
1.72878
1.68097
1.29515
0.627608
0.217602
0.979824
1.50011
1.58575
1.21991
0.632418
0.183674
0.0210267
1.3968e-05
3.41866e-06
0
0
0
5.03837e-08
7.1744e-07
1.79075e-06
1.84729e-06
1.63438e-06
1.55765e-06
1.54821e-06
1.5332e-06
1.50962e-06
1.48627e-06
1.48627e-06
)
;
    }
}


// ************************************************************************* //
