/*--------------------------------*- C++ -*----------------------------------*\
| =========                 |                                                 |
| \\      /  F ield         | OpenFOAM: The Open Source CFD Toolbox           |
|  \\    /   O peration     | Version:  2306                                  |
|   \\  /    A nd           | Website:  www.openfoam.com                      |
|    \\/     M anipulation  |                                                 |
\*---------------------------------------------------------------------------*/
FoamFile
{
    version     2.0;
    format      ascii;
    arch        "LSB;label=32;scalar=64";
    class       volScalarField;
    location    "0.02";
    object      nut;
}
// * * * * * * * * * * * * * * * * * * * * * * * * * * * * * * * * * * * * * //

dimensions      [0 2 -1 0 0 0 0];

internalField   nonuniform List<scalar> 
20000
(
0.00037330965
0.00091639783
0.0011944309
0.0012590082
0.0010613861
0.00047910679
5.4910232e-06
8.577643e-09
7.5529954e-09
7.4788399e-09
7.4836573e-09
7.4551926e-09
7.4504914e-09
7.4381942e-09
7.4336779e-09
7.4276443e-09
7.4244315e-09
7.4219724e-09
7.421204e-09
7.4217698e-09
7.4237909e-09
7.4270941e-09
7.4313719e-09
7.4361436e-09
7.4407816e-09
7.444657e-09
7.4473267e-09
7.448476e-09
7.4479747e-09
7.4458263e-09
7.4420834e-09
7.4369515e-09
7.4308909e-09
7.4244091e-09
7.417839e-09
7.4113686e-09
7.4051509e-09
7.3992453e-09
7.3937249e-09
7.3887206e-09
7.3839781e-09
7.3796083e-09
7.3758433e-09
7.3723781e-09
7.3693147e-09
7.3669039e-09
7.3646819e-09
7.3624613e-09
7.3596723e-09
7.3618656e-09
0.00037072651
0.00090378262
0.0011700457
0.001220497
0.0010097621
0.00041306284
2.1344363e-06
8.1384183e-09
7.5526868e-09
7.4786288e-09
7.4844821e-09
7.4562664e-09
7.4520093e-09
7.4401146e-09
7.4359401e-09
7.4302632e-09
7.4273649e-09
7.4252204e-09
7.4247326e-09
7.4255534e-09
7.4277837e-09
7.4312376e-09
7.4355899e-09
7.4403403e-09
7.4448435e-09
7.4484738e-09
7.4507809e-09
7.4514333e-09
7.450426e-09
7.4477854e-09
7.4436034e-09
7.4381113e-09
7.4317424e-09
7.4250157e-09
7.4182524e-09
7.4116422e-09
7.4053237e-09
7.399344e-09
7.3937661e-09
7.3887246e-09
7.3839642e-09
7.3795799e-09
7.3758179e-09
7.3723505e-09
7.3692854e-09
7.3668846e-09
7.3646635e-09
7.3623557e-09
7.359692e-09
7.3619001e-09
0.00036842284
0.00089200967
0.0011467074
0.0011828367
0.00095557731
0.00034732281
7.8641221e-07
7.8720168e-09
7.5526319e-09
7.4787676e-09
7.4849383e-09
7.4575273e-09
7.453653e-09
7.4422153e-09
7.4383808e-09
7.4330881e-09
7.4305269e-09
7.4287247e-09
7.4285562e-09
7.4296782e-09
7.4321711e-09
7.4358351e-09
7.4403227e-09
7.44511e-09
7.4495281e-09
7.4529484e-09
7.4548936e-09
7.4550131e-09
7.4534552e-09
7.4502664e-09
7.4455952e-09
7.439682e-09
7.43296e-09
7.4259453e-09
7.4189622e-09
7.4121683e-09
7.4057083e-09
7.3996251e-09
7.3939664e-09
7.3888676e-09
7.3840808e-09
7.3796674e-09
7.3758905e-09
7.3724111e-09
7.3693258e-09
7.3669206e-09
7.3646914e-09
7.3622864e-09
7.359802e-09
7.3619385e-09
0.00036610758
0.00088014922
0.001123828
0.00114539
0.00089987675
0.0002865146
3.0255514e-07
7.7141432e-09
7.5532436e-09
7.4792188e-09
7.4860376e-09
7.459102e-09
7.4555997e-09
7.4446173e-09
7.4411116e-09
7.4362002e-09
7.4339648e-09
7.4325007e-09
7.4326381e-09
7.4340449e-09
7.4367779e-09
7.4406214e-09
7.4452043e-09
7.4499775e-09
7.4542535e-09
7.4574074e-09
7.4589226e-09
7.4585256e-09
7.456399e-09
7.4526481e-09
7.447473e-09
7.4411328e-09
7.4340527e-09
7.4267437e-09
7.4195308e-09
7.4125689e-09
7.4059854e-09
7.3998153e-09
7.3940874e-09
7.3889363e-09
7.3841286e-09
7.3796969e-09
7.3759089e-09
7.3724239e-09
7.3693257e-09
7.3669203e-09
7.3646896e-09
7.3622129e-09
7.3598545e-09
7.361987e-09
0.00036380113
0.00086797337
0.0010995013
0.0011066461
0.00084191396
0.00022967547
1.2643766e-07
7.6202432e-09
7.5543671e-09
7.480014e-09
7.4872943e-09
7.4609665e-09
7.4578193e-09
7.4472981e-09
7.4441191e-09
7.4395912e-09
7.4376881e-09
7.4365649e-09
7.4370169e-09
7.4387158e-09
7.4416953e-09
7.4457206e-09
7.4503957e-09
7.4551427e-09
7.4592597e-09
7.4621189e-09
7.4631592e-09
7.4622114e-09
7.4594715e-09
7.4551245e-09
7.4494194e-09
7.4426335e-09
7.4351845e-09
7.4275749e-09
7.4201292e-09
7.4129905e-09
7.4062786e-09
7.4000207e-09
7.3942243e-09
7.3890186e-09
7.3841887e-09
7.3797403e-09
7.3759377e-09
7.3724458e-09
7.3693338e-09
7.3669254e-09
7.3646914e-09
7.3621547e-09
7.3599339e-09
7.3620382e-09
0.00036156282
0.00085606415
0.0010756484
0.0010683161
0.00078170503
0.00017779581
5.9734779e-08
7.5629122e-09
7.5559817e-09
7.4811419e-09
7.4889113e-09
7.4631344e-09
7.4603236e-09
7.4502695e-09
7.4474116e-09
7.4432709e-09
7.4416986e-09
7.4409221e-09
7.4416879e-09
7.4436777e-09
7.4468987e-09
7.4510956e-09
7.4558441e-09
7.4605372e-09
7.4644641e-09
7.4669786e-09
7.4674962e-09
7.4659674e-09
7.4625777e-09
7.4576068e-09
7.4513518e-09
7.4441087e-09
7.4362856e-09
7.4283727e-09
7.4206918e-09
7.4133775e-09
7.4065393e-09
7.4001963e-09
7.3943377e-09
7.3890798e-09
7.384229e-09
7.3797693e-09
7.3759534e-09
7.3724568e-09
7.3693339e-09
7.3669232e-09
7.3646873e-09
7.3621054e-09
7.3599921e-09
7.3620916e-09
0.00035937269
0.00084413418
0.0010516958
0.0010297678
0.00071921407
0.00013008857
3.2375318e-08
7.5287508e-09
7.5562701e-09
7.4826021e-09
7.4906336e-09
7.4655962e-09
7.463112e-09
7.4535314e-09
7.4509936e-09
7.4472425e-09
7.446006e-09
7.4455766e-09
7.4466608e-09
7.4489435e-09
7.4524041e-09
7.4567648e-09
7.4615693e-09
7.4661823e-09
7.4698878e-09
7.4720034e-09
7.4719655e-09
7.4698091e-09
7.4657355e-09
7.4601123e-09
7.4532871e-09
7.4455747e-09
7.4373723e-09
7.4291546e-09
7.4212382e-09
7.4137477e-09
7.4067823e-09
7.4003554e-09
7.3944376e-09
7.3891276e-09
7.3842568e-09
7.3797897e-09
7.3759624e-09
7.3724631e-09
7.3693322e-09
7.36692e-09
7.3646805e-09
7.3620658e-09
7.360067e-09
7.3621439e-09
0.00035722011
0.00083205317
0.0010275111
0.00099126726
0.00065480726
8.6445666e-05
2.0164425e-08
7.5084167e-09
7.5560014e-09
7.4843863e-09
7.4925276e-09
7.4683509e-09
7.4661882e-09
7.4570888e-09
7.4548689e-09
7.4515129e-09
7.4506136e-09
7.4505382e-09
7.4519421e-09
7.4545171e-09
7.4582129e-09
7.4627261e-09
7.4675652e-09
7.4720681e-09
7.475516e-09
7.4771738e-09
7.4765478e-09
7.4737147e-09
7.4689248e-09
7.462623e-09
7.4552097e-09
7.4470184e-09
7.4384335e-09
7.4299103e-09
7.4217579e-09
7.4140917e-09
7.4070004e-09
7.4004923e-09
7.3945199e-09
7.3891593e-09
7.3842676e-09
7.3797959e-09
7.3759599e-09
7.372461e-09
7.3693259e-09
7.3669143e-09
7.3646587e-09
7.3620357e-09
7.3601404e-09
7.3621939e-09
0.00035509377
0.00081967907
0.0010024034
0.00095032686
0.00058893972
5.0049091e-05
1.4310802e-08
7.4967348e-09
7.5574347e-09
7.4865135e-09
7.4947831e-09
7.471404e-09
7.4695549e-09
7.4609443e-09
7.4590436e-09
7.4560867e-09
7.4555308e-09
7.4558109e-09
7.4575389e-09
7.4604068e-09
7.4643334e-09
7.4689862e-09
7.473836e-09
7.4781981e-09
7.4813441e-09
7.4824828e-09
7.4812334e-09
7.4776751e-09
7.4721359e-09
7.4651305e-09
7.4571126e-09
7.4484341e-09
7.4394651e-09
7.430638e-09
7.4222515e-09
7.4144112e-09
7.4071953e-09
7.4006076e-09
7.3945846e-09
7.3891755e-09
7.3842621e-09
7.3797883e-09
7.3759453e-09
7.3724495e-09
7.3693141e-09
7.3669053e-09
7.3646192e-09
7.3620149e-09
7.3602176e-09
7.3622412e-09
0.00035299005
0.00080717721
0.00097658375
0.00090958839
0.00052270484
2.4491664e-05
1.1330507e-08
7.4905755e-09
7.5587875e-09
7.4889773e-09
7.4977425e-09
7.4747693e-09
7.4732153e-09
7.4651034e-09
7.4635229e-09
7.4609722e-09
7.4607625e-09
7.4614055e-09
7.4634585e-09
7.4666177e-09
7.4707682e-09
7.4755449e-09
7.4803791e-09
7.4845689e-09
7.487356e-09
7.48792e-09
7.4860057e-09
7.4816766e-09
7.4753559e-09
7.4676244e-09
7.4589878e-09
7.4498158e-09
7.4404625e-09
7.4313339e-09
7.422715e-09
7.4147027e-09
7.407364e-09
7.4006989e-09
7.3946298e-09
7.3891762e-09
7.3842403e-09
7.3797663e-09
7.3759184e-09
7.3724273e-09
7.3692957e-09
7.366892e-09
7.3645707e-09
7.3619992e-09
7.3602924e-09
7.362285e-09
0.00035093445
0.00079470695
0.00095047438
0.00086907134
0.0004567551
1.023572e-05
9.7392844e-09
7.4878953e-09
7.5606451e-09
7.4917802e-09
7.501162e-09
7.4784579e-09
7.4771787e-09
7.4695749e-09
7.4683176e-09
7.4661771e-09
7.46632e-09
7.467327e-09
7.4697088e-09
7.4731582e-09
7.4775245e-09
7.4824065e-09
7.4871956e-09
7.4911756e-09
7.4935377e-09
7.4934846e-09
7.4908464e-09
7.4857043e-09
7.4785706e-09
7.4700922e-09
7.4608247e-09
7.4511547e-09
7.441419e-09
7.4319936e-09
7.423147e-09
7.4149662e-09
7.4075059e-09
7.4007652e-09
7.3946562e-09
7.3891633e-09
7.3842047e-09
7.3797316e-09
7.3758814e-09
7.3723956e-09
7.3692703e-09
7.3668747e-09
7.364515e-09
7.3619869e-09
7.3603708e-09
7.3623238e-09
0.00034891267
0.00078241953
0.00092526423
0.0008280858
0.00039203588
3.8319219e-06
8.860145e-09
7.4874606e-09
7.5628278e-09
7.4949367e-09
7.5044768e-09
7.4824737e-09
7.4814599e-09
7.4743702e-09
7.4734363e-09
7.4717116e-09
7.4722095e-09
7.473587e-09
7.4762975e-09
7.4800333e-09
7.4846047e-09
7.4895697e-09
7.494281e-09
7.4980088e-09
7.4998756e-09
7.4991622e-09
7.4957389e-09
7.4897435e-09
7.4817676e-09
7.4725244e-09
7.4626167e-09
7.4524463e-09
7.4423313e-09
7.4326145e-09
7.4235444e-09
7.4151982e-09
7.4076185e-09
7.4008075e-09
7.3946669e-09
7.3891406e-09
7.3841587e-09
7.3796866e-09
7.3758362e-09
7.3723582e-09
7.3692393e-09
7.3668543e-09
7.364449e-09
7.3619776e-09
7.3604478e-09
7.3623607e-09
0.00034684893
0.00076976252
0.00089919822
0.00078583272
0.00033002958
1.366853e-06
8.3663272e-09
7.488573e-09
7.5650815e-09
7.4984634e-09
7.5074105e-09
7.486809e-09
7.4860672e-09
7.4794967e-09
7.4788886e-09
7.4775829e-09
7.4784423e-09
7.480191e-09
7.4832327e-09
7.4872513e-09
7.4920149e-09
7.4970377e-09
7.5016361e-09
7.5050604e-09
7.5063572e-09
7.5049369e-09
7.5006669e-09
7.4937771e-09
7.4849316e-09
7.4749081e-09
7.4643531e-09
7.4536819e-09
7.4431927e-09
7.4331923e-09
7.4239058e-09
7.4153982e-09
7.4077031e-09
7.4008282e-09
7.394661e-09
7.3891044e-09
7.3840986e-09
7.3796294e-09
7.3757798e-09
7.3723131e-09
7.3692054e-09
7.366831e-09
7.3643729e-09
7.3619709e-09
7.3605253e-09
7.3623978e-09
0.00034473836
0.00075682761
0.00087249495
0.00074184394
0.00027194977
4.9360432e-07
8.0881206e-09
7.4907868e-09
7.567717e-09
7.5023477e-09
7.5109044e-09
7.4914722e-09
7.4910084e-09
7.4849631e-09
7.4846827e-09
7.4838018e-09
7.485026e-09
7.4871513e-09
7.4905221e-09
7.4948167e-09
7.4997563e-09
7.5048081e-09
7.5092572e-09
7.5123118e-09
7.5129699e-09
7.5107878e-09
7.5056128e-09
7.4977888e-09
7.4880495e-09
7.4772337e-09
7.4660275e-09
7.4548574e-09
7.4440002e-09
7.4337246e-09
7.4242281e-09
7.4155628e-09
7.4077612e-09
7.4008249e-09
7.3946251e-09
7.3890453e-09
7.3840181e-09
7.3795506e-09
7.3757038e-09
7.3722501e-09
7.3691695e-09
7.3668032e-09
7.364288e-09
7.3619663e-09
7.3606023e-09
7.3624351e-09
0.00034257748
0.0007437075
0.00084517449
0.00069624266
0.0002171525
1.9065924e-07
7.9287713e-09
7.4938569e-09
7.5705415e-09
7.5066153e-09
7.5157366e-09
7.4965009e-09
7.4962919e-09
7.4907775e-09
7.4908286e-09
7.4903768e-09
7.491973e-09
7.4944728e-09
7.4981742e-09
7.5027369e-09
7.5078341e-09
7.5128818e-09
7.5171393e-09
7.5197441e-09
7.5197108e-09
7.5166907e-09
7.5105567e-09
7.5017597e-09
7.4911049e-09
7.4794875e-09
7.4676287e-09
7.4559637e-09
7.444747e-09
7.4342072e-09
7.4245092e-09
7.4156941e-09
7.4077939e-09
7.400784e-09
7.3945654e-09
7.3889763e-09
7.3839301e-09
7.3794611e-09
7.3756182e-09
7.3721791e-09
7.3691222e-09
7.3667591e-09
7.3641948e-09
7.3619638e-09
7.3606782e-09
7.3624728e-09
0.00034040711
0.00073062285
0.00081734077
0.00064968031
0.00016564101
8.2652533e-08
7.836221e-09
7.4976883e-09
7.5737322e-09
7.5112857e-09
7.5210189e-09
7.5019079e-09
7.5019262e-09
7.4969485e-09
7.4973339e-09
7.4973192e-09
7.4992864e-09
7.5021655e-09
7.5061951e-09
7.511016e-09
7.5162465e-09
7.5212548e-09
7.5252697e-09
7.5273418e-09
7.5265599e-09
7.5226244e-09
7.5154791e-09
7.5056734e-09
7.4940852e-09
7.481661e-09
7.4691518e-09
7.456998e-09
7.4454315e-09
7.434638e-09
7.4247462e-09
7.4157925e-09
7.4077902e-09
7.4007148e-09
7.3944881e-09
7.3888933e-09
7.3838317e-09
7.3793625e-09
7.3755243e-09
7.3721017e-09
7.3690648e-09
7.3667044e-09
7.3640946e-09
7.3619637e-09
7.360755e-09
7.3625106e-09
0.00033828645
0.00071785495
0.00078943717
0.0006006564
0.00011885643
4.1510267e-08
7.7823953e-09
7.5022072e-09
7.5772221e-09
7.5163546e-09
7.5260319e-09
7.5076761e-09
7.5079186e-09
7.5034798e-09
7.5042081e-09
7.5046308e-09
7.5069772e-09
7.5102382e-09
7.5145938e-09
7.5196607e-09
7.5249973e-09
7.5299269e-09
7.5336383e-09
7.5350878e-09
7.533496e-09
7.5285667e-09
7.5203572e-09
7.5095098e-09
7.4969737e-09
7.483741e-09
7.4705861e-09
7.4579521e-09
7.4460473e-09
7.4350121e-09
7.4249397e-09
7.4158597e-09
7.407744e-09
7.4006219e-09
7.3943854e-09
7.3887947e-09
7.3837226e-09
7.3792526e-09
7.3754195e-09
7.3720136e-09
7.369004e-09
7.3666448e-09
7.3639902e-09
7.3619667e-09
7.360834e-09
7.3625482e-09
0.000336276
0.00070553831
0.00076376493
0.00054933114
7.7466321e-05
2.4243459e-08
7.7510956e-09
7.5074454e-09
7.5810308e-09
7.5217897e-09
7.5307621e-09
7.5137886e-09
7.5142677e-09
7.5103773e-09
7.5114539e-09
7.5123246e-09
7.5150558e-09
7.5186999e-09
7.5233774e-09
7.5286733e-09
7.5340851e-09
7.5388929e-09
7.5422242e-09
7.5429659e-09
7.5404929e-09
7.5344951e-09
7.5251704e-09
7.5132524e-09
7.4997585e-09
7.4857198e-09
7.4719276e-09
7.4588244e-09
7.4465931e-09
7.4353277e-09
7.4250916e-09
7.4158825e-09
7.4076719e-09
7.4004995e-09
7.3942596e-09
7.3886801e-09
7.3836034e-09
7.3791328e-09
7.3753047e-09
7.3719168e-09
7.3689376e-09
7.3665699e-09
7.3638863e-09
7.3619733e-09
7.3609133e-09
7.362585e-09
0.0003343168
0.00069314181
0.00073763705
0.00049552602
4.374705e-05
1.6322508e-08
7.7333446e-09
7.5134667e-09
7.585092e-09
7.5275819e-09
7.5360546e-09
7.5202491e-09
7.5209835e-09
7.5176488e-09
7.5190864e-09
7.520409e-09
7.5235325e-09
7.5275615e-09
7.5325546e-09
7.5380592e-09
7.543511e-09
7.5481459e-09
7.5510034e-09
7.5509679e-09
7.5475195e-09
7.5403826e-09
7.5298935e-09
7.5168797e-09
7.5024224e-09
7.4875837e-09
7.473166e-09
7.4596067e-09
7.4470616e-09
7.4355829e-09
7.4252028e-09
7.4158547e-09
7.4075683e-09
7.400349e-09
7.3941085e-09
7.3885479e-09
7.3834735e-09
7.3790036e-09
7.3751799e-09
7.371811e-09
7.3688634e-09
7.3664725e-09
7.3637891e-09
7.361984e-09
7.3609922e-09
7.3626206e-09
0.00033245618
0.00068080809
0.0007113001
0.00043983017
2.0997997e-05
1.2428312e-08
7.7238454e-09
7.5208161e-09
7.5893481e-09
7.5337598e-09
7.5422444e-09
7.5270901e-09
7.5280779e-09
7.5253088e-09
7.5271143e-09
7.5289e-09
7.5324201e-09
7.5368326e-09
7.5421311e-09
7.5478189e-09
7.5532707e-09
7.5576718e-09
7.5599563e-09
7.5590695e-09
7.5545481e-09
7.5462045e-09
7.534506e-09
7.5203767e-09
7.5049552e-09
7.4893275e-09
7.4742994e-09
7.4602984e-09
7.4474524e-09
7.4357827e-09
7.425257e-09
7.4157962e-09
7.4074319e-09
7.4001696e-09
7.3939328e-09
7.3883974e-09
7.3833328e-09
7.3788659e-09
7.3750459e-09
7.3716967e-09
7.3687806e-09
7.3663482e-09
7.3637008e-09
7.3619979e-09
7.3610698e-09
7.3626546e-09
0.0003306981
0.00066853706
0.00068469277
0.00038300732
8.6291232e-06
1.0399566e-08
7.719299e-09
7.5300702e-09
7.593799e-09
7.5403527e-09
7.5491836e-09
7.5343427e-09
7.5355707e-09
7.5333715e-09
7.5355571e-09
7.5378075e-09
7.5417296e-09
7.5465237e-09
7.5521149e-09
7.5579559e-09
7.5633626e-09
7.5674571e-09
7.5690605e-09
7.5672415e-09
7.5615494e-09
7.551931e-09
7.538982e-09
7.5237223e-09
7.5073409e-09
7.4909389e-09
7.4753186e-09
7.4608914e-09
7.4477633e-09
7.4359252e-09
7.4252463e-09
7.4156991e-09
7.407263e-09
7.3999621e-09
7.3937315e-09
7.3882269e-09
7.3831801e-09
7.3787199e-09
7.3749032e-09
7.371574e-09
7.3686877e-09
7.3662009e-09
7.3636162e-09
7.3620138e-09
7.3611451e-09
7.3626871e-09
0.00032891666
0.00065550956
0.00065749964
0.00032628441
3.2100974e-06
9.3062582e-09
7.7176902e-09
7.5399145e-09
7.5988508e-09
7.5473844e-09
7.55633e-09
7.5420191e-09
7.5434776e-09
7.5418537e-09
7.5444247e-09
7.5471481e-09
7.551474e-09
7.556644e-09
7.5625096e-09
7.5684691e-09
7.57378e-09
7.5774771e-09
7.5782945e-09
7.575451e-09
7.5684936e-09
7.5575355e-09
7.543301e-09
7.5269023e-09
7.5095709e-09
7.4924143e-09
7.4762222e-09
7.461386e-09
7.4480018e-09
7.4359897e-09
7.4251974e-09
7.4155619e-09
7.4070609e-09
7.3997268e-09
7.3935053e-09
7.3880356e-09
7.3830143e-09
7.3785659e-09
7.3747528e-09
7.3714435e-09
7.3685841e-09
7.3660335e-09
7.3635322e-09
7.3620304e-09
7.3612164e-09
7.362718e-09
0.00032708031
0.00064152449
0.00062930684
0.00027256539
1.1514049e-06
8.697398e-09
7.7177861e-09
7.5502071e-09
7.604483e-09
7.5548532e-09
7.5633202e-09
7.5501125e-09
7.5518137e-09
7.5507669e-09
7.5537343e-09
7.556931e-09
7.561664e-09
7.5672035e-09
7.5733209e-09
7.5793606e-09
7.5845132e-09
7.5877019e-09
7.5876444e-09
7.5836589e-09
7.5753454e-09
7.5629859e-09
7.5474367e-09
7.5298961e-09
7.5116299e-09
7.4937421e-09
7.4770001e-09
7.4617799e-09
7.4481635e-09
7.435972e-09
7.4250952e-09
7.4153851e-09
7.406827e-09
7.3994643e-09
7.393254e-09
7.3878223e-09
7.3828338e-09
7.3784035e-09
7.3745952e-09
7.3713056e-09
7.3684691e-09
7.3658485e-09
7.3634469e-09
7.3620465e-09
7.3612826e-09
7.3627469e-09
0.00032505068
0.00062629632
0.00059933079
0.00022137539
4.2242673e-07
8.3521916e-09
7.7189767e-09
7.5607657e-09
7.6104965e-09
7.5627509e-09
7.5705021e-09
7.5586238e-09
7.5605902e-09
7.5601243e-09
7.5634947e-09
7.5671724e-09
7.5723125e-09
7.578209e-09
7.5845512e-09
7.590624e-09
7.5955459e-09
7.5981058e-09
7.5970782e-09
7.5918283e-09
7.5820726e-09
7.5682559e-09
7.5513701e-09
7.5326923e-09
7.5135124e-09
7.4949199e-09
7.4776537e-09
7.4620831e-09
7.4482241e-09
7.4359042e-09
7.424941e-09
7.415167e-09
7.4065605e-09
7.3991755e-09
7.3929783e-09
7.3875862e-09
7.3826372e-09
7.378232e-09
7.3744312e-09
7.371161e-09
7.3683423e-09
7.3656481e-09
7.3633589e-09
7.3620603e-09
7.3613399e-09
7.3627701e-09
0.00032276
0.00060946083
0.00056470785
0.00017236645
1.6779631e-07
8.1566562e-09
7.7211244e-09
7.5702779e-09
7.6169542e-09
7.5711014e-09
7.5785433e-09
7.5675754e-09
7.5698178e-09
7.5699358e-09
7.5737221e-09
7.5778816e-09
7.5834304e-09
7.5896695e-09
7.5962041e-09
7.6022573e-09
7.6068608e-09
7.6086597e-09
7.6065583e-09
7.5999213e-09
7.588637e-09
7.5733137e-09
7.5550767e-09
7.5352731e-09
7.5152055e-09
7.4959369e-09
7.478181e-09
7.4622898e-09
7.4481879e-09
7.4357627e-09
7.4247331e-09
7.4149089e-09
7.4062632e-09
7.3988615e-09
7.3926786e-09
7.387327e-09
7.3824229e-09
7.3780501e-09
7.3742612e-09
7.3710105e-09
7.3682025e-09
7.3654345e-09
7.3632659e-09
7.3620706e-09
7.3613867e-09
7.362787e-09
0.00032024071
0.00059143214
0.0005257071
0.00012658728
7.553893e-08
8.0447156e-09
7.7244169e-09
7.5793994e-09
7.6238412e-09
7.5799087e-09
7.5875429e-09
7.5769983e-09
7.5795078e-09
7.5802159e-09
7.584427e-09
7.5890766e-09
7.5950289e-09
7.6015909e-09
7.6082783e-09
7.6142513e-09
7.6184263e-09
7.6193354e-09
7.616041e-09
7.6078983e-09
7.5950045e-09
7.5781336e-09
7.5585397e-09
7.5376296e-09
7.5167046e-09
7.4967938e-09
7.4785934e-09
7.4623702e-09
7.4480865e-09
7.4355548e-09
7.4244711e-09
7.4146094e-09
7.405935e-09
7.3985233e-09
7.3923561e-09
7.3870446e-09
7.3821899e-09
7.3778567e-09
7.3740853e-09
7.370855e-09
7.3680469e-09
7.3652111e-09
7.3631653e-09
7.362071e-09
7.3614325e-09
7.3627954e-09
0.00031752773
0.00057260607
0.00048263665
8.6190823e-05
3.9484825e-08
7.9809482e-09
7.7276506e-09
7.5885897e-09
7.6311766e-09
7.5891894e-09
7.5969366e-09
7.5869012e-09
7.5896754e-09
7.5909781e-09
7.595629e-09
7.600768e-09
7.6071201e-09
7.6139803e-09
7.6207756e-09
7.6265945e-09
7.6302022e-09
7.6301152e-09
7.6254733e-09
7.6157147e-09
7.6011343e-09
7.5826836e-09
7.5617361e-09
7.5397451e-09
7.5179965e-09
7.4974882e-09
7.4788818e-09
7.4623389e-09
7.4478943e-09
7.4352766e-09
7.4241545e-09
7.4142694e-09
7.4055774e-09
7.3981623e-09
7.3920114e-09
7.3867394e-09
7.3819376e-09
7.3776502e-09
7.3739032e-09
7.3706949e-09
7.3678701e-09
7.3649824e-09
7.3630582e-09
7.3620581e-09
7.3614821e-09
7.3628032e-09
0.00031462613
0.00055315064
0.00043779025
5.31257e-05
2.391616e-08
7.9449649e-09
7.731234e-09
7.5979942e-09
7.6389646e-09
7.5989371e-09
7.6062722e-09
7.5972738e-09
7.6003353e-09
7.6022406e-09
7.6073415e-09
7.612975e-09
7.6197147e-09
7.6268405e-09
7.6336896e-09
7.6392645e-09
7.6421589e-09
7.6409522e-09
7.6348111e-09
7.6233281e-09
7.6069944e-09
7.5869423e-09
7.5646542e-09
7.5416134e-09
7.5190823e-09
7.4980334e-09
7.47901e-09
7.4622241e-09
7.4476229e-09
7.4349307e-09
7.423783e-09
7.4138881e-09
7.4051905e-09
7.3977797e-09
7.3916458e-09
7.3864122e-09
7.381666e-09
7.3774296e-09
7.3737144e-09
7.3705299e-09
7.3676637e-09
7.3647549e-09
7.3629476e-09
7.3620374e-09
7.3615217e-09
7.3628134e-09
0.00031142158
0.00053229004
0.00039372212
2.8222019e-05
1.6528494e-08
7.925515e-09
7.7351602e-09
7.6076537e-09
7.6472124e-09
7.6091478e-09
7.6158233e-09
7.6081244e-09
7.6115119e-09
7.6140235e-09
7.6195875e-09
7.6257101e-09
7.6328229e-09
7.6401754e-09
7.6470154e-09
7.6522364e-09
7.654255e-09
7.6517965e-09
7.644001e-09
7.6306884e-09
7.6125441e-09
7.5908802e-09
7.5672733e-09
7.5432198e-09
7.5199605e-09
7.4984177e-09
7.4790066e-09
7.4620013e-09
7.4472676e-09
7.434516e-09
7.4233562e-09
7.4134659e-09
7.4047757e-09
7.3973768e-09
7.3912604e-09
7.3860639e-09
7.3813758e-09
7.3771944e-09
7.3735183e-09
7.3703594e-09
7.3674191e-09
7.3645355e-09
7.3628347e-09
7.362012e-09
7.3615367e-09
7.362809e-09
0.00030814883
0.00051092694
0.00034788694
1.2904348e-05
1.2817258e-08
7.9160869e-09
7.7394621e-09
7.6176225e-09
7.6559407e-09
7.6198507e-09
7.6263695e-09
7.6195026e-09
7.6232291e-09
7.6263509e-09
7.6323842e-09
7.6389921e-09
7.646453e-09
7.6539848e-09
7.6607411e-09
7.6654696e-09
7.6664571e-09
7.6625913e-09
7.6529946e-09
7.6377536e-09
7.6177543e-09
7.5944802e-09
7.5695841e-09
7.5445652e-09
7.5206453e-09
7.4985956e-09
7.4788924e-09
7.4616835e-09
7.4468339e-09
7.4340352e-09
7.4228747e-09
7.4130024e-09
7.4043331e-09
7.3969547e-09
7.3908562e-09
7.3856957e-09
7.3810683e-09
7.3769448e-09
7.3733146e-09
7.3701826e-09
7.3671447e-09
7.3643169e-09
7.3627163e-09
7.3619673e-09
7.3615408e-09
7.3627904e-09
0.00030513732
0.00049135944
0.00030151337
5.2325983e-06
1.085249e-08
7.9127774e-09
7.7442187e-09
7.6279703e-09
7.6652064e-09
7.6311018e-09
7.637777e-09
7.6314544e-09
7.635513e-09
7.6392439e-09
7.6457547e-09
7.6528299e-09
7.6606115e-09
7.6682666e-09
7.6748477e-09
7.6789104e-09
7.6787371e-09
7.6732639e-09
7.6617327e-09
7.6444709e-09
7.6225857e-09
7.5977147e-09
7.5715685e-09
7.5456488e-09
7.5211188e-09
7.498614e-09
7.4786448e-09
7.4612656e-09
7.446321e-09
7.4334881e-09
7.422338e-09
7.4124974e-09
7.4038634e-09
7.3965146e-09
7.3904347e-09
7.3853092e-09
7.3807448e-09
7.3766818e-09
7.3731035e-09
7.3699993e-09
7.3668492e-09
7.3640945e-09
7.3625886e-09
7.3618984e-09
7.3615372e-09
7.3627566e-09
0.00030224003
0.0004710179
0.00025468304
1.968561e-06
9.7648663e-09
7.9133015e-09
7.7495096e-09
7.638766e-09
7.6750481e-09
7.6429315e-09
7.6494661e-09
7.6439847e-09
7.6483846e-09
7.6527279e-09
7.6597084e-09
7.6672374e-09
7.6753003e-09
7.6830139e-09
7.6893045e-09
7.6925218e-09
7.6910279e-09
7.6837608e-09
7.6701605e-09
7.6508021e-09
7.6270145e-09
7.6005713e-09
7.5732275e-09
7.5464853e-09
7.5213327e-09
7.4984831e-09
7.4782775e-09
7.4607548e-09
7.4457337e-09
7.432878e-09
7.4217477e-09
7.4119511e-09
7.4033666e-09
7.3960571e-09
7.3899966e-09
7.3849055e-09
7.380407e-09
7.3764068e-09
7.3728859e-09
7.3698108e-09
7.3665448e-09
7.3638648e-09
7.3624463e-09
7.3618059e-09
7.3615081e-09
7.3627023e-09
0.0002996652
0.0004500369
0.00020815733
7.2629992e-07
9.1554501e-09
7.9162514e-09
7.7553351e-09
7.6500209e-09
7.6854721e-09
7.6553335e-09
7.6615194e-09
7.657099e-09
7.6618699e-09
7.6668138e-09
7.6742655e-09
7.6822246e-09
7.6905218e-09
7.6982159e-09
7.7040745e-09
7.7062515e-09
7.7032612e-09
7.6940102e-09
7.6782141e-09
7.6566973e-09
7.6310057e-09
7.6030283e-09
7.5745602e-09
7.5470488e-09
7.5213506e-09
7.4981852e-09
7.4777856e-09
7.4601502e-09
7.4450726e-09
7.4322055e-09
7.4211035e-09
7.4113628e-09
7.4028425e-09
7.3955828e-09
7.3895435e-09
7.384486e-09
7.380056e-09
7.3761216e-09
7.3726632e-09
7.3696195e-09
7.3662515e-09
7.3636364e-09
7.3622898e-09
7.3616914e-09
7.3614441e-09
7.3626229e-09
0.00029757904
0.00042829686
0.00016290622
2.8066439e-07
8.807105e-09
7.9207772e-09
7.7616913e-09
7.6617641e-09
7.6964903e-09
7.6683197e-09
7.6743525e-09
7.6708327e-09
7.6759851e-09
7.6815269e-09
7.6894418e-09
7.6977985e-09
7.7062751e-09
7.7138537e-09
7.7190994e-09
7.7200575e-09
7.7153595e-09
7.7039483e-09
7.6858409e-09
7.6621223e-09
7.6345405e-09
7.6050841e-09
7.5755807e-09
7.547291e-09
7.5211719e-09
7.497734e-09
7.4771778e-09
7.4594579e-09
7.4443424e-09
7.4314743e-09
7.420408e-09
7.4107337e-09
7.402291e-09
7.3950914e-09
7.3890758e-09
7.3840519e-09
7.3796927e-09
7.3758274e-09
7.3724369e-09
7.3694299e-09
7.3659975e-09
7.3634264e-09
7.3621221e-09
7.3615592e-09
7.3613498e-09
7.3625141e-09
0.00029607669
0.00040723665
0.0001202191
1.2002338e-07
8.6009043e-09
7.9265445e-09
7.7686409e-09
7.6740412e-09
7.7081404e-09
7.6819266e-09
7.6879515e-09
7.6852181e-09
7.6907555e-09
7.6968825e-09
7.7052496e-09
7.7139654e-09
7.7225546e-09
7.7298957e-09
7.7343195e-09
7.7338801e-09
7.7272353e-09
7.7134955e-09
7.692977e-09
7.6670298e-09
7.6375898e-09
7.6067343e-09
7.5762565e-09
7.5472898e-09
7.5207841e-09
7.4971251e-09
7.4764526e-09
7.4586782e-09
7.4435443e-09
7.4306856e-09
7.4196613e-09
7.4100623e-09
7.4017107e-09
7.3945828e-09
7.3885948e-09
7.3836045e-09
7.3793173e-09
7.3755246e-09
7.372208e-09
7.3692462e-09
7.3658143e-09
7.363298e-09
7.3619858e-09
7.3614124e-09
7.3612078e-09
7.362374e-09
0.00029458782
0.00038050527
8.0848623e-05
5.8576734e-08
8.4758595e-09
7.9334653e-09
7.7762523e-09
7.6868927e-09
7.7204539e-09
7.6961795e-09
7.7021331e-09
7.700268e-09
7.7061968e-09
7.7129023e-09
7.7217009e-09
7.7307268e-09
7.7393472e-09
7.7463012e-09
7.7496743e-09
7.7476357e-09
7.7388134e-09
7.7225846e-09
7.6995748e-09
7.6713935e-09
7.6401492e-09
7.607994e-09
7.5765371e-09
7.5470373e-09
7.5202017e-09
7.4963698e-09
7.4756183e-09
7.4578166e-09
7.4426826e-09
7.4298437e-09
7.4188673e-09
7.4093511e-09
7.4011014e-09
7.3940554e-09
7.3881002e-09
7.3831448e-09
7.3789296e-09
7.3752126e-09
7.3719761e-09
7.3690705e-09
7.3656942e-09
7.3632224e-09
7.3618874e-09
7.3612732e-09
7.3610274e-09
7.3621955e-09
0.00029332109
0.00035198418
4.8602702e-05
3.3295378e-08
8.3977008e-09
7.9415588e-09
7.7845778e-09
7.7003428e-09
7.7334484e-09
7.7110835e-09
7.7169513e-09
7.7160007e-09
7.7223371e-09
7.7296022e-09
7.7388068e-09
7.7480831e-09
7.7566331e-09
7.76301e-09
7.7650976e-09
7.7612254e-09
7.7499995e-09
7.7311321e-09
7.7055722e-09
7.6751756e-09
7.6422091e-09
7.6088288e-09
7.5765158e-09
7.5465258e-09
7.5194228e-09
7.4954673e-09
7.4746749e-09
7.4568743e-09
7.4417592e-09
7.42895e-09
7.4180263e-09
7.4085989e-09
7.400461e-09
7.3935078e-09
7.3875927e-09
7.3826739e-09
7.3785292e-09
7.3748902e-09
7.3717395e-09
7.3689003e-09
7.3656147e-09
7.3631783e-09
7.361835e-09
7.3611495e-09
7.360826e-09
7.361962e-09
0.00029184315
0.00031891487
2.6422368e-05
2.1863977e-08
8.3469832e-09
7.9509456e-09
7.7936299e-09
7.7144039e-09
7.7471266e-09
7.7266456e-09
7.7324969e-09
7.7324506e-09
7.7392004e-09
7.7470067e-09
7.7565767e-09
7.7660297e-09
7.7743795e-09
7.7799346e-09
7.7805406e-09
7.7745434e-09
7.7607097e-09
7.7390747e-09
7.7109308e-09
7.6783653e-09
7.643784e-09
7.6091798e-09
7.5761794e-09
7.5457711e-09
7.5184607e-09
7.4944283e-09
7.47363e-09
7.4558558e-09
7.4407774e-09
7.4280088e-09
7.4171435e-09
7.4078093e-09
7.3997894e-09
7.3929377e-09
7.3870712e-09
7.3821926e-09
7.3781156e-09
7.3745554e-09
7.3714943e-09
7.3687277e-09
7.3655571e-09
7.3631557e-09
7.3617976e-09
7.3610646e-09
7.3606287e-09
7.3616549e-09
0.00028997408
0.00028282128
1.2636167e-05
1.6151297e-08
8.3129635e-09
7.960811e-09
7.8034215e-09
7.7291043e-09
7.7615114e-09
7.7428808e-09
7.7487675e-09
7.7496675e-09
7.7568223e-09
7.7651322e-09
7.7750142e-09
7.7845533e-09
7.7925341e-09
7.797009e-09
7.7958842e-09
7.7874841e-09
7.7708371e-09
7.7463331e-09
7.7155963e-09
7.680942e-09
7.6448399e-09
7.6091515e-09
7.5755224e-09
7.544773e-09
7.517316e-09
7.4932533e-09
7.4724844e-09
7.4547631e-09
7.4397394e-09
7.4270217e-09
7.4162193e-09
7.4069815e-09
7.3990847e-09
7.3923425e-09
7.3865353e-09
7.3817018e-09
7.3776887e-09
7.3742068e-09
7.3712354e-09
7.3685398e-09
7.3654896e-09
7.3631506e-09
7.3618101e-09
7.3610155e-09
7.3604962e-09
7.361274e-09
0.00028723399
0.00024132669
5.5587932e-06
1.3145727e-08
8.2892793e-09
7.9714473e-09
7.8140426e-09
7.7445377e-09
7.7766546e-09
7.7598861e-09
7.7656942e-09
7.767692e-09
7.7752292e-09
7.7839944e-09
7.794118e-09
7.803625e-09
7.8110316e-09
7.8141452e-09
7.8110227e-09
7.7999419e-09
7.7802995e-09
7.7528503e-09
7.7195513e-09
7.6829195e-09
7.6453046e-09
7.6087331e-09
7.5745641e-09
7.5435487e-09
7.5160029e-09
7.491953e-09
7.4712452e-09
7.4535996e-09
7.4386478e-09
7.425993e-09
7.4152601e-09
7.4061207e-09
7.3983473e-09
7.3917197e-09
7.385983e-09
7.3812016e-09
7.3772488e-09
7.3738436e-09
7.3709578e-09
7.3683219e-09
7.3653811e-09
7.363131e-09
7.361813e-09
7.3609766e-09
7.3604187e-09
7.3608516e-09
0.00028398514
0.00019602627
2.3925654e-06
1.1480461e-08
8.2720304e-09
7.9830055e-09
7.8256416e-09
7.7608325e-09
7.7926242e-09
7.7777245e-09
7.7836464e-09
7.7865344e-09
7.7944455e-09
7.8036001e-09
7.8138795e-09
7.823206e-09
7.829766e-09
7.8312634e-09
7.8258101e-09
7.8117898e-09
7.7889892e-09
7.7585557e-09
7.7227648e-09
7.6842686e-09
7.6452919e-09
7.6079191e-09
7.5733075e-09
7.5421015e-09
7.5145235e-09
7.490529e-09
7.469914e-09
7.4523676e-09
7.4375045e-09
7.4249237e-09
7.4142663e-09
7.4052269e-09
7.3975762e-09
7.3910666e-09
7.3854126e-09
7.3806919e-09
7.3767967e-09
7.3734664e-09
7.3706577e-09
7.3680624e-09
7.3651955e-09
7.36307e-09
7.3617997e-09
7.3609808e-09
7.3603268e-09
7.3603918e-09
0.00028101437
0.00016152914
1.0635428e-06
1.048914e-08
8.2584849e-09
7.9955289e-09
7.8382726e-09
7.7780814e-09
7.8094645e-09
7.7964172e-09
7.8025297e-09
7.8062275e-09
7.8144845e-09
7.8239524e-09
7.834276e-09
7.8432329e-09
7.8486442e-09
7.8482463e-09
7.8401208e-09
7.8229183e-09
7.7968318e-09
7.763418e-09
7.725244e-09
7.684896e-09
7.6447991e-09
7.6067333e-09
7.5717739e-09
7.5404492e-09
7.5128922e-09
7.4889914e-09
7.4684966e-09
7.4510694e-09
7.4363107e-09
7.4238174e-09
7.4132442e-09
7.4043061e-09
7.3967732e-09
7.3903818e-09
7.3848221e-09
7.3801717e-09
7.3763337e-09
7.373077e-09
7.3703329e-09
7.3677546e-09
7.3649349e-09
7.3629558e-09